ITEM: TIMESTEP
86000
ITEM: NUMBER OF ATOMS
810
ITEM: BOX BOUNDS pp pp pp
8.4871610451404400e-01 5.2168888895484841e+01
8.1004593661964008e-01 5.0206169063379178e+01
-1.0000000000000000e+01 1.0000000000000000e+01
ITEM: ATOMS id type x y z xu yu zu
1 1 1.05352 1.02495 0.0764863 1.05352 1.02495 0.0764863
2 2 2.99835 1.04812 1.65498 2.99835 1.04812 1.65498
3 2 2.91012 1.00168 -1.60569 2.91012 1.00168 -1.60569
4 1 3.90441 2.67118 -0.0246986 3.90441 2.67118 -0.0246986
5 2 5.86035 2.69332 1.54002 5.86035 2.69332 1.54002
6 2 5.74899 2.64897 -1.71998 5.74899 2.64897 -1.71998
7 1 6.75495 1.02449 -0.100098 6.75495 1.02449 -0.100098
8 2 8.71588 1.04802 1.45848 8.71588 1.04802 1.45848
9 2 8.59415 1.00089 -1.80109 8.59415 1.00089 -1.80109
10 1 9.60483 2.67068 -0.230722 9.60483 2.67068 -0.230722
11 2 11.5634 2.69331 1.33097 11.5634 2.69331 1.33097
12 2 11.4466 2.648 -1.9288 11.4466 2.648 -1.9288
13 1 12.4553 1.02395 -0.310056 12.4553 1.02395 -0.310056
14 2 14.4051 1.04799 1.26267 14.4051 1.04799 1.26267
15 2 14.3065 0.999896 -1.99766 14.3065 0.999896 -1.99766
16 1 15.306 2.6702 -0.420586 15.306 2.6702 -0.420586
17 2 17.241 2.69339 1.17046 17.241 2.69339 1.17046
18 2 17.173 2.64703 -2.09065 17.173 2.64703 -2.09065
19 1 18.1577 1.02357 -0.456427 18.1577 1.02357 -0.456427
20 2 20.0741 1.04798 1.15707 20.0741 1.04798 1.15707
21 2 20.0439 0.999184 -2.1046 20.0439 0.999184 -2.1046
22 1 21.0097 2.66997 -0.507215 21.0097 2.66997 -0.507215
23 2 22.9051 2.69361 1.13113 22.9051 2.69361 1.13113
24 2 22.9173 2.64638 -2.13065 22.9173 2.64638 -2.13065
25 1 23.8619 1.02351 -0.472214 23.8619 1.02351 -0.472214
26 2 25.737 1.04811 1.18939 25.737 1.04811 1.18939
27 2 25.7893 0.998977 -2.07199 25.7893 0.998977 -2.07199
28 1 26.7139 2.67009 -0.450822 26.7139 2.67009 -0.450822
29 2 28.5709 2.694 1.23096 28.5709 2.694 1.23096
30 2 28.6585 2.64626 -2.02967 28.6585 2.64626 -2.02967
31 1 29.5649 1.02382 -0.349539 29.5649 1.02382 -0.349539
32 2 31.4095 1.04843 1.34573 31.4095 1.04843 1.34573
33 2 31.5209 0.999293 -1.91418 31.5209 0.999293 -1.91418
34 1 32.4156 2.67052 -0.276543 32.4156 2.67052 -0.276543
35 2 34.2539 2.69439 1.42536 34.2539 2.69439 1.42536
36 2 34.3773 2.64675 -1.83414 34.3773 2.64675 -1.83414
37 1 35.2654 1.02436 -0.144248 35.2654 1.02436 -0.144248
38 2 37.106 1.04878 1.55508 37.106 1.04878 1.55508
39 2 37.225 1 -1.70457 37.225 1 -1.70457
40 1 38.1158 2.67107 -0.0647336 38.1158 2.67107 -0.0647336
41 2 39.9653 2.6945 1.62473 39.9653 2.6945 1.62473
42 2 40.0672 2.64769 -1.63554 40.0672 2.64769 -1.63554
43 1 40.9663 1.02487 0.0479739 40.9663 1.02487 0.0479739
44 2 42.8321 1.04883 1.71936 42.8321 1.04883 1.71936
45 2 42.9025 1.00093 -1.54171 42.9025 1.00093 -1.54171
46 1 43.8179 2.67146 0.0850299 43.8179 2.67146 0.0850299
47 2 45.7032 2.69414 1.73427 45.7032 2.69414 1.73427
48 2 45.7352 2.64877 -1.52747 45.7352 2.64877 -1.52747
49 1 46.6698 1.02511 0.135627 46.6698 1.02511 0.135627
50 2 48.5773 1.04847 1.75909 48.5773 1.04847 1.75909
51 2 48.5652 1.00169 -1.50274 48.5652 1.00169 -1.50274
52 1 49.5219 2.6715 0.100843 49.5219 2.6715 0.100843
53 2 51.4494 2.69358 1.70035 51.4494 2.69358 1.70035
54 2 51.3966 2.64934 -1.56113 51.3966 2.64934 -1.56113
55 1 1.05332 4.3178 0.0316864 1.05332 4.3178 0.0316864
56 2 2.99747 4.33778 1.61094 2.99747 4.33778 1.61094
57 2 2.91049 4.29776 -1.64987 2.91049 4.29776 -1.64987
58 1 3.90415 5.96408 -0.0652217 3.90415 5.96408 -0.0652217
59 2 5.85961 5.98117 1.50008 5.85961 5.98117 1.50008
60 2 5.74916 5.94694 -1.76009 5.74916 5.94694 -1.76009
61 1 6.7546 4.3174 -0.14501 6.7546 4.3174 -0.14501
62 2 8.71518 4.33763 1.41399 8.71518 4.33763 1.41399
63 2 8.59414 4.29712 -1.8457 8.59414 4.29712 -1.8457
64 1 9.6045 5.96368 -0.271752 9.6045 5.96368 -0.271752
65 2 11.5628 5.98109 1.29031 11.5628 5.98109 1.29031
66 2 11.4466 5.94625 -1.9696 11.4466 5.94625 -1.9696
67 1 12.4549 4.31693 -0.355954 12.4549 4.31693 -0.355954
68 2 14.4045 4.33768 1.21717 14.4045 4.33768 1.21717
69 2 14.3066 4.29616 -2.04325 14.3066 4.29616 -2.04325
70 1 15.3057 5.9633 -0.462634 15.3057 5.9633 -0.462634
71 2 17.2406 5.98123 1.12876 17.2406 5.98123 1.12876
72 2 17.1731 5.94538 -2.13246 17.1731 5.94538 -2.13246
73 1 18.1575 4.31658 -0.50338 18.1575 4.31658 -0.50338
74 2 20.0736 4.33791 1.11059 20.0736 4.33791 1.11059
75 2 20.0443 4.29527 -2.15113 20.0443 4.29527 -2.15113
76 1 21.0097 5.9631 -0.550387 21.0097 5.9631 -0.550387
77 2 22.9049 5.9817 1.0883 22.9049 5.9817 1.0883
78 2 22.9177 5.94454 -2.17357 22.9177 5.94454 -2.17357
79 1 23.8621 4.31651 -0.520048 23.8621 4.31651 -0.520048
80 2 25.7367 4.3384 1.14212 25.7367 4.3384 1.14212
81 2 25.7901 4.29468 -2.11929 25.7901 4.29468 -2.11929
82 1 26.7141 5.96318 -0.495101 26.7141 5.96318 -0.495101
83 2 28.5707 5.9824 1.18718 28.5707 5.9824 1.18718
84 2 28.6593 5.94404 -2.07353 28.6593 5.94404 -2.07353
85 1 29.5653 4.31677 -0.397902 29.5653 4.31677 -0.397902
86 2 31.4092 4.33893 1.29809 31.4092 4.33893 1.29809
87 2 31.522 4.29471 -1.96182 31.522 4.29471 -1.96182
88 1 32.416 5.96352 -0.32134 32.416 5.96352 -0.32134
89 2 34.2536 5.98283 1.38136 34.2536 5.98283 1.38136
90 2 34.3784 5.94431 -1.8782 34.3784 5.94431 -1.8782
91 1 35.2659 4.31726 -0.192519 35.2659 4.31726 -0.192519
92 2 37.1056 4.33916 1.50776 37.1056 4.33916 1.50776
93 2 37.2263 4.29544 -1.75191 37.2263 4.29544 -1.75191
94 1 38.1162 5.96397 -0.109045 38.1162 5.96397 -0.109045
95 2 39.9647 5.98275 1.58153 39.9647 5.98275 1.58153
96 2 40.0684 5.94526 -1.67882 40.0684 5.94526 -1.67882
97 1 40.9667 4.31773 0.000539034 40.9667 4.31773 0.000539034
98 2 42.8313 4.33892 1.67312 42.8313 4.33892 1.67312
99 2 42.9037 4.29657 -1.58803 42.9037 4.29657 -1.58803
100 1 43.8181 5.96429 0.0421161 43.8181 5.96429 0.0421161
101 2 45.7022 5.98218 1.69263 45.7022 5.98218 1.69263
102 2 45.7364 5.9464 -1.56924 45.7364 5.9464 -1.56924
103 1 46.6699 4.31794 0.0896635 46.6699 4.31794 0.0896635
104 2 48.5763 4.33828 1.7143 48.5763 4.33828 1.7143
105 2 48.5661 4.29756 -1.54766 48.5661 4.29756 -1.54766
106 1 49.5218 5.96432 0.0595968 49.5218 5.96432 0.0595968
107 2 51.4485 5.98152 1.66014 51.4485 5.98152 1.66014
108 2 51.3973 5.94708 -1.60152 51.3973 5.94708 -1.60152
109 1 1.05317 7.61067 -0.00319898 1.05317 7.61067 -0.00319898
110 2 2.99667 7.62408 1.57684 2.99667 7.62408 1.57684
111 2 2.91091 7.59722 -1.68417 2.91091 7.59722 -1.68417
112 1 3.90398 9.25705 -0.0924285 3.90398 9.25705 -0.0924285
113 2 5.859 9.2661 1.47342 5.859 9.2661 1.47342
114 2 5.7494 9.24798 -1.78691 5.7494 9.24798 -1.78691
115 1 6.75434 7.6104 -0.179669 6.75434 7.6104 -0.179669
116 2 8.71458 7.62384 1.37978 8.71458 7.62384 1.37978
117 2 8.59421 7.59695 -1.88008 8.59421 7.59695 -1.88008
118 1 9.60429 9.25684 -0.298988 9.60429 9.25684 -0.298988
119 2 11.5624 9.26599 1.26337 11.5624 9.26599 1.26337
120 2 11.4466 9.24768 -1.99668 11.4466 9.24768 -1.99668
121 1 12.4547 7.61008 -0.391237 12.4547 7.61008 -0.391237
122 2 14.404 7.62384 1.18218 14.404 7.62384 1.18218
123 2 14.3066 7.59631 -2.07838 14.3066 7.59631 -2.07838
124 1 15.3056 9.25663 -0.490507 15.3056 9.25663 -0.490507
125 2 17.2404 9.26617 1.10101 17.2404 9.26617 1.10101
126 2 17.1731 9.24709 -2.16034 17.1731 9.24709 -2.16034
127 1 18.1574 7.60983 -0.539669 18.1574 7.60983 -0.539669
128 2 20.0734 7.62418 1.0745 20.0734 7.62418 1.0745
129 2 20.0444 7.5955 -2.18734 20.0444 7.5955 -2.18734
130 1 21.0097 9.2565 -0.579411 21.0097 9.2565 -0.579411
131 2 22.905 9.26674 1.05925 22.905 9.26674 1.05925
132 2 22.9177 9.24628 -2.20274 22.9177 9.24628 -2.20274
133 1 23.8622 7.60977 -0.557674 23.8622 7.60977 -0.557674
134 2 25.7367 7.6249 1.10468 25.7367 7.6249 1.10468
135 2 25.7904 7.59468 -2.15683 25.7904 7.59468 -2.15683
136 1 26.7143 9.25653 -0.525692 26.7143 9.25653 -0.525692
137 2 28.5709 9.26755 1.15668 28.5709 9.26755 1.15668
138 2 28.6595 9.24556 -2.10416 28.6595 9.24556 -2.10416
139 1 29.5656 7.60994 -0.436755 29.5656 7.60994 -0.436755
140 2 31.4092 7.62559 1.25973 31.4092 7.62559 1.25973
141 2 31.5227 7.59438 -2.00029 31.5227 7.59438 -2.00029
142 1 32.4163 9.25673 -0.35296 32.4163 9.25673 -0.35296
143 2 34.2535 9.26798 1.35029 34.2535 9.26798 1.35029
144 2 34.3792 9.24555 -1.90938 34.3792 9.24555 -1.90938
145 1 35.2663 7.61029 -0.231557 35.2663 7.61029 -0.231557
146 2 37.1052 7.62572 1.46963 37.1052 7.62572 1.46963
147 2 37.2274 7.59493 -1.79013 37.2274 7.59493 -1.79013
148 1 38.1165 9.25699 -0.14025 38.1165 9.25699 -0.14025
149 2 39.9641 9.2677 1.5513 39.9641 9.2677 1.5513
150 2 40.0695 9.24633 -1.70916 40.0695 9.24633 -1.70916
151 1 40.9669 7.61062 -0.0374501 40.9669 7.61062 -0.0374501
152 2 42.8305 7.62528 1.63632 42.8305 7.62528 1.63632
153 2 42.9049 7.59598 -1.62495 42.9049 7.59598 -1.62495
154 1 43.8182 9.25717 0.0124209 43.8182 9.25717 0.0124209
155 2 45.7013 9.26707 1.66404 45.7013 9.26707 1.66404
156 2 45.7373 9.24727 -1.59798 45.7373 9.24727 -1.59798
157 1 46.6699 7.61076 0.0534097 46.6699 7.61076 0.0534097
158 2 48.5753 7.62461 1.6792 48.5753 7.62461 1.6792
159 2 48.567 7.5969 -1.58294 48.567 7.5969 -1.58294
160 1 49.5218 9.25718 0.0315246 49.5218 9.25718 0.0315246
161 2 51.4477 9.26648 1.63296 51.4477 9.26648 1.63296
162 2 51.3979 9.24786 -1.62888 51.3979 9.24786 -1.62888
163 1 1.05309 10.9036 -0.0220662 1.05309 10.9036 -0.0220662
164 2 2.9961 10.908 1.55858 2.9961 10.908 1.55858
165 2 2.9113 10.8992 -1.70256 2.9113 10.8992 -1.70256
166 1 3.90394 12.5501 -0.101342 3.90394 12.5501 -0.101342
167 2 5.85871 12.5494 1.46483 5.85871 12.5494 1.46483
168 2 5.74961 12.5508 -1.79557 5.74961 12.5508 -1.79557
169 1 6.75421 10.9035 -0.198025 6.75421 10.9035 -0.198025
170 2 8.71421 10.9078 1.36174 8.71421 10.9078 1.36174
171 2 8.59432 10.8992 -1.89823 8.59432 10.8992 -1.89823
172 1 9.60424 12.5501 -0.307677 9.60424 12.5501 -0.307677
173 2 11.5623 12.5495 1.25471 11.5623 12.5495 1.25471
174 2 11.4466 12.5507 -2.00539 11.4466 12.5507 -2.00539
175 1 12.4545 10.9034 -0.409769 12.4545 10.9034 -0.409769
176 2 14.4039 10.9079 1.16372 14.4039 10.9079 1.16372
177 2 14.3065 10.8989 -2.09693 14.3065 10.8989 -2.09693
178 1 15.3055 12.5501 -0.499626 15.3055 12.5501 -0.499626
179 2 17.2405 12.5499 1.09169 17.2405 12.5499 1.09169
180 2 17.1729 12.5503 -2.1697 17.1729 12.5503 -2.1697
181 1 18.1573 10.9033 -0.558973 18.1573 10.9033 -0.558973
182 2 20.0736 10.9083 1.05506 20.0736 10.9083 1.05506
183 2 20.0442 10.8983 -2.20687 20.0442 10.8983 -2.20687
184 1 21.0097 12.5501 -0.589549 21.0097 12.5501 -0.589549
185 2 22.9053 12.5505 1.04875 22.9053 12.5505 1.04875
186 2 22.9174 12.5497 -2.2133 22.9174 12.5497 -2.2133
187 1 23.8622 10.9033 -0.578376 23.8622 10.9033 -0.578376
188 2 25.737 10.909 1.08377 25.737 10.909 1.08377
189 2 25.7902 10.8975 -2.17786 25.7902 10.8975 -2.17786
190 1 26.7144 12.5501 -0.537335 26.7144 12.5501 -0.537335
191 2 28.5713 12.5511 1.14473 28.5713 12.5511 1.14473
192 2 28.6593 12.549 -2.11618 28.6593 12.549 -2.11618
193 1 29.5658 10.9033 -0.459019 29.5658 10.9033 -0.459019
194 2 31.4093 10.9097 1.23755 31.4093 10.9097 1.23755
195 2 31.523 10.897 -2.02258 31.523 10.897 -2.02258
196 1 32.4164 12.5501 -0.365776 32.4164 12.5501 -0.365776
197 2 34.2535 12.5513 1.33764 34.2535 12.5513 1.33764
198 2 34.3794 12.5489 -1.92209 34.3794 12.5489 -1.92209
199 1 35.2665 10.9035 -0.254282 35.2665 10.9035 -0.254282
200 2 37.1049 10.9097 1.44754 37.1049 10.9097 1.44754
201 2 37.2282 10.8973 -1.81231 37.2282 10.8973 -1.81231
202 1 38.1166 12.5501 -0.15274 38.1166 12.5501 -0.15274
203 2 39.9637 12.5508 1.53945 39.9637 12.5508 1.53945
204 2 40.0701 12.5494 -1.72105 40.0701 12.5494 -1.72105
205 1 40.9671 10.9036 -0.0591201 40.9671 10.9036 -0.0591201
206 2 42.8299 10.9091 1.61557 42.8299 10.9091 1.61557
207 2 42.9058 10.8982 -1.6458 42.9058 10.8982 -1.6458
208 1 43.8183 12.5501 0.00137557 43.8183 12.5501 0.00137557
209 2 45.7008 12.5501 1.65369 45.7008 12.5501 1.65369
210 2 45.7379 12.5501 -1.60838 45.7379 12.5501 -1.60838
211 1 46.6699 10.9036 0.0333441 46.6699 10.9036 0.0333441
212 2 48.5746 10.9084 1.65998 48.5746 10.9084 1.65998
213 2 48.5677 10.8988 -1.60228 48.5677 10.8988 -1.60228
214 1 49.5218 12.5501 0.0218023 49.5218 12.5501 0.0218023
215 2 51.4472 12.5496 1.62377 51.4472 12.5496 1.62377
216 2 51.3984 12.5506 -1.63814 51.3984 12.5506 -1.63814
217 1 1.05311 14.1966 -0.0211494 1.05311 14.1966 -0.0211494
218 2 2.99592 14.1909 1.55973 2.99592 14.1909 1.55973
219 2 2.91152 14.2022 -1.70142 2.91152 14.2022 -1.70142
220 1 3.90404 15.8431 -0.0899025 3.90404 15.8431 -0.0899025
221 2 5.85893 15.8327 1.47611 5.85893 15.8327 1.47611
222 2 5.74961 15.8536 -1.78422 5.74961 15.8536 -1.78422
223 1 6.75424 14.1967 -0.196647 6.75424 14.1967 -0.196647
224 2 8.71428 14.1911 1.36308 8.71428 14.1911 1.36308
225 2 8.59432 14.2023 -1.89689 8.59432 14.2023 -1.89689
226 1 9.60436 15.8434 -0.296342 9.60436 15.8434 -0.296342
227 2 11.5628 15.8334 1.26559 11.5628 15.8334 1.26559
228 2 11.4463 15.8534 -1.99443 11.4463 15.8534 -1.99443
229 1 12.4546 14.1968 -0.408603 12.4546 14.1968 -0.408603
230 2 14.4042 14.1916 1.16458 14.4042 14.1916 1.16458
231 2 14.3063 14.202 -2.09605 14.3063 14.202 -2.09605
232 1 15.3056 15.8436 -0.489061 15.3056 15.8436 -0.489061
233 2 17.2411 15.8341 1.10168 17.2411 15.8341 1.10168
234 2 17.1724 15.853 -2.15964 17.1724 15.853 -2.15964
235 1 18.1573 14.1969 -0.558585 18.1573 14.1969 -0.558585
236 2 20.0739 14.1921 1.055 20.0739 14.1921 1.055
237 2 20.0438 14.2016 -2.20692 20.0438 14.2016 -2.20692
238 1 21.0097 15.8437 -0.579952 21.0097 15.8437 -0.579952
239 2 22.9058 15.8346 1.05779 22.9058 15.8346 1.05779
240 2 22.9169 15.8527 -2.20422 22.9169 15.8527 -2.20422
241 1 23.8622 14.1969 -0.579137 23.8622 14.1969 -0.579137
242 2 25.7375 14.1926 1.08251 25.7375 14.1926 1.08251
243 2 25.7898 14.2011 -2.17914 25.7898 14.2011 -2.17914
244 1 26.7143 15.8436 -0.528739 26.7143 15.8436 -0.528739
245 2 28.5717 15.8348 1.15281 28.5717 15.8348 1.15281
246 2 28.6588 15.8523 -2.10809 28.6588 15.8523 -2.10809
247 1 29.5658 14.1968 -0.46108 29.5658 14.1968 -0.46108
248 2 31.4096 14.193 1.23522 31.4096 14.193 1.23522
249 2 31.5228 14.2007 -2.02495 31.5228 14.2007 -2.02495
250 1 32.4164 15.8435 -0.357968 32.4164 15.8435 -0.357968
251 2 34.2536 15.8347 1.34529 34.2536 15.8347 1.34529
252 2 34.3793 15.8522 -1.91442 34.3793 15.8522 -1.91442
253 1 35.2665 14.1967 -0.256792 35.2665 14.1967 -0.256792
254 2 37.1047 14.1927 1.44529 37.1047 14.1927 1.44529
255 2 37.2284 14.2008 -1.81456 37.2284 14.2008 -1.81456
256 1 38.1166 15.8433 -0.144501 38.1166 15.8433 -0.144501
257 2 39.9634 15.8339 1.54797 39.9634 15.8339 1.54797
258 2 40.0703 15.8526 -1.71246 40.0703 15.8526 -1.71246
259 1 40.9671 14.1966 -0.0605781 40.9671 14.1966 -0.0605781
260 2 42.8294 14.1918 1.61462 42.8294 14.1918 1.61462
261 2 42.9062 14.2014 -1.64672 42.9062 14.2014 -1.64672
262 1 43.8182 15.8431 0.0110705 43.8182 15.8431 0.0110705
263 2 45.7005 15.833 1.66365 45.7005 15.833 1.66365
264 2 45.7382 15.8531 -1.59834 45.7382 15.8531 -1.59834
265 1 46.67 14.1966 0.0333195 46.67 14.1966 0.0333195
266 2 48.5743 14.1912 1.66035 48.5743 14.1912 1.66035
267 2 48.5681 14.2019 -1.60191 48.5681 14.2019 -1.60191
268 1 49.5218 15.843 0.0326534 49.5218 15.843 0.0326534
269 2 51.4472 15.8326 1.63471 51.4472 15.8326 1.63471
270 2 51.3985 15.8535 -1.62713 51.3985 15.8535 -1.62713
271 1 1.05324 17.4895 1.30001e-05 1.05324 17.4895 1.30001e-05
272 2 2.99627 17.4746 1.58061 2.99627 17.4746 1.58061
273 2 2.91148 17.5045 -1.6804 2.91148 17.5045 -1.6804
274 1 3.90429 19.1361 -0.0596434 3.90429 19.1361 -0.0596434
275 2 5.85976 19.1177 1.50562 5.85976 19.1177 1.50562
276 2 5.74929 19.1546 -1.75452 5.74929 19.1546 -1.75452
277 1 6.75445 17.4898 -0.175496 6.75445 17.4898 -0.175496
278 2 8.71496 17.4753 1.38361 8.71496 17.4753 1.38361
279 2 8.59404 17.5043 -1.87621 8.59404 17.5043 -1.87621
280 1 9.60464 19.1365 -0.267006 9.60464 19.1365 -0.267006
281 2 11.5638 19.1189 1.29391 11.5638 19.1189 1.29391
282 2 11.4458 19.1541 -1.96592 11.4458 19.1541 -1.96592
283 1 12.4548 17.4901 -0.38833 12.4548 17.4901 -0.38833
284 2 14.4049 17.4764 1.18408 14.4049 17.4764 1.18408
285 2 14.3058 17.5039 -2.07643 14.3058 17.5039 -2.07643
286 1 15.3058 19.1369 -0.461214 15.3058 19.1369 -0.461214
287 2 17.2419 19.12 1.12865 17.2419 19.12 1.12865
288 2 17.1718 19.1537 -2.13255 17.1718 19.1537 -2.13255
289 1 18.1574 17.4903 -0.539449 18.1574 17.4903 -0.539449
290 2 20.0745 17.4771 1.07347 20.0745 17.4771 1.07347
291 2 20.0433 17.5036 -2.18836 20.0433 17.5036 -2.18836
292 1 21.0097 19.1371 -0.553136 21.0097 19.1371 -0.553136
293 2 22.9063 19.1205 1.08398 22.9063 19.1205 1.08398
294 2 22.9164 19.1536 -2.17794 22.9164 19.1536 -2.17794
295 1 23.8622 17.4904 -0.560809 23.8622 17.4904 -0.560809
296 2 25.7379 17.4773 1.10026 25.7379 17.4773 1.10026
297 2 25.7893 17.5034 -2.16133 25.7893 17.5034 -2.16133
298 1 26.7142 19.137 -0.5023 26.7142 19.137 -0.5023
299 2 28.572 19.1203 1.17873 28.572 19.1203 1.17873
300 2 28.6583 19.1536 -2.08209 28.6583 19.1536 -2.08209
301 1 29.5657 17.4902 -0.443357 29.5657 17.4902 -0.443357
302 2 31.4099 17.4772 1.25249 31.4099 17.4772 1.25249
303 2 31.5223 17.5032 -2.00761 31.5223 17.5032 -2.00761
304 1 32.4162 19.1367 -0.331581 32.4162 19.1367 -0.331581
305 2 34.2537 19.1197 1.37136 34.2537 19.1197 1.37136
306 2 34.3788 19.1536 -1.88824 34.3788 19.1536 -1.88824
307 1 35.2664 17.49 -0.239111 35.2664 17.49 -0.239111
308 2 37.1046 17.4765 1.46292 37.1046 17.4765 1.46292
309 2 37.2283 17.5033 -1.79682 37.2283 17.5033 -1.79682
310 1 38.1164 19.1363 -0.117348 38.1164 19.1363 -0.117348
311 2 39.9632 19.1186 1.57512 39.9632 19.1186 1.57512
312 2 40.0702 19.1539 -1.68515 40.0702 19.1539 -1.68515
313 1 40.967 17.4896 -0.0417098 40.967 17.4896 -0.0417098
314 2 42.8292 17.4754 1.63366 42.8292 17.4754 1.63366
315 2 42.9064 17.5038 -1.62755 42.9064 17.5038 -1.62755
316 1 43.8181 19.1359 0.0398228 43.8181 19.1359 0.0398228
317 2 45.7005 19.1175 1.69238 45.7005 19.1175 1.69238
318 2 45.7382 19.1544 -1.56944 45.7382 19.1544 -1.56944
319 1 46.67 17.4894 0.0536646 46.67 17.4894 0.0536646
320 2 48.5743 17.4746 1.68068 48.5743 17.4746 1.68068
321 2 48.5681 17.5043 -1.58145 48.5681 17.5043 -1.58145
322 1 49.5219 19.1358 0.0626631 49.5219 19.1358 0.0626631
323 2 51.4475 19.117 1.66438 51.4475 19.117 1.66438
324 2 51.3984 19.1547 -1.59728 51.3984 19.1547 -1.59728
325 1 1.05346 20.7823 0.0381342 1.05346 20.7823 0.0381342
326 2 2.99713 20.7607 1.61795 2.99713 20.7607 1.61795
327 2 2.91115 20.8041 -1.64284 2.91115 20.8041 -1.64284
328 1 3.90464 22.4289 -0.0156502 3.90464 22.4289 -0.0156502
329 2 5.8611 22.4057 1.5484 5.8611 22.4057 1.5484
330 2 5.74868 22.4523 -1.71153 5.74868 22.4523 -1.71153
331 1 6.75479 20.7828 -0.138077 6.75479 20.7828 -0.138077
332 2 8.71622 20.7619 1.41984 8.71622 20.7619 1.41984
333 2 8.59342 20.8037 -1.83976 8.59342 20.8037 -1.83976
334 1 9.60501 22.4295 -0.224705 9.60501 22.4295 -0.224705
335 2 11.5653 22.4073 1.33485 11.5653 22.4073 1.33485
336 2 11.445 22.4518 -1.9248 11.445 22.4518 -1.9248
337 1 12.455 20.7833 -0.352667 12.455 20.7833 -0.352667
338 2 14.4061 20.7634 1.21859 14.4061 20.7634 1.21859
339 2 14.3051 20.8032 -2.04175 14.3051 20.8032 -2.04175
340 1 15.306 22.43 -0.420912 15.306 22.43 -0.420912
341 2 17.2429 22.4085 1.16792 17.2429 22.4085 1.16792
342 2 17.1711 22.4515 -2.09316 17.1711 22.4515 -2.09316
343 1 18.1575 20.7836 -0.505325 18.1575 20.7836 -0.505325
344 2 20.0752 20.7642 1.10681 20.0752 20.7642 1.10681
345 2 20.0427 20.803 -2.15492 20.0427 20.803 -2.15492
346 1 21.0098 22.4303 -0.513878 21.0098 22.4303 -0.513878
347 2 22.9068 22.4089 1.12263 22.9068 22.4089 1.12263
348 2 22.9158 22.4516 -2.13922 22.9158 22.4516 -2.13922
349 1 23.8621 20.7837 -0.52722 23.8621 20.7837 -0.52722
350 2 25.7382 20.7642 1.13333 25.7382 20.7642 1.13333
351 2 25.7887 20.8031 -2.12817 25.7887 20.8031 -2.12817
352 1 26.714 22.4302 -0.46298 26.714 22.4302 -0.46298
353 2 28.5721 22.4085 1.21763 28.5721 22.4085 1.21763
354 2 28.6577 22.4518 -2.04311 28.6577 22.4518 -2.04311
355 1 29.5655 20.7835 -0.40963 29.5655 20.7835 -0.40963
356 2 31.41 20.7637 1.2858 31.41 20.7637 1.2858
357 2 31.5217 20.8032 -1.97421 31.5217 20.8032 -1.97421
358 1 32.4159 22.4298 -0.291604 32.4159 22.4298 -0.291604
359 2 34.2536 22.4076 1.41102 34.2536 22.4076 1.41102
360 2 34.3782 22.4519 -1.84848 34.3782 22.4519 -1.84848
361 1 35.2661 20.783 -0.204796 35.2661 20.783 -0.204796
362 2 37.1045 20.7627 1.49704 37.1045 20.7627 1.49704
363 2 37.2279 20.8033 -1.76257 37.2279 20.8033 -1.76257
364 1 38.1161 22.4292 -0.0762408 38.1161 22.4292 -0.0762408
365 2 39.963 22.4063 1.61606 39.963 22.4063 1.61606
366 2 40.0698 22.452 -1.64407 40.0698 22.452 -1.64407
367 1 40.9668 20.7825 -0.00601138 40.9668 20.7825 -0.00601138
368 2 42.829 20.7614 1.6693 42.829 20.7614 1.6693
369 2 42.9062 20.8036 -1.59174 42.9062 20.8036 -1.59174
370 1 43.818 22.4288 0.0825739 43.818 22.4288 0.0825739
371 2 45.7005 22.4051 1.73491 45.7005 22.4051 1.73491
372 2 45.738 22.4523 -1.52674 45.738 22.4523 -1.52674
373 1 46.6699 20.7822 0.0910041 46.6699 20.7822 0.0910041
374 2 48.5745 20.7605 1.71773 48.5745 20.7605 1.71773
375 2 48.568 20.804 -1.5442 48.568 20.804 -1.5442
376 1 49.522 22.4286 0.106772 49.522 22.4286 0.106772
377 2 51.4482 22.4047 1.70783 51.4482 22.4047 1.70783
378 2 51.3981 22.4526 -1.55364 51.3981 22.4526 -1.55364
379 1 1.05372 24.0751 0.0865739 1.05372 24.0751 0.0865739
380 2 2.99833 24.0505 1.66533 2.99833 24.0505 1.66533
381 2 2.91061 24.0998 -1.59531 2.91061 24.0998 -1.59531
382 1 3.90502 25.7218 0.034307 3.90502 25.7218 0.034307
383 2 5.86261 25.6977 1.59703 5.86261 25.6977 1.59703
384 2 5.74797 25.746 -1.66277 5.74797 25.746 -1.66277
385 1 6.75521 24.0756 -0.0908137 6.75521 24.0756 -0.0908137
386 2 8.71781 24.0519 1.46566 8.71781 24.0519 1.46566
387 2 8.59263 24.0995 -1.79377 8.59263 24.0995 -1.79377
388 1 9.60543 25.7224 -0.176532 9.60543 25.7224 -0.176532
389 2 11.5668 25.6991 1.38167 11.5668 25.6991 1.38167
390 2 11.4442 25.7458 -1.87787 11.4442 25.7458 -1.87787
391 1 12.4554 24.0762 -0.307531 12.4554 24.0762 -0.307531
392 2 14.4074 24.0534 1.26247 14.4074 24.0534 1.26247
393 2 14.3043 24.0992 -1.99775 14.3043 24.0992 -1.99775
394 1 15.3063 25.7229 -0.374495 15.3063 25.7229 -0.374495
395 2 17.244 25.7 1.21336 17.244 25.7 1.21336
396 2 17.1705 25.7459 -2.04767 17.1705 25.7459 -2.04767
397 1 18.1577 24.0767 -0.461741 18.1577 24.0767 -0.461741
398 2 20.076 24.0541 1.14959 20.076 24.0541 1.14959
399 2 20.0421 24.0992 -2.11208 20.0421 24.0992 -2.11208
400 1 21.0098 25.7232 -0.46827 21.0098 25.7232 -0.46827
401 2 22.9073 25.7004 1.16764 22.9073 25.7004 1.16764
402 2 22.9152 25.746 -2.09422 22.9152 25.746 -2.09422
403 1 23.862 24.0768 -0.484002 23.862 24.0768 -0.484002
404 2 25.7384 24.0541 1.17609 25.7384 24.0541 1.17609
405 2 25.7881 24.0994 -2.08538 25.7881 24.0994 -2.08538
406 1 26.7138 25.7231 -0.417176 26.7138 25.7231 -0.417176
407 2 28.5722 25.6999 1.26311 28.5722 25.6999 1.26311
408 2 28.6571 25.7462 -1.99764 28.6571 25.7462 -1.99764
409 1 29.5652 24.0765 -0.365835 29.5652 24.0765 -0.365835
410 2 31.4099 24.0533 1.32928 31.4099 24.0533 1.32928
411 2 31.5211 24.0995 -1.93067 31.5211 24.0995 -1.93067
412 1 32.4155 25.7227 -0.244825 32.4155 25.7227 -0.244825
413 2 34.2535 25.699 1.45752 34.2535 25.699 1.45752
414 2 34.3776 25.7463 -1.80196 34.3776 25.7463 -1.80196
415 1 35.2658 24.076 -0.15993 35.2658 24.076 -0.15993
416 2 37.1043 24.0522 1.54163 37.1043 24.0522 1.54163
417 2 37.2273 24.0996 -1.71789 37.2273 24.0996 -1.71789
418 1 38.1157 25.7221 -0.0282777 38.1157 25.7221 -0.0282777
419 2 39.963 25.698 1.6637 39.963 25.698 1.6637
420 2 40.0692 25.7461 -1.59639 40.0692 25.7461 -1.59639
421 1 40.9665 24.0754 0.0402326 40.9665 24.0754 0.0402326
422 2 42.829 24.051 1.71531 42.829 24.051 1.71531
423 2 42.9058 24.0997 -1.54561 42.9058 24.0997 -1.54561
424 1 43.8178 25.7216 0.131811 43.8178 25.7216 0.131811
425 2 45.7008 25.6971 1.78377 45.7008 25.6971 1.78377
426 2 45.7375 25.7461 -1.47782 45.7375 25.7461 -1.47782
427 1 46.6699 24.075 0.138802 46.6699 24.075 0.138802
428 2 48.575 24.0502 1.76506 48.575 24.0502 1.76506
429 2 48.5677 24.0999 -1.49674 48.5677 24.0999 -1.49674
430 1 49.5221 25.7215 0.15709 49.5221 25.7215 0.15709
431 2 51.4491 25.6968 1.75735 51.4491 25.6968 1.75735
432 2 51.3976 25.7461 -1.50403 51.3976 25.7461 -1.50403
433 1 1.05399 27.368 0.136523 1.05399 27.368 0.136523
434 2 2.99957 27.345 1.71422 2.99957 27.345 1.71422
435 2 2.91001 27.3912 -1.54637 2.91001 27.3912 -1.54637
436 1 3.90536 29.0148 0.0811686 3.90536 29.0148 0.0811686
437 2 5.86388 28.9942 1.64287 5.86388 28.9942 1.64287
438 2 5.74743 29.0354 -1.61694 5.74743 29.0354 -1.61694
439 1 6.75564 27.3685 -0.041934 6.75564 27.3685 -0.041934
440 2 8.7193 27.3459 1.51328 8.7193 27.3459 1.51328
441 2 8.59195 27.3912 -1.74609 8.59195 27.3912 -1.74609
442 1 9.60583 29.0153 -0.130623 9.60583 29.0153 -0.130623
443 2 11.568 28.9947 1.42667 11.568 28.9947 1.42667
444 2 11.4437 29.0359 -1.8329 11.4437 29.0359 -1.8329
445 1 12.4557 27.3691 -0.26018 12.4557 27.3691 -0.26018
446 2 14.4086 27.3468 1.3088 14.4086 27.3468 1.3088
447 2 14.3037 27.3915 -1.9514 14.3037 27.3915 -1.9514
448 1 15.3065 29.0158 -0.32923 15.3065 29.0158 -0.32923
449 2 17.2448 28.9951 1.25793 17.2448 28.9951 1.25793
450 2 17.17 29.0365 -2.00317 17.17 29.0365 -2.00317
451 1 18.1578 27.3695 -0.415323 18.1578 27.3695 -0.415323
452 2 20.0767 27.3473 1.19529 20.0767 27.3473 1.19529
453 2 20.0415 27.3918 -2.06642 20.0415 27.3918 -2.06642
454 1 21.0098 29.016 -0.423222 21.0098 29.016 -0.423222
455 2 22.9077 28.9952 1.21215 22.9077 28.9952 1.21215
456 2 22.9146 29.0369 -2.0498 22.9146 29.0369 -2.0498
457 1 23.8619 27.3696 -0.437779 23.8619 27.3696 -0.437779
458 2 25.7387 27.3473 1.22188 25.7387 27.3473 1.22188
459 2 25.7875 27.392 -2.03965 25.7875 27.392 -2.03965
460 1 26.7136 29.016 -0.371894 26.7136 29.016 -0.371894
461 2 28.5722 28.9949 1.30808 28.5722 28.9949 1.30808
462 2 28.6565 29.037 -1.95277 28.6565 29.037 -1.95277
463 1 29.5649 27.3694 -0.318983 29.5649 27.3694 -0.318983
464 2 31.4098 27.3466 1.37587 31.4098 27.3466 1.37587
465 2 31.5205 27.3921 -1.88412 31.5205 27.3921 -1.88412
466 1 32.4151 29.0156 -0.198714 32.4151 29.0156 -0.198714
467 2 34.2534 28.9942 1.5033 34.2534 28.9942 1.5033
468 2 34.3768 29.0369 -1.75627 34.3768 29.0369 -1.75627
469 1 35.2653 27.3688 -0.112009 35.2653 27.3688 -0.112009
470 2 37.1043 27.3457 1.58919 37.1043 27.3457 1.58919
471 2 37.2265 27.3919 -1.67037 37.2265 27.3919 -1.67037
472 1 38.1153 29.015 0.018493 38.1153 29.015 0.018493
473 2 39.9632 28.9938 1.70993 39.9632 28.9938 1.70993
474 2 40.0683 29.0362 -1.55025 40.0683 29.0362 -1.55025
475 1 40.9662 27.3683 0.0890357 40.9662 27.3683 0.0890357
476 2 42.8292 27.345 1.76366 42.8292 27.345 1.76366
477 2 42.9051 27.3915 -1.49727 42.9051 27.3915 -1.49727
478 1 43.8176 29.0146 0.178853 43.8176 29.0146 0.178853
479 2 45.7013 28.9936 1.83021 45.7013 28.9936 1.83021
480 2 45.7368 29.0356 -1.43145 45.7368 29.0356 -1.43145
481 1 46.6698 27.3679 0.188475 46.6698 27.3679 0.188475
482 2 48.5756 27.3446 1.81413 48.5756 27.3446 1.81413
483 2 48.5672 27.3913 -1.44766 48.5672 27.3913 -1.44766
484 1 49.5222 29.0145 0.204356 49.5222 29.0145 0.204356
485 2 51.4501 28.9937 1.80383 51.4501 28.9937 1.80383
486 2 51.3971 29.0353 -1.4576 51.3971 29.0353 -1.4576
487 1 1.05419 30.6612 0.178699 1.05419 30.6612 0.178699
488 2 3.00054 30.6439 1.75564 3.00054 30.6439 1.75564
489 2 2.90955 30.6786 -1.50503 2.90955 30.6786 -1.50503
490 1 3.90559 32.308 0.116289 3.90559 32.308 0.116289
491 2 5.86457 32.2947 1.67757 5.86457 32.2947 1.67757
492 2 5.74725 32.3214 -1.58234 5.74725 32.3214 -1.58234
493 1 6.75598 30.6615 -0.000146412 6.75598 30.6615 -0.000146412
494 2 8.72028 30.644 1.5544 8.72028 30.644 1.5544
495 2 8.59165 30.6792 -1.70505 8.59165 30.6792 -1.70505
496 1 9.60613 32.3083 -0.0950551 9.60613 32.3083 -0.0950551
497 2 11.5685 32.2942 1.46204 11.5685 32.2942 1.46204
498 2 11.4438 32.3225 -1.79765 11.4438 32.3225 -1.79765
499 1 12.4561 30.662 -0.218466 12.4561 30.662 -0.218466
500 2 14.4094 30.644 1.35001 14.4094 30.644 1.35001
501 2 14.3035 30.6801 -1.91028 14.3035 30.6801 -1.91028
502 1 15.3068 32.3087 -0.292705 15.3068 32.3087 -0.292705
503 2 17.2453 32.2938 1.29422 17.2453 32.2938 1.29422
504 2 17.1699 32.3236 -1.96702 17.1699 32.3236 -1.96702
505 1 18.158 30.6624 -0.373378 18.158 30.6624 -0.373378
506 2 20.0773 30.644 1.23675 20.0773 30.644 1.23675
507 2 20.0411 30.6808 -2.02508 20.0411 30.6808 -2.02508
508 1 21.0098 32.3089 -0.385998 21.0098 32.3089 -0.385998
509 2 22.9081 32.2935 1.24904 22.9081 32.2935 1.24904
510 2 22.9142 32.3242 -2.01307 22.9142 32.3242 -2.01307
511 1 23.8618 30.6625 -0.395635 23.8618 30.6625 -0.395635
512 2 25.7389 30.6438 1.26364 25.7389 30.6438 1.26364
513 2 25.787 30.6811 -1.99803 25.787 30.6811 -1.99803
514 1 26.7134 32.3088 -0.334203 26.7134 32.3088 -0.334203
515 2 28.5723 32.2932 1.34548 28.5723 32.2932 1.34548
516 2 28.6559 32.3244 -1.91553 28.6559 32.3244 -1.91553
517 1 29.5645 30.6622 -0.276313 29.5645 30.6622 -0.276313
518 2 31.4098 30.6434 1.41824 31.4098 30.6434 1.41824
519 2 31.5198 30.681 -1.84189 31.5198 30.681 -1.84189
520 1 32.4148 32.3085 -0.160568 32.4148 32.3085 -0.160568
521 2 34.2536 32.293 1.54097 34.2536 32.293 1.54097
522 2 34.376 32.324 -1.71877 34.376 32.324 -1.71877
523 1 35.2649 30.6618 -0.068801 35.2649 30.6618 -0.068801
524 2 37.1045 30.6431 1.63185 37.1045 30.6431 1.63185
525 2 37.2256 30.6804 -1.62785 37.2256 30.6804 -1.62785
526 1 38.115 32.3081 0.0563076 38.115 32.3081 0.0563076
527 2 39.9637 32.2934 1.74691 39.9637 32.2934 1.74691
528 2 40.0673 32.3228 -1.51345 40.0673 32.3228 -1.51345
529 1 40.9659 30.6613 0.132047 40.9659 30.6613 0.132047
530 2 42.8297 30.6433 1.80593 42.8297 30.6433 1.80593
531 2 42.9042 30.6794 -1.45514 42.9042 30.6794 -1.45514
532 1 43.8174 32.3078 0.215425 43.8174 32.3078 0.215425
533 2 45.702 32.2942 1.86589 45.702 32.2942 1.86589
534 2 45.7359 32.3215 -1.39591 45.7359 32.3215 -1.39591
535 1 46.6698 30.6611 0.231004 46.6698 30.6611 0.231004
536 2 48.5763 30.6436 1.85593 48.5763 30.6436 1.85593
537 2 48.5665 30.6786 -1.40596 48.5665 30.6786 -1.40596
538 1 49.5223 32.3078 0.239828 49.5223 32.3078 0.239828