ITEM: TIMESTEP
53000
ITEM: NUMBER OF ATOMS
810
ITEM: BOX BOUNDS pp pp pp
8.4077530765887065e-01 5.2176829692339936e+01
8.0956989532751034e-01 5.0206645104672170e+01
-1.0000000000000000e+01 1.0000000000000000e+01
ITEM: ATOMS id type x y z xu yu zu
1 1 1.04434 1.02388 -0.205694 1.04434 1.02388 -0.205694
2 2 2.93312 1.01763 1.44005 2.93312 1.01763 1.44005
3 2 2.95819 1.03011 -1.82202 2.95819 1.03011 -1.82202
4 1 3.89631 2.67041 -0.177331 3.89631 2.67041 -0.177331
5 2 5.78352 2.66488 1.47019 5.78352 2.66488 1.47019
6 2 5.81169 2.67594 -1.79185 5.81169 2.67594 -1.79185
7 1 6.74826 1.02382 -0.158179 6.74826 1.02382 -0.158179
8 2 8.63571 1.01709 1.48903 8.63571 1.01709 1.48903
9 2 8.6634 1.03055 -1.77301 8.6634 1.03055 -1.77301
10 1 9.6002 2.67037 -0.127099 9.6002 2.67037 -0.127099
11 2 11.4895 2.66425 1.51792 11.4895 2.66425 1.51792
12 2 11.5135 2.67649 -1.74416 11.5135 2.67649 -1.74416
13 1 12.4522 1.02378 -0.112311 12.4522 1.02378 -0.112311
14 2 14.3452 1.01635 1.52848 14.3452 1.01635 1.52848
15 2 14.3619 1.03122 -1.73363 14.3619 1.03122 -1.73363
16 1 15.3042 2.67034 -0.0901771 15.3042 2.67034 -0.0901771
17 2 17.2015 2.6632 1.54559 17.2015 2.6632 1.54559
18 2 17.2096 2.6775 -1.71655 17.2096 2.6775 -1.71655
19 1 18.1563 1.02378 -0.0903523 18.1563 1.02378 -0.0903523
20 2 20.0585 1.01576 1.53958 20.0585 1.01576 1.53958
21 2 20.0567 1.03183 -1.72257 20.0567 1.03183 -1.72257
22 1 21.0083 2.67035 -0.0839111 21.0083 2.67035 -0.0839111
23 2 22.9152 2.66231 1.54063 22.9152 2.66231 1.54063
24 2 22.9042 2.67843 -1.72149 22.9042 2.67843 -1.72149
25 1 23.8604 1.02382 -0.101834 23.8604 1.02382 -0.101834
26 2 25.7712 1.01562 1.51804 25.7712 1.01562 1.51804
27 2 25.7522 1.03204 -1.74405 25.7522 1.03204 -1.74405
28 1 26.7124 2.6704 -0.110249 26.7124 2.6704 -0.110249
29 2 28.6262 2.662 1.50614 28.6262 2.662 1.50614
30 2 28.6012 2.67882 -1.75591 28.6012 2.67882 -1.75591
31 1 29.5643 1.02387 -0.140714 29.5643 1.02387 -0.140714
32 2 31.4794 1.01604 1.47416 31.4794 1.01604 1.47416
33 2 31.4519 1.03173 -1.78787 31.4519 1.03173 -1.78787
34 1 32.4163 2.67046 -0.156964 32.4163 2.67046 -0.156964
35 2 34.3315 2.66245 1.45777 34.3315 2.66245 1.45777
36 2 34.3037 2.67848 -1.80426 34.3037 2.67848 -1.80426
37 1 35.2682 1.02393 -0.189507 35.2682 1.02393 -0.189507
38 2 37.1814 1.01686 1.42772 37.1814 1.01686 1.42772
39 2 37.1577 1.031 -1.83435 37.1577 1.031 -1.83435
40 1 38.1202 2.6705 -0.203058 38.1202 2.6705 -0.203058
41 2 40.0305 2.66342 1.4176 40.0305 2.66342 1.4176
42 2 40.0126 2.67758 -1.8445 40.0126 2.67758 -1.8445
43 1 40.9722 1.02395 -0.225833 40.9722 1.02395 -0.225833
44 2 42.8779 1.01759 1.40033 42.8779 1.01759 1.40033
45 2 42.8693 1.03029 -1.86181 42.8693 1.03029 -1.86181
46 1 43.8243 2.6705 -0.22677 43.8243 2.6705 -0.22677
47 2 45.7253 2.66437 1.40479 45.7253 2.66437 1.40479
48 2 45.726 2.67662 -1.85738 45.726 2.67662 -1.85738
49 1 46.6763 1.02393 -0.232275 46.6763 1.02393 -0.232275
50 2 48.5723 1.01784 1.40515 48.5723 1.01784 1.40515
51 2 48.5831 1.02999 -1.857 48.5831 1.02999 -1.857
52 1 49.5284 2.67047 -0.216622 49.5284 2.67047 -0.216622
53 2 51.4203 2.66489 1.42548 51.4203 2.66489 1.42548
54 2 51.4391 2.67602 -1.83663 51.4391 2.67602 -1.83663
55 1 1.04434 4.317 -0.194426 1.04434 4.317 -0.194426
56 2 2.93334 4.31246 1.45107 2.93334 4.31246 1.45107
57 2 2.95797 4.32152 -1.81101 2.95797 4.32152 -1.81101
58 1 3.89631 5.96355 -0.168156 3.89631 5.96355 -0.168156
59 2 5.78376 5.96039 1.47911 5.78376 5.96039 1.47911
60 2 5.81146 5.96669 -1.78295 5.81146 5.96669 -1.78295
61 1 6.74825 4.31696 -0.14699 6.74825 4.31696 -0.14699
62 2 8.6356 4.3124 1.50036 8.6356 4.3124 1.50036
63 2 8.6635 4.3215 -1.76169 8.6635 4.3215 -1.76169
64 1 9.6002 5.96351 -0.117902 9.6002 5.96351 -0.117902
65 2 11.4893 5.96001 1.52746 11.4893 5.96001 1.52746
66 2 11.5138 5.96702 -1.73462 11.5138 5.96702 -1.73462
67 1 12.4522 4.31692 -0.0999413 12.4522 4.31692 -0.0999413
68 2 14.3448 4.31144 1.54131 14.3448 4.31144 1.54131
69 2 14.3623 4.32242 -1.7208 14.3623 4.32242 -1.7208
70 1 15.3042 5.96349 -0.0790944 15.3042 5.96349 -0.0790944
71 2 17.2009 5.95861 1.5574 17.2009 5.95861 1.5574
72 2 17.2103 5.96839 -1.70476 17.2103 5.96839 -1.70476
73 1 18.1563 4.31691 -0.0758866 18.1563 4.31691 -0.0758866
74 2 20.0582 4.31005 1.55446 20.0582 4.31005 1.55446
75 2 20.0571 4.3238 -1.70769 20.0571 4.3238 -1.70769
76 1 21.0083 5.96349 -0.0700068 21.0083 5.96349 -0.0700068
77 2 22.9147 5.95693 1.55514 22.9147 5.95693 1.55514
78 2 22.9047 5.97007 -1.707 22.9047 5.97007 -1.707
79 1 23.8604 4.31694 -0.0855113 23.8604 4.31694 -0.0855113
80 2 25.7712 4.30895 1.53442 25.7712 4.30895 1.53442
81 2 25.7523 4.32494 -1.72766 25.7523 4.32494 -1.72766
82 1 26.7124 5.96352 -0.0940621 26.7124 5.96352 -0.0940621
83 2 28.6261 5.95578 1.52245 28.6261 5.95578 1.52245
84 2 28.6014 5.97128 -1.73961 28.6014 5.97128 -1.73961
85 1 29.5644 4.31699 -0.123669 29.5644 4.31699 -0.123669
86 2 31.4798 4.30865 1.49078 31.4798 4.30865 1.49078
87 2 31.4515 4.32535 -1.77124 31.4515 4.32535 -1.77124
88 1 32.4164 5.96357 -0.140033 32.4164 5.96357 -0.140033
89 2 34.332 5.95566 1.47418 34.332 5.95566 1.47418
90 2 34.3033 5.97151 -1.78784 34.3033 5.97151 -1.78784
91 1 35.2683 4.31704 -0.173251 35.2683 4.31704 -0.173251
92 2 37.1821 4.30928 1.44315 37.1821 4.30928 1.44315
93 2 37.1571 4.32481 -1.8189 37.1571 4.32481 -1.8189
94 1 38.1203 5.96362 -0.187305 38.1203 5.96362 -0.187305
95 2 40.0314 5.95664 1.43236 40.0314 5.95664 1.43236
96 2 40.0118 5.9706 -1.82974 40.0118 5.9706 -1.82974
97 1 40.9723 4.31707 -0.211468 40.9723 4.31707 -0.211468
98 2 42.8786 4.31052 1.41383 42.8786 4.31052 1.41383
99 2 42.8686 4.3236 -1.84831 42.8686 4.3236 -1.84831
100 1 43.8243 5.96362 -0.213492 43.8243 5.96362 -0.213492
101 2 45.7263 5.95822 1.41701 45.7263 5.95822 1.41701
102 2 45.7251 5.969 -1.84516 45.7251 5.969 -1.84516
103 1 46.6764 4.31705 -0.219858 46.6764 4.31705 -0.219858
104 2 48.5729 4.31174 1.41696 48.5729 4.31174 1.41696
105 2 48.5825 4.32233 -1.84519 48.5825 4.32233 -1.84519
106 1 49.5284 5.96359 -0.205882 49.5284 5.96359 -0.205882
107 2 51.421 5.95967 1.43548 51.421 5.95967 1.43548
108 2 51.4385 5.96749 -1.82666 51.4385 5.96749 -1.82666
109 1 1.04435 7.61013 -0.186479 1.04435 7.61013 -0.186479
110 2 2.93403 7.60797 1.45825 2.93403 7.60797 1.45825
111 2 2.9573 7.61228 -1.80385 2.9573 7.61228 -1.80385
112 1 3.89633 9.25669 -0.163776 3.89633 9.25669 -0.163776
113 2 5.78432 9.25643 1.48288 5.78432 9.25643 1.48288
114 2 5.81094 9.25693 -1.7792 5.81094 9.25693 -1.7792
115 1 6.74827 7.6101 -0.140609 6.74827 7.6101 -0.140609
116 2 8.63568 7.60843 1.50668 8.63568 7.60843 1.50668
117 2 8.66345 7.61177 -1.75538 8.66345 7.61177 -1.75538
118 1 9.60023 9.25667 -0.114533 9.60023 9.25667 -0.114533
119 2 11.489 9.25638 1.53113 11.489 9.25638 1.53113
120 2 11.514 9.25696 -1.73095 11.514 9.25696 -1.73095
121 1 12.4522 7.61008 -0.0928661 12.4522 7.61008 -0.0928661
122 2 14.3442 7.60755 1.54906 14.3442 7.60755 1.54906
123 2 14.3629 7.61262 -1.71306 14.3629 7.61262 -1.71306
124 1 15.3042 9.25667 -0.0739955 15.3042 9.25667 -0.0739955
125 2 17.2 9.25495 1.56353 17.2 9.25495 1.56353
126 2 17.2111 9.25838 -1.69863 17.2111 9.25838 -1.69863
127 1 18.1563 7.61007 -0.0660203 18.1563 7.61007 -0.0660203
128 2 20.0574 7.60573 1.56531 20.0574 7.60573 1.56531
129 2 20.0579 7.61442 -1.69686 20.0579 7.61442 -1.69686
130 1 21.0084 9.25666 -0.061255 21.0084 9.25666 -0.061255
131 2 22.9138 9.25282 1.56506 22.9138 9.25282 1.56506
132 2 22.9057 9.26049 -1.6971 22.9057 9.26049 -1.6971
133 1 23.8604 7.61008 -0.0722338 23.8604 7.61008 -0.0722338
134 2 25.7706 7.60391 1.54841 25.7706 7.60391 1.54841
135 2 25.7529 7.61626 -1.7137 25.7529 7.61626 -1.7137
136 1 26.7125 9.25666 -0.0815838 26.7125 9.25666 -0.0815838
137 2 28.6256 9.25105 1.53563 28.6256 9.25105 1.53563
138 2 28.602 9.26229 -1.72645 28.602 9.26229 -1.72645
139 1 29.5644 7.61011 -0.107975 29.5644 7.61011 -0.107975
140 2 31.4799 7.60289 1.50654 31.4799 7.60289 1.50654
141 2 31.4516 7.61735 -1.75549 31.4516 7.61735 -1.75549
142 1 32.4164 9.2567 -0.125395 32.4164 9.2567 -0.125395
143 2 34.3322 9.2504 1.48869 34.3322 9.2504 1.48869
144 2 34.3032 9.26302 -1.77335 34.3032 9.26302 -1.77335
145 1 35.2683 7.61016 -0.15718 35.2683 7.61016 -0.15718
146 2 37.1828 7.60315 1.45851 37.1828 7.60315 1.45851
147 2 37.1565 7.61718 -1.80354 37.1565 7.61718 -1.80354
148 1 38.1203 9.25674 -0.173062 38.1203 9.25674 -0.173062
149 2 40.0323 9.25119 1.4456 40.0323 9.25119 1.4456
150 2 40.011 9.26229 -1.8165 40.011 9.26229 -1.8165
151 1 40.9723 7.61018 -0.197287 40.9723 7.61018 -0.197287
152 2 42.8797 7.60457 1.42679 42.8797 7.60457 1.42679
153 2 42.8676 7.61579 -1.83536 42.8676 7.61579 -1.83536
154 1 43.8243 9.25674 -0.202083 43.8243 9.25674 -0.202083
155 2 45.7275 9.25306 1.42697 45.7275 9.25306 1.42697
156 2 45.7239 9.26041 -1.83521 45.7239 9.26041 -1.83521
157 1 46.6764 7.61017 -0.208898 46.6764 7.61017 -0.208898
158 2 48.5739 7.60647 1.42671 48.5739 7.60647 1.42671
159 2 48.5815 7.61385 -1.83546 48.5815 7.61385 -1.83546
160 1 49.5284 9.25671 -0.198369 49.5284 9.25671 -0.198369
161 2 51.4221 9.25512 1.44172 51.4221 9.25512 1.44172
162 2 51.4374 9.25829 -1.82043 51.4374 9.25829 -1.82043
163 1 1.04437 10.9033 -0.183229 1.04437 10.9033 -0.183229
164 2 2.93505 10.9039 1.46035 2.93505 10.9039 1.46035
165 2 2.95633 10.9026 -1.80176 2.95633 10.9026 -1.80176
166 1 3.89636 12.5498 -0.165126 3.89636 12.5498 -0.165126
167 2 5.78507 12.5527 1.48071 5.78507 12.5527 1.48071
168 2 5.81026 12.547 -1.78138 5.81026 12.547 -1.78138
169 1 6.7483 10.9033 -0.140091 6.7483 10.9033 -0.140091
170 2 8.63594 10.9048 1.50694 8.63594 10.9048 1.50694
171 2 8.66325 10.9017 -1.75513 8.66325 10.9017 -1.75513
172 1 9.60026 12.5498 -0.117653 9.60026 12.5498 -0.117653
173 2 11.4889 12.5529 1.52823 11.4889 12.5529 1.52823
174 2 11.5143 12.5468 -1.73385 11.5143 12.5468 -1.73385
175 1 12.4522 10.9033 -0.0923081 12.4522 10.9033 -0.0923081
176 2 14.3436 10.9041 1.55036 14.3436 10.9041 1.55036
177 2 14.3635 10.9024 -1.71176 14.3635 10.9024 -1.71176
178 1 15.3042 12.5498 -0.0757663 15.3042 12.5498 -0.0757663
179 2 17.1991 12.5515 1.56293 17.1991 12.5515 1.56293
180 2 17.2122 12.5482 -1.69922 17.2122 12.5482 -1.69922
181 1 18.1563 10.9033 -0.0625937 18.1563 10.9033 -0.0625937
182 2 20.0563 10.9022 1.57008 20.0563 10.9022 1.57008
183 2 20.0591 10.9043 -1.6921 20.0591 10.9043 -1.6921
184 1 21.0084 12.5498 -0.0591207 21.0084 12.5498 -0.0591207
185 2 22.9125 12.5492 1.56873 22.9125 12.5492 1.56873
186 2 22.907 12.5504 -1.69345 22.907 12.5504 -1.69345
187 1 23.8604 10.9032 -0.0645189 23.8604 10.9032 -0.0645189
188 2 25.7696 10.8999 1.55737 25.7696 10.8999 1.55737
189 2 25.754 10.9065 -1.70477 25.754 10.9065 -1.70477
190 1 26.7125 12.5498 -0.0749441 26.7125 12.5498 -0.0749441
191 2 28.6247 12.5472 1.54339 28.6247 12.5472 1.54339
192 2 28.603 12.5525 -1.71871 28.603 12.5525 -1.71871
193 1 29.5645 10.9033 -0.0966204 29.5645 10.9033 -0.0966204
194 2 31.4795 10.8985 1.51843 31.4795 10.8985 1.51843
195 2 31.4521 10.908 -1.74362 31.4521 10.908 -1.74362
196 1 32.4165 12.5498 -0.115724 32.4165 12.5498 -0.115724
197 2 34.3321 12.5463 1.49857 34.3321 12.5463 1.49857
198 2 34.3034 12.5534 -1.76348 34.3034 12.5534 -1.76348
199 1 35.2684 10.9033 -0.14439 35.2684 10.9033 -0.14439
200 2 37.1833 10.8984 1.47084 37.1833 10.8984 1.47084
201 2 37.1561 10.9082 -1.79122 37.1561 10.9082 -1.79122
202 1 38.1204 12.5499 -0.163107 38.1204 12.5499 -0.163107
203 2 40.0331 12.5469 1.45471 40.0331 12.5469 1.45471
204 2 40.0103 12.5529 -1.80739 40.0103 12.5529 -1.80739
205 1 40.9723 10.9033 -0.185995 40.9723 10.9033 -0.185995
206 2 42.8809 10.8998 1.43677 42.8809 10.8998 1.43677
207 2 42.8665 10.9068 -1.82539 42.8665 10.9068 -1.82539
208 1 43.8244 12.5499 -0.194856 43.8244 12.5499 -0.194856
209 2 45.7289 12.5488 1.43264 45.7289 12.5488 1.43264
210 2 45.7225 12.551 -1.82954 45.7225 12.551 -1.82954
211 1 46.6764 10.9033 -0.201402 46.6764 10.9033 -0.201402
212 2 48.5753 10.902 1.43263 48.5753 10.902 1.43263
213 2 48.5802 10.9046 -1.82956 48.5802 10.9046 -1.82956
214 1 49.5284 12.5498 -0.195644 49.5284 12.5498 -0.195644
215 2 51.4235 12.5511 1.44292 51.4235 12.5511 1.44292
216 2 51.4361 12.5486 -1.81924 51.4361 12.5486 -1.81924
217 1 1.04439 14.1964 -0.185636 1.04439 14.1964 -0.185636
218 2 2.93617 14.2 1.45668 2.93617 14.2 1.45668
219 2 2.95527 14.1928 -1.80545 2.95527 14.1928 -1.80545
220 1 3.8964 15.843 -0.172418 3.8964 15.843 -0.172418
221 2 5.78581 15.8486 1.47259 5.78581 15.8486 1.47259
222 2 5.8096 15.8373 -1.78949 5.8096 15.8373 -1.78949
223 1 6.74834 14.1964 -0.145803 6.74834 14.1964 -0.145803
224 2 8.63628 14.201 1.50088 8.63628 14.201 1.50088
225 2 8.663 14.1918 -1.76118 8.663 14.1918 -1.76118
226 1 9.60031 15.843 -0.126994 9.60031 15.843 -0.126994
227 2 11.4887 15.8488 1.5191 11.4887 15.8488 1.5191
228 2 11.5145 15.8371 -1.74296 11.5145 15.8371 -1.74296
229 1 12.4522 14.1964 -0.0984454 12.4522 14.1964 -0.0984454
230 2 14.343 14.2005 1.54496 14.343 14.2005 1.54496
231 2 14.3642 14.1924 -1.71714 14.3642 14.1924 -1.71714
232 1 15.3043 15.843 -0.0840278 15.3043 15.843 -0.0840278
233 2 17.198 15.8476 1.55589 17.198 15.8476 1.55589
234 2 17.2132 15.8384 -1.70624 17.2132 15.8384 -1.70624
235 1 18.1563 14.1964 -0.0660255 18.1563 14.1964 -0.0660255
236 2 20.055 14.1986 1.56817 20.055 14.1986 1.56817
237 2 20.0604 14.1943 -1.694 20.0604 14.1943 -1.694
238 1 21.0084 15.843 -0.0635525 21.0084 15.843 -0.0635525
239 2 22.9111 15.8455 1.56595 22.9111 15.8455 1.56595
240 2 22.9084 15.8405 -1.69623 22.9084 15.8405 -1.69623
241 1 23.8604 14.1964 -0.0633785 23.8604 14.1964 -0.0633785
242 2 25.7683 14.1963 1.56002 25.7683 14.1963 1.56002
243 2 25.7553 14.1965 -1.70213 25.7553 14.1965 -1.70213
244 1 26.7125 15.843 -0.0747807 26.7125 15.843 -0.0747807
245 2 28.6236 15.8436 1.54482 28.6236 15.8436 1.54482
246 2 28.6041 15.8424 -1.71731 28.6041 15.8424 -1.71731
247 1 29.5645 14.1964 -0.0913566 29.5645 14.1964 -0.0913566
248 2 31.4788 14.1948 1.52452 31.4788 14.1948 1.52452
249 2 31.4529 14.1981 -1.73756 31.4529 14.1981 -1.73756
250 1 32.4165 15.843 -0.112427 32.4165 15.843 -0.112427
251 2 34.3318 15.8427 1.50226 34.3318 15.8427 1.50226
252 2 34.3038 15.8433 -1.75981 34.3038 15.8433 -1.75981
253 1 35.2684 14.1964 -0.137201 35.2684 14.1964 -0.137201
254 2 37.1835 14.1946 1.47782 37.1835 14.1946 1.47782
255 2 37.156 14.1983 -1.78425 37.156 14.1983 -1.78425
256 1 38.1204 15.843 -0.159309 38.1204 15.843 -0.159309
257 2 40.0336 15.8432 1.45787 40.0336 15.8432 1.45787
258 2 40.0098 15.8428 -1.80423 40.0098 15.8428 -1.80423
259 1 40.9724 14.1964 -0.17991 40.9724 14.1964 -0.17991
260 2 42.8819 14.1958 1.44166 42.8819 14.1958 1.44166
261 2 42.8655 14.1971 -1.82049 42.8655 14.1971 -1.82049
262 1 43.8244 15.843 -0.193491 43.8244 15.843 -0.193491
263 2 45.7301 15.8449 1.4326 45.7301 15.8449 1.4326
264 2 45.7214 15.8411 -1.82958 45.7214 15.8411 -1.82958
265 1 46.6764 14.1964 -0.199112 46.6764 14.1964 -0.199112
266 2 48.5767 14.1979 1.43329 48.5767 14.1979 1.43329
267 2 48.5788 14.1949 -1.8289 48.5788 14.1949 -1.8289
268 1 49.5284 15.843 -0.198686 49.5284 15.843 -0.198686
269 2 51.4247 15.847 1.4384 51.4247 15.847 1.4384
270 2 51.4348 15.8389 -1.82377 51.4348 15.8389 -1.82377
271 1 1.04442 17.4895 -0.19377 1.04442 17.4895 -0.19377
272 2 2.93715 17.4956 1.44742 2.93715 17.4956 1.44742
273 2 2.95435 17.4834 -1.8147 2.95435 17.4834 -1.8147
274 1 3.89643 19.1361 -0.18476 3.89643 19.1361 -0.18476
275 2 5.78639 19.1436 1.45961 5.78639 19.1436 1.45961
276 2 5.80911 19.1286 -1.80246 5.80911 19.1286 -1.80246
277 1 6.74838 17.4895 -0.157154 6.74838 17.4895 -0.157154
278 2 8.63656 17.4965 1.48925 8.63656 17.4965 1.48925
279 2 8.66281 17.4825 -1.7728 8.66281 17.4825 -1.7728
280 1 9.60036 19.1361 -0.141194 9.60036 19.1361 -0.141194
281 2 11.4886 19.1438 1.50516 11.4886 19.1438 1.50516
282 2 11.5148 19.1284 -1.75688 11.5148 19.1284 -1.75688
283 1 12.4523 17.4896 -0.110352 12.4523 17.4896 -0.110352
284 2 14.3424 17.4961 1.53381 14.3424 17.4961 1.53381
285 2 14.3649 17.483 -1.72827 14.3649 17.483 -1.72827
286 1 15.3043 19.1361 -0.0972829 15.3043 19.1361 -0.0972829
287 2 17.197 19.1428 1.54381 17.197 19.1428 1.54381
288 2 17.2143 19.1295 -1.7183 17.2143 19.1295 -1.7183
289 1 18.1563 17.4896 -0.0754307 18.1563 17.4896 -0.0754307
290 2 20.0537 17.4944 1.56028 20.0537 17.4944 1.56028
291 2 20.0617 17.4848 -1.70187 20.0617 17.4848 -1.70187
292 1 21.0084 19.1362 -0.0733463 21.0084 19.1362 -0.0733463
293 2 22.9098 19.1411 1.55769 22.9098 19.1411 1.55769
294 2 22.9098 19.1313 -1.70448 22.9098 19.1313 -1.70448
295 1 23.8604 17.4896 -0.068423 23.8604 17.4896 -0.068423
296 2 25.7671 17.4924 1.55648 25.7671 17.4924 1.55648
297 2 25.7566 17.4868 -1.70568 25.7566 17.4868 -1.70568
298 1 26.7125 19.1362 -0.0805133 26.7125 19.1362 -0.0805133
299 2 28.6227 19.1396 1.54021 28.6227 19.1396 1.54021
300 2 28.605 19.1328 -1.72192 28.605 19.1328 -1.72192
301 1 29.5645 17.4896 -0.0925311 29.5645 17.4896 -0.0925311
302 2 31.4781 17.4911 1.52417 31.4781 17.4911 1.52417
303 2 31.4536 17.488 -1.73791 31.4536 17.488 -1.73791
304 1 32.4165 19.1362 -0.115587 32.4165 19.1362 -0.115587
305 2 34.3315 19.1391 1.49945 34.3315 19.1391 1.49945
306 2 34.3041 19.1333 -1.76262 34.3041 19.1333 -1.76262
307 1 35.2685 17.4896 -0.136644 35.2685 17.4896 -0.136644
308 2 37.1836 17.491 1.4783 37.1836 17.491 1.4783
309 2 37.156 17.4881 -1.78377 37.156 17.4881 -1.78377
310 1 38.1204 19.1362 -0.162216 38.1204 19.1362 -0.162216
311 2 40.034 19.1395 1.45451 40.034 19.1395 1.45451
312 2 40.0094 19.1328 -1.80758 40.0094 19.1328 -1.80758
313 1 40.9724 17.4896 -0.180298 40.9724 17.4896 -0.180298
314 2 42.8827 17.4921 1.44031 42.8827 17.4921 1.44031
315 2 42.8647 17.4871 -1.82182 42.8647 17.4871 -1.82182
316 1 43.8244 19.1361 -0.198479 43.8244 19.1361 -0.198479
317 2 45.731 19.1408 1.42655 45.731 19.1408 1.42655
318 2 45.7205 19.1315 -1.83561 45.7205 19.1315 -1.83561
319 1 46.6764 17.4896 -0.202882 46.6764 17.4896 -0.202882
320 2 48.5779 17.4939 1.42812 48.5779 17.4939 1.42812
321 2 48.5776 17.4852 -1.83406 48.5776 17.4852 -1.83406
322 1 49.5285 19.1361 -0.207368 49.5285 19.1361 -0.207368
323 2 51.4257 19.1424 1.42856 51.4257 19.1424 1.42856
324 2 51.4339 19.1298 -1.8336 51.4339 19.1298 -1.8336
325 1 1.04444 20.7827 -0.206464 1.04444 20.7827 -0.206464
326 2 2.93782 20.7902 1.43397 2.93782 20.7902 1.43397
327 2 2.95374 20.7751 -1.82814 2.95374 20.7751 -1.82814
328 1 3.89646 22.4292 -0.200082 3.89646 22.4292 -0.200082
329 2 5.7867 22.4373 1.44396 5.7867 22.4373 1.44396
330 2 5.80887 22.4211 -1.81811 5.80887 22.4211 -1.81811
331 1 6.74843 20.7827 -0.172384 6.74843 20.7827 -0.172384
332 2 8.63671 20.7909 1.47389 8.63671 20.7909 1.47389
333 2 8.66275 20.7744 -1.78816 8.66275 20.7744 -1.78816
334 1 9.6004 22.4292 -0.157852 9.6004 22.4292 -0.157852
335 2 11.4883 22.4375 1.4888 11.4883 22.4375 1.4888
336 2 11.5151 22.421 -1.77323 11.5151 22.421 -1.77323
337 1 12.4523 20.7827 -0.126034 12.4523 20.7827 -0.126034
338 2 14.3418 20.7905 1.51885 14.3418 20.7905 1.51885
339 2 14.3655 20.7748 -1.74321 14.3655 20.7748 -1.74321
340 1 15.3043 22.4293 -0.113201 15.3043 22.4293 -0.113201
341 2 17.1962 22.4369 1.52886 17.1962 22.4369 1.52886
342 2 17.2151 22.4217 -1.73324 17.2151 22.4217 -1.73324
343 1 18.1563 20.7827 -0.0889806 18.1563 20.7827 -0.0889806
344 2 20.0525 20.7893 1.54806 20.0525 20.7893 1.54806
345 2 20.0628 20.7762 -1.71408 20.0628 20.7762 -1.71408
346 1 21.0084 22.4293 -0.0866515 21.0084 22.4293 -0.0866515
347 2 22.9087 22.4358 1.54555 22.9087 22.4358 1.54555
348 2 22.9108 22.4228 -1.7166 22.9108 22.4228 -1.7166
349 1 23.8604 20.7828 -0.0783592 23.8604 20.7828 -0.0783592
350 2 25.766 20.7879 1.5478 25.766 20.7879 1.5478
351 2 25.7577 20.7776 -1.71435 25.7577 20.7776 -1.71435
352 1 26.7125 22.4293 -0.0908814 26.7125 22.4293 -0.0908814
353 2 28.622 22.435 1.53065 28.622 22.435 1.53065
354 2 28.6057 22.4237 -1.73147 28.6057 22.4237 -1.73147
355 1 29.5645 20.7828 -0.0994429 29.5645 20.7828 -0.0994429
356 2 31.4776 20.7871 1.5179 31.4776 20.7871 1.5179
357 2 31.4541 20.7784 -1.74419 31.4541 20.7784 -1.74419
358 1 32.4165 22.4293 -0.124337 32.4165 22.4293 -0.124337
359 2 34.3313 22.4348 1.4909 34.3313 22.4348 1.4909
360 2 34.3043 22.4239 -1.77115 34.3043 22.4239 -1.77115
361 1 35.2685 20.7827 -0.142472 35.2685 20.7827 -0.142472
362 2 37.1836 20.7871 1.47241 37.1836 20.7871 1.47241
363 2 37.1559 20.7783 -1.78964 37.1559 20.7783 -1.78964
364 1 38.1204 22.4293 -0.171125 38.1204 22.4293 -0.171125
365 2 40.0342 22.4351 1.44533 40.0342 22.4351 1.44533
366 2 40.0092 22.4234 -1.81674 40.0092 22.4234 -1.81674
367 1 40.9724 20.7827 -0.187074 40.9724 20.7827 -0.187074
368 2 42.8833 20.7879 1.4329 42.8833 20.7879 1.4329
369 2 42.8642 20.7775 -1.82922 42.8642 20.7775 -1.82922
370 1 43.8244 22.4293 -0.208949 43.8244 22.4293 -0.208949
371 2 45.7315 22.4358 1.41549 45.7315 22.4358 1.41549
372 2 45.72 22.4227 -1.84665 45.72 22.4227 -1.84665
373 1 46.6764 20.7827 -0.212268 46.6764 20.7827 -0.212268
374 2 48.5787 20.789 1.4178 48.5787 20.789 1.4178
375 2 48.5768 20.7763 -1.84437 48.5768 20.7763 -1.84437
376 1 49.5285 22.4292 -0.220262 49.5285 22.4292 -0.220262
377 2 51.4263 22.4366 1.41503 51.4263 22.4366 1.41503
378 2 51.4334 22.4218 -1.84711 51.4334 22.4218 -1.84711
379 1 1.04445 24.0758 -0.221445 1.04445 24.0758 -0.221445
380 2 2.93806 24.0834 1.41871 2.93806 24.0834 1.41871
381 2 2.95354 24.0681 -1.8434 2.95354 24.0681 -1.8434
382 1 3.89648 25.7223 -0.215561 3.89648 25.7223 -0.215561
383 2 5.78672 25.7295 1.42847 5.78672 25.7295 1.42847
384 2 5.80889 25.7151 -1.83361 5.80889 25.7151 -1.83361
385 1 6.74846 24.0758 -0.18881 6.74846 24.0758 -0.18881
386 2 8.63672 24.0837 1.45748 8.63672 24.0837 1.45748
387 2 8.66281 24.0678 -1.80457 8.66281 24.0678 -1.80457
388 1 9.60043 25.7223 -0.174005 9.60043 25.7223 -0.174005
389 2 11.4881 25.7297 1.47288 11.4881 25.7297 1.47288
390 2 11.5153 25.715 -1.78916 11.5153 25.715 -1.78916
391 1 12.4524 24.0758 -0.142774 12.4524 24.0758 -0.142774
392 2 14.3413 24.0837 1.50267 14.3413 24.0837 1.50267
393 2 14.366 24.068 -1.75939 14.366 24.068 -1.75939
394 1 15.3044 25.7224 -0.129095 15.3044 25.7224 -0.129095
395 2 17.1958 25.7297 1.5135 17.1958 25.7297 1.5135
396 2 17.2156 25.7151 -1.7486 17.2156 25.7151 -1.7486
397 1 18.1563 24.0759 -0.104363 18.1563 24.0759 -0.104363
398 2 20.0518 24.0831 1.53358 20.0518 24.0831 1.53358
399 2 20.0636 24.0686 -1.72855 20.0636 24.0686 -1.72855
400 1 21.0084 25.7224 -0.101408 21.0084 25.7224 -0.101408
401 2 22.9082 25.7296 1.5314 22.9082 25.7296 1.5314
402 2 22.9113 25.7153 -1.73075 22.9113 25.7153 -1.73075
403 1 23.8604 24.0759 -0.0915062 23.8604 24.0759 -0.0915062
404 2 25.7653 24.0826 1.53546 25.7653 24.0826 1.53546
405 2 25.7583 24.0692 -1.72669 25.7583 24.0692 -1.72669
406 1 26.7125 25.7225 -0.104383 26.7125 25.7225 -0.104383
407 2 28.6216 25.7296 1.51755 28.6216 25.7296 1.51755
408 2 28.6061 25.7154 -1.74457 28.6061 25.7154 -1.74457
409 1 29.5645 24.0759 -0.110848 29.5645 24.0759 -0.110848
410 2 31.4772 24.0823 1.50686 31.4772 24.0823 1.50686
411 2 31.4545 24.0695 -1.75522 31.4545 24.0695 -1.75522
412 1 32.4165 25.7225 -0.137293 32.4165 25.7225 -0.137293
413 2 34.3312 25.7296 1.47806 34.3312 25.7296 1.47806
414 2 34.3044 25.7153 -1.78398 34.3044 25.7153 -1.78398
415 1 35.2685 24.0759 -0.153521 35.2685 24.0759 -0.153521
416 2 37.1836 24.0824 1.46133 37.1836 24.0824 1.46133
417 2 37.1559 24.0693 -1.80071 37.1559 24.0693 -1.80071
418 1 38.1204 25.7224 -0.184396 38.1204 25.7224 -0.184396
419 2 40.0342 25.7297 1.43206 40.0342 25.7297 1.43206
420 2 40.0092 25.7152 -1.82999 40.0092 25.7152 -1.82999
421 1 40.9724 24.0758 -0.19892 40.9724 24.0758 -0.19892
422 2 42.8834 24.0827 1.42081 42.8834 24.0827 1.42081
423 2 42.864 24.069 -1.84129 42.864 24.069 -1.84129
424 1 43.8244 25.7224 -0.222871 43.8244 25.7224 -0.222871
425 2 45.7314 25.7295 1.40158 45.7314 25.7295 1.40158
426 2 45.72 25.7152 -1.86056 45.72 25.7152 -1.86056
427 1 46.6764 24.0758 -0.225554 46.6764 24.0758 -0.225554
428 2 48.579 24.083 1.40418 48.579 24.083 1.40418
429 2 48.5766 24.0685 -1.85797 48.5766 24.0685 -1.85797
430 1 49.5285 25.7223 -0.234916 49.5285 25.7223 -0.234916
431 2 51.4263 25.7294 1.40037 51.4263 25.7294 1.40037
432 2 51.4334 25.7152 -1.86178 51.4334 25.7152 -1.86178
433 1 1.04446 27.3689 -0.235811 1.04446 27.3689 -0.235811
434 2 2.93788 27.3751 1.40456 2.93788 27.3751 1.40456
435 2 2.95374 27.3627 -1.85756 2.95374 27.3627 -1.85756
436 1 3.89649 29.0155 -0.228201 3.89649 29.0155 -0.228201
437 2 5.78649 29.0204 1.41609 5.78649 29.0204 1.41609
438 2 5.80913 29.0106 -1.846 5.80913 29.0106 -1.846
439 1 6.74848 27.3689 -0.203394 6.74848 27.3689 -0.203394
440 2 8.63663 27.3752 1.44301 8.63663 27.3752 1.44301
441 2 8.66294 27.3626 -1.81904 8.66294 27.3626 -1.81904
442 1 9.60044 29.0155 -0.186691 9.60044 29.0155 -0.186691
443 2 11.4881 29.0206 1.46025 11.4881 29.0206 1.46025
444 2 11.5154 29.0104 -1.8018 11.5154 29.0104 -1.8018
445 1 12.4524 27.3689 -0.157653 12.4524 27.3689 -0.157653
446 2 14.3412 27.3755 1.48801 14.3412 27.3755 1.48801
447 2 14.3662 27.3624 -1.77406 14.3662 27.3624 -1.77406
448 1 15.3044 29.0155 -0.142326 15.3044 29.0155 -0.142326
449 2 17.1958 29.0214 1.5002 17.1958 29.0214 1.5002
450 2 17.2156 29.0096 -1.76191 17.2156 29.0096 -1.76191
451 1 18.1564 27.369 -0.119167 18.1564 27.369 -0.119167
452 2 20.0515 27.3759 1.51903 20.0515 27.3759 1.51903
453 2 20.0639 27.362 -1.7431 20.0639 27.362 -1.7431
454 1 21.0084 29.0156 -0.115492 21.0084 29.0156 -0.115492
455 2 22.9083 29.0225 1.5172 22.9083 29.0225 1.5172
456 2 22.9112 29.0087 -1.74496 22.9112 29.0087 -1.74496
457 1 23.8604 27.369 -0.106069 23.8604 27.369 -0.106069
458 2 25.765 27.3764 1.52114 25.765 27.3764 1.52114
459 2 25.7585 27.3617 -1.74101 25.7585 27.3617 -1.74101
460 1 26.7125 29.0156 -0.119305 26.7125 29.0156 -0.119305
461 2 28.6216 29.0232 1.50263 28.6216 29.0232 1.50263
462 2 28.606 29.008 -1.75949 28.606 29.008 -1.75949
463 1 29.5645 27.369 -0.125241 29.5645 27.369 -0.125241
464 2 31.477 27.3766 1.49262 31.477 27.3766 1.49262
465 2 31.4546 27.3614 -1.76945 31.4546 27.3614 -1.76945
466 1 32.4164 29.0156 -0.152668 32.4164 29.0156 -0.152668
467 2 34.331 29.0233 1.46286 34.331 29.0233 1.46286
468 2 34.3045 29.0078 -1.79918 34.3045 29.0078 -1.79918
469 1 35.2684 27.369 -0.168038 35.2684 27.369 -0.168038
470 2 37.1834 27.3766 1.44696 37.1834 27.3766 1.44696
471 2 37.156 27.3614 -1.81507 37.156 27.3614 -1.81507
472 1 38.1204 29.0155 -0.199728 38.1204 29.0155 -0.199728
473 2 40.0338 29.0228 1.41717 40.0338 29.0228 1.41717
474 2 40.0096 29.0083 -1.8449 40.0096 29.0083 -1.8449
475 1 40.9723 27.369 -0.213587 40.9723 27.369 -0.213587
476 2 42.8832 27.3761 1.40642 42.8832 27.3761 1.40642
477 2 42.8642 27.3618 -1.85568 42.8642 27.3618 -1.85568
478 1 43.8243 29.0155 -0.237459 43.8243 29.0155 -0.237459
479 2 45.7309 29.0218 1.38762 45.7309 29.0218 1.38762
480 2 45.7205 29.0092 -1.87453 45.7205 29.0092 -1.87453
481 1 46.6764 27.3689 -0.240087 46.6764 27.3689 -0.240087
482 2 48.5787 27.3755 1.38998 48.5787 27.3755 1.38998
483 2 48.5769 27.3623 -1.87218 48.5769 27.3623 -1.87218
484 1 49.5285 29.0155 -0.24835 49.5285 29.0155 -0.24835
485 2 51.4258 29.0208 1.38749 51.4258 29.0208 1.38749
486 2 51.4339 29.0101 -1.87466 51.4339 29.0101 -1.87466
487 1 1.04445 30.662 -0.246656 1.04445 30.662 -0.246656
488 2 2.93736 30.6656 1.39431 2.93736 30.6656 1.39431
489 2 2.95425 30.6585 -1.86782 2.95425 30.6585 -1.86782
490 1 3.89648 32.3086 -0.235488 3.89648 32.3086 -0.235488
491 2 5.7861 32.3103 1.40924 5.7861 32.3103 1.40924
492 2 5.8095 32.307 -1.85286 5.8095 32.307 -1.85286
493 1 6.74848 30.662 -0.213327 6.74848 30.662 -0.213327
494 2 8.63651 30.6654 1.43321 8.63651 30.6654 1.43321
495 2 8.66306 30.6587 -1.82886 8.66306 30.6587 -1.82886
496 1 9.60043 32.3086 -0.193496 9.60043 32.3086 -0.193496
497 2 11.4883 32.3106 1.45324 11.4883 32.3106 1.45324
498 2 11.5152 32.3067 -1.80883 11.5152 32.3067 -1.80883
499 1 12.4524 30.6621 -0.168006 12.4524 30.6621 -0.168006
500 2 14.3414 30.6662 1.4774 14.3414 30.6662 1.4774
501 2 14.366 30.658 -1.78469 14.366 30.658 -1.78469
502 1 15.3043 32.3086 -0.150603 15.3043 32.3086 -0.150603
503 2 17.1965 32.3121 1.49117 17.1965 32.3121 1.49117
504 2 17.2149 32.3052 -1.77096 17.2149 32.3052 -1.77096
505 1 18.1563 30.6621 -0.131058 18.1563 30.6621 -0.131058
506 2 20.052 30.6677 1.50664 20.052 30.6677 1.50664
507 2 20.0634 30.6565 -1.75551 20.0634 30.6565 -1.75551
508 1 21.0084 32.3087 -0.126726 21.0084 32.3087 -0.126726
509 2 22.909 32.3142 1.5051 22.909 32.3142 1.5051
510 2 22.9104 32.3032 -1.75707 22.9104 32.3032 -1.75707
511 1 23.8604 30.6621 -0.120037 23.8604 30.6621 -0.120037
512 2 25.7653 30.6692 1.50678 25.7653 30.6692 1.50678
513 2 25.7582 30.6551 -1.75537 25.7582 30.6551 -1.75537
514 1 26.7124 32.3087 -0.133492 26.7124 32.3087 -0.133492
515 2 28.6218 32.3157 1.48806 28.6218 32.3157 1.48806
516 2 28.6057 32.3018 -1.77406 28.6057 32.3018 -1.77406
517 1 29.5644 30.6622 -0.140703 29.5644 30.6622 -0.140703
518 2 31.477 30.6698 1.47718 31.477 30.6698 1.47718
519 2 31.4546 30.6545 -1.78489 31.4546 30.6545 -1.78489
520 1 32.4164 32.3087 -0.168162 32.4164 32.3087 -0.168162
521 2 34.3307 32.3158 1.44769 34.3307 32.3158 1.44769
522 2 34.3047 32.3016 -1.81437 34.3047 32.3016 -1.81437
523 1 35.2684 30.6621 -0.183762 35.2684 30.6621 -0.183762
524 2 37.183 30.6694 1.43171 37.183 30.6694 1.43171
525 2 37.1564 30.6549 -1.83034 37.1564 30.6549 -1.83034
526 1 38.1203 32.3087 -0.214463 38.1203 32.3087 -0.214463
527 2 40.033 32.3146 1.40333 40.033 32.3146 1.40333
528 2 40.0103 32.3027 -1.85875 40.0103 32.3027 -1.85875
529 1 40.9723 30.6621 -0.228301 40.9723 30.6621 -0.228301
530 2 42.8824 30.6682 1.39254 42.8824 30.6682 1.39254
531 2 42.8649 30.656 -1.86958 42.8649 30.656 -1.86958
532 1 43.8243 32.3086 -0.249841 43.8243 32.3086 -0.249841
533 2 45.7299 32.3128 1.37639 45.7299 32.3128 1.37639
534 2 45.7215 32.3044 -1.88577 45.7215 32.3044 -1.88577
535 1 46.6764 30.6621 -0.252871 46.6764 30.6621 -0.252871
536 2 48.5779 30.6667 1.37809 48.5779 30.6667 1.37809
537 2 48.5776 30.6574 -1.88407 48.5776 30.6574 -1.88407
538 1 49.5284 32.3086 -0.257813 49.5284 32.3086 -0.257813