ITEM: TIMESTEP
97000
ITEM: NUMBER OF ATOMS
810
ITEM: BOX BOUNDS pp pp pp
8.5904201026384541e-01 5.2158562989735103e+01
8.0939603951584327e-01 5.0206818960483432e+01
-1.0000000000000000e+01 1.0000000000000000e+01
ITEM: ATOMS id type x y z xu yu zu
1 1 1.06495 1.02423 -0.511842 1.06495 1.02423 -0.511842
2 2 2.90078 1.0113 1.1932 2.90078 1.0113 1.1932
3 2 3.02891 1.03707 -2.06636 3.02891 1.03707 -2.06636
4 1 3.9147 2.67056 -0.386036 3.9147 2.67056 -0.386036
5 2 5.73308 2.6583 1.3375 5.73308 2.6583 1.3375
6 2 5.89429 2.68274 -1.92061 5.89429 2.68274 -1.92061
7 1 6.76329 1.02382 -0.256773 6.76329 1.02382 -0.256773
8 2 8.57429 1.00948 1.47434 8.57429 1.00948 1.47434
9 2 8.74941 1.03809 -1.78301 8.74941 1.03809 -1.78301
10 1 9.61098 2.67011 -0.0886927 9.61098 2.67011 -0.0886927
11 2 11.425 2.65664 1.63911 11.425 2.65664 1.63911
12 2 11.5945 2.68355 -1.61854 11.5945 2.68355 -1.61854
13 1 12.4593 1.02332 0.0461408 12.4593 1.02332 0.0461408
14 2 14.2875 1.00766 1.75875 14.2875 1.00766 1.75875
15 2 14.4301 1.03894 -1.50013 14.4301 1.03894 -1.50013
16 1 15.3085 2.66968 0.186749 15.3085 2.66968 0.186749
17 2 17.1597 2.65484 1.87439 17.1597 2.65484 1.87439
18 2 17.2584 2.68452 -1.38611 17.2584 2.68452 -1.38611
19 1 18.1595 1.02294 0.257884 18.1595 1.02294 0.257884
20 2 20.0402 1.00619 1.91238 20.0402 1.00619 1.91238
21 2 20.0814 1.03975 -1.34933 20.0814 1.03975 -1.34933
22 1 21.0115 2.66946 0.310429 21.0115 2.66946 0.310429
23 2 22.924 2.65326 1.92802 22.924 2.65326 1.92802
24 2 22.902 2.68575 -1.33386 22.902 2.68575 -1.33386
25 1 23.8637 1.02295 0.274083 23.8637 1.02295 0.274083
26 2 25.8061 1.00581 1.85544 25.8061 1.00581 1.85544
27 2 25.7229 1.04025 -1.40547 25.7229 1.04025 -1.40547
28 1 26.7151 2.66965 0.218021 26.7151 2.66965 0.218021
29 2 28.6821 2.65293 1.76866 28.6821 2.65293 1.76866
30 2 28.5477 2.68657 -1.49055 28.5477 2.68657 -1.49055
31 1 29.5646 1.02339 0.0826476 29.5646 1.02339 0.0826476
32 2 31.547 1.00731 1.61355 31.547 1.00731 1.61355
33 2 31.3799 1.03967 -1.64417 31.3799 1.03967 -1.64417
34 1 32.4131 2.67022 -0.0477579 32.4131 2.67022 -0.0477579
35 2 34.4019 2.65446 1.47507 34.4019 2.65446 1.47507
36 2 34.2212 2.68613 -1.78194 34.2212 2.68613 -1.78194
37 1 35.2605 1.024 -0.222278 35.2605 1.024 -0.222278
38 2 37.2438 1.00986 1.30777 37.2438 1.00986 1.30777
39 2 37.0747 1.0382 -1.94989 37.0747 1.0382 -1.94989
40 1 38.1088 2.67077 -0.356048 38.1088 2.67077 -0.356048
41 2 40.0786 2.65682 1.19168 40.0786 2.65682 1.19168
42 2 39.9382 2.68473 -2.06735 39.9382 2.68473 -2.06735
43 1 40.9581 1.02439 -0.492917 40.9581 1.02439 -0.492917
44 2 42.9051 1.01183 1.0837 42.9051 1.01183 1.0837
45 2 42.8124 1.03687 -2.17705 42.8124 1.03687 -2.17705
46 1 43.8092 2.67101 -0.560938 43.8092 2.67101 -0.560938
47 2 45.729 2.65871 1.0488 45.729 2.65871 1.0488
48 2 45.6919 2.68317 -2.21308 45.6919 2.68317 -2.21308
49 1 46.6611 1.02445 -0.605225 46.6611 1.02445 -0.605225
50 2 48.5505 1.01234 1.04027 48.5505 1.01234 1.04027
51 2 48.5745 1.03643 -2.22172 48.5745 1.03643 -2.22172
52 1 49.5132 2.67089 -0.571404 49.5132 2.67089 -0.571404
53 2 51.3737 2.65925 1.10675 51.3737 2.65925 1.10675
54 2 51.4543 2.6824 -2.15436 51.4543 2.6824 -2.15436
55 1 1.06488 4.31723 -0.488423 1.06488 4.31723 -0.488423
56 2 2.90069 4.30693 1.21664 2.90069 4.30693 1.21664
57 2 3.02877 4.32743 -2.04298 3.02877 4.32743 -2.04298
58 1 3.91462 5.96355 -0.365279 3.91462 5.96355 -0.365279
59 2 5.73304 5.95531 1.35823 5.73304 5.95531 1.35823
60 2 5.89412 5.97174 -1.89995 5.89412 5.97174 -1.89995
61 1 6.76309 4.31686 -0.232049 6.76309 4.31686 -0.232049
62 2 8.57369 4.30604 1.49953 8.57369 4.30604 1.49953
63 2 8.74955 4.32765 -1.75783 8.74955 4.32765 -1.75783
64 1 9.61082 5.96323 -0.0668204 9.61082 5.96323 -0.0668204
65 2 11.4245 5.95443 1.66142 11.4245 5.95443 1.66142
66 2 11.5946 5.97203 -1.59624 11.5946 5.97203 -1.59624
67 1 12.459 4.31647 0.0733797 12.459 4.31647 0.0733797
68 2 14.2868 4.30446 1.78648 14.2868 4.30446 1.78648
69 2 14.4303 4.32847 -1.47241 14.4303 4.32847 -1.47241
70 1 15.3084 5.96294 0.211045 15.3084 5.96294 0.211045
71 2 17.1591 5.95283 1.89932 17.1591 5.95283 1.89932
72 2 17.2588 5.97305 -1.36119 17.2588 5.97305 -1.36119
73 1 18.1594 4.31615 0.287932 18.1594 4.31615 0.287932
74 2 20.0398 4.30255 1.94289 20.0398 4.30255 1.94289
75 2 20.0817 4.32978 -1.31882 20.0817 4.32978 -1.31882
76 1 21.0115 5.96275 0.337963 21.0115 5.96275 0.337963
77 2 22.9235 5.95067 1.95633 22.9235 5.95067 1.95633
78 2 22.9027 5.97486 -1.3056 22.9027 5.97486 -1.3056
79 1 23.8638 4.3161 0.306976 23.8638 4.3161 0.306976
80 2 25.8063 4.30083 1.88838 25.8063 4.30083 1.88838
81 2 25.7232 4.33149 -1.37253 25.7232 4.33149 -1.37253
82 1 26.7154 5.96284 0.249056 26.7154 5.96284 0.249056
83 2 28.6824 5.94875 1.79993 28.6824 5.94875 1.79993
84 2 28.5483 5.97706 -1.45931 28.5483 5.97706 -1.45931
85 1 29.5651 4.31645 0.116756 29.5651 4.31645 0.116756
86 2 31.5484 4.30053 1.64664 31.5484 4.30053 1.64664
87 2 31.3795 4.33256 -1.61098 31.3795 4.33256 -1.61098
88 1 32.4137 5.96327 -0.0152862 32.4137 5.96327 -0.0152862
89 2 34.4032 5.94851 1.50661 34.4032 5.94851 1.50661
90 2 34.2209 5.97821 -1.75033 34.2209 5.97821 -1.75033
91 1 35.261 4.31704 -0.19013 35.261 4.31704 -0.19013
92 2 37.2457 4.30205 1.33816 37.2457 4.30205 1.33816
93 2 37.0736 4.33213 -1.91933 37.0736 4.33213 -1.91933
94 1 38.1093 5.9638 -0.325526 38.1093 5.9638 -0.325526
95 2 40.0805 5.95018 1.22046 40.0805 5.95018 1.22046
96 2 39.9371 5.97744 -2.03846 39.9371 5.97744 -2.03846
97 1 40.9584 4.31746 -0.464597 40.9584 4.31746 -0.464597
98 2 42.9067 4.3044 1.11037 42.9067 4.3044 1.11037
99 2 42.8112 4.33044 -2.15032 42.8112 4.33044 -2.15032
100 1 43.8094 5.96401 -0.534515 43.8094 5.96401 -0.534515
101 2 45.7307 5.95279 1.07343 45.7307 5.95279 1.07343
102 2 45.6905 5.97511 -2.18846 45.6905 5.97511 -2.18846
103 1 46.6612 4.31749 -0.58044 46.6612 4.31749 -0.58044
104 2 48.5514 4.30639 1.06413 48.5514 4.30639 1.06413
105 2 48.5737 4.32843 -2.19792 48.5737 4.32843 -2.19792
106 1 49.5132 5.96386 -0.549067 49.5132 5.96386 -0.549067
107 2 51.3746 5.95485 1.12809 51.3746 5.95485 1.12809
108 2 51.4534 5.97273 -2.13312 51.4534 5.97273 -2.13312
109 1 1.06487 7.61018 -0.470287 1.06487 7.61018 -0.470287
110 2 2.90155 7.60398 1.23383 2.90155 7.60398 1.23383
111 2 3.02788 7.61629 -2.02592 3.02788 7.61629 -2.02592
112 1 3.91465 9.25654 -0.35278 3.91465 9.25654 -0.35278
113 2 5.73379 9.25362 1.36998 5.73379 9.25362 1.36998
114 2 5.89346 9.25945 -1.88832 5.89346 9.25945 -1.88832
115 1 6.76304 7.60992 -0.215417 6.76304 7.60992 -0.215417
116 2 8.57364 7.60428 1.5162 8.57364 7.60428 1.5162
117 2 8.74949 7.61557 -1.74122 8.74949 7.61557 -1.74122
118 1 9.61085 9.25641 -0.0553846 9.61085 9.25641 -0.0553846
119 2 11.4244 9.25367 1.67304 11.4244 9.25367 1.67304
120 2 11.5948 9.25919 -1.58465 11.5948 9.25919 -1.58465
121 1 12.4589 7.60971 0.0911925 12.4589 7.60971 0.0911925
122 2 14.2863 7.60335 1.80481 14.2863 7.60335 1.80481
123 2 14.4307 7.6161 -1.45409 14.4307 7.6161 -1.45409
124 1 15.3084 9.25632 0.223932 15.3084 9.25632 0.223932
125 2 17.1585 9.2526 1.91292 17.1585 9.2526 1.91292
126 2 17.2595 9.26004 -1.34759 17.2595 9.26004 -1.34759
127 1 18.1593 7.60953 0.308374 18.1593 7.60953 0.308374
128 2 20.039 7.60155 1.96426 20.039 7.60155 1.96426
129 2 20.0825 7.6175 -1.29749 20.0825 7.6175 -1.29749
130 1 21.0116 9.25621 0.354061 21.0116 9.25621 0.354061
131 2 22.9224 9.25033 1.97381 22.9224 9.25033 1.97381
132 2 22.9039 9.26207 -1.28818 22.9039 9.26207 -1.28818
133 1 23.864 7.60944 0.331429 23.864 7.60944 0.331429
134 2 25.8057 7.59897 1.91398 25.8057 7.59897 1.91398
135 2 25.7244 7.61996 -1.34702 25.7244 7.61996 -1.34702
136 1 26.7157 9.25619 0.270253 26.7157 9.25619 0.270253
137 2 28.6815 9.24727 1.82264 28.6815 9.24727 1.82264
138 2 28.5499 9.26517 -1.43676 28.5499 9.26517 -1.43676
139 1 29.5656 7.60963 0.145405 29.5656 7.60963 0.145405
140 2 31.5486 7.5969 1.67568 31.5486 7.5969 1.67568
141 2 31.3803 7.6225 -1.58201 31.3803 7.6225 -1.58201
142 1 32.4142 9.25643 0.0106214 32.4142 9.25643 0.0106214
143 2 34.4035 9.24535 1.53284 34.4035 9.24535 1.53284
144 2 34.2217 9.26764 -1.72418 34.2217 9.26764 -1.72418
145 1 35.2616 7.61008 -0.160019 35.2616 7.61008 -0.160019
146 2 37.2471 7.59694 1.36727 37.2471 7.59694 1.36727
147 2 37.0733 7.62334 -1.89017 37.0733 7.62334 -1.89017
148 1 38.1099 9.2568 -0.298739 38.1099 9.2568 -0.298739
149 2 40.0821 9.24606 1.24589 40.0821 9.24606 1.24589
150 2 39.9364 9.2676 -2.013 39.9364 9.2676 -2.013
151 1 40.9588 7.61044 -0.43692 40.9588 7.61044 -0.43692
152 2 42.9086 7.59907 1.13607 42.9086 7.59907 1.13607
153 2 42.8098 7.62177 -2.12457 42.8098 7.62177 -2.12457
154 1 43.8097 9.25695 -0.511437 43.8097 9.25695 -0.511437
155 2 45.7329 9.24882 1.09417 45.7329 9.24882 1.09417
156 2 45.6886 9.26497 -2.16773 45.6886 9.26497 -2.16773
157 1 46.6613 7.61044 -0.557771 46.6613 7.61044 -0.557771
158 2 48.5531 7.60199 1.08484 48.5531 7.60199 1.08484
159 2 48.572 7.61873 -2.17729 48.572 7.61873 -2.17729
160 1 49.5133 9.25678 -0.532045 49.5133 9.25678 -0.532045
161 2 51.3764 9.25189 1.14316 51.3764 9.25189 1.14316
162 2 51.4517 9.26154 -2.11819 51.4517 9.26154 -2.11819
163 1 1.06493 10.9031 -0.460439 1.06493 10.9031 -0.460439
164 2 2.90319 10.9022 1.24196 2.90319 10.9022 1.24196
165 2 3.02642 10.904 -2.01794 3.02642 10.904 -2.01794
166 1 3.9148 12.5496 -0.350964 3.9148 12.5496 -0.350964
167 2 5.73511 12.5527 1.37054 5.73511 12.5527 1.37054
168 2 5.89251 12.5464 -1.88787 5.89251 12.5464 -1.88787
169 1 6.76316 10.903 -0.20948 6.76316 10.903 -0.20948
170 2 8.57417 10.9035 1.52171 8.57417 10.9035 1.52171
171 2 8.7492 10.9026 -1.73577 8.7492 10.9026 -1.73577
172 1 9.61105 12.5496 -0.056332 9.61105 12.5496 -0.056332
173 2 11.4246 12.5535 1.67203 11.4246 12.5535 1.67203
174 2 11.5949 12.5459 -1.58567 11.5949 12.5459 -1.58567
175 1 12.459 10.903 0.0967803 12.459 10.903 0.0967803
176 2 14.2861 10.9033 1.81078 14.2861 10.9033 1.81078
177 2 14.4311 10.9028 -1.44811 14.4311 10.9028 -1.44811
178 1 15.3085 12.5497 0.223387 15.3085 12.5497 0.223387
179 2 17.158 12.5529 1.91306 17.158 12.5529 1.91306
180 2 17.2602 12.5466 -1.34741 17.2602 12.5466 -1.34741
181 1 18.1594 10.903 0.315874 18.1594 10.903 0.315874
182 2 20.0381 10.9019 1.97287 20.0381 10.9019 1.97287
183 2 20.0835 10.9041 -1.28888 20.0835 10.9041 -1.28888
184 1 21.0116 12.5498 0.356291 21.0116 12.5498 0.356291
185 2 22.9211 12.5508 1.97773 22.9211 12.5508 1.97773
186 2 22.9054 12.5486 -1.2843 22.9054 12.5486 -1.2843
187 1 23.8641 10.9029 0.343237 23.8641 10.9029 0.343237
188 2 25.8042 10.8989 1.92771 25.8042 10.8989 1.92771
189 2 25.7261 10.9069 -1.33341 25.7261 10.9069 -1.33341
190 1 26.7158 12.5497 0.27827 26.7158 12.5497 0.27827
191 2 28.6798 12.5472 1.83301 28.6798 12.5472 1.83301
192 2 28.552 12.5521 -1.42657 28.552 12.5521 -1.42657
193 1 29.5659 10.903 0.163457 29.5659 10.903 0.163457
194 2 31.5477 10.8956 1.69538 31.5477 10.8956 1.69538
195 2 31.3821 10.9104 -1.5625 31.3821 10.9104 -1.5625
196 1 32.4146 12.5497 0.0254976 32.4146 12.5497 0.0254976
197 2 34.4029 12.5443 1.54906 34.4029 12.5443 1.54906
198 2 34.2233 12.5552 -1.70814 34.2233 12.5552 -1.70814
199 1 35.2622 10.9032 -0.137445 35.2622 10.9032 -0.137445
200 2 37.2478 10.8944 1.38973 37.2478 10.8944 1.38973
201 2 37.0737 10.9121 -1.86776 37.0737 10.9121 -1.86776
202 1 38.1104 12.5499 -0.280778 38.1104 12.5499 -0.280778
203 2 40.0833 12.5443 1.26297 40.0833 12.5443 1.26297
204 2 39.9361 12.5555 -1.99591 39.9361 12.5555 -1.99591
205 1 40.9592 10.9034 -0.415029 40.9592 10.9034 -0.415029
206 2 42.9106 10.8961 1.15602 42.9106 10.8961 1.15602
207 2 42.8085 10.9107 -2.10458 42.8085 10.9107 -2.10458
208 1 43.8099 12.5499 -0.496475 43.8099 12.5499 -0.496475
209 2 45.7351 12.5468 1.10671 45.7351 12.5468 1.10671
210 2 45.6867 12.5528 -2.15518 45.6867 12.5528 -2.15518
211 1 46.6614 10.9033 -0.541309 46.6614 10.9033 -0.541309
212 2 48.5555 10.8993 1.09876 48.5555 10.8993 1.09876
213 2 48.5699 10.9072 -2.16345 48.5699 10.9072 -2.16345
214 1 49.5134 12.5497 -0.523895 49.5134 12.5497 -0.523895
215 2 51.3786 12.5502 1.14887 51.3786 12.5502 1.14887
216 2 51.4496 12.5491 -2.11261 51.4496 12.5491 -2.11261
217 1 1.06506 14.1961 -0.46152 1.06506 14.1961 -0.46152
218 2 2.90516 14.2011 1.23886 2.90516 14.2011 1.23886
219 2 3.02482 14.191 -2.02116 3.02482 14.191 -2.02116
220 1 3.91506 15.8426 -0.361195 3.91506 15.8426 -0.361195
221 2 5.73662 15.8517 1.35896 5.73662 15.8517 1.35896
222 2 5.89163 15.8335 -1.89952 5.89163 15.8335 -1.89952
223 1 6.76342 14.1961 -0.215739 6.76342 14.1961 -0.215739
224 2 8.57507 14.2029 1.51476 8.57507 14.2029 1.51476
225 2 8.74887 14.1894 -1.74276 8.74887 14.1894 -1.74276
226 1 9.61142 15.8428 -0.0700512 9.61142 15.8428 -0.0700512
227 2 11.4251 15.8528 1.65815 11.4251 15.8528 1.65815
228 2 11.5952 15.8329 -1.59951 11.5952 15.8329 -1.59951
229 1 12.4593 14.1963 0.0890767 12.4593 14.1963 0.0890767
230 2 14.2861 14.2033 1.80336 14.2861 14.2033 1.80336
231 2 14.4316 14.1895 -1.45549 14.4316 14.1895 -1.45549
232 1 15.3088 15.8431 0.209415 15.3088 15.8431 0.209415
233 2 17.1575 15.8527 1.8998 17.1575 15.8527 1.8998
234 2 17.261 15.8337 -1.36061 17.261 15.8337 -1.36061
235 1 18.1595 14.1965 0.309394 18.1595 14.1965 0.309394
236 2 20.0372 14.2022 1.96756 20.0372 14.2022 1.96756
237 2 20.0846 14.1908 -1.29414 20.0846 14.1908 -1.29414
238 1 21.0117 15.8433 0.344697 21.0117 15.8433 0.344697
239 2 22.9195 15.8508 1.96794 22.9195 15.8508 1.96794
240 2 22.907 15.8357 -1.29408 22.907 15.8357 -1.29408
241 1 23.8641 14.1965 0.340915 23.8641 14.1965 0.340915
242 2 25.8024 14.1993 1.9277 25.8024 14.1993 1.9277
243 2 25.7281 14.1936 -1.33352 25.7281 14.1936 -1.33352
244 1 26.7158 15.8432 0.272418 26.7158 15.8432 0.272418
245 2 28.6777 15.8474 1.82986 28.6777 15.8474 1.82986
246 2 28.5543 15.8389 -1.4299 28.5543 15.8389 -1.4299
247 1 29.5661 14.1964 0.168251 29.5661 14.1964 0.168251
248 2 31.5461 14.1956 1.70257 31.5461 14.1956 1.70257
249 2 31.3843 14.1972 -1.55554 31.3843 14.1972 -1.55554
250 1 32.4149 15.843 0.0270737 32.4149 15.843 0.0270737
251 2 34.4018 15.8443 1.55247 34.4018 15.8443 1.55247
252 2 34.2251 15.8418 -1.70491 34.2251 15.8418 -1.70491
253 1 35.2626 14.1964 -0.126478 35.2626 14.1964 -0.126478
254 2 37.2478 14.1937 1.40124 37.2478 14.1937 1.40124
255 2 37.0746 14.1991 -1.85635 37.0746 14.1991 -1.85635
256 1 38.1107 15.8429 -0.275311 38.1107 15.8429 -0.275311
257 2 40.084 15.8439 1.26797 40.084 15.8439 1.26797
258 2 39.936 15.842 -1.9909 39.936 15.842 -1.9909
259 1 40.9596 14.1964 -0.403609 40.9596 14.1964 -0.403609
260 2 42.9123 14.195 1.16579 42.9123 14.195 1.16579
261 2 42.8074 14.1978 -2.09476 42.8074 14.1978 -2.09476
262 1 43.8101 15.8428 -0.493481 43.8101 15.8428 -0.493481
263 2 45.7371 15.846 1.10758 45.7371 15.846 1.10758
264 2 45.6851 15.8395 -2.15425 45.6851 15.8395 -2.15425
265 1 46.6616 14.1963 -0.535103 46.6616 14.1963 -0.535103
266 2 48.5578 14.198 1.10238 48.5578 14.198 1.10238
267 2 48.5678 14.1944 -2.15986 48.5678 14.1944 -2.15986
268 1 49.5135 15.8426 -0.527451 49.5135 15.8426 -0.527451
269 2 51.3808 15.8491 1.14295 51.3808 15.8491 1.14295
270 2 51.4477 15.836 -2.11859 51.4477 15.836 -2.11859
271 1 1.06527 17.4891 -0.474743 1.06527 17.4891 -0.474743
272 2 2.907 17.4998 1.22385 2.907 17.4998 1.22385
273 2 3.02355 17.4783 -2.03623 3.02355 17.4783 -2.03623
274 1 3.91542 19.1356 -0.382888 3.91542 19.1356 -0.382888
275 2 5.73793 19.1495 1.33623 5.73793 19.1495 1.33623
276 2 5.89117 19.1217 -1.92226 5.89117 19.1217 -1.92226
277 1 6.76382 17.4892 -0.234119 6.76382 17.4892 -0.234119
278 2 8.57604 17.5016 1.49575 8.57604 17.5016 1.49575
279 2 8.74876 17.4769 -1.76177 8.74876 17.4769 -1.76177
280 1 9.61191 19.136 -0.0950045 9.61191 19.136 -0.0950045
281 2 11.4255 19.1506 1.6332 11.4255 19.1506 1.6332
282 2 11.5957 19.1214 -1.62439 11.5957 19.1214 -1.62439
283 1 12.4597 17.4896 0.068901 12.4597 17.4896 0.068901
284 2 14.2861 17.5021 1.78352 14.2861 17.5021 1.78352
285 2 14.4322 17.4772 -1.47525 14.4322 17.4772 -1.47525
286 1 15.3091 19.1364 0.184144 15.3091 19.1364 0.184144
287 2 17.157 19.1506 1.87536 17.157 19.1506 1.87536
288 2 17.2621 19.1223 -1.38495 17.2621 19.1223 -1.38495
289 1 18.1597 17.4899 0.290137 18.1597 17.4899 0.290137
290 2 20.0362 17.5013 1.94955 20.0362 17.5013 1.94955
291 2 20.0858 17.4786 -1.31209 20.0858 17.4786 -1.31209
292 1 21.0118 19.1367 0.321591 21.0118 19.1367 0.321591
293 2 22.918 19.1492 1.94661 22.918 19.1492 1.94661
294 2 22.9085 19.1242 -1.31539 22.9085 19.1242 -1.31539
295 1 23.8641 17.49 0.325472 23.8641 17.49 0.325472
296 2 25.8003 17.4988 1.91462 25.8003 17.4988 1.91462
297 2 25.7301 17.4811 -1.34667 25.7301 17.4811 -1.34667
298 1 26.7157 19.1366 0.254373 26.7157 19.1366 0.254373
299 2 28.6755 19.1464 1.81434 28.6755 19.1464 1.81434
300 2 28.5563 19.1267 -1.44555 28.5563 19.1267 -1.44555
301 1 29.5661 17.4898 0.15959 29.5661 17.4898 0.15959
302 2 31.5441 17.4954 1.69644 31.5441 17.4954 1.69644
303 2 31.3865 17.4841 -1.56187 31.3865 17.4841 -1.56187
304 1 32.4149 19.1363 0.0154737 32.4149 19.1363 0.0154737
305 2 34.4003 19.1439 1.54267 34.4003 19.1439 1.54267
306 2 34.2266 19.1287 -1.71484 34.2266 19.1287 -1.71484
307 1 35.2628 17.4896 -0.129058 35.2628 17.4896 -0.129058
308 2 37.2473 17.4937 1.39949 37.2473 17.4937 1.39949
309 2 37.0755 17.4855 -1.85817 37.0755 17.4855 -1.85817
310 1 38.1109 19.1361 -0.283535 38.1109 19.1361 -0.283535
311 2 40.0842 19.1434 1.25962 40.0842 19.1434 1.25962
312 2 39.9361 19.1287 -1.99921 39.9361 19.1287 -1.99921
313 1 40.9598 17.4894 -0.405472 40.9598 17.4894 -0.405472
314 2 42.9135 17.4945 1.16269 42.9135 17.4945 1.16269
315 2 42.8065 17.4843 -2.09778 42.8065 17.4843 -2.09778
316 1 43.8102 19.1358 -0.503774 43.8102 19.1358 -0.503774
317 2 45.7384 19.145 1.09574 45.7384 19.145 1.09574
318 2 45.6839 19.1266 -2.16599 45.6839 19.1266 -2.16599
319 1 46.6617 17.4892 -0.541596 46.6617 17.4892 -0.541596
320 2 48.5598 17.497 1.09372 48.5598 17.497 1.09372
321 2 48.5661 17.4813 -2.16848 48.5661 17.4813 -2.16848
322 1 49.5136 19.1356 -0.543323 49.5136 19.1356 -0.543323
323 2 51.3826 19.1474 1.12526 51.3826 19.1474 1.12526
324 2 51.4464 19.1237 -2.13626 51.4464 19.1237 -2.13626
325 1 1.06553 20.782 -0.498696 1.06553 20.782 -0.498696
326 2 2.90834 20.7967 1.19871 2.90834 20.7967 1.19871
327 2 3.0229 20.7673 -2.06136 3.0229 20.7673 -2.06136
328 1 3.91583 22.4286 -0.412664 3.91583 22.4286 -0.412664
329 2 5.7388 22.4449 1.30595 5.7388 22.4449 1.30595
330 2 5.89125 22.4124 -1.95251 5.89125 22.4124 -1.95251
331 1 6.76432 20.7823 -0.26227 6.76432 20.7823 -0.26227
332 2 8.57678 20.7982 1.46729 8.57678 20.7982 1.46729
333 2 8.74905 20.7664 -1.79019 8.74905 20.7664 -1.79019
334 1 9.61246 22.4291 -0.127229 9.61246 22.4291 -0.127229
335 2 11.4257 22.4458 1.60128 11.4257 22.4458 1.60128
336 2 11.5965 22.4124 -1.65625 11.5965 22.4124 -1.65625
337 1 12.4602 20.7828 0.0392581 12.4602 20.7828 0.0392581
338 2 14.286 20.7987 1.75443 14.286 20.7987 1.75443
339 2 14.4332 20.7669 -1.50425 14.4332 20.7669 -1.50425
340 1 15.3095 22.4296 0.151902 15.3095 22.4296 0.151902
341 2 17.1565 22.4459 1.84407 17.1565 22.4459 1.84407
342 2 17.2632 22.4134 -1.41618 17.2632 22.4134 -1.41618
343 1 18.16 20.7832 0.26147 18.16 20.7832 0.26147
344 2 20.0352 20.7982 1.92216 20.0352 20.7982 1.92216
345 2 20.0871 20.7683 -1.33942 20.0871 20.7683 -1.33942
346 1 21.0119 22.4299 0.291265 21.0119 22.4299 0.291265
347 2 22.9167 22.445 1.91783 22.9167 22.445 1.91783
348 2 22.9099 22.4148 -1.34417 22.9099 22.4148 -1.34417
349 1 23.864 20.7833 0.300067 23.864 20.7833 0.300067
350 2 25.7985 20.7964 1.89131 25.7985 20.7964 1.89131
351 2 25.7317 20.7702 -1.37003 25.7317 20.7702 -1.37003
352 1 26.7156 22.4299 0.227796 26.7156 22.4299 0.227796
353 2 28.6737 22.4434 1.78971 28.6737 22.4434 1.78971
354 2 28.5578 22.4163 -1.47027 28.5578 22.4163 -1.47027
355 1 29.5659 20.7831 0.13956 29.5659 20.7831 0.13956
356 2 31.5422 20.794 1.67855 31.5422 20.794 1.67855
357 2 31.3882 20.7721 -1.57989 31.3882 20.7721 -1.57989
358 1 32.4147 22.4296 -0.00675778 32.4147 22.4296 -0.00675778
359 2 34.399 22.4418 1.52185 34.399 22.4418 1.52185
360 2 34.2277 22.4173 -1.73573 34.2277 22.4173 -1.73573
361 1 35.2628 20.7828 -0.144472 35.2628 20.7828 -0.144472
362 2 37.2466 20.7926 1.38495 37.2466 20.7926 1.38495
363 2 37.0763 20.7729 -1.87274 37.0763 20.7729 -1.87274
364 1 38.1108 22.4292 -0.303566 38.1108 22.4292 -0.303566
365 2 40.0839 22.4412 1.23978 40.0839 22.4412 1.23978
366 2 39.9362 22.4171 -2.01899 39.9362 22.4171 -2.01899
367 1 40.9598 20.7825 -0.42038 40.9598 20.7825 -0.42038
368 2 42.914 20.793 1.14709 42.914 20.793 1.14709
369 2 42.806 20.7718 -2.11328 42.806 20.7718 -2.11328
370 1 43.8102 22.4288 -0.525237 43.8102 22.4288 -0.525237
371 2 45.7391 22.4419 1.07346 45.7391 22.4419 1.07346
372 2 45.6833 22.4156 -2.18817 45.6833 22.4156 -2.18817
373 1 46.6618 20.7822 -0.560185 46.6618 20.7822 -0.560185
374 2 48.561 20.7947 1.07369 48.561 20.7947 1.07369
375 2 48.565 20.7695 -2.18843 48.565 20.7695 -2.18843
376 1 49.5137 22.4286 -0.568843 49.5137 22.4286 -0.568843
377 2 51.3836 22.4434 1.09872 51.3836 22.4434 1.09872
378 2 51.4458 22.4137 -2.16275 51.4458 22.4137 -2.16275
379 1 1.06579 24.0751 -0.528795 1.06579 24.0751 -0.528795
380 2 2.90905 24.0908 1.16814 2.90905 24.0908 1.16814
381 2 3.02288 24.0594 -2.09191 3.02288 24.0594 -2.09191
382 1 3.9162 25.7217 -0.444485 3.9162 25.7217 -0.444485
383 2 5.7392 25.737 1.27412 5.7392 25.737 1.27412
384 2 5.89169 25.7066 -1.98434 5.89169 25.7066 -1.98434
385 1 6.76483 24.0754 -0.295153 6.76483 24.0754 -0.295153
386 2 8.5772 24.0918 1.43449 8.5772 24.0918 1.43449
387 2 8.74967 24.059 -1.82297 8.74967 24.059 -1.82297
388 1 9.61296 25.7222 -0.160524 9.61296 25.7222 -0.160524
389 2 11.4258 25.7377 1.56843 11.4258 25.7377 1.56843
390 2 11.5974 25.7067 -1.68909 11.5974 25.7067 -1.68909
391 1 12.4607 24.0759 0.00543511 12.4607 24.0759 0.00543511
392 2 14.2858 24.0923 1.72131 14.2858 24.0923 1.72131
393 2 14.4342 24.0596 -1.53732 14.4342 24.0596 -1.53732
394 1 15.3099 25.7227 0.118672 15.3099 25.7227 0.118672
395 2 17.156 25.7381 1.81164 17.156 25.7381 1.81164
396 2 17.2642 25.7073 -1.44862 17.2642 25.7073 -1.44862
397 1 18.1602 24.0764 0.22859 18.1602 24.0764 0.22859
398 2 20.0344 24.0922 1.89039 20.0344 24.0922 1.89039
399 2 20.0882 24.0606 -1.37118 20.0882 24.0606 -1.37118
400 1 21.0119 25.723 0.259175 21.0119 25.723 0.259175
401 2 22.9158 25.7382 1.88673 22.9158 25.7382 1.88673
402 2 22.9107 25.7079 -1.37531 22.9107 25.7079 -1.37531
403 1 23.864 24.0765 0.269446 23.864 24.0765 0.269446
404 2 25.7971 24.0915 1.86217 25.7971 24.0915 1.86217
405 2 25.7329 24.0616 -1.39923 25.7329 24.0616 -1.39923
406 1 26.7154 25.723 0.197471 26.7154 25.723 0.197471
407 2 28.6726 25.7379 1.76044 28.6726 25.7379 1.76044
408 2 28.5585 25.7081 -1.49962 28.5585 25.7081 -1.49962
409 1 29.5657 24.0763 0.112112 29.5657 24.0763 0.112112
410 2 31.5408 24.0904 1.65252 31.5408 24.0904 1.65252
411 2 31.3891 24.0622 -1.60601 31.3891 24.0622 -1.60601
412 1 32.4144 25.7227 -0.0353171 32.4144 25.7227 -0.0353171
413 2 34.3979 25.7373 1.49419 34.3979 25.7373 1.49419
414 2 34.2282 25.7081 -1.76344 34.2282 25.7081 -1.76344
415 1 35.2626 24.0759 -0.169392 35.2626 24.0759 -0.169392
416 2 37.2457 24.0894 1.36084 37.2457 24.0894 1.36084
417 2 37.0768 24.0624 -1.89687 37.0768 24.0624 -1.89687
418 1 38.1105 25.7222 -0.331003 38.1105 25.7222 -0.331003
419 2 40.0831 25.7364 1.21291 40.0831 25.7364 1.21291
420 2 39.9365 25.7081 -2.04586 39.9365 25.7081 -2.04586
421 1 40.9597 24.0755 -0.444875 40.9597 24.0755 -0.444875
422 2 42.9139 24.0891 1.12252 42.9139 24.0891 1.12252
423 2 42.8059 24.0618 -2.13777 42.8059 24.0618 -2.13777
424 1 43.81 25.7218 -0.552878 43.81 25.7218 -0.552878
425 2 45.7389 25.7359 1.0458 45.7389 25.7359 1.0458
426 2 45.6833 25.7077 -2.21577 45.6833 25.7077 -2.21577
427 1 46.6618 24.0752 -0.586839 46.6618 24.0752 -0.586839
428 2 48.5616 24.0897 1.04643 48.5616 24.0897 1.04643
429 2 48.5646 24.0605 -2.21563 48.5646 24.0605 -2.21563
430 1 49.5138 25.7216 -0.598379 49.5138 25.7216 -0.598379
431 2 51.3839 25.7362 1.06896 51.3839 25.7362 1.06896
432 2 51.4459 25.707 -2.19248 51.4459 25.707 -2.19248
433 1 1.06599 27.3683 -0.558396 1.06599 27.3683 -0.558396
434 2 2.90917 27.3816 1.13867 2.90917 27.3816 1.13867
435 2 3.02328 27.3549 -2.12137 3.02328 27.3549 -2.12137
436 1 3.91642 29.015 -0.471474 3.91642 29.015 -0.471474
437 2 5.73921 29.0261 1.24741 5.73921 29.0261 1.24741
438 2 5.89219 29.0039 -2.01109 5.89219 29.0039 -2.01109
439 1 6.76521 27.3685 -0.325956 6.76521 27.3685 -0.325956
440 2 8.57737 27.3822 1.40393 8.57737 27.3822 1.40393
441 2 8.75029 27.3549 -1.85355 8.75029 27.3549 -1.85355
442 1 9.61327 29.0153 -0.188142 9.61327 29.0153 -0.188142
443 2 11.4259 29.0268 1.54106 11.4259 29.0268 1.54106
444 2 11.5978 29.0039 -1.71653 11.5978 29.0039 -1.71653
445 1 12.4611 27.369 -0.0259944 12.4611 27.369 -0.0259944
446 2 14.2856 27.3829 1.69039 14.2856 27.3829 1.69039
447 2 14.435 27.3551 -1.56827 14.435 27.3551 -1.56827
448 1 15.3101 29.0157 0.0905163 15.3101 29.0157 0.0905163
449 2 17.156 29.0279 1.78374 17.156 29.0279 1.78374
450 2 17.2645 29.0037 -1.47658 17.2645 29.0037 -1.47658
451 1 18.1604 27.3694 0.197393 18.1604 27.3694 0.197393
452 2 20.0339 27.3836 1.85978 20.0339 27.3836 1.85978
453 2 20.0888 27.3553 -1.40184 20.0888 27.3553 -1.40184
454 1 21.0119 29.016 0.230547 21.0119 29.016 0.230547
455 2 22.9156 29.0291 1.85823 22.9156 29.0291 1.85823
456 2 22.9107 29.0031 -1.40388 22.9107 29.0031 -1.40388
457 1 23.8639 27.3696 0.238774 23.8639 27.3696 0.238774
458 2 25.7964 27.3842 1.83206 25.7964 27.3842 1.83206
459 2 25.7332 27.3551 -1.4294 25.7332 27.3551 -1.4294
460 1 26.7151 29.0161 0.16805 26.7151 29.0161 0.16805
461 2 28.6722 29.0302 1.73109 28.6722 29.0302 1.73109
462 2 28.5582 29.002 -1.52901 28.5582 29.002 -1.52901
463 1 29.5654 27.3695 0.0819459 29.5654 27.3695 0.0819459
464 2 31.5399 27.3843 1.62293 31.5399 27.3843 1.62293
465 2 31.3893 27.3546 -1.63565 31.3893 27.3546 -1.63565
466 1 32.414 29.0158 -0.0654533 32.414 29.0158 -0.0654533
467 2 34.3971 29.0303 1.46453 34.3971 29.0303 1.46453
468 2 34.2282 29.0013 -1.79316 34.2282 29.0013 -1.79316
469 1 35.2622 27.369 -0.198984 35.2622 27.369 -0.198984
470 2 37.2447 27.3836 1.33201 37.2447 27.3836 1.33201
471 2 37.0771 27.3544 -1.92574 37.0771 27.3544 -1.92574
472 1 38.1101 29.0154 -0.360542 38.1101 29.0154 -0.360542
473 2 40.082 29.0289 1.18437 40.082 29.0289 1.18437
474 2 39.9371 29.0018 -2.07446 39.9371 29.0018 -2.07446
475 1 40.9594 27.3686 -0.473574 40.9594 27.3686 -0.473574
476 2 42.9131 27.3823 1.09446 42.9131 27.3823 1.09446
477 2 42.8063 27.3548 -2.16584 42.8063 27.3548 -2.16584
478 1 43.8099 29.015 -0.580756 43.8099 29.015 -0.580756
479 2 45.7381 29.0271 1.01878 45.7381 29.0271 1.01878
480 2 45.6839 29.0028 -2.24282 45.6839 29.0028 -2.24282
481 1 46.6617 27.3683 -0.615445 46.6617 27.3683 -0.615445
482 2 48.5614 27.3816 1.01806 48.5614 27.3816 1.01806
483 2 48.5649 27.355 -2.24398 48.5649 27.355 -2.24398
484 1 49.5139 29.0149 -0.625325 49.5139 29.0149 -0.625325
485 2 51.3836 29.0261 1.04253 51.3836 29.0261 1.04253
486 2 51.4464 29.0036 -2.21892 51.4464 29.0036 -2.21892
487 1 1.06607 30.6616 -0.581174 1.06607 30.6616 -0.581174
488 2 2.90876 30.6699 1.11648 2.90876 30.6699 1.11648
489 2 3.02391 30.6533 -2.14357 3.02391 30.6533 -2.14357
490 1 3.91645 32.3084 -0.488294 3.91645 32.3084 -0.488294
491 2 5.7389 32.3133 1.23098 5.7389 32.3133 1.23098
492 2 5.89258 32.3034 -2.02752 5.89258 32.3034 -2.02752
493 1 6.76538 30.6618 -0.348363 6.76538 30.6618 -0.348363
494 2 8.57741 30.6701 1.38168 8.57741 30.6701 1.38168
495 2 8.75059 30.6535 -1.87585 8.75059 30.6535 -1.87585
496 1 9.61333 32.3085 -0.204954 9.61333 32.3085 -0.204954
497 2 11.4261 32.3141 1.52405 11.4261 32.3141 1.52405
498 2 11.5977 32.303 -1.73362 11.5977 32.303 -1.73362
499 1 12.4613 30.6621 -0.0491734 12.4613 30.6621 -0.0491734
500 2 14.2858 30.6712 1.66718 14.2858 30.6712 1.66718
501 2 14.4351 30.653 -1.59158 14.4351 30.653 -1.59158
502 1 15.3102 32.3088 0.0720549 15.3102 32.3088 0.0720549
503 2 17.1565 32.3158 1.76478 17.1565 32.3158 1.76478
504 2 17.2641 32.3018 -1.49565 17.2641 32.3018 -1.49565
505 1 18.1604 30.6624 0.172937 18.1604 30.6624 0.172937
506 2 20.0342 30.6729 1.83511 20.0342 30.6729 1.83511
507 2 20.0886 30.652 -1.42661 20.0886 30.652 -1.42661
508 1 21.0119 32.309 0.209459 21.0119 32.309 0.209459
509 2 22.9162 32.3182 1.83632 22.9162 32.3182 1.83632
510 2 22.9099 32.2999 -1.42587 22.9099 32.2999 -1.42587
511 1 23.8637 30.6626 0.212456 23.8637 30.6626 0.212456
512 2 25.7966 30.6748 1.80531 25.7966 30.6748 1.80531
513 2 25.7326 30.6505 -1.4562 25.7326 30.6505 -1.4562
514 1 26.7149 32.3091 0.143437 26.7149 32.3091 0.143437
515 2 28.6725 32.3206 1.70569 28.6725 32.3206 1.70569
516 2 28.5572 32.2977 -1.55443 28.5572 32.2977 -1.55443
517 1 29.565 30.6625 0.0534032 29.565 30.6625 0.0534032
518 2 31.5396 30.676 1.59427 31.5396 30.676 1.59427
519 2 31.3888 30.649 -1.66434 31.3888 30.649 -1.66434
520 1 32.4135 32.3089 -0.0928367 32.4135 32.3089 -0.0928367
521 2 34.3965 32.3212 1.43735 34.3965 32.3212 1.43735
522 2 34.2278 32.2966 -1.82039 34.2278 32.2966 -1.82039
523 1 35.2617 30.6622 -0.228353 35.2617 30.6622 -0.228353
524 2 37.2436 30.6753 1.30347 37.2436 30.6753 1.30347
525 2 37.0774 30.6489 -1.95436 37.0774 30.6489 -1.95436
526 1 38.1097 32.3085 -0.387386 38.1097 32.3085 -0.387386
527 2 40.0804 32.3194 1.15897 40.0804 32.3194 1.15897
528 2 39.9379 32.2976 -2.1 39.9379 32.2976 -2.1
529 1 40.9591 30.6617 -0.501075 40.9591 30.6617 -0.501075
530 2 42.9118 30.6731 1.06833 42.9118 30.6731 1.06833
531 2 42.8072 30.6503 -2.19205 42.8072 30.6503 -2.19205
532 1 43.8097 32.3083 -0.603904 43.8097 32.3083 -0.603904
533 2 45.7365 32.3164 0.997353 45.7365 32.3164 0.997353
534 2 45.6853 32.3001 -2.26432 45.6853 32.3001 -2.26432
535 1 46.6616 30.6615 -0.640087 46.6616 30.6615 -0.640087
536 2 48.5604 30.671 0.994511 48.5604 30.671 0.994511
537 2 48.5658 30.6521 -2.26755 48.5658 30.6521 -2.26755
538 1 49.5139 32.3082 -0.644428 49.5139 32.3082 -0.644428
539 2 51.3826 32.3141 1.0246 51.3826 32.3141 1.0246