ITEM: TIMESTEP
4000
ITEM: NUMBER OF ATOMS
810
ITEM: BOX BOUNDS pp pp pp
8.6961727959049262e-01 5.2147987720409631e+01
8.5268668038281081e-01 5.0163528319616411e+01
-1.0000000000000000e+01 1.0000000000000000e+01
ITEM: ATOMS id type x y z xu yu zu
1 1 1.07605 1.07304 0.209616 1.07605 1.07304 0.209616
2 2 3.01323 0.961025 1.79278 3.01323 0.961025 1.79278
3 2 2.93909 1.1787 -1.46145 2.93909 1.1787 -1.46145
4 1 3.92705 2.71253 0.254844 3.92705 2.71253 0.254844
5 2 5.8576 2.61452 1.84859 5.8576 2.61452 1.84859
6 2 5.79791 2.79893 -1.408 5.79791 2.79893 -1.408
7 1 6.77661 1.06193 0.110126 6.77661 1.06193 0.110126
8 2 8.69301 0.949656 1.72 8.69301 0.949656 1.72
9 2 8.66174 1.16106 -1.5353 8.66174 1.16106 -1.5353
10 1 9.62996 2.69652 0.190255 9.62996 2.69652 0.190255
11 2 11.5682 2.58896 1.77421 11.5682 2.58896 1.77421
12 2 11.4931 2.79455 -1.48057 11.4931 2.79455 -1.48057
13 1 12.48 1.04777 0.0215138 12.48 1.04777 0.0215138
14 2 14.4733 50.2147 1.53184 14.4733 0.903881 1.53184
15 2 14.2839 1.19206 -1.71204 14.2839 1.19206 -1.71204
16 1 15.3318 2.68982 8.27247e-05 15.3318 2.68982 8.27247e-05
17 2 17.3557 2.55462 1.46981 17.3557 2.55462 1.46981
18 2 17.0998 2.83263 -1.77054 17.0998 2.83263 -1.77054
19 1 18.1719 1.05775 -0.366512 18.1719 1.05775 -0.366512
20 2 20.1928 50.2301 1.10638 20.1928 0.919266 1.10638
21 2 19.9422 1.20999 -2.13324 19.9422 1.20999 -2.13324
22 1 21.0201 2.70743 -0.438804 21.0201 2.70743 -0.438804
23 2 23.0052 2.58298 1.08402 23.0052 2.58298 1.08402
24 2 22.8319 2.84476 -2.16326 22.8319 2.84476 -2.16326
25 1 23.8673 1.07709 -0.723414 23.8673 1.07709 -0.723414
26 2 25.7798 0.965142 0.89284 25.7798 0.965142 0.89284
27 2 25.7595 1.19557 -2.36102 25.7595 1.19557 -2.36102
28 1 26.7227 2.72292 -0.622936 26.7227 2.72292 -0.622936
29 2 28.5769 2.60078 1.05926 28.5769 2.60078 1.05926
30 2 28.6709 2.85003 -2.19205 28.6709 2.85003 -2.19205
31 1 29.574 1.08348 -0.664458 29.574 1.08348 -0.664458
32 2 31.39 0.949405 1.05732 31.39 0.949405 1.05732
33 2 31.5567 1.22174 -2.18904 31.5567 1.22174 -2.18904
34 1 32.4229 2.72478 -0.379664 32.4229 2.72478 -0.379664
35 2 34.2069 2.56195 1.37249 34.2069 2.56195 1.37249
36 2 34.4328 2.88964 -1.86518 34.4328 2.88964 -1.86518
37 1 35.2701 1.08399 -0.346048 35.2701 1.08399 -0.346048
38 2 37.0557 0.912418 1.40286 37.0557 0.912418 1.40286
39 2 37.2783 1.25761 -1.83317 37.2783 1.25761 -1.83317
40 1 38.1123 2.72025 0.0251946 38.1123 2.72025 0.0251946
41 2 39.9037 2.5496 1.76812 39.9037 2.5496 1.76812
42 2 40.1153 2.89177 -1.46889 40.1153 2.89177 -1.46889
43 1 40.9593 1.07889 0.0372902 40.9593 1.07889 0.0372902
44 2 42.7663 0.913206 1.76385 42.7663 0.913206 1.76385
45 2 42.9481 1.24315 -1.47643 42.9481 1.24315 -1.47643
46 1 43.8048 2.71428 0.364409 43.8048 2.71428 0.364409
47 2 45.6627 2.55803 2.03722 45.6627 2.55803 2.03722
48 2 45.7484 2.87158 -1.20841 45.7484 2.87158 -1.20841
49 1 46.6547 1.07291 0.279841 46.6547 1.07291 0.279841
50 2 48.5545 0.927318 1.90455 48.5545 0.927318 1.90455
51 2 48.5566 1.21913 -1.34459 48.5566 1.21913 -1.34459
52 1 49.5062 2.71357 0.428288 49.5062 2.71357 0.428288
53 2 51.4532 2.58075 1.99765 51.4532 2.58075 1.99765
54 2 51.36 2.84766 -1.25218 51.36 2.84766 -1.25218
55 1 1.07921 4.35675 0.480985 1.07921 4.35675 0.480985
56 2 3.04446 4.24655 2.02981 3.04446 4.24655 2.02981
57 2 2.91325 4.46401 -1.22244 2.91325 4.46401 -1.22244
58 1 3.93003 5.99887 0.476494 3.93003 5.99887 0.476494
59 2 5.89067 5.92167 2.03441 5.89067 5.92167 2.03441
60 2 5.7695 6.06691 -1.2224 5.7695 6.06691 -1.2224
61 1 6.77924 4.34925 0.297155 6.77924 4.34925 0.297155
62 2 8.70222 4.27305 1.90206 8.70222 4.27305 1.90206
63 2 8.65824 4.4121 -1.35702 8.65824 4.4121 -1.35702
64 1 9.63191 5.98585 0.331096 9.63191 5.98585 0.331096
65 2 11.5682 5.93982 1.92076 11.5682 5.93982 1.92076
66 2 11.4968 6.02245 -1.33966 11.4968 6.02245 -1.33966
67 1 12.4834 4.33437 0.228911 12.4834 4.33437 0.228911
68 2 14.4606 4.24077 1.76479 14.4606 4.24077 1.76479
69 2 14.3053 4.42476 -1.48843 14.3053 4.42476 -1.48843
70 1 15.3341 5.97786 0.185735 15.3341 5.97786 0.185735
71 2 17.3405 5.90108 1.68359 17.3405 5.90108 1.68359
72 2 17.1221 6.05689 -1.56779 17.1221 6.05689 -1.56779
73 1 18.1793 4.33724 -0.0843973 18.1793 4.33724 -0.0843973
74 2 20.2036 4.21792 1.3855 20.2036 4.21792 1.3855
75 2 19.9449 4.46852 -1.85718 19.9449 4.46852 -1.85718
76 1 21.0249 5.98758 -0.184459 21.0249 5.98758 -0.184459
77 2 23.013 5.88146 1.33487 23.013 5.88146 1.33487
78 2 22.8312 6.10638 -1.9152 22.8312 6.10638 -1.9152
79 1 23.8711 4.35681 -0.457148 23.8711 4.35681 -0.457148
80 2 25.7965 4.23886 1.14201 25.7965 4.23886 1.14201
81 2 25.7476 4.48485 -2.11088 25.7476 4.48485 -2.11088
82 1 26.7242 6.00402 -0.373842 26.7242 6.00402 -0.373842
83 2 28.5749 5.88002 1.31151 28.5749 5.88002 1.31151
84 2 28.674 6.13376 -1.93968 28.674 6.13376 -1.93968
85 1 29.5752 4.36603 -0.412701 29.5752 4.36603 -0.412701
86 2 31.3729 4.22365 1.32791 31.3729 4.22365 1.32791
87 2 31.5733 4.51056 -1.91552 31.5733 4.51056 -1.91552
88 1 32.4206 6.00481 -0.0898313 32.4206 6.00481 -0.0898313
89 2 34.1869 5.85441 1.68132 34.1869 5.85441 1.68132
90 2 34.4448 6.15521 -1.55663 34.4448 6.15521 -1.55663
91 1 35.2657 4.36171 -0.0143137 35.2657 4.36171 -0.0143137
92 2 37.0437 4.19592 1.74308 37.0437 4.19592 1.74308
93 2 37.2804 4.52883 -1.49314 37.2804 4.52883 -1.49314
94 1 38.1072 5.99851 0.36335 38.1072 5.99851 0.36335
95 2 39.91 5.85625 2.09763 39.91 5.85625 2.09763
96 2 40.1019 6.14477 -1.14551 40.1019 6.14477 -1.14551
97 1 40.9557 4.35646 0.385577 40.9557 4.35646 0.385577
98 2 42.7796 4.20561 2.09662 42.7796 4.20561 2.09662
99 2 42.9312 4.50968 -1.14728 42.9312 4.50968 -1.14728
100 1 43.8044 5.99687 0.673374 43.8044 5.99687 0.673374
101 2 45.6723 5.86516 2.33835 45.6723 5.86516 2.33835
102 2 45.7407 6.13175 -0.911341 45.7407 6.13175 -0.911341
103 1 46.6558 4.35382 0.598271 46.6558 4.35382 0.598271
104 2 48.5711 4.21189 2.2065 48.5711 4.21189 2.2065
105 2 48.5444 4.49881 -1.04241 48.5444 4.49881 -1.04241
106 1 49.5095 5.9975 0.719382 49.5095 5.9975 0.719382
107 2 51.4727 5.87302 2.27026 51.4727 5.87302 2.27026
108 2 51.348 6.12456 -0.979293 51.348 6.12456 -0.979293
109 1 1.08404 7.64299 0.736747 1.08404 7.64299 0.736747
110 2 3.07602 7.54816 2.25268 3.07602 7.54816 2.25268
111 2 2.88989 7.73678 -0.998396 2.88989 7.73678 -0.998396
112 1 3.93487 9.2876 0.669518 3.93487 9.2876 0.669518
113 2 5.93577 9.24216 2.17661 5.93577 9.24216 2.17661
114 2 5.72995 9.32635 -1.07799 5.72995 9.32635 -1.07799
115 1 6.7813 7.6383 0.445854 6.7813 7.6383 0.445854
116 2 8.73425 7.60853 2.01585 8.73425 7.60853 2.01585
117 2 8.62915 7.6566 -1.24452 8.62915 7.6566 -1.24452
118 1 9.63188 9.27756 0.381208 9.63188 9.27756 0.381208
119 2 11.5887 9.30145 1.94611 11.5887 9.30145 1.94611
120 2 11.4746 9.24529 -1.3139 11.4746 9.24529 -1.3139
121 1 12.4832 7.6265 0.312144 12.4832 7.6265 0.312144
122 2 14.4479 7.61068 1.86641 14.4479 7.61068 1.86641
123 2 14.3172 7.63811 -1.39319 14.3172 7.63811 -1.39319
124 1 15.3307 9.27113 0.212131 15.3307 9.27113 0.212131
125 2 17.3104 9.27234 1.74645 17.3104 9.27234 1.74645
126 2 17.1469 9.26891 -1.5122 17.1469 9.26891 -1.5122
127 1 18.1801 7.62537 0.0724943 18.1801 7.62537 0.0724943
128 2 20.1836 7.55946 1.57375 20.1836 7.55946 1.57375
129 2 19.9692 7.69707 -1.67923 19.9692 7.69707 -1.67923
130 1 21.0247 9.27432 -0.0463777 21.0247 9.27432 -0.0463777
131 2 22.9872 9.20756 1.50774 22.9872 9.20756 1.50774
132 2 22.8584 9.34879 -1.74994 22.8584 9.34879 -1.74994
133 1 23.873 7.63793 -0.229373 23.873 7.63793 -0.229373
134 2 25.793 7.53315 1.37615 25.793 7.53315 1.37615
135 2 25.7529 7.75285 -1.87921 25.7529 7.75285 -1.87921
136 1 26.7234 9.28573 -0.151673 26.7234 9.28573 -0.151673
137 2 28.5635 9.17958 1.54559 28.5635 9.17958 1.54559
138 2 28.6811 9.39708 -1.70797 28.6811 9.39708 -1.70797
139 1 29.574 7.64708 -0.156179 29.574 7.64708 -0.156179
140 2 31.359 7.51755 1.59825 31.359 7.51755 1.59825
141 2 31.5819 7.77762 -1.6462 31.5819 7.77762 -1.6462
142 1 32.4159 9.28639 0.173711 32.4159 9.28639 0.173711
143 2 34.18 9.17444 1.94977 34.18 9.17444 1.94977
144 2 34.4416 9.39907 -1.29406 34.4416 9.39907 -1.29406
145 1 35.2605 7.64179 0.29058 35.2605 7.64179 0.29058
146 2 37.0397 7.51085 2.05008 37.0397 7.51085 2.05008
147 2 37.2751 7.77553 -1.19235 37.2751 7.77553 -1.19235
148 1 38.1035 9.28359 0.632239 38.1035 9.28359 0.632239
149 2 39.9164 9.18169 2.35935 39.9164 9.18169 2.35935
150 2 40.0908 9.39177 -0.890489 40.0908 9.39177 -0.890489
151 1 40.9537 7.6404 0.678835 40.9537 7.6404 0.678835
152 2 42.7893 7.52384 2.38073 42.7893 7.52384 2.38073
153 2 42.9204 7.76204 -0.869145 42.9204 7.76204 -0.869145
154 1 43.8051 9.28637 0.915072 43.8051 9.28637 0.915072
155 2 45.6761 9.1866 2.57967 45.6761 9.1866 2.57967
156 2 45.7402 9.39001 -0.674214 45.7402 9.39001 -0.674214
157 1 46.6579 7.64096 0.868482 46.6579 7.64096 0.868482
158 2 48.5764 7.52278 2.476 48.5764 7.52278 2.476
159 2 48.5453 7.76204 -0.776188 48.5453 7.76204 -0.776188
160 1 49.5138 9.28725 0.962048 49.5138 9.28725 0.962048
161 2 51.4856 9.1885 2.50523 51.4856 9.1885 2.50523
162 2 51.3455 9.38762 -0.746805 51.3455 9.38762 -0.746805
163 1 1.09082 10.9346 0.939716 1.09082 10.9346 0.939716
164 2 3.10849 10.8756 2.4246 3.10849 10.8756 2.4246
165 2 2.86961 10.9921 -0.825981 2.86961 10.9921 -0.825981
166 1 3.94171 12.5809 0.789796 3.94171 12.5809 0.789796
167 2 5.98768 12.5879 2.23668 5.98768 12.5879 2.23668
168 2 5.68497 12.5668 -1.01108 5.68497 12.5668 -1.01108
169 1 6.78366 10.9296 0.533913 6.78366 10.9296 0.533913
170 2 8.78481 10.9519 2.04187 8.78481 10.9519 2.04187
171 2 8.57807 10.8971 -1.21357 8.57807 10.8971 -1.21357
172 1 9.62919 12.569 0.328108 9.62919 12.569 0.328108
173 2 11.6219 12.6546 1.84474 11.6219 12.6546 1.84474
174 2 11.4321 12.4735 -1.4073 11.4321 12.4735 -1.4073
175 1 12.4794 10.9189 0.25548 12.4794 10.9189 0.25548
176 2 14.4416 10.9808 1.81151 14.4416 10.9808 1.81151
177 2 14.3146 10.8525 -1.44616 14.3146 10.8525 -1.44616
178 1 15.3238 12.5612 0.0804917 15.3238 12.5612 0.0804917
179 2 17.2733 12.6323 1.65127 17.2733 12.6323 1.65127
180 2 17.1716 12.4893 -1.607 17.1716 12.4893 -1.607
181 1 18.1753 10.917 0.0667423 18.1753 10.917 0.0667423
182 2 20.1381 10.9163 1.6219 20.1381 10.9163 1.6219
183 2 20.0086 10.9196 -1.63874 20.0086 10.9196 -1.63874
184 1 21.0207 12.5637 -0.0455847 21.0207 12.5637 -0.0455847
185 2 22.9359 12.5496 1.56818 22.9359 12.5496 1.56818
186 2 22.9043 12.5822 -1.69491 22.9043 12.5822 -1.69491
187 1 23.8719 10.9233 -0.0876526 23.8719 10.9233 -0.0876526
188 2 25.766 10.8521 1.54978 25.766 10.8521 1.54978
189 2 25.7768 11.0014 -1.7101 25.7768 11.0014 -1.7101
190 1 26.7195 12.5709 -0.000953094 26.7195 12.5709 -0.000953094
191 2 28.5461 12.5116 1.71275 28.5461 12.5116 1.71275
192 2 28.6888 12.6338 -1.54492 28.6888 12.6338 -1.54492
193 1 29.5694 10.9298 0.0642716 29.5694 10.9298 0.0642716
194 2 31.3529 10.8419 1.82239 31.3529 10.8419 1.82239
195 2 31.5777 11.0189 -1.42768 31.5777 11.0189 -1.42768
196 1 32.4102 12.5731 0.354094 32.4102 12.5731 0.354094
197 2 34.1851 12.5265 2.12252 34.1851 12.5265 2.12252
198 2 34.4272 12.6223 -1.12916 34.4272 12.6223 -1.12916
199 1 35.2556 10.928 0.518934 35.2556 10.928 0.518934
200 2 37.0424 10.8494 2.27433 37.0424 10.8494 2.27433
201 2 37.2646 11.0112 -0.975627 37.2646 11.0112 -0.975627
202 1 38.1007 12.5757 0.796633 38.1007 12.5757 0.796633
203 2 39.916 12.5245 2.52442 39.916 12.5245 2.52442
204 2 40.0871 12.6333 -0.730338 40.0871 12.6333 -0.730338
205 1 40.9523 10.9311 0.892135 40.9523 10.9311 0.892135
206 2 42.7938 10.8511 2.59076 42.7938 10.8511 2.59076
207 2 42.9156 11.0172 -0.663596 42.9156 11.0172 -0.663596
208 1 43.8054 12.5811 1.08397 43.8054 12.5811 1.08397
209 2 45.681 12.5246 2.74665 45.681 12.5246 2.74665
210 2 45.7381 12.6418 -0.511178 45.7381 12.6418 -0.511178
211 1 46.6604 10.9341 1.07496 46.6604 10.9341 1.07496
212 2 48.5808 10.8525 2.68385 48.5808 10.8525 2.68385
213 2 48.5482 11.0181 -0.572367 48.5482 11.0181 -0.572367
214 1 49.5188 12.5833 1.13089 49.5188 12.5833 1.13089
215 2 51.5033 12.5375 2.66229 51.5033 12.5375 2.66229
216 2 51.3395 12.6293 -0.592828 51.3395 12.6293 -0.592828
217 1 1.09765 14.2328 1.0343 1.09765 14.2328 1.0343
218 2 3.14189 14.2446 2.48584 3.14189 14.2446 2.48584
219 2 2.84811 14.2163 -0.761684 2.84811 14.2163 -0.761684
220 1 3.9459 15.8775 0.762532 3.9459 15.8775 0.762532
221 2 6.02737 15.9575 2.1569 6.02737 15.9575 2.1569
222 2 5.6465 15.7845 -1.07774 5.6465 15.7845 -1.07774
223 1 6.78517 14.2224 0.515309 6.78517 14.2224 0.515309
224 2 8.83541 14.3027 1.95376 8.83541 14.3027 1.95376
225 2 8.52145 14.129 -1.28874 8.52145 14.129 -1.28874
226 1 9.62257 15.8558 0.154111 9.62257 15.8558 0.154111
227 2 11.6445 15.9858 1.62836 11.6445 15.9858 1.62836
228 2 11.392 15.7127 -1.61279 11.392 15.7127 -1.61279
229 1 12.4718 14.2059 0.0726699 12.4718 14.2059 0.0726699
230 2 14.4372 14.3236 1.62186 14.4372 14.3236 1.62186
231 2 14.3039 14.0831 -1.62927 14.3039 14.0831 -1.62927
232 1 15.3158 15.8438 -0.164529 15.3158 15.8438 -0.164529
233 2 17.2352 15.9582 1.4415 17.2352 15.9582 1.4415
234 2 17.1965 15.7318 -1.81328 17.1965 15.7318 -1.81328
235 1 18.1688 14.2046 -0.080831 18.1688 14.2046 -0.080831
236 2 20.0815 14.2612 1.5352 20.0815 14.2612 1.5352
237 2 20.0551 14.1513 -1.72606 20.0551 14.1513 -1.72606
238 1 21.0162 15.8508 -0.159579 21.0162 15.8508 -0.159579
239 2 22.8802 15.8914 1.51362 22.8802 15.8914 1.51362
240 2 22.9513 15.8159 -1.74792 22.9513 15.8159 -1.74792
241 1 23.868 14.2115 -0.0565461 23.868 14.2115 -0.0565461
242 2 25.7257 14.1948 1.62397 25.7257 14.1948 1.62397
243 2 25.8086 14.2327 -1.63802 25.8086 14.2327 -1.63802
244 1 26.7141 15.8594 0.0369349 26.7141 15.8594 0.0369349
245 2 28.5329 15.8721 1.76007 28.5329 15.8721 1.76007
246 2 28.6914 15.8494 -1.49892 28.6914 15.8494 -1.49892
247 1 29.5634 14.2171 0.188763 29.5634 14.2171 0.188763
248 2 31.3565 14.2008 1.93897 31.3565 14.2008 1.93897
249 2 31.5636 14.2355 -1.31689 31.5636 14.2355 -1.31689
250 1 32.407 15.8643 0.390447 32.407 15.8643 0.390447
251 2 34.1962 15.9007 2.14494 34.1962 15.9007 2.14494
252 2 34.4124 15.831 -1.10924 34.4124 15.831 -1.10924
253 1 35.2527 14.2204 0.616884 35.2527 14.2204 0.616884
254 2 37.0434 14.2128 2.37065 37.0434 14.2128 2.37065
255 2 37.2587 14.2331 -0.883689 37.2587 14.2331 -0.883689
256 1 38.0997 15.8714 0.816955 38.0997 15.8714 0.816955
257 2 39.9059 15.8929 2.55563 39.9059 15.8929 2.55563
258 2 40.0943 15.856 -0.699705 40.0943 15.856 -0.699705
259 1 40.9507 14.2271 1.00254 40.9507 14.2271 1.00254
260 2 42.7917 14.2021 2.70454 42.7917 14.2021 2.70454
261 2 42.9158 14.2577 -0.553188 42.9158 14.2577 -0.553188
262 1 43.8048 15.8802 1.14113 43.8048 15.8802 1.14113
263 2 45.6893 15.8988 2.79601 45.6893 15.8988 2.79601
264 2 45.7311 15.8657 -0.463658 45.7311 15.8657 -0.463658
265 1 46.6626 14.2325 1.19504 46.6626 14.2325 1.19504
266 2 48.595 14.2173 2.79341 48.595 14.2173 2.79341
267 2 48.5408 14.2501 -0.46606 48.5408 14.2501 -0.46606
268 1 49.5226 15.8845 1.16568 49.5226 15.8845 1.16568
269 2 51.5251 15.9268 2.67545 51.5251 15.9268 2.67545
270 2 51.3257 15.8402 -0.577413 51.3257 15.8402 -0.577413
271 1 1.09966 17.5318 0.947318 1.09966 17.5318 0.947318
272 2 3.16336 17.6356 2.36832 3.16336 17.6356 2.36832
273 2 2.82741 17.4175 -0.867713 2.82741 17.4175 -0.867713
274 1 3.94092 19.1665 0.541159 3.94092 19.1665 0.541159
275 2 6.03507 19.3148 1.91035 6.03507 19.3148 1.91035
276 2 5.62449 18.9985 -1.3097 5.62449 18.9985 -1.3097
277 1 6.78107 17.5108 0.340894 6.78107 17.5108 0.340894
278 2 8.85941 17.6433 1.73441 8.85941 17.6433 1.73441
279 2 8.48216 17.3593 -1.49326 8.48216 17.3593 -1.49326
280 1 9.61179 19.1344 -0.13375 9.61179 19.1344 -0.13375
281 2 11.6383 19.2835 1.33268 11.6383 19.2835 1.33268
282 2 11.3772 18.9724 -1.90399 11.3772 18.9724 -1.90399
283 1 12.4619 17.4858 -0.203913 12.4619 17.4858 -0.203913
284 2 14.4239 17.6276 1.34876 14.4239 17.6276 1.34876
285 2 14.3 17.3401 -1.89862 14.3 17.3401 -1.89862
286 1 15.309 19.1223 -0.456864 15.309 19.1223 -0.456864
287 2 17.1996 19.2467 1.18401 17.1996 19.2467 1.18401
288 2 17.2217 19.0046 -2.06937 17.2217 19.0046 -2.06937
289 1 18.1637 17.4868 -0.312375 18.1637 17.4868 -0.312375
290 2 20.0299 17.5801 1.35695 20.0299 17.5801 1.35695
291 2 20.0978 17.4012 -1.90035 20.0978 17.4012 -1.90035
292 1 21.0127 19.1346 -0.342826 21.0127 19.1346 -0.342826
293 2 22.8386 19.2157 1.37133 22.8386 19.2157 1.37133
294 2 22.9849 19.0617 -1.88456 22.9849 19.0617 -1.88456
295 1 23.8637 17.4989 -0.134748 23.8637 17.4989 -0.134748
296 2 25.6914 17.5463 1.57834 25.6914 17.5463 1.57834
297 2 25.8334 17.4564 -1.68028 25.8334 17.4564 -1.68028
298 1 26.7108 19.1466 -0.0545477 26.7108 19.1466 -0.0545477
299 2 28.5314 19.2299 1.66472 28.5314 19.2299 1.66472
300 2 28.6879 19.0659 -1.59005 28.6879 19.0659 -1.59005
301 1 29.5598 17.5066 0.16642 29.5598 17.5066 0.16642
302 2 31.3684 17.5725 1.89948 31.3684 17.5725 1.89948
303 2 31.5477 17.4426 -1.35552 31.5477 17.4426 -1.35552
304 1 32.4084 19.1524 0.259325 32.4084 19.1524 0.259325
305 2 34.2078 19.2642 2.00007 34.2078 19.2642 2.00007
306 2 34.4053 19.0433 -1.24862 34.4053 19.0433 -1.24862
307 1 35.2537 17.5128 0.546348 35.2537 17.5128 0.546348
308 2 37.0405 17.588 2.30284 37.0405 17.588 2.30284
309 2 37.2627 17.4432 -0.948012 37.2627 17.4432 -0.948012
310 1 38.102 19.1629 0.669239 38.102 19.1629 0.669239
311 2 39.8933 19.2698 2.42005 39.8933 19.2698 2.42005
312 2 40.1085 19.0641 -0.827527 40.1085 19.0641 -0.827527
313 1 40.9499 17.5245 0.964707 40.9499 17.5245 0.964707
314 2 42.7856 17.5835 2.67223 42.7856 17.5835 2.67223
315 2 42.9204 17.4712 -0.583537 42.9204 17.4712 -0.583537
316 1 43.8047 19.1778 1.02756 43.8047 19.1778 1.02756
317 2 45.6979 19.2908 2.66866 45.6979 19.2908 2.66866
318 2 45.7226 19.0676 -0.583829 45.7226 19.0676 -0.583829
319 1 46.6636 17.5335 1.16293 46.6636 17.5335 1.16293
320 2 48.6133 17.6123 2.73933 48.6133 17.6123 2.73933
321 2 48.5254 17.4553 -0.515642 48.5254 17.4553 -0.515642
322 1 49.5224 19.1818 1.00723 49.5224 19.1818 1.00723
323 2 51.5397 19.3203 2.491 51.5397 19.3203 2.491
324 2 51.3077 19.0367 -0.748683 51.3077 19.0367 -0.748683
325 1 1.09269 20.8177 0.659192 1.09269 20.8177 0.659192
326 2 3.15997 20.9944 2.06585 3.15997 20.9944 2.06585
327 2 2.81291 20.6253 -1.15567 2.81291 20.6253 -1.15567
328 1 3.92614 22.4399 0.165271 3.92614 22.4399 0.165271
329 2 6.00593 22.6154 1.55076 6.00593 22.6154 1.55076
330 2 5.62573 22.245 -1.66744 5.62573 22.245 -1.66744
331 1 6.76885 20.7877 0.0189126 6.76885 20.7877 0.0189126
332 2 8.84296 20.9454 1.41538 8.84296 20.9454 1.41538
333 2 8.47532 20.6106 -1.8083 8.47532 20.6106 -1.8083
334 1 9.60034 22.4089 -0.474887 9.60034 22.4089 -0.474887
335 2 11.606 22.5452 1.02173 11.606 22.5452 1.02173
336 2 11.3925 22.266 -2.22091 11.3925 22.266 -2.22091
337 1 12.4528 20.7625 -0.519947 12.4528 20.7625 -0.519947
338 2 14.3973 20.8967 1.05654 14.3973 20.8967 1.05654
339 2 14.3127 20.6291 -2.19332 14.3127 20.6291 -2.19332
340 1 15.3044 22.4034 -0.728815 15.3044 22.4034 -0.728815
341 2 17.1688 22.508 0.944449 17.1688 22.508 0.944449
342 2 17.2452 22.3084 -2.31055 17.2452 22.3084 -2.31055
343 1 18.1601 20.768 -0.55904 18.1601 20.768 -0.55904
344 2 19.9934 20.869 1.14722 19.9934 20.869 1.14722
345 2 20.1274 20.6776 -2.10689 20.1274 20.6776 -2.10689
346 1 21.0099 22.418 -0.537593 21.0099 22.418 -0.537593
347 2 22.8193 22.5095 1.19376 22.8193 22.5095 1.19376
348 2 22.9985 22.3352 -2.0591 22.9985 22.3352 -2.0591
349 1 23.8608 20.7834 -0.291787 23.8608 20.7834 -0.291787
350 2 25.6768 20.8764 1.43195 25.6768 20.8764 1.43195
351 2 25.8425 20.6958 -1.82146 25.8425 20.6958 -1.82146
352 1 26.71 22.43 -0.237661 26.71 22.43 -0.237661
353 2 28.5391 22.544 1.47033 28.5391 22.544 1.47033
354 2 28.6807 22.3176 -1.78119 28.6807 22.3176 -1.78119
355 1 29.5603 20.7917 0.000408211 29.5603 20.7917 0.000408211
356 2 31.3827 20.9137 1.7154 31.3827 20.9137 1.7154
357 2 31.5367 20.67 -1.53426 31.5367 20.67 -1.53426
358 1 32.4119 22.4335 0.0122829 32.4119 22.4335 0.0122829
359 2 34.217 22.5771 1.7442 34.217 22.5771 1.7442
360 2 34.404 22.2919 -1.50011 34.404 22.2919 -1.50011
361 1 35.2584 20.7973 0.321894 35.2584 20.7973 0.321894
362 2 37.0389 20.9391 2.08032 37.0389 20.9391 2.08032
363 2 37.2721 20.6624 -1.16142 37.2721 20.6624 -1.16142
364 1 38.1066 22.4445 0.387675 38.1066 22.4445 0.387675
365 2 39.8907 22.6141 2.1396 39.8907 22.6141 2.1396
366 2 40.1174 22.2849 -1.09745 40.1174 22.2849 -1.09745
367 1 40.9517 20.8145 0.755161 40.9517 20.8145 0.755161
368 2 42.7822 20.9619 2.46175 42.7822 20.9619 2.46175
369 2 42.9249 20.6741 -0.783267 42.9249 20.6741 -0.783267
370 1 43.8053 22.4628 0.735114 43.8053 22.4628 0.735114
371 2 45.7019 22.6502 2.36298 45.7019 22.6502 2.36298
372 2 45.7164 22.2767 -0.876546 45.7164 22.2767 -0.876546
373 1 46.6628 20.8259 0.936973 46.6628 20.8259 0.936973
374 2 48.6245 20.9931 2.48988 48.6245 20.9931 2.48988
375 2 48.5096 20.6554 -0.75105 48.5096 20.6554 -0.75105
376 1 49.5159 22.4626 0.66435 49.5159 22.4626 0.66435
377 2 51.5348 22.6609 2.13593 51.5348 22.6609 2.13593
378 2 51.2945 22.2533 -1.09074 51.2945 22.2533 -1.09074
379 1 1.07833 24.0875 0.244656 1.07833 24.0875 0.244656
380 2 3.12945 24.2762 1.66969 3.12945 24.2762 1.66969
381 2 2.81366 23.8839 -1.55298 2.81366 23.8839 -1.55298
382 1 3.91047 25.7096 -0.234424 3.91047 25.7096 -0.234424
383 2 5.96046 25.8535 1.19664 5.96046 25.8535 1.19664
384 2 5.64599 25.5537 -2.0361 5.64599 25.5537 -2.0361
385 1 6.7542 24.0591 -0.358994 6.7542 24.0591 -0.358994
386 2 8.79898 24.1995 1.08143 8.79898 24.1995 1.08143
387 2 8.49804 23.9073 -2.15307 8.49804 23.9073 -2.15307
388 1 9.59322 25.6897 -0.773349 9.59322 25.6897 -0.773349
389 2 11.5671 25.7839 0.76849 11.5671 25.7839 0.76849
390 2 11.4226 25.5955 -2.4842 11.4226 25.5955 -2.4842
391 1 12.4471 24.0438 -0.804142 12.4471 24.0438 -0.804142
392 2 14.3649 24.144 0.807981 14.3649 24.144 0.807981
393 2 14.3368 23.9489 -2.44762 14.3368 23.9489 -2.44762
394 1 15.3018 25.691 -0.92674 15.3018 25.691 -0.92674
395 2 17.1469 25.7586 0.76979 17.1469 25.7586 0.76979
396 2 17.2614 25.6328 -2.48753 17.2614 25.6328 -2.48753
397 1 18.1572 24.053 -0.761682 18.1572 24.053 -0.761682
398 2 19.9735 24.1337 0.96407 19.9735 24.1337 0.96407
399 2 20.1412 23.9828 -2.29026 20.1412 23.9828 -2.29026
400 1 21.0069 25.7044 -0.690292 21.0069 25.7044 -0.690292
401 2 22.8184 25.7758 1.03962 22.8184 25.7758 1.03962
402 2 22.9944 25.6406 -2.21506 22.9944 25.6406 -2.21506
403 1 23.8587 24.0673 -0.46854 23.8587 24.0673 -0.46854
404 2 25.6793 24.1619 1.24994 25.6793 24.1619 1.24994
405 2 25.8375 23.9774 -2.00341 25.8375 23.9774 -2.00341
406 1 26.709 25.714 -0.424067 26.709 25.714 -0.424067
407 2 28.5496 25.8054 1.27232 28.5496 25.8054 1.27232
408 2 28.6694 25.6234 -1.98271 28.6694 25.6234 -1.98271
409 1 29.5614 24.0732 -0.228922 29.5614 24.0732 -0.228922
410 2 31.3933 24.1939 1.47529 31.3933 24.1939 1.47529
411 2 31.5296 23.9518 -1.77515 31.5296 23.9518 -1.77515
412 1 32.4124 25.7156 -0.232809 32.4124 25.7156 -0.232809
413 2 34.2281 25.8343 1.48911 34.2281 25.8343 1.48911
414 2 34.3951 25.5982 -1.7602 34.3951 25.5982 -1.7602
415 1 35.262 24.0765 0.0324354 35.262 24.0765 0.0324354
416 2 37.0463 24.2339 1.78477 37.0463 24.2339 1.78477
417 2 37.2721 23.9255 -1.45481 37.2721 23.9255 -1.45481
418 1 38.1087 25.7231 0.075008 38.1087 25.7231 0.075008
419 2 39.907 25.8958 1.81047 39.907 25.8958 1.81047
420 2 40.1059 25.5575 -1.42794 40.1059 25.5575 -1.42794
421 1 40.9546 24.0927 0.420535 40.9546 24.0927 0.420535
422 2 42.786 24.2871 2.11912 42.786 24.2871 2.11912
423 2 42.9239 23.9051 -1.11717 42.9239 23.9051 -1.11717
424 1 43.8047 25.7359 0.347074 43.8047 25.7359 0.347074
425 2 45.6998 25.9345 1.97186 45.6998 25.9345 1.97186
426 2 45.712 25.5372 -1.26588 45.712 25.5372 -1.26588
427 1 46.6589 24.1017 0.557622 46.6589 24.1017 0.557622
428 2 48.6188 24.3064 2.10441 48.6188 24.3064 2.10441
429 2 48.5019 23.8909 -1.12847 48.5019 23.8909 -1.12847
430 1 49.5052 25.7313 0.242078 49.5052 25.7313 0.242078
431 2 51.5102 25.9173 1.73029 51.5102 25.9173 1.73029
432 2 51.2942 25.535 -1.50214 51.2942 25.535 -1.50214
433 1 1.06553 27.3588 -0.144227 1.06553 27.3588 -0.144227
434 2 3.09229 27.4955 1.3188 3.09229 27.4955 1.3188
435 2 2.8273 27.2122 -1.92031 2.8273 27.2122 -1.92031
436 1 3.90268 28.9915 -0.523091 3.90268 28.9915 -0.523091
437 2 5.92395 29.0667 0.952683 5.92395 29.0667 0.952683
438 2 5.67205 28.9098 -2.29569 5.67205 28.9098 -2.29569
439 1 6.74567 27.3397 -0.665216 6.74567 27.3397 -0.665216
440 2 8.75691 27.4272 0.825723 8.75691 27.4272 0.825723
441 2 8.53001 27.2478 -2.42288 8.53001 27.2478 -2.42288
442 1 9.59179 28.981 -0.956628 9.59179 28.981 -0.956628
443 2 11.5402 29.0218 0.619541 11.5402 29.0218 0.619541
444 2 11.4484 28.9416 -2.6395 11.4484 28.9416 -2.6395
445 1 12.4452 27.3336 -0.995881 12.4452 27.3336 -0.995881
446 2 14.34 27.3882 0.645384 14.34 27.3882 0.645384
447 2 14.358 27.2848 -2.61436 14.358 27.2848 -2.61436
448 1 15.3002 28.9836 -1.031 15.3002 28.9836 -1.031
449 2 17.1401 29.0199 0.671621 17.1401 29.0199 0.671621
450 2 17.2636 28.9541 -2.58714 17.2636 28.9541 -2.58714
451 1 18.1543 27.3425 -0.888629 18.1543 27.3425 -0.888629
452 2 19.9684 27.394 0.840333 19.9684 27.394 0.840333
453 2 20.1403 27.2997 -2.41577 20.1403 27.2997 -2.41577
454 1 21.0039 28.9939 -0.784666 21.0039 28.9939 -0.784666
455 2 22.8281 29.0446 0.932611 22.8281 29.0446 0.932611
456 2 22.98 28.9498 -2.3246 22.98 28.9498 -2.3246
457 1 23.8562 27.3542 -0.60454 23.8562 27.3542 -0.60454
458 2 25.6897 27.4207 1.10126 25.6897 27.4207 1.10126
459 2 25.8235 27.2919 -2.1557 25.8235 27.2919 -2.1557
460 1 26.7067 29.0021 -0.553199 26.7067 29.0021 -0.553199
461 2 28.5601 29.0612 1.13089 28.5601 29.0612 1.13089
462 2 28.6551 28.944 -2.12783 28.6551 28.944 -2.12783
463 1 29.5599 27.3587 -0.412475 29.5599 27.3587 -0.412475
464 2 31.4036 27.4397 1.28101 31.4036 27.4397 1.28101
465 2 31.517 27.2775 -1.97518 31.517 27.2775 -1.97518
466 1 32.4096 29.0041 -0.395704 32.4096 29.0041 -0.395704
467 2 34.2462 29.0842 1.30556 34.2462 29.0842 1.30556
468 2 34.3723 28.9245 -1.9503 34.3723 28.9245 -1.9503
469 1 35.2608 27.3609 -0.205922 35.2608 27.3609 -0.205922
470 2 37.0693 27.4855 1.52285 37.0693 27.4855 1.52285
471 2 37.2489 27.2394 -1.72512 37.2489 27.2394 -1.72512
472 1 38.1069 29.0079 -0.172854 38.1069 29.0079 -0.172854
473 2 39.9364 29.1385 1.53224 39.9364 29.1385 1.53224
474 2 40.0749 28.8799 -1.71697 40.0749 28.8799 -1.71697
475 1 40.9551 27.3695 0.0778525 40.9551 27.3695 0.0778525
476 2 42.7998 27.5436 1.7621 42.7998 27.5436 1.7621
477 2 42.9092 27.1988 -1.48014 42.9092 27.1988 -1.48014
478 1 43.8021 29.0123 -0.00258192 43.8021 29.0123 -0.00258192
479 2 45.6968 29.1599 1.6263 45.6968 29.1599 1.6263
480 2 45.7065 28.8636 -1.62294 45.7065 28.8636 -1.62294
481 1 46.6529 27.3724 0.154029 46.6529 27.3724 0.154029
482 2 48.6013 27.5437 1.71601 48.6013 27.5437 1.71601
483 2 48.5029 27.1956 -1.52638 48.5029 27.1956 -1.52638
484 1 49.4968 29.0065 -0.111655 49.4968 29.0065 -0.111655
485 2 51.4814 29.1246 1.40856 51.4814 29.1246 1.40856
486 2 51.3058 28.8815 -1.84035 51.3058 28.8815 -1.84035
487 1 1.06037 30.6432 -0.391526 1.06037 30.6432 -0.391526
488 2 3.06399 30.6986 1.10741 3.06399 30.6986 1.10741
489 2 2.84791 30.5813 -2.14583 2.84791 30.5813 -2.14583
490 1 3.9032 32.284 -0.642577 3.9032 32.284 -0.642577
491 2 5.90404 32.2827 0.862162 5.90404 32.2827 0.862162
492 2 5.69532 32.2805 -2.39325 5.69532 32.2805 -2.39325
493 1 6.74486 30.6319 -0.825557 6.74486 30.6319 -0.825557
494 2 8.73225 30.6543 0.699026 8.73225 30.6543 0.699026
495 2 8.55565 30.6071 -2.55739 8.55565 30.6071 -2.55739
496 1 9.5941 32.278 -1.00482 9.5941 32.278 -1.00482
497 2 11.5331 32.2703 0.582489 11.5331 32.2703 0.582489
498 2 11.4588 32.2852 -2.67817 11.4588 32.2852 -2.67817
499 1 12.4455 30.629 -1.07715 12.4455 30.629 -1.07715
500 2 14.3324 30.6473 0.573318 14.3324 30.6473 0.573318
501 2 14.3646 30.6138 -2.68791 14.3646 30.6138 -2.68791
502 1 15.2995 32.2781 -1.06382 15.2995 32.2781 -1.06382
503 2 17.1524 32.3035 0.624162 17.1524 32.3035 0.624162
504 2 17.2497 32.2566 -2.63595 17.2497 32.2566 -2.63595
505 1 18.1521 30.6344 -0.954033 18.1521 30.6344 -0.954033
506 2 19.9782 30.6763 0.762284 19.9782 30.6763 0.762284
507 2 20.1266 30.5991 -2.49542 20.1266 30.5991 -2.49542
508 1 21.0028 32.2848 -0.861408 21.0028 32.2848 -0.861408
509 2 22.8426 32.3428 0.838971 22.8426 32.3428 0.838971
510 2 22.9642 32.2327 -2.41899 22.9642 32.2327 -2.41899
511 1 23.8541 30.6439 -0.699133 23.8541 30.6439 -0.699133
512 2 25.7016 30.6988 0.992275 25.7016 30.6988 0.992275
513 2 25.8082 30.593 -2.26641 25.8082 30.593 -2.26641
514 1 26.7052 32.2924 -0.659135 26.7052 32.2924 -0.659135
515 2 28.5676 32.3548 1.01537 28.5676 32.3548 1.01537
516 2 28.6448 32.2317 -2.24352 28.6448 32.2317 -2.24352
517 1 29.5572 30.6487 -0.529742 29.5572 30.6487 -0.529742
518 2 31.4154 30.7089 1.14904 31.4154 30.7089 1.14904
519 2 31.5003 30.5885 -2.10983 31.5003 30.5885 -2.10983
520 1 32.407 32.2953 -0.515994 32.407 32.2953 -0.515994
521 2 34.2632 32.3686 1.16434 34.2632 32.3686 1.16434
522 2 34.3511 32.2222 -2.09344 34.3511 32.2222 -2.09344
523 1 35.2574 30.6508 -0.365793 35.2574 30.6508 -0.365793
524 2 37.0975 30.7409 1.33089 37.0975 30.7409 1.33089
525 2 37.2159 30.5616 -1.92439 37.2159 30.5616 -1.92439
526 1 38.1047 32.2974 -0.352716 38.1047 32.2974 -0.352716
527 2 39.9562 32.3841 1.33098 39.9562 32.3841 1.33098
528 2 40.0515 32.2111 -1.9256 40.0515 32.2111 -1.9256
529 1 40.9532 30.6538 -0.183004 40.9532 30.6538 -0.183004
530 2 42.8149 30.7691 1.48678 42.8149 30.7691 1.48678
531 2 42.8898 30.5389 -1.76694 42.8898 30.5389 -1.76694
532 1 43.8 32.2981 -0.235428 43.8 32.2981 -0.235428
533 2 45.6907 32.3726 1.40293 45.6907 32.3726 1.40293
534 2 45.7072 32.2224 -1.85659 45.7072 32.2224 -1.85659
535 1 46.6483 30.6527 -0.146706 46.6483 30.6527 -0.146706
536 2 48.5826 30.7492 1.43821 48.5826 30.7492 1.43821
537 2 48.5111 30.5525 -1.81807 48.5111 30.5525 -1.81807
538 1 49.4941 32.2935 -0.311399 49.4941 32.2935 -0.311399
539 2 51.4579 32.3287 1.23933 51.4579 32.3287 1.23933