ITEM: TIMESTEP
5000
ITEM: NUMBER OF ATOMS
810
ITEM: BOX BOUNDS pp pp pp
8.6550560236020668e-01 5.2152099397639816e+01
8.4783574586031996e-01 5.0168379254139005e+01
-1.0000000000000000e+01 1.0000000000000000e+01
ITEM: ATOMS id type x y z xu yu zu
1 1 1.07371 1.05675 0.260312 1.07371 1.05675 0.260312
2 2 3.00099 0.936553 1.85527 3.00099 0.936553 1.85527
3 2 2.94769 1.17165 -1.39803 2.94769 1.17165 -1.39803
4 1 3.92489 2.69668 0.332285 3.92489 2.69668 0.332285
5 2 5.87109 2.58781 1.90558 5.87109 2.58781 1.90558
6 2 5.77954 2.80061 -1.34835 5.77954 2.80061 -1.34835
7 1 6.77462 1.05121 0.144329 6.77462 1.05121 0.144329
8 2 8.73036 0.934974 1.70505 8.73036 0.934974 1.70505
9 2 8.61866 1.16382 -1.54725 8.61866 1.16382 -1.54725
10 1 9.62566 2.69247 0.162385 9.62566 2.69247 0.162385
11 2 11.5987 2.59011 1.70244 11.5987 2.59011 1.70244
12 2 11.451 2.79389 -1.55013 11.451 2.79389 -1.55013
13 1 12.4737 1.05028 -0.0699746 12.4737 1.05028 -0.0699746
14 2 14.4607 50.2543 1.45076 14.4607 0.93371 1.45076
15 2 14.2835 1.17027 -1.79819 14.2835 1.17027 -1.79819
16 1 15.3231 2.6956 -0.105601 15.3231 2.6956 -0.105601
17 2 17.3185 2.58861 1.40477 17.3185 2.58861 1.40477
18 2 17.123 2.809 -1.84441 17.123 2.809 -1.84441
19 1 18.1691 1.05997 -0.388621 18.1691 1.05997 -0.388621
20 2 20.1571 50.2659 1.13084 20.1571 0.945311 1.13084
21 2 19.9778 1.184 -2.11787 19.9778 1.184 -2.11787
22 1 21.0184 2.70847 -0.425051 21.0184 2.70847 -0.425051
23 2 22.9803 2.58992 1.12806 22.9803 2.58992 1.12806
24 2 22.856 2.83648 -2.1227 22.856 2.83648 -2.1227
25 1 23.8686 1.07507 -0.658557 23.8686 1.07507 -0.658557
26 2 25.7874 0.95713 0.948382 25.7874 0.95713 0.948382
27 2 25.7532 1.20027 -2.30447 25.7532 1.20027 -2.30447
28 1 26.7216 2.72146 -0.564904 26.7216 2.72146 -0.564904
29 2 28.5895 2.58659 1.10003 28.5895 2.58659 1.10003
30 2 28.6562 2.86084 -2.14994 28.6562 2.86084 -2.14994
31 1 29.575 1.0831 -0.6442 29.575 1.0831 -0.6442
32 2 31.3987 0.950913 1.06948 31.3987 0.950913 1.06948
33 2 31.5511 1.2162 -2.17811 31.5511 1.2162 -2.17811
34 1 32.4233 2.72339 -0.375392 32.4233 2.72339 -0.375392
35 2 34.2144 2.57157 1.37029 34.2144 2.57157 1.37029
36 2 34.427 2.87316 -1.87084 34.427 2.87316 -1.87084
37 1 35.2718 1.07965 -0.34101 35.2718 1.07965 -0.34101
38 2 37.0543 0.930813 1.41317 37.0543 0.930813 1.41317
39 2 37.2827 1.22457 -1.82759 37.2827 1.22457 -1.82759
40 1 38.1141 2.71504 0.00827741 38.1141 2.71504 0.00827741
41 2 39.9074 2.55515 1.75003 39.9074 2.55515 1.75003
42 2 40.1156 2.87065 -1.48997 40.1156 2.87065 -1.48997
43 1 40.9623 1.06995 0.0305547 40.9623 1.06995 0.0305547
44 2 42.7797 0.919659 1.74725 42.7797 0.919659 1.74725
45 2 42.942 1.21574 -1.49736 42.942 1.21574 -1.49736
46 1 43.808 2.70589 0.322262 43.808 2.70589 0.322262
47 2 45.6647 2.557 1.9967 45.6647 2.557 1.9967
48 2 45.7526 2.85199 -1.2507 45.7526 2.85199 -1.2507
49 1 46.6591 1.06212 0.248706 46.6591 1.06212 0.248706
50 2 48.5415 0.928094 1.89496 48.5415 0.928094 1.89496
51 2 48.5782 1.19219 -1.35631 48.5782 1.19219 -1.35631
52 1 49.5094 2.70119 0.413818 49.5094 2.70119 0.413818
53 2 51.4255 2.57444 2.0219 51.4255 2.57444 2.0219
54 2 51.3957 2.82437 -1.23043 51.3957 2.82437 -1.23043
55 1 1.07444 4.34181 0.513987 1.07444 4.34181 0.513987
56 2 3.017 4.23302 2.09194 3.017 4.23302 2.09194
57 2 2.9337 4.44687 -1.16198 2.9337 4.44687 -1.16198
58 1 3.92637 5.9839 0.549731 3.92637 5.9839 0.549731
59 2 5.89097 5.90633 2.1026 5.89097 5.90633 2.1026
60 2 5.76217 6.05809 -1.15337 5.76217 6.05809 -1.15337
61 1 6.77625 4.33775 0.360168 6.77625 4.33775 0.360168
62 2 8.74029 4.25139 1.913 8.74029 4.25139 1.913
63 2 8.6119 4.4207 -1.34228 8.6119 4.4207 -1.34228
64 1 9.62667 5.98107 0.334318 9.62667 5.98107 0.334318
65 2 11.6065 5.92439 1.86843 11.6065 5.92439 1.86843
66 2 11.4446 6.03654 -1.38794 11.4446 6.03654 -1.38794
67 1 12.4756 4.33627 0.136549 12.4756 4.33627 0.136549
68 2 14.4632 4.25233 1.65892 14.4632 4.25233 1.65892
69 2 14.2845 4.42221 -1.59418 14.2845 4.42221 -1.59418
70 1 15.3235 5.98272 0.0664283 15.3235 5.98272 0.0664283
71 2 17.3129 5.9138 1.58689 17.3129 5.9138 1.58689
72 2 17.1294 6.05573 -1.66753 17.1294 6.05573 -1.66753
73 1 18.171 4.34317 -0.165276 18.171 4.34317 -0.165276
74 2 20.1563 4.24132 1.35852 20.1563 4.24132 1.35852
75 2 19.9816 4.45298 -1.89259 19.9816 4.45298 -1.89259
76 1 21.0188 5.99164 -0.210909 21.0188 5.99164 -0.210909
77 2 22.9708 5.88995 1.35551 22.9708 5.88995 1.35551
78 2 22.8655 6.10113 -1.89879 22.8655 6.10113 -1.89879
79 1 23.869 4.35641 -0.408758 23.869 4.35641 -0.408758
80 2 25.7846 4.23036 1.20093 25.7846 4.23036 1.20093
81 2 25.7551 4.49006 -2.05114 25.7551 4.49006 -2.05114
82 1 26.7198 6.00207 -0.302044 26.7198 6.00207 -0.302044
83 2 28.5813 5.87191 1.36992 28.5813 5.87191 1.36992
84 2 28.6586 6.13646 -1.88103 28.6586 6.13646 -1.88103
85 1 29.5723 4.36408 -0.366416 29.5723 4.36408 -0.366416
86 2 31.3924 4.21771 1.34964 31.3924 4.21771 1.34964
87 2 31.5502 4.51145 -1.89555 31.5502 4.51145 -1.89555
88 1 32.4179 6.00295 -0.0777229 32.4179 6.00295 -0.0777229
89 2 34.2072 5.85653 1.67023 34.2072 5.85653 1.67023
90 2 34.4224 6.14767 -1.57178 34.4224 6.14767 -1.57178
91 1 35.2664 4.35961 -0.0352156 35.2664 4.35961 -0.0352156
92 2 37.048 4.20121 1.71932 37.048 4.20121 1.71932
93 2 37.278 4.51451 -1.5194 37.278 4.51451 -1.5194
94 1 38.1077 5.99471 0.326206 38.1077 5.99471 0.326206
95 2 39.9053 5.84336 2.06502 39.9053 5.84336 2.06502
96 2 40.1064 6.14332 -1.17658 40.1064 6.14332 -1.17658
97 1 40.9572 4.34979 0.35075 40.9572 4.34979 0.35075
98 2 42.783 4.19316 2.05876 42.783 4.19316 2.05876
99 2 42.9309 4.50387 -1.18477 42.9309 4.50387 -1.18477
100 1 43.8044 5.98727 0.637838 43.8044 5.98727 0.637838
101 2 45.6753 5.84565 2.2982 45.6753 5.84565 2.2982
102 2 45.7377 6.12867 -0.950356 45.7377 6.12867 -0.950356
103 1 46.6575 4.34421 0.548228 46.6575 4.34421 0.548228
104 2 48.5565 4.20726 2.17594 48.5565 4.20726 2.17594
105 2 48.562 4.47987 -1.07442 48.562 4.47987 -1.07442
106 1 49.5096 5.98557 0.690913 49.5096 5.98557 0.690913
107 2 51.4463 5.87174 2.27613 51.4463 5.87174 2.27613
108 2 51.3764 6.09842 -0.976925 51.3764 6.09842 -0.976925
109 1 1.07615 7.62946 0.744889 1.07615 7.62946 0.744889
110 2 3.04422 7.55305 2.29383 3.04422 7.55305 2.29383
111 2 2.90953 7.70453 -0.961601 2.90953 7.70453 -0.961601
112 1 3.92825 9.27519 0.704708 3.92825 9.27519 0.704708
113 2 5.92079 9.2483 2.22399 5.92079 9.2483 2.22399
114 2 5.73399 9.30015 -1.03215 5.73399 9.30015 -1.03215
115 1 6.77729 7.62788 0.514921 6.77729 7.62788 0.514921
116 2 8.75958 7.5915 2.04689 8.75958 7.5915 2.04689
117 2 8.59324 7.66179 -1.21029 8.59324 7.66179 -1.21029
118 1 9.62564 9.27342 0.406345 9.62564 9.27342 0.406345
119 2 11.6167 9.27821 1.92708 11.6167 9.27821 1.92708
120 2 11.4307 9.26711 -1.33 11.4307 9.26711 -1.33
121 1 12.4748 7.62679 0.250368 12.4748 7.62679 0.250368
122 2 14.4615 7.59759 1.77608 14.4615 7.59759 1.77608
123 2 14.2841 7.65664 -1.48112 14.2841 7.65664 -1.48112
124 1 15.3207 9.2738 0.125845 15.3207 9.2738 0.125845
125 2 17.2965 9.26147 1.6654 17.2965 9.26147 1.6654
126 2 17.141 9.28815 -1.59364 17.141 9.28815 -1.59364
127 1 18.1699 7.63069 -0.0220255 18.1699 7.63069 -0.0220255
128 2 20.1398 7.56907 1.5237 20.1398 7.56907 1.5237
129 2 19.9967 7.69744 -1.73357 19.9967 7.69744 -1.73357
130 1 21.017 9.27898 -0.081842 21.017 9.27898 -0.081842
131 2 22.9471 9.22057 1.51339 22.9471 9.22057 1.51339
132 2 22.8857 9.34253 -1.74686 22.8857 9.34253 -1.74686
133 1 23.8678 7.63948 -0.195398 23.8678 7.63948 -0.195398
134 2 25.7698 7.53851 1.4317 25.7698 7.53851 1.4317
135 2 25.766 7.74638 -1.8246 25.766 7.74638 -1.8246
136 1 26.7165 9.28562 -0.0920364 26.7165 9.28562 -0.0920364
137 2 28.566 9.19259 1.59525 28.566 9.19259 1.59525
138 2 28.6654 9.38159 -1.66062 28.6654 9.38159 -1.66062
139 1 29.5678 7.64475 -0.0986017 29.5678 7.64475 -0.0986017
140 2 31.3828 7.52009 1.62422 31.3828 7.52009 1.62422
141 2 31.549 7.77017 -1.62445 31.549 7.77017 -1.62445
142 1 32.4116 9.28557 0.175659 32.4116 9.28557 0.175659
143 2 34.1996 9.17849 1.92795 34.1996 9.17849 1.92795
144 2 34.4171 9.3914 -1.32001 34.4171 9.3914 -1.32001
145 1 35.2595 7.64027 0.260084 35.2595 7.64027 0.260084
146 2 37.0427 7.50661 2.01547 37.0427 7.50661 2.01547
147 2 37.2701 7.77155 -1.22763 37.2701 7.77155 -1.22763
148 1 38.1014 9.27924 0.595195 38.1014 9.27924 0.595195
149 2 39.9033 9.16912 2.33359 39.9033 9.16912 2.33359
150 2 40.0977 9.38811 -0.914567 40.0977 9.38811 -0.914567
151 1 40.9518 7.63223 0.65539 40.9518 7.63223 0.65539
152 2 42.7863 7.49948 2.35731 42.7863 7.49948 2.35731
153 2 42.9195 7.76436 -0.890432 42.9195 7.76436 -0.890432
154 1 43.8016 9.27435 0.907134 43.8016 9.27435 0.907134
155 2 45.6851 9.17055 2.55751 45.6851 9.17055 2.55751
156 2 45.7252 9.37949 -0.69645 45.7252 9.37949 -0.69645
157 1 46.6564 7.629 0.836005 46.6564 7.629 0.836005
158 2 48.5746 7.51386 2.44411 48.5746 7.51386 2.44411
159 2 48.5439 7.7453 -0.808791 48.5439 7.7453 -0.808791
160 1 49.5111 9.27463 0.926766 49.5111 9.27463 0.926766
161 2 51.4727 9.19948 2.48468 51.4727 9.19948 2.48468
162 2 51.3536 9.35084 -0.770883 51.3536 9.35084 -0.770883
163 1 1.0789 10.9226 0.899876 1.0789 10.9226 0.899876
164 2 3.07686 10.8999 2.41286 3.07686 10.8999 2.41286
165 2 2.88066 10.9449 -0.842372 2.88066 10.9449 -0.842372
166 1 3.92967 12.5703 0.751856 3.92967 12.5703 0.751856
167 2 5.95237 12.6054 2.23107 5.95237 12.6054 2.23107
168 2 5.70132 12.5323 -1.02021 5.70132 12.5323 -1.02021
169 1 6.77713 10.9214 0.568878 6.77713 10.9214 0.568878
170 2 8.78344 10.9469 2.06976 8.78344 10.9469 2.06976
171 2 8.566 10.8932 -1.18471 8.566 10.8932 -1.18471
172 1 9.62189 12.566 0.3528 9.62189 12.566 0.3528
173 2 11.6245 12.6336 1.85679 11.6245 12.6336 1.85679
174 2 11.4135 12.4957 -1.39591 11.4135 12.4957 -1.39591
175 1 12.471 10.9192 0.23926 12.471 10.9192 0.23926
176 2 14.4546 10.9534 1.76881 14.4546 10.9534 1.76881
177 2 14.2831 10.8845 -1.48864 14.2831 10.8845 -1.48864
178 1 15.3156 12.5644 0.0552599 15.3156 12.5644 0.0552599
179 2 17.2719 12.6118 1.6189 17.2719 12.6118 1.6189
180 2 17.1568 12.5188 -1.64069 17.1568 12.5188 -1.64069
181 1 18.1664 10.9211 0.00389097 18.1664 10.9211 0.00389097
182 2 20.1113 10.9152 1.58221 20.1113 10.9152 1.58221
183 2 20.0196 10.9303 -1.67956 20.0196 10.9303 -1.67956
184 1 21.0137 12.5686 -0.0680087 21.0137 12.5686 -0.0680087
185 2 22.9148 12.5658 1.56297 22.9148 12.5658 1.56297
186 2 22.912 12.5752 -1.70017 22.912 12.5752 -1.70017
187 1 23.8651 10.9268 -0.0729299 23.8651 10.9268 -0.0729299
188 2 25.7457 10.8749 1.58089 25.7457 10.8749 1.58089
189 2 25.7836 10.9825 -1.68022 25.7836 10.9825 -1.68022
190 1 26.7128 12.5736 0.0160689 26.7128 12.5736 0.0160689
191 2 28.5472 12.537 1.72186 28.5472 12.537 1.72186
192 2 28.6755 12.6119 -1.53766 28.6755 12.6119 -1.53766
193 1 29.5628 10.9301 0.0924972 29.5628 10.9301 0.0924972
194 2 31.3709 10.8558 1.82528 31.3709 10.8558 1.82528
195 2 31.5496 11.0046 -1.42903 31.5496 11.0046 -1.42903
196 1 32.4065 12.574 0.326258 32.4065 12.574 0.326258
197 2 34.193 12.529 2.08293 34.193 12.529 2.08293
198 2 34.4136 12.6182 -1.17052 34.4136 12.6182 -1.17052
199 1 35.2535 10.927 0.476043 35.2535 10.927 0.476043
200 2 37.0383 10.8479 2.23358 37.0383 10.8479 2.23358
201 2 37.2633 11.0047 -1.01655 37.2633 11.0047 -1.01655
202 1 38.0973 12.5712 0.754423 38.0973 12.5712 0.754423
203 2 39.9021 12.5275 2.49346 39.9021 12.5275 2.49346
204 2 40.0921 12.6148 -0.760929 40.0921 12.6148 -0.760929
205 1 40.9477 10.9223 0.877947 40.9477 10.9223 0.877947
206 2 42.7884 10.8442 2.57783 42.7884 10.8442 2.57783
207 2 42.9117 11.0008 -0.67689 42.9117 11.0008 -0.67689
208 1 43.8003 12.5698 1.06657 43.8003 12.5698 1.06657
209 2 45.6924 12.5313 2.71114 45.6924 12.5313 2.71114
210 2 45.7175 12.6099 -0.548311 45.7175 12.6099 -0.548311
211 1 46.6565 10.9212 1.04883 46.6565 10.9212 1.04883
212 2 48.5922 10.8572 2.64034 48.5922 10.8572 2.64034
213 2 48.5288 10.9871 -0.61721 48.5288 10.9871 -0.61721
214 1 49.5136 12.5708 1.05968 49.5136 12.5708 1.05968
215 2 51.4984 12.5574 2.59095 51.4984 12.5574 2.59095
216 2 51.3328 12.5849 -0.665616 51.3328 12.5849 -0.665616
217 1 1.08138 14.22 0.929009 1.08138 14.22 0.929009
218 2 3.10602 14.263 2.40632 3.10602 14.263 2.40632
219 2 2.85339 14.1744 -0.843929 2.85339 14.1744 -0.843929
220 1 3.92883 15.8645 0.663195 3.92883 15.8645 0.663195
221 2 5.97547 15.9592 2.10648 5.97547 15.9592 2.10648
222 2 5.67185 15.7633 -1.13515 5.67185 15.7633 -1.13515
223 1 6.77456 14.2144 0.496053 6.77456 14.2144 0.496053
224 2 8.80314 14.2998 1.96451 8.80314 14.2998 1.96451
225 2 8.53733 14.1241 -1.28202 8.53733 14.1241 -1.28202
226 1 9.61525 15.8538 0.175146 9.61525 15.8538 0.175146
227 2 11.6243 15.9699 1.66773 11.6243 15.9699 1.66773
228 2 11.3998 15.7336 -1.57834 11.3998 15.7336 -1.57834
229 1 12.4647 14.2082 0.0994549 12.4647 14.2082 0.0994549
230 2 14.4416 14.2983 1.6356 14.4416 14.2983 1.6356
231 2 14.2844 14.1177 -1.6183 14.2844 14.1177 -1.6183
232 1 15.3097 15.8503 -0.128719 15.3097 15.8503 -0.128719
233 2 17.2431 15.9442 1.46173 17.2431 15.9442 1.46173
234 2 17.1763 15.76 -1.79521 17.1763 15.76 -1.79521
235 1 18.162 14.21 -0.0917854 18.162 14.21 -0.0917854
236 2 20.0768 14.2589 1.52264 20.0768 14.2589 1.52264
237 2 20.047 14.1651 -1.73894 20.047 14.1651 -1.73894
238 1 21.0108 15.8567 -0.164575 21.0108 15.8567 -0.164575
239 2 22.8811 15.9045 1.50137 22.8811 15.9045 1.50137
240 2 22.9401 15.8135 -1.75983 22.9401 15.8135 -1.75983
241 1 23.8621 14.2161 -0.0647258 23.8621 14.2161 -0.0647258
242 2 25.7183 14.221 1.61744 25.7183 14.221 1.61744
243 2 25.8044 14.2142 -1.64446 25.8044 14.2142 -1.64446
244 1 26.71 15.863 0.0083716 26.71 15.863 0.0083716
245 2 28.5303 15.8846 1.72976 28.5303 15.8846 1.72976
246 2 28.6864 15.8428 -1.52901 28.6864 15.8428 -1.52901
247 1 29.5589 14.2195 0.167932 29.5589 14.2195 0.167932
248 2 31.3605 14.2085 1.90926 31.3605 14.2085 1.90926
249 2 31.5521 14.2307 -1.34759 31.5521 14.2307 -1.34759
250 1 32.404 15.8654 0.348648 32.404 15.8654 0.348648
251 2 34.1909 15.8882 2.10545 34.1909 15.8882 2.10545
252 2 34.4114 15.8423 -1.14887 34.4114 15.8423 -1.14887
253 1 35.2501 14.2193 0.566548 35.2501 14.2193 0.566548
254 2 37.0368 14.2109 2.32424 37.0368 14.2109 2.32424
255 2 37.2589 14.2273 -0.929744 37.2589 14.2273 -0.929744
256 1 38.0965 15.8668 0.771156 38.0965 15.8668 0.771156
257 2 39.9041 15.8988 2.5076 39.9041 15.8988 2.5076
258 2 40.0891 15.8355 -0.74763 40.0891 15.8355 -0.74763
259 1 40.9462 14.2191 0.966713 40.9462 14.2191 0.966713
260 2 42.7903 14.2155 2.66527 42.7903 14.2155 2.66527
261 2 42.908 14.2237 -0.593232 42.908 14.2237 -0.593232
262 1 43.801 15.8694 1.07514 43.801 15.8694 1.07514
263 2 45.6979 15.9089 2.71447 45.6979 15.9089 2.71447
264 2 45.714 15.8308 -0.54497 45.714 15.8308 -0.54497
265 1 46.6578 14.2203 1.12923 46.6578 14.2203 1.12923
266 2 48.6062 14.2282 2.70747 48.6062 14.2282 2.70747
267 2 48.5184 14.2131 -0.551777 48.5184 14.2131 -0.551777
268 1 49.5156 15.8702 1.04507 49.5156 15.8702 1.04507
269 2 51.5173 15.9286 2.5537 51.5173 15.9286 2.5537
270 2 51.3168 15.8095 -0.698709 51.3168 15.8095 -0.698709
271 1 1.08136 17.5152 0.808864 1.08136 17.5152 0.808864
272 2 3.12345 17.6206 2.25858 3.12345 17.6206 2.25858
273 2 2.83233 17.4029 -0.982358 2.83233 17.4029 -0.982358
274 1 3.92422 19.1521 0.44273 3.92422 19.1521 0.44273
275 2 5.98203 19.2895 1.86597 5.98203 19.2895 1.86597
276 2 5.65273 19.0044 -1.36654 5.65273 19.0044 -1.36654
277 1 6.76877 17.502 0.298089 6.76877 17.502 0.298089
278 2 8.81027 17.631 1.74513 8.81027 17.631 1.74513
279 2 8.51593 17.3652 -1.49272 8.51593 17.3652 -1.49272
280 1 9.60699 19.1351 -0.0944777 9.60699 19.1351 -0.0944777
281 2 11.6129 19.2746 1.40053 11.6129 19.2746 1.40053
282 2 11.3961 18.9921 -1.84214 11.3961 18.9921 -1.84214
283 1 12.4574 17.4912 -0.140452 12.4574 17.4912 -0.140452
284 2 14.4227 17.6155 1.40874 14.4227 17.6155 1.40874
285 2 14.2911 17.3681 -1.84172 14.2911 17.3681 -1.84172
286 1 15.3049 19.1318 -0.380349 15.3049 19.1318 -0.380349
287 2 17.2144 19.2469 1.23838 17.2144 19.2469 1.23838
288 2 17.1981 19.0234 -2.01644 17.1981 19.0234 -2.01644
289 1 18.1585 17.4947 -0.279706 18.1585 17.4947 -0.279706
290 2 20.0428 17.5816 1.36933 20.0428 17.5816 1.36933
291 2 20.0753 17.4144 -1.88904 20.0753 17.4144 -1.88904
292 1 21.0091 19.1416 -0.335226 21.0091 19.1416 -0.335226
293 2 22.8526 19.2209 1.35984 22.8526 19.2209 1.35984
294 2 22.9653 19.0691 -1.89739 22.9653 19.0691 -1.89739
295 1 23.8601 17.5038 -0.158206 23.8601 17.5038 -0.158206
296 2 25.6941 17.5562 1.54773 25.6941 17.5562 1.54773
297 2 25.8242 17.4551 -1.71093 25.8242 17.4551 -1.71093
298 1 26.7088 19.1505 -0.0946237 26.7088 19.1505 -0.0946237
299 2 28.5202 19.2172 1.6351 28.5202 19.2172 1.6351
300 2 28.6942 19.0859 -1.62019 28.6942 19.0859 -1.62019
301 1 29.5571 17.5092 0.125212 29.5571 17.5092 0.125212
302 2 31.3556 17.5572 1.86928 31.3556 17.5572 1.86928
303 2 31.5539 17.4617 -1.38573 31.5539 17.4617 -1.38573
304 1 32.4043 19.155 0.251928 32.4043 19.155 0.251928
305 2 34.1961 19.2354 2.00202 34.1961 19.2354 2.00202
306 2 34.4079 19.0748 -1.24923 34.4079 19.0748 -1.24923
307 1 35.25 17.512 0.520113 35.25 17.512 0.520113
308 2 37.041 17.5732 2.27234 37.041 17.5732 2.27234
309 2 37.2554 17.4513 -0.979983 37.2554 17.4513 -0.979983
310 1 38.0987 19.1594 0.647672 38.0987 19.1594 0.647672
311 2 39.9111 19.2586 2.37612 39.9111 19.2586 2.37612
312 2 40.0864 19.0615 -0.874513 40.0864 19.0615 -0.874513
313 1 40.9475 17.516 0.902505 40.9475 17.516 0.902505
314 2 42.7942 17.5889 2.59646 42.7942 17.5889 2.59646
315 2 42.9064 17.4445 -0.659175 42.9064 17.4445 -0.659175
316 1 43.8028 19.1649 0.928685 43.8028 19.1649 0.928685
317 2 45.7021 19.2759 2.56117 45.7021 19.2759 2.56117
318 2 45.712 19.054 -0.692002 45.712 19.054 -0.692002
319 1 46.6592 17.5193 1.05028 46.6592 17.5193 1.05028
320 2 48.6147 17.6025 2.61724 48.6147 17.6025 2.61724
321 2 48.5119 17.4346 -0.637355 48.5119 17.4346 -0.637355
322 1 49.5155 19.1646 0.874911 49.5155 19.1646 0.874911
323 2 51.5255 19.287 2.36783 51.5255 19.287 2.36783
324 2 51.306 19.0362 -0.876074 51.306 19.0362 -0.876074
325 1 1.07739 20.8018 0.554356 1.07739 20.8018 0.554356
326 2 3.12422 20.9499 1.99237 3.12422 20.9499 1.99237
327 2 2.82076 20.6433 -1.24048 2.82076 20.6433 -1.24048
328 1 3.91638 22.4315 0.131249 3.91638 22.4315 0.131249
329 2 5.96958 22.5828 1.5586 5.96958 22.5828 1.5586
330 2 5.64933 22.2695 -1.6723 5.64933 22.2695 -1.6723
331 1 6.76055 20.7824 0.00864097 6.76055 20.7824 0.00864097
332 2 8.80081 20.9287 1.45546 8.80081 20.9287 1.45546
333 2 8.50932 20.6281 -1.77946 8.50932 20.6281 -1.77946
334 1 9.59964 22.4136 -0.400094 9.59964 22.4136 -0.400094
335 2 11.5923 22.5476 1.11343 11.5923 22.5476 1.11343
336 2 11.4054 22.2793 -2.13201 11.4054 22.2793 -2.13201
337 1 12.451 20.7707 -0.427531 12.451 20.7707 -0.427531
338 2 14.3998 20.9005 1.1428 14.3998 20.9005 1.1428
339 2 14.3047 20.645 -2.10795 14.3047 20.645 -2.10795
340 1 15.3022 22.4133 -0.639952 15.3022 22.4133 -0.639952
341 2 17.1896 22.5223 1.00576 17.1896 22.5223 1.00576
342 2 17.2193 22.3137 -2.24958 17.2193 22.3137 -2.24958
343 1 18.1565 20.7773 -0.507096 18.1565 20.7773 -0.507096
344 2 20.0147 20.8762 1.17148 20.0147 20.8762 1.17148
345 2 20.1002 20.6875 -2.08441 20.1002 20.6875 -2.08441
346 1 21.0084 22.4258 -0.527104 21.0084 22.4258 -0.527104
347 2 22.8341 22.5127 1.18725 22.8341 22.5127 1.18725
348 2 22.9823 22.347 -2.06758 22.9823 22.347 -2.06758
349 1 23.8592 20.7893 -0.312719 23.8592 20.7893 -0.312719
350 2 25.6787 20.8687 1.40809 25.6787 20.8687 1.40809
351 2 25.8379 20.7147 -1.84694 25.8379 20.7147 -1.84694
352 1 26.7088 22.4362 -0.250618 26.7088 22.4362 -0.250618
353 2 28.5204 22.5263 1.47776 28.5204 22.5263 1.47776
354 2 28.6947 22.3485 -1.77513 28.6947 22.3485 -1.77513
355 1 29.5574 20.7963 -0.00777359 29.5574 20.7963 -0.00777359
356 2 31.3593 20.8859 1.731 31.3593 20.8859 1.731
357 2 31.5518 20.7075 -1.52076 31.5518 20.7075 -1.52076
358 1 32.4064 22.4411 0.0715858 32.4064 22.4411 0.0715858
359 2 34.2087 22.5567 1.80836 34.2087 22.5567 1.80836
360 2 34.4008 22.3255 -1.4399 34.4008 22.3255 -1.4399
361 1 35.2526 20.8006 0.357529 35.2526 20.8006 0.357529
362 2 37.0517 20.9143 2.09827 37.0517 20.9143 2.09827
363 2 37.2505 20.6876 -1.14958 37.2505 20.6876 -1.14958
364 1 38.1025 22.4456 0.418047 38.1025 22.4456 0.418047
365 2 39.9222 22.5877 2.1348 39.9222 22.5877 2.1348
366 2 40.0824 22.3047 -1.11063 40.0824 22.3047 -1.11063
367 1 40.9505 20.8065 0.702559 40.9505 20.8065 0.702559
368 2 42.8004 20.9391 2.38833 42.8004 20.9391 2.38833
369 2 42.9048 20.6751 -0.860485 42.9048 20.6751 -0.860485
370 1 43.8046 22.4513 0.660763 43.8046 22.4513 0.660763
371 2 45.7047 22.6082 2.28686 45.7047 22.6082 2.28686
372 2 45.7103 22.2934 -0.959256 45.7103 22.2934 -0.959256
373 1 46.6595 20.8102 0.825155 46.6595 20.8102 0.825155
374 2 48.6171 20.9525 2.38392 48.6171 20.9525 2.38392
375 2 48.5078 20.6643 -0.862511 48.5078 20.6643 -0.862511
376 1 49.5124 22.4487 0.582472 49.5124 22.4487 0.582472
377 2 51.5214 22.6086 2.07119 51.5214 22.6086 2.07119
378 2 51.3009 22.2804 -1.16627 51.3009 22.2804 -1.16627
379 1 1.07043 24.0799 0.221057 1.07043 24.0799 0.221057
380 2 3.10882 24.2358 1.6683 3.10882 24.2358 1.6683
381 2 2.82135 23.9135 -1.56487 2.82135 23.9135 -1.56487
382 1 3.90864 25.7088 -0.196702 3.90864 25.7088 -0.196702
383 2 5.94454 25.8387 1.25623 5.94454 25.8387 1.25623
384 2 5.66165 25.5719 -1.98242 5.66165 25.5719 -1.98242
385 1 6.75269 24.0602 -0.310135 6.75269 24.0602 -0.310135
386 2 8.77824 24.1932 1.15817 8.77824 24.1932 1.15817
387 2 8.51944 23.9227 -2.08206 8.51944 23.9227 -2.08206
388 1 9.59562 25.696 -0.675456 9.59562 25.696 -0.675456
389 2 11.5692 25.7988 0.865459 11.5692 25.7988 0.865459
390 2 11.4237 25.5963 -2.38663 11.4237 25.5963 -2.38663
391 1 12.4475 24.0525 -0.70025 12.4475 24.0525 -0.70025
392 2 14.3773 24.162 0.895499 14.3773 24.162 0.895499
393 2 14.3228 23.95 -2.35896 14.3228 23.95 -2.35896
394 1 15.3015 25.6993 -0.855052 15.3015 25.6993 -0.855052
395 2 17.1729 25.784 0.810702 17.1729 25.784 0.810702
396 2 17.2353 25.6245 -2.44666 17.2353 25.6245 -2.44666
397 1 18.1559 24.0617 -0.718811 18.1559 24.0617 -0.718811
398 2 19.9965 24.1507 0.980197 19.9965 24.1507 0.980197
399 2 20.1174 23.9829 -2.27541 20.1174 23.9829 -2.27541
400 1 21.0082 25.712 -0.69701 21.0082 25.712 -0.69701
401 2 22.8281 25.7914 1.02404 22.8281 25.7914 1.02404
402 2 22.988 25.6408 -2.23075 22.988 25.6408 -2.23075
403 1 23.8589 24.0746 -0.480594 23.8589 24.0746 -0.480594
404 2 25.6749 24.1603 1.24372 25.6749 24.1603 1.24372
405 2 25.8416 23.9942 -2.01012 25.8416 23.9942 -2.01012
406 1 26.7091 25.722 -0.418236 26.7091 25.722 -0.418236
407 2 28.5302 25.816 1.29983 28.5302 25.816 1.29983
408 2 28.6871 25.6301 -1.95337 28.6871 25.6301 -1.95337
409 1 29.5585 24.0816 -0.187335 29.5585 24.0816 -0.187335
410 2 31.3716 24.1889 1.53846 31.3716 24.1889 1.53846
411 2 31.5434 23.9746 -1.71222 31.5434 23.9746 -1.71222
412 1 32.4088 25.7255 -0.144741 32.4088 25.7255 -0.144741
413 2 34.2265 25.8494 1.57478 34.2265 25.8494 1.57478
414 2 34.3893 25.6005 -1.67382 34.3893 25.6005 -1.67382
415 1 35.2561 24.0848 0.123731 35.2561 24.0848 0.123731
416 2 37.067 24.2229 1.84957 37.067 24.2229 1.84957
417 2 37.2428 23.9467 -1.39598 37.2428 23.9467 -1.39598
418 1 38.1061 25.7277 0.138483 38.1061 25.7277 0.138483
419 2 39.9351 25.8794 1.84346 39.9351 25.8794 1.84346
420 2 40.0761 25.5761 -1.40141 40.0761 25.5761 -1.40141
421 1 40.9538 24.0894 0.415677 40.9538 24.0894 0.415677
422 2 42.8077 24.2499 2.09311 42.8077 24.2499 2.09311
423 2 42.902 23.9295 -1.1515 42.902 23.9295 -1.1515
424 1 43.8056 25.7309 0.335865 43.8056 25.7309 0.335865
425 2 45.7051 25.8953 1.95998 45.7051 25.8953 1.95998
426 2 45.7087 25.5647 -1.28525 45.7087 25.5647 -1.28525
427 1 46.6583 24.0913 0.505694 46.6583 24.0913 0.505694
428 2 48.613 24.2582 2.06343 48.613 24.2582 2.06343
429 2 48.5061 23.9196 -1.17892 48.5061 23.9196 -1.17892
430 1 49.5075 25.7258 0.238846 49.5075 25.7258 0.238846
431 2 51.5073 25.8822 1.73808 51.5073 25.8822 1.73808
432 2 51.3032 25.5613 -1.50178 51.3032 25.5613 -1.50178
433 1 1.06407 27.3575 -0.10511 1.06407 27.3575 -0.10511
434 2 3.08491 27.4817 1.36797 3.08491 27.4817 1.36797
435 2 2.83375 27.2257 -1.87447 2.83375 27.2257 -1.87447
436 1 3.9049 28.9922 -0.457543 3.9049 28.9922 -0.457543
437 2 5.91845 29.0715 1.02906 5.91845 29.0715 1.02906
438 2 5.68369 28.9099 -2.22048 5.68369 28.9099 -2.22048
439 1 6.74852 27.3431 -0.582117 6.74852 27.3431 -0.582117
440 2 8.75295 27.4351 0.917684 8.75295 27.4351 0.917684
441 2 8.54011 27.2506 -2.33183 8.54011 27.2506 -2.33183
442 1 9.59574 28.9859 -0.863397 9.59574 28.9859 -0.863397
443 2 11.5526 29.0416 0.700963 11.5526 29.0416 0.700963
444 2 11.442 28.9345 -2.55695 11.442 28.9345 -2.55695
445 1 12.4471 27.3406 -0.905948 12.4471 27.3406 -0.905948
446 2 14.3616 27.4138 0.710432 14.3616 27.4138 0.710432
447 2 14.3387 27.2749 -2.54814 14.3387 27.2749 -2.54814
448 1 15.3023 28.9904 -0.995585 15.3023 28.9904 -0.995585
449 2 17.169 29.046 0.676553 17.169 29.046 0.676553
450 2 17.2405 28.943 -2.5828 17.2405 28.943 -2.5828
451 1 18.156 27.3499 -0.880221 18.156 27.3499 -0.880221
452 2 19.9907 27.4204 0.8261 19.9907 27.4204 0.8261
453 2 20.1233 27.2888 -2.43054 20.1233 27.2888 -2.43054
454 1 21.0084 29.0008 -0.829606 21.0084 29.0008 -0.829606
455 2 22.8342 29.0706 0.885512 22.8342 29.0706 0.885512
456 2 22.9829 28.9382 -2.3705 22.9829 28.9382 -2.3705
457 1 23.859 27.3616 -0.632514 23.859 27.3616 -0.632514
458 2 25.6817 27.4429 1.08485 25.6817 27.4429 1.08485
459 2 25.8359 27.2853 -2.1699 25.8359 27.2853 -2.1699
460 1 26.7101 29.0093 -0.576912 26.7101 29.0093 -0.576912
461 2 28.5451 29.0981 1.12631 28.5451 29.0981 1.12631
462 2 28.6754 28.922 -2.12854 28.6754 28.922 -2.12854
463 1 29.5599 27.3674 -0.374653 29.5599 27.3674 -0.374653
464 2 31.389 27.4727 1.33381 31.389 27.4727 1.33381
465 2 31.5302 27.2614 -1.9185 31.5302 27.2614 -1.9185
466 1 32.4108 29.011 -0.357765 32.4108 29.011 -0.357765
467 2 34.2446 29.1239 1.34484 34.2446 29.1239 1.34484
468 2 34.3763 28.896 -1.90675 34.3763 28.896 -1.90675
469 1 35.259 27.3682 -0.127702 35.259 27.3682 -0.127702
470 2 37.0839 27.5022 1.58297 37.0839 27.5022 1.58297
471 2 37.2324 27.2329 -1.6647 37.2324 27.2329 -1.6647
472 1 38.1086 29.0105 -0.133817 38.1086 29.0105 -0.133817
473 2 39.9465 29.1437 1.56233 39.9465 29.1437 1.56233
474 2 40.0693 28.8764 -1.68671 40.0693 28.8764 -1.68671
475 1 40.9561 27.3699 0.108564 40.9561 27.3699 0.108564
476 2 42.8142 27.522 1.78078 42.8142 27.522 1.78078
477 2 42.8982 27.2172 -1.46612 42.8982 27.2172 -1.46612
478 1 43.8059 29.0109 0.0271327 43.8059 29.0109 0.0271327
479 2 45.7029 29.1472 1.65543 45.7029 29.1472 1.65543
480 2 45.7092 28.8725 -1.59553 45.7092 28.8725 -1.59553
481 1 46.6562 27.3691 0.170431 46.6562 27.3691 0.170431
482 2 48.6042 27.5188 1.73643 48.6042 27.5188 1.73643
483 2 48.508 27.2145 -1.51029 48.508 27.2145 -1.51029
484 1 49.5037 29.0049 -0.0700665 49.5037 29.0049 -0.0700665
485 2 51.4884 29.1198 1.45118 51.4884 29.1198 1.45118
486 2 51.3138 28.8839 -1.79815 51.3138 28.8839 -1.79815
487 1 1.06154 30.6419 -0.345087 1.06154 30.6419 -0.345087
488 2 3.06094 30.7081 1.15985 3.06094 30.7081 1.15985
489 2 2.85491 30.5714 -2.09322 2.85491 30.5714 -2.09322
490 1 3.9062 32.2833 -0.597133 3.9062 32.2833 -0.597133
491 2 5.89869 32.3 0.919128 5.89869 32.3 0.919128
492 2 5.70843 32.2654 -2.33731 5.70843 32.2654 -2.33731
493 1 6.74929 30.6339 -0.747124 6.74929 30.6339 -0.747124
494 2 8.73458 30.6694 0.779844 8.73458 30.6694 0.779844
495 2 8.56204 30.5997 -2.47661 8.56204 30.5997 -2.47661
496 1 9.59904 32.2811 -0.934416 9.59904 32.2811 -0.934416
497 2 11.548 32.2865 0.639965 11.548 32.2865 0.639965
498 2 11.4525 32.279 -2.62031 11.4525 32.279 -2.62031
499 1 12.4489 30.6344 -1.01452 12.4489 30.6344 -1.01452
500 2 14.3584 30.6673 0.608636 14.3584 30.6673 0.608636
501 2 14.345 30.6073 -2.6524 14.345 30.6073 -2.6524
502 1 15.3037 32.2846 -1.05561 15.3037 32.2846 -1.05561
503 2 17.1802 32.3136 0.605565 17.1802 32.3136 0.605565
504 2 17.2317 32.2612 -2.65543 17.2317 32.2612 -2.65543
505 1 18.1566 30.6413 -0.983723 18.1566 30.6413 -0.983723
506 2 19.9992 30.6955 0.714485 19.9992 30.6955 0.714485
507 2 20.1165 30.5945 -2.54379 20.1165 30.5945 -2.54379
508 1 21.0095 32.2916 -0.930876 21.0095 32.2916 -0.930876
509 2 22.8505 32.3546 0.767974 22.8505 32.3546 0.767974
510 2 22.97 32.2344 -2.48968 22.97 32.2344 -2.48968
511 1 23.86 30.6504 -0.765576 23.86 30.6504 -0.765576
512 2 25.6953 30.727 0.938395 25.6953 30.727 0.938395
513 2 25.8254 30.5781 -2.31774 25.8254 30.5781 -2.31774
514 1 26.712 32.2981 -0.726814 26.712 32.2981 -0.726814
515 2 28.5595 32.3804 0.963094 28.5595 32.3804 0.963094
516 2 28.6656 32.2171 -2.29323 28.6656 32.2171 -2.29323
517 1 29.5616 30.6548 -0.551975 29.5616 30.6548 -0.551975
518 2 31.4054 30.7493 1.14099 31.4054 30.7493 1.14099
519 2 31.5182 30.5591 -2.1137 31.5182 30.5591 -2.1137
520 1 32.413 32.2987 -0.5497 32.413 32.2987 -0.5497
521 2 34.2575 32.3919 1.14231 34.2575 32.3919 1.14231
522 2 34.3683 32.2032 -2.11258 34.3683 32.2032 -2.11258
523 1 35.2612 30.6537 -0.357789 35.2612 30.6537 -0.357789
524 2 37.0977 30.7658 1.34158 37.0977 30.7658 1.34158
525 2 37.2234 30.5397 -1.91046 37.2234 30.5397 -1.91046
526 1 38.1107 32.2969 -0.362334 38.1107 32.2969 -0.362334
527 2 39.9527 32.3962 1.33125 39.9527 32.3962 1.33125
528 2 40.0668 32.1963 -1.92312 40.0668 32.1963 -1.92312
529 1 40.9577 30.6531 -0.161911 40.9577 30.6531 -0.161911
530 2 42.8175 30.7715 1.51044 42.8175 30.7715 1.51044
531 2 42.8968 30.5336 -1.74249 42.8968 30.5336 -1.74249
532 1 43.8066 32.2958 -0.213882 43.8066 32.2958 -0.213882
533 2 45.6965 32.3842 1.42534 45.6965 32.3842 1.42534
534 2 45.7156 32.2055 -1.83258 45.7156 32.2055 -1.83258
535 1 46.655 30.6509 -0.108055 46.655 30.6509 -0.108055
536 2 48.592 30.7534 1.47418 48.592 30.7534 1.47418
537 2 48.5163 30.5444 -1.78104 48.5163 30.5444 -1.78104
538 1 49.5027 32.2908 -0.282292 49.5027 32.2908 -0.282292
539 2 51.4683 32.3454 1.2664 51.4683 32.3454 1.2664
540 2 51.3329 32.2323 -1.99166 51.3329 32.2323 -1.99166