ITEM: TIMESTEP
21000
ITEM: NUMBER OF ATOMS
810
ITEM: BOX BOUNDS pp pp pp
8.4438390920566120e-01 5.2173221090793916e+01
8.1559855033108175e-01 5.0200616449667727e+01
-1.0000000000000000e+01 1.0000000000000000e+01
ITEM: ATOMS id type x y z xu yu zu
1 1 1.0487 1.02866 -0.355458 1.0487 1.02866 -0.355458
2 2 2.91497 1.08361 1.31511 2.91497 1.08361 1.31511
3 2 2.98445 0.973913 -1.94448 2.98445 0.973913 -1.94448
4 1 3.9005 2.67477 -0.349928 3.9005 2.67477 -0.349928
5 2 5.75862 2.72766 1.32969 5.75862 2.72766 1.32969
6 2 5.84401 2.62209 -1.92965 5.84401 2.62209 -1.92965
7 1 6.7514 1.02949 -0.221624 6.7514 1.02949 -0.221624
8 2 8.60782 1.08433 1.45973 8.60782 1.08433 1.45973
9 2 8.6964 0.974763 -1.79941 8.6964 0.974763 -1.79941
10 1 9.6028 2.67562 -0.19949 9.6028 2.67562 -0.19949
11 2 11.4612 2.7283 1.47958 11.4612 2.7283 1.47958
12 2 11.5459 2.62305 -1.77983 11.5459 2.62305 -1.77983
13 1 12.4537 1.03035 -0.0721788 12.4537 1.03035 -0.0721788
14 2 14.3206 1.08508 1.59731 14.3206 1.08508 1.59731
15 2 14.3887 0.975645 -1.66234 14.3887 0.975645 -1.66234
16 1 15.3054 2.67634 -0.068108 15.3054 2.67634 -0.068108
17 2 17.1832 2.72872 1.58898 17.1832 2.72872 1.58898
18 2 17.2298 2.62398 -1.67123 17.2298 2.62398 -1.67123
19 1 18.157 1.0309 0.0254215 18.157 1.0309 0.0254215
20 2 20.0503 1.08534 1.6648 20.0503 1.08534 1.6648
21 2 20.0665 0.976409 -1.59554 20.0665 0.976409 -1.59554
22 1 21.0091 2.67662 -0.015886 21.0091 2.67662 -0.015886
23 2 22.917 2.72867 1.60632 22.917 2.72867 1.60632
24 2 22.9038 2.62451 -1.65422 22.9038 2.62451 -1.65422
25 1 23.8612 1.03088 0.0248033 23.8612 1.03088 0.0248033
26 2 25.7846 1.0852 1.62865 25.7846 1.0852 1.62865
27 2 25.7402 0.976412 -1.63143 25.7402 0.976412 -1.63143
28 1 26.7128 2.67628 -0.0695054 26.7128 2.67628 -0.0695054
29 2 28.6473 2.72828 1.52092 28.6473 2.72828 1.52092
30 2 28.5802 2.62414 -1.73894 28.5802 2.62414 -1.73894
31 1 29.5645 1.03023 -0.0759815 29.5645 1.03023 -0.0759815
32 2 31.5073 1.08494 1.50431 31.5073 1.08494 1.50431
33 2 31.4232 0.97535 -1.75495 31.4232 0.97535 -1.75495
34 1 32.4153 2.67544 -0.205422 32.4153 2.67544 -0.205422
35 2 34.36 2.72784 1.37263 34.36 2.72784 1.37263
36 2 34.2719 2.62295 -1.88668 34.2719 2.62295 -1.88668
37 1 35.2666 1.02926 -0.229697 35.2666 1.02926 -0.229697
38 2 37.2091 1.08453 1.35127 37.2091 1.08453 1.35127
39 2 37.1258 0.973903 -1.90797 37.1258 0.973903 -1.90797
40 1 38.1175 2.67453 -0.358684 38.1175 2.67453 -0.358684
41 2 40.0514 2.72739 1.23287 40.0514 2.72739 1.23287
42 2 39.9858 2.6217 -2.0269 39.9858 2.6217 -2.0269
43 1 40.9694 1.02845 -0.362684 40.9694 1.02845 -0.362684
44 2 42.8919 1.0839 1.24268 42.8919 1.0839 1.24268
45 2 42.8494 0.973077 -2.01732 42.8494 0.973077 -2.01732
46 1 43.8212 2.674 -0.455788 43.8212 2.674 -0.455788
47 2 45.7284 2.72708 1.16794 45.7284 2.72708 1.16794
48 2 45.717 2.62111 -2.09245 45.717 2.62111 -2.09245
49 1 46.6735 1.02822 -0.411904 46.6735 1.02822 -0.411904
50 2 48.5658 1.08345 1.22907 48.5658 1.08345 1.22907
51 2 48.584 0.973207 -2.03118 48.584 0.973207 -2.03118
52 1 49.5258 2.67412 -0.451517 49.5258 2.67412 -0.451517
53 2 51.403 2.72717 1.20689 51.403 2.72717 1.20689
54 2 51.4512 2.62132 -2.05317 51.4512 2.62132 -2.05317
55 1 1.04912 4.32029 -0.462649 1.04912 4.32029 -0.462649
56 2 2.91404 4.36909 1.20964 2.91404 4.36909 1.20964
57 2 2.98639 4.27175 -2.05023 2.98639 4.27175 -2.05023
58 1 3.90103 5.9667 -0.448514 3.90103 5.9667 -0.448514
59 2 5.75779 6.00909 1.23291 5.75779 6.00909 1.23291
60 2 5.84596 5.92453 -2.02694 5.84596 5.92453 -2.02694
61 1 6.75205 4.32103 -0.328552 6.75205 4.32103 -0.328552
62 2 8.60696 4.36949 1.35461 8.60696 4.36949 1.35461
63 2 8.69852 4.27274 -1.90485 8.69852 4.27274 -1.90485
64 1 9.6034 5.96738 -0.29749 9.6034 5.96738 -0.29749
65 2 11.4602 6.00914 1.38352 11.4602 6.00914 1.38352
66 2 11.5479 5.92576 -1.87645 11.5479 5.92576 -1.87645
67 1 12.4542 4.32178 -0.178788 12.4542 4.32178 -0.178788
68 2 14.3195 4.36983 1.49263 14.3195 4.36983 1.49263
69 2 14.3907 4.27382 -1.76741 14.3907 4.27382 -1.76741
70 1 15.3057 5.96794 -0.165343 15.3057 5.96794 -0.165343
71 2 17.182 6.00918 1.49374 17.182 6.00918 1.49374
72 2 17.2316 5.92679 -1.76712 17.2316 5.92679 -1.76712
73 1 18.1572 4.32226 -0.0806597 18.1572 4.32226 -0.0806597
74 2 20.0487 4.36991 1.56076 20.0487 4.36991 1.56076
75 2 20.0682 4.27463 -1.70006 20.0682 4.27463 -1.70006
76 1 21.0091 5.96816 -0.112371 21.0091 5.96816 -0.112371
77 2 22.9154 6.00893 1.51185 22.9154 6.00893 1.51185
78 2 22.9051 5.92738 -1.74941 22.9051 5.92738 -1.74941
79 1 23.8609 4.32224 -0.0806812 23.8609 4.32224 -0.0806812
80 2 25.7827 4.36954 1.5251 25.7827 4.36954 1.5251
81 2 25.7414 4.27487 -1.73552 25.7414 4.27487 -1.73552
82 1 26.7124 5.96788 -0.16538 26.7124 5.96788 -0.16538
83 2 28.6455 6.00829 1.42691 28.6455 6.00829 1.42691
84 2 28.581 5.92742 -1.83371 28.581 5.92742 -1.83371
85 1 29.5639 4.32166 -0.181443 29.5639 4.32166 -0.181443
86 2 31.5054 4.36897 1.40049 31.5054 4.36897 1.40049
87 2 31.4238 4.27427 -1.85932 31.4238 4.27427 -1.85932
88 1 32.4147 5.96722 -0.301327 32.4147 5.96722 -0.301327
89 2 34.3583 6.00775 1.27827 34.3583 6.00775 1.27827
90 2 34.2724 5.92667 -1.98177 34.2724 5.92667 -1.98177
91 1 35.266 4.32081 -0.335918 35.266 4.32081 -0.335918
92 2 37.2073 4.36856 1.24655 37.2073 4.36856 1.24655
93 2 37.1263 4.27306 -2.01319 37.1263 4.27306 -2.01319
94 1 38.117 5.96651 -0.455394 38.117 5.96651 -0.455394
95 2 40.05 6.00771 1.13753 40.05 6.00771 1.13753
96 2 39.9863 5.9254 -2.12291 39.9863 5.9254 -2.12291
97 1 40.9689 4.3201 -0.469718 40.9689 4.3201 -0.469718
98 2 42.8903 4.36844 1.13724 42.8903 4.36844 1.13724
99 2 42.8504 4.27191 -2.12318 42.8504 4.27191 -2.12318
100 1 43.821 5.96609 -0.553538 43.821 5.96609 -0.553538
101 2 45.7273 6.00818 1.07156 45.7273 6.00818 1.07156
102 2 45.7179 5.92422 -2.18941 45.7179 5.92422 -2.18941
103 1 46.6735 4.31991 -0.519214 46.6735 4.31991 -0.519214
104 2 48.5646 4.36867 1.12344 48.5646 4.36867 1.12344
105 2 48.5855 4.2714 -2.13713 48.5855 4.2714 -2.13713
106 1 49.526 5.96618 -0.550016 49.526 5.96618 -0.550016
107 2 51.4021 6.00879 1.10992 51.4021 6.00879 1.10992
108 2 51.4527 5.92384 -2.15066 51.4527 5.92384 -2.15066
109 1 1.04947 7.61275 -0.548685 1.04947 7.61275 -0.548685
110 2 2.91336 7.64735 1.12514 2.91336 7.64735 1.12514
111 2 2.98791 7.57837 -2.13536 2.98791 7.57837 -2.13536
112 1 3.90143 9.2595 -0.518399 3.90143 9.2595 -0.518399
113 2 5.75704 9.28437 1.16464 5.75704 9.28437 1.16464
114 2 5.84754 9.23479 -2.09585 5.84754 9.23479 -2.09585
115 1 6.75258 7.61327 -0.41421 6.75258 7.61327 -0.41421
116 2 8.60605 7.6472 1.27086 8.60605 7.6472 1.27086
117 2 8.70045 7.57949 -1.98925 8.70045 7.57949 -1.98925
118 1 9.60383 9.2599 -0.36609 9.60383 9.2599 -0.36609
119 2 11.4593 9.28377 1.31675 11.4593 9.28377 1.31675
120 2 11.5496 9.23612 -1.94388 11.5496 9.23612 -1.94388
121 1 12.4547 7.61379 -0.263246 12.4547 7.61379 -0.263246
122 2 14.3184 7.64693 1.41009 14.3184 7.64693 1.41009
123 2 14.3925 7.58074 -1.85067 14.3925 7.58074 -1.85067
124 1 15.306 9.26021 -0.23238 15.306 9.26021 -0.23238
125 2 17.181 9.28334 1.42835 17.181 9.28334 1.42835
126 2 17.2329 9.23712 -1.83322 17.2329 9.23712 -1.83322
127 1 18.1574 7.61411 -0.164096 18.1574 7.61411 -0.164096
128 2 20.0475 7.64673 1.47919 20.0475 7.64673 1.47919
129 2 20.0695 7.58155 -1.7824 20.0695 7.58155 -1.7824
130 1 21.0091 9.26031 -0.178373 21.0091 9.26031 -0.178373
131 2 22.9142 9.28285 1.44749 22.9142 9.28285 1.44749
132 2 22.9062 9.23776 -1.81453 22.9062 9.23776 -1.81453
133 1 23.8607 7.61409 -0.163265 23.8607 7.61409 -0.163265
134 2 25.7811 7.64614 1.44439 25.7811 7.64614 1.44439
135 2 25.7424 7.58201 -1.81705 25.7424 7.58201 -1.81705
136 1 26.7121 9.26013 -0.230324 26.7121 9.26013 -0.230324
137 2 28.6441 9.28204 1.36356 28.6441 9.28204 1.36356
138 2 28.5818 9.23821 -1.89783 28.5818 9.23821 -1.89783
139 1 29.5634 7.61368 -0.263342 29.5634 7.61368 -0.263342
140 2 31.5039 7.64542 1.32022 31.5039 7.64542 1.32022
141 2 31.4244 7.58192 -1.94042 31.4244 7.58192 -1.94042
142 1 32.4143 9.25976 -0.365633 32.4143 9.25976 -0.365633
143 2 34.3573 9.28158 1.21514 34.3573 9.28158 1.21514
144 2 34.2728 9.23797 -2.04565 34.2728 9.23797 -2.04565
145 1 35.2654 7.6131 -0.418024 35.2654 7.6131 -0.418024
146 2 37.2061 7.64525 1.16568 37.2061 7.64525 1.16568
147 2 37.1266 7.58101 -2.09485 37.1266 7.58101 -2.09485
148 1 38.1166 9.25938 -0.520435 38.1166 9.25938 -0.520435
149 2 40.0494 9.28205 1.07317 40.0494 9.28205 1.07317
150 2 39.9863 9.2368 -2.18797 39.9863 9.2368 -2.18797
151 1 40.9686 7.61263 -0.553063 40.9686 7.61263 -0.553063
152 2 42.8895 7.64584 1.05489 42.8895 7.64584 1.05489
153 2 42.8507 7.57956 -2.20626 42.8507 7.57956 -2.20626
154 1 43.8208 9.25916 -0.620639 43.8208 9.25916 -0.620639
155 2 45.7271 9.28328 1.00498 45.7271 9.28328 1.00498
156 2 45.7181 9.23518 -2.25666 45.7181 9.23518 -2.25666
157 1 46.6735 7.61249 -0.60422 46.6735 7.61249 -0.60422
158 2 48.564 7.64681 1.03952 48.564 7.64681 1.03952
159 2 48.5863 7.57839 -2.22171 48.5863 7.57839 -2.22171
160 1 49.5261 9.2592 -0.619299 49.5261 9.2592 -0.619299
161 2 51.4018 9.28434 1.04158 51.4018 9.28434 1.04158
162 2 51.4535 9.23425 -2.21966 51.4535 9.23425 -2.21966
163 1 1.04969 10.9061 -0.599417 1.04969 10.9061 -0.599417
164 2 2.91302 10.9207 1.07536 2.91302 10.9207 1.07536
165 2 2.98879 10.8916 -2.18569 2.98879 10.8916 -2.18569
166 1 3.90163 12.553 -0.547951 3.90163 12.553 -0.547951
167 2 5.75654 12.5562 1.13606 5.75654 12.5562 1.13606
168 2 5.84846 12.5498 -2.12475 5.84846 12.5498 -2.12475
169 1 6.75292 10.9063 -0.46445 6.75292 10.9063 -0.46445
170 2 8.60521 10.9201 1.22219 8.60521 10.9201 1.22219
171 2 8.70193 10.8926 -2.03843 8.70193 10.8926 -2.03843
172 1 9.60403 12.553 -0.394034 9.60403 12.553 -0.394034
173 2 11.4585 12.5552 1.29004 11.4585 12.5552 1.29004
174 2 11.5507 12.5509 -1.97088 11.5507 12.5509 -1.97088
175 1 12.4549 10.9065 -0.311512 12.4549 10.9065 -0.311512
176 2 14.3176 10.9193 1.36328 14.3176 10.9193 1.36328
177 2 14.3938 10.8937 -1.89801 14.3938 10.8937 -1.89801
178 1 15.3061 12.553 -0.258324 15.3061 12.553 -0.258324
179 2 17.1804 12.5544 1.40332 17.1804 12.5544 1.40332
180 2 17.2337 12.5516 -1.85857 17.2337 12.5516 -1.85857
181 1 18.1575 10.9066 -0.210893 18.1575 10.9066 -0.210893
182 2 20.0466 10.9188 1.43365 20.0466 10.9188 1.43365
183 2 20.0705 10.8944 -1.82851 20.0705 10.8944 -1.82851
184 1 21.0091 12.5529 -0.203061 21.0091 12.5529 -0.203061
185 2 22.9135 12.5537 1.4237 22.9135 12.5537 1.4237
186 2 22.9068 12.5522 -1.83864 22.9068 12.5522 -1.83864
187 1 23.8607 10.9065 -0.208928 23.8607 10.9065 -0.208928
188 2 25.7801 10.918 1.40008 25.7801 10.918 1.40008
189 2 25.7432 10.8951 -1.86195 25.7432 10.8951 -1.86195
190 1 26.7121 12.5529 -0.253565 26.7121 12.5529 -0.253565
191 2 28.6434 12.5528 1.34126 28.6434 12.5528 1.34126
192 2 28.5824 12.553 -1.92046 28.5824 12.553 -1.92046
193 1 29.5632 10.9064 -0.307738 29.5632 10.9064 -0.307738
194 2 31.5029 10.9173 1.27695 31.5029 10.9173 1.27695
195 2 31.4249 10.8955 -1.98428 31.4249 10.8955 -1.98428
196 1 32.4142 12.5529 -0.387663 32.4142 12.5529 -0.387663
197 2 34.3569 12.5524 1.19355 34.3569 12.5524 1.19355
198 2 34.2729 12.5533 -2.06754 34.2729 12.5533 -2.06754
199 1 35.2652 10.9062 -0.462175 35.2652 10.9062 -0.462175
200 2 37.2056 10.9174 1.12203 37.2056 10.9174 1.12203
201 2 37.1266 10.895 -2.13905 37.1266 10.895 -2.13905
202 1 38.1165 12.5529 -0.543036 38.1165 12.5529 -0.543036
203 2 40.0497 12.5533 1.05029 40.0497 12.5533 1.05029
204 2 39.9859 12.5526 -2.21114 39.9859 12.5526 -2.21114
205 1 40.9684 10.906 -0.598863 40.9684 10.906 -0.598863
206 2 42.8895 10.9186 1.00911 42.8895 10.9186 1.00911
207 2 42.8504 10.8936 -2.25258 42.8504 10.8936 -2.25258
208 1 43.8208 12.5529 -0.64593 43.8208 12.5529 -0.64593
209 2 45.7276 12.555 0.979139 45.7276 12.555 0.979139
210 2 45.7175 12.5509 -2.28283 45.7175 12.5509 -2.28283
211 1 46.6735 10.906 -0.65291 46.6735 10.906 -0.65291
212 2 48.5641 10.9201 0.991 48.5641 10.9201 0.991
213 2 48.5863 10.892 -2.2708 48.5863 10.892 -2.2708
214 1 49.5262 12.553 -0.647767 49.5262 12.553 -0.647767
215 2 51.402 12.5563 1.01313 51.402 12.5563 1.01313
216 2 51.4535 12.5497 -2.24847 51.4535 12.5497 -2.24847
217 1 1.04976 14.1999 -0.606109 1.04976 14.1999 -0.606109
218 2 2.91312 14.1919 1.06869 2.91312 14.1919 1.06869
219 2 2.98885 14.2078 -2.19245 2.98885 14.2078 -2.19245
220 1 3.9016 15.8466 -0.531868 3.9016 15.8466 -0.531868
221 2 5.75648 15.8274 1.15208 5.75648 15.8274 1.15208
222 2 5.84844 15.8657 -2.10851 5.84844 15.8657 -2.10851
223 1 6.75301 14.1998 -0.470889 6.75301 14.1998 -0.470889
224 2 8.60465 14.1912 1.21651 8.60465 14.1912 1.21651
225 2 8.70264 14.2083 -2.04414 8.70264 14.2083 -2.04414
226 1 9.60397 15.8462 -0.376745 9.60397 15.8462 -0.376745
227 2 11.4582 15.8264 1.30756 11.4582 15.8264 1.30756
228 2 11.551 15.8659 -1.95311 11.551 15.8659 -1.95311
229 1 12.455 14.1995 -0.315888 12.455 14.1995 -0.315888
230 2 14.3171 14.1901 1.35952 14.3171 14.1901 1.35952
231 2 14.3943 14.2089 -1.9018 14.3943 14.2089 -1.9018
232 1 15.3061 15.8458 -0.239331 15.3061 15.8458 -0.239331
233 2 17.1803 15.8255 1.42227 17.1803 15.8255 1.42227
234 2 17.2337 15.8661 -1.83936 17.2337 15.8661 -1.83936
235 1 18.1575 14.1994 -0.213729 18.1575 14.1994 -0.213729
236 2 20.0463 14.1894 1.43122 20.0463 14.1894 1.43122
237 2 20.0708 14.2093 -1.83097 20.0708 14.2093 -1.83097
238 1 21.0091 15.8456 -0.182874 21.0091 15.8456 -0.182874
239 2 22.9135 15.8246 1.44391 22.9135 15.8246 1.44391
240 2 22.907 15.8665 -1.81815 22.907 15.8665 -1.81815
241 1 23.8607 14.1993 -0.21043 23.8607 14.1993 -0.21043
242 2 25.7797 14.1885 1.39913 25.7797 14.1885 1.39913
243 2 25.7437 14.2101 -1.86292 25.7437 14.2101 -1.86292
244 1 26.7122 15.8456 -0.2317 26.7122 15.8456 -0.2317
245 2 28.6433 15.8237 1.36327 28.6433 15.8237 1.36327
246 2 28.5828 15.8675 -1.89816 28.5828 15.8675 -1.89816
247 1 29.5633 14.1994 -0.30751 29.5633 14.1994 -0.30751
248 2 31.5027 14.1877 1.27754 31.5027 14.1877 1.27754
249 2 31.4253 14.211 -1.9837 31.4253 14.211 -1.9837
250 1 32.4144 15.8459 -0.364106 32.4144 15.8459 -0.364106
251 2 34.3573 15.8234 1.21675 34.3573 15.8234 1.21675
252 2 34.273 15.8685 -2.04402 34.273 15.8685 -2.04402
253 1 35.2653 14.1996 -0.461227 35.2653 14.1996 -0.461227
254 2 37.206 14.188 1.12261 37.206 14.188 1.12261
255 2 37.1264 14.2111 -2.13845 37.1264 14.2111 -2.13845
256 1 38.1167 15.8464 -0.519626 38.1167 15.8464 -0.519626
257 2 40.0507 15.8244 1.07255 40.0507 15.8244 1.07255
258 2 39.9852 15.8684 -2.18857 39.9852 15.8684 -2.18857
259 1 40.9684 14.1998 -0.59955 40.9684 14.1998 -0.59955
260 2 42.8904 14.1895 1.00741 42.8904 14.1895 1.00741
261 2 42.8496 14.2101 -2.25428 42.8496 14.2101 -2.25428
262 1 43.8208 15.8467 -0.62505 43.8208 15.8467 -0.62505
263 2 45.7288 15.8262 0.99851 45.7288 15.8262 0.99851
264 2 45.7163 15.8673 -2.26321 45.7163 15.8673 -2.26321
265 1 46.6735 14.1999 -0.656962 46.6735 14.1999 -0.656962
266 2 48.565 14.1913 0.986056 48.565 14.1913 0.986056
267 2 48.5856 14.2086 -2.27582 48.5856 14.2086 -2.27582
268 1 49.5262 15.8468 -0.630208 49.5262 15.8468 -0.630208
269 2 51.4028 15.8275 1.02969 51.4028 15.8275 1.02969
270 2 51.4527 15.8661 -2.23173 51.4527 15.8661 -2.23173
271 1 1.04965 17.4935 -0.567027 1.04965 17.4935 -0.567027
272 2 2.91371 17.4639 1.10673 2.91371 17.4639 1.10673
273 2 2.98798 17.5228 -2.15396 2.98798 17.5228 -2.15396
274 1 3.90133 19.1397 -0.472214 3.90133 19.1397 -0.472214
275 2 5.75699 19.101 1.21056 5.75699 19.101 1.21056
276 2 5.84736 19.178 -2.04941 5.84736 19.178 -2.04941
277 1 6.75283 17.493 -0.432136 6.75283 17.493 -0.432136
278 2 8.60462 17.4633 1.25489 8.60462 17.4633 1.25489
279 2 8.7023 17.5224 -2.00529 8.7023 17.5224 -2.00529
280 1 9.60365 19.1389 -0.316917 9.60365 19.1389 -0.316917
281 2 11.4584 19.1003 1.36648 11.4584 19.1003 1.36648
282 2 11.5501 19.1772 -1.89355 11.5501 19.1772 -1.89355
283 1 12.4548 17.4924 -0.275849 12.4548 17.4924 -0.275849
284 2 14.3172 17.4624 1.39911 14.3172 17.4624 1.39911
285 2 14.394 17.5221 -1.86171 14.394 17.5221 -1.86171
286 1 15.3059 19.1382 -0.17881 15.3059 19.1382 -0.17881
287 2 17.1808 19.0996 1.48179 17.1808 19.0996 1.48179
288 2 17.2329 19.1766 -1.77917 17.2329 19.1766 -1.77917
289 1 18.1575 17.4919 -0.172634 18.1575 17.4919 -0.172634
290 2 20.0466 17.4616 1.47179 20.0466 17.4616 1.47179
291 2 20.0706 17.5221 -1.78987 20.0706 17.5221 -1.78987
292 1 21.0091 19.1378 -0.121623 21.0091 19.1378 -0.121623
293 2 22.914 19.0988 1.50438 22.914 19.0988 1.50438
294 2 22.9067 19.1767 -1.75698 22.9067 19.1767 -1.75698
295 1 23.8608 17.4918 -0.168058 23.8608 17.4918 -0.168058
296 2 25.7799 17.4607 1.44123 25.7799 17.4607 1.44123
297 2 25.7438 17.5228 -1.82028 25.7438 17.5228 -1.82028
298 1 26.7125 19.1379 -0.168798 26.7125 19.1379 -0.168798
299 2 28.6439 19.098 1.42561 28.6439 19.098 1.42561
300 2 28.5829 19.1779 -1.8351 28.5829 19.1779 -1.8351
301 1 29.5636 17.492 -0.263144 29.5636 17.492 -0.263144
302 2 31.5031 17.46 1.32153 31.5031 17.46 1.32153
303 2 31.4255 17.5241 -1.93915 31.4255 17.5241 -1.93915
304 1 32.4149 19.1385 -0.299192 32.4149 19.1385 -0.299192
305 2 34.3583 19.0977 1.28072 34.3583 19.0977 1.28072
306 2 34.2729 19.1792 -1.97932 34.2729 19.1792 -1.97932
307 1 35.2656 17.4926 -0.415639 35.2656 17.4926 -0.415639
308 2 37.207 17.4603 1.16711 37.207 17.4603 1.16711
309 2 37.126 17.5249 -2.09337 37.126 17.5249 -2.09337
310 1 38.1171 19.1392 -0.454217 38.1171 19.1392 -0.454217
311 2 40.0522 19.0986 1.1363 40.0522 19.0986 1.1363
312 2 39.9844 19.18 -2.12408 39.9844 19.18 -2.12408
313 1 40.9686 17.4932 -0.555026 40.9686 17.4932 -0.555026
314 2 42.8918 17.4617 1.0502 42.8918 17.4617 1.0502
315 2 42.8485 17.5247 -2.21094 42.8485 17.5247 -2.21094
316 1 43.821 19.1399 -0.561238 43.821 19.1399 -0.561238
317 2 45.7304 19.1 1.06027 45.7304 19.1 1.06027
318 2 45.7149 19.1798 -2.20076 45.7149 19.1798 -2.20076
319 1 46.6735 17.4936 -0.615296 46.6735 17.4936 -0.615296
320 2 48.5662 17.4633 1.02598 48.5662 17.4633 1.02598
321 2 48.5842 17.5237 -2.23543 48.5842 17.5237 -2.23543
322 1 49.5261 19.1401 -0.568944 49.5261 19.1401 -0.568944
323 2 51.404 19.101 1.08914 51.404 19.101 1.08914
324 2 51.4512 19.179 -2.17164 51.4512 19.179 -2.17164
325 1 1.04937 20.7861 -0.488044 1.04937 20.7861 -0.488044
326 2 2.91475 20.7397 1.18384 2.91475 20.7397 1.18384
327 2 2.98628 20.8323 -2.07617 2.98628 20.8323 -2.07617
328 1 3.90086 22.4318 -0.378458 3.90086 22.4318 -0.378458
329 2 5.75804 22.3801 1.30228 5.75804 22.3801 1.30228
330 2 5.8453 22.4832 -1.95708 5.8453 22.4832 -1.95708
331 1 6.7524 20.7854 -0.354156 6.7524 20.7854 -0.354156
332 2 8.60525 20.7395 1.33137 8.60525 20.7395 1.33137
333 2 8.70082 20.831 -1.92813 8.70082 20.831 -1.92813
334 1 9.60311 22.4308 -0.224231 9.60311 22.4308 -0.224231
335 2 11.4594 22.3799 1.45729 11.4594 22.3799 1.45729
336 2 11.5482 22.4815 -1.80212 11.5482 22.4815 -1.80212
337 1 12.4544 20.7845 -0.197974 12.4544 20.7845 -0.197974
338 2 14.3178 20.739 1.47555 14.3178 20.739 1.47555
339 2 14.3927 20.8298 -1.78457 14.3927 20.8298 -1.78457
340 1 15.3055 22.4299 -0.0868017 15.3055 22.4299 -0.0868017
341 2 17.1818 22.3795 1.57207 17.1818 22.3795 1.57207
342 2 17.2314 22.4802 -1.68824 17.2314 22.4802 -1.68824
343 1 18.1573 20.7839 -0.0946594 18.1573 20.7839 -0.0946594
344 2 20.0474 20.7384 1.54848 20.0474 20.7384 1.54848
345 2 20.0697 20.8292 -1.71245 20.0697 20.8292 -1.71245
346 1 21.0092 22.4295 -0.029644 21.0092 22.4295 -0.029644
347 2 22.915 22.379 1.59502 22.915 22.379 1.59502
348 2 22.9059 22.4799 -1.66565 22.9059 22.4799 -1.66565
349 1 23.861 20.7837 -0.0891862 23.861 20.7837 -0.0891862
350 2 25.7807 20.7376 1.51919 25.7807 20.7376 1.51919
351 2 25.7436 20.8298 -1.74155 25.7436 20.8298 -1.74155
352 1 26.7129 22.4296 -0.075485 26.7129 22.4296 -0.075485
353 2 28.6449 22.3783 1.51794 28.6449 22.3783 1.51794
354 2 28.5828 22.4809 -1.74208 28.5828 22.4809 -1.74208
355 1 29.5641 20.7841 -0.182264 29.5641 20.7841 -0.182264
356 2 31.5041 20.737 1.40153 31.5041 20.737 1.40153
357 2 31.4255 20.8312 -1.85838 31.4255 20.8312 -1.85838
358 1 32.4155 22.4302 -0.203766 32.4155 22.4302 -0.203766
359 2 34.3597 22.378 1.37496 34.3597 22.378 1.37496
360 2 34.2727 22.4826 -1.88439 34.2727 22.4826 -1.88439
361 1 35.2662 20.7849 -0.333088 35.2662 20.7849 -0.333088
362 2 37.2085 20.7372 1.24823 37.2085 20.7372 1.24823
363 2 37.1256 20.8326 -2.01147 37.1256 20.8326 -2.01147
364 1 38.1177 22.4312 -0.357589 38.1177 22.4312 -0.357589
365 2 40.0539 22.3786 1.23122 40.0539 22.3786 1.23122
366 2 39.9836 22.484 -2.02846 39.9836 22.484 -2.02846
367 1 40.969 20.7858 -0.472567 40.969 20.7858 -0.472567
368 2 42.8935 20.7382 1.13068 42.8935 20.7382 1.13068
369 2 42.8473 20.8334 -2.1297 42.8473 20.8334 -2.1297
370 1 43.8213 22.432 -0.464876 43.8213 22.432 -0.464876
371 2 45.7321 22.3794 1.15457 45.7321 22.3794 1.15457
372 2 45.7135 22.4847 -2.10579 45.7135 22.4847 -2.10579
373 1 46.6735 20.7863 -0.534424 46.6735 20.7863 -0.534424
374 2 48.5678 20.7393 1.10471 48.5678 20.7393 1.10471
375 2 48.5826 20.8332 -2.15598 48.5826 20.8332 -2.15598
376 1 49.5259 22.4323 -0.473771 49.5259 22.4323 -0.473771
377 2 51.4053 22.3799 1.18215 51.4053 22.3799 1.18215
378 2 51.4493 22.4845 -2.078 51.4493 22.4845 -2.078
379 1 1.04897 24.0779 -0.382167 1.04897 24.0779 -0.382167
380 2 2.91608 24.0225 1.28748 2.91608 24.0225 1.28748
381 2 2.98399 24.1331 -1.9721 2.98399 24.1331 -1.9721
382 1 3.90025 25.7232 -0.26648 3.90025 25.7232 -0.26648
383 2 5.75945 25.6674 1.4119 5.75945 25.6674 1.4119
384 2 5.84262 25.7787 -1.84733 5.84262 25.7787 -1.84733
385 1 6.75177 24.0771 -0.249776 6.75177 24.0771 -0.249776
386 2 8.60648 24.0227 1.4335 8.60648 24.0227 1.4335
387 2 8.69839 24.1312 -1.82558 8.69839 24.1312 -1.82558
388 1 9.60243 25.7222 -0.114234 9.60243 25.7222 -0.114234
389 2 11.4608 25.6676 1.56497 11.4608 25.6676 1.56497
390 2 11.5456 25.7766 -1.69429 11.5456 25.7766 -1.69429
391 1 12.4539 24.076 -0.0951198 12.4539 24.076 -0.0951198
392 2 14.3191 24.0225 1.57633 14.3191 24.0225 1.57633
393 2 14.3906 24.1294 -1.68334 14.3906 24.1294 -1.68334
394 1 15.3051 25.7213 0.0213937 15.3051 25.7213 0.0213937
395 2 17.1833 25.6675 1.67823 17.1833 25.6675 1.67823
396 2 17.2294 25.775 -1.58185 17.2294 25.775 -1.58185
397 1 18.1571 24.0753 0.0072308 18.1571 24.0753 0.0072308
398 2 20.0487 24.0223 1.64863 20.0487 24.0223 1.64863
399 2 20.0683 24.1283 -1.6118 20.0683 24.1283 -1.6118
400 1 21.0091 25.7209 0.0777504 21.0091 25.7209 0.0777504
401 2 22.9165 25.6673 1.70084 22.9165 25.6673 1.70084
402 2 22.9047 25.7744 -1.55956 22.9047 25.7744 -1.55956
403 1 23.8612 24.0752 0.0129832 23.8612 24.0752 0.0129832
404 2 25.7819 24.0218 1.62011 25.7819 24.0218 1.62011
405 2 25.743 24.1285 -1.64011 25.743 24.1285 -1.64011
406 1 26.7133 25.721 0.0326348 26.7133 25.721 0.0326348
407 2 28.6464 25.667 1.62493 28.6464 25.667 1.62493
408 2 28.5824 25.775 -1.63483 28.5824 25.775 -1.63483
409 1 29.5646 24.0756 -0.0783676 29.5646 24.0756 -0.0783676
410 2 31.5055 24.0213 1.50437 31.5055 24.0213 1.50437
411 2 31.4254 24.1299 -1.75503 31.4254 24.1299 -1.75503
412 1 32.4162 25.7216 -0.0937528 32.4162 25.7216 -0.0937528
413 2 34.3613 25.6667 1.48388 34.3613 25.6667 1.48388
414 2 34.2725 25.7767 -1.77524 34.2725 25.7767 -1.77524
415 1 35.2669 24.0764 -0.227241 35.2669 24.0764 -0.227241
416 2 37.2101 24.0213 1.35271 37.2101 24.0213 1.35271
417 2 37.1252 24.1317 -1.9065 37.1252 24.1317 -1.9065
418 1 38.1184 25.7226 -0.245825 38.1184 25.7226 -0.245825
419 2 40.0556 25.6669 1.34162 40.0556 25.6669 1.34162
420 2 39.983 25.7785 -1.91785 39.983 25.7785 -1.91785
421 1 40.9695 24.0774 -0.36578 40.9695 24.0774 -0.36578
422 2 42.8952 24.0218 1.23572 42.8952 24.0218 1.23572
423 2 42.8463 24.1332 -2.02417 42.8463 24.1332 -2.02417
424 1 43.8215 25.7234 -0.352111 43.8215 25.7234 -0.352111
425 2 45.7336 25.6671 1.26571 45.7336 25.6671 1.26571
426 2 45.7122 25.7799 -1.99446 45.7122 25.7799 -1.99446
427 1 46.6736 24.078 -0.42769 46.6736 24.078 -0.42769
428 2 48.5693 24.0222 1.20942 48.5693 24.0222 1.20942
429 2 48.5809 24.1338 -2.05081 48.5809 24.1338 -2.05081
430 1 49.5257 25.7237 -0.360791 49.5257 25.7237 -0.360791
431 2 51.4067 25.6672 1.29312 51.4067 25.6672 1.29312
432 2 51.4472 25.7801 -1.96686 51.4472 25.7801 -1.96686
433 1 1.04851 27.3691 -0.267807 1.04851 27.3691 -0.267807
434 2 2.91745 27.3146 1.39978 2.91745 27.3146 1.39978
435 2 2.98151 27.4235 -1.85998 2.98151 27.4235 -1.85998
436 1 3.89963 29.0145 -0.156136 3.89963 29.0145 -0.156136
437 2 5.76085 28.9646 1.52018 5.76085 28.9646 1.52018
438 2 5.83992 29.0643 -1.73955 5.83992 29.0643 -1.73955
439 1 6.75106 27.3684 -0.13702 6.75106 27.3684 -0.13702
440 2 8.60798 27.3149 1.5439 8.60798 27.3149 1.5439
441 2 8.69553 27.4217 -1.71536 8.69553 27.4217 -1.71536
442 1 9.60174 29.0137 -0.00600972 9.60174 29.0137 -0.00600972
443 2 11.4623 28.9648 1.67105 11.4623 28.9648 1.67105
444 2 11.5429 29.0625 -1.58865 11.5429 29.0625 -1.58865
445 1 12.4533 27.3674 0.0153361 12.4533 27.3674 0.0153361
446 2 14.3206 27.315 1.6846 14.3206 27.315 1.6846
447 2 14.3881 27.4197 -1.57517 14.3881 27.4197 -1.57517
448 1 15.3047 29.0129 0.127469 15.3047 29.0129 0.127469
449 2 17.1848 28.9649 1.78242 17.1848 28.9649 1.78242
450 2 17.2273 29.0609 -1.478 17.2273 29.0609 -1.478
451 1 18.1569 27.3668 0.116027 18.1569 27.3668 0.116027
452 2 20.0502 27.315 1.75561 20.0502 27.315 1.75561
453 2 20.0665 27.4185 -1.50485 20.0665 27.4185 -1.50485
454 1 21.0091 29.0125 0.18252 21.0091 29.0125 0.18252
455 2 22.9181 28.9651 1.80406 22.9181 28.9651 1.80406
456 2 22.9033 29.0601 -1.45663 22.9033 29.0601 -1.45663
457 1 23.8614 27.3666 0.121346 23.8614 27.3666 0.121346
458 2 25.7835 27.315 1.72713 25.7835 27.315 1.72713
459 2 25.7421 27.4183 -1.53311 25.7421 27.4183 -1.53311
460 1 26.7137 29.0127 0.137257 26.7137 29.0127 0.137257
461 2 28.648 28.9652 1.72846 28.648 28.9652 1.72846
462 2 28.5817 29.0602 -1.53161 28.5817 29.0602 -1.53161
463 1 29.5652 27.367 0.0310486 29.5652 27.367 0.0310486
464 2 31.5071 27.3148 1.6128 31.5071 27.3148 1.6128
465 2 31.4251 27.4193 -1.64666 31.4251 27.4193 -1.64666
466 1 32.4168 29.0132 0.0120916 32.4168 29.0132 0.0120916
467 2 34.3628 28.9651 1.58895 34.3628 28.9651 1.58895
468 2 34.2722 29.0614 -1.67055 34.2722 29.0614 -1.67055
469 1 35.2676 27.3678 -0.115924 35.2676 27.3678 -0.115924
470 2 37.2118 27.3147 1.46302 37.2118 27.3147 1.46302
471 2 37.1248 27.4211 -1.79628 37.1248 27.4211 -1.79628
472 1 38.119 29.014 -0.138044 38.119 29.014 -0.138044
473 2 40.057 28.965 1.44862 40.057 28.965 1.44862
474 2 39.9826 29.0633 -1.81128 39.9826 29.0633 -1.81128
475 1 40.97 27.3687 -0.252741 40.97 27.3687 -0.252741
476 2 42.8967 27.3147 1.34758 42.8967 27.3147 1.34758
477 2 42.8455 27.4229 -1.91245 42.8455 27.4229 -1.91245
478 1 43.8218 29.0147 -0.242463 43.8218 29.0147 -0.242463
479 2 45.7348 28.9647 1.3744 45.7348 28.9647 1.3744
480 2 45.7112 29.0649 -1.88624 45.7112 29.0649 -1.88624
481 1 46.6736 27.3692 -0.313433 46.6736 27.3692 -0.313433
482 2 48.5706 27.3146 1.32217 48.5706 27.3146 1.32217
483 2 48.5793 27.424 -1.93821 48.5793 27.424 -1.93821
484 1 49.5255 29.0149 -0.249931 49.5255 29.0149 -0.249931
485 2 51.4079 28.9645 1.40251 51.4079 28.9645 1.40251
486 2 51.4453 29.0654 -1.85796 51.4453 29.0654 -1.85796
487 1 1.04807 30.6606 -0.165521 1.04807 30.6606 -0.165521
488 2 2.91857 30.6168 1.5006 2.91857 30.6168 1.5006
489 2 2.97936 30.7044 -1.75991 2.97936 30.7044 -1.75991
490 1 3.8991 32.3064 -0.0673524 3.8991 32.3064 -0.0673524
491 2 5.76187 32.2712 1.60763 5.76187 32.2712 1.60763
492 2 5.83781 32.3416 -1.65296 5.83781 32.3416 -1.65296
493 1 6.7504 30.66 -0.0359565 6.7504 30.66 -0.0359565
494 2 8.60932 30.6169 1.6431 8.60932 30.6169 1.6431
495 2 8.69294 30.7031 -1.61688 8.69294 30.7031 -1.61688
496 1 9.60117 32.3058 0.0812936 9.60117 32.3058 0.0812936
497 2 11.4634 32.2713 1.75685 11.4634 32.2713 1.75685
498 2 11.5407 32.3404 -1.50364 11.5407 32.3404 -1.50364
499 1 12.4527 30.6593 0.114288 12.4527 30.6593 0.114288
500 2 14.322 30.617 1.78178 14.322 30.617 1.78178
501 2 14.3858 30.7016 -1.47861 14.3858 30.7016 -1.47861
502 1 15.3043 32.3053 0.213106 15.3043 32.3053 0.213106
503 2 17.1861 32.2714 1.86665 17.1861 32.2714 1.86665
504 2 17.2255 32.3393 -1.39447 17.2255 32.3393 -1.39447
505 1 18.1566 30.6588 0.21327 18.1566 30.6588 0.21327
506 2 20.0518 30.6173 1.85127 20.0518 30.6173 1.85127
507 2 20.0648 30.7004 -1.40972 20.0648 30.7004 -1.40972
508 1 21.0091 32.3051 0.266742 21.0091 32.3051 0.266742
509 2 22.9197 32.2719 1.88692 22.9197 32.2719 1.88692
510 2 22.9019 32.3383 -1.3744 22.9019 32.3383 -1.3744
511 1 23.8616 30.6587 0.217503 23.8616 30.6587 0.217503
512 2 25.7852 30.6177 1.82199 25.7852 30.6177 1.82199
513 2 25.741 30.6997 -1.43876 25.741 30.6997 -1.43876
514 1 26.714 32.3052 0.220347 26.714 32.3052 0.220347
515 2 28.6496 32.2726 1.81051 28.6496 32.2726 1.81051
516 2 28.5808 32.3378 -1.4502 28.5808 32.3378 -1.4502
517 1 29.5657 30.659 0.127185 29.5657 30.659 0.127185
518 2 31.5086 30.618 1.70812 31.5086 30.618 1.70812
519 2 31.4246 30.7001 -1.5519 31.4246 30.7001 -1.5519
520 1 32.4173 32.3055 0.0952835 32.4173 32.3055 0.0952835
521 2 34.3641 32.2728 1.67166 34.3641 32.2728 1.67166
522 2 34.2719 32.3384 -1.58855 34.2719 32.3384 -1.58855
523 1 35.2682 30.6596 -0.0184064 35.2682 30.6596 -0.0184064
524 2 37.2131 30.6178 1.56003 37.2131 30.6178 1.56003
525 2 37.1246 30.7016 -1.69991 37.1246 30.7016 -1.69991
526 1 38.1194 32.3061 -0.0532125 38.1194 32.3061 -0.0532125
527 2 40.058 32.2724 1.53325 40.058 32.2724 1.53325
528 2 39.9823 32.3399 -1.72744 39.9823 32.3399 -1.72744
529 1 40.9704 30.6603 -0.153144 40.9704 30.6603 -0.153144
530 2 42.8978 30.6174 1.44667 42.8978 30.6174 1.44667
531 2 42.845 30.7034 -1.81404 42.845 30.7034 -1.81404
532 1 43.822 32.3065 -0.155409 43.822 32.3065 -0.155409
533 2 45.7355 32.2718 1.46117 45.7355 32.2718 1.46117
534 2 45.7106 32.3414 -1.8003 45.7106 32.3414 -1.8003
535 1 46.6736 30.6607 -0.21189 46.6736 30.6607 -0.21189
536 2 48.5715 30.6169 1.4229 48.5715 30.6169 1.4229
537 2 48.5781 30.7046 -1.83821 48.5781 30.7046 -1.83821
538 1 49.5252 32.3067 -0.16118 49.5252 32.3067 -0.16118
539 2 51.4087 32.2713 1.4905 51.4087 32.2713 1.4905