ITEM: TIMESTEP
83000
ITEM: NUMBER OF ATOMS
810
ITEM: BOX BOUNDS pp pp pp
8.6202813588764227e-01 5.2155576864111254e+01
8.1869327796366409e-01 5.0197521722035262e+01
-1.0000000000000000e+01 1.0000000000000000e+01
ITEM: ATOMS id type x y z xu yu zu
1 1 1.06489 1.03284 0.0863076 1.06489 1.03284 0.0863076
2 2 3.04645 1.08199 1.61722 3.04645 1.08199 1.61722
3 2 2.88072 0.982217 -1.63926 2.88072 0.982217 -1.63926
4 1 3.91249 2.6768 -0.110152 3.91249 2.6768 -0.110152
5 2 5.90221 2.71858 1.41036 5.90221 2.71858 1.41036
6 2 5.71894 2.63415 -1.84559 5.71894 2.63415 -1.84559
7 1 6.75998 1.02974 -0.22857 6.75998 1.02974 -0.22857
8 2 8.74773 1.08235 1.29453 8.74773 1.08235 1.29453
9 2 8.56891 0.976675 -1.96097 8.56891 0.976675 -1.96097
10 1 9.60688 2.67447 -0.439034 9.60688 2.67447 -0.439034
11 2 11.5825 2.72017 1.10032 11.5825 2.72017 1.10032
12 2 11.4298 2.629 -2.15687 11.4298 2.629 -2.15687
13 1 12.4561 1.02788 -0.526785 12.4561 1.02788 -0.526785
14 2 14.4095 1.08458 1.04075 14.4095 1.08458 1.04075
15 2 14.3036 0.972005 -2.21762 14.3036 0.972005 -2.21762
16 1 15.3063 2.6737 -0.676273 15.3063 2.6737 -0.676273
17 2 17.2319 2.72609 0.925845 17.2319 2.72609 0.925845
18 2 17.1836 2.62254 -2.33413 17.1836 2.62254 -2.33413
19 1 18.1586 1.02827 -0.665771 18.1586 1.02827 -0.665771
20 2 20.0511 1.08772 0.975128 20.0511 1.08772 0.975128
21 2 20.069 0.970672 -2.2848 20.069 0.970672 -2.2848
22 1 21.0109 2.67497 -0.708679 21.0109 2.67497 -0.708679
23 2 22.8719 2.73399 0.968115 22.8719 2.73399 0.968115
24 2 22.952 2.61783 -2.29088 22.952 2.61783 -2.29088
25 1 23.8621 1.03093 -0.579047 23.8621 1.03093 -0.579047
26 2 25.6952 1.09111 1.12792 25.6952 1.09111 1.12792
27 2 25.8284 0.972767 -2.12936 25.8284 0.972767 -2.12936
28 1 26.7124 2.67804 -0.521583 26.7124 2.67804 -0.521583
29 2 28.5265 2.7409 1.20543 28.5265 2.7409 1.20543
30 2 28.6958 2.61688 -2.04993 28.6958 2.61688 -2.04993
31 1 29.5596 1.03455 -0.309857 29.5596 1.03455 -0.309857
32 2 31.3664 1.09331 1.42471 31.3664 1.09331 1.42471
33 2 31.5493 0.976842 -1.83023 31.5493 0.976842 -1.83023
34 1 32.4078 2.68141 -0.208317 32.4078 2.68141 -0.208317
35 2 34.2171 2.743 1.52332 34.2171 2.743 1.52332
36 2 34.3953 2.62032 -1.73164 34.3953 2.62032 -1.73164
37 1 35.2545 1.03714 0.0100823 35.2545 1.03714 0.0100823
38 2 37.0797 1.09235 1.72496 37.0797 1.09235 1.72496
39 2 37.2278 0.981498 -1.53191 37.2278 0.981498 -1.53191
40 1 38.104 2.68313 0.0835161 38.104 2.68313 0.0835161
41 2 39.9496 2.73865 1.77616 39.9496 2.73865 1.77616
42 2 40.0587 2.62665 -1.48226 40.0587 2.62665 -1.48226
43 1 40.9538 1.03753 0.235479 40.9538 1.03753 0.235479
44 2 42.8302 1.08845 1.89402 42.8302 1.08845 1.89402
45 2 42.8796 0.98509 -1.36611 42.8796 0.98509 -1.36611
46 1 43.8057 2.68242 0.225849 43.8057 2.68242 0.225849
47 2 45.7108 2.73036 1.85106 45.7108 2.73036 1.85106
48 2 45.7029 2.63268 -1.40971 45.7029 2.63268 -1.40971
49 1 46.6575 1.03583 0.267642 46.6575 1.03583 0.267642
50 2 48.5951 1.08422 1.85399 48.5951 1.08422 1.85399
51 2 48.5215 0.985567 -1.4059 48.5215 0.985567 -1.4059
52 1 49.5086 2.67987 0.152347 49.5086 2.67987 0.152347
53 2 51.4706 2.72246 1.70831 51.4706 2.72246 1.70831
54 2 51.346 2.63557 -1.55044 51.346 2.63557 -1.55044
55 1 1.06447 4.3239 -0.00176964 1.06447 4.3239 -0.00176964
56 2 3.04349 4.35612 1.5326 3.04349 4.35612 1.5326
57 2 2.88276 4.29047 -1.72507 2.88276 4.29047 -1.72507
58 1 3.91254 5.96849 -0.176744 3.91254 5.96849 -0.176744
59 2 5.89998 5.98783 1.34699 5.89998 5.98783 1.34699
60 2 5.72134 5.94864 -1.91011 5.72134 5.94864 -1.91011
61 1 6.75938 4.32146 -0.31409 6.75938 4.32146 -0.31409
62 2 8.74733 4.35355 1.20919 8.74733 4.35355 1.20919
63 2 8.56804 4.2892 -2.04736 8.56804 4.2892 -2.04736
64 1 9.60685 5.96709 -0.504161 9.60685 5.96709 -0.504161
65 2 11.5844 5.98964 1.0332 11.5844 5.98964 1.0332
66 2 11.4277 5.94485 -2.22474 11.4277 5.94485 -2.22474
67 1 12.4555 4.32015 -0.619042 12.4555 4.32015 -0.619042
68 2 14.411 4.35921 0.94635 14.411 4.35921 0.94635
69 2 14.3009 4.28175 -2.31282 14.3009 4.28175 -2.31282
70 1 15.3061 5.96661 -0.754505 15.3061 5.96661 -0.754505
71 2 17.2365 6.00103 0.842341 17.2365 6.00103 0.842341
72 2 17.1788 5.93291 -2.41831 17.1788 5.93291 -2.41831
73 1 18.1584 4.3202 -0.770498 18.1584 4.3202 -0.770498
74 2 20.0537 4.37022 0.867742 20.0537 4.37022 0.867742
75 2 20.0667 4.27151 -2.39267 20.0667 4.27151 -2.39267
76 1 21.0113 5.96707 -0.808401 21.0113 5.96707 -0.808401
77 2 22.8775 6.01679 0.862998 22.8775 6.01679 0.862998
78 2 22.9479 5.91856 -2.39668 22.9479 5.91856 -2.39668
79 1 23.863 4.32196 -0.696589 23.863 4.32196 -0.696589
80 2 25.6978 4.38214 1.00878 25.6978 4.38214 1.00878
81 2 25.8284 4.26351 -2.24847 25.8284 4.26351 -2.24847
82 1 26.7141 5.96904 -0.641605 26.7141 5.96904 -0.641605
83 2 28.5306 6.03006 1.08302 28.5306 6.03006 1.08302
84 2 28.6958 5.90952 -2.1726 28.6958 5.90952 -2.1726
85 1 29.5616 4.3251 -0.435506 29.5616 4.3251 -0.435506
86 2 31.3672 4.38948 1.30012 31.3672 4.38948 1.30012
87 2 31.5525 4.26199 -1.95423 31.5525 4.26199 -1.95423
88 1 32.4103 5.97193 -0.337542 32.4103 5.97193 -0.337542
89 2 34.217 6.03423 1.39678 34.217 6.03423 1.39678
90 2 34.4001 5.91044 -1.85787 34.4001 5.91044 -1.85787
91 1 35.2564 4.32784 -0.114347 35.2564 4.32784 -0.114347
92 2 37.0772 4.38807 1.60491 37.0772 4.38807 1.60491
93 2 37.2335 4.26754 -1.65129 37.2335 4.26754 -1.65129
94 1 38.1059 5.97377 -0.0388037 38.1059 5.97377 -0.0388037
95 2 39.9447 6.02722 1.66103 39.9447 6.02722 1.66103
96 2 40.0664 5.91974 -1.59719 40.0664 5.91974 -1.59719
97 1 40.9548 4.32846 0.121848 40.9548 4.32846 0.121848
98 2 42.8252 4.37868 1.78678 42.8252 4.37868 1.78678
99 2 42.8858 4.27687 -1.47333 42.8858 4.27687 -1.47333
100 1 43.8063 5.97325 0.122502 43.8063 5.97325 0.122502
101 2 45.7037 6.01262 1.75669 45.7037 6.01262 1.75669
102 2 45.7107 5.9323 -1.50469 45.7107 5.9323 -1.50469
103 1 46.6576 4.32674 0.168595 46.6576 4.32674 0.168595
104 2 48.5902 4.36607 1.76088 48.5902 4.36607 1.76088
105 2 48.5261 4.28561 -1.49984 48.5261 4.28561 -1.49984
106 1 49.5086 5.97092 0.07067 49.5086 5.97092 0.07067
107 2 51.4646 5.997 1.63418 51.4646 5.997 1.63418
108 2 51.352 5.94337 -1.62582 51.352 5.94337 -1.62582
109 1 1.06489 7.61544 -0.0563148 1.06489 7.61544 -0.0563148
110 2 3.03806 7.62555 1.48565 3.03806 7.62555 1.48565
111 2 2.88934 7.60447 -1.77326 2.88934 7.60447 -1.77326
112 1 3.91368 9.26068 -0.198324 3.91368 9.26068 -0.198324
113 2 5.89685 9.25463 1.33089 5.89685 9.25463 1.33089
114 2 5.72704 9.26653 -1.92694 5.72704 9.26653 -1.92694
115 1 6.76009 7.61398 -0.353845 6.76009 7.61398 -0.353845
116 2 8.74754 7.62049 1.17025 8.74754 7.62049 1.17025
117 2 8.56917 7.60759 -2.08698 8.56917 7.60759 -2.08698
118 1 9.60808 9.26036 -0.517153 9.60808 9.26036 -0.517153
119 2 11.5882 9.25631 1.0168 11.5882 9.25631 1.0168
120 2 11.4259 9.26484 -2.24116 11.4259 9.26484 -2.24116
121 1 12.4558 7.61356 -0.664215 12.4558 7.61356 -0.664215
122 2 14.4162 7.62874 0.89545 14.4162 7.62874 0.89545
123 2 14.2961 7.59883 -2.36411 14.2961 7.59883 -2.36411
124 1 15.3065 9.26051 -0.784442 15.3065 9.26051 -0.784442
125 2 17.2453 9.27147 0.802498 17.2453 9.27147 0.802498
126 2 17.1705 9.24986 -2.45841 17.1705 9.24986 -2.45841
127 1 18.1584 7.61347 -0.839144 18.1584 7.61347 -0.839144
128 2 20.0615 7.64588 0.790497 20.0615 7.64588 0.790497
129 2 20.0593 7.58165 -2.47071 20.0593 7.58165 -2.47071
130 1 21.0116 9.26047 -0.873027 21.0116 9.26047 -0.873027
131 2 22.8878 9.2926 0.787573 22.8878 9.2926 0.787573
132 2 22.9389 9.22876 -2.47323 22.9389 9.22876 -2.47323
133 1 23.864 7.61409 -0.795781 23.864 7.61409 -0.795781
134 2 25.7054 7.66419 0.902859 25.7054 7.66419 0.902859
135 2 25.8237 7.56506 -2.35541 25.8237 7.56506 -2.35541
136 1 26.7157 9.26115 -0.741748 26.7157 9.26115 -0.741748
137 2 28.5383 9.30996 0.977038 28.5383 9.30996 0.977038
138 2 28.6924 9.21331 -2.27983 28.6924 9.21331 -2.27983
139 1 29.564 7.61609 -0.557525 29.564 7.61609 -0.557525
140 2 31.3708 7.67515 1.17714 31.3708 7.67515 1.17714
141 2 31.5541 7.55825 -2.07767 31.5541 7.55825 -2.07767
142 1 32.4132 9.26304 -0.455998 32.4132 9.26304 -0.455998
143 2 34.2181 9.31554 1.28049 34.2181 9.31554 1.28049
144 2 34.4046 9.21143 -1.97464 34.4046 9.21143 -1.97464
145 1 35.259 7.61846 -0.239915 35.259 7.61846 -0.239915
146 2 37.0745 7.67355 1.48508 37.0745 7.67355 1.48508
147 2 37.2408 7.56368 -1.77105 37.2408 7.56368 -1.77105
148 1 38.1082 9.26462 -0.150372 38.1082 9.26462 -0.150372
149 2 39.9388 9.30723 1.55856 39.9388 9.30723 1.55856
150 2 40.076 9.22184 -1.69976 40.076 9.22184 -1.69976
151 1 40.9563 7.61922 0.0126886 40.9563 7.61922 0.0126886
152 2 42.8176 7.66047 1.68778 42.8176 7.66047 1.68778
153 2 42.8954 7.57698 -1.5726 42.8954 7.57698 -1.5726
154 1 43.8073 9.26429 0.0375733 43.8073 9.26429 0.0375733
155 2 45.6938 9.28877 1.68436 45.6938 9.28877 1.68436
156 2 45.722 9.23857 -1.57759 45.722 9.23857 -1.57759
157 1 46.658 7.61777 0.0869532 46.658 7.61777 0.0869532
158 2 48.5816 7.64164 1.6902 48.5816 7.64164 1.6902
159 2 48.5355 7.59236 -1.57155 48.5355 7.59236 -1.57155
160 1 49.5092 9.26235 0.0204081 49.5092 9.26235 0.0204081
161 2 51.4558 9.2678 1.59557 51.4558 9.2678 1.59557
162 2 51.3622 9.25569 -1.66552 51.3622 9.25569 -1.66552
163 1 1.06601 10.9073 -0.0689547 1.06601 10.9073 -0.0689547
164 2 3.03091 10.8938 1.48338 3.03091 10.8938 1.48338
165 2 2.89935 10.9201 -1.77627 2.89935 10.9201 -1.77627
166 1 3.91558 12.5528 -0.171987 3.91558 12.5528 -0.171987
167 2 5.89315 12.5225 1.36409 5.89315 12.5225 1.36409
168 2 5.73508 12.5831 -1.89382 5.73508 12.5831 -1.89382
169 1 6.76196 10.9067 -0.341908 6.76196 10.9067 -0.341908
170 2 8.74822 10.8868 1.18345 8.74822 10.8868 1.18345
171 2 8.57217 10.927 -2.07371 8.57217 10.927 -2.07371
172 1 9.61037 12.5534 -0.476359 9.61037 12.5534 -0.476359
173 2 11.5934 12.5235 1.05339 11.5934 12.5235 1.05339
174 2 11.4247 12.5838 -2.20374 11.4247 12.5838 -2.20374
175 1 12.4572 10.9073 -0.655311 12.4572 10.9073 -0.655311
176 2 14.4241 10.8963 0.895922 14.4241 10.8963 0.895922
177 2 14.2901 10.9187 -2.36317 14.2901 10.9187 -2.36317
178 1 15.3077 12.5545 -0.761313 15.3077 12.5545 -0.761313
179 2 17.2568 12.5403 0.812672 17.2568 12.5403 0.812672
180 2 17.1605 12.569 -2.44763 17.1605 12.569 -2.44763
181 1 18.1588 10.9076 -0.860528 18.1588 10.9076 -0.860528
182 2 20.0733 10.9171 0.755877 20.0733 10.9171 0.755877
183 2 20.0482 10.8982 -2.50577 20.0482 10.8982 -2.50577
184 1 21.0119 12.5547 -0.891604 21.0119 12.5547 -0.891604
185 2 22.9011 12.5637 0.754443 22.9011 12.5637 0.754443
186 2 22.9267 12.5455 -2.5072 22.9267 12.5455 -2.5072
187 1 23.8647 10.9075 -0.860004 23.8647 10.9075 -0.860004
188 2 25.7165 10.939 0.827802 25.7165 10.939 0.827802
189 2 25.8151 10.8763 -2.43195 25.8151 10.8763 -2.43195
190 1 26.7171 12.5545 -0.804856 26.7171 12.5545 -0.804856
191 2 28.5481 12.5828 0.905381 28.5481 12.5828 0.905381
192 2 28.6863 12.5267 -2.3531 28.6863 12.5267 -2.3531
193 1 29.5664 10.9082 -0.655267 29.5664 10.9082 -0.655267
194 2 31.3765 10.952 1.07648 31.3765 10.952 1.07648
195 2 31.5538 10.8654 -2.17956 31.5538 10.8654 -2.17956
196 1 32.4159 12.5553 -0.543685 32.4159 12.5553 -0.543685
197 2 34.2203 12.5892 1.19384 34.2203 12.5892 1.19384
198 2 34.4078 12.5221 -2.0622 34.4078 12.5221 -2.0622
199 1 35.2619 10.9098 -0.345543 35.2619 10.9098 -0.345543
200 2 37.0721 10.9506 1.38536 37.0721 10.9506 1.38536
201 2 37.2483 10.8695 -1.87112 37.2483 10.8695 -1.87112
202 1 38.1107 12.5562 -0.232881 38.1107 12.5562 -0.232881
203 2 39.9329 12.581 1.48531 39.9329 12.581 1.48531
204 2 40.086 12.5315 -1.77308 40.086 12.5315 -1.77308
205 1 40.958 10.9104 -0.0741706 40.958 10.9104 -0.0741706
206 2 42.8088 10.936 1.61292 42.8088 10.936 1.61292
207 2 42.907 10.8841 -1.64763 42.907 10.8841 -1.64763
208 1 43.8086 12.5558 -0.0154565 43.8086 12.5558 -0.0154565
209 2 45.6829 12.5614 1.64536 45.6829 12.5614 1.64536
210 2 45.735 12.5492 -1.61671 45.735 12.5492 -1.61671
211 1 46.6588 10.9092 0.0356712 46.6588 10.9092 0.0356712
212 2 48.5706 10.9138 1.65294 48.5706 10.9138 1.65294
213 2 48.548 10.9032 -1.60947 48.548 10.9032 -1.60947
214 1 49.5101 12.554 0.00921521 49.5101 12.554 0.00921521
215 2 51.4455 12.538 1.59817 51.4455 12.538 1.59817
216 2 51.375 12.569 -1.66341 51.375 12.569 -1.66341
217 1 1.0675 14.1991 -0.0380126 1.0675 14.1991 -0.0380126
218 2 3.02303 14.164 1.52579 3.02303 14.164 1.52579
219 2 2.91102 14.2334 -1.73396 2.91102 14.2334 -1.73396
220 1 3.9178 15.8445 -0.102105 3.9178 15.8445 -0.102105
221 2 5.88938 15.7945 1.44119 5.88938 15.7945 1.44119
222 2 5.744 15.8942 -1.81635 5.744 15.8942 -1.81635
223 1 6.76457 14.1989 -0.280631 6.76457 14.1989 -0.280631
224 2 8.74913 14.1558 1.24638 8.74913 14.1558 1.24638
225 2 8.57656 14.2425 -2.01009 8.57656 14.2425 -2.01009
226 1 9.61333 15.8455 -0.388533 9.61333 15.8455 -0.388533
227 2 11.5991 15.7947 1.13705 11.5991 15.7947 1.13705
228 2 11.4244 15.897 -2.11876 11.4244 15.897 -2.11876
229 1 12.4594 14.2004 -0.593956 12.4594 14.2004 -0.593956
230 2 14.4335 14.1652 0.947601 14.4335 14.1652 0.947601
231 2 14.2842 14.2364 -2.31017 14.2842 14.2364 -2.31017
232 1 15.3095 15.8476 -0.688763 15.3095 15.8476 -0.688763
233 2 17.2691 15.8106 0.871427 17.2691 15.8106 0.871427
234 2 17.1505 15.8853 -2.38747 17.1505 15.8853 -2.38747
235 1 18.1595 14.2017 -0.830879 18.1595 14.2017 -0.830879
236 2 20.0869 14.1866 0.769792 20.0869 14.1866 0.769792
237 2 20.0354 14.2168 -2.49148 20.0354 14.2168 -2.49148
238 1 21.0123 15.8487 -0.86041 21.0123 15.8487 -0.86041
239 2 22.9151 15.8331 0.769626 22.9151 15.8331 0.769626
240 2 22.9133 15.8644 -2.49204 22.9133 15.8644 -2.49204
241 1 23.8651 14.2017 -0.877915 23.8651 14.2017 -0.877915
242 2 25.7293 14.2091 0.796501 25.7293 14.2091 0.796501
243 2 25.804 14.1942 -2.46443 25.804 14.1942 -2.46443
244 1 26.7179 15.8487 -0.819556 26.7179 15.8487 -0.819556
245 2 28.5586 15.8514 0.880488 28.5586 15.8514 0.880488
246 2 28.6783 15.846 -2.37919 28.6783 15.846 -2.37919
247 1 29.5682 14.2016 -0.711869 29.5682 14.2016 -0.711869
248 2 31.3833 14.2225 1.01514 31.3833 14.2225 1.01514
249 2 31.5514 14.1812 -2.24225 31.5514 14.1812 -2.24225
250 1 32.418 15.8486 -0.585506 32.418 15.8486 -0.585506
251 2 34.2234 15.858 1.15135 34.2234 15.858 1.15135
252 2 34.4091 15.8396 -2.1054 34.4091 15.8396 -2.1054
253 1 35.2645 14.2022 -0.413595 35.2645 14.2022 -0.413595
254 2 37.0706 14.2218 1.32211 37.0706 14.2218 1.32211
255 2 37.2546 14.1829 -1.9347 37.2546 14.1829 -1.9347
256 1 38.1128 15.8486 -0.27259 38.1128 15.8486 -0.27259
257 2 39.928 15.8511 1.45328 39.928 15.8511 1.45328
258 2 40.0944 15.846 -1.80482 40.0944 15.846 -1.80482
259 1 40.9599 14.2022 -0.124675 40.9599 14.2022 -0.124675
260 2 42.8001 14.2078 1.57414 42.8001 14.2078 1.57414
261 2 42.9186 14.196 -1.68614 42.9186 14.196 -1.68614
262 1 43.8098 15.8476 -0.0278383 43.8098 15.8476 -0.0278383
263 2 45.6725 15.8329 1.64603 45.6725 15.8329 1.64603
264 2 45.7474 15.8612 -1.61548 45.7474 15.8612 -1.61548
265 1 46.6597 14.2008 0.0228234 46.6597 14.2008 0.0228234
266 2 48.559 14.1853 1.65481 48.559 14.1853 1.65481
267 2 48.5616 14.2151 -1.60757 48.5616 14.2151 -1.60757
268 1 49.5112 15.8457 0.0389562 49.5112 15.8457 0.0389562
269 2 51.4351 15.8103 1.64155 51.4351 15.8103 1.64155
270 2 51.3881 15.8797 -1.61983 51.3881 15.8797 -1.61983
271 1 1.06899 17.4904 0.031824 1.06899 17.4904 0.031824
272 2 3.01569 17.4392 1.60633 3.01569 17.4392 1.60633
273 2 2.92222 17.5407 -1.65311 2.92222 17.5407 -1.65311
274 1 3.91989 19.1354 0.000362211 3.91989 19.1354 0.000362211
275 2 5.88625 19.0738 1.55009 5.88625 19.0738 1.55009
276 2 5.75213 19.1965 -1.7071 5.75213 19.1965 -1.7071
277 1 6.76741 17.4902 -0.179839 6.76741 17.4902 -0.179839
278 2 8.75015 17.4308 1.34904 8.75015 17.4308 1.34904
279 2 8.58148 17.5499 -1.90662 8.58148 17.5499 -1.90662
280 1 9.61642 19.1364 -0.267869 9.61642 19.1364 -0.267869
281 2 11.6044 19.0732 1.25439 11.6044 19.0732 1.25439
282 2 11.4249 19.2006 -2.00031 11.4249 19.2006 -2.00031
283 1 12.4622 17.4923 -0.490102 12.4622 17.4923 -0.490102
284 2 14.4429 17.4387 1.04228 14.4429 17.4387 1.04228
285 2 14.2794 17.547 -2.21385 14.2794 17.547 -2.21385
286 1 15.3117 19.1394 -0.578619 15.3117 19.1394 -0.578619
287 2 17.2804 19.0858 0.969425 17.2804 19.0858 0.969425
288 2 17.1424 19.1942 -2.28786 17.1424 19.1942 -2.28786
289 1 18.1606 17.4948 -0.754706 18.1606 17.4948 -0.754706
290 2 20.1004 17.4577 0.830419 20.1004 17.4577 0.830419
291 2 20.0233 17.5324 -2.4297 20.0233 17.5324 -2.4297
292 1 21.0128 19.1418 -0.784179 21.0128 19.1418 -0.784179
293 2 22.9277 19.1042 0.831165 22.9277 19.1042 0.831165
294 2 22.9014 19.1801 -2.42974 22.9014 19.1801 -2.42974
295 1 23.8654 17.4957 -0.84573 23.8654 17.4957 -0.84573
296 2 25.7417 17.4777 0.814814 25.7417 17.4777 0.814814
297 2 25.7925 17.5138 -2.44644 25.7925 17.5138 -2.44644
298 1 26.7181 19.1426 -0.782632 26.7181 19.1426 -0.782632
299 2 28.5681 19.1192 0.907127 28.5681 19.1192 0.907127
300 2 28.6699 19.1661 -2.35286 28.6699 19.1661 -2.35286
301 1 29.5693 17.4956 -0.717085 29.5693 17.4956 -0.717085
302 2 31.3904 17.4899 1.00378 31.3904 17.4899 1.00378
303 2 31.5472 17.5014 -2.2544 31.5472 17.5014 -2.2544
304 1 32.4191 19.1422 -0.573769 32.4191 19.1422 -0.573769
305 2 34.2269 19.1252 1.16059 34.2269 19.1252 1.16059
306 2 34.4082 19.1592 -2.09629 34.4082 19.1592 -2.09629
307 1 35.2664 17.4952 -0.432292 35.2664 17.4952 -0.432292
308 2 37.0701 17.4901 1.30605 37.0701 17.4901 1.30605
309 2 37.2587 17.5004 -1.9507 37.2587 17.5004 -1.9507
310 1 38.1142 19.1412 -0.262294 38.1142 19.1412 -0.262294
311 2 39.9249 19.1205 1.4683 39.9249 19.1205 1.4683
312 2 40.0999 19.1614 -1.78906 40.0999 19.1614 -1.78906
313 1 40.9614 17.4944 -0.130108 40.9614 17.4944 -0.130108
314 2 42.7929 17.4785 1.57812 42.7929 17.4785 1.57812
315 2 42.9281 17.5095 -1.68134 42.9281 17.5095 -1.68134
316 1 43.8107 19.1394 0.00315897 43.8107 19.1394 0.00315897
317 2 45.6644 19.1063 1.68692 45.6644 19.1063 1.68692
318 2 45.757 19.1711 -1.57354 45.757 19.1711 -1.57354
319 1 46.6606 17.4925 0.0509539 46.6606 17.4925 0.0509539
320 2 48.5486 17.4587 1.69588 48.5486 17.4587 1.69588
321 2 48.5738 17.5248 -1.56581 48.5738 17.5248 -1.56581
322 1 49.512 19.1369 0.1054 49.512 19.1369 0.1054
323 2 51.4264 19.0877 1.71926 51.4264 19.0877 1.71926
324 2 51.3991 19.1846 -1.54156 51.3991 19.1846 -1.54156
325 1 1.07019 20.7813 0.129612 1.07019 20.7813 0.129612
326 2 3.0102 20.7221 1.71239 3.0102 20.7221 1.71239
327 2 2.93097 20.8393 -1.54681 2.93097 20.8393 -1.54681
328 1 3.92155 22.4261 0.118743 3.92155 22.4261 0.118743
329 2 5.88439 22.3632 1.67316 5.88439 22.3632 1.67316
330 2 5.75805 22.4883 -1.58417 5.75805 22.4883 -1.58417
331 1 6.77 20.7808 -0.055764 6.77 20.7808 -0.055764
332 2 8.75125 20.715 1.47495 8.75125 20.715 1.47495
333 2 8.58595 20.8469 -1.78037 8.58595 20.8469 -1.78037
334 1 9.61912 22.4269 -0.134253 9.61912 22.4269 -0.134253
335 2 11.6085 22.3618 1.38619 11.6085 22.3618 1.38619
336 2 11.4261 22.493 -1.86822 11.4261 22.493 -1.86822
337 1 12.4651 20.7831 -0.360825 12.4651 20.7831 -0.360825
338 2 14.4508 20.7201 1.16458 14.4508 20.7201 1.16458
339 2 14.2763 20.8475 -2.09036 14.2763 20.8475 -2.09036
340 1 15.3139 22.4301 -0.449262 15.3139 22.4301 -0.449262
341 2 17.2888 22.3691 1.09056 17.2888 22.3691 1.09056
342 2 17.1375 22.4928 -2.1657 17.1375 22.4928 -2.1657
343 1 18.1621 20.7865 -0.644563 18.1621 20.7865 -0.644563
344 2 20.1115 20.7338 0.928063 20.1115 20.7338 0.928063
345 2 20.014 20.8406 -2.33073 20.014 20.8406 -2.33073
346 1 21.0136 22.4336 -0.675606 21.0136 22.4336 -0.675606
347 2 22.9368 22.3803 0.92914 22.9368 22.3803 0.92914
348 2 22.893 22.4882 -2.33081 22.893 22.4882 -2.33081
349 1 23.8656 20.7887 -0.768403 23.8656 20.7887 -0.768403
350 2 25.7519 20.7483 0.880238 25.7519 20.7483 0.880238
351 2 25.7826 20.8297 -2.38053 25.7826 20.8297 -2.38053
352 1 26.718 22.4354 -0.699904 26.718 22.4354 -0.699904
353 2 28.5752 22.3898 0.981345 28.5752 22.3898 0.981345
354 2 28.6627 22.4814 -2.27819 28.6627 22.4814 -2.27819
355 1 29.5696 20.7891 -0.669376 29.5696 20.7891 -0.669376
356 2 31.3966 20.7577 1.04489 31.3966 20.7577 1.04489
357 2 31.542 20.8206 -2.21326 31.542 20.8206 -2.21326
358 1 32.4191 22.4351 -0.509865 32.4191 22.4351 -0.509865
359 2 34.2303 22.3944 1.2206 34.2303 22.3944 1.2206
360 2 34.4051 22.4755 -2.03582 34.4051 22.4755 -2.03582
361 1 35.2672 20.7882 -0.397829 35.2672 20.7882 -0.397829
362 2 37.0708 20.7587 1.34046 37.0708 20.7587 1.34046
363 2 37.2596 20.8172 -1.91575 37.2596 20.8172 -1.91575
364 1 38.1144 22.4334 -0.203019 38.1144 22.4334 -0.203019
365 2 39.924 22.3925 1.52859 39.924 22.3925 1.52859
366 2 40.1013 22.4732 -1.72785 40.1013 22.4732 -1.72785
367 1 40.9621 20.7864 -0.0888138 40.9621 20.7864 -0.0888138
368 2 42.7883 20.7512 1.62495 42.7883 20.7512 1.62495
369 2 42.9338 20.8204 -1.63341 42.9338 20.8204 -1.63341
370 1 43.8109 22.4307 0.0730505 43.8109 22.4307 0.0730505
371 2 45.6598 22.3846 1.76199 45.6598 22.3846 1.76199
372 2 45.762 22.4753 -1.49746 45.762 22.4753 -1.49746
373 1 46.6611 20.7838 0.116127 46.6611 20.7838 0.116127
374 2 48.5411 20.737 1.77014 48.5411 20.737 1.77014
375 2 48.5825 20.8288 -1.49066 48.5825 20.8288 -1.49066
376 1 49.5126 22.4279 0.197991 49.5126 22.4279 0.197991
377 2 51.421 22.3728 1.81899 51.421 22.3728 1.81899
378 2 51.4061 22.4812 -1.44143 51.4061 22.4812 -1.44143
379 1 1.07096 24.0722 0.239111 1.07096 24.0722 0.239111
380 2 3.00759 24.0152 1.82646 3.00759 24.0152 1.82646
381 2 2.93581 24.1279 -1.43295 2.93581 24.1279 -1.43295
382 1 3.92257 25.7173 0.232837 3.92257 25.7173 0.232837
383 2 5.8842 25.664 1.78948 5.8842 25.664 1.78948
384 2 5.76084 25.7698 -1.46857 5.76084 25.7698 -1.46857
385 1 6.77193 24.0715 0.0708882 6.77193 24.0715 0.0708882
386 2 8.75229 24.0104 1.60319 8.75229 24.0104 1.60319
387 2 8.58917 24.1327 -1.65258 8.58917 24.1327 -1.65258
388 1 9.62095 25.7178 -0.0103993 9.62095 25.7178 -0.0103993
389 2 11.6107 25.662 1.51007 11.6107 25.662 1.51007
390 2 11.4275 25.7743 -1.74502 11.4275 25.7743 -1.74502
391 1 12.4675 24.0735 -0.227808 12.4675 24.0735 -0.227808
392 2 14.4559 24.0119 1.29412 14.4559 24.0119 1.29412
393 2 14.2754 24.1367 -1.96067 14.2754 24.1367 -1.96067
394 1 15.3157 25.7206 -0.322707 15.3157 25.7206 -0.322707
395 2 17.2927 25.6626 1.21435 17.2927 25.6626 1.21435
396 2 17.1363 25.7803 -2.042 17.1363 25.7803 -2.042
397 1 18.1636 24.0772 -0.519054 18.1636 24.0772 -0.519054
398 2 20.1183 24.0178 1.0465 20.1183 24.0178 1.0465
399 2 20.0091 24.1385 -2.21157 20.0091 24.1385 -2.21157
400 1 21.0143 25.7243 -0.553233 21.0143 25.7243 -0.553233
401 2 22.9407 25.6647 1.04708 22.9407 25.6647 1.04708
402 2 22.8896 25.7858 -2.21245 22.8896 25.7858 -2.21245
403 1 23.8657 24.0804 -0.658919 23.8657 24.0804 -0.658919
404 2 25.7581 24.0246 0.982089 25.7581 24.0246 0.982089
405 2 25.7761 24.1374 -2.27797 25.7761 24.1374 -2.27797
406 1 26.7176 25.7268 -0.585475 26.7176 25.7268 -0.585475
407 2 28.5786 25.6671 1.09078 28.5786 25.6671 1.09078
408 2 28.6579 25.7874 -2.16816 28.6579 25.7874 -2.16816
409 1 29.5691 24.0815 -0.576493 29.5691 24.0815 -0.576493
410 2 31.4009 24.0296 1.13201 31.4009 24.0296 1.13201
411 2 31.5367 24.1335 -2.12559 31.5367 24.1335 -2.12559
412 1 32.4181 25.7268 -0.404462 32.4181 25.7268 -0.404462
413 2 34.2329 25.6693 1.32164 34.2329 25.6693 1.32164
414 2 34.4006 25.784 -1.93419 34.4006 25.784 -1.93419
415 1 35.2668 24.0803 -0.315492 35.2668 24.0803 -0.315492
416 2 37.0725 24.0312 1.42021 37.0725 24.0312 1.42021
417 2 37.2572 24.1286 -1.8353 37.2572 24.1286 -1.8353
418 1 38.1135 25.7247 -0.104334 38.1135 25.7247 -0.104334
419 2 39.9254 25.6706 1.62462 39.9254 25.6706 1.62462
420 2 40.0985 25.7776 -1.63124 40.0985 25.7776 -1.63124
421 1 40.9618 24.0777 -0.00710278 40.9618 24.0777 -0.00710278
422 2 42.7872 24.0289 1.70751 42.7872 24.0289 1.70751
423 2 42.9346 24.1251 -1.54999 42.9346 24.1251 -1.54999
424 1 43.8104 25.7217 0.170462 43.8104 25.7217 0.170462
425 2 45.6598 25.6702 1.85906 45.6598 25.6702 1.85906
426 2 45.7614 25.7716 -1.39998 45.7614 25.7716 -1.39998
427 1 46.6611 24.0747 0.207842 46.6611 24.0747 0.207842
428 2 48.5379 24.0229 1.86567 48.5379 24.0229 1.86567
429 2 48.5861 24.1248 -1.3946 48.5861 24.1248 -1.3946
430 1 49.5127 25.7189 0.301132 49.5127 25.7189 0.301132
431 2 51.42 25.6677 1.92398 51.42 25.6677 1.92398
432 2 51.4079 25.7686 -1.33656 51.4079 25.7686 -1.33656
433 1 1.07129 27.3638 0.341329 1.07129 27.3638 0.341329
434 2 3.0085 27.3191 1.9287 3.0085 27.3191 1.9287
435 2 2.93602 27.4074 -1.33134 2.93602 27.4074 -1.33134
436 1 3.92292 29.0096 0.322355 3.92292 29.0096 0.322355
437 2 5.88579 28.9756 1.87823 5.88579 28.9756 1.87823
438 2 5.76015 29.0429 -1.38069 5.76015 29.0429 -1.38069
439 1 6.77295 27.3632 0.178075 6.77295 27.3632 0.178075
440 2 8.75307 27.3176 1.71144 8.75307 27.3176 1.71144
441 2 8.59068 27.4086 -1.54536 8.59068 27.4086 -1.54536
442 1 9.6216 29.0098 0.0818176 9.6216 29.0098 0.0818176
443 2 11.6104 28.9732 1.60412 11.6104 28.9732 1.60412
444 2 11.4292 29.0467 -1.6522 11.4292 29.0467 -1.6522
445 1 12.4688 27.3646 -0.113987 12.4688 27.3646 -0.113987
446 2 14.4571 27.315 1.40857 14.4571 27.315 1.40857
447 2 14.2767 27.4154 -1.84713 14.2767 27.4154 -1.84713
448 1 15.3164 29.0117 -0.22103 15.3164 29.0117 -0.22103
449 2 17.2912 28.967 1.31919 17.2912 28.967 1.31919
450 2 17.1391 29.0579 -1.93832 17.1391 29.0579 -1.93832
451 1 18.1645 27.3678 -0.399818 18.1645 27.3678 -0.399818
452 2 20.1194 27.312 1.16546 20.1194 27.312 1.16546
453 2 20.0093 27.4255 -2.09299 20.0093 27.4255 -2.09299
454 1 21.0146 29.0149 -0.438449 21.0146 29.0149 -0.438449
455 2 22.9388 28.9595 1.16445 22.9388 28.9595 1.16445
456 2 22.8915 29.0722 -2.09559 22.8915 29.0722 -2.09559
457 1 23.8657 27.3711 -0.53627 23.8657 27.3711 -0.53627
458 2 25.7592 27.3097 1.10294 25.7592 27.3097 1.10294
459 2 25.7742 27.4341 -2.15688 25.7742 27.4341 -2.15688
460 1 26.7167 29.0174 -0.459572 26.7167 29.0174 -0.459572
461 2 28.5777 28.9542 1.21637 28.5777 28.9542 1.21637
462 2 28.6564 29.0818 -2.04244 28.6564 29.0818 -2.04244
463 1 29.568 27.3726 -0.454558 29.568 27.3726 -0.454558
464 2 31.4026 27.3094 1.25035 31.4026 27.3094 1.25035
465 2 31.5325 27.4361 -2.00678 31.5325 27.4361 -2.00678
466 1 32.4162 29.0176 -0.276033 32.4162 29.0176 -0.276033
467 2 34.2342 28.9534 1.44639 34.2342 28.9534 1.44639
468 2 34.3955 29.0814 -1.80931 34.3955 29.0814 -1.80931
469 1 35.2652 27.3714 -0.199207 35.2652 27.3714 -0.199207
470 2 37.0748 27.3112 1.53209 37.0748 27.3112 1.53209
471 2 37.2521 27.4307 -1.72308 37.2521 27.4307 -1.72308
472 1 38.1116 29.0154 0.0168952 38.1116 29.0154 0.0168952
473 2 39.9288 28.9575 1.74017 39.9288 28.9575 1.74017
474 2 40.0919 29.0723 -1.51589 40.0919 29.0723 -1.51589
475 1 40.9606 27.3686 0.101478 40.9606 27.3686 0.101478
476 2 42.7897 27.3145 1.81222 42.7897 27.3145 1.81222
477 2 42.9304 27.4213 -1.44517 42.9304 27.4213 -1.44517
478 1 43.8093 29.0127 0.278813 43.8093 29.0127 0.278813
479 2 45.6644 28.9649 1.96156 45.6644 28.9649 1.96156
480 2 45.7555 29.0592 -1.2979 45.7555 29.0592 -1.2979
481 1 46.6607 27.3658 0.31061 46.6607 27.3658 0.31061
482 2 48.5398 27.3179 1.96627 48.5398 27.3179 1.96627
483 2 48.5839 27.4123 -1.29417 48.5839 27.4123 -1.29417
484 1 49.5125 29.0106 0.396828 49.5125 29.0106 0.396828
485 2 51.4237 28.9724 2.01573 51.4237 28.9724 2.01573
486 2 51.4043 29.0478 -1.24535 51.4043 29.0478 -1.24535
487 1 1.07125 30.6564 0.417905 1.07125 30.6564 0.417905
488 2 3.01293 30.6322 2.00049 3.01293 30.6322 2.00049
489 2 2.93159 30.6799 -1.26012 2.93159 30.6799 -1.26012
490 1 3.92258 32.303 0.370789 3.92258 32.303 0.370789
491 2 5.8889 32.2947 1.92277 5.8889 32.2947 1.92277
492 2 5.75612 32.3108 -1.3365 5.75612 32.3108 -1.3365
493 1 6.77293 30.6561 0.246334 6.77293 30.6561 0.246334
494 2 8.7534 30.6344 1.77991 8.7534 30.6344 1.77991
495 2 8.59035 30.6775 -1.47782 8.59035 30.6775 -1.47782
496 1 9.62095 32.303 0.12537 9.62095 32.303 0.12537
497 2 11.6076 32.2925 1.65089 11.6076 32.2925 1.65089
498 2 11.4308 32.3133 -1.60647 11.4308 32.3133 -1.60647
499 1 12.4689 30.6568 -0.0396893 12.4689 30.6568 -0.0396893
500 2 14.4541 30.6281 1.48745 14.4541 30.6281 1.48745
501 2 14.28 30.6861 -1.7697 14.28 30.6861 -1.7697
502 1 15.316 32.3038 -0.162515 15.316 32.3038 -0.162515
503 2 17.2845 32.2803 1.38614 17.2845 32.2803 1.38614
504 2 17.1452 32.3282 -1.87296 17.1452 32.3282 -1.87296
505 1 18.1647 30.6589 -0.307875 18.1647 30.6589 -0.307875
506 2 20.1146 30.6167 1.26389 20.1146 30.6167 1.26389
507 2 20.0143 30.7027 -1.99585 20.0143 30.7027 -1.99585
508 1 21.0142 32.306 -0.351741 21.0142 32.306 -0.351741
509 2 22.9312 32.2647 1.26021 22.9312 32.2647 1.26021
510 2 22.8981 32.3489 -2.001 22.8981 32.3489 -2.001
511 1 23.8653 30.6617 -0.422272 23.8653 30.6617 -0.422272
512 2 25.7549 30.6057 1.22139 25.7549 30.6057 1.22139
513 2 25.7769 30.7193 -2.03893 25.7769 30.7193 -2.03893
514 1 26.7155 32.3081 -0.34479 26.7155 32.3081 -0.34479
515 2 28.5724 32.2525 1.33573 28.5724 32.2525 1.33573
516 2 28.6584 32.3647 -1.92358 28.6584 32.3647 -1.92358
517 1 29.5662 30.6631 -0.325364 29.5662 30.6631 -0.325364
518 2 31.401 30.5998 1.37912 31.401 30.5998 1.37912
519 2 31.53 30.7267 -1.87813 31.53 30.7267 -1.87813
520 1 32.4137 32.3082 -0.147444 32.4137 32.3082 -0.147444
521 2 34.2337 32.2487 1.57289 34.2337 32.2487 1.57289
522 2 34.3909 32.3674 -1.68339 34.3909 32.3674 -1.68339
523 1 35.2628 30.662 -0.0694127 35.2628 30.662 -0.0694127
524 2 37.0773 30.6013 1.65676 37.0773 30.6013 1.65676
525 2 37.2453 30.7219 -1.59885 37.2453 30.7219 -1.59885
526 1 38.1092 32.3064 0.139285 38.1092 32.3064 0.139285
527 2 39.9339 32.2549 1.85493 39.9339 32.2549 1.85493
528 2 40.0829 32.357 -1.40217 40.0829 32.357 -1.40217
529 1 40.9589 30.6596 0.218075 40.9589 30.6596 0.218075
530 2 42.7955 30.6098 1.92093 42.7955 30.6098 1.92093
531 2 42.922 30.7083 -1.33722 42.922 30.7083 -1.33722
532 1 43.8081 32.3044 0.378896 43.8081 32.3044 0.378896
533 2 45.673 32.269 2.05117 45.673 32.269 2.05117
534 2 45.7453 32.3391 -1.20928 45.7453 32.3391 -1.20928
535 1 46.6601 30.6575 0.40641 46.6601 30.6575 0.40641
536 2 48.5467 30.6222 2.0541 48.5467 30.6222 2.0541
537 2 48.5764 30.692 -1.20701 48.5764 30.692 -1.20701