ITEM: TIMESTEP
1000
ITEM: NUMBER OF ATOMS
810
ITEM: BOX BOUNDS pp pp pp
8.7044411845801317e-01 5.2147160881541886e+01
8.5350796340898127e-01 5.0162707036590227e+01
-1.0000000000000000e+01 1.0000000000000000e+01
ITEM: ATOMS id type x y z xu yu zu
1 1 1.03673 1.08594 0.306673 1.03673 1.08594 0.306673
2 2 3.06784 0.922929 1.75702 3.06784 0.922929 1.75702
3 2 2.78395 1.27448 -1.47629 2.78395 1.27448 -1.47629
4 1 3.87899 2.73266 0.236106 3.87899 2.73266 0.236106
5 2 5.87175 2.61979 1.74765 5.87175 2.61979 1.74765
6 2 5.67418 2.84877 -1.5015 5.67418 2.84877 -1.5015
7 1 6.73902 1.10031 -0.0521564 6.73902 1.10031 -0.0521564
8 2 8.48919 0.986424 1.7476 8.48919 0.986424 1.7476
9 2 8.7905 1.16378 -1.49533 8.7905 1.16378 -1.49533
10 1 9.59759 2.70262 0.303645 9.59759 2.70262 0.303645
11 2 11.5474 2.52208 1.8755 11.5474 2.52208 1.8755
12 2 11.4629 2.83565 -1.3704 11.4629 2.83565 -1.3704
13 1 12.4578 1.04373 0.0712145 12.4578 1.04373 0.0712145
14 2 14.4711 50.1012 1.53761 14.4711 0.791956 1.53761
15 2 14.2393 1.26961 -1.68124 14.2393 1.26961 -1.68124
16 1 15.3302 2.65338 0.102507 15.3302 2.65338 0.102507
17 2 17.3906 2.51564 1.53238 17.3906 2.51564 1.53238
18 2 17.0677 2.79952 -1.69977 17.0677 2.79952 -1.69977
19 1 18.1724 1.02424 -0.323857 18.1724 1.02424 -0.323857
20 2 20.2458 50.0973 1.06965 20.2458 0.788054 1.06965
21 2 19.8984 1.27597 -2.13281 19.8984 1.27597 -2.13281
22 1 21.0471 2.67041 -0.386039 21.0471 2.67041 -0.386039
23 2 23.1097 2.51243 1.0411 23.1097 2.51243 1.0411
24 2 22.7858 2.86905 -2.18104 22.7858 2.86905 -2.18104
25 1 23.8904 1.0535 -0.843777 23.8904 1.0535 -0.843777
26 2 25.7028 0.915026 0.905874 25.7028 0.915026 0.905874
27 2 25.906 1.19721 -2.33328 25.906 1.19721 -2.33328
28 1 26.7581 2.70738 -0.505052 26.7581 2.70738 -0.505052
29 2 28.7195 2.75178 1.05458 28.7195 2.75178 1.05458
30 2 28.6049 2.6817 -2.20254 28.6049 2.6817 -2.20254
31 1 29.6125 1.07251 -0.567085 29.6125 1.07251 -0.567085
32 2 31.4487 0.915516 1.13214 31.4487 0.915516 1.13214
33 2 31.5733 1.24528 -2.11185 31.5733 1.24528 -2.11185
34 1 32.4546 2.72399 -0.294549 32.4546 2.72399 -0.294549
35 2 34.3158 2.58714 1.3805 34.3158 2.58714 1.3805
36 2 34.3995 2.90907 -1.86529 34.3995 2.90907 -1.86529
37 1 35.3075 1.11832 -0.380202 35.3075 1.11832 -0.380202
38 2 37.0245 0.957759 1.44022 37.0245 0.957759 1.44022
39 2 37.3686 1.32905 -1.78301 37.3686 1.32905 -1.78301
40 1 38.1427 2.77184 0.117773 38.1427 2.77184 0.117773
41 2 39.9909 2.61057 1.80397 39.9909 2.61057 1.80397
42 2 40.0994 2.94928 -1.44071 40.0994 2.94928 -1.44071
43 1 40.9774 1.13458 0.0436789 40.9774 1.13458 0.0436789
44 2 42.685 0.887942 1.8602 42.685 0.887942 1.8602
45 2 43.0363 1.32483 -1.35462 43.0363 1.32483 -1.35462
46 1 43.8068 2.72845 0.579546 43.8068 2.72845 0.579546
47 2 45.7484 2.55885 2.15449 45.7484 2.55885 2.15449
48 2 45.6726 2.88601 -1.09222 45.6726 2.88601 -1.09222
49 1 46.6427 1.08652 0.343382 46.6427 1.08652 0.343382
50 2 48.5623 0.877468 1.93468 48.5623 0.877468 1.93468
51 2 48.508 1.31827 -1.30152 48.508 1.31827 -1.30152
52 1 49.4721 2.73035 0.528468 49.4721 2.73035 0.528468
53 2 51.4193 2.60728 2.09198 51.4193 2.60728 2.09198
54 2 51.3109 2.84991 -1.16097 51.3109 2.84991 -1.16097
55 1 1.04348 4.36477 0.556217 1.04348 4.36477 0.556217
56 2 3.06487 4.27761 2.02764 3.06487 4.27761 2.02764
57 2 2.80459 4.46349 -1.2202 2.80459 4.46349 -1.2202
58 1 3.90253 6.00895 0.416375 3.90253 6.00895 0.416375
59 2 5.90939 5.98335 1.90871 5.90939 5.98335 1.90871
60 2 5.68391 6.03922 -1.3455 5.68391 6.03922 -1.3455
61 1 6.74072 4.36594 0.187659 6.74072 4.36594 0.187659
62 2 8.59226 4.36355 1.88755 8.59226 4.36355 1.88755
63 2 8.69511 4.33622 -1.3732 8.69511 4.33622 -1.3732
64 1 9.61422 5.98217 0.276779 9.61422 5.98217 0.276779
65 2 11.4635 5.96627 1.97115 11.4635 5.96627 1.97115
66 2 11.5676 5.95508 -1.2886 11.5676 5.95508 -1.2886
67 1 12.4712 4.3093 0.38282 12.4712 4.3093 0.38282
68 2 14.4682 4.1725 1.89974 14.4682 4.1725 1.89974
69 2 14.2884 4.41159 -1.34695 14.2884 4.41159 -1.34695
70 1 15.3388 5.93273 0.340756 15.3388 5.93273 0.340756
71 2 17.3889 5.84321 1.77894 17.3889 5.84321 1.77894
72 2 17.0879 6.02508 -1.46337 17.0879 6.02508 -1.46337
73 1 18.1923 4.30037 -0.030641 18.1923 4.30037 -0.030641
74 2 20.2714 4.28245 1.37129 20.2714 4.28245 1.37129
75 2 19.9079 4.35145 -1.8649 19.9079 4.35145 -1.8649
76 1 21.0451 5.97313 -0.323222 21.0451 5.97313 -0.323222
77 2 22.967 5.83848 1.28977 22.967 5.83848 1.28977
78 2 22.9606 6.12665 -1.95641 22.9606 6.12665 -1.95641
79 1 23.9108 4.34033 -0.48361 23.9108 4.34033 -0.48361
80 2 25.8365 4.38306 1.12293 25.8365 4.38306 1.12293
81 2 25.7998 4.34277 -2.13673 25.7998 4.34277 -2.13673
82 1 26.7679 6.01809 -0.539435 26.7679 6.01809 -0.539435
83 2 28.6413 5.866 1.11263 28.6413 5.866 1.11263
84 2 28.7003 6.1835 -2.13174 28.7003 6.1835 -2.13174
85 1 29.6204 4.37365 -0.648656 29.6204 4.37365 -0.648656
86 2 31.2958 4.32669 1.23024 31.2958 4.32669 1.23024
87 2 31.7351 4.4195 -1.99884 31.7351 4.4195 -1.99884
88 1 32.4604 6.01807 -0.207695 32.4604 6.01807 -0.207695
89 2 34.1162 5.78222 1.65293 34.1162 5.78222 1.65293
90 2 34.5661 6.26429 -1.54152 34.5661 6.26429 -1.54152
91 1 35.302 4.39302 -0.0539951 35.302 4.39302 -0.0539951
92 2 37.0416 4.3216 1.74787 37.0416 4.3216 1.74787
93 2 37.3468 4.5108 -1.49494 37.3468 4.5108 -1.49494
94 1 38.1354 6.0583 0.315781 38.1354 6.0583 0.315781
95 2 39.9118 5.91675 2.07471 39.9118 5.91675 2.07471
96 2 40.1513 6.19841 -1.16692 40.1513 6.19841 -1.16692
97 1 40.9843 4.41313 0.384669 40.9843 4.41313 0.384669
98 2 42.7347 4.34677 2.17426 42.7347 4.34677 2.17426
99 2 43.0113 4.4419 -1.07518 43.0113 4.4419 -1.07518
100 1 43.8092 6.03956 0.679886 43.8092 6.03956 0.679886
101 2 45.6687 5.9589 2.3466 45.6687 5.9589 2.3466
102 2 45.7325 6.0986 -0.914363 45.7325 6.0986 -0.914363
103 1 46.6351 4.37326 0.672021 46.6351 4.37326 0.672021
104 2 48.5229 4.22289 2.30215 48.5229 4.22289 2.30215
105 2 48.5249 4.51652 -0.949272 48.5249 4.51652 -0.949272
106 1 49.4848 6.00411 0.825491 49.4848 6.00411 0.825491
107 2 51.5048 5.95789 2.30212 51.5048 5.95789 2.30212
108 2 51.2571 6.05523 -0.949189 51.2571 6.05523 -0.949189
109 1 1.07594 7.64957 0.648975 1.07594 7.64957 0.648975
110 2 3.05794 7.57388 2.17539 3.05794 7.57388 2.17539
111 2 2.89374 7.73922 -1.07822 2.89374 7.73922 -1.07822
112 1 3.95269 9.2964 0.584377 3.95269 9.2964 0.584377
113 2 5.99802 9.23244 2.0261 5.99802 9.23244 2.0261
114 2 5.69688 9.37622 -1.21784 5.69688 9.37622 -1.21784
115 1 6.77216 7.65 0.243738 6.77216 7.65 0.243738
116 2 8.66318 7.63597 1.89698 8.66318 7.63597 1.89698
117 2 8.69477 7.63744 -1.36402 8.69477 7.63744 -1.36402
118 1 9.64327 9.2772 0.280992 9.64327 9.2772 0.280992
119 2 11.5078 9.27059 1.95604 11.5078 9.27059 1.95604
120 2 11.5778 9.23689 -1.30471 11.5778 9.23689 -1.30471
121 1 12.4794 7.59781 0.365781 12.4794 7.59781 0.365781
122 2 14.3763 7.54543 2.00136 14.3763 7.54543 2.00136
123 2 14.3842 7.61245 -1.25782 14.3842 7.61245 -1.25782
124 1 15.3479 9.23178 0.407968 15.3479 9.23178 0.407968
125 2 17.4296 9.30957 1.80425 17.4296 9.30957 1.80425
126 2 17.0539 9.15202 -1.43082 17.0539 9.15202 -1.43082
127 1 18.1941 7.58217 0.161119 18.1941 7.58217 0.161119
128 2 20.2499 7.392 1.58854 20.2499 7.392 1.58854
129 2 19.9346 7.80521 -1.62875 19.9346 7.80521 -1.62875
130 1 21.0541 9.24078 0.0978895 21.0541 9.24078 0.0978895
131 2 23.0771 9.1857 1.58457 23.0771 9.1857 1.58457
132 2 22.8342 9.3236 -1.66629 22.8342 9.3236 -1.66629
133 1 23.9162 7.62455 -0.189246 23.9162 7.62455 -0.189246
134 2 25.9255 7.50402 1.30159 25.9255 7.50402 1.30159
135 2 25.708 7.80648 -1.93884 25.708 7.80648 -1.93884
136 1 26.7648 9.29508 -0.229711 26.7648 9.29508 -0.229711
137 2 28.6112 9.09251 1.45666 28.6112 9.09251 1.45666
138 2 28.7221 9.48989 -1.78087 28.7221 9.48989 -1.78087
139 1 29.6244 7.66164 -0.331725 29.6244 7.66164 -0.331725
140 2 31.3214 7.44567 1.50462 31.3214 7.44567 1.50462
141 2 31.705 7.86852 -1.70845 31.705 7.86852 -1.70845
142 1 32.4351 9.28651 0.2329 32.4351 9.28651 0.2329
143 2 34.1293 9.15408 2.0768 34.1293 9.15408 2.0768
144 2 34.5086 9.43648 -1.15076 34.5086 9.43648 -1.15076
145 1 35.269 7.65214 0.43034 35.269 7.65214 0.43034
146 2 37.1221 7.48797 2.11049 37.1221 7.48797 2.11049
147 2 37.2261 7.88786 -1.12439 37.2261 7.88786 -1.12439
148 1 38.1188 9.32534 0.729978 38.1188 9.32534 0.729978
149 2 40.0007 9.24418 2.38196 40.0007 9.24418 2.38196
150 2 40.0407 9.43158 -0.875503 40.0407 9.43158 -0.875503
151 1 40.9696 7.69595 0.665889 40.9696 7.69595 0.665889
152 2 42.8345 7.65303 2.33181 42.8345 7.65303 2.33181
153 2 42.9007 7.72953 -0.929793 42.9007 7.72953 -0.929793
154 1 43.8296 9.32997 0.757118 43.8296 9.32997 0.757118
155 2 45.5964 9.13093 2.52483 45.5964 9.13093 2.52483
156 2 45.8496 9.48806 -0.708483 45.8496 9.48806 -0.708483
157 1 46.6601 7.66695 0.799581 46.6601 7.66695 0.799581
158 2 48.4747 7.55855 2.51154 48.4747 7.55855 2.51154
159 2 48.6309 7.75248 -0.743077 48.6309 7.75248 -0.743077
160 1 49.5342 9.28056 1.02834 49.5342 9.28056 1.02834
161 2 51.5244 9.06686 2.53582 51.5244 9.06686 2.53582
162 2 51.3452 9.50232 -0.691628 51.3452 9.50232 -0.691628
163 1 1.13723 10.9178 1.08514 1.13723 10.9178 1.08514
164 2 3.25654 10.8377 2.43518 3.25654 10.8377 2.43518
165 2 2.81272 11.0413 -0.788153 2.81272 11.0413 -0.788153
166 1 3.9843 12.5898 0.800828 3.9843 12.5898 0.800828
167 2 6.0925 12.5701 2.15999 6.0925 12.5701 2.15999
168 2 5.65221 12.6234 -1.07193 5.65221 12.6234 -1.07193
169 1 6.81077 10.9477 0.389254 6.81077 10.9477 0.389254
170 2 8.74877 10.8831 1.98513 8.74877 10.8831 1.98513
171 2 8.68442 10.9876 -1.27365 8.68442 10.9876 -1.27365
172 1 9.6859 12.5754 0.395857 9.6859 12.5754 0.395857
173 2 11.6998 12.686 1.89146 11.6998 12.686 1.89146
174 2 11.4739 12.4234 -1.3533 11.4739 12.4234 -1.3533
175 1 12.512 10.8959 0.336222 12.512 10.8959 0.336222
176 2 14.4767 11.0644 1.88192 14.4767 11.0644 1.88192
177 2 14.3448 10.7099 -1.35746 14.3448 10.7099 -1.35746
178 1 15.3685 12.5161 0.0385789 15.3685 12.5161 0.0385789
179 2 17.3457 12.6132 1.56231 17.3457 12.6132 1.56231
180 2 17.1752 12.4208 -1.69198 17.1752 12.4208 -1.69198
181 1 18.1961 10.8692 -0.00811393 18.1961 10.8692 -0.00811393
182 2 20.0511 10.9039 1.68058 20.0511 10.9039 1.68058
183 2 20.1416 10.8726 -1.58068 20.1416 10.8726 -1.58068
184 1 21.042 12.5333 0.0574611 21.042 12.5333 0.0574611
185 2 23.0188 12.5867 1.588 23.0188 12.5867 1.588
186 2 22.8555 12.4895 -1.6709 22.8555 12.4895 -1.6709
187 1 23.8971 10.903 -0.0372145 23.8971 10.903 -0.0372145
188 2 25.8428 10.8016 1.54181 25.8428 10.8016 1.54181
189 2 25.7502 11.0423 -1.71217 25.7502 11.0423 -1.71217
190 1 26.7273 12.5687 0.0113678 26.7273 12.5687 0.0113678
191 2 28.6014 12.5885 1.67167 28.6014 12.5885 1.67167
192 2 28.6473 12.5495 -1.59177 28.6473 12.5495 -1.59177
193 1 29.591 10.9298 0.0781014 29.591 10.9298 0.0781014
194 2 31.3456 10.8332 1.8695 31.3456 10.8332 1.8695
195 2 31.6167 11.0174 -1.37882 31.6167 11.0174 -1.37882
196 1 32.4179 12.5639 0.41949 32.4179 12.5639 0.41949
197 2 34.1589 12.5977 2.22672 34.1589 12.5977 2.22672
198 2 34.4655 12.5463 -1.02103 34.4655 12.5463 -1.02103
199 1 35.2644 10.9344 0.7201 35.2644 10.9344 0.7201
200 2 37.1271 10.8993 2.40366 37.1271 10.8993 2.40366
201 2 37.2202 11.0361 -0.854433 37.2202 11.0361 -0.854433
202 1 38.1366 12.6056 0.869461 38.1366 12.6056 0.869461
203 2 40.0169 12.5574 2.53209 40.0169 12.5574 2.53209
204 2 40.0702 12.6762 -0.727691 40.0702 12.6762 -0.727691
205 1 40.9851 10.9727 0.859285 40.9851 10.9727 0.859285
206 2 42.8845 10.8598 2.49173 42.8845 10.8598 2.49173
207 2 42.8879 11.0828 -0.764288 42.8879 11.0828 -0.764288
208 1 43.8499 12.6059 0.980869 43.8499 12.6059 0.980869
209 2 45.6544 12.6168 2.71805 45.6544 12.6168 2.71805
210 2 45.8413 12.5643 -0.537157 45.8413 12.5643 -0.537157
211 1 46.6903 10.9348 1.16975 46.6903 10.9348 1.16975
212 2 48.6652 10.8933 2.72688 48.6652 10.8933 2.72688
213 2 48.536 10.9587 -0.532119 48.536 10.9587 -0.532119
214 1 49.5544 12.5699 1.09216 49.5544 12.5699 1.09216
215 2 51.4278 12.5076 2.75448 51.4278 12.5076 2.75448
216 2 51.4825 12.6248 -0.502519 51.4825 12.6248 -0.502519
217 1 1.13908 14.2168 1.19893 1.13908 14.2168 1.19893
218 2 3.21038 14.1403 2.61134 3.21038 14.1403 2.61134
219 2 2.86816 14.3183 -0.624662 2.86816 14.3183 -0.624662
220 1 4.00358 15.8801 0.977118 4.00358 15.8801 0.977118
221 2 6.17467 15.8743 2.23152 6.17467 15.8743 2.23152
222 2 5.59029 15.8657 -0.977262 5.59029 15.8657 -0.977262
223 1 6.82877 14.2305 0.449884 6.82877 14.2305 0.449884
224 2 8.86971 14.4016 1.90551 8.86971 14.4016 1.90551
225 2 8.59573 14.0364 -1.32583 8.59573 14.0364 -1.32583
226 1 9.67068 15.8348 0.0271579 9.67068 15.8348 0.0271579
227 2 11.6589 15.9923 1.54756 11.6589 15.9923 1.54756
228 2 11.4901 15.6247 -1.69126 11.4901 15.6247 -1.69126
229 1 12.5388 14.1793 0.068018 12.5388 14.1793 0.068018
230 2 14.5073 14.2535 1.61841 14.5073 14.2535 1.61841
231 2 14.3689 14.0823 -1.6387 14.3689 14.0823 -1.6387
232 1 15.3703 15.8106 -0.139816 15.3703 15.8106 -0.139816
233 2 17.3231 15.8441 1.42008 17.3231 15.8441 1.42008
234 2 17.2053 15.7707 -1.84232 17.2053 15.7707 -1.84232
235 1 18.2067 14.1589 -0.211142 18.2067 14.1589 -0.211142
236 2 20.019 14.2952 1.51124 20.019 14.2952 1.51124
237 2 20.1821 14.0514 -1.74028 20.1821 14.0514 -1.74028
238 1 21.0338 15.8202 -0.192344 21.0338 15.8202 -0.192344
239 2 22.8716 15.7906 1.49634 22.8716 15.7906 1.49634
240 2 22.9733 15.8669 -1.76756 22.9733 15.8669 -1.76756
241 1 23.8713 14.1881 -0.14275 23.8713 14.1881 -0.14275
242 2 25.681 14.2159 1.58074 25.681 14.2159 1.58074
243 2 25.8456 14.1915 -1.68034 25.8456 14.1915 -1.68034
244 1 26.7066 15.8446 -0.015767 26.7066 15.8446 -0.015767
245 2 28.5117 15.7405 1.7094 28.5117 15.7405 1.7094
246 2 28.6875 15.9491 -1.54286 28.6875 15.9491 -1.54286
247 1 29.5716 14.209 0.0308175 29.5716 14.209 0.0308175
248 2 31.2666 14.237 1.87998 31.2666 14.237 1.87998
249 2 31.6584 14.1565 -1.35931 31.6584 14.1565 -1.35931
250 1 32.4175 15.8289 0.339403 32.4175 15.8289 0.339403
251 2 34.1656 15.902 2.13238 34.1656 15.902 2.13238
252 2 34.4637 15.7601 -1.11417 34.4637 15.7601 -1.11417
253 1 35.2757 14.2086 0.667554 35.2757 14.2086 0.667554
254 2 37.1111 14.3119 2.37687 37.1111 14.3119 2.37687
255 2 37.2542 14.1659 -0.879194 37.2542 14.1659 -0.879194
256 1 38.149 15.8769 0.714167 38.149 15.8769 0.714167
257 2 39.8918 15.8786 2.52345 39.8918 15.8786 2.52345
258 2 40.2114 15.9224 -0.721066 40.2114 15.9224 -0.721066
259 1 41.0042 14.2581 0.974616 41.0042 14.2581 0.974616
260 2 42.8353 14.1427 2.6817 42.8353 14.1427 2.6817
261 2 42.9808 14.3692 -0.567632 42.9808 14.3692 -0.567632
262 1 43.8593 15.9048 1.21463 43.8593 15.9048 1.21463
263 2 45.7842 15.8311 2.82283 45.7842 15.8311 2.82283
264 2 45.7471 15.9556 -0.433377 45.7471 15.9556 -0.433377
265 1 46.7049 14.2355 1.11847 46.7049 14.2355 1.11847
266 2 48.589 14.1646 2.76309 48.589 14.1646 2.76309
267 2 48.6221 14.2734 -0.495507 48.6221 14.2734 -0.495507
268 1 49.5586 15.8747 1.20094 49.5586 15.8747 1.20094
269 2 51.4931 15.918 2.79585 51.4931 15.918 2.79585
270 2 51.4302 15.8188 -0.460098 51.4302 15.8188 -0.460098
271 1 1.14936 17.527 1.10036 1.14936 17.527 1.10036
272 2 3.16748 17.6047 2.59541 3.16748 17.6047 2.59541
273 2 2.93819 17.4678 -0.649947 2.93819 17.4678 -0.649947
274 1 4.02101 19.1906 0.828908 4.02101 19.1906 0.828908
275 2 6.22283 19.3409 2.04112 6.22283 19.3409 2.04112
276 2 5.59317 18.9817 -1.13649 5.59317 18.9817 -1.13649
277 1 6.83796 17.5053 0.450967 6.83796 17.5053 0.450967
278 2 9.01968 17.6124 1.67582 9.01968 17.6124 1.67582
279 2 8.38833 17.3401 -1.5133 8.38833 17.3401 -1.5133
280 1 9.63052 19.1002 -0.239901 9.63052 19.1002 -0.239901
281 2 11.6821 19.2734 1.19058 11.6821 19.2734 1.19058
282 2 11.3631 18.8724 -2.03027 11.3631 18.8724 -2.03027
283 1 12.5007 17.4423 -0.308232 12.5007 17.4423 -0.308232
284 2 14.3608 17.5309 1.37457 14.3608 17.5309 1.37457
285 2 14.4421 17.3555 -1.8833 14.4421 17.3555 -1.8833
286 1 15.3298 19.0944 -0.321812 15.3298 19.0944 -0.321812
287 2 17.2803 19.2155 1.24637 17.2803 19.2155 1.24637
288 2 17.1798 18.9565 -2.00595 17.1798 18.9565 -2.00595
289 1 18.1942 17.4545 -0.279038 18.1942 17.4545 -0.279038
290 2 20.0917 17.5497 1.35059 20.0917 17.5497 1.35059
291 2 20.0848 17.3695 -1.91068 20.0848 17.3695 -1.91068
292 1 21.0244 19.1012 -0.369376 21.0244 19.1012 -0.369376
293 2 22.8088 19.2104 1.38627 22.8088 19.2104 1.38627
294 2 23.0198 19.0063 -1.86719 23.0198 19.0063 -1.86719
295 1 23.8603 17.4741 -0.0704275 23.8603 17.4741 -0.0704275
296 2 25.6873 17.421 1.63859 25.6873 17.421 1.63859
297 2 25.8176 17.5349 -1.62272 25.8176 17.5349 -1.62272
298 1 26.6957 19.1222 0.108617 26.6957 19.1222 0.108617
299 2 28.5144 19.1009 1.83891 28.5144 19.1009 1.83891
300 2 28.6716 19.1256 -1.41815 28.6716 19.1256 -1.41815
301 1 29.5516 17.4762 0.242395 29.5516 17.4762 0.242395
302 2 31.3895 17.4572 1.94587 31.3895 17.4572 1.94587
303 2 31.5167 17.4636 -1.31475 31.5167 17.4636 -1.31475
304 1 32.4129 19.1064 0.366557 32.4129 19.1064 0.366557
305 2 34.3035 19.224 2.01767 34.3035 19.224 2.01767
306 2 34.3316 18.9841 -1.23586 34.3316 18.9841 -1.23586
307 1 35.2737 17.4732 0.524031 35.2737 17.4732 0.524031
308 2 37.0708 17.4987 2.27735 37.0708 17.4987 2.27735
309 2 37.2818 17.502 -0.977713 37.2818 17.502 -0.977713
310 1 38.1371 19.147 0.71554 38.1371 19.147 0.71554
311 2 39.9181 19.2597 2.48864 39.9181 19.2597 2.48864
312 2 40.1712 19.0998 -0.757007 40.1712 19.0998 -0.757007
313 1 41.0047 17.5475 1.02049 41.0047 17.5475 1.02049
314 2 42.8062 17.5692 2.77071 42.8062 17.5692 2.77071
315 2 43.0156 17.5566 -0.480027 43.0156 17.5566 -0.480027
316 1 43.8656 19.2214 1.20017 43.8656 19.2214 1.20017
317 2 45.7872 19.2914 2.81186 45.7872 19.2914 2.81186
318 2 45.7646 19.142 -0.441711 45.7646 19.142 -0.441711
319 1 46.7177 17.553 1.2522 46.7177 17.553 1.2522
320 2 48.7075 17.635 2.77716 48.7075 17.635 2.77716
321 2 48.5344 17.4429 -0.471208 48.5344 17.4429 -0.471208
322 1 49.577 19.1875 1.00944 49.577 19.1875 1.00944
323 2 51.5865 19.4311 2.49523 51.5865 19.4311 2.49523
324 2 51.3735 18.9127 -0.714771 51.3735 18.9127 -0.714771
325 1 1.14727 20.8029 0.566819 1.14727 20.8029 0.566819
326 2 3.0686 21.1071 2.15043 3.0686 21.1071 2.15043
327 2 3.03432 20.5408 -1.057 3.03432 20.5408 -1.057
328 1 3.98782 22.4599 0.24775 3.98782 22.4599 0.24775
329 2 6.097 22.6554 1.58153 6.097 22.6554 1.58153
330 2 5.64316 22.2159 -1.6193 5.64316 22.2159 -1.6193
331 1 6.8184 20.7877 0.0798591 6.8184 20.7877 0.0798591
332 2 8.96903 20.925 1.34422 8.96903 20.925 1.34422
333 2 8.40099 20.5746 -1.85001 8.40099 20.5746 -1.85001
334 1 9.61065 22.3762 -0.601694 9.61065 22.3762 -0.601694
335 2 11.6206 22.4533 0.886079 11.6206 22.4533 0.886079
336 2 11.3925 22.2696 -2.36165 11.3925 22.2696 -2.36165
337 1 12.4614 20.7066 -0.711728 12.4614 20.7066 -0.711728
338 2 14.2749 20.9253 1.02115 14.2749 20.9253 1.02115
339 2 14.4632 20.5073 -2.20737 14.4632 20.5073 -2.20737
340 1 15.3102 22.359 -0.749911 15.3102 22.359 -0.749911
341 2 17.1792 22.5075 0.904514 17.1792 22.5075 0.904514
342 2 17.2395 22.2014 -2.34305 17.2395 22.2014 -2.34305
343 1 18.1659 20.7251 -0.543062 18.1659 20.7251 -0.543062
344 2 20.0432 20.8639 1.10649 20.0432 20.8639 1.10649
345 2 20.0792 20.5899 -2.14726 20.0792 20.5899 -2.14726
346 1 20.9978 22.3687 -0.6491 20.9978 22.3687 -0.6491
347 2 22.7707 22.5115 1.11232 22.7707 22.5115 1.11232
348 2 23.009 22.21 -2.12915 23.009 22.21 -2.12915
349 1 23.855 20.7462 -0.281728 23.855 20.7462 -0.281728
350 2 25.6197 20.9036 1.49367 25.6197 20.9036 1.49367
351 2 25.8769 20.6054 -1.74662 25.8769 20.6054 -1.74662
352 1 26.7071 22.385 -0.202118 26.7071 22.385 -0.202118
353 2 28.4685 22.6287 1.56464 28.4685 22.6287 1.56464
354 2 28.7427 22.1622 -1.65083 28.7427 22.1622 -1.65083
355 1 29.5558 20.7675 0.27307 29.5558 20.7675 0.27307
356 2 31.5579 20.9945 1.77344 31.5579 20.9945 1.77344
357 2 31.3796 20.4977 -1.44293 31.3796 20.4977 -1.44293
358 1 32.4327 22.3567 -0.145479 32.4327 22.3567 -0.145479
359 2 34.207 22.537 1.63223 34.207 22.537 1.63223
360 2 34.4755 22.1881 -1.59933 34.4755 22.1881 -1.59933
361 1 35.286 20.7393 0.277685 35.286 20.7393 0.277685
362 2 37.031 20.9277 2.07643 37.031 20.9277 2.07643
363 2 37.3394 20.6081 -1.15497 37.3394 20.6081 -1.15497
364 1 38.1507 22.4064 0.391719 38.1507 22.4064 0.391719
365 2 39.9212 22.6738 2.15757 39.9212 22.6738 2.15757
366 2 40.1898 22.2213 -1.06021 40.1898 22.2213 -1.06021
367 1 41.0051 20.8316 0.861336 41.0051 20.8316 0.861336
368 2 42.7948 20.9946 2.6187 42.7948 20.9946 2.6187
369 2 43.0267 20.7345 -0.619487 43.0267 20.7345 -0.619487
370 1 43.8639 22.5275 0.93399 43.8639 22.5275 0.93399
371 2 45.8116 22.7475 2.50698 45.8116 22.7475 2.50698
372 2 45.7432 22.3004 -0.718487 45.7432 22.3004 -0.718487
373 1 46.7323 20.8746 1.10052 46.7323 20.8746 1.10052
374 2 48.7979 21.0429 2.51516 48.7979 21.0429 2.51516
375 2 48.4738 20.6528 -0.703267 48.4738 20.6528 -0.703267
376 1 49.5732 22.4805 0.60951 49.5732 22.4805 0.60951
377 2 51.5761 22.5884 2.11549 51.5761 22.5884 2.11549
378 2 51.375 22.3364 -1.12567 51.375 22.3364 -1.12567
379 1 1.14094 24.1193 0.308322 1.14094 24.1193 0.308322
380 2 3.24214 24.4101 1.64071 3.24214 24.4101 1.64071
381 2 2.81679 23.7847 -1.52857 2.81679 23.7847 -1.52857
382 1 3.93036 25.7283 -0.39184 3.93036 25.7283 -0.39184
383 2 5.89411 25.826 1.16844 5.89411 25.826 1.16844
384 2 5.77343 25.6196 -2.08363 5.77343 25.6196 -2.08363
385 1 6.78171 24.0652 -0.38344 6.78171 24.0652 -0.38344
386 2 8.86068 24.1555 1.00026 8.86068 24.1555 1.00026
387 2 8.47118 23.9055 -2.22835 8.47118 23.9055 -2.22835
388 1 9.59699 25.6735 -0.852057 9.59699 25.6735 -0.852057
389 2 11.5806 25.7468 0.679212 11.5806 25.7468 0.679212
390 2 11.4147 25.5585 -2.57099 11.4147 25.5585 -2.57099
391 1 12.4544 24.0039 -0.897298 12.4544 24.0039 -0.897298
392 2 14.3109 24.0701 0.79171 14.3109 24.0701 0.79171
393 2 14.4078 23.9421 -2.46626 14.4078 23.9421 -2.46626
394 1 15.2929 25.6601 -0.874055 15.2929 25.6601 -0.874055
395 2 17.1599 25.6082 0.799125 17.1599 25.6082 0.799125
396 2 17.2277 25.7096 -2.46034 17.2277 25.7096 -2.46034
397 1 18.1475 24.0077 -0.863551 18.1475 24.0077 -0.863551
398 2 19.9286 24.0342 0.891939 19.9286 24.0342 0.891939
399 2 20.1582 23.9907 -2.36316 20.1582 23.9907 -2.36316
400 1 20.9822 25.6578 -0.690096 20.9822 25.6578 -0.690096
401 2 22.7735 25.5717 1.05575 22.7735 25.5717 1.05575
402 2 22.9755 25.7204 -2.19647 22.9755 25.7204 -2.19647
403 1 23.8421 24.0031 -0.591838 23.8421 24.0031 -0.591838
404 2 25.5904 24.1342 1.19673 25.5904 24.1342 1.19673
405 2 25.8881 23.8725 -2.04168 25.8881 23.8725 -2.04168
406 1 26.6797 25.6516 -0.466965 26.6797 25.6516 -0.466965
407 2 28.517 25.7989 1.23164 28.517 25.7989 1.23164
408 2 28.653 25.5041 -2.01383 28.653 25.5041 -2.01383
409 1 29.5628 24.0246 -0.20634 29.5628 24.0246 -0.20634
410 2 31.5428 24.1809 1.31569 31.5428 24.1809 1.31569
411 2 31.3942 23.8052 -1.918 31.3942 23.8052 -1.918
412 1 32.4229 25.6312 -0.543772 32.4229 25.6312 -0.543772
413 2 34.1396 25.7434 1.3032 34.1396 25.7434 1.3032
414 2 34.5313 25.5199 -1.92387 34.5313 25.5199 -1.92387
415 1 35.2935 24.002 -0.082349 35.2935 24.002 -0.082349
416 2 37.0424 24.2185 1.70748 37.0424 24.2185 1.70748
417 2 37.3475 23.8138 -1.51397 37.3475 23.8138 -1.51397
418 1 38.143 25.6631 -0.0217665 38.143 25.6631 -0.0217665
419 2 39.8977 25.8749 1.75719 39.8977 25.8749 1.75719
420 2 40.1898 25.5366 -1.47277 40.1898 25.5366 -1.47277
421 1 41.0102 24.0906 0.397281 41.0102 24.0906 0.397281
422 2 42.7874 24.4604 2.12804 42.7874 24.4604 2.12804
423 2 43.0358 23.8233 -1.05828 43.0358 23.8233 -1.05828
424 1 43.8472 25.78 0.278873 43.8472 25.78 0.278873
425 2 45.68 26.0333 1.96519 45.68 26.0333 1.96519
426 2 45.8158 25.5525 -1.2567 45.8158 25.5525 -1.2567
427 1 46.7155 24.1631 0.641216 46.7155 24.1631 0.641216
428 2 48.7686 24.3534 2.07153 48.7686 24.3534 2.07153
429 2 48.4669 23.9055 -1.14202 48.4669 23.9055 -1.14202
430 1 49.5486 25.7619 0.148023 49.5486 25.7619 0.148023
431 2 51.5153 26.0306 1.67561 51.5153 26.0306 1.67561
432 2 51.3913 25.4815 -1.53371 51.3913 25.4815 -1.53371
433 1 1.0897 27.4014 -0.246696 1.0897 27.4014 -0.246696
434 2 3.13531 27.5126 1.18596 3.13531 27.5126 1.18596
435 2 2.82405 27.2743 -2.05 2.82405 27.2743 -2.05
436 1 3.89632 29.0487 -0.643967 3.89632 29.0487 -0.643967
437 2 5.8306 29.1332 0.946026 5.8306 29.1332 0.946026
438 2 5.76481 28.9176 -2.30743 5.76481 28.9176 -2.30743
439 1 6.76024 27.3731 -0.595558 6.76024 27.3731 -0.595558
440 2 8.847 27.4262 0.786377 8.847 27.4262 0.786377
441 2 8.45208 27.2451 -2.44377 8.45208 27.2451 -2.44377
442 1 9.57492 28.9878 -1.03849 9.57492 28.9878 -1.03849
443 2 11.5279 29.0047 0.531996 11.5279 29.0047 0.531996
444 2 11.4294 28.9325 -2.72479 11.4294 28.9325 -2.72479
445 1 12.4323 27.3086 -1.08784 12.4323 27.3086 -1.08784
446 2 14.2761 27.4015 0.613909 14.2761 27.4015 0.613909
447 2 14.3959 27.2047 -2.63827 14.3959 27.2047 -2.63827
448 1 15.2793 28.9568 -1.07542 15.2793 28.9568 -1.07542
449 2 17.0469 29.0392 0.701763 17.0469 29.0392 0.701763
450 2 17.3118 28.8703 -2.54339 17.3118 28.8703 -2.54339
451 1 18.1314 27.3098 -0.756944 18.1314 27.3098 -0.756944
452 2 20.025 27.3523 0.888238 20.025 27.3523 0.888238
453 2 20.0426 27.2585 -2.37343 20.0426 27.2585 -2.37343
454 1 20.9705 28.9547 -0.782046 20.9705 28.9547 -0.782046
455 2 22.7333 29.0755 0.990669 22.7333 29.0755 0.990669
456 2 22.9902 28.8298 -2.25112 22.9902 28.8298 -2.25112
457 1 23.8081 27.3008 -0.432673 23.8081 27.3008 -0.432673
458 2 25.7507 27.3326 1.15213 25.7507 27.3326 1.15213
459 2 25.6748 27.2569 -2.10698 25.6748 27.2569 -2.10698
460 1 26.6544 28.9446 -0.540396 26.6544 28.9446 -0.540396
461 2 28.5534 28.9808 1.08756 28.5534 28.9808 1.08756
462 2 28.5542 28.8961 -2.17264 28.5542 28.8961 -2.17264
463 1 29.5258 27.2949 -0.505214 29.5258 27.2949 -0.505214
464 2 31.4395 27.2548 1.1117 31.4395 27.2548 1.1117
465 2 31.4283 27.3126 -2.14476 31.4283 27.3126 -2.14476
466 1 32.3865 28.9304 -0.492211 32.3865 28.9304 -0.492211
467 2 34.1748 28.9231 1.26656 34.1748 28.9231 1.26656
468 2 34.4038 28.9356 -1.98563 34.4038 28.9356 -1.98563
469 1 35.2655 27.2866 -0.306088 35.2655 27.2866 -0.306088
470 2 37.0374 27.3519 1.46645 37.0374 27.3519 1.46645
471 2 37.2932 27.2286 -1.78229 37.2932 27.2286 -1.78229
472 1 38.0838 28.9572 -0.145934 38.0838 28.9572 -0.145934
473 2 39.9357 29.1081 1.53324 39.9357 29.1081 1.53324
474 2 40.0368 28.8717 -1.71811 40.0368 28.8717 -1.71811
475 1 40.9695 27.3691 0.0514736 40.9695 27.3691 0.0514736
476 2 42.8432 27.5908 1.70176 42.8432 27.5908 1.70176
477 2 42.9062 27.2355 -1.53901 42.9062 27.2355 -1.53901
478 1 43.8085 29.0579 -0.081056 43.8085 29.0579 -0.081056
479 2 45.6767 29.2242 1.58789 45.6767 29.2242 1.58789
480 2 45.7546 28.9169 -1.65736 45.7546 28.9169 -1.65736
481 1 46.6844 27.4323 0.143665 46.6844 27.4323 0.143665
482 2 48.642 27.517 1.7024 48.642 27.517 1.7024
483 2 48.533 27.3138 -1.54948 48.533 27.3138 -1.54948
484 1 49.5179 29.0692 -0.0630549 49.5179 29.0692 -0.0630549
485 2 51.5666 29.1594 1.36831 51.5666 29.1594 1.36831
486 2 51.2524 28.9587 -1.87129 51.2524 28.9587 -1.87129
487 1 1.04598 30.7167 -0.442552 1.04598 30.7167 -0.442552
488 2 3.03053 30.6649 1.08251 3.03053 30.6649 1.08251
489 2 2.8515 30.759 -2.17208 2.8515 30.759 -2.17208
490 1 3.87114 32.3627 -0.548286 3.87114 32.3627 -0.548286
491 2 5.90484 32.3201 0.914974 5.90484 32.3201 0.914974
492 2 5.62645 32.3382 -2.33432 5.62645 32.3382 -2.33432
493 1 6.72459 30.6762 -0.806368 6.72459 30.6762 -0.806368
494 2 8.76093 30.6676 0.647449 8.76093 30.6676 0.647449
495 2 8.48034 30.632 -2.59923 8.48034 30.632 -2.59923
496 1 9.5669 32.2986 -1.07846 9.5669 32.2986 -1.07846
497 2 11.5116 32.2598 0.510605 11.5116 32.2598 0.510605
498 2 11.4387 32.3104 -2.74673 11.4387 32.3104 -2.74673
499 1 12.4225 30.624 -1.16176 12.4225 30.624 -1.16176
500 2 14.2592 30.5793 0.548912 14.2592 30.5793 0.548912
501 2 14.3936 30.6496 -2.70659 14.3936 30.6496 -2.70659
502 1 15.2835 32.2629 -1.00117 15.2835 32.2629 -1.00117
503 2 17.178 32.3181 0.637058 17.178 32.3181 0.637058
504 2 17.1948 32.1985 -2.62188 17.1948 32.1985 -2.62188
505 1 18.1249 30.6052 -0.929722 18.1249 30.6052 -0.929722
506 2 19.947 30.6218 0.784359 19.947 30.6218 0.784359
507 2 20.0957 30.5867 -2.47479 20.0957 30.5867 -2.47479
508 1 20.9802 32.2464 -0.822476 20.9802 32.2464 -0.822476
509 2 22.8575 32.3468 0.831052 22.8575 32.3468 0.831052
510 2 22.8971 32.1394 -2.42553 22.8971 32.1394 -2.42553
511 1 23.8141 30.5959 -0.679788 23.8141 30.5959 -0.679788
512 2 25.6124 30.5706 1.05611 25.6124 30.5706 1.05611
513 2 25.7989 30.6179 -2.20085 25.7989 30.6179 -2.20085
514 1 26.6602 32.2436 -0.499748 26.6602 32.2436 -0.499748
515 2 28.605 32.2225 1.08431 28.605 32.2225 1.08431
516 2 28.5277 32.2427 -2.17496 28.5277 32.2427 -2.17496
517 1 29.5143 30.5821 -0.579633 29.5143 30.5821 -0.579633
518 2 31.3136 30.4777 1.16786 31.3136 30.4777 1.16786
519 2 31.5211 30.671 -2.07769 31.5211 30.671 -2.07769
520 1 32.3419 32.2459 -0.291377 32.3419 32.2459 -0.291377
521 2 34.2823 32.3197 1.29892 34.2823 32.3197 1.29892
522 2 34.2119 32.1817 -1.95689 34.2119 32.1817 -1.95689
523 1 35.2055 30.595 -0.280721 35.2055 30.595 -0.280721
524 2 37.0282 30.5953 1.43649 37.0282 30.5953 1.43649
525 2 37.1761 30.5847 -1.81956 37.1761 30.5847 -1.81956
526 1 38.0323 32.2668 -0.154218 38.0323 32.2668 -0.154218
527 2 40.0232 32.3999 1.36945 40.0232 32.3999 1.36945
528 2 39.8539 32.1592 -1.87647 39.8539 32.1592 -1.87647
529 1 40.9161 30.6497 -0.182555 40.9161 30.6497 -0.182555
530 2 42.8416 30.8132 1.42292 42.8416 30.8132 1.42292
531 2 42.8096 30.5558 -1.82717 42.8096 30.5558 -1.82717
532 1 43.7714 32.33 -0.342012 43.7714 32.33 -0.342012
533 2 45.6449 32.4555 1.32707 45.6449 32.4555 1.32707
534 2 45.7174 32.2468 -1.92569 45.7174 32.2468 -1.92569
535 1 46.6513 30.7167 -0.168653 46.6513 30.7167 -0.168653
536 2 48.5316 30.7832 1.48679 48.5316 30.7832 1.48679
537 2 48.5723 30.6519 -1.77081 48.5723 30.6519 -1.77081
538 1 49.4787 32.3817 -0.200259 49.4787 32.3817 -0.200259
539 2 51.5356 32.4218 1.22343 51.5356 32.4218 1.22343
540 2 51.2038 32.3202 -2.01933 51.2038 32.3202 -2.01933