ITEM: TIMESTEP
23000
ITEM: NUMBER OF ATOMS
810
ITEM: BOX BOUNDS pp pp pp
8.5169812765107189e-01 5.2165906872348458e+01
8.1998107139957077e-01 5.0196233928599327e+01
-1.0000000000000000e+01 1.0000000000000000e+01
ITEM: ATOMS id type x y z xu yu zu
1 1 1.05794 1.03099 -0.486013 1.05794 1.03099 -0.486013
2 2 2.91381 1.10336 1.19556 2.91381 1.10336 1.19556
3 2 3.00353 0.958453 -2.06213 3.00353 0.958453 -2.06213
4 1 3.90958 2.67646 -0.480505 3.90958 2.67646 -0.480505
5 2 5.74757 2.74284 1.22081 5.74757 2.74284 1.22081
6 2 5.87186 2.61024 -2.03624 5.87186 2.61024 -2.03624
7 1 6.75914 1.03188 -0.304257 6.75914 1.03188 -0.304257
8 2 8.59014 1.1011 1.4043 8.59014 1.1011 1.4043
9 2 8.72748 0.962913 -1.85206 8.72748 0.962913 -1.85206
10 1 9.60931 2.67792 -0.253863 9.60931 2.67792 -0.253863
11 2 11.438 2.74093 1.45723 11.438 2.74093 1.45723
12 2 11.5797 2.61541 -1.79949 11.5797 2.61541 -1.79949
13 1 12.4581 1.03373 -0.0662315 12.4581 1.03373 -0.0662315
14 2 14.2976 1.09944 1.63305 14.2976 1.09944 1.63305
15 2 14.4187 0.968552 -1.6243 14.4187 0.968552 -1.6243
16 1 15.3086 2.67989 -0.0266722 15.3086 2.67989 -0.0266722
17 2 17.1633 2.74115 1.65589 17.1633 2.74115 1.65589
18 2 17.2549 2.61928 -1.60283 17.2549 2.61928 -1.60283
19 1 18.1592 1.03562 0.114851 18.1592 1.03562 0.114851
20 2 20.0377 1.09994 1.77069 20.0377 1.09994 1.77069
21 2 20.083 0.97189 -1.48872 20.083 0.97189 -1.48872
22 1 21.0111 2.68146 0.0893165 21.0111 2.68146 0.0893165
23 2 22.9138 2.74417 1.717 22.9138 2.74417 1.717
24 2 22.9107 2.61933 -1.5429 22.9107 2.61933 -1.5429
25 1 23.8631 1.03671 0.149169 23.8631 1.03671 0.149169
26 2 25.7902 1.10268 1.74799 25.7902 1.10268 1.74799
27 2 25.7383 0.971169 -1.51116 25.7383 0.971169 -1.51116
28 1 26.7144 2.68193 0.0366394 26.7144 2.68193 0.0366394
29 2 28.6616 2.7484 1.61077 28.6616 2.7484 1.61077
30 2 28.5682 2.61574 -1.64744 28.5682 2.61574 -1.64744
31 1 29.5657 1.03653 0.0214266 29.5657 1.03653 0.0214266
32 2 31.5266 1.10581 1.57844 31.5266 1.10581 1.57844
33 2 31.4047 0.96733 -1.67854 31.4047 0.96733 -1.67854
34 1 32.415 2.68105 -0.155759 32.415 2.68105 -0.155759
35 2 34.3825 2.75118 1.39287 34.3825 2.75118 1.39287
36 2 34.2467 2.61078 -1.86346 34.2467 2.61078 -1.86346
37 1 35.2652 1.03514 -0.203896 35.2652 1.03514 -0.203896
38 2 37.2314 1.10738 1.34654 37.2314 1.10738 1.34654
39 2 37.0985 0.962576 -1.90971 37.0985 0.962576 -1.90971
40 1 38.1141 2.6792 -0.393708 38.1141 2.6792 -0.393708
41 2 40.0712 2.75103 1.16839 40.0712 2.75103 1.16839
42 2 39.9575 2.60693 -2.08856 39.9575 2.60693 -2.08856
43 1 40.9651 1.03316 -0.420303 40.9651 1.03316 -0.420303
44 2 42.9075 1.10697 1.1601 42.9075 1.10697 1.1601
45 2 42.8242 0.958792 -2.09763 42.8242 0.958792 -2.09763
46 1 43.8159 2.67729 -0.568099 43.8159 2.67729 -0.568099
47 2 45.7375 2.74872 1.03788 45.7375 2.74872 1.03788
48 2 45.6971 2.60538 -2.22078 45.6971 2.60538 -2.22078
49 1 46.6681 1.03152 -0.530621 46.6681 1.03152 -0.530621
50 2 48.5679 1.10546 1.10104 48.5679 1.10546 1.10104
51 2 48.5713 0.95706 -2.15772 48.5713 0.95706 -2.15772
52 1 49.5205 2.67621 -0.602504 49.5205 2.67621 -0.602504
53 2 51.3958 2.74568 1.05759 51.3958 2.74568 1.05759
54 2 51.448 2.6065 -2.20109 51.448 2.6065 -2.20109
55 1 1.05872 4.32167 -0.627071 1.05872 4.32167 -0.627071
56 2 2.91111 4.3823 1.05896 2.91111 4.3823 1.05896
57 2 3.00812 4.2611 -2.19937 3.00812 4.2611 -2.19937
58 1 3.91052 5.96792 -0.603397 3.91052 5.96792 -0.603397
59 2 5.74471 6.01654 1.1027 5.74471 6.01654 1.1027
60 2 5.87663 5.91953 -2.15525 5.87663 5.91953 -2.15525
61 1 6.76038 4.32257 -0.438695 6.76038 4.32257 -0.438695
62 2 8.58741 4.37974 1.27457 8.58741 4.37974 1.27457
63 2 8.73254 4.26578 -1.98237 8.73254 4.26578 -1.98237
64 1 9.61029 5.96911 -0.369406 9.61029 5.96911 -0.369406
65 2 11.4357 6.01539 1.34564 11.4357 6.01539 1.34564
66 2 11.5836 5.92332 -1.91194 11.5836 5.92332 -1.91194
67 1 12.4592 4.32427 -0.19347 12.4592 4.32427 -0.19347
68 2 14.2952 4.37945 1.50967 14.2952 4.37945 1.50967
69 2 14.4226 4.2697 -1.74828 14.4226 4.2697 -1.74828
70 1 15.3092 5.97069 -0.137856 15.3092 5.97069 -0.137856
71 2 17.1622 6.01759 1.54676 17.1622 6.01759 1.54676
72 2 17.2567 5.92442 -1.71292 17.2567 5.92442 -1.71292
73 1 18.1596 4.32602 -0.00855762 18.1596 4.32602 -0.00855762
74 2 20.0365 4.38225 1.64899 20.0365 4.38225 1.64899
75 2 20.0845 4.27044 -1.61109 20.0845 4.27044 -1.61109
76 1 21.011 5.972 -0.0238108 21.011 5.972 -0.0238108
77 2 22.914 6.02271 1.6037 22.914 6.02271 1.6037
78 2 22.91 5.92188 -1.65715 22.91 5.92188 -1.65715
79 1 23.8628 4.32704 0.0228565 23.8628 4.32704 0.0228565
80 2 25.7899 4.38723 1.6214 25.7899 4.38723 1.6214
81 2 25.7373 4.26733 -1.6383 25.7373 4.26733 -1.6383
82 1 26.7136 5.97239 -0.0846421 26.7136 5.97239 -0.0846421
83 2 28.6618 6.02834 1.48839 28.6618 6.02834 1.48839
84 2 28.566 5.91673 -1.77062 28.566 5.91673 -1.77062
85 1 29.5645 4.32681 -0.112821 29.5645 4.32681 -0.112821
86 2 31.5259 4.39153 1.44353 31.5259 4.39153 1.44353
87 2 31.4028 4.26217 -1.81382 31.4028 4.26217 -1.81382
88 1 32.4135 5.97155 -0.286701 32.4135 5.97155 -0.286701
89 2 34.3812 6.03121 1.26195 34.3812 6.03121 1.26195
90 2 34.245 5.91178 -1.9952 34.245 5.91178 -1.9952
91 1 35.2636 4.32536 -0.346084 35.2636 4.32536 -0.346084
92 2 37.2294 4.39258 1.205 37.2294 4.39258 1.205
93 2 37.0975 4.25785 -2.05167 37.0975 4.25785 -2.05167
94 1 38.1126 5.96988 -0.530204 38.1126 5.96988 -0.530204
95 2 40.0683 6.02976 1.03419 40.0683 6.02976 1.03419
96 2 39.9579 5.90971 -2.22376 39.9579 5.90971 -2.22376
97 1 40.9639 4.32343 -0.566297 40.9639 4.32343 -0.566297
98 2 42.9047 4.39018 1.01649 42.9047 4.39018 1.01649
99 2 42.8252 4.2563 -2.24182 42.8252 4.2563 -2.24182
100 1 43.8152 5.96831 -0.703785 43.8152 5.96831 -0.703785
101 2 45.734 6.02528 0.906227 45.734 6.02528 0.906227
102 2 45.6998 5.91113 -2.35352 45.6998 5.91113 -2.35352
103 1 46.6679 4.32199 -0.675865 46.6679 4.32199 -0.675865
104 2 48.5651 4.38617 0.959422 48.5651 4.38617 0.959422
105 2 48.5743 4.25758 -2.30001 48.5743 4.25758 -2.30001
106 1 49.5208 5.96758 -0.732851 49.5208 5.96758 -0.732851
107 2 51.3925 6.02025 0.932031 51.3925 6.02025 0.932031
108 2 51.4522 5.91491 -2.32765 51.4522 5.91491 -2.32765
109 1 1.05927 7.61402 -0.733896 1.05927 7.61402 -0.733896
110 2 2.90782 7.65221 0.957135 2.90782 7.65221 0.957135
111 2 3.01268 7.57597 -2.30223 3.01268 7.57597 -2.30223
112 1 3.911 9.26101 -0.680735 3.911 9.26101 -0.680735
113 2 5.74191 9.28333 1.02948 5.74191 9.28333 1.02948
114 2 5.88033 9.2388 -2.22929 5.88033 9.2388 -2.22929
115 1 6.76116 7.61469 -0.537074 6.76116 7.61469 -0.537074
116 2 8.585 7.64969 1.18017 8.585 7.64969 1.18017
117 2 8.73634 7.57996 -2.07771 8.73634 7.57996 -2.07771
118 1 9.61069 9.2616 -0.440108 9.61069 9.2616 -0.440108
119 2 11.4345 9.28294 1.27709 11.4345 9.28294 1.27709
120 2 11.5855 9.24047 -1.98139 11.5855 9.24047 -1.98139
121 1 12.4597 7.61581 -0.286777 12.4597 7.61581 -0.286777
122 2 14.2941 7.65088 1.41853 14.2941 7.65088 1.41853
123 2 14.4245 7.5812 -1.84047 14.4245 7.5812 -1.84047
124 1 15.3094 9.26242 -0.208392 15.3094 9.26242 -0.208392
125 2 17.1627 9.28671 1.47613 17.1627 9.28671 1.47613
126 2 17.2563 9.23853 -1.78461 17.2563 9.23853 -1.78461
127 1 18.1598 7.61704 -0.102844 18.1598 7.61704 -0.102844
128 2 20.037 7.65559 1.55465 20.037 7.65559 1.55465
129 2 20.084 7.57905 -1.70657 20.084 7.57905 -1.70657
130 1 21.0109 9.26326 -0.101181 21.0109 9.26326 -0.101181
131 2 22.9156 9.29317 1.52451 22.9156 9.29317 1.52451
132 2 22.9077 9.23384 -1.73743 22.9077 9.23384 -1.73743
133 1 23.8623 7.61784 -0.0790987 23.8623 7.61784 -0.0790987
134 2 25.7909 7.66199 1.51794 25.7909 7.66199 1.51794
135 2 25.7349 7.57413 -1.74282 25.7349 7.57413 -1.74282
136 1 26.7129 9.26363 -0.173463 26.7129 9.26363 -0.173463
137 2 28.6628 9.29944 1.39764 28.6628 9.29944 1.39764
138 2 28.563 9.22808 -1.86242 28.563 9.22808 -1.86242
139 1 29.5633 7.61767 -0.225737 29.5633 7.61767 -0.225737
140 2 31.5258 7.66676 1.32969 31.5258 7.66676 1.32969
141 2 31.4003 7.56866 -1.92869 31.4003 7.56866 -1.92869
142 1 32.4121 9.26312 -0.386002 32.4121 9.26312 -0.386002
143 2 34.3802 9.3021 1.16281 34.3802 9.3021 1.16281
144 2 34.2432 9.22406 -2.09554 34.2432 9.22406 -2.09554
145 1 35.2621 7.6165 -0.467045 35.2621 7.6165 -0.467045
146 2 37.2272 7.66715 1.08553 37.2272 7.66715 1.08553
147 2 37.0968 7.56565 -2.17236 37.0968 7.56565 -2.17236
148 1 38.1113 9.26201 -0.633083 38.1113 9.26201 -0.633083
149 2 40.0651 9.29969 0.934521 40.0651 9.29969 0.934521
150 2 39.959 9.22417 -2.32483 39.959 9.22417 -2.32483
151 1 40.9628 7.61504 -0.687994 40.9628 7.61504 -0.687994
152 2 42.901 7.66318 0.898788 42.901 7.66318 0.898788
153 2 42.8273 7.56673 -2.36087 42.8273 7.56673 -2.36087
154 1 43.8146 9.26108 -0.801619 43.8146 9.26108 -0.801619
155 2 45.7298 9.29379 0.813554 45.7298 9.29379 0.813554
156 2 45.7034 9.22833 -2.44751 45.7034 9.22833 -2.44751
157 1 46.6677 7.6141 -0.791608 46.6677 7.6141 -0.791608
158 2 48.5613 7.65729 0.848805 48.5613 7.65729 0.848805
159 2 48.5783 7.57089 -2.41186 48.5783 7.57089 -2.41186
160 1 49.5209 9.26076 -0.820508 49.5209 9.26076 -0.820508
161 2 51.3887 9.2875 0.849646 51.3887 9.2875 0.849646
162 2 51.4567 9.2341 -2.41105 51.4567 9.2341 -2.41105
163 1 1.05949 10.9079 -0.788109 1.05949 10.9079 -0.788109
164 2 2.90446 10.9172 0.9073 2.90446 10.9172 0.9073
165 2 3.01643 10.8987 -2.35262 3.01643 10.8987 -2.35262
166 1 3.91093 12.5551 -0.699524 3.91093 12.5551 -0.699524
167 2 5.73954 12.5474 1.01329 5.73954 12.5474 1.01329
168 2 5.88239 12.5625 -2.24555 5.88239 12.5625 -2.24555
169 1 6.76131 10.9081 -0.582248 6.76131 10.9081 -0.582248
170 2 8.58331 10.9148 1.13728 8.58331 10.9148 1.13728
171 2 8.73819 10.9013 -2.12115 8.73819 10.9013 -2.12115
172 1 9.61043 12.5548 -0.453736 9.61043 12.5548 -0.453736
173 2 11.4344 12.5474 1.26333 11.4344 12.5474 1.26333
174 2 11.585 12.5621 -1.99543 11.585 12.5621 -1.99543
175 1 12.4597 10.9083 -0.329773 12.4597 10.9083 -0.329773
176 2 14.2946 10.917 1.37532 14.2946 10.917 1.37532
177 2 14.4241 10.8998 -1.88444 14.4241 10.8998 -1.88444
178 1 15.3091 12.5548 -0.225646 15.3091 12.5548 -0.225646
179 2 17.1647 12.5519 1.45644 17.1647 12.5519 1.45644
180 2 17.2539 12.5578 -1.8048 17.2539 12.5578 -1.8048
181 1 18.1597 10.9088 -0.151524 18.1597 10.9088 -0.151524
182 2 20.0389 10.9228 1.50384 20.0389 10.9228 1.50384
183 2 20.0817 10.8953 -1.75827 20.0817 10.8953 -1.75827
184 1 21.0106 12.5552 -0.128917 21.0106 12.5552 -0.128917
185 2 22.9185 12.5588 1.49329 22.9185 12.5588 1.49329
186 2 22.9042 12.5519 -1.76919 22.9042 12.5519 -1.76919
187 1 23.8619 10.9094 -0.139023 23.8619 10.9094 -0.139023
188 2 25.7931 10.9298 1.45523 25.7931 10.9298 1.45523
189 2 25.7316 10.8894 -1.80642 25.7316 10.8894 -1.80642
190 1 26.7123 12.5557 -0.214233 26.7123 12.5557 -0.214233
191 2 28.6647 12.5651 1.35406 28.6647 12.5651 1.35406
192 2 28.5596 12.5465 -1.90659 28.5596 12.5465 -1.90659
193 1 29.5623 10.9096 -0.297895 29.5623 10.9096 -0.297895
194 2 31.5262 10.9346 1.25617 31.5262 10.9346 1.25617
195 2 31.3976 10.8846 -2.0032 31.3976 10.8846 -2.0032
196 1 32.4111 12.5558 -0.436646 32.4111 12.5558 -0.436646
197 2 34.3797 12.5675 1.11205 34.3797 12.5675 1.11205
198 2 34.2418 12.544 -2.1471 34.2418 12.544 -2.1471
199 1 35.2608 10.909 -0.546094 35.2608 10.909 -0.546094
200 2 37.2251 10.9345 1.00822 37.2251 10.9345 1.00822
201 2 37.0967 10.8834 -2.25089 37.0967 10.8834 -2.25089
202 1 38.1105 12.5555 -0.684982 38.1105 12.5555 -0.684982
203 2 40.0621 12.5648 0.885824 40.0621 12.5648 0.885824
204 2 39.9607 12.5461 -2.37446 39.9607 12.5461 -2.37446
205 1 40.962 10.9083 -0.764614 40.962 10.9083 -0.764614
206 2 42.8971 10.9297 0.826722 42.8971 10.9297 0.826722
207 2 42.8302 10.8868 -2.43415 42.8302 10.8868 -2.43415
208 1 43.8143 12.5553 -0.84523 43.8143 12.5553 -0.84523
209 2 45.7256 12.5584 0.775005 45.7256 12.5584 0.775005
210 2 45.7074 12.5521 -2.48672 45.7074 12.5521 -2.48672
211 1 46.6676 10.9079 -0.858061 46.6676 10.9079 -0.858061
212 2 48.557 10.9229 0.787751 48.557 10.9229 0.787751
213 2 48.5826 10.893 -2.4738 48.5826 10.893 -2.4738
214 1 49.521 12.5552 -0.850897 49.521 12.5552 -0.850897
215 2 51.3849 12.5517 0.823849 51.3849 12.5517 0.823849
216 2 51.4605 12.5586 -2.43708 51.4605 12.5586 -2.43708
217 1 1.05931 14.2023 -0.781236 1.05931 14.2023 -0.781236
218 2 2.90148 14.1814 0.917115 2.90148 14.1814 0.917115
219 2 3.01881 14.2229 -2.34242 3.01881 14.2229 -2.34242
220 1 3.91029 15.8489 -0.657563 3.91029 15.8489 -0.657563
221 2 5.73781 15.813 1.05604 5.73781 15.813 1.05604
222 2 5.88263 15.8842 -2.202 5.88263 15.8842 -2.202
223 1 6.76079 14.2017 -0.566964 6.76079 14.2017 -0.566964
224 2 8.58241 14.1792 1.15281 8.58241 14.1792 1.15281
225 2 8.73798 14.2239 -2.10531 8.73798 14.2239 -2.10531
226 1 9.60956 15.8477 -0.408344 9.60956 15.8477 -0.408344
227 2 11.4352 15.8129 1.30656 11.4352 15.8129 1.30656
228 2 11.5826 15.8822 -1.95163 11.5826 15.8822 -1.95163
229 1 12.4592 14.2011 -0.314857 12.4592 14.2011 -0.314857
230 2 14.2962 14.1816 1.38772 14.2962 14.1816 1.38772
231 2 14.4215 14.2205 -1.87202 14.4215 14.2205 -1.87202
232 1 15.3085 15.8469 -0.186088 15.3085 15.8469 -0.186088
233 2 17.1679 15.8171 1.49168 17.1679 15.8171 1.49168
234 2 17.2499 15.8768 -1.76918 17.2499 15.8768 -1.76918
235 1 18.1594 14.2009 -0.145426 18.1594 14.2009 -0.145426
236 2 20.0422 14.1875 1.5059 20.0422 14.1875 1.5059
237 2 20.0779 14.2147 -1.7563 20.0779 14.2147 -1.7563
238 1 21.0104 15.847 -0.101259 21.0104 15.847 -0.101259
239 2 22.9222 15.8234 1.51613 22.9222 15.8234 1.51613
240 2 22.9 15.8711 -1.74594 22.9 15.8711 -1.74594
241 1 23.8616 14.2015 -0.145873 23.8616 14.2015 -0.145873
242 2 25.7961 14.1943 1.44439 25.7961 14.1943 1.44439
243 2 25.7278 14.209 -1.81733 25.7278 14.209 -1.81733
244 1 26.712 15.8479 -0.19925 26.712 15.8479 -0.19925
245 2 28.6674 15.8291 1.36543 28.6674 15.8291 1.36543
246 2 28.5563 15.867 -1.89483 28.5563 15.867 -1.89483
247 1 29.5617 14.2021 -0.316628 29.5617 14.2021 -0.316628
248 2 31.5274 14.1989 1.23543 31.5274 14.1989 1.23543
249 2 31.3951 14.2055 -2.02416 31.3951 14.2055 -2.02416
250 1 32.4108 15.8488 -0.429854 32.4108 15.8488 -0.429854
251 2 34.3799 15.8314 1.11809 34.3799 15.8314 1.11809
252 2 34.2408 15.8663 -2.14091 34.2408 15.8663 -2.14091
253 1 35.2601 14.2024 -0.569921 35.2601 14.2024 -0.569921
254 2 37.2236 14.1987 0.985702 37.2236 14.1987 0.985702
255 2 37.097 14.2061 -2.27385 37.097 14.2061 -2.27385
256 1 38.1102 15.8495 -0.677494 38.1102 15.8495 -0.677494
257 2 40.0599 15.829 0.895669 40.0599 15.829 0.895669
258 2 39.9625 15.8698 -2.36454 39.9625 15.8698 -2.36454
259 1 40.9617 14.2025 -0.783609 40.9617 14.2025 -0.783609
260 2 42.8936 14.1939 0.811753 42.8936 14.1939 0.811753
261 2 42.8332 14.211 -2.44947 42.8332 14.211 -2.44947
262 1 43.8143 15.8497 -0.82805 43.8143 15.8497 -0.82805
263 2 45.7222 15.8232 0.7961 45.7222 15.8232 0.7961
264 2 45.7108 15.876 -2.46526 45.7108 15.876 -2.46526
265 1 46.6676 14.2025 -0.864643 46.6676 14.2025 -0.864643
266 2 48.5531 14.1871 0.785694 48.5531 14.1871 0.785694
267 2 48.5865 14.2178 -2.47578 48.5865 14.2178 -2.47578
268 1 49.5208 15.8496 -0.819962 49.5208 15.8496 -0.819962
269 2 51.3816 15.817 0.857913 51.3816 15.817 0.857913
270 2 51.4632 15.8818 -2.40227 51.4632 15.8818 -2.40227
271 1 1.05872 17.4959 -0.715712 1.05872 17.4959 -0.715712
272 2 2.89923 17.449 0.983871 2.89923 17.449 0.983871
273 2 3.01952 17.5423 -2.27453 3.01952 17.5423 -2.27453
274 1 3.9092 19.1414 -0.563061 3.9092 19.1414 -0.563061
275 2 5.73685 19.0836 1.14976 5.73685 19.0836 1.14976
276 2 5.88119 19.1984 -2.1071 5.88119 19.1984 -2.1071
277 1 6.75971 17.4946 -0.494749 6.75971 17.4946 -0.494749
278 2 8.58222 17.4469 1.22356 8.58222 17.4469 1.22356
279 2 8.73601 17.5417 -2.03359 8.73601 17.5417 -2.03359
280 1 9.60825 19.1395 -0.312226 9.60825 19.1395 -0.312226
281 2 11.4366 19.0834 1.3993 11.4366 19.0834 1.3993
282 2 11.5789 19.1952 -1.85792 11.5789 19.1952 -1.85792
283 1 12.4582 17.4931 -0.244616 12.4582 17.4931 -0.244616
284 2 14.2987 17.4487 1.45388 14.2987 17.4487 1.45388
285 2 14.4175 17.5373 -1.8051 14.4175 17.5373 -1.8051
286 1 15.3077 19.1382 -0.0962496 15.3077 19.1382 -0.0962496
287 2 17.1714 19.0865 1.57635 17.1714 19.0865 1.57635
288 2 17.2452 19.19 -1.68355 17.2452 19.19 -1.68355
289 1 18.1589 17.4926 -0.0847968 18.1589 17.4926 -0.0847968
290 2 20.0461 17.4537 1.56128 20.0461 17.4537 1.56128
291 2 20.0735 17.5317 -1.70013 20.0735 17.5317 -1.70013
292 1 21.0102 19.1382 -0.0222237 21.0102 19.1382 -0.0222237
293 2 22.9263 19.0913 1.58991 22.9263 19.0913 1.58991
294 2 22.896 19.1858 -1.67099 22.896 19.1858 -1.67099
295 1 23.8615 17.4932 -0.0975392 23.8615 17.4932 -0.0975392
296 2 25.7997 17.4595 1.48802 25.7997 17.4595 1.48802
297 2 25.7241 17.5274 -1.77282 25.7241 17.5274 -1.77282
298 1 26.7122 19.1395 -0.130359 26.7122 19.1395 -0.130359
299 2 28.6704 19.0956 1.43045 28.6704 19.0956 1.43045
300 2 28.5537 19.184 -1.82859 28.5537 19.184 -1.82859
301 1 29.5617 17.4945 -0.278195 29.5617 17.4945 -0.278195
302 2 31.5292 17.4634 1.27125 31.5292 17.4634 1.27125
303 2 31.3932 17.526 -1.98756 31.3932 17.526 -1.98756
304 1 32.4111 19.1413 -0.366415 32.4111 19.1413 -0.366415
305 2 34.381 19.0975 1.1801 34.381 19.0975 1.1801
306 2 34.2403 19.1852 -2.07783 34.2403 19.1852 -2.07783
307 1 35.2601 17.4958 -0.534543 35.2601 17.4958 -0.534543
308 2 37.223 17.4634 1.02148 37.223 17.4634 1.02148
309 2 37.0976 17.528 -2.2375 37.0976 17.528 -2.2375
310 1 38.1106 19.1427 -0.612132 38.1106 19.1427 -0.612132
311 2 40.059 19.0961 0.962049 40.059 19.0961 0.962049
312 2 39.9641 19.189 -2.29721 39.9641 19.189 -2.29721
313 1 40.9618 17.4965 -0.742434 40.9618 17.4965 -0.742434
314 2 42.8912 17.4597 0.855602 42.8912 17.4597 0.855602
315 2 42.8358 17.5331 -2.40497 42.8358 17.5331 -2.40497
316 1 43.8145 19.1432 -0.753842 43.8145 19.1432 -0.753842
317 2 45.7199 19.0919 0.872483 45.7199 19.0919 0.872483
318 2 45.7131 19.194 -2.3878 45.7131 19.194 -2.3878
319 1 46.6676 17.4966 -0.811384 46.6676 17.4966 -0.811384
320 2 48.55 17.4539 0.841883 48.55 17.4539 0.841883
321 2 48.5892 17.5388 -2.41862 48.5892 17.5388 -2.41862
322 1 49.5204 19.1428 -0.734109 49.5204 19.1428 -0.734109
323 2 51.3793 19.087 0.945149 51.3793 19.087 0.945149
324 2 51.4642 19.1978 -2.3138 51.4642 19.1978 -2.3138
325 1 1.05782 20.788 -0.60348 1.05782 20.788 -0.60348
326 2 2.898 20.7231 1.09576 2.898 20.7231 1.09576
327 2 3.01853 20.8521 -2.1615 3.01853 20.8521 -2.1615
328 1 3.90784 22.4324 -0.432359 3.90784 22.4324 -0.432359
329 2 5.73682 22.3626 1.27854 5.73682 22.3626 1.27854
330 2 5.87834 22.5013 -1.97756 5.87834 22.5013 -1.97756
331 1 6.75826 20.786 -0.378509 6.75826 20.786 -0.378509
332 2 8.58267 20.7214 1.33725 8.58267 20.7214 1.33725
333 2 8.73275 20.8499 -1.91893 8.73275 20.8499 -1.91893
334 1 9.60675 22.4301 -0.182015 9.60675 22.4301 -0.182015
335 2 11.4383 22.3624 1.52576 11.4383 22.3624 1.52576
336 2 11.5746 22.4974 -1.7308 11.5746 22.4974 -1.7308
337 1 12.457 20.784 -0.131268 12.457 20.784 -0.131268
338 2 14.3013 20.7225 1.56266 14.3013 20.7225 1.56266
339 2 14.4129 20.8454 -1.6954 14.4129 20.8454 -1.6954
340 1 15.3069 22.4286 0.0283199 15.3069 22.4286 0.0283199
341 2 17.1747 22.364 1.69611 17.1747 22.364 1.69611
342 2 17.2408 22.4934 -1.56292 17.2408 22.4934 -1.56292
343 1 18.1585 20.7833 0.0202149 18.1585 20.7833 0.0202149
344 2 20.05 20.7258 1.66101 20.05 20.7258 1.66101
345 2 20.0692 20.8412 -1.59924 20.0692 20.8412 -1.59924
346 1 21.0102 22.4286 0.0947049 21.0102 22.4286 0.0947049
347 2 22.9298 22.3664 1.70239 22.9298 22.3664 1.70239
348 2 22.8929 22.4915 -1.55729 22.8929 22.4915 -1.55729
349 1 23.8618 20.7841 -0.00179654 23.8618 20.7841 -0.00179654
350 2 25.8034 20.7295 1.57931 25.8034 20.7295 1.57931
351 2 25.7212 20.8394 -1.68013 25.7212 20.8394 -1.68013
352 1 26.7129 22.4302 -0.0189671 26.7129 22.4302 -0.0189671
353 2 28.6733 22.3684 1.53868 28.6733 22.3684 1.53868
354 2 28.5523 22.4927 -1.71896 28.5523 22.4927 -1.71896
355 1 29.5623 20.786 -0.188592 29.5623 20.786 -0.188592
356 2 31.5316 20.732 1.35817 31.5316 20.732 1.35817
357 2 31.392 20.8405 -1.89926 31.392 20.8405 -1.89926
358 1 32.412 22.4325 -0.256564 32.412 22.4325 -0.256564
359 2 34.3828 22.3695 1.28827 34.3828 22.3695 1.28827
360 2 34.2403 22.4958 -1.96832 34.2403 22.4958 -1.96832
361 1 35.2608 20.788 -0.44568 35.2608 20.788 -0.44568
362 2 37.2237 20.7325 1.10975 37.2237 20.7325 1.10975
363 2 37.0981 20.8435 -2.14801 37.0981 20.8435 -2.14801
364 1 38.1114 22.4344 -0.499651 38.1114 22.4344 -0.499651
365 2 40.0596 22.3693 1.07415 40.0596 22.3693 1.07415
366 2 39.9649 22.4993 -2.18393 39.9649 22.4993 -2.18393
367 1 40.9623 20.7892 -0.64835 40.9623 20.7892 -0.64835
368 2 42.8903 20.7304 0.950627 42.8903 20.7304 0.950627
369 2 42.8374 20.8475 -2.3088 42.8374 20.8475 -2.3088
370 1 43.8148 22.4351 -0.63527 43.8148 22.4351 -0.63527
371 2 45.7194 22.3674 0.991344 45.7194 22.3674 0.991344
372 2 45.7138 22.502 -2.26789 45.7138 22.502 -2.26789
373 1 46.6675 20.7892 -0.708033 46.6675 20.7892 -0.708033
374 2 48.5484 20.7266 0.946313 48.5484 20.7266 0.946313
375 2 48.5902 20.851 -2.313 48.5902 20.851 -2.313
376 1 49.5199 22.4343 -0.608179 49.5199 22.4343 -0.608179
377 2 51.3785 22.3646 1.07077 51.3785 22.3646 1.07077
378 2 51.4634 22.503 -2.18723 51.4634 22.503 -2.18723
379 1 1.05675 24.0786 -0.463293 1.05675 24.0786 -0.463293
380 2 2.8981 24.0064 1.23427 2.8981 24.0064 1.23427
381 2 3.01592 24.1499 -2.02258 3.01592 24.1499 -2.02258
382 1 3.90645 25.7225 -0.287021 3.90645 25.7225 -0.287021
383 2 5.73795 25.6523 1.42111 5.73795 25.6523 1.42111
384 2 5.87435 25.792 -1.83523 5.87435 25.792 -1.83523
385 1 6.7567 24.0763 -0.237908 6.7567 24.0763 -0.237908
386 2 8.58382 24.0059 1.47477 8.58382 24.0059 1.47477
387 2 8.72864 24.1461 -1.78117 8.72864 24.1461 -1.78117
388 1 9.60531 25.7202 -0.0398304 9.60531 25.7202 -0.0398304
389 2 11.4403 25.6527 1.66443 11.4403 25.6527 1.66443
390 2 11.5701 25.7876 -1.59235 11.5701 25.7876 -1.59235
391 1 12.4558 24.0742 0.00560139 12.4558 24.0742 0.00560139
392 2 14.3038 24.0064 1.69543 14.3038 24.0064 1.69543
393 2 14.4085 24.1421 -1.56226 14.4085 24.1421 -1.56226
394 1 15.3061 25.7187 0.165813 15.3061 25.7187 0.165813
395 2 17.1772 25.6529 1.83014 17.1772 25.6529 1.83014
396 2 17.2373 25.785 -1.42877 17.2373 25.785 -1.42877
397 1 18.1581 24.0734 0.151261 18.1581 24.0734 0.151261
398 2 20.0531 24.0075 1.78801 20.0531 24.0075 1.78801
399 2 20.0658 24.14 -1.47149 20.0658 24.14 -1.47149
400 1 21.0103 25.7188 0.22892 21.0103 25.7188 0.22892
401 2 22.9323 25.6524 1.83411 22.9323 25.6524 1.83411
402 2 22.8912 25.7859 -1.42506 22.8912 25.7859 -1.42506
403 1 23.8622 24.0743 0.124863 23.8622 24.0743 0.124863
404 2 25.8062 24.0082 1.70299 25.8062 24.0082 1.70299
405 2 25.7197 24.1412 -1.55538 25.7197 24.1412 -1.55538
406 1 26.7138 25.7203 0.115698 26.7138 25.7203 0.115698
407 2 28.6754 25.6514 1.67191 28.6754 25.6514 1.67191
408 2 28.5524 25.79 -1.58499 28.5524 25.79 -1.58499
409 1 29.5634 24.0764 -0.062721 29.5634 24.0764 -0.062721
410 2 31.5339 24.0087 1.48211 31.5339 24.0087 1.48211
411 2 31.3919 24.1449 -1.77413 31.3919 24.1449 -1.77413
412 1 32.4134 25.7227 -0.118596 32.4134 25.7227 -0.118596
413 2 34.385 25.6511 1.425 34.385 25.6511 1.425
414 2 34.2409 25.7948 -1.83082 34.2409 25.7948 -1.83082
415 1 35.262 24.0788 -0.317774 35.262 24.0788 -0.317774
416 2 37.2255 24.0091 1.2364 37.2255 24.0091 1.2364
417 2 37.0985 24.1487 -2.02027 37.0985 24.1487 -2.02027
418 1 38.1127 25.7248 -0.358342 38.1127 25.7248 -0.358342
419 2 40.0616 25.6518 1.21401 40.0616 25.6518 1.21401
420 2 39.9648 25.7976 -2.04345 39.9648 25.7976 -2.04345
421 1 40.9631 24.0803 -0.516762 40.9631 24.0803 -0.516762
422 2 42.8912 24.009 1.08147 42.8912 24.009 1.08147
423 2 42.8376 24.151 -2.17709 42.8376 24.151 -2.17709
424 1 43.8153 25.7255 -0.4915 43.8153 25.7255 -0.4915
425 2 45.7207 25.6523 1.13364 45.7207 25.6523 1.13364
426 2 45.7126 25.7979 -2.12527 45.7126 25.7979 -2.12527
427 1 46.6674 24.0801 -0.571721 46.6674 24.0801 -0.571721
428 2 48.5484 24.0078 1.08189 48.5484 24.0078 1.08189
429 2 48.5893 24.1516 -2.17678 48.5893 24.1516 -2.17678
430 1 49.5193 25.7245 -0.462634 49.5193 25.7245 -0.462634
431 2 51.3793 25.6523 1.21446 51.3793 25.6523 1.21446
432 2 51.4609 25.7959 -2.04354 51.4609 25.7959 -2.04354
433 1 1.05573 27.3685 -0.317871 1.05573 27.3685 -0.317871
434 2 2.89975 27.3011 1.37685 2.89975 27.3011 1.37685
435 2 3.01195 27.4353 -1.88069 3.01195 27.4353 -1.88069
436 1 3.90529 29.0127 -0.150993 3.90529 29.0127 -0.150993
437 2 5.74033 28.9541 1.55371 5.74033 28.9541 1.55371
438 2 5.86967 29.071 -1.70386 5.86967 29.071 -1.70386
439 1 6.7553 27.3664 -0.0963924 6.7553 27.3664 -0.0963924
440 2 8.58576 27.3022 1.613 8.58576 27.3022 1.613
441 2 8.7241 27.4303 -1.64372 8.7241 27.4303 -1.64372
442 1 9.60418 29.0109 0.0900756 9.60418 29.0109 0.0900756
443 2 11.4424 28.9553 1.7914 11.4424 28.9553 1.7914
444 2 11.5661 29.0665 -1.46647 11.5661 29.0665 -1.46647
445 1 12.4547 27.3646 0.142309 12.4547 27.3646 0.142309
446 2 14.3059 27.3024 1.82913 14.3059 27.3024 1.82913
447 2 14.4048 27.427 -1.4291 14.4048 27.427 -1.4291
448 1 15.3054 29.0097 0.291983 15.3054 29.0097 0.291983
449 2 17.1786 28.9543 1.9547 17.1786 28.9543 1.9547
450 2 17.2351 29.0656 -1.30494 17.2351 29.0656 -1.30494
451 1 18.1578 27.3639 0.285079 18.1578 27.3639 0.285079
452 2 20.055 27.3013 1.91987 20.055 27.3013 1.91987
453 2 20.064 27.4271 -1.33977 20.064 27.4271 -1.33977
454 1 21.0105 29.0097 0.356341 21.0105 29.0097 0.356341
455 2 22.933 28.9512 1.96153 22.933 28.9512 1.96153
456 2 22.8913 29.0689 -1.29809 22.8913 29.0689 -1.29809
457 1 23.8628 27.3646 0.259986 23.8628 27.3646 0.259986
458 2 25.8077 27.2989 1.83745 25.8077 27.2989 1.83745
459 2 25.7199 27.4312 -1.42078 25.7199 27.4312 -1.42078
460 1 26.7148 29.0108 0.249581 26.7148 29.0108 0.249581
461 2 28.6762 28.9473 1.80665 28.6762 28.9473 1.80665
462 2 28.5541 29.0752 -1.45064 28.5541 29.0752 -1.45064
463 1 29.5647 27.3665 0.0776172 29.5647 27.3665 0.0776172
464 2 31.5357 27.2968 1.62207 31.5357 27.2968 1.62207
465 2 31.393 27.437 -1.63394 31.393 27.437 -1.63394
466 1 32.415 29.0129 0.0234057 32.415 29.0129 0.0234057
467 2 34.387 28.9453 1.56684 34.387 28.9453 1.56684
468 2 34.2421 29.0811 -1.68929 34.2421 29.0811 -1.68929
469 1 35.2636 27.3689 -0.17222 35.2636 27.3689 -0.17222
470 2 37.228 27.2968 1.38066 37.228 27.2968 1.38066
471 2 37.0988 27.4412 -1.87577 37.0988 27.4412 -1.87577
472 1 38.1141 29.0147 -0.211985 38.1141 29.0147 -0.211985
473 2 40.0647 28.9463 1.35846 40.0647 28.9463 1.35846
474 2 39.964 29.0832 -1.89938 39.964 29.0832 -1.89938
475 1 40.964 27.3703 -0.369051 40.964 27.3703 -0.369051
476 2 42.8937 27.2983 1.22712 42.8937 27.2983 1.22712
477 2 42.8363 27.4419 -2.03145 42.8363 27.4419 -2.03145
478 1 43.8157 29.0153 -0.345973 43.8157 29.0153 -0.345973
479 2 45.7237 28.9489 1.27628 45.7237 28.9489 1.27628
480 2 45.7099 29.0813 -1.98332 45.7099 29.0813 -1.98332
481 1 46.6673 27.3701 -0.424347 46.6673 27.3701 -0.424347
482 2 48.5503 27.2998 1.2269 48.5503 27.2998 1.2269
483 2 48.5866 27.4396 -2.03216 48.5866 27.4396 -2.03216
484 1 49.5187 29.0145 -0.321033 49.5187 29.0145 -0.321033
485 2 51.3818 28.9517 1.35283 51.3818 28.9517 1.35283
486 2 51.4568 29.0766 -1.90622 51.4568 29.0766 -1.90622
487 1 1.05495 30.659 -0.191268 1.05495 30.659 -0.191268
488 2 2.90287 30.6077 1.49965 2.90287 30.6077 1.49965
489 2 3.00713 30.7099 -1.7594 3.00713 30.7099 -1.7594
490 1 3.90458 32.304 -0.0474194 3.90458 32.304 -0.0474194
491 2 5.74365 32.267 1.65349 5.74365 32.267 1.65349
492 2 5.86501 32.3409 -1.60569 5.86501 32.3409 -1.60569
493 1 6.7543 30.6574 0.0221071 6.7543 30.6574 0.0221071
494 2 8.58835 30.6104 1.72824 8.58835 30.6104 1.72824
495 2 8.71974 30.7043 -1.52994 8.71974 30.7043 -1.52994
496 1 9.60355 32.3029 0.185274 9.60355 32.3029 0.185274
497 2 11.4444 32.2688 1.8844 11.4444 32.2688 1.8844
498 2 11.5631 32.3371 -1.37481 11.5631 32.3371 -1.37481
499 1 12.454 30.6561 0.255042 12.454 30.6561 0.255042
500 2 14.3074 30.6106 1.94017 14.3074 30.6106 1.94017
501 2 14.4022 30.702 -1.3192 14.4022 30.702 -1.3192
502 1 15.3051 32.3022 0.384568 15.3051 32.3022 0.384568
503 2 17.1788 32.267 2.04747 17.1788 32.267 2.04747
504 2 17.2346 32.3377 -1.21323 17.2346 32.3377 -1.21323
505 1 18.1576 30.6556 0.397739 18.1576 30.6556 0.397739
506 2 20.0552 30.6076 2.03286 20.0552 30.6076 2.03286
507 2 20.0638 30.7041 -1.22765 20.0638 30.7041 -1.22765
508 1 21.0105 32.3021 0.453991 21.0105 32.3021 0.453991
509 2 22.9318 32.262 2.06151 22.9318 32.262 2.06151
510 2 22.893 32.3427 -1.19918 22.893 32.3427 -1.19918
511 1 23.8633 30.656 0.379108 23.8633 30.656 0.379108
512 2 25.8073 30.6026 1.95843 25.8073 30.6026 1.95843
513 2 25.7217 30.7101 -1.30067 25.7217 30.7101 -1.30067
514 1 26.7156 32.3027 0.358266 26.7156 32.3027 0.358266
515 2 28.6753 32.2561 1.91829 28.6753 32.2561 1.91829
516 2 28.557 32.35 -1.34023 28.557 32.35 -1.34023
517 1 29.566 30.6574 0.207102 29.566 30.6574 0.207102
518 2 31.5364 30.5984 1.75306 31.5364 30.5984 1.75306
519 2 31.3953 30.7171 -1.50383 31.3953 30.7171 -1.50383
520 1 32.4165 32.3041 0.143631 32.4165 32.3041 0.143631
521 2 34.3881 32.2528 1.6882 34.3881 32.2528 1.6882
522 2 34.2439 32.3559 -1.56915 34.2439 32.3559 -1.56915
523 1 35.2652 30.6592 -0.0346485 35.2652 30.6592 -0.0346485
524 2 37.2305 30.5975 1.51751 37.2305 30.5975 1.51751
525 2 37.0992 30.7213 -1.73975 37.0992 30.7213 -1.73975
526 1 38.1154 32.3054 -0.08655 38.1154 32.3054 -0.08655
527 2 40.0679 32.2537 1.48209 40.0679 32.2537 1.48209
528 2 39.963 32.3573 -1.77692 39.963 32.3573 -1.77692
529 1 40.965 30.6604 -0.23027 40.965 30.6604 -0.23027
530 2 42.8973 30.6 1.36308 42.8973 30.6 1.36308
531 2 42.8341 30.7206 -1.89643 42.8341 30.7206 -1.89643
532 1 43.8163 32.3059 -0.223736 43.8163 32.3059 -0.223736
533 2 45.7278 32.2578 1.39477 45.7278 32.2578 1.39477
534 2 45.7063 32.3536 -1.86618 45.7063 32.3536 -1.86618
535 1 46.6674 30.6602 -0.290276 46.6674 30.6602 -0.290276
536 2 48.5538 30.6039 1.35729 48.5538 30.6039 1.35729
537 2 48.5826 30.716 -1.90304 48.5826 30.716 -1.90304
538 1 49.5184 32.3052 -0.207362 49.5184 32.3052 -0.207362
539 2 51.3857 32.2628 1.46227 51.3857 32.2628 1.46227