ITEM: TIMESTEP
17000
ITEM: NUMBER OF ATOMS
810
ITEM: BOX BOUNDS pp pp pp
8.4467180428816768e-01 5.2172933195711096e+01
8.1120485877134618e-01 5.0205010141227589e+01
-1.0000000000000000e+01 1.0000000000000000e+01
ITEM: ATOMS id type x y z xu yu zu
1 1 1.0482 1.02546 -0.175864 1.0482 1.02546 -0.175864
2 2 2.94614 1.03434 1.45883 2.94614 1.03434 1.45883
3 2 2.95235 1.01659 -1.80331 2.95235 1.01659 -1.80331
4 1 3.89978 2.67192 -0.179399 3.89978 2.67192 -0.179399
5 2 5.79783 2.68113 1.45514 5.79783 2.68113 1.45514
6 2 5.80381 2.66272 -1.80699 5.80381 2.66272 -1.80699
7 1 6.75134 1.02548 -0.164879 6.75134 1.02548 -0.164879
8 2 8.64918 1.03545 1.46992 8.64918 1.03545 1.46992
9 2 8.65559 1.01552 -1.7922 8.65559 1.01552 -1.7922
10 1 9.60292 2.67194 -0.16935 9.60292 2.67194 -0.16935
11 2 11.5011 2.6822 1.46502 11.5011 2.6822 1.46502
12 2 11.5068 2.66168 -1.7971 11.5068 2.66168 -1.7971
13 1 12.4545 1.0255 -0.154009 12.4545 1.0255 -0.154009
14 2 14.3531 1.03639 1.47984 14.3531 1.03639 1.47984
15 2 14.3579 1.01463 -1.78227 14.3579 1.01463 -1.78227
16 1 15.3061 2.67196 -0.160829 15.3061 2.67196 -0.160829
17 2 17.2058 2.68275 1.47173 17.2058 2.68275 1.47173
18 2 17.2084 2.66117 -1.79038 17.2084 2.66117 -1.79038
19 1 18.1576 1.02552 -0.147652 18.1576 1.02552 -0.147652
20 2 20.0589 1.03672 1.48307 20.0589 1.03672 1.48307
21 2 20.0584 1.01433 -1.77904 20.0584 1.01433 -1.77904
22 1 21.0092 2.67196 -0.159488 21.0092 2.67196 -0.159488
23 2 22.912 2.68247 1.46945 22.912 2.68247 1.46945
24 2 22.9085 2.66144 -1.79267 22.9085 2.66144 -1.79267
25 1 23.8608 1.02551 -0.152015 23.8608 1.02551 -0.152015
26 2 25.7654 1.03625 1.47475 25.7654 1.03625 1.47475
27 2 25.7582 1.01475 -1.78736 25.7582 1.01475 -1.78736
28 1 26.7123 2.67193 -0.169351 26.7123 2.67193 -0.169351
29 2 28.6176 2.6814 1.4567 28.6176 2.6814 1.4567
30 2 28.6091 2.66245 -1.80542 28.6091 2.66245 -1.80542
31 1 29.5639 1.02547 -0.167255 29.5639 1.02547 -0.167255
32 2 31.4698 1.03522 1.4581 31.4698 1.03522 1.4581
33 2 31.4601 1.01569 -1.80401 31.4601 1.01569 -1.80401
34 1 32.4154 2.67189 -0.185715 32.4154 2.67189 -0.185715
35 2 34.3201 2.68015 1.44107 34.3201 2.68015 1.44107
36 2 34.3128 2.66362 -1.82107 34.3128 2.66362 -1.82107
37 1 35.267 1.02542 -0.183768 35.267 1.02542 -0.183768
38 2 37.1707 1.03423 1.44428 37.1707 1.03423 1.44428
39 2 37.1655 1.01661 -1.81786 37.1655 1.01661 -1.81786
40 1 38.1186 2.67187 -0.197237 38.1186 2.67187 -0.197237
41 2 40.0202 2.67945 1.43324 40.0202 2.67945 1.43324
42 2 40.0191 2.66429 -1.82891 40.0191 2.66429 -1.82891
43 1 40.9702 1.02541 -0.190459 40.9702 1.02541 -0.190459
44 2 42.8703 1.03367 1.44165 42.8703 1.03367 1.44165
45 2 42.8721 1.01718 -1.82049 42.8721 1.01718 -1.82049
46 1 43.8217 2.67187 -0.197261 43.8217 2.67187 -0.197261
47 2 45.7206 2.67947 1.43636 45.7206 2.67947 1.43636
48 2 45.725 2.66429 -1.82578 45.725 2.66429 -1.82578
49 1 46.6733 1.02543 -0.185763 46.6733 1.02543 -0.185763
50 2 48.5716 1.03367 1.44852 48.5716 1.03367 1.44852
51 2 48.5771 1.01721 -1.81362 48.5771 1.01721 -1.81362
52 1 49.5249 2.6719 -0.189268 49.5249 2.6719 -0.189268
53 2 51.423 2.68008 1.44523 51.423 2.68008 1.44523
54 2 51.4289 2.66373 -1.81691 51.4289 2.66373 -1.81691
55 1 1.04821 4.31836 -0.192392 1.04821 4.31836 -0.192392
56 2 2.94649 4.32646 1.44189 2.94649 4.32646 1.44189
57 2 2.95202 4.31028 -1.82025 2.95202 4.31028 -1.82025
58 1 3.89978 5.96482 -0.195752 3.89978 5.96482 -0.195752
59 2 5.79829 5.97259 1.43826 5.79829 5.97259 1.43826
60 2 5.80337 5.95706 -1.82388 5.80337 5.95706 -1.82388
61 1 6.75135 4.31838 -0.183497 6.75135 4.31838 -0.183497
62 2 8.6496 4.32756 1.45081 8.6496 4.32756 1.45081
63 2 8.65519 4.3092 -1.81132 8.65519 4.3092 -1.81132
64 1 9.60293 5.96484 -0.187917 9.60293 5.96484 -0.187917
65 2 11.5014 5.97345 1.44612 11.5014 5.97345 1.44612
66 2 11.5065 5.95623 -1.81602 11.5065 5.95623 -1.81602
67 1 12.4545 4.31839 -0.174765 12.4545 4.31839 -0.174765
68 2 14.3533 4.32831 1.4589 14.3533 4.32831 1.4589
69 2 14.3578 4.30849 -1.80322 14.3578 4.30849 -1.80322
70 1 15.3061 5.96485 -0.180891 15.3061 5.96485 -0.180891
71 2 17.2057 5.97369 1.45181 17.2057 5.97369 1.45181
72 2 17.2085 5.95602 -1.81032 17.2085 5.95602 -1.81032
73 1 18.1576 4.31841 -0.1695 18.1576 4.31841 -0.1695
74 2 20.0586 4.32829 1.46157 20.0586 4.32829 1.46157
75 2 20.0587 4.30853 -1.80056 20.0587 4.30853 -1.80056
76 1 21.0092 5.96485 -0.179514 21.0092 5.96485 -0.179514
77 2 22.9114 5.97301 1.45017 22.9114 5.97301 1.45017
78 2 22.9091 5.9567 -1.81198 22.9091 5.9567 -1.81198
79 1 23.8608 4.3184 -0.173331 23.8608 4.3184 -0.173331
80 2 25.7647 4.32735 1.45433 25.7647 4.32735 1.45433
81 2 25.7589 4.30943 -1.8078 25.7589 4.30943 -1.8078
82 1 26.7123 5.96484 -0.187529 26.7123 5.96484 -0.187529
83 2 28.6166 5.97157 1.4397 28.6166 5.97157 1.4397
84 2 28.6101 5.9581 -1.82245 28.6101 5.9581 -1.82245
85 1 29.5639 4.31836 -0.186473 29.5639 4.31836 -0.186473
86 2 31.4688 4.32591 1.44 31.4688 4.32591 1.44
87 2 31.461 4.31081 -1.82214 31.461 4.31081 -1.82214
88 1 32.4154 5.96481 -0.201033 32.4154 5.96481 -0.201033
89 2 34.3193 5.97019 1.42675 34.3193 5.97019 1.42675
90 2 34.3137 5.95942 -1.83541 34.3137 5.95942 -1.83541
91 1 35.267 4.31833 -0.20053 35.267 4.31833 -0.20053
92 2 37.17 4.32489 1.42832 37.17 4.32489 1.42832
93 2 37.1662 4.31177 -1.83384 37.1662 4.31177 -1.83384
94 1 38.1186 5.96479 -0.210529 38.1186 5.96479 -0.210529
95 2 40.0198 5.96982 1.42032 40.0198 5.96982 1.42032
96 2 40.0194 5.95977 -1.84185 40.0194 5.95977 -1.84185
97 1 40.9702 4.31833 -0.205812 40.9702 4.31833 -0.205812
98 2 42.8701 4.32482 1.4266 42.8701 4.32482 1.4266
99 2 42.8723 4.31184 -1.83556 42.8723 4.31184 -1.83556
100 1 43.8217 5.9648 -0.210379 43.8217 5.9648 -0.210379
101 2 45.7208 5.97047 1.42307 45.7208 5.97047 1.42307
102 2 45.7248 5.95914 -1.83909 45.7248 5.95914 -1.83909
103 1 46.6733 4.31834 -0.201116 46.6733 4.31834 -0.201116
104 2 48.5717 4.32546 1.43307 48.5717 4.32546 1.43307
105 2 48.577 4.31124 -1.82908 48.577 4.31124 -1.82908
106 1 49.5249 5.96481 -0.203643 49.5249 5.96481 -0.203643
107 2 51.4234 5.97151 1.43043 51.4234 5.97151 1.43043
108 2 51.4285 5.95812 -1.83172 51.4285 5.95812 -1.83172
109 1 1.04821 7.61128 -0.205921 1.04821 7.61128 -0.205921
110 2 2.94697 7.61742 1.42781 2.94697 7.61742 1.42781
111 2 2.95156 7.60515 -1.83435 2.95156 7.60515 -1.83435
112 1 3.89979 9.25775 -0.208151 3.89979 9.25775 -0.208151
113 2 5.79871 9.26298 1.42539 5.79871 9.26298 1.42539
114 2 5.80297 9.25253 -1.83678 5.80297 9.25253 -1.83678
115 1 6.75136 7.61129 -0.199196 6.75136 7.61129 -0.199196
116 2 8.64998 7.6183 1.43469 8.64998 7.6183 1.43469
117 2 8.65483 7.60429 -1.82747 8.65483 7.60429 -1.82747
118 1 9.60293 9.25776 -0.202084 9.60293 9.25776 -0.202084
119 2 11.5016 9.26345 1.43176 11.5016 9.26345 1.43176
120 2 11.5064 9.25208 -1.8304 11.5064 9.25208 -1.8304
121 1 12.4545 7.6113 -0.192193 12.4545 7.6113 -0.192193
122 2 14.3533 7.61871 1.44143 14.3533 7.61871 1.44143
123 2 14.3577 7.6039 -1.82072 14.3577 7.6039 -1.82072
124 1 15.3061 9.25777 -0.195881 15.3061 9.25777 -0.195881
125 2 17.2054 9.26331 1.43713 17.2054 9.26331 1.43713
126 2 17.2088 9.25224 -1.82504 17.2088 9.25224 -1.82504
127 1 18.1576 7.61131 -0.187395 18.1576 7.61131 -0.187395
128 2 20.0582 7.61833 1.4442 20.0582 7.61833 1.4442
129 2 20.0592 7.6043 -1.81795 20.0592 7.6043 -1.81795
130 1 21.0092 9.25778 -0.193738 21.0092 9.25778 -0.193738
131 2 22.9106 9.26235 1.43683 22.9106 9.26235 1.43683
132 2 22.9098 9.2532 -1.82534 22.9098 9.2532 -1.82534
133 1 23.8608 7.61131 -0.189879 23.8608 7.61131 -0.189879
134 2 25.7637 7.61708 1.43887 25.7637 7.61708 1.43887
135 2 25.7598 7.60553 -1.8233 25.7598 7.60553 -1.8233
136 1 26.7123 9.25777 -0.199252 26.7123 9.25777 -0.199252
137 2 28.6156 9.26081 1.42918 28.6156 9.26081 1.42918
138 2 28.6111 9.25472 -1.833 28.6111 9.25472 -1.833
139 1 29.5639 7.61129 -0.200145 29.5639 7.61129 -0.200145
140 2 31.4678 7.61549 1.4275 31.4678 7.61549 1.4275
141 2 31.462 7.60707 -1.83467 31.462 7.60707 -1.83467
142 1 32.4155 9.25775 -0.20958 32.4155 9.25775 -0.20958
143 2 34.3186 9.25955 1.41905 34.3186 9.25955 1.41905
144 2 34.3144 9.25594 -1.84314 34.3144 9.25594 -1.84314
145 1 35.267 7.61127 -0.211454 35.267 7.61127 -0.211454
146 2 37.1695 7.61467 1.41797 37.1695 7.61467 1.41797
147 2 37.1667 7.60787 -1.84421 37.1667 7.60787 -1.84421
148 1 38.1186 9.25774 -0.217403 38.1186 9.25774 -0.217403
149 2 40.0199 9.25959 1.41341 40.0199 9.25959 1.41341
150 2 40.0194 9.25589 -1.84877 40.0194 9.25589 -1.84877
151 1 40.9702 7.61126 -0.215974 40.9702 7.61126 -0.215974
152 2 42.8702 7.61513 1.41626 42.8702 7.61513 1.41626
153 2 42.8722 7.6074 -1.84592 42.8722 7.6074 -1.84592
154 1 43.8217 9.25774 -0.218165 43.8217 9.25774 -0.218165
155 2 45.7213 9.26076 1.41465 45.7213 9.26076 1.41465
156 2 45.7243 9.25472 -1.84753 45.7243 9.25472 -1.84753
157 1 46.6733 7.61127 -0.212554 46.6733 7.61127 -0.212554
158 2 48.5722 7.61629 1.4211 48.5722 7.61629 1.4211
159 2 48.5766 7.60626 -1.84106 48.5766 7.60626 -1.84106
160 1 49.5249 9.25774 -0.213766 49.5249 9.25774 -0.213766
161 2 51.4239 9.26207 1.41965 51.4239 9.26207 1.41965
162 2 51.428 9.25342 -1.84252 51.428 9.25342 -1.84252
163 1 1.04822 10.9042 -0.214656 1.04822 10.9042 -0.214656
164 2 2.94746 10.9076 1.41851 2.94746 10.9076 1.41851
165 2 2.95107 10.9009 -1.84367 2.95107 10.9009 -1.84367
166 1 3.89979 12.5507 -0.214957 3.89979 12.5507 -0.214957
167 2 5.79898 12.5527 1.41827 5.79898 12.5527 1.41827
168 2 5.8027 12.5487 -1.84391 5.8027 12.5487 -1.84391
169 1 6.75136 10.9042 -0.209769 6.75136 10.9042 -0.209769
170 2 8.6502 10.9081 1.42386 8.6502 10.9081 1.42386
171 2 8.65462 10.9004 -1.83831 8.65462 10.9004 -1.83831
172 1 9.60294 12.5507 -0.209852 9.60294 12.5507 -0.209852
173 2 11.5016 12.5526 1.42404 11.5016 12.5526 1.42404
174 2 11.5064 12.5488 -1.83814 11.5064 12.5488 -1.83814
175 1 12.4545 10.9042 -0.203705 12.4545 10.9042 -0.203705
176 2 14.3532 10.908 1.43005 14.3532 10.908 1.43005
177 2 14.3579 10.9005 -1.83213 14.3579 10.9005 -1.83213
178 1 15.3061 12.5507 -0.203565 15.3061 12.5507 -0.203565
179 2 17.2051 12.5521 1.42988 17.2051 12.5521 1.42988
180 2 17.2092 12.5493 -1.8323 17.2092 12.5493 -1.8323
181 1 18.1576 10.9042 -0.19861 18.1576 10.9042 -0.19861
182 2 20.0576 10.9074 1.43363 20.0576 10.9074 1.43363
183 2 20.0597 10.9011 -1.82855 20.0597 10.9011 -1.82855
184 1 21.0092 12.5507 -0.200053 21.0092 12.5507 -0.200053
185 2 22.9099 12.5511 1.43137 22.9099 12.5511 1.43137
186 2 22.9106 12.5504 -1.83081 22.9106 12.5504 -1.83081
187 1 23.8608 10.9042 -0.199175 23.8608 10.9042 -0.199175
188 2 25.7628 10.906 1.43065 25.7628 10.906 1.43065
189 2 25.7608 10.9025 -1.83153 25.7608 10.9025 -1.83153
190 1 26.7123 12.5507 -0.202914 26.7123 12.5507 -0.202914
191 2 28.6147 12.5497 1.42656 28.6147 12.5497 1.42656
192 2 28.612 12.5517 -1.83562 28.612 12.5517 -1.83562
193 1 29.5639 10.9042 -0.206339 29.5639 10.9042 -0.206339
194 2 31.467 10.9046 1.42235 31.467 10.9046 1.42235
195 2 31.4629 10.9039 -1.83984 31.4629 10.9039 -1.83984
196 1 32.4155 12.5507 -0.21033 32.4155 12.5507 -0.21033
197 2 34.3181 12.5488 1.41888 34.3181 12.5488 1.41888
198 2 34.3149 12.5526 -1.84331 34.3149 12.5526 -1.84331
199 1 35.267 10.9042 -0.21512 35.267 10.9042 -0.21512
200 2 37.1693 10.9041 1.41456 37.1693 10.9041 1.41456
201 2 37.1669 10.9044 -1.84762 37.1669 10.9044 -1.84762
202 1 38.1186 12.5507 -0.217096 38.1186 12.5507 -0.217096
203 2 40.0202 12.5492 1.41331 40.0202 12.5492 1.41331
204 2 40.0191 12.5522 -1.84887 40.0191 12.5522 -1.84887
205 1 40.9702 10.9042 -0.219694 40.9702 10.9042 -0.219694
206 2 42.8708 10.905 1.41191 42.8708 10.905 1.41191
207 2 42.8717 10.9034 -1.85027 42.8717 10.9034 -1.85027
208 1 43.8217 12.5507 -0.219702 43.8217 12.5507 -0.219702
209 2 45.7222 12.5507 1.41213 45.7222 12.5507 1.41213
210 2 45.7234 12.5507 -1.85006 45.7234 12.5507 -1.85006
211 1 46.6733 10.9042 -0.218635 46.6733 10.9042 -0.218635
212 2 48.5729 10.9065 1.41418 48.5729 10.9065 1.41418
213 2 48.5759 10.9019 -1.848 48.5759 10.9019 -1.848
214 1 49.5249 12.5507 -0.218363 49.5249 12.5507 -0.218363
215 2 51.4246 12.5521 1.41428 51.4246 12.5521 1.41428
216 2 51.4273 12.5493 -1.8479 51.4273 12.5493 -1.8479
217 1 1.04822 14.1972 -0.217443 1.04822 14.1972 -0.217443
218 2 2.94787 14.1973 1.41525 2.94787 14.1973 1.41525
219 2 2.95066 14.1971 -1.84694 2.95066 14.1971 -1.84694
220 1 3.89979 15.8436 -0.21517 3.89979 15.8436 -0.21517
221 2 5.79907 15.842 1.41797 5.79907 15.842 1.41797
222 2 5.80262 15.8453 -1.84421 5.80262 15.8453 -1.84421
223 1 6.75137 14.1972 -0.213764 6.75137 14.1972 -0.213764
224 2 8.6502 14.1973 1.41988 8.6502 14.1973 1.41988
225 2 8.65463 14.1971 -1.84231 8.65463 14.1971 -1.84231
226 1 9.60294 15.8437 -0.210071 9.60294 15.8437 -0.210071
227 2 11.5013 15.8415 1.42411 11.5013 15.8415 1.42411
228 2 11.5067 15.8458 -1.83807 11.5067 15.8458 -1.83807
229 1 12.4545 14.1972 -0.207623 12.4545 14.1972 -0.207623
230 2 14.353 14.1968 1.42645 14.353 14.1968 1.42645
231 2 14.3581 14.1976 -1.83574 14.3581 14.1976 -1.83574
232 1 15.3061 15.8437 -0.202781 15.3061 15.8437 -0.202781
233 2 17.2046 15.8407 1.43115 17.2046 15.8407 1.43115
234 2 17.2096 15.8466 -1.83102 17.2096 15.8466 -1.83102
235 1 18.1576 14.1972 -0.201481 18.1576 14.1972 -0.201481
236 2 20.0571 14.196 1.4314 20.0571 14.196 1.4314
237 2 20.0603 14.1984 -1.83079 20.0603 14.1984 -1.83079
238 1 21.0092 15.8437 -0.197578 21.0092 15.8437 -0.197578
239 2 22.9093 15.8398 1.43452 22.9093 15.8398 1.43452
240 2 22.9112 15.8475 -1.82766 22.9112 15.8475 -1.82766
241 1 23.8608 14.1972 -0.19995 23.8608 14.1972 -0.19995
242 2 25.7621 14.1948 1.43076 25.7621 14.1948 1.43076
243 2 25.7615 14.1996 -1.83142 25.7615 14.1996 -1.83142
244 1 26.7123 15.8437 -0.198148 26.7123 15.8437 -0.198148
245 2 28.6141 15.8388 1.43204 28.6141 15.8388 1.43204
246 2 28.6126 15.8485 -1.83013 28.6126 15.8485 -1.83013
247 1 29.5639 14.1972 -0.204358 29.5639 14.1972 -0.204358
248 2 31.4663 14.1937 1.42508 31.4663 14.1937 1.42508
249 2 31.4636 14.2006 -1.8371 31.4636 14.2006 -1.8371
250 1 32.4155 15.8437 -0.203357 32.4155 15.8437 -0.203357
251 2 34.3179 15.8383 1.42611 34.3179 15.8383 1.42611
252 2 34.3152 15.849 -1.83605 34.3152 15.849 -1.83605
253 1 35.267 14.1972 -0.211215 35.267 14.1972 -0.211215
254 2 37.1693 14.1935 1.41841 37.1693 14.1935 1.41841
255 2 37.1669 14.2008 -1.84376 37.1669 14.2008 -1.84376
256 1 38.1186 15.8436 -0.209733 38.1186 15.8436 -0.209733
257 2 40.0208 15.8389 1.42 40.0208 15.8389 1.42
258 2 40.0185 15.8484 -1.84217 40.0185 15.8484 -1.84217
259 1 40.9702 14.1972 -0.216578 40.9702 14.1972 -0.216578
260 2 42.8716 14.1947 1.41409 42.8716 14.1947 1.41409
261 2 42.8709 14.1996 -1.84809 42.8709 14.1996 -1.84809
262 1 43.8217 15.8436 -0.214736 43.8217 15.8436 -0.214736
263 2 45.7231 15.8405 1.41593 45.7231 15.8405 1.41593
264 2 45.7225 15.8468 -1.84625 45.7225 15.8468 -1.84625
265 1 46.6733 14.1972 -0.218581 46.6733 14.1972 -0.218581
266 2 48.5738 14.1964 1.41321 48.5738 14.1964 1.41321
267 2 48.575 14.198 -1.84897 48.575 14.198 -1.84897
268 1 49.5249 15.8436 -0.216728 49.5249 15.8436 -0.216728
269 2 51.4253 15.8418 1.41515 51.4253 15.8418 1.41515
270 2 51.4266 15.8455 -1.84703 51.4266 15.8455 -1.84703
271 1 1.04822 17.4901 -0.213692 1.04822 17.4901 -0.213692
272 2 2.94817 17.4868 1.41866 2.94817 17.4868 1.41866
273 2 2.95037 17.4934 -1.84352 2.95037 17.4934 -1.84352
274 1 3.89979 19.1366 -0.208467 3.89979 19.1366 -0.208467
275 2 5.79899 19.1314 1.42476 5.79899 19.1314 1.42476
276 2 5.8027 19.1418 -1.8374 5.8027 19.1418 -1.8374
277 1 6.75137 17.4901 -0.210476 6.75137 17.4901 -0.210476
278 2 8.64999 17.4864 1.42341 8.64999 17.4864 1.42341
279 2 8.65484 17.4939 -1.83876 8.65484 17.4939 -1.83876
280 1 9.60294 19.1366 -0.202515 9.60294 19.1366 -0.202515
281 2 11.5009 19.1306 1.4321 11.5009 19.1306 1.4321
282 2 11.507 19.1426 -1.83006 11.507 19.1426 -1.83006
283 1 12.4545 17.4901 -0.203292 12.4545 17.4901 -0.203292
284 2 14.3526 17.4856 1.43122 14.3526 17.4856 1.43122
285 2 14.3585 17.4947 -1.83095 14.3585 17.4947 -1.83095
286 1 15.3061 19.1366 -0.193555 15.3061 19.1366 -0.193555
287 2 17.2043 19.1298 1.4408 17.2043 19.1298 1.4408
288 2 17.21 19.1435 -1.82135 17.21 19.1435 -1.82135
289 1 18.1576 17.4901 -0.195574 18.1576 17.4901 -0.195574
290 2 20.0567 17.4848 1.4378 20.0567 17.4848 1.4378
291 2 20.0607 17.4955 -1.82437 20.0607 17.4955 -1.82437
292 1 21.0092 19.1366 -0.186718 21.0092 19.1366 -0.186718
293 2 22.909 19.1291 1.44573 22.909 19.1291 1.44573
294 2 22.9115 19.1441 -1.81642 22.9115 19.1441 -1.81642
295 1 23.8608 17.4901 -0.192203 23.8608 17.4901 -0.192203
296 2 25.7616 17.484 1.43905 25.7616 17.484 1.43905
297 2 25.762 17.4963 -1.82311 25.762 17.4963 -1.82311
298 1 26.7123 19.1366 -0.185752 26.7123 19.1366 -0.185752
299 2 28.6138 19.1287 1.44474 28.6138 19.1287 1.44474
300 2 28.6129 19.1445 -1.81741 28.6129 19.1445 -1.81741
301 1 29.5639 17.4901 -0.194638 29.5639 17.4901 -0.194638
302 2 31.466 17.4834 1.43518 31.466 17.4834 1.43518
303 2 31.4639 17.4969 -1.82698 31.4639 17.4969 -1.82698
304 1 32.4155 19.1366 -0.189705 32.4155 19.1366 -0.189705
305 2 34.3179 19.1285 1.43971 34.3179 19.1285 1.43971
306 2 34.3151 19.1446 -1.82243 34.3151 19.1446 -1.82243
307 1 35.267 17.4901 -0.200353 35.267 17.4901 -0.200353
308 2 37.1696 17.4835 1.42897 37.1696 17.4835 1.42897
309 2 37.1666 17.4967 -1.83319 37.1666 17.4967 -1.83319
310 1 38.1186 19.1366 -0.196258 38.1186 19.1366 -0.196258
311 2 40.0215 19.1292 1.43267 40.0215 19.1292 1.43267
312 2 40.0178 19.1439 -1.82948 40.0178 19.1439 -1.82948
313 1 40.9702 17.4901 -0.206959 40.9702 17.4901 -0.206959
314 2 42.8725 17.4847 1.42262 42.8725 17.4847 1.42262
315 2 42.87 17.4955 -1.83954 42.87 17.4955 -1.83954
316 1 43.8217 19.1366 -0.203705 43.8217 19.1366 -0.203705
317 2 45.7242 19.1306 1.42577 45.7242 19.1306 1.42577
318 2 45.7214 19.1425 -1.83639 45.7214 19.1425 -1.83639
319 1 46.6733 17.4901 -0.212199 46.6733 17.4901 -0.212199
320 2 48.5747 17.4862 1.41853 48.5747 17.4862 1.41853
321 2 48.5741 17.494 -1.84364 48.5741 17.494 -1.84364
322 1 49.5249 19.1366 -0.208767 49.5249 19.1366 -0.208767
323 2 51.4258 19.1316 1.42242 51.4258 19.1316 1.42242
324 2 51.4261 19.1416 -1.83975 51.4261 19.1416 -1.83975
325 1 1.04821 20.783 -0.203555 1.04821 20.783 -0.203555
326 2 2.94834 20.7766 1.42859 2.94834 20.7766 1.42859
327 2 2.95019 20.7895 -1.83357 2.95019 20.7895 -1.83357
328 1 3.89979 22.4295 -0.195469 3.89979 22.4295 -0.195469
329 2 5.79881 22.4215 1.43797 5.79881 22.4215 1.43797
330 2 5.80287 22.4376 -1.82418 5.80287 22.4376 -1.82418
331 1 6.75137 20.7831 -0.200055 6.75137 20.7831 -0.200055
332 2 8.64966 20.7759 1.43421 8.64966 20.7759 1.43421
333 2 8.65516 20.7902 -1.82794 8.65516 20.7902 -1.82794
334 1 9.60293 22.4295 -0.18804 9.60293 22.4295 -0.18804
335 2 11.5005 22.4205 1.44704 11.5005 22.4205 1.44704
336 2 11.5074 22.4386 -1.81509 11.5074 22.4386 -1.81509
337 1 12.4545 20.7831 -0.191158 12.4545 20.7831 -0.191158
338 2 14.3522 20.775 1.44379 14.3522 20.775 1.44379
339 2 14.3589 20.7912 -1.81834 14.3589 20.7912 -1.81834
340 1 15.3061 22.4295 -0.177135 15.3061 22.4295 -0.177135
341 2 17.2041 22.4197 1.45747 17.2041 22.4197 1.45747
342 2 17.2102 22.4393 -1.80465 17.2102 22.4393 -1.80465
343 1 18.1576 20.7831 -0.181709 18.1576 20.7831 -0.181709
344 2 20.0565 20.7743 1.45191 20.0565 20.7743 1.45191
345 2 20.0609 20.7918 -1.81023 20.0609 20.7918 -1.81023
346 1 21.0092 22.4295 -0.169061 21.0092 22.4295 -0.169061
347 2 22.909 22.4195 1.46336 22.909 22.4195 1.46336
348 2 22.9114 22.4395 -1.79876 22.9114 22.4395 -1.79876
349 1 23.8608 20.7831 -0.177114 23.8608 20.7831 -0.177114
350 2 25.7615 20.7741 1.45426 25.7615 20.7741 1.45426
351 2 25.7621 20.792 -1.80788 25.7621 20.792 -1.80788
352 1 26.7123 22.4295 -0.167553 26.7123 22.4295 -0.167553
353 2 28.614 22.4196 1.46278 28.614 22.4196 1.46278
354 2 28.6128 22.4393 -1.79935 28.6128 22.4393 -1.79935
355 1 29.5639 20.783 -0.17862 29.5639 20.783 -0.17862
356 2 31.466 20.774 1.45118 31.466 20.774 1.45118
357 2 31.4639 20.7921 -1.81096 31.4639 20.7921 -1.81096
358 1 32.4155 22.4295 -0.171344 32.4155 22.4295 -0.171344
359 2 34.3182 22.4199 1.45771 34.3182 22.4199 1.45771
360 2 34.3148 22.439 -1.80442 34.3148 22.439 -1.80442
361 1 35.267 20.783 -0.184035 35.267 20.783 -0.184035
362 2 37.17 20.7743 1.44479 37.17 20.7743 1.44479
363 2 37.1662 20.7917 -1.81735 37.1662 20.7917 -1.81735
364 1 38.1186 22.4295 -0.178547 38.1186 22.4295 -0.178547
365 2 40.0222 22.4205 1.44958 40.0222 22.4205 1.44958
366 2 40.0171 22.4384 -1.81256 40.0171 22.4384 -1.81256
367 1 40.9702 20.783 -0.192006 40.9702 20.783 -0.192006
368 2 42.8734 20.7753 1.43651 42.8734 20.7753 1.43651
369 2 42.8691 20.7907 -1.82564 42.8691 20.7907 -1.82564
370 1 43.8217 22.4295 -0.188006 43.8217 22.4295 -0.188006
371 2 45.725 22.4215 1.44045 45.725 22.4215 1.44045
372 2 45.7206 22.4375 -1.8217 45.7206 22.4375 -1.8217
373 1 46.6733 20.783 -0.200058 46.6733 20.783 -0.200058
374 2 48.5755 20.7764 1.42971 48.5755 20.7764 1.42971
375 2 48.5733 20.7897 -1.83245 48.5733 20.7897 -1.83245
376 1 49.5249 22.4295 -0.195305 49.5249 22.4295 -0.195305
377 2 51.4263 22.422 1.43537 51.4263 22.422 1.43537
378 2 51.4256 22.437 -1.82679 51.4256 22.437 -1.82679
379 1 1.04821 24.076 -0.188295 1.04821 24.076 -0.188295
380 2 2.94838 24.0673 1.44381 2.94838 24.0673 1.44381
381 2 2.95014 24.0846 -1.81833 2.95014 24.0846 -1.81833
382 1 3.89978 25.7224 -0.178037 3.89978 25.7224 -0.178037
383 2 5.79857 25.7128 1.45568 5.79857 25.7128 1.45568
384 2 5.80309 25.7321 -1.80645 5.80309 25.7321 -1.80645
385 1 6.75136 24.076 -0.183813 6.75136 24.076 -0.183813
386 2 8.64931 24.0664 1.45086 8.64931 24.0664 1.45086
387 2 8.6555 24.0855 -1.81126 8.6555 24.0855 -1.81126
388 1 9.60292 25.7224 -0.168756 9.60292 25.7224 -0.168756
389 2 11.5002 25.7118 1.4667 11.5002 25.7118 1.4667
390 2 11.5077 25.733 -1.79541 11.5077 25.733 -1.79541
391 1 12.4545 24.076 -0.172899 12.4545 24.076 -0.172899
392 2 14.3519 24.0655 1.46238 14.3519 24.0655 1.46238
393 2 14.3592 24.0864 -1.79973 14.3592 24.0864 -1.79973
394 1 15.3061 25.7224 -0.156006 15.3061 25.7224 -0.156006
395 2 17.204 25.7113 1.47863 17.204 25.7113 1.47863
396 2 17.2102 25.7336 -1.78348 17.2102 25.7336 -1.78348
397 1 18.1576 24.076 -0.161923 18.1576 24.076 -0.161923
398 2 20.0565 24.0652 1.47163 20.0565 24.0652 1.47163
399 2 20.0608 24.0867 -1.79048 20.0608 24.0867 -1.79048
400 1 21.0092 25.7224 -0.147286 21.0092 25.7224 -0.147286
401 2 22.9094 25.7115 1.48473 22.9094 25.7115 1.48473
402 2 22.9111 25.7333 -1.77738 22.9111 25.7333 -1.77738
403 1 23.8608 24.0759 -0.156919 23.8608 24.0759 -0.156919
404 2 25.7618 24.0655 1.47413 25.7618 24.0655 1.47413
405 2 25.7618 24.0864 -1.78799 25.7618 24.0864 -1.78799
406 1 26.7123 25.7224 -0.146293 26.7123 25.7224 -0.146293
407 2 28.6145 25.7121 1.48343 28.6145 25.7121 1.48343
408 2 28.6122 25.7326 -1.77869 28.6122 25.7326 -1.77869
409 1 29.5639 24.0759 -0.158666 29.5639 24.0759 -0.158666
410 2 31.4664 24.0659 1.47069 31.4664 24.0659 1.47069
411 2 31.4635 24.0859 -1.79143 31.4635 24.0859 -1.79143
412 1 32.4155 25.7224 -0.151092 32.4155 25.7224 -0.151092
413 2 34.3188 25.7129 1.47731 34.3188 25.7129 1.47731
414 2 34.3142 25.7318 -1.78482 34.3142 25.7318 -1.78482
415 1 35.267 24.0759 -0.164686 35.267 24.0759 -0.164686
416 2 37.1705 24.0665 1.46352 37.1705 24.0665 1.46352
417 2 37.1656 24.0853 -1.79861 37.1656 24.0853 -1.79861
418 1 38.1186 25.7224 -0.159402 38.1186 25.7224 -0.159402
419 2 40.0228 25.7134 1.46803 40.0228 25.7134 1.46803
420 2 40.0165 25.7313 -1.7941 40.0165 25.7313 -1.7941
421 1 40.9702 24.0759 -0.173921 40.9702 24.0759 -0.173921
422 2 42.8741 24.0671 1.45372 42.8741 24.0671 1.45372
423 2 42.8683 24.0847 -1.80841 42.8683 24.0847 -1.80841
424 1 43.8217 25.7224 -0.170118 43.8217 25.7224 -0.170118
425 2 45.7256 25.7137 1.45767 45.7256 25.7137 1.45767
426 2 45.72 25.731 -1.80446 45.72 25.731 -1.80446
427 1 46.6733 24.0759 -0.183829 46.6733 24.0759 -0.183829
428 2 48.5761 24.0676 1.44524 48.5761 24.0676 1.44524
429 2 48.5727 24.0843 -1.8169 48.5727 24.0843 -1.8169
430 1 49.5249 25.7224 -0.178371 49.5249 25.7224 -0.178371
431 2 51.4265 25.7135 1.45206 51.4265 25.7135 1.45206
432 2 51.4254 25.7312 -1.81008 51.4254 25.7312 -1.81008
433 1 1.04821 27.3689 -0.170381 1.04821 27.3689 -0.170381
434 2 2.94826 27.3595 1.46188 2.94826 27.3595 1.46188
435 2 2.95025 27.3782 -1.80026 2.95025 27.3782 -1.80026
436 1 3.89977 29.0153 -0.159165 3.89977 29.0153 -0.159165
437 2 5.79829 29.0058 1.47489 5.79829 29.0058 1.47489
438 2 5.80335 29.0248 -1.78724 5.80335 29.0248 -1.78724
439 1 6.75135 27.3689 -0.164314 6.75135 27.3689 -0.164314
440 2 8.649 27.3586 1.47073 8.649 27.3586 1.47073
441 2 8.65579 27.3792 -1.79138 8.65579 27.3792 -1.79138
442 1 9.60291 29.0153 -0.147904 9.60291 29.0153 -0.147904
443 2 11.5 29.005 1.4878 11.5 29.005 1.4878
444 2 11.5079 29.0257 -1.77431 11.5079 29.0257 -1.77431
445 1 12.4545 27.3689 -0.151409 12.4545 27.3689 -0.151409
446 2 14.3518 27.3578 1.48402 14.3518 27.3578 1.48402
447 2 14.3593 27.3799 -1.77808 14.3593 27.3799 -1.77808
448 1 15.306 29.0153 -0.133675 15.306 29.0153 -0.133675
449 2 17.2042 29.0047 1.50077 17.2042 29.0047 1.50077
450 2 17.21 29.0259 -1.76134 17.21 29.0259 -1.76134
451 1 18.1576 27.3688 -0.139344 18.1576 27.3688 -0.139344
452 2 20.0568 27.3578 1.49386 20.0568 27.3578 1.49386
453 2 20.0605 27.3799 -1.76825 20.0605 27.3799 -1.76825
454 1 21.0092 29.0153 -0.124933 21.0092 29.0153 -0.124933
455 2 22.91 29.0052 1.50637 22.91 29.0052 1.50637
456 2 22.9104 29.0253 -1.75576 22.9104 29.0253 -1.75576
457 1 23.8608 27.3688 -0.134758 23.8608 27.3688 -0.134758
458 2 25.7624 27.3585 1.49556 25.7624 27.3585 1.49556
459 2 25.7612 27.3791 -1.76656 25.7612 27.3791 -1.76656
460 1 26.7123 29.0153 -0.125423 26.7123 29.0153 -0.125423
461 2 28.6154 29.0064 1.5033 28.6154 29.0064 1.5033
462 2 28.6114 29.0241 -1.75884 28.6114 29.0241 -1.75884
463 1 29.5639 27.3688 -0.137918 29.5639 27.3688 -0.137918
464 2 31.4671 27.3596 1.4906 31.4671 27.3596 1.4906
465 2 31.4628 27.3781 -1.77153 31.4628 27.3781 -1.77153
466 1 32.4155 29.0153 -0.132345 32.4155 29.0153 -0.132345
467 2 34.3196 29.0076 1.49517 34.3196 29.0076 1.49517
468 2 34.3135 29.023 -1.76697 34.3135 29.023 -1.76697
469 1 35.267 27.3688 -0.145476 35.267 27.3688 -0.145476
470 2 37.1711 27.3603 1.48204 37.1711 27.3603 1.48204
471 2 37.165 27.3773 -1.78009 37.165 27.3773 -1.78009
472 1 38.1186 29.0153 -0.142184 38.1186 29.0153 -0.142184
473 2 40.0232 29.0079 1.48477 40.0232 29.0079 1.48477
474 2 40.0161 29.0226 -1.77738 40.0161 29.0226 -1.77738
475 1 40.9702 27.3688 -0.155773 40.9702 27.3688 -0.155773
476 2 42.8746 27.3605 1.47135 42.8746 27.3605 1.47135
477 2 42.8678 27.3771 -1.79079 42.8678 27.3771 -1.79079
478 1 43.8217 29.0153 -0.153264 43.8217 29.0153 -0.153264
479 2 45.7258 29.0076 1.47436 45.7258 29.0076 1.47436
480 2 45.7198 29.023 -1.78779 45.7198 29.023 -1.78779
481 1 46.6733 27.3688 -0.166251 46.6733 27.3688 -0.166251
482 2 48.5763 27.3602 1.46254 48.5763 27.3602 1.46254
483 2 48.5724 27.3774 -1.7996 48.5724 27.3774 -1.7996
484 1 49.5249 29.0153 -0.160966 49.5249 29.0153 -0.160966
485 2 51.4264 29.0068 1.46958 51.4264 29.0068 1.46958
486 2 51.4255 29.0238 -1.79256 51.4255 29.0238 -1.79256
487 1 1.0482 30.6617 -0.153118 1.0482 30.6617 -0.153118
488 2 2.94797 30.6535 1.47949 2.94797 30.6535 1.47949
489 2 2.95052 30.67 -1.78265 2.95052 30.67 -1.78265
490 1 3.89976 32.3082 -0.142461 3.89976 32.3082 -0.142461
491 2 5.79799 32.3007 1.49196 5.79799 32.3007 1.49196
492 2 5.80363 32.3157 -1.77019 5.80363 32.3157 -1.77019
493 1 6.75134 30.6618 -0.145058 6.75134 30.6618 -0.145058
494 2 8.64875 30.6526 1.49029 8.64875 30.6526 1.49029
495 2 8.65601 30.6709 -1.77184 8.65601 30.6709 -1.77184
496 1 9.60289 32.3082 -0.129352 9.60289 32.3082 -0.129352
497 2 11.4999 32.3001 1.50646 11.4999 32.3001 1.50646
498 2 11.508 32.3163 -1.75567 11.508 32.3163 -1.75567
499 1 12.4545 30.6617 -0.130449 12.4545 30.6617 -0.130449
500 2 14.3518 30.6521 1.50496 14.3518 30.6521 1.50496
501 2 14.3592 30.6714 -1.75716 14.3592 30.6714 -1.75716
502 1 15.306 32.3082 -0.114161 15.306 32.3082 -0.114161
503 2 17.2045 32.3001 1.51994 17.2045 32.3001 1.51994
504 2 17.2097 32.3163 -1.74219 17.2097 32.3163 -1.74219
505 1 18.1576 30.6617 -0.117827 18.1576 30.6617 -0.117827
506 2 20.0573 30.6524 1.51482 20.0573 30.6524 1.51482
507 2 20.06 30.6711 -1.74731 20.06 30.6711 -1.74731
508 1 21.0092 32.3082 -0.105933 21.0092 32.3082 -0.105933
509 2 22.9108 32.3009 1.52447 22.9108 32.3009 1.52447
510 2 22.9096 32.3155 -1.73768 22.9096 32.3155 -1.73768
511 1 23.8608 30.6617 -0.11436 23.8608 30.6617 -0.11436
512 2 25.7633 30.6535 1.51492 25.7633 30.6535 1.51492
513 2 25.7603 30.67 -1.74722 25.7603 30.67 -1.74722
514 1 26.7123 32.3082 -0.108623 26.7123 32.3082 -0.108623
515 2 28.6165 32.3024 1.51885 28.6165 32.3024 1.51885
516 2 28.6103 32.314 -1.74331 28.6103 32.314 -1.74331
517 1 29.5639 30.6617 -0.119938 29.5639 30.6617 -0.119938
518 2 31.4681 30.6549 1.50746 31.4681 30.6549 1.50746
519 2 31.4618 30.6685 -1.75469 31.4618 30.6685 -1.75469
520 1 32.4155 32.3082 -0.118526 32.4155 32.3082 -0.118526
521 2 34.3204 32.3037 1.508 34.3204 32.3037 1.508
522 2 34.3126 32.3126 -1.75416 34.3126 32.3126 -1.75416
523 1 35.267 30.6617 -0.129847 35.267 30.6617 -0.129847
524 2 37.1717 30.6558 1.497 37.1717 30.6558 1.497
525 2 37.1644 30.6676 -1.76516 37.1644 30.6676 -1.76516
526 1 38.1186 32.3082 -0.130181 38.1186 32.3082 -0.130181
527 2 40.0234 32.304 1.49656 40.0234 32.304 1.49656
528 2 40.0159 32.3124 -1.76561 40.0159 32.3124 -1.76561
529 1 40.9702 30.6617 -0.140948 40.9702 30.6617 -0.140948
530 2 42.8747 30.6555 1.48609 42.8747 30.6555 1.48609
531 2 42.8677 30.6679 -1.77607 42.8677 30.6679 -1.77607
532 1 43.8217 32.3082 -0.140746 43.8217 32.3082 -0.140746
533 2 45.7255 32.303 1.48724 45.7255 32.303 1.48724
534 2 45.7201 32.3134 -1.77492 45.7201 32.3134 -1.77492
535 1 46.6733 30.6617 -0.150634 46.6733 30.6617 -0.150634
536 2 48.5762 30.6546 1.47838 48.5762 30.6546 1.47838
537 2 48.5726 30.6689 -1.78377 48.5726 30.6689 -1.78377
538 1 49.5249 32.3082 -0.146478 49.5249 32.3082 -0.146478
539 2 51.426 32.3017 1.48456 51.426 32.3017 1.48456