ITEM: TIMESTEP
46000
ITEM: NUMBER OF ATOMS
810
ITEM: BOX BOUNDS pp pp pp
8.5254234869050105e-01 5.2165062651308503e+01
8.1721305871339167e-01 5.0199001941286227e+01
-1.0000000000000000e+01 1.0000000000000000e+01
ITEM: ATOMS id type x y z xu yu zu
1 1 1.05776 1.03316 0.0947665 1.05776 1.03316 0.0947665
2 2 3.01494 1.09049 1.65689 3.01494 1.09049 1.65689
3 2 2.90096 0.975331 -1.60127 2.90096 0.975331 -1.60127
4 1 3.9075 2.67784 -0.0639019 3.9075 2.67784 -0.0639019
5 2 5.87515 2.73226 1.48505 5.87515 2.73226 1.48505
6 2 5.73906 2.62301 -1.77248 5.73906 2.62301 -1.77248
7 1 6.75744 1.03145 -0.128168 6.75744 1.03145 -0.128168
8 2 8.72968 1.08731 1.41514 8.72968 1.08731 1.41514
9 2 8.58407 0.975208 -1.84186 8.58407 0.975208 -1.84186
10 1 9.60605 2.67612 -0.312709 9.60605 2.67612 -0.312709
11 2 11.5718 2.72876 1.2391 11.5718 2.72876 1.2391
12 2 11.4399 2.62335 -2.01867 11.4399 2.62335 -2.01867
13 1 12.4562 1.02976 -0.374905 12.4562 1.02976 -0.374905
14 2 14.41 1.08447 1.19213 14.41 1.08447 1.19213
15 2 14.3032 0.97505 -2.06644 14.3032 0.97505 -2.06644
16 1 15.3065 2.67488 -0.523736 15.3065 2.67488 -0.523736
17 2 17.2404 2.72694 1.06817 17.2404 2.72694 1.06817
18 2 17.1749 2.62302 -2.19162 17.1749 2.62302 -2.19162
19 1 18.1584 1.02893 -0.528169 18.1584 1.02893 -0.528169
20 2 20.0702 1.0835 1.09028 20.0702 1.0835 1.09028
21 2 20.0495 0.974626 -2.16999 20.0495 0.974626 -2.16999
22 1 21.0106 2.67458 -0.600916 21.0106 2.67458 -0.600916
23 2 22.8978 2.72749 1.04632 22.8978 2.72749 1.04632
24 2 22.9265 2.62199 -2.21394 22.9265 2.62199 -2.21394
25 1 23.8628 1.02913 -0.521967 23.8628 1.02913 -0.521967
26 2 25.7273 1.08476 1.15067 25.7273 1.08476 1.15067
27 2 25.8001 0.973832 -2.10879 25.8001 0.973832 -2.10879
28 1 26.7146 2.67518 -0.513876 26.7146 2.67518 -0.513876
29 2 28.5598 2.73011 1.18011 28.5598 2.73011 1.18011
30 2 28.6702 2.6206 -2.07831 28.6702 2.6206 -2.07831
31 1 29.5647 1.03022 -0.361382 29.5647 1.03022 -0.361382
32 2 31.397 1.08752 1.34637 31.397 1.08752 1.34637
33 2 31.532 0.973273 -1.91101 31.532 0.973273 -1.91101
34 1 32.415 2.67653 -0.300745 32.415 2.67653 -0.300745
35 2 34.2419 2.73339 1.41254 34.2419 2.73339 1.41254
36 2 34.387 2.62004 -1.84443 34.387 2.62004 -1.84443
37 1 35.2636 1.03189 -0.116208 35.2636 1.03189 -0.116208
38 2 37.0951 1.0901 1.59202 37.0951 1.0901 1.59202
39 2 37.2314 0.973967 -1.66524 37.2314 0.973967 -1.66524
40 1 38.1137 2.67818 -0.0556829 38.1137 2.67818 -0.0556829
41 2 39.9574 2.73562 1.63915 39.9574 2.73562 1.63915
42 2 40.0702 2.62097 -1.61909 40.0702 2.62097 -1.61909
43 1 40.9635 1.03341 0.10095 40.9635 1.03341 0.10095
44 2 42.8282 1.09165 1.77269 42.8282 1.09165 1.77269
45 2 42.9007 0.975184 -1.48659 42.9007 0.975184 -1.48659
46 1 43.8151 2.67927 0.105156 43.8151 2.67927 0.105156
47 2 45.7033 2.73637 1.75004 45.7033 2.73637 1.75004
48 2 45.7294 2.62205 -1.51008 45.7294 2.62205 -1.51008
49 1 46.667 1.03394 0.185348 46.667 1.03394 0.185348
50 2 48.5817 1.09202 1.79922 48.5817 1.09202 1.79922
51 2 48.5549 0.975549 -1.46076 48.5549 0.975549 -1.46076
52 1 49.5187 2.67913 0.102289 49.5187 2.67913 0.102289
53 2 51.4561 2.73534 1.68885 51.4561 2.73534 1.68885
54 2 51.383 2.62254 -1.57061 51.383 2.62254 -1.57061
55 1 1.05697 4.32407 -0.0195156 1.05697 4.32407 -0.0195156
56 2 3.01164 4.37509 1.54566 3.01164 4.37509 1.54566
57 2 2.90245 4.2727 -1.71317 2.90245 4.2727 -1.71317
58 1 3.90657 5.96907 -0.167693 3.90657 5.96907 -0.167693
59 2 5.8714 6.01196 1.38497 5.8714 6.01196 1.38497
60 2 5.74095 5.92596 -1.87352 5.74095 5.92596 -1.87352
61 1 6.75633 4.3226 -0.238916 6.75633 4.3226 -0.238916
62 2 8.72598 4.37124 1.30778 8.72598 4.37124 1.30778
63 2 8.58571 4.27376 -1.94992 8.58571 4.27376 -1.94992
64 1 9.60512 5.96778 -0.411545 9.60512 5.96778 -0.411545
65 2 11.5686 6.00849 1.14348 11.5686 6.00849 1.14348
66 2 11.4416 5.92709 -2.11514 11.4416 5.92709 -2.11514
67 1 12.4554 4.32121 -0.481742 12.4554 4.32121 -0.481742
68 2 14.4072 4.3685 1.08794 14.4072 4.3685 1.08794
69 2 14.3046 4.27401 -2.17117 14.3046 4.27401 -2.17117
70 1 15.306 5.96687 -0.619477 15.306 5.96687 -0.619477
71 2 17.2385 6.0072 0.974348 17.2385 6.0072 0.974348
72 2 17.176 5.92677 -2.28608 17.176 5.92677 -2.28608
73 1 18.1581 4.32051 -0.633428 18.1581 4.32051 -0.633428
74 2 20.0688 4.36817 0.98655 20.0688 4.36817 0.98655
75 2 20.0507 4.27313 -2.27406 20.0507 4.27313 -2.27406
76 1 21.0106 5.96662 -0.697154 21.0106 5.96662 -0.697154
77 2 22.8975 6.00836 0.950852 22.8975 6.00836 0.950852
78 2 22.9272 5.92516 -2.30995 22.9272 5.92516 -2.30995
79 1 23.8631 4.32063 -0.628785 23.8631 4.32063 -0.628785
80 2 25.7274 4.37017 1.04445 25.7274 4.37017 1.04445
81 2 25.8012 4.2714 -2.21528 25.8012 4.2714 -2.21528
82 1 26.7153 5.96702 -0.61387 26.7153 5.96702 -0.61387
83 2 28.5607 6.01145 1.08023 28.5607 6.01145 1.08023
84 2 28.671 5.92289 -2.17876 28.671 5.92289 -2.17876
85 1 29.5658 4.3215 -0.472281 29.5658 4.3215 -0.472281
86 2 31.3978 4.37367 1.23588 31.3978 4.37367 1.23588
87 2 31.5334 4.26969 -2.02177 31.5334 4.26969 -2.02177
88 1 32.4161 5.96802 -0.40606 32.4161 5.96802 -0.40606
89 2 34.2428 6.01514 1.30777 34.2428 6.01514 1.30777
90 2 34.3884 5.92126 -1.94979 34.3884 5.92126 -1.94979
91 1 35.2648 4.32293 -0.231047 35.2648 4.32293 -0.231047
92 2 37.0952 4.37679 1.4784 37.0952 4.37679 1.4784
93 2 37.2336 4.26944 -1.77911 37.2336 4.26944 -1.77911
94 1 38.1148 5.96933 -0.164459 38.1148 5.96933 -0.164459
95 2 39.957 6.01746 1.53206 39.957 6.01746 1.53206
96 2 40.0724 5.92147 -1.72677 40.0724 5.92147 -1.72677
97 1 40.9644 4.32431 -0.0152103 40.9644 4.32431 -0.0152103
98 2 42.8271 4.37818 1.65849 42.8271 4.37818 1.65849
99 2 42.9029 4.27054 -1.60113 42.9029 4.27054 -1.60113
100 1 43.8156 5.97021 -0.00389505 43.8156 5.97021 -0.00389505
101 2 45.7016 6.01761 1.64345 45.7016 6.01761 1.64345
102 2 45.7314 5.9228 -1.61739 45.7314 5.9228 -1.61739
103 1 46.667 4.32478 0.0695583 46.667 4.32478 0.0695583
104 2 48.5796 4.37769 1.68578 48.5796 4.37769 1.68578
105 2 48.5565 4.27167 -1.57471 48.5565 4.27167 -1.57471
106 1 49.5184 5.97009 -0.00511262 49.5184 5.97009 -0.00511262
107 2 51.4531 6.01564 1.58455 51.4531 6.01564 1.58455
108 2 51.3847 5.9243 -1.67579 51.3847 5.9243 -1.67579
109 1 1.05635 7.61543 -0.112103 1.05635 7.61543 -0.112103
110 2 3.00821 7.65085 1.45674 3.00821 7.65085 1.45674
111 2 2.90449 7.57981 -1.80316 2.90449 7.57981 -1.80316
112 1 3.90596 9.26104 -0.239735 3.90596 9.26104 -0.239735
113 2 5.86811 9.28442 1.31658 5.86811 9.28442 1.31658
114 2 5.74308 9.23758 -1.94296 5.74308 9.23758 -1.94296
115 1 6.7555 7.61444 -0.326132 6.7555 7.61444 -0.326132
116 2 8.72252 7.6471 1.22419 8.72252 7.6471 1.22419
117 2 8.58767 7.58172 -2.03455 8.58767 7.58172 -2.03455
118 1 9.60456 9.26036 -0.477858 9.60456 9.26036 -0.477858
119 2 11.5661 9.28167 1.07994 11.5661 9.28167 1.07994
120 2 11.4432 9.23911 -2.17956 11.4432 9.23911 -2.17956
121 1 12.4547 7.61355 -0.564261 12.4547 7.61355 -0.564261
122 2 14.405 7.64493 1.00779 14.405 7.64493 1.00779
123 2 14.3059 7.58231 -2.25213 14.3059 7.58231 -2.25213
124 1 15.3056 9.25991 -0.682929 15.3056 9.25991 -0.682929
125 2 17.2376 9.28118 0.912096 17.2376 9.28118 0.912096
126 2 17.1766 9.23879 -2.34902 17.1766 9.23879 -2.34902
127 1 18.1579 7.6131 -0.714894 18.1579 7.6131 -0.714894
128 2 20.0681 7.64524 0.906057 20.0681 7.64524 0.906057
129 2 20.0512 7.58119 -2.35523 20.0512 7.58119 -2.35523
130 1 21.0107 9.25977 -0.761992 21.0107 9.25977 -0.761992
131 2 22.8979 9.28281 0.886027 22.8979 9.28281 0.886027
132 2 22.9272 9.23688 -2.37545 22.9272 9.23688 -2.37545
133 1 23.8634 7.61315 -0.713004 23.8634 7.61315 -0.713004
134 2 25.7281 7.64759 0.960245 25.7281 7.64759 0.960245
135 2 25.8014 7.57892 -2.30019 25.8014 7.57892 -2.30019
136 1 26.7157 9.25995 -0.683373 26.7157 9.25995 -0.683373
137 2 28.562 9.2858 1.01019 28.562 9.2858 1.01019
138 2 28.6708 9.23426 -2.24959 28.6708 9.23426 -2.24959
139 1 29.5666 7.61368 -0.561954 29.5666 7.61368 -0.561954
140 2 31.3991 7.65117 1.14608 31.3991 7.65117 1.14608
141 2 31.5339 7.57646 -2.11237 31.5339 7.57646 -2.11237
142 1 32.4169 9.26048 -0.481716 32.4169 9.26048 -0.481716
143 2 34.244 9.28912 1.23204 34.244 9.28912 1.23204
144 2 34.3889 9.23208 -2.0264 34.3889 9.23208 -2.0264
145 1 35.2659 7.61464 -0.326152 35.2659 7.61464 -0.326152
146 2 37.0957 7.65429 1.38418 37.0957 7.65429 1.38418
147 2 37.2351 7.5753 -1.87413 37.2351 7.5753 -1.87413
148 1 38.1156 9.26124 -0.244504 38.1156 9.26124 -0.244504
149 2 39.9569 9.29105 1.45332 39.9569 9.29105 1.45332
150 2 40.0739 9.23163 -1.80637 40.0739 9.23163 -1.80637
151 1 40.9651 7.61561 -0.112486 40.9651 7.61561 -0.112486
152 2 42.826 7.65533 1.56335 42.826 7.65533 1.56335
153 2 42.905 7.57604 -1.69709 42.905 7.57604 -1.69709
154 1 43.8159 9.26176 -0.084253 43.8159 9.26176 -0.084253
155 2 45.6998 9.29054 1.56565 45.6998 9.29054 1.56565
156 2 45.7335 9.23298 -1.6961 45.7335 9.23298 -1.6961
157 1 46.667 7.61595 -0.0265161 46.667 7.61595 -0.0265161
158 2 48.5772 7.65403 1.59268 48.5772 7.65403 1.59268
159 2 48.5585 7.57776 -1.66877 48.5585 7.57776 -1.66877
160 1 49.5181 9.26165 -0.0824216 49.5181 9.26165 -0.0824216
161 2 51.4503 9.28798 1.51059 51.4503 9.28798 1.51059
162 2 51.3868 9.23519 -1.75077 51.3868 9.23519 -1.75077
163 1 1.05603 10.9075 -0.16565 1.05603 10.9075 -0.16565
164 2 3.00541 10.9205 1.40647 3.00541 10.9205 1.40647
165 2 2.90662 10.8944 -1.85429 2.90662 10.8944 -1.85429
166 1 3.90582 12.5537 -0.266266 3.90582 12.5537 -0.266266
167 2 5.86601 12.5529 1.29261 5.86601 12.5529 1.29261
168 2 5.74497 12.5544 -1.96743 5.74497 12.5544 -1.96743
169 1 6.75512 10.9071 -0.373666 6.75512 10.9071 -0.373666
170 2 8.72006 10.9176 1.17952 8.72006 10.9176 1.17952
171 2 8.58951 10.8966 -2.07998 8.58951 10.8966 -2.07998
172 1 9.60449 12.5536 -0.499197 9.60449 12.5536 -0.499197
173 2 11.5649 12.5514 1.06011 11.5649 12.5514 1.06011
174 2 11.4443 12.5558 -2.19975 11.4443 12.5558 -2.19975
175 1 12.4545 10.9068 -0.607413 12.4545 10.9068 -0.607413
176 2 14.4038 10.9165 0.966065 14.4038 10.9165 0.966065
177 2 14.3067 10.8972 -2.29444 14.3067 10.8972 -2.29444
178 1 15.3056 12.5536 -0.702399 15.3056 12.5536 -0.702399
179 2 17.2377 12.5519 0.892604 17.2377 12.5519 0.892604
180 2 17.1765 12.5554 -2.36876 17.1765 12.5554 -2.36876
181 1 18.1578 10.9067 -0.757804 18.1578 10.9067 -0.757804
182 2 20.0683 10.9175 0.863145 20.0683 10.9175 0.863145
183 2 20.0511 10.896 -2.39865 20.0511 10.896 -2.39865
184 1 21.0107 12.5537 -0.783768 21.0107 12.5537 -0.783768
185 2 22.8989 12.554 0.863265 22.8989 12.554 0.863265
186 2 22.9263 12.5534 -2.39853 22.9263 12.5534 -2.39853
187 1 23.8636 10.9067 -0.759468 23.8636 10.9067 -0.759468
188 2 25.7292 10.9199 0.913031 25.7292 10.9199 0.913031
189 2 25.8008 10.8936 -2.34801 25.8008 10.8936 -2.34801
190 1 26.7159 12.5537 -0.709995 26.7159 12.5537 -0.709995
191 2 28.5634 12.5564 0.982376 28.5634 12.5564 0.982376
192 2 28.6699 12.551 -2.27787 28.6699 12.551 -2.27787
193 1 29.567 10.9069 -0.614116 29.567 10.9069 -0.614116
194 2 31.4006 10.9228 1.09315 31.4006 10.9228 1.09315
195 2 31.5336 10.8911 -2.16606 31.5336 10.8911 -2.16606
196 1 32.4173 12.5538 -0.513853 32.4173 12.5538 -0.513853
197 2 34.2453 12.5585 1.19917 34.2453 12.5585 1.19917
198 2 34.3885 12.5491 -2.05983 34.3885 12.5491 -2.05983
199 1 35.2666 10.9073 -0.383927 35.2666 10.9073 -0.383927
200 2 37.0965 10.9252 1.3266 37.0965 10.9252 1.3266
201 2 37.2356 10.8895 -1.9325 37.2356 10.8895 -1.9325
202 1 38.1161 12.5539 -0.280624 38.1161 12.5539 -0.280624
203 2 39.957 12.5595 1.41773 39.957 12.5595 1.41773
204 2 40.0746 12.5484 -1.84249 40.0746 12.5484 -1.84249
205 1 40.9656 10.9077 -0.172713 40.9656 10.9077 -0.172713
206 2 42.8252 10.9255 1.50483 42.8252 10.9255 1.50483
207 2 42.9065 10.8899 -1.75637 42.9065 10.8899 -1.75637
208 1 43.8162 12.554 -0.120399 43.8162 12.554 -0.120399
209 2 45.6985 12.5583 1.53142 45.6985 12.5583 1.53142
210 2 45.735 12.5496 -1.73083 45.735 12.5496 -1.73083
211 1 46.667 10.9078 -0.0848786 46.667 10.9078 -0.0848786
212 2 48.575 10.9237 1.53711 48.575 10.9237 1.53711
213 2 48.5605 10.8919 -1.72516 48.5605 10.8919 -1.72516
214 1 49.518 12.5538 -0.114709 49.518 12.5538 -0.114709
215 2 51.4481 12.5557 1.48095 51.4481 12.5557 1.48095
216 2 51.3888 12.5519 -1.78095 51.3888 12.5519 -1.78095
217 1 1.05609 14.2 -0.169561 1.05609 14.2 -0.169561
218 2 3.00387 14.1879 1.40453 3.00387 14.1879 1.40453
219 2 2.90835 14.212 -1.85635 2.90835 14.212 -1.85635
220 1 3.90616 15.8463 -0.241833 3.90616 15.8463 -0.241833
221 2 5.86555 15.8214 1.31788 5.86555 15.8214 1.31788
222 2 5.74621 15.8712 -1.94183 5.74621 15.8712 -1.94183
223 1 6.75528 14.2001 -0.372268 6.75528 14.2001 -0.372268
224 2 8.71914 14.1863 1.18223 8.71914 14.1863 1.18223
225 2 8.59081 14.214 -2.07731 8.59081 14.214 -2.07731
226 1 9.60494 15.8468 -0.471179 9.60494 15.8468 -0.471179
227 2 11.5653 15.8213 1.08794 11.5653 15.8213 1.08794
228 2 11.4447 15.8723 -2.17154 11.4447 15.8723 -2.17154
229 1 12.4547 14.2004 -0.602959 12.4547 14.2004 -0.602959
230 2 14.404 14.1864 0.970472 14.404 14.1864 0.970472
231 2 14.3069 14.2144 -2.28997 14.3069 14.2144 -2.28997
232 1 15.3059 15.8473 -0.67407 15.3059 15.8473 -0.67407
233 2 17.239 15.823 0.919468 17.239 15.823 0.919468
234 2 17.1756 15.8716 -2.34152 17.1756 15.8716 -2.34152
235 1 18.1579 14.2006 -0.754287 18.1579 14.2006 -0.754287
236 2 20.0694 14.1883 0.865412 20.0694 14.1883 0.865412
237 2 20.0501 14.213 -2.39635 20.0501 14.213 -2.39635
238 1 21.0107 15.8476 -0.758665 21.0107 15.8476 -0.758665
239 2 22.9005 15.8253 0.886369 22.9005 15.8253 0.886369
240 2 22.9246 15.8698 -2.37517 22.9246 15.8698 -2.37517
241 1 23.8636 14.2007 -0.760004 23.8636 14.2007 -0.760004
242 2 25.7306 14.1905 0.910937 25.7306 14.1905 0.910937
243 2 25.7995 14.2108 -2.35021 25.7995 14.2108 -2.35021
244 1 26.7158 15.8475 -0.689281 26.7158 15.8475 -0.689281
245 2 28.5647 15.8268 1.0014 28.5647 15.8268 1.0014
246 2 28.6684 15.8682 -2.25869 28.6684 15.8682 -2.25869
247 1 29.5671 14.2006 -0.619494 29.5671 14.2006 -0.619494
248 2 31.4019 14.1921 1.08647 31.4019 14.1921 1.08647
249 2 31.5325 14.209 -2.17294 31.5325 14.209 -2.17294
250 1 32.4172 15.8472 -0.496696 32.4172 15.8472 -0.496696
251 2 34.2462 15.8272 1.21513 34.2462 15.8272 1.21513
252 2 34.3875 15.8671 -2.04373 34.3875 15.8671 -2.04373
253 1 35.2668 14.2004 -0.393483 35.2668 14.2004 -0.393483
254 2 37.0973 14.193 1.3165 37.0973 14.193 1.3165
255 2 37.2353 14.2079 -1.94281 37.2353 14.2079 -1.94281
256 1 38.116 15.8468 -0.265572 38.116 15.8468 -0.265572
257 2 39.9573 15.8267 1.43241 39.9573 15.8267 1.43241
258 2 40.0744 15.8667 -1.82759 40.0744 15.8667 -1.82759
259 1 40.9658 14.2003 -0.183938 40.9658 14.2003 -0.183938
260 2 42.8248 14.1925 1.49436 42.8248 14.1925 1.49436
261 2 42.9073 14.208 -1.76698 42.9073 14.208 -1.76698
262 1 43.8162 15.8463 -0.104659 43.8162 15.8463 -0.104659
263 2 45.6979 15.8251 1.54784 45.6979 15.8251 1.54784
264 2 45.7358 15.8675 -1.71411 45.7358 15.8675 -1.71411
265 1 46.6671 14.2001 -0.0938258 46.6671 14.2001 -0.0938258
266 2 48.5736 14.1904 1.52993 48.5736 14.1904 1.52993
267 2 48.562 14.2097 -1.73245 48.562 14.2097 -1.73245
268 1 49.5182 15.8461 -0.0951786 49.5182 15.8461 -0.0951786
269 2 51.4472 15.8229 1.50165 51.4472 15.8229 1.50165
270 2 51.3901 15.8693 -1.75994 51.3901 15.8693 -1.75994
271 1 1.0565 17.4922 -0.122596 1.0565 17.4922 -0.122596
272 2 3.00393 17.457 1.45169 3.00393 17.457 1.45169
273 2 2.90927 17.5273 -1.80852 2.90927 17.5273 -1.80852
274 1 3.90691 19.1384 -0.170698 3.90691 19.1384 -0.170698
275 2 5.86679 19.0937 1.3881 5.86679 19.0937 1.3881
276 2 5.74657 19.183 -1.87072 5.74657 19.183 -1.87072
277 1 6.75594 17.4928 -0.321772 6.75594 17.4928 -0.321772
278 2 8.71995 17.457 1.23224 8.71995 17.457 1.23224
279 2 8.59132 17.5286 -2.02663 8.59132 17.5286 -2.02663
280 1 9.60582 19.1393 -0.39862 9.60582 19.1393 -0.39862
281 2 11.5673 19.0951 1.15872 11.5673 19.0951 1.15872
282 2 11.4443 19.1834 -2.0999 11.4443 19.1834 -2.0999
283 1 12.4553 17.4936 -0.551334 12.4553 17.4936 -0.551334
284 2 14.4056 17.4585 1.02047 14.4056 17.4585 1.02047
285 2 14.3062 17.5286 -2.23931 14.3062 17.5286 -2.23931
286 1 15.3065 19.1402 -0.602988 15.3065 19.1402 -0.602988
287 2 17.2414 19.0978 0.987865 17.2414 19.0978 0.987865
288 2 17.174 19.1826 -2.27237 17.174 19.1826 -2.27237
289 1 18.1581 17.4941 -0.704961 18.1581 17.4941 -0.704961
290 2 20.0714 17.461 0.912317 20.0714 17.461 0.912317
291 2 20.0483 17.5272 -2.3489 20.0483 17.5272 -2.3489
292 1 21.0108 19.1407 -0.691527 21.0108 19.1407 -0.691527
293 2 22.9025 19.1001 0.950849 22.9025 19.1001 0.950849
294 2 22.9225 19.1812 -2.31009 22.9225 19.1812 -2.31009
295 1 23.8635 17.4942 -0.714875 23.8635 17.4942 -0.714875
296 2 25.7321 17.4628 0.953919 25.7321 17.4628 0.953919
297 2 25.7976 17.5257 -2.3068 25.7976 17.5257 -2.3068
298 1 26.7154 19.1406 -0.625522 26.7154 19.1406 -0.625522
299 2 28.5657 19.1005 1.06337 28.5657 19.1005 1.06337
300 2 28.6667 19.1806 -2.19614 28.6667 19.1806 -2.19614
301 1 29.5668 17.494 -0.577522 29.5668 17.494 -0.577522
302 2 31.4028 17.4629 1.12693 31.4028 17.4629 1.12693
303 2 31.5311 17.525 -2.13205 31.5311 17.525 -2.13205
304 1 32.4167 19.14 -0.433795 32.4167 19.14 -0.433795
305 2 34.2465 19.0992 1.27679 34.2465 19.0992 1.27679
306 2 34.3861 19.1807 -1.98138 34.3861 19.1807 -1.98138
307 1 35.2665 17.4934 -0.352997 35.2665 17.4934 -0.352997
308 2 37.0977 17.462 1.35593 37.0977 17.462 1.35593
309 2 37.2343 17.5247 -1.90286 37.2343 17.5247 -1.90286
310 1 38.1156 19.1391 -0.202038 38.1156 19.1391 -0.202038
311 2 39.9575 19.0972 1.49491 39.9575 19.0972 1.49491
312 2 40.0734 19.1807 -1.76426 40.0734 19.1807 -1.76426
313 1 40.9656 17.4927 -0.14339 40.9656 17.4927 -0.14339
314 2 42.8248 17.4604 1.53452 42.8248 17.4604 1.53452
315 2 42.9071 17.5247 -1.72619 42.9071 17.5247 -1.72619
316 1 43.816 19.1382 -0.0394942 43.816 19.1382 -0.0394942
317 2 45.6981 19.0952 1.61235 45.6981 19.0952 1.61235
318 2 45.7355 19.181 -1.64868 45.7355 19.181 -1.64868
319 1 46.6672 17.4922 -0.0509058 46.6672 17.4922 -0.0509058
320 2 48.5733 17.4585 1.5731 48.5733 17.4585 1.5731
321 2 48.5627 17.5257 -1.68861 48.5627 17.5257 -1.68861
322 1 49.5185 19.1379 -0.027089 49.5185 19.1379 -0.027089
323 2 51.4477 19.0938 1.56924 51.4477 19.0938 1.56924
324 2 51.3905 19.1819 -1.69143 51.3905 19.1819 -1.69143
325 1 1.05715 20.7837 -0.0334526 1.05715 20.7837 -0.0334526
326 2 3.00551 20.732 1.53947 3.00551 20.732 1.53947
327 2 2.90925 20.8353 -1.71975 2.90925 20.8353 -1.71975
328 1 3.9079 22.4296 -0.0660911 3.9079 22.4296 -0.0660911
329 2 5.86936 22.3735 1.49057 5.86936 22.3735 1.49057
330 2 5.7461 22.4858 -1.76739 5.7461 22.4858 -1.76739
331 1 6.75697 20.7846 -0.23134 6.75697 20.7846 -0.23134
332 2 8.72228 20.7333 1.32071 8.72228 20.7333 1.32071
333 2 8.59099 20.8358 -1.93723 8.59099 20.8358 -1.93723
334 1 9.60697 22.4308 -0.294734 9.60697 22.4308 -0.294734
335 2 11.5704 22.3761 1.25979 11.5704 22.3761 1.25979
336 2 11.4432 22.4857 -1.99805 11.4432 22.4857 -1.99805
337 1 12.4562 20.7857 -0.461837 12.4562 20.7857 -0.461837
338 2 14.4084 20.736 1.10717 14.4084 20.736 1.10717
339 2 14.3049 20.8355 -2.15178 14.3049 20.8355 -2.15178
340 1 15.3073 22.4321 -0.502172 15.3073 22.4321 -0.502172
341 2 17.2445 22.3793 1.08542 17.2445 22.3793 1.08542
342 2 17.1719 22.4848 -2.17419 17.1719 22.4848 -2.17419
343 1 18.1585 20.7866 -0.619002 18.1585 20.7866 -0.619002
344 2 20.074 20.7389 0.995216 20.074 20.7389 0.995216
345 2 20.0461 20.8343 -2.26533 20.0461 20.8343 -2.26533
346 1 21.0109 22.4327 -0.594875 21.0109 22.4327 -0.594875
347 2 22.9045 22.3814 1.04486 22.9045 22.3814 1.04486
348 2 22.9203 22.4841 -2.21559 22.9203 22.4841 -2.21559
349 1 23.8633 20.7869 -0.632768 23.8633 20.7869 -0.632768
350 2 25.7335 20.7401 1.03382 25.7335 20.7401 1.03382
351 2 25.7956 20.8336 -2.22631 25.7956 20.8336 -2.22631
352 1 26.715 22.4327 -0.530768 26.715 22.4327 -0.530768
353 2 28.5661 22.3808 1.15673 28.5661 22.3808 1.15673
354 2 28.665 22.4846 -2.10224 28.665 22.4846 -2.10224
355 1 29.5662 20.7865 -0.496458 29.5662 20.7865 -0.496458
356 2 31.403 20.7388 1.20674 31.403 20.7388 1.20674
357 2 31.5295 20.8341 -2.05154 31.5295 20.8341 -2.05154
358 1 32.4158 22.4318 -0.337258 32.4158 22.4318 -0.337258
359 2 34.2462 22.378 1.37248 34.2462 22.378 1.37248
360 2 34.3847 22.4856 -1.88499 34.3847 22.4856 -1.88499
361 1 35.2657 20.7855 -0.270374 35.2657 20.7855 -0.270374
362 2 37.0977 20.7362 1.43745 37.0977 20.7362 1.43745
363 2 37.2329 20.8346 -1.82049 37.2329 20.8346 -1.82049
364 1 38.1147 22.4305 -0.102341 38.1147 22.4305 -0.102341
365 2 39.9575 22.3749 1.59342 39.9575 22.3749 1.59342
366 2 40.0719 22.4859 -1.66493 40.0719 22.4859 -1.66493
367 1 40.9651 20.7843 -0.0587067 40.9651 20.7843 -0.0587067
368 2 42.8252 20.7338 1.61801 42.8252 20.7338 1.61801
369 2 42.906 20.8346 -1.64174 42.906 20.8346 -1.64174
370 1 43.8157 22.4293 0.06259 43.8157 22.4293 0.06259
371 2 45.699 22.3729 1.7129 45.699 22.3729 1.7129
372 2 45.7344 22.4856 -1.54723 45.7344 22.4856 -1.54723
373 1 46.6672 20.7836 0.0359532 46.6672 20.7836 0.0359532
374 2 48.5742 20.7323 1.65881 48.5742 20.7323 1.65881
375 2 48.5623 20.8347 -1.60189 48.5623 20.8347 -1.60189
376 1 49.5189 22.429 0.0766462 49.5189 22.429 0.0766462
377 2 51.4495 22.3724 1.67123 51.4495 22.3724 1.67123
378 2 51.3899 22.4855 -1.58853 51.3899 22.4855 -1.58853
379 1 1.05792 24.0746 0.0810676 1.05792 24.0746 0.0810676
380 2 3.00816 24.0161 1.65174 3.00816 24.0161 1.65174
381 2 2.90844 24.1332 -1.60683 2.90844 24.1332 -1.60683
382 1 3.90896 25.7206 0.0526251 3.90896 25.7206 0.0526251
383 2 5.87267 25.6633 1.60666 5.87267 25.6633 1.60666
384 2 5.74501 25.7781 -1.65099 5.74501 25.7781 -1.65099
385 1 6.75817 24.0757 -0.117611 6.75817 24.0757 -0.117611
386 2 8.72561 24.0184 1.43169 8.72561 24.0184 1.43169
387 2 8.58997 24.1331 -1.82566 8.58997 24.1331 -1.82566
388 1 9.60816 25.7219 -0.178451 9.60816 25.7219 -0.178451
389 2 11.5741 25.6664 1.37299 11.5741 25.6664 1.37299
390 2 11.4416 25.7776 -1.88462 11.4416 25.7776 -1.88462
391 1 12.4572 24.0771 -0.350768 12.4572 24.0771 -0.350768
392 2 14.4119 24.0217 1.21498 14.4119 24.0217 1.21498
393 2 14.303 24.1325 -2.04349 14.303 24.1325 -2.04349
394 1 15.308 25.7232 -0.389852 15.308 25.7232 -0.389852
395 2 17.2477 25.6696 1.19472 17.2477 25.6696 1.19472
396 2 17.1698 25.7771 -2.06479 17.1698 25.7771 -2.06479
397 1 18.159 24.0782 -0.512119 18.159 24.0782 -0.512119
398 2 20.0766 24.0245 1.09917 20.0766 24.0245 1.09917
399 2 20.0439 24.1319 -2.16106 20.0439 24.1319 -2.16106
400 1 21.011 25.724 -0.486024 21.011 25.724 -0.486024
401 2 22.9061 25.6708 1.15178 22.9061 25.6708 1.15178
402 2 22.9184 25.7774 -2.10867 22.9184 25.7774 -2.10867
403 1 23.863 24.0785 -0.528719 23.863 24.0785 -0.528719
404 2 25.7345 24.0248 1.1362 25.7345 24.0248 1.1362
405 2 25.7938 24.1323 -2.12365 25.7938 24.1323 -2.12365
406 1 26.7144 25.724 -0.421961 26.7144 25.724 -0.421961
407 2 28.566 25.6693 1.2649 28.566 25.6693 1.2649
408 2 28.6636 25.7787 -1.994 28.6636 25.7787 -1.994
409 1 29.5654 24.078 -0.391343 29.5654 24.078 -0.391343
410 2 31.4026 24.0225 1.31122 31.4026 24.0225 1.31122
411 2 31.5282 24.1336 -1.94664 31.5282 24.1336 -1.94664
412 1 32.4148 25.7231 -0.224769 32.4148 25.7231 -0.224769
413 2 34.2453 25.6659 1.48472 34.2453 25.6659 1.48472
414 2 34.3834 25.78 -1.77254 34.3834 25.78 -1.77254
415 1 35.2647 24.0768 -0.161361 35.2647 24.0768 -0.161361
416 2 37.0973 24.0189 1.54571 37.0973 24.0189 1.54571
417 2 37.2314 24.1344 -1.71168 37.2314 24.1344 -1.71168
418 1 38.1136 25.7215 0.0146227 38.1136 25.7215 0.0146227
419 2 39.9574 25.6626 1.70944 39.9574 25.6626 1.70944
420 2 40.0702 25.7802 -1.54866 40.0702 25.7802 -1.54866
421 1 40.9644 24.0753 0.0537259 40.9644 24.0753 0.0537259
422 2 42.8257 24.0163 1.72899 42.8257 24.0163 1.72899
423 2 42.9044 24.1342 -1.53014 42.9044 24.1342 -1.53014
424 1 43.8152 25.7202 0.182021 43.8152 25.7202 0.182021
425 2 45.7003 25.661 1.83055 45.7003 25.661 1.83055
426 2 45.7327 25.7793 -1.42929 45.7327 25.7793 -1.42929
427 1 46.6672 24.0744 0.150064 46.6672 24.0744 0.150064
428 2 48.5759 24.0153 1.77098 48.5759 24.0153 1.77098
429 2 48.561 24.1335 -1.48905 48.561 24.1335 -1.48905
430 1 49.5193 25.7198 0.196397 49.5193 25.7198 0.196397
431 2 51.452 25.6613 1.78872 51.452 25.6613 1.78872
432 2 51.3886 25.7785 -1.4707 51.3886 25.7785 -1.4707
433 1 1.05867 27.3657 0.199835 1.05867 27.3657 0.199835
434 2 3.01125 27.3108 1.76805 3.01125 27.3108 1.76805
435 2 2.90713 27.4208 -1.49055 2.90713 27.4208 -1.49055
436 1 3.9099 29.012 0.164086 3.9099 29.012 0.164086
437 2 5.87606 28.9636 1.71557 5.87606 28.9636 1.71557
438 2 5.74357 29.0607 -1.54242 5.74357 29.0607 -1.54242
439 1 6.75933 27.3668 -0.00126693 6.75933 27.3668 -0.00126693
440 2 8.72925 27.3137 1.5452 8.72925 27.3137 1.5452
441 2 8.58853 27.4201 -1.71221 8.58853 27.4201 -1.71221
442 1 9.60919 29.0132 -0.070585 9.60919 29.0132 -0.070585
443 2 11.5776 28.9667 1.47817 11.5776 28.9667 1.47817
444 2 11.4399 29.06 -1.77982 11.4399 29.06 -1.77982
445 1 12.4582 27.3682 -0.238129 12.4582 27.3682 -0.238129
446 2 14.4154 27.3169 1.32471 14.4154 27.3169 1.32471
447 2 14.3012 27.4196 -1.93391 14.3012 27.4196 -1.93391
448 1 15.3087 29.0144 -0.285792 15.3087 29.0144 -0.285792
449 2 17.2501 28.9689 1.29674 17.2501 28.9689 1.29674
450 2 17.1682 29.0602 -1.96326 17.1682 29.0602 -1.96326
451 1 18.1594 27.3693 -0.403216 18.1594 27.3693 -0.403216
452 2 20.0788 27.3188 1.20601 20.0788 27.3188 1.20601
453 2 20.0421 27.42 -2.05448 20.0421 27.42 -2.05448
454 1 21.011 29.0152 -0.38359 21.011 29.0152 -0.38359
455 2 22.9069 28.9689 1.25344 22.9069 28.9689 1.25344
456 2 22.9172 29.0617 -2.00755 22.9172 29.0617 -2.00755
457 1 23.8628 27.3697 -0.420806 23.8628 27.3697 -0.420806
458 2 25.7348 27.3182 1.24337 25.7348 27.3182 1.24337
459 2 25.7925 27.4214 -2.01674 25.7925 27.4214 -2.01674
460 1 26.7138 29.0152 -0.317488 26.7138 29.0152 -0.317488
461 2 28.5654 28.9668 1.36955 28.5654 28.9668 1.36955
462 2 28.6628 29.0637 -1.88983 28.6628 29.0637 -1.88983
463 1 29.5646 27.3692 -0.280582 29.5646 27.3692 -0.280582
464 2 31.4017 27.3153 1.42204 31.4017 27.3153 1.42204
465 2 31.5271 27.423 -1.83599 31.5271 27.423 -1.83599
466 1 32.4137 29.0143 -0.115746 32.4137 29.0143 -0.115746
467 2 34.2443 28.9636 1.59395 34.2443 28.9636 1.59395
468 2 34.3822 29.0648 -1.66375 34.3822 29.0648 -1.66375
469 1 35.2635 27.3679 -0.0457617 35.2635 27.3679 -0.0457617
470 2 37.0966 27.3119 1.661 37.0966 27.3119 1.661
471 2 37.23 27.4237 -1.59651 37.23 27.4237 -1.59651
472 1 38.1126 29.0128 0.127845 38.1126 29.0128 0.127845
473 2 39.9574 28.961 1.82202 39.9574 28.961 1.82202
474 2 40.0685 29.0644 -1.43653 40.0685 29.0644 -1.43653
475 1 40.9635 27.3663 0.172835 40.9635 27.3663 0.172835
476 2 42.8263 27.3096 1.84682 42.8263 27.3096 1.84682
477 2 42.9026 27.4229 -1.41242 42.9026 27.4229 -1.41242
478 1 43.8147 29.0116 0.296863 43.8147 29.0116 0.296863
479 2 45.7017 28.9601 1.9438 45.7017 28.9601 1.9438
480 2 45.7309 29.0631 -1.31647 45.7309 29.0631 -1.31647
481 1 46.6671 27.3655 0.269985 46.6671 27.3655 0.269985
482 2 48.5779 27.3093 1.88886 48.5779 27.3093 1.88886
483 2 48.5594 27.4217 -1.37123 48.5594 27.4217 -1.37123
484 1 49.5196 29.0113 0.310327 49.5196 29.0113 0.310327
485 2 51.4546 28.961 1.90047 51.4546 28.961 1.90047
486 2 51.3871 29.0618 -1.35931 51.3871 29.0618 -1.35931
487 1 1.05927 30.6577 0.30191 1.05927 30.6577 0.30191
488 2 3.0142 30.6158 1.86787 3.0142 30.6158 1.86787
489 2 2.90562 30.6998 -1.39127 2.90562 30.6998 -1.39127
490 1 3.91057 32.3044 0.249251 3.91057 32.3044 0.249251
491 2 5.87899 32.2729 1.79848 5.87899 32.2729 1.79848
492 2 5.74201 32.3362 -1.46011 5.74201 32.3362 -1.46011
493 1 6.76024 30.6586 0.0971968 6.76024 30.6586 0.0971968
494 2 8.73251 30.6188 1.6412 8.73251 30.6188 1.6412
495 2 8.58697 30.6986 -1.61674 8.58697 30.6986 -1.61674
496 1 9.60988 32.3053 0.0103196 9.60988 32.3053 0.0103196
497 2 11.5801 32.2755 1.55716 11.5801 32.2755 1.55716
498 2 11.4385 32.3353 -1.70146 11.4385 32.3353 -1.70146
499 1 12.459 30.6597 -0.143622 12.459 30.6597 -0.143622
500 2 14.4179 30.6212 1.41727 14.4179 30.6212 1.41727
501 2 14.2997 30.6984 -1.84197 14.2997 30.6984 -1.84197
502 1 15.3091 32.3061 -0.207587 15.3091 32.3061 -0.207587
503 2 17.2514 32.2762 1.37424 17.2514 32.2762 1.37424
504 2 17.1675 32.3363 -1.8865 17.1675 32.3363 -1.8865
505 1 18.1596 30.6606 -0.310802 18.1596 30.6606 -0.310802
506 2 20.0799 30.6216 1.29769 20.0799 30.6216 1.29769
507 2 20.0411 30.6998 -1.96351 20.0411 30.6998 -1.96351
508 1 21.011 32.3067 -0.304419 21.011 32.3067 -0.304419
509 2 22.9067 32.2748 1.33306 22.9067 32.2748 1.33306
510 2 22.917 32.3388 -1.92869 22.917 32.3388 -1.92869
511 1 23.8625 30.661 -0.326918 23.8625 30.661 -0.326918
512 2 25.7345 30.6199 1.33755 25.7345 30.6199 1.33755
513 2 25.7919 30.7022 -1.92325 25.7919 30.7022 -1.92325
514 1 26.7133 32.3067 -0.234279 26.7133 32.3067 -0.234279
515 2 28.5644 32.2723 1.45357 28.5644 32.2723 1.45357
516 2 28.6624 32.3412 -1.80655 28.6624 32.3412 -1.80655
517 1 29.5637 30.6606 -0.18251 29.5637 30.6606 -0.18251
518 2 31.4006 30.6172 1.52063 31.4006 30.6172 1.52063
519 2 31.5263 30.7039 -1.73804 31.5263 30.7039 -1.73804
520 1 32.4128 32.306 -0.027946 32.4128 32.306 -0.027946
521 2 34.2434 32.2699 1.68209 34.2434 32.2699 1.68209
522 2 34.3812 32.342 -1.57638 34.3812 32.342 -1.57638
523 1 35.2625 30.6594 0.0567282 35.2625 30.6594 0.0567282
524 2 37.096 30.6146 1.76342 37.096 30.6146 1.76342
525 2 37.2285 30.7041 -1.49478 37.2285 30.7041 -1.49478
526 1 38.1117 32.3049 0.218434 38.1117 32.3049 0.218434
527 2 39.9575 32.2686 1.91208 39.9575 32.2686 1.91208
528 2 40.0669 32.3412 -1.3473 40.0669 32.3412 -1.3473
529 1 40.9627 30.6581 0.277645 40.9627 30.6581 0.277645
530 2 42.827 30.6133 1.95059 42.827 30.6133 1.95059
531 2 42.9008 30.7029 -1.30935 42.9008 30.7029 -1.30935
532 1 43.8143 32.3041 0.387552 43.8143 32.3041 0.387552
533 2 45.7031 32.2686 2.03317 45.7031 32.2686 2.03317
534 2 45.7292 32.3396 -1.22788 45.7292 32.3396 -1.22788
535 1 46.6671 30.6574 0.374391 46.6671 30.6574 0.374391
536 2 48.58 30.6137 1.9915 48.58 30.6137 1.9915
537 2 48.5577 30.7013 -1.26922 48.5577 30.7013 -1.26922