ITEM: TIMESTEP
7000
ITEM: NUMBER OF ATOMS
810
ITEM: BOX BOUNDS pp pp pp
8.5717977111889110e-01 5.2160425228881138e+01
8.3431223577686775e-01 5.0181902764222606e+01
-1.0000000000000000e+01 1.0000000000000000e+01
ITEM: ATOMS id type x y z xu yu zu
1 1 1.06591 1.03862 0.289377 1.06591 1.03862 0.289377
2 2 3.00655 0.918142 1.86872 3.00655 0.918142 1.86872
3 2 2.92731 1.15759 -1.38355 2.92731 1.15759 -1.38355
4 1 3.91833 2.68126 0.340936 3.91833 2.68126 0.340936
5 2 5.88707 2.57907 1.8868 5.88707 2.57907 1.8868
6 2 5.7498 2.78361 -1.36588 5.7498 2.78361 -1.36588
7 1 6.76727 1.03856 0.116709 6.76727 1.03856 0.116709
8 2 8.74543 0.931072 1.64975 8.74543 0.931072 1.64975
9 2 8.58744 1.14676 -1.60144 8.58744 1.14676 -1.60144
10 1 9.61726 2.68361 0.0875624 9.61726 2.68361 0.0875624
11 2 11.6056 2.59417 1.6088 11.6056 2.59417 1.6088
12 2 11.4259 2.77485 -1.64349 11.4259 2.77485 -1.64349
13 1 12.4643 1.04223 -0.161302 12.4643 1.04223 -0.161302
14 2 14.4442 50.2951 1.37046 14.4442 0.947559 1.37046
15 2 14.2822 1.13924 -1.8822 14.2822 1.13924 -1.8822
16 1 15.3136 2.68847 -0.205912 15.3136 2.68847 -0.205912
17 2 17.2836 2.60519 1.33933 17.2836 2.60519 1.33933
18 2 17.1422 2.77479 -1.91563 17.1422 2.77479 -1.91563
19 1 18.1627 1.04778 -0.41513 18.1627 1.04778 -0.41513
20 2 20.1101 50.3058 1.15828 20.1101 0.958178 1.15828
21 2 20.0161 1.14082 -2.09761 20.0161 1.14082 -2.09761
22 1 21.0138 2.69426 -0.404643 21.0138 2.69426 -0.404643
23 2 22.935 2.60575 1.20086 22.935 2.60575 1.20086
24 2 22.8945 2.78646 -2.05632 22.8945 2.78646 -2.05632
25 1 23.8657 1.05346 -0.530703 23.8657 1.05346 -0.530703
26 2 25.7595 0.958161 1.10673 25.7595 0.958161 1.10673
27 2 25.7744 1.15229 -2.14974 25.7744 1.15229 -2.14974
28 1 26.7174 2.69911 -0.41902 26.7174 2.69911 -0.41902
29 2 28.5814 2.59653 1.2519 28.5814 2.59653 1.2519
30 2 28.6548 2.80459 -2.00295 28.6548 2.80459 -2.00295
31 1 29.5694 1.05723 -0.459125 29.5694 1.05723 -0.459125
32 2 31.4127 0.949109 1.23422 31.4127 0.949109 1.23422
33 2 31.5265 1.16735 -2.01868 31.5265 1.16735 -2.01868
34 1 32.4185 2.70065 -0.24865 32.4185 2.70065 -0.24865
35 2 34.2422 2.5829 1.46517 34.2422 2.5829 1.46517
36 2 34.3933 2.81876 -1.78497 34.3933 2.81876 -1.78497
37 1 35.2688 1.05693 -0.235072 35.2688 1.05693 -0.235072
38 2 37.0854 0.935889 1.48589 37.0854 0.935889 1.48589
39 2 37.25 1.17689 -1.7632 37.25 1.17689 -1.7632
40 1 38.1154 2.6972 0.0314348 38.1154 2.6972 0.0314348
41 2 39.9325 2.57139 1.75163 39.9325 2.57139 1.75163
42 2 40.0964 2.82025 -1.4968 40.0964 2.82025 -1.4968
43 1 40.9654 1.05158 0.0492448 40.9654 1.05158 0.0492448
44 2 42.7936 0.92307 1.7571 42.7936 0.92307 1.7571
45 2 42.9362 1.17619 -1.49206 42.9362 1.17619 -1.49206
46 1 43.8134 2.68985 0.302432 43.8134 2.68985 0.302432
47 2 45.666 2.56556 1.98441 45.666 2.56556 1.98441
48 2 45.7626 2.81027 -1.26689 45.7626 2.81027 -1.26689
49 1 46.6652 1.04373 0.262973 46.6652 1.04373 0.262973
50 2 48.5445 0.915347 1.91425 48.5445 0.915347 1.91425
51 2 48.5885 1.1683 -1.33767 48.5885 1.1683 -1.33767
52 1 49.5171 2.68324 0.429364 49.5171 2.68324 0.429364
53 2 51.4326 2.56799 2.03995 51.4326 2.56799 2.03995
54 2 51.4054 2.79636 -1.21379 51.4054 2.79636 -1.21379
55 1 1.06715 4.32572 0.521066 1.06715 4.32572 0.521066
56 2 3.01785 4.23329 2.09073 3.01785 4.23329 2.09073
57 2 2.91922 4.41775 -1.16434 2.91922 4.41775 -1.16434
58 1 3.9199 5.97124 0.528198 3.9199 5.97124 0.528198
59 2 5.89869 5.90652 2.06382 5.89869 5.90652 2.06382
60 2 5.74116 6.03653 -1.19162 5.74116 6.03653 -1.19162
61 1 6.7695 4.32649 0.324312 6.7695 4.32649 0.324312
62 2 8.75748 4.24744 1.84687 8.75748 4.24744 1.84687
63 2 8.57933 4.4067 -1.40644 8.57933 4.4067 -1.40644
64 1 9.61862 5.9734 0.249227 9.61862 5.9734 0.249227
65 2 11.6138 5.91737 1.7633 11.6138 5.91737 1.7633
66 2 11.4196 6.03095 -1.4912 11.4196 6.03095 -1.4912
67 1 12.466 4.33011 0.0220101 12.466 4.33011 0.0220101
68 2 14.4525 4.25821 1.54656 14.4525 4.25821 1.54656
69 2 14.2762 4.40437 -1.70781 14.2762 4.40437 -1.70781
70 1 15.3141 5.97724 -0.0578328 15.3141 5.97724 -0.0578328
71 2 17.2851 5.91872 1.48733 17.2851 5.91872 1.48733
72 2 17.1412 6.03837 -1.76989 17.1412 6.03837 -1.76989
73 1 18.1632 4.33525 -0.243444 18.1632 4.33525 -0.243444
74 2 20.111 4.2593 1.33015 20.111 4.2593 1.33015
75 2 20.0156 4.41457 -1.92731 20.0156 4.41457 -1.92731
76 1 21.0137 5.98206 -0.247787 21.0137 5.98206 -0.247787
77 2 22.9293 5.90937 1.36492 22.9293 5.90937 1.36492
78 2 22.8992 6.05805 -1.89419 22.8992 6.05805 -1.89419
79 1 23.8653 4.34051 -0.348134 23.8653 4.34051 -0.348134
80 2 25.754 4.24994 1.29539 25.754 4.24994 1.29539
81 2 25.7784 4.43444 -1.96178 25.7784 4.43444 -1.96178
82 1 26.7161 5.98607 -0.23274 26.7161 5.98607 -0.23274
83 2 28.5719 5.89328 1.4478 28.5719 5.89328 1.4478
84 2 28.6606 6.08125 -1.80804 28.6606 6.08125 -1.80804
85 1 29.5676 4.34358 -0.248854 29.5676 4.34358 -0.248854
86 2 31.4046 4.23513 1.45131 31.4046 4.23513 1.45131
87 2 31.5299 4.45358 -1.80126 31.5299 4.45358 -1.80126
88 1 32.4154 5.98666 -0.0277474 32.4154 5.98666 -0.0277474
89 2 34.2343 5.87845 1.6918 34.2343 5.87845 1.6918
90 2 34.3942 6.09482 -1.55929 34.3942 6.09482 -1.55929
91 1 35.2655 4.34221 0.00366498 35.2655 4.34221 0.00366498
92 2 37.0801 4.22271 1.72701 37.0801 4.22271 1.72701
93 2 37.2485 4.46034 -1.52206 37.2485 4.46034 -1.52206
94 1 38.1116 5.98277 0.272216 38.1116 5.98277 0.272216
95 2 39.9318 5.87299 1.99056 39.9318 5.87299 1.99056
96 2 40.0902 6.09023 -1.26024 40.0902 6.09023 -1.26024
97 1 40.9622 4.33635 0.301501 40.9622 4.33635 0.301501
98 2 42.7946 4.21825 2.00618 42.7946 4.21825 2.00618
99 2 42.93 4.45112 -1.24456 42.93 4.45112 -1.24456
100 1 43.8111 5.97649 0.538702 43.8111 5.97649 0.538702
101 2 45.6728 5.87874 2.21301 45.6728 5.87874 2.21301
102 2 45.7529 6.07171 -1.04195 45.7529 6.07171 -1.04195
103 1 46.6641 4.32935 0.51117 46.6641 4.32935 0.51117
104 2 48.5516 4.22227 2.15543 48.5516 4.22227 2.15543
105 2 48.5808 4.43391 -1.09929 48.5808 4.43391 -1.09929
106 1 49.5173 5.97193 0.644171 49.5173 5.97193 0.644171
107 2 51.4437 5.89164 2.24463 51.4437 5.89164 2.24463
108 2 51.3957 6.05135 -1.01269 51.3957 6.05135 -1.01269
109 1 1.06805 7.61776 0.68327 1.06805 7.61776 0.68327
110 2 3.0298 7.5691 2.24166 3.0298 7.5691 2.24166
111 2 2.90914 7.66651 -1.01626 2.90914 7.66651 -1.01626
112 1 3.9204 9.2655 0.627223 3.9204 9.2655 0.627223
113 2 5.90784 9.24843 2.15321 5.90784 9.24843 2.15321
114 2 5.73236 9.28267 -1.10367 5.73236 9.28267 -1.10367
115 1 6.7704 7.61861 0.456354 6.7704 7.61861 0.456354
116 2 8.7658 7.58162 1.97112 8.7658 7.58162 1.97112
117 2 8.57218 7.6563 -1.28431 8.57218 7.6563 -1.28431
118 1 9.61828 9.26632 0.325052 9.61828 9.26632 0.325052
119 2 11.6159 9.25296 1.83691 11.6159 9.25296 1.83691
120 2 11.4164 9.28016 -1.41916 11.4164 9.28016 -1.41916
121 1 12.4661 7.62087 0.137181 12.4661 7.62087 0.137181
122 2 14.4542 7.58372 1.66101 14.4542 7.58372 1.66101
123 2 14.2744 7.65957 -1.59564 14.2744 7.65957 -1.59564
124 1 15.3134 9.26815 0.0188357 15.3134 9.26815 0.0188357
125 2 17.2796 9.24436 1.57085 17.2796 9.24436 1.57085
126 2 17.1453 9.29365 -1.68871 17.1453 9.29365 -1.68871
127 1 18.163 7.62443 -0.122547 18.163 7.62443 -0.122547
128 2 20.1055 7.57444 1.45847 20.1055 7.57444 1.45847
129 2 20.0203 7.67713 -1.80153 20.0203 7.67713 -1.80153
130 1 21.0129 9.27144 -0.144304 21.0129 9.27144 -0.144304
131 2 22.9184 9.22689 1.48132 22.9184 9.22689 1.48132
132 2 22.9081 9.31863 -1.78016 22.9081 9.31863 -1.78016
133 1 23.8644 7.62855 -0.198156 23.8644 7.62855 -0.198156
134 2 25.7435 7.5574 1.45718 25.7435 7.5574 1.45718
135 2 25.7861 7.70246 -1.80198 25.7861 7.70246 -1.80198
136 1 26.7142 9.27454 -0.0864521 26.7142 9.27454 -0.0864521
137 2 28.5593 9.20689 1.60693 28.5593 9.20689 1.60693
138 2 28.6682 9.34399 -1.65094 28.6682 9.34399 -1.65094
139 1 29.565 7.63072 -0.0590005 29.565 7.63072 -0.0590005
140 2 31.3941 7.53975 1.65065 31.3941 7.53975 1.65065
141 2 31.5341 7.72272 -1.60357 31.5341 7.72272 -1.60357
142 1 32.4116 9.27474 0.157251 32.4116 9.27474 0.157251
143 2 34.2266 9.19354 1.88254 34.2266 9.19354 1.88254
144 2 34.394 9.35575 -1.37128 34.394 9.35575 -1.37128
145 1 35.2614 7.62892 0.222707 35.2614 7.62892 0.222707
146 2 37.0762 7.5309 1.94744 37.0762 7.5309 1.94744
147 2 37.2445 7.72573 -1.30438 37.2445 7.72573 -1.30438
148 1 38.1077 9.27165 0.469773 38.1077 9.27165 0.469773
149 2 39.9345 9.19523 2.18316 39.9345 9.19523 2.18316
150 2 40.081 9.34658 -1.07177 40.081 9.34658 -1.07177
151 1 40.959 7.62406 0.521912 40.959 7.62406 0.521912
152 2 42.8003 7.5362 2.21921 42.8003 7.5362 2.21921
153 2 42.9195 7.7098 -1.03564 42.9195 7.7098 -1.03564
154 1 43.8095 9.2677 0.715108 43.8095 9.2677 0.715108
155 2 45.6845 9.21149 2.37695 45.6845 9.21149 2.37695
156 2 45.7396 9.32276 -0.88213 45.7396 9.32276 -0.88213
157 1 46.6633 7.61945 0.707145 46.6633 7.61945 0.707145
158 2 48.5632 7.55163 2.33991 48.5632 7.55163 2.33991
159 2 48.569 7.68614 -0.918778 48.569 7.68614 -0.918778
160 1 49.5177 9.26558 0.780933 49.5177 9.26558 0.780933
161 2 51.4569 9.23245 2.36803 51.4569 9.23245 2.36803
162 2 51.3836 9.29848 -0.891906 51.3836 9.29848 -0.891906
163 1 1.06836 10.9136 0.750559 1.06836 10.9136 0.750559
164 2 3.04078 10.915 2.2964 3.04078 10.915 2.2964
165 2 2.8981 10.9118 -0.962028 2.8981 10.9118 -0.962028
166 1 3.91955 12.5614 0.624319 3.91955 12.5614 0.624319
167 2 5.91353 12.5931 2.14151 5.91353 12.5931 2.14151
168 2 5.724 12.5286 -1.11414 5.724 12.5286 -1.11414
169 1 6.76965 10.9133 0.491238 6.76965 10.9133 0.491238
170 2 8.76922 10.9237 2.00099 8.76922 10.9237 2.00099
171 2 8.56662 10.9025 -1.25469 8.56662 10.9025 -1.25469
172 1 9.61625 12.56 0.303538 9.61625 12.56 0.303538
173 2 11.6123 12.5914 1.81729 11.6123 12.5914 1.81729
174 2 11.416 12.528 -1.43852 11.416 12.528 -1.43852
175 1 12.4647 10.9134 0.164656 12.4647 10.9134 0.164656
176 2 14.4491 10.9176 1.69365 14.4491 10.9176 1.69365
177 2 14.2768 10.9098 -1.56435 14.2768 10.9098 -1.56435
178 1 15.3117 12.5598 0.0105989 15.3117 12.5598 0.0105989
179 2 17.2687 12.5761 1.57433 17.2687 12.5761 1.57433
180 2 17.1534 12.5446 -1.68623 17.1534 12.5446 -1.68623
181 1 18.1619 10.9151 -0.0730341 18.1619 10.9151 -0.0730341
182 2 20.0944 10.9004 1.5209 20.0944 10.9004 1.5209
183 2 20.0294 10.9319 -1.74113 20.0294 10.9319 -1.74113
184 1 21.0117 12.562 -0.113013 21.0117 12.562 -0.113013
185 2 22.904 12.5548 1.52861 22.904 12.5548 1.52861
186 2 22.9199 12.5715 -1.73416 22.9199 12.5715 -1.73416
187 1 23.863 10.9183 -0.105865 23.863 10.9183 -0.105865
188 2 25.7296 10.8792 1.56458 25.7296 10.8792 1.56458
189 2 25.7964 10.9596 -1.6965 25.7964 10.9596 -1.6965
190 1 26.712 12.565 -0.00559065 26.712 12.565 -0.00559065
191 2 28.5455 12.5348 1.70148 28.5455 12.5348 1.70148
192 2 28.6765 12.5967 -1.55789 28.6765 12.5967 -1.55789
193 1 29.5619 10.9202 0.0793658 29.5619 10.9202 0.0793658
194 2 31.3829 10.8617 1.79918 31.3829 10.8617 1.79918
195 2 31.5383 10.9793 -1.45737 31.5383 10.9793 -1.45737
196 1 32.408 12.5659 0.276145 32.408 12.5659 0.276145
197 2 34.2202 12.5248 2.00593 34.2202 12.5248 2.00593
198 2 34.3931 12.6068 -1.25054 34.3931 12.6068 -1.25054
199 1 35.2574 10.919 0.386994 35.2574 10.919 0.386994
200 2 37.0746 10.8576 2.11111 37.0746 10.8576 2.11111
201 2 37.2388 10.9796 -1.14436 37.2388 10.9796 -1.14436
202 1 38.1046 12.5645 0.593609 38.1046 12.5645 0.593609
203 2 39.9405 12.5325 2.29898 39.9405 12.5325 2.29898
204 2 40.0704 12.5958 -0.959426 40.0704 12.5958 -0.959426
205 1 40.9565 10.9162 0.67572 40.9565 10.9162 0.67572
206 2 42.8102 10.8712 2.36151 42.8102 10.8712 2.36151
207 2 42.9063 10.9601 -0.897355 42.9063 10.9601 -0.897355
208 1 43.8087 12.563 0.80584 43.8087 12.563 0.80584
209 2 45.699 12.555 2.45139 45.699 12.555 2.45139
210 2 45.7245 12.5703 -0.809815 45.7245 12.5703 -0.809815
211 1 46.6631 10.9141 0.820468 46.6631 10.9141 0.820468
212 2 48.5776 10.8946 2.43768 48.5776 10.8946 2.43768
213 2 48.5549 10.9333 -0.823348 48.5549 10.9333 -0.823348
214 1 49.5179 12.5622 0.820639 49.5179 12.5622 0.820639
215 2 51.4702 12.5792 2.39201 51.4702 12.5792 2.39201
216 2 51.3702 12.5446 -0.867667 51.3702 12.5446 -0.867667
217 1 1.06772 14.2098 0.715854 1.06772 14.2098 0.715854
218 2 3.04929 14.259 2.24905 3.04929 14.259 2.24905
219 2 2.88707 14.1592 -1.00698 2.88707 14.1592 -1.00698
220 1 3.91731 15.8554 0.523429 3.91731 15.8554 0.523429
221 2 5.91518 15.9293 2.03378 5.91518 15.9293 2.03378
222 2 5.71688 15.7792 -1.21859 5.71688 15.7792 -1.21859
223 1 6.7673 14.2075 0.425971 6.7673 14.2075 0.425971
224 2 8.76791 14.2626 1.93324 8.76791 14.2626 1.93324
225 2 8.56279 14.1508 -1.32046 8.56279 14.1508 -1.32046
226 1 9.61296 15.8517 0.190043 9.61296 15.8517 0.190043
227 2 11.6043 15.9226 1.70859 11.6043 15.9226 1.70859
228 2 11.418 15.7796 -1.54528 11.418 15.7796 -1.54528
229 1 12.4621 14.2054 0.100226 12.4621 14.2054 0.100226
230 2 14.4391 14.2511 1.63815 14.4391 14.2511 1.63815
231 2 14.2825 14.1597 -1.61937 14.2825 14.1597 -1.61937
232 1 15.3094 15.8502 -0.0824704 15.3094 15.8502 -0.0824704
233 2 17.2548 15.9055 1.495 17.2548 15.9055 1.495
234 2 17.1638 15.7962 -1.7646 17.1638 15.7962 -1.7646
235 1 18.1604 14.206 -0.105342 18.1604 14.206 -0.105342
236 2 20.0799 14.2311 1.50415 20.0799 14.2311 1.50415
237 2 20.0413 14.1827 -1.75809 20.0413 14.1827 -1.75809
238 1 21.0105 15.8524 -0.1625 21.0105 15.8524 -0.1625
239 2 22.8887 15.886 1.49518 22.8887 15.886 1.49518
240 2 22.9329 15.8213 -1.76668 22.9329 15.8213 -1.76668
241 1 23.8616 14.2091 -0.0894203 23.8616 14.2091 -0.0894203
242 2 25.7146 14.2106 1.59669 25.7146 14.2106 1.59669
243 2 25.8078 14.2096 -1.66473 25.8078 14.2096 -1.66473
244 1 26.7103 15.8563 -0.00700083 26.7103 15.8563 -0.00700083
245 2 28.5327 15.8706 1.71236 28.5327 15.8706 1.71236
246 2 28.6852 15.8438 -1.5465 28.6852 15.8438 -1.5465
247 1 29.5591 14.2118 0.141666 29.5591 14.2118 0.141666
248 2 31.3724 14.1966 1.87064 31.3724 14.1966 1.87064
249 2 31.5426 14.2278 -1.3871 31.5426 14.2278 -1.3871
250 1 32.4053 15.859 0.307642 32.4053 15.859 0.307642
251 2 34.2156 15.8657 2.0401 34.2156 15.8657 2.0401
252 2 34.3925 15.8526 -1.21709 34.3925 15.8526 -1.21709
253 1 35.2542 14.2124 0.470142 35.2542 14.2124 0.470142
254 2 37.0752 14.1972 2.19146 37.0752 14.1972 2.19146
255 2 37.2327 14.227 -1.06638 37.2327 14.227 -1.06638
256 1 38.1028 15.8599 0.624168 38.1028 15.8599 0.624168
257 2 39.948 15.8767 2.31978 39.948 15.8767 2.31978
258 2 40.0605 15.8423 -0.939648 40.0605 15.8423 -0.939648
259 1 40.955 14.2117 0.740377 40.955 14.2117 0.740377
260 2 42.8224 14.2151 2.41186 42.8224 14.2151 2.41186
261 2 42.8926 14.2075 -0.848782 42.8926 14.2075 -0.848782
262 1 43.8086 15.8596 0.798825 43.8086 15.8596 0.798825
263 2 45.7136 15.8995 2.42683 45.7136 15.8995 2.42683
264 2 45.71 15.8185 -0.833519 45.71 15.8185 -0.833519
265 1 46.6633 14.211 0.836537 46.6633 14.211 0.836537
266 2 48.5926 14.2405 2.43591 48.5926 14.2405 2.43591
267 2 48.54 14.1806 -0.82445 48.54 14.1806 -0.82445
268 1 49.5176 15.8584 0.760504 49.5176 15.8584 0.760504
269 2 51.4813 15.9207 2.31623 51.4813 15.9207 2.31623
270 2 51.3572 15.7941 -0.940432 51.3572 15.7941 -0.940432
271 1 1.06596 17.5034 0.58781 1.06596 17.5034 0.58781
272 2 3.05382 17.5908 2.11074 3.05382 17.5908 2.11074
273 2 2.87759 17.413 -1.14135 2.87759 17.413 -1.14135
274 1 3.91396 19.1455 0.343286 3.91396 19.1455 0.343286
275 2 5.91253 19.2486 1.85064 5.91253 19.2486 1.85064
276 2 5.71217 19.0392 -1.39843 5.71217 19.0392 -1.39843
277 1 6.76373 17.4984 0.273833 6.76373 17.4984 0.273833
278 2 8.76261 17.5886 1.78153 8.76261 17.5886 1.78153
279 2 8.56094 17.4061 -1.46923 8.56094 17.4061 -1.46923
280 1 9.60911 19.1399 0.0049378 9.60911 19.1399 0.0049378
281 2 11.5939 19.2384 1.5305 11.5939 19.2384 1.5305
282 2 11.4217 19.0406 -1.72123 11.4217 19.0406 -1.72123
283 1 12.459 17.4948 -0.0450247 12.459 17.4948 -0.0450247
284 2 14.4267 17.5751 1.50351 14.4267 17.5751 1.50351
285 2 14.2899 17.4147 -1.75217 14.2899 17.4147 -1.75217
286 1 15.3072 19.1381 -0.245305 15.3072 19.1381 -0.245305
287 2 17.2409 19.2236 1.34545 17.2409 19.2236 1.34545
288 2 17.1747 19.0546 -1.91205 17.1747 19.0546 -1.91205
289 1 18.159 17.4953 -0.21648 18.159 17.4953 -0.21648
290 2 20.065 17.5577 1.40821 20.065 17.5577 1.40821
291 2 20.0541 17.4352 -1.8522 20.0541 17.4352 -1.8522
292 1 21.0099 19.1411 -0.286924 21.0099 19.1411 -0.286924
293 2 22.8755 19.211 1.38409 22.8755 19.211 1.38409
294 2 22.9451 19.0743 -1.87494 22.9451 19.0743 -1.87494
295 1 23.8608 17.4993 -0.155279 23.8608 17.4993 -0.155279
296 2 25.7011 17.5433 1.54433 25.7011 17.5433 1.54433
297 2 25.8192 17.4579 -1.71507 25.8192 17.4579 -1.71507
298 1 26.7098 19.1466 -0.0937473 26.7098 19.1466 -0.0937473
299 2 28.5231 19.2046 1.63451 28.5231 19.2046 1.63451
300 2 28.6934 19.0911 -1.6215 28.6934 19.0911 -1.6215
301 1 29.5576 17.5039 0.114218 29.5576 17.5039 0.114218
302 2 31.3642 17.5361 1.85004 31.3642 17.5361 1.85004
303 2 31.5472 17.473 -1.40647 31.5472 17.473 -1.40647
304 1 32.4045 19.1517 0.243624 32.4045 19.1517 0.243624
305 2 34.2133 19.2062 1.97686 34.2133 19.2062 1.97686
306 2 34.3933 19.098 -1.27836 34.3933 19.098 -1.27836
307 1 35.2526 17.5068 0.456935 35.2526 17.5068 0.456935
308 2 37.0773 17.5409 2.17412 37.0773 17.5409 2.17412
309 2 37.2281 17.4725 -1.08343 37.2281 17.4725 -1.08343
310 1 38.1026 19.1545 0.555177 38.1026 19.1545 0.555177
311 2 39.955 19.2177 2.24157 39.955 19.2177 2.24157
312 2 40.0534 19.0903 -1.01606 40.0534 19.0903 -1.01606
313 1 40.9547 17.5077 0.70599 40.9547 17.5077 0.70599
314 2 42.834 17.5581 2.36315 42.834 17.5581 2.36315
315 2 42.8809 17.4558 -0.896355 42.8809 17.4558 -0.896355
316 1 43.8089 19.1544 0.69571 43.8089 19.1544 0.69571
317 2 45.7251 19.235 2.30862 45.7251 19.235 2.30862
318 2 45.6985 19.0712 -0.948661 45.6985 19.0712 -0.948661
319 1 46.6633 17.5067 0.755021 46.6633 17.5067 0.755021
320 2 48.605 17.579 2.33765 48.605 17.579 2.33765
321 2 48.5267 17.4321 -0.919553 48.5267 17.4321 -0.919553
322 1 49.5165 19.1512 0.612026 49.5165 19.1512 0.612026
323 2 51.4879 19.2478 2.15566 51.4879 19.2478 2.15566
324 2 51.3469 19.051 -1.097 51.3469 19.051 -1.097
325 1 1.06324 20.7926 0.388545 1.06324 20.7926 0.388545
326 2 3.05334 20.9035 1.90647 3.05334 20.9035 1.90647
327 2 2.87148 20.6778 -1.3425 2.87148 20.6778 -1.3425
328 1 3.91017 22.4319 0.114477 3.91017 22.4319 0.114477
329 2 5.9059 22.5468 1.62433 5.9059 22.5468 1.62433
330 2 5.7111 22.3139 -1.62356 5.7111 22.3139 -1.62356
331 1 6.75965 20.7856 0.0615744 6.75965 20.7856 0.0615744
332 2 8.75429 20.8952 1.57339 8.75429 20.8952 1.57339
333 2 8.56156 20.674 -1.67552 8.56156 20.674 -1.67552
334 1 9.60548 22.4257 -0.21941 9.60548 22.4257 -0.21941
335 2 11.5828 22.5343 1.3151 11.5828 22.5343 1.3151
336 2 11.4268 22.3169 -1.93611 11.4268 22.3169 -1.93611
337 1 12.4559 20.7814 -0.245743 12.4559 20.7814 -0.245743
338 2 14.4142 20.8823 1.31367 14.4142 20.8823 1.31367
339 2 14.2978 20.6816 -1.94042 14.2978 20.6816 -1.94042
340 1 15.3055 22.4241 -0.448923 15.3055 22.4241 -0.448923
341 2 17.2295 22.5243 1.15292 17.2295 22.5243 1.15292
342 2 17.184 22.3267 -2.1031 17.184 22.3267 -2.1031
343 1 18.158 20.7824 -0.38799 18.158 20.7824 -0.38799
344 2 20.0527 20.8716 1.24907 20.0527 20.8716 1.24907
345 2 20.0654 20.6964 -2.00871 20.0654 20.6964 -2.00871
346 1 21.0101 22.4277 -0.464478 21.0101 22.4277 -0.464478
347 2 22.8671 22.5216 1.21517 22.8671 22.5216 1.21517
348 2 22.9543 22.3378 -2.04089 22.9543 22.3378 -2.04089
349 1 23.8609 20.7875 -0.293995 23.8609 20.7875 -0.293995
350 2 25.6918 20.8672 1.41479 25.6918 20.8672 1.41479
351 2 25.8288 20.7114 -1.84109 25.8288 20.7114 -1.84109
352 1 26.7108 22.4345 -0.251677 26.7108 22.4345 -0.251677
353 2 28.5188 22.5264 1.48075 28.5188 22.5264 1.48075
354 2 28.6996 22.346 -1.77154 28.6996 22.346 -1.77154
355 1 29.5578 20.7941 -0.000863939 29.5578 20.7941 -0.000863939
356 2 31.3598 20.8694 1.73855 31.3598 20.8694 1.73855
357 2 31.5519 20.721 -1.5146 31.5519 20.721 -1.5146
358 1 32.4057 22.4416 0.0932204 32.4057 22.4416 0.0932204
359 2 34.2135 22.5353 1.82563 34.2135 22.5353 1.82563
360 2 34.3953 22.3493 -1.426 34.3953 22.3493 -1.426
361 1 35.2529 20.7994 0.347329 35.2529 20.7994 0.347329
362 2 37.0799 20.8776 2.06039 37.0799 20.8776 2.06039
363 2 37.2262 20.7209 -1.19437 37.2262 20.7209 -1.19437
364 1 38.1038 22.4458 0.396644 38.1038 22.4458 0.396644
365 2 39.9599 22.5451 2.07674 39.9599 22.5451 2.07674
366 2 40.0506 22.345 -1.17762 40.0506 22.345 -1.17762
367 1 40.9553 20.801 0.577327 40.9553 20.801 0.577327
368 2 42.8425 20.8903 2.22342 42.8425 20.8903 2.22342
369 2 42.8733 20.7093 -1.03302 42.8733 20.7093 -1.03302
370 1 43.8093 22.445 0.512783 43.8093 22.445 0.512783
371 2 45.7311 22.5532 2.11664 45.7311 22.5532 2.11664
372 2 45.692 22.333 -1.13744 45.692 22.333 -1.13744
373 1 46.663 20.7985 0.589528 46.663 20.7985 0.589528
374 2 48.6123 20.9015 2.16041 48.6123 20.9015 2.16041
375 2 48.5172 20.6917 -1.09312 48.5172 20.6917 -1.09312
376 1 49.5147 22.4395 0.399683 49.5147 22.4395 0.399683
377 2 51.4888 22.5546 1.93798 51.4888 22.5546 1.93798
378 2 51.341 22.32 -1.3121 51.341 22.32 -1.3121
379 1 1.0602 24.0784 0.150871 1.0602 24.0784 0.150871
380 2 3.04785 24.1946 1.67098 3.04785 24.1946 1.67098
381 2 2.87025 23.9583 -1.57766 2.87025 23.9583 -1.57766
382 1 3.90686 25.717 -0.125143 3.90686 25.717 -0.125143
383 2 5.89623 25.8246 1.39316 5.89623 25.8246 1.39316
384 2 5.71447 25.6071 -1.85664 5.71447 25.6071 -1.85664
385 1 6.75593 24.0709 -0.174629 6.75593 24.0709 -0.174629
386 2 8.74416 24.1811 1.34536 8.74416 24.1811 1.34536
387 2 8.56507 23.9595 -1.90429 8.56507 23.9595 -1.90429
388 1 9.60279 25.7115 -0.444205 9.60279 25.7115 -0.444205
389 2 11.5726 25.8111 1.10053 11.5726 25.8111 1.10053
390 2 11.4328 25.6126 -2.1525 11.4328 25.6126 -2.1525
391 1 12.4535 24.0671 -0.466187 12.4535 24.0671 -0.466187
392 2 14.4037 24.1702 1.10337 14.4037 24.1702 1.10337
393 2 14.3049 23.9658 -2.15089 14.3049 23.9658 -2.15089
394 1 15.3045 25.7106 -0.656118 15.3045 25.7106 -0.656118
395 2 17.2225 25.8068 0.953411 17.2225 25.8068 0.953411
396 2 17.1901 25.6174 -2.30301 17.1901 25.6174 -2.30301
397 1 18.1575 24.0685 -0.588294 18.1575 24.0685 -0.588294
398 2 20.0451 24.1676 1.05674 20.0451 24.1676 1.05674
399 2 20.0731 23.973 -2.19958 20.0731 23.973 -2.19958
400 1 21.0106 25.7141 -0.661512 21.0106 25.7141 -0.661512
401 2 22.865 25.8138 1.02104 22.865 25.8138 1.02104
402 2 22.9584 25.6184 -2.23392 22.9584 25.6184 -2.23392
403 1 23.862 24.0739 -0.480104 23.862 24.0739 -0.480104
404 2 25.6887 24.1745 1.23225 25.6887 24.1745 1.23225
405 2 25.8345 23.9775 -2.02081 25.8345 23.9775 -2.02081
406 1 26.7128 25.7206 -0.451123 26.7128 25.7206 -0.451123
407 2 28.521 25.8292 1.28027 28.521 25.8292 1.28027
408 2 28.7021 25.6157 -1.96987 28.7021 25.6157 -1.96987
409 1 29.5597 24.0815 -0.183653 29.5597 24.0815 -0.183653
410 2 31.3602 24.1868 1.55572 31.3602 24.1868 1.55572
411 2 31.5554 23.9792 -1.69397 31.5554 23.9792 -1.69397
412 1 32.4085 25.7281 -0.11702 32.4085 25.7281 -0.11702
413 2 34.2167 25.8446 1.61338 34.2167 25.8446 1.61338
414 2 34.3977 25.6136 -1.63547 34.3977 25.6136 -1.63547
415 1 35.255 24.0881 0.158914 35.255 24.0881 0.158914
416 2 37.0826 24.1977 1.86915 37.0826 24.1977 1.86915
417 2 37.2272 23.9786 -1.38222 37.2272 23.9786 -1.38222
418 1 38.1061 25.7329 0.174799 38.1061 25.7329 0.174799
419 2 39.9621 25.8521 1.8531 39.9621 25.8521 1.8531
420 2 40.052 25.6122 -1.39883 40.052 25.6122 -1.39883
421 1 40.9566 24.09 0.374784 40.9566 24.09 0.374784
422 2 42.8462 24.2037 2.01581 42.8462 24.2037 2.01581
423 2 42.871 23.9732 -1.23782 42.871 23.9732 -1.23782
424 1 43.8097 25.7316 0.279492 43.8097 25.7316 0.279492
425 2 45.7307 25.85 1.88262 45.7307 25.85 1.88262
426 2 45.6917 25.6088 -1.37028 45.6917 25.6088 -1.37028
427 1 46.6622 24.086 0.366699 46.6622 24.086 0.366699
428 2 48.6131 24.2031 1.93383 48.6131 24.2031 1.93383
429 2 48.5134 23.9643 -1.31784 48.5134 23.9643 -1.31784
430 1 49.5127 25.725 0.157801 49.5127 25.725 0.157801
431 2 51.4837 25.8399 1.69925 51.4837 25.8399 1.69925
432 2 51.3411 25.6056 -1.55134 51.3411 25.6056 -1.55134
433 1 1.05769 27.3636 -0.086651 1.05769 27.3636 -0.086651
434 2 3.03829 27.4662 1.44295 3.03829 27.4662 1.44295
435 2 2.87469 27.2579 -1.80852 2.87469 27.2579 -1.80852
436 1 3.90481 29.0038 -0.336477 3.90481 29.0038 -0.336477
437 2 5.88495 29.0864 1.19495 5.88495 29.0864 1.19495
438 2 5.72225 28.92 -2.05896 5.72225 28.92 -2.05896
439 1 6.75337 27.3572 -0.395324 6.75337 27.3572 -0.395324
440 2 8.73356 27.4493 1.13607 8.73356 27.4493 1.13607
441 2 8.57145 27.2647 -2.11676 8.57145 27.2647 -2.11676
442 1 9.60149 29 -0.631489 9.60149 29 -0.631489
443 2 11.5644 29.0737 0.923311 11.5644 29.0737 0.923311
444 2 11.4392 28.9276 -2.33301 11.4392 28.9276 -2.33301
445 1 12.4522 27.3545 -0.667518 12.4522 27.3545 -0.667518
446 2 14.3965 27.4414 0.910326 14.3965 27.4414 0.910326
447 2 14.3103 27.2697 -2.34601 14.3103 27.2697 -2.34601
448 1 15.3041 28.9997 -0.829971 15.3041 28.9997 -0.829971
449 2 17.2203 29.0748 0.782903 17.2203 29.0748 0.782903
450 2 17.1922 28.9274 -2.47554 17.1922 28.9274 -2.47554
451 1 18.1575 27.3559 -0.780054 18.1575 27.3559 -0.780054
452 2 20.0433 27.4464 0.867705 20.0433 27.4464 0.867705
453 2 20.0758 27.2689 -2.38931 20.0758 27.2689 -2.38931
454 1 21.0112 29.0024 -0.841 21.0112 29.0024 -0.841
455 2 22.8691 29.0894 0.838499 22.8691 29.0894 0.838499
456 2 22.9565 28.9186 -2.41781 22.9565 28.9186 -2.41781
457 1 23.8633 27.3605 -0.677822 23.8633 27.3605 -0.677822
458 2 25.6923 27.4627 1.03218 25.6923 27.4627 1.03218
459 2 25.8347 27.2621 -2.22063 25.8347 27.2621 -2.22063
460 1 26.715 29.0073 -0.653912 26.715 29.0073 -0.653912
461 2 28.5291 29.1123 1.07144 28.5291 29.1123 1.07144
462 2 28.6995 28.9055 -2.1796 28.6995 28.9055 -2.1796
463 1 29.5626 27.3672 -0.399759 29.5626 27.3672 -0.399759
464 2 31.3659 27.483 1.336 31.3659 27.483 1.336
465 2 31.5562 27.2546 -1.91255 31.5562 27.2546 -1.91255
466 1 32.4122 29.0135 -0.348281 32.4122 29.0135 -0.348281
467 2 34.2228 29.132 1.37902 34.2228 29.132 1.37902
468 2 34.3988 28.897 -1.8699 34.3988 28.897 -1.8699
469 1 35.2583 27.3737 -0.0751679 35.2583 27.3737 -0.0751679
470 2 37.0856 27.4959 1.63408 37.0856 27.4959 1.63408
471 2 37.2301 27.252 -1.61571 37.2301 27.252 -1.61571
472 1 38.109 29.0178 -0.0722632 38.109 29.0178 -0.0722632
473 2 39.9618 29.1371 1.6089 39.9618 29.1371 1.6089
474 2 40.0568 28.8975 -1.64316 40.0568 28.8975 -1.64316
475 1 40.9583 27.3755 0.131751 40.9583 27.3755 0.131751
476 2 42.8449 27.4953 1.77489 42.8449 27.4953 1.77489
477 2 42.8742 27.2528 -1.47813 42.8742 27.2528 -1.47813
478 1 43.8103 29.0164 0.0338352 43.8103 29.0164 0.0338352
479 2 45.7246 29.1261 1.64481 45.7246 29.1261 1.64481
480 2 45.6977 28.903 -1.60981 45.6977 28.903 -1.60981
481 1 46.6615 27.3711 0.122398 46.6615 27.3711 0.122398
482 2 48.6075 27.4836 1.69492 48.6075 27.4836 1.69492
483 2 48.5163 27.2542 -1.55798 48.5163 27.2542 -1.55798
484 1 49.5113 29.0103 -0.0747216 49.5113 29.0103 -0.0747216
485 2 51.4737 29.1066 1.47805 51.4737 29.1066 1.47805
486 2 51.3478 28.9106 -1.776 51.3478 28.9106 -1.776
487 1 1.05642 30.6509 -0.285526 1.05642 30.6509 -0.285526
488 2 3.02622 30.723 1.25909 3.02622 30.723 1.25909
489 2 2.88452 30.577 -1.99694 2.88452 30.577 -1.99694
490 1 3.90444 32.294 -0.484803 3.90444 32.294 -0.484803
491 2 5.87384 32.3377 1.06157 5.87384 32.3377 1.06157
492 2 5.73322 32.2499 -2.19651 5.73322 32.2499 -2.19651
493 1 6.75244 30.6467 -0.564215 6.75244 30.6467 -0.564215
494 2 8.72393 30.7055 0.979709 8.72393 30.7055 0.979709
495 2 8.57994 30.5882 -2.27711 8.57994 30.5882 -2.27711
496 1 9.60164 32.2921 -0.750498 9.60164 32.2921 -0.750498
497 2 11.5593 32.3277 0.812064 11.5593 32.3277 0.812064
498 2 11.4449 32.2576 -2.44715 11.4449 32.2576 -2.44715
499 1 12.4519 30.6453 -0.815634 12.4519 30.6453 -0.815634
500 2 14.3932 30.7013 0.767288 14.3932 30.7013 0.767288
501 2 14.3135 30.5912 -2.49177 14.3135 30.5912 -2.49177
502 1 15.3043 32.2923 -0.941315 15.3043 32.2923 -0.941315
503 2 17.2228 32.3338 0.669904 17.2228 32.3338 0.669904
504 2 17.1902 32.2525 -2.59072 17.1902 32.2525 -2.59072
505 1 18.1576 30.6464 -0.929121 18.1576 30.6464 -0.929121
506 2 20.0469 30.7124 0.715789 20.0469 30.7124 0.715789
507 2 20.0729 30.583 -2.54338 20.0729 30.583 -2.54338
508 1 21.0116 32.2938 -0.971543 21.0116 32.2938 -0.971543
509 2 22.8781 32.3535 0.699408 22.8781 32.3535 0.699408
510 2 22.9489 32.2362 -2.55953 22.9489 32.2362 -2.55953
511 1 23.8645 30.6494 -0.850384 23.8645 30.6494 -0.850384
512 2 25.7016 30.7347 0.851762 25.7016 30.7347 0.851762
513 2 25.8289 30.5669 -2.40337 25.8289 30.5669 -2.40337
514 1 26.7167 32.2967 -0.823441 26.7167 32.2967 -0.823441
515 2 28.5415 32.3799 0.89168 28.5415 32.3799 0.89168
516 2 28.6919 32.2158 -2.36269 28.6919 32.2158 -2.36269
517 1 29.5656 30.654 -0.60886 29.5656 30.654 -0.60886
518 2 31.3759 30.7595 1.12007 31.3759 30.7595 1.12007
519 2 31.5531 30.5513 -2.13055 31.5531 30.5513 -2.13055
520 1 32.4157 32.3006 -0.558952 32.4157 32.3006 -0.558952
521 2 34.2312 32.4006 1.16415 34.2312 32.4006 1.16415
522 2 34.3978 32.2025 -2.08777 34.3978 32.2025 -2.08777
523 1 35.262 30.659 -0.313165 35.262 30.659 -0.313165
524 2 37.0889 30.7727 1.39658 37.0889 30.7727 1.39658
525 2 37.2334 30.5461 -1.85461 37.2334 30.5461 -1.85461
526 1 38.1122 32.3037 -0.301933 38.1122 32.3037 -0.301933
527 2 39.9599 32.4027 1.38568 39.9599 32.4027 1.38568
528 2 40.064 32.2043 -1.86907 40.064 32.2043 -1.86907
529 1 40.9603 30.6605 -0.11108 40.9603 30.6605 -0.11108
530 2 42.8396 30.7665 1.54073 42.8396 30.7665 1.54073
531 2 42.8821 30.5523 -1.7144 42.8821 30.5523 -1.7144
532 1 43.8114 32.3027 -0.183441 43.8114 32.3027 -0.183441
533 2 45.7141 32.3852 1.44216 45.7141 32.3852 1.44216
534 2 45.7094 32.2177 -1.81615 45.7094 32.2177 -1.81615
535 1 46.6613 30.6568 -0.103784 46.6613 30.6568 -0.103784
536 2 48.5969 30.7463 1.48223 48.5969 30.7463 1.48223
537 2 48.5258 30.564 -1.77441 48.5258 30.564 -1.77441
538 1 49.511 32.2982 -0.259813 49.511 32.2982 -0.259813
539 2 51.4606 32.3596 1.31004 51.4606 32.3596 1.31004
540 2 51.3602 32.2347 -1.94858 51.3602 32.2347 -1.94858
541 1 1.05666 33.9416 -0.412525 1.05666 33.9416 -0.412525