ITEM: TIMESTEP
40000
ITEM: NUMBER OF ATOMS
810
ITEM: BOX BOUNDS pp pp pp
8.5634401072207600e-01 5.2161260989276954e+01
8.0968086013343565e-01 5.0206534139866662e+01
-1.0000000000000000e+01 1.0000000000000000e+01
ITEM: ATOMS id type x y z xu yu zu
1 1 1.06291 1.02408 0.170577 1.06291 1.02408 0.170577
2 2 3.02224 1.02563 1.73103 3.02224 1.02563 1.73103
3 2 2.90382 1.02254 -1.52899 2.90382 1.02254 -1.52899
4 1 3.91303 2.67067 0.0648153 3.91303 2.67067 0.0648153
5 2 5.88768 2.67357 1.60589 5.88768 2.67357 1.60589
6 2 5.73701 2.66778 -1.6528 5.73701 2.66778 -1.6528
7 1 6.76203 1.02407 -0.0645399 6.76203 1.02407 -0.0645399
8 2 8.74244 1.02633 1.46923 8.74244 1.02633 1.46923
9 2 8.57948 1.0218 -1.78888 8.57948 1.0218 -1.78888
10 1 9.61037 2.67061 -0.20968 9.61037 2.67061 -0.20968
11 2 11.5874 2.67421 1.32858 11.5874 2.67421 1.32858
12 2 11.4316 2.66698 -1.92987 11.4316 2.66698 -1.92987
13 1 12.4592 1.024 -0.342442 12.4592 1.024 -0.342442
14 2 14.4239 1.02667 1.21172 14.4239 1.02667 1.21172
15 2 14.294 1.02128 -2.04788 14.294 1.02128 -2.04788
16 1 15.3089 2.6705 -0.458656 15.3089 2.6705 -0.458656
17 2 17.2541 2.67403 1.12011 17.2541 2.67403 1.12011
18 2 17.1649 2.66694 -2.14085 17.1649 2.66694 -2.14085
19 1 18.1599 1.02391 -0.532691 18.1599 1.02391 -0.532691
20 2 20.0805 1.02646 1.07606 20.0805 1.02646 1.07606
21 2 20.0417 1.02135 -2.18589 20.0417 1.02135 -2.18589
22 1 21.0118 2.67046 -0.568723 21.0118 2.67046 -0.568723
23 2 22.905 2.67294 1.0723 22.905 2.67294 1.0723
24 2 22.9213 2.668 -2.18983 22.9213 2.668 -2.18983
25 1 23.8638 1.02391 -0.551394 23.8638 1.02391 -0.551394
26 2 25.7307 1.02573 1.11951 25.7307 1.02573 1.11951
27 2 25.7988 1.02212 -2.14196 25.7988 1.02212 -2.14196
28 1 26.7152 2.67052 -0.493119 26.7152 2.67052 -0.493119
29 2 28.5588 2.6714 1.20351 28.5588 2.6714 1.20351
30 2 28.6721 2.6697 -2.0567 28.6721 2.6697 -2.0567
31 1 29.5655 1.02398 -0.392594 29.5655 1.02398 -0.392594
32 2 31.3929 1.02484 1.3214 31.3929 1.02484 1.3214
33 2 31.5371 1.02315 -1.9376 31.5371 1.02315 -1.9376
34 1 32.4147 2.6706 -0.266829 32.4147 2.6706 -0.266829
35 2 34.2337 2.67013 1.45592 34.2337 2.67013 1.45592
36 2 34.3938 2.67107 -1.80234 34.3938 2.67107 -1.80234
37 1 35.2633 1.02404 -0.126947 35.2633 1.02404 -0.126947
38 2 37.0843 1.0242 1.59351 37.0843 1.0242 1.59351
39 2 37.2405 1.02388 -1.66494 37.2405 1.02388 -1.66494
40 1 38.1119 2.67061 0.0097016 38.1119 2.67061 0.0097016
41 2 39.9445 2.66988 1.71762 39.9445 2.66988 1.71762
42 2 40.0787 2.67131 -1.54181 40.0787 2.67131 -1.54181
43 1 40.9616 1.02405 0.126295 40.9616 1.02405 0.126295
44 2 42.8145 1.02419 1.81194 42.8145 1.02419 1.81194
45 2 42.9096 1.02391 -1.44886 42.9096 1.02391 -1.44886
46 1 43.8124 2.6706 0.209087 43.8124 2.6706 0.209087
47 2 45.6922 2.67083 1.86471 45.6922 2.67083 1.86471
48 2 45.7351 2.67039 -1.39719 45.7351 2.67039 -1.39719
49 1 46.6643 1.02406 0.246404 46.6643 1.02406 0.246404
50 2 48.573 1.02479 1.86845 48.573 1.02479 1.86845
51 2 48.5584 1.02334 -1.39369 48.5584 1.02334 -1.39369
52 1 49.5164 2.67064 0.232274 49.5164 2.67064 0.232274
53 2 51.4532 2.67232 1.82062 51.4532 2.67232 1.82062
54 2 51.3815 2.66901 -1.44076 51.3815 2.66901 -1.44076
55 1 1.06286 4.31725 0.167236 1.06286 4.31725 0.167236
56 2 3.0228 4.32015 1.72691 3.0228 4.32015 1.72691
57 2 2.9031 4.31438 -1.53307 2.9031 4.31438 -1.53307
58 1 3.9129 5.96384 0.0589913 3.9129 5.96384 0.0589913
59 2 5.88822 5.96796 1.59918 5.88822 5.96796 1.59918
60 2 5.73611 5.9597 -1.65944 5.73611 5.9597 -1.65944
61 1 6.76189 4.31723 -0.0704002 6.76189 4.31723 -0.0704002
62 2 8.74267 4.32141 1.4629 8.74267 4.32141 1.4629
63 2 8.57895 4.31303 -1.79516 8.57895 4.31303 -1.79516
64 1 9.61015 5.96374 -0.218162 9.61015 5.96374 -0.218162
65 2 11.5875 5.96891 1.31978 11.5875 5.96891 1.31978
66 2 11.4311 5.95851 -1.93863 11.4311 5.95851 -1.93863
67 1 12.459 4.31711 -0.349764 12.459 4.31711 -0.349764
68 2 14.4238 4.32165 1.20436 14.4238 4.32165 1.20436
69 2 14.2939 4.31252 -2.05522 14.2939 4.31252 -2.05522
70 1 15.3087 5.9636 -0.467923 15.3087 5.9636 -0.467923
71 2 17.2535 5.9684 1.11137 17.2535 5.9684 1.11137
72 2 17.1652 5.95878 -2.1496 17.1652 5.95878 -2.1496
73 1 18.1598 4.31701 -0.539895 18.1598 4.31701 -0.539895
74 2 20.0799 4.32064 1.06948 20.0799 4.32064 1.06948
75 2 20.0422 4.3134 -2.19247 20.0422 4.3134 -2.19247
76 1 21.0117 5.96358 -0.576092 21.0117 5.96358 -0.576092
77 2 22.9038 5.96638 1.06626 22.9038 5.96638 1.06626
78 2 22.9224 5.96084 -2.19585 22.9224 5.96084 -2.19585
79 1 23.8638 4.31705 -0.556437 23.8638 4.31705 -0.556437
80 2 25.7298 4.31862 1.11553 25.7298 4.31862 1.11553
81 2 25.7997 4.31555 -2.1459 25.7997 4.31555 -2.1459
82 1 26.7152 5.96368 -0.496285 26.7152 5.96368 -0.496285
83 2 28.5574 5.96362 1.20186 28.5574 5.96362 1.20186
84 2 28.6734 5.96381 -2.05825 28.6734 5.96381 -2.05825
85 1 29.5655 4.31715 -0.39435 29.5655 4.31715 -0.39435
86 2 31.392 4.31652 1.32061 31.392 4.31652 1.32061
87 2 31.5379 4.31781 -1.9383 31.5379 4.31781 -1.9383
88 1 32.4146 5.96375 -0.265569 32.4146 5.96375 -0.265569
89 2 34.2327 5.96155 1.45808 34.2327 5.96155 1.45808
90 2 34.3944 5.96594 -1.80009 34.3944 5.96594 -1.80009
91 1 35.2632 4.31718 -0.126004 35.2632 4.31718 -0.126004
92 2 37.0838 4.3155 1.59481 37.0838 4.3155 1.59481
93 2 37.2407 4.31882 -1.6636 37.2407 4.31882 -1.6636
94 1 38.1118 5.96371 0.0130648 38.1118 5.96371 0.0130648
95 2 39.9446 5.96146 1.72075 39.9446 5.96146 1.72075
96 2 40.0784 5.96593 -1.53869 40.0784 5.96593 -1.53869
97 1 40.9615 4.31715 0.127757 40.9615 4.31715 0.127757
98 2 42.8149 4.31624 1.81297 42.8149 4.31624 1.81297
99 2 42.9092 4.31805 -1.44785 42.9092 4.31805 -1.44785
100 1 43.8123 5.9637 0.210961 43.8123 5.9637 0.210961
101 2 45.6931 5.96336 1.86547 45.6931 5.96336 1.86547
102 2 45.7341 5.96407 -1.39646 45.7341 5.96407 -1.39646
103 1 46.6643 4.31718 0.245989 46.6643 4.31718 0.245989
104 2 48.5737 4.31817 1.86718 48.5737 4.31817 1.86718
105 2 48.5576 4.31623 -1.39495 48.5576 4.31623 -1.39495
106 1 49.5164 5.96378 0.230342 49.5164 5.96378 0.230342
107 2 51.4542 5.96592 1.81744 51.4542 5.96592 1.81744
108 2 51.3804 5.96171 -1.4439 51.3804 5.96171 -1.4439
109 1 1.06276 7.61039 0.163008 1.06276 7.61039 0.163008
110 2 3.02381 7.61374 1.72129 3.02381 7.61374 1.72129
111 2 2.9018 7.60709 -1.5386 2.9018 7.60709 -1.5386
112 1 3.91271 9.25697 0.0523006 3.91271 9.25697 0.0523006
113 2 5.88907 9.26135 1.59117 5.88907 9.26135 1.59117
114 2 5.73479 9.25256 -1.66735 5.73479 9.25256 -1.66735
115 1 6.76166 7.61037 -0.0787396 6.76166 7.61037 -0.0787396
116 2 8.74304 7.6155 1.45378 8.74304 7.6155 1.45378
117 2 8.57806 7.60518 -1.80421 8.57806 7.60518 -1.80421
118 1 9.60985 9.25686 -0.228602 9.60985 9.25686 -0.228602
119 2 11.5875 9.2625 1.30893 11.5875 9.2625 1.30893
120 2 11.4305 9.25113 -1.94944 11.4305 9.25113 -1.94944
121 1 12.4587 7.61022 -0.360299 12.4587 7.61022 -0.360299
122 2 14.4234 7.61578 1.19397 14.4234 7.61578 1.19397
123 2 14.2938 7.6046 -2.06561 14.2938 7.6046 -2.06561
124 1 15.3085 9.25671 -0.479284 15.3085 9.25671 -0.479284
125 2 17.2525 9.26177 1.10089 17.2525 9.26177 1.10089
126 2 17.1658 9.25164 -2.16011 17.1658 9.25164 -2.16011
127 1 18.1597 7.61012 -0.549681 18.1597 7.61012 -0.549681
128 2 20.0788 7.61425 1.06096 20.0788 7.61425 1.06096
129 2 20.0432 7.60603 -2.201 20.0432 7.60603 -2.201
130 1 21.0117 9.25671 -0.584503 21.0117 9.25671 -0.584503
131 2 22.9021 9.25926 1.05982 22.9021 9.25926 1.05982
132 2 22.924 9.25424 -2.20226 22.924 9.25424 -2.20226
133 1 23.8638 7.6102 -0.562117 23.8638 7.6102 -0.562117
134 2 25.7281 7.61134 1.11176 25.7281 7.61134 1.11176
135 2 25.8014 7.60914 -2.14958 25.8014 7.60914 -2.14958
136 1 26.7152 9.25684 -0.498605 26.7152 9.25684 -0.498605
137 2 28.5554 9.25582 1.20172 28.5554 9.25582 1.20172
138 2 28.6752 9.25792 -2.05824 28.6752 9.25792 -2.05824
139 1 29.5654 7.61031 -0.394231 29.5654 7.61031 -0.394231
140 2 31.3904 7.60832 1.32233 31.3904 7.60832 1.32233
141 2 31.5392 7.61232 -1.93644 31.5392 7.61232 -1.93644
142 1 32.4144 9.25689 -0.261582 32.4144 9.25689 -0.261582
143 2 34.2314 9.25324 1.46327 34.2314 9.25324 1.46327
144 2 34.3953 9.2605 -1.79478 34.3953 9.2605 -1.79478
145 1 35.263 7.6103 -0.121581 35.263 7.6103 -0.121581
146 2 37.0833 7.607 1.5996 37.0833 7.607 1.5996
147 2 37.2408 7.61355 -1.65877 37.2408 7.61355 -1.65877
148 1 38.1115 9.25681 0.019713 38.1115 9.25681 0.019713
149 2 39.9448 9.25326 1.72689 39.9448 9.25326 1.72689
150 2 40.0777 9.26031 -1.53257 40.0777 9.26031 -1.53257
151 1 40.9613 7.61023 0.132312 40.9613 7.61023 0.132312
152 2 42.8156 7.60824 1.8165 42.8156 7.60824 1.8165
153 2 42.9082 7.61223 -1.44436 42.9082 7.61223 -1.44436
154 1 43.8122 9.25678 0.215064 43.8122 9.25678 0.215064
155 2 45.6944 9.25572 1.86787 45.6944 9.25572 1.86787
156 2 45.7325 9.25791 -1.39408 45.7325 9.25791 -1.39408
157 1 46.6642 7.61028 0.246767 46.6642 7.61028 0.246767
158 2 48.575 7.61101 1.86635 48.575 7.61101 1.86635
159 2 48.5562 7.60964 -1.39577 48.5562 7.60964 -1.39577
160 1 49.5163 9.2569 0.229012 49.5163 9.2569 0.229012
161 2 51.4556 9.25886 1.81428 51.4556 9.25886 1.81428
162 2 51.3787 9.25502 -1.44699 51.3787 9.25502 -1.44699
163 1 1.06263 10.9035 0.159185 1.06263 10.9035 0.159185
164 2 3.02511 10.9066 1.71567 3.02511 10.9066 1.71567
165 2 2.90014 10.9004 -1.5441 2.90014 10.9004 -1.5441
166 1 3.91251 12.5501 0.0461217 3.91251 12.5501 0.0461217
167 2 5.89004 12.5539 1.58349 5.89004 12.5539 1.58349
168 2 5.7333 12.5462 -1.67491 5.7333 12.5462 -1.67491
169 1 6.76139 10.9035 -0.0876114 6.76139 10.9035 -0.0876114
170 2 8.74355 10.9085 1.4439 8.74355 10.9085 1.4439
171 2 8.57693 10.8984 -1.814 8.57693 10.8984 -1.814
172 1 9.60952 12.55 -0.238816 9.60952 12.55 -0.238816
173 2 11.5874 12.5548 1.29838 11.5874 12.5548 1.29838
174 2 11.4299 12.545 -1.95997 11.4299 12.545 -1.95997
175 1 12.4584 10.9033 -0.371822 12.4584 10.9033 -0.371822
176 2 14.4229 10.9086 1.18274 14.4229 10.9086 1.18274
177 2 14.2937 10.898 -2.07685 14.2937 10.898 -2.07685
178 1 15.3082 12.5498 -0.490121 15.3082 12.5498 -0.490121
179 2 17.2514 12.5538 1.09115 17.2514 12.5538 1.09115
180 2 17.1665 12.5459 -2.16988 17.1665 12.5459 -2.16988
181 1 18.1595 10.9032 -0.560012 18.1595 10.9032 -0.560012
182 2 20.0773 10.9069 1.05228 20.0773 10.9069 1.05228
183 2 20.0445 10.8997 -2.20971 20.0445 10.8997 -2.20971
184 1 21.0116 12.5499 -0.591843 21.0116 12.5499 -0.591843
185 2 22.9001 12.5513 1.05466 22.9001 12.5513 1.05466
186 2 22.9259 12.5485 -2.20739 22.9259 12.5485 -2.20739
187 1 23.8638 10.9033 -0.567303 23.8638 10.9033 -0.567303
188 2 25.726 10.9037 1.10898 25.726 10.9037 1.10898
189 2 25.8034 10.9031 -2.15225 25.8034 10.9031 -2.15225
190 1 26.7151 12.55 -0.499264 26.7151 12.55 -0.499264
191 2 28.5531 12.5479 1.2035 28.5531 12.5479 1.2035
192 2 28.6773 12.5521 -2.0563 28.6773 12.5521 -2.0563
193 1 29.5653 10.9035 -0.392196 29.5653 10.9035 -0.392196
194 2 31.3884 10.9003 1.32636 31.3884 10.9003 1.32636
195 2 31.5408 10.9066 -1.93224 31.5408 10.9066 -1.93224
196 1 32.4141 12.55 -0.255253 32.4141 12.55 -0.255253
197 2 34.2299 12.5453 1.47089 34.2299 12.5453 1.47089
198 2 34.3961 12.5546 -1.78703 34.3961 12.5546 -1.78703
199 1 35.2627 10.9034 -0.114252 35.2627 10.9034 -0.114252
200 2 37.0826 10.8989 1.60728 37.0826 10.8989 1.60728
201 2 37.2409 10.9079 -1.65105 37.2409 10.9079 -1.65105
202 1 38.1112 12.5499 0.0288475 38.1112 12.5499 0.0288475
203 2 39.9451 12.5455 1.73532 39.9451 12.5455 1.73532
204 2 40.0768 12.5542 -1.52418 40.0768 12.5542 -1.52418
205 1 40.9611 10.9033 0.139499 40.9611 10.9033 0.139499
206 2 42.8167 10.9004 1.82228 42.8167 10.9004 1.82228
207 2 42.9068 10.9062 -1.43864 42.9068 10.9062 -1.43864
208 1 43.8121 12.5499 0.221025 43.8121 12.5499 0.221025
209 2 45.6961 12.5482 1.87179 45.6961 12.5482 1.87179
210 2 45.7307 12.5516 -1.39019 45.7307 12.5516 -1.39019
211 1 46.6641 10.9034 0.249058 46.6641 10.9034 0.249058
212 2 48.5767 10.9036 1.86657 48.5767 10.9036 1.86657
213 2 48.5543 10.9033 -1.39553 48.5543 10.9033 -1.39553
214 1 49.5162 12.55 0.228743 49.5162 12.55 0.228743
215 2 51.4573 12.5515 1.8119 51.4573 12.5515 1.8119
216 2 51.3769 12.5486 -1.44928 51.3769 12.5486 -1.44928
217 1 1.06251 14.1966 0.156255 1.06251 14.1966 0.156255
218 2 3.02646 14.1991 1.7109 3.02646 14.1991 1.7109
219 2 2.89843 14.1941 -1.54876 2.89843 14.1941 -1.54876
220 1 3.91231 15.8431 0.0410786 3.91231 15.8431 0.0410786
221 2 5.89082 15.846 1.57721 5.89082 15.846 1.57721
222 2 5.73204 15.8402 -1.68109 5.73204 15.8402 -1.68109
223 1 6.76112 14.1966 -0.0954469 6.76112 14.1966 -0.0954469
224 2 8.74397 14.2005 1.43518 8.74397 14.2005 1.43518
225 2 8.57591 14.1926 -1.82265 8.57591 14.1926 -1.82265
226 1 9.60924 15.843 -0.246834 9.60924 15.843 -0.246834
227 2 11.5872 15.846 1.29037 11.5872 15.846 1.29037
228 2 11.4296 15.84 -1.96798 11.4296 15.84 -1.96798
229 1 12.4581 14.1964 -0.381736 12.4581 14.1964 -0.381736
230 2 14.4222 14.2001 1.17334 14.4222 14.2001 1.17334
231 2 14.2939 14.1927 -2.08628 14.2939 14.1927 -2.08628
232 1 15.308 15.843 -0.497632 15.308 15.843 -0.497632
233 2 17.2503 15.8446 1.08484 17.2503 15.8446 1.08484
234 2 17.1674 15.8413 -2.17625 17.1674 15.8413 -2.17625
235 1 18.1594 14.1964 -0.568114 18.1594 14.1964 -0.568114
236 2 20.0757 14.1983 1.04587 20.0757 14.1983 1.04587
237 2 20.0459 14.1946 -2.21613 20.0459 14.1946 -2.21613
238 1 21.0115 15.843 -0.595651 21.0115 15.843 -0.595651
239 2 22.8984 15.8425 1.05276 22.8984 15.8425 1.05276
240 2 22.9275 15.8436 -2.20925 22.9275 15.8436 -2.20925
241 1 23.8637 14.1965 -0.570191 23.8637 14.1965 -0.570191
242 2 25.7239 14.1955 1.10844 25.7239 14.1955 1.10844
243 2 25.8054 14.1976 -2.15269 25.8054 14.1976 -2.15269
244 1 26.715 15.8431 -0.497166 26.715 15.8431 -0.497166
245 2 28.5511 15.8399 1.20769 28.5511 15.8399 1.20769
246 2 28.6789 15.8464 -2.05196 28.6789 15.8464 -2.05196
247 1 29.5651 14.1966 -0.387996 29.5651 14.1966 -0.387996
248 2 31.3864 14.1925 1.33252 31.3864 14.1925 1.33252
249 2 31.5423 14.2007 -1.92591 31.5423 14.2007 -1.92591
250 1 32.4138 15.8431 -0.247017 32.4138 15.8431 -0.247017
251 2 34.2286 15.8379 1.48019 34.2286 15.8379 1.48019
252 2 34.3967 15.8482 -1.77763 34.3967 15.8482 -1.77763
253 1 35.2623 14.1965 -0.104832 35.2623 14.1965 -0.104832
254 2 37.0821 14.1913 1.61694 37.0821 14.1913 1.61694
255 2 37.2407 14.2016 -1.64136 37.2407 14.2016 -1.64136
256 1 38.1108 15.843 0.0393231 38.1108 15.843 0.0393231
257 2 39.9456 15.8384 1.7449 39.9456 15.8384 1.7449
258 2 40.0758 15.8475 -1.51466 40.0758 15.8475 -1.51466
259 1 40.9608 14.1964 0.14842 40.9608 14.1964 0.14842
260 2 42.8179 14.1931 1.82956 42.8179 14.1931 1.82956
261 2 42.9052 14.1997 -1.43144 42.9052 14.1997 -1.43144
262 1 43.8119 15.843 0.227882 43.8119 15.843 0.227882
263 2 45.6979 15.8413 1.87644 45.6979 15.8413 1.87644
264 2 45.7287 15.8447 -1.38557 45.7287 15.8447 -1.38557
265 1 46.6641 14.1965 0.252519 46.6641 14.1965 0.252519
266 2 48.5785 14.1964 1.86776 48.5785 14.1964 1.86776
267 2 48.5523 14.1967 -1.39431 48.5523 14.1967 -1.39431
268 1 49.5161 15.8431 0.229156 49.5161 15.8431 0.229156
269 2 51.4589 15.8443 1.81024 51.4589 15.8443 1.81024
270 2 51.375 15.8419 -1.45085 51.375 15.8419 -1.45085
271 1 1.06237 17.4897 0.153915 1.06237 17.4897 0.153915
272 2 3.02749 17.4916 1.7071 3.02749 17.4916 1.7071
273 2 2.89704 17.4877 -1.55246 2.89704 17.4877 -1.55246
274 1 3.91212 19.1362 0.0371907 3.91212 19.1362 0.0371907
275 2 5.89104 19.1379 1.57281 5.89104 19.1379 1.57281
276 2 5.7314 19.1345 -1.68545 5.7314 19.1345 -1.68545
277 1 6.76088 17.4896 -0.101272 6.76088 17.4896 -0.101272
278 2 8.74399 17.4918 1.42904 8.74399 17.4918 1.42904
279 2 8.57539 17.4873 -1.82877 8.57539 17.4873 -1.82877
280 1 9.60904 19.1361 -0.251399 9.60904 19.1361 -0.251399
281 2 11.5865 19.1367 1.2864 11.5865 19.1367 1.2864
282 2 11.4299 19.1355 -1.972 11.4299 19.1355 -1.972
283 1 12.4579 17.4895 -0.387838 12.4579 17.4895 -0.387838
284 2 14.4214 17.4907 1.16806 14.4214 17.4907 1.16806
285 2 14.2944 17.4884 -2.09163 14.2944 17.4884 -2.09163
286 1 15.3079 19.1361 -0.499969 15.3079 19.1361 -0.499969
287 2 17.2492 19.1351 1.08365 17.2492 19.1351 1.08365
288 2 17.1683 19.1372 -2.17749 17.1683 19.1372 -2.17749
289 1 18.1593 17.4896 -0.571532 18.1593 17.4896 -0.571532
290 2 20.0744 17.4889 1.04389 20.0744 17.4889 1.04389
291 2 20.047 17.4902 -2.21813 20.047 17.4902 -2.21813
292 1 21.0115 19.1362 -0.594388 21.0115 19.1362 -0.594388
293 2 22.8973 19.1336 1.05529 22.8973 19.1336 1.05529
294 2 22.9285 19.1388 -2.2067 22.9285 19.1388 -2.2067
295 1 23.8637 17.4896 -0.569136 23.8637 17.4896 -0.569136
296 2 25.7222 17.487 1.11124 25.7222 17.487 1.11124
297 2 25.8068 17.4923 -2.14981 25.8068 17.4923 -2.14981
298 1 26.7149 19.1362 -0.491791 26.7149 19.1362 -0.491791
299 2 28.5498 19.1322 1.21432 28.5498 19.1322 1.21432
300 2 28.6799 19.1403 -2.04523 28.6799 19.1403 -2.04523
301 1 29.5649 17.4897 -0.381482 29.5649 17.4897 -0.381482
302 2 31.3849 17.485 1.34048 31.3849 17.485 1.34048
303 2 31.5433 17.4943 -1.91783 31.5433 17.4943 -1.91783
304 1 32.4135 19.1362 -0.237705 32.4135 19.1362 -0.237705
305 2 34.2278 19.1313 1.49001 34.2278 19.1313 1.49001
306 2 34.3968 19.141 -1.76776 34.3968 19.141 -1.76776
307 1 35.2619 17.4896 -0.0944117 35.2619 17.4896 -0.0944117
308 2 37.0817 17.4845 1.62731 37.0817 17.4845 1.62731
309 2 37.2403 17.4946 -1.63099 37.2403 17.4946 -1.63099
310 1 38.1105 19.1361 0.0495409 38.1105 19.1361 0.0495409
311 2 39.9463 19.1322 1.75403 39.9463 19.1322 1.75403
312 2 40.0745 19.1399 -1.50561 40.0745 19.1399 -1.50561
313 1 40.9606 17.4895 0.157689 40.9606 17.4895 0.157689
314 2 42.8193 17.4865 1.83705 42.8193 17.4865 1.83705
315 2 42.9034 17.4925 -1.42402 42.9034 17.4925 -1.42402
316 1 43.8118 19.1361 0.234123 43.8118 19.1361 0.234123
317 2 45.6996 19.135 1.88053 45.6996 19.135 1.88053
318 2 45.7267 19.1372 -1.38151 45.7267 19.1372 -1.38151
319 1 46.664 17.4896 0.256114 46.664 17.4896 0.256114
320 2 48.5803 17.4896 1.86912 48.5803 17.4896 1.86912
321 2 48.5503 17.4897 -1.3929 48.5503 17.4897 -1.3929
322 1 49.516 19.1362 0.229309 49.516 19.1362 0.229309
323 2 51.4602 19.1374 1.80869 51.4602 19.1374 1.80869
324 2 51.3734 19.135 -1.45232 51.3734 19.135 -1.45232
325 1 1.06223 20.7827 0.151583 1.06223 20.7827 0.151583
326 2 3.02793 20.7842 1.70404 3.02793 20.7842 1.70404
327 2 2.89626 20.7813 -1.55547 2.89626 20.7813 -1.55547
328 1 3.91195 22.4293 0.0343045 3.91195 22.4293 0.0343045
329 2 5.89057 22.4298 1.57033 5.89057 22.4298 1.57033
330 2 5.73157 22.4287 -1.68797 5.73157 22.4287 -1.68797
331 1 6.76069 20.7827 -0.104718 6.76069 20.7827 -0.104718
332 2 8.74343 20.7831 1.4261 8.74343 20.7831 1.4261
333 2 8.57563 20.7822 -1.83176 8.57563 20.7822 -1.83176
334 1 9.60894 22.4292 -0.252283 9.60894 22.4292 -0.252283
335 2 11.5855 22.4278 1.28666 11.5855 22.4278 1.28666
336 2 11.4308 22.4306 -1.97183 11.4308 22.4306 -1.97183
337 1 12.4578 20.7827 -0.389156 12.4578 20.7827 -0.389156
338 2 14.4204 20.7813 1.16781 14.4204 20.7813 1.16781
339 2 14.2952 20.7841 -2.09194 14.2952 20.7841 -2.09194
340 1 15.3079 22.4293 -0.497155 15.3079 22.4293 -0.497155
341 2 17.2484 22.4261 1.08743 17.2484 22.4261 1.08743
342 2 17.1691 22.4324 -2.17375 17.1691 22.4324 -2.17375
343 1 18.1593 20.7827 -0.569415 18.1593 20.7827 -0.569415
344 2 20.0736 20.7798 1.04698 20.0736 20.7798 1.04698
345 2 20.0478 20.7856 -2.21506 20.0478 20.7856 -2.21506
346 1 21.0114 22.4293 -0.588508 21.0114 22.4293 -0.588508
347 2 22.8968 22.4254 1.06166 22.8968 22.4254 1.06166
348 2 22.9288 22.4332 -2.20033 22.9288 22.4332 -2.20033
349 1 23.8636 20.7828 -0.563834 23.8636 20.7828 -0.563834
350 2 25.7214 20.779 1.11736 25.7214 20.779 1.11736
351 2 25.8074 20.7866 -2.14365 25.8074 20.7866 -2.14365
352 1 26.7147 22.4293 -0.484055 26.7147 22.4293 -0.484055
353 2 28.5494 22.4254 1.22228 28.5494 22.4254 1.22228
354 2 28.6799 22.4332 -2.03727 28.6799 22.4332 -2.03727
355 1 29.5647 20.7827 -0.373313 29.5647 20.7827 -0.373313
356 2 31.3841 20.7784 1.3492 31.3841 20.7784 1.3492
357 2 31.5435 20.787 -1.90906 31.5435 20.787 -1.90906
358 1 32.4133 22.4292 -0.228948 32.4133 22.4292 -0.228948
359 2 34.2278 22.4258 1.49855 34.2278 22.4258 1.49855
360 2 34.3964 22.4327 -1.75925 34.3964 22.4327 -1.75925
361 1 35.2616 20.7826 -0.0846139 35.2616 20.7826 -0.0846139
362 2 37.0819 20.7788 1.63663 37.0819 20.7788 1.63663
363 2 37.2396 20.7865 -1.62171 37.2396 20.7865 -1.62171
364 1 38.1103 22.4292 0.0574463 38.1103 22.4292 0.0574463
365 2 39.9472 22.4271 1.76074 39.9472 22.4271 1.76074
366 2 40.0733 22.4313 -1.49898 40.0733 22.4313 -1.49898
367 1 40.9604 20.7826 0.165466 40.9604 20.7826 0.165466
368 2 42.8206 20.7807 1.84307 42.8206 20.7807 1.84307
369 2 42.9018 20.7845 -1.41807 42.9018 20.7845 -1.41807
370 1 43.8117 22.4292 0.238064 43.8117 22.4292 0.238064
371 2 45.7011 22.4292 1.88269 45.7011 22.4292 1.88269
372 2 45.7251 22.4292 -1.37938 45.7251 22.4292 -1.37938
373 1 46.6639 20.7827 0.258496 46.6639 20.7827 0.258496
374 2 48.5818 20.7832 1.86963 48.5818 20.7832 1.86963
375 2 48.5487 20.7822 -1.39236 48.5487 20.7822 -1.39236
376 1 49.5159 22.4293 0.22833 49.5159 22.4293 0.22833
377 2 51.4609 22.4305 1.8067 51.4609 22.4305 1.8067
378 2 51.3725 22.428 -1.45426 51.3725 22.428 -1.45426
379 1 1.06209 24.0758 0.148992 1.06209 24.0758 0.148992
380 2 3.02766 24.0767 1.70162 3.02766 24.0767 1.70162
381 2 2.89625 24.0749 -1.5579 2.89625 24.0749 -1.5579
382 1 3.91183 25.7223 0.0325088 3.91183 25.7223 0.0325088
383 2 5.88951 25.7218 1.56972 5.88951 25.7218 1.56972
384 2 5.73244 25.7228 -1.68867 5.73244 25.7228 -1.68867
385 1 6.76058 24.0758 -0.105876 6.76058 24.0758 -0.105876
386 2 8.74237 24.0747 1.42617 8.74237 24.0747 1.42617
387 2 8.57657 24.0768 -1.83178 8.57657 24.0768 -1.83178
388 1 9.60894 25.7223 -0.250155 9.60894 25.7223 -0.250155
389 2 11.5844 25.7196 1.29019 11.5844 25.7196 1.29019
390 2 11.432 25.725 -1.96841 11.432 25.725 -1.96841
391 1 12.4578 24.0758 -0.386312 12.4578 24.0758 -0.386312
392 2 14.4195 24.0727 1.1718 14.4195 24.0727 1.1718
393 2 14.2962 24.0789 -2.08802 14.2962 24.0789 -2.08802
394 1 15.308 25.7224 -0.490943 15.308 25.7224 -0.490943
395 2 17.248 25.7185 1.0943 17.248 25.7185 1.0943
396 2 17.1697 25.7264 -2.16691 17.1697 25.7264 -2.16691
397 1 18.1593 24.0759 -0.563068 18.1593 24.0759 -0.563068
398 2 20.0732 24.0718 1.05379 20.0732 24.0718 1.05379
399 2 20.0482 24.0799 -2.20826 20.0482 24.0799 -2.20826
400 1 21.0114 25.7224 -0.58032 21.0114 25.7224 -0.58032
401 2 22.8969 25.7186 1.06967 22.8969 25.7186 1.06967
402 2 22.9286 25.7263 -2.19234 22.9286 25.7263 -2.19234
403 1 23.8635 24.0759 -0.555889 23.8635 24.0759 -0.555889
404 2 25.7214 24.072 1.1252 25.7214 24.072 1.1252
405 2 25.8072 24.0797 -2.13583 25.8072 24.0797 -2.13583
406 1 26.7146 25.7224 -0.476249 26.7146 25.7224 -0.476249
407 2 28.5499 25.7197 1.22938 28.5499 25.7197 1.22938
408 2 28.6791 25.725 -2.03023 28.6791 25.725 -2.03023
409 1 29.5645 24.0758 -0.365324 29.5645 24.0758 -0.365324
410 2 31.3843 24.0729 1.35679 31.3843 24.0729 1.35679
411 2 31.543 24.0787 -1.90151 31.543 24.0787 -1.90151
412 1 32.4131 25.7223 -0.222981 32.4131 25.7223 -0.222981
413 2 34.2284 25.7212 1.50367 34.2284 25.7212 1.50367
414 2 34.3955 25.7234 -1.75422 34.3955 25.7234 -1.75422
415 1 35.2614 24.0757 -0.0775977 35.2614 24.0757 -0.0775977
416 2 37.0824 24.074 1.64283 37.0824 24.074 1.64283
417 2 37.2387 24.0775 -1.61559 37.2387 24.0775 -1.61559
418 1 38.1102 25.7223 0.061 38.1102 25.7223 0.061
419 2 39.948 25.7225 1.7633 39.948 25.7225 1.7633
420 2 40.0723 25.7221 -1.49649 40.0723 25.7221 -1.49649
421 1 40.9602 24.0757 0.169803 40.9602 24.0757 0.169803
422 2 42.8218 24.0756 1.84601 42.8218 24.0756 1.84601
423 2 42.9005 24.076 -1.4152 42.9005 24.076 -1.4152
424 1 43.8116 25.7223 0.238492 43.8116 25.7223 0.238492
425 2 45.7019 25.7235 1.88211 45.7019 25.7235 1.88211
426 2 45.7242 25.7212 -1.37997 45.7242 25.7212 -1.37997
427 1 46.6638 24.0758 0.258598 46.6638 24.0758 0.258598
428 2 48.5828 24.0769 1.86856 48.5828 24.0769 1.86856
429 2 48.5476 24.0747 -1.39341 48.5476 24.0747 -1.39341
430 1 49.5158 25.7224 0.226032 49.5158 25.7224 0.226032
431 2 51.4609 25.7235 1.80431 51.4609 25.7235 1.80431
432 2 51.3723 25.7212 -1.45666 51.3723 25.7212 -1.45666
433 1 1.06199 27.3689 0.146686 1.06199 27.3689 0.146686
434 2 3.02677 27.3688 1.7003 3.02677 27.3688 1.7003
435 2 2.89696 27.3689 -1.5593 2.89696 27.3689 -1.5593
436 1 3.91177 29.0154 0.0325337 3.91177 29.0154 0.0325337
437 2 5.88824 29.0136 1.5713 5.88824 29.0136 1.5713
438 2 5.73371 29.0172 -1.68722 5.73371 29.0172 -1.68722
439 1 6.76054 27.3689 -0.104873 6.76054 27.3689 -0.104873
440 2 8.74111 27.3667 1.42875 8.74111 27.3667 1.42875
441 2 8.57787 27.3711 -1.82934 8.57787 27.3711 -1.82934
442 1 9.60901 29.0155 -0.245747 9.60901 29.0155 -0.245747
443 2 11.5835 29.0121 1.29582 11.5835 29.0121 1.29582
444 2 11.4331 29.0189 -1.96288 11.4331 29.0189 -1.96288
445 1 12.4579 27.3689 -0.380852 12.4579 27.3689 -0.380852
446 2 14.4188 27.3652 1.17822 14.4188 27.3652 1.17822
447 2 14.2971 27.3726 -2.08167 14.2971 27.3726 -2.08167
448 1 15.3081 29.0155 -0.483449 15.3081 29.0155 -0.483449
449 2 17.2479 29.0118 1.10202 17.2479 29.0118 1.10202
450 2 17.17 29.0193 -2.15921 17.17 29.0193 -2.15921
451 1 18.1593 27.369 -0.555043 18.1593 27.369 -0.555043
452 2 20.0732 27.3652 1.0618 20.0732 27.3652 1.0618
453 2 20.0482 27.3728 -2.20026 20.0482 27.3728 -2.20026
454 1 21.0114 29.0156 -0.572528 21.0114 29.0156 -0.572528
455 2 22.8975 29.0128 1.07674 22.8975 29.0128 1.07674
456 2 22.928 29.0182 -2.1853 22.928 29.0182 -2.1853
457 1 23.8634 27.369 -0.548026 23.8634 27.369 -0.548026
458 2 25.722 27.3663 1.13223 25.722 27.3663 1.13223
459 2 25.8064 27.3716 -2.12885 25.8064 27.3716 -2.12885
460 1 26.7146 29.0155 -0.470898 26.7146 29.0155 -0.470898
461 2 28.5511 29.0149 1.23338 28.5511 29.0149 1.23338
462 2 28.6778 29.0159 -2.02634 28.6778 29.0159 -2.02634
463 1 29.5644 27.3689 -0.359919 29.5644 27.3689 -0.359919
464 2 31.3852 27.3683 1.36107 31.3852 27.3683 1.36107
465 2 31.5419 27.3695 -1.89735 31.5419 27.3695 -1.89735
466 1 32.4131 29.0154 -0.221696 32.4131 29.0154 -0.221696
467 2 34.2295 29.0171 1.50379 34.2295 29.0171 1.50379
468 2 34.3945 29.0138 -1.75422 34.3945 29.0138 -1.75422
469 1 35.2614 27.3689 -0.0753516 35.2614 27.3689 -0.0753516
470 2 37.0833 27.3698 1.64418 37.0833 27.3698 1.64418
471 2 37.2379 27.3679 -1.61432 37.2379 27.3679 -1.61432
472 1 38.1103 29.0155 0.0591007 38.1103 29.0155 0.0591007
473 2 39.9485 29.0179 1.76094 39.9485 29.0179 1.76094
474 2 40.072 29.0131 -1.49888 40.072 29.0131 -1.49888
475 1 40.9603 27.3689 0.169458 40.9603 27.3689 0.169458
476 2 42.8224 27.3704 1.84502 42.8224 27.3704 1.84502
477 2 42.8999 27.3674 -1.41622 42.8999 27.3674 -1.41622
478 1 43.8117 29.0155 0.235382 43.8117 29.0155 0.235382
479 2 45.7018 29.0172 1.87913 45.7018 29.0172 1.87913
480 2 45.7243 29.0138 -1.38295 45.7243 29.0138 -1.38295
481 1 46.6638 27.3689 0.256307 46.6638 27.3689 0.256307
482 2 48.5828 27.3702 1.86614 48.5828 27.3702 1.86614
483 2 48.5474 27.3676 -1.39584 48.5474 27.3676 -1.39584
484 1 49.5158 29.0155 0.223342 49.5158 29.0155 0.223342
485 2 51.4601 29.0157 1.80247 51.4601 29.0157 1.80247
486 2 51.3729 29.0152 -1.45855 51.3729 29.0152 -1.45855
487 1 1.06196 30.662 0.146104 1.06196 30.662 0.146104
488 2 3.02556 30.6604 1.70118 3.02556 30.6604 1.70118
489 2 2.89819 30.6635 -1.55851 2.89819 30.6635 -1.55851
490 1 3.91185 32.3085 0.0356097 3.91185 32.3085 0.0356097
491 2 5.88722 32.3052 1.57576 5.88722 32.3052 1.57576
492 2 5.73498 32.3118 -1.68287 5.73498 32.3118 -1.68287
493 1 6.7606 30.662 -0.101347 6.7606 30.662 -0.101347
494 2 8.7401 30.6587 1.43363 8.7401 30.6587 1.43363
495 2 8.57909 30.6652 -1.82457 8.57909 30.6652 -1.82457
496 1 9.60917 32.3086 -0.239196 9.60917 32.3086 -0.239196
497 2 11.5832 32.3047 1.30298 11.5832 32.3047 1.30298
498 2 11.4338 32.3126 -1.95577 11.4338 32.3126 -1.95577
499 1 12.4581 30.6621 -0.373957 12.4581 30.6621 -0.373957
500 2 14.4186 30.6583 1.18556 14.4186 30.6583 1.18556
501 2 14.2976 30.6658 -2.07436 14.2976 30.6658 -2.07436
502 1 15.3082 32.3087 -0.475846 15.3082 32.3087 -0.475846
503 2 17.2483 32.3055 1.10923 17.2483 32.3055 1.10923
504 2 17.1697 32.3118 -2.152 17.1697 32.3118 -2.152
505 1 18.1594 30.6621 -0.547432 18.1594 30.6621 -0.547432
506 2 20.0737 30.6593 1.06887 20.0737 30.6593 1.06887
507 2 20.0478 30.665 -2.1932 20.0478 30.665 -2.1932
508 1 21.0115 32.3087 -0.566731 21.0115 32.3087 -0.566731
509 2 22.8986 32.3075 1.0813 22.8986 32.3075 1.0813
510 2 22.9269 32.3098 -2.18076 22.9269 32.3098 -2.18076
511 1 23.8634 30.6621 -0.542516 23.8634 30.6621 -0.542516
512 2 25.7232 30.6613 1.13638 25.7232 30.6613 1.13638
513 2 25.8052 30.6627 -2.12477 25.8052 30.6627 -2.12477
514 1 26.7146 32.3086 -0.469409 26.7146 32.3086 -0.469409
515 2 28.5527 32.3103 1.23314 28.5527 32.3103 1.23314
516 2 28.6764 32.3068 -2.0267 28.6764 32.3068 -2.0267
517 1 29.5644 30.662 -0.358844 29.5644 30.662 -0.358844
518 2 31.3867 30.6639 1.36061 31.3867 30.6639 1.36061
519 2 31.5406 30.66 -1.89794 31.5406 30.66 -1.89794
520 1 32.4133 32.3085 -0.225652 32.4133 32.3085 -0.225652
521 2 34.2308 32.3126 1.49867 34.2308 32.3126 1.49867
522 2 34.3937 32.3045 -1.75944 34.3937 32.3045 -1.75944
523 1 35.2616 30.662 -0.0787162 35.2616 30.662 -0.0787162
524 2 37.084 30.6654 1.64015 37.084 30.6654 1.64015
525 2 37.2375 30.6586 -1.61841 37.2375 30.6586 -1.61841
526 1 38.1105 32.3086 0.052183 38.1105 32.3086 0.052183
527 2 39.9485 32.3126 1.75436 39.9485 32.3126 1.75436
528 2 40.0726 32.3048 -1.50544 40.0726 32.3048 -1.50544
529 1 40.9604 30.6621 0.164587 40.9604 30.6621 0.164587
530 2 42.8221 30.6647 1.84056 42.8221 30.6647 1.84056
531 2 42.9004 30.6595 -1.42066 42.9004 30.6595 -1.42066
532 1 43.8118 32.3087 0.230001 43.8118 32.3087 0.230001
533 2 45.7007 32.3101 1.87514 45.7007 32.3101 1.87514
534 2 45.7256 32.3072 -1.38694 45.7256 32.3072 -1.38694
535 1 46.6638 30.6621 0.252765 46.6638 30.6621 0.252765
536 2 48.582 30.6626 1.86363 48.582 30.6626 1.86363
537 2 48.5483 30.6614 -1.39837 48.5483 30.6614 -1.39837
538 1 49.5158 32.3086 0.222005 49.5158 32.3086 0.222005
539 2 51.4588 32.3072 1.80274 51.4588 32.3072 1.80274
540 2 51.3743 32.3099 -1.45834 51.3743 32.3099 -1.45834