ITEM: TIMESTEP
80000
ITEM: NUMBER OF ATOMS
810
ITEM: BOX BOUNDS pp pp pp
8.5299401165071698e-01 5.2164610988347711e+01
8.2569285412630766e-01 5.0190522145872933e+01
-1.0000000000000000e+01 1.0000000000000000e+01
ITEM: ATOMS id type x y z xu yu zu
1 1 1.05699 1.04098 0.0494478 1.05699 1.04098 0.0494478
2 2 3.01779 1.12365 1.60575 3.01779 1.12365 1.60575
3 2 2.89607 0.956942 -1.64991 2.89607 0.956942 -1.64991
4 1 3.90613 2.68365 -0.142205 3.90613 2.68365 -0.142205
5 2 5.87403 2.76077 1.40531 5.87403 2.76077 1.40531
6 2 5.73722 2.60569 -1.85034 5.73722 2.60569 -1.85034
7 1 6.75616 1.03775 -0.184053 6.75616 1.03775 -0.184053
8 2 8.72548 1.12133 1.36165 8.72548 1.12133 1.36165
9 2 8.58591 0.953625 -1.8932 8.58591 0.953625 -1.8932
10 1 9.6046 2.6809 -0.391559 9.6046 2.6809 -0.391559
11 2 11.5655 2.75819 1.16536 11.5655 2.75819 1.16536
12 2 11.4438 2.60372 -2.09081 11.4438 2.60372 -2.09081
13 1 12.4553 1.03541 -0.420059 12.4553 1.03541 -0.420059
14 2 14.4033 1.11902 1.1529 14.4033 1.11902 1.1529
15 2 14.3086 0.952217 -2.10356 14.3086 0.952217 -2.10356
16 1 15.3057 2.67954 -0.587476 15.3057 2.67954 -0.587476
17 2 17.2333 2.75763 1.01091 17.2333 2.75763 1.01091
18 2 17.1808 2.60232 -2.24699 17.1808 2.60232 -2.24699
19 1 18.158 1.03485 -0.554746 18.158 1.03485 -0.554746
20 2 20.0634 1.11845 1.06988 20.0634 1.11845 1.06988
21 2 20.0555 0.952399 -2.18798 20.0555 0.952399 -2.18798
22 1 21.0103 2.67996 -0.645341 21.0103 2.67996 -0.645341
23 2 22.8907 2.76036 1.0085 22.8907 2.76036 1.0085
24 2 22.9328 2.60093 -2.24936 22.9328 2.60093 -2.24936
25 1 23.8622 1.03631 -0.527367 23.8622 1.03631 -0.527367
26 2 25.7203 1.12037 1.15128 25.7203 1.12037 1.15128
27 2 25.8057 0.953757 -2.10547 25.8057 0.953757 -2.10547
28 1 26.714 2.68214 -0.536418 26.714 2.68214 -0.536418
29 2 28.5533 2.76512 1.16279 28.5533 2.76512 1.16279
30 2 28.675 2.60062 -2.09287 28.675 2.60062 -2.09287
31 1 29.5635 1.03932 -0.346172 29.5635 1.03932 -0.346172
32 2 31.3926 1.12335 1.36391 31.3926 1.12335 1.36391
33 2 31.5336 0.95647 -1.89093 31.5336 0.95647 -1.89093
34 1 32.4137 2.6853 -0.306815 32.4137 2.6853 -0.306815
35 2 34.2396 2.76913 1.4064 34.2396 2.76913 1.4064
36 2 34.3866 2.60235 -1.84818 34.3866 2.60235 -1.84818
37 1 35.262 1.04246 -0.093525 35.262 1.04246 -0.093525
38 2 37.0961 1.12582 1.61077 37.0961 1.12582 1.61077
39 2 37.2273 0.959378 -1.6445 37.2273 0.959378 -1.6445
40 1 38.1124 2.68786 -0.0629078 38.1124 2.68786 -0.0629078
41 2 39.9606 2.7704 1.62582 39.9606 2.7704 1.62582
42 2 40.0646 2.60514 -1.63055 40.0646 2.60514 -1.63055
43 1 40.9623 1.04419 0.111597 40.9623 1.04419 0.111597
44 2 42.8342 1.12663 1.77406 42.8342 1.12663 1.77406
45 2 42.8924 0.960927 -1.48338 42.8924 0.960927 -1.48338
46 1 43.8141 2.68844 0.078297 43.8141 2.68844 0.078297
47 2 45.7098 2.76833 1.71331 45.7098 2.76833 1.71331
48 2 45.7207 2.60738 -1.54497 45.7207 2.60738 -1.54497
49 1 46.6659 1.04359 0.168655 46.6659 1.04359 0.168655
50 2 48.5889 1.12558 1.77159 48.5889 1.12558 1.77159
51 2 48.5453 0.960097 -1.48612 48.5453 0.960097 -1.48612
52 1 49.5174 2.68669 0.046045 49.5174 2.68669 0.046045
53 2 51.4608 2.7644 1.62399 51.4608 2.7644 1.62399
54 2 51.3748 2.60755 -1.63338 51.3748 2.60755 -1.63338
55 1 1.0559 4.32971 -0.109454 1.0559 4.32971 -0.109454
56 2 3.01368 4.39795 1.45091 3.01368 4.39795 1.45091
57 2 2.89769 4.26044 -1.80643 2.89769 4.26044 -1.80643
58 1 3.90502 5.97334 -0.281558 3.90502 5.97334 -0.281558
59 2 5.86995 6.02812 1.27039 5.86995 6.02812 1.27039
60 2 5.73906 5.91806 -1.98738 5.73906 5.91806 -1.98738
61 1 6.7546 4.32695 -0.341191 6.7546 4.32695 -0.341191
62 2 8.72164 4.39419 1.20802 8.72164 4.39419 1.20802
63 2 8.58679 4.25949 -2.04855 8.58679 4.25949 -2.04855
64 1 9.60342 5.97134 -0.528056 9.60342 5.97134 -0.528056
65 2 11.5626 6.02591 1.03193 11.5626 6.02591 1.03193
66 2 11.4447 5.91705 -2.22617 11.4447 5.91705 -2.22617
67 1 12.454 4.32509 -0.576578 12.454 4.32509 -0.576578
68 2 14.4002 4.39314 0.999407 14.4002 4.39314 0.999407
69 2 14.3096 4.25762 -2.25852 14.3096 4.25762 -2.25852
70 1 15.305 5.97041 -0.724732 15.305 5.97041 -0.724732
71 2 17.2323 6.02797 0.87499 17.2323 6.02797 0.87499
72 2 17.1808 5.91364 -2.3845 17.1808 5.91364 -2.3845
73 1 18.1575 4.32466 -0.712025 18.1575 4.32466 -0.712025
74 2 20.0622 4.39587 0.91426 20.0622 4.39587 0.91426
75 2 20.0565 4.25455 -2.34461 20.0565 4.25455 -2.34461
76 1 21.0103 5.97066 -0.788371 21.0103 5.97066 -0.788371
77 2 22.8919 6.03441 0.865073 22.8919 6.03441 0.865073
78 2 22.9324 5.90799 -2.3941 22.9324 5.90799 -2.3941
79 1 23.8629 4.32579 -0.688777 23.8629 4.32579 -0.688777
80 2 25.7207 4.40195 0.990633 25.7207 4.40195 0.990633
81 2 25.8071 4.25102 -2.26671 25.8071 4.25102 -2.26671
82 1 26.7151 5.97216 -0.689199 26.7151 5.97216 -0.689199
83 2 28.5553 6.04256 1.00981 28.5553 6.04256 1.00981
84 2 28.6759 5.90301 -2.24695 28.6759 5.90301 -2.24695
85 1 29.5651 4.3283 -0.512776 29.5651 4.3283 -0.512776
86 2 31.393 4.40809 1.19871 31.393 4.40809 1.19871
87 2 31.5365 4.24976 -2.05639 31.5365 4.24976 -2.05639
88 1 32.4156 5.97461 -0.467209 32.4156 5.97461 -0.467209
89 2 34.2401 6.04791 1.24786 34.2401 6.04791 1.24786
90 2 34.3897 5.90224 -2.0076 34.3897 5.90224 -2.0076
91 1 35.2638 4.33115 -0.262524 35.2638 4.33115 -0.262524
92 2 37.0953 4.41098 1.44459 37.0953 4.41098 1.44459
93 2 37.2313 4.2518 -1.8109 37.2313 4.2518 -1.8109
94 1 38.114 5.97676 -0.224243 38.114 5.97676 -0.224243
95 2 39.9584 6.04763 1.46885 39.9584 6.04763 1.46885
96 2 40.0693 5.90595 -1.7885 40.0693 5.90595 -1.7885
97 1 40.9633 4.33274 -0.0558705 40.9633 4.33274 -0.0558705
98 2 42.8314 4.40916 1.6108 42.8314 4.40916 1.6108
99 2 42.8966 4.25574 -1.64727 42.8966 4.25574 -1.64727
100 1 43.8147 5.97723 -0.0771973 43.8147 5.97723 -0.0771973
101 2 45.7053 6.0419 1.56389 45.7053 6.0419 1.56389
102 2 45.7255 5.91172 -1.69588 45.7255 5.91172 -1.69588
103 1 46.6658 4.33212 0.00558767 46.6658 4.33212 0.00558767
104 2 48.5848 4.40372 1.61323 48.5848 4.40372 1.61323
105 2 48.5485 4.25927 -1.64573 48.5485 4.25927 -1.64573
106 1 49.5169 5.97574 -0.10034 49.5169 5.97574 -0.10034
107 2 51.4558 6.03403 1.48351 51.4558 6.03403 1.48351
108 2 51.3784 5.91639 -1.77587 51.3784 5.91639 -1.77587
109 1 1.05533 7.61983 -0.228713 1.05533 7.61983 -0.228713
110 2 3.00883 7.66123 1.33762 3.00883 7.66123 1.33762
111 2 2.9013 7.57777 -1.92193 2.9013 7.57777 -1.92193
112 1 3.90471 9.26478 -0.366198 3.90471 9.26478 -0.366198
113 2 5.86631 9.28744 1.19053 5.86631 9.28744 1.19053
114 2 5.74212 9.24187 -2.06908 5.74212 9.24187 -2.06908
115 1 6.7538 7.61801 -0.452734 6.7538 7.61801 -0.452734
116 2 8.71862 7.65695 1.10008 8.71862 7.65695 1.10008
117 2 8.58831 7.57906 -2.15853 8.58831 7.57906 -2.15853
118 1 9.60305 9.26382 -0.606972 9.60305 9.26382 -0.606972
119 2 11.5615 9.28627 0.954603 11.5615 9.28627 0.954603
120 2 11.4451 9.24161 -2.30503 11.4451 9.24161 -2.30503
121 1 12.4533 7.61693 -0.686839 12.4533 7.61693 -0.686839
122 2 14.3992 7.65776 0.890435 14.3992 7.65776 0.890435
123 2 14.3094 7.5766 -2.36924 14.3094 7.5766 -2.36924
124 1 15.3046 9.26347 -0.806848 15.3046 9.26347 -0.806848
125 2 17.2338 9.2909 0.791487 17.2338 9.2909 0.791487
126 2 17.1789 9.23653 -2.46942 17.1789 9.23653 -2.46942
127 1 18.1572 7.61668 -0.827719 18.1572 7.61668 -0.827719
128 2 20.0636 7.66364 0.797454 20.0636 7.66364 0.797454
129 2 20.0549 7.57048 -2.46302 20.0549 7.57048 -2.46302
130 1 21.0103 9.2636 -0.882554 21.0103 9.2636 -0.882554
131 2 22.8956 9.30006 0.767529 22.8956 9.30006 0.767529
132 2 22.9291 9.22774 -2.49328 22.9291 9.22774 -2.49328
133 1 23.8633 7.61729 -0.816683 23.8633 7.61729 -0.816683
134 2 25.7238 7.67288 0.860738 25.7238 7.67288 0.860738
135 2 25.8057 7.56265 -2.39824 25.8057 7.56265 -2.39824
136 1 26.7159 9.26432 -0.800709 26.7159 9.26432 -0.800709
137 2 28.5592 9.31019 0.895805 28.5592 9.31019 0.895805
138 2 28.6742 9.21924 -2.3628 28.6742 9.21924 -2.3628
139 1 29.5666 7.61887 -0.654068 29.5666 7.61887 -0.654068
140 2 31.3953 7.68095 1.05735 31.3953 7.68095 1.05735
141 2 31.5375 7.55781 -2.19926 31.5375 7.55781 -2.19926
142 1 32.4172 9.26573 -0.591939 32.4172 9.26573 -0.591939
143 2 34.2414 9.31587 1.12431 34.2414 9.31587 1.12431
144 2 34.3918 9.21635 -2.13284 34.3918 9.21635 -2.13284
145 1 35.2656 7.62092 -0.410152 35.2656 7.62092 -0.410152
146 2 37.0945 7.68333 1.3003 37.0945 7.68333 1.3003
147 2 37.2354 7.55908 -1.95654 37.2354 7.55908 -1.95654
148 1 38.1155 9.26714 -0.35023 38.1155 9.26714 -0.35023
149 2 39.9557 9.31382 1.34822 39.9557 9.31382 1.34822
150 2 40.0746 9.22062 -1.91066 40.0746 9.22062 -1.91066
151 1 40.9645 7.62214 -0.199524 40.9645 7.62214 -0.199524
152 2 42.8273 7.67874 1.47349 42.8273 7.67874 1.47349
153 2 42.9022 7.56523 -1.78612 42.9022 7.56523 -1.78612
154 1 43.8153 9.26738 -0.192343 43.8153 9.26738 -0.192343
155 2 45.6996 9.30512 1.45663 45.6996 9.30512 1.45663
156 2 45.732 9.22907 -1.80485 45.732 9.22907 -1.80485
157 1 46.6659 7.62163 -0.126406 46.6659 7.62163 -0.126406
158 2 48.5791 7.66972 1.48862 48.5791 7.66972 1.48862
159 2 48.5539 7.57264 -1.77233 48.5539 7.57264 -1.77233
160 1 49.5168 9.26627 -0.198832 49.5168 9.26627 -0.198832
161 2 51.45 9.29454 1.39252 51.45 9.29454 1.39252
162 2 51.3839 9.23726 -1.86881 51.3839 9.23726 -1.86881
163 1 1.05543 10.9114 -0.286895 1.05543 10.9114 -0.286895
164 2 3.00415 10.9186 1.28571 3.00415 10.9186 1.28571
165 2 2.90625 10.9039 -1.97522 2.90625 10.9039 -1.97522
166 1 3.90523 12.5573 -0.381194 3.90523 12.5573 -0.381194
167 2 5.86377 12.5438 1.17936 5.86377 12.5438 1.17936
168 2 5.7458 12.5705 -2.08071 5.7458 12.5705 -2.08071
169 1 6.75392 10.9107 -0.498954 6.75392 10.9107 -0.498954
170 2 8.71707 10.9146 1.05631 8.71707 10.9146 1.05631
171 2 8.59011 10.9068 -2.20337 8.59011 10.9068 -2.20337
172 1 9.60357 12.5573 -0.614775 9.60357 12.5573 -0.614775
173 2 11.5625 12.5439 0.946155 11.5625 12.5439 0.946155
174 2 11.4449 12.5708 -2.31365 11.4449 12.5708 -2.31365
175 1 12.4533 10.9105 -0.732008 12.4533 10.9105 -0.732008
176 2 14.4006 10.9173 0.843999 14.4006 10.9173 0.843999
177 2 14.308 10.904 -2.41656 14.308 10.904 -2.41656
178 1 15.3048 12.5577 -0.820234 15.3048 12.5577 -0.820234
179 2 17.2375 12.5505 0.773896 17.2375 12.5505 0.773896
180 2 17.1753 12.5651 -2.48729 17.1753 12.5651 -2.48729
181 1 18.1571 10.9106 -0.882623 18.1571 10.9106 -0.882623
182 2 20.0675 10.9255 0.738473 20.0675 10.9255 0.738473
183 2 20.0509 10.8961 -2.52311 20.0509 10.8961 -2.52311
184 1 21.0103 12.558 -0.912137 21.0103 12.558 -0.912137
185 2 22.9011 12.5609 0.731978 22.9011 12.5609 0.731978
186 2 22.9238 12.5554 -2.52969 22.9238 12.5554 -2.52969
187 1 23.8635 10.9109 -0.889738 23.8635 10.9109 -0.889738
188 2 25.7289 10.9364 0.783037 25.7289 10.9364 0.783037
189 2 25.8015 10.8858 -2.47756 25.8015 10.8858 -2.47756
190 1 26.7163 12.5583 -0.851726 26.7163 12.5583 -0.851726
191 2 28.5644 12.5715 0.840112 28.5644 12.5715 0.840112
192 2 28.6703 12.5454 -2.41992 28.6703 12.5454 -2.41992
193 1 29.5676 10.9115 -0.746094 29.5676 10.9115 -0.746094
194 2 31.3988 10.9451 0.963548 31.3988 10.9451 0.963548
195 2 31.5366 10.8786 -2.29485 31.5366 10.8786 -2.29485
196 1 32.4183 12.5588 -0.659294 32.4183 12.5588 -0.659294
197 2 34.2433 12.5769 1.0568 34.2433 12.5769 1.0568
198 2 34.3924 12.541 -2.20171 34.3924 12.541 -2.20171
199 1 35.2671 10.9126 -0.511033 35.2671 10.9126 -0.511033
200 2 37.0939 10.9467 1.20251 37.0939 10.9467 1.20251
201 2 37.2389 10.8789 -2.05582 37.2389 10.8789 -2.05582
202 1 38.1168 12.5592 -0.41898 38.1168 12.5592 -0.41898
203 2 39.9528 12.5736 1.28447 39.9528 12.5736 1.28447
204 2 40.0796 12.5448 -1.97534 40.0796 12.5448 -1.97534
205 1 40.9656 10.9132 -0.294114 40.9656 10.9132 -0.294114
206 2 42.8225 10.9399 1.38602 42.8225 10.9399 1.38602
207 2 42.9087 10.8862 -1.8749 42.9087 10.8862 -1.8749
208 1 43.816 12.5589 -0.247012 43.816 12.5589 -0.247012
209 2 45.6936 12.5631 1.40994 45.6936 12.5631 1.40994
210 2 45.7391 12.5542 -1.85231 45.7391 12.5542 -1.85231
211 1 46.6663 10.9126 -0.203648 46.6663 10.9126 -0.203648
212 2 48.5728 10.9285 1.41971 48.5728 10.9285 1.41971
213 2 48.5607 10.896 -1.84268 48.5607 10.896 -1.84268
214 1 49.5172 12.558 -0.232009 49.5172 12.558 -0.232009
215 2 51.4443 12.5511 1.36676 51.4443 12.5511 1.36676
216 2 51.3904 12.5641 -1.89531 51.3904 12.5641 -1.89531
217 1 1.05612 14.2035 -0.273931 1.05612 14.2035 -0.273931
218 2 3.00037 14.1751 1.30392 3.00037 14.1751 1.30392
219 2 2.91163 14.2315 -1.95683 2.91163 14.2315 -1.95683
220 1 3.9064 15.8493 -0.324218 3.9064 15.8493 -0.324218
221 2 5.8627 15.8022 1.23852 5.8627 15.8022 1.23852
222 2 5.74939 15.8961 -2.02048 5.74939 15.8961 -2.02048
223 1 6.75491 14.2036 -0.471923 6.75491 14.2036 -0.471923
224 2 8.71728 14.1718 1.08392 8.71728 14.1718 1.08392
225 2 8.59181 14.2353 -2.17523 8.59181 14.2353 -2.17523
226 1 9.60487 15.8501 -0.550342 9.60487 15.8501 -0.550342
227 2 11.5655 15.8033 1.00779 11.5655 15.8033 1.00779
228 2 11.4443 15.8971 -2.25068 11.4443 15.8971 -2.25068
229 1 12.4541 14.2043 -0.704633 12.4541 14.2043 -0.704633
230 2 14.4041 14.1761 0.867554 14.4041 14.1761 0.867554
231 2 14.3055 14.2327 -2.39239 14.3055 14.2327 -2.39239
232 1 15.3055 15.8514 -0.762634 15.3055 15.8514 -0.762634
233 2 17.2429 15.8106 0.82524 17.2429 15.8106 0.82524
234 2 17.1709 15.8924 -2.43481 17.1709 15.8924 -2.43481
235 1 18.1573 14.2051 -0.867559 18.1573 14.2051 -0.867559
236 2 20.073 14.1852 0.747094 20.073 14.1852 0.747094
237 2 20.0456 14.2251 -2.51432 20.0456 14.2251 -2.51432
238 1 21.0103 15.8523 -0.871523 21.0103 15.8523 -0.871523
239 2 22.9073 15.8207 0.764999 22.9073 15.8207 0.764999
240 2 22.9175 15.8842 -2.49615 22.9175 15.8842 -2.49615
241 1 23.8635 14.2055 -0.895085 23.8635 14.2055 -0.895085
242 2 25.735 14.1961 0.770977 25.735 14.1961 0.770977
243 2 25.7957 14.215 -2.49019 25.7957 14.215 -2.49019
244 1 26.7163 15.8527 -0.83243 26.7163 15.8527 -0.83243
245 2 28.5701 15.8304 0.853043 28.5701 15.8304 0.853043
246 2 28.6649 15.8751 -2.40714 28.6649 15.8751 -2.40714
247 1 29.5682 14.2056 -0.772309 29.5682 14.2056 -0.772309
248 2 31.403 14.2045 0.933691 31.403 14.2045 0.933691
249 2 31.5338 14.2069 -2.32565 31.5338 14.2069 -2.32565
250 1 32.4188 15.8526 -0.65673 32.4188 15.8526 -0.65673
251 2 34.2458 15.8353 1.05733 34.2458 15.8353 1.05733
252 2 34.3911 15.8699 -2.20135 34.3911 15.8699 -2.20135
253 1 35.2682 14.2057 -0.54737 35.2682 14.2057 -0.54737
254 2 37.0937 14.2055 1.16791 37.0937 14.2055 1.16791
255 2 37.2412 14.206 -2.09101 37.2412 14.206 -2.09101
256 1 38.1175 15.852 -0.418573 38.1175 15.852 -0.418573
257 2 39.9505 15.8318 1.28814 39.9505 15.8318 1.28814
258 2 40.0831 15.8719 -1.97129 40.0831 15.8719 -1.97129
259 1 40.9664 14.2054 -0.323422 40.9664 14.2054 -0.323422
260 2 42.8179 14.1978 1.36296 42.8179 14.1978 1.36296
261 2 42.9146 14.2125 -1.89808 42.9146 14.2125 -1.89808
262 1 43.8165 15.8509 -0.232373 43.8165 15.8509 -0.232373
263 2 45.6882 15.8211 1.43106 45.6882 15.8211 1.43106
264 2 45.7453 15.8798 -1.83045 45.7453 15.8798 -1.83045
265 1 46.6668 14.2044 -0.212973 46.6668 14.2044 -0.212973
266 2 48.5668 14.1855 1.41797 48.5668 14.1855 1.41797
267 2 48.5677 14.2226 -1.84439 48.5677 14.2226 -1.84439
268 1 49.5178 15.8496 -0.194657 49.5178 15.8496 -0.194657
269 2 51.4396 15.8091 1.41014 51.4396 15.8091 1.41014
270 2 51.3967 15.8894 -1.8511 51.3967 15.8894 -1.8511
271 1 1.05713 17.4947 -0.192816 1.05713 17.4947 -0.192816
272 2 2.99798 17.436 1.38857 2.99798 17.436 1.38857
273 2 2.91647 17.5528 -1.87073 2.91647 17.5528 -1.87073
274 1 3.9079 19.1398 -0.2061 3.9079 19.1398 -0.2061
275 2 5.8631 19.0677 1.35726 5.8631 19.0677 1.35726
276 2 5.75229 19.2116 -1.89997 5.75229 19.2116 -1.89997
277 1 6.75651 17.4952 -0.376778 6.75651 17.4952 -0.376778
278 2 8.71912 17.4335 1.17791 8.71912 17.4335 1.17791
279 2 8.59313 17.5569 -2.07952 8.59313 17.5569 -2.07952
280 1 9.60671 19.1411 -0.425283 9.60671 19.1411 -0.425283
281 2 11.5696 19.0691 1.12894 11.5696 19.0691 1.12894
282 2 11.4434 19.2134 -2.12754 11.4434 19.2134 -2.12754
283 1 12.4554 17.4967 -0.609494 12.4554 17.4967 -0.609494
284 2 14.4091 17.4382 0.957261 14.4091 17.4382 0.957261
285 2 14.3027 17.5556 -2.30088 14.3027 17.5556 -2.30088
286 1 15.3067 19.1432 -0.643494 15.3067 19.1432 -0.643494
287 2 17.2487 19.0754 0.937625 17.2487 19.0754 0.937625
288 2 17.1667 19.2114 -2.32048 17.1667 19.2114 -2.32048
289 1 18.1578 17.4983 -0.784464 18.1578 17.4983 -0.784464
290 2 20.0791 17.4467 0.822667 20.0791 17.4467 0.822667
291 2 20.04 17.5503 -2.43731 20.04 17.5503 -2.43731
292 1 21.0106 19.1449 -0.766331 21.0106 19.1449 -0.766331
293 2 22.9134 19.0835 0.862431 22.9134 19.0835 0.862431
294 2 22.9115 19.2067 -2.39713 22.9115 19.2067 -2.39713
295 1 23.8634 17.4993 -0.830537 23.8634 17.4993 -0.830537
296 2 25.7412 17.4561 0.827813 25.7412 17.4561 0.827813
297 2 25.7893 17.5427 -2.43253 25.7893 17.5427 -2.43253
298 1 26.716 19.1458 -0.744533 26.716 19.1458 -0.744533
299 2 28.5755 19.0913 0.933827 28.5755 19.0913 0.933827
300 2 28.6589 19.2004 -2.32522 28.6589 19.2004 -2.32522
301 1 29.5681 17.4994 -0.726836 29.5681 17.4994 -0.726836
302 2 31.4075 17.4634 0.973884 31.4075 17.4634 0.973884
303 2 31.5295 17.5355 -2.28502 31.5295 17.5355 -2.28502
304 1 32.4186 19.1455 -0.583541 32.4186 19.1455 -0.583541
305 2 34.2487 19.0955 1.12658 34.2487 19.0955 1.12658
306 2 34.388 19.1952 -2.13104 34.388 19.1952 -2.13104
307 1 35.2685 17.4988 -0.512278 35.2685 17.4988 -0.512278
308 2 37.0942 17.4643 1.20255 37.0942 17.4643 1.20255
309 2 37.2414 17.533 -2.05564 37.2414 17.533 -2.05564
310 1 38.1175 19.1441 -0.349063 38.1175 19.1441 -0.349063
311 2 39.9495 19.0929 1.35832 39.9495 19.0929 1.35832
312 2 40.0842 19.1945 -1.89965 40.0842 19.1945 -1.89965
313 1 40.9668 17.4975 -0.282929 40.9668 17.4975 -0.282929
314 2 42.8143 17.4573 1.4075 42.8143 17.4573 1.4075
315 2 42.9188 17.5368 -1.8523 42.9188 17.5368 -1.8523
316 1 43.8167 19.142 -0.151997 43.8167 19.142 -0.151997
317 2 45.6844 19.0839 1.51541 45.6844 19.0839 1.51541
318 2 45.7496 19.1988 -1.74437 45.7496 19.1988 -1.74437
319 1 46.6672 17.4958 -0.153784 46.6672 17.4958 -0.153784
320 2 48.562 17.4456 1.48283 48.562 17.4456 1.48283
321 2 48.5736 17.5448 -1.77815 48.5736 17.5448 -1.77815
322 1 49.5184 19.1401 -0.0944908 49.5184 19.1401 -0.0944908
323 2 51.4364 19.0735 1.51429 51.4364 19.0735 1.51429
324 2 51.4016 19.2058 -1.74527 51.4016 19.2058 -1.74527
325 1 1.05818 20.7844 -0.0590187 1.05818 20.7844 -0.0590187
326 2 2.99717 20.7063 1.52415 2.99717 20.7063 1.52415
327 2 2.91994 20.8617 -1.73355 2.91994 20.8617 -1.73355
328 1 3.9094 22.4288 -0.0487608 3.9094 22.4288 -0.0487608
329 2 5.86467 22.3449 1.51424 5.86467 22.3449 1.51424
330 2 5.7541 22.5125 -1.7418 5.7541 22.5125 -1.7418
331 1 6.75839 20.785 -0.231064 6.75839 20.785 -0.231064
332 2 8.72201 20.7045 1.32165 8.72201 20.7045 1.32165
333 2 8.594 20.8655 -1.93406 8.594 20.8655 -1.93406
334 1 9.60869 22.4303 -0.262141 9.60869 22.4303 -0.262141
335 2 11.5739 22.3458 1.28861 11.5739 22.3458 1.28861
336 2 11.4427 22.5153 -1.96651 11.4427 22.5153 -1.96651
337 1 12.4572 20.787 -0.463165 12.4572 20.787 -0.463165
338 2 14.4144 20.7082 1.09824 14.4144 20.7082 1.09824
339 2 14.3004 20.8664 -2.158 14.3004 20.8664 -2.158
340 1 15.3082 22.4328 -0.483072 15.3082 22.4328 -0.483072
341 2 17.2539 22.3497 1.09268 17.2539 22.3497 1.09268
342 2 17.1638 22.5167 -2.16389 17.1638 22.5167 -2.16389
343 1 18.1587 20.7894 -0.646568 18.1587 20.7894 -0.646568
344 2 20.0848 20.7143 0.953693 20.0848 20.7143 0.953693
345 2 20.0353 20.8651 -2.30444 20.0353 20.8651 -2.30444
346 1 21.011 22.4352 -0.613507 21.011 22.4352 -0.613507
347 2 22.9182 22.3545 1.00901 22.9182 22.3545 1.00901
348 2 22.9068 22.5167 -2.24898 22.9068 22.5167 -2.24898
349 1 23.8633 20.791 -0.705575 23.8633 20.791 -0.705575
350 2 25.7465 20.721 0.945462 25.7465 20.721 0.945462
351 2 25.7834 20.8616 -2.31327 25.7834 20.8616 -2.31327
352 1 26.7155 22.4365 -0.601997 26.7155 22.4365 -0.601997
353 2 28.5798 22.3593 1.06985 28.5798 22.3593 1.06985
354 2 28.6532 22.5143 -2.1877 28.6532 22.5143 -2.1877
355 1 29.5675 20.7915 -0.616141 29.5675 20.7915 -0.616141
356 2 31.4117 20.7265 1.07845 31.4117 20.7265 1.07845
357 2 31.5242 20.8566 -2.17907 31.5242 20.8566 -2.17907
358 1 32.4177 22.4364 -0.451634 32.4177 22.4364 -0.451634
359 2 34.2517 22.3625 1.25337 34.2517 22.3625 1.25337
360 2 34.3833 22.5101 -2.00278 34.3833 22.5101 -2.00278
361 1 35.268 20.7905 -0.411214 35.268 20.7905 -0.411214
362 2 37.0956 20.7278 1.30084 37.0956 20.7278 1.30084
363 2 37.2391 20.8527 -1.95583 37.2391 20.8527 -1.95583
364 1 38.1168 22.4345 -0.222455 38.1168 22.4345 -0.222455
365 2 39.9501 22.3615 1.48291 39.9501 22.3615 1.48291
366 2 40.0825 22.5065 -1.77345 40.0825 22.5065 -1.77345
367 1 40.9666 20.7883 -0.180175 40.9666 20.7883 -0.180175
368 2 42.8126 20.7228 1.5114 42.8126 20.7228 1.5114
369 2 42.9203 20.8526 -1.7466 42.9203 20.8526 -1.7466
370 1 43.8163 22.4317 -0.0206778 43.8163 22.4317 -0.0206778
371 2 45.6829 22.3559 1.64772 45.6829 22.3559 1.64772
372 2 45.7509 22.5061 -1.61043 45.7509 22.5061 -1.61043
373 1 46.6674 20.7858 -0.0376515 46.6674 20.7858 -0.0376515
374 2 48.559 20.7138 1.60209 48.559 20.7138 1.60209
375 2 48.5773 20.8564 -1.65713 48.5773 20.8564 -1.65713
376 1 49.5189 22.4293 0.04971 49.5189 22.4293 0.04971
377 2 51.4353 22.3488 1.66023 51.4353 22.3488 1.66023
378 2 51.4043 22.5088 -1.59798 51.4043 22.5088 -1.59798
379 1 1.05907 24.0731 0.102928 1.05907 24.0731 0.102928
380 2 2.998 23.9897 1.68633 2.998 23.9897 1.68633
381 2 2.92149 24.1559 -1.57073 2.92149 24.1559 -1.57073
382 1 3.91065 25.7176 0.119567 3.91065 25.7176 0.119567
383 2 5.86702 25.6365 1.68171 5.86702 25.6365 1.68171
384 2 5.75462 25.7986 -1.57447 5.75462 25.7986 -1.57447
385 1 6.76016 24.0737 -0.0612677 6.76016 24.0737 -0.0612677
386 2 8.72516 23.9888 1.48971 8.72516 23.9888 1.48971
387 2 8.59446 24.1588 -1.76542 8.59446 24.1588 -1.76542
388 1 9.61044 25.719 -0.0899219 9.61044 25.719 -0.0899219
389 2 11.5774 25.6369 1.45892 11.5774 25.6369 1.45892
390 2 11.4426 25.8017 -1.79632 11.4426 25.8017 -1.79632
391 1 12.459 24.0758 -0.291467 12.459 24.0758 -0.291467
392 2 14.4188 23.9906 1.26639 14.4188 23.9906 1.26639
393 2 14.2991 24.1619 -1.98908 14.2991 24.1619 -1.98908
394 1 15.3096 25.7214 -0.309479 15.3096 25.7214 -0.309479
395 2 17.2573 25.6377 1.26371 17.2573 25.6377 1.26371
396 2 17.1626 25.8061 -1.9928 17.1626 25.8061 -1.9928
397 1 18.1597 24.0784 -0.477333 18.1597 24.0784 -0.477333
398 2 20.089 23.9932 1.11845 20.089 23.9932 1.11845
399 2 20.0324 24.1647 -2.1387 20.0324 24.1647 -2.1387
400 1 21.0114 25.7238 -0.43973 21.0114 25.7238 -0.43973
401 2 22.921 25.6384 1.17957 22.921 25.6384 1.17957
402 2 22.9041 25.8104 -2.07807 22.9041 25.8104 -2.07807
403 1 23.8632 24.0805 -0.541192 23.8632 24.0805 -0.541192
404 2 25.7503 23.9961 1.10453 25.7503 23.9961 1.10453
405 2 25.7787 24.1659 -2.15304 25.7787 24.1659 -2.15304
406 1 26.7148 25.7254 -0.429905 26.7148 25.7254 -0.429905
407 2 28.5824 25.6394 1.23763 28.5824 25.6394 1.23763
408 2 28.6487 25.8123 -2.01931 28.6487 25.8123 -2.01931
409 1 29.5665 24.0813 -0.459019 29.5665 24.0813 -0.459019
410 2 31.415 23.999 1.22996 31.415 23.999 1.22996
411 2 31.5187 24.1641 -2.02635 31.5187 24.1641 -2.02635
412 1 32.4163 25.7254 -0.284286 32.4163 25.7254 -0.284286
413 2 34.2544 25.6408 1.41583 34.2544 25.6408 1.41583
414 2 34.3779 25.8101 -1.83962 34.3779 25.8101 -1.83962
415 1 35.2668 24.0803 -0.261591 35.2668 24.0803 -0.261591
416 2 37.0979 24.0004 1.44612 37.0979 24.0004 1.44612
417 2 37.2347 24.1597 -1.80932 37.2347 24.1597 -1.80932
418 1 38.1154 25.7235 -0.0609548 38.1154 25.7235 -0.0609548
419 2 39.9522 25.6415 1.64047 39.9522 25.6415 1.64047
420 2 40.0782 25.8047 -1.61521 40.0782 25.8047 -1.61521
421 1 40.9657 24.0777 -0.0333097 40.9657 24.0777 -0.0333097
422 2 42.8131 23.9985 1.65653 42.8131 23.9985 1.65653
423 2 42.9186 24.1556 -1.60023 42.9186 24.1556 -1.60023
424 1 43.8157 25.7206 0.138457 43.8157 25.7206 0.138457
425 2 45.6841 25.6402 1.80498 45.6841 25.6402 1.80498
426 2 45.749 25.7997 -1.45264 45.749 25.7997 -1.45264
427 1 46.6672 24.0748 0.114347 46.6672 24.0748 0.114347
428 2 48.5586 23.9938 1.75445 48.5586 23.9938 1.75445
429 2 48.5781 24.1544 -1.50377 48.5781 24.1544 -1.50377
430 1 49.5191 25.7182 0.212201 49.5191 25.7182 0.212201
431 2 51.4364 25.6378 1.82221 51.4364 25.6378 1.82221
432 2 51.4044 25.7976 -1.43585 51.4044 25.7976 -1.43585
433 1 1.05973 27.3624 0.264761 1.05973 27.3624 0.264761
434 2 3.00038 27.2877 1.84693 3.00038 27.2877 1.84693
435 2 2.92094 27.4366 -1.41078 2.92094 27.4366 -1.41078
436 1 3.91154 29.0076 0.270307 3.91154 29.0076 0.270307
437 2 5.86986 28.9427 1.83109 5.86986 28.9427 1.83109
438 2 5.75381 29.0725 -1.42634 5.75381 29.0725 -1.42634
439 1 6.76153 27.3628 0.10291 6.76153 27.3628 0.10291
440 2 8.72797 27.288 1.65284 8.72797 27.288 1.65284
441 2 8.5945 27.4379 -1.60314 8.5945 27.4379 -1.60314
442 1 9.61167 29.0087 0.0618947 9.61167 29.0087 0.0618947
443 2 11.5796 28.9429 1.61045 11.5796 28.9429 1.61045
444 2 11.4428 29.075 -1.64623 11.4428 29.075 -1.64623
445 1 12.4605 27.3647 -0.124515 12.4605 27.3647 -0.124515
446 2 14.4214 27.288 1.43234 14.4214 27.288 1.43234
447 2 14.299 27.4422 -1.82397 14.299 27.4422 -1.82397
448 1 15.3106 29.0106 -0.15331 15.3106 29.0106 -0.15331
449 2 17.2584 28.9413 1.42036 17.2584 28.9413 1.42036
450 2 17.163 29.0808 -1.83761 17.163 29.0808 -1.83761
451 1 18.1605 27.367 -0.306849 18.1605 27.367 -0.306849
452 2 20.0908 27.287 1.28786 20.0908 27.287 1.28786
453 2 20.0316 27.4481 -1.96993 20.0316 27.4481 -1.96993
454 1 21.0117 29.0125 -0.276614 21.0117 29.0125 -0.276614
455 2 22.9212 28.9381 1.34316 22.9212 28.9381 1.34316
456 2 22.9037 29.0881 -1.91572 22.9037 29.0881 -1.91572
457 1 23.863 27.3689 -0.367064 23.863 27.3689 -0.367064
458 2 25.7516 27.2856 1.27671 25.7516 27.2856 1.27671
459 2 25.7762 27.4535 -1.98115 25.7762 27.4535 -1.98115
460 1 26.7139 29.0139 -0.259925 26.7139 29.0139 -0.259925
461 2 28.5825 28.935 1.40672 28.5825 28.935 1.40672
462 2 28.6463 29.0939 -1.8511 28.6463 29.0939 -1.8511
463 1 29.5652 27.3698 -0.283908 29.5652 27.3698 -0.283908
464 2 31.4167 27.2851 1.40156 31.4167 27.2851 1.40156
465 2 31.5141 27.4553 -1.85477 31.5141 27.4553 -1.85477
466 1 32.4146 29.014 -0.111884 32.4146 29.014 -0.111884
467 2 34.2558 28.9338 1.58508 34.2558 28.9338 1.58508
468 2 34.3731 29.0945 -1.67107 34.3731 29.0945 -1.67107
469 1 35.2651 27.369 -0.0900631 35.2651 27.369 -0.0900631
470 2 37.1004 27.2859 1.61311 37.1004 27.2859 1.61311
471 2 37.2292 27.4517 -1.64231 37.2292 27.4517 -1.64231
472 1 38.1138 29.0124 0.107094 38.1138 29.0124 0.107094
473 2 39.9553 28.9353 1.80388 39.9553 28.9353 1.80388
474 2 40.0724 29.0889 -1.45251 40.0724 29.0889 -1.45251
475 1 40.9645 27.3665 0.132098 40.9645 27.3665 0.132098
476 2 42.8157 27.2871 1.81801 42.8157 27.2871 1.81801
477 2 42.9142 27.4449 -1.43882 42.9142 27.4449 -1.43882
478 1 43.8148 29.0099 0.298337 43.8148 29.0099 0.298337
479 2 45.6877 28.9383 1.96062 45.6877 28.9383 1.96062
480 2 45.7445 29.0807 -1.2978 45.7445 29.0807 -1.2978
481 1 46.6669 27.3638 0.27588 46.6669 27.3638 0.27588
482 2 48.5609 27.2876 1.91369 48.5609 27.2876 1.91369
483 2 48.5759 27.439 -1.34484 48.5759 27.439 -1.34484
484 1 49.5193 29.008 0.365518 49.5193 29.008 0.365518
485 2 51.4397 28.941 1.97278 51.4397 28.941 1.97278
486 2 51.4019 29.0744 -1.28627 51.4019 29.0744 -1.28627
487 1 1.06018 30.6533 0.399903 1.06018 30.6533 0.399903
488 2 3.0041 30.5994 1.97925 3.0041 30.5994 1.97925
489 2 2.91843 30.707 -1.27983 2.91843 30.707 -1.27983
490 1 3.91204 32.2996 0.379375 3.91204 32.2996 0.379375
491 2 5.873 32.2611 1.93796 5.873 32.2611 1.93796
492 2 5.75174 32.3381 -1.3209 5.75174 32.3381 -1.3209
493 1 6.76239 30.6537 0.23434 6.76239 30.6537 0.23434
494 2 8.73025 30.6011 1.78359 8.73025 30.6011 1.78359
495 2 8.59396 30.7064 -1.47401 8.59396 30.7064 -1.47401
496 1 9.61225 32.3002 0.168516 9.61225 32.3002 0.168516
497 2 11.5805 32.2616 1.71761 11.5805 32.2616 1.71761
498 2 11.4429 32.3391 -1.54081 11.4429 32.3391 -1.54081
499 1 12.4614 30.6549 0.00923513 12.4614 30.6549 0.00923513
500 2 14.4222 30.6 1.56715 14.4222 30.6 1.56715
501 2 14.2998 30.7105 -1.691 14.2998 30.7105 -1.691
502 1 15.311 32.3013 -0.0415051 15.311 32.3013 -0.0415051
503 2 17.2574 32.2584 1.5348 17.2574 32.2584 1.5348
504 2 17.1646 32.3448 -1.72517 17.1646 32.3448 -1.72517
505 1 18.161 30.6566 -0.165647 18.161 30.6566 -0.165647
506 2 20.0901 30.5962 1.43119 20.0901 30.5962 1.43119
507 2 20.0327 30.7178 -1.82847 20.0327 30.7178 -1.82847
508 1 21.0116 32.3026 -0.153643 21.0116 32.3026 -0.153643
509 2 22.9186 32.2525 1.46984 22.9186 32.2525 1.46984
510 2 22.9056 32.3537 -1.79105 22.9056 32.3537 -1.79105
511 1 23.8626 30.6581 -0.215274 23.8626 30.6581 -0.215274
512 2 25.7501 30.591 1.43035 25.7501 30.591 1.43035
513 2 25.7763 30.7262 -1.82915 25.7763 30.7262 -1.82915
514 1 26.7129 32.3036 -0.123129 26.7129 32.3036 -0.123129
515 2 28.5799 32.2457 1.5462 28.5799 32.2457 1.5462
516 2 28.6465 32.3625 -1.71343 28.6465 32.3625 -1.71343
517 1 29.5638 30.6588 -0.122953 29.5638 30.6588 -0.122953
518 2 31.4161 30.5868 1.56215 31.4161 30.5868 1.56215
519 2 31.5116 30.7315 -1.69555 31.5116 30.7315 -1.69555
520 1 32.4129 32.3037 0.0345931 32.4129 32.3037 0.0345931
521 2 34.2553 32.2418 1.73095 34.2553 32.2418 1.73095
522 2 34.3701 32.366 -1.5269 34.3701 32.366 -1.5269
523 1 35.2633 30.6581 0.0727989 35.2633 30.6581 0.0727989
524 2 37.1023 30.5863 1.77257 37.1023 30.5863 1.77257
525 2 37.224 30.7299 -1.48415 37.224 30.7299 -1.48415
526 1 38.1121 32.3026 0.252712 38.1121 32.3026 0.252712
527 2 39.9583 32.2432 1.94524 39.9583 32.2432 1.94524
528 2 40.0667 32.3617 -1.31285 40.0667 32.3617 -1.31285
529 1 40.9632 30.6562 0.287891 40.9632 30.6562 0.287891
530 2 42.8198 30.5897 1.96864 42.8198 30.5897 1.96864
531 2 42.9082 30.7221 -1.28949 42.9082 30.7221 -1.28949
532 1 43.814 32.3009 0.432686 43.814 32.3009 0.432686
533 2 45.6931 32.2494 2.08903 45.6931 32.2494 2.08903
534 2 45.7382 32.352 -1.17094 45.7382 32.352 -1.17094
535 1 46.6666 30.6543 0.420286 46.6666 30.6543 0.420286
536 2 48.5655 30.595 2.0534 48.5655 30.595 2.0534
537 2 48.5712 30.713 -1.20639 48.5712 30.713 -1.20639