ITEM: TIMESTEP
95000
ITEM: NUMBER OF ATOMS
810
ITEM: BOX BOUNDS pp pp pp
8.4899640968038170e-01 5.2168608590318449e+01
8.0859131525022843e-01 5.0207623684748953e+01
-1.0000000000000000e+01 1.0000000000000000e+01
ITEM: ATOMS id type x y z xu yu zu
1 1 1.05464 1.02381 -0.440768 1.05464 1.02381 -0.440768
2 2 2.91975 0.999864 1.23194 2.91975 0.999864 1.23194
3 2 2.99144 1.04784 -2.02909 2.99144 1.04784 -2.02909
4 1 3.90586 2.67032 -0.353304 3.90586 2.67032 -0.353304
5 2 5.75526 2.64553 1.33668 5.75526 2.64553 1.33668
6 2 5.85733 2.69509 -1.92354 5.85733 2.69509 -1.92354
7 1 6.75675 1.02359 -0.288714 6.75675 1.02359 -0.288714
8 2 8.59624 1.00058 1.412 8.59624 1.00058 1.412
9 2 8.7174 1.04651 -1.84761 8.7174 1.04651 -1.84761
10 1 9.60662 2.66988 -0.159144 9.60662 2.66988 -0.159144
11 2 11.4453 2.64657 1.54235 11.4453 2.64657 1.54235
12 2 11.568 2.69303 -1.7172 11.568 2.69303 -1.7172
13 1 12.4569 1.02303 -0.0751592 12.4569 1.02303 -0.0751592
14 2 14.3008 1.00169 1.62057 14.3008 1.00169 1.62057
15 2 14.4135 1.04418 -1.6394 14.4135 1.04418 -1.6394
16 1 15.3071 2.66925 0.0450045 15.3071 2.66925 0.0450045
17 2 17.1649 2.64871 1.72546 17.1649 2.64871 1.72546
18 2 17.2509 2.68961 -1.53532 17.2509 2.68961 -1.53532
19 1 18.1584 1.02242 0.099413 18.1584 1.02242 0.099413
20 2 20.0331 1.00248 1.76086 20.0331 1.00248 1.76086
21 2 20.0861 1.04214 -1.50065 20.0861 1.04214 -1.50065
22 1 21.0102 2.66877 0.165623 21.0102 2.66877 0.165623
23 2 22.9062 2.6508 1.80266 22.9062 2.6508 1.80266
24 2 22.9171 2.68658 -1.45927 22.9171 2.68658 -1.45927
25 1 23.8625 1.022 0.156722 23.8625 1.022 0.156722
26 2 25.7788 1.00247 1.76981 25.7788 1.00247 1.76981
27 2 25.7488 1.04134 -1.49198 25.7488 1.04134 -1.49198
28 1 26.7146 2.66856 0.149818 26.7146 2.66856 0.149818
29 2 28.6504 2.65191 1.73959 28.6504 2.65191 1.73959
30 2 28.5809 2.68509 -1.52164 28.5809 2.68509 -1.52164
31 1 29.5661 1.02189 0.0718912 29.5661 1.02189 0.0718912
32 2 31.5168 1.00178 1.64334 31.5168 1.00178 1.64334
33 2 31.4166 1.04194 -1.61703 31.4166 1.04194 -1.61703
34 1 32.4171 2.66865 0.00422161 32.4171 2.66865 0.00422161
35 2 34.3771 2.65157 1.56398 34.3771 2.65157 1.56398
36 2 34.2572 2.68573 -1.69581 34.2572 2.68573 -1.69581
37 1 35.2672 1.0222 -0.118165 35.2672 1.0222 -0.118165
38 2 37.2301 1.00086 1.43805 37.2301 1.00086 1.43805
39 2 37.1042 1.04366 -1.82142 37.1042 1.04366 -1.82142
40 1 38.1173 2.66906 -0.206741 38.1173 2.66906 -0.206741
41 2 40.0754 2.64995 1.35568 40.0754 2.64995 1.35568
42 2 39.9595 2.68836 -1.90424 39.9595 2.68836 -1.90424
43 1 40.9675 1.02283 -0.327459 40.9675 1.02283 -0.327459
44 2 42.9143 1.00012 1.24898 42.9143 1.00012 1.24898
45 2 42.8218 1.04583 -2.01158 42.8218 1.04583 -2.01158
46 1 43.8185 2.6697 -0.385132 43.8185 2.6697 -0.385132
47 2 45.7477 2.6478 1.21302 45.7477 2.6478 1.21302
48 2 45.6914 2.6919 -2.0484 45.6914 2.6919 -2.0484
49 1 46.6701 1.0235 -0.456344 46.6701 1.0235 -0.456344
50 2 48.5784 0.999753 1.16687 48.5784 0.999753 1.16687
51 2 48.5646 1.04751 -2.09494 48.5646 1.04751 -2.09494
52 1 49.5222 2.67024 -0.443814 49.5222 2.67024 -0.443814
53 2 51.4079 2.64606 1.20553 51.4079 2.64606 1.20553
54 2 51.439 2.69463 -2.05616 51.439 2.69463 -2.05616
55 1 1.05434 4.31687 -0.391605 1.05434 4.31687 -0.391605
56 2 2.91945 4.29245 1.28105 2.91945 4.29245 1.28105
57 2 2.99097 4.3414 -1.98001 2.99097 4.3414 -1.98001
58 1 3.90535 5.96336 -0.303751 3.90535 5.96336 -0.303751
59 2 5.75491 5.93954 1.38604 5.75491 5.93954 1.38604
60 2 5.85656 5.98718 -1.87423 5.85656 5.98718 -1.87423
61 1 6.7562 4.31668 -0.238481 6.7562 4.31668 -0.238481
62 2 8.59697 4.29218 1.46081 8.59697 4.29218 1.46081
63 2 8.7156 4.34106 -1.79886 8.7156 4.34106 -1.79886
64 1 9.60598 5.96296 -0.109583 9.60598 5.96296 -0.109583
65 2 11.4466 5.94043 1.58983 11.4466 5.94043 1.58983
66 2 11.5656 5.98533 -1.66987 11.5656 5.98533 -1.66987
67 1 12.4564 4.31611 -0.0280367 12.4564 4.31611 -0.0280367
68 2 14.3025 4.29436 1.66534 14.3025 4.29436 1.66534
69 2 14.411 4.33769 -1.59474 14.411 4.33769 -1.59474
70 1 15.3067 5.96242 0.0889767 15.3067 5.96242 0.0889767
71 2 17.1674 5.94426 1.76628 17.1674 5.94426 1.76628
72 2 17.2478 5.98046 -1.49467 17.2478 5.98046 -1.49467
73 1 18.1582 4.31558 0.140897 18.1582 4.31558 0.140897
74 2 20.035 4.29794 1.8 20.035 4.29794 1.8
75 2 20.0839 4.33308 -1.46159 20.0839 4.33308 -1.46159
76 1 21.0101 5.9621 0.201294 21.0101 5.9621 0.201294
77 2 22.9088 5.94929 1.83533 22.9088 5.94929 1.83533
78 2 22.9144 5.97485 -1.42668 22.9144 5.97485 -1.42668
79 1 23.8624 4.31531 0.192976 23.8624 4.31531 0.192976
80 2 25.7802 4.30125 1.80451 25.7802 4.30125 1.80451
81 2 25.7475 4.32927 -1.45734 25.7475 4.32927 -1.45734
82 1 26.7146 5.96204 0.178233 26.7146 5.96204 0.178233
83 2 28.6519 5.9532 1.76624 28.6519 5.9532 1.76624
84 2 28.5793 5.97082 -1.49503 28.5793 5.97082 -1.49503
85 1 29.5662 4.31529 0.105489 29.5662 4.31529 0.105489
86 2 31.5173 4.30275 1.67658 31.5173 4.30275 1.67658
87 2 31.4163 4.32776 -1.58391 31.4163 4.32776 -1.58391
88 1 32.417 5.96211 0.0295342 32.417 5.96211 0.0295342
89 2 34.3771 5.95398 1.58945 34.3771 5.95398 1.58945
90 2 34.2572 5.97018 -1.67048 34.2572 5.97018 -1.67048
91 1 35.2673 4.31548 -0.0836116 35.2673 4.31548 -0.0836116
92 2 37.2296 4.30166 1.47343 37.2296 4.30166 1.47343
93 2 37.1049 4.32934 -1.78626 37.1049 4.32934 -1.78626
94 1 38.1173 5.96232 -0.178784 38.1173 5.96232 -0.178784
95 2 40.0739 5.95126 1.38553 40.0739 5.95126 1.38553
96 2 39.961 5.97347 -1.87466 39.961 5.97347 -1.87466
97 1 40.9676 4.31593 -0.288619 40.9676 4.31593 -0.288619
98 2 42.9134 4.29855 1.28922 42.9134 4.29855 1.28922
99 2 42.823 4.33353 -1.97156 42.823 4.33353 -1.97156
100 1 43.8185 5.96277 -0.349813 43.8185 5.96277 -0.349813
101 2 45.7457 5.94645 1.25083 45.7457 5.94645 1.25083
102 2 45.6934 5.97935 -2.01083 45.6934 5.97935 -2.01083
103 1 46.6701 4.31652 -0.411741 46.6701 4.31652 -0.411741
104 2 48.5775 4.29494 1.21253 48.5775 4.29494 1.21253
105 2 48.5654 4.33838 -2.04938 48.5654 4.33838 -2.04938
106 1 49.522 5.96326 -0.399907 49.522 5.96326 -0.399907
107 2 51.4064 5.94189 1.25106 51.4064 5.94189 1.25106
108 2 51.44 5.98486 -2.01072 51.44 5.98486 -2.01072
109 1 1.05397 7.6099 -0.348178 1.05397 7.6099 -0.348178
110 2 2.91767 7.5892 1.32606 2.91767 7.5892 1.32606
111 2 2.99181 7.63072 -1.93507 2.99181 7.63072 -1.93507
112 1 3.90479 9.25645 -0.26177 3.90479 9.25645 -0.26177
113 2 5.75353 9.23749 1.42894 5.75353 9.23749 1.42894
114 2 5.85666 9.27539 -1.83143 5.85666 9.27539 -1.83143
115 1 6.75554 7.60976 -0.190231 6.75554 7.60976 -0.190231
116 2 8.59712 7.58793 1.50819 8.59712 7.58793 1.50819
117 2 8.71412 7.63148 -1.75162 8.71412 7.63148 -1.75162
118 1 9.60527 9.25614 -0.0654343 9.60527 9.25614 -0.0654343
119 2 11.4477 9.23807 1.63203 11.4477 9.23807 1.63203
120 2 11.5632 9.27408 -1.62789 11.5632 9.27408 -1.62789
121 1 12.4558 7.60928 0.0175274 12.4558 7.60928 0.0175274
122 2 14.3047 7.59063 1.70789 14.3047 7.59063 1.70789
123 2 14.4078 7.6278 -1.55242 14.4078 7.6278 -1.55242
124 1 15.3063 9.25576 0.12675 15.3063 9.25576 0.12675
125 2 17.1706 9.24282 1.80003 17.1706 9.24282 1.80003
126 2 17.2439 9.26864 -1.46117 17.2439 9.26864 -1.46117
127 1 18.1579 7.60891 0.177681 18.1579 7.60891 0.177681
128 2 20.0383 7.59623 1.83283 20.0383 7.59623 1.83283
129 2 20.0803 7.62157 -1.42892 20.0803 7.62157 -1.42892
130 1 21.0099 9.25564 0.227104 21.0099 9.25564 0.227104
131 2 22.9126 9.24983 1.85661 22.9126 9.24983 1.85661
132 2 22.9104 9.26146 -1.40547 22.9104 9.26146 -1.40547
133 1 23.8624 7.60884 0.218957 23.8624 7.60884 0.218957
134 2 25.7831 7.60222 1.82713 25.7831 7.60222 1.82713
135 2 25.7445 7.61543 -1.43472 25.7445 7.61543 -1.43472
136 1 26.7144 9.2557 0.191704 26.7144 9.2557 0.191704
137 2 28.6544 9.25577 1.77661 28.6544 9.25577 1.77661
138 2 28.5765 9.25558 -1.48458 28.5765 9.25558 -1.48458
139 1 29.5661 7.60888 0.123369 29.5661 7.60888 0.123369
140 2 31.5183 7.60564 1.69314 31.5183 7.60564 1.69314
141 2 31.415 7.61203 -1.56736 31.415 7.61203 -1.56736
142 1 32.4167 9.2557 0.0360153 32.4167 9.2557 0.0360153
143 2 34.3769 9.25755 1.59577 34.3769 9.25755 1.59577
144 2 34.2568 9.25373 -1.66418 34.2568 9.25373 -1.66418
145 1 35.2671 7.60893 -0.0672654 35.2671 7.60893 -0.0672654
146 2 37.2285 7.60469 1.4911 37.2285 7.60469 1.4911
147 2 37.1058 7.61311 -1.76879 37.1058 7.61311 -1.76879
148 1 38.117 9.25568 -0.17036 38.117 9.25568 -0.17036
149 2 40.0714 9.25429 1.3968 40.0714 9.25429 1.3968
150 2 39.9631 9.25707 -1.86364 39.9631 9.25707 -1.86364
151 1 40.9675 7.60913 -0.266248 40.9675 7.60913 -0.266248
152 2 42.9107 7.59995 1.31479 42.9107 7.59995 1.31479
153 2 42.8255 7.61846 -1.9463 42.8255 7.61846 -1.9463
154 1 43.8184 9.25591 -0.331234 43.8184 9.25591 -0.331234
155 2 45.742 9.24779 1.27369 45.742 9.24779 1.27369
156 2 45.6968 9.26425 -1.98822 45.6968 9.26425 -1.98822
157 1 46.6701 7.60957 -0.378567 46.6701 7.60957 -0.378567
158 2 48.5746 7.59384 1.24896 48.5746 7.59384 1.24896
159 2 48.5679 7.62556 -2.01314 48.5679 7.62556 -2.01314
160 1 49.5218 9.25632 -0.367942 49.5218 9.25632 -0.367942
161 2 51.4032 9.24123 1.28645 51.4032 9.24123 1.28645
162 2 51.4426 9.27162 -1.97544 51.4426 9.27162 -1.97544
163 1 1.05357 10.903 -0.317537 1.05357 10.903 -0.317537
164 2 2.91472 10.8892 1.35959 2.91472 10.8892 1.35959
165 2 2.99374 10.9169 -1.90159 2.99374 10.9169 -1.90159
166 1 3.90424 12.5496 -0.233849 3.90424 12.5496 -0.233849
167 2 5.75144 12.5384 1.45861 5.75144 12.5384 1.45861
168 2 5.85751 12.5608 -1.80182 5.85751 12.5608 -1.80182
169 1 6.75485 10.9029 -0.151862 6.75485 10.9029 -0.151862
170 2 8.5967 10.8873 1.54633 8.5967 10.8873 1.54633
171 2 8.71316 10.9185 -1.71364 8.71316 10.9185 -1.71364
172 1 9.60459 12.5495 -0.0337449 9.60459 12.5495 -0.0337449
173 2 11.4486 12.5388 1.66212 11.4486 12.5388 1.66212
174 2 11.5611 12.5601 -1.59804 11.5611 12.5601 -1.59804
175 1 12.4552 10.9026 0.0540985 12.4552 10.9026 0.0540985
176 2 14.307 10.8901 1.74129 14.307 10.8901 1.74129
177 2 14.4045 10.9151 -1.51929 14.4045 10.9151 -1.51929
178 1 15.3058 12.5493 0.152223 15.3058 12.5493 0.152223
179 2 17.1741 12.5437 1.82122 17.1741 12.5437 1.82122
180 2 17.2399 12.5548 -1.44021 17.2399 12.5548 -1.44021
181 1 18.1577 10.9024 0.203996 18.1577 10.9024 0.203996
182 2 20.0424 10.8967 1.85426 20.0424 10.8967 1.85426
183 2 20.0758 10.9082 -1.40765 20.0758 10.9082 -1.40765
184 1 21.0098 12.5493 0.239014 21.0098 12.5493 0.239014
185 2 22.917 12.5514 1.86321 22.917 12.5514 1.86321
186 2 22.9057 12.5472 -1.39887 22.9057 12.5472 -1.39887
187 1 23.8622 10.9025 0.230889 23.8622 10.9025 0.230889
188 2 25.7868 10.9042 1.83447 25.7868 10.9042 1.83447
189 2 25.7405 10.9008 -1.4273 25.7405 10.9008 -1.4273
190 1 26.7142 12.5494 0.188426 26.7142 12.5494 0.188426
191 2 28.6573 12.5582 1.76943 28.6573 12.5582 1.76943
192 2 28.5729 12.5405 -1.49155 28.5729 12.5405 -1.49155
193 1 29.5658 10.9025 0.123241 29.5658 10.9025 0.123241
194 2 31.5196 10.9088 1.69091 31.5196 10.9088 1.69091
195 2 31.4128 10.8961 -1.56946 31.4128 10.8961 -1.56946
196 1 32.4162 12.5493 0.023161 32.4162 12.5493 0.023161
197 2 34.3768 12.5606 1.58244 34.3768 12.5606 1.58244
198 2 34.2558 12.5378 -1.67741 34.2558 12.5378 -1.67741
199 1 35.2667 10.9024 -0.0711803 35.2667 10.9024 -0.0711803
200 2 37.2268 10.9082 1.48867 37.2268 10.9082 1.48867
201 2 37.1066 10.8965 -1.7713 37.1066 10.8965 -1.7713
202 1 38.1165 12.549 -0.182281 38.1165 12.549 -0.182281
203 2 40.0682 12.5573 1.38814 40.0682 12.5573 1.38814
204 2 39.9653 12.5407 -1.87244 39.9653 12.5407 -1.87244
205 1 40.9672 10.9024 -0.263594 40.9672 10.9024 -0.263594
206 2 42.9069 10.9027 1.32174 42.9069 10.9027 1.32174
207 2 42.8288 10.9022 -1.93958 42.8288 10.9022 -1.93958
208 1 43.8181 12.5491 -0.331952 43.8181 12.5491 -0.331952
209 2 45.7373 12.5502 1.27826 45.7373 12.5502 1.27826
210 2 45.701 12.5482 -1.98381 45.701 12.5482 -1.98381
211 1 46.6699 10.9027 -0.362088 46.6699 10.9027 -0.362088
212 2 48.5704 10.8952 1.27025 48.5704 10.8952 1.27025
213 2 48.5717 10.9104 -1.99199 48.5717 10.9104 -1.99199
214 1 49.5215 12.5494 -0.352721 49.5215 12.5494 -0.352721
215 2 51.3989 12.5428 1.30623 51.3989 12.5428 1.30623
216 2 51.4461 12.5563 -1.95567 51.4461 12.5563 -1.95567
217 1 1.0532 14.1962 -0.304041 1.0532 14.1962 -0.304041
218 2 2.91117 14.1913 1.37667 2.91117 14.1913 1.37667
219 2 2.99638 14.2012 -1.88446 2.99638 14.2012 -1.88446
220 1 3.90378 15.8429 -0.223917 3.90378 15.8429 -0.223917
221 2 5.7491 15.8411 1.47064 5.7491 15.8411 1.47064
222 2 5.85883 15.8447 -1.78973 5.85883 15.8447 -1.78973
223 1 6.75423 14.1963 -0.129206 6.75423 14.1963 -0.129206
224 2 8.5959 14.1892 1.56924 8.5959 14.1892 1.56924
225 2 8.71273 14.2032 -1.69082 8.71273 14.2032 -1.69082
226 1 9.60404 15.8429 -0.0194637 9.60404 15.8429 -0.0194637
227 2 11.4491 15.8414 1.67519 11.4491 15.8414 1.67519
228 2 11.5595 15.8444 -1.5851 11.5595 15.8444 -1.5851
229 1 12.4546 14.1961 0.0757755 12.4546 14.1961 0.0757755
230 2 14.3092 14.1918 1.76005 14.3092 14.1918 1.76005
231 2 14.4015 14.2004 -1.50077 14.4015 14.2004 -1.50077
232 1 15.3055 15.8429 0.161004 15.3055 15.8429 0.161004
233 2 17.1772 15.8459 1.82608 17.1772 15.8459 1.82608
234 2 17.2362 15.8399 -1.43549 17.2362 15.8399 -1.43549
235 1 18.1574 14.1961 0.215439 18.1574 14.1961 0.215439
236 2 20.0466 14.1984 1.86066 20.0466 14.1984 1.86066
237 2 20.0713 14.1939 -1.40134 20.0713 14.1939 -1.40134
238 1 21.0097 15.843 0.234723 21.0097 15.843 0.234723
239 2 22.9212 15.853 1.85375 22.9212 15.853 1.85375
240 2 22.9012 15.8331 -1.40823 22.9012 15.8331 -1.40823
241 1 23.8621 14.1962 0.226841 23.8621 14.1962 0.226841
242 2 25.7908 14.206 1.8254 25.7908 14.206 1.8254
243 2 25.736 14.1864 -1.43619 25.736 14.1864 -1.43619
244 1 26.7139 15.843 0.168791 26.7139 15.843 0.168791
245 2 28.6601 15.8593 1.74583 28.6601 15.8593 1.74583
246 2 28.5692 15.8266 -1.51487 28.5692 15.8266 -1.51487
247 1 29.5653 14.1962 0.105405 29.5653 14.1962 0.105405
248 2 31.5211 14.2109 1.67059 31.5211 14.2109 1.67059
249 2 31.4103 14.1813 -1.58954 31.4103 14.1813 -1.58954
250 1 32.4156 15.8427 -0.00678982 32.4156 15.8427 -0.00678982
251 2 34.3765 15.8616 1.55186 34.3765 15.8616 1.55186
252 2 34.2547 15.8236 -1.70782 34.2547 15.8236 -1.70782
253 1 35.266 14.1958 -0.0942679 35.266 14.1958 -0.0942679
254 2 37.225 14.2105 1.46702 37.225 14.2105 1.46702
255 2 37.1072 14.181 -1.79293 37.1072 14.181 -1.79293
256 1 38.1158 15.8423 -0.2122 38.1158 15.8423 -0.2122
257 2 40.0649 15.8586 1.36143 40.0649 15.8586 1.36143
258 2 39.9675 15.8259 -1.89918 39.9675 15.8259 -1.89918
259 1 40.9667 14.1956 -0.280531 40.9667 14.1956 -0.280531
260 2 42.9026 14.2051 1.3095 42.9026 14.2051 1.3095
261 2 42.8324 14.1862 -1.95195 42.8324 14.1862 -1.95195
262 1 43.8178 15.8422 -0.351205 43.8178 15.8422 -0.351205
263 2 45.7324 15.8521 1.26445 45.7324 15.8521 1.26445
264 2 45.7054 15.8326 -1.99765 45.7054 15.8326 -1.99765
265 1 46.6696 14.1958 -0.364362 46.6696 14.1958 -0.364362
266 2 48.5654 14.1974 1.27348 48.5654 14.1974 1.27348
267 2 48.5762 14.1944 -1.98878 48.5762 14.1944 -1.98878
268 1 49.5213 15.8426 -0.355971 49.5213 15.8426 -0.355971
269 2 51.3944 15.8452 1.30786 51.3944 15.8452 1.30786
270 2 51.4501 15.8402 -1.95392 51.4501 15.8402 -1.95392
271 1 1.05293 17.4894 -0.309202 1.05293 17.4894 -0.309202
272 2 2.90769 17.494 1.37507 2.90769 17.494 1.37507
273 2 2.99917 17.4849 -1.88588 2.99917 17.4849 -1.88588
274 1 3.90351 19.1362 -0.233196 3.90351 19.1362 -0.233196
275 2 5.747 19.1441 1.46334 5.747 19.1441 1.46334
276 2 5.8603 19.1283 -1.79687 5.8603 19.1283 -1.79687
277 1 6.75379 17.4896 -0.125599 6.75379 17.4896 -0.125599
278 2 8.59498 17.4923 1.57337 8.59498 17.4923 1.57337
279 2 8.71276 17.4869 -1.68668 8.71276 17.4869 -1.68668
280 1 9.60372 19.1364 -0.0249313 9.60372 19.1364 -0.0249313
281 2 11.4495 19.1445 1.66895 11.4495 19.1445 1.66895
282 2 11.5586 19.1283 -1.59134 11.5586 19.1283 -1.59134
283 1 12.4543 17.4897 0.0788558 12.4543 17.4897 0.0788558
284 2 14.3109 17.4946 1.76076 14.3109 17.4946 1.76076
285 2 14.3991 17.4848 -1.50016 14.3991 17.4848 -1.50016
286 1 15.3053 19.1366 0.151122 15.3053 19.1366 0.151122
287 2 17.1797 19.1479 1.81319 17.1797 19.1479 1.81319
288 2 17.2335 19.1251 -1.4484 17.2335 19.1251 -1.4484
289 1 18.1573 17.4898 0.209566 18.1573 17.4898 0.209566
290 2 20.0502 17.5 1.85042 20.0502 17.5 1.85042
291 2 20.0675 17.4796 -1.41157 20.0675 17.4796 -1.41157
292 1 21.0095 19.1366 0.214149 21.0095 19.1366 0.214149
293 2 22.9245 19.1531 1.82908 22.9245 19.1531 1.82908
294 2 22.8976 19.1201 -1.43277 22.8976 19.1201 -1.43277
295 1 23.8619 17.4899 0.206918 23.8619 17.4899 0.206918
296 2 25.7942 17.5064 1.80096 25.7942 17.5064 1.80096
297 2 25.732 17.4732 -1.4604 25.732 17.4732 -1.4604
298 1 26.7135 19.1365 0.135327 26.7135 19.1365 0.135327
299 2 28.6623 19.1578 1.70913 28.6623 19.1578 1.70913
300 2 28.5661 19.1149 -1.55132 28.5661 19.1149 -1.55132
301 1 29.5648 17.4896 0.0724688 29.5648 17.4896 0.0724688
302 2 31.5224 17.5105 1.63532 31.5224 17.5105 1.63532
303 2 31.4078 17.4684 -1.62455 31.4078 17.4684 -1.62455
304 1 32.4149 19.136 -0.0493602 32.4149 19.136 -0.0493602
305 2 34.3762 19.1595 1.50881 34.3762 19.1595 1.50881
306 2 34.2536 19.1122 -1.75072 34.2536 19.1122 -1.75072
307 1 35.2653 17.4891 -0.13272 35.2653 17.4891 -0.13272
308 2 37.2231 17.5102 1.42987 37.2231 17.5102 1.42987
309 2 37.1077 17.4678 -1.83001 37.1077 17.4678 -1.83001
310 1 38.1152 19.1354 -0.255215 38.1152 19.1354 -0.255215
311 2 40.062 19.1572 1.32123 40.062 19.1572 1.32123
312 2 39.9694 19.1136 -1.93938 39.9694 19.1136 -1.93938
313 1 40.9662 17.4887 -0.313866 40.9662 17.4887 -0.313866
314 2 42.8985 17.5056 1.28059 42.8985 17.5056 1.28059
315 2 42.8358 17.472 -1.98088 42.8358 17.472 -1.98088
316 1 43.8175 19.1353 -0.385397 43.8175 19.1353 -0.385397
317 2 45.7281 19.1522 1.23502 45.7281 19.1522 1.23502
318 2 45.7093 19.1187 -2.02699 45.7093 19.1187 -2.02699
319 1 46.6694 17.4889 -0.38431 46.6694 17.4889 -0.38431
320 2 48.5607 17.4991 1.25883 48.5607 17.4991 1.25883
321 2 48.5806 17.479 -2.00331 48.5806 17.479 -2.00331
322 1 49.5211 19.1357 -0.376552 49.5211 19.1357 -0.376552
323 2 51.3904 19.147 1.2916 51.3904 19.147 1.2916
324 2 51.4537 19.1246 -1.96995 51.4537 19.1246 -1.96995
325 1 1.05282 20.7825 -0.331889 1.05282 20.7825 -0.331889
326 2 2.90494 20.7959 1.35526 2.90494 20.7959 1.35526
327 2 3.00162 20.7693 -1.90542 3.00162 20.7693 -1.90542
328 1 3.90348 22.4293 -0.260256 3.90348 22.4293 -0.260256
329 2 5.74554 22.4458 1.43778 5.74554 22.4458 1.43778
330 2 5.86166 22.413 -1.82219 5.86166 22.413 -1.82219
331 1 6.7536 20.783 -0.141579 6.7536 20.783 -0.141579
332 2 8.5942 20.7951 1.55798 8.5942 20.7951 1.55798
333 2 8.71314 20.7709 -1.70195 8.71314 20.7709 -1.70195
334 1 9.60368 22.4298 -0.0494742 9.60368 22.4298 -0.0494742
335 2 11.4496 22.4463 1.64414 11.4496 22.4463 1.64414
336 2 11.5584 22.4133 -1.61604 11.5584 22.4133 -1.61604
337 1 12.4541 20.7833 0.0625086 12.4541 20.7833 0.0625086
338 2 14.3121 20.7968 1.74288 14.3121 20.7968 1.74288
339 2 14.3978 20.7697 -1.51802 14.3978 20.7697 -1.51802
340 1 15.3053 22.4301 0.12373 15.3053 22.4301 0.12373
341 2 17.181 22.4481 1.7842 17.181 22.4481 1.7842
342 2 17.2322 22.4119 -1.47734 17.2322 22.4119 -1.47734
343 1 18.1572 20.7834 0.186622 18.1572 20.7834 0.186622
344 2 20.0526 20.8002 1.82451 20.0526 20.8002 1.82451
345 2 20.0649 20.7664 -1.43742 20.0649 20.7664 -1.43742
346 1 21.0095 22.43 0.180012 21.0095 22.43 0.180012
347 2 22.9262 22.4506 1.79264 22.9262 22.4506 1.79264
348 2 22.8955 22.4093 -1.4691 22.8955 22.4093 -1.4691
349 1 23.8617 20.7833 0.173577 23.8617 20.7833 0.173577
350 2 25.7966 20.8042 1.76443 25.7966 20.8042 1.76443
351 2 25.729 20.7621 -1.49674 25.729 20.7621 -1.49674
352 1 26.7132 22.4297 0.0928085 26.7132 22.4297 0.0928085
353 2 28.6634 22.4529 1.66471 28.6634 22.4529 1.66471
354 2 28.5641 22.4062 -1.59561 28.5641 22.4062 -1.59561
355 1 29.5643 20.7828 0.0290955 29.5643 20.7828 0.0290955
356 2 31.5231 20.8069 1.59031 31.5231 20.8069 1.59031
357 2 31.4058 20.7586 -1.6694 31.4058 20.7586 -1.6694
358 1 32.4142 22.4291 -0.0982235 32.4142 22.4291 -0.0982235
359 2 34.3756 22.4537 1.45984 34.3756 22.4537 1.45984
360 2 34.2529 22.4043 -1.79966 34.2529 22.4043 -1.79966
361 1 35.2646 20.7822 -0.180668 35.2646 20.7822 -0.180668
362 2 37.2215 20.8065 1.38307 37.2215 20.8065 1.38307
363 2 37.108 20.7578 -1.87679 37.108 20.7578 -1.87679
364 1 38.1146 22.4285 -0.304644 38.1146 22.4285 -0.304644
365 2 40.0597 22.4523 1.27393 40.0597 22.4523 1.27393
366 2 39.9708 22.4047 -1.9867 39.9708 22.4047 -1.9867
367 1 40.9658 20.7818 -0.358117 40.9658 20.7818 -0.358117
368 2 42.895 20.8034 1.2399 42.895 20.8034 1.2399
369 2 42.8385 20.7604 -2.02154 42.8385 20.7604 -2.02154
370 1 43.8172 22.4284 -0.428987 43.8172 22.4284 -0.428987
371 2 45.725 22.4496 1.19483 45.725 22.4496 1.19483
372 2 45.7121 22.4074 -2.06708 45.7121 22.4074 -2.06708
373 1 46.6693 20.782 -0.418328 46.6693 20.782 -0.418328
374 2 48.5568 20.7991 1.22902 48.5568 20.7991 1.22902
375 2 48.5842 20.7651 -2.03292 48.5842 20.7651 -2.03292
376 1 49.5211 22.4287 -0.411071 49.5211 22.4287 -0.411071
377 2 51.3877 22.4471 1.26012 51.3877 22.4471 1.26012
378 2 51.4564 22.4107 -2.00117 51.4564 22.4107 -2.00117
379 1 1.05291 24.0756 -0.368749 1.05291 24.0756 -0.368749
380 2 2.90339 24.0959 1.32016 2.90339 24.0959 1.32016
381 2 3.00335 24.0555 -1.94025 3.00335 24.0555 -1.94025
382 1 3.90372 25.7224 -0.301256 3.90372 25.7224 -0.301256
383 2 5.74489 25.7451 1.39768 5.74489 25.7451 1.39768
384 2 5.8628 25.7 -1.86206 5.8628 25.7 -1.86206
385 1 6.7537 24.0762 -0.174871 6.7537 24.0762 -0.174871
386 2 8.59367 24.096 1.52529 8.59367 24.096 1.52529
387 2 8.71387 24.0565 -1.73443 8.71387 24.0565 -1.73443
388 1 9.60394 25.723 -0.0894157 9.60394 25.723 -0.0894157
389 2 11.4494 25.7452 1.60463 11.4494 25.7452 1.60463
390 2 11.5591 25.7008 -1.6554 11.5591 25.7008 -1.6554
391 1 12.4542 24.0766 0.0291174 12.4542 24.0766 0.0291174
392 2 14.3125 24.0966 1.70908 14.3125 24.0966 1.70908
393 2 14.3976 24.0566 -1.55172 14.3976 24.0566 -1.55172
394 1 15.3055 25.7233 0.0832382 15.3055 25.7233 0.0832382
395 2 17.1809 25.7449 1.74385 17.1809 25.7449 1.74385
396 2 17.2325 25.7016 -1.51762 17.2325 25.7016 -1.51762
397 1 18.1572 24.0767 0.150029 18.1572 24.0767 0.150029
398 2 20.0533 24.0974 1.78689 20.0533 24.0974 1.78689
399 2 20.064 24.0558 -1.47499 20.064 24.0558 -1.47499
400 1 21.0094 25.7232 0.137921 21.0094 25.7232 0.137921
401 2 22.9261 25.7442 1.75047 22.9261 25.7442 1.75047
402 2 22.8954 25.702 -1.5113 22.8954 25.702 -1.5113
403 1 23.8615 24.0765 0.131873 23.8615 24.0765 0.131873
404 2 25.7973 24.0984 1.72146 25.7973 24.0984 1.72146
405 2 25.7277 24.0543 -1.53967 25.7277 24.0543 -1.53967
406 1 26.7129 25.7227 0.0481519 26.7129 25.7227 0.0481519
407 2 28.6632 25.7438 1.61983 28.6632 25.7438 1.61983
408 2 28.5635 25.7014 -1.64056 28.5635 25.7014 -1.64056
409 1 29.5638 24.0759 -0.0180974 29.5638 24.0759 -0.0180974
410 2 31.523 24.0992 1.54252 31.523 24.0992 1.54252
411 2 31.4048 24.0524 -1.71719 31.4048 24.0524 -1.71719
412 1 32.4137 25.7221 -0.145576 32.4137 25.7221 -0.145576
413 2 34.3748 25.7438 1.41278 34.3748 25.7438 1.41278
414 2 34.2527 25.7004 -1.84682 34.2527 25.7004 -1.84682
415 1 35.264 24.0753 -0.230741 35.264 24.0753 -0.230741
416 2 37.2202 24.099 1.3339 37.2202 24.099 1.3339
417 2 37.1083 24.0515 -1.92601 37.1083 24.0515 -1.92601
418 1 38.1141 25.7216 -0.352749 38.1141 25.7216 -0.352749
419 2 40.0584 25.7438 1.22693 40.0584 25.7438 1.22693
420 2 39.9714 25.6996 -2.03377 39.9714 25.6996 -2.03377
421 1 40.9654 24.0749 -0.406403 40.9654 24.0749 -0.406403
422 2 42.8929 24.0979 1.19383 42.8929 24.0979 1.19383
423 2 42.8402 24.0521 -2.0676 42.8402 24.0521 -2.0676
424 1 43.817 25.7215 -0.475326 43.817 25.7215 -0.475326
425 2 45.7236 25.744 1.14998 45.7236 25.744 1.14998
426 2 45.7134 25.6992 -2.11186 45.7134 25.6992 -2.11186
427 1 46.6692 24.075 -0.461155 46.6692 24.075 -0.461155
428 2 48.5546 24.0966 1.18868 48.5546 24.0966 1.18868
429 2 48.5864 24.0537 -2.07308 48.5864 24.0537 -2.07308
430 1 49.5212 25.7218 -0.454505 49.5212 25.7218 -0.454505
431 2 51.3866 25.7446 1.218 51.3866 25.7446 1.218
432 2 51.4578 25.6993 -2.04309 51.4578 25.6993 -2.04309
433 1 1.05319 27.3686 -0.414521 1.05319 27.3686 -0.414521
434 2 2.90319 27.3929 1.27489 2.90319 27.3929 1.27489
435 2 3.00421 27.3447 -1.98536 3.00421 27.3447 -1.98536
436 1 3.9042 29.0155 -0.350082 3.9042 29.0155 -0.350082
437 2 5.74501 29.0406 1.34923 5.74501 29.0406 1.34923
438 2 5.86371 28.9906 -1.9104 5.86371 28.9906 -1.9104
439 1 6.75412 27.3693 -0.220547 6.75412 27.3693 -0.220547
440 2 8.59332 27.3935 1.48037 8.59332 27.3935 1.48037
441 2 8.71501 27.3452 -1.77918 8.71501 27.3452 -1.77918
442 1 9.60447 29.0161 -0.138346 9.60447 29.0161 -0.138346
443 2 11.4487 29.0402 1.55701 11.4487 29.0402 1.55701
444 2 11.5608 28.9921 -1.7029 11.5608 28.9921 -1.7029
445 1 12.4546 27.3698 -0.0158807 12.4546 27.3698 -0.0158807
446 2 14.3118 27.3927 1.66506 14.3118 27.3927 1.66506
447 2 14.3987 27.3468 -1.59564 14.3987 27.3468 -1.59564
448 1 15.3058 29.0164 0.0367772 15.3058 29.0164 0.0367772
449 2 17.1793 29.0375 1.69942 17.1793 29.0375 1.69942
450 2 17.2345 28.9952 -1.56205 17.2345 28.9952 -1.56205
451 1 18.1574 27.3699 0.106145 18.1574 27.3699 0.106145
452 2 20.0524 27.3906 1.74415 20.0524 27.3906 1.74415
453 2 20.0651 27.3489 -1.51776 20.0651 27.3489 -1.51776
454 1 21.0095 29.0163 0.0956163 21.0095 29.0163 0.0956163
455 2 22.9243 29.0337 1.71032 22.9243 29.0337 1.71032
456 2 22.8972 28.9986 -1.5516 22.8972 28.9986 -1.5516
457 1 23.8614 27.3695 0.0890901 23.8614 27.3695 0.0890901
458 2 25.7964 27.3884 1.67953 25.7964 27.3884 1.67953
459 2 25.7282 27.3504 -1.58174 25.7282 27.3504 -1.58174
460 1 26.7127 29.0158 0.00956292 26.7127 29.0158 0.00956292
461 2 28.6619 29.0307 1.58265 28.6619 29.0307 1.58265
462 2 28.5645 29.0007 -1.67798 28.5645 29.0007 -1.67798
463 1 29.5635 27.369 -0.0610256 29.5635 27.369 -0.0610256
464 2 31.5223 27.3874 1.50005 31.5223 27.3874 1.50005
465 2 31.4048 27.3505 -1.75982 31.4048 27.3505 -1.75982
466 1 32.4135 29.0153 -0.182972 32.4135 29.0153 -0.182972
467 2 34.3743 29.03 1.37584 34.3743 29.03 1.37584
468 2 34.2528 29.0006 -1.88394 34.2528 29.0006 -1.88394
469 1 35.2636 27.3685 -0.27469 35.2636 27.3685 -0.27469
470 2 37.2195 27.3876 1.29039 37.2195 27.3876 1.29039
471 2 37.1083 27.3493 -1.96965 37.1083 27.3493 -1.96965
472 1 38.1139 29.015 -0.391454 38.1139 29.015 -0.391454
473 2 40.0584 29.0316 1.18797 40.0584 29.0316 1.18797
474 2 39.9709 28.9984 -2.07283 39.9709 28.9984 -2.07283
475 1 40.9651 27.3681 -0.451146 40.9651 27.3681 -0.451146
476 2 42.8923 27.3889 1.14955 42.8923 27.3889 1.14955
477 2 42.8404 27.3475 -2.11192 42.8404 27.3475 -2.11192
478 1 43.817 29.0148 -0.517173 43.817 29.0148 -0.517173
479 2 45.7242 29.035 1.10742 45.7242 29.035 1.10742
480 2 45.7128 28.9948 -2.15444 45.7128 28.9948 -2.15444
481 1 46.6692 27.3682 -0.506447 46.6692 27.3682 -0.506447
482 2 48.5543 27.391 1.14376 48.5543 27.391 1.14376
483 2 48.5869 27.3456 -2.11791 48.5869 27.3456 -2.11791
484 1 49.5214 29.015 -0.50043 49.5214 29.015 -0.50043
485 2 51.3873 29.0386 1.17156 51.3873 29.0386 1.17156
486 2 51.4577 28.9916 -2.08949 51.4577 28.9916 -2.08949
487 1 1.05361 30.6618 -0.462122 1.05361 30.6618 -0.462122
488 2 2.9043 30.6859 1.22657 2.9043 30.6859 1.22657
489 2 3.00412 30.6379 -2.03369 3.00412 30.6379 -2.03369
490 1 3.90484 32.3087 -0.398672 3.90484 32.3087 -0.398672
491 2 5.74579 32.3319 1.30053 5.74579 32.3319 1.30053
492 2 5.8643 32.2856 -1.95914 5.8643 32.2856 -1.95914
493 1 6.75477 30.6624 -0.27127 6.75477 30.6624 -0.27127
494 2 8.59305 30.6869 1.43063 8.59305 30.6869 1.43063
495 2 8.71654 30.6381 -1.82885 8.71654 30.6381 -1.82885
496 1 9.60519 32.3092 -0.187839 9.60519 32.3092 -0.187839
497 2 11.4474 32.3308 1.50965 11.4474 32.3308 1.50965
498 2 11.5633 32.2877 -1.75021 11.5633 32.2877 -1.75021
499 1 12.4551 30.6629 -0.0646667 12.4551 30.6629 -0.0646667
500 2 14.3101 30.6844 1.61867 14.3101 30.6844 1.61867
501 2 14.4013 30.6413 -1.64198 14.4013 30.6413 -1.64198
502 1 15.3063 32.3095 -0.00707711 15.3063 32.3095 -0.00707711
503 2 17.1765 32.326 1.65923 17.1765 32.326 1.65923
504 2 17.2379 32.2928 -1.60226 17.2379 32.2928 -1.60226
505 1 18.1576 30.6629 0.0631832 18.1576 30.6629 0.0631832
506 2 20.0498 30.6796 1.70437 20.0498 30.6796 1.70437
507 2 20.0679 30.646 -1.55764 20.0679 30.646 -1.55764
508 1 21.0096 32.3093 0.0613725 21.0096 32.3093 0.0613725
509 2 22.921 32.3196 1.68006 22.921 32.3196 1.68006
510 2 22.9006 32.2988 -1.58206 22.9006 32.2988 -1.58206
511 1 23.8614 30.6626 0.0534799 23.8614 30.6626 0.0534799
512 2 25.7941 30.6746 1.64668 25.7941 30.6746 1.64668
513 2 25.7305 30.6503 -1.61485 25.7305 30.6503 -1.61485
514 1 26.7128 32.3089 -0.0151813 26.7128 32.3089 -0.0151813
515 2 28.6598 32.3145 1.56057 28.6598 32.3145 1.56057
516 2 28.5668 32.3032 -1.70032 28.5668 32.3032 -1.70032
517 1 29.5634 30.6621 -0.0914342 29.5634 30.6621 -0.0914342
518 2 31.5212 30.6719 1.47092 31.5212 30.6719 1.47092
519 2 31.4058 30.6522 -1.78919 31.4058 30.6522 -1.78919
520 1 32.4136 32.3086 -0.202923 32.4136 32.3086 -0.202923
521 2 34.3741 32.3133 1.35624 34.3741 32.3133 1.35624
522 2 34.2532 32.304 -1.90369 34.2532 32.304 -1.90369
523 1 35.2635 30.6618 -0.304436 35.2635 30.6618 -0.304436
524 2 37.2197 30.6727 1.26029 37.2197 30.6727 1.26029
525 2 37.1079 30.6509 -1.99987 37.1079 30.6509 -1.99987
526 1 38.1139 32.3085 -0.41348 38.1139 32.3085 -0.41348
527 2 40.06 32.3165 1.16412 40.06 32.3165 1.16412
528 2 39.9694 32.3005 -2.09671 39.9694 32.3005 -2.09671
529 1 40.965 30.6616 -0.484743 40.965 30.6616 -0.484743
530 2 42.8936 30.6766 1.11439 42.8936 30.6766 1.11439
531 2 42.8391 30.6467 -2.14713 42.8391 30.6467 -2.14713
532 1 43.817 32.3083 -0.547316 43.817 32.3083 -0.547316
533 2 45.7268 32.3226 1.07432 45.7268 32.3226 1.07432
534 2 45.7103 32.2941 -2.18761 45.7103 32.2941 -2.18761
535 1 46.6693 30.6615 -0.547058 46.6693 30.6615 -0.547058
536 2 48.5561 30.6818 1.10133 48.5561 30.6818 1.10133
537 2 48.5855 30.6414 -2.1604 48.5855 30.6414 -2.1604
538 1 49.5217 32.3083 -0.5413 49.5217 32.3083 -0.5413
539 2 51.3896 32.3287 1.12843 51.3896 32.3287 1.12843