ITEM: TIMESTEP
30000
ITEM: NUMBER OF ATOMS
810
ITEM: BOX BOUNDS pp pp pp
8.4971217713896763e-01 5.2167892822859947e+01
8.0915214781222999e-01 5.0207062852187242e+01
-1.0000000000000000e+01 1.0000000000000000e+01
ITEM: ATOMS id type x y z xu yu zu
1 1 1.05452 1.02328 -0.406986 1.05452 1.02328 -0.406986
2 2 2.90367 1.02891 1.28354 2.90367 1.02891 1.28354
3 2 3.00631 1.01768 -1.97701 3.00631 1.01768 -1.97701
4 1 3.90527 2.66992 -0.322371 3.90527 2.66992 -0.322371
5 2 5.74381 2.67701 1.37958 5.74381 2.67701 1.37958
6 2 5.86681 2.66285 -1.88025 5.86681 2.66285 -1.88025
7 1 6.75524 1.02341 -0.207227 6.75524 1.02341 -0.207227
8 2 8.5903 1.03029 1.49837 8.5903 1.03029 1.49837
9 2 8.71995 1.01657 -1.7612 8.71995 1.01657 -1.7612
10 1 9.60515 2.67009 -0.100487 9.60515 2.67009 -0.100487
11 2 11.4455 2.67843 1.59922 11.4455 2.67843 1.59922
12 2 11.565 2.66177 -1.66072 11.565 2.66177 -1.66072
13 1 12.4552 1.02359 0.0125405 12.4552 1.02359 0.0125405
14 2 14.308 1.03158 1.69863 14.308 1.03158 1.69863
15 2 14.4037 1.01561 -1.56209 14.4037 1.01561 -1.56209
16 1 15.3062 2.67025 0.0880745 15.3062 2.67025 0.0880745
17 2 17.1773 2.67891 1.75363 17.1773 2.67891 1.75363
18 2 17.2373 2.66158 -1.50795 17.2373 2.66158 -1.50795
19 1 18.1579 1.0237 0.149057 18.1579 1.0237 0.149057
20 2 20.0509 1.03194 1.7896 20.0509 1.03194 1.7896
21 2 20.0677 1.01544 -1.47249 20.0677 1.01544 -1.47249
22 1 21.01 2.67028 0.155014 21.01 2.67028 0.155014
23 2 22.9252 2.67809 1.76956 22.9252 2.67809 1.76956
24 2 22.8976 2.66241 -1.49247 22.8976 2.66241 -1.49247
25 1 23.8621 1.02366 0.138359 23.8621 1.02366 0.138359
26 2 25.7981 1.03126 1.7278 25.7981 1.03126 1.7278
27 2 25.7281 1.016 -1.53359 25.7281 1.016 -1.53359
28 1 26.7136 2.67015 0.0688312 26.7136 2.67015 0.0688312
29 2 28.6653 2.67656 1.63897 28.6653 2.67656 1.63897
30 2 28.5628 2.66368 -1.62158 28.5628 2.66368 -1.62158
31 1 29.5643 1.02349 -0.0147356 29.5643 1.02349 -0.0147356
32 2 31.5264 1.0301 1.54241 31.5264 1.0301 1.54241
33 2 31.4022 1.01684 -1.71738 31.4022 1.01684 -1.71738
34 1 32.4143 2.66998 -0.130532 32.4143 2.66998 -0.130532
35 2 34.3787 2.67515 1.42375 34.3787 2.67515 1.42375
36 2 34.2496 2.6648 -1.83585 34.2496 2.6648 -1.83585
37 1 35.2641 1.02332 -0.238517 35.2641 1.02332 -0.238517
38 2 37.2242 1.02898 1.32144 37.2242 1.02898 1.32144
39 2 37.1043 1.01765 -1.93851 37.1043 1.01765 -1.93851
40 1 38.1143 2.66986 -0.349283 38.1143 2.66986 -0.349283
41 2 40.0624 2.6744 1.22583 40.0624 2.6744 1.22583
42 2 39.9674 2.66536 -2.03494 39.9674 2.66536 -2.03494
43 1 40.9652 1.02322 -0.427642 40.9652 1.02322 -0.427642
44 2 42.8961 1.02824 1.16867 42.8961 1.02824 1.16867
45 2 42.8366 1.01823 -2.09294 42.8366 1.01823 -2.09294
46 1 43.817 2.66982 -0.484506 43.817 2.66982 -0.484506
47 2 45.7267 2.67453 1.13723 45.7267 2.67453 1.13723
48 2 45.7101 2.66513 -2.12488 45.7101 2.66513 -2.12488
49 1 46.6691 1.02321 -0.493812 46.6691 1.02321 -0.493812
50 2 48.5564 1.02815 1.15399 48.5564 1.02815 1.15399
51 2 48.5845 1.01831 -2.10804 48.5845 1.01831 -2.10804
52 1 49.5212 2.66983 -0.473696 49.5212 2.66983 -0.473696
53 2 51.3877 2.6755 1.19774 51.3877 2.6755 1.19774
54 2 51.4568 2.66418 -2.06368 51.4568 2.66418 -2.06368
55 1 1.0546 4.31645 -0.418416 1.0546 4.31645 -0.418416
56 2 2.90441 4.32326 1.27138 2.90441 4.32326 1.27138
57 2 3.0058 4.30966 -1.98919 3.0058 4.30966 -1.98919
58 1 3.90544 5.96309 -0.336116 3.90544 5.96309 -0.336116
59 2 5.74477 5.97096 1.36497 5.74477 5.97096 1.36497
60 2 5.86627 5.95526 -1.89491 5.86627 5.95526 -1.89491
61 1 6.75542 4.31658 -0.221536 6.75542 4.31658 -0.221536
62 2 8.59108 4.32493 1.48338 8.59108 4.32493 1.48338
63 2 8.71956 4.30827 -1.77623 8.71956 4.30827 -1.77623
64 1 9.60541 5.96326 -0.117343 9.60541 5.96326 -0.117343
65 2 11.446 5.97203 1.58208 11.446 5.97203 1.58208
66 2 11.565 5.95452 -1.67788 11.565 5.95452 -1.67788
67 1 12.4554 4.31676 -0.00432589 12.4554 4.31676 -0.00432589
68 2 14.3083 4.32564 1.68164 14.3083 4.32564 1.68164
69 2 14.4038 4.30791 -1.5791 14.4038 4.30791 -1.5791
70 1 15.3064 5.96341 0.0700908 15.3064 5.96341 0.0700908
71 2 17.1769 5.97151 1.73629 17.1769 5.97151 1.73629
72 2 17.238 5.9553 -1.52529 17.238 5.9553 -1.52529
73 1 18.158 4.31686 0.131478 18.158 4.31686 0.131478
74 2 20.0503 4.32488 1.77273 20.0503 4.32488 1.77273
75 2 20.0684 4.3088 -1.48937 20.0684 4.3088 -1.48937
76 1 21.0101 5.96341 0.138682 21.0101 5.96341 0.138682
77 2 22.924 5.96957 1.75462 22.924 5.96957 1.75462
78 2 22.8988 5.95717 -1.50745 22.8988 5.95717 -1.50745
79 1 23.8621 4.31679 0.122436 23.8621 4.31679 0.122436
80 2 25.7971 4.32305 1.7131 25.7971 4.32305 1.7131
81 2 25.7291 4.31045 -1.54836 25.7291 4.31045 -1.54836
82 1 26.7135 5.96327 0.0560112 26.7135 5.96327 0.0560112
83 2 28.6639 5.96721 1.62769 28.6639 5.96721 1.62769
84 2 28.5641 5.95929 -1.63297 28.5641 5.95929 -1.63297
85 1 29.5642 4.31663 -0.0278332 29.5642 4.31663 -0.0278332
86 2 31.5254 4.32117 1.53052 31.5254 4.32117 1.53052
87 2 31.4032 4.31207 -1.72937 31.4032 4.31207 -1.72937
88 1 32.4143 5.96315 -0.139786 32.4143 5.96315 -0.139786
89 2 34.3779 5.96556 1.41558 34.3779 5.96556 1.41558
90 2 34.2505 5.96076 -1.84411 34.2505 5.96076 -1.84411
91 1 35.2641 4.31651 -0.249026 35.2641 4.31651 -0.249026
92 2 37.2235 4.32009 1.31172 37.2235 4.32009 1.31172
93 2 37.1049 4.31297 -1.94828 37.1049 4.31297 -1.94828
94 1 38.1143 5.96311 -0.356513 38.1143 5.96311 -0.356513
95 2 40.0622 5.96542 1.21883 40.0622 5.96542 1.21883
96 2 39.9677 5.96083 -2.04196 39.9677 5.96083 -2.04196
97 1 40.9652 4.31646 -0.4368 40.9652 4.31646 -0.4368
98 2 42.896 4.32025 1.1597 42.896 4.32025 1.1597
99 2 42.8368 4.31269 -2.10192 42.8368 4.31269 -2.10192
100 1 43.817 5.96307 -0.492135 43.817 5.96307 -0.492135
101 2 45.7272 5.96678 1.12904 45.7272 5.96678 1.12904
102 2 45.7097 5.95937 -2.13307 45.7097 5.95937 -2.13307
103 1 46.6691 4.31643 -0.503305 46.6691 4.31643 -0.503305
104 2 48.5568 4.32148 1.14412 48.5568 4.32148 1.14412
105 2 48.5843 4.31138 -2.11792 48.5843 4.31138 -2.11792
106 1 49.5213 5.96304 -0.483889 49.5213 5.96304 -0.483889
107 2 51.3886 5.96891 1.1866 51.3886 5.96891 1.1866
108 2 51.4561 5.95716 -2.07485 51.4561 5.95716 -2.07485
109 1 1.05474 7.60966 -0.430276 1.05474 7.60966 -0.430276
110 2 2.90561 7.61639 1.25835 2.90561 7.61639 1.25835
111 2 3.00497 7.60293 -2.00228 3.00497 7.60293 -2.00228
112 1 3.90568 9.2563 -0.349709 3.90568 9.2563 -0.349709
113 2 5.74589 9.26338 1.35042 5.74589 9.26338 1.35042
114 2 5.8657 9.24925 -1.90953 5.8657 9.24925 -1.90953
115 1 6.75569 7.60975 -0.237414 6.75569 7.60975 -0.237414
116 2 8.59185 7.618 1.46695 8.59185 7.618 1.46695
117 2 8.71937 7.60157 -1.7927 8.71937 7.60157 -1.7927
118 1 9.60573 9.25643 -0.133989 9.60573 9.25643 -0.133989
119 2 11.4462 9.26391 1.56558 11.4462 9.26391 1.56558
120 2 11.5654 9.24901 -1.6944 11.5654 9.24901 -1.6944
121 1 12.4557 7.60992 -0.0220774 12.4557 7.60992 -0.0220774
122 2 14.3081 7.61788 1.66435 14.3081 7.61788 1.66435
123 2 14.4044 7.60199 -1.59639 14.4044 7.60199 -1.59639
124 1 15.3066 9.25655 0.0539494 15.3066 9.25655 0.0539494
125 2 17.176 9.26241 1.72143 17.176 9.26241 1.72143
126 2 17.2393 9.25068 -1.54014 17.2393 9.25068 -1.54014
127 1 18.1581 7.60999 0.11501 18.1581 7.60999 0.11501
128 2 20.0492 7.61605 1.75767 20.0492 7.61605 1.75767
129 2 20.0697 7.60388 -1.50444 20.0697 7.60388 -1.50444
130 1 21.0101 9.25652 0.126285 21.0101 9.25652 0.126285
131 2 22.9224 9.25964 1.74415 22.9224 9.25964 1.74415
132 2 22.9005 9.25333 -1.51798 22.9005 9.25333 -1.51798
133 1 23.8621 7.6099 0.109806 23.8621 7.6099 0.109806
134 2 25.7955 7.61338 1.70227 25.7955 7.61338 1.70227
135 2 25.7306 7.60636 -1.55928 25.7306 7.60636 -1.55928
136 1 26.7136 9.2564 0.0488364 26.7136 9.2564 0.0488364
137 2 28.6625 9.2568 1.62235 28.6625 9.2568 1.62235
138 2 28.5657 9.25596 -1.63841 28.5657 9.25596 -1.63841
139 1 29.5642 7.60978 -0.0359232 29.5642 7.60978 -0.0359232
140 2 31.5242 7.61107 1.5239 31.5242 7.61107 1.5239
141 2 31.4044 7.60848 -1.7361 31.4044 7.60848 -1.7361
142 1 32.4144 9.25635 -0.142454 32.4144 9.25635 -0.142454
143 2 34.3772 9.2552 1.41388 34.3772 9.2552 1.41388
144 2 34.2514 9.25754 -1.84588 34.2514 9.25754 -1.84588
145 1 35.2642 7.60974 -0.253916 35.2642 7.60974 -0.253916
146 2 37.2232 7.61029 1.30735 37.2232 7.61029 1.30735
147 2 37.1054 7.60923 -1.9527 37.1054 7.60923 -1.9527
148 1 38.1144 9.25637 -0.357583 38.1144 9.25637 -0.357583
149 2 40.0626 9.25576 1.21737 40.0626 9.25576 1.21737
150 2 39.9675 9.25703 -2.04341 39.9675 9.25703 -2.04341
151 1 40.9653 7.60973 -0.441427 40.9653 7.60973 -0.441427
152 2 42.8965 7.61146 1.15446 42.8965 7.61146 1.15446
153 2 42.8363 7.60803 -2.10714 42.8363 7.60803 -2.10714
154 1 43.817 9.25636 -0.49556 43.817 9.25636 -0.49556
155 2 45.7284 9.25819 1.12419 45.7284 9.25819 1.12419
156 2 45.7085 9.25452 -2.1379 45.7085 9.25452 -2.1379
157 1 46.6692 7.60969 -0.510765 46.6692 7.60969 -0.510765
158 2 48.5579 7.61388 1.13542 48.5579 7.61388 1.13542
159 2 48.5833 7.60547 -2.12663 48.5833 7.60547 -2.12663
160 1 49.5214 9.25629 -0.492345 49.5214 9.25629 -0.492345
161 2 51.3901 9.26114 1.17659 51.3901 9.26114 1.17659
162 2 51.4549 9.25142 -2.08491 51.4549 9.25142 -2.08491
163 1 1.05491 10.9029 -0.440074 1.05491 10.9029 -0.440074
164 2 2.90709 10.9081 1.24711 2.90709 10.9081 1.24711
165 2 3.00393 10.8977 -2.0136 3.00393 10.8977 -2.0136
166 1 3.90592 12.5495 -0.360168 3.90592 12.5495 -0.360168
167 2 5.747 12.5543 1.33901 5.747 12.5543 1.33901
168 2 5.86515 12.5448 -1.92101 5.86515 12.5448 -1.92101
169 1 6.756 10.903 -0.251711 6.756 10.903 -0.251711
170 2 8.59247 10.9094 1.4523 8.59247 10.9094 1.4523
171 2 8.71938 10.8966 -1.80739 8.71938 10.8966 -1.80739
172 1 9.60605 12.5496 -0.147043 9.60605 12.5496 -0.147043
173 2 11.446 12.5543 1.55301 11.446 12.5543 1.55301
174 2 11.5662 12.545 -1.70696 11.5662 12.545 -1.70696
175 1 12.456 10.9031 -0.0372071 12.456 10.9031 -0.0372071
176 2 14.3075 10.9086 1.65021 14.3075 10.9086 1.65021
177 2 14.4055 10.8976 -1.6105 14.4055 10.8976 -1.6105
178 1 15.3069 12.5497 0.0428415 15.3069 12.5497 0.0428415
179 2 17.1747 12.5522 1.71201 17.1747 12.5522 1.71201
180 2 17.2409 12.5472 -1.54953 17.2409 12.5472 -1.54953
181 1 18.1582 10.9031 0.103056 18.1582 10.9031 0.103056
182 2 20.0476 10.9059 1.74761 20.0476 10.9059 1.74761
183 2 20.0714 10.9002 -1.51451 20.0714 10.9002 -1.51451
184 1 21.0102 12.5496 0.120431 21.0102 12.5496 0.120431
185 2 22.9207 12.549 1.74043 22.9207 12.549 1.74043
186 2 22.9024 12.5502 -1.52173 22.9024 12.5502 -1.52173
187 1 23.8621 10.903 0.103332 23.8621 10.903 0.103332
188 2 25.7939 10.9028 1.69786 25.7939 10.9028 1.69786
189 2 25.7324 10.9032 -1.56377 25.7324 10.9032 -1.56377
190 1 26.7137 12.5495 0.0491517 26.7137 12.5495 0.0491517
191 2 28.6611 12.5461 1.62449 28.6611 12.5461 1.62449
192 2 28.5673 12.5529 -1.63637 28.5673 12.5529 -1.63637
193 1 29.5643 10.9029 -0.0368325 29.5643 10.9029 -0.0368325
194 2 31.5231 10.9004 1.52444 31.5231 10.9004 1.52444
195 2 31.4058 10.9055 -1.73564 31.4058 10.9055 -1.73564
196 1 32.4146 12.5495 -0.13738 32.4146 12.5495 -0.13738
197 2 34.3769 12.5448 1.41959 34.3769 12.5448 1.41959
198 2 34.2522 12.5543 -1.8402 34.2522 12.5543 -1.8402
199 1 35.2643 10.903 -0.251561 35.2643 10.903 -0.251561
200 2 37.2233 10.9001 1.30976 37.2233 10.9001 1.30976
201 2 37.1056 10.9059 -1.95029 37.1056 10.9059 -1.95029
202 1 38.1147 12.5496 -0.351633 38.1147 12.5496 -0.351633
203 2 40.0636 12.5459 1.22229 40.0636 12.5459 1.22229
204 2 39.9668 12.5534 -2.03843 39.9668 12.5534 -2.03843
205 1 40.9654 10.903 -0.440105 40.9654 10.903 -0.440105
206 2 42.8978 10.9021 1.15441 42.8978 10.9021 1.15441
207 2 42.8353 10.904 -2.10715 42.8353 10.904 -2.10715
208 1 43.8171 12.5497 -0.493563 43.8171 12.5497 -0.493563
209 2 45.7302 12.5489 1.12412 45.7302 12.5489 1.12412
210 2 45.7069 12.5503 -2.13794 45.7069 12.5503 -2.13794
211 1 46.6693 10.903 -0.514415 46.6693 10.903 -0.514415
212 2 48.5596 10.9053 1.12987 48.5596 10.9053 1.12987
213 2 48.5818 10.9007 -2.1322 48.5818 10.9007 -2.1322
214 1 49.5215 12.5496 -0.49694 49.5215 12.5496 -0.49694
215 2 51.3919 12.5522 1.17008 51.3919 12.5522 1.17008
216 2 51.4534 12.5469 -2.09149 51.4534 12.5469 -2.09149
217 1 1.05506 14.1962 -0.445323 1.05506 14.1962 -0.445323
218 2 2.90862 14.1986 1.24033 2.90862 14.1986 1.24033
219 2 3.00279 14.1938 -2.02047 3.00279 14.1938 -2.02047
220 1 3.9061 15.8428 -0.364931 3.9061 15.8428 -0.364931
221 2 5.74801 15.8442 1.33336 5.74801 15.8442 1.33336
222 2 5.86458 15.8415 -1.92673 5.86458 15.8415 -1.92673
223 1 6.75627 14.1962 -0.261288 6.75627 14.1962 -0.261288
224 2 8.59294 14.1996 1.44253 8.59294 14.1996 1.44253
225 2 8.71948 14.1929 -1.8172 8.71948 14.1929 -1.8172
226 1 9.60629 15.8428 -0.153797 9.60629 15.8428 -0.153797
227 2 11.4458 15.8439 1.54684 11.4458 15.8439 1.54684
228 2 11.5669 15.8418 -1.71311 11.5669 15.8418 -1.71311
229 1 12.4563 14.1963 -0.0467257 12.4563 14.1963 -0.0467257
230 2 14.3066 14.1983 1.64195 14.3066 14.1983 1.64195
231 2 14.4068 14.1943 -1.61872 14.4068 14.1943 -1.61872
232 1 15.307 15.8428 0.0387477 15.307 15.8428 0.0387477
233 2 17.1733 15.8417 1.70965 17.1733 15.8417 1.70965
234 2 17.2425 15.844 -1.55182 17.2425 15.844 -1.55182
235 1 18.1583 14.1962 0.0979014 18.1583 14.1962 0.0979014
236 2 20.046 14.1953 1.74449 20.046 14.1953 1.74449
237 2 20.0732 14.1971 -1.51761 20.0732 14.1971 -1.51761
238 1 21.0103 15.8428 0.122128 21.0103 15.8428 0.122128
239 2 22.9191 15.8386 1.74414 22.9191 15.8386 1.74414
240 2 22.9042 15.8469 -1.51803 22.9042 15.8469 -1.51803
241 1 23.8622 14.1961 0.104454 23.8622 14.1961 0.104454
242 2 25.7923 14.1922 1.70099 25.7923 14.1922 1.70099
243 2 25.7342 14.2 -1.5607 25.7342 14.2 -1.5607
244 1 26.7138 15.8427 0.0570155 26.7138 15.8427 0.0570155
245 2 28.66 15.8361 1.63386 28.66 15.8361 1.63386
246 2 28.5688 15.8493 -1.62704 28.5688 15.8493 -1.62704
247 1 29.5646 14.1961 -0.0299622 29.5646 14.1961 -0.0299622
248 2 31.5224 14.1901 1.53248 31.5224 14.1901 1.53248
249 2 31.407 14.2021 -1.72765 31.407 14.2021 -1.72765
250 1 32.4149 15.8427 -0.12527 32.4149 15.8427 -0.12527
251 2 34.377 15.8353 1.43193 34.377 15.8353 1.43193
252 2 34.2527 15.8503 -1.82786 34.2527 15.8503 -1.82786
253 1 35.2646 14.1962 -0.241881 35.2646 14.1962 -0.241881
254 2 37.2239 14.1902 1.31901 37.2239 14.1902 1.31901
255 2 37.1056 14.2022 -1.94099 37.1056 14.2022 -1.94099
256 1 38.1149 15.8429 -0.339433 38.1149 15.8429 -0.339433
257 2 40.065 15.8367 1.23307 40.065 15.8367 1.23307
258 2 39.9658 15.8491 -2.02757 39.9658 15.8491 -2.02757
259 1 40.9656 14.1963 -0.432516 40.9656 14.1963 -0.432516
260 2 42.8995 14.1926 1.1601 42.8995 14.1926 1.1601
261 2 42.8338 14.2 -2.1014 42.8338 14.2 -2.1014
262 1 43.8173 15.8429 -0.485991 43.8173 15.8429 -0.485991
263 2 45.7323 15.8396 1.1294 45.7323 15.8396 1.1294
264 2 45.705 15.8463 -2.13263 45.705 15.8463 -2.13263
265 1 46.6693 14.1963 -0.512925 46.6693 14.1963 -0.512925
266 2 48.5616 14.1959 1.12912 48.5616 14.1959 1.12912
267 2 48.5799 14.1966 -2.13298 48.5799 14.1966 -2.13298
268 1 49.5216 15.8429 -0.496141 49.5216 15.8429 -0.496141
269 2 51.3937 15.8425 1.16891 51.3937 15.8425 1.16891
270 2 51.4518 15.8432 -2.09273 51.4518 15.8432 -2.09273
271 1 1.05515 17.4895 -0.444489 1.05515 17.4895 -0.444489
272 2 2.91 17.4885 1.23975 2.91 17.4885 1.23975
273 2 3.00167 17.4905 -2.02112 3.00167 17.4905 -2.02112
274 1 3.9062 19.1361 -0.362856 3.9062 19.1361 -0.362856
275 2 5.74881 19.1339 1.33468 5.74881 19.1339 1.33468
276 2 5.86401 19.1383 -1.92546 5.86401 19.1383 -1.92546
277 1 6.75646 17.4895 -0.264007 6.75646 17.4895 -0.264007
278 2 8.59329 17.4891 1.43964 8.59329 17.4891 1.43964
279 2 8.7195 17.4899 -1.82011 8.7195 17.4899 -1.82011
280 1 9.60642 19.1361 -0.15303 9.60642 19.1361 -0.15303
281 2 11.4455 19.1335 1.54805 11.4455 19.1335 1.54805
282 2 11.5674 19.1386 -1.71187 11.5674 19.1386 -1.71187
283 1 12.4564 17.4894 -0.0489374 12.4564 17.4894 -0.0489374
284 2 14.3057 17.4878 1.64091 14.3057 17.4878 1.64091
285 2 14.408 17.4911 -1.61969 14.408 17.4911 -1.61969
286 1 15.3071 19.136 0.0420399 15.3071 19.136 0.0420399
287 2 17.1721 19.1316 1.71439 17.1721 19.1316 1.71439
288 2 17.2438 19.1403 -1.54702 17.2438 19.1403 -1.54702
289 1 18.1584 17.4894 0.100186 18.1584 17.4894 0.100186
290 2 20.0445 17.4851 1.74862 20.0445 17.4851 1.74862
291 2 20.0749 17.4936 -1.51344 20.0749 17.4936 -1.51344
292 1 21.0104 19.1359 0.130611 21.0104 19.1359 0.130611
293 2 22.9178 19.1292 1.75421 22.9178 19.1292 1.75421
294 2 22.9056 19.1425 -1.50794 22.9056 19.1425 -1.50794
295 1 23.8623 17.4893 0.112766 23.8623 17.4893 0.112766
296 2 25.7911 17.4825 1.71093 25.7911 17.4825 1.71093
297 2 25.7357 17.496 -1.55078 25.7357 17.496 -1.55078
298 1 26.714 19.1358 0.0706582 26.714 19.1358 0.0706582
299 2 28.6595 19.1275 1.64847 28.6595 19.1275 1.64847
300 2 28.5698 19.1441 -1.61246 28.5698 19.1441 -1.61246
301 1 29.5648 17.4893 -0.0166433 29.5648 17.4893 -0.0166433
302 2 31.5221 17.4811 1.54651 31.5221 17.4811 1.54651
303 2 31.4079 17.4975 -1.71364 31.4079 17.4975 -1.71364
304 1 32.4152 19.1359 -0.108627 32.4152 19.1359 -0.108627
305 2 34.3775 19.1273 1.44837 34.3775 19.1273 1.44837
306 2 34.2529 19.1446 -1.81139 34.2529 19.1446 -1.81139
307 1 35.265 17.4894 -0.226653 35.265 17.4894 -0.226653
308 2 37.2249 17.4815 1.33347 37.2249 17.4815 1.33347
309 2 37.1052 17.4973 -1.92648 37.1052 17.4973 -1.92648
310 1 38.1152 19.1361 -0.323403 38.1152 19.1361 -0.323403
311 2 40.0665 19.1287 1.24763 40.0665 19.1287 1.24763
312 2 39.9648 19.1435 -2.01293 39.9648 19.1435 -2.01293
313 1 40.9658 17.4896 -0.419854 40.9658 17.4896 -0.419854
314 2 42.9013 17.4837 1.17075 42.9013 17.4837 1.17075
315 2 42.8323 17.4954 -2.09067 42.8323 17.4954 -2.09067
316 1 43.8174 19.1362 -0.474152 43.8174 19.1362 -0.474152
317 2 45.7341 19.1309 1.1392 45.7341 19.1309 1.1392
318 2 45.7034 19.1415 -2.12281 45.7034 19.1415 -2.12281
319 1 46.6694 17.4896 -0.506107 46.6694 17.4896 -0.506107
320 2 48.5636 17.4865 1.13378 48.5636 17.4865 1.13378
321 2 48.5781 17.4926 -2.12834 48.5781 17.4926 -2.12834
322 1 49.5216 19.1362 -0.489817 49.5216 19.1362 -0.489817
323 2 51.3952 19.1329 1.17356 51.3952 19.1329 1.17356
324 2 51.4503 19.1394 -2.08813 51.4503 19.1394 -2.08813
325 1 1.05518 20.7828 -0.437782 1.05518 20.7828 -0.437782
326 2 2.91097 20.7788 1.2454 2.91097 20.7788 1.2454
327 2 3.00077 20.7868 -2.01552 3.00077 20.7868 -2.01552
328 1 3.9062 22.4294 -0.354763 3.9062 22.4294 -0.354763
329 2 5.74926 22.4244 1.34228 5.74926 22.4244 1.34228
330 2 5.86357 22.4344 -1.91788 5.86357 22.4344 -1.91788
331 1 6.75652 20.7827 -0.259508 6.75652 20.7827 -0.259508
332 2 8.59353 20.7789 1.44395 8.59353 20.7789 1.44395
333 2 8.71939 20.7865 -1.8158 8.71939 20.7865 -1.8158
334 1 9.60643 22.4293 -0.145363 9.60643 22.4293 -0.145363
335 2 11.4453 22.4239 1.55593 11.4453 22.4239 1.55593
336 2 11.5676 22.4347 -1.70395 11.5676 22.4347 -1.70395
337 1 12.4565 20.7826 -0.0438186 12.4565 20.7826 -0.0438186
338 2 14.305 20.7779 1.64685 14.305 20.7779 1.64685
339 2 14.4087 20.7873 -1.61369 14.4087 20.7873 -1.61369
340 1 15.3071 22.4291 0.0515526 15.3071 22.4291 0.0515526
341 2 17.1713 22.4227 1.72478 17.1713 22.4227 1.72478
342 2 17.2446 22.4356 -1.53656 17.2446 22.4356 -1.53656
343 1 18.1584 20.7825 0.108926 18.1584 20.7825 0.108926
344 2 20.0434 20.776 1.7587 20.0434 20.776 1.7587
345 2 20.0761 20.789 -1.50331 20.0761 20.789 -1.50331
346 1 21.0104 22.429 0.14371 21.0104 22.429 0.14371
347 2 22.9171 22.4213 1.76822 22.9171 22.4213 1.76822
348 2 22.9065 22.4367 -1.49392 22.9065 22.4367 -1.49392
349 1 23.8624 20.7824 0.126213 23.8624 20.7824 0.126213
350 2 25.7904 20.7743 1.72541 25.7904 20.7743 1.72541
351 2 25.7368 20.7905 -1.53631 25.7368 20.7905 -1.53631
352 1 26.7142 22.429 0.086995 26.7142 22.429 0.086995
353 2 28.6595 22.4208 1.66508 28.6595 22.4208 1.66508
354 2 28.5703 22.4372 -1.59584 28.5703 22.4372 -1.59584
355 1 29.5651 20.7824 0.000206015 29.5651 20.7824 0.000206015
356 2 31.5223 20.7738 1.56351 31.5223 20.7738 1.56351
357 2 31.4083 20.7911 -1.69664 31.4083 20.7911 -1.69664
358 1 32.4155 22.4291 -0.0910993 32.4155 22.4291 -0.0910993
359 2 34.3782 22.4212 1.46536 34.3782 22.4212 1.46536
360 2 34.2527 22.437 -1.79437 34.2527 22.437 -1.79437
361 1 35.2653 20.7826 -0.209135 35.2653 20.7826 -0.209135
362 2 37.2259 20.7746 1.35008 37.2259 20.7746 1.35008
363 2 37.1047 20.7907 -1.90982 37.1047 20.7907 -1.90982
364 1 38.1154 22.4293 -0.307036 38.1154 22.4293 -0.307036
365 2 40.0677 22.4223 1.26282 40.0677 22.4223 1.26282
366 2 39.964 22.4363 -1.99769 39.964 22.4363 -1.99769
367 1 40.966 20.7828 -0.404751 40.966 20.7828 -0.404751
368 2 42.9029 20.7761 1.18419 42.9029 20.7761 1.18419
369 2 42.831 20.7894 -2.07717 42.831 20.7894 -2.07717
370 1 43.8175 22.4294 -0.46067 43.8175 22.4294 -0.46067
371 2 45.7353 22.4234 1.15131 45.7353 22.4234 1.15131
372 2 45.7022 22.4354 -2.11068 45.7022 22.4354 -2.11068
373 1 46.6695 20.7828 -0.495332 46.6695 20.7828 -0.495332
374 2 48.565 20.7778 1.1429 48.565 20.7778 1.1429
375 2 48.5767 20.7878 -2.11923 48.5767 20.7878 -2.11923
376 1 49.5216 22.4294 -0.479555 49.5216 22.4294 -0.479555
377 2 51.3961 22.4242 1.18277 51.3961 22.4242 1.18277
378 2 51.4494 22.4347 -2.07895 51.4494 22.4347 -2.07895
379 1 1.05515 24.076 -0.42717 1.05515 24.076 -0.42717
380 2 2.91136 24.0702 1.25556 2.91136 24.0702 1.25556
381 2 3.00032 24.0818 -2.00539 3.00032 24.0818 -2.00539
382 1 3.90612 25.7226 -0.343036 3.90612 25.7226 -0.343036
383 2 5.74919 25.7161 1.35399 5.74919 25.7161 1.35399
384 2 5.86346 25.7292 -1.90616 5.86346 25.7292 -1.90616
385 1 6.75647 24.0759 -0.249328 6.75647 24.0759 -0.249328
386 2 8.59357 24.0698 1.45405 8.59357 24.0698 1.45405
387 2 8.71926 24.0821 -1.8057 8.71926 24.0821 -1.8057
388 1 9.60632 25.7225 -0.132911 9.60632 25.7225 -0.132911
389 2 11.4451 25.7154 1.56848 11.4451 25.7154 1.56848
390 2 11.5675 25.7295 -1.69138 11.5675 25.7295 -1.69138
391 1 12.4564 24.0758 -0.0329024 12.4564 24.0758 -0.0329024
392 2 14.3046 24.0691 1.65814 14.3046 24.0691 1.65814
393 2 14.409 24.0825 -1.60236 14.409 24.0825 -1.60236
394 1 15.307 25.7223 0.0650556 15.307 25.7223 0.0650556
395 2 17.1711 25.715 1.73851 17.1711 25.715 1.73851
396 2 17.2447 25.7295 -1.52281 17.2447 25.7295 -1.52281
397 1 18.1584 24.0756 0.121952 18.1584 24.0756 0.121952
398 2 20.0428 24.0683 1.77234 20.0428 24.0683 1.77234
399 2 20.0766 24.083 -1.48964 20.0766 24.083 -1.48964
400 1 21.0104 25.7222 0.158559 21.0104 25.7222 0.158559
401 2 22.917 25.715 1.78316 22.917 25.715 1.78316
402 2 22.9066 25.7293 -1.47897 22.9066 25.7293 -1.47897
403 1 23.8625 24.0756 0.141734 23.8625 24.0756 0.141734
404 2 25.7903 24.0679 1.74119 25.7903 24.0679 1.74119
405 2 25.7371 24.0832 -1.52052 25.7371 24.0832 -1.52052
406 1 26.7143 25.7222 0.102497 26.7143 25.7222 0.102497
407 2 28.6599 25.7157 1.68017 28.6599 25.7157 1.68017
408 2 28.57 25.7287 -1.58074 28.57 25.7287 -1.58074
409 1 29.5653 24.0756 0.016881 29.5653 24.0756 0.016881
410 2 31.5228 24.0684 1.57978 31.5228 24.0684 1.57978
411 2 31.4081 24.0829 -1.68035 31.4081 24.0829 -1.68035
412 1 32.4156 25.7223 -0.0764497 32.4156 25.7223 -0.0764497
413 2 34.3789 25.7168 1.47928 34.3789 25.7168 1.47928
414 2 34.2522 25.7278 -1.78042 34.2522 25.7278 -1.78042
415 1 35.2655 24.0758 -0.19316 35.2655 24.0758 -0.19316
416 2 37.2268 24.0693 1.36523 37.2268 24.0693 1.36523
417 2 37.1042 24.0823 -1.89463 37.1042 24.0823 -1.89463
418 1 38.1156 25.7225 -0.293868 38.1156 25.7225 -0.293868
419 2 40.0683 25.7174 1.27535 40.0683 25.7174 1.27535
420 2 39.9636 25.7275 -1.98514 39.9636 25.7275 -1.98514
421 1 40.9661 24.0759 -0.390568 40.9661 24.0759 -0.390568
422 2 42.9038 24.07 1.19742 42.9038 24.07 1.19742
423 2 42.8303 24.0819 -2.06392 42.8303 24.0819 -2.06392
424 1 43.8175 25.7226 -0.448632 43.8175 25.7226 -0.448632
425 2 45.7358 25.7173 1.1629 45.7358 25.7173 1.1629
426 2 45.7019 25.7278 -2.09909 45.7019 25.7278 -2.09909
427 1 46.6695 24.076 -0.48322 46.6695 24.076 -0.48322
428 2 48.5658 24.0704 1.1542 48.5658 24.0704 1.1542
429 2 48.576 24.0817 -2.10794 48.576 24.0817 -2.10794
430 1 49.5216 25.7226 -0.468052 49.5216 25.7226 -0.468052
431 2 51.3963 25.7168 1.19406 51.3963 25.7168 1.19406
432 2 51.4492 25.7285 -2.06767 51.4492 25.7285 -2.06767
433 1 1.05508 27.3692 -0.415414 1.05508 27.3692 -0.415414
434 2 2.91103 27.363 1.2676 2.91103 27.363 1.2676
435 2 3.00047 27.3755 -1.99334 3.00047 27.3755 -1.99334
436 1 3.906 29.0158 -0.330368 3.906 29.0158 -0.330368
437 2 5.74855 29.0089 1.36723 5.74855 29.0089 1.36723
438 2 5.86381 29.0227 -1.89289 5.86381 29.0227 -1.89289
439 1 6.75634 27.3692 -0.236077 6.75634 27.3692 -0.236077
440 2 8.59326 27.3619 1.46749 8.59326 27.3619 1.46749
441 2 8.71929 27.3764 -1.79223 8.71929 27.3764 -1.79223
442 1 9.60614 29.0157 -0.118236 9.60614 29.0157 -0.118236
443 2 11.4449 29.008 1.58325 11.4449 29.008 1.58325
444 2 11.5674 29.0232 -1.6766 11.5674 29.0232 -1.6766
445 1 12.4563 27.369 -0.0185954 12.4563 27.369 -0.0185954
446 2 14.3045 27.3615 1.67243 14.3045 27.3615 1.67243
447 2 14.4088 27.3764 -1.58806 14.4088 27.3764 -1.58806
448 1 15.3069 29.0155 0.080134 15.3069 29.0155 0.080134
449 2 17.1713 29.0084 1.75318 17.1713 29.0084 1.75318
450 2 17.2443 29.0225 -1.50815 17.2443 29.0225 -1.50815
451 1 18.1583 27.3688 0.136658 18.1583 27.3688 0.136658
452 2 20.043 27.3619 1.78685 20.043 27.3619 1.78685
453 2 20.0764 27.3757 -1.47512 20.0764 27.3757 -1.47512
454 1 21.0104 29.0154 0.172562 21.0104 29.0154 0.172562
455 2 22.9177 29.0099 1.79639 22.9177 29.0099 1.79639
456 2 22.9059 29.0209 -1.46573 22.9059 29.0209 -1.46573
457 1 23.8625 27.3688 0.156207 23.8625 27.3688 0.156207
458 2 25.7908 27.363 1.75511 25.7908 27.363 1.75511
459 2 25.7367 27.3746 -1.50658 25.7367 27.3746 -1.50658
460 1 26.7143 29.0154 0.114327 26.7143 29.0154 0.114327
461 2 28.6608 29.0118 1.69095 28.6608 29.0118 1.69095
462 2 28.5692 29.0191 -1.56992 28.5692 29.0191 -1.56992
463 1 29.5654 27.3689 0.0299786 29.5654 27.3689 0.0299786
464 2 31.5236 27.3644 1.59204 31.5236 27.3644 1.59204
465 2 31.4075 27.3733 -1.66806 31.4075 27.3733 -1.66806
466 1 32.4156 29.0155 -0.0673664 32.4156 29.0155 -0.0673664
467 2 34.3796 29.0132 1.48759 34.3796 29.0132 1.48759
468 2 34.2515 29.0179 -1.77207 34.2515 29.0179 -1.77207
469 1 35.2655 27.369 -0.181974 35.2655 27.369 -0.181974
470 2 37.2273 27.3653 1.37585 37.2273 27.3653 1.37585
471 2 37.1038 27.3727 -1.88399 37.1038 27.3727 -1.88399
472 1 38.1155 29.0156 -0.286324 38.1155 29.0156 -0.286324
473 2 40.0683 29.0133 1.28288 40.0683 29.0133 1.28288
474 2 39.9635 29.018 -1.97762 39.9635 29.018 -1.97762
475 1 40.9662 27.3691 -0.380278 40.9662 27.3691 -0.380278
476 2 42.9039 27.3651 1.20759 42.9039 27.3651 1.20759
477 2 42.8302 27.3732 -2.05376 42.8302 27.3732 -2.05376
478 1 43.8175 29.0157 -0.440444 43.8175 29.0157 -0.440444
479 2 45.7353 29.0122 1.17158 45.7353 29.0122 1.17158
480 2 45.7022 29.0193 -2.09044 45.7022 29.0193 -2.09044
481 1 46.6695 27.3692 -0.472593 46.6695 27.3692 -0.472593
482 2 48.5656 27.3642 1.16497 48.5656 27.3642 1.16497
483 2 48.5761 27.3743 -2.09719 48.5761 27.3743 -2.09719
484 1 49.5215 29.0158 -0.457879 49.5215 29.0158 -0.457879
485 2 51.3957 29.0106 1.2049 51.3957 29.0106 1.2049
486 2 51.4497 29.0211 -2.05683 51.4497 29.0211 -2.05683
487 1 1.05499 30.6624 -0.404824 1.05499 30.6624 -0.404824
488 2 2.91003 30.6567 1.27919 2.91003 30.6567 1.27919
489 2 3.00122 30.6682 -1.9817 3.00122 30.6682 -1.9817
490 1 3.90584 32.309 -0.31878 3.90584 32.309 -0.31878
491 2 5.74741 32.3027 1.37989 5.74741 32.3027 1.37989
492 2 5.86456 32.3152 -1.88017 5.86456 32.3152 -1.88017
493 1 6.75615 30.6623 -0.222223 6.75615 30.6623 -0.222223
494 2 8.59258 30.655 1.48189 8.59258 30.655 1.48189
495 2 8.71956 30.6696 -1.77779 8.71956 30.6696 -1.77779
496 1 9.60591 32.3088 -0.103508 9.60591 32.3088 -0.103508
497 2 11.4445 32.3016 1.59812 11.4445 32.3016 1.59812
498 2 11.5673 32.316 -1.66172 11.5673 32.316 -1.66172
499 1 12.4561 30.6622 -0.00322584 12.4561 30.6622 -0.00322584
500 2 14.3047 30.6549 1.68747 14.3047 30.6549 1.68747
501 2 14.4084 30.6694 -1.57302 14.4084 30.6694 -1.57302
502 1 15.3067 32.3087 0.0948229 15.3067 32.3087 0.0948229
503 2 17.172 32.3027 1.7669 17.172 32.3027 1.7669
504 2 17.2433 32.3147 -1.49446 17.2433 32.3147 -1.49446
505 1 18.1582 30.662 0.150874 18.1582 30.662 0.150874
506 2 20.0437 30.6564 1.80009 20.0437 30.6564 1.80009
507 2 20.0755 30.6677 -1.4619 20.0755 30.6677 -1.4619
508 1 21.0103 32.3086 0.184036 21.0103 32.3086 0.184036
509 2 22.919 32.3052 1.8063 22.919 32.3052 1.8063
510 2 22.9045 32.3121 -1.45581 22.9045 32.3121 -1.45581
511 1 23.8625 30.662 0.167446 23.8625 30.662 0.167446
512 2 25.7919 30.6587 1.76504 25.7919 30.6587 1.76504
513 2 25.7355 30.6654 -1.49662 25.7355 30.6654 -1.49662
514 1 26.7143 32.3087 0.121099 26.7143 32.3087 0.121099
515 2 28.6621 32.308 1.69618 28.6621 32.308 1.69618
516 2 28.5678 32.3095 -1.56462 28.5678 32.3095 -1.56462
517 1 29.5653 30.6621 0.0374703 29.5653 30.6621 0.0374703
518 2 31.5245 30.6609 1.5984 31.5245 30.6609 1.5984
519 2 31.4065 30.6634 -1.66164 31.4065 30.6634 -1.66164
520 1 32.4155 32.3088 -0.0647742 32.4155 32.3088 -0.0647742
521 2 34.38 32.3096 1.48945 34.38 32.3096 1.48945
522 2 34.2508 32.3079 -1.77017 34.2508 32.3079 -1.77017
523 1 35.2655 30.6622 -0.177252 35.2655 30.6622 -0.177252
524 2 37.2274 30.6616 1.38032 37.2274 30.6616 1.38032
525 2 37.1035 30.6628 -1.87951 37.1035 30.6628 -1.87951
526 1 38.1154 32.3088 -0.285154 38.1154 32.3088 -0.285154
527 2 40.0678 32.3092 1.28455 40.0678 32.3092 1.28455
528 2 39.9638 32.3083 -1.97599 39.9638 32.3083 -1.97599
529 1 40.9661 30.6622 -0.375535 40.9661 30.6622 -0.375535
530 2 42.9033 30.6606 1.21299 42.9033 30.6606 1.21299
531 2 42.8306 30.6639 -2.04839 42.8306 30.6639 -2.04839
532 1 43.8174 32.3089 -0.437218 43.8174 32.3089 -0.437218
533 2 45.7342 32.3074 1.17605 45.7342 32.3074 1.17605
534 2 45.7032 32.3104 -2.086 45.7032 32.3104 -2.086
535 1 46.6694 30.6623 -0.465411 46.6694 30.6623 -0.465411
536 2 48.5647 30.6588 1.17317 48.5647 30.6588 1.17317
537 2 48.5769 30.666 -2.089 48.5769 30.666 -2.089
538 1 49.5215 32.309 -0.450647 49.5215 32.309 -0.450647
539 2 51.3944 32.305 1.21351 51.3944 32.305 1.21351
540 2 51.4508 32.313 -2.04819 51.4508 32.313 -2.04819