ITEM: TIMESTEP
96000
ITEM: NUMBER OF ATOMS
810
ITEM: BOX BOUNDS pp pp pp
8.5448371663303402e-01 5.2163121283365918e+01
8.1163990953567755e-01 5.0204575090463479e+01
-1.0000000000000000e+01 1.0000000000000000e+01
ITEM: ATOMS id type x y z xu yu zu
1 1 1.06058 1.02679 -0.485605 1.06058 1.02679 -0.485605
2 2 2.91197 1.00662 1.20234 2.91197 1.00662 1.20234
3 2 3.01016 1.04694 -2.05811 3.01016 1.04694 -2.05811
4 1 3.9111 2.67301 -0.378741 3.9111 2.67301 -0.378741
5 2 5.74494 2.65238 1.32818 5.74494 2.65238 1.32818
6 2 5.87675 2.69357 -1.93108 5.87675 2.69357 -1.93108
7 1 6.76095 1.02642 -0.283774 6.76095 1.02642 -0.283774
8 2 8.58507 1.00601 1.43342 8.58507 1.00601 1.43342
9 2 8.7354 1.0467 -1.82504 8.7354 1.0467 -1.82504
10 1 9.60963 2.67246 -0.131289 9.60963 2.67246 -0.131289
11 2 11.4341 2.65212 1.58545 11.4341 2.65212 1.58545
12 2 11.5838 2.69263 -1.67303 11.5838 2.69263 -1.67303
13 1 12.4588 1.02576 -0.0206034 12.4588 1.02576 -0.0206034
14 2 14.2924 1.00566 1.68623 14.2924 1.00566 1.68623
15 2 14.4248 1.0457 -1.57301 14.4248 1.0457 -1.57301
16 1 15.3083 2.67179 0.115529 15.3083 2.67179 0.115529
17 2 17.1604 2.65274 1.8022 17.1604 2.65274 1.8022
18 2 17.2574 2.69072 -1.45829 17.2574 2.69072 -1.45829
19 1 18.1593 1.02516 0.180981 18.1593 1.02516 0.180981
20 2 20.0346 1.0057 1.84164 20.0346 1.0057 1.84164
21 2 20.0864 1.04451 -1.41987 20.0864 1.04451 -1.41987
22 1 21.0111 2.67138 0.245596 21.0111 2.67138 0.245596
23 2 22.9135 2.65377 1.87506 22.9135 2.65377 1.87506
24 2 22.9116 2.68895 -1.38688 22.9116 2.68895 -1.38688
25 1 23.8633 1.0249 0.225637 23.8633 1.0249 0.225637
26 2 25.7913 1.00589 1.82464 25.7913 1.00589 1.82464
27 2 25.7376 1.04389 -1.43685 25.7376 1.04389 -1.43685
28 1 26.7152 2.67138 0.197396 26.7152 2.67138 0.197396
29 2 28.666 2.65451 1.76846 28.666 2.65451 1.76846
30 2 28.5654 2.68828 -1.49195 28.5654 2.68828 -1.49195
31 1 29.5659 1.02508 0.0917226 29.5659 1.02508 0.0917226
32 2 31.5328 1.0061 1.64249 31.5328 1.0061 1.64249
33 2 31.3984 1.04416 -1.61668 31.3984 1.04416 -1.61668
34 1 32.4156 2.67174 -0.0071069 32.4156 2.67174 -0.0071069
35 2 34.3913 2.65479 1.53274 34.3913 2.65479 1.53274
36 2 34.2385 2.6888 -1.72568 34.2385 2.6888 -1.72568
37 1 35.2644 1.02563 -0.158292 35.2644 1.02563 -0.158292
38 2 37.2395 1.00654 1.38231 37.2395 1.00654 1.38231
39 2 37.0878 1.04488 -1.87612 37.0878 1.04488 -1.87612
40 1 38.1134 2.67232 -0.27175 38.1134 2.67232 -0.27175
41 2 40.0795 2.65483 1.28057 40.0795 2.65483 1.28057
42 2 39.9468 2.68996 -1.97874 39.9468 2.68996 -1.97874
43 1 40.963 1.02628 -0.405536 40.963 1.02628 -0.405536
44 2 42.912 1.00708 1.1682 42.912 1.00708 1.1682
45 2 42.8148 1.04563 -2.09231 42.8148 1.04563 -2.09231
46 1 43.8138 2.67287 -0.470855 43.8138 2.67287 -0.470855
47 2 45.7403 2.65438 1.1306 45.7403 2.65438 1.1306
48 2 45.6894 2.69151 -2.131 45.6894 2.69151 -2.131
49 1 46.6655 1.02673 -0.533751 46.6655 1.02673 -0.533751
50 2 48.5662 1.00711 1.09833 48.5662 1.00711 1.09833
51 2 48.5674 1.04644 -2.16361 48.5674 1.04644 -2.16361
52 1 49.5175 2.67316 -0.512306 49.5175 2.67316 -0.512306
53 2 51.3921 2.65334 1.14973 51.3921 2.65334 1.14973
54 2 51.4449 2.69303 -2.1118 51.4449 2.69303 -2.1118
55 1 1.06029 4.31948 -0.445446 1.06029 4.31948 -0.445446
56 2 2.91154 4.2998 1.24262 2.91154 4.2998 1.24262
57 2 3.00985 4.33914 -2.01787 3.00985 4.33914 -2.01787
58 1 3.91064 5.96568 -0.338919 3.91064 5.96568 -0.338919
59 2 5.7445 5.94701 1.36797 5.7445 5.94701 1.36797
60 2 5.87616 5.98427 -1.89137 5.87616 5.98427 -1.89137
61 1 6.76043 4.31912 -0.242052 6.76043 4.31912 -0.242052
62 2 8.58509 4.2991 1.47457 8.58509 4.2991 1.47457
63 2 8.73434 4.33899 -1.78395 8.73434 4.33899 -1.78395
64 1 9.60905 5.96519 -0.0908597 9.60905 5.96519 -0.0908597
65 2 11.4346 5.94732 1.62471 11.4346 5.94732 1.62471
66 2 11.5822 5.98289 -1.63392 11.5822 5.98289 -1.63392
67 1 12.4583 4.31849 0.0204694 12.4583 4.31849 0.0204694
68 2 14.2931 4.29986 1.72604 14.2931 4.29986 1.72604
69 2 14.4232 4.33695 -1.53331 14.4232 4.33695 -1.53331
70 1 15.308 5.96463 0.153157 15.308 5.96463 0.153157
71 2 17.1618 5.94935 1.83796 17.1618 5.94935 1.83796
72 2 17.2554 5.97982 -1.42268 17.2554 5.97982 -1.42268
73 1 18.1591 4.31797 0.219487 18.1591 4.31797 0.219487
74 2 20.0358 4.30159 1.87867 20.0358 4.30159 1.87867
75 2 20.0849 4.33429 -1.38292 20.0849 4.33429 -1.38292
76 1 21.011 5.96436 0.278754 21.011 5.96436 0.278754
77 2 22.915 5.95185 1.90648 22.915 5.95185 1.90648
78 2 22.91 5.97688 -1.35551 22.91 5.97688 -1.35551
79 1 23.8633 4.31781 0.261286 23.8633 4.31781 0.261286
80 2 25.7923 4.30323 1.85921 25.7923 4.30323 1.85921
81 2 25.7368 4.33242 -1.4023 25.7368 4.33242 -1.4023
82 1 26.7152 5.96442 0.226972 26.7152 5.96442 0.226972
83 2 28.6669 5.95352 1.7971 28.6669 5.95352 1.7971
84 2 28.5646 5.97535 -1.46333 28.5646 5.97535 -1.46333
85 1 29.5661 4.318 0.125927 29.5661 4.318 0.125927
86 2 31.5335 4.30397 1.67626 31.5335 4.30397 1.67626
87 2 31.3982 4.3321 -1.58296 31.3982 4.3321 -1.58296
88 1 32.4158 5.96469 0.0213774 32.4158 5.96469 0.0213774
89 2 34.3916 5.95379 1.56112 34.3916 5.95379 1.56112
90 2 34.2385 5.97563 -1.69738 34.2385 5.97563 -1.69738
91 1 35.2647 4.31843 -0.12384 35.2647 4.31843 -0.12384
92 2 37.2399 4.30386 1.41665 37.2399 4.30386 1.41665
93 2 37.0879 4.33311 -1.84187 37.0879 4.33311 -1.84187
94 1 38.1136 5.96508 -0.24214 38.1136 5.96508 -0.24214
95 2 40.0793 5.95287 1.31063 40.0793 5.95287 1.31063
96 2 39.9472 5.97739 -1.94882 39.9472 5.97739 -1.94882
97 1 40.9632 4.31896 -0.369968 40.9632 4.31896 -0.369968
98 2 42.9122 4.30304 1.20389 42.9122 4.30304 1.20389
99 2 42.815 4.33501 -2.05672 42.815 4.33501 -2.05672
100 1 43.8139 5.96551 -0.438513 43.8139 5.96551 -0.438513
101 2 45.7397 5.95096 1.16381 45.7397 5.95096 1.16381
102 2 45.6901 5.9802 -2.09792 45.6901 5.9802 -2.09792
103 1 46.6655 4.31938 -0.49618 46.6655 4.31938 -0.49618
104 2 48.5659 4.30147 1.13626 48.5659 4.30147 1.13626
105 2 48.5676 4.3374 -2.12576 48.5676 4.3374 -2.12576
106 1 49.5173 5.96579 -0.475974 49.5173 5.96579 -0.475974
107 2 51.3912 5.94858 1.18688 51.3912 5.94858 1.18688
108 2 51.4453 5.98307 -2.07472 51.4453 5.98307 -2.07472
109 1 1.05996 7.61211 -0.410569 1.05996 7.61211 -0.410569
110 2 2.91048 7.59616 1.2783 2.91048 7.59616 1.2783
111 2 3.01007 7.62805 -1.98225 3.01007 7.62805 -1.98225
112 1 3.91016 9.25837 -0.30665 3.91016 9.25837 -0.30665
113 2 5.74376 9.24473 1.40053 5.74376 9.24473 1.40053
114 2 5.87583 9.27193 -1.8589 5.87583 9.27193 -1.8589
115 1 6.75985 7.61183 -0.204304 6.75985 7.61183 -0.204304
116 2 8.58512 7.59548 1.5117 8.58512 7.59548 1.5117
117 2 8.73316 7.62804 -1.74697 8.73316 7.62804 -1.74697
118 1 9.60846 9.25801 -0.0578444 9.60846 9.25801 -0.0578444
119 2 11.4354 9.24549 1.65628 11.4354 9.24549 1.65628
120 2 11.5803 9.2704 -1.60256 11.5803 9.2704 -1.60256
121 1 12.4578 7.61133 0.0565548 12.4578 7.61133 0.0565548
122 2 14.2944 7.59721 1.76023 14.2944 7.59721 1.76023
123 2 14.4211 7.62533 -1.49932 14.4211 7.62533 -1.49932
124 1 15.3076 9.25765 0.181721 15.3076 9.25765 0.181721
125 2 17.1637 9.2485 1.86407 17.1637 9.2485 1.86407
126 2 17.253 9.26675 -1.39676 17.253 9.26675 -1.39676
127 1 18.1589 7.61098 0.250421 18.1589 7.61098 0.250421
128 2 20.0376 7.60025 1.90735 20.0376 7.60025 1.90735
129 2 20.0828 7.62171 -1.35435 20.0828 7.62171 -1.35435
130 1 21.0109 9.25754 0.300551 21.0109 9.25754 0.300551
131 2 22.9169 9.252 1.92601 22.9169 9.252 1.92601
132 2 22.908 9.26313 -1.33603 22.908 9.26313 -1.33603
133 1 23.8633 7.61095 0.286679 23.8633 7.61095 0.286679
134 2 25.7938 7.60295 1.88296 25.7938 7.60295 1.88296
135 2 25.7353 7.61899 -1.37856 25.7353 7.61899 -1.37856
136 1 26.7152 9.25764 0.243248 26.7152 9.25764 0.243248
137 2 28.6679 9.25431 1.81215 28.6679 9.25431 1.81215
138 2 28.5635 9.26098 -1.44827 28.5635 9.26098 -1.44827
139 1 29.5661 7.6111 0.14805 29.5661 7.6111 0.14805
140 2 31.534 7.60412 1.69786 31.534 7.60412 1.69786
141 2 31.3977 7.6181 -1.56139 31.3977 7.6181 -1.56139
142 1 32.4157 9.25776 0.0355382 32.4157 9.25776 0.0355382
143 2 34.3914 9.25455 1.5754 34.3914 9.25455 1.5754
144 2 34.2385 9.26095 -1.68318 34.2385 9.26095 -1.68318
145 1 35.2647 7.61134 -0.101734 35.2647 7.61134 -0.101734
146 2 37.2396 7.60353 1.43922 37.2396 7.60353 1.43922
147 2 37.0882 7.61919 -1.81942 37.0882 7.61919 -1.81942
148 1 38.1136 9.25791 -0.22632 38.1136 9.25791 -0.22632
149 2 40.0783 9.25283 1.32767 40.0783 9.25283 1.32767
150 2 39.9481 9.26304 -1.93195 39.9481 9.26304 -1.93195
151 1 40.9632 7.61166 -0.345177 40.9632 7.61166 -0.345177
152 2 42.9113 7.60154 1.22987 42.9113 7.60154 1.22987
153 2 42.8159 7.62189 -2.03092 42.8159 7.62189 -2.03092
154 1 43.8138 9.25817 -0.417971 43.8138 9.25817 -0.417971
155 2 45.7381 9.24987 1.18619 45.7381 9.24987 1.18619
156 2 45.6915 9.26659 -2.0757 45.6915 9.26659 -2.0757
157 1 46.6654 7.61199 -0.466641 46.6654 7.61199 -0.466641
158 2 48.5646 7.59871 1.16726 48.5646 7.59871 1.16726
159 2 48.5686 7.6254 -2.09488 48.5686 7.6254 -2.09488
160 1 49.5171 9.2584 -0.44902 49.5171 9.2584 -0.44902
161 2 51.3896 9.24664 1.21547 51.3896 9.24664 1.21547
162 2 51.4464 9.27024 -2.04621 51.4464 9.27024 -2.04621
163 1 1.05963 10.9048 -0.386728 1.05963 10.9048 -0.386728
164 2 2.90898 10.8952 1.30346 2.90898 10.8952 1.30346
165 2 3.01076 10.9143 -1.95715 3.01076 10.9143 -1.95715
166 1 3.90974 12.5511 -0.287353 3.90974 12.5511 -0.287353
167 2 5.74282 12.5448 1.42042 5.74282 12.5448 1.42042
168 2 5.87584 12.5574 -1.83907 5.87584 12.5574 -1.83907
169 1 6.7593 10.9046 -0.176756 6.7593 10.9046 -0.176756
170 2 8.58511 10.8946 1.5387 8.58511 10.8946 1.5387
171 2 8.73208 10.9145 -1.72012 8.73208 10.9145 -1.72012
172 1 9.60797 12.551 -0.0376124 9.60797 12.551 -0.0376124
173 2 11.4363 12.5457 1.67509 11.4363 12.5457 1.67509
174 2 11.5786 12.5561 -1.58394 11.5786 12.5561 -1.58394
175 1 12.4574 10.9043 0.0818579 12.4574 10.9043 0.0818579
176 2 14.2961 10.8969 1.78334 14.2961 10.8969 1.78334
177 2 14.4188 10.9117 -1.47644 14.4188 10.9117 -1.47644
178 1 15.3073 12.5508 0.196854 15.3073 12.5508 0.196854
179 2 17.1658 12.5491 1.87658 17.1658 12.5491 1.87658
180 2 17.2505 12.5525 -1.38441 17.2505 12.5525 -1.38441
181 1 18.1587 10.9042 0.268989 18.1587 10.9042 0.268989
182 2 20.0398 10.9007 1.92327 20.0398 10.9007 1.92327
183 2 20.0803 10.9077 -1.33854 20.0803 10.9077 -1.33854
184 1 21.0108 12.5509 0.307783 21.0108 12.5509 0.307783
185 2 22.9189 12.5531 1.93075 22.9189 12.5531 1.93075
186 2 22.9057 12.5487 -1.33129 22.9057 12.5487 -1.33129
187 1 23.8632 10.9042 0.298008 23.8632 10.9042 0.298008
188 2 25.7953 10.904 1.89233 25.7953 10.904 1.89233
189 2 25.7336 10.9045 -1.36916 25.7336 10.9045 -1.36916
190 1 26.715 12.5509 0.243799 26.715 12.5509 0.243799
191 2 28.6689 12.5557 1.81134 28.6689 12.5557 1.81134
192 2 28.5621 12.5462 -1.449 28.5621 12.5462 -1.449
193 1 29.5659 10.9043 0.154817 29.5659 10.9043 0.154817
194 2 31.5343 10.9054 1.70407 31.5343 10.9054 1.70407
195 2 31.397 10.9032 -1.55517 31.397 10.9032 -1.55517
196 1 32.4154 12.5509 0.0332439 32.4154 12.5509 0.0332439
197 2 34.3909 12.5558 1.57342 34.3909 12.5558 1.57342
198 2 34.2384 12.5459 -1.68517 34.2384 12.5459 -1.68517
199 1 35.2645 10.9043 -0.0952794 35.2645 10.9043 -0.0952794
200 2 37.2387 10.9044 1.44661 37.2387 10.9044 1.44661
201 2 37.0888 10.9042 -1.81215 37.0888 10.9042 -1.81215
202 1 38.1133 12.5508 -0.2266 38.1133 12.5508 -0.2266
203 2 40.0767 12.5536 1.32916 40.0767 12.5536 1.32916
204 2 39.9494 12.548 -1.93059 39.9494 12.548 -1.93059
205 1 40.9631 10.9044 -0.334903 40.9631 10.9044 -0.334903
206 2 42.9096 10.9016 1.24209 42.9096 10.9016 1.24209
207 2 42.8174 10.9073 -2.01886 42.8174 10.9073 -2.01886
208 1 43.8137 12.5508 -0.412341 43.8137 12.5508 -0.412341
209 2 45.736 12.5501 1.19423 45.736 12.5501 1.19423
210 2 45.6934 12.5517 -2.06777 45.6934 12.5517 -2.06777
211 1 46.6653 10.9046 -0.449787 46.6653 10.9046 -0.449787
212 2 48.5626 10.8981 1.1863 48.5626 10.8981 1.1863
213 2 48.5703 10.9112 -2.07594 48.5703 10.9112 -2.07594
214 1 49.5169 12.551 -0.435834 49.5169 12.551 -0.435834
215 2 51.3876 12.5467 1.23074 51.3876 12.5467 1.23074
216 2 51.4479 12.5554 -2.03097 51.4479 12.5554 -2.03097
217 1 1.05938 14.1974 -0.377975 1.05938 14.1974 -0.377975
218 2 2.90732 14.196 1.31377 2.90732 14.196 1.31377
219 2 3.01179 14.1989 -1.94681 3.01179 14.1989 -1.94681
220 1 3.90946 15.8439 -0.284399 3.90946 15.8439 -0.284399
221 2 5.74179 15.846 1.42419 5.74179 15.846 1.42419
222 2 5.87625 15.8418 -1.83526 5.87625 15.8418 -1.83526
223 1 6.75887 14.1975 -0.164023 6.75887 14.1975 -0.164023
224 2 8.58498 14.1954 1.55113 8.58498 14.1954 1.55113
225 2 8.73138 14.1995 -1.70777 8.73138 14.1995 -1.70777
226 1 9.60764 15.844 -0.0334085 9.60764 15.844 -0.0334085
227 2 11.437 15.8467 1.67821 11.437 15.8467 1.67821
228 2 11.5774 15.8411 -1.58091 11.5774 15.8411 -1.58091
229 1 12.457 14.1974 0.0924756 12.457 14.1974 0.0924756
230 2 14.2976 14.1976 1.79188 14.2976 14.1976 1.79188
231 2 14.4167 14.1972 -1.46807 14.4167 14.1972 -1.46807
232 1 15.3071 15.8441 0.196476 15.3071 15.8441 0.196476
233 2 17.1678 15.8498 1.87382 17.1678 15.8498 1.87382
234 2 17.2483 15.8382 -1.38726 17.2483 15.8382 -1.38726
235 1 18.1585 14.1975 0.272581 18.1585 14.1975 0.272581
236 2 20.042 14.2016 1.92418 20.042 14.2016 1.92418
237 2 20.0779 14.1934 -1.33769 20.0779 14.1934 -1.33769
238 1 21.0107 15.8442 0.299599 21.0107 15.8442 0.299599
239 2 22.9209 15.8537 1.92013 22.9209 15.8537 1.92013
240 2 22.9036 15.8346 -1.34185 22.9036 15.8346 -1.34185
241 1 23.8631 14.1976 0.293662 23.8631 14.1976 0.293662
242 2 25.7969 14.2051 1.88595 25.7969 14.2051 1.88595
243 2 25.7317 14.19 -1.37545 25.7317 14.19 -1.37545
244 1 26.7148 15.8442 0.22857 26.7148 15.8442 0.22857
245 2 28.6696 15.8563 1.7948 28.6696 15.8563 1.7948
246 2 28.5608 15.832 -1.46541 28.5608 15.832 -1.46541
247 1 29.5656 14.1975 0.145187 29.5656 14.1975 0.145187
248 2 31.5344 14.2066 1.69393 31.5344 14.2066 1.69393
249 2 31.3963 14.1884 -1.56523 31.3963 14.1884 -1.56523
250 1 32.415 15.8439 0.0148542 32.415 15.8439 0.0148542
251 2 34.39 15.8563 1.55553 34.39 15.8563 1.55553
252 2 34.2385 15.8315 -1.70302 34.2385 15.8315 -1.70302
253 1 35.2641 14.1973 -0.105405 35.2641 14.1973 -0.105405
254 2 37.2373 14.2053 1.43776 37.2373 14.2053 1.43776
255 2 37.0895 14.1893 -1.82106 37.0895 14.1893 -1.82106
256 1 38.1129 15.8436 -0.242838 38.1129 15.8436 -0.242838
257 2 40.0747 15.8539 1.31494 40.0747 15.8539 1.31494
258 2 39.9508 15.8334 -1.94488 39.9508 15.8334 -1.94488
259 1 40.9629 14.1972 -0.340616 40.9629 14.1972 -0.340616
260 2 42.9075 14.2022 1.23873 42.9075 14.2022 1.23873
261 2 42.8192 14.1922 -2.02233 42.8192 14.1922 -2.02233
262 1 43.8135 15.8435 -0.422496 43.8135 15.8435 -0.422496
263 2 45.7337 15.8506 1.18657 45.7337 15.8506 1.18657
264 2 45.6954 15.8366 -2.07544 45.6954 15.8366 -2.07544
265 1 46.6652 14.1973 -0.448306 46.6652 14.1973 -0.448306
266 2 48.5604 14.1987 1.19023 48.5604 14.1987 1.19023
267 2 48.5722 14.1959 -2.07203 48.5722 14.1959 -2.07203
268 1 49.5168 15.8437 -0.438714 49.5168 15.8437 -0.438714
269 2 51.3856 15.8477 1.22998 51.3856 15.8477 1.22998
270 2 51.4496 15.8398 -2.03166 51.4496 15.8398 -2.03166
271 1 1.05926 17.4901 -0.386012 1.05926 17.4901 -0.386012
272 2 2.90576 17.4972 1.3073 2.90576 17.4972 1.3073
273 2 3.01302 17.4832 -1.95316 3.01302 17.4832 -1.95316
274 1 3.90939 19.1367 -0.298554 3.90939 19.1367 -0.298554
275 2 5.7408 19.147 1.41099 5.7408 19.147 1.41099
276 2 5.87705 19.1264 -1.84831 5.87705 19.1264 -1.84831
277 1 6.75865 17.4904 -0.168334 6.75865 17.4904 -0.168334
278 2 8.58467 17.4966 1.54689 8.58467 17.4966 1.54689
279 2 8.73124 17.4842 -1.71198 8.73124 17.4842 -1.71198
280 1 9.60752 19.137 -0.0459829 9.60752 19.137 -0.0459829
281 2 11.4373 19.1474 1.66513 11.4373 19.1474 1.66513
282 2 11.5769 19.1266 -1.59397 11.5769 19.1266 -1.59397
283 1 12.4568 17.4906 0.0868746 12.4568 17.4906 0.0868746
284 2 14.2989 17.4983 1.78469 14.2989 17.4983 1.78469
285 2 14.4152 17.4828 -1.47532 14.4152 17.4828 -1.47532
286 1 15.3071 19.1372 0.180784 15.3071 19.1372 0.180784
287 2 17.1693 19.1496 1.85634 17.1693 19.1496 1.85634
288 2 17.2467 19.1248 -1.40476 17.2467 19.1248 -1.40476
289 1 18.1585 17.4907 0.260931 18.1585 17.4907 0.260931
290 2 20.044 17.5017 1.91016 20.044 17.5017 1.91016
291 2 20.0758 17.4797 -1.3517 20.0758 17.4797 -1.3517
292 1 21.0106 19.1374 0.277368 21.0106 19.1374 0.277368
293 2 22.9224 19.1528 1.89585 22.9224 19.1528 1.89585
294 2 22.9017 19.1219 -1.36604 22.9017 19.1219 -1.36604
295 1 23.8629 17.4908 0.274421 23.8629 17.4908 0.274421
296 2 25.7982 17.505 1.86482 25.7982 17.505 1.86482
297 2 25.7299 17.4766 -1.39644 25.7299 17.4766 -1.39644
298 1 26.7144 19.1373 0.199856 26.7144 19.1373 0.199856
299 2 28.6701 19.1549 1.76503 28.6701 19.1549 1.76503
300 2 28.5595 19.1195 -1.49504 28.5595 19.1195 -1.49504
301 1 29.5652 17.4906 0.120607 29.5652 17.4906 0.120607
302 2 31.5342 17.5062 1.66899 31.5342 17.5062 1.66899
303 2 31.3956 17.4749 -1.59006 31.3956 17.4749 -1.59006
304 1 32.4144 19.1369 -0.0168343 32.4144 19.1369 -0.0168343
305 2 34.3889 19.1547 1.5245 34.3889 19.1547 1.5245
306 2 34.2385 19.1189 -1.73401 34.2385 19.1189 -1.73401
307 1 35.2636 17.4902 -0.130506 35.2636 17.4902 -0.130506
308 2 37.2357 17.5048 1.41408 37.2357 17.5048 1.41408
309 2 37.0903 17.4755 -1.84475 37.0903 17.4755 -1.84475
310 1 38.1125 19.1364 -0.272557 38.1125 19.1364 -0.272557
311 2 40.0727 19.1526 1.28715 40.0727 19.1526 1.28715
312 2 39.9521 19.1202 -1.97268 39.9521 19.1202 -1.97268
313 1 40.9626 17.4899 -0.361428 40.9626 17.4899 -0.361428
314 2 42.9053 17.502 1.22023 42.9053 17.502 1.22023
315 2 42.821 17.4778 -2.04084 42.821 17.4778 -2.04084
316 1 43.8134 19.1362 -0.447043 43.8134 19.1362 -0.447043
317 2 45.7317 19.1501 1.1642 45.7317 19.1501 1.1642
318 2 45.6972 19.1224 -2.09775 45.6972 19.1224 -2.09775
319 1 46.6651 17.4899 -0.462615 46.6651 17.4899 -0.462615
320 2 48.5583 17.4992 1.17819 48.5583 17.4992 1.17819
321 2 48.5741 17.4807 -2.08398 48.5741 17.4807 -2.08398
322 1 49.5168 19.1363 -0.457518 49.5168 19.1363 -0.457518
323 2 51.3839 19.1482 1.21299 51.3839 19.1482 1.21299
324 2 51.4512 19.1246 -2.04848 51.4512 19.1246 -2.04848
325 1 1.05929 20.7828 -0.409878 1.05929 20.7828 -0.409878
326 2 2.90454 20.7973 1.28478 2.90454 20.7973 1.28478
327 2 3.01431 20.7685 -1.97547 3.01431 20.7685 -1.97547
328 1 3.90954 22.4294 -0.327797 3.90954 22.4294 -0.327797
329 2 5.74001 22.4464 1.38272 5.74001 22.4464 1.38272
330 2 5.87813 22.4125 -1.87638 5.87813 22.4125 -1.87638
331 1 6.75867 20.7832 -0.189235 6.75867 20.7832 -0.189235
332 2 8.58421 20.7969 1.52646 8.58421 20.7969 1.52646
333 2 8.73172 20.7696 -1.73228 8.73172 20.7696 -1.73228
334 1 9.60766 22.4299 -0.0736121 9.60766 22.4299 -0.0736121
335 2 11.4372 22.4464 1.63767 11.4372 22.4464 1.63767
336 2 11.5772 22.4133 -1.62132 11.5772 22.4133 -1.62132
337 1 12.4569 20.7836 0.0658369 12.4569 20.7836 0.0658369
338 2 14.2996 20.7978 1.76284 14.2996 20.7978 1.76284
339 2 14.4145 20.7693 -1.49715 14.4145 20.7693 -1.49715
340 1 15.3072 22.4303 0.151965 15.3072 22.4303 0.151965
341 2 17.17 22.4476 1.82666 17.17 22.4476 1.82666
342 2 17.2461 22.4129 -1.43441 17.2461 22.4129 -1.43441
343 1 18.1585 20.7839 0.235806 18.1585 20.7839 0.235806
344 2 20.0453 20.8002 1.88335 20.0453 20.8002 1.88335
345 2 20.0744 20.7675 -1.37848 20.0744 20.7675 -1.37848
346 1 21.0106 22.4304 0.244319 21.0106 22.4304 0.244319
347 2 22.9233 22.4494 1.86153 22.9233 22.4494 1.86153
348 2 22.9006 22.4112 -1.40031 22.9006 22.4112 -1.40031
349 1 23.8628 20.7839 0.243169 23.8628 20.7839 0.243169
350 2 25.799 20.8025 1.83216 25.799 20.8025 1.83216
351 2 25.7285 20.7651 -1.429 25.7285 20.7651 -1.429
352 1 26.7141 22.4302 0.16196 26.7141 22.4302 0.16196
353 2 28.6701 22.4506 1.72657 28.6701 22.4506 1.72657
354 2 28.5587 22.4096 -1.53343 28.5587 22.4096 -1.53343
355 1 29.5647 20.7835 0.0847644 29.5647 20.7835 0.0847644
356 2 31.5337 20.8033 1.63307 31.5337 20.8033 1.63307
357 2 31.3951 20.7637 -1.6259 31.3951 20.7637 -1.6259
358 1 32.4139 22.4297 -0.0569701 32.4139 22.4297 -0.0569701
359 2 34.3877 22.4502 1.48514 34.3877 22.4502 1.48514
360 2 34.2387 22.409 -1.77338 34.2387 22.409 -1.77338
361 1 35.2631 20.783 -0.166761 35.2631 20.783 -0.166761
362 2 37.234 20.8021 1.3792 37.234 20.8021 1.3792
363 2 37.091 20.7639 -1.87963 37.091 20.7639 -1.87963
364 1 38.112 22.4291 -0.31125 38.112 22.4291 -0.31125
365 2 40.071 22.4488 1.25002 40.071 22.4488 1.25002
366 2 39.9531 22.4095 -2.00981 39.9531 22.4095 -2.00981
367 1 40.9622 20.7826 -0.394288 40.9622 20.7826 -0.394288
368 2 42.9034 20.8001 1.18929 42.9034 20.8001 1.18929
369 2 42.8224 20.7652 -2.07174 42.8224 20.7652 -2.07174
370 1 43.8132 22.4289 -0.482403 43.8132 22.4289 -0.482403
371 2 45.7302 22.4475 1.1304 45.7302 22.4475 1.1304
372 2 45.6985 22.4103 -2.13144 45.6985 22.4103 -2.13144
373 1 46.665 20.7825 -0.490785 46.665 20.7825 -0.490785
374 2 48.5567 20.7984 1.15179 48.5567 20.7984 1.15179
375 2 48.5757 20.7668 -2.11024 48.5757 20.7668 -2.11024
376 1 49.5168 22.429 -0.489543 49.5168 22.429 -0.489543
377 2 51.3828 22.4468 1.18228 51.3828 22.4468 1.18228
378 2 51.4525 22.4113 -2.079 51.4525 22.4113 -2.079
379 1 1.05948 24.0755 -0.44587 1.05948 24.0755 -0.44587
380 2 2.90385 24.0951 1.24974 2.90385 24.0951 1.24974
381 2 3.01546 24.056 -2.01032 3.01546 24.056 -2.01032
382 1 3.9099 25.7221 -0.367399 3.9099 25.7221 -0.367399
383 2 5.73962 25.743 1.34391 5.73962 25.743 1.34391
384 2 5.87927 25.7013 -1.91502 5.87927 25.7013 -1.91502
385 1 6.75895 24.076 -0.223608 6.75895 24.076 -0.223608
386 2 8.58372 24.0951 1.49285 8.58372 24.0951 1.49285
387 2 8.73273 24.057 -1.76571 8.73273 24.057 -1.76571
388 1 9.60804 25.7227 -0.112175 9.60804 25.7227 -0.112175
389 2 11.4368 25.7429 1.5999 11.4368 25.7429 1.5999
390 2 11.5783 25.7025 -1.65896 11.5783 25.7025 -1.65896
391 1 12.4571 24.0765 0.0322774 12.4571 24.0765 0.0322774
392 2 14.2996 24.0952 1.72939 14.2996 24.0952 1.72939
393 2 14.4148 24.0578 -1.53052 14.4148 24.0578 -1.53052
394 1 15.3074 25.7231 0.114089 15.3074 25.7231 0.114089
395 2 17.1699 25.7427 1.78907 17.1699 25.7427 1.78907
396 2 17.2465 25.7034 -1.47197 17.2465 25.7034 -1.47197
397 1 18.1586 24.0768 0.200725 18.1586 24.0768 0.200725
398 2 20.0459 24.096 1.84764 20.0459 24.096 1.84764
399 2 20.0739 24.0575 -1.41417 20.0739 24.0575 -1.41417
400 1 21.0106 25.7232 0.205319 21.0106 25.7232 0.205319
401 2 22.9234 25.7428 1.82239 22.9234 25.7428 1.82239
402 2 22.9004 25.7034 -1.43948 22.9004 25.7034 -1.43948
403 1 23.8626 24.0767 0.20455 23.8626 24.0767 0.20455
404 2 25.7993 24.097 1.79294 25.7993 24.097 1.79294
405 2 25.7277 24.0563 -1.4682 25.7277 24.0563 -1.4682
406 1 26.7138 25.7229 0.120817 26.7138 25.7229 0.120817
407 2 28.6696 25.7427 1.68559 28.6696 25.7427 1.68559
408 2 28.5585 25.7029 -1.57446 28.5585 25.7029 -1.57446
409 1 29.5643 24.0763 0.0432131 29.5643 24.0763 0.0432131
410 2 31.5329 24.097 1.59183 31.5329 24.097 1.59183
411 2 31.3948 24.0555 -1.66717 31.3948 24.0555 -1.66717
412 1 32.4134 25.7224 -0.0990702 32.4134 25.7224 -0.0990702
413 2 34.3866 25.7422 1.44384 34.3866 25.7422 1.44384
414 2 34.2389 25.7025 -1.81476 34.2389 25.7025 -1.81476
415 1 35.2626 24.0757 -0.208494 35.2626 24.0757 -0.208494
416 2 37.2326 24.0962 1.33861 37.2326 24.0962 1.33861
417 2 37.0915 24.0553 -1.92027 37.0915 24.0553 -1.92027
418 1 38.1116 25.7219 -0.352689 38.1116 25.7219 -0.352689
419 2 40.0698 25.7417 1.20954 40.0698 25.7417 1.20954
420 2 39.9536 25.7021 -2.05032 39.9536 25.7021 -2.05032
421 1 40.9619 24.0753 -0.43416 40.9619 24.0753 -0.43416
422 2 42.902 24.0953 1.1507 42.902 24.0953 1.1507
423 2 42.8233 24.0554 -2.11029 42.8233 24.0554 -2.11029
424 1 43.813 25.7216 -0.522916 43.813 25.7216 -0.522916
425 2 45.7294 25.7418 1.09066 45.7294 25.7418 1.09066
426 2 45.6991 25.7015 -2.17111 45.6991 25.7015 -2.17111
427 1 46.6649 24.0752 -0.528516 46.6649 24.0752 -0.528516
428 2 48.5557 24.095 1.11513 48.5557 24.095 1.11513
429 2 48.5767 24.0555 -2.14676 48.5767 24.0555 -2.14676
430 1 49.5169 25.7217 -0.529577 49.5169 25.7217 -0.529577
431 2 51.3823 25.7424 1.14288 51.3823 25.7424 1.14288
432 2 51.4533 25.701 -2.11826 51.4533 25.701 -2.11826
433 1 1.0598 27.3682 -0.48783 1.0598 27.3682 -0.48783
434 2 2.90383 27.3895 1.20816 2.90383 27.3895 1.20816
435 2 3.01625 27.347 -2.05179 3.01625 27.347 -2.05179
436 1 3.91039 29.0148 -0.410426 3.91039 29.0148 -0.410426
437 2 5.73977 29.0359 1.30126 5.73977 29.0359 1.30126
438 2 5.88019 28.9939 -1.9576 5.88019 28.9939 -1.9576
439 1 6.75945 27.3687 -0.265844 6.75945 27.3687 -0.265844
440 2 8.58337 27.3901 1.45148 8.58337 27.3901 1.45148
441 2 8.73403 27.3475 -1.80694 8.73403 27.3475 -1.80694
442 1 9.60862 29.0154 -0.155308 9.60862 29.0154 -0.155308
443 2 11.4362 29.0359 1.55798 11.4362 29.0359 1.55798
444 2 11.5799 28.995 -1.70078 11.5799 28.995 -1.70078
445 1 12.4575 27.3693 -0.00873929 12.4575 27.3693 -0.00873929
446 2 14.299 27.3895 1.68941 14.299 27.3895 1.68941
447 2 14.4161 27.3491 -1.57043 14.4161 27.3491 -1.57043
448 1 15.3078 29.0158 0.0731325 15.3078 29.0158 0.0731325
449 2 17.1689 29.0344 1.74958 17.1689 29.0344 1.74958
450 2 17.2481 28.9972 -1.51146 17.2481 28.9972 -1.51146
451 1 18.1587 27.3695 0.160934 18.1587 27.3695 0.160934
452 2 20.0453 27.3885 1.80853 20.0453 27.3885 1.80853
453 2 20.0746 27.3504 -1.45332 20.0746 27.3504 -1.45332
454 1 21.0106 29.0158 0.166698 21.0106 29.0158 0.166698
455 2 22.9223 29.0326 1.78494 22.9223 29.0326 1.78494
456 2 22.9013 28.999 -1.47705 22.9013 28.999 -1.47705
457 1 23.8625 27.3694 0.164686 23.8625 27.3694 0.164686
458 2 25.7987 27.3878 1.75354 25.7987 27.3878 1.75354
459 2 25.7279 27.3509 -1.5077 25.7279 27.3509 -1.5077
460 1 26.7136 29.0155 0.0834609 26.7136 29.0155 0.0834609
461 2 28.6685 29.0312 1.64918 28.6685 29.0312 1.64918
462 2 28.559 28.9998 -1.61105 28.559 28.9998 -1.61105
463 1 29.5639 27.369 0.00286366 29.5639 27.369 0.00286366
464 2 31.5319 27.3871 1.55218 31.5319 27.3871 1.55218
465 2 31.395 27.3508 -1.70694 31.395 27.3508 -1.70694
466 1 32.4131 29.0151 -0.135782 32.4131 29.0151 -0.135782
467 2 34.3857 29.0306 1.40783 34.3857 29.0306 1.40783
468 2 34.2391 28.9996 -1.85092 34.2391 28.9996 -1.85092
469 1 35.2622 27.3685 -0.248694 35.2622 27.3685 -0.248694
470 2 37.2316 27.3867 1.29914 37.2316 27.3867 1.29914
471 2 37.0918 27.3503 -1.95983 37.0918 27.3503 -1.95983
472 1 38.1113 29.0147 -0.389627 38.1113 29.0147 -0.389627
473 2 40.0694 29.0311 1.17282 40.0694 29.0311 1.17282
474 2 39.9536 28.9984 -2.0871 39.9536 28.9984 -2.0871
475 1 40.9616 27.3681 -0.474347 40.9616 27.3681 -0.474347
476 2 42.9014 27.3872 1.11098 42.9014 27.3872 1.11098
477 2 42.8236 27.3491 -2.15002 42.8236 27.3491 -2.15002
478 1 43.8129 29.0145 -0.56141 43.8129 29.0145 -0.56141
479 2 45.7294 29.0325 1.05205 45.7294 29.0325 1.05205
480 2 45.699 28.9965 -2.20973 45.699 28.9965 -2.20973
481 1 46.6649 27.368 -0.569402 46.6649 27.368 -0.569402
482 2 48.5555 27.3882 1.0745 48.5555 27.3882 1.0745
483 2 48.5771 27.3478 -2.18732 48.5771 27.3478 -2.18732
484 1 49.5171 29.0145 -0.570465 49.5171 29.0145 -0.570465
485 2 51.3827 29.0344 1.10185 51.3827 29.0344 1.10185
486 2 51.4535 28.9946 -2.15927 51.4535 28.9946 -2.15927
487 1 1.06017 30.661 -0.528065 1.06017 30.661 -0.528065
488 2 2.90455 30.6801 1.16761 2.90455 30.6801 1.16761
489 2 3.01645 30.6421 -2.09238 3.01645 30.6421 -2.09238
490 1 3.91092 32.3077 -0.448915 3.91092 32.3077 -0.448915
491 2 5.74048 32.325 1.26263 5.74048 32.325 1.26263
492 2 5.88065 32.2905 -1.99632 5.88065 32.2905 -1.99632
493 1 6.76008 30.6615 -0.30844 6.76008 30.6615 -0.30844
494 2 8.58333 30.6812 1.40961 8.58333 30.6812 1.40961
495 2 8.73531 30.6419 -1.84879 8.73531 30.6419 -1.84879
496 1 9.60928 32.3082 -0.195169 9.60928 32.3082 -0.195169
497 2 11.4355 32.325 1.51949 11.4355 32.325 1.51949
498 2 11.5817 32.2914 -1.73926 11.5817 32.2914 -1.73926
499 1 12.458 30.662 -0.0502291 12.458 30.662 -0.0502291
500 2 14.2978 30.6801 1.64969 14.2978 30.6801 1.64969
501 2 14.4181 30.6439 -1.61011 14.4181 30.6439 -1.61011
502 1 15.3082 32.3085 0.0364645 15.3082 32.3085 0.0364645
503 2 17.1671 32.3224 1.71531 17.1671 32.3224 1.71531
504 2 17.2504 32.2945 -1.54575 17.2504 32.2945 -1.54575
505 1 18.159 30.6622 0.123189 18.159 30.6622 0.123189
506 2 20.0438 30.6775 1.77274 20.0438 30.6775 1.77274
507 2 20.0764 30.6468 -1.48919 20.0764 30.6468 -1.48919
508 1 21.0107 32.3084 0.135564 21.0107 32.3084 0.135564
509 2 22.9204 32.319 1.75611 22.9204 32.319 1.75611
510 2 22.9033 32.2978 -1.50604 22.9033 32.2978 -1.50604
511 1 23.8624 30.662 0.130617 23.8624 30.662 0.130617
512 2 25.7973 30.675 1.72101 25.7973 30.675 1.72101
513 2 25.7291 30.6489 -1.54042 25.7291 30.6489 -1.54042
514 1 26.7135 32.3082 0.0569824 26.7135 32.3082 0.0569824
515 2 28.6673 32.3165 1.6242 28.6673 32.3165 1.6242
516 2 28.5601 32.2998 -1.63625 28.5601 32.2998 -1.63625
517 1 29.5637 30.6617 -0.0289552 29.5637 30.6617 -0.0289552
518 2 31.531 30.6737 1.52131 31.531 30.6737 1.52131
519 2 31.3956 30.6497 -1.73801 31.3956 30.6497 -1.73801
520 1 32.413 32.3079 -0.160171 32.413 32.3079 -0.160171
521 2 34.3853 32.3161 1.38381 34.3853 32.3161 1.38381
522 2 34.2393 32.2998 -1.87507 34.2393 32.2998 -1.87507
523 1 35.2619 30.6614 -0.280072 35.2619 30.6614 -0.280072
524 2 37.2313 30.674 1.26792 37.2313 30.674 1.26792
525 2 37.0917 30.6488 -1.99116 37.0917 30.6488 -1.99116
526 1 38.1112 32.3077 -0.415141 38.1112 32.3077 -0.415141
527 2 40.0698 32.3175 1.14672 40.0698 32.3175 1.14672
528 2 39.9529 32.298 -2.11326 39.9529 32.298 -2.11326
529 1 40.9615 30.6611 -0.507499 40.9615 30.6611 -0.507499
530 2 42.9016 30.6756 1.0774 42.9016 30.6756 1.0774
531 2 42.8231 30.6467 -2.18365 42.8231 30.6467 -2.18365
532 1 43.8128 32.3076 -0.590604 43.8128 32.3076 -0.590604
533 2 45.7303 32.32 1.02183 45.7303 32.32 1.02183
534 2 45.6982 32.2952 -2.24001 45.6982 32.2952 -2.24001
535 1 46.665 30.6609 -0.605884 46.665 30.6609 -0.605884
536 2 48.5562 30.6778 1.03739 48.5562 30.6778 1.03739
537 2 48.5767 30.6441 -2.22448 48.5767 30.6441 -2.22448
538 1 49.5173 32.3075 -0.604513 49.5173 32.3075 -0.604513
539 2 51.3838 32.3228 1.06684 51.3838 32.3228 1.06684
540 2 51.453 32.2922 -2.19439 51.453 32.2922 -2.19439