ITEM: TIMESTEP
44000
ITEM: NUMBER OF ATOMS
810
ITEM: BOX BOUNDS pp pp pp
8.6422841359836022e-01 5.2153376586400512e+01
8.1682050841763709e-01 5.0199394491582304e+01
-1.0000000000000000e+01 1.0000000000000000e+01
ITEM: ATOMS id type x y z xu yu zu
1 1 1.07224 1.03365 0.227415 1.07224 1.03365 0.227415
2 2 3.04025 1.08838 1.77576 3.04025 1.08838 1.77576
3 2 2.9035 0.978799 -1.4817 2.9035 0.978799 -1.4817
4 1 3.9209 2.67863 0.05146 3.9209 2.67863 0.05146
5 2 5.90693 2.731 1.57658 5.90693 2.731 1.57658
6 2 5.7317 2.62601 -1.67923 5.7317 2.62601 -1.67923
7 1 6.76928 1.0322 -0.0493307 6.76928 1.0322 -0.0493307
8 2 8.76622 1.08332 1.46178 8.76622 1.08332 1.46178
9 2 8.56779 0.980661 -1.79274 8.56779 0.980661 -1.79274
10 1 9.6151 2.67678 -0.275522 9.6151 2.67678 -0.275522
11 2 11.6081 2.72481 1.24103 11.6081 2.72481 1.24103
12 2 11.4181 2.62838 -2.01416 11.4181 2.62838 -2.01416
13 1 12.4628 1.03007 -0.393125 12.4628 1.03007 -0.393125
14 2 14.4442 1.07707 1.13888 14.4442 1.07707 1.13888
15 2 14.2791 0.982658 -2.11773 14.2791 0.982658 -2.11773
16 1 15.3108 2.67488 -0.585476 15.3108 2.67488 -0.585476
17 2 17.2675 2.71851 0.978403 17.2675 2.71851 0.978403
18 2 17.1547 2.63101 -2.28057 17.1547 2.63101 -2.28057
19 1 18.1617 1.02837 -0.639632 18.1617 1.02837 -0.639632
20 2 20.0895 1.07268 0.959913 20.0895 1.07268 0.959913
21 2 20.0362 0.983772 -2.30058 20.0362 0.983772 -2.30058
22 1 21.0135 2.6738 -0.730838 21.0135 2.6738 -0.730838
23 2 22.9064 2.71516 0.910325 22.9064 2.71516 0.910325
24 2 22.9239 2.63227 -2.35064 22.9239 2.63227 -2.35064
25 1 23.8659 1.02768 -0.673045 23.8659 1.02768 -0.673045
26 2 25.7253 1.07251 1.00595 25.7253 1.07251 1.00595
27 2 25.8084 0.982692 -2.25388 25.8084 0.982692 -2.25388
28 1 26.7176 2.67375 -0.645053 26.7176 2.67375 -0.645053
29 2 28.5473 2.71651 1.06615 28.5473 2.71651 1.06615
30 2 28.6874 2.63094 -2.19181 28.6874 2.63094 -2.19181
31 1 29.5669 1.02821 -0.478617 29.5669 1.02821 -0.478617
32 2 31.3748 1.07683 1.25537 31.3748 1.07683 1.25537
33 2 31.5559 0.979711 -2.0003 31.5559 0.979711 -2.0003
34 1 32.4151 2.67476 -0.368714 32.4151 2.67476 -0.368714
35 2 34.2138 2.72177 1.37464 34.2138 2.72177 1.37464
36 2 34.4121 2.62801 -1.88014 34.4121 2.62801 -1.88014
37 1 35.2613 1.02991 -0.147443 35.2613 1.02991 -0.147443
38 2 37.0622 1.08292 1.5931 37.0622 1.08292 1.5931
39 2 37.256 0.977369 -1.66161 37.256 0.977369 -1.66161
40 1 38.1088 2.67662 -0.031186 38.1088 2.67662 -0.031186
41 2 39.9256 2.72779 1.69257 39.9256 2.72779 1.69257
42 2 40.0895 2.62596 -1.56396 40.0895 2.62596 -1.56396
43 1 40.9565 1.03208 0.163607 40.9565 1.03208 0.163607
44 2 42.7986 1.08774 1.86006 42.7986 1.08774 1.86006
45 2 42.9145 0.976944 -1.39818 42.9145 0.976944 -1.39818
46 1 43.807 2.67846 0.208563 43.807 2.67846 0.208563
47 2 45.6805 2.73243 1.86998 45.6805 2.73243 1.86998
48 2 45.7352 2.62497 -1.39005 45.7352 2.62497 -1.39005
49 1 46.6583 1.03358 0.310175 46.6583 1.03358 0.310175
50 2 48.5662 1.08995 1.93197 48.5662 1.08995 1.93197
51 2 48.553 0.977503 -1.32824 48.553 0.977503 -1.32824
52 1 49.51 2.6793 0.240909 49.51 2.6793 0.240909
53 2 51.4494 2.73396 1.82468 51.4494 2.73396 1.82468
54 2 51.3718 2.6248 -1.43481 51.3718 2.6248 -1.43481
55 1 1.07112 4.32467 0.116817 1.07112 4.32467 0.116817
56 2 3.03673 4.3753 1.66795 3.03673 4.3753 1.66795
57 2 2.90438 4.27405 -1.59007 2.90438 4.27405 -1.59007
58 1 3.91941 5.96985 -0.0511593 3.91941 5.96985 -0.0511593
59 2 5.90279 6.01404 1.47739 5.90279 6.01404 1.47739
60 2 5.73279 5.92554 -1.77924 5.73279 5.92554 -1.77924
61 1 6.76761 4.32343 -0.155823 6.76761 4.32343 -0.155823
62 2 8.76109 4.37082 1.35977 8.76109 4.37082 1.35977
63 2 8.56984 4.27576 -1.89543 8.56984 4.27576 -1.89543
64 1 9.61357 5.96839 -0.371977 9.61357 5.96839 -0.371977
65 2 11.6029 6.00849 1.1495 11.6029 6.00849 1.1495
66 2 11.4207 5.92808 -2.10655 11.4207 5.92808 -2.10655
67 1 12.4615 4.3216 -0.490976 12.4615 4.3216 -0.490976
68 2 14.4394 4.3641 1.04581 14.4394 4.3641 1.04581
69 2 14.2821 4.27886 -2.21137 14.2821 4.27886 -2.21137
70 1 15.3099 5.96696 -0.67196 15.3099 5.96696 -0.67196
71 2 17.2632 6.00206 0.896537 17.2632 6.00206 0.896537
72 2 17.1579 5.93178 -2.36301 17.1579 5.93178 -2.36301
73 1 18.1612 4.32025 -0.728336 18.1612 4.32025 -0.728336
74 2 20.0865 4.35852 0.87459 20.0865 4.35852 0.87459
75 2 20.0388 4.28187 -2.38618 20.0388 4.28187 -2.38618
76 1 21.0134 5.96626 -0.808521 21.0134 5.96626 -0.808521
77 2 22.9041 5.99764 0.835418 22.9041 5.99764 0.835418
78 2 22.9262 5.93485 -2.42586 22.9262 5.93485 -2.42586
79 1 23.8661 4.31981 -0.756955 23.8661 4.31981 -0.756955
80 2 25.7248 4.35659 0.922976 25.7248 4.35659 0.922976
81 2 25.8095 4.28293 -2.33711 25.8095 4.28293 -2.33711
82 1 26.7179 5.96631 -0.719621 26.7179 5.96631 -0.719621
83 2 28.5476 5.99708 0.991882 28.5476 5.99708 0.991882
84 2 28.6879 5.93548 -2.26654 28.6879 5.93548 -2.26654
85 1 29.5676 4.32024 -0.565217 29.5676 4.32024 -0.565217
86 2 31.3767 4.35928 1.16771 31.3767 4.35928 1.16771
87 2 31.5557 4.28124 -2.08855 31.5557 4.28124 -2.08855
88 1 32.4158 5.96699 -0.447716 32.4158 5.96699 -0.447716
89 2 34.2158 6.00059 1.29444 34.2158 6.00059 1.29444
90 2 34.4116 5.93349 -1.96116 34.4116 5.93349 -1.96116
91 1 35.2624 4.3215 -0.242376 35.2624 4.3215 -0.242376
92 2 37.0646 4.36489 1.49704 37.0646 4.36489 1.49704
93 2 37.256 4.27845 -1.75843 37.256 4.27845 -1.75843
94 1 38.1097 5.96825 -0.118709 38.1097 5.96825 -0.118709
95 2 39.9276 6.00627 1.60397 39.9276 6.00627 1.60397
96 2 40.0891 5.93059 -1.65348 40.0891 5.93059 -1.65348
97 1 40.9575 4.32323 0.0604775 40.9575 4.32323 0.0604775
98 2 42.7997 4.37077 1.75671 42.7997 4.37077 1.75671
99 2 42.9148 4.27617 -1.5022 42.9148 4.27617 -1.5022
100 1 43.8074 5.96962 0.112807 43.8074 5.96962 0.112807
101 2 45.6813 6.01204 1.77377 45.6813 6.01204 1.77377
102 2 45.7347 5.92765 -1.4871 45.7347 5.92765 -1.4871
103 1 46.6583 4.32454 0.201364 46.6583 4.32454 0.201364
104 2 48.5653 4.37504 1.82406 48.5653 4.37504 1.82406
105 2 48.5532 4.27441 -1.43669 48.5532 4.27441 -1.43669
106 1 49.5094 5.97033 0.139043 49.5094 5.97033 0.139043
107 2 51.4479 6.01546 1.72388 51.4479 6.01546 1.72388
108 2 51.3715 5.92545 -1.53636 51.3715 5.92545 -1.53636
109 1 1.07007 7.61596 0.025686 1.07007 7.61596 0.025686
110 2 3.03453 7.65372 1.57835 3.03453 7.65372 1.57835
111 2 2.90411 7.57829 -1.68054 2.90411 7.57829 -1.68054
112 1 3.91815 9.26161 -0.127578 3.91815 9.26161 -0.127578
113 2 5.90004 9.29025 1.40309 5.90004 9.29025 1.40309
114 2 5.73294 9.23293 -1.85443 5.73294 9.23293 -1.85443
115 1 6.76607 7.61511 -0.245575 6.76607 7.61511 -0.245575
116 2 8.75665 7.65078 1.27401 8.75665 7.65078 1.27401
117 2 8.57146 7.57928 -1.98215 8.57146 7.57928 -1.98215
118 1 9.61228 9.26073 -0.444529 9.61228 9.26073 -0.444529
119 2 11.5986 9.28637 1.08119 11.5986 9.28637 1.08119
120 2 11.4229 9.23498 -2.17578 11.4229 9.23498 -2.17578
121 1 12.4604 7.61383 -0.572595 12.4604 7.61383 -0.572595
122 2 14.4346 7.64494 0.969123 14.4346 7.64494 0.969123
123 2 14.2851 7.58264 -2.28889 14.2851 7.58264 -2.28889
124 1 15.3092 9.2599 -0.735209 15.3092 9.2599 -0.735209
125 2 17.2591 9.28087 0.837824 17.2591 9.28087 0.837824
126 2 17.1611 9.23895 -2.42237 17.1611 9.23895 -2.42237
127 1 18.1607 7.61299 -0.799637 18.1607 7.61299 -0.799637
128 2 20.0829 7.63932 0.807375 20.0829 7.63932 0.807375
129 2 20.0419 7.58669 -2.45387 20.0419 7.58669 -2.45387
130 1 21.0132 9.2596 -0.861919 21.0132 9.2596 -0.861919
131 2 22.9013 9.27612 0.785407 22.9013 9.27612 0.785407
132 2 22.929 9.24312 -2.4762 22.929 9.24312 -2.4762
133 1 23.8661 7.61281 -0.820585 23.8661 7.61281 -0.820585
134 2 25.7233 7.63605 0.861375 25.7233 7.63605 0.861375
135 2 25.8113 7.58955 -2.39905 25.8113 7.58955 -2.39905
136 1 26.7179 9.25969 -0.766751 26.7179 9.25969 -0.766751
137 2 28.5467 9.27372 0.946041 28.5467 9.27372 0.946041
138 2 28.689 9.24559 -2.31271 28.689 9.24559 -2.31271
139 1 29.5679 7.61311 -0.627586 29.5679 7.61311 -0.627586
140 2 31.3775 7.6365 1.10509 31.3775 7.6365 1.10509
141 2 31.5557 7.58967 -2.15178 31.5557 7.58967 -2.15178
142 1 32.416 9.25998 -0.495131 32.416 9.25998 -0.495131
143 2 34.2169 9.27483 1.24629 34.2169 9.27483 1.24629
144 2 34.411 9.24507 -2.00997 34.411 9.24507 -2.00997
145 1 35.2629 7.61381 -0.310299 35.2629 7.61381 -0.310299
146 2 37.0666 7.64045 1.42777 37.0666 7.64045 1.42777
147 2 37.2551 7.58731 -1.82862 37.2551 7.58731 -1.82862
148 1 38.11 9.26053 -0.172467 38.11 9.26053 -0.172467
149 2 39.9297 9.27924 1.54844 39.9297 9.27924 1.54844
150 2 40.0875 9.24199 -1.70991 40.0875 9.24199 -1.70991
151 1 40.9579 7.61487 -0.0161101 40.9579 7.61487 -0.0161101
152 2 42.8015 7.64626 1.67874 42.8015 7.64626 1.67874
153 2 42.9136 7.58384 -1.58116 42.9136 7.58384 -1.58116
154 1 43.8075 9.2613 0.0497025 43.8075 9.2613 0.0497025
155 2 45.6831 9.28513 1.70882 45.6831 9.28513 1.70882
156 2 45.7327 9.23782 -1.55296 45.7327 9.23782 -1.55296
157 1 46.6582 7.6158 0.11599 46.6582 7.6158 0.11599
158 2 48.5658 7.65168 1.73804 48.5658 7.65168 1.73804
159 2 48.552 7.58028 -1.5236 48.552 7.58028 -1.5236
160 1 49.5088 9.26183 0.0668274 49.5088 9.26183 0.0668274
161 2 51.4479 9.28978 1.65109 51.4479 9.28978 1.65109
162 2 51.3699 9.23411 -1.60996 51.3699 9.23411 -1.60996
163 1 1.06925 10.9078 -0.0306151 1.06925 10.9078 -0.0306151
164 2 3.03403 10.9266 1.52183 3.03403 10.9266 1.52183
165 2 2.90268 10.8892 -1.73772 2.90268 10.8892 -1.73772
166 1 3.9173 12.5539 -0.165461 3.9173 12.5539 -0.165461
167 2 5.89912 12.5626 1.36549 5.89912 12.5626 1.36549
168 2 5.73207 12.5453 -1.89251 5.73207 12.5453 -1.89251
169 1 6.76489 10.9075 -0.303685 6.76489 10.9075 -0.303685
170 2 8.75368 10.9257 1.2185 8.75368 10.9257 1.2185
171 2 8.57224 10.8891 -2.03845 8.57224 10.8891 -2.03845
172 1 9.61141 12.5537 -0.481652 9.61141 12.5537 -0.481652
173 2 11.5958 12.5609 1.04682 11.5958 12.5609 1.04682
174 2 11.4243 12.5465 -2.21073 11.4243 12.5465 -2.21073
175 1 12.4595 10.9069 -0.624781 12.4595 10.9069 -0.624781
176 2 14.4308 10.9216 0.92102 14.4308 10.9216 0.92102
177 2 14.2876 10.8921 -2.3377 14.2876 10.8921 -2.3377
178 1 15.3088 12.5535 -0.765183 15.3088 12.5535 -0.765183
179 2 17.2558 12.5569 0.811532 17.2558 12.5569 0.811532
180 2 17.1638 12.5502 -2.44907 17.1638 12.5502 -2.44907
181 1 18.1604 10.9066 -0.842224 18.1604 10.9066 -0.842224
182 2 20.0795 10.9166 0.768744 20.0795 10.9166 0.768744
183 2 20.045 10.8965 -2.49289 20.045 10.8965 -2.49289
184 1 21.0131 12.5536 -0.882415 21.0131 12.5536 -0.882415
185 2 22.8984 12.5523 0.768257 22.8984 12.5523 0.768257
186 2 22.9317 12.5548 -2.49343 22.9317 12.5548 -2.49343
187 1 23.8661 10.9066 -0.854089 23.8661 10.9066 -0.854089
188 2 25.721 10.9125 0.830531 25.721 10.9125 0.830531
189 2 25.8135 10.9006 -2.43004 25.8135 10.9006 -2.43004
190 1 26.7178 12.5536 -0.778866 26.7178 12.5536 -0.778866
191 2 28.5448 12.5484 0.935848 28.5448 12.5484 0.935848
192 2 28.6905 12.5585 -2.32285 28.6905 12.5585 -2.32285
193 1 29.5678 10.9066 -0.656112 29.5678 10.9066 -0.656112
194 2 31.377 10.9107 1.07714 31.377 10.9107 1.07714
195 2 31.556 10.9024 -2.18 31.556 10.9024 -2.18
196 1 32.4156 12.5534 -0.50346 32.4156 12.5534 -0.50346
197 2 34.2169 12.5472 1.23765 34.2169 12.5472 1.23765
198 2 34.4103 12.5593 -2.01877 34.4103 12.5593 -2.01877
199 1 35.2629 10.9067 -0.340407 35.2629 10.9067 -0.340407
200 2 37.068 10.9125 1.39625 37.068 10.9125 1.39625
201 2 37.2536 10.9009 -1.86074 37.2536 10.9009 -1.86074
202 1 38.1097 12.5532 -0.184071 38.1097 12.5532 -0.184071
203 2 39.9316 12.5499 1.53449 39.9316 12.5499 1.53449
204 2 40.0851 12.5565 -1.72429 40.0851 12.5565 -1.72429
205 1 40.9579 10.907 -0.0537265 40.9579 10.907 -0.0537265
206 2 42.8039 10.9174 1.63868 42.8039 10.9174 1.63868
207 2 42.9113 10.8969 -1.62196 42.9113 10.8969 -1.62196
208 1 43.8073 12.5534 0.0291209 43.8073 12.5534 0.0291209
209 2 45.6857 12.5552 1.68518 45.6857 12.5552 1.68518
210 2 45.7297 12.5518 -1.57704 45.7297 12.5518 -1.57704
211 1 46.658 10.9076 0.0682112 46.658 10.9076 0.0682112
212 2 48.5675 10.9231 1.68807 48.5675 10.9231 1.68807
213 2 48.5494 10.8924 -1.57425 48.5494 10.8924 -1.57425
214 1 49.5084 12.5538 0.0358503 49.5084 12.5538 0.0358503
215 2 51.4494 12.5603 1.61788 51.4494 12.5603 1.61788
216 2 51.3673 12.5474 -1.64355 51.3673 12.5474 -1.64355
217 1 1.06879 14.2001 -0.0435683 1.06879 14.2001 -0.0435683
218 2 3.03522 14.1972 1.5069 3.03522 14.1972 1.5069
219 2 2.9004 14.203 -1.75273 2.9004 14.203 -1.75273
220 1 3.91696 15.8465 -0.159553 3.91696 15.8465 -0.159553
221 2 5.89998 15.8341 1.36987 5.89998 15.8341 1.36987
222 2 5.73045 15.8588 -1.88793 5.73045 15.8588 -1.88793
223 1 6.76422 14.2003 -0.321248 6.76422 14.2003 -0.321248
224 2 8.75254 14.1984 1.20166 8.75254 14.1984 1.20166
225 2 8.5721 14.2021 -2.05555 8.5721 14.2021 -2.05555
226 1 9.61104 15.847 -0.47789 9.61104 15.847 -0.47789
227 2 11.5947 15.8345 1.05153 11.5947 15.8345 1.05153
228 2 11.4248 15.8593 -2.20604 11.4248 15.8593 -2.20604
229 1 12.459 14.2004 -0.639467 12.459 14.2004 -0.639467
230 2 14.4283 14.1963 0.908976 14.4283 14.1963 0.908976
231 2 14.2894 14.2044 -2.35005 14.2894 14.2044 -2.35005
232 1 15.3086 15.8473 -0.757114 15.3086 15.8473 -0.757114
233 2 17.2537 15.8323 0.822009 17.2537 15.8323 0.822009
234 2 17.1657 15.8623 -2.43859 17.1657 15.8623 -2.43859
235 1 18.1602 14.2005 -0.849163 18.1602 14.2005 -0.849163
236 2 20.0766 14.1924 0.765048 20.0766 14.1924 0.765048
237 2 20.0476 14.2086 -2.49665 20.0476 14.2086 -2.49665
238 1 21.013 15.8475 -0.866171 21.013 15.8475 -0.866171
239 2 22.8957 15.8282 0.787336 22.8957 15.8282 0.787336
240 2 22.934 15.8668 -2.4741 22.934 15.8668 -2.4741
241 1 23.8659 14.2006 -0.851668 23.8659 14.2006 -0.851668
242 2 25.7183 14.1879 0.835707 25.7183 14.1879 0.835707
243 2 25.8157 14.2132 -2.42465 25.8157 14.2132 -2.42465
244 1 26.7174 15.8473 -0.753305 26.7174 15.8473 -0.753305
245 2 28.5423 15.8235 0.963499 28.5423 15.8235 0.963499
246 2 28.6919 15.8709 -2.29471 28.6919 15.8709 -2.29471
247 1 29.5673 14.2003 -0.645958 29.5673 14.2003 -0.645958
248 2 31.3754 14.1843 1.08836 31.3754 14.1843 1.08836
249 2 31.5565 14.2161 -2.16853 31.5565 14.2161 -2.16853
250 1 32.4148 15.8466 -0.471223 32.4148 15.8466 -0.471223
251 2 34.216 15.8205 1.26978 34.216 15.8205 1.26978
252 2 34.4095 15.8723 -1.98624 34.4095 15.8723 -1.98624
253 1 35.2622 14.1997 -0.328119 35.2622 14.1997 -0.328119
254 2 37.0687 14.184 1.40706 37.0687 14.184 1.40706
255 2 37.2518 14.2153 -1.84994 37.2518 14.2153 -1.84994
256 1 38.1089 15.8457 -0.15234 38.1089 15.8457 -0.15234
257 2 39.9332 15.8216 1.56356 39.9332 15.8216 1.56356
258 2 40.0822 15.8698 -1.69507 40.0822 15.8698 -1.69507
259 1 40.9575 14.1994 -0.0470003 40.9575 14.1994 -0.0470003
260 2 42.8064 14.1876 1.6422 42.8064 14.1876 1.6422
261 2 42.9081 14.2113 -1.61861 42.9081 14.2113 -1.61861
262 1 43.8069 15.8454 0.0532702 43.8069 15.8454 0.0532702
263 2 45.6886 15.8256 1.70556 45.6886 15.8256 1.70556
264 2 45.7262 15.8655 -1.55648 45.7262 15.8655 -1.55648
265 1 46.6577 14.1996 0.0649686 46.6577 14.1996 0.0649686
266 2 48.5702 14.1928 1.68142 48.5702 14.1928 1.68142
267 2 48.5462 14.2067 -1.58098 48.5462 14.2067 -1.58098
268 1 49.5082 15.8458 0.0499849 49.5082 15.8458 0.0499849
269 2 51.452 15.8306 1.62855 51.452 15.8306 1.62855
270 2 51.3642 15.8613 -1.63259 51.3642 15.8613 -1.63259
271 1 1.06876 17.4922 -0.0123071 1.06876 17.4922 -0.0123071
272 2 3.03767 17.4687 1.53494 3.03767 17.4687 1.53494
273 2 2.89781 17.5159 -1.72411 2.89781 17.5159 -1.72411
274 1 3.91718 19.1387 -0.111721 3.91718 19.1387 -0.111721
275 2 5.90225 19.1075 1.41493 5.90225 19.1075 1.41493
276 2 5.72856 19.17 -1.84213 5.72856 19.17 -1.84213
277 1 6.76412 17.4931 -0.296166 6.76412 17.4931 -0.296166
278 2 8.7532 17.4715 1.22568 8.7532 17.4715 1.22568
279 2 8.57122 17.5147 -2.03115 8.57122 17.5147 -2.03115
280 1 9.61122 19.1399 -0.434097 9.61122 19.1399 -0.434097
281 2 11.5953 19.1097 1.09456 11.5953 19.1097 1.09456
282 2 11.4245 19.1699 -2.16251 11.4245 19.1699 -2.16251
283 1 12.459 17.4938 -0.614447 12.459 17.4938 -0.614447
284 2 14.4273 17.4714 0.934975 14.4273 17.4714 0.934975
285 2 14.2903 17.5161 -2.32385 14.2903 17.5161 -2.32385
286 1 15.3087 19.1407 -0.711893 15.3087 19.1407 -0.711893
287 2 17.2528 19.1092 0.868193 17.2528 19.1092 0.868193
288 2 17.1667 19.172 -2.39205 17.1667 19.172 -2.39205
289 1 18.1602 17.4943 -0.818848 18.1602 17.4943 -0.818848
290 2 20.0746 17.4688 0.797557 20.0746 17.4688 0.797557
291 2 20.0495 17.5196 -2.46387 20.0495 17.5196 -2.46387
292 1 21.0129 19.141 -0.814759 21.0129 19.141 -0.814759
293 2 22.8935 19.1059 0.840751 22.8935 19.1059 0.840751
294 2 22.9357 19.1758 -2.42019 22.9357 19.1758 -2.42019
295 1 23.8657 17.4943 -0.812689 23.8657 17.4943 -0.812689
296 2 25.7157 17.4643 0.877085 25.7157 17.4643 0.877085
297 2 25.8175 17.524 -2.38273 25.8175 17.524 -2.38273
298 1 26.7167 19.1405 -0.692871 26.7167 19.1405 -0.692871
299 2 28.5396 19.1011 1.02573 28.5396 19.1011 1.02573
300 2 28.6929 19.1795 -2.23177 28.6929 19.1795 -2.23177
301 1 29.5665 17.4936 -0.597966 29.5665 17.4936 -0.597966
302 2 31.3733 17.4597 1.1375 31.3733 17.4597 1.1375
303 2 31.5568 17.5271 -2.11874 31.5568 17.5271 -2.11874
304 1 32.4136 19.1392 -0.403028 32.4136 19.1392 -0.403028
305 2 34.2146 19.0973 1.33785 34.2146 19.0973 1.33785
306 2 34.4084 19.1807 -1.9175 34.4084 19.1807 -1.9175
307 1 35.2611 17.4924 -0.275643 35.2611 17.4924 -0.275643
308 2 37.0688 17.458 1.45806 37.0688 17.458 1.45806
309 2 37.2497 17.5265 -1.79848 37.2497 17.5265 -1.79848
310 1 38.1077 19.1377 -0.0828403 38.1077 19.1377 -0.0828403
311 2 39.9343 19.0968 1.63045 39.9343 19.0968 1.63045
312 2 40.0793 19.1787 -1.62763 40.0793 19.1787 -1.62763
313 1 40.9568 17.4915 0.00198856 40.9568 17.4915 0.00198856
314 2 42.8087 17.46 1.6877 42.8087 17.46 1.6877
315 2 42.9047 17.523 -1.57271 42.9047 17.523 -1.57271
316 1 43.8064 19.1371 0.117239 43.8064 19.1371 0.117239
317 2 45.6913 19.0993 1.76568 45.6913 19.0993 1.76568
318 2 45.7229 19.1752 -1.4957 45.7229 19.1752 -1.4957
319 1 46.6575 17.4915 0.105458 46.6575 17.4915 0.105458
320 2 48.5732 17.4642 1.71792 48.5732 17.4642 1.71792
321 2 48.5428 17.5191 -1.54395 48.5428 17.5191 -1.54395
322 1 49.5083 19.1376 0.105675 49.5083 19.1376 0.105675
323 2 51.4552 19.1034 1.68032 51.4552 19.1034 1.68032
324 2 51.3613 19.1721 -1.58001 51.3613 19.1721 -1.58001
325 1 1.06915 20.7839 0.0572861 1.06915 20.7839 0.0572861
326 2 3.04084 20.7437 1.60089 3.04084 20.7437 1.60089
327 2 2.89552 20.8245 -1.65719 2.89552 20.8245 -1.65719
328 1 3.91795 22.4304 -0.0298084 3.91795 22.4304 -0.0298084
329 2 5.90544 22.3852 1.49352 5.90544 22.3852 1.49352
330 2 5.72686 22.4759 -1.76256 5.72686 22.4759 -1.76256
331 1 6.76462 20.7854 -0.232769 6.76462 20.7854 -0.232769
332 2 8.75535 20.7474 1.28671 8.75535 20.7474 1.28671
333 2 8.56995 20.8234 -1.96933 8.56995 20.8234 -1.96933
334 1 9.61195 22.4321 -0.356968 9.61195 22.4321 -0.356968
335 2 11.5975 22.3887 1.16954 11.5975 22.3887 1.16954
336 2 11.4235 22.4754 -2.0868 11.4235 22.4754 -2.0868
337 1 12.4593 20.7867 -0.553401 12.4593 20.7867 -0.553401
338 2 14.4279 20.7491 0.995401 14.4279 20.7491 0.995401
339 2 14.2902 20.824 -2.26289 14.2902 20.824 -2.26289
340 1 15.3092 22.4333 -0.636046 15.3092 22.4333 -0.636046
341 2 17.2533 22.39 0.943535 17.2533 22.39 0.943535
342 2 17.1667 22.4762 -2.31625 17.1667 22.4762 -2.31625
343 1 18.1604 20.7873 -0.755259 18.1604 20.7873 -0.755259
344 2 20.0735 20.7479 0.86212 20.0735 20.7479 0.86212
345 2 20.0504 20.8264 -2.39886 20.0504 20.8264 -2.39886
346 1 21.0128 22.4335 -0.735367 21.0128 22.4335 -0.735367
347 2 22.8923 22.388 0.921093 22.8923 22.388 0.921093
348 2 22.9363 22.4786 -2.33942 22.9363 22.4786 -2.33942
349 1 23.8653 20.7871 -0.742059 23.8653 20.7871 -0.742059
350 2 25.7134 20.744 0.949422 25.7134 20.744 0.949422
351 2 25.8185 20.8299 -2.30979 25.8185 20.8299 -2.30979
352 1 26.7159 22.4327 -0.605979 26.7159 22.4327 -0.605979
353 2 28.5374 22.3837 1.11376 28.5374 22.3837 1.11376
354 2 28.693 22.4812 -2.14319 28.693 22.4812 -2.14319
355 1 29.5655 20.786 -0.518612 29.5655 20.786 -0.518612
356 2 31.3711 20.7393 1.21769 31.3711 20.7393 1.21769
357 2 31.5565 20.8322 -2.03784 31.5565 20.8322 -2.03784
358 1 32.4122 22.431 -0.308916 32.4122 22.431 -0.308916
359 2 34.2132 22.3796 1.4317 34.2132 22.3796 1.4317
360 2 34.4069 22.482 -1.82312 34.4069 22.482 -1.82312
361 1 35.2597 20.7843 -0.191074 35.2597 20.7843 -0.191074
362 2 37.0685 20.7366 1.54125 37.0685 20.7366 1.54125
363 2 37.2474 20.8318 -1.71469 37.2474 20.8318 -1.71469
364 1 38.1064 22.4292 0.0136017 38.1064 22.4292 0.0136017
365 2 39.9349 22.3778 1.72474 39.9349 22.3778 1.72474
366 2 40.0765 22.4807 -1.53281 40.0765 22.4807 -1.53281
367 1 40.9559 20.783 0.0850117 40.9559 20.783 0.0850117
368 2 42.8105 20.7369 1.76753 42.8105 20.7369 1.76753
369 2 42.9016 20.8292 -1.49223 42.9016 20.8292 -1.49223
370 1 43.8059 22.4284 0.21075 43.8059 22.4284 0.21075
371 2 45.6937 22.3785 1.85592 45.6937 22.3785 1.85592
372 2 45.7201 22.4786 -1.40472 45.7201 22.4786 -1.40472
373 1 46.6573 20.7829 0.182395 46.6573 20.7829 0.182395
374 2 48.5763 20.7397 1.79102 48.5763 20.7397 1.79102
375 2 48.54 20.8265 -1.46999 48.54 20.8265 -1.46999
376 1 49.5086 22.4289 0.193662 49.5086 22.4289 0.193662
377 2 51.4584 22.3813 1.76469 51.4584 22.3813 1.76469
378 2 51.359 22.477 -1.49469 51.359 22.477 -1.49469
379 1 1.06995 24.0752 0.154291 1.06995 24.0752 0.154291
380 2 3.04425 24.0244 1.69454 3.04425 24.0244 1.69454
381 2 2.89391 24.1265 -1.56262 2.89391 24.1265 -1.56262
382 1 3.91918 25.7217 0.0736722 3.91918 25.7217 0.0736722
383 2 5.90922 25.6695 1.59372 5.90922 25.6695 1.59372
384 2 5.72558 25.7743 -1.6616 5.72558 25.7743 -1.6616
385 1 6.7657 24.077 -0.140785 6.7657 24.077 -0.140785
386 2 8.75872 24.0285 1.37553 8.75872 24.0285 1.37553
387 2 8.56855 24.1258 -1.87966 8.56855 24.1258 -1.87966
388 1 9.61319 25.7237 -0.25828 9.61319 25.7237 -0.25828
389 2 11.6011 25.674 1.26501 11.6011 25.674 1.26501
390 2 11.422 25.7734 -1.99074 11.422 25.7734 -1.99074
391 1 12.4602 24.0787 -0.465494 12.4602 24.0787 -0.465494
392 2 14.4302 24.0319 1.08125 14.4302 24.0319 1.08125
393 2 14.2892 24.1253 -2.17651 14.2892 24.1253 -2.17651
394 1 15.3099 25.725 -0.541398 15.3099 25.725 -0.541398
395 2 17.2554 25.6772 1.03623 17.2554 25.6772 1.03623
396 2 17.1654 25.7724 -2.22333 17.1654 25.7724 -2.22333
397 1 18.1606 24.0794 -0.667933 18.1606 24.0794 -0.667933
398 2 20.0738 24.0325 0.949081 20.0738 24.0325 0.949081
399 2 20.0502 24.126 -2.31163 20.0502 24.126 -2.31163
400 1 21.0128 25.7251 -0.640738 21.0128 25.7251 -0.640738
401 2 22.8922 25.677 1.01548 22.8922 25.677 1.01548
402 2 22.9356 25.7727 -2.24504 22.9356 25.7727 -2.24504
403 1 23.8648 24.079 -0.650377 23.8648 24.079 -0.650377
404 2 25.7119 24.0298 1.04189 25.7119 24.0298 1.04189
405 2 25.8185 24.1278 -2.21705 25.8185 24.1278 -2.21705
406 1 26.715 25.7241 -0.50669 26.715 25.7241 -0.50669
407 2 28.536 25.6739 1.21348 28.536 25.6739 1.21348
408 2 28.6921 25.7738 -2.04346 28.6921 25.7738 -2.04346
409 1 29.5642 24.0776 -0.41988 29.5642 24.0776 -0.41988
410 2 31.3692 24.0256 1.3168 31.3692 24.0256 1.3168
411 2 31.5555 24.1293 -1.9384 31.5555 24.1293 -1.9384
412 1 32.4106 25.7223 -0.203882 32.4106 25.7223 -0.203882
413 2 34.2119 25.6699 1.53652 34.2119 25.6699 1.53652
414 2 34.4051 25.7744 -1.71825 34.4051 25.7744 -1.71825
415 1 35.2582 24.0757 -0.0873714 35.2582 24.0757 -0.0873714
416 2 37.0679 24.0221 1.64391 37.0679 24.0221 1.64391
417 2 37.2452 24.1291 -1.6117 37.2452 24.1291 -1.6117
418 1 38.105 25.7205 0.121979 38.105 25.7205 0.121979
419 2 39.9348 25.6667 1.83189 39.9348 25.6667 1.83189
420 2 40.0743 25.7744 -1.42549 40.0743 25.7744 -1.42549
421 1 40.9549 24.0742 0.189263 40.9549 24.0742 0.189263
422 2 42.8117 24.0207 1.86944 42.8117 24.0207 1.86944
423 2 42.899 24.128 -1.38983 42.899 24.128 -1.38983
424 1 43.8054 25.7196 0.319502 43.8054 25.7196 0.319502
425 2 45.6952 25.6653 1.96255 45.6952 25.6653 1.96255
426 2 45.7182 25.7743 -1.29768 45.7182 25.7743 -1.29768
427 1 46.6573 24.074 0.283811 46.6573 24.074 0.283811
428 2 48.5789 24.0215 1.88939 48.5789 24.0215 1.88939
429 2 48.5379 24.1271 -1.37087 48.5379 24.1271 -1.37087
430 1 49.5091 25.7201 0.300549 49.5091 25.7201 0.300549
431 2 51.4613 25.6662 1.86885 51.4613 25.6662 1.86885
432 2 51.3577 25.7744 -1.38987 51.3577 25.7744 -1.38987
433 1 1.07106 27.3664 0.263927 1.07106 27.3664 0.263927
434 2 3.0476 27.3131 1.80157 3.0476 27.3131 1.80157
435 2 2.89309 27.4203 -1.45512 2.89309 27.4203 -1.45512
436 1 3.92074 29.0131 0.182415 3.92074 29.0131 0.182415
437 2 5.91324 28.9626 1.69958 5.91324 28.9626 1.69958
438 2 5.72474 29.0641 -1.5555 5.72474 29.0641 -1.5555
439 1 6.76724 27.3683 -0.0344515 6.76724 27.3683 -0.0344515
440 2 8.763 27.3171 1.47833 8.763 27.3171 1.47833
441 2 8.56711 27.4199 -1.77634 8.56711 27.4199 -1.77634
442 1 9.61478 29.015 -0.154073 9.61478 29.015 -0.154073
443 2 11.6058 28.9677 1.36528 11.6058 28.9677 1.36528
444 2 11.42 29.0624 -1.89027 11.42 29.0624 -1.89027
445 1 12.4613 27.3701 -0.36472 12.4613 27.3701 -0.36472
446 2 14.4339 27.3221 1.1787 14.4339 27.3221 1.1787
447 2 14.2873 27.418 -2.07882 14.2873 27.418 -2.07882
448 1 15.3108 29.0162 -0.444055 15.3108 29.0162 -0.444055
449 2 17.259 28.9727 1.13027 17.259 28.9727 1.13027
450 2 17.163 29.0595 -2.12947 17.163 29.0595 -2.12947
451 1 18.161 27.3708 -0.571437 18.161 27.3708 -0.571437
452 2 20.0756 27.3248 1.04382 20.0756 27.3248 1.04382
453 2 20.0486 27.4165 -2.21705 20.0486 27.4165 -2.21705
454 1 21.0128 29.0163 -0.547841 21.0128 29.0163 -0.547841
455 2 22.8936 28.9748 1.10688 22.8936 28.9748 1.10688
456 2 22.9338 29.0573 -2.15417 22.9338 29.0573 -2.15417
457 1 23.8643 27.3703 -0.55347 23.8643 27.3703 -0.55347
458 2 25.7116 27.3239 1.13859 25.7116 27.3239 1.13859
459 2 25.8174 27.4162 -2.12066 25.8174 27.4162 -2.12066
460 1 26.7142 29.0153 -0.413205 26.7142 29.0153 -0.413205
461 2 28.5354 28.9734 1.30681 28.5354 28.9734 1.30681
462 2 28.6907 29.0568 -1.95072 28.6907 29.0568 -1.95072
463 1 29.5629 27.3689 -0.318678 29.5629 27.3689 -0.318678
464 2 31.3679 27.3206 1.41814 31.3679 27.3206 1.41814
465 2 31.554 27.4168 -1.83734 31.554 27.4168 -1.83734
466 1 32.4093 29.0137 -0.106458 32.4093 29.0137 -0.106458
467 2 34.2106 28.9697 1.63421 34.2106 28.9697 1.63421
468 2 34.4037 29.0576 -1.62105 34.4037 29.0576 -1.62105
469 1 35.2567 27.367 0.018488 35.2567 27.367 0.018488
470 2 37.0669 27.3165 1.74949 37.0669 27.3165 1.74949
471 2 37.2434 27.4175 -1.50628 37.2434 27.4175 -1.50628
472 1 38.1038 29.0122 0.224309 38.1038 29.0122 0.224309
473 2 39.9339 28.9651 1.93436 39.9339 28.9651 1.93436
474 2 40.0732 29.0594 -1.32333 40.0732 29.0594 -1.32333
475 1 40.9539 27.3656 0.298383 40.9539 27.3656 0.298383
476 2 42.812 27.3131 1.97759 42.812 27.3131 1.97759
477 2 42.8975 27.4185 -1.28165 42.8975 27.4185 -1.28165
478 1 43.8049 29.0113 0.426194 43.8049 29.0113 0.426194
479 2 45.6956 28.9614 2.06874 45.6956 28.9614 2.06874
480 2 45.7175 29.0615 -1.19163 45.7175 29.0615 -1.19163
481 1 46.6574 27.3654 0.394199 46.6574 27.3654 0.394199
482 2 48.5807 27.3117 1.99805 48.5807 27.3117 1.99805
483 2 48.5369 27.4195 -1.26194 48.5369 27.4195 -1.26194
484 1 49.5098 29.0116 0.409705 49.5098 29.0116 0.409705
485 2 51.4636 28.9603 1.97655 51.4636 28.9603 1.97655
486 2 51.3574 29.0634 -1.28211 51.3574 29.0634 -1.28211
487 1 1.07228 30.6582 0.368385 1.07228 30.6582 0.368385
488 2 3.05052 30.6115 1.90445 3.05052 30.6115 1.90445
489 2 2.89303 30.7055 -1.3524 2.89303 30.7055 -1.3524
490 1 3.92233 32.3051 0.277659 3.92233 32.3051 0.277659
491 2 5.91694 32.2656 1.79265 5.91694 32.2656 1.79265
492 2 5.72432 32.3451 -1.46274 5.72432 32.3451 -1.46274
493 1 6.76901 30.6598 0.0684643 6.76901 30.6598 0.0684643
494 2 8.76772 30.6152 1.57774 8.76772 30.6152 1.57774
495 2 8.56568 30.705 -1.67692 8.56568 30.705 -1.67692
496 1 9.61645 32.3066 -0.0629104 9.61645 32.3066 -0.0629104
497 2 11.6109 32.2706 1.45228 11.6109 32.2706 1.45228
498 2 11.4176 32.3429 -1.80345 11.4176 32.3429 -1.80345
499 1 12.4627 30.6614 -0.268559 12.4627 30.6614 -0.268559
500 2 14.4387 30.621 1.27061 14.4387 30.621 1.27061
501 2 14.2845 30.7018 -1.98706 14.2845 30.7018 -1.98706
502 1 15.3117 32.3076 -0.362008 15.3117 32.3076 -0.362008
503 2 17.2635 32.2767 1.20803 17.2635 32.2767 1.20803
504 2 17.1597 32.3383 -2.05214 17.1597 32.3383 -2.05214
505 1 18.1615 30.662 -0.48337 18.1615 30.662 -0.48337
506 2 20.0788 30.6257 1.1288 20.0788 30.6257 1.1288
507 2 20.0459 30.6979 -2.13263 20.0459 30.6979 -2.13263
508 1 21.0129 32.3075 -0.47465 21.0129 32.3075 -0.47465
509 2 22.8962 32.281 1.17738 22.8962 32.281 1.17738
510 2 22.931 32.3338 -2.08446 22.931 32.3338 -2.08446
511 1 23.864 30.6615 -0.469835 23.864 30.6615 -0.469835
512 2 25.7125 30.6272 1.22105 25.7125 30.6272 1.22105
513 2 25.8155 30.6954 -2.039 25.8155 30.6954 -2.039
514 1 26.7137 32.3067 -0.344103 26.7137 32.3067 -0.344103
515 2 28.5358 32.2816 1.3753 28.5358 32.2816 1.3753
516 2 28.6892 32.3316 -1.88307 28.6892 32.3316 -1.88307
517 1 29.562 30.6603 -0.234203 29.562 30.6603 -0.234203
518 2 31.3671 30.6252 1.50281 31.3671 30.6252 1.50281
519 2 31.5528 30.6953 -1.7534 31.5528 30.6953 -1.7534
520 1 32.4085 32.3057 -0.0353822 32.4085 32.3057 -0.0353822
521 2 34.2092 32.2785 1.70628 34.2092 32.2785 1.70628
522 2 34.4034 32.3329 -1.54964 34.4034 32.3329 -1.54964
523 1 35.2555 30.6589 0.107601 35.2555 30.6589 0.107601
524 2 37.0653 30.6206 1.83949 37.0653 30.6206 1.83949
525 2 37.2428 30.6974 -1.41685 37.2428 30.6974 -1.41685
526 1 38.1029 32.3047 0.302079 38.1029 32.3047 0.302079
527 2 39.932 32.273 2.01383 39.932 32.273 2.01383
528 2 40.0735 32.3365 -1.24443 40.0735 32.3365 -1.24443
529 1 40.953 30.6578 0.393957 40.953 30.6578 0.393957
530 2 42.811 30.6154 2.07392 42.811 30.6154 2.07392
531 2 42.8973 30.7004 -1.18576 42.8973 30.7004 -1.18576
532 1 43.8045 32.304 0.51231 43.8045 32.304 0.51231
533 2 45.6948 32.2676 2.15616 45.6948 32.2676 2.15616
534 2 45.7183 32.3407 -1.10478 45.7183 32.3407 -1.10478
535 1 46.6575 30.6575 0.495555 46.6575 30.6575 0.495555
536 2 48.5815 30.6118 2.09932 48.5815 30.6118 2.09932
537 2 48.537 30.7035 -1.16101 48.537 30.7035 -1.16101
538 1 49.5105 32.3041 0.502555 49.5105 32.3041 0.502555