ITEM: TIMESTEP
98000
ITEM: NUMBER OF ATOMS
810
ITEM: BOX BOUNDS pp pp pp
8.6275897041631711e-01 5.2154846029582664e+01
8.1073815530820181e-01 5.0205476844690907e+01
-1.0000000000000000e+01 1.0000000000000000e+01
ITEM: ATOMS id type x y z xu yu zu
1 1 1.06792 1.02519 -0.520234 1.06792 1.02519 -0.520234
2 2 2.88849 1.02229 1.20126 2.88849 1.02229 1.20126
3 2 3.04569 1.02803 -2.05714 3.04569 1.02803 -2.05714
4 1 3.91673 2.67152 -0.378994 3.91673 2.67152 -0.378994
5 2 5.72104 2.67112 1.35939 5.72104 2.67112 1.35939
6 2 5.90879 2.67193 -1.89738 5.90879 2.67193 -1.89738
7 1 6.7639 1.02502 -0.214473 6.7639 1.02502 -0.214473
8 2 8.56422 1.02043 1.52783 8.56422 1.02043 1.52783
9 2 8.7594 1.02959 -1.72847 8.7594 1.02959 -1.72847
10 1 9.61076 2.67145 -0.0386839 9.61076 2.67145 -0.0386839
11 2 11.4189 2.66886 1.6953 11.4189 2.66886 1.6953
12 2 11.5995 2.67409 -1.56183 11.5995 2.67409 -1.56183
13 1 12.4584 1.02482 0.116825 12.4584 1.02482 0.116825
14 2 14.2875 1.01775 1.82848 14.2875 1.01775 1.82848
15 2 14.4286 1.03188 -1.43056 14.4286 1.03188 -1.43056
16 1 15.3079 2.67133 0.247178 15.3079 2.67133 0.247178
17 2 17.165 2.66472 1.92821 17.165 2.66472 1.92821
18 2 17.2523 2.67792 -1.33271 17.2523 2.67792 -1.33271
19 1 18.1592 1.02468 0.316453 18.1592 1.02468 0.316453
20 2 20.0507 1.01585 1.95854 20.0507 1.01585 1.95854
21 2 20.0706 1.03358 -1.3035 20.0706 1.03358 -1.3035
22 1 21.0114 2.6712 0.34212 21.0114 2.6712 0.34212
23 2 22.9364 2.66111 1.94469 22.9364 2.66111 1.94469
24 2 22.889 2.68134 -1.31706 22.889 2.68134 -1.31706
25 1 23.8633 1.02479 0.289547 23.8633 1.02479 0.289547
26 2 25.8189 1.01577 1.85455 25.8189 1.01577 1.85455
27 2 25.7084 1.03399 -1.40571 25.7084 1.03399 -1.40571
28 1 26.7139 2.67135 0.201203 26.7139 2.67135 0.201203
29 2 28.6928 2.65967 1.73662 28.6928 2.65967 1.73662
30 2 28.5333 2.6832 -1.52157 28.5333 2.6832 -1.52157
31 1 29.5623 1.02515 0.04887 29.5623 1.02515 0.04887
32 2 31.5548 1.01725 1.56673 31.5548 1.01725 1.56673
33 2 31.3662 1.03318 -1.68996 31.3662 1.03318 -1.68996
34 1 32.4097 2.67178 -0.108681 32.4097 2.67178 -0.108681
35 2 34.4056 2.66091 1.40485 34.4056 2.66091 1.40485
36 2 34.2097 2.68277 -1.85135 34.2097 2.68277 -1.85135
37 1 35.2563 1.02547 -0.291599 35.2563 1.02547 -0.291599
38 2 37.2433 1.01966 1.23388 37.2433 1.01966 1.23388
39 2 37.0665 1.03124 -2.02344 37.0665 1.03124 -2.02344
40 1 38.1043 2.6721 -0.440462 38.1043 2.6721 -0.440462
41 2 40.0738 2.66431 1.10774 40.0738 2.66431 1.10774
42 2 39.9341 2.67978 -2.15136 39.9341 2.67978 -2.15136
43 1 40.9538 1.02552 -0.570408 40.9538 1.02552 -0.570408
44 2 42.896 1.02185 1.01219 42.896 1.02185 1.01219
45 2 42.8133 1.02903 -2.24887 42.8133 1.02903 -2.24887
46 1 43.8052 2.67201 -0.638715 43.8052 2.67201 -0.638715
47 2 45.7167 2.66805 0.981072 45.7167 2.66805 0.981072
48 2 45.6966 2.67573 -2.281 45.6966 2.67573 -2.281
49 1 46.6574 1.02536 -0.659613 46.6574 1.02536 -0.659613
50 2 48.5348 1.02275 0.999768 48.5348 1.02275 0.999768
51 2 48.5826 1.02784 -2.26204 48.5826 1.02784 -2.26204
52 1 49.5094 2.67171 -0.614422 49.5094 2.67171 -0.614422
53 2 51.3559 2.67061 1.07935 51.3559 2.67061 1.07935
54 2 51.4638 2.67267 -2.18105 51.4638 2.67267 -2.18105
55 1 1.06811 4.31798 -0.518105 1.06811 4.31798 -0.518105
56 2 2.88953 4.32014 1.20249 2.88953 4.32014 1.20249
57 2 3.04511 4.31578 -2.05599 3.04511 4.31578 -2.05599
58 1 3.91719 5.96432 -0.383348 3.91719 5.96432 -0.383348
59 2 5.7223 5.97037 1.35421 5.7223 5.97037 1.35421
60 2 5.90854 5.95839 -1.90263 5.90854 5.95839 -1.90263
61 1 6.76417 4.31793 -0.213669 6.76417 4.31793 -0.213669
62 2 8.56364 4.32031 1.52955 8.56364 4.32031 1.52955
63 2 8.76043 4.31568 -1.72667 8.76043 4.31568 -1.72667
64 1 9.61125 5.96449 -0.0434209 9.61125 5.96449 -0.0434209
65 2 11.4176 5.96875 1.69251 11.4176 5.96875 1.69251
66 2 11.6016 5.9604 -1.56442 11.6016 5.9604 -1.56442
67 1 12.4585 4.31799 0.122046 12.4585 4.31799 0.122046
68 2 14.2855 4.31628 1.83601 14.2855 4.31628 1.83601
69 2 14.4306 4.31973 -1.42287 14.4306 4.31973 -1.42287
70 1 15.308 5.96456 0.250553 15.308 5.96456 0.250553
71 2 17.162 5.96213 1.93523 17.162 5.96213 1.93523
72 2 17.2556 5.9669 -1.32553 17.2556 5.9669 -1.32553
73 1 18.1592 4.31784 0.329743 18.1592 4.31784 0.329743
74 2 20.0488 4.31008 1.9741 20.0488 4.31008 1.9741
75 2 20.0725 4.32552 -1.28789 20.0725 4.32552 -1.28789
76 1 21.0116 5.96427 0.357648 21.0116 5.96427 0.357648
77 2 22.9339 5.95403 1.96353 22.9339 5.95403 1.96353
78 2 22.8921 5.97438 -1.29826 22.8921 5.97438 -1.29826
79 1 23.8636 4.31769 0.310003 23.8636 4.31769 0.310003
80 2 25.8183 4.30501 1.87607 25.8183 4.30501 1.87607
81 2 25.7097 4.33041 -1.38418 25.7097 4.33041 -1.38418
82 1 26.7146 5.96416 0.22688 26.7146 5.96416 0.22688
83 2 28.6923 5.94845 1.76378 28.6923 5.94845 1.76378
84 2 28.5353 5.98 -1.49444 28.5353 5.98 -1.49444
85 1 29.563 4.31794 0.0727219 29.563 4.31794 0.0727219
86 2 31.5558 4.30329 1.58997 31.5558 4.30329 1.58997
87 2 31.3664 4.3328 -1.66656 31.3664 4.3328 -1.66656
88 1 32.4107 5.9646 -0.078751 32.4107 5.9646 -0.078751
89 2 34.4075 5.94791 1.4335 34.4075 5.94791 1.4335
90 2 34.2096 5.98153 -1.82247 34.2096 5.98153 -1.82247
91 1 35.2569 4.31846 -0.269367 35.2569 4.31846 -0.269367
92 2 37.2457 4.30572 1.25376 37.2457 4.30572 1.25376
93 2 37.0651 4.33127 -2.00329 37.0651 4.33127 -2.00329
94 1 38.1051 5.96511 -0.414449 38.1051 5.96511 -0.414449
95 2 40.0775 5.95262 1.13 40.0775 5.95262 1.13
96 2 39.9316 5.97755 -2.12879 39.9316 5.97755 -2.12879
97 1 40.9541 4.31865 -0.554627 40.9541 4.31865 -0.554627
98 2 42.8987 4.311 1.02496 42.8987 4.311 1.02496
99 2 42.8109 4.32608 -2.23596 42.8109 4.32608 -2.23596
100 1 43.8055 5.96504 -0.623277 43.8055 5.96504 -0.623277
101 2 45.7206 5.96 0.992184 45.7206 5.96 0.992184
102 2 45.6931 5.96975 -2.26984 45.6931 5.96975 -2.26984
103 1 46.6575 4.31834 -0.651743 46.6575 4.31834 -0.651743
104 2 48.5369 4.31647 1.00535 48.5369 4.31647 1.00535
105 2 48.5807 4.31993 -2.25652 48.5807 4.31993 -2.25652
106 1 49.5096 5.96456 -0.610795 49.5096 5.96456 -0.610795
107 2 51.359 5.96676 1.07985 51.359 5.96676 1.07985
108 2 51.4613 5.96214 -2.18073 51.4613 5.96214 -2.18073
109 1 1.06856 7.61077 -0.522644 1.06856 7.61077 -0.522644
110 2 2.89295 7.61802 1.19478 2.89295 7.61802 1.19478
111 2 3.04287 7.60347 -2.06393 3.04287 7.60347 -2.06393
112 1 3.91802 9.25712 -0.397958 3.91802 9.25712 -0.397958
113 2 5.72526 9.26913 1.33736 5.72526 9.26913 1.33736
114 2 5.90749 9.24526 -1.91964 5.90749 9.24526 -1.91964
115 1 6.76495 7.61082 -0.225772 6.76495 7.61082 -0.225772
116 2 8.56421 7.62015 1.51767 8.56421 7.62015 1.51767
117 2 8.76139 7.60173 -1.73847 8.76139 7.60173 -1.73847
118 1 9.61227 9.25747 -0.062108 9.61227 9.25747 -0.062108
119 2 11.4166 9.26852 1.67588 11.4166 9.26852 1.67588
120 2 11.6043 9.24669 -1.58078 11.6043 9.24669 -1.58078
121 1 12.4591 7.61114 0.113491 12.4591 7.61114 0.113491
122 2 14.2828 7.61565 1.83105 14.2828 7.61565 1.83105
123 2 14.4342 7.60671 -1.42753 14.4342 7.60671 -1.42753
124 1 15.3086 9.25775 0.241319 15.3086 9.25775 0.241319
125 2 17.1576 9.26078 1.93139 17.1576 9.26078 1.93139
126 2 17.2607 9.25462 -1.32907 17.2607 9.25462 -1.32907
127 1 18.1594 7.61104 0.334405 18.1594 7.61104 0.334405
128 2 20.0447 7.60643 1.98376 20.0447 7.60643 1.98376
129 2 20.077 7.61543 -1.27816 20.077 7.61543 -1.27816
130 1 21.0118 9.25741 0.366567 21.0118 9.25741 0.366567
131 2 22.9292 9.24968 1.97843 22.9292 9.24968 1.97843
132 2 22.8975 9.26485 -1.28348 22.8975 9.26485 -1.28348
133 1 23.864 7.61065 0.33049 23.864 7.61065 0.33049
134 2 25.8157 7.59729 1.90048 25.8157 7.59729 1.90048
135 2 25.7135 7.62391 -1.35994 25.7135 7.62391 -1.35994
136 1 26.7153 9.25705 0.253709 26.7153 9.25705 0.253709
137 2 28.6903 9.2409 1.79435 28.6903 9.2409 1.79435
138 2 28.5394 9.27323 -1.46413 28.5394 9.27323 -1.46413
139 1 29.564 7.61071 0.104631 29.564 7.61071 0.104631
140 2 31.5561 7.59263 1.62287 31.5561 7.59263 1.62287
141 2 31.3683 7.62904 -1.63367 31.3683 7.62904 -1.63367
142 1 32.4121 9.25737 -0.0418681 32.4121 9.25737 -0.0418681
143 2 34.4092 9.2386 1.46993 34.4092 9.2386 1.46993
144 2 34.2106 9.27647 -1.78595 34.2106 9.27647 -1.78595
145 1 35.2581 7.61131 -0.235224 35.2581 7.61131 -0.235224
146 2 37.249 7.59457 1.28507 37.249 7.59457 1.28507
147 2 37.0638 7.62825 -1.97165 37.0638 7.62825 -1.97165
148 1 38.1062 9.25798 -0.380176 38.1062 9.25798 -0.380176
149 2 40.0824 9.24369 1.15946 40.0824 9.24369 1.15946
150 2 39.9286 9.27234 -2.09895 39.9286 9.27234 -2.09895
151 1 40.9547 7.61164 -0.529179 40.9547 7.61164 -0.529179
152 2 42.9037 7.60194 1.04503 42.9037 7.60194 1.04503
153 2 42.8069 7.62113 -2.21564 42.8069 7.62113 -2.21564
154 1 43.8059 9.25798 -0.603591 43.8059 9.25798 -0.603591
155 2 45.7267 9.25335 1.00516 45.7267 9.25335 1.00516
156 2 45.6877 9.26225 -2.25677 45.6877 9.26225 -2.25677
157 1 46.6578 7.61126 -0.641662 46.6578 7.61126 -0.641662
158 2 48.5418 7.61098 1.01014 48.5418 7.61098 1.01014
159 2 48.5764 7.61118 -2.25187 48.5764 7.61118 -2.25187
160 1 49.51 9.25739 -0.61037 49.51 9.25739 -0.61037
161 2 51.3643 9.2631 1.07475 51.3643 9.2631 1.07475
162 2 51.4569 9.25141 -2.18611 51.4569 9.25141 -2.18611
163 1 1.06921 10.9036 -0.534276 1.06921 10.9036 -0.534276
164 2 2.89808 10.9153 1.17834 2.89808 10.9153 1.17834
165 2 3.03947 10.8918 -2.0807 3.03947 10.8918 -2.0807
166 1 3.91909 12.5499 -0.421556 3.91909 12.5499 -0.421556
167 2 5.72937 12.5664 1.31056 5.72937 12.5664 1.31056
168 2 5.90589 12.5336 -1.94668 5.90589 12.5336 -1.94668
169 1 6.76616 10.9037 -0.24988 6.76616 10.9037 -0.24988
170 2 8.56581 10.919 1.49312 8.56581 10.919 1.49312
171 2 8.76223 10.8886 -1.76298 8.76223 10.8886 -1.76298
172 1 9.61369 12.5504 -0.0929278 9.61369 12.5504 -0.0929278
173 2 11.4162 12.5669 1.64695 11.4162 12.5669 1.64695
174 2 11.6073 12.5341 -1.60943 11.6073 12.5341 -1.60943
175 1 12.4602 10.9042 0.0912609 12.4602 10.9042 0.0912609
176 2 14.2798 10.915 1.81307 14.2798 10.915 1.81307
177 2 14.4388 10.8936 -1.4451 14.4388 10.8936 -1.4451
178 1 15.3094 12.5508 0.219454 15.3094 12.5508 0.219454
179 2 17.1527 12.5594 1.91583 17.1527 12.5594 1.91583
180 2 17.2668 12.5422 -1.34424 17.2668 12.5422 -1.34424
181 1 18.1598 10.9042 0.327925 18.1598 10.9042 0.327925
182 2 20.0391 10.9044 1.9842 20.0391 10.9044 1.9842
183 2 20.0833 10.9038 -1.27759 20.0833 10.9038 -1.27759
184 1 21.0122 12.5506 0.365656 21.0122 12.5506 0.365656
185 2 22.9231 12.5472 1.98527 22.9231 12.5472 1.98527
186 2 22.9044 12.5535 -1.27677 22.9044 12.5535 -1.27677
187 1 23.8644 10.9037 0.345639 23.8644 10.9037 0.345639
188 2 25.8112 10.8928 1.92187 25.8112 10.8928 1.92187
189 2 25.7194 10.9144 -1.33888 25.7194 10.9144 -1.33888
190 1 26.7161 12.5501 0.275435 26.7161 12.5501 0.275435
191 2 28.6868 12.5368 1.82159 28.6868 12.5368 1.82159
192 2 28.5449 12.5633 -1.43734 28.5449 12.5633 -1.43734
193 1 29.5652 10.9036 0.137266 29.5652 10.9036 0.137266
194 2 31.5554 10.8859 1.65811 31.5554 10.8859 1.65811
195 2 31.3718 10.9214 -1.59867 31.3718 10.9214 -1.59867
196 1 32.4136 12.5502 -0.00599487 32.4136 12.5502 -0.00599487
197 2 34.4102 12.5331 1.50642 34.4102 12.5331 1.50642
198 2 34.2126 12.5677 -1.74956 34.2126 12.5677 -1.74956
199 1 35.2596 10.9041 -0.196811 35.2596 10.9041 -0.196811
200 2 37.2524 10.887 1.3209 37.2524 10.887 1.3209
201 2 37.0631 10.9216 -1.93558 37.0631 10.9216 -1.93558
202 1 38.1076 12.5508 -0.344992 38.1076 12.5508 -0.344992
203 2 40.0874 12.5376 1.18981 40.0874 12.5376 1.18981
204 2 39.9257 12.5642 -2.06825 39.9257 12.5642 -2.06825
205 1 40.9556 10.9045 -0.499938 40.9556 10.9045 -0.499938
206 2 42.9099 10.895 1.06763 42.9099 10.895 1.06763
207 2 42.802 10.9139 -2.19271 42.802 10.9139 -2.19271
208 1 43.8065 12.5508 -0.584233 43.8065 12.5508 -0.584233
209 2 45.7338 12.5478 1.01669 45.7338 12.5478 1.01669
210 2 45.6816 12.5536 -2.24508 45.6816 12.5536 -2.24508
211 1 46.6581 10.9041 -0.632371 46.6581 10.9041 -0.632371
212 2 48.5485 10.906 1.01212 48.5485 10.906 1.01212
213 2 48.5705 10.9019 -2.25 48.5705 10.9019 -2.25
214 1 49.5105 12.5502 -0.614329 49.5105 12.5502 -0.614329
215 2 51.371 12.5589 1.06385 51.371 12.5589 1.06385
216 2 51.4515 12.5413 -2.1973 51.4515 12.5413 -2.1973
217 1 1.06995 14.1964 -0.551861 1.06995 14.1964 -0.551861
218 2 2.90404 14.2108 1.15512 2.90404 14.2108 1.15512
219 2 3.03549 14.1819 -2.10429 3.03549 14.1819 -2.10429
220 1 3.92022 15.8427 -0.450625 3.92022 15.8427 -0.450625
221 2 5.73396 15.8608 1.27783 5.73396 15.8608 1.27783
222 2 5.90398 15.8247 -1.97971 5.90398 15.8247 -1.97971
223 1 6.7676 14.1965 -0.282974 6.7676 14.1965 -0.282974
224 2 8.56818 14.2156 1.45904 8.56818 14.2156 1.45904
225 2 8.76287 14.1777 -1.79709 8.76287 14.1777 -1.79709
226 1 9.61529 15.8432 -0.131335 9.61529 15.8432 -0.131335
227 2 11.4164 15.8625 1.60999 11.4164 15.8625 1.60999
228 2 11.6101 15.8242 -1.64619 11.6101 15.8242 -1.64619
229 1 12.4615 14.1971 0.0579037 12.4615 14.1971 0.0579037
230 2 14.2771 14.2126 1.78398 14.2771 14.2126 1.78398
231 2 14.4438 14.1818 -1.47375 14.4438 14.1818 -1.47375
232 1 15.3105 15.8438 0.188058 15.3105 15.8438 0.188058
233 2 17.148 15.8563 1.89067 17.148 15.8563 1.89067
234 2 17.2731 15.8313 -1.36896 17.2731 15.8313 -1.36896
235 1 18.1604 14.1973 0.310179 18.1604 14.1973 0.310179
236 2 20.0328 14.2025 1.97422 20.0328 14.2025 1.97422
237 2 20.0905 14.192 -1.28736 20.0905 14.192 -1.28736
238 1 21.0126 15.8437 0.354717 21.0126 15.8437 0.354717
239 2 22.9164 15.845 1.98257 22.9164 15.845 1.98257
240 2 22.9118 15.842 -1.27953 22.9118 15.842 -1.27953
241 1 23.8648 14.1969 0.351757 23.8648 14.1969 0.351757
242 2 25.8054 14.1903 1.93555 25.8054 14.1903 1.93555
243 2 25.7263 14.2031 -1.32557 25.7263 14.2031 -1.32557
244 1 26.7167 15.8432 0.288133 26.7167 15.8432 0.288133
245 2 28.6824 15.8347 1.84061 28.6824 15.8347 1.84061
246 2 28.5509 15.8516 -1.41882 28.5509 15.8516 -1.41882
247 1 29.5662 14.1965 0.163991 29.5662 14.1965 0.163991
248 2 31.5536 14.1825 1.68867 31.5536 14.1825 1.68867
249 2 31.3762 14.2107 -1.56852 31.3762 14.2107 -1.56852
250 1 32.4148 15.8432 0.0225151 32.4148 15.8432 0.0225151
251 2 34.4104 15.8303 1.53648 34.4104 15.8303 1.53648
252 2 34.2152 15.8563 -1.71973 34.2152 15.8563 -1.71973
253 1 35.2611 14.1969 -0.161739 35.2611 14.1969 -0.161739
254 2 37.2553 14.1824 1.35419 37.2553 14.1824 1.35419
255 2 37.063 14.2118 -1.90218 37.063 14.2118 -1.90218
256 1 38.1089 15.8436 -0.31519 38.1089 15.8436 -0.31519
257 2 40.0918 15.8335 1.21557 40.0918 15.8335 1.21557
258 2 39.9234 15.8539 -2.04222 39.9234 15.8539 -2.04222
259 1 40.9567 14.1973 -0.472792 40.9567 14.1973 -0.472792
260 2 42.9162 14.1898 1.08812 42.9162 14.1898 1.08812
261 2 42.7972 14.2048 -2.17188 42.7972 14.2048 -2.17188
262 1 43.8072 15.8437 -0.568762 43.8072 15.8437 -0.568762
263 2 45.7406 15.8426 1.02456 45.7406 15.8426 1.02456
264 2 45.6757 15.8445 -2.237 45.6757 15.8445 -2.237
265 1 46.6586 14.197 -0.626198 46.6586 14.197 -0.626198
266 2 48.5558 14.2009 1.01025 48.5558 14.2009 1.01025
267 2 48.564 14.1928 -2.25193 48.564 14.1928 -2.25193
268 1 49.5109 15.8431 -0.622266 49.5109 15.8431 -0.622266
269 2 51.3779 15.8531 1.0487 51.3779 15.8531 1.0487
270 2 51.4459 15.8328 -2.21272 51.4459 15.8328 -2.21272
271 1 1.07063 17.4893 -0.572224 1.07063 17.4893 -0.572224
272 2 2.90989 17.5036 1.12918 2.90989 17.5036 1.12918
273 2 3.0315 17.4748 -2.1306 3.0315 17.4748 -2.1306
274 1 3.92118 19.1357 -0.479618 3.92118 19.1357 -0.479618
275 2 5.73832 19.1519 1.24529 5.73832 19.1519 1.24529
276 2 5.90198 19.1195 -2.01261 5.90198 19.1195 -2.01261
277 1 6.76903 17.4893 -0.319469 6.76903 17.4893 -0.319469
278 2 8.57092 17.5086 1.42117 8.57092 17.5086 1.42117
279 2 8.76316 17.4702 -1.8351 8.76316 17.4702 -1.8351
280 1 9.61678 19.136 -0.170283 9.61678 19.136 -0.170283
281 2 11.4171 19.1542 1.57182 11.4171 19.1542 1.57182
282 2 11.6122 19.1181 -1.68431 11.6122 19.1181 -1.68431
283 1 12.463 17.4899 0.0190633 12.463 17.4899 0.0190633
284 2 14.2751 17.5072 1.74879 14.2751 17.5072 1.74879
285 2 14.4483 17.473 -1.50859 14.4483 17.473 -1.50859
286 1 15.3116 19.1366 0.153224 15.3116 19.1366 0.153224
287 2 17.1443 19.1504 1.86101 17.1443 19.1504 1.86101
288 2 17.2785 19.123 -1.39827 17.2785 19.123 -1.39827
289 1 18.1611 17.4903 0.284503 18.1611 17.4903 0.284503
290 2 20.0269 17.499 1.95589 20.0269 17.499 1.95589
291 2 20.0973 17.4815 -1.30543 20.0973 17.4815 -1.30543
292 1 21.0129 19.1367 0.336724 21.0129 19.1367 0.336724
293 2 22.9105 19.1418 1.97186 22.9105 19.1418 1.97186
294 2 22.9184 19.1315 -1.29024 22.9184 19.1315 -1.29024
295 1 23.8651 17.49 0.348405 23.8651 17.49 0.348405
296 2 25.7996 17.4884 1.93975 25.7996 17.4884 1.93975
297 2 25.733 17.4914 -1.32168 25.733 17.4914 -1.32168
298 1 26.7171 19.1364 0.290934 26.7171 19.1364 0.290934
299 2 28.6781 19.1334 1.84933 28.6781 19.1334 1.84933
300 2 28.5564 19.1393 -1.41051 28.5564 19.1393 -1.41051
301 1 29.5671 17.4897 0.18091 29.5671 17.4897 0.18091
302 2 31.5511 17.481 1.70989 31.5511 17.481 1.70989
303 2 31.3807 17.4984 -1.54775 31.3807 17.4984 -1.54775
304 1 32.4158 19.1363 0.0400978 32.4158 19.1363 0.0400978
305 2 34.4098 19.1291 1.55609 34.4098 19.1291 1.55609
306 2 34.2179 19.1436 -1.7004 34.2179 19.1436 -1.7004
307 1 35.2624 17.4899 -0.135444 35.2624 17.4899 -0.135444
308 2 37.2572 17.48 1.37966 37.2572 17.48 1.37966
309 2 37.0635 17.5 -1.87671 37.0635 17.5 -1.87671
310 1 38.1099 19.1365 -0.294853 38.1099 19.1365 -0.294853
311 2 40.095 19.1307 1.23313 40.095 19.1307 1.23313
312 2 39.9221 19.1424 -2.02446 39.9221 19.1424 -2.02446
313 1 40.9576 17.4901 -0.452038 40.9576 17.4901 -0.452038
314 2 42.9215 17.4855 1.10324 42.9215 17.4855 1.10324
315 2 42.7933 17.4948 -2.15643 42.7933 17.4948 -2.15643
316 1 43.8077 19.1365 -0.559131 43.8077 19.1365 -0.559131
317 2 45.7462 19.1371 1.02802 45.7462 19.1371 1.02802
318 2 45.6709 19.1357 -2.2333 45.6709 19.1357 -2.2333
319 1 46.6589 17.4899 -0.623935 46.6589 17.4899 -0.623935
320 2 48.5626 17.4947 1.00506 48.5626 17.4947 1.00506
321 2 48.5581 17.4847 -2.25711 48.5581 17.4847 -2.25711
322 1 49.5113 19.136 -0.632169 49.5113 19.136 -0.632169
323 2 51.3839 19.1452 1.03248 51.3839 19.1452 1.03248
324 2 51.4409 19.1265 -2.22913 51.4409 19.1265 -2.22913
325 1 1.07113 20.7823 -0.590937 1.07113 20.7823 -0.590937
326 2 2.91467 20.7935 1.10583 2.91467 20.7935 1.10583
327 2 3.02812 20.7709 -2.15427 3.02812 20.7709 -2.15427
328 1 3.9218 22.4287 -0.502462 3.9218 22.4287 -0.502462
329 2 5.74173 22.4397 1.21953 5.74173 22.4397 1.21953
330 2 5.90015 22.4177 -2.0387 5.90015 22.4177 -2.0387
331 1 6.77015 20.7822 -0.352191 6.77015 20.7822 -0.352191
332 2 8.57361 20.7979 1.38686 8.57361 20.7979 1.38686
333 2 8.76294 20.7667 -1.86966 8.76294 20.7667 -1.86966
334 1 9.61784 22.4289 -0.201959 9.61784 22.4289 -0.201959
335 2 11.4182 22.4424 1.54006 11.4182 22.4424 1.54006
336 2 11.6132 22.4157 -1.71618 11.6132 22.4157 -1.71618
337 1 12.4643 20.7827 -0.0176208 12.4643 20.7827 -0.0176208
338 2 14.274 20.7981 1.71452 14.274 20.7981 1.71452
339 2 14.4515 20.7676 -1.54269 14.4515 20.7676 -1.54269
340 1 15.3125 22.4294 0.122169 15.3125 22.4294 0.122169
341 2 17.1421 22.4415 1.83315 17.1421 22.4415 1.83315
342 2 17.282 22.4176 -1.42595 17.282 22.4176 -1.42595
343 1 18.1617 20.7832 0.256551 18.1617 20.7832 0.256551
344 2 20.0224 20.7933 1.93359 20.0224 20.7933 1.93359
345 2 20.1027 20.7731 -1.32751 20.1027 20.7731 -1.32751
346 1 21.0133 22.4297 0.316108 21.0133 22.4297 0.316108
347 2 22.9064 22.4372 1.95631 22.9064 22.4372 1.95631
348 2 22.9229 22.4222 -1.30577 22.9229 22.4222 -1.30577
349 1 23.8654 20.7832 0.337647 23.8654 20.7832 0.337647
350 2 25.7946 20.786 1.93517 25.7946 20.786 1.93517
351 2 25.7385 20.7801 -1.32647 25.7385 20.7801 -1.32647
352 1 26.7173 22.4296 0.284845 26.7173 22.4296 0.284845
353 2 28.6747 22.432 1.84771 28.6747 22.432 1.84771
354 2 28.5604 22.4271 -1.41242 28.5604 22.4271 -1.41242
355 1 29.5676 20.7829 0.186764 29.5676 20.7829 0.186764
356 2 31.5486 20.7803 1.71963 31.5486 20.7803 1.71963
357 2 31.3846 20.7855 -1.53839 31.3846 20.7855 -1.53839
358 1 32.4163 22.4294 0.0453377 32.4163 22.4294 0.0453377
359 2 34.4088 22.4287 1.56331 34.4088 22.4287 1.56331
360 2 34.2201 22.4302 -1.6934 34.2201 22.4302 -1.6934
361 1 35.2633 20.7829 -0.120881 35.2633 20.7829 -0.120881
362 2 37.2581 20.7786 1.39423 37.2581 20.7786 1.39423
363 2 37.0644 20.7873 -1.8622 37.0644 20.7873 -1.8622
364 1 38.1106 22.4294 -0.286109 38.1106 22.4294 -0.286109
365 2 40.0966 22.4285 1.24062 40.0966 22.4285 1.24062
366 2 39.9216 22.4304 -2.01689 39.9216 22.4304 -2.01689
367 1 40.9583 20.783 -0.440137 40.9583 20.783 -0.440137
368 2 42.9252 20.7815 1.11133 42.9252 20.7815 1.11133
369 2 42.7907 20.7844 -2.14809 42.7907 20.7844 -2.14809
370 1 43.8081 22.4293 -0.556029 43.8081 22.4293 -0.556029
371 2 45.7496 22.4311 1.02739 45.7496 22.4311 1.02739
372 2 45.6681 22.4274 -2.23378 45.6681 22.4274 -2.23378
373 1 46.6593 20.7827 -0.625103 46.6593 20.7827 -0.625103
374 2 48.5676 20.7872 0.998291 48.5676 20.7872 0.998291
375 2 48.5536 20.778 -2.26384 48.5536 20.778 -2.26384
376 1 49.5115 22.429 -0.641382 49.5115 22.429 -0.641382
377 2 51.3879 22.4353 1.01894 51.3879 22.4353 1.01894
378 2 51.4375 22.4225 -2.24281 51.4375 22.4225 -2.24281
379 1 1.07136 24.0754 -0.603862 1.07136 24.0754 -0.603862
380 2 2.91757 24.0813 1.09002 2.91757 24.0813 1.09002
381 2 3.02592 24.0694 -2.1703 3.02592 24.0694 -2.1703
382 1 3.92198 25.722 -0.514487 3.92198 25.722 -0.514487
383 2 5.7436 25.7256 1.20572 5.7436 25.7256 1.20572
384 2 5.89883 25.7182 -2.05272 5.89883 25.7182 -2.05272
385 1 6.77076 24.0753 -0.37444 6.77076 24.0753 -0.37444
386 2 8.57579 24.0843 1.36301 8.57579 24.0843 1.36301
387 2 8.76218 24.0664 -1.89378 8.76218 24.0664 -1.89378
388 1 9.61827 25.722 -0.22001 9.61827 25.722 -0.22001
389 2 11.4196 25.728 1.52106 11.4196 25.728 1.52106
390 2 11.6128 25.716 -1.73539 11.6128 25.716 -1.73539
391 1 12.4651 24.0756 -0.0447078 12.4651 24.0756 -0.0447078
392 2 14.2741 24.0861 1.68814 14.2741 24.0861 1.68814
393 2 14.4528 24.0653 -1.56909 14.4528 24.0653 -1.56909
394 1 15.313 25.7223 0.101134 15.313 25.7223 0.101134
395 2 17.142 25.7303 1.81272 17.142 25.7303 1.81272
396 2 17.2829 25.7145 -1.44641 17.2829 25.7145 -1.44641
397 1 18.1622 24.076 0.232233 18.1622 24.076 0.232233
398 2 20.0201 24.0854 1.91224 20.0201 24.0854 1.91224
399 2 20.1056 24.0668 -1.34877 20.1056 24.0668 -1.34877
400 1 21.0134 25.7226 0.29714 21.0134 25.7226 0.29714
401 2 22.9048 25.731 1.93929 22.9048 25.731 1.93929
402 2 22.9247 25.7144 -1.32279 22.9247 25.7144 -1.32279
403 1 23.8655 24.0762 0.322408 23.8655 24.0762 0.322408
404 2 25.7916 24.0828 1.92366 25.7916 24.0828 1.92366
405 2 25.7418 24.0697 -1.33808 25.7418 24.0697 -1.33808
406 1 26.7173 25.7228 0.271511 26.7173 25.7228 0.271511
407 2 28.6728 25.7302 1.83662 28.6728 25.7302 1.83662
408 2 28.5623 25.7153 -1.42363 28.5623 25.7153 -1.42363
409 1 29.5677 24.0761 0.181716 29.5677 24.0761 0.181716
410 2 31.5466 24.0797 1.71734 31.5466 24.0797 1.71734
411 2 31.3871 24.0725 -1.5409 31.3871 24.0725 -1.5409
412 1 32.4163 25.7226 0.0379566 32.4163 25.7226 0.0379566
413 2 34.4076 25.7283 1.55752 34.4076 25.7283 1.55752
414 2 34.2215 25.7168 -1.69933 34.2215 25.7168 -1.69933
415 1 35.2637 24.0759 -0.119353 35.2637 24.0759 -0.119353
416 2 37.2579 24.0778 1.39646 37.2579 24.0778 1.39646
417 2 37.0654 24.0741 -1.86005 37.0654 24.0741 -1.86005
418 1 38.1107 25.7224 -0.289804 38.1107 25.7224 -0.289804
419 2 40.0964 25.7263 1.23736 40.0964 25.7263 1.23736
420 2 39.9221 25.7183 -2.02018 39.9221 25.7183 -2.02018
421 1 40.9586 24.0758 -0.438181 40.9586 24.0758 -0.438181
422 2 42.9267 24.0775 1.11184 42.9267 24.0775 1.11184
423 2 42.7898 24.0741 -2.14749 42.7898 24.0741 -2.14749
424 1 43.8082 25.7222 -0.559414 43.8082 25.7222 -0.559414
425 2 45.7502 25.7247 1.02333 45.7502 25.7247 1.02333
426 2 45.6676 25.7196 -2.23781 45.6676 25.7196 -2.23781
427 1 46.6594 24.0756 -0.62871 46.6594 24.0756 -0.62871
428 2 48.5701 24.0787 0.991887 48.5701 24.0787 0.991887
429 2 48.5514 24.0724 -2.27022 48.5514 24.0724 -2.27022
430 1 49.5116 25.722 -0.647751 49.5116 25.722 -0.647751
431 2 51.3894 25.7243 1.011 51.3894 25.7243 1.011
432 2 51.4362 25.7197 -2.25081 51.4362 25.7197 -2.25081
433 1 1.07131 27.3686 -0.608486 1.07131 27.3686 -0.608486
434 2 2.91806 27.3681 1.08479 2.91806 27.3681 1.08479
435 2 3.02535 27.369 -2.17559 3.02535 27.369 -2.17559
436 1 3.92171 29.0152 -0.513623 3.92171 29.0152 -0.513623
437 2 5.74354 29.011 1.20633 5.74354 29.011 1.20633
438 2 5.89833 29.0193 -2.05214 5.89833 29.0193 -2.05214
439 1 6.77076 27.3686 -0.381913 6.77076 27.3686 -0.381913
440 2 8.57703 27.3691 1.35423 8.57703 27.3691 1.35423
441 2 8.76105 27.3679 -1.90275 8.76105 27.3679 -1.90275
442 1 9.618 29.0151 -0.22111 9.618 29.0151 -0.22111
443 2 11.4209 29.0128 1.5183 11.4209 29.0128 1.5183
444 2 11.6111 29.0174 -1.73835 11.6111 29.0174 -1.73835
445 1 12.4652 27.3686 -0.056911 12.4652 27.3686 -0.056911
446 2 14.2754 27.3722 1.67479 14.2754 27.3722 1.67479
447 2 14.452 27.3651 -1.58264 14.452 27.3651 -1.58264
448 1 15.3129 29.0152 0.0940084 15.3129 29.0152 0.0940084
449 2 17.1439 29.0178 1.80345 17.1439 29.0178 1.80345
450 2 17.281 29.0127 -1.45589 17.281 29.0127 -1.45589
451 1 18.1624 27.3689 0.216249 18.1624 27.3689 0.216249
452 2 20.0205 27.3759 1.89596 20.0205 27.3759 1.89596
453 2 20.1055 27.362 -1.36511 20.1055 27.362 -1.36511
454 1 21.0134 29.0155 0.283134 21.0134 29.0155 0.283134
455 2 22.9061 29.0236 1.92367 22.9061 29.0236 1.92367
456 2 22.9232 29.0077 -1.33845 22.9232 29.0077 -1.33845
457 1 23.8654 27.3693 0.30554 23.8654 27.3693 0.30554
458 2 25.791 27.3785 1.9074 25.791 27.3785 1.9074
459 2 25.7422 27.3601 -1.35435 25.7422 27.3601 -1.35435
460 1 26.717 29.0159 0.252906 26.717 29.0159 0.252906
461 2 28.6728 29.0274 1.81762 28.6728 29.0274 1.81762
462 2 28.5617 29.0044 -1.44257 28.5617 29.0044 -1.44257
463 1 29.5675 27.3693 0.166659 29.5675 27.3693 0.166659
464 2 31.5454 27.3788 1.70348 31.5454 27.3788 1.70348
465 2 31.3879 27.3598 -1.55483 31.3879 27.3598 -1.55483
466 1 32.4159 29.0158 0.0187157 32.4159 29.0158 0.0187157
467 2 34.4063 29.0273 1.53933 34.4063 29.0273 1.53933
468 2 34.222 29.004 -1.71757 34.222 29.004 -1.71757
469 1 35.2635 27.369 -0.131065 35.2635 27.369 -0.131065
470 2 37.2566 27.3767 1.38612 37.2566 27.3767 1.38612
471 2 37.0664 27.3612 -1.87049 37.0664 27.3612 -1.87049
472 1 38.1103 29.0153 -0.30558 38.1103 29.0153 -0.30558
473 2 40.0943 29.0236 1.22379 40.0943 29.0236 1.22379
474 2 39.9237 29.0068 -2.03391 39.9237 29.0068 -2.03391
475 1 40.9586 27.3687 -0.446264 40.9586 27.3687 -0.446264
476 2 42.9256 27.3732 1.10496 42.9256 27.3732 1.10496
477 2 42.7908 27.3641 -2.15444 42.7908 27.3641 -2.15444
478 1 43.8081 29.0151 -0.5687 43.8081 29.0151 -0.5687
479 2 45.748 29.018 1.01656 45.748 29.018 1.01656
480 2 45.6697 29.0122 -2.24468 45.6697 29.0122 -2.24468
481 1 46.6594 27.3686 -0.633865 46.6594 27.3686 -0.633865
482 2 48.5697 27.3698 0.987231 48.5697 27.3698 0.987231
483 2 48.5518 27.3674 -2.27488 48.5518 27.3674 -2.27488
484 1 49.5114 29.0151 -0.650203 49.5114 29.0151 -0.650203
485 2 51.3879 29.0131 1.01001 51.3879 29.0131 1.01001
486 2 51.4374 29.0173 -2.25175 51.4374 29.0173 -2.25175
487 1 1.07099 30.6618 -0.604304 1.07099 30.6618 -0.604304
488 2 2.91604 30.6553 1.09079 2.91604 30.6553 1.09079
489 2 3.02655 30.6683 -2.16946 3.02655 30.6683 -2.16946
490 1 3.92104 32.3085 -0.500462 3.92104 32.3085 -0.500462
491 2 5.74151 32.2974 1.22086 5.74151 32.2974 1.22086
492 2 5.89881 32.3195 -2.03743 5.89881 32.3195 -2.03743
493 1 6.77017 30.6618 -0.373522 6.77017 30.6618 -0.373522
494 2 8.57706 30.654 1.36191 8.57706 30.654 1.36191
495 2 8.75985 30.6694 -1.8951 8.75985 30.6694 -1.8951
496 1 9.61708 32.3083 -0.205413 9.61708 32.3083 -0.205413
497 2 11.4219 32.2982 1.53195 11.4219 32.2982 1.53195
498 2 11.6085 32.3181 -1.72485 11.6085 32.3181 -1.72485
499 1 12.4647 30.6616 -0.0521844 12.4647 30.6616 -0.0521844
500 2 14.2775 30.6579 1.67668 14.2775 30.6579 1.67668
501 2 14.449 30.6653 -1.58103 14.449 30.6653 -1.58103
502 1 15.3123 32.3081 0.101651 15.3123 32.3081 0.101651
503 2 17.1475 32.3052 1.80651 17.1475 32.3052 1.80651
504 2 17.2765 32.311 -1.45317 17.2765 32.311 -1.45317
505 1 18.1622 30.6617 0.211212 18.1622 30.6617 0.211212
506 2 20.0235 30.6655 1.88732 20.0235 30.6655 1.88732
507 2 20.1021 30.6582 -1.37395 20.1021 30.6582 -1.37395
508 1 21.0131 32.3084 0.275941 21.0131 32.3084 0.275941
509 2 22.9101 32.3153 1.91152 22.9101 32.3153 1.91152
510 2 22.9187 32.3019 -1.35066 22.9187 32.3019 -1.35066
511 1 23.8652 30.6622 0.289496 23.8652 30.6622 0.289496
512 2 25.7929 30.673 1.88866 25.7929 30.673 1.88866
513 2 25.7396 30.6517 -1.37303 25.7396 30.6517 -1.37303
514 1 26.7165 32.3089 0.231407 26.7165 32.3089 0.231407
515 2 28.6746 32.3231 1.79313 28.6746 32.3231 1.79313
516 2 28.5586 32.2949 -1.46688 28.5586 32.2949 -1.46688
517 1 29.567 30.6624 0.143396 29.567 30.6624 0.143396
518 2 31.5452 30.6766 1.67968 31.5452 30.6766 1.67968
519 2 31.3869 30.6482 -1.57854 31.3869 30.6482 -1.57854
520 1 32.415 32.3088 -0.0100741 32.415 32.3088 -0.0100741
521 2 34.405 32.3248 1.51095 34.405 32.3248 1.51095
522 2 34.2214 32.2926 -1.74592 34.2214 32.2926 -1.74592
523 1 35.2628 30.6621 -0.154773 35.2628 30.6621 -0.154773
524 2 37.2544 30.6747 1.36439 37.2544 30.6747 1.36439
525 2 37.0674 30.6492 -1.89235 37.0674 30.6492 -1.89235
526 1 38.1095 32.3083 -0.331488 38.1095 32.3083 -0.331488
527 2 40.0905 32.3198 1.20165 40.0905 32.3198 1.20165
528 2 39.9261 32.2965 -2.05632 39.9261 32.2965 -2.05632
529 1 40.9581 30.6616 -0.463354 40.9581 30.6616 -0.463354
530 2 42.9222 30.6684 1.09162 42.9222 30.6684 1.09162
531 2 42.7936 30.6547 -2.16801 42.7936 30.6547 -2.16801
532 1 43.8077 32.308 -0.582687 43.8077 32.308 -0.582687
533 2 45.7433 32.3111 1.00788 45.7433 32.3111 1.00788
534 2 45.6738 32.305 -2.25355 45.6738 32.305 -2.25355
535 1 46.6592 30.6616 -0.639876 46.6592 30.6616 -0.639876
536 2 48.5664 30.6608 0.98492 48.5664 30.6608 0.98492
537 2 48.5548 30.6625 -2.27722 48.5548 30.6625 -2.27722
538 1 49.5112 32.3083 -0.648705 49.5112 32.3083 -0.648705
539 2 51.3839 32.3025 1.01576 51.3839 32.3025 1.01576
540 2 51.4407 32.3142 -2.24588 51.4407 32.3142 -2.24588