ITEM: TIMESTEP
74000
ITEM: NUMBER OF ATOMS
810
ITEM: BOX BOUNDS pp pp pp
8.4096033989467389e-01 5.2176644660103591e+01
8.1017830652177347e-01 5.0206036693477422e+01
-1.0000000000000000e+01 1.0000000000000000e+01
ITEM: ATOMS id type x y z xu yu zu
1 1 1.04456 1.02458 -0.129363 1.04456 1.02458 -0.129363
2 2 2.95091 1.04351 1.49569 2.95091 1.04351 1.49569
3 2 2.94086 1.00568 -1.76626 2.94086 1.00568 -1.76626
4 1 3.89653 2.67105 -0.157379 3.89653 2.67105 -0.157379
5 2 5.80512 2.6899 1.46503 5.80512 2.6899 1.46503
6 2 5.79056 2.65222 -1.79691 5.79056 2.65222 -1.79691
7 1 6.74852 1.02457 -0.151129 6.74852 1.02457 -0.151129
8 2 8.6586 1.04365 1.46956 8.6586 1.04365 1.46956
9 2 8.64105 1.00548 -1.79235 8.64105 1.00548 -1.79235
10 1 9.60045 2.671 -0.185843 9.60045 2.671 -0.185843
11 2 11.5104 2.69003 1.43506 11.5104 2.69003 1.43506
12 2 11.4932 2.65197 -1.82686 11.4932 2.65197 -1.82686
13 1 12.4524 1.0245 -0.181658 12.4524 1.0245 -0.181658
14 2 14.3615 1.04366 1.44025 14.3615 1.04366 1.44025
15 2 14.346 1.00533 -1.82168 14.346 1.00533 -1.82168
16 1 15.3044 2.67093 -0.214655 15.3044 2.67093 -0.214655
17 2 17.2113 2.6898 1.4098 17.2113 2.6898 1.4098
18 2 17.2001 2.65205 -1.85215 17.2001 2.65205 -1.85215
19 1 18.1564 1.02443 -0.205332 18.1564 1.02443 -0.205332
20 2 20.0613 1.04348 1.42147 20.0613 1.04348 1.42147
21 2 20.0541 1.00536 -1.84048 20.0541 1.00536 -1.84048
22 1 21.0084 2.67087 -0.230906 21.0084 2.67087 -0.230906
23 2 22.9105 2.68935 1.39922 22.9105 2.68935 1.39922
24 2 22.909 2.65237 -1.86276 22.909 2.65237 -1.86276
25 1 23.8604 1.02437 -0.213495 23.8604 1.02437 -0.213495
26 2 25.7603 1.04331 1.41924 25.7603 1.04331 1.41924
27 2 25.7632 1.0054 -1.84273 25.7632 1.0054 -1.84273
28 1 26.7124 2.67083 -0.230092 26.7124 2.67083 -0.230092
29 2 28.6094 2.68892 1.40596 28.6094 2.68892 1.40596
30 2 28.6181 2.65271 -1.85601 28.6181 2.65271 -1.85601
31 1 29.5644 1.02434 -0.204181 29.5644 1.02434 -0.204181
32 2 31.4594 1.04335 1.43421 31.4594 1.04335 1.43421
33 2 31.4721 1.0053 -1.82773 31.4721 1.0053 -1.82773
34 1 32.4164 2.67081 -0.212337 32.4164 2.67081 -0.212337
35 2 34.3093 2.68873 1.42842 34.3093 2.68873 1.42842
36 2 34.3261 2.6529 -1.83352 34.3261 2.6529 -1.83352
37 1 35.2684 1.02435 -0.179534 35.2684 1.02435 -0.179534
38 2 37.1607 1.04348 1.46192 37.1607 1.04348 1.46192
39 2 37.1787 1.00525 -1.79999 37.1787 1.00525 -1.79999
40 1 38.1203 2.67086 -0.183154 38.1203 2.67086 -0.183154
41 2 40.0126 2.6888 1.4583 40.0126 2.6888 1.4583
42 2 40.0306 2.65296 -1.80364 40.0306 2.65296 -1.80364
43 1 40.9723 1.02443 -0.149294 40.9723 1.02443 -0.149294
44 2 42.8663 1.04349 1.49015 42.8663 1.04349 1.49015
45 2 42.8809 1.00542 -1.77178 42.8809 1.00542 -1.77178
46 1 43.8243 2.67095 -0.155849 43.8243 2.67095 -0.155849
47 2 45.7205 2.68906 1.481 45.7205 2.68906 1.481
48 2 45.7307 2.65289 -1.78098 45.7307 2.65289 -1.78098
49 1 46.6762 1.02453 -0.128743 46.6762 1.02453 -0.128743
50 2 48.576 1.04344 1.50408 48.576 1.04344 1.50408
51 2 48.5792 1.00566 -1.75789 48.5792 1.00566 -1.75789
52 1 49.5282 2.67103 -0.145095 49.5282 2.67103 -0.145095
53 2 51.4312 2.68949 1.48393 51.4312 2.68949 1.48393
54 2 51.4279 2.65261 -1.77805 51.4279 2.65261 -1.77805
55 1 1.04454 4.31753 -0.166702 1.04454 4.31753 -0.166702
56 2 2.95061 4.33509 1.45866 2.95061 4.33509 1.45866
57 2 2.9411 4.29999 -1.80333 2.9411 4.29999 -1.80333
58 1 3.89649 5.96402 -0.192917 3.89649 5.96402 -0.192917
59 2 5.8049 5.98003 1.4297 5.8049 5.98003 1.4297
60 2 5.7907 5.94802 -1.8323 5.7907 5.94802 -1.8323
61 1 6.74847 4.31751 -0.189283 6.74847 4.31751 -0.189283
62 2 8.65818 4.33551 1.43183 8.65818 4.33551 1.43183
63 2 8.64139 4.29951 -1.83012 8.64139 4.29951 -1.83012
64 1 9.60041 5.96397 -0.222303 9.60041 5.96397 -0.222303
65 2 11.5098 5.98018 1.39915 11.5098 5.98018 1.39915
66 2 11.4936 5.94777 -1.86283 11.4936 5.94777 -1.86283
67 1 12.4524 4.31745 -0.220201 12.4524 4.31745 -0.220201
68 2 14.3609 4.33539 1.40236 14.3609 4.33539 1.40236
69 2 14.3465 4.29949 -1.8596 14.3465 4.29949 -1.8596
70 1 15.3044 5.96391 -0.251025 15.3044 5.96391 -0.251025
71 2 17.2106 5.97973 1.37427 17.2106 5.97973 1.37427
72 2 17.2008 5.94809 -1.88774 17.2008 5.94809 -1.88774
73 1 18.1564 4.31738 -0.243574 18.1564 4.31738 -0.243574
74 2 20.0606 4.33486 1.38407 20.0606 4.33486 1.38407
75 2 20.0548 4.29989 -1.87792 20.0548 4.29989 -1.87792
76 1 21.0084 5.96387 -0.266341 21.0084 5.96387 -0.266341
77 2 22.9096 5.97886 1.36482 22.9096 5.97886 1.36482
78 2 22.9099 5.94886 -1.89722 22.9099 5.94886 -1.89722
79 1 23.8604 4.31734 -0.250954 23.8604 4.31734 -0.250954
80 2 25.7595 4.33409 1.38265 25.7595 4.33409 1.38265
81 2 25.764 4.30056 -1.87936 25.764 4.30056 -1.87936
82 1 26.7124 5.96384 -0.264077 26.7124 5.96384 -0.264077
83 2 28.6086 5.97777 1.37302 28.6086 5.97777 1.37302
84 2 28.619 5.94989 -1.88902 28.619 5.94989 -1.88902
85 1 29.5644 4.31731 -0.240868 29.5644 4.31731 -0.240868
86 2 31.4588 4.33342 1.39829 31.4588 4.33342 1.39829
87 2 31.4728 4.30119 -1.86371 31.4728 4.30119 -1.86371
88 1 32.4164 5.96383 -0.24499 32.4164 5.96383 -0.24499
89 2 34.3087 5.97702 1.39658 34.3087 5.97702 1.39658
90 2 34.3268 5.95065 -1.86545 34.3268 5.95065 -1.86545
91 1 35.2684 4.31732 -0.215832 35.2684 4.31732 -0.215832
92 2 37.1602 4.33318 1.42626 37.1602 4.33318 1.42626
93 2 37.1792 4.30148 -1.83572 37.1792 4.30148 -1.83572
94 1 38.1204 5.96387 -0.215259 38.1204 5.96387 -0.215259
95 2 40.0123 5.97705 1.42667 40.0123 5.97705 1.42667
96 2 40.0311 5.95072 -1.83536 40.0311 5.95072 -1.83536
97 1 40.9723 4.31739 -0.185586 40.9723 4.31739 -0.185586
98 2 42.8659 4.33351 1.45438 42.8659 4.33351 1.45438
99 2 42.8814 4.30132 -1.80762 42.8814 4.30132 -1.80762
100 1 43.8243 5.96394 -0.188438 43.8243 5.96394 -0.188438
101 2 45.7204 5.97792 1.44856 45.7204 5.97792 1.44856
102 2 45.7308 5.95 -1.8135 45.7308 5.95 -1.8135
103 1 46.6763 4.31748 -0.165369 46.6763 4.31748 -0.165369
104 2 48.5756 4.33428 1.46783 48.5756 4.33428 1.46783
105 2 48.5795 4.30073 -1.79419 48.5795 4.30073 -1.79419
106 1 49.5282 5.964 -0.179055 49.5282 5.964 -0.179055
107 2 51.4312 5.97916 1.44999 51.4312 5.97916 1.44999
108 2 51.4279 5.94889 -1.81206 51.4279 5.94889 -1.81206
109 1 1.04451 7.61053 -0.197342 1.04451 7.61053 -0.197342
110 2 2.95072 7.62356 1.42786 2.95072 7.62356 1.42786
111 2 2.94093 7.59752 -1.83421 2.94093 7.59752 -1.83421
112 1 3.89646 9.25707 -0.219273 3.89646 9.25707 -0.219273
113 2 5.80496 9.2673 1.40326 5.80496 9.2673 1.40326
114 2 5.79056 9.24684 -1.85884 5.79056 9.24684 -1.85884
115 1 6.74843 7.61051 -0.2217 6.74843 7.61051 -0.2217
116 2 8.65788 7.62414 1.39972 8.65788 7.62414 1.39972
117 2 8.64159 7.59689 -1.86231 8.64159 7.59689 -1.86231
118 1 9.60036 9.25703 -0.249901 9.60036 9.25703 -0.249901
119 2 11.5094 9.26742 1.37204 11.5094 9.26742 1.37204
120 2 11.4939 9.24664 -1.89004 11.4939 9.24664 -1.89004
121 1 12.4523 7.61046 -0.253036 12.4523 7.61046 -0.253036
122 2 14.3603 7.62391 1.37025 14.3603 7.62391 1.37025
123 2 14.3471 7.59701 -1.89179 14.3471 7.59701 -1.89179
124 1 15.3043 9.25699 -0.278286 15.3043 9.25699 -0.278286
125 2 17.2098 9.26684 1.34789 17.2098 9.26684 1.34789
126 2 17.2015 9.24714 -1.91422 17.2015 9.24714 -1.91422
127 1 18.1564 7.61042 -0.275647 18.1564 7.61042 -0.275647
128 2 20.0597 7.62312 1.35303 20.0597 7.62312 1.35303
129 2 20.0557 7.59771 -1.90905 20.0557 7.59771 -1.90905
130 1 21.0084 9.25696 -0.292112 21.0084 9.25696 -0.292112
131 2 22.9086 9.26566 1.34026 22.9086 9.26566 1.34026
132 2 22.9109 9.24828 -1.92186 22.9109 9.24828 -1.92186
133 1 23.8604 7.61039 -0.281363 23.8604 7.61039 -0.281363
134 2 25.7585 7.62186 1.35347 25.7585 7.62186 1.35347
135 2 25.765 7.59891 -1.90862 25.765 7.59891 -1.90862
136 1 26.7125 9.25695 -0.287355 26.7125 9.25695 -0.287355
137 2 28.6075 9.26408 1.35106 28.6075 9.26408 1.35106
138 2 28.6201 9.24982 -1.91107 28.6201 9.24982 -1.91107
139 1 29.5645 7.61038 -0.269129 29.5645 7.61038 -0.269129
140 2 31.4579 7.62059 1.37112 31.4579 7.62059 1.37112
141 2 31.4737 7.60016 -1.89096 31.4737 7.60016 -1.89096
142 1 32.4165 9.25695 -0.265707 32.4165 9.25695 -0.265707
143 2 34.308 9.26295 1.37676 34.308 9.26295 1.37676
144 2 34.3276 9.25097 -1.88534 34.3276 9.25097 -1.88534
145 1 35.2684 7.61039 -0.242541 35.2684 7.61039 -0.242541
146 2 37.1597 7.62007 1.40017 37.1597 7.62007 1.40017
147 2 37.1798 7.60073 -1.8619 37.1798 7.60073 -1.8619
148 1 38.1204 9.25697 -0.234846 38.1204 9.25697 -0.234846
149 2 40.0122 9.263 1.40725 40.0122 9.263 1.40725
150 2 40.0312 9.25097 -1.85487 40.0312 9.25097 -1.85487
151 1 40.9723 7.61044 -0.212239 40.9723 7.61044 -0.212239
152 2 42.8659 7.62069 1.42778 42.8659 7.62069 1.42778
153 2 42.8814 7.60022 -1.83431 42.8814 7.60022 -1.83431
154 1 43.8243 9.25702 -0.209143 43.8243 9.25702 -0.209143
155 2 45.7208 9.26434 1.42737 45.7208 9.26434 1.42737
156 2 45.7304 9.24973 -1.83478 45.7304 9.24973 -1.83478
157 1 46.6763 7.6105 -0.193616 46.6763 7.6105 -0.193616
158 2 48.5759 7.62216 1.4393 48.5759 7.62216 1.4393
159 2 48.5793 7.59887 -1.82281 48.5793 7.59887 -1.82281
160 1 49.5282 9.25706 -0.202611 49.5282 9.25706 -0.202611
161 2 51.4317 9.26616 1.42585 51.4317 9.26616 1.42585
162 2 51.4274 9.24799 -1.83629 51.4274 9.24799 -1.83629
163 1 1.04449 10.9036 -0.215715 1.04449 10.9036 -0.215715
164 2 2.95122 10.9097 1.40889 2.95122 10.9097 1.40889
165 2 2.94037 10.8975 -1.85326 2.94037 10.8975 -1.85326
166 1 3.89643 12.5502 -0.231586 3.89643 12.5502 -0.231586
167 2 5.80528 12.5527 1.39056 5.80528 12.5527 1.39056
168 2 5.79018 12.5476 -1.87159 5.79018 12.5476 -1.87159
169 1 6.74839 10.9036 -0.242418 6.74839 10.9036 -0.242418
170 2 8.65777 10.9103 1.37912 8.65777 10.9103 1.37912
171 2 8.64163 10.8969 -1.883 8.64163 10.8969 -1.883
172 1 9.60033 12.5502 -0.263533 9.60033 12.5502 -0.263533
173 2 11.5091 12.5528 1.35871 11.5091 12.5528 1.35871
174 2 11.4942 12.5475 -1.90343 11.4942 12.5475 -1.90343
175 1 12.4523 10.9036 -0.274093 12.4523 10.9036 -0.274093
176 2 14.3597 10.91 1.34983 14.3597 10.91 1.34983
177 2 14.3476 10.8971 -1.9123 14.3476 10.8971 -1.9123
178 1 15.3043 12.5502 -0.291396 15.3043 12.5502 -0.291396
179 2 17.2092 12.5522 1.33551 17.2092 12.5522 1.33551
180 2 17.2021 12.5481 -1.92665 17.2021 12.5481 -1.92665
181 1 18.1563 10.9036 -0.295622 18.1563 10.9036 -0.295622
182 2 20.0589 10.9091 1.33407 20.0589 10.9091 1.33407
183 2 20.0565 10.898 -1.92808 20.0565 10.898 -1.92808
184 1 21.0084 12.5502 -0.303368 21.0084 12.5502 -0.303368
185 2 22.9076 12.5509 1.33017 22.9076 12.5509 1.33017
186 2 22.9119 12.5495 -1.932 22.9119 12.5495 -1.932
187 1 23.8604 10.9035 -0.299007 23.8604 10.9035 -0.299007
188 2 25.7574 10.9075 1.33717 25.7574 10.9075 1.33717
189 2 25.7662 10.8996 -1.92498 25.7662 10.8996 -1.92498
190 1 26.7125 12.5501 -0.29544 26.7125 12.5501 -0.29544
191 2 28.6064 12.5491 1.34426 28.6064 12.5491 1.34426
192 2 28.6212 12.5512 -1.91788 28.6212 12.5512 -1.91788
193 1 29.5645 10.9035 -0.283611 29.5645 10.9035 -0.283611
194 2 31.4569 10.9059 1.3578 31.4569 10.9059 1.3578
195 2 31.4747 10.9012 -1.90432 31.4747 10.9012 -1.90432
196 1 32.4165 12.5501 -0.270535 32.4165 12.5501 -0.270535
197 2 34.3073 12.5478 1.37268 34.3073 12.5478 1.37268
198 2 34.3282 12.5525 -1.88943 34.3282 12.5525 -1.88943
199 1 35.2684 10.9035 -0.254684 35.2684 10.9035 -0.254684
200 2 37.1593 10.9053 1.38846 37.1593 10.9053 1.38846
201 2 37.1802 10.9018 -1.87365 37.1802 10.9018 -1.87365
202 1 38.1204 12.5501 -0.238318 38.1204 12.5501 -0.238318
203 2 40.0123 12.5479 1.40356 40.0123 12.5479 1.40356
204 2 40.031 12.5524 -1.85858 40.031 12.5524 -1.85858
205 1 40.9723 10.9036 -0.224397 40.9723 10.9036 -0.224397
206 2 42.8663 10.9061 1.41517 42.8663 10.9061 1.41517
207 2 42.881 10.901 -1.84699 42.881 10.901 -1.84699
208 1 43.8243 12.5501 -0.214222 43.8243 12.5501 -0.214222
209 2 45.7217 12.5495 1.42126 45.7217 12.5495 1.42126
210 2 45.7295 12.5508 -1.84092 45.7295 12.5508 -1.84092
211 1 46.6762 10.9036 -0.208373 46.6762 10.9036 -0.208373
212 2 48.5767 10.908 1.42362 48.5767 10.908 1.42362
213 2 48.5784 10.8992 -1.83857 48.5784 10.8992 -1.83857
214 1 49.5282 12.5502 -0.21146 49.5282 12.5502 -0.21146
215 2 51.4326 12.5515 1.41592 51.4326 12.5515 1.41592
216 2 51.4265 12.5489 -1.84627 51.4265 12.5489 -1.84627
217 1 1.04447 14.1968 -0.218378 1.04447 14.1968 -0.218378
218 2 2.95202 14.1947 1.40528 2.95202 14.1947 1.40528
219 2 2.93953 14.1988 -1.85689 2.93953 14.1988 -1.85689
220 1 3.89642 15.8433 -0.227477 3.89642 15.8433 -0.227477
221 2 5.80584 15.8377 1.39399 5.80584 15.8377 1.39399
222 2 5.7896 15.849 -1.86814 5.7896 15.849 -1.86814
223 1 6.74837 14.1968 -0.247582 6.74837 14.1968 -0.247582
224 2 8.65788 14.1954 1.37382 8.65788 14.1954 1.37382
225 2 8.64148 14.1982 -1.88832 8.64148 14.1982 -1.88832
226 1 9.60032 15.8434 -0.26068 9.60032 15.8434 -0.26068
227 2 11.5091 15.8378 1.36158 11.5091 15.8378 1.36158
228 2 11.4942 15.8489 -1.90054 11.4942 15.8489 -1.90054
229 1 12.4523 14.1968 -0.279498 12.4523 14.1968 -0.279498
230 2 14.3594 14.1951 1.34482 14.3594 14.1951 1.34482
231 2 14.3479 14.1985 -1.91734 14.3479 14.1985 -1.91734
232 1 15.3043 15.8434 -0.287951 15.3043 15.8434 -0.287951
233 2 17.2088 15.8372 1.3394 17.2088 15.8372 1.3394
234 2 17.2025 15.8495 -1.92274 17.2025 15.8495 -1.92274
235 1 18.1563 14.1968 -0.299772 18.1563 14.1968 -0.299772
236 2 20.0582 14.1941 1.33075 20.0582 14.1941 1.33075
237 2 20.0573 14.1995 -1.93142 20.0573 14.1995 -1.93142
238 1 21.0084 15.8434 -0.297939 21.0084 15.8434 -0.297939
239 2 22.9069 15.8359 1.33649 22.9069 15.8359 1.33649
240 2 22.9127 15.8508 -1.92564 22.9127 15.8508 -1.92564
241 1 23.8604 14.1968 -0.30046 23.8604 14.1968 -0.30046
242 2 25.7564 14.1924 1.33691 25.7564 14.1924 1.33691
243 2 25.7672 14.2011 -1.92524 25.7672 14.2011 -1.92524
244 1 26.7125 15.8433 -0.286671 26.7125 15.8433 -0.286671
245 2 28.6055 15.8342 1.35403 28.6055 15.8342 1.35403
246 2 28.6221 15.8525 -1.90806 28.6221 15.8525 -1.90806
247 1 29.5645 14.1967 -0.28146 29.5645 14.1967 -0.28146
248 2 31.4561 14.1908 1.36092 31.4561 14.1908 1.36092
249 2 31.4755 14.2027 -1.90118 31.4755 14.2027 -1.90118
250 1 32.4165 15.8433 -0.258465 32.4165 15.8433 -0.258465
251 2 34.3069 15.8331 1.38516 34.3069 15.8331 1.38516
252 2 34.3286 15.8535 -1.87689 34.3286 15.8535 -1.87689
253 1 35.2684 14.1967 -0.249965 35.2684 14.1967 -0.249965
254 2 37.1592 14.1902 1.39329 37.1592 14.1902 1.39329
255 2 37.1802 14.2033 -1.8688 37.1802 14.2033 -1.8688
256 1 38.1204 15.8433 -0.225033 38.1204 15.8433 -0.225033
257 2 40.0128 15.8332 1.41626 40.0128 15.8332 1.41626
258 2 40.0305 15.8533 -1.84582 40.0305 15.8533 -1.84582
259 1 40.9723 14.1967 -0.21987 40.9723 14.1967 -0.21987
260 2 42.867 14.1911 1.41881 42.867 14.1911 1.41881
261 2 42.8802 14.2024 -1.84333 42.8802 14.2024 -1.84333
262 1 43.8243 15.8433 -0.20273 43.8243 15.8433 -0.20273
263 2 45.7229 15.8347 1.43138 45.7229 15.8347 1.43138
264 2 45.7283 15.8519 -1.83077 45.7283 15.8519 -1.83077
265 1 46.6762 14.1967 -0.206929 46.6762 14.1967 -0.206929
266 2 48.5778 14.193 1.42369 48.5778 14.193 1.42369
267 2 48.5773 14.2005 -1.8385 48.5773 14.2005 -1.8385
268 1 49.5282 15.8433 -0.203865 49.5282 15.8433 -0.203865
269 2 51.4338 15.8366 1.42211 51.4338 15.8366 1.42211
270 2 51.4253 15.8501 -1.84004 51.4253 15.8501 -1.84004
271 1 1.04447 17.4899 -0.204671 1.04447 17.4899 -0.204671
272 2 2.95301 17.4801 1.41781 2.95301 17.4801 1.41781
273 2 2.93854 17.4997 -1.84429 2.93854 17.4997 -1.84429
274 1 3.89643 19.1364 -0.207594 3.89643 19.1364 -0.207594
275 2 5.8066 19.1237 1.41299 5.8066 19.1237 1.41299
276 2 5.78887 19.1492 -1.84905 5.78887 19.1492 -1.84905
277 1 6.74837 17.4899 -0.236184 6.74837 17.4899 -0.236184
278 2 8.65824 17.4807 1.38479 8.65824 17.4807 1.38479
279 2 8.64112 17.4992 -1.8773 8.64112 17.4992 -1.8773
280 1 9.60034 19.1365 -0.241928 9.60034 19.1365 -0.241928
281 2 11.5094 19.1239 1.38003 11.5094 19.1239 1.38003
282 2 11.4939 19.1491 -1.88201 11.4939 19.1491 -1.88201
283 1 12.4523 17.4899 -0.268314 12.4523 17.4899 -0.268314
284 2 14.3593 17.4804 1.35608 14.3593 17.4804 1.35608
285 2 14.348 17.4994 -1.90603 14.348 17.4994 -1.90603
286 1 15.3043 19.1365 -0.268714 15.3043 19.1365 -0.268714
287 2 17.2087 19.1234 1.35874 17.2087 19.1234 1.35874
288 2 17.2026 19.1496 -1.90332 17.2026 19.1496 -1.90332
289 1 18.1564 17.49 -0.287352 18.1564 17.49 -0.287352
290 2 20.0577 17.4795 1.34367 20.0577 17.4795 1.34367
291 2 20.0577 17.5003 -1.91843 20.0577 17.5003 -1.91843
292 1 21.0084 19.1365 -0.276915 21.0084 19.1365 -0.276915
293 2 22.9064 19.1224 1.35801 22.9064 19.1224 1.35801
294 2 22.9131 19.1506 -1.90404 22.9131 19.1506 -1.90404
295 1 23.8604 17.4899 -0.285393 23.8604 17.4899 -0.285393
296 2 25.7556 17.4781 1.3528 25.7556 17.4781 1.3528
297 2 25.7679 17.5018 -1.90927 25.7679 17.5018 -1.90927
298 1 26.7125 19.1365 -0.262711 26.7125 19.1365 -0.262711
299 2 28.605 19.121 1.37853 28.605 19.121 1.37853
300 2 28.6226 19.1519 -1.88345 28.6226 19.1519 -1.88345
301 1 29.5645 17.4899 -0.262986 29.5645 17.4899 -0.262986
302 2 31.4555 17.4767 1.37996 31.4555 17.4767 1.37996
303 2 31.476 17.5031 -1.88205 31.476 17.5031 -1.88205
304 1 32.4164 19.1364 -0.231736 32.4164 19.1364 -0.231736
305 2 34.3069 19.1201 1.41188 34.3069 19.1201 1.41188
306 2 34.3286 19.1526 -1.85007 34.3286 19.1526 -1.85007
307 1 35.2684 17.4898 -0.229225 35.2684 17.4898 -0.229225
308 2 37.1594 17.4762 1.41378 37.1594 17.4762 1.41378
309 2 37.18 17.5034 -1.84823 37.18 17.5034 -1.84823
310 1 38.1203 19.1363 -0.197464 38.1203 19.1363 -0.197464
311 2 40.0134 19.1203 1.443 40.0134 19.1203 1.443
312 2 40.0298 19.1523 -1.81899 40.0298 19.1523 -1.81899
313 1 40.9723 17.4898 -0.19949 40.9723 17.4898 -0.19949
314 2 42.8679 17.477 1.43805 42.8679 17.477 1.43805
315 2 42.8793 17.5026 -1.82402 42.8793 17.5026 -1.82402
316 1 43.8242 19.1363 -0.176768 43.8242 19.1363 -0.176768
317 2 45.7241 19.1214 1.4559 45.7241 19.1214 1.4559
318 2 45.7271 19.1513 -1.80615 45.7271 19.1513 -1.80615
319 1 46.6762 17.4898 -0.189459 46.6762 17.4898 -0.189459
320 2 48.5791 17.4786 1.43959 48.5791 17.4786 1.43959
321 2 48.5759 17.501 -1.82253 48.5759 17.501 -1.82253
322 1 49.5282 19.1364 -0.181099 49.5282 19.1364 -0.181099
323 2 51.435 19.1227 1.44343 51.435 19.1227 1.44343
324 2 51.424 19.15 -1.81863 51.424 19.15 -1.81863
325 1 1.04449 20.7829 -0.177038 1.04449 20.7829 -0.177038
326 2 2.95402 20.7671 1.44426 2.95402 20.7671 1.44426
327 2 2.93757 20.7987 -1.81774 2.93757 20.7987 -1.81774
328 1 3.89646 22.4294 -0.175594 3.89646 22.4294 -0.175594
329 2 5.80742 22.4119 1.44405 5.80742 22.4119 1.44405
330 2 5.78811 22.447 -1.81789 5.78811 22.447 -1.81789
331 1 6.7484 20.783 -0.210334 6.7484 20.783 -0.210334
332 2 8.65882 20.7676 1.40997 8.65882 20.7676 1.40997
333 2 8.64059 20.7983 -1.85202 8.64059 20.7983 -1.85202
334 1 9.60038 22.4295 -0.210845 9.60038 22.4295 -0.210845
335 2 11.5099 22.4122 1.41056 11.5099 22.4122 1.41056
336 2 11.4935 22.4468 -1.8514 11.4935 22.4468 -1.8514
337 1 12.4523 20.783 -0.242763 12.4523 20.783 -0.242763
338 2 14.3595 20.7676 1.38138 14.3595 20.7676 1.38138
339 2 14.3478 20.7985 -1.88064 14.3478 20.7985 -1.88064
340 1 15.3044 22.4295 -0.237448 15.3044 22.4295 -0.237448
341 2 17.2089 22.412 1.38978 17.2089 22.412 1.38978
342 2 17.2025 22.447 -1.87221 17.2025 22.447 -1.87221
343 1 18.1564 20.783 -0.260854 18.1564 20.783 -0.260854
344 2 20.0576 20.767 1.37028 20.0576 20.767 1.37028
345 2 20.0578 20.799 -1.89174 20.0578 20.799 -1.89174
346 1 21.0084 22.4295 -0.244471 21.0084 22.4295 -0.244471
347 2 22.9064 22.4115 1.3905 22.9064 22.4115 1.3905
348 2 22.9131 22.4476 -1.87148 22.9131 22.4476 -1.87148
349 1 23.8604 20.783 -0.256794 23.8604 20.783 -0.256794
350 2 25.7553 20.766 1.38175 25.7553 20.766 1.38175
351 2 25.7682 20.8 -1.88023 25.7682 20.8 -1.88023
352 1 26.7124 22.4295 -0.228265 26.7124 22.4295 -0.228265
353 2 28.6049 22.4107 1.41306 28.6049 22.4107 1.41306
354 2 28.6226 22.4482 -1.84885 28.6226 22.4482 -1.84885
355 1 29.5644 20.7829 -0.231734 29.5644 20.7829 -0.231734
356 2 31.4554 20.765 1.41134 31.4554 20.765 1.41134
357 2 31.4761 20.8008 -1.85058 31.4761 20.8008 -1.85058
358 1 32.4164 22.4294 -0.195443 32.4164 22.4294 -0.195443
359 2 34.3071 22.4102 1.44785 34.3071 22.4102 1.44785
360 2 34.3282 22.4485 -1.81404 34.3282 22.4485 -1.81404
361 1 35.2683 20.7828 -0.196354 35.2683 20.7828 -0.196354
362 2 37.1598 20.7647 1.44611 37.1598 20.7647 1.44611
363 2 37.1795 20.8009 -1.81581 37.1795 20.8009 -1.81581
364 1 38.1203 22.4293 -0.160756 38.1203 22.4293 -0.160756
365 2 40.0141 22.4103 1.47885 40.0141 22.4103 1.47885
366 2 40.029 22.4483 -1.78308 40.029 22.4483 -1.78308
367 1 40.9722 20.7828 -0.167053 40.9722 20.7828 -0.167053
368 2 42.8689 20.7652 1.46934 42.8689 20.7652 1.46934
369 2 42.8783 20.8004 -1.79265 42.8783 20.8004 -1.79265
370 1 43.8242 22.4293 -0.141157 43.8242 22.4293 -0.141157
371 2 45.725 22.4108 1.49034 45.725 22.4108 1.49034
372 2 45.7261 22.4478 -1.77164 45.7261 22.4478 -1.77164
373 1 46.6762 20.7828 -0.15916 46.6762 20.7828 -0.15916
374 2 48.5803 20.7662 1.46848 48.5803 20.7662 1.46848
375 2 48.5747 20.7995 -1.79354 48.5747 20.7995 -1.79354
376 1 49.5282 22.4293 -0.147347 49.5282 22.4293 -0.147347
377 2 51.436 22.4114 1.47599 51.436 22.4114 1.47599
378 2 51.4231 22.4473 -1.78597 51.4231 22.4473 -1.78597
379 1 1.04452 24.0758 -0.140585 1.04452 24.0758 -0.140585
380 2 2.95487 24.057 1.47976 2.95487 24.057 1.47976
381 2 2.9368 24.0947 -1.78215 2.9368 24.0947 -1.78215
382 1 3.89651 25.7224 -0.137394 3.89651 25.7224 -0.137394
383 2 5.80814 25.7033 1.48147 5.80814 25.7033 1.48147
384 2 5.78749 25.7415 -1.78042 5.78749 25.7415 -1.78042
385 1 6.74844 24.076 -0.174839 6.74844 24.076 -0.174839
386 2 8.65953 24.0573 1.44468 8.65953 24.0573 1.44468
387 2 8.63997 24.0946 -1.81723 8.63997 24.0946 -1.81723
388 1 9.60042 25.7225 -0.173144 9.60042 25.7225 -0.173144
389 2 11.5105 25.7035 1.44758 11.5105 25.7035 1.44758
390 2 11.493 25.7414 -1.81434 11.493 25.7414 -1.81434
391 1 12.4524 24.076 -0.207671 12.4524 24.076 -0.207671
392 2 14.36 24.0575 1.41596 14.36 24.0575 1.41596
393 2 14.3474 24.0945 -1.84598 14.3474 24.0945 -1.84598
394 1 15.3044 25.7225 -0.199927 15.3044 25.7225 -0.199927
395 2 17.2094 25.7037 1.42678 17.2094 25.7037 1.42678
396 2 17.202 25.7413 -1.83518 17.202 25.7413 -1.83518
397 1 18.1564 24.076 -0.225381 18.1564 24.076 -0.225381
398 2 20.0579 24.0574 1.40547 20.0579 24.0574 1.40547
399 2 20.0576 24.0947 -1.8565 20.0576 24.0947 -1.8565
400 1 21.0084 25.7225 -0.206708 21.0084 25.7225 -0.206708
401 2 22.9067 25.7038 1.42787 22.9067 25.7038 1.42787
402 2 22.9127 25.7411 -1.8341 22.9127 25.7411 -1.8341
403 1 23.8604 24.076 -0.220245 23.8604 24.076 -0.220245
404 2 25.7554 24.057 1.41818 25.7554 24.057 1.41818
405 2 25.7681 24.0949 -1.84375 25.7681 24.0949 -1.84375
406 1 26.7124 25.7224 -0.189869 26.7124 25.7224 -0.189869
407 2 28.6051 25.7037 1.45113 28.6051 25.7037 1.45113
408 2 28.6222 25.741 -1.81079 28.6222 25.741 -1.81079
409 1 29.5644 24.0759 -0.193718 29.5644 24.0759 -0.193718
410 2 31.4555 24.0566 1.44911 31.4555 24.0566 1.44911
411 2 31.4758 24.0952 -1.81279 31.4758 24.0952 -1.81279
412 1 32.4163 25.7223 -0.156378 32.4163 25.7223 -0.156378
413 2 34.3075 25.7036 1.48641 34.3075 25.7036 1.48641
414 2 34.3277 25.7409 -1.7755 34.3277 25.7409 -1.7755
415 1 35.2683 24.0758 -0.157514 35.2683 24.0758 -0.157514
416 2 37.1603 24.0565 1.48432 37.1603 24.0565 1.48432
417 2 37.1789 24.0951 -1.77759 37.1789 24.0951 -1.77759
418 1 38.1202 25.7222 -0.121637 38.1202 25.7222 -0.121637
419 2 40.0147 25.7036 1.51728 40.0147 25.7036 1.51728
420 2 40.0283 25.7408 -1.74466 40.0283 25.7408 -1.74466
421 1 40.9722 24.0757 -0.12855 40.9722 24.0757 -0.12855
422 2 42.8696 24.0566 1.50694 42.8696 24.0566 1.50694
423 2 42.8775 24.0949 -1.75501 42.8775 24.0949 -1.75501
424 1 43.8242 25.7222 -0.102391 43.8242 25.7222 -0.102391
425 2 45.7257 25.7035 1.52843 45.7257 25.7035 1.52843
426 2 45.7254 25.741 -1.73354 45.7254 25.741 -1.73354
427 1 46.6762 24.0758 -0.121627 46.6762 24.0758 -0.121627
428 2 48.5812 24.0568 1.50504 48.5812 24.0568 1.50504
429 2 48.5739 24.0948 -1.75691 48.5739 24.0948 -1.75691
430 1 49.5282 25.7223 -0.108821 49.5282 25.7223 -0.108821
431 2 51.4366 25.7032 1.51382 51.4366 25.7032 1.51382
432 2 51.4225 25.7413 -1.74811 51.4225 25.7413 -1.74811
433 1 1.04456 27.3688 -0.102003 1.04456 27.3688 -0.102003
434 2 2.95537 27.3503 1.51784 2.95537 27.3503 1.51784
435 2 2.93638 27.3873 -1.74408 2.93638 27.3873 -1.74408
436 1 3.89656 29.0153 -0.0999219 3.89656 29.0153 -0.0999219
437 2 5.80858 28.998 1.51854 5.80858 28.998 1.51854
438 2 5.78715 29.0326 -1.74339 5.78715 29.0326 -1.74339
439 1 6.74849 27.3689 -0.136174 6.74849 27.3689 -0.136174
440 2 8.66017 27.3503 1.48267 8.66017 27.3503 1.48267
441 2 8.63942 27.3875 -1.77923 8.63942 27.3875 -1.77923
442 1 9.60047 29.0154 -0.1355 9.60047 29.0154 -0.1355
443 2 11.5111 28.9981 1.48461 11.5111 28.9981 1.48461
444 2 11.4924 29.0327 -1.77734 11.4924 29.0327 -1.77734
445 1 12.4524 27.369 -0.169323 12.4524 27.369 -0.169323
446 2 14.3606 27.3506 1.45367 14.3606 27.3506 1.45367
447 2 14.3469 27.3873 -1.80828 14.3469 27.3873 -1.80828
448 1 15.3044 29.0154 -0.162659 15.3044 29.0154 -0.162659
449 2 17.2101 28.9985 1.46334 17.2101 28.9985 1.46334
450 2 17.2014 29.0324 -1.79866 17.2014 29.0324 -1.79866
451 1 18.1564 27.369 -0.187309 18.1564 27.369 -0.187309
452 2 20.0584 27.3509 1.44293 20.0584 27.3509 1.44293
453 2 20.057 27.387 -1.81906 20.057 27.387 -1.81906
454 1 21.0084 29.0154 -0.170189 21.0084 29.0154 -0.170189
455 2 22.9074 28.9992 1.4636 22.9074 28.9992 1.4636
456 2 22.912 29.0316 -1.79842 22.912 29.0316 -1.79842
457 1 23.8604 27.3689 -0.18241 23.8604 27.3689 -0.18241
458 2 25.7559 27.3513 1.45547 25.7559 27.3513 1.45547
459 2 25.7675 27.3865 -1.80651 25.7675 27.3865 -1.80651
460 1 26.7123 29.0154 -0.154279 26.7123 29.0154 -0.154279
461 2 28.6058 28.9999 1.48603 28.6058 28.9999 1.48603
462 2 28.6215 29.0308 -1.77597 28.6215 29.0308 -1.77597
463 1 29.5643 27.3688 -0.155913 29.5643 27.3688 -0.155913
464 2 31.456 27.3516 1.4864 31.456 27.3516 1.4864
465 2 31.4753 27.3861 -1.77555 31.4753 27.3861 -1.77555
466 1 32.4162 29.0153 -0.121433 32.4162 29.0153 -0.121433
467 2 34.308 29.0003 1.5208 34.308 29.0003 1.5208
468 2 34.3271 29.0303 -1.74119 34.3271 29.0303 -1.74119
469 1 35.2682 27.3687 -0.119738 35.2682 27.3687 -0.119738
470 2 37.1607 27.3516 1.52154 37.1607 27.3516 1.52154
471 2 37.1783 27.3859 -1.74042 37.1783 27.3859 -1.74042
472 1 38.1202 29.0152 -0.0869344 38.1202 29.0152 -0.0869344
473 2 40.0151 29.0001 1.55161 40.0151 29.0001 1.55161
474 2 40.0279 29.0303 -1.7104 40.0279 29.0303 -1.7104
475 1 40.9722 27.3687 -0.0908675 40.9722 27.3687 -0.0908675
476 2 42.8701 27.3513 1.54415 42.8701 27.3513 1.54415
477 2 42.877 27.3861 -1.71784 42.877 27.3861 -1.71784
478 1 43.8242 29.0152 -0.0672407 43.8242 29.0152 -0.0672407
479 2 45.7258 28.9994 1.56347 45.7258 28.9994 1.56347
480 2 45.7253 29.031 -1.69855 45.7253 29.031 -1.69855
481 1 46.6762 27.3687 -0.083633 46.6762 27.3687 -0.083633
482 2 48.5815 27.3508 1.54268 48.5815 27.3508 1.54268
483 2 48.5736 27.3867 -1.71929 48.5736 27.3867 -1.71929
484 1 49.5283 29.0152 -0.0724257 49.5283 29.0152 -0.0724257
485 2 51.4368 28.9985 1.55012 51.4368 28.9985 1.55012
486 2 51.4224 29.032 -1.71186 51.4224 29.032 -1.71186
487 1 1.04459 30.6618 -0.0681356 1.04459 30.6618 -0.0681356
488 2 2.95543 30.6469 1.55174 2.95543 30.6469 1.55174
489 2 2.93639 30.6768 -1.71025 2.93639 30.6768 -1.71025
490 1 3.89659 32.3084 -0.0696603 3.89659 32.3084 -0.0696603
491 2 5.80862 32.2958 1.54885 5.80862 32.2958 1.54885
492 2 5.78718 32.321 -1.71316 5.78718 32.321 -1.71316
493 1 6.74854 30.6619 -0.101151 6.74854 30.6619 -0.101151
494 2 8.66058 30.6465 1.51733 8.66058 30.6465 1.51733
495 2 8.6391 30.6773 -1.74464 8.6391 30.6773 -1.74464
496 1 9.60051 32.3084 -0.104283 9.60051 32.3084 -0.104283
497 2 11.5116 32.2956 1.51543 11.5116 32.2956 1.51543
498 2 11.4921 32.3213 -1.7466 11.4921 32.3213 -1.7466
499 1 12.4524 30.6619 -0.134254 12.4524 30.6619 -0.134254
500 2 14.3612 30.6467 1.4881 14.3612 30.6467 1.4881
501 2 14.3463 30.6772 -1.77391 14.3463 30.6772 -1.77391
502 1 15.3044 32.3085 -0.131774 15.3044 32.3085 -0.131774
503 2 17.2108 32.2961 1.49346 17.2108 32.2961 1.49346
504 2 17.2007 32.3208 -1.76863 17.2007 32.3208 -1.76863
505 1 18.1564 30.6619 -0.153011 18.1564 30.6619 -0.153011
506 2 20.0592 30.6474 1.47635 20.0592 30.6474 1.47635
507 2 20.0562 30.6764 -1.78571 20.0562 30.6764 -1.78571
508 1 21.0084 32.3084 -0.140813 21.0084 32.3084 -0.140813
509 2 22.9084 32.2973 1.49191 22.9084 32.2973 1.49191
510 2 22.911 32.3196 -1.7702 22.911 32.3196 -1.7702
511 1 23.8604 30.6619 -0.149621 23.8604 30.6619 -0.149621
512 2 25.7567 30.6485 1.48732 25.7567 30.6485 1.48732
513 2 25.7666 30.6752 -1.77475 25.7666 30.6752 -1.77475
514 1 26.7123 32.3084 -0.127219 26.7123 32.3084 -0.127219
515 2 28.6066 32.2986 1.5121 28.6066 32.2986 1.5121
516 2 28.6206 32.3182 -1.75 28.6206 32.3182 -1.75
517 1 29.5643 30.6618 -0.124708 29.5643 30.6618 -0.124708
518 2 31.4566 30.6494 1.51688 31.4566 30.6494 1.51688
519 2 31.4746 30.6743 -1.74516 31.4746 30.6743 -1.74516
520 1 32.4162 32.3083 -0.0962523 32.4162 32.3083 -0.0962523
521 2 34.3085 32.2993 1.54542 34.3085 32.2993 1.54542
522 2 34.3266 32.3173 -1.71666 34.3266 32.3173 -1.71666
523 1 35.2682 30.6618 -0.0893995 35.2682 30.6618 -0.0893995
524 2 37.1611 30.6496 1.55149 37.1611 30.6496 1.55149
525 2 37.1779 30.674 -1.71056 37.1779 30.674 -1.71056
526 1 38.1201 32.3083 -0.0622456 38.1201 32.3083 -0.0622456
527 2 40.0151 32.2991 1.57626 40.0151 32.2991 1.57626
528 2 40.0278 32.3175 -1.68584 40.0278 32.3175 -1.68584
529 1 40.9722 30.6617 -0.0603408 40.9722 30.6617 -0.0603408
530 2 42.8701 30.649 1.57467 42.8701 30.649 1.57467
531 2 42.8769 30.6745 -1.6874 42.8769 30.6745 -1.6874
532 1 43.8242 32.3083 -0.0414563 43.8242 32.3083 -0.0414563
533 2 45.7255 32.2981 1.58965 45.7255 32.2981 1.58965
534 2 45.7256 32.3186 -1.67246 45.7256 32.3186 -1.67246
535 1 46.6762 30.6617 -0.0517057 46.6762 30.6617 -0.0517057
536 2 48.5814 30.6479 1.57485 48.5814 30.6479 1.57485
537 2 48.5738 30.6756 -1.6872 48.5738 30.6756 -1.6872
538 1 49.5283 32.3083 -0.0443435 49.5283 32.3083 -0.0443435