ITEM: TIMESTEP
63000
ITEM: NUMBER OF ATOMS
810
ITEM: BOX BOUNDS pp pp pp
8.5809905402225839e-01 5.2159505945975987e+01
8.3847732242413675e-01 5.0177737677575607e+01
-1.0000000000000000e+01 1.0000000000000000e+01
ITEM: ATOMS id type x y z xu yu zu
1 1 1.06117 1.05239 -0.389257 1.06117 1.05239 -0.389257
2 2 2.88352 0.937391 1.32644 2.88352 0.937391 1.32644
3 2 3.03727 1.16452 -1.92419 3.03727 1.16452 -1.92419
4 1 3.90877 2.69181 -0.138686 3.90877 2.69181 -0.138686
5 2 5.72254 2.58988 1.58678 5.72254 2.58988 1.58678
6 2 5.89227 2.79188 -1.66473 5.89227 2.79188 -1.66473
7 1 6.75782 1.04598 -0.0915345 6.75782 1.04598 -0.0915345
8 2 8.56789 0.93444 1.63722 8.56789 0.93444 1.63722
9 2 8.74498 1.15614 -1.61253 8.74498 1.15614 -1.61253
10 1 9.60458 2.68644 0.176596 9.60458 2.68644 0.176596
11 2 11.427 2.5894 1.89331 11.427 2.5894 1.89331
12 2 11.5812 2.78339 -1.35926 11.5812 2.78339 -1.35926
13 1 12.4547 1.04122 0.213926 12.4547 1.04122 0.213926
14 2 14.2955 0.933497 1.90993 14.2955 0.933497 1.90993
15 2 14.4147 1.14967 -1.34272 14.4147 1.14967 -1.34272
16 1 15.3049 2.68375 0.427946 15.3049 2.68375 0.427946
17 2 17.177 2.58758 2.09031 17.177 2.58758 2.09031
18 2 17.2363 2.78178 -1.16522 17.2363 2.78178 -1.16522
19 1 18.1579 1.04033 0.381611 18.1579 1.04033 0.381611
20 2 20.0632 0.933536 2.00476 20.0632 0.933536 2.00476
21 2 20.0565 1.15002 -1.25004 20.0565 1.15002 -1.25004
22 1 21.0113 2.6851 0.484863 21.0113 2.6851 0.484863
23 2 22.9513 2.58404 2.06688 22.9513 2.58404 2.06688
24 2 22.8746 2.78961 -1.18762 22.8746 2.78961 -1.18762
25 1 23.8634 1.04434 0.313143 23.8634 1.04434 0.313143
26 2 25.8327 0.934531 1.85753 25.8327 0.934531 1.85753
27 2 25.6944 1.15827 -1.39393 25.6944 1.15827 -1.39393
28 1 26.715 2.69061 0.30453 26.715 2.69061 0.30453
29 2 28.7041 2.5816 1.8235 28.7041 2.5816 1.8235
30 2 28.5238 2.80359 -1.42596 28.5238 2.80359 -1.42596
31 1 29.5621 1.05187 0.0336729 29.5621 1.05187 0.0336729
32 2 31.5595 0.937772 1.54117 31.5595 0.937772 1.54117
33 2 31.3609 1.16939 -1.70664 31.3609 1.16939 -1.70664
34 1 32.411 2.6981 -0.0234498 32.411 2.6981 -0.0234498
35 2 34.4045 2.58292 1.48929 34.4045 2.58292 1.48929
36 2 34.214 2.8157 -1.75894 34.214 2.8157 -1.75894
37 1 35.2569 1.05894 -0.308318 35.2569 1.05894 -0.308318
38 2 37.2341 0.942164 1.22568 37.2341 0.942164 1.22568
39 2 37.0783 1.17633 -2.02426 37.0783 1.17633 -2.02426
40 1 38.1073 2.70317 -0.326056 38.1073 2.70317 -0.326056
41 2 40.0618 2.58687 1.23686 40.0618 2.58687 1.23686
42 2 39.9531 2.81874 -2.01529 39.9531 2.81874 -2.01529
43 1 40.9568 1.06134 -0.538207 40.9568 1.06134 -0.538207
44 2 42.8806 0.943931 1.06272 42.8806 0.943931 1.06272
45 2 42.8356 1.17631 -2.1908 42.8356 1.17631 -2.1908
46 1 43.8092 2.70274 -0.459292 43.8092 2.70274 -0.459292
47 2 45.7047 2.58949 1.17512 45.7047 2.58949 1.17512
48 2 45.7159 2.81295 -2.07949 45.7159 2.81295 -2.07949
49 1 46.661 1.05833 -0.56181 46.661 1.05833 -0.56181
50 2 48.5263 0.941367 1.10706 48.5263 0.941367 1.10706
51 2 48.5976 1.17175 -2.14619 48.5976 1.17175 -2.14619
52 1 49.5118 2.69796 -0.381851 49.5118 2.69796 -0.381851
53 2 51.355 2.59 1.31181 51.355 2.59 1.31181
54 2 51.4685 2.80284 -1.94157 51.4685 2.80284 -1.94157
55 1 1.05949 4.33798 -0.173616 1.05949 4.33798 -0.173616
56 2 2.8873 4.24718 1.53745 2.8873 4.24718 1.53745
57 2 3.02985 4.4266 -1.71685 3.02985 4.4266 -1.71685
58 1 3.90748 5.97945 0.0431972 3.90748 5.97945 0.0431972
59 2 5.72765 5.91125 1.76343 5.72765 5.91125 1.76343
60 2 5.88478 6.04649 -1.49227 5.88478 6.04649 -1.49227
61 1 6.75576 4.33268 0.113228 6.75576 4.33268 0.113228
62 2 8.57098 4.24955 1.83822 8.57098 4.24955 1.83822
63 2 8.73821 4.41511 -1.4154 8.73821 4.41511 -1.4154
64 1 9.60352 5.9757 0.344429 9.60352 5.9757 0.344429
65 2 11.4299 5.91357 2.05864 11.4299 5.91357 2.05864
66 2 11.5766 6.0381 -1.19763 11.5766 6.0381 -1.19763
67 1 12.4532 4.3291 0.410535 12.4532 4.3291 0.410535
68 2 14.2976 4.24862 2.10467 14.2976 4.24862 2.10467
69 2 14.4106 4.41053 -1.15118 14.4106 4.41053 -1.15118
70 1 15.3044 5.97399 0.591872 15.3044 5.97399 0.591872
71 2 17.1765 5.9091 2.25615 17.1765 5.9091 2.25615
72 2 17.2363 6.04038 -1.00234 17.2363 6.04038 -1.00234
73 1 18.1576 4.32844 0.578191 18.1576 4.32844 0.578191
74 2 20.0632 4.24309 2.2028 20.0632 4.24309 2.2028
75 2 20.0568 4.4162 -1.05433 20.0568 4.4162 -1.05433
76 1 21.0116 5.9748 0.659909 21.0116 5.9748 0.659909
77 2 22.9483 5.89873 2.24799 22.9483 5.89873 2.24799
78 2 22.8793 6.05336 -1.00929 22.8793 6.05336 -1.00929
79 1 23.8647 4.33134 0.521134 23.8647 4.33134 0.521134
80 2 25.8324 4.23546 2.06906 25.8324 4.23546 2.06906
81 2 25.6983 4.43071 -1.18417 25.6983 4.43071 -1.18417
82 1 26.7168 5.97848 0.502049 26.7168 5.97848 0.502049
83 2 28.7022 5.88821 2.02755 28.7022 5.88821 2.02755
84 2 28.5305 6.07194 -1.22462 28.5305 6.07194 -1.22462
85 1 29.5651 4.33739 0.258462 29.5651 4.33739 0.258462
86 2 31.5617 4.23092 1.76787 31.5617 4.23092 1.76787
87 2 31.3651 4.44722 -1.48105 31.3651 4.44722 -1.48105
88 1 32.4143 5.98415 0.195598 32.4143 5.98415 0.195598
89 2 34.4071 5.88386 1.71049 34.4071 5.88386 1.71049
90 2 34.2181 6.08684 -1.53986 34.2181 6.08684 -1.53986
91 1 35.2602 4.3437 -0.0724427 35.2602 4.3437 -0.0724427
92 2 37.2395 4.23245 1.45923 37.2395 4.23245 1.45923
93 2 37.0788 4.4561 -1.79135 37.0788 4.4561 -1.79135
94 1 38.1101 5.98843 -0.0994371 38.1101 5.98843 -0.0994371
95 2 40.0685 5.88782 1.45958 40.0685 5.88782 1.45958
96 2 39.9511 6.08892 -1.7945 39.9511 6.08892 -1.7945
97 1 40.9586 4.34609 -0.303272 40.9586 4.34609 -0.303272
98 2 42.8868 4.23789 1.29259 42.8868 4.23789 1.29259
99 2 42.8318 4.4525 -1.96225 42.8318 4.4525 -1.96225
100 1 43.8102 5.98822 -0.241842 43.8102 5.98822 -0.241842
101 2 45.7122 5.89612 1.38591 45.7122 5.89612 1.38591
102 2 45.7093 6.07805 -1.87155 45.7093 6.07805 -1.87155
103 1 46.6608 4.34334 -0.335477 46.6608 4.34334 -0.335477
104 2 48.5312 4.24305 1.3283 48.5312 4.24305 1.3283
105 2 48.5913 4.44067 -1.92759 48.5913 4.44067 -1.92759
106 1 49.5112 5.98425 -0.181617 49.5112 5.98425 -0.181617
107 2 51.3615 5.9046 1.50539 51.3615 5.9046 1.50539
108 2 51.4602 6.06159 -1.75185 51.4602 6.06159 -1.75185
109 1 1.05901 7.62641 -0.014435 1.05901 7.62641 -0.014435
110 2 2.89507 7.57255 1.68906 2.89507 7.57255 1.68906
111 2 3.02117 7.67878 -1.56926 3.02117 7.67878 -1.56926
112 1 3.90764 9.27022 0.151027 3.90764 9.27022 0.151027
113 2 5.73556 9.2443 1.86398 5.73556 9.2443 1.86398
114 2 5.87751 9.29538 -1.3949 5.87751 9.29538 -1.3949
115 1 6.75532 7.62289 0.250384 6.75532 7.62289 0.250384
116 2 8.5761 7.57951 1.97089 8.5761 7.57951 1.97089
117 2 8.73254 7.66599 -1.28635 8.73254 7.66599 -1.28635
118 1 9.60394 9.26829 0.432136 9.60394 9.26829 0.432136
119 2 11.4331 9.24872 2.14439 11.4331 9.24872 2.14439
120 2 11.5744 9.28816 -1.11426 11.5744 9.28816 -1.11426
121 1 12.453 7.6209 0.536685 12.453 7.6209 0.536685
122 2 14.2982 7.57871 2.23147 14.2982 7.57871 2.23147
123 2 14.4098 7.66391 -1.02727 14.4098 7.66391 -1.02727
124 1 15.3046 9.26777 0.677987 15.3046 9.26777 0.677987
125 2 17.1732 9.24253 2.34732 17.1732 9.24253 2.34732
126 2 17.2399 9.29395 -0.913206 17.2399 9.29395 -0.913206
127 1 18.1575 7.62062 0.710892 18.1575 7.62062 0.710892
128 2 20.0591 7.56892 2.34202 20.0591 7.56892 2.34202
129 2 20.0612 7.67386 -0.917864 20.0612 7.67386 -0.917864
130 1 21.0116 9.2683 0.765793 21.0116 9.2683 0.765793
131 2 22.9409 9.22775 2.36443 22.9409 9.22775 2.36443
132 2 22.8874 9.31023 -0.895636 22.8874 9.31023 -0.895636
133 1 23.8654 7.62221 0.677379 23.8654 7.62221 0.677379
134 2 25.827 7.55457 2.23495 25.827 7.55457 2.23495
135 2 25.7063 7.69217 -1.0216 25.7063 7.69217 -1.0216
136 1 26.718 9.27017 0.641046 26.718 9.27017 0.641046
137 2 28.6962 9.21165 2.17777 28.6962 9.21165 2.17777
138 2 28.5402 9.33071 -1.07811 28.5402 9.33071 -1.07811
139 1 29.5675 7.62601 0.444334 29.5675 7.62601 0.444334
140 2 31.5599 7.54351 1.96105 31.5599 7.54351 1.96105
141 2 31.3726 7.71113 -1.29125 31.3726 7.71113 -1.29125
142 1 32.4171 9.27352 0.365223 32.4171 9.27352 0.365223
143 2 34.407 9.20292 1.88559 34.407 9.20292 1.88559
144 2 34.2241 9.34598 -1.36829 34.2241 9.34598 -1.36829
145 1 35.2635 7.63051 0.133143 35.2635 7.63051 0.133143
146 2 37.2437 7.54196 1.66492 37.2437 7.54196 1.66492
147 2 37.0806 7.72036 -1.58843 37.0806 7.72036 -1.58843
148 1 38.1129 9.27636 0.0813423 38.1129 9.27636 0.0813423
149 2 40.0752 9.20615 1.6368 40.0752 9.20615 1.6368
150 2 39.9491 9.34681 -1.62024 39.9491 9.34681 -1.62024
151 1 40.9607 7.63245 -0.0994655 40.9607 7.63245 -0.0994655
152 2 42.8952 7.54983 1.48992 42.8952 7.54983 1.48992
153 2 42.8264 7.71402 -1.76779 42.8264 7.71402 -1.76779
154 1 43.8115 9.27621 -0.0753352 43.8115 9.27621 -0.0753352
155 2 45.7225 9.21831 1.54315 45.7225 9.21831 1.54315
156 2 45.7008 9.33261 -1.71748 45.7008 9.33261 -1.71748
157 1 46.6612 7.63039 -0.151073 46.6612 7.63039 -0.151073
158 2 48.5402 7.56153 1.50417 48.5402 7.56153 1.50417
159 2 48.5824 7.69711 -1.75538 48.5824 7.69711 -1.75538
160 1 49.5114 9.27337 -0.0440564 49.5114 9.27337 -0.0440564
161 2 51.3717 9.2327 1.63303 51.3717 9.2327 1.63303
162 2 51.4504 9.31236 -1.62771 51.4504 9.31236 -1.62771
163 1 1.05964 10.9175 0.0665651 1.05964 10.9175 0.0665651
164 2 2.90555 10.9071 1.75997 2.90555 10.9071 1.75997
165 2 3.01223 10.9267 -1.50081 3.01223 10.9267 -1.50081
166 1 3.90894 12.5627 0.171253 3.90894 12.5627 0.171253
167 2 5.74493 12.5817 1.87547 5.74493 12.5817 1.87547
168 2 5.87112 12.5429 -1.38428 5.87112 12.5429 -1.38428
169 1 6.75629 10.9156 0.302346 6.75629 10.9156 0.302346
170 2 8.5825 10.9167 2.01748 8.5825 10.9167 2.01748
171 2 8.72829 10.9143 -1.24144 8.72829 10.9143 -1.24144
172 1 9.6055 12.5622 0.429745 9.6055 12.5622 0.429745
173 2 11.436 12.5869 2.14026 11.436 12.5869 2.14026
174 2 11.5743 12.5376 -1.11843 11.5743 12.5376 -1.11843
175 1 12.4539 10.9152 0.576588 12.4539 10.9152 0.576588
176 2 14.2976 10.9161 2.27348 14.2976 10.9161 2.27348
177 2 14.4118 10.9148 -0.986285 14.4118 10.9148 -0.986285
178 1 15.3054 12.5629 0.676498 15.3054 12.5629 0.676498
179 2 17.1682 12.5803 2.35243 17.1682 12.5803 2.35243
180 2 17.2461 12.5462 -0.908097 17.2461 12.5462 -0.908097
181 1 18.1577 10.9156 0.762619 18.1577 10.9156 0.762619
182 2 20.0519 10.9042 2.40312 20.0519 10.9042 2.40312
183 2 20.0687 10.9278 -0.858284 20.0687 10.9278 -0.858284
184 1 21.0116 12.5639 0.78926 21.0116 12.5639 0.78926
185 2 22.931 12.5644 2.40031 22.931 12.5644 2.40031
186 2 22.8974 12.564 -0.861056 22.8974 12.564 -0.861056
187 1 23.8656 10.9165 0.760473 23.8656 10.9165 0.760473
188 2 25.8179 10.8864 2.33098 25.8179 10.8864 2.33098
189 2 25.7167 10.9477 -0.928488 25.7167 10.9477 -0.928488
190 1 26.7185 12.5648 0.702741 26.7185 12.5648 0.702741
191 2 28.6874 12.5465 2.25241 28.6874 12.5465 2.25241
192 2 28.551 12.5841 -1.00626 28.551 12.5841 -1.00626
193 1 29.5692 10.9183 0.564618 29.5692 10.9183 0.564618
194 2 31.555 10.8716 2.09153 31.555 10.8716 2.09153
195 2 31.3818 10.9666 -1.16444 31.3818 10.9666 -1.16444
196 1 32.4191 12.5662 0.461299 32.4191 12.5662 0.461299
197 2 34.4049 12.5357 1.98835 34.4049 12.5357 1.98835
198 2 34.2308 12.5978 -1.26856 34.2308 12.5978 -1.26856
199 1 35.2662 10.9207 0.277997 35.2662 10.9207 0.277997
200 2 37.2466 10.8677 1.81125 37.2466 10.8677 1.81125
201 2 37.0831 10.9748 -1.44525 37.0831 10.9748 -1.44525
202 1 38.1154 12.5675 0.190001 38.1154 12.5675 0.190001
203 2 40.0815 12.5378 1.74182 40.0815 12.5378 1.74182
204 2 39.9471 12.5972 -1.51741 39.9471 12.5972 -1.51741
205 1 40.9629 10.9218 0.0432137 40.9629 10.9218 0.0432137
206 2 42.9047 10.8763 1.62489 42.9047 10.8763 1.62489
207 2 42.8203 10.9666 -1.63544 42.8203 10.9666 -1.63544
208 1 43.813 12.5669 0.0164701 43.813 12.5669 0.0164701
209 2 45.7342 12.5513 1.62362 45.7342 12.5513 1.62362
210 2 45.6916 12.5814 -1.63873 45.6916 12.5814 -1.63873
211 1 46.6621 10.9202 -0.03498 46.6621 10.9202 -0.03498
212 2 48.552 10.892 1.60874 48.552 10.892 1.60874
213 2 48.5721 10.9469 -1.65349 48.5721 10.9469 -1.65349
214 1 49.5124 12.5647 0.0120098 49.5124 12.5647 0.0120098
215 2 51.384 12.5682 1.67676 51.384 12.5682 1.67676
216 2 51.4402 12.5597 -1.58547 51.4402 12.5597 -1.58547
217 1 1.06102 14.2096 0.0584395 1.06102 14.2096 0.0584395
218 2 2.91691 14.2439 1.74046 2.91691 14.2439 1.74046
219 2 3.0041 14.1738 -1.52023 3.0041 14.1738 -1.52023
220 1 3.91092 15.8546 0.100689 3.91092 15.8546 0.100689
221 2 5.75388 15.9161 1.79626 5.75388 15.9161 1.79626
222 2 5.86657 15.7918 -1.46186 5.86657 15.7918 -1.46186
223 1 6.75824 14.2086 0.263289 6.75824 14.2086 0.263289
224 2 8.58901 14.2535 1.97281 8.58901 14.2535 1.97281
225 2 8.72581 14.1632 -1.2853 8.72581 14.1632 -1.2853
226 1 9.60784 15.8548 0.338324 9.60784 15.8548 0.338324
227 2 11.4382 15.9203 2.04779 11.4382 15.9203 2.04779
228 2 11.5764 15.7892 -1.20872 11.5764 15.7892 -1.20872
229 1 12.4556 14.2094 0.526609 12.4556 14.2094 0.526609
230 2 14.2959 14.2528 2.2264 14.2959 14.2528 2.2264
231 2 14.4162 14.1663 -1.03208 14.4162 14.1663 -1.03208
232 1 15.3068 15.8568 0.58862 15.3068 15.8568 0.58862
233 2 17.1622 15.9145 2.27163 17.1622 15.9145 2.27163
234 2 17.2539 15.7998 -0.986804 17.2539 15.7998 -0.986804
235 1 18.1581 14.211 0.727741 18.1581 14.211 0.727741
236 2 20.0432 14.2415 2.37846 20.0432 14.2415 2.37846
237 2 20.0778 14.181 -0.882385 20.0778 14.181 -0.882385
238 1 21.0116 15.8589 0.727545 21.0116 15.8589 0.727545
239 2 22.9202 15.9011 2.35061 22.9202 15.9011 2.35061
240 2 22.908 15.8174 -0.909908 22.908 15.8174 -0.909908
241 1 23.8655 14.2121 0.759648 23.8655 14.2121 0.759648
242 2 25.8071 14.2244 2.34359 25.8071 14.2244 2.34359
243 2 25.7279 14.2004 -0.916981 25.7279 14.2004 -0.916981
244 1 26.7184 15.86 0.678098 26.7184 15.86 0.678098
245 2 28.6776 15.8858 2.23983 28.6776 15.8858 2.23983
246 2 28.5614 15.8349 -1.01947 28.5614 15.8349 -1.01947
247 1 29.57 14.2129 0.602427 29.57 14.2129 0.602427
248 2 31.5484 14.2095 2.13977 31.5484 14.2095 2.13977
249 2 31.3911 14.2172 -1.11836 31.3911 14.2172 -1.11836
250 1 32.4201 15.8605 0.468944 32.4201 15.8605 0.468944
251 2 34.4015 15.876 2.00204 34.4015 15.876 2.00204
252 2 34.2369 15.8456 -1.25579 34.2369 15.8456 -1.25579
253 1 35.2682 14.2137 0.340838 35.2682 14.2137 0.340838
254 2 37.2481 14.2045 1.87569 37.2481 14.2045 1.87569
255 2 37.0857 14.2234 -1.38257 37.0857 14.2234 -1.38257
256 1 38.1171 15.8604 0.209202 38.1171 15.8604 0.209202
257 2 40.0864 15.877 1.75722 40.0864 15.877 1.75722
258 2 39.9455 15.8436 -1.50208 39.9455 15.8436 -1.50208
259 1 40.9648 14.2136 0.103669 40.9648 14.2136 0.103669
260 2 42.914 14.2124 1.67678 42.914 14.2124 1.67678
261 2 42.8142 14.2141 -1.58438 42.8142 14.2141 -1.58438
262 1 43.8144 15.859 0.01866 43.8144 15.859 0.01866
263 2 45.7454 15.8888 1.61377 45.7454 15.8888 1.61377
264 2 45.6829 15.8275 -1.64779 45.6829 15.8275 -1.64779
265 1 46.6633 14.2119 -0.00403079 46.6633 14.2119 -0.00403079
266 2 48.5648 14.2284 1.6264 48.5648 14.2284 1.6264
267 2 48.5618 14.1937 -1.63619 48.5618 14.1937 -1.63619
268 1 49.5137 15.8565 -0.0225912 49.5137 15.8565 -0.0225912
269 2 51.3961 15.9042 1.62919 51.3961 15.9042 1.62919
270 2 51.4311 15.8066 -1.63187 51.4311 15.8066 -1.63187
271 1 1.06273 17.5005 -0.0398612 1.06273 17.5005 -0.0398612
272 2 2.92689 17.5755 1.63165 2.92689 17.5755 1.63165
273 2 2.99814 17.4232 -1.62657 2.99814 17.4232 -1.62657
274 1 3.9132 19.1439 -0.0533017 3.9132 19.1439 -0.0533017
275 2 5.76047 19.24 1.63598 5.76047 19.24 1.63598
276 2 5.86507 19.0458 -1.61895 5.86507 19.0458 -1.61895
277 1 6.76078 17.4995 0.137601 6.76078 17.4995 0.137601
278 2 8.59415 17.5824 1.84282 8.59415 17.5824 1.84282
279 2 8.72585 17.4156 -1.41253 8.72585 17.4156 -1.41253
280 1 9.61068 19.1443 0.169433 9.61068 19.1443 0.169433
281 2 11.4388 19.2419 1.87963 11.4388 19.2419 1.87963
282 2 11.5811 19.0466 -1.37356 11.5811 19.0466 -1.37356
283 1 12.4579 17.5011 0.393757 12.4579 17.5011 0.393757
284 2 14.2934 17.5814 2.09721 14.2934 17.5814 2.09721
285 2 14.4224 17.4213 -1.15826 14.4224 17.4213 -1.15826
286 1 15.3087 19.1474 0.426163 15.3087 19.1474 0.426163
287 2 17.156 19.2379 2.11624 17.156 19.2379 2.11624
288 2 17.2627 19.0581 -1.13896 17.2627 19.0581 -1.13896
289 1 18.159 17.5041 0.611192 18.159 17.5041 0.611192
290 2 20.0343 17.573 2.27153 20.0343 17.573 2.27153
291 2 20.0875 17.4362 -0.986894 20.0875 17.4362 -0.986894
292 1 21.012 19.1511 0.588623 21.012 19.1511 0.588623
293 2 22.9105 19.23 2.2217 22.9105 19.23 2.2217
294 2 22.9177 19.0735 -1.03631 22.9177 19.0735 -1.03631
295 1 23.8652 17.5064 0.674387 23.8652 17.5064 0.674387
296 2 25.7964 17.5606 2.26994 25.7964 17.5606 2.26994
297 2 25.7381 17.453 -0.989475 25.7381 17.453 -0.989475
298 1 26.7181 19.1532 0.568827 26.7181 19.1532 0.568827
299 2 28.6686 19.2209 2.1398 28.6686 19.2209 2.1398
300 2 28.5698 19.0865 -1.11779 28.5698 19.0865 -1.11779
301 1 29.5701 17.5073 0.550619 29.5701 17.5073 0.550619
302 2 31.5412 17.5494 2.09661 31.5412 17.5494 2.09661
303 2 31.3991 17.4659 -1.16117 31.3991 17.4659 -1.16117
304 1 32.4202 19.1537 0.384196 32.4202 19.1537 0.384196
305 2 34.3972 19.2146 1.92169 34.3972 19.2146 1.92169
306 2 34.2418 19.0932 -1.33448 34.2418 19.0932 -1.33448
307 1 35.2692 17.5072 0.310074 35.2692 17.5072 0.310074
308 2 37.2479 17.5451 1.84593 37.2479 17.5451 1.84593
309 2 37.0881 17.4694 -1.41158 37.0881 17.4694 -1.41158
310 1 38.1177 19.1527 0.13265 38.1177 19.1527 0.13265
311 2 40.0889 19.2147 1.67714 40.0889 19.2147 1.67714
312 2 39.9443 19.0897 -1.5797 39.9443 19.0897 -1.5797
313 1 40.966 17.506 0.0701164 40.966 17.506 0.0701164
314 2 42.9214 17.5508 1.6349 42.9214 17.5508 1.6349
315 2 42.809 17.4599 -1.62451 42.809 17.4599 -1.62451
316 1 43.8152 19.15 -0.0730201 43.8152 19.15 -0.0730201
317 2 45.7538 19.2224 1.51154 45.7538 19.2224 1.51154
318 2 45.6761 19.0751 -1.74683 45.6761 19.0751 -1.74683
319 1 46.6644 17.5033 -0.0655547 46.6644 17.5033 -0.0655547
320 2 48.576 17.5634 1.55198 48.576 17.5634 1.55198
321 2 48.553 17.4407 -1.70833 48.553 17.4407 -1.70833
322 1 49.5149 19.1463 -0.146372 49.5149 19.1463 -0.146372
323 2 51.4056 19.2327 1.49443 51.4056 19.2327 1.49443
324 2 51.4246 19.0571 -1.76337 51.4246 19.0571 -1.76337
325 1 1.06439 20.7883 -0.217308 1.06439 20.7883 -0.217308
326 2 2.9334 20.894 1.44726 2.9334 20.894 1.44726
327 2 2.99575 20.6798 -1.80754 2.99575 20.6798 -1.80754
328 1 3.91551 22.4299 -0.270084 3.91551 22.4299 -0.270084
329 2 5.76332 22.5465 1.41745 5.76332 22.5465 1.41745
330 2 5.86742 22.3113 -1.83469 5.86742 22.3113 -1.83469
331 1 6.7636 20.787 -0.0589649 6.7636 20.787 -0.0589649
332 2 8.5966 20.8965 1.64514 8.5966 20.8965 1.64514
333 2 8.72915 20.6765 -1.60699 8.72915 20.6765 -1.60699
334 1 9.61373 22.4304 -0.0535188 9.61373 22.4304 -0.0535188
335 2 11.4374 22.5458 1.66019 11.4374 22.5458 1.66019
336 2 11.5881 22.3153 -1.59037 11.5881 22.3153 -1.59037
337 1 12.4607 20.7892 0.195823 12.4607 20.7892 0.195823
338 2 14.2901 20.8953 1.90414 14.2901 20.8953 1.90414
339 2 14.4303 20.6841 -1.34809 14.4303 20.6841 -1.34809
340 1 15.3109 22.4344 0.212039 15.3109 22.4344 0.212039
341 2 17.1505 22.5446 1.90901 17.1505 22.5446 1.90901
342 2 17.2714 22.3263 -1.34353 17.2714 22.3263 -1.34353
343 1 18.1603 20.7936 0.428777 18.1603 20.7936 0.428777
344 2 20.0265 20.8915 2.09739 20.0265 20.8915 2.09739
345 2 20.0966 20.6976 -1.15802 20.0966 20.6976 -1.15802
346 1 21.0126 22.4394 0.391969 21.0126 22.4394 0.391969
347 2 22.9032 22.5437 2.03224 22.9032 22.5437 2.03224
348 2 22.9252 22.3374 -1.22317 22.9252 22.3374 -1.22317
349 1 23.8651 20.7974 0.515584 23.8651 20.7974 0.515584
350 2 25.7876 20.8866 2.11951 25.7876 20.8866 2.11951
351 2 25.7461 20.7097 -1.13731 25.7461 20.7097 -1.13731
352 1 26.7174 22.4427 0.389496 26.7174 22.4427 0.389496
353 2 28.6617 22.5429 1.96602 28.6617 22.5429 1.96602
354 2 28.5752 22.3441 -1.28879 28.5752 22.3441 -1.28879
355 1 29.5695 20.799 0.414215 29.5695 20.799 0.414215
356 2 31.5345 20.8817 1.96605 31.5345 20.8817 1.96605
357 2 31.4048 20.7172 -1.28924 31.4048 20.7172 -1.28924
358 1 32.4192 22.4435 0.217424 32.4192 22.4435 0.217424
359 2 34.3924 22.5413 1.75757 34.3924 22.5413 1.75757
360 2 34.2447 22.3462 -1.49539 34.2447 22.3462 -1.49539
361 1 35.2689 20.7986 0.187082 35.2689 20.7986 0.187082
362 2 37.2459 20.8793 1.72341 37.2459 20.8793 1.72341
363 2 37.0898 20.7178 -1.53112 37.0898 20.7178 -1.53112
364 1 38.1169 22.4418 -0.0308765 38.1169 22.4418 -0.0308765
365 2 40.0883 22.5407 1.51145 40.0883 22.5407 1.51145
366 2 39.9437 22.3418 -1.7416 39.9437 22.3418 -1.7416
367 1 40.9661 20.7963 -0.0563107 40.9661 20.7963 -0.0563107
368 2 42.9253 20.8817 1.50207 42.9253 20.8817 1.50207
369 2 42.8055 20.7089 -1.75362 42.8055 20.7089 -1.75362
370 1 43.8149 22.438 -0.24784 43.8149 22.438 -0.24784
371 2 45.7574 22.5424 1.33025 45.7574 22.5424 1.33025
372 2 45.6725 22.3305 -1.92417 45.6725 22.3305 -1.92417
373 1 46.665 20.7922 -0.214293 46.665 20.7922 -0.214293
374 2 48.5834 20.8881 1.39356 48.5834 20.8881 1.39356
375 2 48.5472 20.6931 -1.86294 48.5472 20.6931 -1.86294
376 1 49.5157 22.4331 -0.343507 49.5157 22.4331 -0.343507
377 2 51.4106 22.5452 1.29113 51.4106 22.5452 1.29113
378 2 51.4221 22.3176 -1.96329 51.4221 22.3176 -1.96329
379 1 1.0658 24.0734 -0.447718 1.0658 24.0734 -0.447718
380 2 2.93527 24.1928 1.21567 2.93527 24.1928 1.21567
381 2 2.99765 23.9513 -2.03702 2.99765 23.9513 -2.03702
382 1 3.91762 25.7144 -0.514678 3.91762 25.7144 -0.514678
383 2 5.76215 25.8316 1.17663 5.76215 25.8316 1.17663
384 2 5.87341 25.5958 -2.07507 5.87341 25.5958 -2.07507
385 1 6.76642 24.0719 -0.297213 6.76642 24.0719 -0.297213
386 2 8.59592 24.1908 1.4101 8.59592 24.1908 1.4101
387 2 8.73556 23.9524 -1.84039 8.73556 23.9524 -1.84039
388 1 9.61663 25.7151 -0.295161 9.61663 25.7151 -0.295161
389 2 11.4345 25.8292 1.4248 11.4345 25.8292 1.4248
390 2 11.5964 25.6018 -1.82546 11.5964 25.6018 -1.82546
391 1 12.4635 24.0745 -0.0378442 12.4635 24.0745 -0.0378442
392 2 14.2863 24.1899 1.67664 14.2863 24.1899 1.67664
393 2 14.4387 23.9607 -1.57395 14.4387 23.9607 -1.57395
394 1 15.3131 25.7195 -0.0203587 15.3131 25.7195 -0.0203587
395 2 17.1464 25.8314 1.68287 17.1464 25.8314 1.68287
396 2 17.2787 25.6101 -1.56923 17.2787 25.6101 -1.56923
397 1 18.1618 24.0798 0.207464 18.1618 24.0798 0.207464
398 2 20.0209 24.1917 1.88253 20.0209 24.1917 1.88253
399 2 20.1039 23.9705 -1.37108 20.1039 23.9705 -1.37108
400 1 21.0132 25.725 0.167937 21.0132 25.725 0.167937
401 2 22.8992 25.8379 1.81227 22.8992 25.8379 1.81227
402 2 22.9293 25.615 -1.44226 22.9293 25.615 -1.44226
403 1 23.865 24.0846 0.306493 23.865 24.0846 0.306493
404 2 25.782 24.1952 1.91504 25.782 24.1952 1.91504
405 2 25.7507 23.9763 -1.33957 25.7507 23.9763 -1.33957
406 1 26.7165 25.7288 0.167745 26.7165 25.7288 0.167745
407 2 28.6577 25.8452 1.74627 28.6577 25.8452 1.74627
408 2 28.5765 25.6145 -1.50677 28.5765 25.6145 -1.50677
409 1 29.5682 24.0869 0.212786 29.5682 24.0869 0.212786
410 2 31.5291 24.1976 1.76757 31.5291 24.1976 1.76757
411 2 31.4074 23.9775 -1.48486 31.4074 23.9775 -1.48486
412 1 32.4171 25.7296 -0.00554892 32.4171 25.7296 -0.00554892
413 2 34.3877 25.8484 1.53614 34.3877 25.8484 1.53614
414 2 34.2452 25.6116 -1.71434 34.2452 25.6116 -1.71434
415 1 35.2673 24.0863 -0.010695 35.2673 24.0863 -0.010695
416 2 37.2422 24.1972 1.5263 37.2422 24.1972 1.5263
417 2 37.0906 23.9752 -1.72484 37.0906 23.9752 -1.72484
418 1 38.1147 25.7276 -0.255854 38.1147 25.7276 -0.255854
419 2 40.0844 25.8466 1.28718 40.0844 25.8466 1.28718
420 2 39.9437 25.6073 -1.9632 39.9437 25.6073 -1.9632
421 1 40.9648 24.0832 -0.257772 40.9648 24.0832 -0.257772
422 2 42.9247 24.1957 1.29817 42.9247 24.1957 1.29817
423 2 42.8042 23.9684 -1.95398 42.8042 23.9684 -1.95398
424 1 43.8136 25.723 -0.478046 43.8136 25.723 -0.478046
425 2 45.7556 25.8416 1.0999 45.7556 25.8416 1.0999
426 2 45.6726 25.6015 -2.15238 45.6726 25.6015 -2.15238
427 1 46.6648 24.0781 -0.428778 46.6648 24.0781 -0.428778
428 2 48.5854 24.1942 1.17535 48.5854 24.1942 1.17535
429 2 48.5458 23.9585 -2.07818 48.5458 23.9585 -2.07818
430 1 49.516 25.7177 -0.582203 49.516 25.7177 -0.582203
431 2 51.4102 25.8362 1.05312 51.4102 25.8362 1.05312
432 2 51.4243 25.5961 -2.20013 51.4243 25.5961 -2.20013
433 1 1.0669 27.3583 -0.691043 1.0669 27.3583 -0.691043
434 2 2.93252 27.4695 0.977559 2.93252 27.4695 0.977559
435 2 3.00357 27.2449 -2.27593 3.00357 27.2449 -2.27593
436 1 3.91935 29.0008 -0.7424 3.91935 29.0008 -0.7424
437 2 5.75775 29.0965 0.957168 5.75775 29.0965 0.957168
438 2 5.88169 28.9043 -2.29677 5.88169 28.9043 -2.29677
439 1 6.76891 27.3571 -0.536309 6.76891 27.3571 -0.536309
440 2 8.59268 27.4641 1.178 8.59268 27.4641 1.178
441 2 8.74378 27.2499 -2.07358 8.74378 27.2499 -2.07358
442 1 9.6189 29.0017 -0.512446 9.6189 29.0017 -0.512446
443 2 11.4308 29.0934 1.21497 11.4308 29.0934 1.21497
444 2 11.604 28.9109 -2.03755 11.604 28.9109 -2.03755
445 1 12.4659 27.3597 -0.268383 12.4659 27.3597 -0.268383
446 2 14.2829 27.4645 1.45271 14.2829 27.4645 1.45271
447 2 14.4462 27.2569 -1.79891 14.4462 27.2569 -1.79891
448 1 15.3147 29.0054 -0.230848 15.3147 29.0054 -0.230848
449 2 17.1445 29.099 1.4768 17.1445 29.099 1.4768
450 2 17.2829 28.9143 -1.77752 17.2829 28.9143 -1.77752
451 1 18.163 27.3649 -0.0167174 18.163 27.3649 -0.0167174
452 2 20.0183 27.4718 1.6624 20.0183 27.4718 1.6624
453 2 20.108 27.2609 -1.59198 20.108 27.2609 -1.59198
454 1 21.0135 29.0103 -0.0455238 21.0135 29.0103 -0.0455238
455 2 22.899 29.1118 1.59938 22.899 29.1118 1.59938
456 2 22.929 28.9117 -1.65689 22.929 28.9117 -1.65689
457 1 23.8647 27.3697 0.0809009 23.8647 27.3697 0.0809009
458 2 25.7801 27.483 1.69044 25.7801 27.483 1.69044
459 2 25.7509 27.2591 -1.56412 25.7509 27.2591 -1.56412
460 1 26.7151 29.0137 -0.0587783 26.7151 29.0137 -0.0587783
461 2 28.6569 29.1256 1.51863 28.6569 29.1256 1.51863
462 2 28.5735 28.904 -1.73519 28.5735 28.904 -1.73519
463 1 29.5663 27.3719 -0.0207421 29.5663 27.3719 -0.0207421
464 2 31.5257 27.4916 1.53465 31.5257 27.4916 1.53465
465 2 31.4063 27.2538 -1.71675 31.4063 27.2538 -1.71675
466 1 32.4142 29.0142 -0.246393 32.4142 29.0142 -0.246393
467 2 34.3836 29.1326 1.29632 34.3836 29.1326 1.29632
468 2 34.2431 28.8966 -1.95433 34.2431 28.8966 -1.95433
469 1 35.2645 27.3712 -0.250602 35.2645 27.3712 -0.250602
470 2 37.237 27.493 1.28833 37.237 27.493 1.28833
471 2 37.0903 27.2492 -1.96142 37.0903 27.2492 -1.96142
472 1 38.1115 29.012 -0.502941 38.1115 29.012 -0.502941
473 2 40.0777 29.1294 1.04456 40.0777 29.1294 1.04456
474 2 39.9447 28.8936 -2.20625 39.9447 28.8936 -2.20625
475 1 40.9624 27.3677 -0.500246 40.9624 27.3677 -0.500246
476 2 42.9196 27.4872 1.05875 42.9196 27.4872 1.05875
477 2 42.8055 27.2462 -2.19244 42.8055 27.2462 -2.19244
478 1 43.8116 29.0078 -0.722354 43.8116 29.0078 -0.722354
479 2 45.7487 29.1184 0.862426 45.7487 29.1184 0.862426
480 2 45.6769 28.8949 -2.39104 45.6769 28.8949 -2.39104
481 1 46.6639 27.3626 -0.672082 46.6639 27.3626 -0.672082
482 2 48.5817 27.4779 0.935783 48.5817 27.4779 0.935783
483 2 48.549 27.2444 -2.3177 48.549 27.2444 -2.3177
484 1 49.516 29.0033 -0.818985 49.516 29.0033 -0.818985
485 2 51.4049 29.1059 0.82399 51.4049 29.1059 0.82399
486 2 51.4309 28.8986 -2.43118 51.4309 28.8986 -2.43118
487 1 1.06778 30.6462 -0.901295 1.06778 30.6462 -0.901295
488 2 2.9261 30.7279 0.777453 2.9261 30.7279 0.777453
489 2 3.0124 30.5635 -2.47904 3.0124 30.5635 -2.47904
490 1 3.92052 32.2916 -0.909283 3.92052 32.2916 -0.909283
491 2 5.75125 32.3468 0.800489 5.75125 32.3468 0.800489
492 2 5.89051 32.2359 -2.45648 5.89051 32.2359 -2.45648
493 1 6.77068 30.6457 -0.731292 6.77068 30.6457 -0.731292
494 2 8.58799 30.7202 0.991645 8.58799 30.7202 0.991645
495 2 8.75183 30.5712 -2.26288 8.75183 30.5712 -2.26288
496 1 9.62004 32.2922 -0.663656 9.62004 32.2922 -0.663656
497 2 11.4275 32.3433 1.06999 11.4275 32.3433 1.06999
498 2 11.6092 32.2415 -2.1856 11.6092 32.2415 -2.1856
499 1 12.4674 30.6477 -0.453489 12.4674 30.6477 -0.453489
500 2 14.2808 30.7219 1.27278 14.2808 30.7219 1.27278
501 2 14.4507 30.575 -1.98191 14.4507 30.575 -1.98191
502 1 15.3153 32.2945 -0.379686 15.3153 32.2945 -0.379686
503 2 17.1453 32.3513 1.32887 17.1453 32.3513 1.32887
504 2 17.2827 32.2393 -1.92896 17.2827 32.2393 -1.92896
505 1 18.1637 30.6516 -0.203666 18.1637 30.6516 -0.203666
506 2 20.0191 30.7337 1.47601 20.0191 30.7337 1.47601
507 2 20.1076 30.572 -1.78145 20.1076 30.572 -1.78145
508 1 21.0132 32.2978 -0.209012 21.0132 32.2978 -0.209012
509 2 22.9027 32.3687 1.43227 22.9027 32.3687 1.43227
510 2 22.9239 32.2293 -1.82745 22.9239 32.2293 -1.82745
511 1 23.864 30.6555 -0.121486 23.864 30.6555 -0.121486
512 2 25.7819 30.7506 1.48544 25.7819 30.7506 1.48544
513 2 25.7465 30.5628 -1.77156 25.7465 30.5628 -1.77156
514 1 26.7133 32.3004 -0.248695 26.7133 32.3004 -0.248695
515 2 28.6594 32.3868 1.32443 28.6594 32.3868 1.32443
516 2 28.5663 32.2157 -1.93231 28.5663 32.2157 -1.93231
517 1 29.5638 30.6572 -0.24495 29.5638 30.6572 -0.24495
518 2 31.5246 30.764 1.30899 31.5246 30.764 1.30899
519 2 31.4015 30.5518 -1.94414 31.4015 30.5518 -1.94414
520 1 32.4107 32.3005 -0.461133 32.4107 32.3005 -0.461133
521 2 34.3809 32.3966 1.08186 34.3809 32.3966 1.08186
522 2 34.2386 32.2051 -2.17162 34.2386 32.2051 -2.17162
523 1 35.2609 30.6561 -0.489741 35.2609 30.6561 -0.489741
524 2 37.2312 30.7665 1.05267 37.2312 30.7665 1.05267
525 2 37.0892 30.5459 -2.19887 37.0892 30.5459 -2.19887
526 1 38.1079 32.2985 -0.726582 38.1079 32.2985 -0.726582
527 2 40.0696 32.3924 0.828355 40.0696 32.3924 0.828355
528 2 39.9466 32.2042 -2.42579 39.9466 32.2042 -2.42579
529 1 40.9595 30.6531 -0.739374 40.9595 30.6531 -0.739374
530 2 42.911 30.7571 0.828019 42.911 30.7571 0.828019
531 2 42.8096 30.5478 -2.42556 42.8096 30.5478 -2.42556
532 1 43.8096 32.2955 -0.934862 43.8096 32.2955 -0.934862
533 2 45.7385 32.3772 0.662125 45.7385 32.3772 0.662125
534 2 45.6847 32.2127 -2.59497 45.6847 32.2127 -2.59497
535 1 46.6629 30.6491 -0.898828 46.6629 30.6491 -0.898828
536 2 48.5734 30.7417 0.719509 48.5734 30.7417 0.719509
537 2 48.5566 30.5549 -2.53684 48.5566 30.5549 -2.53684
538 1 49.5161 32.2928 -1.00869 49.5161 32.2928 -1.00869
539 2 51.3959 32.3596 0.646804 51.3959 32.3596 0.646804