ITEM: TIMESTEP
77000
ITEM: NUMBER OF ATOMS
810
ITEM: BOX BOUNDS pp pp pp
8.4286125984405091e-01 5.2174743740154412e+01
8.1565641029575942e-01 5.0200558589703526e+01
-1.0000000000000000e+01 1.0000000000000000e+01
ITEM: ATOMS id type x y z xu yu zu
1 1 1.04713 1.03117 -0.0226745 1.04713 1.03117 -0.0226745
2 2 2.9675 1.08808 1.58481 2.9675 1.08808 1.58481
3 2 2.9293 0.974501 -1.67518 2.9293 0.974501 -1.67518
4 1 3.8988 2.67682 -0.113876 3.8988 2.67682 -0.113876
5 2 5.82774 2.73264 1.48326 5.82774 2.73264 1.48326
6 2 5.77201 2.62109 -1.77656 5.77201 2.62109 -1.77656
7 1 6.75067 1.03099 -0.106501 6.75067 1.03099 -0.106501
8 2 8.6864 1.08742 1.48251 8.6864 1.08742 1.48251
9 2 8.61687 0.974449 -1.77698 8.61687 0.974449 -1.77698
10 1 9.60181 2.67626 -0.22476 9.60181 2.67626 -0.22476
11 2 11.5384 2.73143 1.36321 11.5384 2.73143 1.36321
12 2 11.4671 2.62086 -1.89632 11.4671 2.62086 -1.89632
13 1 12.4535 1.03012 -0.231435 12.4535 1.03012 -0.231435
14 2 14.3882 1.08612 1.35894 14.3882 1.08612 1.35894
15 2 14.3208 0.973747 -1.90061 14.3208 0.973747 -1.90061
16 1 15.3048 2.67522 -0.347445 15.3048 2.67522 -0.347445
17 2 17.2316 2.72914 1.25269 17.2316 2.72914 1.25269
18 2 17.1805 2.62094 -2.00727 17.1805 2.62094 -2.00727
19 1 18.1568 1.02902 -0.337448 18.1568 1.02902 -0.337448
20 2 20.0742 1.08457 1.274 20.0742 1.08457 1.274
21 2 20.0421 0.973043 -1.98611 20.0421 0.973043 -1.98611
22 1 21.0088 2.67427 -0.421899 21.0088 2.67427 -0.421899
23 2 22.9128 2.72675 1.20559 22.9128 2.72675 1.20559
24 2 22.9079 2.62149 -2.05485 22.9079 2.62149 -2.05485
25 1 23.8611 1.02823 -0.372774 23.8611 1.02823 -0.372774
26 2 25.753 1.08363 1.26858 25.753 1.08363 1.26858
27 2 25.772 0.972548 -1.99164 25.772 0.972548 -1.99164
28 1 26.7133 2.67383 -0.41224 26.7133 2.67383 -0.41224
29 2 28.5928 2.7256 1.24357 28.5928 2.7256 1.24357
30 2 28.6366 2.62194 -2.01663 28.6366 2.62194 -2.01663
31 1 29.5652 1.02809 -0.321286 29.5652 1.02809 -0.321286
32 2 31.4362 1.08407 1.34382 31.4362 1.08407 1.34382
33 2 31.4964 0.972075 -1.91588 31.4964 0.972075 -1.91588
34 1 32.4171 2.67403 -0.325193 32.4171 2.67403 -0.325193
35 2 34.2822 2.72633 1.34659 34.2822 2.72633 1.34659
36 2 34.354 2.62187 -1.91313 34.354 2.62187 -1.91313
37 1 35.2684 1.02863 -0.209502 35.2684 1.02863 -0.209502
38 2 37.1329 1.08553 1.46271 37.1329 1.08553 1.46271
39 2 37.2057 0.97198 -1.79669 37.2057 0.97198 -1.79669
40 1 38.12 2.67477 -0.203267 38.12 2.67477 -0.203267
41 2 39.9872 2.72832 1.46592 39.9872 2.72832 1.46592
42 2 40.0547 2.6216 -1.79384 40.0547 2.6216 -1.79384
43 1 40.9713 1.0296 -0.090311 40.9713 1.0296 -0.090311
44 2 42.846 1.08701 1.57026 42.846 1.08701 1.57026
45 2 42.8988 0.972646 -1.68951 42.8988 0.972646 -1.68951
46 1 43.8231 2.67576 -0.102174 43.8231 2.67576 -0.102174
47 2 45.7072 2.73064 1.54772 45.7072 2.73064 1.54772
48 2 45.7415 2.62141 -1.71249 45.7415 2.62141 -1.71249
49 1 46.6749 1.0306 -0.017171 46.6749 1.0306 -0.017171
50 2 48.5714 1.08796 1.61844 48.5714 1.08796 1.61844
51 2 48.5812 0.97371 -1.64174 48.5812 0.97371 -1.64174
52 1 49.5269 2.67659 -0.0666748 49.5269 2.67659 -0.0666748
53 2 51.435 2.73234 1.55529 51.435 2.73234 1.55529
54 2 51.4214 2.62127 -1.70501 51.4214 2.62127 -1.70501
55 1 1.04684 4.32248 -0.135118 1.04684 4.32248 -0.135118
56 2 2.96594 4.37504 1.47383 2.96594 4.37504 1.47383
57 2 2.93008 4.27024 -1.78652 2.93008 4.27024 -1.78652
58 1 3.89832 5.96832 -0.21998 3.89832 5.96832 -0.21998
59 2 5.82615 6.01567 1.37864 5.82615 6.01567 1.37864
60 2 5.77255 5.92111 -1.88178 5.77255 5.92111 -1.88178
61 1 6.7501 4.32233 -0.21947 6.7501 4.32233 -0.21947
62 2 8.68421 4.37473 1.37151 8.68421 4.37473 1.37151
63 2 8.61791 4.26988 -1.88832 8.61791 4.26988 -1.88832
64 1 9.6012 5.96785 -0.330964 9.6012 5.96785 -0.330964
65 2 11.5359 6.01407 1.25955 11.5359 6.01407 1.25955
66 2 11.4685 5.9215 -2.00061 11.4685 5.9215 -2.00061
67 1 12.4529 4.32152 -0.343444 12.4529 4.32152 -0.343444
68 2 14.3857 4.37237 1.24945 14.3857 4.37237 1.24945
69 2 14.3223 4.2704 -2.0105 14.3223 4.2704 -2.0105
70 1 15.3043 5.967 -0.450761 15.3043 5.967 -0.450761
71 2 17.2287 6.01038 1.15268 17.2287 6.01038 1.15268
72 2 17.1827 5.9234 -2.10796 17.1827 5.9234 -2.10796
73 1 18.1565 4.32054 -0.447074 18.1565 4.32054 -0.447074
74 2 20.0717 4.36899 1.16722 20.0717 4.36899 1.16722
75 2 20.0443 4.27182 -2.09334 20.0443 4.27182 -2.09334
76 1 21.0087 5.96628 -0.520372 21.0087 5.96628 -0.520372
77 2 22.9101 6.00627 1.11049 22.9101 6.00627 1.11049
78 2 22.9105 5.92614 -2.15061 22.9105 5.92614 -2.15061
79 1 23.8611 4.3199 -0.479412 23.8611 4.3199 -0.479412
80 2 25.7511 4.36617 1.1645 25.7511 4.36617 1.1645
81 2 25.7742 4.27348 -2.09621 25.7742 4.27348 -2.09621
82 1 26.7135 5.966 -0.506144 26.7135 5.966 -0.506144
83 2 28.591 6.00359 1.15224 28.591 6.00359 1.15224
84 2 28.6388 5.92837 -2.10865 28.6388 5.92837 -2.10865
85 1 29.5655 4.31982 -0.426272 29.5655 4.31982 -0.426272
86 2 31.4352 4.36534 1.2406 31.4352 4.36534 1.2406
87 2 31.4981 4.27432 -2.01967 31.4981 4.27432 -2.01967
88 1 32.4174 5.96616 -0.417355 32.4174 5.96616 -0.417355
89 2 34.2816 6.00356 1.2558 34.2816 6.00356 1.2558
90 2 34.3552 5.92887 -2.00468 34.3552 5.92887 -2.00468
91 1 35.2688 4.32025 -0.315272 35.2688 4.32025 -0.315272
92 2 37.1325 4.36681 1.35812 37.1325 4.36681 1.35812
93 2 37.2069 4.27394 -1.9019 37.2069 4.27394 -1.9019
94 1 38.1203 5.96668 -0.297272 38.1203 5.96668 -0.297272
95 2 39.9873 6.00626 1.37241 39.9873 6.00626 1.37241
96 2 40.0552 5.92743 -1.88817 40.0552 5.92743 -1.88817
97 1 40.9716 4.32106 -0.198358 40.9716 4.32106 -0.198358
98 2 42.8456 4.36983 1.4632 42.8456 4.36983 1.4632
99 2 42.8997 4.27275 -1.79715 42.8997 4.27275 -1.79715
100 1 43.8233 5.96744 -0.20042 43.8233 5.96744 -0.20042
101 2 45.7074 6.01049 1.44964 45.7074 6.01049 1.44964
102 2 45.7414 5.92487 -1.81133 45.7414 5.92487 -1.81133
103 1 46.675 4.32194 -0.127753 46.675 4.32194 -0.127753
104 2 48.5705 4.37308 1.50894 48.5705 4.37308 1.50894
105 2 48.5819 4.27132 -1.7517 48.5819 4.27132 -1.7517
106 1 49.5268 5.96812 -0.16967 49.5268 5.96812 -0.16967
107 2 51.4345 6.01427 1.45283 51.4345 6.01427 1.45283
108 2 51.4214 5.92239 -1.80811 51.4214 5.92239 -1.80811
109 1 1.04651 7.61429 -0.228097 1.04651 7.61429 -0.228097
110 2 2.96547 7.65388 1.38124 2.96547 7.65388 1.38124
111 2 2.92973 7.57498 -1.87987 2.92973 7.57498 -1.87987
112 1 3.89787 9.2605 -0.299851 3.89787 9.2605 -0.299851
113 2 5.82529 9.29161 1.29955 5.82529 9.29161 1.29955
114 2 5.77242 9.22952 -1.96167 5.77242 9.22952 -1.96167
115 1 6.74953 7.61418 -0.315238 6.74953 7.61418 -0.315238
116 2 8.68223 7.65395 1.27774 8.68223 7.65395 1.27774
117 2 8.61877 7.57442 -1.98288 8.61877 7.57442 -1.98288
118 1 9.60067 9.26021 -0.411545 9.60067 9.26021 -0.411545
119 2 11.5334 9.28993 1.18174 11.5334 9.28993 1.18174
120 2 11.47 9.23042 -2.07926 11.47 9.23042 -2.07926
121 1 12.4524 7.61358 -0.437245 12.4524 7.61358 -0.437245
122 2 14.3827 7.65078 1.15897 14.3827 7.65078 1.15897
123 2 14.3245 7.57623 -2.10179 14.3245 7.57623 -2.10179
124 1 15.304 9.25968 -0.526349 15.304 9.25968 -0.526349
125 2 17.2253 9.28542 1.08105 17.2253 9.28542 1.08105
126 2 17.1856 9.23383 -2.18038 17.1856 9.23383 -2.18038
127 1 18.1562 7.6129 -0.535236 18.1562 7.6129 -0.535236
128 2 20.0685 7.64605 1.08295 20.0685 7.64605 1.08295
129 2 20.0472 7.57962 -2.17838 20.0472 7.57962 -2.17838
130 1 21.0086 9.25927 -0.587741 21.0086 9.25927 -0.587741
131 2 22.9069 9.28019 1.04713 22.9069 9.28019 1.04713
132 2 22.9137 9.23829 -2.21464 22.9137 9.23829 -2.21464
133 1 23.8611 7.61251 -0.560631 23.8611 7.61251 -0.560631
134 2 25.7485 7.64177 1.0867 25.7485 7.64177 1.0867
135 2 25.777 7.58319 -2.17472 25.777 7.58319 -2.17472
136 1 26.7136 9.25913 -0.565534 26.7136 9.25913 -0.565534
137 2 28.5888 9.27627 1.09575 28.5888 9.27627 1.09575
138 2 28.6412 9.24196 -2.16573 28.6412 9.24196 -2.16573
139 1 29.5657 7.61248 -0.502464 29.5657 7.61248 -0.502464
140 2 31.4339 7.63975 1.16646 31.4339 7.63975 1.16646
141 2 31.4998 7.58523 -2.09455 31.4998 7.58523 -2.09455
142 1 32.4175 9.25919 -0.472564 32.4175 9.25919 -0.472564
143 2 34.2811 9.27543 1.20159 34.2811 9.27543 1.20159
144 2 34.356 9.24298 -2.05955 34.356 9.24298 -2.05955
145 1 35.269 7.61274 -0.390887 35.269 7.61274 -0.390887
146 2 37.1326 7.64104 1.28298 37.1326 7.64104 1.28298
147 2 37.2073 7.5846 -1.97788 37.2073 7.5846 -1.97788
148 1 38.1204 9.25944 -0.354364 38.1204 9.25944 -0.354364
149 2 39.9884 9.2784 1.31449 39.9884 9.2784 1.31449
150 2 40.0543 9.24066 -1.94687 40.0543 9.24066 -1.94687
151 1 40.9718 7.61325 -0.278111 40.9718 7.61325 -0.278111
152 2 42.8465 7.64523 1.38289 42.8465 7.64523 1.38289
153 2 42.8991 7.58162 -1.87834 42.8991 7.58162 -1.87834
154 1 43.8233 9.25988 -0.264723 43.8233 9.25988 -0.264723
155 2 45.7091 9.2839 1.38371 45.7091 9.2839 1.38371
156 2 45.7397 9.23619 -1.8781 45.7397 9.23619 -1.8781
157 1 46.675 7.61387 -0.214362 46.675 7.61387 -0.214362
158 2 48.5713 7.65036 1.42171 48.5713 7.65036 1.42171
159 2 48.581 7.57781 -1.83976 48.581 7.57781 -1.83976
160 1 49.5266 9.26033 -0.243044 49.5266 9.26033 -0.243044
161 2 51.4354 9.28924 1.37843 51.4354 9.28924 1.37843
162 2 51.42 9.23176 -1.88333 51.42 9.23176 -1.88333
163 1 1.04618 10.9068 -0.286226 1.04618 10.9068 -0.286226
164 2 2.96613 10.9268 1.32222 2.96613 10.9268 1.32222
165 2 2.92831 10.8871 -1.9396 2.92831 10.8871 -1.9396
166 1 3.8975 12.5534 -0.34003 3.8975 12.5534 -0.34003
167 2 5.82538 12.5629 1.25907 5.82538 12.5629 1.25907
168 2 5.77157 12.544 -2.00267 5.77157 12.544 -2.00267
169 1 6.74906 10.9068 -0.378123 6.74906 10.9068 -0.378123
170 2 8.68076 10.9274 1.21638 8.68076 10.9274 1.21638
171 2 8.61931 10.8862 -2.04498 8.61931 10.8862 -2.04498
172 1 9.60028 12.5533 -0.453303 9.60028 12.5533 -0.453303
173 2 11.5313 12.5617 1.14228 11.5313 12.5617 1.14228
174 2 11.4715 12.5449 -2.11928 11.4715 12.5449 -2.11928
175 1 12.452 10.9065 -0.497595 12.452 10.9065 -0.497595
176 2 14.3797 10.9241 1.10209 14.3797 10.9241 1.10209
177 2 14.3268 10.8888 -2.1594 14.3268 10.8888 -2.1594
178 1 15.3038 12.5531 -0.562173 15.3038 12.5531 -0.562173
179 2 17.2221 12.5572 1.04904 17.2221 12.5572 1.04904
180 2 17.1885 12.5489 -2.21284 17.1885 12.5489 -2.21284
181 1 18.1561 10.9062 -0.587592 18.1561 10.9062 -0.587592
182 2 20.0651 10.9188 1.03478 20.0651 10.9188 1.03478
183 2 20.0505 10.8935 -2.22714 20.0505 10.8935 -2.22714
184 1 21.0086 12.553 -0.613431 21.0086 12.553 -0.613431
185 2 22.9036 12.5516 1.02536 22.9036 12.5516 1.02536
186 2 22.917 12.5542 -2.23665 22.917 12.5542 -2.23665
187 1 23.8612 10.906 -0.60315 23.8612 10.906 -0.60315
188 2 25.7456 10.9136 1.04779 25.7456 10.9136 1.04779
189 2 25.7799 10.8984 -2.21405 25.7799 10.8984 -2.21405
190 1 26.7136 12.5528 -0.58099 26.7136 12.5528 -0.58099
191 2 28.5865 12.5469 1.08302 28.5865 12.5469 1.08302
192 2 28.6435 12.5587 -2.17854 28.6435 12.5587 -2.17854
193 1 29.5657 10.9059 -0.53725 29.5657 10.9059 -0.53725
194 2 31.4325 10.9105 1.13354 31.4325 10.9105 1.13354
195 2 31.5013 10.9013 -2.12784 31.5013 10.9013 -2.12784
196 1 32.4174 12.5527 -0.481883 32.4174 12.5527 -0.481883
197 2 34.2806 12.5452 1.19267 34.2806 12.5452 1.19267
198 2 34.3561 12.5601 -2.06859 34.3561 12.5601 -2.06859
199 1 35.269 10.906 -0.423707 35.269 10.906 -0.423707
200 2 37.1331 10.9113 1.24969 37.1331 10.9113 1.24969
201 2 37.2067 10.9006 -2.01168 37.2067 10.9006 -2.01168
202 1 38.1203 12.5527 -0.365094 38.1203 12.5527 -0.365094
203 2 39.9901 12.5478 1.30169 39.9901 12.5478 1.30169
204 2 40.0522 12.5576 -1.95996 40.0522 12.5576 -1.95996
205 1 40.9718 10.9062 -0.316222 40.9718 10.9062 -0.316222
206 2 42.8486 10.9159 1.34258 42.8486 10.9159 1.34258
207 2 42.8969 10.8966 -1.91929 42.8969 10.8966 -1.91929
208 1 43.8232 12.5529 -0.284211 43.8232 12.5529 -0.284211
209 2 45.7119 12.5536 1.36094 45.7119 12.5536 1.36094
210 2 45.7366 12.5523 -1.90128 45.7366 12.5523 -1.90128
211 1 46.6748 10.9065 -0.262562 46.6748 10.9065 -0.262562
212 2 48.5734 10.9222 1.37113 48.5734 10.9222 1.37113
213 2 48.5785 10.8912 -1.89104 48.5785 10.8912 -1.89104
214 1 49.5264 12.5532 -0.274305 49.5264 12.5532 -0.274305
215 2 51.4376 12.5597 1.34456 51.4376 12.5597 1.34456
216 2 51.4173 12.5469 -1.91766 51.4173 12.5469 -1.91766
217 1 1.04594 14.1998 -0.299156 1.04594 14.1998 -0.299156
218 2 2.96789 14.1964 1.307 2.96789 14.1964 1.307
219 2 2.92602 14.2034 -1.955 2.92602 14.2034 -1.955
220 1 3.89731 15.8465 -0.332864 3.89731 15.8465 -0.332864
221 2 5.82657 15.8324 1.26457 5.82657 15.8324 1.26457
222 2 5.77 15.8607 -1.99704 5.77 15.8607 -1.99704
223 1 6.74875 14.2 -0.397302 6.74875 14.2 -0.397302
224 2 8.68019 14.1978 1.19767 8.68019 14.1978 1.19767
225 2 8.61931 14.2022 -2.06395 8.61931 14.2022 -2.06395
226 1 9.60012 15.8468 -0.448911 9.60012 15.8468 -0.448911
227 2 11.5303 15.8322 1.14774 11.5303 15.8322 1.14774
228 2 11.4722 15.8611 -2.11376 11.4722 15.8611 -2.11376
229 1 12.4518 14.2 -0.514718 12.4518 14.2 -0.514718
230 2 14.3773 14.1952 1.08774 14.3773 14.1952 1.08774
231 2 14.3289 14.2047 -2.17399 14.3289 14.2047 -2.17399
232 1 15.3038 15.8468 -0.552642 15.3038 15.8468 -0.552642
233 2 17.2197 15.8287 1.06139 17.2197 15.8287 1.06139
234 2 17.191 15.8647 -2.20035 17.191 15.8647 -2.20035
235 1 18.1561 14.1999 -0.596138 18.1561 14.1999 -0.596138
236 2 20.0619 14.1901 1.02992 20.0619 14.1901 1.02992
237 2 20.0536 14.2096 -2.23206 20.0536 14.2096 -2.23206
238 1 21.0086 15.8467 -0.593858 21.0086 15.8467 -0.593858
239 2 22.9008 15.8235 1.04812 22.9008 15.8235 1.04812
240 2 22.9198 15.8697 -2.21355 22.9198 15.8697 -2.21355
241 1 23.8612 14.1998 -0.600605 23.8612 14.1998 -0.600605
242 2 25.7428 14.1846 1.05356 25.7428 14.1846 1.05356
243 2 25.7827 14.2148 -2.20812 25.7827 14.2148 -2.20812
244 1 26.7135 15.8464 -0.550513 26.7135 15.8464 -0.550513
245 2 28.5842 15.8185 1.11565 28.5842 15.8185 1.11565
246 2 28.6453 15.8741 -2.1454 28.6453 15.8741 -2.1454
247 1 29.5656 14.1996 -0.525318 29.5656 14.1996 -0.525318
248 2 31.431 14.1808 1.14687 31.431 14.1808 1.14687
249 2 31.5024 14.2181 -2.11426 31.5024 14.2181 -2.11426
250 1 32.4171 15.846 -0.44413 32.4171 15.846 -0.44413
251 2 34.2802 15.8161 1.23021 34.2802 15.8161 1.23021
252 2 34.3558 15.8758 -2.03055 34.3558 15.8758 -2.03055
253 1 35.2687 14.1993 -0.408526 35.2687 14.1993 -0.408526
254 2 37.1339 14.1809 1.26356 37.1339 14.1809 1.26356
255 2 37.2054 14.2177 -1.99767 37.2054 14.2177 -1.99767
256 1 38.1199 15.8457 -0.327721 38.1199 15.8457 -0.327721
257 2 39.9921 15.8178 1.33619 39.9921 15.8178 1.33619
258 2 40.0496 15.8737 -1.92508 40.0496 15.8737 -1.92508
259 1 40.9715 14.1993 -0.306232 40.9715 14.1993 -0.306232
260 2 42.8513 14.185 1.34912 42.8513 14.185 1.34912
261 2 42.8938 14.2136 -1.91277 42.8938 14.2136 -1.91277
262 1 43.8229 15.8458 -0.255135 43.8229 15.8458 -0.255135
263 2 45.7153 15.8228 1.38567 45.7153 15.8228 1.38567
264 2 45.7328 15.8689 -1.87626 45.7328 15.8689 -1.87626
265 1 46.6747 14.1995 -0.263811 46.6747 14.1995 -0.263811
266 2 48.5765 14.1913 1.36602 48.5765 14.1913 1.36602
267 2 48.575 14.2079 -1.89625 48.575 14.2079 -1.89625
268 1 49.5262 15.8461 -0.257294 49.5262 15.8461 -0.257294
269 2 51.4407 15.8286 1.3577 51.4407 15.8286 1.3577
270 2 51.4139 15.8638 -1.9043 51.4139 15.8638 -1.9043
271 1 1.04587 17.4927 -0.263497 1.04587 17.4927 -0.263497
272 2 2.9706 17.4659 1.33918 2.9706 17.4659 1.33918
273 2 2.92317 17.5196 -1.9223 2.92317 17.5196 -1.9223
274 1 3.89738 19.1392 -0.278354 3.89738 19.1392 -0.278354
275 2 5.82885 19.1034 1.31616 5.82885 19.1034 1.31616
276 2 5.76785 19.1751 -1.94469 5.76785 19.1751 -1.94469
277 1 6.74869 17.4932 -0.368594 6.74869 17.4932 -0.368594
278 2 8.68086 17.4681 1.22535 8.68086 17.4681 1.22535
279 2 8.61853 17.5181 -2.03585 8.61853 17.5181 -2.03585
280 1 9.60021 19.1398 -0.398306 9.60021 19.1398 -0.398306
281 2 11.5307 19.1045 1.19775 11.5307 19.1045 1.19775
282 2 11.4721 19.1748 -2.06311 11.4721 19.1748 -2.06311
283 1 12.4518 17.4934 -0.48552 12.4518 17.4934 -0.48552
284 2 14.3761 17.4669 1.11826 14.3761 17.4669 1.11826
285 2 14.3302 17.5197 -2.14309 14.3302 17.5197 -2.14309
286 1 15.3039 19.14 -0.499209 15.3039 19.14 -0.499209
287 2 17.2185 19.1026 1.11608 17.2185 19.1026 1.11608
288 2 17.1923 19.177 -2.14506 17.1923 19.177 -2.14506
289 1 18.1561 17.4935 -0.559837 18.1561 17.4935 -0.559837
290 2 20.0596 17.463 1.06875 20.0596 17.463 1.06875
291 2 20.0559 17.5237 -2.19275 20.0559 17.5237 -2.19275
292 1 21.0086 19.1398 -0.532509 21.0086 19.1398 -0.532509
293 2 22.8988 19.0986 1.11143 22.8988 19.0986 1.11143
294 2 22.9217 19.1807 -2.14954 22.9217 19.1807 -2.14954
295 1 23.8611 17.4932 -0.553924 23.8611 17.4932 -0.553924
296 2 25.7403 17.4579 1.10262 25.7403 17.4579 1.10262
297 2 25.7849 17.5282 -2.1584 25.7849 17.5282 -2.1584
298 1 26.7132 19.1393 -0.479461 26.7132 19.1393 -0.479461
299 2 28.5825 19.0941 1.18803 28.5825 19.0941 1.18803
300 2 28.6464 19.1841 -2.07223 28.6464 19.1841 -2.07223
301 1 29.5653 17.4927 -0.469049 29.5653 17.4927 -0.469049
302 2 31.4296 17.4539 1.20393 31.4296 17.4539 1.20393
303 2 31.503 17.5312 -2.05647 31.503 17.5312 -2.05647
304 1 32.4166 19.1385 -0.365836 32.4166 19.1385 -0.365836
305 2 34.28 19.0913 1.30789 34.28 19.0913 1.30789
306 2 34.3551 19.1856 -1.95207 34.3551 19.1856 -1.95207
307 1 35.2683 17.4921 -0.348059 35.2683 17.4921 -0.348059
308 2 37.1347 17.453 1.32225 37.1347 17.453 1.32225
309 2 37.2037 17.5312 -1.9383 37.2037 17.5312 -1.9383
310 1 38.1194 19.138 -0.248459 38.1194 19.138 -0.248459
311 2 39.994 19.0916 1.41248 39.994 19.0916 1.41248
312 2 40.047 19.1845 -1.84801 40.047 19.1845 -1.84801
313 1 40.9712 17.4919 -0.24952 40.9712 17.4919 -0.24952
314 2 42.8542 17.4558 1.40185 42.8542 17.4558 1.40185
315 2 42.8903 17.5281 -1.85942 42.8903 17.5281 -1.85942
316 1 43.8227 19.138 -0.181794 43.8227 19.138 -0.181794
317 2 45.7187 19.0949 1.45451 45.7187 19.0949 1.45451
318 2 45.7291 19.1814 -1.8066 45.7291 19.1814 -1.8066
319 1 46.6745 17.4922 -0.217009 46.6745 17.4922 -0.217009
320 2 48.5802 17.461 1.40817 48.5802 17.461 1.40817
321 2 48.5712 17.5236 -1.85351 48.5712 17.5236 -1.85351
322 1 49.5262 19.1385 -0.193771 49.5262 19.1385 -0.193771
323 2 51.4442 19.0996 1.41673 51.4442 19.0996 1.41673
324 2 51.4104 19.1777 -1.84442 51.4104 19.1777 -1.84442
325 1 1.04604 20.7849 -0.184294 1.04604 20.7849 -0.184294
326 2 2.97388 20.739 1.41432 2.97388 20.739 1.41432
327 2 2.92024 20.831 -1.84617 2.92024 20.831 -1.84617
328 1 3.89772 22.4311 -0.18513 3.89772 22.4311 -0.18513
329 2 5.83187 22.3796 1.40583 5.83187 22.3796 1.40583
330 2 5.7655 22.4828 -1.85406 5.7655 22.4828 -1.85406
331 1 6.74891 20.7856 -0.295879 6.74891 20.7856 -0.295879
332 2 8.68282 20.7417 1.29565 8.68282 20.7417 1.29565
333 2 8.61699 20.8295 -1.96468 8.61699 20.8295 -1.96468
334 1 9.60056 22.4319 -0.309383 9.60056 22.4319 -0.309383
335 2 11.5325 22.3816 1.28458 11.5325 22.3816 1.28458
336 2 11.4709 22.482 -1.97545 11.4709 22.482 -1.97545
337 1 12.452 20.7861 -0.414295 12.452 20.7861 -0.414295
338 2 14.3764 20.7421 1.18905 14.3764 20.7421 1.18905
339 2 14.3303 20.8299 -2.07157 14.3303 20.8299 -2.07157
340 1 15.3041 22.4323 -0.410357 15.3041 22.4323 -0.410357
341 2 17.2188 22.3817 1.20444 17.2188 22.3817 1.20444
342 2 17.1923 22.4824 -2.05604 17.1923 22.4824 -2.05604
343 1 18.1562 20.7862 -0.484566 18.1562 20.7862 -0.484566
344 2 20.0586 20.74 1.14496 20.0586 20.74 1.14496
345 2 20.057 20.832 -2.11585 20.057 20.832 -2.11585
346 1 21.0086 22.432 -0.439395 21.0086 22.432 -0.439395
347 2 22.898 22.3796 1.20503 22.898 22.3796 1.20503
348 2 22.9222 22.4839 -2.05535 22.9222 22.4839 -2.05535
349 1 23.861 20.7858 -0.470917 23.861 20.7858 -0.470917
350 2 25.7388 20.7362 1.18685 25.7388 20.7362 1.18685
351 2 25.7859 20.8348 -2.07345 25.7859 20.8348 -2.07345
352 1 26.7129 22.4312 -0.379693 26.7129 22.4312 -0.379693
353 2 28.5815 22.3764 1.28817 28.5815 22.3764 1.28817
354 2 28.6464 22.4856 -1.97152 28.6464 22.4856 -1.97152
355 1 29.5648 20.7849 -0.377988 29.5648 20.7849 -0.377988
356 2 31.4287 20.7326 1.29518 31.4287 20.7326 1.29518
357 2 31.5029 20.8368 -1.96447 31.5029 20.8368 -1.96447
358 1 32.416 22.4302 -0.260264 32.416 22.4302 -0.260264
359 2 34.2799 22.3737 1.4127 34.2799 22.3737 1.4127
360 2 34.354 22.4865 -1.84668 34.354 22.4865 -1.84668
361 1 35.2677 20.7841 -0.252541 35.2677 20.7841 -0.252541
362 2 37.1354 20.7309 1.41602 37.1354 20.7309 1.41602
363 2 37.2019 20.8372 -1.84377 37.2019 20.8372 -1.84377
364 1 38.1189 22.4295 -0.140731 38.1189 22.4295 -0.140731
365 2 39.9953 22.3726 1.51787 39.9953 22.3726 1.51787
366 2 40.0447 22.4865 -1.74198 40.0447 22.4865 -1.74198
367 1 40.9708 20.7837 -0.155423 40.9708 20.7837 -0.155423
368 2 42.8567 20.7319 1.49236 42.8567 20.7319 1.49236
369 2 42.8873 20.8359 -1.76808 42.8873 20.8359 -1.76808
370 1 43.8225 22.4295 -0.0764211 43.8225 22.4295 -0.0764211
371 2 45.7214 22.3737 1.55624 45.7214 22.3737 1.55624
372 2 45.7262 22.4857 -1.70406 45.7262 22.4857 -1.70406
373 1 46.6745 20.7841 -0.12938 46.6745 20.7841 -0.12938
374 2 48.5837 20.7351 1.4913 48.5837 20.7351 1.4913
375 2 48.5677 20.8335 -1.76943 48.5677 20.8335 -1.76943
376 1 49.5264 22.4302 -0.0940555 49.5264 22.4302 -0.0940555
377 2 51.4476 22.3764 1.51229 51.4476 22.3764 1.51229
378 2 51.4074 22.4843 -1.74791 51.4074 22.4843 -1.74791
379 1 1.04641 24.0762 -0.0750521 1.04641 24.0762 -0.0750521
380 2 2.97716 24.0194 1.51989 2.97716 24.0194 1.51989
381 2 2.91779 24.1334 -1.73977 2.91779 24.1334 -1.73977
382 1 3.89827 25.7223 -0.0695872 3.89827 25.7223 -0.0695872
383 2 5.835 25.6643 1.51818 5.835 25.6643 1.51818
384 2 5.76347 25.7806 -1.74114 5.76347 25.7806 -1.74114
385 1 6.7494 24.0772 -0.191309 6.7494 24.0772 -0.191309
386 2 8.68568 24.022 1.39709 8.68568 24.022 1.39709
387 2 8.61503 24.1326 -1.86245 8.61503 24.1326 -1.86245
388 1 9.6011 25.7233 -0.197318 9.6011 25.7233 -0.197318
389 2 11.5353 25.6667 1.39377 11.5353 25.6667 1.39377
390 2 11.469 25.7799 -1.86578 11.469 25.7799 -1.86578
391 1 12.4524 24.0779 -0.312653 12.4524 24.0779 -0.312653
392 2 14.3782 24.0237 1.28874 14.3782 24.0237 1.28874
393 2 14.3291 24.1319 -1.97126 14.3291 24.1319 -1.97126
394 1 15.3044 25.7238 -0.300799 15.3044 25.7238 -0.300799
395 2 17.2207 25.6685 1.31202 17.2207 25.6685 1.31202
396 2 17.1908 25.7787 -1.94817 17.1908 25.7787 -1.94817
397 1 18.1564 24.078 -0.38256 18.1564 24.078 -0.38256
398 2 20.0591 24.0237 1.24626 20.0591 24.0237 1.24626
399 2 20.0565 24.1319 -2.01411 20.0565 24.1319 -2.01411
400 1 21.0086 25.7235 -0.329891 21.0086 25.7235 -0.329891
401 2 22.8988 25.6687 1.31351 22.8988 25.6687 1.31351
402 2 22.9211 25.7778 -1.94679 22.9211 25.7778 -1.94679
403 1 23.8608 24.0774 -0.365299 23.8608 24.0774 -0.365299
404 2 25.7385 24.022 1.29237 25.7385 24.022 1.29237
405 2 25.7855 24.1324 -1.96759 25.7855 24.1324 -1.96759
406 1 26.7125 25.7226 -0.267947 26.7125 25.7226 -0.267947
407 2 28.5817 25.6675 1.3993 28.5817 25.6675 1.3993
408 2 28.6453 25.7772 -1.86042 28.6453 25.7772 -1.86042
409 1 29.5643 24.0764 -0.267482 29.5643 24.0764 -0.267482
410 2 31.4284 24.0195 1.40533 31.4284 24.0195 1.40533
411 2 31.502 24.1329 -1.85404 31.502 24.1329 -1.85404
412 1 32.4154 25.7215 -0.145406 32.4154 25.7215 -0.145406
413 2 34.28 25.6654 1.52687 34.28 25.6654 1.52687
414 2 34.3527 25.7774 -1.73258 34.3527 25.7774 -1.73258
415 1 35.2671 24.0754 -0.13827 35.2671 24.0754 -0.13827
416 2 37.1359 24.0173 1.52905 37.1359 24.0173 1.52905
417 2 37.2003 24.1335 -1.73043 37.2003 24.1335 -1.73043
418 1 38.1184 25.7207 -0.0231076 38.1184 25.7207 -0.0231076
419 2 39.996 25.6633 1.6343 39.996 25.6633 1.6343
420 2 40.0432 25.7784 -1.62549 40.0432 25.7784 -1.62549
421 1 40.9704 24.075 -0.0400597 40.9704 24.075 -0.0400597
422 2 42.8584 24.0164 1.60535 42.8584 24.0164 1.60535
423 2 42.8851 24.1339 -1.65461 42.8851 24.1339 -1.65461
424 1 43.8223 25.7207 0.0425998 43.8223 25.7207 0.0425998
425 2 45.7231 25.6621 1.67325 45.7231 25.6621 1.67325
426 2 45.7245 25.7797 -1.58679 45.7245 25.7797 -1.58679
427 1 46.6745 24.0753 -0.0159303 46.6745 24.0753 -0.0159303
428 2 48.5865 24.0172 1.60142 48.5865 24.0172 1.60142
429 2 48.5652 24.134 -1.65862 48.5652 24.134 -1.65862
430 1 49.5266 25.7213 0.024229 49.5266 25.7213 0.024229
431 2 51.4503 25.6625 1.62772 51.4503 25.6625 1.62772
432 2 51.4055 25.7806 -1.632 51.4055 25.7806 -1.632
433 1 1.04688 27.3674 0.0444963 1.04688 27.3674 0.0444963
434 2 2.97971 27.3099 1.6371 2.97971 27.3099 1.6371
435 2 2.91632 27.4253 -1.62239 2.91632 27.4253 -1.62239
436 1 3.89889 29.0136 0.0472795 3.89889 29.0136 0.0472795
437 2 5.83747 28.9596 1.63308 5.83747 28.9596 1.63308
438 2 5.76228 29.068 -1.6264 5.76228 29.068 -1.6264
439 1 6.75004 27.3684 -0.0734756 6.75004 27.3684 -0.0734756
440 2 8.68874 27.3116 1.51204 8.68874 27.3116 1.51204
441 2 8.61318 27.4255 -1.74727 8.61318 27.4255 -1.74727
442 1 9.60175 29.0145 -0.0819617 9.60175 29.0145 -0.0819617
443 2 11.5384 28.9616 1.50633 11.5384 28.9616 1.50633
444 2 11.467 29.0677 -1.75336 11.467 29.0677 -1.75336
445 1 12.4529 27.3692 -0.198013 12.4529 27.3692 -0.198013
446 2 14.381 27.3141 1.40058 14.381 27.3141 1.40058
447 2 14.327 27.4242 -1.85933 14.327 27.4242 -1.85933
448 1 15.3048 29.0151 -0.189274 15.3048 29.0151 -0.189274
449 2 17.2236 28.9645 1.42065 17.2236 28.9645 1.42065
450 2 17.1884 29.0654 -1.83984 17.1884 29.0654 -1.83984
451 1 18.1565 27.3694 -0.270872 18.1565 27.3694 -0.270872
452 2 20.0611 27.3162 1.35584 20.0611 27.3162 1.35584
453 2 20.0546 27.4222 -1.90466 20.0546 27.4222 -1.90466
454 1 21.0086 29.0148 -0.22248 21.0086 29.0148 -0.22248
455 2 22.901 28.967 1.41857 22.901 28.967 1.41857
456 2 22.9186 29.0623 -1.84224 22.9186 29.0623 -1.84224
457 1 23.8605 27.3688 -0.254799 23.8605 27.3688 -0.254799
458 2 25.7396 27.3168 1.4015 25.7396 27.3168 1.4015
459 2 25.7838 27.4202 -1.85878 25.7838 27.4202 -1.85878
460 1 26.7121 29.014 -0.163221 26.7121 29.014 -0.163221
461 2 28.583 28.968 1.5025 28.583 28.968 1.5025
462 2 28.6433 29.0597 -1.75788 28.6433 29.0597 -1.75788
463 1 29.5638 27.3677 -0.156324 29.5638 27.3677 -0.156324
464 2 31.4288 27.316 1.51567 31.4288 27.316 1.51567
465 2 31.5006 27.4191 -1.74411 31.5006 27.4191 -1.74411
466 1 32.4149 29.013 -0.0409587 32.4149 29.013 -0.0409587
467 2 34.2803 28.9671 1.63075 34.2803 28.9671 1.63075
468 2 34.3514 29.0589 -1.62936 34.3514 29.0589 -1.62936
469 1 35.2665 27.3667 -0.0249147 35.2665 27.3667 -0.0249147
470 2 37.1361 27.3139 1.64189 37.1361 27.3139 1.64189
471 2 37.1992 27.4197 -1.61794 37.1992 27.4197 -1.61794
472 1 38.1179 29.0124 0.0839816 38.1179 29.0124 0.0839816
473 2 39.9959 28.9645 1.74148 39.9959 28.9645 1.74148
474 2 40.0426 29.0605 -1.5189 40.0426 29.0605 -1.5189
475 1 40.9701 27.3663 0.0764189 40.9701 27.3663 0.0764189
476 2 42.8589 27.3114 1.72111 42.8589 27.3114 1.72111
477 2 42.8841 27.4216 -1.53906 42.8841 27.4216 -1.53906
478 1 43.8222 29.0123 0.154144 43.8222 29.0123 0.154144
479 2 45.7234 28.9615 1.78471 45.7234 28.9615 1.78471
480 2 45.7241 29.0635 -1.4758 45.7241 29.0635 -1.4758
481 1 46.6745 27.3666 0.10309 46.6745 27.3666 0.10309
482 2 48.588 27.3099 1.71896 48.588 27.3099 1.71896
483 2 48.564 27.4238 -1.54109 48.564 27.4238 -1.54109
484 1 49.5269 29.0127 0.139609 49.5269 29.0127 0.139609
485 2 51.4517 28.9596 1.74219 51.4517 28.9596 1.74219
486 2 51.4049 29.0663 -1.51784 51.4049 29.0663 -1.51784
487 1 1.04732 30.6591 0.152578 1.04732 30.6591 0.152578
488 2 2.98096 30.6114 1.74471 2.98096 30.6114 1.74471
489 2 2.91611 30.7073 -1.51535 2.91611 30.7073 -1.51535
490 1 3.89942 32.3057 0.144361 3.89942 32.3057 0.144361
491 2 5.83872 32.2653 1.72982 5.83872 32.2653 1.72982
492 2 5.76218 32.3465 -1.5304 5.76218 32.3465 -1.5304
493 1 6.75071 30.66 0.036361 6.75071 30.66 0.036361
494 2 8.69125 30.6117 1.62002 8.69125 30.6117 1.62002
495 2 8.61195 30.7085 -1.63976 8.61195 30.7085 -1.63976
496 1 9.60238 32.3064 0.0161299 9.60238 32.3064 0.0161299
497 2 11.541 32.2663 1.60233 11.541 32.2663 1.60233
498 2 11.4654 32.3467 -1.65801 11.4654 32.3467 -1.65801
499 1 12.4534 30.6607 -0.0904738 12.4534 30.6607 -0.0904738
500 2 14.3842 30.6143 1.50518 14.3842 30.6143 1.50518
501 2 14.3247 30.7071 -1.75519 14.3247 30.7071 -1.75519
502 1 15.3052 32.3068 -0.095187 15.3052 32.3068 -0.095187
503 2 17.227 32.2697 1.51146 17.227 32.2697 1.51146
504 2 17.1855 32.3438 -1.74971 17.1855 32.3438 -1.74971
505 1 18.1567 30.6608 -0.16859 18.1567 30.6608 -0.16859
506 2 20.0642 30.6179 1.455 20.0642 30.6179 1.455
507 2 20.0517 30.7036 -1.80613 20.0517 30.7036 -1.80613
508 1 21.0086 32.3067 -0.135586 21.0086 32.3067 -0.135586
509 2 22.9042 32.274 1.50212 22.9042 32.274 1.50212
510 2 22.9153 32.3391 -1.75951 22.9153 32.3391 -1.75951
511 1 23.8604 30.6604 -0.158229 23.8604 30.6604 -0.158229
512 2 25.7419 30.6208 1.49558 25.7419 30.6208 1.49558
513 2 25.7811 30.6996 -1.76551 25.7811 30.6996 -1.76551
514 1 26.7119 32.3061 -0.0834373 26.7119 32.3061 -0.0834373
515 2 28.5852 32.2771 1.57997 28.5852 32.2771 1.57997
516 2 28.6406 32.3348 -1.68131 28.6406 32.3348 -1.68131
517 1 29.5634 30.6595 -0.0635287 29.5634 30.6595 -0.0635287
518 2 31.43 30.6219 1.6072 31.43 30.6219 1.6072
519 2 31.4987 30.697 -1.65343 31.4987 30.697 -1.65343
520 1 32.4146 32.3054 0.0351795 32.4146 32.3054 0.0351795
521 2 34.281 32.2775 1.70634 34.281 32.2775 1.70634
522 2 34.3502 32.3333 -1.55462 34.3502 32.3333 -1.55462
523 1 35.2661 30.6588 0.0679906 35.2661 30.6588 0.0679906
524 2 37.136 30.6203 1.73493 37.136 30.6203 1.73493
525 2 37.1985 30.6974 -1.5257 37.1985 30.6974 -1.5257
526 1 38.1176 32.305 0.161983 38.1176 32.305 0.161983
527 2 39.9952 32.275 1.82054 39.9952 32.275 1.82054
528 2 40.0429 32.3352 -1.44064 40.0429 32.3352 -1.44064
529 1 40.9698 30.6584 0.173576 40.9698 30.6584 0.173576
530 2 42.8584 30.6169 1.81912 42.8584 30.6169 1.81912
531 2 42.8842 30.7002 -1.44179 42.8842 30.7002 -1.44179
532 1 43.822 32.3049 0.238439 43.822 32.3049 0.238439
533 2 45.7224 32.2709 1.87061 45.7224 32.2709 1.87061
534 2 45.725 32.3391 -1.39072 45.725 32.3391 -1.39072
535 1 46.6746 30.6585 0.206275 46.6746 30.6585 0.206275
536 2 48.5881 30.6135 1.82269 48.5881 30.6135 1.82269
537 2 48.5643 30.7041 -1.43804 48.5643 30.7041 -1.43804
538 1 49.5271 32.3051 0.231291 49.5271 32.3051 0.231291
539 2 51.4515 32.2671 1.83494 51.4515 32.2671 1.83494