ITEM: TIMESTEP
8000
ITEM: NUMBER OF ATOMS
810
ITEM: BOX BOUNDS pp pp pp
8.5511775950019597e-01 5.2162487240499665e+01
8.3212293727292486e-01 5.0184092062726499e+01
-1.0000000000000000e+01 1.0000000000000000e+01
ITEM: ATOMS id type x y z xu yu zu
1 1 1.06288 1.03864 0.236461 1.06288 1.03864 0.236461
2 2 3.00274 0.934267 1.81784 3.00274 0.934267 1.81784
3 2 2.92487 1.14195 -1.43667 2.92487 1.14195 -1.43667
4 1 3.91499 2.68217 0.273155 3.91499 2.68217 0.273155
5 2 5.87902 2.59141 1.82551 5.87902 2.59141 1.82551
6 2 5.75126 2.77306 -1.42896 5.75126 2.77306 -1.42896
7 1 6.7643 1.03891 0.0689613 6.7643 1.03891 0.0689613
8 2 8.73831 0.942124 1.60795 8.73831 0.942124 1.60795
9 2 8.58895 1.1364 -1.645 8.58895 1.1364 -1.645
10 1 9.61426 2.68424 0.0364461 9.61426 2.68424 0.0364461
11 2 11.5951 2.60053 1.56758 11.5951 2.60053 1.56758
12 2 11.4312 2.76935 -1.68616 11.4312 2.76935 -1.68616
13 1 12.462 1.04217 -0.192593 12.462 1.04217 -0.192593
14 2 14.4339 50.3042 1.34959 14.4339 0.952205 1.34959
15 2 14.2885 1.13382 -1.90438 14.2885 1.13382 -1.90438
16 1 15.3116 2.68809 -0.227688 15.3116 2.68809 -0.227688
17 2 17.2706 2.60711 1.33154 17.2706 2.60711 1.33154
18 2 17.1522 2.77106 -1.92456 17.1522 2.77106 -1.92456
19 1 18.1612 1.0463 -0.413931 18.1612 1.0463 -0.413931
20 2 20.0974 50.3108 1.17334 20.0974 0.95879 1.17334
21 2 20.0264 1.13589 -2.08338 20.0264 1.13589 -2.08338
22 1 21.0126 2.69196 -0.386023 21.0126 2.69196 -0.386023
23 2 22.924 2.60726 1.23124 22.924 2.60726 1.23124
24 2 22.9031 2.77888 -2.02656 22.9031 2.77888 -2.02656
25 1 23.8643 1.04978 -0.490377 23.8643 1.04978 -0.490377
26 2 25.7504 0.958847 1.15612 25.7504 0.958847 1.15612
27 2 25.7805 1.1428 -2.10081 25.7805 1.1428 -2.10081
28 1 26.7157 2.69467 -0.37048 26.7157 2.69467 -0.37048
29 2 28.5771 2.60103 1.30367 28.5771 2.60103 1.30367
30 2 28.6552 2.79004 -1.95221 28.6552 2.79004 -1.95221
31 1 29.5672 1.05161 -0.396914 29.5672 1.05161 -0.396914
32 2 31.411 0.953297 1.29636 31.411 0.953297 1.29636
33 2 31.5235 1.15105 -1.9579 31.5235 1.15105 -1.9579
34 1 32.4163 2.69501 -0.197826 32.4163 2.69501 -0.197826
35 2 34.2468 2.59229 1.50952 34.2468 2.59229 1.50952
36 2 34.3847 2.79791 -1.74327 34.3847 2.79791 -1.74327
37 1 35.2666 1.0507 -0.180616 35.2666 1.0507 -0.180616
38 2 37.0935 0.944928 1.53024 37.0935 0.944928 1.53024
39 2 37.2383 1.15576 -1.72189 37.2383 1.15576 -1.72189
40 1 38.1143 2.69228 0.0532353 38.1143 2.69228 0.0532353
41 2 39.946 2.58515 1.75898 39.946 2.58515 1.75898
42 2 40.082 2.79782 -1.49334 40.082 2.79782 -1.49334
43 1 40.9649 1.0469 0.0648532 40.9649 1.0469 0.0648532
44 2 42.8085 0.936927 1.7573 42.8085 0.936927 1.7573
45 2 42.9216 1.15458 -1.49561 42.9216 1.15458 -1.49561
46 1 43.8143 2.68756 0.274149 43.8143 2.68756 0.274149
47 2 45.6798 2.58231 1.94297 45.6798 2.58231 1.94297
48 2 45.751 2.79053 -1.31159 45.751 2.79053 -1.31159
49 1 46.6663 1.04193 0.231047 46.6663 1.04193 0.231047
50 2 48.5541 0.932609 1.87394 48.5541 0.932609 1.87394
51 2 48.5811 1.14882 -1.38085 48.5811 1.14882 -1.38085
52 1 49.5183 2.68342 0.364024 49.5183 2.68342 0.364024
53 2 51.4359 2.58457 1.97309 51.4359 2.58457 1.97309
54 2 51.4041 2.7808 -1.28279 51.4041 2.7808 -1.28279
55 1 1.06382 4.32689 0.435433 1.06382 4.32689 0.435433
56 2 3.01058 4.24547 2.01028 3.01058 4.24547 2.01028
57 2 2.91945 4.40792 -1.24628 2.91945 4.40792 -1.24628
58 1 3.91613 5.97242 0.437931 3.91613 5.97242 0.437931
59 2 5.88673 5.91207 1.98386 5.88673 5.91207 1.98386
60 2 5.74582 6.03312 -1.27277 5.74582 6.03312 -1.27277
61 1 6.76598 4.32755 0.253186 6.76598 4.32755 0.253186
62 2 8.74616 4.25409 1.78588 8.74616 4.25409 1.78588
63 2 8.58419 4.40191 -1.46884 8.58419 4.40191 -1.46884
64 1 9.61537 5.97416 0.186353 9.61537 5.97416 0.186353
65 2 11.6004 5.91873 1.71344 11.6004 5.91873 1.71344
66 2 11.4276 6.03074 -1.5423 11.4276 6.03074 -1.5423
67 1 12.4633 4.33051 -0.0214179 12.4633 4.33051 -0.0214179
68 2 14.4394 4.26061 1.5166 14.4394 4.26061 1.5166
69 2 14.2851 4.40209 -1.73904 14.2851 4.40209 -1.73904
70 1 15.3122 5.97714 -0.0843917 15.3122 5.97714 -0.0843917
71 2 17.2719 5.91972 1.47494 17.2719 5.91972 1.47494
72 2 17.1515 6.03627 -1.78326 17.1515 6.03627 -1.78326
73 1 18.1618 4.33422 -0.247931 18.1618 4.33422 -0.247931
74 2 20.0986 4.26107 1.33919 20.0986 4.26107 1.33919
75 2 20.0257 4.40947 -1.91909 20.0257 4.40947 -1.91909
76 1 21.0125 5.9803 -0.236009 21.0125 5.9803 -0.236009
77 2 22.9205 5.91313 1.38587 22.9205 5.91313 1.38587
78 2 22.9057 6.0495 -1.87379 22.9057 6.0495 -1.87379
79 1 23.8639 4.33743 -0.316848 23.8639 4.33743 -0.316848
80 2 25.7473 4.25436 1.33308 25.7473 4.25436 1.33308
81 2 25.7821 4.42253 -1.92482 25.7821 4.42253 -1.92482
82 1 26.7145 5.98253 -0.200548 26.7145 5.98253 -0.200548
83 2 28.5709 5.90144 1.47974 28.5709 5.90144 1.47974
84 2 28.6583 6.06508 -1.7774 28.6583 6.06508 -1.7774
85 1 29.5656 4.33888 -0.205756 29.5656 4.33888 -0.205756
86 2 31.4062 4.24418 1.49109 31.4062 4.24418 1.49109
87 2 31.5244 4.43451 -1.7635 31.5244 4.43451 -1.7635
88 1 32.4138 5.98242 -0.00526799 32.4138 5.98242 -0.00526799
89 2 34.2422 5.89139 1.70511 34.2422 5.89139 1.70511
90 2 34.3841 6.07346 -1.54891 34.3841 6.07346 -1.54891
91 1 35.264 4.33746 0.0275619 35.264 4.33746 0.0275619
92 2 37.0908 4.23633 1.73907 37.0908 4.23633 1.73907
93 2 37.236 4.43781 -1.51358 37.236 4.43781 -1.51358
94 1 38.1116 5.97964 0.257388 38.1116 5.97964 0.257388
95 2 39.9464 5.88854 1.961 39.9464 5.88854 1.961
96 2 40.0769 6.06948 -1.29333 40.0769 6.06948 -1.29333
97 1 40.9626 4.33353 0.280386 40.9626 4.33353 0.280386
98 2 42.8101 4.23428 1.96977 42.8101 4.23428 1.96977
99 2 42.9165 4.43092 -1.28451 42.9165 4.43092 -1.28451
100 1 43.8128 5.97572 0.473575 43.8128 5.97572 0.473575
101 2 45.6853 5.89348 2.13625 45.6853 5.89348 2.13625
102 2 45.7436 6.05654 -1.12093 45.7436 6.05654 -1.12093
103 1 46.6656 4.32922 0.44215 46.6656 4.32922 0.44215
104 2 48.5598 4.23806 2.07943 48.5598 4.23806 2.07943
105 2 48.5752 4.4188 -1.17736 48.5752 4.4188 -1.17736
106 1 49.5185 5.9729 0.547357 49.5185 5.9729 0.547357
107 2 51.444 5.9027 2.14905 51.444 5.9027 2.14905
108 2 51.3971 6.04242 -1.10937 51.3971 6.04242 -1.10937
109 1 1.06443 7.6187 0.577228 1.06443 7.6187 0.577228
110 2 3.01881 7.57298 2.1445 3.01881 7.57298 2.1445
111 2 2.91259 7.66436 -1.11425 2.91259 7.66436 -1.11425
112 1 3.91651 9.26585 0.530709 3.91651 9.26585 0.530709
113 2 5.89276 9.24482 2.07069 5.89276 9.24482 2.07069
114 2 5.74026 9.28694 -1.18735 5.74026 9.28694 -1.18735
115 1 6.76672 7.61931 0.375991 6.76672 7.61931 0.375991
116 2 8.7516 7.58058 1.90412 8.7516 7.58058 1.90412
117 2 8.57992 7.65861 -1.3525 8.57992 7.65861 -1.3525
118 1 9.61538 9.26658 0.26548 9.61538 9.26658 0.26548
119 2 11.6021 9.24764 1.79135 11.6021 9.24764 1.79135
120 2 11.4256 9.28597 -1.46593 11.4256 9.28597 -1.46593
121 1 12.4637 7.62118 0.0920901 12.4637 7.62118 0.0920901
122 2 14.4408 7.58229 1.62983 14.4408 7.58229 1.62983
123 2 14.284 7.66121 -1.62788 14.284 7.66121 -1.62788
124 1 15.3119 9.26806 -0.00458718 15.3119 9.26806 -0.00458718
125 2 17.2689 9.24291 1.55905 17.2689 9.24291 1.55905
126 2 17.1539 9.29433 -1.70112 17.1539 9.29433 -1.70112
127 1 18.1617 7.62373 -0.130106 18.1617 7.62373 -0.130106
128 2 20.0952 7.57644 1.46193 20.0952 7.57644 1.46193
129 2 20.0286 7.67272 -1.79858 20.0286 7.67272 -1.79858
130 1 21.012 9.27018 -0.138894 21.012 9.27018 -0.138894
131 2 22.9131 9.23097 1.49197 22.9131 9.23097 1.49197
132 2 22.9117 9.311 -1.76972 22.9117 9.311 -1.76972
133 1 23.8632 7.62622 -0.179178 23.8632 7.62622 -0.179178
134 2 25.7401 7.56405 1.4789 25.7401 7.56405 1.4789
135 2 25.7871 7.69006 -1.78089 25.7871 7.69006 -1.78089
136 1 26.7131 9.27193 -0.0733839 26.7131 9.27193 -0.0733839
137 2 28.5621 9.21619 1.61601 28.5621 9.21619 1.61601
138 2 28.6634 9.32877 -1.64296 28.6634 9.32877 -1.64296
139 1 29.5636 7.62723 -0.0403845 29.5636 7.62723 -0.0403845
140 2 31.3994 7.55127 1.66263 31.3994 7.55127 1.66263
141 2 31.5265 7.70384 -1.59364 31.5265 7.70384 -1.59364
142 1 32.4112 9.2718 0.149061 32.4112 9.2718 0.149061
143 2 34.2375 9.20685 1.86294 34.2375 9.20685 1.86294
144 2 34.3834 9.33668 -1.39337 34.3834 9.33668 -1.39337
145 1 35.2612 7.62577 0.211928 35.2612 7.62577 0.211928
146 2 37.089 7.54574 1.92356 37.089 7.54574 1.92356
147 2 37.2324 7.70515 -1.33142 37.2324 7.70515 -1.33142
148 1 38.109 9.26974 0.419018 38.109 9.26974 0.419018
149 2 39.9491 9.20885 2.1185 39.9491 9.20885 2.1185
150 2 40.0699 9.32985 -1.13886 40.0699 9.32985 -1.13886
151 1 40.9605 7.62264 0.463911 40.9605 7.62264 0.463911
152 2 42.8148 7.55031 2.14746 42.8148 7.55031 2.14746
153 2 42.9085 7.69384 -1.10982 42.9085 7.69384 -1.10982
154 1 43.8117 9.26733 0.619322 43.8117 9.26733 0.619322
155 2 45.6938 9.22057 2.2729 45.6938 9.22057 2.2729
156 2 45.734 9.31342 -0.987161 45.734 9.31342 -0.987161
157 1 46.6651 7.61984 0.60764 46.6651 7.61984 0.60764
158 2 48.5683 7.56144 2.23639 48.5683 7.56144 2.23639
159 2 48.5665 7.67751 -1.0232 48.5665 7.67751 -1.0232
160 1 49.5187 9.26597 0.665266 49.5187 9.26597 0.665266
161 2 51.4532 9.23489 2.2576 51.4532 9.23489 2.2576
162 2 51.3884 9.2968 -1.00279 51.3884 9.2968 -1.00279
163 1 1.06459 10.9133 0.640213 1.06459 10.9133 0.640213
164 2 3.02617 10.9096 2.19929 3.02617 10.9096 2.19929
165 2 2.90521 10.9168 -1.06016 2.90521 10.9168 -1.06016
166 1 3.916 12.5607 0.538246 3.916 12.5607 0.538246
167 2 5.89625 12.5814 2.0731 5.89625 12.5814 2.0731
168 2 5.73524 12.5394 -1.18454 5.73524 12.5394 -1.18454
169 1 6.76638 10.9132 0.41876 6.76638 10.9132 0.41876
170 2 8.75383 10.9145 1.94412 8.75383 10.9145 1.94412
171 2 8.5767 10.9117 -1.31314 8.5767 10.9117 -1.31314
172 1 9.61428 12.5599 0.262597 9.61428 12.5599 0.262597
173 2 11.6 12.5798 1.7898 11.6 12.5798 1.7898
174 2 11.4256 12.5398 -1.46759 11.4256 12.5398 -1.46759
175 1 12.463 10.9135 0.130847 12.463 10.9135 0.130847
176 2 14.4382 10.9111 1.6716 14.4382 10.9111 1.6716
177 2 14.2854 10.9162 -1.5873 14.2854 10.9162 -1.5873
178 1 15.311 12.5598 0.00036762 15.311 12.5598 0.00036762
179 2 17.2623 12.5706 1.57113 17.2623 12.5706 1.57113
180 2 17.1589 12.5496 -1.68979 17.1589 12.5496 -1.68979
181 1 18.1611 10.9147 -0.0783445 18.1611 10.9147 -0.0783445
182 2 20.0881 10.9004 1.52222 20.0881 10.9004 1.52222
183 2 20.0345 10.9301 -1.73991 20.0345 10.9301 -1.73991
184 1 21.0113 12.5611 -0.109272 21.0113 12.5611 -0.109272
185 2 22.9032 12.5564 1.5327 22.9032 12.5564 1.5327
186 2 22.9199 12.5672 -1.72995 22.9199 12.5672 -1.72995
187 1 23.8623 10.9165 -0.0985971 23.8623 10.9165 -0.0985971
188 2 25.7303 10.8852 1.57038 25.7303 10.8852 1.57038
189 2 25.7944 10.9492 -1.691 25.7944 10.9492 -1.691
190 1 26.7117 12.5629 -0.00897805 26.7117 12.5629 -0.00897805
191 2 28.5523 12.5418 1.6904 28.5523 12.5418 1.6904
192 2 28.6697 12.585 -1.56971 28.6697 12.585 -1.56971
193 1 29.5615 10.9176 0.0732923 29.5615 10.9176 0.0732923
194 2 31.3917 10.8724 1.78347 31.3917 10.8724 1.78347
195 2 31.5295 10.9632 -1.47468 31.5295 10.9632 -1.47468
196 1 32.4088 12.5635 0.240877 32.4088 12.5635 0.240877
197 2 34.2333 12.5347 1.95775 34.2333 12.5347 1.95775
198 2 34.3828 12.5923 -1.30043 34.3828 12.5923 -1.30043
199 1 35.2585 10.9168 0.343445 35.2585 10.9168 0.343445
200 2 37.0886 10.87 2.05409 37.0886 10.87 2.05409
201 2 37.228 10.9632 -1.20355 37.228 10.9632 -1.20355
202 1 38.1071 12.5628 0.513571 38.1071 12.5628 0.513571
203 2 39.9536 12.5405 2.20711 39.9536 12.5405 2.20711
204 2 40.0624 12.5846 -1.05253 40.0624 12.5846 -1.05253
205 1 40.9589 10.9151 0.58681 40.9589 10.9151 0.58681
206 2 42.822 10.88 2.262 42.822 10.88 2.262
207 2 42.8991 10.9496 -0.998012 42.8991 10.9496 -0.998012
208 1 43.8111 12.5618 0.690249 43.8111 12.5618 0.690249
209 2 45.7038 12.5562 2.33249 45.7038 12.5562 2.33249
210 2 45.7234 12.5669 -0.928994 45.7234 12.5669 -0.928994
211 1 46.6649 10.9138 0.702096 46.6649 10.9138 0.702096
212 2 48.5784 10.8962 2.31994 48.5784 10.8962 2.31994
213 2 48.5565 10.9311 -0.941361 48.5565 10.9311 -0.941361
214 1 49.5187 12.5613 0.70099 49.5187 12.5613 0.70099
215 2 51.4623 12.5728 2.28267 51.4623 12.5728 2.28267
216 2 51.3792 12.5492 -0.977791 51.3792 12.5492 -0.977791
217 1 1.06412 14.2085 0.616585 1.06412 14.2085 0.616585
218 2 3.03169 14.2461 2.16757 3.03169 14.2461 2.16757
219 2 2.89804 14.17 -1.09054 2.89804 14.17 -1.09054
220 1 3.91455 15.8545 0.461164 3.91455 15.8545 0.461164
221 2 5.89681 15.9129 1.99231 5.89681 15.9129 1.99231
222 2 5.73126 15.7947 -1.26328 5.73126 15.7947 -1.26328
223 1 6.76498 14.2071 0.376251 6.76498 14.2071 0.376251
224 2 8.7526 14.2476 1.90078 8.7526 14.2476 1.90078
225 2 8.57494 14.1657 -1.35545 8.57494 14.1657 -1.35545
226 1 9.61231 15.8522 0.179499 9.61231 15.8522 0.179499
227 2 11.5946 15.9074 1.71026 11.5946 15.9074 1.71026
228 2 11.4274 15.7961 -1.54586 11.4274 15.7961 -1.54586
229 1 12.4615 14.2057 0.09014 12.4615 14.2057 0.09014
230 2 14.4322 14.2399 1.63629 14.4322 14.2399 1.63629
231 2 14.2889 14.1713 -1.62233 14.2889 14.1713 -1.62233
232 1 15.3096 15.8508 -0.0693592 15.3096 15.8508 -0.0693592
233 2 17.2537 15.8962 1.50978 17.2537 15.8962 1.50978
234 2 17.1654 15.806 -1.75038 17.1654 15.806 -1.75038
235 1 18.1602 14.2058 -0.0999012 18.1602 14.2058 -0.0999012
236 2 20.0788 14.2273 1.51069 20.0788 14.2273 1.51069
237 2 20.0422 14.1854 -1.75154 20.0422 14.1854 -1.75154
238 1 21.0106 15.8519 -0.15204 21.0106 15.8519 -0.15204
239 2 22.893 15.8834 1.50072 22.893 15.8834 1.50072
240 2 22.9288 15.8218 -1.76118 22.9288 15.8218 -1.76118
241 1 23.8614 14.2077 -0.0879845 23.8614 14.2077 -0.0879845
242 2 25.7197 14.213 1.59218 25.7197 14.213 1.59218
243 2 25.8028 14.2036 -1.66938 25.8028 14.2036 -1.66938
244 1 26.7107 15.8545 -0.0188073 26.7107 15.8545 -0.0188073
245 2 28.5432 15.8725 1.6895 28.5432 15.8725 1.6895
246 2 28.6764 15.8377 -1.57006 28.6764 15.8377 -1.57006
247 1 29.5598 14.2095 0.116753 29.5598 14.2095 0.116753
248 2 31.3844 14.2028 1.83361 31.3844 14.2028 1.83361
249 2 31.533 14.2168 -1.42528 31.533 14.2168 -1.42528
250 1 32.4073 15.8566 0.254964 32.4073 15.8566 0.254964
251 2 34.23 15.8686 1.97392 34.23 15.8686 1.97392
252 2 34.383 15.8446 -1.28447 34.383 15.8446 -1.28447
253 1 35.2565 14.2101 0.401827 35.2565 14.2101 0.401827
254 2 37.0892 14.2033 2.11037 37.0892 14.2033 2.11037
255 2 37.224 14.2166 -1.14871 37.224 14.2166 -1.14871
256 1 38.106 15.8573 0.527359 38.106 15.8573 0.527359
257 2 39.9588 15.8761 2.21416 39.9588 15.8761 2.21416
258 2 40.0558 15.8379 -1.0459 40.0558 15.8379 -1.0459
259 1 40.958 14.2098 0.631832 40.958 14.2098 0.631832
260 2 42.8304 14.2158 2.29706 42.8304 14.2158 2.29706
261 2 42.8897 14.2032 -0.963993 42.8897 14.2032 -0.963993
262 1 43.811 15.8572 0.677918 43.811 15.8572 0.677918
263 2 45.7138 15.8921 2.30804 45.7138 15.8921 2.30804
264 2 45.7134 15.8213 -0.952775 45.7134 15.8213 -0.952775
265 1 46.6649 14.2093 0.713353 46.6649 14.2093 0.713353
266 2 48.5886 14.2335 2.31893 48.5886 14.2335 2.31893
267 2 48.5461 14.1844 -0.941988 48.5461 14.1844 -0.941988
268 1 49.5185 15.8563 0.651522 49.5185 15.8563 0.651522
269 2 51.4699 15.9074 2.22249 51.4699 15.9074 2.22249
270 2 51.3702 15.804 -1.03601 51.3702 15.804 -1.03601
271 1 1.06293 17.5018 0.51204 1.06293 17.5018 0.51204
272 2 3.03465 17.5742 2.05625 3.03465 17.5742 2.05625
273 2 2.89184 17.4277 -1.19916 2.89184 17.4277 -1.19916
274 1 3.91234 19.1454 0.312831 3.91234 19.1454 0.312831
275 2 5.89446 19.2321 1.84255 5.89446 19.2321 1.84255
276 2 5.72878 19.057 -1.41054 5.72878 19.057 -1.41054
277 1 6.76272 17.4988 0.256502 6.76272 17.4988 0.256502
278 2 8.74832 17.5718 1.78233 8.74832 17.5718 1.78233
279 2 8.57475 17.4245 -1.47185 8.57475 17.4245 -1.47185
280 1 9.60983 19.1419 0.0300504 9.60983 19.1419 0.0300504
281 2 11.587 19.224 1.56619 11.587 19.224 1.56619
282 2 11.4307 19.0591 -1.68817 11.4307 19.0591 -1.68817
283 1 12.4596 17.4963 -0.0227592 12.4596 17.4963 -0.0227592
284 2 14.4241 17.5619 1.53021 14.4241 17.5619 1.53021
285 2 14.2938 17.4304 -1.72698 14.2938 17.4304 -1.72698
286 1 15.3082 19.1401 -0.202837 15.3082 19.1401 -0.202837
287 2 17.2449 19.2136 1.38446 17.2449 19.2136 1.38446
288 2 17.1722 19.0673 -1.87394 17.1722 19.0673 -1.87394
289 1 18.1593 17.4959 -0.191513 18.1593 17.4959 -0.191513
290 2 20.0694 17.5507 1.42854 20.0694 17.5507 1.42854
291 2 20.0504 17.4424 -1.83223 20.0504 17.4424 -1.83223
292 1 21.0102 19.1413 -0.261909 21.0102 19.1413 -0.261909
293 2 22.8845 19.2055 1.3994 22.8845 19.2055 1.3994
294 2 22.9369 19.0791 -1.86028 22.9369 19.0791 -1.86028
295 1 23.861 17.4983 -0.150628 23.861 17.4983 -0.150628
296 2 25.7104 17.541 1.53891 25.7104 17.541 1.53891
297 2 25.811 17.4573 -1.72102 25.811 17.4573 -1.72102
298 1 26.7106 19.145 -0.103706 26.7106 19.145 -0.103706
299 2 28.5363 19.2007 1.61121 28.5363 19.2007 1.61121
300 2 28.6828 19.0912 -1.64605 28.6828 19.0912 -1.64605
301 1 29.5589 17.5016 0.0812679 29.5589 17.5016 0.0812679
302 2 31.3784 17.5354 1.80338 31.3784 17.5354 1.80338
303 2 31.537 17.4688 -1.45433 31.537 17.4688 -1.45433
304 1 32.4069 19.1489 0.187424 32.4069 19.1489 0.187424
305 2 34.2278 19.2007 1.90763 34.2278 19.2007 1.90763
306 2 34.3845 19.0975 -1.34902 34.3845 19.0975 -1.34902
307 1 35.2556 17.5039 0.377551 35.2556 17.5039 0.377551
308 2 37.0904 17.538 2.08356 37.0904 17.538 2.08356
309 2 37.2213 17.4695 -1.17497 37.2213 17.4695 -1.17497
310 1 38.1059 19.1511 0.458198 38.1059 19.1511 0.458198
311 2 39.9633 19.208 2.13894 39.9633 19.208 2.13894
312 2 40.0513 19.0932 -1.11962 40.0513 19.0932 -1.11962
313 1 40.9578 17.5046 0.593526 40.9578 17.5046 0.593526
314 2 42.8383 17.5499 2.2489 42.8383 17.5499 2.2489
315 2 42.8817 17.4582 -1.01118 42.8817 17.4582 -1.01118
316 1 43.8111 19.151 0.585477 43.8111 19.151 0.585477
317 2 45.7219 19.2205 2.20489 45.7219 19.2205 2.20489
318 2 45.7052 19.0796 -1.05371 45.7052 19.0796 -1.05371
319 1 46.6648 17.5039 0.642034 46.6648 17.5039 0.642034
320 2 48.5974 17.5651 2.23579 48.5974 17.5651 2.23579
321 2 48.5366 17.441 -1.02293 48.5366 17.441 -1.02293
322 1 49.5177 19.1489 0.526136 49.5177 19.1489 0.526136
323 2 51.4749 19.231 2.0883 51.4749 19.231 2.0883
324 2 51.3628 19.0646 -1.16732 51.3628 19.0646 -1.16732
325 1 1.06111 20.7919 0.343659 1.06111 20.7919 0.343659
326 2 3.03446 20.8874 1.88414 3.03446 20.8874 1.88414
327 2 2.8876 20.694 -1.36877 2.8876 20.694 -1.36877
328 1 3.90973 22.4334 0.116882 3.90973 22.4334 0.116882
329 2 5.88949 22.5345 1.64846 5.88949 22.5345 1.64846
330 2 5.72838 22.3304 -1.60326 5.72838 22.3304 -1.60326
331 1 6.75997 20.7876 0.079024 6.75997 20.7876 0.079024
332 2 8.74176 20.8817 1.6085 8.74176 20.8817 1.6085
333 2 8.57613 20.6923 -1.64394 8.57613 20.6923 -1.64394
334 1 9.60727 22.4294 -0.161962 9.60727 22.4294 -0.161962
335 2 11.5785 22.5254 1.38093 11.5785 22.5254 1.38093
336 2 11.4349 22.333 -1.87244 11.4349 22.333 -1.87244
337 1 12.4575 20.7846 -0.190019 12.4575 20.7846 -0.190019
338 2 14.4154 20.8718 1.3703 14.4154 20.8718 1.3703
339 2 14.2994 20.6975 -1.88531 14.2994 20.6975 -1.88531
340 1 15.3069 22.4276 -0.3795 15.3069 22.4276 -0.3795
341 2 17.2374 22.5179 1.2148 17.2374 22.5179 1.2148
342 2 17.1782 22.3385 -2.04205 17.1782 22.3385 -2.04205
343 1 18.1587 20.7842 -0.339757 18.1587 20.7842 -0.339757
344 2 20.0617 20.8645 1.28777 20.0617 20.8645 1.28777
345 2 20.0575 20.7056 -1.97082 20.0575 20.7056 -1.97082
346 1 21.0103 22.4291 -0.422866 21.0103 22.4291 -0.422866
347 2 22.8791 22.5162 1.2438 22.8791 22.5162 1.2438
348 2 22.9431 22.3443 -2.01341 22.9431 22.3443 -2.01341
349 1 23.8612 20.7872 -0.278774 23.8612 20.7872 -0.278774
350 2 25.7041 20.8616 1.41707 25.7041 20.8616 1.41707
351 2 25.8179 20.7152 -1.84009 25.8179 20.7152 -1.84009
352 1 26.7115 22.4336 -0.252084 26.7115 22.4336 -0.252084
353 2 28.5327 22.5188 1.46651 28.5327 22.5188 1.46651
354 2 28.6882 22.3508 -1.78773 28.6882 22.3508 -1.78773
355 1 29.5593 20.792 -0.0298109 29.5593 20.792 -0.0298109
356 2 31.3745 20.862 1.69573 31.3745 20.862 1.69573
357 2 31.5414 20.7236 -1.55926 31.5414 20.7236 -1.55926
358 1 32.4079 22.4389 0.0470961 32.4079 22.4389 0.0470961
359 2 34.2269 22.5233 1.76796 34.2269 22.5233 1.76796
360 2 34.3872 22.3555 -1.48584 34.3872 22.3555 -1.48584
361 1 35.2559 20.796 0.273056 35.2559 20.796 0.273056
362 2 37.0915 20.8664 1.97697 37.0915 20.8664 1.97697
363 2 37.2209 20.7253 -1.27932 37.2209 20.7253 -1.27932
364 1 38.1067 22.4421 0.31534 38.1067 22.4421 0.31534
365 2 39.9662 22.5294 1.99218 39.9662 22.5294 1.99218
366 2 40.0498 22.3537 -1.26391 40.0498 22.3537 -1.26391
367 1 40.9582 20.7973 0.477495 40.9582 20.7973 0.477495
368 2 42.8441 20.8752 2.1252 42.8441 20.8752 2.1252
369 2 42.8764 20.7176 -1.13261 42.8764 20.7176 -1.13261
370 1 43.8114 22.4417 0.426136 43.8114 22.4417 0.426136
371 2 45.7264 22.5358 2.03878 45.7264 22.5358 2.03878
372 2 45.7004 22.345 -1.21741 45.7004 22.345 -1.21741
373 1 46.6646 20.7956 0.499578 46.6646 20.7956 0.499578
374 2 48.6029 20.8843 2.0845 48.6029 20.8843 2.0845
375 2 48.5296 20.7043 -1.17152 48.5296 20.7043 -1.17152
376 1 49.5165 22.4382 0.344048 49.5165 22.4382 0.344048
377 2 51.476 22.5385 1.9017 51.476 22.5385 1.9017
378 2 51.3583 22.3349 -1.35177 51.3583 22.3349 -1.35177
379 1 1.05902 24.0791 0.137452 1.05902 24.0791 0.137452
380 2 3.03079 24.1828 1.67892 3.03079 24.1828 1.67892
381 2 2.8865 23.9732 -1.57324 2.8865 23.9732 -1.57324
382 1 3.90726 25.7198 -0.0955988 3.90726 25.7198 -0.0955988
383 2 5.88245 25.819 1.44161 5.88245 25.819 1.44161
384 2 5.73054 25.6193 -1.81089 5.73054 25.6193 -1.81089
385 1 6.75725 24.0744 -0.127851 6.75725 24.0744 -0.127851
386 2 8.73393 24.1744 1.40765 8.73393 24.1744 1.40765
387 2 8.579 23.9737 -1.84463 8.579 23.9737 -1.84463
388 1 9.60506 25.7162 -0.36549 9.60506 25.7162 -0.36549
389 2 11.5704 25.8103 1.18493 11.5704 25.8103 1.18493
390 2 11.4394 25.6223 -2.06915 11.4394 25.6223 -2.06915
391 1 12.4557 24.0716 -0.385114 12.4557 24.0716 -0.385114
392 2 14.4076 24.1663 1.18241 14.4076 24.1663 1.18241
393 2 14.3046 23.9776 -2.0727 14.3046 23.9776 -2.0727
394 1 15.306 25.7148 -0.570749 15.306 25.7148 -0.570749
395 2 17.232 25.8066 1.02888 17.232 25.8066 1.02888
396 2 17.1825 25.6244 -2.22778 17.1825 25.6244 -2.22778
397 1 18.1583 24.0714 -0.521548 18.1583 24.0714 -0.521548
398 2 20.0567 24.1642 1.11086 20.0567 24.1642 1.11086
399 2 20.0625 23.9807 -2.14622 20.0625 23.9807 -2.14622
400 1 21.0107 25.7162 -0.608682 21.0107 25.7162 -0.608682
401 2 22.8776 25.8113 1.05995 22.8776 25.8113 1.05995
402 2 22.9462 25.6236 -2.19608 22.9462 25.6236 -2.19608
403 1 23.8621 24.0746 -0.452836 23.8621 24.0746 -0.452836
404 2 25.7017 24.1687 1.24579 25.7017 24.1687 1.24579
405 2 25.8226 23.9832 -2.00895 25.8226 23.9832 -2.00895
406 1 26.7131 25.7206 -0.439952 26.7131 25.7206 -0.439952
407 2 28.5331 25.8211 1.27926 28.5331 25.8211 1.27926
408 2 28.6916 25.6228 -1.97302 28.6916 25.6228 -1.97302
409 1 29.5609 24.0801 -0.200027 29.5609 24.0801 -0.200027
410 2 31.3736 24.1757 1.52697 31.3736 24.1757 1.52697
411 2 31.5456 23.9866 -1.72517 31.5456 23.9866 -1.72517
412 1 32.4101 25.7264 -0.14449 32.4101 25.7264 -0.14449
413 2 34.2277 25.8303 1.57662 34.2277 25.8303 1.57662
414 2 34.3906 25.6239 -1.67488 34.3906 25.6239 -1.67488
415 1 35.2575 24.0852 0.103022 35.2575 24.0852 0.103022
416 2 37.0924 24.182 1.80603 37.0924 24.182 1.80603
417 2 37.2227 23.9883 -1.44763 37.2227 23.9883 -1.44763
418 1 38.1085 25.7301 0.119217 38.1085 25.7301 0.119217
419 2 39.9671 25.8349 1.79546 39.9671 25.8349 1.79546
420 2 40.0516 25.6241 -1.4587 40.0516 25.6241 -1.4587
421 1 40.9591 24.0867 0.299679 40.9591 24.0867 0.299679
422 2 42.8466 24.1862 1.94387 42.8466 24.1862 1.94387
423 2 42.875 23.9849 -1.31176 42.875 23.9849 -1.31176
424 1 43.8118 25.7293 0.222437 43.8118 25.7293 0.222437
425 2 45.7262 25.8339 1.83444 45.7262 25.8339 1.83444
426 2 45.7003 25.6218 -1.42066 45.7003 25.6218 -1.42066
427 1 46.6641 24.0841 0.306551 46.6641 24.0841 0.306551
428 2 48.6039 24.1869 1.8882 48.6039 24.1869 1.8882
429 2 48.5266 23.9781 -1.36621 48.5266 23.9781 -1.36621
430 1 49.5152 25.7249 0.132556 49.5152 25.7249 0.132556
431 2 51.4726 25.8279 1.69198 51.4726 25.8279 1.69198
432 2 51.3581 25.6191 -1.56148 51.3581 25.6191 -1.56148
433 1 1.05714 27.3655 -0.074114 1.05714 27.3655 -0.074114
434 2 3.02392 27.4603 1.47374 3.02392 27.4603 1.47374
435 2 2.88936 27.2689 -1.78009 2.88936 27.2689 -1.78009
436 1 3.90546 29.0071 -0.289723 3.90546 29.0071 -0.289723
437 2 5.87434 29.0875 1.25627 5.87434 29.0875 1.25627
438 2 5.73529 28.9261 -1.999 5.73529 28.9261 -1.999
439 1 6.75505 27.3613 -0.330339 6.75505 27.3613 -0.330339
440 2 8.72596 27.4504 1.21302 8.72596 27.4504 1.21302
441 2 8.58311 27.2722 -2.04112 8.58311 27.2722 -2.04112
442 1 9.60355 29.0044 -0.546274 9.60355 29.0044 -0.546274
443 2 11.5639 29.0801 1.01143 11.5639 29.0801 1.01143
444 2 11.4436 28.9295 -2.24493 11.4436 28.9295 -2.24493
445 1 12.4543 27.3591 -0.57566 12.4543 27.3591 -0.57566
446 2 14.4015 27.445 0.998181 14.4015 27.445 0.998181
447 2 14.3086 27.2744 -2.25809 14.3086 27.2744 -2.25809
448 1 15.3053 29.0035 -0.743511 15.3053 29.0035 -0.743511
449 2 17.2295 29.0802 0.859281 17.2295 29.0802 0.859281
450 2 17.1845 28.9283 -2.39882 17.1845 28.9283 -2.39882
451 1 18.1581 27.3591 -0.706093 18.1581 27.3591 -0.706093
452 2 20.0551 27.4478 0.928406 20.0551 27.4478 0.928406
453 2 20.0646 27.2724 -2.3289 20.0646 27.2724 -2.3289
454 1 21.0112 29.0045 -0.786119 21.0112 29.0045 -0.786119
455 2 22.8798 29.0898 0.881125 22.8798 29.0898 0.881125
456 2 22.9457 28.9213 -2.3758 22.9457 28.9213 -2.3758
457 1 23.8633 27.3617 -0.642836 23.8633 27.3617 -0.642836
458 2 25.7035 27.4587 1.05506 25.7035 27.4587 1.05506
459 2 25.8239 27.2674 -2.19918 25.8239 27.2674 -2.19918
460 1 26.715 29.0079 -0.633633 26.715 29.0079 -0.633633
461 2 28.5376 29.1053 1.0831 28.5376 29.1053 1.0831
462 2 28.6917 28.9129 -2.16963 28.6917 28.9129 -2.16963
463 1 29.5633 27.3668 -0.400868 29.5633 27.3668 -0.400868
464 2 31.376 27.4717 1.32555 31.376 27.4717 1.32555
465 2 31.5482 27.2642 -1.92541 31.5482 27.2642 -1.92541
466 1 32.413 29.0128 -0.354681 32.413 29.0128 -0.354681
467 2 34.2305 29.1182 1.36622 34.2305 29.1182 1.36622
468 2 34.3935 28.9091 -1.88515 34.3935 28.9091 -1.88515
469 1 35.26 27.3719 -0.106071 35.26 27.3719 -0.106071
470 2 37.0933 27.4797 1.59762 37.0933 27.4797 1.59762
471 2 37.2262 27.2644 -1.65471 37.2262 27.2644 -1.65471
472 1 38.1108 29.0162 -0.0989297 38.1108 29.0162 -0.0989297
473 2 39.9661 29.1212 1.58048 39.9661 29.1212 1.58048
474 2 40.0562 28.9105 -1.67373 40.0562 28.9105 -1.67373
475 1 40.9604 27.3734 0.086228 40.9604 27.3734 0.086228
476 2 42.8453 27.4792 1.73241 42.8453 27.4792 1.73241
477 2 42.8779 27.2655 -1.52263 42.8779 27.2655 -1.52263
478 1 43.8124 29.0154 0.00596495 43.8124 29.0154 0.00596495
479 2 45.7212 29.1133 1.6243 45.7212 29.1133 1.6243
480 2 45.7054 28.9151 -1.63198 45.7054 28.9151 -1.63198
481 1 46.6637 27.3705 0.0917545 46.6637 27.3705 0.0917545
482 2 48.5998 27.4713 1.67736 48.5998 27.4713 1.67736
483 2 48.529 27.2667 -1.5777 48.529 27.2667 -1.5777
484 1 49.5141 29.0114 -0.0747736 49.5141 29.0114 -0.0747736
485 2 51.465 29.0998 1.49307 51.465 29.0998 1.49307
486 2 51.3631 28.9208 -1.76277 51.3631 28.9208 -1.76277
487 1 1.05599 30.6533 -0.255645 1.05599 30.6533 -0.255645
488 2 3.01497 30.7227 1.30291 3.01497 30.7227 1.30291
489 2 2.89602 30.5828 -1.95428 2.89602 30.5828 -1.95428
490 1 3.90475 32.2969 -0.431716 3.90475 32.2969 -0.431716
491 2 5.86654 32.3439 1.12425 5.86654 32.3439 1.12425
492 2 5.7419 32.2499 -2.1343 5.7419 32.2499 -2.1343
493 1 6.75381 30.6504 -0.494026 6.75381 30.6504 -0.494026
494 2 8.71898 30.7128 1.05767 8.71898 30.7128 1.05767
495 2 8.588 30.5884 -2.19947 8.588 30.5884 -2.19947
496 1 9.60298 32.2955 -0.672475 9.60298 32.2955 -0.672475
497 2 11.5597 32.3388 0.890801 11.5597 32.3388 0.890801
498 2 11.4469 32.253 -2.36814 11.4469 32.253 -2.36814
499 1 12.4535 30.6491 -0.728386 12.4535 30.6491 -0.728386
500 2 14.398 30.7103 0.849924 14.398 30.7103 0.849924
501 2 14.3111 30.5891 -2.40861 14.3111 30.5891 -2.40861
502 1 15.305 32.2952 -0.866302 15.305 32.2952 -0.866302
503 2 17.2299 32.3422 0.736828 17.2299 32.3422 0.736828
504 2 17.1839 32.2492 -2.52335 17.1839 32.2492 -2.52335
505 1 18.1579 30.6492 -0.859871 18.1579 30.6492 -0.859871
506 2 20.0566 30.7169 0.773764 20.0566 30.7169 0.773764
507 2 20.0635 30.5829 -2.48533 20.0635 30.5829 -2.48533
508 1 21.0114 32.2957 -0.921628 21.0114 32.2957 -0.921628
509 2 22.8853 32.3548 0.740913 22.8853 32.3548 0.740913
510 2 22.9415 32.2378 -2.51831 22.9415 32.2378 -2.51831
511 1 23.8642 30.6508 -0.813326 23.8642 30.6508 -0.813326
512 2 25.7091 30.7321 0.880407 25.7091 30.7321 0.880407
513 2 25.8212 30.5714 -2.37562 25.8212 30.5714 -2.37562
514 1 26.7165 32.2975 -0.796209 26.7165 32.2975 -0.796209
515 2 28.5453 32.3732 0.914934 28.5453 32.3732 0.914934
516 2 28.688 32.2236 -2.34046 28.688 32.2236 -2.34046
517 1 29.5658 30.6543 -0.595603 29.5658 30.6543 -0.595603
518 2 31.3815 30.7491 1.12808 31.3815 30.7491 1.12808
519 2 31.5482 30.5616 -2.12435 31.5482 30.5616 -2.12435
520 1 32.4159 32.3007 -0.544473 32.4159 32.3007 -0.544473
521 2 34.2352 32.3876 1.17537 34.2352 32.3876 1.17537
522 2 34.3946 32.2154 -2.07836 34.3946 32.2154 -2.07836
523 1 35.263 30.6583 -0.317914 35.263 30.6583 -0.317914
524 2 37.0945 30.7578 1.38785 37.0945 30.7578 1.38785
525 2 37.2303 30.5595 -1.86555 37.2303 30.5595 -1.86555
526 1 38.1134 32.3032 -0.299964 38.1134 32.3032 -0.299964
527 2 39.9637 32.3887 1.38553 39.9637 32.3887 1.38553
528 2 40.0627 32.2176 -1.87088 40.0627 32.2176 -1.87088
529 1 40.9621 30.6596 -0.127315 40.9621 30.6596 -0.127315
530 2 42.8406 30.7531 1.52623 42.8406 30.7531 1.52623
531 2 42.8848 30.5647 -1.73044 42.8848 30.5647 -1.73044
532 1 43.8133 32.3027 -0.185101 43.8133 32.3027 -0.185101
533 2 45.7126 32.3757 1.4451 45.7126 32.3757 1.4451
534 2 45.7149 32.2281 -1.8141 45.7149 32.2281 -1.8141
535 1 46.6636 30.6572 -0.109285 46.6636 30.6572 -0.109285
536 2 48.5912 30.7383 1.48704 48.5912 30.7383 1.48704
537 2 48.5366 30.5739 -1.77082 48.5366 30.5739 -1.77082
538 1 49.5137 32.2998 -0.24164 49.5137 32.2998 -0.24164
539 2 51.4548 32.3574 1.33926 51.4548 32.3574 1.33926
540 2 51.3724 32.2408 -1.92012 51.3724 32.2408 -1.92012