ITEM: TIMESTEP
57000
ITEM: NUMBER OF ATOMS
810
ITEM: BOX BOUNDS pp pp pp
8.4924230615582974e-01 5.2168362693842724e+01
8.1644937642035487e-01 5.0199765623579232e+01
-1.0000000000000000e+01 1.0000000000000000e+01
ITEM: ATOMS id type x y z xu yu zu
1 1 1.05407 1.03203 -0.362639 1.05407 1.03203 -0.362639
2 2 2.91894 0.979356 1.30938 2.91894 0.979356 1.30938
3 2 2.99063 1.08474 -1.95032 2.99063 1.08474 -1.95032
4 1 3.9048 2.67744 -0.246127 3.9048 2.67744 -0.246127
5 2 5.75832 2.62579 1.43846 5.75832 2.62579 1.43846
6 2 5.85197 2.72904 -1.82077 5.85197 2.72904 -1.82077
7 1 6.75568 1.03136 -0.216002 6.75568 1.03136 -0.216002
8 2 8.60323 0.977499 1.47498 8.60323 0.977499 1.47498
9 2 8.70849 1.08506 -1.78373 8.70849 1.08506 -1.78373
10 1 9.60552 2.67646 -0.0691552 9.60552 2.67646 -0.0691552
11 2 11.4548 2.62386 1.61995 11.4548 2.62386 1.61995
12 2 11.5568 2.72887 -1.63893 11.5568 2.72887 -1.63893
13 1 12.4563 1.0302 -0.0328442 12.4563 1.0302 -0.0328442
14 2 14.313 0.975439 1.64785 14.313 0.975439 1.64785
15 2 14.4006 1.08474 -1.61132 14.4006 1.08474 -1.61132
16 1 15.3068 2.6753 0.0991785 15.3068 2.6753 0.0991785
17 2 17.1777 2.62255 1.76407 17.1777 2.62255 1.76407
18 2 17.2378 2.72789 -1.4958 17.2378 2.72789 -1.4958
19 1 18.1584 1.02918 0.0983132 18.1584 1.02918 0.0983132
20 2 20.0457 0.974251 1.74444 20.0457 0.974251 1.74444
21 2 20.0735 1.08395 -1.51576 20.0735 1.08395 -1.51576
22 1 21.0102 2.67458 0.177985 21.0102 2.67458 0.177985
23 2 22.9169 2.62253 1.80175 22.9169 2.62253 1.80175
24 2 22.9062 2.72659 -1.45869 22.9062 2.72659 -1.45869
25 1 23.8621 1.02878 0.115697 23.8621 1.02878 0.115697
26 2 25.7853 0.974246 1.71962 25.7853 0.974246 1.71962
27 2 25.7411 1.08327 -1.54042 25.7411 1.08327 -1.54042
28 1 26.714 2.67459 0.131883 26.714 2.67459 0.131883
29 2 28.6527 2.62359 1.7172 28.6527 2.62359 1.7172
30 2 28.5768 2.72564 -1.54246 28.5768 2.72564 -1.54246
31 1 29.5649 1.02913 0.0135386 29.5649 1.02913 0.0135386
32 2 31.5127 0.975192 1.58753 31.5127 0.975192 1.58753
33 2 31.4179 1.08313 -1.67148 31.4179 1.08313 -1.67148
34 1 32.4159 2.67523 -0.0149555 32.4159 2.67523 -0.0149555
35 2 34.3692 2.6252 1.55243 34.3692 2.6252 1.55243
36 2 34.263 2.72543 -1.70648 34.263 2.72543 -1.70648
37 1 35.2659 1.03002 -0.158749 35.2659 1.03002 -0.158749
38 2 37.217 0.976963 1.41124 37.217 0.976963 1.41124
39 2 37.1152 1.08325 -1.84763 37.1152 1.08325 -1.84763
40 1 38.1166 2.67622 -0.194035 38.1166 2.67622 -0.194035
41 2 40.0617 2.62688 1.3836 40.0617 2.62688 1.3836
42 2 39.9722 2.72583 -1.87589 39.9722 2.72583 -1.87589
43 1 40.967 1.03108 -0.322292 40.967 1.03108 -0.322292
44 2 42.8995 0.978933 1.2708 42.8995 0.978933 1.2708
45 2 42.8361 1.08349 -1.98911 42.8361 1.08349 -1.98911
46 1 43.8184 2.67718 -0.324669 43.8184 2.67718 -0.324669
47 2 45.7359 2.62775 1.28663 45.7359 2.62775 1.28663
48 2 45.7028 2.72693 -1.97394 45.7028 2.72693 -1.97394
49 1 46.6699 1.03188 -0.403395 46.6699 1.03188 -0.403395
50 2 48.5689 0.979918 1.2297 48.5689 0.979918 1.2297
51 2 48.5732 1.08408 -2.03084 48.5732 1.08408 -2.03084
52 1 49.5215 2.6777 -0.346505 49.5215 2.6777 -0.346505
53 2 51.4028 2.62731 1.30707 51.4028 2.62731 1.30707
54 2 51.4422 2.72828 -1.95336 51.4422 2.72828 -1.95336
55 1 1.05361 4.32337 -0.260435 1.05361 4.32337 -0.260435
56 2 2.91899 4.27609 1.41114 2.91899 4.27609 1.41114
57 2 2.98943 4.37074 -1.84898 2.98943 4.37074 -1.84898
58 1 3.90416 5.96897 -0.150312 3.90416 5.96897 -0.150312
59 2 5.75811 5.92668 1.53406 5.75811 5.92668 1.53406
60 2 5.85077 6.01124 -1.72576 5.85077 6.01124 -1.72576
61 1 6.75489 4.32274 -0.111455 6.75489 4.32274 -0.111455
62 2 8.60319 4.27437 1.57893 8.60319 4.27437 1.57893
63 2 8.70695 4.371 -1.68017 8.70695 4.371 -1.68017
64 1 9.60473 5.96814 0.0287084 9.60473 5.96814 0.0287084
65 2 11.455 5.9255 1.71706 11.455 5.9255 1.71706
66 2 11.5551 6.01064 -1.54244 11.5551 6.01064 -1.54244
67 1 12.4555 4.32165 0.0735164 12.4555 4.32165 0.0735164
68 2 14.3135 4.27307 1.75313 14.3135 4.27307 1.75313
69 2 14.3988 4.37007 -1.50643 14.3988 4.37007 -1.50643
70 1 15.3062 5.96717 0.197429 15.3062 5.96717 0.197429
71 2 17.1788 5.92532 1.86092 17.1788 5.92532 1.86092
72 2 17.2358 6.00893 -1.39957 17.2358 6.00893 -1.39957
73 1 18.1581 4.32072 0.205028 18.1581 4.32072 0.205028
74 2 20.0472 4.27295 1.84947 20.0472 4.27295 1.84947
75 2 20.0717 4.36842 -1.41112 20.0717 4.36842 -1.41112
76 1 21.0101 5.9666 0.274707 21.0101 5.9666 0.274707
77 2 22.9189 5.92649 1.89651 22.9189 5.92649 1.89651
78 2 22.9043 6.00676 -1.36451 22.9043 6.00676 -1.36451
79 1 23.8623 4.3204 0.221117 23.8623 4.3204 0.221117
80 2 25.7876 4.27412 1.82302 25.7876 4.27412 1.82302
81 2 25.7395 4.36673 -1.43739 25.7395 4.36673 -1.43739
82 1 26.7143 5.96665 0.225713 26.7143 5.96665 0.225713
83 2 28.6552 5.9285 1.80902 28.6552 5.9285 1.80902
84 2 28.5753 6.00493 -1.45119 28.5753 6.00493 -1.45119
85 1 29.5655 4.32075 0.116933 29.5655 4.32075 0.116933
86 2 31.5152 4.27587 1.68899 31.5152 4.27587 1.68899
87 2 31.4167 4.36576 -1.57042 31.4167 4.36576 -1.57042
88 1 32.4165 5.96719 0.076115 32.4165 5.96719 0.076115
89 2 34.3715 5.93031 1.64188 34.3715 5.93031 1.64188
90 2 34.2618 6.00423 -1.61761 34.2618 6.00423 -1.61761
91 1 35.2666 4.32154 -0.0572 35.2666 4.32154 -0.0572
92 2 37.2194 4.27745 1.51104 37.2194 4.27745 1.51104
93 2 37.114 4.36585 -1.74827 37.114 4.36585 -1.74827
94 1 38.1171 5.96796 -0.104496 38.1171 5.96796 -0.104496
95 2 40.0633 5.93103 1.47217 40.0633 5.93103 1.47217
96 2 39.9715 6.00515 -1.78796 39.9715 6.00515 -1.78796
97 1 40.9675 4.32248 -0.222072 40.9675 4.32248 -0.222072
98 2 42.9012 4.27817 1.36974 42.9012 4.27817 1.36974
99 2 42.835 4.3671 -1.89065 42.835 4.3671 -1.89065
100 1 43.8186 5.96873 -0.234636 43.8186 5.96873 -0.234636
101 2 45.7364 5.93024 1.37648 45.7364 5.93024 1.37648
102 2 45.7024 6.00754 -1.88473 45.7024 6.00754 -1.88473
103 1 46.6699 4.32322 -0.302996 46.6699 4.32322 -0.302996
104 2 48.5696 4.27757 1.32943 48.5696 4.27757 1.32943
105 2 48.5722 4.36916 -1.93157 48.5722 4.36916 -1.93157
106 1 49.5213 5.96918 -0.253811 49.5213 5.96918 -0.253811
107 2 51.4027 5.92845 1.39987 51.4027 5.92845 1.39987
108 2 51.4416 6.01011 -1.86117 51.4416 6.01011 -1.86117
109 1 1.05317 7.61509 -0.177804 1.05317 7.61509 -0.177804
110 2 2.91846 7.58074 1.49416 2.91846 7.58074 1.49416
111 2 2.98889 7.64955 -1.76664 2.98889 7.64955 -1.76664
112 1 3.90361 9.26105 -0.0806649 3.90361 9.26105 -0.0806649
113 2 5.75768 9.23477 1.60389 5.75768 9.23477 1.60389
114 2 5.85001 9.28734 -1.65663 5.85001 9.28734 -1.65663
115 1 6.75418 7.61463 -0.0258392 6.75418 7.61463 -0.0258392
116 2 8.60316 7.57946 1.66416 8.60316 7.57946 1.66416
117 2 8.70557 7.64974 -1.59566 8.70557 7.64974 -1.59566
118 1 9.60409 9.26054 0.0998934 9.60409 9.26054 0.0998934
119 2 11.4555 9.2345 1.78745 11.4555 9.2345 1.78745
120 2 11.5535 9.2865 -1.47278 11.5535 9.2865 -1.47278
121 1 12.4549 7.61382 0.159756 12.4549 7.61382 0.159756
122 2 14.3143 7.57929 1.83827 14.3143 7.57929 1.83827
123 2 14.397 7.64825 -1.42204 14.397 7.64825 -1.42204
124 1 15.3058 9.25994 0.267298 15.3058 9.25994 0.267298
125 2 17.1802 9.23551 1.92929 17.1802 9.23551 1.92929
126 2 17.2339 9.28434 -1.33192 17.2339 9.28434 -1.33192
127 1 18.1578 7.61316 0.289738 18.1578 7.61316 0.289738
128 2 20.0489 7.58039 1.93241 20.0489 7.58039 1.93241
129 2 20.0697 7.64593 -1.32887 20.0697 7.64593 -1.32887
130 1 21.01 9.25963 0.34112 21.01 9.25963 0.34112
131 2 22.921 9.2377 1.9609 22.921 9.2377 1.9609
132 2 22.9023 9.28161 -1.30074 22.9023 9.28161 -1.30074
133 1 23.8624 7.61297 0.30245 23.8624 7.61297 0.30245
134 2 25.7899 7.58258 1.90228 25.7899 7.58258 1.90228
135 2 25.7376 7.64346 -1.35876 25.7376 7.64346 -1.35876
136 1 26.7146 9.25968 0.287417 26.7146 9.25968 0.287417
137 2 28.6574 9.24038 1.86873 28.6574 9.24038 1.86873
138 2 28.5735 9.27907 -1.392 28.5735 9.27907 -1.392
139 1 29.5659 7.61324 0.19438 29.5659 7.61324 0.19438
140 2 31.5175 7.58484 1.76468 31.5175 7.58484 1.76468
141 2 31.4152 7.64176 -1.49534 31.4152 7.64176 -1.49534
142 1 32.4167 9.25997 0.133785 32.4167 9.25997 0.133785
143 2 34.373 9.24216 1.69839 34.373 9.24216 1.69839
144 2 34.2608 9.27787 -1.56165 34.2608 9.27787 -1.56165
145 1 35.267 7.61377 0.0176857 35.267 7.61377 0.0176857
146 2 37.2209 7.58592 1.58502 37.2209 7.58592 1.58502
147 2 37.1133 7.64179 -1.67495 37.1133 7.64179 -1.67495
148 1 38.1173 9.26037 -0.0479281 38.1173 9.26037 -0.0479281
149 2 40.0637 9.2418 1.52892 40.0637 9.2418 1.52892
150 2 39.9714 9.2791 -1.73185 39.9714 9.2791 -1.73185
151 1 40.9677 7.61441 -0.147038 40.9677 7.61441 -0.147038
152 2 42.9016 7.58515 1.44492 42.9016 7.58515 1.44492
153 2 42.8349 7.64393 -1.81618 42.8349 7.64393 -1.81618
154 1 43.8186 9.26082 -0.175184 43.8186 9.26082 -0.175184
155 2 45.7357 9.23946 1.43718 45.7357 9.23946 1.43718
156 2 45.7031 9.28243 -1.82473 45.7031 9.28243 -1.82473
157 1 46.6698 7.61495 -0.22479 46.6698 7.61495 -0.22479
158 2 48.5691 7.58296 1.40839 48.5691 7.58296 1.40839
159 2 48.5723 7.64721 -1.85331 48.5723 7.64721 -1.85331
160 1 49.5211 9.26114 -0.188837 49.5211 9.26114 -0.188837
161 2 51.4017 9.23658 1.46602 51.4017 9.23658 1.46602
162 2 51.4419 9.28589 -1.7957 51.4419 9.28589 -1.7957
163 1 1.05281 10.9074 -0.127928 1.05281 10.9074 -0.127928
164 2 2.91744 10.8914 1.54504 2.91744 10.8914 1.54504
165 2 2.98907 10.9234 -1.71632 2.98907 10.9234 -1.71632
166 1 3.90323 12.5537 -0.0483458 3.90323 12.5537 -0.0483458
167 2 5.75708 12.5477 1.63666 5.75708 12.5477 1.63666
168 2 5.84983 12.5597 -1.62425 5.84983 12.5597 -1.62425
169 1 6.75364 10.9072 0.0273964 6.75364 10.9072 0.0273964
170 2 8.60319 10.8907 1.71709 8.60319 10.8907 1.71709
171 2 8.70451 10.9237 -1.54336 8.70451 10.9237 -1.54336
172 1 9.6037 12.5536 0.133357 9.6037 12.5536 0.133357
173 2 11.456 12.5481 1.8201 11.456 12.5481 1.8201
174 2 11.5523 12.559 -1.44057 11.5523 12.559 -1.44057
175 1 12.4544 10.9068 0.212458 12.4544 10.9068 0.212458
176 2 14.3153 10.8915 1.88975 14.3153 10.8915 1.88975
177 2 14.3953 10.922 -1.37117 14.3953 10.922 -1.37117
178 1 15.3056 12.5534 0.29828 15.3056 12.5534 0.29828
179 2 17.1815 12.5499 1.95872 17.1815 12.5499 1.95872
180 2 17.2323 12.557 -1.30287 17.2323 12.557 -1.30287
181 1 18.1576 10.9065 0.339239 18.1576 10.9065 0.339239
182 2 20.0507 10.8935 1.98008 20.0507 10.8935 1.98008
183 2 20.0678 10.9195 -1.28175 20.0678 10.9195 -1.28175
184 1 21.01 12.5534 0.367417 21.01 12.5534 0.367417
185 2 22.9229 12.5526 1.98516 22.9229 12.5526 1.98516
186 2 22.9005 12.5541 -1.27672 22.9005 12.5541 -1.27672
187 1 23.8625 10.9064 0.346972 23.8625 10.9064 0.346972
188 2 25.7921 10.8964 1.94469 25.7921 10.8964 1.94469
189 2 25.7357 10.9165 -1.31676 25.7357 10.9165 -1.31676
190 1 26.7146 12.5533 0.307834 26.7146 12.5533 0.307834
191 2 28.6592 12.5556 1.88717 28.6592 12.5556 1.88717
192 2 28.5718 12.5511 -1.37369 28.5718 12.5511 -1.37369
193 1 29.566 10.9065 0.233605 29.566 10.9065 0.233605
194 2 31.5191 10.8989 1.80229 31.5191 10.8989 1.80229
195 2 31.4138 10.9141 -1.45807 31.4138 10.9141 -1.45807
196 1 32.4167 12.5533 0.149229 32.4167 12.5533 0.149229
197 2 34.3737 12.5572 1.71301 34.3737 12.5572 1.71301
198 2 34.26 12.5493 -1.54717 34.26 12.5493 -1.54717
199 1 35.2671 10.9067 0.0538585 35.2671 10.9067 0.0538585
200 2 37.2213 10.8994 1.62103 37.2213 10.8994 1.62103
201 2 37.113 10.9139 -1.63938 37.113 10.9139 -1.63938
202 1 38.1172 12.5532 -0.0332855 38.1172 12.5532 -0.0332855
203 2 40.0628 12.556 1.54461 40.0628 12.556 1.54461
204 2 39.9721 12.5505 -1.71642 39.9721 12.5505 -1.71642
205 1 40.9677 10.9069 -0.109326 40.9677 10.9069 -0.109326
206 2 42.9007 10.8974 1.484 42.9007 10.8974 1.484
207 2 42.8358 10.9165 -1.77764 42.8358 10.9165 -1.77764
208 1 43.8185 12.5533 -0.155896 43.8185 12.5533 -0.155896
209 2 45.7338 12.5527 1.45871 45.7338 12.5527 1.45871
210 2 45.7047 12.5541 -1.80353 45.7047 12.5541 -1.80353
211 1 46.6697 10.9072 -0.181362 46.6697 10.9072 -0.181362
212 2 48.5676 10.8941 1.4537 48.5676 10.8941 1.4537
213 2 48.5735 10.9205 -1.80856 48.5735 10.9205 -1.80856
214 1 49.5209 12.5535 -0.162118 49.5209 12.5535 -0.162118
215 2 51.4 12.5493 1.49462 51.4 12.5493 1.49462
216 2 51.4431 12.5579 -1.76744 51.4431 12.5579 -1.76744
217 1 1.05261 14.1999 -0.119204 1.05261 14.1999 -0.119204
218 2 2.91607 14.2053 1.55514 2.91607 14.2053 1.55514
219 2 2.98998 14.1946 -1.70631 2.98998 14.1946 -1.70631
220 1 3.90313 15.8464 -0.0592186 3.90313 15.8464 -0.0592186
221 2 5.7563 15.862 1.62648 5.7563 15.862 1.62648
222 2 5.8504 15.8308 -1.63426 5.8504 15.8308 -1.63426
223 1 6.75338 14.2001 0.0395858 6.75338 14.2001 0.0395858
224 2 8.60315 14.205 1.72911 8.60315 14.205 1.72911
225 2 8.70405 14.1953 -1.5315 8.70405 14.1953 -1.5315
226 1 9.60362 15.8468 0.123534 9.60362 15.8468 0.123534
227 2 11.4564 15.8628 1.80969 11.4564 15.8628 1.80969
228 2 11.5518 15.8307 -1.45087 11.5518 15.8307 -1.45087
229 1 12.4542 14.2002 0.223606 12.4542 14.2002 0.223606
230 2 14.3162 14.2064 1.89974 14.3162 14.2064 1.89974
231 2 14.3941 14.1941 -1.36135 14.3941 14.1941 -1.36135
232 1 15.3056 15.8471 0.285875 15.3056 15.8471 0.285875
233 2 17.1826 15.8647 1.94502 17.1826 15.8647 1.94502
234 2 17.2312 15.8293 -1.31643 17.2312 15.8293 -1.31643
235 1 18.1576 14.2003 0.346491 18.1576 14.2003 0.346491
236 2 20.0522 14.2087 1.98559 20.0522 14.2087 1.98559
237 2 20.0662 14.1918 -1.2763 20.0662 14.1918 -1.2763
238 1 21.01 15.8472 0.350292 21.01 15.8472 0.350292
239 2 22.9243 15.8673 1.96624 22.9243 15.8673 1.96624
240 2 22.899 15.8269 -1.29539 22.899 15.8269 -1.29539
241 1 23.8625 14.2003 0.348583 23.8625 14.2003 0.348583
242 2 25.7937 14.2117 1.94424 25.7937 14.2117 1.94424
243 2 25.734 14.1887 -1.31712 25.734 14.1887 -1.31712
244 1 26.7145 15.847 0.284583 26.7145 15.847 0.284583
245 2 28.6604 15.87 1.8621 28.6604 15.87 1.8621
246 2 28.5702 15.8237 -1.39837 28.5702 15.8237 -1.39837
247 1 29.5659 14.2001 0.229105 29.5659 14.2001 0.229105
248 2 31.5202 14.2142 1.79631 31.5202 14.2142 1.79631
249 2 31.4124 14.1858 -1.46389 31.4124 14.1858 -1.46389
250 1 32.4164 15.8465 0.120571 32.4164 15.8465 0.120571
251 2 34.3737 15.8713 1.68378 34.3737 15.8713 1.68378
252 2 34.2593 15.8214 -1.576 34.2593 15.8214 -1.576
253 1 35.2668 14.1998 0.0459084 35.2668 14.1998 0.0459084
254 2 37.2208 14.2142 1.61339 37.2208 14.2142 1.61339
255 2 37.113 14.1852 -1.64694 37.113 14.1852 -1.64694
256 1 38.1168 15.846 -0.0627734 38.1168 15.846 -0.0627734
257 2 40.0611 15.8698 1.51664 40.0611 15.8698 1.51664
258 2 39.9732 15.8221 -1.74412 39.9732 15.8221 -1.74412
259 1 40.9676 14.1996 -0.114993 40.9676 14.1996 -0.114993
260 2 42.8988 14.2115 1.48046 42.8988 14.2115 1.48046
261 2 42.8374 14.1876 -1.78122 42.8374 14.1876 -1.78122
262 1 43.8183 15.8458 -0.180197 43.8183 15.8458 -0.180197
263 2 45.7313 15.8663 1.4371 45.7313 15.8663 1.4371
264 2 45.707 15.8253 -1.82491 45.707 15.8253 -1.82491
265 1 46.6696 14.1997 -0.179969 46.6696 14.1997 -0.179969
266 2 48.5654 14.2079 1.4576 48.5654 14.2079 1.4576
267 2 48.5755 14.1916 -1.80472 48.5755 14.1916 -1.80472
268 1 49.5208 15.846 -0.178608 49.5208 15.846 -0.178608
269 2 51.3979 15.8632 1.48031 51.3979 15.8632 1.48031
270 2 51.445 15.8289 -1.78151 51.445 15.8289 -1.78151
271 1 1.05264 17.4924 -0.154005 1.05264 17.4924 -0.154005
272 2 2.91455 17.5188 1.52189 2.91455 17.5188 1.52189
273 2 2.99157 17.4661 -1.73907 2.99157 17.4661 -1.73907
274 1 3.90334 19.1388 -0.112572 3.90334 19.1388 -0.112572
275 2 5.75538 19.174 1.57408 5.75538 19.174 1.57408
276 2 5.85177 19.1037 -1.68596 5.85177 19.1037 -1.68596
277 1 6.75345 17.493 0.00796426 6.75345 17.493 0.00796426
278 2 8.60288 17.5188 1.69765 8.60288 17.5188 1.69765
279 2 8.70447 17.4671 -1.56253 8.70447 17.4671 -1.56253
280 1 9.60389 19.1396 0.0712201 9.60389 19.1396 0.0712201
281 2 11.4564 19.1748 1.75734 11.4564 19.1748 1.75734
282 2 11.5523 19.1043 -1.50261 11.5523 19.1043 -1.50261
283 1 12.4544 17.4935 0.191196 12.4544 17.4935 0.191196
284 2 14.3167 17.5202 1.8666 14.3167 17.5202 1.8666
285 2 14.3938 17.4668 -1.39411 14.3938 17.4668 -1.39411
286 1 15.3058 19.1402 0.231814 15.3058 19.1402 0.231814
287 2 17.183 19.1764 1.89034 17.183 19.1764 1.89034
288 2 17.2311 19.1039 -1.37054 17.2311 19.1039 -1.37054
289 1 18.1576 17.4939 0.310725 18.1576 17.4939 0.310725
290 2 20.0531 17.5223 1.94855 20.0531 17.5223 1.94855
291 2 20.0654 17.4653 -1.31293 20.0654 17.4653 -1.31293
292 1 21.01 19.1404 0.292654 21.01 19.1404 0.292654
293 2 22.9248 19.1783 1.90746 22.9248 19.1783 1.90746
294 2 22.8982 19.1022 -1.35357 22.8982 19.1022 -1.35357
295 1 23.8624 17.4938 0.30769 23.8624 17.4938 0.30769
296 2 25.7947 17.5247 1.90165 25.7947 17.5247 1.90165
297 2 25.7326 17.4626 -1.35918 25.7326 17.4626 -1.35918
298 1 26.7142 19.1399 0.221721 26.7142 19.1399 0.221721
299 2 28.6607 19.1801 1.79795 28.6607 19.1801 1.79795
300 2 28.569 19.0994 -1.46184 28.569 19.0994 -1.46184
301 1 29.5655 17.4932 0.182194 29.5655 17.4932 0.182194
302 2 31.5205 17.5266 1.74821 31.5205 17.5266 1.74821
303 2 31.4113 17.4596 -1.51139 31.4113 17.4596 -1.51139
304 1 32.4158 19.139 0.0527077 32.4158 19.139 0.0527077
305 2 34.3729 19.1807 1.61573 34.3729 19.1807 1.61573
306 2 34.2589 19.097 -1.64337 34.2589 19.097 -1.64337
307 1 35.2663 17.4925 -0.00458978 35.2663 17.4925 -0.00458978
308 2 37.2195 17.5263 1.56351 37.2195 17.5263 1.56351
309 2 37.1134 17.4584 -1.69629 37.1134 17.4584 -1.69629
310 1 38.1163 19.1381 -0.131655 38.1163 19.1381 -0.131655
311 2 40.0589 19.1792 1.44946 40.0589 19.1792 1.44946
312 2 39.9745 19.0969 -1.81067 39.9745 19.0969 -1.81067
313 1 40.9672 17.4919 -0.16334 40.9672 17.4919 -0.16334
314 2 42.8962 17.5237 1.43451 42.8962 17.5237 1.43451
315 2 42.8395 17.4601 -1.82669 42.8395 17.4601 -1.82669
316 1 43.8181 19.1378 -0.244702 43.8181 19.1378 -0.244702
317 2 45.7286 19.1765 1.37528 45.7286 19.1765 1.37528
318 2 45.7095 19.0992 -1.88606 45.7095 19.0992 -1.88606
319 1 46.6695 17.4919 -0.221544 46.6695 17.4919 -0.221544
320 2 48.5628 17.5206 1.41867 48.5628 17.5206 1.41867
321 2 48.5779 17.4634 -1.84313 48.5779 17.4634 -1.84313
322 1 49.5208 19.1381 -0.236566 49.5208 19.1381 -0.236566
323 2 51.3958 19.1745 1.42453 51.3958 19.1745 1.42453
324 2 51.4473 19.1019 -1.83656 51.4473 19.1019 -1.83656
325 1 1.05292 20.7843 -0.227524 1.05292 20.7843 -0.227524
326 2 2.9131 20.8276 1.44996 2.9131 20.8276 1.44996
327 2 2.99367 20.7411 -1.81014 2.99367 20.7411 -1.81014
328 1 3.90387 22.4305 -0.200242 3.90387 22.4305 -0.200242
329 2 5.75448 22.4796 1.48762 5.75448 22.4796 1.48762
330 2 5.85376 22.3815 -1.7716 5.85376 22.3815 -1.7716
331 1 6.75388 20.7852 -0.0632339 6.75388 20.7852 -0.0632339
332 2 8.60236 20.8282 1.62712 8.60236 20.8282 1.62712
333 2 8.70583 20.7423 -1.63229 8.70583 20.7423 -1.63229
334 1 9.60448 22.4316 -0.0157518 9.60448 22.4316 -0.0157518
335 2 11.456 22.4806 1.67107 11.456 22.4806 1.67107
336 2 11.5538 22.3825 -1.58813 11.5538 22.3825 -1.58813
337 1 12.4548 20.7861 0.119751 12.4548 20.7861 0.119751
338 2 14.3167 20.8293 1.79523 14.3167 20.8293 1.79523
339 2 14.3945 20.7428 -1.46479 14.3945 20.7428 -1.46479
340 1 15.3062 22.4324 0.144185 15.3062 22.4324 0.144185
341 2 17.1826 22.4816 1.80311 17.1826 22.4816 1.80311
342 2 17.2321 22.3831 -1.45713 17.2321 22.3831 -1.45713
343 1 18.1578 20.7866 0.23732 18.1578 20.7866 0.23732
344 2 20.0531 20.8306 1.87478 20.0531 20.8306 1.87478
345 2 20.0654 20.7424 -1.38606 20.0654 20.7424 -1.38606
346 1 21.01 22.4327 0.203293 21.01 22.4327 0.203293
347 2 22.9244 22.4824 1.81809 22.9244 22.4824 1.81809
348 2 22.8984 22.3826 -1.44237 22.8984 22.3826 -1.44237
349 1 23.8622 20.7865 0.230748 23.8622 20.7865 0.230748
350 2 25.7948 20.832 1.82389 25.7948 20.832 1.82389
351 2 25.7319 20.7405 -1.4363 25.7319 20.7405 -1.4363
352 1 26.7137 22.432 0.129148 26.7137 22.432 0.129148
353 2 28.66 22.4828 1.70515 28.66 22.4828 1.70515
354 2 28.5686 22.3807 -1.5541 28.5686 22.3807 -1.5541
355 1 29.565 20.7856 0.100503 29.565 20.7856 0.100503
356 2 31.5199 20.8328 1.66601 31.5199 20.8328 1.66601
357 2 31.4106 20.7379 -1.59292 31.4106 20.7379 -1.59292
358 1 32.415 22.4308 -0.0433631 32.415 22.4308 -0.0433631
359 2 34.3714 22.4825 1.52014 34.3714 22.4825 1.52014
360 2 34.2588 22.3787 -1.73844 34.2588 22.3787 -1.73844
361 1 35.2656 20.7844 -0.0893896 35.2656 20.7844 -0.0893896
362 2 37.2177 20.8322 1.47963 37.2177 20.8322 1.47963
363 2 37.1138 20.7364 -1.77952 37.1138 20.7364 -1.77952
364 1 38.1156 22.4296 -0.228685 38.1156 22.4296 -0.228685
365 2 40.0565 22.4813 1.35417 40.0565 22.4813 1.35417
366 2 39.9758 22.378 -1.90541 39.9758 22.378 -1.90541
367 1 40.9667 20.7837 -0.24675 40.9667 20.7837 -0.24675
368 2 42.8936 20.8303 1.35341 42.8936 20.8303 1.35341
369 2 42.8415 20.7371 -1.90711 42.8415 20.7371 -1.90711
370 1 43.8178 22.4292 -0.339095 43.8178 22.4292 -0.339095
371 2 45.7261 22.4798 1.28325 45.7261 22.4798 1.28325
372 2 45.7118 22.3788 -1.9774 45.7118 22.3788 -1.9774
373 1 46.6695 20.7836 -0.299956 46.6695 20.7836 -0.299956
374 2 48.5604 20.8284 1.34271 48.5604 20.8284 1.34271
375 2 48.5805 20.7392 -1.9183 48.5805 20.7392 -1.9183
376 1 49.5211 22.4296 -0.326931 49.5211 22.4296 -0.326931
377 2 51.394 22.4792 1.33612 51.394 22.4792 1.33612
378 2 51.4497 22.3803 -1.92414 51.4497 22.3803 -1.92414
379 1 1.05341 24.0756 -0.32768 1.05341 24.0756 -0.32768
380 2 2.91201 24.1286 1.35132 2.91201 24.1286 1.35132
381 2 2.9959 24.0229 -1.90809 2.9959 24.0229 -1.90809
382 1 3.9046 25.7217 -0.307358 3.9046 25.7217 -0.307358
383 2 5.75385 25.7763 1.38182 5.75385 25.7763 1.38182
384 2 5.85593 25.6674 -1.87694 5.85593 25.6674 -1.87694
385 1 6.75461 24.0767 -0.16256 6.75461 24.0767 -0.16256
386 2 8.60173 24.1297 1.52893 8.60173 24.1297 1.52893
387 2 8.70786 24.0238 -1.7298 8.70786 24.0238 -1.7298
388 1 9.6053 25.7229 -0.123047 9.6053 25.7229 -0.123047
389 2 11.4553 25.7775 1.56514 11.4553 25.7775 1.56514
390 2 11.5559 25.6684 -1.69365 11.5559 25.6684 -1.69365
391 1 12.4554 24.0778 0.0204186 12.4554 24.0778 0.0204186
392 2 14.316 24.1307 1.69691 14.316 24.1307 1.69691
393 2 14.3962 24.0249 -1.56254 14.3962 24.0249 -1.56254
394 1 15.3067 25.7239 0.0369886 15.3067 25.7239 0.0369886
395 2 17.1814 25.778 1.6974 17.1814 25.778 1.6974
396 2 17.2339 25.6696 -1.56256 17.2339 25.6696 -1.56256
397 1 18.158 24.0784 0.137577 18.158 24.0784 0.137577
398 2 20.0522 24.1312 1.77588 20.0522 24.1312 1.77588
399 2 20.0665 24.0255 -1.48451 20.0665 24.0255 -1.48451
400 1 21.01 25.7241 0.0963168 21.01 25.7241 0.0963168
401 2 22.9229 25.7776 1.71248 22.9229 25.7776 1.71248
402 2 22.8995 25.6703 -1.54785 22.8995 25.6703 -1.54785
403 1 23.862 24.0782 0.129735 23.862 24.0782 0.129735
404 2 25.7937 24.1311 1.72338 25.7937 24.1311 1.72338
405 2 25.7321 24.0249 -1.53646 25.7321 24.0249 -1.53646
406 1 26.7132 25.7234 0.0216678 26.7132 25.7234 0.0216678
407 2 28.6583 25.7765 1.59883 28.6583 25.7765 1.59883
408 2 28.569 25.6698 -1.66038 28.569 25.6698 -1.66038
409 1 29.5643 24.0772 -0.00287615 29.5643 24.0772 -0.00287615
410 2 31.5184 24.1305 1.56322 31.5184 24.1305 1.56322
411 2 31.4105 24.0234 -1.69541 31.4105 24.0234 -1.69541
412 1 32.4142 25.7221 -0.151889 32.4142 25.7221 -0.151889
413 2 34.3693 25.7752 1.41297 34.3693 25.7752 1.41297
414 2 34.2592 25.6687 -1.84561 34.2592 25.6687 -1.84561
415 1 35.2648 24.0758 -0.194553 35.2648 24.0758 -0.194553
416 2 37.2157 24.1295 1.37579 37.2157 24.1295 1.37579
417 2 37.1144 24.022 -1.88305 37.1144 24.022 -1.88305
418 1 38.1149 25.7209 -0.337599 38.1149 25.7209 -0.337599
419 2 40.0543 25.7742 1.24698 40.0543 25.7742 1.24698
420 2 39.9768 25.6677 -2.01252 39.9768 25.6677 -2.01252
421 1 40.9662 24.0749 -0.351405 40.9662 24.0749 -0.351405
422 2 42.8913 24.1284 1.25078 42.8913 24.1284 1.25078
423 2 42.8431 24.0216 -2.00931 42.8431 24.0216 -2.00931
424 1 43.8176 25.7204 -0.447336 43.8176 25.7204 -0.447336
425 2 45.7242 25.7741 1.17686 45.7242 25.7741 1.17686
426 2 45.7135 25.6671 -2.08353 45.7135 25.6671 -2.08353
427 1 46.6695 24.0749 -0.402252 46.6695 24.0749 -0.402252
428 2 48.5585 24.128 1.24243 48.5585 24.128 1.24243
429 2 48.5827 24.0221 -2.01796 48.5827 24.0221 -2.01796
430 1 49.5214 25.7208 -0.43424 49.5214 25.7208 -0.43424
431 2 51.3929 25.7749 1.23037 51.3929 25.7749 1.23037
432 2 51.4518 25.667 -2.02948 51.4518 25.667 -2.02948
433 1 1.05399 27.3669 -0.436908 1.05399 27.3669 -0.436908
434 2 2.91151 27.4201 1.24332 2.91151 27.4201 1.24332
435 2 2.99778 27.3139 -2.01596 2.99778 27.3139 -2.01596
436 1 3.90538 29.0131 -0.414887 3.90538 29.0131 -0.414887
437 2 5.75368 29.0634 1.27546 5.75368 29.0634 1.27546
438 2 5.85776 28.9631 -1.98349 5.85776 28.9631 -1.98349
439 1 6.75549 27.3679 -0.272884 6.75549 27.3679 -0.272884
440 2 8.60123 27.4218 1.42003 8.60123 27.4218 1.42003
441 2 8.71008 27.3143 -1.83856 8.71008 27.3143 -1.83856
442 1 9.6062 29.0142 -0.231985 9.6062 29.0142 -0.231985
443 2 11.4546 29.0648 1.45794 11.4546 29.0648 1.45794
444 2 11.5582 28.9637 -1.80105 11.5582 28.9637 -1.80105
445 1 12.4562 27.369 -0.0901817 12.4562 27.369 -0.0901817
446 2 14.315 27.4227 1.5881 14.315 27.4227 1.5881
447 2 14.3984 27.3155 -1.67128 14.3984 27.3155 -1.67128
448 1 15.3073 29.015 -0.0715906 15.3073 29.015 -0.0715906
449 2 17.1799 29.0649 1.59111 17.1799 29.0649 1.59111
450 2 17.2362 28.9652 -1.66914 17.2362 28.9652 -1.66914
451 1 18.1583 27.3697 0.0277579 18.1583 27.3697 0.0277579
452 2 20.0505 27.4223 1.66809 20.0505 27.4223 1.66809
453 2 20.0684 27.3169 -1.59238 20.0684 27.3169 -1.59238
454 1 21.01 29.0153 -0.0104449 21.01 29.0153 -0.0104449
455 2 22.9207 29.0635 1.60828 22.9207 29.0635 1.60828
456 2 22.9014 28.9669 -1.6525 22.9014 28.9669 -1.6525
457 1 23.8617 27.3695 0.0210294 23.8617 27.3695 0.0210294
458 2 25.7917 27.4209 1.61661 25.7917 27.4209 1.61661
459 2 25.7333 27.3177 -1.64346 25.7333 27.3177 -1.64346
460 1 26.7127 29.0147 -0.0828423 26.7127 29.0147 -0.0828423
461 2 28.6558 29.0611 1.4968 28.6558 29.0611 1.4968
462 2 28.5704 28.9679 -1.76299 28.5704 28.9679 -1.76299
463 1 29.5636 27.3684 -0.110968 29.5636 27.3684 -0.110968
464 2 31.5162 27.4189 1.45694 31.5162 27.4189 1.45694
465 2 31.4113 27.3175 -1.80199 31.4113 27.3175 -1.80199
466 1 32.4134 29.0135 -0.254618 32.4134 29.0135 -0.254618
467 2 34.367 29.0589 1.3124 34.367 29.0589 1.3124
468 2 34.2602 28.968 -1.94676 34.2602 28.968 -1.94676
469 1 35.264 27.3671 -0.302435 35.264 27.3671 -0.302435
470 2 37.2135 27.4175 1.26966 37.2135 27.4175 1.26966
471 2 37.1152 27.3167 -1.98945 37.1152 27.3167 -1.98945
472 1 38.1142 29.0125 -0.439671 38.1142 29.0125 -0.439671
473 2 40.0526 29.0581 1.14653 40.0526 29.0581 1.14653
474 2 39.9775 28.9671 -2.11345 39.9775 28.9671 -2.11345
475 1 40.9657 27.3663 -0.459332 40.9657 27.3663 -0.459332
476 2 42.8895 27.4173 1.14449 42.8895 27.4173 1.14449
477 2 42.8442 27.3156 -2.11573 42.8442 27.3156 -2.11573
478 1 43.8173 29.0121 -0.550324 43.8173 29.0121 -0.550324
479 2 45.7232 29.059 1.07502 45.7232 29.059 1.07502
480 2 45.7144 28.9654 -2.1857 45.7144 28.9654 -2.1857
481 1 46.6695 27.3662 -0.510554 46.6695 27.3662 -0.510554
482 2 48.5574 27.4183 1.13554 48.5574 27.4183 1.13554
483 2 48.5843 27.3145 -2.12482 48.5843 27.3145 -2.12482
484 1 49.5217 29.0123 -0.539322 49.5217 29.0123 -0.539322
485 2 51.3926 29.0612 1.12622 51.3926 29.0612 1.12622
486 2 51.453 28.9638 -2.13386 51.453 28.9638 -2.13386
487 1 1.05453 30.6587 -0.535468 1.05453 30.6587 -0.535468
488 2 2.91174 30.7025 1.1454 2.91174 30.7025 1.1454
489 2 2.99886 30.6152 -2.11435 2.99886 30.6152 -2.11435
490 1 3.90604 32.3052 -0.503313 3.90604 32.3052 -0.503313
491 2 5.75406 32.3421 1.18768 5.75406 32.3421 1.18768
492 2 5.85883 32.2687 -2.07193 5.85883 32.2687 -2.07193
493 1 6.75634 30.6595 -0.374468 6.75634 30.6595 -0.374468
494 2 8.60105 30.7045 1.31978 8.60105 30.7045 1.31978
495 2 8.71194 30.6147 -1.93927 8.71194 30.6147 -1.93927
496 1 9.60699 32.306 -0.322966 9.60699 32.306 -0.322966
497 2 11.4541 32.3434 1.36858 11.4541 32.3434 1.36858
498 2 11.5601 32.2687 -1.89107 11.5601 32.2687 -1.89107
499 1 12.4569 30.6604 -0.192612 12.4569 30.6604 -0.192612
500 2 14.3139 30.7052 1.4878 14.3139 30.7052 1.4878
501 2 14.4007 30.6157 -1.77207 14.4007 30.6157 -1.77207
502 1 15.3078 32.3066 -0.162275 15.3078 32.3066 -0.162275
503 2 17.1784 32.3432 1.50293 17.1784 32.3432 1.50293
504 2 17.2385 32.2702 -1.75801 17.2385 32.2702 -1.75801
505 1 18.1586 30.661 -0.0732083 18.1586 30.661 -0.0732083
506 2 20.0485 30.7043 1.56989 20.0485 30.7043 1.56989
507 2 20.0707 30.6176 -1.69119 20.0707 30.6176 -1.69119
508 1 21.0101 32.3068 -0.098279 21.0101 32.3068 -0.098279
509 2 22.9181 32.3411 1.52359 22.9181 32.3411 1.52359
510 2 22.9037 32.2724 -1.73799 22.9037 32.2724 -1.73799
511 1 23.8614 30.6608 -0.0768404 23.8614 30.6608 -0.0768404
512 2 25.789 30.7018 1.52175 25.789 30.7018 1.52175
513 2 25.7353 30.6195 -1.73907 25.7353 30.6195 -1.73907
514 1 26.7123 32.3064 -0.166229 26.7123 32.3064 -0.166229
515 2 28.6529 32.3379 1.41664 28.6529 32.3379 1.41664
516 2 28.5724 32.2747 -1.84404 28.5724 32.2747 -1.84404
517 1 29.563 30.66 -0.205384 29.563 30.66 -0.205384
518 2 31.5135 30.6989 1.36527 31.5135 30.6989 1.36527
519 2 31.4127 30.6208 -1.89446 31.4127 30.6208 -1.89446
520 1 32.4129 32.3056 -0.333741 32.4129 32.3056 -0.333741
521 2 34.3647 32.3351 1.2358 34.3647 32.3351 1.2358
522 2 34.2616 32.276 -2.02421 34.2616 32.276 -2.02421
523 1 35.2633 30.659 -0.394478 35.2633 30.659 -0.394478
524 2 37.2115 30.6971 1.17958 37.2115 30.6971 1.17958
525 2 37.1161 30.6209 -2.08026 37.1161 30.6209 -2.08026
526 1 38.1138 32.3049 -0.516953 38.1138 32.3049 -0.516953
527 2 40.0514 32.3346 1.07047 40.0514 32.3346 1.07047
528 2 39.978 32.2754 -2.19023 39.978 32.2754 -2.19023
529 1 40.9653 30.6583 -0.551481 40.9653 30.6583 -0.551481
530 2 42.8886 30.6976 1.05336 42.8886 30.6976 1.05336
531 2 42.8446 30.6194 -2.20746 42.8446 30.6194 -2.20746
532 1 43.8172 32.3046 -0.629512 43.8172 32.3046 -0.629512
533 2 45.7233 32.3364 0.996028 45.7233 32.3364 0.996028
534 2 45.7143 32.2731 -2.26536 45.7143 32.2731 -2.26536
535 1 46.6696 30.6582 -0.605331 46.6696 30.6582 -0.605331
536 2 48.5573 30.6998 1.04128 48.5573 30.6998 1.04128
537 2 48.5848 30.617 -2.2196 48.5848 30.617 -2.2196
538 1 49.5219 32.3047 -0.62306 49.5219 32.3047 -0.62306
539 2 51.3932 32.3394 1.04248 51.3932 32.3394 1.04248