ITEM: TIMESTEP
84000
ITEM: NUMBER OF ATOMS
810
ITEM: BOX BOUNDS pp pp pp
8.5524014299398599e-01 5.2162364857004995e+01
8.1317840879130077e-01 5.0203036591207649e+01
-1.0000000000000000e+01 1.0000000000000000e+01
ITEM: ATOMS id type x y z xu yu zu
1 1 1.05895 1.02791 0.0911371 1.05895 1.02791 0.0911371
2 2 3.02916 1.06886 1.63733 3.02916 1.06886 1.63733
3 2 2.88801 0.986189 -1.62077 2.88801 0.986189 -1.62077
4 1 3.90801 2.67298 -0.0749575 3.90801 2.67298 -0.0749575
5 2 5.88726 2.70869 1.45977 5.88726 2.70869 1.45977
6 2 5.72688 2.63683 -1.7977 5.72688 2.63683 -1.7977
7 1 6.75693 1.02606 -0.179515 6.75693 1.02606 -0.179515
8 2 8.73722 1.06829 1.35396 8.73722 1.06829 1.35396
9 2 8.57477 0.983569 -1.90305 8.57477 0.983569 -1.90305
10 1 9.60505 2.67151 -0.364944 9.60505 2.67151 -0.364944
11 2 11.5765 2.70878 1.18027 11.5765 2.70878 1.18027
12 2 11.433 2.63435 -2.07783 11.433 2.63435 -2.07783
13 1 12.4548 1.02476 -0.45302 12.4548 1.02476 -0.45302
14 2 14.4091 1.06827 1.11404 14.4091 1.06827 1.11404
15 2 14.3016 0.981635 -2.14516 14.3016 0.981635 -2.14516
16 1 15.3053 2.67083 -0.590716 15.3053 2.67083 -0.590716
17 2 17.2356 2.71165 1.00612 17.2356 2.71165 1.00612
18 2 17.1778 2.63062 -2.25443 17.1778 2.63062 -2.25443
19 1 18.1575 1.02467 -0.599951 18.1575 1.02467 -0.599951
20 2 20.0594 1.06951 1.03064 20.0594 1.06951 1.03064
21 2 20.0589 0.980758 -2.23028 20.0589 0.980758 -2.23028
22 1 21.01 2.67129 -0.644737 21.01 2.67129 -0.644737
23 2 22.8834 2.71643 1.01873 22.8834 2.71643 1.01873
24 2 22.9395 2.62709 -2.24166 22.9395 2.62709 -2.24166
25 1 23.8619 1.02593 -0.549724 23.8619 1.02593 -0.549724
26 2 25.709 1.07162 1.1427 25.709 1.07162 1.1427
27 2 25.8158 0.981309 -2.11648 25.8158 0.981309 -2.11648
28 1 26.7131 2.67288 -0.501287 26.7131 2.67288 -0.501287
29 2 28.5405 2.72088 1.21238 28.5405 2.72088 1.21238
30 2 28.6851 2.62581 -2.04517 28.6851 2.62581 -2.04517
31 1 29.562 1.02799 -0.325896 29.562 1.02799 -0.325896
32 2 31.379 1.07298 1.39864 31.379 1.07298 1.39864
33 2 31.5431 0.983681 -1.85818 31.5431 0.983681 -1.85818
34 1 32.4111 2.67497 -0.227026 32.4111 2.67497 -0.227026
35 2 34.2272 2.72238 1.49823 34.2272 2.72238 1.49823
36 2 34.393 2.62797 -1.75835 34.393 2.62797 -1.75835
37 1 35.2589 1.02981 -0.0337754 35.2589 1.02981 -0.0337754
38 2 37.0869 1.07262 1.67887 37.0869 1.07262 1.67887
39 2 37.2303 0.986891 -1.57899 37.2303 0.986891 -1.57899
40 1 38.1089 2.67635 0.0483257 38.1089 2.67635 0.0483257
41 2 39.955 2.72015 1.74097 39.955 2.72015 1.74097
42 2 40.0635 2.63209 -1.51822 40.0635 2.63209 -1.51822
43 1 40.9591 1.03041 0.187561 40.9591 1.03041 0.187561
44 2 42.8327 1.07114 1.84991 42.8327 1.07114 1.84991
45 2 42.8881 0.988849 -1.41073 42.8881 0.988849 -1.41073
46 1 43.8112 2.67619 0.193958 43.8112 2.67619 0.193958
47 2 45.7116 2.71554 1.82531 45.7116 2.71554 1.82531
48 2 45.7137 2.6358 -1.43594 45.7137 2.6358 -1.43594
49 1 46.6634 1.0296 0.235512 46.6634 1.0296 0.235512
50 2 48.5927 1.06968 1.83266 48.5927 1.06968 1.83266
51 2 48.5367 0.988471 -1.42804 48.5367 0.988471 -1.42804
52 1 49.5152 2.67477 0.144655 49.5152 2.67477 0.144655
53 2 51.467 2.71112 1.71396 51.467 2.71112 1.71396
54 2 51.3642 2.63748 -1.54585 51.3642 2.63748 -1.54585
55 1 1.05852 4.31988 0.0164905 1.05852 4.31988 0.0164905
56 2 3.02673 4.34866 1.56526 3.02673 4.34866 1.56526
57 2 2.88946 4.29049 -1.6936 2.88946 4.29049 -1.6936
58 1 3.90781 5.96532 -0.133957 3.90781 5.96532 -0.133957
59 2 5.88521 5.98436 1.40329 5.88521 5.98436 1.40329
60 2 5.72857 5.94607 -1.85496 5.72857 5.94607 -1.85496
61 1 6.7563 4.31841 -0.252335 6.7563 4.31841 -0.252335
62 2 8.73597 4.34692 1.28216 8.73597 4.34692 1.28216
63 2 8.5748 4.28986 -1.97552 8.5748 4.28986 -1.97552
64 1 9.6048 5.96442 -0.422735 9.6048 5.96442 -0.422735
65 2 11.5769 5.98567 1.1219 11.5769 5.98567 1.1219
66 2 11.4321 5.94338 -2.13669 11.4321 5.94338 -2.13669
67 1 12.4543 4.31751 -0.528387 12.4543 4.31751 -0.528387
68 2 14.4092 4.34996 1.03813 14.4092 4.34996 1.03813
69 2 14.3006 4.2854 -2.22147 14.3006 4.2854 -2.22147
70 1 15.3051 5.96398 -0.655985 15.3051 5.96398 -0.655985
71 2 17.2381 5.9929 0.937889 17.2381 5.9929 0.937889
72 2 17.1751 5.93544 -2.32298 17.1751 5.93544 -2.32298
73 1 18.1574 4.31732 -0.681917 18.1574 4.31732 -0.681917
74 2 20.0608 4.35666 0.947192 20.0608 4.35666 0.947192
75 2 20.0576 4.27864 -2.3139 20.0576 4.27864 -2.3139
76 1 21.0103 5.96406 -0.723588 21.0103 5.96406 -0.723588
77 2 22.8869 6.00299 0.936466 22.8869 6.00299 0.936466
78 2 22.937 5.92572 -2.32423 22.937 5.92572 -2.32423
79 1 23.8625 4.31811 -0.640119 23.8625 4.31811 -0.640119
80 2 25.7107 4.36428 1.05122 25.7107 4.36428 1.05122
81 2 25.8158 4.27282 -2.20788 25.8158 4.27282 -2.20788
82 1 26.7142 5.96504 -0.593815 26.7142 5.96504 -0.593815
83 2 28.5432 6.01169 1.11831 28.5432 6.01169 1.11831
84 2 28.6852 5.91921 -2.13935 28.6852 5.91921 -2.13935
85 1 29.5633 4.31987 -0.422188 29.5633 4.31987 -0.422188
86 2 31.3795 4.36918 1.30316 31.3795 4.36918 1.30316
87 2 31.5454 4.27134 -1.95329 31.5454 4.27134 -1.95329
88 1 32.4129 5.96682 -0.326175 32.4129 5.96682 -0.326175
89 2 34.2271 6.01483 1.40092 34.2271 6.01483 1.40092
90 2 34.3964 5.9194 -1.85544 34.3964 5.9194 -1.85544
91 1 35.2603 4.32175 -0.129497 35.2603 4.32175 -0.129497
92 2 37.0853 4.36866 1.5861 37.0853 4.36866 1.5861
93 2 37.2342 4.27493 -1.67134 37.2342 4.27493 -1.67134
94 1 38.1102 5.96822 -0.0467732 38.1102 5.96822 -0.0467732
95 2 39.9517 6.01029 1.65087 39.9517 6.01029 1.65087
96 2 40.0689 5.92589 -1.60818 40.0689 5.92589 -1.60818
97 1 40.9599 4.32243 0.0982465 40.9599 4.32243 0.0982465
98 2 42.8295 4.36279 1.76478 42.8295 4.36279 1.76478
99 2 42.8923 4.2813 -1.49584 42.8923 4.2813 -1.49584
100 1 43.8117 5.96809 0.111236 43.8117 5.96809 0.111236
101 2 45.7066 6.00017 1.74894 45.7066 6.00017 1.74894
102 2 45.7193 5.93509 -1.51271 45.7193 5.93509 -1.51271
103 1 46.6635 4.32153 0.154667 46.6635 4.32153 0.154667
104 2 48.5893 4.35475 1.75575 48.5893 4.35475 1.75575
105 2 48.5398 4.28729 -1.50547 48.5398 4.28729 -1.50547
106 1 49.5151 5.96674 0.0761847 49.5151 5.96674 0.0761847
107 2 51.4627 5.98986 1.65074 51.4627 5.98986 1.65074
108 2 51.3683 5.94284 -1.60989 51.3683 5.94284 -1.60989
109 1 1.05866 7.61217 -0.0313001 1.05866 7.61217 -0.0313001
110 2 3.02284 7.62294 1.52262 3.02284 7.62294 1.52262
111 2 2.89377 7.60097 -1.73707 2.89377 7.60097 -1.73707
112 1 3.90841 9.25804 -0.156343 3.90841 9.25804 -0.156343
113 2 5.88318 9.25636 1.38424 5.88318 9.25636 1.38424
114 2 5.73191 9.25967 -1.87451 5.73191 9.25967 -1.87451
115 1 6.75652 7.6113 -0.291164 6.75652 7.6113 -0.291164
116 2 8.7357 7.62048 1.24407 8.7357 7.62048 1.24407
117 2 8.57548 7.60224 -2.01411 8.57548 7.60224 -2.01411
118 1 9.60539 9.25783 -0.441157 9.60539 9.25783 -0.441157
119 2 11.5794 9.25872 1.1011 11.5794 9.25872 1.1011
120 2 11.4305 9.25718 -2.15758 11.4305 9.25718 -2.15758
121 1 12.4543 7.61095 -0.571119 12.4543 7.61095 -0.571119
122 2 14.4121 7.62636 0.992026 14.4121 7.62636 0.992026
123 2 14.2977 7.59579 -2.26783 14.2977 7.59579 -2.26783
124 1 15.3053 9.2578 -0.686725 15.3053 9.2578 -0.686725
125 2 17.2437 9.26936 0.900748 17.2437 9.26936 0.900748
126 2 17.1697 9.24637 -2.36028 17.1697 9.24637 -2.36028
127 1 18.1574 7.61074 -0.739902 18.1574 7.61074 -0.739902
128 2 20.0656 7.63763 0.883823 20.0656 7.63763 0.883823
129 2 20.0531 7.58413 -2.37766 20.0531 7.58413 -2.37766
130 1 21.0105 9.25762 -0.777503 21.0105 9.25762 -0.777503
131 2 22.8934 9.28326 0.875631 22.8934 9.28326 0.875631
132 2 22.9314 9.23215 -2.38568 22.9314 9.23215 -2.38568
133 1 23.8632 7.61093 -0.718185 23.8632 7.61093 -0.718185
134 2 25.7156 7.64953 0.96882 25.7156 7.64953 0.96882
135 2 25.8129 7.57287 -2.29082 25.8129 7.57287 -2.29082
136 1 26.7154 9.2579 -0.67129 26.7154 9.2579 -0.67129
137 2 28.5482 9.29483 1.03695 28.5482 9.29483 1.03695
138 2 28.6831 9.22151 -2.22145 28.6831 9.22151 -2.22145
139 1 29.565 7.61205 -0.515804 29.565 7.61205 -0.515804
140 2 31.3819 7.6571 1.20888 31.3819 7.6571 1.20888
141 2 31.5465 7.56773 -2.04784 31.5465 7.56773 -2.04784
142 1 32.4149 9.25906 -0.416711 32.4149 9.25906 -0.416711
143 2 34.228 9.29901 1.31184 34.228 9.29901 1.31184
144 2 34.3995 9.21972 -1.94483 34.3995 9.21972 -1.94483
145 1 35.2622 7.61364 -0.226281 35.2622 7.61364 -0.226281
146 2 37.0834 7.65627 1.49336 37.0834 7.65627 1.49336
147 2 37.2394 7.5713 -1.76402 37.2394 7.5713 -1.76402
148 1 38.1119 9.26021 -0.133062 38.1119 9.26021 -0.133062
149 2 39.9472 9.29275 1.57148 39.9472 9.29275 1.57148
150 2 40.0762 9.22764 -1.68761 40.0762 9.22764 -1.68761
151 1 40.961 7.61432 0.012528 40.961 7.61432 0.012528
152 2 42.8239 7.64669 1.68658 42.8239 7.64669 1.68658
153 2 42.8995 7.5814 -1.57421 42.8995 7.5814 -1.57421
154 1 43.8125 9.26013 0.0448037 43.8125 9.26013 0.0448037
155 2 45.699 9.27867 1.69207 45.699 9.27867 1.69207
156 2 45.7279 9.24086 -1.56997 45.7279 9.24086 -1.56997
157 1 46.6638 7.61352 0.0885129 46.6638 7.61352 0.0885129
158 2 48.583 7.63326 1.69752 48.583 7.63326 1.69752
159 2 48.5465 7.59291 -1.56441 48.5465 7.59291 -1.56441
160 1 49.5155 9.25899 0.0350626 49.5155 9.25899 0.0350626
161 2 51.4565 9.26409 1.61772 51.4565 9.26409 1.61772
162 2 51.3754 9.25324 -1.64364 51.3754 9.25324 -1.64364
163 1 1.05938 10.9047 -0.042531 1.05938 10.9047 -0.042531
164 2 3.01827 10.8951 1.51796 3.01827 10.8951 1.51796
165 2 2.90011 10.914 -1.74219 2.90011 10.914 -1.74219
166 1 3.90967 12.5508 -0.137369 3.90967 12.5508 -0.137369
167 2 5.88152 12.5284 1.40674 5.88152 12.5284 1.40674
168 2 5.73635 12.5731 -1.852 5.73635 12.5731 -1.852
169 1 6.75761 10.9044 -0.28785 6.75761 10.9044 -0.28785
170 2 8.73663 10.8921 1.24747 8.73663 10.8921 1.24747
171 2 8.57664 10.917 -2.01069 8.57664 10.917 -2.01069
172 1 9.60679 12.5512 -0.415824 9.60679 12.5512 -0.415824
173 2 11.5836 12.5311 1.12257 11.5836 12.5311 1.12257
174 2 11.4287 12.5716 -2.13559 11.4287 12.5716 -2.13559
175 1 12.4551 10.9047 -0.5725 12.4551 10.9047 -0.5725
176 2 14.4176 10.8998 0.984682 14.4176 10.8998 0.984682
177 2 14.2933 10.9098 -2.27493 14.2933 10.9098 -2.27493
178 1 15.3059 12.5518 -0.676298 15.3059 12.5518 -0.676298
179 2 17.2516 12.5434 0.90218 17.2516 12.5434 0.90218
180 2 17.1626 12.5602 -2.35851 17.1626 12.5602 -2.35851
181 1 18.1576 10.9048 -0.762873 18.1576 10.9048 -0.762873
182 2 20.0733 10.914 0.852181 20.0733 10.914 0.852181
183 2 20.0458 10.8955 -2.40956 20.0458 10.8955 -2.40956
184 1 21.0107 12.5517 -0.795971 21.0107 12.5517 -0.795971
185 2 22.9021 12.5591 0.847653 22.9021 12.5591 0.847653
186 2 22.9234 12.5442 -2.41414 22.9234 12.5442 -2.41414
187 1 23.8637 10.9046 -0.76968 23.8637 10.9046 -0.76968
188 2 25.7228 10.9284 0.91027 25.7228 10.9284 0.91027
189 2 25.8074 10.8808 -2.35022 25.8074 10.8808 -2.35022
190 1 26.7163 12.5516 -0.719298 26.7163 12.5516 -0.719298
191 2 28.5548 12.5718 0.983154 28.5548 12.5718 0.983154
192 2 28.679 12.5315 -2.2762 28.679 12.5315 -2.2762
193 1 29.5666 10.9049 -0.589959 29.5666 10.9049 -0.589959
194 2 31.3858 10.9375 1.1326 31.3858 10.9375 1.1326
195 2 31.5462 10.873 -2.12488 31.5462 10.873 -2.12488
196 1 32.4167 12.552 -0.482044 32.4167 12.552 -0.482044
197 2 34.2295 12.5765 1.24714 34.2295 12.5765 1.24714
198 2 34.4018 12.528 -2.01009 34.4018 12.528 -2.01009
199 1 35.2643 10.906 -0.30672 35.2643 10.906 -0.30672
200 2 37.0815 10.9365 1.41734 37.0815 10.9365 1.41734
201 2 37.245 10.8759 -1.84023 37.245 10.8759 -1.84023
202 1 38.1137 12.5527 -0.194712 38.1137 12.5527 -0.194712
203 2 39.9422 12.5697 1.51723 39.9422 12.5697 1.51723
204 2 40.0839 12.5357 -1.74183 40.0839 12.5357 -1.74183
205 1 40.9623 10.9065 -0.05373 40.9623 10.9065 -0.05373
206 2 42.8167 10.9248 1.62979 42.8167 10.9248 1.62979
207 2 42.9085 10.8878 -1.63108 42.9085 10.8878 -1.63108
208 1 43.8133 12.5525 0.00701695 43.8133 12.5525 0.00701695
209 2 45.6904 12.5541 1.66517 45.6904 12.5541 1.66517
210 2 45.7379 12.5502 -1.5969 45.7379 12.5502 -1.5969
211 1 46.6643 10.9058 0.0498926 46.6643 10.9058 0.0498926
212 2 48.5749 10.9081 1.6692 48.5749 10.9081 1.6692
213 2 48.5557 10.9027 -1.59316 48.5557 10.9027 -1.59316
214 1 49.5161 12.5514 0.0292067 49.5161 12.5514 0.0292067
215 2 51.4494 12.5375 1.62123 51.4494 12.5375 1.62123
216 2 51.3841 12.5647 -1.6404 51.3841 12.5647 -1.6404
217 1 1.06046 14.1972 -0.015297 1.06046 14.1972 -0.015297
218 2 3.01366 14.1691 1.55212 3.01366 14.1691 1.55212
219 2 2.90737 14.2249 -1.70802 2.90737 14.2249 -1.70802
220 1 3.91127 15.8431 -0.0810393 3.91127 15.8431 -0.0810393
221 2 5.88021 15.8044 1.46653 5.88021 15.8044 1.46653
222 2 5.74126 15.8818 -1.79186 5.74126 15.8818 -1.79186
223 1 6.75936 14.1972 -0.242582 6.75936 14.1972 -0.242582
224 2 8.73844 14.1654 1.29233 8.73844 14.1654 1.29233
225 2 8.57827 14.2293 -1.9653 8.57827 14.2293 -1.9653
226 1 9.60876 15.8439 -0.351001 9.60876 15.8439 -0.351001
227 2 11.5887 15.8064 1.18305 11.5887 15.8064 1.18305
228 2 11.4271 15.882 -2.07419 11.4271 15.882 -2.07419
229 1 12.4565 14.1982 -0.531257 12.4565 14.1982 -0.531257
230 2 14.4247 14.1735 1.01841 14.4247 14.1735 1.01841
231 2 14.2883 14.2232 -2.24038 14.2883 14.2232 -2.24038
232 1 15.3071 15.8453 -0.625563 15.3071 15.8453 -0.625563
233 2 17.2605 15.8182 0.942934 17.2605 15.8182 0.942934
234 2 17.1552 15.8726 -2.31689 17.1552 15.8726 -2.31689
235 1 18.158 14.1988 -0.745553 18.158 14.1988 -0.745553
236 2 20.0826 14.1884 0.858851 20.0826 14.1884 0.858851
237 2 20.0371 14.2092 -2.40268 20.0371 14.2092 -2.40268
238 1 21.011 15.8458 -0.774531 21.011 15.8458 -0.774531
239 2 22.9115 15.8333 0.858445 22.9115 15.8333 0.858445
240 2 22.9146 15.8583 -2.40337 22.9146 15.8583 -2.40337
241 1 23.864 14.1987 -0.784423 23.864 14.1987 -0.784423
242 2 25.7312 14.2032 0.886701 25.7312 14.2032 0.886701
243 2 25.8002 14.1941 -2.37447 25.8002 14.1941 -2.37447
244 1 26.7168 15.8456 -0.728322 26.7168 15.8456 -0.728322
245 2 28.5619 15.8454 0.967162 28.5619 15.8454 0.967162
246 2 28.6735 15.8459 -2.29289 28.6735 15.8459 -2.29289
247 1 29.5678 14.1986 -0.630676 29.5678 14.1986 -0.630676
248 2 31.3906 14.2125 1.08841 31.3906 14.2125 1.08841
249 2 31.5444 14.185 -2.16988 31.5444 14.185 -2.16988
250 1 32.4181 15.8456 -0.509814 32.4181 15.8456 -0.509814
251 2 34.2317 15.8501 1.21875 34.2317 15.8501 1.21875
252 2 34.4025 15.8413 -2.03889 34.4025 15.8413 -2.03889
253 1 35.266 14.199 -0.355908 35.266 14.199 -0.355908
254 2 37.08 14.2118 1.37186 37.08 14.2118 1.37186
255 2 37.2497 14.1865 -1.88586 37.2497 14.1865 -1.88586
256 1 38.1151 15.8456 -0.220535 38.1151 15.8456 -0.220535
257 2 39.9379 15.8443 1.49763 39.9379 15.8443 1.49763
258 2 40.0905 15.8468 -1.76111 40.0905 15.8468 -1.76111
259 1 40.9635 14.199 -0.0885313 40.9635 14.199 -0.0885313
260 2 42.8095 14.2002 1.60446 42.8095 14.2002 1.60446
261 2 42.9177 14.1976 -1.65612 42.9177 14.1976 -1.65612
262 1 43.8141 15.8449 0.00406557 43.8141 15.8449 0.00406557
263 2 45.6822 15.8299 1.67232 45.6822 15.8299 1.67232
264 2 45.7473 15.8593 -1.5893 45.7473 15.8593 -1.5893
265 1 46.665 14.1982 0.0455779 46.665 14.1982 0.0455779
266 2 48.5664 14.183 1.6756 48.5664 14.183 1.6756
267 2 48.5656 14.2125 -1.58668 48.5656 14.2125 -1.58668
268 1 49.5169 15.8437 0.0587394 49.5169 15.8437 0.0587394
269 2 51.4426 15.8139 1.65985 51.4426 15.8139 1.65985
270 2 51.3929 15.8728 -1.60161 51.3929 15.8728 -1.60161
271 1 1.06157 17.4893 0.0441043 1.06157 17.4893 0.0441043
272 2 3.00953 17.4484 1.61792 3.00953 17.4484 1.61792
273 2 2.91434 17.5296 -1.64198 2.91434 17.5296 -1.64198
274 1 3.91283 19.1351 0.00106722 3.91283 19.1351 0.00106722
275 2 5.87912 19.0875 1.55192 5.87912 19.0875 1.55192
276 2 5.74596 19.1825 -1.7062 5.74596 19.1825 -1.7062
277 1 6.76138 17.4894 -0.164231 6.76138 17.4894 -0.164231
278 2 8.74046 17.4442 1.3704 8.74046 17.4442 1.3704
279 2 8.58034 17.535 -1.88659 8.58034 17.535 -1.88659
280 1 9.61091 19.136 -0.258951 9.61091 19.136 -0.258951
281 2 11.5933 19.0879 1.27163 11.5933 19.0879 1.27163
282 2 11.4264 19.1847 -1.9848 11.4264 19.1847 -1.9848
283 1 12.4583 17.4909 -0.454474 12.4583 17.4909 -0.454474
284 2 14.432 17.4507 1.0878 14.432 17.4507 1.0878
285 2 14.2839 17.5317 -2.16989 14.2839 17.5317 -2.16989
286 1 15.3085 19.1379 -0.543219 15.3085 19.1379 -0.543219
287 2 17.2687 19.0969 1.01639 17.2687 19.0969 1.01639
288 2 17.1491 19.1796 -2.24241 17.1491 19.1796 -2.24241
289 1 18.1587 17.4923 -0.690059 18.1587 17.4923 -0.690059
290 2 20.0919 17.4638 0.90359 20.0919 17.4638 0.90359
291 2 20.0286 17.521 -2.35725 20.0286 17.521 -2.35725
292 1 21.0113 19.1393 -0.716228 21.0113 19.1393 -0.716228
293 2 22.92 19.109 0.906801 22.92 19.109 0.906801
294 2 22.9064 19.1698 -2.35458 22.9064 19.1698 -2.35458
295 1 23.8642 17.4927 -0.758808 23.8642 17.4927 -0.758808
296 2 25.7395 17.477 0.903052 25.7395 17.477 0.903052
297 2 25.7924 17.5085 -2.3583 25.7924 17.5085 -2.3583
298 1 26.717 19.1395 -0.696165 26.717 19.1395 -0.696165
299 2 28.5684 19.1189 0.992232 28.5684 19.1189 0.992232
300 2 28.6677 19.1603 -2.26799 28.6677 19.1603 -2.26799
301 1 29.5685 17.4925 -0.629986 29.5685 17.4925 -0.629986
302 2 31.3956 17.4852 1.08463 31.3956 17.4852 1.08463
303 2 31.5413 17.5 -2.17412 31.5413 17.5 -2.17412
304 1 32.4187 19.1392 -0.494798 32.4187 19.1392 -0.494798
305 2 34.2342 19.123 1.23176 34.2342 19.123 1.23176
306 2 34.4014 19.1554 -2.02592 34.4014 19.1554 -2.02592
307 1 35.2672 17.4923 -0.36476 35.2672 17.4923 -0.36476
308 2 37.0794 17.4852 1.365 37.0794 17.4852 1.365
309 2 37.2525 17.4994 -1.89259 37.2525 17.4994 -1.89259
310 1 38.1159 19.1385 -0.206252 38.1159 19.1385 -0.206252
311 2 39.9353 19.1195 1.51562 39.9353 19.1195 1.51562
312 2 40.0945 19.1573 -1.74255 40.0945 19.1573 -1.74255
313 1 40.9644 17.4917 -0.0862032 40.9644 17.4917 -0.0862032
314 2 42.8035 17.4759 1.61433 42.8035 17.4759 1.61433
315 2 42.925 17.507 -1.64561 42.925 17.507 -1.64561
316 1 43.8145 19.1373 0.0352765 43.8145 19.1373 0.0352765
317 2 45.676 19.1088 1.71101 45.676 19.1088 1.71101
318 2 45.7543 19.1649 -1.54991 45.7543 19.1649 -1.54991
319 1 46.6655 17.4905 0.0750099 46.6655 17.4905 0.0750099
320 2 48.5589 17.4612 1.71433 48.5589 17.4612 1.71433
321 2 48.5743 17.5188 -1.5475 48.5743 17.5188 -1.5475
322 1 49.5175 19.1358 0.116694 49.5175 19.1358 0.116694
323 2 51.437 19.096 1.72526 51.437 19.096 1.72526
324 2 51.4002 19.1747 -1.53589 51.4002 19.1747 -1.53589
325 1 1.06247 20.7812 0.123509 1.06247 20.7812 0.123509
326 2 3.0064 20.7353 1.70241 3.0064 20.7353 1.70241
327 2 2.91989 20.8265 -1.55739 2.91989 20.8265 -1.55739
328 1 3.91404 22.4269 0.0932515 3.91404 22.4269 0.0932515
329 2 5.87831 22.3792 1.64688 5.87831 22.3792 1.64688
330 2 5.74968 22.4744 -1.61137 5.74968 22.4744 -1.61137
331 1 6.76324 20.7812 -0.0680469 6.76324 20.7812 -0.0680469
332 2 8.74199 20.731 1.467 8.74199 20.731 1.467
333 2 8.58271 20.8317 -1.78974 8.58271 20.8317 -1.78974
334 1 9.61278 22.4278 -0.156941 9.61278 22.4278 -0.156941
335 2 11.5964 22.378 1.37208 11.5964 22.378 1.37208
336 2 11.4269 22.4782 -1.88415 11.4269 22.4782 -1.88415
337 1 12.4603 20.7829 -0.356302 12.4603 20.7829 -0.356302
338 2 14.4379 20.7345 1.18056 14.4379 20.7345 1.18056
339 2 14.2812 20.8321 -2.07633 14.2812 20.8321 -2.07633
340 1 15.31 22.4299 -0.444206 15.31 22.4299 -0.444206
341 2 17.2746 22.3823 1.10955 17.2746 22.3823 1.10955
342 2 17.1454 22.4783 -2.1486 17.1454 22.4783 -2.1486
343 1 18.1597 20.7849 -0.605963 18.1597 20.7849 -0.605963
344 2 20.0997 20.7435 0.978936 20.0997 20.7435 0.978936
345 2 20.022 20.827 -2.28112 20.022 20.827 -2.28112
346 1 21.0118 22.4318 -0.631377 21.0118 22.4318 -0.631377
347 2 22.9263 22.3894 0.984311 22.9263 22.3894 0.984311
348 2 22.9005 22.4749 -2.27654 22.9005 22.4749 -2.27654
349 1 23.8643 20.7861 -0.697011 23.8643 20.7861 -0.697011
350 2 25.7464 20.753 0.956756 25.7464 20.753 0.956756
351 2 25.7856 20.8195 -2.30434 25.7856 20.8195 -2.30434
352 1 26.7169 22.4327 -0.628613 26.7169 22.4327 -0.628613
353 2 28.5732 22.3955 1.05387 28.5732 22.3955 1.05387
354 2 28.6625 22.4701 -2.20612 28.6625 22.4701 -2.20612
355 1 29.5686 20.7861 -0.587899 29.5686 20.7861 -0.587899
356 2 31.3999 20.7591 1.12193 31.3999 20.7591 1.12193
357 2 31.5373 20.8132 -2.1368 31.5373 20.8132 -2.1368
358 1 32.4186 22.4324 -0.439969 32.4186 22.4324 -0.439969
359 2 34.2367 22.3987 1.28358 34.2367 22.3987 1.28358
360 2 34.3989 22.4659 -1.97384 34.3989 22.4659 -1.97384
361 1 35.2676 20.7855 -0.331951 35.2676 20.7855 -0.331951
362 2 37.0799 20.76 1.39762 37.0799 20.76 1.39762
363 2 37.2529 20.8107 -1.85961 37.2529 20.8107 -1.85961
364 1 38.1159 22.4312 -0.15494 38.1159 22.4312 -0.15494
365 2 39.9347 22.3978 1.56749 39.9347 22.3978 1.56749
366 2 40.0952 22.4639 -1.69013 40.0952 22.4639 -1.69013
367 1 40.9647 20.7842 -0.0479824 40.9647 20.7842 -0.0479824
368 2 42.7999 20.7547 1.65676 42.7999 20.7547 1.65676
369 2 42.9291 20.8131 -1.60245 42.9291 20.8131 -1.60245
370 1 43.8146 22.4294 0.0942561 43.8146 22.4294 0.0942561
371 2 45.6728 22.3927 1.77365 45.6728 22.3927 1.77365
372 2 45.7577 22.4652 -1.4867 45.7577 22.4652 -1.4867
373 1 46.6658 20.7825 0.131544 46.6658 20.7825 0.131544
374 2 48.5537 20.7449 1.77724 48.5537 20.7449 1.77724
375 2 48.5803 20.8192 -1.4841 48.5803 20.8192 -1.4841
376 1 49.5179 22.4277 0.191734 49.5179 22.4277 0.191734
377 2 51.4336 22.3852 1.80497 51.4336 22.3852 1.80497
378 2 51.4048 22.4693 -1.45603 51.4048 22.4693 -1.45603
379 1 1.06304 24.0732 0.208499 1.06304 24.0732 0.208499
380 2 3.00487 24.0302 1.79032 3.00487 24.0302 1.79032
381 2 2.92305 24.1156 -1.46969 2.92305 24.1156 -1.46969
382 1 3.91476 25.7192 0.179558 3.91476 25.7192 0.179558
383 2 5.87811 25.6794 1.73478 5.87811 25.6794 1.73478
384 2 5.75168 25.7588 -1.52393 5.75168 25.7588 -1.52393
385 1 6.76458 24.0732 0.0283615 6.76458 24.0732 0.0283615
386 2 8.74271 24.027 1.5645 8.74271 24.027 1.5645
387 2 8.58493 24.1195 -1.69253 8.58493 24.1195 -1.69253
388 1 9.61401 25.7198 -0.0632212 9.61401 25.7198 -0.0632212
389 2 11.5974 25.6772 1.46628 11.5974 25.6772 1.46628
390 2 11.4283 25.7629 -1.79039 11.4283 25.7629 -1.79039
391 1 12.4619 24.0747 -0.254761 12.4619 24.0747 -0.254761
392 2 14.4413 24.027 1.27985 14.4413 24.027 1.27985
393 2 14.2806 24.1232 -1.97695 14.2806 24.1232 -1.97695
394 1 15.3112 25.7217 -0.346686 15.3112 25.7217 -0.346686
395 2 17.2771 25.6764 1.20541 17.2771 25.6764 1.20541
396 2 17.1448 25.7678 -2.05284 17.1448 25.7678 -2.05284
397 1 18.1606 24.0769 -0.508578 18.1606 24.0769 -0.508578
398 2 20.1044 24.0302 1.07137 20.1044 24.0302 1.07137
399 2 20.0185 24.1246 -2.18828 20.0185 24.1246 -2.18828
400 1 21.0122 25.7238 -0.535668 21.0122 25.7238 -0.535668
401 2 22.9292 25.6771 1.07682 22.9292 25.6771 1.07682
402 2 22.8979 25.7714 -2.18385 22.8979 25.7714 -2.18385
403 1 23.8643 24.0786 -0.610313 23.8643 24.0786 -0.610313
404 2 25.7507 24.0343 1.03813 25.7507 24.0343 1.03813
405 2 25.781 24.1235 -2.22262 25.781 24.1235 -2.22262
406 1 26.7164 25.725 -0.538203 26.7164 25.725 -0.538203
407 2 28.5756 25.6783 1.14081 28.5756 25.6783 1.14081
408 2 28.659 25.7722 -2.11892 28.659 25.7722 -2.11892
409 1 29.5681 24.079 -0.512282 29.5681 24.079 -0.512282
410 2 31.403 24.0374 1.19343 31.403 24.0374 1.19343
411 2 31.5334 24.1207 -2.06502 31.5334 24.1207 -2.06502
412 1 32.4177 25.7248 -0.355506 32.4177 25.7248 -0.355506
413 2 34.2387 25.6797 1.36478 34.2387 25.6797 1.36478
414 2 34.3953 25.7697 -1.89239 34.3953 25.7697 -1.89239
415 1 35.2672 24.0781 -0.263748 35.2672 24.0781 -0.263748
416 2 37.0814 24.0389 1.46361 37.0814 24.0389 1.46361
417 2 37.2507 24.1168 -1.79325 37.2507 24.1168 -1.79325
418 1 38.1151 25.7234 -0.0759086 38.1151 25.7234 -0.0759086
419 2 39.9361 25.6815 1.64406 39.9361 25.6815 1.64406
420 2 40.0925 25.7645 -1.61333 40.0925 25.7645 -1.61333
421 1 40.9644 24.0764 0.0189511 40.9644 24.0764 0.0189511
422 2 42.7993 24.0382 1.72398 42.7993 24.0382 1.72398
423 2 42.9293 24.1137 -1.53478 42.9293 24.1137 -1.53478
424 1 43.8142 25.7215 0.170724 43.8142 25.7215 0.170724
425 2 45.6731 25.6825 1.84947 45.6731 25.6825 1.84947
426 2 45.757 25.7595 -1.41072 45.757 25.7595 -1.41072
427 1 46.6657 24.0745 0.204834 46.6657 24.0745 0.204834
428 2 48.5517 24.0348 1.85299 48.5517 24.0348 1.85299
429 2 48.5825 24.1133 -1.40812 48.5825 24.1133 -1.40812
430 1 49.518 25.7199 0.271048 49.518 25.7199 0.271048
431 2 51.4331 25.6816 1.88538 51.4331 25.6816 1.88538
432 2 51.4059 25.7574 -1.37575 51.4059 25.7574 -1.37575
433 1 1.06328 27.3658 0.285272 1.06328 27.3658 0.285272
434 2 3.00546 27.3325 1.86712 3.00546 27.3325 1.86712
435 2 2.92323 27.3985 -1.39326 2.92323 27.3985 -1.39326
436 1 3.91497 29.0122 0.246369 3.91497 29.0122 0.246369
437 2 5.8789 28.9865 1.80131 5.8789 28.9865 1.80131
438 2 5.75143 29.0376 -1.45789 5.75143 29.0376 -1.45789
439 1 6.76525 27.3657 0.108724 6.76525 27.3657 0.108724
440 2 8.74282 27.3313 1.64603 8.74282 27.3313 1.64603
441 2 8.58635 27.4001 -1.61163 8.58635 27.4001 -1.61163
442 1 9.61442 29.0125 0.00640174 9.61442 29.0125 0.00640174
443 2 11.5967 28.9844 1.53779 11.5967 28.9844 1.53779
444 2 11.43 29.0408 -1.71966 11.43 29.0408 -1.71966
445 1 12.4628 27.3668 -0.168013 12.4628 27.3668 -0.168013
446 2 14.4416 27.3284 1.36766 14.4416 27.3284 1.36766
447 2 14.282 27.4058 -1.88975 14.282 27.4058 -1.88975
448 1 15.3117 29.0138 -0.268387 15.3117 29.0138 -0.268387
449 2 17.2757 28.9791 1.28631 17.2757 28.9791 1.28631
450 2 17.147 29.0492 -1.9727 17.147 29.0492 -1.9727
451 1 18.1613 27.3687 -0.415997 18.1613 27.3687 -0.415997
452 2 20.1051 27.3254 1.16381 20.1051 27.3254 1.16381
453 2 20.0186 27.413 -2.09612 20.0186 27.413 -2.09612
454 1 21.0123 29.0156 -0.446993 21.0123 29.0156 -0.446993
455 2 22.9278 28.9733 1.1672 22.9278 28.9733 1.1672
456 2 22.899 29.0589 -2.09385 22.899 29.0589 -2.09385
457 1 23.8642 27.3705 -0.514877 23.8642 27.3705 -0.514877
458 2 25.7515 27.3232 1.13223 25.7515 27.3232 1.13223
459 2 25.7794 27.4186 -2.12848 25.7794 27.4186 -2.12848
460 1 26.7157 29.0169 -0.441637 26.7157 29.0169 -0.441637
461 2 28.5748 28.969 1.23725 28.5748 28.969 1.23725
462 2 28.6579 29.0653 -2.02251 28.6579 29.0653 -2.02251
463 1 29.5672 27.3711 -0.41707 29.5672 27.3711 -0.41707
464 2 31.404 27.3224 1.28618 31.404 27.3224 1.28618
465 2 31.5303 27.4199 -1.97211 31.5303 27.4199 -1.97211
466 1 32.4163 29.0167 -0.256641 32.4163 29.0167 -0.256641
467 2 34.2396 28.9682 1.46096 34.2396 28.9682 1.46096
468 2 34.3915 29.0651 -1.79626 34.3915 29.0651 -1.79626
469 1 35.266 27.3702 -0.172422 35.266 27.3702 -0.172422
470 2 37.0834 27.3241 1.55136 37.0834 27.3241 1.55136
471 2 37.2465 27.4157 -1.70546 37.2465 27.4157 -1.70546
472 1 38.1138 29.0153 0.0170741 38.1138 29.0153 0.0170741
473 2 39.9393 28.9721 1.73225 39.9393 28.9721 1.73225
474 2 40.0872 29.0579 -1.52543 40.0872 29.0579 -1.52543
475 1 40.9636 27.3684 0.103064 40.9636 27.3684 0.103064
476 2 42.8018 27.3279 1.80465 42.8018 27.3279 1.80465
477 2 42.9256 27.4081 -1.45417 42.9256 27.4081 -1.45417
478 1 43.8135 29.0137 0.252087 43.8135 29.0137 0.252087
479 2 45.6769 28.9787 1.92618 45.6769 28.9787 1.92618
480 2 45.7524 29.048 -1.33431 45.7524 29.048 -1.33431
481 1 46.6655 27.3667 0.282833 46.6655 27.3667 0.282833
482 2 48.5533 27.3313 1.92919 48.5533 27.3313 1.92919
483 2 48.5808 27.4015 -1.33205 48.5808 27.4015 -1.33205
484 1 49.5179 29.0126 0.342184 49.5179 29.0126 0.342184
485 2 51.4356 28.9843 1.95377 51.4356 28.9843 1.95377
486 2 51.4034 29.0404 -1.30764 51.4034 29.0404 -1.30764
487 1 1.06324 30.659 0.342158 1.06324 30.659 0.342158
488 2 3.00824 30.6404 1.92092 3.00824 30.6404 1.92092
489 2 2.9204 30.6772 -1.33973 2.9204 30.6772 -1.33973
490 1 3.91472 32.3058 0.283686 3.91472 32.3058 0.283686
491 2 5.88081 32.2981 1.83617 5.88081 32.2981 1.83617
492 2 5.74889 32.3132 -1.42319 5.74889 32.3132 -1.42319
493 1 6.76521 30.659 0.160431 6.76521 30.659 0.160431
494 2 8.74269 30.6419 1.69822 8.74269 30.6419 1.69822
495 2 8.58644 30.6759 -1.55999 8.58644 30.6759 -1.55999
496 1 9.614 32.3059 0.0408426 9.614 32.3059 0.0408426
497 2 11.5946 32.2968 1.57463 11.5946 32.2968 1.57463
498 2 11.4313 32.3148 -1.68345 11.4313 32.3148 -1.68345
499 1 12.4628 30.6595 -0.110979 12.4628 30.6595 -0.110979
500 2 14.439 30.6371 1.42834 14.439 30.6371 1.42834
501 2 14.2848 30.6821 -1.82999 14.2848 30.6821 -1.82999
502 1 15.3114 32.3064 -0.22301 15.3114 32.3064 -0.22301
503 2 17.2709 32.2884 1.3377 17.2709 32.2884 1.3377
504 2 17.1515 32.3249 -1.92227 17.1515 32.3249 -1.92227
505 1 18.1614 30.6608 -0.345248 18.1614 30.6608 -0.345248
506 2 20.1016 30.6287 1.23916 20.1016 30.6287 1.23916
507 2 20.0221 30.6936 -2.02157 20.0221 30.6936 -2.02157
508 1 21.0121 32.3077 -0.381517 21.0121 32.3077 -0.381517
509 2 22.9225 32.2772 1.23896 22.9225 32.2772 1.23896
510 2 22.9036 32.339 -2.02279 22.9036 32.339 -2.02279
511 1 23.8638 30.6623 -0.428357 23.8638 30.6623 -0.428357
512 2 25.7485 30.6205 1.22184 25.7485 30.6205 1.22184
513 2 25.7812 30.7049 -2.03922 25.7812 30.7049 -2.03922
514 1 26.7148 32.3088 -0.356358 26.7148 32.3088 -0.356358
515 2 28.5709 32.2681 1.32591 28.5709 32.2681 1.32591
516 2 28.6594 32.3499 -1.93418 28.6594 32.3499 -1.93418
517 1 29.5659 30.6629 -0.319512 29.5659 30.6629 -0.319512
518 2 31.4028 30.6158 1.38362 31.4028 30.6158 1.38362
519 2 31.5286 30.7102 -1.87483 31.5286 30.7102 -1.87483
520 1 32.4146 32.3087 -0.160923 32.4146 32.3087 -0.160923
521 2 34.2393 32.2651 1.55521 34.2393 32.2651 1.55521
522 2 34.3883 32.352 -1.70245 34.3883 32.352 -1.70245
523 1 35.2643 30.6621 -0.0741078 35.2643 30.6621 -0.0741078
524 2 37.0856 30.6171 1.6456 37.0856 30.6171 1.6456
525 2 37.2413 30.7066 -1.61163 37.2413 30.7066 -1.61163
526 1 38.1121 32.3075 0.107914 38.1121 32.3075 0.107914
527 2 39.9435 32.2703 1.817 39.9435 32.2703 1.817
528 2 40.0803 32.3443 -1.44141 40.0803 32.3443 -1.44141
529 1 40.9624 30.6606 0.190134 40.9624 30.6606 0.190134
530 2 42.8067 30.6245 1.88537 42.8067 30.6245 1.88537
531 2 42.9191 30.6962 -1.37401 42.9191 30.6962 -1.37401
532 1 43.8128 32.3064 0.325001 43.8128 32.3064 0.325001
533 2 45.6833 32.281 1.99136 45.6833 32.281 1.99136
534 2 45.745 32.3315 -1.2697 45.745 32.3315 -1.2697
535 1 46.6651 30.6595 0.353174 46.6651 30.6595 0.353174
536 2 48.5582 30.6337 1.99386 48.5582 30.6337 1.99386
537 2 48.5756 30.6849 -1.26773 48.5756 30.6849 -1.26773
538 1 49.5177 32.3059 0.394198 49.5177 32.3059 0.394198