ITEM: TIMESTEP
90000
ITEM: NUMBER OF ATOMS
810
ITEM: BOX BOUNDS pp pp pp
8.4225388429401638e-01 5.2175351115704679e+01
8.0989445497575152e-01 5.0206320545023239e+01
-1.0000000000000000e+01 1.0000000000000000e+01
ITEM: ATOMS id type x y z xu yu zu
1 1 1.0459 1.02407 -0.096583 1.0459 1.02407 -0.096583
2 2 2.94977 1.01893 1.53141 2.94977 1.01893 1.53141
3 2 2.94454 1.02919 -1.73076 2.94454 1.02919 -1.73076
4 1 3.89779 2.67061 -0.0959879 3.89779 2.67061 -0.0959879
5 2 5.80579 2.6672 1.52716 5.80579 2.6672 1.52716
6 2 5.79227 2.67401 -1.73498 5.79227 2.67401 -1.73498
7 1 6.74965 1.02405 -0.111283 6.74965 1.02405 -0.111283
8 2 8.66107 1.0186 1.50783 8.66107 1.0186 1.50783
9 2 8.64068 1.02951 -1.75427 8.64068 1.02951 -1.75427
10 1 9.60149 2.67062 -0.123646 9.60149 2.67062 -0.123646
11 2 11.5152 2.66666 1.49275 11.5152 2.66666 1.49275
12 2 11.4902 2.6746 -1.76933 11.4902 2.6746 -1.76933
13 1 12.4533 1.02409 -0.149597 12.4533 1.02409 -0.149597
14 2 14.3681 1.0181 1.46547 14.3681 1.0181 1.46547
15 2 14.3408 1.03012 -1.79658 14.3408 1.03012 -1.79658
16 1 15.3051 2.67067 -0.167457 15.3051 2.67067 -0.167457
17 2 17.219 2.66547 1.44873 17.219 2.66547 1.44873
18 2 17.1936 2.67593 -1.81334 17.1936 2.67593 -1.81334
19 1 18.1569 1.02418 -0.195012 18.1569 1.02418 -0.195012
20 2 20.0685 1.01793 1.42393 20.0685 1.01793 1.42393
21 2 20.0477 1.03049 -1.83817 20.0477 1.03049 -1.83817
22 1 21.0087 2.67077 -0.206836 21.0087 2.67077 -0.206836
23 2 22.9162 2.66436 1.41691 22.9162 2.66436 1.41691
24 2 22.9036 2.67723 -1.84523 22.9036 2.67723 -1.84523
25 1 23.8606 1.02427 -0.224351 23.8606 1.02427 -0.224351
26 2 25.7634 1.01801 1.40494 25.7634 1.01801 1.40494
27 2 25.7602 1.03056 -1.85722 25.7602 1.03056 -1.85722
28 1 26.7124 2.67084 -0.22072 26.7124 2.67084 -0.22072
29 2 28.6103 2.66365 1.41439 28.6103 2.66365 1.41439
30 2 28.6171 2.67806 -1.84776 28.6171 2.67806 -1.84776
31 1 29.5643 1.02431 -0.221991 29.5643 1.02431 -0.221991
32 2 31.4578 1.01802 1.41816 31.4578 1.01802 1.41816
33 2 31.4733 1.03059 -1.84396 31.4733 1.03059 -1.84396
34 1 32.4162 2.67085 -0.202022 32.4162 2.67085 -0.202022
35 2 34.3065 2.66355 1.44176 34.3065 2.66355 1.44176
36 2 34.3282 2.67812 -1.82032 34.3282 2.67812 -1.82032
37 1 35.268 1.02428 -0.190306 35.268 1.02428 -0.190306
38 2 37.1564 1.01815 1.45564 37.1564 1.01815 1.45564
39 2 37.1819 1.03038 -1.80642 37.1819 1.03038 -1.80642
40 1 38.1198 2.67079 -0.161745 38.1198 2.67079 -0.161745
41 2 40.0083 2.66435 1.48404 40.0083 2.66435 1.48404
42 2 40.0336 2.67718 -1.77803 40.0336 2.67718 -1.77803
43 1 40.9716 1.02421 -0.146134 40.9716 1.02421 -0.146134
44 2 42.8612 1.01854 1.49843 42.8612 1.01854 1.49843
45 2 42.8844 1.02983 -1.76365 42.8844 1.02983 -1.76365
46 1 43.8234 2.67071 -0.120111 43.8234 2.67071 -0.120111
47 2 45.7159 2.66562 1.52107 45.7159 2.66562 1.52107
48 2 45.7333 2.67575 -1.74105 45.7333 2.67575 -1.74105
49 1 46.6752 1.02413 -0.110044 46.6752 1.02413 -0.110044
50 2 48.5709 1.01887 1.52752 48.5709 1.01887 1.52752
51 2 48.5821 1.02935 -1.73463 48.5821 1.02935 -1.73463
52 1 49.5271 2.67065 -0.0949701 49.5271 2.67065 -0.0949701
53 2 51.427 2.66673 1.53765 51.427 2.66673 1.53765
54 2 51.4297 2.67453 -1.72452 51.4297 2.67453 -1.72452
55 1 1.04589 4.31718 -0.0886746 1.04589 4.31718 -0.0886746
56 2 2.95029 4.31539 1.53872 2.95029 4.31539 1.53872
57 2 2.94401 4.31896 -1.72345 2.94401 4.31896 -1.72345
58 1 3.89777 5.96374 -0.0923691 3.89777 5.96374 -0.0923691
59 2 5.80622 5.96433 1.53027 5.80622 5.96433 1.53027
60 2 5.7918 5.96315 -1.73188 5.7918 5.96315 -1.73188
61 1 6.74965 4.31717 -0.104395 6.74965 4.31717 -0.104395
62 2 8.66099 4.31566 1.51482 8.66099 4.31566 1.51482
63 2 8.64074 4.31869 -1.74729 8.64074 4.31869 -1.74729
64 1 9.60147 5.96374 -0.12061 9.60147 5.96374 -0.12061
65 2 11.5146 5.96367 1.49647 11.5146 5.96367 1.49647
66 2 11.4907 5.96382 -1.76563 11.4907 5.96382 -1.76563
67 1 12.4533 4.3172 -0.141594 12.4533 4.3172 -0.141594
68 2 14.3676 4.31426 1.47417 14.3676 4.31426 1.47417
69 2 14.3414 4.32017 -1.7879 14.3414 4.32017 -1.7879
70 1 15.3051 5.96378 -0.161534 15.3051 5.96378 -0.161534
71 2 17.2178 5.96098 1.45611 17.2178 5.96098 1.45611
72 2 17.1948 5.9666 -1.80599 17.1948 5.9666 -1.80599
73 1 18.1569 4.31726 -0.184451 18.1569 4.31726 -0.184451
74 2 20.0679 4.31201 1.43523 20.0679 4.31201 1.43523
75 2 20.0483 4.32256 -1.82688 20.0483 4.32256 -1.82688
76 1 21.0087 5.96385 -0.196211 21.0087 5.96385 -0.196211
77 2 22.9151 5.95778 1.42888 22.9151 5.95778 1.42888
78 2 22.9048 5.96997 -1.83327 22.9048 5.96997 -1.83327
79 1 23.8606 4.31735 -0.211351 23.8606 4.31735 -0.211351
80 2 25.763 4.3101 1.41839 25.763 4.3101 1.41839
81 2 25.7606 4.32464 -1.84376 25.7606 4.32464 -1.84376
82 1 26.7124 5.96392 -0.206032 26.7124 5.96392 -0.206032
83 2 28.6097 5.95564 1.42972 28.6097 5.95564 1.42972
84 2 28.6176 5.97222 -1.83241 28.6176 5.97222 -1.83241
85 1 29.5643 4.3174 -0.207412 29.5643 4.3174 -0.207412
86 2 31.4578 4.30923 1.43277 31.4578 4.30923 1.43277
87 2 31.4733 4.32556 -1.82934 31.4733 4.32556 -1.82934
88 1 32.4161 5.96393 -0.185477 32.4161 5.96393 -0.185477
89 2 34.3068 5.95541 1.45794 34.3068 5.95541 1.45794
90 2 34.3279 5.97242 -1.80413 34.3279 5.97242 -1.80413
91 1 35.268 4.31736 -0.17554 35.268 4.31736 -0.17554
92 2 37.1569 4.30982 1.46978 37.1569 4.30982 1.46978
93 2 37.1814 4.32487 -1.79228 37.1814 4.32487 -1.79228
94 1 38.1197 5.96386 -0.146469 38.1197 5.96386 -0.146469
95 2 40.0094 5.95716 1.498 40.0094 5.95716 1.498
96 2 40.0324 5.97052 -1.76407 40.0324 5.97052 -1.76407
97 1 40.9716 4.31729 -0.133104 40.9716 4.31729 -0.133104
98 2 42.8621 4.31164 1.51041 42.8621 4.31164 1.51041
99 2 42.8834 4.32288 -1.75169 42.8834 4.32288 -1.75169
100 1 43.8234 5.96379 -0.108676 43.8234 5.96379 -0.108676
101 2 45.7173 5.96001 1.53089 45.7173 5.96001 1.53089
102 2 45.7319 5.96755 -1.73125 45.7319 5.96755 -1.73125
103 1 46.6752 4.31722 -0.099756 46.6752 4.31722 -0.099756
104 2 48.5717 4.31378 1.53682 48.5717 4.31378 1.53682
105 2 48.5812 4.32063 -1.72534 48.5812 4.32063 -1.72534
106 1 49.5271 5.96375 -0.0879986 49.5271 5.96375 -0.0879986
107 2 51.4282 5.96277 1.54329 51.4282 5.96277 1.54329
108 2 51.4285 5.96472 -1.71889 51.4285 5.96472 -1.71889
109 1 1.04588 7.61031 -0.0866506 1.04588 7.61031 -0.0866506
110 2 2.95143 7.61211 1.53939 2.95143 7.61211 1.53939
111 2 2.94284 7.6085 -1.72278 2.94284 7.6085 -1.72278
112 1 3.89775 9.25687 -0.0959923 3.89775 9.25687 -0.0959923
113 2 5.80696 9.26119 1.52573 5.80696 9.26119 1.52573
114 2 5.79099 9.25254 -1.7364 5.79099 9.25254 -1.7364
115 1 6.74962 7.61031 -0.105593 6.74962 7.61031 -0.105593
116 2 8.66092 7.61288 1.51368 8.66092 7.61288 1.51368
117 2 8.64075 7.60773 -1.74843 8.64075 7.60773 -1.74843
118 1 9.60141 9.25687 -0.125875 9.60141 9.25687 -0.125875
119 2 11.5137 9.26054 1.49224 11.5137 9.26054 1.49224
120 2 11.4915 9.2532 -1.76986 11.4915 9.2532 -1.76986
121 1 12.4532 7.61031 -0.141509 12.4532 7.61031 -0.141509
122 2 14.3662 7.61077 1.47585 14.3662 7.61077 1.47585
123 2 14.3427 7.60987 -1.78625 14.3427 7.60987 -1.78625
124 1 15.305 9.25688 -0.162551 15.305 9.25688 -0.162551
125 2 17.2156 9.25683 1.45765 17.2156 9.25683 1.45765
126 2 17.1969 9.25696 -1.80448 17.1969 9.25696 -1.80448
127 1 18.1569 7.61035 -0.178852 18.1569 7.61035 -0.178852
128 2 20.066 7.6068 1.44303 20.066 7.6068 1.44303
129 2 20.0502 7.61395 -1.81911 20.0502 7.61395 -1.81911
130 1 21.0087 9.25693 -0.189079 21.0087 9.25693 -0.189079
131 2 22.9129 9.25209 1.43861 22.9129 9.25209 1.43861
132 2 22.907 9.26183 -1.82356 22.907 9.26183 -1.82356
133 1 23.8605 7.61043 -0.199071 23.8605 7.61043 -0.199071
134 2 25.7616 7.60319 1.43226 25.7616 7.60319 1.43226
135 2 25.7619 7.61771 -1.82989 25.7619 7.61771 -1.82989
136 1 26.7124 9.257 -0.191381 26.7124 9.257 -0.191381
137 2 28.6086 9.24888 1.44567 28.6086 9.24888 1.44567
138 2 28.6187 9.26513 -1.81646 28.6187 9.26513 -1.81646
139 1 29.5643 7.61047 -0.190636 29.5643 7.61047 -0.190636
140 2 31.4575 7.60162 1.44984 31.4575 7.60162 1.44984
141 2 31.4735 7.61932 -1.81226 31.4735 7.61932 -1.81226
142 1 32.4161 9.257 -0.167541 32.4161 9.257 -0.167541
143 2 34.3071 9.24854 1.47539 34.3071 9.24854 1.47539
144 2 34.3274 9.26543 -1.78669 34.3274 9.26543 -1.78669
145 1 35.2679 7.61044 -0.158287 35.2679 7.61044 -0.158287
146 2 37.1579 7.60262 1.48591 37.1579 7.60262 1.48591
147 2 37.1803 7.61821 -1.77616 37.1803 7.61821 -1.77616
148 1 38.1197 9.25694 -0.130617 38.1197 9.25694 -0.130617
149 2 40.0111 9.25092 1.51192 40.0111 9.25092 1.51192
150 2 40.0307 9.26294 -1.75019 40.0307 9.26294 -1.75019
151 1 40.9715 7.61037 -0.119515 40.9715 7.61037 -0.119515
152 2 42.8638 7.60558 1.52201 42.8638 7.60558 1.52201
153 2 42.8817 7.61512 -1.74012 42.8817 7.61512 -1.74012
154 1 43.8233 9.25689 -0.0989382 43.8233 9.25689 -0.0989382
155 2 45.7194 9.25485 1.53812 45.7194 9.25485 1.53812
156 2 45.7297 9.25892 -1.72404 45.7297 9.25892 -1.72404
157 1 46.6752 7.61032 -0.0920564 46.6752 7.61032 -0.0920564
158 2 48.5735 7.6092 1.54249 48.5735 7.6092 1.54249
159 2 48.5794 7.61142 -1.71969 48.5794 7.61142 -1.71969
160 1 49.5271 9.25687 -0.0856793 49.5271 9.25687 -0.0856793
161 2 51.43 9.25882 1.54345 51.43 9.25882 1.54345
162 2 51.4267 9.25492 -1.71873 51.4267 9.25492 -1.71873
163 1 1.04587 10.9034 -0.0905337 1.04587 10.9034 -0.0905337
164 2 2.95302 10.9083 1.53361 2.95302 10.9083 1.53361
165 2 2.94119 10.8986 -1.72854 2.94119 10.8986 -1.72854
166 1 3.89771 12.55 -0.10582 3.89771 12.55 -0.10582
167 2 5.80792 12.5571 1.51471 5.80792 12.5571 1.51471
168 2 5.78994 12.5429 -1.74739 5.78994 12.5429 -1.74739
169 1 6.74957 10.9034 -0.114358 6.74957 10.9034 -0.114358
170 2 8.66087 10.9095 1.50491 8.66087 10.9095 1.50491
171 2 8.64069 10.8974 -1.75719 8.64069 10.8974 -1.75719
172 1 9.60135 12.55 -0.138156 9.60135 12.55 -0.138156
173 2 11.5126 12.5566 1.48114 11.5126 12.5566 1.48114
174 2 11.4925 12.5433 -1.78096 11.4925 12.5433 -1.78096
175 1 12.4532 10.9034 -0.149021 12.4532 10.9034 -0.149021
176 2 14.3643 10.9071 1.47053 14.3643 10.9071 1.47053
177 2 14.3445 10.8998 -1.79159 14.3445 10.8998 -1.79159
178 1 15.305 12.55 -0.17001 15.305 12.55 -0.17001
179 2 17.2128 12.5526 1.45337 17.2128 12.5526 1.45337
180 2 17.1996 12.5474 -1.80879 17.1996 12.5474 -1.80879
181 1 18.1568 10.9035 -0.178839 18.1568 10.9035 -0.178839
182 2 20.0632 10.9021 1.44629 20.0632 10.9021 1.44629
183 2 20.0529 10.9048 -1.81588 20.0529 10.9048 -1.81588
184 1 21.0087 12.55 -0.18647 21.0087 12.55 -0.18647
185 2 22.91 12.5473 1.4446 22.91 12.5473 1.4446
186 2 22.9098 12.5528 -1.81759 22.9098 12.5528 -1.81759
187 1 23.8605 10.9035 -0.189297 23.8605 10.9035 -0.189297
188 2 25.7595 10.8974 1.44449 25.7595 10.8974 1.44449
189 2 25.764 10.9096 -1.81768 25.764 10.9096 -1.81768
190 1 26.7124 12.5501 -0.179131 26.7124 12.5501 -0.179131
191 2 28.607 12.5435 1.45967 28.607 12.5435 1.45967
192 2 28.6201 12.5567 -1.80246 28.6201 12.5567 -1.80246
193 1 29.5642 10.9035 -0.174196 29.5642 10.9035 -0.174196
194 2 31.457 10.8954 1.4668 31.457 10.8954 1.4668
195 2 31.4739 10.9117 -1.7953 31.4739 10.9117 -1.7953
196 1 32.416 12.5501 -0.151027 32.416 12.5501 -0.151027
197 2 34.3075 12.543 1.49142 34.3075 12.543 1.49142
198 2 34.3269 12.5572 -1.77068 34.3269 12.5572 -1.77068
199 1 35.2678 10.9035 -0.141135 35.2678 10.9035 -0.141135
200 2 37.159 10.8965 1.50165 37.159 10.8965 1.50165
201 2 37.1791 10.9105 -1.76045 37.1791 10.9105 -1.76045
202 1 38.1196 12.55 -0.116451 38.1196 12.55 -0.116451
203 2 40.0129 12.5454 1.52386 40.0129 12.5454 1.52386
204 2 40.0288 12.5546 -1.73827 40.0288 12.5546 -1.73827
205 1 40.9715 10.9035 -0.107258 40.9715 10.9035 -0.107258
206 2 42.866 10.9001 1.53166 42.866 10.9001 1.53166
207 2 42.8794 10.9068 -1.73049 42.8794 10.9068 -1.73049
208 1 43.8233 12.55 -0.0920069 43.8233 12.55 -0.0920069
209 2 45.722 12.5498 1.54204 45.722 12.5498 1.54204
210 2 45.7271 12.5502 -1.72014 45.7271 12.5502 -1.72014
211 1 46.6752 10.9034 -0.0878443 46.6752 10.9034 -0.0878443
212 2 48.5758 10.9046 1.54393 48.5758 10.9046 1.54393
213 2 48.5771 10.9023 -1.71825 48.5771 10.9023 -1.71825
214 1 49.5271 12.55 -0.0879096 49.5271 12.55 -0.0879096
215 2 51.4323 12.5543 1.53853 51.4323 12.5543 1.53853
216 2 51.4244 12.5457 -1.72363 51.4244 12.5457 -1.72363
217 1 1.04584 14.1965 -0.0991579 1.04584 14.1965 -0.0991579
218 2 2.95484 14.2035 1.5228 2.95484 14.2035 1.5228
219 2 2.9393 14.1896 -1.73932 2.9393 14.1896 -1.73932
220 1 3.89766 15.8431 -0.11977 3.89766 15.8431 -0.11977
221 2 5.80898 15.8517 1.49944 5.80898 15.8517 1.49944
222 2 5.78877 15.8345 -1.76263 5.78877 15.8345 -1.76263
223 1 6.74951 14.1965 -0.128786 6.74951 14.1965 -0.128786
224 2 8.6609 14.2049 1.49036 8.6609 14.2049 1.49036
225 2 8.64053 14.1882 -1.77172 8.64053 14.1882 -1.77172
226 1 9.60128 15.8431 -0.155073 9.60128 15.8431 -0.155073
227 2 11.5117 15.8515 1.46529 11.5117 15.8515 1.46529
228 2 11.4933 15.8346 -1.79681 11.4933 15.8346 -1.79681
229 1 12.4531 14.1965 -0.162527 12.4531 14.1965 -0.162527
230 2 14.3622 14.2026 1.45937 14.3622 14.2026 1.45937
231 2 14.3465 14.1904 -1.80275 14.3465 14.1904 -1.80275
232 1 15.3049 15.8431 -0.182516 15.3049 15.8431 -0.182516
233 2 17.2101 15.848 1.44403 17.2101 15.848 1.44403
234 2 17.2022 15.8382 -1.81813 17.2022 15.8382 -1.81813
235 1 18.1568 14.1965 -0.184266 18.1568 14.1965 -0.184266
236 2 20.0601 14.1977 1.44453 20.0601 14.1977 1.44453
237 2 20.056 14.1954 -1.81765 20.056 14.1954 -1.81765
238 1 21.0086 15.8431 -0.188943 21.0086 15.8431 -0.188943
239 2 22.907 15.8431 1.44564 22.907 15.8431 1.44564
240 2 22.9128 15.8432 -1.81655 22.9128 15.8432 -1.81655
241 1 23.8605 14.1966 -0.183733 23.8605 14.1966 -0.183733
242 2 25.757 14.1929 1.45294 25.757 14.1929 1.45294
243 2 25.7664 14.2004 -1.80923 25.7664 14.2004 -1.80923
244 1 26.7123 15.8432 -0.171596 26.7123 15.8432 -0.171596
245 2 28.6053 15.8394 1.46915 28.6053 15.8394 1.46915
246 2 28.6217 15.8469 -1.79299 28.6217 15.8469 -1.79299
247 1 29.5642 14.1966 -0.160882 29.5642 14.1966 -0.160882
248 2 31.4563 14.1906 1.48084 31.4563 14.1906 1.48084
249 2 31.4744 14.2027 -1.78128 31.4744 14.2027 -1.78128
250 1 32.4159 15.8432 -0.138757 32.4159 15.8432 -0.138757
251 2 34.3077 15.8386 1.5034 34.3077 15.8386 1.5034
252 2 34.3266 15.8477 -1.75872 34.3266 15.8477 -1.75872
253 1 35.2678 14.1966 -0.126726 35.2678 14.1966 -0.126726
254 2 37.1602 14.1915 1.51465 37.1602 14.1915 1.51465
255 2 37.1778 14.2017 -1.74747 37.1778 14.2017 -1.74747
256 1 38.1196 15.8431 -0.106047 38.1196 15.8431 -0.106047
257 2 40.0147 15.8406 1.5322 40.0147 15.8406 1.5322
258 2 40.027 15.8457 -1.72996 40.027 15.8457 -1.72996
259 1 40.9714 14.1966 -0.0978863 40.9714 14.1966 -0.0978863
260 2 42.8683 14.1949 1.53827 42.8683 14.1949 1.53827
261 2 42.8771 14.1982 -1.7239 42.8771 14.1982 -1.7239
262 1 43.8233 15.8431 -0.0885353 43.8233 15.8431 -0.0885353
263 2 45.7246 15.8445 1.5425 45.7246 15.8445 1.5425
264 2 45.7245 15.8417 -1.71968 45.7245 15.8417 -1.71968
265 1 46.6752 14.1966 -0.0872504 46.6752 14.1966 -0.0872504
266 2 48.5785 14.1995 1.54143 48.5785 14.1995 1.54143
267 2 48.5744 14.1936 -1.72075 48.5744 14.1936 -1.72075
268 1 49.5271 15.8431 -0.0937852 49.5271 15.8431 -0.0937852
269 2 51.4346 15.8488 1.52985 51.4346 15.8488 1.52985
270 2 51.422 15.8374 -1.73229 51.422 15.8374 -1.73229
271 1 1.04581 17.4896 -0.110681 1.04581 17.4896 -0.110681
272 2 2.95663 17.4973 1.50912 2.95663 17.4973 1.50912
273 2 2.93743 17.4819 -1.75297 2.93743 17.4819 -1.75297
274 1 3.89761 19.1362 -0.135308 3.89761 19.1362 -0.135308
275 2 5.81001 19.1448 1.48263 5.81001 19.1448 1.48263
276 2 5.78763 19.1275 -1.77943 5.78763 19.1275 -1.77943
277 1 6.74944 17.4896 -0.146191 6.74944 17.4896 -0.146191
278 2 8.66106 17.4988 1.47269 8.66106 17.4988 1.47269
279 2 8.64025 17.4804 -1.78938 8.64025 17.4804 -1.78938
280 1 9.60122 19.1361 -0.173739 9.60122 19.1361 -0.173739
281 2 11.511 19.145 1.44734 11.511 19.145 1.44734
282 2 11.4939 19.1272 -1.81475 11.4939 19.1272 -1.81475
283 1 12.4531 17.4896 -0.179657 12.4531 17.4896 -0.179657
284 2 14.3604 17.4973 1.4443 14.3604 17.4973 1.4443
285 2 14.3482 17.4819 -1.81783 14.3482 17.4819 -1.81783
286 1 15.3049 19.1361 -0.19812 15.3049 19.1361 -0.19812
287 2 17.2079 19.1428 1.43099 17.2079 19.1428 1.43099
288 2 17.2044 19.1296 -1.83117 17.2044 19.1296 -1.83117
289 1 18.1568 17.4896 -0.194362 18.1568 17.4896 -0.194362
290 2 20.0571 17.4933 1.43783 20.0571 17.4933 1.43783
291 2 20.0589 17.486 -1.82435 20.0589 17.486 -1.82435
292 1 21.0086 19.1362 -0.196481 21.0086 19.1362 -0.196481
293 2 22.9043 19.1392 1.44112 22.9043 19.1392 1.44112
294 2 22.9153 19.1333 -1.82105 22.9153 19.1333 -1.82105
295 1 23.8605 17.4897 -0.183691 23.8605 17.4897 -0.183691
296 2 25.7546 17.4892 1.45579 25.7546 17.4892 1.45579
297 2 25.7688 17.4902 -1.80637 25.7688 17.4902 -1.80637
298 1 26.7123 19.1363 -0.170576 26.7123 19.1363 -0.170576
299 2 28.6037 19.1363 1.47203 28.6037 19.1363 1.47203
300 2 28.6233 19.1363 -1.7901 28.6233 19.1363 -1.7901
301 1 29.5641 17.4897 -0.153284 29.5641 17.4897 -0.153284
302 2 31.4555 17.487 1.48933 31.4555 17.487 1.48933
303 2 31.4752 17.4925 -1.77279 31.4752 17.4925 -1.77279
304 1 32.4159 19.1363 -0.133152 32.4159 19.1363 -0.133152
305 2 34.3076 19.1352 1.50905 34.3076 19.1352 1.50905
306 2 34.3266 19.1373 -1.75308 34.3266 19.1373 -1.75308
307 1 35.2677 17.4897 -0.1175 35.2677 17.4897 -0.1175
308 2 37.161 17.4873 1.52282 37.161 17.4873 1.52282
309 2 37.1769 17.4921 -1.73932 37.1769 17.4921 -1.73932
310 1 38.1195 19.1363 -0.101202 38.1195 19.1363 -0.101202
311 2 40.0159 19.1363 1.53553 40.0159 19.1363 1.53553
312 2 40.0257 19.1362 -1.72664 40.0257 19.1362 -1.72664
313 1 40.9714 17.4897 -0.092694 40.9714 17.4897 -0.092694
314 2 42.8704 17.4899 1.54102 42.8704 17.4899 1.54102
315 2 42.875 17.4894 -1.72116 42.875 17.4894 -1.72116
316 1 43.8233 19.1362 -0.0889573 43.8233 19.1362 -0.0889573
317 2 45.7267 19.139 1.53959 45.7267 19.139 1.53959
318 2 45.7224 19.1334 -1.72258 45.7224 19.1334 -1.72258
319 1 46.6752 17.4897 -0.0899609 46.6752 17.4897 -0.0899609
320 2 48.5809 17.4938 1.5358 48.5809 17.4938 1.5358
321 2 48.5719 17.4855 -1.72636 48.5719 17.4855 -1.72636
322 1 49.5271 19.1362 -0.102068 49.5271 19.1362 -0.102068
323 2 51.4367 19.1424 1.51909 51.4367 19.1424 1.51909
324 2 51.4199 19.13 -1.74302 51.4199 19.13 -1.74302
325 1 1.04578 20.7827 -0.123127 1.04578 20.7827 -0.123127
326 2 2.9581 20.79 1.49489 2.9581 20.79 1.49489
327 2 2.93588 20.7754 -1.76719 2.93588 20.7754 -1.76719
328 1 3.89758 22.4292 -0.150005 3.89758 22.4292 -0.150005
329 2 5.81083 22.4367 1.46691 5.81083 22.4367 1.46691
330 2 5.78672 22.4218 -1.79515 5.78672 22.4218 -1.79515
331 1 6.74939 20.7827 -0.163683 6.74939 20.7827 -0.163683
332 2 8.66134 20.7913 1.45481 8.66134 20.7913 1.45481
333 2 8.63986 20.774 -1.80726 8.63986 20.774 -1.80726
334 1 9.60118 22.4292 -0.191247 9.60118 22.4292 -0.191247
335 2 11.5107 22.4372 1.43009 11.5107 22.4372 1.43009
336 2 11.4941 22.4212 -1.83202 11.4941 22.4212 -1.83202
337 1 12.453 20.7827 -0.197698 12.453 20.7827 -0.197698
338 2 14.3592 20.7908 1.42762 14.3592 20.7908 1.42762
339 2 14.3493 20.7746 -1.83451 14.3493 20.7746 -1.83451
340 1 15.3049 22.4292 -0.214515 15.3049 22.4292 -0.214515
341 2 17.2066 22.4366 1.4161 17.2066 22.4366 1.4161
342 2 17.2057 22.4219 -1.84605 17.2057 22.4219 -1.84605
343 1 18.1567 20.7827 -0.207784 18.1567 20.7827 -0.207784
344 2 20.055 20.7885 1.4269 20.055 20.7885 1.4269
345 2 20.061 20.777 -1.83526 20.061 20.777 -1.83526
346 1 21.0086 22.4293 -0.208263 21.0086 22.4293 -0.208263
347 2 22.9026 22.435 1.43133 22.9026 22.435 1.43133
348 2 22.9171 22.4237 -1.8308 22.9171 22.4237 -1.8308
349 1 23.8604 20.7828 -0.189722 23.8604 20.7828 -0.189722
350 2 25.7526 20.7859 1.45203 25.7526 20.7859 1.45203
351 2 25.7707 20.7798 -1.81011 25.7707 20.7798 -1.81011
352 1 26.7123 22.4294 -0.176815 26.7123 22.4294 -0.176815
353 2 28.6024 22.4333 1.46725 28.6024 22.4333 1.46725
354 2 28.6246 22.4254 -1.79485 28.6246 22.4254 -1.79485
355 1 29.5641 20.7828 -0.153256 29.5641 20.7828 -0.153256
356 2 31.4546 20.7841 1.49035 31.4546 20.7841 1.49035
357 2 31.476 20.7816 -1.77177 31.476 20.7816 -1.77177
358 1 32.4159 22.4294 -0.135721 32.4159 22.4294 -0.135721
359 2 34.3072 22.4323 1.50691 34.3072 22.4323 1.50691
360 2 34.327 22.4265 -1.75521 34.327 22.4265 -1.75521
361 1 35.2677 20.7828 -0.115382 35.2677 20.7828 -0.115382
362 2 37.1614 20.7838 1.52447 37.1614 20.7838 1.52447
363 2 37.1764 20.7818 -1.73768 37.1764 20.7818 -1.73768
364 1 38.1195 22.4294 -0.103217 38.1195 22.4294 -0.103217
365 2 40.0165 22.4323 1.53286 40.0165 22.4323 1.53286
366 2 40.0251 22.4264 -1.7293 40.0251 22.4264 -1.7293
367 1 40.9714 20.7828 -0.0927467 40.9714 20.7828 -0.0927467
368 2 42.8718 20.7851 1.53932 42.8718 20.7851 1.53932
369 2 42.8735 20.7805 -1.72286 42.8735 20.7805 -1.72286
370 1 43.8233 22.4294 -0.0935874 43.8233 22.4294 -0.0935874
371 2 45.7279 22.4334 1.53348 45.7279 22.4334 1.53348
372 2 45.7212 22.4253 -1.72868 45.7212 22.4253 -1.72868
373 1 46.6752 20.7828 -0.095552 46.6752 20.7828 -0.095552
374 2 48.5828 20.7875 1.52799 48.5828 20.7875 1.52799
375 2 48.57 20.778 -1.73415 48.57 20.778 -1.73415
376 1 49.527 22.4293 -0.111601 49.527 22.4293 -0.111601
377 2 51.4381 22.4351 1.50787 51.4381 22.4351 1.50787
378 2 51.4184 22.4235 -1.75424 51.4184 22.4235 -1.75424
379 1 1.04576 24.0758 -0.134823 1.04576 24.0758 -0.134823
380 2 2.95897 24.0817 1.48213 2.95897 24.0817 1.48213
381 2 2.93495 24.0699 -1.77994 2.93495 24.0699 -1.77994
382 1 3.89756 25.7223 -0.161891 3.89756 25.7223 -0.161891
383 2 5.81126 25.7275 1.4545 5.81126 25.7275 1.4545
384 2 5.78625 25.7172 -1.80758 5.78625 25.7172 -1.80758
385 1 6.74936 24.0758 -0.17867 6.74936 24.0758 -0.17867
386 2 8.66167 24.0826 1.43939 8.66167 24.0826 1.43939
387 2 8.63945 24.0689 -1.82269 8.63945 24.0689 -1.82269
388 1 9.60115 25.7223 -0.205044 9.60115 25.7223 -0.205044
389 2 11.5109 25.7282 1.41608 11.5109 25.7282 1.41608
390 2 11.4939 25.7164 -1.84603 11.4939 25.7164 -1.84603
391 1 12.453 24.0757 -0.21395 12.453 24.0757 -0.21395
392 2 14.3588 24.083 1.41184 14.3588 24.083 1.41184
393 2 14.3497 24.0685 -1.8503 14.3497 24.0685 -1.8503
394 1 15.3049 25.7223 -0.229224 15.3049 25.7223 -0.229224
395 2 17.2063 25.7292 1.40166 17.2063 25.7292 1.40166
396 2 17.2059 25.7155 -1.86049 17.2059 25.7155 -1.86049
397 1 18.1567 24.0758 -0.222616 18.1567 24.0758 -0.222616
398 2 20.0539 24.0828 1.41328 20.0539 24.0828 1.41328
399 2 20.062 24.0688 -1.84887 20.062 24.0688 -1.84887
400 1 21.0086 25.7224 -0.222505 21.0086 25.7224 -0.222505
401 2 22.902 25.7298 1.41776 22.902 25.7298 1.41776
402 2 22.9177 25.715 -1.84435 22.9177 25.715 -1.84435
403 1 23.8605 24.0759 -0.201215 23.8605 24.0759 -0.201215
404 2 25.7514 24.0822 1.44187 25.7514 24.0822 1.44187
405 2 25.7719 24.0696 -1.82023 25.7719 24.0696 -1.82023
406 1 26.7123 25.7225 -0.18951 26.7123 25.7225 -0.18951
407 2 28.6017 25.7298 1.45538 28.6017 25.7298 1.45538
408 2 28.6253 25.7152 -1.80669 28.6253 25.7152 -1.80669
409 1 29.5641 24.0759 -0.161311 29.5641 24.0759 -0.161311
410 2 31.4538 24.0812 1.48321 31.4538 24.0812 1.48321
411 2 31.4768 24.0706 -1.77888 31.4768 24.0706 -1.77888
412 1 32.4159 25.7225 -0.146468 32.4159 25.7225 -0.146468
413 2 34.3066 25.7291 1.49687 34.3066 25.7291 1.49687
414 2 34.3276 25.7159 -1.76522 34.3276 25.7159 -1.76522
415 1 35.2677 24.076 -0.121326 35.2677 24.076 -0.121326
416 2 37.1612 24.0805 1.51874 37.1612 24.0805 1.51874
417 2 37.1766 24.0714 -1.74339 37.1766 24.0714 -1.74339
418 1 38.1195 25.7225 -0.112419 38.1195 25.7225 -0.112419
419 2 40.0162 25.7282 1.52398 40.0162 25.7282 1.52398
420 2 40.0254 25.7168 -1.73817 40.0254 25.7168 -1.73817
421 1 40.9714 24.0759 -0.0986808 40.9714 24.0759 -0.0986808
422 2 42.8722 24.0803 1.53286 42.8722 24.0803 1.53286
423 2 42.8731 24.0715 -1.72932 42.8731 24.0715 -1.72932
424 1 43.8233 25.7225 -0.102413 43.8233 25.7225 -0.102413
425 2 45.7281 25.7274 1.5245 45.7281 25.7274 1.5245
426 2 45.721 25.7175 -1.73766 45.721 25.7175 -1.73766
427 1 46.6752 24.0759 -0.10365 46.6752 24.0759 -0.10365
428 2 48.5837 24.0807 1.51883 48.5837 24.0807 1.51883
429 2 48.5691 24.071 -1.7433 48.5691 24.071 -1.7433
430 1 49.527 25.7224 -0.121455 49.527 25.7224 -0.121455
431 2 51.4386 25.7271 1.49749 51.4386 25.7271 1.49749
432 2 51.4179 25.7176 -1.76462 51.4179 25.7176 -1.76462
433 1 1.04576 27.3689 -0.144426 1.04576 27.3689 -0.144426
434 2 2.959 27.3726 1.47249 2.959 27.3726 1.47249
435 2 2.93491 27.3652 -1.7896 2.93491 27.3652 -1.7896
436 1 3.89756 29.0154 -0.169368 3.89756 29.0154 -0.169368
437 2 5.81112 29.0175 1.44718 5.81112 29.0175 1.44718
438 2 5.78639 29.0134 -1.81491 5.78639 29.0134 -1.81491
439 1 6.74935 27.3689 -0.189064 6.74935 27.3689 -0.189064
440 2 8.66193 27.3728 1.42868 8.66193 27.3728 1.42868
441 2 8.63918 27.3649 -1.83342 8.63918 27.3649 -1.83342
442 1 9.60115 29.0154 -0.213013 9.60115 29.0154 -0.213013
443 2 11.5114 29.0182 1.40757 11.5114 29.0182 1.40757
444 2 11.4934 29.0126 -1.85456 11.4934 29.0126 -1.85456
445 1 12.453 27.3689 -0.225944 12.453 27.3689 -0.225944
446 2 14.3591 27.3741 1.39944 14.3591 27.3741 1.39944
447 2 14.3493 27.3637 -1.86271 14.3493 27.3637 -1.86271
448 1 15.3049 29.0154 -0.239756 15.3049 29.0154 -0.239756
449 2 17.2071 29.0204 1.3902 17.2071 29.0204 1.3902
450 2 17.2051 29.0104 -1.87197 17.2051 29.0104 -1.87197
451 1 18.1567 27.3689 -0.236419 18.1567 27.3689 -0.236419
452 2 20.0541 27.3758 1.39926 20.0541 27.3758 1.39926
453 2 20.0619 27.362 -1.86289 20.0619 27.362 -1.86289
454 1 21.0086 29.0155 -0.236528 21.0086 29.0155 -0.236528
455 2 22.9027 29.023 1.40301 22.9027 29.023 1.40301
456 2 22.9171 29.0079 -1.8591 22.9171 29.0079 -1.8591
457 1 23.8605 27.3689 -0.216168 23.8605 27.3689 -0.216168
458 2 25.7513 27.3772 1.4271 25.7513 27.3772 1.4271
459 2 25.7721 27.3608 -1.83498 25.7721 27.3608 -1.83498
460 1 26.7123 29.0155 -0.206155 26.7123 29.0155 -0.206155
461 2 28.6017 29.0247 1.4387 28.6017 29.0247 1.4387
462 2 28.6253 29.0064 -1.82335 28.6253 29.0064 -1.82335
463 1 29.5641 27.369 -0.176142 29.5641 27.369 -0.176142
464 2 31.4533 27.3774 1.46899 31.4533 27.3774 1.46899
465 2 31.4774 27.3606 -1.79306 31.4774 27.3606 -1.79306
466 1 32.4159 29.0156 -0.163483 32.4159 29.0156 -0.163483
467 2 34.306 29.0246 1.48059 34.306 29.0246 1.48059
468 2 34.3283 29.0065 -1.78147 34.3283 29.0065 -1.78147
469 1 35.2677 27.3691 -0.134724 35.2677 27.3691 -0.134724
470 2 37.1605 27.3765 1.50614 37.1605 27.3765 1.50614
471 2 37.1774 27.3616 -1.75596 37.1774 27.3616 -1.75596
472 1 38.1196 29.0156 -0.127583 38.1196 29.0156 -0.127583
473 2 40.0152 29.0231 1.50998 40.0152 29.0231 1.50998
474 2 40.0264 29.0081 -1.75215 40.0264 29.0081 -1.75215
475 1 40.9714 27.369 -0.110187 40.9714 27.369 -0.110187
476 2 42.8717 27.375 1.52203 42.8717 27.375 1.52203
477 2 42.8737 27.363 -1.74013 42.8737 27.363 -1.74013
478 1 43.8233 29.0155 -0.114534 43.8233 29.0155 -0.114534
479 2 45.727 29.0207 1.51361 45.727 29.0207 1.51361
480 2 45.7221 29.0103 -1.74856 45.7221 29.0103 -1.74856
481 1 46.6752 27.369 -0.113664 46.6752 27.369 -0.113664
482 2 48.5834 27.3734 1.50918 48.5834 27.3734 1.50918
483 2 48.5694 27.3645 -1.75297 48.5694 27.3645 -1.75297
484 1 49.527 29.0155 -0.130569 49.527 29.0155 -0.130569
485 2 51.4378 29.0185 1.48921 51.4378 29.0185 1.48921
486 2 51.4187 29.0124 -1.77292 51.4187 29.0124 -1.77292
487 1 1.04577 30.662 -0.150575 1.04577 30.662 -0.150575
488 2 2.95811 30.6628 1.4674 2.95811 30.6628 1.4674
489 2 2.93584 30.6612 -1.79471 2.93584 30.6612 -1.79471
490 1 3.89759 32.3085 -0.171044 3.89759 32.3085 -0.171044
491 2 5.81042 32.3069 1.44635 5.81042 32.3069 1.44635
492 2 5.78715 32.3102 -1.81575 5.78715 32.3102 -1.81575
493 1 6.74936 30.662 -0.193182 6.74936 30.662 -0.193182
494 2 8.662 30.6623 1.42448 8.662 30.6623 1.42448
495 2 8.63913 30.6617 -1.83763 8.63913 30.6617 -1.83763
496 1 9.60118 32.3085 -0.213544 9.60118 32.3085 -0.213544
497 2 11.512 32.3075 1.40626 11.512 32.3075 1.40626
498 2 11.4928 32.3096 -1.85586 11.4928 32.3096 -1.85586
499 1 12.453 30.662 -0.231545 12.453 30.662 -0.231545
500 2 14.3601 30.6641 1.39268 14.3601 30.6641 1.39268
501 2 14.3484 30.6599 -1.86948 14.3484 30.6599 -1.86948
502 1 15.3049 32.3086 -0.243923 15.3049 32.3086 -0.243923
503 2 17.2088 32.3106 1.38409 17.2088 32.3106 1.38409
504 2 17.2035 32.3065 -1.87809 17.2035 32.3065 -1.87809
505 1 18.1568 30.662 -0.246503 18.1568 30.662 -0.246503
506 2 20.0554 30.6674 1.38763 20.0554 30.6674 1.38763
507 2 20.0606 30.6566 -1.87453 20.0606 30.6566 -1.87453
508 1 21.0087 32.3086 -0.247334 21.0087 32.3086 -0.247334
509 2 22.9044 32.3147 1.39023 22.9044 32.3147 1.39023
510 2 22.9154 32.3025 -1.87191 22.9154 32.3025 -1.87191
511 1 23.8605 30.662 -0.231456 23.8605 30.662 -0.231456
512 2 25.7522 30.6704 1.4108 25.7522 30.6704 1.4108
513 2 25.7713 30.6536 -1.85128 25.7713 30.6536 -1.85128
514 1 26.7124 32.3086 -0.223131 26.7124 32.3086 -0.223131
515 2 28.6026 32.3176 1.42079 28.6026 32.3176 1.42079
516 2 28.6246 32.2996 -1.84127 28.6246 32.2996 -1.84127
517 1 29.5642 30.6621 -0.194671 29.5642 30.6621 -0.194671
518 2 31.4532 30.6718 1.45056 31.4532 30.6718 1.45056
519 2 31.4775 30.6524 -1.81148 31.4775 30.6524 -1.81148
520 1 32.416 32.3086 -0.18323 32.416 32.3086 -0.18323
521 2 34.3056 32.3183 1.46135 34.3056 32.3183 1.46135
522 2 34.3288 32.299 -1.8007 34.3288 32.299 -1.8007
523 1 35.2678 30.6621 -0.153116 35.2678 30.6621 -0.153116
524 2 37.1596 30.6711 1.48887 37.1596 30.6711 1.48887
525 2 37.1784 30.6532 -1.77321 37.1784 30.6532 -1.77321
526 1 38.1196 32.3087 -0.145808 38.1196 32.3087 -0.145808
527 2 40.0138 32.3165 1.49349 40.0138 32.3165 1.49349
528 2 40.028 32.3008 -1.76863 40.028 32.3008 -1.76863
529 1 40.9714 30.6621 -0.125482 40.9714 30.6621 -0.125482
530 2 42.8702 30.6686 1.50848 42.8702 30.6686 1.50848
531 2 42.8752 30.6556 -1.75368 42.8752 30.6556 -1.75368
532 1 43.8233 32.3086 -0.127779 43.8233 32.3086 -0.127779
533 2 45.725 32.3129 1.50271 45.725 32.3129 1.50271
534 2 45.7241 32.3043 -1.75947 45.7241 32.3043 -1.75947
535 1 46.6752 30.6621 -0.124234 46.6752 30.6621 -0.124234
536 2 48.5819 30.6653 1.50036 48.5819 30.6653 1.50036
537 2 48.5709 30.6587 -1.7618 48.5709 30.6587 -1.7618
538 1 49.527 32.3086 -0.137363 49.527 32.3086 -0.137363