ITEM: TIMESTEP
62000
ITEM: NUMBER OF ATOMS
810
ITEM: BOX BOUNDS pp pp pp
8.5973825477479926e-01 5.2157866745223515e+01
8.3743426523897868e-01 5.0178780734760750e+01
-1.0000000000000000e+01 1.0000000000000000e+01
ITEM: ATOMS id type x y z xu yu zu
1 1 1.06551 1.05535 -0.478139 1.06551 1.05535 -0.478139
2 2 2.88723 0.941406 1.23846 2.88723 0.941406 1.23846
3 2 3.04228 1.16684 -2.01221 3.04228 1.16684 -2.01221
4 1 3.913 2.69517 -0.227179 3.913 2.69517 -0.227179
5 2 5.71933 2.59072 1.50601 5.71933 2.59072 1.50601
6 2 5.90302 2.7974 -1.74447 5.90302 2.7974 -1.74447
7 1 6.76149 1.04913 -0.170118 6.76149 1.04913 -0.170118
8 2 8.56008 0.938844 1.57073 8.56008 0.938844 1.57073
9 2 8.75868 1.15734 -1.67801 8.75868 1.15734 -1.67801
10 1 9.60703 2.689 0.115266 9.60703 2.689 0.115266
11 2 11.417 2.59068 1.84496 11.417 2.59068 1.84496
12 2 11.5945 2.7863 -1.40638 11.5945 2.7863 -1.40638
13 1 12.4562 1.04321 0.172123 12.4562 1.04321 0.172123
14 2 14.2848 0.936786 1.88139 14.2848 0.936786 1.88139
15 2 14.4273 1.14935 -1.37062 14.4273 1.14935 -1.37062
16 1 15.3055 2.68487 0.404717 15.3055 2.68487 0.404717
17 2 17.1664 2.58878 2.07953 17.1664 2.58878 2.07953
18 2 17.2474 2.78169 -1.17567 17.2474 2.78169 -1.17567
19 1 18.1583 1.04076 0.377948 18.1583 1.04076 0.377948
20 2 20.0525 0.934702 2.01405 20.0525 0.934702 2.01405
21 2 20.0678 1.1483 -1.24095 20.0678 1.1483 -1.24095
22 1 21.0115 2.68444 0.49909 21.0115 2.68444 0.49909
23 2 22.9407 2.58464 2.09447 22.9407 2.58464 2.09447
24 2 22.8862 2.78608 -1.16075 22.8862 2.78608 -1.16075
25 1 23.8643 1.04249 0.348974 23.8643 1.04249 0.348974
26 2 25.8228 0.932366 1.90708 25.8228 0.932366 1.90708
27 2 25.7071 1.1548 -1.34535 25.7071 1.1548 -1.34535
28 1 26.7166 2.68737 0.359613 26.7166 2.68737 0.359613
29 2 28.6972 2.58038 1.89001 28.6972 2.58038 1.89001
30 2 28.5352 2.79652 -1.3608 28.5352 2.79652 -1.3608
31 1 29.5649 1.04717 0.107854 29.5649 1.04717 0.107854
32 2 31.5579 0.932244 1.62119 31.5579 0.932244 1.62119
33 2 31.3688 1.16416 -1.62718 31.3688 1.16416 -1.62718
34 1 32.4144 2.69243 0.0592742 32.4144 2.69243 0.0592742
35 2 34.41 2.57998 1.56949 34.41 2.57998 1.56949
36 2 34.2151 2.80685 -1.6789 34.2151 2.80685 -1.6789
37 1 35.2602 1.05285 -0.226497 35.2602 1.05285 -0.226497
38 2 37.2471 0.936008 1.29474 37.2471 0.936008 1.29474
39 2 37.0706 1.17102 -1.95412 37.0706 1.17102 -1.95412
40 1 38.1097 2.69767 -0.262102 38.1097 2.69767 -0.262102
41 2 40.081 2.58339 1.27963 40.081 2.58339 1.27963
42 2 39.9373 2.81305 -1.97132 39.9373 2.81305 -1.97132
43 1 40.9578 1.05724 -0.503991 40.9578 1.05724 -0.503991
44 2 42.9034 0.940792 1.07023 42.9034 0.940792 1.07023
45 2 42.8138 1.17384 -2.18232 42.8138 1.17384 -2.18232
46 1 43.8095 2.70077 -0.464059 43.8095 2.70077 -0.464059
47 2 45.7265 2.58759 1.14501 45.7265 2.58759 1.14501
48 2 45.6946 2.81368 -2.10926 45.6946 2.81368 -2.10926
49 1 46.661 1.05843 -0.605662 46.661 1.05843 -0.605662
50 2 48.543 0.942911 1.04443 48.543 0.942911 1.04443
51 2 48.5817 1.17262 -2.20938 48.5817 1.17262 -2.20938
52 1 49.5124 2.69998 -0.454671 49.5124 2.69998 -0.454671
53 2 51.3636 2.58999 1.23017 51.3636 2.58999 1.23017
54 2 51.4617 2.80816 -2.02334 51.4617 2.80816 -2.02334
55 1 1.06363 4.34089 -0.257138 1.06363 4.34089 -0.257138
56 2 2.8905 4.24372 1.45465 2.8905 4.24372 1.45465
57 2 3.03479 4.43616 -1.79884 3.03479 4.43616 -1.79884
58 1 3.91106 5.98219 -0.0321133 3.91106 5.98219 -0.0321133
59 2 5.72441 5.90428 1.6949 5.72441 5.90428 1.6949
60 2 5.89428 6.05859 -1.55934 5.89428 6.05859 -1.55934
61 1 6.75901 4.33553 0.0394243 6.75901 4.33553 0.0394243
62 2 8.56358 4.24718 1.77528 8.56358 4.24718 1.77528
63 2 8.75071 4.42244 -1.47678 8.75071 4.42244 -1.47678
64 1 9.60541 5.97758 0.293021 9.60541 5.97758 0.293021
65 2 11.4212 5.90915 2.01811 11.4212 5.90915 2.01811
66 2 11.5878 6.04547 -1.23677 11.5878 6.04547 -1.23677
67 1 12.4544 4.33069 0.370448 12.4544 4.33069 0.370448
68 2 14.2875 4.24796 2.07658 14.2875 4.24796 2.07658
69 2 14.4219 4.41342 -1.17834 14.4219 4.41342 -1.17834
70 1 15.3046 5.9746 0.572349 15.3046 5.9746 0.572349
71 2 17.1678 5.90876 2.24656 17.1678 5.90876 2.24656
72 2 17.2451 6.04103 -1.01157 17.2451 6.04103 -1.01157
73 1 18.1576 4.32858 0.573302 18.1576 4.32858 0.573302
74 2 20.0534 4.24447 2.20953 20.0534 4.24447 2.20953
75 2 20.0667 4.41392 -1.0478 20.0667 4.41392 -1.0478
76 1 21.0116 5.97405 0.670546 21.0116 5.97405 0.670546
77 2 22.9396 5.90279 2.26946 22.9396 5.90279 2.26946
78 2 22.8884 6.04658 -0.988643 22.8884 6.04658 -0.988643
79 1 23.8652 4.32956 0.552872 23.8652 4.32956 0.552872
80 2 25.8232 4.23796 2.11361 25.8232 4.23796 2.11361
81 2 25.7097 4.42298 -1.141 25.7097 4.42298 -1.141
82 1 26.718 5.97578 0.546864 26.718 5.97578 0.546864
83 2 28.6963 5.89451 2.08234 28.6963 5.89451 2.08234
84 2 28.54 6.05871 -1.17162 28.54 6.05871 -1.17162
85 1 29.5676 4.33307 0.326762 29.5676 4.33307 0.326762
86 2 31.5603 4.23268 1.84192 31.5603 4.23268 1.84192
87 2 31.3723 4.4355 -1.40837 31.3723 4.4355 -1.40837
88 1 32.4172 5.97937 0.264699 32.4172 5.97937 0.264699
89 2 34.4118 5.88877 1.77782 34.4118 5.88877 1.77782
90 2 34.219 6.07182 -1.47347 34.219 6.07182 -1.47347
91 1 35.2634 4.33797 0.00341495 35.2634 4.33797 0.00341495
92 2 37.2517 4.23199 1.52362 37.2517 4.23199 1.52362
93 2 37.0718 4.4457 -1.72663 37.0718 4.4457 -1.72663
94 1 38.1124 5.9836 -0.0455804 38.1124 5.9836 -0.0455804
95 2 40.0849 5.88787 1.49566 40.0849 5.88787 1.49566
96 2 39.9378 6.08072 -1.75771 39.9378 6.08072 -1.75771
97 1 40.9599 4.3422 -0.271315 40.9599 4.3422 -0.271315
98 2 42.9083 4.23501 1.29971 42.9083 4.23501 1.29971
99 2 42.8117 4.45012 -1.95413 42.8117 4.45012 -1.95413
100 1 43.8106 5.98639 -0.246184 43.8106 5.98639 -0.246184
101 2 45.731 5.89127 1.35947 45.731 5.89127 1.35947
102 2 45.6909 6.08174 -1.89726 45.6909 6.08174 -1.89726
103 1 46.661 4.34357 -0.376706 46.661 4.34357 -0.376706
104 2 48.5469 4.23947 1.26921 48.5469 4.23947 1.26921
105 2 48.5765 4.44687 -1.98649 48.5765 4.44687 -1.98649
106 1 49.5115 5.98594 -0.244611 49.5115 5.98594 -0.244611
107 2 51.3683 5.89737 1.43483 51.3683 5.89737 1.43483
108 2 51.4544 6.07332 -1.82181 51.4544 6.07332 -1.82181
109 1 1.06234 7.62852 -0.0787973 1.06234 7.62852 -0.0787973
110 2 2.89685 7.56151 1.62589 2.89685 7.56151 1.62589
111 2 3.02574 7.6943 -1.63137 3.02574 7.6943 -1.63137
112 1 3.91005 9.27204 0.102665 3.91005 9.27204 0.102665
113 2 5.7322 9.23077 1.82142 5.7322 9.23077 1.82142
114 2 5.88492 9.31236 -1.43638 5.88492 9.31236 -1.43638
115 1 6.75769 7.62486 0.195976 6.75769 7.62486 0.195976
116 2 8.56983 7.57026 1.92521 8.56983 7.57026 1.92521
117 2 8.74242 7.6786 -1.3306 8.74242 7.6786 -1.3306
118 1 9.605 9.2694 0.403012 9.605 9.2694 0.403012
119 2 11.427 9.23918 2.1226 11.427 9.23918 2.1226
120 2 11.5817 9.29929 -1.13515 11.5817 9.29929 -1.13515
121 1 12.4538 7.62178 0.508671 12.4538 7.62178 0.508671
122 2 14.2908 7.57436 2.21205 14.2908 7.57436 2.21205
123 2 14.4178 7.66927 -1.0459 14.4178 7.66927 -1.0459
124 1 15.3046 9.26785 0.668475 15.3046 9.26785 0.668475
125 2 17.1689 9.24064 2.3427 17.1689 9.24064 2.3427
126 2 17.2442 9.29535 -0.917616 17.2442 9.29535 -0.917616
127 1 18.1574 7.62041 0.707145 18.1574 7.62041 0.707145
128 2 20.0526 7.57143 2.34587 20.0526 7.57143 2.34587
129 2 20.0676 7.67013 -0.914201 20.0676 7.67013 -0.914201
130 1 21.0116 9.26751 0.770252 21.0116 9.26751 0.770252
131 2 22.9364 9.23483 2.37454 22.9364 9.23483 2.37454
132 2 22.8921 9.30078 -0.886059 22.8921 9.30078 -0.886059
133 1 23.8657 7.62078 0.698253 23.8657 7.62078 0.698253
134 2 25.8202 7.56314 2.2653 25.8202 7.56314 2.2653
135 2 25.7145 7.67952 -0.992586 25.7145 7.67952 -0.992586
136 1 26.7186 9.26825 0.664453 26.7186 9.26825 0.664453
137 2 28.692 9.22509 2.20796 28.692 9.22509 2.20796
138 2 28.5463 9.31234 -1.04938 28.5463 9.31234 -1.04938
139 1 29.5692 7.62277 0.492918 29.5692 7.62277 0.492918
140 2 31.5585 7.55393 2.01454 31.5585 7.55393 2.01454
141 2 31.3781 7.69308 -1.23945 31.3781 7.69308 -1.23945
142 1 32.4188 9.27016 0.405478 32.4188 9.27016 0.405478
143 2 34.4096 9.21583 1.92548 34.4096 9.21583 1.92548
144 2 34.225 9.32575 -1.32959 34.225 9.32575 -1.32959
145 1 35.2659 7.62602 0.188795 35.2659 7.62602 0.188795
146 2 37.2529 7.54816 1.71237 37.2529 7.54816 1.71237
147 2 37.0755 7.70542 -1.54132 37.0755 7.70542 -1.54132
148 1 38.1143 9.27272 0.113664 38.1143 9.27272 0.113664
149 2 40.0859 9.21091 1.65772 40.0859 9.21091 1.65772
150 2 39.9403 9.33568 -1.59915 39.9403 9.33568 -1.59915
151 1 40.9618 7.62915 -0.0759724 40.9618 7.62915 -0.0759724
152 2 42.9118 7.5478 1.49422 42.9118 7.5478 1.49422
153 2 42.8109 7.71143 -1.76269 42.8109 7.71143 -1.76269
154 1 43.8115 9.27458 -0.0804197 43.8115 9.27458 -0.0804197
155 2 45.7349 9.21222 1.52293 45.7349 9.21222 1.52293
156 2 45.6879 9.33733 -1.73706 45.6879 9.33733 -1.73706
157 1 46.6611 7.63034 -0.183768 46.6611 7.63034 -0.183768
158 2 48.552 7.55282 1.45742 48.552 7.55282 1.45742
159 2 48.5706 7.70756 -1.80151 48.5706 7.70756 -1.80151
160 1 49.511 9.27437 -0.0877421 49.511 9.27437 -0.0877421
161 2 51.3748 9.21989 1.58493 51.3748 9.21989 1.58493
162 2 51.4464 9.32816 -1.67518 51.4464 9.32816 -1.67518
163 1 1.06173 10.9189 0.0311638 1.06173 10.9189 0.0311638
164 2 2.90497 10.8916 1.72725 2.90497 10.8916 1.72725
165 2 3.01659 10.9454 -1.533 3.01659 10.9454 -1.533
166 1 3.90992 12.5642 0.157567 3.90992 12.5642 0.157567
167 2 5.74091 12.5655 1.86725 5.74091 12.5655 1.86725
168 2 5.87653 12.562 -1.39237 5.87653 12.562 -1.39237
169 1 6.75743 10.917 0.278959 6.75743 10.917 0.278959
170 2 8.5777 10.9027 2.0003 8.5777 10.9027 2.0003
171 2 8.73466 10.9306 -1.25801 8.73466 10.9306 -1.25801
172 1 9.60556 12.5631 0.431593 9.60556 12.5631 0.431593
173 2 11.4332 12.5743 2.14534 11.4332 12.5743 2.14534
174 2 11.577 12.5515 -1.11341 11.577 12.5515 -1.11341
175 1 12.4541 10.9156 0.5697 12.4541 10.9156 0.5697
176 2 14.2945 10.9084 2.27001 14.2945 10.9084 2.27001
177 2 14.4149 10.9227 -0.989523 14.4149 10.9227 -0.989523
178 1 15.3053 12.5628 0.682845 15.3053 12.5628 0.682845
179 2 17.1695 12.5759 2.35715 17.1695 12.5759 2.35715
180 2 17.2446 12.5496 -0.903533 17.2446 12.5496 -0.903533
181 1 18.1577 10.9151 0.762382 18.1577 10.9151 0.762382
182 2 20.0509 10.9064 2.4041 20.0509 10.9064 2.4041
183 2 20.0697 10.9241 -0.857359 20.0697 10.9241 -0.857359
184 1 21.0117 12.5629 0.787935 21.0117 12.5629 0.787935
185 2 22.9322 12.5707 2.39759 22.9322 12.5707 2.39759
186 2 22.8964 12.5551 -0.863753 22.8964 12.5551 -0.863753
187 1 23.8657 10.9152 0.764722 23.8657 10.9152 0.764722
188 2 25.8151 10.8984 2.33912 25.8151 10.8984 2.33912
189 2 25.72 10.9325 -0.920946 25.72 10.9325 -0.920946
190 1 26.7186 12.5631 0.698628 26.7186 12.5631 0.698628
191 2 28.6861 12.5623 2.25014 28.6861 12.5623 2.25014
192 2 28.5525 12.5644 -1.00889 28.5525 12.5644 -1.00889
193 1 29.5698 10.916 0.581011 29.5698 10.916 0.581011
194 2 31.5536 10.8885 2.11117 31.5536 10.8885 2.11117
195 2 31.3849 10.9444 -1.14593 31.3849 10.9444 -1.14593
196 1 32.4193 12.5638 0.461881 32.4193 12.5638 0.461881
197 2 34.4049 12.5536 1.98957 34.4049 12.5536 1.98957
198 2 34.2313 12.5747 -1.26789 34.2313 12.5747 -1.26789
199 1 35.2673 10.9176 0.299976 35.2673 10.9176 0.299976
200 2 37.2507 10.8803 1.82965 37.2507 10.8803 1.82965
201 2 37.0806 10.9559 -1.4274 37.0806 10.9559 -1.4274
202 1 38.1154 12.5649 0.190103 38.1154 12.5649 0.190103
203 2 40.0845 12.5478 1.73834 40.0845 12.5478 1.73834
204 2 39.9438 12.5827 -1.52101 39.9438 12.5827 -1.52101
205 1 40.9631 10.9193 0.0504014 40.9631 10.9193 0.0504014
206 2 42.9132 10.8773 1.62174 42.9132 10.8773 1.62174
207 2 42.8114 10.962 -1.63826 42.8114 10.962 -1.63826
208 1 43.8122 12.5657 0.00542161 43.8122 12.5657 0.00542161
209 2 45.7375 12.5474 1.6074 45.7375 12.5474 1.6074
210 2 45.6862 12.5841 -1.65479 45.6862 12.5841 -1.65479
211 1 46.6613 10.9199 -0.0569145 46.6613 10.9199 -0.0569145
212 2 48.5572 10.8813 1.57959 48.5572 10.8813 1.57959
213 2 48.5652 10.9584 -1.68228 48.5652 10.9584 -1.68228
214 1 49.5109 12.5654 -0.00932333 49.5109 12.5654 -0.00932333
215 2 51.3817 12.5542 1.65621 51.3817 12.5542 1.65621
216 2 51.4392 12.576 -1.60597 51.4392 12.576 -1.60597
217 1 1.06181 14.211 0.0535486 1.06181 14.211 0.0535486
218 2 2.91284 14.2289 1.74114 2.91284 14.2289 1.74114
219 2 3.00926 14.1922 -1.51986 3.00926 14.1922 -1.51986
220 1 3.91065 15.8567 0.120802 3.91065 15.8567 0.120802
221 2 5.7483 15.9021 1.82263 5.7483 15.9021 1.82263
222 2 5.87111 15.8101 -1.43621 5.87111 15.8101 -1.43621
223 1 6.75809 14.2102 0.275824 6.75809 14.2102 0.275824
224 2 8.58523 14.2385 1.98958 8.58523 14.2385 1.98958
225 2 8.72894 14.181 -1.26899 8.72894 14.181 -1.26899
226 1 9.6069 15.8565 0.37352 9.6069 15.8565 0.37352
227 2 11.4379 15.9078 2.08285 11.4379 15.9078 2.08285
228 2 11.5751 15.8044 -1.17468 11.5751 15.8044 -1.17468
229 1 12.4552 14.2101 0.54678 12.4552 14.2101 0.54678
230 2 14.2975 14.243 2.24454 14.2975 14.243 2.24454
231 2 14.4139 14.1767 -1.01455 14.4139 14.1767 -1.01455
232 1 15.3064 15.8571 0.615568 15.3064 15.8571 0.615568
233 2 17.1687 15.9073 2.29104 17.1687 15.9073 2.29104
234 2 17.2471 15.8065 -0.968218 17.2471 15.8065 -0.968218
235 1 18.1582 14.2104 0.735561 18.1582 14.2104 0.735561
236 2 20.0483 14.2404 2.3804 20.0483 14.2404 2.3804
237 2 20.0729 14.1802 -0.880569 20.0729 14.1802 -0.880569
238 1 21.0119 15.8576 0.72668 21.0119 15.8576 0.72668
239 2 22.9275 15.9021 2.34122 22.9275 15.9021 2.34122
240 2 22.901 15.8131 -0.919129 22.901 15.8131 -0.919129
241 1 23.8655 14.2105 0.748618 23.8655 14.2105 0.748618
242 2 25.8096 14.2339 2.32939 25.8096 14.2339 2.32939
243 2 25.7252 14.1873 -0.930858 25.7252 14.1873 -0.930858
244 1 26.7182 15.8578 0.651136 26.7182 15.8578 0.651136
245 2 28.6807 15.8969 2.20829 28.6807 15.8969 2.20829
246 2 28.5573 15.819 -1.05028 28.5573 15.819 -1.05028
247 1 29.5697 14.2107 0.582807 29.5697 14.2107 0.582807
248 2 31.5479 14.2269 2.12017 31.5479 14.2269 2.12017
249 2 31.3907 14.1951 -1.13785 31.3907 14.1951 -1.13785
250 1 32.419 15.8579 0.429377 32.419 15.8579 0.429377
251 2 34.4003 15.893 1.96212 34.4003 15.893 1.96212
252 2 34.2356 15.8233 -1.29515 34.2356 15.8233 -1.29515
253 1 35.2676 14.2112 0.321156 35.2676 14.2112 0.321156
254 2 37.2471 14.2209 1.85642 37.2471 14.2209 1.85642
255 2 37.0854 14.2021 -1.40189 37.0854 14.2021 -1.40189
256 1 38.1155 15.858 0.170963 38.1155 15.858 0.170963
257 2 40.0821 15.89 1.72211 40.0821 15.89 1.72211
258 2 39.9466 15.8263 -1.537 39.9466 15.8263 -1.537
259 1 40.9637 14.2117 0.0857839 40.9637 14.2117 0.0857839
260 2 42.913 14.2178 1.65873 42.913 14.2178 1.65873
261 2 42.8129 14.2059 -1.60243 42.8129 14.2059 -1.60243
262 1 43.8125 15.8579 -0.00654161 43.8125 15.8579 -0.00654161
263 2 45.7386 15.8894 1.59441 45.7386 15.8894 1.59441
264 2 45.6858 15.8262 -1.66733 45.6858 15.8262 -1.66733
265 1 46.6616 14.2117 -0.0194655 46.6616 14.2117 -0.0194655
266 2 48.5613 14.2202 1.61292 48.5613 14.2202 1.61292
267 2 48.5615 14.2029 -1.64985 48.5615 14.2029 -1.64985
268 1 49.5111 15.8575 -0.0265658 49.5111 15.8575 -0.0265658
269 2 51.3871 15.8939 1.63281 51.3871 15.8939 1.63281
270 2 51.4346 15.82 -1.62874 51.4346 15.82 -1.62874
271 1 1.06257 17.5027 -0.0208931 1.06257 17.5027 -0.0208931
272 2 2.91847 17.5654 1.66027 2.91847 17.5654 1.66027
273 2 3.00564 17.4383 -1.59867 3.00564 17.4383 -1.59867
274 1 3.91216 19.1472 -0.00761909 3.91216 19.1472 -0.00761909
275 2 5.75263 19.2318 1.68968 5.75263 19.2318 1.68968
276 2 5.87028 19.0608 -1.56611 5.87028 19.0608 -1.56611
277 1 6.75959 17.5022 0.182967 6.75959 17.5022 0.182967
278 2 8.59041 17.5708 1.89157 8.59041 17.5708 1.89157
279 2 8.72703 17.4324 -1.36489 8.72703 17.4324 -1.36489
280 1 9.60896 19.1474 0.233444 9.60896 19.1474 0.233444
281 2 11.4394 19.2328 1.94177 11.4394 19.2328 1.94177
282 2 11.5774 19.0609 -1.3129 11.5774 19.0609 -1.3129
283 1 12.4568 17.5028 0.44201 12.4568 17.5028 0.44201
284 2 14.2983 17.5715 2.13949 14.2983 17.5715 2.13949
285 2 14.416 17.4334 -1.1174 14.416 17.4334 -1.1174
286 1 15.3079 19.1487 0.475631 15.3079 19.1487 0.475631
287 2 17.1656 19.229 2.15476 17.1656 19.229 2.15476
288 2 17.2523 19.0681 -1.10203 17.2523 19.0681 -1.10203
289 1 18.1589 17.5038 0.633374 18.1589 17.5038 0.633374
290 2 20.0444 17.567 2.28225 20.0444 17.567 2.28225
291 2 20.0776 17.4405 -0.97688 20.0776 17.4405 -0.97688
292 1 21.0122 19.15 0.598358 21.0122 19.15 0.598358
293 2 22.9226 19.2237 2.21765 22.9226 19.2237 2.21765
294 2 22.9059 19.0764 -1.04081 22.9059 19.0764 -1.04081
295 1 23.8654 17.5044 0.65834 23.8654 17.5044 0.65834
296 2 25.8047 17.5623 2.24368 25.8047 17.5623 2.24368
297 2 25.7295 17.4466 -1.01519 25.7295 17.4466 -1.01519
298 1 26.7177 19.1504 0.533841 26.7177 19.1504 0.533841
299 2 28.6771 19.2225 2.09331 28.6771 19.2225 2.09331
300 2 28.5596 19.0787 -1.16334 28.5596 19.0787 -1.16334
301 1 29.5691 17.5044 0.503707 29.5691 17.5044 0.503707
302 2 31.5438 17.5606 2.04444 31.5438 17.5606 2.04444
303 2 31.3938 17.4487 -1.2122 31.3938 17.4487 -1.2122
304 1 32.4181 19.15 0.315928 32.4181 19.15 0.315928
305 2 34.3978 19.2249 1.84912 34.3978 19.2249 1.84912
306 2 34.2363 19.0757 -1.40565 34.2363 19.0757 -1.40565
307 1 35.2671 17.5041 0.250486 35.2671 17.5041 0.250486
308 2 37.244 17.5601 1.78802 37.244 17.5601 1.78802
309 2 37.0877 17.4487 -1.46869 37.0877 17.4487 -1.46869
310 1 38.1147 19.1493 0.0580407 38.1147 19.1493 0.0580407
311 2 40.08 19.2267 1.60926 40.08 19.2267 1.60926
312 2 39.9475 19.0721 -1.64685 39.9475 19.0721 -1.64685
313 1 40.9636 17.5038 0.0212692 40.9636 17.5038 0.0212692
314 2 42.9117 17.5595 1.59475 42.9117 17.5595 1.59475
315 2 42.8142 17.4482 -1.66454 42.8142 17.4482 -1.66454
316 1 43.8123 19.1485 -0.119174 43.8123 19.1485 -0.119174
317 2 45.7379 19.227 1.48083 45.7379 19.227 1.48083
318 2 45.6866 19.0696 -1.77761 45.6866 19.0696 -1.77761
319 1 46.6619 17.5033 -0.083255 46.6619 17.5033 -0.083255
320 2 48.5634 17.5605 1.54607 48.5634 17.5605 1.54607
321 2 48.5602 17.4453 -1.71463 48.5602 17.4453 -1.71463
322 1 49.5118 19.1478 -0.143006 49.5118 19.1478 -0.143006
323 2 51.3897 19.2286 1.51262 51.3897 19.2286 1.51262
324 2 51.4337 19.0656 -1.74562 51.4337 19.0656 -1.74562
325 1 1.0639 20.7913 -0.185718 1.0639 20.7913 -0.185718
326 2 2.92067 20.8909 1.49285 2.92067 20.8909 1.49285
327 2 3.00674 20.69 -1.76227 3.00674 20.69 -1.76227
328 1 3.91435 22.4341 -0.211043 3.91435 22.4341 -0.211043
329 2 5.75321 22.5456 1.48655 5.75321 22.5456 1.48655
330 2 5.87446 22.3209 -1.76575 5.87446 22.3209 -1.76575
331 1 6.76185 20.7911 0.00982107 6.76185 20.7911 0.00982107
332 2 8.59201 20.891 1.71755 8.59201 20.891 1.71755
333 2 8.73001 20.6897 -1.53557 8.73001 20.6897 -1.53557
334 1 9.61165 22.4347 0.0294705 9.61165 22.4347 0.0294705
335 2 11.4375 22.5422 1.74134 11.4375 22.5422 1.74134
336 2 11.5841 22.3264 -1.51041 11.5841 22.3264 -1.51041
337 1 12.459 20.7923 0.267747 12.459 20.7923 0.267747
338 2 14.2958 20.8877 1.96868 14.2958 20.8877 1.96868
339 2 14.422 20.6963 -1.28533 14.422 20.6963 -1.28533
340 1 15.3097 22.4369 0.281599 15.3097 22.4369 0.281599
341 2 17.1601 22.5365 1.96735 17.1601 22.5365 1.96735
342 2 17.2602 22.3375 -1.28714 17.2602 22.3375 -1.28714
343 1 18.1599 20.7942 0.470243 18.1599 20.7942 0.470243
344 2 20.0391 20.8819 2.12484 20.0391 20.8819 2.12484
345 2 20.084 20.7067 -1.13209 20.084 20.7067 -1.13209
346 1 21.0126 22.4392 0.42078 21.0126 22.4392 0.42078
347 2 22.9175 22.5326 2.04503 22.9175 22.5326 2.04503
348 2 22.911 22.3465 -1.2117 22.911 22.3465 -1.2117
349 1 23.8652 20.7955 0.509015 23.8652 20.7955 0.509015
350 2 25.8008 20.8795 2.09732 25.8008 20.8795 2.09732
351 2 25.7326 20.7119 -1.15961 25.7326 20.7119 -1.15961
352 1 26.7171 22.4401 0.364228 26.7171 22.4401 0.364228
353 2 28.6756 22.5351 1.92324 28.6756 22.5351 1.92324
354 2 28.5594 22.3456 -1.33126 28.5594 22.3456 -1.33126
355 1 29.5682 20.7954 0.358036 29.5682 20.7954 0.358036
356 2 31.5422 20.8829 1.89785 31.5422 20.8829 1.89785
357 2 31.3933 20.7084 -1.35616 31.3933 20.7084 -1.35616
358 1 32.4167 22.4391 0.139205 32.4167 22.4391 0.139205
359 2 34.3977 22.5421 1.66885 34.3977 22.5421 1.66885
360 2 34.2333 22.3364 -1.58271 34.2333 22.3364 -1.58271
361 1 35.2658 20.7943 0.0993871 35.2658 20.7943 0.0993871
362 2 37.2426 20.888 1.63514 37.2426 20.888 1.63514
363 2 37.0866 20.701 -1.61807 37.0866 20.701 -1.61807
364 1 38.113 22.4372 -0.131339 38.113 22.4372 -0.131339
365 2 40.0786 22.5473 1.41765 40.0786 22.5473 1.41765
366 2 39.946 22.3271 -1.83455 39.946 22.3271 -1.83455
367 1 40.9626 20.7931 -0.135325 40.9626 20.7931 -0.135325
368 2 42.9099 20.8902 1.43737 42.9099 20.8902 1.43737
369 2 42.8148 20.6958 -1.81794 42.8148 20.6958 -1.81794
370 1 43.8116 22.4356 -0.316135 43.8116 22.4356 -0.316135
371 2 45.7359 22.5484 1.28363 45.7359 22.5484 1.28363
372 2 45.6881 22.3223 -1.9706 45.6881 22.3223 -1.9706
373 1 46.662 20.7921 -0.242642 46.662 20.7921 -0.242642
374 2 48.5632 20.8904 1.38543 48.5632 20.8904 1.38543
375 2 48.5615 20.6928 -1.87114 48.5615 20.6928 -1.87114
376 1 49.5126 22.4346 -0.342986 49.5126 22.4346 -0.342986
377 2 51.3893 22.5473 1.31248 51.3893 22.5473 1.31248
378 2 51.4367 22.3206 -1.9417 51.4367 22.3206 -1.9417
379 1 1.06565 24.0766 -0.415376 1.06565 24.0766 -0.415376
380 2 2.91941 24.1965 1.26545 2.91941 24.1965 1.26545
381 2 3.01226 23.9552 -1.98655 3.01226 23.9552 -1.98655
382 1 3.91698 25.7186 -0.455624 3.91698 25.7186 -0.455624
383 2 5.75042 25.8376 1.24751 5.75042 25.8376 1.24751
384 2 5.88283 25.5985 -2.00319 5.88283 25.5985 -2.00319
385 1 6.76473 24.0767 -0.217927 6.76473 24.0767 -0.217927
386 2 8.59005 24.1922 1.49401 8.59005 24.1922 1.49401
387 2 8.73758 23.9601 -1.75661 8.73758 23.9601 -1.75661
388 1 9.61472 25.7198 -0.205836 9.61472 25.7198 -0.205836
389 2 11.4329 25.8315 1.51383 11.4329 25.8315 1.51383
390 2 11.5941 25.608 -1.73676 11.5941 25.608 -1.73676
391 1 12.4615 24.0785 0.0489405 12.4615 24.0785 0.0489405
392 2 14.2907 24.1866 1.75711 14.2907 24.1866 1.75711
393 2 14.4311 23.9706 -1.49493 14.4311 23.9706 -1.49493
394 1 15.3116 25.7228 0.0625642 15.3116 25.7228 0.0625642
395 2 17.1537 25.8267 1.75685 17.1537 25.8267 1.75685
396 2 17.2694 25.6199 -1.49685 17.2694 25.6199 -1.49685
397 1 18.1611 24.0815 0.268518 18.1611 24.0815 0.268518
398 2 20.0329 24.182 1.9302 20.0329 24.182 1.9302
399 2 20.0913 23.982 -1.32534 20.0913 23.982 -1.32534
400 1 21.013 25.726 0.218162 21.013 25.726 0.218162
401 2 22.9129 25.8263 1.84717 22.9129 25.8263 1.84717
402 2 22.9153 25.6269 -1.40904 22.9153 25.6269 -1.40904
403 1 23.865 24.0837 0.320563 23.865 24.0837 0.320563
404 2 25.7979 24.1827 1.91076 25.7979 24.1827 1.91076
405 2 25.7344 23.9854 -1.34481 25.7344 23.9854 -1.34481
406 1 26.7163 25.7272 0.164568 26.7163 25.7272 0.164568
407 2 28.6752 25.832 1.72181 28.6752 25.832 1.72181
408 2 28.5573 25.623 -1.53162 28.5573 25.623 -1.53162
409 1 29.567 24.0835 0.166276 29.567 24.0835 0.166276
410 2 31.5426 24.1896 1.70243 31.5426 24.1896 1.70243
411 2 31.3898 23.9777 -1.54927 31.3898 23.9777 -1.54927
412 1 32.4147 25.7256 -0.0752179 32.4147 25.7256 -0.0752179
413 2 34.3985 25.8403 1.44962 34.3985 25.8403 1.44962
414 2 34.2279 25.6108 -1.80004 34.2279 25.6108 -1.80004
415 1 35.2637 24.0813 -0.108828 35.2637 24.0813 -0.108828
416 2 37.2424 24.1972 1.42287 37.2424 24.1972 1.42287
417 2 37.0827 23.9655 -1.82721 37.0827 23.9655 -1.82721
418 1 38.1105 25.7224 -0.365953 38.1105 25.7224 -0.365953
419 2 40.0771 25.8456 1.18086 40.0771 25.8456 1.18086
420 2 39.9431 25.5991 -2.06922 39.9431 25.5991 -2.06922
421 1 40.9609 24.0788 -0.358373 40.9609 24.0788 -0.358373
422 2 42.9076 24.2004 1.2135 42.9076 24.2004 1.2135
423 2 42.8145 23.9571 -2.03836 42.8145 23.9571 -2.03836
424 1 43.8103 25.7199 -0.562691 43.8103 25.7199 -0.562691
425 2 45.7328 25.8462 1.03871 45.7328 25.8462 1.03871
426 2 45.69 25.5935 -2.21334 45.69 25.5935 -2.21334
427 1 46.6619 24.0773 -0.471657 46.6619 24.0773 -0.471657
428 2 48.5608 24.1996 1.15784 48.5608 24.1996 1.15784
429 2 48.5649 23.9543 -2.0952 48.5649 23.9543 -2.0952
430 1 49.5135 25.7188 -0.591599 49.5135 25.7188 -0.591599
431 2 51.3863 25.8431 1.0678 51.3863 25.8431 1.0678
432 2 51.4426 25.5937 -2.1843 51.4426 25.5937 -2.1843
433 1 1.06758 27.3608 -0.668178 1.06758 27.3608 -0.668178
434 2 2.91553 27.4788 1.01953 2.91553 27.4788 1.01953
435 2 3.02079 27.2421 -2.23219 3.02079 27.2421 -2.23219
436 1 3.91965 29.004 -0.69571 3.91965 29.004 -0.69571
437 2 5.74533 29.1078 1.017 5.74533 29.1078 1.017
438 2 5.89346 28.9 -2.235 5.89346 28.9 -2.235
439 1 6.76784 27.3614 -0.460465 6.76784 27.3614 -0.460465
440 2 8.58542 27.4716 1.26012 8.58542 27.4716 1.26012
441 2 8.74813 27.251 -1.99051 8.74813 27.251 -1.99051
442 1 9.61767 29.0056 -0.429761 9.61767 29.0056 -0.429761
443 2 11.4271 29.1008 1.30003 11.4271 29.1008 1.30003
444 2 11.605 28.9109 -1.95186 11.605 28.9109 -1.95186
445 1 12.4642 27.3638 -0.177856 12.4642 27.3638 -0.177856
446 2 14.2846 27.4661 1.53973 14.2846 27.4661 1.53973
447 2 14.4414 27.2624 -1.71249 14.4414 27.2624 -1.71249
448 1 15.3134 29.0087 -0.14407 15.3134 29.0087 -0.14407
449 2 17.1483 29.099 1.55831 17.1483 29.099 1.55831
450 2 17.2771 28.9199 -1.69674 17.2771 28.9199 -1.69674
451 1 18.1622 27.3674 0.0588881 18.1622 27.3674 0.0588881
452 2 20.0275 27.4653 1.72746 20.0275 27.4653 1.72746
453 2 20.0978 27.2711 -1.52845 20.0978 27.2711 -1.52845
454 1 21.0132 29.0121 0.0215638 21.0132 29.0121 0.0215638
455 2 22.9103 29.1036 1.65384 22.9103 29.1036 1.65384
456 2 22.9175 28.9221 -1.60366 22.9175 28.9221 -1.60366
457 1 23.8647 27.37 0.118743 23.8647 27.37 0.118743
458 2 25.7961 27.4701 1.70996 25.7961 27.4701 1.70996
459 2 25.7345 27.2711 -1.54579 25.7345 27.2711 -1.54579
460 1 26.7151 29.0134 -0.0367478 26.7151 29.0134 -0.0367478
461 2 28.6753 29.1117 1.51859 28.6753 29.1117 1.51859
462 2 28.5538 28.9157 -1.73567 28.5538 28.9157 -1.73567
463 1 29.5653 27.3697 -0.0451141 29.5653 27.3697 -0.0451141
464 2 31.5434 27.4782 1.48717 31.5434 27.4782 1.48717
465 2 31.3847 27.2614 -1.76403 31.3847 27.2614 -1.76403
466 1 32.412 29.0114 -0.294612 32.412 29.0114 -0.294612
467 2 34.3984 29.1184 1.22709 34.3984 29.1184 1.22709
468 2 34.2222 28.9041 -2.02328 34.2222 28.9041 -2.02328
469 1 35.2609 27.3666 -0.341197 35.2609 27.3666 -0.341197
470 2 37.2418 27.4844 1.18733 37.2418 27.4844 1.18733
471 2 37.0776 27.2486 -2.06212 37.0776 27.2486 -2.06212
472 1 38.1074 29.0076 -0.604858 38.1074 29.0076 -0.604858
473 2 40.0746 29.1209 0.942071 40.0746 29.1209 0.942071
474 2 39.9401 28.8942 -2.30921 39.9401 28.8942 -2.30921
475 1 40.9585 27.3632 -0.608051 40.9585 27.3632 -0.608051
476 2 42.9047 27.4863 0.964738 42.9047 27.4863 0.964738
477 2 42.8139 27.2401 -2.28669 42.8139 27.2401 -2.28669
478 1 43.8087 29.0048 -0.812278 43.8087 29.0048 -0.812278
479 2 45.729 29.12 0.793119 45.729 29.12 0.793119
480 2 45.6922 28.8898 -2.46035 45.6922 28.8898 -2.46035
481 1 46.6616 27.3613 -0.727748 46.6616 27.3613 -0.727748
482 2 48.557 27.4844 0.906225 48.557 27.4844 0.906225
483 2 48.5695 27.2381 -2.3464 48.5695 27.2381 -2.3464
484 1 49.5143 29.0038 -0.841284 49.5143 29.0038 -0.841284
485 2 51.3819 29.1155 0.825414 51.3819 29.1155 0.825414
486 2 51.4499 28.8919 -2.42803 51.4499 28.8919 -2.42803
487 1 1.0694 30.6478 -0.894979 1.0694 30.6478 -0.894979
488 2 2.91026 30.7405 0.802435 2.91026 30.7405 0.802435
489 2 3.03036 30.5551 -2.45185 3.03036 30.5551 -2.45185
490 1 3.92185 32.2934 -0.884003 3.92185 32.2934 -0.884003
491 2 5.73924 32.3611 0.839575 5.73924 32.3611 0.839575
492 2 5.90391 32.2259 -2.41531 5.90391 32.2259 -2.41531
493 1 6.7706 30.6487 -0.671376 6.7706 30.6487 -0.671376
494 2 8.57946 30.732 1.06001 8.57946 30.732 1.06001
495 2 8.75918 30.5657 -2.19289 8.75918 30.5657 -2.19289
496 1 9.61979 32.2948 -0.598668 9.61979 32.2948 -0.598668
497 2 11.4216 32.3545 1.14054 11.4216 32.3545 1.14054
498 2 11.6139 32.2356 -2.11392 11.6139 32.2356 -2.11392
499 1 12.4664 30.651 -0.370522 12.4664 30.651 -0.370522
500 2 14.2794 30.7282 1.35588 14.2794 30.7282 1.35588
501 2 14.4499 30.5748 -1.89853 14.4499 30.5748 -1.89853
502 1 15.3146 32.297 -0.299615 15.3146 32.297 -0.299615
503 2 17.1457 32.3564 1.40769 17.1457 32.3564 1.40769
504 2 17.2811 32.2389 -1.85007 17.2811 32.2389 -1.85007
505 1 18.163 30.6541 -0.122538 18.163 30.6541 -0.122538
506 2 20.0248 30.7322 1.55046 20.0248 30.7322 1.55046
507 2 20.1011 30.5777 -1.70767 20.1011 30.5777 -1.70767
508 1 21.0132 32.2996 -0.134814 21.0132 32.2996 -0.134814
509 2 22.9105 32.3658 1.49772 22.9105 32.3658 1.49772
510 2 22.9163 32.2348 -1.76242 22.9163 32.2348 -1.76242
511 1 23.8641 30.6565 -0.0648692 23.8641 30.6565 -0.0648692
512 2 25.7959 30.7411 1.52607 25.7959 30.7411 1.52607
513 2 25.7325 30.5732 -1.73162 25.7325 30.5732 -1.73162
514 1 26.7136 32.3007 -0.206538 26.7136 32.3007 -0.206538
515 2 28.6758 32.3753 1.34704 28.6758 32.3753 1.34704
516 2 28.5494 32.2267 -1.90969 28.5494 32.2267 -1.90969
517 1 29.5631 30.6562 -0.243486 29.5631 30.6562 -0.243486
518 2 31.5435 30.7487 1.28648 31.5435 30.7487 1.28648
519 2 31.3796 30.5638 -1.96651 31.3796 30.5638 -1.96651
520 1 32.4091 32.299 -0.481804 32.4091 32.299 -0.481804
521 2 34.3969 32.3792 1.03962 34.3969 32.3792 1.03962
522 2 34.2178 32.2186 -2.21367 34.2178 32.2186 -2.21367
523 1 35.2577 30.6531 -0.558296 35.2577 30.6531 -0.558296
524 2 37.2398 30.7515 0.969984 37.2398 30.7515 0.969984
525 2 37.0734 30.5544 -2.2818 37.0734 30.5544 -2.2818
526 1 38.1045 32.2959 -0.804622 38.1045 32.2959 -0.804622
527 2 40.0713 32.3784 0.744949 40.0713 32.3784 0.744949
528 2 39.9385 32.2134 -2.50991 39.9385 32.2134 -2.50991
529 1 40.956 30.6497 -0.837862 40.956 30.6497 -0.837862
530 2 42.9011 30.7508 0.738141 42.9011 30.7508 0.738141
531 2 42.8137 30.5488 -2.51615 42.8137 30.5488 -2.51615
532 1 43.8073 32.2937 -1.01715 43.8073 32.2937 -1.01715
533 2 45.7251 32.3757 0.593619 45.7251 32.3757 0.593619
534 2 45.6946 32.212 -2.66365 45.6946 32.212 -2.66365
535 1 46.6612 30.648 -0.961138 46.6612 30.648 -0.961138
536 2 48.5527 30.7476 0.679427 48.5527 30.7476 0.679427
537 2 48.5744 30.5487 -2.57608 48.5744 30.5487 -2.57608
538 1 49.515 32.293 -1.04303 49.515 32.293 -1.04303
539 2 51.3771 32.3701 0.632255 51.3771 32.3701 0.632255
540 2 51.4572 32.2162 -2.62469 51.4572 32.2162 -2.62469