ITEM: TIMESTEP
38000
ITEM: NUMBER OF ATOMS
810
ITEM: BOX BOUNDS pp pp pp
8.4840918240433216e-01 5.2169195817594506e+01
8.1062784790191800e-01 5.0205587152098012e+01
-1.0000000000000000e+01 1.0000000000000000e+01
ITEM: ATOMS id type x y z xu yu zu
1 1 1.05281 1.02479 0.03766 1.05281 1.02479 0.03766
2 2 2.99489 1.01462 1.61957 2.99489 1.01462 1.61957
3 2 2.91206 1.035 -1.6415 2.91206 1.035 -1.6415
4 1 3.90389 2.67135 -0.0248631 3.90389 2.67135 -0.0248631
5 2 5.85481 2.66119 1.5462 5.85481 2.66119 1.5462
6 2 5.75371 2.68154 -1.71435 5.75371 2.68154 -1.71435
7 1 6.75433 1.02496 -0.123944 6.75433 1.02496 -0.123944
8 2 8.70765 1.01594 1.44421 8.70765 1.01594 1.44421
9 2 8.60153 1.03399 -1.8162 8.60153 1.03399 -1.8162
10 1 9.6048 2.67153 -0.207823 9.6048 2.67153 -0.207823
11 2 11.5555 2.66272 1.36368 11.5555 2.66272 1.36368
12 2 11.4548 2.68033 -1.8969 11.4548 2.68033 -1.8969
13 1 12.4553 1.02511 -0.304928 12.4553 1.02511 -0.304928
14 2 14.3965 1.0174 1.27842 14.3965 1.0174 1.27842
15 2 14.3154 1.03279 -1.98272 14.3154 1.03279 -1.98272
16 1 15.3064 2.67164 -0.367975 15.3064 2.67164 -0.367975
17 2 17.234 2.66422 1.232 17.234 2.66422 1.232
18 2 17.1808 2.67903 -2.02972 17.1808 2.67903 -2.02972
19 1 18.1579 1.02517 -0.421854 18.1579 1.02517 -0.421854
20 2 20.0676 1.01833 1.1997 20.0676 1.01833 1.1997
21 2 20.0508 1.03197 -2.0624 20.0508 1.03197 -2.0624
22 1 21.0099 2.67165 -0.429248 21.0099 2.67165 -0.429248
23 2 22.9006 2.66503 1.2144 22.9006 2.66503 1.2144
24 2 22.9217 2.67822 -2.04769 22.9217 2.67822 -2.04769
25 1 23.8618 1.02513 -0.417093 23.8618 1.02513 -0.417093
26 2 25.7341 1.01828 1.24754 25.7341 1.01828 1.24754
27 2 25.7915 1.03196 -2.01411 25.7915 1.03196 -2.01411
28 1 26.7133 2.67156 -0.359549 26.7133 2.67156 -0.359549
29 2 28.5707 2.6649 1.32167 28.5707 2.6649 1.32167
30 2 28.6571 2.67821 -1.93935 28.6571 2.67821 -1.93935
31 1 29.5642 1.02502 -0.290285 29.5642 1.02502 -0.290285
32 2 31.4124 1.01728 1.40102 31.4124 1.01728 1.40102
33 2 31.5166 1.03275 -1.85946 31.5166 1.03275 -1.85946
34 1 32.4146 2.67143 -0.190932 32.4146 2.67143 -0.190932
35 2 34.2601 2.66379 1.50325 34.2601 2.66379 1.50325
36 2 34.3696 2.67907 -1.75705 34.3696 2.67907 -1.75705
37 1 35.265 1.02486 -0.102642 35.265 1.02486 -0.102642
38 2 37.1154 1.01564 1.58598 37.1154 1.01564 1.58598
39 2 37.2153 1.03408 -1.67462 37.2153 1.03408 -1.67462
40 1 38.1155 2.67128 -0.00584537 38.1155 2.67128 -0.00584537
41 2 39.9764 2.66196 1.67102 39.9764 2.66196 1.67102
42 2 40.0559 2.68061 -1.59013 40.0559 2.68061 -1.59013
43 1 40.9666 1.02472 0.0541817 40.9666 1.02472 0.0541817
44 2 42.8433 1.01423 1.71328 42.8433 1.01423 1.71328
45 2 42.8921 1.03522 -1.54847 42.8921 1.03522 -1.54847
46 1 43.8182 2.67118 0.107189 43.8182 2.67118 0.107189
47 2 45.7127 2.66056 1.74589 45.7127 2.66056 1.74589
48 2 45.7264 2.68183 -1.51618 45.7264 2.68183 -1.51618
49 1 46.6702 1.02468 0.107988 46.6702 1.02468 0.107988
50 2 48.5828 1.01391 1.72539 48.5828 1.01391 1.72539
51 2 48.5601 1.0355 -1.53664 48.5601 1.0355 -1.53664
52 1 49.5221 2.6712 0.0985837 49.5221 2.6712 0.0985837
53 2 51.4514 2.66034 1.69608 51.4514 2.66034 1.69608
54 2 51.3949 2.68211 -1.56553 51.3949 2.68211 -1.56553
55 1 1.05298 4.31774 0.0597355 1.05298 4.31774 0.0597355
56 2 2.99572 4.30727 1.64089 2.99572 4.30727 1.64089
57 2 2.9116 4.32826 -1.62013 2.9116 4.32826 -1.62013
58 1 3.90412 5.96431 -0.00356919 3.90412 5.96431 -0.00356919
59 2 5.85579 5.95479 1.56661 5.85579 5.95479 1.56661
60 2 5.75318 5.97387 -1.69389 5.75318 5.97387 -1.69389
61 1 6.75455 4.31791 -0.103293 6.75455 4.31791 -0.103293
62 2 8.70887 4.30837 1.46363 8.70887 4.30837 1.46363
63 2 8.60069 4.32748 -1.7967 8.60069 4.32748 -1.7967
64 1 9.60501 5.96448 -0.188414 9.60501 5.96448 -0.188414
65 2 11.5568 5.95611 1.38175 11.5568 5.95611 1.38175
66 2 11.4538 5.97285 -1.87877 11.4538 5.97285 -1.87877
67 1 12.4554 4.31807 -0.287044 12.4554 4.31807 -0.287044
68 2 14.3977 4.31002 1.295 14.3977 4.31002 1.295
69 2 14.3144 4.32611 -1.96608 14.3144 4.32611 -1.96608
70 1 15.3065 5.96459 -0.351628 15.3065 5.96459 -0.351628
71 2 17.2352 5.95773 1.24707 17.2352 5.95773 1.24707
72 2 17.1798 5.9714 -2.01462 17.1798 5.9714 -2.01462
73 1 18.158 4.31813 -0.406829 18.158 4.31813 -0.406829
74 2 20.0684 4.31143 1.21384 20.0684 4.31143 1.21384
75 2 20.0501 4.32479 -2.04827 20.0501 4.32479 -2.04827
76 1 21.0099 5.96458 -0.415694 21.0099 5.96458 -0.415694
77 2 22.9014 5.95905 1.22712 22.9014 5.95905 1.22712
78 2 22.9209 5.97006 -2.035 22.9209 5.97006 -2.035
79 1 23.8618 4.31808 -0.403729 23.8618 4.31808 -0.403729
80 2 25.7344 4.31215 1.26061 25.7344 4.31215 1.26061
81 2 25.7912 4.32398 -2.00107 25.7912 4.32398 -2.00107
82 1 26.7133 5.9645 -0.347558 26.7133 5.9645 -0.347558
83 2 28.571 5.95975 1.33338 28.571 5.95975 1.33338
84 2 28.6568 5.96924 -1.92767 28.6568 5.96924 -1.92767
85 1 29.5642 4.31798 -0.276825 29.5642 4.31798 -0.276825
86 2 31.4121 4.31195 1.41478 31.4121 4.31195 1.41478
87 2 31.5168 4.324 -1.84571 31.5168 4.324 -1.84571
88 1 32.4146 5.9644 -0.178741 32.4146 5.9644 -0.178741
89 2 34.2597 5.95936 1.51586 34.2597 5.95936 1.51586
90 2 34.3699 5.96946 -1.74444 34.3699 5.96946 -1.74444
91 1 35.2649 4.31785 -0.0871908 35.2649 4.31785 -0.0871908
92 2 37.1146 4.31058 1.60223 37.1146 4.31058 1.60223
93 2 37.2159 4.32514 -1.65834 37.2159 4.32514 -1.65834
94 1 38.1154 5.96431 0.00886361 38.1154 5.96431 0.00886361
95 2 39.9756 5.95765 1.68667 39.9756 5.95765 1.68667
96 2 40.0567 5.97097 -1.57446 40.0567 5.97097 -1.57446
97 1 40.9665 4.31773 0.0730367 40.9665 4.31773 0.0730367
98 2 42.8427 4.30859 1.7328 42.8427 4.30859 1.7328
99 2 42.8926 4.32688 -1.52893 42.8926 4.32688 -1.52893
100 1 43.8182 5.96421 0.125688 43.8182 5.96421 0.125688
101 2 45.7122 5.95561 1.76504 45.7122 5.95561 1.76504
102 2 45.7269 5.97282 -1.49703 45.7269 5.97282 -1.49703
103 1 46.6702 4.31767 0.129531 46.6702 4.31767 0.129531
104 2 48.583 4.3073 1.74687 48.583 4.3073 1.74687
105 2 48.5601 4.32808 -1.51514 48.5601 4.32808 -1.51514
106 1 49.5222 5.9642 0.119639 49.5222 5.9642 0.119639
107 2 51.4517 5.95452 1.717 51.4517 5.95452 1.717
108 2 51.3949 5.97391 -1.54461 51.3949 5.97391 -1.54461
109 1 1.05316 7.61075 0.07938 1.05316 7.61075 0.07938
110 2 2.99615 7.60227 1.66028 2.99615 7.60227 1.66028
111 2 2.91158 7.61927 -1.60074 2.91158 7.61927 -1.60074
112 1 3.90433 9.25732 0.0136719 3.90433 9.25732 0.0136719
113 2 5.85638 9.25052 1.58342 5.85638 9.25052 1.58342
114 2 5.75302 9.26416 -1.67708 5.75302 9.26416 -1.67708
115 1 6.75479 7.61088 -0.0839287 6.75479 7.61088 -0.0839287
116 2 8.70996 7.60287 1.48197 8.70996 7.60287 1.48197
117 2 8.60003 7.61893 -1.77832 8.60003 7.61893 -1.77832
118 1 9.60523 9.25744 -0.172103 9.60523 9.25744 -0.172103
119 2 11.5579 9.25136 1.39696 11.5579 9.25136 1.39696
120 2 11.4531 9.26353 -1.86352 11.4531 9.26353 -1.86352
121 1 12.4556 7.61101 -0.270035 12.4556 7.61101 -0.270035
122 2 14.399 7.60427 1.31066 14.399 7.60427 1.31066
123 2 14.3134 7.61775 -1.95038 14.3134 7.61775 -1.95038
124 1 15.3066 9.25751 -0.337933 15.3066 9.25751 -0.337933
125 2 17.2364 9.25274 1.25949 17.2364 9.25274 1.25949
126 2 17.1787 9.26225 -2.00219 17.1787 9.26225 -2.00219
127 1 18.158 7.61106 -0.392939 18.158 7.61106 -0.392939
128 2 20.0695 7.60582 1.22653 20.0695 7.60582 1.22653
129 2 20.0491 7.61625 -2.03559 20.0491 7.61625 -2.03559
130 1 21.0099 9.25749 -0.405086 21.0099 9.25749 -0.405086
131 2 22.9024 9.25428 1.23656 22.9024 9.25428 1.23656
132 2 22.9199 9.26066 -2.02559 22.9199 9.26066 -2.02559
133 1 23.8618 7.611 -0.392547 23.8618 7.611 -0.392547
134 2 25.7351 7.60713 1.27097 25.7351 7.60713 1.27097
135 2 25.7904 7.61485 -1.99075 25.7904 7.61485 -1.99075
136 1 26.7133 9.25742 -0.339709 26.7133 9.25742 -0.339709
137 2 28.5717 9.25565 1.34044 28.5717 9.25565 1.34044
138 2 28.6561 9.25919 -1.92067 28.6561 9.25919 -1.92067
139 1 29.5642 7.61092 -0.267197 29.5642 7.61092 -0.267197
140 2 31.4123 7.60777 1.4242 31.4123 7.60777 1.4242
141 2 31.5166 7.61409 -1.83631 31.5166 7.61409 -1.83631
142 1 32.4146 9.25738 -0.172328 32.4146 9.25738 -0.172328
143 2 34.2597 9.25606 1.52231 34.2597 9.25606 1.52231
144 2 34.3699 9.25874 -1.73801 34.3699 9.25874 -1.73801
145 1 35.2648 7.61086 -0.0769831 35.2648 7.61086 -0.0769831
146 2 37.114 7.60703 1.61311 37.114 7.60703 1.61311
147 2 37.2164 7.61472 -1.64744 37.2164 7.61472 -1.64744
148 1 38.1154 9.25736 0.0166208 38.1154 9.25736 0.0166208
149 2 39.9747 9.25486 1.6954 39.9747 9.25486 1.6954
150 2 40.0575 9.25988 -1.5657 40.0575 9.25988 -1.5657
151 1 40.9665 7.61079 0.0864846 40.9665 7.61079 0.0864846
152 2 42.8418 7.60502 1.74733 42.8418 7.60502 1.74733
153 2 42.8935 7.61657 -1.51439 42.8935 7.61657 -1.51439
154 1 43.8182 9.25731 0.137344 43.8182 9.25731 0.137344
155 2 45.7112 9.25263 1.77787 45.7112 9.25263 1.77787
156 2 45.7279 9.26198 -1.48422 45.7279 9.26198 -1.48422
157 1 46.6703 7.61073 0.146938 46.6703 7.61073 0.146938
158 2 48.5826 7.60304 1.76488 48.5826 7.60304 1.76488
159 2 48.5606 7.61842 -1.49716 48.5606 7.61842 -1.49716
160 1 49.5223 9.25727 0.13519 49.5223 9.25727 0.13519
161 2 51.4514 9.25087 1.73306 51.4514 9.25087 1.73306
162 2 51.3955 9.26367 -1.52858 51.3955 9.26367 -1.52858
163 1 1.0533 10.9038 0.092329 1.0533 10.9038 0.092329
164 2 2.99607 10.8991 1.67356 2.99607 10.8991 1.67356
165 2 2.912 10.9086 -1.5875 2.912 10.9086 -1.5875
166 1 3.90449 12.5504 0.023259 3.90449 12.5504 0.023259
167 2 5.85649 12.5476 1.59309 5.85649 12.5476 1.59309
168 2 5.75325 12.5531 -1.66743 5.75325 12.5531 -1.66743
169 1 6.755 10.9039 -0.0700905 6.755 10.9039 -0.0700905
170 2 8.71067 10.8992 1.49522 8.71067 10.8992 1.49522
171 2 8.59972 10.9086 -1.76506 8.59972 10.9086 -1.76506
172 1 9.60539 12.5504 -0.162478 9.60539 12.5504 -0.162478
173 2 11.5586 12.548 1.40593 11.5586 12.548 1.40593
174 2 11.4527 12.5529 -1.85453 11.4527 12.5529 -1.85453
175 1 12.4558 10.904 -0.257665 12.4558 10.904 -0.257665
176 2 14.4 10.9001 1.32196 14.4 10.9001 1.32196
177 2 14.3126 10.9078 -1.93906 14.3126 10.9078 -1.93906
178 1 15.3067 12.5504 -0.330075 15.3067 12.5504 -0.330075
179 2 17.2373 12.549 1.26632 17.2373 12.549 1.26632
180 2 17.1779 12.5519 -1.99534 17.1779 12.5519 -1.99534
181 1 18.1581 10.904 -0.383264 18.1581 10.904 -0.383264
182 2 20.0706 10.9015 1.23497 20.0706 10.9015 1.23497
183 2 20.0481 10.9064 -2.02715 20.0481 10.9064 -2.02715
184 1 21.01 12.5504 -0.400033 21.01 12.5504 -0.400033
185 2 22.9035 12.5505 1.24039 22.9035 12.5505 1.24039
186 2 22.9189 12.5503 -2.02179 22.9189 12.5503 -2.02179
187 1 23.8618 10.9039 -0.386044 23.8618 10.9039 -0.386044
188 2 25.7361 10.9031 1.27632 25.7361 10.9031 1.27632
189 2 25.7894 10.9047 -1.98545 25.7894 10.9047 -1.98545
190 1 26.7133 12.5503 -0.338101 26.7133 12.5503 -0.338101
191 2 28.5727 12.5522 1.34095 28.5727 12.5522 1.34095
192 2 28.6552 12.5484 -1.92021 28.6552 12.5484 -1.92021
193 1 29.5642 10.9039 -0.26357 29.5642 10.9039 -0.26357
194 2 31.4129 10.9044 1.4272 31.4129 10.9044 1.4272
195 2 31.5161 10.9033 -1.83336 31.5161 10.9033 -1.83336
196 1 32.4147 12.5504 -0.173452 32.4147 12.5504 -0.173452
197 2 34.2601 12.5533 1.52089 34.2601 12.5533 1.52089
198 2 34.3697 12.5475 -1.73944 34.3697 12.5475 -1.73944
199 1 35.2649 10.9039 -0.0742778 35.2649 10.9039 -0.0742778
200 2 37.1137 10.9044 1.61622 37.1137 10.9044 1.61622
201 2 37.2168 10.9034 -1.64431 37.2168 10.9034 -1.64431
202 1 38.1155 12.5504 0.0155299 38.1155 12.5504 0.0155299
203 2 39.9741 12.5527 1.69518 39.9741 12.5527 1.69518
204 2 40.0583 12.5482 -1.56588 40.0583 12.5482 -1.56588
205 1 40.9665 10.9039 0.0915168 40.9665 10.9039 0.0915168
206 2 42.8407 10.9027 1.75363 42.8407 10.9027 1.75363
207 2 42.8946 10.905 -1.50806 42.8946 10.905 -1.50806
208 1 43.8182 12.5504 0.139615 43.8182 12.5504 0.139615
209 2 45.71 12.5505 1.78167 45.71 12.5505 1.78167
210 2 45.7292 12.5503 -1.48041 45.7292 12.5503 -1.48041
211 1 46.6703 10.9038 0.156358 46.6703 10.9038 0.156358
212 2 48.5816 10.9004 1.7755 48.5816 10.9004 1.7755
213 2 48.5617 10.9072 -1.48657 48.5617 10.9072 -1.48657
214 1 49.5224 12.5504 0.142031 49.5224 12.5504 0.142031
215 2 51.4506 12.5484 1.74097 51.4506 12.5484 1.74097
216 2 51.3965 12.5523 -1.52071 51.3965 12.5523 -1.52071
217 1 1.05338 14.1969 0.0962281 1.05338 14.1969 0.0962281
218 2 2.99551 14.1967 1.67824 2.99551 14.1967 1.67824
219 2 2.91277 14.1972 -1.58286 2.91277 14.1972 -1.58286
220 1 3.90456 15.8435 0.0237767 3.90456 15.8435 0.0237767
221 2 5.85618 15.845 1.59406 5.85618 15.845 1.59406
222 2 5.75371 15.8419 -1.66649 5.75371 15.8419 -1.66649
223 1 6.75513 14.1969 -0.0645297 6.75513 14.1969 -0.0645297
224 2 8.71089 14.1964 1.50066 8.71089 14.1964 1.50066
225 2 8.59975 14.1975 -1.75963 8.59975 14.1975 -1.75963
226 1 9.60547 15.8434 -0.161337 9.60547 15.8434 -0.161337
227 2 11.5589 15.8451 1.40686 11.5589 15.8451 1.40686
228 2 11.4526 15.8418 -1.8536 11.4526 15.8418 -1.8536
229 1 12.4559 14.1969 -0.252709 12.4559 14.1969 -0.252709
230 2 14.4007 14.1968 1.32627 14.4007 14.1968 1.32627
231 2 14.3122 14.197 -1.93473 14.3122 14.197 -1.93473
232 1 15.3068 15.8434 -0.329927 15.3068 15.8434 -0.329927
233 2 17.2379 15.8456 1.26583 17.2379 15.8456 1.26583
234 2 17.1774 15.8411 -1.99581 17.1774 15.8411 -1.99581
235 1 18.1582 14.1969 -0.380262 18.1582 14.1969 -0.380262
236 2 20.0715 14.1979 1.23696 20.0715 14.1979 1.23696
237 2 20.0472 14.1958 -2.02516 20.0472 14.1958 -2.02516
238 1 21.01 15.8433 -0.402127 21.01 15.8433 -0.402127
239 2 22.9045 15.8469 1.23721 22.9045 15.8469 1.23721
240 2 22.918 15.8396 -2.02496 22.918 15.8396 -2.02496
241 1 23.8618 14.1968 -0.386172 23.8618 14.1968 -0.386172
242 2 25.7373 14.1996 1.27493 25.7373 14.1996 1.27493
243 2 25.7884 14.194 -1.98687 25.7884 14.194 -1.98687
244 1 26.7134 15.8433 -0.343782 26.7134 15.8433 -0.343782
245 2 28.5738 15.8488 1.33411 28.5738 15.8488 1.33411
246 2 28.6543 15.8378 -1.92708 28.6543 15.8378 -1.92708
247 1 29.5643 14.1968 -0.26736 29.5643 14.1968 -0.26736
248 2 31.4138 14.2013 1.42254 31.4138 14.2013 1.42254
249 2 31.5155 14.1923 -1.83805 31.5155 14.1923 -1.83805
250 1 32.4149 15.8433 -0.182565 32.4149 15.8433 -0.182565
251 2 34.2606 15.8501 1.51134 34.2606 15.8501 1.51134
252 2 34.3695 15.8366 -1.74899 34.3695 15.8366 -1.74899
253 1 35.2651 14.1969 -0.0801374 35.2651 14.1969 -0.0801374
254 2 37.1137 14.2019 1.61056 37.1137 14.2019 1.61056
255 2 37.2171 14.192 -1.64995 37.2171 14.192 -1.64995
256 1 38.1157 15.8435 0.00551528 38.1157 15.8435 0.00551528
257 2 39.9735 15.8499 1.68593 39.9735 15.8499 1.68593
258 2 40.0592 15.8371 -1.57508 40.0592 15.8371 -1.57508
259 1 40.9666 14.197 0.0869633 40.9666 14.197 0.0869633
260 2 42.8396 14.2006 1.75042 42.8396 14.2006 1.75042
261 2 42.8958 14.1934 -1.51124 42.8958 14.1934 -1.51124
262 1 43.8183 15.8436 0.132314 43.8183 15.8436 0.132314
263 2 45.7086 15.8481 1.77604 45.7086 15.8481 1.77604
264 2 45.7307 15.839 -1.48602 45.7307 15.839 -1.48602
265 1 46.6703 14.197 0.15607 46.6703 14.197 0.15607
266 2 48.5803 14.1983 1.77681 48.5803 14.1983 1.77681
267 2 48.5631 14.1957 -1.48529 48.5631 14.1957 -1.48529
268 1 49.5225 15.8435 0.139373 49.5225 15.8435 0.139373
269 2 51.4495 15.846 1.73971 51.4495 15.846 1.73971
270 2 51.3977 15.841 -1.52202 51.3977 15.841 -1.52202
271 1 1.05341 17.49 0.0911449 1.05341 17.49 0.0911449
272 2 2.99469 17.4938 1.67417 2.99469 17.4938 1.67417
273 2 2.91366 17.4862 -1.58697 2.91366 17.4862 -1.58697
274 1 3.90456 19.1365 0.016061 3.90456 19.1365 0.016061
275 2 5.85566 19.1417 1.58695 5.85566 19.1417 1.58695
276 2 5.75424 19.1314 -1.67362 5.75424 19.1314 -1.67362
277 1 6.75517 17.49 -0.0677306 6.75517 17.49 -0.0677306
278 2 8.71075 17.4934 1.49765 8.71075 17.4934 1.49765
279 2 8.59997 17.4865 -1.76264 8.59997 17.4865 -1.76264
280 1 9.60547 19.1364 -0.16829 9.60547 19.1364 -0.16829
281 2 11.5588 19.1415 1.39996 11.5588 19.1415 1.39996
282 2 11.4526 19.1313 -1.86048 11.4526 19.1313 -1.86048
283 1 12.4559 17.4899 -0.256019 12.4559 17.4899 -0.256019
284 2 14.4009 17.4936 1.3227 14.4009 17.4936 1.3227
285 2 14.312 17.4862 -1.93827 14.312 17.4862 -1.93827
286 1 15.3068 19.1363 -0.337421 15.3068 19.1363 -0.337421
287 2 17.2381 19.1418 1.25805 17.2381 19.1418 1.25805
288 2 17.1772 19.1307 -2.00356 17.1772 19.1307 -2.00356
289 1 18.1582 17.4898 -0.384852 18.1582 17.4898 -0.384852
290 2 20.0721 17.4943 1.23168 20.0721 17.4943 1.23168
291 2 20.0467 17.4853 -2.03042 20.0467 17.4853 -2.03042
292 1 21.01 19.1362 -0.411251 21.01 19.1362 -0.411251
293 2 22.9051 19.1427 1.22732 22.9051 19.1427 1.22732
294 2 22.9174 19.1297 -2.03483 22.9174 19.1297 -2.03483
295 1 23.8619 17.4897 -0.393484 23.8619 17.4897 -0.393484
296 2 25.7383 17.4958 1.26652 25.7383 17.4958 1.26652
297 2 25.7875 17.4836 -1.99529 25.7875 17.4836 -1.99529
298 1 26.7135 19.1362 -0.356059 26.7135 19.1362 -0.356059
299 2 28.5748 19.1443 1.32087 28.5748 19.1443 1.32087
300 2 28.6536 19.1281 -1.94033 28.6536 19.1281 -1.94033
301 1 29.5645 17.4898 -0.278459 29.5645 17.4898 -0.278459
302 2 31.4147 17.4975 1.41058 31.4147 17.4975 1.41058
303 2 31.5149 17.482 -1.85003 31.5149 17.482 -1.85003
304 1 32.4151 19.1363 -0.198267 32.4151 19.1363 -0.198267
305 2 34.2612 19.1457 1.49523 34.2612 19.1457 1.49523
306 2 34.3694 19.127 -1.76511 34.3694 19.127 -1.76511
307 1 35.2653 17.4899 -0.0938438 35.2653 17.4899 -0.0938438
308 2 37.1138 17.4983 1.59697 37.1138 17.4983 1.59697
309 2 37.2175 17.4815 -1.66351 37.2175 17.4815 -1.66351
310 1 38.1159 19.1365 -0.0115019 38.1159 19.1365 -0.0115019
311 2 39.9731 19.1458 1.66961 39.9731 19.1458 1.66961
312 2 40.06 19.1273 -1.59134 40.06 19.1273 -1.59134
313 1 40.9668 17.4901 0.0738689 40.9668 17.4901 0.0738689
314 2 42.8386 17.4974 1.73863 42.8386 17.4974 1.73863
315 2 42.8971 17.4827 -1.52297 42.8971 17.4827 -1.52297
316 1 43.8184 19.1366 0.117417 43.8184 19.1366 0.117417
317 2 45.7073 19.1444 1.76273 45.7073 19.1444 1.76273
318 2 45.7322 19.1289 -1.49929 45.7322 19.1289 -1.49929
319 1 46.6704 17.4901 0.14681 46.6704 17.4901 0.14681
320 2 48.5789 17.4954 1.76926 48.5789 17.4954 1.76926
321 2 48.5646 17.4848 -1.49284 48.5646 17.4848 -1.49284
322 1 49.5225 19.1366 0.128632 49.5225 19.1366 0.128632
323 2 51.4483 19.1426 1.7304 51.4483 19.1426 1.7304
324 2 51.3989 19.1306 -1.53136 51.3989 19.1306 -1.53136
325 1 1.05338 20.7831 0.0789899 1.05338 20.7831 0.0789899
326 2 2.99381 20.7898 1.66301 2.99381 20.7898 1.66301
327 2 2.9145 20.7764 -1.59816 2.9145 20.7764 -1.59816
328 1 3.9045 22.4296 0.00240265 3.9045 22.4296 0.00240265
329 2 5.85508 22.437 1.5739 5.85508 22.437 1.5739
330 2 5.75471 22.4221 -1.6867 5.75471 22.4221 -1.6867
331 1 6.75513 20.783 -0.0781728 6.75513 20.783 -0.0781728
332 2 8.71043 20.7894 1.48754 8.71043 20.7894 1.48754
333 2 8.60023 20.7766 -1.77275 8.60023 20.7766 -1.77275
334 1 9.6054 22.4294 -0.181248 9.6054 22.4294 -0.181248
335 2 11.5586 22.4367 1.3872 11.5586 22.4367 1.3872
336 2 11.4528 22.422 -1.87324 11.4528 22.422 -1.87324
337 1 12.4559 20.7828 -0.26642 12.4559 20.7828 -0.26642
338 2 14.4008 20.7894 1.31231 14.4008 20.7894 1.31231
339 2 14.312 20.7763 -1.94864 14.312 20.7763 -1.94864
340 1 15.3067 22.4292 -0.350674 15.3067 22.4292 -0.350674
341 2 17.2381 22.4367 1.24481 17.2381 22.4367 1.24481
342 2 17.1772 22.4217 -2.01678 17.1772 22.4217 -2.01678
343 1 18.1582 20.7827 -0.396058 18.1582 20.7827 -0.396058
344 2 20.0723 20.7897 1.22014 20.0723 20.7897 1.22014
345 2 20.0464 20.7757 -2.04192 20.0464 20.7757 -2.04192
346 1 21.01 22.4291 -0.425482 21.01 22.4291 -0.425482
347 2 22.9054 22.4371 1.21276 22.9054 22.4371 1.21276
348 2 22.9172 22.4211 -2.04937 22.9172 22.4211 -2.04937
349 1 23.8619 20.7826 -0.406691 23.8619 20.7826 -0.406691
350 2 25.739 20.7907 1.25256 25.739 20.7907 1.25256
351 2 25.787 20.7745 -2.00924 25.787 20.7745 -2.00924
352 1 26.7136 22.4291 -0.372438 26.7136 22.4291 -0.372438
353 2 28.5754 22.4381 1.30388 28.5754 22.4381 1.30388
354 2 28.6533 22.4201 -1.95733 28.6533 22.4201 -1.95733
355 1 29.5646 20.7827 -0.294847 29.5646 20.7827 -0.294847
356 2 31.4155 20.7922 1.39352 31.4155 20.7922 1.39352
357 2 31.5146 20.7732 -1.86711 31.5146 20.7732 -1.86711
358 1 32.4153 22.4292 -0.217415 32.4153 22.4292 -0.217415
359 2 34.2617 22.4393 1.47576 34.2617 22.4393 1.47576
360 2 34.3694 22.4192 -1.78459 34.3694 22.4192 -1.78459
361 1 35.2656 20.7829 -0.112788 35.2656 20.7829 -0.112788
362 2 37.1139 20.793 1.57812 37.1139 20.793 1.57812
363 2 37.2178 20.7728 -1.68234 37.2178 20.7728 -1.68234
364 1 38.1161 22.4295 -0.0320615 38.1161 22.4295 -0.0320615
365 2 39.9728 22.4397 1.64959 39.9728 22.4397 1.64959
366 2 40.0607 22.4193 -1.61134 40.0607 22.4193 -1.61134
367 1 40.967 20.7831 0.0550927 40.967 20.7831 0.0550927
368 2 42.8377 20.7926 1.72098 42.8377 20.7926 1.72098
369 2 42.8982 20.7736 -1.54057 42.8982 20.7736 -1.54057
370 1 43.8185 22.4296 0.0982082 43.8185 22.4296 0.0982082
371 2 45.7062 22.439 1.74477 45.7062 22.439 1.74477
372 2 45.7333 22.4203 -1.51723 45.7333 22.4203 -1.51723
373 1 46.6704 20.7832 0.131094 46.6704 20.7832 0.131094
374 2 48.5776 20.7911 1.75507 48.5776 20.7911 1.75507
375 2 48.566 20.7752 -1.50703 48.566 20.7752 -1.50703
376 1 49.5224 22.4297 0.112513 49.5224 22.4297 0.112513
377 2 51.4472 22.4378 1.71549 51.4472 22.4378 1.71549
378 2 51.3999 22.4215 -1.54629 51.3999 22.4215 -1.54629
379 1 1.05333 24.0762 0.0624867 1.05333 24.0762 0.0624867
380 2 2.99304 24.0845 1.64733 2.99304 24.0845 1.64733
381 2 2.91514 24.0678 -1.61387 2.91514 24.0678 -1.61387
382 1 3.90441 25.7226 -0.0145167 3.90441 25.7226 -0.0145167
383 2 5.85451 25.731 1.55754 5.85451 25.731 1.55754
384 2 5.7551 25.7141 -1.70309 5.7551 25.7141 -1.70309
385 1 6.75505 24.076 -0.0932743 6.75505 24.076 -0.0932743
386 2 8.71001 24.0839 1.47281 8.71001 24.0839 1.47281
387 2 8.60048 24.068 -1.78749 8.60048 24.068 -1.78749
388 1 9.60529 25.7224 -0.197401 9.60529 25.7224 -0.197401
389 2 11.5582 25.7305 1.37138 11.5582 25.7305 1.37138
390 2 11.453 25.7142 -1.88907 11.453 25.7142 -1.88907
391 1 12.4558 24.0758 -0.281339 12.4558 24.0758 -0.281339
392 2 14.4006 24.0837 1.29759 14.4006 24.0837 1.29759
393 2 14.3121 24.0679 -1.96336 14.3121 24.0679 -1.96336
394 1 15.3066 25.7222 -0.366669 15.3066 25.7222 -0.366669
395 2 17.2378 25.73 1.2291 17.2378 25.73 1.2291
396 2 17.1774 25.7143 -2.03249 17.1774 25.7143 -2.03249
397 1 18.1581 24.0756 -0.411307 18.1581 24.0756 -0.411307
398 2 20.0723 24.0836 1.20494 20.0723 24.0836 1.20494
399 2 20.0465 24.0677 -2.0571 20.0465 24.0677 -2.0571
400 1 21.01 25.7221 -0.441593 21.01 25.7221 -0.441593
401 2 22.9053 25.7298 1.19677 22.9053 25.7298 1.19677
402 2 22.9173 25.7144 -2.06535 22.9173 25.7144 -2.06535
403 1 23.862 24.0756 -0.42292 23.862 24.0756 -0.42292
404 2 25.7393 24.0839 1.23606 25.7393 24.0839 1.23606
405 2 25.7869 24.0672 -2.02573 25.7869 24.0672 -2.02573
406 1 26.7137 25.7221 -0.389329 26.7137 25.7221 -0.389329
407 2 28.5757 25.7301 1.28677 28.5757 25.7301 1.28677
408 2 28.6532 25.7141 -1.97444 28.6532 25.7141 -1.97444
409 1 29.5648 24.0756 -0.313069 29.5648 24.0756 -0.313069
410 2 31.416 24.0849 1.37486 31.416 24.0849 1.37486
411 2 31.5144 24.0664 -1.88578 31.5144 24.0664 -1.88578
412 1 32.4155 25.7222 -0.236044 32.4155 25.7222 -0.236044
413 2 34.2621 25.731 1.45686 34.2621 25.731 1.45686
414 2 34.3693 25.7134 -1.80351 34.3693 25.7134 -1.80351
415 1 35.2658 24.0758 -0.13313 35.2658 24.0758 -0.13313
416 2 37.1141 24.0858 1.55779 37.1141 24.0858 1.55779
417 2 37.218 24.0659 -1.70267 37.218 24.0659 -1.70267
418 1 38.1163 25.7224 -0.0521642 38.1163 25.7224 -0.0521642
419 2 39.9728 25.7318 1.62969 39.9728 25.7318 1.62969
420 2 40.061 25.7131 -1.63125 40.061 25.7131 -1.63125
421 1 40.9671 24.076 0.0343962 40.9671 24.076 0.0343962
422 2 42.8372 24.0859 1.70102 42.8372 24.0859 1.70102
423 2 42.899 24.0662 -1.56051 42.899 24.0662 -1.56051
424 1 43.8186 25.7226 0.0782529 43.8186 25.7226 0.0782529
425 2 45.7057 25.732 1.72547 45.7057 25.732 1.72547
426 2 45.734 25.7132 -1.53653 45.734 25.7132 -1.53653
427 1 46.6705 24.0762 0.112165 46.6705 24.0762 0.112165
428 2 48.5767 24.0853 1.73722 48.5767 24.0853 1.73722
429 2 48.5669 24.067 -1.52489 48.5669 24.067 -1.52489
430 1 49.5224 25.7227 0.0939917 49.5224 25.7227 0.0939917
431 2 51.4465 25.7317 1.69776 51.4465 25.7317 1.69776
432 2 51.4006 25.7137 -1.56404 51.4006 25.7137 -1.56404
433 1 1.05324 27.3691 0.0442872 1.05324 27.3691 0.0442872
434 2 2.99245 27.3779 1.62971 2.99245 27.3779 1.62971
435 2 2.91553 27.3603 -1.63152 2.91553 27.3603 -1.63152
436 1 3.90429 29.0156 -0.0323126 3.90429 29.0156 -0.0323126
437 2 5.85392 29.0239 1.54029 5.85392 29.0239 1.54029
438 2 5.75543 29.0072 -1.72037 5.75543 29.0072 -1.72037
439 1 6.75493 27.369 -0.110395 6.75493 27.369 -0.110395
440 2 8.70949 27.3772 1.45617 8.70949 27.3772 1.45617
441 2 8.60078 27.3607 -1.80416 8.60078 27.3607 -1.80416
442 1 9.60516 29.0154 -0.214094 9.60516 29.0154 -0.214094
443 2 11.5576 29.0228 1.35528 11.5576 29.0228 1.35528
444 2 11.4534 29.0078 -1.9052 11.4534 29.0078 -1.9052
445 1 12.4557 27.3688 -0.297756 12.4557 27.3688 -0.297756
446 2 14.4001 27.3764 1.28161 14.4001 27.3764 1.28161
447 2 14.3124 27.3611 -1.97935 14.3124 27.3611 -1.97935
448 1 15.3065 29.0152 -0.382224 15.3065 29.0152 -0.382224
449 2 17.2372 29.0218 1.21415 17.2372 29.0218 1.21415
450 2 17.1779 29.0085 -2.04745 17.1779 29.0085 -2.04745
451 1 18.1581 27.3686 -0.427208 18.1581 27.3686 -0.427208
452 2 20.0719 27.3757 1.18945 20.0719 27.3757 1.18945
453 2 20.0468 27.3615 -2.07259 20.0468 27.3615 -2.07259
454 1 21.01 29.0151 -0.456053 21.01 29.0151 -0.456053
455 2 22.9049 29.0209 1.18283 22.9049 29.0209 1.18283
456 2 22.9178 29.0093 -2.07929 22.9178 29.0093 -2.07929
457 1 23.862 27.3686 -0.438535 23.862 27.3686 -0.438535
458 2 25.7392 27.3754 1.22062 25.7392 27.3754 1.22062
459 2 25.7871 27.3618 -2.04117 25.7871 27.3618 -2.04117
460 1 26.7137 29.0151 -0.403146 26.7137 29.0151 -0.403146
461 2 28.5756 29.0206 1.27308 28.5756 29.0206 1.27308
462 2 28.6534 29.0097 -1.98814 28.6534 29.0097 -1.98814
463 1 29.5649 27.3686 -0.329285 29.5649 27.3686 -0.329285
464 2 31.4163 27.3758 1.35844 31.4163 27.3758 1.35844
465 2 31.5143 27.3615 -1.90223 31.5143 27.3615 -1.90223
466 1 32.4155 29.0152 -0.250503 32.4155 29.0152 -0.250503
467 2 34.2624 29.0212 1.44212 34.2624 29.0212 1.44212
468 2 34.3692 29.0093 -1.81829 34.3692 29.0093 -1.81829
469 1 35.2659 27.3688 -0.150906 35.2659 27.3688 -0.150906
470 2 37.1144 27.3768 1.53983 37.1144 27.3768 1.53983
471 2 37.218 27.3609 -1.72068 37.218 27.3609 -1.72068
472 1 38.1164 29.0154 -0.0682488 38.1164 29.0154 -0.0682488
473 2 39.9731 29.0224 1.61329 39.9731 29.0224 1.61329
474 2 40.0608 29.0083 -1.64769 40.0608 29.0083 -1.64769
475 1 40.9672 27.369 0.015453 40.9672 27.369 0.015453
476 2 42.8372 27.3777 1.68221 42.8372 27.3777 1.68221
477 2 42.8991 27.3603 -1.57935 42.8991 27.3603 -1.57935
478 1 43.8187 29.0155 0.0606661 43.8187 29.0155 0.0606661
479 2 45.7058 29.0238 1.70777 45.7058 29.0238 1.70777
480 2 45.7339 29.0074 -1.55426 45.7339 29.0074 -1.55426
481 1 46.6705 27.3691 0.0931309 46.6705 27.3691 0.0931309
482 2 48.5763 27.3782 1.71862 48.5763 27.3782 1.71862
483 2 48.5672 27.3601 -1.54351 48.5672 27.3601 -1.54351
484 1 49.5224 29.0156 0.0757077 49.5224 29.0156 0.0757077
485 2 51.4462 29.0243 1.67975 51.4462 29.0243 1.67975
486 2 51.4007 29.0069 -1.58208 51.4007 29.0069 -1.58208
487 1 1.05313 30.6621 0.0266825 1.05313 30.6621 0.0266825
488 2 2.99207 30.6703 1.61241 2.99207 30.6703 1.61241
489 2 2.91565 30.6539 -1.64885 2.91565 30.6539 -1.64885
490 1 3.90413 32.3085 -0.0488709 3.90413 32.3085 -0.0488709
491 2 5.8533 32.3157 1.52429 5.8533 32.3157 1.52429
492 2 5.75573 32.3013 -1.73641 5.75573 32.3013 -1.73641
493 1 6.75478 30.662 -0.127288 6.75478 30.662 -0.127288
494 2 8.70876 30.6693 1.43999 8.70876 30.6693 1.43999
495 2 8.60123 30.6545 -1.82039 8.60123 30.6545 -1.82039
496 1 9.60502 32.3084 -0.229145 9.60502 32.3084 -0.229145
497 2 11.5566 32.3143 1.3412 11.5566 32.3143 1.3412
498 2 11.454 32.3024 -1.91934 11.454 32.3024 -1.91934
499 1 12.4556 30.6618 -0.312999 12.4556 30.6618 -0.312999
500 2 14.3993 30.6679 1.26717 14.3993 30.6679 1.26717
501 2 14.313 30.6555 -1.99383 14.313 30.6555 -1.99383
502 1 15.3065 32.3082 -0.394818 15.3065 32.3082 -0.394818
503 2 17.2363 32.3126 1.20254 17.2363 32.3126 1.20254
504 2 17.1787 32.3038 -2.0591 17.1787 32.3038 -2.0591
505 1 18.158 30.6616 -0.440622 18.158 30.6616 -0.440622
506 2 20.0712 30.6666 1.1768 20.0712 30.6666 1.1768
507 2 20.0475 30.6567 -2.08526 20.0475 30.6567 -2.08526
508 1 21.01 32.3082 -0.466169 21.01 32.3082 -0.466169
509 2 22.9042 32.3111 1.17352 22.9042 32.3111 1.17352
510 2 22.9185 32.3052 -2.0886 22.9185 32.3052 -2.0886
511 1 23.862 30.6616 -0.450298 23.862 30.6616 -0.450298
512 2 25.7387 30.6657 1.20937 25.7387 30.6657 1.20937
513 2 25.7875 30.6576 -2.05242 25.7875 30.6576 -2.05242
514 1 26.7137 32.3082 -0.411333 26.7137 32.3082 -0.411333
515 2 28.5753 32.3103 1.26528 28.5753 32.3103 1.26528
516 2 28.6537 32.3061 -1.99594 28.6537 32.3061 -1.99594
517 1 29.5649 30.6617 -0.34034 29.5649 30.6617 -0.34034
518 2 31.4163 30.6655 1.34736 31.4163 30.6655 1.34736
519 2 31.5143 30.6578 -1.91333 31.5143 30.6578 -1.91333
520 1 32.4155 32.3083 -0.258274 32.4155 32.3083 -0.258274
521 2 34.2626 32.3105 1.43406 34.2626 32.3105 1.43406
522 2 34.3689 32.306 -1.8264 34.3689 32.306 -1.8264
523 1 35.2659 30.6618 -0.162942 35.2659 30.6618 -0.162942
524 2 37.1148 30.6665 1.52731 37.1148 30.6665 1.52731
525 2 37.2176 30.6571 -1.73325 37.2176 30.6571 -1.73325
526 1 38.1164 32.3083 -0.0777769 38.1164 32.3083 -0.0777769
527 2 39.9739 32.3121 1.60289 39.9739 32.3121 1.60289
528 2 40.06 32.3046 -1.65816 40.06 32.3046 -1.65816
529 1 40.9673 30.6619 0.00122149 40.9673 30.6619 0.00122149
530 2 42.8377 30.6683 1.66736 42.8377 30.6683 1.66736
531 2 42.8986 30.6556 -1.59425 42.8986 30.6556 -1.59425
532 1 43.8187 32.3085 0.0478571 43.8187 32.3085 0.0478571
533 2 45.7066 32.3144 1.69404 45.7066 32.3144 1.69404
534 2 45.733 32.3026 -1.56804 45.733 32.3026 -1.56804
535 1 46.6705 30.6621 0.0765963 46.6705 30.6621 0.0765963
536 2 48.5765 30.6699 1.70177 48.5765 30.6699 1.70177
537 2 48.5669 30.6543 -1.56038 48.5669 30.6543 -1.56038
538 1 49.5223 32.3086 0.0599404 49.5223 32.3086 0.0599404
539 2 51.4463 32.3159 1.66369 51.4463 32.3159 1.66369