ITEM: TIMESTEP
89000
ITEM: NUMBER OF ATOMS
810
ITEM: BOX BOUNDS pp pp pp
8.4197144762437515e-01 5.2175633552374293e+01
8.0862788102176031e-01 5.0207587118977180e+01
-1.0000000000000000e+01 1.0000000000000000e+01
ITEM: ATOMS id type x y z xu yu zu
1 1 1.04598 1.02296 -0.0359245 1.04598 1.02296 -0.0359245
2 2 2.95675 1.02505 1.58403 2.95675 1.02505 1.58403
3 2 2.9379 1.02086 -1.67809 2.9379 1.02086 -1.67809
4 1 3.89799 2.66961 -0.0546433 3.89799 2.66961 -0.0546433
5 2 5.81644 2.67348 1.5562 5.81644 2.67348 1.5562
6 2 5.78207 2.66571 -1.70579 5.78207 2.66571 -1.70579
7 1 6.74991 1.02294 -0.0808699 6.74991 1.02294 -0.0808699
8 2 8.67447 1.02408 1.52268 8.67447 1.02408 1.52268
9 2 8.62771 1.02178 -1.73916 8.62771 1.02178 -1.73916
10 1 9.60166 2.66957 -0.123064 9.60166 2.66957 -0.123064
11 2 11.529 2.67219 1.4772 11.529 2.67219 1.4772
12 2 11.4766 2.66692 -1.78456 11.4766 2.66692 -1.78456
13 1 12.4534 1.02291 -0.166275 12.4534 1.02291 -0.166275
14 2 14.381 1.02276 1.43357 14.381 1.02276 1.43357
15 2 14.3279 1.02305 -1.82818 14.3279 1.02305 -1.82818
16 1 15.305 2.66953 -0.212686 15.305 2.66953 -0.212686
17 2 17.2288 2.66987 1.39191 17.2288 2.66987 1.39191
18 2 17.1836 2.66917 -1.86997 17.1836 2.66917 -1.86997
19 1 18.1568 1.0229 -0.251835 18.1568 1.0229 -0.251835
20 2 20.0748 1.02161 1.3597 20.0748 1.02161 1.3597
21 2 20.0413 1.02419 -1.90232 20.0413 1.02419 -1.90232
22 1 21.0087 2.66953 -0.279782 21.0087 2.66953 -0.279782
23 2 22.9179 2.66759 1.34221 22.9179 2.66759 1.34221
24 2 22.9022 2.67149 -1.91993 22.9022 2.67149 -1.91993
25 1 23.8607 1.02291 -0.295412 23.8607 1.02291 -0.295412
26 2 25.7608 1.02123 1.33728 25.7608 1.02123 1.33728
27 2 25.7634 1.02459 -1.9249 25.7634 1.02459 -1.9249
28 1 26.7128 2.66956 -0.291361 26.7128 2.66956 -0.291361
29 2 28.6036 2.66654 1.35213 28.6036 2.66654 1.35213
30 2 28.6247 2.67258 -1.90997 28.6247 2.67258 -1.90997
31 1 29.5648 1.02291 -0.275829 29.5648 1.02291 -0.275829
32 2 31.4476 1.0219 1.37677 31.4476 1.0219 1.37677
33 2 31.4845 1.02391 -1.8852 31.4845 1.02391 -1.8852
34 1 32.4167 2.66956 -0.24243 32.4167 2.66956 -0.24243
35 2 34.2943 2.66712 1.41602 34.2943 2.66712 1.41602
36 2 34.3413 2.672 -1.84582 34.3413 2.672 -1.84582
37 1 35.2684 1.02291 -0.203675 35.2684 1.02291 -0.203675
38 2 37.1433 1.02309 1.45786 37.1433 1.02309 1.45786
39 2 37.1958 1.02273 -1.80391 37.1958 1.02273 -1.80391
40 1 38.1201 2.66955 -0.157886 38.1201 2.66955 -0.157886
41 2 39.9963 2.66884 1.50217 39.9963 2.66884 1.50217
42 2 40.0462 2.67025 -1.75963 40.0462 2.67025 -1.75963
43 1 40.9718 1.02292 -0.114894 40.9718 1.02292 -0.114894
44 2 42.8512 1.02426 1.54145 42.8512 1.02426 1.54145
45 2 42.8948 1.0216 -1.72044 42.8948 1.0216 -1.72044
46 1 43.8236 2.66956 -0.0781094 43.8236 2.66956 -0.0781094
47 2 45.7096 2.67114 1.57074 45.7096 2.67114 1.57074
48 2 45.7402 2.66799 -1.6913 45.7402 2.66799 -1.6913
49 1 46.6755 1.02295 -0.0497491 46.6755 1.02295 -0.0497491
50 2 48.5688 1.02507 1.59065 48.5688 1.02507 1.59065
51 2 48.585 1.02083 -1.67149 48.585 1.02083 -1.67149
52 1 49.5276 2.66959 -0.0378497 49.5276 2.66959 -0.0378497
53 2 51.4298 2.67308 1.59214 51.4298 2.67308 1.59214
54 2 51.4281 2.66612 -1.67004 51.4281 2.66612 -1.67004
55 1 1.04595 4.31625 -0.0429537 1.04595 4.31625 -0.0429537
56 2 2.95709 4.32176 1.57655 2.95709 4.32176 1.57655
57 2 2.93749 4.31075 -1.68555 2.93749 4.31075 -1.68555
58 1 3.89791 5.9629 -0.0657828 3.89791 5.9629 -0.0657828
59 2 5.81657 5.97038 1.54478 5.81657 5.97038 1.54478
60 2 5.78175 5.9554 -1.71718 5.78175 5.9554 -1.71718
61 1 6.74985 4.31625 -0.0887684 6.74985 4.31625 -0.0887684
62 2 8.67378 4.32175 1.51551 8.67378 4.32175 1.51551
63 2 8.62827 4.3107 -1.74633 8.62827 4.3107 -1.74633
64 1 9.60155 5.96286 -0.13431 9.60155 5.96286 -0.13431
65 2 11.5277 5.96916 1.46736 11.5277 5.96916 1.46736
66 2 11.4777 5.9565 -1.79442 11.4777 5.9565 -1.79442
67 1 12.4533 4.31618 -0.171661 12.4533 4.31618 -0.171661
68 2 14.3797 4.31936 1.42969 14.3797 4.31936 1.42969
69 2 14.3291 4.31297 -1.8321 14.3291 4.31297 -1.8321
70 1 15.305 5.96278 -0.21925 15.305 5.96278 -0.21925
71 2 17.2267 5.96525 1.38777 17.2267 5.96525 1.38777
72 2 17.1856 5.96029 -1.87416 17.1856 5.96029 -1.87416
73 1 18.1568 4.31615 -0.252606 18.1568 4.31615 -0.252606
74 2 20.0734 4.31574 1.36057 20.0734 4.31574 1.36057
75 2 20.0427 4.31656 -1.90147 20.0427 4.31656 -1.90147
76 1 21.0087 5.96279 -0.279038 21.0087 5.96279 -0.279038
77 2 22.9159 5.96052 1.34528 22.9159 5.96052 1.34528
78 2 22.9041 5.96508 -1.91688 22.9041 5.96508 -1.91688
79 1 23.8607 4.31618 -0.291494 23.8607 4.31618 -0.291494
80 2 25.76 4.31264 1.34211 25.76 4.31264 1.34211
81 2 25.7641 4.31975 -1.92006 25.7641 4.31975 -1.92006
82 1 26.7128 5.96285 -0.284199 26.7128 5.96285 -0.284199
83 2 28.6026 5.95723 1.36034 28.6026 5.95723 1.36034
84 2 28.6255 5.96848 -1.90175 28.6255 5.96848 -1.90175
85 1 29.5648 4.31622 -0.269705 29.5648 4.31622 -0.269705
86 2 31.4478 4.31154 1.38266 31.4478 4.31154 1.38266
87 2 31.4842 4.32089 -1.87931 31.4842 4.32089 -1.87931
88 1 32.4166 5.96286 -0.23295 32.4166 5.96286 -0.23295
89 2 34.2947 5.95679 1.42494 34.2947 5.95679 1.42494
90 2 34.3408 5.9689 -1.8369 34.3408 5.9689 -1.8369
91 1 35.2684 4.3162 -0.198691 35.2684 4.3162 -0.198691
92 2 37.1442 4.31272 1.46178 37.1442 4.31272 1.46178
93 2 37.1948 4.31966 -1.8 37.1948 4.31966 -1.8
94 1 38.12 5.96282 -0.150796 38.12 5.96282 -0.150796
95 2 39.9977 5.95923 1.5075 39.9977 5.95923 1.5075
96 2 40.0446 5.96638 -1.75434 40.0446 5.96638 -1.75434
97 1 40.9718 4.31618 -0.113407 40.9718 4.31618 -0.113407
98 2 42.8525 4.31563 1.54147 42.8525 4.31563 1.54147
99 2 42.8935 4.31672 -1.72046 42.8935 4.31672 -1.72046
100 1 43.8236 5.96281 -0.0769235 43.8236 5.96281 -0.0769235
101 2 45.7116 5.96365 1.56958 45.7116 5.96365 1.56958
102 2 45.7382 5.96198 -1.6925 45.7382 5.96198 -1.6925
103 1 46.6755 4.3162 -0.0528984 46.6755 4.3162 -0.0528984
104 2 48.57 4.31924 1.58615 48.57 4.31924 1.58615
105 2 48.5838 4.31318 -1.676 48.5838 4.31318 -1.676
106 1 49.5276 5.96286 -0.0439248 49.5276 5.96286 -0.0439248
107 2 51.4313 5.96817 1.58421 51.4313 5.96817 1.58421
108 2 51.4265 5.95758 -1.67795 51.4265 5.95758 -1.67795
109 1 1.04589 7.60952 -0.0536177 1.04589 7.60952 -0.0536177
110 2 2.95853 7.61724 1.56408 2.95853 7.61724 1.56408
111 2 2.93588 7.60182 -1.69799 2.93588 7.60182 -1.69799
112 1 3.89778 9.25617 -0.0813497 3.89778 9.25617 -0.0813497
113 2 5.81739 9.26571 1.52806 5.81739 9.26571 1.52806
114 2 5.78064 9.24661 -1.73386 5.78064 9.24661 -1.73386
115 1 6.74971 7.60952 -0.103956 6.74971 7.60952 -0.103956
116 2 8.67325 7.61824 1.50078 8.67325 7.61824 1.50078
117 2 8.62851 7.60076 -1.76105 8.62851 7.60076 -1.76105
118 1 9.60136 9.25612 -0.152071 9.60136 9.25612 -0.152071
119 2 11.5261 9.26484 1.4512 11.5261 9.26484 1.4512
120 2 11.4789 9.24733 -1.8106 11.4789 9.24733 -1.8106
121 1 12.4532 7.60945 -0.184575 12.4532 7.60945 -0.184575
122 2 14.3776 7.61528 1.41922 14.3776 7.61528 1.41922
123 2 14.3311 7.60356 -1.84261 14.3311 7.60356 -1.84261
124 1 15.3048 9.25604 -0.231253 15.3048 9.25604 -0.231253
125 2 17.2236 9.26007 1.3793 17.2236 9.26007 1.3793
126 2 17.1885 9.25198 -1.88269 17.1885 9.25198 -1.88269
127 1 18.1567 7.6094 -0.257751 18.1567 7.6094 -0.257751
128 2 20.0706 7.60992 1.35873 20.0706 7.60992 1.35873
129 2 20.0455 7.6089 -1.90336 20.0455 7.6089 -1.90336
130 1 21.0086 9.25605 -0.280218 21.0086 9.25605 -0.280218
131 2 22.9126 9.25375 1.34792 22.9126 9.25375 1.34792
132 2 22.9074 9.2584 -1.91426 22.9074 9.2584 -1.91426
133 1 23.8607 7.60945 -0.286975 23.8607 7.60945 -0.286975
134 2 25.7578 7.60466 1.34921 25.7578 7.60466 1.34921
135 2 25.7663 7.61428 -1.91295 25.7663 7.61428 -1.91295
136 1 26.7127 9.25612 -0.274546 26.7127 9.25612 -0.274546
137 2 28.6005 9.24875 1.37228 28.6005 9.24875 1.37228
138 2 28.6274 9.26352 -1.88976 28.6274 9.26352 -1.88976
139 1 29.5647 7.6095 -0.258337 29.5647 7.6095 -0.258337
140 2 31.4471 7.60194 1.3947 31.4471 7.60194 1.3947
141 2 31.4847 7.61707 -1.86724 31.4847 7.61707 -1.86724
142 1 32.4164 9.25613 -0.217623 32.4164 9.25613 -0.217623
143 2 34.2947 9.24735 1.44007 34.2947 9.24735 1.44007
144 2 34.3405 9.26489 -1.82174 34.3405 9.26489 -1.82174
145 1 35.2682 7.60948 -0.186382 35.2682 7.60948 -0.186382
146 2 37.1452 7.60284 1.47275 37.1452 7.60284 1.47275
147 2 37.1936 7.61608 -1.78905 37.1936 7.61608 -1.78905
148 1 38.1199 9.25608 -0.137306 38.1199 9.25608 -0.137306
149 2 39.9997 9.25007 1.51855 39.9997 9.25007 1.51855
150 2 40.0424 9.26205 -1.74334 40.0424 9.26205 -1.74334
151 1 40.9717 7.60943 -0.106068 40.9717 7.60943 -0.106068
152 2 42.8548 7.60696 1.54606 42.8548 7.60696 1.54606
153 2 42.8911 7.6119 -1.71593 42.8911 7.6119 -1.71593
154 1 43.8235 9.25606 -0.0717817 43.8235 9.25606 -0.0717817
155 2 45.7147 9.25582 1.57102 45.7147 9.25582 1.57102
156 2 45.735 9.25633 -1.69111 45.735 9.25633 -1.69111
157 1 46.6755 7.60946 -0.0544876 46.6755 7.60946 -0.0544876
158 2 48.5726 7.61267 1.58149 48.5726 7.61267 1.58149
159 2 48.5811 7.60628 -1.68068 48.5811 7.60628 -1.68068
160 1 49.5275 9.25613 -0.0502744 49.5275 9.25613 -0.0502744
161 2 51.4341 9.26208 1.57457 51.4341 9.26208 1.57457
162 2 51.4236 9.25021 -1.68758 51.4236 9.25021 -1.68758
163 1 1.0458 10.9028 -0.0655353 1.0458 10.9028 -0.0655353
164 2 2.96085 10.9112 1.54928 2.96085 10.9112 1.54928
165 2 2.93331 10.8944 -1.71275 2.93331 10.8944 -1.71275
166 1 3.89763 12.5494 -0.0982253 3.89763 12.5494 -0.0982253
167 2 5.81879 12.5593 1.50932 5.81879 12.5593 1.50932
168 2 5.77887 12.5395 -1.75256 5.77887 12.5395 -1.75256
169 1 6.74952 10.9028 -0.123301 6.74952 10.9028 -0.123301
170 2 8.67303 10.913 1.48146 8.67303 10.913 1.48146
171 2 8.62834 10.8925 -1.78036 8.62834 10.8925 -1.78036
172 1 9.60114 12.5494 -0.172919 9.60114 12.5494 -0.172919
173 2 11.5247 12.5589 1.43182 11.5247 12.5589 1.43182
174 2 11.4799 12.5398 -1.83 11.4799 12.5398 -1.83
175 1 12.453 10.9027 -0.202413 12.453 10.9027 -0.202413
176 2 14.375 10.91 1.40428 14.375 10.91 1.40428
177 2 14.3334 10.8953 -1.85761 14.3334 10.8953 -1.85761
178 1 15.3047 12.5493 -0.246316 15.3047 12.5493 -0.246316
179 2 17.2201 12.5541 1.36825 17.2201 12.5541 1.36825
180 2 17.1918 12.5445 -1.8938 17.1918 12.5445 -1.8938
181 1 18.1566 10.9027 -0.266104 18.1566 10.9027 -0.266104
182 2 20.0668 10.9038 1.35473 20.0668 10.9038 1.35473
183 2 20.0491 10.9015 -1.90742 20.0491 10.9015 -1.90742
184 1 21.0086 12.5493 -0.282769 21.0086 12.5493 -0.282769
185 2 22.9086 12.5472 1.35001 22.9086 12.5472 1.35001
186 2 22.9113 12.5515 -1.91218 22.9113 12.5515 -1.91218
187 1 23.8606 10.9027 -0.282408 23.8606 10.9027 -0.282408
188 2 25.7545 10.8973 1.35755 25.7545 10.8973 1.35755
189 2 25.7695 10.9082 -1.90458 25.7695 10.9082 -1.90458
190 1 26.7126 12.5494 -0.263684 26.7126 12.5494 -0.263684
191 2 28.5977 12.5413 1.38626 28.5977 12.5413 1.38626
192 2 28.63 12.5575 -1.87573 28.63 12.5575 -1.87573
193 1 29.5645 10.9028 -0.243442 29.5645 10.9028 -0.243442
194 2 31.4457 10.8934 1.41104 31.4457 10.8934 1.41104
195 2 31.4858 10.9121 -1.85085 31.4858 10.9121 -1.85085
196 1 32.4162 12.5494 -0.198726 32.4162 12.5494 -0.198726
197 2 34.2943 12.5393 1.45914 34.2943 12.5393 1.45914
198 2 34.3404 12.5595 -1.80266 34.3404 12.5595 -1.80266
199 1 35.2681 10.9027 -0.168574 35.2681 10.9027 -0.168574
200 2 37.1462 10.8939 1.48915 37.1462 10.8939 1.48915
201 2 37.1922 10.9115 -1.77266 37.1922 10.9115 -1.77266
202 1 38.1197 12.5493 -0.119421 38.1197 12.5493 -0.119421
203 2 40.0019 12.5418 1.53371 40.0019 12.5418 1.53371
204 2 40.0399 12.5568 -1.72822 40.0399 12.5568 -1.72822
205 1 40.9716 10.9027 -0.0938088 40.9716 10.9027 -0.0938088
206 2 42.8578 10.8986 1.55473 42.8578 10.8986 1.55473
207 2 42.8879 10.9068 -1.70731 42.8879 10.9068 -1.70731
208 1 43.8234 12.5493 -0.0632472 43.8234 12.5493 -0.0632472
209 2 45.7184 12.5479 1.57511 45.7184 12.5479 1.57511
210 2 45.7311 12.5507 -1.68705 45.7311 12.5507 -1.68705
211 1 46.6755 10.9027 -0.0538133 46.6755 10.9027 -0.0538133
212 2 48.5761 10.9053 1.57791 48.5761 10.9053 1.57791
213 2 48.5775 10.9001 -1.68428 48.5775 10.9001 -1.68428
214 1 49.5274 12.5494 -0.0553936 49.5274 12.5494 -0.0553936
215 2 51.4376 12.5549 1.56525 51.4376 12.5549 1.56525
216 2 51.4199 12.544 -1.69688 51.4199 12.544 -1.69688
217 1 1.04569 14.196 -0.0764342 1.04569 14.196 -0.0764342
218 2 2.96367 14.2037 1.5349 2.96367 14.2037 1.5349
219 2 2.9302 14.1884 -1.72709 2.9302 14.1884 -1.72709
220 1 3.89746 15.8427 -0.113563 3.89746 15.8427 -0.113563
221 2 5.82051 15.8513 1.49174 5.82051 15.8513 1.49174
222 2 5.77677 15.834 -1.77011 5.77677 15.834 -1.77011
223 1 6.74931 14.196 -0.143266 6.74931 14.196 -0.143266
224 2 8.67318 14.206 1.46107 8.67318 14.206 1.46107
225 2 8.62776 14.186 -1.80074 8.62776 14.186 -1.80074
226 1 9.60093 15.8426 -0.193284 9.60093 15.8426 -0.193284
227 2 11.5236 15.8514 1.41258 11.5236 15.8514 1.41258
228 2 11.4806 15.8338 -1.84928 11.4806 15.8338 -1.84928
229 1 12.4528 14.1959 -0.221905 12.4528 14.1959 -0.221905
230 2 14.3724 14.2035 1.38765 14.3724 14.2035 1.38765
231 2 14.3356 14.1884 -1.8743 14.3356 14.1884 -1.8743
232 1 15.3045 15.8425 -0.261756 15.3045 15.8425 -0.261756
233 2 17.2167 15.8472 1.35667 17.2167 15.8472 1.35667
234 2 17.195 15.8379 -1.90544 17.195 15.8379 -1.90544
235 1 18.1565 14.1959 -0.275935 18.1565 14.1959 -0.275935
236 2 20.0628 14.1974 1.34955 20.0628 14.1974 1.34955
237 2 20.053 14.1945 -1.91262 20.053 14.1945 -1.91262
238 1 21.0085 15.8426 -0.28594 21.0085 15.8426 -0.28594
239 2 22.9045 15.8408 1.35153 22.9045 15.8408 1.35153
240 2 22.9152 15.8444 -1.91064 22.9152 15.8444 -1.91064
241 1 23.8606 14.196 -0.278153 23.8606 14.196 -0.278153
242 2 25.7507 14.1907 1.36611 25.7507 14.1907 1.36611
243 2 25.7731 14.2013 -1.89599 25.7731 14.2013 -1.89599
244 1 26.7125 15.8427 -0.253051 26.7125 15.8427 -0.253051
245 2 28.5947 15.8351 1.40025 28.5947 15.8351 1.40025
246 2 28.6327 15.8502 -1.86168 28.6327 15.8502 -1.86168
247 1 29.5644 14.196 -0.227161 29.5644 14.196 -0.227161
248 2 31.4438 14.1864 1.42924 31.4438 14.1864 1.42924
249 2 31.4873 14.2057 -1.8326 31.4873 14.2057 -1.8326
250 1 32.416 15.8426 -0.179212 32.416 15.8426 -0.179212
251 2 34.2937 15.8329 1.47908 34.2937 15.8329 1.47908
252 2 34.3406 15.8524 -1.78271 34.3406 15.8524 -1.78271
253 1 35.2678 14.196 -0.148037 35.2678 14.196 -0.148037
254 2 37.1472 14.1865 1.5084 37.1472 14.1865 1.5084
255 2 37.1909 14.2054 -1.75344 37.1909 14.2054 -1.75344
256 1 38.1195 15.8426 -0.100121 38.1195 15.8426 -0.100121
257 2 40.004 15.835 1.55042 40.004 15.835 1.55042
258 2 40.0375 15.8502 -1.71156 40.0375 15.8502 -1.71156
259 1 40.9714 14.1959 -0.0785444 40.9714 14.1959 -0.0785444
260 2 42.8609 14.1909 1.56617 42.8609 14.1909 1.56617
261 2 42.8845 14.201 -1.69592 42.8845 14.201 -1.69592
262 1 43.8233 15.8426 -0.0528004 43.8233 15.8426 -0.0528004
263 2 45.7221 15.8404 1.58114 45.7221 15.8404 1.58114
264 2 45.7272 15.8448 -1.68104 45.7272 15.8448 -1.68104
265 1 46.6754 14.196 -0.0507953 46.6754 14.196 -0.0507953
266 2 48.5801 14.1976 1.57619 48.5801 14.1976 1.57619
267 2 48.5733 14.1944 -1.68599 48.5733 14.1944 -1.68599
268 1 49.5274 15.8427 -0.0584473 49.5274 15.8427 -0.0584473
269 2 51.4412 15.8468 1.55781 51.4412 15.8468 1.55781
270 2 51.4161 15.8385 -1.70427 51.4161 15.8385 -1.70427
271 1 1.04558 17.4893 -0.0847534 1.04558 17.4893 -0.0847534
272 2 2.96647 17.4951 1.52311 2.96647 17.4951 1.52311
273 2 2.92712 17.4835 -1.73882 2.92712 17.4835 -1.73882
274 1 3.89732 19.1359 -0.125196 3.89732 19.1359 -0.125196
275 2 5.82219 19.142 1.47793 5.82219 19.142 1.47793
276 2 5.77475 19.1298 -1.78389 5.77475 19.1298 -1.78389
277 1 6.74911 17.4893 -0.160689 6.74911 17.4893 -0.160689
278 2 8.67362 17.4975 1.4429 8.67362 17.4975 1.4429
279 2 8.62691 17.481 -1.81891 8.62691 17.481 -1.81891
280 1 9.60074 19.1359 -0.210016 9.60074 19.1359 -0.210016
281 2 11.5229 19.1425 1.3965 11.5229 19.1425 1.3965
282 2 11.481 19.1291 -1.86539 11.481 19.1291 -1.86539
283 1 12.4526 17.4892 -0.239851 12.4526 17.4892 -0.239851
284 2 14.3702 17.4957 1.3721 14.3702 17.4957 1.3721
285 2 14.3375 17.4827 -1.88989 14.3375 17.4827 -1.88989
286 1 15.3044 19.1358 -0.275088 15.3044 19.1358 -0.275088
287 2 17.214 19.1396 1.34647 17.214 19.1396 1.34647
288 2 17.1975 19.1321 -1.91566 17.1975 19.1321 -1.91566
289 1 18.1565 17.4892 -0.285488 18.1565 17.4892 -0.285488
290 2 20.0591 17.4907 1.34426 20.0591 17.4907 1.34426
291 2 20.0566 17.4877 -1.91792 20.0566 17.4877 -1.91792
292 1 21.0085 19.1359 -0.2891 21.0085 19.1359 -0.2891
293 2 22.901 19.1347 1.35239 22.901 19.1347 1.35239
294 2 22.9186 19.1371 -1.90975 22.9186 19.1371 -1.90975
295 1 23.8605 17.4893 -0.274631 23.8605 17.4893 -0.274631
296 2 25.7471 17.4849 1.37374 25.7471 17.4849 1.37374
297 2 25.7765 17.4937 -1.88831 25.7765 17.4937 -1.88831
298 1 26.7124 19.1359 -0.244229 26.7124 19.1359 -0.244229
299 2 28.5919 19.1302 1.41208 28.5919 19.1302 1.41208
300 2 28.6352 19.1417 -1.8498 28.6352 19.1417 -1.8498
301 1 29.5642 17.4893 -0.211988 29.5642 17.4893 -0.211988
302 2 31.4419 17.4809 1.44641 31.4419 17.4809 1.44641
303 2 31.4888 17.4976 -1.8154 31.4888 17.4976 -1.8154
304 1 32.4158 19.1359 -0.162326 32.4158 19.1359 -0.162326
305 2 34.2931 19.1282 1.4965 34.2931 19.1282 1.4965
306 2 34.3409 19.1435 -1.7653 34.3409 19.1435 -1.7653
307 1 35.2676 17.4892 -0.128234 35.2676 17.4892 -0.128234
308 2 37.1478 17.4807 1.52719 37.1478 17.4807 1.52719
309 2 37.1898 17.4977 -1.73468 37.1898 17.4977 -1.73468
310 1 38.1193 19.1358 -0.0828827 38.1193 19.1358 -0.0828827
311 2 40.0056 19.1296 1.56561 40.0056 19.1296 1.56561
312 2 40.0356 19.1421 -1.69641 40.0356 19.1421 -1.69641
313 1 40.9713 17.4892 -0.0630414 40.9713 17.4892 -0.0630414
314 2 42.8638 17.4842 1.57824 42.8638 17.4842 1.57824
315 2 42.8815 17.4942 -1.68388 42.8815 17.4942 -1.68388
316 1 43.8233 19.1359 -0.0425884 43.8233 19.1359 -0.0425884
317 2 45.7252 19.1335 1.5877 45.7252 19.1335 1.5877
318 2 45.7241 19.1382 -1.67448 45.7241 19.1382 -1.67448
319 1 46.6753 17.4893 -0.0462156 46.6753 17.4893 -0.0462156
320 2 48.5838 17.4898 1.57638 48.5838 17.4898 1.57638
321 2 48.5695 17.4887 -1.68578 48.5695 17.4887 -1.68578
322 1 49.5273 19.1359 -0.0593892 49.5273 19.1359 -0.0593892
323 2 51.4443 19.1384 1.55308 51.4443 19.1384 1.55308
324 2 51.4128 19.1335 -1.70895 51.4128 19.1335 -1.70895
325 1 1.0455 20.7826 -0.0896229 1.0455 20.7826 -0.0896229
326 2 2.96871 20.7857 1.51546 2.96871 20.7857 1.51546
327 2 2.92464 20.7794 -1.74642 2.92464 20.7794 -1.74642
328 1 3.89722 22.4292 -0.131596 3.89722 22.4292 -0.131596
329 2 5.82349 22.4319 1.46986 5.82349 22.4319 1.46986
330 2 5.77321 22.4265 -1.79193 5.77321 22.4265 -1.79193
331 1 6.74896 20.7825 -0.173038 6.74896 20.7825 -0.173038
332 2 8.6742 20.7877 1.42969 8.6742 20.7877 1.42969
333 2 8.62601 20.7773 -1.83212 8.62601 20.7773 -1.83212
334 1 9.60061 22.4291 -0.220579 9.60061 22.4291 -0.220579
335 2 11.5226 22.4326 1.38607 11.5226 22.4326 1.38607
336 2 11.481 22.4256 -1.87584 11.481 22.4256 -1.87584
337 1 12.4525 20.7825 -0.25347 12.4525 20.7825 -0.25347
338 2 14.3687 20.7869 1.36009 14.3687 20.7869 1.36009
339 2 14.3387 20.778 -1.90194 14.3387 20.778 -1.90194
340 1 15.3043 22.4291 -0.284221 15.3043 22.4291 -0.284221
341 2 17.2123 22.4314 1.33927 17.2123 22.4314 1.33927
342 2 17.1991 22.4268 -1.92288 17.1991 22.4268 -1.92288
343 1 18.1564 20.7825 -0.293232 18.1564 20.7825 -0.293232
344 2 20.0563 20.7837 1.33974 20.0563 20.7837 1.33974
345 2 20.0593 20.7812 -1.92244 20.0593 20.7812 -1.92244
346 1 21.0084 22.4291 -0.291763 21.0084 22.4291 -0.291763
347 2 22.8986 22.4288 1.35245 22.8986 22.4288 1.35245
348 2 22.9209 22.4295 -1.90966 22.9209 22.4295 -1.90966
349 1 23.8604 20.7825 -0.272343 23.8604 20.7825 -0.272343
350 2 25.7442 20.7797 1.37926 25.7442 20.7797 1.37926
351 2 25.7792 20.7853 -1.88273 25.7792 20.7853 -1.88273
352 1 26.7123 22.4292 -0.238671 26.7123 22.4292 -0.238671
353 2 28.59 22.4262 1.41977 28.59 22.4262 1.41977
354 2 28.6369 22.4321 -1.84208 28.6369 22.4321 -1.84208
355 1 29.5641 20.7825 -0.200403 29.5641 20.7825 -0.200403
356 2 31.4403 20.7769 1.45967 31.4403 20.7769 1.45967
357 2 31.4901 20.7881 -1.80212 31.4901 20.7881 -1.80212
358 1 32.4157 22.4291 -0.150967 32.4157 22.4291 -0.150967
359 2 34.2925 22.4249 1.50837 34.2925 22.4249 1.50837
360 2 34.3412 22.4334 -1.75344 34.3412 22.4334 -1.75344
361 1 35.2675 20.7825 -0.112644 35.2675 20.7825 -0.112644
362 2 37.1482 20.7766 1.54216 37.1482 20.7766 1.54216
363 2 37.1891 20.7884 -1.71974 37.1891 20.7884 -1.71974
364 1 38.1192 22.4291 -0.0708363 38.1192 22.4291 -0.0708363
365 2 40.0065 22.4253 1.57646 40.0065 22.4253 1.57646
366 2 40.0345 22.4329 -1.68559 40.0345 22.4329 -1.68559
367 1 40.9712 20.7825 -0.0502696 40.9712 20.7825 -0.0502696
368 2 42.8658 20.7786 1.58854 42.8658 20.7786 1.58854
369 2 42.8793 20.7863 -1.6736 42.8793 20.7863 -1.6736
370 1 43.8232 22.4291 -0.0347045 43.8232 22.4291 -0.0347045
371 2 45.7271 22.4272 1.59331 45.7271 22.4272 1.59331
372 2 45.7221 22.4311 -1.66887 45.7221 22.4311 -1.66887
373 1 46.6753 20.7825 -0.0413431 46.6753 20.7825 -0.0413431
374 2 48.5865 20.7822 1.57796 48.5865 20.7822 1.57796
375 2 48.5667 20.7829 -1.68416 48.5667 20.7829 -1.68416
376 1 49.5273 22.4292 -0.0585381 49.5273 22.4292 -0.0585381
377 2 51.4464 22.4297 1.55142 51.4464 22.4297 1.55142
378 2 51.4106 22.4287 -1.71057 51.4106 22.4287 -1.71057
379 1 1.04545 24.0758 -0.0905379 1.04545 24.0758 -0.0905379
380 2 2.97 24.0759 1.51295 2.97 24.0759 1.51295
381 2 2.92324 24.0757 -1.7489 2.92324 24.0757 -1.7489
382 1 3.89719 25.7224 -0.131766 3.89719 25.7224 -0.131766
383 2 5.82418 25.7212 1.46882 5.82418 25.7212 1.46882
384 2 5.77244 25.7237 -1.79295 5.77244 25.7237 -1.79295
385 1 6.74887 24.0758 -0.178466 6.74887 24.0758 -0.178466
386 2 8.67478 24.0771 1.42347 8.67478 24.0771 1.42347
387 2 8.62525 24.0745 -1.83833 8.62525 24.0745 -1.83833
388 1 9.60056 25.7224 -0.22324 9.60056 25.7224 -0.22324
389 2 11.5229 25.7221 1.383 11.5229 25.7221 1.383
390 2 11.4806 25.7227 -1.8789 11.4806 25.7227 -1.8789
391 1 12.4524 24.0758 -0.260606 12.4524 24.0758 -0.260606
392 2 14.3682 24.0775 1.35352 14.3682 24.0775 1.35352
393 2 14.3391 24.0741 -1.90852 14.3391 24.0741 -1.90852
394 1 15.3043 25.7224 -0.287693 15.3043 25.7224 -0.287693
395 2 17.212 25.7229 1.33618 17.212 25.7229 1.33618
396 2 17.1994 25.7219 -1.92597 17.1994 25.7219 -1.92597
397 1 18.1564 24.0758 -0.297975 18.1564 24.0758 -0.297975
398 2 20.0549 24.0767 1.33664 20.0549 24.0767 1.33664
399 2 20.0606 24.0748 -1.92554 20.0606 24.0748 -1.92554
400 1 21.0084 25.7224 -0.293639 21.0084 25.7224 -0.293639
401 2 22.8978 25.7231 1.35151 22.8978 25.7231 1.35151
402 2 22.9217 25.7216 -1.91059 22.9217 25.7216 -1.91059
403 1 23.8604 24.0758 -0.271753 23.8604 24.0758 -0.271753
404 2 25.7426 24.0752 1.38168 25.7426 24.0752 1.38168
405 2 25.7807 24.0764 -1.88028 25.7807 24.0764 -1.88028
406 1 26.7123 25.7224 -0.2375 26.7123 25.7224 -0.2375
407 2 28.5892 25.7229 1.42183 28.5892 25.7229 1.42183
408 2 28.6376 25.722 -1.84 28.6376 25.722 -1.84
409 1 29.564 24.0758 -0.194423 29.564 24.0758 -0.194423
410 2 31.4393 24.0739 1.4667 31.4393 24.0739 1.4667
411 2 31.4909 24.0777 -1.79507 31.4909 24.0777 -1.79507
412 1 32.4156 25.7224 -0.147183 32.4156 25.7224 -0.147183
413 2 34.2921 25.7223 1.51255 34.2921 25.7223 1.51255
414 2 34.3415 25.7225 -1.74926 34.3415 25.7225 -1.74926
415 1 35.2674 24.0758 -0.104004 35.2674 24.0758 -0.104004
416 2 37.1483 24.0734 1.55066 37.1483 24.0734 1.55066
417 2 37.1889 24.0781 -1.71127 37.1889 24.0781 -1.71127
418 1 38.1192 25.7224 -0.0660601 38.1192 25.7224 -0.0660601
419 2 40.0066 25.7217 1.58111 40.0066 25.7217 1.58111
420 2 40.0344 25.7232 -1.68094 40.0344 25.7232 -1.68094
421 1 40.9712 24.0758 -0.0425583 40.9712 24.0758 -0.0425583
422 2 42.8667 24.0737 1.59515 42.8667 24.0737 1.59515
423 2 42.8783 24.0778 -1.66701 42.8783 24.0778 -1.66701
424 1 43.8232 25.7224 -0.0305006 43.8232 25.7224 -0.0305006
425 2 45.7275 25.721 1.59699 45.7275 25.721 1.59699
426 2 45.7216 25.7238 -1.66519 45.7216 25.7238 -1.66519
427 1 46.6753 24.0758 -0.0372684 46.6753 24.0758 -0.0372684
428 2 48.5879 24.0746 1.58041 48.5879 24.0746 1.58041
429 2 48.5653 24.077 -1.6817 48.5653 24.077 -1.6817
430 1 49.5273 25.7224 -0.0561065 49.5273 25.7224 -0.0561065
431 2 51.4471 25.7208 1.55303 51.4471 25.7208 1.55303
432 2 51.4099 25.7241 -1.70894 51.4099 25.7241 -1.70894
433 1 1.04547 27.3691 -0.08719 1.04547 27.3691 -0.08719
434 2 2.97015 27.3659 1.51613 2.97015 27.3659 1.51613
435 2 2.92311 27.3722 -1.74571 2.92311 27.3722 -1.74571
436 1 3.89725 29.0157 -0.125393 3.89725 29.0157 -0.125393
437 2 5.82421 29.0106 1.47521 5.82421 29.0106 1.47521
438 2 5.77252 29.0208 -1.78655 5.77252 29.0208 -1.78655
439 1 6.74888 27.3691 -0.175959 6.74888 27.3691 -0.175959
440 2 8.6753 27.3662 1.42537 8.6753 27.3662 1.42537
441 2 8.62473 27.372 -1.83642 8.62473 27.372 -1.83642
442 1 9.60061 29.0157 -0.217373 9.60061 29.0157 -0.217373
443 2 11.5238 29.0116 1.38792 11.5238 29.0116 1.38792
444 2 11.4798 29.0198 -1.87395 11.4798 29.0198 -1.87395
445 1 12.4524 27.3691 -0.260019 12.4524 27.3691 -0.260019
446 2 14.3687 27.3677 1.35348 14.3687 27.3677 1.35348
447 2 14.3386 27.3704 -1.90856 14.3386 27.3704 -1.90856
448 1 15.3043 29.0157 -0.284916 15.3043 29.0157 -0.284916
449 2 17.2131 29.0144 1.33763 17.2131 29.0144 1.33763
450 2 17.1983 29.017 -1.92451 17.1983 29.017 -1.92451
451 1 18.1564 27.369 -0.299048 18.1564 27.369 -0.299048
452 2 20.0551 27.3696 1.33531 20.0551 27.3696 1.33531
453 2 20.0604 27.3685 -1.92687 20.0604 27.3685 -1.92687
454 1 21.0084 29.0157 -0.294681 21.0084 29.0157 -0.294681
455 2 22.8988 29.0175 1.34941 22.8988 29.0175 1.34941
456 2 22.9208 29.0138 -1.9127 22.9208 29.0138 -1.9127
457 1 23.8604 27.369 -0.273261 23.8604 27.369 -0.273261
458 2 25.7425 27.3709 1.38028 25.7425 27.3709 1.38028
459 2 25.7808 27.3671 -1.88168 25.7808 27.3671 -1.88168
460 1 26.7123 29.0156 -0.241362 26.7123 29.0156 -0.241362
461 2 28.5896 29.0197 1.41751 28.5896 29.0197 1.41751
462 2 28.6373 29.0116 -1.84431 28.6373 29.0116 -1.84431
463 1 29.564 27.369 -0.195349 29.564 27.369 -0.195349
464 2 31.439 27.3714 1.46607 31.439 27.3714 1.46607
465 2 31.4912 27.3667 -1.79569 31.4912 27.3667 -1.79569
466 1 32.4157 29.0157 -0.151922 32.4157 29.0157 -0.151922
467 2 34.2919 29.0199 1.50814 34.2919 29.0199 1.50814
468 2 34.3418 29.0115 -1.75365 34.3418 29.0115 -1.75365
469 1 35.2674 27.3691 -0.103871 35.2674 27.3691 -0.103871
470 2 37.1479 27.3707 1.55119 37.1479 27.3707 1.55119
471 2 37.1893 27.3675 -1.71072 37.1893 27.3675 -1.71072
472 1 38.1192 29.0157 -0.0693435 38.1192 29.0157 -0.0693435
473 2 40.0057 29.0181 1.57886 40.0057 29.0181 1.57886
474 2 40.0353 29.0133 -1.68318 40.0353 29.0133 -1.68318
475 1 40.9711 27.3691 -0.0411039 40.9711 27.3691 -0.0411039
476 2 42.8663 27.369 1.59706 42.8663 27.369 1.59706
477 2 42.8787 27.3691 -1.66509 42.8787 27.3691 -1.66509
478 1 43.8232 29.0157 -0.0304127 43.8232 29.0157 -0.0304127
479 2 45.7264 29.015 1.5984 45.7264 29.015 1.5984
480 2 45.7228 29.0164 -1.66378 45.7228 29.0164 -1.66378
481 1 46.6753 27.3691 -0.0344952 46.6753 27.3691 -0.0344952
482 2 48.5877 27.3671 1.58346 48.5877 27.3671 1.58346
483 2 48.5655 27.371 -1.67865 48.5655 27.371 -1.67865
484 1 49.5273 29.0157 -0.0521473 49.5273 29.0157 -0.0521473
485 2 51.4463 29.012 1.55796 51.4463 29.012 1.55796
486 2 51.4108 29.0194 -1.70403 51.4108 29.0194 -1.70403
487 1 1.04553 30.6623 -0.0797311 1.04553 30.6623 -0.0797311
488 2 2.9692 30.6563 1.5248 2.9692 30.6563 1.5248
489 2 2.92423 30.6683 -1.73705 2.92423 30.6683 -1.73705
490 1 3.89737 32.3089 -0.113211 3.89737 32.3089 -0.113211
491 2 5.82363 32.3007 1.48824 5.82363 32.3007 1.48824
492 2 5.77339 32.3171 -1.77352 5.77339 32.3171 -1.77352
493 1 6.74899 30.6623 -0.165642 6.74899 30.6623 -0.165642
494 2 8.67572 30.6556 1.43528 8.67572 30.6556 1.43528
495 2 8.62451 30.6691 -1.82647 8.62451 30.6691 -1.82647
496 1 9.60075 32.309 -0.203751 9.60075 32.309 -0.203751
497 2 11.525 32.3017 1.40016 11.525 32.3017 1.40016
498 2 11.4788 32.3163 -1.86166 11.4788 32.3163 -1.86166
499 1 12.4524 30.6624 -0.251665 12.4524 30.6624 -0.251665
500 2 14.3703 30.6582 1.36005 14.3703 30.6582 1.36005
501 2 14.3371 30.6666 -1.90195 14.3371 30.6666 -1.90195
502 1 15.3044 32.309 -0.276294 15.3044 32.309 -0.276294
503 2 17.2156 32.3061 1.34338 17.2156 32.3061 1.34338
504 2 17.1959 32.3119 -1.91873 17.1959 32.3119 -1.91873
505 1 18.1564 30.6623 -0.296372 18.1564 30.6623 -0.296372
506 2 20.057 30.6625 1.33577 20.057 30.6625 1.33577
507 2 20.0585 30.6621 -1.92641 20.0585 30.6621 -1.92641
508 1 21.0085 32.3089 -0.294935 21.0085 32.3089 -0.294935
509 2 22.9013 32.3118 1.34619 22.9013 32.3118 1.34619
510 2 22.9183 32.3061 -1.91594 22.9183 32.3061 -1.91594
511 1 23.8604 30.6623 -0.277041 23.8604 30.6623 -0.277041
512 2 25.744 30.6666 1.37484 25.744 30.6666 1.37484
513 2 25.7794 30.6579 -1.88714 25.7794 30.6579 -1.88714
514 1 26.7124 32.3089 -0.250082 26.7124 32.3089 -0.250082
515 2 28.5912 32.316 1.4071 28.5912 32.316 1.4071
516 2 28.6359 32.3018 -1.85475 28.6359 32.3018 -1.85475
517 1 29.5641 30.6623 -0.203522 29.5641 30.6623 -0.203522
518 2 31.4395 30.6686 1.45748 31.4395 30.6686 1.45748
519 2 31.4909 30.656 -1.80427 31.4909 30.656 -1.80427
520 1 32.4158 32.3089 -0.164774 32.4158 32.3089 -0.164774
521 2 34.2917 32.3169 1.49559 34.2917 32.3169 1.49559
522 2 34.3422 32.301 -1.76616 34.3422 32.301 -1.76616
523 1 35.2675 30.6624 -0.112486 35.2675 30.6624 -0.112486
524 2 37.1471 30.6677 1.54359 37.1471 30.6677 1.54359
525 2 37.1902 30.657 -1.71829 37.1902 30.657 -1.71829
526 1 38.1193 32.309 -0.0802192 38.1193 32.309 -0.0802192
527 2 40.004 32.3141 1.57009 40.004 32.3141 1.57009
528 2 40.0372 32.3039 -1.6919 40.0372 32.3039 -1.6919
529 1 40.9712 30.6624 -0.0460085 40.9712 30.6624 -0.0460085
530 2 42.8646 30.6642 1.59417 42.8646 30.6642 1.59417
531 2 42.8804 30.6605 -1.66797 42.8804 30.6605 -1.66797
532 1 43.8232 32.309 -0.034258 43.8232 32.309 -0.034258
533 2 45.7239 32.309 1.59755 45.7239 32.309 1.59755
534 2 45.7253 32.309 -1.66463 45.7253 32.309 -1.66463
535 1 46.6753 30.6623 -0.0331155 46.6753 30.6623 -0.0331155
536 2 48.5859 30.6597 1.58697 48.5859 30.6597 1.58697
537 2 48.5674 30.6649 -1.67515 48.5674 30.6649 -1.67515