ITEM: TIMESTEP
27000
ITEM: NUMBER OF ATOMS
810
ITEM: BOX BOUNDS pp pp pp
8.6559205718156962e-01 5.2152012942817848e+01
8.1322974543501059e-01 5.0202985254564275e+01
-1.0000000000000000e+01 1.0000000000000000e+01
ITEM: ATOMS id type x y z xu yu zu
1 1 1.07398 1.02532 -0.589488 1.07398 1.02532 -0.589488
2 2 2.90678 1.05952 1.1184 2.90678 1.05952 1.1184
3 2 3.04053 0.991052 -2.14028 3.04053 0.991052 -2.14028
4 1 3.92385 2.67184 -0.506527 3.92385 2.67184 -0.506527
5 2 5.73532 2.7027 1.22391 5.73532 2.7027 1.22391
6 2 5.90947 2.64104 -2.03299 5.90947 2.64104 -2.03299
7 1 6.7713 1.02603 -0.322468 6.7713 1.02603 -0.322468
8 2 8.57252 1.06138 1.41834 8.57252 1.06138 1.41834
9 2 8.76567 0.990873 -1.83735 8.76567 0.990873 -1.83735
10 1 9.61849 2.67282 -0.188862 9.61849 2.67282 -0.188862
11 2 11.421 2.70455 1.55037 11.421 2.70455 1.55037
12 2 11.6116 2.64137 -1.70565 11.6116 2.64137 -1.70565
13 1 12.4649 1.02737 0.00992483 12.4649 1.02737 0.00992483
14 2 14.2814 1.06298 1.73434 14.2814 1.06298 1.73434
15 2 14.4457 0.992168 -1.52296 14.4457 0.992168 -1.52296
16 1 15.3134 2.67417 0.117704 15.3134 2.67417 0.117704
17 2 17.1531 2.70689 1.81705 17.1531 2.70689 1.81705
18 2 17.273 2.6419 -1.44234 17.273 2.6419 -1.44234
19 1 18.1629 1.02875 0.255152 18.1629 1.02875 0.255152
20 2 20.0339 1.06391 1.91999 20.0339 1.06391 1.91999
21 2 20.0936 0.993992 -1.34091 20.0936 0.993992 -1.34091
22 1 21.0142 2.6753 0.271456 21.0142 2.6753 0.271456
23 2 22.9189 2.70928 1.89752 22.9189 2.70928 1.89752
24 2 22.9118 2.6417 -1.36401 22.9118 2.6417 -1.36401
25 1 23.866 1.02947 0.298749 23.866 1.02947 0.298749
26 2 25.8041 1.06434 1.88484 25.8041 1.06434 1.88484
27 2 25.7293 0.994773 -1.37574 25.7293 0.994773 -1.37574
28 1 26.7168 2.67557 0.197413 26.7168 2.67557 0.197413
29 2 28.6828 2.71043 1.74861 28.6828 2.71043 1.74861
30 2 28.5498 2.64072 -1.51014 28.5498 2.64072 -1.51014
31 1 29.5664 1.0291 0.115599 29.5664 1.0291 0.115599
32 2 31.5527 1.06389 1.64078 31.5527 1.06389 1.64078
33 2 31.3768 0.994141 -1.6159 31.3768 0.994141 -1.6159
34 1 32.4134 2.67468 -0.0743219 32.4134 2.67468 -0.0743219
35 2 34.4088 2.7094 1.43908 34.4088 2.7094 1.43908
36 2 34.2134 2.63963 -1.8165 34.2134 2.63963 -1.8165
37 1 35.2604 1.02781 -0.210444 35.2604 1.02781 -0.210444
38 2 37.2541 1.06251 1.30542 37.2541 1.06251 1.30542
39 2 37.0623 0.992772 -1.95037 37.0623 0.992772 -1.95037
40 1 38.1067 2.67317 -0.413795 38.1067 2.67317 -0.413795
41 2 40.0865 2.70687 1.12052 40.0865 2.70687 1.12052
42 2 39.9246 2.63914 -2.1369 39.9246 2.63914 -2.1369
43 1 40.9554 1.02635 -0.521086 40.9554 1.02635 -0.521086
44 2 42.913 1.06058 1.04175 42.913 1.06058 1.04175
45 2 42.7979 0.991824 -2.21766 42.7979 0.991824 -2.21766
46 1 43.8054 2.67196 -0.656321 43.8054 2.67196 -0.656321
47 2 45.7325 2.70398 0.944286 45.7325 2.70398 0.944286
48 2 45.6805 2.63976 -2.31677 45.6805 2.63976 -2.31677
49 1 46.6572 1.02543 -0.668799 46.6572 1.02543 -0.668799
50 2 48.5518 1.05912 0.970191 48.5518 1.05912 0.970191
51 2 48.5652 0.991556 -2.29122 48.5652 0.991556 -2.29122
52 1 49.5093 2.67152 -0.690766 49.5093 2.67152 -0.690766
53 2 51.3704 2.70224 0.986376 51.3704 2.70224 0.986376
54 2 51.4499 2.64072 -2.27417 51.4499 2.64072 -2.27417
55 1 1.07437 4.31801 -0.65182 1.07437 4.31801 -0.65182
56 2 2.90626 4.34364 1.05728 2.90626 4.34364 1.05728
57 2 3.04204 4.29237 -2.20157 3.04204 4.29237 -2.20157
58 1 3.92419 5.96478 -0.558481 3.92419 5.96478 -0.558481
59 2 5.73484 5.98385 1.17302 5.73484 5.98385 1.17302
60 2 5.91069 5.94573 -2.08412 5.91069 5.94573 -2.08412
61 1 6.77199 4.31861 -0.384943 6.77199 4.31861 -0.384943
62 2 8.57278 4.34441 1.35647 8.57278 4.34441 1.35647
63 2 8.76682 4.29293 -1.89952 8.76682 4.29293 -1.89952
64 1 9.61892 5.96545 -0.241017 9.61892 5.96545 -0.241017
65 2 11.4215 5.98561 1.4983 11.4215 5.98561 1.4983
66 2 11.6119 5.94545 -1.75812 11.6119 5.94545 -1.75812
67 1 12.4656 4.31965 -0.0540945 12.4656 4.31965 -0.0540945
68 2 14.2817 4.34713 1.67082 14.2817 4.34713 1.67082
69 2 14.4467 4.29252 -1.5868 14.4467 4.29252 -1.5868
70 1 15.3137 5.96642 0.0624315 15.3137 5.96642 0.0624315
71 2 17.1541 5.99019 1.76105 17.1541 5.99019 1.76105
72 2 17.2725 5.94304 -1.49878 17.2725 5.94304 -1.49878
73 1 18.1632 4.32086 0.189356 18.1632 4.32086 0.189356
74 2 20.0339 4.35114 1.85436 20.0339 4.35114 1.85436
75 2 20.0937 4.29106 -1.40683 20.0937 4.29106 -1.40683
76 1 21.0142 5.96741 0.210718 21.0142 5.96741 0.210718
77 2 22.9197 5.99582 1.83563 22.9197 5.99582 1.83563
78 2 22.9105 5.93941 -1.42618 22.9105 5.93941 -1.42618
79 1 23.8657 4.32165 0.230366 23.8657 4.32165 0.230366
80 2 25.8036 4.35461 1.81652 25.8036 4.35461 1.81652
81 2 25.7289 4.28893 -1.44422 25.7289 4.28893 -1.44422
82 1 26.7161 5.96775 0.130977 26.7161 5.96775 0.130977
83 2 28.6822 5.99901 1.68196 28.6822 5.99901 1.68196
84 2 28.5487 5.93652 -1.57698 28.5487 5.93652 -1.57698
85 1 29.5655 4.32138 0.0450112 29.5655 4.32138 0.0450112
86 2 31.5512 4.35513 1.57092 31.5512 4.35513 1.57092
87 2 31.3764 4.28742 -1.68591 31.3764 4.28742 -1.68591
88 1 32.4123 5.96698 -0.142925 32.4123 5.96698 -0.142925
89 2 34.4066 5.99773 1.37191 34.4066 5.99773 1.37191
90 2 34.2134 5.9359 -1.88397 34.2134 5.9359 -1.88397
91 1 35.2593 4.3201 -0.281169 35.2593 4.3201 -0.281169
92 2 37.2518 4.35263 1.23629 37.2518 4.35263 1.23629
93 2 37.0627 4.2872 -2.01972 37.0627 4.2872 -2.01972
94 1 38.1058 5.96564 -0.480148 38.1058 5.96564 -0.480148
95 2 40.0837 5.99363 1.05668 40.0837 5.99363 1.05668
96 2 39.9259 5.93735 -2.20111 39.9259 5.93735 -2.20111
97 1 40.9547 4.31871 -0.58976 40.9547 4.31871 -0.58976
98 2 42.9106 4.34885 0.975299 42.9106 4.34885 0.975299
99 2 42.7993 4.28836 -2.28432 42.7993 4.28836 -2.28432
100 1 43.805 5.96467 -0.717666 43.805 5.96467 -0.717666
101 2 45.7298 5.98892 0.885858 45.7298 5.98892 0.885858
102 2 45.6827 5.94035 -2.37546 45.6827 5.94035 -2.37546
103 1 46.6571 4.31798 -0.733894 46.6571 4.31798 -0.733894
104 2 48.5501 4.34532 0.907258 48.5501 4.34532 0.907258
105 2 48.5671 4.29059 -2.35429 48.5671 4.29059 -2.35429
106 1 49.5094 5.96445 -0.74625 49.5094 5.96445 -0.74625
107 2 51.3687 5.98517 0.933187 51.3687 5.98517 0.933187
108 2 51.452 5.94376 -2.32751 51.452 5.94376 -2.32751
109 1 1.07446 7.61126 -0.69382 1.07446 7.61126 -0.69382
110 2 2.90459 7.62408 1.01736 2.90459 7.62408 1.01736
111 2 3.0439 7.59846 -2.2416 3.0439 7.59846 -2.2416
112 1 3.92406 9.25817 -0.584472 3.92406 9.25817 -0.584472
113 2 5.73345 9.26267 1.14845 5.73345 9.26267 1.14845
114 2 5.91173 9.25361 -2.10876 5.91173 9.25361 -2.10876
115 1 6.77209 7.61164 -0.423575 6.77209 7.61164 -0.423575
116 2 8.5726 7.62367 1.31824 8.5726 7.62367 1.31824
117 2 8.76718 7.59962 -1.93804 8.76718 7.59962 -1.93804
118 1 9.61869 9.25841 -0.26536 9.61869 9.25841 -0.26536
119 2 11.4222 9.26407 1.47302 11.4222 9.26407 1.47302
120 2 11.6108 9.25273 -1.78375 11.6108 9.25273 -1.78375
121 1 12.4657 7.61222 -0.0947376 12.4657 7.61222 -0.0947376
122 2 14.2829 7.62738 1.62897 14.2829 7.62738 1.62897
123 2 14.4456 7.59727 -1.62914 14.4456 7.59727 -1.62914
124 1 15.3135 9.25885 0.0320549 15.3135 9.25885 0.0320549
125 2 17.1567 9.27029 1.72774 17.1567 9.27029 1.72774
126 2 17.2697 9.2477 -1.53259 17.2697 9.2477 -1.53259
127 1 18.1632 7.61306 0.141725 18.1632 7.61306 0.141725
128 2 20.0359 7.63412 1.80445 20.0359 7.63412 1.80445
129 2 20.0916 7.59243 -1.45717 20.0916 7.59243 -1.45717
130 1 21.014 9.25957 0.168662 21.014 9.25957 0.168662
131 2 22.9222 9.27835 1.79029 22.9222 9.27835 1.79029
132 2 22.9072 9.24119 -1.47185 22.9072 9.24119 -1.47185
133 1 23.8653 7.61377 0.173358 23.8653 7.61377 0.173358
134 2 25.8045 7.64019 1.75779 25.8045 7.64019 1.75779
135 2 25.7267 7.58762 -1.50319 25.7267 7.58762 -1.50319
136 1 26.7153 9.25996 0.0778283 26.7153 9.25996 0.0778283
137 2 28.6823 9.28314 1.62765 28.6823 9.28314 1.62765
138 2 28.5467 9.23682 -1.63151 28.5467 9.23682 -1.63151
139 1 29.5645 7.61363 -0.0182441 29.5645 7.61363 -0.0182441
140 2 31.5498 7.64157 1.50819 31.5498 7.64157 1.50819
141 2 31.3757 7.58552 -1.74892 31.3757 7.58552 -1.74892
142 1 32.4111 9.25946 -0.199722 32.4111 9.25946 -0.199722
143 2 34.4041 9.28198 1.31697 34.4041 9.28198 1.31697
144 2 34.2137 9.23664 -1.93935 34.2137 9.23664 -1.93935
145 1 35.2582 7.6126 -0.34387 35.2582 7.6126 -0.34387
146 2 37.2489 7.63818 1.1761 37.2489 7.63818 1.1761
147 2 37.0637 7.5867 -2.08037 37.0637 7.5867 -2.08037
148 1 38.1049 9.2585 -0.532395 38.1049 9.2585 -0.532395
149 2 40.0802 9.27697 1.00791 40.0802 9.27697 1.00791
150 2 39.928 9.23982 -2.25038 39.928 9.23982 -2.25038
151 1 40.954 7.61154 -0.646857 40.954 7.61154 -0.646857
152 2 42.9075 7.6329 0.92153 42.9075 7.6329 0.92153
153 2 42.8015 7.59005 -2.33849 42.8015 7.59005 -2.33849
154 1 43.8046 9.25793 -0.761158 43.8046 9.25793 -0.761158
155 2 45.7265 9.27106 0.846189 45.7265 9.27106 0.846189
156 2 45.6857 9.24481 -2.41542 45.6857 9.24481 -2.41542
157 1 46.657 7.61111 -0.783165 46.657 7.61111 -0.783165
158 2 48.5473 7.6277 0.861232 48.5473 7.6277 0.861232
159 2 48.5698 7.59457 -2.4005 48.5698 7.59457 -2.4005
160 1 49.5094 9.25793 -0.779882 49.5094 9.25793 -0.779882
161 2 51.3659 9.26571 0.90274 51.3659 9.26571 0.90274
162 2 51.4547 9.25021 -2.358 51.4547 9.25021 -2.358
163 1 1.07427 10.9049 -0.709601 1.07427 10.9049 -0.709601
164 2 2.90191 10.9035 1.0043 2.90191 10.9035 1.0043
165 2 3.046 10.9063 -2.25453 3.046 10.9063 -2.25453
166 1 3.92352 12.5517 -0.581675 3.92352 12.5517 -0.581675
167 2 5.73124 12.5416 1.15296 5.73124 12.5416 1.15296
168 2 5.91265 12.5616 -2.10402 5.91265 12.5616 -2.10402
169 1 6.77161 10.9049 -0.432766 6.77161 10.9049 -0.432766
170 2 8.57199 10.9018 1.3092 8.57199 10.9018 1.3092
171 2 8.76679 10.908 -1.94715 8.76679 10.908 -1.94715
172 1 9.61791 12.5514 -0.25906 9.61791 12.5514 -0.25906
173 2 11.423 12.5422 1.47765 11.423 12.5422 1.47765
174 2 11.6087 12.5606 -1.77927 11.6087 12.5606 -1.77927
175 1 12.4653 10.905 -0.106135 12.4653 10.905 -0.106135
176 2 14.2851 10.9058 1.6148 14.2851 10.9058 1.6148
177 2 14.4427 10.9042 -1.64371 14.4427 10.9042 -1.64371
178 1 15.313 12.5514 0.030687 15.313 12.5514 0.030687
179 2 17.1603 12.5487 1.72184 17.1603 12.5487 1.72184
180 2 17.2653 12.5542 -1.53885 17.2653 12.5542 -1.53885
181 1 18.163 10.9054 0.119029 18.163 10.9054 0.119029
182 2 20.0396 10.9141 1.77738 20.0396 10.9141 1.77738
183 2 20.0874 10.897 -1.48462 20.0874 10.897 -1.48462
184 1 21.0136 12.5518 0.151608 21.0136 12.5518 0.151608
185 2 22.926 12.5577 1.7684 22.926 12.5577 1.7684
186 2 22.9026 12.5463 -1.49391 22.9026 12.5463 -1.49391
187 1 23.8648 10.906 0.135867 23.8648 10.906 0.135867
188 2 25.8066 10.9218 1.71712 25.8066 10.9218 1.71712
189 2 25.7233 10.8904 -1.54404 25.7233 10.8904 -1.54404
190 1 26.7146 12.5523 0.0461684 26.7146 12.5523 0.0461684
191 2 28.6831 12.5635 1.59401 28.6831 12.5635 1.59401
192 2 28.544 12.5412 -1.66529 28.544 12.5412 -1.66529
193 1 29.5635 10.906 -0.0651374 29.5635 10.906 -0.0651374
194 2 31.5486 10.9241 1.46157 31.5486 10.9241 1.46157
195 2 31.3747 10.8879 -1.79586 31.3747 10.8879 -1.79586
196 1 32.41 12.5522 -0.236406 32.41 12.5522 -0.236406
197 2 34.4017 12.5631 1.28211 34.4017 12.5631 1.28211
198 2 34.2141 12.541 -1.97461 34.2141 12.541 -1.97461
199 1 35.2571 10.9054 -0.38988 35.2571 10.9054 -0.38988
200 2 37.2456 10.9207 1.1332 37.2456 10.9207 1.1332
201 2 37.0652 10.8899 -2.12379 37.0652 10.8899 -2.12379
202 1 38.1041 12.5518 -0.563639 38.1041 12.5518 -0.563639
203 2 40.0766 12.5584 0.980537 40.0766 12.5584 0.980537
204 2 39.9305 12.5449 -2.2782 39.9305 12.5449 -2.2782
205 1 40.9535 10.9048 -0.684599 40.9535 10.9048 -0.684599
206 2 42.9038 10.9148 0.88785 42.9038 10.9148 0.88785
207 2 42.8045 10.8948 -2.37257 42.8045 10.8948 -2.37257
208 1 43.8044 12.5516 -0.781561 43.8044 12.5516 -0.781561
209 2 45.7227 12.5523 0.830025 45.7227 12.5523 0.830025
210 2 45.6891 12.5508 -2.43175 45.6891 12.5508 -2.43175
211 1 46.6568 10.9047 -0.809856 46.6568 10.9047 -0.809856
212 2 48.5439 10.9087 0.83849 48.5439 10.9087 0.83849
213 2 48.573 10.9009 -2.42332 48.573 10.9009 -2.42332
214 1 49.5092 12.5517 -0.787899 49.5092 12.5517 -0.787899
215 2 51.3624 12.5461 0.898469 51.3624 12.5461 0.898469
216 2 51.4577 12.5573 -2.36209 51.4577 12.5573 -2.36209
217 1 1.07385 14.1985 -0.698343 1.07385 14.1985 -0.698343
218 2 2.89851 14.1838 1.01868 2.89851 14.1838 1.01868
219 2 3.04823 14.2132 -2.23978 3.04823 14.2132 -2.23978
220 1 3.92271 15.8451 -0.552025 3.92271 15.8451 -0.552025
221 2 5.72846 15.8225 1.18453 5.72846 15.8225 1.18453
222 2 5.91349 15.8674 -2.07202 5.91349 15.8674 -2.07202
223 1 6.77069 14.1982 -0.412497 6.77069 14.1982 -0.412497
224 2 8.57087 14.1809 1.32957 8.57087 14.1809 1.32957
225 2 8.76602 14.2152 -1.92659 8.76602 14.2152 -1.92659
226 1 9.61676 15.8443 -0.224229 9.61676 15.8443 -0.224229
227 2 11.4235 15.8218 1.51066 11.4235 15.8218 1.51066
228 2 11.6061 15.8667 -1.74617 11.6061 15.8667 -1.74617
229 1 12.4644 14.1977 -0.0873792 12.4644 14.1977 -0.0873792
230 2 14.2875 14.1841 1.62994 14.2875 14.1841 1.62994
231 2 14.4388 14.2113 -1.62876 14.4388 14.2113 -1.62876
232 1 15.3123 15.8438 0.058429 15.3123 15.8438 0.058429
233 2 17.1641 15.8271 1.7445 17.1641 15.8271 1.7445
234 2 17.2604 15.8608 -1.51626 17.2604 15.8608 -1.51626
235 1 18.1626 14.1977 0.124828 18.1626 14.1977 0.124828
236 2 20.044 14.1922 1.77763 20.044 14.1922 1.77763
237 2 20.0823 14.2036 -1.48454 20.0823 14.2036 -1.48454
238 1 21.0133 15.8441 0.163334 21.0133 15.8441 0.163334
239 2 22.9303 15.8352 1.77463 22.9303 15.8352 1.77463
240 2 22.8976 15.8534 -1.48756 22.8976 15.8534 -1.48756
241 1 23.8644 14.1983 0.12446 23.8644 14.1983 0.12446
242 2 25.8095 14.2002 1.70157 25.8095 14.2002 1.70157
243 2 25.7192 14.1966 -1.55956 25.7192 14.1966 -1.55956
244 1 26.714 15.8448 0.0425954 26.714 15.8448 0.0425954
245 2 28.6847 15.8412 1.58769 28.6847 15.8412 1.58769
246 2 28.5411 15.8485 -1.67147 28.5411 15.8485 -1.67147
247 1 29.5625 14.1986 -0.0877346 29.5625 14.1986 -0.0877346
248 2 31.548 14.2034 1.43862 31.548 14.2034 1.43862
249 2 31.3733 14.1938 -1.81895 31.3733 14.1938 -1.81895
250 1 32.4092 15.8451 -0.246195 32.4092 15.8451 -0.246195
251 2 34.4001 15.8422 1.27334 34.4001 15.8422 1.27334
252 2 34.2141 15.8479 -1.98353 34.2141 15.8479 -1.98353
253 1 35.2563 14.1986 -0.412381 35.2563 14.1986 -0.412381
254 2 37.2425 14.2011 1.11361 37.2425 14.2011 1.11361
255 2 37.0668 14.1957 -2.14376 37.0668 14.1957 -2.14376
256 1 38.1036 15.8452 -0.56923 38.1036 15.8452 -0.56923
257 2 40.0735 15.839 0.978247 40.0735 15.839 0.978247
258 2 39.9328 15.8512 -2.28074 39.9328 15.8512 -2.28074
259 1 40.9531 14.1984 -0.6984 40.9531 14.1984 -0.6984
260 2 42.9001 14.196 0.878125 42.9001 14.196 0.878125
261 2 42.8076 14.2008 -2.38254 42.8076 14.2008 -2.38254
262 1 43.8042 15.8453 -0.776892 43.8042 15.8453 -0.776892
263 2 45.7193 15.834 0.838609 45.7193 15.834 0.838609
264 2 45.6923 15.8566 -2.42317 45.6923 15.8566 -2.42317
265 1 46.6567 14.1985 -0.811496 46.6567 14.1985 -0.811496
266 2 48.5401 14.1899 0.840989 48.5401 14.1899 0.840989
267 2 48.5764 14.2072 -2.42072 48.5764 14.2072 -2.42072
268 1 49.5089 15.8454 -0.770566 49.5089 15.8454 -0.770566
269 2 51.3586 15.8278 0.919614 51.3586 15.8278 0.919614
270 2 51.4607 15.8629 -2.3406 51.4607 15.8629 -2.3406
271 1 1.07328 17.4919 -0.662942 1.07328 17.4919 -0.662942
272 2 2.89491 17.4665 1.05716 2.89491 17.4665 1.05716
273 2 3.05026 17.5171 -2.20081 3.05026 17.5171 -2.20081
274 1 3.92175 19.138 -0.500862 3.92175 19.138 -0.500862
275 2 5.72556 19.1066 1.23756 5.72556 19.1066 1.23756
276 2 5.91413 19.1691 -2.01851 5.91413 19.1691 -2.01851
277 1 6.76952 17.4911 -0.367034 6.76952 17.4911 -0.367034
278 2 8.56931 17.4627 1.37528 8.56931 17.4627 1.37528
279 2 8.76515 17.5193 -1.88052 8.76515 17.5193 -1.88052
280 1 9.61544 19.1369 -0.166826 9.61544 19.1369 -0.166826
281 2 11.4234 19.1046 1.56661 11.4234 19.1046 1.56661
282 2 11.6037 19.1689 -1.68999 11.6037 19.1689 -1.68999
283 1 12.4633 17.4902 -0.041802 12.4633 17.4902 -0.041802
284 2 14.2896 17.4641 1.67199 14.2896 17.4641 1.67199
285 2 14.4349 17.5163 -1.58665 14.4349 17.5163 -1.58665
286 1 15.3114 19.1361 0.111358 15.3114 19.1361 0.111358
287 2 17.1673 19.1075 1.79295 17.1673 19.1075 1.79295
288 2 17.256 19.165 -1.46765 17.256 19.165 -1.46765
289 1 18.162 17.49 0.159157 18.162 17.49 0.159157
290 2 20.0483 17.4703 1.80635 20.0483 17.4703 1.80635
291 2 20.0772 17.5101 -1.45565 20.0772 17.5101 -1.45565
292 1 21.013 19.1363 0.203707 21.013 19.1363 0.203707
293 2 22.9343 19.1132 1.80983 22.9343 19.1132 1.80983
294 2 22.8931 19.1599 -1.45192 22.8931 19.1599 -1.45192
295 1 23.864 17.4906 0.142997 23.864 17.4906 0.142997
296 2 25.8129 17.4772 1.71555 25.8129 17.4772 1.71555
297 2 25.715 17.5043 -1.54523 25.715 17.5043 -1.54523
298 1 26.7138 19.1372 0.0701055 26.7138 19.1372 0.0701055
299 2 28.6871 19.1183 1.61189 28.6871 19.1183 1.61189
300 2 28.5382 19.1562 -1.64679 28.5382 19.1562 -1.64679
301 1 29.562 17.4913 -0.0803282 29.562 17.4913 -0.0803282
302 2 31.5485 17.481 1.44469 31.5485 17.481 1.44469
303 2 31.3717 17.5016 -1.81271 31.3717 17.5016 -1.81271
304 1 32.4089 19.138 -0.225353 32.4089 19.138 -0.225353
305 2 34.4001 19.1207 1.29374 34.4001 19.1207 1.29374
306 2 34.2135 19.1552 -1.96292 34.2135 19.1552 -1.96292
307 1 35.2557 17.4917 -0.40664 35.2557 17.4917 -0.40664
308 2 37.2407 17.4807 1.12105 37.2407 17.4807 1.12105
309 2 37.0678 17.5026 -2.1364 37.0678 17.5026 -2.1364
310 1 38.1034 19.1385 -0.547155 38.1034 19.1385 -0.547155
311 2 40.0719 19.1201 1.00202 40.0719 19.1201 1.00202
312 2 39.9342 19.1568 -2.25692 39.9342 19.1568 -2.25692
313 1 40.9529 17.492 -0.686226 40.9529 17.492 -0.686226
314 2 42.8973 17.4776 0.893422 42.8973 17.4776 0.893422
315 2 42.81 17.5063 -2.36728 42.81 17.5063 -2.36728
316 1 43.8041 19.1388 -0.747881 43.8041 19.1388 -0.747881
317 2 45.7167 19.1171 0.870376 45.7167 19.1171 0.870376
318 2 45.6945 19.1604 -2.39127 45.6945 19.1604 -2.39127
319 1 46.6565 17.4922 -0.788744 46.6565 17.4922 -0.788744
320 2 48.5367 17.4726 0.86738 48.5367 17.4726 0.86738
321 2 48.5793 17.5117 -2.3941 48.5793 17.5117 -2.3941
322 1 49.5086 19.1388 -0.731097 49.5086 19.1388 -0.731097
323 2 51.3552 19.112 0.962313 51.3552 19.112 0.962313
324 2 51.4631 19.1653 -2.29751 51.4631 19.1653 -2.29751
325 1 1.07263 20.7849 -0.6091 1.07263 20.7849 -0.6091
326 2 2.89176 20.7527 1.11351 2.89176 20.7527 1.11351
327 2 3.05167 20.8167 -2.14405 3.05167 20.8167 -2.14405
328 1 3.92077 22.4306 -0.436176 3.92077 22.4306 -0.436176
329 2 5.72308 22.3953 1.30373 5.72308 22.3953 1.30373
330 2 5.91434 22.4655 -1.95206 5.91434 22.4655 -1.95206
331 1 6.76826 20.7837 -0.303818 6.76826 20.7837 -0.303818
332 2 8.56754 20.7486 1.43894 8.56754 20.7486 1.43894
333 2 8.76433 20.8185 -1.81655 8.76433 20.8185 -1.81655
334 1 9.61414 22.4292 -0.0959674 9.61414 22.4292 -0.0959674
335 2 11.4228 22.3923 1.63671 11.4228 22.3923 1.63671
336 2 11.6019 22.4658 -1.61973 11.6019 22.4658 -1.61973
337 1 12.4621 20.7825 0.0234468 12.4621 20.7825 0.0234468
338 2 14.2909 20.748 1.73461 14.2909 20.748 1.73461
339 2 14.4318 20.817 -1.52386 14.4318 20.817 -1.52386
340 1 15.3106 22.4282 0.181305 15.3106 22.4282 0.181305
341 2 17.1692 22.3924 1.8599 17.1692 22.3924 1.8599
342 2 17.2529 22.4644 -1.40046 17.2529 22.4644 -1.40046
343 1 18.1615 20.7821 0.217501 18.1615 20.7821 0.217501
344 2 20.0518 20.7511 1.86019 20.0518 20.7511 1.86019
345 2 20.0732 20.8136 -1.40144 20.0732 20.8136 -1.40144
346 1 21.0129 22.4284 0.267068 21.0129 22.4284 0.267068
347 2 22.9375 22.3948 1.86933 22.9375 22.3948 1.86933
348 2 22.89 22.4625 -1.39188 22.89 22.4625 -1.39188
349 1 23.864 20.7828 0.190347 23.864 20.7828 0.190347
350 2 25.8163 20.7556 1.75869 25.8163 20.7556 1.75869
351 2 25.7117 20.8103 -1.50148 25.7117 20.8103 -1.50148
352 1 26.7141 22.4293 0.125586 26.7141 22.4293 0.125586
353 2 28.69 22.3981 1.66407 28.69 22.3981 1.66407
354 2 28.5359 22.4609 -1.59392 28.5359 22.4609 -1.59392
355 1 29.562 20.7838 -0.041917 29.562 20.7838 -0.041917
356 2 31.5503 20.7593 1.48075 31.5503 20.7593 1.48075
357 2 31.3699 20.8084 -1.77612 31.3699 20.8084 -1.77612
358 1 32.4092 22.4305 -0.175608 32.4092 22.4305 -0.175608
359 2 34.4019 22.4012 1.34154 34.4019 22.4012 1.34154
360 2 34.2123 22.4599 -1.91459 34.2123 22.4599 -1.91459
361 1 35.2557 20.7847 -0.371686 35.2557 20.7847 -0.371686
362 2 37.2408 20.7612 1.1558 37.2408 20.7612 1.1558
363 2 37.0677 20.8082 -2.10139 37.0677 20.8082 -2.10139
364 1 38.1036 22.4315 -0.499528 38.1036 22.4315 -0.499528
365 2 40.0723 22.4032 1.04921 40.0723 22.4032 1.04921
366 2 39.934 22.4596 -2.20947 39.934 22.4596 -2.20947
367 1 40.9529 20.7853 -0.649064 40.9529 20.7853 -0.649064
368 2 42.8961 20.7607 0.93192 42.8961 20.7607 0.93192
369 2 42.8112 20.8097 -2.32865 42.8112 20.8097 -2.32865
370 1 43.8042 22.4319 -0.698332 43.8042 22.4319 -0.698332
371 2 45.7158 22.4028 0.920922 45.7158 22.4028 0.920922
372 2 45.6953 22.4607 -2.34058 45.6953 22.4607 -2.34058
373 1 46.6564 20.7854 -0.744975 46.6564 20.7854 -0.744975
374 2 48.5342 20.7577 0.913584 48.5342 20.7577 0.913584
375 2 48.5812 20.8129 -2.34766 48.5812 20.8129 -2.34766
376 1 49.5083 22.4316 -0.675342 49.5083 22.4316 -0.675342
377 2 51.3528 22.3997 1.02011 51.3528 22.3997 1.02011
378 2 51.4643 22.4632 -2.23948 51.4643 22.4632 -2.23948
379 1 1.07199 24.0774 -0.544921 1.07199 24.0774 -0.544921
380 2 2.8897 24.0435 1.17912 2.8897 24.0435 1.17912
381 2 3.05208 24.1109 -2.0783 3.05208 24.1109 -2.0783
382 1 3.91991 25.7228 -0.367954 3.91991 25.7228 -0.367954
383 2 5.72153 25.6893 1.3727 5.72153 25.6893 1.3727
384 2 5.91395 25.756 -1.88312 5.91395 25.756 -1.88312
385 1 6.7671 24.076 -0.232748 6.7671 24.076 -0.232748
386 2 8.56593 24.0398 1.5105 8.56593 24.0398 1.5105
387 2 8.76356 24.1119 -1.74488 8.76356 24.1119 -1.74488
388 1 9.61304 25.7214 -0.0230085 9.61304 25.7214 -0.0230085
389 2 11.4219 25.6862 1.70963 11.4219 25.6862 1.70963
390 2 11.6008 25.7566 -1.54685 11.6008 25.7566 -1.54685
391 1 12.461 24.0747 0.0979196 12.461 24.0747 0.0979196
392 2 14.2911 24.0376 1.80779 14.2911 24.0376 1.80779
393 2 14.4297 24.1119 -1.45059 14.4297 24.1119 -1.45059
394 1 15.3098 25.7205 0.256613 15.3098 25.7205 0.256613
395 2 17.1696 25.6837 1.93415 17.1696 25.6837 1.93415
396 2 17.2515 25.7575 -1.32612 17.2515 25.7575 -1.32612
397 1 18.1611 24.0742 0.290451 18.1611 24.0742 0.290451
398 2 20.0537 24.0373 1.93055 20.0537 24.0373 1.93055
399 2 20.0708 24.1116 -1.33075 20.0708 24.1116 -1.33075
400 1 21.0129 25.7204 0.342368 21.0129 25.7204 0.342368
401 2 22.9392 25.6826 1.94281 22.9392 25.6826 1.94281
402 2 22.8888 25.7587 -1.31807 22.8888 25.7587 -1.31807
403 1 23.8643 24.0748 0.258967 23.8643 24.0748 0.258967
404 2 25.8191 24.0387 1.82428 25.8191 24.0387 1.82428
405 2 25.7097 24.1113 -1.43528 25.7097 24.1113 -1.43528
406 1 26.7148 25.7214 0.199199 26.7148 25.7214 0.199199
407 2 28.6927 25.6836 1.73526 28.6927 25.6836 1.73526
408 2 28.5348 25.7596 -1.5222 28.5348 25.7596 -1.5222
409 1 29.5627 24.076 0.0217819 29.5627 24.076 0.0217819
410 2 31.5531 24.0415 1.54168 31.5531 24.0415 1.54168
411 2 31.3684 24.1108 -1.71455 31.3684 24.1108 -1.71455
412 1 32.4102 25.7228 -0.105282 32.4102 25.7228 -0.105282
413 2 34.4049 25.6865 1.40911 34.4049 25.6865 1.40911
414 2 34.211 25.7592 -1.84648 34.211 25.7592 -1.84648
415 1 35.2563 24.0773 -0.312183 35.2563 24.0773 -0.312183
416 2 37.2428 24.0448 1.21327 37.2428 24.0448 1.21327
417 2 37.0666 24.1098 -2.04347 37.0666 24.1098 -2.04347
418 1 38.1043 25.724 -0.433559 38.1043 25.724 -0.433559
419 2 40.0747 25.6902 1.11288 40.0747 25.6902 1.11288
420 2 39.9327 25.7576 -2.14548 39.9327 25.7576 -2.14548
421 1 40.9532 24.0781 -0.591862 40.9532 24.0781 -0.591862
422 2 42.8969 24.0469 0.988381 42.8969 24.0469 0.988381
423 2 42.8108 24.109 -2.27201 42.8108 24.109 -2.27201
424 1 43.8044 25.7245 -0.635393 43.8044 25.7245 -0.635393
425 2 45.7166 25.6924 0.982941 45.7166 25.6924 0.982941
426 2 45.6945 25.7562 -2.27853 45.6945 25.7562 -2.27853
427 1 46.6563 24.0782 -0.686406 46.6563 24.0782 -0.686406
428 2 48.5334 24.0464 0.972904 48.5334 24.0464 0.972904
429 2 48.5816 24.1095 -2.28826 48.5816 24.1095 -2.28826
430 1 49.5079 25.724 -0.611548 49.5079 25.724 -0.611548
431 2 51.352 25.6919 1.08433 51.352 25.6919 1.08433
432 2 51.4641 25.7557 -2.1753 51.4641 25.7557 -2.1753
433 1 1.07146 27.3696 -0.480244 1.07146 27.3696 -0.480244
434 2 2.88917 27.3393 1.24381 2.88917 27.3393 1.24381
435 2 3.05129 27.3994 -2.01383 3.05129 27.3994 -2.01383
436 1 3.91931 29.015 -0.307069 3.91931 29.015 -0.307069
437 2 5.72129 28.9888 1.43332 5.72129 28.9888 1.43332
438 2 5.91289 29.041 -1.82284 5.91289 29.041 -1.82284
439 1 6.76621 27.3682 -0.165139 6.76621 27.3682 -0.165139
440 2 8.56487 27.3371 1.57843 8.56487 27.3371 1.57843
441 2 8.7628 27.3993 -1.67713 8.7628 27.3993 -1.67713
442 1 9.6123 29.0139 0.0400077 9.6123 29.0139 0.0400077
443 2 11.421 28.9863 1.77313 11.421 28.9863 1.77313
444 2 11.6003 29.0415 -1.48358 11.6003 29.0415 -1.48358
445 1 12.4601 27.3671 0.16924 12.4601 27.3671 0.16924
446 2 14.2904 27.3338 1.8792 14.2904 27.3338 1.8792
447 2 14.429 27.4005 -1.37926 14.429 27.4005 -1.37926
448 1 15.3093 29.0131 0.324153 15.3093 29.0131 0.324153
449 2 17.1687 28.9822 2.00249 17.1687 28.9822 2.00249
450 2 17.2517 29.0442 -1.2579 17.2517 29.0442 -1.2579
451 1 18.1608 27.3665 0.365123 18.1608 27.3665 0.365123
452 2 20.0539 27.3306 2.00488 20.0539 27.3306 2.00488
453 2 20.0704 27.4029 -1.25635 20.0704 27.4029 -1.25635
454 1 21.013 29.0129 0.415536 21.013 29.0129 0.415536
455 2 22.9392 28.9782 2.01642 22.9392 28.9782 2.01642
456 2 22.8895 29.048 -1.24449 22.8895 29.048 -1.24449
457 1 23.8648 27.3669 0.336031 23.8648 27.3669 0.336031
458 2 25.8207 27.3289 1.9002 25.8207 27.3289 1.9002
459 2 25.7095 27.4054 -1.35912 25.7095 27.4054 -1.35912
460 1 26.7157 29.0136 0.276671 26.7157 29.0136 0.276671
461 2 28.6945 28.9766 1.81187 28.6945 28.9766 1.81187
462 2 28.5352 29.051 -1.44549 28.5352 29.051 -1.44549
463 1 29.5638 27.3681 0.0988728 29.5638 27.3681 0.0988728
464 2 31.556 27.33 1.61647 31.556 27.33 1.61647
465 2 31.3677 27.4065 -1.63934 31.3677 27.4065 -1.63934
466 1 32.4116 29.0149 -0.0276639 32.4116 29.0149 -0.0276639
467 2 34.4083 28.9784 1.48415 34.4083 28.9784 1.48415
468 2 34.2101 29.0516 -1.77117 34.2101 29.0516 -1.77117
469 1 35.2575 27.3695 -0.238467 35.2575 27.3695 -0.238467
470 2 37.2462 27.3336 1.28394 37.2462 27.3336 1.28394
471 2 37.065 27.4055 -1.97241 37.065 27.4055 -1.97241
472 1 38.1053 29.0161 -0.360612 38.1053 29.0161 -0.360612
473 2 40.0783 28.9826 1.18253 40.0783 28.9826 1.18253
474 2 39.9306 29.0496 -2.07566 39.9306 29.0496 -2.07566
475 1 40.9538 27.3704 -0.52353 40.9538 27.3704 -0.52353
476 2 42.8994 27.3375 1.05424 42.8994 27.3375 1.05424
477 2 42.809 27.4031 -2.20605 42.809 27.4031 -2.20605
478 1 43.8047 29.0166 -0.568899 43.8047 29.0166 -0.568899
479 2 45.7191 28.9867 1.04684 45.7191 28.9867 1.04684
480 2 45.6923 29.0462 -2.21477 45.6923 29.0462 -2.21477
481 1 46.6563 27.3705 -0.621777 46.6563 27.3705 -0.621777
482 2 48.5342 27.3396 1.03644 48.5342 27.3396 1.03644
483 2 48.5803 27.4008 -2.22489 48.5803 27.4008 -2.22489
484 1 49.5077 29.0161 -0.549573 49.5077 29.0161 -0.549573
485 2 51.353 28.9889 1.14495 51.353 28.9889 1.14495
486 2 51.4624 29.0429 -2.11503 51.4624 29.0429 -2.11503
487 1 1.07114 30.6617 -0.425533 1.07114 30.6617 -0.425533
488 2 2.89036 30.6403 1.29698 2.89036 30.6403 1.29698
489 2 3.04936 30.6829 -1.96114 3.04936 30.6829 -1.96114
490 1 3.91909 32.3074 -0.263846 3.91909 32.3074 -0.263846
491 2 5.72246 32.2931 1.47522 5.72246 32.2931 1.47522
492 2 5.91131 32.3216 -1.78142 5.91131 32.3216 -1.78142
493 1 6.76573 30.6607 -0.112225 6.76573 30.6607 -0.112225
494 2 8.56462 30.6399 1.63129 8.56462 30.6399 1.63129
495 2 8.76208 30.6815 -1.62462 8.76208 30.6815 -1.62462
496 1 9.61205 32.3067 0.0821715 9.61205 32.3067 0.0821715
497 2 11.4203 32.2918 1.81602 11.4203 32.2918 1.81602
498 2 11.6006 32.3218 -1.44094 11.6006 32.3218 -1.44094
499 1 12.4596 30.6599 0.225098 12.4596 30.6599 0.225098
500 2 14.2891 30.6364 1.93628 14.2891 30.6364 1.93628
501 2 14.4295 30.6835 -1.32239 14.4295 30.6835 -1.32239
502 1 15.3091 32.3063 0.371719 15.3091 32.3063 0.371719
503 2 17.1667 32.287 2.05233 17.1667 32.287 2.05233
504 2 17.2533 32.3256 -1.20825 17.2533 32.3256 -1.20825
505 1 18.1606 30.6594 0.427816 18.1606 30.6594 0.427816
506 2 20.0526 30.6312 2.0693 20.0526 30.6312 2.0693
507 2 20.0718 30.6878 -1.19213 20.0718 30.6878 -1.19213
508 1 21.0132 32.306 0.472687 21.0132 32.306 0.472687
509 2 22.9377 32.281 2.07606 22.9377 32.281 2.07606
510 2 22.8918 32.3312 -1.18518 22.8918 32.3312 -1.18518
511 1 23.8654 30.6595 0.406625 23.8654 30.6595 0.406625
512 2 25.8208 30.6269 1.97173 25.8208 30.6269 1.97173
513 2 25.7109 30.6924 -1.28778 25.7109 30.6924 -1.28778
514 1 26.7166 32.3063 0.342959 26.7166 32.3063 0.342959
515 2 28.6951 32.2771 1.87905 28.6951 32.2771 1.87905
516 2 28.5369 32.3358 -1.37862 28.5369 32.3358 -1.37862
517 1 29.5651 30.6604 0.174316 29.5651 30.6604 0.174316
518 2 31.5584 30.626 1.69083 31.5584 30.626 1.69083
519 2 31.368 30.6951 -1.565 31.368 30.6951 -1.565
520 1 32.413 32.3072 0.0423464 32.413 32.3072 0.0423464
521 2 34.4112 32.2774 1.55252 34.4112 32.2774 1.55252
522 2 34.21 32.3374 -1.70288 34.21 32.3374 -1.70288
523 1 35.2588 30.6616 -0.164248 35.2588 30.6616 -0.164248
524 2 37.25 30.6289 1.35517 37.25 30.6289 1.35517
525 2 37.0636 30.6946 -1.90105 37.0636 30.6946 -1.90105
526 1 38.1065 32.3083 -0.293886 38.1065 32.3083 -0.293886
527 2 40.0821 32.281 1.24587 40.0821 32.281 1.24587
528 2 39.9286 32.3356 -2.01234 39.9286 32.3356 -2.01234
529 1 40.9545 30.6625 -0.455587 40.9545 30.6625 -0.455587
530 2 42.9029 30.6335 1.11868 42.9029 30.6335 1.11868
531 2 42.8064 30.6914 -2.14165 42.8064 30.6914 -2.14165
532 1 43.8051 32.3087 -0.510065 43.8051 32.3087 -0.510065
533 2 45.7227 32.2861 1.10188 45.7227 32.2861 1.10188
534 2 45.6891 32.3309 -2.15997 45.6891 32.3309 -2.15997
535 1 46.6564 30.6625 -0.561395 46.6564 30.6625 -0.561395
536 2 48.5367 30.6377 1.09401 48.5367 30.6377 1.09401
537 2 48.5776 30.6869 -2.16768 48.5776 30.6869 -2.16768
538 1 49.5076 32.3082 -0.499742 49.5076 32.3082 -0.499742
539 2 51.3557 32.2908 1.19176 51.3557 32.2908 1.19176