ITEM: TIMESTEP
78000
ITEM: NUMBER OF ATOMS
810
ITEM: BOX BOUNDS pp pp pp
8.4753215650749991e-01 5.2170072843490956e+01
8.2032427601564606e-01 5.0195890723983716e+01
-1.0000000000000000e+01 1.0000000000000000e+01
ITEM: ATOMS id type x y z xu yu zu
1 1 1.05206 1.03623 0.011197 1.05206 1.03623 0.011197
2 2 2.98275 1.10442 1.60549 2.98275 1.10442 1.60549
3 2 2.92312 0.968047 -1.6533 2.92312 0.968047 -1.6533
4 1 3.90299 2.68103 -0.110433 3.90299 2.68103 -0.110433
5 2 5.84308 2.74742 1.4724 5.84308 2.74742 1.4724
6 2 5.76405 2.61457 -1.78614 5.76405 2.61457 -1.78614
7 1 6.75426 1.03546 -0.112757 6.75426 1.03546 -0.112757
8 2 8.7009 1.10314 1.46213 8.7009 1.10314 1.46213
9 2 8.60848 0.967547 -1.79592 8.60848 0.967547 -1.79592
10 1 9.60444 2.67993 -0.262582 9.60444 2.67993 -0.262582
11 2 11.55 2.74548 1.31377 11.55 2.74548 1.31377
12 2 11.4598 2.61415 -1.94451 11.4598 2.61415 -1.94451
13 1 12.4556 1.03411 -0.275224 12.4556 1.03411 -0.275224
14 2 14.3966 1.10117 1.30681 14.3966 1.10117 1.30681
15 2 14.3158 0.966744 -1.95159 14.3158 0.966744 -1.95159
16 1 15.3062 2.6786 -0.414062 15.3062 2.6786 -0.414062
17 2 17.2356 2.74321 1.18235 17.2356 2.74321 1.18235
18 2 17.1788 2.61379 -2.07672 17.1788 2.61379 -2.07672
19 1 18.158 1.03288 -0.398243 18.158 1.03288 -0.398243
20 2 20.0741 1.09973 1.21416 20.0741 1.09973 1.21416
21 2 20.0442 0.965799 -2.04512 20.0442 0.965799 -2.04512
22 1 21.0097 2.67771 -0.491984 21.0097 2.67771 -0.491984
23 2 22.9087 2.7419 1.14075 22.9087 2.7419 1.14075
24 2 22.9134 2.61343 -2.11883 22.9134 2.61343 -2.11883
25 1 23.8617 1.03234 -0.422611 23.8617 1.03234 -0.422611
26 2 25.7455 1.09963 1.22755 25.7455 1.09963 1.22755
27 2 25.7802 0.964984 -2.03165 25.7802 0.964984 -2.03165
28 1 26.7137 2.67761 -0.460057 26.7137 2.67761 -0.460057
29 2 28.5829 2.74193 1.20674 28.5829 2.74193 1.20674
30 2 28.6465 2.61336 -2.05224 28.6465 2.61336 -2.05224
31 1 29.5649 1.03267 -0.339104 29.5649 1.03267 -0.339104
32 2 31.4249 1.10054 1.33771 31.4249 1.10054 1.33771
33 2 31.5061 0.964872 -1.92063 31.5061 0.964872 -1.92063
34 1 32.4162 2.67827 -0.33644 32.4162 2.67827 -0.33644
35 2 34.2703 2.74301 1.3469 34.2703 2.74301 1.3469
36 2 34.3631 2.61372 -1.91139 34.3631 2.61372 -1.91139
37 1 35.2666 1.03365 -0.189751 35.2666 1.03365 -0.189751
38 2 37.1216 1.10208 1.49229 37.1216 1.10208 1.49229
39 2 37.2124 0.965486 -1.76577 37.2124 0.965486 -1.76577
40 1 38.1177 2.67939 -0.179449 38.1177 2.67939 -0.179449
41 2 39.9774 2.74504 1.4974 39.9774 2.74504 1.4974
42 2 40.059 2.61413 -1.76116 40.059 2.61413 -1.76116
43 1 40.9682 1.03495 -0.0418444 40.9682 1.03495 -0.0418444
44 2 42.8389 1.1037 1.62259 42.8389 1.1037 1.62259
45 2 42.8992 0.966586 -1.63616 42.8992 0.966586 -1.63616
46 1 43.8197 2.6806 -0.058669 43.8197 2.6806 -0.058669
47 2 45.7034 2.74704 1.59097 45.7034 2.74704 1.59097
48 2 45.738 2.61459 -1.6684 45.738 2.61459 -1.6684
49 1 46.6711 1.03601 0.0383524 46.6711 1.03601 0.0383524
50 2 48.5717 1.10457 1.66847 48.5717 1.10457 1.66847
51 2 48.573 0.967734 -1.59085 48.573 0.967734 -1.59085
52 1 49.5228 2.6813 -0.0301771 49.5228 2.6813 -0.0301771
53 2 51.4385 2.74797 1.58212 51.4385 2.74797 1.58212
54 2 51.4093 2.61485 -1.67726 51.4093 2.61485 -1.67726
55 1 1.05155 4.32643 -0.123613 1.05155 4.32643 -0.123613
56 2 2.98035 4.38855 1.47295 2.98035 4.38855 1.47295
57 2 2.92424 4.26443 -1.78646 2.92424 4.26443 -1.78646
58 1 3.90226 5.97155 -0.236144 3.90226 5.97155 -0.236144
59 2 5.84049 6.02631 1.3492 5.84049 6.02631 1.3492
60 2 5.76506 5.91685 -1.91033 5.76506 5.91685 -1.91033
61 1 6.75338 4.32575 -0.247319 6.75338 4.32575 -0.247319
62 2 8.69791 4.38726 1.33025 8.69791 4.38726 1.33025
63 2 8.60972 4.26415 -1.92842 8.60972 4.26415 -1.92842
64 1 9.60356 5.97068 -0.387322 9.60356 5.97068 -0.387322
65 2 11.5469 6.02421 1.19216 11.5469 6.02421 1.19216
66 2 11.4614 5.91706 -2.06711 11.4614 5.91706 -2.06711
67 1 12.4547 4.32456 -0.408285 12.4547 4.32456 -0.408285
68 2 14.3936 4.38473 1.17669 14.3936 4.38473 1.17669
69 2 14.3175 4.26423 -2.08232 14.3175 4.26423 -2.08232
70 1 15.3056 5.96963 -0.536175 15.3056 5.96963 -0.536175
71 2 17.2327 6.02132 1.0635 17.2327 6.02132 1.0635
72 2 17.1808 5.91789 -2.19651 17.1808 5.91789 -2.19651
73 1 18.1575 4.32348 -0.529354 18.1575 4.32348 -0.529354
74 2 20.0717 4.38237 1.08575 20.0717 4.38237 1.08575
75 2 20.0462 4.26452 -2.1741 20.0462 4.26452 -2.1741
76 1 21.0096 5.96896 -0.611387 21.0096 5.96896 -0.611387
77 2 22.9066 6.01903 1.02423 22.9066 6.01903 1.02423
78 2 22.9157 5.91892 -2.23625 22.9157 5.91892 -2.23625
79 1 23.8619 4.32303 -0.552742 23.8619 4.32303 -0.552742
80 2 25.744 4.38124 1.09972 25.744 4.38124 1.09972
81 2 25.7824 4.26486 -2.16005 25.7824 4.26486 -2.16005
82 1 26.7141 5.96889 -0.577965 26.7141 5.96889 -0.577965
83 2 28.5815 6.01811 1.0913 28.5815 6.01811 1.0913
84 2 28.6488 5.9198 -2.1686 28.6488 5.9198 -2.1686
85 1 29.5655 4.3233 -0.469341 29.5655 4.3233 -0.469341
86 2 31.4239 4.38145 1.20961 31.4239 4.38145 1.20961
87 2 31.5085 4.26531 -2.04936 31.5085 4.26531 -2.04936
88 1 32.4169 5.96939 -0.454096 32.4169 5.96939 -0.454096
89 2 34.2696 6.01881 1.23124 34.2696 6.01881 1.23124
90 2 34.3651 5.92018 -2.02803 34.3651 5.92018 -2.02803
91 1 35.2674 4.32414 -0.320713 35.2674 4.32414 -0.320713
92 2 37.121 4.3831 1.36318 37.121 4.3831 1.36318
93 2 37.2145 4.26548 -1.89556 37.2145 4.26548 -1.89556
94 1 38.1183 5.97023 -0.298575 38.1183 5.97023 -0.298575
95 2 39.9771 6.02132 1.37968 39.9771 6.02132 1.37968
96 2 40.0605 5.91952 -1.87992 40.0605 5.91952 -1.87992
97 1 40.9688 4.32524 -0.174416 40.9688 4.32524 -0.174416
98 2 42.838 4.38578 1.49176 42.838 4.38578 1.49176
99 2 42.9009 4.26516 -1.76766 42.9009 4.26516 -1.76766
100 1 43.82 5.97117 -0.180803 43.82 5.97117 -0.180803
101 2 45.7027 6.02451 1.47022 45.7027 6.02451 1.47022
102 2 45.739 5.91827 -1.79015 45.739 5.91827 -1.79015
103 1 46.6712 4.32619 -0.0957778 46.6712 4.32619 -0.0957778
104 2 48.5701 4.38798 1.53634 48.5701 4.38798 1.53634
105 2 48.5744 4.2648 -1.72361 48.5744 4.2648 -1.72361
106 1 49.5226 5.97175 -0.154907 49.5226 5.97175 -0.154907
107 2 51.4368 6.02648 1.45928 51.4368 6.02648 1.45928
108 2 51.4101 5.91731 -1.80109 51.4101 5.91731 -1.80109
109 1 1.05105 7.61735 -0.234167 1.05105 7.61735 -0.234167
110 2 2.97854 7.66259 1.36432 2.97854 7.66259 1.36432
111 2 2.92485 7.57228 -1.89628 2.92485 7.57228 -1.89628
112 1 3.90164 9.26313 -0.32762 3.90164 9.26313 -0.32762
113 2 5.83853 9.29657 1.25981 5.83853 9.29657 1.25981
114 2 5.76572 9.22976 -2.00095 5.76572 9.22976 -2.00095
115 1 6.75257 7.61689 -0.358215 6.75257 7.61689 -0.358215
116 2 8.69516 7.6615 1.2222 8.69516 7.6615 1.2222
117 2 8.61091 7.57227 -2.03769 8.61091 7.57227 -2.03769
118 1 9.60286 9.26262 -0.477753 9.60286 9.26262 -0.477753
119 2 11.5441 9.29466 1.10478 11.5441 9.29466 1.10478
120 2 11.4629 9.23056 -2.15571 11.4629 9.23056 -2.15571
121 1 12.454 7.61605 -0.516883 12.454 7.61605 -0.516883
122 2 14.3905 7.65878 1.07151 14.3905 7.65878 1.07151
123 2 14.3194 7.57329 -2.18867 14.3194 7.57329 -2.18867
124 1 15.3051 9.26202 -0.622842 15.3051 9.26202 -0.622842
125 2 17.2299 9.29158 0.980262 17.2299 9.29158 0.980262
126 2 17.183 9.23246 -2.28088 17.183 9.23246 -2.28088
127 1 18.1572 7.61533 -0.634176 18.1572 7.61533 -0.634176
128 2 20.069 7.65575 0.984269 20.069 7.65575 0.984269
129 2 20.0485 7.57494 -2.27667 20.0485 7.57494 -2.27667
130 1 21.0095 9.26165 -0.6933 21.0095 9.26165 -0.6933
131 2 22.9043 9.28859 0.945434 22.9043 9.28859 0.945434
132 2 22.918 9.23476 -2.31606 22.918 9.23476 -2.31606
133 1 23.862 7.61504 -0.65419 23.862 7.61504 -0.65419
134 2 25.7421 7.65363 1.0011 25.7421 7.65363 1.0011
135 2 25.7847 7.57654 -2.25972 25.7847 7.57654 -2.25972
136 1 26.7143 9.26162 -0.656091 26.7143 9.26162 -0.656091
137 2 28.5801 9.28676 1.01558 28.5801 9.28676 1.01558
138 2 28.6507 9.23653 -2.24529 28.6507 9.23653 -2.24529
139 1 29.5659 7.61523 -0.568948 29.5659 7.61523 -0.568948
140 2 31.4228 7.6531 1.11221 31.4228 7.6531 1.11221
141 2 31.5105 7.5775 -2.14783 31.5105 7.5775 -2.14783
142 1 32.4172 9.26185 -0.530686 32.4172 9.26185 -0.530686
143 2 34.2691 9.28692 1.15605 34.2691 9.28692 1.15605
144 2 34.3663 9.23689 -2.10427 34.3663 9.23689 -2.10427
145 1 35.2679 7.61576 -0.420616 35.2679 7.61576 -0.420616
146 2 37.1208 7.65465 1.26459 37.1208 7.65465 1.26459
147 2 37.2158 7.5771 -1.99532 37.2158 7.5771 -1.99532
148 1 38.1186 9.26228 -0.377101 38.1186 9.26228 -0.377101
149 2 39.9775 9.28952 1.30145 39.9775 9.28952 1.30145
150 2 40.0606 9.23526 -1.95933 40.0606 9.23526 -1.95933
151 1 40.9692 7.61648 -0.277489 40.9692 7.61648 -0.277489
152 2 42.8381 7.65803 1.38941 42.8381 7.65803 1.38941
153 2 42.9014 7.5753 -1.87124 42.9014 7.5753 -1.87124
154 1 43.8201 9.26281 -0.264534 43.8201 9.26281 -0.264534
155 2 45.7031 9.29347 1.38652 45.7031 9.29347 1.38652
156 2 45.7386 9.23248 -1.87508 45.7386 9.23248 -1.87508
157 1 46.6712 7.61715 -0.203332 46.6712 7.61715 -0.203332
158 2 48.5695 7.66133 1.42984 48.5695 7.66133 1.42984
159 2 48.5747 7.57335 -1.83131 48.5747 7.57335 -1.83131
160 1 49.5223 9.2632 -0.243972 49.5223 9.2632 -0.243972
161 2 51.4361 9.29629 1.37111 51.4361 9.29629 1.37111
162 2 51.4101 9.23036 -1.89047 51.4101 9.23036 -1.89047
163 1 1.05066 10.9094 -0.300918 1.05066 10.9094 -0.300918
164 2 2.97771 10.9296 1.2985 2.97771 10.9296 1.2985
165 2 2.92478 10.8893 -1.96315 2.92478 10.8893 -1.96315
166 1 3.90127 12.5557 -0.368485 3.90127 12.5557 -0.368485
167 2 5.8376 12.5617 1.21992 5.8376 12.5617 1.21992
168 2 5.76589 12.5497 -2.04154 5.76589 12.5497 -2.04154
169 1 6.75201 10.9092 -0.425912 6.75201 10.9092 -0.425912
170 2 8.69316 10.9289 1.1567 8.69316 10.9289 1.1567
171 2 8.61184 10.8895 -2.10424 8.61184 10.8895 -2.10424
172 1 9.60248 12.5556 -0.517744 9.60248 12.5556 -0.517744
173 2 11.5423 12.5604 1.0669 11.5423 12.5604 1.0669
174 2 11.4641 12.5508 -2.19427 11.4641 12.5508 -2.19427
175 1 12.4535 10.9088 -0.581879 12.4535 10.9088 -0.581879
176 2 14.3879 10.9265 1.00952 14.3879 10.9265 1.00952
177 2 14.3212 10.8912 -2.25165 14.3212 10.8912 -2.25165
178 1 15.3049 12.5555 -0.658662 15.3049 12.5555 -0.658662
179 2 17.2277 12.5577 0.947121 17.2277 12.5577 0.947121
180 2 17.185 12.5533 -2.31459 17.185 12.5533 -2.31459
181 1 18.157 10.9085 -0.694136 18.157 10.9085 -0.694136
182 2 20.0666 10.9233 0.92744 20.0666 10.9233 0.92744
183 2 20.0507 10.8938 -2.33435 20.0507 10.8938 -2.33435
184 1 21.0095 12.5554 -0.723215 21.0095 12.5554 -0.723215
185 2 22.9023 12.5545 0.918046 22.9023 12.5545 0.918046
186 2 22.92 12.5562 -2.34386 22.92 12.5562 -2.34386
187 1 23.862 10.9084 -0.708766 23.862 10.9084 -0.708766
188 2 25.7403 10.9204 0.949097 25.7403 10.9204 0.949097
189 2 25.7867 10.8964 -2.31246 25.7867 10.8964 -2.31246
190 1 26.7143 12.5553 -0.680518 26.7143 12.5553 -0.680518
191 2 28.5788 12.552 0.992841 28.5788 12.552 0.992841
192 2 28.6521 12.5586 -2.26834 28.6521 12.5586 -2.26834
193 1 29.5661 10.9084 -0.619854 29.5661 10.9084 -0.619854
194 2 31.4219 10.9191 1.06286 31.4219 10.9191 1.06286
195 2 31.5117 10.8977 -2.19792 31.5117 10.8977 -2.19792
196 1 32.4172 12.5552 -0.55236 32.4172 12.5552 -0.55236
197 2 34.269 12.5514 1.1347 34.269 12.5514 1.1347
198 2 34.3664 12.559 -2.12598 34.3664 12.559 -2.12598
199 1 35.2681 10.9086 -0.471283 35.2681 10.9086 -0.471283
200 2 37.1211 10.9202 1.21412 37.1211 10.9202 1.21412
201 2 37.2158 10.897 -2.04665 37.2158 10.897 -2.04665
202 1 38.1186 12.5552 -0.40063 38.1186 12.5552 -0.40063
203 2 39.9786 12.5535 1.27675 39.9786 12.5535 1.27675
204 2 40.0594 12.5569 -1.98455 40.0594 12.5569 -1.98455
205 1 40.9693 10.9088 -0.33238 40.9693 10.9088 -0.33238
206 2 42.8393 10.9238 1.33371 42.8393 10.9238 1.33371
207 2 42.9004 10.8941 -1.92793 42.9004 10.8941 -1.92793
208 1 43.8201 12.5553 -0.294524 43.8201 12.5553 -0.294524
209 2 45.7047 12.5576 1.35482 45.7047 12.5576 1.35482
210 2 45.7368 12.5532 -1.90741 45.7368 12.5532 -1.90741
211 1 46.6712 10.9092 -0.265043 46.6712 10.9092 -0.265043
212 2 48.5701 10.9277 1.36768 48.5701 10.9277 1.36768
213 2 48.5738 10.8909 -1.89449 48.5738 10.8909 -1.89449
214 1 49.5221 12.5556 -0.281254 49.5221 12.5556 -0.281254
215 2 51.4366 12.5609 1.33321 51.4366 12.5609 1.33321
216 2 51.409 12.5504 -1.92902 51.409 12.5504 -1.92902
217 1 1.05047 14.202 -0.311591 1.05047 14.202 -0.311591
218 2 2.97809 14.1934 1.28724 2.97809 14.1934 1.28724
219 2 2.92399 14.2107 -1.9746 2.92399 14.2107 -1.9746
220 1 3.90122 15.8485 -0.351017 3.90122 15.8485 -0.351017
221 2 5.83795 15.8258 1.2368 5.83795 15.8258 1.2368
222 2 5.76547 15.8711 -2.02434 5.76547 15.8711 -2.02434
223 1 6.75179 14.2022 -0.438112 6.75179 14.2022 -0.438112
224 2 8.69232 14.1933 1.14537 8.69232 14.1933 1.14537
225 2 8.61229 14.211 -2.11579 8.61229 14.211 -2.11579
226 1 9.6025 15.8488 -0.499883 9.6025 15.8488 -0.499883
227 2 11.5417 15.8253 1.08531 11.5417 15.8253 1.08531
228 2 11.4647 15.8723 -2.17556 11.4647 15.8723 -2.17556
229 1 12.4534 14.2023 -0.591574 12.4534 14.2023 -0.591574
230 2 14.3864 14.1916 1.00159 14.3864 14.1916 1.00159
231 2 14.3225 14.2129 -2.25976 14.3225 14.2129 -2.25976
232 1 15.305 15.8491 -0.637196 15.305 15.8491 -0.637196
233 2 17.2266 15.8235 0.969786 17.2266 15.8235 0.969786
234 2 17.1862 15.8745 -2.29157 17.1862 15.8745 -2.29157
235 1 18.157 14.2024 -0.698639 18.157 14.2024 -0.698639
236 2 20.0648 14.1889 0.92501 20.0648 14.1889 0.92501
237 2 20.0525 14.2157 -2.33682 20.0525 14.2157 -2.33682
238 1 21.0095 15.8492 -0.696132 21.0095 15.8492 -0.696132
239 2 22.901 15.8209 0.946416 22.901 15.8209 0.946416
240 2 22.9213 15.8772 -2.31501 22.9213 15.8772 -2.31501
241 1 23.862 14.2023 -0.707047 23.862 14.2023 -0.707047
242 2 25.7388 14.1859 0.952477 25.7388 14.1859 0.952477
243 2 25.7881 14.2185 -2.30896 25.7881 14.2185 -2.30896
244 1 26.7141 15.8489 -0.64749 26.7141 15.8489 -0.64749
245 2 28.5778 15.8181 1.02651 28.5778 15.8181 1.02651
246 2 28.6526 15.8795 -2.23409 28.6526 15.8795 -2.23409
247 1 29.5659 14.2021 -0.613214 29.5659 14.2021 -0.613214
248 2 31.4213 14.1838 1.07002 31.4213 14.1838 1.07002
249 2 31.5121 14.2201 -2.1906 31.5121 14.2201 -2.1906
250 1 32.4169 15.8484 -0.515591 32.4169 15.8484 -0.515591
251 2 34.269 15.8165 1.17074 34.269 15.8165 1.17074
252 2 34.3657 15.8801 -2.08937 34.3657 15.8801 -2.08937
253 1 35.2678 14.2018 -0.463548 35.2678 14.2018 -0.463548
254 2 37.1217 14.1841 1.22078 37.1217 14.1841 1.22078
255 2 37.2147 14.2194 -2.03994 37.2147 14.2194 -2.03994
256 1 38.1182 15.848 -0.364788 38.1182 15.848 -0.364788
257 2 39.9802 15.8176 1.31015 39.9802 15.8176 1.31015
258 2 40.0571 15.8783 -1.95067 40.0571 15.8783 -1.95067
259 1 40.9691 14.2016 -0.328862 40.9691 14.2016 -0.328862
260 2 42.8412 14.1871 1.3348 42.8412 14.1871 1.3348
261 2 42.8982 14.2162 -1.92692 42.8982 14.2162 -1.92692
262 1 43.8199 15.8479 -0.26491 43.8199 15.8479 -0.26491
263 2 45.7072 15.8211 1.38114 45.7072 15.8211 1.38114
264 2 45.734 15.8747 -1.88068 45.734 15.8747 -1.88068
265 1 46.671 14.2018 -0.269404 46.671 14.2018 -0.269404
266 2 48.5719 14.1911 1.36112 48.5719 14.1911 1.36112
267 2 48.5717 14.2125 -1.9012 48.5717 14.2125 -1.9012
268 1 49.522 15.8481 -0.259524 49.522 15.8481 -0.259524
269 2 51.4384 15.8245 1.35267 51.4384 15.8245 1.35267
270 2 51.4071 15.8717 -1.9092 51.4071 15.8717 -1.9092
271 1 1.05053 17.4943 -0.263716 1.05053 17.4943 -0.263716
272 2 2.9797 17.4582 1.33297 2.9797 17.4582 1.33297
273 2 2.92257 17.5305 -1.92803 2.92257 17.5305 -1.92803
274 1 3.90152 19.1405 -0.277877 3.90152 19.1405 -0.277877
275 2 5.83957 19.093 1.30792 5.83957 19.093 1.30792
276 2 5.7645 19.1879 -1.95208 5.7645 19.1879 -1.95208
277 1 6.75197 17.4949 -0.392242 6.75197 17.4949 -0.392242
278 2 8.69285 17.4589 1.1905 8.69285 17.4589 1.1905
279 2 8.61214 17.5308 -2.0699 8.61214 17.5308 -2.0699
280 1 9.60289 19.1413 -0.427053 9.60289 19.1413 -0.427053
281 2 11.5426 19.0935 1.15706 11.5426 19.0935 1.15706
282 2 11.4646 19.1888 -2.10275 11.4646 19.1888 -2.10275
283 1 12.4536 17.4955 -0.544033 12.4536 17.4955 -0.544033
284 2 14.3863 17.4583 1.04921 14.3863 17.4583 1.04921
285 2 14.3231 17.5324 -2.21141 14.3231 17.5324 -2.21141
286 1 15.3053 19.1419 -0.562221 15.3053 19.1419 -0.562221
287 2 17.2269 19.0931 1.04426 17.2269 19.0931 1.04426
288 2 17.1864 19.1903 -2.2161 17.1864 19.1903 -2.2161
289 1 18.1571 17.4958 -0.647054 18.1571 17.4958 -0.647054
290 2 20.0642 17.4567 0.977109 20.0642 17.4567 0.977109
291 2 20.0533 17.5345 -2.28394 20.0533 17.5345 -2.28394
292 1 21.0095 19.142 -0.617299 21.0095 19.142 -0.617299
293 2 22.9007 19.0916 1.0251 22.9007 19.0916 1.0251
294 2 22.9214 19.192 -2.23532 22.9214 19.192 -2.23532
295 1 23.8619 17.4956 -0.65 23.8619 17.4956 -0.65
296 2 25.7379 17.4541 1.00998 25.7379 17.4541 1.00998
297 2 25.7887 17.5368 -2.25059 25.7887 17.5368 -2.25059
298 1 26.7138 19.1415 -0.563711 26.7138 19.1415 -0.563711
299 2 28.5772 19.0889 1.11 28.5772 19.0889 1.11
300 2 28.6523 19.1937 -2.14953 28.6523 19.1937 -2.14953
301 1 29.5655 17.4951 -0.550971 29.5655 17.4951 -0.550971
302 2 31.4208 17.4514 1.13189 31.4208 17.4514 1.13189
303 2 31.5116 17.5383 -2.1278 31.5116 17.5383 -2.1278
304 1 32.4162 19.1406 -0.42759 32.4162 19.1406 -0.42759
305 2 34.269 19.0865 1.25745 34.269 19.0865 1.25745
306 2 34.3643 19.1944 -2.00155 34.3643 19.1944 -2.00155
307 1 35.2673 17.4943 -0.399062 35.2673 17.4943 -0.399062
308 2 37.1226 17.4505 1.28332 37.1226 17.4505 1.28332
309 2 37.2128 17.538 -1.97648 37.2128 17.538 -1.97648
310 1 38.1176 19.1398 -0.276102 38.1176 19.1398 -0.276102
311 2 39.9819 19.0862 1.39584 39.9819 19.0862 1.39584
312 2 40.0545 19.1933 -1.86386 40.0545 19.1933 -1.86386
313 1 40.9687 17.4939 -0.267307 40.9687 17.4939 -0.267307
314 2 42.8436 17.4523 1.39283 42.8436 17.4523 1.39283
315 2 42.8952 17.5354 -1.86803 42.8952 17.5354 -1.86803
316 1 43.8196 19.1395 -0.180703 43.8196 19.1395 -0.180703
317 2 45.7101 19.0885 1.46122 45.7101 19.0885 1.46122
318 2 45.7308 19.1906 -1.79943 45.7308 19.1906 -1.79943
319 1 46.6709 17.4939 -0.215086 46.6709 17.4939 -0.215086
320 2 48.5746 17.4558 1.41182 48.5746 17.4558 1.41182
321 2 48.5689 17.5321 -1.84964 48.5689 17.5321 -1.84964
322 1 49.5221 19.1398 -0.182161 49.5221 19.1398 -0.182161
323 2 51.441 19.0914 1.42656 51.441 19.0914 1.42656
324 2 51.4048 19.1884 -1.83411 51.4048 19.1884 -1.83411
325 1 1.05086 20.7856 -0.165456 1.05086 20.7856 -0.165456
326 2 2.98227 20.7284 1.4281 2.98227 20.7284 1.4281
327 2 2.92079 20.843 -1.83157 2.92079 20.843 -1.83157
328 1 3.90212 22.4314 -0.161826 3.90212 22.4314 -0.161826
329 2 5.84218 22.3675 1.42113 5.84218 22.3675 1.42113
330 2 5.76316 22.4953 -1.83762 5.76316 22.4953 -1.83762
331 1 6.75251 20.7865 -0.296142 6.75251 20.7865 -0.296142
332 2 8.69469 20.7297 1.28452 8.69469 20.7297 1.28452
333 2 8.61137 20.8433 -1.97463 8.61137 20.8433 -1.97463
334 1 9.6036 22.4324 -0.311969 9.6036 22.4324 -0.311969
335 2 11.5448 22.3689 1.26986 11.5448 22.3689 1.26986
336 2 11.4636 22.4958 -1.98882 11.4636 22.4958 -1.98882
337 1 12.4542 20.7874 -0.447512 12.4542 20.7874 -0.447512
338 2 14.3876 20.7304 1.14421 14.3876 20.7304 1.14421
339 2 14.3226 20.8442 -2.11527 14.3226 20.8442 -2.11527
340 1 15.3058 22.4332 -0.446927 15.3058 22.4332 -0.446927
341 2 17.2285 22.3699 1.15764 17.2285 22.3699 1.15764
342 2 17.1854 22.4962 -2.10175 17.1854 22.4962 -2.10175
343 1 18.1574 20.7879 -0.548649 18.1574 20.7879 -0.548649
344 2 20.0648 20.7302 1.07448 20.0648 20.7302 1.07448
345 2 20.0529 20.8452 -2.18554 20.0529 20.8452 -2.18554
346 1 21.0096 22.4334 -0.50082 21.0096 22.4334 -0.50082
347 2 22.9014 22.3697 1.14022 22.9014 22.3697 1.14022
348 2 22.9204 22.4966 -2.11937 22.9204 22.4966 -2.11937
349 1 23.8617 20.7876 -0.54828 23.8617 20.7876 -0.54828
350 2 25.7378 20.7285 1.11106 25.7378 20.7285 1.11106
351 2 25.7881 20.8463 -2.14851 25.7881 20.8463 -2.14851
352 1 26.7133 22.4327 -0.444411 26.7133 22.4327 -0.444411
353 2 28.5771 22.3677 1.2284 28.5771 22.3677 1.2284
354 2 28.6512 22.4972 -2.03033 28.6512 22.4972 -2.03033
355 1 29.5649 20.7868 -0.444895 29.5649 20.7868 -0.444895
356 2 31.4205 20.7257 1.2371 31.4205 20.7257 1.2371
357 2 31.5106 20.8474 -2.02153 31.5106 20.8474 -2.02153
358 1 32.4154 22.4315 -0.304385 32.4154 22.4315 -0.304385
359 2 34.269 22.3649 1.37938 34.269 22.3649 1.37938
360 2 34.3627 22.4978 -1.87874 34.3627 22.4978 -1.87874
361 1 35.2665 20.7856 -0.289726 35.2665 20.7856 -0.289726
362 2 37.1232 20.7236 1.39058 37.1232 20.7236 1.39058
363 2 37.2107 20.8475 -1.86811 37.2107 20.8475 -1.86811
364 1 38.1168 22.4304 -0.150626 38.1168 22.4304 -0.150626
365 2 39.9832 22.3633 1.51866 39.9832 22.3633 1.51866
366 2 40.0519 22.4975 -1.74007 40.0519 22.4975 -1.74007
367 1 40.9682 20.7849 -0.158764 40.9682 20.7849 -0.158764
368 2 42.8459 20.724 1.49769 42.8459 20.724 1.49769
369 2 42.8921 20.846 -1.76197 42.8921 20.846 -1.76197
370 1 43.8193 22.43 -0.0570274 43.8193 22.43 -0.0570274
371 2 45.7129 22.364 1.58107 45.7129 22.364 1.58107
372 2 45.7277 22.4964 -1.67845 45.7277 22.4964 -1.67845
373 1 46.6708 20.785 -0.111569 46.6708 20.785 -0.111569
374 2 48.5777 20.7262 1.51121 48.5777 20.7262 1.51121
375 2 48.5659 20.844 -1.74893 48.5659 20.844 -1.74893
376 1 49.5223 22.4305 -0.0628293 49.5223 22.4305 -0.0628293
377 2 51.4441 22.3658 1.54217 51.4441 22.3658 1.54217
378 2 51.4024 22.4954 -1.71723 51.4024 22.4954 -1.71723
379 1 1.05139 24.0759 -0.0342362 1.05139 24.0759 -0.0342362
380 2 2.98528 24.0078 1.55613 2.98528 24.0078 1.55613
381 2 2.91902 24.1444 -1.70253 2.91902 24.1444 -1.70253
382 1 3.9029 25.7215 -0.0234285 3.9029 25.7215 -0.0234285
383 2 5.84526 25.6526 1.55672 5.84526 25.6526 1.55672
384 2 5.76172 25.7907 -1.70146 5.76172 25.7907 -1.70146
385 1 6.75332 24.077 -0.166706 6.75332 24.077 -0.166706
386 2 8.69749 24.0094 1.41122 8.69749 24.0094 1.41122
387 2 8.61012 24.1447 -1.84699 8.61012 24.1447 -1.84699
388 1 9.60448 25.7226 -0.17489 9.60448 25.7226 -0.17489
389 2 11.5479 25.6546 1.40416 11.5479 25.6546 1.40416
390 2 11.4622 25.7908 -1.85406 11.4622 25.7908 -1.85406
391 1 12.4549 24.0781 -0.318952 12.4549 24.0781 -0.318952
392 2 14.3901 24.0112 1.27023 14.3901 24.0112 1.27023
393 2 14.3213 24.1449 -1.98847 14.3213 24.1449 -1.98847
394 1 15.3064 25.7236 -0.311475 15.3064 25.7236 -0.311475
395 2 17.2312 25.6567 1.29039 17.2312 25.6567 1.29039
396 2 17.1835 25.7903 -1.96872 17.1835 25.7903 -1.96872
397 1 18.1577 24.0787 -0.420694 18.1577 24.0787 -0.420694
398 2 20.0666 24.0124 1.2003 20.0666 24.0124 1.2003
399 2 20.0513 24.1446 -2.05915 20.0513 24.1446 -2.05915
400 1 21.0096 25.7238 -0.366861 21.0096 25.7238 -0.366861
401 2 22.9031 25.6578 1.2721 22.9031 25.6578 1.2721
402 2 22.9184 25.7895 -1.98741 22.9184 25.7895 -1.98741
403 1 23.8615 24.0784 -0.419791 23.8615 24.0784 -0.419791
404 2 25.7385 24.0119 1.23815 25.7385 24.0119 1.23815
405 2 25.7866 24.1445 -2.02096 25.7866 24.1445 -2.02096
406 1 26.7128 25.7231 -0.310177 26.7128 25.7231 -0.310177
407 2 28.5776 25.6568 1.36143 28.5776 25.6568 1.36143
408 2 28.6494 25.7889 -1.8973 28.6494 25.7889 -1.8973
409 1 29.5642 24.0773 -0.31379 29.5642 24.0773 -0.31379
410 2 31.4204 24.0095 1.36725 31.4204 24.0095 1.36725
411 2 31.5091 24.1447 -1.89092 31.5091 24.1447 -1.89092
412 1 32.4146 25.7217 -0.167476 32.4146 25.7217 -0.167476
413 2 34.2691 25.6542 1.51536 34.2691 25.6542 1.51536
414 2 34.3609 25.789 -1.74274 34.3609 25.789 -1.74274
415 1 35.2656 24.076 -0.155092 35.2656 24.076 -0.155092
416 2 37.1236 24.0068 1.52364 37.1236 24.0068 1.52364
417 2 37.2087 24.145 -1.73451 37.2087 24.145 -1.73451
418 1 38.116 25.7205 -0.0106753 38.116 25.7205 -0.0106753
419 2 39.984 25.6518 1.65695 39.984 25.6518 1.65695
420 2 40.0497 25.7893 -1.60164 40.0497 25.7893 -1.60164
421 1 40.9676 24.0751 -0.0227952 40.9676 24.0751 -0.0227952
422 2 42.8477 24.0057 1.63083 42.8477 24.0057 1.63083
423 2 42.8894 24.1448 -1.62814 42.8894 24.1448 -1.62814
424 1 43.8189 25.7201 0.0838744 43.8189 25.7201 0.0838744
425 2 45.7149 25.6508 1.71944 45.7149 25.6508 1.71944
426 2 45.7255 25.7897 -1.53974 45.7255 25.7897 -1.53974
427 1 46.6708 24.0752 0.0225486 46.6708 24.0752 0.0225486
428 2 48.5805 24.0063 1.64185 48.5805 24.0063 1.64185
429 2 48.5634 24.1445 -1.61738 48.5634 24.1445 -1.61738
430 1 49.5226 25.7205 0.077082 49.5226 25.7205 0.077082
431 2 51.4469 25.6512 1.67918 51.4469 25.6512 1.67918
432 2 51.4005 25.7902 -1.57969 51.4005 25.7902 -1.57969
433 1 1.05199 27.3661 0.10655 1.05199 27.3661 0.10655
434 2 2.98811 27.2991 1.69453 2.98811 27.2991 1.69453
435 2 2.91761 27.4335 -1.56407 2.91761 27.4335 -1.56407
436 1 3.9037 29.0119 0.112766 3.9037 29.0119 0.112766
437 2 5.84818 28.9501 1.69081 5.84818 28.9501 1.69081
438 2 5.76049 29.0741 -1.56778 5.76049 29.0741 -1.56778
439 1 6.75424 27.3671 -0.0268259 6.75424 27.3671 -0.0268259
440 2 8.70073 27.3007 1.54846 8.70073 27.3007 1.54846
441 2 8.60867 27.4339 -1.7097 8.60867 27.4339 -1.7097
442 1 9.60539 29.013 -0.0399752 9.60539 29.013 -0.0399752
443 2 11.5512 28.9522 1.53646 11.5512 28.9522 1.53646
444 2 11.4604 29.0739 -1.72222 11.4604 29.0739 -1.72222
445 1 12.4557 27.3682 -0.180919 12.4557 27.3682 -0.180919
446 2 14.3933 27.3031 1.40541 14.3933 27.3031 1.40541
447 2 14.3193 27.4334 -1.85337 14.3193 27.4334 -1.85337
448 1 15.307 29.0138 -0.179464 15.307 29.0138 -0.179464
449 2 17.2343 28.9549 1.41962 17.2343 28.9549 1.41962
450 2 17.1811 29.0728 -1.84009 17.1811 29.0728 -1.84009
451 1 18.158 27.3689 -0.285333 18.158 27.3689 -0.285333
452 2 20.0691 27.3053 1.33305 20.0691 27.3053 1.33305
453 2 20.049 27.4323 -1.92666 20.049 27.4323 -1.92666
454 1 21.0096 29.0141 -0.238257 21.0096 29.0141 -0.238257
455 2 22.9054 28.9568 1.39841 22.9054 28.9568 1.39841
456 2 22.9158 29.0712 -1.86186 22.9158 29.0712 -1.86186
457 1 23.8612 27.3687 -0.286403 23.8612 27.3687 -0.286403
458 2 25.7398 27.306 1.36976 25.7398 27.306 1.36976
459 2 25.7844 27.431 -1.88978 25.7844 27.431 -1.88978
460 1 26.7123 29.0135 -0.183537 26.7123 29.0135 -0.183537
461 2 28.5786 28.957 1.48671 28.5786 28.957 1.48671
462 2 28.6472 29.0697 -1.77288 28.6472 29.0697 -1.77288
463 1 29.5635 27.3676 -0.179971 29.5635 27.3676 -0.179971
464 2 31.4207 27.3046 1.50016 31.4207 27.3046 1.50016
465 2 31.5072 27.4304 -1.75848 31.5072 27.4304 -1.75848
466 1 32.4138 29.0123 -0.0401057 32.4138 29.0123 -0.0401057
467 2 34.2693 28.9554 1.64211 34.2693 28.9554 1.64211
468 2 34.3591 29.0691 -1.61685 34.3591 29.0691 -1.61685
469 1 35.2647 27.3663 -0.0185719 35.2647 27.3663 -0.0185719
470 2 37.1238 27.302 1.65932 37.1238 27.302 1.65932
471 2 37.2069 27.4305 -1.59924 37.2069 27.4305 -1.59924
472 1 38.1153 29.0112 0.119373 38.1153 29.0112 0.119373
473 2 39.9842 28.9529 1.7865 39.9842 28.9529 1.7865
474 2 40.0483 29.0697 -1.47287 40.0483 29.0697 -1.47287
475 1 40.967 27.3654 0.116447 40.967 27.3654 0.116447
476 2 42.8487 27.2998 1.7687 42.8487 27.2998 1.7687
477 2 42.8876 27.4313 -1.49053 42.8876 27.4313 -1.49053
478 1 43.8186 29.0107 0.217038 43.8186 29.0107 0.217038
479 2 45.7158 28.9505 1.85183 45.7158 28.9505 1.85183
480 2 45.7243 29.0714 -1.40798 45.7243 29.0714 -1.40798
481 1 46.6708 27.3654 0.163235 46.6708 27.3654 0.163235
482 2 48.5825 27.2987 1.78058 48.5825 27.2987 1.78058
483 2 48.5618 27.4325 -1.47872 48.5618 27.4325 -1.47872
484 1 49.523 29.011 0.212642 49.523 29.011 0.212642
485 2 51.4489 28.9494 1.81332 51.4489 28.9494 1.81332
486 2 51.3995 29.0732 -1.44603 51.3995 29.0732 -1.44603
487 1 1.05254 30.6571 0.23197 1.05254 30.6571 0.23197
488 2 2.9902 30.603 1.81881 2.9902 30.603 1.81881
489 2 2.91685 30.7116 -1.44062 2.91685 30.7116 -1.44062
490 1 3.90437 32.3035 0.222805 3.90437 32.3035 0.222805
491 2 5.8504 32.2595 1.79972 5.8504 32.2595 1.79972
492 2 5.75971 32.3478 -1.45992 5.75971 32.3478 -1.45992
493 1 6.7551 30.658 0.0988194 6.7551 30.658 0.0988194
494 2 8.70375 30.6043 1.67207 8.70375 30.6043 1.67207
495 2 8.60732 30.712 -1.58689 8.60732 30.712 -1.58689
496 1 9.60616 32.3043 0.0691413 9.60616 32.3043 0.0691413
497 2 11.5542 32.2614 1.64351 11.5542 32.2614 1.64351
498 2 11.4588 32.3474 -1.61618 11.4588 32.3474 -1.61618
499 1 12.4564 30.6589 -0.0575911 12.4564 30.6589 -0.0575911
500 2 14.3966 30.6069 1.52616 14.3966 30.6069 1.52616
501 2 14.3173 30.7111 -1.73347 14.3173 30.7111 -1.73347
502 1 15.3075 32.3049 -0.0737956 15.3075 32.3049 -0.0737956
503 2 17.2373 32.264 1.52287 17.2373 32.264 1.52287
504 2 17.1789 32.346 -1.7379 17.1789 32.346 -1.7379
505 1 18.1583 30.6595 -0.165862 18.1583 30.6595 -0.165862
506 2 20.0719 30.6094 1.45 20.0719 30.6094 1.45
507 2 20.0464 30.7095 -1.81069 20.0464 30.7095 -1.81069
508 1 21.0097 32.3051 -0.13689 21.0097 32.3051 -0.13689
509 2 22.9077 32.2662 1.49764 22.9077 32.2662 1.49764
510 2 22.9134 32.344 -1.76379 22.9134 32.344 -1.76379
511 1 23.861 30.6593 -0.170544 23.861 30.6593 -0.170544
512 2 25.7417 30.6109 1.48375 25.7417 30.6109 1.48375
513 2 25.7819 30.7076 -1.77688 25.7819 30.7076 -1.77688
514 1 26.712 32.3047 -0.0856391 26.712 32.3047 -0.0856391
515 2 28.5801 32.2674 1.58314 28.5801 32.2674 1.58314
516 2 28.645 32.3419 -1.67766 28.645 32.3419 -1.67766
517 1 29.5629 30.6585 -0.0657979 29.5629 30.6585 -0.0657979
518 2 31.4215 30.6108 1.61337 31.4215 30.6108 1.61337
519 2 31.5052 30.706 -1.6464 31.5052 30.706 -1.6464
520 1 32.4132 32.3039 0.0563774 32.4132 32.3039 0.0563774
521 2 34.2698 32.2671 1.73804 34.2698 32.2671 1.73804
522 2 34.3576 32.3406 -1.52213 34.3576 32.3406 -1.52213
523 1 35.2641 30.6574 0.0965632 35.2641 30.6574 0.0965632
524 2 37.1239 30.6091 1.77423 37.1239 30.6091 1.77423
525 2 37.2055 30.7058 -1.48544 37.2055 30.7058 -1.48544
526 1 38.1148 32.3031 0.217338 38.1148 32.3031 0.217338
527 2 39.984 32.265 1.88491 39.984 32.265 1.88491
528 2 40.0477 32.3414 -1.37563 40.0477 32.3414 -1.37563
529 1 40.9665 30.6567 0.234728 40.9665 30.6567 0.234728
530 2 42.8488 30.6063 1.88712 42.8488 30.6063 1.88712
531 2 42.8869 30.7074 -1.37313 42.8869 30.7074 -1.37313
532 1 43.8184 32.3028 0.319399 43.8184 32.3028 0.319399
533 2 45.7156 32.2618 1.95503 45.7156 32.2618 1.95503
534 2 45.7244 32.344 -1.30591 45.7244 32.344 -1.30591
535 1 46.6708 30.6566 0.285674 46.6708 30.6566 0.285674
536 2 48.5833 30.6038 1.90283 48.5833 30.6038 1.90283
537 2 48.5613 30.7099 -1.35739 48.5613 30.7099 -1.35739
538 1 49.5232 32.3029 0.320086 49.5232 32.3029 0.320086