ITEM: TIMESTEP
94000
ITEM: NUMBER OF ATOMS
810
ITEM: BOX BOUNDS pp pp pp
8.4703122798114139e-01 5.2170573772017640e+01
8.1159241580013586e-01 5.0204622584198773e+01
-1.0000000000000000e+01 1.0000000000000000e+01
ITEM: ATOMS id type x y z xu yu zu
1 1 1.0519 1.02669 -0.380272 1.0519 1.02669 -0.380272
2 2 2.92873 1.00335 1.27901 2.92873 1.00335 1.27901
3 2 2.9772 1.05014 -1.98247 2.9772 1.05014 -1.98247
4 1 3.90336 2.67306 -0.313856 3.90336 2.67306 -0.313856
5 2 5.76753 2.64857 1.35958 5.76753 2.64857 1.35958
6 2 5.8407 2.69755 -1.90141 5.8407 2.69755 -1.90141
7 1 6.75467 1.02659 -0.27435 6.75467 1.02659 -0.27435
8 2 8.61007 1.00428 1.40878 8.61007 1.00428 1.40878
9 2 8.70031 1.04882 -1.85185 8.70031 1.04882 -1.85185
10 1 9.60528 2.67275 -0.172616 9.60528 2.67275 -0.172616
11 2 11.459 2.64957 1.51232 11.459 2.64957 1.51232
12 2 11.5525 2.69577 -1.7482 11.5525 2.69577 -1.7482
13 1 12.4562 1.02615 -0.114062 12.4562 1.02615 -0.114062
14 2 14.3124 1.00519 1.56792 14.3124 1.00519 1.56792
15 2 14.4009 1.0469 -1.6928 14.4009 1.0469 -1.6928
16 1 15.3069 2.67222 -0.0154854 15.3069 2.67222 -0.0154854
17 2 17.1727 2.65149 1.65583 17.1727 2.65149 1.65583
18 2 17.2427 2.69272 -1.60534 17.2427 2.69272 -1.60534
19 1 18.1582 1.0256 0.0247437 18.1582 1.0256 0.0247437
20 2 20.036 1.00576 1.68264 20.036 1.00576 1.68264
21 2 20.0827 1.04518 -1.57897 20.0827 1.04518 -1.57897
22 1 21.0098 2.67173 0.0854238 21.0098 2.67173 0.0854238
23 2 22.9036 2.65358 1.72504 22.9036 2.65358 1.72504
24 2 22.9187 2.68969 -1.53688 22.9187 2.68969 -1.53688
25 1 23.8618 1.02515 0.080201 23.8618 1.02515 0.080201
26 2 25.7708 1.00563 1.70188 25.7708 1.00563 1.70188
27 2 25.7553 1.04447 -1.56002 25.7553 1.04447 -1.56002
28 1 26.7138 2.67146 0.0860636 26.7138 2.67146 0.0860636
29 2 28.6381 2.65469 1.68955 28.6381 2.65469 1.68955
30 2 28.5916 2.6881 -1.5721 28.5916 2.6881 -1.5721
31 1 29.5654 1.02497 0.0282581 29.5654 1.02497 0.0282581
32 2 31.5019 1.00472 1.61708 31.5019 1.00472 1.61708
33 2 31.4306 1.04513 -1.64406 31.4306 1.04513 -1.64406
34 1 32.4168 2.67146 -0.0138236 32.4168 2.67146 -0.0138236
35 2 34.3616 2.65424 1.56483 34.3616 2.65424 1.56483
36 2 34.2731 2.68868 -1.69596 34.2731 2.68868 -1.69596
37 1 35.2676 1.02515 -0.108777 35.2676 1.02515 -0.108777
38 2 37.2159 1.00354 1.46548 37.2159 1.00354 1.46548
39 2 37.1201 1.0469 -1.79501 37.1201 1.0469 -1.79501
40 1 38.1183 2.67177 -0.17077 38.1183 2.67177 -0.17077
41 2 40.0643 2.65247 1.40655 40.0643 2.65247 1.40655
42 2 39.9734 2.69128 -1.85415 39.9734 2.69128 -1.85415
43 1 40.969 1.02569 -0.269935 40.969 1.02569 -0.269935
44 2 42.9076 1.00276 1.31644 42.9076 1.00276 1.31644
45 2 42.8318 1.04892 -1.94455 42.8318 1.04892 -1.94455
46 1 43.8202 2.67235 -0.312779 43.8202 2.67235 -0.312779
47 2 45.7461 2.65034 1.28909 45.7461 2.65034 1.28909
48 2 45.6963 2.69467 -1.97244 45.6963 2.69467 -1.97244
49 1 46.6717 1.02633 -0.378608 46.6717 1.02633 -0.378608
50 2 48.582 1.00275 1.24193 48.582 1.00275 1.24193
51 2 48.5638 1.0502 -2.01986 48.5638 1.0502 -2.01986
52 1 49.5235 2.67289 -0.37021 49.5235 2.67289 -0.37021
53 2 51.4167 2.64885 1.27035 51.4167 2.64885 1.27035
54 2 51.4328 2.69717 -1.99144 51.4328 2.69717 -1.99144
55 1 1.05171 4.31936 -0.33135 1.05171 4.31936 -0.33135
56 2 2.92868 4.29482 1.32772 2.92868 4.29482 1.32772
57 2 2.97673 4.34405 -1.93375 2.97673 4.34405 -1.93375
58 1 3.90299 5.96572 -0.264015 3.90299 5.96572 -0.264015
59 2 5.76734 5.94134 1.40921 5.76734 5.94134 1.40921
60 2 5.84008 5.99011 -1.85181 5.84008 5.99011 -1.85181
61 1 6.75428 4.31929 -0.224711 6.75428 4.31929 -0.224711
62 2 8.6109 4.2946 1.45703 8.6109 4.2946 1.45703
63 2 8.6987 4.34389 -1.8036 8.6987 4.34389 -1.8036
64 1 9.6048 5.96543 -0.122646 9.6048 5.96543 -0.122646
65 2 11.4603 5.94221 1.56029 11.4603 5.94221 1.56029
66 2 11.5503 5.98849 -1.70032 11.5503 5.98849 -1.70032
67 1 12.4558 4.31884 -0.0672001 12.4558 4.31884 -0.0672001
68 2 14.3141 4.29666 1.6126 14.3141 4.29666 1.6126
69 2 14.3987 4.34081 -1.64819 14.3987 4.34081 -1.64819
70 1 15.3065 5.96495 0.029331 15.3065 5.96495 0.029331
71 2 17.1753 5.94611 1.69748 17.1753 5.94611 1.69748
72 2 17.2396 5.98363 -1.56383 17.2396 5.98363 -1.56383
73 1 18.158 4.31834 0.0665645 18.158 4.31834 0.0665645
74 2 20.0379 4.30027 1.7221 20.0379 4.30027 1.7221
75 2 20.0805 4.33623 -1.53959 20.0805 4.33623 -1.53959
76 1 21.0097 5.96461 0.121946 21.0097 5.96461 0.121946
77 2 22.9063 5.95146 1.75835 22.9063 5.95146 1.75835
78 2 22.9158 5.97766 -1.50367 22.9158 5.97766 -1.50367
79 1 23.8618 4.31802 0.116816 23.8618 4.31802 0.116816
80 2 25.7724 4.30378 1.73681 25.7724 4.30378 1.73681
81 2 25.7538 4.33214 -1.52516 25.7538 4.33214 -1.52516
82 1 26.7138 5.96449 0.114838 26.7138 5.96449 0.114838
83 2 28.6399 5.95572 1.71636 28.6399 5.95572 1.71636
84 2 28.5899 5.97319 -1.54535 28.5899 5.97319 -1.54535
85 1 29.5655 4.31793 0.0620867 29.5655 4.31793 0.0620867
86 2 31.5024 4.3054 1.65048 31.5024 4.3054 1.65048
87 2 31.4303 4.33039 -1.61079 31.4303 4.33039 -1.61079
88 1 32.4167 5.96451 0.0114787 32.4167 5.96451 0.0114787
89 2 34.3616 5.95668 1.59019 34.3616 5.95668 1.59019
90 2 34.273 5.97228 -1.67074 34.273 5.97228 -1.67074
91 1 35.2677 4.31805 -0.0739369 35.2677 4.31805 -0.0739369
92 2 37.2155 4.30425 1.50113 37.2155 4.30425 1.50113
93 2 37.1208 4.3319 -1.75957 37.1208 4.3319 -1.75957
94 1 38.1183 5.96466 -0.142848 38.1183 5.96466 -0.142848
95 2 40.0628 5.95379 1.43639 40.0628 5.95379 1.43639
96 2 39.9749 5.97564 -1.82456 39.9749 5.97564 -1.82456
97 1 40.9692 4.31842 -0.230687 40.9692 4.31842 -0.230687
98 2 42.9067 4.30095 1.35704 42.9067 4.30095 1.35704
99 2 42.833 4.33613 -1.90416 42.833 4.33613 -1.90416
100 1 43.8202 5.96506 -0.277257 43.8202 5.96506 -0.277257
101 2 45.7441 5.94861 1.32713 45.7441 5.94861 1.32713
102 2 45.6983 5.98179 -1.93461 45.6983 5.98179 -1.93461
103 1 46.6717 4.31897 -0.333757 46.6717 4.31897 -0.333757
104 2 48.5813 4.29724 1.28768 48.5813 4.29724 1.28768
105 2 48.5645 4.34101 -1.9742 48.5645 4.34101 -1.9742
106 1 49.5234 5.96554 -0.325967 49.5234 5.96554 -0.325967
107 2 51.4152 5.94377 1.31619 51.4152 5.94377 1.31619
108 2 51.4339 5.98755 -1.94569 51.4339 5.98755 -1.94569
109 1 1.05144 7.61202 -0.287095 1.05144 7.61202 -0.287095
110 2 2.92696 7.59055 1.37363 2.92696 7.59055 1.37363
111 2 2.97775 7.63363 -1.88791 2.97775 7.63363 -1.88791
112 1 3.90255 9.25841 -0.220444 3.90255 9.25841 -0.220444
113 2 5.76601 9.2383 1.45382 5.76601 9.2383 1.45382
114 2 5.84041 9.27853 -1.8073 5.84041 9.27853 -1.8073
115 1 6.75376 7.61197 -0.175311 6.75376 7.61197 -0.175311
116 2 8.61118 7.58916 1.50558 8.61118 7.58916 1.50558
117 2 8.6974 7.63468 -1.75515 8.6974 7.63468 -1.75515
118 1 9.60423 9.25818 -0.0764796 9.60423 9.25818 -0.0764796
119 2 11.4616 9.2389 1.60443 11.4616 9.2389 1.60443
120 2 11.548 9.27732 -1.65638 11.548 9.27732 -1.65638
121 1 12.4553 7.61157 -0.0202341 12.4553 7.61157 -0.0202341
122 2 14.3164 7.59199 1.65649 14.3164 7.59199 1.65649
123 2 14.3956 7.63099 -1.60448 14.3956 7.63099 -1.60448
124 1 15.3062 9.25783 0.0689788 15.3062 9.25783 0.0689788
125 2 17.1788 9.24411 1.73282 17.1788 9.24411 1.73282
126 2 17.2356 9.27145 -1.52872 17.2356 9.27145 -1.52872
127 1 18.1578 7.61121 0.104698 18.1578 7.61121 0.104698
128 2 20.0415 7.59797 1.75603 20.0415 7.59797 1.75603
129 2 20.0766 7.62436 -1.50582 20.0766 7.62436 -1.50582
130 1 21.0096 9.25767 0.148839 21.0096 9.25767 0.148839
131 2 22.9105 9.25172 1.78031 22.9105 9.25172 1.78031
132 2 22.9115 9.2636 -1.4818 22.9115 9.2636 -1.4818
133 1 23.8617 7.61108 0.143465 23.8617 7.61108 0.143465
134 2 25.7755 7.60447 1.75979 25.7755 7.60447 1.75979
135 2 25.7506 7.61764 -1.50222 25.7506 7.61764 -1.50222
136 1 26.7137 9.25768 0.128284 26.7137 9.25768 0.128284
137 2 28.6427 9.25828 1.72634 28.6427 9.25828 1.72634
138 2 28.5868 9.25703 -1.53532 28.5868 9.25703 -1.53532
139 1 29.5654 7.61107 0.0798279 29.5654 7.61107 0.0798279
140 2 31.5037 7.60833 1.66667 31.5037 7.60833 1.66667
141 2 31.4288 7.61374 -1.59462 31.4288 7.61374 -1.59462
142 1 32.4165 9.25767 0.0169693 32.4165 9.25767 0.0169693
143 2 34.3617 9.26046 1.59535 34.3617 9.26046 1.59535
144 2 34.2725 9.25479 -1.6656 34.2725 9.25479 -1.6656
145 1 35.2675 7.6111 -0.0581892 35.2675 7.6111 -0.0581892
146 2 37.2143 7.60746 1.51818 37.2143 7.60746 1.51818
147 2 37.1217 7.61472 -1.74269 37.1217 7.61472 -1.74269
148 1 38.1181 9.25767 -0.135602 38.1181 9.25767 -0.135602
149 2 40.0601 9.25696 1.44667 40.0601 9.25696 1.44667
150 2 39.9771 9.25839 -1.8145 39.9771 9.25839 -1.8145
151 1 40.9691 7.61127 -0.208681 40.9691 7.61127 -0.208681
152 2 42.9039 7.60227 1.38241 42.9039 7.60227 1.38241
153 2 42.8357 7.62044 -1.87906 42.8357 7.62044 -1.87906
154 1 43.8201 9.25787 -0.259038 43.8201 9.25787 -0.259038
155 2 45.7402 9.24971 1.34999 45.7402 9.24971 1.34999
156 2 45.702 9.26625 -1.912 45.702 9.26625 -1.912
157 1 46.6717 7.61168 -0.300293 46.6717 7.61168 -0.300293
158 2 48.5783 7.59558 1.32457 48.5783 7.59558 1.32457
159 2 48.5672 7.62804 -1.93749 48.5672 7.62804 -1.93749
160 1 49.5233 9.25825 -0.29324 49.5233 9.25825 -0.29324
161 2 51.4119 9.24245 1.35259 51.4119 9.24245 1.35259
162 2 51.4367 9.27427 -1.9094 51.4367 9.27427 -1.9094
163 1 1.05112 10.9048 -0.255007 1.05112 10.9048 -0.255007
164 2 2.92389 10.8899 1.40889 2.92389 10.8899 1.40889
165 2 2.98002 10.9197 -1.85272 2.98002 10.9197 -1.85272
166 1 3.9021 12.5512 -0.190395 3.9021 12.5512 -0.190395
167 2 5.76382 12.5387 1.48586 5.76382 12.5387 1.48586
168 2 5.84157 12.5637 -1.77533 5.84157 12.5637 -1.77533
169 1 6.75321 10.9047 -0.134575 6.75321 10.9047 -0.134575
170 2 8.61086 10.8877 1.54612 8.61086 10.8877 1.54612
171 2 8.6966 10.9217 -1.71477 8.6966 10.9217 -1.71477
172 1 9.60367 12.5511 -0.0419618 9.60367 12.5511 -0.0419618
173 2 11.4627 12.5391 1.63716 11.4627 12.5391 1.63716
174 2 11.5458 12.563 -1.62386 11.5458 12.563 -1.62386
175 1 12.4548 10.9045 0.0187907 12.4548 10.9045 0.0187907
176 2 14.3191 10.8908 1.69205 14.3191 10.8908 1.69205
177 2 14.3921 10.918 -1.56918 14.3921 10.918 -1.56918
178 1 15.3058 12.5509 0.0966061 15.3058 12.5509 0.0966061
179 2 17.1827 12.5447 1.75565 17.1827 12.5447 1.75565
180 2 17.2311 12.557 -1.5061 17.2311 12.557 -1.5061
181 1 18.1576 10.9043 0.132583 18.1576 10.9043 0.132583
182 2 20.046 10.8981 1.77856 20.046 10.8981 1.77856
183 2 20.0718 10.9104 -1.48344 20.0718 10.9104 -1.48344
184 1 21.0095 12.5509 0.161431 21.0095 12.5509 0.161431
185 2 22.9154 12.5532 1.78709 22.9154 12.5532 1.78709
186 2 22.9064 12.5486 -1.47502 22.9064 12.5486 -1.47502
187 1 23.8617 10.9043 0.155668 23.8617 10.9043 0.155668
188 2 25.7797 10.9064 1.76695 25.7797 10.9064 1.76695
189 2 25.7462 10.9022 -1.495 25.7462 10.9022 -1.495
190 1 26.7135 12.5509 0.124177 26.7135 12.5509 0.124177
191 2 28.6461 12.5607 1.71787 28.6461 12.5607 1.71787
192 2 28.5829 12.541 -1.5436 28.5829 12.541 -1.5436
193 1 29.5652 10.9043 0.0786462 29.5652 10.9043 0.0786462
194 2 31.5054 10.9117 1.66303 31.5054 10.9117 1.66303
195 2 31.4264 10.8968 -1.59813 31.4264 10.8968 -1.59813
196 1 32.4161 12.5508 0.00193258 32.4161 12.5508 0.00193258
197 2 34.3617 12.5636 1.57964 34.3617 12.5636 1.57964
198 2 34.2715 12.5379 -1.68119 34.2715 12.5379 -1.68119
199 1 35.2671 10.9042 -0.0639827 35.2671 10.9042 -0.0639827
200 2 37.2127 10.9112 1.51392 37.2127 10.9112 1.51392
201 2 37.1226 10.8971 -1.74701 37.1226 10.8971 -1.74701
202 1 38.1176 12.5506 -0.149933 38.1176 12.5506 -0.149933
203 2 40.0568 12.5601 1.43593 40.0568 12.5601 1.43593
204 2 39.9798 12.5412 -1.82534 39.9798 12.5412 -1.82534
205 1 40.9688 10.9042 -0.20741 40.9688 10.9042 -0.20741
206 2 42.8998 10.905 1.38842 42.8998 10.905 1.38842
207 2 42.8394 10.9035 -1.87327 42.8394 10.9035 -1.87327
208 1 43.8199 12.5507 -0.260833 43.8199 12.5507 -0.260833
209 2 45.735 12.5521 1.35406 45.735 12.5521 1.35406
210 2 45.7068 12.5496 -1.90807 45.7068 12.5496 -1.90807
211 1 46.6715 10.9045 -0.283742 46.6715 10.9045 -0.283742
212 2 48.5737 10.8966 1.34638 48.5737 10.8966 1.34638
213 2 48.5715 10.9125 -1.91584 48.5715 10.9125 -1.91584
214 1 49.523 12.551 -0.277299 49.523 12.551 -0.277299
215 2 51.4074 12.5437 1.37356 51.4074 12.5437 1.37356
216 2 51.4407 12.5585 -1.88849 51.4407 12.5585 -1.88849
217 1 1.0508 14.1976 -0.240191 1.0508 14.1976 -0.240191
218 2 2.92005 14.1918 1.42773 2.92005 14.1918 1.42773
219 2 2.98307 14.2035 -1.83388 2.98307 14.2035 -1.83388
220 1 3.90171 15.8441 -0.178708 3.90171 15.8441 -0.178708
221 2 5.76125 15.8414 1.50002 5.76125 15.8414 1.50002
222 2 5.84327 15.8469 -1.76115 5.84327 15.8469 -1.76115
223 1 6.75269 14.1977 -0.109305 6.75269 14.1977 -0.109305
224 2 8.61007 14.1893 1.57176 8.61007 14.1893 1.57176
225 2 8.69636 14.206 -1.68925 8.69636 14.206 -1.68925
226 1 9.60321 15.8441 -0.024997 9.60321 15.8441 -0.024997
227 2 11.4635 15.8415 1.65277 11.4635 15.8415 1.65277
228 2 11.5442 15.8467 -1.60839 11.5442 15.8467 -1.60839
229 1 12.4543 14.1975 0.0431372 12.4543 14.1975 0.0431372
230 2 14.3217 14.1923 1.71303 14.3217 14.1923 1.71303
231 2 14.3888 14.2027 -1.54841 14.3888 14.2027 -1.54841
232 1 15.3055 15.8441 0.107273 15.3055 15.8441 0.107273
233 2 17.1864 15.8466 1.76184 17.1864 15.8466 1.76184
234 2 17.2271 15.8415 -1.50004 17.2271 15.8415 -1.50004
235 1 18.1574 14.1975 0.145265 18.1574 14.1975 0.145265
236 2 20.0506 14.1996 1.78565 20.0506 14.1996 1.78565
237 2 20.0669 14.1953 -1.47643 20.0669 14.1953 -1.47643
238 1 21.0094 15.8441 0.157289 21.0094 15.8441 0.157289
239 2 22.92 15.8544 1.77728 22.92 15.8544 1.77728
240 2 22.9015 15.8338 -1.48472 22.9015 15.8338 -1.48472
241 1 23.8615 14.1975 0.151201 23.8615 14.1975 0.151201
242 2 25.7841 14.208 1.75697 25.7841 14.208 1.75697
243 2 25.7414 14.187 -1.50482 25.7414 14.187 -1.50482
244 1 26.7133 15.844 0.103036 26.7133 15.844 0.103036
245 2 28.6494 15.8615 1.6923 28.6494 15.8615 1.6923
246 2 28.5789 15.8265 -1.56889 28.5789 15.8265 -1.56889
247 1 29.5648 14.1974 0.0587864 29.5648 14.1974 0.0587864
248 2 31.5073 14.2137 1.64029 31.5073 14.2137 1.64029
249 2 31.4236 14.1811 -1.62063 31.4236 14.1811 -1.62063
250 1 32.4156 15.8438 -0.0310514 32.4156 15.8438 -0.0310514
251 2 34.3618 15.8644 1.54584 34.3618 15.8644 1.54584
252 2 34.2703 15.823 -1.71479 34.2703 15.823 -1.71479
253 1 35.2666 14.1972 -0.0901154 35.2666 14.1972 -0.0901154
254 2 37.2109 14.2135 1.48931 37.2109 14.2135 1.48931
255 2 37.1234 14.1808 -1.77155 37.1234 14.1808 -1.77155
256 1 38.1171 15.8435 -0.183212 38.1171 15.8435 -0.183212
257 2 40.0532 15.8614 1.40624 40.0532 15.8614 1.40624
258 2 39.9824 15.8256 -1.85501 39.9824 15.8256 -1.85501
259 1 40.9684 14.1971 -0.226722 40.9684 14.1971 -0.226722
260 2 42.895 14.2075 1.37437 42.895 14.2075 1.37437
261 2 42.8435 14.1868 -1.8874 42.8435 14.1868 -1.8874
262 1 43.8196 15.8435 -0.281984 43.8196 15.8435 -0.281984
263 2 45.7296 15.854 1.339 45.7296 15.854 1.339
264 2 45.7118 15.8332 -1.92313 45.7118 15.8332 -1.92313
265 1 46.6713 14.1973 -0.286483 46.6713 14.1973 -0.286483
266 2 48.5683 14.1988 1.34974 48.5683 14.1988 1.34974
267 2 48.5765 14.1959 -1.91251 48.5765 14.1959 -1.91251
268 1 49.5228 15.8439 -0.280444 49.5228 15.8439 -0.280444
269 2 51.4024 15.8462 1.37584 51.4024 15.8462 1.37584
270 2 51.4451 15.8417 -1.88612 51.4451 15.8417 -1.88612
271 1 1.05056 17.4905 -0.244858 1.05056 17.4905 -0.244858
272 2 2.91618 17.4947 1.42715 2.91618 17.4947 1.42715
273 2 2.98635 17.4863 -1.83431 2.98635 17.4863 -1.83431
274 1 3.90147 19.137 -0.187229 3.90147 19.137 -0.187229
275 2 5.7588 19.1445 1.49395 5.7588 19.1445 1.49395
276 2 5.84517 19.1296 -1.76708 5.84517 19.1296 -1.76708
277 1 6.75231 17.4907 -0.103727 6.75231 17.4907 -0.103727
278 2 8.60903 17.4924 1.57808 8.60903 17.4924 1.57808
279 2 8.69663 17.4889 -1.68293 8.69663 17.4889 -1.68293
280 1 9.60293 19.1372 -0.0285625 9.60293 19.1372 -0.0285625
281 2 11.4639 19.1445 1.64846 11.4639 19.1445 1.64846
282 2 11.5434 19.1299 -1.6127 11.5434 19.1299 -1.6127
283 1 12.454 17.4907 0.0484622 12.454 17.4907 0.0484622
284 2 14.3238 17.4948 1.71564 14.3238 17.4948 1.71564
285 2 14.3862 17.4864 -1.5459 14.3862 17.4864 -1.5459
286 1 15.3054 19.1373 0.098935 15.3054 19.1373 0.098935
287 2 17.1892 19.1481 1.7501 17.1892 19.1481 1.7501
288 2 17.2241 19.1263 -1.51178 17.2241 19.1263 -1.51178
289 1 18.1573 17.4907 0.140275 18.1573 17.4907 0.140275
290 2 20.0547 17.5008 1.77579 20.0547 17.5008 1.77579
291 2 20.0627 17.4805 -1.48627 20.0627 17.4805 -1.48627
292 1 21.0093 19.1372 0.136848 21.0093 19.1372 0.136848
293 2 22.9237 19.1537 1.75235 22.9237 19.1537 1.75235
294 2 22.8976 19.1205 -1.50952 22.8976 19.1205 -1.50952
295 1 23.8614 17.4906 0.130512 23.8614 17.4906 0.130512
296 2 25.788 17.5078 1.73132 25.788 17.5078 1.73132
297 2 25.737 17.4733 -1.53024 25.737 17.4733 -1.53024
298 1 26.713 19.137 0.0682343 26.713 19.137 0.0682343
299 2 28.652 19.1591 1.65389 28.652 19.1591 1.65389
300 2 28.5755 19.1147 -1.60707 28.5755 19.1147 -1.60707
301 1 29.5644 17.4904 0.0234631 29.5644 17.4904 0.0234631
302 2 31.509 17.5127 1.60228 31.509 17.5127 1.60228
303 2 31.4209 17.4679 -1.65839 31.4209 17.4679 -1.65839
304 1 32.415 19.1366 -0.0764492 32.415 19.1366 -0.0764492
305 2 34.3617 19.1615 1.49973 34.3617 19.1615 1.49973
306 2 34.2692 19.1115 -1.76075 34.2692 19.1115 -1.76075
307 1 35.266 17.49 -0.132131 35.266 17.49 -0.132131
308 2 37.2091 17.5129 1.44865 37.2091 17.5129 1.44865
309 2 37.124 17.467 -1.81211 37.124 17.467 -1.81211
310 1 38.1165 19.1362 -0.229771 38.1165 19.1362 -0.229771
311 2 40.0501 19.1596 1.36275 40.0501 19.1596 1.36275
312 2 39.9846 19.1129 -1.89847 39.9846 19.1129 -1.89847
313 1 40.968 17.4898 -0.263185 40.968 17.4898 -0.263185
314 2 42.8904 17.508 1.34288 42.8904 17.508 1.34288
315 2 42.8475 17.4718 -1.91887 42.8475 17.4718 -1.91887
316 1 43.8193 19.1362 -0.318813 43.8193 19.1362 -0.318813
317 2 45.7248 19.1542 1.30751 45.7248 19.1542 1.30751
318 2 45.7162 19.1186 -1.95451 45.7162 19.1186 -1.95451
319 1 46.6711 17.4901 -0.307765 46.6711 17.4901 -0.307765
320 2 48.563 17.5007 1.33436 48.563 17.5007 1.33436
321 2 48.5814 17.4797 -1.92776 48.5814 17.4797 -1.92776
322 1 49.5227 19.1366 -0.301944 49.5227 19.1366 -0.301944
323 2 51.3979 19.1482 1.35925 51.3979 19.1482 1.35925
324 2 51.4493 19.1253 -1.9025 51.4493 19.1253 -1.9025
325 1 1.05047 20.7832 -0.268135 1.05047 20.7832 -0.268135
326 2 2.91297 20.7968 1.40733 2.91297 20.7968 1.40733
327 2 2.9893 20.7699 -1.85388 2.9893 20.7699 -1.85388
328 1 3.90144 22.4299 -0.214527 3.90144 22.4299 -0.214527
329 2 5.75689 22.4463 1.46866 5.75689 22.4463 1.46866
330 2 5.84697 22.4136 -1.79212 5.84697 22.4136 -1.79212
331 1 6.75214 20.7836 -0.118779 6.75214 20.7836 -0.118779
332 2 8.60796 20.7952 1.56397 8.60796 20.7952 1.56397
333 2 8.69734 20.772 -1.6969 8.69734 20.772 -1.6969
334 1 9.60287 22.4302 -0.0520618 9.60287 22.4302 -0.0520618
335 2 11.4637 22.446 1.62497 11.4637 22.446 1.62497
336 2 11.5434 22.4143 -1.63607 11.5434 22.4143 -1.63607
337 1 12.4539 20.7838 0.033762 12.4539 20.7838 0.033762
338 2 14.325 20.7965 1.69932 14.325 20.7965 1.69932
339 2 14.3848 20.7709 -1.56218 14.3848 20.7709 -1.56218
340 1 15.3054 22.4303 0.0730772 15.3054 22.4303 0.0730772
341 2 17.1906 22.4474 1.72256 17.1906 22.4474 1.72256
342 2 17.2227 22.413 -1.53926 17.2227 22.413 -1.53926
343 1 18.1572 20.7838 0.118371 18.1572 20.7838 0.118371
344 2 20.0574 20.8001 1.7506 20.0574 20.8001 1.7506
345 2 20.0598 20.7673 -1.51138 20.0598 20.7673 -1.51138
346 1 21.0093 22.4302 0.103717 21.0093 22.4302 0.103717
347 2 22.9256 22.45 1.71669 22.9256 22.45 1.71669
348 2 22.8954 22.4101 -1.54509 22.8954 22.4101 -1.54509
349 1 23.8612 20.7836 0.097029 23.8612 20.7836 0.097029
350 2 25.7906 20.8045 1.69436 25.7906 20.8045 1.69436
351 2 25.7339 20.7625 -1.56704 25.7339 20.7625 -1.56704
352 1 26.7127 22.4298 0.025828 26.7127 22.4298 0.025828
353 2 28.6534 22.4526 1.60933 28.6534 22.4526 1.60933
354 2 28.5734 22.4068 -1.65154 28.5734 22.4068 -1.65154
355 1 29.5639 20.7832 -0.0213429 29.5639 20.7832 -0.0213429
356 2 31.5101 20.8078 1.55551 31.5101 20.8078 1.55551
357 2 31.4188 20.7584 -1.70502 31.4188 20.7584 -1.70502
358 1 32.4145 22.4293 -0.126378 32.4145 22.4293 -0.126378
359 2 34.3616 22.4542 1.44933 34.3616 22.4542 1.44933
360 2 34.2683 22.4042 -1.81113 34.2683 22.4042 -1.81113
361 1 35.2654 20.7827 -0.182851 35.2654 20.7827 -0.182851
362 2 37.2076 20.8082 1.39894 37.2076 20.8082 1.39894
363 2 37.1244 20.7571 -1.86178 37.1244 20.7571 -1.86178
364 1 38.1161 22.4289 -0.281595 38.1161 22.4289 -0.281595
365 2 40.048 22.4537 1.31293 40.048 22.4537 1.31293
366 2 39.9859 22.4041 -1.94829 39.9859 22.4041 -1.94829
367 1 40.9676 20.7825 -0.3106 40.9676 20.7825 -0.3106
368 2 42.8868 20.8054 1.29934 42.8868 20.8054 1.29934
369 2 42.8505 20.7598 -1.96234 42.8505 20.7598 -1.96234
370 1 43.8191 22.4289 -0.365107 43.8191 22.4289 -0.365107
371 2 45.7214 22.4512 1.26494 45.7214 22.4512 1.26494
372 2 45.7193 22.4068 -1.99696 45.7193 22.4068 -1.99696
373 1 46.671 20.7827 -0.343959 46.671 20.7827 -0.343959
374 2 48.5588 20.8007 1.30294 48.5588 20.8007 1.30294
375 2 48.5855 20.7651 -1.95897 48.5855 20.7651 -1.95897
376 1 49.5227 22.4293 -0.338205 49.5227 22.4293 -0.338205
377 2 51.3947 22.4482 1.32659 51.3947 22.4482 1.32659
378 2 51.4525 22.4107 -1.93489 51.4525 22.4107 -1.93489
379 1 1.05055 24.0759 -0.306182 1.05055 24.0759 -0.306182
380 2 2.91094 24.0966 1.37157 2.91094 24.0966 1.37157
381 2 2.99147 24.0556 -1.88937 2.99147 24.0556 -1.88937
382 1 3.90164 25.7226 -0.256071 3.90164 25.7226 -0.256071
383 2 5.75582 25.7452 1.42844 5.75582 25.7452 1.42844
384 2 5.84842 25.7001 -1.83211 5.84842 25.7001 -1.83211
385 1 6.75221 24.0765 -0.151932 6.75221 24.0765 -0.151932
386 2 8.607 24.0959 1.53187 8.607 24.0959 1.53187
387 2 8.69843 24.0571 -1.72879 8.69843 24.0571 -1.72879
388 1 9.60306 25.723 -0.0914174 9.60306 25.723 -0.0914174
389 2 11.4631 25.7446 1.58648 11.4631 25.7446 1.58648
390 2 11.5444 25.7014 -1.67439 11.5444 25.7014 -1.67439
391 1 12.454 24.0768 0.00166362 12.454 24.0768 0.00166362
392 2 14.3251 24.0958 1.66707 14.3251 24.0958 1.66707
393 2 14.3848 24.0576 -1.59432 14.3848 24.0576 -1.59432
394 1 15.3055 25.7232 0.0344229 15.3055 25.7232 0.0344229
395 2 17.1902 25.7435 1.68427 17.1902 25.7435 1.68427
396 2 17.2231 25.7027 -1.57749 17.2231 25.7027 -1.57749
397 1 18.1572 24.0767 0.0835707 18.1572 24.0767 0.0835707
398 2 20.0582 24.0962 1.71469 20.0582 24.0962 1.71469
399 2 20.0589 24.0569 -1.54724 20.0589 24.0569 -1.54724
400 1 21.0092 25.7229 0.0639758 21.0092 25.7229 0.0639758
401 2 22.9256 25.7424 1.6768 22.9256 25.7424 1.6768
402 2 22.8952 25.7032 -1.58501 22.8952 25.7032 -1.58501
403 1 23.8611 24.0764 0.0567698 23.8611 24.0764 0.0567698
404 2 25.7916 24.0972 1.65267 25.7916 24.0972 1.65267
405 2 25.7325 24.0553 -1.60871 25.7325 24.0553 -1.60871
406 1 26.7124 25.7225 -0.016567 26.7124 25.7225 -0.016567
407 2 28.6534 25.742 1.56656 28.6534 25.742 1.56656
408 2 28.5728 25.7028 -1.6944 28.5728 25.7028 -1.6944
409 1 29.5635 24.0759 -0.0677074 29.5635 24.0759 -0.0677074
410 2 31.5104 24.0983 1.50822 31.5104 24.0983 1.50822
411 2 31.4176 24.0532 -1.75233 31.4176 24.0532 -1.75233
412 1 32.4141 25.722 -0.172021 32.4141 25.722 -0.172021
413 2 34.3614 25.7425 1.40348 34.3614 25.7425 1.40348
414 2 34.2677 25.7014 -1.85709 34.2677 25.7014 -1.85709
415 1 35.2649 24.0754 -0.233403 35.2649 24.0754 -0.233403
416 2 37.2068 24.0991 1.34883 37.2068 24.0991 1.34883
417 2 37.1243 24.0516 -1.91195 37.1243 24.0516 -1.91195
418 1 38.1157 25.7216 -0.32966 38.1157 25.7216 -0.32966
419 2 40.0473 25.7436 1.26542 40.0473 25.7436 1.26542
420 2 39.9861 25.6997 -1.99588 39.9861 25.6997 -1.99588
421 1 40.9673 24.0752 -0.360837 40.9673 24.0752 -0.360837
422 2 42.8847 24.0989 1.25121 42.8847 24.0989 1.25121
423 2 42.8522 24.0516 -2.01046 42.8522 24.0516 -2.01046
424 1 43.819 25.7216 -0.412982 43.819 25.7216 -0.412982
425 2 45.72 25.7446 1.21852 45.72 25.7446 1.21852
426 2 45.7206 25.6989 -2.04332 45.7206 25.6989 -2.04332
427 1 46.671 24.0754 -0.38901 46.671 24.0754 -0.38901
428 2 48.5562 24.0978 1.26076 48.5562 24.0978 1.26076
429 2 48.588 24.0534 -2.00098 48.588 24.0534 -2.00098
430 1 49.5228 25.722 -0.383196 49.5228 25.722 -0.383196
431 2 51.3932 25.7451 1.28333 51.3932 25.7451 1.28333
432 2 51.4542 25.6992 -1.97796 51.4542 25.6992 -1.97796
433 1 1.05078 27.3686 -0.352667 1.05078 27.3686 -0.352667
434 2 2.91042 27.3928 1.32588 2.91042 27.3928 1.32588
435 2 2.99252 27.3446 -1.9349 2.99252 27.3446 -1.9349
436 1 3.90202 29.0152 -0.304882 3.90202 29.0152 -0.304882
437 2 5.75571 29.0402 1.38014 5.75571 29.0402 1.38014
438 2 5.84932 28.9905 -1.88031 5.84932 28.9905 -1.88031
439 1 6.75253 27.3692 -0.19757 6.75253 27.3692 -0.19757
440 2 8.60625 27.3931 1.48733 8.60625 27.3931 1.48733
441 2 8.69976 27.3453 -1.77316 8.69976 27.3453 -1.77316
442 1 9.60346 29.0157 -0.139814 9.60346 29.0157 -0.139814
443 2 11.4619 29.0393 1.53975 11.4619 29.0393 1.53975
444 2 11.5462 28.9921 -1.72101 11.5462 28.9921 -1.72101
445 1 12.4542 27.3695 -0.0421294 12.4542 27.3695 -0.0421294
446 2 14.324 27.3914 1.62469 14.324 27.3914 1.62469
447 2 14.3862 27.3475 -1.6366 14.3862 27.3475 -1.6366
448 1 15.3057 29.0159 -0.0101417 15.3057 29.0159 -0.0101417
449 2 17.1883 29.0358 1.64208 17.1883 29.0358 1.64208
450 2 17.2253 28.9958 -1.61966 17.2253 28.9958 -1.61966
451 1 18.1573 27.3695 0.0422229 18.1573 27.3695 0.0422229
452 2 20.0571 27.3887 1.67461 20.0571 27.3887 1.67461
453 2 20.06 27.35 -1.58736 20.06 27.35 -1.58736
454 1 21.0092 29.0156 0.0247465 21.0092 29.0156 0.0247465
455 2 22.9237 29.0314 1.63978 22.9237 29.0314 1.63978
456 2 22.897 28.9996 -1.62217 22.897 28.9996 -1.62217
457 1 23.861 27.3691 0.0170165 23.861 27.3691 0.0170165
458 2 25.7908 27.3862 1.61373 25.7908 27.3862 1.61373
459 2 25.733 27.3517 -1.64778 25.733 27.3517 -1.64778
460 1 26.7123 29.0152 -0.0514666 26.7123 29.0152 -0.0514666
461 2 28.6522 29.028 1.53304 28.6522 29.028 1.53304
462 2 28.5738 29.0021 -1.72812 28.5738 29.0021 -1.72812
463 1 29.5633 27.3686 -0.107423 29.5633 27.3686 -0.107423
464 2 31.5101 27.385 1.4687 31.5101 27.385 1.4687
465 2 31.4175 27.352 -1.79201 31.4175 27.352 -1.79201
466 1 32.414 29.0148 -0.205473 32.414 29.0148 -0.205473
467 2 34.3613 29.0274 1.37006 34.3613 29.0274 1.37006
468 2 34.2676 29.0021 -1.89068 34.2676 29.0021 -1.89068
469 1 35.2647 27.3682 -0.274961 35.2647 27.3682 -0.274961
470 2 37.2068 27.386 1.30702 37.2068 27.386 1.30702
471 2 37.1238 27.3504 -1.95389 37.1238 27.3504 -1.95389
472 1 38.1156 29.0145 -0.365691 38.1156 29.0145 -0.365691
473 2 40.048 29.0299 1.22834 40.048 29.0299 1.22834
474 2 39.9851 28.9992 -2.03305 39.9851 28.9992 -2.03305
475 1 40.9671 27.368 -0.405223 40.9671 27.368 -0.405223
476 2 42.8847 27.3885 1.20674 42.8847 27.3885 1.20674
477 2 42.852 27.3477 -2.05498 42.852 27.3477 -2.05498
478 1 43.8189 29.0145 -0.454226 43.8189 29.0145 -0.454226
479 2 45.721 29.0342 1.17617 45.721 29.0342 1.17617
480 2 45.7196 28.995 -2.08573 45.7196 28.995 -2.08573
481 1 46.671 27.3681 -0.435288 46.671 27.3681 -0.435288
482 2 48.5559 27.3911 1.21493 48.5559 27.3911 1.21493
483 2 48.5886 27.3455 -2.04674 48.5886 27.3455 -2.04674
484 1 49.5229 29.0147 -0.429331 49.5229 29.0147 -0.429331
485 2 51.3938 29.0381 1.23676 51.3938 29.0381 1.23676
486 2 51.4541 28.9916 -2.02451 51.4541 28.9916 -2.02451
487 1 1.05111 30.6613 -0.399758 1.05111 30.6613 -0.399758
488 2 2.91148 30.6851 1.278 2.91148 30.6851 1.278
489 2 2.99225 30.6378 -1.98281 2.99225 30.6378 -1.98281
490 1 3.9025 32.308 -0.352701 3.9025 32.308 -0.352701
491 2 5.75653 32.331 1.33197 5.75653 32.331 1.33197
492 2 5.84955 32.2851 -1.92854 5.84955 32.2851 -1.92854
493 1 6.75303 30.6618 -0.247909 6.75303 30.6618 -0.247909
494 2 8.6058 30.6861 1.43802 8.6058 30.6861 1.43802
495 2 8.70117 30.6377 -1.8224 8.70117 30.6377 -1.8224
496 1 9.604 32.3084 -0.188935 9.604 32.3084 -0.188935
497 2 11.4605 32.33 1.49283 11.4605 32.33 1.49283
498 2 11.5486 32.2869 -1.76789 11.5486 32.2869 -1.76789
499 1 12.4546 30.6622 -0.0899831 12.4546 30.6622 -0.0899831
500 2 14.3219 30.6832 1.5796 14.3219 30.6832 1.5796
501 2 14.3889 30.6411 -1.68164 14.3889 30.6411 -1.68164
502 1 15.306 32.3086 -0.0529453 15.306 32.3086 -0.0529453
503 2 17.1851 32.3247 1.60325 17.1851 32.3247 1.60325
504 2 17.2289 32.2922 -1.65852 17.2289 32.2922 -1.65852
505 1 18.1575 30.6622 0.00157795 18.1575 30.6622 0.00157795
506 2 20.0543 30.6778 1.63737 20.0543 30.6778 1.63737
507 2 20.063 30.6463 -1.62468 20.063 30.6463 -1.62468
508 1 21.0093 32.3083 -0.00724082 21.0093 32.3083 -0.00724082
509 2 22.9203 32.3177 1.61197 22.9203 32.3177 1.61197
510 2 22.9006 32.2987 -1.65015 22.9006 32.2987 -1.65015
511 1 23.861 30.6618 -0.0152792 23.861 30.6618 -0.0152792
512 2 25.7884 30.6722 1.58428 25.7884 30.6722 1.58428
513 2 25.7354 30.6511 -1.67744 25.7354 30.6511 -1.67744
514 1 26.7124 32.3079 -0.0729322 26.7124 32.3079 -0.0729322
515 2 28.6499 32.312 1.51442 28.6499 32.312 1.51442
516 2 28.5763 32.3037 -1.74696 28.5763 32.3037 -1.74696
517 1 29.5633 30.6614 -0.133683 29.5633 30.6614 -0.133683
518 2 31.5091 30.6691 1.44367 31.5091 30.6691 1.44367
519 2 31.4185 30.6536 -1.81724 31.4185 30.6536 -1.81724
520 1 32.4141 32.3077 -0.221168 32.4141 32.3077 -0.221168
521 2 34.3612 32.3104 1.35459 34.3612 32.3104 1.35459
522 2 34.2679 32.3051 -1.90625 34.2679 32.3051 -1.90625
523 1 35.2647 30.6611 -0.300487 35.2647 30.6611 -0.300487
524 2 37.2076 30.6701 1.28056 37.2076 30.6701 1.28056
525 2 37.123 30.6522 -1.98045 37.123 30.6522 -1.98045
526 1 38.1157 32.3076 -0.383695 38.1157 32.3076 -0.383695
527 2 40.0502 32.3139 1.20788 40.0502 32.3139 1.20788
528 2 39.9831 32.3015 -2.05353 39.9831 32.3015 -2.05353
529 1 40.967 30.661 -0.436196 40.967 30.661 -0.436196
530 2 42.8866 30.6748 1.1735 42.8866 30.6748 1.1735
531 2 42.85 30.6474 -2.08831 42.85 30.6474 -2.08831
532 1 43.819 32.3076 -0.481894 43.819 32.3076 -0.481894
533 2 45.724 32.3207 1.14501 45.724 32.3207 1.14501
534 2 45.7167 32.2945 -2.11699 45.7167 32.2945 -2.11699
535 1 46.671 30.6611 -0.474921 46.671 30.6611 -0.474921
536 2 48.5578 30.6807 1.17323 48.5578 30.6807 1.17323
537 2 48.5869 30.6416 -2.08853 48.5869 30.6416 -2.08853
538 1 49.5231 32.3076 -0.468835 49.5231 32.3076 -0.468835
539 2 51.3963 32.3274 1.19472 51.3963 32.3274 1.19472