ITEM: TIMESTEP
70000
ITEM: NUMBER OF ATOMS
810
ITEM: BOX BOUNDS pp pp pp
8.4302185718282563e-01 5.2174583142814967e+01
8.1191797269319843e-01 5.0204297027306048e+01
-1.0000000000000000e+01 1.0000000000000000e+01
ITEM: ATOMS id type x y z xu yu zu
1 1 1.04687 1.02671 -0.255154 1.04687 1.02671 -0.255154
2 2 2.93751 0.992637 1.388 2.93751 0.992637 1.388
3 2 2.95865 1.06092 -1.8734 2.95865 1.06092 -1.8734
4 1 3.8986 2.67297 -0.201945 3.8986 2.67297 -0.201945
5 2 5.78348 2.639 1.44784 5.78348 2.639 1.44784
6 2 5.81601 2.70703 -1.81348 5.81601 2.70703 -1.81348
7 1 6.75041 1.02672 -0.207744 6.75041 1.02672 -0.207744
8 2 8.63063 0.992805 1.44731 8.63063 0.992805 1.44731
9 2 8.67239 1.06063 -1.8139 8.67239 1.06063 -1.8139
10 1 9.60194 2.67283 -0.136755 9.60194 2.67283 -0.136755
11 2 11.4811 2.63897 1.51947 11.4811 2.63897 1.51947
12 2 11.5249 2.70663 -1.74172 11.5249 2.70663 -1.74172
13 1 12.4537 1.02644 -0.132594 12.4537 1.02644 -0.132594
14 2 14.3336 0.992652 1.52271 14.3336 0.992652 1.52271
15 2 14.3759 1.06009 -1.73851 14.3759 1.06009 -1.73851
16 1 15.3052 2.67246 -0.0614017 15.3052 2.67246 -0.0614017
17 2 17.1898 2.63934 1.58861 17.1898 2.63934 1.58861
18 2 17.223 2.70543 -1.67273 17.223 2.70543 -1.67273
19 1 18.1571 1.02602 -0.0658363 18.1571 1.02602 -0.0658363
20 2 20.0471 0.992556 1.57789 20.0471 0.992556 1.57789
21 2 20.0695 1.05929 -1.68354 20.0695 1.05929 -1.68354
22 1 21.0089 2.67207 -0.0124867 21.0089 2.67207 -0.0124867
23 2 22.907 2.64021 1.62189 22.907 2.64021 1.62189
24 2 22.9133 2.70376 -1.63965 22.9133 2.70376 -1.63965
25 1 23.8608 1.02566 -0.0392178 23.8608 1.02566 -0.0392178
26 2 25.766 0.992528 1.58679 25.766 0.992528 1.58679
27 2 25.7581 1.05862 -1.67471 25.7581 1.05862 -1.67471
28 1 26.7127 2.67182 -0.01281 26.7127 2.67182 -0.01281
29 2 28.6258 2.64092 1.60401 28.6258 2.64092 1.60401
30 2 28.6021 2.70262 -1.65749 28.6021 2.70262 -1.65749
31 1 29.5645 1.02551 -0.0648889 29.5645 1.02551 -0.0648889
32 2 31.483 0.992269 1.5455 31.483 0.992269 1.5455
33 2 31.4484 1.05869 -1.71582 31.4484 1.05869 -1.71582
34 1 32.4164 2.67182 -0.0616224 32.4164 2.67182 -0.0616224
35 2 34.3389 2.64098 1.54394 34.3389 2.64098 1.54394
36 2 34.296 2.70266 -1.71738 34.296 2.70266 -1.71738
37 1 35.2679 1.02564 -0.130442 35.2679 1.02564 -0.130442
38 2 37.1914 0.99198 1.47399 37.1914 0.99198 1.47399
39 2 37.1466 1.05938 -1.78719 37.1466 1.05938 -1.78719
40 1 38.1196 2.67205 -0.135528 38.1196 2.67205 -0.135528
41 2 40.042 2.64054 1.47037 40.042 2.64054 1.47037
42 2 39.9995 2.7037 -1.79093 39.9995 2.7037 -1.79093
43 1 40.9712 1.026 -0.204615 40.9712 1.026 -0.204615
44 2 42.8895 0.991974 1.40603 42.8895 0.991974 1.40603
45 2 42.8551 1.06021 -1.85526 42.8551 1.06021 -1.85526
46 1 43.823 2.67243 -0.200081 43.823 2.67243 -0.200081
47 2 45.7358 2.63988 1.4171 45.7358 2.63988 1.4171
48 2 45.7124 2.7052 -1.84436 45.7124 2.7052 -1.84436
49 1 46.6747 1.02641 -0.253487 46.6747 1.02641 -0.253487
50 2 48.5803 0.992251 1.37222 48.5803 0.992251 1.37222
51 2 48.5715 1.0608 -1.88924 48.5715 1.0608 -1.88924
52 1 49.5265 2.6728 -0.226353 49.5265 2.6728 -0.226353
53 2 51.4249 2.6393 1.4079 51.4249 2.6393 1.4079
54 2 51.4306 2.70651 -1.8536 51.4306 2.70651 -1.8536
55 1 1.04676 4.31915 -0.187104 1.04676 4.31915 -0.187104
56 2 2.93795 4.28708 1.45548 2.93795 4.28708 1.45548
57 2 2.95792 4.35139 -1.80603 2.95792 4.35139 -1.80603
58 1 3.89841 5.96547 -0.136829 3.89841 5.96547 -0.136829
59 2 5.78372 5.93592 1.51257 5.78372 5.93592 1.51257
60 2 5.81535 5.99511 -1.74894 5.81535 5.99511 -1.74894
61 1 6.75019 4.31917 -0.138845 6.75019 4.31917 -0.138845
62 2 8.63135 4.2866 1.51521 8.63135 4.2866 1.51521
63 2 8.67122 4.35176 -1.74609 8.67122 4.35176 -1.74609
64 1 9.60169 5.96535 -0.0707427 9.60169 5.96535 -0.0707427
65 2 11.482 5.9359 1.58429 11.482 5.9359 1.58429
66 2 11.5235 5.99476 -1.6771 11.5235 5.99476 -1.6771
67 1 12.4534 4.31891 -0.0640489 12.4534 4.31891 -0.0640489
68 2 14.3347 4.28703 1.58986 14.3347 4.28703 1.58986
69 2 14.3744 4.35068 -1.67145 14.3744 4.35068 -1.67145
70 1 15.305 5.96504 0.00310668 15.305 5.96504 0.00310668
71 2 17.1914 5.93735 1.65122 17.1914 5.93735 1.65122
72 2 17.2211 5.99264 -1.61034 17.2211 5.99264 -1.61034
73 1 18.1569 4.31853 0.00112723 18.1569 4.31853 0.00112723
74 2 20.0486 4.28842 1.6431 20.0486 4.28842 1.6431
75 2 20.0678 4.34851 -1.61846 20.0678 4.34851 -1.61846
76 1 21.0088 5.96475 0.0484245 21.0088 5.96475 0.0484245
77 2 22.909 5.93982 1.68059 22.909 5.93982 1.68059
78 2 22.9112 5.98958 -1.58118 22.9112 5.98958 -1.58118
79 1 23.8608 4.31824 0.0251762 23.8608 4.31824 0.0251762
80 2 25.7676 4.29018 1.64955 25.7676 4.29018 1.64955
81 2 25.7566 4.34619 -1.61211 25.7566 4.34619 -1.61211
82 1 26.7128 5.96459 0.0439516 26.7128 5.96459 0.0439516
83 2 28.6275 5.94206 1.65907 28.6275 5.94206 1.65907
84 2 28.6006 5.98706 -1.60266 28.6006 5.98706 -1.60266
85 1 29.5646 4.31814 -0.00239495 29.5646 4.31814 -0.00239495
86 2 31.4841 4.29122 1.60699 31.4841 4.29122 1.60699
87 2 31.4475 4.34501 -1.65453 31.4475 4.34501 -1.65453
88 1 32.4165 5.96459 -0.00714524 32.4165 5.96459 -0.00714524
89 2 34.3398 5.94288 1.5977 34.3398 5.94288 1.5977
90 2 34.2953 5.98632 -1.66388 34.2953 5.98632 -1.66388
91 1 35.2681 4.31824 -0.06799 35.2681 4.31824 -0.06799
92 2 37.1921 4.29107 1.53602 37.1921 4.29107 1.53602
93 2 37.1462 4.34549 -1.72539 37.1462 4.34549 -1.72539
94 1 38.1197 5.96475 -0.080444 38.1197 5.96475 -0.080444
95 2 40.0421 5.94196 1.5256 40.0421 5.94196 1.5256
96 2 39.9995 5.98766 -1.73601 39.9995 5.98766 -1.73601
97 1 40.9713 4.31852 -0.140668 40.9713 4.31852 -0.140668
98 2 42.8899 4.28993 1.46983 42.8899 4.28993 1.46983
99 2 42.855 4.34729 -1.79169 42.855 4.34729 -1.79169
100 1 43.823 5.96503 -0.142033 43.823 5.96503 -0.142033
101 2 45.7356 5.9398 1.4757 45.7356 5.9398 1.4757
102 2 45.7127 5.99046 -1.78605 45.7127 5.99046 -1.78605
103 1 46.6747 4.31888 -0.187362 46.6747 4.31888 -0.187362
104 2 48.5806 4.28836 1.43814 48.5806 4.28836 1.43814
105 2 48.5712 4.34963 -1.82348 48.5712 4.34963 -1.82348
106 1 49.5265 5.96533 -0.164346 49.5265 5.96533 -0.164346
107 2 51.4246 5.93741 1.47026 51.4246 5.93741 1.47026
108 2 51.4307 5.99344 -1.79147 51.4307 5.99344 -1.79147
109 1 1.04662 7.61177 -0.130405 1.04662 7.61177 -0.130405
110 2 2.93742 7.58728 1.51278 2.93742 7.58728 1.51278
111 2 2.95811 7.6364 -1.749 2.95811 7.6364 -1.749
112 1 3.89822 9.25822 -0.0871121 3.89822 9.25822 -0.0871121
113 2 5.78328 9.2383 1.56273 5.78328 9.2383 1.56273
114 2 5.81536 9.27821 -1.69908 5.81536 9.27821 -1.69908
115 1 6.74996 7.61178 -0.0789027 6.74996 7.61178 -0.0789027
116 2 8.63175 7.58624 1.57458 8.63175 7.58624 1.57458
117 2 8.67034 7.63735 -1.68699 8.67034 7.63735 -1.68699
118 1 9.60145 9.25814 -0.0189518 9.60145 9.25814 -0.0189518
119 2 11.4829 9.23828 1.63499 11.4829 9.23828 1.63499
120 2 11.5222 9.27797 -1.6267 11.5222 9.27797 -1.6267
121 1 12.4532 7.61158 -0.00440324 12.4532 7.61158 -0.00440324
122 2 14.3361 7.58723 1.64782 14.3361 7.58723 1.64782
123 2 14.3726 7.63588 -1.61378 14.3726 7.63588 -1.61378
124 1 15.3049 9.25794 0.0524366 15.3049 9.25794 0.0524366
125 2 17.1934 9.24055 1.69826 17.1934 9.24055 1.69826
126 2 17.2188 9.27528 -1.56361 17.2188 9.27528 -1.56361
127 1 18.1568 7.61132 0.0571878 18.1568 7.61132 0.0571878
128 2 20.0508 7.58988 1.6967 20.0508 7.58988 1.6967
129 2 20.0655 7.63269 -1.56513 20.0655 7.63269 -1.56513
130 1 21.0088 9.25777 0.0918727 21.0088 9.25777 0.0918727
131 2 22.9115 9.24416 1.72122 22.9115 9.24416 1.72122
132 2 22.9087 9.27135 -1.5408 22.9087 9.27135 -1.5408
133 1 23.8608 7.61114 0.0756455 23.8608 7.61114 0.0756455
134 2 25.7698 7.59308 1.69762 25.7698 7.59308 1.69762
135 2 25.7544 7.62916 -1.56429 25.7544 7.62916 -1.56429
136 1 26.7128 9.2577 0.0805626 26.7128 9.2577 0.0805626
137 2 28.6296 9.24751 1.69346 28.6296 9.24751 1.69346
138 2 28.5986 9.26785 -1.56848 28.5986 9.26785 -1.56848
139 1 29.5647 7.61109 0.0432132 29.5647 7.61109 0.0432132
140 2 31.4855 7.59521 1.65119 31.4855 7.59521 1.65119
141 2 31.4462 7.62695 -1.61058 31.4462 7.62695 -1.61058
142 1 32.4165 9.25769 0.0250059 32.4165 9.25769 0.0250059
143 2 34.3406 9.24892 1.6291 34.3406 9.24892 1.6291
144 2 34.2946 9.26645 -1.63271 34.2946 9.26645 -1.63271
145 1 35.2682 7.61115 -0.0240052 35.2682 7.61115 -0.0240052
146 2 37.1924 7.59523 1.57993 37.1924 7.59523 1.57993
147 2 37.1461 7.62711 -1.68177 37.1461 7.62711 -1.68177
148 1 38.1197 9.25776 -0.0482036 38.1197 9.25776 -0.0482036
149 2 40.0416 9.24772 1.55866 40.0416 9.24772 1.55866
150 2 40 9.26785 -1.70322 40 9.26785 -1.70322
151 1 40.9714 7.61132 -0.0944364 40.9714 7.61132 -0.0944364
152 2 42.8893 7.59318 1.517 42.8893 7.59318 1.517
153 2 42.8556 7.62959 -1.74484 42.8556 7.62959 -1.74484
154 1 43.823 9.25791 -0.105244 43.823 9.25791 -0.105244
155 2 45.7342 9.24448 1.51427 45.7342 9.24448 1.51427
156 2 45.7141 9.27148 -1.74779 45.7141 9.27148 -1.74779
157 1 46.6747 7.61157 -0.136128 46.6747 7.61157 -0.136128
158 2 48.5797 7.59002 1.49061 48.5797 7.59002 1.49061
159 2 48.5721 7.63329 -1.77132 48.5721 7.63329 -1.77132
160 1 49.5264 9.25811 -0.120606 49.5264 9.25811 -0.120606
161 2 51.4233 9.24072 1.51564 51.4233 9.24072 1.51564
162 2 51.4318 9.27565 -1.74639 51.4318 9.27565 -1.74639
163 1 1.04649 10.9047 -0.0950998 1.04649 10.9047 -0.0950998
164 2 2.93601 10.8922 1.5497 2.93601 10.8922 1.5497
165 2 2.95919 10.9173 -1.71234 2.95919 10.9173 -1.71234
166 1 3.89806 12.5512 -0.0617381 3.89806 12.5512 -0.0617381
167 2 5.78222 12.5446 1.58926 5.78222 12.5446 1.58926
168 2 5.81608 12.5579 -1.67275 5.81608 12.5579 -1.67275
169 1 6.74974 10.9047 -0.0384931 6.74974 10.9047 -0.0384931
170 2 8.63175 10.8907 1.6149 8.63175 10.8907 1.6149
171 2 8.66992 10.9187 -1.64694 8.66992 10.9187 -1.64694
172 1 9.60127 12.5512 0.00942534 9.60127 12.5512 0.00942534
173 2 11.4835 12.5444 1.66256 11.4835 12.5444 1.66256
174 2 11.5213 12.558 -1.59936 11.5213 12.558 -1.59936
175 1 12.453 10.9046 0.0358466 12.453 10.9046 0.0358466
176 2 14.3376 10.892 1.68632 14.3376 10.892 1.68632
177 2 14.3709 10.9171 -1.57557 14.3709 10.9171 -1.57557
178 1 15.3048 12.5511 0.07794 15.3048 12.5511 0.07794
179 2 17.1955 12.547 1.72141 17.1955 12.547 1.72141
180 2 17.2167 12.5552 -1.54065 17.2167 12.5552 -1.54065
181 1 18.1567 10.9045 0.0924586 18.1567 10.9045 0.0924586
182 2 20.0532 10.8954 1.72918 20.0532 10.8954 1.72918
183 2 20.0629 10.9135 -1.53289 20.0629 10.9135 -1.53289
184 1 21.0087 12.5511 0.110242 21.0087 12.5511 0.110242
185 2 22.9142 12.5511 1.73658 22.9142 12.5511 1.73658
186 2 22.9061 12.551 -1.52554 22.9061 12.551 -1.52554
187 1 23.8608 10.9044 0.103273 23.8608 10.9044 0.103273
188 2 25.7723 10.8995 1.72242 25.7723 10.8995 1.72242
189 2 25.752 10.9092 -1.53964 25.752 10.9092 -1.53964
190 1 26.7128 12.551 0.0905004 26.7128 12.551 0.0905004
191 2 28.6317 12.555 1.70095 28.6317 12.555 1.70095
192 2 28.5965 12.547 -1.56099 28.5965 12.547 -1.56099
193 1 29.5647 10.9043 0.0638591 29.5647 10.9043 0.0638591
194 2 31.487 10.9023 1.67019 31.487 10.9023 1.67019
195 2 31.4447 10.9063 -1.5917 31.4447 10.9063 -1.5917
196 1 32.4164 12.551 0.0290297 32.4164 12.551 0.0290297
197 2 34.3412 12.5568 1.63241 34.3412 12.5568 1.63241
198 2 34.2939 12.5451 -1.62941 34.2939 12.5451 -1.62941
199 1 35.2681 10.9043 -0.00627303 35.2681 10.9043 -0.00627303
200 2 37.1922 10.9025 1.59787 37.1922 10.9025 1.59787
201 2 37.1461 10.9061 -1.664 37.1461 10.9061 -1.664
202 1 38.1197 12.5509 -0.0446118 38.1197 12.5509 -0.0446118
203 2 40.0404 12.5555 1.56354 40.0404 12.5555 1.56354
204 2 40.001 12.5463 -1.69842 40.001 12.5463 -1.69842
205 1 40.9713 10.9044 -0.0741248 40.9713 10.9044 -0.0741248
206 2 42.8878 10.9 1.53911 42.8878 10.9 1.53911
207 2 42.857 10.9088 -1.72296 42.857 10.9088 -1.72296
208 1 43.8229 12.551 -0.0963381 43.8229 12.551 -0.0963381
209 2 45.7319 12.5518 1.52579 45.7319 12.5518 1.52579
210 2 45.7162 12.5502 -1.7364 45.7162 12.5502 -1.7364
211 1 46.6746 10.9045 -0.108876 46.6746 10.9045 -0.108876
212 2 48.5777 10.8958 1.52025 48.5777 10.8958 1.52025
213 2 48.5739 10.9133 -1.74193 48.5739 10.9133 -1.74193
214 1 49.5263 12.5511 -0.103012 49.5263 12.5511 -0.103012
215 2 51.421 12.5475 1.53582 51.421 12.5475 1.53582
216 2 51.4338 12.5549 -1.72638 51.4338 12.5549 -1.72638
217 1 1.04638 14.1977 -0.0877115 1.04638 14.1977 -0.0877115
218 2 2.93396 14.1996 1.55938 2.93396 14.1996 1.55938
219 2 2.96101 14.1959 -1.70272 2.96101 14.1959 -1.70272
220 1 3.89797 15.8443 -0.0655282 3.89797 15.8443 -0.0655282
221 2 5.78065 15.8522 1.58715 5.78065 15.8522 1.58715
222 2 5.81745 15.8365 -1.67481 5.81745 15.8365 -1.67481
223 1 6.74959 14.1978 -0.0249676 6.74959 14.1978 -0.0249676
224 2 8.63128 14.1979 1.62886 8.63128 14.1979 1.62886
225 2 8.6701 14.1977 -1.6331 8.6701 14.1977 -1.6331
226 1 9.60117 15.8444 0.00924489 9.60117 15.8444 0.00924489
227 2 11.4837 15.8519 1.66204 11.4837 15.8519 1.66204
228 2 11.5209 15.8369 -1.59988 11.5209 15.8369 -1.59988
229 1 12.4529 14.1978 0.0496042 12.4529 14.1978 0.0496042
230 2 14.3388 14.1992 1.69857 14.3388 14.1992 1.69857
231 2 14.3694 14.1964 -1.56344 14.3694 14.1964 -1.56344
232 1 15.3047 15.8445 0.0752509 15.3047 15.8445 0.0752509
233 2 17.1971 15.8542 1.71672 17.1971 15.8542 1.71672
234 2 17.215 15.8346 -1.54531 17.215 15.8346 -1.54531
235 1 18.1567 14.1978 0.100858 18.1567 14.1978 0.100858
236 2 20.0556 14.2026 1.73486 20.0556 14.2026 1.73486
237 2 20.0606 14.1929 -1.52725 20.0606 14.1929 -1.52725
238 1 21.0087 15.8444 0.10046 21.0087 15.8444 0.10046
239 2 22.9165 15.8581 1.72403 22.9165 15.8581 1.72403
240 2 22.9038 15.8307 -1.53796 22.9038 15.8307 -1.53796
241 1 23.8608 14.1977 0.103215 23.8608 14.1977 0.103215
242 2 25.7747 14.2069 1.7195 25.7747 14.2069 1.7195
243 2 25.7495 14.1885 -1.54249 25.7495 14.1885 -1.54249
244 1 26.7128 15.8443 0.0719591 26.7128 15.8443 0.0719591
245 2 28.6334 15.8618 1.68011 28.6334 15.8618 1.68011
246 2 28.5945 15.8267 -1.58162 28.5945 15.8267 -1.58162
247 1 29.5646 14.1976 0.0557423 29.5646 14.1976 0.0557423
248 2 31.4883 14.21 1.66042 31.4883 14.21 1.66042
249 2 31.4433 14.1852 -1.60133 31.4433 14.1852 -1.60133
250 1 32.4163 15.8441 0.0040103 32.4163 15.8441 0.0040103
251 2 34.3414 15.8636 1.60683 34.3414 15.8636 1.60683
252 2 34.2933 15.8246 -1.65476 34.2933 15.8246 -1.65476
253 1 35.268 14.1975 -0.0181209 35.268 14.1975 -0.0181209
254 2 37.1917 14.2103 1.58644 37.1917 14.2103 1.58644
255 2 37.1464 14.1847 -1.67535 37.1464 14.1847 -1.67535
256 1 38.1195 15.844 -0.0705231 38.1195 15.844 -0.0705231
257 2 40.0389 15.8625 1.53914 40.0389 15.8625 1.53914
258 2 40.0022 15.8254 -1.72265 40.0022 15.8254 -1.72265
259 1 40.9712 14.1975 -0.083504 40.9712 14.1975 -0.083504
260 2 42.8858 14.2077 1.53201 42.8858 14.2077 1.53201
261 2 42.8588 14.1873 -1.73004 42.8588 14.1873 -1.73004
262 1 43.8228 15.844 -0.117138 43.8228 15.844 -0.117138
263 2 45.7293 15.8592 1.50794 45.7293 15.8592 1.50794
264 2 45.7186 15.8289 -1.75413 45.7186 15.8289 -1.75413
265 1 46.6746 14.1976 -0.110651 46.6746 14.1976 -0.110651
266 2 48.575 14.2035 1.52154 48.575 14.2035 1.52154
267 2 48.5764 14.1917 -1.74068 48.5764 14.1917 -1.74068
268 1 49.5262 15.8441 -0.115011 49.5262 15.8441 -0.115011
269 2 51.4184 15.8551 1.52683 51.4184 15.8551 1.52683
270 2 51.4364 15.8333 -1.73527 51.4364 15.8333 -1.73527
271 1 1.04634 17.4907 -0.109903 1.04634 17.4907 -0.109903
272 2 2.93159 17.5068 1.53979 2.93159 17.5068 1.53979
273 2 2.96329 17.4747 -1.72212 2.96329 17.4747 -1.72212
274 1 3.89798 19.1373 -0.0980369 3.89798 19.1373 -0.0980369
275 2 5.77882 19.1584 1.55662 5.77882 19.1584 1.55662
276 2 5.8193 19.1163 -1.70506 5.8193 19.1163 -1.70506
277 1 6.74955 17.4909 -0.040952 6.74955 17.4909 -0.040952
278 2 8.63035 17.5051 1.61381 8.63035 17.5051 1.61381
279 2 8.67094 17.4767 -1.64799 8.67094 17.4767 -1.64799
280 1 9.60119 19.1375 -0.0195151 9.60119 19.1375 -0.0195151
281 2 11.4834 19.1579 1.63355 11.4834 19.1579 1.63355
282 2 11.5213 19.1171 -1.62815 11.5213 19.1171 -1.62815
283 1 12.4529 17.4911 0.0344695 12.4529 17.4911 0.0344695
284 2 14.3396 17.506 1.68248 14.3396 17.506 1.68248
285 2 14.3687 17.476 -1.5794 14.3687 17.476 -1.5794
286 1 15.3048 19.1376 0.0449858 15.3048 19.1376 0.0449858
287 2 17.1981 19.1595 1.68519 17.1981 19.1595 1.68519
288 2 17.214 19.1157 -1.57663 17.214 19.1157 -1.57663
289 1 18.1567 17.4911 0.0811112 18.1567 17.4911 0.0811112
290 2 20.0573 17.5089 1.71292 20.0573 17.5089 1.71292
291 2 20.0588 17.4732 -1.54902 20.0588 17.4732 -1.54902
292 1 21.0088 19.1376 0.0644026 21.0088 19.1376 0.0644026
293 2 22.918 19.1623 1.68592 22.918 19.1623 1.68592
294 2 22.9021 19.1126 -1.57581 22.9021 19.1126 -1.57581
295 1 23.8608 17.491 0.075575 23.8608 17.491 0.075575
296 2 25.7766 17.5125 1.68941 25.7766 17.5125 1.68941
297 2 25.7475 17.4693 -1.57232 25.7475 17.4693 -1.57232
298 1 26.7127 19.1373 0.0282338 26.7127 19.1373 0.0282338
299 2 28.6346 19.1652 1.63465 28.6346 19.1652 1.63465
300 2 28.5931 19.1092 -1.62676 28.5931 19.1092 -1.62676
301 1 29.5645 17.4907 0.0201911 29.5645 17.4907 0.0201911
302 2 31.4891 17.5152 1.62352 31.4891 17.5152 1.62352
303 2 31.4421 17.4661 -1.63794 31.4421 17.4661 -1.63794
304 1 32.4161 19.137 -0.0457217 32.4161 19.137 -0.0457217
305 2 34.3412 19.1667 1.55684 34.3412 19.1667 1.55684
306 2 34.293 19.1072 -1.70444 34.293 19.1072 -1.70444
307 1 35.2678 17.4905 -0.0576583 35.2678 17.4905 -0.0576583
308 2 37.1909 17.5156 1.54749 37.1909 17.5156 1.54749
309 2 37.1468 17.4653 -1.71402 37.1468 17.4653 -1.71402
310 1 38.1193 19.1367 -0.121536 38.1193 19.1367 -0.121536
311 2 40.0373 19.166 1.48965 40.0373 19.166 1.48965
312 2 40.0035 19.1074 -1.77185 40.0035 19.1074 -1.77185
313 1 40.9711 17.4904 -0.121152 40.9711 17.4904 -0.121152
314 2 42.8835 17.5136 1.49672 42.8835 17.5136 1.49672
315 2 42.8608 17.4672 -1.76509 42.8608 17.4672 -1.76509
316 1 43.8227 19.1367 -0.164224 43.8227 19.1367 -0.164224
317 2 45.7267 19.1637 1.46363 45.7267 19.1637 1.46363
318 2 45.7211 19.1099 -1.79814 45.7211 19.1099 -1.79814
319 1 46.6745 17.4905 -0.141454 46.6745 17.4905 -0.141454
320 2 48.5721 17.5101 1.4939 48.5721 17.5101 1.4939
321 2 48.5792 17.4709 -1.76809 48.5792 17.4709 -1.76809
322 1 49.5262 19.137 -0.154795 49.5262 19.137 -0.154795
323 2 51.4156 19.1607 1.49002 51.4156 19.1607 1.49002
324 2 51.4391 19.1134 -1.77177 51.4391 19.1134 -1.77177
325 1 1.0464 20.7835 -0.157904 1.0464 20.7835 -0.157904
326 2 2.9293 20.8108 1.49431 2.9293 20.8108 1.49431
327 2 2.9657 20.7562 -1.76723 2.9657 20.7562 -1.76723
328 1 3.89811 22.4299 -0.153426 3.89811 22.4299 -0.153426
329 2 5.77704 22.4604 1.50322 5.77704 22.4604 1.50322
330 2 5.82132 22.3996 -1.7581 5.82132 22.3996 -1.7581
331 1 6.74962 20.7838 -0.0836406 6.74962 20.7838 -0.0836406
332 2 8.62909 20.8096 1.57247 8.62909 20.8096 1.57247
333 2 8.67233 20.7581 -1.68902 8.67233 20.7581 -1.68902
334 1 9.60131 22.4303 -0.0716539 9.60131 22.4303 -0.0716539
335 2 11.4826 22.4599 1.58226 11.4826 22.4599 1.58226
336 2 11.5223 22.4006 -1.67913 11.5223 22.4006 -1.67913
337 1 12.4529 20.784 -0.0068012 12.4529 20.784 -0.0068012
338 2 14.3396 20.8099 1.64104 14.3396 20.8099 1.64104
339 2 14.3687 20.7581 -1.62058 14.3687 20.7581 -1.62058
340 1 15.3048 22.4305 -0.00742477 15.3048 22.4305 -0.00742477
341 2 17.1982 22.4605 1.6325 17.1982 22.4605 1.6325
342 2 17.214 22.4002 -1.62907 17.214 22.4002 -1.62907
343 1 18.1567 20.7841 0.0368269 18.1567 20.7841 0.0368269
344 2 20.0583 20.8116 1.66738 20.0583 20.8116 1.66738
345 2 20.0579 20.7563 -1.59431 20.0579 20.7563 -1.59431
346 1 21.0087 22.4303 0.00846981 21.0087 22.4303 0.00846981
347 2 22.9186 22.4619 1.62908 22.9186 22.4619 1.62908
348 2 22.9014 22.3986 -1.63243 22.9014 22.3986 -1.63243
349 1 23.8607 20.7839 0.0252992 23.8607 20.7839 0.0252992
350 2 25.7777 20.8139 1.63758 25.7777 20.8139 1.63758
351 2 25.7462 20.7535 -1.62387 25.7462 20.7535 -1.62387
352 1 26.7125 22.43 -0.0328769 26.7125 22.43 -0.0328769
353 2 28.6349 22.4633 1.57276 28.6349 22.4633 1.57276
354 2 28.5923 22.3965 -1.68845 28.5923 22.3965 -1.68845
355 1 29.5643 20.7835 -0.0364751 29.5643 20.7835 -0.0364751
356 2 31.4894 20.8158 1.56607 31.4894 20.8158 1.56607
357 2 31.4414 20.751 -1.69511 31.4414 20.751 -1.69511
358 1 32.4158 22.4295 -0.111269 32.4158 22.4295 -0.111269
359 2 34.3407 22.4641 1.49142 34.3407 22.4641 1.49142
360 2 34.293 22.3948 -1.76967 34.293 22.3948 -1.76967
361 1 35.2676 20.7831 -0.117934 35.2676 20.7831 -0.117934
362 2 37.1899 20.8162 1.48791 37.1899 20.8162 1.48791
363 2 37.1474 20.75 -1.77333 37.1474 20.75 -1.77333
364 1 38.1191 22.4292 -0.188603 38.1191 22.4292 -0.188603
365 2 40.0359 22.4641 1.42389 40.0359 22.4641 1.42389
366 2 40.0046 22.3944 -1.83741 40.0046 22.3944 -1.83741
367 1 40.9709 20.783 -0.180555 40.9709 20.783 -0.180555
368 2 42.8815 20.8151 1.43938 42.8815 20.8151 1.43938
369 2 42.8627 20.7509 -1.82213 42.8627 20.7509 -1.82213
370 1 43.8226 22.4292 -0.229324 43.8226 22.4292 -0.229324
371 2 45.7246 22.4632 1.40073 45.7246 22.4632 1.40073
372 2 45.7231 22.3954 -1.86076 45.7231 22.3954 -1.86076
373 1 46.6745 20.7831 -0.196054 46.6745 20.7831 -0.196054
374 2 48.5696 20.8131 1.44208 48.5696 20.8131 1.44208
375 2 48.5818 20.7533 -1.81956 48.5818 20.7533 -1.81956
376 1 49.5263 22.4295 -0.215358 49.5263 22.4295 -0.215358
377 2 51.4134 22.4617 1.43197 51.4134 22.4617 1.43197
378 2 51.4415 22.3975 -1.82948 51.4415 22.3975 -1.82948
379 1 1.04655 24.0759 -0.223017 1.04655 24.0759 -0.223017
380 2 2.9275 24.1097 1.43128 2.9275 24.1097 1.43128
381 2 2.96781 24.0424 -1.82996 2.96781 24.0424 -1.82996
382 1 3.89832 25.7224 -0.221597 3.89832 25.7224 -0.221597
383 2 5.77569 25.7568 1.4367 5.77569 25.7568 1.4367
384 2 5.82307 25.6882 -1.82442 5.82307 25.6882 -1.82442
385 1 6.7498 24.0764 -0.145262 6.7498 24.0764 -0.145262
386 2 8.62779 24.1091 1.51236 8.62779 24.1091 1.51236
387 2 8.67396 24.0438 -1.74884 8.67396 24.0438 -1.74884
388 1 9.60152 25.7228 -0.137808 9.60152 25.7228 -0.137808
389 2 11.4816 25.7565 1.51738 11.4816 25.7565 1.51738
390 2 11.5237 25.6891 -1.74384 11.5237 25.6891 -1.74384
391 1 12.4531 24.0767 -0.0668211 12.4531 24.0767 -0.0668211
392 2 14.339 24.1089 1.58168 14.339 24.1089 1.58168
393 2 14.3696 24.0444 -1.67972 14.3696 24.0444 -1.67972
394 1 15.3049 25.723 -0.0727866 15.3049 25.723 -0.0727866
395 2 17.1975 25.7561 1.56793 17.1975 25.7561 1.56793
396 2 17.2148 25.6897 -1.69354 17.2148 25.6897 -1.69354
397 1 18.1568 24.0767 -0.0241988 18.1568 24.0767 -0.0241988
398 2 20.0582 24.1092 1.60631 20.0582 24.1092 1.60631
399 2 20.058 24.044 -1.65521 20.058 24.044 -1.65521
400 1 21.0087 25.7229 -0.05757 21.0087 25.7229 -0.05757
401 2 22.9181 25.7556 1.56352 22.9181 25.7556 1.56352
402 2 22.9018 25.6898 -1.69797 22.9018 25.6898 -1.69797
403 1 23.8606 24.0764 -0.0387288 23.8606 24.0764 -0.0387288
404 2 25.7777 24.1097 1.57326 25.7777 24.1097 1.57326
405 2 25.746 24.0429 -1.68808 25.746 24.0429 -1.68808
406 1 26.7124 25.7224 -0.100561 26.7124 25.7224 -0.100561
407 2 28.6344 25.7553 1.50546 28.6344 25.7553 1.50546
408 2 28.5925 25.6894 -1.75579 28.5925 25.6894 -1.75579
409 1 29.5641 24.076 -0.104111 29.5641 24.076 -0.104111
410 2 31.4891 24.1103 1.49844 31.4891 24.1103 1.49844
411 2 31.4413 24.0415 -1.76266 31.4413 24.0415 -1.76266
412 1 32.4156 25.7219 -0.180905 32.4156 25.7219 -0.180905
413 2 34.34 25.7553 1.42232 34.34 25.7553 1.42232
414 2 34.2933 25.6885 -1.83884 34.2933 25.6885 -1.83884
415 1 35.2673 24.0755 -0.188127 35.2673 24.0755 -0.188127
416 2 37.189 24.1106 1.41844 37.189 24.1106 1.41844
417 2 37.1478 24.0404 -1.84272 37.1478 24.0404 -1.84272
418 1 38.1189 25.7216 -0.259685 38.1189 25.7216 -0.259685
419 2 40.0349 25.7558 1.3537 40.0349 25.7558 1.3537
420 2 40.0052 25.6876 -1.90763 40.0052 25.6876 -1.90763
421 1 40.9707 24.0754 -0.2511 40.9707 24.0754 -0.2511
422 2 42.88 24.1107 1.37032 42.88 24.1107 1.37032
423 2 42.8639 24.0402 -1.89106 42.8639 24.0402 -1.89106
424 1 43.8226 25.7216 -0.300712 43.8226 25.7216 -0.300712
425 2 45.7234 25.7564 1.33064 45.7234 25.7564 1.33064
426 2 45.7243 25.6871 -1.93079 45.7243 25.6871 -1.93079
427 1 46.6745 24.0755 -0.264678 46.6745 24.0755 -0.264678
428 2 48.5678 24.1103 1.37547 48.5678 24.1103 1.37547
429 2 48.5837 24.0409 -1.88594 48.5837 24.0409 -1.88594
430 1 49.5264 25.7219 -0.285689 49.5264 25.7219 -0.285689
431 2 51.412 25.7568 1.3633 51.412 25.7568 1.3633
432 2 51.4432 25.6873 -1.89799 51.4432 25.6873 -1.89799
433 1 1.04673 27.3684 -0.29339 1.04673 27.3684 -0.29339
434 2 2.92655 27.4024 1.36217 2.92655 27.4024 1.36217
435 2 2.96917 27.3345 -1.89902 2.96917 27.3345 -1.89902
436 1 3.89855 29.0148 -0.290351 3.89855 29.0148 -0.290351
437 2 5.77508 29.0471 1.36892 5.77508 29.0471 1.36892
438 2 5.82417 28.9827 -1.89225 5.82417 28.9827 -1.89225
439 1 6.75005 27.3688 -0.214749 6.75005 27.3688 -0.214749
440 2 8.62674 27.4027 1.44426 8.62674 27.4027 1.44426
441 2 8.67546 27.335 -1.81686 8.67546 27.335 -1.81686
442 1 9.60176 29.0153 -0.206378 9.60176 29.0153 -0.206378
443 2 11.4805 29.0472 1.45023 11.4805 29.0472 1.45023
444 2 11.5251 28.9833 -1.81103 11.5251 28.9833 -1.81103
445 1 12.4533 27.3692 -0.135064 12.4533 27.3692 -0.135064
446 2 14.3379 27.4022 1.51478 14.3379 27.4022 1.51478
447 2 14.3709 27.336 -1.74658 14.3709 27.336 -1.74658
448 1 15.3051 29.0154 -0.139858 15.3051 29.0154 -0.139858
449 2 17.1962 29.046 1.50258 17.1962 29.046 1.50258
450 2 17.2164 28.9848 -1.75899 17.2164 28.9848 -1.75899
451 1 18.1568 27.3692 -0.0914083 18.1568 27.3692 -0.0914083
452 2 20.0571 27.4011 1.54034 20.0571 27.4011 1.54034
453 2 20.0591 27.3371 -1.72123 20.0591 27.3371 -1.72123
454 1 21.0087 29.0153 -0.122352 21.0087 29.0153 -0.122352
455 2 22.9165 29.0437 1.50056 22.9165 29.0437 1.50056
456 2 22.9033 28.9867 -1.76113 22.9033 28.9867 -1.76113
457 1 23.8605 27.3689 -0.105343 23.8605 27.3689 -0.105343
458 2 25.7767 27.3996 1.50774 25.7767 27.3996 1.50774
459 2 25.7467 27.3379 -1.75374 25.7467 27.3379 -1.75374
460 1 26.7122 29.0149 -0.163085 26.7122 29.0149 -0.163085
461 2 28.633 29.0417 1.44444 28.633 29.0417 1.44444
462 2 28.5936 28.988 -1.81709 28.5936 28.988 -1.81709
463 1 29.5639 27.3684 -0.170791 29.5639 27.3684 -0.170791
464 2 31.4882 27.3988 1.43259 31.4882 27.3988 1.43259
465 2 31.4417 27.338 -1.8287 31.4417 27.338 -1.8287
466 1 32.4154 29.0145 -0.242469 32.4154 29.0145 -0.242469
467 2 34.3392 29.0409 1.36161 34.3392 29.0409 1.36161
468 2 34.2938 28.9881 -1.89983 34.2938 28.9881 -1.89983
469 1 35.2671 27.368 -0.255749 35.2671 27.368 -0.255749
470 2 37.1883 27.3989 1.35146 37.1883 27.3989 1.35146
471 2 37.1482 27.3371 -1.90988 37.1482 27.3371 -1.90988
472 1 38.1187 29.0142 -0.322226 38.1187 29.0142 -0.322226
473 2 40.0345 29.0417 1.2915 40.0345 29.0417 1.2915
474 2 40.0054 28.9869 -1.97007 40.0054 28.9869 -1.97007
475 1 40.9706 27.3678 -0.32013 40.9706 27.3678 -0.32013
476 2 42.8794 27.4 1.30196 42.8794 27.4 1.30196
477 2 42.8644 27.3359 -1.95954 42.8644 27.3359 -1.95954
478 1 43.8225 29.0142 -0.365601 43.8225 29.0142 -0.365601
479 2 45.7233 29.0436 1.26595 45.7233 29.0436 1.26595
480 2 45.7244 28.985 -1.99567 45.7244 28.985 -1.99567
481 1 46.6745 27.368 -0.334881 46.6745 27.368 -0.334881
482 2 48.567 27.4014 1.30619 48.567 27.4014 1.30619
483 2 48.5846 27.3348 -1.95524 48.5846 27.3348 -1.95524
484 1 49.5265 29.0144 -0.353075 49.5265 29.0144 -0.353075
485 2 51.4117 29.0458 1.2964 51.4117 29.0458 1.2964
486 2 51.4438 28.9834 -1.96501 51.4438 28.9834 -1.96501
487 1 1.0469 30.661 -0.356539 1.0469 30.661 -0.356539
488 2 2.92667 30.6895 1.29917 2.92667 30.6895 1.29917
489 2 2.96946 30.6327 -1.96222 2.96946 30.6327 -1.96222
490 1 3.89876 32.3076 -0.347794 3.89876 32.3076 -0.347794
491 2 5.77532 32.3323 1.31154 5.77532 32.3323 1.31154
492 2 5.82438 32.283 -1.94988 5.82438 32.283 -1.94988
493 1 6.7503 30.6614 -0.279968 6.7503 30.6614 -0.279968
494 2 8.62619 30.6907 1.38 8.62619 30.6907 1.38
495 2 8.67651 30.6322 -1.88127 8.67651 30.6322 -1.88127
496 1 9.60201 32.3079 -0.265632 9.60201 32.3079 -0.265632
497 2 11.4797 32.3327 1.39225 11.4797 32.3327 1.39225
498 2 11.5264 32.2831 -1.86923 11.5264 32.2831 -1.86923
499 1 12.4535 30.6617 -0.199815 12.4535 30.6617 -0.199815
500 2 14.3366 30.69 1.45179 14.3366 30.69 1.45179
501 2 14.3726 30.6333 -1.80972 14.3726 30.6333 -1.80972
502 1 15.3052 32.308 -0.19726 15.3052 32.308 -0.19726
503 2 17.1943 32.3308 1.44753 17.1943 32.3308 1.44753
504 2 17.2185 32.2852 -1.81428 17.2185 32.2852 -1.81428
505 1 18.1569 30.6617 -0.153351 18.1569 30.6617 -0.153351
506 2 20.0552 30.6875 1.48071 20.0552 30.6875 1.48071
507 2 20.061 30.6357 -1.78109 20.061 30.6357 -1.78109
508 1 21.0087 32.3079 -0.174897 21.0087 32.3079 -0.174897
509 2 22.9142 32.3272 1.45084 22.9142 32.3272 1.45084
510 2 22.9056 32.2885 -1.81115 22.9056 32.2885 -1.81115
511 1 23.8605 30.6615 -0.163155 23.8605 30.6615 -0.163155
512 2 25.7747 30.6845 1.45219 25.7747 30.6845 1.45219
513 2 25.7485 30.6383 -1.8096 25.7485 30.6383 -1.8096
514 1 26.7122 32.3077 -0.209881 26.7122 32.3077 -0.209881
515 2 28.6311 32.3238 1.39994 28.6311 32.3238 1.39994
516 2 28.5954 32.2914 -1.86192 28.5954 32.2914 -1.86192
517 1 29.5638 30.6611 -0.225106 29.5638 30.6611 -0.225106
518 2 31.4869 30.6823 1.37976 31.4869 30.6823 1.37976
519 2 31.4428 30.6398 -1.88186 31.4428 30.6398 -1.88186
520 1 32.4153 32.3074 -0.285593 32.4153 32.3074 -0.285593
521 2 34.3384 32.3224 1.3195 34.3384 32.3224 1.3195
522 2 34.2945 32.2924 -1.94225 34.2945 32.2924 -1.94225
523 1 35.267 30.6608 -0.309143 35.267 30.6608 -0.309143
524 2 37.1879 30.6822 1.29853 37.1879 30.6822 1.29853
525 2 37.1484 30.6394 -1.96312 37.1484 30.6394 -1.96312
526 1 38.1186 32.3072 -0.365588 38.1186 32.3072 -0.365588
527 2 40.0348 32.3234 1.24788 40.0348 32.3234 1.24788
528 2 40.005 32.2912 -2.01398 40.005 32.2912 -2.01398
529 1 40.9705 30.6606 -0.37556 40.9705 30.6606 -0.37556
530 2 42.8796 30.684 1.24628 42.8796 30.684 1.24628
531 2 42.8641 30.6374 -2.0155 42.8641 30.6374 -2.0155
532 1 43.8225 32.3072 -0.412764 43.8225 32.3072 -0.412764
533 2 45.7242 32.3262 1.21783 45.7242 32.3262 1.21783
534 2 45.7235 32.2883 -2.04408 45.7235 32.2883 -2.04408
535 1 46.6745 30.6607 -0.394187 46.6745 30.6607 -0.394187
536 2 48.5675 30.6869 1.24653 48.5675 30.6869 1.24653
537 2 48.5843 30.6348 -2.01515 48.5843 30.6348 -2.01515