ITEM: TIMESTEP
20000
ITEM: NUMBER OF ATOMS
810
ITEM: BOX BOUNDS pp pp pp
8.4478355219264689e-01 5.2172821447806854e+01
8.1443381770805701e-01 5.0201781182290894e+01
-1.0000000000000000e+01 1.0000000000000000e+01
ITEM: ATOMS id type x y z xu yu zu
1 1 1.04867 1.02807 -0.302559 1.04867 1.02807 -0.302559
2 2 2.92053 1.07256 1.36182 2.92053 1.07256 1.36182
3 2 2.97872 0.983839 -1.89863 2.97872 0.983839 -1.89863
4 1 3.90029 2.67435 -0.296295 3.90029 2.67435 -0.296295
5 2 5.76669 2.71841 1.37415 5.76669 2.71841 1.37415
6 2 5.83558 2.63055 -1.88611 5.83558 2.63055 -1.88611
7 1 6.75134 1.0288 -0.191389 6.75134 1.0288 -0.191389
8 2 8.61758 1.07374 1.47914 8.61758 1.07374 1.47914
9 2 8.68671 0.984015 -1.78107 8.68671 0.984015 -1.78107
10 1 9.60277 2.67505 -0.176217 9.60277 2.67505 -0.176217
11 2 11.4725 2.71951 1.49033 11.4725 2.71951 1.49033
12 2 11.5348 2.63068 -1.77006 11.5348 2.63068 -1.77006
13 1 12.4539 1.02941 -0.0767266 12.4539 1.02941 -0.0767266
14 2 14.3318 1.07464 1.58046 14.3318 1.07464 1.58046
15 2 14.3781 0.984118 -1.68013 14.3781 0.984118 -1.68013
16 1 15.3056 2.67545 -0.082225 15.3056 2.67545 -0.082225
17 2 17.1931 2.71967 1.56399 17.1931 2.71967 1.56399
18 2 17.2204 2.63109 -1.6969 17.2204 2.63109 -1.6969
19 1 18.1572 1.02958 -0.0136956 18.1572 1.02958 -0.0136956
20 2 20.0566 1.07501 1.61873 20.0566 1.07501 1.61873
21 2 20.0603 0.983931 -1.64218 20.0603 0.983931 -1.64218
22 1 21.0091 2.67536 -0.0568272 21.0091 2.67536 -0.0568272
23 2 22.9187 2.719 1.5635 22.9187 2.719 1.5635
24 2 22.9018 2.6315 -1.69749 22.9018 2.6315 -1.69749
25 1 23.8609 1.02929 -0.0277333 23.8609 1.02929 -0.0277333
26 2 25.7811 1.07465 1.58016 25.7811 1.07465 1.58016
27 2 25.743 0.983698 -1.68054 25.743 0.983698 -1.68054
28 1 26.7124 2.67491 -0.107445 26.7124 2.67491 -0.107445
29 2 28.6393 2.71779 1.49234 28.6393 2.71779 1.49234
30 2 28.5874 2.63189 -1.76832 28.5874 2.63189 -1.76832
31 1 29.564 1.02873 -0.109725 29.564 1.02873 -0.109725
32 2 31.4965 1.0736 1.48335 31.4965 1.0736 1.48335
33 2 31.4332 0.983733 -1.77698 31.4332 0.983733 -1.77698
34 1 32.4151 2.67434 -0.210851 32.4151 2.67434 -0.210851
35 2 34.3482 2.71651 1.38164 34.3482 2.71651 1.38164
36 2 34.2837 2.63214 -1.87882 34.2837 2.63214 -1.87882
37 1 35.2666 1.02812 -0.224713 35.2666 1.02812 -0.224713
38 2 37.1981 1.0723 1.36974 37.1981 1.0723 1.36974
39 2 37.1369 0.983918 -1.89067 37.1369 0.983918 -1.89067
40 1 38.1177 2.67383 -0.3231 38.1177 2.67383 -0.3231
41 2 40.0425 2.71569 1.27967 40.0425 2.71569 1.27967
42 2 39.9952 2.63204 -1.98107 39.9952 2.63204 -1.98107
43 1 40.9695 1.02768 -0.322161 40.9695 1.02768 -0.322161
44 2 42.8855 1.07149 1.29103 42.8855 1.07149 1.29103
45 2 42.8558 0.983962 -1.96983 42.8558 0.983962 -1.96983
46 1 43.8212 2.67358 -0.39237 43.8212 2.67358 -0.39237
47 2 45.7252 2.71582 1.23512 45.7252 2.71582 1.23512
48 2 45.7198 2.63152 -2.02594 45.7198 2.63152 -2.02594
49 1 46.6732 1.02763 -0.354306 46.6732 1.02763 -0.354306
50 2 48.5654 1.07164 1.28694 48.5654 1.07164 1.28694
51 2 48.5835 0.983845 -1.974 48.5835 0.983845 -1.974
52 1 49.5251 2.67376 -0.382635 49.5251 2.67376 -0.382635
53 2 51.4055 2.71691 1.27214 51.4055 2.71691 1.27214
54 2 51.447 2.63088 -1.98862 51.447 2.63088 -1.98862
55 1 1.04897 4.32006 -0.389667 1.04897 4.32006 -0.389667
56 2 2.92027 4.36094 1.27542 2.92027 4.36094 1.27542
57 2 2.97968 4.27945 -1.98517 2.97968 4.27945 -1.98517
58 1 3.90067 5.96649 -0.378807 3.90067 5.96649 -0.378807
59 2 5.76662 6.00348 1.29227 5.76662 6.00348 1.29227
60 2 5.83645 5.92973 -1.96831 5.83645 5.92973 -1.96831
61 1 6.75178 4.32069 -0.280361 6.75178 4.32069 -0.280361
62 2 8.61718 4.36248 1.39113 8.61718 4.36248 1.39113
63 2 8.68798 4.2791 -1.86922 8.68798 4.2791 -1.86922
64 1 9.6032 5.96705 -0.260668 9.6032 5.96705 -0.260668
65 2 11.4718 6.00437 1.40719 11.4718 6.00437 1.40719
66 2 11.5363 5.92983 -1.85353 11.5363 5.92983 -1.85353
67 1 12.4543 4.32124 -0.166704 12.4543 4.32124 -0.166704
68 2 14.3309 4.36282 1.49193 14.3309 4.36282 1.49193
69 2 14.3796 4.27965 -1.76885 14.3796 4.27965 -1.76885
70 1 15.3059 5.96736 -0.166495 15.3059 5.96736 -0.166495
71 2 17.1916 6.00347 1.48179 17.1916 6.00347 1.48179
72 2 17.2223 5.93119 -1.77951 17.2223 5.93119 -1.77951
73 1 18.1574 4.32137 -0.10343 18.1574 4.32137 -0.10343
74 2 20.0551 4.36187 1.53083 20.0551 4.36187 1.53083
75 2 20.0619 4.28072 -1.73038 20.0619 4.28072 -1.73038
76 1 21.0091 5.96727 -0.139049 21.0091 5.96727 -0.139049
77 2 22.9168 6.00147 1.48367 22.9168 6.00147 1.48367
78 2 22.9036 5.93295 -1.77783 22.9036 5.93295 -1.77783
79 1 23.8607 4.32109 -0.11637 23.8607 4.32109 -0.11637
80 2 25.7792 4.36029 1.49359 25.7792 4.36029 1.49359
81 2 25.7444 4.28175 -1.7675 25.7444 4.28175 -1.7675
82 1 26.7122 5.96692 -0.187025 26.7122 5.96692 -0.187025
83 2 28.6373 5.99954 1.41504 28.6373 5.99954 1.41504
84 2 28.5889 5.93423 -1.84617 28.5889 5.93423 -1.84617
85 1 29.5636 4.32061 -0.196752 29.5636 4.32061 -0.196752
86 2 31.4945 4.35881 1.3984 31.4945 4.35881 1.3984
87 2 31.4345 4.28236 -1.86235 31.4345 4.28236 -1.86235
88 1 32.4147 5.96649 -0.288309 32.4147 5.96649 -0.288309
89 2 34.3464 5.99843 1.30604 34.3464 5.99843 1.30604
90 2 34.2848 5.93457 -1.95494 34.2848 5.93457 -1.95494
91 1 35.2662 4.32011 -0.310192 35.2662 4.32011 -0.310192
92 2 37.1963 4.35793 1.28607 37.1963 4.35793 1.28607
93 2 37.138 4.28233 -1.97469 37.138 4.28233 -1.97469
94 1 38.1174 5.96611 -0.399673 38.1174 5.96611 -0.399673
95 2 40.0413 5.9984 1.20438 40.0413 5.9984 1.20438
96 2 39.9959 5.93393 -2.0568 39.9959 5.93393 -2.0568
97 1 40.9692 4.31975 -0.406878 40.9692 4.31975 -0.406878
98 2 42.8843 4.358 1.20761 42.8843 4.358 1.20761
99 2 42.8567 4.28163 -2.05351 42.8567 4.28163 -2.05351
100 1 43.8211 5.96592 -0.4697 43.8211 5.96592 -0.4697
101 2 45.7247 5.99951 1.15848 45.7247 5.99951 1.15848
102 2 45.7203 5.9325 -2.10294 45.7203 5.9325 -2.10294
103 1 46.6732 4.3197 -0.439664 46.6732 4.3197 -0.439664
104 2 48.5648 4.35915 1.20242 48.5648 4.35915 1.20242
105 2 48.5843 4.28048 -2.05871 48.5843 4.28048 -2.05871
106 1 49.5253 5.96604 -0.462284 49.5253 5.96604 -0.462284
107 2 51.4055 6.00147 1.1929 51.4055 6.00147 1.1929
108 2 51.4475 5.93085 -2.06819 51.4475 5.93085 -2.06819
109 1 1.04921 7.61256 -0.46116 1.04921 7.61256 -0.46116
110 2 2.92057 7.64265 1.20409 2.92057 7.64265 1.20409
111 2 2.97998 7.58268 -2.05695 2.97998 7.58268 -2.05695
112 1 3.90096 9.25919 -0.439522 3.90096 9.25919 -0.439522
113 2 5.76699 9.28252 1.2317 5.76699 9.28252 1.2317
114 2 5.83674 9.23603 -2.02937 5.83674 9.23603 -2.02937
115 1 6.75218 7.613 -0.355051 6.75218 7.613 -0.355051
116 2 8.617 7.64425 1.31727 8.617 7.64425 1.31727
117 2 8.68895 7.58192 -1.94352 8.68895 7.58192 -1.94352
118 1 9.60357 9.25953 -0.323803 9.60357 9.25953 -0.323803
119 2 11.4712 9.28303 1.34538 11.4712 9.28303 1.34538
120 2 11.5376 9.23613 -1.91582 11.5376 9.23613 -1.91582
121 1 12.4546 7.61339 -0.24223 12.4546 7.61339 -0.24223
122 2 14.3297 7.64387 1.41833 14.3297 7.64387 1.41833
123 2 14.3814 7.58294 -1.84293 14.3814 7.58294 -1.84293
124 1 15.3061 9.25972 -0.228262 15.3061 9.25972 -0.228262
125 2 17.1898 9.28116 1.42253 17.1898 9.28116 1.42253
126 2 17.2244 9.23825 -1.83927 17.2244 9.23825 -1.83927
127 1 18.1575 7.61348 -0.176685 18.1575 7.61348 -0.176685
128 2 20.0531 7.64168 1.4602 20.0531 7.64168 1.4602
129 2 20.064 7.58518 -1.80156 20.064 7.58518 -1.80156
130 1 21.0091 9.25964 -0.196337 21.0091 9.25964 -0.196337
131 2 22.9146 9.27815 1.42917 22.9146 9.27815 1.42917
132 2 22.9057 9.24105 -1.83288 22.9057 9.24105 -1.83288
133 1 23.8606 7.61326 -0.185806 23.8606 7.61326 -0.185806
134 2 25.777 7.63916 1.42671 25.777 7.63916 1.42671
135 2 25.7462 7.58729 -1.83499 25.7462 7.58729 -1.83499
136 1 26.712 9.25941 -0.239595 26.712 9.25941 -0.239595
137 2 28.6355 9.27584 1.36463 28.6355 9.27584 1.36463
138 2 28.5904 9.24295 -1.89713 28.5904 9.24295 -1.89713
139 1 29.5634 7.61293 -0.262923 29.5634 7.61293 -0.262923
140 2 31.4928 7.63756 1.3342 31.4928 7.63756 1.3342
141 2 31.4357 7.5883 -1.92714 31.4357 7.5883 -1.92714
142 1 32.4146 9.25917 -0.338211 32.4146 9.25917 -0.338211
143 2 34.3453 9.27508 1.25737 34.3453 9.27508 1.25737
144 2 34.2855 9.2433 -2.0041 34.2855 9.2433 -2.0041
145 1 35.2659 7.61261 -0.374884 35.2659 7.61261 -0.374884
146 2 37.1951 7.63729 1.22262 37.1951 7.63729 1.22262
147 2 37.1386 7.588 -2.03867 37.1386 7.588 -2.03867
148 1 38.1173 9.25898 -0.449582 38.1173 9.25898 -0.449582
149 2 40.0409 9.27585 1.15487 40.0409 9.27585 1.15487
150 2 39.996 9.24219 -2.10676 39.996 9.24219 -2.10676
151 1 40.9691 7.61238 -0.472161 40.9691 7.61238 -0.472161
152 2 42.8839 7.63828 1.14288 42.8839 7.63828 1.14288
153 2 42.8569 7.58659 -2.11871 42.8569 7.58659 -2.11871
154 1 43.821 9.25888 -0.522023 43.821 9.25888 -0.522023
155 2 45.725 9.27778 1.10595 45.725 9.27778 1.10595
156 2 45.7199 9.2401 -2.15591 45.7199 9.2401 -2.15591
157 1 46.6732 7.61233 -0.50749 46.6732 7.61233 -0.50749
158 2 48.5649 7.64028 1.13469 48.5649 7.64028 1.13469
159 2 48.5843 7.58455 -2.12687 48.5843 7.58455 -2.12687
160 1 49.5254 9.25894 -0.518684 49.5254 9.25894 -0.518684
161 2 51.4061 9.28031 1.13615 51.4061 9.28031 1.13615
162 2 51.4472 9.23771 -2.12541 51.4472 9.23771 -2.12541
163 1 1.04936 10.9057 -0.504261 1.04936 10.9057 -0.504261
164 2 2.92141 10.9195 1.1604 2.92141 10.9195 1.1604
165 2 2.97953 10.8919 -2.10107 2.97953 10.8919 -2.10107
166 1 3.90112 12.5524 -0.467442 3.90112 12.5524 -0.467442
167 2 5.76775 12.5578 1.20324 5.76775 12.5578 1.20324
168 2 5.83635 12.5471 -2.05816 5.83635 12.5471 -2.05816
169 1 6.75247 10.9059 -0.402132 6.75247 10.9059 -0.402132
170 2 8.61708 10.9209 1.27062 8.61708 10.9209 1.27062
171 2 8.68946 10.8909 -1.99062 8.68946 10.8909 -1.99062
172 1 9.6038 12.5525 -0.354243 9.6038 12.5525 -0.354243
173 2 11.4707 12.5579 1.31586 11.4707 12.5579 1.31586
174 2 11.5385 12.5471 -1.94563 11.5385 12.5471 -1.94563
175 1 12.4549 10.906 -0.289764 12.4549 10.906 -0.289764
176 2 14.3284 10.9199 1.37271 14.3284 10.9199 1.37271
177 2 14.3831 10.8922 -1.88896 14.3831 10.8922 -1.88896
178 1 15.3063 12.5525 -0.256449 15.3063 12.5525 -0.256449
179 2 17.188 12.5555 1.39667 17.188 12.5555 1.39667
180 2 17.2264 12.5495 -1.86536 17.2264 12.5495 -1.86536
181 1 18.1576 10.9061 -0.220223 18.1576 10.9061 -0.220223
182 2 20.051 10.9169 1.41943 20.051 10.9169 1.41943
183 2 20.0663 10.8951 -1.84274 20.0663 10.8951 -1.84274
184 1 21.0092 12.5524 -0.218436 21.0092 12.5524 -0.218436
185 2 22.9125 12.552 1.40959 22.9125 12.552 1.40959
186 2 22.9079 12.5527 -1.85269 22.9079 12.5527 -1.85269
187 1 23.8606 10.9059 -0.223442 23.8606 10.9059 -0.223442
188 2 25.7751 10.9138 1.39147 25.7751 10.9138 1.39147
189 2 25.7481 10.8979 -1.87065 25.7481 10.8979 -1.87065
190 1 26.7121 12.5523 -0.255751 26.7121 12.5523 -0.255751
191 2 28.6343 12.5496 1.35002 28.6343 12.5496 1.35002
192 2 28.5917 12.5549 -1.91195 28.5917 12.5549 -1.91195
193 1 29.5633 10.9057 -0.296253 29.5633 10.9057 -0.296253
194 2 31.4917 10.9123 1.30221 31.4917 10.9123 1.30221
195 2 31.4367 10.8991 -1.95952 31.4367 10.8991 -1.95952
196 1 32.4146 12.5522 -0.351537 32.4146 12.5522 -0.351537
197 2 34.3452 12.5492 1.24435 34.3452 12.5492 1.24435
198 2 34.2858 12.5553 -2.01729 34.2858 12.5553 -2.01729
199 1 35.2658 10.9056 -0.40706 35.2658 10.9056 -0.40706
200 2 37.1949 10.9126 1.19074 37.1949 10.9126 1.19074
201 2 37.1387 10.8987 -2.0709 37.1387 10.8987 -2.0709
202 1 38.1173 12.5522 -0.463695 38.1173 12.5522 -0.463695
203 2 40.0416 12.5506 1.14006 40.0416 12.5506 1.14006
204 2 39.9953 12.554 -2.12172 39.9953 12.554 -2.12172
205 1 40.969 10.9056 -0.506212 40.969 10.9056 -0.506212
206 2 42.8843 10.9144 1.10835 42.8843 10.9144 1.10835
207 2 42.8563 10.8968 -2.15357 42.8563 10.8968 -2.15357
208 1 43.821 12.5523 -0.53977 43.821 12.5523 -0.53977
209 2 45.7261 12.553 1.087 45.7261 12.553 1.087
210 2 45.7188 12.5516 -2.17506 45.7188 12.5516 -2.17506
211 1 46.6732 10.9056 -0.545606 46.6732 10.9056 -0.545606
212 2 48.5658 10.9169 1.09576 48.5658 10.9169 1.09576
213 2 48.5835 10.8943 -2.16618 48.5835 10.8943 -2.16618
214 1 49.5254 12.5523 -0.541558 49.5254 12.5523 -0.541558
215 2 51.4073 12.5557 1.11206 51.4073 12.5557 1.11206
216 2 51.4462 12.549 -2.14978 51.4462 12.549 -2.14978
217 1 1.04939 14.1991 -0.510997 1.04939 14.1991 -0.510997
218 2 2.92271 14.1941 1.1523 2.92271 14.1941 1.1523
219 2 2.97837 14.2041 -2.10932 2.97837 14.2041 -2.10932
220 1 3.90113 15.8457 -0.457322 3.90113 15.8457 -0.457322
221 2 5.76886 15.8322 1.2121 5.76886 15.8322 1.2121
222 2 5.83531 15.8592 -2.04926 5.83531 15.8592 -2.04926
223 1 6.7526 14.1991 -0.413006 6.7526 14.1991 -0.413006
224 2 8.61748 14.1952 1.25951 8.61748 14.1952 1.25951
225 2 8.68934 14.2029 -2.00187 8.68934 14.2029 -2.00187
226 1 9.60386 15.8456 -0.346469 9.60386 15.8456 -0.346469
227 2 11.4706 15.8321 1.32382 11.4706 15.8321 1.32382
228 2 11.5387 15.8591 -1.93757 11.5387 15.8591 -1.93757
229 1 12.4551 14.199 -0.300796 12.4551 14.199 -0.300796
230 2 14.3274 14.1939 1.36308 14.3274 14.1939 1.36308
231 2 14.3844 14.2041 -1.89866 14.3844 14.2041 -1.89866
232 1 15.3064 15.8454 -0.246226 15.3064 15.8454 -0.246226
233 2 17.1866 15.8296 1.40851 17.1866 15.8296 1.40851
234 2 17.2279 15.8611 -1.85334 17.2279 15.8611 -1.85334
235 1 18.1577 14.1989 -0.226432 18.1577 14.1989 -0.226432
236 2 20.0491 14.1906 1.41554 20.0491 14.1906 1.41554
237 2 20.0683 14.2071 -1.84665 20.0683 14.2071 -1.84665
238 1 21.0093 15.8452 -0.201834 21.0093 15.8452 -0.201834
239 2 22.9111 15.8262 1.42796 22.9111 15.8262 1.42796
240 2 22.9095 15.864 -1.83409 22.9095 15.864 -1.83409
241 1 23.8607 14.1987 -0.222792 23.8607 14.1987 -0.222792
242 2 25.7737 14.1874 1.39387 25.7737 14.1874 1.39387
243 2 25.7497 14.2099 -1.86824 25.7497 14.2099 -1.86824
244 1 26.7122 15.8451 -0.233028 26.7122 15.8451 -0.233028
245 2 28.6338 15.824 1.37344 28.6338 15.824 1.37344
246 2 28.5926 15.866 -1.88828 28.5926 15.866 -1.88828
247 1 29.5635 14.1987 -0.290914 29.5635 14.1987 -0.290914
248 2 31.4914 14.1861 1.30801 31.4914 14.1861 1.30801
249 2 31.4372 14.2112 -1.95367 31.4372 14.2112 -1.95367
250 1 32.4148 15.8452 -0.326081 32.4148 15.8452 -0.326081
251 2 34.3458 15.8238 1.26916 34.3458 15.8238 1.26916
252 2 34.2855 15.8665 -1.99219 34.2855 15.8665 -1.99219
253 1 35.2659 14.1988 -0.400876 35.2659 14.1988 -0.400876
254 2 37.1956 14.1868 1.19615 37.1956 14.1868 1.19615
255 2 37.1382 14.2108 -2.0654 37.1382 14.2108 -2.0654
256 1 38.1174 15.8454 -0.439404 38.1174 15.8454 -0.439404
257 2 40.043 15.8255 1.1627 40.043 15.8255 1.1627
258 2 39.9941 15.8654 -2.09881 39.9941 15.8654 -2.09881
259 1 40.969 14.199 -0.502712 40.969 14.199 -0.502712
260 2 42.8856 14.189 1.11033 42.8856 14.189 1.11033
261 2 42.8551 14.2089 -2.15155 42.8551 14.2089 -2.15155
262 1 43.821 15.8457 -0.519514 43.821 15.8457 -0.519514
263 2 45.7278 15.8279 1.10521 45.7278 15.8279 1.10521
264 2 45.7172 15.8634 -2.15666 45.7172 15.8634 -2.15666
265 1 46.6732 14.1991 -0.546919 46.6732 14.1991 -0.546919
266 2 48.5672 14.1917 1.09275 48.5672 14.1917 1.09275
267 2 48.5821 14.2065 -2.16926 48.5821 14.2065 -2.16926
268 1 49.5254 15.8458 -0.526513 49.5254 15.8458 -0.526513
269 2 51.4089 15.8304 1.12515 51.4089 15.8304 1.12515
270 2 51.4445 15.8611 -2.13661 51.4445 15.8611 -2.13661
271 1 1.04933 17.4923 -0.479914 1.04933 17.4923 -0.479914
272 2 2.92426 17.4694 1.1814 2.92426 17.4694 1.1814
273 2 2.97669 17.5152 -2.07997 2.97669 17.5152 -2.07997
274 1 3.90099 19.1387 -0.410844 3.90099 19.1387 -0.410844
275 2 5.77014 19.1087 1.25679 5.77014 19.1087 1.25679
276 2 5.83376 19.1687 -2.00419 5.83376 19.1687 -2.00419
277 1 6.75255 17.4922 -0.385613 6.75255 17.4922 -0.385613
278 2 8.61819 17.4702 1.28594 8.61819 17.4702 1.28594
279 2 8.68856 17.5141 -1.97518 8.68856 17.5141 -1.97518
280 1 9.60374 19.1384 -0.301941 9.60374 19.1384 -0.301941
281 2 11.4709 19.1084 1.36773 11.4709 19.1084 1.36773
282 2 11.5382 19.1683 -1.89323 11.5382 19.1683 -1.89323
283 1 12.455 17.4919 -0.273496 12.455 17.4919 -0.273496
284 2 14.3268 17.4689 1.3909 14.3268 17.4689 1.3909
285 2 14.3849 17.5148 -1.8705 14.3849 17.5148 -1.8705
286 1 15.3063 19.138 -0.199761 15.3063 19.138 -0.199761
287 2 17.1859 19.1064 1.45556 17.1859 19.1064 1.45556
288 2 17.2286 19.1694 -1.8058 17.2286 19.1694 -1.8058
289 1 18.1578 17.4916 -0.194658 18.1578 17.4916 -0.194658
290 2 20.0478 17.4659 1.44871 20.0478 17.4659 1.44871
291 2 20.0697 17.5171 -1.81309 20.0697 17.5171 -1.81309
292 1 21.0093 19.1376 -0.150096 21.0093 19.1376 -0.150096
293 2 22.9103 19.1037 1.48048 22.9103 19.1037 1.48048
294 2 22.9105 19.1713 -1.78108 22.9105 19.1713 -1.78108
295 1 23.8609 17.4914 -0.184586 23.8609 17.4914 -0.184586
296 2 25.773 17.4632 1.43294 25.773 17.4632 1.43294
297 2 25.7508 17.5194 -1.82876 25.7508 17.5194 -1.82876
298 1 26.7125 19.1375 -0.176109 26.7125 19.1375 -0.176109
299 2 28.634 19.102 1.43023 28.634 19.102 1.43023
300 2 28.5929 19.1728 -1.83097 28.5929 19.1728 -1.83097
301 1 29.5637 17.4914 -0.248334 29.5637 17.4914 -0.248334
302 2 31.4918 17.4621 1.3502 31.4918 17.4621 1.3502
303 2 31.4374 17.5206 -1.91103 31.4374 17.5206 -1.91103
304 1 32.4152 19.1377 -0.266841 32.4152 19.1377 -0.266841
305 2 34.3471 19.1021 1.32713 34.3471 19.1021 1.32713
306 2 34.285 19.1733 -1.93369 34.285 19.1733 -1.93369
307 1 35.2662 17.4917 -0.357635 35.2662 17.4917 -0.357635
308 2 37.197 17.463 1.23784 37.197 17.463 1.23784
309 2 37.1372 17.5204 -2.02327 37.1372 17.5204 -2.02327
310 1 38.1177 19.1382 -0.381185 38.1177 19.1382 -0.381185
311 2 40.0449 19.1035 1.21879 40.0449 19.1035 1.21879
312 2 39.9927 19.1729 -2.0422 39.9927 19.1729 -2.0422
313 1 40.9692 17.4921 -0.462179 40.9692 17.4921 -0.462179
314 2 42.8875 17.465 1.14866 42.8875 17.465 1.14866
315 2 42.8535 17.5191 -2.11282 42.8535 17.5191 -2.11282
316 1 43.8212 19.1386 -0.4647 43.8212 19.1386 -0.4647
317 2 45.7298 19.1055 1.15759 45.7298 19.1055 1.15759
318 2 45.7153 19.1717 -2.10382 45.7153 19.1717 -2.10382
319 1 46.6732 17.4923 -0.510933 46.6732 17.4923 -0.510933
320 2 48.5691 17.4674 1.12643 48.5691 17.4674 1.12643
321 2 48.5802 17.5172 -2.13526 48.5802 17.5172 -2.13526
322 1 49.5253 19.1388 -0.476016 49.5253 19.1388 -0.476016
323 2 51.4107 19.1075 1.1733 51.4107 19.1075 1.1733
324 2 51.4425 19.1701 -2.08806 51.4425 19.1701 -2.08806
325 1 1.04918 20.785 -0.416428 1.04918 20.785 -0.416428
326 2 2.92583 20.7482 1.2427 2.92583 20.7482 1.2427
327 2 2.97478 20.8218 -2.01825 2.97478 20.8218 -2.01825
328 1 3.90074 22.4311 -0.336249 3.90074 22.4311 -0.336249
329 2 5.77139 22.3899 1.32948 5.77139 22.3899 1.32948
330 2 5.83198 22.4722 -1.93109 5.83198 22.4722 -1.93109
331 1 6.75233 20.7848 -0.324841 6.75233 20.7848 -0.324841
332 2 8.61912 20.7486 1.34523 8.61912 20.7486 1.34523
333 2 8.68723 20.8209 -1.91544 8.68723 20.8209 -1.91544
334 1 9.60346 22.4307 -0.228678 9.60346 22.4307 -0.228678
335 2 11.4715 22.3896 1.43978 11.4715 22.3896 1.43978
336 2 11.5371 22.4716 -1.82073 11.5371 22.4716 -1.82073
337 1 12.4549 20.7844 -0.212936 12.4549 20.7844 -0.212936
338 2 14.3269 20.7476 1.45105 14.3269 20.7476 1.45105
339 2 14.3846 20.821 -1.80983 14.3846 20.821 -1.80983
340 1 15.3061 22.4301 -0.125514 15.3061 22.4301 -0.125514
341 2 17.186 22.3884 1.52937 17.186 22.3884 1.52937
342 2 17.2282 22.4717 -1.73151 17.2282 22.4717 -1.73151
343 1 18.1577 20.7839 -0.130976 18.1577 20.7839 -0.130976
344 2 20.0474 20.7455 1.51269 20.0474 20.7455 1.51269
345 2 20.0702 20.822 -1.74857 20.0702 20.822 -1.74857
346 1 21.0093 22.4297 -0.0727228 21.0093 22.4297 -0.0727228
347 2 22.9105 22.3869 1.55763 22.9105 22.3869 1.55763
348 2 22.9105 22.4722 -1.70347 22.9105 22.4722 -1.70347
349 1 23.861 20.7836 -0.116191 23.861 20.7836 -0.116191
350 2 25.7731 20.7437 1.50131 25.7731 20.7437 1.50131
351 2 25.7511 20.8233 -1.75988 25.7511 20.8233 -1.75988
352 1 26.7128 22.4295 -0.09549 26.7128 22.4295 -0.09549
353 2 28.6348 22.386 1.5101 28.6348 22.386 1.5101
354 2 28.5927 22.4729 -1.75068 28.5927 22.4729 -1.75068
355 1 29.5641 20.7836 -0.176633 29.5641 20.7836 -0.176633
356 2 31.4929 20.743 1.42095 31.4929 20.743 1.42095
357 2 31.4371 20.8241 -1.83977 31.4371 20.8241 -1.83977
358 1 32.4156 22.4297 -0.184726 32.4156 22.4297 -0.184726
359 2 34.3486 22.3862 1.40776 34.3486 22.3862 1.40776
360 2 34.2843 22.4733 -1.85263 34.2843 22.4733 -1.85263
361 1 35.2666 20.784 -0.285394 35.2666 20.784 -0.285394
362 2 37.1988 20.7438 1.30824 37.1988 20.7438 1.30824
363 2 37.1362 20.8243 -1.95233 37.1362 20.8243 -1.95233
364 1 38.1181 22.4303 -0.299583 38.1181 22.4303 -0.299583
365 2 40.0468 22.3871 1.2984 40.0468 22.3871 1.2984
366 2 39.9915 22.4736 -1.96215 39.9915 22.4736 -1.96215
367 1 40.9695 20.7846 -0.391839 40.9695 20.7846 -0.391839
368 2 42.8895 20.7453 1.21667 42.8895 20.7453 1.21667
369 2 42.8518 20.8239 -2.0443 42.8518 20.8239 -2.0443
370 1 43.8213 22.4309 -0.385015 43.8213 22.4309 -0.385015
371 2 45.7317 22.3884 1.23503 45.7317 22.3884 1.23503
372 2 45.7136 22.4735 -2.02596 45.7136 22.4735 -2.02596
373 1 46.6732 20.785 -0.443881 46.6732 20.785 -0.443881
374 2 48.571 20.747 1.19106 48.571 20.747 1.19106
375 2 48.5782 20.823 -2.07017 48.5782 20.823 -2.07017
376 1 49.5252 22.4312 -0.39895 49.5252 22.4312 -0.39895
377 2 51.4124 22.3894 1.24815 51.4124 22.3894 1.24815
378 2 51.4406 22.473 -2.01281 51.4406 22.473 -2.01281
379 1 1.04897 24.0771 -0.331786 1.04897 24.0771 -0.331786
380 2 2.92712 24.033 1.32545 2.92712 24.033 1.32545
381 2 2.97296 24.1214 -1.9352 2.97296 24.1214 -1.9352
382 1 3.90041 25.723 -0.246736 3.90041 25.723 -0.246736
383 2 5.77236 25.6779 1.41744 5.77236 25.6779 1.41744
384 2 5.83029 25.768 -1.84298 5.83029 25.768 -1.84298
385 1 6.75199 24.0769 -0.241489 6.75199 24.0769 -0.241489
386 2 8.6201 24.0329 1.42696 8.6201 24.0329 1.42696
387 2 8.68558 24.1208 -1.83338 8.68558 24.1208 -1.83338
388 1 9.60306 25.7225 -0.139568 9.60306 25.7225 -0.139568
389 2 11.4724 25.6775 1.52743 11.4724 25.6775 1.52743
390 2 11.5355 25.7675 -1.7329 11.5355 25.7675 -1.7329
391 1 12.4546 24.0764 -0.129895 12.4546 24.0764 -0.129895
392 2 14.3275 24.0323 1.53298 14.3275 24.0323 1.53298
393 2 14.3835 24.1203 -1.72754 14.3835 24.1203 -1.72754
394 1 15.3058 25.722 -0.0364386 15.3058 25.722 -0.0364386
395 2 17.1869 25.6772 1.61721 17.1869 25.6772 1.61721
396 2 17.2269 25.7666 -1.6435 17.2269 25.7666 -1.6435
397 1 18.1576 24.0758 -0.0466985 18.1576 24.0758 -0.0466985
398 2 20.0479 24.0314 1.59626 20.0479 24.0314 1.59626
399 2 20.0696 24.1199 -1.66466 20.0696 24.1199 -1.66466
400 1 21.0093 25.7215 0.0168883 21.0093 25.7215 0.0168883
401 2 22.9115 25.6771 1.64614 22.9115 25.6771 1.64614
402 2 22.9096 25.7657 -1.61483 22.9096 25.7657 -1.61483
403 1 23.8611 24.0754 -0.0297839 23.8611 24.0754 -0.0297839
404 2 25.7739 24.0308 1.58692 25.7739 24.0308 1.58692
405 2 25.7507 24.1199 -1.67397 25.7507 24.1199 -1.67397
406 1 26.713 25.7213 -0.00517748 26.713 25.7213 -0.00517748
407 2 28.6362 25.6772 1.5992 28.6362 25.6772 1.5992
408 2 28.592 25.7653 -1.66148 28.592 25.7653 -1.66148
409 1 29.5644 24.0755 -0.0886654 29.5644 24.0755 -0.0886654
410 2 31.4943 24.0308 1.50767 31.4943 24.0308 1.50767
411 2 31.4365 24.1202 -1.75278 31.4365 24.1202 -1.75278
412 1 32.416 25.7216 -0.0941664 32.416 25.7216 -0.0941664
413 2 34.3502 25.6777 1.49695 34.3502 25.6777 1.49695
414 2 34.2835 25.7655 -1.76337 34.2835 25.7655 -1.76337
415 1 35.2671 24.0759 -0.197151 35.2671 24.0759 -0.197151
416 2 37.2005 24.0313 1.39487 37.2005 24.0313 1.39487
417 2 37.1353 24.1207 -1.86543 37.1353 24.1207 -1.86543
418 1 38.1185 25.7222 -0.209082 38.1185 25.7222 -0.209082
419 2 40.0484 25.6782 1.38748 40.0484 25.6782 1.38748
420 2 39.9905 25.7663 -1.87301 39.9905 25.7663 -1.87301
421 1 40.9698 24.0766 -0.304253 40.9698 24.0766 -0.304253
422 2 42.8912 24.032 1.3024 42.8912 24.032 1.3024
423 2 42.8505 24.1212 -1.95831 42.8505 24.1212 -1.95831
424 1 43.8215 25.7228 -0.294663 43.8215 25.7228 -0.294663
425 2 45.7331 25.6784 1.32384 45.7331 25.6784 1.32384
426 2 45.7123 25.7673 -1.93708 45.7123 25.7673 -1.93708
427 1 46.6733 24.077 -0.357644 46.6733 24.077 -0.357644
428 2 48.5726 24.0327 1.27532 48.5726 24.0327 1.27532
429 2 48.5765 24.1215 -1.98564 48.5765 24.1215 -1.98564
430 1 49.5251 25.7231 -0.30901 49.5251 25.7231 -0.30901
431 2 51.4135 25.6783 1.33654 51.4135 25.6783 1.33654
432 2 51.4391 25.7679 -1.92432 51.4391 25.7679 -1.92432
433 1 1.04872 27.369 -0.241011 1.04872 27.369 -0.241011
434 2 2.92786 27.3252 1.41512 2.92786 27.3252 1.41512
435 2 2.97161 27.4128 -1.84561 2.97161 27.4128 -1.84561
436 1 3.90004 29.0148 -0.158087 3.90004 29.0148 -0.158087
437 2 5.77281 28.9737 1.5053 5.77281 28.9737 1.5053
438 2 5.82905 29.056 -1.75538 5.82905 29.056 -1.75538
439 1 6.75156 27.3687 -0.150195 6.75156 27.3687 -0.150195
440 2 8.62089 27.3245 1.51693 8.62089 27.3245 1.51693
441 2 8.68395 27.4129 -1.74345 8.68395 27.4129 -1.74345
442 1 9.60261 29.0144 -0.0500627 9.60261 29.0144 -0.0500627
443 2 11.4733 28.9732 1.61562 11.4733 28.9732 1.61562
444 2 11.5338 29.0557 -1.64495 11.5338 29.0557 -1.64495
445 1 12.4542 27.3682 -0.0387595 12.4542 27.3682 -0.0387595
446 2 14.3285 27.3244 1.62262 14.3285 27.3244 1.62262
447 2 14.3818 27.4119 -1.63793 14.3818 27.4119 -1.63793
448 1 15.3055 29.0139 0.0522758 15.3055 29.0139 0.0522758
449 2 17.1883 28.9737 1.7042 17.1883 28.9737 1.7042
450 2 17.2251 29.0541 -1.55674 17.2251 29.0541 -1.55674
451 1 18.1574 27.3677 0.0437798 18.1574 27.3677 0.0437798
452 2 20.0492 27.3247 1.68524 20.0492 27.3247 1.68524
453 2 20.0681 27.4104 -1.57573 20.0681 27.4104 -1.57573
454 1 21.0093 29.0135 0.103719 21.0093 29.0135 0.103719
455 2 22.9132 28.9748 1.73123 22.9132 28.9748 1.73123
456 2 22.908 29.0521 -1.52998 22.908 29.0521 -1.52998
457 1 23.8612 27.3673 0.0599979 23.8612 27.3673 0.0599979
458 2 25.7754 27.3253 1.6753 25.7754 27.3253 1.6753
459 2 25.7496 27.4092 -1.58567 25.7496 27.4092 -1.58567
460 1 26.7132 29.0134 0.0797797 26.7132 29.0134 0.0797797
461 2 28.6379 28.976 1.68264 28.6379 28.976 1.68264
462 2 28.5908 29.0508 -1.57831 28.5908 29.0508 -1.57831
463 1 29.5648 27.3674 0.000559625 29.5648 27.3674 0.000559625
464 2 31.4959 27.3261 1.59555 31.4959 27.3261 1.59555
465 2 31.4356 27.4088 -1.66501 31.4356 27.4088 -1.66501
466 1 32.4164 29.0137 -0.0104305 32.4164 29.0137 -0.0104305
467 2 34.3518 28.9769 1.57951 34.3518 28.9769 1.57951
468 2 34.2826 29.0506 -1.6811 34.2826 29.0506 -1.6811
469 1 35.2675 27.3678 -0.108228 35.2675 27.3678 -0.108228
470 2 37.202 27.3266 1.48264 37.202 27.3266 1.48264
471 2 37.1345 27.4092 -1.77781 37.1345 27.4092 -1.77781
472 1 38.1189 29.0141 -0.125376 38.1189 29.0141 -0.125376
473 2 40.0495 28.977 1.47045 40.0495 28.977 1.47045
474 2 39.99 29.0515 -1.79038 39.99 29.0515 -1.79038
475 1 40.9701 27.3684 -0.214956 40.9701 27.3684 -0.214956
476 2 42.8925 27.3266 1.39065 42.8925 27.3266 1.39065
477 2 42.8497 27.4104 -1.8702 42.8497 27.4104 -1.8702
478 1 43.8217 29.0146 -0.209719 43.8217 29.0146 -0.209719
479 2 45.7338 28.9763 1.40825 45.7338 28.9763 1.40825
480 2 45.7117 29.0532 -1.853 45.7117 29.0532 -1.853
481 1 46.6733 27.3689 -0.267627 46.6733 27.3689 -0.267627
482 2 48.5735 27.3261 1.36429 48.5735 27.3261 1.36429
483 2 48.5755 27.4118 -1.8968 48.5755 27.4118 -1.8968
484 1 49.525 29.0149 -0.222222 49.525 29.0149 -0.222222
485 2 51.414 28.975 1.42281 51.414 28.975 1.42281
486 2 51.4382 29.0549 -1.83835 51.4382 29.0549 -1.83835
487 1 1.04846 30.6609 -0.16015 1.04846 30.6609 -0.16015
488 2 2.92785 30.6253 1.49591 2.92785 30.6253 1.49591
489 2 2.97099 30.6967 -1.76525 2.97099 30.6967 -1.76525
490 1 3.8997 32.307 -0.0858208 3.8997 32.307 -0.0858208
491 2 5.77259 32.277 1.57769 5.77259 32.277 1.57769
492 2 5.82853 32.3371 -1.68348 5.82853 32.3371 -1.68348
493 1 6.75113 30.6607 -0.0668811 6.75113 30.6607 -0.0668811
494 2 8.6213 30.624 1.59953 8.6213 30.624 1.59953
495 2 8.68269 30.6975 -1.66125 8.68269 30.6975 -1.66125
496 1 9.60219 32.3067 0.0243734 9.60219 32.3067 0.0243734
497 2 11.474 32.2763 1.68912 11.474 32.2763 1.68912
498 2 11.5323 32.3372 -1.57195 11.5323 32.3372 -1.57195
499 1 12.4538 30.6603 0.0448517 12.4538 30.6603 0.0448517
500 2 14.3298 30.6241 1.70468 14.3298 30.6241 1.70468
501 2 14.3799 30.6964 -1.55628 14.3799 30.6964 -1.55628
502 1 15.3052 32.3064 0.125566 15.3052 32.3064 0.125566
503 2 17.19 32.2774 1.77559 17.19 32.2774 1.77559
504 2 17.223 32.3353 -1.48584 17.223 32.3353 -1.48584
505 1 18.1572 30.6599 0.125251 18.1572 30.6599 0.125251
506 2 20.051 30.6255 1.76472 20.051 30.6255 1.76472
507 2 20.0661 30.6942 -1.49663 20.0661 30.6942 -1.49663
508 1 21.0092 32.3061 0.173329 21.0092 32.3061 0.173329
509 2 22.9153 32.2795 1.79871 22.9153 32.2795 1.79871
510 2 22.906 32.3327 -1.46294 22.906 32.3327 -1.46294
511 1 23.8613 30.6597 0.138326 23.8613 30.6597 0.138326
512 2 25.7773 30.6273 1.75179 25.7773 30.6273 1.75179
513 2 25.7479 30.6921 -1.50955 25.7479 30.6921 -1.50955
514 1 26.7134 32.3061 0.145459 26.7134 32.3061 0.145459
515 2 28.6398 32.2815 1.74661 28.6398 32.2815 1.74661
516 2 28.5893 32.3307 -1.51475 28.5893 32.3307 -1.51475
517 1 29.565 30.6597 0.0763351 29.565 30.6597 0.0763351
518 2 31.4975 30.6286 1.66995 31.4975 30.6286 1.66995
519 2 31.4344 30.6909 -1.591 31.4344 30.6909 -1.591
520 1 32.4166 32.3062 0.0527072 32.4166 32.3062 0.0527072
521 2 34.3531 32.2826 1.64166 34.3531 32.2826 1.64166
522 2 34.2818 32.33 -1.61939 34.2818 32.33 -1.61939
523 1 35.2678 30.6601 -0.0335759 35.2678 30.6601 -0.0335759
524 2 37.2032 30.6291 1.55654 37.2032 30.6291 1.55654
525 2 37.1339 30.6911 -1.70434 37.1339 30.6911 -1.70434
526 1 38.1191 32.3066 -0.0626188 38.1191 32.3066 -0.0626188
527 2 40.05 32.2825 1.53303 40.05 32.2825 1.53303
528 2 39.9897 32.3307 -1.72829 39.9897 32.3307 -1.72829
529 1 40.9703 30.6605 -0.139504 40.9703 30.6605 -0.139504
530 2 42.893 30.6286 1.46591 42.893 30.6286 1.46591
531 2 42.8494 30.6926 -1.79541 42.8494 30.6926 -1.79541
532 1 43.8217 32.3069 -0.144992 43.8217 32.3069 -0.144992
533 2 45.7337 32.2812 1.47341 45.7337 32.2812 1.47341
534 2 45.7118 32.3328 -1.78837 45.7118 32.3328 -1.78837
535 1 46.6733 30.6609 -0.189808 46.6733 30.6609 -0.189808
536 2 48.5737 30.6272 1.44216 48.5737 30.6272 1.44216
537 2 48.5752 30.6947 -1.81939 48.5752 30.6947 -1.81939
538 1 49.5249 32.3071 -0.153857 49.5249 32.3071 -0.153857