ITEM: TIMESTEP
72000
ITEM: NUMBER OF ATOMS
810
ITEM: BOX BOUNDS pp pp pp
8.4218773541540592e-01 5.2175417264582606e+01
8.1068568208582414e-01 5.0205529317913459e+01
-1.0000000000000000e+01 1.0000000000000000e+01
ITEM: ATOMS id type x y z xu yu zu
1 1 1.04577 1.02505 -0.201977 1.04577 1.02505 -0.201977
2 2 2.94522 1.01712 1.43122 2.94522 1.01712 1.43122
3 2 2.9488 1.03298 -1.83093 2.9488 1.03298 -1.83093
4 1 3.89762 2.67154 -0.19078 3.89762 2.67154 -0.19078
5 2 5.79467 2.66313 1.44521 5.79467 2.66313 1.44521
6 2 5.80304 2.67994 -1.81692 5.80304 2.67994 -1.81692
7 1 6.74948 1.02505 -0.191931 6.74948 1.02505 -0.191931
8 2 8.64442 1.01766 1.4465 8.64442 1.01766 1.4465
9 2 8.657 1.03242 -1.81563 8.657 1.03242 -1.81563
10 1 9.60131 2.67152 -0.173419 9.60131 2.67152 -0.173419
11 2 11.4955 2.66373 1.46589 11.4955 2.66373 1.46589
12 2 11.5096 2.67928 -1.79623 11.5096 2.67928 -1.79623
13 1 12.4532 1.02501 -0.168946 12.4532 1.02501 -0.168946
14 2 14.3468 1.01827 1.47098 14.3468 1.01827 1.47098
15 2 14.362 1.03172 -1.79114 14.362 1.03172 -1.79114
16 1 15.305 2.67147 -0.14883 15.305 2.67147 -0.14883
17 2 17.1995 2.66471 1.49009 17.1995 2.66471 1.49009
18 2 17.2129 2.67821 -1.77204 17.2129 2.67821 -1.77204
19 1 18.1568 1.02496 -0.143887 18.1568 1.02496 -0.143887
20 2 20.0522 1.01872 1.49404 20.0522 1.01872 1.49404
21 2 20.0639 1.03117 -1.7681 20.0639 1.03117 -1.7681
22 1 21.0087 2.67142 -0.127272 21.0087 2.67142 -0.127272
23 2 22.906 2.66562 1.50834 22.906 2.66562 1.50834
24 2 22.9138 2.6772 -1.75381 22.9138 2.6772 -1.75381
25 1 23.8605 1.02491 -0.126316 23.8605 1.02491 -0.126316
26 2 25.7599 1.01872 1.50697 25.7599 1.01872 1.50697
27 2 25.7637 1.03108 -1.75519 25.7637 1.03108 -1.75519
28 1 26.7124 2.67139 -0.116728 26.7124 2.67139 -0.116728
29 2 28.6144 2.66596 1.51346 28.6144 2.66596 1.51346
30 2 28.6129 2.6768 -1.7487 28.6129 2.6768 -1.7487
31 1 29.5643 1.02488 -0.12353 29.5643 1.02488 -0.12353
32 2 31.4689 1.01819 1.50353 31.4689 1.01819 1.50353
33 2 31.4621 1.03157 -1.75862 31.4621 1.03157 -1.75862
34 1 32.4161 2.67137 -0.12277 32.4161 2.67137 -0.12277
35 2 34.3231 2.66556 1.50151 34.3231 2.66556 1.50151
36 2 34.3115 2.67719 -1.76063 34.3115 2.67719 -1.76063
37 1 35.268 1.02489 -0.138812 35.268 1.02489 -0.138812
38 2 37.1769 1.01748 1.48321 37.1769 1.01748 1.48321
39 2 37.1615 1.03231 -1.7789 37.1615 1.03231 -1.7789
40 1 38.1198 2.6714 -0.144846 38.1198 2.6714 -0.144846
41 2 40.0295 2.66474 1.47634 40.0295 2.66474 1.47634
42 2 40.0126 2.67809 -1.78577 40.0126 2.67809 -1.78577
43 1 40.9716 1.02494 -0.166395 40.9716 1.02494 -0.166395
44 2 42.8811 1.017 1.45504 42.8811 1.017 1.45504
45 2 42.8646 1.03291 -1.80706 42.8646 1.03291 -1.80706
46 1 43.8234 2.67145 -0.172766 43.8234 2.67145 -0.172766
47 2 45.7313 2.66379 1.45057 45.7313 2.66379 1.45057
48 2 45.718 2.67915 -1.81156 45.718 2.67915 -1.81156
49 1 46.6753 1.025 -0.192142 46.6753 1.025 -0.192142
50 2 48.5808 1.01686 1.43401 48.5808 1.01686 1.43401
51 2 48.5723 1.03318 -1.82813 48.5723 1.03318 -1.82813
52 1 49.5271 2.67151 -0.191275 49.5271 2.67151 -0.191275
53 2 51.4297 2.66314 1.43834 51.4297 2.66314 1.43834
54 2 51.4271 2.67991 -1.8238 51.4271 2.67991 -1.8238
55 1 1.04576 4.31801 -0.184992 1.04576 4.31801 -0.184992
56 2 2.94532 4.30935 1.44808 2.94532 4.30935 1.44808
57 2 2.94867 4.32669 -1.81405 2.94867 4.32669 -1.81405
58 1 3.8976 5.9645 -0.173223 3.8976 5.9645 -0.173223
59 2 5.79477 5.95578 1.46263 5.79477 5.95578 1.46263
60 2 5.8029 5.97322 -1.7995 5.8029 5.97322 -1.7995
61 1 6.74946 4.31802 -0.174886 6.74946 4.31802 -0.174886
62 2 8.6449 4.30943 1.46296 8.6449 4.30943 1.46296
63 2 8.65648 4.32659 -1.79916 8.65648 4.32659 -1.79916
64 1 9.60128 5.96449 -0.156007 9.60128 5.96449 -0.156007
65 2 11.4962 5.95634 1.48245 11.4962 5.95634 1.48245
66 2 11.5088 5.97261 -1.77967 11.5088 5.97261 -1.77967
67 1 12.4531 4.31798 -0.153167 12.4531 4.31798 -0.153167
68 2 14.3475 4.31046 1.48586 14.3475 4.31046 1.48586
69 2 14.3612 4.32547 -1.77626 14.3612 4.32547 -1.77626
70 1 15.305 5.96445 -0.133584 15.305 5.96445 -0.133584
71 2 17.2006 5.95806 1.50407 17.2006 5.95806 1.50407
72 2 17.2118 5.97081 -1.75808 17.2118 5.97081 -1.75808
73 1 18.1568 4.31794 -0.130189 18.1568 4.31794 -0.130189
74 2 20.053 4.312 1.50683 20.053 4.312 1.50683
75 2 20.0631 4.32384 -1.75532 20.0631 4.32384 -1.75532
76 1 21.0087 5.96441 -0.115241 21.0087 5.96441 -0.115241
77 2 22.907 5.96012 1.51918 22.907 5.96012 1.51918
78 2 22.9128 5.96868 -1.74299 22.9128 5.96868 -1.74299
79 1 23.8605 4.3179 -0.11457 23.8605 4.3179 -0.11457
80 2 25.7604 4.31331 1.51816 25.7604 4.31331 1.51816
81 2 25.7632 4.32246 -1.74401 25.7632 4.32246 -1.74401
82 1 26.7124 5.96439 -0.10744 26.7124 5.96439 -0.10744
83 2 28.6149 5.9616 1.52211 28.6149 5.9616 1.52211
84 2 28.6123 5.96716 -1.74007 28.6123 5.96716 -1.74007
85 1 29.5643 4.31788 -0.11255 29.5643 4.31788 -0.11255
86 2 31.469 4.31376 1.51448 31.469 4.31376 1.51448
87 2 31.462 4.32199 -1.74768 31.462 4.32199 -1.74768
88 1 32.4161 5.96438 -0.114434 32.4161 5.96438 -0.114434
89 2 34.3231 5.96185 1.50992 34.3231 5.96185 1.50992
90 2 34.3116 5.96691 -1.75224 34.3116 5.96691 -1.75224
91 1 35.268 4.31788 -0.127053 35.268 4.31788 -0.127053
92 2 37.1766 4.3132 1.4953 37.1766 4.3132 1.4953
93 2 37.1617 4.32258 -1.76684 37.1617 4.32258 -1.76684
94 1 38.1198 5.9644 -0.135371 38.1198 5.9644 -0.135371
95 2 40.0289 5.96075 1.48646 40.0289 5.96075 1.48646
96 2 40.0131 5.96806 -1.77568 40.0131 5.96806 -1.77568
97 1 40.9716 4.31792 -0.152895 40.9716 4.31792 -0.152895
98 2 42.8807 4.31187 1.469 42.8807 4.31187 1.469
99 2 42.865 4.324 -1.79312 42.865 4.324 -1.79312
100 1 43.8234 5.96443 -0.160518 43.8234 5.96443 -0.160518
101 2 45.7306 5.95868 1.46372 45.7306 5.95868 1.46372
102 2 45.7188 5.97022 -1.79843 45.7188 5.97022 -1.79843
103 1 46.6753 4.31797 -0.176599 46.6753 4.31797 -0.176599
104 2 48.5805 4.31031 1.44987 48.5805 4.31031 1.44987
105 2 48.5725 4.32566 -1.81227 48.5725 4.32566 -1.81227
106 1 49.5271 5.96448 -0.175755 49.5271 5.96448 -0.175755
107 2 51.4292 5.95668 1.45444 51.4292 5.95668 1.45444
108 2 51.4276 5.97231 -1.80771 51.4276 5.97231 -1.80771
109 1 1.04575 7.61098 -0.169191 1.04575 7.61098 -0.169191
110 2 2.9448 7.60315 1.46449 2.9448 7.60315 1.46449
111 2 2.94916 7.61882 -1.79766 2.94916 7.61882 -1.79766
112 1 3.89758 9.25747 -0.157375 3.89758 9.25747 -0.157375
113 2 5.79447 9.25006 1.47881 5.79447 9.25006 1.47881
114 2 5.80314 9.26489 -1.78333 5.80314 9.26489 -1.78333
115 1 6.74943 7.61098 -0.157218 6.74943 7.61098 -0.157218
116 2 8.64524 7.60276 1.48022 8.64524 7.60276 1.48022
117 2 8.65608 7.6192 -1.78191 8.65608 7.6192 -1.78191
118 1 9.60125 9.25746 -0.139327 9.60125 9.25746 -0.139327
119 2 11.4969 9.25049 1.49824 11.4969 9.25049 1.49824
120 2 11.508 9.2644 -1.7639 11.508 9.2644 -1.7639
121 1 12.4531 7.61095 -0.136649 12.4531 7.61095 -0.136649
122 2 14.3486 7.60409 1.5011 14.3486 7.60409 1.5011
123 2 14.36 7.61779 -1.76103 14.36 7.61779 -1.76103
124 1 15.3049 9.25743 -0.119648 15.3049 9.25743 -0.119648
125 2 17.202 9.25267 1.51628 17.202 9.25267 1.51628
126 2 17.2103 9.26217 -1.74588 17.2103 9.26217 -1.74588
127 1 18.1568 7.61092 -0.117217 18.1568 7.61092 -0.117217
128 2 20.0543 7.60648 1.51818 20.0543 7.60648 1.51818
129 2 20.0617 7.61533 -1.74398 20.0617 7.61533 -1.74398
130 1 21.0086 9.2574 -0.10621 21.0086 9.2574 -0.10621
131 2 22.9086 9.25554 1.52638 22.9086 9.25554 1.52638
132 2 22.9112 9.25926 -1.7358 22.9112 9.25926 -1.7358
133 1 23.8605 7.61089 -0.105854 23.8605 7.61089 -0.105854
134 2 25.7615 7.60885 1.52555 25.7615 7.60885 1.52555
135 2 25.762 7.61293 -1.73663 25.762 7.61293 -1.73663
136 1 26.7124 9.2574 -0.10327 26.7124 9.2574 -0.10327
137 2 28.616 9.2579 1.52505 28.616 9.2579 1.52505
138 2 28.6112 9.25689 -1.73713 28.6112 9.25689 -1.73713
139 1 29.5642 7.61089 -0.106905 29.5642 7.61089 -0.106905
140 2 31.4694 7.6102 1.51961 31.4694 7.6102 1.51961
141 2 31.4616 7.61158 -1.74256 31.4616 7.61158 -1.74256
142 1 32.4161 9.2574 -0.11303 32.4161 9.2574 -0.11303
143 2 34.3232 9.25875 1.51118 34.3232 9.25875 1.51118
144 2 34.3114 9.25606 -1.75098 34.3114 9.25606 -1.75098
145 1 35.268 7.6109 -0.121946 35.268 7.6109 -0.121946
146 2 37.1763 7.60989 1.50084 37.1763 7.60989 1.50084
147 2 37.1621 7.61191 -1.76132 37.1621 7.61191 -1.76132
148 1 38.1198 9.25741 -0.133369 38.1198 9.25741 -0.133369
149 2 40.028 9.25752 1.4895 40.028 9.25752 1.4895
150 2 40.0139 9.25731 -1.77265 40.0139 9.25731 -1.77265
151 1 40.9716 7.61092 -0.145529 40.9716 7.61092 -0.145529
152 2 42.8797 7.60793 1.47755 42.8797 7.60793 1.47755
153 2 42.866 7.61392 -1.7846 42.866 7.61392 -1.7846
154 1 43.8234 9.25743 -0.154509 43.8234 9.25743 -0.154509
155 2 45.7291 9.25467 1.47146 45.7291 9.25467 1.47146
156 2 45.7202 9.26021 -1.79071 45.7202 9.26021 -1.79071
157 1 46.6753 7.61095 -0.164956 46.6753 7.61095 -0.164956
158 2 48.5794 7.6052 1.4628 48.5794 7.6052 1.4628
159 2 48.5736 7.61672 -1.79936 48.5736 7.61672 -1.79936
160 1 49.5271 9.25746 -0.164142 49.5271 9.25746 -0.164142
161 2 51.428 9.25168 1.46748 51.428 9.25168 1.46748
162 2 51.4288 9.26326 -1.79469 51.4288 9.26326 -1.79469
163 1 1.04573 10.904 -0.157509 1.04573 10.904 -0.157509
164 2 2.94374 10.8984 1.4774 2.94374 10.8984 1.4774
165 2 2.95018 10.9095 -1.78476 2.95018 10.9095 -1.78476
166 1 3.89755 12.5505 -0.146171 3.89755 12.5505 -0.146171
167 2 5.79381 12.5457 1.49077 5.79381 12.5457 1.49077
168 2 5.80375 12.5552 -1.77139 5.80375 12.5552 -1.77139
169 1 6.7494 10.904 -0.142197 6.7494 10.904 -0.142197
170 2 8.64536 10.8976 1.49507 8.64536 10.8976 1.49507
171 2 8.6559 10.9103 -1.76708 8.6559 10.9103 -1.76708
172 1 9.60122 12.5504 -0.126489 9.60122 12.5504 -0.126489
173 2 11.4976 12.5459 1.5103 11.4976 12.5459 1.5103
174 2 11.5073 12.555 -1.75186 11.5073 12.555 -1.75186
175 1 12.4531 10.9039 -0.122511 12.4531 10.9039 -0.122511
176 2 14.3498 10.899 1.5138 14.3498 10.899 1.5138
177 2 14.3588 10.9088 -1.74835 14.3588 10.9088 -1.74835
178 1 15.3049 12.5504 -0.109644 15.3049 12.5504 -0.109644
179 2 17.2036 12.5482 1.5244 17.2036 12.5482 1.5244
180 2 17.2087 12.5527 -1.73777 17.2087 12.5527 -1.73777
181 1 18.1568 10.9039 -0.107518 18.1568 10.9039 -0.107518
182 2 20.0561 10.9019 1.52584 20.0561 10.9019 1.52584
183 2 20.06 10.906 -1.73634 20.06 10.906 -1.73634
184 1 21.0086 12.5504 -0.101991 21.0086 12.5504 -0.101991
185 2 22.9104 12.5514 1.52845 22.9104 12.5514 1.52845
186 2 22.9093 12.5495 -1.73373 22.9093 12.5495 -1.73373
187 1 23.8605 10.9039 -0.102012 23.8605 10.9039 -0.102012
188 2 25.7631 10.9049 1.52757 25.7631 10.9049 1.52757
189 2 25.7605 10.9029 -1.73461 25.7605 10.9029 -1.73461
190 1 26.7124 12.5504 -0.105238 26.7124 12.5504 -0.105238
191 2 28.6173 12.5542 1.5215 28.6173 12.5542 1.5215
192 2 28.6099 12.5466 -1.74066 28.6099 12.5466 -1.74066
193 1 29.5642 10.9039 -0.107897 29.5642 10.9039 -0.107897
194 2 31.4702 10.9069 1.51773 31.4702 10.9069 1.51773
195 2 31.4608 10.9009 -1.74443 31.4608 10.9009 -1.74443
196 1 32.4161 12.5504 -0.119084 32.4161 12.5504 -0.119084
197 2 34.3234 12.5554 1.50484 34.3234 12.5554 1.50484
198 2 34.3112 12.5454 -1.75731 34.3112 12.5454 -1.75731
199 1 35.2679 10.9039 -0.124683 35.2679 10.9039 -0.124683
200 2 37.1758 10.9069 1.49859 37.1758 10.9069 1.49859
201 2 37.1625 10.901 -1.76356 37.1625 10.901 -1.76356
202 1 38.1197 12.5504 -0.139366 38.1197 12.5504 -0.139366
203 2 40.0269 12.5543 1.4848 40.0269 12.5543 1.4848
204 2 40.015 12.5466 -1.77735 40.015 12.5466 -1.77735
205 1 40.9716 10.9039 -0.1458 40.9716 10.9039 -0.1458
206 2 42.8782 10.9046 1.47902 42.8782 10.9046 1.47902
207 2 42.8674 10.9033 -1.78315 42.8674 10.9033 -1.78315
208 1 43.8234 12.5504 -0.155871 43.8234 12.5504 -0.155871
209 2 45.7272 12.5511 1.47235 45.7272 12.5511 1.47235
210 2 45.7221 12.5498 -1.78983 45.7221 12.5498 -1.78983
211 1 46.6753 10.9039 -0.159421 46.6753 10.9039 -0.159421
212 2 48.5777 10.9012 1.47038 48.5777 10.9012 1.47038
213 2 48.5753 10.9067 -1.7918 48.5753 10.9067 -1.7918
214 1 49.5271 12.5505 -0.15857 49.5271 12.5505 -0.15857
215 2 51.4262 12.5477 1.47506 51.4262 12.5477 1.47506
216 2 51.4304 12.5532 -1.78713 51.4304 12.5532 -1.78713
217 1 1.04571 14.197 -0.152031 1.04571 14.197 -0.152031
218 2 2.94233 14.1947 1.4845 2.94233 14.1947 1.4845
219 2 2.95154 14.1993 -1.77767 2.95154 14.1993 -1.77767
220 1 3.89753 15.8435 -0.141551 3.89753 15.8435 -0.141551
221 2 5.79291 15.8421 1.4964 5.79291 15.8421 1.4964
222 2 5.8046 15.8448 -1.76576 5.8046 15.8448 -1.76576
223 1 6.74937 14.197 -0.132566 6.74937 14.197 -0.132566
224 2 8.64524 14.1936 1.50481 8.64524 14.1936 1.50481
225 2 8.65596 14.2003 -1.75735 8.65596 14.2003 -1.75735
226 1 9.6012 15.8435 -0.119739 9.6012 15.8435 -0.119739
227 2 11.498 15.8421 1.51654 11.498 15.8421 1.51654
228 2 11.5069 15.8448 -1.74563 11.5069 15.8448 -1.74563
229 1 12.4531 14.1969 -0.113323 12.4531 14.1969 -0.113323
230 2 14.351 14.1948 1.52167 14.351 14.1948 1.52167
231 2 14.3576 14.1991 -1.74051 14.3576 14.1991 -1.74051
232 1 15.3049 15.8434 -0.105274 15.3049 15.8434 -0.105274
233 2 17.2051 15.844 1.52706 17.2051 15.844 1.52706
234 2 17.2072 15.8429 -1.73512 17.2072 15.8429 -1.73512
235 1 18.1568 14.1969 -0.102867 18.1568 14.1969 -0.102867
236 2 20.0579 14.1976 1.52836 20.0579 14.1976 1.52836
237 2 20.0581 14.1962 -1.73382 20.0581 14.1962 -1.73382
238 1 21.0086 15.8434 -0.103306 21.0086 15.8434 -0.103306
239 2 22.9123 15.847 1.525 22.9123 15.847 1.525
240 2 22.9075 15.8398 -1.73717 22.9075 15.8398 -1.73717
241 1 23.8605 14.1969 -0.103881 23.8605 14.1969 -0.103881
242 2 25.7648 14.2008 1.52368 25.7648 14.2008 1.52368
243 2 25.7587 14.193 -1.73849 25.7587 14.193 -1.73849
244 1 26.7124 15.8434 -0.113073 26.7124 15.8434 -0.113073
245 2 28.6187 15.8498 1.51202 28.6187 15.8498 1.51202
246 2 28.6085 15.837 -1.75012 28.6085 15.837 -1.75012
247 1 29.5642 14.1969 -0.115561 29.5642 14.1969 -0.115561
248 2 31.471 14.2031 1.50899 31.471 14.2031 1.50899
249 2 31.4599 14.1908 -1.75315 31.4599 14.1908 -1.75315
250 1 32.4161 15.8434 -0.131557 32.4161 15.8434 -0.131557
251 2 34.3237 15.8512 1.49204 34.3237 15.8512 1.49204
252 2 34.3109 15.8357 -1.77009 34.3109 15.8357 -1.77009
253 1 35.2679 14.1969 -0.134896 35.2679 14.1969 -0.134896
254 2 37.1754 14.2032 1.48891 37.1754 14.2032 1.48891
255 2 37.1629 14.1906 -1.77323 37.1629 14.1906 -1.77323
256 1 38.1197 15.8434 -0.15218 38.1197 15.8434 -0.15218
257 2 40.0257 15.8502 1.47334 40.0257 15.8502 1.47334
258 2 40.0162 15.8367 -1.7888 40.0162 15.8367 -1.7888
259 1 40.9716 14.1969 -0.153632 40.9716 14.1969 -0.153632
260 2 42.8765 14.201 1.47319 42.8765 14.201 1.47319
261 2 42.8691 14.1929 -1.78898 42.8691 14.1929 -1.78898
262 1 43.8234 15.8434 -0.164159 43.8234 15.8434 -0.164159
263 2 45.7251 15.8473 1.46643 45.7251 15.8473 1.46643
264 2 45.7242 15.8395 -1.79575 45.7242 15.8395 -1.79575
265 1 46.6753 14.1969 -0.160914 46.6753 14.1969 -0.160914
266 2 48.5756 14.1976 1.47131 48.5756 14.1976 1.47131
267 2 48.5774 14.1964 -1.79088 48.5774 14.1964 -1.79088
268 1 49.5271 15.8435 -0.159868 49.5271 15.8435 -0.159868
269 2 51.4243 15.8442 1.47594 51.4243 15.8442 1.47594
270 2 51.4323 15.8428 -1.78624 51.4323 15.8428 -1.78624
271 1 1.04569 17.49 -0.153531 1.04569 17.49 -0.153531
272 2 2.94087 17.4912 1.48467 2.94087 17.4912 1.48467
273 2 2.95296 17.4887 -1.77749 2.95296 17.4887 -1.77749
274 1 3.89752 19.1365 -0.144133 3.89752 19.1365 -0.144133
275 2 5.79197 19.1387 1.49489 5.79197 19.1387 1.49489
276 2 5.80551 19.1342 -1.76726 5.80551 19.1342 -1.76726
277 1 6.74935 17.49 -0.129912 6.74935 17.49 -0.129912
278 2 8.64489 17.4901 1.50784 8.64489 17.4901 1.50784
279 2 8.65627 17.4898 -1.75433 8.65627 17.4898 -1.75433
280 1 9.60119 19.1365 -0.120065 9.60119 19.1365 -0.120065
281 2 11.4981 19.1384 1.51606 11.4981 19.1384 1.51606
282 2 11.5067 19.1345 -1.74611 11.5067 19.1345 -1.74611
283 1 12.453 17.49 -0.110553 12.453 17.49 -0.110553
284 2 14.3518 17.4909 1.52345 14.3518 17.4909 1.52345
285 2 14.3568 17.489 -1.73873 14.3568 17.489 -1.73873
286 1 15.3049 19.1365 -0.107082 15.3049 19.1365 -0.107082
287 2 17.2061 19.1396 1.52399 17.2061 19.1396 1.52399
288 2 17.2061 19.1333 -1.73819 17.2061 19.1333 -1.73819
289 1 18.1568 17.4899 -0.103927 18.1568 17.4899 -0.103927
290 2 20.0595 17.4931 1.52543 20.0595 17.4931 1.52543
291 2 20.0565 17.4867 -1.73675 20.0565 17.4867 -1.73675
292 1 21.0086 19.1364 -0.109725 21.0086 19.1364 -0.109725
293 2 22.9138 19.1419 1.5168 22.9138 19.1419 1.5168
294 2 22.906 19.131 -1.74535 22.906 19.131 -1.74535
295 1 23.8605 17.4899 -0.111051 23.8605 17.4899 -0.111051
296 2 25.7664 17.4959 1.51461 25.7664 17.4959 1.51461
297 2 25.7571 17.4839 -1.74754 25.7571 17.4839 -1.74754
298 1 26.7123 19.1364 -0.125239 26.7123 19.1364 -0.125239
299 2 28.6199 19.1442 1.49843 28.6199 19.1442 1.49843
300 2 28.6073 19.1286 -1.7637 28.6073 19.1286 -1.7637
301 1 29.5642 17.4899 -0.128486 29.5642 17.4899 -0.128486
302 2 31.4719 17.498 1.49503 31.4719 17.498 1.49503
303 2 31.459 17.4818 -1.76709 31.459 17.4818 -1.76709
304 1 32.416 19.1364 -0.14803 32.416 19.1364 -0.14803
305 2 34.3239 19.1453 1.47527 34.3239 19.1453 1.47527
306 2 34.3106 19.1274 -1.78684 34.3106 19.1274 -1.78684
307 1 35.2679 17.4899 -0.150593 35.2679 17.4899 -0.150593
308 2 37.1749 17.4983 1.47372 37.1749 17.4983 1.47372
309 2 37.1633 17.4815 -1.7884 37.1633 17.4815 -1.7884
310 1 38.1197 19.1364 -0.169233 38.1197 19.1364 -0.169233
311 2 40.0247 19.1447 1.45744 40.0247 19.1447 1.45744
312 2 40.0171 19.128 -1.8047 40.0171 19.128 -1.8047
313 1 40.9715 17.4899 -0.16735 40.9715 17.4899 -0.16735
314 2 42.8748 17.4965 1.46137 42.8748 17.4965 1.46137
315 2 42.8707 17.4833 -1.80079 42.8707 17.4833 -1.80079
316 1 43.8234 19.1364 -0.177603 43.8234 19.1364 -0.177603
317 2 45.7234 19.1427 1.45502 45.7234 19.1427 1.45502
318 2 45.7259 19.1301 -1.80715 45.7259 19.1301 -1.80715
319 1 46.6752 17.4899 -0.168881 46.6752 17.4899 -0.168881
320 2 48.5736 17.4937 1.46566 48.5736 17.4937 1.46566
321 2 48.5794 17.4862 -1.79652 48.5794 17.4862 -1.79652
322 1 49.5271 19.1364 -0.167537 49.5271 19.1364 -0.167537
323 2 51.4227 19.1404 1.47021 51.4227 19.1404 1.47021
324 2 51.434 19.1325 -1.79195 51.434 19.1325 -1.79195
325 1 1.04569 20.783 -0.161541 1.04569 20.783 -0.161541
326 2 2.93964 20.7875 1.47807 2.93964 20.7875 1.47807
327 2 2.95418 20.7784 -1.78407 2.95418 20.7784 -1.78407
328 1 3.89752 22.4295 -0.153309 3.89752 22.4295 -0.153309
329 2 5.79114 22.4349 1.48666 5.79114 22.4349 1.48666
330 2 5.80633 22.4241 -1.77547 5.80633 22.4241 -1.77547
331 1 6.74934 20.783 -0.134493 6.74934 20.783 -0.134493
332 2 8.6444 20.7865 1.50381 8.6444 20.7865 1.50381
333 2 8.65675 20.7794 -1.75834 8.65675 20.7794 -1.75834
334 1 9.60118 22.4295 -0.127224 9.60118 22.4295 -0.127224
335 2 11.4979 22.4343 1.5091 11.4979 22.4343 1.5091
336 2 11.5069 22.4246 -1.75305 11.5069 22.4246 -1.75305
337 1 12.453 20.783 -0.114451 12.453 20.783 -0.114451
338 2 14.3522 20.7867 1.51905 14.3522 20.7867 1.51905
339 2 14.3564 20.7793 -1.74312 14.3564 20.7793 -1.74312
340 1 15.3049 22.4295 -0.114558 15.3049 22.4295 -0.114558
341 2 17.2067 22.4346 1.5159 17.2067 22.4346 1.5159
342 2 17.2056 22.4243 -1.74627 17.2056 22.4243 -1.74627
343 1 18.1568 20.7829 -0.110279 18.1568 20.7829 -0.110279
344 2 20.0606 20.788 1.51777 20.0606 20.788 1.51777
345 2 20.0554 20.7779 -1.74439 20.0554 20.7779 -1.74439
346 1 21.0086 22.4294 -0.119914 21.0086 22.4294 -0.119914
347 2 22.9147 22.4357 1.50551 22.9147 22.4357 1.50551
348 2 22.9051 22.4231 -1.75664 22.9051 22.4231 -1.75664
349 1 23.8605 20.7829 -0.122034 23.8605 20.7829 -0.122034
350 2 25.7676 20.7899 1.50218 25.7676 20.7899 1.50218
351 2 25.7559 20.7759 -1.75995 25.7559 20.7759 -1.75995
352 1 26.7123 22.4294 -0.139377 26.7123 22.4294 -0.139377
353 2 28.6207 22.4371 1.48331 28.6207 22.4371 1.48331
354 2 28.6064 22.4217 -1.77881 28.6064 22.4217 -1.77881
355 1 29.5642 20.7829 -0.144167 29.5642 20.7829 -0.144167
356 2 31.4725 20.7914 1.47853 31.4725 20.7914 1.47853
357 2 31.4583 20.7743 -1.78358 31.4583 20.7743 -1.78358
358 1 32.416 22.4293 -0.165378 32.416 22.4293 -0.165378
359 2 34.3241 22.4379 1.45769 34.3241 22.4379 1.45769
360 2 34.3104 22.4208 -1.80442 34.3104 22.4208 -1.80442
361 1 35.2678 20.7829 -0.168716 35.2678 20.7829 -0.168716
362 2 37.1746 20.7918 1.45595 37.1746 20.7918 1.45595
363 2 37.1636 20.7739 -1.80616 37.1636 20.7739 -1.80616
364 1 38.1197 22.4293 -0.187354 38.1197 22.4293 -0.187354
365 2 40.0241 22.4379 1.44002 40.0241 22.4379 1.44002
366 2 40.0177 22.4209 -1.82212 40.0177 22.4209 -1.82212
367 1 40.9715 20.7829 -0.184285 40.9715 20.7829 -0.184285
368 2 42.8736 20.7908 1.44586 42.8736 20.7908 1.44586
369 2 42.8719 20.7749 -1.81629 42.8719 20.7749 -1.81629
370 1 43.8234 22.4294 -0.193754 43.8234 22.4294 -0.193754
371 2 45.7222 22.437 1.44018 45.7222 22.437 1.44018
372 2 45.727 22.4217 -1.82196 45.727 22.4217 -1.82196
373 1 46.6752 20.7829 -0.181703 46.6752 20.7829 -0.181703
374 2 48.572 20.7891 1.45462 48.572 20.7891 1.45462
375 2 48.5809 20.7767 -1.80753 48.5809 20.7767 -1.80753
376 1 49.5271 22.4294 -0.180127 49.5271 22.4294 -0.180127
377 2 51.4215 22.4359 1.45896 51.4215 22.4359 1.45896
378 2 51.4351 22.423 -1.80317 51.4351 22.423 -1.80317
379 1 1.0457 24.0759 -0.174637 1.0457 24.0759 -0.174637
380 2 2.93883 24.083 1.46591 2.93883 24.083 1.46591
381 2 2.955 24.0689 -1.79621 2.955 24.0689 -1.79621
382 1 3.89753 25.7224 -0.167506 3.89753 25.7224 -0.167506
383 2 5.79056 25.7301 1.47313 5.79056 25.7301 1.47313
384 2 5.80694 25.7148 -1.78898 5.80694 25.7148 -1.78898
385 1 6.74935 24.076 -0.145409 6.74935 24.076 -0.145409
386 2 8.64384 24.0823 1.49353 8.64384 24.0823 1.49353
387 2 8.65731 24.0697 -1.7686 8.65731 24.0697 -1.7686
388 1 9.60119 25.7225 -0.139964 9.60119 25.7225 -0.139964
389 2 11.4974 25.7294 1.4969 11.4974 25.7294 1.4969
390 2 11.5074 25.7155 -1.76524 11.5074 25.7155 -1.76524
391 1 12.453 24.076 -0.124233 12.453 24.076 -0.124233
392 2 14.3521 24.0818 1.50934 14.3521 24.0818 1.50934
393 2 14.3564 24.0701 -1.75282 14.3564 24.0701 -1.75282
394 1 15.3049 25.7224 -0.126408 15.3049 25.7224 -0.126408
395 2 17.2065 25.7287 1.50421 17.2065 25.7287 1.50421
396 2 17.2058 25.7161 -1.75795 17.2058 25.7161 -1.75795
397 1 18.1568 24.0759 -0.120704 18.1568 24.0759 -0.120704
398 2 20.061 24.0819 1.50685 20.061 24.0819 1.50685
399 2 20.055 24.0699 -1.75531 20.055 24.0699 -1.75531
400 1 21.0086 25.7224 -0.132071 21.0086 25.7224 -0.132071
401 2 22.9149 25.7285 1.49312 22.9149 25.7285 1.49312
402 2 22.9049 25.7163 -1.76903 22.9049 25.7163 -1.76903
403 1 23.8605 24.0759 -0.13475 23.8605 24.0759 -0.13475
404 2 25.7682 24.0826 1.48871 25.7682 24.0826 1.48871
405 2 25.7552 24.0692 -1.77343 25.7552 24.0692 -1.77343
406 1 26.7123 25.7224 -0.152955 26.7123 25.7224 -0.152955
407 2 28.621 25.7286 1.46937 28.621 25.7286 1.46937
408 2 28.6061 25.716 -1.79276 28.6061 25.716 -1.79276
409 1 29.5642 24.0758 -0.159699 29.5642 24.0758 -0.159699
410 2 31.4729 24.0834 1.46251 31.4729 24.0834 1.46251
411 2 31.4578 24.0683 -1.7996 31.4578 24.0683 -1.7996
412 1 32.416 25.7223 -0.180568 32.416 25.7223 -0.180568
413 2 34.3242 25.7291 1.44233 34.3242 25.7291 1.44233
414 2 34.3102 25.7156 -1.8198 34.3102 25.7156 -1.8198
415 1 35.2678 24.0758 -0.186002 35.2678 24.0758 -0.186002
416 2 37.1744 24.0838 1.43877 37.1744 24.0838 1.43877
417 2 37.1637 24.0678 -1.82336 37.1637 24.0678 -1.82336
418 1 38.1197 25.7223 -0.203523 38.1197 25.7223 -0.203523
419 2 40.024 25.7297 1.42395 40.024 25.7297 1.42395
420 2 40.0178 25.715 -1.83819 40.0178 25.715 -1.83819
421 1 40.9715 24.0758 -0.201512 40.9715 24.0758 -0.201512
422 2 42.873 24.0839 1.42931 42.873 24.0839 1.42931
423 2 42.8725 24.0678 -1.83283 42.8725 24.0678 -1.83283
424 1 43.8234 25.7223 -0.210016 43.8234 25.7223 -0.210016
425 2 45.7219 25.7302 1.42434 45.7219 25.7302 1.42434
426 2 45.7274 25.7146 -1.8378 45.7274 25.7146 -1.8378
427 1 46.6752 24.0759 -0.197208 46.6752 24.0759 -0.197208
428 2 48.5712 24.0835 1.44009 48.5712 24.0835 1.44009
429 2 48.5818 24.0683 -1.82204 48.5818 24.0683 -1.82204
430 1 49.5271 25.7224 -0.1956 49.5271 25.7224 -0.1956
431 2 51.421 25.7303 1.44408 51.421 25.7303 1.44408
432 2 51.4357 25.7145 -1.81803 51.4357 25.7145 -1.81803
433 1 1.04572 27.3689 -0.190695 1.04572 27.3689 -0.190695
434 2 2.93855 27.3773 1.45019 2.93855 27.3773 1.45019
435 2 2.95533 27.3606 -1.81191 2.95533 27.3606 -1.81191
436 1 3.89756 29.0154 -0.184389 3.89756 29.0154 -0.184389
437 2 5.79031 29.024 1.45656 5.79031 29.024 1.45656
438 2 5.80724 29.0068 -1.80554 5.80724 29.0068 -1.80554
439 1 6.74937 27.369 -0.160845 6.74937 27.369 -0.160845
440 2 8.64331 27.377 1.47872 8.64331 27.377 1.47872
441 2 8.65788 27.3609 -1.78339 8.65788 27.3609 -1.78339
442 1 9.60122 29.0154 -0.156203 9.60122 29.0154 -0.156203
443 2 11.4968 29.0233 1.48145 11.4968 29.0233 1.48145
444 2 11.5081 29.0075 -1.78067 11.5081 29.0075 -1.78067
445 1 12.4531 27.369 -0.138299 12.4531 27.369 -0.138299
446 2 14.3516 27.376 1.49593 14.3516 27.376 1.49593
447 2 14.357 27.3619 -1.76622 14.357 27.3619 -1.76622
448 1 15.3049 29.0154 -0.140718 15.3049 29.0154 -0.140718
449 2 17.2057 29.0218 1.49085 17.2057 29.0218 1.49085
450 2 17.2066 29.009 -1.77132 17.2066 29.009 -1.77132
451 1 18.1568 27.3689 -0.133482 18.1568 27.3689 -0.133482
452 2 20.0606 27.3749 1.49449 20.0606 27.3749 1.49449
453 2 20.0554 27.3629 -1.76767 20.0554 27.3629 -1.76767
454 1 21.0086 29.0154 -0.144208 21.0086 29.0154 -0.144208
455 2 22.9142 29.0202 1.48171 22.9142 29.0202 1.48171
456 2 22.9055 29.0105 -1.78045 22.9055 29.0105 -1.78045
457 1 23.8605 27.3689 -0.14704 23.8605 27.3689 -0.14704
458 2 25.7681 27.3742 1.4765 25.7681 27.3742 1.4765
459 2 25.7553 27.3635 -1.78564 25.7553 27.3635 -1.78564
460 1 26.7123 29.0153 -0.163717 26.7123 29.0153 -0.163717
461 2 28.6207 29.0192 1.45892 28.6207 29.0192 1.45892
462 2 28.6064 29.0114 -1.80322 28.6064 29.0114 -1.80322
463 1 29.5642 27.3688 -0.172439 29.5642 27.3688 -0.172439
464 2 31.473 27.3741 1.44968 31.473 27.3741 1.44968
465 2 31.4577 27.3636 -1.81245 31.4577 27.3636 -1.81245
466 1 32.416 29.0153 -0.191157 32.416 29.0153 -0.191157
467 2 34.3243 29.0192 1.43163 34.3243 29.0192 1.43163
468 2 34.3101 29.0114 -1.83052 34.3101 29.0114 -1.83052
469 1 35.2678 27.3688 -0.19965 35.2678 27.3688 -0.19965
470 2 37.1746 27.3746 1.42494 37.1746 27.3746 1.42494
471 2 37.1635 27.363 -1.83721 37.1635 27.363 -1.83721
472 1 38.1197 29.0153 -0.215247 38.1197 29.0153 -0.215247
473 2 40.0244 29.0203 1.41175 40.0244 29.0203 1.41175
474 2 40.0174 29.0103 -1.85041 40.0174 29.0103 -1.85041
475 1 40.9715 27.3688 -0.216334 40.9715 27.3688 -0.216334
476 2 42.8731 27.3757 1.41434 42.8731 27.3757 1.41434
477 2 42.8724 27.362 -1.84781 42.8724 27.362 -1.84781
478 1 43.8234 29.0153 -0.22386 43.8234 29.0153 -0.22386
479 2 45.7223 29.022 1.40998 45.7223 29.022 1.40998
480 2 45.727 29.0087 -1.85217 45.727 29.0087 -1.85217
481 1 46.6753 27.3689 -0.212977 46.6753 27.3689 -0.212977
482 2 48.5711 27.3767 1.42438 48.5711 27.3767 1.42438
483 2 48.5818 27.361 -1.83775 48.5818 27.361 -1.83775
484 1 49.5271 29.0154 -0.21149 49.5271 29.0154 -0.21149
485 2 51.4212 29.0235 1.42798 51.4212 29.0235 1.42798
486 2 51.4355 29.0073 -1.83414 51.4355 29.0073 -1.83414
487 1 1.04574 30.6619 -0.207066 1.04574 30.6619 -0.207066
488 2 2.93881 30.6702 1.43353 2.93881 30.6702 1.43353
489 2 2.95512 30.6536 -1.82857 2.95512 30.6536 -1.82857
490 1 3.89759 32.3084 -0.201113 3.89759 32.3084 -0.201113
491 2 5.79042 32.3165 1.43973 5.79042 32.3165 1.43973
492 2 5.80719 32.3003 -1.82237 5.80719 32.3003 -1.82237
493 1 6.7494 30.6619 -0.178236 6.7494 30.6619 -0.178236
494 2 8.64289 30.6703 1.46184 8.64289 30.6703 1.46184
495 2 8.65836 30.6535 -1.80027 8.65836 30.6535 -1.80027
496 1 9.60125 32.3084 -0.173208 9.60125 32.3084 -0.173208
497 2 11.496 32.3159 1.46536 11.496 32.3159 1.46536
498 2 11.5089 32.3009 -1.79677 11.5089 32.3009 -1.79677
499 1 12.4531 30.6619 -0.15433 12.4531 30.6619 -0.15433
500 2 14.3506 30.669 1.48103 14.3506 30.669 1.48103
501 2 14.358 30.6548 -1.78111 14.358 30.6548 -1.78111
502 1 15.3049 32.3084 -0.155072 15.3049 32.3084 -0.155072
503 2 17.2044 32.3138 1.47805 17.2044 32.3138 1.47805
504 2 17.208 32.303 -1.78412 17.208 32.303 -1.78412
505 1 18.1568 30.6619 -0.146506 18.1568 30.6619 -0.146506
506 2 20.0595 30.6668 1.48276 20.0595 30.6668 1.48276
507 2 20.0565 30.6569 -1.77941 20.0565 30.6569 -1.77941
508 1 21.0086 32.3084 -0.154268 21.0086 32.3084 -0.154268
509 2 22.9129 32.3111 1.4732 22.9129 32.3111 1.4732
510 2 22.9068 32.3056 -1.78898 22.9068 32.3056 -1.78898
511 1 23.8605 30.6618 -0.156873 23.8605 30.6618 -0.156873
512 2 25.7673 30.6649 1.4676 25.7673 30.6649 1.4676
513 2 25.7561 30.6588 -1.79456 25.7561 30.6588 -1.79456
514 1 26.7123 32.3083 -0.169856 26.7123 32.3083 -0.169856
515 2 28.6199 32.3091 1.4537 28.6199 32.3091 1.4537
516 2 28.6072 32.3075 -1.80846 28.6072 32.3075 -1.80846
517 1 29.5642 30.6618 -0.180308 29.5642 30.6618 -0.180308
518 2 31.4728 30.6639 1.44211 31.4728 30.6639 1.44211
519 2 31.458 30.6597 -1.82004 31.458 30.6597 -1.82004
520 1 32.416 32.3083 -0.195455 32.416 32.3083 -0.195455
521 2 34.3243 32.3088 1.42728 34.3243 32.3088 1.42728
522 2 34.3101 32.3079 -1.83487 34.3101 32.3079 -1.83487
523 1 35.2678 30.6618 -0.207547 35.2678 30.6618 -0.207547
524 2 37.175 30.6645 1.4166 37.175 30.6645 1.4166
525 2 37.1631 30.6591 -1.84556 37.1631 30.6591 -1.84556
526 1 38.1197 32.3083 -0.220663 38.1197 32.3083 -0.220663
527 2 40.0252 32.3102 1.40537 40.0252 32.3102 1.40537
528 2 40.0166 32.3065 -1.85679 40.0166 32.3065 -1.85679
529 1 40.9715 30.6618 -0.226429 40.9715 30.6618 -0.226429
530 2 42.8739 30.6664 1.40333 42.8739 30.6664 1.40333
531 2 42.8716 30.6573 -1.85883 42.8716 30.6573 -1.85883
532 1 43.8234 32.3083 -0.232982 43.8234 32.3083 -0.232982
533 2 45.7235 32.3127 1.39951 45.7235 32.3127 1.39951
534 2 45.7258 32.304 -1.86266 45.7258 32.304 -1.86266
535 1 46.6753 30.6618 -0.22646 46.6753 30.6618 -0.22646
536 2 48.5719 30.6686 1.41006 48.5719 30.6686 1.41006
537 2 48.5811 30.6551 -1.85208 48.5811 30.6551 -1.85208
538 1 49.5271 32.3084 -0.225115 49.5271 32.3084 -0.225115
539 2 51.422 32.3152 1.41337 51.422 32.3152 1.41337
540 2 51.4347 32.3015 -1.84876 51.4347 32.3015 -1.84876