ITEM: TIMESTEP
3000
ITEM: NUMBER OF ATOMS
810
ITEM: BOX BOUNDS pp pp pp
8.7250683278713237e-01 5.2145098167212801e+01
8.5588982629254473e-01 5.0160325173706674e+01
-1.0000000000000000e+01 1.0000000000000000e+01
ITEM: ATOMS id type x y z xu yu zu
1 1 1.06768 1.09294 0.199752 1.06768 1.09294 0.199752
2 2 3.03166 0.962315 1.74724 3.03166 0.962315 1.74724
3 2 2.90111 1.21765 -1.50272 2.90111 1.21765 -1.50272
4 1 3.92226 2.7284 0.214746 3.92226 2.7284 0.214746
5 2 5.85897 2.63682 1.80318 5.85897 2.63682 1.80318
6 2 5.78725 2.80021 -1.45461 5.78725 2.80021 -1.45461
7 1 6.77092 1.07339 0.0712257 6.77092 1.07339 0.0712257
8 2 8.63986 0.964629 1.73786 8.63986 0.964629 1.73786
9 2 8.70431 1.15435 -1.51831 8.70431 1.15435 -1.51831
10 1 9.62933 2.69618 0.224084 9.62933 2.69618 0.224084
11 2 11.5509 2.57516 1.82935 11.5509 2.57516 1.82935
12 2 11.5123 2.7969 -1.42485 11.5123 2.7969 -1.42485
13 1 12.4816 1.04182 0.0804083 12.4816 1.04182 0.0804083
14 2 14.4879 50.1661 1.57081 14.4879 0.861662 1.57081
15 2 14.2741 1.21581 -1.66484 14.2741 1.21581 -1.66484
16 1 15.3398 2.67599 0.069204 15.3398 2.67599 0.069204
17 2 17.3883 2.52328 1.50496 17.3883 2.52328 1.50496
18 2 17.0816 2.83569 -1.72759 17.0816 2.83569 -1.72759
19 1 18.1763 1.04709 -0.360661 18.1763 1.04709 -0.360661
20 2 20.2198 50.1884 1.07844 20.2198 0.883916 1.07844
21 2 19.9209 1.22788 -2.15161 19.9209 1.22788 -2.15161
22 1 21.0268 2.6962 -0.449126 21.0268 2.6962 -0.449126
23 2 23.026 2.56759 1.05666 23.026 2.56759 1.05666
24 2 22.8239 2.84463 -2.18764 22.8239 2.84463 -2.18764
25 1 23.8727 1.07088 -0.764948 23.8727 1.07088 -0.764948
26 2 25.7589 0.965484 0.885601 25.7589 0.965484 0.885601
27 2 25.7935 1.18282 -2.36911 25.7935 1.18282 -2.36911
28 1 26.7311 2.71567 -0.619918 26.7311 2.71567 -0.619918
29 2 28.5967 2.65175 1.05284 28.5967 2.65175 1.05284
30 2 28.6673 2.79415 -2.20563 28.6673 2.79415 -2.20563
31 1 29.5777 1.07855 -0.626178 29.5777 1.07855 -0.626178
32 2 31.4057 0.956574 1.08333 31.4057 0.956574 1.08333
33 2 31.5481 1.21663 -2.16546 31.5481 1.21663 -2.16546
34 1 32.4288 2.72773 -0.369972 32.4288 2.72773 -0.369972
35 2 34.218 2.57464 1.37739 34.218 2.57464 1.37739
36 2 34.4328 2.89574 -1.86199 34.4328 2.89574 -1.86199
37 1 35.2704 1.09238 -0.341199 35.2704 1.09238 -0.341199
38 2 37.053 0.909385 1.40914 37.053 0.909385 1.40914
39 2 37.2784 1.28825 -1.82323 37.2784 1.28825 -1.82323
40 1 38.1114 2.73301 0.0518074 38.1114 2.73301 0.0518074
41 2 39.9064 2.56769 1.79093 39.9064 2.56769 1.79093
42 2 40.1091 2.91005 -1.44698 40.1091 2.91005 -1.44698
43 1 40.9517 1.09595 0.0571053 40.9517 1.09595 0.0571053
44 2 42.7446 0.902058 1.79506 42.7446 0.902058 1.79506
45 2 42.9497 1.29326 -1.4372 42.9497 1.29326 -1.4372
46 1 43.7967 2.72979 0.438557 43.7967 2.72979 0.438557
47 2 45.6661 2.57513 2.09978 45.6661 2.57513 2.09978
48 2 45.7297 2.89279 -1.146 45.7297 2.89279 -1.146
49 1 46.6418 1.09133 0.333622 46.6418 1.09133 0.333622
50 2 48.5628 0.911902 1.92994 48.5628 0.911902 1.92994
51 2 48.5217 1.27778 -1.31163 48.5217 1.27778 -1.31163
52 1 49.4979 2.73031 0.482443 49.4979 2.73031 0.482443
53 2 51.4691 2.5796 2.02 51.4691 2.5796 2.02
54 2 51.3252 2.8838 -1.22485 51.3252 2.8838 -1.22485
55 1 1.08084 4.37119 0.509967 1.08084 4.37119 0.509967
56 2 3.08602 4.26778 2.0069 3.08602 4.26778 2.0069
57 2 2.86927 4.47346 -1.24182 2.86927 4.47346 -1.24182
58 1 3.93202 6.01251 0.423321 3.93202 6.01251 0.423321
59 2 5.90621 5.95109 1.96407 5.90621 5.95109 1.96407
60 2 5.75605 6.05688 -1.29334 5.75605 6.05688 -1.29334
61 1 6.77896 4.3578 0.238067 6.77896 4.3578 0.238067
62 2 8.6691 4.30566 1.88533 8.6691 4.30566 1.88533
63 2 8.69239 4.38333 -1.3762 8.69239 4.38333 -1.3762
64 1 9.63667 5.98406 0.301821 9.63667 5.98406 0.301821
65 2 11.5213 5.94098 1.95371 11.5213 5.94098 1.95371
66 2 11.5542 6.00594 -1.3076 11.5542 6.00594 -1.3076
67 1 12.4892 4.32486 0.301966 12.4892 4.32486 0.301966
68 2 14.4648 4.21724 1.84115 14.4648 4.21724 1.84115
69 2 14.3173 4.42063 -1.41087 14.3173 4.42063 -1.41087
70 1 15.3463 5.96187 0.27412 15.3463 5.96187 0.27412
71 2 17.3746 5.87877 1.74264 17.3746 5.87877 1.74264
72 2 17.1121 6.04395 -1.50492 17.1121 6.04395 -1.50492
73 1 18.1898 4.32121 -0.0422319 18.1898 4.32121 -0.0422319
74 2 20.2415 4.20416 1.38994 20.2415 4.20416 1.38994
75 2 19.9236 4.45556 -1.84738 19.9236 4.45556 -1.84738
76 1 21.0351 5.97363 -0.195049 21.0351 5.97363 -0.195049
77 2 23.0234 5.85498 1.32327 23.0234 5.85498 1.32327
78 2 22.8428 6.10977 -1.92484 22.8428 6.10977 -1.92484
79 1 23.8807 4.34779 -0.48359 23.8807 4.34779 -0.48359
80 2 25.8123 4.27404 1.11064 25.8123 4.27404 1.11064
81 2 25.7518 4.4381 -2.14729 25.7518 4.4381 -2.14729
82 1 26.737 6.00069 -0.452809 26.737 6.00069 -0.452809
83 2 28.5864 5.88434 1.23497 28.5864 5.88434 1.23497
84 2 28.691 6.13267 -2.01626 28.691 6.13267 -2.01626
85 1 29.5885 4.368 -0.484377 29.5885 4.368 -0.484377
86 2 31.3552 4.25708 1.29126 31.3552 4.25708 1.29126
87 2 31.6149 4.48941 -1.9523 31.6149 4.48941 -1.9523
88 1 32.435 6.01273 -0.137581 32.435 6.01273 -0.137581
89 2 34.1553 5.83737 1.67544 34.1553 5.83737 1.67544
90 2 34.4965 6.19273 -1.54928 34.4965 6.19273 -1.54928
91 1 35.273 4.37263 -0.0172472 35.273 4.37263 -0.0172472
92 2 37.0385 4.22316 1.75283 37.0385 4.22316 1.75283
93 2 37.2964 4.5326 -1.48446 37.2964 4.5326 -1.48446
94 1 38.1151 6.0143 0.367886 38.1151 6.0143 0.367886
95 2 39.9171 5.89355 2.10289 39.9171 5.89355 2.10289
96 2 40.1088 6.14847 -1.14351 40.1088 6.14847 -1.14351
97 1 40.9567 4.37476 0.406034 40.9567 4.37476 0.406034
98 2 42.7687 4.2616 2.13219 42.7687 4.2616 2.13219
99 2 42.9406 4.49624 -1.11671 42.9406 4.49624 -1.11671
100 1 43.8088 6.019 0.677266 43.8088 6.019 0.677266
101 2 45.663 5.91783 2.35914 45.663 5.91783 2.35914
102 2 45.756 6.12529 -0.894588 45.756 6.12529 -0.894588
103 1 46.6525 4.37213 0.655988 46.6525 4.37213 0.655988
104 2 48.5702 4.22952 2.26213 48.5702 4.22952 2.26213
105 2 48.5382 4.51773 -0.986684 48.5382 4.51773 -0.986684
106 1 49.5114 6.01386 0.773491 49.5114 6.01386 0.773491
107 2 51.4979 5.90766 2.29542 51.4979 5.90766 2.29542
108 2 51.3247 6.12309 -0.954704 51.3247 6.12309 -0.954704
109 1 1.09369 7.6591 0.727829 1.09369 7.6591 0.727829
110 2 3.1068 7.56175 2.21269 3.1068 7.56175 2.21269
111 2 2.87294 7.7515 -1.03562 2.87294 7.7515 -1.03562
112 1 3.94496 9.29924 0.616761 3.94496 9.29924 0.616761
113 2 5.9601 9.23272 2.10212 5.9601 9.23272 2.10212
114 2 5.72162 9.34993 -1.14955 5.72162 9.34993 -1.14955
115 1 6.78602 7.64504 0.346578 6.78602 7.64504 0.346578
116 2 8.70538 7.61359 1.95991 8.70538 7.61359 1.95991
117 2 8.67122 7.6495 -1.30237 8.67122 7.6495 -1.30237
118 1 9.6421 9.27269 0.339999 9.6421 9.27269 0.339999
119 2 11.5533 9.3026 1.9615 11.5533 9.3026 1.9615
120 2 11.5326 9.22309 -1.30002 11.5326 9.22309 -1.30002
121 1 12.4932 7.61551 0.366061 12.4932 7.61551 0.366061
122 2 14.4446 7.6046 1.93784 14.4446 7.6046 1.93784
123 2 14.3438 7.61467 -1.32262 14.3438 7.61467 -1.32262
124 1 15.3452 9.25543 0.282707 15.3452 9.25543 0.282707
125 2 17.346 9.27276 1.79006 17.346 9.27276 1.79006
126 2 17.1388 9.23197 -1.4659 17.1388 9.23197 -1.4659
127 1 18.1938 7.60692 0.124652 18.1938 7.60692 0.124652
128 2 20.2172 7.51534 1.59885 20.2172 7.51534 1.59885
129 2 19.9609 7.70524 -1.64855 19.9609 7.70524 -1.64855
130 1 21.0393 9.25564 -0.00433853 21.0393 9.25564 -0.00433853
131 2 23.019 9.18529 1.52866 23.019 9.18529 1.52866
132 2 22.8547 9.33787 -1.72714 22.8547 9.33787 -1.72714
133 1 23.8866 7.62403 -0.224875 23.8866 7.62403 -0.224875
134 2 25.8425 7.50971 1.33419 25.8425 7.50971 1.33419
135 2 25.7279 7.76081 -1.9172 25.7279 7.76081 -1.9172
136 1 26.7381 9.27761 -0.197442 26.7381 9.27761 -0.197442
137 2 28.5843 9.15284 1.49353 28.5843 9.15284 1.49353
138 2 28.6913 9.41853 -1.75706 28.6913 9.41853 -1.75706
139 1 29.5911 7.64883 -0.233978 29.5911 7.64883 -0.233978
140 2 31.3396 7.49137 1.55682 31.3396 7.49137 1.55682
141 2 31.6313 7.81454 -1.67659 31.6313 7.81454 -1.67659
142 1 32.4277 9.28727 0.191368 32.4277 9.28727 0.191368
143 2 34.1601 9.16293 1.99892 34.1601 9.16293 1.99892
144 2 34.4789 9.41927 -1.23736 34.4789 9.41927 -1.23736
145 1 35.2682 7.6474 0.34329 35.2682 7.6474 0.34329
146 2 37.0627 7.50146 2.08551 37.0627 7.50146 2.08551
147 2 37.2709 7.80987 -1.15504 37.2709 7.80987 -1.15504
148 1 38.1147 9.295 0.683311 38.1147 9.295 0.683311
149 2 39.9677 9.20373 2.36815 39.9677 9.20373 2.36815
150 2 40.0669 9.40794 -0.885469 40.0669 9.40794 -0.885469
151 1 40.9646 7.66119 0.665519 40.9646 7.66119 0.665519
152 2 42.8079 7.57934 2.36024 42.8079 7.57934 2.36024
153 2 42.9232 7.75577 -0.894599 42.9232 7.75577 -0.894599
154 1 43.8203 9.31147 0.855804 43.8203 9.31147 0.855804
155 2 45.659 9.21099 2.55565 45.659 9.21099 2.55565
156 2 45.7836 9.41438 -0.696868 45.7836 9.41438 -0.696868
157 1 46.6657 7.66353 0.863213 46.6657 7.66353 0.863213
158 2 48.5551 7.55452 2.50358 48.5551 7.55452 2.50358
159 2 48.58 7.77114 -0.750446 48.58 7.77114 -0.750446
160 1 49.5254 9.30533 0.992543 49.5254 9.30533 0.992543
161 2 51.5029 9.1774 2.52534 51.5029 9.1774 2.52534
162 2 51.3504 9.4308 -0.722441 51.3504 9.4308 -0.722441
163 1 1.11271 10.9476 0.984277 1.11271 10.9476 0.984277
164 2 3.1609 10.8503 2.42428 3.1609 10.8503 2.42428
165 2 2.85521 11.039 -0.817339 2.85521 11.039 -0.817339
166 1 3.9636 12.5897 0.81075 3.9636 12.5897 0.81075
167 2 6.03543 12.5606 2.2184 6.03543 12.5606 2.2184
168 2 5.6717 12.6028 -1.02319 5.6717 12.6028 -1.02319
169 1 6.79486 10.933 0.468427 6.79486 10.933 0.468427
170 2 8.77755 10.9371 2.00167 8.77755 10.9371 2.00167
171 2 8.61013 10.9036 -1.25675 8.61013 10.9036 -1.25675
172 1 9.6445 12.5628 0.310173 9.6445 12.5628 0.310173
173 2 11.6227 12.6638 1.84519 11.6227 12.6638 1.84519
174 2 11.4632 12.44 -1.40612 11.4632 12.44 -1.40612
175 1 12.494 10.9068 0.286452 12.494 10.9068 0.286452
176 2 14.4535 10.9989 1.84428 14.4535 10.9989 1.84428
177 2 14.3322 10.8037 -1.41028 14.3322 10.8037 -1.41028
178 1 15.3378 12.5427 0.0815068 15.3378 12.5427 0.0815068
179 2 17.2911 12.6298 1.64538 17.2911 12.6298 1.64538
180 2 17.1802 12.4494 -1.61098 17.1802 12.4494 -1.61098
181 1 18.1886 10.8972 0.0794166 18.1886 10.8972 0.0794166
182 2 20.141 10.9058 1.64844 20.141 10.9058 1.64844
183 2 20.0331 10.8919 -1.61316 20.0331 10.8919 -1.61316
184 1 21.0337 12.5441 -0.0223241 21.0337 12.5441 -0.0223241
185 2 22.9608 12.5466 1.57679 22.9608 12.5466 1.57679
186 2 22.9046 12.5485 -1.68639 22.9046 12.5485 -1.68639
187 1 23.8859 10.9066 -0.0700848 23.8859 10.9066 -0.0700848
188 2 25.8091 10.8268 1.53305 25.8091 10.8268 1.53305
189 2 25.7615 11.0027 -1.72545 25.7615 11.0027 -1.72545
190 1 26.7337 12.5589 -0.0209546 26.7337 12.5589 -0.0209546
191 2 28.5668 12.5069 1.68646 28.5668 12.5069 1.68646
192 2 28.6971 12.6252 -1.57232 28.6971 12.6252 -1.57232
193 1 29.5849 10.9255 0.0364891 29.5849 10.9255 0.0364891
194 2 31.3378 10.8346 1.8274 31.3378 10.8346 1.8274
195 2 31.6188 11.0248 -1.41785 31.6188 11.0248 -1.41785
196 1 32.4228 12.5707 0.385451 32.4228 12.5707 0.385451
197 2 34.1819 12.5577 2.17149 34.1819 12.5577 2.17149
198 2 34.4541 12.5975 -1.07892 34.4541 12.5975 -1.07892
199 1 35.2647 10.9309 0.605636 35.2647 10.9309 0.605636
200 2 37.0785 10.8659 2.33519 37.0785 10.8659 2.33519
201 2 37.2537 11.0155 -0.918114 37.2537 11.0155 -0.918114
202 1 38.1173 12.5864 0.834767 38.1173 12.5864 0.834767
203 2 39.9658 12.539 2.52773 39.9658 12.539 2.52773
204 2 40.0756 12.6531 -0.729684 40.0756 12.6531 -0.729684
205 1 40.9702 10.9503 0.87384 40.9702 10.9503 0.87384
206 2 42.8323 10.8682 2.55005 42.8323 10.8682 2.55005
207 2 42.9138 11.0478 -0.70523 42.9138 11.0478 -0.70523
208 1 43.8271 12.6033 1.03839 43.8271 12.6033 1.03839
209 2 45.681 12.5523 2.72507 45.681 12.5523 2.72507
210 2 45.7789 12.6601 -0.532493 45.7789 12.6601 -0.532493
211 1 46.6769 10.9558 1.06964 46.6769 10.9558 1.06964
212 2 48.5792 10.8769 2.70043 48.5792 10.8769 2.70043
213 2 48.5821 11.0353 -0.556491 48.5821 11.0353 -0.556491
214 1 49.538 12.6019 1.15384 49.538 12.6019 1.15384
215 2 51.4995 12.5336 2.71305 51.4995 12.5336 2.71305
216 2 51.3826 12.6645 -0.542496 51.3826 12.6645 -0.542496
217 1 1.12731 14.2475 1.11776 1.12731 14.2475 1.11776
218 2 3.18326 14.215 2.55303 3.18326 14.215 2.55303
219 2 2.8655 14.2672 -0.691451 2.8655 14.2672 -0.691451
220 1 3.97838 15.8901 0.863917 3.97838 15.8901 0.863917
221 2 6.09561 15.9369 2.20502 6.09561 15.9369 2.20502
222 2 5.63244 15.8173 -1.02112 5.63244 15.8173 -1.02112
223 1 6.80458 14.225 0.515507 6.80458 14.225 0.515507
224 2 8.86796 14.3079 1.93393 8.86796 14.3079 1.93393
225 2 8.52288 14.1148 -1.30474 8.52288 14.1148 -1.30474
226 1 9.63718 15.8485 0.118446 9.63718 15.8485 0.118446
227 2 11.6559 15.9865 1.59679 11.6559 15.9865 1.59679
228 2 11.4102 15.6826 -1.64234 11.4102 15.6826 -1.64234
229 1 12.4867 14.1916 0.0602364 12.4867 14.1916 0.0602364
230 2 14.4475 14.3108 1.61407 14.4475 14.3108 1.61407
231 2 14.322 14.0585 -1.63668 14.322 14.0585 -1.63668
232 1 15.3279 15.8249 -0.176842 15.3279 15.8249 -0.176842
233 2 17.2444 15.9196 1.43256 17.2444 15.9196 1.43256
234 2 17.2101 15.7267 -1.82466 17.2101 15.7267 -1.82466
235 1 18.1806 14.1821 -0.10757 18.1806 14.1821 -0.10757
236 2 20.0754 14.2595 1.52742 20.0754 14.2595 1.52742
237 2 20.0838 14.1091 -1.73256 20.0838 14.1091 -1.73256
238 1 21.0257 15.8282 -0.17718 21.0257 15.8282 -0.17718
239 2 22.8779 15.8526 1.50885 22.8779 15.8526 1.50885
240 2 22.9716 15.8113 -1.75306 22.9716 15.8113 -1.75306
241 1 23.88 14.1927 -0.0719125 23.88 14.1927 -0.0719125
242 2 25.7345 14.1701 1.61135 25.7345 14.1701 1.61135
243 2 25.824 14.2272 -1.65057 25.824 14.2272 -1.65057
244 1 26.7249 15.8435 0.0351345 26.7249 15.8435 0.0351345
245 2 28.5373 15.8203 1.76412 28.5373 15.8203 1.76412
246 2 28.7081 15.8756 -1.49415 28.7081 15.8756 -1.49415
247 1 29.5792 14.2089 0.156714 29.5792 14.2089 0.156714
248 2 31.3415 14.2091 1.93868 31.3415 14.2091 1.93868
249 2 31.6066 14.2182 -1.31344 31.6066 14.2182 -1.31344
250 1 32.4221 15.8579 0.397028 32.4221 15.8579 0.397028
251 2 34.2079 15.917 2.15428 34.2079 15.917 2.15428
252 2 34.4322 15.8114 -1.09867 34.4322 15.8114 -1.09867
253 1 35.2687 14.2227 0.646844 35.2687 14.2227 0.646844
254 2 37.07 14.2456 2.38969 37.07 14.2456 2.38969
255 2 37.2671 14.2182 -0.865958 37.2671 14.2182 -0.865958
256 1 38.1213 15.8785 0.804665 38.1213 15.8785 0.804665
257 2 39.9122 15.8779 2.55966 39.9122 15.8779 2.55966
258 2 40.1303 15.8976 -0.694176 40.1303 15.8976 -0.694176
259 1 40.9734 14.2433 0.988 40.9734 14.2433 0.988
260 2 42.8104 14.1857 2.69313 42.8104 14.1857 2.69313
261 2 42.9426 14.314 -0.562468 42.9426 14.314 -0.562468
262 1 43.8277 15.8988 1.17036 43.8277 15.8988 1.17036
263 2 45.7197 15.8895 2.81754 45.7197 15.8895 2.81754
264 2 45.748 15.9144 -0.442419 45.748 15.9144 -0.442419
265 1 46.6851 14.2532 1.18186 46.6851 14.2532 1.18186
266 2 48.5923 14.2295 2.80927 48.5923 14.2295 2.80927
267 2 48.5873 14.2771 -0.450711 48.5873 14.2771 -0.450711
268 1 49.5459 15.9033 1.20432 49.5459 15.9033 1.20432
269 2 51.5245 15.9432 2.74594 51.5245 15.9432 2.74594
270 2 51.3754 15.8588 -0.509272 51.3754 15.8588 -0.509272
271 1 1.13093 17.5511 1.03277 1.13093 17.5511 1.03277
272 2 3.18569 17.6467 2.46881 3.18569 17.6467 2.46881
273 2 2.87106 17.4393 -0.769205 2.87106 17.4393 -0.769205
274 1 3.97437 19.1866 0.651039 3.97437 19.1866 0.651039
275 2 6.10304 19.3402 1.96648 6.10304 19.3402 1.96648
276 2 5.61451 18.9954 -1.23929 5.61451 18.9954 -1.23929
277 1 6.80724 17.5179 0.396135 6.80724 17.5179 0.396135
278 2 8.9326 17.6478 1.71542 8.9326 17.6478 1.71542
279 2 8.44256 17.3474 -1.49552 8.44256 17.3474 -1.49552
280 1 9.62216 19.1268 -0.185558 9.62216 19.1268 -0.185558
281 2 11.6539 19.2825 1.27446 11.6539 19.2825 1.27446
282 2 11.3822 18.9438 -1.9583 11.3822 18.9438 -1.9583
283 1 12.4734 17.4703 -0.248162 12.4734 17.4703 -0.248162
284 2 14.4129 17.5987 1.33495 14.4129 17.5987 1.33495
285 2 14.3353 17.3329 -1.91587 14.3353 17.3329 -1.91587
286 1 15.3173 19.1072 -0.447961 15.3173 19.1072 -0.447961
287 2 17.2098 19.2321 1.18931 17.2098 19.2321 1.18931
288 2 17.2253 18.9795 -2.06352 17.2253 18.9795 -2.06352
289 1 18.1718 17.4669 -0.303728 18.1718 17.4669 -0.303728
290 2 20.0516 17.5557 1.34979 20.0516 17.5557 1.34979
291 2 20.0909 17.3788 -1.90836 20.0909 17.3788 -1.90836
292 1 21.0178 19.1113 -0.356774 21.0178 19.1113 -0.356774
293 2 22.8296 19.199 1.37349 22.8296 19.199 1.37349
294 2 23.0021 19.0323 -1.88074 23.0021 19.0323 -1.88074
295 1 23.8698 17.4782 -0.116428 23.8698 17.4782 -0.116428
296 2 25.6874 17.4897 1.60896 25.6874 17.4897 1.60896
297 2 25.8487 17.4743 -1.65014 25.8487 17.4743 -1.65014
298 1 26.7123 19.1295 0.0196038 26.7123 19.1295 0.0196038
299 2 28.5403 19.1991 1.73383 28.5403 19.1991 1.73383
300 2 28.6847 19.0659 -1.52276 28.6847 19.0659 -1.52276
301 1 29.5679 17.4937 0.214763 29.5679 17.4937 0.214763
302 2 31.3938 17.5504 1.93061 31.3938 17.5504 1.93061
303 2 31.5423 17.444 -1.32694 31.5423 17.444 -1.32694
304 1 32.4182 19.1428 0.293719 32.4182 19.1428 0.293719
305 2 34.252 19.2702 1.99937 34.252 19.2702 1.99937
306 2 34.3867 19.0223 -1.25076 34.3867 19.0223 -1.25076
307 1 35.2713 17.5097 0.540492 35.2713 17.5097 0.540492
308 2 37.0563 17.5788 2.3005 37.0563 17.5788 2.3005
309 2 37.2833 17.4577 -0.951265 37.2833 17.4577 -0.951265
310 1 38.1194 19.1663 0.679918 38.1194 19.1663 0.679918
311 2 39.8865 19.2699 2.45785 39.8865 19.2699 2.45785
312 2 40.1486 19.0853 -0.787369 40.1486 19.0853 -0.787369
313 1 40.9698 17.5382 1.00714 40.9698 17.5382 1.00714
314 2 42.7941 17.5677 2.72918 42.7941 17.5677 2.72918
315 2 42.9528 17.5226 -0.526709 42.9528 17.5226 -0.526709
316 1 43.8242 19.1988 1.12581 43.8242 19.1988 1.12581
317 2 45.7408 19.3001 2.74316 45.7408 19.3001 2.74316
318 2 45.7248 19.1015 -0.51038 45.7248 19.1015 -0.51038
319 1 46.6873 17.5538 1.21147 46.6873 17.5538 1.21147
320 2 48.6457 17.6362 2.7782 48.6457 17.6362 2.7782
321 2 48.5413 17.4708 -0.475836 48.5413 17.4708 -0.475836
322 1 49.5448 19.2014 1.03893 49.5448 19.2014 1.03893
323 2 51.5524 19.3714 2.53355 51.5524 19.3714 2.53355
324 2 51.3412 19.0234 -0.70101 51.3412 19.0234 -0.70101
325 1 1.11712 20.8346 0.678295 1.11712 20.8346 0.678295
326 2 3.1563 21.0479 2.11945 3.1563 21.0479 2.11945
327 2 2.8703 20.6071 -1.09854 2.8703 20.6071 -1.09854
328 1 3.94804 22.4568 0.201732 3.94804 22.4568 0.201732
329 2 6.04284 22.6427 1.56173 6.04284 22.6427 1.56173
330 2 5.62682 22.2363 -1.64758 5.62682 22.2363 -1.64758
331 1 6.78898 20.7958 0.0432894 6.78898 20.7958 0.0432894
332 2 8.90217 20.948 1.37722 8.90217 20.948 1.37722
333 2 8.44001 20.6007 -1.83275 8.44001 20.6007 -1.83275
334 1 9.60555 22.4031 -0.541206 9.60555 22.4031 -0.541206
335 2 11.6134 22.531 0.952828 11.6134 22.531 0.952828
336 2 11.3955 22.2564 -2.28951 11.3955 22.2564 -2.28951
337 1 12.4591 20.7475 -0.592323 12.4591 20.7475 -0.592323
338 2 14.3697 20.8963 1.02633 14.3697 20.8963 1.02633
339 2 14.3559 20.5953 -2.22159 14.3559 20.5953 -2.22159
340 1 15.3073 22.388 -0.754363 15.3073 22.388 -0.754363
341 2 17.1622 22.4966 0.92704 17.1622 22.4966 0.92704
342 2 17.2552 22.2789 -2.32633 17.2552 22.2789 -2.32633
343 1 18.1634 20.7483 -0.561271 18.1634 20.7483 -0.561271
344 2 20.0102 20.8564 1.12876 20.0102 20.8564 1.12876
345 2 20.1167 20.6417 -2.12504 20.1167 20.6417 -2.12504
346 1 21.0109 22.3934 -0.575909 21.0109 22.3934 -0.575909
347 2 22.8048 22.4996 1.17083 22.8048 22.4996 1.17083
348 2 23.0132 22.2925 -2.07846 23.0132 22.2925 -2.07846
349 1 23.8624 20.7604 -0.287003 23.8624 20.7604 -0.287003
350 2 25.6485 20.8728 1.4681 25.6485 20.8728 1.4681
351 2 25.8699 20.6579 -1.78 25.8699 20.6579 -1.78
352 1 26.7087 22.4087 -0.200081 26.7087 22.4087 -0.200081
353 2 28.5417 22.5724 1.4999 28.5417 22.5724 1.4999
354 2 28.6775 22.2496 -1.74369 28.6775 22.2496 -1.74369
355 1 29.5624 20.7781 0.0811839 29.5624 20.7781 0.0811839
356 2 31.438 20.9404 1.73621 31.438 20.9404 1.73621
357 2 31.4933 20.6163 -1.50949 31.4933 20.6163 -1.50949
358 1 32.4197 22.4134 -0.0352198 32.4197 22.4134 -0.0352198
359 2 34.2364 22.5884 1.68376 34.2364 22.5884 1.68376
360 2 34.4045 22.2465 -1.55604 34.4045 22.2465 -1.55604
361 1 35.2727 20.7873 0.288567 35.2727 20.7873 0.288567
362 2 37.0361 20.948 2.06586 37.0361 20.948 2.06586
363 2 37.3035 20.6482 -1.17127 37.3035 20.6482 -1.17127
364 1 38.1198 22.4416 0.373838 38.1198 22.4416 0.373838
365 2 39.8754 22.647 2.15307 39.8754 22.647 2.15307
366 2 40.1571 22.2631 -1.0734 40.1571 22.2631 -1.0734
367 1 40.9663 20.8277 0.818911 40.9663 20.8277 0.818911
368 2 42.7817 20.9863 2.54348 42.7817 20.9863 2.54348
369 2 42.9568 20.6883 -0.698204 42.9568 20.6883 -0.698204
370 1 43.8201 22.4847 0.82208 43.8201 22.4847 0.82208
371 2 45.737 22.6909 2.42652 45.737 22.6909 2.42652
372 2 45.7167 22.2812 -0.807934 45.7167 22.2812 -0.807934
373 1 46.6841 20.8496 1.01118 46.6841 20.8496 1.01118
374 2 48.6788 21.0293 2.52161 48.6788 21.0293 2.52161
375 2 48.4984 20.6598 -0.712542 48.4984 20.6598 -0.712542
376 1 49.5319 22.4802 0.664141 49.5319 22.4802 0.664141
377 2 51.5499 22.693 2.1353 51.5499 22.693 2.1353
378 2 51.3111 22.2523 -1.08689 51.3111 22.2523 -1.08689
379 1 1.09407 24.1034 0.230703 1.09407 24.1034 0.230703
380 2 3.13989 24.3296 1.6574 3.13989 24.3296 1.6574
381 2 2.83481 23.8565 -1.55507 2.83481 23.8565 -1.55507
382 1 3.91706 25.721 -0.279427 3.91706 25.721 -0.279427
383 2 5.95263 25.8631 1.17211 5.95263 25.8631 1.17211
384 2 5.66987 25.5622 -2.06333 5.66987 25.5622 -2.06333
385 1 6.76452 24.0667 -0.3742 6.76452 24.0667 -0.3742
386 2 8.82964 24.1901 1.03563 8.82964 24.1901 1.03563
387 2 8.48053 23.9146 -2.19526 8.48053 23.9146 -2.19526
388 1 9.59461 25.6902 -0.822937 9.59461 25.6902 -0.822937
389 2 11.5722 25.7671 0.714839 11.5722 25.7671 0.714839
390 2 11.4192 25.6 -2.53828 11.4192 25.6 -2.53828
391 1 12.4487 24.0339 -0.871274 12.4487 24.0339 -0.871274
392 2 14.3398 24.1234 0.774289 14.3398 24.1234 0.774289
393 2 14.3664 23.9418 -2.48196 14.3664 23.9418 -2.48196
394 1 15.2994 25.6795 -0.937742 15.2994 25.6795 -0.937742
395 2 17.1336 25.7131 0.771505 17.1336 25.7131 0.771505
396 2 17.2675 25.6452 -2.48675 17.2675 25.6452 -2.48675
397 1 18.1557 24.0338 -0.784105 18.1557 24.0338 -0.784105
398 2 19.9688 24.092 0.943856 19.9688 24.092 0.943856
399 2 20.142 23.978 -2.3116 20.142 23.978 -2.3116
400 1 21.0013 25.6825 -0.690931 21.0013 25.6825 -0.690931
401 2 22.81 25.7197 1.04263 22.81 25.7197 1.04263
402 2 22.9906 25.6469 -2.21374 22.9906 25.6469 -2.21374
403 1 23.8568 24.0412 -0.497395 23.8568 24.0412 -0.497395
404 2 25.6518 24.1597 1.24613 25.6518 24.1597 1.24613
405 2 25.8585 23.9268 -2.00146 25.8585 23.9268 -2.00146
406 1 26.7044 25.6876 -0.435397 26.7044 25.6876 -0.435397
407 2 28.5595 25.7958 1.24332 28.5595 25.7958 1.24332
408 2 28.6524 25.5784 -2.01043 28.6524 25.5784 -2.01043
409 1 29.5618 24.0491 -0.247631 29.5618 24.0491 -0.247631
410 2 31.4312 24.2021 1.41125 31.4312 24.2021 1.41125
411 2 31.4962 23.8923 -1.83539 31.4962 23.8923 -1.83539
412 1 32.4155 25.688 -0.352069 32.4155 25.688 -0.352069
413 2 34.2095 25.7975 1.39556 34.2095 25.7975 1.39556
414 2 34.4226 25.5902 -1.85248 34.4226 25.5902 -1.85248
415 1 35.2726 24.0571 -0.0609637 35.2726 24.0571 -0.0609637
416 2 37.0219 24.2412 1.72631 37.0219 24.2412 1.72631
417 2 37.3158 23.8948 -1.50374 37.3158 23.8948 -1.50374
418 1 38.1156 25.7131 0.0214167 38.1156 25.7131 0.0214167
419 2 39.8861 25.908 1.78351 39.8861 25.908 1.78351
420 2 40.139 25.5407 -1.44774 40.139 25.5407 -1.44774
421 1 40.9656 24.0977 0.42737 40.9656 24.0977 0.42737
422 2 42.777 24.3447 2.14142 42.777 24.3447 2.14142
423 2 42.9551 23.8734 -1.08065 42.9551 23.8734 -1.08065
424 1 43.813 25.7468 0.341836 43.813 25.7468 0.341836
425 2 45.6974 25.9727 1.9751 45.6974 25.9727 1.9751
426 2 45.7313 25.5311 -1.25654 45.7313 25.5311 -1.25654
427 1 46.6727 24.1229 0.593385 46.6727 24.1229 0.593385
428 2 48.6609 24.3381 2.1027 48.6609 24.3381 2.1027
429 2 48.4868 23.8939 -1.12354 48.4868 23.8939 -1.12354
430 1 49.5115 25.7474 0.211866 49.5115 25.7474 0.211866
431 2 51.5135 25.9452 1.70136 51.5135 25.9452 1.70136
432 2 51.3033 25.5374 -1.52805 51.3033 25.5374 -1.52805
433 1 1.07063 27.376 -0.182383 1.07063 27.376 -0.182383
434 2 3.09905 27.5059 1.27834 3.09905 27.5059 1.27834
435 2 2.8297 27.2302 -1.96072 2.8297 27.2302 -1.96072
436 1 3.90199 29.0085 -0.560419 3.90199 29.0085 -0.560419
437 2 5.91068 29.0766 0.93302 5.91068 29.0766 0.93302
438 2 5.68636 28.9267 -2.31753 5.68636 28.9267 -2.31753
439 1 6.7486 27.3513 -0.682314 6.7486 27.3513 -0.682314
440 2 8.77316 27.4262 0.788874 8.77316 27.4262 0.788874
441 2 8.51511 27.2565 -2.45759 8.51511 27.2565 -2.45759
442 1 9.58781 28.9866 -0.996799 9.58781 28.9866 -0.996799
443 2 11.5377 29.0185 0.577148 11.5377 29.0185 0.577148
444 2 11.4425 28.9419 -2.68152 11.4425 28.9419 -2.68152
445 1 12.4424 27.3295 -1.04059 12.4424 27.3295 -1.04059
446 2 14.3197 27.379 0.622467 14.3197 27.379 0.622467
447 2 14.3726 27.274 -2.63668 14.3726 27.274 -2.63668
448 1 15.2939 28.975 -1.04375 15.2939 28.975 -1.04375
449 2 17.1077 29.0113 0.686695 17.1077 29.0113 0.686695
450 2 17.2807 28.9347 -2.5694 17.2807 28.9347 -2.5694
451 1 18.1464 27.3274 -0.852319 18.1464 27.3274 -0.852319
452 2 19.9763 27.3638 0.859599 19.9763 27.3638 0.859599
453 2 20.1169 27.2887 -2.39846 20.1169 27.2887 -2.39846
454 1 20.9942 28.9739 -0.765568 20.9942 28.9739 -0.765568
455 2 22.8106 29.0247 0.95979 22.8106 29.0247 0.95979
456 2 22.9768 28.9229 -2.29637 22.9768 28.9229 -2.29637
457 1 23.847 27.3306 -0.569407 23.847 27.3306 -0.569407
458 2 25.7021 27.3852 1.11368 25.7021 27.3852 1.11368
459 2 25.795 27.2748 -2.14534 25.795 27.2748 -2.14534
460 1 26.6968 28.9763 -0.544858 26.6968 28.9763 -0.544858
461 2 28.5698 29.0052 1.11774 28.5698 29.0052 1.11774
462 2 28.6269 28.946 -2.14327 28.6269 28.946 -2.14327
463 1 29.5549 27.3312 -0.468087 29.5549 27.3312 -0.468087
464 2 31.4136 27.3751 1.20966 31.4136 27.3751 1.20966
465 2 31.4996 27.2896 -2.04976 31.4996 27.2896 -2.04976
466 1 32.4029 28.9805 -0.437995 32.4029 28.9805 -0.437995
467 2 34.2213 29.0128 1.28516 34.2213 29.0128 1.28516
468 2 34.3834 28.9577 -1.97231 34.3834 28.9577 -1.97231
469 1 35.2608 27.3424 -0.270854 35.2608 27.3424 -0.270854
470 2 37.0446 27.4444 1.48571 37.0446 27.4444 1.48571
471 2 37.2723 27.2563 -1.76291 37.2723 27.2563 -1.76291
472 1 38.1009 29.0006 -0.166215 38.1009 29.0006 -0.166215
473 2 39.944 29.1316 1.52424 39.944 29.1316 1.52424
474 2 40.058 28.8833 -1.72664 40.058 28.8833 -1.72664
475 1 40.9572 27.3699 0.0551288 40.9572 27.3699 0.0551288
476 2 42.8026 27.568 1.73621 42.8026 27.568 1.73621
477 2 42.9125 27.1867 -1.50173 42.9125 27.1867 -1.50173
478 1 43.7994 29.02 -0.0453326 43.7994 29.02 -0.0453326
479 2 45.6798 29.1784 1.60009 45.6798 29.1784 1.60009
480 2 45.7184 28.8727 -1.64791 45.7184 28.8727 -1.64791
481 1 46.6558 27.3891 0.142154 46.6558 27.3891 0.142154
482 2 48.6054 27.5459 1.70382 48.6054 27.5459 1.70382
483 2 48.5053 27.2293 -1.5416 48.5053 27.2293 -1.5416
484 1 49.4949 29.0283 -0.110585 49.4949 29.0283 -0.110585
485 2 51.4957 29.137 1.38825 51.4957 29.137 1.38825
486 2 51.2857 28.9082 -1.85937 51.2857 28.9082 -1.85937
487 1 1.05752 30.665 -0.41351 1.05752 30.665 -0.41351
488 2 3.05677 30.6935 1.09318 3.05677 30.6935 1.09318
489 2 2.85068 30.6258 -2.16186 2.85068 30.6258 -2.16186
490 1 3.89811 32.3052 -0.629055 3.89811 32.3052 -0.629055
491 2 5.91184 32.3024 0.858744 5.91184 32.3024 0.858744
492 2 5.67526 32.2934 -2.39458 5.67526 32.2934 -2.39458
493 1 6.74115 30.6471 -0.833666 6.74115 30.6471 -0.833666
494 2 8.74395 30.661 0.669094 8.74395 30.661 0.669094
495 2 8.53301 30.6166 -2.58498 8.53301 30.6166 -2.58498
496 1 9.58522 32.287 -1.04267 9.58522 32.287 -1.04267
497 2 11.5227 32.264 0.547343 11.5227 32.264 0.547343
498 2 11.4524 32.2962 -2.71292 11.4524 32.2962 -2.71292
499 1 12.4385 30.6289 -1.11877 12.4385 30.6289 -1.11877
500 2 14.302 30.6279 0.559627 14.302 30.6279 0.559627
501 2 14.3812 30.6209 -2.70071 14.3812 30.6209 -2.70071
502 1 15.29 32.2722 -1.04944 15.29 32.2722 -1.04944
503 2 17.1419 32.3024 0.638819 17.1419 32.3024 0.638819
504 2 17.2407 32.2345 -2.62067 17.2407 32.2345 -2.62067
505 1 18.142 30.621 -0.928602 18.142 30.621 -0.928602
506 2 19.9701 30.6552 0.784808 19.9701 30.6552 0.784808
507 2 20.1143 30.5835 -2.47305 20.1143 30.5835 -2.47305
508 1 20.9914 32.267 -0.838188 20.9914 32.267 -0.838188
509 2 22.8313 32.3256 0.862162 22.8313 32.3256 0.862162
510 2 22.9522 32.2072 -2.39534 22.9522 32.2072 -2.39534
511 1 23.8422 30.6212 -0.671145 23.8422 30.6212 -0.671145
512 2 25.6877 30.6509 1.02283 25.6877 30.6509 1.02283
513 2 25.7979 30.5906 -2.2367 25.7979 30.5906 -2.2367
514 1 26.691 32.2694 -0.605344 26.691 32.2694 -0.605344
515 2 28.5698 32.3081 1.05227 28.5698 32.3081 1.05227
516 2 28.6155 32.2298 -2.20832 28.6155 32.2298 -2.20832
517 1 29.5455 30.6234 -0.524962 29.5455 30.6234 -0.524962
518 2 31.3974 30.6269 1.16268 31.3974 30.6269 1.16268
519 2 31.4946 30.6226 -2.09771 31.4946 30.6226 -2.09771
520 1 32.3903 32.2766 -0.439584 32.3903 32.2766 -0.439584
521 2 34.2628 32.3482 1.22384 34.2628 32.3482 1.22384
522 2 34.3191 32.2124 -2.03482 34.3191 32.2124 -2.03482
523 1 35.2446 30.6364 -0.321725 35.2446 30.6364 -0.321725
524 2 37.0913 30.7062 1.3696 37.0913 30.7062 1.3696
525 2 37.1974 30.578 -1.88832 37.1974 30.578 -1.88832
526 1 38.0879 32.293 -0.293072 38.0879 32.293 -0.293072
527 2 39.9831 32.3876 1.34128 39.9831 32.3876 1.34128
528 2 39.9937 32.2065 -1.91598 39.9937 32.2065 -1.91598
529 1 40.9434 30.655 -0.193659 40.9434 30.655 -0.193659
530 2 42.8237 30.7736 1.45586 42.8237 30.7736 1.45586
531 2 42.8631 30.5465 -1.79846 42.8631 30.5465 -1.79846
532 1 43.786 32.307 -0.275619 43.786 32.307 -0.275619
533 2 45.6688 32.3898 1.37238 45.6688 32.3898 1.37238
534 2 45.7015 32.2335 -1.88654 45.7015 32.2335 -1.88654
535 1 46.6403 30.6696 -0.168735 46.6403 30.6696 -0.168735
536 2 48.5588 30.7644 1.436 48.5588 30.7644 1.436
537 2 48.5199 30.5785 -1.8213 48.5199 30.5785 -1.8213
538 1 49.482 32.3168 -0.29956 49.482 32.3168 -0.29956
539 2 51.4633 32.3468 1.22968 51.4633 32.3468 1.22968
540 2 51.2951 32.2788 -2.02796 51.2951 32.2788 -2.02796