ITEM: TIMESTEP
85000
ITEM: NUMBER OF ATOMS
810
ITEM: BOX BOUNDS pp pp pp
8.5460011596508723e-01 5.2163004884033889e+01
8.1274853106043887e-01 5.0203466468938473e+01
-1.0000000000000000e+01 1.0000000000000000e+01
ITEM: ATOMS id type x y z xu yu zu
1 1 1.059 1.0276 0.0881443 1.059 1.0276 0.0881443
2 2 3.01644 1.05967 1.65048 3.01644 1.05967 1.65048
3 2 2.90162 0.995201 -1.60906 2.90162 0.995201 -1.60906
4 1 3.90875 2.67327 -0.0455696 3.90875 2.67327 -0.0455696
5 2 5.87623 2.70233 1.50416 5.87623 2.70233 1.50416
6 2 5.74028 2.64403 -1.75469 5.74028 2.64403 -1.75469
7 1 6.75825 1.02663 -0.135517 6.75825 1.02663 -0.135517
8 2 8.72881 1.05942 1.41042 8.72881 1.05942 1.41042
9 2 8.58647 0.993738 -1.84799 8.58647 0.993738 -1.84799
10 1 9.60698 2.67242 -0.293645 9.60698 2.67242 -0.293645
11 2 11.5721 2.70237 1.25941 11.5721 2.70237 1.25941
12 2 11.4413 2.64253 -1.99957 11.4413 2.64253 -1.99957
13 1 12.4568 1.02582 -0.377993 12.4568 1.02582 -0.377993
14 2 14.4095 1.05927 1.19083 14.4095 1.05927 1.19083
15 2 14.3046 0.992517 -2.06896 14.3046 0.992517 -2.06896
16 1 15.307 2.67187 -0.50343 15.307 2.67187 -0.50343
17 2 17.2407 2.70355 1.08897 17.2407 2.70355 1.08897
18 2 17.1752 2.64044 -2.17188 17.1752 2.64044 -2.17188
19 1 18.1586 1.02551 -0.528582 18.1586 1.02551 -0.528582
20 2 20.069 1.05968 1.09178 20.069 1.05968 1.09178
21 2 20.0507 0.991674 -2.16962 20.0507 0.991674 -2.16962
22 1 21.0105 2.67185 -0.578591 21.0105 2.67185 -0.578591
23 2 22.8958 2.70571 1.07119 22.8958 2.70571 1.07119
24 2 22.9279 2.63835 -2.19009 22.9279 2.63835 -2.19009
25 1 23.8624 1.02589 -0.515888 23.8624 1.02589 -0.515888
26 2 25.7236 1.0606 1.16088 25.7236 1.0606 1.16088
27 2 25.8025 0.991603 -2.09961 25.8025 0.991603 -2.09961
28 1 26.7137 2.67248 -0.481135 26.7137 2.67248 -0.481135
29 2 28.5553 2.70795 1.2172 28.5553 2.70795 1.2172
30 2 28.6723 2.63741 -2.04209 28.6723 2.63741 -2.04209
31 1 29.5635 1.02686 -0.342465 29.5635 1.02686 -0.342465
32 2 31.3931 1.06131 1.3686 31.3931 1.06131 1.3686
33 2 31.5328 0.99272 -1.88986 31.5328 0.99272 -1.88986
34 1 32.4131 2.67357 -0.254548 32.4131 2.67357 -0.254548
35 2 34.2389 2.70887 1.46041 34.2389 2.70887 1.46041
36 2 34.3858 2.63848 -1.7977 34.3858 2.63848 -1.7977
37 1 35.2616 1.02793 -0.0900716 35.2616 1.02793 -0.0900716
38 2 37.0945 1.06118 1.61723 37.0945 1.06118 1.61723
39 2 37.2279 0.994681 -1.64153 37.2279 0.994681 -1.64153
40 1 38.1113 2.67449 -0.00691629 38.1113 2.67449 -0.00691629
41 2 39.958 2.70769 1.68529 39.958 2.70769 1.68529
42 2 40.065 2.64113 -1.57447 40.065 2.64113 -1.57447
43 1 40.9614 1.02851 0.120323 40.9614 1.02851 0.120323
44 2 42.8302 1.06044 1.78796 42.8302 1.06044 1.78796
45 2 42.8944 0.99624 -1.47295 42.8944 0.99624 -1.47295
46 1 43.8129 2.67468 0.143612 43.8129 2.67468 0.143612
47 2 45.7052 2.7054 1.78425 45.7052 2.7054 1.78425
48 2 45.7228 2.64354 -1.47733 45.7228 2.64354 -1.47733
49 1 46.6646 1.02834 0.189785 46.6646 1.02834 0.189785
50 2 48.5827 1.05993 1.80026 48.5827 1.05993 1.80026
51 2 48.5489 0.996303 -1.46114 48.5489 0.996303 -1.46114
52 1 49.5163 2.67415 0.127302 49.5163 2.67415 0.127302
53 2 51.4559 2.70339 1.71164 51.4559 2.70339 1.71164
54 2 51.3779 2.64451 -1.54913 51.3779 2.64451 -1.54913
55 1 1.05866 4.31987 0.0284825 1.05866 4.31987 0.0284825
56 2 3.01484 4.34441 1.59237 3.01484 4.34441 1.59237
57 2 2.90242 4.29507 -1.66757 2.90242 4.29507 -1.66757
58 1 3.90847 5.96571 -0.0955822 3.90847 5.96571 -0.0955822
59 2 5.87485 5.98411 1.45557 5.87485 5.98411 1.45557
60 2 5.74106 5.94724 -1.8037 5.74106 5.94724 -1.8037
61 1 6.75773 4.31908 -0.194578 6.75773 4.31908 -0.194578
62 2 8.72775 4.34369 1.35211 8.72775 4.34369 1.35211
63 2 8.5865 4.29446 -1.90664 8.5865 4.29446 -1.90664
64 1 9.60663 5.96515 -0.343509 9.60663 5.96515 -0.343509
65 2 11.5719 5.9848 1.20952 11.5719 5.9848 1.20952
66 2 11.4408 5.94561 -2.04974 11.4408 5.94561 -2.04974
67 1 12.4563 4.31846 -0.438598 12.4563 4.31846 -0.438598
68 2 14.409 4.34505 1.13032 14.409 4.34505 1.13032
69 2 14.3043 4.29204 -2.12967 14.3043 4.29204 -2.12967
70 1 15.3067 5.96477 -0.55707 15.3067 5.96477 -0.55707
71 2 17.2415 5.98805 1.03427 17.2415 5.98805 1.03427
72 2 17.1741 5.94166 -2.22677 17.1741 5.94166 -2.22677
73 1 18.1584 4.31817 -0.592463 18.1584 4.31817 -0.592463
74 2 20.0693 4.34804 1.02753 20.0693 4.34804 1.02753
75 2 20.0503 4.28854 -2.23396 20.0503 4.28854 -2.23396
76 1 21.0106 5.96465 -0.638774 21.0106 5.96465 -0.638774
77 2 22.8972 5.9928 1.0096 22.8972 5.9928 1.0096
78 2 22.9269 5.93673 -2.25184 22.9269 5.93673 -2.25184
79 1 23.8627 4.31837 -0.58406 23.8627 4.31837 -0.58406
80 2 25.7243 4.35176 1.09246 25.7243 4.35176 1.09246
81 2 25.8029 4.28533 -2.16802 25.8029 4.28533 -2.16802
82 1 26.7143 5.96503 -0.548364 26.7143 5.96503 -0.548364
83 2 28.5566 5.99732 1.14937 28.5566 5.99732 1.14937
84 2 28.6725 5.93307 -2.11004 28.6725 5.93307 -2.11004
85 1 29.5642 4.31918 -0.413921 29.5642 4.31918 -0.413921
86 2 31.3932 4.35445 1.29786 31.3932 4.35445 1.29786
87 2 31.5343 4.28426 -1.96049 31.5343 4.28426 -1.96049
88 1 32.414 5.96592 -0.32567 32.414 5.96592 -0.32567
89 2 34.2387 5.99917 1.39053 34.2387 5.99917 1.39053
90 2 34.3879 5.93294 -1.86755 34.3879 5.93294 -1.86755
91 1 35.2624 4.32023 -0.161432 35.2624 4.32023 -0.161432
92 2 37.0934 4.35429 1.5479 37.0934 4.35429 1.5479
93 2 37.2305 4.28627 -1.7107 37.2305 4.28627 -1.7107
94 1 38.1122 5.96677 -0.0759235 38.1122 5.96677 -0.0759235
95 2 39.9559 5.99689 1.61939 39.9559 5.99689 1.61939
96 2 40.0684 5.9366 -1.64035 40.0684 5.9366 -1.64035
97 1 40.9619 4.32083 0.0528281 40.9619 4.32083 0.0528281
98 2 42.8282 4.35123 1.72314 42.8282 4.35123 1.72314
99 2 42.897 4.29013 -1.53779 42.897 4.29013 -1.53779
100 1 43.8132 5.96694 0.0816282 43.8132 5.96694 0.0816282
101 2 45.7023 5.99169 1.72593 45.7023 5.99169 1.72593
102 2 45.7261 5.94181 -1.53588 45.7261 5.94181 -1.53588
103 1 46.6647 4.32061 0.127089 46.6647 4.32061 0.127089
104 2 48.5807 4.34726 1.73986 48.5807 4.34726 1.73986
105 2 48.5507 4.29352 -1.52182 48.5507 4.29352 -1.52182
106 1 49.5162 5.96642 0.0728087 49.5162 5.96642 0.0728087
107 2 51.4535 5.98662 1.66004 51.4535 5.98662 1.66004
108 2 51.3801 5.94588 -1.60117 51.3801 5.94588 -1.60117
109 1 1.0586 7.61229 -0.012855 1.0586 7.61229 -0.012855
110 2 3.01261 7.62462 1.55375 3.01261 7.62462 1.55375
111 2 2.90453 7.59978 -1.70665 2.90453 7.59978 -1.70665
112 1 3.90858 9.25836 -0.12079 3.90858 9.25836 -0.12079
113 2 5.87365 9.26257 1.43204 5.87365 9.26257 1.43204
114 2 5.74252 9.25417 -1.82755 5.74252 9.25417 -1.82755
115 1 6.75762 7.6118 -0.23194 6.75762 7.6118 -0.23194
116 2 8.72731 7.62364 1.31524 8.72731 7.62364 1.31524
117 2 8.5867 7.60004 -1.94382 8.5867 7.60004 -1.94382
118 1 9.60671 9.25819 -0.367386 9.60671 9.25819 -0.367386
119 2 11.5728 9.26389 1.18465 11.5728 9.26389 1.18465
120 2 11.44 9.25263 -2.07475 11.44 9.25263 -2.07475
121 1 12.4561 7.61151 -0.478243 12.4561 7.61151 -0.478243
122 2 14.41 7.62639 1.08936 14.41 7.62639 1.08936
123 2 14.303 7.59675 -2.17083 14.303 7.59675 -2.17083
124 1 15.3067 9.25808 -0.586989 15.3067 9.25808 -0.586989
125 2 17.2438 9.26875 1.00161 17.2438 9.26875 1.00161
126 2 17.1717 9.24748 -2.25955 17.1717 9.24748 -2.25955
127 1 18.1583 7.61129 -0.639354 18.1583 7.61129 -0.639354
128 2 20.0713 7.63156 0.978348 20.0713 7.63156 0.978348
129 2 20.0483 7.59113 -2.28335 20.0483 7.59113 -2.28335
130 1 21.0107 9.25794 -0.679589 21.0107 9.25794 -0.679589
131 2 22.9003 9.27536 0.965566 22.9003 9.27536 0.965566
132 2 22.9242 9.24057 -2.29617 22.9242 9.24057 -2.29617
133 1 23.863 7.61129 -0.640744 23.863 7.61129 -0.640744
134 2 25.7266 7.63746 1.03374 25.7266 7.63746 1.03374
135 2 25.8015 7.58531 -2.22703 25.8015 7.58531 -2.22703
136 1 26.7149 9.25802 -0.601091 26.7149 9.25802 -0.601091
137 2 28.5591 9.28137 1.09465 28.5591 9.28137 1.09465
138 2 28.6714 9.23488 -2.16515 28.6714 9.23488 -2.16515
139 1 29.5651 7.61178 -0.478957 29.5651 7.61178 -0.478957
140 2 31.3945 7.64157 1.23258 31.3945 7.64157 1.23258
141 2 31.535 7.5823 -2.02598 31.535 7.5823 -2.02598
142 1 32.4151 9.25857 -0.385712 32.4151 9.25857 -0.385712
143 2 34.2391 9.28375 1.33132 34.2391 9.28375 1.33132
144 2 34.3896 9.23365 -1.92699 34.3896 9.23365 -1.92699
145 1 35.2635 7.61262 -0.228585 35.2635 7.61262 -0.228585
146 2 37.0922 7.64136 1.48316 37.0922 7.64136 1.48316
147 2 37.2335 7.58404 -1.77549 37.2335 7.58404 -1.77549
148 1 38.1131 9.2592 -0.1341 38.1131 9.2592 -0.1341
149 2 39.9534 9.2807 1.56506 39.9534 9.2807 1.56506
150 2 40.0724 9.23771 -1.69474 40.0724 9.23771 -1.69474
151 1 40.9625 7.61312 -0.00837566 40.9625 7.61312 -0.00837566
152 2 42.8249 7.63646 1.66626 42.8249 7.63646 1.66626
153 2 42.9012 7.58958 -1.59479 42.9012 7.58958 -1.59479
154 1 43.8136 9.25928 0.0339705 43.8136 9.25928 0.0339705
155 2 45.6981 9.27341 1.68357 45.6981 9.27341 1.68357
156 2 45.7308 9.24484 -1.57847 45.7308 9.24484 -1.57847
157 1 46.6648 7.61289 0.0764415 46.6648 7.61289 0.0764415
158 2 48.5772 7.62959 1.69357 48.5772 7.62959 1.69357
159 2 48.5543 7.59582 -1.56849 48.5543 7.59582 -1.56849
160 1 49.5163 9.25881 0.0384699 49.5163 9.25881 0.0384699
161 2 51.45 9.26605 1.63 51.45 9.26605 1.63
162 2 51.3837 9.2513 -1.63161 51.3837 9.2513 -1.63161
163 1 1.05884 10.9048 -0.0279064 1.05884 10.9048 -0.0279064
164 2 3.01018 10.9025 1.542 3.01018 10.9025 1.542
165 2 2.90754 10.9071 -1.71868 2.90754 10.9071 -1.71868
166 1 3.90907 12.5511 -0.116213 3.90907 12.5511 -0.116213
167 2 5.87289 12.5402 1.43813 5.87289 12.5402 1.43813
168 2 5.74434 12.562 -1.82151 5.74434 12.562 -1.82151
169 1 6.75796 10.9047 -0.240451 6.75796 10.9047 -0.240451
170 2 8.72765 10.9015 1.30672 8.72765 10.9015 1.30672
171 2 8.58701 10.9081 -1.95243 8.58701 10.9081 -1.95243
172 1 9.60723 12.5513 -0.360691 9.60723 12.5513 -0.360691
173 2 11.5748 12.5419 1.18945 11.5748 12.5419 1.18945
174 2 11.4389 12.5609 -2.06979 11.4389 12.5609 -2.06979
175 1 12.4563 10.9048 -0.489563 12.4563 10.9048 -0.489563
176 2 14.4124 10.9052 1.0754 14.4124 10.9052 1.0754
177 2 14.3009 10.9045 -2.18476 14.3009 10.9045 -2.18476
178 1 15.3069 12.5516 -0.587601 15.3069 12.5516 -0.587601
179 2 17.2474 12.5476 0.996951 17.2474 12.5476 0.996951
180 2 17.1684 12.5555 -2.26411 17.1684 12.5555 -2.26411
181 1 18.1583 10.9048 -0.660748 18.1583 10.9048 -0.660748
182 2 20.0747 10.9118 0.95302 20.0747 10.9118 0.95302
183 2 20.045 10.8978 -2.30881 20.045 10.8978 -2.30881
184 1 21.0107 12.5515 -0.6936 21.0107 12.5515 -0.6936
185 2 22.9044 12.5551 0.946954 22.9044 12.5551 0.946954
186 2 22.9204 12.5479 -2.31499 22.9204 12.5479 -2.31499
187 1 23.8632 10.9047 -0.675841 23.8632 10.9047 -0.675841
188 2 25.7301 10.919 0.99509 25.7301 10.919 0.99509
189 2 25.7987 10.8904 -2.26608 25.7987 10.8904 -2.26608
190 1 26.7153 12.5514 -0.629852 26.7153 12.5514 -0.629852
191 2 28.5625 12.5616 1.06279 28.5625 12.5616 1.06279
192 2 28.6692 12.5413 -2.19745 28.6692 12.5413 -2.19745
193 1 29.5659 10.9048 -0.525978 29.5659 10.9048 -0.525978
194 2 31.3965 10.9238 1.18439 31.3965 10.9238 1.18439
195 2 31.5347 10.8861 -2.07457 31.5347 10.8861 -2.07457
196 1 32.4159 12.5516 -0.423847 32.4159 12.5516 -0.423847
197 2 34.2399 12.5641 1.29342 34.2399 12.5641 1.29342
198 2 34.3905 12.5393 -1.96517 34.3905 12.5393 -1.96517
199 1 35.2645 10.9053 -0.279401 35.2645 10.9053 -0.279401
200 2 37.0912 10.9234 1.43468 37.0912 10.9234 1.43468
201 2 37.2364 10.8873 -1.82411 37.2364 10.8873 -1.82411
202 1 38.1139 12.5519 -0.170775 38.1139 12.5519 -0.170775
203 2 39.9507 12.5607 1.53226 39.9507 12.5607 1.53226
204 2 40.0764 12.5431 -1.72754 40.0764 12.5431 -1.72754
205 1 40.9632 10.9056 -0.0520967 40.9632 10.9056 -0.0520967
206 2 42.821 10.9174 1.62771 42.821 10.9174 1.62771
207 2 42.9061 10.8936 -1.63341 42.9061 10.8936 -1.63341
208 1 43.814 12.5518 0.00959317 43.814 12.5518 0.00959317
209 2 45.6934 12.5525 1.66511 45.6934 12.5525 1.66511
210 2 45.7362 12.5508 -1.59695 45.7362 12.5508 -1.59695
211 1 46.6651 10.9053 0.0473197 46.6651 10.9053 0.0473197
212 2 48.5727 10.9088 1.67003 48.5727 10.9088 1.67003
213 2 48.5592 10.9015 -1.59228 48.5592 10.9015 -1.59228
214 1 49.5166 12.5513 0.0309456 49.5166 12.5513 0.0309456
215 2 51.4463 12.5441 1.62733 51.4463 12.5441 1.62733
216 2 51.3881 12.5583 -1.63445 51.3881 12.5583 -1.63445
217 1 1.05931 14.1974 -0.0135805 1.05931 14.1974 -0.0135805
218 2 3.00801 14.1807 1.55952 3.00801 14.1807 1.55952
219 2 2.91087 14.214 -1.70116 2.91087 14.214 -1.70116
220 1 3.90983 15.8437 -0.0825081 3.90983 15.8437 -0.0825081
221 2 5.87271 15.8196 1.4729 5.87271 15.8196 1.4729
222 2 5.74618 15.8678 -1.78653 5.74618 15.8678 -1.78653
223 1 6.7587 14.1976 -0.218306 6.7587 14.1976 -0.218306
224 2 8.72874 14.1798 1.32829 8.72874 14.1798 1.32829
225 2 8.58733 14.2155 -1.93064 8.58733 14.2155 -1.93064
226 1 9.6081 15.8442 -0.324466 9.6081 15.8442 -0.324466
227 2 11.5774 15.8215 1.22323 11.5774 15.8215 1.22323
228 2 11.4377 15.8672 -2.0356 11.4377 15.8672 -2.0356
229 1 12.4569 14.1981 -0.470297 12.4569 14.1981 -0.470297
230 2 14.4157 14.1839 1.09113 14.4157 14.1839 1.09113
231 2 14.2984 14.2124 -2.16871 14.2984 14.2124 -2.16871
232 1 15.3074 15.8449 -0.558588 15.3074 15.8449 -0.558588
233 2 17.2515 15.827 1.0213 17.2515 15.827 1.0213
234 2 17.1649 15.8628 -2.2394 17.1649 15.8628 -2.2394
235 1 18.1585 14.1984 -0.652586 18.1585 14.1984 -0.652586
236 2 20.0791 14.1908 0.956211 20.0791 14.1908 0.956211
237 2 20.0409 14.2059 -2.30553 20.0409 14.2059 -2.30553
238 1 21.0109 15.8451 -0.678058 21.0109 15.8451 -0.678058
239 2 22.909 15.8341 0.957253 22.909 15.8341 0.957253
240 2 22.916 15.8561 -2.30467 22.916 15.8561 -2.30467
241 1 23.8633 14.1983 -0.682906 23.8633 14.1983 -0.682906
242 2 25.7344 14.1981 0.983472 25.7344 14.1981 0.983472
243 2 25.795 14.1985 -2.27797 25.795 14.1985 -2.27797
244 1 26.7155 15.845 -0.629313 26.7155 15.845 -0.629313
245 2 28.5662 15.8402 1.05956 28.5662 15.8402 1.05956
246 2 28.6662 15.8498 -2.20094 28.6662 15.8498 -2.20094
247 1 29.5664 14.1982 -0.546468 29.5664 14.1982 -0.546468
248 2 31.399 14.2029 1.16193 31.399 14.2029 1.16193
249 2 31.5336 14.1937 -2.09737 31.5336 14.1937 -2.09737
250 1 32.4165 15.8449 -0.433123 32.4165 15.8449 -0.433123
251 2 34.241 15.8425 1.28366 34.241 15.8425 1.28366
252 2 34.3907 15.8474 -1.97505 34.3907 15.8474 -1.97505
253 1 35.2653 14.1983 -0.304595 35.2653 14.1983 -0.304595
254 2 37.0904 14.2024 1.41129 37.0904 14.2024 1.41129
255 2 37.2387 14.1943 -1.84754 37.2387 14.1943 -1.84754
256 1 38.1145 15.8447 -0.179146 38.1145 15.8447 -0.179146
257 2 39.9484 15.8392 1.52705 39.9484 15.8392 1.52705
258 2 40.0797 15.8502 -1.73256 40.0797 15.8502 -1.73256
259 1 40.9638 14.1982 -0.0701163 40.9638 14.1982 -0.0701163
260 2 42.8171 14.1963 1.61471 42.8171 14.1963 1.61471
261 2 42.9108 14.2 -1.64626 42.9108 14.2 -1.64626
262 1 43.8143 15.8443 0.0132303 43.8143 15.8443 0.0132303
263 2 45.6889 15.8314 1.67413 45.6889 15.8314 1.67413
264 2 45.7411 15.857 -1.58768 45.7411 15.857 -1.58768
265 1 46.6653 14.1978 0.0454125 46.6653 14.1978 0.0454125
266 2 48.5681 14.1872 1.67383 48.5681 14.1872 1.67383
267 2 48.5644 14.208 -1.58845 48.5644 14.208 -1.58845
268 1 49.5169 15.8438 0.0518444 49.5169 15.8438 0.0518444
269 2 51.4429 15.8233 1.6527 51.4429 15.8233 1.6527
270 2 51.3925 15.864 -1.60897 51.3925 15.864 -1.60897
271 1 1.0599 17.4898 0.0275094 1.0599 17.4898 0.0275094
272 2 3.00648 17.4618 1.60318 3.00648 17.4618 1.60318
273 2 2.91387 17.5177 -1.6573 2.91387 17.5177 -1.6573
274 1 3.91069 19.136 -0.0259949 3.91069 19.136 -0.0259949
275 2 5.87308 19.1033 1.52999 5.87308 19.1033 1.52999
276 2 5.74773 19.1688 -1.72916 5.74773 19.1688 -1.72916
277 1 6.75969 17.4901 -0.169484 6.75969 17.4901 -0.169484
278 2 8.73038 17.4611 1.37615 8.73038 17.4611 1.37615
279 2 8.58764 17.5194 -1.88239 8.58764 17.5194 -1.88239
280 1 9.60916 19.1368 -0.265318 9.60916 19.1368 -0.265318
281 2 11.5803 19.1048 1.27991 11.5803 19.1048 1.27991
282 2 11.4368 19.169 -1.97845 11.4368 19.169 -1.97845
283 1 12.4578 17.491 -0.42381 12.4578 17.491 -0.42381
284 2 14.4194 17.4648 1.13385 14.4194 17.4648 1.13385
285 2 14.2961 17.5174 -2.1255 14.2961 17.5174 -2.1255
286 1 15.3081 19.1378 -0.505171 15.3081 19.1378 -0.505171
287 2 17.2556 19.1093 1.07034 17.2556 19.1093 1.07034
288 2 17.1619 19.1664 -2.1899 17.1619 19.1664 -2.1899
289 1 18.1589 17.4917 -0.616164 18.1589 17.4917 -0.616164
290 2 20.0836 17.4709 0.987502 20.0836 17.4709 0.987502
291 2 20.0369 17.5125 -2.27393 20.0369 17.5125 -2.27393
292 1 21.0111 19.1384 -0.635686 21.0111 19.1384 -0.635686
293 2 22.9132 19.1148 0.994708 22.9132 19.1148 0.994708
294 2 22.912 19.162 -2.267 22.912 19.162 -2.267
295 1 23.8634 17.4918 -0.660467 23.8634 17.4918 -0.660467
296 2 25.7386 17.4771 1.0011 25.7386 17.4771 1.0011
297 2 25.7909 17.5065 -2.26037 25.7909 17.5065 -2.26037
298 1 26.7155 19.1384 -0.599451 26.7155 19.1384 -0.599451
299 2 28.5695 19.1195 1.0856 28.5695 19.1195 1.0856
300 2 28.6629 19.1573 -2.17491 28.6629 19.1573 -2.17491
301 1 29.5667 17.4917 -0.536622 29.5667 17.4917 -0.536622
302 2 31.4015 17.4812 1.16927 31.4015 17.4812 1.16927
303 2 31.5317 17.5021 -2.09016 31.5317 17.5021 -2.09016
304 1 32.4167 19.1381 -0.411869 32.4167 19.1381 -0.411869
305 2 34.2422 19.1213 1.30375 34.2422 19.1213 1.30375
306 2 34.3899 19.1549 -1.95489 34.3899 19.1549 -1.95489
307 1 35.2658 17.4914 -0.299586 35.2658 17.4914 -0.299586
308 2 37.09 17.4808 1.41722 37.09 17.4808 1.41722
309 2 37.2399 17.5019 -1.84148 37.2399 17.5019 -1.84148
310 1 38.1147 19.1376 -0.157794 38.1147 19.1376 -0.157794
311 2 39.9469 19.1187 1.55028 39.9469 19.1187 1.55028
312 2 40.0816 19.1562 -1.70897 40.0816 19.1562 -1.70897
313 1 40.9641 17.4909 -0.0590499 40.9641 17.4909 -0.0590499
314 2 42.8138 17.4755 1.62971 42.8138 17.4755 1.62971
315 2 42.9146 17.5061 -1.63088 42.9146 17.5061 -1.63088
316 1 43.8144 19.1368 0.0441056 43.8144 19.1368 0.0441056
317 2 45.6856 19.1127 1.70888 45.6856 19.1127 1.70888
318 2 45.7447 19.1605 -1.55252 45.7447 19.1605 -1.55252
319 1 46.6656 17.4902 0.0711506 46.6656 17.4902 0.0711506
320 2 48.5643 17.4676 1.70432 48.5643 17.4676 1.70432
321 2 48.5689 17.5125 -1.55768 48.5689 17.5125 -1.55768
322 1 49.5173 19.1361 0.0971378 49.5173 19.1361 0.0971378
323 2 51.4404 19.1063 1.70133 51.4404 19.1063 1.70133
324 2 51.3959 19.1655 -1.56009 51.3959 19.1655 -1.56009
325 1 1.06048 20.782 0.0874327 1.06048 20.782 0.0874327
326 2 3.00577 20.7481 1.66473 3.00577 20.7481 1.66473
327 2 2.91605 20.8158 -1.59555 2.91605 20.8158 -1.59555
328 1 3.91149 22.4283 0.0425767 3.91149 22.4283 0.0425767
329 2 5.87382 22.393 1.59873 5.87382 22.393 1.59873
330 2 5.74879 22.4636 -1.66029 5.74879 22.4636 -1.66029
331 1 6.76073 20.7825 -0.103104 6.76073 20.7825 -0.103104
332 2 8.73219 20.7475 1.44152 8.73219 20.7475 1.44152
333 2 8.58791 20.8176 -1.81672 8.58791 20.8176 -1.81672
334 1 9.61021 22.4291 -0.194246 9.61021 22.4291 -0.194246
335 2 11.5828 22.3939 1.34909 11.5828 22.3939 1.34909
336 2 11.4362 22.4646 -1.90902 11.4362 22.4646 -1.90902
337 1 12.4587 20.7835 -0.358661 12.4587 20.7835 -0.358661
338 2 14.4228 20.7502 1.19578 14.4228 20.7502 1.19578
339 2 14.2943 20.8172 -2.06314 14.2943 20.8172 -2.06314
340 1 15.3089 22.4303 -0.437264 15.3089 22.4303 -0.437264
341 2 17.2588 22.3965 1.13506 17.2588 22.3965 1.13506
342 2 17.1598 22.4643 -2.12487 17.1598 22.4643 -2.12487
343 1 18.1593 20.7845 -0.558176 18.1593 20.7845 -0.558176
344 2 20.0874 20.7544 1.04122 20.0874 20.7544 1.04122
345 2 20.0336 20.8148 -2.21987 20.0336 20.8148 -2.21987
346 1 21.0113 22.4311 -0.57435 21.0113 22.4311 -0.57435
347 2 22.9163 22.3995 1.05247 22.9163 22.3995 1.05247
348 2 22.909 22.463 -2.20901 22.909 22.463 -2.20901
349 1 23.8634 20.785 -0.612587 23.8634 20.785 -0.612587
350 2 25.7421 20.7585 1.04484 25.7421 20.7585 1.04484
351 2 25.7874 20.8115 -2.21649 25.7874 20.8115 -2.21649
352 1 26.7153 22.4314 -0.545761 26.7153 22.4314 -0.545761
353 2 28.572 22.4019 1.13615 28.572 22.4019 1.13615
354 2 28.66 22.4609 -2.12424 28.66 22.4609 -2.12424
355 1 29.5666 20.7848 -0.498225 29.5666 20.7848 -0.498225
356 2 31.4037 20.7613 1.20503 31.4037 20.7613 1.20503
357 2 31.5294 20.8084 -2.05433 31.5294 20.8084 -2.05433
358 1 32.4164 22.431 -0.364137 32.4164 22.431 -0.364137
359 2 34.2434 22.403 1.34979 34.2434 22.403 1.34979
360 2 34.3882 22.4588 -1.90868 34.3882 22.4588 -1.90868
361 1 35.2658 20.7843 -0.265486 35.2658 20.7843 -0.265486
362 2 37.0901 20.7611 1.45115 37.0901 20.7611 1.45115
363 2 37.2398 20.8073 -1.80728 37.2398 20.8073 -1.80728
364 1 38.1145 22.4301 -0.111034 38.1145 22.4301 -0.111034
365 2 39.9464 22.4018 1.59731 39.9464 22.4018 1.59731
366 2 40.0817 22.4581 -1.66161 40.0817 22.4581 -1.66161
367 1 40.9641 20.7834 -0.0212352 40.9641 20.7834 -0.0212352
368 2 42.8119 20.7576 1.66969 42.8119 20.7576 1.66969
369 2 42.9165 20.8089 -1.59048 42.9165 20.8089 -1.59048
370 1 43.8143 22.4291 0.0960151 43.8143 22.4291 0.0960151
371 2 45.684 22.3986 1.76253 45.684 22.3986 1.76253
372 2 45.7463 22.4592 -1.49853 45.7463 22.4592 -1.49853
373 1 46.6657 20.7825 0.119415 46.6657 20.7825 0.119415
374 2 48.5618 20.7522 1.75561 48.5618 20.7522 1.75561
375 2 48.5717 20.8124 -1.50608 48.5717 20.8124 -1.50608
376 1 49.5175 22.4283 0.157952 49.5175 22.4283 0.157952
377 2 51.4393 22.3949 1.76391 51.4393 22.3949 1.76391
378 2 51.3978 22.4614 -1.49736 51.3978 22.4614 -1.49736
379 1 1.06093 24.0743 0.154705 1.06093 24.0743 0.154705
380 2 3.00591 24.0408 1.7326 3.00591 24.0408 1.7326
381 2 2.91712 24.1078 -1.52767 2.91712 24.1078 -1.52767
382 1 3.91208 25.7207 0.110407 3.91208 25.7207 0.110407
383 2 5.8747 25.6893 1.66644 5.8747 25.6893 1.66644
384 2 5.74926 25.7521 -1.59269 5.74926 25.7521 -1.59269
385 1 6.76162 24.0747 -0.0315911 6.76162 24.0747 -0.0315911
386 2 8.73374 24.0404 1.51231 8.73374 24.0404 1.51231
387 2 8.58817 24.1093 -1.74589 8.58817 24.1093 -1.74589
388 1 9.61102 25.7214 -0.124354 9.61102 25.7214 -0.124354
389 2 11.5844 25.6893 1.41809 11.5844 25.6893 1.41809
390 2 11.4361 25.7538 -1.84008 11.4361 25.7538 -1.84008
391 1 12.4596 24.0758 -0.286932 12.4596 24.0758 -0.286932
392 2 14.4252 24.0415 1.26554 14.4252 24.0415 1.26554
393 2 14.2933 24.1105 -1.99324 14.2933 24.1105 -1.99324
394 1 15.3095 25.7225 -0.367385 15.3095 25.7225 -0.367385
395 2 17.2605 25.6896 1.20363 17.2605 25.6896 1.20363
396 2 17.1591 25.7558 -2.05632 17.1591 25.7558 -2.05632
397 1 18.1598 24.0769 -0.489416 18.1598 24.0769 -0.489416
398 2 20.0898 24.0431 1.10748 20.0898 24.0431 1.10748
399 2 20.0318 24.1111 -2.15345 20.0318 24.1111 -2.15345
400 1 21.0114 25.7235 -0.505397 21.0114 25.7235 -0.505397
401 2 22.9176 25.6895 1.11997 22.9176 25.6895 1.11997
402 2 22.9077 25.7578 -2.14149 22.9077 25.7578 -2.14149
403 1 23.8634 24.0776 -0.548164 23.8634 24.0776 -0.548164
404 2 25.7441 24.0444 1.10665 25.7441 24.0444 1.10665
405 2 25.785 24.111 -2.15455 25.785 24.111 -2.15455
406 1 26.715 25.7239 -0.478219 26.715 25.7239 -0.478219
407 2 28.5731 25.6894 1.20192 28.5731 25.6894 1.20192
408 2 28.6581 25.7585 -2.05841 28.6581 25.7585 -2.05841
409 1 29.5662 24.0776 -0.438452 29.5662 24.0776 -0.438452
410 2 31.4053 24.0454 1.26254 31.4053 24.0454 1.26254
411 2 31.527 24.1097 -1.99671 31.527 24.1097 -1.99671
412 1 32.4158 25.7235 -0.298938 32.4158 25.7235 -0.298938
413 2 34.2444 25.6896 1.41317 34.2444 25.6896 1.41317
414 2 34.3861 25.7572 -1.84523 34.3861 25.7572 -1.84523
415 1 35.2653 24.0768 -0.208906 35.2653 24.0768 -0.208906
416 2 37.0907 24.0456 1.50654 37.0907 24.0456 1.50654
417 2 37.2385 24.1079 -1.7517 37.2385 24.1079 -1.7517
418 1 38.114 25.7225 -0.0479008 38.114 25.7225 -0.0479008
419 2 39.9471 25.69 1.65917 39.9471 25.69 1.65917
420 2 40.0802 25.7546 -1.59965 40.0802 25.7546 -1.59965
421 1 40.9638 24.0757 0.0358208 40.9638 24.0757 0.0358208
422 2 42.8115 24.0445 1.72684 42.8115 24.0445 1.72684
423 2 42.9164 24.1066 -1.53308 42.9164 24.1066 -1.53308
424 1 43.814 25.7214 0.158911 43.814 25.7214 0.158911
425 2 45.6844 25.6901 1.82489 45.6844 25.6901 1.82489
426 2 45.7456 25.7523 -1.43611 45.7456 25.7523 -1.43611
427 1 46.6656 24.0747 0.180743 46.6656 24.0747 0.180743
428 2 48.5612 24.0426 1.81782 48.5612 24.0426 1.81782
429 2 48.5726 24.1065 -1.44371 48.5726 24.1065 -1.44371
430 1 49.5176 25.7206 0.222716 49.5176 25.7206 0.222716
431 2 51.4397 25.6898 1.82869 51.4397 25.6898 1.82869
432 2 51.3981 25.7513 -1.4326 51.3981 25.7513 -1.4326
433 1 1.06121 27.3669 0.217019 1.06121 27.3669 0.217019
434 2 3.0068 27.3396 1.79445 3.0068 27.3396 1.79445
435 2 2.91698 27.3941 -1.46597 2.91698 27.3941 -1.46597
436 1 3.91237 29.0135 0.165607 3.91237 29.0135 0.165607
437 2 5.87554 28.9912 1.72122 5.87554 28.9912 1.72122
438 2 5.74909 29.0358 -1.53814 5.74909 29.0358 -1.53814
439 1 6.76219 27.3673 0.0320708 6.76219 27.3673 0.0320708
440 2 8.73468 27.3395 1.57573 8.73468 27.3395 1.57573
441 2 8.58842 27.3952 -1.68268 8.58842 27.3952 -1.68268
442 1 9.61145 29.014 -0.067924 9.61145 29.014 -0.067924
443 2 11.5848 28.9904 1.47481 11.5848 28.9904 1.47481
444 2 11.4366 29.0378 -1.78368 11.4366 29.0378 -1.78368
445 1 12.4602 27.3682 -0.221595 12.4602 27.3682 -0.221595
446 2 14.4262 27.3389 1.33056 14.4262 27.3389 1.33056
447 2 14.2935 27.3978 -1.92842 14.2935 27.3978 -1.92842
448 1 15.3098 29.0149 -0.307805 15.3098 29.0149 -0.307805
449 2 17.2603 28.9884 1.26399 17.2603 28.9884 1.26399
450 2 17.1598 29.0418 -1.99628 17.1598 29.0418 -1.99628
451 1 18.1601 27.3692 -0.422355 18.1601 27.3692 -0.422355
452 2 20.0903 27.3376 1.17434 20.0903 27.3376 1.17434
453 2 20.0317 27.4012 -2.08674 20.0317 27.4012 -2.08674
454 1 21.0115 29.0157 -0.441031 21.0115 29.0157 -0.441031
455 2 22.9169 28.9853 1.18524 22.9169 28.9853 1.18524
456 2 22.9083 29.0466 -2.07643 22.9083 29.0466 -2.07643
457 1 23.8632 27.3699 -0.478977 23.8632 27.3699 -0.478977
458 2 25.7444 27.3359 1.17532 25.7444 27.3359 1.17532
459 2 25.7842 27.4043 -2.08593 25.7842 27.4043 -2.08593
460 1 26.7146 29.0162 -0.408979 26.7146 29.0162 -0.408979
461 2 28.5727 28.9826 1.2711 28.5727 28.9826 1.2711
462 2 28.6574 29.0499 -1.98934 28.6574 29.0499 -1.98934
463 1 29.5656 27.3699 -0.368351 29.5656 27.3699 -0.368351
464 2 31.4059 27.335 1.33124 31.4059 27.335 1.33124
465 2 31.5251 27.4049 -1.92802 31.5251 27.4049 -1.92802
466 1 32.415 29.0158 -0.228103 32.415 29.0158 -0.228103
467 2 34.245 28.982 1.48246 34.245 28.982 1.48246
468 2 34.3838 29.0494 -1.77608 34.3838 29.0494 -1.77608
469 1 35.2646 27.3692 -0.140424 35.2646 27.3692 -0.140424
470 2 37.0917 27.3355 1.57311 37.0917 27.3355 1.57311
471 2 37.2361 27.4026 -1.68518 37.2361 27.4026 -1.68518
472 1 38.1132 29.0148 0.0201512 38.1132 29.0148 0.0201512
473 2 39.9487 28.9837 1.72472 39.9487 28.9837 1.72472
474 2 40.0773 29.0456 -1.53431 40.0773 29.0456 -1.53431
475 1 40.9632 27.3681 0.101379 40.9632 27.3681 0.101379
476 2 42.8128 27.337 1.79054 42.8128 27.337 1.79054
477 2 42.9144 27.3988 -1.46944 42.9144 27.3988 -1.46944
478 1 43.8137 29.0138 0.221498 43.8137 29.0138 0.221498
479 2 45.6866 28.9871 1.88484 45.6866 28.9871 1.88484
480 2 45.743 29.0404 -1.37634 45.743 29.0404 -1.37634
481 1 46.6655 27.3672 0.243726 46.6655 27.3672 0.243726
482 2 48.5624 27.3388 1.87953 48.5624 27.3388 1.87953
483 2 48.5715 27.3953 -1.38208 48.5715 27.3953 -1.38208
484 1 49.5177 29.0134 0.280011 49.5177 29.0134 0.280011
485 2 51.4413 28.9901 1.88431 51.4413 28.9901 1.88431
486 2 51.3966 29.0365 -1.37713 51.3966 29.0365 -1.37713
487 1 1.06129 30.6599 0.26406 1.06129 30.6599 0.26406
488 2 3.00835 30.6431 1.83995 3.00835 30.6431 1.83995
489 2 2.91567 30.6767 -1.42064 2.91567 30.6767 -1.42064
490 1 3.91235 32.3067 0.199628 3.91235 32.3067 0.199628
491 2 5.87635 32.2967 1.7544 5.87635 32.2967 1.7544
492 2 5.74825 32.3166 -1.50513 5.74825 32.3166 -1.50513
493 1 6.76237 30.6602 0.0772294 6.76237 30.6602 0.0772294
494 2 8.73489 30.6434 1.62108 8.73489 30.6434 1.62108
495 2 8.58861 30.677 -1.63763 8.58861 30.677 -1.63763
496 1 9.61145 32.307 -0.0339062 9.61145 32.307 -0.0339062
497 2 11.5839 32.2954 1.51007 11.5839 32.2954 1.51007
498 2 11.4375 32.3185 -1.74877 11.4375 32.3185 -1.74877
499 1 12.4604 30.6608 -0.17366 12.4604 30.6608 -0.17366
500 2 14.4255 30.6412 1.37982 14.4255 30.6412 1.37982
501 2 14.2946 30.6805 -1.87956 14.2946 30.6805 -1.87956
502 1 15.3099 32.3074 -0.2681 15.3099 32.3074 -0.2681
503 2 17.2583 32.2914 1.30628 17.2583 32.2914 1.30628
504 2 17.1618 32.3237 -1.95443 17.1618 32.3237 -1.95443
505 1 18.1603 30.6615 -0.368351 18.1603 30.6615 -0.368351
506 2 20.0888 30.6374 1.23036 20.0888 30.6374 1.23036
507 2 20.0332 30.6861 -2.03109 20.0332 30.6861 -2.03109
508 1 21.0114 32.3081 -0.391842 21.0114 32.3081 -0.391842
509 2 22.9143 32.2861 1.23737 22.9143 32.2861 1.23737
510 2 22.9104 32.3304 -2.02464 22.9104 32.3304 -2.02464
511 1 23.863 30.6622 -0.41699 23.863 30.6622 -0.41699
512 2 25.7428 30.633 1.2389 25.7428 30.633 1.2389
513 2 25.785 30.6916 -2.02258 25.785 30.6916 -2.02258
514 1 26.714 32.3084 -0.349767 26.714 32.3084 -0.349767
515 2 28.5708 32.2814 1.33191 28.5708 32.2814 1.33191
516 2 28.658 32.3356 -1.92875 28.658 32.3356 -1.92875
517 1 29.5649 30.6622 -0.300265 29.5649 30.6622 -0.300265
518 2 31.4054 30.6304 1.39911 31.4054 30.6304 1.39911
519 2 31.524 30.694 -1.86034 31.524 30.694 -1.86034
520 1 32.4141 32.3082 -0.163656 32.4141 32.3082 -0.163656
521 2 34.2451 32.2799 1.54594 34.2451 32.2799 1.54594
522 2 34.3819 32.3363 -1.7129 34.3819 32.3363 -1.7129
523 1 35.2636 30.6615 -0.0720406 35.2636 30.6615 -0.0720406
524 2 37.093 30.631 1.63928 37.093 30.631 1.63928
525 2 37.2332 30.6918 -1.61931 37.2332 30.6918 -1.61931
526 1 38.1124 32.3074 0.0818085 38.1124 32.3074 0.0818085
527 2 39.951 32.2826 1.78309 39.951 32.2826 1.78309
528 2 40.0736 32.3319 -1.47636 40.0736 32.3319 -1.47636
529 1 40.9626 30.6606 0.164128 40.9626 30.6606 0.164128
530 2 42.8155 30.6348 1.84987 42.8155 30.6348 1.84987
531 2 42.9109 30.6862 -1.41043 42.9109 30.6862 -1.41043
532 1 43.8133 32.3067 0.27369 43.8133 32.3067 0.27369
533 2 45.6902 32.2885 1.93276 45.6902 32.2885 1.93276
534 2 45.739 32.3249 -1.32873 45.739 32.3249 -1.32873
535 1 46.6654 30.66 0.297767 46.6654 30.66 0.297767
536 2 48.5652 30.6398 1.93038 48.5652 30.6398 1.93038
537 2 48.5686 30.6801 -1.33143 48.5686 30.6801 -1.33143
538 1 49.5176 32.3065 0.320949 49.5176 32.3065 0.320949