ITEM: TIMESTEP
19000
ITEM: NUMBER OF ATOMS
810
ITEM: BOX BOUNDS pp pp pp
8.4223522605961509e-01 5.2175369773939742e+01
8.1178613887216100e-01 5.0204428861126758e+01
-1.0000000000000000e+01 1.0000000000000000e+01
ITEM: ATOMS id type x y z xu yu zu
1 1 1.04592 1.02581 -0.255468 1.04592 1.02581 -0.255468
2 2 2.92548 1.05942 1.40049 2.92548 1.05942 1.40049
3 2 2.96869 0.992397 -1.86072 2.96869 0.992397 -1.86072
4 1 3.89778 2.67227 -0.251394 3.89778 2.67227 -0.251394
5 2 5.7742 2.70613 1.40807 5.7742 2.70613 1.40807
6 2 5.82361 2.63859 -1.85304 5.82361 2.63859 -1.85304
7 1 6.74934 1.02627 -0.173873 6.74934 1.02627 -0.173873
8 2 8.62628 1.0605 1.48495 8.62628 1.0605 1.48495
9 2 8.67463 0.992137 -1.77616 8.67463 0.992137 -1.77616
10 1 9.60114 2.67269 -0.166103 9.60114 2.67269 -0.166103
11 2 11.4812 2.70706 1.4891 11.4812 2.70706 1.4891
12 2 11.5234 2.63835 -1.77209 11.5234 2.63835 -1.77209
13 1 12.4528 1.0266 -0.0944115 12.4528 1.0266 -0.0944115
14 2 14.3392 1.06108 1.5535 14.3392 1.06108 1.5535
15 2 14.3689 0.992061 -1.70782 14.3689 0.992061 -1.70782
16 1 15.3047 2.67287 -0.103477 15.3047 2.67287 -0.103477
17 2 17.1981 2.70688 1.53629 17.1981 2.70688 1.53629
18 2 17.2139 2.63874 -1.72516 17.2139 2.63874 -1.72516
19 1 18.1566 1.02662 -0.0553944 18.1566 1.02662 -0.0553944
20 2 20.0587 1.06112 1.57433 20.0587 1.06112 1.57433
21 2 20.0572 0.991944 -1.68712 20.0572 0.991944 -1.68712
22 1 21.0086 2.67273 -0.0918975 21.0086 2.67273 -0.0918975
23 2 22.9177 2.70586 1.52949 22.9177 2.70586 1.52949
24 2 22.902 2.63941 -1.73199 22.902 2.63941 -1.73199
25 1 23.8605 1.02635 -0.0722594 23.8605 1.02635 -0.0722594
26 2 25.7769 1.06057 1.54063 25.7769 1.06057 1.54063
27 2 25.7467 0.991952 -1.7207 25.7467 0.991952 -1.7207
28 1 26.7123 2.67238 -0.133652 26.7123 2.67238 -0.133652
29 2 28.6327 2.70441 1.47441 28.6327 2.70441 1.47441
30 2 28.5942 2.64024 -1.78693 28.5942 2.64024 -1.78693
31 1 29.5641 1.02596 -0.135041 29.5641 1.02596 -0.135041
32 2 31.4879 1.05942 1.46906 31.4879 1.05942 1.46906
33 2 31.4427 0.992404 -1.79213 31.4427 0.992404 -1.79213
34 1 32.4157 2.67202 -0.208717 32.4157 2.67202 -0.208717
35 2 34.3389 2.70298 1.3961 34.3389 2.70298 1.3961
36 2 34.2948 2.64105 -1.86519 34.2948 2.64105 -1.86519
37 1 35.2675 1.02562 -0.216091 35.2675 1.02562 -0.216091
38 2 37.1892 1.05818 1.39066 37.1892 1.05818 1.39066
39 2 37.1483 0.993063 -1.87061 37.1483 0.993063 -1.87061
40 1 38.1192 2.67178 -0.284903 38.1192 2.67178 -0.284903
41 2 40.0356 2.70228 1.3282 40.0356 2.70228 1.3282
42 2 40.0054 2.64135 -1.93326 40.0054 2.64135 -1.93326
43 1 40.9712 1.02544 -0.280507 40.9712 1.02544 -0.280507
44 2 42.8813 1.05768 1.34002 42.8813 1.05768 1.34002
45 2 42.8637 0.993293 -1.92148 42.8637 0.993293 -1.92148
46 1 43.8231 2.67171 -0.328466 43.8231 2.67171 -0.328466
47 2 45.7248 2.70279 1.30207 45.7248 2.70279 1.30207
48 2 45.7242 2.64078 -1.95951 45.7242 2.64078 -1.95951
49 1 46.6752 1.02549 -0.297494 46.6752 1.02549 -0.297494
50 2 48.5685 1.05822 1.34276 48.5685 1.05822 1.34276
51 2 48.5845 0.992944 -1.91873 48.5845 0.992944 -1.91873
52 1 49.5272 2.67188 -0.316305 49.5272 2.67188 -0.316305
53 2 51.4126 2.70436 1.33311 51.4126 2.70436 1.33311
54 2 51.4444 2.6396 -1.92826 51.4444 2.6396 -1.92826
55 1 1.04609 4.31835 -0.321029 1.04609 4.31835 -0.321029
56 2 2.92562 4.34969 1.33498 2.92562 4.34969 1.33498
57 2 2.96896 4.2872 -1.9263 2.96896 4.2872 -1.9263
58 1 3.898 5.96487 -0.314645 3.898 5.96487 -0.314645
59 2 5.77452 5.99391 1.34475 5.77452 5.99391 1.34475
60 2 5.82376 5.93599 -1.91654 5.82376 5.93599 -1.91654
61 1 6.7496 4.31874 -0.242259 6.7496 4.31874 -0.242259
62 2 8.62606 4.35144 1.41708 8.62606 4.35144 1.41708
63 2 8.67535 4.28617 -1.84408 8.67535 4.28617 -1.84408
64 1 9.60139 5.9652 -0.232209 9.60139 5.9652 -0.232209
65 2 11.4807 5.99499 1.42386 11.4807 5.99499 1.42386
66 2 11.5244 5.93548 -1.8375 11.5244 5.93548 -1.8375
67 1 12.453 4.31905 -0.164008 12.453 4.31905 -0.164008
68 2 14.3384 4.35162 1.48504 14.3384 4.35162 1.48504
69 2 14.37 4.28644 -1.77636 14.37 4.28644 -1.77636
70 1 15.3049 5.96536 -0.169516 15.3049 5.96536 -0.169516
71 2 17.1967 5.99395 1.47203 17.1967 5.99395 1.47203
72 2 17.2154 5.93669 -1.78962 17.2154 5.93669 -1.78962
73 1 18.1567 4.31906 -0.124427 18.1567 4.31906 -0.124427
74 2 20.0573 4.35032 1.50689 20.0573 4.35032 1.50689
75 2 20.0586 4.28766 -1.75471 20.0586 4.28766 -1.75471
76 1 21.0086 5.96524 -0.155397 21.0086 5.96524 -0.155397
77 2 22.9158 5.99154 1.46822 22.9158 5.99154 1.46822
78 2 22.9038 5.93882 -1.79355 22.9038 5.93882 -1.79355
79 1 23.8604 4.31881 -0.139578 23.8604 4.31881 -0.139578
80 2 25.7752 4.34835 1.47515 25.7752 4.34835 1.47515
81 2 25.7481 4.28915 -1.78641 25.7481 4.28915 -1.78641
82 1 26.7122 5.96497 -0.19365 26.7122 5.96497 -0.19365
83 2 28.6308 5.9891 1.41658 28.6308 5.9891 1.41658
84 2 28.5959 5.94077 -1.84508 28.5959 5.94077 -1.84508
85 1 29.564 4.31848 -0.200064 29.564 4.31848 -0.200064
86 2 31.4862 4.34652 1.40593 31.4862 4.34652 1.40593
87 2 31.444 4.29039 -1.85551 31.444 4.29039 -1.85551
88 1 32.4156 5.96471 -0.265592 32.4156 5.96471 -0.265592
89 2 34.3374 5.98757 1.34096 34.3374 5.98757 1.34096
90 2 34.2961 5.94186 -1.92064 34.2961 5.94186 -1.92064
91 1 35.2674 4.31821 -0.278832 35.2674 4.31821 -0.278832
92 2 37.1877 4.34549 1.32948 37.1877 4.34549 1.32948
93 2 37.1494 4.29097 -1.93202 37.1494 4.29097 -1.93202
94 1 38.1191 5.96454 -0.340118 38.1191 5.96454 -0.340118
95 2 40.0348 5.98742 1.27395 40.0348 5.98742 1.27395
96 2 40.0061 5.94173 -1.98777 40.0061 5.94173 -1.98777
97 1 40.9711 4.31806 -0.342216 40.9711 4.31806 -0.342216
98 2 42.8805 4.34574 1.27916 42.8805 4.34574 1.27916
99 2 42.8643 4.2905 -1.98249 42.8643 4.2905 -1.98249
100 1 43.8231 5.96448 -0.384388 43.8231 5.96448 -0.384388
101 2 45.7247 5.98877 1.24628 45.7247 5.98877 1.24628
102 2 45.7243 5.94032 -2.01551 45.7243 5.94032 -2.01551
103 1 46.6752 4.3181 -0.360273 46.6752 4.3181 -0.360273
104 2 48.5684 4.34735 1.28019 48.5684 4.34735 1.28019
105 2 48.5848 4.28902 -1.9814 48.5848 4.28902 -1.9814
106 1 49.5273 5.96459 -0.375333 49.5273 5.96459 -0.375333
107 2 51.413 5.99131 1.27372 51.413 5.99131 1.27372
108 2 51.4442 5.93803 -1.98785 51.4442 5.93803 -1.98785
109 1 1.04623 7.61117 -0.37494 1.04623 7.61117 -0.37494
110 2 2.92647 7.63454 1.28036 2.92647 7.63454 1.28036
111 2 2.96845 7.58794 -1.98119 2.96845 7.58794 -1.98119
112 1 3.89817 9.2578 -0.361791 3.89817 9.2578 -0.361791
113 2 5.77541 9.27677 1.29689 5.77541 9.27677 1.29689
114 2 5.82325 9.23894 -1.9647 5.82325 9.23894 -1.9647
115 1 6.74983 7.61143 -0.300891 6.74983 7.61143 -0.300891
116 2 8.62623 7.63671 1.35861 8.62623 7.63671 1.35861
117 2 8.67566 7.58626 -1.90281 8.67566 7.58626 -1.90281
118 1 9.60161 9.25799 -0.283305 9.60161 9.25799 -0.283305
119 2 11.4803 9.27782 1.37351 11.4803 9.27782 1.37351
120 2 11.5251 9.23824 -1.88815 11.5251 9.23824 -1.88815
121 1 12.4532 7.61165 -0.224312 12.4532 7.61165 -0.224312
122 2 14.3373 7.63654 1.42624 14.3373 7.63654 1.42624
123 2 14.3714 7.58677 -1.83541 14.3714 7.58677 -1.83541
124 1 15.305 9.25809 -0.219975 15.305 9.25809 -0.219975
125 2 17.195 9.27609 1.42382 17.195 9.27609 1.42382
126 2 17.2174 9.24006 -1.83812 17.2174 9.24006 -1.83812
127 1 18.1567 7.61166 -0.182473 18.1567 7.61166 -0.182473
128 2 20.0554 7.63415 1.4513 20.0554 7.63415 1.4513
129 2 20.0606 7.58909 -1.8106 20.0606 7.58909 -1.8106
130 1 21.0086 9.25801 -0.201109 21.0086 9.25801 -0.201109
131 2 22.9135 9.2727 1.42536 22.9135 9.2727 1.42536
132 2 22.9061 9.24324 -1.83673 22.9061 9.24324 -1.83673
133 1 23.8604 7.61148 -0.193032 23.8604 7.61148 -0.193032
134 2 25.7731 7.63106 1.42425 25.7731 7.63106 1.42425
135 2 25.7501 7.59182 -1.83766 25.7501 7.59182 -1.83766
136 1 26.7121 9.25783 -0.233454 26.7121 9.25783 -0.233454
137 2 28.6289 9.26967 1.37913 28.6289 9.26967 1.37913
138 2 28.5977 9.24596 -1.88285 28.5977 9.24596 -1.88285
139 1 29.5639 7.61126 -0.249048 29.5639 7.61126 -0.249048
140 2 31.4845 7.62884 1.35894 31.4845 7.62884 1.35894
141 2 31.4455 7.59366 -1.90284 31.4455 7.59366 -1.90284
142 1 32.4155 9.25769 -0.301243 32.4155 9.25769 -0.301243
143 2 34.3363 9.26829 1.30664 34.3363 9.26829 1.30664
144 2 34.2971 9.24712 -1.95524 34.2971 9.24712 -1.95524
145 1 35.2673 7.61109 -0.325137 35.2673 7.61109 -0.325137
146 2 37.1868 7.62816 1.28429 37.1868 7.62816 1.28429
147 2 37.1502 7.59407 -1.9775 37.1502 7.59407 -1.9775
148 1 38.1191 9.25762 -0.37463 38.1191 9.25762 -0.37463
149 2 40.0345 9.26869 1.2397 40.0345 9.26869 1.2397
150 2 40.0062 9.2466 -2.02225 40.0062 9.2466 -2.02225
151 1 40.971 7.61101 -0.388471 40.971 7.61101 -0.388471
152 2 42.8804 7.62909 1.23308 42.8804 7.62909 1.23308
153 2 42.8644 7.59301 -2.02883 42.8644 7.59301 -2.02883
154 1 43.8231 9.25759 -0.420878 43.8231 9.25759 -0.420878
155 2 45.7254 9.27066 1.20913 45.7254 9.27066 1.20913
156 2 45.7237 9.2446 -2.0529 45.7237 9.2446 -2.0529
157 1 46.6752 7.61102 -0.409297 46.6752 7.61102 -0.409297
158 2 48.569 7.63146 1.23058 48.569 7.63146 1.23058
159 2 48.5843 7.5907 -2.03128 48.5843 7.5907 -2.03128
160 1 49.5274 9.25765 -0.416552 49.5274 9.25765 -0.416552
161 2 51.4142 9.27377 1.23134 51.4142 9.27377 1.23134
162 2 51.4432 9.24162 -2.03052 51.4432 9.24162 -2.03052
163 1 1.0463 10.9043 -0.407428 1.0463 10.9043 -0.407428
164 2 2.92789 10.9155 1.24645 2.92789 10.9155 1.24645
165 2 2.96725 10.8932 -2.01539 2.96725 10.8932 -2.01539
166 1 3.89826 12.551 -0.384349 3.89826 12.551 -0.384349
167 2 5.7767 12.5565 1.27306 5.7767 12.5565 1.27306
168 2 5.82219 12.5456 -1.98877 5.82219 12.5456 -1.98877
169 1 6.75 10.9044 -0.339169 6.75 10.9044 -0.339169
170 2 8.62676 10.9177 1.32003 8.62676 10.9177 1.32003
171 2 8.67549 10.8912 -1.94168 8.67549 10.8912 -1.94168
172 1 9.60176 12.5511 -0.310121 9.60176 12.5511 -0.310121
173 2 11.4802 12.5573 1.34713 11.4802 12.5573 1.34713
174 2 11.5255 12.545 -1.91473 11.5255 12.545 -1.91473
175 1 12.4534 10.9046 -0.264437 12.4534 10.9046 -0.264437
176 2 14.3362 10.9172 1.38765 14.3362 10.9172 1.38765
177 2 14.3728 10.892 -1.87426 14.3728 10.892 -1.87426
178 1 15.3051 12.5511 -0.245583 15.3051 12.5511 -0.245583
179 2 17.1933 12.5551 1.40046 17.1933 12.5551 1.40046
180 2 17.2193 12.5471 -1.86166 17.2193 12.5471 -1.86166
181 1 18.1568 10.9045 -0.219055 18.1568 10.9045 -0.219055
182 2 20.0531 10.9141 1.41751 20.0531 10.9141 1.41751
183 2 20.063 10.895 -1.84465 20.063 10.895 -1.84465
184 1 21.0087 12.551 -0.220579 21.0087 12.551 -0.220579
185 2 22.9112 12.5513 1.40874 22.9112 12.5513 1.40874
186 2 22.9086 12.5507 -1.8535 22.9086 12.5507 -1.8535
187 1 23.8604 10.9044 -0.222957 23.8604 10.9044 -0.222957
188 2 25.7709 10.9104 1.39705 25.7709 10.9104 1.39705
189 2 25.7523 10.8984 -1.86511 25.7523 10.8984 -1.86511
190 1 26.7122 12.5509 -0.24571 26.7122 12.5509 -0.24571
191 2 28.6272 12.5482 1.3689 28.6272 12.5482 1.3689
192 2 28.5995 12.5536 -1.89319 28.5995 12.5536 -1.89319
193 1 29.5638 10.9043 -0.2731 29.5638 10.9043 -0.2731
194 2 31.4831 10.9082 1.33653 31.4831 10.9082 1.33653
195 2 31.4469 10.9004 -1.92546 31.4469 10.9004 -1.92546
196 1 32.4156 12.5509 -0.30909 32.4156 12.5509 -0.30909
197 2 34.3358 12.5472 1.29941 34.3358 12.5472 1.29941
198 2 34.2976 12.5546 -1.96254 34.2976 12.5546 -1.96254
199 1 35.2672 10.9043 -0.346577 35.2672 10.9043 -0.346577
200 2 37.1865 10.9079 1.26325 37.1865 10.9079 1.26325
201 2 37.1505 10.9006 -1.9987 37.1505 10.9006 -1.9987
202 1 38.1191 12.5509 -0.382046 38.1191 12.5509 -0.382046
203 2 40.035 12.5481 1.23175 40.035 12.5481 1.23175
204 2 40.0057 12.5537 -2.03026 40.0057 12.5537 -2.03026
205 1 40.971 10.9042 -0.410814 40.971 10.9042 -0.410814
206 2 42.881 10.9094 1.21011 42.881 10.9094 1.21011
207 2 42.8638 10.8991 -2.05196 42.8638 10.8991 -2.05196
208 1 43.8231 12.5509 -0.431204 43.8231 12.5509 -0.431204
209 2 45.7266 12.5504 1.19737 45.7266 12.5504 1.19737
210 2 45.7224 12.5515 -2.06476 45.7224 12.5515 -2.06476
211 1 46.6752 10.9043 -0.435619 46.6752 10.9043 -0.435619
212 2 48.5703 10.9122 1.20287 48.5703 10.9122 1.20287
213 2 48.583 10.8964 -2.0592 48.583 10.8964 -2.0592
214 1 49.5274 12.551 -0.432486 49.5274 12.551 -0.432486
215 2 51.4159 12.5536 1.21354 51.4159 12.5536 1.21354
216 2 51.4416 12.5484 -2.04849 51.4416 12.5484 -2.04849
217 1 1.04632 14.1977 -0.412671 1.04632 14.1977 -0.412671
218 2 2.92965 14.1947 1.23925 2.92965 14.1947 1.23925
219 2 2.96558 14.2006 -2.0227 2.96558 14.2006 -2.0227
220 1 3.89827 15.8443 -0.378328 3.89827 15.8443 -0.378328
221 2 5.77814 15.8354 1.27745 5.77814 15.8354 1.27745
222 2 5.82081 15.8533 -1.98439 5.82081 15.8533 -1.98439
223 1 6.75009 14.1977 -0.350195 6.75009 14.1977 -0.350195
224 2 8.62753 14.1965 1.30829 8.62753 14.1965 1.30829
225 2 8.67492 14.1989 -1.95355 8.67492 14.1989 -1.95355
226 1 9.60182 15.8443 -0.307717 9.60182 15.8443 -0.307717
227 2 11.4802 15.8356 1.3496 11.4802 15.8356 1.3496
228 2 11.5257 15.853 -1.91224 11.5257 15.853 -1.91224
229 1 12.4535 14.1977 -0.276951 12.4535 14.1977 -0.276951
230 2 14.3353 14.1956 1.37639 14.3353 14.1956 1.37639
231 2 14.3739 14.1998 -1.8856 14.3739 14.1998 -1.8856
232 1 15.3052 15.8442 -0.241369 15.3052 15.8442 -0.241369
233 2 17.1918 15.8332 1.40645 17.1918 15.8332 1.40645
234 2 17.2209 15.8551 -1.85557 17.2209 15.8551 -1.85557
235 1 18.1569 14.1976 -0.227228 18.1569 14.1976 -0.227228
236 2 20.051 14.1922 1.41188 20.051 14.1922 1.41188
237 2 20.0652 14.2029 -1.8503 20.0652 14.2029 -1.8503
238 1 21.0087 15.8441 -0.209865 21.0087 15.8441 -0.209865
239 2 22.9093 15.8296 1.4217 22.9093 15.8296 1.4217
240 2 22.9106 15.8584 -1.84041 22.9106 15.8584 -1.84041
241 1 23.8605 14.1975 -0.223634 23.8605 14.1975 -0.223634
242 2 25.769 14.1886 1.39867 25.769 14.1886 1.39867
243 2 25.7544 14.2063 -1.86348 25.7544 14.2063 -1.86348
244 1 26.7123 15.844 -0.227884 26.7123 15.844 -0.227884
245 2 28.6262 15.827 1.38799 28.6262 15.827 1.38799
246 2 28.6007 15.8608 -1.87395 28.6007 15.8608 -1.87395
247 1 29.5639 14.1974 -0.267647 29.5639 14.1974 -0.267647
248 2 31.4824 14.1868 1.34291 31.4824 14.1868 1.34291
249 2 31.4478 14.2081 -1.91904 31.4478 14.2081 -1.91904
250 1 32.4157 15.844 -0.287478 32.4157 15.844 -0.287478
251 2 34.3361 15.8266 1.32078 34.3361 15.8266 1.32078
252 2 34.2976 15.8614 -1.94099 34.2976 15.8614 -1.94099
253 1 35.2673 14.1975 -0.339078 35.2673 14.1975 -0.339078
254 2 37.1869 14.187 1.27033 37.1869 14.187 1.27033
255 2 37.1502 14.2079 -1.99157 37.1502 14.2079 -1.99157
256 1 38.1192 15.8441 -0.360807 38.1192 15.8441 -0.360807
257 2 40.0362 15.8278 1.25168 40.0362 15.8278 1.25168
258 2 40.0048 15.8604 -2.01016 40.0048 15.8604 -2.01016
259 1 40.971 14.1976 -0.405012 40.971 14.1976 -0.405012
260 2 42.8822 14.1888 1.21453 42.8822 14.1888 1.21453
261 2 42.8626 14.2063 -2.0475 42.8626 14.2063 -2.0475
262 1 43.8231 15.8442 -0.413365 43.8231 15.8442 -0.413365
263 2 45.7283 15.8302 1.21317 45.7283 15.8302 1.21317
264 2 45.7207 15.8583 -2.04884 45.7207 15.8583 -2.04884
265 1 46.6752 14.1976 -0.434395 46.6752 14.1976 -0.434395
266 2 48.572 14.1916 1.20205 48.572 14.1916 1.20205
267 2 48.5813 14.2036 -2.06005 48.5813 14.2036 -2.06005
268 1 49.5274 15.8443 -0.420271 49.5274 15.8443 -0.420271
269 2 51.4178 15.8331 1.22345 51.4178 15.8331 1.22345
270 2 51.4396 15.8555 -2.03854 51.4396 15.8555 -2.03854
271 1 1.04629 17.4909 -0.389862 1.04629 17.4909 -0.389862
272 2 2.93144 17.4745 1.25989 2.93144 17.4745 1.25989
273 2 2.96373 17.5073 -2.00194 2.96373 17.5073 -2.00194
274 1 3.89821 19.1374 -0.345041 3.89821 19.1374 -0.345041
275 2 5.77945 19.1158 1.30908 5.77945 19.1158 1.30908
276 2 5.81941 19.1591 -1.95256 5.81941 19.1591 -1.95256
277 1 6.75008 17.4909 -0.332049 6.75008 17.4909 -0.332049
278 2 8.62834 17.4755 1.32545 8.62834 17.4755 1.32545
279 2 8.67412 17.5063 -1.93626 8.67412 17.5063 -1.93626
280 1 9.60179 19.1374 -0.276575 9.60179 19.1374 -0.276575
281 2 11.4803 19.1154 1.38048 11.4803 19.1154 1.38048
282 2 11.5255 19.1593 -1.8811 11.5255 19.1593 -1.8811
283 1 12.4535 17.4908 -0.259399 12.4535 17.4908 -0.259399
284 2 14.3346 17.4742 1.39469 14.3346 17.4742 1.39469
285 2 14.3746 17.5073 -1.8671 14.3746 17.5073 -1.8671
286 1 15.3052 19.1372 -0.207919 15.3052 19.1372 -0.207919
287 2 17.1908 19.1132 1.44094 17.1908 19.1132 1.44094
288 2 17.2219 19.161 -1.82077 17.2219 19.161 -1.82077
289 1 18.157 17.4906 -0.205132 18.157 17.4906 -0.205132
290 2 20.0495 17.4712 1.43577 20.0495 17.4712 1.43577
291 2 20.0668 17.51 -1.82618 20.0668 17.51 -1.82618
292 1 21.0088 19.1369 -0.170632 21.0088 19.1369 -0.170632
293 2 22.9082 19.1103 1.46218 22.9082 19.1103 1.46218
294 2 22.9118 19.1633 -1.79961 22.9118 19.1633 -1.79961
295 1 23.8606 17.4905 -0.194574 23.8606 17.4905 -0.194574
296 2 25.7678 17.4682 1.42914 25.7678 17.4682 1.42914
297 2 25.7558 17.5126 -1.83276 25.7558 17.5126 -1.83276
298 1 26.7124 19.1368 -0.18297 26.7124 19.1368 -0.18297
299 2 28.626 19.1086 1.43317 28.626 19.1086 1.43317
300 2 28.6012 19.1648 -1.82846 28.6012 19.1648 -1.82846
301 1 29.5641 17.4904 -0.233426 29.5641 17.4904 -0.233426
302 2 31.4824 17.467 1.37716 31.4824 17.467 1.37716
303 2 31.4481 17.5137 -1.88452 31.4481 17.5137 -1.88452
304 1 32.4159 19.1368 -0.240142 32.4159 19.1368 -0.240142
305 2 34.3371 19.1088 1.36708 34.3371 19.1088 1.36708
306 2 34.2971 19.1648 -1.89438 34.2971 19.1648 -1.89438
307 1 35.2675 17.4905 -0.30379 35.2675 17.4905 -0.30379
308 2 37.188 17.4678 1.30441 37.188 17.4678 1.30441
309 2 37.1494 17.5133 -1.95722 37.1494 17.5133 -1.95722
310 1 38.1194 19.137 -0.314665 38.1194 19.137 -0.314665
311 2 40.0378 19.1103 1.29596 40.0378 19.1103 1.29596
312 2 40.0034 19.1637 -1.96559 40.0034 19.1637 -1.96559
313 1 40.9711 17.4907 -0.371995 40.9711 17.4907 -0.371995
314 2 42.8839 17.4697 1.24559 42.8839 17.4697 1.24559
315 2 42.8611 17.5118 -2.01621 42.8611 17.5118 -2.01621
316 1 43.8232 19.1373 -0.370676 43.8232 19.1373 -0.370676
317 2 45.7303 19.1124 1.25356 45.7303 19.1124 1.25356
318 2 45.7189 19.1621 -2.0082 45.7189 19.1621 -2.0082
319 1 46.6752 17.4908 -0.405878 46.6752 17.4908 -0.405878
320 2 48.574 17.4722 1.22819 48.574 17.4722 1.22819
321 2 48.5793 17.5096 -2.03374 48.5793 17.5096 -2.03374
322 1 49.5273 19.1374 -0.382332 49.5273 19.1374 -0.382332
323 2 51.4197 19.1145 1.25906 51.4197 19.1145 1.25906
324 2 51.4377 19.1603 -2.00272 51.4377 19.1603 -2.00272
325 1 1.04622 20.7839 -0.343463 1.04622 20.7839 -0.343463
326 2 2.93294 20.7572 1.30439 2.93294 20.7572 1.30439
327 2 2.96209 20.8106 -1.95721 2.96209 20.8106 -1.95721
328 1 3.8981 22.4302 -0.290872 3.8981 22.4302 -0.290872
329 2 5.78036 22.4001 1.362 5.78036 22.4001 1.362
330 2 5.81827 22.4605 -1.8994 5.81827 22.4605 -1.8994
331 1 6.74999 20.7838 -0.288264 6.74999 20.7838 -0.288264
332 2 8.62902 20.7572 1.36827 8.62902 20.7572 1.36827
333 2 8.67328 20.8105 -1.89318 8.67328 20.8105 -1.89318
334 1 9.60166 22.4301 -0.22263 9.60166 22.4301 -0.22263
335 2 11.4805 22.3991 1.43402 11.4805 22.3991 1.43402
336 2 11.5251 22.4611 -1.82728 11.5251 22.4611 -1.82728
337 1 12.4534 20.7837 -0.215048 12.4534 20.7837 -0.215048
338 2 14.3343 20.7558 1.43926 14.3343 20.7558 1.43926
339 2 14.3749 20.8115 -1.82221 14.3749 20.8115 -1.82221
340 1 15.3051 22.4298 -0.151509 15.3051 22.4298 -0.151509
341 2 17.1904 22.3973 1.49759 17.1904 22.3973 1.49759
342 2 17.2221 22.4622 -1.76381 17.2221 22.4622 -1.76381
343 1 18.1569 20.7834 -0.156725 18.1569 20.7834 -0.156725
344 2 20.0487 20.7534 1.48498 20.0487 20.7534 1.48498
345 2 20.0676 20.8132 -1.77663 20.0676 20.8132 -1.77663
346 1 21.0088 22.4295 -0.110103 21.0088 22.4295 -0.110103
347 2 22.908 22.3957 1.52285 22.908 22.3957 1.52285
348 2 22.9121 22.4631 -1.73865 22.9121 22.4631 -1.73865
349 1 23.8606 20.7831 -0.140931 23.8606 20.7831 -0.140931
350 2 25.7675 20.7515 1.4831 25.7675 20.7515 1.4831
351 2 25.7563 20.8146 -1.77848 25.7563 20.8146 -1.77848
352 1 26.7126 22.4293 -0.119117 26.7126 22.4293 -0.119117
353 2 28.6267 22.3951 1.49636 28.6267 22.3951 1.49636
354 2 28.6009 22.4634 -1.76502 28.6009 22.4634 -1.76502
355 1 29.5643 20.7831 -0.17652 29.5643 20.7831 -0.17652
356 2 31.4833 20.7512 1.43325 31.4833 20.7512 1.43325
357 2 31.4477 20.8149 -1.82813 31.4477 20.8149 -1.82813
358 1 32.4162 22.4294 -0.175635 32.4162 22.4294 -0.175635
359 2 34.3386 22.3959 1.42999 34.3386 22.3959 1.42999
360 2 34.296 22.4629 -1.83123 34.296 22.4629 -1.83123
361 1 35.2677 20.7832 -0.247032 35.2677 20.7832 -0.247032
362 2 37.1896 20.7524 1.35941 37.1896 20.7524 1.35941
363 2 37.1482 20.8141 -1.90192 37.1482 20.8141 -1.90192
364 1 38.1196 22.4297 -0.252081 38.1196 22.4297 -0.252081
365 2 40.0397 22.3975 1.35648 40.0397 22.3975 1.35648
366 2 40.0018 22.4619 -1.90484 40.0018 22.4619 -1.90484
367 1 40.9713 20.7835 -0.317856 40.9713 20.7835 -0.317856
368 2 42.8857 20.7542 1.29756 42.8857 20.7542 1.29756
369 2 42.8594 20.8129 -1.96398 42.8594 20.8129 -1.96398
370 1 43.8233 22.43 -0.311181 43.8233 22.43 -0.311181
371 2 45.732 22.399 1.31098 45.732 22.399 1.31098
372 2 45.7172 22.461 -1.95057 45.7172 22.461 -1.95057
373 1 46.6753 20.7838 -0.35552 46.6753 20.7838 -0.35552
374 2 48.5758 20.756 1.27629 48.5758 20.756 1.27629
375 2 48.5774 20.8116 -1.98539 48.5774 20.8116 -1.98539
376 1 49.5273 22.4302 -0.325932 49.5273 22.4302 -0.325932
377 2 51.4212 22.4 1.31363 51.4212 22.4 1.31363
378 2 51.4361 22.4605 -1.94795 51.4361 22.4605 -1.94795
379 1 1.04613 24.0765 -0.282206 1.04613 24.0765 -0.282206
380 2 2.93381 24.0444 1.36447 2.93381 24.0444 1.36447
381 2 2.96098 24.1087 -1.89697 2.96098 24.1087 -1.89697
382 1 3.89795 25.7228 -0.225784 3.89795 25.7228 -0.225784
383 2 5.78068 25.6895 1.42652 5.78068 25.6895 1.42652
384 2 5.81761 25.7562 -1.83478 5.81761 25.7562 -1.83478
385 1 6.74984 24.0765 -0.227094 6.74984 24.0765 -0.227094
386 2 8.6294 24.0435 1.42876 8.6294 24.0435 1.42876
387 2 8.67257 24.1094 -1.83247 8.67257 24.1094 -1.83247
388 1 9.60146 25.7226 -0.155915 9.60146 25.7226 -0.155915
389 2 11.4807 25.6882 1.50031 11.4807 25.6882 1.50031
390 2 11.5245 25.757 -1.76086 11.5245 25.757 -1.76086
391 1 12.4533 24.0762 -0.152285 12.4533 24.0762 -0.152285
392 2 14.3343 24.0422 1.50178 14.3343 24.0422 1.50178
393 2 14.3746 24.1102 -1.75945 14.3746 24.1102 -1.75945
394 1 15.3049 25.7223 -0.0827162 15.3049 25.7223 -0.0827162
395 2 17.1907 25.6873 1.5659 17.1907 25.6873 1.5659
396 2 17.2216 25.7571 -1.69539 17.2216 25.7571 -1.69539
397 1 18.1568 24.0759 -0.0910998 18.1568 24.0759 -0.0910998
398 2 20.0488 24.0409 1.55043 20.0488 24.0409 1.55043
399 2 20.0675 24.1106 -1.71096 20.0675 24.1106 -1.71096
400 1 21.0087 25.7219 -0.0395427 21.0087 25.7219 -0.0395427
401 2 22.9088 25.687 1.5926 22.9088 25.687 1.5926
402 2 22.9114 25.7566 -1.66884 22.9114 25.7566 -1.66884
403 1 23.8607 24.0756 -0.0726057 23.8607 24.0756 -0.0726057
404 2 25.7682 24.0404 1.55076 25.7682 24.0404 1.55076
405 2 25.7558 24.1106 -1.71065 25.7558 24.1106 -1.71065
406 1 26.7127 25.7217 -0.0480275 26.7127 25.7217 -0.0480275
407 2 28.6281 25.6876 1.5661 28.6281 25.6876 1.5661
408 2 28.5999 25.7557 -1.69525 28.5999 25.7557 -1.69525
409 1 29.5645 24.0755 -0.107293 29.5645 24.0755 -0.107293
410 2 31.4847 24.041 1.50105 31.4847 24.041 1.50105
411 2 31.4467 24.11 -1.76018 31.4467 24.11 -1.76018
412 1 32.4164 25.7218 -0.105691 32.4164 25.7218 -0.105691
413 2 34.3404 25.6889 1.49815 34.3404 25.6889 1.49815
414 2 34.2946 25.7548 -1.76305 34.2946 25.7548 -1.76305
415 1 35.268 24.0757 -0.179154 35.268 24.0757 -0.179154
416 2 37.1914 24.0424 1.42535 37.1914 24.0424 1.42535
417 2 37.1468 24.1091 -1.83585 37.1468 24.1091 -1.83585
418 1 38.1198 25.7221 -0.184486 38.1198 25.7221 -0.184486
419 2 40.0415 25.6903 1.42226 40.0415 25.6903 1.42226
420 2 40.0004 25.7541 -1.83905 40.0004 25.7541 -1.83905
421 1 40.9714 24.0761 -0.252636 40.9714 24.0761 -0.252636
422 2 42.8875 24.0439 1.36085 42.8875 24.0439 1.36085
423 2 42.8579 24.1084 -1.90056 42.8579 24.1084 -1.90056
424 1 43.8234 25.7225 -0.245805 43.8234 25.7225 -0.245805
425 2 45.7333 25.691 1.37497 45.7333 25.691 1.37497
426 2 45.716 25.7541 -1.88656 45.716 25.7541 -1.88656
427 1 46.6753 24.0764 -0.29278 46.6753 24.0764 -0.29278
428 2 48.5772 24.0446 1.33743 48.5772 24.0446 1.33743
429 2 48.576 24.1083 -1.92413 48.576 24.1083 -1.92413
430 1 49.5273 25.7227 -0.261426 49.5273 25.7227 -0.261426
431 2 51.4219 25.6906 1.37725 51.4219 25.6906 1.37725
432 2 51.4352 25.755 -1.88428 51.4352 25.755 -1.88428
433 1 1.04603 27.369 -0.217017 1.04603 27.369 -0.217017
434 2 2.93391 27.3371 1.42945 2.93391 27.3371 1.42945
435 2 2.96061 27.401 -1.83201 2.96061 27.401 -1.83201
436 1 3.89778 29.0153 -0.161097 3.89778 29.0153 -0.161097
437 2 5.7804 28.9845 1.49141 5.7804 28.9845 1.49141
438 2 5.81749 29.0461 -1.77 5.81749 29.0461 -1.77
439 1 6.74963 27.369 -0.159584 6.74963 27.369 -0.159584
440 2 8.62944 27.3356 1.49603 8.62944 27.3356 1.49603
441 2 8.67211 27.4024 -1.7652 8.67211 27.4024 -1.7652
442 1 9.60122 29.0151 -0.0882847 9.60122 29.0151 -0.0882847
443 2 11.4808 28.9833 1.56756 11.4808 28.9833 1.56756
444 2 11.5239 29.0469 -1.69371 11.5239 29.0469 -1.69371
445 1 12.4531 27.3687 -0.082646 12.4531 27.3687 -0.082646
446 2 14.3347 27.3347 1.57083 14.3347 27.3347 1.57083
447 2 14.3738 27.4026 -1.69041 14.3738 27.4026 -1.69041
448 1 15.3047 29.0148 -0.0139694 15.3047 29.0148 -0.0139694
449 2 17.1916 28.9835 1.63356 17.1916 28.9835 1.63356
450 2 17.2204 29.046 -1.62788 17.2204 29.046 -1.62788
451 1 18.1567 27.3683 -0.0203852 18.1567 27.3683 -0.0203852
452 2 20.0496 27.3348 1.62014 20.0496 27.3348 1.62014
453 2 20.0665 27.4017 -1.6413 20.0665 27.4017 -1.6413
454 1 21.0087 29.0145 0.0282759 21.0087 29.0145 0.0282759
455 2 22.9102 28.9847 1.65885 22.9102 28.9847 1.65885
456 2 22.9099 29.0441 -1.60276 22.9099 29.0441 -1.60276
457 1 23.8607 27.368 -0.00212071 23.8607 27.368 -0.00212071
458 2 25.7696 27.3357 1.61983 25.7696 27.3357 1.61983
459 2 25.7546 27.4003 -1.64166 25.7546 27.4003 -1.64166
460 1 26.7128 29.0143 0.0175222 26.7128 29.0143 0.0175222
461 2 28.6298 28.9864 1.62991 28.6298 28.9864 1.62991
462 2 28.5984 29.0423 -1.63162 28.5984 29.0423 -1.63162
463 1 29.5647 27.368 -0.0382976 29.5647 27.368 -0.0382976
464 2 31.4864 27.337 1.56836 31.4864 27.337 1.56836
465 2 31.4453 27.3991 -1.69297 31.4453 27.3991 -1.69297
466 1 32.4165 29.0144 -0.0428145 32.4165 29.0144 -0.0428145
467 2 34.3421 28.9879 1.55941 34.3421 28.9879 1.55941
468 2 34.2933 29.0411 -1.70197 34.2933 29.0411 -1.70197
469 1 35.2682 27.3682 -0.112433 35.2682 27.3682 -0.112433
470 2 37.1932 27.3384 1.49037 37.1932 27.3384 1.49037
471 2 37.1454 27.3982 -1.77092 37.1454 27.3982 -1.77092
472 1 38.1199 29.0147 -0.123857 38.1199 29.0147 -0.123857
473 2 40.0427 28.9887 1.48171 40.0427 28.9887 1.48171
474 2 39.9994 29.0409 -1.77979 39.9994 29.0409 -1.77979
475 1 40.9716 27.3686 -0.18807 40.9716 27.3686 -0.18807
476 2 42.8888 27.3391 1.42416 42.8888 27.3391 1.42416
477 2 42.8568 27.3982 -1.83735 42.8568 27.3982 -1.83735
478 1 43.8234 29.015 -0.185923 43.8234 29.015 -0.185923
479 2 45.7338 28.9882 1.43446 45.7338 28.9882 1.43446
480 2 45.7155 29.042 -1.82726 45.7155 29.042 -1.82726
481 1 46.6753 27.3689 -0.228862 46.6753 27.3689 -0.228862
482 2 48.5778 27.3386 1.40076 48.5778 27.3386 1.40076
483 2 48.5754 27.3993 -1.86087 48.5754 27.3993 -1.86087
484 1 49.5272 29.0153 -0.199937 49.5272 29.0153 -0.199937
485 2 51.4218 28.9865 1.43894 51.4218 28.9865 1.43894
486 2 51.4352 29.0441 -1.82273 51.4352 29.0441 -1.82273
487 1 1.0459 30.6616 -0.158791 1.0459 30.6616 -0.158791
488 2 2.93324 30.6351 1.48841 2.93324 30.6351 1.48841
489 2 2.96095 30.6882 -1.77324 2.96095 30.6882 -1.77324
490 1 3.8976 32.308 -0.107385 3.8976 32.308 -0.107385
491 2 5.77964 32.2847 1.54592 5.77964 32.2847 1.54592
492 2 5.81784 32.3313 -1.71572 5.81784 32.3313 -1.71572
493 1 6.7494 30.6616 -0.0972365 6.7494 30.6616 -0.0972365
494 2 8.62921 30.6333 1.55852 8.62921 30.6333 1.55852
495 2 8.67187 30.6898 -1.7029 8.67187 30.6898 -1.7029
496 1 9.60098 32.3078 -0.0310419 9.60098 32.3078 -0.0310419
497 2 11.4811 32.2838 1.62443 11.4811 32.2838 1.62443
498 2 11.5232 32.3318 -1.63712 11.5232 32.3318 -1.63712
499 1 12.4528 30.6613 -0.0182713 12.4528 30.6613 -0.0182713
500 2 14.3354 30.6331 1.63431 14.3354 30.6331 1.63431
501 2 14.3727 30.6894 -1.62715 14.3727 30.6894 -1.62715
502 1 15.3046 32.3076 0.043055 15.3046 32.3076 0.043055
503 2 17.193 32.2851 1.689 17.193 32.2851 1.689
504 2 17.2188 32.33 -1.57273 17.2188 32.33 -1.57273
505 1 18.1566 30.661 0.0429559 18.1566 30.661 0.0429559
506 2 20.0511 30.6346 1.6818 20.0511 30.6346 1.6818
507 2 20.0648 30.6873 -1.57989 20.0648 30.6873 -1.57989
508 1 21.0087 32.3074 0.0817641 21.0087 32.3074 0.0817641
509 2 22.9122 32.2876 1.71023 22.9122 32.2876 1.71023
510 2 22.908 32.3271 -1.55167 22.908 32.3271 -1.55167
511 1 23.8608 30.6608 0.0580988 23.8608 30.6608 0.0580988
512 2 25.7714 30.6367 1.67814 25.7714 30.6367 1.67814
513 2 25.7529 30.6849 -1.5836 25.7529 30.6849 -1.5836
514 1 26.7129 32.3073 0.0663471 26.7129 32.3073 0.0663471
515 2 28.6316 32.29 1.67686 28.6316 32.29 1.67686
516 2 28.5967 32.3246 -1.58491 28.5967 32.3246 -1.58491
517 1 29.5648 30.6608 0.0183605 29.5648 30.6608 0.0183605
518 2 31.4881 30.6386 1.62335 31.4881 30.6386 1.62335
519 2 31.4439 30.6831 -1.63821 31.4439 30.6831 -1.63821
520 1 32.4166 32.3074 0.00230669 32.4166 32.3074 0.00230669
521 2 34.3433 32.2914 1.60333 34.3433 32.2914 1.60333
522 2 34.2922 32.3234 -1.65829 34.2922 32.3234 -1.65829
523 1 35.2683 30.661 -0.0584952 35.2683 30.661 -0.0584952
524 2 37.1944 30.6395 1.54317 37.1944 30.6395 1.54317
525 2 37.1444 30.6825 -1.71835 37.1444 30.6825 -1.71835
526 1 38.12 32.3076 -0.0803363 38.12 32.3076 -0.0803363
527 2 40.0432 32.2914 1.5249 40.0432 32.2914 1.5249
528 2 39.999 32.3238 -1.73685 39.999 32.3238 -1.73685
529 1 40.9717 30.6612 -0.135162 40.9717 30.6612 -0.135162
530 2 42.8892 30.6393 1.47674 42.8892 30.6393 1.47674
531 2 42.8564 30.6834 -1.78501 42.8564 30.6834 -1.78501
532 1 43.8234 32.3078 -0.1413 43.8234 32.3078 -0.1413
533 2 45.7334 32.2899 1.4797 45.7334 32.2899 1.4797
534 2 45.7159 32.3258 -1.78228 45.7159 32.3258 -1.78228
535 1 46.6753 30.6615 -0.174447 46.6753 30.6615 -0.174447
536 2 48.5774 30.6376 1.45568 48.5774 30.6376 1.45568
537 2 48.5757 30.6856 -1.80619 48.5757 30.6856 -1.80619
538 1 49.5271 32.308 -0.151403 49.5271 32.308 -0.151403