ITEM: TIMESTEP
79000
ITEM: NUMBER OF ATOMS
810
ITEM: BOX BOUNDS pp pp pp
8.4783403044739791e-01 5.2169770969551259e+01
8.2209752870531294e-01 5.0194117471294042e+01
-1.0000000000000000e+01 1.0000000000000000e+01
ITEM: ATOMS id type x y z xu yu zu
1 1 1.0524 1.03816 0.0362484 1.0524 1.03816 0.0362484
2 2 2.99671 1.11668 1.61356 2.99671 1.11668 1.61356
3 2 2.90947 0.95911 -1.64366 2.90947 0.95911 -1.64366
4 1 3.90285 2.68198 -0.120424 3.90285 2.68198 -0.120424
5 2 5.85615 2.75704 1.44581 5.85615 2.75704 1.44581
6 2 5.75011 2.60652 -1.8112 5.75011 2.60652 -1.8112
7 1 6.75388 1.03633 -0.137514 6.75388 1.03633 -0.137514
8 2 8.71239 1.11408 1.42232 8.71239 1.11408 1.42232
9 2 8.59568 0.958104 -1.83403 8.59568 0.958104 -1.83403
10 1 9.60345 2.68006 -0.318991 9.60345 2.68006 -0.318991
11 2 11.5574 2.75391 1.24682 11.5574 2.75391 1.24682
12 2 11.4503 2.60604 -2.01021 11.4503 2.60604 -2.01021
13 1 12.4546 1.03435 -0.338118 12.4546 1.03435 -0.338118
14 2 14.4001 1.11111 1.23823 14.4001 1.11111 1.23823
15 2 14.3104 0.957501 -2.01907 14.3104 0.957501 -2.01907
16 1 15.3052 2.67855 -0.494386 15.3052 2.67855 -0.494386
17 2 17.2346 2.75173 1.10212 17.2346 2.75173 1.10212
18 2 17.1784 2.6056 -2.15621 17.1784 2.6056 -2.15621
19 1 18.1574 1.03326 -0.46943 18.1574 1.03326 -0.46943
20 2 20.0694 1.10941 1.14771 20.0694 1.10941 1.14771
21 2 20.0482 0.957396 -2.11082 20.0482 0.957396 -2.11082
22 1 21.0095 2.67814 -0.564656 21.0095 2.67814 -0.564656
23 2 22.901 2.75157 1.07674 22.901 2.75157 1.07674
24 2 22.9212 2.60518 -2.18199 22.9212 2.60518 -2.18199
25 1 23.8618 1.03344 -0.472604 23.8618 1.03344 -0.472604
26 2 25.7352 1.10992 1.18922 25.7352 1.10992 1.18922
27 2 25.7907 0.957445 -2.06889 25.7907 0.957445 -2.06889
28 1 26.714 2.67887 -0.500741 26.714 2.67887 -0.500741
29 2 28.5708 2.75355 1.17971 28.5708 2.75355 1.17971
30 2 28.6589 2.60474 -2.07781 28.6589 2.60474 -2.07781
31 1 29.5647 1.03474 -0.347981 29.5647 1.03474 -0.347981
32 2 31.411 1.11227 1.34381 31.411 1.11227 1.34381
33 2 31.5192 0.957739 -1.9129 31.5192 0.957739 -1.9129
34 1 32.4159 2.68047 -0.331175 32.4159 2.68047 -0.331175
35 2 34.2569 2.7565 1.3663 34.2569 2.7565 1.3663
36 2 34.3753 2.60497 -1.8902 34.3753 2.60497 -1.8902
37 1 35.2656 1.03669 -0.150689 35.2656 1.03669 -0.150689
38 2 37.1102 1.11482 1.54262 37.1102 1.11482 1.54262
39 2 37.2215 0.958932 -1.71394 37.2215 0.958932 -1.71394
40 1 38.1166 2.68232 -0.132154 38.1166 2.68232 -0.132154
41 2 39.9701 2.75863 1.55125 39.9701 2.75863 1.55125
42 2 40.0641 2.60628 -1.70606 40.0641 2.60628 -1.70606
43 1 40.9669 1.03837 0.0271006 40.9669 1.03837 0.0271006
44 2 42.8372 1.11655 1.69173 42.8372 1.11655 1.69173
45 2 42.8987 0.960189 -1.56612 42.8987 0.960189 -1.56612
46 1 43.8188 2.68346 0.00149082 43.8188 2.68346 0.00149082
47 2 45.707 2.7596 1.64555 45.707 2.7596 1.64555
48 2 45.7329 2.60721 -1.61304 45.7329 2.60721 -1.61304
49 1 46.6706 1.03894 0.100831 46.6706 1.03894 0.100831
50 2 48.5803 1.11743 1.71994 48.5803 1.11743 1.71994
51 2 48.5636 0.960119 -1.53841 48.5636 0.960119 -1.53841
52 1 49.5224 2.68332 0.00614887 49.5224 2.68332 0.00614887
53 2 51.4499 2.75926 1.60391 51.4499 2.75926 1.60391
54 2 51.3969 2.60703 -1.65436 51.3969 2.60703 -1.65436
55 1 1.05158 4.32754 -0.117953 1.05158 4.32754 -0.117953
56 2 2.9932 4.39665 1.46274 2.9932 4.39665 1.46274
57 2 2.91103 4.25813 -1.79556 2.91103 4.25813 -1.79556
58 1 3.90184 5.97197 -0.260773 3.90184 5.97197 -0.260773
59 2 5.85231 6.03049 1.30942 5.85231 6.03049 1.30942
60 2 5.75186 5.9133 -1.94918 5.75186 5.9133 -1.94918
61 1 6.75262 4.32597 -0.290042 6.75262 4.32597 -0.290042
62 2 8.70831 4.39365 1.27359 8.70831 4.39365 1.27359
63 2 8.59734 4.25809 -1.98388 8.59734 4.25809 -1.98388
64 1 9.60233 5.97053 -0.456382 9.60233 5.97053 -0.456382
65 2 11.5538 6.0278 1.11317 11.5538 6.0278 1.11317
66 2 11.4519 5.91331 -2.14533 11.4519 5.91331 -2.14533
67 1 12.4535 4.32434 -0.487954 12.4535 4.32434 -0.487954
68 2 14.3966 4.39112 1.09185 14.3966 4.39112 1.09185
69 2 14.3122 4.25768 -2.1664 14.3122 4.25768 -2.1664
70 1 15.3045 5.96943 -0.629581 15.3045 5.96943 -0.629581
71 2 17.2321 6.02674 0.96977 17.2321 6.02674 0.96977
72 2 17.1799 5.91244 -2.2898 17.1799 5.91244 -2.2898
73 1 18.1569 4.32346 -0.617441 18.1569 4.32346 -0.617441
74 2 20.0672 4.39045 1.00235 20.0672 4.39045 1.00235
75 2 20.0501 4.25689 -2.25689 20.0501 4.25689 -2.25689
76 1 21.0095 5.96912 -0.699926 21.0095 5.96912 -0.699926
77 2 22.8999 6.02769 0.943412 22.8999 6.02769 0.943412
78 2 22.9227 5.91102 -2.31639 22.9227 5.91102 -2.31639
79 1 23.8621 4.32362 -0.620842 23.8621 4.32362 -0.620842
80 2 25.7344 4.39185 1.04278 25.7344 4.39185 1.04278
81 2 25.7927 4.25591 -2.2159 25.7927 4.25591 -2.2159
82 1 26.7146 5.96965 -0.638392 26.7146 5.96965 -0.638392
83 2 28.5708 6.03016 1.04346 28.5708 6.03016 1.04346
84 2 28.6606 5.90965 -2.21511 28.6606 5.90965 -2.21511
85 1 29.5658 4.32469 -0.49868 29.5658 4.32469 -0.49868
86 2 31.411 4.39471 1.19462 31.411 4.39471 1.19462
87 2 31.5215 4.25523 -2.06264 31.5215 4.25523 -2.06264
88 1 32.4171 5.97085 -0.472456 32.4171 5.97085 -0.472456
89 2 34.2569 6.03304 1.22678 34.2569 6.03304 1.22678
90 2 34.3777 5.90918 -2.03079 34.3777 5.90918 -2.03079
91 1 35.2669 4.32634 -0.304181 35.2669 4.32634 -0.304181
92 2 37.1096 4.39736 1.39131 37.1096 4.39736 1.39131
93 2 37.2244 4.25578 -1.86581 37.2244 4.25578 -1.86581
94 1 38.1177 5.97229 -0.275597 38.1177 5.97229 -0.275597
95 2 39.969 6.03464 1.41058 39.969 6.03464 1.41058
96 2 40.067 5.91028 -1.84786 40.067 5.91028 -1.84786
97 1 40.9678 4.32781 -0.127234 40.9678 4.32781 -0.127234
98 2 42.8357 4.39853 1.54017 42.8357 4.39853 1.54017
99 2 42.9015 4.25723 -1.7184 42.9015 4.25723 -1.7184
100 1 43.8193 5.97319 -0.141654 43.8193 5.97319 -0.141654
101 2 45.7049 6.03457 1.50563 45.7049 6.03457 1.50563
102 2 45.7355 5.91183 -1.75429 45.7355 5.91183 -1.75429
103 1 46.6706 4.32828 -0.0535137 46.6706 4.32828 -0.0535137
104 2 48.5778 4.39838 1.56848 48.5778 4.39838 1.56848
105 2 48.5656 4.258 -1.69079 48.5656 4.258 -1.69079
106 1 49.5221 5.97304 -0.136048 49.5221 5.97304 -0.136048
107 2 51.4469 6.03315 1.46524 51.4469 6.03315 1.46524
108 2 51.3988 5.91276 -1.79455 51.3988 5.91276 -1.79455
109 1 1.05095 7.61804 -0.239922 1.05095 7.61804 -0.239922
110 2 2.98987 7.66476 1.34462 2.98987 7.66476 1.34462
111 2 2.9129 7.57119 -1.91548 2.9129 7.57119 -1.91548
112 1 3.90121 9.2635 -0.355593 3.90121 9.2635 -0.355593
113 2 5.84932 9.29449 1.21812 5.84932 9.29449 1.21812
114 2 5.75356 9.23245 -2.04217 5.75356 9.23245 -2.04217
115 1 6.75167 7.61697 -0.408811 6.75167 7.61697 -0.408811
116 2 8.70485 7.66209 1.15861 8.70485 7.66209 1.15861
117 2 8.59901 7.57183 -2.10061 8.59901 7.57183 -2.10061
118 1 9.60164 9.26271 -0.547869 9.60164 9.26271 -0.547869
119 2 11.5514 9.29279 1.02451 11.5514 9.29279 1.02451
120 2 11.4531 9.23272 -2.23554 11.4531 9.23272 -2.23554
121 1 12.4527 7.61593 -0.603977 12.4527 7.61593 -0.603977
122 2 14.394 7.66069 0.978736 14.394 7.66069 0.978736
123 2 14.3135 7.57135 -2.28106 14.3135 7.57135 -2.28106
124 1 15.304 9.26215 -0.720093 15.304 9.26215 -0.720093
125 2 17.2309 9.29315 0.880855 17.2309 9.29315 0.880855
126 2 17.1805 9.23136 -2.38009 17.1805 9.23136 -2.38009
127 1 18.1566 7.61536 -0.733224 18.1566 7.61536 -0.733224
128 2 20.0659 7.66136 0.88843 20.0659 7.66136 0.88843
129 2 20.0511 7.56971 -2.37217 20.0511 7.56971 -2.37217
130 1 21.0094 9.26198 -0.792741 21.0094 9.26198 -0.792741
131 2 22.8998 9.29519 0.851449 22.8998 9.29519 0.851449
132 2 22.9231 9.22905 -2.40968 22.9231 9.22905 -2.40968
133 1 23.8624 7.61544 -0.73899 23.8624 7.61544 -0.73899
134 2 25.7342 7.66351 0.925875 25.7342 7.66351 0.925875
135 2 25.7938 7.56779 -2.33412 25.7938 7.56779 -2.33412
136 1 26.7151 9.26224 -0.735327 26.7151 9.26224 -0.735327
137 2 28.5712 9.29779 0.947277 28.5712 9.29779 0.947277
138 2 28.6614 9.22702 -2.31267 28.6614 9.22702 -2.31267
139 1 29.5667 7.61613 -0.620725 29.5667 7.61613 -0.620725
140 2 31.4113 7.66626 1.07384 31.4113 7.66626 1.07384
141 2 31.5231 7.56645 -2.18478 31.5231 7.56645 -2.18478
142 1 32.418 9.26291 -0.573562 32.418 9.26291 -0.573562
143 2 34.2571 9.29999 1.12706 34.2571 9.29999 1.12706
144 2 34.3792 9.22618 -2.13197 34.3792 9.22618 -2.13197
145 1 35.268 7.61725 -0.429661 35.268 7.61725 -0.429661
146 2 37.1092 7.6683 1.26805 37.1092 7.6683 1.26805
147 2 37.2268 7.56661 -1.99048 37.2268 7.56661 -1.99048
148 1 38.1185 9.26374 -0.378638 38.1185 9.26374 -0.378638
149 2 39.968 9.30065 1.31014 39.968 9.30065 1.31014
150 2 40.0694 9.22711 -1.94978 40.0694 9.22711 -1.94978
151 1 40.9686 7.61827 -0.253238 40.9686 7.61827 -0.253238
152 2 42.834 7.66849 1.41737 42.834 7.66849 1.41737
153 2 42.9043 7.56825 -1.84271 42.9043 7.56825 -1.84271
154 1 43.8196 9.26427 -0.243223 43.8196 9.26427 -0.243223
155 2 45.7028 9.29942 1.4074 45.7028 9.29942 1.4074
156 2 45.7379 9.22916 -1.8541 45.7379 9.22916 -1.8541
157 1 46.6707 7.61858 -0.177851 46.6707 7.61858 -0.177851
158 2 48.5753 7.66715 1.44769 48.5753 7.66715 1.44769
159 2 48.5678 7.56997 -1.81328 48.5678 7.56997 -1.81328
160 1 49.5219 9.26414 -0.234505 49.5219 9.26414 -0.234505
161 2 51.4441 9.29709 1.37033 51.4441 9.29709 1.37033
162 2 51.4009 9.2311 -1.89114 51.4009 9.2311 -1.89114
163 1 1.05068 10.91 -0.306803 1.05068 10.91 -0.306803
164 2 2.98747 10.9256 1.28079 2.98747 10.9256 1.28079
165 2 2.91467 10.8943 -1.98063 2.91467 10.8943 -1.98063
166 1 3.90111 12.5562 -0.387393 3.90111 12.5562 -0.387393
167 2 5.84777 12.554 1.18835 5.84777 12.554 1.18835
168 2 5.75492 12.5583 -2.07263 5.75492 12.5583 -2.07263
169 1 6.75125 10.9095 -0.471703 6.75125 10.9095 -0.471703
170 2 8.7028 10.9237 1.09823 8.7028 10.9237 1.09823
171 2 8.60027 10.8954 -2.16222 8.60027 10.8954 -2.16222
172 1 9.60153 12.5561 -0.576528 9.60153 12.5561 -0.576528
173 2 11.5506 12.5534 0.99683 11.5506 12.5534 0.99683
174 2 11.4537 12.5589 -2.2638 11.4537 12.5589 -2.2638
175 1 12.4523 10.9092 -0.664851 12.4523 10.9092 -0.664851
176 2 14.393 10.9236 0.919157 14.393 10.9236 0.919157
177 2 14.3139 10.8949 -2.34173 14.3139 10.8949 -2.34173
178 1 15.3039 12.5562 -0.749139 15.3039 12.5562 -0.749139
179 2 17.2313 12.5549 0.851467 17.2313 12.5549 0.851467
180 2 17.1799 12.5574 -2.41003 17.1799 12.5574 -2.41003
181 1 18.1564 10.909 -0.795795 18.1564 10.909 -0.795795
182 2 20.066 10.9255 0.826103 20.066 10.9255 0.826103
183 2 20.0508 10.8927 -2.43556 20.0508 10.8927 -2.43556
184 1 21.0094 12.5562 -0.825968 21.0094 12.5562 -0.825968
185 2 22.9008 12.5577 0.817388 22.9008 12.5577 0.817388
186 2 22.9222 12.5547 -2.44439 22.9222 12.5547 -2.44439
187 1 23.8625 10.909 -0.805954 23.8625 10.909 -0.805954
188 2 25.7349 10.9282 0.858971 25.7349 10.9282 0.858971
189 2 25.7937 10.8901 -2.40216 25.7937 10.8901 -2.40216
190 1 26.7153 12.5563 -0.773876 26.7153 12.5563 -0.773876
191 2 28.5722 12.5602 0.908299 28.5722 12.5602 0.908299
192 2 28.661 12.5524 -2.35242 28.661 12.5524 -2.35242
193 1 29.5672 10.9093 -0.692406 29.5672 10.9093 -0.692406
194 2 31.4119 10.9304 1.00268 31.4119 10.9304 1.00268
195 2 31.5237 10.8884 -2.25717 31.5237 10.8884 -2.25717
196 1 32.4184 12.5564 -0.616109 32.4184 12.5564 -0.616109
197 2 34.2575 12.5615 1.08492 34.2575 12.5615 1.08492
198 2 34.3797 12.5514 -2.17491 34.3797 12.5514 -2.17491
199 1 35.2687 10.9098 -0.504448 35.2687 10.9098 -0.504448
200 2 37.109 10.9315 1.19481 37.109 10.9315 1.19481
201 2 37.2284 10.8883 -2.06496 37.2284 10.8883 -2.06496
202 1 38.119 12.5565 -0.422396 38.119 12.5565 -0.422396
203 2 39.9673 12.5612 1.26793 39.9673 12.5612 1.26793
204 2 40.0708 12.5519 -1.99277 40.0708 12.5519 -1.99277
205 1 40.9691 10.9102 -0.327777 40.9691 10.9102 -0.327777
206 2 42.8325 10.9306 1.34552 42.8325 10.9306 1.34552
207 2 42.9065 10.8899 -1.9158 42.9065 10.8899 -1.9158
208 1 43.8199 12.5566 -0.284559 43.8199 12.5566 -0.284559
209 2 45.7012 12.5591 1.36849 45.7012 12.5591 1.36849
210 2 45.7398 12.5539 -1.89375 45.7398 12.5539 -1.89375
211 1 46.6708 10.9103 -0.249051 46.6708 10.9103 -0.249051
212 2 48.5731 10.9283 1.37961 48.5731 10.9283 1.37961
213 2 48.57 10.8922 -1.88266 48.57 10.8922 -1.88266
214 1 49.5218 12.5564 -0.271066 49.5218 12.5564 -0.271066
215 2 51.4423 12.5563 1.33626 51.4423 12.5563 1.33626
216 2 51.4027 12.5564 -1.92596 51.4027 12.5564 -1.92596
217 1 1.05081 14.2026 -0.306718 1.05081 14.2026 -0.306718
218 2 2.98638 14.1846 1.28233 2.98638 14.1846 1.28233
219 2 2.91605 14.2204 -1.9791 2.91605 14.2204 -1.9791
220 1 3.90152 15.8489 -0.351087 3.90152 15.8489 -0.351087
221 2 5.84775 15.8142 1.22486 5.84775 15.8142 1.22486
222 2 5.75583 15.8833 -2.0354 5.75583 15.8833 -2.0354
223 1 6.75144 14.2027 -0.46739 6.75144 14.2027 -0.46739
224 2 8.70245 14.1833 1.10316 8.70245 14.1833 1.10316
225 2 8.60103 14.222 -2.15723 8.60103 14.222 -2.15723
226 1 9.60202 15.8494 -0.537296 9.60202 15.8494 -0.537296
227 2 11.5516 15.8143 1.0351 11.5516 15.8143 1.0351
228 2 11.4536 15.8845 -2.22476 11.4536 15.8845 -2.22476
229 1 12.4525 14.2031 -0.659242 12.4525 14.2031 -0.659242
230 2 14.3937 14.1842 0.924023 14.3937 14.1842 0.924023
231 2 14.3134 14.2219 -2.33676 14.3134 14.2219 -2.33676
232 1 15.3042 15.8501 -0.710942 15.3042 15.8501 -0.710942
233 2 17.2331 15.8165 0.887395 17.2331 15.8165 0.887395
234 2 17.1785 15.8836 -2.37339 17.1785 15.8836 -2.37339
235 1 18.1564 14.2034 -0.793189 18.1564 14.2034 -0.793189
236 2 20.0675 14.1869 0.826997 20.0675 14.1869 0.826997
237 2 20.0494 14.2197 -2.43465 20.0494 14.2197 -2.43465
238 1 21.0094 15.8505 -0.792651 21.0094 15.8505 -0.792651
239 2 22.9028 15.8195 0.84811 22.9028 15.8195 0.84811
240 2 22.9201 15.8813 -2.41314 22.9201 15.8813 -2.41314
241 1 23.8625 14.2035 -0.80894 23.8625 14.2035 -0.80894
242 2 25.7363 14.1897 0.854456 25.7363 14.1897 0.854456
243 2 25.7924 14.2171 -2.40683 25.7924 14.2171 -2.40683
244 1 26.7152 15.8504 -0.746118 26.7152 15.8504 -0.746118
245 2 28.5735 15.8216 0.934165 28.5735 15.8216 0.934165
246 2 28.6594 15.8791 -2.32615 28.6594 15.8791 -2.32615
247 1 29.5673 14.2034 -0.700274 29.5673 14.2034 -0.700274
248 2 31.4128 14.1914 0.994087 31.4128 14.1914 0.994087
249 2 31.5231 14.2153 -2.26599 31.5231 14.2153 -2.26599
250 1 32.4183 15.8501 -0.59182 32.4183 15.8501 -0.59182
251 2 34.2582 15.8222 1.10817 34.2582 15.8222 1.10817
252 2 34.3788 15.8778 -2.15126 34.3788 15.8778 -2.15126
253 1 35.2688 14.2032 -0.514734 35.2688 14.2032 -0.514734
254 2 37.1091 14.1916 1.18473 37.1091 14.1916 1.18473
255 2 37.2286 14.2148 -2.07524 37.2286 14.2148 -2.07524
256 1 38.1189 15.8495 -0.398883 38.1189 15.8495 -0.398883
257 2 39.9673 15.8214 1.29129 39.9673 15.8214 1.29129
258 2 40.0708 15.8775 -1.96891 40.0708 15.8775 -1.96891
259 1 40.9693 14.203 -0.33729 40.9693 14.203 -0.33729
260 2 42.8316 14.1901 1.33729 42.8316 14.1901 1.33729
261 2 42.9077 14.2158 -1.92415 42.9077 14.2158 -1.92415
262 1 43.8199 15.849 -0.258572 43.8199 15.849 -0.258572
263 2 45.7004 15.8189 1.39526 45.7004 15.8189 1.39526
264 2 45.7408 15.8788 -1.86639 45.7408 15.8788 -1.86639
265 1 46.6709 14.2027 -0.25437 46.6709 14.2027 -0.25437
266 2 48.5717 14.1872 1.37608 48.5717 14.1872 1.37608
267 2 48.5716 14.218 -1.88625 48.5716 14.218 -1.88625
268 1 49.522 15.8487 -0.239865 49.522 15.8487 -0.239865
269 2 51.4415 15.8161 1.3683 51.4415 15.8161 1.3683
270 2 51.4039 15.8811 -1.89327 51.4039 15.8811 -1.89327
271 1 1.05126 17.4946 -0.240875 1.05126 17.4946 -0.240875
272 2 2.98662 17.4467 1.34797 2.98662 17.4467 1.34797
273 2 2.9169 17.5422 -1.91224 2.9169 17.5422 -1.91224
274 1 3.90231 19.1403 -0.25443 3.90231 19.1403 -0.25443
275 2 5.84898 19.0799 1.32037 5.84898 19.0799 1.32037
276 2 5.75631 19.2006 -1.93835 5.75631 19.2006 -1.93835
277 1 6.75218 17.4952 -0.397376 6.75218 17.4952 -0.397376
278 2 8.70358 17.446 1.1721 8.70358 17.446 1.1721
279 2 8.60135 17.5442 -2.08701 8.60135 17.5442 -2.08701
280 1 9.603 19.1414 -0.437746 9.603 19.1414 -0.437746
281 2 11.5538 19.0803 1.1324 11.5538 19.0803 1.1324
282 2 11.4532 19.2023 -2.12589 11.4532 19.2023 -2.12589
283 1 12.4531 17.4961 -0.588099 12.4531 17.4961 -0.588099
284 2 14.3958 17.4473 0.992756 14.3958 17.4473 0.992756
285 2 14.3124 17.5448 -2.26675 14.3124 17.5448 -2.26675
286 1 15.3049 19.1425 -0.612124 15.3049 19.1425 -0.612124
287 2 17.236 19.0825 0.982761 17.236 19.0825 0.982761
288 2 17.1766 19.2025 -2.2765 17.1766 19.2025 -2.2765
289 1 18.1567 17.4969 -0.725123 18.1567 17.4969 -0.725123
290 2 20.07 17.4501 0.891767 20.07 17.4501 0.891767
291 2 20.0471 17.5435 -2.36874 20.0471 17.5435 -2.36874
292 1 21.0096 19.1433 -0.697984 21.0096 19.1433 -0.697984
293 2 22.9054 19.0852 0.939059 22.9054 19.0852 0.939059
294 2 22.9174 19.2013 -2.32081 22.9174 19.2013 -2.32081
295 1 23.8624 17.4972 -0.746302 23.8624 17.4972 -0.746302
296 2 25.7383 17.4527 0.914123 25.7383 17.4527 0.914123
297 2 25.79 17.5415 -2.34619 25.79 17.5415 -2.34619
298 1 26.7148 19.1433 -0.656038 26.7148 19.1433 -0.656038
299 2 28.5752 19.0867 1.02118 28.5752 19.0867 1.02118
300 2 28.6568 19.1997 -2.23786 28.6568 19.1997 -2.23786
301 1 29.5669 17.4969 -0.641959 29.5669 17.4969 -0.641959
302 2 31.4139 17.4537 1.05025 31.4139 17.4537 1.05025
303 2 31.5213 17.5398 -2.2089 31.5213 17.5398 -2.2089
304 1 32.4177 19.1426 -0.504523 32.4177 19.1426 -0.504523
305 2 34.2592 19.0868 1.193 34.2592 19.0868 1.193
306 2 34.3766 19.1981 -2.06514 34.3766 19.1981 -2.06514
307 1 35.2685 17.4961 -0.458384 35.2685 17.4961 -0.458384
308 2 37.1097 17.4534 1.23963 37.1097 17.4534 1.23963
309 2 37.2274 17.5386 -2.01937 37.2274 17.5386 -2.01937
310 1 38.1184 19.1415 -0.312585 38.1184 19.1415 -0.312585
311 2 39.9679 19.0859 1.37574 39.9679 19.0859 1.37574
312 2 40.0693 19.1967 -1.8831 40.0693 19.1967 -1.8831
313 1 40.9691 17.4953 -0.280445 40.9691 17.4953 -0.280445
314 2 42.8316 17.4518 1.39359 42.8316 17.4518 1.39359
315 2 42.9075 17.5384 -1.86676 42.9075 17.5384 -1.86676
316 1 43.8197 19.1404 -0.170847 43.8197 19.1404 -0.170847
317 2 45.7006 19.0838 1.48203 45.7006 19.0838 1.48203
318 2 45.7404 19.1967 -1.77815 45.7404 19.1967 -1.77815
319 1 46.6709 17.4946 -0.193827 46.6709 17.4946 -0.193827
320 2 48.5713 17.4491 1.43671 48.5713 17.4491 1.43671
321 2 48.5723 17.5399 -1.82445 48.5723 17.5399 -1.82445
322 1 49.5223 19.14 -0.14793 49.5223 19.14 -0.14793
323 2 51.442 19.0814 1.45958 51.442 19.0814 1.45958
324 2 51.4043 19.1983 -1.80047 51.4043 19.1983 -1.80047
325 1 1.05189 20.7852 -0.122483 1.05189 20.7852 -0.122483
326 2 2.98789 20.7166 1.4651 2.98789 20.7166 1.4651
327 2 2.9172 20.8536 -1.79355 2.9172 20.8536 -1.79355
328 1 3.90329 22.4304 -0.11566 3.90329 22.4304 -0.11566
329 2 5.85105 22.3552 1.45741 5.85105 22.3552 1.45741
330 2 5.75639 22.5055 -1.79997 5.75639 22.5055 -1.79997
331 1 6.75327 20.786 -0.275126 6.75327 20.786 -0.275126
332 2 8.70574 20.7162 1.29238 8.70574 20.7162 1.29238
333 2 8.60136 20.8558 -1.96516 8.60136 20.8558 -1.96516
334 1 9.60424 22.4317 -0.296251 9.60424 22.4317 -0.296251
335 2 11.5567 22.3559 1.2713 11.5567 22.3559 1.2713
336 2 11.4526 22.5075 -1.98567 11.4526 22.5075 -1.98567
337 1 12.4542 20.7874 -0.464461 12.4542 20.7874 -0.464461
338 2 14.3988 20.7176 1.11326 14.3988 20.7176 1.11326
339 2 14.3112 20.8572 -2.14467 14.3112 20.8572 -2.14467
340 1 15.3058 22.4331 -0.470616 15.3058 22.4331 -0.470616
341 2 17.2392 22.3577 1.12075 17.2392 22.3577 1.12075
342 2 17.1747 22.5086 -2.13723 17.1747 22.5086 -2.13723
343 1 18.1572 20.7886 -0.603567 18.1572 20.7886 -0.603567
344 2 20.073 20.72 1.00943 20.073 20.72 1.00943
345 2 20.0446 20.8572 -2.24959 20.0446 20.8572 -2.24959
346 1 21.0097 22.4341 -0.558923 21.0097 22.4341 -0.558923
347 2 22.908 22.3595 1.07442 22.908 22.3595 1.07442
348 2 22.9146 22.5088 -2.18424 22.9146 22.5088 -2.18424
349 1 23.8622 20.7891 -0.628664 23.8622 20.7891 -0.628664
350 2 25.7405 20.7217 1.02813 25.7405 20.7217 1.02813
351 2 25.787 20.8564 -2.23078 25.787 20.8564 -2.23078
352 1 26.7142 22.4342 -0.519589 26.7142 22.4342 -0.519589
353 2 28.577 22.3601 1.15427 28.577 22.3601 1.15427
354 2 28.6536 22.5082 -2.10357 28.6536 22.5082 -2.10357
355 1 29.5662 20.7887 -0.527363 29.5662 20.7887 -0.527363
356 2 31.4154 20.7221 1.16172 31.4154 20.7221 1.16172
357 2 31.5183 20.855 -2.09605 31.5183 20.855 -2.09605
358 1 32.4167 22.4333 -0.369914 32.4167 22.4333 -0.369914
359 2 34.2606 22.3599 1.32439 34.2606 22.3599 1.32439
360 2 34.3732 22.5065 -1.93254 34.3732 22.5065 -1.93254
361 1 35.2677 20.7875 -0.345589 35.2677 20.7875 -0.345589
362 2 37.1108 20.7217 1.34964 37.1108 20.7217 1.34964
363 2 37.2248 20.853 -1.90794 37.2248 20.853 -1.90794
364 1 38.1174 22.4319 -0.179489 38.1174 22.4319 -0.179489
365 2 39.9692 22.3591 1.50591 39.9692 22.3591 1.50591
366 2 40.0665 22.5043 -1.75165 40.0665 22.5043 -1.75165
367 1 40.9685 20.7862 -0.168157 40.9685 20.7862 -0.168157
368 2 42.8324 20.7204 1.50378 42.8324 20.7204 1.50378
369 2 42.9058 20.8516 -1.75507 42.9058 20.8516 -1.75507
370 1 43.8193 22.4306 -0.0379767 43.8193 22.4306 -0.0379767
371 2 45.7018 22.3578 1.61272 45.7018 22.3578 1.61272
372 2 45.7389 22.503 -1.64612 45.7389 22.503 -1.64612
373 1 46.6709 20.7853 -0.0795331 46.6709 20.7853 -0.0795331
374 2 48.5721 20.7184 1.54968 48.5721 20.7184 1.54968
375 2 48.5719 20.8518 -1.70993 48.5719 20.8518 -1.70993
376 1 49.5226 22.43 -0.0128476 49.5226 22.43 -0.0128476
377 2 51.4434 22.3562 1.5931 51.4434 22.3562 1.5931
378 2 51.404 22.5036 -1.6656 51.404 22.5036 -1.6656
379 1 1.05258 24.0748 0.0267344 1.05258 24.0748 0.0267344
380 2 2.98988 23.9977 1.61267 2.98988 23.9977 1.61267
381 2 2.91694 24.1519 -1.64507 2.91694 24.1519 -1.64507
382 1 3.90428 25.7199 0.0405208 3.90428 25.7199 0.0405208
383 2 5.85361 25.6432 1.61187 5.85361 25.6432 1.61187
384 2 5.75603 25.7967 -1.64522 5.75603 25.7967 -1.64522
385 1 6.75449 24.0757 -0.122913 6.75449 24.0757 -0.122913
386 2 8.70847 23.9977 1.44252 8.70847 23.9977 1.44252
387 2 8.60107 24.1538 -1.81417 8.60107 24.1538 -1.81417
388 1 9.60551 25.7212 -0.138157 9.60551 25.7212 -0.138157
389 2 11.5597 25.6441 1.42719 11.5597 25.6441 1.42719
390 2 11.4518 25.7984 -1.82956 11.4518 25.7984 -1.82956
391 1 12.4554 24.0772 -0.310798 12.4554 24.0772 -0.310798
392 2 14.402 23.999 1.26407 14.402 23.999 1.26407
393 2 14.31 24.1555 -1.99305 14.31 24.1555 -1.99305
394 1 15.3067 25.7226 -0.31204 15.3067 25.7226 -0.31204
395 2 17.2422 25.6455 1.27667 17.2422 25.6455 1.27667
396 2 17.173 25.8001 -1.98114 17.173 25.8001 -1.98114
397 1 18.1578 24.0786 -0.450652 18.1578 24.0786 -0.450652
398 2 20.0759 24.0006 1.15902 20.0759 24.0006 1.15902
399 2 20.0423 24.1567 -2.09922 20.0423 24.1567 -2.09922
400 1 21.0099 25.7237 -0.400864 21.0099 25.7237 -0.400864
401 2 22.9102 25.6462 1.22985 22.9102 25.6462 1.22985
402 2 22.9121 25.8015 -2.02866 22.9121 25.8015 -2.02866
403 1 23.862 24.0792 -0.477397 23.862 24.0792 -0.477397
404 2 25.7425 24.0013 1.17625 25.7425 24.0013 1.17625
405 2 25.784 24.1572 -2.08191 25.784 24.1572 -2.08191
406 1 26.7135 25.7238 -0.361741 26.7135 25.7238 -0.361741
407 2 28.5783 25.6458 1.30954 28.5783 25.6458 1.30954
408 2 28.6504 25.802 -1.94813 28.6504 25.802 -1.94813
409 1 29.5653 24.0788 -0.377283 29.5653 24.0788 -0.377283
410 2 31.4168 24.001 1.30867 31.4168 24.001 1.30867
411 2 31.5148 24.1564 -1.94833 31.5148 24.1564 -1.94833
412 1 32.4154 25.7229 -0.212531 32.4154 25.7229 -0.212531
413 2 34.262 25.645 1.47883 34.262 25.645 1.47883
414 2 34.3695 25.8007 -1.77787 34.3695 25.8007 -1.77787
415 1 35.2665 24.0775 -0.196964 35.2665 24.0775 -0.196964
416 2 37.1123 24.0005 1.49504 37.1123 24.0005 1.49504
417 2 37.2212 24.1542 -1.76171 37.2212 24.1542 -1.76171
418 1 38.1163 25.7214 -0.0237024 38.1163 25.7214 -0.0237024
419 2 39.9709 25.6444 1.65864 39.9709 25.6444 1.65864
420 2 40.0629 25.7983 -1.59861 40.0629 25.7983 -1.59861
421 1 40.9677 24.0759 -0.0210693 40.9677 24.0759 -0.0210693
422 2 42.834 23.9997 1.64801 42.834 23.9997 1.64801
423 2 42.9031 24.1519 -1.60993 42.9031 24.1519 -1.60993
424 1 43.8187 25.7201 0.116183 43.8187 25.7201 0.116183
425 2 45.7037 25.6439 1.76426 45.7037 25.6439 1.76426
426 2 45.7364 25.7961 -1.49418 45.7364 25.7961 -1.49418
427 1 46.6708 24.0749 0.0674697 46.6708 24.0749 0.0674697
428 2 48.5737 23.9987 1.69459 48.5737 23.9987 1.69459
429 2 48.5705 24.1509 -1.56407 48.5705 24.1509 -1.56407
430 1 49.5229 25.7195 0.141321 49.5229 25.7195 0.141321
431 2 51.4454 25.6433 1.74542 51.4454 25.6433 1.74542
432 2 51.403 25.7956 -1.51291 51.403 25.7956 -1.51291
433 1 1.0532 27.3646 0.180947 1.0532 27.3646 0.180947
434 2 2.99233 27.292 1.76523 2.99233 27.292 1.76523
435 2 2.91611 27.4372 -1.49277 2.91611 27.4372 -1.49277
436 1 3.90513 29.0102 0.18752 3.90513 29.0102 0.18752
437 2 5.85637 28.9448 1.75729 5.85637 28.9448 1.75729
438 2 5.75516 29.0757 -1.50062 5.75516 29.0757 -1.50062
439 1 6.75562 27.3654 0.0326088 6.75562 27.3654 0.0326088
440 2 8.71139 27.2928 1.59628 8.71139 27.2928 1.59628
441 2 8.60044 27.4382 -1.66076 8.60044 27.4382 -1.66076
442 1 9.60659 29.0112 0.00907257 9.60659 29.0112 0.00907257
443 2 11.5626 28.9462 1.57283 11.5626 28.9462 1.57283
444 2 11.4509 29.0765 -1.68487 11.4509 29.0765 -1.68487
445 1 12.4565 27.3667 -0.154457 12.4565 27.3667 -0.154457
446 2 14.4049 27.294 1.41842 14.4049 27.294 1.41842
447 2 14.3089 27.4397 -1.83916 14.3089 27.4397 -1.83916
448 1 15.3075 29.0124 -0.16451 15.3075 29.0124 -0.16451
449 2 17.2445 28.947 1.42281 17.2445 28.947 1.42281
450 2 17.1718 29.0781 -1.83605 17.1718 29.0781 -1.83605
451 1 18.1583 27.368 -0.294024 18.1583 27.368 -0.294024
452 2 20.0782 27.2948 1.31369 20.0782 27.2948 1.31369
453 2 20.0405 27.4416 -1.94507 20.0405 27.4416 -1.94507
454 1 21.0099 29.0133 -0.252232 21.0099 29.0133 -0.252232
455 2 22.9115 28.9467 1.37743 22.9115 28.9467 1.37743
456 2 22.9104 29.0803 -1.88217 22.9104 29.0803 -1.88217
457 1 23.8616 27.3686 -0.320109 23.8616 27.3686 -0.320109
458 2 25.7438 27.2943 1.33173 25.7438 27.2943 1.33173
459 2 25.7816 27.4431 -1.92692 25.7816 27.4431 -1.92692
460 1 26.7128 29.0134 -0.211076 26.7128 29.0134 -0.211076
461 2 28.579 28.9453 1.45905 28.579 28.9453 1.45905
462 2 28.648 29.0818 -1.79965 28.648 29.0818 -1.79965
463 1 29.5642 27.3682 -0.219074 29.5642 27.3682 -0.219074
464 2 31.4178 27.2932 1.46471 31.4178 27.2932 1.46471
465 2 31.5115 27.4433 -1.79271 31.5115 27.4433 -1.79271
466 1 32.4142 29.0126 -0.0605473 32.4142 29.0126 -0.0605473
467 2 34.2628 28.9438 1.62898 34.2628 28.9438 1.62898
468 2 34.3662 29.0815 -1.62867 34.3662 29.0815 -1.62867
469 1 35.2652 27.367 -0.0392282 35.2652 27.367 -0.0392282
470 2 37.1137 27.2923 1.65008 37.1137 27.2923 1.65008
471 2 37.2175 27.4416 -1.60701 37.2175 27.4416 -1.60701
472 1 38.1152 29.0113 0.127488 38.1152 29.0113 0.127488
473 2 39.9725 28.9431 1.80744 39.9725 28.9431 1.80744
474 2 40.0595 29.0795 -1.45065 40.0595 29.0795 -1.45065
475 1 40.9668 27.3655 0.134801 40.9668 27.3655 0.134801
476 2 42.836 27.292 1.80111 42.836 27.292 1.80111
477 2 42.8998 27.4391 -1.45706 42.8998 27.4391 -1.45706
478 1 43.8182 29.0102 0.265191 43.8182 29.0102 0.265191
479 2 45.7059 28.9433 1.91087 45.7059 28.9433 1.91087
480 2 45.7336 29.0772 -1.3483 45.7336 29.0772 -1.3483
481 1 46.6707 27.3646 0.221608 46.6707 27.3646 0.221608
482 2 48.5759 27.2919 1.8465 48.5759 27.2919 1.8465
483 2 48.5685 27.4373 -1.41234 48.5685 27.4373 -1.41234
484 1 49.5231 29.0098 0.288551 49.5231 29.0098 0.288551
485 2 51.4479 28.9438 1.89079 51.4479 28.9438 1.89079
486 2 51.4014 29.0758 -1.36824 51.4014 29.0758 -1.36824
487 1 1.05371 30.6556 0.314644 1.05371 30.6556 0.314644
488 2 2.99499 30.5995 1.89725 2.99499 30.5995 1.89725
489 2 2.91475 30.7118 -1.36185 2.91475 30.7118 -1.36185
490 1 3.90577 32.302 0.30129 3.90577 32.302 0.30129
491 2 5.85911 32.2586 1.86942 5.85911 32.2586 1.86942
492 2 5.75379 32.3455 -1.38979 5.75379 32.3455 -1.38979
493 1 6.75652 30.6562 0.165194 6.75652 30.6562 0.165194
494 2 8.7142 30.6012 1.72737 8.7142 30.6012 1.72737
495 2 8.59941 30.7114 -1.5309 8.59941 30.7114 -1.5309
496 1 9.60734 32.3026 0.120744 9.60734 32.3026 0.120744
497 2 11.565 32.2604 1.6833 11.565 32.2604 1.6833
498 2 11.4499 32.345 -1.5758 11.4499 32.345 -1.5758
499 1 12.4573 30.6572 -0.0224612 12.4573 30.6572 -0.0224612
500 2 14.4073 30.6025 1.54931 14.4073 30.6025 1.54931
501 2 14.3079 30.7123 -1.70963 14.3079 30.7123 -1.70963
502 1 15.308 32.3034 -0.0533499 15.308 32.3034 -0.0533499
503 2 17.2459 32.2609 1.53368 17.2459 32.2609 1.53368
504 2 17.1711 32.3463 -1.72673 17.1711 32.3463 -1.72673
505 1 18.1587 30.6582 -0.161256 18.1587 30.6582 -0.161256
506 2 20.0795 30.6024 1.44596 20.0795 30.6024 1.44596
507 2 20.0395 30.7143 -1.81425 20.0395 30.7143 -1.81425
508 1 21.0099 32.304 -0.138927 21.0099 32.304 -0.138927
509 2 22.9118 32.2596 1.49111 22.9118 32.2596 1.49111
510 2 22.9098 32.3487 -1.7701 22.9098 32.3487 -1.7701
511 1 23.8613 30.6586 -0.184827 23.8613 30.6586 -0.184827
512 2 25.7442 30.6009 1.46678 25.7442 30.6009 1.46678
513 2 25.7801 30.7166 -1.79334 25.7801 30.7166 -1.79334
514 1 26.7122 32.3041 -0.0939994 26.7122 32.3041 -0.0939994
515 2 28.5787 32.2575 1.57646 28.5787 32.2575 1.57646
516 2 28.6468 32.351 -1.68384 28.6468 32.351 -1.68384
517 1 29.5633 30.6583 -0.0808693 29.5633 30.6583 -0.0808693
518 2 31.4181 30.599 1.60222 31.4181 30.599 1.60222
519 2 31.5092 30.7178 -1.65661 31.5092 30.7178 -1.65661
520 1 32.4132 32.3036 0.059769 32.4132 32.3036 0.059769
521 2 34.2629 32.2554 1.74888 34.2629 32.2554 1.74888
522 2 34.3642 32.3519 -1.51032 34.3642 32.3519 -1.51032
523 1 35.264 30.6573 0.100174 35.264 30.6573 0.100174
524 2 37.1146 30.5976 1.78794 37.1146 30.5976 1.78794
525 2 37.2144 30.7172 -1.47047 37.2144 30.7172 -1.47047
526 1 38.1142 32.3027 0.248598 38.1142 32.3027 0.248598
527 2 39.9735 32.2545 1.92718 39.9735 32.2545 1.92718
528 2 40.0568 32.351 -1.33237 40.0568 32.351 -1.33237
529 1 40.9659 30.6563 0.27297 40.9659 30.6563 0.27297
530 2 42.8378 30.5974 1.93716 42.8378 30.5974 1.93716
531 2 42.8968 30.7152 -1.32219 42.8968 30.7152 -1.32219
532 1 43.8177 32.3019 0.38448 43.8177 32.3019 0.38448
533 2 45.7079 32.255 2.02827 45.7079 32.255 2.02827
534 2 45.7312 32.3491 -1.23222 45.7312 32.3491 -1.23222
535 1 46.6705 30.6556 0.357267 46.6705 30.6556 0.357267
536 2 48.5783 30.5982 1.98012 48.5783 30.5982 1.98012
537 2 48.5663 30.7131 -1.2798 48.5663 30.7131 -1.2798