ITEM: TIMESTEP
2000
ITEM: NUMBER OF ATOMS
810
ITEM: BOX BOUNDS pp pp pp
8.7303391956264254e-01 5.2144571080437366e+01
8.5635873366999538e-01 5.0159856266329257e+01
-1.0000000000000000e+01 1.0000000000000000e+01
ITEM: ATOMS id type x y z xu yu zu
1 1 1.05364 1.09667 0.242722 1.05364 1.09667 0.242722
2 2 3.05198 0.945565 1.74177 3.05198 0.945565 1.74177
3 2 2.8457 1.25464 -1.50017 2.8457 1.25464 -1.50017
4 1 3.90711 2.73522 0.218214 3.90711 2.73522 0.218214
5 2 5.8691 2.63466 1.77393 5.8691 2.63466 1.77393
6 2 5.74209 2.82184 -1.48112 5.74209 2.82184 -1.48112
7 1 6.75616 1.08497 0.0146152 6.75616 1.08497 0.0146152
8 2 8.56616 0.974339 1.74676 8.56616 0.974339 1.74676
9 2 8.74603 1.15471 -1.50521 8.74603 1.15471 -1.50521
10 1 9.61542 2.69814 0.263852 9.61542 2.69814 0.263852
11 2 11.5465 2.55252 1.8582 11.5465 2.55252 1.8582
12 2 11.4932 2.81545 -1.39235 11.4932 2.81545 -1.39235
13 1 12.4695 1.04137 0.0864041 12.4695 1.04137 0.0864041
14 2 14.4848 50.1271 1.5593 14.4848 0.823619 1.5593
15 2 14.2533 1.24715 -1.66629 14.2533 1.24715 -1.66629
16 1 15.3354 2.66674 0.0931502 15.3354 2.66674 0.0931502
17 2 17.3927 2.51581 1.52182 17.3927 2.51581 1.52182
18 2 17.0724 2.82269 -1.70922 17.0724 2.82269 -1.70922
19 1 18.1757 1.03733 -0.344852 18.1757 1.03733 -0.344852
20 2 20.2356 50.1461 1.06987 20.2356 0.842558 1.06987
21 2 19.907 1.25285 -2.14848 19.907 1.25285 -2.14848
22 1 21.0345 2.68503 -0.42727 21.0345 2.68503 -0.42727
23 2 23.0584 2.54643 1.04822 23.0584 2.54643 1.04822
24 2 22.8066 2.85581 -2.18897 22.8066 2.85581 -2.18897
25 1 23.8826 1.06899 -0.799657 23.8826 1.06899 -0.799657
26 2 25.7338 0.946766 0.896092 25.7338 0.946766 0.896092
27 2 25.8455 1.19257 -2.35404 25.8455 1.19257 -2.35404
28 1 26.7455 2.7109 -0.568238 26.7455 2.7109 -0.568238
29 2 28.6543 2.70602 1.05737 28.6543 2.70602 1.05737
30 2 28.6418 2.74023 -2.2042 28.6418 2.74023 -2.2042
31 1 29.5941 1.07888 -0.591229 29.5941 1.07888 -0.591229
32 2 31.4316 0.948377 1.10865 31.4316 0.948377 1.10865
33 2 31.5565 1.23409 -2.13885 31.5565 1.23409 -2.13885
34 1 32.4437 2.73369 -0.338699 32.4437 2.73369 -0.338699
35 2 34.2619 2.59049 1.37982 34.2619 2.59049 1.37982
36 2 34.4227 2.90501 -1.86384 34.4227 2.90501 -1.86384
37 1 35.2856 1.10706 -0.35301 35.2856 1.10706 -0.35301
38 2 37.0399 0.926132 1.42569 37.0399 0.926132 1.42569
39 2 37.3139 1.30512 -1.80347 37.3139 1.30512 -1.80347
40 1 38.1193 2.74905 0.0837862 38.1193 2.74905 0.0837862
41 2 39.9335 2.58832 1.80179 39.9335 2.58832 1.80179
42 2 40.0976 2.92723 -1.43967 40.0976 2.92723 -1.43967
43 1 40.9544 1.1141 0.0579052 40.9544 1.1141 0.0579052
44 2 42.7112 0.894814 1.82818 42.7112 0.894814 1.82818
45 2 42.9763 1.32276 -1.39571 42.9763 1.32276 -1.39571
46 1 43.7915 2.73703 0.512686 43.7915 2.73703 0.512686
47 2 45.6929 2.58261 2.13717 45.6929 2.58261 2.13717
48 2 45.6942 2.89853 -1.11025 45.6942 2.89853 -1.11025
49 1 46.6311 1.09913 0.35309 46.6311 1.09913 0.35309
50 2 48.5591 0.89643 1.93659 48.5591 0.89643 1.93659
51 2 48.4977 1.31011 -1.3001 48.4977 1.31011 -1.3001
52 1 49.4856 2.73384 0.510703 49.4856 2.73384 0.510703
53 2 51.4496 2.58849 2.05631 51.4496 2.58849 2.05631
54 2 51.3165 2.88168 -1.1907 51.3165 2.88168 -1.1907
55 1 1.07132 4.37238 0.542683 1.07132 4.37238 0.542683
56 2 3.0944 4.27825 2.01503 3.0944 4.27825 2.01503
57 2 2.8363 4.47373 -1.23193 2.8363 4.47373 -1.23193
58 1 3.92293 6.01618 0.412816 3.92293 6.01618 0.412816
59 2 5.91407 5.97376 1.92922 5.91407 5.97376 1.92922
60 2 5.72513 6.04838 -1.32737 5.72513 6.04838 -1.32737
61 1 6.76592 4.36462 0.208075 6.76592 4.36462 0.208075
62 2 8.63581 4.33976 1.88235 8.63581 4.33976 1.88235
63 2 8.69988 4.35721 -1.37955 8.69988 4.35721 -1.37955
64 1 9.63023 5.98426 0.280888 9.63023 5.98426 0.280888
65 2 11.4867 5.95359 1.96586 11.4867 5.95359 1.96586
66 2 11.5759 5.98807 -1.29459 11.5759 5.98807 -1.29459
67 1 12.4826 4.31963 0.347886 12.4826 4.31963 0.347886
68 2 14.4672 4.19765 1.87791 14.4672 4.19765 1.87791
69 2 14.3071 4.42114 -1.37145 14.3071 4.42114 -1.37145
70 1 15.3483 5.94945 0.317164 15.3483 5.94945 0.317164
71 2 17.3902 5.86165 1.767 17.3902 5.86165 1.767
72 2 17.1029 6.03272 -1.47791 17.1029 6.03272 -1.47791
73 1 18.1928 4.3094 -0.0299882 18.1928 4.3094 -0.0299882
74 2 20.2617 4.23388 1.38183 20.2617 4.23388 1.38183
75 2 19.9101 4.40848 -1.85605 19.9101 4.40848 -1.85605
76 1 21.0398 5.96782 -0.253965 21.0398 5.96782 -0.253965
77 2 22.9941 5.83696 1.30977 22.9941 5.83696 1.30977
78 2 22.8937 6.11625 -1.93926 22.8937 6.11625 -1.93926
79 1 23.8921 4.34202 -0.487028 23.8921 4.34202 -0.487028
80 2 25.8234 4.32533 1.10994 25.8234 4.32533 1.10994
81 2 25.7667 4.38057 -2.15118 25.7667 4.38057 -2.15118
82 1 26.7495 6.00192 -0.509759 26.7495 6.00192 -0.509759
83 2 28.6058 5.87897 1.16933 28.6058 5.87897 1.16933
84 2 28.7006 6.14973 -2.07956 28.7006 6.14973 -2.07956
85 1 29.607 4.37379 -0.561745 29.607 4.37379 -0.561745
86 2 31.3338 4.30099 1.25951 31.3338 4.30099 1.25951
87 2 31.6729 4.46215 -1.98045 31.6729 4.46215 -1.98045
88 1 32.4511 6.02448 -0.180753 32.4511 6.02448 -0.180753
89 2 34.133 5.81522 1.66316 34.133 5.81522 1.66316
90 2 34.5421 6.23914 -1.54545 34.5421 6.23914 -1.54545
91 1 35.2875 4.38851 -0.0361329 35.2875 4.38851 -0.0361329
92 2 37.0378 4.27205 1.75007 37.0378 4.27205 1.75007
93 2 37.3204 4.52157 -1.49109 37.3204 4.52157 -1.49109
94 1 38.1256 6.03486 0.341286 38.1256 6.03486 0.341286
95 2 39.9121 5.91228 2.08969 39.9121 5.91228 2.08969
96 2 40.1292 6.16786 -1.15602 40.1292 6.16786 -1.15602
97 1 40.9622 4.39364 0.401417 40.9622 4.39364 0.401417
98 2 42.7461 4.31352 2.15655 42.7461 4.31352 2.15655
99 2 42.9645 4.47262 -1.0948 42.9645 4.47262 -1.0948
100 1 43.8105 6.03174 0.676262 43.8105 6.03174 0.676262
101 2 45.6653 5.9458 2.35581 45.6653 5.9458 2.35581
102 2 45.752 6.11348 -0.901593 45.752 6.11348 -0.901593
103 1 46.6467 4.37866 0.672098 46.6467 4.37866 0.672098
104 2 48.5544 4.23082 2.28787 48.5544 4.23082 2.28787
105 2 48.5361 4.52224 -0.961791 48.5361 4.52224 -0.961791
106 1 49.5058 6.01396 0.804473 49.5058 6.01396 0.804473
107 2 51.5091 5.94308 2.30504 51.5091 5.94308 2.30504
108 2 51.2988 6.09094 -0.94731 51.2988 6.09094 -0.94731
109 1 1.08862 7.6615 0.690322 1.08862 7.6615 0.690322
110 2 3.08949 7.57189 2.18977 3.08949 7.57189 2.18977
111 2 2.87982 7.74833 -1.06161 2.87982 7.74833 -1.06161
112 1 3.94632 9.29937 0.592359 3.94632 9.29937 0.592359
113 2 5.97562 9.2273 2.05603 5.97562 9.2273 2.05603
114 2 5.70512 9.36213 -1.19269 5.70512 9.36213 -1.19269
115 1 6.78139 7.64884 0.284092 6.78139 7.64884 0.284092
116 2 8.68266 7.62016 1.92175 8.68266 7.62016 1.92175
117 2 8.68863 7.6456 -1.34072 8.68863 7.6456 -1.34072
118 1 9.64601 9.26975 0.30885 9.64601 9.26975 0.30885
119 2 11.5282 9.28825 1.9654 11.5282 9.28825 1.9654
120 2 11.566 9.22449 -1.29631 11.566 9.22449 -1.29631
121 1 12.4936 7.60823 0.379228 12.4936 7.60823 0.379228
122 2 14.4237 7.58469 1.97677 14.4237 7.58469 1.97677
123 2 14.3674 7.61062 -1.28403 14.3674 7.61062 -1.28403
124 1 15.3543 9.24358 0.342704 15.3543 9.24358 0.342704
125 2 17.3923 9.28535 1.80155 17.3923 9.28535 1.80155
126 2 17.1082 9.19176 -1.44717 17.1082 9.19176 -1.44717
127 1 18.2005 7.59203 0.145534 18.2005 7.59203 0.145534
128 2 20.2397 7.45077 1.59685 20.2397 7.45077 1.59685
129 2 19.9523 7.74658 -1.63923 19.9523 7.74658 -1.63923
130 1 21.05 9.24345 0.0441098 21.05 9.24345 0.0441098
131 2 23.0448 9.17736 1.5597 23.0448 9.17736 1.5597
132 2 22.8504 9.32641 -1.6946 22.8504 9.32641 -1.6946
133 1 23.8983 7.61599 -0.202985 23.8983 7.61599 -0.202985
134 2 25.8864 7.49103 1.31248 25.8864 7.49103 1.31248
135 2 25.7047 7.77621 -1.93264 25.7047 7.77621 -1.93264
136 1 26.7472 9.27646 -0.218446 26.7472 9.27646 -0.218446
137 2 28.595 9.12041 1.46895 28.595 9.12041 1.46895
138 2 28.6991 9.45168 -1.77599 28.6991 9.45168 -1.77599
139 1 29.605 7.65495 -0.290124 29.605 7.65495 -0.290124
140 2 31.3268 7.46795 1.52573 31.3268 7.46795 1.52573
141 2 31.6685 7.85384 -1.69611 31.6685 7.85384 -1.69611
142 1 32.432 9.29039 0.21501 32.432 9.29039 0.21501
143 2 34.1425 9.15806 2.04423 34.1425 9.15806 2.04423
144 2 34.4988 9.43325 -1.18655 34.4988 9.43325 -1.18655
145 1 35.2728 7.65429 0.392948 35.2728 7.65429 0.392948
146 2 37.097 7.48815 2.10277 37.097 7.48815 2.10277
147 2 37.2519 7.85152 -1.13544 37.2519 7.85152 -1.13544
148 1 38.1208 9.30707 0.714993 38.1208 9.30707 0.714993
149 2 39.996 9.2209 2.37537 39.996 9.2209 2.37537
150 2 40.0516 9.42083 -0.880112 40.0516 9.42083 -0.880112
151 1 40.9707 7.67795 0.659878 40.9707 7.67795 0.659878
152 2 42.8241 7.61903 2.34219 42.8241 7.61903 2.34219
153 2 42.9171 7.7437 -0.916536 42.9171 7.7437 -0.916536
154 1 43.8277 9.32447 0.802428 43.8277 9.32447 0.802428
155 2 45.6307 9.18296 2.53722 45.6307 9.18296 2.53722
156 2 45.8203 9.45207 -0.707841 45.8203 9.45207 -0.707841
157 1 46.6669 7.66996 0.834016 46.6669 7.66996 0.834016
158 2 48.5196 7.56155 2.51151 48.5196 7.56155 2.51151
159 2 48.6116 7.76699 -0.742833 48.6116 7.76699 -0.742833
160 1 49.5282 9.30284 1.01433 49.5282 9.30284 1.01433
161 2 51.5129 9.13086 2.53302 51.5129 9.13086 2.53302
162 2 51.3439 9.47349 -0.705913 51.3439 9.47349 -0.705913
163 1 1.12405 10.9408 1.03488 1.12405 10.9408 1.03488
164 2 3.20609 10.8375 2.42854 3.20609 10.8375 2.42854
165 2 2.82979 11.0469 -0.804397 2.82979 11.0469 -0.804397
166 1 3.97575 12.586 0.809382 3.97575 12.586 0.809382
167 2 6.06585 12.5508 2.19 6.06585 12.5508 2.19
168 2 5.65968 12.6108 -1.04659 5.65968 12.6108 -1.04659
169 1 6.80049 10.9328 0.42217 6.80049 10.9328 0.42217
170 2 8.7601 10.9042 1.98719 8.7601 10.9042 1.98719
171 2 8.64349 10.9297 -1.27359 8.64349 10.9297 -1.27359
172 1 9.6597 12.5579 0.340022 9.6597 12.5579 0.340022
173 2 11.6441 12.6687 1.86762 11.6441 12.6687 1.86762
174 2 11.4724 12.4209 -1.38158 11.4724 12.4209 -1.38158
175 1 12.5054 10.8983 0.317611 12.5054 10.8983 0.317611
176 2 14.4722 11.0278 1.86485 14.4722 11.0278 1.86485
177 2 14.3379 10.7549 -1.38333 14.3379 10.7549 -1.38333
178 1 15.3508 12.5274 0.0604189 15.3508 12.5274 0.0604189
179 2 17.3152 12.6207 1.60732 17.3152 12.6207 1.60732
180 2 17.1791 12.4254 -1.64755 17.1791 12.4254 -1.64755
181 1 18.1972 10.881 0.0444149 18.1972 10.881 0.0444149
182 2 20.1077 10.9003 1.6663 20.1077 10.9003 1.6663
183 2 20.0864 10.8772 -1.59678 20.0864 10.8772 -1.59678
184 1 21.0421 12.5349 0.0147108 21.0421 12.5349 0.0147108
185 2 22.9917 12.5653 1.58461 22.9917 12.5653 1.58461
186 2 22.8885 12.5134 -1.67714 22.8885 12.5134 -1.67714
187 1 23.8938 10.8988 -0.0471082 23.8938 10.8988 -0.0471082
188 2 25.834 10.8069 1.53581 25.834 10.8069 1.53581
189 2 25.7508 11.0143 -1.72028 25.7508 11.0143 -1.72028
190 1 26.7365 12.5562 -0.0111283 26.7365 12.5562 -0.0111283
191 2 28.5891 12.5431 1.67438 28.5891 12.5431 1.67438
192 2 28.6785 12.5874 -1.58817 28.6785 12.5874 -1.58817
193 1 29.588 10.9247 0.0491853 29.588 10.9247 0.0491853
194 2 31.3352 10.8353 1.84737 31.3352 10.8353 1.84737
195 2 31.6242 11.0245 -1.3979 31.6242 11.0245 -1.3979
196 1 32.4235 12.5697 0.407111 32.4235 12.5697 0.407111
197 2 34.172 12.5881 2.20493 34.172 12.5881 2.20493
198 2 34.464 12.571 -1.04398 34.464 12.571 -1.04398
199 1 35.2653 10.9345 0.674879 35.2653 10.9345 0.674879
200 2 37.1065 10.8792 2.3779 37.1065 10.8792 2.3779
201 2 37.235 11.0203 -0.878119 37.235 11.0203 -0.878119
202 1 38.1256 12.5941 0.85703 38.1256 12.5941 0.85703
203 2 39.9947 12.551 2.52897 39.9947 12.551 2.52897
204 2 40.0668 12.663 -0.72985 40.0668 12.663 -0.72985
205 1 40.9795 10.9631 0.865077 40.9795 10.9631 0.865077
206 2 42.8627 10.87 2.5178 42.8627 10.87 2.5178
207 2 42.9022 11.0703 -0.737576 42.9022 11.0703 -0.737576
208 1 43.8406 12.6119 1.00544 43.8406 12.6119 1.00544
209 2 45.6719 12.5924 2.71649 45.6719 12.5924 2.71649
210 2 45.8114 12.628 -0.541364 45.8114 12.628 -0.541364
211 1 46.6834 10.9557 1.10868 46.6834 10.9557 1.10868
212 2 48.6104 10.8967 2.71433 48.6104 10.8967 2.71433
213 2 48.5665 11.0119 -0.544493 48.5665 11.0119 -0.544493
214 1 49.5485 12.5984 1.13101 49.5485 12.5984 1.13101
215 2 51.4677 12.5284 2.7403 51.4677 12.5284 2.7403
216 2 51.434 12.6603 -0.516873 51.434 12.6603 -0.516873
217 1 1.1444 14.2408 1.16808 1.1444 14.2408 1.16808
218 2 3.20994 14.1745 2.58952 3.20994 14.1745 2.58952
219 2 2.87515 14.2957 -0.650915 2.87515 14.2957 -0.650915
220 1 4.00088 15.8855 0.930016 4.00088 15.8855 0.930016
221 2 6.14624 15.9003 2.22672 6.14624 15.9003 2.22672
222 2 5.61838 15.8432 -0.99108 5.61838 15.8432 -0.99108
223 1 6.81709 14.2208 0.488094 6.81709 14.2208 0.488094
224 2 8.87286 14.3397 1.9176 8.87286 14.3397 1.9176
225 2 8.54915 14.0715 -1.31825 8.54915 14.0715 -1.31825
226 1 9.65081 15.837 0.0725962 9.65081 15.837 0.0725962
227 2 11.6537 15.9892 1.57232 11.6537 15.9892 1.57232
228 2 11.4455 15.6503 -1.6663 11.4455 15.6503 -1.6663
229 1 12.5036 14.1802 0.0664198 12.5036 14.1802 0.0664198
230 2 14.4695 14.2805 1.61477 14.4695 14.2805 1.61477
231 2 14.3323 14.0622 -1.63837 14.3323 14.0622 -1.63837
232 1 15.3423 15.8124 -0.164662 15.3423 15.8124 -0.164662
233 2 17.2724 15.8726 1.4271 17.2724 15.8726 1.4271
234 2 17.2069 15.746 -1.8335 17.2069 15.746 -1.8335
235 1 18.1911 14.1655 -0.159066 18.1911 14.1655 -0.159066
236 2 20.0479 14.2731 1.51679 20.0479 14.2731 1.51679
237 2 20.1297 14.073 -1.73981 20.1297 14.073 -1.73981
238 1 21.031 15.8174 -0.190195 21.031 15.8174 -0.190195
239 2 22.875 15.8146 1.50159 22.875 15.8146 1.50159
240 2 22.9802 15.8319 -1.76092 22.9802 15.8319 -1.76092
241 1 23.8841 14.1855 -0.105621 23.8841 14.1855 -0.105621
242 2 25.7207 14.1834 1.59487 25.7207 14.1834 1.59487
243 2 25.8424 14.2065 -1.66709 25.8424 14.2065 -1.66709
244 1 26.7253 15.8386 0.00983204 26.7253 15.8386 0.00983204
245 2 28.5333 15.7731 1.73902 28.5333 15.7731 1.73902
246 2 28.7099 15.9123 -1.51683 28.7099 15.9123 -1.51683
247 1 29.5841 14.2069 0.092336 29.5841 14.2069 0.092336
248 2 31.3093 14.2288 1.91158 31.3093 14.2288 1.91158
249 2 31.6441 14.1906 -1.33431 31.6441 14.1906 -1.33431
250 1 32.4273 15.8497 0.37053 32.4273 15.8497 0.37053
251 2 34.1963 15.9219 2.14349 34.1963 15.9219 2.14349
252 2 34.4536 15.793 -1.10672 34.4536 15.793 -1.10672
253 1 35.2745 14.2214 0.658146 35.2745 14.2214 0.658146
254 2 37.0909 14.2822 2.38522 37.0909 14.2822 2.38522
255 2 37.2622 14.1897 -0.870982 37.2622 14.1897 -0.870982
256 1 38.1378 15.8781 0.758768 38.1378 15.8781 0.758768
257 2 39.9026 15.8717 2.54148 39.9026 15.8717 2.54148
258 2 40.1721 15.9158 -0.70836 40.1721 15.9158 -0.70836
259 1 40.9891 14.2515 0.975047 40.9891 14.2515 0.975047
260 2 42.8205 14.1661 2.68462 42.8205 14.1661 2.68462
261 2 42.9649 14.3498 -0.567853 42.9649 14.3498 -0.567853
262 1 43.8464 15.9047 1.19471 43.8464 15.9047 1.19471
263 2 45.7566 15.8658 2.82186 45.7566 15.8658 2.82186
264 2 45.7508 15.9438 -0.437093 45.7508 15.9438 -0.437093
265 1 46.7008 14.2547 1.14871 46.7008 14.2547 1.14871
266 2 48.5941 14.214 2.78956 48.5941 14.214 2.78956
267 2 48.6148 14.285 -0.470417 48.6148 14.285 -0.470417
268 1 49.5624 15.899 1.20452 49.5624 15.899 1.20452
269 2 51.5164 15.9429 2.77708 51.5164 15.9429 2.77708
270 2 51.4166 15.8477 -0.479321 51.4166 15.8477 -0.479321
271 1 1.15057 17.5479 1.07262 1.15057 17.5479 1.07262
272 2 3.18605 17.6292 2.5387 3.18605 17.6292 2.5387
273 2 2.91412 17.4518 -0.703685 2.91412 17.4518 -0.703685
274 1 4.00103 19.1907 0.744138 4.00103 19.1907 0.744138
275 2 6.16249 19.3465 2.01037 6.16249 19.3465 2.01037
276 2 5.60634 18.9858 -1.18167 5.60634 18.9858 -1.18167
277 1 6.82884 17.5133 0.434585 6.82884 17.5133 0.434585
278 2 8.9912 17.6352 1.69281 8.9912 17.6352 1.69281
279 2 8.41058 17.3397 -1.50314 8.41058 17.3397 -1.50314
280 1 9.63136 19.1139 -0.22435 9.63136 19.1139 -0.22435
281 2 11.6694 19.2792 1.22834 11.6694 19.2792 1.22834
282 2 11.3859 18.9116 -1.99999 11.3859 18.9116 -1.99999
283 1 12.487 17.4548 -0.27976 12.487 17.4548 -0.27976
284 2 14.389 17.5609 1.35184 14.389 17.5609 1.35184
285 2 14.3874 17.3445 -1.90403 14.3874 17.3445 -1.90403
286 1 15.3258 19.0992 -0.387191 15.3258 19.0992 -0.387191
287 2 17.243 19.2248 1.2196 17.243 19.2248 1.2196
288 2 17.2068 18.9642 -2.03303 17.2068 18.9642 -2.03303
289 1 18.1796 17.4556 -0.284806 18.1796 17.4556 -0.284806
290 2 20.0747 17.5435 1.34968 20.0747 17.5435 1.34968
291 2 20.0786 17.3682 -1.9097 20.0786 17.3682 -1.9097
292 1 21.0189 19.1002 -0.365451 21.0189 19.1002 -0.365451
293 2 22.8176 19.201 1.37805 22.8176 19.201 1.37805
294 2 23.0108 19.0118 -1.87465 23.0108 19.0118 -1.87465
295 1 23.8677 17.4706 -0.0922128 23.8677 17.4706 -0.0922128
296 2 25.6897 17.4428 1.62779 25.6897 17.4428 1.62779
297 2 25.84 17.5045 -1.63189 25.84 17.5045 -1.63189
298 1 26.7053 19.1218 0.0754474 26.7053 19.1218 0.0754474
299 2 28.5339 19.1513 1.79269 28.5339 19.1513 1.79269
300 2 28.6765 19.0899 -1.46579 28.6765 19.0899 -1.46579
301 1 29.5659 17.4843 0.23523 29.5659 17.4843 0.23523
302 2 31.4001 17.5079 1.943 31.4001 17.5079 1.943
303 2 31.5338 17.4602 -1.31694 31.5338 17.4602 -1.31694
304 1 32.4194 19.1299 0.333632 32.4194 19.1299 0.333632
305 2 34.2867 19.2543 2.00728 34.2867 19.2543 2.00728
306 2 34.3607 19.0092 -1.2451 34.3607 19.0092 -1.2451
307 1 35.2807 17.4994 0.528778 35.2807 17.4994 0.528778
308 2 37.0698 17.542 2.2878 37.0698 17.542 2.2878
309 2 37.2929 17.4836 -0.966036 37.2929 17.4836 -0.966036
310 1 38.1338 19.1609 0.697498 38.1338 19.1609 0.697498
311 2 39.9025 19.2647 2.47735 39.9025 19.2647 2.47735
312 2 40.1672 19.0935 -0.767913 40.1672 19.0935 -0.767913
313 1 40.9888 17.5422 1.01974 40.9888 17.5422 1.01974
314 2 42.7991 17.5604 2.75865 42.7991 17.5604 2.75865
315 2 42.9872 17.5457 -0.495127 42.9872 17.5457 -0.495127
316 1 43.8465 19.2081 1.18009 43.8465 19.2081 1.18009
317 2 45.7746 19.2949 2.78617 45.7746 19.2949 2.78617
318 2 45.7403 19.123 -0.467745 45.7403 19.123 -0.467745
319 1 46.7088 17.5574 1.23467 46.7088 17.5574 1.23467
320 2 48.6845 17.6427 2.78 48.6845 17.6427 2.78
321 2 48.5445 17.4629 -0.471754 48.5445 17.4629 -0.471754
322 1 49.5651 19.2006 1.02552 49.5651 19.2006 1.02552
323 2 51.5691 19.4098 2.52065 51.5691 19.4098 2.52065
324 2 51.3648 18.9777 -0.703848 51.3648 18.9777 -0.703848
325 1 1.1341 20.8279 0.630377 1.1341 20.8279 0.630377
326 2 3.11461 21.08 2.14333 3.11461 21.08 2.14333
327 2 2.95252 20.5769 -1.07298 2.95252 20.5769 -1.07298
328 1 3.96766 22.4614 0.231093 3.96766 22.4614 0.231093
329 2 6.07187 22.6504 1.57544 6.07187 22.6504 1.57544
330 2 5.63348 22.2278 -1.62862 5.63348 22.2278 -1.62862
331 1 6.80582 20.7928 0.0640225 6.80582 20.7928 0.0640225
332 2 8.94552 20.9372 1.3527 8.94552 20.9372 1.3527
333 2 8.41624 20.5895 -1.84676 8.41624 20.5895 -1.84676
334 1 9.60974 22.392 -0.581626 9.60974 22.392 -0.581626
335 2 11.6176 22.4998 0.912236 11.6176 22.4998 0.912236
336 2 11.399 22.2599 -2.33253 11.399 22.2599 -2.33253
337 1 12.4651 20.73 -0.652437 12.4651 20.73 -0.652437
338 2 14.3272 20.9112 1.02356 14.3272 20.9112 1.02356
339 2 14.4136 20.5515 -2.21729 14.4136 20.5515 -2.21729
340 1 15.3079 22.3753 -0.754415 15.3079 22.3753 -0.754415
341 2 17.1667 22.5021 0.916708 17.1667 22.5021 0.916708
342 2 17.248 22.2415 -2.3342 17.248 22.2415 -2.3342
343 1 18.1647 20.7365 -0.550991 18.1647 20.7365 -0.550991
344 2 20.031 20.8597 1.11443 20.031 20.8597 1.11443
345 2 20.0952 20.611 -2.13891 20.0952 20.611 -2.13891
346 1 21.0077 22.3781 -0.619878 21.0077 22.3781 -0.619878
347 2 22.789 22.5061 1.13759 22.789 22.5061 1.13759
348 2 23.0193 22.2521 -2.10741 23.0193 22.2521 -2.10741
349 1 23.8585 20.7494 -0.28682 23.8585 20.7494 -0.28682
350 2 25.6249 20.8843 1.4871 25.6249 20.8843 1.4871
351 2 25.8801 20.6267 -1.75609 25.8801 20.6267 -1.75609
352 1 26.7029 22.3943 -0.190543 26.7029 22.3943 -0.190543
353 2 28.5079 22.597 1.53436 28.5079 22.597 1.53436
354 2 28.6965 22.1968 -1.69783 28.6965 22.1968 -1.69783
355 1 29.5572 20.7696 0.176108 29.5572 20.7696 0.176108
356 2 31.4936 20.9694 1.75949 31.4936 20.9694 1.75949
357 2 31.4367 20.5583 -1.47561 31.4367 20.5583 -1.47561
358 1 32.4239 22.3866 -0.0848648 32.4239 22.3866 -0.0848648
359 2 34.2278 22.5725 1.65224 34.2278 22.5725 1.65224
360 2 34.4283 22.2137 -1.58369 34.4283 22.2137 -1.58369
361 1 35.2827 20.7693 0.278923 35.2827 20.7693 0.278923
362 2 37.035 20.9418 2.06978 37.035 20.9418 2.06978
363 2 37.3275 20.6334 -1.16404 37.3275 20.6334 -1.16404
364 1 38.1339 22.4305 0.382842 38.1339 22.4305 0.382842
365 2 39.8943 22.664 2.15776 39.8943 22.664 2.15776
366 2 40.1733 22.2405 -1.06344 40.1733 22.2405 -1.06344
367 1 40.9863 20.8303 0.846958 40.9863 20.8303 0.846958
368 2 42.7862 20.9915 2.59113 42.7862 20.9915 2.59113
369 2 42.9947 20.7028 -0.64803 42.9947 20.7028 -0.64803
370 1 43.8421 22.5004 0.885115 43.8421 22.5004 0.885115
371 2 45.7765 22.7167 2.47229 45.7765 22.7167 2.47229
372 2 45.7297 22.2877 -0.757836 45.7297 22.2877 -0.757836
373 1 46.7097 20.8616 1.06117 46.7097 20.8616 1.06117
374 2 48.7423 21.0406 2.52088 48.7423 21.0406 2.52088
375 2 48.4845 20.6584 -0.705813 48.4845 20.6584 -0.705813
376 1 49.5519 22.4845 0.636908 49.5519 22.4845 0.636908
377 2 51.5624 22.6583 2.12319 51.5624 22.6583 2.12319
378 2 51.3386 22.2903 -1.10828 51.3386 22.2903 -1.10828
379 1 1.11433 24.1158 0.255615 1.11433 24.1158 0.255615
380 2 3.17917 24.3752 1.64865 3.17917 24.3752 1.64865
381 2 2.83151 23.8197 -1.54509 2.83151 23.8197 -1.54509
382 1 3.92289 25.7246 -0.33406 3.92289 25.7246 -0.33406
383 2 5.92424 25.8502 1.16886 5.92424 25.8502 1.16886
384 2 5.71891 25.5849 -2.07515 5.71891 25.5849 -2.07515
385 1 6.77446 24.0674 -0.375546 6.77446 24.0674 -0.375546
386 2 8.85225 24.1734 1.01379 8.85225 24.1734 1.01379
387 2 8.47175 23.9178 -2.215 8.47175 23.9178 -2.215
388 1 9.59563 25.6869 -0.841397 9.59563 25.6869 -0.841397
389 2 11.5767 25.7586 0.692006 11.5767 25.7586 0.692006
390 2 11.4149 25.5906 -2.56043 11.4149 25.5906 -2.56043
391 1 12.4493 24.0232 -0.895216 12.4493 24.0232 -0.895216
392 2 14.3177 24.0984 0.777601 14.3177 24.0984 0.777601
393 2 14.3879 23.9432 -2.4798 14.3879 23.9432 -2.4798
394 1 15.2934 25.6699 -0.908875 15.2934 25.6699 -0.908875
395 2 17.1394 25.6582 0.787022 17.1394 25.6582 0.787022
396 2 17.2469 25.6756 -2.47307 17.2469 25.6756 -2.47307
397 1 18.1507 24.0193 -0.820805 18.1507 24.0193 -0.820805
398 2 19.9525 24.0554 0.916701 19.9525 24.0554 0.916701
399 2 20.1463 23.9841 -2.33918 20.1463 23.9841 -2.33918
400 1 20.9907 25.6677 -0.690709 20.9907 25.6677 -0.690709
401 2 22.7929 25.6474 1.04885 22.7929 25.6474 1.04885
402 2 22.9824 25.6856 -2.20761 22.9824 25.6856 -2.20761
403 1 23.8506 24.0238 -0.545983 23.8506 24.0238 -0.545983
404 2 25.6173 24.152 1.22495 25.6173 24.152 1.22495
405 2 25.8771 23.8949 -2.01738 25.8771 23.8949 -2.01738
406 1 26.6952 25.6667 -0.449481 26.6952 25.6667 -0.449481
407 2 28.5467 25.7924 1.23266 28.5467 25.7924 1.23266
408 2 28.6485 25.5323 -2.01794 28.6485 25.5323 -2.01794
409 1 29.558 24.0288 -0.23346 29.558 24.0288 -0.23346
410 2 31.4785 24.195 1.36246 31.4785 24.195 1.36246
411 2 31.4438 23.839 -1.87909 31.4438 23.839 -1.87909
412 1 32.416 25.6554 -0.453101 32.416 25.6554 -0.453101
413 2 34.1734 25.7669 1.33915 34.1734 25.7669 1.33915
414 2 34.4669 25.5606 -1.90164 34.4669 25.5606 -1.90164
415 1 35.2804 24.0321 -0.0904169 35.2804 24.0321 -0.0904169
416 2 37.0192 24.2393 1.70674 37.0192 24.2393 1.70674
417 2 37.3367 23.8574 -1.51648 37.3367 23.8574 -1.51648
418 1 38.1239 25.6951 -0.00733236 38.1239 25.6951 -0.00733236
419 2 39.884 25.8953 1.76626 39.884 25.8953 1.76626
420 2 40.1616 25.537 -1.46314 40.1616 25.537 -1.46314
421 1 40.9839 24.0941 0.413613 40.9839 24.0941 0.413613
422 2 42.7777 24.3962 2.13945 42.7777 24.3962 2.13945
423 2 42.9935 23.8378 -1.0651 42.9935 23.8378 -1.0651
424 1 43.8299 25.7538 0.314211 43.8299 25.7538 0.314211
425 2 45.6904 26.0006 1.97237 45.6904 26.0006 1.97237
426 2 45.7738 25.5344 -1.25399 45.7738 25.5344 -1.25399
427 1 46.6955 24.1406 0.621723 46.6955 24.1406 0.621723
428 2 48.7187 24.3512 2.0873 48.7187 24.3512 2.0873
429 2 48.4745 23.9008 -1.13265 48.4745 23.9008 -1.13265
430 1 49.5264 25.7598 0.176348 49.5264 25.7598 0.176348
431 2 51.5114 25.9866 1.68366 51.5114 25.9866 1.68366
432 2 51.3384 25.52 -1.53905 51.3384 25.52 -1.53905
433 1 1.07816 27.3922 -0.215705 1.07816 27.3922 -0.215705
434 2 3.11447 27.5091 1.23288 3.11447 27.5091 1.23288
435 2 2.82626 27.2486 -2.00472 2.82626 27.2486 -2.00472
436 1 3.90084 29.0253 -0.60279 3.90084 29.0253 -0.60279
437 2 5.87427 29.099 0.937525 5.87427 29.099 0.937525
438 2 5.72633 28.9291 -2.31603 5.72633 28.9291 -2.31603
439 1 6.75421 27.3622 -0.648569 6.75421 27.3622 -0.648569
440 2 8.80534 27.429 0.783357 8.80534 27.429 0.783357
441 2 8.48647 27.2554 -2.45699 8.48647 27.2554 -2.45699
442 1 9.58359 28.9893 -1.01959 9.58359 28.9893 -1.01959
443 2 11.5359 29.0172 0.550909 11.5359 29.0172 0.550909
444 2 11.4362 28.9362 -2.70702 11.4362 28.9362 -2.70702
445 1 12.4382 27.323 -1.06532 12.4382 27.323 -1.06532
446 2 14.2986 27.3905 0.617363 14.2986 27.3905 0.617363
447 2 14.384 27.2421 -2.63933 14.384 27.2421 -2.63933
448 1 15.2875 28.9664 -1.0598 15.2875 28.9664 -1.0598
449 2 17.0737 29.0235 0.697535 17.0737 29.0235 0.697535
450 2 17.298 28.9024 -2.55386 17.298 28.9024 -2.55386
451 1 18.135 27.3164 -0.80145 18.135 27.3164 -0.80145
452 2 19.9973 27.3526 0.87583 19.9973 27.3526 0.87583
453 2 20.0741 27.2706 -2.38452 20.0741 27.2706 -2.38452
454 1 20.9832 28.9588 -0.771564 20.9832 28.9588 -0.771564
455 2 22.7751 29.0414 0.977219 22.7751 29.0414 0.977219
456 2 22.9852 28.8744 -2.27359 22.9852 28.8744 -2.27359
457 1 23.8317 27.3142 -0.503679 23.8317 27.3142 -0.503679
458 2 25.729 27.3553 1.13436 25.729 27.3553 1.13436
459 2 25.7422 27.2629 -2.12645 25.7422 27.2629 -2.12645
460 1 26.6825 28.9544 -0.540009 26.6825 28.9544 -0.540009
461 2 28.5722 28.9763 1.10246 28.5722 28.9763 1.10246
462 2 28.5955 28.9215 -2.15889 28.5955 28.9215 -2.15889
463 1 29.545 27.3047 -0.497391 29.545 27.3047 -0.497391
464 2 31.4258 27.31 1.15506 31.4258 27.31 1.15506
465 2 31.47 27.2948 -2.10512 31.47 27.2948 -2.10512
466 1 32.3923 28.9524 -0.470088 32.3923 28.9524 -0.470088
467 2 34.1924 28.9589 1.27343 34.1924 28.9589 1.27343
468 2 34.3912 28.9562 -1.98192 34.3912 28.9562 -1.98192
469 1 35.2583 27.3167 -0.2991 35.2583 27.3167 -0.2991
470 2 37.0303 27.4011 1.47161 37.0303 27.4011 1.47161
471 2 37.2831 27.2578 -1.77668 37.2831 27.2578 -1.77668
472 1 38.0932 28.9848 -0.150252 38.0932 28.9848 -0.150252
473 2 39.9474 29.1205 1.52933 39.9474 29.1205 1.52933
474 2 40.0447 28.8807 -1.72202 40.0447 28.8807 -1.72202
475 1 40.9627 27.3672 0.049519 40.9627 27.3672 0.049519
476 2 42.8224 27.5736 1.71613 42.8224 27.5736 1.71613
477 2 42.9103 27.1939 -1.52163 42.9103 27.1939 -1.52163
478 1 43.8021 29.0305 -0.0709588 43.8021 29.0305 -0.0709588
479 2 45.6713 29.1976 1.59015 45.6713 29.1976 1.59015
480 2 45.7366 28.8913 -1.6564 45.7366 28.8913 -1.6564
481 1 46.668 27.409 0.14145 46.668 27.409 0.14145
482 2 48.6206 27.5342 1.70245 48.6206 27.5342 1.70245
483 2 48.5174 27.28 -1.54731 48.5174 27.28 -1.54731
484 1 49.5021 29.0554 -0.0847661 49.5021 29.0554 -0.0847661
485 2 51.5295 29.1532 1.37769 51.5295 29.1532 1.37769
486 2 51.2633 28.9373 -1.86582 51.2633 28.9373 -1.86582
487 1 1.05548 30.692 -0.431072 1.05548 30.692 -0.431072
488 2 3.04681 30.6747 1.08798 3.04681 30.6747 1.08798
489 2 2.85879 30.6909 -2.16792 2.85879 30.6909 -2.16792
490 1 3.89456 32.3308 -0.586398 3.89456 32.3308 -0.586398
491 2 5.92112 32.3179 0.886109 5.92112 32.3179 0.886109
492 2 5.65844 32.314 -2.36483 5.65844 32.314 -2.36483
493 1 6.73835 30.6622 -0.817173 6.73835 30.6622 -0.817173
494 2 8.76018 30.6664 0.657505 8.76018 30.6664 0.657505
495 2 8.50742 30.6241 -2.59299 8.50742 30.6241 -2.59299
496 1 9.57974 32.2933 -1.06447 9.57974 32.2933 -1.06447
497 2 11.5198 32.2564 0.52465 11.5198 32.2564 0.52465
498 2 11.4476 32.3049 -2.73474 11.4476 32.3049 -2.73474
499 1 12.4338 30.6268 -1.14866 12.4338 30.6268 -1.14866
500 2 14.2786 30.6027 0.55215 14.2786 30.6027 0.55215
501 2 14.3957 30.6357 -2.70644 14.3957 30.6357 -2.70644
502 1 15.2866 32.2666 -1.02395 15.2866 32.2666 -1.02395
503 2 17.1587 32.3107 0.640813 17.1587 32.3107 0.640813
504 2 17.2188 32.2118 -2.61859 17.2188 32.2118 -2.61859
505 1 18.1347 30.6109 -0.923298 18.1347 30.6109 -0.923298
506 2 19.9641 30.6357 0.786521 19.9641 30.6357 0.786521
507 2 20.1036 30.5776 -2.47188 20.1036 30.5776 -2.47188
508 1 20.9846 32.2545 -0.832678 20.9846 32.2545 -0.832678
509 2 22.8388 32.329 0.850739 22.8388 32.329 0.850739
510 2 22.9299 32.1732 -2.40619 22.9299 32.1732 -2.40619
511 1 23.8301 30.6039 -0.671603 23.8301 30.6039 -0.671603
512 2 25.6563 30.6055 1.04162 25.6563 30.6055 1.04162
513 2 25.8007 30.5952 -2.21703 25.8007 30.5952 -2.21703
514 1 26.6754 32.2516 -0.552895 26.6754 32.2516 -0.552895
515 2 28.5832 32.2612 1.07245 28.5832 32.2612 1.07245
516 2 28.5731 32.2317 -2.18877 28.5731 32.2317 -2.18877
517 1 29.5299 30.598 -0.546254 29.5299 30.598 -0.546254
518 2 31.3564 30.5434 1.16893 31.3564 30.5434 1.16893
519 2 31.5025 30.6484 -2.08683 31.5025 30.6484 -2.08683
520 1 32.3674 32.2548 -0.360014 32.3674 32.2548 -0.360014
521 2 34.2719 32.3273 1.26943 34.2719 32.3273 1.26943
522 2 34.2681 32.1907 -1.98877 34.2681 32.1907 -1.98877
523 1 35.2268 30.6135 -0.292966 35.2268 30.6135 -0.292966
524 2 37.0661 30.6596 1.40878 37.0661 30.6596 1.40878
525 2 37.1877 30.5856 -1.8492 37.1877 30.5856 -1.8492
526 1 38.0663 32.2824 -0.222131 38.0663 32.2824 -0.222131
527 2 40.0119 32.3989 1.35443 40.0119 32.3989 1.35443
528 2 39.9275 32.1844 -1.89856 39.9275 32.1844 -1.89856
529 1 40.9329 30.6531 -0.189136 40.9329 30.6531 -0.189136
530 2 42.8362 30.7851 1.4362 42.8362 30.7851 1.4362
531 2 42.8351 30.5493 -1.81669 42.8351 30.5493 -1.81669
532 1 43.7738 32.3177 -0.311069 43.7738 32.3177 -0.311069
533 2 45.6479 32.4215 1.34915 45.6479 32.4215 1.34915
534 2 45.7027 32.241 -1.90736 45.7027 32.241 -1.90736
535 1 46.6391 30.6934 -0.170584 46.6391 30.6934 -0.170584
536 2 48.5372 30.7813 1.46088 48.5372 30.7813 1.46088
537 2 48.5417 30.6184 -1.79679 48.5417 30.6184 -1.79679
538 1 49.477 32.3508 -0.251343 49.477 32.3508 -0.251343
539 2 51.4996 32.3831 1.22541 51.4996 32.3831 1.22541
540 2 51.2481 32.3023 -2.02555 51.2481 32.3023 -2.02555