ITEM: TIMESTEP
15000
ITEM: NUMBER OF ATOMS
810
ITEM: BOX BOUNDS pp pp pp
8.4144743653820331e-01 5.2176157563461061e+01
8.0960539053736491e-01 5.0206609609461758e+01
-1.0000000000000000e+01 1.0000000000000000e+01
ITEM: ATOMS id type x y z xu yu zu
1 1 1.04505 1.02382 -0.107803 1.04505 1.02382 -0.107803
2 2 2.95927 1.00907 1.50798 2.95927 1.00907 1.50798
3 2 2.93336 1.03861 -1.75396 2.93336 1.03861 -1.75396
4 1 3.89698 2.6704 -0.11561 3.89698 2.6704 -0.11561
5 2 5.81307 2.6556 1.49799 5.81307 2.6556 1.49799
6 2 5.78339 2.68524 -1.76392 5.78339 2.68524 -1.76392
7 1 6.74883 1.02393 -0.156633 6.74883 1.02393 -0.156633
8 2 8.66512 1.0089 1.45674 8.66512 1.0089 1.45674
9 2 8.63503 1.03897 -1.80517 8.63503 1.03897 -1.80517
10 1 9.60073 2.6705 -0.167769 9.60073 2.6705 -0.167769
11 2 11.5159 2.65547 1.44697 11.5159 2.65547 1.44697
12 2 11.4881 2.68555 -1.81496 11.4881 2.68555 -1.81496
13 1 12.4526 1.02402 -0.207335 12.4526 1.02402 -0.207335
14 2 14.3648 1.00877 1.41097 14.3648 1.00877 1.41097
15 2 14.343 1.03927 -1.851 14.343 1.03927 -1.851
16 1 15.3045 2.67057 -0.21092 15.3045 2.67057 -0.21092
17 2 17.2126 2.65562 1.4123 17.2126 2.65562 1.4123
18 2 17.1991 2.68552 -1.84973 17.1991 2.68552 -1.84973
19 1 18.1565 1.02406 -0.237764 18.1565 1.02406 -0.237764
20 2 20.0588 1.00882 1.39214 20.0588 1.00882 1.39214
21 2 20.0568 1.03928 -1.8699 20.0568 1.03928 -1.8699
22 1 21.0085 2.67058 -0.224023 21.0085 2.67058 -0.224023
23 2 22.9053 2.65613 1.41242 22.9053 2.65613 1.41242
24 2 22.9143 2.68498 -1.84963 22.9143 2.68498 -1.84963
25 1 23.8605 1.02402 -0.230528 23.8605 1.02402 -0.230528
26 2 25.7515 1.00904 1.41256 25.7515 1.00904 1.41256
27 2 25.772 1.03894 -1.84942 25.772 1.03894 -1.84942
28 1 26.7124 2.67049 -0.197249 26.7124 2.67049 -0.197249
29 2 28.5997 2.65679 1.45007 28.5997 2.65679 1.45007
30 2 28.6275 2.68413 -1.81188 28.6275 2.68413 -1.81188
31 1 29.5643 1.02389 -0.186595 29.5643 1.02389 -0.186595
32 2 31.4493 1.00928 1.46335 31.4493 1.00928 1.46335
33 2 31.4817 1.03845 -1.79854 31.4817 1.03845 -1.79854
34 1 32.4161 2.67035 -0.143328 32.4161 2.67035 -0.143328
35 2 34.3017 2.6572 1.50589 34.3017 2.6572 1.50589
36 2 34.3329 2.68349 -1.75604 34.3329 2.68349 -1.75604
37 1 35.268 1.02376 -0.129254 35.268 1.02376 -0.129254
38 2 37.1557 1.00942 1.51747 37.1557 1.00942 1.51747
39 2 37.1827 1.03809 -1.74447 37.1827 1.03809 -1.74447
40 1 38.1198 2.67026 -0.0911043 38.1198 2.67026 -0.0911043
41 2 40.0118 2.65711 1.55082 40.0118 2.65711 1.55082
42 2 40.0305 2.68344 -1.7112 40.0305 2.68344 -1.7112
43 1 40.9718 1.0237 -0.0880442 40.9718 1.0237 -0.0880442
44 2 42.8685 1.00941 1.54832 42.8685 1.00941 1.54832
45 2 42.8778 1.03803 -1.71373 42.8778 1.03803 -1.71373
46 1 43.8238 2.67025 -0.0655374 43.8238 2.67025 -0.0655374
47 2 45.7258 2.65659 1.56463 45.7258 2.65659 1.56463
48 2 45.7245 2.68395 -1.69744 45.7245 2.68395 -1.69744
49 1 46.6758 1.02373 -0.0806623 46.6758 1.02373 -0.0806623
50 2 48.5827 1.00926 1.54374 48.5827 1.00926 1.54374
51 2 48.5716 1.03826 -1.7183 48.5716 1.03826 -1.7183
52 1 49.5278 2.67031 -0.0758927 49.5278 2.67031 -0.0758927
53 2 51.439 2.65599 1.54349 51.439 2.65599 1.54349
54 2 51.4192 2.68467 -1.7185 51.4192 2.68467 -1.7185
55 1 1.04509 4.3169 -0.0787688 1.04509 4.3169 -0.0787688
56 2 2.95939 4.30308 1.53697 2.95939 4.30308 1.53697
57 2 2.93335 4.33075 -1.72499 2.93335 4.33075 -1.72499
58 1 3.89704 5.96349 -0.0876012 3.89704 5.96349 -0.0876012
59 2 5.81318 5.9507 1.52598 5.81318 5.9507 1.52598
60 2 5.78341 5.97632 -1.73596 5.78341 5.97632 -1.73596
61 1 6.74889 4.31699 -0.126622 6.74889 4.31699 -0.126622
62 2 8.66541 4.30275 1.48651 8.66541 4.30275 1.48651
63 2 8.63487 4.33125 -1.7754 8.63487 4.33125 -1.7754
64 1 9.6008 5.96358 -0.138912 9.6008 5.96358 -0.138912
65 2 11.5163 5.95065 1.47549 11.5163 5.95065 1.47549
66 2 11.4878 5.97652 -1.78647 11.4878 5.97652 -1.78647
67 1 12.4526 4.31707 -0.176872 12.4526 4.31707 -0.176872
68 2 14.3652 4.30288 1.44101 14.3652 4.30288 1.44101
69 2 14.3426 4.33128 -1.82098 14.3426 4.33128 -1.82098
70 1 15.3046 5.96364 -0.182148 15.3046 5.96364 -0.182148
71 2 17.2132 5.95121 1.4404 17.2132 5.95121 1.4404
72 2 17.1985 5.97607 -1.82167 17.1985 5.97607 -1.82167
73 1 18.1565 4.31711 -0.20747 18.1565 4.31711 -0.20747
74 2 20.0595 4.30349 1.42173 20.0595 4.30349 1.42173
75 2 20.0561 4.33072 -1.84034 20.0561 4.33072 -1.84034
76 1 21.0085 5.96364 -0.196427 21.0085 5.96364 -0.196427
77 2 22.9062 5.95239 1.43899 22.9062 5.95239 1.43899
78 2 22.9134 5.97486 -1.82313 22.9134 5.97486 -1.82313
79 1 23.8604 4.31707 -0.201288 23.8604 4.31707 -0.201288
80 2 25.7523 4.30451 1.4409 25.7523 4.30451 1.4409
81 2 25.7712 4.32958 -1.82114 25.7712 4.32958 -1.82114
82 1 26.7123 5.96357 -0.171835 26.7123 5.96357 -0.171835
83 2 28.6006 5.95377 1.47442 28.6006 5.95377 1.47442
84 2 28.6265 5.97333 -1.78761 28.6265 5.97333 -1.78761
85 1 29.5642 4.31696 -0.158891 29.5642 4.31696 -0.158891
86 2 31.45 4.3054 1.49026 31.45 4.3054 1.49026
87 2 31.4809 4.32848 -1.7717 31.4809 4.32848 -1.7717
88 1 32.4161 5.96347 -0.119944 32.4161 5.96347 -0.119944
89 2 34.3023 5.95448 1.52865 34.3023 5.95448 1.52865
90 2 34.3323 5.97244 -1.73334 34.3323 5.97244 -1.73334
91 1 35.2679 4.31686 -0.102633 35.2679 4.31686 -0.102633
92 2 37.1561 4.30557 1.54366 37.1561 4.30557 1.54366
93 2 37.1823 4.32814 -1.71834 37.1823 4.32814 -1.71834
94 1 38.1198 5.9634 -0.0682628 38.1198 5.9634 -0.0682628
95 2 40.0118 5.95404 1.57365 40.0118 5.95404 1.57365
96 2 40.0305 5.97278 -1.68842 40.0305 5.97278 -1.68842
97 1 40.9718 4.31681 -0.0613957 40.9718 4.31681 -0.0613957
98 2 42.8686 4.30492 1.57489 42.8686 4.30492 1.57489
99 2 42.8777 4.32872 -1.68719 42.8777 4.32872 -1.68719
100 1 43.8238 5.96339 -0.0414658 43.8238 5.96339 -0.0414658
101 2 45.7256 5.95277 1.58906 45.7256 5.95277 1.58906
102 2 45.7247 5.97404 -1.67304 45.7247 5.97404 -1.67304
103 1 46.6758 4.31683 -0.0529748 46.6758 4.31683 -0.0529748
104 2 48.5827 4.3039 1.57149 48.5827 4.3039 1.57149
105 2 48.5716 4.3298 -1.69057 48.5716 4.3298 -1.69057
106 1 49.5278 5.96342 -0.0496879 49.5278 5.96342 -0.0496879
107 2 51.4388 5.95144 1.57001 51.4388 5.95144 1.57001
108 2 51.4195 5.97544 -1.69202 51.4195 5.97544 -1.69202
109 1 1.04513 7.61003 -0.0544948 1.04513 7.61003 -0.0544948
110 2 2.95917 7.5994 1.5616 2.95917 7.5994 1.5616
111 2 2.93367 7.62069 -1.70041 2.93367 7.62069 -1.70041
112 1 3.89709 9.25664 -0.0660579 3.89709 9.25664 -0.0660579
113 2 5.81309 9.24791 1.54774 5.81309 9.24791 1.54774
114 2 5.78361 9.2654 -1.71426 5.78361 9.2654 -1.71426
115 1 6.74896 7.6101 -0.100691 6.74896 7.6101 -0.100691
116 2 8.66562 7.59898 1.51231 8.66562 7.59898 1.51231
117 2 8.63478 7.62124 -1.74965 8.63478 7.62124 -1.74965
118 1 9.60086 9.2567 -0.116364 9.60086 9.2567 -0.116364
119 2 11.5167 9.24797 1.49766 11.5167 9.24797 1.49766
120 2 11.4875 9.26545 -1.76435 11.4875 9.26545 -1.76435
121 1 12.4527 7.61016 -0.150666 12.4527 7.61016 -0.150666
122 2 14.3658 7.59936 1.46666 14.3658 7.59936 1.46666
123 2 14.3422 7.62098 -1.79538 14.3422 7.62098 -1.79538
124 1 15.3046 9.25674 -0.160233 15.3046 9.25674 -0.160233
125 2 17.214 9.24888 1.46145 17.214 9.24888 1.46145
126 2 17.1978 9.26461 -1.80067 17.1978 9.26461 -1.80067
127 1 18.1565 7.61019 -0.182273 18.1565 7.61019 -0.182273
128 2 20.0604 7.60048 1.44592 20.0604 7.60048 1.44592
129 2 20.0553 7.61989 -1.81621 20.0553 7.61989 -1.81621
130 1 21.0085 9.25674 -0.17673 21.0085 9.25674 -0.17673
131 2 22.9073 9.25055 1.45736 22.9073 9.25055 1.45736
132 2 22.9122 9.26292 -1.80481 22.9122 9.26292 -1.80481
133 1 23.8604 7.61016 -0.178504 23.8604 7.61016 -0.178504
134 2 25.7534 7.60215 1.46241 25.7534 7.60215 1.46241
135 2 25.77 7.61814 -1.7997 25.77 7.61814 -1.7997
136 1 26.7123 9.25669 -0.155599 26.7123 9.25669 -0.155599
137 2 28.6018 9.2524 1.48938 28.6018 9.2524 1.48938
138 2 28.6254 9.26097 -1.77272 28.6254 9.26097 -1.77272
139 1 29.5642 7.61008 -0.139059 29.5642 7.61008 -0.139059
140 2 31.4508 7.6035 1.50914 31.4508 7.6035 1.50914
141 2 31.4801 7.61664 -1.75289 31.4801 7.61664 -1.75289
142 1 32.416 9.25664 -0.106627 32.416 9.25664 -0.106627
143 2 34.3028 9.25328 1.54143 34.3028 9.25328 1.54143
144 2 34.3318 9.25999 -1.72061 34.3318 9.25999 -1.72061
145 1 35.2679 7.61002 -0.0844524 35.2679 7.61002 -0.0844524
146 2 37.1563 7.60362 1.56167 37.1563 7.60362 1.56167
147 2 37.1821 7.61642 -1.70038 37.1821 7.61642 -1.70038
148 1 38.1198 9.25661 -0.0553276 38.1198 9.25661 -0.0553276
149 2 40.0115 9.25256 1.58701 40.0115 9.25256 1.58701
150 2 40.0308 9.26066 -1.6751 40.0308 9.26066 -1.6751
151 1 40.9718 7.60999 -0.0424532 40.9718 7.60999 -0.0424532
152 2 42.8682 7.60242 1.59434 42.8682 7.60242 1.59434
153 2 42.8781 7.61756 -1.66778 42.8781 7.61756 -1.66778
154 1 43.8238 9.25659 -0.0261804 43.8238 9.25659 -0.0261804
155 2 45.7248 9.25072 1.6053 45.7248 9.25072 1.6053
156 2 45.7255 9.26248 -1.65685 45.7255 9.26248 -1.65685
157 1 46.6758 7.60999 -0.0314719 46.6758 7.60999 -0.0314719
158 2 48.5822 7.60069 1.59368 48.5822 7.60069 1.59368
159 2 48.5722 7.61931 -1.66842 48.5722 7.61931 -1.66842
160 1 49.5279 9.2566 -0.0308784 49.5279 9.2566 -0.0308784
161 2 51.4382 9.24887 1.58961 51.4382 9.24887 1.58961
162 2 51.4202 9.26435 -1.67248 51.4202 9.26435 -1.67248
163 1 1.04516 10.9032 -0.0388492 1.04516 10.9032 -0.0388492
164 2 2.95868 10.8975 1.5779 2.95868 10.8975 1.5779
165 2 2.93424 10.909 -1.68416 2.93424 10.909 -1.68416
166 1 3.89713 12.5499 -0.0544007 3.89713 12.5499 -0.0544007
167 2 5.81286 12.5466 1.55974 5.81286 12.5466 1.55974
168 2 5.78393 12.5531 -1.7023 5.78393 12.5531 -1.7023
169 1 6.74901 10.9033 -0.0829769 6.74901 10.9033 -0.0829769
170 2 8.66577 10.8971 1.52995 8.66577 10.8971 1.52995
171 2 8.63474 10.9095 -1.73206 8.63474 10.9095 -1.73206
172 1 9.6009 12.5499 -0.103761 9.6009 12.5499 -0.103761
173 2 11.5171 12.5468 1.50987 11.5171 12.5468 1.50987
174 2 11.4872 12.553 -1.75218 11.4872 12.553 -1.75218
175 1 12.4527 10.9033 -0.132952 12.4527 10.9033 -0.132952
176 2 14.3664 10.8977 1.48371 14.3664 10.8977 1.48371
177 2 14.3416 10.909 -1.77837 14.3416 10.909 -1.77837
178 1 15.3046 12.5499 -0.14877 15.3046 12.5499 -0.14877
179 2 17.2149 12.5479 1.47195 17.2149 12.5479 1.47195
180 2 17.197 12.5519 -1.79019 17.197 12.5519 -1.79019
181 1 18.1565 10.9033 -0.166313 18.1565 10.9033 -0.166313
182 2 20.0615 10.8991 1.46069 20.0615 10.8991 1.46069
183 2 20.0542 10.9075 -1.80149 20.0542 10.9075 -1.80149
184 1 21.0085 12.5499 -0.168147 21.0085 12.5499 -0.168147
185 2 22.9085 12.5497 1.46455 22.9085 12.5497 1.46455
186 2 22.911 12.55 -1.79765 22.911 12.55 -1.79765
187 1 23.8604 10.9033 -0.165938 23.8604 10.9033 -0.165938
188 2 25.7546 10.9011 1.47353 25.7546 10.9011 1.47353
189 2 25.7687 10.9055 -1.78864 25.7687 10.9055 -1.78864
190 1 26.7123 12.5499 -0.151136 26.7123 12.5499 -0.151136
191 2 28.6029 12.5517 1.49254 28.6029 12.5517 1.49254
192 2 28.6243 12.548 -1.76959 28.6243 12.548 -1.76959
193 1 29.5642 10.9033 -0.130352 29.5642 10.9033 -0.130352
194 2 31.4517 10.9027 1.51687 31.4517 10.9027 1.51687
195 2 31.4792 10.9038 -1.7452 31.4792 10.9038 -1.7452
196 1 32.4161 12.5498 -0.105505 32.4161 12.5498 -0.105505
197 2 34.3031 12.5527 1.54217 34.3031 12.5527 1.54217
198 2 34.3315 12.547 -1.71989 34.3315 12.547 -1.71989
199 1 35.2679 10.9032 -0.0776707 35.2679 10.9032 -0.0776707
200 2 37.1562 10.9028 1.56855 37.1562 10.9028 1.56855
201 2 37.1822 10.9037 -1.69353 37.1822 10.9037 -1.69353
202 1 38.1198 12.5498 -0.0544284 38.1198 12.5498 -0.0544284
203 2 40.0108 12.5518 1.58867 40.0108 12.5518 1.58867
204 2 40.0314 12.5479 -1.67343 40.0314 12.5479 -1.67343
205 1 40.9718 10.9032 -0.0342928 40.9718 10.9032 -0.0342928
206 2 42.8674 10.9012 1.60349 42.8674 10.9012 1.60349
207 2 42.8789 10.9052 -1.65866 42.8789 10.9052 -1.65866
208 1 43.8238 12.5498 -0.0222059 43.8238 12.5498 -0.0222059
209 2 45.7236 12.5497 1.61065 45.7236 12.5497 1.61065
210 2 45.7267 12.55 -1.65152 45.7267 12.55 -1.65152
211 1 46.6758 10.9032 -0.0196099 46.6758 10.9032 -0.0196099
212 2 48.5812 10.8991 1.60672 48.5812 10.8991 1.60672
213 2 48.5732 10.9074 -1.65543 48.5732 10.9074 -1.65543
214 1 49.5279 12.5498 -0.0224912 49.5279 12.5498 -0.0224912
215 2 51.4373 12.5476 1.59913 51.4373 12.5476 1.59913
216 2 51.4211 12.5521 -1.663 51.4211 12.5521 -1.663
217 1 1.04517 14.1965 -0.0343841 1.04517 14.1965 -0.0343841
218 2 2.95799 14.1966 1.58321 2.95799 14.1966 1.58321
219 2 2.93497 14.1964 -1.67888 2.93497 14.1964 -1.67888
220 1 3.89714 15.8431 -0.0546275 3.89714 15.8431 -0.0546275
221 2 5.81252 15.846 1.55993 5.81252 15.846 1.55993
222 2 5.78431 15.8402 -1.70212 5.78431 15.8402 -1.70212
223 1 6.74905 14.1965 -0.076382 6.74905 14.1965 -0.076382
224 2 8.66585 14.1963 1.53651 8.66585 14.1963 1.53651
225 2 8.63474 14.1967 -1.72553 8.63474 14.1967 -1.72553
226 1 9.60093 15.8431 -0.103322 9.60093 15.8431 -0.103322
227 2 11.5174 15.8463 1.50993 11.5174 15.8463 1.50993
228 2 11.4869 15.8399 -1.75211 11.4869 15.8399 -1.75211
229 1 12.4528 14.1965 -0.1267 12.4528 14.1965 -0.1267
230 2 14.367 14.197 1.48927 14.367 14.197 1.48927
231 2 14.341 14.196 -1.77282 14.341 14.196 -1.77282
232 1 15.3047 15.8431 -0.14981 15.3047 15.8431 -0.14981
233 2 17.2156 15.8474 1.47005 17.2156 15.8474 1.47005
234 2 17.1962 15.8388 -1.79208 17.1962 15.8388 -1.79208
235 1 18.1566 14.1965 -0.162259 18.1566 14.1965 -0.162259
236 2 20.0625 14.1985 1.46358 20.0625 14.1985 1.46358
237 2 20.0532 14.1945 -1.7986 20.0532 14.1945 -1.7986
238 1 21.0085 15.843 -0.172119 21.0085 15.843 -0.172119
239 2 22.9096 15.8489 1.45936 22.9096 15.8489 1.45936
240 2 22.91 15.8371 -1.80282 22.91 15.8371 -1.80282
241 1 23.8604 14.1965 -0.165583 23.8604 14.1965 -0.165583
242 2 25.7559 14.2004 1.47249 25.7559 14.2004 1.47249
243 2 25.7676 14.1925 -1.78968 25.7676 14.1925 -1.78968
244 1 26.7124 15.843 -0.159082 26.7124 15.843 -0.159082
245 2 28.6039 15.8507 1.48346 28.6039 15.8507 1.48346
246 2 28.6234 15.8353 -1.77864 28.6234 15.8353 -1.77864
247 1 29.5642 14.1964 -0.134094 29.5642 14.1964 -0.134094
248 2 31.4525 14.202 1.51226 31.4525 14.202 1.51226
249 2 31.4785 14.1909 -1.7498 31.4785 14.1909 -1.7498
250 1 32.4161 15.843 -0.116711 32.4161 15.843 -0.116711
251 2 34.3034 15.8516 1.53072 34.3034 15.8516 1.53072
252 2 34.3314 15.8344 -1.73131 34.3314 15.8344 -1.73131
253 1 35.268 14.1964 -0.0833951 35.268 14.1964 -0.0833951
254 2 37.156 14.2021 1.56313 37.156 14.2021 1.56313
255 2 37.1825 14.1908 -1.69893 37.1825 14.1908 -1.69893
256 1 38.1199 15.8431 -0.065847 38.1199 15.8431 -0.065847
257 2 40.0101 15.8509 1.5782 40.0101 15.8509 1.5782
258 2 40.0323 15.8352 -1.68387 40.0323 15.8352 -1.68387
259 1 40.9718 14.1965 -0.038365 40.9718 14.1965 -0.038365
260 2 42.8663 14.2005 1.60072 42.8663 14.2005 1.60072
261 2 42.88 14.1924 -1.66141 42.88 14.1924 -1.66141
262 1 43.8238 15.8431 -0.0304039 43.8238 15.8431 -0.0304039
263 2 45.7223 15.8489 1.60405 45.7223 15.8489 1.60405
264 2 45.7281 15.8373 -1.6581 45.7281 15.8373 -1.6581
265 1 46.6758 14.1965 -0.0194163 46.6758 14.1965 -0.0194163
266 2 48.58 14.1982 1.6084 48.58 14.1982 1.6084
267 2 48.5744 14.1947 -1.65376 48.5744 14.1947 -1.65376
268 1 49.5279 15.8431 -0.0260425 49.5279 15.8431 -0.0260425
269 2 51.4362 15.8468 1.59689 51.4362 15.8468 1.59689
270 2 51.4223 15.8393 -1.66524 51.4223 15.8393 -1.66524
271 1 1.04518 17.4897 -0.0420089 1.04518 17.4897 -0.0420089
272 2 2.9572 17.4958 1.5765 2.9572 17.4958 1.5765
273 2 2.93577 17.4837 -1.68558 2.93577 17.4837 -1.68558
274 1 3.89714 19.1363 -0.0668922 3.89714 19.1363 -0.0668922
275 2 5.81213 19.1449 1.54809 5.81213 19.1449 1.54809
276 2 5.7847 19.1277 -1.71393 5.7847 19.1277 -1.71393
277 1 6.74906 17.4897 -0.08219 6.74906 17.4897 -0.08219
278 2 8.66585 17.4957 1.53069 8.66585 17.4957 1.53069
279 2 8.63476 17.4837 -1.73133 8.63476 17.4837 -1.73133
280 1 9.60093 19.1363 -0.115376 9.60093 19.1363 -0.115376
281 2 11.5176 19.1454 1.49758 11.5176 19.1454 1.49758
282 2 11.4867 19.1272 -1.76441 11.4867 19.1272 -1.76441
283 1 12.4528 17.4897 -0.133205 12.4528 17.4897 -0.133205
284 2 14.3675 17.4964 1.4822 14.3675 17.4964 1.4822
285 2 14.3406 17.4829 -1.77986 14.3406 17.4829 -1.77986
286 1 15.3047 19.1362 -0.163445 15.3047 19.1362 -0.163445
287 2 17.2161 19.1462 1.45586 17.2161 19.1462 1.45586
288 2 17.1958 19.1262 -1.80622 17.1958 19.1262 -1.80622
289 1 18.1566 17.4896 -0.170955 18.1566 17.4896 -0.170955
290 2 20.0632 17.4975 1.45401 20.0632 17.4975 1.45401
291 2 20.0525 17.4817 -1.80813 20.0525 17.4817 -1.80813
292 1 21.0085 19.1362 -0.188117 21.0085 19.1362 -0.188117
293 2 22.9102 19.1472 1.44261 22.9102 19.1472 1.44261
294 2 22.9094 19.1251 -1.81951 22.9094 19.1251 -1.81951
295 1 23.8605 17.4896 -0.177491 23.8605 17.4896 -0.177491
296 2 25.7568 17.499 1.45951 25.7568 17.499 1.45951
297 2 25.7667 17.4802 -1.80262 25.7667 17.4802 -1.80262
298 1 26.7124 19.1361 -0.17811 26.7124 19.1361 -0.17811
299 2 28.6046 19.1483 1.46369 28.6046 19.1483 1.46369
300 2 28.6228 19.1239 -1.79836 28.6228 19.1239 -1.79836
301 1 29.5643 17.4896 -0.149603 29.5643 17.4896 -0.149603
302 2 31.4531 17.5003 1.4961 31.4531 17.5003 1.4961
303 2 31.478 17.4788 -1.76592 31.478 17.4788 -1.76592
304 1 32.4162 19.1361 -0.138421 32.4162 19.1361 -0.138421
305 2 34.3035 19.1491 1.50892 34.3035 19.1491 1.50892
306 2 34.3314 19.1232 -1.75304 34.3314 19.1232 -1.75304
307 1 35.268 17.4896 -0.10077 35.268 17.4896 -0.10077
308 2 37.1557 17.5005 1.54616 37.1557 17.5005 1.54616
309 2 37.1829 17.4787 -1.71584 37.1829 17.4787 -1.71584
310 1 38.1199 19.1362 -0.0878768 38.1199 19.1362 -0.0878768
311 2 40.0092 19.1486 1.55713 40.0092 19.1486 1.55713
312 2 40.0332 19.1238 -1.70487 40.0332 19.1238 -1.70487
313 1 40.9718 17.4897 -0.0542454 40.9718 17.4897 -0.0542454
314 2 42.8651 17.4992 1.58625 42.8651 17.4992 1.58625
315 2 42.8813 17.4802 -1.67583 42.8813 17.4802 -1.67583
316 1 43.8238 19.1363 -0.0496713 43.8238 19.1363 -0.0496713
317 2 45.7209 19.1471 1.58638 45.7209 19.1471 1.58638
318 2 45.7295 19.1255 -1.67571 45.7295 19.1255 -1.67571
319 1 46.6758 17.4897 -0.0311717 46.6758 17.4897 -0.0311717
320 2 48.5786 17.4971 1.59825 48.5786 17.4971 1.59825
321 2 48.5758 17.4823 -1.66389 48.5758 17.4823 -1.66389
322 1 49.5279 19.1363 -0.0411517 49.5279 19.1363 -0.0411517
323 2 51.435 19.1455 1.58311 51.435 19.1455 1.58311
324 2 51.4234 19.1271 -1.679 51.4234 19.1271 -1.679
325 1 1.04517 20.7829 -0.0605921 1.04517 20.7829 -0.0605921
326 2 2.95643 20.7939 1.55877 2.95643 20.7939 1.55877
327 2 2.93652 20.7719 -1.70328 2.93652 20.7719 -1.70328
328 1 3.89712 22.4294 -0.0892052 3.89712 22.4294 -0.0892052
329 2 5.81175 22.4423 1.52614 5.81175 22.4423 1.52614
330 2 5.78503 22.4166 -1.73583 5.78503 22.4166 -1.73583
331 1 6.74904 20.7829 -0.0996015 6.74904 20.7829 -0.0996015
332 2 8.66577 20.794 1.5133 8.66577 20.794 1.5133
333 2 8.63481 20.7717 -1.74866 8.63481 20.7717 -1.74866
334 1 9.6009 22.4294 -0.137997 9.6009 22.4294 -0.137997
335 2 11.5177 22.4428 1.47484 11.5177 22.4428 1.47484
336 2 11.4866 22.416 -1.78709 11.4866 22.416 -1.78709
337 1 12.4528 20.7828 -0.151604 12.4528 20.7828 -0.151604
338 2 14.3677 20.7947 1.46347 14.3677 20.7947 1.46347
339 2 14.3403 20.7709 -1.79852 14.3403 20.7709 -1.79852
340 1 15.3046 22.4293 -0.187494 15.3046 22.4293 -0.187494
341 2 17.2161 22.4432 1.43167 17.2161 22.4432 1.43167
342 2 17.1957 22.4154 -1.83033 17.1957 22.4154 -1.83033
343 1 18.1566 20.7827 -0.191136 18.1566 20.7827 -0.191136
344 2 20.0635 20.7953 1.43344 20.0635 20.7953 1.43344
345 2 20.0522 20.7702 -1.82863 20.0522 20.7702 -1.82863
346 1 21.0085 22.4292 -0.213557 21.0085 22.4292 -0.213557
347 2 22.9103 22.4435 1.41704 22.9103 22.4435 1.41704
348 2 22.9094 22.4149 -1.84502 22.9094 22.4149 -1.84502
349 1 23.8605 20.7827 -0.199763 23.8605 20.7827 -0.199763
350 2 25.7572 20.796 1.43672 25.7572 20.796 1.43672
351 2 25.7664 20.7693 -1.82535 25.7664 20.7693 -1.82535
352 1 26.7124 22.4292 -0.205106 26.7124 22.4292 -0.205106
353 2 28.6047 22.4439 1.43649 28.6047 22.4439 1.43649
354 2 28.6227 22.4145 -1.82552 28.6227 22.4145 -1.82552
355 1 29.5643 20.7827 -0.174331 29.5643 20.7827 -0.174331
356 2 31.4533 20.7968 1.47106 31.4533 20.7968 1.47106
357 2 31.4779 20.7685 -1.79092 31.4779 20.7685 -1.79092
358 1 32.4163 22.4292 -0.167062 32.4163 22.4292 -0.167062
359 2 34.3034 22.4444 1.4804 34.3034 22.4444 1.4804
360 2 34.3316 22.4141 -1.78153 34.3316 22.4141 -1.78153
361 1 35.2681 20.7827 -0.127 35.2681 20.7827 -0.127
362 2 37.1553 20.797 1.52038 37.1553 20.797 1.52038
363 2 37.1834 20.7684 -1.74156 37.1834 20.7684 -1.74156
364 1 38.12 22.4293 -0.116881 38.12 22.4293 -0.116881
365 2 40.0085 22.4442 1.52897 40.0085 22.4442 1.52897
366 2 40.034 22.4144 -1.73298 40.034 22.4144 -1.73298
367 1 40.9719 20.7828 -0.0794512 40.9719 20.7828 -0.0794512
368 2 42.864 20.7962 1.56234 42.864 20.7962 1.56234
369 2 42.8824 20.7694 -1.69968 42.8824 20.7694 -1.69968
370 1 43.8239 22.4294 -0.0768294 43.8239 22.4294 -0.0768294
371 2 45.7197 22.4433 1.56057 45.7197 22.4433 1.56057
372 2 45.7307 22.4154 -1.70147 45.7307 22.4154 -1.70147
373 1 46.6759 20.7829 -0.0530796 46.6759 20.7829 -0.0530796
374 2 48.5773 20.7948 1.57783 48.5773 20.7948 1.57783
375 2 48.5771 20.7709 -1.68426 48.5771 20.7709 -1.68426
376 1 49.5279 22.4294 -0.065332 49.5279 22.4294 -0.065332
377 2 51.434 22.4425 1.56004 51.434 22.4425 1.56004
378 2 51.4244 22.4164 -1.70202 51.4244 22.4164 -1.70202
379 1 1.04515 24.076 -0.0869747 1.04515 24.076 -0.0869747
380 2 2.95582 24.0901 1.53302 2.95582 24.0901 1.53302
381 2 2.93708 24.0619 -1.72899 2.93708 24.0619 -1.72899
382 1 3.89708 25.7225 -0.117708 3.89708 25.7225 -0.117708
383 2 5.81144 25.7374 1.49791 5.81144 25.7374 1.49791
384 2 5.78525 25.7077 -1.76404 5.78525 25.7077 -1.76404
385 1 6.749 24.076 -0.125658 6.749 24.076 -0.125658
386 2 8.66561 24.0904 1.48732 8.66561 24.0904 1.48732
387 2 8.63488 24.0615 -1.77459 8.63488 24.0615 -1.77459
388 1 9.60084 25.7225 -0.167196 9.60084 25.7225 -0.167196
389 2 11.5175 25.7378 1.44572 11.5175 25.7378 1.44572
390 2 11.4867 25.7072 -1.81617 11.4867 25.7072 -1.81617
391 1 12.4527 24.0759 -0.178747 12.4527 24.0759 -0.178747
392 2 14.3676 24.0908 1.43633 14.3676 24.0908 1.43633
393 2 14.3403 24.061 -1.82561 14.3403 24.061 -1.82561
394 1 15.3046 25.7224 -0.217673 15.3046 25.7224 -0.217673
395 2 17.2158 25.7377 1.4018 17.2158 25.7377 1.4018
396 2 17.196 25.707 -1.86018 17.196 25.707 -1.86018
397 1 18.1565 24.0758 -0.219371 18.1565 24.0758 -0.219371
398 2 20.0633 24.0908 1.40538 20.0633 24.0908 1.40538
399 2 20.0524 24.0608 -1.85665 20.0524 24.0608 -1.85665
400 1 21.0085 25.7223 -0.244007 21.0085 25.7223 -0.244007
401 2 22.9099 25.7373 1.38708 22.9099 25.7373 1.38708
402 2 22.9098 25.7072 -1.87496 22.9098 25.7072 -1.87496
403 1 23.8605 24.0757 -0.22869 23.8605 24.0757 -0.22869
404 2 25.7571 24.0907 1.40794 25.7571 24.0907 1.40794
405 2 25.7665 24.0607 -1.85409 25.7665 24.0607 -1.85409
406 1 26.7125 25.7223 -0.235491 26.7125 25.7223 -0.235491
407 2 28.6044 25.737 1.40648 28.6044 25.737 1.40648
408 2 28.6231 25.7075 -1.85551 28.6231 25.7075 -1.85551
409 1 29.5644 24.0757 -0.204165 29.5644 24.0757 -0.204165
410 2 31.4533 24.0909 1.44133 31.4533 24.0909 1.44133
411 2 31.4781 24.0606 -1.82062 31.4781 24.0606 -1.82062
412 1 32.4163 25.7223 -0.197753 32.4163 25.7223 -0.197753
413 2 34.3032 25.7369 1.45005 34.3032 25.7369 1.45005
414 2 34.332 25.7076 -1.81188 34.332 25.7076 -1.81188
415 1 35.2682 24.0758 -0.157661 35.2682 24.0758 -0.157661
416 2 37.155 24.091 1.49018 37.155 24.091 1.49018
417 2 37.1839 24.0605 -1.77174 37.1839 24.0605 -1.77174
418 1 38.1201 25.7223 -0.147801 38.1201 25.7223 -0.147801
419 2 40.0081 25.7371 1.49866 40.0081 25.7371 1.49866
420 2 40.0346 25.7076 -1.76329 40.0346 25.7076 -1.76329
421 1 40.972 24.0759 -0.109662 40.972 24.0759 -0.109662
422 2 42.8631 24.0908 1.53312 42.8631 24.0908 1.53312
423 2 42.8834 24.0609 -1.72886 42.8834 24.0609 -1.72886
424 1 43.8239 25.7224 -0.107089 43.8239 25.7224 -0.107089
425 2 45.719 25.7371 1.53117 45.719 25.7371 1.53117
426 2 45.7315 25.7078 -1.73087 45.7315 25.7078 -1.73087
427 1 46.6759 24.076 -0.081376 46.6759 24.076 -0.081376
428 2 48.5763 24.0903 1.55065 48.5763 24.0903 1.55065
429 2 48.5781 24.0616 -1.71141 48.5781 24.0616 -1.71141
430 1 49.5279 25.7225 -0.0943718 49.5279 25.7225 -0.0943718
431 2 51.4334 25.7371 1.5317 51.4334 25.7371 1.5317
432 2 51.425 25.7079 -1.73035 51.425 25.7079 -1.73035
433 1 1.04512 27.3691 -0.116571 1.04512 27.3691 -0.116571
434 2 2.95549 27.3838 1.50374 2.95549 27.3838 1.50374
435 2 2.93733 27.3544 -1.75827 2.93733 27.3544 -1.75827
436 1 3.89703 29.0156 -0.147465 3.89703 29.0156 -0.147465
437 2 5.81124 29.0299 1.4683 5.81124 29.0299 1.4683
438 2 5.78534 29.0013 -1.79366 5.78534 29.0013 -1.79366
439 1 6.74895 27.369 -0.155783 6.74895 27.369 -0.155783
440 2 8.66539 27.3841 1.45736 8.66539 27.3841 1.45736
441 2 8.63499 27.3539 -1.80454 8.63499 27.3539 -1.80454
442 1 9.60077 29.0155 -0.19777 9.60077 29.0155 -0.19777
443 2 11.5172 29.03 1.41546 11.5172 29.03 1.41546
444 2 11.4869 29.0011 -1.84646 11.4869 29.0011 -1.84646
445 1 12.4527 27.3689 -0.20972 12.4527 27.3689 -0.20972
446 2 14.3673 27.3841 1.40568 14.3673 27.3841 1.40568
447 2 14.3406 27.3537 -1.85625 14.3406 27.3537 -1.85625
448 1 15.3045 29.0154 -0.248486 15.3045 29.0154 -0.248486
449 2 17.2152 29.0295 1.37164 17.2152 29.0295 1.37164
450 2 17.1965 29.0013 -1.89036 17.1965 29.0013 -1.89036
451 1 18.1565 27.3689 -0.250553 18.1565 27.3689 -0.250553
452 2 20.0627 27.3836 1.37485 20.0627 27.3836 1.37485
453 2 20.053 27.3541 -1.88718 20.053 27.3541 -1.88718
454 1 21.0085 29.0154 -0.273983 21.0085 29.0154 -0.273983
455 2 22.909 29.0285 1.35805 22.909 29.0285 1.35805
456 2 22.9107 29.0022 -1.90402 22.9107 29.0022 -1.90402
457 1 23.8605 27.3688 -0.259189 23.8605 27.3688 -0.259189
458 2 25.7565 27.3828 1.37818 25.7565 27.3828 1.37818
459 2 25.7672 27.3548 -1.88386 25.7672 27.3548 -1.88386
460 1 26.7125 29.0154 -0.263923 26.7125 29.0154 -0.263923
461 2 28.6037 29.0274 1.37893 28.6037 29.0274 1.37893
462 2 28.6239 29.0033 -1.8831 28.6239 29.0033 -1.8831
463 1 29.5645 27.3688 -0.233953 29.5645 27.3688 -0.233953
464 2 31.4529 27.3823 1.41207 31.4529 27.3823 1.41207
465 2 31.4786 27.3553 -1.8499 31.4786 27.3553 -1.8499
466 1 32.4164 29.0154 -0.225089 32.4164 29.0154 -0.225089
467 2 34.3028 29.0269 1.42325 34.3028 29.0269 1.42325
468 2 34.3325 29.0038 -1.83872 34.3325 29.0038 -1.83872
469 1 35.2682 27.3688 -0.18737 35.2682 27.3688 -0.18737
470 2 37.1547 27.3823 1.4609 37.1547 27.3823 1.4609
471 2 37.1843 27.3554 -1.80104 37.1843 27.3554 -1.80104
472 1 38.1201 29.0154 -0.175078 38.1201 29.0154 -0.175078
473 2 40.0079 29.0273 1.47165 40.0079 29.0273 1.47165
474 2 40.0349 29.0036 -1.79034 40.0349 29.0036 -1.79034
475 1 40.972 27.3689 -0.139474 40.972 27.3689 -0.139474
476 2 42.8627 27.3827 1.50381 42.8627 27.3827 1.50381
477 2 42.8838 27.3551 -1.7582 42.8838 27.3551 -1.7582
478 1 43.8239 29.0155 -0.135011 43.8239 29.0155 -0.135011
479 2 45.7188 29.0283 1.5034 45.7188 29.0283 1.5034
480 2 45.7316 29.0028 -1.75867 45.7316 29.0028 -1.75867
481 1 46.6759 27.369 -0.111041 46.6759 27.369 -0.111041
482 2 48.5758 27.3833 1.52148 48.5758 27.3833 1.52148
483 2 48.5786 27.3548 -1.74058 48.5786 27.3548 -1.74058
484 1 49.5279 29.0156 -0.123188 49.5279 29.0156 -0.123188
485 2 51.4332 29.0293 1.50301 51.4332 29.0293 1.50301
486 2 51.4251 29.0019 -1.75906 51.4251 29.0019 -1.75906
487 1 1.04509 30.6621 -0.144283 1.04509 30.6621 -0.144283
488 2 2.95549 30.675 1.47596 2.95549 30.675 1.47596
489 2 2.93724 30.6493 -1.78608 2.93724 30.6493 -1.78608
490 1 3.89697 32.3087 -0.173392 3.89697 32.3087 -0.173392
491 2 5.81115 32.32 1.44241 5.81115 32.32 1.44241
492 2 5.7853 32.2974 -1.8196 5.7853 32.2974 -1.8196
493 1 6.74888 30.6621 -0.184754 6.74888 30.6621 -0.184754
494 2 8.6651 30.6753 1.42865 8.6651 30.6753 1.42865
495 2 8.63514 30.6489 -1.83329 8.63514 30.6489 -1.83329
496 1 9.6007 32.3086 -0.224435 9.6007 32.3086 -0.224435
497 2 11.5167 32.3198 1.38931 11.5167 32.3198 1.38931
498 2 11.4872 32.2975 -1.87266 11.4872 32.2975 -1.87266
499 1 12.4526 30.662 -0.239005 12.4526 30.662 -0.239005
500 2 14.3667 30.6749 1.37699 14.3667 30.6749 1.37699
501 2 14.3411 30.6492 -1.88499 14.3411 30.6492 -1.88499
502 1 15.3045 32.3086 -0.274535 15.3045 32.3086 -0.274535
503 2 17.2144 32.3189 1.34647 17.2144 32.3189 1.34647
504 2 17.1972 32.2982 -1.91559 17.1972 32.2982 -1.91559
505 1 18.1565 30.662 -0.279084 18.1565 30.662 -0.279084
506 2 20.0619 30.6739 1.34729 20.0619 30.6739 1.34729
507 2 20.0538 30.65 -1.91478 20.0538 30.65 -1.91478
508 1 21.0085 32.3085 -0.298243 21.0085 32.3085 -0.298243
509 2 22.908 32.3175 1.33501 22.908 32.3175 1.33501
510 2 22.9117 32.2995 -1.92711 22.9117 32.2995 -1.92711
511 1 23.8605 30.6619 -0.285852 23.8605 30.6619 -0.285852
512 2 25.7555 30.6725 1.35266 25.7555 30.6725 1.35266
513 2 25.7682 30.6513 -1.90942 25.7682 30.6513 -1.90942
514 1 26.7125 32.3085 -0.285443 26.7125 32.3085 -0.285443
515 2 28.6027 32.3159 1.35862 28.6027 32.3159 1.35862
516 2 28.625 32.3011 -1.90345 28.625 32.3011 -1.90345
517 1 29.5645 30.6619 -0.258457 29.5645 30.6619 -0.258457
518 2 31.4522 30.6714 1.38844 31.4522 30.6714 1.38844
519 2 31.4794 30.6525 -1.87357 31.4794 30.6525 -1.87357
520 1 32.4164 32.3085 -0.244237 32.4164 32.3085 -0.244237
521 2 34.3022 32.315 1.40474 34.3022 32.315 1.40474
522 2 34.3331 32.3021 -1.85727 34.3331 32.3021 -1.85727
523 1 35.2683 30.662 -0.210803 35.2683 30.662 -0.210803
524 2 37.1544 30.6712 1.43778 37.1544 30.6712 1.43778
525 2 37.1846 30.6527 -1.82422 37.1846 30.6527 -1.82422
526 1 38.1202 32.3086 -0.193812 38.1202 32.3086 -0.193812
527 2 40.008 32.3155 1.45277 40.008 32.3155 1.45277
528 2 40.0348 32.3016 -1.80928 40.0348 32.3016 -1.80928
529 1 40.972 30.662 -0.163501 40.972 30.662 -0.163501
530 2 42.8628 30.6722 1.47965 42.8628 30.6722 1.47965
531 2 42.8838 30.6518 -1.78241 42.8838 30.6518 -1.78241
532 1 43.8239 32.3086 -0.155621 43.8239 32.3086 -0.155621
533 2 45.7194 32.3172 1.48217 45.7194 32.3172 1.48217
534 2 45.7311 32.3 -1.77996 45.7311 32.3 -1.77996
535 1 46.6759 30.6621 -0.136826 46.6759 30.6621 -0.136826
536 2 48.5761 30.6738 1.49545 48.5761 30.6738 1.49545
537 2 48.5783 30.6504 -1.76667 48.5783 30.6504 -1.76667