ITEM: TIMESTEP
35000
ITEM: NUMBER OF ATOMS
810
ITEM: BOX BOUNDS pp pp pp
8.4280930354837580e-01 5.2174795696450516e+01
8.1135844561654025e-01 5.0204856554383191e+01
-1.0000000000000000e+01 1.0000000000000000e+01
ITEM: ATOMS id type x y z xu yu zu
1 1 1.04637 1.02561 -0.13002 1.04637 1.02561 -0.13002
2 2 2.95706 1.01475 1.48984 2.95706 1.01475 1.48984
3 2 2.93801 1.0365 -1.77222 2.93801 1.0365 -1.77222
4 1 3.89814 2.67208 -0.135768 3.89814 2.67208 -0.135768
5 2 5.80948 2.66086 1.48335 5.80948 2.66086 1.48335
6 2 5.78913 2.68331 -1.77869 5.78913 2.68331 -1.77869
7 1 6.74987 1.02568 -0.164973 6.74987 1.02568 -0.164973
8 2 8.66065 1.01417 1.45482 8.66065 1.01417 1.45482
9 2 8.64142 1.0372 -1.80723 8.64142 1.0372 -1.80723
10 1 9.60164 2.67213 -0.170166 9.60164 2.67213 -0.170166
11 2 11.5106 2.66027 1.45182 11.5106 2.66027 1.45182
12 2 11.495 2.684 -1.81025 11.495 2.684 -1.81025
13 1 12.4534 1.02572 -0.195748 12.4534 1.02572 -0.195748
14 2 14.3597 1.01361 1.42936 14.3597 1.01361 1.42936
15 2 14.3495 1.03781 -1.83272 14.3495 1.03781 -1.83272
16 1 15.3052 2.67214 -0.192394 15.3052 2.67214 -0.192394
17 2 17.2084 2.66011 1.43633 17.2084 2.66011 1.43633
18 2 17.2043 2.68415 -1.82576 17.2043 2.68415 -1.82576
19 1 18.157 1.02571 -0.208056 18.157 1.02571 -0.208056
20 2 20.0569 1.01334 1.42458 20.0569 1.01334 1.42458
21 2 20.0595 1.03803 -1.83751 20.0595 1.03803 -1.83751
22 1 21.0088 2.6721 -0.193162 21.0088 2.6721 -0.193162
23 2 22.906 2.66053 1.44263 22.906 2.66053 1.44263
24 2 22.914 2.68364 -1.81947 22.914 2.68364 -1.81947
25 1 23.8606 1.02565 -0.197763 23.8606 1.02565 -0.197763
26 2 25.7551 1.0135 1.44105 25.7551 1.0135 1.44105
27 2 25.7684 1.03776 -1.82102 25.7684 1.03776 -1.82102
28 1 26.7123 2.67204 -0.173809 26.7123 2.67204 -0.173809
29 2 28.6056 2.66126 1.46646 28.6056 2.66126 1.46646
30 2 28.6214 2.6828 -1.79562 28.6214 2.6828 -1.79562
31 1 29.5641 1.02558 -0.170882 29.5641 1.02558 -0.170882
32 2 31.4563 1.01405 1.47063 31.4563 1.01405 1.47063
33 2 31.4742 1.0371 -1.79142 31.4742 1.0371 -1.79142
34 1 32.4158 2.67199 -0.143469 32.4158 2.67199 -0.143469
35 2 34.3086 2.66206 1.49746 34.3086 2.66206 1.49746
36 2 34.3255 2.68191 -1.76462 34.3255 2.68191 -1.76462
37 1 35.2676 1.02554 -0.138694 35.2676 1.02554 -0.138694
38 2 37.161 1.01487 1.50144 37.161 1.01487 1.50144
39 2 37.1766 1.03621 -1.76064 37.1766 1.03621 -1.76064
40 1 38.1194 2.67196 -0.114229 38.1194 2.67196 -0.114229
41 2 40.0151 2.66268 1.52321 40.0151 2.66268 1.52321
42 2 40.026 2.68127 -1.7389 40.026 2.68127 -1.7389
43 1 40.9712 1.02552 -0.114057 40.9712 1.02552 -0.114057
44 2 42.8695 1.01543 1.52035 42.8695 1.01543 1.52035
45 2 42.8753 1.03564 -1.74177 42.8753 1.03564 -1.74177
46 1 43.823 2.67197 -0.0988006 43.823 2.67197 -0.0988006
47 2 45.7249 2.66258 1.53141 45.7249 2.66258 1.53141
48 2 45.7235 2.68139 -1.73071 45.7235 2.68139 -1.73071
49 1 46.6748 1.02555 -0.109575 46.6748 1.02555 -0.109575
50 2 48.5802 1.0153 1.51644 48.5802 1.0153 1.51644
51 2 48.5717 1.03583 -1.74567 48.5717 1.03583 -1.74567
52 1 49.5266 2.67201 -0.106733 49.5266 2.67201 -0.106733
53 2 51.4351 2.66175 1.5157 51.4351 2.66175 1.5157
54 2 51.4204 2.6823 -1.74638 51.4204 2.6823 -1.74638
55 1 1.04639 4.31848 -0.10924 1.04639 4.31848 -0.10924
56 2 2.95678 4.30825 1.511 2.95678 4.30825 1.511
57 2 2.93835 4.32874 -1.75106 2.93835 4.32874 -1.75106
58 1 3.89817 5.96495 -0.115053 3.89817 5.96495 -0.115053
59 2 5.80915 5.95504 1.50453 5.80915 5.95504 1.50453
60 2 5.78954 5.97489 -1.75754 5.78954 5.97489 -1.75754
61 1 6.74991 4.31854 -0.142257 6.74991 4.31854 -0.142257
62 2 8.66056 4.30736 1.47771 8.66056 4.30736 1.47771
63 2 8.64159 4.32974 -1.78434 8.64159 4.32974 -1.78434
64 1 9.60168 5.965 -0.147512 9.60168 5.965 -0.147512
65 2 11.5107 5.9545 1.47447 11.5107 5.9545 1.47447
66 2 11.4951 5.9755 -1.78761 11.4951 5.9755 -1.78761
67 1 12.4534 4.31857 -0.171726 12.4534 4.31857 -0.171726
68 2 14.3598 4.30713 1.45326 14.3598 4.30713 1.45326
69 2 14.3494 4.33001 -1.80883 14.3494 4.33001 -1.80883
70 1 15.3052 5.965 -0.169215 15.3052 5.965 -0.169215
71 2 17.2089 5.95498 1.45896 17.2089 5.95498 1.45896
72 2 17.2039 5.975 -1.80317 17.2039 5.975 -1.80317
73 1 18.157 4.31856 -0.183699 18.157 4.31856 -0.183699
74 2 20.0574 4.30768 1.44839 20.0574 4.30768 1.44839
75 2 20.059 4.3294 -1.81373 20.059 4.3294 -1.81373
76 1 21.0088 5.96496 -0.171144 21.0088 5.96496 -0.171144
77 2 22.9068 5.95627 1.46366 22.9068 5.95627 1.46366
78 2 22.9131 5.97363 -1.79848 22.9131 5.97363 -1.79848
79 1 23.8605 4.3185 -0.174343 23.8605 4.3185 -0.174343
80 2 25.7558 4.30874 1.46366 25.7558 4.30874 1.46366
81 2 25.7676 4.32824 -1.79845 25.7676 4.32824 -1.79845
82 1 26.7123 5.96491 -0.154032 26.7123 5.96491 -0.154032
83 2 28.6065 5.95765 1.48526 28.6065 5.95765 1.48526
84 2 28.6205 5.97217 -1.77687 28.6205 5.97217 -1.77687
85 1 29.5641 4.31845 -0.14905 29.5641 4.31845 -0.14905
86 2 31.4571 4.30972 1.49161 31.4571 4.30972 1.49161
87 2 31.4734 4.32717 -1.77049 31.4734 4.32717 -1.77049
88 1 32.4158 5.96488 -0.125784 32.4158 5.96488 -0.125784
89 2 34.3092 5.9585 1.51439 34.3092 5.9585 1.51439
90 2 34.3248 5.97126 -1.74774 34.3248 5.97126 -1.74774
91 1 35.2676 4.31842 -0.118575 35.2676 4.31842 -0.118575
92 2 37.1617 4.31039 1.5208 37.1617 4.31039 1.5208
93 2 37.1759 4.32645 -1.74132 37.1759 4.32645 -1.74132
94 1 38.1194 5.96487 -0.0979638 38.1194 5.96487 -0.0979638
95 2 40.0154 5.95867 1.53911 40.0154 5.95867 1.53911
96 2 40.0257 5.97109 -1.72304 40.0257 5.97109 -1.72304
97 1 40.9712 4.31841 -0.0952339 40.9712 4.31841 -0.0952339
98 2 42.8698 4.31042 1.53884 42.8698 4.31042 1.53884
99 2 42.875 4.32642 -1.72329 42.875 4.32642 -1.72329
100 1 43.823 5.96488 -0.0826165 43.823 5.96488 -0.0826165
101 2 45.7247 5.95792 1.54785 45.7247 5.95792 1.54785
102 2 45.7237 5.97186 -1.7143 45.7237 5.97186 -1.7143
103 1 46.6748 4.31843 -0.0905516 46.6748 4.31843 -0.0905516
104 2 48.5801 4.30954 1.53571 48.5801 4.30954 1.53571
105 2 48.5719 4.32735 -1.72641 48.5719 4.32735 -1.72641
106 1 49.5266 5.9649 -0.0887336 49.5266 5.9649 -0.0887336
107 2 51.4346 5.95641 1.53436 51.4346 5.95641 1.53436
108 2 51.421 5.97342 -1.72775 51.421 5.97342 -1.72775
109 1 1.04641 7.61138 -0.09206 1.04641 7.61138 -0.09206
110 2 2.95612 7.60342 1.52902 2.95612 7.60342 1.52902
111 2 2.93907 7.61937 -1.73308 2.93907 7.61937 -1.73308
112 1 3.8982 9.25786 -0.0989398 3.8982 9.25786 -0.0989398
113 2 5.80858 9.2508 1.52137 5.80858 9.2508 1.52137
114 2 5.79016 9.26493 -1.74074 5.79016 9.26493 -1.74074
115 1 6.74994 7.61142 -0.122176 6.74994 7.61142 -0.122176
116 2 8.66036 7.60235 1.49809 8.66036 7.60235 1.49809
117 2 8.64186 7.6205 -1.764 8.64186 7.6205 -1.764
118 1 9.60171 9.25789 -0.129139 9.60171 9.25789 -0.129139
119 2 11.5108 9.25042 1.49274 11.5108 9.25042 1.49274
120 2 11.495 9.26535 -1.76938 11.495 9.26535 -1.76938
121 1 12.4535 7.61144 -0.15046 12.4535 7.61144 -0.15046
122 2 14.3602 7.60252 1.47412 14.3602 7.60252 1.47412
123 2 14.349 7.62036 -1.788 14.349 7.62036 -1.788
124 1 15.3052 9.25789 -0.151129 15.3052 9.25789 -0.151129
125 2 17.2098 9.25148 1.47611 17.2098 9.25148 1.47611
126 2 17.2031 9.26428 -1.78605 17.2031 9.26428 -1.78605
127 1 18.157 7.61143 -0.163392 18.157 7.61143 -0.163392
128 2 20.0583 7.60382 1.46765 20.0583 7.60382 1.46765
129 2 20.0581 7.61901 -1.7945 20.0581 7.61901 -1.7945
130 1 21.0088 9.25786 -0.155727 21.0088 9.25786 -0.155727
131 2 22.908 9.2534 1.47771 22.908 9.2534 1.47771
132 2 22.9119 9.26229 -1.78447 22.9119 9.26229 -1.78447
133 1 23.8606 7.61139 -0.15673 23.8606 7.61139 -0.15673
134 2 25.7569 7.60558 1.48006 25.7569 7.60558 1.48006
135 2 25.7666 7.61717 -1.78209 25.7666 7.61717 -1.78209
136 1 26.7123 9.25782 -0.142267 26.7123 9.25782 -0.142267
137 2 28.6075 9.25517 1.4959 28.6075 9.25517 1.4959
138 2 28.6195 9.26047 -1.76626 28.6195 9.26047 -1.76626
139 1 29.5641 7.61135 -0.134322 29.5641 7.61135 -0.134322
140 2 31.4578 7.60685 1.50548 31.4578 7.60685 1.50548
141 2 31.4727 7.61585 -1.75666 31.4727 7.61585 -1.75666
142 1 32.4158 9.25781 -0.116658 32.4158 9.25781 -0.116658
143 2 34.3097 9.25593 1.52302 34.3097 9.25593 1.52302
144 2 34.3243 9.25969 -1.73913 34.3243 9.25969 -1.73913
145 1 35.2676 7.61133 -0.105649 35.2676 7.61133 -0.105649
146 2 37.162 7.60722 1.53332 37.162 7.60722 1.53332
147 2 37.1755 7.61547 -1.72882 37.1755 7.61547 -1.72882
148 1 38.1194 9.25781 -0.0896239 38.1194 9.25781 -0.0896239
149 2 40.0154 9.25561 1.54756 40.0154 9.25561 1.54756
150 2 40.0258 9.26002 -1.7146 40.0258 9.26002 -1.7146
151 1 40.9712 7.61134 -0.0826768 40.9712 7.61134 -0.0826768
152 2 42.8696 7.60666 1.55158 42.8696 7.60666 1.55158
153 2 42.8751 7.61603 -1.71058 42.8751 7.61603 -1.71058
154 1 43.823 9.25782 -0.0731643 43.823 9.25782 -0.0731643
155 2 45.7241 9.25434 1.55803 45.7241 9.25434 1.55803
156 2 45.7243 9.26131 -1.70414 45.7243 9.26131 -1.70414
157 1 46.6748 7.61135 -0.076479 46.6748 7.61135 -0.076479
158 2 48.5794 7.6052 1.55056 48.5794 7.6052 1.55056
159 2 48.5726 7.61753 -1.71159 48.5726 7.61753 -1.71159
160 1 49.5266 9.25783 -0.0763 49.5266 9.25783 -0.0763
161 2 51.4337 9.25243 1.54788 51.4337 9.25243 1.54788
162 2 51.4219 9.26325 -1.71426 51.4219 9.26325 -1.71426
163 1 1.04642 10.9043 -0.0811502 1.04642 10.9043 -0.0811502
164 2 2.9552 10.8999 1.54105 2.9552 10.8999 1.54105
165 2 2.94002 10.9088 -1.72109 2.94002 10.9088 -1.72109
166 1 3.89821 12.5508 -0.0899191 3.89821 12.5508 -0.0899191
167 2 5.80788 12.5477 1.53125 5.80788 12.5477 1.53125
168 2 5.7909 12.5539 -1.73089 5.7909 12.5539 -1.73089
169 1 6.74997 10.9043 -0.107891 6.74997 10.9043 -0.107891
170 2 8.66011 10.8988 1.51273 8.66011 10.8988 1.51273
171 2 8.64218 10.9099 -1.74938 8.64218 10.9099 -1.74938
172 1 9.60174 12.5508 -0.117901 9.60174 12.5508 -0.117901
173 2 11.511 12.5475 1.50377 11.511 12.5475 1.50377
174 2 11.4948 12.5541 -1.75837 11.4948 12.5541 -1.75837
175 1 12.4535 10.9043 -0.135326 12.4535 10.9043 -0.135326
176 2 14.3608 10.8993 1.4886 14.3608 10.8993 1.4886
177 2 14.3485 10.9094 -1.77355 14.3485 10.9094 -1.77355
178 1 15.3053 12.5508 -0.14095 15.3053 12.5508 -0.14095
179 2 17.2108 12.5489 1.48512 17.2108 12.5489 1.48512
180 2 17.2021 12.5527 -1.77706 17.2021 12.5527 -1.77706
181 1 18.157 10.9043 -0.15038 18.157 10.9043 -0.15038
182 2 20.0595 10.9011 1.4793 20.0595 10.9011 1.4793
183 2 20.0569 10.9075 -1.78288 20.0569 10.9075 -1.78288
184 1 21.0088 12.5508 -0.149248 21.0088 12.5508 -0.149248
185 2 22.9094 12.5511 1.48266 22.9094 12.5511 1.48266
186 2 22.9106 12.5504 -1.77953 22.9106 12.5504 -1.77953
187 1 23.8606 10.9043 -0.147683 23.8606 10.9043 -0.147683
188 2 25.7581 10.9033 1.48772 25.7581 10.9033 1.48772
189 2 25.7654 10.9053 -1.77447 25.7654 10.9053 -1.77447
190 1 26.7123 12.5508 -0.140165 26.7123 12.5508 -0.140165
191 2 28.6084 12.553 1.49692 28.6084 12.553 1.49692
192 2 28.6186 12.5485 -1.76525 28.6186 12.5485 -1.76525
193 1 29.5641 10.9043 -0.12894 29.5641 10.9043 -0.12894
194 2 31.4585 10.9046 1.51011 31.4585 10.9046 1.51011
195 2 31.472 10.904 -1.75205 31.472 10.904 -1.75205
196 1 32.4159 12.5507 -0.117288 32.4159 12.5507 -0.117288
197 2 34.3099 12.5535 1.52219 34.3099 12.5535 1.52219
198 2 34.3242 12.548 -1.73996 34.3242 12.548 -1.73996
199 1 35.2676 10.9043 -0.101853 35.2676 10.9043 -0.101853
200 2 37.162 10.9046 1.53713 37.162 10.9046 1.53713
201 2 37.1755 10.9039 -1.72502 37.1755 10.9039 -1.72502
202 1 38.1194 12.5508 -0.0903331 38.1194 12.5508 -0.0903331
203 2 40.0149 12.5528 1.54739 40.0149 12.5528 1.54739
204 2 40.0262 12.5487 -1.71477 40.0262 12.5487 -1.71477
205 1 40.9712 10.9043 -0.0782364 40.9712 10.9043 -0.0782364
206 2 42.8691 10.9036 1.55667 42.8691 10.9036 1.55667
207 2 42.8756 10.905 -1.70551 42.8756 10.905 -1.70551
208 1 43.823 12.5508 -0.0718191 43.823 12.5508 -0.0718191
209 2 45.7232 12.5513 1.56045 45.7232 12.5513 1.56045
210 2 45.7252 12.5503 -1.70173 45.7252 12.5503 -1.70173
211 1 46.6748 10.9043 -0.0694704 46.6748 10.9043 -0.0694704
212 2 48.5785 10.9018 1.5587 48.5785 10.9018 1.5587
213 2 48.5735 10.9068 -1.70347 48.5735 10.9068 -1.70347
214 1 49.5266 12.5508 -0.0713238 49.5266 12.5508 -0.0713238
215 2 51.4326 12.5493 1.55418 51.4326 12.5493 1.55418
216 2 51.423 12.5523 -1.70799 51.423 12.5523 -1.70799
217 1 1.04643 14.1973 -0.0781855 1.04643 14.1973 -0.0781855
218 2 2.95419 14.197 1.54522 2.95419 14.197 1.54522
219 2 2.94106 14.1975 -1.71693 2.94106 14.1975 -1.71693
220 1 3.89822 15.8438 -0.0893925 3.89822 15.8438 -0.0893925
221 2 5.80717 15.8451 1.53262 5.80717 15.8451 1.53262
222 2 5.79163 15.8424 -1.72953 5.79163 15.8424 -1.72953
223 1 6.74999 14.1973 -0.101593 6.74999 14.1973 -0.101593
224 2 8.65984 14.1961 1.51938 8.65984 14.1961 1.51938
225 2 8.64249 14.1984 -1.74276 8.64249 14.1984 -1.74276
226 1 9.60176 15.8438 -0.115523 9.60176 15.8438 -0.115523
227 2 11.5112 15.8451 1.50588 11.5112 15.8451 1.50588
228 2 11.4946 15.8424 -1.75626 11.4946 15.8424 -1.75626
229 1 12.4535 14.1973 -0.128628 12.4535 14.1973 -0.128628
230 2 14.3615 14.1969 1.4945 14.3615 14.1969 1.4945
231 2 14.3478 14.1977 -1.76766 14.3478 14.1977 -1.76766
232 1 15.3053 15.8437 -0.140128 15.3053 15.8437 -0.140128
233 2 17.2118 15.8466 1.48475 17.2118 15.8466 1.48475
234 2 17.2011 15.8409 -1.77742 17.2011 15.8409 -1.77742
235 1 18.157 14.1973 -0.14656 18.157 14.1973 -0.14656
236 2 20.0607 14.1989 1.48167 20.0607 14.1989 1.48167
237 2 20.0557 14.1956 -1.78051 20.0557 14.1956 -1.78051
238 1 21.0088 15.8437 -0.152441 21.0088 15.8437 -0.152441
239 2 22.9106 15.8486 1.47806 22.9106 15.8486 1.47806
240 2 22.9094 15.8388 -1.78412 22.9094 15.8388 -1.78412
241 1 23.8606 14.1972 -0.148357 23.8606 14.1972 -0.148357
242 2 25.7593 14.2009 1.4857 25.7593 14.2009 1.4857
243 2 25.7642 14.1935 -1.77648 25.7642 14.1935 -1.77648
244 1 26.7124 15.8437 -0.147655 26.7124 15.8437 -0.147655
245 2 28.6092 15.8502 1.48854 28.6092 15.8502 1.48854
246 2 28.6179 15.8372 -1.77361 28.6179 15.8372 -1.77361
247 1 29.5641 14.1972 -0.133392 29.5641 14.1972 -0.133392
248 2 31.459 14.2021 1.50512 31.459 14.2021 1.50512
249 2 31.4716 14.1923 -1.75703 31.4716 14.1923 -1.75703
250 1 32.4159 15.8437 -0.127166 32.4159 15.8437 -0.127166
251 2 34.3098 15.8505 1.51239 34.3098 15.8505 1.51239
252 2 34.3243 15.8368 -1.74974 34.3243 15.8368 -1.74974
253 1 35.2676 14.1972 -0.107486 35.2676 14.1972 -0.107486
254 2 37.1617 14.2019 1.53187 37.1617 14.2019 1.53187
255 2 37.1759 14.1926 -1.73027 37.1759 14.1926 -1.73027
256 1 38.1194 15.8437 -0.0997577 38.1194 15.8437 -0.0997577
257 2 40.0142 15.8497 1.53877 40.0142 15.8497 1.53877
258 2 40.027 15.8377 -1.72337 40.027 15.8377 -1.72337
259 1 40.9712 14.1972 -0.0824698 40.9712 14.1972 -0.0824698
260 2 42.8683 14.2007 1.55339 42.8683 14.2007 1.55339
261 2 42.8765 14.1938 -1.70878 42.8765 14.1938 -1.70878
262 1 43.823 15.8437 -0.0787547 43.823 15.8437 -0.0787547
263 2 45.7221 15.8482 1.55471 45.7221 15.8482 1.55471
264 2 45.7262 15.8392 -1.70745 45.7262 15.8392 -1.70745
265 1 46.6748 14.1973 -0.0705874 46.6748 14.1973 -0.0705874
266 2 48.5774 14.1989 1.5589 48.5774 14.1989 1.5589
267 2 48.5746 14.1957 -1.70328 48.5746 14.1957 -1.70328
268 1 49.5266 15.8437 -0.074594 49.5266 15.8437 -0.074594
269 2 51.4314 15.8465 1.55224 51.4314 15.8465 1.55224
270 2 51.4242 15.841 -1.70993 51.4242 15.841 -1.70993
271 1 1.04642 17.4902 -0.083696 1.04642 17.4902 -0.083696
272 2 2.95323 17.4943 1.54083 2.95323 17.4943 1.54083
273 2 2.94201 17.4862 -1.72133 2.94201 17.4862 -1.72133
274 1 3.89822 19.1367 -0.0976003 3.89822 19.1367 -0.0976003
275 2 5.80657 19.1424 1.5251 5.80657 19.1424 1.5251
276 2 5.79223 19.131 -1.73704 5.79223 19.131 -1.73704
277 1 6.75 17.4902 -0.104326 6.75 17.4902 -0.104326
278 2 8.65959 17.4937 1.51693 8.65959 17.4937 1.51693
279 2 8.64276 17.4868 -1.7452 8.64276 17.4868 -1.7452
280 1 9.60176 19.1367 -0.122501 9.60176 19.1367 -0.122501
281 2 11.5114 19.1426 1.49866 11.5114 19.1426 1.49866
282 2 11.4944 19.1308 -1.76346 11.4944 19.1308 -1.76346
283 1 12.4535 17.4902 -0.131378 12.4535 17.4902 -0.131378
284 2 14.3622 17.4945 1.49099 14.3622 17.4945 1.49099
285 2 14.3472 17.4859 -1.77116 14.3472 17.4859 -1.77116
286 1 15.3053 19.1367 -0.148724 15.3053 19.1367 -0.148724
287 2 17.2126 19.1438 1.47517 17.2126 19.1438 1.47517
288 2 17.2003 19.1295 -1.78696 17.2003 19.1295 -1.78696
289 1 18.157 17.4902 -0.152303 18.157 17.4902 -0.152303
290 2 20.0618 17.4962 1.47465 20.0618 17.4962 1.47465
291 2 20.0546 17.4842 -1.78751 20.0546 17.4842 -1.78751
292 1 21.0088 19.1366 -0.164557 21.0088 19.1366 -0.164557
293 2 22.9115 19.1452 1.46487 22.9115 19.1452 1.46487
294 2 22.9085 19.1279 -1.79727 22.9085 19.1279 -1.79727
295 1 23.8606 17.4901 -0.158293 23.8606 17.4901 -0.158293
296 2 25.7602 17.4978 1.47468 25.7602 17.4978 1.47468
297 2 25.7633 17.4824 -1.78747 25.7633 17.4824 -1.78747
298 1 26.7124 19.1366 -0.163242 26.7124 19.1366 -0.163242
299 2 28.6097 19.1463 1.4724 28.6097 19.1463 1.4724
300 2 28.6174 19.1269 -1.78973 28.6174 19.1269 -1.78973
301 1 29.5641 17.4901 -0.146557 29.5641 17.4901 -0.146557
302 2 31.4592 17.4987 1.49167 31.4592 17.4987 1.49167
303 2 31.4714 17.4816 -1.77045 31.4714 17.4816 -1.77045
304 1 32.4159 19.1366 -0.14445 32.4159 19.1366 -0.14445
305 2 34.3096 19.1464 1.49537 34.3096 19.1464 1.49537
306 2 34.3246 19.1268 -1.76672 34.3246 19.1268 -1.76672
307 1 35.2677 17.4901 -0.121359 35.2677 17.4901 -0.121359
308 2 37.1613 17.4983 1.51857 37.1613 17.4983 1.51857
309 2 37.1764 17.482 -1.74353 37.1764 17.482 -1.74353
310 1 38.1194 19.1366 -0.11631 38.1194 19.1366 -0.11631
311 2 40.0135 19.1456 1.52309 40.0135 19.1456 1.52309
312 2 40.0277 19.1276 -1.73901 40.0277 19.1276 -1.73901
313 1 40.9712 17.4902 -0.0946415 40.9712 17.4902 -0.0946415
314 2 42.8674 17.4972 1.54227 42.8674 17.4972 1.54227
315 2 42.8774 17.4832 -1.71987 42.8774 17.4832 -1.71987
316 1 43.823 19.1366 -0.0929593 43.823 19.1366 -0.0929593
317 2 45.7212 19.1445 1.54163 45.7212 19.1445 1.54163
318 2 45.7272 19.1288 -1.72051 45.7272 19.1288 -1.72051
319 1 46.6748 17.4902 -0.0797133 46.6748 17.4902 -0.0797133
320 2 48.5763 17.4957 1.55104 48.5763 17.4957 1.55104
321 2 48.5757 17.4847 -1.71112 48.5757 17.4847 -1.71112
322 1 49.5266 19.1367 -0.0857469 49.5266 19.1367 -0.0857469
323 2 51.4305 19.1433 1.54222 51.4305 19.1433 1.54222
324 2 51.4252 19.1301 -1.71993 51.4252 19.1301 -1.71993
325 1 1.04642 20.7831 -0.0970529 1.04642 20.7831 -0.0970529
326 2 2.95249 20.791 1.5283 2.95249 20.791 1.5283
327 2 2.94273 20.7753 -1.73383 2.94273 20.7753 -1.73383
328 1 3.89821 22.4296 -0.113575 3.89821 22.4296 -0.113575
329 2 5.80617 22.439 1.50956 5.80617 22.439 1.50956
330 2 5.79261 22.4202 -1.75255 5.79261 22.4202 -1.75255
331 1 6.74999 20.7832 -0.115926 6.74999 20.7832 -0.115926
332 2 8.65939 20.7909 1.50554 8.65939 20.7909 1.50554
333 2 8.64295 20.7755 -1.75657 8.64295 20.7755 -1.75657
334 1 9.60175 22.4296 -0.138076 9.60175 22.4296 -0.138076
335 2 11.5115 22.4393 1.48295 11.5115 22.4393 1.48295
336 2 11.4943 22.4199 -1.77913 11.4943 22.4199 -1.77913
337 1 12.4535 20.7831 -0.143297 12.4535 20.7831 -0.143297
338 2 14.3626 20.7915 1.47852 14.3626 20.7915 1.47852
339 2 14.3467 20.7748 -1.78359 14.3467 20.7748 -1.78359
340 1 15.3053 22.4296 -0.165571 15.3053 22.4296 -0.165571
341 2 17.2131 22.4399 1.45778 17.2131 22.4399 1.45778
342 2 17.1998 22.4192 -1.80432 17.1998 22.4192 -1.80432
343 1 18.157 20.7831 -0.166648 18.157 20.7831 -0.166648
344 2 20.0626 20.7926 1.45942 20.0626 20.7926 1.45942
345 2 20.0539 20.7736 -1.80271 20.0539 20.7736 -1.80271
346 1 21.0088 22.4295 -0.183736 21.0088 22.4295 -0.183736
347 2 22.9119 22.4406 1.44515 22.9119 22.4406 1.44515
348 2 22.9081 22.4184 -1.81696 22.9081 22.4184 -1.81696
349 1 23.8606 20.783 -0.175769 23.8606 20.783 -0.175769
350 2 25.7608 20.7935 1.45656 25.7608 20.7935 1.45656
351 2 25.7628 20.7725 -1.80556 25.7628 20.7725 -1.80556
352 1 26.7124 22.4294 -0.184502 26.7124 22.4294 -0.184502
353 2 28.6098 22.4409 1.451 28.6098 22.4409 1.451
354 2 28.6173 22.418 -1.81109 28.6173 22.418 -1.81109
355 1 29.5642 20.783 -0.166208 29.5642 20.783 -0.166208
356 2 31.4592 20.7939 1.47201 31.4592 20.7939 1.47201
357 2 31.4714 20.7721 -1.79008 31.4714 20.7721 -1.79008
358 1 32.4159 22.4294 -0.166464 32.4159 22.4294 -0.166464
359 2 34.3092 22.4407 1.4738 34.3092 22.4407 1.4738
360 2 34.325 22.4182 -1.78828 34.325 22.4182 -1.78828
361 1 35.2677 20.783 -0.141212 35.2677 20.783 -0.141212
362 2 37.1607 20.7935 1.49938 37.1607 20.7935 1.49938
363 2 37.177 20.7726 -1.7627 37.177 20.7726 -1.7627
364 1 38.1194 22.4295 -0.137468 38.1194 22.4295 -0.137468
365 2 40.0128 22.4402 1.50274 40.0128 22.4402 1.50274
366 2 40.0285 22.4188 -1.75934 40.0285 22.4188 -1.75934
367 1 40.9712 20.7831 -0.112906 40.9712 20.7831 -0.112906
368 2 42.8666 20.7927 1.52497 42.8666 20.7927 1.52497
369 2 42.8782 20.7735 -1.73714 42.8782 20.7735 -1.73714
370 1 43.823 22.4295 -0.112362 43.823 22.4295 -0.112362
371 2 45.7204 22.4396 1.52309 45.7204 22.4396 1.52309
372 2 45.728 22.4195 -1.73903 45.728 22.4195 -1.73903
373 1 46.6748 20.7831 -0.0955953 46.6748 20.7831 -0.0955953
374 2 48.5754 20.7918 1.53618 48.5754 20.7918 1.53618
375 2 48.5766 20.7745 -1.72596 48.5766 20.7745 -1.72596
376 1 49.5266 22.4296 -0.103278 49.5266 22.4296 -0.103278
377 2 51.4298 22.4392 1.52546 51.4298 22.4392 1.52546
378 2 51.4258 22.42 -1.73667 51.4258 22.42 -1.73667
379 1 1.0464 24.076 -0.116432 1.0464 24.076 -0.116432
380 2 2.95209 24.0867 1.50935 2.95209 24.0867 1.50935
381 2 2.94311 24.0654 -1.75275 2.94311 24.0654 -1.75275
382 1 3.89819 25.7225 -0.13505 3.89819 25.7225 -0.13505
383 2 5.80602 25.7341 1.4882 5.80602 25.7341 1.4882
384 2 5.79272 25.7109 -1.77387 5.79272 25.7109 -1.77387
385 1 6.74997 24.076 -0.134939 6.74997 24.076 -0.134939
386 2 8.65925 24.0869 1.48664 8.65925 24.0869 1.48664
387 2 8.64305 24.0651 -1.77543 8.64305 24.0651 -1.77543
388 1 9.60172 25.7225 -0.160145 9.60172 25.7225 -0.160145
389 2 11.5114 25.7345 1.46093 11.5114 25.7345 1.46093
390 2 11.4944 25.7104 -1.80112 11.4944 25.7104 -1.80112
391 1 12.4535 24.076 -0.162874 12.4535 24.076 -0.162874
392 2 14.3627 24.0873 1.45876 14.3627 24.0873 1.45876
393 2 14.3466 24.0647 -1.80331 14.3466 24.0647 -1.80331
394 1 15.3052 25.7224 -0.188375 15.3052 25.7224 -0.188375
395 2 17.213 25.7345 1.435 17.213 25.7345 1.435
396 2 17.1998 25.7103 -1.82707 17.1998 25.7103 -1.82707
397 1 18.157 24.076 -0.187592 18.157 24.076 -0.187592
398 2 20.0628 24.0876 1.43818 20.0628 24.0876 1.43818
399 2 20.0537 24.0643 -1.82391 20.0537 24.0643 -1.82391
400 1 21.0088 25.7223 -0.207289 21.0088 25.7223 -0.207289
401 2 22.9118 25.7343 1.42172 22.9118 25.7343 1.42172
402 2 22.9082 25.7104 -1.84038 22.9082 25.7104 -1.84038
403 1 23.8606 24.0759 -0.198243 23.8606 24.0759 -0.198243
404 2 25.7608 24.0877 1.43401 25.7608 24.0877 1.43401
405 2 25.7628 24.0641 -1.82809 25.7628 24.0641 -1.82809
406 1 26.7124 25.7223 -0.208398 26.7124 25.7223 -0.208398
407 2 28.6095 25.7338 1.42749 28.6095 25.7338 1.42749
408 2 28.6177 25.7107 -1.8346 28.6177 25.7107 -1.8346
409 1 29.5642 24.0759 -0.189451 29.5642 24.0759 -0.189451
410 2 31.459 24.0875 1.44909 31.459 24.0875 1.44909
411 2 31.4717 24.0643 -1.81299 31.4717 24.0643 -1.81299
412 1 32.416 25.7223 -0.189958 32.416 25.7223 -0.189958
413 2 34.3087 25.7333 1.45091 34.3087 25.7333 1.45091
414 2 34.3255 25.7113 -1.81116 34.3255 25.7113 -1.81116
415 1 35.2677 24.0759 -0.164061 35.2677 24.0759 -0.164061
416 2 37.1601 24.087 1.4772 37.1601 24.087 1.4772
417 2 37.1776 24.0648 -1.78487 37.1776 24.0648 -1.78487
418 1 38.1195 25.7223 -0.159992 38.1195 25.7223 -0.159992
419 2 40.0122 25.733 1.48088 40.0122 25.733 1.48088
420 2 40.0291 25.7118 -1.7812 40.0291 25.7118 -1.7812
421 1 40.9712 24.0759 -0.134511 40.9712 24.0759 -0.134511
422 2 42.8659 24.0866 1.50409 42.8659 24.0866 1.50409
423 2 42.8789 24.0653 -1.758 42.8789 24.0653 -1.758
424 1 43.823 25.7224 -0.133964 43.823 25.7224 -0.133964
425 2 45.72 25.733 1.50196 45.72 25.733 1.50196
426 2 45.7284 25.7118 -1.76015 45.7284 25.7118 -1.76015
427 1 46.6748 24.076 -0.115916 46.6748 24.076 -0.115916
428 2 48.5748 24.0865 1.51646 48.5748 24.0865 1.51646
429 2 48.5771 24.0655 -1.74566 48.5771 24.0655 -1.74566
430 1 49.5266 25.7225 -0.124554 49.5266 25.7225 -0.124554
431 2 51.4295 25.7335 1.50446 51.4295 25.7335 1.50446
432 2 51.4261 25.7114 -1.75765 51.4261 25.7114 -1.75765
433 1 1.04639 27.3689 -0.13877 1.04639 27.3689 -0.13877
434 2 2.95209 27.3804 1.48696 2.95209 27.3804 1.48696
435 2 2.94307 27.3574 -1.77513 2.94307 27.3574 -1.77513
436 1 3.89816 29.0153 -0.158394 3.89816 29.0153 -0.158394
437 2 5.80615 29.0271 1.46464 5.80615 29.0271 1.46464
438 2 5.79252 29.0036 -1.79743 5.79252 29.0036 -1.79743
439 1 6.74994 27.3689 -0.158486 6.74994 27.3689 -0.158486
440 2 8.65917 27.3812 1.46311 8.65917 27.3812 1.46311
441 2 8.64306 27.3566 -1.79894 8.64306 27.3566 -1.79894
442 1 9.60168 29.0153 -0.185099 9.60168 29.0153 -0.185099
443 2 11.5112 29.0276 1.43617 11.5112 29.0276 1.43617
444 2 11.4945 29.003 -1.82588 11.4945 29.003 -1.82588
445 1 12.4535 27.3689 -0.187262 12.4535 27.3689 -0.187262
446 2 14.3625 27.3813 1.43461 14.3625 27.3813 1.43461
447 2 14.3468 27.3564 -1.82744 14.3468 27.3564 -1.82744
448 1 15.3052 29.0153 -0.213616 15.3052 29.0153 -0.213616
449 2 17.2125 29.0272 1.41035 17.2125 29.0272 1.41035
450 2 17.2003 29.0033 -1.85172 17.2003 29.0033 -1.85172
451 1 18.157 27.3688 -0.212157 18.157 27.3688 -0.212157
452 2 20.0624 27.3808 1.41401 20.0624 27.3808 1.41401
453 2 20.054 27.3568 -1.84808 20.054 27.3568 -1.84808
454 1 21.0088 29.0152 -0.231691 21.0088 29.0152 -0.231691
455 2 22.9111 29.0261 1.39813 22.9111 29.0261 1.39813
456 2 22.9089 29.0043 -1.86398 22.9089 29.0043 -1.86398
457 1 23.8606 27.3688 -0.2225 23.8606 27.3688 -0.2225
458 2 25.7603 27.38 1.41033 25.7603 27.38 1.41033
459 2 25.7633 27.3574 -1.85178 25.7633 27.3574 -1.85178
460 1 26.7124 29.0152 -0.231324 26.7124 29.0152 -0.231324
461 2 28.6087 29.0249 1.40546 28.6087 29.0249 1.40546
462 2 28.6185 29.0054 -1.85665 28.6185 29.0054 -1.85665
463 1 29.5642 27.3687 -0.21287 29.5642 27.3687 -0.21287
464 2 31.4584 27.3792 1.42637 31.4584 27.3792 1.42637
465 2 31.4724 27.3582 -1.83572 31.4724 27.3582 -1.83572
466 1 32.416 29.0152 -0.211248 32.416 29.0152 -0.211248
467 2 34.3081 29.0241 1.43039 34.3081 29.0241 1.43039
468 2 34.3262 29.0063 -1.8317 34.3262 29.0063 -1.8317
469 1 35.2677 27.3688 -0.186382 35.2677 27.3688 -0.186382
470 2 37.1596 27.3787 1.45553 37.1596 27.3787 1.45553
471 2 37.1782 27.3588 -1.80654 37.1782 27.3588 -1.80654
472 1 38.1195 29.0152 -0.180162 38.1195 29.0152 -0.180162
473 2 40.0118 29.0239 1.46117 40.0118 29.0239 1.46117
474 2 40.0295 29.0066 -1.80092 40.0295 29.0066 -1.80092
475 1 40.9712 27.3688 -0.155986 40.9712 27.3688 -0.155986
476 2 42.8655 27.3787 1.48304 42.8655 27.3787 1.48304
477 2 42.8793 27.3589 -1.77906 42.8793 27.3589 -1.77906
478 1 43.823 29.0153 -0.154062 43.823 29.0153 -0.154062
479 2 45.72 29.0245 1.48189 45.72 29.0245 1.48189
480 2 45.7284 29.0061 -1.78023 45.7284 29.0061 -1.78023
481 1 46.6748 27.3689 -0.137385 46.6748 27.3689 -0.137385
482 2 48.5747 27.3794 1.4951 48.5747 27.3794 1.4951
483 2 48.5773 27.3583 -1.76702 48.5773 27.3583 -1.76702
484 1 49.5266 29.0153 -0.145904 49.5266 29.0153 -0.145904
485 2 51.4297 29.0258 1.48284 51.4297 29.0258 1.48284
486 2 51.4258 29.0049 -1.77928 51.4258 29.0049 -1.77928
487 1 1.04637 30.6618 -0.159957 1.04637 30.6618 -0.159957
488 2 2.9525 30.672 1.46525 2.9525 30.672 1.46525
489 2 2.9426 30.6516 -1.79686 2.9426 30.6516 -1.79686
490 1 3.89812 32.3082 -0.179058 3.89812 32.3082 -0.179058
491 2 5.80657 32.3177 1.44342 5.80657 32.3177 1.44342
492 2 5.79202 32.2987 -1.81868 5.79202 32.2987 -1.81868
493 1 6.7499 30.6618 -0.182289 6.7499 30.6618 -0.182289
494 2 8.65922 30.6731 1.43919 8.65922 30.6731 1.43919
495 2 8.64293 30.6504 -1.82288 8.64293 30.6504 -1.82288
496 1 9.60163 32.3082 -0.208139 9.60163 32.3082 -0.208139
497 2 11.511 32.3183 1.41334 11.511 32.3183 1.41334
498 2 11.4947 32.298 -1.84874 11.4947 32.298 -1.84874
499 1 12.4534 30.6617 -0.212216 12.4534 30.6617 -0.212216
500 2 14.362 30.6731 1.41021 14.362 30.6731 1.41021
501 2 14.3472 30.6503 -1.85186 14.3472 30.6503 -1.85186
502 1 15.3052 32.3081 -0.236678 15.3052 32.3081 -0.236678
503 2 17.2116 32.3175 1.38826 17.2116 32.3175 1.38826
504 2 17.2011 32.2987 -1.87385 17.2011 32.2987 -1.87385
505 1 18.157 30.6617 -0.236317 18.157 30.6617 -0.236317
506 2 20.0615 30.672 1.39085 20.0615 30.672 1.39085
507 2 20.0548 30.6513 -1.87126 20.0548 30.6513 -1.87126
508 1 21.0088 32.3081 -0.252655 21.0088 32.3081 -0.252655
509 2 22.9099 32.3159 1.37851 22.9099 32.3159 1.37851
510 2 22.9101 32.3003 -1.88363 22.9101 32.3003 -1.88363
511 1 23.8606 30.6616 -0.244633 23.8606 30.6616 -0.244633
512 2 25.7593 30.6705 1.38935 25.7593 30.6705 1.38935
513 2 25.7643 30.6528 -1.87278 25.7643 30.6528 -1.87278
514 1 26.7124 32.3081 -0.249256 26.7124 32.3081 -0.249256
515 2 28.6076 32.3142 1.3888 28.6076 32.3142 1.3888
516 2 28.6196 32.302 -1.87334 28.6196 32.302 -1.87334
517 1 29.5642 30.6616 -0.232632 29.5642 30.6616 -0.232632
518 2 31.4575 30.6692 1.4076 31.4575 30.6692 1.4076
519 2 31.4732 30.6541 -1.85451 31.4732 30.6541 -1.85451
520 1 32.416 32.3081 -0.226547 32.416 32.3081 -0.226547
521 2 34.3074 32.3131 1.4159 34.3074 32.3131 1.4159
522 2 34.3269 32.3031 -1.84621 34.3269 32.3031 -1.84621
523 1 35.2677 30.6616 -0.204378 35.2677 30.6616 -0.204378
524 2 37.1591 30.6686 1.43813 37.1591 30.6686 1.43813
525 2 37.1787 30.6547 -1.82397 37.1787 30.6547 -1.82397
526 1 38.1195 32.3081 -0.194258 38.1195 32.3081 -0.194258
527 2 40.0116 32.3131 1.44729 40.0116 32.3131 1.44729
528 2 40.0297 32.3031 -1.81483 40.0297 32.3031 -1.81483
529 1 40.9712 30.6617 -0.173498 40.9712 30.6617 -0.173498
530 2 42.8655 30.669 1.46561 42.8655 30.669 1.46561
531 2 42.8794 30.6544 -1.79652 42.8794 30.6544 -1.79652
532 1 43.823 32.3082 -0.168806 43.823 32.3082 -0.168806
533 2 45.7203 32.3142 1.46674 45.7203 32.3142 1.46674
534 2 45.7281 32.3022 -1.79542 45.7281 32.3022 -1.79542
535 1 46.6748 30.6617 -0.156054 46.6748 30.6617 -0.156054
536 2 48.575 30.6703 1.47602 48.575 30.6703 1.47602
537 2 48.5769 30.6532 -1.78612 48.5769 30.6532 -1.78612
538 1 49.5266 32.3082 -0.163169 49.5266 32.3082 -0.163169