ITEM: TIMESTEP
60000
ITEM: NUMBER OF ATOMS
810
ITEM: BOX BOUNDS pp pp pp
8.5645135213068713e-01 5.2161153647867778e+01
8.2769103547560618e-01 5.0188523964523910e+01
-1.0000000000000000e+01 1.0000000000000000e+01
ITEM: ATOMS id type x y z xu yu zu
1 1 1.06328 1.04687 -0.492744 1.06328 1.04687 -0.492744
2 2 2.90719 0.949597 1.20075 2.90719 0.949597 1.20075
3 2 3.01983 1.14392 -2.05366 3.01983 1.14392 -2.05366
4 1 3.9125 2.68967 -0.294996 3.9125 2.68967 -0.294996
5 2 5.74063 2.59525 1.4155 5.74063 2.59525 1.4155
6 2 5.88307 2.78376 -1.83815 5.88307 2.78376 -1.83815
7 1 6.76266 1.04469 -0.265224 6.76266 1.04469 -0.265224
8 2 8.57923 0.952361 1.45761 8.57923 0.952361 1.45761
9 2 8.74386 1.13618 -1.79522 8.74386 1.13618 -1.79522
10 1 9.60986 2.6869 -0.0274951 9.60986 2.6869 -0.0274951
11 2 11.4315 2.59888 1.69006 11.4315 2.59888 1.69006
12 2 11.5865 2.77426 -1.56369 11.5865 2.77426 -1.56369
13 1 12.4596 1.04128 0.0195207 12.4596 1.04128 0.0195207
14 2 14.2895 0.955069 1.72819 14.2895 0.955069 1.72819
15 2 14.4289 1.12652 -1.5265 14.4289 1.12652 -1.5265
16 1 15.3085 2.68384 0.228421 15.3085 2.68384 0.228421
17 2 17.1612 2.60247 1.91264 17.1612 2.60247 1.91264
18 2 17.2572 2.76452 -1.34401 17.2572 2.76452 -1.34401
19 1 18.1601 1.03823 0.230214 18.1601 1.03823 0.230214
20 2 20.0351 0.955892 1.88925 20.0351 0.955892 1.88925
21 2 20.0875 1.11969 -1.36838 20.0875 1.11969 -1.36838
22 1 21.012 2.68166 0.358596 21.012 2.68166 0.358596
23 2 22.9165 2.60344 1.98411 22.9165 2.60344 1.98411
24 2 22.9108 2.75928 -1.27421 22.9108 2.75928 -1.27421
25 1 23.8645 1.03654 0.274396 23.8645 1.03654 0.274396
26 2 25.7948 0.953665 1.86868 25.7948 0.953665 1.86868
27 2 25.7366 1.11887 -1.38876 25.7366 1.11887 -1.38876
28 1 26.7168 2.68097 0.306515 26.7168 2.68097 0.306515
29 2 28.6714 2.60094 1.87128 28.6714 2.60094 1.87128
30 2 28.5634 2.76084 -1.38508 28.5634 2.76084 -1.38508
31 1 29.5671 1.03689 0.130676 29.5671 1.03689 0.130676
32 2 31.5396 0.94958 1.67213 31.5396 0.94958 1.67213
33 2 31.3937 1.12448 -1.58205 31.3937 1.12448 -1.58205
34 1 32.4173 2.68229 0.0909276 32.4173 2.68229 0.0909276
35 2 34.3991 2.59674 1.62077 34.3991 2.59674 1.62077
36 2 34.2335 2.7685 -1.63265 34.2335 2.7685 -1.63265
37 1 35.2648 1.03958 -0.141161 35.2648 1.03958 -0.141161
38 2 37.2472 0.946667 1.38741 37.2472 0.946667 1.38741
39 2 37.0801 1.13364 -1.86512 37.0801 1.13364 -1.86512
40 1 38.1141 2.68543 -0.192904 38.1141 2.68543 -0.192904
41 2 40.0862 2.59383 1.3491 40.0862 2.59383 1.3491
42 2 39.9406 2.77829 -1.90467 39.9406 2.77829 -1.90467
43 1 40.9623 1.04351 -0.413568 40.9623 1.04351 -0.413568
44 2 42.9158 0.946319 1.15169 42.9158 0.946319 1.15169
45 2 42.8093 1.14199 -2.10286 42.8093 1.14199 -2.10286
46 1 43.8133 2.68884 -0.40751 43.8133 2.68884 -0.40751
47 2 45.7416 2.5928 1.18889 45.7416 2.5928 1.18889
48 2 45.6866 2.78599 -2.06719 45.6866 2.78599 -2.06719
49 1 46.6644 1.04647 -0.552866 46.6644 1.04647 -0.552866
50 2 48.5632 0.947496 1.07873 48.5632 0.947496 1.07873
51 2 48.5684 1.14611 -2.17736 48.5684 1.14611 -2.17736
52 1 49.5161 2.69055 -0.447058 49.5161 2.69055 -0.447058
53 2 51.387 2.59318 1.21643 51.387 2.59318 1.21643
54 2 51.4468 2.78832 -2.03943 51.4468 2.78832 -2.03943
55 1 1.0617 4.33407 -0.295007 1.0617 4.33407 -0.295007
56 2 2.90941 4.24311 1.3944 2.90941 4.24311 1.3944
57 2 3.01384 4.42524 -1.86115 3.01384 4.42524 -1.86115
58 1 3.91034 5.97755 -0.110381 3.91034 5.97755 -0.110381
59 2 5.74312 5.89774 1.59572 5.74312 5.89774 1.59572
60 2 5.87613 6.05743 -1.65995 5.87613 6.05743 -1.65995
61 1 6.7602 4.33233 -0.0740428 6.7602 4.33233 -0.0740428
62 2 8.58305 4.24593 1.64241 8.58305 4.24593 1.64241
63 2 8.73547 4.41843 -1.61166 8.73547 4.41843 -1.61166
64 1 9.60754 5.97553 0.147495 9.60754 5.97553 0.147495
65 2 11.4361 5.90176 1.85849 11.4361 5.90176 1.85849
66 2 11.578 6.04916 -1.3972 11.578 6.04916 -1.3972
67 1 12.4576 4.32962 0.19743 12.4576 4.32962 0.19743
68 2 14.2945 4.25069 1.89922 14.2945 4.25069 1.89922
69 2 14.4209 4.40815 -1.3566 14.4209 4.40815 -1.3566
70 1 15.3071 5.9734 0.38816 15.3071 5.9734 0.38816
71 2 17.1665 5.90726 2.06606 17.1665 5.90726 2.06606
72 2 17.25 6.03936 -1.19215 17.25 6.03936 -1.19215
73 1 18.1593 4.32733 0.394472 18.1593 4.32733 0.394472
74 2 20.0394 4.25465 2.04865 20.0394 4.25465 2.04865
75 2 20.0824 4.39959 -1.20982 20.0824 4.39959 -1.20982
76 1 21.0117 5.97199 0.505486 21.0117 5.97199 0.505486
77 2 22.9203 5.91105 2.12737 22.9203 5.91105 2.12737
78 2 22.9071 6.03268 -1.13222 22.9071 6.03268 -1.13222
79 1 23.8647 4.32609 0.4322 23.8647 4.32609 0.4322
80 2 25.797 4.25525 2.02514 25.797 4.25525 2.02514
81 2 25.7355 4.3966 -1.23319 25.7355 4.3966 -1.23319
82 1 26.7174 5.97156 0.449643 26.7174 5.97156 0.449643
83 2 28.6729 5.91091 2.01458 28.6729 5.91091 2.01458
84 2 28.5636 6.03207 -1.24329 28.5636 6.03207 -1.24329
85 1 29.5683 4.32629 0.292529 29.5683 4.32629 0.292529
86 2 31.5402 4.25215 1.83583 31.5402 4.25215 1.83583
87 2 31.396 4.40058 -1.41967 31.396 4.40058 -1.41967
88 1 32.4186 5.97235 0.241219 32.4186 5.97235 0.241219
89 2 34.3991 5.90721 1.77395 34.3991 5.90721 1.77395
90 2 34.2364 6.03787 -1.48151 34.2364 6.03787 -1.48151
91 1 35.2667 4.3282 0.0327725 35.2667 4.3282 0.0327725
92 2 37.2477 4.24781 1.56382 37.2477 4.24781 1.56382
93 2 37.0832 4.40947 -1.69025 37.0832 4.40947 -1.69025
94 1 38.1157 5.97441 -0.0291943 38.1157 5.97441 -0.0291943
95 2 40.0862 5.90276 1.51574 40.0862 5.90276 1.51574
96 2 39.9433 6.04701 -1.7403 39.9433 6.04701 -1.7403
97 1 40.9638 4.33121 -0.226731 40.9638 4.33121 -0.226731
98 2 42.9169 4.24467 1.33954 42.9169 4.24467 1.33954
99 2 42.8105 4.41897 -1.91642 42.8105 4.41897 -1.91642
100 1 43.8141 5.97684 -0.231004 43.8141 5.97684 -0.231004
101 2 45.7419 5.8992 1.36676 45.7419 5.8992 1.36676
102 2 45.687 6.05551 -1.89152 45.687 6.05551 -1.89152
103 1 46.6646 4.33366 -0.35719 46.6646 4.33366 -0.35719
104 2 48.5645 4.24295 1.27314 48.5645 4.24295 1.27314
105 2 48.5663 4.42524 -1.98415 48.5663 4.42524 -1.98415
106 1 49.5153 5.97815 -0.262431 49.5153 5.97815 -0.262431
107 2 51.3878 5.89706 1.39984 51.3878 5.89706 1.39984
108 2 51.4435 6.05986 -1.85807 51.4435 6.05986 -1.85807
109 1 1.06019 7.62267 -0.130095 1.06019 7.62267 -0.130095
110 2 2.91008 7.55524 1.55783 2.91008 7.55524 1.55783
111 2 3.00964 7.69048 -1.70028 3.00964 7.69048 -1.70028
112 1 3.90854 9.26759 0.0266646 3.90854 9.26759 0.0266646
113 2 5.74415 9.21724 1.73076 5.74415 9.21724 1.73076
114 2 5.87141 9.31813 -1.52754 5.87141 9.31813 -1.52754
115 1 6.75795 7.62154 0.0878967 6.75795 7.62154 0.0878967
116 2 8.58617 7.55702 1.79957 8.58617 7.55702 1.79957
117 2 8.72818 7.68609 -1.45698 8.72818 7.68609 -1.45698
118 1 9.60567 9.26645 0.278454 9.60567 9.26645 0.278454
119 2 11.4399 9.22023 1.98448 11.4399 9.22023 1.98448
120 2 11.5711 9.3127 -1.27363 11.5711 9.3127 -1.27363
121 1 12.4559 7.6198 0.34701 12.4559 7.6198 0.34701
122 2 14.2996 7.56209 2.04242 14.2996 7.56209 2.04242
123 2 14.4131 7.6775 -1.21554 14.4131 7.6775 -1.21554
124 1 15.306 9.2653 0.505308 15.306 9.2653 0.505308
125 2 17.1716 9.22597 2.17734 17.1716 9.22597 2.17734
126 2 17.2434 9.30464 -1.08277 17.2434 9.30464 -1.08277
127 1 18.1585 7.61845 0.528473 18.1585 7.61845 0.528473
128 2 20.0444 7.56783 2.17729 20.0444 7.56783 2.17729
129 2 20.0766 7.66898 -1.08282 20.0766 7.66898 -1.08282
130 1 21.0115 9.26462 0.608106 21.0115 9.26462 0.608106
131 2 22.9247 9.23164 2.22567 22.9247 9.23164 2.22567
132 2 22.9027 9.29752 -1.03536 22.9027 9.29752 -1.03536
133 1 23.8649 7.61778 0.555463 23.8649 7.61778 0.555463
134 2 25.8001 7.5711 2.14616 25.8001 7.5711 2.14616
135 2 25.7331 7.6643 -1.11366 25.7331 7.6643 -1.11366
136 1 26.7177 9.26442 0.544108 26.7177 9.26442 0.544108
137 2 28.6748 9.23407 2.10818 28.6748 9.23407 2.10818
138 2 28.5625 9.29464 -1.15119 28.5625 9.29464 -1.15119
139 1 29.569 7.61787 0.415234 29.569 7.61787 0.415234
140 2 31.5407 7.57003 1.96009 31.5407 7.57003 1.96009
141 2 31.3972 7.66573 -1.29735 31.3972 7.66573 -1.29735
142 1 32.4192 9.26473 0.33814 32.4192 9.26473 0.33814
143 2 34.3985 9.23208 1.87345 34.3985 9.23208 1.87345
144 2 34.2382 9.29747 -1.38408 34.2382 9.29747 -1.38408
145 1 35.2678 7.6189 0.165081 35.2678 7.6189 0.165081
146 2 37.2471 7.56588 1.69969 37.2471 7.56588 1.69969
147 2 37.0862 7.67244 -1.55688 37.0862 7.67244 -1.55688
148 1 38.1164 9.26568 0.0786885 38.1164 9.26568 0.0786885
149 2 40.0847 9.22757 1.62754 40.0847 9.22757 1.62754
150 2 39.9461 9.30432 -1.63106 39.9461 9.30432 -1.63106
151 1 40.9648 7.62072 -0.0806748 40.9648 7.62072 -0.0806748
152 2 42.9162 7.56123 1.48883 42.9162 7.56123 1.48883
153 2 42.8127 7.68109 -1.76984 42.8127 7.68109 -1.76984
154 1 43.8144 9.26701 -0.109694 43.8144 9.26701 -0.109694
155 2 45.7402 9.2226 1.49147 45.7402 9.2226 1.49147
156 2 45.6886 9.31215 -1.76952 45.6886 9.31215 -1.76952
157 1 46.6645 7.62234 -0.198946 46.6645 7.62234 -0.198946
158 2 48.564 7.55724 1.43292 48.564 7.55724 1.43292
159 2 48.5658 7.68823 -1.82702 48.5658 7.68823 -1.82702
160 1 49.5145 9.26786 -0.129834 49.5145 9.26786 -0.129834
161 2 51.3867 9.21842 1.53386 51.3867 9.21842 1.53386
162 2 51.4424 9.31784 -1.72673 51.4424 9.31784 -1.72673
163 1 1.05903 10.9136 -0.0294543 1.05903 10.9136 -0.0294543
164 2 2.9089 10.8822 1.65945 2.9089 10.8822 1.65945
165 2 3.00815 10.9453 -1.60094 3.00815 10.9453 -1.60094
166 1 3.90742 12.5598 0.0905039 3.90742 12.5598 0.0905039
167 2 5.74338 12.5479 1.7949 5.74338 12.5479 1.7949
168 2 5.86987 12.5717 -1.46492 5.86987 12.5717 -1.46492
169 1 6.75632 10.9132 0.190202 6.75632 10.9132 0.190202
170 2 8.58779 10.8823 1.89934 8.58779 10.8823 1.89934
171 2 8.72353 10.9441 -1.35944 8.72353 10.9441 -1.35944
172 1 9.60454 12.5596 0.341244 9.60454 12.5596 0.341244
173 2 11.442 12.5492 2.04438 11.442 12.5492 2.04438
174 2 11.5671 12.5697 -1.21519 11.5671 12.5697 -1.21519
175 1 12.4546 10.9124 0.440904 12.4546 10.9124 0.440904
176 2 14.3037 10.8863 2.13139 14.3037 10.8863 2.13139
177 2 14.4071 10.9385 -1.12846 14.4071 10.9385 -1.12846
178 1 15.3054 12.5592 0.558423 15.3054 12.5592 0.558423
179 2 17.1758 12.5541 2.22568 17.1758 12.5541 2.22568
180 2 17.2385 12.5642 -1.0355 17.2385 12.5642 -1.0355
181 1 18.1581 10.9118 0.608382 18.1581 10.9118 0.608382
182 2 20.0493 10.8925 2.25192 20.0493 10.8925 2.25192
183 2 20.0713 10.9312 -1.00953 20.0713 10.9312 -1.00953
184 1 21.0114 12.559 0.647498 21.0114 12.559 0.647498
185 2 22.929 12.5605 2.26034 22.929 12.5605 2.26034
186 2 22.8983 12.5573 -1.00124 22.8983 12.5573 -1.00124
187 1 23.8649 10.9116 0.622341 23.8649 10.9116 0.622341
188 2 25.8035 10.8978 2.20976 25.8035 10.8978 2.20976
189 2 25.7299 10.9253 -1.05106 25.7299 10.9253 -1.05106
190 1 26.7176 12.5588 0.572081 26.7176 12.5588 0.572081
191 2 28.6767 12.565 2.13395 28.6767 12.565 2.13395
192 2 28.5602 12.5524 -1.1258 28.5602 12.5524 -1.1258
193 1 29.5692 10.9115 0.476635 29.5692 10.9115 0.476635
194 2 31.5413 10.8991 2.02185 31.5413 10.8991 2.02185
195 2 31.397 10.9238 -1.23685 31.397 10.9238 -1.23685
196 1 32.419 12.5586 0.363189 32.419 12.5586 0.363189
197 2 34.3976 12.565 1.89984 34.3976 12.565 1.89984
198 2 34.2388 12.5521 -1.35841 34.2388 12.5521 -1.35841
199 1 35.2681 10.9118 0.231269 35.2681 10.9118 0.231269
200 2 37.2455 10.8962 1.76911 37.2455 10.8962 1.76911
201 2 37.0884 10.9274 -1.48927 37.0884 10.9274 -1.48927
202 1 38.1162 12.5586 0.110159 38.1162 12.5586 0.110159
203 2 40.0821 12.5614 1.66261 40.0821 12.5614 1.66261
204 2 39.9485 12.556 -1.59712 39.9485 12.556 -1.59712
205 1 40.965 10.9124 -0.00302341 40.965 10.9124 -0.00302341
206 2 42.9138 10.8914 1.57056 42.9138 10.8914 1.57056
207 2 42.8153 10.934 -1.69026 42.8153 10.934 -1.69026
208 1 43.8142 12.559 -0.0666594 43.8142 12.559 -0.0666594
209 2 45.737 12.5561 1.53869 45.737 12.5561 1.53869
210 2 45.6913 12.5623 -1.72366 45.6913 12.5623 -1.72366
211 1 46.6642 10.9133 -0.108372 46.6642 10.9133 -0.108372
212 2 48.5615 10.8861 1.52692 48.5615 10.8861 1.52692
213 2 48.5672 10.941 -1.73529 48.5672 10.941 -1.73529
214 1 49.5139 12.5596 -0.0743492 49.5139 12.5596 -0.0743492
215 2 51.3838 12.5508 1.59258 51.3838 12.5508 1.59258
216 2 51.4438 12.5687 -1.66945 51.4438 12.5687 -1.66945
217 1 1.05847 14.206 -0.0115261 1.05847 14.206 -0.0115261
218 2 2.90607 14.216 1.68013 2.90607 14.216 1.68013
219 2 3.0097 14.1961 -1.58067 3.0097 14.1961 -1.58067
220 1 3.90719 15.8526 0.0701941 3.90719 15.8526 0.0701941
221 2 5.74105 15.8809 1.77668 5.74105 15.8809 1.77668
222 2 5.87167 15.8242 -1.48255 5.87167 15.8242 -1.48255
223 1 6.75557 14.2064 0.214266 6.75557 14.2064 0.214266
224 2 8.58763 14.2145 1.92305 8.58763 14.2145 1.92305
225 2 8.72229 14.1981 -1.33631 8.72229 14.1981 -1.33631
226 1 9.60431 15.8533 0.324675 9.60431 15.8533 0.324675
227 2 11.4424 15.8807 2.02694 11.4424 15.8807 2.02694
228 2 11.5663 15.8253 -1.23227 11.5663 15.8253 -1.23227
229 1 12.4541 14.2065 0.461784 12.4541 14.2065 0.461784
230 2 14.3062 14.2169 2.14917 14.3062 14.2169 2.14917
231 2 14.4038 14.1957 -1.11119 14.4038 14.1957 -1.11119
232 1 15.3054 15.8535 0.536999 15.3054 15.8535 0.536999
233 2 17.1785 15.8843 2.20089 17.1785 15.8843 2.20089
234 2 17.2358 15.8223 -1.05983 17.2358 15.8223 -1.05983
235 1 18.1579 14.2064 0.618789 18.1579 14.2064 0.618789
236 2 20.0533 14.2226 2.25762 20.0533 14.2226 2.25762
237 2 20.0671 14.1899 -1.00393 20.0671 14.1899 -1.00393
238 1 21.0113 15.8535 0.614627 21.0113 15.8535 0.614627
239 2 22.9323 15.8904 2.22291 22.9323 15.8904 2.22291
240 2 22.8946 15.8161 -1.0378 22.8946 15.8161 -1.0378
241 1 23.8648 14.2062 0.619246 23.8648 14.2062 0.619246
242 2 25.8066 14.2288 2.2026 25.8066 14.2288 2.2026
243 2 25.7264 14.1834 -1.05787 25.7264 14.1834 -1.05787
244 1 26.7171 15.853 0.526217 26.7171 15.853 0.526217
245 2 28.6782 15.8957 2.08492 28.6782 15.8957 2.08492
246 2 28.5574 15.81 -1.17361 28.5574 15.81 -1.17361
247 1 29.5687 14.2059 0.463982 29.5687 14.2059 0.463982
248 2 31.5415 14.2319 2.00808 31.5415 14.2319 2.00808
249 2 31.3957 14.1795 -1.25023 31.3957 14.1795 -1.25023
250 1 32.418 15.8522 0.310051 32.418 15.8522 0.310051
251 2 34.396 15.897 1.84673 34.396 15.897 1.84673
252 2 34.2383 15.807 -1.41037 34.2383 15.807 -1.41037
253 1 35.2674 14.2053 0.218093 35.2674 14.2053 0.218093
254 2 37.2431 14.2306 1.75804 37.2431 14.2306 1.75804
255 2 37.0896 14.1799 -1.50027 37.0896 14.1799 -1.50027
256 1 38.1153 15.8513 0.0587474 38.1153 15.8513 0.0587474
257 2 40.0785 15.8944 1.61395 40.0785 15.8944 1.61395
258 2 39.9505 15.8081 -1.64486 39.9505 15.8081 -1.64486
259 1 40.9646 14.205 -0.00863143 40.9646 14.205 -0.00863143
260 2 42.9102 14.2262 1.56882 42.9102 14.2262 1.56882
261 2 42.8181 14.184 -1.69221 42.8181 14.184 -1.69221
262 1 43.8136 15.851 -0.109626 43.8136 15.851 -0.109626
263 2 45.7327 15.8897 1.49983 45.7327 15.8897 1.49983
264 2 45.6949 15.8125 -1.76168 45.6949 15.8125 -1.76168
265 1 46.6639 14.2054 -0.10233 46.6639 14.2054 -0.10233
266 2 48.5576 14.2208 1.53719 48.5576 14.2208 1.53719
267 2 48.5703 14.1902 -1.72532 48.5703 14.1902 -1.72532
268 1 49.5137 15.8516 -0.105483 49.5137 15.8516 -0.105483
269 2 51.3797 15.8845 1.56558 51.3797 15.8845 1.56558
270 2 51.4475 15.8189 -1.69565 51.4475 15.8189 -1.69565
271 1 1.05865 17.4978 -0.0781269 1.05865 17.4978 -0.0781269
272 2 2.90222 17.5466 1.61734 2.90222 17.5466 1.61734
273 2 3.01391 17.4491 -1.64174 3.01391 17.4491 -1.64174
274 1 3.90787 19.144 -0.0287181 3.90787 19.144 -0.0287181
275 2 5.73781 19.2065 1.68113 5.73781 19.2065 1.68113
276 2 5.8762 19.0814 -1.57584 5.8762 19.0814 -1.57584
277 1 6.7558 17.4992 0.156734 6.7558 17.4992 0.156734
278 2 8.58595 17.5444 1.86697 8.58595 17.5444 1.86697
279 2 8.72436 17.4536 -1.39101 8.72436 17.4536 -1.39101
280 1 9.60498 19.1456 0.232579 9.60498 19.1456 0.232579
281 2 11.4413 19.2057 1.93582 11.4413 19.2057 1.93582
282 2 11.5685 19.0849 -1.32153 11.5685 19.0849 -1.32153
283 1 12.4543 17.5001 0.405694 12.4543 17.5001 0.405694
284 2 14.307 17.5456 2.09181 14.307 17.5456 2.09181
285 2 14.4035 17.4538 -1.16741 14.4035 17.4538 -1.16741
286 1 15.3058 19.1464 0.444101 15.3058 19.1464 0.444101
287 2 17.1793 19.2079 2.1064 17.1793 19.2079 2.1064
288 2 17.2355 19.084 -1.15268 17.2355 19.084 -1.15268
289 1 18.1581 17.5003 0.556108 18.1581 17.5003 0.556108
290 2 20.0558 17.55 2.19136 20.0558 17.55 2.19136
291 2 20.0646 17.4498 -1.06891 20.0646 17.4498 -1.06891
292 1 21.0113 19.1463 0.513277 21.0113 19.1463 0.513277
293 2 22.9341 19.2127 2.11809 22.9341 19.2127 2.11809
294 2 22.8922 19.079 -1.14079 22.8922 19.079 -1.14079
295 1 23.8644 17.4999 0.544195 23.8644 17.4999 0.544195
296 2 25.8087 17.5559 2.12349 25.8087 17.5559 2.12349
297 2 25.7231 17.4433 -1.1353 25.7231 17.4433 -1.1353
298 1 26.7162 19.1452 0.4123 26.7162 19.1452 0.4123
299 2 28.6786 19.2175 1.968 28.6786 19.2175 1.968
300 2 28.5546 19.0724 -1.2884 28.5546 19.0724 -1.2884
301 1 29.5676 17.4989 0.377217 29.5676 17.4989 0.377217
302 2 31.5411 17.5595 1.9194 31.5411 17.5595 1.9194
303 2 31.3937 17.4378 -1.33704 31.3937 17.4378 -1.33704
304 1 32.4164 19.1436 0.186685 32.4164 19.1436 0.186685
305 2 34.3936 19.2191 1.72299 34.3936 19.2191 1.72299
306 2 34.2374 19.0678 -1.53193 34.2374 19.0678 -1.53193
307 1 35.266 17.4976 0.126798 35.266 17.4976 0.126798
308 2 37.2399 17.5591 1.66793 37.2399 17.5591 1.66793
309 2 37.0902 17.4358 -1.5886 37.0902 17.4358 -1.5886
310 1 38.1137 19.142 -0.0662349 38.1137 19.142 -0.0662349
311 2 40.0742 19.2172 1.49119 40.0742 19.2172 1.49119
312 2 39.9522 19.0668 -1.76544 39.9522 19.0668 -1.76544
313 1 40.9636 17.4965 -0.0962292 40.9636 17.4965 -0.0962292
314 2 42.9058 17.5556 1.48452 42.9058 17.5556 1.48452
315 2 42.821 17.4375 -1.77477 42.821 17.4375 -1.77477
316 1 43.8129 19.1412 -0.229374 43.8129 19.1412 -0.229374
317 2 45.728 19.2135 1.3839 45.728 19.2135 1.3839
318 2 45.6989 19.0693 -1.8753 45.6989 19.0693 -1.8753
319 1 46.6636 17.4966 -0.180738 46.6636 17.4966 -0.180738
320 2 48.553 17.551 1.46313 48.553 17.551 1.46313
321 2 48.5748 17.4425 -1.79759 48.5748 17.4425 -1.79759
322 1 49.514 19.142 -0.215476 49.514 19.142 -0.215476
323 2 51.3752 19.2096 1.46002 51.3752 19.2096 1.46002
324 2 51.4528 19.075 -1.79876 51.4528 19.075 -1.79876
325 1 1.05954 20.7876 -0.2146 1.05954 20.7876 -0.2146
326 2 2.89825 20.8653 1.48521 2.89825 20.8653 1.48521
327 2 3.0198 20.7104 -1.7712 3.0198 20.7104 -1.7712
328 1 3.90931 22.4332 -0.185815 3.90931 22.4332 -0.185815
329 2 5.7345 22.5178 1.52821 5.7345 22.5178 1.52821
330 2 5.88231 22.3489 -1.72631 5.88231 22.3489 -1.72631
331 1 6.75695 20.79 0.0298535 6.75695 20.79 0.0298535
332 2 8.58338 20.8635 1.74303 8.58338 20.8635 1.74303
333 2 8.72898 20.7162 -1.51257 8.72898 20.7162 -1.51257
334 1 9.60638 22.4357 0.0832068 9.60638 22.4357 0.0832068
335 2 11.4392 22.5169 1.78914 11.4392 22.5169 1.78914
336 2 11.573 22.3539 -1.46617 11.573 22.3539 -1.46617
337 1 12.4552 20.7916 0.28324 12.4552 20.7916 0.28324
338 2 14.3062 20.8638 1.97002 14.3062 20.8638 1.97002
339 2 14.4056 20.7185 -1.28726 14.4056 20.7185 -1.28726
340 1 15.3067 22.4368 0.296908 15.3067 22.4368 0.296908
341 2 17.1785 22.5177 1.9598 17.1785 22.5177 1.9598
342 2 17.2373 22.355 -1.29768 17.2373 22.355 -1.29768
343 1 18.1584 20.792 0.430613 18.1584 20.792 0.430613
344 2 20.0564 20.8666 2.06418 20.0564 20.8666 2.06418
345 2 20.0641 20.7163 -1.19431 20.0641 20.7163 -1.19431
346 1 21.0111 22.4365 0.361166 21.0111 22.4365 0.361166
347 2 22.9339 22.5203 1.96466 22.9339 22.5203 1.96466
348 2 22.8913 22.3516 -1.29277 22.8913 22.3516 -1.29277
349 1 23.8638 20.7911 0.408839 23.8638 20.7911 0.408839
350 2 25.8091 20.8708 1.98536 25.8091 20.8708 1.98536
351 2 25.7207 20.7106 -1.2715 25.7207 20.7106 -1.2715
352 1 26.7148 22.4349 0.249996 26.7148 22.4349 0.249996
353 2 28.6774 22.5234 1.80414 28.6774 22.5234 1.80414
354 2 28.5525 22.3456 -1.45072 28.5525 22.3456 -1.45072
355 1 29.566 20.7894 0.230295 29.566 20.7894 0.230295
356 2 31.5394 20.8739 1.77104 31.5394 20.8739 1.77104
357 2 31.3916 20.7044 -1.48331 31.3916 20.7044 -1.48331
358 1 32.4142 22.4326 0.0149702 32.4142 22.4326 0.0149702
359 2 34.3903 22.5247 1.55159 34.3903 22.5247 1.55159
360 2 34.2363 22.3403 -1.70174 34.2363 22.3403 -1.70174
361 1 35.264 20.7874 -0.0265357 35.264 20.7874 -0.0265357
362 2 37.236 20.8737 1.51576 37.236 20.8737 1.51576
363 2 37.0904 20.7009 -1.73867 37.0904 20.7009 -1.73867
364 1 38.1118 22.4305 -0.24132 38.1118 22.4305 -0.24132
365 2 40.0697 22.5234 1.31846 40.0697 22.5234 1.31846
366 2 39.9535 22.3377 -1.93645 39.9535 22.3377 -1.93645
367 1 40.9622 20.7858 -0.248701 40.9622 20.7858 -0.248701
368 2 42.9011 20.8711 1.33512 42.9011 20.8711 1.33512
369 2 42.8239 20.7007 -1.92191 42.8239 20.7007 -1.92191
370 1 43.8122 22.4295 -0.402008 43.8122 22.4295 -0.402008
371 2 45.7236 22.5212 1.21489 45.7236 22.5212 1.21489
372 2 45.7027 22.3384 -2.04224 45.7027 22.3384 -2.04224
373 1 46.6635 20.7857 -0.326945 46.6635 20.7857 -0.326945
374 2 48.5485 20.868 1.32111 48.5485 20.868 1.32111
375 2 48.5798 20.7042 -1.93705 48.5798 20.7042 -1.93705
376 1 49.5146 22.4305 -0.381557 49.5146 22.4305 -0.381557
377 2 51.3712 22.5194 1.29827 51.3712 22.5194 1.29827
378 2 51.4586 22.3426 -1.95809 51.4586 22.3426 -1.95809
379 1 1.06089 24.0756 -0.393755 1.06089 24.0756 -0.393755
380 2 2.89509 24.1676 1.31041 2.89509 24.1676 1.31041
381 2 3.02597 23.9847 -1.94405 3.02597 23.9847 -1.94405
382 1 3.91116 25.7212 -0.371139 3.91116 25.7212 -0.371139
383 2 5.73188 25.8125 1.34739 5.73188 25.8125 1.34739
384 2 5.88864 25.6307 -1.90594 5.88864 25.6307 -1.90594
385 1 6.75873 24.0787 -0.141371 6.75873 24.0787 -0.141371
386 2 8.5806 24.1667 1.57592 8.5806 24.1667 1.57592
387 2 8.735 23.991 -1.67787 8.735 23.991 -1.67787
388 1 9.60821 25.7241 -0.0949382 9.60821 25.7241 -0.0949382
389 2 11.4366 25.8114 1.61521 11.4366 25.8114 1.61521
390 2 11.5787 25.6366 -1.63921 11.5787 25.6366 -1.63921
391 1 12.4566 24.0809 0.117992 12.4566 24.0809 0.117992
392 2 14.3042 24.166 1.80746 14.3042 24.166 1.80746
393 2 14.4097 23.9949 -1.4485 14.4097 23.9949 -1.4485
394 1 15.3077 25.7254 0.123542 15.3077 25.7254 0.123542
395 2 17.1763 25.8102 1.78939 17.1763 25.8102 1.78939
396 2 17.2408 25.6397 -1.46777 17.2408 25.6397 -1.46777
397 1 18.1588 24.0813 0.265796 18.1588 24.0813 0.265796
398 2 20.0551 24.1665 1.9002 20.0551 24.1665 1.9002
399 2 20.0654 23.9949 -1.35743 20.0654 23.9949 -1.35743
400 1 21.011 25.7249 0.187349 21.011 25.7249 0.187349
401 2 22.9321 25.8099 1.79219 22.9321 25.8099 1.79219
402 2 22.892 25.6389 -1.46535 22.892 25.6389 -1.46535
403 1 23.863 24.08 0.238095 23.863 24.08 0.238095
404 2 25.8079 24.1684 1.81407 25.8079 24.1684 1.81407
405 2 25.7195 23.9908 -1.44206 25.7195 23.9908 -1.44206
406 1 26.7134 25.723 0.0701919 26.7134 25.723 0.0701919
407 2 28.6753 25.8109 1.62473 28.6753 25.8109 1.62473
408 2 28.5511 25.6344 -1.63037 28.5511 25.6344 -1.63037
409 1 29.564 24.0778 0.0501697 29.564 24.0778 0.0501697
410 2 31.5368 24.1702 1.59085 31.5368 24.1702 1.59085
411 2 31.39 23.985 -1.66275 31.39 23.985 -1.66275
412 1 32.4119 25.7205 -0.172708 32.4119 25.7205 -0.172708
413 2 34.387 25.812 1.36508 34.387 25.812 1.36508
414 2 34.2352 25.629 -1.88842 34.2352 25.629 -1.88842
415 1 35.2617 24.0754 -0.213379 35.2617 24.0754 -0.213379
416 2 37.2319 24.1703 1.33062 37.2319 24.1703 1.33062
417 2 37.0903 23.9805 -1.92296 37.0903 23.9805 -1.92296
418 1 38.1098 25.7182 -0.433623 38.1098 25.7182 -0.433623
419 2 40.0659 25.8119 1.12854 40.0659 25.8119 1.12854
420 2 39.9541 25.625 -2.12629 39.9541 25.625 -2.12629
421 1 40.9608 24.0736 -0.436813 40.9608 24.0736 -0.436813
422 2 42.8969 24.169 1.15003 42.8969 24.169 1.15003
423 2 42.8261 23.9786 -2.10584 42.8261 23.9786 -2.10584
424 1 43.8115 25.7171 -0.594891 43.8115 25.7171 -0.594891
425 2 45.7204 25.8117 1.0251 45.7204 25.8117 1.0251
426 2 45.7055 25.6235 -2.23152 45.7055 25.6235 -2.23152
427 1 46.6636 24.0735 -0.512106 46.6636 24.0735 -0.512106
428 2 48.5449 24.1681 1.13973 48.5449 24.1681 1.13973
429 2 48.5844 23.9799 -2.11682 48.5844 23.9799 -2.11682
430 1 49.5155 25.7182 -0.572133 49.5155 25.7182 -0.572133
431 2 51.3687 25.8123 1.11142 51.3687 25.8123 1.11142
432 2 51.4635 25.6253 -2.14395 51.4635 25.6253 -2.14395
433 1 1.06241 27.3637 -0.583198 1.06241 27.3637 -0.583198
434 2 2.89331 27.454 1.12483 2.89331 27.454 1.12483
435 2 3.03121 27.2747 -2.12939 3.03121 27.2747 -2.12939
436 1 3.9131 29.0097 -0.552879 3.9131 29.0097 -0.552879
437 2 5.73023 29.0926 1.16999 5.73023 29.0926 1.16999
438 2 5.89424 28.9279 -2.08381 5.89424 28.9279 -2.08381
439 1 6.76079 27.3669 -0.325607 6.76079 27.3669 -0.325607
440 2 8.5781 27.4537 1.39653 8.5781 27.4537 1.39653
441 2 8.7413 27.2806 -1.85697 8.7413 27.2806 -1.85697
442 1 9.61016 29.0125 -0.270397 9.61016 29.0125 -0.270397
443 2 11.4338 29.0909 1.44511 11.4338 29.0909 1.44511
444 2 11.5848 28.9343 -1.8099 11.5848 28.9343 -1.8099
445 1 12.4582 27.3691 -0.0591854 12.4582 27.3691 -0.0591854
446 2 14.3014 27.4516 1.63484 14.3014 27.4516 1.63484
447 2 14.4149 27.2862 -1.62128 14.4149 27.2862 -1.62128
448 1 15.3088 29.0138 -0.0441235 15.3088 29.0138 -0.0441235
449 2 17.173 29.0872 1.62678 17.173 29.0872 1.62678
450 2 17.2454 28.9398 -1.63149 17.2454 28.9398 -1.63149
451 1 18.1593 27.3695 0.093124 18.1593 27.3695 0.093124
452 2 20.0525 27.4492 1.73095 20.0525 27.4492 1.73095
453 2 20.0682 27.2888 -1.52742 20.0682 27.2888 -1.52742
454 1 21.0109 29.0133 0.0248875 21.0109 29.0133 0.0248875
455 2 22.929 29.0835 1.63348 22.929 29.0835 1.63348
456 2 22.8942 28.9422 -1.62572 22.8942 28.9422 -1.62572
457 1 23.8623 27.3681 0.0649761 23.8623 27.3681 0.0649761
458 2 25.8056 27.4481 1.64277 25.8056 27.4481 1.64277
459 2 25.7196 27.2874 -1.61448 25.7196 27.2874 -1.61448
460 1 26.7122 29.0114 -0.0925813 26.7122 29.0114 -0.0925813
461 2 28.673 29.0824 1.46381 28.673 29.0824 1.46381
462 2 28.5506 28.94 -1.79314 28.5506 28.94 -1.79314
463 1 29.5622 27.3658 -0.128582 29.5622 27.3658 -0.128582
464 2 31.5343 27.4489 1.41318 31.5343 27.4489 1.41318
465 2 31.3885 27.2826 -1.84156 31.3885 27.2826 -1.84156
466 1 32.4101 29.0092 -0.34112 32.4101 29.0092 -0.34112
467 2 34.3849 29.0838 1.19775 34.3849 29.0838 1.19775
468 2 34.2336 28.9347 -2.05749 34.2336 28.9347 -2.05749
469 1 35.2596 27.3635 -0.398748 35.2596 27.3635 -0.398748
470 2 37.2289 27.45 1.14692 37.2289 27.45 1.14692
471 2 37.0895 27.2772 -2.10762 37.0895 27.2772 -2.10762
472 1 38.1081 29.0072 -0.608612 38.1081 29.0072 -0.608612
473 2 40.0639 29.0859 0.954938 40.0639 29.0859 0.954938
474 2 39.9534 28.9291 -2.30138 39.9534 28.9291 -2.30138
475 1 40.9594 27.3617 -0.626143 40.9594 27.3617 -0.626143
476 2 42.8942 27.4509 0.963021 42.8942 27.4509 0.963021
477 2 42.8271 27.2733 -2.29345 42.8271 27.2733 -2.29345
478 1 43.8109 29.0062 -0.774702 43.8109 29.0062 -0.774702
479 2 45.7191 29.0884 0.84703 45.7191 29.0884 0.84703
480 2 45.7065 28.9249 -2.41072 45.7065 28.9249 -2.41072
481 1 46.6637 27.3616 -0.702768 46.6637 27.3616 -0.702768
482 2 48.543 27.4524 0.95186 48.543 27.4524 0.95186
483 2 48.5874 27.272 -2.30483 48.5874 27.272 -2.30483
484 1 49.5164 29.0071 -0.754836 49.5164 29.0071 -0.754836
485 2 51.368 29.0914 0.931309 51.368 29.0914 0.931309
486 2 51.4668 28.9241 -2.32483 51.4668 28.9241 -2.32483
487 1 1.06384 30.6534 -0.752626 1.06384 30.6534 -0.752626
488 2 2.89295 30.7282 0.958288 2.89295 30.7282 0.958288
489 2 3.03493 30.5798 -2.29717 3.03493 30.5798 -2.29717
490 1 3.91487 32.3003 -0.703256 3.91487 32.3003 -0.703256
491 2 5.72946 32.3624 1.0233 5.72946 32.3624 1.0233
492 2 5.89869 32.2391 -2.23199 5.89869 32.2391 -2.23199
493 1 6.76284 30.6561 -0.492621 6.76284 30.6561 -0.492621
494 2 8.57599 30.7279 1.2346 8.57599 30.7279 1.2346
495 2 8.74724 30.585 -2.01994 8.74724 30.585 -2.01994
496 1 9.61201 32.3024 -0.415324 9.61201 32.3024 -0.415324
497 2 11.4308 32.3595 1.3061 11.4308 32.3595 1.3061
498 2 11.591 32.2456 -1.95028 11.591 32.2456 -1.95028
499 1 12.4597 30.6581 -0.217841 12.4597 30.6581 -0.217841
500 2 14.298 30.7239 1.48214 14.298 30.7239 1.48214
501 2 14.4208 30.592 -1.77527 14.4208 30.592 -1.77527
502 1 15.3098 32.3034 -0.177892 15.3098 32.3034 -0.177892
503 2 17.1688 32.3531 1.49952 17.1688 32.3531 1.49952
504 2 17.2511 32.2532 -1.76044 17.2511 32.2532 -1.76044
505 1 18.1599 30.6583 -0.056117 18.1599 30.6583 -0.056117
506 2 20.0486 30.7184 1.5872 20.0486 30.7184 1.5872
507 2 20.0724 30.5976 -1.673 20.0724 30.5976 -1.673
508 1 21.011 32.3028 -0.0974858 21.011 32.3028 -0.0974858
509 2 22.9252 32.3464 1.5164 22.9252 32.3464 1.5164
510 2 22.8978 32.2586 -1.74489 22.8978 32.2586 -1.74489
511 1 23.8618 30.6571 -0.0781513 23.8618 30.6571 -0.0781513
512 2 25.8028 30.7144 1.50311 25.8028 30.7144 1.50311
513 2 25.721 30.5993 -1.75633 25.721 30.5993 -1.75633
514 1 26.7117 32.3015 -0.209037 26.7117 32.3015 -0.209037
515 2 28.6712 32.3434 1.34968 28.6712 32.3434 1.34968
516 2 28.551 32.2592 -1.90947 28.551 32.2592 -1.90947
517 1 29.561 30.6553 -0.272707 29.561 30.6553 -0.272707
518 2 31.5328 30.7144 1.27023 31.5328 30.7144 1.27023
519 2 31.3873 30.5961 -1.98667 31.3873 30.5961 -1.98667
520 1 32.409 32.3 -0.460778 32.409 32.3 -0.460778
521 2 34.3848 32.3456 1.07789 34.3848 32.3456 1.07789
522 2 34.2315 32.2545 -2.17939 34.2315 32.2545 -2.17939
523 1 35.258 30.6534 -0.54969 35.258 30.6534 -0.54969
524 2 37.2279 30.7173 0.996342 37.2279 30.7173 0.996342
525 2 37.0876 30.5899 -2.26017 37.0876 30.5899 -2.26017
526 1 38.1069 32.2987 -0.737497 38.1069 32.2987 -0.737497
527 2 40.0643 32.3504 0.8253 40.0643 32.3504 0.8253
528 2 39.951 32.2474 -2.43295 39.951 32.2474 -2.43295
529 1 40.9583 30.652 -0.784979 40.9583 30.652 -0.784979
530 2 42.8936 30.721 0.804749 42.8936 30.721 0.804749
531 2 42.8262 30.5837 -2.45348 42.8262 30.5837 -2.45348
532 1 43.8104 32.2979 -0.913622 43.8104 32.2979 -0.913622
533 2 45.72 32.3557 0.70777 45.72 32.3557 0.70777
534 2 45.7053 32.2409 -2.55186 45.7053 32.2409 -2.55186
535 1 46.6638 30.6518 -0.8683 46.6638 30.6518 -0.8683
536 2 48.5432 30.7251 0.787477 48.5432 30.7251 0.787477
537 2 48.5884 30.5796 -2.47074 48.5884 30.5796 -2.47074
538 1 49.5171 32.2984 -0.902131 49.5171 32.2984 -0.902131
539 2 51.3688 32.3605 0.785055 51.3688 32.3605 0.785055
540 2 51.4681 32.2373 -2.47287 51.4681 32.2373 -2.47287
541 1 1.065 33.9457 -0.877404 1.065 33.9457 -0.877404