ITEM: TIMESTEP
28000
ITEM: NUMBER OF ATOMS
810
ITEM: BOX BOUNDS pp pp pp
8.5827025293339909e-01 5.2159334747065756e+01
8.1018768050408541e-01 5.0206027319495206e+01
-1.0000000000000000e+01 1.0000000000000000e+01
ITEM: ATOMS id type x y z xu yu zu
1 1 1.06544 1.02334 -0.536174 1.06544 1.02334 -0.536174
2 2 2.90085 1.04528 1.16933 2.90085 1.04528 1.16933
3 2 3.03003 1.00143 -2.08998 3.03003 1.00143 -2.08998
4 1 3.91565 2.67005 -0.444746 3.91565 2.67005 -0.444746
5 2 5.73277 2.69076 1.28012 5.73277 2.69076 1.28012
6 2 5.89666 2.6494 -1.97765 5.89666 2.6494 -1.97765
7 1 6.76401 1.02386 -0.279963 6.76401 1.02386 -0.279963
8 2 8.57293 1.04708 1.45329 8.57293 1.04708 1.45329
9 2 8.75214 1.00075 -1.80363 8.75214 1.00075 -1.80363
10 1 9.61209 2.6707 -0.146311 9.61209 2.6707 -0.146311
11 2 11.4245 2.69279 1.58302 11.4245 2.69279 1.58302
12 2 11.597 2.64875 -1.67431 11.597 2.64875 -1.67431
13 1 12.4599 1.02468 0.0269453 12.4599 1.02468 0.0269453
14 2 14.287 1.04897 1.74063 14.287 1.04897 1.74063
15 2 14.4319 1.00053 -1.51798 14.4319 1.00053 -1.51798
16 1 15.3095 2.67147 0.129005 15.3095 2.67147 0.129005
17 2 17.1603 2.69484 1.81676 17.1603 2.69484 1.81676
18 2 17.2596 2.64823 -1.44361 17.2596 2.64823 -1.44361
19 1 18.1601 1.02537 0.239013 18.1601 1.02537 0.239013
20 2 20.0407 1.05029 1.89351 20.0407 1.05029 1.89351
21 2 20.0821 1.00052 -1.36803 20.0821 1.00052 -1.36803
22 1 21.0121 2.67193 0.249516 21.0121 2.67193 0.249516
23 2 22.9239 2.69597 1.86776 22.9239 2.69597 1.86776
24 2 22.9031 2.64789 -1.39403 22.9031 2.64789 -1.39403
25 1 23.8643 1.02554 0.255012 23.8643 1.02554 0.255012
26 2 25.8055 1.05034 1.83781 25.8055 1.05034 1.83781
27 2 25.7249 1.00066 -1.42299 25.7249 1.00066 -1.42299
28 1 26.7154 2.67179 0.158601 26.7154 2.67179 0.158601
29 2 28.6797 2.69563 1.71251 28.6797 2.69563 1.71251
30 2 28.5508 2.64785 -1.54679 28.5508 2.64785 -1.54679
31 1 29.5654 1.0251 0.0693364 29.5654 1.0251 0.0693364
32 2 31.546 1.04881 1.60263 31.546 1.04881 1.60263
33 2 31.3829 1.00125 -1.65512 31.3829 1.00125 -1.65512
34 1 32.4136 2.67116 -0.0980294 32.4136 2.67116 -0.0980294
35 2 34.3998 2.6936 1.42807 34.3998 2.6936 1.42807
36 2 34.2246 2.64859 -1.82909 34.2246 2.64859 -1.82909
37 1 35.2618 1.02433 -0.228849 35.2618 1.02433 -0.228849
38 2 37.2453 1.04612 1.30099 37.2453 1.04612 1.30099
39 2 37.0759 1.00244 -1.9565 37.0759 1.00244 -1.9565
40 1 38.1098 2.67042 -0.399339 38.1098 2.67042 -0.399339
41 2 40.0797 2.69081 1.14836 40.0797 2.69081 1.14836
42 2 39.9394 2.64997 -2.11053 39.9394 2.64997 -2.11053
43 1 40.9596 1.02365 -0.501291 40.9596 1.02365 -0.501291
44 2 42.909 1.04408 1.07228 42.909 1.04408 1.07228
45 2 42.8114 1.00319 -2.18817 42.8114 1.00319 -2.18817
46 1 43.8105 2.66992 -0.607061 43.8105 2.66992 -0.607061
47 2 45.7322 2.68914 1.00042 45.7322 2.68914 1.00042
48 2 45.6916 2.65068 -2.26123 45.6916 2.65068 -2.26123
49 1 46.6627 1.02329 -0.622726 46.6627 1.02329 -0.622726
50 2 48.5543 1.04396 1.02022 48.5543 1.04396 1.02022
51 2 48.5741 1.0026 -2.24161 48.5741 1.0026 -2.24161
52 1 49.5151 2.66978 -0.625748 49.5151 2.66978 -0.625748
53 2 51.3766 2.68934 1.05134 51.3766 2.68934 1.05134
54 2 51.4556 2.65022 -2.20959 51.4556 2.65022 -2.20959
55 1 1.06567 4.31646 -0.575773 1.06567 4.31646 -0.575773
56 2 2.90123 4.33385 1.12964 2.90123 4.33385 1.12964
57 2 3.03026 4.29908 -2.12974 3.03026 4.29908 -2.12974
58 1 3.9159 5.96326 -0.479942 3.9159 5.96326 -0.479942
59 2 5.73327 5.97775 1.24473 5.73327 5.97775 1.24473
60 2 5.89676 5.94878 -2.01318 5.89676 5.94878 -2.01318
61 1 6.76445 4.31687 -0.321839 6.76445 4.31687 -0.321839
62 2 8.57361 4.33555 1.4112 8.57361 4.33555 1.4112
63 2 8.75238 4.29828 -1.84587 8.75238 4.29828 -1.84587
64 1 9.61246 5.96371 -0.184045 9.61246 5.96371 -0.184045
65 2 11.4254 5.97986 1.54483 11.4254 5.97986 1.54483
66 2 11.5969 5.94764 -1.71271 11.5969 5.94764 -1.71271
67 1 12.4604 4.31753 -0.0176455 12.4604 4.31753 -0.0176455
68 2 14.2876 4.33788 1.69582 14.2876 4.33788 1.69582
69 2 14.432 4.29732 -1.56295 14.432 4.29732 -1.56295
70 1 15.3098 5.96427 0.0879611 15.3098 5.96427 0.0879611
71 2 17.1609 5.98228 1.77535 17.1609 5.98228 1.77535
72 2 17.2594 5.94637 -1.48522 17.2594 5.94637 -1.48522
73 1 18.1604 4.31813 0.191832 18.1604 4.31813 0.191832
74 2 20.0407 4.33986 1.84644 20.0407 4.33986 1.84644
75 2 20.0823 4.2965 -1.41525 20.0823 4.2965 -1.41525
76 1 21.0121 5.96465 0.205638 21.0121 5.96465 0.205638
77 2 22.9237 5.98401 1.82397 22.9237 5.98401 1.82397
78 2 22.903 5.94532 -1.43801 22.903 5.94532 -1.43801
79 1 23.8641 4.31831 0.206341 23.8641 4.31831 0.206341
80 2 25.8046 4.34067 1.78979 25.8046 4.34067 1.78979
81 2 25.725 4.29591 -1.47116 25.725 4.29591 -1.47116
82 1 26.7149 5.96456 0.113281 26.7149 5.96456 0.113281
83 2 28.6786 5.98446 1.66791 28.6786 5.98446 1.66791
84 2 28.5508 5.9446 -1.59158 28.5508 5.9446 -1.59158
85 1 29.5648 4.31793 0.0209242 29.5648 4.31793 0.0209242
86 2 31.5442 4.33986 1.55566 31.5442 4.33986 1.55566
87 2 31.3834 4.29588 -1.70228 31.3834 4.29588 -1.70228
88 1 32.413 5.96406 -0.142612 32.413 5.96406 -0.142612
89 2 34.3978 5.98313 1.38519 34.3978 5.98313 1.38519
90 2 34.2254 5.94489 -1.87221 34.2254 5.94489 -1.87221
91 1 35.2612 4.31724 -0.274505 35.2612 4.31724 -0.274505
92 2 37.2431 4.3374 1.25745 37.2431 4.3374 1.25745
93 2 37.0772 4.297 -2.00025 37.0772 4.297 -2.00025
94 1 38.1093 5.96345 -0.440326 38.1093 5.96345 -0.440326
95 2 40.0775 5.98032 1.10958 40.0775 5.98032 1.10958
96 2 39.9408 5.94656 -2.14952 39.9408 5.94656 -2.14952
97 1 40.9593 4.31665 -0.542709 40.9593 4.31665 -0.542709
98 2 42.9073 4.33465 1.03255 42.9073 4.33465 1.03255
99 2 42.8126 4.29864 -2.22799 42.8126 4.29864 -2.22799
100 1 43.8103 5.96309 -0.643574 43.8103 5.96309 -0.643574
101 2 45.7309 5.97774 0.96543 45.7309 5.97774 0.96543
102 2 45.6928 5.94847 -2.2963 45.6928 5.94847 -2.2963
103 1 46.6627 4.31638 -0.661667 46.6627 4.31638 -0.661667
104 2 48.5539 4.33336 0.981854 48.5539 4.33336 0.981854
105 2 48.5747 4.29941 -2.28 48.5747 4.29941 -2.28
106 1 49.5151 5.96304 -0.660116 49.5151 5.96304 -0.660116
107 2 51.3763 5.97685 1.0174 51.3763 5.97685 1.0174
108 2 51.4561 5.94924 -2.24359 51.4561 5.94924 -2.24359
109 1 1.06575 7.60984 -0.603722 1.06575 7.60984 -0.603722
110 2 2.90123 7.61989 1.10186 2.90123 7.61989 1.10186
111 2 3.03052 7.59978 -2.15761 3.03052 7.59978 -2.15761
112 1 3.91593 9.25668 -0.500287 3.91593 9.25668 -0.500287
113 2 5.73358 9.26276 1.22413 5.73358 9.26276 1.22413
114 2 5.89657 9.25056 -2.0339 5.89657 9.25056 -2.0339
115 1 6.76465 7.61009 -0.351162 6.76465 7.61009 -0.351162
116 2 8.57432 7.62132 1.38138 8.57432 7.62132 1.38138
117 2 8.75213 7.59887 -1.87588 8.75213 7.59887 -1.87588
118 1 9.61258 9.25686 -0.20675 9.61258 9.25686 -0.20675
119 2 11.4263 9.26462 1.52129 11.4263 9.26462 1.52129
120 2 11.5963 9.24912 -1.73647 11.5963 9.24912 -1.73647
121 1 12.4607 7.61048 -0.0502415 12.4607 7.61048 -0.0502415
122 2 14.2885 7.62369 1.66252 14.2885 7.62369 1.66252
123 2 14.4316 7.59735 -1.59649 14.4316 7.59735 -1.59649
124 1 15.3099 9.25714 0.061324 15.3099 9.25714 0.061324
125 2 17.1618 9.26697 1.74788 17.1618 9.26697 1.74788
126 2 17.2587 9.24738 -1.51291 17.2587 9.24738 -1.51291
127 1 18.1605 7.61089 0.155504 18.1605 7.61089 0.155504
128 2 20.0412 7.62597 1.80968 20.0412 7.62597 1.80968
129 2 20.0819 7.59589 -1.45222 20.0819 7.59589 -1.45222
130 1 21.0121 9.25738 0.175219 21.0121 9.25738 0.175219
131 2 22.924 9.26903 1.79304 22.924 9.26903 1.79304
132 2 22.9024 9.24578 -1.46912 22.9024 9.24578 -1.46912
133 1 23.8638 7.61104 0.167195 23.8638 7.61104 0.167195
134 2 25.8043 7.62741 1.75069 25.8043 7.62741 1.75069
135 2 25.7247 7.59466 -1.51045 25.7247 7.59466 -1.51045
136 1 26.7146 9.25737 0.0801367 26.7146 9.25737 0.0801367
137 2 28.6782 9.2702 1.63483 28.6782 9.2702 1.63483
138 2 28.5504 9.24451 -1.62483 28.5504 9.24451 -1.62483
139 1 29.5643 7.61078 -0.0194483 29.5643 7.61078 -0.0194483
140 2 31.543 7.62744 1.51618 31.543 7.62744 1.51618
141 2 31.3836 7.59405 -1.74198 31.3836 7.59405 -1.74198
142 1 32.4124 9.25707 -0.176447 32.4124 9.25707 -0.176447
143 2 34.3964 9.2697 1.35253 34.3964 9.2697 1.35253
144 2 34.2258 9.24436 -1.90509 34.2258 9.24436 -1.90509
145 1 35.2606 7.61028 -0.313291 35.2606 7.61028 -0.313291
146 2 37.241 7.62555 1.22064 37.241 7.62555 1.22064
147 2 37.0783 7.59496 -2.03731 37.0783 7.59496 -2.03731
148 1 38.1089 9.25669 -0.47138 38.1089 9.25669 -0.47138
149 2 40.0753 9.26728 1.08075 40.0753 9.26728 1.08075
150 2 39.9423 9.24609 -2.17858 39.9423 9.24609 -2.17858
151 1 40.9589 7.60987 -0.576972 40.9589 7.60987 -0.576972
152 2 42.9053 7.62252 1.0005 42.9053 7.62252 1.0005
153 2 42.8143 7.59725 -2.26022 42.8143 7.59725 -2.26022
154 1 43.8102 9.25651 -0.66923 43.8102 9.25651 -0.66923
155 2 45.729 9.26423 0.941835 45.729 9.26423 0.941835
156 2 45.6944 9.24885 -2.32 45.6944 9.24885 -2.32
157 1 46.6626 7.60974 -0.691334 46.6626 7.60974 -0.691334
158 2 48.5528 7.62025 0.953461 48.5528 7.62025 0.953461
159 2 48.5758 7.59929 -2.30846 48.5758 7.59929 -2.30846
160 1 49.5151 9.25655 -0.681358 49.5151 9.25655 -0.681358
161 2 51.3756 9.26246 0.997048 51.3756 9.26246 0.997048
162 2 51.4569 9.25067 -2.26398 51.4569 9.25067 -2.26398
163 1 1.06568 10.9034 -0.615657 1.06568 10.9034 -0.615657
164 2 2.90087 10.9047 1.09027 2.90087 10.9047 1.09027
165 2 3.03074 10.9021 -2.16924 3.03074 10.9021 -2.16924
166 1 3.91576 12.5502 -0.502843 3.91576 12.5502 -0.502843
167 2 5.73366 12.547 1.22131 5.73366 12.547 1.22131
168 2 5.89618 12.5533 -2.03677 5.89618 12.5533 -2.03677
169 1 6.76461 10.9035 -0.363489 6.76461 10.9035 -0.363489
170 2 8.57497 10.9056 1.36834 8.57497 10.9056 1.36834
171 2 8.75147 10.9013 -1.88906 8.75147 10.9013 -1.88906
172 1 9.61246 12.5501 -0.211065 9.61246 12.5501 -0.211065
173 2 11.4271 12.5483 1.51594 11.4271 12.5483 1.51594
174 2 11.5953 12.5519 -1.74195 11.5953 12.5519 -1.74195
175 1 12.4607 10.9035 -0.0658936 12.4607 10.9035 -0.0658936
176 2 14.2896 10.9076 1.64582 14.2896 10.9076 1.64582
177 2 14.4307 10.8995 -1.61338 14.4307 10.8995 -1.61338
178 1 15.3099 12.5501 0.0532111 15.3099 12.5501 0.0532111
179 2 17.1628 12.5502 1.7386 17.1628 12.5502 1.7386
180 2 17.2576 12.55 -1.52233 17.2576 12.55 -1.52233
181 1 18.1605 10.9037 0.135706 18.1605 10.9037 0.135706
182 2 20.042 10.9098 1.78895 20.042 10.9098 1.78895
183 2 20.081 10.8977 -1.47311 20.081 10.8977 -1.47311
184 1 21.012 12.5501 0.162986 21.012 12.5501 0.162986
185 2 22.9249 12.5523 1.77974 22.9249 12.5523 1.77974
186 2 22.9013 12.548 -1.4825 22.9013 12.548 -1.4825
187 1 23.8637 10.9038 0.143685 23.8637 10.9038 0.143685
188 2 25.8046 10.9117 1.72658 25.8046 10.9117 1.72658
189 2 25.7239 10.896 -1.53468 25.7239 10.896 -1.53468
190 1 26.7143 12.5502 0.0642651 26.7143 12.5502 0.0642651
191 2 28.6784 12.554 1.61835 28.6784 12.554 1.61835
192 2 28.5495 12.5464 -1.64137 28.5495 12.5464 -1.64137
193 1 29.5639 10.9037 -0.045455 29.5639 10.9037 -0.045455
194 2 31.5424 10.9125 1.49038 31.5424 10.9125 1.49038
195 2 31.3832 10.8949 -1.76792 31.3832 10.8949 -1.76792
196 1 32.412 12.5502 -0.194232 32.412 12.5502 -0.194232
197 2 34.3956 12.5544 1.33525 34.3956 12.5544 1.33525
198 2 34.2258 12.546 -1.92251 34.2258 12.546 -1.92251
199 1 35.2601 10.9035 -0.339 35.2601 10.9035 -0.339
200 2 37.2393 10.9114 1.19647 37.2393 10.9114 1.19647
201 2 37.0791 10.8955 -2.0617 37.0791 10.8955 -2.0617
202 1 38.1086 12.5501 -0.487483 38.1086 12.5501 -0.487483
203 2 40.0736 12.5527 1.06649 40.0736 12.5527 1.06649
204 2 39.9436 12.5475 -2.19301 39.9436 12.5475 -2.19301
205 1 40.9587 10.9033 -0.598511 40.9587 10.9033 -0.598511
206 2 42.9032 10.9086 0.981286 42.9032 10.9086 0.981286
207 2 42.816 10.8981 -2.2796 42.816 10.8981 -2.2796
208 1 43.81 12.5501 -0.679936 43.81 12.5501 -0.679936
209 2 45.7271 12.5498 0.933314 45.7271 12.5498 0.933314
210 2 45.6962 12.5505 -2.32859 45.6962 12.5505 -2.32859
211 1 46.6625 10.9033 -0.70696 46.6625 10.9033 -0.70696
212 2 48.5512 10.9058 0.939542 48.5512 10.9058 0.939542
213 2 48.5772 10.9009 -2.3224 48.5772 10.9009 -2.3224
214 1 49.515 12.5502 -0.686285 49.515 12.5502 -0.686285
215 2 51.3744 12.5474 0.993269 51.3744 12.5474 0.993269
216 2 51.4578 12.553 -2.26772 51.4578 12.553 -2.26772
217 1 1.06548 14.197 -0.610073 1.06548 14.197 -0.610073
218 2 2.9002 14.1895 1.09632 2.9002 14.1895 1.09632
219 2 3.03095 14.2045 -2.16312 3.03095 14.2045 -2.16312
220 1 3.91543 15.8437 -0.487612 3.91543 15.8437 -0.487612
221 2 5.7334 15.8319 1.2364 5.7334 15.8319 1.2364
222 2 5.89574 15.8554 -2.02161 5.89574 15.8554 -2.02161
223 1 6.76434 14.1968 -0.357146 6.76434 14.1968 -0.357146
224 2 8.57538 14.1896 1.37393 8.57538 14.1896 1.37393
225 2 8.75058 14.204 -1.88351 8.75058 14.204 -1.88351
226 1 9.61213 15.8433 -0.196366 9.61213 15.8433 -0.196366
227 2 11.4277 15.8321 1.52964 11.4277 15.8321 1.52964
228 2 11.5941 15.8544 -1.72827 11.5941 15.8544 -1.72827
229 1 12.4605 14.1966 -0.0621847 12.4605 14.1966 -0.0621847
230 2 14.2905 14.1908 1.64833 14.2905 14.1908 1.64833
231 2 14.4295 14.2024 -1.61096 14.4295 14.2024 -1.61096
232 1 15.3097 15.843 0.0650131 15.3097 15.843 0.0650131
233 2 17.1638 15.8333 1.74905 17.1638 15.8333 1.74905
234 2 17.2563 15.8527 -1.51187 17.2563 15.8527 -1.51187
235 1 18.1604 14.1965 0.135554 18.1604 14.1965 0.135554
236 2 20.0431 14.1927 1.78748 20.0431 14.1927 1.78748
237 2 20.0798 14.2004 -1.47463 20.0798 14.2004 -1.47463
238 1 21.0119 15.8429 0.170885 21.0119 15.8429 0.170885
239 2 22.926 15.8352 1.78616 22.926 15.8352 1.78616
240 2 22.9 15.8507 -1.47602 22.9 15.8507 -1.47602
241 1 23.8635 14.1966 0.139402 23.8635 14.1966 0.139402
242 2 25.8054 14.1948 1.72113 25.8054 14.1948 1.72113
243 2 25.7227 14.1985 -1.54013 25.7227 14.1985 -1.54013
244 1 26.7142 15.8431 0.06807 26.7142 15.8431 0.06807
245 2 28.6793 15.8373 1.62099 28.6793 15.8373 1.62099
246 2 28.5485 15.849 -1.63864 28.5485 15.849 -1.63864
247 1 29.5636 14.1967 -0.0531224 29.5636 14.1967 -0.0531224
248 2 31.5425 14.1963 1.48224 31.5425 14.1963 1.48224
249 2 31.3825 14.1972 -1.77607 31.3825 14.1972 -1.77607
250 1 32.4118 15.8434 -0.193227 32.4118 15.8434 -0.193227
251 2 34.3956 15.8385 1.33603 34.3956 15.8385 1.33603
252 2 34.2254 15.8483 -1.92171 34.2254 15.8483 -1.92171
253 1 35.2598 14.1968 -0.347572 35.2598 14.1968 -0.347572
254 2 37.2384 14.1961 1.18875 37.2384 14.1961 1.18875
255 2 37.0795 14.1975 -2.06952 37.0795 14.1975 -2.06952
256 1 38.1084 15.8436 -0.486097 38.1084 15.8436 -0.486097
257 2 40.0725 15.8378 1.06904 40.0725 15.8378 1.06904
258 2 39.9444 15.8493 -2.19053 39.9444 15.8493 -2.19053
259 1 40.9585 14.1969 -0.603895 40.9585 14.1969 -0.603895
260 2 42.9014 14.194 0.977891 42.9014 14.194 0.977891
261 2 42.8175 14.1998 -2.2831 42.8175 14.1998 -2.2831
262 1 43.81 15.8437 -0.67417 43.81 15.8437 -0.67417
263 2 45.7254 15.8356 0.940963 45.7254 15.8356 0.940963
264 2 45.6977 15.8519 -2.32094 45.6977 15.8519 -2.32094
265 1 46.6625 14.197 -0.706285 46.6625 14.197 -0.706285
266 2 48.5496 14.1912 0.942013 48.5496 14.1912 0.942013
267 2 48.5786 14.2028 -2.31989 48.5786 14.2028 -2.31989
268 1 49.5149 15.8438 -0.674555 49.5149 15.8438 -0.674555
269 2 51.3731 15.8331 1.00622 51.3731 15.8331 1.00622
270 2 51.4587 15.8546 -2.25466 51.4587 15.8546 -2.25466
271 1 1.0652 17.4905 -0.588356 1.0652 17.4905 -0.588356
272 2 2.89928 17.4755 1.11865 2.89928 17.4755 1.11865
273 2 3.03117 17.5054 -2.14066 3.03117 17.5054 -2.14066
274 1 3.915 19.137 -0.457353 3.915 19.137 -0.457353
275 2 5.73274 19.1185 1.26684 5.73274 19.1185 1.26684
276 2 5.89546 19.1554 -1.99105 5.89546 19.1554 -1.99105
277 1 6.7639 17.4901 -0.333331 6.7639 17.4901 -0.333331
278 2 8.57537 17.4745 1.39723 8.57537 17.4745 1.39723
279 2 8.74974 17.5056 -1.86014 8.74974 17.5056 -1.86014
280 1 9.61162 19.1364 -0.16487 9.61162 19.1364 -0.16487
281 2 11.4279 19.1174 1.56043 11.4279 19.1174 1.56043
282 2 11.5931 19.1553 -1.69738 11.5931 19.1553 -1.69738
283 1 12.4602 17.4896 -0.0395075 12.4602 17.4896 -0.0395075
284 2 14.2912 17.4747 1.66986 14.2912 17.4747 1.66986
285 2 14.4282 17.5045 -1.58938 14.4282 17.5045 -1.58938
286 1 15.3094 19.1359 0.0952045 15.3094 19.1359 0.0952045
287 2 17.1647 19.1176 1.77794 17.1647 19.1176 1.77794
288 2 17.255 19.1541 -1.48287 17.255 19.1541 -1.48287
289 1 18.1603 17.4893 0.15528 18.1603 17.4893 0.15528
290 2 20.0443 17.476 1.80568 20.0443 17.476 1.80568
291 2 20.0784 17.5027 -1.45633 20.0784 17.5027 -1.45633
292 1 21.0119 19.1357 0.198006 21.0119 19.1357 0.198006
293 2 22.9274 19.1191 1.8116 22.9274 19.1191 1.8116
294 2 22.8986 19.1524 -1.45039 22.8986 19.1524 -1.45039
295 1 23.8635 17.4894 0.155126 23.8635 17.4894 0.155126
296 2 25.8067 17.478 1.73528 25.8067 17.478 1.73528
297 2 25.7214 17.5009 -1.52582 25.7214 17.5009 -1.52582
298 1 26.7143 19.136 0.0912318 26.7143 19.136 0.0912318
299 2 28.6806 19.1212 1.64256 28.6806 19.1212 1.64256
300 2 28.5473 19.1508 -1.61683 28.5473 19.1508 -1.61683
301 1 29.5636 17.4898 -0.0412177 29.5636 17.4898 -0.0412177
302 2 31.5433 17.48 1.49307 31.5433 17.48 1.49307
303 2 31.3816 17.4995 -1.7651 31.3816 17.4995 -1.7651
304 1 32.4119 19.1365 -0.173427 32.4119 19.1365 -0.173427
305 2 34.3964 19.1231 1.3549 34.3964 19.1231 1.3549
306 2 34.2247 19.1499 -1.90266 34.2247 19.1499 -1.90266
307 1 35.2597 17.4901 -0.337632 35.2597 17.4901 -0.337632
308 2 37.2382 17.4809 1.19875 37.2382 17.4809 1.19875
309 2 37.0795 17.4994 -2.05948 37.0795 17.4994 -2.05948
310 1 38.1084 19.137 -0.467372 38.1084 19.137 -0.467372
311 2 40.0723 19.1237 1.08802 40.0723 19.1237 1.08802
312 2 39.9446 19.1502 -2.17149 39.9446 19.1502 -2.17149
313 1 40.9584 17.4904 -0.592347 40.9584 17.4904 -0.592347
314 2 42.9003 17.4799 0.990724 42.9003 17.4799 0.990724
315 2 42.8186 17.5009 -2.27027 42.8186 17.5009 -2.27027
316 1 43.81 19.1372 -0.652983 43.81 19.1372 -0.652983
317 2 45.7244 19.1226 0.963375 45.7244 19.1226 0.963375
318 2 45.6987 19.1519 -2.29848 45.6987 19.1519 -2.29848
319 1 46.6624 17.4906 -0.689767 46.6624 17.4906 -0.689767
320 2 48.5481 17.4776 0.960089 48.5481 17.4776 0.960089
321 2 48.5798 17.5035 -2.30173 48.5798 17.5035 -2.30173
322 1 49.5147 19.1373 -0.648433 49.5147 19.1373 -0.648433
323 2 51.3719 19.1204 1.03346 51.3719 19.1204 1.03346
324 2 51.4594 19.1541 -2.22729 51.4594 19.1541 -2.22729
325 1 1.06489 20.7838 -0.554266 1.06489 20.7838 -0.554266
326 2 2.8982 20.7638 1.15349 2.8982 20.7638 1.15349
327 2 3.03144 20.8037 -2.10569 3.03144 20.8037 -2.10569
328 1 3.91454 22.4301 -0.416976 3.91454 22.4301 -0.416976
329 2 5.73171 22.4077 1.30775 5.73171 22.4077 1.30775
330 2 5.89542 22.4523 -1.95 5.89542 22.4523 -1.95
331 1 6.76335 20.7833 -0.295898 6.76335 20.7833 -0.295898
332 2 8.57484 20.7618 1.43461 8.57484 20.7618 1.43461
333 2 8.74917 20.8046 -1.82264 8.74917 20.8046 -1.82264
334 1 9.61102 22.4294 -0.121459 9.61102 22.4294 -0.121459
335 2 11.4274 22.4056 1.60363 11.4274 22.4056 1.60363
336 2 11.5924 22.453 -1.65405 11.5924 22.453 -1.65405
337 1 12.4597 20.7826 -0.00116173 12.4597 20.7826 -0.00116173
338 2 14.2915 20.7607 1.70736 14.2915 20.7607 1.70736
339 2 14.4271 20.8043 -1.55176 14.4271 20.8043 -1.55176
340 1 15.309 22.4287 0.139363 15.309 22.4287 0.139363
341 2 17.1652 22.4047 1.8211 17.1652 22.4047 1.8211
342 2 17.2539 22.4527 -1.43956 17.2539 22.4527 -1.43956
343 1 18.1601 20.7821 0.192211 18.1601 20.7821 0.192211
344 2 20.0454 20.7611 1.84114 20.0454 20.7611 1.84114
345 2 20.0771 20.8031 -1.42069 20.0771 20.8031 -1.42069
346 1 21.0119 22.4284 0.240637 21.0119 22.4284 0.240637
347 2 22.9288 22.4052 1.85265 22.9288 22.4052 1.85265
348 2 22.8974 22.4517 -1.4091 22.8974 22.4517 -1.4091
349 1 23.8636 20.7822 0.188906 23.8636 20.7822 0.188906
350 2 25.8083 20.7627 1.7673 25.8083 20.7627 1.7673
351 2 25.7201 20.8017 -1.49353 25.7201 20.8017 -1.49353
352 1 26.7146 22.4288 0.130766 26.7146 22.4288 0.130766
353 2 28.6824 22.4071 1.68028 28.6824 22.4071 1.68028
354 2 28.5461 22.4506 -1.57881 28.5461 22.4506 -1.57881
355 1 29.5638 20.7827 -0.0111923 29.5638 20.7827 -0.0111923
356 2 31.5447 20.765 1.52153 31.5447 20.765 1.52153
357 2 31.3806 20.8005 -1.73636 31.3806 20.8005 -1.73636
358 1 32.4122 22.4295 -0.137431 32.4122 22.4295 -0.137431
359 2 34.3979 22.4095 1.38935 34.3979 22.4095 1.38935
360 2 34.2237 22.4496 -1.86794 34.2237 22.4496 -1.86794
361 1 35.2599 20.7833 -0.310477 35.2599 20.7833 -0.310477
362 2 37.239 20.7668 1.22511 37.239 20.7668 1.22511
363 2 37.0789 20.7999 -2.03295 37.0789 20.7999 -2.03295
364 1 38.1086 22.4302 -0.433906 38.1086 22.4302 -0.433906
365 2 40.073 22.4113 1.12074 40.073 22.4113 1.12074
366 2 39.9442 22.449 -2.13864 39.9442 22.449 -2.13864
367 1 40.9585 20.7838 -0.565582 40.9585 20.7838 -0.565582
368 2 42.9 20.7672 1.01782 42.9 20.7672 1.01782
369 2 42.8189 20.8003 -2.24311 42.8189 20.8003 -2.24311
370 1 43.81 22.4305 -0.619537 43.81 22.4305 -0.619537
371 2 45.7241 22.4115 0.997133 45.7241 22.4115 0.997133
372 2 45.699 22.4494 -2.26468 45.699 22.4494 -2.26468
373 1 46.6623 20.784 -0.660152 46.6623 20.784 -0.660152
374 2 48.5471 20.766 0.990732 48.5471 20.766 0.990732
375 2 48.5806 20.8019 -2.27101 48.5806 20.8019 -2.27101
376 1 49.5145 22.4305 -0.612107 49.5145 22.4305 -0.612107
377 2 51.3709 22.4101 1.07061 51.3709 22.4101 1.07061
378 2 51.4598 22.4508 -2.19007 51.4598 22.4508 -2.19007
379 1 1.06457 24.0768 -0.513105 1.06457 24.0768 -0.513105
380 2 2.89716 24.0549 1.19538 2.89716 24.0549 1.19538
381 2 3.03165 24.0987 -2.06372 3.03165 24.0987 -2.06372
382 1 3.91408 25.723 -0.372695 3.91408 25.723 -0.372695
383 2 5.73055 25.7004 1.35278 5.73055 25.7004 1.35278
384 2 5.89551 25.7456 -1.90492 5.89551 25.7456 -1.90492
385 1 6.76277 24.0762 -0.250737 6.76277 24.0762 -0.250737
386 2 8.57384 24.0523 1.4802 8.57384 24.0523 1.4802
387 2 8.74894 24.1001 -1.77693 8.74894 24.1001 -1.77693
388 1 9.61038 25.7223 -0.0730469 9.61038 25.7223 -0.0730469
389 2 11.4266 25.6976 1.65233 11.4266 25.6976 1.65233
390 2 11.592 25.7468 -1.60527 11.592 25.7468 -1.60527
391 1 12.4591 24.0754 0.0469024 12.4591 24.0754 0.0469024
392 2 14.2913 24.0502 1.75505 14.2913 24.0502 1.75505
393 2 14.4264 24.1006 -1.50395 14.4264 24.1006 -1.50395
394 1 15.3085 25.7215 0.190425 15.3085 25.7215 0.190425
395 2 17.1653 25.6957 1.87167 17.1653 25.6957 1.87167
396 2 17.2532 25.7473 -1.3889 17.2532 25.7473 -1.3889
397 1 18.1598 24.0749 0.240835 18.1598 24.0749 0.240835
398 2 20.0462 24.0494 1.88865 20.0462 24.0494 1.88865
399 2 20.0761 24.1003 -1.37301 20.0761 24.1003 -1.37301
400 1 21.0119 25.7212 0.29219 21.0119 25.7212 0.29219
401 2 22.9299 25.6952 1.90303 22.9299 25.6952 1.90303
402 2 22.8966 25.7473 -1.35854 22.8966 25.7473 -1.35854
403 1 23.8638 24.0749 0.236009 23.8638 24.0749 0.236009
404 2 25.8099 24.0503 1.81273 25.8099 24.0503 1.81273
405 2 25.7191 24.0997 -1.44783 25.7191 24.0997 -1.44783
406 1 26.715 25.7216 0.180852 26.715 25.7216 0.180852
407 2 28.6843 25.6964 1.7286 28.6843 25.6964 1.7286
408 2 28.5452 25.747 -1.53021 28.5452 25.747 -1.53021
409 1 29.5642 24.0755 0.0328767 29.5642 24.0755 0.0328767
410 2 31.5467 24.0525 1.56373 31.5467 24.0525 1.56373
411 2 31.3795 24.0988 -1.69385 31.3795 24.0988 -1.69385
412 1 32.4128 25.7224 -0.090425 32.4128 25.7224 -0.090425
413 2 34.4 25.6989 1.43436 34.4 25.6989 1.43436
414 2 34.2226 25.7461 -1.82265 34.2226 25.7461 -1.82265
415 1 35.2603 24.0764 -0.269858 35.2603 24.0764 -0.269858
416 2 37.2406 24.055 1.26413 37.2406 24.055 1.26413
417 2 37.078 24.0978 -1.99371 37.078 24.0978 -1.99371
418 1 38.109 25.7232 -0.390565 38.109 25.7232 -0.390565
419 2 40.0747 25.7016 1.1624 40.0747 25.7016 1.1624
420 2 39.9431 25.7447 -2.09683 39.9431 25.7447 -2.09683
421 1 40.9587 24.0769 -0.527423 40.9587 24.0769 -0.527423
422 2 42.9008 24.0567 1.05525 42.9008 24.0567 1.05525
423 2 42.8184 24.097 -2.20561 42.8184 24.097 -2.20561
424 1 43.8102 25.7235 -0.578729 43.8102 25.7235 -0.578729
425 2 45.7247 25.7031 1.03724 45.7247 25.7031 1.03724
426 2 45.6984 25.7438 -2.22458 45.6984 25.7438 -2.22458
427 1 46.6623 24.0771 -0.621853 46.6623 24.0771 -0.621853
428 2 48.5468 24.0567 1.0293 48.5468 24.0567 1.0293
429 2 48.5807 24.0974 -2.23243 48.5807 24.0974 -2.23243
430 1 49.5144 25.7235 -0.570984 49.5144 25.7235 -0.570984
431 2 51.3704 25.7026 1.11206 51.3704 25.7026 1.11206
432 2 51.4598 25.7442 -2.14864 51.4598 25.7442 -2.14864
433 1 1.06429 27.3697 -0.47105 1.06429 27.3697 -0.47105
434 2 2.89642 27.3493 1.23792 2.89642 27.3493 1.23792
435 2 3.03165 27.39 -2.02122 3.03165 27.39 -2.02122
436 1 3.9137 29.0158 -0.331434 3.9137 29.0158 -0.331434
437 2 5.72961 28.9967 1.39468 5.72961 28.9967 1.39468
438 2 5.89554 29.0349 -1.86308 5.89554 29.0349 -1.86308
439 1 6.76221 27.3691 -0.204983 6.76221 27.3691 -0.204983
440 2 8.57267 27.3467 1.52666 8.57267 27.3467 1.52666
441 2 8.74893 27.3914 -1.73044 8.74893 27.3914 -1.73044
442 1 9.60981 29.0152 -0.0277507 9.60981 29.0152 -0.0277507
443 2 11.4256 28.9941 1.69822 11.4256 28.9941 1.69822
444 2 11.5919 29.0362 -1.55941 11.5919 29.0362 -1.55941
445 1 12.4585 27.3683 0.0967001 12.4585 27.3683 0.0967001
446 2 14.2907 27.3441 1.80498 14.2907 27.3441 1.80498
447 2 14.4259 27.3925 -1.45399 14.4259 27.3925 -1.45399
448 1 15.3081 29.0145 0.239423 15.3081 29.0145 0.239423
449 2 17.165 28.9918 1.92075 17.165 28.9918 1.92075
450 2 17.2529 29.0372 -1.33985 17.2529 29.0372 -1.33985
451 1 18.1596 27.3678 0.29302 18.1596 27.3678 0.29302
452 2 20.0466 27.3424 1.94032 20.0466 27.3424 1.94032
453 2 20.0756 27.3931 -1.32128 20.0756 27.3931 -1.32128
454 1 21.0119 29.0142 0.343574 21.0119 29.0142 0.343574
455 2 22.9305 28.9902 1.95395 22.9305 28.9902 1.95395
456 2 22.8964 29.0383 -1.30761 22.8964 29.0383 -1.30761
457 1 23.8641 27.3677 0.288784 23.8641 27.3677 0.288784
458 2 25.8113 27.3422 1.86429 25.8113 27.3422 1.86429
459 2 25.7185 27.3935 -1.39612 25.7185 27.3935 -1.39612
460 1 26.7156 29.0145 0.232903 26.7156 29.0145 0.232903
461 2 28.686 28.9904 1.77937 28.686 28.9904 1.77937
462 2 28.5447 29.0388 -1.47934 28.5447 29.0388 -1.47934
463 1 29.5649 27.3684 0.0841291 29.5649 27.3684 0.0841291
464 2 31.5489 27.3437 1.61309 31.5489 27.3437 1.61309
465 2 31.3786 27.3932 -1.64425 31.3786 27.3932 -1.64425
466 1 32.4135 29.0153 -0.0402145 32.4135 29.0153 -0.0402145
467 2 34.4025 28.9924 1.48246 34.4025 28.9924 1.48246
468 2 34.2216 29.0383 -1.77437 34.2216 29.0383 -1.77437
469 1 35.2609 27.3693 -0.222017 35.2609 27.3693 -0.222017
470 2 37.2429 27.3466 1.30978 37.2429 27.3466 1.30978
471 2 37.0767 27.392 -1.94785 37.0767 27.392 -1.94785
472 1 38.1096 29.016 -0.344479 38.1096 29.016 -0.344479
473 2 40.0771 28.9955 1.20615 40.0771 28.9955 1.20615
474 2 39.9415 29.0365 -2.05298 39.9415 29.0365 -2.05298
475 1 40.959 27.3699 -0.4837 40.959 27.3699 -0.4837
476 2 42.9025 27.3493 1.09728 42.9025 27.3493 1.09728
477 2 42.8171 27.3903 -2.16355 42.8171 27.3903 -2.16355
478 1 43.8103 29.0164 -0.537111 43.8103 29.0164 -0.537111
479 2 45.7262 28.9979 1.07731 45.7262 28.9979 1.07731
480 2 45.697 29.0347 -2.18459 45.697 29.0347 -2.18459
481 1 46.6623 27.37 -0.580616 46.6623 27.37 -0.580616
482 2 48.5472 27.3504 1.06998 48.5472 27.3504 1.06998
483 2 48.58 27.3895 -2.19183 48.58 27.3895 -2.19183
484 1 49.5143 29.0162 -0.531405 49.5143 29.0162 -0.531405
485 2 51.3705 28.9984 1.15137 51.3705 28.9984 1.15137
486 2 51.4593 29.0341 -2.10946 51.4593 29.0341 -2.10946
487 1 1.06408 30.6625 -0.434905 1.06408 30.6625 -0.434905
488 2 2.89618 30.6471 1.27414 2.89618 30.6471 1.27414
489 2 3.03133 30.6778 -1.98515 3.03133 30.6778 -1.98515
490 1 3.91345 32.3087 -0.300377 3.91345 32.3087 -0.300377
491 2 5.72915 32.2967 1.42604 5.72915 32.2967 1.42604
492 2 5.89542 32.3206 -1.83185 5.89542 32.3206 -1.83185
493 1 6.76178 30.662 -0.166356 6.76178 30.662 -0.166356
494 2 8.5717 30.6452 1.56596 8.5717 30.6452 1.56596
495 2 8.74898 30.6787 -1.69122 8.74898 30.6787 -1.69122
496 1 9.60942 32.3083 0.00613537 9.60942 32.3083 0.00613537
497 2 11.4247 32.2949 1.73277 11.4247 32.2949 1.73277
498 2 11.592 32.3216 -1.52495 11.592 32.3216 -1.52495
499 1 12.458 30.6614 0.139259 12.458 30.6614 0.139259
500 2 14.2899 30.6428 1.84806 14.2899 30.6428 1.84806
501 2 14.4259 30.6799 -1.41099 14.4259 30.6799 -1.41099
502 1 15.3078 32.3078 0.277028 15.3078 32.3078 0.277028
503 2 17.1643 32.2925 1.95899 17.1643 32.2925 1.95899
504 2 17.2532 32.3231 -1.30171 17.2532 32.3231 -1.30171
505 1 18.1594 30.6609 0.339081 18.1594 30.6609 0.339081
506 2 20.0464 30.6405 1.98658 20.0464 30.6405 1.98658
507 2 20.0756 30.6813 -1.27508 20.0756 30.6813 -1.27508
508 1 21.0119 32.3075 0.384845 21.0119 32.3075 0.384845
509 2 22.9304 32.2903 1.9956 22.9304 32.2903 1.9956
510 2 22.8968 32.3248 -1.26607 22.8968 32.3248 -1.26607
511 1 23.8644 30.6609 0.337434 23.8644 30.6609 0.337434
512 2 25.8122 30.6392 1.91252 25.8122 30.6392 1.91252
513 2 25.7185 30.6826 -1.34792 25.7185 30.6826 -1.34792
514 1 26.7161 32.3077 0.276886 26.7161 32.3077 0.276886
515 2 28.687 32.2894 1.82289 28.687 32.2894 1.82289
516 2 28.5449 32.3262 -1.43589 28.5449 32.3262 -1.43589
517 1 29.5656 30.6613 0.133297 29.5656 30.6613 0.133297
518 2 31.5508 30.6398 1.6608 31.5508 30.6398 1.6608
519 2 31.3781 30.6831 -1.59648 31.3781 30.6831 -1.59648
520 1 32.4143 32.3082 0.003652 32.4143 32.3082 0.003652
521 2 34.4047 32.2906 1.52458 34.4047 32.2906 1.52458
522 2 34.2208 32.3261 -1.7322 34.2208 32.3261 -1.7322
523 1 35.2617 30.6621 -0.175472 35.2617 30.6621 -0.175472
524 2 37.2456 30.6424 1.35396 37.2456 30.6424 1.35396
525 2 37.0753 30.6819 -1.90355 37.0753 30.6819 -1.90355
526 1 38.1102 32.3088 -0.304361 38.1102 32.3088 -0.304361
527 2 40.0797 32.2935 1.24379 40.0797 32.2935 1.24379
528 2 39.9398 32.3243 -2.0153 39.9398 32.3243 -2.0153
529 1 40.9594 30.6626 -0.442094 40.9594 30.6626 -0.442094
530 2 42.9047 30.6455 1.13659 42.9047 30.6455 1.13659
531 2 42.8154 30.6797 -2.12425 42.8154 30.6797 -2.12425
532 1 43.8106 32.3091 -0.502399 43.8106 32.3091 -0.502399
533 2 45.7281 32.2962 1.11002 45.7281 32.2962 1.11002
534 2 45.6954 32.3219 -2.15199 45.6954 32.3219 -2.15199
535 1 46.6624 30.6627 -0.543381 46.6624 30.6627 -0.543381
536 2 48.5483 30.6473 1.10602 48.5483 30.6473 1.10602
537 2 48.5789 30.678 -2.15596 48.5789 30.678 -2.15596
538 1 49.5142 32.309 -0.500344 49.5142 32.309 -0.500344
539 2 51.3712 32.2974 1.18169 51.3712 32.2974 1.18169