ITEM: TIMESTEP
45000
ITEM: NUMBER OF ATOMS
810
ITEM: BOX BOUNDS pp pp pp
8.5800475618717897e-01 5.2159600243811752e+01
8.1521027384105493e-01 5.0201004726158800e+01
-1.0000000000000000e+01 1.0000000000000000e+01
ITEM: ATOMS id type x y z xu yu zu
1 1 1.06453 1.032 0.166448 1.06453 1.032 0.166448
2 2 3.0301 1.09207 1.71779 3.0301 1.09207 1.71779
3 2 2.8986 0.971422 -1.53949 2.8986 0.971422 -1.53949
4 1 3.91354 2.67666 -0.010493 3.91354 2.67666 -0.010493
5 2 5.89301 2.73376 1.52308 5.89301 2.73376 1.52308
6 2 5.73187 2.61907 -1.73312 5.73187 2.61907 -1.73312
7 1 6.76259 1.03003 -0.0940234 6.76259 1.03003 -0.0940234
8 2 8.74908 1.08731 1.43075 8.74908 1.08731 1.43075
9 2 8.5732 0.972213 -1.82464 8.5732 0.972213 -1.82464
10 1 9.60971 2.67454 -0.306689 9.60971 2.67454 -0.306689
11 2 11.5897 2.72798 1.22687 11.5897 2.72798 1.22687
12 2 11.4278 2.6208 -2.02949 11.4278 2.6208 -2.02949
13 1 12.4588 1.02784 -0.394243 12.4588 1.02784 -0.394243
14 2 14.4263 1.0817 1.15557 14.4263 1.0817 1.15557
15 2 14.2908 0.973749 -2.10199 14.2908 0.973749 -2.10199
16 1 15.3081 2.67283 -0.567434 15.3081 2.67283 -0.567434
17 2 17.2522 2.72304 1.01202 17.2522 2.72304 1.01202
18 2 17.1657 2.62265 -2.24739 17.1657 2.62265 -2.24739
19 1 18.1597 1.02649 -0.59204 18.1597 1.02649 -0.59204
20 2 20.078 1.07826 1.01884 20.078 1.07826 1.01884
21 2 20.0442 0.974787 -2.24149 20.0442 0.974787 -2.24149
22 1 21.0119 2.67217 -0.673457 21.0119 2.67217 -0.673457
23 2 22.9001 2.72163 0.97279 22.9001 2.72163 0.97279
24 2 22.9268 2.62287 -2.28769 22.9268 2.62287 -2.28769
25 1 23.8641 1.02635 -0.599615 23.8641 1.02635 -0.599615
26 2 25.7247 1.07887 1.07773 25.7247 1.07887 1.07773
27 2 25.8054 0.973982 -2.18173 25.8054 0.973982 -2.18173
28 1 26.7159 2.67256 -0.581416 26.7159 2.67256 -0.581416
29 2 28.5529 2.72407 1.12163 28.5529 2.72407 1.12163
30 2 28.6791 2.62124 -2.13642 28.6791 2.62124 -2.13642
31 1 29.5656 1.02728 -0.418509 29.5656 1.02728 -0.418509
32 2 31.386 1.08296 1.30203 31.386 1.08296 1.30203
33 2 31.5435 0.97185 -1.95443 31.5435 0.97185 -1.95443
34 1 32.415 2.67383 -0.336416 32.415 2.67383 -0.336416
35 2 34.2285 2.72899 1.39116 34.2285 2.72899 1.39116
36 2 34.399 2.61898 -1.8647 34.399 2.61898 -1.8647
37 1 35.2625 1.02905 -0.131363 35.2625 1.02905 -0.131363
38 2 37.0785 1.08862 1.5933 37.0785 1.08862 1.5933
39 2 37.2442 0.969936 -1.66251 37.2442 0.969936 -1.66251
40 1 38.1115 2.67569 -0.0463723 38.1115 2.67569 -0.0463723
41 2 39.9407 2.73457 1.66404 39.9407 2.73457 1.66404
42 2 40.0812 2.61731 -1.59305 40.0812 2.61731 -1.59305
43 1 40.9602 1.03115 0.135787 40.9602 1.03115 0.135787
44 2 42.8116 1.09313 1.82198 42.8116 1.09313 1.82198
45 2 42.9097 0.969632 -1.43638 42.9097 0.969632 -1.43638
46 1 43.8113 2.67745 0.158809 43.8113 2.67745 0.158809
47 2 45.6907 2.738 1.81346 45.6907 2.738 1.81346
48 2 45.734 2.61722 -1.44626 45.734 2.61722 -1.44626
49 1 46.6629 1.03246 0.257244 46.6629 1.03246 0.257244
50 2 48.5746 1.09426 1.87452 48.5746 1.09426 1.87452
51 2 48.5539 0.970665 -1.38523 48.5539 0.970665 -1.38523
52 1 49.5147 2.67793 0.175867 49.5147 2.67793 0.175867
53 2 51.4548 2.73757 1.75868 51.4548 2.73757 1.75868
54 2 51.3758 2.61808 -1.50041 51.3758 2.61808 -1.50041
55 1 1.06351 4.32299 0.0453641 1.06351 4.32299 0.0453641
56 2 3.02615 4.37733 1.60023 3.02615 4.37733 1.60023
57 2 2.90018 4.26833 -1.6578 2.90018 4.26833 -1.6578
58 1 3.91227 5.96798 -0.120991 3.91227 5.96798 -0.120991
59 2 5.88856 6.01407 1.41678 5.88856 6.01407 1.41678
60 2 5.73378 5.92159 -1.8405 5.73378 5.92159 -1.8405
61 1 6.76111 4.3213 -0.210314 6.76111 4.3213 -0.210314
62 2 8.74417 4.37226 1.31894 8.74417 4.37226 1.31894
63 2 8.57538 4.27002 -1.93727 8.57538 4.27002 -1.93727
64 1 9.60845 5.96635 -0.410391 9.60845 5.96635 -0.410391
65 2 11.585 6.00874 1.12788 11.585 6.00874 1.12788
66 2 11.4304 5.92387 -2.12946 11.4304 5.92387 -2.12946
67 1 12.4577 4.31949 -0.502954 12.4577 4.31949 -0.502954
68 2 14.4219 4.36667 1.05129 14.4219 4.36667 1.05129
69 2 14.2936 4.27229 -2.2069 14.2936 4.27229 -2.2069
70 1 15.3074 5.96513 -0.663129 15.3074 5.96513 -0.663129
71 2 17.2489 6.00459 0.919937 17.2489 6.00459 0.919937
72 2 17.1682 5.9258 -2.34011 17.1682 5.9258 -2.34011
73 1 18.1593 4.31845 -0.69375 18.1593 4.31845 -0.69375
74 2 20.0756 4.36355 0.919804 20.0756 4.36355 0.919804
75 2 20.0463 4.27352 -2.34084 20.0463 4.27352 -2.34084
76 1 21.0118 5.96469 -0.764622 21.0118 5.96469 -0.764622
77 2 22.8991 6.00363 0.88309 22.8991 6.00363 0.88309
78 2 22.9281 5.92591 -2.37782 22.9281 5.92591 -2.37782
79 1 23.8644 4.31837 -0.699574 23.8644 4.31837 -0.699574
80 2 25.7248 4.3642 0.978318 25.7248 4.3642 0.978318
81 2 25.8064 4.2727 -2.28142 25.8064 4.2727 -2.28142
82 1 26.7164 5.96497 -0.674016 26.7164 5.96497 -0.674016
83 2 28.5538 6.00553 1.02904 28.5538 6.00553 1.02904
84 2 28.6796 5.92455 -2.22956 28.6796 5.92455 -2.22956
85 1 29.5665 4.31911 -0.522586 29.5665 4.31911 -0.522586
86 2 31.3876 4.36764 1.19741 31.3876 4.36764 1.19741
87 2 31.544 4.27077 -2.05952 31.544 4.27077 -2.05952
88 1 32.416 5.96588 -0.434491 32.416 5.96588 -0.434491
89 2 34.2303 6.00918 1.2926 34.2303 6.00918 1.2926
90 2 34.3994 5.92281 -1.96404 34.3994 5.92281 -1.96404
91 1 35.2638 4.32052 -0.242749 35.2638 4.32052 -0.242749
92 2 37.0805 4.37273 1.48132 37.0805 4.37273 1.48132
93 2 37.2448 4.26868 -1.77511 37.2448 4.26868 -1.77511
94 1 38.1126 5.96723 -0.151734 38.1126 5.96723 -0.151734
95 2 39.9422 6.01398 1.55839 39.9422 6.01398 1.55839
96 2 40.0817 5.92088 -1.69961 40.0817 5.92088 -1.69961
97 1 40.9613 4.32223 0.017034 40.9613 4.32223 0.017034
98 2 42.8121 4.37765 1.70375 42.8121 4.37765 1.70375
99 2 42.9108 4.26727 -1.55519 42.9108 4.26727 -1.55519
100 1 43.8119 5.96856 0.0470315 43.8119 5.96856 0.0470315
101 2 45.6902 6.01771 1.70283 45.6902 6.01771 1.70283
102 2 45.7349 5.91976 -1.55778 45.7349 5.91976 -1.55778
103 1 46.6629 4.32337 0.134908 46.6629 4.32337 0.134908
104 2 48.5725 4.3795 1.75446 48.5725 4.3795 1.75446
105 2 48.5554 4.26737 -1.50589 48.5554 4.26737 -1.50589
106 1 49.5142 5.96896 0.062283 49.5142 5.96896 0.062283
107 2 51.4519 6.01774 1.64799 51.4519 6.01774 1.64799
108 2 51.3772 5.92011 -1.61206 51.3772 5.92011 -1.61206
109 1 1.06264 7.61443 -0.0535578 1.06264 7.61443 -0.0535578
110 2 3.02269 7.65324 1.50474 3.02269 7.65324 1.50474
111 2 2.90167 7.57546 -1.75445 2.90167 7.57546 -1.75445
112 1 3.91134 9.26007 -0.199851 3.91134 9.26007 -0.199851
113 2 5.88499 9.28694 1.34159 5.88499 9.28694 1.34159
114 2 5.73555 9.23304 -1.91684 5.73555 9.23304 -1.91684
115 1 6.75992 7.61327 -0.304114 6.75992 7.61327 -0.304114
116 2 8.73978 7.64888 1.22956 8.73978 7.64888 1.22956
117 2 8.57765 7.5775 -2.02781 8.57765 7.5775 -2.02781
118 1 9.60759 9.25913 -0.482811 9.60759 9.25913 -0.482811
119 2 11.5813 9.28307 1.05937 11.5813 9.28307 1.05937
120 2 11.4326 9.23519 -2.19898 11.4326 9.23519 -2.19898
121 1 12.4568 7.61208 -0.589044 12.4568 7.61208 -0.589044
122 2 14.4181 7.64453 0.969244 14.4181 7.64453 0.969244
123 2 14.2961 7.5797 -2.28984 14.2961 7.5797 -2.28984
124 1 15.307 9.25848 -0.728868 15.307 9.25848 -0.728868
125 2 17.2466 9.28054 0.856904 17.2466 9.28054 0.856904
126 2 17.17 9.23655 -2.40383 17.17 9.23655 -2.40383
127 1 18.159 7.61144 -0.773592 18.159 7.61144 -0.773592
128 2 20.0737 7.64245 0.842227 20.0737 7.64245 0.842227
129 2 20.048 7.58059 -2.41901 20.048 7.58059 -2.41901
130 1 21.0118 9.25826 -0.827271 21.0118 9.25826 -0.827271
131 2 22.8985 9.28021 0.821482 22.8985 9.28021 0.821482
132 2 22.9289 9.23642 -2.43997 22.9289 9.23642 -2.43997
133 1 23.8647 7.61139 -0.778252 23.8647 7.61139 -0.778252
134 2 25.7248 7.64303 0.900209 25.7248 7.64303 0.900209
135 2 25.8071 7.57988 -2.3601 25.8071 7.57988 -2.3601
136 1 26.7168 9.2584 -0.737956 26.7168 9.2584 -0.737956
137 2 28.5543 9.28119 0.965359 28.5543 9.28119 0.965359
138 2 28.6802 9.23569 -2.29388 28.6802 9.23569 -2.29388
139 1 29.5672 7.61185 -0.604568 29.5672 7.61185 -0.604568
140 2 31.3888 7.64516 1.11534 31.3888 7.64516 1.11534
141 2 31.5445 7.57868 -2.14234 31.5445 7.57868 -2.14234
142 1 32.4167 9.25887 -0.501814 32.4167 9.25887 -0.501814
143 2 34.2313 9.28291 1.22524 34.2313 9.28291 1.22524
144 2 34.3998 9.23496 -2.03222 34.3998 9.23496 -2.03222
145 1 35.2648 7.61275 -0.330208 35.2648 7.61275 -0.330208
146 2 37.0821 7.64857 1.39346 37.0821 7.64857 1.39346
147 2 37.245 7.57719 -1.86394 37.245 7.57719 -1.86394
148 1 38.1133 9.2596 -0.223991 38.1133 9.2596 -0.223991
149 2 39.9435 9.28596 1.48572 39.9435 9.28596 1.48572
150 2 40.0816 9.23349 -1.77331 40.0816 9.23349 -1.77331
151 1 40.962 7.61387 -0.0772193 40.962 7.61387 -0.0772193
152 2 42.813 7.65274 1.60952 42.813 7.65274 1.60952
153 2 42.911 7.57537 -1.65049 42.911 7.57537 -1.65049
154 1 43.8122 9.26036 -0.0312778 43.8122 9.26036 -0.0312778
155 2 45.6905 9.28923 1.62483 45.6905 9.28923 1.62483
156 2 45.7349 9.23176 -1.63685 45.7349 9.23176 -1.63685
157 1 46.6629 7.61467 0.0357266 46.6629 7.61467 0.0357266
158 2 48.5712 7.65492 1.65698 48.5712 7.65492 1.65698
159 2 48.5561 7.57458 -1.60445 48.5561 7.57458 -1.60445
160 1 49.5138 9.26064 -0.0190818 49.5138 9.26064 -0.0190818
161 2 51.4499 9.28977 1.56878 51.4499 9.28977 1.56878
162 2 51.378 9.23151 -1.69236 51.378 9.23151 -1.69236
163 1 1.06208 10.9066 -0.112589 1.06208 10.9066 -0.112589
164 2 3.02037 10.923 1.44815 3.02037 10.923 1.44815
165 2 2.90275 10.8902 -1.81197 2.90275 10.8902 -1.81197
166 1 3.91092 12.5529 -0.233164 3.91092 12.5529 -0.233164
167 2 5.88291 12.5558 1.31055 5.88291 12.5558 1.31055
168 2 5.73685 12.5499 -1.94848 5.73685 12.5499 -1.94848
169 1 6.75923 10.9061 -0.3588 6.75923 10.9061 -0.3588
170 2 8.73675 10.9201 1.17817 8.73675 10.9201 1.17817
171 2 8.5795 10.8921 -2.08011 8.5795 10.8921 -2.08011
172 1 9.60728 12.5527 -0.511294 9.60728 12.5527 -0.511294
173 2 11.5794 12.5539 1.03308 11.5794 12.5539 1.03308
174 2 11.4341 12.5514 -2.22576 11.4341 12.5514 -2.22576
175 1 12.4564 10.9056 -0.637628 12.4564 10.9056 -0.637628
176 2 14.4158 10.9177 0.923323 14.4158 10.9177 0.923323
177 2 14.2978 10.8936 -2.33644 14.2978 10.8936 -2.33644
178 1 15.3069 12.5526 -0.753345 15.3069 12.5526 -0.753345
179 2 17.2456 12.5533 0.83359 17.2456 12.5533 0.83359
180 2 17.1708 12.5519 -2.42746 17.1708 12.5519 -2.42746
181 1 18.1589 10.9054 -0.818179 18.1589 10.9054 -0.818179
182 2 20.0728 10.917 0.798918 20.0728 10.917 0.798918
183 2 20.0489 10.8939 -2.46279 20.0489 10.8939 -2.46279
184 1 21.0118 12.5526 -0.850683 21.0118 12.5526 -0.850683
185 2 22.8984 12.5535 0.798429 22.8984 12.5535 0.798429
186 2 22.9292 12.5517 -2.46329 22.9292 12.5517 -2.46329
187 1 23.8648 10.9054 -0.822591 23.8648 10.9054 -0.822591
188 2 25.7249 10.9173 0.8563 25.7249 10.9173 0.8563
189 2 25.8075 10.8935 -2.40447 25.8075 10.8935 -2.40447
190 1 26.717 12.5526 -0.762115 26.717 12.5526 -0.762115
191 2 28.5543 12.5533 0.941559 28.5543 12.5533 0.941559
192 2 28.6806 12.5518 -2.31796 28.6806 12.5518 -2.31796
193 1 29.5676 10.9055 -0.650658 29.5676 10.9055 -0.650658
194 2 31.3891 10.9178 1.06955 31.3891 10.9178 1.06955
195 2 31.545 10.8933 -2.1887 31.545 10.8933 -2.1887
196 1 32.4169 12.5526 -0.526625 32.4169 12.5526 -0.526625
197 2 34.2314 12.553 1.20066 34.2314 12.553 1.20066
198 2 34.4001 12.5521 -2.05714 34.4001 12.5521 -2.05714
199 1 35.2652 10.9058 -0.378769 35.2652 10.9058 -0.378769
200 2 37.0829 10.919 1.34473 37.0829 10.919 1.34473
201 2 37.2451 10.8928 -1.91342 37.2451 10.8928 -1.91342
202 1 38.1135 12.5526 -0.250511 38.1135 12.5526 -0.250511
203 2 39.9444 12.554 1.45856 39.9444 12.554 1.45856
204 2 40.081 12.5513 -1.80097 40.081 12.5513 -1.80097
205 1 40.9623 10.9063 -0.130304 40.9623 10.9063 -0.130304
206 2 42.8141 10.9217 1.55585 42.8141 10.9217 1.55585
207 2 42.9104 10.8911 -1.70504 42.9104 10.8911 -1.70504
208 1 43.8122 12.5528 -0.0622403 43.8122 12.5528 -0.0622403
209 2 45.6914 12.5564 1.59304 45.6914 12.5564 1.59304
210 2 45.7339 12.5494 -1.66919 45.7339 12.5494 -1.66919
211 1 46.6629 10.9067 -0.0224338 46.6629 10.9067 -0.0224338
212 2 48.5708 10.9239 1.59935 48.5708 10.9239 1.59935
213 2 48.556 10.8896 -1.66295 48.556 10.8896 -1.66295
214 1 49.5135 12.553 -0.0537926 49.5135 12.553 -0.0537926
215 2 51.4492 12.5574 1.53485 51.4492 12.5574 1.53485
216 2 51.3781 12.5486 -1.72685 51.3781 12.5486 -1.72685
217 1 1.06192 14.1993 -0.121499 1.06192 14.1993 -0.121499
218 2 3.01956 14.1905 1.44011 3.01956 14.1905 1.44011
219 2 2.90326 14.2081 -1.82018 2.90326 14.2081 -1.82018
220 1 3.91105 15.8458 -0.215336 3.91105 15.8458 -0.215336
221 2 5.88262 15.8243 1.32882 5.88262 15.8243 1.32882
222 2 5.73749 15.8672 -1.92997 5.73749 15.8672 -1.92997
223 1 6.75914 14.1994 -0.364855 6.75914 14.1994 -0.364855
224 2 8.73555 14.1893 1.17355 8.73555 14.1893 1.17355
225 2 8.58062 14.2095 -2.0849 8.58062 14.2095 -2.0849
226 1 9.60755 15.8463 -0.490859 9.60755 15.8463 -0.490859
227 2 11.5795 15.8244 1.05363 11.5795 15.8244 1.05363
228 2 11.4346 15.868 -2.20495 11.4346 15.868 -2.20495
229 1 12.4564 14.1996 -0.640192 12.4564 14.1996 -0.640192
230 2 14.4152 14.189 0.921489 14.4152 14.189 0.921489
231 2 14.2984 14.2102 -2.33834 14.2984 14.2102 -2.33834
232 1 15.3071 15.8467 -0.73191 15.3071 15.8467 -0.73191
233 2 17.2461 15.8254 0.854484 17.2461 15.8254 0.854484
234 2 17.1706 15.8679 -2.4063 17.1706 15.8679 -2.4063
235 1 18.1589 14.1998 -0.819543 18.1589 14.1998 -0.819543
236 2 20.0728 14.1895 0.797578 20.0728 14.1895 0.797578
237 2 20.0489 14.21 -2.46414 20.0489 14.21 -2.46414
238 1 21.0119 15.8469 -0.829955 21.0119 15.8469 -0.829955
239 2 22.8986 15.8259 0.818752 22.8986 15.8259 0.818752
240 2 22.929 15.8678 -2.44272 22.929 15.8678 -2.44272
241 1 23.8648 14.1998 -0.824398 23.8648 14.1998 -0.824398
242 2 25.7248 14.1894 0.854618 25.7248 14.1894 0.854618
243 2 25.8076 14.2101 -2.40616 25.8076 14.2101 -2.40616
244 1 26.7169 15.8468 -0.74121 26.7169 15.8468 -0.74121
245 2 28.5538 15.8247 0.962696 28.5538 15.8247 0.962696
246 2 28.6807 15.8687 -2.29652 28.6807 15.8687 -2.29652
247 1 29.5676 14.1996 -0.652234 29.5676 14.1996 -0.652234
248 2 31.3888 14.1883 1.06838 31.3888 14.1883 1.06838
249 2 31.5454 14.2109 -2.18984 31.5454 14.2109 -2.18984
250 1 32.4166 15.8463 -0.503713 32.4166 15.8463 -0.503713
251 2 34.2308 15.8227 1.22374 34.2308 15.8227 1.22374
252 2 34.4 15.8698 -2.03371 34.4 15.8698 -2.03371
253 1 35.2651 14.1993 -0.379643 35.2651 14.1993 -0.379643
254 2 37.083 14.1874 1.34365 37.083 14.1874 1.34365
255 2 37.2448 14.2112 -1.91454 37.2448 14.2112 -1.91454
256 1 38.1131 15.8457 -0.22641 38.1131 15.8457 -0.22641
257 2 39.9449 15.8219 1.48162 39.9449 15.8219 1.48162
258 2 40.0799 15.8694 -1.77763 40.0799 15.8694 -1.77763
259 1 40.9623 14.1991 -0.132934 40.9623 14.1991 -0.132934
260 2 42.8152 14.1886 1.5519 42.8152 14.1886 1.5519
261 2 42.9092 14.2097 -1.70915 42.9092 14.2097 -1.70915
262 1 43.8121 15.8453 -0.0407488 43.8121 15.8453 -0.0407488
263 2 45.6928 15.8234 1.61258 45.6928 15.8234 1.61258
264 2 45.7323 15.8674 -1.64938 45.7323 15.8674 -1.64938
265 1 46.6628 14.1992 -0.0295159 46.6628 14.1992 -0.0295159
266 2 48.5716 14.1905 1.59137 48.5716 14.1905 1.59137
267 2 48.5551 14.2079 -1.67107 48.5551 14.2079 -1.67107
268 1 49.5135 15.8454 -0.0361533 49.5135 15.8454 -0.0361533
269 2 51.4498 15.8246 1.5517 51.4498 15.8246 1.5517
270 2 51.3776 15.8663 -1.7097 51.3776 15.8663 -1.7097
271 1 1.06218 17.4918 -0.0792058 1.06218 17.4918 -0.0792058
272 2 3.02033 17.4595 1.4816 3.02033 17.4595 1.4816
273 2 2.90316 17.524 -1.77804 2.90316 17.524 -1.77804
274 1 3.91169 19.1382 -0.149969 3.91169 19.1382 -0.149969
275 2 5.88406 19.0963 1.39292 5.88406 19.0963 1.39292
276 2 5.73744 19.18 -1.86498 5.73744 19.18 -1.86498
277 1 6.75964 17.4925 -0.321433 6.75964 17.4925 -0.321433
278 2 8.73629 17.46 1.21644 8.73629 17.46 1.21644
279 2 8.58091 17.5248 -2.04141 8.58091 17.5248 -2.04141
280 1 9.60834 19.1392 -0.425134 9.60834 19.1392 -0.425134
281 2 11.5813 19.098 1.11765 11.5813 19.098 1.11765
282 2 11.4341 19.1803 -2.14011 11.4341 19.1803 -2.14011
283 1 12.4569 17.4933 -0.595999 12.4569 17.4933 -0.595999
284 2 14.4164 17.4615 0.9645 14.4164 17.4615 0.9645
285 2 14.298 17.5249 -2.29476 14.298 17.5249 -2.29476
286 1 15.3076 19.1402 -0.667628 15.3076 19.1402 -0.667628
287 2 17.2478 19.1002 0.916845 17.2478 19.1002 0.916845
288 2 17.1696 19.18 -2.34324 17.1696 19.18 -2.34324
289 1 18.1591 17.4938 -0.77652 18.1591 17.4938 -0.77652
290 2 20.0737 17.4628 0.839449 20.0737 17.4628 0.839449
291 2 20.0482 17.5246 -2.42179 20.0482 17.5246 -2.42179
292 1 21.0119 19.1406 -0.767348 21.0119 19.1406 -0.767348
293 2 22.8992 19.1007 0.880297 22.8992 19.1007 0.880297
294 2 22.9281 19.1803 -2.38057 22.9281 19.1803 -2.38057
295 1 23.8647 17.4938 -0.781979 23.8647 17.4938 -0.781979
296 2 25.7246 17.4622 0.896746 25.7246 17.4622 0.896746
297 2 25.8074 17.5253 -2.36354 25.8074 17.5253 -2.36354
298 1 26.7164 19.1403 -0.677388 26.7164 19.1403 -0.677388
299 2 28.553 19.0987 1.02647 28.553 19.0987 1.02647
300 2 28.6803 19.1817 -2.23203 28.6803 19.1817 -2.23203
301 1 29.5672 17.4934 -0.607686 29.5672 17.4934 -0.607686
302 2 31.3879 17.4598 1.11314 31.3879 17.4598 1.11314
303 2 31.5453 17.5267 -2.14445 31.5453 17.5267 -2.14445
304 1 32.4158 19.1393 -0.435924 32.4158 19.1393 -0.435924
305 2 34.2298 19.0954 1.29137 34.2298 19.0954 1.29137
306 2 34.3993 19.183 -1.96523 34.3993 19.183 -1.96523
307 1 35.2645 17.4925 -0.331907 35.2645 17.4925 -0.331907
308 2 37.0826 17.4574 1.39087 37.0826 17.4574 1.39087
309 2 37.244 17.5273 -1.86667 37.244 17.5273 -1.86667
310 1 38.1123 19.1381 -0.155594 38.1123 19.1381 -0.155594
311 2 39.9452 19.0935 1.55092 39.9452 19.0935 1.55092
312 2 40.0782 19.1825 -1.70749 40.0782 19.1825 -1.70749
313 1 40.9618 17.4916 -0.0847951 40.9618 17.4916 -0.0847951
314 2 42.8164 17.4573 1.59799 42.8164 17.4573 1.59799
315 2 42.9073 17.5259 -1.66244 42.9073 17.5259 -1.66244
316 1 43.8117 19.1373 0.0288479 43.8117 19.1373 0.0288479
317 2 45.6947 19.094 1.67947 45.6947 19.094 1.67947
318 2 45.7301 19.1807 -1.58161 45.7301 19.1807 -1.58161
319 1 46.6627 17.4914 0.0151139 46.6627 17.4914 0.0151139
320 2 48.5732 17.4587 1.63384 48.5732 17.4587 1.63384
321 2 48.5536 17.5241 -1.62792 48.5536 17.5241 -1.62792
322 1 49.5137 19.1374 0.0300424 49.5137 19.1374 0.0300424
323 2 51.4515 19.0953 1.61585 51.4515 19.0953 1.61585
324 2 51.3766 19.1796 -1.6446 51.3766 19.1796 -1.6446
325 1 1.06279 20.7835 0.00621121 1.06279 20.7835 0.00621121
326 2 3.02245 20.7338 1.56493 3.02245 20.7338 1.56493
327 2 2.90251 20.8333 -1.69365 2.90251 20.8333 -1.69365
328 1 3.91272 22.4298 -0.049112 3.91272 22.4298 -0.049112
329 2 5.88688 22.3751 1.49133 5.88688 22.3751 1.49133
330 2 5.73678 22.4846 -1.76561 5.73678 22.4846 -1.76561
331 1 6.76064 20.7847 -0.23656 6.76064 20.7847 -0.23656
332 2 8.73867 20.7357 1.29922 8.73867 20.7357 1.29922
333 2 8.58045 20.8336 -1.95767 8.58045 20.8336 -1.95767
334 1 9.60951 22.4313 -0.325892 9.60951 22.4313 -0.325892
335 2 11.5844 22.378 1.21406 11.5844 22.378 1.21406
336 2 11.433 22.4845 -2.04285 11.433 22.4845 -2.04285
337 1 12.4578 20.786 -0.512591 12.4578 20.786 -0.512591
338 2 14.4189 20.7384 1.04539 14.4189 20.7384 1.04539
339 2 14.2969 20.8334 -2.21303 14.2969 20.8334 -2.21303
340 1 15.3083 22.4325 -0.571343 15.3083 22.4325 -0.571343
341 2 17.2503 22.3807 1.0105 17.2503 22.3807 1.0105
342 2 17.168 22.4842 -2.24892 17.168 22.4842 -2.24892
343 1 18.1595 20.7868 -0.695661 18.1595 20.7868 -0.695661
344 2 20.0752 20.7401 0.918397 20.0752 20.7401 0.918397
345 2 20.0469 20.8333 -2.34217 20.0469 20.8333 -2.34217
346 1 21.0119 22.4331 -0.672919 21.0119 22.4331 -0.672919
347 2 22.9 22.3811 0.973329 22.9 22.3811 0.973329
348 2 22.9269 22.4848 -2.287 22.9269 22.4848 -2.287
349 1 23.8644 20.7869 -0.701419 23.8644 20.7869 -0.701419
350 2 25.7245 20.7392 0.97667 25.7245 20.7392 0.97667
351 2 25.8066 20.8344 -2.28294 25.8066 20.8344 -2.28294
352 1 26.7158 22.4327 -0.580948 26.7158 22.4327 -0.580948
353 2 28.5522 22.3787 1.12264 28.5522 22.3787 1.12264
354 2 28.6794 22.4864 -2.13522 28.6794 22.4864 -2.13522
355 1 29.5664 20.7861 -0.523639 29.5664 20.7861 -0.523639
356 2 31.3867 20.7359 1.19713 31.3867 20.7359 1.19713
357 2 31.5445 20.8361 -2.05963 31.5445 20.8361 -2.05963
358 1 32.4146 22.4314 -0.334503 32.4146 22.4314 -0.334503
359 2 34.2287 22.3749 1.39239 34.2287 22.3749 1.39239
360 2 34.398 22.4876 -1.86345 34.398 22.4876 -1.86345
361 1 35.2634 20.7847 -0.243236 35.2634 20.7847 -0.243236
362 2 37.082 20.7327 1.47865 37.082 20.7327 1.47865
363 2 37.2425 20.8365 -1.77799 37.2425 20.8365 -1.77799
364 1 38.1111 22.4297 -0.0503571 38.1111 22.4297 -0.0503571
365 2 39.9454 22.3722 1.65443 39.9454 22.3722 1.65443
366 2 40.076 22.487 -1.60318 40.076 22.487 -1.60318
367 1 40.961 20.7834 0.0054369 40.961 20.7834 0.0054369
368 2 42.8176 20.7316 1.6858 42.8176 20.7316 1.6858
369 2 42.905 20.8352 -1.57372 42.905 20.8352 -1.57372
370 1 43.8112 22.4286 0.133855 43.8112 22.4286 0.133855
371 2 45.6966 22.3719 1.78163 45.6966 22.3719 1.78163
372 2 45.7278 22.4855 -1.47853 45.7278 22.4855 -1.47853
373 1 46.6627 20.783 0.102907 46.6627 20.783 0.102907
374 2 48.5754 20.7324 1.71879 48.5754 20.7324 1.71879
375 2 48.5517 20.8336 -1.54191 48.5517 20.8336 -1.54191
376 1 49.5141 22.4288 0.132538 49.5141 22.4288 0.132538
377 2 51.4541 22.373 1.71563 51.4541 22.373 1.71563
378 2 51.3752 22.4846 -1.54379 51.3752 22.4846 -1.54379
379 1 1.06364 24.0748 0.11925 1.06364 24.0748 0.11925
380 2 3.02551 24.0165 1.67525 3.02551 24.0165 1.67525
381 2 2.90147 24.1333 -1.58252 2.90147 24.1333 -1.58252
382 1 3.91394 25.721 0.0692263 3.91394 25.721 0.0692263
383 2 5.89053 25.6631 1.60671 5.89053 25.6631 1.60671
384 2 5.73567 25.7792 -1.64972 5.73567 25.7792 -1.64972
385 1 6.76194 24.0762 -0.12555 6.76194 24.0762 -0.12555
386 2 8.74218 24.0195 1.40728 8.74218 24.0195 1.40728
387 2 8.57941 24.133 -1.84887 8.57941 24.133 -1.84887
388 1 9.61085 25.7227 -0.210775 9.61085 25.7227 -0.210775
389 2 11.5883 25.6668 1.32598 11.5883 25.6668 1.32598
390 2 11.4315 25.7786 -1.93054 11.4315 25.7786 -1.93054
391 1 12.4589 24.0777 -0.404661 12.4589 24.0777 -0.404661
392 2 14.4222 24.0228 1.15026 14.4222 24.0228 1.15026
393 2 14.2953 24.1326 -2.10759 14.2953 24.1326 -2.10759
394 1 15.3091 25.724 -0.460035 15.3091 25.724 -0.460035
395 2 17.2532 25.6697 1.11912 17.2532 25.6697 1.11912
396 2 17.1662 25.7783 -2.14013 17.1662 25.7783 -2.14013
397 1 18.1599 24.0787 -0.590793 18.1599 24.0787 -0.590793
398 2 20.0771 24.0246 1.02114 20.0771 24.0246 1.02114
399 2 20.0453 24.1328 -2.23907 20.0453 24.1328 -2.23907
400 1 21.0119 25.7246 -0.563384 21.0119 25.7246 -0.563384
401 2 22.901 25.6702 1.08153 22.901 25.6702 1.08153
402 2 22.9254 25.779 -2.17879 22.9254 25.779 -2.17879
403 1 23.8641 24.0788 -0.596453 23.8641 24.0788 -0.596453
404 2 25.7245 24.0235 1.08089 25.7245 24.0235 1.08089
405 2 25.8054 24.134 -2.17839 25.8054 24.134 -2.17839
406 1 26.7149 25.7242 -0.469138 26.7149 25.7242 -0.469138
407 2 28.5514 25.6678 1.23422 28.5514 25.6678 1.23422
408 2 28.6781 25.7804 -2.02358 28.6781 25.7804 -2.02358
409 1 29.5653 24.0779 -0.414609 29.5653 24.0779 -0.414609
410 2 31.3855 24.02 1.30602 31.3855 24.02 1.30602
411 2 31.5433 24.1355 -1.95029 31.5433 24.1355 -1.95029
412 1 32.4131 25.7227 -0.217567 32.4131 25.7227 -0.217567
413 2 34.2275 25.6638 1.50903 34.2275 25.6638 1.50903
414 2 34.3962 25.7814 -1.74667 34.3962 25.7814 -1.74667
415 1 35.2619 24.0762 -0.129081 35.2619 24.0762 -0.129081
416 2 37.0814 24.0163 1.59185 37.0814 24.0163 1.59185
417 2 37.2404 24.1358 -1.66428 37.2404 24.1358 -1.66428
418 1 38.1097 25.7209 0.0706628 38.1097 25.7209 0.0706628
419 2 39.9455 25.6607 1.77407 39.9455 25.6607 1.77407
420 2 40.0736 25.7811 -1.48334 40.0736 25.7811 -1.48334
421 1 40.96 24.0746 0.12174 40.96 24.0746 0.12174
422 2 42.8186 24.0145 1.79987 42.8186 24.0145 1.79987
423 2 42.9026 24.1348 -1.45905 42.9026 24.1348 -1.45905
424 1 43.8106 25.7197 0.25571 43.8106 25.7197 0.25571
425 2 45.6982 25.6595 1.9012 45.6982 25.6595 1.9012
426 2 45.7257 25.7803 -1.35859 45.7257 25.7803 -1.35859
427 1 46.6626 24.0741 0.218021 46.6626 24.0741 0.218021
428 2 48.5778 24.0147 1.83111 48.5778 24.0147 1.83111
429 2 48.5498 24.1337 -1.42882 48.5498 24.1337 -1.42882
430 1 49.5146 25.7199 0.253098 49.5146 25.7199 0.253098
431 2 51.457 25.6604 1.83351 51.457 25.6604 1.83351
432 2 51.3738 25.7797 -1.4254 51.3738 25.7797 -1.4254
433 1 1.06458 27.3661 0.240106 1.06458 27.3661 0.240106
434 2 3.02896 27.3093 1.79335 3.02896 27.3093 1.79335
435 2 2.90021 27.4232 -1.46423 2.90021 27.4232 -1.46423
436 1 3.91517 29.0126 0.184674 3.91517 29.0126 0.184674
437 2 5.89443 28.9614 1.71923 5.89443 28.9614 1.71923
438 2 5.73428 29.0642 -1.53733 5.73428 29.0642 -1.53733
439 1 6.76333 27.3675 -0.00791125 6.76333 27.3675 -0.00791125
440 2 8.74621 27.3129 1.52176 8.74621 27.3129 1.52176
441 2 8.578 27.4224 -1.73425 8.578 27.4224 -1.73425
442 1 9.61215 29.0141 -0.0998172 9.61215 29.0141 -0.0998172
443 2 11.5922 28.9654 1.43383 11.5922 28.9654 1.43383
444 2 11.4298 29.063 -1.8229 11.4298 29.063 -1.8229
445 1 12.46 27.3691 -0.29131 12.46 27.3691 -0.29131
446 2 14.4258 27.3166 1.26061 14.4258 27.3166 1.26061
447 2 14.2935 27.4216 -1.99727 14.2935 27.4216 -1.99727
448 1 15.3099 29.0154 -0.353607 15.3099 29.0154 -0.353607
449 2 17.256 28.9684 1.22318 17.256 28.9684 1.22318
450 2 17.1644 29.0623 -2.03651 17.1644 29.0623 -2.03651
451 1 18.1603 27.3701 -0.480777 18.1603 27.3701 -0.480777
452 2 20.0791 27.3185 1.12925 20.0791 27.3185 1.12925
453 2 20.0436 27.4216 -2.13121 20.0436 27.4216 -2.13121
454 1 21.0119 29.0159 -0.45893 21.0119 29.0159 -0.45893
455 2 22.9019 28.969 1.18496 22.9019 28.969 1.18496
456 2 22.9239 29.0627 -2.07597 22.9239 29.0627 -2.07597
457 1 23.8636 27.3701 -0.486286 23.8636 27.3701 -0.486286
458 2 25.7245 27.3175 1.19049 25.7245 27.3175 1.19049
459 2 25.804 27.4226 -2.06912 25.804 27.4226 -2.06912
460 1 26.7141 29.0154 -0.362748 26.7141 29.0154 -0.362748
461 2 28.5507 28.967 1.34066 28.5507 28.967 1.34066
462 2 28.6768 29.0638 -1.91777 28.6768 29.0638 -1.91777
463 1 29.5641 27.3692 -0.300553 29.5641 27.3692 -0.300553
464 2 31.3843 27.3143 1.42013 31.3843 27.3143 1.42013
465 2 31.5418 27.4239 -1.83644 31.5418 27.4239 -1.83644
466 1 32.4118 29.0141 -0.106546 32.4118 29.0141 -0.106546
467 2 34.2263 28.9634 1.62019 34.2263 28.9634 1.62019
468 2 34.3946 29.0647 -1.63607 34.3946 29.0647 -1.63607
469 1 35.2604 27.3674 -0.00999539 35.2604 27.3674 -0.00999539
470 2 37.0806 27.3104 1.71041 37.0806 27.3104 1.71041
471 2 37.2384 27.4243 -1.54592 37.2384 27.4243 -1.54592
472 1 38.1084 29.0125 0.186022 38.1084 29.0125 0.186022
473 2 39.9451 28.9598 1.88894 39.9451 28.9598 1.88894
474 2 40.0718 29.0652 -1.36894 40.0718 29.0652 -1.36894
475 1 40.9589 27.3659 0.243698 40.9589 27.3659 0.243698
476 2 42.8192 27.3078 1.9204 42.8192 27.3078 1.9204
477 2 42.9005 27.4241 -1.33859 42.9005 27.4241 -1.33859
478 1 43.8101 29.0114 0.373447 43.8101 29.0114 0.373447
479 2 45.6993 28.9578 2.01772 45.6993 28.9578 2.01772
480 2 45.7242 29.0654 -1.2424 45.7242 29.0654 -1.2424
481 1 46.6626 27.3654 0.34038 46.6626 27.3654 0.34038
482 2 48.58 27.3073 1.95132 48.58 27.3073 1.95132
483 2 48.5482 27.4238 -1.30851 48.5482 27.4238 -1.30851
484 1 49.5151 29.0115 0.37103 49.5151 29.0115 0.37103
485 2 51.4597 28.9583 1.94929 51.4597 28.9583 1.94929
486 2 51.3725 29.0652 -1.30981 51.3725 29.0652 -1.30981
487 1 1.06546 30.6582 0.348441 1.06546 30.6582 0.348441
488 2 3.03226 30.6123 1.8993 3.03226 30.6123 1.8993
489 2 2.89895 30.7045 -1.35868 2.89895 30.7045 -1.35868
490 1 3.91621 32.3052 0.278193 3.91621 32.3052 0.278193
491 2 5.89805 32.2689 1.81007 5.89805 32.2689 1.81007
492 2 5.73277 32.3418 -1.44699 5.73277 32.3418 -1.44699
493 1 6.76459 30.6594 0.0964095 6.76459 30.6594 0.0964095
494 2 8.75021 30.6161 1.62305 8.75021 30.6161 1.62305
495 2 8.57633 30.703 -1.63332 8.57633 30.703 -1.63332
496 1 9.61319 32.3063 -0.011739 9.61319 32.3063 -0.011739
497 2 11.5959 32.2729 1.51903 11.5959 32.2729 1.51903
498 2 11.4279 32.3398 -1.73822 11.4279 32.3398 -1.73822
499 1 12.461 30.6607 -0.192321 12.461 30.6607 -0.192321
500 2 14.4292 30.6199 1.35691 14.4292 30.6199 1.35691
501 2 14.2916 30.7016 -1.90149 14.2916 30.7016 -1.90149
502 1 15.3105 32.3071 -0.27088 15.3105 32.3071 -0.27088
503 2 17.2585 32.2759 1.3039 17.2585 32.2759 1.3039
504 2 17.1627 32.3384 -1.9565 17.1627 32.3384 -1.9565
505 1 18.1606 30.6615 -0.385647 18.1606 30.6615 -0.385647
506 2 20.0809 30.6219 1.22285 20.0809 30.6219 1.22285
507 2 20.042 30.7011 -2.03835 20.042 30.7011 -2.03835
508 1 21.0119 32.3074 -0.378772 21.0119 32.3074 -0.378772
509 2 22.9027 32.2767 1.26445 22.9027 32.2767 1.26445
510 2 22.9227 32.3382 -1.99736 22.9227 32.3382 -1.99736
511 1 23.8633 30.6615 -0.391474 23.8633 30.6615 -0.391474
512 2 25.7245 30.6213 1.28507 25.7245 30.6213 1.28507
513 2 25.8027 30.7017 -1.97539 25.8027 30.7017 -1.97539
514 1 26.7135 32.3071 -0.281429 26.7135 32.3071 -0.281429
515 2 28.5501 32.2753 1.42229 28.5501 32.2753 1.42229
516 2 28.6759 32.3389 -1.83703 28.6759 32.3389 -1.83703
517 1 29.563 30.6607 -0.202566 29.563 30.6607 -0.202566
518 2 31.3832 30.6187 1.51852 31.3832 30.6187 1.51852
519 2 31.5406 30.7026 -1.73886 31.5406 30.7026 -1.73886
520 1 32.4108 32.3062 -0.0215274 32.4108 32.3062 -0.0215274
521 2 34.2251 32.2725 1.70588 34.2251 32.2725 1.70588
522 2 34.3938 32.3399 -1.55123 34.3938 32.3399 -1.55123
523 1 35.2591 30.6593 0.0926179 35.2591 30.6593 0.0926179
524 2 37.0795 30.615 1.81332 37.0795 30.615 1.81332
525 2 37.2371 30.7036 -1.44376 37.2371 30.7036 -1.44376
526 1 38.1074 32.3051 0.275725 38.1074 32.3051 0.275725
527 2 39.9441 32.2688 1.9793 39.9441 32.2688 1.9793
528 2 40.0712 32.3415 -1.27939 40.0712 32.3415 -1.27939
529 1 40.958 30.6581 0.350357 40.958 30.6581 0.350357
530 2 42.8191 30.6117 2.02685 42.8191 30.6117 2.02685
531 2 42.8993 30.7046 -1.23279 42.8993 30.7046 -1.23279
532 1 43.8096 32.3043 0.467508 43.8096 32.3043 0.467508
533 2 45.6995 32.2659 2.11178 45.6995 32.2659 2.11178
534 2 45.7236 32.343 -1.14909 45.7236 32.343 -1.14909
535 1 46.6626 30.6576 0.449406 46.6626 30.6576 0.449406
536 2 48.5815 30.6105 2.0592 48.5815 30.6105 2.0592
537 2 48.5472 30.7052 -1.20117 48.5472 30.7052 -1.20117
538 1 49.5155 32.3044 0.466956 49.5155 32.3044 0.466956