ITEM: TIMESTEP
52000
ITEM: NUMBER OF ATOMS
810
ITEM: BOX BOUNDS pp pp pp
8.4105680169080499e-01 5.2176548198307948e+01
8.0874991871058732e-01 5.0207465081288966e+01
-1.0000000000000000e+01 1.0000000000000000e+01
ITEM: ATOMS id type x y z xu yu zu
1 1 1.04461 1.02306 -0.171526 1.04461 1.02306 -0.171526
2 2 2.94167 1.02711 1.46455 2.94167 1.02711 1.46455
3 2 2.95017 1.01902 -1.79762 2.95017 1.01902 -1.79762
4 1 3.89658 2.66969 -0.168129 3.89658 2.66969 -0.168129
5 2 5.79356 2.67438 1.46803 5.79356 2.67438 1.46803
6 2 5.80222 2.66501 -1.79413 5.80222 2.66501 -1.79413
7 1 6.74854 1.02308 -0.15577 6.74854 1.02308 -0.15577
8 2 8.646 1.02727 1.47983 8.646 1.02727 1.47983
9 2 8.65371 1.01889 -1.78234 8.65371 1.01889 -1.78234
10 1 9.60051 2.6697 -0.153233 9.60051 2.6697 -0.153233
11 2 11.4991 2.67464 1.48107 11.4991 2.67464 1.48107
12 2 11.5046 2.66476 -1.7811 11.5046 2.66476 -1.7811
13 1 12.4525 1.02308 -0.143405 12.4525 1.02308 -0.143405
14 2 14.3527 1.02739 1.48899 14.3527 1.02739 1.48899
15 2 14.3549 1.01876 -1.77319 14.3549 1.01876 -1.77319
16 1 15.3045 2.6697 -0.145815 15.3045 2.6697 -0.145815
17 2 17.2064 2.67454 1.48452 17.2064 2.67454 1.48452
18 2 17.2052 2.66484 -1.77765 17.2052 2.66484 -1.77765
19 1 18.1564 1.02307 -0.142024 18.1564 1.02307 -0.142024
20 2 20.0601 1.02754 1.48625 20.0601 1.02754 1.48625
21 2 20.0554 1.01859 -1.77592 20.0554 1.01859 -1.77592
22 1 21.0084 2.66968 -0.150776 21.0084 2.66968 -0.150776
23 2 22.9133 2.67416 1.47615 22.9133 2.67416 1.47615
24 2 22.9062 2.66519 -1.78602 22.9062 2.66519 -1.78602
25 1 23.8604 1.02305 -0.15247 23.8604 1.02305 -0.15247
26 2 25.766 1.02749 1.47352 25.766 1.02749 1.47352
27 2 25.7574 1.01859 -1.78864 25.7574 1.01859 -1.78864
28 1 26.7123 2.66966 -0.164623 26.7123 2.66966 -0.164623
29 2 28.6179 2.67358 1.46154 28.6179 2.67358 1.46154
30 2 28.6095 2.66573 -1.80062 28.6095 2.66573 -1.80062
31 1 29.5643 1.02303 -0.168018 29.5643 1.02303 -0.168018
32 2 31.4695 1.0271 1.45851 31.4695 1.0271 1.45851
33 2 31.4617 1.01895 -1.80366 31.4617 1.01895 -1.80366
34 1 32.4163 2.66965 -0.178996 32.4163 2.66965 -0.178996
35 2 34.3204 2.67301 1.44879 34.3204 2.67301 1.44879
36 2 34.3148 2.66628 -1.81338 34.3148 2.66628 -1.81338
37 1 35.2683 1.02302 -0.180538 35.2683 1.02302 -0.180538
38 2 37.1716 1.02662 1.44825 37.1716 1.02662 1.44825
39 2 37.1676 1.01943 -1.81393 37.1676 1.01943 -1.81393
40 1 38.1202 2.66965 -0.18764 38.1202 2.66965 -0.18764
41 2 40.0223 2.67277 1.44259 40.0223 2.67277 1.44259
42 2 40.0208 2.66653 -1.81959 40.0208 2.66653 -1.81959
43 1 40.9722 1.02303 -0.185771 40.9722 1.02303 -0.185771
44 2 42.8732 1.02649 1.44569 42.8732 1.02649 1.44569
45 2 42.8738 1.01957 -1.81649 42.8738 1.01957 -1.81649
46 1 43.8242 2.66966 -0.188719 43.8242 2.66966 -0.188719
47 2 45.7241 2.67309 1.44406 45.7241 2.67309 1.44406
48 2 45.7269 2.66624 -1.81812 45.7269 2.66624 -1.81812
49 1 46.6762 1.02304 -0.182719 46.6762 1.02304 -0.182719
50 2 48.5749 1.02677 1.45145 48.5749 1.02677 1.45145
51 2 48.5801 1.01932 -1.81072 48.5801 1.01932 -1.81072
52 1 49.5281 2.66967 -0.181865 49.5281 2.66967 -0.181865
53 2 51.4259 2.67378 1.45335 51.4259 2.67378 1.45335
54 2 51.433 2.66558 -1.80882 51.433 2.66558 -1.80882
55 1 1.04461 4.3163 -0.179818 1.04461 4.3163 -0.179818
56 2 2.94191 4.32089 1.45596 2.94191 4.32089 1.45596
57 2 2.94993 4.31172 -1.8062 2.94993 4.31172 -1.8062
58 1 3.89658 5.96293 -0.177407 3.89658 5.96293 -0.177407
59 2 5.79388 5.96799 1.45836 5.79388 5.96799 1.45836
60 2 5.8019 5.95787 -1.8038 5.8019 5.95787 -1.8038
61 1 6.74855 4.31632 -0.165254 6.74855 4.31632 -0.165254
62 2 8.64606 4.3216 1.47027 8.64606 4.3216 1.47027
63 2 8.65366 4.31103 -1.79189 8.65366 4.31103 -1.79189
64 1 9.60052 5.96294 -0.163937 9.60052 5.96294 -0.163937
65 2 11.499 5.96847 1.47042 11.499 5.96847 1.47042
66 2 11.5046 5.95741 -1.79174 11.5046 5.95741 -1.79174
67 1 12.4525 4.31632 -0.153409 12.4525 4.31632 -0.153409
68 2 14.3525 4.32161 1.47916 14.3525 4.32161 1.47916
69 2 14.3551 4.31102 -1.78301 14.3551 4.31102 -1.78301
70 1 15.3045 5.96294 -0.15656 15.3045 5.96294 -0.15656
71 2 17.2059 5.96786 1.47432 17.2059 5.96786 1.47432
72 2 17.2056 5.95801 -1.78785 17.2056 5.95801 -1.78785
73 1 18.1564 4.31631 -0.151861 18.1564 4.31631 -0.151861
74 2 20.0598 4.32096 1.47679 20.0598 4.32096 1.47679
75 2 20.0557 4.31165 -1.78538 20.0557 4.31165 -1.78538
76 1 21.0084 5.96292 -0.160243 21.0084 5.96292 -0.160243
77 2 22.9126 5.96657 1.46748 22.9126 5.96657 1.46748
78 2 22.9069 5.95926 -1.7947 22.9069 5.95926 -1.7947
79 1 23.8604 4.31629 -0.161569 23.8604 4.31629 -0.161569
80 2 25.7656 4.32003 1.46494 25.7656 4.32003 1.46494
81 2 25.7578 4.31254 -1.79723 25.7578 4.31254 -1.79723
82 1 26.7123 5.9629 -0.172238 26.7123 5.9629 -0.172238
83 2 28.6172 5.96539 1.45467 28.6172 5.96539 1.45467
84 2 28.6101 5.96041 -1.80751 28.6101 5.96041 -1.80751
85 1 29.5643 4.31627 -0.175986 29.5643 4.31627 -0.175986
86 2 31.4691 4.31924 1.45109 31.4691 4.31924 1.45109
87 2 31.4622 4.3133 -1.81109 31.4622 4.3133 -1.81109
88 1 32.4163 5.9629 -0.185029 32.4163 5.9629 -0.185029
89 2 34.32 5.96478 1.44323 34.32 5.96478 1.44323
90 2 34.3152 5.96102 -1.81895 34.3152 5.96102 -1.81895
91 1 35.2682 4.31627 -0.187365 35.2682 4.31627 -0.187365
92 2 37.1712 4.31886 1.4418 37.1712 4.31886 1.4418
93 2 37.1679 4.31368 -1.82038 37.1679 4.31368 -1.82038
94 1 38.1202 5.9629 -0.192892 38.1202 5.9629 -0.192892
95 2 40.0222 5.96481 1.43745 40.0222 5.96481 1.43745
96 2 40.0209 5.96099 -1.82473 40.0209 5.96099 -1.82473
97 1 40.9722 4.31628 -0.19209 40.9722 4.31628 -0.19209
98 2 42.8732 4.31906 1.43938 42.8732 4.31906 1.43938
99 2 42.8738 4.3135 -1.8228 42.8738 4.3135 -1.8228
100 1 43.8242 5.96291 -0.194336 43.8242 5.96291 -0.194336
101 2 45.7243 5.96551 1.43813 45.7243 5.96551 1.43813
102 2 45.7267 5.96031 -1.82405 45.7267 5.96031 -1.82405
103 1 46.6762 4.31629 -0.189648 46.6762 4.31629 -0.189648
104 2 48.5751 4.31986 1.44423 48.5751 4.31986 1.44423
105 2 48.5798 4.31273 -1.81795 48.5798 4.31273 -1.81795
106 1 49.5281 5.96292 -0.189069 49.5281 5.96292 -0.189069
107 2 51.4264 5.96676 1.4456 51.4264 5.96676 1.4456
108 2 51.4325 5.95908 -1.81657 51.4325 5.95908 -1.81657
109 1 1.04461 7.60954 -0.187563 1.04461 7.60954 -0.187563
110 2 2.94252 7.61369 1.4475 2.94252 7.61369 1.4475
111 2 2.94933 7.6054 -1.81466 2.94933 7.6054 -1.81466
112 1 3.89658 9.25617 -0.185776 3.89658 9.25617 -0.185776
113 2 5.79451 9.26049 1.44926 5.79451 9.26049 1.44926
114 2 5.80129 9.25186 -1.81291 5.80129 9.25186 -1.81291
115 1 6.74855 7.60955 -0.175493 6.74855 7.60955 -0.175493
116 2 8.6463 7.61482 1.45974 8.6463 7.61482 1.45974
117 2 8.65342 7.60429 -1.80242 8.65342 7.60429 -1.80242
118 1 9.60052 9.25618 -0.174605 9.60052 9.25618 -0.174605
119 2 11.499 9.26105 1.45983 11.499 9.26105 1.45983
120 2 11.5047 9.2513 -1.80234 11.5047 9.2513 -1.80234
121 1 12.4525 7.60956 -0.164635 12.4525 7.60956 -0.164635
122 2 14.3521 7.61465 1.46838 14.3521 7.61465 1.46838
123 2 14.3555 7.60446 -1.79378 14.3555 7.60446 -1.79378
124 1 15.3045 9.25618 -0.166913 15.3045 9.25618 -0.166913
125 2 17.2051 9.25996 1.46496 17.2051 9.25996 1.46496
126 2 17.2065 9.25238 -1.79722 17.2065 9.25238 -1.79722
127 1 18.1564 7.60955 -0.161878 18.1564 7.60955 -0.161878
128 2 20.0589 7.61325 1.46778 20.0589 7.61325 1.46778
129 2 20.0566 7.60584 -1.79439 20.0566 7.60584 -1.79439
130 1 21.0084 9.25616 -0.167803 21.0084 9.25616 -0.167803
131 2 22.9114 9.25799 1.46122 22.9114 9.25799 1.46122
132 2 22.908 9.25432 -1.80096 22.908 9.25432 -1.80096
133 1 23.8604 7.60953 -0.169021 23.8604 7.60953 -0.169021
134 2 25.7647 7.6116 1.45852 25.7647 7.6116 1.45852
135 2 25.7587 7.60746 -1.80366 25.7587 7.60746 -1.80366
136 1 26.7123 9.25615 -0.176464 26.7123 9.25615 -0.176464
137 2 28.6164 9.25643 1.45137 28.6164 9.25643 1.45137
138 2 28.6109 9.25587 -1.81081 28.6109 9.25587 -1.81081
139 1 29.5643 7.60952 -0.181049 29.5643 7.60952 -0.181049
140 2 31.4685 7.61058 1.44667 31.4685 7.61058 1.44667
141 2 31.4627 7.60847 -1.81551 31.4627 7.60847 -1.81551
142 1 32.4163 9.25615 -0.187187 32.4163 9.25615 -0.187187
143 2 34.3197 9.2559 1.44141 34.3197 9.2559 1.44141
144 2 34.3155 9.25641 -1.82077 34.3155 9.25641 -1.82077
145 1 35.2682 7.60953 -0.191187 35.2682 7.60953 -0.191187
146 2 37.171 7.61041 1.43818 37.171 7.61041 1.43818
147 2 37.1681 7.60865 -1.824 37.1681 7.60865 -1.824
148 1 38.1202 9.25616 -0.194668 38.1202 9.25616 -0.194668
149 2 40.0223 9.25624 1.43553 40.0223 9.25624 1.43553
150 2 40.0208 9.25608 -1.82666 40.0208 9.25608 -1.82666
151 1 40.9722 7.60953 -0.195953 40.9722 7.60953 -0.195953
152 2 42.8734 7.61093 1.43528 42.8734 7.61093 1.43528
153 2 42.8736 7.60814 -1.8269 42.8736 7.60814 -1.8269
154 1 43.8242 9.25616 -0.197151 43.8242 9.25616 -0.197151
155 2 45.7248 9.25724 1.43473 45.7248 9.25724 1.43473
156 2 45.7262 9.25509 -1.82745 45.7262 9.25509 -1.82745
157 1 46.6762 7.60954 -0.194899 46.6762 7.60954 -0.194899
158 2 48.5756 7.61212 1.43835 48.5756 7.61212 1.43835
159 2 48.5793 7.60696 -1.82383 48.5793 7.60696 -1.82383
160 1 49.5281 9.25617 -0.194263 49.5281 9.25617 -0.194263
161 2 51.4271 9.25883 1.43951 51.4271 9.25883 1.43951
162 2 51.4317 9.2535 -1.82267 51.4317 9.2535 -1.82267
163 1 1.04461 10.9028 -0.192924 1.04461 10.9028 -0.192924
164 2 2.94342 10.9055 1.44109 2.94342 10.9055 1.44109
165 2 2.94844 10.9 -1.82109 2.94844 10.9 -1.82109
166 1 3.89659 12.5494 -0.191312 3.89659 12.5494 -0.191312
167 2 5.79534 12.552 1.44276 5.79534 12.552 1.44276
168 2 5.80046 12.5468 -1.81942 5.80046 12.5468 -1.81942
169 1 6.74856 10.9028 -0.184212 6.74856 10.9028 -0.184212
170 2 8.64672 10.9069 1.45054 8.64672 10.9069 1.45054
171 2 8.65302 10.8987 -1.81163 8.65302 10.8987 -1.81163
172 1 9.60053 12.5494 -0.182825 9.60053 12.5494 -0.182825
173 2 11.4989 12.5526 1.45167 11.4989 12.5526 1.45167
174 2 11.5048 12.5463 -1.81051 11.5048 12.5463 -1.81051
175 1 12.4525 10.9028 -0.17454 12.4525 10.9028 -0.17454
176 2 14.3516 10.9065 1.45913 14.3516 10.9065 1.45913
177 2 14.356 10.8991 -1.80304 14.356 10.8991 -1.80304
178 1 15.3045 12.5494 -0.174423 15.3045 12.5494 -0.174423
179 2 17.204 12.5512 1.45867 17.204 12.5512 1.45867
180 2 17.2075 12.5477 -1.80351 17.2075 12.5477 -1.80351
181 1 18.1564 10.9028 -0.169612 18.1564 10.9028 -0.169612
182 2 20.0577 10.9046 1.46146 20.0577 10.9046 1.46146
183 2 20.0578 10.901 -1.80072 20.0578 10.901 -1.80072
184 1 21.0084 12.5494 -0.171475 21.0084 12.5494 -0.171475
185 2 22.9101 12.5489 1.45907 22.9101 12.5489 1.45907
186 2 22.9093 12.5499 -1.80312 22.9093 12.5499 -1.80312
187 1 23.8604 10.9028 -0.172787 23.8604 10.9028 -0.172787
188 2 25.7636 10.9025 1.45602 25.7636 10.9025 1.45602
189 2 25.7598 10.903 -1.80616 25.7598 10.903 -1.80616
190 1 26.7123 12.5494 -0.175956 26.7123 12.5494 -0.175956
191 2 28.6156 12.5472 1.4528 28.6156 12.5472 1.4528
192 2 28.6117 12.5516 -1.80938 28.6117 12.5516 -1.80938
193 1 29.5643 10.9028 -0.181641 29.5643 10.9028 -0.181641
194 2 31.468 10.9014 1.44666 31.468 10.9014 1.44666
195 2 31.4632 10.9041 -1.81553 31.4632 10.9041 -1.81553
196 1 32.4163 12.5494 -0.184484 32.4163 12.5494 -0.184484
197 2 34.3196 12.5468 1.44422 34.3196 12.5468 1.44422
198 2 34.3156 12.552 -1.81796 34.3156 12.552 -1.81796
199 1 35.2682 10.9028 -0.190671 35.2682 10.9028 -0.190671
200 2 37.1711 10.9015 1.43863 37.1711 10.9015 1.43863
201 2 37.168 10.9041 -1.82355 37.168 10.9041 -1.82355
202 1 38.1202 12.5494 -0.192049 38.1202 12.5494 -0.192049
203 2 40.0227 12.5474 1.43769 40.0227 12.5474 1.43769
204 2 40.0204 12.5514 -1.82449 40.0204 12.5514 -1.82449
205 1 40.9722 10.9028 -0.196094 40.9722 10.9028 -0.196094
206 2 42.8738 10.9023 1.43463 42.8738 10.9023 1.43463
207 2 42.8732 10.9033 -1.82755 42.8732 10.9033 -1.82755
208 1 43.8242 12.5494 -0.196154 43.8242 12.5494 -0.196154
209 2 45.7255 12.5486 1.43491 45.7255 12.5486 1.43491
210 2 45.7255 12.5502 -1.82728 45.7255 12.5502 -1.82728
211 1 46.6761 10.9028 -0.197043 46.6761 10.9028 -0.197043
212 2 48.5764 10.9037 1.4353 48.5764 10.9037 1.4353
213 2 48.5785 10.9019 -1.82688 48.5785 10.9019 -1.82688
214 1 49.5281 12.5494 -0.196087 49.5281 12.5494 -0.196087
215 2 51.4281 12.5503 1.43654 51.4281 12.5503 1.43654
216 2 51.4308 12.5485 -1.82564 51.4308 12.5485 -1.82564
217 1 1.04461 14.1961 -0.194657 1.04461 14.1961 -0.194657
218 2 2.94445 14.1969 1.43814 2.94445 14.1969 1.43814
219 2 2.9474 14.1952 -1.82404 2.9474 14.1952 -1.82404
220 1 3.89659 15.8427 -0.192904 3.89659 15.8427 -0.192904
221 2 5.79621 15.8432 1.44015 5.79621 15.8432 1.44015
222 2 5.79959 15.8422 -1.82203 5.79959 15.8422 -1.82203
223 1 6.74856 14.1961 -0.189493 6.74856 14.1961 -0.189493
224 2 8.64721 14.1981 1.44469 8.64721 14.1981 1.44469
225 2 8.65253 14.194 -1.81749 8.65253 14.194 -1.81749
226 1 9.60053 15.8427 -0.186911 9.60053 15.8427 -0.186911
227 2 11.4989 15.8435 1.44761 11.4989 15.8435 1.44761
228 2 11.5048 15.8418 -1.81457 11.5048 15.8418 -1.81457
229 1 12.4525 14.196 -0.180909 12.4525 14.196 -0.180909
230 2 14.351 14.1976 1.45347 14.351 14.1976 1.45347
231 2 14.3566 14.1945 -1.80871 14.3566 14.1945 -1.80871
232 1 15.3045 15.8427 -0.177536 15.3045 15.8427 -0.177536
233 2 17.203 15.8422 1.45676 17.203 15.8422 1.45676
234 2 17.2085 15.8432 -1.80542 17.2085 15.8432 -1.80542
235 1 18.1564 14.196 -0.173239 18.1564 14.196 -0.173239
236 2 20.0564 14.1955 1.45936 20.0564 14.1955 1.45936
237 2 20.0591 14.1965 -1.80283 20.0591 14.1965 -1.80283
238 1 21.0084 15.8427 -0.170489 21.0084 15.8427 -0.170489
239 2 22.9089 15.84 1.46149 22.9089 15.84 1.46149
240 2 22.9105 15.8453 -1.80069 22.9105 15.8453 -1.80069
241 1 23.8604 14.196 -0.171813 23.8604 14.196 -0.171813
242 2 25.7625 14.1934 1.45825 25.7625 14.1934 1.45825
243 2 25.7608 14.1986 -1.80393 25.7608 14.1986 -1.80393
244 1 26.7123 15.8427 -0.170754 26.7123 15.8427 -0.170754
245 2 28.615 15.8385 1.45875 28.615 15.8385 1.45875
246 2 28.6123 15.8468 -1.80343 28.6123 15.8468 -1.80343
247 1 29.5643 14.196 -0.177285 29.5643 14.196 -0.177285
248 2 31.4676 14.1925 1.45141 31.4676 14.1925 1.45141
249 2 31.4636 14.1996 -1.81077 31.4636 14.1996 -1.81077
250 1 32.4163 15.8427 -0.177275 32.4163 15.8427 -0.177275
251 2 34.3197 15.8383 1.45131 34.3197 15.8383 1.45131
252 2 34.3155 15.847 -1.81087 34.3155 15.847 -1.81087
253 1 35.2682 14.196 -0.185464 35.2682 14.196 -0.185464
254 2 37.1714 14.1927 1.44349 37.1714 14.1927 1.44349
255 2 37.1677 14.1994 -1.81869 37.1677 14.1994 -1.81869
256 1 38.1202 15.8427 -0.185286 38.1202 15.8427 -0.185286
257 2 40.0233 15.839 1.44378 40.0233 15.839 1.44378
258 2 40.0198 15.8463 -1.8184 40.0198 15.8463 -1.8184
259 1 40.9722 14.196 -0.192065 40.9722 14.196 -0.192065
260 2 42.8745 14.1937 1.43791 42.8745 14.1937 1.43791
261 2 42.8726 14.1984 -1.82427 42.8726 14.1984 -1.82427
262 1 43.8242 15.8427 -0.191336 43.8242 15.8427 -0.191336
263 2 45.7263 15.8402 1.43878 45.7263 15.8402 1.43878
264 2 45.7247 15.8452 -1.8234 45.7247 15.8452 -1.8234
265 1 46.6761 14.196 -0.195373 46.6761 14.196 -0.195373
266 2 48.5773 14.1951 1.43591 48.5773 14.1951 1.43591
267 2 48.5776 14.197 -1.82628 48.5776 14.197 -1.82628
268 1 49.5281 15.8427 -0.194112 49.5281 15.8427 -0.194112
269 2 51.4291 15.8417 1.43732 51.4291 15.8417 1.43732
270 2 51.4297 15.8437 -1.82486 51.4297 15.8437 -1.82486
271 1 1.04461 17.4893 -0.192569 1.04461 17.4893 -0.192569
272 2 2.94543 17.4882 1.43909 2.94543 17.4882 1.43909
273 2 2.94642 17.4904 -1.8231 2.94642 17.4904 -1.8231
274 1 3.89659 19.1359 -0.190565 3.89659 19.1359 -0.190565
275 2 5.79694 19.1344 1.44165 5.79694 19.1344 1.44165
276 2 5.79887 19.1375 -1.82054 5.79887 19.1375 -1.82054
277 1 6.74856 17.4893 -0.190451 6.74856 17.4893 -0.190451
278 2 8.64769 17.4891 1.44318 8.64769 17.4891 1.44318
279 2 8.65206 17.4896 -1.819 8.65206 17.4896 -1.819
280 1 9.60053 19.1359 -0.186387 9.60053 19.1359 -0.186387
281 2 11.4989 19.1345 1.44815 11.4989 19.1345 1.44815
282 2 11.5048 19.1373 -1.81403 11.5048 19.1373 -1.81403
283 1 12.4525 17.4893 -0.182626 12.4525 17.4893 -0.182626
284 2 14.3505 17.4885 1.45238 14.3505 17.4885 1.45238
285 2 14.3572 17.4901 -1.8098 14.3572 17.4901 -1.8098
286 1 15.3045 19.1359 -0.175994 15.3045 19.1359 -0.175994
287 2 17.2022 19.1335 1.45925 17.2022 19.1335 1.45925
288 2 17.2093 19.1384 -1.80292 17.2093 19.1384 -1.80292
289 1 18.1564 17.4893 -0.172236 18.1564 17.4893 -0.172236
290 2 20.0553 17.4868 1.4617 20.0553 17.4868 1.4617
291 2 20.0602 17.4918 -1.80048 20.0602 17.4918 -1.80048
292 1 21.0084 19.1359 -0.165443 21.0084 19.1359 -0.165443
293 2 22.908 19.1319 1.46764 22.908 19.1319 1.46764
294 2 22.9114 19.1399 -1.79454 22.9114 19.1399 -1.79454
295 1 23.8604 17.4893 -0.166508 23.8604 17.4893 -0.166508
296 2 25.7617 17.4851 1.46458 25.7617 17.4851 1.46458
297 2 25.7617 17.4935 -1.7976 25.7617 17.4935 -1.7976
298 1 26.7123 19.1359 -0.162255 26.7123 19.1359 -0.162255
299 2 28.6146 19.1309 1.46774 28.6146 19.1309 1.46774
300 2 28.6128 19.1409 -1.79443 28.6128 19.1409 -1.79443
301 1 29.5643 17.4893 -0.168979 29.5643 17.4893 -0.168979
302 2 31.4675 17.4843 1.45991 31.4675 17.4843 1.45991
303 2 31.4638 17.4942 -1.80226 31.4638 17.4942 -1.80226
304 1 32.4163 19.1359 -0.167263 32.4163 19.1359 -0.167263
305 2 34.3199 19.1308 1.46107 34.3199 19.1308 1.46107
306 2 34.3153 19.141 -1.8011 34.3153 19.141 -1.8011
307 1 35.2683 17.4893 -0.176604 35.2683 17.4893 -0.176604
308 2 37.1718 17.4846 1.45184 37.1718 17.4846 1.45184
309 2 37.1673 17.4939 -1.81033 37.1673 17.4939 -1.81033
310 1 38.1202 19.1359 -0.175859 38.1202 19.1359 -0.175859
311 2 40.0239 19.1314 1.45249 40.0239 19.1314 1.45249
312 2 40.0192 19.1405 -1.80968 40.0192 19.1405 -1.80968
313 1 40.9722 17.4893 -0.184591 40.9722 17.4893 -0.184591
314 2 42.8752 17.4856 1.44454 42.8752 17.4856 1.44454
315 2 42.8718 17.493 -1.81764 42.8718 17.493 -1.81764
316 1 43.8242 19.1359 -0.183739 43.8242 19.1359 -0.183739
317 2 45.7271 19.1323 1.44549 45.7271 19.1323 1.44549
318 2 45.7239 19.1396 -1.81669 45.7239 19.1396 -1.81669
319 1 46.6761 17.4893 -0.190236 46.6761 17.4893 -0.190236
320 2 48.5782 17.4868 1.44 48.5782 17.4868 1.44
321 2 48.5767 17.4918 -1.82218 48.5767 17.4918 -1.82218
322 1 49.5281 19.1359 -0.18895 49.5281 19.1359 -0.18895
323 2 51.43 19.1334 1.44145 51.43 19.1334 1.44145
324 2 51.4289 19.1384 -1.82073 51.4289 19.1384 -1.82073
325 1 1.04461 20.7826 -0.187435 1.04461 20.7826 -0.187435
326 2 2.94616 20.7799 1.44337 2.94616 20.7799 1.44337
327 2 2.94569 20.7852 -1.81881 2.94569 20.7852 -1.81881
328 1 3.89659 22.4292 -0.185172 3.89659 22.4292 -0.185172
329 2 5.79737 22.4261 1.44654 5.79737 22.4261 1.44654
330 2 5.79844 22.4322 -1.81564 5.79844 22.4322 -1.81564
331 1 6.74856 20.7826 -0.187341 6.74856 20.7826 -0.187341
332 2 8.64803 20.7803 1.44591 8.64803 20.7803 1.44591
333 2 8.65173 20.7848 -1.81627 8.65173 20.7848 -1.81627
334 1 9.60054 22.4292 -0.181845 9.60054 22.4292 -0.181845
335 2 11.4989 22.426 1.45272 11.4989 22.426 1.45272
336 2 11.5048 22.4323 -1.80946 11.5048 22.4323 -1.80946
337 1 12.4525 20.7826 -0.179813 12.4525 20.7826 -0.179813
338 2 14.3501 20.7799 1.45562 14.3501 20.7799 1.45562
339 2 14.3575 20.7852 -1.80655 14.3575 20.7852 -1.80655
340 1 15.3045 22.4292 -0.17059 15.3045 22.4292 -0.17059
341 2 17.2017 22.4254 1.46522 17.2017 22.4254 1.46522
342 2 17.2098 22.4329 -1.79695 17.2098 22.4329 -1.79695
343 1 18.1564 20.7825 -0.167281 18.1564 20.7825 -0.167281
344 2 20.0545 20.7787 1.46758 20.0545 20.7787 1.46758
345 2 20.061 20.7863 -1.79459 20.061 20.7863 -1.79459
346 1 21.0084 22.4292 -0.157776 21.0084 22.4292 -0.157776
347 2 22.9075 22.4247 1.47593 22.9075 22.4247 1.47593
348 2 22.912 22.4336 -1.78624 22.912 22.4336 -1.78624
349 1 23.8604 20.7825 -0.158384 23.8604 20.7825 -0.158384
350 2 25.7611 20.7777 1.47336 25.7611 20.7777 1.47336
351 2 25.7623 20.7873 -1.78881 25.7623 20.7873 -1.78881
352 1 26.7124 22.4291 -0.152507 26.7124 22.4291 -0.152507
353 2 28.6144 22.4243 1.47769 28.6144 22.4243 1.47769
354 2 28.6129 22.434 -1.78448 28.6129 22.434 -1.78448
355 1 29.5643 20.7825 -0.158776 29.5643 20.7825 -0.158776
356 2 31.4675 20.7773 1.47014 31.4675 20.7773 1.47014
357 2 31.4638 20.7877 -1.79203 31.4638 20.7877 -1.79203
358 1 32.4163 22.4291 -0.156781 32.4163 22.4291 -0.156781
359 2 34.3202 22.4243 1.47128 34.3202 22.4243 1.47128
360 2 34.315 22.4339 -1.79089 34.315 22.4339 -1.79089
361 1 35.2683 20.7825 -0.166172 35.2683 20.7825 -0.166172
362 2 37.1723 20.7776 1.46177 37.1723 20.7776 1.46177
363 2 37.1669 20.7874 -1.8004 37.1669 20.7874 -1.8004
364 1 38.1202 22.4291 -0.165906 38.1202 22.4291 -0.165906
365 2 40.0244 22.4247 1.4619 40.0244 22.4247 1.4619
366 2 40.0187 22.4336 -1.80027 40.0187 22.4336 -1.80027
367 1 40.9722 20.7825 -0.175339 40.9722 20.7825 -0.175339
368 2 42.8758 20.7783 1.45305 42.8758 20.7783 1.45305
369 2 42.8712 20.7868 -1.80912 42.8712 20.7868 -1.80912
370 1 43.8242 22.4292 -0.175042 43.8242 22.4292 -0.175042
371 2 45.7277 22.4252 1.45352 45.7277 22.4252 1.45352
372 2 45.7233 22.4331 -1.80865 45.7233 22.4331 -1.80865
373 1 46.6762 20.7825 -0.182849 46.6762 20.7825 -0.182849
374 2 48.5789 20.7791 1.44653 48.5789 20.7791 1.44653
375 2 48.576 20.786 -1.81564 48.576 20.786 -1.81564
376 1 49.5281 22.4292 -0.181889 49.5281 22.4292 -0.181889
377 2 51.4306 22.4258 1.44781 51.4306 22.4258 1.44781
378 2 51.4283 22.4326 -1.81436 51.4283 22.4326 -1.81436
379 1 1.04461 24.0758 -0.180522 1.04461 24.0758 -0.180522
380 2 2.94651 24.0722 1.44988 2.94651 24.0722 1.44988
381 2 2.94535 24.0794 -1.81229 2.94535 24.0794 -1.81229
382 1 3.89659 25.7224 -0.17794 3.89659 25.7224 -0.17794
383 2 5.79745 25.7185 1.45369 5.79745 25.7185 1.45369
384 2 5.79836 25.7264 -1.80849 5.79836 25.7264 -1.80849
385 1 6.74856 24.0758 -0.18116 6.74856 24.0758 -0.18116
386 2 8.64816 24.0722 1.45194 8.64816 24.0722 1.45194
387 2 8.6516 24.0795 -1.81023 8.6516 24.0795 -1.81023
388 1 9.60054 25.7224 -0.174451 9.60054 25.7224 -0.174451
389 2 11.4989 25.7182 1.46014 11.4989 25.7182 1.46014
390 2 11.5048 25.7266 -1.80203 11.5048 25.7266 -1.80203
391 1 12.4525 24.0758 -0.173465 12.4525 24.0758 -0.173465
392 2 14.3499 24.0719 1.46218 14.3499 24.0719 1.46218
393 2 14.3577 24.0797 -1.79999 14.3577 24.0797 -1.79999
394 1 15.3045 25.7224 -0.162675 15.3045 25.7224 -0.162675
395 2 17.2017 25.7182 1.47324 17.2017 25.7182 1.47324
396 2 17.2099 25.7267 -1.78893 17.2099 25.7267 -1.78893
397 1 18.1564 24.0758 -0.159729 18.1564 24.0758 -0.159729
398 2 20.0542 24.0715 1.47553 20.0542 24.0715 1.47553
399 2 20.0613 24.08 -1.78664 20.0613 24.08 -1.78664
400 1 21.0084 25.7224 -0.149149 21.0084 25.7224 -0.149149
401 2 22.9074 25.7183 1.48462 22.9074 25.7183 1.48462
402 2 22.912 25.7265 -1.77755 22.912 25.7265 -1.77755
403 1 23.8604 24.0758 -0.149298 23.8604 24.0758 -0.149298
404 2 25.7609 24.0713 1.48266 25.7609 24.0713 1.48266
405 2 25.7625 24.0802 -1.77951 25.7625 24.0802 -1.77951
406 1 26.7124 25.7224 -0.143448 26.7124 25.7224 -0.143448
407 2 28.6145 25.7185 1.48661 28.6145 25.7185 1.48661
408 2 28.6128 25.7262 -1.77557 28.6128 25.7262 -1.77557
409 1 29.5643 24.0757 -0.148893 29.5643 24.0757 -0.148893
410 2 31.4676 24.0714 1.47988 31.4676 24.0714 1.47988
411 2 31.4637 24.0801 -1.78229 31.4637 24.0801 -1.78229
412 1 32.4163 25.7224 -0.147915 32.4163 25.7224 -0.147915
413 2 34.3204 25.7188 1.47989 34.3204 25.7188 1.47989
414 2 34.3148 25.7259 -1.78229 34.3148 25.7259 -1.78229
415 1 35.2683 24.0758 -0.15645 35.2683 24.0758 -0.15645
416 2 37.1726 24.0716 1.47114 37.1726 24.0716 1.47114
417 2 37.1666 24.0799 -1.79103 37.1666 24.0799 -1.79103
418 1 38.1202 25.7224 -0.157467 38.1202 25.7224 -0.157467
419 2 40.0246 25.7189 1.47008 40.0246 25.7189 1.47008
420 2 40.0185 25.7259 -1.79209 40.0185 25.7259 -1.79209
421 1 40.9722 24.0758 -0.166306 40.9722 24.0758 -0.166306
422 2 42.8762 24.0718 1.46163 42.8762 24.0718 1.46163
423 2 42.8708 24.0797 -1.80055 42.8708 24.0797 -1.80055
424 1 43.8242 25.7224 -0.167037 43.8242 25.7224 -0.167037
425 2 45.7279 25.7189 1.46124 45.7279 25.7189 1.46124
426 2 45.7231 25.7259 -1.80094 45.7231 25.7259 -1.80094
427 1 46.6762 24.0758 -0.174825 46.6762 24.0758 -0.174825
428 2 48.5794 24.0721 1.45406 48.5794 24.0721 1.45406
429 2 48.5756 24.0795 -1.80812 48.5756 24.0795 -1.80812
430 1 49.5281 25.7224 -0.174391 49.5281 25.7224 -0.174391
431 2 51.4308 25.7188 1.45509 51.4308 25.7188 1.45509
432 2 51.4281 25.7261 -1.80709 51.4281 25.7261 -1.80709
433 1 1.04462 27.369 -0.173102 1.04462 27.369 -0.173102
434 2 2.94644 27.3651 1.4574 2.94644 27.3651 1.4574
435 2 2.94543 27.373 -1.80477 2.94543 27.373 -1.80477
436 1 3.89659 29.0157 -0.170024 3.89659 29.0157 -0.170024
437 2 5.79719 29.0114 1.46191 5.79719 29.0114 1.46191
438 2 5.79862 29.02 -1.80026 5.79862 29.02 -1.80026
439 1 6.74857 27.3691 -0.173117 6.74857 27.3691 -0.173117
440 2 8.64809 27.3646 1.46007 8.64809 27.3646 1.46007
441 2 8.65167 27.3735 -1.8021 8.65167 27.3735 -1.8021
442 1 9.60054 29.0157 -0.165494 9.60054 29.0157 -0.165494
443 2 11.4989 29.0111 1.46908 11.4989 29.0111 1.46908
444 2 11.5048 29.0203 -1.79309 11.5048 29.0203 -1.79309
445 1 12.4525 27.3691 -0.164933 12.4525 27.3691 -0.164933
446 2 14.35 27.3646 1.47064 14.35 27.3646 1.47064
447 2 14.3576 27.3735 -1.79152 14.3576 27.3735 -1.79152
448 1 15.3045 29.0157 -0.15372 15.3045 29.0157 -0.15372
449 2 17.202 29.0116 1.48184 17.202 29.0116 1.48184
450 2 17.2096 29.0197 -1.78033 17.2096 29.0197 -1.78033
451 1 18.1564 27.369 -0.151128 18.1564 27.369 -0.151128
452 2 20.0543 27.365 1.48397 20.0543 27.365 1.48397
453 2 20.0612 27.373 -1.7782 20.0612 27.373 -1.7782
454 1 21.0084 29.0156 -0.141067 21.0084 29.0156 -0.141067
455 2 22.9078 29.0125 1.49225 22.9078 29.0125 1.49225
456 2 22.9116 29.0188 -1.76993 22.9116 29.0188 -1.76993
457 1 23.8604 27.369 -0.140922 23.8604 27.369 -0.140922
458 2 25.7612 27.3656 1.49078 25.7612 27.3656 1.49078
459 2 25.7622 27.3724 -1.77139 25.7622 27.3724 -1.77139
460 1 26.7124 29.0156 -0.136517 26.7124 29.0156 -0.136517
461 2 28.6149 29.0133 1.49309 28.6149 29.0133 1.49309
462 2 28.6124 29.0179 -1.76909 28.6124 29.0179 -1.76909
463 1 29.5643 27.369 -0.141072 29.5643 27.369 -0.141072
464 2 31.4679 27.3661 1.4874 31.4679 27.3661 1.4874
465 2 31.4634 27.3719 -1.77478 31.4634 27.3719 -1.77478
466 1 32.4163 29.0156 -0.142049 32.4163 29.0156 -0.142049
467 2 34.3207 29.0138 1.48549 34.3207 29.0138 1.48549
468 2 34.3146 29.0175 -1.77669 34.3146 29.0175 -1.77669
469 1 35.2683 27.369 -0.14922 35.2683 27.369 -0.14922
470 2 37.1728 27.3663 1.47819 37.1728 27.3663 1.47819
471 2 37.1664 27.3717 -1.78399 37.1664 27.3717 -1.78399
472 1 38.1203 29.0156 -0.151999 38.1203 29.0156 -0.151999
473 2 40.0246 29.0137 1.47555 40.0246 29.0137 1.47555
474 2 40.0185 29.0176 -1.78663 40.0185 29.0176 -1.78663
475 1 40.9722 27.369 -0.159251 40.9722 27.369 -0.159251
476 2 42.8763 27.3661 1.46859 42.8763 27.3661 1.46859
477 2 42.8707 27.3719 -1.79358 42.8707 27.3719 -1.79358
478 1 43.8242 29.0156 -0.161197 43.8242 29.0156 -0.161197
479 2 45.7278 29.0132 1.46724 45.7278 29.0132 1.46724
480 2 45.7232 29.0182 -1.79494 45.7232 29.0182 -1.79494
481 1 46.6762 27.369 -0.167703 46.6762 27.369 -0.167703
482 2 48.5794 27.3657 1.46116 48.5794 27.3657 1.46116
483 2 48.5756 27.3723 -1.80102 48.5756 27.3723 -1.80102
484 1 49.5281 29.0157 -0.167717 49.5281 29.0157 -0.167717
485 2 51.4306 29.0123 1.46207 51.4306 29.0123 1.46207
486 2 51.4283 29.0191 -1.80011 51.4283 29.0191 -1.80011
487 1 1.04462 30.6623 -0.166249 1.04462 30.6623 -0.166249
488 2 2.94595 30.6586 1.46483 2.94595 30.6586 1.46483
489 2 2.94592 30.666 -1.79734 2.94592 30.666 -1.79734
490 1 3.89659 32.3089 -0.162499 3.89659 32.3089 -0.162499
491 2 5.79667 32.3049 1.47005 5.79667 32.3049 1.47005
492 2 5.79915 32.313 -1.79212 5.79915 32.313 -1.79212
493 1 6.74857 30.6623 -0.164396 6.74857 30.6623 -0.164396
494 2 8.64789 30.6577 1.46903 8.64789 30.6577 1.46903
495 2 8.65187 30.6669 -1.79314 8.65187 30.6669 -1.79314
496 1 9.60054 32.3089 -0.156266 9.60054 32.3089 -0.156266
497 2 11.499 32.3046 1.47821 11.499 32.3046 1.47821
498 2 11.5047 32.3133 -1.78396 11.5047 32.3133 -1.78396
499 1 12.4525 30.6623 -0.155594 12.4525 30.6623 -0.155594
500 2 14.3503 30.658 1.47963 14.3503 30.658 1.47963
501 2 14.3573 30.6666 -1.78254 14.3573 30.6666 -1.78254
502 1 15.3045 32.3089 -0.145052 15.3045 32.3089 -0.145052
503 2 17.2026 32.3055 1.48976 17.2026 32.3055 1.48976
504 2 17.209 32.3123 -1.77241 17.209 32.3123 -1.77241
505 1 18.1564 30.6623 -0.142876 18.1564 30.6623 -0.142876
506 2 20.0549 30.6591 1.49155 20.0549 30.6591 1.49155
507 2 20.0606 30.6654 -1.77062 20.0606 30.6654 -1.77062
508 1 21.0084 32.3089 -0.134651 21.0084 32.3089 -0.134651
509 2 22.9086 32.3071 1.49778 22.9086 32.3071 1.49778
510 2 22.9109 32.3107 -1.7644 22.9109 32.3107 -1.7644
511 1 23.8604 30.6623 -0.134501 23.8604 30.6623 -0.134501
512 2 25.7617 30.6603 1.49655 25.7617 30.6603 1.49655
513 2 25.7617 30.6642 -1.76563 25.7617 30.6642 -1.76563
514 1 26.7124 32.3089 -0.132568 26.7124 32.3089 -0.132568
515 2 28.6155 32.3083 1.49636 28.6155 32.3083 1.49636
516 2 28.6118 32.3094 -1.76582 28.6118 32.3094 -1.76582
517 1 29.5643 30.6622 -0.136368 29.5643 30.6622 -0.136368
518 2 31.4683 30.6612 1.49166 31.4683 30.6612 1.49166
519 2 31.463 30.6633 -1.77052 31.463 30.6633 -1.77052
520 1 32.4163 32.3089 -0.139843 32.4163 32.3089 -0.139843
521 2 34.3209 32.3089 1.48743 34.3209 32.3089 1.48743
522 2 34.3144 32.3088 -1.77475 34.3144 32.3088 -1.77475
523 1 35.2683 30.6623 -0.145503 35.2683 30.6623 -0.145503
524 2 37.1728 30.6614 1.48184 37.1728 30.6614 1.48184
525 2 37.1664 30.6631 -1.78034 37.1664 30.6631 -1.78034
526 1 38.1203 32.3089 -0.15024 38.1203 32.3089 -0.15024
527 2 40.0244 32.3087 1.47752 40.0244 32.3087 1.47752
528 2 40.0187 32.309 -1.78466 40.0187 32.309 -1.78466
529 1 40.9722 30.6623 -0.155355 40.9722 30.6623 -0.155355
530 2 42.8761 30.6609 1.47276 42.8761 30.6609 1.47276
531 2 42.871 30.6636 -1.78942 42.871 30.6636 -1.78942
532 1 43.8242 32.3089 -0.158444 43.8242 32.3089 -0.158444
533 2 45.7273 32.3078 1.4706 45.7273 32.3078 1.4706
534 2 45.7237 32.31 -1.79159 45.7237 32.31 -1.79159
535 1 46.6762 30.6623 -0.16266 46.6762 30.6623 -0.16266
536 2 48.579 30.6599 1.46669 48.579 30.6599 1.46669
537 2 48.576 30.6647 -1.79549 48.576 30.6647 -1.79549
538 1 49.5281 32.3089 -0.162827 49.5281 32.3089 -0.162827