ITEM: TIMESTEP
6000
ITEM: NUMBER OF ATOMS
810
ITEM: BOX BOUNDS pp pp pp
8.6078388851031074e-01 5.2156821111489784e+01
8.4150868097579823e-01 5.0174706319023642e+01
-1.0000000000000000e+01 1.0000000000000000e+01
ITEM: ATOMS id type x y z xu yu zu
1 1 1.06972 1.04712 0.296534 1.06972 1.04712 0.296534
2 2 3.00276 0.919525 1.88439 3.00276 0.919525 1.88439
3 2 2.93863 1.17114 -1.36734 2.93863 1.17114 -1.36734
4 1 3.92202 2.68779 0.367491 3.92202 2.68779 0.367491
5 2 5.88498 2.57893 1.92009 5.88498 2.57893 1.92009
6 2 5.75953 2.79504 -1.33236 5.75953 2.79504 -1.33236
7 1 6.77104 1.04443 0.147702 6.77104 1.04443 0.147702
8 2 8.74581 0.93147 1.68455 8.74581 0.93147 1.68455
9 2 8.59475 1.15685 -1.56635 8.59475 1.15685 -1.56635
10 1 9.62122 2.68822 0.129403 9.62122 2.68822 0.129403
11 2 11.6105 2.59307 1.64885 11.6105 2.59307 1.64885
12 2 11.4286 2.78464 -1.60273 11.4286 2.78464 -1.60273
13 1 12.468 1.04718 -0.127073 12.468 1.04718 -0.127073
14 2 14.454 50.2789 1.39616 14.454 0.945708 1.39616
15 2 14.2788 1.15154 -1.855 14.2788 1.15154 -1.855
16 1 15.317 2.69316 -0.176196 15.317 2.69316 -0.176196
17 2 17.2967 2.60014 1.35576 17.2967 2.60014 1.35576
18 2 17.1346 2.79025 -1.89715 17.1346 2.79025 -1.89715
19 1 18.165 1.05438 -0.414224 18.165 1.05438 -0.414224
20 2 20.1267 50.2888 1.14054 20.1267 0.955602 1.14054
21 2 20.003 1.15846 -2.11319 20.003 1.15846 -2.11319
22 1 21.0158 2.70128 -0.419823 21.0158 2.70128 -0.419823
23 2 22.9524 2.59881 1.16606 22.9524 2.59881 1.16606
24 2 22.8805 2.80957 -2.0888 22.8805 2.80957 -2.0888
25 1 23.8673 1.06343 -0.588892 23.8673 1.06343 -0.588892
26 2 25.774 0.957568 1.03302 25.774 0.957568 1.03302
27 2 25.7637 1.17487 -2.22196 25.7637 1.17487 -2.22196
28 1 26.7197 2.70957 -0.487593 26.7197 2.70957 -0.487593
29 2 28.5888 2.59068 1.1767 28.5888 2.59068 1.1767
30 2 28.6526 2.8329 -2.07595 28.6526 2.8329 -2.07595
31 1 29.5724 1.06999 -0.553421 29.5724 1.06999 -0.553421
32 2 31.4096 0.950303 1.14612 31.4096 0.950303 1.14612
33 2 31.5356 1.1921 -2.10456 31.5356 1.1921 -2.10456
34 1 32.4215 2.71255 -0.320054 32.4215 2.71255 -0.320054
35 2 34.2302 2.5773 1.40847 34.2302 2.5773 1.40847
36 2 34.4097 2.84774 -1.83747 34.4097 2.84774 -1.83747
37 1 35.2711 1.06933 -0.299016 35.2711 1.06933 -0.299016
38 2 37.0694 0.93579 1.44024 37.0694 0.93579 1.44024
39 2 37.2685 1.20078 -1.80498 37.2685 1.20078 -1.80498
40 1 38.1158 2.70751 0.00994019 38.1158 2.70751 0.00994019
41 2 39.9184 2.56371 1.74368 39.9184 2.56371 1.74368
42 2 40.1093 2.84784 -1.50033 40.1093 2.84784 -1.50033
43 1 40.9647 1.06216 0.0333273 40.9647 1.06216 0.0333273
44 2 42.7848 0.92175 1.74849 42.7848 0.92175 1.74849
45 2 42.9425 1.19827 -1.49806 42.9425 1.19827 -1.49806
46 1 43.8116 2.69897 0.311298 43.8116 2.69897 0.311298
47 2 45.6612 2.55827 1.99478 45.6612 2.55827 1.99478
48 2 45.7632 2.83562 -1.25374 45.7632 2.83562 -1.25374
49 1 46.6629 1.05372 0.25958 46.6629 1.05372 0.25958
50 2 48.5388 0.91573 1.91364 48.5388 0.91573 1.91364
51 2 48.5891 1.18707 -1.33675 48.5891 1.18707 -1.33675
52 1 49.5142 2.69181 0.440687 49.5142 2.69181 0.440687
53 2 51.4253 2.56459 2.05535 51.4253 2.56459 2.05535
54 2 51.4065 2.81552 -1.19683 51.4065 2.81552 -1.19683
55 1 1.07108 4.33245 0.551265 1.07108 4.33245 0.551265
56 2 3.01795 4.22922 2.12486 3.01795 4.22922 2.12486
57 2 2.92694 4.43382 -1.12925 2.92694 4.43382 -1.12925
58 1 3.92395 5.97637 0.575435 3.92395 5.97637 0.575435
59 2 5.90182 5.90517 2.11197 5.90182 5.90517 2.11197
60 2 5.74615 6.04702 -1.14309 5.74615 6.04702 -1.14309
61 1 6.77343 4.33138 0.367107 6.77343 4.33138 0.367107
62 2 8.75953 4.24748 1.89181 8.75953 4.24748 1.89181
63 2 8.58527 4.41527 -1.36132 8.58527 4.41527 -1.36132
64 1 9.62269 5.97725 0.299819 9.62269 5.97725 0.299819
65 2 11.6195 5.91856 1.8117 11.6195 5.91856 1.8117
66 2 11.4218 6.03674 -1.44246 11.4218 6.03674 -1.44246
67 1 12.4699 4.33395 0.0672543 12.4699 4.33395 0.0672543
68 2 14.461 4.25542 1.58535 14.461 4.25542 1.58535
69 2 14.2748 4.41484 -1.66789 14.2748 4.41484 -1.66789
70 1 15.3177 5.98068 -0.014671 15.3177 5.98068 -0.014671
71 2 17.296 5.915 1.52057 17.296 5.915 1.52057
72 2 17.1362 6.0494 -1.73541 17.1362 6.0494 -1.73541
73 1 18.1661 4.33989 -0.221702 18.1661 4.33989 -0.221702
74 2 20.1265 4.25123 1.33527 20.1265 4.25123 1.33527
75 2 20.0046 4.43334 -1.91999 20.0046 4.43334 -1.91999
76 1 21.0159 5.98684 -0.235696 21.0159 5.98684 -0.235696
77 2 22.9451 5.89976 1.35995 22.9451 5.89976 1.35995
78 2 22.8872 6.07888 -1.89736 22.8872 6.07888 -1.89736
79 1 23.8672 4.34789 -0.375729 23.8672 4.34789 -0.375729
80 2 25.7685 4.2396 1.25209 25.7685 4.2396 1.25209
81 2 25.7678 4.46159 -2.00288 25.7678 4.46159 -2.00288
82 1 26.7181 5.99349 -0.263192 26.7181 5.99349 -0.263192
83 2 28.5789 5.88121 1.41058 28.5789 5.88121 1.41058
84 2 28.6577 6.10964 -1.84301 28.6577 6.10964 -1.84301
85 1 29.5702 4.35364 -0.308366 29.5702 4.35364 -0.308366
86 2 31.402 4.22485 1.39623 31.402 4.22485 1.39623
87 2 31.5375 4.48466 -1.85288 31.5375 4.48466 -1.85288
88 1 32.4172 5.99523 -0.0570346 32.4172 5.99523 -0.0570346
89 2 34.2223 5.86485 1.67569 34.2223 5.86485 1.67569
90 2 34.4082 6.12542 -1.57076 34.4082 6.12542 -1.57076
91 1 35.2668 4.35196 -0.0250078 35.2668 4.35196 -0.0250078
92 2 37.0639 4.21069 1.7151 37.0639 4.21069 1.7151
93 2 37.2653 4.49116 -1.52862 37.2653 4.49116 -1.52862
94 1 38.1105 5.98985 0.294404 38.1105 5.98985 0.294404
95 2 39.9172 5.8558 2.02524 39.9172 5.8558 2.02524
96 2 40.1012 6.12132 -1.22052 40.1012 6.12132 -1.22052
97 1 40.9606 4.34434 0.321505 40.9606 4.34434 0.321505
98 2 42.786 4.20405 2.03178 42.786 4.20405 2.03178
99 2 42.9348 4.48127 -1.21482 42.9348 4.48127 -1.21482
100 1 43.8084 5.98258 0.592758 43.8084 5.98258 0.592758
101 2 45.6699 5.86093 2.26564 45.6699 5.86093 2.26564
102 2 45.7506 6.10208 -0.985978 45.7506 6.10208 -0.985978
103 1 46.6615 4.33694 0.541022 46.6615 4.33694 0.541022
104 2 48.5486 4.2112 2.18416 48.5486 4.2112 2.18416
105 2 48.5784 4.45981 -1.06793 48.5784 4.45981 -1.06793
106 1 49.5144 5.97799 0.693272 49.5144 5.97799 0.693272
107 2 51.4419 5.88099 2.29144 51.4419 5.88099 2.29144
108 2 51.3917 6.07362 -0.964048 51.3917 6.07362 -0.964048
109 1 1.07251 7.62269 0.747284 1.07251 7.62269 0.747284
110 2 3.0378 7.56363 2.30098 3.0378 7.56363 2.30098
111 2 2.9099 7.68132 -0.955958 2.9099 7.68132 -0.955958
112 1 3.92505 9.26987 0.695508 3.92505 9.26987 0.695508
113 2 5.91899 9.25127 2.21322 5.91899 9.25127 2.21322
114 2 5.72988 9.28791 -1.04284 5.72988 9.28791 -1.04284
115 1 6.7746 7.62276 0.511456 6.7746 7.62276 0.511456
116 2 8.77229 7.58507 2.02329 8.77229 7.58507 2.02329
117 2 8.57375 7.66026 -1.23185 8.57375 7.66026 -1.23185
118 1 9.62214 9.26986 0.376401 9.62214 9.26986 0.376401
119 2 11.6237 9.26184 1.88331 11.6237 9.26184 1.88331
120 2 11.4157 9.27759 -1.37236 11.4157 9.27759 -1.37236
121 1 12.4699 7.62412 0.187177 12.4699 7.62412 0.187177
122 2 14.4616 7.58688 1.70618 14.4616 7.58688 1.70618
123 2 14.2737 7.66255 -1.55009 14.2737 7.66255 -1.55009
124 1 15.3164 9.2711 0.0618154 15.3164 9.2711 0.0618154
125 2 17.2874 9.24981 1.60777 17.2874 9.24981 1.60777
126 2 17.1426 9.29414 -1.65151 17.1426 9.29414 -1.65151
127 1 18.1657 7.6278 -0.0858538 18.1657 7.6278 -0.0858538
128 2 20.1177 7.57098 1.48314 20.1177 7.57098 1.48314
129 2 20.0126 7.68813 -1.7759 20.0126 7.68813 -1.7759
130 1 21.0147 9.27502 -0.117653 21.0147 9.27502 -0.117653
131 2 22.9296 9.22449 1.49653 22.9296 9.22449 1.49653
132 2 22.8999 9.3292 -1.76459 22.8999 9.3292 -1.76459
133 1 23.8661 7.63358 -0.194865 23.8661 7.63358 -0.194865
134 2 25.7557 7.54798 1.44766 25.7557 7.54798 1.44766
135 2 25.7772 7.72347 -1.81033 25.7772 7.72347 -1.81033
136 1 26.7155 9.27967 -0.0860982 26.7155 9.27967 -0.0860982
137 2 28.5637 9.1993 1.60326 28.5637 9.1993 1.60326
138 2 28.6661 9.36281 -1.65375 28.6661 9.36281 -1.65375
139 1 29.5666 7.63756 -0.077391 29.5666 7.63756 -0.077391
140 2 31.3907 7.52765 1.6367 31.3907 7.52765 1.6367
141 2 31.5401 7.74911 -1.61478 31.5401 7.74911 -1.61478
142 1 32.412 9.28041 0.167092 32.412 9.28041 0.167092
143 2 34.2133 9.18303 1.90614 34.2133 9.18303 1.90614
144 2 34.4063 9.37755 -1.3445 34.4063 9.37755 -1.3445
145 1 35.2612 7.63531 0.239075 35.2612 7.63531 0.239075
146 2 37.0592 7.51538 1.98015 37.0592 7.51538 1.98015
147 2 37.259 7.7537 -1.26691 37.259 7.7537 -1.26691
148 1 38.1051 9.27611 0.536268 38.1051 9.27611 0.536268
149 2 39.9184 9.17971 2.26334 39.9184 9.17971 2.26334
150 2 40.091 9.37118 -0.988002 40.091 9.37118 -0.988002
151 1 40.956 7.62898 0.59112 40.956 7.62898 0.59112
152 2 42.7916 7.51652 2.29339 42.7916 7.51652 2.29339
153 2 42.9224 7.73978 -0.9578 42.9224 7.73978 -0.9578
154 1 43.806 9.2716 0.819788 43.806 9.2716 0.819788
155 2 45.683 9.19347 2.47872 45.683 9.19347 2.47872
156 2 45.7349 9.34941 -0.778328 45.7349 9.34941 -0.778328
157 1 46.6604 7.62432 0.786177 46.6604 7.62432 0.786177
158 2 48.5648 7.53501 2.41268 48.5648 7.53501 2.41268
159 2 48.562 7.71293 -0.843804 48.562 7.71293 -0.843804
160 1 49.5152 9.26997 0.874506 49.5152 9.26997 0.874506
161 2 51.4628 9.22248 2.45121 51.4628 9.22248 2.45121
162 2 51.3728 9.31749 -0.807462 51.3728 9.31749 -0.807462
163 1 1.07361 10.918 0.84448 1.07361 10.918 0.84448
164 2 3.05809 10.9156 2.37525 3.05809 10.9156 2.37525
165 2 2.89063 10.9199 -0.881885 2.89063 10.9199 -0.881885
166 1 3.92455 12.5657 0.700644 3.92455 12.5657 0.700644
167 2 5.9328 12.605 2.19913 5.9328 12.605 2.19913
168 2 5.71307 12.5246 -1.05421 5.71307 12.5246 -1.05421
169 1 6.77387 10.9173 0.549179 6.77387 10.9173 0.549179
170 2 8.78142 10.9354 2.04846 8.78142 10.9354 2.04846
171 2 8.56171 10.8978 -1.20597 8.56171 10.8978 -1.20597
172 1 9.6192 12.5631 0.338572 9.6192 12.5631 0.338572
173 2 11.6219 12.6097 1.84324 11.6219 12.6097 1.84324
174 2 11.4112 12.515 -1.41095 11.4112 12.515 -1.41095
175 1 12.4677 10.9164 0.203147 12.4677 10.9164 0.203147
176 2 14.4555 10.931 1.72765 14.4555 10.931 1.72765
177 2 14.2756 10.9018 -1.52989 14.2756 10.9018 -1.52989
178 1 15.3135 12.5622 0.0318042 15.3135 12.5622 0.0318042
179 2 17.2721 12.5914 1.59339 17.2721 12.5914 1.59339
180 2 17.1531 12.5341 -1.66679 17.1531 12.5341 -1.66679
181 1 18.1639 10.918 -0.0415325 18.1639 10.918 -0.0415325
182 2 20.1012 10.9073 1.5465 20.1012 10.9073 1.5465
183 2 20.0259 10.9312 -1.71551 20.0259 10.9312 -1.71551
184 1 21.0128 12.565 -0.0943439 21.0128 12.565 -0.0943439
185 2 22.9085 12.5616 1.54322 22.9085 12.5616 1.54322
186 2 22.9171 12.5713 -1.71975 22.9171 12.5713 -1.71975
187 1 23.8642 10.9221 -0.0896298 23.8642 10.9221 -0.0896298
188 2 25.7369 10.8784 1.57366 25.7369 10.8784 1.57366
189 2 25.7911 10.969 -1.68754 25.7911 10.969 -1.68754
190 1 26.7127 12.569 0.0049329 26.7127 12.569 0.0049329
191 2 28.5459 12.5364 1.71223 28.5459 12.5364 1.71223
192 2 28.6771 12.6035 -1.54718 28.6771 12.6035 -1.54718
193 1 29.5626 10.925 0.0876876 29.5626 10.925 0.0876876
194 2 31.3771 10.8575 1.81412 31.3771 10.8575 1.81412
195 2 31.5445 10.9935 -1.44122 31.5445 10.9935 -1.44122
196 1 32.4075 12.5702 0.304618 32.4075 12.5702 0.304618
197 2 34.205 12.5252 2.04996 34.205 12.5252 2.04996
198 2 34.4055 12.615 -1.20474 34.4055 12.615 -1.20474
199 1 35.2558 10.9234 0.436234 35.2558 10.9234 0.436234
200 2 37.0555 10.8501 2.17852 37.0555 10.8501 2.17852
201 2 37.2527 10.9959 -1.07402 37.2527 10.9959 -1.07402
202 1 38.1011 12.5684 0.684395 38.1011 12.5684 0.684395
203 2 39.9214 12.529 2.40676 39.9214 12.529 2.40676
204 2 40.0817 12.6074 -0.849708 40.0817 12.6074 -0.849708
205 1 40.9525 10.9198 0.785778 40.9525 10.9198 0.785778
206 2 42.7998 10.8582 2.47859 42.7998 10.8582 2.47859
207 2 42.9093 10.9811 -0.778433 42.9093 10.9811 -0.778433
208 1 43.8049 12.567 0.945034 43.8049 12.567 0.945034
209 2 45.6975 12.5478 2.58859 45.6975 12.5478 2.58859
210 2 45.72 12.5865 -0.672068 45.72 12.5865 -0.672068
211 1 46.6603 10.9181 0.945114 46.6603 10.9181 0.945114
212 2 48.5838 10.8832 2.55191 48.5838 10.8832 2.55191
213 2 48.544 10.9534 -0.708165 48.544 10.9534 -0.708165
214 1 49.5161 12.5669 0.946565 49.5161 12.5669 0.946565
215 2 51.4834 12.5785 2.49979 51.4834 12.5785 2.49979
216 2 51.3535 12.5548 -0.758696 51.3535 12.5548 -0.758696
217 1 1.07356 14.2149 0.82116 1.07356 14.2149 0.82116
218 2 3.07461 14.2702 2.32922 3.07461 14.2702 2.32922
219 2 2.87187 14.1572 -0.923955 2.87187 14.1572 -0.923955
220 1 3.92186 15.8594 0.58662 3.92186 15.8594 0.58662
221 2 5.94018 15.9494 2.06904 5.94018 15.9494 2.06904
222 2 5.6982 15.7653 -1.17855 5.6982 15.7653 -1.17855
223 1 6.77076 14.2108 0.468041 6.77076 14.2108 0.468041
224 2 8.78459 14.2828 1.95716 8.78459 14.2828 1.95716
225 2 8.55104 14.136 -1.29323 8.55104 14.136 -1.29323
226 1 9.61417 15.8529 0.189639 9.61417 15.8529 0.189639
227 2 11.6138 15.9456 1.69628 11.6138 15.9456 1.69628
228 2 11.4097 15.7582 -1.5543 11.4097 15.7582 -1.5543
229 1 12.4635 14.2071 0.106946 12.4635 14.2071 0.106946
230 2 14.4432 14.2718 1.64079 14.4432 14.2718 1.64079
231 2 14.2806 14.1421 -1.61522 14.2806 14.1421 -1.61522
232 1 15.3098 15.8506 -0.100282 15.3098 15.8506 -0.100282
233 2 17.2523 15.9236 1.48 17.2523 15.9236 1.48
234 2 17.167 15.7795 -1.77849 17.167 15.7795 -1.77849
235 1 18.1613 14.2079 -0.100336 18.1613 14.2079 -0.100336
236 2 20.0797 14.2448 1.51023 20.0797 14.2448 1.51023
237 2 20.043 14.1735 -1.75174 20.043 14.1735 -1.75174
238 1 21.011 15.8541 -0.167547 21.011 15.8541 -0.167547
239 2 22.8856 15.8956 1.49389 22.8856 15.8956 1.49389
240 2 22.9365 15.8161 -1.76764 22.9365 15.8161 -1.76764
241 1 23.8622 14.2121 -0.0807921 23.8622 14.2121 -0.0807921
242 2 25.7157 14.2169 1.60459 25.7157 14.2169 1.60459
243 2 25.8076 14.2102 -1.657 25.8076 14.2102 -1.657
244 1 26.7106 15.8593 -0.00261936 26.7106 15.8593 -0.00261936
245 2 28.5296 15.8771 1.72027 28.5296 15.8771 1.72027
246 2 28.6884 15.8436 -1.53834 28.6884 15.8436 -1.53834
247 1 29.5594 14.2156 0.155099 29.5594 14.2156 0.155099
248 2 31.3645 14.2019 1.89268 31.3645 14.2019 1.89268
249 2 31.5498 14.2302 -1.36436 31.5498 14.2302 -1.36436
250 1 32.4048 15.8625 0.333027 32.4048 15.8625 0.333027
251 2 34.2002 15.8759 2.08118 34.2002 15.8759 2.08118
252 2 34.4051 15.8495 -1.1743 34.4051 15.8495 -1.1743
253 1 35.2522 14.2162 0.527189 35.2522 14.2162 0.527189
254 2 37.0542 14.2029 2.26884 37.0542 14.2029 2.26884
255 2 37.2477 14.2294 -0.986976 37.2477 14.2294 -0.986976
256 1 38.0996 15.8639 0.71152 38.0996 15.8639 0.71152
257 2 39.9266 15.8876 2.42715 39.9266 15.8876 2.42715
258 2 40.0745 15.8404 -0.830465 40.0745 15.8404 -0.830465
259 1 40.9509 14.2159 0.865708 40.9509 14.2159 0.865708
260 2 42.8091 14.2167 2.54807 42.8091 14.2167 2.54807
261 2 42.8984 14.2153 -0.711749 42.8984 14.2153 -0.711749
262 1 43.8052 15.865 0.944122 43.8052 15.865 0.944122
263 2 45.7105 15.9074 2.57254 45.7105 15.9074 2.57254
264 2 45.708 15.8221 -0.6873 45.708 15.8221 -0.6873
265 1 46.6609 14.2161 0.9851 46.6609 14.2161 0.9851
266 2 48.6015 14.242 2.57167 48.6015 14.242 2.57167
267 2 48.5276 14.1897 -0.688056 48.5276 14.1897 -0.688056
268 1 49.5165 15.8641 0.894259 49.5165 15.8641 0.894259
269 2 51.4995 15.9323 2.42568 51.4995 15.9323 2.42568
270 2 51.3363 15.7935 -0.828488 51.3363 15.7935 -0.828488
271 1 1.07168 17.5083 0.680884 1.07168 17.5083 0.680884
272 2 3.08399 17.6101 2.17094 3.08399 17.6101 2.17094
273 2 2.85626 17.4016 -1.07598 2.85626 17.4016 -1.07598
274 1 3.91717 19.1475 0.375446 3.91717 19.1475 0.375446
275 2 5.9397 19.2698 1.84927 5.9397 19.2698 1.84927
276 2 5.68787 19.0194 -1.39321 5.68787 19.0194 -1.39321
277 1 6.7655 17.4997 0.281538 6.7655 17.4997 0.281538
278 2 8.78079 17.6114 1.76601 8.78079 17.6114 1.76601
279 2 8.54385 17.384 -1.47951 8.54385 17.384 -1.47951
280 1 9.60815 19.1378 -0.0410957 9.60815 19.1378 -0.0410957
281 2 11.6006 19.2574 1.47312 11.6006 19.2574 1.47312
282 2 11.4123 19.0167 -1.77479 11.4123 19.0167 -1.77479
283 1 12.4585 17.4937 -0.0834085 12.4585 17.4937 -0.0834085
284 2 14.4265 17.5948 1.46366 14.4265 17.5948 1.46366
285 2 14.2891 17.3931 -1.78972 14.2891 17.3931 -1.78972
286 1 15.3063 19.1355 -0.305301 15.3063 19.1355 -0.305301
287 2 17.2315 19.2356 1.29502 17.2315 19.2356 1.29502
288 2 17.1827 19.0389 -1.96124 17.1827 19.0389 -1.96124
289 1 18.1589 17.495 -0.247067 18.1589 17.495 -0.247067
290 2 20.057 17.5695 1.38649 20.057 17.5695 1.38649
291 2 20.062 17.4244 -1.87306 20.062 17.4244 -1.87306
292 1 21.0098 19.1409 -0.315196 21.0098 19.1409 -0.315196
293 2 22.8651 19.2153 1.36714 22.8651 19.2153 1.36714
294 2 22.9549 19.0713 -1.89113 22.9549 19.0713 -1.89113
295 1 23.8609 17.501 -0.162192 23.8609 17.501 -0.162192
296 2 25.6965 17.5488 1.54232 25.6965 17.5488 1.54232
297 2 25.8237 17.4567 -1.71663 25.8237 17.4567 -1.71663
298 1 26.7097 19.1482 -0.096477 26.7097 19.1482 -0.096477
299 2 28.5185 19.2082 1.63636 28.5185 19.2082 1.63636
300 2 28.6974 19.0911 -1.61912 28.6974 19.0911 -1.61912
301 1 29.5576 17.5065 0.120668 29.5576 17.5065 0.120668
302 2 31.3566 17.5448 1.86446 31.3566 17.5448 1.86446
303 2 31.5541 17.4696 -1.39102 31.5541 17.4696 -1.39102
304 1 32.4042 19.1538 0.256804 32.4042 19.1538 0.256804
305 2 34.2012 19.219 2.0021 34.2012 19.219 2.0021
306 2 34.4035 19.0897 -1.25107 34.4035 19.0897 -1.25107
307 1 35.2511 17.51 0.50044 35.2511 17.51 0.50044
308 2 37.0569 17.5562 2.23753 37.0569 17.5562 2.23753
309 2 37.2435 17.4642 -1.0175 37.2435 17.4642 -1.0175
310 1 38.1002 19.158 0.618426 38.1002 19.158 0.618426
311 2 39.9338 19.2378 2.32501 39.9338 19.2378 2.32501
312 2 40.0689 19.0783 -0.929723 40.0689 19.0783 -0.929723
313 1 40.9512 17.5126 0.81814 40.9512 17.5126 0.81814
314 2 42.818 17.5739 2.48957 42.818 17.5739 2.48957
315 2 42.8904 17.4509 -0.768433 42.8904 17.4509 -0.768433
316 1 43.8061 19.1602 0.819775 43.8061 19.1602 0.819775
317 2 45.7197 19.2549 2.43561 45.7197 19.2549 2.43561
318 2 45.6996 19.0634 -0.819878 45.6996 19.0634 -0.819878
319 1 46.6615 17.5129 0.899049 46.6615 17.5129 0.899049
320 2 48.6144 17.5936 2.46817 48.6144 17.5936 2.46817
321 2 48.5146 17.4297 -0.787293 48.5146 17.4297 -0.787293
322 1 49.5155 19.157 0.728444 49.5155 19.157 0.728444
323 2 51.5079 19.2674 2.2444 51.5079 19.2674 2.2444
324 2 51.3236 19.0413 -1.00396 51.3236 19.0413 -1.00396
325 1 1.0681 20.7958 0.451789 1.0681 20.7958 0.451789
326 2 3.08448 20.9233 1.93347 3.08448 20.9233 1.93347
327 2 2.84665 20.6614 -1.30905 2.84665 20.6614 -1.30905
328 1 3.91176 22.4309 0.109831 3.91176 22.4309 0.109831
329 2 5.93201 22.5613 1.58546 5.93201 22.5613 1.58546
330 2 5.68442 22.2946 -1.65615 5.68442 22.2946 -1.65615
331 1 6.75935 20.7836 0.0275322 6.75935 20.7836 0.0275322
332 2 8.77113 20.9121 1.51516 8.77113 20.9121 1.51516
333 2 8.54179 20.6512 -1.72834 8.54179 20.6512 -1.72834
334 1 9.60279 22.4202 -0.305944 9.60279 22.4202 -0.305944
335 2 11.5856 22.5427 1.22078 11.5856 22.5427 1.22078
336 2 11.4186 22.2976 -2.02779 11.4186 22.2976 -2.02779
337 1 12.4538 20.7769 -0.327829 12.4538 20.7769 -0.327829
338 2 14.4085 20.8931 1.2354 14.4085 20.8931 1.2354
339 2 14.3 20.6628 -2.01695 14.3 20.6628 -2.01695
340 1 15.3039 22.4191 -0.53914 15.3039 22.4191 -0.53914
341 2 17.2137 22.5258 1.07971 17.2137 22.5258 1.07971
342 2 17.1975 22.3175 -2.17586 17.1975 22.3175 -2.17586
343 1 18.1574 20.7798 -0.446929 18.1574 20.7798 -0.446929
344 2 20.0373 20.8746 1.20707 20.0373 20.8746 1.20707
345 2 20.0797 20.6904 -2.04996 20.0797 20.6904 -2.04996
346 1 21.0096 22.4261 -0.5022 21.0096 22.4261 -0.5022
347 2 22.851 22.5176 1.19492 22.851 22.5176 1.19492
348 2 22.9687 22.3407 -2.06057 22.9687 22.3407 -2.06057
349 1 23.8605 20.7879 -0.308518 23.8605 20.7879 -0.308518
350 2 25.6831 20.866 1.40924 25.6831 20.866 1.40924
351 2 25.8362 20.7143 -1.84615 25.8362 20.7143 -1.84615
352 1 26.7099 22.4352 -0.250232 26.7099 22.4352 -0.250232
353 2 28.515 22.5238 1.48544 28.515 22.5238 1.48544
354 2 28.7016 22.3501 -1.76692 28.7016 22.3501 -1.76692
355 1 29.5575 20.7954 0.00192256 29.5575 20.7954 0.00192256
356 2 31.3555 20.8745 1.7453 31.3555 20.8745 1.7453
357 2 31.5553 20.7184 -1.50708 31.5553 20.7184 -1.50708
358 1 32.4054 22.4422 0.0988503 32.4054 22.4422 0.0988503
359 2 34.2084 22.5445 1.83584 34.2084 22.5445 1.83584
360 2 34.3994 22.3412 -1.41426 34.3994 22.3412 -1.41426
361 1 35.2521 20.801 0.369621 35.2521 20.801 0.369621
362 2 37.0642 20.8952 2.09793 37.0642 20.8952 2.09793
363 2 37.2389 20.7075 -1.15375 37.2389 20.7075 -1.15375
364 1 38.1024 22.4473 0.428438 38.1024 22.4473 0.428438
365 2 39.9425 22.567 2.12499 39.9425 22.567 2.12499
366 2 40.0642 22.3275 -1.12562 40.0642 22.3275 -1.12562
367 1 40.9527 20.805 0.65663 40.9527 20.805 0.65663
368 2 42.8256 20.914 2.31809 42.8256 20.914 2.31809
369 2 42.885 20.6949 -0.935398 42.885 20.6949 -0.935398
370 1 43.807 22.4492 0.597832 43.807 22.4492 0.597832
371 2 45.7236 22.5781 2.20655 45.7236 22.5781 2.20655
372 2 45.6956 22.317 -1.04442 45.6956 22.317 -1.04442
373 1 46.6613 20.8043 0.705089 46.6613 20.8043 0.705089
374 2 48.62 20.9236 2.26352 48.62 20.9236 2.26352
375 2 48.5067 20.6802 -0.986841 48.5067 20.6802 -0.986841
376 1 49.5131 22.4435 0.481824 49.5131 22.4435 0.481824
377 2 51.5069 22.5749 1.99311 51.5069 22.5749 1.99311
378 2 51.3178 22.3053 -1.25198 51.3178 22.3053 -1.25198
379 1 1.06385 24.0789 0.178443 1.06385 24.0789 0.178443
380 2 3.07635 24.2081 1.66425 3.07635 24.2081 1.66425
381 2 2.8455 23.9426 -1.57871 2.8455 23.9426 -1.57871
382 1 3.90731 25.7136 -0.159653 3.90731 25.7136 -0.159653
383 2 5.91919 25.8285 1.32797 5.91919 25.8285 1.32797
384 2 5.68906 25.594 -1.91748 5.68906 25.594 -1.91748
385 1 6.75413 24.066 -0.243081 6.75413 24.066 -0.243081
386 2 8.75827 24.1868 1.25524 8.75827 24.1868 1.25524
387 2 8.54552 23.9425 -1.99063 8.54552 23.9425 -1.99063
388 1 9.59945 25.7045 -0.553915 9.59945 25.7045 -0.553915
389 2 11.572 25.8077 0.987632 11.572 25.8077 0.987632
390 2 11.4273 25.6025 -2.2646 11.4273 25.6025 -2.2646
391 1 12.4507 24.0604 -0.576642 12.4507 24.0604 -0.576642
392 2 14.393 24.1694 1.00282 14.393 24.1694 1.00282
393 2 14.3112 23.9549 -2.25113 14.3112 23.9549 -2.25113
394 1 15.3028 25.7047 -0.756695 15.3028 25.7047 -0.756695
395 2 17.2021 25.7991 0.875588 17.2021 25.7991 0.875588
396 2 17.2081 25.6159 -2.38125 17.2081 25.6159 -2.38125
397 1 18.1567 24.0645 -0.658172 18.1567 24.0645 -0.658172
398 2 20.0241 24.1619 1.01029 20.0241 24.1619 1.01029
399 2 20.0924 23.9736 -2.24577 20.0924 23.9736 -2.24577
400 1 21.0098 25.712 -0.692894 21.0098 25.712 -0.692894
401 2 22.8459 25.8055 1.01027 22.8459 25.8055 1.01027
402 2 22.9749 25.6247 -2.24434 22.9749 25.6247 -2.24434
403 1 23.8609 24.0736 -0.487725 23.8609 24.0736 -0.487725
404 2 25.6778 24.1677 1.23543 25.6778 24.1677 1.23543
405 2 25.8425 23.9847 -2.01758 25.8425 23.9847 -2.01758
406 1 26.711 25.7211 -0.435246 26.711 25.7211 -0.435246
407 2 28.5192 25.8242 1.29629 28.5192 25.8242 1.29629
408 2 28.7004 25.6217 -1.95459 28.7004 25.6217 -1.95459
409 1 29.5586 24.0821 -0.173799 29.5586 24.0821 -0.173799
410 2 31.3615 24.1869 1.56312 31.3615 24.1869 1.56312
411 2 31.5526 23.9796 -1.68687 31.5526 23.9796 -1.68687
412 1 32.4078 25.728 -0.110646 32.4078 25.728 -0.110646
413 2 34.2198 25.8494 1.61525 34.2198 25.8494 1.61525
414 2 34.3935 25.6076 -1.63325 34.3935 25.6076 -1.63325
415 1 35.2546 24.088 0.164017 35.2546 24.088 0.164017
416 2 37.0748 24.2118 1.8813 37.0748 24.2118 1.8813
417 2 37.2335 23.9647 -1.36741 37.2335 23.9647 -1.36741
418 1 38.1053 25.7322 0.178332 38.1053 25.7322 0.178332
419 2 39.9508 25.8697 1.86672 39.9508 25.8697 1.86672
420 2 40.0607 25.594 -1.38176 40.0607 25.594 -1.38176
421 1 40.9547 24.0915 0.414053 40.9547 24.0915 0.414053
422 2 42.8308 24.2277 2.06894 42.8308 24.2277 2.06894
423 2 42.8823 23.9536 -1.18091 42.8823 23.9536 -1.18091
424 1 43.8075 25.7328 0.320159 43.8075 25.7328 0.320159
425 2 45.7218 25.8723 1.92963 45.7218 25.8723 1.92963
426 2 45.6964 25.5896 -1.32002 45.6964 25.5896 -1.32002
427 1 46.6603 24.0894 0.440446 46.6603 24.0894 0.440446
428 2 48.6174 24.2253 1.99826 48.6174 24.2253 1.99826
429 2 48.5052 23.9479 -1.24984 48.5052 23.9479 -1.24984
430 1 49.5102 25.7261 0.200551 49.5102 25.7261 0.200551
431 2 51.4972 25.8547 1.7198 51.4972 25.8547 1.7198
432 2 51.3206 25.5908 -1.52683 51.3206 25.5908 -1.52683
433 1 1.06038 27.3617 -0.0893258 1.06038 27.3617 -0.0893258
434 2 3.06181 27.4706 1.41204 3.06181 27.4706 1.41204
435 2 2.85348 27.2472 -1.83585 2.85348 27.2472 -1.83585
436 1 3.905 28.9993 -0.386581 3.905 28.9993 -0.386581
437 2 5.90382 29.0803 1.12016 5.90382 29.0803 1.12016
438 2 5.70113 28.9154 -2.13151 5.70113 28.9154 -2.13151
439 1 6.7512 27.3511 -0.481346 6.7512 27.3511 -0.481346
440 2 8.74474 27.4437 1.03273 8.74474 27.4437 1.03273
441 2 8.55461 27.2574 -2.21835 8.55461 27.2574 -2.21835
442 1 9.59859 28.9933 -0.743143 9.59859 28.9933 -0.743143
443 2 11.5616 29.0609 0.812328 11.5616 29.0609 0.812328
444 2 11.437 28.9275 -2.44439 11.437 28.9275 -2.44439
445 1 12.4494 27.3476 -0.784904 12.4494 27.3476 -0.784904
446 2 14.3827 27.4312 0.807405 14.3827 27.4312 0.807405
447 2 14.3203 27.2679 -2.44975 14.3203 27.2679 -2.44975
448 1 15.3028 28.9943 -0.922036 15.3028 28.9943 -0.922036
449 2 17.1987 29.0624 0.715594 17.1987 29.0624 0.715594
450 2 17.2119 28.931 -2.54356 17.2119 28.931 -2.54356
451 1 18.1567 27.3519 -0.843726 18.1567 27.3519 -0.843726
452 2 20.02 27.4366 0.830293 20.02 27.4366 0.830293
453 2 20.0972 27.2731 -2.42669 20.0972 27.2731 -2.42669
454 1 21.0103 29.0002 -0.858094 21.0103 29.0002 -0.858094
455 2 22.8507 29.0831 0.840925 22.8507 29.0831 0.840925
456 2 22.9719 28.9225 -2.41489 22.9719 28.9225 -2.41489
457 1 23.8618 27.36 -0.670538 23.8618 27.36 -0.670538
458 2 25.6817 27.4567 1.04933 25.6817 27.4567 1.04933
459 2 25.8412 27.2683 -2.20347 25.8412 27.2683 -2.20347
460 1 26.7128 29.0075 -0.625552 26.7128 29.0075 -0.625552
461 2 28.5301 29.1113 1.09629 28.5301 29.1113 1.09629
462 2 28.6943 28.9071 -2.15531 28.6943 28.9071 -2.15531
463 1 29.5608 27.3677 -0.378479 29.5608 27.3677 -0.378479
464 2 31.3724 27.4823 1.34842 31.3724 27.4823 1.34842
465 2 31.547 27.2552 -1.90115 31.547 27.2552 -1.90115
466 1 32.4109 29.0129 -0.340204 32.4109 29.0129 -0.340204
467 2 34.2319 29.1347 1.37579 34.2319 29.1347 1.37579
468 2 34.3883 28.8918 -1.87357 34.3883 28.8918 -1.87357
469 1 35.2578 27.3724 -0.0805328 35.2578 27.3724 -0.0805328
470 2 37.0858 27.5045 1.62713 37.0858 27.5045 1.62713
471 2 37.2287 27.2402 -1.62115 37.2287 27.2402 -1.62115
472 1 38.1083 29.0154 -0.0891364 38.1083 29.0154 -0.0891364
473 2 39.9564 29.1469 1.59622 39.9564 29.1469 1.59622
474 2 40.0601 28.8831 -1.65373 40.0601 28.8831 -1.65373
475 1 40.9568 27.3744 0.134873 40.9568 27.3744 0.134873
476 2 42.8324 27.513 1.78901 42.8324 27.513 1.78901
477 2 42.883 27.2337 -1.4608 42.883 27.2337 -1.4608
478 1 43.8081 29.0149 0.037086 43.8081 29.0149 0.037086
479 2 45.7149 29.1403 1.65544 45.7149 29.1403 1.65544
480 2 45.7025 28.8866 -1.5971 45.7025 28.8866 -1.5971
481 1 46.659 27.3714 0.153813 46.659 27.3714 0.153813
482 2 48.6076 27.4997 1.72163 48.6076 27.4997 1.72163
483 2 48.5108 27.2381 -1.52871 48.5108 27.2381 -1.52871
484 1 49.5079 29.0089 -0.0649218 49.5079 29.0089 -0.0649218
485 2 51.4815 29.113 1.47261 51.4815 29.113 1.47261
486 2 51.3316 28.8999 -1.77941 51.3316 28.8999 -1.77941
487 1 1.05875 30.6477 -0.305868 1.05875 30.6477 -0.305868
488 2 3.04418 30.7188 1.2181 3.04418 30.7188 1.2181
489 2 2.86891 30.5731 -2.03635 2.86891 30.5731 -2.03635
490 1 3.90515 32.2895 -0.534882 3.90515 32.2895 -0.534882
491 2 5.8885 32.3242 0.993414 5.8885 32.3242 0.993414
492 2 5.71809 32.2534 -2.26362 5.71809 32.2534 -2.26362
493 1 6.75092 30.6409 -0.649038 6.75092 30.6409 -0.649038
494 2 8.73245 30.6912 0.882288 8.73245 30.6912 0.882288
495 2 8.56744 30.5907 -2.37396 8.56744 30.5907 -2.37396
496 1 9.59992 32.2865 -0.845388 9.59992 32.2865 -0.845388
497 2 11.5558 32.3091 0.719977 11.5558 32.3091 0.719977
498 2 11.4456 32.2655 -2.53971 11.4456 32.2655 -2.53971
499 1 12.4499 30.6395 -0.920144 12.4499 30.6395 -0.920144
500 2 14.3788 30.6856 0.678739 14.3788 30.6856 0.678739
501 2 14.3253 30.5965 -2.58136 14.3253 30.5965 -2.58136
502 1 15.3036 32.2877 -1.01196 15.3036 32.2877 -1.01196
503 2 17.2039 32.3209 0.621298 17.2039 32.3209 0.621298
504 2 17.2081 32.2576 -2.63987 17.2081 32.2576 -2.63987
505 1 18.1571 30.6427 -0.97637 18.1571 30.6427 -0.97637
506 2 20.0256 30.7037 0.692678 20.0256 30.7037 0.692678
507 2 20.0928 30.5862 -2.56639 20.0928 30.5862 -2.56639
508 1 21.0109 32.2913 -0.976326 21.0109 32.2913 -0.976326
509 2 22.8647 32.3529 0.708725 22.8647 32.3529 0.708725
510 2 22.9601 32.2333 -2.54962 22.9601 32.2333 -2.54962
511 1 23.8629 30.6484 -0.832472 23.8629 30.6484 -0.832472
512 2 25.694 30.7351 0.875929 25.694 30.7351 0.875929
513 2 25.8326 30.5657 -2.37876 25.8326 30.5657 -2.37876
514 1 26.7149 32.2959 -0.796489 26.7149 32.2959 -0.796489
515 2 28.5451 32.3858 0.912238 28.5451 32.3858 0.912238
516 2 28.6849 32.2086 -2.34201 28.6849 32.2086 -2.34201
517 1 29.5636 30.654 -0.584747 29.5636 30.654 -0.584747
518 2 31.3852 30.7621 1.13176 31.3852 30.7621 1.13176
519 2 31.5408 30.5475 -2.11961 31.5408 30.5475 -2.11961
520 1 32.4143 32.2994 -0.557232 32.4143 32.2994 -0.557232
521 2 34.2413 32.4031 1.15329 34.2413 32.4031 1.15329
522 2 34.386 32.1963 -2.09915 34.386 32.1963 -2.09915
523 1 35.2612 30.657 -0.326326 35.2612 30.657 -0.326326
524 2 37.0937 30.776 1.37692 37.0937 30.776 1.37692
525 2 37.2274 30.5377 -1.87391 37.2274 30.5377 -1.87391
526 1 38.1114 32.3007 -0.330504 38.1114 32.3007 -0.330504
527 2 39.9573 32.4043 1.35854 39.9573 32.4043 1.35854
528 2 40.0643 32.1964 -1.89555 40.0643 32.1964 -1.89555
529 1 40.9589 30.6576 -0.132362 40.9589 30.6576 -0.132362
530 2 42.8299 30.7747 1.52782 42.8299 30.7747 1.52782
531 2 42.8881 30.5391 -1.72565 42.8881 30.5391 -1.72565
532 1 43.8091 32.2998 -0.20177 43.8091 32.2998 -0.20177
533 2 45.7048 32.3895 1.43122 45.7048 32.3895 1.43122
534 2 45.7133 32.2081 -1.82644 45.7133 32.2081 -1.82644
535 1 46.6583 30.6548 -0.103509 46.6583 30.6548 -0.103509
536 2 48.5935 30.7535 1.48207 48.5935 30.7535 1.48207
537 2 48.5227 30.5527 -1.7736 48.5227 30.5527 -1.7736
538 1 49.5072 32.2955 -0.268912 49.5072 32.2955 -0.268912
539 2 51.4636 32.358 1.29201 51.4636 32.358 1.29201