ITEM: TIMESTEP
88000
ITEM: NUMBER OF ATOMS
810
ITEM: BOX BOUNDS pp pp pp
8.4475229291598342e-01 5.2172852707082825e+01
8.1076762847746864e-01 5.0205447371521544e+01
-1.0000000000000000e+01 1.0000000000000000e+01
ITEM: ATOMS id type x y z xu yu zu
1 1 1.04921 1.02526 0.0143326 1.04921 1.02526 0.0143326
2 2 2.96954 1.03455 1.62273 2.96954 1.03455 1.62273
3 2 2.93124 1.01601 -1.63917 2.93124 1.01601 -1.63917
4 1 3.90092 2.67176 -0.0288099 3.90092 2.67176 -0.0288099
5 2 5.83128 2.68208 1.56752 5.83128 2.68208 1.56752
6 2 5.77252 2.66146 -1.69407 5.77252 2.66146 -1.69407
7 1 6.75247 1.02524 -0.0699829 6.75247 1.02524 -0.0699829
8 2 8.68982 1.03338 1.51792 8.68982 1.03338 1.51792
9 2 8.61675 1.01708 -1.74341 8.61675 1.01708 -1.74341
10 1 9.60363 2.67168 -0.142343 9.60363 2.67168 -0.142343
11 2 11.5428 2.68062 1.44343 11.5428 2.68062 1.44343
12 2 11.466 2.66268 -1.8178 11.466 2.66268 -1.8178
13 1 12.4548 1.02512 -0.200465 12.4548 1.02512 -0.200465
14 2 14.3923 1.03169 1.38746 14.3923 1.03169 1.38746
15 2 14.319 1.0185 -1.87388 14.319 1.0185 -1.87388
16 1 15.306 2.67153 -0.271276 15.306 2.67153 -0.271276
17 2 17.2363 2.67812 1.32549 17.2363 2.67812 1.32549
18 2 17.1778 2.66487 -1.93615 17.1778 2.66487 -1.93615
19 1 18.1576 1.02498 -0.315652 18.1576 1.02498 -0.315652
20 2 20.0782 1.03037 1.29275 20.0782 1.03037 1.29275
21 2 20.0393 1.01953 -1.96918 20.0393 1.01953 -1.96918
22 1 21.0093 2.67141 -0.355044 21.0093 2.67141 -0.355044
23 2 22.9169 2.67589 1.26885 22.9169 2.67589 1.26885
24 2 22.9043 2.66687 -1.99329 22.9043 2.66687 -1.99329
25 1 23.8613 1.02487 -0.361311 23.8613 1.02487 -0.361311
26 2 25.7558 1.03005 1.27786 25.7558 1.03005 1.27786
27 2 25.7694 1.01962 -1.98427 25.7694 1.01962 -1.98427
28 1 26.7133 2.67135 -0.354511 26.7133 2.67135 -0.354511
29 2 28.5951 2.67479 1.29922 28.5951 2.67479 1.29922
30 2 28.6338 2.66786 -1.96272 28.6338 2.66786 -1.96272
31 1 29.5651 1.02481 -0.316961 29.5651 1.02481 -0.316961
32 2 31.4366 1.03079 1.34833 31.4366 1.03079 1.34833
33 2 31.4955 1.01878 -1.91329 31.4955 1.01878 -1.91329
34 1 32.4166 2.67133 -0.271381 32.4166 2.67133 -0.271381
35 2 34.2816 2.67534 1.40117 34.2816 2.67534 1.40117
36 2 34.3532 2.66728 -1.86021 34.3532 2.66728 -1.86021
37 1 35.2678 1.02483 -0.204593 35.2678 1.02483 -0.204593
38 2 37.13 1.03238 1.47114 37.13 1.03238 1.47114
39 2 37.2072 1.01729 -1.7901 37.2072 1.01729 -1.7901
40 1 38.119 2.67137 -0.144572 38.119 2.67137 -0.144572
41 2 39.9836 2.67747 1.52833 39.9836 2.67747 1.52833
42 2 40.056 2.6653 -1.73303 40.056 2.6653 -1.73303
43 1 40.9702 1.02496 -0.0751106 40.9702 1.02496 -0.0751106
44 2 42.8408 1.03403 1.59103 42.8408 1.03403 1.59103
45 2 42.9015 1.01597 -1.67055 42.9015 1.01597 -1.67055
46 1 43.8217 2.67152 -0.0311959 43.8217 2.67152 -0.0311959
47 2 45.7029 2.68008 1.62283 45.7029 2.68008 1.62283
48 2 45.7427 2.66304 -1.63907 45.7427 2.66304 -1.63907
49 1 46.6734 1.02515 0.0120769 46.6734 1.02515 0.0120769
50 2 48.5672 1.03483 1.6517 48.5672 1.03483 1.6517
51 2 48.5822 1.01555 -1.61039 48.5822 1.01555 -1.61039
52 1 49.5253 2.67169 0.0152534 49.5253 2.67169 0.0152534
53 2 51.4329 2.68184 1.63881 51.4329 2.68184 1.63881
54 2 51.4204 2.66163 -1.62329 51.4204 2.66163 -1.62329
55 1 1.04911 4.31823 -0.00613456 1.04911 4.31823 -0.00613456
56 2 2.96948 4.32933 1.60217 2.96948 4.32933 1.60217
57 2 2.93105 4.30719 -1.65972 2.93105 4.30719 -1.65972
58 1 3.90074 5.96473 -0.0512152 3.90074 5.96473 -0.0512152
59 2 5.83118 5.97672 1.54498 5.83118 5.97672 1.54498
60 2 5.77222 5.95275 -1.71659 5.77222 5.95275 -1.71659
61 1 6.75229 4.31823 -0.0908932 6.75229 4.31823 -0.0908932
62 2 8.68885 4.32929 1.49794 8.68885 4.32929 1.49794
63 2 8.61739 4.30712 -1.76339 8.61739 4.30712 -1.76339
64 1 9.6034 5.96464 -0.164843 9.6034 5.96464 -0.164843
65 2 11.5413 5.97562 1.42242 11.5413 5.97562 1.42242
66 2 11.4671 5.95359 -1.83885 11.4671 5.95359 -1.83885
67 1 12.4547 4.31808 -0.218686 12.4547 4.31808 -0.218686
68 2 14.3907 4.32686 1.37097 14.3907 4.32686 1.37097
69 2 14.3204 4.30923 -1.89041 14.3204 4.30923 -1.89041
70 1 15.3059 5.96448 -0.289201 15.3059 5.96448 -0.289201
71 2 17.2341 5.97185 1.31003 17.2341 5.97185 1.31003
72 2 17.1798 5.95705 -1.95167 17.1798 5.95705 -1.95167
73 1 18.1575 4.31794 -0.329118 18.1575 4.31794 -0.329118
74 2 20.0767 4.3233 1.28097 20.0767 4.3233 1.28097
75 2 20.0407 4.31254 -1.981 20.0407 4.31254 -1.981
76 1 21.0093 5.9644 -0.366006 21.0093 5.9644 -0.366006
77 2 22.9149 5.96728 1.26017 22.9149 5.96728 1.26017
78 2 22.9062 5.96151 -2.00199 22.9062 5.96151 -2.00199
79 1 23.8613 4.31788 -0.370468 23.8613 4.31788 -0.370468
80 2 25.7549 4.32022 1.26969 25.7549 4.32022 1.26969
81 2 25.7702 4.31551 -1.99244 25.7702 4.31551 -1.99244
82 1 26.7132 5.96441 -0.359317 26.7132 5.96441 -0.359317
83 2 28.5939 5.96376 1.29569 28.5939 5.96376 1.29569
84 2 28.6348 5.96502 -1.96623 28.6348 5.96502 -1.96623
85 1 29.565 4.31787 -0.323964 29.565 4.31787 -0.323964
86 2 31.4366 4.31883 1.34131 31.4366 4.31883 1.34131
87 2 31.4954 4.31685 -1.92034 31.4954 4.31685 -1.92034
88 1 32.4164 5.9644 -0.273362 32.4164 5.9644 -0.273362
89 2 34.2818 5.96285 1.39886 34.2818 5.96285 1.39886
90 2 34.3528 5.96588 -1.86255 34.3528 5.96588 -1.86255
91 1 35.2678 4.31786 -0.2127 35.2678 4.31786 -0.2127
92 2 37.1309 4.31998 1.46199 37.1309 4.31998 1.46199
93 2 37.2063 4.31571 -1.79933 37.2063 4.31571 -1.79933
94 1 38.1189 5.96438 -0.148815 38.1189 5.96438 -0.148815
95 2 39.9851 5.96533 1.52227 39.9851 5.96533 1.52227
96 2 40.0543 5.96341 -1.73919 40.0543 5.96341 -1.73919
97 1 40.9702 4.31791 -0.0873764 40.9702 4.31791 -0.0873764
98 2 42.8421 4.32328 1.57732 42.8421 4.32328 1.57732
99 2 42.9003 4.3126 -1.68434 42.9003 4.3126 -1.68434
100 1 43.8217 5.96446 -0.0419208 43.8217 5.96446 -0.0419208
101 2 45.7049 5.97007 1.60985 45.7049 5.97007 1.60985
102 2 45.7407 5.95893 -1.65214 45.7407 5.95893 -1.65214
103 1 46.6734 4.31808 -0.00514022 46.6734 4.31808 -0.00514022
104 2 48.568 4.32699 1.63351 48.568 4.32699 1.63351
105 2 48.5813 4.30926 -1.62861 48.5813 4.30926 -1.62861
106 1 49.5253 5.96463 -0.00263812 49.5253 5.96463 -0.00263812
107 2 51.4341 5.97456 1.61939 51.4341 5.97456 1.61939
108 2 51.419 5.95481 -1.64271 51.419 5.95481 -1.64271
109 1 1.04897 7.61118 -0.0260601 1.04897 7.61118 -0.0260601
110 2 2.97068 7.62226 1.58061 2.97068 7.62226 1.58061
111 2 2.92948 7.60014 -1.68126 2.92948 7.60014 -1.68126
112 1 3.9005 9.25767 -0.0735632 3.9005 9.25767 -0.0735632
113 2 5.83187 9.26944 1.52149 5.83187 9.26944 1.52149
114 2 5.77099 9.2459 -1.74005 5.77099 9.2459 -1.74005
115 1 6.75203 7.61118 -0.115171 6.75203 7.61118 -0.115171
116 2 8.68822 7.62339 1.47408 8.68822 7.62339 1.47408
117 2 8.61748 7.59892 -1.78725 8.61748 7.59892 -1.78725
118 1 9.60308 9.25759 -0.189658 9.60308 9.25759 -0.189658
119 2 11.5398 9.26886 1.39904 11.5398 9.26886 1.39904
120 2 11.468 9.24624 -1.86227 11.468 9.24624 -1.86227
121 1 12.4544 7.61103 -0.241074 12.4544 7.61103 -0.241074
122 2 14.3885 7.62071 1.35098 14.3885 7.62071 1.35098
123 2 14.3222 7.60128 -1.91048 14.3222 7.60128 -1.91048
124 1 15.3057 9.25745 -0.30899 15.3057 9.25745 -0.30899
125 2 17.2311 9.26452 1.29361 17.2311 9.26452 1.29361
126 2 17.1824 9.25035 -1.96818 17.1824 9.25035 -1.96818
127 1 18.1574 7.61092 -0.344209 18.1574 7.61092 -0.344209
128 2 20.0739 7.61562 1.26908 20.0739 7.61562 1.26908
129 2 20.0433 7.6062 -1.99294 20.0433 7.6062 -1.99294
130 1 21.0092 9.25743 -0.375682 21.0092 9.25743 -0.375682
131 2 22.9116 9.25844 1.25425 22.9116 9.25844 1.25425
132 2 22.9094 9.25644 -2.00792 22.9094 9.25644 -2.00792
133 1 23.8612 7.61092 -0.376397 23.8612 7.61092 -0.376397
134 2 25.7526 7.61039 1.26643 25.7526 7.61039 1.26643
135 2 25.7724 7.61146 -1.99568 25.7724 7.61146 -1.99568
136 1 26.7131 9.25748 -0.358318 26.7131 9.25748 -0.358318
137 2 28.5915 9.25317 1.29928 28.5915 9.25317 1.29928
138 2 28.6369 9.26177 -1.96257 28.6369 9.26177 -1.96257
139 1 29.5649 7.61095 -0.322712 29.5649 7.61095 -0.322712
140 2 31.4355 7.60712 1.34361 31.4355 7.60712 1.34361
141 2 31.4962 7.61472 -1.918 31.4962 7.61472 -1.918
142 1 32.4162 9.25746 -0.265672 32.4162 9.25746 -0.265672
143 2 34.2813 9.251 1.40679 34.2813 9.251 1.40679
144 2 34.3528 9.26384 -1.85458 34.3528 9.26384 -1.85458
145 1 35.2676 7.6109 -0.209587 35.2676 7.6109 -0.209587
146 2 37.1317 7.60753 1.46392 37.1317 7.60753 1.46392
147 2 37.2051 7.61421 -1.79744 37.2051 7.61421 -1.79744
148 1 38.1187 9.25738 -0.141958 38.1187 9.25738 -0.141958
149 2 39.987 9.25338 1.52672 39.987 9.25338 1.52672
150 2 40.0521 9.26135 -1.73482 40.0521 9.26135 -1.73482
151 1 40.9701 7.61089 -0.0892077 40.9701 7.61089 -0.0892077
152 2 42.8445 7.6118 1.57264 42.8445 7.6118 1.57264
153 2 42.8977 7.61 -1.68913 42.8977 7.61 -1.68913
154 1 43.8215 9.25741 -0.0435819 43.8215 9.25741 -0.0435819
155 2 45.708 9.25938 1.60437 45.708 9.25938 1.60437
156 2 45.7373 9.25551 -1.6577 45.7373 9.25551 -1.6577
157 1 46.6733 7.61101 -0.0162951 46.6733 7.61101 -0.0162951
158 2 48.5705 7.61773 1.6194 48.5705 7.61773 1.6194
159 2 48.5787 7.6044 -1.64277 48.5787 7.6044 -1.64277
160 1 49.5252 9.25757 -0.016001 49.5252 9.25757 -0.016001
161 2 51.4367 9.2658 1.60282 51.4367 9.2658 1.60282
162 2 51.4161 9.24945 -1.65928 51.4161 9.24945 -1.65928
163 1 1.04879 10.9041 -0.0425019 1.04879 10.9041 -0.0425019
164 2 2.97286 10.9136 1.56133 2.97286 10.9136 1.56133
165 2 2.92685 10.8947 -1.70049 2.92685 10.8947 -1.70049
166 1 3.90023 12.5506 -0.0925673 3.90023 12.5506 -0.0925673
167 2 5.83312 12.5603 1.50065 5.83312 12.5603 1.50065
168 2 5.76911 12.5409 -1.76086 5.76911 12.5409 -1.76086
169 1 6.7517 10.9041 -0.139 6.7517 10.9041 -0.139
170 2 8.68798 10.9155 1.45015 8.68798 10.9155 1.45015
171 2 8.61706 10.8927 -1.81119 8.61706 10.8927 -1.81119
172 1 9.60273 12.5505 -0.212828 9.60273 12.5505 -0.212828
173 2 11.5384 12.5602 1.3771 11.5384 12.5602 1.3771
174 2 11.4687 12.5408 -1.88428 11.4687 12.5408 -1.88428
175 1 12.4541 10.904 -0.264078 12.4541 10.904 -0.264078
176 2 14.386 10.913 1.33061 14.386 10.913 1.33061
177 2 14.3241 10.8949 -1.93093 14.3241 10.8949 -1.93093
178 1 15.3054 12.5504 -0.327425 15.3054 12.5504 -0.327425
179 2 17.2277 12.556 1.27891 17.2277 12.556 1.27891
180 2 17.1854 12.5449 -1.98298 17.1854 12.5449 -1.98298
181 1 18.1572 10.9039 -0.358712 18.1572 10.9039 -0.358712
182 2 20.0702 10.9073 1.25876 20.0702 10.9073 1.25876
183 2 20.0467 10.9006 -2.00333 20.0467 10.9006 -2.00333
184 1 21.0091 12.5505 -0.382569 21.0091 12.5505 -0.382569
185 2 22.9076 12.5494 1.25193 22.9076 12.5494 1.25193
186 2 22.9132 12.5516 -2.01023 22.9132 12.5516 -2.01023
187 1 23.8611 10.904 -0.378567 23.8611 10.904 -0.378567
188 2 25.7491 10.9008 1.26814 25.7491 10.9008 1.26814
189 2 25.7757 10.9072 -1.99392 25.7757 10.9072 -1.99392
190 1 26.7129 12.5505 -0.351938 26.7129 12.5505 -0.351938
191 2 28.5883 12.5433 1.30909 28.5883 12.5433 1.30909
192 2 28.6397 12.5578 -1.95265 28.6397 12.5578 -1.95265
193 1 29.5647 10.904 -0.314072 29.5647 10.904 -0.314072
194 2 31.4336 10.8963 1.35419 31.4336 10.8963 1.35419
195 2 31.4976 10.9117 -1.90733 31.4976 10.9117 -1.90733
196 1 32.4159 12.5505 -0.250104 32.4159 12.5505 -0.250104
197 2 34.2803 12.5403 1.42311 34.2803 12.5403 1.42311
198 2 34.3531 12.5605 -1.8382 34.3531 12.5605 -1.8382
199 1 35.2673 10.9039 -0.196546 35.2673 10.9039 -0.196546
200 2 37.1323 10.896 1.47591 37.1323 10.896 1.47591
201 2 37.2039 10.9118 -1.78545 37.2039 10.9118 -1.78545
202 1 38.1183 12.5504 -0.125871 38.1183 12.5504 -0.125871
203 2 39.9889 12.5424 1.54025 39.9889 12.5424 1.54025
204 2 40.0496 12.5583 -1.72135 40.0496 12.5583 -1.72135
205 1 40.9699 10.9039 -0.0809937 40.9699 10.9039 -0.0809937
206 2 42.8475 10.9006 1.57717 42.8475 10.9006 1.57717
207 2 42.8944 10.9072 -1.6847 42.8944 10.9072 -1.6847
208 1 43.8214 12.5504 -0.0366947 43.8214 12.5504 -0.0366947
209 2 45.7119 12.5488 1.60662 45.7119 12.5488 1.60662
210 2 45.7332 12.552 -1.65551 45.7332 12.552 -1.65551
211 1 46.6732 10.904 -0.0200426 46.6732 10.904 -0.0200426
212 2 48.5741 10.9077 1.6113 48.5741 10.9077 1.6113
213 2 48.5749 10.9003 -1.6509 48.5749 10.9003 -1.6509
214 1 49.525 12.5505 -0.0232718 49.525 12.5505 -0.0232718
215 2 51.4401 12.556 1.59131 51.4401 12.556 1.59131
216 2 51.4123 12.5452 -1.67076 51.4123 12.5452 -1.67076
217 1 1.0486 14.1971 -0.0533103 1.0486 14.1971 -0.0533103
218 2 2.97552 14.2035 1.5471 2.97552 14.2035 1.5471
219 2 2.9237 14.1907 -1.71466 2.9237 14.1907 -1.71466
220 1 3.89997 15.8436 -0.105382 3.89997 15.8436 -0.105382
221 2 5.83461 15.8496 1.48572 5.83461 15.8496 1.48572
222 2 5.76702 15.8375 -1.77575 5.76702 15.8375 -1.77575
223 1 6.75137 14.1971 -0.158677 6.75137 14.1971 -0.158677
224 2 8.68805 14.2058 1.43 8.68805 14.2058 1.43
225 2 8.6163 14.1884 -1.83135 8.6163 14.1884 -1.83135
226 1 9.6024 15.8435 -0.23047 9.6024 15.8435 -0.23047
227 2 11.5374 15.8498 1.36037 11.5374 15.8498 1.36037
228 2 11.4691 15.8372 -1.90107 11.4691 15.8372 -1.90107
229 1 12.4538 14.197 -0.283834 12.4538 14.197 -0.283834
230 2 14.3836 14.2037 1.31337 14.3836 14.2037 1.31337
231 2 14.326 14.1903 -1.94827 14.326 14.1903 -1.94827
232 1 15.3052 15.8435 -0.34111 15.3052 15.8435 -0.34111
233 2 17.2246 15.8462 1.26873 17.2246 15.8462 1.26873
234 2 17.1882 15.8408 -1.99323 17.1882 15.8408 -1.99323
235 1 18.1571 14.197 -0.370033 18.1571 14.197 -0.370033
236 2 20.0664 14.1981 1.25189 20.0664 14.1981 1.25189
237 2 20.0504 14.1959 -2.01024 20.0504 14.1959 -2.01024
238 1 21.009 15.8435 -0.385032 21.009 15.8435 -0.385032
239 2 22.9036 15.8401 1.25407 22.9036 15.8401 1.25407
240 2 22.917 15.847 -2.00807 22.917 15.847 -2.00807
241 1 23.861 14.197 -0.376439 23.861 14.197 -0.376439
242 2 25.7452 14.1915 1.27465 25.7452 14.1915 1.27465
243 2 25.7793 14.2026 -1.98732 25.7793 14.2026 -1.98732
244 1 26.7128 15.8436 -0.340765 26.7128 15.8436 -0.340765
245 2 28.585 15.8342 1.32387 28.585 15.8342 1.32387
246 2 28.6426 15.8529 -1.93775 28.6426 15.8529 -1.93775
247 1 29.5644 14.197 -0.299476 29.5644 14.197 -0.299476
248 2 31.4312 14.1866 1.37121 31.4312 14.1866 1.37121
249 2 31.4995 14.2075 -1.89019 31.4995 14.2075 -1.89019
250 1 32.4156 15.8435 -0.229008 32.4156 15.8435 -0.229008
251 2 34.2791 15.8312 1.44519 34.2791 15.8312 1.44519
252 2 34.3537 15.8557 -1.81605 34.3537 15.8557 -1.81605
253 1 35.2669 14.1969 -0.176086 35.2669 14.1969 -0.176086
254 2 37.1327 14.1858 1.49556 37.1327 14.1858 1.49556
255 2 37.2029 14.2079 -1.7658 37.2029 14.2079 -1.7658
256 1 38.118 15.8433 -0.103453 38.118 15.8433 -0.103453
257 2 39.9907 15.8328 1.56027 39.9907 15.8328 1.56027
258 2 40.0473 15.8538 -1.70137 40.0473 15.8538 -1.70137
259 1 40.9696 14.1968 -0.06479 40.9696 14.1968 -0.06479
260 2 42.8506 14.1901 1.58946 42.8506 14.1901 1.58946
261 2 42.8908 14.2035 -1.67247 42.8908 14.2035 -1.67247
262 1 43.8212 15.8433 -0.0229937 43.8212 15.8433 -0.0229937
263 2 45.7158 15.8386 1.61564 45.7158 15.8386 1.61564
264 2 45.7291 15.8481 -1.64653 45.7291 15.8481 -1.64653
265 1 46.6731 14.1969 -0.0165409 46.6731 14.1969 -0.0165409
266 2 48.5782 14.1973 1.60986 48.5782 14.1973 1.60986
267 2 48.5705 14.1966 -1.65234 48.5705 14.1966 -1.65234
268 1 49.5249 15.8435 -0.02383 49.5249 15.8435 -0.02383
269 2 51.4437 15.8454 1.58629 51.4437 15.8454 1.58629
270 2 51.4084 15.8417 -1.67572 51.4084 15.8417 -1.67572
271 1 1.04843 17.49 -0.0569377 1.04843 17.49 -0.0569377
272 2 2.97815 17.4923 1.54012 2.97815 17.4923 1.54012
273 2 2.92064 17.4878 -1.72157 2.92064 17.4878 -1.72157
274 1 3.89976 19.1365 -0.109801 3.89976 19.1365 -0.109801
275 2 5.83607 19.1378 1.47931 5.83607 19.1378 1.47931
276 2 5.76509 19.1353 -1.78211 5.76509 19.1353 -1.78211
277 1 6.75108 17.4901 -0.170918 6.75108 17.4901 -0.170918
278 2 8.68835 17.4945 1.41707 8.68835 17.4945 1.41707
279 2 8.61541 17.4857 -1.84428 8.61541 17.4857 -1.84428
280 1 9.60214 19.1366 -0.239403 9.60214 19.1366 -0.239403
281 2 11.5368 19.1383 1.35194 11.5368 19.1383 1.35194
282 2 11.4693 19.1348 -1.90954 11.4693 19.1348 -1.90954
283 1 12.4536 17.49 -0.296736 12.4536 17.49 -0.296736
284 2 14.3817 17.493 1.30251 14.3817 17.493 1.30251
285 2 14.3275 17.487 -1.9592 14.3275 17.487 -1.9592
286 1 15.3051 19.1366 -0.347221 15.3051 19.1366 -0.347221
287 2 17.2222 19.1357 1.26536 17.2222 19.1357 1.26536
288 2 17.1904 19.1374 -1.99665 17.1904 19.1374 -1.99665
289 1 18.157 17.49 -0.375678 18.157 17.49 -0.375678
290 2 20.0629 17.4884 1.25023 20.0629 17.4884 1.25023
291 2 20.0537 17.4917 -2.01192 20.0537 17.4917 -2.01192
292 1 21.0089 19.1366 -0.381918 21.0089 19.1366 -0.381918
293 2 22.9002 19.1311 1.26101 22.9002 19.1311 1.26101
294 2 22.9202 19.1421 -2.00109 22.9202 19.1421 -2.00109
295 1 23.8609 17.4901 -0.369648 23.8609 17.4901 -0.369648
296 2 25.7415 17.4827 1.28555 25.7415 17.4827 1.28555
297 2 25.7827 17.4975 -1.97633 25.7827 17.4975 -1.97633
298 1 26.7126 19.1366 -0.325877 26.7126 19.1366 -0.325877
299 2 28.5821 19.1264 1.34187 28.5821 19.1264 1.34187
300 2 28.6451 19.1467 -1.91964 28.6451 19.1467 -1.91964
301 1 29.5642 17.49 -0.280688 29.5642 17.49 -0.280688
302 2 31.4288 17.4782 1.39237 31.4288 17.4782 1.39237
303 2 31.5012 17.5018 -1.86892 31.5012 17.5018 -1.86892
304 1 32.4153 19.1364 -0.205227 32.4153 19.1364 -0.205227
305 2 34.278 19.1238 1.46988 34.278 19.1238 1.46988
306 2 34.3541 19.149 -1.79132 34.3541 19.149 -1.79132
307 1 35.2666 17.4899 -0.151274 35.2666 17.4899 -0.151274
308 2 37.1329 17.4773 1.51975 37.1329 17.4773 1.51975
309 2 37.202 17.5023 -1.74161 37.202 17.5023 -1.74161
310 1 38.1177 19.1362 -0.0780993 38.1177 19.1362 -0.0780993
311 2 39.9922 19.1248 1.58363 39.9922 19.1248 1.58363
312 2 40.0453 19.1477 -1.67804 40.0453 19.1477 -1.67804
313 1 40.9694 17.4897 -0.0434173 40.9694 17.4897 -0.0434173
314 2 42.8535 17.4808 1.60726 42.8535 17.4808 1.60726
315 2 42.8875 17.4987 -1.65471 42.8875 17.4987 -1.65471
316 1 43.821 19.1362 -0.00473622 43.821 19.1362 -0.00473622
317 2 45.7191 19.1291 1.62988 45.7191 19.1291 1.62988
318 2 45.7255 19.1435 -1.63228 45.7255 19.1435 -1.63228
319 1 46.673 17.4898 -0.00674157 46.673 17.4898 -0.00674157
320 2 48.582 17.4869 1.61499 48.582 17.4869 1.61499
321 2 48.5664 17.4929 -1.64717 48.5664 17.4929 -1.64717
322 1 49.5248 19.1364 -0.0176401 49.5248 19.1364 -0.0176401
323 2 51.4469 19.1343 1.58856 51.4469 19.1343 1.58856
324 2 51.4049 19.1386 -1.67337 51.4049 19.1386 -1.67337
325 1 1.04832 20.783 -0.0525701 1.04832 20.783 -0.0525701
326 2 2.98033 20.7805 1.54173 2.98033 20.7805 1.54173
327 2 2.91818 20.7854 -1.71987 2.91818 20.7854 -1.71987
328 1 3.89967 22.4295 -0.104769 3.89967 22.4295 -0.104769
329 2 5.83731 22.4256 1.48273 5.83731 22.4256 1.48273
330 2 5.76363 22.4334 -1.77862 5.76363 22.4334 -1.77862
331 1 6.75089 20.7831 -0.173448 6.75089 20.7831 -0.173448
332 2 8.68884 20.7823 1.41375 8.68884 20.7823 1.41375
333 2 8.61453 20.7838 -1.84759 8.61453 20.7838 -1.84759
334 1 9.60202 22.4296 -0.237886 9.60202 22.4296 -0.237886
335 2 11.5366 22.4263 1.35348 11.5366 22.4263 1.35348
336 2 11.4692 22.4329 -1.908 11.4692 22.4329 -1.908
337 1 12.4534 20.7831 -0.300265 12.4534 20.7831 -0.300265
338 2 14.3805 20.7816 1.30027 14.3805 20.7816 1.30027
339 2 14.3284 20.7845 -1.96148 14.3284 20.7845 -1.96148
340 1 15.305 22.4296 -0.344359 15.305 22.4296 -0.344359
341 2 17.2208 22.4253 1.26977 17.2208 22.4253 1.26977
342 2 17.1916 22.434 -1.99226 17.1916 22.434 -1.99226
343 1 18.1569 20.7831 -0.374095 18.1569 20.7831 -0.374095
344 2 20.0604 20.7788 1.25467 20.0604 20.7788 1.25467
345 2 20.0561 20.7874 -2.00748 20.0561 20.7874 -2.00748
346 1 21.0089 22.4296 -0.373284 21.0089 22.4296 -0.373284
347 2 22.8981 22.4229 1.27203 22.8981 22.4229 1.27203
348 2 22.9222 22.4363 -1.99003 22.9222 22.4363 -1.99003
349 1 23.8609 20.7831 -0.358652 23.8609 20.7831 -0.358652
350 2 25.7387 20.7749 1.29964 25.7387 20.7749 1.29964
351 2 25.7853 20.7913 -1.96216 25.7853 20.7913 -1.96216
352 1 26.7125 22.4295 -0.309338 26.7125 22.4295 -0.309338
353 2 28.5801 22.4202 1.36047 28.5801 22.4202 1.36047
354 2 28.6467 22.4388 -1.90097 28.6467 22.4388 -1.90097
355 1 29.564 20.783 -0.260187 29.564 20.783 -0.260187
356 2 31.4269 20.7716 1.41473 31.4269 20.7716 1.41473
357 2 31.5026 20.7943 -1.8465 31.5026 20.7943 -1.8465
358 1 32.415 22.4294 -0.182316 32.415 22.4294 -0.182316
359 2 34.2772 22.4183 1.49346 34.2772 22.4183 1.49346
360 2 34.3544 22.4403 -1.76774 34.3544 22.4403 -1.76774
361 1 35.2663 20.7828 -0.125708 35.2663 20.7828 -0.125708
362 2 37.1329 20.7707 1.54489 37.1329 20.7707 1.54489
363 2 37.2014 20.7948 -1.71649 37.2014 20.7948 -1.71649
364 1 38.1175 22.4292 -0.0536093 38.1175 22.4292 -0.0536093
365 2 39.9931 22.4185 1.60686 39.9931 22.4185 1.60686
366 2 40.044 22.4399 -1.65485 40.044 22.4399 -1.65485
367 1 40.9692 20.7827 -0.0200831 40.9692 20.7827 -0.0200831
368 2 42.8557 20.7728 1.62786 42.8557 20.7728 1.62786
369 2 42.8851 20.7926 -1.63413 42.8851 20.7926 -1.63413
370 1 43.8209 22.4292 0.0154542 43.8209 22.4292 0.0154542
371 2 45.7213 22.4206 1.64736 45.7213 22.4206 1.64736
372 2 45.7232 22.4379 -1.61478 45.7232 22.4379 -1.61478
373 1 46.6729 20.7828 0.00794198 46.6729 20.7828 0.00794198
374 2 48.5851 20.7768 1.62601 48.5851 20.7768 1.62601
375 2 48.5633 20.7889 -1.63609 48.5633 20.7889 -1.63609
376 1 49.5248 22.4293 -0.00535257 49.5248 22.4293 -0.00535257
377 2 51.4492 22.4235 1.59809 51.4492 22.4235 1.59809
378 2 51.4025 22.4353 -1.66375 51.4025 22.4353 -1.66375
379 1 1.04831 24.0759 -0.0405049 1.04831 24.0759 -0.0405049
380 2 2.98176 24.069 1.55206 2.98176 24.069 1.55206
381 2 2.91669 24.0828 -1.70946 2.91669 24.0828 -1.70946
382 1 3.89971 25.7224 -0.0907665 3.89971 25.7224 -0.0907665
383 2 5.83819 25.714 1.49572 5.83819 25.714 1.49572
384 2 5.76281 25.731 -1.76555 5.76281 25.731 -1.76555
385 1 6.75085 24.0761 -0.165568 6.75085 24.0761 -0.165568
386 2 8.68947 24.0702 1.42081 8.68947 24.0702 1.42081
387 2 8.61379 24.0819 -1.84047 8.61379 24.0819 -1.84047
388 1 9.60204 25.7226 -0.226005 9.60204 25.7226 -0.226005
389 2 11.5371 25.7149 1.36483 11.5371 25.7149 1.36483
390 2 11.4688 25.7303 -1.89659 11.4688 25.7303 -1.89659
391 1 12.4533 24.0761 -0.293637 12.4533 24.0761 -0.293637
392 2 14.3802 24.0705 1.30722 14.3802 24.0705 1.30722
393 2 14.3286 24.0817 -1.95453 14.3286 24.0817 -1.95453
394 1 15.305 25.7227 -0.332998 15.305 25.7227 -0.332998
395 2 17.2208 25.7157 1.28118 17.2208 25.7157 1.28118
396 2 17.1917 25.7296 -1.98084 17.1917 25.7296 -1.98084
397 1 18.1569 24.0761 -0.365339 18.1569 24.0761 -0.365339
398 2 20.0593 24.0699 1.26466 20.0593 24.0699 1.26466
399 2 20.0571 24.0823 -1.9975 20.0571 24.0823 -1.9975
400 1 21.0089 25.7226 -0.360702 21.0089 25.7226 -0.360702
401 2 22.8977 25.716 1.28514 22.8977 25.716 1.28514
402 2 22.9226 25.7291 -1.97692 22.9226 25.7291 -1.97692
403 1 23.8608 24.0761 -0.345154 23.8608 24.0761 -0.345154
404 2 25.7373 24.0685 1.3147 25.7373 24.0685 1.3147
405 2 25.7865 24.0835 -1.94708 25.7865 24.0835 -1.94708
406 1 26.7124 25.7225 -0.294149 26.7124 25.7225 -0.294149
407 2 28.5794 25.7157 1.37638 28.5794 25.7157 1.37638
408 2 28.6472 25.7292 -1.88508 28.6472 25.7292 -1.88508
409 1 29.5638 24.0759 -0.2413 29.5638 24.0759 -0.2413
410 2 31.4258 24.067 1.43467 31.4258 24.067 1.43467
411 2 31.5033 24.0848 -1.82654 31.5033 24.0848 -1.82654
412 1 32.4149 25.7223 -0.164241 32.4149 25.7223 -0.164241
413 2 34.2767 25.7148 1.51193 34.2767 25.7148 1.51193
414 2 34.3546 25.7297 -1.74928 34.3546 25.7297 -1.74928
415 1 35.2661 24.0757 -0.103432 35.2661 24.0757 -0.103432
416 2 37.1329 24.066 1.56705 37.1329 24.066 1.56705
417 2 37.201 24.0855 -1.69436 37.201 24.0855 -1.69436
418 1 38.1173 25.7222 -0.0339198 38.1173 25.7222 -0.0339198
419 2 39.9932 25.7139 1.62629 39.9932 25.7139 1.62629
420 2 40.0437 25.7305 -1.63545 40.0437 25.7305 -1.63545
421 1 40.969 24.0756 0.00171738 40.969 24.0756 0.00171738
422 2 42.8568 24.0662 1.64825 42.8568 24.0662 1.64825
423 2 42.8837 24.0851 -1.61376 42.8837 24.0851 -1.61376
424 1 43.8209 25.7222 0.0346039 43.8209 25.7222 0.0346039
425 2 45.7221 25.7133 1.66559 45.7221 25.7133 1.66559
426 2 45.7223 25.7311 -1.59654 45.7223 25.7311 -1.59654
427 1 46.6729 24.0757 0.0255423 46.6729 24.0757 0.0255423
428 2 48.5868 24.0675 1.64155 48.5868 24.0675 1.64155
429 2 48.5615 24.0841 -1.6205 48.5615 24.0841 -1.6205
430 1 49.5248 25.7223 0.0114591 49.5248 25.7223 0.0114591
431 2 51.4502 25.7134 1.61372 51.4502 25.7134 1.61372
432 2 51.4016 25.7313 -1.64805 51.4016 25.7313 -1.64805
433 1 1.0484 27.3688 -0.0223734 1.0484 27.3688 -0.0223734
434 2 2.98227 27.3586 1.56969 2.98227 27.3586 1.56969
435 2 2.91638 27.3792 -1.69176 2.91638 27.3792 -1.69176
436 1 3.89988 29.0154 -0.0699068 3.89988 29.0154 -0.0699068
437 2 5.83861 29.0037 1.51627 5.83861 29.0037 1.51627
438 2 5.76274 29.0271 -1.74495 5.76274 29.0271 -1.74495
439 1 6.75096 27.369 -0.148371 6.75096 27.369 -0.148371
440 2 8.69021 27.359 1.43723 8.69021 27.359 1.43723
441 2 8.61325 27.379 -1.82398 8.61325 27.379 -1.82398
442 1 9.60221 29.0156 -0.205703 9.60221 29.0156 -0.205703
443 2 11.5381 29.0048 1.38405 11.5381 29.0048 1.38405
444 2 11.468 29.0263 -1.87731 11.468 29.0263 -1.87731
445 1 12.4534 27.3691 -0.277993 12.4534 27.3691 -0.277993
446 2 14.3809 27.3605 1.32206 14.3809 27.3605 1.32206
447 2 14.328 27.3778 -1.93964 14.328 27.3778 -1.93964
448 1 15.3051 29.0156 -0.315384 15.3051 29.0156 -0.315384
449 2 17.2222 29.0075 1.29726 17.2222 29.0075 1.29726
450 2 17.1904 29.0237 -1.96473 17.1904 29.0237 -1.96473
451 1 18.1569 27.3691 -0.351198 18.1569 27.3691 -0.351198
452 2 20.0599 27.3623 1.27816 20.0599 27.3623 1.27816
453 2 20.0565 27.3759 -1.98399 20.0565 27.3759 -1.98399
454 1 21.0089 29.0155 -0.346906 21.0089 29.0155 -0.346906
455 2 22.8989 29.0106 1.29752 22.8989 29.0106 1.29752
456 2 22.9214 29.0204 -1.96458 22.9214 29.0204 -1.96458
457 1 23.8608 27.369 -0.331893 23.8608 27.369 -0.331893
458 2 25.7375 27.3637 1.32774 25.7375 27.3637 1.32774
459 2 25.7863 27.3742 -1.93407 25.7863 27.3742 -1.93407
460 1 26.7124 29.0154 -0.283531 26.7124 29.0154 -0.283531
461 2 28.5801 29.0127 1.3863 28.5801 29.0127 1.3863
462 2 28.6466 29.018 -1.87521 28.6466 29.018 -1.87521
463 1 29.5638 27.3689 -0.22766 29.5638 27.3689 -0.22766
464 2 31.4257 27.364 1.44849 31.4257 27.364 1.44849
465 2 31.5034 27.3736 -1.81276 31.5034 27.3736 -1.81276
466 1 32.4149 29.0153 -0.154546 32.4149 29.0153 -0.154546
467 2 34.2766 29.0129 1.52182 34.2766 29.0129 1.52182
468 2 34.3547 29.0177 -1.73942 34.3547 29.0177 -1.73942
469 1 35.266 27.3687 -0.0883708 35.266 27.3687 -0.0883708
470 2 37.1325 27.3631 1.58245 37.1325 27.3631 1.58245
471 2 37.2012 27.3744 -1.67898 37.2012 27.3744 -1.67898
472 1 38.1173 29.0152 -0.0225081 38.1173 29.0152 -0.0225081
473 2 39.9925 29.0109 1.6386 39.9925 29.0109 1.6386
474 2 40.0444 29.0196 -1.62314 40.0444 29.0196 -1.62314
475 1 40.969 27.3687 0.0184824 40.969 27.3687 0.0184824
476 2 42.8566 27.3612 1.66523 42.8566 27.3612 1.66523
477 2 42.8839 27.3761 -1.59679 42.8839 27.3761 -1.59679
478 1 43.8209 29.0152 0.0496308 43.8209 29.0152 0.0496308
479 2 45.7212 29.0076 1.68169 45.7212 29.0076 1.68169
480 2 45.7233 29.0228 -1.58044 45.7233 29.0228 -1.58044
481 1 46.6729 27.3687 0.0434906 46.6729 27.3687 0.0434906
482 2 48.5869 27.3594 1.65939 48.5869 27.3594 1.65939
483 2 48.5614 27.378 -1.60263 48.5614 27.378 -1.60263
484 1 49.5249 29.0152 0.0302628 49.5249 29.0152 0.0302628
485 2 51.4498 29.0047 1.63312 51.4498 29.0047 1.63312
486 2 51.4022 29.0258 -1.62864 51.4022 29.0258 -1.62864
487 1 1.04857 30.6617 -0.00109005 1.04857 30.6617 -0.00109005
488 2 2.98179 30.6498 1.59178 2.98179 30.6498 1.59178
489 2 2.91727 30.6737 -1.66967 2.91727 30.6737 -1.66967
490 1 3.90015 32.3083 -0.0457366 3.90015 32.3083 -0.0457366
491 2 5.83853 32.2955 1.54089 5.83853 32.2955 1.54089
492 2 5.76341 32.3212 -1.72032 5.76341 32.3212 -1.72032
493 1 6.75121 30.6619 -0.124675 6.75121 30.6619 -0.124675
494 2 8.69101 30.6496 1.46026 8.69101 30.6496 1.46026
495 2 8.61293 30.6744 -1.80089 8.61293 30.6744 -1.80089
496 1 9.60251 32.3085 -0.180529 9.60251 32.3085 -0.180529
497 2 11.5397 32.2967 1.40767 11.5397 32.2967 1.40767
498 2 11.467 32.3203 -1.85362 11.467 32.3203 -1.85362
499 1 12.4536 30.6621 -0.256181 12.4536 30.6621 -0.256181
500 2 14.3827 30.652 1.34199 14.3827 30.652 1.34199
501 2 14.3266 30.6721 -1.91965 14.3266 30.6721 -1.91965
502 1 15.3052 32.3086 -0.294946 15.3052 32.3086 -0.294946
503 2 17.2248 32.3009 1.31477 17.2248 32.3009 1.31477
504 2 17.1881 32.3162 -1.94718 17.1881 32.3162 -1.94718
505 1 18.157 30.6621 -0.334664 18.157 30.6621 -0.334664
506 2 20.062 30.6562 1.29227 20.062 30.6562 1.29227
507 2 20.0545 30.6679 -1.96989 20.0545 30.6679 -1.96989
508 1 21.009 32.3085 -0.334905 21.009 32.3085 -0.334905
509 2 22.9017 32.3062 1.30644 22.9017 32.3062 1.30644
510 2 22.9188 32.3106 -1.95571 22.9188 32.3106 -1.95571
511 1 23.8608 30.6619 -0.321848 23.8608 30.6619 -0.321848
512 2 25.7392 30.6601 1.33586 25.7392 30.6601 1.33586
513 2 25.7846 30.6636 -1.92602 25.7846 30.6636 -1.92602
514 1 26.7125 32.3083 -0.279933 26.7125 32.3083 -0.279933
515 2 28.5819 32.3104 1.38795 28.5819 32.3104 1.38795
516 2 28.645 32.3062 -1.87363 28.645 32.3062 -1.87363
517 1 29.5638 30.6618 -0.222234 29.5638 30.6618 -0.222234
518 2 31.4263 30.6622 1.45326 31.4263 30.6622 1.45326
519 2 31.5028 30.6614 -1.80803 31.5028 30.6614 -1.80803
520 1 32.4151 32.3083 -0.155421 32.4151 32.3083 -0.155421
521 2 34.2767 32.3115 1.52095 34.2767 32.3115 1.52095
522 2 34.3549 32.3051 -1.74029 34.3549 32.3051 -1.74029
523 1 35.2661 30.6618 -0.0835056 35.2661 30.6618 -0.0835056
524 2 37.1319 30.6613 1.58814 37.1319 30.6613 1.58814
525 2 37.202 30.6622 -1.67327 37.202 30.6622 -1.67327
526 1 38.1175 32.3083 -0.0216689 38.1175 32.3083 -0.0216689
527 2 39.9908 32.3088 1.64142 39.9908 32.3088 1.64142
528 2 40.0462 32.3078 -1.62028 40.0462 32.3078 -1.62028
529 1 40.969 30.6617 0.0272383 40.969 30.6617 0.0272383
530 2 42.855 30.6576 1.67589 42.855 30.6576 1.67589
531 2 42.8855 30.6658 -1.58612 42.8855 30.6658 -1.58612
532 1 43.8209 32.3082 0.0578399 43.8209 32.3082 0.0578399
533 2 45.7188 32.3033 1.69285 45.7188 32.3033 1.69285
534 2 45.7258 32.3132 -1.56929 45.7258 32.3132 -1.56929
535 1 46.673 30.6617 0.0588381 46.673 30.6617 0.0588381
536 2 48.5854 30.653 1.67664 48.5854 30.653 1.67664