ITEM: TIMESTEP
73000
ITEM: NUMBER OF ATOMS
810
ITEM: BOX BOUNDS pp pp pp
8.4301780151396877e-01 5.2174587198484126e+01
8.1031269099995151e-01 5.0205902308999235e+01
-1.0000000000000000e+01 1.0000000000000000e+01
ITEM: ATOMS id type x y z xu yu zu
1 1 1.04655 1.02457 -0.165664 1.04655 1.02457 -0.165664
2 2 2.94975 1.02952 1.46304 2.94975 1.02952 1.46304
3 2 2.94569 1.01961 -1.79913 2.94569 1.01961 -1.79913
4 1 3.8983 2.67108 -0.174247 3.8983 2.67108 -0.174247
5 2 5.80141 2.67592 1.45456 5.80141 2.67592 1.45456
6 2 5.79753 2.66623 -1.80761 5.79753 2.66623 -1.80761
7 1 6.75006 1.02456 -0.172771 6.75006 1.02456 -0.172771
8 2 8.6526 1.03018 1.4567 8.6526 1.03018 1.4567
9 2 8.64985 1.01895 -1.80546 8.64985 1.01895 -1.80546
10 1 9.60181 2.67108 -0.180857 9.60181 2.67108 -0.180857
11 2 11.5038 2.67674 1.44924 11.5038 2.67674 1.44924
12 2 11.5021 2.66543 -1.81293 11.5021 2.66543 -1.81293
13 1 12.4536 1.02457 -0.176628 12.4536 1.02457 -0.176628
14 2 14.3546 1.03106 1.45468 14.3546 1.03106 1.45468
15 2 14.3549 1.0181 -1.80748 14.3549 1.0181 -1.80748
16 1 15.3053 2.6711 -0.182844 15.3053 2.6711 -0.182844
17 2 17.2056 2.67773 1.44926 17.2056 2.67773 1.44926
18 2 17.2074 2.66448 -1.8129 17.2074 2.66448 -1.8129
19 1 18.1571 1.0246 -0.174605 18.1571 1.0246 -0.174605
20 2 20.0566 1.03168 1.45843 20.0566 1.03168 1.45843
21 2 20.0599 1.01754 -1.80373 20.0599 1.01754 -1.80373
22 1 21.0088 2.67112 -0.178838 21.0088 2.67112 -0.178838
23 2 22.9079 2.67834 1.45465 22.9079 2.67834 1.45465
24 2 22.9121 2.66393 -1.8075 22.9121 2.66393 -1.8075
25 1 23.8606 1.02463 -0.167922 23.8606 1.02463 -0.167922
26 2 25.7597 1.03173 1.46555 25.7597 1.03173 1.46555
27 2 25.7638 1.01755 -1.7966 25.7638 1.01755 -1.7966
28 1 26.7123 2.67115 -0.171522 26.7123 2.67115 -0.171522
29 2 28.6115 2.67829 1.46184 28.6115 2.67829 1.46184
30 2 28.6155 2.66401 -1.80031 28.6155 2.66401 -1.80031
31 1 29.5641 1.02465 -0.160853 29.5641 1.02465 -0.160853
32 2 31.464 1.03127 1.47168 31.464 1.03127 1.47168
33 2 31.4665 1.01802 -1.79048 31.4665 1.01802 -1.79048
34 1 32.4158 2.67116 -0.165388 32.4158 2.67116 -0.165388
35 2 34.316 2.67771 1.46684 34.316 2.67771 1.46684
36 2 34.318 2.6646 -1.79532 34.318 2.6646 -1.79532
37 1 35.2676 1.02464 -0.157008 35.2676 1.02464 -0.157008
38 2 37.1686 1.03054 1.47429 37.1686 1.03054 1.47429
39 2 37.1689 1.01872 -1.78788 37.1689 1.01872 -1.78788
40 1 38.1193 2.67114 -0.162682 38.1193 2.67114 -0.162682
41 2 40.0204 2.67686 1.46847 40.0204 2.67686 1.46847
42 2 40.0206 2.6654 -1.79369 40.0206 2.6654 -1.79369
43 1 40.9711 1.02461 -0.156758 40.9711 1.02461 -0.156758
44 2 42.8729 1.02982 1.47357 42.8729 1.02982 1.47357
45 2 42.8716 1.01939 -1.7886 42.8716 1.01939 -1.7886
46 1 43.8229 2.67112 -0.163178 43.8229 2.67112 -0.163178
47 2 45.7249 2.67612 1.4669 45.7249 2.67612 1.4669
48 2 45.7232 2.66609 -1.79527 45.7232 2.66609 -1.79527
49 1 46.6746 1.02459 -0.159604 46.6746 1.02459 -0.159604
50 2 48.5773 1.02942 1.46969 48.5773 1.02942 1.46969
51 2 48.5743 1.01974 -1.79248 48.5743 1.01974 -1.79248
52 1 49.5264 2.67109 -0.167184 49.5264 2.67109 -0.167184
53 2 51.4293 2.67573 1.46179 51.4293 2.67573 1.46179
54 2 51.4257 2.66645 -1.80038 51.4257 2.66645 -1.80038
55 1 1.04655 4.3176 -0.175056 1.04655 4.3176 -0.175056
56 2 2.94966 4.3218 1.45374 2.94966 4.3218 1.45374
57 2 2.94577 4.3134 -1.80843 2.94577 4.3134 -1.80843
58 1 3.8983 5.96412 -0.182749 3.8983 5.96412 -0.182749
59 2 5.80139 5.96765 1.44608 5.80139 5.96765 1.44608
60 2 5.79756 5.96058 -1.8161 5.79756 5.96058 -1.8161
61 1 6.75006 4.31759 -0.182565 6.75006 4.31759 -0.182565
62 2 8.65287 4.32216 1.44659 8.65287 4.32216 1.44659
63 2 8.64958 4.31303 -1.81558 8.64958 4.31303 -1.81558
64 1 9.60181 5.96412 -0.190084 9.60181 5.96412 -0.190084
65 2 11.5042 5.96822 1.4396 11.5042 5.96822 1.4396
66 2 11.5018 5.96003 -1.82257 11.5018 5.96003 -1.82257
67 1 12.4536 4.3176 -0.188058 12.4536 4.3176 -0.188058
68 2 14.3549 4.32314 1.44278 14.3549 4.32314 1.44278
69 2 14.3545 4.31209 -1.81938 14.3545 4.31209 -1.81938
70 1 15.3053 5.96413 -0.194017 15.3053 5.96413 -0.194017
71 2 17.206 5.96929 1.4376 17.206 5.96929 1.4376
72 2 17.207 5.95899 -1.82457 17.207 5.95899 -1.82457
73 1 18.1571 4.31762 -0.188017 18.1571 4.31762 -0.188017
74 2 20.0568 4.32415 1.44479 20.0568 4.32415 1.44479
75 2 20.0597 4.31112 -1.81737 20.0597 4.31112 -1.81737
76 1 21.0088 5.96415 -0.192033 21.0088 5.96415 -0.192033
77 2 22.9081 5.97023 1.44129 22.9081 5.97023 1.44129
78 2 22.9119 5.95809 -1.82087 22.9119 5.95809 -1.82087
79 1 23.8606 4.31765 -0.182528 23.8606 4.31765 -0.182528
80 2 25.7595 4.32465 1.45116 25.7595 4.32465 1.45116
81 2 25.764 4.31066 -1.81099 25.764 4.31066 -1.81099
82 1 26.7123 5.96417 -0.185701 26.7123 5.96417 -0.185701
83 2 28.6113 5.97057 1.44797 28.6113 5.97057 1.44797
84 2 28.6157 5.95779 -1.81419 28.6157 5.95779 -1.81419
85 1 29.5641 4.31767 -0.175338 29.5641 4.31767 -0.175338
86 2 31.4635 4.32445 1.45778 31.4635 4.32445 1.45778
87 2 31.467 4.31088 -1.80437 31.467 4.31088 -1.80437
88 1 32.4158 5.96418 -0.179159 32.4158 5.96418 -0.179159
89 2 34.3154 5.9702 1.45374 34.3154 5.9702 1.45374
90 2 34.3186 5.95815 -1.80842 34.3186 5.95815 -1.80842
91 1 35.2676 4.31766 -0.170312 35.2676 4.31766 -0.170312
92 2 37.1679 4.32374 1.46174 37.1679 4.32374 1.46174
93 2 37.1696 4.31157 -1.80042 37.1696 4.31157 -1.80042
94 1 38.1193 5.96417 -0.175036 38.1193 5.96417 -0.175036
95 2 40.0198 5.96944 1.45691 40.0198 5.96944 1.45691
96 2 40.0213 5.95888 -1.80526 40.0213 5.95888 -1.80526
97 1 40.9711 4.31764 -0.168387 40.9711 4.31764 -0.168387
98 2 42.8723 4.32287 1.46263 42.8723 4.32287 1.46263
99 2 42.8722 4.3124 -1.79954 42.8722 4.3124 -1.79954
100 1 43.8229 5.96415 -0.173807 43.8229 5.96415 -0.173807
101 2 45.7243 5.9686 1.45696 45.7243 5.9686 1.45696
102 2 45.7238 5.95968 -1.80521 45.7238 5.95968 -1.80521
103 1 46.6746 4.31762 -0.169766 46.6746 4.31762 -0.169766
104 2 48.5769 4.32214 1.45998 48.5769 4.32214 1.45998
105 2 48.5746 4.31308 -1.80219 48.5746 4.31308 -1.80219
106 1 49.5264 5.96413 -0.176369 49.5264 5.96413 -0.176369
107 2 51.4289 5.96788 1.45306 51.4289 5.96788 1.45306
108 2 51.4261 5.96037 -1.80912 51.4261 5.96037 -1.80912
109 1 1.04655 7.61064 -0.18268 1.04655 7.61064 -0.18268
110 2 2.94931 7.61336 1.44653 2.94931 7.61336 1.44653
111 2 2.94613 7.60792 -1.81565 2.94613 7.60792 -1.81565
112 1 3.89831 9.25716 -0.188267 3.89831 9.25716 -0.188267
113 2 5.80113 9.25864 1.44086 5.80113 9.25864 1.44086
114 2 5.79782 9.25569 -1.82132 5.79782 9.25569 -1.82132
115 1 6.75006 7.61064 -0.189725 6.75006 7.61064 -0.189725
116 2 8.65295 7.61332 1.43933 8.65295 7.61332 1.43933
117 2 8.6495 7.60796 -1.82285 8.6495 7.60796 -1.82285
118 1 9.60181 9.25717 -0.195498 9.60181 9.25717 -0.195498
119 2 11.5044 9.25883 1.43393 11.5044 9.25883 1.43393
120 2 11.5016 9.25551 -1.82825 11.5016 9.25551 -1.82825
121 1 12.4536 7.61065 -0.196335 12.4536 7.61065 -0.196335
122 2 14.3554 7.61407 1.43401 14.3554 7.61407 1.43401
123 2 14.3541 7.60724 -1.82817 14.3541 7.60724 -1.82817
124 1 15.3053 9.25718 -0.200915 15.3053 9.25718 -0.200915
125 2 17.2065 9.25972 1.43014 17.2065 9.25972 1.43014
126 2 17.2065 9.25465 -1.83204 17.2065 9.25465 -1.83204
127 1 18.1571 7.61066 -0.198434 18.1571 7.61066 -0.198434
128 2 20.0572 7.61516 1.4339 20.0572 7.61516 1.4339
129 2 20.0593 7.60618 -1.82827 20.0593 7.60618 -1.82827
130 1 21.0088 9.2572 -0.201107 21.0088 9.2572 -0.201107
131 2 22.9085 9.26078 1.43176 22.9085 9.26078 1.43176
132 2 22.9115 9.25362 -1.83041 22.9115 9.25362 -1.83041
133 1 23.8606 7.61068 -0.194826 23.8606 7.61068 -0.194826
134 2 25.7596 7.61598 1.43877 25.7596 7.61598 1.43877
135 2 25.7639 7.6054 -1.82339 25.7639 7.6054 -1.82339
136 1 26.7123 9.25721 -0.196413 26.7123 9.25721 -0.196413
137 2 28.6113 9.26141 1.43725 28.6113 9.26141 1.43725
138 2 28.6157 9.25301 -1.82492 28.6157 9.25301 -1.82492
139 1 29.5641 7.61069 -0.188301 29.5641 7.61069 -0.188301
140 2 31.4631 7.6161 1.44522 31.4631 7.6161 1.44522
141 2 31.4674 7.60529 -1.81694 31.4674 7.60529 -1.81694
142 1 32.4158 9.25721 -0.190129 32.4158 9.25721 -0.190129
143 2 34.315 9.26131 1.44324 34.315 9.26131 1.44324
144 2 34.319 9.25311 -1.81893 34.319 9.25311 -1.81893
145 1 35.2676 7.61069 -0.18255 35.2676 7.61069 -0.18255
146 2 37.1673 7.61561 1.45021 37.1673 7.61561 1.45021
147 2 37.1702 7.60575 -1.81196 37.1702 7.60575 -1.81196
148 1 38.1194 9.2572 -0.185049 38.1194 9.2572 -0.185049
149 2 40.0192 9.26079 1.44757 40.0192 9.26079 1.44757
150 2 40.0219 9.2536 -1.81461 40.0219 9.2536 -1.81461
151 1 40.9711 7.61067 -0.17911 40.9711 7.61067 -0.17911
152 2 42.8717 7.61487 1.45267 42.8717 7.61487 1.45267
153 2 42.8729 7.60646 -1.80951 42.8729 7.60646 -1.80951
154 1 43.8229 9.25718 -0.182349 43.8229 9.25718 -0.182349
155 2 45.7237 9.26006 1.44914 45.7237 9.26006 1.44914
156 2 45.7244 9.25429 -1.81304 45.7244 9.25429 -1.81304
157 1 46.6746 7.61066 -0.178819 46.6746 7.61066 -0.178819
158 2 48.5763 7.61404 1.45161 48.5763 7.61404 1.45161
159 2 48.5752 7.60726 -1.81057 48.5752 7.60726 -1.81057
160 1 49.5264 9.25717 -0.183256 49.5264 9.25717 -0.183256
161 2 51.4284 9.25921 1.44684 51.4284 9.25921 1.44684
162 2 51.4267 9.25512 -1.81535 51.4267 9.25512 -1.81535
163 1 1.04655 10.9037 -0.186846 1.04655 10.9037 -0.186846
164 2 2.94879 10.9042 1.44296 2.94879 10.9042 1.44296
165 2 2.94665 10.9032 -1.81922 2.94665 10.9032 -1.81922
166 1 3.89831 12.5502 -0.189297 3.89831 12.5502 -0.189297
167 2 5.80075 12.5491 1.44027 5.80075 12.5491 1.44027
168 2 5.79821 12.5513 -1.82191 5.79821 12.5513 -1.82191
169 1 6.75006 10.9037 -0.192719 6.75006 10.9037 -0.192719
170 2 8.65285 10.9038 1.43645 8.65285 10.9038 1.43645
171 2 8.64961 10.9036 -1.82574 8.64961 10.9036 -1.82574
172 1 9.60182 12.5502 -0.195738 9.60182 12.5502 -0.195738
173 2 11.5045 12.549 1.43357 11.5045 12.549 1.43357
174 2 11.5015 12.5515 -1.82861 11.5015 12.5515 -1.82861
175 1 12.4536 10.9037 -0.199676 12.4536 10.9037 -0.199676
176 2 14.3557 10.9042 1.43024 14.3557 10.9042 1.43024
177 2 14.3538 10.9032 -1.83194 14.3538 10.9032 -1.83194
178 1 15.3053 12.5502 -0.201985 15.3053 12.5502 -0.201985
179 2 17.207 12.5497 1.42847 17.207 12.5497 1.42847
180 2 17.206 12.5508 -1.83371 17.206 12.5508 -1.83371
181 1 18.1571 10.9037 -0.203538 18.1571 10.9037 -0.203538
182 2 20.0577 10.9052 1.42816 20.0577 10.9052 1.42816
183 2 20.0588 10.9022 -1.83402 20.0588 10.9022 -1.83402
184 1 21.0088 12.5502 -0.204169 21.0088 12.5502 -0.204169
185 2 22.9091 12.5507 1.42802 22.9091 12.5507 1.42802
186 2 22.911 12.5498 -1.83417 22.911 12.5498 -1.83417
187 1 23.8606 10.9037 -0.20206 23.8606 10.9037 -0.20206
188 2 25.7599 10.9062 1.43113 25.7599 10.9062 1.43113
189 2 25.7636 10.9012 -1.83105 25.7636 10.9012 -1.83105
190 1 26.7123 12.5503 -0.201441 26.7123 12.5503 -0.201441
191 2 28.6116 12.5515 1.43192 28.6116 12.5515 1.43192
192 2 28.6155 12.549 -1.83026 28.6155 12.549 -1.83026
193 1 29.5641 10.9037 -0.196804 29.5641 10.9037 -0.196804
194 2 31.4631 10.9066 1.43682 31.4631 10.9066 1.43682
195 2 31.4675 10.9009 -1.82535 31.4675 10.9009 -1.82535
196 1 32.4159 12.5503 -0.19588 32.4159 12.5503 -0.19588
197 2 34.3149 12.5515 1.43768 34.3149 12.5515 1.43768
198 2 34.3192 12.549 -1.8245 34.3192 12.549 -1.8245
199 1 35.2676 10.9037 -0.190876 35.2676 10.9037 -0.190876
200 2 37.1669 10.9063 1.44235 37.1669 10.9063 1.44235
201 2 37.1706 10.9011 -1.81983 37.1706 10.9011 -1.81983
202 1 38.1194 12.5502 -0.190309 38.1194 12.5502 -0.190309
203 2 40.0188 12.5512 1.44271 40.0188 12.5512 1.44271
204 2 40.0222 12.5493 -1.81947 40.0222 12.5493 -1.81947
205 1 40.9711 10.9037 -0.186413 40.9711 10.9037 -0.186413
206 2 42.8711 10.9058 1.44597 42.8711 10.9058 1.44597
207 2 42.8734 10.9016 -1.81621 42.8734 10.9016 -1.81621
208 1 43.8229 12.5502 -0.186613 43.8229 12.5502 -0.186613
209 2 45.7232 12.5507 1.44545 45.7232 12.5507 1.44545
210 2 45.7249 12.5498 -1.81674 45.7249 12.5498 -1.81674
211 1 46.6746 10.9037 -0.184689 46.6746 10.9037 -0.184689
212 2 48.5757 10.905 1.44645 48.5757 10.905 1.44645
213 2 48.5759 10.9024 -1.81574 48.5759 10.9024 -1.81574
214 1 49.5264 12.5502 -0.186004 49.5264 12.5502 -0.186004
215 2 51.4278 12.5498 1.44477 51.4278 12.5498 1.44477
216 2 51.4273 12.5506 -1.81741 51.4273 12.5506 -1.81741
217 1 1.04656 14.1967 -0.186127 1.04656 14.1967 -0.186127
218 2 2.94828 14.1946 1.44428 2.94828 14.1946 1.44428
219 2 2.94717 14.1989 -1.8179 2.94717 14.1989 -1.8179
220 1 3.89831 15.8433 -0.185026 3.89831 15.8433 -0.185026
221 2 5.8004 15.8395 1.44496 5.8004 15.8395 1.44496
222 2 5.79857 15.847 -1.81722 5.79857 15.847 -1.81722
223 1 6.75007 14.1967 -0.190455 6.75007 14.1967 -0.190455
224 2 8.65268 14.1941 1.43891 8.65268 14.1941 1.43891
225 2 8.64979 14.1994 -1.82327 8.64979 14.1994 -1.82327
226 1 9.60182 15.8433 -0.19035 9.60182 15.8433 -0.19035
227 2 11.5046 15.8393 1.43887 11.5046 15.8393 1.43887
228 2 11.5014 15.8472 -1.82331 11.5014 15.8472 -1.82331
229 1 12.4536 14.1968 -0.197166 12.4536 14.1968 -0.197166
230 2 14.356 14.1943 1.43238 14.356 14.1943 1.43238
231 2 14.3534 14.1992 -1.8298 14.3534 14.1992 -1.8298
232 1 15.3053 15.8433 -0.197012 15.3053 15.8433 -0.197012
233 2 17.2076 15.8399 1.43281 17.2076 15.8399 1.43281
234 2 17.2054 15.8467 -1.82936 17.2054 15.8467 -1.82936
235 1 18.1571 14.1968 -0.202357 18.1571 14.1968 -0.202357
236 2 20.0584 14.1952 1.42859 20.0584 14.1952 1.42859
237 2 20.0581 14.1983 -1.83359 20.0581 14.1983 -1.83359
238 1 21.0088 15.8433 -0.201 21.0088 15.8433 -0.201
239 2 22.9098 15.8409 1.43036 22.9098 15.8409 1.43036
240 2 22.9102 15.8457 -1.83182 22.9102 15.8457 -1.83182
241 1 23.8606 14.1968 -0.203021 23.8606 14.1968 -0.203021
242 2 25.7605 14.1962 1.42952 25.7605 14.1962 1.42952
243 2 25.763 14.1973 -1.83267 25.763 14.1973 -1.83267
244 1 26.7123 15.8433 -0.20029 26.7123 15.8433 -0.20029
245 2 28.612 15.8417 1.43259 28.612 15.8417 1.43259
246 2 28.6151 15.845 -1.8296 28.6151 15.845 -1.8296
247 1 29.5641 14.1968 -0.199298 29.5641 14.1968 -0.199298
248 2 31.4632 14.1966 1.43419 31.4632 14.1966 1.43419
249 2 31.4673 14.1969 -1.828 31.4673 14.1969 -1.828
250 1 32.4159 15.8433 -0.195561 32.4159 15.8433 -0.195561
251 2 34.3149 15.8417 1.43799 34.3149 15.8417 1.43799
252 2 34.3192 15.8449 -1.82419 34.3192 15.8449 -1.82419
253 1 35.2676 14.1968 -0.193495 35.2676 14.1968 -0.193495
254 2 37.1667 14.1965 1.43993 37.1667 14.1965 1.43993
255 2 37.1708 14.1971 -1.82225 37.1708 14.1971 -1.82225
256 1 38.1194 15.8433 -0.189684 38.1194 15.8433 -0.189684
257 2 40.0187 15.8414 1.44351 40.0187 15.8414 1.44351
258 2 40.0224 15.8451 -1.81868 40.0224 15.8451 -1.81868
259 1 40.9711 14.1968 -0.188421 40.9711 14.1968 -0.188421
260 2 42.8708 14.1961 1.44431 42.8708 14.1961 1.44431
261 2 42.8737 14.1974 -1.81788 42.8737 14.1974 -1.81788
262 1 43.8229 15.8433 -0.185326 43.8229 15.8433 -0.185326
263 2 45.7229 15.841 1.44707 45.7229 15.841 1.44707
264 2 45.7252 15.8455 -1.81512 45.7252 15.8455 -1.81512
265 1 46.6746 14.1967 -0.185649 46.6746 14.1967 -0.185649
266 2 48.5752 14.1955 1.44605 48.5752 14.1955 1.44605
267 2 48.5763 14.198 -1.81613 48.5763 14.198 -1.81613
268 1 49.5264 15.8433 -0.183476 49.5264 15.8433 -0.183476
269 2 51.4273 15.8403 1.44785 51.4273 15.8403 1.44785
270 2 51.4278 15.8462 -1.81433 51.4278 15.8462 -1.81433
271 1 1.04656 17.4898 -0.180136 1.04656 17.4898 -0.180136
272 2 2.9479 17.4853 1.45073 2.9479 17.4853 1.45073
273 2 2.94756 17.4943 -1.81145 2.94756 17.4943 -1.81145
274 1 3.89832 19.1363 -0.175925 3.89832 19.1363 -0.175925
275 2 5.80017 19.1306 1.45434 5.80017 19.1306 1.45434
276 2 5.79881 19.142 -1.80782 5.79881 19.142 -1.80782
277 1 6.75007 17.4898 -0.182911 6.75007 17.4898 -0.182911
278 2 8.65255 17.4848 1.44661 8.65255 17.4848 1.44661
279 2 8.64993 17.4948 -1.81556 8.64993 17.4948 -1.81556
280 1 9.60183 19.1363 -0.180168 9.60183 19.1363 -0.180168
281 2 11.5047 19.1304 1.44889 11.5047 19.1304 1.44889
282 2 11.5013 19.1422 -1.81327 11.5013 19.1422 -1.81327
283 1 12.4536 17.4898 -0.189159 12.4536 17.4898 -0.189159
284 2 14.3564 17.4849 1.43998 14.3564 17.4849 1.43998
285 2 14.3531 17.4947 -1.82219 14.3531 17.4947 -1.82219
286 1 15.3053 19.1363 -0.187151 15.3053 19.1363 -0.187151
287 2 17.2081 19.131 1.44201 17.2081 19.131 1.44201
288 2 17.2049 19.1417 -1.82015 17.2049 19.1417 -1.82015
289 1 18.1571 17.4898 -0.195472 18.1571 17.4898 -0.195472
290 2 20.0591 17.4858 1.43466 20.0591 17.4858 1.43466
291 2 20.0574 17.4938 -1.82751 20.0574 17.4938 -1.82751
292 1 21.0088 19.1363 -0.192826 21.0088 19.1363 -0.192826
293 2 22.9105 19.1319 1.4377 22.9105 19.1319 1.4377
294 2 22.9095 19.1408 -1.82448 22.9095 19.1408 -1.82448
295 1 23.8606 17.4898 -0.198194 23.8606 17.4898 -0.198194
296 2 25.7611 17.4867 1.43361 25.7611 17.4867 1.43361
297 2 25.7624 17.4929 -1.82857 25.7624 17.4929 -1.82857
298 1 26.7123 19.1364 -0.193981 26.7123 19.1364 -0.193981
299 2 28.6124 19.1325 1.43839 28.6124 19.1325 1.43839
300 2 28.6146 19.1402 -1.82378 28.6146 19.1402 -1.82378
301 1 29.5641 17.4898 -0.195953 29.5641 17.4898 -0.195953
302 2 31.4634 17.4871 1.43728 31.4634 17.4871 1.43728
303 2 31.4671 17.4926 -1.8249 31.4671 17.4926 -1.8249
304 1 32.4159 19.1364 -0.189938 32.4159 19.1364 -0.189938
305 2 34.315 19.1325 1.44356 34.315 19.1325 1.44356
306 2 34.3191 19.1402 -1.81861 34.3191 19.1402 -1.81861
307 1 35.2676 17.4898 -0.190256 35.2676 17.4898 -0.190256
308 2 37.1667 17.4868 1.44323 37.1667 17.4868 1.44323
309 2 37.1709 17.4928 -1.81895 37.1709 17.4928 -1.81895
310 1 38.1194 19.1363 -0.183651 38.1194 19.1363 -0.183651
311 2 40.0187 19.1321 1.4496 40.0187 19.1321 1.4496
312 2 40.0224 19.1405 -1.81257 40.0224 19.1405 -1.81257
313 1 40.9711 17.4898 -0.184666 40.9711 17.4898 -0.184666
314 2 42.8707 17.4865 1.4482 42.8707 17.4865 1.4482
315 2 42.8738 17.4931 -1.81398 42.8738 17.4931 -1.81398
316 1 43.8229 19.1363 -0.178681 43.8229 19.1363 -0.178681
317 2 45.7228 19.1318 1.45385 45.7228 19.1318 1.45385
318 2 45.7253 19.1408 -1.80833 45.7253 19.1408 -1.80833
319 1 46.6746 17.4898 -0.181109 46.6746 17.4898 -0.181109
320 2 48.5749 17.486 1.45094 48.5749 17.486 1.45094
321 2 48.5766 17.4935 -1.81124 48.5766 17.4935 -1.81124
322 1 49.5264 19.1363 -0.175866 49.5264 19.1363 -0.175866
323 2 51.427 19.1312 1.45579 51.427 19.1312 1.45579
324 2 51.4281 19.1414 -1.80638 51.4281 19.1414 -1.80638
325 1 1.04656 20.7828 -0.169885 1.04656 20.7828 -0.169885
326 2 2.94769 20.7768 1.46123 2.94769 20.7768 1.46123
327 2 2.94777 20.7888 -1.80093 2.94777 20.7888 -1.80093
328 1 3.89832 22.4293 -0.163746 3.89832 22.4293 -0.163746
329 2 5.80008 22.4228 1.46664 5.80008 22.4228 1.46664
330 2 5.7989 22.4358 -1.79552 5.7989 22.4358 -1.79552
331 1 6.75007 20.7828 -0.17139 6.75007 20.7828 -0.17139
332 2 8.65253 20.7764 1.45817 8.65253 20.7764 1.45817
333 2 8.64996 20.7892 -1.80399 8.64996 20.7892 -1.80399
334 1 9.60183 22.4293 -0.167163 9.60183 22.4293 -0.167163
335 2 11.5049 22.4227 1.4617 11.5049 22.4227 1.4617
336 2 11.5011 22.436 -1.80046 11.5011 22.436 -1.80046
337 1 12.4536 20.7828 -0.177239 12.4536 20.7828 -0.177239
338 2 14.3568 20.7766 1.45147 14.3568 20.7766 1.45147
339 2 14.3527 20.7891 -1.81069 14.3527 20.7891 -1.81069
340 1 15.3053 22.4294 -0.174453 15.3053 22.4294 -0.174453
341 2 17.2087 22.4231 1.45411 17.2087 22.4231 1.45411
342 2 17.2044 22.4356 -1.80805 17.2044 22.4356 -1.80805
343 1 18.1571 20.7829 -0.184595 18.1571 20.7829 -0.184595
344 2 20.0597 20.7773 1.44476 20.0597 20.7773 1.44476
345 2 20.0568 20.7884 -1.81741 20.0568 20.7884 -1.81741
346 1 21.0088 22.4294 -0.181572 21.0088 22.4294 -0.181572
347 2 22.9111 22.4238 1.44824 22.9111 22.4238 1.44824
348 2 22.9089 22.435 -1.81392 22.9089 22.435 -1.81392
349 1 23.8606 20.7829 -0.189168 23.8606 20.7829 -0.189168
350 2 25.7617 20.7781 1.44196 25.7617 20.7781 1.44196
351 2 25.7618 20.7877 -1.82021 25.7618 20.7877 -1.82021
352 1 26.7123 22.4294 -0.184243 26.7123 22.4294 -0.184243
353 2 28.6128 22.4242 1.44772 28.6128 22.4242 1.44772
354 2 28.6143 22.4346 -1.81445 28.6143 22.4346 -1.81445
355 1 29.5641 20.7829 -0.188171 29.5641 20.7829 -0.188171
356 2 31.4636 20.7783 1.44483 31.4636 20.7783 1.44483
357 2 31.4669 20.7875 -1.81734 31.4669 20.7875 -1.81734
358 1 32.4159 22.4294 -0.180679 32.4159 22.4294 -0.180679
359 2 34.315 22.4241 1.45279 34.315 22.4241 1.45279
360 2 34.3191 22.4346 -1.80937 34.3191 22.4346 -1.80937
361 1 35.2676 20.7829 -0.182408 35.2676 20.7829 -0.182408
362 2 37.1667 20.778 1.45113 37.1667 20.778 1.45113
363 2 37.1709 20.7877 -1.81104 37.1709 20.7877 -1.81104
364 1 38.1194 22.4294 -0.17383 38.1194 22.4294 -0.17383
365 2 40.0186 22.4238 1.45948 40.0186 22.4238 1.45948
366 2 40.0224 22.435 -1.80269 40.0224 22.435 -1.80269
367 1 40.9711 20.7828 -0.176159 40.9711 20.7828 -0.176159
368 2 42.8707 20.7777 1.45675 42.8707 20.7777 1.45675
369 2 42.8739 20.788 -1.80542 42.8739 20.788 -1.80542
370 1 43.8229 22.4294 -0.168173 43.8229 22.4294 -0.168173
371 2 45.7228 22.4235 1.46435 45.7228 22.4235 1.46435
372 2 45.7253 22.4352 -1.79781 45.7253 22.4352 -1.79781
373 1 46.6746 20.7828 -0.171931 46.6746 20.7828 -0.171931
374 2 48.5748 20.7773 1.46025 48.5748 20.7773 1.46025
375 2 48.5767 20.7883 -1.80192 48.5767 20.7883 -1.80192
376 1 49.5264 22.4293 -0.164699 49.5264 22.4293 -0.164699
377 2 51.427 22.4232 1.46705 51.427 22.4232 1.46705
378 2 51.4281 22.4354 -1.79511 51.4281 22.4354 -1.79511
379 1 1.04656 24.0758 -0.157493 1.04656 24.0758 -0.157493
380 2 2.94767 24.0695 1.47366 2.94767 24.0695 1.47366
381 2 2.9478 24.0821 -1.7885 2.9478 24.0821 -1.7885
382 1 3.89832 25.7223 -0.151018 3.89832 25.7223 -0.151018
383 2 5.80011 25.7163 1.47934 5.80011 25.7163 1.47934
384 2 5.79887 25.7284 -1.78282 5.79887 25.7284 -1.78282
385 1 6.75008 24.0758 -0.158191 6.75008 24.0758 -0.158191
386 2 8.65258 24.0693 1.47133 8.65258 24.0693 1.47133
387 2 8.64991 24.0824 -1.79083 8.64991 24.0824 -1.79083
388 1 9.60183 25.7224 -0.153894 9.60183 25.7224 -0.153894
389 2 11.505 25.7161 1.47481 11.505 25.7161 1.47481
390 2 11.501 25.7286 -1.78734 11.501 25.7286 -1.78734
391 1 12.4536 24.0758 -0.163739 12.4536 24.0758 -0.163739
392 2 14.3571 24.0693 1.4646 14.3571 24.0693 1.4646
393 2 14.3524 24.0824 -1.79756 14.3524 24.0824 -1.79756
394 1 15.3053 25.7224 -0.161242 15.3053 25.7224 -0.161242
395 2 17.209 25.7162 1.46693 17.209 25.7162 1.46693
396 2 17.204 25.7286 -1.79523 17.204 25.7286 -1.79523
397 1 18.1571 24.0759 -0.171866 18.1571 24.0759 -0.171866
398 2 20.0603 24.0698 1.45688 20.0603 24.0698 1.45688
399 2 20.0563 24.082 -1.80528 20.0563 24.082 -1.80528
400 1 21.0088 25.7224 -0.169168 21.0088 25.7224 -0.169168
401 2 22.9115 25.7165 1.46019 22.9115 25.7165 1.46019
402 2 22.9085 25.7284 -1.80198 22.9085 25.7284 -1.80198
403 1 23.8606 24.0759 -0.1778 23.8606 24.0759 -0.1778
404 2 25.7622 24.0702 1.45282 25.7622 24.0702 1.45282
405 2 25.7614 24.0816 -1.80934 25.7614 24.0816 -1.80934
406 1 26.7123 25.7224 -0.172756 26.7123 25.7224 -0.172756
407 2 28.613 25.7167 1.4589 28.613 25.7167 1.4589
408 2 28.614 25.7282 -1.80326 28.614 25.7282 -1.80326
409 1 29.5641 24.0759 -0.177706 29.5641 24.0759 -0.177706
410 2 31.4638 24.0704 1.45512 31.4638 24.0704 1.45512
411 2 31.4667 24.0814 -1.80705 31.4667 24.0814 -1.80705
412 1 32.4159 25.7224 -0.169525 32.4159 25.7224 -0.169525
413 2 34.315 25.7167 1.4639 34.315 25.7167 1.4639
414 2 34.319 25.7281 -1.79827 34.319 25.7281 -1.79827
415 1 35.2676 24.0759 -0.171799 35.2676 24.0759 -0.171799
416 2 37.1666 24.0702 1.46179 37.1666 24.0702 1.46179
417 2 37.1709 24.0816 -1.80037 37.1709 24.0816 -1.80037
418 1 38.1194 25.7224 -0.162246 38.1194 25.7224 -0.162246
419 2 40.0186 25.7165 1.47107 40.0186 25.7165 1.47107
420 2 40.0224 25.7283 -1.79109 40.0224 25.7283 -1.79109
421 1 40.9711 24.0759 -0.164833 40.9711 24.0759 -0.164833
422 2 42.8707 24.0699 1.46806 42.8707 24.0699 1.46806
423 2 42.8738 24.0818 -1.79411 42.8738 24.0818 -1.79411
424 1 43.8229 25.7224 -0.156062 43.8229 25.7224 -0.156062
425 2 45.7229 25.7165 1.47632 45.7229 25.7165 1.47632
426 2 45.7251 25.7283 -1.78585 45.7251 25.7283 -1.78585
427 1 46.6746 24.0759 -0.160086 46.6746 24.0759 -0.160086
428 2 48.5749 24.0698 1.47202 48.5749 24.0698 1.47202
429 2 48.5767 24.0819 -1.79014 48.5767 24.0819 -1.79014
430 1 49.5264 25.7224 -0.152376 49.5264 25.7224 -0.152376
431 2 51.4271 25.7165 1.47925 51.4271 25.7165 1.47925
432 2 51.428 25.7282 -1.78292 51.428 25.7282 -1.78292
433 1 1.04656 27.3689 -0.145618 1.04656 27.3689 -0.145618
434 2 2.9478 27.3636 1.4854 2.9478 27.3636 1.4854
435 2 2.94766 27.3741 -1.77677 2.94766 27.3741 -1.77677
436 1 3.89832 29.0154 -0.140411 3.89832 29.0154 -0.140411
437 2 5.8002 29.0111 1.48986 5.8002 29.0111 1.48986
438 2 5.79878 29.0197 -1.77231 5.79878 29.0197 -1.77231
439 1 6.75008 27.3689 -0.146001 6.75008 27.3689 -0.146001
440 2 8.65263 27.3634 1.48348 8.65263 27.3634 1.48348
441 2 8.64986 27.3743 -1.77869 8.64986 27.3743 -1.77869
442 1 9.60183 29.0154 -0.142918 9.60183 29.0154 -0.142918
443 2 11.505 29.0107 1.48582 11.505 29.0107 1.48582
444 2 11.501 29.0201 -1.77635 11.501 29.0201 -1.77635
445 1 12.4536 27.3689 -0.151156 12.4536 27.3689 -0.151156
446 2 14.3572 27.3632 1.47704 14.3572 27.3632 1.47704
447 2 14.3523 27.3746 -1.78512 14.3523 27.3746 -1.78512
448 1 15.3053 29.0154 -0.149715 15.3053 29.0154 -0.149715
449 2 17.209 29.0102 1.47845 17.209 29.0102 1.47845
450 2 17.204 29.0206 -1.78372 17.204 29.0206 -1.78372
451 1 18.1571 27.3689 -0.15934 18.1571 27.3689 -0.15934
452 2 20.0605 27.3631 1.46914 20.0605 27.3631 1.46914
453 2 20.056 27.3748 -1.79303 20.056 27.3748 -1.79303
454 1 21.0088 29.0154 -0.157331 21.0088 29.0154 -0.157331
455 2 22.9116 29.0099 1.47192 22.9116 29.0099 1.47192
456 2 22.9084 29.021 -1.79025 22.9084 29.021 -1.79025
457 1 23.8606 27.3689 -0.16573 23.8606 27.3689 -0.16573
458 2 25.7624 27.3631 1.46461 25.7624 27.3631 1.46461
459 2 25.7611 27.3748 -1.79756 25.7611 27.3748 -1.79756
460 1 26.7123 29.0155 -0.160943 26.7123 29.0155 -0.160943
461 2 28.6132 29.0098 1.47052 28.6132 29.0098 1.47052
462 2 28.6138 29.0211 -1.79164 28.6138 29.0211 -1.79164
463 1 29.5641 27.3689 -0.166083 29.5641 27.3689 -0.166083
464 2 31.464 27.3632 1.46655 31.464 27.3632 1.46655
465 2 31.4666 27.3747 -1.79561 31.4666 27.3747 -1.79561
466 1 32.4159 29.0155 -0.157976 32.4159 29.0155 -0.157976
467 2 34.3152 29.0101 1.47523 34.3152 29.0101 1.47523
468 2 34.3188 29.0208 -1.78693 34.3188 29.0208 -1.78693
469 1 35.2676 27.3689 -0.160234 35.2676 27.3689 -0.160234
470 2 37.1667 27.3633 1.47329 37.1667 27.3633 1.47329
471 2 37.1709 27.3745 -1.78887 37.1709 27.3745 -1.78887
472 1 38.1194 29.0154 -0.150879 38.1194 29.0154 -0.150879
473 2 40.0188 29.0104 1.48225 40.0188 29.0104 1.48225
474 2 40.0223 29.0205 -1.77992 40.0223 29.0205 -1.77992
475 1 40.9711 27.3689 -0.152952 40.9711 27.3689 -0.152952
476 2 42.8709 27.3634 1.4798 42.8709 27.3634 1.4798
477 2 42.8737 27.3744 -1.78237 42.8737 27.3744 -1.78237
478 1 43.8229 29.0154 -0.14483 43.8229 29.0154 -0.14483
479 2 45.7232 29.0107 1.48724 45.7232 29.0107 1.48724
480 2 45.7249 29.0201 -1.77493 45.7249 29.0201 -1.77493
481 1 46.6746 27.3689 -0.148132 46.6746 27.3689 -0.148132
482 2 48.5751 27.3635 1.48372 48.5751 27.3635 1.48372
483 2 48.5764 27.3742 -1.77845 48.5764 27.3742 -1.77845
484 1 49.5264 29.0154 -0.141565 49.5264 29.0154 -0.141565
485 2 51.4274 29.011 1.48977 51.4274 29.011 1.48977
486 2 51.4277 29.0198 -1.77241 51.4277 29.0198 -1.77241
487 1 1.04656 30.6619 -0.136764 1.04656 30.6619 -0.136764
488 2 2.94802 30.6588 1.49401 2.94802 30.6588 1.49401
489 2 2.94744 30.6651 -1.76816 2.94744 30.6651 -1.76816
490 1 3.89831 32.3084 -0.134031 3.89831 32.3084 -0.134031
491 2 5.80028 32.3066 1.49616 5.80028 32.3066 1.49616
492 2 5.7987 32.3103 -1.76602 5.7987 32.3103 -1.76602
493 1 6.75007 30.6619 -0.137247 6.75007 30.6619 -0.137247
494 2 8.65259 30.6586 1.49228 8.65259 30.6586 1.49228
495 2 8.64989 30.6652 -1.76989 8.64989 30.6652 -1.76989
496 1 9.60183 32.3084 -0.136238 9.60183 32.3084 -0.136238
497 2 11.5048 32.3061 1.4928 11.5048 32.3061 1.4928
498 2 11.5012 32.3108 -1.76938 11.5012 32.3108 -1.76938
499 1 12.4536 30.6619 -0.1417 12.4536 30.6619 -0.1417
500 2 14.357 30.658 1.48672 14.357 30.658 1.48672
501 2 14.3525 30.6659 -1.77546 14.3525 30.6659 -1.77546
502 1 15.3053 32.3085 -0.14169 15.3053 32.3085 -0.14169
503 2 17.2086 32.305 1.48694 17.2086 32.305 1.48694
504 2 17.2044 32.3119 -1.77524 17.2044 32.3119 -1.77524
505 1 18.1571 30.6619 -0.148846 18.1571 30.6619 -0.148846
506 2 20.0603 30.6572 1.47981 20.0603 30.6572 1.47981
507 2 20.0562 30.6668 -1.78235 20.0562 30.6668 -1.78235
508 1 21.0088 32.3085 -0.147633 21.0088 32.3085 -0.147633
509 2 22.9113 32.304 1.48193 22.9113 32.304 1.48193
510 2 22.9087 32.313 -1.78024 22.9087 32.313 -1.78024
511 1 23.8606 30.662 -0.154433 23.8606 30.662 -0.154433
512 2 25.7624 30.6567 1.47589 25.7624 30.6567 1.47589
513 2 25.7611 30.6673 -1.78628 25.7611 30.6673 -1.78628
514 1 26.7123 32.3085 -0.150202 26.7123 32.3085 -0.150202
515 2 28.6133 32.3037 1.48117 28.6133 32.3037 1.48117
516 2 28.6137 32.3133 -1.781 28.6137 32.3133 -1.781
517 1 29.5641 30.662 -0.154658 29.5641 30.662 -0.154658
518 2 31.4642 30.6568 1.47772 31.4642 30.6568 1.47772
519 2 31.4663 30.6672 -1.78445 31.4663 30.6672 -1.78445
520 1 32.4158 32.3085 -0.147463 32.4158 32.3085 -0.147463
521 2 34.3156 32.3042 1.4853 34.3156 32.3042 1.4853
522 2 34.3184 32.3128 -1.77688 34.3184 32.3128 -1.77688
523 1 35.2676 30.662 -0.149329 35.2676 30.662 -0.149329
524 2 37.167 30.6573 1.48386 37.167 30.6573 1.48386
525 2 37.1706 30.6666 -1.77831 37.1706 30.6666 -1.77831
526 1 38.1194 32.3085 -0.14146 38.1194 32.3085 -0.14146
527 2 40.0192 32.305 1.49117 40.0192 32.305 1.49117
528 2 40.0218 32.3119 -1.77101 40.0218 32.3119 -1.77101
529 1 40.9711 30.6619 -0.142667 40.9711 30.6619 -0.142667
530 2 42.8712 30.6579 1.48972 42.8712 30.6579 1.48972
531 2 42.8734 30.666 -1.77245 42.8734 30.666 -1.77245
532 1 43.8229 32.3084 -0.136576 43.8229 32.3084 -0.136576
533 2 45.7236 32.3057 1.49502 45.7236 32.3057 1.49502
534 2 45.7245 32.3111 -1.76716 45.7245 32.3111 -1.76716
535 1 46.6746 30.6619 -0.138554 46.6746 30.6619 -0.138554
536 2 48.5755 30.6584 1.49289 48.5755 30.6584 1.49289
537 2 48.5761 30.6654 -1.76928 48.5761 30.6654 -1.76928
538 1 49.5264 32.3084 -0.134445 49.5264 32.3084 -0.134445