ITEM: TIMESTEP
71000
ITEM: NUMBER OF ATOMS
810
ITEM: BOX BOUNDS pp pp pp
8.4052263547176487e-01 5.2177082364526065e+01
8.0971480641513460e-01 5.0206500193584162e+01
-1.0000000000000000e+01 1.0000000000000000e+01
ITEM: ATOMS id type x y z xu yu zu
1 1 1.04423 1.02428 -0.232826 1.04423 1.02428 -0.232826
2 2 2.93967 1.00352 1.40514 2.93967 1.00352 1.40514
3 2 2.95156 1.04513 -1.85676 2.95156 1.04513 -1.85676
4 1 3.89628 2.67081 -0.20127 3.89628 2.67081 -0.20127
5 2 5.7873 2.64949 1.44179 5.7873 2.64949 1.44179
6 2 5.80795 2.69217 -1.82005 5.80795 2.69217 -1.82005
7 1 6.74834 1.02432 -0.204702 6.74834 1.02432 -0.204702
8 2 8.63591 1.00378 1.4423 8.63591 1.00378 1.4423
9 2 8.66342 1.04485 -1.81951 8.66342 1.04485 -1.81951
10 1 9.60028 2.67077 -0.159775 9.60028 2.67077 -0.159775
11 2 11.4869 2.64977 1.48831 11.4869 2.64977 1.48831
12 2 11.5163 2.69173 -1.77347 11.5163 2.69173 -1.77347
13 1 12.4523 1.02421 -0.155252 12.4523 1.02421 -0.155252
14 2 14.3389 1.004 1.49277 14.3389 1.004 1.49277
15 2 14.3683 1.04436 -1.76903 14.3683 1.04436 -1.76903
16 1 15.3042 2.67061 -0.109129 15.3042 2.67061 -0.109129
17 2 17.1934 2.65045 1.53596 17.1934 2.65045 1.53596
18 2 17.2177 2.69069 -1.72588 17.2177 2.69069 -1.72588
19 1 18.1563 1.02402 -0.108243 18.1563 1.02402 -0.108243
20 2 20.0485 1.00394 1.5334 20.0485 1.00394 1.5334
21 2 20.0669 1.044 -1.72849 20.0669 1.044 -1.72849
22 1 21.0083 2.67041 -0.0718885 21.0083 2.67041 -0.0718885
23 2 22.9053 2.65115 1.56422 22.9053 2.65115 1.56422
24 2 22.9142 2.68957 -1.69772 22.9142 2.68957 -1.69772
25 1 23.8604 1.02382 -0.0836103 23.8604 1.02382 -0.0836103
26 2 25.7618 1.00362 1.54729 25.7618 1.00362 1.54729
27 2 25.7618 1.0439 -1.71465 25.7618 1.0439 -1.71465
28 1 26.7125 2.67024 -0.063271 26.7125 2.67024 -0.063271
29 2 28.6192 2.65168 1.56152 28.6192 2.65168 1.56152
30 2 28.6087 2.68873 -1.70043 28.6087 2.68873 -1.70043
31 1 29.5646 1.02368 -0.0912681 29.5646 1.02368 -0.0912681
32 2 31.4754 1.00332 1.52867 31.4754 1.00332 1.52867
33 2 31.4566 1.04397 -1.7332 31.4566 1.04397 -1.7332
34 1 32.4167 2.67017 -0.0871395 32.4167 2.67017 -0.0871395
35 2 34.3313 2.65179 1.52833 34.3313 2.65179 1.52833
36 2 34.3048 2.68854 -1.73354 34.3048 2.68854 -1.73354
37 1 35.2687 1.02368 -0.128912 35.2687 1.02368 -0.128912
38 2 37.1852 1.0031 1.48418 37.1852 1.0031 1.48418
39 2 37.1548 1.04428 -1.7776 37.1548 1.04428 -1.7776
40 1 38.1207 2.67025 -0.134743 38.1207 2.67025 -0.134743
41 2 40.0378 2.65127 1.47776 40.0378 2.65127 1.47776
42 2 40.0062 2.68931 -1.78406 40.0062 2.68931 -1.78406
43 1 40.9726 1.02384 -0.181587 40.9726 1.02384 -0.181587
44 2 42.888 1.00305 1.43294 42.888 1.00305 1.43294
45 2 42.8599 1.04476 -1.82886 42.8599 1.04476 -1.82886
46 1 43.8246 2.67046 -0.18504 43.8246 2.67046 -0.18504
47 2 45.7365 2.65046 1.43363 45.7365 2.65046 1.43363
48 2 45.7154 2.6906 -1.82825 45.7154 2.6906 -1.82825
49 1 46.6766 1.0241 -0.223768 46.6766 1.0241 -0.223768
50 2 48.5834 1.00324 1.40092 48.5834 1.00324 1.40092
51 2 48.5726 1.04509 -1.86098 48.5726 1.04509 -1.86098
52 1 49.5287 2.67069 -0.212007 49.5287 2.67069 -0.212007
53 2 51.4299 2.64979 1.41924 51.4299 2.64979 1.41924
54 2 51.4303 2.69172 -1.84267 51.4303 2.69172 -1.84267
55 1 1.0442 4.31726 -0.190374 1.0442 4.31726 -0.190374
56 2 2.93987 4.29654 1.44735 2.93987 4.29654 1.44735
57 2 2.95127 4.33806 -1.81456 2.95127 4.33806 -1.81456
58 1 3.89621 5.96379 -0.159232 3.89621 5.96379 -0.159232
59 2 5.78743 5.94395 1.48363 5.78743 5.94395 1.48363
60 2 5.80766 5.98367 -1.77825 5.80766 5.98367 -1.77825
61 1 6.74825 4.31729 -0.161477 6.74825 4.31729 -0.161477
62 2 8.63649 4.29626 1.48478 8.63649 4.29626 1.48478
63 2 8.66266 4.33833 -1.77703 8.66266 4.33833 -1.77703
64 1 9.60018 5.96375 -0.11715 9.60018 5.96375 -0.11715
65 2 11.4878 5.94429 1.52986 11.4878 5.94429 1.52986
66 2 11.5152 5.98318 -1.73198 11.5152 5.98318 -1.73198
67 1 12.4522 4.31719 -0.112728 12.4522 4.31719 -0.112728
68 2 14.3399 4.2971 1.53413 14.3399 4.2971 1.53413
69 2 14.3672 4.33721 -1.72769 14.3672 4.33721 -1.72769
70 1 15.3042 5.96361 -0.0684616 15.3042 5.96361 -0.0684616
71 2 17.1949 5.94612 1.57496 17.1949 5.94612 1.57496
72 2 17.2162 5.98105 -1.68697 17.2162 5.98105 -1.68697
73 1 18.1562 4.31701 -0.0674621 18.1562 4.31701 -0.0674621
74 2 20.0495 4.29864 1.57292 20.0495 4.29864 1.57292
75 2 20.0657 4.3353 -1.68901 20.0657 4.3353 -1.68901
76 1 21.0083 5.96346 -0.0347039 21.0083 5.96346 -0.0347039
77 2 22.9069 5.94867 1.59963 22.9069 5.94867 1.59963
78 2 22.9126 5.97819 -1.66241 22.9126 5.97819 -1.66241
79 1 23.8604 4.31685 -0.0446717 23.8604 4.31685 -0.0446717
80 2 25.7629 4.30023 1.5851 25.7629 4.30023 1.5851
81 2 25.7608 4.33337 -1.67691 25.7608 4.33337 -1.67691
82 1 26.7126 5.96335 -0.0296674 26.7126 5.96335 -0.0296674
83 2 28.6205 5.95086 1.59371 28.6205 5.95086 1.59371
84 2 28.6074 5.97579 -1.66835 28.6074 5.97579 -1.66835
85 1 29.5647 4.31674 -0.0537309 29.5647 4.31674 -0.0537309
86 2 31.4762 4.30123 1.56541 31.4762 4.30123 1.56541
87 2 31.4559 4.3322 -1.69656 31.4559 4.3322 -1.69656
88 1 32.4167 5.9633 -0.0557642 32.4167 5.9633 -0.0557642
89 2 34.3319 5.95157 1.55916 34.3319 5.95157 1.55916
90 2 34.3043 5.97502 -1.70282 34.3043 5.97502 -1.70282
91 1 35.2688 4.31673 -0.0916978 35.2688 4.31673 -0.0916978
92 2 37.1856 4.30098 1.52116 37.1856 4.30098 1.52116
93 2 37.1546 4.33251 -1.74072 37.1546 4.33251 -1.74072
94 1 38.1207 5.96335 -0.102839 38.1207 5.96335 -0.102839
95 2 40.0375 5.95026 1.51011 40.0375 5.95026 1.51011
96 2 40.0066 5.97649 -1.75183 40.0066 5.97649 -1.75183
97 1 40.9727 4.31686 -0.143097 40.9727 4.31686 -0.143097
98 2 42.888 4.29956 1.47159 42.888 4.29956 1.47159
99 2 42.86 4.33428 -1.7903 42.86 4.33428 -1.7903
100 1 43.8247 5.9635 -0.149922 43.8247 5.9635 -0.149922
101 2 45.7359 5.94771 1.4696 45.7359 5.94771 1.4696
102 2 45.7161 5.97941 -1.79238 45.7161 5.97941 -1.79238
103 1 46.6767 4.31708 -0.183143 46.6767 4.31708 -0.183143
104 2 48.5834 4.29781 1.44164 48.5834 4.29781 1.44164
105 2 48.5726 4.33649 -1.82031 48.5726 4.33649 -1.82031
106 1 49.5287 5.96369 -0.172879 49.5287 5.96369 -0.172879
107 2 51.4295 5.94526 1.45893 51.4295 5.94526 1.45893
108 2 51.4306 5.98223 -1.80306 51.4306 5.98223 -1.80306
109 1 1.04415 7.61027 -0.152981 1.04415 7.61027 -0.152981
110 2 2.93929 7.5932 1.4854 2.93929 7.5932 1.4854
111 2 2.95171 7.62743 -1.77659 2.95171 7.62743 -1.77659
112 1 3.89612 9.25684 -0.124587 3.89612 9.25684 -0.124587
113 2 5.78708 9.24203 1.51865 5.78708 9.24203 1.51865
114 2 5.80781 9.27169 -1.74334 5.80781 9.27169 -1.74334
115 1 6.74815 7.6103 -0.121253 6.74815 7.6103 -0.121253
116 2 8.6369 7.59248 1.52447 8.6369 7.59248 1.52447
117 2 8.66204 7.62813 -1.73742 8.66204 7.62813 -1.73742
118 1 9.60006 9.25681 -0.0810203 9.60006 9.25681 -0.0810203
119 2 11.4887 9.24242 1.56483 11.4887 9.24242 1.56483
120 2 11.5141 9.2712 -1.69712 11.5141 9.2712 -1.69712
121 1 12.4521 7.61021 -0.0732977 12.4521 7.61021 -0.0732977
122 2 14.3413 7.5939 1.5719 14.3413 7.5939 1.5719
123 2 14.3656 7.62649 -1.69003 14.3656 7.62649 -1.69003
124 1 15.3041 9.25673 -0.0353815 15.3041 9.25673 -0.0353815
125 2 17.1969 9.24515 1.6057 17.1969 9.24515 1.6057
126 2 17.214 9.26828 -1.65635 17.214 9.26828 -1.65635
127 1 18.1562 7.61009 -0.0320241 18.1562 7.61009 -0.0320241
128 2 20.0515 7.5969 1.6061 20.0515 7.5969 1.6061
129 2 20.0637 7.62324 -1.65594 20.0637 7.62324 -1.65594
130 1 21.0083 9.25665 -0.00794004 21.0083 9.25665 -0.00794004
131 2 22.9093 9.24914 1.62367 22.9093 9.24914 1.62367
132 2 22.9102 9.26412 -1.63846 22.9102 9.26412 -1.63846
133 1 23.8604 7.60999 -0.0147014 23.8604 7.60999 -0.0147014
134 2 25.7648 7.60023 1.61293 25.7648 7.60023 1.61293
135 2 25.7589 7.61971 -1.64917 25.7589 7.61971 -1.64917
136 1 26.7126 9.25659 -0.00987623 26.7126 9.25659 -0.00987623
137 2 28.6223 9.25264 1.61144 28.6223 9.25264 1.61144
138 2 28.6056 9.26052 -1.65068 28.6056 9.26052 -1.65068
139 1 29.5647 7.60993 -0.0284534 29.5647 7.60993 -0.0284534
140 2 31.4773 7.60232 1.58947 31.4773 7.60232 1.58947
141 2 31.4548 7.61751 -1.67259 31.4548 7.61751 -1.67259
142 1 32.4167 9.25656 -0.0403727 32.4167 9.25656 -0.0403727
143 2 34.3323 9.2538 1.57408 34.3323 9.2538 1.57408
144 2 34.3038 9.2593 -1.68797 34.3038 9.2593 -1.68797
145 1 35.2688 7.60992 -0.0679601 35.2688 7.60992 -0.0679601
146 2 37.1855 7.60196 1.54513 37.1855 7.60196 1.54513
147 2 37.1547 7.6179 -1.71687 37.1547 7.6179 -1.71687
148 1 38.1207 9.25657 -0.0867443 38.1207 9.25657 -0.0867443
149 2 40.0365 9.2519 1.52749 40.0365 9.2519 1.52749
150 2 40.0076 9.26125 -1.73456 40.0076 9.26125 -1.73456
151 1 40.9727 7.60999 -0.116592 40.9727 7.60999 -0.116592
152 2 42.8869 7.59927 1.49943 42.8869 7.59927 1.49943
153 2 42.8611 7.62079 -1.7626 42.8611 7.62079 -1.7626
154 1 43.8246 9.25664 -0.128217 43.8246 9.25664 -0.128217
155 2 45.7342 9.24799 1.49342 45.7342 9.24799 1.49342
156 2 45.7178 9.26538 -1.7687 45.7178 9.26538 -1.7687
157 1 46.6767 7.61014 -0.151104 46.6767 7.61014 -0.151104
158 2 48.5822 7.5958 1.47511 48.5822 7.5958 1.47511
159 2 48.5738 7.62458 -1.78696 48.5738 7.62458 -1.78696
160 1 49.5287 9.25677 -0.143797 49.5287 9.25677 -0.143797
161 2 51.4281 9.24414 1.48967 51.4281 9.24414 1.48967
162 2 51.432 9.26949 -1.77243 51.432 9.26949 -1.77243
163 1 1.04408 10.9034 -0.127366 1.04408 10.9034 -0.127366
164 2 2.93801 10.8931 1.51249 2.93801 10.8931 1.51249
165 2 2.95282 10.9137 -1.74961 2.95282 10.9137 -1.74961
166 1 3.89603 12.55 -0.10373 3.89603 12.55 -0.10373
167 2 5.78626 12.543 1.5404 5.78626 12.543 1.5404
168 2 5.80843 12.557 -1.72169 5.80843 12.557 -1.72169
169 1 6.74804 10.9034 -0.0912071 6.74804 10.9034 -0.0912071
170 2 8.63707 10.8921 1.55427 8.63707 10.8921 1.55427
171 2 8.66166 10.9148 -1.70775 8.66166 10.9148 -1.70775
172 1 9.59996 12.55 -0.0579662 9.59996 12.55 -0.0579662
173 2 11.4896 12.5433 1.58684 11.4896 12.5433 1.58684
174 2 11.513 12.5567 -1.67523 11.513 12.5567 -1.67523
175 1 12.452 10.9034 -0.0440861 12.452 10.9034 -0.0440861
176 2 14.3429 10.8938 1.5992 14.3429 10.8938 1.5992
177 2 14.3638 10.9129 -1.66286 14.3638 10.9129 -1.66286
178 1 15.304 12.55 -0.0159593 15.304 12.55 -0.0159593
179 2 17.1991 12.5464 1.62251 17.1991 12.5464 1.62251
180 2 17.2117 12.5535 -1.63963 17.2117 12.5535 -1.63963
181 1 18.1561 10.9033 -0.00849388 18.1561 10.9033 -0.00849388
182 2 20.054 10.8977 1.62671 20.054 10.8977 1.62671
183 2 20.0611 10.9089 -1.63543 20.0611 10.9089 -1.63543
184 1 21.0083 12.5499 0.00345096 21.0083 12.5499 0.00345096
185 2 22.912 12.551 1.63188 22.912 12.551 1.63188
186 2 22.9074 12.5488 -1.63028 22.9074 12.5488 -1.63028
187 1 23.8604 10.9033 0.000564947 23.8604 10.9033 0.000564947
188 2 25.7672 10.9022 1.6254 25.7672 10.9022 1.6254
189 2 25.7565 10.9043 -1.63675 25.7565 10.9043 -1.63675
190 1 26.7126 12.5499 -0.00761236 26.7126 12.5499 -0.00761236
191 2 28.6243 12.5551 1.61133 28.6243 12.5551 1.61133
192 2 28.6036 12.5446 -1.65076 28.6036 12.5446 -1.65076
193 1 29.5647 10.9032 -0.020423 29.5647 10.9032 -0.020423
194 2 31.4785 10.905 1.59606 31.4785 10.905 1.59606
195 2 31.4535 10.9014 -1.66601 31.4535 10.9014 -1.66601
196 1 32.4167 12.5499 -0.044031 32.4167 12.5499 -0.044031
197 2 34.3326 12.5567 1.57005 34.3326 12.5567 1.57005
198 2 34.3035 12.543 -1.69197 34.3035 12.543 -1.69197
199 1 35.2687 10.9032 -0.0624219 35.2687 10.9032 -0.0624219
200 2 37.1849 10.9047 1.55133 37.1849 10.9047 1.55133
201 2 37.1552 10.9017 -1.71072 37.1552 10.9017 -1.71072
202 1 38.1206 12.5498 -0.0898441 38.1206 12.5498 -0.0898441
203 2 40.0348 12.5547 1.52626 40.0348 12.5547 1.52626
204 2 40.0091 12.5449 -1.73582 40.0091 12.5449 -1.73582
205 1 40.9726 10.9032 -0.107204 40.9726 10.9032 -0.107204
206 2 42.885 10.9013 1.51112 42.885 10.9013 1.51112
207 2 42.8629 10.9052 -1.751 42.8629 10.9052 -1.751
208 1 43.8246 12.5499 -0.124362 43.8246 12.5499 -0.124362
209 2 45.7316 12.5502 1.5003 45.7316 12.5502 1.5003
210 2 45.7203 12.5495 -1.76189 45.7203 12.5495 -1.76189
211 1 46.6766 10.9033 -0.13359 46.6766 10.9033 -0.13359
212 2 48.5801 10.8967 1.49517 48.5801 10.8967 1.49517
213 2 48.5758 10.91 -1.76701 48.5758 10.91 -1.76701
214 1 49.5286 12.5499 -0.130356 49.5286 12.5499 -0.130356
215 2 51.4259 12.5456 1.50565 51.4259 12.5456 1.50565
216 2 51.434 12.5543 -1.75653 51.434 12.5543 -1.75653
217 1 1.04401 14.1966 -0.118591 1.04401 14.1966 -0.118591
218 2 2.93617 14.1952 1.52335 2.93617 14.1952 1.52335
219 2 2.9545 14.1981 -1.7388 2.9545 14.1981 -1.7388
220 1 3.89595 15.8432 -0.100842 3.89595 15.8432 -0.100842
221 2 5.78504 15.8454 1.54462 5.78504 15.8454 1.54462
222 2 5.8095 15.841 -1.71748 5.8095 15.841 -1.71748
223 1 6.74795 14.1966 -0.0769771 6.74795 14.1966 -0.0769771
224 2 8.63692 14.1939 1.5686 8.63692 14.1939 1.5686
225 2 8.66162 14.1994 -1.69349 8.66162 14.1994 -1.69349
226 1 9.59989 15.8433 -0.0523583 9.59989 15.8433 -0.0523583
227 2 11.4901 15.8455 1.59174 11.4901 15.8455 1.59174
228 2 11.5124 15.841 -1.67036 11.5124 15.841 -1.67036
229 1 12.4519 14.1966 -0.0304857 12.4519 14.1966 -0.0304857
230 2 14.3445 14.1956 1.61098 14.3445 14.1956 1.61098
231 2 14.3622 14.1977 -1.65114 14.3622 14.1977 -1.65114
232 1 15.304 15.8433 -0.0137391 15.304 15.8433 -0.0137391
233 2 17.2011 15.8482 1.62239 17.2011 15.8482 1.62239
234 2 17.2097 15.8383 -1.63975 17.2097 15.8383 -1.63975
235 1 18.1561 14.1966 -0.00114427 18.1561 14.1966 -0.00114427
236 2 20.0566 14.1995 1.63104 20.0566 14.1995 1.63104
237 2 20.0585 14.1937 -1.63112 20.0585 14.1937 -1.63112
238 1 21.0083 15.8432 -0.00235331 21.0083 15.8432 -0.00235331
239 2 22.9145 15.8524 1.62306 22.9145 15.8524 1.62306
240 2 22.9049 15.834 -1.63904 22.9049 15.834 -1.63904
241 1 23.8604 14.1966 -0.00151027 23.8604 14.1966 -0.00151027
242 2 25.7697 14.2041 1.62035 25.7697 14.2041 1.62035
243 2 25.754 14.189 -1.64175 25.754 14.189 -1.64175
244 1 26.7125 15.8432 -0.0228792 26.7125 15.8432 -0.0228792
245 2 28.6262 15.8564 1.59374 28.6262 15.8564 1.59374
246 2 28.6016 15.8299 -1.66824 28.6016 15.8299 -1.66824
247 1 29.5646 14.1965 -0.0310125 29.5646 14.1965 -0.0310125
248 2 31.4797 14.2073 1.58398 31.4797 14.2073 1.58398
249 2 31.4522 14.1857 -1.67801 31.4522 14.1857 -1.67801
250 1 32.4166 15.8431 -0.0659076 32.4166 15.8431 -0.0659076
251 2 34.3327 15.8582 1.54781 34.3327 15.8582 1.54781
252 2 34.3031 15.8279 -1.7141 34.3031 15.8279 -1.7141
253 1 35.2686 14.1965 -0.0763473 35.2686 14.1965 -0.0763473
254 2 37.184 14.2073 1.53827 37.184 14.2073 1.53827
255 2 37.1558 14.1856 -1.72372 37.1558 14.1856 -1.72372
256 1 38.1205 15.843 -0.111915 38.1205 15.843 -0.111915
257 2 40.033 15.8568 1.50619 40.033 15.8568 1.50619
258 2 40.0107 15.8292 -1.75582 40.0107 15.8292 -1.75582
259 1 40.9726 14.1964 -0.117231 40.9726 14.1964 -0.117231
260 2 42.8825 14.204 1.50394 42.8825 14.204 1.50394
261 2 42.8653 14.1889 -1.75818 42.8653 14.1889 -1.75818
262 1 43.8245 15.843 -0.139722 43.8245 15.843 -0.139722
263 2 45.7286 15.8527 1.48834 45.7286 15.8527 1.48834
264 2 45.7232 15.8334 -1.7738 45.7232 15.8334 -1.7738
265 1 46.6766 14.1965 -0.134412 46.6766 14.1965 -0.134412
266 2 48.5773 14.1991 1.49763 48.5773 14.1991 1.49763
267 2 48.5786 14.194 -1.76457 48.5786 14.194 -1.76457
268 1 49.5286 15.8431 -0.135626 49.5286 15.8431 -0.135626
269 2 51.4232 15.8481 1.50342 51.4232 15.8481 1.50342
270 2 51.4366 15.8382 -1.75874 51.4366 15.8382 -1.75874
271 1 1.04397 17.4898 -0.128754 1.04397 17.4898 -0.128754
272 2 2.93403 17.4976 1.51558 2.93403 17.4976 1.51558
273 2 2.95654 17.482 -1.7465 2.95654 17.482 -1.7465
274 1 3.89592 19.1364 -0.116758 3.89592 19.1364 -0.116758
275 2 5.78359 19.1475 1.53029 5.78359 19.1475 1.53029
276 2 5.81089 19.1254 -1.73171 5.81089 19.1254 -1.73171
277 1 6.74789 17.4899 -0.0814417 6.74789 17.4899 -0.0814417
278 2 8.63641 17.4963 1.56463 8.63641 17.4963 1.56463
279 2 8.66203 17.4835 -1.69742 8.66203 17.4835 -1.69742
280 1 9.59987 19.1365 -0.06535 9.59987 19.1365 -0.06535
281 2 11.4902 19.1473 1.57858 11.4902 19.1473 1.57858
282 2 11.5123 19.1257 -1.68345 11.5123 19.1257 -1.68345
283 1 12.4519 17.4899 -0.0350512 12.4519 17.4899 -0.0350512
284 2 14.3455 17.4975 1.60511 14.3455 17.4975 1.60511
285 2 14.3611 17.4823 -1.65699 14.3611 17.4823 -1.65699
286 1 15.304 19.1365 -0.0289852 15.304 19.1365 -0.0289852
287 2 17.2024 19.1489 1.60561 17.2024 19.1489 1.60561
288 2 17.2085 19.1241 -1.65647 17.2085 19.1241 -1.65647
289 1 18.1561 17.4899 -0.0110964 18.1561 17.4899 -0.0110964
290 2 20.0587 17.5005 1.61861 20.0587 17.5005 1.61861
291 2 20.0564 17.4792 -1.64349 20.0564 17.4792 -1.64349
292 1 21.0083 19.1365 -0.0238146 21.0083 19.1365 -0.0238146
293 2 22.9163 19.1517 1.59937 22.9163 19.1517 1.59937
294 2 22.903 19.1211 -1.66263 22.903 19.1211 -1.66263
295 1 23.8604 17.4898 -0.0200174 23.8604 17.4898 -0.0200174
296 2 25.7718 17.5043 1.59926 25.7718 17.5043 1.59926
297 2 25.7518 17.4753 -1.66273 25.7518 17.4753 -1.66273
298 1 26.7125 19.1363 -0.0522375 26.7125 19.1363 -0.0522375
299 2 28.6277 19.1548 1.56248 28.6277 19.1548 1.56248
300 2 28.6 19.1177 -1.69937 28.6 19.1177 -1.69937
301 1 29.5645 17.4897 -0.0577686 29.5645 17.4897 -0.0577686
302 2 31.4807 17.5073 1.55582 31.4807 17.5073 1.55582
303 2 31.451 17.472 -1.70604 31.451 17.472 -1.70604
304 1 32.4165 19.1362 -0.101576 32.4165 19.1362 -0.101576
305 2 34.3329 19.1567 1.51171 34.3329 19.1567 1.51171
306 2 34.3027 19.1155 -1.75008 34.3027 19.1155 -1.75008
307 1 35.2685 17.4896 -0.107113 35.2685 17.4896 -0.107113
308 2 37.1832 17.5078 1.50826 37.1832 17.5078 1.50826
309 2 37.1564 17.4713 -1.75361 37.1564 17.4713 -1.75361
310 1 38.1204 19.1361 -0.148939 38.1204 19.1361 -0.148939
311 2 40.0314 19.1562 1.47083 40.0314 19.1562 1.47083
312 2 40.0121 19.1159 -1.79105 40.0121 19.1159 -1.79105
313 1 40.9725 17.4896 -0.145243 40.9725 17.4896 -0.145243
314 2 42.88 17.5054 1.47874 42.88 17.5054 1.47874
315 2 42.8677 17.4738 -1.78329 42.8677 17.4738 -1.78329
316 1 43.8245 19.1361 -0.171828 43.8245 19.1361 -0.171828
317 2 45.7258 19.1534 1.45939 45.7258 19.1534 1.45939
318 2 45.7259 19.1189 -1.80263 45.7259 19.1189 -1.80263
319 1 46.6765 17.4896 -0.154019 46.6765 17.4896 -0.154019
320 2 48.5742 17.5012 1.48148 48.5742 17.5012 1.48148
321 2 48.5815 17.4782 -1.78063 48.5815 17.4782 -1.78063
322 1 49.5285 19.1363 -0.159068 49.5285 19.1363 -0.159068
323 2 51.4205 19.1498 1.48301 51.4205 19.1498 1.48301
324 2 51.4392 19.1228 -1.77903 51.4392 19.1228 -1.77903
325 1 1.04397 20.7829 -0.156197 1.04397 20.7829 -0.156197
326 2 2.93196 20.7986 1.49045 2.93196 20.7986 1.49045
327 2 2.95861 20.7672 -1.77148 2.95861 20.7672 -1.77148
328 1 3.89595 22.4295 -0.14857 3.89595 22.4295 -0.14857
329 2 5.78216 22.4474 1.50006 5.78216 22.4474 1.50006
330 2 5.81236 22.4117 -1.76179 5.81236 22.4117 -1.76179
331 1 6.74789 20.7831 -0.103899 6.74789 20.7831 -0.103899
332 2 8.63558 20.7974 1.54305 8.63558 20.7974 1.54305
333 2 8.66285 20.7687 -1.71889 8.66285 20.7687 -1.71889
334 1 9.59989 22.4297 -0.0944858 9.59989 22.4297 -0.0944858
335 2 11.4897 22.4469 1.54993 11.4897 22.4469 1.54993
336 2 11.5128 22.4124 -1.71198 11.5128 22.4124 -1.71198
337 1 12.4519 20.7831 -0.0568584 12.4519 20.7831 -0.0568584
338 2 14.3459 20.7977 1.58284 14.3459 20.7977 1.58284
339 2 14.3607 20.7684 -1.67918 14.3607 20.7684 -1.67918
340 1 15.304 22.4297 -0.0586292 15.304 22.4297 -0.0586292
341 2 17.2026 22.4471 1.57556 17.2026 22.4471 1.57556
342 2 17.2082 22.4122 -1.68642 17.2082 22.4122 -1.68642
343 1 18.1561 20.7831 -0.0361579 18.1561 20.7831 -0.0361579
344 2 20.0598 20.7992 1.59214 20.0598 20.7992 1.59214
345 2 20.0553 20.7668 -1.66987 20.0553 20.7668 -1.66987
346 1 21.0083 22.4296 -0.0565786 21.0083 22.4296 -0.0565786
347 2 22.9171 22.4481 1.56558 22.9171 22.4481 1.56558
348 2 22.9022 22.4109 -1.69635 22.9022 22.4109 -1.69635
349 1 23.8604 20.783 -0.0509915 23.8604 20.783 -0.0509915
350 2 25.7732 20.8015 1.56656 25.7732 20.8015 1.56656
351 2 25.7503 20.7643 -1.69533 25.7503 20.7643 -1.69533
352 1 26.7124 22.4294 -0.0898844 26.7124 22.4294 -0.0898844
353 2 28.6285 22.4497 1.52368 28.6285 22.4497 1.52368
354 2 28.5989 22.4089 -1.73812 28.5989 22.4089 -1.73812
355 1 29.5644 20.7828 -0.0952598 29.5644 20.7828 -0.0952598
356 2 31.4815 20.8038 1.51719 31.4815 20.8038 1.51719
357 2 31.45 20.7617 -1.74457 31.45 20.7617 -1.74457
358 1 32.4164 22.4291 -0.144191 32.4164 22.4291 -0.144191
359 2 34.3331 22.4513 1.46864 34.3331 22.4513 1.46864
360 2 34.3022 22.407 -1.7931 34.3022 22.407 -1.7931
361 1 35.2684 20.7826 -0.148818 35.2684 20.7826 -0.148818
362 2 37.1827 20.8048 1.46699 37.1827 20.8048 1.46699
363 2 37.1567 20.7604 -1.7948 37.1567 20.7604 -1.7948
364 1 38.1203 22.429 -0.193927 38.1203 22.429 -0.193927
365 2 40.0304 22.4517 1.42687 40.0304 22.4517 1.42687
366 2 40.013 22.4064 -1.83496 40.013 22.4064 -1.83496
367 1 40.9724 20.7825 -0.186115 40.9724 20.7825 -0.186115
368 2 42.8779 20.8037 1.44008 42.8779 20.8037 1.44008
369 2 42.8696 20.7615 -1.82183 42.8696 20.7615 -1.82183
370 1 43.8244 22.4291 -0.214656 43.8244 22.4291 -0.214656
371 2 45.7237 22.4506 1.41886 45.7237 22.4506 1.41886
372 2 45.7279 22.4076 -1.84304 45.7279 22.4076 -1.84304
373 1 46.6765 20.7827 -0.188984 46.6765 20.7827 -0.188984
374 2 48.5716 20.8011 1.44951 48.5716 20.8011 1.44951
375 2 48.5842 20.7644 -1.81245 48.5842 20.7644 -1.81245
376 1 49.5285 22.4293 -0.196348 49.5285 22.4293 -0.196348
377 2 51.4184 22.4488 1.44818 51.4184 22.4488 1.44818
378 2 51.4414 22.4099 -1.81369 51.4414 22.4099 -1.81369
379 1 1.04402 24.0759 -0.195721 1.04402 24.0759 -0.195721
380 2 2.93038 24.0965 1.45272 2.93038 24.0965 1.45272
381 2 2.96028 24.0554 -1.80907 2.96028 24.0554 -1.80907
382 1 3.89603 25.7225 -0.190246 3.89603 25.7225 -0.190246
383 2 5.78106 25.7438 1.45966 5.78106 25.7438 1.45966
384 2 5.8136 25.7012 -1.80208 5.8136 25.7012 -1.80208
385 1 6.74794 24.0761 -0.140107 6.74794 24.0761 -0.140107
386 2 8.63459 24.0958 1.50795 8.63459 24.0958 1.50795
387 2 8.66393 24.0565 -1.75386 8.66393 24.0565 -1.75386
388 1 9.59996 25.7227 -0.13426 9.59996 25.7227 -0.13426
389 2 11.4888 25.7431 1.5112 11.4888 25.7431 1.5112
390 2 11.5138 25.7022 -1.75063 11.5138 25.7022 -1.75063
391 1 12.4519 24.0762 -0.0917093 12.4519 24.0762 -0.0917093
392 2 14.3454 24.0952 1.54847 14.3454 24.0952 1.54847
393 2 14.3613 24.0572 -1.71345 14.3613 24.0572 -1.71345
394 1 15.304 25.7227 -0.097105 15.304 25.7227 -0.097105
395 2 17.2019 25.7421 1.53785 17.2019 25.7421 1.53785
396 2 17.2089 25.7033 -1.72409 17.2089 25.7033 -1.72409
397 1 18.1561 24.0762 -0.0714738 18.1561 24.0762 -0.0714738
398 2 20.0598 24.0949 1.55674 20.0598 24.0949 1.55674
399 2 20.0552 24.0573 -1.70523 20.0552 24.0573 -1.70523
400 1 21.0082 25.7226 -0.0946609 21.0082 25.7226 -0.0946609
401 2 22.9168 25.7412 1.52781 22.9168 25.7412 1.52781
402 2 22.9024 25.7039 -1.73414 22.9024 25.7039 -1.73414
403 1 23.8603 24.076 -0.0885484 23.8603 24.076 -0.0885484
404 2 25.7736 24.0953 1.52842 25.7736 24.0953 1.52842
405 2 25.7498 24.0565 -1.73345 25.7498 24.0565 -1.73345
406 1 26.7123 25.7224 -0.129097 26.7123 25.7224 -0.129097
407 2 28.6286 25.741 1.48425 28.6286 25.741 1.48425
408 2 28.5987 25.7036 -1.77758 28.5987 25.7036 -1.77758
409 1 29.5643 24.0757 -0.136489 29.5643 24.0757 -0.136489
410 2 31.4819 24.0964 1.4753 31.4819 24.0964 1.4753
411 2 31.4493 24.055 -1.78646 31.4493 24.055 -1.78646
412 1 32.4162 25.7221 -0.186056 32.4162 25.7221 -0.186056
413 2 34.3333 25.7418 1.42646 34.3333 25.7418 1.42646
414 2 34.3019 25.7023 -1.83533 34.3019 25.7023 -1.83533
415 1 35.2683 24.0755 -0.193654 35.2683 24.0755 -0.193654
416 2 37.1825 24.0975 1.4222 37.1825 24.0975 1.4222
417 2 37.1567 24.0535 -1.83958 37.1567 24.0535 -1.83958
418 1 38.1202 25.722 -0.238485 38.1202 25.722 -0.238485
419 2 40.0301 25.743 1.38257 40.0301 25.743 1.38257
420 2 40.0131 25.701 -1.8793 40.0131 25.701 -1.8793
421 1 40.9723 24.0755 -0.232078 40.9723 24.0755 -0.232078
422 2 42.8768 24.0979 1.39535 42.8768 24.0979 1.39535
423 2 42.8706 24.0531 -1.86651 42.8706 24.0531 -1.86651
424 1 43.8244 25.722 -0.260014 43.8244 25.722 -0.260014
425 2 45.7228 25.7438 1.37454 45.7228 25.7438 1.37454
426 2 45.7288 25.7004 -1.88735 45.7288 25.7004 -1.88735
427 1 46.6765 24.0756 -0.232618 46.6765 24.0756 -0.232618
428 2 48.5698 24.0974 1.40784 48.5698 24.0974 1.40784
429 2 48.5859 24.054 -1.85402 48.5859 24.054 -1.85402
430 1 49.5286 25.7222 -0.240314 49.5286 25.7222 -0.240314
431 2 51.4171 25.7441 1.40562 51.4171 25.7441 1.40562
432 2 51.4427 25.7005 -1.85618 51.4427 25.7005 -1.85618
433 1 1.0441 27.3688 -0.239826 1.0441 27.3688 -0.239826
434 2 2.92965 27.3905 1.40951 2.92965 27.3905 1.40951
435 2 2.96119 27.3473 -1.85223 2.96119 27.3473 -1.85223
436 1 3.89613 29.0155 -0.234028 3.89613 29.0155 -0.234028
437 2 5.78054 29.0364 1.41658 5.78054 29.0364 1.41658
438 2 5.81434 28.9946 -1.84516 5.81434 28.9946 -1.84516
439 1 6.74804 27.3691 -0.183282 6.74804 27.3691 -0.183282
440 2 8.63366 27.3904 1.4659 8.63366 27.3904 1.4659
441 2 8.66504 27.3478 -1.79585 8.66504 27.3478 -1.79585
442 1 9.60006 29.0156 -0.177391 9.60006 29.0156 -0.177391
443 2 11.4877 29.0358 1.4694 11.4877 29.0358 1.4694
444 2 11.515 28.9955 -1.79242 11.515 28.9955 -1.79242
445 1 12.452 27.3692 -0.133174 12.452 27.3692 -0.133174
446 2 14.3443 27.3892 1.5083 14.3443 27.3892 1.5083
447 2 14.3625 27.3492 -1.75359 14.3625 27.3492 -1.75359
448 1 15.3041 29.0157 -0.13765 15.3041 29.0157 -0.13765
449 2 17.2005 29.0338 1.499 17.2005 29.0338 1.499
450 2 17.2104 28.9975 -1.76298 17.2104 28.9975 -1.76298
451 1 18.1561 27.3692 -0.110765 18.1561 27.3692 -0.110765
452 2 20.0588 27.3874 1.5186 20.0588 27.3874 1.5186
453 2 20.0562 27.3508 -1.74338 20.0562 27.3508 -1.74338
454 1 21.0082 29.0156 -0.131744 21.0082 29.0156 -0.131744
455 2 22.9155 29.0313 1.49223 22.9155 29.0313 1.49223
456 2 22.9037 28.9997 -1.76979 22.9037 28.9997 -1.76979
457 1 23.8603 27.369 -0.126274 23.8603 27.369 -0.126274
458 2 25.773 27.3859 1.49133 25.773 27.3859 1.49133
459 2 25.7503 27.3519 -1.77061 25.7503 27.3519 -1.77061
460 1 26.7123 29.0154 -0.163553 26.7123 29.0154 -0.163553
461 2 28.6279 29.0295 1.45062 28.6279 29.0295 1.45062
462 2 28.5993 29.0012 -1.81133 28.5993 29.0012 -1.81133
463 1 29.5643 27.3688 -0.174409 29.5643 27.3688 -0.174409
464 2 31.4819 27.3856 1.43739 31.4819 27.3856 1.43739
465 2 31.4493 27.3519 -1.82446 31.4493 27.3519 -1.82446
466 1 32.4162 29.0152 -0.220166 32.4162 29.0152 -0.220166
467 2 34.3332 29.0292 1.39234 34.3332 29.0292 1.39234
468 2 34.3018 29.0011 -1.86957 34.3018 29.0011 -1.86957
469 1 35.2682 27.3686 -0.233616 35.2682 27.3686 -0.233616
470 2 37.1826 27.3865 1.38202 37.1826 27.3865 1.38202
471 2 37.1564 27.3507 -1.87986 37.1564 27.3507 -1.87986
472 1 38.1202 29.0151 -0.274692 38.1202 29.0151 -0.274692
473 2 40.0305 29.0307 1.34589 40.0305 29.0307 1.34589
474 2 40.0126 28.9995 -1.91608 40.0126 28.9995 -1.91608
475 1 40.9723 27.3685 -0.274555 40.9723 27.3685 -0.274555
476 2 42.8767 27.3881 1.35295 42.8767 27.3881 1.35295
477 2 42.8707 27.349 -1.90898 42.8707 27.349 -1.90898
478 1 43.8244 29.0151 -0.299512 43.8244 29.0151 -0.299512
479 2 45.7232 29.0331 1.33463 45.7232 29.0331 1.33463
480 2 45.7285 28.9971 -1.92734 45.7285 28.9971 -1.92734
481 1 46.6765 27.3686 -0.276612 46.6765 27.3686 -0.276612
482 2 48.5694 27.3896 1.36439 48.5694 27.3896 1.36439
483 2 48.5865 27.3477 -1.89747 48.5865 27.3477 -1.89747
484 1 49.5286 29.0152 -0.282729 49.5286 29.0152 -0.282729
485 2 51.4171 29.0354 1.36326 51.4171 29.0354 1.36326
486 2 51.4429 28.9952 -1.89856 51.4429 28.9952 -1.89856
487 1 1.04418 30.6619 -0.280439 1.04418 30.6619 -0.280439
488 2 2.92989 30.6807 1.36872 2.92989 30.6807 1.36872
489 2 2.96113 30.6431 -1.89308 2.96113 30.6431 -1.89308
490 1 3.89623 32.3085 -0.272128 3.89623 32.3085 -0.272128
491 2 5.78071 32.3254 1.37843 5.78071 32.3254 1.37843
492 2 5.81438 32.2917 -1.8834 5.81438 32.2917 -1.8834
493 1 6.74815 30.6621 -0.22559 6.74815 30.6621 -0.22559
494 2 8.63302 30.6813 1.42446 8.63302 30.6813 1.42446
495 2 8.66589 30.6429 -1.83733 8.66589 30.6429 -1.83733
496 1 9.60017 32.3087 -0.216352 9.60017 32.3087 -0.216352
497 2 11.4867 32.3251 1.43173 11.4867 32.3251 1.43173
498 2 11.5162 32.2922 -1.83016 11.5162 32.2922 -1.83016
499 1 12.4521 30.6622 -0.173973 12.4521 30.6622 -0.173973
500 2 14.3429 30.6799 1.46925 14.3429 30.6799 1.46925
501 2 14.364 30.6445 -1.79269 14.364 30.6445 -1.79269
502 1 15.3041 32.3087 -0.173549 15.3041 32.3087 -0.173549
503 2 17.1987 32.3228 1.46529 17.1987 32.3228 1.46529
504 2 17.2123 32.2946 -1.79676 17.2123 32.2946 -1.79676
505 1 18.1562 30.6622 -0.147559 18.1562 30.6622 -0.147559
506 2 20.0571 30.6771 1.48389 20.0571 30.6771 1.48389
507 2 20.058 30.6472 -1.77817 20.058 30.6472 -1.77817
508 1 21.0082 32.3086 -0.162121 21.0082 32.3086 -0.162121
509 2 22.9135 32.3193 1.46424 22.9135 32.3193 1.46424
510 2 22.9057 32.2979 -1.79788 22.9057 32.2979 -1.79788
511 1 23.8603 30.662 -0.158326 23.8603 30.662 -0.158326
512 2 25.7715 30.6741 1.46101 25.7715 30.6741 1.46101
513 2 25.7517 30.6498 -1.80104 25.7517 30.6498 -1.80104
514 1 26.7123 32.3085 -0.18819 26.7123 32.3085 -0.18819
515 2 28.6264 32.3161 1.42774 28.6264 32.3161 1.42774
516 2 28.6008 32.3009 -1.83432 28.6008 32.3009 -1.83432
517 1 29.5642 30.6618 -0.203127 29.5642 30.6618 -0.203127
518 2 31.4812 30.6723 1.40945 31.4812 30.6723 1.40945
519 2 31.4499 30.6514 -1.85252 31.4499 30.6514 -1.85252
520 1 32.4162 32.3084 -0.241338 32.4162 32.3084 -0.241338
521 2 34.3329 32.3147 1.3716 34.3329 32.3147 1.3716
522 2 34.3021 32.302 -1.89042 34.3021 32.302 -1.89042
523 1 35.2681 30.6617 -0.262088 35.2681 30.6617 -0.262088
524 2 37.1829 30.6726 1.3532 37.1829 30.6726 1.3532
525 2 37.1561 30.6508 -1.90879 37.1561 30.6508 -1.90879
526 1 38.1201 32.3083 -0.29665 38.1201 32.3083 -0.29665
527 2 40.0313 32.3161 1.32291 40.0313 32.3161 1.32291
528 2 40.0117 32.3005 -1.93917 40.0117 32.3005 -1.93917
529 1 40.9722 30.6616 -0.30609 40.9722 30.6616 -0.30609
530 2 42.8776 30.675 1.32038 42.8776 30.675 1.32038
531 2 42.8698 30.6484 -1.94167 42.8698 30.6484 -1.94167
532 1 43.8244 32.3083 -0.326394 43.8244 32.3083 -0.326394
533 2 45.7247 32.3196 1.30603 45.7247 32.3196 1.30603
534 2 45.727 32.297 -1.95606 45.727 32.297 -1.95606
535 1 46.6765 30.6617 -0.312995 46.6765 30.6617 -0.312995
536 2 48.5702 30.6783 1.32706 48.5702 30.6783 1.32706