LAMMPS (10 Sep 2025 - Development - patch_10Sep2025-24-gccca772dc4)
Reading data file ...
  orthogonal box = (0.80341777 0.80582001 -10) to (52.214187 50.210395 10)
  2 by 2 by 1 MPI processor grid
  reading atoms ...
  810 atoms
  reading velocities ...
  810 velocities
  read_data CPU = 0.011 seconds
WARNING: Using compute temp/deform with inconsistent fix deform remap option (src/compute_temp_deform.cpp:71)
Neighbor list info ...
  update: every = 10 steps, delay = 0 steps, check = yes
  max neighbors/atom: 2000, page size: 100000
  master list distance cutoff = 6.68
  ghost atom cutoff = 6.68
  binsize = 3.34, bins = 16 15 6
  1 neighbor lists, perpetual/occasional/extra = 1 0 0
  (1) pair tersoff, perpetual
      attributes: full, newton on
      pair build: full/bin/atomonly
      stencil: full/bin/3d
      bin: standard
Setting up Verlet run ...
  Unit style    : metal
  Current step  : 0
  Time step     : 0.001
Per MPI rank memory allocation (min/avg/max) = 3.083 | 3.083 | 3.083 Mbytes
   Step         PotEng         KinEng         TotEng          Temp            Lx             Ly             Lz            Pxx            Pyy      
         0  -4100.2054      32.255317     -4067.9501      308.4524       51.410769      49.404575      20             405.20313      268.50363    
       100  -4100.1331      30.941602     -4069.1915      295.88955      51.411284      49.404575      20             444.2084       551.09234    
       200  -4101.686       31.269502     -4070.4165      299.02521      51.411798      49.404575      20             162.29087      874.79772    
       300  -4101.3292      30.568049     -4070.7612      292.31733      51.412312      49.404575      20             252.71964      789.77001    
       400  -4100.6085      29.964254     -4070.6443      286.54333      51.412826      49.404575      20             278.2843       64.002478    
       500  -4101.6197      31.532231     -4070.0874      301.53764      51.41334       49.404575      20             615.51162      406.44147    
       600  -4101.4464      32.420236     -4069.0262      310.02949      51.413854      49.404575      20             253.13037      735.90979    
       700  -4099.3766      31.386142     -4067.9904      300.14062      51.414368      49.404575      20             39.574221      787.97106    
       800  -4100.1432      33.136045     -4067.0071      316.87466      51.414882      49.404575      20             59.668922      247.06722    
       900  -4100.9459      32.493959     -4068.452       310.73449      51.415396      49.404575      20             801.84055      444.06589    
      1000  -4101.1255      30.640137     -4070.4853      293.0067       51.415911      49.404575      20             380.03644      495.24551    
      1100  -4101.9591      31.015588     -4070.9435      296.59707      51.416425      49.404575      20            -230.55681      721.12669    
      1200  -4101.4788      31.469561     -4070.0092      300.93835      51.416939      49.404575      20             45.116318      293.98338    
      1300  -4100.7472      32.527986     -4068.2192      311.05989      51.417453      49.404575      20             698.97232      511.44591    
      1400  -4100.7034      32.893588     -4067.8098      314.55609      51.417967      49.404575      20             443.88859      627.33199    
      1500  -4101.1725      31.119757     -4070.0527      297.59322      51.418481      49.404575      20            -195.65108      468.23552    
      1600  -4102.5782      31.404714     -4071.1735      300.31822      51.418995      49.404575      20            -45.352408      545.89646    
      1700  -4102.8059      31.995664     -4070.8102      305.96938      51.419509      49.404575      20             523.79671      509.00463    
      1800  -4100.512       30.57792      -4069.9341      292.41172      51.420023      49.404575      20             566.8051       353.27267    
      1900  -4101.3449      32.915055     -4068.4298      314.76136      51.420538      49.404575      20            -79.140143      318.71898    
      2000  -4101.9134      33.043982     -4068.8694      315.99427      51.421052      49.404575      20            -13.164566      838.45921    
      2100  -4102.6696      31.862762     -4070.8068      304.69846      51.421566      49.404575      20             397.68826      467.87894    
      2200  -4101.1832      29.673915     -4071.5093      283.76687      51.42208       49.404575      20             400.34572      187.55098    
      2300  -4102.1515      31.29161      -4070.8599      299.23662      51.422594      49.404575      20            -9.0111045      95.115146    
      2400  -4101.8031      31.806779     -4069.9963      304.16311      51.423108      49.404575      20             142.62258      884.1794     
      2500  -4101.1454      32.369601     -4068.7758      309.54528      51.423622      49.404575      20             381.32236      719.30045    
      2600  -4101.483       32.98344      -4068.4996      315.41532      51.424136      49.404575      20             385.09284      149.4421     
      2700  -4102.5641      31.491322     -4071.0728      301.14644      51.42465       49.404575      20             202.51901      154.82397    
      2800  -4102.3593      30.744439     -4071.6148      294.00411      51.425164      49.404575      20             175.87982      967.32095    
      2900  -4101.6623      31.535048     -4070.1272      301.56458      51.425679      49.404575      20             114.88358      591.48525    
      3000  -4100.2201      31.176506     -4069.0436      298.1359       51.426193      49.404575      20             180.57097      327.56932    
      3100  -4101.1391      32.273813     -4068.8652      308.62927      51.426707      49.404575      20             513.87633      110.76716    
      3200  -4102.0317      31.790456     -4070.2412      304.00701      51.427221      49.404575      20             108.90906      781.05217    
      3300  -4102.1036      30.159057     -4071.9445      288.40621      51.427735      49.404575      20            -109.72935      514.247      
      3400  -4101.919       30.52361      -4071.3954      291.89237      51.428249      49.404575      20            -245.41953      334.91923    
      3500  -4101.1779      31.184972     -4069.9929      298.21686      51.428763      49.404575      20             522.80121      246.86721    
      3600  -4100.4593      30.874699     -4069.5846      295.24977      51.429277      49.404575      20             270.04122      534.10728    
      3700  -4101.6368      32.330374     -4069.3065      309.17016      51.429791      49.404575      20            -159.92029      530.36788    
      3800  -4101.1837      31.663175     -4069.5205      302.78984      51.430306      49.404575      20            -333.99244      344.74875    
      3900  -4101.1385      29.756867     -4071.3817      284.56013      51.43082       49.404575      20             459.61495      424.61824    
      4000  -4102.0248      29.813028     -4072.2118      285.09719      51.431334      49.404575      20             333.52501      250.92601    
      4100  -4101.681       31.037612     -4070.6434      296.80769      51.431848      49.404575      20            -73.674944      319.72267    
      4200  -4100.365       31.158004     -4069.207       297.95897      51.432362      49.404575      20            -317.53996      497.59007    
      4300  -4101.2153      31.934261     -4069.2811      305.38219      51.432876      49.404575      20             250.46074      653.53792    
      4400  -4101.0578      30.978945     -4070.0788      296.24666      51.43339       49.404575      20             246.67779      33.194535    
      4500  -4101.702       30.711618     -4070.9903      293.69026      51.433904      49.404575      20            -199.66139      49.011798    
      4600  -4101.3115      30.534311     -4070.7772      291.99469      51.434418      49.404575      20            -333.16488      410.6827     
      4700  -4099.4866      30.76871      -4068.7179      294.23622      51.434933      49.404575      20            -112.85305      882.40486    
      4800  -4099.6449      31.835462     -4067.8095      304.43739      51.435447      49.404575      20             261.78788     -29.540196    
      4900  -4099.2719      30.544571     -4068.7274      292.09281      51.435961      49.404575      20            -102.8919      -54.787354    
      5000  -4101.4144      31.076272     -4070.3382      297.17738      51.436475      49.404575      20            -191.36316      487.04718    
      5100  -4101.6632      30.514703     -4071.1485      291.80719      51.436989      49.404575      20            -211.50868      805.97402    
      5200  -4101.001       30.371616     -4070.6294      290.43887      51.437503      49.404575      20            -164.71383     -7.5040297    
      5300  -4100.3793      30.982677     -4069.3967      296.28235      51.438017      49.404575      20            -191.42078      69.12249     
      5400  -4100.5564      31.739674     -4068.8167      303.52139      51.438531      49.404575      20             162.72773      479.90008    
      5500  -4100.8449      31.456678     -4069.3882      300.81514      51.439045      49.404575      20            -385.75954      791.90791    
      5600  -4101.639       29.898889     -4071.7401      285.91826      51.439559      49.404575      20            -344.87598      94.46174     
      5700  -4101.9097      30.348663     -4071.561       290.21937      51.440074      49.404575      20            -282.93918     -56.093103    
      5800  -4101.3985      31.480734     -4069.9177      301.04519      51.440588      49.404575      20             414.5826       357.04007    
      5900  -4101.088       31.864753     -4069.2233      304.7175       51.441102      49.404575      20            -323.91815      738.53935    
      6000  -4101.697       32.477927     -4069.219       310.58118      51.441616      49.404575      20            -441.31254      356.75908    
      6100  -4101.8641      31.463094     -4070.401       300.8765       51.44213       49.404575      20            -180.68985      503.98686    
      6200  -4102.5219      30.619101     -4071.9028      292.80553      51.442644      49.404575      20             636.36925      414.46491    
      6300  -4102.6245      31.67289      -4070.9516      302.88275      51.443158      49.404575      20            -142.72436      388.94563    
      6400  -4102.2079      32.298911     -4069.909       308.86928      51.443672      49.404575      20            -617.04506      623.30756    
      6500  -4102.1509      31.915518     -4070.2354      305.20295      51.444186      49.404575      20             38.834689      817.70045    
      6600  -4102.474       31.76933      -4070.7047      303.80498      51.444701      49.404575      20             388.38611      522.60022    
      6700  -4101.8779      31.715237     -4070.1627      303.2877       51.445215      49.404575      20             4.3587235      251.4908     
      6800  -4100.9625      32.632334     -4068.3302      312.05776      51.445729      49.404575      20            -420.24076      639.20601    
      6900  -4101.2462      33.262951     -4067.9833      318.08824      51.446243      49.404575      20             91.020619      1139.7911    
      7000  -4101.7747      32.423435     -4069.3512      310.06009      51.446757      49.404575      20             244.55937      727.46229    
      7100  -4101.8482      31.921401     -4069.9268      305.25922      51.447271      49.404575      20             80.898065      35.517437    
      7200  -4102.1738      32.281284     -4069.8925      308.70072      51.447785      49.404575      20            -137.17096      568.05115    
      7300  -4101.9307      32.2181       -4069.7126      308.0965       51.448299      49.404575      20             82.753952      1136.1642    
      7400  -4100.8205      31.520627     -4069.2999      301.42668      51.448813      49.404575      20             134.21435      704.90143    
      7500  -4101.1723      31.921989     -4069.2503      305.26484      51.449328      49.404575      20             101.93924      120.44804    
      7600  -4100.9329      30.276298     -4070.6567      289.52736      51.449842      49.404575      20             71.663659      578.12614    
      7700  -4101.7308      30.738585     -4070.9922      293.94813      51.450356      49.404575      20             212.9718       1236.2425    
      7800  -4100.4961      30.381322     -4070.1148      290.53168      51.45087       49.404575      20            -252.63146      711.96837    
      7900  -4100.8997      32.851595     -4068.0481      314.15451      51.451384      49.404575      20             124.83899      364.39883    
      8000  -4099.5451      31.654484     -4067.8907      302.70673      51.451898      49.404575      20             433.74613      637.50458    
      8100  -4100.1397      30.53562      -4069.6041      292.00721      51.452412      49.404575      20             183.13934      1191.4273    
      8200  -4101.8976      30.584662     -4071.313       292.4762       51.452926      49.404575      20            -376.67777      705.98692    
      8300  -4101.1873      30.354896     -4070.8324      290.27898      51.45344       49.404575      20             46.374783      387.81284    
      8400  -4100.8543      31.401449     -4069.4529      300.287        51.453955      49.404575      20             545.83293      774.58655    
      8500  -4100.9995      31.653748     -4069.3458      302.69969      51.454469      49.404575      20             162.54398      909.97009    
      8600  -4100.7992      29.962899     -4070.8363      286.53037      51.454983      49.404575      20            -427.85609      597.78417    
      8700  -4102.8407      30.438582     -4072.4021      291.07926      51.455497      49.404575      20            -351.20026      582.57604    
      8800  -4102.0378      30.688207     -4071.3496      293.46638      51.456011      49.404575      20             402.80587      629.13852    
      8900  -4100.6999      31.679151     -4069.0208      302.94262      51.456525      49.404575      20             51.494694      279.38325    
      9000  -4099.8898      30.86492      -4069.0249      295.15625      51.457039      49.404575      20            -376.99157      412.0312     
      9100  -4101.4181      31.874201     -4069.5439      304.80785      51.457553      49.404575      20            -246.08921      738.73543    
      9200  -4101.6829      31.262978     -4070.42        298.96282      51.458067      49.404575      20             281.85073      696.55423    
      9300  -4101.6905      30.29849      -4071.392       289.73958      51.458581      49.404575      20            -132.08409      36.558634    
      9400  -4101.9776      30.345002     -4071.6326      290.18436      51.459096      49.404575      20            -395.95695      224.37697    
      9500  -4101.0672      31.477847     -4069.5893      301.01758      51.45961       49.404575      20            -185.04189      769.60804    
      9600  -4100.9574      32.628242     -4068.3292      312.01862      51.460124      49.404575      20             26.833683      867.60525    
      9700  -4100.0652      31.034789     -4069.0304      296.78069      51.460638      49.404575      20            -139.47889      0.3766005    
      9800  -4101.3034      31.031747     -4070.2716      296.7516       51.461152      49.404575      20            -145.46639      164.34269    
      9900  -4102.1831      30.343066     -4071.84        290.16585      51.461666      49.404575      20             30.317334      742.49018    
     10000  -4103.1871      29.933651     -4073.2534      286.25069      51.46218       49.404575      20            -417.46005      552.45357    
     10100  -4102.5741      29.856614     -4072.7175      285.51399      51.462694      49.404575      20            -535.20201     -65.861731    
     10200  -4100.9289      30.686583     -4070.2423      293.45085      51.463208      49.404575      20            -0.54521741     282.65404    
     10300  -4101.2551      32.219001     -4069.0361      308.10512      51.463723      49.404575      20             184.66724      714.86037    
     10400  -4100.3299      31.348717     -4068.9811      299.78273      51.464237      49.404575      20            -476.71092      610.84929    
     10500  -4100.7257      30.440698     -4070.285       291.09949      51.464751      49.404575      20            -567.2766       259.5261     
     10600  -4101.9788      30.996813     -4070.982       296.41753      51.465265      49.404575      20             257.59608      382.43185    
     10700  -4102.3071      31.513805     -4070.7933      301.36144      51.465779      49.404575      20             68.655496      561.2584     
     10800  -4100.3671      31.234962     -4069.1321      298.69491      51.466293      49.404575      20            -532.29845      342.55197    
     10900  -4101.0379      33.041594     -4067.9963      315.97144      51.466807      49.404575      20            -522.72288      375.06967    
     11000  -4100.5672      32.21633      -4068.3509      308.07958      51.467321      49.404575      20             134.13039      529.17942    
     11100  -4102.3215      31.788617     -4070.5329      303.98943      51.467835      49.404575      20             5.7728486      310.01425    
     11200  -4100.6724      29.00049      -4071.6719      277.32701      51.46835       49.404575      20            -644.3982       80.928191    
     11300  -4101.4631      30.862593     -4070.6005      295.13401      51.468864      49.404575      20            -456.02574      516.86295    
     11400  -4102.4551      32.856949     -4069.5982      314.20571      51.469378      49.404575      20             136.18386      447.61632    
     11500  -4100.1015      31.204986     -4068.8965      298.40826      51.469892      49.404575      20            -87.148776      277.70729    
     11600  -4099.3814      31.137663     -4068.2438      297.76446      51.470406      49.404575      20            -403.23962      59.05309     
     11700  -4101.1799      32.681229     -4068.4987      312.52533      51.47092       49.404575      20            -380.21895      657.28133    
     11800  -4101.4609      31.291252     -4070.1696      299.2332       51.471434      49.404575      20             72.777181      566.88181    
     11900  -4101.1832      30.058403     -4071.1248      287.44366      51.471948      49.404575      20            -395.97441      32.455656    
     12000  -4102.0565      31.415032     -4070.6415      300.41689      51.472462      49.404575      20            -412.68512     -230.02708    
     12100  -4100.476       31.811729     -4068.6643      304.21044      51.472976      49.404575      20            -296.49217      746.83121    
     12200  -4100.8481      32.857476     -4067.9907      314.21075      51.473491      49.404575      20            -252.8954       746.93842    
     12300  -4099.3089      30.365644     -4068.9432      290.38176      51.474005      49.404575      20            -511.67087     -65.216992    
     12400  -4100.2186      30.852363     -4069.3662      295.03617      51.474519      49.404575      20            -113.64158     -128.86892    
     12500  -4101.3799      32.023233     -4069.3567      306.23301      51.475033      49.404575      20            -195.17238      661.98619    
     12600  -4100.7243      30.646871     -4070.0774      293.07109      51.475547      49.404575      20            -662.46237      444.75647    
     12700  -4101.4792      30.440856     -4071.0384      291.101        51.476061      49.404575      20            -959.18613      24.221866    
     12800  -4103.1822      30.563296     -4072.6189      292.27188      51.476575      49.404575      20            -48.570957     -244.12006    
     12900  -4101.9071      29.42002      -4072.4871      281.33891      51.477089      49.404575      20            -210.506        414.7672     
     13000  -4101.9758      31.90315      -4070.0726      305.08469      51.477603      49.404575      20            -826.01966      218.72061    
     13100  -4100.9719      31.669321     -4069.3025      302.84861      51.478118      49.404575      20            -972.84273      103.28884    
     13200  -4100.3296      31.35772      -4068.9718      299.86882      51.478632      49.404575      20            -13.855702      161.10272    
     13300  -4099.8768      30.374667     -4069.5021      290.46805      51.479146      49.404575      20             7.73233        294.52428    
     13400  -4100.5562      30.291512     -4070.2647      289.67285      51.47966       49.404575      20            -950.40309     -111.84003    
     13500  -4102.5489      31.352056     -4071.1968      299.81466      51.480174      49.404575      20            -835.00891      254.03297    
     13600  -4102.1628      30.860788     -4071.302       295.11675      51.480688      49.404575      20            -242.8537       464.21181    
     13700  -4101.8214      32.528285     -4069.2931      311.06275      51.481202      49.404575      20            -187.24025     -20.874971    
     13800  -4100.6106      31.834602     -4068.776       304.42917      51.481716      49.404575      20            -877.68535     -236.36364    
     13900  -4100.927       32.165098     -4068.7619      307.58965      51.48223       49.404575      20            -631.78496      462.81904    
     14000  -4101.1691      32.04807      -4069.121       306.47053      51.482745      49.404575      20            -324.38068      652.66456    
     14100  -4101.6497      30.728268     -4070.9214      293.84947      51.483259      49.404575      20            -539.37147     -172.5875     
     14200  -4101.8366      30.337485     -4071.4991      290.11248      51.483773      49.404575      20            -594.52533     -250.83367    
     14300  -4101.6749      31.176424     -4070.4984      298.13512      51.484287      49.404575      20            -293.41783      547.8133     
     14400  -4101.3337      32.883703     -4068.45        314.46155      51.484801      49.404575      20            -491.20617      895.96081    
     14500  -4099.3918      31.537494     -4067.8543      301.58797      51.485315      49.404575      20            -471.82271      37.672347    
     14600  -4100.898       32.179844     -4068.7182      307.73067      51.485829      49.404575      20            -554.28571      121.8373     
     14700  -4100.9099      31.000792     -4069.9091      296.45558      51.486343      49.404575      20            -114.13253      530.83711    
     14800  -4101.2183      30.826667     -4070.3916      294.79045      51.486857      49.404575      20            -561.86438      807.64416    
     14900  -4100.9162      31.103916     -4069.8122      297.44174      51.487372      49.404575      20            -681.30477      82.625747    
     15000  -4100.9743      31.880092     -4069.0942      304.86419      51.487886      49.404575      20            -102.10227      284.99181    
     15100  -4101.3228      32.98321      -4068.3396      315.41313      51.4884        49.404575      20            -61.840597      791.76036    
     15200  -4100.1512      31.875244     -4068.276       304.81783      51.488914      49.404575      20            -605.8905       809.58679    
     15300  -4100.1455      30.542137     -4069.6034      292.06953      51.489428      49.404575      20            -671.11294      320.92106    
     15400  -4102.0183      31.444317     -4070.5739      300.69694      51.489942      49.404575      20             57.152615      421.92563    
     15500  -4100.7008      29.280781     -4071.42        280.00739      51.490456      49.404575      20             67.423893      769.28796    
     15600  -4102.0605      30.978397     -4071.0821      296.24142      51.49097       49.404575      20            -655.42542      576.48349    
     15700  -4100.4465      31.711098     -4068.7354      303.24812      51.491484      49.404575      20            -650.38122      650.79087    
     15800  -4099.8034      31.656064     -4068.1473      302.72184      51.491998      49.404575      20             15.170294      853.35568    
     15900  -4101.8368      32.66984      -4069.1669      312.41641      51.492513      49.404575      20             9.9954217      569.7665     
     16000  -4100.9259      30.241042     -4070.6849      289.19022      51.493027      49.404575      20            -722.74787      311.11879    
     16100  -4102.088       31.332501     -4070.7555      299.62766      51.493541      49.404575      20            -769.30327      748.09915    
     16200  -4100.7158      30.623351     -4070.0925      292.84617      51.494055      49.404575      20            -54.574427      891.00067    
     16300  -4100.828       31.401576     -4069.4264      300.28821      51.494569      49.404575      20            -182.44735      447.7283     
     16400  -4100.6317      30.890216     -4069.7415      295.39816      51.495083      49.404575      20            -594.81042      76.663067    
     16500  -4101.5662      30.635103     -4070.9311      292.95856      51.495597      49.404575      20            -595.45319      755.03142    
     16600  -4102.8264      31.202695     -4071.6237      298.38635      51.496111      49.404575      20            -417.92082      959.75726    
     16700  -4100.8528      29.444325     -4071.4085      281.57133      51.496625      49.404575      20            -597.5599       296.82304    
     16800  -4100.7493      31.520282     -4069.229       301.42338      51.49714       49.404575      20            -516.42535      46.300465    
     16900  -4101.8472      33.659011     -4068.1881      321.8757       51.497654      49.404575      20            -268.10002      922.11178    
     17000  -4101.3931      32.114287     -4069.2788      307.10376      51.498168      49.404575      20            -384.17481      983.6942     
     17100  -4101.0776      30.236733     -4070.8408      289.14901      51.498682      49.404575      20            -730.00375      457.77049    
     17200  -4101.7894      30.85715      -4070.9323      295.08196      51.499196      49.404575      20            -534.57525      69.604353    
     17300  -4101.5777      31.414373     -4070.1633      300.41059      51.49971       49.404575      20            -157.77903      667.54116    
     17400  -4100.3         31.030418     -4069.2696      296.73889      51.500224      49.404575      20            -540.82044      737.08302    
     17500  -4100.2717      31.204521     -4069.0672      298.40381      51.500738      49.404575      20            -1008.6171      340.13583    
     17600  -4101.9159      32.484455     -4069.4314      310.64361      51.501252      49.404575      20            -548.95421      165.01217    
     17700  -4101.2953      31.131586     -4070.1637      297.70634      51.501767      49.404575      20             2.0617447      673.14786    
     17800  -4100.9488      30.394342     -4070.5544      290.65619      51.502281      49.404575      20            -756.55445      436.68974    
     17900  -4100.7712      30.844109     -4069.9271      294.95725      51.502795      49.404575      20            -1046.6052      258.63692    
     18000  -4100.6748      31.978552     -4068.6962      305.80574      51.503309      49.404575      20            -409.05807      506.89583    
     18100  -4099.4745      31.174941     -4068.2995      298.12094      51.503823      49.404575      20            -91.204843      730.72187    
     18200  -4100.179       30.879216     -4069.2998      295.29297      51.504337      49.404575      20            -865.57472      197.20051    
     18300  -4102.0435      30.734027     -4071.3095      293.90454      51.504851      49.404575      20            -1021.4477      284.24354    
     18400  -4100.9337      29.645422     -4071.2883      283.49439      51.505365      49.404575      20            -434.17493      585.68416    
     18500  -4100.8632      30.368305     -4070.4948      290.40721      51.505879      49.404575      20            -325.11896      381.5887     
     18600  -4099.8807      30.173939     -4069.7068      288.54852      51.506393      49.404575      20            -973.59437     -51.259372    
     18700  -4100.0817      30.927842     -4069.1539      295.75797      51.506908      49.404575      20            -796.17702      542.44475    
     18800  -4100.7367      31.736976     -4068.9997      303.49559      51.507422      49.404575      20            -308.67014      687.34133    
     18900  -4100.6609      30.86798      -4069.7929      295.18552      51.507936      49.404575      20            -517.1819       376.91833    
     19000  -4101.8916      30.127859     -4071.7638      288.10786      51.50845       49.404575      20            -846.61794     -176.97139    
     19100  -4102.7573      29.723907     -4073.0334      284.24494      51.508964      49.404575      20            -731.11115      601.45133    
     19200  -4103.4676      31.655242     -4071.8124      302.71398      51.509478      49.404575      20            -528.63713      694.65441    
     19300  -4100.4341      29.883247     -4070.5509      285.76867      51.509992      49.404575      20            -646.59471      244.0744     
     19400  -4101.1926      31.630471     -4069.5621      302.4771       51.510506      49.404575      20            -731.69526     -217.47487    
     19500  -4101.4484      32.549408     -4068.899       311.26474      51.51102       49.404575      20            -323.15401      820.94905    
     19600  -4100.7471      31.265631     -4069.4815      298.9882       51.511535      49.404575      20            -690.85323      824.40312    
     19700  -4101.3035      29.931972     -4071.3716      286.23462      51.512049      49.404575      20            -1117.2801      52.745606    
     19800  -4102.0644      30.337751     -4071.7266      290.11502      51.512563      49.404575      20            -627.39489     -270.42195    
     19900  -4101.4737      31.620052     -4069.8536      302.37747      51.513077      49.404575      20            -189.83508      569.23838    
     20000  -4100.404       31.695914     -4068.7081      303.10292      51.513591      49.404575      20            -798.27657      428.83179    
     20100  -4100.6582      31.765386     -4068.8928      303.76727      51.514105      49.404575      20            -1273.6176      382.51628    
     20200  -4100.9245      31.402204     -4069.5223      300.29422      51.514619      49.404575      20            -632.01278      112.22054    
     20300  -4101.6304      30.677505     -4070.9529      293.36404      51.515133      49.404575      20            -150.93513      284.70517    
     20400  -4100.8992      28.020754     -4072.8784      267.95796      51.515647      49.404575      20            -918.11061     -20.441993    
     20500  -4102.503       30.506476     -4071.9965      291.72852      51.516162      49.404575      20            -1298.8156      95.151847    
     20600  -4102.0721      31.52167      -4070.5504      301.43665      51.516676      49.404575      20            -776.2558       551.78753    
     20700  -4101.22        31.406708     -4069.8133      300.33729      51.51719       49.404575      20            -317.35021      106.61733    
     20800  -4100.8634      31.990945     -4068.8724      305.92425      51.517704      49.404575      20            -899.00274     -167.16477    
     20900  -4101.19        32.925104     -4068.2649      314.85746      51.518218      49.404575      20            -1146.5327      198.40883    
     21000  -4101.461       32.85637      -4068.6046      314.20017      51.518732      49.404575      20            -887.06128      615.45641    
     21100  -4100.955       30.232873     -4070.7221      289.1121       51.519246      49.404575      20            -584.87937      61.774493    
     21200  -4102.6043      31.459808     -4071.1445      300.84508      51.51976       49.404575      20            -941.8037      -340.28979    
     21300  -4100.9043      31.083134     -4069.8212      297.243        51.520274      49.404575      20            -1067.6249      262.60405    
     21400  -4101.0947      32.612606     -4068.4821      311.8691       51.520789      49.404575      20            -872.02821      723.54583    
     21500  -4100.7247      31.616555     -4069.1082      302.34402      51.521303      49.404575      20            -689.33572     -68.268422    
     21600  -4101.0376      31.380104     -4069.6575      300.08288      51.521817      49.404575      20            -836.60417     -198.7236     
     21700  -4101.9284      31.943077     -4069.9853      305.4665       51.522331      49.404575      20            -956.64209      78.116702    
     21800  -4101.1467      32.123229     -4069.0235      307.18927      51.522845      49.404575      20            -1000.0024      784.70345    
     21900  -4099.8592      32.333524     -4067.5257      309.20028      51.523359      49.404575      20            -849.5479       52.999652    
     22000  -4100.1356      32.085867     -4068.0497      306.83198      51.523873      49.404575      20            -790.80821     -404.95296    
     22100  -4101.3412      31.07632      -4070.2649      297.17784      51.524387      49.404575      20            -608.69933     -20.249326    
     22200  -4101.1118      30.522262     -4070.5895      291.87947      51.524901      49.404575      20            -1098.0941      710.15585    
     22300  -4099.5643      29.621577     -4069.9427      283.26637      51.525415      49.404575      20            -1262.7737      314.44599    
     22400  -4100.299       31.725088     -4068.5739      303.3819       51.52593       49.404575      20            -841.10905     -44.692223    
     22500  -4099.7996      30.959341     -4068.8403      296.05919      51.526444      49.404575      20            -218.1503       106.25511    
     22600  -4100.7979      31.428973     -4069.3689      300.55021      51.526958      49.404575      20            -689.32412      413.52757    
     22700  -4100.2717      30.816896     -4069.4548      294.69701      51.527472      49.404575      20            -1389.9128      510.95969    
     22800  -4100.3721      30.799775     -4069.5724      294.53329      51.527986      49.404575      20            -846.67542      419.66376    
     22900  -4102.3478      31.69944      -4070.6484      303.13663      51.5285        49.404575      20            -335.32043      354.87496    
     23000  -4102.7957      30.336509     -4072.4592      290.10315      51.529014      49.404575      20            -653.3865      -105.00381    
     23100  -4101.9741      30.200398     -4071.7737      288.80154      51.529528      49.404575      20            -1169.3983      408.96219    
     23200  -4101.3068      31.511227     -4069.7956      301.33678      51.530042      49.404575      20            -942.9238       671.73732    
     23300  -4100.0317      30.381969     -4069.6497      290.53788      51.530557      49.404575      20            -482.3375       649.15662    
     23400  -4101.4952      31.870662     -4069.6246      304.774        51.531071      49.404575      20            -579.9051      -44.50116     
     23500  -4100.6429      31.101358     -4069.5415      297.41727      51.531585      49.404575      20            -831.05169      359.66097    
     23600  -4100.6654      31.796952     -4068.8684      304.06913      51.532099      49.404575      20            -842.52446      849.24565    
     23700  -4099.2478      30.838778     -4068.409       294.90627      51.532613      49.404575      20            -594.08158      838.55739    
     23800  -4100.1418      31.2431       -4068.8987      298.77273      51.533127      49.404575      20            -550.64099      47.347353    
     23900  -4101.6536      30.667407     -4070.9862      293.26748      51.533641      49.404575      20            -634.81214      544.98817    
     24000  -4101.8016      30.229395     -4071.5722      289.07884      51.534155      49.404575      20            -687.84248      905.63187    
     24100  -4100.2628      29.721642     -4070.5412      284.22327      51.534669      49.404575      20            -885.86286      917.9925     
     24200  -4100.457       31.158824     -4069.2982      297.96682      51.535184      49.404575      20            -642.38899      47.478935    
     24300  -4100.8817      31.746773     -4069.1349      303.58928      51.535698      49.404575      20            -373.62133      423.96929    
     24400  -4100.5489      31.141937     -4069.4069      297.80532      51.536212      49.404575      20            -753.41301      833.15623    
     24500  -4101.0102      31.231166     -4069.779       298.65861      51.536726      49.404575      20            -1176.8772      876.77918    
     24600  -4099.926       29.002318     -4070.9236      277.3445       51.53724       49.404575      20            -740.54366      395.66175    
     24700  -4102.3953      29.738563     -4072.6567      284.38508      51.537754      49.404575      20            -260.82044      256.02436    
     24800  -4102.7612      31.101543     -4071.6597      297.41904      51.538268      49.404575      20            -742.16917      490.53642    
     24900  -4101.0553      31.069638     -4069.9856      297.11394      51.538782      49.404575      20            -1382.7195      663.11157    
     25000  -4100.9122      31.313529     -4069.5987      299.44623      51.539296      49.404575      20            -1129.1791      627.8969     
     25100  -4101.194       32.089807     -4069.1042      306.86966      51.53981       49.404575      20            -295.93074      533.32271    
     25200  -4100.991       31.812677     -4069.1783      304.21951      51.540325      49.404575      20            -523.86361      104.29719    
     25300  -4101.1508      30.734676     -4070.4161      293.91075      51.540839      49.404575      20            -1125.2181      356.39927    
     25400  -4101.9381      30.180636     -4071.7575      288.61256      51.541353      49.404575      20            -1394.351       915.75671    
     25500  -4102.5607      31.619292     -4070.9415      302.3702       51.541867      49.404575      20            -799.53415      417.78736    
     25600  -4100.6021      31.457303     -4069.1448      300.82112      51.542381      49.404575      20            -689.34657     -74.14821     
     25700  -4099.9004      30.960364     -4068.94        296.06898      51.542895      49.404575      20            -1008.3232      217.26389    
     25800  -4100.9516      31.638918     -4069.3127      302.55788      51.543409      49.404575      20            -1126.5988      659.83874    
     25900  -4101.3181      31.762854     -4069.5552      303.74306      51.543923      49.404575      20            -1089.554       754.83137    
     26000  -4102.1538      32.166717     -4069.9871      307.60513      51.544437      49.404575      20            -1121.3387     -134.29205    
     26100  -4101.5635      30.295371     -4071.2682      289.70976      51.544952      49.404575      20            -940.267       -37.761895    
     26200  -4102.3601      31.614238     -4070.7458      302.32187      51.545466      49.404575      20            -929.7091       609.10987    
     26300  -4101.1648      32.098307     -4069.0665      306.95094      51.54598       49.404575      20            -1478.2766      752.39905    
     26400  -4100.1552      31.919599     -4068.2356      305.24198      51.546494      49.404575      20            -1086.7287      117.70557    
     26500  -4099.9765      31.627214     -4068.3493      302.44596      51.547008      49.404575      20            -526.80647     -16.277132    
     26600  -4101.7509      30.745754     -4071.0051      294.01669      51.547522      49.404575      20            -724.82255      509.1479     
     26700  -4101.9627      30.200558     -4071.7622      288.80307      51.548036      49.404575      20            -1602.2948      531.61298    
     26800  -4102.1639      31.562575     -4070.6013      301.82782      51.54855       49.404575      20            -1324.5882      218.14241    
     26900  -4100.9873      31.796915     -4069.1904      304.06877      51.549064      49.404575      20            -721.78942      104.02896    
     27000  -4099.6246      31.544425     -4068.0802      301.65425      51.549579      49.404575      20            -565.07815      435.52947    
     27100  -4100.0205      31.934798     -4068.0857      305.38733      51.550093      49.404575      20            -1554.9071      343.93102    
     27200  -4101.4485      31.614639     -4069.8339      302.3257       51.550607      49.404575      20            -1496.5644      364.63324    
     27300  -4101.7978      29.931051     -4071.8667      286.22582      51.551121      49.404575      20            -733.84652      248.67789    
     27400  -4101.3809      30.323427     -4071.0574      289.97804      51.551635      49.404575      20            -758.67857      139.06688    
     27500  -4100.6487      31.233379     -4069.4153      298.67978      51.552149      49.404575      20            -1372.6391      162.60952    
     27600  -4100.3176      31.646922     -4068.6707      302.63442      51.552663      49.404575      20            -1295.0001      640.55141    
     27700  -4100.4086      31.958031     -4068.4506      305.6095       51.553177      49.404575      20            -746.21752      672.47652    
     27800  -4101.2282      30.542048     -4070.6862      292.06868      51.553691      49.404575      20            -911.67836      81.826833    
     27900  -4101.513       29.77726      -4071.7358      284.75514      51.554206      49.404575      20            -1258.3236     -159.71655    
     28000  -4101.531       30.505112     -4071.0258      291.71547      51.55472       49.404575      20            -1055.74        587.61543    
     28100  -4100.4903      30.801071     -4069.6893      294.54568      51.555234      49.404575      20            -862.3402       762.2114     
     28200  -4101.5821      32.480038     -4069.1021      310.60138      51.555748      49.404575      20            -1232.0442      50.590488    
     28300  -4099.8672      30.543996     -4069.3232      292.08731      51.556262      49.404575      20            -1008.4828     -230.13764    
     28400  -4101.6332      32.122273     -4069.511       307.18013      51.556776      49.404575      20            -1075.7012      635.56537    
     28500  -4100.2609      30.043539     -4070.2173      287.30152      51.55729       49.404575      20            -1039.7443      630.34586    
     28600  -4101.202       29.935969     -4071.2661      286.27285      51.557804      49.404575      20            -1513.1267      65.399321    
     28700  -4102.4347      30.701836     -4071.7329      293.59671      51.558318      49.404575      20            -976.54985     -333.10562    
     28800  -4100.7433      30.654702     -4070.0885      293.14598      51.558832      49.404575      20            -842.51817      473.1896     
     28900  -4100.7705      32.108703     -4068.6618      307.05035      51.559347      49.404575      20            -1150.978       489.71859    
     29000  -4100.2825      30.978849     -4069.3036      296.24574      51.559861      49.404575      20            -1686.2268      133.15299    
     29100  -4100.9161      31.084575     -4069.8316      297.25678      51.560375      49.404575      20            -977.26443     -155.55715    
     29200  -4100.7913      30.116356     -4070.6749      287.99786      51.560889      49.404575      20            -812.55131      150.64263    
     29300  -4101.5065      29.65491      -4071.8516      283.58513      51.561403      49.404575      20            -1361.6609      47.704845    
     29400  -4101.3413      30.117212     -4071.2241      288.00604      51.561917      49.404575      20            -1835.2974      75.599285    
     29500  -4099.738       30.594382     -4069.1436      292.56915      51.562431      49.404575      20            -966.66168      43.126932    
     29600  -4099.8847      31.585939     -4068.2987      302.05124      51.562945      49.404575      20            -674.93155      43.977591    
     29700  -4101.2929      32.244397     -4069.0485      308.34797      51.563459      49.404575      20            -1466.0649     -167.66546    
     29800  -4101.3004      30.999478     -4070.3009      296.44301      51.563974      49.404575      20            -1648.096       291.65565    
     29900  -4101.3401      30.218871     -4071.1212      288.9782       51.564488      49.404575      20            -994.91308      211.35589    
     30000  -4101.5385      29.955956     -4071.5825      286.46398      51.565002      49.404575      20            -876.71807      52.113521    
     30100  -4103.0734      32.32965      -4070.7438      309.16324      51.565516      49.404575      20            -1329.2336     -235.70658    
     30200  -4100.4964      31.348391     -4069.148       299.77961      51.56603       49.404575      20            -1629.0996      389.90189    
     30300  -4100.1249      32.024739     -4068.1001      306.24742      51.566544      49.404575      20            -994.56865      543.66241    
     30400  -4099.9685      31.266408     -4068.7021      298.99562      51.567058      49.404575      20            -900.74943      15.69277     
     30500  -4100.6855      29.966809     -4070.7187      286.56777      51.567572      49.404575      20            -1253.4584     -316.0152     
     30600  -4102.1428      30.402388     -4071.7404      290.73314      51.568086      49.404575      20            -1522.5629      281.36519    
     30700  -4101.0872      29.769687     -4071.3175      284.68272      51.568601      49.404575      20            -1274.0283      700.50246    
     30800  -4100.9956      30.650646     -4070.345       293.10719      51.569115      49.404575      20            -1254.988      -15.363063    
     30900  -4100.8513      31.151339     -4069.7         297.89524      51.569629      49.404575      20            -1155.4289     -358.6739     
     31000  -4102.1862      33.091172     -4069.0951      316.44555      51.570143      49.404575      20            -1143.7687      203.99995    
     31100  -4101.3114      32.706661     -4068.6048      312.76853      51.570657      49.404575      20            -1279.0169      805.04449    
     31200  -4100.3278      31.723209     -4068.6046      303.36393      51.571171      49.404575      20            -1401.1584      176.01037    
     31300  -4100.5225      30.687815     -4069.8347      293.46263      51.571685      49.404575      20            -1118.9462     -8.021045     
     31400  -4102.1208      30.818533     -4071.3023      294.71266      51.572199      49.404575      20            -839.40839      253.37857    
     31500  -4101.7196      30.424706     -4071.2949      290.94656      51.572713      49.404575      20            -1169.0666      562.59399    
     31600  -4101.1646      32.097783     -4069.0668      306.94593      51.573227      49.404575      20            -1584.7093      333.77811    
     31700  -4099.9199      32.134703     -4067.7852      307.29899      51.573742      49.404575      20            -1055.9203      435.98469    
     31800  -4100.1148      31.400622     -4068.7141      300.27909      51.574256      49.404575      20            -657.37131      461.90983    
     31900  -4100.8725      30.930111     -4069.9424      295.77967      51.57477       49.404575      20            -1257.5241      520.76634    
     32000  -4100.2902      30.216354     -4070.0739      288.95413      51.575284      49.404575      20            -1531.9737      434.91141    
     32100  -4100.4349      30.962957     -4069.472       296.09376      51.575798      49.404575      20            -1118.7029      506.6799     
     32200  -4101.2167      33.455561     -4067.7612      319.93014      51.576312      49.404575      20            -849.90592      582.33222    
     32300  -4099.9925      32.46262      -4067.5299      310.4348       51.576826      49.404575      20            -1134.8564      237.13976    
     32400  -4101.8577      32.542346     -4069.3153      311.19721      51.57734       49.404575      20            -1658.2935      628.89821    
     32500  -4101.3009      30.594567     -4070.7064      292.57091      51.577854      49.404575      20            -1257.4109      537.18713    
     32600  -4101.0504      30.525753     -4070.5246      291.91286      51.578369      49.404575      20            -897.47229      530.42586    
     32700  -4100.7714      31.359706     -4069.4116      299.88782      51.578883      49.404575      20            -1501.7887      41.696009    
     32800  -4100.5768      31.734439     -4068.8424      303.47133      51.579397      49.404575      20            -1535.3558      478.68189    
     32900  -4099.8511      29.833172     -4070.0179      285.28982      51.579911      49.404575      20            -1265.3421      675.34928    
     33000  -4102.4627      30.306218     -4072.1565      289.81348      51.580425      49.404575      20            -1269.5494      373.84925    
     33100  -4101.6595      30.504887     -4071.1546      291.71332      51.580939      49.404575      20            -1648.6346     -141.83846    
     33200  -4100.1611      30.477901     -4069.6832      291.45526      51.581453      49.404575      20            -1461.2705      432.61235    
     33300  -4101.5244      32.610253     -4068.9141      311.8466       51.581967      49.404575      20            -1407.3092      620.4591     
     33400  -4099.8506      30.892488     -4068.9581      295.41989      51.582481      49.404575      20            -1436.1577      501.00167    
     33500  -4100.5593      31.444708     -4069.1146      300.70067      51.582996      49.404575      20            -1457.1465     -279.68939    
     33600  -4102.1604      30.496402     -4071.664       291.63218      51.58351       49.404575      20            -1331.6187      503.86389    
     33700  -4103.1883      31.062298     -4072.126       297.04375      51.584024      49.404575      20            -1637.6837      521.66276    
     33800  -4102.3115      31.816724     -4070.4948      304.25821      51.584538      49.404575      20            -1662.8688      263.97408    
     33900  -4100.4597      30.967532     -4069.4922      296.13752      51.585052      49.404575      20            -1707.9796      68.514492    
     34000  -4101.2513      32.245239     -4069.0061      308.35602      51.585566      49.404575      20            -1007.922       173.46592    
     34100  -4100.949       32.170857     -4068.7781      307.64472      51.58608       49.404575      20            -1486.2914      509.83392    
     34200  -4100.6329      31.246593     -4069.3863      298.80614      51.586594      49.404575      20            -1946.5126      244.95296    
     34300  -4101.1955      29.976336     -4071.2192      286.65887      51.587108      49.404575      20            -1786.9335      68.576774    
     34400  -4102.1578      30.867152     -4071.2907      295.1776       51.587623      49.404575      20            -1114.9274      303.11701    
     34500  -4099.9         30.371692     -4069.5283      290.43959      51.588137      49.404575      20            -1398.3633      317.97647    
     34600  -4099.1238      30.693026     -4068.4307      293.51246      51.588651      49.404575      20            -1970.426       484.42692    
     34700  -4100.0352      31.435805     -4068.5994      300.61554      51.589165      49.404575      20            -1552.034       484.86466    
     34800  -4100.9671      31.153797     -4069.8133      297.91874      51.589679      49.404575      20            -1020.1984      285.07405    
     34900  -4100.7542      29.991015     -4070.7632      286.79925      51.590193      49.404575      20            -1298.8821      136.47767    
     35000  -4100.4205      30.121279     -4070.2992      288.04494      51.590707      49.404575      20            -1811.5009      316.9451     
     35100  -4101.6064      31.524673     -4070.0817      301.46537      51.591221      49.404575      20            -1512.8798      618.12653    
     35200  -4100.6441      30.617367     -4070.0267      292.78895      51.591735      49.404575      20            -1214.9345      445.55708    
     35300  -4100.1949      30.994136     -4069.2007      296.39193      51.592249      49.404575      20            -1268.4638     -126.51377    
     35400  -4099.1421      31.429434     -4067.7127      300.55461      51.592764      49.404575      20            -1768.7835      486.93526    
     35500  -4100.6156      32.914814     -4067.7008      314.75907      51.593278      49.404575      20            -1336.0737      782.02878    
     35600  -4101.5334      31.010203     -4070.5232      296.54558      51.593792      49.404575      20            -1265.35        384.65198    
     35700  -4102.463       31.271865     -4071.1912      299.0478       51.594306      49.404575      20            -1292.3802     -413.53538    
     35800  -4100.4103      30.104925     -4070.3054      287.88855      51.59482       49.404575      20            -1666.3936      284.01163    
     35900  -4099.8184      31.026634     -4068.7918      296.7027       51.595334      49.404575      20            -1391.0407      803.7341     
     36000  -4099.6079      31.36723      -4068.2407      299.95977      51.595848      49.404575      20            -1605.6983      593.48818    
     36100  -4100.1774      31.351454     -4068.826       299.80891      51.596362      49.404575      20            -1213.243      -167.16757    
     36200  -4102.1083      30.357657     -4071.7506      290.30539      51.596876      49.404575      20            -1376.6105      97.198968    
     36300  -4101.7521      29.752391     -4071.9997      284.51733      51.597391      49.404575      20            -1456.7965      723.8119     
     36400  -4100.5528      30.089271     -4070.4635      287.73885      51.597905      49.404575      20            -1886.3756      417.36706    
     36500  -4098.5435      29.837126     -4068.7063      285.32763      51.598419      49.404575      20            -1398.6741      99.815137    
     36600  -4101.8792      33.489803     -4068.3894      320.25759      51.598933      49.404575      20            -988.18437      50.932427    
     36700  -4101.4508      31.795896     -4069.6549      304.05904      51.599447      49.404575      20            -1370.329       325.88651    
     36800  -4102.1399      31.178035     -4070.9619      298.15053      51.599961      49.404575      20            -1988.2921      109.79818    
     36900  -4102.5664      31.453756     -4071.1126      300.7872       51.600475      49.404575      20            -1639.3647      260.65649    
     37000  -4101.6236      32.561262     -4069.0623      311.37811      51.600989      49.404575      20            -1220.1471      133.04071    
     37100  -4099.8538      31.895936     -4067.9579      305.01569      51.601503      49.404575      20            -1284.8549      110.8904     
     37200  -4101.0355      32.511192     -4068.5243      310.8993       51.602018      49.404575      20            -1817.873       51.196307    
     37300  -4099.9606      29.617317     -4070.3433      283.22563      51.602532      49.404575      20            -1756.1234      371.69249    
     37400  -4102.091       31.55514      -4070.5359      301.75672      51.603046      49.404575      20            -1395.9722      180.43841    
     37500  -4101.164       30.906191     -4070.2578      295.55093      51.60356       49.404575      20            -1520.608      -139.1088     
     37600  -4100.757       31.705319     -4069.0517      303.19286      51.604074      49.404575      20            -1755.8556     -168.86421    
     37700  -4099.1688      31.943423     -4067.2254      305.46981      51.604588      49.404575      20            -1729.8743      565.4949     
     37800  -4098.5282      33.705672     -4064.8225      322.32192      51.605102      49.404575      20            -1356.3349      57.33639     
     37900  -4098.7322      31.972288     -4066.7599      305.74584      51.605616      49.404575      20            -1601.4191     -312.01235    
     38000  -4099.2927      30.538182     -4068.7545      292.03172      51.60613       49.404575      20            -1625.3924     -233.99078    
     38100  -4101.1681      31.023796     -4070.1443      296.67556      51.606644      49.404575      20            -1722.6186      547.70748    
     38200  -4100.539       30.317643     -4070.2213      289.92273      51.607159      49.404575      20            -1861.2607      51.259138    
     38300  -4100.7305      31.94304      -4068.7874      305.46614      51.607673      49.404575      20            -1745.332      -393.03404    
     38400  -4100.2281      32.039635     -4068.1885      306.38987      51.608187      49.404575      20            -1437.9051     -29.187021    
     38500  -4100.4519      31.916496     -4068.5354      305.21231      51.608701      49.404575      20            -1630.0321      471.94074    
     38600  -4100.6146      29.885381     -4070.7292      285.78908      51.609215      49.404575      20            -2031.3747      239.96867    
     38700  -4101.7087      30.496502     -4071.2122      291.63314      51.609729      49.404575      20            -1718.9624     -282.10818    
     38800  -4101.2246      31.392946     -4069.8316      300.20569      51.610243      49.404575      20            -1225.1885     -43.535485    
     38900  -4100.5881      32.136493     -4068.4516      307.31611      51.610757      49.404575      20            -1510.4077      272.35778    
     39000  -4100.5123      32.173692     -4068.3386      307.67183      51.611271      49.404575      20            -2013.2405      313.97638    
     39100  -4100.9672      31.882487     -4069.0847      304.88709      51.611786      49.404575      20            -1840.5601      81.661304    
     39200  -4101.853       30.576626     -4071.2764      292.39935      51.6123        49.404575      20            -1209.9821      18.553799    
     39300  -4103.1621      31.352062     -4071.8101      299.81472      51.612814      49.404575      20            -1592.2789      59.168092    
     39400  -4101.3846      30.584827     -4070.7998      292.47777      51.613328      49.404575      20            -2032.8989      180.8784     
     39500  -4100.9133      31.608417     -4069.3049      302.2662       51.613842      49.404575      20            -1860.9443      367.99947    
     39600  -4101.0237      32.38108      -4068.6426      309.65505      51.614356      49.404575      20            -1339.1557      316.37302    
     39700  -4100.851       32.068628     -4068.7824      306.66713      51.61487       49.404575      20            -1468.5951      2.7331233    
     39800  -4101.0269      31.052004     -4069.9749      296.94531      51.615384      49.404575      20            -1889.4292      302.22143    
     39900  -4101.3458      29.794025     -4071.5517      284.91546      51.615898      49.404575      20            -1851.2919      390.9152     
     40000  -4102.3124      31.194803     -4071.1176      298.31088      51.616413      49.404575      20            -1499.265       324.15403    
     40100  -4099.5946      30.774697     -4068.8199      294.29347      51.616927      49.404575      20            -1541.866      -112.04191    
     40200  -4100.1009      31.899201     -4068.2017      305.04692      51.617441      49.404575      20            -1651.2567      296.52575    
     40300  -4101.1762      32.452828     -4068.7234      310.34117      51.617955      49.404575      20            -1838.5948      754.88649    
     40400  -4101.5616      31.366542     -4070.1951      299.95319      51.618469      49.404575      20            -1723.7538      279.5807     
     40500  -4100.6968      29.616757     -4071.08        283.22027      51.618983      49.404575      20            -1560.9133     -97.225676    
     40600  -4100.6942      30.777315     -4069.9168      294.31851      51.619497      49.404575      20            -1629.1894      367.40944    
     40700  -4100.6037      32.988385     -4067.6154      315.46262      51.620011      49.404575      20            -1692.2416      676.43319    
     40800  -4099.3362      31.104626     -4068.2316      297.44853      51.620525      49.404575      20            -1871.8415      628.00461    
     40900  -4100.4545      31.13815      -4069.3163      297.76911      51.62104       49.404575      20            -1648.7279     -10.963306    
     41000  -4102.5922      31.982759     -4070.6094      305.84597      51.621554      49.404575      20            -1513.0971      26.919419    
     41100  -4101.9115      30.636076     -4071.2754      292.96785      51.622068      49.404575      20            -1762.533       366.28686    
     41200  -4101.2844      31.780954     -4069.5035      303.91614      51.622582      49.404575      20            -2025.3685      458.00029    
     41300  -4100.6588      32.587356     -4068.0714      311.62764      51.623096      49.404575      20            -2033.4897      263.46898    
     41400  -4099.7285      31.039052     -4068.6895      296.82146      51.62361       49.404575      20            -1532.7538     -18.216619    
     41500  -4099.791       30.22193      -4069.5691      289.00745      51.624124      49.404575      20            -1790.1707      347.13498    
     41600  -4101.549       30.85208      -4070.6969      295.03348      51.624638      49.404575      20            -1956.2212      107.9123     
     41700  -4101.5108      30.048768     -4071.462       287.35153      51.625152      49.404575      20            -2095.8727      396.96544    
     41800  -4100.7552      30.448973     -4070.3062      291.17863      51.625666      49.404575      20            -1677.0569      8.9386026    
     41900  -4099.6961      31.23503      -4068.461       298.69556      51.626181      49.404575      20            -1788.9709      387.72968    
     42000  -4101.0245      32.40547      -4068.619       309.88828      51.626695      49.404575      20            -1807.2757      192.38589    
     42100  -4100.3163      30.506062     -4069.8102      291.72456      51.627209      49.404575      20            -2064.8066      458.612      
     42200  -4100.9109      30.081458     -4070.8294      287.66414      51.627723      49.404575      20            -1680.9937      116.44997    
     42300  -4101.95        29.431306     -4072.5187      281.44684      51.628237      49.404575      20            -1806.5076      70.544385    
     42400  -4101.0623      29.739454     -4071.3228      284.39361      51.628751      49.404575      20            -1841.8993      284.75551    
     42500  -4099.8944      30.764677     -4069.1297      294.19765      51.629265      49.404575      20            -2106.6714      519.39597    
     42600  -4099.868       31.049024     -4068.8189      296.91681      51.629779      49.404575      20            -1685.8445      348.83002    
     42700  -4101.2953      31.899651     -4069.3957      305.05122      51.630293      49.404575      20            -1678.5515      177.95579    
     42800  -4100.778       29.866252     -4070.9118      285.60615      51.630808      49.404575      20            -1826.8891      327.99446    
     42900  -4101.2474      29.708782     -4071.5386      284.1003       51.631322      49.404575      20            -2056.0222      421.02688    
     43000  -4101.2128      31.960763     -4069.252       305.63563      51.631836      49.404575      20            -1880.0949      398.05456    
     43100  -4099.3329      31.268413     -4068.0645      299.0148       51.63235       49.404575      20            -1506.4046      301.37685    
     43200  -4100.8377      32.279864     -4068.5579      308.68714      51.632864      49.404575      20            -1543.0762      293.58512    
     43300  -4101.4698      31.227028     -4070.2428      298.61904      51.633378      49.404575      20            -1979.8409      455.80198    
     43400  -4102.0967      31.257443     -4070.8393      298.90989      51.633892      49.404575      20            -1926.8143      528.70225    
     43500  -4101.7174      30.970007     -4070.7474      296.16119      51.634406      49.404575      20            -1652.3297      305.54106    
     43600  -4101.5244      31.544624     -4069.9797      301.65616      51.63492       49.404575      20            -1645.5696      228.6317     
     43700  -4100.1873      30.536332     -4069.6509      292.01403      51.635435      49.404575      20            -1757.4144      362.00011    
     43800  -4101.0085      31.888399     -4069.1201      304.94363      51.635949      49.404575      20            -1808.4147      516.49488    
     43900  -4101.3259      31.936814     -4069.3891      305.40661      51.636463      49.404575      20            -1867           495.64139    
     44000  -4101.3318      30.062003     -4071.2698      287.47809      51.636977      49.404575      20            -1626.8971      181.98112    
     44100  -4102.4464      30.26902      -4072.1774      289.45777      51.637491      49.404575      20            -1765.273       197.97606    
     44200  -4101.3644      30.704731     -4070.6597      293.6244       51.638005      49.404575      20            -1850.8805      320.78457    
     44300  -4099.9863      31.002027     -4068.9842      296.46739      51.638519      49.404575      20            -1851.9331      384.77194    
     44400  -4099.1948      30.036204     -4069.1586      287.23138      51.639033      49.404575      20            -1748.5831      388.15791    
     44500  -4101.3973      31.597485     -4069.7998      302.16166      51.639547      49.404575      20            -1673.7331      322.50045    
     44600  -4100.6143      29.443305     -4071.171       281.56158      51.640061      49.404575      20            -1969.6726      179.49761    
     44700  -4100.8701      28.955859     -4071.9143      276.90022      51.640576      49.404575      20            -1906.9123      323.7543     
     44800  -4101.5662      31.267391     -4070.2988      299.00502      51.64109       49.404575      20            -1873.4555      174.41034    
     44900  -4100.3136      31.826905     -4068.4867      304.35556      51.641604      49.404575      20            -1825.3521      58.317991    
     45000  -4099.1185      30.639784     -4068.4787      293.00331      51.642118      49.404575      20            -1986.5175      22.64407     
     45100  -4101.2868      32.132659     -4069.1541      307.27944      51.642632      49.404575      20            -2068.9015      146.15486    
     45200  -4101.1808      30.460085     -4070.7207      291.28488      51.643146      49.404575      20            -2125.7003      107.60976    
     45300  -4101.2845      30.35668      -4070.9278      290.29604      51.64366       49.404575      20            -2001.3969     -31.782128    
     45400  -4100.722       31.460423     -4069.2616      300.85096      51.644174      49.404575      20            -1970.5558     -14.574897    
     45500  -4100.2535      32.652842     -4067.6007      312.25387      51.644688      49.404575      20            -2082.9385      178.00778    
     45600  -4099.9354      31.950409     -4067.985       305.53662      51.645203      49.404575      20            -2210.8504      296.80703    
     45700  -4100.465       30.767774     -4069.6972      294.22726      51.645717      49.404575      20            -1999.9289     -225.17964    
     45800  -4101.3765      30.727174     -4070.6493      293.83901      51.646231      49.404575      20            -2091.2879     -4.3121152    
     45900  -4101.5968      31.327063     -4070.2697      299.57566      51.646745      49.404575      20            -2130.0544     -156.12428    
     46000  -4100.9969      31.318995     -4069.6779      299.4985       51.647259      49.404575      20            -2203.0757      200.89676    
     46100  -4100.3468      31.406387     -4068.9404      300.33422      51.647773      49.404575      20            -2044.5158     -254.4282     
     46200  -4101.2691      33.44912      -4067.82        319.86854      51.648287      49.404575      20            -2052.8884      111.39506    
     46300  -4099.7452      32.44549      -4067.2997      310.27099      51.648801      49.404575      20            -2101.7524      10.214698    
     46400  -4099.9525      31.362371     -4068.5902      299.9133       51.649315      49.404575      20            -2216.5767      115.41567    
     46500  -4101.1375      30.948865     -4070.1886      295.95901      51.64983       49.404575      20            -2297.5188     -77.115718    
     46600  -4100.7891      29.91144      -4070.8776      286.03828      51.650344      49.404575      20            -1959.6753      61.518128    
     46700  -4101.1289      31.255822     -4069.8731      298.89439      51.650858      49.404575      20            -2041.4633      58.566135    
     46800  -4099.9183      32.157873     -4067.7604      307.52056      51.651372      49.404575      20            -2234.0732      198.78071    
     46900  -4099.2732      31.812615     -4067.4606      304.21891      51.651886      49.404575      20            -2100.0058      81.332303    
     47000  -4099.7948      31.707149     -4068.0876      303.21036      51.6524        49.404575      20            -1819.6277      190.13389    
     47100  -4101.0822      32.259852     -4068.8224      308.49577      51.652914      49.404575      20            -2161.3339      59.026583    
     47200  -4100.8459      30.55958      -4070.2863      292.23634      51.653428      49.404575      20            -2182.0327      67.593921    
     47300  -4101.9973      31.271468     -4070.7258      299.04401      51.653942      49.404575      20            -2025.4899      248.60013    
     47400  -4100.8635      30.794356     -4070.0691      294.48146      51.654457      49.404575      20            -1903.8524      24.085498    
     47500  -4100.0254      32.081454     -4067.9439      306.78977      51.654971      49.404575      20            -2052.8478      208.57307    
     47600  -4099.2798      32.116757     -4067.1631      307.12738      51.655485      49.404575      20            -2084.129       182.23624    
     47700  -4099.7938      31.445805     -4068.348       300.71117      51.655999      49.404575      20            -2048.4375      436.69906    
     47800  -4102.6175      32.431549     -4070.1859      310.13768      51.656513      49.404575      20            -2075.5452      172.30836    
     47900  -4101.728       31.276924     -4070.4511      299.09619      51.657027      49.404575      20            -2039.0261     -14.856964    
     48000  -4100.5063      30.525926     -4069.9803      291.91452      51.657541      49.404575      20            -2094.0419      184.90203    
     48100  -4100.5971      31.544287     -4069.0528      301.65294      51.658055      49.404575      20            -1972.8387      510.46357    
     48200  -4100.2865      32.085442     -4068.201       306.82791      51.658569      49.404575      20            -2124.4457      186.54027    
     48300  -4099.2135      31.828175     -4067.3853      304.36771      51.659083      49.404575      20            -1956.4288     -10.907052    
     48400  -4099.7282      31.914295     -4067.8139      305.19126      51.659598      49.404575      20            -1864.5415     -58.255728    
     48500  -4101.2566      31.233561     -4070.023       298.68151      51.660112      49.404575      20            -2200.7859      314.17372    
     48600  -4102.0126      31.6947       -4070.3179      303.09131      51.660626      49.404575      20            -2385.8493      161.57156    
     48700  -4100.6656      30.556107     -4070.1095      292.20313      51.66114       49.404575      20            -2254.0927      62.030671    
     48800  -4100.0585      31.477023     -4068.5815      301.0097       51.661654      49.404575      20            -1735.7653     -103.17279    
     48900  -4099.4946      32.512247     -4066.9824      310.90938      51.662168      49.404575      20            -2064.0399      356.04349    
     49000  -4100.0125      32.244127     -4067.7684      308.3454       51.662682      49.404575      20            -2258.874       70.650011    
     49100  -4100.6641      31.282168     -4069.382       299.14634      51.663196      49.404575      20            -2302.3317      285.66708    
     49200  -4101.4039      31.506943     -4069.8969      301.29582      51.66371       49.404575      20            -1827.47       -6.3824244    
     49300  -4101.8637      31.862163     -4070.0016      304.69274      51.664225      49.404575      20            -2129.1018      83.15798     
     49400  -4101.2853      31.620744     -4069.6646      302.38409      51.664739      49.404575      20            -2322.8855      192.56042    
     49500  -4100.8422      32.427273     -4068.4149      310.09679      51.665253      49.404575      20            -2287.9731      189.38094    
     49600  -4099.6639      32.6123       -4067.0516      311.86617      51.665767      49.404575      20            -2022.4513      194.73022    
     49700  -4099.4497      32.270412     -4067.1793      308.59675      51.666281      49.404575      20            -2181.1389      194.39744    
     49800  -4101.5888      31.717105     -4069.8717      303.30557      51.666795      49.404575      20            -2238.4079      6.4441377    
     49900  -4100.787       30.325567     -4070.4615      289.99851      51.667309      49.404575      20            -2278.6586      352.643      
     50000  -4100.4756      31.025418     -4069.4501      296.69107      51.667823      49.404575      20            -2152.9674      195.33748    
     50100  -4099.9893      31.468264     -4068.5211      300.92594      51.668337      49.404575      20            -2049.2007      96.025453    
     50200  -4101.1432      31.952293     -4069.1909      305.55463      51.668852      49.404575      20            -2045.2274      184.01548    
     50300  -4101.7775      30.412044     -4071.3654      290.82548      51.669366      49.404575      20            -2161.203       196.87982    
     50400  -4102.4749      30.39953      -4072.0754      290.7058       51.66988       49.404575      20            -2524.4044      256.42792    
     50500  -4102.0095      31.346516     -4070.663       299.76168      51.670394      49.404575      20            -2174.2205      111.09566    
     50600  -4101.3813      32.031649     -4069.3497      306.3135       51.670908      49.404575      20            -2254.9194      386.02185    
     50700  -4101.306       32.410358     -4068.8956      309.93503      51.671422      49.404575      20            -2062.6227      293.79668    
     50800  -4099.9117      30.271555     -4069.6402      289.482        51.671936      49.404575      20            -2351.2532      383.3446     
     50900  -4101.1744      30.508109     -4070.6663      291.74413      51.67245       49.404575      20            -2129.3887      204.03778    
     51000  -4101.6747      30.579451     -4071.0952      292.42636      51.672964      49.404575      20            -2173.4438      194.89589    
     51100  -4101.5997      31.879577     -4069.7201      304.85925      51.673478      49.404575      20            -2209.9124      297.85266    
     51200  -4100.1692      31.857892     -4068.3113      304.65189      51.673993      49.404575      20            -2235.4373      402.76105    
     51300  -4100.0696      31.977127     -4068.0925      305.79212      51.674507      49.404575      20            -2216.4058      376.25881    
     51400  -4101.2328      31.64445      -4069.5884      302.61077      51.675021      49.404575      20            -2019.2459      388.943      
     51500  -4102.4672      30.797802     -4071.6694      294.51442      51.675535      49.404575      20            -2254.1783      142.96949    
     51600  -4101.2054      29.746075     -4071.4593      284.45692      51.676049      49.404575      20            -2207.78        446.51505    
     51700  -4101.2981      31.401533     -4069.8966      300.2878       51.676563      49.404575      20            -2349.6478      400.76172    
     51800  -4100.8016      31.867551     -4068.934       304.74425      51.677077      49.404575      20            -2157.8819      311.54174    
     51900  -4100.1777      30.882183     -4069.2955      295.32134      51.677591      49.404575      20            -2167.2108      209.04606    
     52000  -4099.9227      30.300879     -4069.6218      289.76243      51.678105      49.404575      20            -2070.1275      316.97476    
     52100  -4100.489       29.992942     -4070.4961      286.81767      51.67862       49.404575      20            -2547.2006      441.50798    
     52200  -4102.4217      30.142443     -4072.2792      288.24733      51.679134      49.404575      20            -2434.3277      235.07652    
     52300  -4101.0432      29.190088     -4071.8531      279.14011      51.679648      49.404575      20            -2332.9452      56.649182    
     52400  -4101.0013      31.284457     -4069.7168      299.16823      51.680162      49.404575      20            -2187.029       66.915703    
     52500  -4099.9547      30.839831     -4069.1149      294.91634      51.680676      49.404575      20            -2370.6378      124.83793    
     52600  -4099.229       29.992848     -4069.2362      286.81678      51.68119       49.404575      20            -2372.7458      359.90643    
     52700  -4099.4584      30.295757     -4069.1626      289.71344      51.681704      49.404575      20            -2309.2666      311.49603    
     52800  -4100.705       31.14881      -4069.5562      297.87105      51.682218      49.404575      20            -2403.7958     -28.923982    
     52900  -4101.4575      30.795838     -4070.6617      294.49564      51.682732      49.404575      20            -2413.55       -57.656731    
     53000  -4101.8257      31.477817     -4070.3479      301.0173       51.683247      49.404575      20            -2468.9146      147.25513    
     53100  -4101.4454      32.526543     -4068.9189      311.0461       51.683761      49.404575      20            -2522.1369      126.27033    
     53200  -4100.1666      32.596381     -4067.5702      311.71394      51.684275      49.404575      20            -2596.6712     -51.371369    
     53300  -4099.0888      32.195223     -4066.8935      307.87773      51.684789      49.404575      20            -2283.4303     -117.86387    
     53400  -4099.8899      31.429712     -4068.4602      300.55727      51.685303      49.404575      20            -2415.6276     -26.78599     
     53500  -4100.589       30.162831     -4070.4262      288.44229      51.685817      49.404575      20            -2513.4437      61.104596    
[...]
   1987500  -4060.0415      33.371175     -4026.6703      319.12317      61.62866       49.404575      20             583.20477     -737.91155    
   1987600  -4060.3748      32.83195      -4027.5428      313.96665      61.629174      49.404575      20             233.9665      -717.67117    
   1987700  -4060.8867      31.629075     -4029.2576      302.46375      61.629688      49.404575      20            -252.10974     -771.92083    
   1987800  -4060.7768      30.989937     -4029.7869      296.35178      61.630202      49.404575      20             31.83224      -924.23954    
   1987900  -4060.9146      31.08007      -4029.8345      297.2137       61.630716      49.404575      20            -116.26384     -1144.2634    
   1988000  -4060.5695      31.296213     -4029.2733      299.28065      61.63123       49.404575      20             5.313717      -856.83938    
   1988100  -4059.6973      32.418963     -4027.2784      310.01732      61.631745      49.404575      20             38.290234     -1028.5234    
   1988200  -4059.9851      32.839849     -4027.1453      314.04218      61.632259      49.404575      20            -52.670865     -715.13741    
   1988300  -4060.5765      31.516661     -4029.0599      301.38875      61.632773      49.404575      20            -84.922017     -1109.9429    
   1988400  -4059.7714      29.716464     -4030.0549      284.17376      61.633287      49.404575      20            -870.45208     -1457.1764    
   1988500  -4061.1494      31.366757     -4029.7827      299.95524      61.633801      49.404575      20            -674.4713      -1275.2357    
   1988600  -4060.9138      31.481633     -4029.4322      301.05379      61.634315      49.404575      20             80.457507     -891.52588    
   1988700  -4058.8751      30.634863     -4028.2403      292.95626      61.634829      49.404575      20             164.50423     -876.91373    
   1988800  -4059.3454      33.163304     -4026.1821      317.13533      61.635343      49.404575      20            -441.07288     -1103.1656    
   1988900  -4060.1466      32.600454     -4027.5461      311.75289      61.635857      49.404575      20             4.0316989     -1203.5899    
   1989000  -4060.292       31.233364     -4029.0586      298.67963      61.636372      49.404575      20             38.071112     -878.96477    
   1989100  -4060.9679      31.443017     -4029.5249      300.68451      61.636886      49.404575      20             211.84143     -947.89518    
   1989200  -4060.1567      30.158276     -4029.9985      288.39873      61.6374        49.404575      20            -159.76861     -1312.9469    
   1989300  -4061.261       31.419988     -4029.841       300.46428      61.637914      49.404575      20             139.94962     -1360.6405    
   1989400  -4060.0458      31.780601     -4028.2652      303.91277      61.638428      49.404575      20             290.04308     -970.12643    
   1989500  -4060.0399      33.080017     -4026.9598      316.33887      61.638942      49.404575      20             469.07543     -817.29229    
   1989600  -4059.5288      32.154292     -4027.3745      307.48632      61.639456      49.404575      20             189.38361     -1104.0891    
   1989700  -4061.7161      31.663963     -4030.0522      302.79738      61.63997       49.404575      20             294.36446     -984.47899    
   1989800  -4060.8934      30.000366     -4030.893       286.88867      61.640484      49.404575      20             384.08076     -761.05718    
   1989900  -4061.6285      31.374267     -4030.2542      300.02706      61.640998      49.404575      20             137.11057     -919.36566    
   1990000  -4060.5657      31.7773       -4028.7884      303.8812       61.641513      49.404575      20            -10.534157     -873.54238    
   1990100  -4060.2207      31.889738     -4028.331       304.95642      61.642027      49.404575      20             131.79235     -713.61727    
   1990200  -4060.9069      32.412237     -4028.4947      309.95301      61.642541      49.404575      20             222.31801     -1007.768     
   1990300  -4061.1734      30.704506     -4030.4689      293.62224      61.643055      49.404575      20            -567.19051     -1221.3351    
   1990400  -4061.4884      30.28987      -4031.1986      289.65715      61.643569      49.404575      20            -109.37216     -860.3108     
   1990500  -4061.5456      31.582518     -4029.9631      302.01853      61.644083      49.404575      20            -281.16866     -795.86199    
   1990600  -4060.0496      31.812564     -4028.237       304.21843      61.644597      49.404575      20            -319.33839     -1235.6194    
   1990700  -4059.4728      30.973875     -4028.4989      296.19818      61.645111      49.404575      20            -570.30965     -1249.2785    
   1990800  -4061.9739      31.95817      -4030.0157      305.61083      61.645625      49.404575      20            -161.7131      -646.00839    
   1990900  -4062.8121      31.878299     -4030.9338      304.84704      61.64614       49.404575      20             80.312139     -542.91583    
   1991000  -4061.7672      31.526997     -4030.2402      301.4876       61.646654      49.404575      20            -62.124636     -885.88611    
   1991100  -4061.5083      33.890094     -4027.6182      324.08551      61.647168      49.404575      20             14.972236     -752.40736    
   1991200  -4062.384       33.888215     -4028.4958      324.06754      61.647682      49.404575      20             3.6784435     -453.73517    
   1991300  -4061.8543      31.657746     -4030.1966      302.73792      61.648196      49.404575      20             591.42738     -569.94676    
   1991400  -4062.0412      31.764982     -4030.2763      303.76341      61.64871       49.404575      20            -184.00761     -849.48093    
   1991500  -4061.8887      32.177841     -4029.7108      307.71151      61.649224      49.404575      20             191.12803     -719.66283    
   1991600  -4061.425       31.855678     -4029.5693      304.63072      61.649738      49.404575      20             534.42296     -366.54221    
   1991700  -4062.5141      32.488148     -4030.0259      310.67892      61.650252      49.404575      20             327.51907     -586.44315    
   1991800  -4063.2514      32.284861     -4030.9665      308.73492      61.650767      49.404575      20            -146.76598     -848.59077    
   1991900  -4062.8331      30.866642     -4031.9664      295.17273      61.651281      49.404575      20            -120.48274     -544.19045    
   1992000  -4062.3217      30.89751      -4031.4242      295.46791      61.651795      49.404575      20             93.277516     -211.93107    
   1992100  -4061.9864      32.818843     -4029.1675      313.84131      61.652309      49.404575      20             7.0353619     -617.59354    
   1992200  -4059.8209      30.955687     -4028.8653      296.02425      61.652823      49.404575      20            -248.70502     -702.92715    
   1992300  -4060.8273      31.501272     -4029.326       301.24159      61.653337      49.404575      20            -426.72619     -547.14929    
   1992400  -4061.7755      31.90645      -4029.869       305.11624      61.653851      49.404575      20             92.668088     -292.36752    
   1992500  -4062.8809      30.603376     -4032.2775      292.65516      61.654365      49.404575      20            -446.46502     -798.53554    
   1992600  -4061.8077      29.134647     -4032.6731      278.60993      61.654879      49.404575      20            -601.1481      -916.08578    
   1992700  -4061.8265      30.536379     -4031.2901      292.01447      61.655393      49.404575      20             87.638948     -564.94934    
   1992800  -4061.8316      31.474166     -4030.3574      300.98237      61.655908      49.404575      20            -513.48556     -401.0543     
   1992900  -4060.5604      30.783252     -4029.7771      294.37528      61.656422      49.404575      20            -178.40887     -676.0931     
   1993000  -4061.3594      31.88834      -4029.4711      304.94306      61.656936      49.404575      20             152.20658     -923.15327    
   1993100  -4061.5597      32.353436     -4029.2063      309.3907       61.65745       49.404575      20             239.01533     -480.53391    
   1993200  -4060.9165      31.416326     -4029.5001      300.42926      61.657964      49.404575      20            -176.76558     -463.92014    
   1993300  -4060.3809      29.978989     -4030.4019      286.68424      61.658478      49.404575      20            -107.88022     -554.77138    
   1993400  -4062.8767      31.286859     -4031.5899      299.19119      61.658992      49.404575      20             495.24851     -595.85716    
   1993500  -4063.516       31.666281     -4031.8497      302.81954      61.659506      49.404575      20             585.21413     -406.67224    
   1993600  -4059.895       30.321971     -4029.573       289.96413      61.66002       49.404575      20             38.188949     -414.42275    
   1993700  -4059.8427      31.073284     -4028.7694      297.14881      61.660535      49.404575      20            -64.165982     -437.3981     
   1993800  -4061.0539      31.440168     -4029.6137      300.65726      61.661049      49.404575      20             1144.211      -663.79649    
   1993900  -4061.6113      30.489283     -4031.122       291.5641       61.661563      49.404575      20            -409.92248     -740.06411    
   1994000  -4061.4757      30.012596     -4031.4631      287.00562      61.662077      49.404575      20             187.90124     -843.23197    
   1994100  -4061.5772      31.283696     -4030.2935      299.16095      61.662591      49.404575      20            -520.18426     -838.86804    
   1994200  -4060.8546      33.468709     -4027.3859      320.05587      61.663105      49.404575      20             484.96897     -853.56133    
   1994300  -4060.0721      32.526137     -4027.546       311.0422       61.663619      49.404575      20            -19.078843     -583.95063    
   1994400  -4060.5708      31.149751     -4029.4211      297.88006      61.664133      49.404575      20            -150.32862     -1006.3538    
   1994500  -4061.0907      30.373516     -4030.7171      290.45704      61.664647      49.404575      20            -505.22748     -688.34187    
   1994600  -4062.4389      31.297428     -4031.1415      299.29226      61.665162      49.404575      20             30.791548     -960.13914    
   1994700  -4062.678       31.512521     -4031.1655      301.34916      61.665676      49.404575      20            -753.50258     -924.3014     
   1994800  -4061.2682      30.961066     -4030.3072      296.07569      61.66619       49.404575      20            -656.8954      -990.17347    
   1994900  -4060.4041      31.680128     -4028.724       302.95196      61.666704      49.404575      20            -14.879487     -905.44161    
   1995000  -4059.3617      31.267079     -4028.0946      299.00204      61.667218      49.404575      20             94.978661     -866.58232    
   1995100  -4060.4987      31.632782     -4028.8659      302.4992       61.667732      49.404575      20             112.07019     -1014.5078    
   1995200  -4062.3314      31.125494     -4031.2059      297.64809      61.668246      49.404575      20            -233.25181     -895.44907    
   1995300  -4062.0551      30.440694     -4031.6144      291.09945      61.66876       49.404575      20             234.1966      -678.55111    
   1995400  -4062.0596      31.340143     -4030.7194      299.70074      61.669274      49.404575      20            -180.74401     -734.05384    
   1995500  -4062.6976      33.137812     -4029.5598      316.89156      61.669789      49.404575      20             183.5098      -1129.7895    
   1995600  -4063.3454      33.137943     -4030.2075      316.89281      61.670303      49.404575      20             344.35632     -933.62334    
   1995700  -4062.6758      30.094147     -4032.5817      287.78548      61.670817      49.404575      20             296.14379     -443.12489    
   1995800  -4061.4852      29.78377      -4031.7014      284.81739      61.671331      49.404575      20             38.877448     -1015.5125    
   1995900  -4061.0064      30.985528     -4030.0209      296.30961      61.671845      49.404575      20             209.94367     -1226.2485    
   1996000  -4061.8932      32.662489     -4029.2307      312.34612      61.672359      49.404575      20             149.17199     -866.03786    
   1996100  -4059.5414      30.327275     -4029.2141      290.01484      61.672873      49.404575      20             440.8049      -803.93962    
   1996200  -4061.2557      32.190784     -4029.0649      307.83528      61.673387      49.404575      20            -138.22159     -1246.276     
   1996300  -4062.325       31.484939     -4030.8401      301.0854       61.673901      49.404575      20             4.4338875     -1192.4312    
   1996400  -4062.8562      31.012631     -4031.8436      296.56879      61.674415      49.404575      20             165.27454     -832.01213    
   1996500  -4061.9425      30.782835     -4031.1596      294.37129      61.67493       49.404575      20             345.23424     -669.14081    
   1996600  -4060.1485      31.038073     -4029.1104      296.81209      61.675444      49.404575      20            -270.61592     -902.65354    
   1996700  -4060.5381      31.867725     -4028.6704      304.74592      61.675958      49.404575      20            -279.29277     -1269.2211    
   1996800  -4061.7302      32.113881     -4029.6163      307.09987      61.676472      49.404575      20             73.901791     -884.96869    
   1996900  -4061.3512      30.896167     -4030.4551      295.45507      61.676986      49.404575      20            -230.3168      -680.61096    
   1997000  -4060.6307      30.230338     -4030.4003      289.08785      61.6775        49.404575      20            -780.13506     -1124.5894    
   1997100  -4060.0299      31.968845     -4028.061       305.71291      61.678014      49.404575      20            -294.74154     -1247.8128    
   1997200  -4059.6654      32.714198     -4026.9512      312.8406       61.678528      49.404575      20             543.17125     -830.61994    
   1997300  -4059.5743      30.896413     -4028.6779      295.45742      61.679042      49.404575      20            -141.78477     -924.96501    
   1997400  -4060.4658      30.521382     -4029.9445      291.87106      61.679557      49.404575      20            -335.89963     -1260.8532    
   1997500  -4061.075       30.416055     -4030.659       290.86384      61.680071      49.404575      20            -560.97626     -1066.1957    
   1997600  -4062.6268      32.410237     -4030.2166      309.93387      61.680585      49.404575      20             287.46704     -979.00552    
   1997700  -4060.9961      32.664186     -4028.3319      312.36235      61.681099      49.404575      20             118.79971     -971.23523    
   1997800  -4060.4152      33.209244     -4027.2059      317.57465      61.681613      49.404575      20             44.751698     -954.70955    
   1997900  -4060.6862      31.822899     -4028.8633      304.31725      61.682127      49.404575      20             410.59458     -589.09023    
   1998000  -4062.0017      32.309418     -4029.6923      308.96976      61.682641      49.404575      20             375.25656     -763.4313     
   1998100  -4061.7014      31.916553     -4029.7848      305.21285      61.683155      49.404575      20             204.47429     -991.42141    
   1998200  -4061.5718      30.941281     -4030.6306      295.88649      61.683669      49.404575      20            -179.36292     -1155.0773    
   1998300  -4062.6965      31.150158     -4031.5464      297.88395      61.684184      49.404575      20             2.510951      -733.0911     
   1998400  -4062.5217      31.161215     -4031.3605      297.98967      61.684698      49.404575      20             91.311957     -1051.6102    
   1998500  -4061.7739      32.521273     -4029.2527      310.99569      61.685212      49.404575      20             100.56636     -1153.6878    
   1998600  -4060.7783      32.171576     -4028.6067      307.6516       61.685726      49.404575      20             216.38521     -823.56276    
   1998700  -4060.8989      31.585843     -4029.3131      302.05033      61.68624       49.404575      20             193.52508     -440.07113    
   1998800  -4062.4455      30.847982     -4031.5975      294.99428      61.686754      49.404575      20            -623.27001     -843.3374     
   1998900  -4062.6387      30.460534     -4032.1782      291.28918      61.687268      49.404575      20            -226.34242     -1145.242     
   1999000  -4061.8844      30.932434     -4030.9519      295.80188      61.687782      49.404575      20            -111.4236      -846.71218    
   1999100  -4061.5311      31.54892      -4029.9822      301.69724      61.688296      49.404575      20            -276.44293     -830.47866    
   1999200  -4060.9308      31.595167     -4029.3356      302.1395       61.68881       49.404575      20            -228.88347     -503.15278    
   1999300  -4060.3333      30.689029     -4029.6442      293.47424      61.689325      49.404575      20            -61.492571     -770.50351    
   1999400  -4061.978       29.753533     -4032.2245      284.52824      61.689839      49.404575      20            -17.022137     -697.3316     
   1999500  -4061.9649      29.623392     -4032.3415      283.28373      61.690353      49.404575      20             136.61399     -884.30048    
   1999600  -4061.2301      30.544631     -4030.6854      292.09338      61.690867      49.404575      20            -443.27013     -920.122      
   1999700  -4061.6282      32.005919     -4029.6223      306.06745      61.691381      49.404575      20            -206.02377     -714.78051    
   1999800  -4061.4531      32.07986      -4029.3732      306.77453      61.691895      49.404575      20             285.93034     -599.56779    
   1999900  -4061.3037      31.546416     -4029.7572      301.67329      61.692409      49.404575      20             637.43245     -729.7463     
   2000000  -4063.1251      30.982563     -4032.1425      296.28126      61.692923      49.404575      20             127.07322     -822.37112    
Loop time of 6349.55 on 4 procs for 2000000 steps with 810 atoms

Performance: 27.215 ns/day, 0.882 hours/ns, 314.983 timesteps/s, 255.136 katom-step/s
100.0% CPU use with 4 MPI tasks x no OpenMP threads

MPI task timing breakdown:
Section |  min time  |  avg time  |  max time  |%varavg| %total
---------------------------------------------------------------
Pair    | 5555.3     | 5880.7     | 6180.3     | 351.2 | 92.62
Neigh   | 0.56181    | 0.6282     | 0.69657    |   8.4 |  0.01
Comm    | 127.47     | 427.69     | 753.46     |1304.1 |  6.74
Output  | 1.3488     | 1.3776     | 1.4066     |   1.8 |  0.02
Modify  | 37.722     | 38.164     | 38.766     |   6.9 |  0.60
Other   |            | 1.011      |            |       |  0.02

Nlocal:          202.5 ave         249 max         157 min
Histogram: 2 0 0 0 0 0 0 0 0 2
Nghost:         487.75 ave         490 max         484 min
Histogram: 1 0 0 0 0 0 1 0 1 1
Neighs:              0 ave           0 max           0 min
Histogram: 4 0 0 0 0 0 0 0 0 0
FullNghs:       7679.5 ave       10034 max        5373 min
Histogram: 2 0 0 0 0 0 0 0 0 2

Total # of neighbors = 30718
Ave neighs/atom = 37.923457
Neighbor list builds = 3230
Dangerous builds = 0
System init for write_data ...
WARNING: Using compute temp/deform with inconsistent fix deform remap option (src/compute_temp_deform.cpp:71)
Total wall time: 1:45:49
