ITEM: TIMESTEP
682000
ITEM: NUMBER OF ATOMS
810
ITEM: BOX BOUNDS pp pp pp
8.6298438867990135e-01 5.2154620611319167e+01
-8.7019557564232053e-01 5.1886410575641897e+01
-1.0000000000000000e+01 1.0000000000000000e+01
ITEM: ATOMS id type x y z xu yu zu
1 1 1.04868 -0.195047 -0.121745 1.04868 -0.195047 -0.121745
2 2 2.97606 -0.197796 1.49482 2.97606 -0.197796 1.49482
3 2 2.97322 -0.192515 -1.74184 2.97322 -0.192515 -1.74184
4 1 3.89827 1.5634 -0.121565 3.89827 1.5634 -0.121565
5 2 5.82908 1.56274 1.49093 5.82908 1.56274 1.49093
6 2 5.81932 1.56388 -1.74574 5.81932 1.56388 -1.74574
7 1 6.74778 -0.195391 -0.130907 6.74778 -0.195391 -0.130907
8 2 8.67897 -0.196987 1.48118 8.67897 -0.196987 1.48118
9 2 8.66846 -0.194258 -1.75548 8.66846 -0.194258 -1.75548
10 1 9.59733 1.56291 -0.13872 9.59733 1.56291 -0.13872
11 2 11.5277 1.5642 1.47441 11.5277 1.5642 1.47441
12 2 11.5188 1.56127 -1.76226 11.5188 1.56127 -1.76226
13 1 12.4468 -0.195993 -0.144921 12.4468 -0.195993 -0.144921
14 2 14.3741 -0.19522 1.47191 14.3741 -0.19522 1.47191
15 2 14.3714 -0.197292 -1.76477 14.3714 -0.197292 -1.76477
16 1 15.2963 1.56228 -0.148335 15.2963 1.56228 -0.148335
17 2 17.2235 1.56511 1.46866 17.2235 1.56511 1.46866
18 2 17.2211 1.55915 -1.76802 17.2211 1.55915 -1.76802
19 1 18.1458 -0.196576 -0.147193 18.1458 -0.196576 -0.147193
20 2 20.0751 -0.194308 1.46723 20.0751 -0.194308 1.46723
21 2 20.0684 -0.199199 -1.76943 20.0684 -0.199199 -1.76943
22 1 20.9954 1.56182 -0.155699 20.9954 1.56182 -0.155699
23 2 22.9289 1.56446 1.45352 22.9289 1.56446 1.45352
24 2 22.9136 1.55912 -1.78312 22.9136 1.55912 -1.78312
25 1 23.8448 -0.196869 -0.166297 23.8448 -0.196869 -0.166297
26 2 25.7817 -0.193687 1.43891 25.7817 -0.193687 1.43891
27 2 25.7598 -0.200105 -1.79768 25.7598 -0.200105 -1.79768
28 1 26.6944 1.56171 -0.189111 26.6944 1.56171 -0.189111
29 2 28.6308 1.56385 1.41667 28.6308 1.56385 1.41667
30 2 28.6098 1.55985 -1.81993 28.6098 1.55985 -1.81993
31 1 29.5438 -0.196754 -0.205373 29.5438 -0.196754 -0.205373
32 2 31.4755 -0.192448 1.40619 31.4755 -0.192448 1.40619
33 2 31.4641 -0.200784 -1.83044 31.4641 -0.200784 -1.83044
34 1 32.3935 1.56204 -0.219731 32.3935 1.56204 -0.219731
35 2 34.3176 1.56375 1.40082 34.3176 1.56375 1.40082
36 2 34.3213 1.5609 -1.83585 34.3213 1.5609 -1.83585
37 1 35.243 -0.196241 -0.214737 35.243 -0.196241 -0.214737
38 2 37.1604 -0.192246 1.41376 37.1604 -0.192246 1.41376
39 2 37.1775 -0.199759 -1.82286 37.1775 -0.199759 -1.82286
40 1 38.0926 1.56267 -0.203599 38.0926 1.56267 -0.203599
41 2 40.0052 1.5631 1.43046 40.0052 1.5631 1.43046
42 2 40.0318 1.56286 -1.80611 40.0318 1.56286 -1.80611
43 1 40.9421 -0.195566 -0.179963 40.9421 -0.195566 -0.179963
44 2 42.8548 -0.194054 1.45393 42.8548 -0.194054 1.45393
45 2 42.8812 -0.196684 -1.78264 42.8812 -0.196684 -1.78264
46 1 43.7917 1.56326 -0.158225 43.7917 1.56326 -0.158225
47 2 45.7059 1.56215 1.47388 45.7059 1.56215 1.47388
48 2 45.7293 1.56479 -1.76272 45.7293 1.56479 -1.76272
49 1 46.6412 -0.195102 -0.139137 46.6412 -0.195102 -0.139137
50 2 48.5599 -0.196528 1.48762 48.5599 -0.196528 1.48762
51 2 48.5743 -0.193568 -1.74901 48.5743 -0.193568 -1.74901
52 1 49.4908 1.56354 -0.125046 49.4908 1.56354 -0.125046
53 2 51.4137 1.56196 1.49673 51.4137 1.56196 1.49673
54 2 51.4197 1.56524 -1.73995 51.4197 1.56524 -1.73995
55 1 1.04878 3.32207 -0.118219 1.04878 3.32207 -0.118219
56 2 2.97684 3.32257 1.49753 2.97684 3.32257 1.49753
57 2 2.97258 3.32148 -1.73917 2.97258 3.32148 -1.73917
58 1 3.89847 5.08045 -0.122725 3.89847 5.08045 -0.122725
59 2 5.83073 5.08437 1.48804 5.83073 5.08437 1.48804
60 2 5.818 5.07633 -1.74863 5.818 5.07633 -1.74863
61 1 6.74789 3.32176 -0.129686 6.74789 3.32176 -0.129686
62 2 8.6804 3.32401 1.48083 8.6804 3.32401 1.48083
63 2 8.66719 3.31914 -1.75585 8.66719 3.31914 -1.75585
64 1 9.59752 5.07996 -0.144013 9.59752 5.07996 -0.144013
65 2 11.5289 5.08495 1.46783 11.5289 5.08495 1.46783
66 2 11.5179 5.07459 -1.76883 11.5179 5.07459 -1.76883
67 1 12.4469 3.32116 -0.148078 12.4469 3.32116 -0.148078
68 2 14.3754 3.32475 1.46736 14.3754 3.32475 1.46736
69 2 14.3703 3.31714 -1.76933 14.3703 3.31714 -1.76933
70 1 15.2966 5.07934 -0.156605 15.2966 5.07934 -0.156605
71 2 17.2238 5.08401 1.46022 17.2238 5.08401 1.46022
72 2 17.2211 5.07433 -1.77646 17.2211 5.07433 -1.77646
73 1 18.1459 3.32058 -0.153645 18.1459 3.32058 -0.153645
74 2 20.0751 3.32382 1.46085 20.0751 3.32382 1.46085
75 2 20.0686 3.31706 -1.77583 20.0686 3.31706 -1.77583
76 1 20.9956 5.07887 -0.163103 20.9956 5.07887 -0.163103
77 2 22.9279 5.08085 1.44762 22.9279 5.08085 1.44762
78 2 22.9151 5.07678 -1.78904 22.9151 5.07678 -1.78904
79 1 23.845 3.32027 -0.172115 23.845 3.32027 -0.172115
80 2 25.7813 3.3215 1.43377 25.7813 3.3215 1.43377
81 2 25.7605 3.31906 -1.80286 25.7605 3.31906 -1.80286
82 1 26.6946 5.07875 -0.191841 26.6946 5.07875 -0.191841
83 2 28.6297 5.07722 1.41551 28.6297 5.07722 1.41551
84 2 28.6113 5.08055 -1.82112 28.6113 5.08055 -1.82112
85 1 29.544 3.32039 -0.209725 29.544 3.32039 -0.209725
86 2 31.4752 3.31978 1.40231 31.4752 3.31978 1.40231
87 2 31.4647 3.32137 -1.83436 31.4647 3.32137 -1.83436
88 1 32.3937 5.07911 -0.218067 32.3937 5.07911 -0.218067
89 2 34.3168 5.07473 1.4037 34.3168 5.07473 1.4037
90 2 34.3225 5.08403 -1.83297 34.3225 5.08403 -1.83297
91 1 35.2432 3.32091 -0.217843 35.2432 3.32091 -0.217843
92 2 37.1597 3.3189 1.41165 37.1597 3.3189 1.41165
93 2 37.1785 3.32346 -1.82498 37.1785 3.32346 -1.82498
94 1 38.0929 5.07972 -0.198678 38.0929 5.07972 -0.198678
95 2 40.0049 5.07453 1.43596 40.0049 5.07453 1.43596
96 2 40.0325 5.08545 -1.8006 40.0325 5.08545 -1.8006
97 1 40.9422 3.32154 -0.180259 40.9422 3.32154 -0.180259
98 2 42.8539 3.31899 1.45487 42.8539 3.31899 1.45487
99 2 42.8823 3.32454 -1.7817 42.8823 3.32454 -1.7817
100 1 43.7919 5.08025 -0.152207 43.7919 5.08025 -0.152207
101 2 45.7066 5.07713 1.47927 45.7066 5.07713 1.47927
102 2 45.7289 5.08378 -1.75736 45.7289 5.08378 -1.75736
103 1 46.6413 3.32198 -0.136315 46.6413 3.32198 -0.136315
104 2 48.5597 3.32046 1.49082 48.5597 3.32046 1.49082
105 2 48.5747 3.32371 -1.74585 48.5747 3.32371 -1.74585
106 1 49.491 5.08054 -0.121482 49.491 5.08054 -0.121482
107 2 51.4154 5.08143 1.49854 51.4154 5.08143 1.49854
108 2 51.4183 5.07978 -1.73817 51.4183 5.07978 -1.73817
109 1 1.04908 6.83903 -0.1199 1.04908 6.83903 -0.1199
110 2 2.97956 6.84398 1.49297 2.97956 6.84398 1.49297
111 2 2.97041 6.83398 -1.74372 2.97041 6.83398 -1.74372
112 1 3.89886 8.59744 -0.133458 3.89886 8.59744 -0.133458
113 2 5.83306 8.60634 1.47496 5.83306 8.60634 1.47496
114 2 5.81647 8.58825 -1.76163 5.81647 8.58825 -1.76163
115 1 6.74817 6.83872 -0.138394 6.74817 6.83872 -0.138394
116 2 8.68171 6.84579 1.47087 8.68171 6.84579 1.47087
117 2 8.6664 6.83126 -1.76577 8.6664 6.83126 -1.76577
118 1 9.5979 8.59695 -0.159795 9.5979 8.59695 -0.159795
119 2 11.5293 8.60597 1.45205 11.5293 8.60597 1.45205
120 2 11.5183 8.58743 -1.78456 11.5183 8.58743 -1.78456
121 1 12.4472 6.83812 -0.159359 12.4472 6.83812 -0.159359
122 2 14.3758 6.8447 1.4559 14.3758 6.8447 1.4559
123 2 14.3704 6.83111 -1.78078 14.3704 6.83111 -1.78078
124 1 15.297 8.59632 -0.171422 15.297 8.59632 -0.171422
125 2 17.223 8.60286 1.44684 17.223 8.60286 1.44684
126 2 17.2227 8.58938 -1.78981 17.2227 8.58938 -1.78981
127 1 18.1463 6.83755 -0.164214 18.1463 6.83755 -0.164214
128 2 20.0741 6.84147 1.4519 20.0741 6.84147 1.4519
129 2 20.0702 6.83334 -1.78479 20.0702 6.83334 -1.78479
130 1 20.996 8.59587 -0.17207 20.996 8.59587 -0.17207
131 2 22.9256 8.59742 1.4419 22.9256 8.59742 1.4419
132 2 22.9183 8.59412 -1.79476 22.9183 8.59412 -1.79476
133 1 23.8453 6.83723 -0.176668 23.8453 6.83723 -0.176668
134 2 25.7793 6.83645 1.43191 25.7793 6.83645 1.43191
135 2 25.7631 6.83802 -1.80475 25.7631 6.83802 -1.80475
136 1 26.6951 8.59575 -0.190306 26.6951 8.59575 -0.190306
137 2 28.6271 8.59099 1.42069 28.6271 8.59099 1.42069
138 2 28.6149 8.6007 -1.81595 28.6149 8.6007 -1.81595
139 1 29.5444 6.83736 -0.206233 29.5444 6.83736 -0.206233
140 2 31.4736 6.83184 1.40816 31.4736 6.83184 1.40816
141 2 31.467 6.84326 -1.82851 31.467 6.84326 -1.82851
142 1 32.3942 8.59613 -0.205822 32.3942 8.59613 -0.205822
143 2 34.3153 8.58651 1.41822 34.3153 8.58651 1.41822
144 2 34.3249 8.60619 -1.81838 34.3249 8.60619 -1.81838
145 1 35.2435 6.8379 -0.207827 35.2435 6.8379 -0.207827
146 2 37.1592 6.82987 1.42261 37.1592 6.82987 1.42261
147 2 37.1796 6.84642 -1.81398 37.1796 6.84642 -1.81398
148 1 38.0933 8.59671 -0.180768 38.0933 8.59671 -0.180768
149 2 40.0059 8.58678 1.45323 40.0059 8.58678 1.45323
150 2 40.0324 8.60707 -1.78328 40.0324 8.60707 -1.78328
151 1 40.9425 6.83847 -0.168404 40.9425 6.83847 -0.168404
152 2 42.8551 6.83212 1.46561 42.8551 6.83212 1.46561
153 2 42.8817 6.84525 -1.77097 42.8817 6.84525 -1.77097
154 1 43.7922 8.59721 -0.137878 43.7922 8.59721 -0.137878
155 2 45.7102 8.59287 1.48979 45.7102 8.59287 1.48979
156 2 45.7261 8.60188 -1.74686 45.7261 8.60188 -1.74686
157 1 46.6416 6.8389 -0.129011 46.6416 6.8389 -0.129011
158 2 48.5625 6.83815 1.49511 48.5625 6.83815 1.49511
159 2 48.5724 6.83987 -1.74159 48.5724 6.83987 -1.74159
160 1 49.4914 8.59752 -0.119443 49.4914 8.59752 -0.119443
161 2 51.4198 8.6014 1.49588 51.4198 8.6014 1.49588
162 2 51.4148 8.5937 -1.74081 51.4148 8.5937 -1.74081
163 1 1.04959 10.3561 -0.128019 1.04959 10.3561 -0.128019
164 2 2.98391 10.3649 1.48026 2.98391 10.3649 1.48026
165 2 2.96715 10.3473 -1.75633 2.96715 10.3473 -1.75633
166 1 3.89942 12.1146 -0.152332 3.89942 12.1146 -0.152332
167 2 5.83598 12.1267 1.45325 5.83598 12.1267 1.45325
168 2 5.81472 12.1023 -1.78325 5.81472 12.1023 -1.78325
169 1 6.74864 10.3558 -0.157935 6.74864 10.3558 -0.157935
170 2 8.68276 10.3672 1.45063 8.68276 10.3672 1.45063
171 2 8.66639 10.344 -1.78592 8.66639 10.344 -1.78592
172 1 9.59845 12.1141 -0.184931 9.59845 12.1141 -0.184931
173 2 11.529 12.1262 1.42797 11.529 12.1262 1.42797
174 2 11.5198 12.1016 -1.80859 11.5198 12.1016 -1.80859
175 1 12.4477 10.3552 -0.179534 12.4477 10.3552 -0.179534
176 2 14.3751 10.3647 1.43717 14.3751 10.3647 1.43717
177 2 14.3722 10.3453 -1.79944 14.3722 10.3453 -1.79944
178 1 15.2976 12.1135 -0.192514 15.2976 12.1135 -0.192514
179 2 17.2212 12.1219 1.42865 17.2212 12.1219 1.42865
180 2 17.2259 12.1047 -1.80796 17.2259 12.1047 -1.80796
181 1 18.1468 10.3546 -0.178973 18.1468 10.3546 -0.178973
182 2 20.072 10.3596 1.4403 20.072 10.3596 1.4403
183 2 20.0735 10.3495 -1.79635 20.0735 10.3495 -1.79635
184 1 20.9967 12.1131 -0.183213 20.9967 12.1131 -0.183213
185 2 22.9223 12.1149 1.4355 22.9223 12.1149 1.4355
186 2 22.923 12.1111 -1.80116 22.923 12.1111 -1.80116
187 1 23.8459 10.3543 -0.180462 23.8459 10.3543 -0.180462
188 2 25.7761 10.3522 1.43268 25.7761 10.3522 1.43268
189 2 25.7675 10.3565 -1.80397 25.7675 10.3565 -1.80397
190 1 26.6958 12.113 -0.185961 26.6958 12.113 -0.185961
191 2 28.6233 12.1063 1.43045 28.6233 12.1063 1.43045
192 2 28.6201 12.1198 -1.80618 28.6201 12.1198 -1.80618
193 1 29.545 10.3545 -0.195912 29.545 10.3545 -0.195912
194 2 31.4709 10.3453 1.42244 31.4709 10.3453 1.42244
195 2 31.471 10.3641 -1.81417 31.471 10.3641 -1.81417
196 1 32.3949 12.1133 -0.18569 32.3949 12.1133 -0.18569
197 2 34.3136 12.1009 1.4412 34.3136 12.1009 1.4412
198 2 34.328 12.1263 -1.79533 34.328 12.1263 -1.79533
199 1 35.2441 10.355 -0.186598 35.2441 10.355 -0.186598
200 2 37.1591 10.3428 1.44469 37.1591 10.3428 1.44469
201 2 37.1809 10.3678 -1.79181 37.1809 10.3678 -1.79181
202 1 38.0939 12.1139 -0.153698 38.0939 12.1139 -0.153698
203 2 40.0081 12.1019 1.47849 40.0081 12.1019 1.47849
204 2 40.0315 12.1263 -1.75801 40.0315 12.1263 -1.75801
205 1 40.943 10.3555 -0.146367 40.943 10.3555 -0.146367
206 2 42.8586 10.3469 1.48419 42.8586 10.3469 1.48419
207 2 42.8793 10.3646 -1.75238 42.8793 10.3646 -1.75238
208 1 43.7929 12.1144 -0.118496 43.7929 12.1144 -0.118496
209 2 45.7163 12.1102 1.50284 45.7163 12.1102 1.50284
210 2 45.7214 12.119 -1.73383 45.7214 12.119 -1.73383
211 1 46.6421 10.356 -0.119033 46.6421 10.356 -0.119033
212 2 48.5683 10.3564 1.49892 48.5683 10.3564 1.49892
213 2 48.5678 10.3558 -1.73777 48.5678 10.3558 -1.73777
214 1 49.492 12.1147 -0.119819 49.492 12.1147 -0.119819
215 2 51.4261 12.1207 1.48874 51.4261 12.1207 1.48874
216 2 51.4098 12.1089 -1.74788 51.4098 12.1089 -1.74788
217 1 1.05023 13.8734 -0.140529 1.05023 13.8734 -0.140529
218 2 2.98899 13.8835 1.46238 2.98899 13.8835 1.46238
219 2 2.96328 13.8632 -1.77414 2.96328 13.8632 -1.77414
220 1 3.89999 15.6318 -0.174134 3.89999 15.6318 -0.174134
221 2 5.83906 15.6438 1.42839 5.83906 15.6438 1.42839
222 2 5.81272 15.6196 -1.8081 5.81272 15.6196 -1.8081
223 1 6.74921 13.873 -0.184257 6.74921 13.873 -0.184257
224 2 8.68383 13.8863 1.42367 8.68383 13.8863 1.42367
225 2 8.66648 13.8594 -1.81284 8.66648 13.8594 -1.81284
226 1 9.59903 15.6312 -0.214096 9.59903 15.6312 -0.214096
227 2 11.5286 15.644 1.39992 11.5286 15.644 1.39992
228 2 11.5214 15.6181 -1.83665 11.5214 15.6181 -1.83665
229 1 12.4483 13.8724 -0.206314 12.4483 13.8724 -0.206314
230 2 14.3736 13.8837 1.41284 14.3736 13.8837 1.41284
231 2 14.375 13.8607 -1.82374 14.375 13.8607 -1.82374
232 1 15.2982 15.6306 -0.217581 15.2982 15.6306 -0.217581
233 2 17.2188 15.6399 1.40721 17.2188 15.6399 1.40721
234 2 17.2296 15.6211 -1.82939 17.2296 15.6211 -1.82939
235 1 18.1474 13.8718 -0.197709 18.1474 13.8718 -0.197709
236 2 20.069 13.8779 1.42585 20.069 13.8779 1.42585
237 2 20.0778 13.8656 -1.81078 20.0778 13.8656 -1.81078
238 1 20.9973 15.6303 -0.196771 20.9973 15.6303 -0.196771
239 2 22.9181 15.6327 1.42768 22.9181 15.6327 1.42768
240 2 22.9284 15.6277 -1.80898 22.9284 15.6277 -1.80898
241 1 23.8466 13.8716 -0.184917 23.8466 13.8716 -0.184917
242 2 25.7717 13.8693 1.43434 25.7717 13.8693 1.43434
243 2 25.7733 13.874 -1.80232 25.7733 13.874 -1.80232
244 1 26.6965 15.6302 -0.181152 26.6965 15.6302 -0.181152
245 2 28.6186 15.6237 1.44169 28.6186 15.6237 1.44169
246 2 28.6262 15.637 -1.79495 28.6262 15.637 -1.79495
247 1 29.5457 13.8717 -0.181562 29.5457 13.8717 -0.181562
248 2 31.4675 13.8613 1.44166 31.4675 13.8613 1.44166
249 2 31.4757 13.8826 -1.79493 31.4757 13.8826 -1.79493
250 1 32.3955 15.6305 -0.162796 32.3955 15.6305 -0.162796
251 2 34.3119 15.6186 1.46688 34.3119 15.6186 1.46688
252 2 34.331 15.643 -1.76967 34.331 15.643 -1.76967
253 1 35.2447 13.8722 -0.15915 35.2447 13.8722 -0.15915
254 2 37.1594 13.8591 1.47259 37.1594 13.8591 1.47259
255 2 37.1819 13.8859 -1.76389 37.1819 13.8859 -1.76389
256 1 38.0945 15.6311 -0.124711 38.0945 15.6311 -0.124711
257 2 40.0111 15.6207 1.50479 40.0111 15.6207 1.50479
258 2 40.0298 15.642 -1.73178 40.0298 15.642 -1.73178
259 1 40.9437 13.8727 -0.119791 40.9437 13.8727 -0.119791
260 2 42.8635 13.8645 1.50577 42.8635 13.8645 1.50577
261 2 42.8757 13.8816 -1.73085 42.8757 13.8816 -1.73085
262 1 43.7936 15.6316 -0.0997889 43.7936 15.6316 -0.0997889
263 2 45.7229 15.629 1.51452 45.7229 15.629 1.51452
264 2 45.7162 15.6348 -1.72217 45.7162 15.6348 -1.72217
265 1 46.6428 13.8732 -0.109138 46.6428 13.8732 -0.109138
266 2 48.5755 13.8748 1.50107 48.5755 13.8748 1.50107
267 2 48.562 13.872 -1.73559 48.562 13.872 -1.73559
268 1 49.4927 15.632 -0.122581 49.4927 15.632 -0.122581
269 2 51.4325 15.6383 1.47907 51.4325 15.6383 1.47907
270 2 51.4047 15.6258 -1.75749 51.4047 15.6258 -1.75749
271 1 1.0508 17.3905 -0.153847 1.0508 17.3905 -0.153847
272 2 2.99348 17.3992 1.44428 2.99348 17.3992 1.44428
273 2 2.9598 17.3817 -1.79219 2.9598 17.3817 -1.79219
274 1 3.90046 19.1489 -0.19295 3.90046 19.1489 -0.19295
275 2 5.84178 19.1577 1.40684 5.84178 19.1577 1.40684
276 2 5.8109 19.1397 -1.82964 5.8109 19.1397 -1.82964
277 1 6.74972 17.3901 -0.210393 6.74972 17.3901 -0.210393
278 2 8.68515 17.4019 1.39653 8.68515 17.4019 1.39653
279 2 8.66616 17.3779 -1.84001 8.66616 17.3779 -1.84001
280 1 9.59951 19.1483 -0.240059 9.59951 19.1483 -0.240059
281 2 11.5287 19.1584 1.37444 11.5287 19.1584 1.37444
282 2 11.5223 19.1378 -1.86216 11.5223 19.1378 -1.86216
283 1 12.4489 17.3894 -0.234399 12.4489 17.3894 -0.234399
284 2 14.3721 17.4002 1.38716 14.3721 17.4002 1.38716
285 2 14.3776 17.3783 -1.84943 14.3776 17.3783 -1.84943
286 1 15.2988 19.1477 -0.241408 15.2988 19.1477 -0.241408
287 2 17.2164 19.1553 1.38675 17.2164 19.1553 1.38675
288 2 17.2331 19.1397 -1.84984 17.2331 19.1397 -1.84984
289 1 18.1481 17.3889 -0.218241 18.1481 17.3889 -0.218241
290 2 20.0656 17.395 1.41001 20.0656 17.395 1.41001
291 2 20.0824 17.3827 -1.82659 20.0824 17.3827 -1.82659
292 1 20.9979 19.1473 -0.210211 20.9979 19.1473 -0.210211
293 2 22.914 19.1493 1.41982 22.914 19.1493 1.41982
294 2 22.9338 19.1452 -1.8168 22.9338 19.1452 -1.8168
295 1 23.8472 17.3887 -0.190539 23.8472 17.3887 -0.190539
296 2 25.7667 17.3869 1.4354 25.7667 17.3869 1.4354
297 2 25.7796 17.3906 -1.80126 25.7796 17.3906 -1.80126
298 1 26.697 19.1472 -0.177378 26.697 19.1472 -0.177378
299 2 28.6141 19.1423 1.4514 28.6141 19.1423 1.4514
300 2 28.6318 19.1525 -1.78522 28.6318 19.1525 -1.78522
301 1 29.5463 17.3888 -0.167346 29.5463 17.3888 -0.167346
302 2 31.464 17.3799 1.46072 31.464 17.3799 1.46072
303 2 31.4804 17.3982 -1.77587 31.4804 17.3982 -1.77587
304 1 32.3961 19.1476 -0.143037 32.3961 19.1476 -0.143037
305 2 34.3108 19.1391 1.48866 34.3108 19.1391 1.48866
306 2 34.3331 19.1566 -1.74791 34.3331 19.1566 -1.74791
307 1 35.2453 17.3893 -0.132768 35.2453 17.3893 -0.132768
308 2 37.1601 17.3791 1.49877 37.1601 17.3791 1.49877
309 2 37.1822 17.4001 -1.73778 37.1822 17.4001 -1.73778
310 1 38.0951 19.1481 -0.101796 38.0951 19.1481 -0.101796
311 2 40.0141 19.1421 1.52481 40.0141 19.1421 1.52481
312 2 40.0279 19.1548 -1.71182 40.0279 19.1548 -1.71182
313 1 40.9443 17.3899 -0.0966568 40.9443 17.3899 -0.0966568
314 2 42.8685 17.3846 1.52386 42.8685 17.3846 1.52386
315 2 42.8721 17.3958 -1.71281 42.8721 17.3958 -1.71281
316 1 43.7942 19.1487 -0.0873693 43.7942 19.1487 -0.0873693
317 2 45.7282 19.1482 1.5214 45.7282 19.1482 1.5214
318 2 45.7121 19.1498 -1.71525 45.7121 19.1498 -1.71525
319 1 46.6435 17.3904 -0.102569 46.6435 17.3904 -0.102569
320 2 48.5819 17.3927 1.50076 48.5819 17.3927 1.50076
321 2 48.5568 17.3885 -1.73583 48.5568 17.3885 -1.73583
322 1 49.4933 19.1491 -0.126948 49.4933 19.1491 -0.126948
323 2 51.4373 19.154 1.46955 51.4373 19.154 1.46955
324 2 51.4009 19.1442 -1.76692 51.4009 19.1442 -1.76692
325 1 1.05126 20.9076 -0.164316 1.05126 20.9076 -0.164316
326 2 2.99664 20.9129 1.43055 2.99664 20.9129 1.43055
327 2 2.95753 20.9021 -1.80589 2.95753 20.9021 -1.80589
328 1 3.90082 22.666 -0.204614 3.90082 22.666 -0.204614
329 2 5.84368 22.67 1.39335 5.84368 22.67 1.39335
330 2 5.80973 22.6615 -1.84313 5.80973 22.6615 -1.84313
331 1 6.75014 20.9071 -0.229871 6.75014 20.9071 -0.229871
332 2 8.6866 20.9146 1.37584 8.6866 20.9146 1.37584
333 2 8.66557 20.8993 -1.86074 8.66557 20.8993 -1.86074
334 1 9.59988 22.6654 -0.256591 9.59988 22.6654 -0.256591
335 2 11.5291 22.6701 1.35786 11.5291 22.6701 1.35786
336 2 11.5227 22.6601 -1.87878 11.5227 22.6601 -1.87878
337 1 12.4494 20.9065 -0.256711 12.4494 20.9065 -0.256711
338 2 14.3712 20.9136 1.36646 14.3712 20.9136 1.36646
339 2 14.3795 20.8989 -1.87017 14.3795 20.8989 -1.87017
340 1 15.2992 22.6647 -0.257351 15.2992 22.6647 -0.257351
341 2 17.2149 22.6682 1.37314 17.2149 22.6682 1.37314
342 2 17.2355 22.6609 -1.86345 17.2355 22.6609 -1.86345
343 1 18.1486 20.906 -0.23522 18.1486 20.906 -0.23522
344 2 20.0627 20.9097 1.39706 20.0627 20.9097 1.39706
345 2 20.0864 20.902 -1.83952 20.0864 20.902 -1.83952
346 1 20.9984 22.6643 -0.218644 20.9984 22.6643 -0.218644
347 2 22.911 22.6645 1.41532 22.911 22.6645 1.41532
348 2 22.9375 22.6641 -1.82124 22.9375 22.6641 -1.82124
349 1 23.8477 20.9057 -0.195094 23.8477 20.9057 -0.195094
350 2 25.7626 20.9042 1.43624 25.7626 20.9042 1.43624
351 2 25.7847 20.9073 -1.80037 25.7847 20.9073 -1.80037
352 1 26.6974 22.6643 -0.174177 26.6974 22.6643 -0.174177
353 2 28.6114 22.6615 1.45825 28.6114 22.6615 1.45825
354 2 28.6352 22.6674 -1.77834 28.6352 22.6674 -1.77834
355 1 29.5468 20.9059 -0.156444 29.5468 20.9059 -0.156444
356 2 31.4615 20.9003 1.4752 31.4615 20.9003 1.4752
357 2 31.4839 20.9119 -1.7614 31.4839 20.9119 -1.7614
358 1 32.3964 22.6647 -0.130468 32.3964 22.6647 -0.130468
359 2 34.3105 22.6611 1.50197 34.3105 22.6611 1.50197
360 2 34.3342 22.6687 -1.73461 34.3342 22.6687 -1.73461
361 1 35.2458 20.9064 -0.113806 35.2458 20.9064 -0.113806
362 2 37.1614 20.9011 1.51682 37.1614 20.9011 1.51682
363 2 37.1819 20.9122 -1.71979 37.1819 20.9122 -1.71979
364 1 38.0955 22.6653 -0.0896573 38.0955 22.6653 -0.0896573
365 2 40.0166 22.6642 1.53453 40.0166 22.6642 1.53453
366 2 40.0263 22.667 -1.70213 40.0263 22.667 -1.70213
367 1 40.9449 20.907 -0.0827365 40.9449 20.907 -0.0827365
368 2 42.8722 20.9055 1.53396 42.8722 20.9055 1.53396
369 2 42.8694 20.9091 -1.70273 42.8694 20.9091 -1.70273
370 1 43.7946 22.6659 -0.0833053 43.7946 22.6659 -0.0833053
371 2 45.731 22.6671 1.52263 45.731 22.6671 1.52263
372 2 45.7102 22.6651 -1.71397 45.7102 22.6651 -1.71397
373 1 46.644 20.9075 -0.100675 46.644 20.9075 -0.100675
374 2 48.586 20.9097 1.49842 48.586 20.9097 1.49842
375 2 48.5538 20.9056 -1.73811 48.5538 20.9056 -1.73811
376 1 49.4937 22.6662 -0.13119 49.4937 22.6662 -0.13119
377 2 51.4398 22.6688 1.46274 51.4398 22.6688 1.46274
378 2 51.3992 22.6636 -1.77368 51.3992 22.6636 -1.77368
379 1 1.05153 24.4247 -0.169847 1.05153 24.4247 -0.169847
380 2 2.99804 24.4261 1.42369 2.99804 24.4261 1.42369
381 2 2.95669 24.4231 -1.81272 2.95669 24.4231 -1.81272
382 1 3.90096 26.1831 -0.207914 3.90096 26.1831 -0.207914
383 2 5.84413 26.1822 1.3897 5.84413 26.1822 1.3897
384 2 5.80956 26.1836 -1.84679 5.80956 26.1836 -1.84679
385 1 6.7504 24.4243 -0.239085 6.7504 24.4243 -0.239085
386 2 8.68751 24.4259 1.36589 8.68751 24.4259 1.36589
387 2 8.66521 24.4222 -1.8707 8.66521 24.4222 -1.8707
388 1 9.60003 26.1826 -0.260674 9.60003 26.1826 -0.260674
389 2 11.5293 26.1811 1.35377 11.5293 26.1811 1.35377
390 2 11.5228 26.1835 -1.88289 11.5228 26.1835 -1.88289
391 1 12.4497 24.4236 -0.267574 12.4497 24.4236 -0.267574
392 2 14.3709 24.425 1.35633 14.3709 24.425 1.35633
393 2 14.3804 24.4217 -1.88033 14.3804 24.4217 -1.88033
394 1 15.2994 26.1819 -0.260947 15.2994 26.1819 -0.260947
395 2 17.2142 26.18 1.37053 17.2142 26.18 1.37053
396 2 17.2364 26.1834 -1.86607 17.2364 26.1834 -1.86607
397 1 18.1489 24.4231 -0.243112 18.1489 24.4231 -0.243112
398 2 20.061 24.4229 1.3916 20.061 24.4229 1.3916
399 2 20.0887 24.4229 -1.84496 20.0887 24.4229 -1.84496
400 1 20.9985 26.1815 -0.218718 20.9985 26.1815 -0.218718
401 2 22.91 26.1794 1.41659 22.91 26.1794 1.41659
402 2 22.9388 26.1834 -1.81997 22.9388 26.1834 -1.81997
403 1 23.848 24.4228 -0.195603 23.848 24.4228 -0.195603
404 2 25.7608 24.4213 1.43827 25.7608 24.4213 1.43827
405 2 25.7871 24.4244 -1.79831 25.7871 24.4244 -1.79831
406 1 26.6975 26.1814 -0.170827 26.6975 26.1814 -0.170827
407 2 28.6111 26.1807 1.46214 28.6111 26.1807 1.46214
408 2 28.6358 26.1824 -1.77445 28.6358 26.1824 -1.77445
409 1 29.547 24.423 -0.1501 29.547 24.423 -0.1501
410 2 31.4606 24.4214 1.48287 31.4606 24.4214 1.48287
411 2 31.4852 24.425 -1.75373 31.4852 24.425 -1.75373
412 1 32.3965 26.1818 -0.126437 32.3965 26.1818 -0.126437
413 2 34.3111 26.183 1.50543 34.3111 26.183 1.50543
414 2 34.3338 26.1811 -1.73118 34.3338 26.1811 -1.73118
415 1 35.246 24.4236 -0.105503 35.246 24.4236 -0.105503
416 2 37.1628 24.4236 1.52387 37.1628 24.4236 1.52387
417 2 37.1812 24.4241 -1.71276 37.1812 24.4241 -1.71276
418 1 38.0956 26.1825 -0.0889374 38.0956 26.1825 -0.0889374
419 2 40.0179 26.1855 1.53387 40.0179 26.1855 1.53387
420 2 40.0253 26.1801 -1.7028 40.0253 26.1801 -1.7028
421 1 40.9452 24.4242 -0.079575 40.9452 24.4242 -0.079575
422 2 42.8741 24.426 1.53522 42.8741 24.426 1.53522
423 2 42.8681 24.4229 -1.70145 42.8681 24.4229 -1.70145
424 1 43.7948 26.1831 -0.0865804 43.7948 26.1831 -0.0865804
425 2 45.7312 26.1855 1.51925 45.7312 26.1855 1.51925
426 2 45.7103 26.1811 -1.71735 45.7103 26.1811 -1.71735
427 1 46.6443 24.4247 -0.102725 46.6443 24.4247 -0.102725
428 2 48.5872 24.4263 1.49522 48.5872 24.4263 1.49522
429 2 48.5532 24.4233 -1.74128 48.5532 24.4233 -1.74128
430 1 49.4938 26.1834 -0.134404 49.4938 26.1834 -0.134404
431 2 51.44 26.1837 1.45956 51.44 26.1837 1.45956
432 2 51.3993 26.183 -1.77686 51.3993 26.183 -1.77686
433 1 1.05152 27.9419 -0.170654 1.05152 27.9419 -0.170654
434 2 2.99734 27.9398 1.42373 2.99734 27.9398 1.42373
435 2 2.95739 27.9437 -1.8127 2.95739 27.9437 -1.8127
436 1 3.90083 29.7003 -0.203773 3.90083 29.7003 -0.203773
437 2 5.84282 29.695 1.39526 5.84282 29.695 1.39526
438 2 5.8106 29.7051 -1.84125 5.8106 29.7051 -1.84125
439 1 6.75041 27.9414 -0.237543 6.75041 27.9414 -0.237543
440 2 8.68723 27.9374 1.36777 8.68723 27.9374 1.36777
441 2 8.66549 27.945 -1.86882 8.66549 27.945 -1.86882
442 1 9.59989 29.6997 -0.252527 9.59989 29.6997 -0.252527
443 2 11.5288 29.6926 1.36229 11.5288 29.6926 1.36229
444 2 11.5229 29.7062 -1.87436 11.5229 29.7062 -1.87436
445 1 12.4496 27.9408 -0.264925 12.4496 27.9408 -0.264925
446 2 14.3708 27.9363 1.35912 14.3708 27.9363 1.35912
447 2 14.3805 27.9448 -1.87753 14.3805 27.9448 -1.87753
448 1 15.2992 29.6991 -0.251664 15.2992 29.6991 -0.251664
449 2 17.2144 29.6925 1.37939 17.2144 29.6925 1.37939
450 2 17.2358 29.7051 -1.85721 17.2358 29.7051 -1.85721
451 1 18.1489 27.9402 -0.239499 18.1489 27.9402 -0.239499
452 2 20.0607 27.9363 1.39551 20.0607 27.9363 1.39551
453 2 20.0889 27.9438 -1.84104 20.0889 27.9438 -1.84104
454 1 20.9983 29.6986 -0.210573 20.9983 29.6986 -0.210573
455 2 22.911 29.6949 1.42336 22.911 29.6949 1.42336
456 2 22.9373 29.702 -1.81322 22.9373 29.702 -1.81322
457 1 23.8479 27.9399 -0.191286 23.8479 27.9399 -0.191286
458 2 25.7612 27.9384 1.44199 25.7612 27.9384 1.44199
459 2 25.7865 27.9415 -1.79459 25.7865 27.9415 -1.79459
460 1 26.6973 29.6985 -0.167343 26.6973 29.6985 -0.167343
461 2 28.6126 29.6993 1.46352 28.6126 29.6993 1.46352
462 2 28.6338 29.698 -1.77311 28.6338 29.698 -1.77311
463 1 29.547 27.9401 -0.148138 29.547 27.9401 -0.148138
464 2 31.4614 27.9418 1.48382 31.4614 27.9418 1.48382
465 2 31.4843 27.9389 -1.75278 31.4843 27.9389 -1.75278
466 1 32.3963 29.699 -0.129507 32.3963 29.699 -0.129507
467 2 34.3122 29.7033 1.50079 34.3122 29.7033 1.50079
468 2 34.3323 29.6951 -1.73583 34.3323 29.6951 -1.73583
469 1 35.246 27.9407 -0.107447 35.246 27.9407 -0.107447
470 2 37.1637 27.9447 1.52077 37.1637 27.9447 1.52077
471 2 37.1802 27.9373 -1.71585 37.1802 27.9373 -1.71585
472 1 38.0954 29.6997 -0.0968542 38.0954 29.6997 -0.0968542
473 2 40.0178 29.7049 1.52567 40.0178 29.7049 1.52567
474 2 40.0248 29.695 -1.71099 40.0248 29.695 -1.71099
475 1 40.9451 27.9415 -0.0853224 40.9451 27.9415 -0.0853224
476 2 42.874 27.9453 1.52952 42.874 27.9453 1.52952
477 2 42.8681 27.938 -1.70714 42.8681 27.938 -1.70714
478 1 43.7946 29.7003 -0.0945387 43.7946 29.7003 -0.0945387
479 2 45.7295 29.7031 1.51306 45.7295 29.7031 1.51306
480 2 45.7115 29.6977 -1.72357 45.7115 29.6977 -1.72357
481 1 46.6443 27.9419 -0.107468 46.6443 27.9419 -0.107468
482 2 48.586 27.9429 1.49184 48.586 27.9429 1.49184
483 2 48.5543 27.9409 -1.74467 48.5543 27.9409 -1.74467
484 1 49.4936 29.7005 -0.136618 49.4936 29.7005 -0.136618
485 2 51.4379 29.699 1.4596 51.4379 29.699 1.4596
486 2 51.401 29.7018 -1.77687 51.401 29.7018 -1.77687
487 1 1.05123 31.4589 -0.167671 1.05123 31.4589 -0.167671
488 2 2.99473 31.4541 1.42951 2.99473 31.4541 1.42951
489 2 2.95944 31.4635 -1.80696 2.95944 31.4635 -1.80696
490 1 3.90048 33.2173 -0.193749 3.90048 33.2173 -0.193749
491 2 5.84012 33.209 1.40811 5.84012 33.209 1.40811
492 2 5.8126 33.2252 -1.82841 5.8126 33.2252 -1.82841
493 1 6.75016 31.4585 -0.226672 6.75016 31.4585 -0.226672
494 2 8.68579 31.4501 1.38007 8.68579 31.4501 1.38007
495 2 8.6664 31.4665 -1.85652 8.6664 31.4665 -1.85652
496 1 9.59953 33.2168 -0.23479 9.59953 33.2168 -0.23479
497 2 11.5279 33.206 1.38071 11.5279 33.206 1.38071
498 2 11.5231 33.227 -1.85591 11.5231 33.227 -1.85591
499 1 12.4494 31.4579 -0.250231 12.4494 31.4579 -0.250231
500 2 14.3708 31.4488 1.37352 14.3708 31.4488 1.37352
501 2 14.3799 31.4664 -1.86311 14.3799 31.4664 -1.86311
502 1 15.2987 33.2161 -0.232498 15.2987 33.2161 -0.232498
503 2 17.2153 33.2067 1.39694 17.2153 33.2067 1.39694
504 2 17.234 33.2249 -1.83965 17.234 33.2249 -1.83965
505 1 18.1485 31.4573 -0.225869 18.1485 31.4573 -0.225869
506 2 20.0619 31.4508 1.40734 20.0619 31.4508 1.40734
507 2 20.087 31.4633 -1.82923 20.087 31.4633 -1.82923
508 1 20.9978 33.2156 -0.196898 20.9978 33.2156 -0.196898
509 2 22.9134 33.2113 1.43359 22.9134 33.2113 1.43359
510 2 22.9339 33.2196 -1.80304 22.9339 33.2196 -1.80304
511 1 23.8475 31.457 -0.18348 23.8475 31.457 -0.18348
512 2 25.7634 31.4556 1.4468 25.7634 31.4556 1.4468
513 2 25.7835 31.4584 -1.78984 25.7835 31.4584 -1.78984
514 1 26.6968 33.2156 -0.164212 26.6968 33.2156 -0.164212
515 2 28.6153 33.2174 1.46288 28.6153 33.2174 1.46288
516 2 28.6301 33.2139 -1.77378 28.6301 33.2139 -1.77378
517 1 29.5466 31.4572 -0.149421 29.5466 31.4572 -0.149421
518 2 31.4633 31.4609 1.47987 31.4633 31.4609 1.47987
519 2 31.4817 31.4539 -1.75677 31.4817 31.4539 -1.75677
520 1 32.3959 33.216 -0.136935 32.3959 33.216 -0.136935
521 2 34.3135 33.222 1.49123 34.3135 33.222 1.49123
522 2 34.33 33.2106 -1.7454 34.33 33.2106 -1.7454
523 1 35.2456 31.4579 -0.116231 35.2456 31.4579 -0.116231
524 2 37.1641 31.4638 1.51104 37.1641 31.4638 1.51104
525 2 37.1791 31.4524 -1.72559 37.1791 31.4524 -1.72559
526 1 38.0949 33.2168 -0.109221 38.0949 33.2168 -0.109221
527 2 40.017 33.2227 1.51377 40.017 33.2227 1.51377
528 2 40.0248 33.2113 -1.72288 40.0248 33.2113 -1.72288
529 1 40.9448 31.4586 -0.0961185 40.9448 31.4586 -0.0961185
530 2 42.8725 31.4632 1.52004 42.8725 31.4632 1.52004
531 2 42.8689 31.4543 -1.71663 42.8689 31.4543 -1.71663
532 1 43.7941 33.2174 -0.10421 43.7941 33.2174 -0.10421
533 2 45.7267 33.2199 1.50607 45.7267 33.2199 1.50607
534 2 45.7133 33.215 -1.73057 45.7133 33.215 -1.73057
535 1 46.6439 31.459 -0.11339 46.6439 31.459 -0.11339
536 2 48.5832 31.4593 1.4889 48.5832 31.4593 1.4889