ITEM: TIMESTEP
1145000
ITEM: NUMBER OF ATOMS
810
ITEM: BOX BOUNDS pp pp pp
8.6298438867990135e-01 5.2154620611319167e+01
-2.0135352427479463e+00 5.3029750242747525e+01
-1.0000000000000000e+01 1.0000000000000000e+01
ITEM: ATOMS id type x y z xu yu zu
1 1 1.04159 -0.801688 -0.142222 1.04159 -0.801688 -0.142222
2 2 2.97434 -0.805913 1.47754 2.97434 -0.805913 1.47754
3 2 2.9881 -0.797017 -1.74533 2.9881 -0.797017 -1.74533
4 1 3.89123 1.03327 -0.124975 3.89123 1.03327 -0.124975
5 2 5.82894 1.03194 1.48886 5.82894 1.03194 1.48886
6 2 5.83278 1.0348 -1.73406 5.83278 1.0348 -1.73406
7 1 6.74087 -0.80142 -0.123313 6.74087 -0.80142 -0.123313
8 2 8.68018 -0.80203 1.48855 8.68018 -0.80203 1.48855
9 2 8.68075 -0.801286 -1.73436 8.68075 -0.801286 -1.73436
10 1 9.59041 1.03306 -0.12229 9.59041 1.03306 -0.12229
11 2 11.5329 1.03475 1.48567 11.5329 1.03475 1.48567
12 2 11.527 1.03068 -1.73723 11.527 1.03068 -1.73723
13 1 12.4398 -0.802346 -0.125242 12.4398 -0.802346 -0.125242
14 2 14.3827 -0.799958 1.48228 14.3827 -0.799958 1.48228
15 2 14.3761 -0.805939 -1.74061 14.3761 -0.805939 -1.74061
16 1 15.2893 1.03177 -0.134392 15.2893 1.03177 -0.134392
17 2 17.2333 1.03574 1.47168 17.2333 1.03574 1.47168
18 2 17.2243 1.02659 -1.75121 17.2243 1.02659 -1.75121
19 1 18.1386 -0.804016 -0.137162 18.1386 -0.804016 -0.137162
20 2 20.0813 -0.799627 1.47038 20.0813 -0.799627 1.47038
21 2 20.0748 -0.809771 -1.75249 20.0748 -0.809771 -1.75249
22 1 20.9879 1.03005 -0.148648 20.9879 1.03005 -0.148648
23 2 22.9303 1.03492 1.45943 22.9303 1.03492 1.45943
24 2 22.9246 1.02407 -1.76345 22.9246 1.02407 -1.76345
25 1 23.8372 -0.805615 -0.147431 23.8372 -0.805615 -0.147431
26 2 25.7798 -0.800683 1.4603 25.7798 -0.800683 1.4603
27 2 25.7737 -0.81146 -1.76258 25.7737 -0.81146 -1.76258
28 1 26.6866 1.02872 -0.159041 26.6866 1.02872 -0.159041
29 2 28.6315 1.03277 1.44593 28.6315 1.03277 1.44593
30 2 28.6208 1.02416 -1.77696 28.6208 1.02416 -1.77696
31 1 29.536 -0.806425 -0.163637 29.536 -0.806425 -0.163637
32 2 31.4849 -0.803203 1.43646 31.4849 -0.803203 1.43646
33 2 31.4662 -0.809759 -1.78639 31.4662 -0.809759 -1.78639
34 1 32.3855 1.02833 -0.184029 32.3855 1.02833 -0.184029
35 2 34.3344 1.02905 1.41601 34.3344 1.02905 1.41601
36 2 34.3156 1.02796 -1.80686 34.3156 1.02796 -1.80686
37 1 35.235 -0.806101 -0.199995 35.235 -0.806101 -0.199995
38 2 37.1824 -0.807064 1.40197 37.1824 -0.807064 1.40197
39 2 37.1667 -0.804381 -1.82091 37.1667 -0.804381 -1.82091
40 1 38.0846 1.0291 -0.212353 38.0846 1.0291 -0.212353
41 2 40.0238 1.02506 1.39966 40.0238 1.02506 1.39966
42 2 40.0247 1.03425 -1.82326 40.0247 1.03425 -1.82326
43 1 40.9343 -0.804717 -0.216549 40.9343 -0.804717 -0.216549
44 2 42.8674 -0.810172 1.4028 42.8674 -0.810172 1.4028
45 2 42.8805 -0.798029 -1.82007 42.8805 -0.798029 -1.82007
46 1 43.784 1.03069 -0.198023 43.784 1.03069 -0.198023
47 2 45.7117 1.02489 1.42785 45.7117 1.02489 1.42785
48 2 45.7356 1.03782 -1.79496 45.7356 1.03782 -1.79496
49 1 46.6338 -0.80298 -0.184128 46.6338 -0.80298 -0.184128
50 2 48.5607 -0.809279 1.44259 48.5607 -0.809279 1.44259
51 2 48.5861 -0.795589 -1.7802 48.5861 -0.795589 -1.7802
52 1 49.4835 1.03232 -0.153889 49.4835 1.03232 -0.153889
53 2 51.4132 1.02775 1.46949 51.4132 1.02775 1.46949
54 2 51.433 1.03788 -1.75335 51.433 1.03788 -1.75335
55 1 1.04147 2.86756 -0.130628 1.04147 2.86756 -0.130628
56 2 2.97637 2.86556 1.4866 2.97637 2.86556 1.4866
57 2 2.98586 2.87021 -1.73629 2.98586 2.87021 -1.73629
58 1 3.8911 4.70267 -0.119528 3.8911 4.70267 -0.119528
59 2 5.8309 4.70283 1.4918 5.8309 4.70283 1.4918
60 2 5.83057 4.70282 -1.73112 5.83057 4.70282 -1.73112
61 1 6.74082 2.8681 -0.119863 6.74082 2.8681 -0.119863
62 2 8.68244 2.86905 1.48921 8.68244 2.86905 1.48921
63 2 8.6784 2.8669 -1.73369 8.6784 2.8669 -1.73369
64 1 9.59034 4.70271 -0.12456 9.59034 4.70271 -0.12456
65 2 11.5348 4.70549 1.48105 11.5348 4.70549 1.48105
66 2 11.525 4.69934 -1.74183 11.525 4.69934 -1.74183
67 1 12.4399 2.86742 -0.129734 12.4399 2.86742 -0.129734
68 2 14.3845 2.87072 1.47564 14.3845 2.87072 1.47564
69 2 14.3743 2.86308 -1.74723 14.3743 2.86308 -1.74723
70 1 15.2893 4.70162 -0.142985 15.2893 4.70162 -0.142985
71 2 17.2347 4.70622 1.46141 17.2347 4.70622 1.46141
72 2 17.2229 4.69583 -1.76145 17.2229 4.69583 -1.76145
73 1 18.1386 2.86588 -0.147472 18.1386 2.86588 -0.147472
74 2 20.0824 2.87075 1.45891 20.0824 2.87075 1.45891
75 2 20.0739 2.8597 -1.76395 20.0739 2.8597 -1.76395
76 1 20.988 4.69997 -0.161156 20.988 4.69997 -0.161156
77 2 22.9304 4.70493 1.44692 22.9304 4.70493 1.44692
78 2 22.9248 4.6938 -1.77596 22.9248 4.6938 -1.77596
79 1 23.8373 2.86425 -0.15978 23.8373 2.86425 -0.15978
80 2 25.7797 2.86879 1.44827 25.7797 2.86879 1.44827
81 2 25.774 2.85873 -1.7746 25.774 2.85873 -1.7746
82 1 26.6868 4.69853 -0.170521 26.6868 4.69853 -0.170521
83 2 28.6304 4.70203 1.43591 28.6304 4.70203 1.43591
84 2 28.6222 4.69434 -1.78698 28.6222 4.69434 -1.78698
85 1 29.5361 2.86324 -0.173497 29.5361 2.86324 -0.173497
86 2 31.4831 2.86544 1.42892 31.4831 2.86544 1.42892
87 2 31.4682 2.86079 -1.79394 31.4682 2.86079 -1.79394
88 1 32.3856 4.69793 -0.189411 32.3856 4.69793 -0.189411
89 2 34.3315 4.69732 1.41429 34.3315 4.69732 1.41429
90 2 34.3188 4.69864 -1.8086 34.3188 4.69864 -1.8086
91 1 35.235 2.86331 -0.20138 35.235 2.86331 -0.20138
92 2 37.1792 2.8609 1.40456 37.1792 2.8609 1.40456
93 2 37.1701 2.86632 -1.81834 37.1701 2.86632 -1.81834
94 1 38.0847 4.69845 -0.206396 38.0847 4.69845 -0.206396
95 2 40.0215 4.69445 1.40848 40.0215 4.69445 1.40848
96 2 40.0271 4.70332 -1.81443 40.0271 4.70332 -1.81443
97 1 40.9343 2.86445 -0.206314 40.9343 2.86445 -0.206314
98 2 42.8657 2.85941 1.41509 42.8657 2.85941 1.41509
99 2 42.8822 2.87067 -1.80777 42.8822 2.87067 -1.80777
100 1 43.784 4.69986 -0.185284 43.784 4.69986 -0.185284
101 2 45.7116 4.69567 1.44067 45.7116 4.69567 1.44067
102 2 45.7356 4.70528 -1.78216 45.7356 4.70528 -1.78216
103 1 46.6337 2.86612 -0.169465 46.6337 2.86612 -0.169465
104 2 48.5611 2.8615 1.45666 48.5611 2.8615 1.45666
105 2 48.5855 2.87193 -1.76615 48.5855 2.87193 -1.76615
106 1 49.4833 4.70151 -0.142009 49.4833 4.70151 -0.142009
107 2 51.4147 4.69924 1.47947 51.4147 4.69924 1.47947
108 2 51.4312 4.70484 -1.74341 51.4312 4.70484 -1.74341
109 1 1.0413 6.53689 -0.124176 1.0413 6.53689 -0.124176
110 2 2.97795 6.53671 1.49098 2.97795 6.53671 1.49098
111 2 2.98397 6.53784 -1.73192 2.98397 6.53784 -1.73192
112 1 3.89089 8.37217 -0.118184 3.89089 8.37217 -0.118184
113 2 5.8323 8.37377 1.49121 5.8323 8.37377 1.49121
114 2 5.82879 8.37102 -1.73168 5.82879 8.37102 -1.73168
115 1 6.74067 6.53762 -0.119753 6.74067 6.53762 -0.119753
116 2 8.68431 6.53963 1.48691 8.68431 6.53963 1.48691
117 2 8.67627 6.53552 -1.73598 8.67627 6.53552 -1.73598
118 1 9.59017 8.37239 -0.129129 9.59017 8.37239 -0.129129
119 2 11.5365 8.37601 1.4743 11.5365 8.37601 1.4743
120 2 11.5231 8.36833 -1.74855 11.5231 8.36833 -1.74855
121 1 12.4398 6.53716 -0.13661 12.4398 6.53716 -0.13661
122 2 14.386 6.54138 1.46692 14.386 6.54138 1.46692
123 2 14.3728 6.53203 -1.75593 14.3728 6.53203 -1.75593
124 1 15.2892 8.37147 -0.153483 15.2892 8.37147 -0.153483
125 2 17.2353 8.37599 1.45013 17.2353 8.37599 1.45013
126 2 17.2223 8.36587 -1.7727 17.2223 8.36587 -1.7727
127 1 18.1387 6.53576 -0.159197 18.1387 6.53576 -0.159197
128 2 20.0829 6.5406 1.44666 20.0829 6.5406 1.44666
129 2 20.0736 6.52964 -1.7762 20.0736 6.52964 -1.7762
130 1 20.9881 8.3699 -0.173567 20.9881 8.3699 -0.173567
131 2 22.9304 8.37445 1.43467 22.9304 8.37445 1.43467
132 2 22.925 8.36419 -1.78818 22.925 8.36419 -1.78818
133 1 23.8375 6.53414 -0.172411 23.8375 6.53414 -0.172411
134 2 25.7791 6.53856 1.43649 25.7791 6.53856 1.43649
135 2 25.7749 6.52865 -1.78638 25.7749 6.52865 -1.78638
136 1 26.687 8.36844 -0.181743 26.687 8.36844 -0.181743
137 2 28.6286 8.37087 1.42709 28.6286 8.37087 1.42709
138 2 28.6244 8.36526 -1.79578 28.6244 8.36526 -1.79578
139 1 29.5363 6.533 -0.182299 29.5363 6.533 -0.182299
140 2 31.4807 6.53406 1.42325 31.4807 6.53406 1.42325
141 2 31.471 6.53154 -1.79963 31.471 6.53154 -1.79963
142 1 32.3859 8.36771 -0.192416 32.3859 8.36771 -0.192416
143 2 34.329 8.36656 1.41462 34.329 8.36656 1.41462
144 2 34.3218 8.36885 -1.80825 34.3218 8.36885 -1.80825
145 1 35.2352 6.53285 -0.200058 35.2352 6.53285 -0.200058
146 2 37.1767 6.53032 1.40912 37.1767 6.53032 1.40912
147 2 37.1729 6.5358 -1.81378 37.1729 6.5358 -1.81378
148 1 38.0848 8.36802 -0.200284 38.0848 8.36802 -0.200284
149 2 40.0203 8.36545 1.41611 40.0203 8.36545 1.41611
150 2 40.0285 8.37137 -1.80676 40.0285 8.37137 -1.80676
151 1 40.9343 6.53377 -0.196359 40.9343 6.53377 -0.196359
152 2 42.8651 6.53023 1.42578 42.8651 6.53023 1.42578
153 2 42.8828 6.53836 -1.79708 42.8828 6.53836 -1.79708
154 1 43.784 8.36927 -0.176074 43.784 8.36927 -0.176074
155 2 45.7123 8.36775 1.44901 45.7123 8.36775 1.44901
156 2 45.7348 8.37201 -1.7738 45.7348 8.37201 -1.7738
157 1 46.6336 6.53535 -0.158547 46.6336 6.53535 -0.158547
158 2 48.5622 6.53338 1.46625 48.5622 6.53338 1.46625
159 2 48.5842 6.53852 -1.75659 48.5842 6.53852 -1.75659
160 1 49.4832 8.37091 -0.13608 49.4832 8.37091 -0.13608
161 2 51.4159 8.37121 1.48379 51.4159 8.37121 1.48379
162 2 51.4297 8.37174 -1.73908 51.4297 8.37174 -1.73908
163 1 1.04112 10.2064 -0.123521 1.04112 10.2064 -0.123521
164 2 2.97871 10.2084 1.49047 2.97871 10.2084 1.49047
165 2 2.98281 10.2053 -1.73244 2.98281 10.2053 -1.73244
166 1 3.89069 12.0417 -0.121692 3.89069 12.0417 -0.121692
167 2 5.83302 12.0452 1.48657 5.83302 12.0452 1.48657
168 2 5.82759 12.0387 -1.73633 5.82759 12.0387 -1.73633
169 1 6.74045 10.2072 -0.122834 6.74045 10.2072 -0.122834
170 2 8.68565 10.2104 1.48198 8.68565 10.2104 1.48198
171 2 8.6745 10.2041 -1.7409 8.6745 10.2041 -1.7409
172 1 9.58997 12.042 -0.136146 9.58997 12.042 -0.136146
173 2 11.5372 12.0457 1.46617 11.5372 12.0457 1.46617
174 2 11.5219 12.038 -1.75668 11.5219 12.038 -1.75668
175 1 12.4397 10.2069 -0.145217 12.4397 10.2069 -0.145217
176 2 14.3869 10.2111 1.45707 14.3869 10.2111 1.45707
177 2 14.3716 10.202 -1.76577 14.3716 10.202 -1.76577
178 1 15.2892 12.0412 -0.163731 15.2892 12.0412 -0.163731
179 2 17.2353 12.0447 1.43985 17.2353 12.0447 1.43985
180 2 17.2222 12.0367 -1.78301 17.2222 12.0367 -1.78301
181 1 18.1387 10.2056 -0.170639 18.1387 10.2056 -0.170639
182 2 20.0829 10.2097 1.43521 20.0829 10.2097 1.43521
183 2 20.0736 10.2005 -1.78766 20.0736 10.2005 -1.78766
184 1 20.9883 12.0397 -0.183972 20.9883 12.0397 -0.183972
185 2 22.9298 12.0421 1.4251 22.9298 12.0421 1.4251
186 2 22.9259 12.0362 -1.79778 22.9259 12.0362 -1.79778
187 1 23.8377 10.2041 -0.183994 23.8377 10.2041 -0.183994
188 2 25.7782 10.207 1.42629 25.7782 10.207 1.42629
189 2 25.7763 10.2002 -1.7966 25.7763 10.2002 -1.7966
190 1 26.6873 12.0383 -0.189475 26.6873 12.0383 -0.189475
191 2 28.6271 12.0391 1.42154 28.6271 12.0391 1.42154
192 2 28.6266 12.0369 -1.80135 28.6266 12.0369 -1.80135
193 1 29.5366 10.2029 -0.188744 29.5366 10.2029 -0.188744
194 2 31.4784 10.2031 1.41986 31.4784 10.2031 1.41986
195 2 31.4738 10.2023 -1.80304 31.4738 10.2023 -1.80304
196 1 32.3862 12.0376 -0.193323 32.3862 12.0376 -0.193323
197 2 34.3273 12.0362 1.41623 34.3273 12.0362 1.41623
198 2 34.3242 12.0389 -1.80667 34.3242 12.0389 -1.80667
199 1 35.2355 10.2026 -0.19759 35.2355 10.2026 -0.19759
200 2 37.1752 10.2006 1.4137 37.1752 10.2006 1.4137
201 2 37.1749 10.205 -1.8092 37.1749 10.205 -1.8092
202 1 38.0851 12.0378 -0.195297 38.0851 12.0378 -0.195297
203 2 40.0206 12.0367 1.42112 40.0206 12.0367 1.42112
204 2 40.0288 12.0395 -1.80178 40.0288 12.0395 -1.80178
205 1 40.9345 10.2034 -0.189639 40.9345 10.2034 -0.189639
206 2 42.8654 10.2024 1.43225 42.8654 10.2024 1.43225
207 2 42.8827 10.2054 -1.79061 42.8827 10.2054 -1.79061
208 1 43.7841 12.0389 -0.172619 43.7841 12.0389 -0.172619
209 2 45.7136 12.0407 1.45091 45.7136 12.0407 1.45091
210 2 45.7336 12.0383 -1.77194 45.7336 12.0383 -1.77194
211 1 46.6335 10.2049 -0.153674 46.6335 10.2049 -0.153674
212 2 48.5634 10.2059 1.46955 48.5634 10.2059 1.46955
213 2 48.5828 10.2051 -1.7533 48.5828 10.2051 -1.7533
214 1 49.4831 12.0405 -0.136938 49.4831 12.0405 -0.136938
215 2 51.4166 12.0434 1.48194 51.4166 12.0434 1.48194
216 2 51.4288 12.0387 -1.74095 51.4288 12.0387 -1.74095
217 1 1.04103 13.8759 -0.128844 1.04103 13.8759 -0.128844
218 2 2.9792 13.8805 1.4844 2.9792 13.8805 1.4844
219 2 2.98204 13.8723 -1.73851 2.98204 13.8723 -1.73851
220 1 3.89063 15.7112 -0.131049 3.89063 15.7112 -0.131049
221 2 5.83274 15.7161 1.47744 5.83274 15.7161 1.47744
222 2 5.82767 15.7067 -1.74548 5.82767 15.7067 -1.74548
223 1 6.74027 13.8767 -0.130148 6.74027 13.8767 -0.130148
224 2 8.68575 13.8806 1.47428 8.68575 13.8806 1.47428
225 2 8.67399 13.873 -1.7486 8.67399 13.873 -1.7486
226 1 9.58989 15.7114 -0.14486 9.58989 15.7114 -0.14486
227 2 11.5367 15.7144 1.45801 11.5367 15.7144 1.45801
228 2 11.5223 15.7081 -1.76488 11.5223 15.7081 -1.76488
229 1 12.4395 13.8765 -0.153855 12.4395 13.8765 -0.153855
230 2 14.3869 13.8793 1.44833 14.3869 13.8793 1.44833
231 2 14.3714 13.8729 -1.77453 14.3714 13.8729 -1.77453
232 1 15.2892 15.7106 -0.17101 15.2892 15.7106 -0.17101
233 2 17.2346 15.7114 1.43349 17.2346 15.7114 1.43349
234 2 17.223 15.709 -1.78941 17.223 15.709 -1.78941
235 1 18.1388 13.8753 -0.179707 18.1388 13.8753 -0.179707
236 2 20.0822 13.8769 1.42708 20.0822 13.8769 1.42708
237 2 20.0745 13.8726 -1.7958 20.0745 13.8726 -1.7958
238 1 20.9885 15.7093 -0.18881 20.9885 15.7093 -0.18881
239 2 22.9288 15.7081 1.42179 22.9288 15.7081 1.42179
240 2 22.9275 15.7094 -1.80113 22.9275 15.7094 -1.80113
241 1 23.838 13.8738 -0.190654 23.838 13.8738 -0.190654
242 2 25.7772 13.8739 1.42108 25.7772 13.8739 1.42108
243 2 25.7778 13.8728 -1.80182 25.7778 13.8728 -1.80182
244 1 26.6877 15.708 -0.190694 26.6877 15.708 -0.190694
245 2 28.6265 15.706 1.42155 28.6265 15.706 1.42155
246 2 28.628 15.7093 -1.80137 28.628 15.7093 -1.80137
247 1 29.537 13.8727 -0.19127 29.537 13.8727 -0.19127
248 2 31.477 13.8716 1.41944 31.477 13.8716 1.41944
249 2 31.476 13.8735 -1.80346 31.476 13.8735 -1.80346
250 1 32.3867 15.7073 -0.191194 32.3867 15.7073 -0.191194
251 2 34.3267 15.7051 1.41961 34.3267 15.7051 1.41961
252 2 34.3258 15.7094 -1.80332 34.3258 15.7094 -1.80332
253 1 35.2359 13.8724 -0.19452 35.2359 13.8724 -0.19452
254 2 37.1748 13.871 1.41764 37.1748 13.871 1.41764
255 2 37.1761 13.8742 -1.80527 37.1761 13.8742 -1.80527
256 1 38.0856 15.7075 -0.191601 38.0856 15.7075 -0.191601
257 2 40.0222 15.708 1.42332 40.0222 15.708 1.42332
258 2 40.028 15.7076 -1.7996 40.028 15.7076 -1.7996
259 1 40.9348 13.8731 -0.186389 40.9348 13.8731 -0.186389
260 2 42.8672 13.8748 1.4336 42.8672 13.8748 1.4336
261 2 42.8813 13.8724 -1.78929 42.8813 13.8724 -1.78929
262 1 43.7844 15.7085 -0.175193 43.7844 15.7085 -0.175193
263 2 45.7157 15.713 1.44617 45.7157 15.713 1.44617
264 2 45.7321 15.7051 -1.77672 45.7321 15.7051 -1.77672
265 1 46.6336 13.8745 -0.156281 46.6336 13.8745 -0.156281
266 2 48.5644 13.8785 1.46578 48.5644 13.8785 1.46578
267 2 48.5819 13.8717 -1.75708 48.5819 13.8717 -1.75708
268 1 49.4832 15.71 -0.144693 49.4832 15.71 -0.144693
269 2 51.4173 15.716 1.47343 51.4173 15.716 1.47343
270 2 51.4282 15.705 -1.74948 51.4282 15.705 -1.74948
271 1 1.04112 17.5454 -0.141291 1.04112 17.5454 -0.141291
272 2 2.979 17.5522 1.47225 2.979 17.5522 1.47225
273 2 2.98233 17.5394 -1.75065 2.98233 17.5394 -1.75065
274 1 3.8907 19.3805 -0.145659 3.8907 19.3805 -0.145659
275 2 5.83129 19.3864 1.46462 5.83129 19.3864 1.46462
276 2 5.82925 19.375 -1.75829 5.82925 19.375 -1.75829
277 1 6.74024 17.546 -0.140886 6.74024 17.546 -0.140886
278 2 8.68467 17.55 1.4648 8.68467 17.55 1.4648
279 2 8.67498 17.5421 -1.7581 8.67498 17.5421 -1.7581
280 1 9.58992 19.3806 -0.153916 9.58992 19.3806 -0.153916
281 2 11.5348 19.3822 1.45125 11.5348 19.3822 1.45125
282 2 11.5243 19.3787 -1.77165 11.5243 19.3787 -1.77165
283 1 12.4396 17.5457 -0.161022 12.4396 17.5457 -0.161022
284 2 14.3856 17.5464 1.44275 14.3856 17.5464 1.44275
285 2 14.3728 17.5444 -1.78013 14.3728 17.5444 -1.78013
286 1 15.2894 19.3799 -0.173372 15.2894 19.3799 -0.173372
287 2 17.2327 19.3769 1.43367 17.2327 19.3769 1.43367
288 2 17.2253 19.3819 -1.78924 17.2253 19.3819 -1.78924
289 1 18.139 17.5446 -0.182467 18.139 17.5446 -0.182467
290 2 20.0811 17.5422 1.42601 20.0811 17.5422 1.42601
291 2 20.0762 17.5461 -1.79689 20.0762 17.5461 -1.79689
292 1 20.9888 19.3786 -0.184475 20.9888 19.3786 -0.184475
293 2 22.9281 19.3733 1.42739 22.9281 19.3733 1.42739
294 2 22.9289 19.3829 -1.79551 22.9289 19.3829 -1.79551
295 1 23.8383 17.5433 -0.189134 23.8383 17.5433 -0.189134
296 2 25.7769 17.5398 1.42353 25.7769 17.5398 1.42353
297 2 25.779 17.5459 -1.79938 25.779 17.5459 -1.79938
298 1 26.6882 19.3774 -0.183667 26.6882 19.3774 -0.183667
299 2 28.6266 19.3719 1.42909 28.6266 19.3719 1.42909
300 2 28.629 19.3823 -1.7938 28.629 19.3823 -1.7938
301 1 29.5375 17.5423 -0.187534 29.5375 17.5423 -0.187534
302 2 31.4769 17.5387 1.42397 31.4769 17.5387 1.42397
303 2 31.4772 17.5455 -1.79894 31.4772 17.5455 -1.79894
304 1 32.3873 19.3768 -0.183471 32.3873 19.3768 -0.183471
305 2 34.328 19.3734 1.42643 34.328 19.3734 1.42643
306 2 34.3256 19.3803 -1.79648 34.3256 19.3803 -1.79648
307 1 35.2364 17.542 -0.189636 35.2364 17.542 -0.189636
308 2 37.1761 17.5409 1.42153 37.1761 17.5409 1.42153
309 2 37.1758 17.5436 -1.80139 37.1758 17.5436 -1.80139
310 1 38.0861 19.3771 -0.188441 38.0861 19.3771 -0.188441
311 2 40.0253 19.3786 1.42335 40.0253 19.3786 1.42335
312 2 40.0259 19.3762 -1.79956 40.0259 19.3762 -1.79956
313 1 40.9352 17.5427 -0.186667 40.9352 17.5427 -0.186667
314 2 42.8701 17.5462 1.43033 42.8701 17.5462 1.43033
315 2 42.8793 17.5401 -1.79258 42.8793 17.5401 -1.79258
316 1 43.7848 19.3782 -0.181938 43.7848 19.3782 -0.181938
317 2 45.7188 19.3849 1.43618 45.7188 19.3849 1.43618
318 2 45.7298 19.3724 -1.7867 45.7298 19.3724 -1.7867
319 1 46.6339 17.544 -0.165164 46.6339 17.544 -0.165164
320 2 48.566 17.5512 1.4552 48.566 17.5512 1.4552
321 2 48.5808 17.538 -1.76767 48.5808 17.538 -1.76767
322 1 49.4834 19.3795 -0.15966 49.4834 19.3795 -0.15966
323 2 51.4179 19.3883 1.45796 51.4179 19.3883 1.45796
324 2 51.428 19.3717 -1.7649 51.428 19.3717 -1.7649
325 1 1.04132 21.215 -0.160077 1.04132 21.215 -0.160077
326 2 2.97783 21.2232 1.45503 2.97783 21.2232 1.45503
327 2 2.98388 21.2073 -1.76784 2.98388 21.2073 -1.76784
328 1 3.89084 23.0501 -0.16383 3.89084 23.0501 -0.16383
329 2 5.82876 23.0562 1.4496 5.82876 23.0562 1.4496
330 2 5.83205 23.0442 -1.77329 5.83205 23.0442 -1.77329
331 1 6.74031 21.2154 -0.154021 6.74031 21.2154 -0.154021
332 2 8.68221 21.2189 1.4547 8.68221 21.2189 1.4547
333 2 8.67761 21.2118 -1.7682 8.67761 21.2118 -1.7682
334 1 9.58998 23.05 -0.16215 9.58998 23.05 -0.16215
335 2 11.5313 23.0496 1.44723 11.5313 23.0496 1.44723
336 2 11.5279 23.0499 -1.77568 11.5279 23.0499 -1.77568
337 1 12.4397 21.215 -0.165173 12.4397 21.215 -0.165173
338 2 14.3829 21.2128 1.44195 14.3829 21.2128 1.44195
339 2 14.3757 21.2164 -1.78094 14.3757 21.2164 -1.78094
340 1 15.2895 23.0491 -0.169453 15.2895 23.0491 -0.169453
341 2 17.23 23.0432 1.44101 17.23 23.0432 1.44101
342 2 17.2283 23.0542 -1.78188 17.2283 23.0542 -1.78188
343 1 18.1392 21.2139 -0.176938 18.1392 21.2139 -0.176938
344 2 20.0794 21.2075 1.43383 20.0794 21.2075 1.43383
345 2 20.0783 21.2194 -1.78905 20.0783 21.2194 -1.78905
346 1 20.9891 23.0479 -0.171086 20.9891 23.0479 -0.171086
347 2 22.9271 23.0385 1.44229 22.9271 23.0385 1.44229
348 2 22.9304 23.0565 -1.78056 22.9304 23.0565 -1.78056
349 1 23.8387 21.2127 -0.178225 23.8387 21.2127 -0.178225
350 2 25.7767 21.2048 1.43512 25.7767 21.2048 1.43512
351 2 25.78 21.2197 -1.78775 25.78 21.2197 -1.78775
352 1 26.6885 23.0469 -0.166825 26.6885 23.0469 -0.166825
353 2 28.6275 23.0378 1.44534 28.6275 23.0378 1.44534
354 2 28.6289 23.0555 -1.77751 28.6289 23.0555 -1.77751
355 1 29.538 21.2118 -0.175621 29.538 21.2118 -0.175621
356 2 31.4781 21.2057 1.43505 31.4781 21.2057 1.43505
357 2 31.4771 21.2177 -1.78783 31.4771 21.2177 -1.78783
358 1 32.3877 23.0465 -0.169786 32.3877 23.0465 -0.169786
359 2 34.3308 23.0417 1.43733 34.3308 23.0417 1.43733
360 2 34.3238 23.0515 -1.78555 34.3238 23.0515 -1.78555
361 1 35.237 21.2118 -0.181698 35.237 21.2118 -0.181698
362 2 37.1792 21.2103 1.42644 37.1792 21.2103 1.42644
363 2 37.1738 21.2136 -1.79646 37.1738 21.2136 -1.79646
364 1 38.0866 23.047 -0.184583 38.0866 23.047 -0.184583
365 2 40.0297 23.049 1.4225 40.0297 23.049 1.4225
366 2 40.0225 23.0457 -1.80039 40.0225 23.0457 -1.80039
367 1 40.9357 21.2125 -0.189203 40.9357 21.2125 -0.189203
368 2 42.874 21.2176 1.42369 42.874 21.2176 1.42369
369 2 42.8764 21.2083 -1.7992 42.8764 21.2083 -1.7992
370 1 43.7852 23.0481 -0.192233 43.7852 23.0481 -0.192233
371 2 45.7225 23.0567 1.42189 45.7225 23.0567 1.42189
372 2 45.7269 23.0405 -1.80097 45.7269 23.0405 -1.80097
373 1 46.6343 21.2138 -0.179235 46.6343 21.2138 -0.179235
374 2 48.5684 21.2232 1.43869 48.5684 21.2232 1.43869
375 2 48.5791 21.2053 -1.78415 48.5791 21.2053 -1.78415
376 1 49.4837 23.0493 -0.179853 49.4837 23.0493 -0.179853
377 2 51.4181 23.0591 1.43778 51.4181 23.0591 1.43778
378 2 51.4284 23.0403 -1.78506 51.4284 23.0403 -1.78506
379 1 1.04152 24.8847 -0.181404 1.04152 24.8847 -0.181404
380 2 2.97614 24.8927 1.43589 2.97614 24.8927 1.43589
381 2 2.98592 24.8771 -1.78696 2.98592 24.8771 -1.78696
382 1 3.89094 26.7198 -0.181638 3.89094 26.7198 -0.181638
383 2 5.8254 26.724 1.43584 5.8254 26.724 1.43584
384 2 5.83555 26.7156 -1.78704 5.83555 26.7156 -1.78704
385 1 6.74039 24.8849 -0.167777 6.74039 24.8849 -0.167777
386 2 8.67833 24.8871 1.44563 8.67833 24.8871 1.44563
387 2 8.68163 24.8825 -1.77728 8.68163 24.8825 -1.77728
388 1 9.58999 26.7194 -0.167527 9.58999 26.7194 -0.167527
389 2 11.5272 26.7174 1.4468 11.5272 26.7174 1.4468
390 2 11.532 26.7208 -1.77611 11.532 26.7208 -1.77611
391 1 12.4397 24.8843 -0.165076 12.4397 24.8843 -0.165076
392 2 14.3794 24.8799 1.44638 14.3794 24.8799 1.44638
393 2 14.3794 24.8879 -1.77653 14.3794 24.8879 -1.77653
394 1 15.2894 26.7184 -0.16054 15.2894 26.7184 -0.16054
395 2 17.2269 26.7107 1.45357 17.2269 26.7107 1.45357
396 2 17.2313 26.7251 -1.7693 17.2313 26.7251 -1.7693
397 1 18.1393 24.8832 -0.164618 18.1393 24.8832 -0.164618
398 2 20.0772 24.874 1.44899 20.0772 24.874 1.44899
399 2 20.0808 24.8914 -1.77386 20.0808 24.8914 -1.77386
400 1 20.9891 26.7171 -0.151577 20.9891 26.7171 -0.151577
401 2 22.9254 26.7058 1.46386 22.9254 26.7058 1.46386
402 2 22.9321 26.7277 -1.75897 22.9321 26.7277 -1.75897
403 1 23.8389 24.882 -0.157972 23.8389 24.882 -0.157972
404 2 25.7766 24.8708 1.45574 25.7766 24.8708 1.45574
405 2 25.7805 24.8925 -1.76709 25.7805 24.8925 -1.76709
406 1 26.6886 26.7163 -0.142249 26.6886 26.7163 -0.142249
407 2 28.629 26.7054 1.46833 28.629 26.7054 1.46833
408 2 28.6276 26.7268 -1.75449 28.6276 26.7268 -1.75449
409 1 29.5383 24.8814 -0.155628 29.5383 24.8814 -0.155628
410 2 31.4805 24.8731 1.45251 31.4805 24.8731 1.45251
411 2 31.4753 24.8896 -1.77034 31.4753 24.8896 -1.77034
412 1 32.3879 26.7162 -0.151044 32.3879 26.7162 -0.151044
413 2 34.3348 26.7108 1.45155 34.3348 26.7108 1.45155
414 2 34.3202 26.722 -1.7713 34.3202 26.722 -1.7713
415 1 35.2373 24.8816 -0.170448 35.2373 24.8816 -0.170448
416 2 37.1835 24.8799 1.43295 37.1835 24.8799 1.43295
417 2 37.1703 24.8839 -1.78992 37.1703 24.8839 -1.78992
418 1 38.0868 26.7169 -0.179904 38.0868 26.7169 -0.179904
419 2 40.0348 26.7193 1.42134 40.0348 26.7193 1.42134
420 2 40.0179 26.7154 -1.80151 40.0179 26.7154 -1.80151
421 1 40.936 24.8825 -0.19275 40.936 24.8825 -0.19275
422 2 42.8787 24.8885 1.41487 42.8787 24.8885 1.41487
423 2 42.8724 24.8775 -1.808 42.8724 24.8775 -1.808
424 1 43.7854 26.7181 -0.204446 43.7854 26.7181 -0.204446
425 2 45.7257 26.7262 1.40598 45.7257 26.7262 1.40598
426 2 45.7241 26.7111 -1.81688 45.7241 26.7111 -1.81688
427 1 46.6346 24.8837 -0.197357 46.6346 24.8837 -0.197357
428 2 48.5701 24.8935 1.41881 48.5701 24.8935 1.41881
429 2 48.578 24.8749 -1.80402 48.578 24.8749 -1.80402
430 1 49.4839 26.7193 -0.200821 49.4839 26.7193 -0.200821
431 2 51.4178 26.7278 1.41738 51.4178 26.7278 1.41738
432 2 51.4291 26.7114 -1.80547 51.4291 26.7114 -1.80547
433 1 1.0416 28.5546 -0.200143 1.0416 28.5546 -0.200143
434 2 2.97399 28.5598 1.41977 2.97399 28.5598 1.41977
435 2 2.98821 28.5495 -1.80309 2.98821 28.5495 -1.80309
436 1 3.89093 30.3895 -0.193441 3.89093 30.3895 -0.193441
437 2 5.82234 30.3907 1.42764 5.82234 30.3907 1.42764
438 2 5.83855 30.3881 -1.79523 5.83855 30.3881 -1.79523
439 1 6.74039 28.5545 -0.177549 6.74039 28.5545 -0.177549
440 2 8.6745 28.5545 1.4404 8.6745 28.5545 1.4404
441 2 8.68543 28.554 -1.78249 8.68543 28.554 -1.78249
442 1 9.58989 30.3889 -0.168251 9.58989 30.3889 -0.168251
443 2 11.5238 30.3857 1.44994 11.5238 30.3857 1.44994
444 2 11.5351 30.3913 -1.77295 11.5351 30.3913 -1.77295
445 1 12.4396 28.5536 -0.161371 12.4396 28.5536 -0.161371
446 2 14.3757 28.5483 1.45433 14.3757 28.5483 1.45433
447 2 14.3828 28.5581 -1.76856 14.3828 28.5581 -1.76856
448 1 15.2893 30.3876 -0.149613 15.2893 30.3876 -0.149613
449 2 17.2239 30.3802 1.46788 17.2239 30.3802 1.46788
450 2 17.2339 30.3941 -1.75498 17.2339 30.3941 -1.75498
451 1 18.1392 28.5524 -0.148509 18.1392 28.5524 -0.148509
452 2 20.0747 28.5425 1.46799 20.0747 28.5425 1.46799
453 2 20.083 28.5612 -1.75486 20.083 28.5612 -1.75486
454 1 20.9888 30.3863 -0.130575 20.9888 30.3863 -0.130575
455 2 22.9241 30.3766 1.48623 22.9241 30.3766 1.48623
456 2 22.9329 30.3953 -1.73661 22.9329 30.3953 -1.73661
457 1 23.8388 28.5513 -0.133356 23.8388 28.5513 -0.133356
458 2 25.7764 28.5399 1.48055 25.7764 28.5399 1.48055
459 2 25.7805 28.562 -1.74228 25.7805 28.562 -1.74228
460 1 26.6884 30.3856 -0.117348 26.6884 30.3856 -0.117348
461 2 28.6302 30.3764 1.49166 28.6302 30.3764 1.49166
462 2 28.6261 30.3946 -1.73119 28.6261 30.3946 -1.73119
463 1 29.5383 28.5508 -0.131367 29.5383 28.5508 -0.131367
464 2 31.4836 28.5425 1.47323 31.4836 28.5425 1.47323
465 2 31.4723 28.5593 -1.7496 31.4723 28.5593 -1.7496
466 1 32.3878 30.3857 -0.131946 32.3878 30.3857 -0.131946
467 2 34.3393 30.3821 1.46518 34.3393 30.3821 1.46518
468 2 34.3155 30.39 -1.75762 34.3155 30.39 -1.75762
469 1 35.2374 28.5513 -0.157641 35.2374 28.5513 -0.157641
470 2 37.1886 28.5504 1.43974 37.1886 28.5504 1.43974
471 2 37.1653 28.5531 -1.78307 37.1653 28.5531 -1.78307
472 1 38.0867 30.3868 -0.176697 38.0867 30.3868 -0.176697
473 2 40.0391 30.3895 1.41923 40.0391 30.3895 1.41923
474 2 40.0133 30.385 -1.80356 40.0133 30.385 -1.80356
475 1 40.9361 28.5525 -0.196977 40.9361 28.5525 -0.196977
476 2 42.8829 28.5577 1.40573 42.8829 28.5577 1.40573
477 2 42.8684 28.5483 -1.81712 42.8684 28.5483 -1.81712
478 1 43.7854 30.3881 -0.215018 43.7854 30.3881 -0.215018
479 2 45.7279 30.3938 1.39282 45.7279 30.3938 1.39282
480 2 45.7219 30.3834 -1.83005 45.7219 30.3834 -1.83005
481 1 46.6347 28.5538 -0.214315 46.6347 28.5538 -0.214315
482 2 48.5713 28.5615 1.40057 48.5713 28.5615 1.40057
483 2 48.5771 28.5468 -1.82229 48.5771 28.5468 -1.82229
484 1 49.4839 30.3892 -0.21738 49.4839 30.3892 -0.21738
485 2 51.4169 30.3944 1.40184 51.4169 30.3944 1.40184
486 2 51.4299 30.3845 -1.82103 51.4299 30.3845 -1.82103
487 1 1.04159 32.2244 -0.21137 1.04159 32.2244 -0.21137
488 2 2.97186 32.2258 1.41102 2.97186 32.2258 1.41102
489 2 2.99025 32.2231 -1.81185 2.99025 32.2231 -1.81185
490 1 3.89091 34.0592 -0.196747 3.89091 34.0592 -0.196747
491 2 5.82052 34.0577 1.42647 5.82052 34.0577 1.42647
492 2 5.84026 34.0602 -1.79639 5.84026 34.0602 -1.79639
493 1 6.74033 32.2241 -0.180695 6.74033 32.2241 -0.180695
494 2 8.67184 32.2222 1.44033 8.67184 32.2222 1.44033
495 2 8.68788 32.2254 -1.78256 8.68788 32.2254 -1.78256
496 1 9.5898 34.0583 -0.164806 9.5898 34.0583 -0.164806
497 2 11.5217 34.0544 1.45579 11.5217 34.0544 1.45579
498 2 11.537 34.0613 -1.7671 11.537 34.0613 -1.7671
499 1 12.4394 32.223 -0.155186 12.4394 32.223 -0.155186
500 2 14.3729 32.2178 1.46362 14.3729 32.2178 1.46362
501 2 14.3852 32.2271 -1.75928 14.3852 32.2271 -1.75928
502 1 15.289 34.0569 -0.139118 15.289 34.0569 -0.139118
503 2 17.222 34.0514 1.48029 17.222 34.0514 1.48029
504 2 17.2352 34.0611 -1.74259 17.2352 34.0611 -1.74259
505 1 18.1389 32.2215 -0.132944 18.1389 32.2215 -0.132944
506 2 20.0727 32.2141 1.48557 20.0727 32.2141 1.48557
507 2 20.0844 32.2281 -1.7373 20.0844 32.2281 -1.7373
508 1 20.9885 34.0555 -0.114739 20.9885 34.0555 -0.114739
509 2 22.9232 34.0496 1.50273 22.9232 34.0496 1.50273
510 2 22.933 34.0605 -1.72016 22.933 34.0605 -1.72016
511 1 23.8385 32.2204 -0.112217 23.8385 32.2204 -0.112217
512 2 25.7761 32.2126 1.50177 25.7761 32.2126 1.50177
513 2 25.7802 32.2279 -1.72111 25.7802 32.2279 -1.72111
514 1 26.688 34.0547 -0.10005 26.688 34.0547 -0.10005
515 2 28.6311 34.0508 1.50733 28.6311 34.0508 1.50733
516 2 28.6242 34.0586 -1.71557 28.6242 34.0586 -1.71557
517 1 29.538 32.2202 -0.110816 29.538 32.2202 -0.110816
518 2 31.4864 32.2155 1.49017 31.4864 32.2155 1.49017
519 2 31.4689 32.2252 -1.73268 31.4689 32.2252 -1.73268
520 1 32.3875 34.0551 -0.120887 32.3875 34.0551 -0.120887
521 2 34.3424 34.0553 1.47201 34.3424 34.0553 1.47201
522 2 34.3116 34.0556 -1.75075 34.3116 34.0556 -1.75075
523 1 35.2372 32.221 -0.148517 35.2372 32.221 -0.148517
524 2 37.1928 32.2218 1.44353 37.1928 32.2218 1.44353
525 2 37.1606 32.2211 -1.77922 37.1606 32.2211 -1.77922
526 1 38.0864 34.0564 -0.177371 38.0864 34.0564 -0.177371
527 2 40.0413 34.0594 1.41545 40.0413 34.0594 1.41545
528 2 40.0104 34.0545 -1.80731 40.0104 34.0545 -1.80731
529 1 40.9359 32.2223 -0.201901 40.9359 32.2223 -0.201901
530 2 42.8851 32.2263 1.39793 42.8851 32.2263 1.39793
531 2 42.8658 32.2195 -1.82491 42.8658 32.2195 -1.82491
532 1 43.7852 34.0579 -0.222692 43.7852 34.0579 -0.222692
533 2 45.7281 34.0606 1.38463 45.7281 34.0606 1.38463
534 2 45.7212 34.0562 -1.83827 45.7212 34.0562 -1.83827
535 1 46.6346 32.2237 -0.226032 46.6346 32.2237 -0.226032
536 2 48.5715 32.2276 1.38847 48.5715 32.2276 1.38847
537 2 48.5766 32.2206 -1.83443 48.5766 32.2206 -1.83443