ITEM: TIMESTEP
4854000
ITEM: NUMBER OF ATOMS
810
ITEM: BOX BOUNDS pp pp pp
8.6298438867990135e-01 5.2154620611319167e+01
-1.1172599660231242e+01 6.2188814660230825e+01
-1.0000000000000000e+01 1.0000000000000000e+01
ITEM: ATOMS id type x y z xu yu zu
1 1 1.07183 58.0329 -0.169182 1.07183 -15.3285 -0.169182
2 2 2.96649 58.0475 1.46824 2.96649 -15.3139 1.46824
3 2 2.97742 58.0208 -1.79406 2.97742 -15.3406 -1.79406
4 1 3.92084 59.6817 -0.173381 3.92084 -13.6798 -0.173381
5 2 5.81793 59.6916 1.46119 5.81793 -13.6698 1.46119
6 2 5.82422 59.6723 -1.80097 5.82422 -13.6891 -1.80097
7 1 6.77142 58.0356 -0.158324 6.77142 -15.3258 -0.158324
8 2 8.68266 58.0448 1.45985 8.68266 -15.3166 1.45985
9 2 8.66116 58.0282 -1.80238 8.66116 -15.3332 -1.80238
10 1 9.62136 59.6837 -0.186409 9.62136 -13.6777 -0.186409
11 2 11.5321 59.6846 1.43232 11.5321 -13.6768 1.43232
12 2 11.5115 59.6815 -1.82979 11.5115 -13.6799 -1.82979
13 1 12.4717 58.0364 -0.20302 12.4717 -15.325 -0.20302
14 2 14.3754 58.0388 1.42448 14.3754 -15.3227 1.42448
15 2 14.3692 58.034 -1.83785 14.3692 -15.3274 -1.83785
16 1 15.3221 59.6833 -0.210852 15.3221 -13.6782 -0.210852
17 2 17.2099 59.6757 1.43548 17.2099 -13.6858 1.43548
18 2 17.2352 59.6879 -1.82667 17.2352 -13.6735 -1.82667
19 1 18.1722 58.035 -0.194306 18.1722 -15.3264 -0.194306
20 2 20.0613 58.0301 1.45016 20.0613 -15.3313 1.45016
21 2 20.0841 58.0387 -1.81217 20.0841 -15.3227 -1.81217
22 1 21.0226 59.6809 -0.17004 21.0226 -13.6805 -0.17004
23 2 22.918 59.6784 1.46662 22.918 -13.683 1.46662
24 2 22.9277 59.6795 -1.79571 22.9277 -13.6819 -1.79571
25 1 23.8722 58.0322 -0.162208 23.8722 -15.3293 -0.162208
26 2 25.7585 58.039 1.48532 25.7585 -15.3224 1.48532
27 2 25.7864 58.0232 -1.77704 25.7864 -15.3383 -1.77704
28 1 26.7218 59.6776 -0.145918 26.7218 -13.6838 -0.145918
29 2 28.6117 59.675 1.49671 28.6117 -13.6864 1.49671
30 2 28.6315 59.6754 -1.76572 28.6315 -13.686 -1.76572
31 1 29.5708 58.0284 -0.128797 29.5708 -15.333 -0.128797
32 2 31.4697 58.0303 1.50352 31.4697 -15.3311 1.50352
33 2 31.4719 58.0247 -1.75911 31.4719 -15.3368 -1.75911
34 1 32.4196 59.6741 -0.130282 32.4196 -13.6873 -0.130282
35 2 34.321 59.6692 1.49867 34.321 -13.6922 1.49867
36 2 34.3174 59.6757 -1.7639 34.3174 -13.6857 -1.7639
37 1 35.2691 58.0264 -0.136721 35.2691 -15.335 -0.136721
38 2 37.1741 58.0242 1.48861 37.1741 -15.3372 1.48861
39 2 37.1638 58.0286 -1.77406 37.1638 -15.3328 -1.77406
40 1 38.1175 59.6731 -0.143826 38.1175 -13.6883 -0.143826
41 2 40.0253 59.6644 1.47746 40.0253 -13.697 1.47746
42 2 40.0089 59.6805 -1.78508 40.0089 -13.6809 -1.78508
43 1 40.9673 58.0269 -0.166766 40.9673 -15.3345 -0.166766
44 2 42.8726 58.0268 1.45827 42.8726 -15.3346 1.45827
45 2 42.8618 58.0294 -1.80439 42.8618 -15.332 -1.80439
46 1 43.8156 59.6751 -0.174822 43.8156 -13.6863 -0.174822
47 2 45.7216 59.6754 1.44897 45.7216 -13.686 1.44897
48 2 45.7088 59.6756 -1.81355 45.7088 -13.6859 -1.81355
49 1 46.6653 58.0296 -0.186032 46.6653 -15.3318 -0.186032
50 2 48.5633 58.0357 1.44753 48.5633 -15.3257 1.44753
51 2 48.567 58.0266 -1.81502 48.567 -15.3349 -1.81502
52 1 49.5135 59.6787 -0.187009 49.5135 -13.6828 -0.187009
53 2 51.408 59.6872 1.45077 51.408 -13.6742 1.45077
54 2 51.4187 59.671 -1.81155 51.4187 -13.6904 -1.81155
55 1 1.07047 61.3262 -0.185267 1.07047 -12.0352 -0.185267
56 2 2.96917 61.3376 1.44802 2.96917 -12.0238 1.44802
57 2 2.97338 61.3205 -1.8144 2.97338 -12.0409 -1.8144
58 1 3.92367 -10.3845 -0.190846 3.92367 -10.3845 -0.190846
59 2 5.80581 -10.3895 1.44628 5.80581 -10.3895 1.44628
60 2 5.81542 -10.3981 -1.81681 5.81542 -10.3981 -1.81681
61 1 6.77078 61.3288 -0.178113 6.77078 -12.0326 -0.178113
62 2 8.67342 61.3257 1.45123 8.67342 -12.0357 1.45123
63 2 8.67068 61.3372 -1.8111 8.67068 -12.0242 -1.8111
64 1 9.62542 -10.3824 -0.175477 9.62542 -10.3824 -0.175477
65 2 11.5184 -10.4119 1.44804 11.5184 -10.4119 1.44804
66 2 11.5065 -10.373 -1.81492 11.5065 -10.373 -1.81492
67 1 12.4719 61.3297 -0.206568 12.4719 -12.0317 -0.206568
68 2 14.3769 61.3336 1.41999 14.3769 -12.0278 1.41999
69 2 14.3695 61.329 -1.84236 14.3695 -12.0324 -1.84236
70 1 15.3267 -10.3828 -0.215472 15.3267 -10.3828 -0.215472
71 2 17.1942 -10.395 1.4399 17.1942 -10.395 1.4399
72 2 17.2331 -10.3933 -1.82319 17.2331 -10.3933 -1.82319
73 1 18.1727 61.3278 -0.181898 18.1727 -12.0336 -0.181898
74 2 20.0621 61.3206 1.46275 20.0621 -12.0408 1.46275
75 2 20.0855 61.337 -1.7996 20.0855 -12.0245 -1.7996
76 1 21.0269 -10.3855 -0.153814 21.0269 -10.3855 -0.153814
77 2 22.9055 -10.4175 1.48587 22.9055 -10.4175 1.48587
78 2 22.9213 -10.3764 -1.77725 22.9213 -10.3764 -1.77725
79 1 23.8726 61.3251 -0.161484 23.8726 -12.0363 -0.161484
80 2 25.7665 61.3295 1.47764 25.7665 -12.0319 1.47764
81 2 25.7803 61.3221 -1.78488 25.7803 -12.0393 -1.78488
82 1 26.726 -10.3884 -0.153012 26.726 -10.3884 -0.153012
83 2 28.5973 -10.4023 1.49657 28.5973 -10.4023 1.49657
84 2 28.6271 -10.3986 -1.76683 28.6271 -10.3986 -1.76683
85 1 29.5708 61.3214 -0.128828 29.5708 -12.0401 -0.128828
86 2 31.4677 61.315 1.50607 31.4677 -12.0464 1.50607
87 2 31.4746 61.3289 -1.75658 31.4746 -12.0325 -1.75658
88 1 32.4234 -10.3921 -0.116848 32.4234 -10.3921 -0.116848
89 2 34.3019 -10.4298 1.52237 34.3019 -10.4298 1.52237
90 2 34.3163 -10.3776 -1.74093 34.3163 -10.3776 -1.74093
91 1 35.2681 61.3187 -0.130917 35.2681 -12.0427 -0.130917
92 2 37.1658 61.3034 1.50321 37.1658 -12.058 1.50321
93 2 37.1709 61.3371 -1.75938 37.1709 -12.0244 -1.75938
94 1 38.1203 -10.394 -0.109363 38.1203 -10.394 -0.109363
95 2 40.0152 -10.4291 1.51099 40.0152 -10.4291 1.51099
96 2 39.9968 -10.3801 -1.7524 39.9968 -10.3801 -1.7524
97 1 40.9657 61.3188 -0.150616 40.9657 -12.0426 -0.150616
98 2 42.8743 61.3127 1.47093 42.8743 -12.0488 1.47093
99 2 42.8578 61.3312 -1.79172 42.8578 -12.0303 -1.79172
100 1 43.8175 -10.3917 -0.155592 43.8175 -10.3917 -0.155592
101 2 45.7146 -10.4112 1.46326 45.7146 -10.4112 1.46326
102 2 45.692 -10.3907 -1.80023 45.692 -10.3907 -1.80023
103 1 46.6636 61.3224 -0.185862 46.6636 -12.039 -0.185862
104 2 48.5704 61.3362 1.43759 48.5704 -12.0252 1.43759
105 2 48.5576 61.3154 -1.82494 48.5576 -12.046 -1.82494
106 1 49.5154 -10.3875 -0.207792 49.5154 -10.3875 -0.207792
107 2 51.3948 -10.3868 1.43335 51.3948 -10.3868 1.43335
108 2 51.4089 -10.4065 -1.82995 51.4089 -10.4065 -1.82995
109 1 1.03812 -8.75246 -0.201926 1.03812 -8.75246 -0.201926
110 2 2.99602 -8.73223 1.40791 2.99602 -8.73223 1.40791
111 2 3.00434 -8.73736 -1.80034 3.00434 -8.73736 -1.80034
112 1 3.8514 -7.02611 -0.196843 3.8514 -7.02611 -0.196843
113 2 5.62561 -7.34194 1.50088 5.62561 -7.34194 1.50088
114 2 5.63266 -7.34918 -1.88579 5.63266 -7.34918 -1.88579
115 1 6.74033 -8.74989 -0.186906 6.74033 -8.74989 -0.186906
116 2 8.68738 -8.74771 1.43603 8.68738 -8.74771 1.43603
117 2 8.71878 -8.71635 -1.77205 8.71878 -8.71635 -1.77205
118 1 9.55434 -7.02374 -0.143614 9.55434 -7.02374 -0.143614
119 2 11.3279 -7.37432 1.54733 11.3279 -7.37432 1.54733
120 2 11.339 -7.30908 -1.83625 11.339 -7.30908 -1.83625
121 1 12.4424 -8.74918 -0.168323 12.4424 -8.74918 -0.168323
122 2 14.4266 -8.7418 1.41021 14.4266 -8.7418 1.41021
123 2 14.3831 -8.72211 -1.79773 14.3831 -8.72211 -1.79773
124 1 15.2567 -7.02373 -0.193359 15.2567 -7.02373 -0.193359
125 2 17.0387 -7.32316 1.50001 17.0387 -7.32316 1.50001
126 2 17.0321 -7.3623 -1.88395 17.0321 -7.3623 -1.88395
127 1 18.1433 -8.75107 -0.177525 18.1433 -8.75107 -0.177525
128 2 20.0796 -8.75664 1.45795 20.0796 -8.75664 1.45795
129 2 20.1309 -8.71279 -1.74971 20.1309 -8.71279 -1.74971
130 1 20.9566 -7.02664 -0.10959 20.9566 -7.02664 -0.10959
131 2 22.7192 -7.38306 1.59112 22.7192 -7.38306 1.59112
132 2 22.7507 -7.3091 -1.79251 22.7507 -7.3091 -1.79251
133 1 23.8428 -8.75395 -0.121771 23.8428 -8.75395 -0.121771
134 2 25.8174 -8.74625 1.46725 25.8174 -8.74625 1.46725
135 2 25.7916 -8.72862 -1.74092 25.7916 -8.72862 -1.74092
136 1 26.6561 -7.02899 -0.133055 26.6561 -7.02899 -0.133055
137 2 28.4357 -7.33848 1.56056 28.4357 -7.33848 1.56056
138 2 28.4322 -7.36072 -1.8245 28.4322 -7.36072 -1.8245
139 1 29.5412 -8.75747 -0.123567 29.5412 -8.75747 -0.123567
140 2 31.4834 -8.76816 1.50378 31.4834 -8.76816 1.50378
141 2 31.5214 -8.71424 -1.70407 31.5214 -8.71424 -1.70407
142 1 32.3531 -7.03293 -0.0619391 32.3531 -7.03293 -0.0619391
143 2 34.1184 -7.39073 1.63569 34.1184 -7.39073 1.63569
144 2 34.1444 -7.31422 -1.74752 34.1444 -7.31422 -1.74752
145 1 35.2378 -8.76112 -0.0797868 35.2378 -8.76112 -0.0797868
146 2 37.2005 -8.76868 1.52197 37.2005 -8.76868 1.52197
147 2 37.197 -8.71895 -1.68618 37.197 -8.71895 -1.68618
148 1 38.049 -7.035 -0.056549 38.049 -7.035 -0.056549
149 2 39.8335 -7.38714 1.62218 39.8335 -7.38714 1.62218
150 2 39.8205 -7.32098 -1.76188 39.8205 -7.32098 -1.76188
151 1 40.9341 -8.76145 -0.101995 40.9341 -8.76145 -0.101995
152 2 42.9163 -8.75681 1.47595 42.9163 -8.75681 1.47595
153 2 42.8731 -8.72774 -1.73216 42.8731 -8.72774 -1.73216
154 1 43.7437 -7.0327 -0.123505 43.7437 -7.0327 -0.123505
155 2 45.5406 -7.35899 1.54789 45.5406 -7.35899 1.54789
156 2 45.503 -7.34264 -1.83709 45.503 -7.34264 -1.83709
157 1 46.6309 -8.75695 -0.164009 46.6309 -8.75695 -0.164009
158 2 48.6207 -8.73261 1.40627 48.6207 -8.73261 1.40627
159 2 48.5634 -8.74294 -1.80168 48.5634 -8.74294 -1.80168
160 1 49.4411 -7.02843 -0.217024 49.4411 -7.02843 -0.217024
161 2 51.232 -7.31192 1.4695 51.232 -7.31192 1.4695
162 2 51.2077 -7.3798 -1.91432 51.2077 -7.3798 -1.91432
163 1 1.00621 18.4493 -0.306151 1.00621 18.4493 -0.306151
164 2 2.78899 18.7093 1.39236 2.78899 18.7093 1.39236
165 2 2.7785 18.8302 -1.99155 2.7785 18.8302 -1.99155
166 1 3.89289 20.1751 -0.252759 3.89289 20.1751 -0.252759
167 2 5.84129 20.1159 1.36696 5.84129 20.1159 1.36696
168 2 5.86762 20.1986 -1.84035 5.86762 20.1986 -1.84035
169 1 6.70455 18.4487 -0.273974 6.70455 18.4487 -0.273974
170 2 8.46874 18.7194 1.44135 8.46874 18.7194 1.44135
171 2 8.49759 18.813 -1.94135 8.49759 18.813 -1.94135
172 1 9.59131 20.1735 -0.201077 9.59131 20.1735 -0.201077
173 2 11.5249 20.1303 1.43623 11.5249 20.1303 1.43623
174 2 11.5809 20.1808 -1.7713 11.5809 20.1808 -1.7713
175 1 12.4033 18.4468 -0.180404 12.4033 18.4468 -0.180404
176 2 14.1559 18.7455 1.54199 14.1559 18.7455 1.54199
177 2 14.2078 18.7838 -1.84159 14.2078 18.7838 -1.84159
178 1 15.2904 20.1723 -0.116623 15.2904 20.1723 -0.116623
179 2 17.207 20.1539 1.53857 17.207 20.1539 1.53857
180 2 17.2964 20.1559 -1.66838 17.2964 20.1559 -1.66838
181 1 18.103 18.4467 -0.0451882 18.103 18.4467 -0.0451882
182 2 19.8775 18.8326 1.6347 19.8775 18.8326 1.6347
183 2 19.8851 18.6996 -1.74744 19.8851 18.6996 -1.74744
184 1 20.9907 20.1728 -0.110474 20.9907 20.1728 -0.110474
185 2 23.0421 20.1051 1.38013 23.0421 20.1051 1.38013
186 2 22.8591 20.2074 -1.82169 22.8591 20.2074 -1.82169
187 1 23.7988 18.4499 -0.31957 23.7988 18.4499 -0.31957
188 2 25.6219 18.63 1.34872 25.6219 18.63 1.34872
189 2 25.5384 18.8987 -2.01904 25.5384 18.8987 -2.01904
190 1 26.6876 20.1747 -0.247877 26.6876 20.1747 -0.247877
191 2 28.5965 20.1671 1.41961 28.5965 20.1671 1.41961
192 2 28.7016 20.1454 -1.78691 28.7016 20.1454 -1.78691
193 1 29.4993 18.4477 -0.147193 29.4993 18.4477 -0.147193
194 2 31.2524 18.8219 1.55878 31.2524 18.8219 1.55878
195 2 31.303 18.7116 -1.82436 31.303 18.7116 -1.82436
196 1 32.3882 20.1725 -0.162018 32.3882 20.1725 -0.162018
197 2 34.3425 20.1758 1.45203 34.3425 20.1758 1.45203
198 2 34.3584 20.134 -1.75606 34.3584 20.134 -1.75606
199 1 35.2013 18.4465 -0.124774 35.2013 18.4465 -0.124774
200 2 36.967 18.7803 1.57872 36.967 18.7803 1.57872
201 2 36.9929 18.7497 -1.80575 36.9929 18.7497 -1.80575
202 1 38.089 20.1722 -0.117425 38.089 20.1722 -0.117425
203 2 40.0135 20.2068 1.52954 40.0135 20.2068 1.52954
204 2 40.0884 20.1053 -1.67652 40.0884 20.1053 -1.67652
205 1 40.9016 18.4492 -0.0021832 40.9016 18.4492 -0.0021832
206 2 42.6813 18.8771 1.66177 42.6813 18.8771 1.66177
207 2 42.6819 18.6537 -1.71227 42.6819 18.6537 -1.71227
208 1 43.7874 20.1745 -0.11998 43.7874 20.1745 -0.11998
209 2 45.8158 20.1476 1.40021 45.8158 20.1476 1.40021
210 2 45.6797 20.1644 -1.80527 45.6797 20.1644 -1.80527
211 1 46.5972 18.4474 -0.24452 46.5972 18.4474 -0.24452
212 2 48.4116 18.7041 1.42196 48.4116 18.7041 1.42196
213 2 48.3406 18.8269 -1.95863 48.3406 18.8269 -1.95863
214 1 49.4851 20.1737 -0.240451 49.4851 20.1737 -0.240451
215 2 51.4665 20.1264 1.34044 51.4665 20.1264 1.34044
216 2 51.4268 20.1885 -1.86696 51.4268 20.1885 -1.86696
217 1 1.07799 21.8077 -0.241149 1.07799 21.8077 -0.241149
218 2 2.94858 21.7762 1.40997 2.94858 21.7762 1.40997
219 2 2.98028 21.8606 -1.85218 2.98028 21.8606 -1.85218
220 1 3.92416 23.4566 -0.169552 3.92416 23.4566 -0.169552
221 2 5.81714 23.4251 1.47055 5.81714 23.4251 1.47055
222 2 5.8325 23.484 -1.79142 5.8325 23.484 -1.79142
223 1 6.77665 21.8069 -0.18591 6.77665 21.8069 -0.18591
224 2 8.649 21.7773 1.46178 8.649 21.7773 1.46178
225 2 8.67663 21.8561 -1.80061 8.67663 21.8561 -1.80061
226 1 9.62266 23.4554 -0.12136 9.62266 23.4554 -0.12136
227 2 11.5182 23.4405 1.51625 11.5182 23.4405 1.51625
228 2 11.5286 23.4662 -1.74614 11.5286 23.4662 -1.74614
229 1 12.4753 21.8055 -0.125142 12.4753 21.8055 -0.125142
230 2 14.3435 21.7938 1.52741 14.3435 21.7938 1.52741
231 2 14.3796 21.8377 -1.73546 14.3796 21.8377 -1.73546
232 1 15.3216 23.4548 -0.070369 15.3216 23.4548 -0.070369
233 2 17.2168 23.4725 1.56812 17.2168 23.4725 1.56812
234 2 17.2283 23.4349 -1.69402 17.2283 23.4349 -1.69402
235 1 18.175 21.8058 -0.0407439 18.175 21.8058 -0.0407439
236 2 20.1058 21.8319 1.53595 20.1058 21.8319 1.53595
237 2 20.0178 21.803 -1.72587 20.0178 21.803 -1.72587
238 1 21.0208 23.4563 -0.134066 21.0208 23.4563 -0.134066
239 2 22.9461 23.4128 1.46776 22.9461 23.4128 1.46776
240 2 22.8969 23.497 -1.7933 22.8969 23.497 -1.7933
241 1 23.873 21.8077 -0.218701 23.873 21.8077 -0.218701
242 2 25.7499 21.7628 1.4277 25.7499 21.7628 1.4277
243 2 25.7701 21.8753 -1.83376 25.7701 21.8753 -1.83376
244 1 26.72 23.4565 -0.142466 26.72 23.4565 -0.142466
245 2 28.6366 23.4615 1.47016 28.6366 23.4615 1.47016
246 2 28.6053 23.4467 -1.79218 28.6053 23.4467 -1.79218
247 1 29.5727 21.8062 -0.164289 29.5727 21.8062 -0.164289
248 2 31.4677 21.8373 1.45608 31.4677 21.8373 1.45608
249 2 31.4518 21.796 -1.80692 31.4518 21.796 -1.80692
250 1 32.4197 23.4549 -0.199692 32.4197 23.4549 -0.199692
251 2 34.3133 23.4692 1.44065 34.3133 23.4692 1.44065
252 2 34.3279 23.4358 -1.82166 34.3279 23.4358 -1.82166
253 1 35.273 21.8049 -0.169022 35.273 21.8049 -0.169022
254 2 37.1422 21.8362 1.48283 37.1422 21.8362 1.48283
255 2 37.1769 21.7945 -1.78006 37.1769 21.7945 -1.78006
256 1 38.119 23.4546 -0.159324 38.119 23.4546 -0.159324
257 2 40.0172 23.5013 1.47433 40.0172 23.5013 1.47433
258 2 40.0224 23.4056 -1.78683 40.0224 23.4056 -1.78683
259 1 40.9726 21.807 -0.106585 40.9726 21.807 -0.106585
260 2 42.8928 21.8708 1.48141 42.8928 21.8708 1.48141
261 2 42.8248 21.7655 -1.7797 42.8248 21.7655 -1.7797
262 1 43.818 23.4558 -0.220728 43.818 23.4558 -0.220728
263 2 45.7249 23.451 1.40393 45.7249 23.451 1.40393
264 2 45.713 23.4573 -1.8586 45.713 23.4573 -1.8586
265 1 46.6707 21.8065 -0.232541 46.6707 21.8065 -0.232541
266 2 48.5543 21.798 1.40535 48.5543 21.798 1.40535
267 2 48.5607 21.8376 -1.85785 48.5607 21.8376 -1.85785
268 1 49.5173 23.4564 -0.206161 49.5173 23.4564 -0.206161
269 2 51.4203 23.4246 1.42179 51.4203 23.4246 1.42179
270 2 51.4157 23.4853 -1.84024 51.4157 23.4853 -1.84024
271 1 1.0757 25.1023 -0.179722 1.0757 25.1023 -0.179722
272 2 2.96302 25.0909 1.46669 2.96302 25.0909 1.46669
273 2 2.98805 25.116 -1.79554 2.98805 25.116 -1.79554
274 1 3.92572 26.7495 -0.143982 3.92572 26.7495 -0.143982
275 2 5.81793 26.7531 1.49662 5.81793 26.7531 1.49662
276 2 5.83375 26.7454 -1.76587 5.83375 26.7454 -1.76587
277 1 6.77422 25.1019 -0.125794 6.77422 25.1019 -0.125794
278 2 8.6678 25.0954 1.51314 8.6678 25.0954 1.51314
279 2 8.68055 25.1095 -1.74917 8.68055 25.1095 -1.74917
280 1 9.62452 26.7486 -0.107276 9.62452 26.7486 -0.107276
281 2 11.5226 26.7533 1.52645 11.5226 26.7533 1.52645
282 2 11.5268 26.743 -1.73605 11.5268 26.743 -1.73605
283 1 12.4731 25.1009 -0.0983214 12.4731 25.1009 -0.0983214
284 2 14.3621 25.1104 1.54579 14.3621 25.1104 1.54579
285 2 14.384 25.0934 -1.71641 14.384 25.0934 -1.71641
286 1 15.3234 26.7482 -0.0875461 15.3234 26.7482 -0.0875461
287 2 17.2277 26.7637 1.53894 17.2277 26.7637 1.53894
288 2 17.2193 26.7334 -1.72342 17.2193 26.7334 -1.72342
289 1 18.1721 25.1014 -0.0790762 18.1721 25.1014 -0.0790762
290 2 20.0971 25.0923 1.52208 20.0971 25.0923 1.52208
291 2 20.0469 25.1135 -1.73983 20.0469 25.1135 -1.73983
292 1 21.0221 26.7493 -0.112759 21.0221 26.7493 -0.112759
293 2 22.9319 26.745 1.5074 22.9319 26.745 1.5074
294 2 22.9125 26.754 -1.75506 22.9125 26.754 -1.75506
295 1 23.8709 25.1023 -0.133906 23.8709 25.1023 -0.133906
296 2 25.7771 25.1047 1.4907 25.7771 25.1047 1.4907
297 2 25.7647 25.1021 -1.77165 25.7647 25.1021 -1.77165
298 1 26.7213 26.7492 -0.145622 26.7213 26.7492 -0.145622
299 2 28.6434 26.7557 1.45924 28.6434 26.7557 1.45924
300 2 28.5993 26.741 -1.80295 28.5993 26.741 -1.80295
301 1 29.5703 25.1013 -0.177479 29.5703 25.1013 -0.177479
302 2 31.4882 25.1112 1.43237 31.4882 25.1112 1.43237
303 2 31.4523 25.0919 -1.82975 31.4523 25.0919 -1.82975
304 1 32.4202 26.7476 -0.218875 32.4202 26.7476 -0.218875
305 2 34.3159 26.755 1.41787 34.3159 26.755 1.41787
306 2 34.3249 26.7389 -1.84461 34.3249 26.7389 -1.84461
307 1 35.2696 25.1 -0.20296 35.2696 25.1 -0.20296
308 2 37.1592 25.1264 1.44002 37.1592 25.1264 1.44002
309 2 37.18 25.0752 -1.82191 37.18 25.0752 -1.82191
310 1 38.1194 26.747 -0.21104 38.1194 26.747 -0.21104
311 2 40.0233 26.7611 1.41555 40.0233 26.7611 1.41555
312 2 40.0157 26.7333 -1.84692 40.0157 26.7333 -1.84692
313 1 40.9688 25.1006 -0.203915 40.9688 25.1006 -0.203915
314 2 42.8829 25.1112 1.4098 42.8829 25.1112 1.4098
315 2 42.8544 25.0934 -1.85246 42.8544 25.0934 -1.85246
316 1 43.819 26.7482 -0.238778 43.819 26.7482 -0.238778
317 2 45.7092 26.7412 1.40448 45.7092 26.7412 1.40448
318 2 45.7294 26.7554 -1.85797 45.7294 26.7554 -1.85797
319 1 46.6684 25.1016 -0.22772 46.6684 25.1016 -0.22772
320 2 48.5539 25.0979 1.42085 48.5539 25.0979 1.42085
321 2 48.5827 25.1079 -1.84143 48.5827 25.1079 -1.84143
322 1 49.5185 26.749 -0.19671 49.5185 26.749 -0.19671
323 2 51.4045 26.741 1.45098 51.4045 26.741 1.45098
324 2 51.4327 26.7575 -1.81142 51.4327 26.7575 -1.81142
325 1 1.07686 28.3957 -0.163765 1.07686 28.3957 -0.163765
326 2 2.9682 28.4007 1.47766 2.9682 28.4007 1.47766
327 2 2.98558 28.3917 -1.7849 2.98558 28.3917 -1.7849
328 1 3.92688 30.0425 -0.153157 3.92688 30.0425 -0.153157
329 2 5.82469 30.0574 1.48061 5.82469 30.0574 1.48061
330 2 5.82924 30.0274 -1.78182 5.82924 30.0274 -1.78182
331 1 6.7759 28.3956 -0.133931 6.7759 28.3956 -0.133931
332 2 8.66997 28.4112 1.50425 8.66997 28.4112 1.50425
333 2 8.68185 28.3798 -1.75818 8.68185 28.3798 -1.75818
334 1 9.62587 30.0417 -0.13967 9.62587 30.0417 -0.13967
335 2 11.5162 30.0545 1.50286 11.5162 30.0545 1.50286
336 2 11.5356 30.0283 -1.75956 11.5356 30.0283 -1.75956
337 1 12.4747 28.3946 -0.109005 12.4747 28.3946 -0.109005
338 2 14.371 28.4095 1.52669 14.371 28.4095 1.52669
339 2 14.3784 28.3803 -1.73578 14.3784 28.3803 -1.73578
340 1 15.3246 30.0413 -0.117224 15.3246 30.0413 -0.117224
341 2 17.2273 30.0538 1.5107 17.2273 30.0538 1.5107
342 2 17.2218 30.0297 -1.75183 17.2218 30.0297 -1.75183
343 1 18.1734 28.3951 -0.109914 18.1734 28.3951 -0.109914
344 2 20.0811 28.4061 1.51227 20.0811 28.4061 1.51227
345 2 20.0656 28.3859 -1.75028 20.0656 28.3859 -1.75028
346 1 21.0233 30.0423 -0.133734 21.0233 30.0423 -0.133734
347 2 22.9301 30.0627 1.48936 22.9301 30.0627 1.48936
348 2 22.9163 30.0224 -1.77298 22.9163 30.0224 -1.77298
349 1 23.8723 28.3959 -0.125116 23.8723 28.3959 -0.125116
350 2 25.7911 28.4082 1.48417 25.7911 28.4082 1.48417
351 2 25.7534 28.3837 -1.77814 25.7534 28.3837 -1.77814
352 1 26.722 30.042 -0.17073 26.722 30.042 -0.17073
353 2 28.6388 30.0488 1.44073 28.6388 30.0488 1.44073
354 2 28.6051 30.0343 -1.82167 28.6051 30.0343 -1.82167
355 1 29.5711 28.3947 -0.192653 29.5711 28.3947 -0.192653
356 2 31.4852 28.3929 1.42198 31.4852 28.3929 1.42198
357 2 31.4568 28.3957 -1.84053 31.4568 28.3957 -1.84053
358 1 32.4207 30.0405 -0.216315 32.4207 30.0405 -0.216315
359 2 34.3223 30.0408 1.41319 34.3223 30.0408 1.41319
360 2 34.3192 30.0392 -1.84941 34.3192 30.0392 -1.84941
361 1 35.27 28.3934 -0.218682 35.27 28.3934 -0.218682
362 2 37.1708 28.4024 1.41168 37.1708 28.4024 1.41168
363 2 37.1693 28.3843 -1.85092 37.1693 28.3843 -1.85092
364 1 38.1199 30.0396 -0.229487 38.1199 30.0396 -0.229487
365 2 40.0168 30.0317 1.40542 40.0168 30.0317 1.40542
366 2 40.0232 30.048 -1.85714 40.0232 30.048 -1.85714
367 1 40.9694 28.3935 -0.232265 40.9694 28.3935 -0.232265
368 2 42.8673 28.3842 1.40139 42.8673 28.3842 1.40139
369 2 42.8717 28.4045 -1.86119 42.8717 28.4045 -1.86119
370 1 43.8196 30.0404 -0.218241 43.8196 30.0404 -0.218241
371 2 45.7108 30.0301 1.42364 45.7108 30.0301 1.42364
372 2 45.7287 30.0516 -1.83884 45.7287 30.0516 -1.83884
373 1 46.6692 28.3946 -0.213396 46.6692 28.3946 -0.213396
374 2 48.5567 28.3896 1.43288 48.5567 28.3896 1.43288
375 2 48.5819 28.4009 -1.82964 48.5819 28.4009 -1.82964
376 1 49.5192 30.0416 -0.184895 49.5192 30.0416 -0.184895
377 2 51.4097 30.0461 1.45779 51.4097 30.0461 1.45779
378 2 51.429 30.0384 -1.80472 51.429 30.0384 -1.80472
379 1 1.07769 31.6887 -0.171641 1.07769 31.6887 -0.171641
380 2 2.97473 31.7023 1.463 2.97473 31.7023 1.463
381 2 2.98092 31.676 -1.79947 2.98092 31.676 -1.79947
382 1 3.92772 33.3355 -0.179891 3.92772 33.3355 -0.179891
383 2 5.82497 33.3456 1.45439 5.82497 33.3456 1.45439
384 2 5.83063 33.3253 -1.80813 5.83063 33.3253 -1.80813
385 1 6.77684 31.6887 -0.164813 6.77684 31.6887 -0.164813
386 2 8.66963 31.7006 1.4748 8.66963 31.7006 1.4748
387 2 8.68409 31.6762 -1.78767 8.68409 31.6762 -1.78767
388 1 9.62664 33.3347 -0.16482 9.62664 33.3347 -0.16482
389 2 11.511 33.3356 1.48467 11.511 33.3356 1.48467
390 2 11.5422 33.3334 -1.77778 11.5422 33.3334 -1.77778
391 1 12.4756 31.6878 -0.136333 12.4756 31.6878 -0.136333
392 2 14.3689 31.6954 1.50253 14.3689 31.6954 1.50253
393 2 14.3823 31.6802 -1.76004 14.3823 31.6802 -1.76004
394 1 15.325 33.3344 -0.132559 15.325 33.3344 -0.132559
395 2 17.2271 33.3374 1.49579 17.2271 33.3374 1.49579
396 2 17.2227 33.3319 -1.76684 17.2227 33.3319 -1.76684
397 1 18.1742 31.6882 -0.134343 18.1742 31.6882 -0.134343
398 2 20.0813 31.702 1.48824 20.0813 31.702 1.48824
399 2 20.067 31.6755 -1.77427 20.067 31.6755 -1.77427
400 1 21.0235 33.3352 -0.160688 21.0235 33.3352 -0.160688
401 2 22.933 33.3459 1.45933 22.933 33.3459 1.45933
402 2 22.9141 33.3245 -1.80319 22.9141 33.3245 -1.80319
403 1 23.8729 31.6887 -0.166599 23.8729 31.6887 -0.166599
404 2 25.7827 31.7016 1.45276 25.7827 31.7016 1.45276
405 2 25.7629 31.6755 -1.80972 25.7629 31.6755 -1.80972
406 1 26.7222 33.3349 -0.197985 26.7222 33.3349 -0.197985
407 2 28.6254 33.3298 1.42955 28.6254 33.3298 1.42955
408 2 28.6192 33.3391 -1.83306 28.6192 33.3391 -1.83306
409 1 29.5716 31.6878 -0.208046 29.5716 31.6878 -0.208046
410 2 31.4727 31.681 1.42191 31.4727 31.681 1.42191
411 2 31.4705 31.6934 -1.84069 31.4705 31.6934 -1.84069
412 1 32.4213 33.3334 -0.203884 32.4213 33.3334 -0.203884
413 2 34.3219 33.3185 1.4266 34.3219 33.3185 1.4266
414 2 34.3208 33.3473 -1.8359 34.3208 33.3473 -1.8359
415 1 35.2706 31.6863 -0.21979 35.2706 31.6863 -0.21979
416 2 37.1695 31.6748 1.41265 37.1695 31.6748 1.41265
417 2 37.1717 31.6974 -1.84988 37.1717 31.6974 -1.84988
418 1 38.1206 33.3323 -0.20636 38.1206 33.3323 -0.20636
419 2 40.0169 33.3169 1.42927 40.0169 33.3169 1.42927
420 2 40.0245 33.3478 -1.83319 40.0245 33.3478 -1.83319
421 1 40.97 31.6861 -0.215587 40.97 31.6861 -0.215587
422 2 42.8638 31.6731 1.42299 42.8638 31.6731 1.42299
423 2 42.8764 31.6999 -1.8395 42.8764 31.6999 -1.8395
424 1 43.8201 33.3327 -0.190835 43.8201 33.3327 -0.190835
425 2 45.7147 33.3235 1.44694 45.7147 33.3235 1.44694
426 2 45.7259 33.3432 -1.81558 45.7259 33.3432 -1.81558
427 1 46.6697 31.6872 -0.191238 46.6697 31.6872 -0.191238
428 2 48.5638 31.6838 1.44715 48.5638 31.6838 1.44715
429 2 48.5759 31.6919 -1.81542 48.5759 31.6919 -1.81542
430 1 49.5199 33.3342 -0.176327 49.5199 33.3342 -0.176327
431 2 51.4184 33.3372 1.45677 51.4184 33.3372 1.45677
432 2 51.4218 33.3329 -1.80582 51.4218 33.3329 -1.80582
433 1 1.07841 34.9815 -0.175731 1.07841 34.9815 -0.175731
434 2 2.98214 34.9847 1.45108 2.98214 34.9847 1.45108
435 2 2.97495 34.9795 -1.8115 2.97495 34.9795 -1.8115
436 1 3.92833 36.6285 -0.184991 3.92833 36.6285 -0.184991
437 2 5.82738 36.626 1.4475 5.82738 36.626 1.4475
438 2 5.82938 36.6309 -1.8151 5.82938 36.6309 -1.8151
439 1 6.77758 34.9818 -0.1857 6.77758 34.9818 -0.1857
440 2 8.66604 34.982 1.4591 8.66604 34.982 1.4591
441 2 8.68914 34.9811 -1.80341 8.68914 34.9811 -1.80341
442 1 9.62696 36.628 -0.165692 9.62696 36.628 -0.165692
443 2 11.5106 36.6264 1.48468 11.5106 36.6264 1.48468
444 2 11.5429 36.6292 -1.77778 11.5429 36.6292 -1.77778
445 1 12.4759 34.9811 -0.138601 12.4759 34.9811 -0.138601
446 2 14.3699 34.9771 1.49952 14.3699 34.9771 1.49952
447 2 14.3817 34.985 -1.76306 14.3817 34.985 -1.76306
448 1 15.325 36.6278 -0.124277 15.325 36.6278 -0.124277
449 2 17.2326 36.6271 1.49758 17.2326 36.6271 1.49758
450 2 17.217 36.6288 -1.765 17.217 36.6288 -1.765
451 1 18.1742 34.9814 -0.13954 18.1742 34.9814 -0.13954
452 2 20.088 34.9855 1.47502 20.088 34.9855 1.47502
453 2 20.06 34.9777 -1.78748 20.06 34.9777 -1.78748
454 1 21.0229 36.6282 -0.168326 21.0229 36.6282 -0.168326
455 2 22.9352 36.6298 1.44839 22.9352 36.6298 1.44839
456 2 22.9104 36.6263 -1.81414 22.9104 36.6263 -1.81414
457 1 23.8726 34.9817 -0.18843 23.8726 34.9817 -0.18843
458 2 25.7783 34.9814 1.43632 25.7783 34.9814 1.43632
459 2 25.767 34.9812 -1.82629 25.767 34.9812 -1.82629
460 1 26.722 36.6276 -0.198398 26.722 36.6276 -0.198398
461 2 28.6182 36.619 1.43787 28.6182 36.619 1.43787
462 2 28.6261 36.6351 -1.8247 28.6261 36.6351 -1.8247
463 1 29.5718 34.9807 -0.198998 29.5718 34.9807 -0.198998
464 2 31.4674 34.9673 1.43768 31.4674 34.9673 1.43768
465 2 31.4765 34.9927 -1.82482 31.4765 34.9927 -1.82482
466 1 32.4217 36.6261 -0.177915 32.4217 36.6261 -0.177915
467 2 34.321 36.6115 1.45458 34.321 36.6115 1.45458
468 2 34.3228 36.6394 -1.8079 34.3228 36.6394 -1.8079
469 1 35.2712 34.979 -0.190238 35.2712 34.979 -0.190238
470 2 37.1707 34.9618 1.44174 37.1707 34.9618 1.44174
471 2 37.1719 34.9955 -1.82069 37.1719 34.9955 -1.82069
472 1 38.1212 36.6249 -0.171782 38.1212 36.6249 -0.171782
473 2 40.023 36.6159 1.45766 40.023 36.6159 1.45766
474 2 40.0195 36.634 -1.8049 40.0195 36.634 -1.8049
475 1 40.9706 34.9786 -0.183861 40.9706 34.9786 -0.183861
476 2 42.8683 34.9678 1.45039 42.8683 34.9678 1.45039
477 2 42.8732 34.9901 -1.81214 42.8732 34.9901 -1.81214
478 1 43.8207 36.6252 -0.167991 43.8207 36.6252 -0.167991
479 2 45.72 36.6212 1.46449 45.72 36.6212 1.46449
480 2 45.7218 36.6305 -1.79809 45.7218 36.6305 -1.79809
481 1 46.6704 34.9797 -0.171036 46.6704 34.9797 -0.171036
482 2 48.5702 34.975 1.46061 48.5702 34.975 1.46061
483 2 48.5709 34.9861 -1.80196 48.5709 34.9861 -1.80196
484 1 49.5206 36.6269 -0.164848 49.5206 36.6269 -0.164848
485 2 51.4254 36.6254 1.46094 51.4254 36.6254 1.46094
486 2 51.4161 36.6302 -1.80164 51.4161 36.6302 -1.80164
487 1 1.07899 38.2743 -0.170665 1.07899 38.2743 -0.170665
488 2 2.98597 38.273 1.45242 2.98597 38.273 1.45242
489 2 2.97213 38.2769 -1.81017 2.97213 38.2769 -1.81017
490 1 3.92852 39.9215 -0.180942 3.92852 39.9215 -0.180942
491 2 5.82628 39.9177 1.45313 5.82628 39.9177 1.45313
492 2 5.83068 39.9253 -1.80949 5.83068 39.9253 -1.80949
493 1 6.77783 38.2749 -0.180661 6.77783 38.2749 -0.180661
494 2 8.66742 38.2714 1.46294 8.66742 38.2714 1.46294
495 2 8.68805 38.278 -1.79963 8.68805 38.278 -1.79963
496 1 9.62681 39.9213 -0.158704 9.62681 39.9213 -0.158704
497 2 11.5147 39.9232 1.4868 11.5147 39.9232 1.4868
498 2 11.5385 39.9191 -1.77575 11.5385 39.9191 -1.77575
499 1 12.4759 38.2745 -0.13548 12.4759 38.2745 -0.13548
500 2 14.3684 38.2732 1.50429 14.3684 38.2732 1.50429
501 2 14.3829 38.2758 -1.7583 14.3829 38.2758 -1.7583
502 1 15.3244 39.9214 -0.121462 15.3244 39.9214 -0.121462
503 2 17.2339 39.9229 1.49828 17.2339 39.9229 1.49828
504 2 17.2144 39.92 -1.76431 17.2144 39.92 -1.76431
505 1 18.1736 38.2748 -0.137401 18.1736 38.2748 -0.137401
506 2 20.0902 38.274 1.47371 20.0902 38.274 1.47371
507 2 20.0563 38.2754 -1.78875 20.0563 38.2754 -1.78875
508 1 21.0222 39.9214 -0.166708 21.0222 39.9214 -0.166708
509 2 22.9359 39.9201 1.44842 22.9359 39.9201 1.44842
510 2 22.9083 39.9217 -1.81408 22.9083 39.9217 -1.81408
511 1 23.8719 38.2745 -0.191723 23.8719 38.2745 -0.191723
512 2 25.7752 38.2724 1.43607 25.7752 38.2724 1.43607
513 2 25.7688 38.2755 -1.82653 25.7688 38.2755 -1.82653
514 1 26.7217 39.9201 -0.195481 26.7217 39.9201 -0.195481
515 2 28.6129 39.9157 1.4466 28.6129 39.9157 1.4466
516 2 28.6309 39.923 -1.81593 28.6309 39.923 -1.81593
517 1 29.5718 38.2731 -0.182905 29.5718 38.2731 -0.182905
518 2 31.4661 38.2667 1.45562 31.4661 38.2667 1.45562
519 2 31.4781 38.2783 -1.80693 31.4781 38.2783 -1.80693
520 1 32.4218 39.9186 -0.166219 32.4218 39.9186 -0.166219
521 2 34.3173 39.9141 1.47054 34.3173 39.9141 1.47054
522 2 34.3268 39.922 -1.79203 34.3268 39.922 -1.79203
523 1 35.2716 38.2716 -0.161887 35.2716 38.2716 -0.161887
524 2 37.175 38.267 1.46579 37.175 38.267 1.46579
525 2 37.1686 38.2757 -1.7968 37.1686 38.2757 -1.7968
526 1 38.1215 39.9177 -0.162845 38.1215 39.9177 -0.162845
527 2 40.0246 39.9202 1.46492 40.0246 39.9202 1.46492
528 2 40.0187 39.9151 -1.79768 40.0187 39.9151 -1.79768
529 1 40.9711 38.2713 -0.165397 40.9711 38.2713 -0.165397
530 2 42.8723 38.2704 1.46492 42.8723 38.2704 1.46492
531 2 42.8703 38.2725 -1.79769 42.8703 38.2725 -1.79769
532 1 43.8212 39.9177 -0.165942 43.8212 39.9177 -0.165942
533 2 45.72 39.92 1.46713 45.72 39.92 1.46713
534 2 45.7229 39.9166 -1.79547 45.7229 39.9166 -1.79547
535 1 46.671 38.2722 -0.161554 46.671 38.2722 -0.161554