ITEM: TIMESTEP
5404000
ITEM: NUMBER OF ATOMS
810
ITEM: BOX BOUNDS pp pp pp
8.6298438867990135e-01 5.2154620611319167e+01
-1.2530778530443108e+01 6.3546993530442691e+01
-1.0000000000000000e+01 1.0000000000000000e+01
ITEM: ATOMS id type x y z xu yu zu
1 1 1.07591 58.0214 -0.10185 1.07591 -18.0564 -0.10185
2 2 2.98808 58.0018 1.51516 2.98808 -18.076 1.51516
3 2 2.96407 58.0412 -1.74701 2.96407 -18.0366 -1.74701
4 1 3.9249 59.6686 -0.102773 3.9249 -16.4092 -0.102773
5 2 5.84882 59.6581 1.49981 5.84882 -16.4197 1.49981
6 2 5.8004 59.6778 -1.76221 5.8004 -16.4 -1.76221
7 1 6.77423 58.0216 -0.155525 6.77423 -18.0562 -0.155525
8 2 8.69254 58.008 1.45402 8.69254 -18.0698 1.45402
9 2 8.65563 58.0361 -1.80821 8.65563 -18.0417 -1.80821
10 1 9.62292 59.669 -0.173485 9.62292 -16.4088 -0.173485
11 2 11.5302 59.6523 1.44919 11.5302 -16.4254 1.44919
12 2 11.5151 59.6847 -1.81309 11.5151 -16.3931 -1.81309
13 1 12.4723 58.0223 -0.202973 12.4723 -18.0555 -0.202973
14 2 14.3777 58.0091 1.42207 14.3777 -18.0686 1.42207
15 2 14.3669 58.0372 -1.84029 14.3669 -18.0406 -1.84029
16 1 15.3207 59.6708 -0.197785 15.3207 -16.407 -0.197785
17 2 17.2267 59.665 1.42594 17.2267 -16.4127 1.42594
18 2 17.2141 59.6769 -1.83636 17.2141 -16.4009 -1.83636
19 1 18.1704 58.0245 -0.214999 18.1704 -18.0532 -0.214999
20 2 20.065 58.0202 1.42275 20.065 -18.0576 1.42275
21 2 20.076 58.0319 -1.83962 20.076 -18.0459 -1.83962
22 1 21.0186 59.6742 -0.199049 21.0186 -16.4036 -0.199049
23 2 22.9044 59.6706 1.4491 22.9044 -16.4072 1.4491
24 2 22.9327 59.6793 -1.81298 22.9327 -16.3985 -1.81298
25 1 23.8687 58.0284 -0.178198 23.8687 -18.0494 -0.178198
26 2 25.7519 58.0289 1.47247 25.7519 -18.0488 1.47247
27 2 25.7858 58.0303 -1.7897 25.7858 -18.0475 -1.7897
28 1 26.7176 59.6774 -0.14788 26.7176 -16.4003 -0.14788
29 2 28.6047 59.6826 1.49869 28.6047 -16.3952 1.49869
30 2 28.631 59.6724 -1.76335 28.631 -16.4054 -1.76335
31 1 29.5675 58.0305 -0.11937 29.5675 -18.0473 -0.11937
32 2 31.4598 58.0324 1.5212 31.4598 -18.0454 1.5212
33 2 31.4758 58.0287 -1.7411 31.4758 -18.0491 -1.7411
34 1 32.417 59.6778 -0.107406 32.417 -16.4 -0.107406
35 2 34.3197 59.6825 1.52027 34.3197 -16.3953 1.52027
36 2 34.3145 59.6691 -1.74194 34.3145 -16.4086 -1.74194
37 1 35.2668 58.0286 -0.105492 35.2668 -18.0491 -0.105492
38 2 37.1739 58.0314 1.51777 37.1739 -18.0463 1.51777
39 2 37.1605 58.0237 -1.74453 37.1605 -18.0541 -1.74453
40 1 38.1169 59.6743 -0.121422 38.1169 -16.4035 -0.121422
41 2 40.027 59.6785 1.4981 40.027 -16.3993 1.4981
42 2 40.0074 59.6661 -1.76407 40.0074 -16.4117 -1.76407
43 1 40.9672 58.0256 -0.132317 40.9672 -18.0522 -0.132317
44 2 42.8677 58.0282 1.4991 42.8677 -18.0496 1.4991
45 2 42.8679 58.0214 -1.76332 42.8679 -18.0564 -1.76332
46 1 43.8174 59.6713 -0.135285 43.8174 -16.4064 -0.135285
47 2 45.7119 59.6708 1.50318 45.7119 -16.407 1.50318
48 2 45.7234 59.6681 -1.75915 45.7234 -16.4096 -1.75915
49 1 46.6679 58.0232 -0.123098 46.6679 -18.0546 -0.123098
50 2 48.5607 58.0163 1.51705 48.5607 -18.0615 1.51705
51 2 48.5757 58.0288 -1.74541 48.5757 -18.049 -1.74541
52 1 49.5173 59.6692 -0.10308 49.5173 -16.4085 -0.10308
53 2 51.4127 59.6605 1.53385 51.4127 -16.4173 1.53385
54 2 51.422 59.6748 -1.72849 51.422 -16.403 -1.72849
55 1 1.07496 61.3142 -0.0872704 1.07496 -14.7635 -0.0872704
56 2 2.98144 61.3102 1.53778 2.98144 -14.7676 1.53778
57 2 2.97009 61.3222 -1.72472 2.97009 -14.7555 -1.72472
58 1 3.92802 62.9638 -0.0912909 3.92802 -13.1139 -0.0912909
59 2 5.83499 62.9463 1.51451 5.83499 -13.1314 1.51451
60 2 5.79348 62.9603 -1.74882 5.79348 -13.1175 -1.74882
61 1 6.77355 61.3145 -0.135461 6.77355 -14.7633 -0.135461
62 2 8.69225 61.3101 1.47464 8.69225 -14.7677 1.47464
63 2 8.65566 61.3228 -1.78777 8.65566 -14.7549 -1.78777
64 1 9.62551 62.9642 -0.16059 9.62551 -13.1136 -0.16059
65 2 11.5165 62.9529 1.46623 11.5165 -13.1249 1.46623
66 2 11.5066 62.9548 -1.7974 11.5066 -13.123 -1.7974
67 1 12.4713 61.3153 -0.169698 12.4713 -14.7625 -0.169698
68 2 14.3763 61.2986 1.45631 14.3763 -14.7792 1.45631
69 2 14.367 61.3379 -1.80601 14.367 -14.7398 -1.80601
70 1 15.323 62.9665 -0.157709 15.323 -13.1113 -0.157709
71 2 17.2258 62.9421 1.4536 17.2258 -13.1356 1.4536
72 2 17.1923 62.9725 -1.80951 17.1923 -13.1053 -1.80951
73 1 18.1688 61.3185 -0.202668 18.1688 -14.7593 -0.202668
74 2 20.07 61.3262 1.42801 20.07 -14.7516 1.42801
75 2 20.0688 61.3177 -1.83443 20.0688 -14.7601 -1.83443
76 1 21.0212 62.9704 -0.207378 21.0212 -13.1074 -0.207378
77 2 22.8953 62.9778 1.4401 22.8953 -13.1 1.4401
78 2 22.9205 62.9454 -1.82283 22.9205 -13.1324 -1.82283
79 1 23.8675 61.3225 -0.168742 23.8675 -14.7553 -0.168742
80 2 25.7645 61.3391 1.46693 25.7645 -14.7387 1.46693
81 2 25.7727 61.3117 -1.79527 25.7727 -14.7661 -1.79527
82 1 26.7218 62.9733 -0.175999 26.7218 -13.1045 -0.175999
83 2 28.5898 62.9762 1.47769 28.5898 -13.1016 1.47769
84 2 28.6276 62.9516 -1.78516 28.6276 -13.1262 -1.78516
85 1 29.5677 61.3245 -0.130063 29.5677 -14.7533 -0.130063
86 2 31.4544 61.324 1.51789 31.4544 -14.7537 1.51789
87 2 31.4831 61.3289 -1.74433 31.4831 -14.7489 -1.74433
88 1 32.4221 62.9739 -0.102731 32.4221 -13.1039 -0.102731
89 2 34.3112 62.9502 1.52472 34.3112 -13.1276 1.52472
90 2 34.3064 62.9743 -1.73855 34.3064 -13.1035 -1.73855
91 1 35.2672 61.3222 -0.119518 35.2672 -14.7556 -0.119518
92 2 37.1688 61.322 1.51086 37.1688 -14.7558 1.51086
93 2 37.1673 61.3231 -1.75158 37.1673 -14.7547 -1.75158
94 1 38.1214 62.9697 -0.119862 38.1214 -13.1081 -0.119862
95 2 40.022 62.9583 1.49501 40.022 -13.1195 1.49501
96 2 39.9936 62.9576 -1.76829 39.9936 -13.1202 -1.76829
97 1 40.9671 61.3184 -0.144721 40.9671 -14.7594 -0.144721
98 2 42.8744 61.3387 1.47926 42.8744 -14.7391 1.47926
99 2 42.862 61.2994 -1.78297 42.862 -14.7784 -1.78297
100 1 43.8213 62.966 -0.174815 43.8213 -13.1118 -0.174815
101 2 45.6982 62.985 1.46967 45.6982 -13.0928 1.46967
102 2 45.7179 62.9241 -1.793 45.7179 -13.1537 -1.793
103 1 46.6674 61.3157 -0.125536 46.6674 -14.762 -0.125536
104 2 48.5664 61.3351 1.50826 48.5664 -14.7427 1.50826
105 2 48.5703 61.2988 -1.75408 48.5703 -14.779 -1.75408
106 1 49.521 62.9641 -0.139999 49.521 -13.1137 -0.139999
107 2 51.3966 62.9859 1.50447 51.3966 -13.0918 1.50447
108 2 51.4178 62.9203 -1.7583 51.4178 -13.1575 -1.7583
109 1 1.04491 -11.4819 -0.153691 1.04491 -11.4819 -0.153691
110 2 2.97333 -11.4577 1.4888 2.97333 -11.4577 1.4888
111 2 3.03872 -11.4692 -1.71907 3.03872 -11.4692 -1.71907
112 1 3.85562 -9.75441 -0.105791 3.85562 -9.75441 -0.105791
113 2 5.62586 -10.1039 1.58746 5.62586 -10.1039 1.58746
114 2 5.64367 -10.0398 -1.79505 5.64367 -10.0398 -1.79505
115 1 6.74202 -11.4809 -0.124706 6.74202 -11.4809 -0.124706
116 2 8.72364 -11.4625 1.45419 8.72364 -11.4625 1.45419
117 2 8.68273 -11.464 -1.75388 8.68273 -11.464 -1.75388
118 1 9.55316 -9.75397 -0.160884 9.55316 -9.75397 -0.160884
119 2 11.3423 -10.0608 1.52287 11.3423 -10.0608 1.52287
120 2 11.3195 -10.0862 -1.86251 11.3195 -10.0862 -1.86251
121 1 12.4391 -11.4802 -0.166306 12.4391 -11.4802 -0.166306
122 2 14.3887 -11.4714 1.45098 14.3887 -11.4714 1.45098
123 2 14.4112 -11.4511 -1.75726 14.4112 -11.4511 -1.75726
124 1 15.2491 -9.7517 -0.137581 15.2491 -9.7517 -0.137581
125 2 17.028 -10.1028 1.54692 17.028 -10.1028 1.54692
126 2 17.026 -10.0381 -1.83812 17.026 -10.0381 -1.83812
127 1 18.1367 -11.4761 -0.17351 18.1367 -11.4761 -0.17351
128 2 20.1241 -11.4465 1.39967 20.1241 -11.4465 1.39967
129 2 20.0723 -11.4681 -1.80828 20.0723 -11.4681 -1.80828
130 1 20.948 -9.74835 -0.227955 20.948 -9.74835 -0.227955
131 2 22.7349 -10.0247 1.46423 22.7349 -10.0247 1.46423
132 2 22.7187 -10.1067 -1.91938 22.7187 -10.1067 -1.91938
133 1 23.8369 -11.472 -0.198373 23.8369 -11.472 -0.198373
134 2 25.7915 -11.448 1.41647 25.7915 -11.448 1.41647
135 2 25.8077 -11.46 -1.79171 25.8077 -11.46 -1.79171
136 1 26.651 -9.74542 -0.189566 26.651 -9.74542 -0.189566
137 2 28.4181 -10.0494 1.51784 28.4181 -10.0494 1.51784
138 2 28.4408 -10.0787 -1.86733 28.4408 -10.0787 -1.86733
139 1 29.5387 -11.4703 -0.154984 29.5387 -11.4703 -0.154984
140 2 31.467 -11.4591 1.48918 31.467 -11.4591 1.48918
141 2 31.5347 -11.446 -1.71837 31.5347 -11.446 -1.71837
142 1 32.3523 -9.74427 -0.0909355 32.3523 -9.74427 -0.0909355
143 2 34.1137 -10.0985 1.61132 34.1137 -10.0985 1.61132
144 2 34.1485 -10.0288 -1.7718 34.1485 -10.0288 -1.7718
145 1 35.2385 -11.4726 -0.0984525 35.2385 -11.4726 -0.0984525
146 2 37.2123 -11.4554 1.49043 37.2123 -11.4554 1.49043
147 2 37.1886 -11.4582 -1.71787 37.1886 -11.4582 -1.71787
148 1 38.0523 -9.74863 -0.121346 38.0523 -9.74863 -0.121346
149 2 39.8435 -10.0699 1.55682 39.8435 -10.0699 1.55682
150 2 39.8178 -10.0665 -1.82728 39.8178 -10.0665 -1.82728
151 1 40.9376 -11.4771 -0.145317 40.9376 -11.4771 -0.145317
152 2 42.9288 -11.4397 1.4229 42.9288 -11.4397 1.4229
153 2 42.8694 -11.4826 -1.7845 42.8694 -11.4826 -1.7845
154 1 43.7509 -9.75319 -0.218168 43.7509 -9.75319 -0.218168
155 2 45.5406 -10.022 1.47209 45.5406 -10.022 1.47209
156 2 45.5161 -10.1266 -1.91239 45.5161 -10.1266 -1.91239
157 1 46.6375 -11.48 -0.184685 46.6375 -11.48 -0.184685
158 2 48.5948 -11.4285 1.42456 48.5948 -11.4285 1.42456
159 2 48.6039 -11.4984 -1.78303 48.6039 -11.4984 -1.78303
160 1 49.451 -9.75536 -0.214303 49.451 -9.75536 -0.214303
161 2 51.2194 -10.0325 1.49601 51.2194 -10.0325 1.49601
162 2 51.2383 -10.118 -1.88822 51.2383 -10.118 -1.88822
163 1 1.00616 18.4338 -0.186366 1.00616 18.4338 -0.186366
164 2 2.8066 18.7423 1.4853 2.8066 18.7423 1.4853
165 2 2.76181 18.7628 -1.8999 2.76181 18.7628 -1.8999
166 1 3.89346 20.1585 -0.213105 3.89346 20.1585 -0.213105
167 2 5.85603 20.1602 1.39075 5.85603 20.1602 1.39075
168 2 5.85499 20.1177 -1.81753 5.85499 20.1177 -1.81753
169 1 6.70493 18.4299 -0.191364 6.70493 18.4299 -0.191364
170 2 8.48658 18.7718 1.49267 8.48658 18.7718 1.49267
171 2 8.48266 18.7198 -1.88985 8.48266 18.7198 -1.88985
172 1 9.59246 20.1546 -0.22245 9.59246 20.1546 -0.22245
173 2 11.5802 20.1222 1.35123 11.5802 20.1222 1.35123
174 2 11.5287 20.151 -1.85659 11.5287 20.151 -1.85659
175 1 12.4053 18.4282 -0.279796 12.4053 18.4282 -0.279796
176 2 14.1801 18.6872 1.42837 14.1801 18.6872 1.42837
177 2 14.1886 18.8054 -1.95304 14.1886 18.8054 -1.95304
178 1 15.2916 20.1547 -0.209318 15.2916 20.1547 -0.209318
179 2 17.196 20.1561 1.46218 17.196 20.1561 1.46218
180 2 17.309 20.1179 -1.74404 17.309 20.1179 -1.74404
181 1 18.1022 18.4286 -0.0929555 18.1022 18.4286 -0.0929555
182 2 19.8536 18.8114 1.61235 19.8536 18.8114 1.61235
183 2 19.9092 18.681 -1.76798 19.9092 18.681 -1.76798
184 1 20.9904 20.1545 -0.114588 20.9904 20.1545 -0.114588
185 2 22.9659 20.1485 1.47271 22.9659 20.1485 1.47271
186 2 22.9393 20.1274 -1.73539 22.9393 20.1274 -1.73539
187 1 23.8043 18.4296 -0.126511 23.8043 18.4296 -0.126511
188 2 25.5941 18.7584 1.55215 25.5941 18.7584 1.55215
189 2 25.5713 18.7398 -1.83234 25.5713 18.7398 -1.83234
190 1 26.6908 20.1571 -0.155773 26.6908 20.1571 -0.155773
191 2 28.6866 20.1287 1.40697 28.6866 20.1287 1.40697
192 2 28.6185 20.1542 -1.8005 28.6185 20.1542 -1.8005
193 1 29.5045 18.4335 -0.227392 29.5045 18.4335 -0.227392
194 2 31.304 18.7201 1.44941 31.304 18.7201 1.44941
195 2 31.2607 18.7879 -1.93529 31.2607 18.7879 -1.93529
196 1 32.3917 20.1606 -0.228677 32.3917 20.1606 -0.228677
197 2 34.3773 20.128 1.34891 34.3773 20.128 1.34891
198 2 34.3307 20.1615 -1.85906 34.3307 20.1615 -1.85906
199 1 35.2059 18.437 -0.283588 35.2059 18.437 -0.283588
200 2 36.9801 18.6906 1.42573 36.9801 18.6906 1.42573
201 2 36.9906 18.8192 -1.95409 36.9906 18.8192 -1.95409
202 1 38.0902 20.1652 -0.205891 38.0902 20.1652 -0.205891
203 2 39.9773 20.184 1.48416 39.9773 20.184 1.48416
204 2 40.1224 20.1103 -1.7203 40.1224 20.1103 -1.7203
205 1 40.8983 18.4393 -0.0433394 40.8983 18.4393 -0.0433394
206 2 42.6463 18.8567 1.6564 42.6463 18.8567 1.6564
207 2 42.7093 18.6557 -1.71955 42.7093 18.6557 -1.71955
208 1 43.7859 20.1643 -0.0958455 43.7859 20.1643 -0.0958455
209 2 45.7654 20.1642 1.486 45.7654 20.1642 1.486
210 2 45.7299 20.1258 -1.72199 45.7299 20.1258 -1.72199
211 1 46.5977 18.436 -0.10571 46.5977 18.436 -0.10571
212 2 48.3898 18.767 1.57041 48.3898 18.767 1.57041
213 2 48.363 18.7405 -1.81396 48.363 18.7405 -1.81396
214 1 49.4854 20.1608 -0.142024 49.4854 20.1608 -0.142024
215 2 51.4775 20.1492 1.42569 51.4775 20.1492 1.42569
216 2 51.4168 20.1362 -1.78202 51.4168 20.1362 -1.78202
217 1 1.07795 21.7928 -0.201843 1.07795 21.7928 -0.201843
218 2 2.97366 21.8052 1.41964 2.97366 21.8052 1.41964
219 2 2.95556 21.7996 -1.84365 2.95556 21.7996 -1.84365
220 1 3.92409 23.4412 -0.220871 3.92409 23.4412 -0.220871
221 2 5.83406 23.4397 1.39926 5.83406 23.4397 1.39926
222 2 5.81582 23.4353 -1.86314 5.81582 23.4353 -1.86314
223 1 6.77732 21.7893 -0.235386 6.77732 21.7893 -0.235386
224 2 8.66541 21.8144 1.39398 8.66541 21.8144 1.39398
225 2 8.66183 21.782 -1.8693 8.66183 21.782 -1.8693
226 1 9.62322 23.4375 -0.25499 9.62322 23.4375 -0.25499
227 2 11.5132 23.4196 1.38878 11.5132 23.4196 1.38878
228 2 11.5351 23.451 -1.87344 11.5351 23.451 -1.87344
229 1 12.4766 21.7876 -0.251267 12.4766 21.7876 -0.251267
230 2 14.33 21.7782 1.42035 14.33 21.7782 1.42035
231 2 14.3958 21.8187 -1.84216 14.3958 21.8187 -1.84216
232 1 15.3223 23.4372 -0.172093 15.3223 23.4372 -0.172093
233 2 17.2077 23.452 1.47708 17.2077 23.452 1.47708
234 2 17.2389 23.4187 -1.78504 17.2389 23.4187 -1.78504
235 1 18.1753 21.7876 -0.128961 18.1753 21.7876 -0.128961
236 2 20.0662 21.8256 1.4954 20.0662 21.8256 1.4954
237 2 20.0582 21.7715 -1.76743 20.0582 21.7715 -1.76743
238 1 21.0219 23.4376 -0.164415 21.0219 23.4376 -0.164415
239 2 22.92 23.445 1.47014 22.92 23.445 1.47014
240 2 22.9255 23.4281 -1.7923 22.9255 23.4281 -1.7923
241 1 23.8747 21.7888 -0.150558 23.8747 21.7888 -0.150558
242 2 25.7704 21.811 1.47019 25.7704 21.811 1.47019
243 2 25.752 21.7894 -1.79304 25.752 21.7894 -1.79304
244 1 26.7209 23.4397 -0.177905 26.7209 23.4397 -0.177905
245 2 28.6287 23.4265 1.44492 28.6287 23.4265 1.44492
246 2 28.6148 23.4518 -1.81742 28.6148 23.4518 -1.81742
247 1 29.5747 21.7921 -0.202746 29.5747 21.7921 -0.202746
248 2 31.4694 21.7891 1.42047 31.4694 21.7891 1.42047
249 2 31.4537 21.8184 -1.84258 31.4537 21.8184 -1.84258
250 1 32.4204 23.4434 -0.201961 32.4204 23.4434 -0.201961
251 2 34.3314 23.4155 1.41643 34.3314 23.4155 1.41643
252 2 34.3107 23.471 -1.84557 34.3107 23.471 -1.84557
253 1 35.2746 21.7965 -0.24884 35.2746 21.7965 -0.24884
254 2 37.1245 21.7829 1.42667 37.1245 21.7829 1.42667
255 2 37.1967 21.8335 -1.83575 37.1967 21.8335 -1.83575
256 1 38.1189 23.4472 -0.158878 38.1189 23.4472 -0.158878
257 2 40.0081 23.4694 1.48543 40.0081 23.4694 1.48543
258 2 40.0311 23.4213 -1.77674 40.0311 23.4213 -1.77674
259 1 40.9719 21.798 -0.115735 40.9719 21.798 -0.115735
260 2 42.8666 21.8504 1.50264 42.8666 21.8504 1.50264
261 2 42.8501 21.7667 -1.7598 42.8501 21.7667 -1.7598
262 1 43.8176 23.4464 -0.174058 43.8176 23.4464 -0.174058
263 2 45.7088 23.4505 1.4684 45.7088 23.4505 1.4684
264 2 45.7278 23.4355 -1.79406 45.7278 23.4355 -1.79406
265 1 46.6702 21.7949 -0.148975 46.6702 21.7949 -0.148975
266 2 48.5615 21.8194 1.47695 48.5615 21.8194 1.47695
267 2 48.5518 21.7894 -1.7863 48.5518 21.7894 -1.7863
268 1 49.5163 23.4433 -0.173169 49.5163 23.4433 -0.173169
269 2 51.4278 23.4316 1.4448 51.4278 23.4316 1.4448
270 2 51.4064 23.4496 -1.81757 51.4064 23.4496 -1.81757
271 1 1.07459 25.0882 -0.183664 1.07459 25.0882 -0.183664
272 2 2.99065 25.0797 1.42831 2.99065 25.0797 1.42831
273 2 2.95865 25.0965 -1.83377 2.95865 25.0965 -1.83377
274 1 3.92447 26.7345 -0.203401 3.92447 26.7345 -0.203401
275 2 5.8373 26.7188 1.41301 5.8373 26.7188 1.41301
276 2 5.81241 26.7466 -1.84915 5.81241 26.7466 -1.84915
277 1 6.7739 25.0852 -0.239617 6.7739 25.0852 -0.239617
278 2 8.67729 25.0751 1.38773 8.67729 25.0751 1.38773
279 2 8.67076 25.094 -1.87448 8.67076 25.094 -1.87448
280 1 9.62407 26.731 -0.235193 9.62407 26.731 -0.235193
281 2 11.5123 26.7238 1.4106 11.5123 26.7238 1.4106
282 2 11.5364 26.7364 -1.85173 11.5364 26.7364 -1.85173
283 1 12.4733 25.0829 -0.219761 12.4733 25.0829 -0.219761
284 2 14.3485 25.0874 1.4407 14.3485 25.0874 1.4407
285 2 14.3981 25.0803 -1.82123 14.3981 25.0803 -1.82123
286 1 15.3236 26.7302 -0.179331 15.3236 26.7302 -0.179331
287 2 17.2203 26.7415 1.456 17.2203 26.7415 1.456
288 2 17.2278 26.7189 -1.80633 17.2278 26.7189 -1.80633
289 1 18.1729 25.0831 -0.161738 18.1729 25.0831 -0.161738
290 2 20.0765 25.0886 1.46493 20.0765 25.0886 1.46493
291 2 20.0696 25.0804 -1.79734 20.0696 25.0804 -1.79734
292 1 21.023 26.7313 -0.172349 21.023 26.7313 -0.172349
293 2 22.9246 26.7384 1.45741 22.9246 26.7384 1.45741
294 2 22.9218 26.7251 -1.80503 22.9218 26.7251 -1.80503
295 1 23.8719 25.0846 -0.168047 23.8719 25.0846 -0.168047
296 2 25.7782 25.0875 1.4556 25.7782 25.0875 1.4556
297 2 25.7654 25.0852 -1.8067 25.7654 25.0852 -1.8067
298 1 26.7215 26.7333 -0.180389 26.7215 26.7333 -0.180389
299 2 28.6191 26.7324 1.45378 28.6191 26.7324 1.45378
300 2 28.624 26.7362 -1.80871 28.624 26.7362 -1.80871
301 1 29.5706 25.0874 -0.177787 29.5706 25.0874 -0.177787
302 2 31.479 25.08 1.44364 31.479 25.08 1.44364
303 2 31.4622 25.0993 -1.81859 31.4622 25.0993 -1.81859
304 1 32.4199 26.7367 -0.182666 32.4199 26.7367 -0.182666
305 2 34.3175 26.7245 1.45115 34.3175 26.7245 1.45115
306 2 34.3225 26.7511 -1.81128 34.3225 26.7511 -1.81128
307 1 35.2695 25.0913 -0.192136 35.2695 25.0913 -0.192136
308 2 37.1522 25.0965 1.45945 37.1522 25.0965 1.45945
309 2 37.1864 25.0903 -1.80281 37.1864 25.0903 -1.80281
310 1 38.1187 26.7399 -0.164877 38.1187 26.7399 -0.164877
311 2 40.0142 26.7335 1.47143 40.0142 26.7335 1.47143
312 2 40.0234 26.7462 -1.79106 40.0234 26.7462 -1.79106
313 1 40.9683 25.0929 -0.163823 40.9683 25.0929 -0.163823
314 2 42.8696 25.0872 1.46481 42.8696 25.0872 1.46481
315 2 42.8668 25.0994 -1.79755 42.8668 25.0994 -1.79755
316 1 43.8179 26.7395 -0.160951 43.8179 26.7395 -0.160951
317 2 45.71 26.7196 1.47995 45.71 26.7196 1.47995
318 2 45.7262 26.756 -1.78228 45.7262 26.756 -1.78228
319 1 46.6672 25.0905 -0.16516 46.6672 25.0905 -0.16516
320 2 48.5643 25.0782 1.46885 48.5643 25.0782 1.46885
321 2 48.5699 25.1024 -1.79342 48.5699 25.1024 -1.79342
322 1 49.5169 26.7366 -0.148282 49.5169 26.7366 -0.148282
323 2 51.425 26.7148 1.47322 51.425 26.7148 1.47322
324 2 51.4091 26.7559 -1.78893 51.4091 26.7559 -1.78893
325 1 1.07522 28.382 -0.141881 1.07522 28.382 -0.141881
326 2 2.99696 28.3586 1.46355 2.99696 28.3586 1.46355
327 2 2.95369 28.4042 -1.79829 2.95369 28.4042 -1.79829
328 1 3.92535 30.0278 -0.156884 3.92535 30.0278 -0.156884
329 2 5.84833 30.0131 1.44742 5.84833 30.0131 1.44742
330 2 5.80282 30.04 -1.81453 5.80282 30.04 -1.81453
331 1 6.77471 28.3793 -0.21083 6.77471 28.3793 -0.21083
332 2 8.68337 28.3683 1.41078 8.68337 28.3683 1.41078
333 2 8.66667 28.388 -1.85154 8.66667 28.388 -1.85154
334 1 9.62483 30.0248 -0.215098 9.62483 30.0248 -0.215098
335 2 11.5204 30.0236 1.42199 11.5204 30.0236 1.42199
336 2 11.53 30.0244 -1.84041 11.53 30.0244 -1.84041
337 1 12.4742 28.3768 -0.20688 12.4742 28.3768 -0.20688
338 2 14.3632 28.3844 1.43783 14.3632 28.3844 1.43783
339 2 14.3858 28.3694 -1.82453 14.3858 28.3694 -1.82453
340 1 15.3242 30.0238 -0.194288 15.3242 30.0238 -0.194288
341 2 17.2248 30.0343 1.43649 17.2248 30.0343 1.43649
342 2 17.2242 30.0139 -1.82588 17.2242 30.0139 -1.82588
343 1 18.1737 28.3772 -0.18441 18.1737 28.3772 -0.18441
344 2 20.0724 28.3871 1.44862 20.0724 28.3871 1.44862
345 2 20.0756 28.369 -1.81382 20.0756 28.369 -1.81382
346 1 21.0234 30.0251 -0.190998 21.0234 30.0251 -0.190998
347 2 22.9225 30.0335 1.44143 22.9225 30.0335 1.44143
348 2 22.9245 30.0181 -1.821 22.9245 30.0181 -1.821
349 1 23.8726 28.3789 -0.1813 23.8726 28.3789 -0.1813
350 2 25.7719 28.3795 1.45097 25.7719 28.3795 1.45097
351 2 25.7735 28.3808 -1.81155 25.7735 28.3808 -1.81155
352 1 26.7218 30.0275 -0.179097 26.7218 30.0275 -0.179097
353 2 28.6203 30.0308 1.45402 28.6203 30.0308 1.45402
354 2 28.6233 30.0263 -1.80847 28.6233 30.0263 -1.80847
355 1 29.5708 28.3817 -0.174141 29.5708 28.3817 -0.174141
356 2 31.4714 28.376 1.4562 31.4714 28.376 1.4562
357 2 31.4701 28.3903 -1.80632 31.4701 28.3903 -1.80632
358 1 32.4198 30.0304 -0.168174 32.4198 30.0304 -0.168174
359 2 34.3156 30.027 1.46801 34.3156 30.027 1.46801
360 2 34.3239 30.036 -1.79452 34.3239 30.036 -1.79452
361 1 35.2691 28.3849 -0.165326 35.2691 28.3849 -0.165326
362 2 37.165 28.3799 1.47083 37.165 28.3799 1.47083
363 2 37.1732 28.3927 -1.79173 37.1732 28.3927 -1.79173
364 1 38.1185 30.033 -0.151347 38.1185 30.033 -0.151347
365 2 40.0127 30.0232 1.48697 40.0127 30.0232 1.48697
366 2 40.0246 30.0432 -1.77545 40.0246 30.0432 -1.77545
367 1 40.9683 28.3865 -0.150801 40.9683 28.3865 -0.150801
368 2 42.8633 28.3671 1.48647 42.8633 28.3671 1.48647
369 2 42.8736 28.4054 -1.7758 42.8736 28.4054 -1.7758
370 1 43.8181 30.0326 -0.122176 43.8181 30.0326 -0.122176
371 2 45.7127 30.0166 1.51576 45.7127 30.0166 1.51576
372 2 45.7241 30.0464 -1.74651 45.7241 30.0464 -1.74651
373 1 46.6676 28.3843 -0.127481 46.6676 28.3843 -0.127481
374 2 48.5701 28.3671 1.50108 48.5701 28.3671 1.50108
375 2 48.5654 28.3999 -1.76125 48.5654 28.3999 -1.76125
376 1 49.5175 30.0301 -0.114504 49.5175 30.0301 -0.114504
377 2 51.426 30.0164 1.50706 51.426 30.0164 1.50706
378 2 51.4095 30.0421 -1.75521 51.4095 30.0421 -1.75521
379 1 1.07603 31.6759 -0.115835 1.07603 31.6759 -0.115835
380 2 2.992 31.6617 1.49677 2.992 31.6617 1.49677
381 2 2.96063 31.6882 -1.76541 2.96063 31.6882 -1.76541
382 1 3.92626 33.3214 -0.130536 3.92626 33.3214 -0.130536
383 2 5.8469 33.3041 1.47635 5.8469 33.3041 1.47635
384 2 5.80611 33.3367 -1.78565 5.80611 33.3367 -1.78565
385 1 6.77546 31.6732 -0.183128 6.77546 31.6732 -0.183128
386 2 8.68588 31.6581 1.4362 8.68588 31.6581 1.4362
387 2 8.66564 31.6862 -1.82601 8.66564 31.6862 -1.82601
388 1 9.6254 33.319 -0.18651 9.6254 33.319 -0.18651
389 2 11.5304 33.308 1.43908 11.5304 33.308 1.43908
390 2 11.5208 33.3285 -1.82327 11.5208 33.3285 -1.82327
391 1 12.4747 31.671 -0.205696 12.4747 31.671 -0.205696
392 2 14.3722 31.6774 1.42865 14.3722 31.6774 1.42865
393 2 14.3777 31.664 -1.83377 14.3777 31.664 -1.83377
394 1 15.3245 33.3177 -0.207695 15.3245 33.3177 -0.207695
395 2 17.2256 33.3222 1.42224 17.2256 33.3222 1.42224
396 2 17.2237 33.314 -1.84021 17.2237 33.314 -1.84021
397 1 18.1739 31.6712 -0.205325 18.1739 31.6712 -0.205325
398 2 20.0716 31.6816 1.42882 20.0716 31.6816 1.42882
399 2 20.0765 31.6622 -1.83358 20.0765 31.6622 -1.83358
400 1 21.0233 33.3192 -0.210715 21.0233 33.3192 -0.210715
401 2 22.9203 33.3283 1.42404 22.9203 33.3283 1.42404
402 2 22.9264 33.3118 -1.83835 22.9264 33.3118 -1.83835
403 1 23.8726 31.6732 -0.196888 23.8726 31.6732 -0.196888
404 2 25.7682 31.6841 1.43961 25.7682 31.6841 1.43961
405 2 25.777 31.6648 -1.82279 25.777 31.6648 -1.82279
406 1 26.7216 33.3219 -0.19863 26.7216 33.3219 -0.19863
407 2 28.6196 33.3389 1.43496 28.6196 33.3389 1.43496
408 2 28.6235 33.3067 -1.82737 28.6235 33.3067 -1.82737
409 1 29.5707 31.676 -0.178513 29.5707 31.676 -0.178513
410 2 31.4678 31.6821 1.4563 31.4678 31.6821 1.4563
411 2 31.4736 31.6724 -1.8062 31.4736 31.6724 -1.8062
412 1 32.4197 33.3244 -0.178284 32.4197 33.3244 -0.178284
413 2 34.312 33.3329 1.46227 34.312 33.3329 1.46227
414 2 34.3275 33.3176 -1.80019 34.3275 33.3176 -1.80019
415 1 35.2689 31.6786 -0.156403 35.2689 31.6786 -0.156403
416 2 37.163 31.6741 1.48189 37.163 31.6741 1.48189
417 2 37.1749 31.6848 -1.78064 37.1749 31.6848 -1.78064
418 1 38.1186 33.3261 -0.140584 38.1186 33.3261 -0.140584
419 2 40.0085 33.3184 1.50282 40.0085 33.3184 1.50282
420 2 40.0291 33.3346 -1.75958 40.0291 33.3346 -1.75958
421 1 40.9683 31.6798 -0.130481 40.9683 31.6798 -0.130481
422 2 42.8571 31.6678 1.51419 42.8571 31.6678 1.51419
423 2 42.88 31.6914 -1.74812 42.88 31.6914 -1.74812
424 1 43.8182 33.326 -0.0981116 43.8182 33.326 -0.0981116
425 2 45.715 33.3205 1.53726 45.715 33.3205 1.53726
426 2 45.7221 33.33 -1.72515 45.7221 33.33 -1.72515
427 1 46.668 31.6781 -0.0967019 46.668 31.6781 -0.0967019
428 2 48.5722 31.6664 1.52994 48.5722 31.6664 1.52994
429 2 48.5645 31.6881 -1.7324 48.5645 31.6881 -1.7324
430 1 49.5181 33.3239 -0.0924378 49.5181 33.3239 -0.0924378
431 2 51.4298 33.3196 1.52548 51.4298 33.3196 1.52548
432 2 51.407 33.3267 -1.73685 51.407 33.3267 -1.73685
433 1 1.07653 34.9696 -0.108841 1.07653 34.9696 -0.108841
434 2 2.98631 34.9631 1.51141 2.98631 34.9631 1.51141
435 2 2.96752 34.9739 -1.75098 2.96752 34.9739 -1.75098
436 1 3.92664 36.6149 -0.120046 3.92664 36.6149 -0.120046
437 2 5.83579 36.5992 1.50078 5.83579 36.5992 1.50078
438 2 5.81816 36.6289 -1.76152 5.81816 36.6289 -1.76152
439 1 6.77622 34.967 -0.150215 6.77622 34.967 -0.150215
440 2 8.68665 34.9481 1.46908 8.68665 34.9481 1.46908
441 2 8.66626 34.9844 -1.79309 8.66626 34.9844 -1.79309
442 1 9.62625 36.6128 -0.149389 9.62625 36.6128 -0.149389
443 2 11.5391 36.6002 1.46678 11.5391 36.6002 1.46678
444 2 11.5137 36.6242 -1.7955 11.5137 36.6242 -1.7955
445 1 12.4753 34.965 -0.184276 12.4753 34.965 -0.184276
446 2 14.385 34.9585 1.43575 14.385 34.9585 1.43575
447 2 14.3658 34.9711 -1.82663 14.3658 34.9711 -1.82663
448 1 15.3249 36.6118 -0.194476 15.3249 36.6118 -0.194476
449 2 17.2341 36.6091 1.42624 17.2341 36.6091 1.42624
450 2 17.2159 36.6156 -1.83617 17.2159 36.6156 -1.83617
451 1 18.174 34.9653 -0.213679 18.174 34.9653 -0.213679
452 2 20.0749 34.9705 1.41661 20.0749 34.9705 1.41661
453 2 20.0733 34.9617 -1.84583 20.0733 34.9617 -1.84583
454 1 21.0233 36.6135 -0.219324 21.0233 36.6135 -0.219324
455 2 22.9257 36.6244 1.4091 22.9257 36.6244 1.4091
456 2 22.9209 36.6049 -1.85328 22.9209 36.6049 -1.85328
457 1 23.8724 34.9676 -0.213689 23.8724 34.9676 -0.213689
458 2 25.7727 34.9841 1.41717 25.7727 34.9841 1.41717
459 2 25.7721 34.9535 -1.84515 25.7721 34.9535 -1.84515
460 1 26.7215 36.6162 -0.229718 26.7215 36.6162 -0.229718
461 2 28.6219 36.6357 1.40081 28.6219 36.6357 1.40081
462 2 28.6211 36.598 -1.86145 28.6211 36.598 -1.86145
463 1 29.5706 34.9701 -0.211367 29.5706 34.9701 -0.211367
464 2 31.4632 34.9904 1.42854 31.4632 34.9904 1.42854
465 2 31.478 34.9518 -1.83371 31.478 34.9518 -1.83371
466 1 32.4201 36.618 -0.218071 32.4201 36.618 -0.218071
467 2 34.3031 36.6336 1.43308 34.3031 36.6336 1.43308
468 2 34.3373 36.6036 -1.82911 34.3373 36.6036 -1.82911
469 1 35.2693 34.9721 -0.17239 35.2693 34.9721 -0.17239
470 2 37.1544 34.9775 1.47661 37.1544 34.9775 1.47661
471 2 37.1845 34.968 -1.78576 37.1845 34.968 -1.78576
472 1 38.1195 36.6193 -0.150828 38.1195 36.6193 -0.150828
473 2 40.0007 36.6232 1.50242 40.0007 36.6232 1.50242
474 2 40.0384 36.6164 -1.75988 40.0384 36.6164 -1.75988
475 1 40.9686 34.973 -0.114079 40.9686 34.973 -0.114079
476 2 42.8585 34.9707 1.52939 42.8585 34.9707 1.52939
477 2 42.8791 34.9752 -1.73304 42.8791 34.9752 -1.73304
478 1 43.8187 36.6194 -0.0934273 43.8187 36.6194 -0.0934273
479 2 45.7183 36.6245 1.53842 45.7183 36.6245 1.53842
480 2 45.7196 36.6135 -1.72405 45.7196 36.6135 -1.72405
481 1 46.6683 34.9719 -0.0869409 46.6683 34.9719 -0.0869409
482 2 48.5733 34.974 1.53855 48.5733 34.974 1.53855
483 2 48.5637 34.9681 -1.72388 48.5637 34.9681 -1.72388
484 1 49.5182 36.6175 -0.098582 49.5182 36.6175 -0.098582
485 2 51.4256 36.6185 1.52431 51.4256 36.6185 1.52431
486 2 51.4114 36.6147 -1.73813 51.4114 36.6147 -1.73813
487 1 1.07657 38.2628 -0.113171 1.07657 38.2628 -0.113171
488 2 2.98076 38.2612 1.51364 2.98076 38.2612 1.51364
489 2 2.97304 38.2621 -1.74885 2.97304 38.2621 -1.74885
490 1 3.92676 39.9079 -0.11944 3.92676 39.9079 -0.11944
491 2 5.82378 39.8993 1.51596 5.82378 39.8993 1.51596
492 2 5.83042 39.9149 -1.74651 5.83042 39.9149 -1.74651
493 1 6.77677 38.2604 -0.12082 6.77677 38.2604 -0.12082
494 2 8.68349 38.2429 1.50282 8.68349 38.2429 1.50282
495 2 8.6707 38.2766 -1.75946 8.6707 38.2766 -1.75946
496 1 9.62702 39.9062 -0.115017 9.62702 39.9062 -0.115017
497 2 11.5435 39.8906 1.49684 11.5435 39.8906 1.49684
498 2 11.511 39.9211 -1.76532 11.511 39.9211 -1.76532
499 1 12.4761 38.2589 -0.159432 12.4761 38.2589 -0.159432
500 2 14.3902 38.2488 1.45519 14.3902 38.2488 1.45519
501 2 14.3621 38.2689 -1.80711 14.3621 38.2689 -1.80711
502 1 15.3257 39.9059 -0.173862 15.3257 39.9059 -0.173862
503 2 17.2394 39.8984 1.44102 17.2394 39.8984 1.44102
504 2 17.2119 39.9147 -1.82132 17.2119 39.9147 -1.82132
505 1 18.1744 38.2596 -0.206741 18.1744 38.2596 -0.206741
506 2 20.0832 38.2636 1.4142 20.0832 38.2636 1.4142
507 2 20.0657 38.2577 -1.84821 20.0657 38.2577 -1.84821
508 1 21.0235 39.9081 -0.224946 21.0235 39.9081 -0.224946
509 2 22.9304 39.9131 1.39809 22.9304 39.9131 1.39809
510 2 22.9164 39.9055 -1.86436 22.9164 39.9055 -1.86436
511 1 23.8723 38.2622 -0.233445 23.8723 38.2622 -0.233445
512 2 25.776 38.2733 1.3934 25.776 38.2733 1.3934
513 2 25.7687 38.253 -1.86899 25.7687 38.253 -1.86899
514 1 26.7215 39.9104 -0.250444 26.7215 39.9104 -0.250444
515 2 28.625 39.9178 1.37657 28.625 39.9178 1.37657
516 2 28.6181 39.9041 -1.88584 28.6181 39.9041 -1.88584
517 1 29.5708 38.264 -0.249743 29.5708 38.264 -0.249743
518 2 31.4615 38.2793 1.3924 31.4615 38.2793 1.3924
519 2 31.4803 38.2499 -1.86989 31.4803 38.2499 -1.86989
520 1 32.4207 39.9114 -0.248355 32.4207 39.9114 -0.248355
521 2 34.2999 39.9191 1.4074 34.2999 39.9191 1.4074
522 2 34.342 39.9042 -1.85477 34.342 39.9042 -1.85477
523 1 35.2702 38.2651 -0.203533 35.2702 38.2651 -0.203533
524 2 37.1441 38.2718 1.45842 37.1441 38.2718 1.45842
525 2 37.1967 38.2598 -1.80364 37.1967 38.2598 -1.80364
526 1 38.1202 39.9124 -0.163546 38.1202 39.9124 -0.163546
527 2 39.998 39.9165 1.49336 39.998 39.9165 1.49336
528 2 40.0425 39.9093 -1.76887 40.0425 39.9093 -1.76887
529 1 40.9695 38.2663 -0.121189 40.9695 38.2663 -0.121189
530 2 42.8566 38.2713 1.52507 42.8566 38.2713 1.52507
531 2 42.8826 38.2612 -1.73734 42.8826 38.2612 -1.73734
532 1 43.8194 39.9128 -0.103763 43.8194 39.9128 -0.103763
533 2 45.7207 39.9207 1.52573 45.7207 39.9207 1.52573
534 2 45.7183 39.9043 -1.73678 45.7183 39.9043 -1.73678
535 1 46.6686 38.2655 -0.0980097 46.6686 38.2655 -0.0980097
536 2 48.5738 38.2728 1.52709 48.5738 38.2728 1.52709