ITEM: TIMESTEP
4408000
ITEM: NUMBER OF ATOMS
810
ITEM: BOX BOUNDS pp pp pp
8.6298438867990135e-01 5.2154620611319167e+01
-1.0071240067295802e+01 6.1087455067295380e+01
-1.0000000000000000e+01 1.0000000000000000e+01
ITEM: ATOMS id type x y z xu yu zu
1 1 1.07209 57.9398 -0.21276 1.07209 -13.2189 -0.21276
2 2 2.96545 57.9425 1.42703 2.96545 -13.2162 1.42703
3 2 2.98007 57.936 -1.83511 2.98007 -13.2227 -1.83511
4 1 3.92188 59.5868 -0.202853 3.92188 -11.5719 -0.202853
5 2 5.81951 59.595 1.43155 5.81951 -11.5637 1.43155
6 2 5.82548 59.5745 -1.8304 5.82548 -11.5842 -1.8304
7 1 6.77211 57.9371 -0.187082 6.77211 -13.2216 -0.187082
8 2 8.66372 57.9415 1.45461 8.66372 -13.2172 1.45461
9 2 8.68163 57.9298 -1.80755 8.68163 -13.2289 -1.80755
10 1 9.62213 59.5828 -0.177238 9.62213 -11.5759 -0.177238
11 2 11.5118 59.5821 1.46653 11.5118 -11.5766 1.46653
12 2 11.5331 59.5779 -1.79558 11.5331 -11.5808 -1.79558
13 1 12.4718 57.9325 -0.156043 12.4718 -13.2262 -0.156043
14 2 14.3643 57.9262 1.4844 14.3643 -13.2325 1.4844
15 2 14.3801 57.9361 -1.77789 14.3801 -13.2226 -1.77789
16 1 15.3218 59.578 -0.136838 15.3218 -11.5807 -0.136838
17 2 17.2133 59.5789 1.50463 17.2133 -11.5798 1.50463
18 2 17.2305 59.5729 -1.7576 17.2305 -11.5858 -1.7576
19 1 18.1712 57.9287 -0.118194 18.1712 -13.23 -0.118194
20 2 20.0702 57.9191 1.51481 20.0702 -13.2396 1.51481
21 2 20.0729 57.9369 -1.74752 20.0729 -13.2218 -1.74752
22 1 21.0209 59.5751 -0.106339 21.0209 -11.5836 -0.106339
23 2 22.9309 59.5795 1.51297 22.9309 -11.5792 1.51297
24 2 22.9108 59.568 -1.74927 22.9108 -11.5907 -1.74927
25 1 23.8702 57.9267 -0.118347 23.8702 -13.232 -0.118347
26 2 25.7788 57.9226 1.50297 25.7788 -13.236 1.50297
27 2 25.7619 57.9311 -1.75944 25.7619 -13.2276 -1.75944
28 1 26.719 59.5743 -0.128803 26.719 -11.5844 -0.128803
29 2 28.6166 59.5685 1.50553 28.6166 -11.5902 1.50553
30 2 28.621 59.5792 -1.75686 28.621 -11.5794 -1.75686
31 1 29.5685 57.9275 -0.129716 29.5685 -13.2312 -0.129716
32 2 31.46 57.9156 1.51173 31.46 -13.2431 1.51173
33 2 31.4771 57.9426 -1.75061 31.4771 -13.2161 -1.75061
34 1 32.4165 59.577 -0.100541 32.4165 -11.5817 -0.100541
35 2 34.3042 59.5685 1.54478 34.3042 -11.5902 1.54478
36 2 34.328 59.5874 -1.71747 34.328 -11.5713 -1.71747
37 1 35.2664 57.9318 -0.0887401 35.2664 -13.2269 -0.0887401
38 2 37.1627 57.9135 1.54705 37.1627 -13.2452 1.54705
39 2 37.1701 57.9545 -1.71512 37.1701 -13.2042 -1.71512
40 1 38.1143 59.5821 -0.0609842 38.1143 -11.5766 -0.0609842
41 2 40.0347 59.5818 1.54572 40.0347 -11.5769 1.54572
42 2 39.9936 59.5846 -1.71631 39.9936 -11.5741 -1.71631
43 1 40.965 57.937 -0.0988585 40.965 -13.2217 -0.0988585
44 2 42.8922 57.9317 1.50026 42.8922 -13.227 1.50026
45 2 42.8379 57.9459 -1.7616 42.8379 -13.2128 -1.7616
46 1 43.813 59.5868 -0.139171 43.813 -11.5719 -0.139171
47 2 45.7422 59.5918 1.45757 45.7422 -11.5668 1.45757
48 2 45.6837 59.5818 -1.80405 45.6837 -11.5769 -1.80405
49 1 46.6638 57.9402 -0.18551 46.6638 -13.2185 -0.18551
50 2 48.5789 57.9455 1.42843 48.5789 -13.2132 1.42843
51 2 48.5496 57.9354 -1.83367 48.5496 -13.2233 -1.83367
52 1 49.5127 59.5881 -0.216308 49.5127 -11.5706 -0.216308
53 2 51.4113 59.5863 1.41762 51.4113 -11.5724 1.41762
54 2 51.4154 59.5876 -1.84442 51.4154 -11.5711 -1.84442
55 1 1.07102 -9.92458 -0.211398 1.07102 -9.92458 -0.211398
56 2 2.96536 -9.92706 1.42811 2.96536 -9.92706 1.42811
57 2 2.97963 -9.91967 -1.83406 2.97963 -9.91967 -1.83406
58 1 3.92571 -8.27572 -0.19525 3.92571 -8.27572 -0.19525
59 2 5.81559 -8.29494 1.43231 5.81559 -8.29494 1.43231
60 2 5.81058 -8.2788 -1.83058 5.81058 -8.2788 -1.83058
61 1 6.77245 -9.92709 -0.208126 6.77245 -9.92709 -0.208126
62 2 8.66593 -9.91041 1.43218 8.66593 -9.91041 1.43218
63 2 8.68167 -9.94355 -1.82989 8.68167 -9.94355 -1.82989
64 1 9.62758 -8.27988 -0.21049 9.62758 -8.27988 -0.21049
65 2 11.4989 -8.27008 1.44027 11.4989 -8.27008 1.44027
66 2 11.5299 -8.31458 -1.8226 11.5299 -8.31458 -1.8226
67 1 12.4726 -9.93239 -0.160177 12.4726 -9.93239 -0.160177
68 2 14.3648 -9.92457 1.48144 14.3648 -9.92457 1.48144
69 2 14.3825 -9.93955 -1.7809 14.3825 -9.93955 -1.7809
70 1 15.3271 -8.28496 -0.152246 15.3271 -8.28496 -0.152246
71 2 17.2059 -8.28266 1.48786 17.2059 -8.28266 1.48786
72 2 17.2208 -8.3108 -1.77554 17.2208 -8.3108 -1.77554
73 1 18.1718 -9.93649 -0.124454 18.1718 -9.93649 -0.124454
74 2 20.0684 -9.92474 1.51181 20.0684 -9.92474 1.51181
75 2 20.0765 -9.94576 -1.7506 20.0765 -9.94576 -1.7506
76 1 21.0253 -8.2877 -0.127492 21.0253 -8.2877 -0.127492
77 2 22.9234 -8.27955 1.48985 22.9234 -8.27955 1.48985
78 2 22.8993 -8.31767 -1.77345 22.8993 -8.31767 -1.77345
79 1 23.87 -9.93822 -0.129643 23.87 -9.93822 -0.129643
80 2 25.7819 -9.91628 1.48813 25.7819 -9.91628 1.48813
81 2 25.7591 -9.9564 -1.77409 25.7591 -9.9564 -1.77409
82 1 26.7225 -8.28858 -0.170007 26.7225 -8.28858 -0.170007
83 2 28.5946 -8.27229 1.47875 28.5946 -8.27229 1.47875
84 2 28.622 -8.32465 -1.78443 28.622 -8.32465 -1.78443
85 1 29.5671 -9.93751 -0.118664 29.5671 -9.93751 -0.118664
86 2 31.4564 -9.93615 1.52608 31.4564 -9.93615 1.52608
87 2 31.4786 -9.93205 -1.73643 31.4786 -9.93205 -1.73643
88 1 32.4185 -8.28547 -0.0967902 32.4185 -8.28547 -0.0967902
89 2 34.2921 -8.28894 1.54859 34.2921 -8.28894 1.54859
90 2 34.3163 -8.29965 -1.71507 34.3163 -8.29965 -1.71507
91 1 35.2639 -9.93316 -0.0697431 35.2639 -9.93316 -0.0697431
92 2 37.1563 -9.93504 1.57149 37.1563 -9.93504 1.57149
93 2 37.1723 -9.92347 -1.69095 37.1723 -9.92347 -1.69095
94 1 38.1155 -8.28054 -0.0490075 38.1155 -8.28054 -0.0490075
95 2 40.0279 -8.2896 1.55047 40.0279 -8.2896 1.55047
96 2 39.9755 -8.28901 -1.71254 39.9755 -8.28901 -1.71254
97 1 40.9621 -9.92792 -0.0960024 40.9621 -9.92792 -0.0960024
98 2 42.8937 -9.91316 1.49836 42.8937 -9.91316 1.49836
99 2 42.8315 -9.93586 -1.76339 42.8315 -9.93586 -1.76339
100 1 43.8139 -8.27627 -0.162077 43.8139 -8.27627 -0.162077
101 2 45.7279 -8.27051 1.43788 45.7279 -8.27051 1.43788
102 2 45.6728 -8.30083 -1.82475 45.6728 -8.30083 -1.82475
103 1 46.6614 -9.92458 -0.195122 46.6614 -9.92458 -0.195122
104 2 48.5805 -9.9128 1.41484 48.5805 -9.9128 1.41484
105 2 48.5445 -9.93258 -1.8472 48.5445 -9.93258 -1.8472
106 1 49.5148 -8.27482 -0.237042 49.5148 -8.27482 -0.237042
107 2 51.3924 -8.27711 1.40667 51.3924 -8.27711 1.40667
108 2 51.4117 -8.29335 -1.85622 51.4117 -8.29335 -1.85622
109 1 1.04002 -6.64133 -0.225979 1.04002 -6.64133 -0.225979
110 2 2.98036 -6.63365 1.40514 2.98036 -6.63365 1.40514
111 2 3.02551 -6.61646 -1.8027 3.02551 -6.61646 -1.8027
112 1 3.8552 -4.91712 -0.178634 3.8552 -4.91712 -0.178634
113 2 5.62416 -5.26596 1.51721 5.62416 -5.26596 1.51721
114 2 5.64342 -5.20679 -1.86725 5.64342 -5.20679 -1.86725
115 1 6.74368 -6.64333 -0.194048 6.74368 -6.64333 -0.194048
116 2 8.72696 -6.60986 1.38569 8.72696 -6.60986 1.38569
117 2 8.68669 -6.64623 -1.82211 8.68669 -6.64623 -1.82211
118 1 9.55983 -4.92065 -0.246854 9.55983 -4.92065 -0.246854
119 2 11.3415 -5.19406 1.45123 11.3415 -5.19406 1.45123
120 2 11.3361 -5.28645 -1.93107 11.3361 -5.28645 -1.93107
121 1 12.445 -6.6498 -0.202772 12.445 -6.6498 -0.202772
122 2 14.3854 -6.62178 1.42734 14.3854 -6.62178 1.42734
123 2 14.4284 -6.6453 -1.7807 14.4284 -6.6453 -1.7807
124 1 15.2585 -4.92525 -0.178585 15.2585 -4.92525 -0.178585
125 2 17.0234 -5.24301 1.5272 17.0234 -5.24301 1.5272
126 2 17.0508 -5.24591 -1.85638 17.0508 -5.24591 -1.85638
127 1 18.143 -6.65409 -0.154915 18.143 -6.65409 -0.154915
128 2 20.1037 -6.60986 1.44894 20.1037 -6.60986 1.44894
129 2 20.1053 -6.66366 -1.75911 20.1053 -6.66366 -1.75911
130 1 20.9549 -4.92816 -0.183619 20.9549 -4.92816 -0.183619
131 2 22.7368 -5.22648 1.50833 22.7368 -5.22648 1.50833
132 2 22.7305 -5.26638 -1.87496 22.7305 -5.26638 -1.87496
133 1 23.8401 -6.65568 -0.168425 23.8401 -6.65568 -0.168425
134 2 25.8167 -6.61413 1.41745 25.8167 -6.61413 1.41745
135 2 25.7861 -6.66124 -1.79063 25.7861 -6.66124 -1.79063
136 1 26.6509 -4.92883 -0.219036 26.6509 -4.92883 -0.219036
137 2 28.4305 -5.19828 1.48113 28.4305 -5.19828 1.48113
138 2 28.4299 -5.2931 -1.9003 28.4299 -5.2931 -1.9003
139 1 29.5363 -6.65508 -0.169615 29.5363 -6.65508 -0.169615
140 2 31.4611 -6.62632 1.47762 31.4611 -6.62632 1.47762
141 2 31.533 -6.64367 -1.73017 31.533 -6.64367 -1.73017
142 1 32.345 -4.92517 -0.117801 32.345 -4.92517 -0.117801
143 2 34.0984 -5.24953 1.59815 34.0984 -5.24953 1.59815
144 2 34.1511 -5.23103 -1.78333 34.1511 -5.23103 -1.78333
145 1 35.2312 -6.65048 -0.083316 35.2312 -6.65048 -0.083316
146 2 37.1767 -6.62131 1.5382 37.1767 -6.62131 1.5382
147 2 37.2079 -6.63977 -1.67004 37.2079 -6.63977 -1.67004
148 1 38.0411 -4.92096 -0.0685003 38.0411 -4.92096 -0.0685003
149 2 39.8243 -5.25844 1.61393 39.8243 -5.25844 1.61393
150 2 39.8159 -5.2167 -1.76971 39.8159 -5.2167 -1.76971
151 1 40.9292 -6.64504 -0.0983548 40.9292 -6.64504 -0.0983548
152 2 42.9358 -6.6089 1.44935 42.9358 -6.6089 1.44935
153 2 42.8452 -6.6438 -1.75757 42.8452 -6.6438 -1.75757
154 1 43.7397 -4.91742 -0.195971 43.7397 -4.91742 -0.195971
155 2 45.5548 -5.20165 1.46413 45.5548 -5.20165 1.46413
156 2 45.4822 -5.26741 -1.9186 45.4822 -5.26741 -1.9186
157 1 46.6285 -6.64174 -0.222863 46.6285 -6.64174 -0.222863
158 2 48.6029 -6.62029 1.36802 48.6029 -6.62029 1.36802
159 2 48.5794 -6.62897 -1.84005 48.5794 -6.62897 -1.84005
160 1 49.4426 -4.91619 -0.246394 49.4426 -4.91619 -0.246394
161 2 51.2224 -5.21373 1.44939 51.2224 -5.21373 1.44939
162 2 51.2194 -5.25715 -1.93596 51.2194 -5.25715 -1.93596
163 1 1.00651 18.331 -0.21438 1.00651 18.331 -0.21438
164 2 2.76422 18.6686 1.49507 2.76422 18.6686 1.49507
165 2 2.80571 18.6291 -1.88917 2.80571 18.6291 -1.88917
166 1 3.89416 20.0558 -0.200475 3.89416 20.0558 -0.200475
167 2 5.84072 20.0318 1.42179 5.84072 20.0318 1.42179
168 2 5.87164 20.0424 -1.78636 5.87164 20.0424 -1.78636
169 1 6.70657 18.3281 -0.179892 6.70657 18.3281 -0.179892
170 2 8.47317 18.6487 1.5244 8.47317 18.6487 1.5244
171 2 8.49723 18.6438 -1.86024 8.49723 18.6438 -1.86024
172 1 9.59424 20.0534 -0.162206 9.59424 20.0534 -0.162206
173 2 11.5593 20.0247 1.43837 11.5593 20.0247 1.43837
174 2 11.5537 20.0461 -1.76989 11.5537 20.0461 -1.76989
175 1 12.4071 18.3266 -0.178439 12.4071 18.3266 -0.178439
176 2 14.1849 18.6282 1.51815 14.1849 18.6282 1.51815
177 2 14.1869 18.6612 -1.86608 14.1869 18.6612 -1.86608
178 1 15.2943 20.0523 -0.159136 15.2943 20.0523 -0.159136
179 2 17.2384 20.0397 1.46616 17.2384 20.0397 1.46616
180 2 17.2743 20.0283 -1.74201 17.2743 20.0283 -1.74201
181 1 18.1068 18.3252 -0.123441 18.1068 18.3252 -0.123441
182 2 19.8863 18.6751 1.56059 19.8863 18.6751 1.56059
183 2 19.8853 18.6104 -1.82287 19.8853 18.6104 -1.82287
184 1 20.9944 20.0504 -0.158897 20.9944 20.0504 -0.158897
185 2 22.9841 20.0194 1.41197 22.9841 20.0194 1.41197
186 2 22.929 20.0454 -1.7958 22.929 20.0454 -1.7958
187 1 23.8075 18.324 -0.218838 23.8075 18.324 -0.218838
188 2 25.5914 18.5961 1.4776 25.5914 18.5961 1.4776
189 2 25.5817 18.6878 -1.90506 25.5817 18.6878 -1.90506
190 1 26.6949 20.0501 -0.177606 26.6949 20.0501 -0.177606
191 2 28.6212 20.0597 1.47003 28.6212 20.0597 1.47003
192 2 28.6927 20.0086 -1.73696 28.6927 20.0086 -1.73696
193 1 29.5093 18.3266 -0.0884671 29.5093 18.3266 -0.0884671
194 2 31.263 18.694 1.61947 31.263 18.694 1.61947
195 2 31.3111 18.6022 -1.7647 31.3111 18.6022 -1.7647
196 1 32.3949 20.055 -0.0949004 32.3949 20.055 -0.0949004
197 2 34.3279 20.0884 1.54239 34.3279 20.0884 1.54239
198 2 34.3852 19.9886 -1.66402 34.3852 19.9886 -1.66402
199 1 35.2075 18.3313 0.00634035 35.2075 18.3313 0.00634035
200 2 36.9782 18.7365 1.68703 36.9782 18.7365 1.68703
201 2 36.9941 18.5631 -1.69265 36.9941 18.5631 -1.69265
202 1 38.0939 20.0567 -0.0706178 38.0939 20.0567 -0.0706178
203 2 40.0826 20.0741 1.49975 40.0826 20.0741 1.49975
204 2 40.029 20.0037 -1.70747 40.029 20.0037 -1.70747
205 1 40.9072 18.3307 -0.0801548 40.9072 18.3307 -0.0801548
206 2 42.7176 18.6906 1.56926 42.7176 18.6906 1.56926
207 2 42.6539 18.6072 -1.81272 42.6539 18.6072 -1.81272
208 1 43.7916 20.0577 -0.178198 43.7916 20.0577 -0.178198
209 2 45.8219 20.0304 1.34067 45.8219 20.0304 1.34067
210 2 45.6811 20.0487 -1.86463 45.6811 20.0487 -1.86463
211 1 46.6009 18.331 -0.305913 46.6009 18.331 -0.305913
212 2 48.4093 18.5707 1.36977 48.4093 18.5707 1.36977
213 2 48.3514 18.7263 -2.00826 48.3514 18.7263 -2.00826
214 1 49.4872 20.0585 -0.272562 49.4872 20.0585 -0.272562
215 2 51.4201 20.0484 1.36679 51.4201 20.0484 1.36679
216 2 51.4768 20.0318 -1.84108 51.4768 20.0318 -1.84108
217 1 1.07933 21.6904 -0.228825 1.07933 21.6904 -0.228825
218 2 2.95036 21.7029 1.42015 2.95036 21.7029 1.42015
219 2 2.98111 21.6967 -1.84303 2.98111 21.6967 -1.84303
220 1 3.92549 23.3389 -0.204763 3.92549 23.3389 -0.204763
221 2 5.8057 23.3351 1.45062 5.8057 23.3351 1.45062
222 2 5.84698 23.3363 -1.81148 5.84698 23.3363 -1.81148
223 1 6.77863 21.6875 -0.168605 6.77863 21.6875 -0.168605
224 2 8.66028 21.6958 1.46854 8.66028 21.6958 1.46854
225 2 8.67039 21.6985 -1.79471 8.67039 21.6985 -1.79471
226 1 9.62491 23.3366 -0.158542 9.62491 23.3366 -0.158542
227 2 11.5228 23.3307 1.47626 11.5228 23.3307 1.47626
228 2 11.5291 23.3375 -1.78607 11.5291 23.3375 -1.78607
229 1 12.4786 21.6861 -0.156302 12.4786 21.6861 -0.156302
230 2 14.3617 21.6863 1.47974 14.3617 21.6863 1.47974
231 2 14.3687 21.7055 -1.78351 14.3687 21.7055 -1.78351
232 1 15.3246 23.3353 -0.140314 15.3246 23.3353 -0.140314
233 2 17.2249 23.3373 1.49182 17.2249 23.3373 1.49182
234 2 17.2266 23.328 -1.77049 17.2266 23.328 -1.77049
235 1 18.1785 21.6846 -0.134423 18.1785 21.6846 -0.134423
236 2 20.0816 21.7014 1.47677 20.0816 21.7014 1.47677
237 2 20.0489 21.6871 -1.78629 20.0489 21.6871 -1.78629
238 1 21.0243 23.3338 -0.170973 21.0243 23.3338 -0.170973
239 2 22.9301 23.3171 1.45458 22.9301 23.3171 1.45458
240 2 22.9208 23.3453 -1.80759 22.9208 23.3453 -1.80759
241 1 23.8784 21.6833 -0.19331 23.8784 21.6833 -0.19331
242 2 25.7519 21.6821 1.45523 25.7519 21.6821 1.45523
243 2 25.7786 21.7054 -1.80777 25.7786 21.7054 -1.80777
244 1 26.7238 23.3337 -0.157762 26.7238 23.3337 -0.157762
245 2 28.6237 23.3505 1.47434 28.6237 23.3505 1.47434
246 2 28.6259 23.315 -1.78788 28.6259 23.315 -1.78788
247 1 29.5781 21.6855 -0.139053 29.5781 21.6855 -0.139053
248 2 31.4556 21.7281 1.50186 31.4556 21.7281 1.50186
249 2 31.4739 21.6671 -1.76087 31.4739 21.6671 -1.76087
250 1 32.4233 23.3371 -0.154328 32.4233 23.3371 -0.154328
251 2 34.3156 23.3768 1.48676 34.3156 23.3768 1.48676
252 2 34.333 23.2946 -1.77459 34.333 23.2946 -1.77459
253 1 35.2778 21.6891 -0.0973022 35.2778 21.6891 -0.0973022
254 2 37.1771 21.7528 1.51661 37.1771 21.7528 1.51661
255 2 37.1516 21.6463 -1.74491 37.1516 21.6463 -1.74491
256 1 38.1223 23.3386 -0.174388 38.1223 23.3386 -0.174388
257 2 40.0304 23.3669 1.44778 40.0304 23.3669 1.44778
258 2 40.0154 23.3072 -1.81411 40.0154 23.3072 -1.81411
259 1 40.976 21.6897 -0.156749 40.976 21.6897 -0.156749
260 2 42.8919 21.7321 1.43877 42.8919 21.7321 1.43877
261 2 42.8316 21.6689 -1.82359 42.8316 21.6689 -1.82359
262 1 43.8198 23.3402 -0.24249 43.8198 23.3402 -0.24249
263 2 45.7361 23.3179 1.3698 45.7361 23.3179 1.3698
264 2 45.7049 23.3598 -1.89224 45.7049 23.3598 -1.89224
265 1 46.6729 21.6912 -0.290917 46.6729 21.6912 -0.290917
266 2 48.5404 21.6798 1.36602 48.5404 21.6798 1.36602
267 2 48.5788 21.7258 -1.89696 48.5788 21.7258 -1.89696
268 1 49.5182 23.3415 -0.23304 49.5182 23.3415 -0.23304
269 2 51.4109 23.3301 1.40698 51.4109 23.3301 1.40698
270 2 51.4269 23.3471 -1.85539 51.4269 23.3471 -1.85539
271 1 1.07618 24.9865 -0.211095 1.07618 24.9865 -0.211095
272 2 2.9651 24.9736 1.4329 2.9651 24.9736 1.4329
273 2 2.9874 24.9989 -1.82913 2.9874 24.9989 -1.82913
274 1 3.92589 26.633 -0.178494 3.92589 26.633 -0.178494
275 2 5.81612 26.625 1.46444 5.81612 26.625 1.46444
276 2 5.8364 26.6382 -1.79776 5.8364 26.6382 -1.79776
277 1 6.77532 24.9838 -0.167811 6.77532 24.9838 -0.167811
278 2 8.66813 24.9804 1.47162 8.66813 24.9804 1.47162
279 2 8.68299 24.9872 -1.7905 8.68299 24.9872 -1.7905
280 1 9.62515 26.6309 -0.151785 9.62515 26.6309 -0.151785
281 2 11.5226 26.6272 1.48262 11.5226 26.6272 1.48262
282 2 11.5286 26.6328 -1.77965 11.5286 26.6328 -1.77965
283 1 12.4748 24.9823 -0.149644 12.4748 24.9823 -0.149644
284 2 14.3684 24.9801 1.48922 14.3684 24.9801 1.48922
285 2 14.3819 24.9849 -1.77289 14.3819 24.9849 -1.77289
286 1 15.3246 26.6296 -0.135628 15.3246 26.6296 -0.135628
287 2 17.2273 26.6242 1.49308 17.2273 26.6242 1.49308
288 2 17.223 26.6332 -1.76917 17.223 26.6332 -1.76917
289 1 18.1745 24.9809 -0.143767 18.1745 24.9809 -0.143767
290 2 20.0829 24.9686 1.47747 20.0829 24.9686 1.47747
291 2 20.0666 24.9934 -1.78452 20.0666 24.9934 -1.78452
292 1 21.0241 26.6282 -0.145641 21.0241 26.6282 -0.145641
293 2 22.9295 26.6175 1.47964 22.9295 26.6175 1.47964
294 2 22.9195 26.6373 -1.78255 22.9195 26.6373 -1.78255
295 1 23.8738 24.9798 -0.1646 23.8738 24.9798 -0.1646
296 2 25.7725 24.9846 1.4684 25.7725 24.9846 1.4684
297 2 25.7755 24.9766 -1.79375 25.7755 24.9766 -1.79375
298 1 26.723 26.6281 -0.165876 26.723 26.6281 -0.165876
299 2 28.6319 26.636 1.45487 28.6319 26.636 1.45487
300 2 28.6148 26.6211 -1.80737 28.6148 26.6211 -1.80737
301 1 29.5729 24.9814 -0.173989 29.5729 24.9814 -0.173989
302 2 31.4723 25.0019 1.45769 31.4723 25.0019 1.45769
303 2 31.4738 24.9646 -1.80434 31.4738 24.9646 -1.80434
304 1 32.4221 26.6305 -0.191977 32.4221 26.6305 -0.191977
305 2 34.3226 26.6426 1.43891 34.3226 26.6426 1.43891
306 2 34.3223 26.6192 -1.82337 34.3223 26.6192 -1.82337
307 1 35.2722 24.9839 -0.180841 35.2722 24.9839 -0.180841
308 2 37.1783 25.0032 1.44239 37.1783 25.0032 1.44239
309 2 37.1662 24.9672 -1.81965 37.1662 24.9672 -1.81965
310 1 38.1211 26.6324 -0.210625 38.1211 26.6324 -0.210625
311 2 40.0271 26.6353 1.41368 40.0271 26.6353 1.41368
312 2 40.0155 26.6303 -1.84868 40.0155 26.6303 -1.84868
313 1 40.9706 24.9855 -0.218401 40.9706 24.9855 -0.218401
314 2 42.8845 24.9875 1.39596 42.8845 24.9875 1.39596
315 2 42.8564 24.9865 -1.8662 42.8564 24.9865 -1.8662
316 1 43.8196 26.6343 -0.243972 43.8196 26.6343 -0.243972
317 2 45.714 26.619 1.39396 45.714 26.619 1.39396
318 2 45.7258 26.6501 -1.86823 45.7258 26.6501 -1.86823
319 1 46.669 24.9872 -0.249161 46.669 24.9872 -0.249161
320 2 48.5559 24.9808 1.39773 48.5559 24.9808 1.39773
321 2 48.5819 24.9957 -1.86444 48.5819 24.9957 -1.86444
322 1 49.5184 26.6351 -0.218197 49.5184 26.6351 -0.218197
323 2 51.406 26.6192 1.42759 51.406 26.6192 1.42759
324 2 51.4314 26.6491 -1.8345 51.4314 26.6491 -1.8345
325 1 1.07644 28.2813 -0.180982 1.07644 28.2813 -0.180982
326 2 2.96526 28.2636 1.46331 2.96526 28.2636 1.46331
327 2 2.98816 28.2974 -1.79876 2.98816 28.2974 -1.79876
328 1 3.926 29.9277 -0.143701 3.926 29.9277 -0.143701
329 2 5.82765 29.9192 1.48603 5.82765 29.9192 1.48603
330 2 5.82522 29.9341 -1.77619 5.82522 29.9341 -1.77619
331 1 6.77562 28.2789 -0.153649 6.77562 28.2789 -0.153649
332 2 8.67176 28.2731 1.48236 8.67176 28.2731 1.48236
333 2 8.68015 28.2836 -1.77994 8.68015 28.2836 -1.77994
334 1 9.62515 29.9258 -0.140848 9.62515 29.9258 -0.140848
335 2 11.5276 29.9255 1.488 11.5276 29.9255 1.488
336 2 11.5236 29.9246 -1.77428 11.5236 29.9246 -1.77428
337 1 12.4749 28.2774 -0.143806 12.4749 28.2774 -0.143806
338 2 14.3714 28.278 1.49208 14.3714 28.278 1.49208
339 2 14.3792 28.276 -1.77022 14.3792 28.276 -1.77022
340 1 15.3245 29.9244 -0.137859 15.3245 29.9244 -0.137859
341 2 17.2209 29.9196 1.49805 17.2209 29.9196 1.49805
342 2 17.2291 29.9279 -1.7642 17.2291 29.9279 -1.7642
343 1 18.1744 28.2761 -0.134778 18.1744 28.2761 -0.134778
344 2 20.0768 28.2686 1.49387 20.0768 28.2686 1.49387
345 2 20.0727 28.2828 -1.76841 20.0727 28.2828 -1.76841
346 1 21.0239 29.9231 -0.131332 21.0239 29.9231 -0.131332
347 2 22.9273 29.9154 1.49608 22.9273 29.9154 1.49608
348 2 22.9212 29.93 -1.76617 22.9212 29.93 -1.76617
349 1 23.8735 28.2751 -0.144383 23.8735 28.2751 -0.144383
350 2 25.7844 28.2733 1.47405 25.7844 28.2733 1.47405
351 2 25.7631 28.2775 -1.78822 25.7631 28.2775 -1.78822
352 1 26.7228 29.923 -0.161208 26.7228 29.923 -0.161208
353 2 28.6345 29.9163 1.45639 28.6345 29.9163 1.45639
354 2 28.6117 29.9308 -1.80583 28.6117 29.9308 -1.80583
355 1 29.5723 28.2763 -0.188888 29.5723 28.2763 -0.188888
356 2 31.476 28.2805 1.43817 31.476 28.2805 1.43817
357 2 31.4691 28.2741 -1.82421 31.4691 28.2741 -1.82421
358 1 32.4217 29.9248 -0.198162 32.4217 29.9248 -0.198162
359 2 34.3229 29.921 1.4321 34.3229 29.921 1.4321
360 2 34.3213 29.9301 -1.83024 34.3213 29.9301 -1.83024
361 1 35.2714 28.2784 -0.204228 35.2714 28.2784 -0.204228
362 2 37.1726 28.2749 1.42577 37.1726 28.2749 1.42577
363 2 37.1707 28.2838 -1.83663 37.1707 28.2838 -1.83663
364 1 38.1208 29.9268 -0.201639 38.1208 29.9268 -0.201639
365 2 40.0231 29.9098 1.42702 40.0231 29.9098 1.42702
366 2 40.0191 29.9453 -1.83513 40.0191 29.9453 -1.83513
367 1 40.9703 28.2804 -0.223424 40.9703 28.2804 -0.223424
368 2 42.8718 28.2636 1.40591 42.8718 28.2636 1.40591
369 2 42.8692 28.2992 -1.85629 42.8692 28.2992 -1.85629
370 1 43.8197 29.9288 -0.207778 43.8197 29.9288 -0.207778
371 2 45.7153 29.9112 1.42876 45.7153 29.9112 1.42876
372 2 45.7246 29.9473 -1.83336 45.7246 29.9473 -1.83336
373 1 46.6691 28.282 -0.217999 46.6691 28.282 -0.217999
374 2 48.5599 28.266 1.42404 48.5599 28.266 1.42404
375 2 48.5786 28.2985 -1.83814 48.5786 28.2985 -1.83814
376 1 49.5186 29.9295 -0.184949 49.5186 29.9295 -0.184949
377 2 51.407 29.912 1.46023 51.407 29.912 1.46023
378 2 51.4309 29.9458 -1.8018 51.4309 29.9458 -1.8018
379 1 1.07643 31.5763 -0.146268 1.07643 31.5763 -0.146268
380 2 2.97249 31.5705 1.49005 2.97249 31.5705 1.49005
381 2 2.98116 31.5805 -1.77218 2.98116 31.5805 -1.77218
382 1 3.92587 33.2231 -0.133353 3.92587 33.2231 -0.133353
383 2 5.83085 33.2258 1.49224 5.83085 33.2258 1.49224
384 2 5.82169 33.2185 -1.76998 5.82169 33.2185 -1.76998
385 1 6.77549 31.5742 -0.137932 6.77549 31.5742 -0.137932
386 2 8.68079 31.5791 1.48749 8.68079 31.5791 1.48749
387 2 8.67092 31.5677 -1.77475 8.67092 31.5677 -1.77475
388 1 9.62486 33.221 -0.152199 9.62486 33.221 -0.152199
389 2 11.525 33.2266 1.47931 11.525 33.2266 1.47931
390 2 11.5255 33.2137 -1.78293 11.5255 33.2137 -1.78293
391 1 12.4747 31.5725 -0.144886 12.4747 31.5725 -0.144886
392 2 14.3726 31.5743 1.48937 14.3726 31.5743 1.48937
393 2 14.3776 31.5696 -1.77291 14.3776 31.5696 -1.77291
394 1 15.3243 33.2194 -0.142561 15.3243 33.2194 -0.142561
395 2 17.2175 33.2215 1.49727 17.2175 33.2215 1.49727
396 2 17.232 33.2161 -1.76497 17.232 33.2161 -1.76497
397 1 18.1742 31.5712 -0.126632 18.1742 31.5712 -0.126632
398 2 20.0735 31.5642 1.5058 20.0735 31.5642 1.5058
399 2 20.0757 31.5773 -1.75646 20.0757 31.5773 -1.75646
400 1 21.0237 33.2182 -0.118072 21.0237 33.2182 -0.118072
401 2 22.9285 33.2142 1.50799 22.9285 33.2142 1.50799
402 2 22.9198 33.2216 -1.75428 22.9198 33.2216 -1.75428
403 1 23.8734 31.5703 -0.129521 23.8734 31.5703 -0.129521
404 2 25.7863 31.5615 1.48649 25.7863 31.5615 1.48649
405 2 25.7609 31.5793 -1.77568 25.7609 31.5793 -1.77568
406 1 26.7228 33.218 -0.143041 26.7228 33.218 -0.143041
407 2 28.6352 33.2091 1.47377 28.6352 33.2091 1.47377
408 2 28.6108 33.2278 -1.78841 28.6108 33.2278 -1.78841
409 1 29.5722 31.5712 -0.174018 29.5722 31.5712 -0.174018
410 2 31.4814 31.5638 1.4467 31.4814 31.5638 1.4467
411 2 31.4636 31.5802 -1.81556 31.4636 31.5802 -1.81556
412 1 32.4218 33.2195 -0.181172 32.4218 33.2195 -0.181172
413 2 34.3236 33.209 1.4485 34.3236 33.209 1.4485
414 2 34.3206 33.2316 -1.81374 34.3206 33.2316 -1.81374
415 1 35.2713 31.5731 -0.194888 35.2713 31.5731 -0.194888
416 2 37.1682 31.5613 1.44032 37.1682 31.5613 1.44032
417 2 37.175 31.5866 -1.82192 37.175 31.5866 -1.82192
418 1 38.1208 33.2216 -0.175811 38.1208 33.2216 -0.175811
419 2 40.0212 33.2113 1.45535 40.0212 33.2113 1.45535
420 2 40.0209 33.2335 -1.80689 40.0209 33.2335 -1.80689
421 1 40.9702 31.5752 -0.187028 40.9702 31.5752 -0.187028
422 2 42.8707 31.556 1.44385 42.8707 31.556 1.44385
423 2 42.8702 31.596 -1.81823 42.8702 31.596 -1.81823
424 1 43.8196 33.2237 -0.16689 43.8196 33.2237 -0.16689
425 2 45.7207 33.2116 1.46342 45.7207 33.2116 1.46342
426 2 45.719 33.2369 -1.79875 45.719 33.2369 -1.79875
427 1 46.6691 31.5768 -0.181031 46.6691 31.5768 -0.181031
428 2 48.5619 31.5597 1.45905 48.5619 31.5597 1.45905
429 2 48.5769 31.5941 -1.80303 48.5769 31.5941 -1.80303
430 1 49.5185 33.2245 -0.149929 49.5185 33.2245 -0.149929
431 2 51.4135 33.2182 1.48773 51.4135 33.2182 1.48773
432 2 51.4243 33.23 -1.77446 51.4243 33.23 -1.77446
433 1 1.0763 34.8719 -0.134061 1.0763 34.8719 -0.134061
434 2 2.97873 34.8755 1.49466 2.97873 34.8755 1.49466
435 2 2.97472 34.8668 -1.76753 2.97472 34.8668 -1.76753
436 1 3.92567 36.519 -0.141934 3.92567 36.519 -0.141934
437 2 5.83276 36.5261 1.48124 5.83276 36.5261 1.48124
438 2 5.81938 36.5098 -1.78089 5.81938 36.5098 -1.78089
439 1 6.7752 34.8699 -0.145413 6.7752 34.8699 -0.145413
440 2 8.68334 34.8757 1.47645 8.68334 34.8757 1.47645
441 2 8.66778 34.862 -1.78573 8.66778 34.862 -1.78573
442 1 9.62456 36.5164 -0.166208 9.62456 36.5164 -0.166208
443 2 11.5236 36.5206 1.46669 11.5236 36.5206 1.46669
444 2 11.5264 36.5102 -1.79553 11.5264 36.5102 -1.79553
445 1 12.4744 34.8676 -0.158266 12.4744 34.8676 -0.158266
446 2 14.3691 34.8724 1.47953 14.3691 34.8724 1.47953
447 2 14.3805 34.8614 -1.78269 14.3805 34.8614 -1.78269
448 1 15.324 36.5144 -0.153794 15.324 36.5144 -0.153794
449 2 17.2156 36.5192 1.48789 17.2156 36.5192 1.48789
450 2 17.2334 36.5082 -1.7743 17.2334 36.5082 -1.7743
451 1 18.1739 34.8662 -0.132336 18.1739 34.8662 -0.132336
452 2 20.0679 34.8685 1.5064 20.0679 34.8685 1.5064
453 2 20.0809 34.8631 -1.75584 20.0809 34.8631 -1.75584
454 1 21.0236 36.5133 -0.123724 21.0236 36.5133 -0.123724
455 2 22.924 36.5145 1.50746 22.924 36.5145 1.50746
456 2 22.9242 36.5115 -1.75482 22.9242 36.5115 -1.75482
457 1 23.8733 34.8654 -0.121981 23.8733 34.8654 -0.121981
458 2 25.7828 34.8606 1.49831 25.7828 34.8606 1.49831
459 2 25.7645 34.8703 -1.76393 25.7645 34.8703 -1.76393
460 1 26.723 36.513 -0.133397 26.723 36.513 -0.133397
461 2 28.631 36.5052 1.48874 28.631 36.5052 1.48874
462 2 28.6157 36.5217 -1.77349 28.6157 36.5217 -1.77349
463 1 29.5723 34.866 -0.155033 29.5723 34.866 -0.155033
464 2 31.481 34.8552 1.46646 31.481 34.8552 1.46646
465 2 31.4643 34.8784 -1.79572 31.4643 34.8784 -1.79572
466 1 32.4219 36.5145 -0.157572 32.4219 36.5145 -0.157572
467 2 34.3274 36.5104 1.46764 34.3274 36.5104 1.46764
468 2 34.3171 36.5203 -1.79463 34.3171 36.5203 -1.79463
469 1 35.2713 34.868 -0.171636 35.2713 34.868 -0.171636
470 2 37.1724 34.8656 1.45901 37.1724 34.8656 1.45901
471 2 37.1709 34.8722 -1.80329 37.1709 34.8722 -1.80329
472 1 38.1207 36.5168 -0.168982 38.1207 36.5168 -0.168982
473 2 40.0218 36.5232 1.46135 40.0218 36.5232 1.46135
474 2 40.0202 36.5124 -1.8009 40.0202 36.5124 -1.8009
475 1 40.9701 34.8703 -0.164507 40.9701 34.8703 -0.164507
476 2 42.8697 34.8673 1.46767 42.8697 34.8673 1.46767
477 2 42.8711 34.8751 -1.79458 42.8711 34.8751 -1.79458
478 1 43.8194 36.5192 -0.159215 43.8194 36.5192 -0.159215
479 2 45.7179 36.5202 1.4743 45.7179 36.5202 1.4743
480 2 45.7218 36.5194 -1.78791 45.7218 36.5194 -1.78791
481 1 46.669 34.8721 -0.155112 46.669 34.8721 -0.155112
482 2 48.5641 34.8681 1.48238 48.5641 34.8681 1.48238
483 2 48.5746 34.8765 -1.77981 48.5746 34.8765 -1.77981
484 1 49.5184 36.5202 -0.141247 49.5184 36.5202 -0.141247
485 2 51.4171 36.5239 1.49197 51.4171 36.5239 1.49197
486 2 51.4206 36.5159 -1.7702 51.4206 36.5159 -1.7702
487 1 1.07617 38.1678 -0.142167 1.07617 38.1678 -0.142167
488 2 2.98137 38.1758 1.48315 2.98137 38.1758 1.48315
489 2 2.97179 38.1584 -1.77899 2.97179 38.1584 -1.77899
490 1 3.92543 39.8148 -0.159738 3.92543 39.8148 -0.159738
491 2 5.83015 39.819 1.46623 5.83015 39.819 1.46623
492 2 5.82148 39.8087 -1.79596 5.82148 39.8087 -1.79596
493 1 6.77495 38.1657 -0.162176 6.77495 38.1657 -0.162176
494 2 8.6811 38.1704 1.46209 8.6811 38.1704 1.46209
495 2 8.66959 38.1585 -1.8001 8.66959 38.1585 -1.8001
496 1 9.62436 39.812 -0.178389 9.62436 39.812 -0.178389
497 2 11.5221 39.8155 1.4559 11.5221 39.8155 1.4559
498 2 11.5275 39.806 -1.80632 11.5275 39.806 -1.80632
499 1 12.4741 38.1629 -0.16881 12.4741 38.1629 -0.16881
500 2 14.3705 38.1695 1.46721 14.3705 38.1695 1.46721
501 2 14.3786 38.1545 -1.795 14.3786 38.1545 -1.795
502 1 15.3238 39.8094 -0.16897 15.3238 39.8094 -0.16897
503 2 17.2173 39.8216 1.47032 17.2173 39.8216 1.47032
504 2 17.2313 39.7956 -1.79181 17.2313 39.7956 -1.79181
505 1 18.1737 38.1612 -0.143494 18.1737 38.1612 -0.143494
506 2 20.0693 38.1713 1.49357 20.0693 38.1713 1.49357
507 2 20.0793 38.1502 -1.76861 20.0793 38.1502 -1.76861
508 1 21.0237 39.8081 -0.145433 21.0237 39.8081 -0.145433
509 2 22.9169 39.8146 1.49425 22.9169 39.8146 1.49425
510 2 22.9314 39.8012 -1.76798 22.9314 39.8012 -1.76798
511 1 23.8735 38.1605 -0.125507 23.8735 38.1605 -0.125507
512 2 25.7761 38.1564 1.50306 25.7761 38.1564 1.50306
513 2 25.7718 38.1647 -1.75923 25.7718 38.1647 -1.75923
514 1 26.7233 39.808 -0.125393 26.7233 39.808 -0.125393
515 2 28.6254 39.7987 1.50362 28.6254 39.7987 1.50362
516 2 28.6219 39.8184 -1.75863 28.6219 39.8184 -1.75863
517 1 29.5727 38.1611 -0.138542 29.5727 38.1611 -0.138542
518 2 31.4786 38.1529 1.48595 31.4786 38.1529 1.48595
519 2 31.4674 38.1708 -1.77629 31.4674 38.1708 -1.77629
520 1 32.4221 39.8097 -0.139233 32.4221 39.8097 -0.139233
521 2 34.3323 39.8067 1.48007 34.3323 39.8067 1.48007
522 2 34.3124 39.8149 -1.78216 34.3124 39.8149 -1.78216
523 1 35.2713 38.1633 -0.161252 35.2713 38.1633 -0.161252
524 2 37.1771 38.1664 1.46338 37.1771 38.1664 1.46338
525 2 37.1661 38.1623 -1.79888 37.1661 38.1623 -1.79888
526 1 38.1206 39.8123 -0.172956 38.1206 39.8123 -0.172956
527 2 40.0259 39.8193 1.45233 40.0259 39.8193 1.45233
528 2 40.0159 39.8076 -1.80988 40.0159 39.8076 -1.80988
529 1 40.97 38.1659 -0.175682 40.97 38.1659 -0.175682
530 2 42.8659 38.1749 1.46076 42.8659 38.1749 1.46076
531 2 42.8748 38.1587 -1.80142 42.8748 38.1587 -1.80142
532 1 43.8193 39.8148 -0.175994 43.8193 39.8148 -0.175994
533 2 45.7134 39.824 1.46252 45.7134 39.824 1.46252