ITEM: TIMESTEP
3605000
ITEM: NUMBER OF ATOMS
810
ITEM: BOX BOUNDS pp pp pp
8.6298438867990135e-01 5.2154620611319167e+01
-8.0882989167864761e+00 5.9104513916786054e+01
-1.0000000000000000e+01 1.0000000000000000e+01
ITEM: ATOMS id type x y z xu yu zu
1 1 1.07608 57.2892 -0.155162 1.07608 -9.90358 -0.155162
2 2 2.96253 57.2936 1.49248 2.96253 -9.8992 1.49248
3 2 2.99003 57.2857 -1.76987 2.99003 -9.90713 -1.76987
4 1 3.92581 58.9366 -0.134412 3.92581 -8.25623 -0.134412
5 2 5.81662 58.943 1.50788 5.81662 -8.24979 1.50788
6 2 5.83509 58.9287 -1.75437 5.83509 -8.26413 -1.75437
7 1 6.77553 57.2894 -0.11066 6.77553 -9.90339 -0.11066
8 2 8.68515 57.2902 1.50946 8.68515 -9.90261 1.50946
9 2 8.66659 57.2895 -1.75295 8.66659 -9.90328 -1.75295
10 1 9.62534 58.9368 -0.127581 9.62534 -8.25599 -0.127581
11 2 11.5435 58.9401 1.48191 11.5435 -8.25274 1.48191
12 2 11.5071 58.9321 -1.78022 11.5071 -8.26071 -1.78022
13 1 12.4749 57.2896 -0.155707 12.4749 -9.90323 -0.155707
14 2 14.3909 57.2871 1.45694 14.3909 -9.90574 1.45694
15 2 14.3592 57.2929 -1.80538 14.3592 -9.89991 -1.80538
16 1 15.3244 58.937 -0.180576 15.3244 -8.25583 -0.180576
17 2 17.2311 58.9356 1.44305 17.2311 -8.2572 1.44305
18 2 17.2178 58.9369 -1.81927 17.2178 -8.25587 -1.81927
19 1 18.174 57.2897 -0.192581 18.174 -9.90315 -0.192581
20 2 20.0645 57.2867 1.45018 20.0645 -9.90614 1.45018
21 2 20.0838 57.2933 -1.81225 20.0838 -9.89956 -1.81225
22 1 21.0234 58.937 -0.171836 21.0234 -8.25581 -0.171836
23 2 22.9045 58.9283 1.48165 22.9045 -8.26453 1.48165
24 2 22.942 58.944 -1.78045 22.942 -8.24883 -1.78045
25 1 23.8727 57.2895 -0.146517 23.8727 -9.90331 -0.146517
26 2 25.7692 57.2805 1.4888 25.7692 -9.9123 1.4888
27 2 25.7765 57.2991 -1.77363 25.7765 -9.89374 -1.77363
28 1 26.7221 58.9368 -0.130973 26.7221 -8.25599 -0.130973
29 2 28.6294 58.9296 1.49115 28.6294 -8.26324 1.49115
30 2 28.6148 58.9424 -1.77116 28.6148 -8.25044 -1.77116
31 1 29.5715 57.2894 -0.150839 29.5715 -9.90345 -0.150839
32 2 31.4813 57.2856 1.46901 31.4813 -9.90723 1.46901
33 2 31.4619 57.2938 -1.79341 31.4619 -9.899 -1.79341
34 1 32.4209 58.9368 -0.163821 32.4209 -8.25605 -0.163821
35 2 34.3324 58.938 1.45353 34.3324 -8.25482 1.45353
36 2 34.3092 58.9339 -1.80874 34.3092 -8.25891 -1.80874
37 1 35.2703 57.2893 -0.182352 35.2703 -9.9035 -0.182352
38 2 37.1679 57.2987 1.45198 37.1679 -9.89413 1.45198
39 2 37.1731 57.2806 -1.81045 37.1731 -9.91222 -1.81045
40 1 38.1198 58.9366 -0.18683 38.1198 -8.25617 -0.18683
41 2 40.012 58.9399 1.45379 40.012 -8.25289 1.45379
42 2 40.0277 58.9317 -1.80852 40.0277 -8.26107 -1.80852
43 1 40.9693 57.2892 -0.16865 40.9693 -9.90357 -0.16865
44 2 42.8688 57.2964 1.46317 42.8688 -9.89643 1.46317
45 2 42.8702 57.2829 -1.79927 42.8702 -9.90995 -1.79927
46 1 43.8189 58.9366 -0.17464 43.8189 -8.25622 -0.17464
47 2 45.7177 58.9379 1.45779 45.7177 -8.25489 1.45779
48 2 45.7202 58.9337 -1.80455 45.7202 -8.25907 -1.80455
49 1 46.6684 57.2892 -0.17032 46.6684 -9.90359 -0.17032
50 2 48.5672 57.2901 1.46276 48.5672 -9.90274 1.46276
51 2 48.5701 57.2891 -1.79972 48.5701 -9.9037 -1.79972
52 1 49.5181 58.9365 -0.168084 49.5181 -8.25629 -0.168084
53 2 51.4154 58.9434 1.4664 51.4154 -8.24945 1.4664
54 2 51.421 58.9281 -1.79592 51.421 -8.26473 -1.79592
55 1 1.07627 -6.61065 -0.170594 1.07627 -6.61065 -0.170594
56 2 2.97088 -6.58399 1.4679 2.97088 -6.58399 1.4679
57 2 2.98335 -6.63328 -1.79424 2.98335 -6.63328 -1.79424
58 1 3.92985 -4.96135 -0.18372 3.92985 -4.96135 -0.18372
59 2 5.80407 -4.93562 1.46345 5.80407 -4.93562 1.46345
60 2 5.82845 -5.00789 -1.79912 5.82845 -5.00789 -1.79912
61 1 6.77555 -6.61037 -0.124928 6.77555 -6.61037 -0.124928
62 2 8.68318 -6.59923 1.4983 8.68318 -6.59923 1.4983
63 2 8.66975 -6.61731 -1.76413 8.66975 -6.61731 -1.76413
64 1 9.62898 -4.96072 -0.146646 9.62898 -4.96072 -0.146646
65 2 11.5286 -4.96542 1.46867 11.5286 -4.96542 1.46867
66 2 11.5023 -4.97703 -1.79462 11.5023 -4.97703 -1.79462
67 1 12.4749 -6.61023 -0.164111 12.4749 -6.61023 -0.164111
68 2 14.3854 -6.60787 1.45597 14.3854 -6.60787 1.45597
69 2 14.3659 -6.60826 -1.80649 14.3659 -6.60826 -1.80649
70 1 15.3282 -4.96049 -0.181159 15.3282 -4.96049 -0.181159
71 2 17.2206 -4.96995 1.44358 17.2206 -4.96995 1.44358
72 2 17.2086 -4.97158 -1.81981 17.2086 -4.97158 -1.81981
73 1 18.174 -6.60995 -0.190982 18.174 -6.60995 -0.190982
74 2 20.0706 -6.59667 1.44525 20.0706 -6.59667 1.44525
75 2 20.0789 -6.61923 -1.81719 20.0789 -6.61923 -1.81719
76 1 21.0274 -4.96044 -0.194656 21.0274 -4.96044 -0.194656
77 2 22.8881 -4.95248 1.46802 22.8881 -4.95248 1.46802
78 2 22.9392 -4.98936 -1.79481 22.9392 -4.98936 -1.79481
79 1 23.8726 -6.61005 -0.130382 23.8726 -6.61005 -0.130382
80 2 25.7659 -6.62164 1.50963 25.7659 -6.62164 1.50963
81 2 25.781 -6.59461 -1.75274 25.781 -6.59461 -1.75274
82 1 26.7259 -4.96057 -0.104118 26.7259 -4.96057 -0.104118
83 2 28.6203 -4.99078 1.51643 28.6203 -4.99078 1.51643
84 2 28.6046 -4.9518 -1.74673 28.6046 -4.9518 -1.74673
85 1 29.5716 -6.61026 -0.138255 29.5716 -6.61026 -0.138255
86 2 31.4774 -6.62454 1.48709 31.4774 -6.62454 1.48709
87 2 31.4671 -6.59195 -1.77527 31.4671 -6.59195 -1.77527
88 1 32.4249 -4.96075 -0.130421 32.4249 -4.96075 -0.130421
89 2 34.332 -4.98939 1.47592 34.332 -4.98939 1.47592
90 2 34.2902 -4.95287 -1.78703 34.2902 -4.95287 -1.78703
91 1 35.2703 -6.61024 -0.1863 35.2703 -6.61024 -0.1863
92 2 37.1779 -6.59698 1.4368 37.1779 -6.59698 1.4368
93 2 37.1643 -6.61969 -1.82561 37.1643 -6.61969 -1.82561
94 1 38.1237 -4.96083 -0.209438 38.1237 -4.96083 -0.209438
95 2 40.0002 -4.95734 1.43569 40.0002 -4.95734 1.43569
96 2 40.0204 -4.98568 -1.82755 40.0204 -4.98568 -1.82755
97 1 40.9695 -6.61047 -0.176812 40.9695 -6.61047 -0.176812
98 2 42.8687 -6.60869 1.45599 42.8687 -6.60869 1.45599
99 2 42.8718 -6.60807 -1.80653 42.8718 -6.60807 -1.80653
100 1 43.8229 -4.96082 -0.174586 43.8229 -4.96082 -0.174586
101 2 45.7051 -4.97909 1.4614 45.7051 -4.97909 1.4614
102 2 45.7136 -4.96342 -1.80196 45.7136 -4.96342 -1.80196
103 1 46.6686 -6.61044 -0.175103 46.6686 -6.61044 -0.175103
104 2 48.5621 -6.6141 1.46475 48.5621 -6.6141 1.46475
105 2 48.5767 -6.60283 -1.79772 48.5767 -6.60283 -1.79772
106 1 49.5222 -4.96101 -0.156332 49.5222 -4.96101 -0.156332
107 2 51.4137 -4.97642 1.46877 51.4137 -4.97642 1.46877
108 2 51.4033 -4.96659 -1.79464 51.4033 -4.96659 -1.79464
109 1 1.04626 -3.32814 -0.161894 1.04626 -3.32814 -0.161894
110 2 3.03887 -3.27917 1.4044 3.03887 -3.27917 1.4044
111 2 2.97686 -3.34243 -1.80281 2.97686 -3.34243 -1.80281
112 1 3.85829 -1.60269 -0.247675 3.85829 -1.60269 -0.247675
113 2 5.64723 -1.85443 1.4462 5.64723 -1.85443 1.4462
114 2 5.62681 -1.9878 -1.93527 5.62681 -1.9878 -1.93527
115 1 6.74505 -3.32844 -0.195064 6.74505 -3.32844 -0.195064
116 2 8.68636 -3.29813 1.43318 8.68636 -3.29813 1.43318
117 2 8.727 -3.3228 -1.77485 8.727 -3.3228 -1.77485
118 1 9.55734 -1.60165 -0.174648 9.55734 -1.60165 -0.174648
119 2 11.3308 -1.93126 1.51996 11.3308 -1.93126 1.51996
120 2 11.3405 -1.90999 -1.86495 11.3405 -1.90999 -1.86495
121 1 12.4443 -3.32771 -0.178075 12.4443 -3.32771 -0.178075
122 2 14.4095 -3.30656 1.42147 14.4095 -3.30656 1.42147
123 2 14.4027 -3.31364 -1.7869 14.4027 -3.31364 -1.7869
124 1 15.2569 -1.60131 -0.18835 15.2569 -1.60131 -0.18835
125 2 17.0383 -1.91874 1.50116 17.0383 -1.91874 1.50116
126 2 17.032 -1.92186 -1.88389 17.032 -1.92186 -1.88389
127 1 18.1437 -3.32734 -0.192132 18.1437 -3.32734 -0.192132
128 2 20.1167 -3.29501 1.39945 20.1167 -3.29501 1.39945
129 2 20.0944 -3.32462 -1.80876 20.0944 -3.32462 -1.80876
130 1 20.9564 -1.60127 -0.225122 20.9564 -1.60127 -0.225122
131 2 22.7275 -1.87535 1.48374 22.7275 -1.87535 1.48374
132 2 22.7423 -1.96421 -1.89937 22.7423 -1.96421 -1.89937
133 1 23.8427 -3.32744 -0.165303 23.8427 -3.32744 -0.165303
134 2 25.7615 -3.32288 1.48935 25.7615 -3.32288 1.48935
135 2 25.8463 -3.2968 -1.71783 25.8463 -3.2968 -1.71783
136 1 26.6542 -1.60133 -0.079759 26.6542 -1.60133 -0.079759
137 2 28.4148 -1.97102 1.61931 28.4148 -1.97102 1.61931
138 2 28.4509 -1.86876 -1.76313 28.4509 -1.86876 -1.76313
139 1 29.5412 -3.32765 -0.103016 29.5412 -3.32765 -0.103016
140 2 31.5081 -3.32586 1.49379 31.5081 -3.32586 1.49379
141 2 31.4979 -3.29468 -1.71442 31.4979 -3.29468 -1.71442
142 1 32.354 -1.60168 -0.0966238 32.354 -1.60168 -0.0966238
143 2 34.1452 -1.95052 1.57591 34.1452 -1.95052 1.57591
144 2 34.1193 -1.89095 -1.80841 34.1193 -1.89095 -1.80841
145 1 35.2404 -3.32781 -0.149928 35.2404 -3.32781 -0.149928
146 2 37.2403 -3.30269 1.40778 37.2403 -3.30269 1.40778
147 2 37.1631 -3.31763 -1.79967 37.1631 -3.31763 -1.79967
148 1 38.0522 -1.60157 -0.222575 38.0522 -1.60157 -0.222575
149 2 39.8465 -1.87535 1.46229 39.8465 -1.87535 1.46229
150 2 39.8151 -1.965 -1.92068 39.8151 -1.965 -1.92068
151 1 40.9391 -3.32786 -0.201604 40.9391 -3.32786 -0.201604
152 2 42.8807 -3.31967 1.42735 42.8807 -3.31967 1.42735
153 2 42.921 -3.301 -1.78074 42.921 -3.301 -1.78074
154 1 43.7516 -1.60168 -0.156942 43.7516 -1.60168 -0.156942
155 2 45.5185 -1.94278 1.5425 45.5185 -1.94278 1.5425
156 2 45.5413 -1.89854 -1.84205 45.5413 -1.89854 -1.84205
157 1 46.6384 -3.32785 -0.161043 46.6384 -3.32785 -0.161043
158 2 48.5931 -3.31699 1.45119 48.5931 -3.31699 1.45119
159 2 48.6075 -3.30395 -1.75714 48.6075 -3.30395 -1.75714
160 1 49.4513 -1.60183 -0.142551 49.4513 -1.60183 -0.142551
161 2 51.2292 -1.93929 1.54628 51.2292 -1.93929 1.54628
162 2 51.2301 -1.90241 -1.8384 51.2301 -1.90241 -1.8384
163 1 1.01136 17.7001 -0.257455 1.01136 17.7001 -0.257455
164 2 2.80685 17.9586 1.42846 2.80685 17.9586 1.42846
165 2 2.77366 18.0783 -1.95299 2.77366 18.0783 -1.95299
166 1 3.89764 19.4267 -0.222522 3.89764 19.4267 -0.222522
167 2 5.84343 19.4041 1.40134 5.84343 19.4041 1.40134
168 2 5.87516 19.4138 -1.80694 5.87516 19.4138 -1.80694
169 1 6.71004 17.7002 -0.200285 6.71004 17.7002 -0.200285
170 2 8.47756 18.021 1.50276 8.47756 18.021 1.50276
171 2 8.4993 18.0171 -1.88187 8.4993 18.0171 -1.88187
172 1 9.59635 19.4266 -0.183812 9.59635 19.4266 -0.183812
173 2 11.5362 19.4226 1.4463 11.5362 19.4226 1.4463
174 2 11.5797 19.3953 -1.76176 11.5797 19.3953 -1.76176
175 1 12.4085 17.7003 -0.132362 12.4085 17.7003 -0.132362
176 2 14.1763 18.0512 1.56416 14.1763 18.0512 1.56416
177 2 14.1979 17.9865 -1.81946 14.1979 17.9865 -1.81946
178 1 15.2948 19.4267 -0.147622 15.2948 19.4267 -0.147622
179 2 17.2523 19.4263 1.4611 17.2523 19.4263 1.4611
180 2 17.2605 19.3917 -1.74715 17.2605 19.3917 -1.74715
181 1 18.1071 17.7004 -0.122552 18.1071 17.7004 -0.122552
182 2 19.8874 18.0471 1.56209 19.8874 18.0471 1.56209
183 2 19.8836 17.9911 -1.82225 19.8836 17.9911 -1.82225
184 1 20.9935 19.4263 -0.154855 20.9935 19.4263 -0.154855
185 2 22.9691 19.4179 1.43273 22.9691 19.4179 1.43273
186 2 22.9413 19.3983 -1.77555 22.9413 19.3983 -1.77555
187 1 23.8057 17.6992 -0.167625 23.8057 17.6992 -0.167625
188 2 25.59 18.015 1.51952 25.59 18.015 1.51952
189 2 25.5786 18.02 -1.86484 25.5786 18.02 -1.86484
190 1 26.6924 19.4253 -0.174286 26.6924 19.4253 -0.174286
191 2 28.6502 19.4138 1.4352 28.6502 19.4138 1.4352
192 2 28.6581 19.4017 -1.77317 28.6581 19.4017 -1.77317
193 1 29.5051 17.6991 -0.160343 29.5051 17.6991 -0.160343
194 2 31.2759 18.0196 1.53987 31.2759 18.0196 1.53987
195 2 31.2908 18.017 -1.84527 31.2908 18.017 -1.84527
196 1 32.3918 19.4252 -0.149189 32.3918 19.4252 -0.149189
197 2 34.3522 19.4024 1.4571 34.3522 19.4024 1.4571
198 2 34.3553 19.4129 -1.7513 34.3553 19.4129 -1.7513
199 1 35.2048 17.699 -0.151581 35.2048 17.699 -0.151581
200 2 36.9774 18.0056 1.54944 36.9774 18.0056 1.54944
201 2 36.9888 18.0302 -1.83544 36.9888 18.0302 -1.83544
202 1 38.0916 19.425 -0.128714 38.0916 19.425 -0.128714
203 2 40.035 19.4168 1.49721 40.035 19.4168 1.49721
204 2 40.072 19.3982 -1.71093 40.072 19.3982 -1.71093
205 1 40.9046 17.699 -0.0883218 40.9046 17.699 -0.0883218
206 2 42.679 18.0507 1.6009 42.679 18.0507 1.6009
207 2 42.6871 17.9851 -1.78317 42.6871 17.9851 -1.78317
208 1 43.7913 19.4252 -0.116003 43.7913 19.4252 -0.116003
209 2 45.7643 19.4119 1.47396 45.7643 19.4119 1.47396
210 2 45.7422 19.4035 -1.73437 45.7422 19.4035 -1.73437
211 1 46.6044 17.6991 -0.131694 46.6044 17.6991 -0.131694
212 2 48.3973 18.0284 1.54312 48.3973 18.0284 1.54312
213 2 48.3681 18.0077 -1.84154 48.3681 18.0077 -1.84154
214 1 49.4908 19.4254 -0.167825 49.4908 19.4254 -0.167825
215 2 51.4904 19.3843 1.39018 51.4904 19.3843 1.39018
216 2 51.4143 19.432 -1.81702 51.4143 19.432 -1.81702
217 1 1.08208 21.0591 -0.209643 1.08208 21.0591 -0.209643
218 2 2.96218 21.0418 1.431 2.96218 21.0418 1.431
219 2 2.97483 21.098 -1.832 2.97483 21.098 -1.832
220 1 3.9271 22.7089 -0.169547 3.9271 22.7089 -0.169547
221 2 5.83309 22.6985 1.45527 5.83309 22.6985 1.45527
222 2 5.82256 22.7153 -1.80722 5.82256 22.7153 -1.80722
223 1 6.7808 21.0595 -0.188176 6.7808 21.0595 -0.188176
224 2 8.66234 21.0667 1.44882 8.66234 21.0667 1.44882
225 2 8.67181 21.073 -1.81466 8.67181 21.073 -1.81466
226 1 9.6258 22.7092 -0.176738 9.6258 22.7092 -0.176738
227 2 11.5219 22.7159 1.45988 11.5219 22.7159 1.45988
228 2 11.531 22.6981 -1.80262 11.531 22.6981 -1.80262
229 1 12.4794 21.0596 -0.15994 12.4794 21.0596 -0.15994
230 2 14.3667 21.0862 1.4696 14.3667 21.0862 1.4696
231 2 14.3646 21.0537 -1.79376 14.3646 21.0537 -1.79376
232 1 15.3244 22.7091 -0.178613 15.3244 22.7091 -0.178613
233 2 17.221 22.7188 1.45741 17.221 22.7188 1.45741
234 2 17.2292 22.6948 -1.80505 17.2292 22.6948 -1.80505
235 1 18.178 21.0594 -0.159238 18.178 21.0594 -0.159238
236 2 20.0716 21.0878 1.46327 20.0716 21.0878 1.46327
237 2 20.0571 21.0513 -1.79999 20.0571 21.0513 -1.79999
238 1 21.0232 22.7086 -0.190895 21.0232 22.7086 -0.190895
239 2 22.9256 22.7106 1.43822 22.9256 22.7106 1.43822
240 2 22.9222 22.7014 -1.82431 22.9222 22.7014 -1.82431
241 1 23.8769 21.0585 -0.189272 23.8769 21.0585 -0.189272
242 2 25.759 21.0748 1.44781 25.759 21.0748 1.44781
243 2 25.7674 21.0624 -1.81564 25.7674 21.0624 -1.81564
244 1 26.7222 22.7078 -0.188062 26.7222 22.7078 -0.188062
245 2 28.6152 22.7074 1.45216 28.6152 22.7074 1.45216
246 2 28.6307 22.7036 -1.81034 28.6307 22.7036 -1.81034
247 1 29.576 21.0582 -0.172586 29.576 21.0582 -0.172586
248 2 31.4507 21.071 1.47298 31.4507 21.071 1.47298
249 2 31.4741 21.066 -1.79036 31.4741 21.066 -1.79036
250 1 32.4215 22.7076 -0.154303 32.4215 22.7076 -0.154303
251 2 34.3134 22.7031 1.48744 34.3134 22.7031 1.48744
252 2 34.3313 22.7075 -1.77503 34.3313 22.7075 -1.77503
253 1 35.2756 21.058 -0.140597 35.2756 21.058 -0.140597
254 2 37.1528 21.0633 1.50223 37.1528 21.0633 1.50223
255 2 37.1714 21.0731 -1.7611 37.1714 21.0731 -1.7611
256 1 38.1211 22.7074 -0.118912 38.1211 22.7074 -0.118912
257 2 40.024 22.7213 1.51009 40.024 22.7213 1.51009
258 2 40.0201 22.6895 -1.75226 40.0201 22.6895 -1.75226
259 1 40.9753 21.0581 -0.106427 40.9753 21.0581 -0.106427
260 2 42.8746 21.0837 1.50928 42.8746 21.0837 1.50928
261 2 42.8491 21.0533 -1.75388 42.8491 21.0533 -1.75388
262 1 43.8207 22.7076 -0.144351 43.8207 22.7076 -0.144351
263 2 45.7278 22.7185 1.47987 45.7278 22.7185 1.47987
264 2 45.7152 22.6927 -1.78251 45.7152 22.6927 -1.78251
265 1 46.6748 21.0582 -0.141567 46.6748 21.0582 -0.141567
266 2 48.5789 21.0736 1.46924 48.5789 21.0736 1.46924
267 2 48.5435 21.0636 -1.79397 48.5435 21.0636 -1.79397
268 1 49.5198 22.708 -0.177877 49.5198 22.708 -0.177877
269 2 51.4282 22.6874 1.44448 51.4282 22.6874 1.44448
270 2 51.4131 22.7251 -1.81781 51.4131 22.7251 -1.81781
271 1 1.07704 24.3543 -0.172007 1.07704 24.3543 -0.172007
272 2 2.97285 24.35 1.46436 2.97285 24.35 1.46436
273 2 2.98113 24.3605 -1.798 2.98113 24.3605 -1.798
274 1 3.92583 26.002 -0.159276 3.92583 26.002 -0.159276
275 2 5.82723 25.993 1.47021 5.82723 25.993 1.47021
276 2 5.82473 26.0102 -1.79226 5.82473 26.0102 -1.79226
277 1 6.7759 24.3549 -0.170526 6.7759 24.3549 -0.170526
278 2 8.67638 24.3509 1.45984 8.67638 24.3509 1.45984
279 2 8.67525 24.3602 -1.80254 8.67525 24.3602 -1.80254
280 1 9.62465 26.0023 -0.16697 9.62465 26.0023 -0.16697
281 2 11.5261 25.9938 1.46259 11.5261 25.9938 1.46259
282 2 11.5234 26.0098 -1.79989 11.5234 26.0098 -1.79989
283 1 12.4746 24.3549 -0.177824 12.4746 24.3549 -0.177824
284 2 14.3732 24.3531 1.45454 14.3732 24.3531 1.45454
285 2 14.3758 24.358 -1.80786 14.3758 24.358 -1.80786
286 1 15.3234 26.0022 -0.173474 15.3234 26.0022 -0.173474
287 2 17.2259 25.9959 1.45494 17.2259 25.9959 1.45494
288 2 17.2212 26.0071 -1.80756 17.2212 26.0071 -1.80756
289 1 18.1733 24.3547 -0.183703 18.1733 24.3547 -0.183703
290 2 20.0774 24.3556 1.4423 20.0774 24.3556 1.4423
291 2 20.0691 24.3545 -1.82008 20.0691 24.3545 -1.82008
292 1 21.0222 26.0016 -0.191811 21.0222 26.0016 -0.191811
293 2 22.9252 25.9991 1.43599 22.9252 25.9991 1.43599
294 2 22.9195 26.0024 -1.82651 22.9195 26.0024 -1.82651
295 1 23.8722 24.3539 -0.198669 23.8722 24.3539 -0.198669
296 2 25.7683 24.3577 1.43716 25.7683 24.3577 1.43716
297 2 25.7761 24.3507 -1.8252 25.7761 24.3507 -1.8252
298 1 26.7213 26.0008 -0.195245 26.7213 26.0008 -0.195245
299 2 28.6117 26.0014 1.4475 28.6117 26.0014 1.4475
300 2 28.6312 25.9988 -1.81494 28.6312 25.9988 -1.81494
301 1 29.5713 24.3533 -0.176547 29.5713 24.3533 -0.176547
302 2 31.4597 24.3554 1.46838 31.4597 24.3554 1.46838
303 2 31.483 24.3523 -1.7939 31.483 24.3523 -1.7939
304 1 32.4205 26.0004 -0.157445 32.4205 26.0004 -0.157445
305 2 34.3109 26.0037 1.4853 34.3109 26.0037 1.4853
306 2 34.3306 25.9959 -1.77711 34.3306 25.9959 -1.77711
307 1 35.2708 24.3531 -0.136219 35.2708 24.3531 -0.136219
308 2 37.1659 24.3624 1.5007 37.1659 24.3624 1.5007
309 2 37.1758 24.3451 -1.76158 37.1758 24.3451 -1.76158
310 1 38.12 26.0004 -0.136318 38.12 26.0004 -0.136318
311 2 40.0296 26.0145 1.48364 40.0296 26.0145 1.48364
312 2 40.0109 25.9853 -1.77864 40.0109 25.9853 -1.77864
313 1 40.9703 24.3532 -0.138263 40.9703 24.3532 -0.138263
314 2 42.8816 24.3675 1.47952 42.8816 24.3675 1.47952
315 2 42.8592 24.3403 -1.78263 42.8592 24.3403 -1.78263
316 1 43.8193 26.0005 -0.17194 43.8193 26.0005 -0.17194
317 2 45.7256 26.0138 1.45238 45.7256 26.0138 1.45238
318 2 45.7136 25.9866 -1.80996 45.7136 25.9866 -1.80996
319 1 46.6696 24.3535 -0.168246 46.6696 24.3535 -0.168246
320 2 48.5766 24.3562 1.45497 48.5766 24.3562 1.45497
321 2 48.5627 24.3524 -1.80736 48.5627 24.3524 -1.80736
322 1 49.5185 26.0011 -0.182332 49.5185 26.0011 -0.182332
323 2 51.4115 25.9982 1.45753 51.4115 25.9982 1.45753
324 2 51.4259 26.0038 -1.80494 51.4259 26.0038 -1.80494
325 1 1.0757 27.6481 -0.166861 1.0757 27.6481 -0.166861
326 2 2.96962 27.6451 1.4716 2.96962 27.6451 1.4716
327 2 2.9819 27.6516 -1.79093 2.9819 27.6516 -1.79093
328 1 3.92451 29.2953 -0.152901 3.92451 29.2953 -0.152901
329 2 5.82107 29.2888 1.48236 5.82107 29.2888 1.48236
330 2 5.82816 29.3017 -1.78013 5.82816 29.3017 -1.78013
331 1 6.77464 27.6487 -0.153245 6.77464 27.6487 -0.153245
332 2 8.67686 27.6392 1.47534 8.67686 27.6392 1.47534
333 2 8.6725 27.6582 -1.78717 8.6725 27.6582 -1.78717
334 1 9.62344 29.2956 -0.147532 9.62344 29.2956 -0.147532
335 2 11.5246 29.2839 1.48245 11.5246 29.2839 1.48245
336 2 11.5224 29.3068 -1.78001 11.5224 29.3068 -1.78001
337 1 12.4735 27.6488 -0.161185 12.4735 27.6488 -0.161185
338 2 14.3739 27.6374 1.46961 14.3739 27.6374 1.46961
339 2 14.3731 27.6599 -1.79289 14.3731 27.6599 -1.79289
340 1 15.3223 29.2954 -0.150325 15.3223 29.2954 -0.150325
341 2 17.2284 29.2845 1.47384 17.2284 29.2845 1.47384
342 2 17.2164 29.3055 -1.7886 17.2164 29.3055 -1.7886
343 1 18.1723 27.6484 -0.17181 18.1723 27.6484 -0.17181
344 2 20.079 27.6403 1.45151 20.079 27.6403 1.45151
345 2 20.0657 27.656 -1.81101 20.0657 27.656 -1.81101
346 1 21.0212 29.2949 -0.175591 21.0212 29.2949 -0.175591
347 2 22.9292 29.2887 1.44644 22.9292 29.2887 1.44644
348 2 22.9135 29.2999 -1.81603 22.9135 29.2999 -1.81603
349 1 23.8712 27.6476 -0.195198 23.8712 27.6476 -0.195198
350 2 25.7705 27.6458 1.43708 25.7705 27.6458 1.43708
351 2 25.7721 27.6488 -1.82548 25.7721 27.6488 -1.82548
352 1 26.7203 29.2941 -0.192094 26.7203 29.2941 -0.192094
353 2 28.6128 29.2929 1.4482 28.6128 29.2929 1.4482
354 2 28.628 29.2943 -1.81429 28.628 29.2943 -1.81429
355 1 29.5704 27.647 -0.179344 29.5704 27.647 -0.179344
356 2 31.4588 27.6482 1.46561 31.4588 27.6482 1.46561
357 2 31.4821 27.6455 -1.79686 31.4821 27.6455 -1.79686
358 1 32.4194 29.2936 -0.160146 32.4194 29.2936 -0.160146
359 2 34.3124 29.297 1.47935 34.3124 29.297 1.47935
360 2 34.3267 29.2895 -1.78312 34.3267 29.2895 -1.78312
361 1 35.2697 27.6467 -0.144093 35.2697 27.6467 -0.144093
362 2 37.1707 27.6563 1.48593 37.1707 27.6563 1.48593
363 2 37.169 27.6372 -1.77656 37.169 27.6372 -1.77656
364 1 38.1188 29.2936 -0.155661 38.1188 29.2936 -0.155661
365 2 40.0292 29.2997 1.46306 40.0292 29.2997 1.46306
366 2 40.0086 29.2871 -1.79935 40.0086 29.2871 -1.79935
367 1 40.969 27.6468 -0.167881 40.969 27.6468 -0.167881
368 2 42.8782 27.6587 1.45249 42.8782 27.6587 1.45249
369 2 42.8601 27.6351 -1.80991 42.8601 27.6351 -1.80991
370 1 43.818 29.2938 -0.196222 43.818 29.2938 -0.196222
371 2 45.7198 29.2965 1.43304 45.7198 29.2965 1.43304
372 2 45.7165 29.2911 -1.82944 45.7165 29.2911 -1.82944
373 1 46.6683 27.6472 -0.196216 46.6683 27.6472 -0.196216
374 2 48.5625 27.6504 1.44209 48.5625 27.6504 1.44209
375 2 48.5743 27.6446 -1.82042 48.5743 27.6446 -1.82042
376 1 49.5172 29.2945 -0.188798 49.5172 29.2945 -0.188798
377 2 51.4043 29.2936 1.45764 51.4043 29.2936 1.45764
378 2 51.4302 29.2957 -1.80476 51.4302 29.2957 -1.80476
379 1 1.07444 30.9416 -0.164962 1.07444 30.9416 -0.164962
380 2 2.96472 30.9368 1.47762 2.96472 30.9368 1.47762
381 2 2.98431 30.9468 -1.78484 2.98431 30.9468 -1.78484
382 1 3.92344 32.5887 -0.142722 3.92344 32.5887 -0.142722
383 2 5.82035 32.5856 1.49225 5.82035 32.5856 1.49225
384 2 5.82675 32.592 -1.77026 5.82675 32.592 -1.77026
385 1 6.77342 30.9422 -0.140353 6.77342 30.9422 -0.140353
386 2 8.67352 30.9351 1.49086 8.67352 30.9351 1.49086
387 2 8.67349 30.9492 -1.77166 8.67349 30.9492 -1.77166
388 1 9.62246 32.589 -0.133131 9.62246 32.589 -0.133131
389 2 11.5242 32.5872 1.49633 11.5242 32.5872 1.49633
390 2 11.5209 32.5906 -1.7662 11.5209 32.5906 -1.7662
391 1 12.4724 30.9422 -0.137584 12.4724 30.9422 -0.137584
392 2 14.3757 30.935 1.49 14.3757 30.935 1.49
393 2 14.3691 30.949 -1.77251 14.3691 30.949 -1.77251
394 1 15.3215 32.5888 -0.13597 15.3215 32.5888 -0.13597
395 2 17.2289 32.5872 1.48673 17.2289 32.5872 1.48673
396 2 17.2142 32.5898 -1.77577 17.2142 32.5898 -1.77577
397 1 18.1714 30.9418 -0.150126 18.1714 30.9418 -0.150126
398 2 20.0824 30.9355 1.46828 20.0824 30.9355 1.46828
399 2 20.0604 30.9475 -1.79417 20.0604 30.9475 -1.79417
400 1 21.0205 32.5882 -0.163273 21.0205 32.5882 -0.163273
401 2 22.93 32.5842 1.45687 22.93 32.5842 1.45687
402 2 22.911 32.5914 -1.8056 22.911 32.5914 -1.8056
403 1 23.8703 30.9411 -0.183638 23.8703 30.9411 -0.183638
404 2 25.773 30.9369 1.44459 25.773 30.9369 1.44459
405 2 25.7677 30.9445 -1.81794 25.7677 30.9445 -1.81794
406 1 26.7195 32.5874 -0.184323 26.7195 32.5874 -0.184323
407 2 28.6149 32.5854 1.45259 28.6149 32.5854 1.45259
408 2 28.6242 32.5888 -1.80993 28.6242 32.5888 -1.80993
409 1 29.5694 30.9404 -0.177731 29.5694 30.9404 -0.177731
410 2 31.4597 30.9406 1.46499 31.4597 30.9406 1.46499
411 2 31.4792 30.9397 -1.79748 31.4792 30.9397 -1.79748
412 1 32.4185 32.5869 -0.16096 32.4185 32.5869 -0.16096
413 2 34.3145 32.589 1.47513 34.3145 32.589 1.47513
414 2 34.3228 32.5845 -1.78737 34.3228 32.5845 -1.78737
415 1 35.2686 30.9402 -0.151573 35.2686 30.9402 -0.151573
416 2 37.1727 30.9435 1.47471 37.1727 30.9435 1.47471
417 2 37.1647 30.9367 -1.7878 37.1647 30.9367 -1.7878
418 1 38.1177 32.5869 -0.162499 38.1177 32.5869 -0.162499
419 2 40.0265 32.5841 1.45837 40.0265 32.5841 1.45837
420 2 40.0093 32.5897 -1.80409 40.0093 32.5897 -1.80409
421 1 40.9678 30.9403 -0.18084 40.9678 30.9403 -0.18084
422 2 42.8759 30.9393 1.44086 42.8759 30.9393 1.44086
423 2 42.86 30.9415 -1.82161 42.86 30.9415 -1.82161
424 1 43.8169 32.5874 -0.194032 43.8169 32.5874 -0.194032
425 2 45.7147 32.5755 1.44 45.7147 32.5755 1.44
426 2 45.7196 32.5995 -1.82241 45.7196 32.5995 -1.82241
427 1 46.6671 30.9409 -0.202004 46.6671 30.9409 -0.202004
428 2 48.5564 30.9353 1.44186 48.5564 30.9353 1.44186
429 2 48.578 30.9468 -1.82056 48.578 30.9468 -1.82056
430 1 49.5161 32.588 -0.177135 49.5161 32.588 -0.177135
431 2 51.4041 32.5794 1.4682 51.4041 32.5794 1.4682
432 2 51.4283 32.597 -1.79418 51.4283 32.597 -1.79418
433 1 1.07357 34.2351 -0.146721 1.07357 34.2351 -0.146721
434 2 2.96865 34.2307 1.4904 2.96865 34.2307 1.4904
435 2 2.97871 34.24 -1.77209 2.97871 34.24 -1.77209
436 1 3.9229 35.8822 -0.132954 3.9229 35.8822 -0.132954
437 2 5.82533 35.8856 1.49559 5.82533 35.8856 1.49559
438 2 5.82072 35.8791 -1.76692 5.82072 35.8791 -1.76692
439 1 6.77263 34.2357 -0.133718 6.77263 34.2357 -0.133718
440 2 8.67426 34.2387 1.49582 8.67426 34.2387 1.49582
441 2 8.67121 34.2327 -1.7667 8.67121 34.2327 -1.7667
442 1 9.62198 35.8825 -0.139381 9.62198 35.8825 -0.139381
443 2 11.5239 35.8905 1.48979 11.5239 35.8905 1.48979
444 2 11.5203 35.8742 -1.7727 11.5203 35.8742 -1.7727
445 1 12.4717 34.2357 -0.134115 12.4717 34.2357 -0.134115
446 2 14.3753 34.2396 1.4931 14.3753 34.2396 1.4931
447 2 14.3682 34.2314 -1.76942 14.3682 34.2314 -1.76942
448 1 15.321 35.8822 -0.144486 15.321 35.8822 -0.144486
449 2 17.2261 35.8873 1.48099 17.2261 35.8873 1.48099
450 2 17.2162 35.8766 -1.78152 17.2162 35.8766 -1.78152
451 1 18.1707 34.2352 -0.147612 18.1707 34.2352 -0.147612
452 2 20.0799 34.2352 1.47295 20.0799 34.2352 1.47295
453 2 20.0617 34.2346 -1.78954 20.0617 34.2346 -1.78954
454 1 21.0201 35.8816 -0.164034 21.0201 35.8816 -0.164034
455 2 22.9271 35.8811 1.45914 22.9271 35.8811 1.45914
456 2 22.9133 35.8815 -1.80336 22.9133 35.8815 -1.80336
457 1 23.8697 34.2345 -0.176235 23.8697 34.2345 -0.176235
458 2 25.7729 34.2315 1.45146 25.7729 34.2315 1.45146
459 2 25.7666 34.2368 -1.81106 25.7666 34.2368 -1.81106
460 1 26.7191 35.8809 -0.178877 26.7191 35.8809 -0.178877
461 2 28.6166 35.8808 1.4556 28.6166 35.8808 1.4556
462 2 28.6218 35.8805 -1.80693 28.6218 35.8805 -1.80693
463 1 29.5687 34.2338 -0.174019 29.5687 34.2338 -0.174019
464 2 31.4619 34.2345 1.46548 31.4619 34.2345 1.46548
465 2 31.4757 34.2328 -1.79702 31.4757 34.2328 -1.79702
466 1 32.4181 35.8804 -0.162465 32.4181 35.8804 -0.162465
467 2 34.3164 35.8837 1.47091 34.3164 35.8837 1.47091
468 2 34.32 35.877 -1.79159 34.32 35.877 -1.79159
469 1 35.2678 34.2336 -0.155962 35.2678 34.2336 -0.155962
470 2 37.1714 34.2333 1.47112 37.1714 34.2333 1.47112
471 2 37.1645 34.2338 -1.79139 37.1645 34.2338 -1.79139
472 1 38.1172 35.8804 -0.161974 38.1172 35.8804 -0.161974
473 2 40.0215 35.8746 1.46437 40.0215 35.8746 1.46437
474 2 40.0132 35.8864 -1.79811 40.0132 35.8864 -1.79811
475 1 40.967 34.2338 -0.175251 40.967 34.2338 -0.175251
476 2 42.871 34.2222 1.45138 42.871 34.2222 1.45138
477 2 42.8633 34.2457 -1.81103 42.8633 34.2457 -1.81103
478 1 43.8164 35.8808 -0.170114 43.8164 35.8808 -0.170114
479 2 45.7118 35.8655 1.46678 45.7118 35.8655 1.46678
480 2 45.7212 35.8966 -1.79556 45.7212 35.8966 -1.79556
481 1 46.6662 34.2344 -0.177495 46.6662 34.2344 -0.177495
482 2 48.5575 34.2198 1.46411 48.5575 34.2198 1.46411
483 2 48.5751 34.2495 -1.79821 48.5751 34.2495 -1.79821
484 1 49.5154 35.8815 -0.14651 49.5154 35.8815 -0.14651
485 2 51.4105 35.873 1.49069 51.4105 35.873 1.49069
486 2 51.4206 35.8905 -1.77176 51.4206 35.8905 -1.77176
487 1 1.07327 37.5286 -0.128437 1.07327 37.5286 -0.128437
488 2 2.97653 37.53 1.49915 2.97653 37.53 1.49915
489 2 2.9703 37.5278 -1.76335 2.9703 37.5278 -1.76335
490 1 3.92291 39.1757 -0.135009 3.92291 39.1757 -0.135009
491 2 5.82974 39.1823 1.48836 5.82974 39.1823 1.48836
492 2 5.81633 39.1695 -1.77411 5.81633 39.1695 -1.77411
493 1 6.77239 37.5291 -0.140285 6.77239 37.5291 -0.140285
494 2 8.67662 37.5372 1.48613 8.67662 37.5372 1.48613
495 2 8.6684 37.5213 -1.77635 8.6684 37.5213 -1.77635
496 1 9.62202 39.1759 -0.155623 9.62202 39.1759 -0.155623
497 2 11.5244 39.1844 1.473 11.5244 39.1844 1.473
498 2 11.5199 39.1674 -1.78948 11.5199 39.1674 -1.78948
499 1 12.4715 37.5291 -0.150855 12.4715 37.5291 -0.150855
500 2 14.3729 37.5373 1.47893 14.3729 37.5373 1.47893
501 2 14.3703 37.5206 -1.78356 14.3703 37.5206 -1.78356
502 1 15.3211 39.1756 -0.161587 15.3211 39.1756 -0.161587
503 2 17.2229 39.1812 1.46762 17.2229 39.1812 1.46762
504 2 17.2195 39.1697 -1.79489 17.2195 39.1697 -1.79489
505 1 18.1706 37.5286 -0.158693 18.1706 37.5286 -0.158693
506 2 20.0755 37.5314 1.46686 20.0755 37.5314 1.46686
507 2 20.0658 37.5254 -1.79566 20.0658 37.5254 -1.79566
508 1 21.0202 39.175 -0.170447 21.0202 39.175 -0.170447
509 2 22.9229 39.1738 1.45771 22.9229 39.1738 1.45771
510 2 22.9177 39.1758 -1.80481 22.9177 39.1758 -1.80481
511 1 23.8696 37.528 -0.176019 23.8696 37.528 -0.176019
512 2 25.7709 37.5269 1.45385 25.7709 37.5269 1.45385
513 2 25.7685 37.5285 -1.80868 25.7685 37.5285 -1.80868
514 1 26.7192 39.1744 -0.177288 26.7192 39.1744 -0.177288
515 2 28.6182 39.1755 1.45524 28.6182 39.1755 1.45524
516 2 28.6203 39.1729 -1.80728 28.6203 39.1729 -1.80728
517 1 29.5686 37.5274 -0.174108 29.5686 37.5274 -0.174108
518 2 31.4647 37.5317 1.46192 31.4647 37.5317 1.46192
519 2 31.4726 37.5227 -1.80058 31.4726 37.5227 -1.80058
520 1 32.4182 39.174 -0.171451 32.4182 39.174 -0.171451
521 2 34.3178 39.1816 1.46045 34.3178 39.1816 1.46045
522 2 34.3188 39.1663 -1.80202 34.3188 39.1663 -1.80202
523 1 35.2676 37.5271 -0.162662 35.2676 37.5271 -0.162662
524 2 37.1693 37.5305 1.46674 37.1693 37.5305 1.46674
525 2 37.1661 37.5239 -1.79576 37.1661 37.5239 -1.79576
526 1 38.1172 39.174 -0.168867 38.1172 39.174 -0.168867
527 2 40.0152 39.1755 1.46498 40.0152 39.1755 1.46498
528 2 40.0194 39.1728 -1.79752 40.0194 39.1728 -1.79752
529 1 40.9667 37.5274 -0.163388 40.9667 37.5274 -0.163388
530 2 42.8657 37.5185 1.46941 42.8657 37.5185 1.46941
531 2 42.868 37.5365 -1.79305 42.868 37.5365 -1.79305
532 1 43.8163 39.1744 -0.151942 43.8163 39.1744 -0.151942
533 2 45.7101 39.1698 1.48686 45.7101 39.1698 1.48686
534 2 45.7227 39.1795 -1.7756 45.7227 39.1795 -1.7756