ITEM: TIMESTEP
2166000
ITEM: NUMBER OF ATOMS
810
ITEM: BOX BOUNDS pp pp pp
8.6298438867990135e-01 5.2154620611319167e+01
-4.5348091090867024e+00 5.5551024109086278e+01
-1.0000000000000000e+01 1.0000000000000000e+01
ITEM: ATOMS id type x y z xu yu zu
1 1 1.02391 -2.17571 -0.196473 1.02391 -2.17571 -0.196473
2 2 2.99785 -2.17049 1.39053 2.99785 -2.17049 1.39053
3 2 2.98627 -2.18023 -1.79777 2.98627 -2.18023 -1.79777
4 1 3.87426 -0.173082 -0.212687 3.87426 -0.173082 -0.212687
5 2 5.84331 -0.170975 1.38035 5.84331 -0.170975 1.38035
6 2 5.8415 -0.174653 -1.80803 5.8415 -0.174653 -1.80803
7 1 6.72449 -2.17482 -0.211819 6.72449 -2.17482 -0.211819
8 2 8.69219 -2.17483 1.38288 8.69219 -2.17483 1.38288
9 2 8.69308 -2.17462 -1.8054 8.69308 -2.17462 -1.8054
10 1 9.57464 -0.172297 -0.210821 9.57464 -0.172297 -0.210821
11 2 11.5387 -0.175538 1.38828 11.5387 -0.175538 1.38828
12 2 11.5466 -0.168852 -1.80002 11.5466 -0.168852 -1.80002
13 1 12.4242 -2.17476 -0.207549 12.4242 -2.17476 -0.207549
14 2 14.387 -2.17911 1.39273 14.387 -2.17911 1.39273
15 2 14.3972 -2.17086 -1.79543 14.3972 -2.17086 -1.79543
16 1 15.2736 -0.172213 -0.193339 15.2736 -0.172213 -0.193339
17 2 17.2344 -0.178114 1.40921 17.2344 -0.178114 1.40921
18 2 17.2482 -0.166879 -1.77898 17.2482 -0.166879 -1.77898
19 1 18.1221 -2.1758 -0.188062 18.1221 -2.1758 -0.188062
20 2 20.0836 -2.1832 1.41346 20.0836 -2.1832 1.41346
21 2 20.0959 -2.16953 -1.77467 20.0959 -2.16953 -1.77467
22 1 20.9709 -0.173528 -0.168815 20.9709 -0.173528 -0.168815
23 2 22.9329 -0.181496 1.43203 22.9329 -0.181496 1.43203
24 2 22.9439 -0.167022 -1.75619 22.9439 -0.167022 -1.75619
25 1 23.819 -2.17777 -0.168116 23.819 -2.17777 -0.168116
26 2 25.7812 -2.18545 1.43255 25.7812 -2.18545 1.43255
27 2 25.7918 -2.1714 -1.75568 25.7918 -2.1714 -1.75568
28 1 26.6677 -0.175937 -0.149836 26.6677 -0.175937 -0.149836
29 2 28.6295 -0.1824 1.45131 28.6295 -0.1824 1.45131
30 2 28.6409 -0.170982 -1.73702 28.6409 -0.170982 -1.73702
31 1 29.5163 -2.17965 -0.146953 29.5163 -2.17965 -0.146953
32 2 31.4772 -2.18444 1.45554 31.4772 -2.18444 1.45554
33 2 31.4908 -2.17556 -1.73281 31.4908 -2.17556 -1.73281
34 1 32.3655 -0.177846 -0.12944 32.3655 -0.177846 -0.12944
35 2 34.3296 -0.179015 1.46914 34.3296 -0.179015 1.46914
36 2 34.3368 -0.177125 -1.71929 34.3368 -0.177125 -1.71929
37 1 35.2151 -2.18027 -0.124557 35.2151 -2.18027 -0.124557
38 2 37.1814 -2.17843 1.47165 37.1814 -2.17843 1.47165
39 2 37.1846 -2.1817 -1.71674 37.1846 -2.1817 -1.71674
40 1 38.0647 -0.177827 -0.123701 38.0647 -0.177827 -0.123701
41 2 40.0372 -0.173449 1.46472 40.0372 -0.173449 1.46472
42 2 40.0279 -0.181364 -1.72369 40.0279 -0.181364 -1.72369
43 1 40.915 -2.1792 -0.127262 40.915 -2.1792 -0.127262
44 2 42.8907 -2.17249 1.45729 42.8907 -2.17249 1.45729
45 2 42.8752 -2.18475 -1.731 42.8752 -2.18475 -1.731
46 1 43.7647 -0.176151 -0.148766 43.7647 -0.176151 -0.148766
47 2 45.7437 -0.168866 1.43181 45.7437 -0.168866 1.43181
48 2 45.7217 -0.182216 -1.75649 45.7217 -0.182216 -1.75649
49 1 46.6151 -2.17731 -0.159995 46.6151 -2.17731 -0.159995
50 2 48.5939 -2.16934 1.42089 48.5939 -2.16934 1.42089
51 2 48.5724 -2.18415 -1.76734 48.5724 -2.18415 -1.76734
52 1 49.4651 -0.174326 -0.188265 49.4651 -0.174326 -0.188265
53 2 51.4416 -0.16874 1.39558 51.4416 -0.16874 1.39558
54 2 51.4249 -0.179035 -1.79277 51.4249 -0.179035 -1.79277
55 1 1.02378 1.82825 -0.209452 1.02378 1.82825 -0.209452
56 2 2.99558 1.83106 1.3802 2.99558 1.83106 1.3802
57 2 2.98824 1.82618 -1.80823 2.98824 1.82618 -1.80823
58 1 3.87416 3.83067 -0.218811 3.87416 3.83067 -0.218811
59 2 5.84062 3.83041 1.37739 5.84062 3.83041 1.37739
60 2 5.84397 3.83176 -1.81102 5.84397 3.83176 -1.81102
61 1 6.72456 1.82935 -0.216432 6.72456 1.82935 -0.216432
62 2 8.68875 1.82856 1.38247 8.68875 1.82856 1.38247
63 2 8.69652 1.83079 -1.80591 8.69652 1.83079 -1.80591
64 1 9.57453 3.83194 -0.208024 9.57453 3.83194 -0.208024
65 2 11.5351 3.8286 1.3952 11.5351 3.8286 1.3952
66 2 11.5499 3.83611 -1.79312 11.5499 3.83611 -1.79312
67 1 12.4244 1.83028 -0.199472 12.4244 1.83028 -0.199472
68 2 14.3854 1.82557 1.40304 14.3854 1.82557 1.40304
69 2 14.399 1.83524 -1.78524 14.399 1.83524 -1.78524
70 1 15.2736 3.83295 -0.181295 15.2736 3.83295 -0.181295
71 2 17.2335 3.82746 1.42261 17.2335 3.82746 1.42261
72 2 17.2493 3.8385 -1.76565 17.2493 3.8385 -1.76565
73 1 18.1225 1.83022 -0.174063 18.1225 1.83022 -0.174063
74 2 20.0828 1.82357 1.42909 20.0828 1.82357 1.42909
75 2 20.0975 1.83599 -1.75913 20.0975 1.83599 -1.75913
76 1 20.9714 3.83235 -0.153307 20.9714 3.83235 -0.153307
77 2 22.9328 3.8255 1.44841 22.9328 3.8255 1.44841
78 2 22.9451 3.83785 -1.73983 22.9451 3.83785 -1.73983
79 1 23.8196 1.8283 -0.150122 23.8196 1.8283 -0.150122
80 2 25.7821 1.82065 1.45009 25.7821 1.82065 1.45009
81 2 25.792 1.83416 -1.73819 25.792 1.83416 -1.73819
82 1 26.6684 3.82975 -0.133096 26.6684 3.82975 -0.133096
83 2 28.6325 3.82433 1.46534 28.6325 3.82433 1.46534
84 2 28.6393 3.83326 -1.72296 28.6393 3.83326 -1.72296
85 1 29.5166 1.82554 -0.132638 29.5166 1.82554 -0.132638
86 2 31.48 1.82156 1.46673 31.48 1.82156 1.46673
87 2 31.4884 1.82814 -1.72166 31.4884 1.82814 -1.72166
88 1 32.3657 3.82707 -0.121157 32.3657 3.82707 -0.121157
89 2 34.333 3.8255 1.47352 34.333 3.8255 1.47352
90 2 34.3338 3.82774 -1.71486 34.3338 3.82774 -1.71486
91 1 35.2148 1.82408 -0.121947 35.2148 1.82408 -0.121947
92 2 37.1843 1.82532 1.47011 37.1843 1.82532 1.47011
93 2 37.1809 1.82296 -1.71833 37.1809 1.82296 -1.71833
94 1 38.0643 3.82643 -0.126594 38.0643 3.82643 -0.126594
95 2 40.04 3.82968 1.45789 40.04 3.82968 1.45789
96 2 40.0243 3.8238 -1.73048 40.0243 3.8238 -1.73048
97 1 40.9143 1.82491 -0.137005 40.9143 1.82491 -0.137005
98 2 42.8922 1.83032 1.44484 42.8922 1.83032 1.44484
99 2 42.8723 1.82065 -1.74352 42.8723 1.82065 -1.74352
100 1 43.7641 3.82776 -0.160803 43.7641 3.82776 -0.160803
101 2 45.7438 3.8323 1.41887 45.7438 3.8323 1.41887
102 2 45.7204 3.82437 -1.76947 45.7204 3.82437 -1.76947
103 1 46.6146 1.82676 -0.176578 46.6146 1.82676 -0.176578
104 2 48.5929 1.8325 1.40485 48.5929 1.8325 1.40485
105 2 48.5723 1.8221 -1.78351 48.5723 1.8221 -1.78351
106 1 49.4648 3.8294 -0.201255 49.4648 3.8294 -0.201255
107 2 51.4393 3.83223 1.38499 51.4393 3.83223 1.38499
108 2 51.4266 3.82749 -1.80341 51.4266 3.82749 -1.80341
109 1 1.02361 5.83195 -0.215458 1.02361 5.83195 -0.215458
110 2 2.99333 5.83164 1.37677 2.99333 5.83164 1.37677
111 2 2.99022 5.8331 -1.81162 2.99022 5.8331 -1.81162
112 1 3.87396 7.8346 -0.217199 3.87396 7.8346 -0.217199
113 2 5.83898 7.8324 1.38079 5.83898 7.8324 1.38079
114 2 5.84516 7.83787 -1.80757 5.84516 7.83787 -1.80757
115 1 6.72434 5.83332 -0.214845 6.72434 5.83332 -0.214845
116 2 8.68664 5.83088 1.38639 8.68664 5.83088 1.38639
117 2 8.69814 5.8367 -1.80196 8.69814 5.8367 -1.80196
118 1 9.57415 7.83623 -0.200868 9.57415 7.83623 -0.200868
119 2 11.534 7.8337 1.40334 11.534 7.8337 1.40334
120 2 11.5502 7.83988 -1.78499 11.5502 7.83988 -1.78499
121 1 12.4241 5.83482 -0.190232 12.4241 5.83482 -0.190232
122 2 14.3839 5.83072 1.41395 14.3839 5.83072 1.41395
123 2 14.4 5.83965 -1.77435 14.4 5.83965 -1.77435
124 1 15.2734 7.83771 -0.170234 15.2734 7.83771 -0.170234
125 2 17.2328 7.83392 1.43434 17.2328 7.83392 1.43434
126 2 17.2496 7.84199 -1.75397 17.2496 7.84199 -1.75397
127 1 18.1227 5.83555 -0.160337 18.1227 5.83555 -0.160337
128 2 20.083 5.83049 1.44293 20.083 5.83049 1.44293
129 2 20.0978 5.84015 -1.74533 20.0978 5.84015 -1.74533
130 1 20.9717 7.83779 -0.141261 20.9717 7.83779 -0.141261
131 2 22.9337 7.83453 1.45995 22.9337 7.83453 1.45995
132 2 22.9451 7.84014 -1.72833 22.9451 7.84014 -1.72833
133 1 23.8203 5.83415 -0.134871 23.8203 5.83415 -0.134871
134 2 25.784 5.82929 1.46409 25.784 5.82929 1.46409
135 2 25.7917 5.83719 -1.72416 25.7917 5.83719 -1.72416
136 1 26.6693 7.83574 -0.123196 26.6693 7.83574 -0.123196
137 2 28.6345 7.83286 1.47396 28.6345 7.83286 1.47396
138 2 28.6392 7.83677 -1.71429 28.6392 7.83677 -1.71429
139 1 29.5173 5.8312 -0.121512 29.5173 5.8312 -0.121512
140 2 31.4833 5.82839 1.47467 31.4833 5.82839 1.47467
141 2 31.4865 5.83222 -1.71361 31.4865 5.83222 -1.71361
142 1 32.3664 7.8329 -0.116321 32.3664 7.8329 -0.116321
143 2 34.3352 7.83184 1.47629 34.3352 7.83184 1.47629
144 2 34.3328 7.83258 -1.712 34.3328 7.83258 -1.712
145 1 35.2149 5.82906 -0.119191 35.2149 5.82906 -0.119191
146 2 37.1873 5.82967 1.46922 37.1873 5.82967 1.46922
147 2 37.178 5.82799 -1.71912 37.178 5.82799 -1.71912
148 1 38.0643 7.83139 -0.12862 38.0643 7.83139 -0.12862
149 2 40.0416 7.83248 1.45377 40.0416 7.83248 1.45377
150 2 40.0226 7.83027 -1.73456 40.0226 7.83027 -1.73456
151 1 40.9139 5.82914 -0.144224 40.9139 5.82914 -0.144224
152 2 42.893 5.83223 1.43605 42.893 5.83223 1.43605
153 2 42.8706 5.8268 -1.75229 42.8706 5.8268 -1.75229
154 1 43.7638 7.83181 -0.167545 43.7638 7.83181 -0.167545
155 2 45.7432 7.83313 1.41253 45.7432 7.83313 1.41253
156 2 45.7205 7.8313 -1.77582 45.7205 7.8313 -1.77582
157 1 46.6142 5.83053 -0.186515 46.6142 5.83053 -0.186515
158 2 48.5919 5.8327 1.39575 48.5919 5.8327 1.39575
159 2 48.5727 5.82929 -1.79261 48.5727 5.82929 -1.79261
160 1 49.4646 7.83313 -0.205597 49.4646 7.83313 -0.205597
161 2 51.4381 7.83316 1.38197 51.4381 7.83316 1.38197
162 2 51.4275 7.8341 -1.80642 51.4275 7.8341 -1.80642
163 1 1.02347 9.83577 -0.214255 1.02347 9.83577 -0.214255
164 2 2.99158 9.83385 1.37989 2.99158 9.83385 1.37989
165 2 2.99165 9.83882 -1.8085 2.99165 9.83882 -1.8085
166 1 3.87373 11.8387 -0.210964 3.87373 11.8387 -0.210964
167 2 5.83793 11.8359 1.38799 5.83793 11.8359 1.38799
168 2 5.8457 11.8427 -1.80036 5.8457 11.8427 -1.80036
169 1 6.72403 9.8375 -0.20814 6.72403 9.8375 -0.20814
170 2 8.68565 9.83467 1.39396 8.68565 9.83467 1.39396
171 2 8.69844 9.84152 -1.79439 8.69844 9.84152 -1.79439
172 1 9.57382 11.8406 -0.192327 9.57382 11.8406 -0.192327
173 2 11.5342 11.8383 1.41119 11.5342 11.8383 1.41119
174 2 11.5493 11.844 -1.77715 11.5493 11.844 -1.77715
175 1 12.4237 9.83925 -0.182381 12.4237 9.83925 -0.182381
176 2 14.3827 9.83678 1.42278 14.3827 9.83678 1.42278
177 2 14.4005 9.84264 -1.76557 14.4005 9.84264 -1.76557
178 1 15.2732 11.8421 -0.162931 15.2732 11.8421 -0.162931
179 2 17.2334 11.8418 1.44069 17.2334 11.8418 1.44069
180 2 17.2486 11.843 -1.74768 17.2486 11.843 -1.74768
181 1 18.1227 9.84033 -0.150348 18.1227 9.84033 -0.150348
182 2 20.0839 9.83824 1.45209 20.0839 9.83824 1.45209
183 2 20.097 9.84243 -1.73626 20.097 9.84243 -1.73626
184 1 20.972 11.8427 -0.136124 20.972 11.8427 -0.136124
185 2 22.9359 11.8436 1.46311 22.9359 11.8436 1.46311
186 2 22.9437 11.8414 -1.72521 22.9437 11.8414 -1.72521
187 1 23.8209 9.83973 -0.127794 23.8209 9.83973 -0.127794
188 2 25.7854 9.83827 1.47043 25.7854 9.83827 1.47043
189 2 25.7918 9.83994 -1.71785 25.7918 9.83994 -1.71785
190 1 26.6701 11.8417 -0.1212 26.6701 11.8417 -0.1212
191 2 28.6359 11.842 1.47534 28.6359 11.842 1.47534
192 2 28.6396 11.8399 -1.71289 28.6396 11.8399 -1.71289
193 1 29.5183 9.83741 -0.116636 29.5183 9.83741 -0.116636
194 2 31.4854 9.83607 1.47822 31.4854 9.83607 1.47822
195 2 31.4864 9.83697 -1.71002 31.4864 9.83697 -1.71002
196 1 32.3674 11.8393 -0.115314 32.3674 11.8393 -0.115314
197 2 34.3372 11.8393 1.47612 34.3372 11.8393 1.47612
198 2 34.3327 11.8375 -1.71211 34.3327 11.8375 -1.71211
199 1 35.2156 9.83488 -0.118261 35.2156 9.83488 -0.118261
200 2 37.1892 9.83453 1.46858 37.1892 9.83453 1.46858
201 2 37.1773 9.83411 -1.71971 37.1773 9.83411 -1.71971
202 1 38.065 11.8369 -0.129268 38.065 11.8369 -0.129268
203 2 40.0423 11.8359 1.45307 40.0423 11.8359 1.45307
204 2 40.0231 11.837 -1.73521 40.0231 11.837 -1.73521
205 1 40.914 9.83378 -0.146985 40.914 9.83378 -0.146985
206 2 42.8934 9.8338 1.43285 42.8934 9.8338 1.43285
207 2 42.8703 9.83382 -1.75549 42.8703 9.83382 -1.75549
208 1 43.7641 11.8361 -0.167598 43.7641 11.8361 -0.167598
209 2 45.7427 11.8342 1.41339 45.7427 11.8342 1.41339
210 2 45.7214 11.8382 -1.77495 45.7214 11.8382 -1.77495
211 1 46.6141 9.83433 -0.188871 46.6141 9.83433 -0.188871
212 2 48.5907 9.8333 1.39479 48.5907 9.8333 1.39479
213 2 48.5737 9.8362 -1.7936 48.5737 9.8362 -1.7936
214 1 49.4646 11.8369 -0.202086 49.4646 11.8369 -0.202086
215 2 51.4372 11.8338 1.38654 51.4372 11.8338 1.38654
216 2 51.4282 11.841 -1.80184 51.4282 11.841 -1.80184
217 1 1.02331 13.8398 -0.205525 1.02331 13.8398 -0.205525
218 2 2.99183 13.8365 1.38822 2.99183 13.8365 1.38822
219 2 2.99104 13.8444 -1.80013 2.99104 13.8444 -1.80013
220 1 3.87348 15.8431 -0.200962 3.87348 15.8431 -0.200962
221 2 5.83823 15.8399 1.39735 5.83823 15.8399 1.39735
222 2 5.84493 15.8476 -1.79096 5.84493 15.8476 -1.79096
223 1 6.72374 13.8418 -0.199682 6.72374 13.8418 -0.199682
224 2 8.6855 13.8394 1.40221 8.6855 13.8394 1.40221
225 2 8.69804 13.8456 -1.7861 8.69804 13.8456 -1.7861
226 1 9.57364 15.8451 -0.18458 9.57364 15.8451 -0.18458
227 2 11.5351 15.8438 1.4177 11.5351 15.8438 1.4177
228 2 11.5482 15.8476 -1.7706 11.5482 15.8476 -1.7706
229 1 12.4235 13.8437 -0.175236 12.4235 13.8437 -0.175236
230 2 14.384 13.8435 1.42812 14.384 13.8435 1.42812
231 2 14.3988 13.8448 -1.76021 14.3988 13.8448 -1.76021
232 1 15.2733 15.8467 -0.161168 15.2733 15.8467 -0.161168
233 2 17.2355 15.849 1.44009 17.2355 15.849 1.44009
234 2 17.2469 15.8451 -1.7482 17.2469 15.8451 -1.7482
235 1 18.1228 13.8448 -0.148657 18.1228 13.8448 -0.148657
236 2 20.085 13.8473 1.45245 20.085 13.8473 1.45245
237 2 20.0962 13.8427 -1.73588 20.0962 13.8427 -1.73588
238 1 20.9724 15.8477 -0.141621 20.9724 15.8477 -0.141621
239 2 22.9369 15.852 1.45678 22.9369 15.852 1.45678
240 2 22.9437 15.8435 -1.73146 22.9437 15.8435 -1.73146
241 1 23.8215 13.845 -0.13037 23.8215 13.845 -0.13037
242 2 25.7862 13.8479 1.46762 25.7862 13.8479 1.46762
243 2 25.7923 13.8417 -1.72062 25.7923 13.8417 -1.72062
244 1 26.6708 15.8477 -0.1289 26.6708 15.8477 -0.1289
245 2 28.6363 15.8518 1.46809 28.6363 15.8518 1.46809
246 2 28.6409 15.8428 -1.72005 28.6409 15.8428 -1.72005
247 1 29.5193 13.8438 -0.119332 29.5193 13.8438 -0.119332
248 2 31.4863 13.8455 1.47563 31.4863 13.8455 1.47563
249 2 31.4876 13.8406 -1.71254 31.4876 13.8406 -1.71254
250 1 32.3686 15.8461 -0.121378 32.3686 15.8461 -0.121378
251 2 34.3377 15.8479 1.47102 34.3377 15.8479 1.47102
252 2 34.3349 15.8425 -1.71711 34.3349 15.8425 -1.71711
253 1 35.2167 13.8413 -0.120595 35.2167 13.8413 -0.120595
254 2 37.1897 13.8412 1.46692 37.1897 13.8412 1.46692
255 2 37.179 13.8397 -1.72128 37.179 13.8397 -1.72128
256 1 38.0663 15.8433 -0.131309 38.0663 15.8433 -0.131309
257 2 40.0419 15.8421 1.45308 40.0419 15.8421 1.45308
258 2 40.0262 15.8427 -1.73507 40.0262 15.8427 -1.73507
259 1 40.9148 13.839 -0.145767 40.9148 13.839 -0.145767
260 2 42.8937 13.8368 1.43473 42.8937 13.8368 1.43473
261 2 42.8715 13.8404 -1.75351 42.8715 13.8404 -1.75351
262 1 43.7649 15.8412 -0.163201 43.7649 15.8412 -0.163201
263 2 45.7422 15.8376 1.41927 45.7422 15.8376 1.41927
264 2 45.7234 15.8443 -1.76894 45.7234 15.8443 -1.76894
265 1 46.6144 13.8385 -0.184095 46.6144 13.8385 -0.184095
266 2 48.5902 13.8353 1.4005 48.5902 13.8353 1.4005
267 2 48.5747 13.8423 -1.78783 48.5747 13.8423 -1.78783
268 1 49.4647 15.8413 -0.193429 49.4647 15.8413 -0.193429
269 2 51.4366 15.8373 1.3961 51.4366 15.8373 1.3961
270 2 51.4291 15.8462 -1.7922 51.4291 15.8462 -1.7922
271 1 1.02326 17.8444 -0.194436 1.02326 17.8444 -0.194436
272 2 2.9916 17.84 1.39944 2.9916 17.84 1.39944
273 2 2.9911 17.8501 -1.78886 2.9911 17.8501 -1.78886
274 1 3.87331 19.8478 -0.1885 3.87331 19.8478 -0.1885
275 2 5.83934 19.8442 1.40824 5.83934 19.8442 1.40824
276 2 5.84345 19.8526 -1.78006 5.84345 19.8526 -1.78006
277 1 6.72352 17.8464 -0.189983 6.72352 17.8464 -0.189983
278 2 8.68677 17.8446 1.41015 8.68677 17.8446 1.41015
279 2 8.69641 17.8497 -1.77816 8.69641 17.8497 -1.77816
280 1 9.5735 19.8498 -0.178011 9.5735 19.8498 -0.178011
281 2 11.5369 19.8498 1.42198 11.5369 19.8498 1.42198
282 2 11.5463 19.8511 -1.76632 11.5463 19.8511 -1.76632
283 1 12.4235 17.8484 -0.170502 12.4235 17.8484 -0.170502
284 2 14.3867 17.8494 1.42978 14.3867 17.8494 1.42978
285 2 14.3964 17.8485 -1.75852 14.3964 17.8485 -1.75852
286 1 15.2734 19.8517 -0.162192 15.2734 19.8517 -0.162192
287 2 17.2383 19.8548 1.43589 17.2383 19.8548 1.43589
288 2 17.2446 19.8496 -1.75235 17.2446 19.8496 -1.75235
289 1 18.123 17.8498 -0.153307 18.123 17.8498 -0.153307
290 2 20.0875 17.8546 1.44523 20.0875 17.8546 1.44523
291 2 20.0945 17.8458 -1.74301 20.0945 17.8458 -1.74301
292 1 20.9727 19.8532 -0.15236 20.9727 19.8532 -0.15236
293 2 22.9383 19.8595 1.44461 22.9383 19.8595 1.44461
294 2 22.9431 19.8476 -1.74356 22.9431 19.8476 -1.74356
295 1 23.8219 17.8507 -0.140857 23.8219 17.8507 -0.140857
296 2 25.7873 17.8569 1.45639 25.7873 17.8569 1.45639
297 2 25.7923 17.8447 -1.73177 25.7923 17.8447 -1.73177
298 1 26.6715 19.854 -0.143941 26.6715 19.854 -0.143941
299 2 28.6366 19.8607 1.45359 28.6366 19.8607 1.45359
300 2 28.6422 19.847 -1.73452 28.6422 19.847 -1.73452
301 1 29.5202 17.8504 -0.130525 29.5202 17.8504 -0.130525
302 2 31.4864 17.8549 1.46569 31.4864 17.8549 1.46569
303 2 31.4898 17.8449 -1.72243 31.4898 17.8449 -1.72243
304 1 32.3698 19.8531 -0.133864 32.3698 19.8531 -0.133864
305 2 34.337 19.8566 1.46102 34.337 19.8566 1.46102
306 2 34.3383 19.848 -1.72708 34.3383 19.848 -1.72708
307 1 35.2181 17.8483 -0.127431 35.2181 17.8483 -0.127431
308 2 37.1894 17.8493 1.46237 37.1894 17.8493 1.46237
309 2 37.1824 17.8454 -1.72575 37.1824 17.8454 -1.72575
310 1 38.0679 19.8504 -0.136166 38.0679 19.8504 -0.136166
311 2 40.0404 19.8488 1.45216 40.0404 19.8488 1.45216
312 2 40.0311 19.8498 -1.73594 40.0311 19.8498 -1.73594
313 1 40.9162 17.8453 -0.145051 40.9162 17.8453 -0.145051
314 2 42.8922 17.8417 1.43888 42.8922 17.8417 1.43888
315 2 42.8758 17.8475 -1.74927 42.8758 17.8475 -1.74927
316 1 43.7661 19.8475 -0.156256 43.7661 19.8475 -0.156256
317 2 45.742 19.8426 1.42807 45.742 19.8426 1.42807
318 2 45.7261 19.8513 -1.76006 45.7261 19.8513 -1.76006
319 1 46.615 17.8437 -0.175745 46.615 17.8437 -0.175745
320 2 48.5899 17.8393 1.40991 48.5899 17.8393 1.40991
321 2 48.5762 17.8482 -1.77832 48.5762 17.8482 -1.77832
322 1 49.4651 19.8466 -0.18228 49.4651 19.8466 -0.18228
323 2 51.4366 19.842 1.40761 51.4366 19.842 1.40761
324 2 51.4297 19.8517 -1.78063 51.4297 19.8517 -1.78063
325 1 1.0234 21.8498 -0.182153 1.0234 21.8498 -0.182153
326 2 2.99167 21.8454 1.41166 2.99167 21.8454 1.41166
327 2 2.99118 21.8549 -1.7766 2.99118 21.8549 -1.7766
328 1 3.87321 23.8531 -0.176699 3.87321 23.8531 -0.176699
329 2 5.84047 23.8501 1.41847 5.84047 23.8501 1.41847
330 2 5.842 23.8569 -1.76979 5.842 23.8569 -1.76979
331 1 6.72327 21.8512 -0.179473 6.72327 21.8512 -0.179473
332 2 8.68878 21.8492 1.41797 8.68878 21.8492 1.41797
333 2 8.69394 21.8545 -1.77032 8.69394 21.8545 -1.77032
334 1 9.57315 23.8547 -0.171382 9.57315 23.8547 -0.171382
335 2 11.5394 23.8549 1.42513 11.5394 23.8549 1.42513
336 2 11.5431 23.8559 -1.76314 11.5431 23.8559 -1.76314
337 1 12.4234 21.8532 -0.168674 12.4234 21.8532 -0.168674
338 2 14.3884 21.8547 1.42928 14.3884 21.8547 1.42928
339 2 14.3946 21.8532 -1.75897 14.3946 21.8532 -1.75897
340 1 15.2732 23.857 -0.164178 15.2732 23.857 -0.164178
341 2 17.2411 23.861 1.43023 17.2411 23.861 1.43023
342 2 17.2414 23.8544 -1.75799 17.2414 23.8544 -1.75799
343 1 18.1232 21.8553 -0.159728 18.1232 21.8553 -0.159728
344 2 20.0902 21.8602 1.4357 20.0902 21.8602 1.4357
345 2 20.0922 21.8515 -1.75249 20.0922 21.8515 -1.75249
346 1 20.9727 23.8591 -0.163301 20.9727 23.8591 -0.163301
347 2 22.9411 23.866 1.43054 22.9411 23.866 1.43054
348 2 22.9405 23.8531 -1.75763 22.9405 23.8531 -1.75763
349 1 23.8223 21.8568 -0.155628 23.8223 21.8568 -0.155628
350 2 25.7886 21.8639 1.44059 25.7886 21.8639 1.44059
351 2 25.792 21.8502 -1.74754 25.792 21.8502 -1.74754
352 1 26.6719 23.8603 -0.161106 26.6719 23.8603 -0.161106
353 2 28.6373 23.8675 1.43613 28.6373 23.8675 1.43613
354 2 28.6424 23.8531 -1.752 28.6424 23.8531 -1.752
355 1 29.5211 21.8571 -0.147504 29.5211 21.8571 -0.147504
356 2 31.4859 21.8633 1.45039 31.4859 21.8633 1.45039
357 2 31.4922 21.8502 -1.73771 31.4922 21.8502 -1.73771
358 1 32.3708 23.8598 -0.150158 32.3708 23.8598 -0.150158
359 2 34.3353 23.864 1.44805 34.3353 23.864 1.44805
360 2 34.3422 23.8544 -1.74005 34.3422 23.8544 -1.74005
361 1 35.2196 21.8554 -0.138191 35.2196 21.8554 -0.138191
362 2 37.1878 21.8567 1.45539 37.1878 21.8567 1.45539
363 2 37.1871 21.8523 -1.7327 37.1871 21.8523 -1.7327
364 1 38.0693 23.8575 -0.141691 38.0693 23.8575 -0.141691
365 2 40.0381 23.856 1.45121 40.0381 23.856 1.45121
366 2 40.0364 23.857 -1.73687 40.0364 23.857 -1.73687
367 1 40.9177 21.8524 -0.143958 40.9177 21.8524 -0.143958
368 2 42.8907 21.8489 1.44378 42.8907 21.8489 1.44378
369 2 42.8806 21.854 -1.7443 42.8806 21.854 -1.7443
370 1 43.7674 23.8546 -0.150015 43.7674 23.8546 -0.150015
371 2 45.7407 23.8496 1.43737 45.7407 23.8496 1.43737
372 2 45.7299 23.8581 -1.7507 45.7299 23.8581 -1.7507
373 1 46.616 21.85 -0.164898 46.616 21.85 -0.164898
374 2 48.5901 21.8446 1.42156 48.5901 21.8446 1.42156
375 2 48.5777 21.8549 -1.76658 48.5777 21.8549 -1.76658
376 1 49.4657 23.8529 -0.169436 49.4657 23.8529 -0.169436
377 2 51.4372 23.8476 1.42028 51.4372 23.8476 1.42028
378 2 51.4301 23.8579 -1.76789 51.4301 23.8579 -1.76789
379 1 1.02367 25.8559 -0.169309 1.02367 25.8559 -0.169309
380 2 2.99324 25.8523 1.42286 2.99324 25.8523 1.42286
381 2 2.98999 25.8595 -1.76533 2.98999 25.8595 -1.76533
382 1 3.87321 27.8591 -0.167514 3.87321 27.8591 -0.167514
383 2 5.84112 27.8564 1.42671 5.84112 27.8564 1.42671
384 2 5.84131 27.8621 -1.76146 5.84131 27.8621 -1.76146
385 1 6.72298 25.8564 -0.170958 6.72298 25.8564 -0.170958
386 2 8.68977 25.8548 1.42478 8.68977 25.8548 1.42478
387 2 8.69231 25.8591 -1.76347 8.69231 25.8591 -1.76347
388 1 9.57267 27.8601 -0.165934 9.57267 27.8601 -0.165934
389 2 11.541 27.8601 1.42794 11.541 27.8601 1.42794
390 2 11.5405 27.8615 -1.76027 11.5405 27.8615 -1.76027
391 1 12.4229 25.8584 -0.16719 12.4229 25.8584 -0.16719
392 2 14.3907 25.8612 1.4274 14.3907 25.8612 1.4274
393 2 14.3914 25.8572 -1.76085 14.3914 25.8572 -1.76085
394 1 15.2725 27.8624 -0.168898 15.2725 27.8624 -0.168898
395 2 17.2424 27.8666 1.42309 17.2424 27.8666 1.42309
396 2 17.2389 27.86 -1.76511 17.2389 27.86 -1.76511
397 1 18.1228 25.8609 -0.167835 18.1228 25.8609 -0.167835
398 2 20.0919 25.8668 1.42499 20.0919 25.8668 1.42499
399 2 20.0898 25.8564 -1.76322 20.0898 25.8564 -1.76322
400 1 20.9723 27.8648 -0.176061 20.9723 27.8648 -0.176061
401 2 22.942 27.8712 1.41608 22.942 27.8712 1.41608
402 2 22.9388 27.8597 -1.7721 22.9388 27.8597 -1.7721
403 1 23.8223 25.8628 -0.171622 23.8223 25.8628 -0.171622
404 2 25.7893 25.8701 1.4237 25.7893 25.8701 1.4237
405 2 25.7913 25.8562 -1.76448 25.7913 25.8562 -1.76448
406 1 26.672 27.8662 -0.178411 26.672 27.8662 -0.178411
407 2 28.6371 27.8724 1.4193 28.6371 27.8724 1.4193
408 2 28.643 27.8603 -1.76887 28.643 27.8603 -1.76887
409 1 29.5216 25.8633 -0.165458 29.5216 25.8633 -0.165458
410 2 31.4854 25.8693 1.43381 31.4854 25.8693 1.43381
411 2 31.4939 25.8569 -1.75434 31.4939 25.8569 -1.75434
412 1 32.3714 27.866 -0.165513 32.3714 27.866 -0.165513
413 2 34.3333 27.8694 1.43591 34.3333 27.8694 1.43591
414 2 34.3455 27.862 -1.7522 34.3455 27.862 -1.7522
415 1 35.2206 25.8622 -0.150128 35.2206 25.8622 -0.150128
416 2 37.185 25.8632 1.44817 37.185 25.8632 1.44817
417 2 37.1921 25.8597 -1.73994 37.1921 25.8597 -1.73994
418 1 38.0702 27.8645 -0.146269 38.0702 27.8645 -0.146269
419 2 40.0357 27.8632 1.45071 40.0357 27.8632 1.45071
420 2 40.0407 27.8645 -1.73734 40.0407 27.8645 -1.73734
421 1 40.919 25.8597 -0.142836 40.919 25.8597 -0.142836
422 2 42.8893 25.8566 1.44818 42.8893 25.8566 1.44818
423 2 42.8845 25.861 -1.73988 42.8845 25.861 -1.73988
424 1 43.7684 27.8621 -0.144384 43.7684 27.8621 -0.144384
425 2 45.7391 27.8575 1.44602 45.7391 27.8575 1.44602
426 2 45.7335 27.8652 -1.74199 45.7335 27.8652 -1.74199
427 1 46.617 25.8571 -0.154449 46.617 25.8571 -0.154449
428 2 48.5898 25.8516 1.43347 48.5898 25.8516 1.43347
429 2 48.5799 25.8614 -1.75461 48.5799 25.8614 -1.75461
430 1 49.4663 27.8599 -0.1572 49.4663 27.8599 -0.1572
431 2 51.438 27.8553 1.43216 51.438 27.8553 1.43216
432 2 51.4304 27.8637 -1.75591 51.4304 27.8637 -1.75591
433 1 1.02398 29.8629 -0.158694 1.02398 29.8629 -0.158694
434 2 2.99459 29.8593 1.43212 2.99459 29.8593 1.43212
435 2 2.98926 29.8659 -1.75595 2.98926 29.8659 -1.75595
436 1 3.87333 31.8661 -0.159221 3.87333 31.8661 -0.159221
437 2 5.84259 31.8642 1.43325 5.84259 31.8642 1.43325
438 2 5.83998 31.8676 -1.75484 5.83998 31.8676 -1.75484
439 1 6.72272 29.8625 -0.163718 6.72272 29.8625 -0.163718
440 2 8.69096 29.8614 1.43015 8.69096 29.8614 1.43015
441 2 8.69054 29.8643 -1.75801 8.69054 29.8643 -1.75801
442 1 9.5722 31.8662 -0.162335 9.5722 31.8662 -0.162335
443 2 11.5424 31.8674 1.42915 11.5424 31.8674 1.42915
444 2 11.538 31.8661 -1.75902 11.538 31.8661 -1.75902
445 1 12.4222 29.864 -0.165465 12.4222 29.864 -0.165465
446 2 14.3934 29.8663 1.42503 14.3934 29.8663 1.42503
447 2 14.3873 29.8634 -1.76316 14.3873 29.8634 -1.76316
448 1 15.2718 31.8682 -0.172474 15.2718 31.8682 -0.172474
449 2 17.2438 31.8717 1.41683 17.2438 31.8717 1.41683
450 2 17.2359 31.8663 -1.77138 17.2359 31.8663 -1.77138
451 1 18.1221 29.8666 -0.176023 18.1221 29.8666 -0.176023
452 2 20.0933 29.8716 1.41429 20.0933 29.8716 1.41429
453 2 20.0871 29.863 -1.7739 20.0871 29.863 -1.7739
454 1 20.9717 31.8705 -0.186722 20.9717 31.8705 -0.186722
455 2 22.9422 31.8749 1.40454 22.9422 31.8749 1.40454
456 2 22.9376 31.8673 -1.78369 22.9376 31.8673 -1.78369
457 1 23.822 29.8686 -0.185885 23.822 29.8686 -0.185885
458 2 25.7898 29.8744 1.40851 25.7898 29.8744 1.40851
459 2 25.7904 29.8634 -1.77968 25.7904 29.8634 -1.77968
460 1 26.6718 31.8719 -0.192077 26.6718 31.8719 -0.192077
461 2 28.6363 31.8761 1.40633 28.6363 31.8761 1.40633
462 2 28.6435 31.868 -1.78187 28.6435 31.868 -1.78187
463 1 29.5217 29.8692 -0.180571 29.5217 29.8692 -0.180571
464 2 31.4842 29.8731 1.42036 31.4842 29.8731 1.42036
465 2 31.4954 29.8653 -1.76779 31.4954 29.8653 -1.76779
466 1 32.3714 31.8722 -0.175414 32.3714 31.8722 -0.175414
467 2 34.3314 31.8733 1.42851 34.3314 31.8733 1.42851
468 2 34.3475 31.8708 -1.75961 34.3475 31.8708 -1.75961
469 1 35.221 29.8687 -0.159323 35.221 29.8687 -0.159323
470 2 37.1821 29.869 1.44305 37.1821 29.869 1.44305
471 2 37.196 29.8676 -1.74501 37.196 29.8676 -1.74501
472 1 38.0705 31.8715 -0.148056 38.0705 31.8715 -0.148056
473 2 40.0326 31.8683 1.45302 40.0326 31.8683 1.45302
474 2 40.0443 31.8738 -1.73502 40.0443 31.8738 -1.73502
475 1 40.9196 29.8671 -0.14114 40.9196 29.8671 -0.14114
476 2 42.8867 29.8626 1.45383 42.8867 29.8626 1.45383
477 2 42.8886 29.8702 -1.73417 42.8886 29.8702 -1.73417
478 1 43.7689 31.8699 -0.134996 43.7689 31.8699 -0.134996
479 2 45.7387 31.8643 1.45649 45.7387 31.8643 1.45649
480 2 45.7349 31.874 -1.7315 45.7349 31.874 -1.7315
481 1 46.6176 29.8648 -0.144702 46.6176 29.8648 -0.144702
482 2 48.5894 29.8598 1.44439 48.5894 29.8598 1.44439
483 2 48.5817 29.8684 -1.74359 48.5817 29.8684 -1.74359
484 1 49.4668 31.8677 -0.146398 49.4668 31.8677 -0.146398
485 2 51.4392 31.8636 1.44211 51.4392 31.8636 1.44211
486 2 51.4303 31.8704 -1.7459 51.4303 31.8704 -1.7459
487 1 1.02438 33.8705 -0.150035 1.02438 33.8705 -0.150035
488 2 2.99579 33.8677 1.43968 2.99579 33.8677 1.43968
489 2 2.98883 33.8724 -1.74835 2.98883 33.8724 -1.74835
490 1 3.87357 35.8735 -0.153455 3.87357 35.8735 -0.153455
491 2 5.84513 35.8736 1.43618 5.84513 35.8736 1.43618
492 2 5.83779 35.8727 -1.75189 5.83779 35.8727 -1.75189
493 1 6.72264 33.8694 -0.159491 6.72264 33.8694 -0.159491
494 2 8.69254 33.87 1.43228 8.69254 33.87 1.43228
495 2 8.68866 33.869 -1.75583 8.68866 33.869 -1.75583
496 1 9.57185 35.873 -0.163623 9.57185 35.873 -0.163623
497 2 11.5435 35.8757 1.42602 11.5435 35.8757 1.42602
498 2 11.5361 35.8706 -1.76213 11.5361 35.8706 -1.76213
499 1 12.4216 33.8702 -0.167054 12.4216 33.8702 -0.167054
500 2 14.3938 33.8723 1.42204 14.3938 33.8723 1.42204
501 2 14.3855 33.8694 -1.76615 14.3855 33.8694 -1.76615
502 1 15.271 35.874 -0.176359 15.271 35.874 -0.176359
503 2 17.2448 35.8774 1.41089 17.2448 35.8774 1.41089
504 2 17.2333 35.8717 -1.77736 17.2333 35.8717 -1.77736
505 1 18.1213 33.8722 -0.182786 18.1213 33.8722 -0.182786
506 2 20.0937 33.8755 1.40623 20.0937 33.8755 1.40623
507 2 20.0853 33.8703 -1.78201 20.0853 33.8703 -1.78201
508 1 20.971 35.8758 -0.193504 20.971 35.8758 -0.193504
509 2 22.942 35.8786 1.39717 22.942 35.8786 1.39717
510 2 22.9362 35.874 -1.79112 22.9362 35.874 -1.79112
511 1 23.8215 33.874 -0.195477 23.8215 33.874 -0.195477
512 2 25.7898 33.8772 1.39845 25.7898 33.8772 1.39845
513 2 25.7895 33.8718 -1.78979 25.7895 33.8718 -1.78979
514 1 26.6712 35.8773 -0.19898 26.6712 35.8773 -0.19898
515 2 28.6357 35.879 1.39953 28.6357 35.879 1.39953
516 2 28.6429 35.8762 -1.78872 28.6429 35.8762 -1.78872
517 1 29.5215 33.875 -0.190646 29.5215 33.875 -0.190646
518 2 31.4824 33.877 1.41219 31.4824 33.877 1.41219
519 2 31.4967 33.8733 -1.77598 31.4967 33.8733 -1.77598
520 1 32.3709 35.878 -0.180101 32.3709 35.878 -0.180101
521 2 34.3282 35.877 1.42687 34.3282 35.877 1.42687
522 2 34.3494 35.8792 -1.76128 34.3494 35.8792 -1.76128
523 1 35.2208 33.8751 -0.162597 35.2208 33.8751 -0.162597
524 2 37.1795 33.8734 1.44276 37.1795 33.8734 1.44276
525 2 37.1981 33.8766 -1.74532 37.1981 33.8766 -1.74532
526 1 38.0699 35.878 -0.144112 38.0699 35.878 -0.144112
527 2 40.0294 35.8737 1.46014 40.0294 35.8737 1.46014
528 2 40.0463 35.8818 -1.72798 40.0463 35.8818 -1.72798
529 1 40.9196 33.8743 -0.134411 40.9196 33.8743 -0.134411
530 2 42.8845 33.8693 1.46322 42.8845 33.8693 1.46322
531 2 42.8907 33.8785 -1.72482 42.8907 33.8785 -1.72482
532 1 43.7687 35.8771 -0.12353 43.7687 35.8771 -0.12353
533 2 45.7385 35.872 1.46828 45.7385 35.872 1.46828
534 2 45.7349 35.8811 -1.71981 45.7349 35.8811 -1.71981
535 1 46.618 33.8727 -0.132583 46.618 33.8727 -0.132583
536 2 48.5907 33.8679 1.4555 48.5907 33.8679 1.4555
537 2 48.5812 33.8761 -1.73249 48.5812 33.8761 -1.73249