ITEM: TIMESTEP
3281000
ITEM: NUMBER OF ATOMS
810
ITEM: BOX BOUNDS pp pp pp
8.6298438867990135e-01 5.2154620611319167e+01
-7.2882080914253047e+00 5.8304423091424880e+01
-1.0000000000000000e+01 1.0000000000000000e+01
ITEM: ATOMS id type x y z xu yu zu
1 1 1.07841 56.8039 -0.169703 1.07841 -8.7887 -0.169703
2 2 2.96591 56.8083 1.47677 2.96591 -8.78435 1.47677
3 2 2.99177 56.8004 -1.78532 2.99177 -8.79224 -1.78532
4 1 3.92795 -7.14045 -0.15044 3.92795 -7.14045 -0.15044
5 2 5.81802 -7.12758 1.49268 5.81802 -7.12758 1.49268
6 2 5.83831 -7.15477 -1.76925 5.83831 -7.15477 -1.76925
7 1 6.77731 56.8039 -0.118421 6.77731 -8.78876 -0.118421
8 2 8.67194 56.8112 1.51962 8.67194 -8.78138 1.51962
9 2 8.68365 56.7971 -1.74251 8.68365 -8.79549 -1.74251
10 1 9.62692 -7.14054 -0.115084 9.62692 -7.14054 -0.115084
11 2 11.5294 -7.12791 1.51342 11.5294 -7.12791 1.51342
12 2 11.525 -7.15484 -1.74857 11.525 -7.15484 -1.74857
13 1 12.4764 56.8036 -0.105088 12.4764 -8.78904 -0.105088
14 2 14.3891 56.8069 1.51143 14.3891 -8.78577 1.51143
15 2 14.3645 56.8008 -1.75067 14.3645 -8.79183 -1.75067
16 1 15.3259 -7.14097 -0.130084 15.3259 -7.14097 -0.130084
17 2 17.2366 -7.13991 1.48855 17.2366 -7.13991 1.48855
18 2 17.2155 -7.14377 -1.7735 17.2155 -7.14377 -1.7735
19 1 18.1752 56.8032 -0.146602 18.1752 -8.78947 -0.146602
20 2 20.0874 56.7981 1.47059 20.0874 -8.79449 1.47059
21 2 20.0637 56.8087 -1.79152 20.0637 -8.78392 -1.79152
22 1 21.0247 -7.14141 -0.162132 21.0247 -7.14141 -0.162132
23 2 22.9273 -7.14925 1.46621 22.9273 -7.14925 1.46621
24 2 22.9225 -7.13526 -1.79589 22.9225 -7.13526 -1.79589
25 1 23.8741 56.8028 -0.173303 23.8741 -8.78984 -0.173303
26 2 25.7721 56.7941 1.46083 25.7721 -8.79852 1.46083
27 2 25.777 56.812 -1.80134 25.777 -8.78061 -1.80134
28 1 26.7237 -7.14183 -0.159632 26.7237 -7.14183 -0.159632
29 2 28.6197 -7.14913 1.47645 28.6197 -7.14913 1.47645
30 2 28.6282 -7.13616 -1.78565 28.6282 -7.13616 -1.78565
31 1 29.5731 56.8025 -0.158781 29.5731 -8.79017 -0.158781
32 2 31.4696 56.7959 1.47701 31.4696 -8.79674 1.47701
33 2 31.4776 56.8098 -1.78517 31.4776 -8.78282 -1.78517
34 1 32.4228 -7.14203 -0.14461 32.4228 -7.14203 -0.14461
35 2 34.3247 -7.14618 1.48448 34.3247 -7.14618 1.48448
36 2 34.3214 -7.13913 -1.77764 34.3214 -7.13913 -1.77764
37 1 35.2724 56.8025 -0.151274 35.2724 -8.7901 -0.151274
38 2 37.1779 56.8 1.47385 37.1779 -8.79266 1.47385
39 2 37.1678 56.8063 -1.78835 37.1678 -8.78637 -1.78835
40 1 38.122 -7.14171 -0.156994 38.122 -7.14171 -0.156994
41 2 40.0297 -7.14427 1.46526 40.0297 -7.14427 1.46526
42 2 40.0148 -7.14006 -1.79683 40.0148 -7.14006 -1.79683
43 1 40.9716 56.8031 -0.172383 40.9716 -8.78958 -0.172383
44 2 42.8787 56.8032 1.45094 42.8787 -8.78941 1.45094
45 2 42.8655 56.8042 -1.81124 42.8655 -8.78842 -1.81124
46 1 43.8213 -7.14107 -0.183518 43.8213 -7.14107 -0.183518
47 2 45.7252 -7.14202 1.44322 45.7252 -7.14202 1.44322
48 2 45.7178 -7.14101 -1.81888 45.7178 -7.14101 -1.81888
49 1 46.6709 56.8036 -0.190457 46.6709 -8.78899 -0.190457
50 2 48.5689 56.8046 1.44366 48.5689 -8.78801 1.44366
51 2 48.5738 56.8038 -1.81854 48.5738 -8.78882 -1.81854
52 1 49.5205 -7.14057 -0.186278 49.5205 -7.14057 -0.186278
53 2 51.4147 -7.13573 1.45209 51.4147 -7.13573 1.45209
54 2 51.4269 -7.14662 -1.80999 51.4269 -7.14662 -1.80999
55 1 1.07855 -5.49397 -0.180693 1.07855 -5.49397 -0.180693
56 2 2.9721 -5.47484 1.45907 2.9721 -5.47484 1.45907
57 2 2.98694 -5.50886 -1.80306 2.98694 -5.50886 -1.80306
58 1 3.93215 -3.84393 -0.184539 3.93215 -3.84393 -0.184539
59 2 5.81111 -3.82954 1.45642 5.81111 -3.82954 1.45642
60 2 5.8262 -3.87895 -1.8065 5.8262 -3.87895 -1.8065
61 1 6.77759 -5.49398 -0.145934 6.77759 -5.49398 -0.145934
62 2 8.67576 -5.46639 1.48821 8.67576 -5.46639 1.48821
63 2 8.68133 -5.51747 -1.77371 8.68133 -5.51747 -1.77371
64 1 9.63116 -3.84412 -0.167014 9.63116 -3.84412 -0.167014
65 2 11.5146 -3.82585 1.46824 11.5146 -3.82585 1.46824
66 2 11.5206 -3.88305 -1.7946 11.5206 -3.88305 -1.7946
67 1 12.4765 -5.49419 -0.132611 12.4765 -5.49419 -0.132611
68 2 14.3843 -5.47814 1.49038 14.3843 -5.47814 1.49038
69 2 14.3706 -5.50636 -1.7718 14.3706 -5.50636 -1.7718
70 1 15.3301 -3.84435 -0.15941 15.3301 -3.84435 -0.15941
71 2 17.2179 -3.8438 1.47043 17.2179 -3.8438 1.47043
72 2 17.2151 -3.86571 -1.79286 17.2151 -3.86571 -1.79286
73 1 18.1754 -5.49467 -0.150793 18.1754 -5.49467 -0.150793
74 2 20.0807 -5.49663 1.47536 20.0807 -5.49663 1.47536
75 2 20.072 -5.48877 -1.78697 20.072 -5.48877 -1.78697
76 1 21.029 -3.84476 -0.15463 21.029 -3.84476 -0.15463
77 2 22.9147 -3.86093 1.47758 22.9147 -3.86093 1.47758
78 2 22.9162 -3.84948 -1.78576 22.9162 -3.84948 -1.78576
79 1 23.8744 -5.49513 -0.159121 23.8744 -5.49513 -0.159121
80 2 25.7708 -5.50172 1.47757 25.7708 -5.50172 1.47757
81 2 25.7798 -5.48461 -1.78472 25.7798 -5.48461 -1.78472
82 1 26.7279 -3.84526 -0.142106 26.7279 -3.84526 -0.142106
83 2 28.6137 -3.86018 1.49023 28.6137 -3.86018 1.49023
84 2 28.615 -3.85116 -1.77312 28.615 -3.85116 -1.77312
85 1 29.5734 -5.49553 -0.145397 29.5734 -5.49553 -0.145397
86 2 31.4723 -5.49618 1.48824 31.4723 -5.49618 1.48824
87 2 31.4763 -5.4907 -1.7741 31.4763 -5.4907 -1.7741
88 1 32.4269 -3.84548 -0.138818 32.4269 -3.84548 -0.138818
89 2 34.3177 -3.85334 1.48789 34.3177 -3.85334 1.48789
90 2 34.3091 -3.85807 -1.77546 34.3091 -3.85807 -1.77546
91 1 35.2725 -5.49549 -0.143901 35.2725 -5.49549 -0.143901
92 2 37.1799 -5.49499 1.47975 37.1799 -5.49499 1.47975
93 2 37.167 -5.4914 -1.78257 37.167 -5.4914 -1.78257
94 1 38.126 -3.84518 -0.153436 38.126 -3.84518 -0.153436
95 2 40.0203 -3.85603 1.46901 40.0203 -3.85603 1.46901
96 2 40.0046 -3.85444 -1.79429 40.0046 -3.85444 -1.79429
97 1 40.9717 -5.49495 -0.168031 40.9717 -5.49495 -0.168031
98 2 42.8792 -5.49645 1.45544 42.8792 -5.49645 1.45544
99 2 42.8661 -5.48865 -1.80686 42.8661 -5.48865 -1.80686
100 1 43.8252 -3.84451 -0.175685 43.8252 -3.84451 -0.175685
101 2 45.7169 -3.8591 1.44986 45.7169 -3.8591 1.44986
102 2 45.7066 -3.8499 -1.81343 45.7066 -3.8499 -1.81343
103 1 46.6709 -5.49427 -0.189436 46.6709 -5.49427 -0.189436
104 2 48.5707 -5.49101 1.44323 48.5707 -5.49101 1.44323
105 2 48.5732 -5.49295 -1.8191 48.5732 -5.49295 -1.8191
106 1 49.5245 -3.84395 -0.188023 49.5245 -3.84395 -0.188023
107 2 51.4094 -3.84981 1.44574 51.4094 -3.84981 1.44574
108 2 51.4127 -3.85843 -1.81756 51.4127 -3.85843 -1.81756
109 1 1.04847 -2.21059 -0.18909 1.04847 -2.21059 -0.18909
110 2 3.02024 -2.17199 1.40317 3.02024 -2.17199 1.40317
111 2 3.00073 -2.21397 -1.80484 3.00073 -2.21397 -1.80484
112 1 3.8612 -0.484389 -0.227786 3.8612 -0.484389 -0.227786
113 2 5.64161 -0.768013 1.46909 5.64161 -0.768013 1.46909
114 2 5.63813 -0.837764 -1.91443 5.63813 -0.837764 -1.91443
115 1 6.74769 -2.21088 -0.194854 6.74769 -2.21088 -0.194854
116 2 8.71141 -2.16351 1.40688 8.71141 -2.16351 1.40688
117 2 8.70791 -2.22304 -1.80091 8.70791 -2.22304 -1.80091
118 1 9.56036 -0.484772 -0.229533 9.56036 -0.484772 -0.229533
119 2 11.3379 -0.766841 1.47034 11.3379 -0.766841 1.47034
120 2 11.3401 -0.839519 -1.91305 11.3401 -0.839519 -1.91305
121 1 12.4466 -2.21124 -0.190016 12.4466 -2.21124 -0.190016
122 2 14.4004 -2.17792 1.4238 14.4004 -2.17792 1.4238
123 2 14.4167 -2.20892 -1.78436 14.4167 -2.20892 -1.78436
124 1 15.2592 -0.484641 -0.192901 15.2592 -0.484641 -0.192901
125 2 17.0329 -0.792487 1.50625 17.0329 -0.792487 1.50625
126 2 17.0427 -0.813892 -1.87796 17.0427 -0.813892 -1.87796
127 1 18.1456 -2.21136 -0.173325 18.1456 -2.21136 -0.173325
128 2 20.0951 -2.19687 1.4457 20.0951 -2.19687 1.4457
129 2 20.1198 -2.19053 -1.76255 20.1198 -2.19053 -1.76255
130 1 20.9581 -0.484908 -0.148973 20.9581 -0.484908 -0.148973
131 2 22.729 -0.815533 1.54865 22.729 -0.815533 1.54865
132 2 22.7444 -0.791592 -1.83553 22.7444 -0.791592 -1.83553
133 1 23.8445 -2.21179 -0.148394 23.8445 -2.21179 -0.148394
134 2 25.8005 -2.19785 1.46271 25.8005 -2.19785 1.46271
135 2 25.8123 -2.19056 -1.7456 25.8123 -2.19056 -1.7456
136 1 26.6571 -0.485412 -0.134583 26.6571 -0.485412 -0.134583
137 2 28.4319 -0.812224 1.55979 28.4319 -0.812224 1.55979
138 2 28.4394 -0.795947 -1.82451 28.4394 -0.795947 -1.82451
139 1 29.5434 -2.21226 -0.136848 29.5434 -2.21226 -0.136848
140 2 31.5084 -2.19054 1.46327 31.5084 -2.19054 1.46327
141 2 31.5021 -2.19847 -1.74507 31.5021 -2.19847 -1.74507
142 1 32.3559 -0.485645 -0.146752 32.3559 -0.485645 -0.146752
143 2 34.1379 -0.800424 1.5425 34.1379 -0.800424 1.5425
144 2 34.131 -0.807899 -1.84183 34.131 -0.807899 -1.84183
145 1 35.2423 -2.21224 -0.148696 35.2423 -2.21224 -0.148696
146 2 37.2074 -2.19312 1.45141 37.2074 -2.19312 1.45141
147 2 37.201 -2.19552 -1.75694 37.201 -2.19552 -1.75694
148 1 38.0547 -0.485399 -0.15591 38.0547 -0.485399 -0.15591
149 2 39.8385 -0.805451 1.5304 39.8385 -0.805451 1.5304
150 2 39.8281 -0.802127 -1.85399 39.8281 -0.802127 -1.85399
151 1 40.9414 -2.21168 -0.166453 40.9414 -2.21168 -0.166453
152 2 42.9057 -2.19837 1.43473 42.9057 -2.19837 1.43473
153 2 42.901 -2.189 -1.77359 42.901 -2.189 -1.77359
154 1 43.7538 -0.484775 -0.16584 43.7538 -0.484775 -0.16584
155 2 45.5363 -0.810525 1.5208 45.5363 -0.810525 1.5208
156 2 45.5286 -0.795667 -1.86357 45.5286 -0.795667 -1.86357
157 1 46.6407 -2.21092 -0.180196 46.6407 -2.21092 -0.180196
158 2 48.6077 -2.19198 1.41791 48.6077 -2.19198 1.41791
159 2 48.5977 -2.1941 -1.79041 48.5977 -2.1941 -1.79041
160 1 49.4534 -0.484196 -0.189833 49.4534 -0.484196 -0.189833
161 2 51.2343 -0.797734 1.50089 51.2343 -0.797734 1.50089
162 2 51.2297 -0.807555 -1.88348 51.2297 -0.807555 -1.88348
163 1 1.0033 17.1841 -0.174181 1.0033 17.1841 -0.174181
164 2 2.78392 17.511 1.51444 2.78392 17.511 1.51444
165 2 2.77991 17.494 -1.8697 2.77991 17.494 -1.8697
166 1 3.88953 18.9108 -0.185946 3.88953 18.9108 -0.185946
167 2 5.84632 18.9107 1.4246 5.84632 18.9107 1.4246
168 2 5.8562 18.875 -1.78355 5.8562 18.875 -1.78355
169 1 6.70147 17.1839 -0.157779 6.70147 17.1839 -0.157779
170 2 8.47644 17.5221 1.53434 8.47644 17.5221 1.53434
171 2 8.48383 17.4823 -1.84964 8.48383 17.4823 -1.84964
172 1 9.58805 18.9102 -0.171842 9.58805 18.9102 -0.171842
173 2 11.5469 18.9162 1.43608 11.5469 18.9162 1.43608
174 2 11.5528 18.8683 -1.7719 11.5528 18.8683 -1.7719
175 1 12.4001 17.1834 -0.140764 12.4001 17.1834 -0.140764
176 2 14.1771 17.5283 1.5479 14.1771 17.5283 1.5479
177 2 14.1804 17.475 -1.83604 14.1804 17.475 -1.83604
178 1 15.287 18.9093 -0.165238 15.287 18.9093 -0.165238
179 2 17.2466 18.9182 1.44207 17.2466 18.9182 1.44207
180 2 17.2513 18.8644 -1.7658 17.2513 18.8644 -1.7658
181 1 18.0993 17.1825 -0.131747 18.0993 17.1825 -0.131747
182 2 19.874 17.5266 1.55952 19.874 17.5266 1.55952
183 2 19.8818 17.475 -1.82454 19.8818 17.475 -1.82454
184 1 20.9864 18.9083 -0.151871 20.9864 18.9083 -0.151871
185 2 22.9489 18.9012 1.45212 22.9489 18.9012 1.45212
186 2 22.9482 18.8796 -1.75611 22.9482 18.8796 -1.75611
187 1 23.7991 17.1815 -0.140263 23.7991 17.1815 -0.140263
188 2 25.5741 17.505 1.55496 25.5741 17.505 1.55496
189 2 25.5814 17.495 -1.82953 25.5814 17.495 -1.82953
190 1 26.6862 18.9077 -0.139506 26.6862 18.9077 -0.139506
191 2 28.6529 18.8808 1.45917 28.6529 18.8808 1.45917
192 2 28.6439 18.8995 -1.74907 28.6439 18.8995 -1.74907
193 1 29.4993 17.1814 -0.156941 29.4993 17.1814 -0.156941
194 2 31.2777 17.4827 1.53888 31.2777 17.4827 1.53888
195 2 31.2781 17.5175 -1.84535 31.2781 17.5175 -1.84535
196 1 32.386 18.9081 -0.138601 32.386 18.9081 -0.138601
197 2 34.3458 18.878 1.46816 34.3458 18.878 1.46816
198 2 34.3505 18.9034 -1.74004 34.3505 18.9034 -1.74004
199 1 35.1991 17.1821 -0.148482 35.1991 17.1821 -0.148482
200 2 36.977 17.49 1.54637 36.977 17.49 1.54637
201 2 36.9784 17.5118 -1.83795 36.9784 17.5118 -1.83795
202 1 38.0855 18.9091 -0.136045 38.0855 18.9091 -0.136045
203 2 40.0431 18.8875 1.47288 40.0431 18.8875 1.47288
204 2 40.0518 18.8958 -1.73542 40.0518 18.8958 -1.73542
205 1 40.8983 17.1829 -0.133972 40.8983 17.1829 -0.133972
206 2 42.6805 17.5098 1.55238 42.6805 17.5098 1.55238
207 2 42.6732 17.4935 -1.8318 42.6732 17.4935 -1.8318
208 1 43.7844 18.9101 -0.148727 43.7844 18.9101 -0.148727
209 2 45.7542 18.8982 1.44558 45.7542 18.8982 1.44558
210 2 45.7382 18.8869 -1.76272 45.7382 18.8869 -1.76272
211 1 46.5968 17.1837 -0.156788 46.5968 17.1837 -0.156788
212 2 48.3844 17.5102 1.52441 48.3844 17.5102 1.52441
213 2 48.3664 17.4945 -1.8597 48.3664 17.4945 -1.8597
214 1 49.4828 18.9108 -0.179817 49.4828 18.9108 -0.179817
215 2 51.4501 18.9067 1.41805 51.4501 18.9067 1.41805
216 2 51.439 18.8793 -1.79018 51.439 18.8793 -1.79018
217 1 1.07453 20.5439 -0.203013 1.07453 20.5439 -0.203013
218 2 2.95833 20.566 1.43181 2.95833 20.566 1.43181
219 2 2.96341 20.5425 -1.8315 2.96341 20.5425 -1.8315
220 1 3.9201 22.194 -0.210594 3.9201 22.194 -0.210594
221 2 5.81698 22.2005 1.42506 5.81698 22.2005 1.42506
222 2 5.82491 22.1831 -1.83725 5.82491 22.1831 -1.83725
223 1 6.77312 20.5436 -0.195041 6.77312 20.5436 -0.195041
224 2 8.65548 20.5703 1.44095 8.65548 20.5703 1.44095
225 2 8.66347 20.5372 -1.82226 8.66347 20.5372 -1.82226
226 1 9.61889 22.1934 -0.205136 9.61889 22.1934 -0.205136
227 2 11.518 22.2023 1.42782 11.518 22.2023 1.42782
228 2 11.5216 22.1797 -1.83445 11.5216 22.1797 -1.83445
229 1 12.4719 20.5429 -0.190952 12.4719 20.5429 -0.190952
230 2 14.3565 20.5756 1.44235 14.3565 20.5756 1.44235
231 2 14.3603 20.5301 -1.82067 14.3603 20.5301 -1.82067
232 1 15.318 22.1924 -0.211146 15.318 22.1924 -0.211146
233 2 17.214 22.2043 1.42544 17.214 22.2043 1.42544
234 2 17.2239 22.1756 -1.83673 17.2239 22.1756 -1.83673
235 1 18.1712 20.5418 -0.188202 18.1712 20.5418 -0.188202
236 2 20.0496 20.5738 1.45264 20.0496 20.5738 1.45264
237 2 20.0658 20.5298 -1.81031 20.0658 20.5298 -1.81031
238 1 21.0174 22.1914 -0.196272 21.0174 22.1914 -0.196272
239 2 22.9037 22.196 1.45188 22.9037 22.196 1.45188
240 2 22.933 22.1825 -1.81026 22.933 22.1825 -1.81026
241 1 23.8707 20.5411 -0.163405 23.8707 20.5411 -0.163405
242 2 25.747 20.5569 1.48035 25.747 20.5569 1.48035
243 2 25.7675 20.5457 -1.78283 25.7675 20.5457 -1.78283
244 1 26.7168 22.1911 -0.150804 26.7168 22.1911 -0.150804
245 2 28.6081 22.185 1.49158 28.6081 22.185 1.49158
246 2 28.6274 22.1933 -1.77065 28.6274 22.1933 -1.77065
247 1 29.5703 20.5411 -0.137818 29.5703 20.5411 -0.137818
248 2 31.4517 20.5409 1.5003 31.4517 20.5409 1.5003
249 2 31.4622 20.5622 -1.76289 31.4622 20.5622 -1.76289
250 1 32.4162 22.1915 -0.11746 32.4162 22.1915 -0.11746
251 2 34.3171 22.1855 1.51391 34.3171 22.1855 1.51391
252 2 34.3174 22.1939 -1.74839 34.3174 22.1939 -1.74839
253 1 35.2698 20.5418 -0.121443 35.2698 20.5418 -0.121443
254 2 37.1587 20.5422 1.5075 37.1587 20.5422 1.5075
255 2 37.154 20.5627 -1.75575 37.154 20.5627 -1.75575
256 1 38.1155 22.1924 -0.114925 38.1155 22.1924 -0.114925
257 2 40.023 22.1922 1.50878 40.023 22.1922 1.50878
258 2 40.01 22.1893 -1.75352 40.01 22.1893 -1.75352
259 1 40.969 20.5428 -0.124836 40.969 20.5428 -0.124836
260 2 42.8689 20.5544 1.49056 42.8689 20.5544 1.49056
261 2 42.8419 20.5526 -1.77269 42.8419 20.5526 -1.77269
262 1 43.8144 22.1934 -0.149653 43.8144 22.1934 -0.149653
263 2 45.729 22.1964 1.46545 45.729 22.1964 1.46545
264 2 45.7015 22.1869 -1.79678 45.7015 22.1869 -1.79678
265 1 46.6677 20.5437 -0.169028 46.6677 20.5437 -0.169028
266 2 48.5651 20.5626 1.44956 48.5651 20.5626 1.44956
267 2 48.5428 20.5458 -1.81373 48.5428 20.5458 -1.81373
268 1 49.513 22.194 -0.197343 49.513 22.194 -0.197343
269 2 51.4212 22.1994 1.4251 51.4212 22.1994 1.4251
270 2 51.4065 22.1846 -1.8372 51.4065 22.1846 -1.8372
271 1 1.07094 23.8406 -0.217879 1.07094 23.8406 -0.217879
272 2 2.96897 23.8447 1.41576 2.96897 23.8447 1.41576
273 2 2.97327 23.8379 -1.84638 2.97327 23.8379 -1.84638
274 1 3.92075 25.4887 -0.217657 3.92075 25.4887 -0.217657
275 2 5.81407 25.4809 1.42163 5.81407 25.4809 1.42163
276 2 5.82827 25.4956 -1.84053 5.82827 25.4956 -1.84053
277 1 6.76981 23.8403 -0.212862 6.76981 23.8403 -0.212862
278 2 8.66524 23.8407 1.42349 8.66524 23.8407 1.42349
279 2 8.67471 23.8409 -1.83864 8.67471 23.8409 -1.83864
280 1 9.6197 25.4881 -0.204878 9.6197 25.4881 -0.204878
281 2 11.5186 25.4767 1.42758 11.5186 25.4767 1.42758
282 2 11.5217 25.4983 -1.83455 11.5217 25.4983 -1.83455
283 1 12.4688 23.8394 -0.213922 12.4688 23.8394 -0.213922
284 2 14.3683 23.8419 1.41762 14.3683 23.8419 1.41762
285 2 14.3698 23.8378 -1.84448 14.3698 23.8378 -1.84448
286 1 15.3188 25.4872 -0.215134 15.3188 25.4872 -0.215134
287 2 17.2163 25.4795 1.41918 17.2163 25.4795 1.41918
288 2 17.2223 25.4936 -1.84295 17.2223 25.4936 -1.84295
289 1 18.168 23.8384 -0.217505 18.168 23.8384 -0.217505
290 2 20.0582 23.8424 1.42526 20.0582 23.8424 1.42526
291 2 20.0785 23.8354 -1.83675 20.0785 23.8354 -1.83675
292 1 21.0181 25.4863 -0.20327 21.0181 25.4863 -0.20327
293 2 22.903 25.4838 1.44611 22.903 25.4838 1.44611
294 2 22.9342 25.4877 -1.81591 22.9342 25.4877 -1.81591
295 1 23.8673 23.8378 -0.177663 23.8673 23.8378 -0.177663
296 2 25.7531 23.8397 1.47035 25.7531 23.8397 1.47035
297 2 25.7821 23.8372 -1.7916 25.7821 23.8372 -1.7916
298 1 26.7173 25.4859 -0.153215 26.7173 25.4859 -0.153215
299 2 28.6069 25.49 1.49062 28.6069 25.49 1.49062
300 2 28.6287 25.4814 -1.77147 28.6287 25.4814 -1.77147
301 1 29.5666 23.8378 -0.129652 29.5666 23.8378 -0.129652
302 2 31.4613 23.841 1.50797 31.4613 23.841 1.50797
303 2 31.4725 23.8365 -1.75409 31.4725 23.8365 -1.75409
304 1 32.4165 25.4864 -0.121958 32.4165 25.4864 -0.121958
305 2 34.3173 25.4958 1.50881 34.3173 25.4958 1.50881
306 2 34.3168 25.477 -1.75331 34.3168 25.477 -1.75331
307 1 35.2659 23.8385 -0.112779 35.2659 23.8385 -0.112779
308 2 37.1691 23.8424 1.51494 37.1691 23.8424 1.51494
309 2 37.1633 23.8368 -1.74714 37.1633 23.8368 -1.74714
310 1 38.1157 25.4873 -0.120722 38.1157 25.4873 -0.120722
311 2 40.024 25.4939 1.50128 40.024 25.4939 1.50128
312 2 40.0084 25.4807 -1.76086 40.0084 25.4807 -1.76086
313 1 40.9651 23.8395 -0.127646 40.9651 23.8395 -0.127646
314 2 42.8785 23.842 1.48774 42.8785 23.842 1.48774
315 2 42.852 23.8392 -1.77428 42.852 23.8392 -1.77428
316 1 43.8147 25.4882 -0.152633 43.8147 25.4882 -0.152633
317 2 45.7302 25.4892 1.46051 45.7302 25.4892 1.46051
318 2 45.6999 25.487 -1.80156 45.6999 25.487 -1.80156
319 1 46.6638 23.8403 -0.178451 46.6638 23.8403 -0.178451
320 2 48.5769 23.8451 1.43734 48.5769 23.8451 1.43734
321 2 48.551 23.8374 -1.8247 48.551 23.8374 -1.8247
322 1 49.5134 25.4887 -0.205306 49.5134 25.4887 -0.205306
323 2 51.4198 25.4865 1.41873 51.4198 25.4865 1.41873
324 2 51.4079 25.4904 -1.84347 51.4079 25.4904 -1.84347
325 1 1.0717 27.1364 -0.213976 1.0717 27.1364 -0.213976
326 2 2.96827 27.1263 1.42162 2.96827 27.1263 1.42162
327 2 2.97592 27.1467 -1.84054 2.97592 27.1467 -1.84054
328 1 3.92169 28.7843 -0.19682 3.92169 28.7843 -0.19682
329 2 5.81258 28.7664 1.44544 5.81258 28.7664 1.44544
330 2 5.8317 28.8018 -1.81647 5.8317 28.8018 -1.81647
331 1 6.77072 27.136 -0.197965 6.77072 27.136 -0.197965
332 2 8.66452 27.1182 1.44056 8.66452 27.1182 1.44056
333 2 8.67765 27.1537 -1.82145 8.67765 27.1537 -1.82145
334 1 9.62071 28.7836 -0.168579 9.62071 28.7836 -0.168579
335 2 11.5208 28.7603 1.46263 11.5208 28.7603 1.46263
336 2 11.5216 28.8062 -1.79919 11.5216 28.8062 -1.79919
337 1 12.4698 27.1352 -0.19166 12.4698 27.1352 -0.19166
338 2 14.3724 27.1165 1.4364 14.3724 27.1165 1.4364
339 2 14.368 27.1537 -1.82559 14.368 27.1537 -1.82559
340 1 15.3198 28.7827 -0.176913 15.3198 28.7827 -0.176913
341 2 17.2229 28.7617 1.45093 17.2229 28.7617 1.45093
342 2 17.2178 28.8032 -1.81093 17.2178 28.8032 -1.81093
343 1 18.169 27.1344 -0.202854 18.169 27.1344 -0.202854
344 2 20.0624 27.1219 1.43637 20.0624 27.1219 1.43637
345 2 20.0765 27.1466 -1.8257 20.0765 27.1466 -1.8257
346 1 21.019 28.782 -0.177768 21.019 28.782 -0.177768
347 2 22.9113 28.7719 1.46291 22.9113 28.7719 1.46291
348 2 22.9277 28.7918 -1.79911 22.9277 28.7918 -1.79911
349 1 23.8681 27.1337 -0.173643 23.8681 27.1337 -0.173643
350 2 25.7564 27.1329 1.47164 25.7564 27.1329 1.47164
351 2 25.7807 27.1346 -1.79047 25.7807 27.1346 -1.79047
352 1 26.7181 28.7817 -0.15128 26.7181 28.7817 -0.15128
353 2 28.6152 28.7889 1.48366 28.6152 28.7889 1.48366
354 2 28.622 28.7747 -1.77843 28.622 28.7747 -1.77843
355 1 29.5673 27.1337 -0.138258 29.5673 27.1337 -0.138258
356 2 31.4656 27.1464 1.49527 31.4656 27.1464 1.49527
357 2 31.4699 27.1218 -1.76682 31.4699 27.1218 -1.76682
358 1 32.4172 28.7821 -0.146997 32.4172 28.7821 -0.146997
359 2 34.3192 28.7996 1.48221 34.3192 28.7996 1.48221
360 2 34.3163 28.7652 -1.77973 34.3163 28.7652 -1.77973
361 1 35.2664 27.1344 -0.131969 35.2664 27.1344 -0.131969
362 2 37.1687 27.149 1.49697 37.1687 27.149 1.49697
363 2 37.165 27.1209 -1.76511 37.165 27.1209 -1.76511
364 1 38.1163 28.7829 -0.149609 38.1163 28.7829 -0.149609
365 2 40.0179 28.7933 1.48012 40.0179 28.7933 1.48012
366 2 40.0156 28.7733 -1.78196 40.0156 28.7733 -1.78196
367 1 40.9655 27.1353 -0.141196 40.9655 27.1353 -0.141196
368 2 42.8747 27.1398 1.47956 42.8747 27.1398 1.47956
369 2 42.8571 27.1319 -1.78261 42.8571 27.1319 -1.78261
370 1 43.8153 28.7838 -0.160905 43.8153 28.7838 -0.160905
371 2 45.7253 28.7812 1.45889 45.7253 28.7812 1.45889
372 2 45.7063 28.7869 -1.80321 45.7063 28.7869 -1.80321
373 1 46.6644 27.136 -0.180629 46.6644 27.136 -0.180629
374 2 48.5764 27.1324 1.43671 48.5764 27.1324 1.43671
375 2 48.5531 27.1404 -1.82543 48.5531 27.1404 -1.82543
376 1 49.5143 28.7843 -0.197157 49.5143 28.7843 -0.197157
377 2 51.4182 28.7738 1.42988 51.4182 28.7738 1.42988
378 2 51.4113 28.795 -1.83221 51.4113 28.795 -1.83221
379 1 1.07268 30.4323 -0.192274 1.07268 30.4323 -0.192274
380 2 2.96756 30.418 1.44549 2.96756 30.418 1.44549
381 2 2.97877 30.4468 -1.81652 2.97877 30.4468 -1.81652
382 1 3.92274 32.0803 -0.167376 3.92274 32.0803 -0.167376
383 2 5.81385 32.069 1.47495 5.81385 32.069 1.47495
384 2 5.83263 32.0913 -1.78702 5.83263 32.0913 -1.78702
385 1 6.7717 30.4319 -0.161809 6.7717 30.4319 -0.161809
386 2 8.66519 30.4129 1.47746 8.66519 30.4129 1.47746
387 2 8.67919 30.4505 -1.78442 8.67919 30.4505 -1.78442
388 1 9.62177 32.0796 -0.130121 9.62177 32.0796 -0.130121
389 2 11.523 32.0662 1.50019 11.523 32.0662 1.50019
390 2 11.5217 32.0926 -1.76179 11.5217 32.0926 -1.76179
391 1 12.4708 30.431 -0.144632 12.4708 30.431 -0.144632
392 2 14.3771 30.4094 1.47943 14.3771 30.4094 1.47943
393 2 14.3656 30.4523 -1.78239 14.3656 30.4523 -1.78239
394 1 15.3209 32.0788 -0.132944 15.3209 32.0788 -0.132944
395 2 17.2277 32.0625 1.49085 17.2277 32.0625 1.49085
396 2 17.2153 32.0948 -1.77105 17.2153 32.0948 -1.77105
397 1 18.1699 30.4303 -0.160215 18.1699 30.4303 -0.160215
398 2 20.0703 30.4128 1.471 20.0703 30.4128 1.471
399 2 20.0706 30.4476 -1.79093 20.0706 30.4476 -1.79093
400 1 21.02 32.0783 -0.142053 21.02 32.0783 -0.142053
401 2 22.9199 32.0665 1.48981 22.9199 32.0665 1.48981
402 2 22.9212 32.0899 -1.77219 22.9212 32.0899 -1.77219
403 1 23.869 30.4299 -0.152951 23.869 30.4299 -0.152951
404 2 25.7663 30.4263 1.48183 25.7663 30.4263 1.48183
405 2 25.7727 30.4336 -1.78027 25.7727 30.4336 -1.78027
406 1 26.719 32.0781 -0.143549 26.719 32.0781 -0.143549
407 2 28.6255 32.0802 1.48032 28.6255 32.0802 1.48032
408 2 28.6136 32.0764 -1.78174 28.6136 32.0764 -1.78174
409 1 29.5681 30.4299 -0.152561 29.5681 30.4299 -0.152561
410 2 31.4726 30.4428 1.47363 31.4726 30.4428 1.47363
411 2 31.4647 30.4177 -1.78838 31.4647 30.4177 -1.78838
412 1 32.418 32.0784 -0.172457 32.418 32.0784 -0.172457
413 2 34.3225 32.0907 1.45388 34.3225 32.0907 1.45388
414 2 34.3147 32.0669 -1.8081 34.3147 32.0669 -1.8081
415 1 35.2671 30.4305 -0.167232 35.2671 30.4305 -0.167232
416 2 37.1663 30.4457 1.46535 37.1663 30.4457 1.46535
417 2 37.169 30.4162 -1.79663 37.169 30.4162 -1.79663
418 1 38.1171 32.0792 -0.180044 38.1171 32.0792 -0.180044
419 2 40.0111 32.0858 1.45869 40.0111 32.0858 1.45869
420 2 40.0242 32.0735 -1.80336 40.0242 32.0735 -1.80336
421 1 40.9662 30.4314 -0.162048 40.9662 30.4314 -0.162048
422 2 42.8672 30.4338 1.46835 42.8672 30.4338 1.46835
423 2 42.8662 30.4299 -1.79378 42.8662 30.4299 -1.79378
424 1 43.8162 32.08 -0.16521 43.8162 32.08 -0.16521
425 2 45.7188 32.0744 1.46331 45.7188 32.0744 1.46331
426 2 45.7147 32.0863 -1.79878 45.7147 32.0863 -1.79878
427 1 46.6653 30.4321 -0.174943 46.6653 30.4321 -0.174943
428 2 48.5729 30.4231 1.44754 48.5729 30.4231 1.44754
429 2 48.5585 30.4417 -1.81452 48.5585 30.4417 -1.81452
430 1 49.5153 32.0804 -0.178222 49.5153 32.0804 -0.178222
431 2 51.4175 32.0695 1.45094 51.4175 32.0695 1.45094
432 2 51.4142 32.0917 -1.81109 51.4142 32.0917 -1.81109
433 1 1.07377 33.7287 -0.169526 1.07377 33.7287 -0.169526
434 2 2.97034 33.7235 1.46648 2.97034 33.7235 1.46648
435 2 2.97829 33.7338 -1.79559 2.97829 33.7338 -1.79559
436 1 3.92389 35.3768 -0.156678 3.92389 35.3768 -0.156678
437 2 5.81829 35.3831 1.48191 5.81829 35.3831 1.48191
438 2 5.83061 35.3705 -1.78011 5.83061 35.3705 -1.78011
439 1 6.7728 33.7283 -0.138941 6.7728 33.7283 -0.138941
440 2 8.66758 33.7264 1.49917 8.66758 33.7264 1.49917
441 2 8.67916 33.7299 -1.76288 8.67916 33.7299 -1.76288
442 1 9.62293 35.3763 -0.126593 9.62293 35.3763 -0.126593
443 2 11.5233 35.384 1.50491 11.5233 35.384 1.50491
444 2 11.5238 35.3683 -1.7571 11.5238 35.3683 -1.7571
445 1 12.4719 33.7275 -0.117724 12.4719 33.7275 -0.117724
446 2 14.3782 33.7219 1.50675 14.3782 33.7219 1.50675
447 2 14.3668 33.7327 -1.75527 14.3668 33.7327 -1.75527
448 1 15.322 35.3756 -0.122171 15.322 35.3756 -0.122171
449 2 17.2258 35.3756 1.50522 17.2258 35.3756 1.50522
450 2 17.2194 35.3752 -1.75682 17.2194 35.3752 -1.75682
451 1 18.171 33.7268 -0.127286 18.171 33.7268 -0.127286
452 2 20.0741 33.7164 1.50097 20.0741 33.7164 1.50097
453 2 20.0691 33.7371 -1.76102 20.0691 33.7371 -1.76102
454 1 21.021 35.375 -0.120949 21.021 35.375 -0.120949
455 2 22.9226 35.3688 1.50911 22.9226 35.3688 1.50911
456 2 22.9207 35.3812 -1.7529 22.9207 35.3812 -1.7529
457 1 23.87 33.7264 -0.12881 23.87 33.7264 -0.12881
458 2 25.7751 33.7201 1.49692 25.7751 33.7201 1.49692
459 2 25.7661 33.733 -1.7651 25.7661 33.733 -1.7651
460 1 26.7201 35.3749 -0.13014 26.7201 35.3749 -0.13014
461 2 28.6325 35.3705 1.48674 28.6325 35.3705 1.48674
462 2 28.6088 35.3796 -1.7752 28.6088 35.3796 -1.7752
463 1 29.569 33.7266 -0.156066 29.569 33.7266 -0.156066
464 2 31.4805 33.73 1.46191 31.4805 33.73 1.46191
465 2 31.4587 33.7237 -1.80007 31.4587 33.7237 -1.80007
466 1 32.419 35.3752 -0.178663 32.419 35.3752 -0.178663
467 2 34.3265 35.375 1.44414 34.3265 35.375 1.44414
468 2 34.3126 35.3761 -1.81787 34.3126 35.3761 -1.81787
469 1 35.268 33.7271 -0.191529 35.268 33.7271 -0.191529
470 2 37.1653 33.7329 1.44342 37.1653 33.7329 1.44342
471 2 37.172 33.7221 -1.81861 37.172 33.7221 -1.81861
472 1 38.1181 35.3759 -0.191108 38.1181 35.3759 -0.191108
473 2 40.0087 35.3747 1.45179 40.0087 35.3747 1.45179
474 2 40.0288 35.378 -1.8102 40.0288 35.378 -1.8102
475 1 40.9672 33.7279 -0.174893 40.9672 33.7279 -0.174893
476 2 42.8608 33.7258 1.46422 42.8608 33.7258 1.46422
477 2 42.8746 33.7309 -1.79783 42.8746 33.7309 -1.79783
478 1 43.8172 35.3766 -0.160226 43.8172 35.3766 -0.160226
479 2 45.7163 35.3716 1.47259 45.7163 35.3716 1.47259
480 2 45.7194 35.3823 -1.78946 45.7194 35.3823 -1.78946
481 1 46.6663 33.7285 -0.162919 46.6663 33.7285 -0.162919
482 2 48.5709 33.7207 1.46334 48.5709 33.7207 1.46334
483 2 48.5628 33.7368 -1.79871 48.5628 33.7368 -1.79871
484 1 49.5164 35.3769 -0.161679 49.5164 35.3769 -0.161679
485 2 51.4203 35.375 1.46556 51.4203 35.375 1.46556
486 2 51.4137 35.3792 -1.7965 51.4137 35.3792 -1.7965
487 1 1.07491 37.0253 -0.165027 1.07491 37.0253 -0.165027
488 2 2.97594 37.034 1.4657 2.97594 37.034 1.4657
489 2 2.97507 37.0167 -1.79632 2.97507 37.0167 -1.79632
490 1 3.92502 38.6736 -0.17422 3.92502 38.6736 -0.17422
491 2 5.82321 38.6912 1.45973 5.82321 38.6912 1.45973
492 2 5.82805 38.6559 -1.80213 5.82805 38.6559 -1.80213
493 1 6.77401 37.025 -0.151734 6.77401 37.025 -0.151734
494 2 8.67011 37.0414 1.48468 8.67011 37.0414 1.48468
495 2 8.67908 37.0083 -1.77719 8.67908 37.0083 -1.77719
496 1 9.62409 38.6731 -0.160515 9.62409 38.6731 -0.160515
497 2 11.5217 38.6935 1.47392 11.5217 38.6935 1.47392
498 2 11.5277 38.6523 -1.78786 11.5277 38.6523 -1.78786
499 1 12.4731 37.0244 -0.134021 12.4731 37.0244 -0.134021
500 2 14.3746 37.0371 1.49592 14.3746 37.0371 1.49592
501 2 14.3727 37.0113 -1.76601 14.3727 37.0113 -1.76601
502 1 15.3231 38.6724 -0.148894 15.3231 38.6724 -0.148894
503 2 17.2196 38.6855 1.48689 17.2196 38.6855 1.48689
504 2 17.2277 38.6592 -1.77503 17.2277 38.6592 -1.77503
505 1 18.1721 37.0237 -0.128005 18.1721 37.0237 -0.128005
506 2 20.0703 37.0263 1.50588 20.0703 37.0263 1.50588
507 2 20.0749 37.021 -1.75616 20.0749 37.021 -1.75616
508 1 21.022 38.672 -0.126557 21.022 38.672 -0.126557
509 2 22.9184 38.6748 1.50946 22.9184 38.6748 1.50946
510 2 22.9268 38.6693 -1.75255 22.9268 38.6693 -1.75255
511 1 23.871 37.0234 -0.116188 23.871 37.0234 -0.116188
512 2 25.7767 37.0187 1.50886 25.7767 37.0187 1.50886
513 2 25.7666 37.0283 -1.75315 25.7666 37.0283 -1.75315
514 1 26.721 38.6719 -0.120303 26.721 38.6719 -0.120303
515 2 28.633 38.6662 1.49716 28.633 38.6662 1.49716
516 2 28.6102 38.6779 -1.76476 28.6102 38.6779 -1.76476
517 1 29.57 37.0235 -0.146586 29.57 37.0235 -0.146586
518 2 31.4849 37.0173 1.46737 31.4849 37.0173 1.46737
519 2 31.4562 37.0301 -1.79451 31.4562 37.0301 -1.79451
520 1 32.42 38.6722 -0.165431 32.42 38.6722 -0.165431
521 2 34.3296 38.6637 1.45496 34.3296 38.6637 1.45496
522 2 34.3115 38.6813 -1.80697 34.3115 38.6813 -1.80697
523 1 35.269 37.024 -0.190291 35.269 37.024 -0.190291
524 2 37.1673 37.0193 1.44364 37.1673 37.0193 1.44364
525 2 37.172 37.0294 -1.81838 37.172 37.0294 -1.81838
526 1 38.1191 38.6728 -0.18065 38.1191 38.6728 -0.18065
527 2 40.0114 38.6675 1.46033 40.0114 38.6675 1.46033
528 2 40.0281 38.6788 -1.80164 40.0281 38.6788 -1.80164
529 1 40.9682 37.0246 -0.171568 40.9682 37.0246 -0.171568
530 2 42.8601 37.021 1.46973 42.8601 37.021 1.46973
531 2 42.8775 37.0291 -1.79226 42.8775 37.0291 -1.79226
532 1 43.8183 38.6733 -0.151957 43.8183 38.6733 -0.151957
533 2 45.7184 38.6729 1.47958 45.7184 38.6729 1.47958