ITEM: TIMESTEP
266000
ITEM: NUMBER OF ATOMS
810
ITEM: BOX BOUNDS pp pp pp
8.6298438867990135e-01 5.2154620611319167e+01
1.5708153346338216e-01 5.0859133466536193e+01
-1.0000000000000000e+01 1.0000000000000000e+01
ITEM: ATOMS id type x y z xu yu zu
1 1 1.05937 0.390351 -0.151744 1.05937 0.390351 -0.151744
2 2 2.96994 0.392063 1.47472 2.96994 0.392063 1.47472
3 2 2.97114 0.388698 -1.77665 2.97114 0.388698 -1.77665
4 1 3.90888 2.08045 -0.152429 3.90888 2.08045 -0.152429
5 2 5.81881 2.08176 1.47476 5.81881 2.08176 1.47476
6 2 5.82127 2.07919 -1.77661 5.82127 2.07919 -1.77661
7 1 6.75845 0.390417 -0.148811 6.75845 0.390417 -0.148811
8 2 8.67051 0.387902 1.47588 8.67051 0.387902 1.47588
9 2 8.66874 0.392972 -1.77549 8.66874 0.392972 -1.77549
10 1 9.60796 2.0805 -0.147748 9.60796 2.0805 -0.147748
11 2 11.5194 2.07757 1.47764 11.5194 2.07757 1.47764
12 2 11.5188 2.08346 -1.77372 11.5188 2.08346 -1.77372
13 1 12.4575 0.39045 -0.151214 12.4575 0.39045 -0.151214
14 2 14.3702 0.383842 1.47278 14.3702 0.383842 1.47278
15 2 14.3673 0.397068 -1.77855 14.3673 0.397068 -1.77855
16 1 15.3071 2.08051 -0.146902 15.3071 2.08051 -0.146902
17 2 17.2182 2.07428 1.47888 17.2182 2.07428 1.47888
18 2 17.2183 2.08673 -1.77247 17.2183 2.08673 -1.77247
19 1 18.1566 0.390438 -0.153204 18.1566 0.390438 -0.153204
20 2 20.0679 0.380652 1.47239 20.0679 0.380652 1.47239
21 2 20.0677 0.400196 -1.77891 20.0677 0.400196 -1.77891
22 1 21.0061 2.08046 -0.143198 21.0061 2.08046 -0.143198
23 2 22.9165 2.07237 1.48351 22.9165 2.07237 1.48351
24 2 22.9181 2.08852 -1.76781 22.9181 2.08852 -1.76781
25 1 23.8557 0.390378 -0.150065 23.8557 0.390378 -0.150065
26 2 25.766 0.380072 1.47665 25.766 0.380072 1.47665
27 2 25.7677 0.400632 -1.77465 25.7677 0.400632 -1.77465
28 1 26.7052 2.08039 -0.137808 26.7052 2.08039 -0.137808
29 2 28.6163 2.07382 1.48795 28.6163 2.07382 1.48795
30 2 28.6164 2.08691 -1.76339 28.6164 2.08691 -1.76339
31 1 29.5547 0.390299 -0.144572 29.5547 0.390299 -0.144572
32 2 31.4656 0.383538 1.48154 31.4656 0.383538 1.48154
33 2 31.4662 0.397011 -1.76979 31.4662 0.397011 -1.76979
34 1 32.4043 2.08033 -0.136882 32.4043 2.08033 -0.136882
35 2 34.3177 2.0784 1.48619 34.3177 2.0784 1.48619
36 2 34.3132 2.08224 -1.76518 34.3132 2.08224 -1.76518
37 1 35.2538 0.390249 -0.142888 35.2538 0.390249 -0.142888
38 2 37.1669 0.388991 1.48058 37.1669 0.388991 1.48058
39 2 37.1631 0.391493 -1.77078 37.1631 0.391493 -1.77078
40 1 38.1033 2.08031 -0.144863 38.1033 2.08031 -0.144863
41 2 40.0184 2.08321 1.47624 40.0184 2.08321 1.47624
42 2 40.0106 2.07741 -1.77512 40.0106 2.07741 -1.77512
43 1 40.9529 0.390249 -0.148739 40.9529 0.390249 -0.148739
44 2 42.8665 0.393209 1.47405 42.8665 0.393209 1.47405
45 2 42.8615 0.387304 -1.77731 42.8615 0.387304 -1.77731
46 1 43.8024 2.08032 -0.156133 43.8024 2.08032 -0.156133
47 2 45.7155 2.08572 1.4673 45.7155 2.08572 1.4673
48 2 45.7116 2.07496 -1.78405 45.7116 2.07496 -1.78405
49 1 46.6519 0.390284 -0.153896 46.6519 0.390284 -0.153896
50 2 48.5635 0.394282 1.47143 48.5635 0.394282 1.47143
51 2 48.5627 0.38633 -1.77993 48.5627 0.38633 -1.77993
52 1 49.5014 2.08037 -0.158614 49.5014 2.08037 -0.158614
53 2 51.4116 2.08514 1.46836 51.4116 2.08514 1.46836
54 2 51.4136 2.07567 -1.783 51.4136 2.07567 -1.783
55 1 1.05931 3.77043 -0.161672 1.05931 3.77043 -0.161672
56 2 2.96792 3.77495 1.46706 2.96792 3.77495 1.46706
57 2 2.973 3.766 -1.7843 2.973 3.766 -1.7843
58 1 3.90882 5.46047 -0.161838 3.90882 5.46047 -0.161838
59 2 5.81626 5.464 1.46824 5.81626 5.464 1.46824
60 2 5.82366 5.45701 -1.78313 5.82366 5.45701 -1.78313
61 1 6.75838 3.7705 -0.151608 6.75838 3.7705 -0.151608
62 2 8.66775 3.77115 1.47621 8.66775 3.77115 1.47621
63 2 8.67131 3.76992 -1.77516 8.67131 3.76992 -1.77516
64 1 9.6079 5.46053 -0.149148 9.6079 5.46053 -0.149148
65 2 11.5169 5.46064 1.4791 11.5169 5.46064 1.4791
66 2 11.5212 5.46045 -1.77228 11.5212 5.46045 -1.77228
67 1 12.4575 3.77054 -0.145198 12.4575 3.77054 -0.145198
68 2 14.368 3.76775 1.48128 14.368 3.76775 1.48128
69 2 14.3693 3.77334 -1.77009 14.3693 3.77334 -1.77009
70 1 15.307 5.46054 -0.141166 15.307 5.46054 -0.141166
71 2 17.2165 5.45848 1.48651 17.2165 5.45848 1.48651
72 2 17.2198 5.4626 -1.76486 17.2198 5.4626 -1.76486
73 1 18.1566 3.77052 -0.140335 18.1566 3.77052 -0.140335
74 2 20.0664 3.76554 1.4869 20.0664 3.76554 1.4869
75 2 20.069 3.77548 -1.76446 20.069 3.77548 -1.76446
76 1 21.0061 5.46051 -0.132904 21.0061 5.46051 -0.132904
77 2 22.9157 5.45754 1.4946 22.9157 5.45754 1.4946
78 2 22.9187 5.46343 -1.75677 22.9187 5.46343 -1.75677
79 1 23.8556 3.77046 -0.133295 23.8556 3.77046 -0.133295
80 2 25.7663 3.76525 1.49302 25.7663 3.76525 1.49302
81 2 25.7673 3.77563 -1.75834 25.7673 3.77563 -1.75834
82 1 26.7051 5.46044 -0.126991 26.7051 5.46044 -0.126991
83 2 28.6174 5.45855 1.49745 28.6174 5.45855 1.49745
84 2 28.6152 5.46229 -1.75393 28.6152 5.46229 -1.75393
85 1 29.5547 3.77039 -0.130876 29.5547 3.77039 -0.130876
86 2 31.4679 3.76808 1.49245 31.4679 3.76808 1.49245
87 2 31.4638 3.77267 -1.75892 31.4638 3.77267 -1.75892
88 1 32.4042 5.46039 -0.132009 32.4042 5.46039 -0.132009
89 2 34.3199 5.46155 1.48837 34.3199 5.46155 1.48837
90 2 34.3109 5.45919 -1.763 34.3109 5.45919 -1.763
91 1 35.2538 3.77035 -0.138762 35.2538 3.77035 -0.138762
92 2 37.1696 3.77245 1.48141 37.1696 3.77245 1.48141
93 2 37.1602 3.76825 -1.76995 37.1602 3.76825 -1.76995
94 1 38.1033 5.46036 -0.149142 38.1033 5.46036 -0.149142
95 2 40.0201 5.46466 1.46983 40.0201 5.46466 1.46983
96 2 40.0087 5.45604 -1.78153 40.0087 5.45604 -1.78153
97 1 40.9528 3.77034 -0.154689 40.9528 3.77034 -0.154689
98 2 42.868 3.77573 1.46628 42.868 3.77573 1.46628
99 2 42.8599 3.76497 -1.78507 42.8599 3.76497 -1.78507
100 1 43.8023 5.46035 -0.167291 43.8023 5.46035 -0.167291
101 2 45.7158 5.46647 1.4556 45.7158 5.46647 1.4556
102 2 45.7111 5.45426 -1.79576 45.7111 5.45426 -1.79576
103 1 46.6519 3.77037 -0.165083 46.6519 3.77037 -0.165083
104 2 48.5631 3.77671 1.46052 48.5631 3.77671 1.46052
105 2 48.5629 3.76407 -1.79084 48.5629 3.76407 -1.79084
106 1 49.5014 5.46039 -0.171791 49.5014 5.46039 -0.171791
107 2 51.4104 5.46643 1.45647 51.4104 5.46643 1.45647
108 2 51.4147 5.45442 -1.79489 51.4147 5.45442 -1.79489
109 1 1.05928 7.15042 -0.174208 1.05928 7.15042 -0.174208
110 2 2.96625 7.15522 1.4564 2.96625 7.15522 1.4564
111 2 2.97459 7.14566 -1.79496 2.97459 7.14566 -1.79496
112 1 3.9088 8.84047 -0.171836 3.9088 8.84047 -0.171836
113 2 5.81446 8.84354 1.4603 5.81446 8.84354 1.4603
114 2 5.82543 8.83743 -1.79106 5.82543 8.83743 -1.79106
115 1 6.75834 7.1505 -0.158977 6.75834 7.1505 -0.158977
116 2 8.66524 7.15274 1.47171 8.66524 7.15274 1.47171
117 2 8.67372 7.14827 -1.77966 8.67372 7.14827 -1.77966
118 1 9.60786 8.84054 -0.153881 9.60786 8.84054 -0.153881
119 2 11.515 8.84175 1.47656 11.515 8.84175 1.47656
120 2 11.5231 8.83931 -1.7748 11.5231 8.83931 -1.7748
121 1 12.4574 7.15054 -0.145475 12.4574 7.15054 -0.145475
122 2 14.3661 7.15054 1.48308 14.3661 7.15054 1.48308
123 2 14.371 7.15052 -1.76829 14.371 7.15052 -1.76829
124 1 15.3069 8.84055 -0.141217 15.3069 8.84055 -0.141217
125 2 17.2155 8.84108 1.48753 17.2155 8.84108 1.48753
126 2 17.2207 8.83999 -1.76384 17.2207 8.83999 -1.76384
127 1 18.1565 7.15053 -0.136082 18.1565 7.15053 -0.136082
128 2 20.0654 7.14973 1.49228 20.0654 7.14973 1.49228
129 2 20.0699 7.15127 -1.75909 20.0699 7.15127 -1.75909
130 1 21.006 8.84053 -0.131315 21.006 8.84053 -0.131315
131 2 22.9154 8.84137 1.49655 22.9154 8.84137 1.49655
132 2 22.919 8.8396 -1.75483 22.919 8.8396 -1.75483
133 1 23.8556 7.15048 -0.127175 23.8556 7.15048 -0.127175
134 2 25.7663 7.14984 1.49909 25.7663 7.14984 1.49909
135 2 25.7672 7.15104 -1.75229 25.7672 7.15104 -1.75229
136 1 26.7051 8.84047 -0.125736 26.7051 8.84047 -0.125736
137 2 28.6177 8.84166 1.49831 28.6177 8.84166 1.49831
138 2 28.6149 8.83919 -1.75306 28.6149 8.83919 -1.75306
139 1 29.5547 7.15042 -0.126931 29.5547 7.15042 -0.126931
140 2 31.4691 7.15118 1.49483 31.4691 7.15118 1.49483
141 2 31.4625 7.14958 -1.75654 31.4625 7.14958 -1.75654
142 1 32.4042 8.84041 -0.133629 32.4042 8.84041 -0.133629
143 2 34.3207 8.84231 1.48568 34.3207 8.84231 1.48568
144 2 34.31 8.83844 -1.76568 34.31 8.83844 -1.76568
145 1 35.2537 7.15037 -0.141143 35.2537 7.15037 -0.141143
146 2 37.1711 7.15326 1.47716 37.1711 7.15326 1.47716
147 2 37.1586 7.14743 -1.7742 37.1586 7.14743 -1.7742
148 1 38.1032 8.84037 -0.155159 38.1032 8.84037 -0.155159
149 2 40.0208 8.84304 1.46296 40.0208 8.84304 1.46296
150 2 40.008 8.83765 -1.78839 40.008 8.83765 -1.78839
151 1 40.9528 7.15034 -0.163604 40.9528 7.15034 -0.163604
152 2 42.8687 7.15492 1.4564 42.8687 7.15492 1.4564
153 2 42.8591 7.14575 -1.79496 42.8591 7.14575 -1.79496
154 1 43.8023 8.84036 -0.176801 43.8023 8.84036 -0.176801
155 2 45.7161 8.84384 1.44578 45.7161 8.84384 1.44578
156 2 45.7108 8.83688 -1.80559 45.7108 8.83688 -1.80559
157 1 46.6518 7.15036 -0.177778 46.6518 7.15036 -0.177778
158 2 48.5628 7.15585 1.44807 48.5628 7.15585 1.44807
159 2 48.5631 7.14488 -1.80329 48.5631 7.14488 -1.80329
160 1 49.5014 8.8404 -0.183201 49.5014 8.8404 -0.183201
161 2 51.4098 8.8444 1.4457 51.4098 8.8444 1.4457
162 2 51.4153 8.83642 -1.80566 51.4153 8.83642 -1.80566
163 1 1.05925 10.5305 -0.182519 1.05925 10.5305 -0.182519
164 2 2.96555 10.5325 1.44886 2.96555 10.5325 1.44886
165 2 2.97526 10.5285 -1.80249 2.97526 10.5285 -1.80249
166 1 3.90875 12.2206 -0.176094 3.90875 12.2206 -0.176094
167 2 5.81393 12.2208 1.4566 5.81393 12.2208 1.4566
168 2 5.8259 12.2204 -1.79474 5.8259 12.2204 -1.79474
169 1 6.75831 10.5306 -0.165381 6.75831 10.5306 -0.165381
170 2 8.66376 10.532 1.46698 8.66376 10.532 1.46698
171 2 8.67517 10.5291 -1.78436 8.67517 10.5291 -1.78436
172 1 9.60781 12.2207 -0.156859 9.60781 12.2207 -0.156859
173 2 11.5142 12.2211 1.47438 11.5142 12.2211 1.47438
174 2 11.5237 12.2202 -1.77697 11.5237 12.2202 -1.77697
175 1 12.4574 10.5306 -0.148058 12.4574 10.5306 -0.148058
176 2 14.3652 10.5315 1.48157 14.3652 10.5315 1.48157
177 2 14.3719 10.5297 -1.76979 14.3719 10.5297 -1.76979
178 1 15.3069 12.2207 -0.143081 15.3069 12.2207 -0.143081
179 2 17.2156 12.2222 1.48546 17.2156 12.2222 1.48546
180 2 17.2205 12.2191 -1.7659 17.2205 12.2191 -1.7659
181 1 18.1565 10.5306 -0.137212 18.1565 10.5306 -0.137212
182 2 20.0653 10.5323 1.49123 20.0653 10.5323 1.49123
183 2 20.07 10.5288 -1.76013 20.07 10.5288 -1.76013
184 1 21.006 12.2207 -0.134868 21.006 12.2207 -0.134868
185 2 22.9156 12.2236 1.49266 22.9156 12.2236 1.49266
186 2 22.9187 12.2176 -1.75869 22.9187 12.2176 -1.75869
187 1 23.8555 10.5306 -0.129016 23.8555 10.5306 -0.129016
188 2 25.7662 10.5327 1.49733 25.7662 10.5327 1.49733
189 2 25.7673 10.5283 -1.75403 25.7673 10.5283 -1.75403
190 1 26.7051 12.2206 -0.13036 26.7051 12.2206 -0.13036
191 2 28.6172 12.2231 1.49414 28.6172 12.2231 1.49414
192 2 28.6153 12.2181 -1.75721 28.6153 12.2181 -1.75721
193 1 29.5546 10.5305 -0.1295 29.5546 10.5305 -0.1295
194 2 31.4692 10.5322 1.49216 31.4692 10.5322 1.49216
195 2 31.4624 10.5287 -1.75919 31.4624 10.5287 -1.75919
196 1 32.4041 12.2205 -0.137381 32.4041 12.2205 -0.137381
197 2 34.3203 12.2215 1.48241 34.3203 12.2215 1.48241
198 2 34.3104 12.2196 -1.76894 34.3104 12.2196 -1.76894
199 1 35.2537 10.5304 -0.145152 35.2537 10.5304 -0.145152
200 2 37.1713 10.5317 1.47287 37.1713 10.5317 1.47287
201 2 37.1584 10.5291 -1.77847 37.1584 10.5291 -1.77847
202 1 38.1032 12.2205 -0.157923 38.1032 12.2205 -0.157923
203 2 40.0205 12.22 1.46048 40.0205 12.22 1.46048
204 2 40.0082 12.2209 -1.79085 40.0082 12.2209 -1.79085
205 1 40.9527 10.5304 -0.169202 40.9527 10.5304 -0.169202
206 2 42.8689 10.5315 1.45056 42.8689 10.5315 1.45056
207 2 42.8589 10.5292 -1.80079 42.8589 10.5292 -1.80079
208 1 43.8022 12.2205 -0.179186 43.8022 12.2205 -0.179186
209 2 45.7161 12.2195 1.44323 45.7161 12.2195 1.44323
210 2 45.7107 12.2215 -1.80812 45.7107 12.2215 -1.80812
211 1 46.6518 10.5304 -0.185007 46.6518 10.5304 -0.185007
212 2 48.5629 10.5321 1.44071 48.5629 10.5321 1.44071
213 2 48.563 10.5288 -1.81066 48.563 10.5288 -1.81066
214 1 49.5013 12.2205 -0.186641 49.5013 12.2205 -0.186641
215 2 51.4099 12.2201 1.44206 51.4099 12.2201 1.44206
216 2 51.4151 12.221 -1.80929 51.4151 12.221 -1.80929
217 1 1.05919 13.9107 -0.181653 1.05919 13.9107 -0.181653
218 2 2.96587 13.9085 1.44929 2.96587 13.9085 1.44929
219 2 2.97486 13.9129 -1.80206 2.97486 13.9129 -1.80206
220 1 3.9087 15.6008 -0.171414 3.9087 15.6008 -0.171414
221 2 5.81477 15.5977 1.46024 5.81477 15.5977 1.46024
222 2 5.82496 15.604 -1.7911 5.82496 15.604 -1.7911
223 1 6.75825 13.9107 -0.165779 6.75825 13.9107 -0.165779
224 2 8.66378 13.9098 1.4665 8.66378 13.9098 1.4665
225 2 8.67507 13.9117 -1.78484 8.67507 13.9117 -1.78484
226 1 9.60776 15.6009 -0.154908 9.60776 15.6009 -0.154908
227 2 11.5151 15.6001 1.47529 11.5151 15.6001 1.47529
228 2 11.5228 15.6017 -1.77605 11.5228 15.6017 -1.77605
229 1 12.4573 13.9108 -0.149004 12.4573 13.9108 -0.149004
230 2 14.3655 13.9114 1.4802 14.3655 13.9114 1.4802
231 2 14.3715 13.9101 -1.77115 14.3715 13.9101 -1.77115
232 1 15.3068 15.6009 -0.144357 15.3068 15.6009 -0.144357
233 2 17.2169 15.6029 1.48259 17.2169 15.6029 1.48259
234 2 17.2191 15.5989 -1.76876 17.2191 15.5989 -1.76876
235 1 18.1564 13.9108 -0.140387 18.1564 13.9108 -0.140387
236 2 20.0661 13.9137 1.48698 20.0661 13.9137 1.48698
237 2 20.069 13.9078 -1.76437 20.069 13.9078 -1.76437
238 1 21.0059 15.6009 -0.140847 21.0059 15.6009 -0.140847
239 2 22.9163 15.605 1.48574 22.9163 15.605 1.48574
240 2 22.9179 15.5967 -1.7656 22.9179 15.5967 -1.7656
241 1 23.8555 13.9107 -0.13521 23.8555 13.9107 -0.13521
242 2 25.766 13.9142 1.49125 25.766 13.9142 1.49125
243 2 25.7673 13.9072 -1.7601 25.7673 13.9072 -1.7601
244 1 26.705 15.6008 -0.137749 26.705 15.6008 -0.137749
245 2 28.6163 15.6039 1.48775 28.6163 15.6039 1.48775
246 2 28.616 15.5977 -1.76359 28.616 15.5977 -1.76359
247 1 29.5546 13.9107 -0.134769 29.5546 13.9107 -0.134769
248 2 31.4682 13.9123 1.48799 31.4682 13.9123 1.48799
249 2 31.4633 13.909 -1.76336 31.4633 13.909 -1.76336
250 1 32.4041 15.6008 -0.140877 32.4041 15.6008 -0.140877
251 2 34.3189 15.6009 1.48045 34.3189 15.6009 1.48045
252 2 34.3116 15.6006 -1.77089 34.3116 15.6006 -1.77089
253 1 35.2536 13.9106 -0.147162 35.2536 13.9106 -0.147162
254 2 37.1704 13.9098 1.47183 37.1704 13.9098 1.47183
255 2 37.1592 13.9114 -1.77951 37.1592 13.9114 -1.77951
256 1 38.1031 15.6007 -0.156304 38.1031 15.6007 -0.156304
257 2 40.0195 15.598 1.46324 40.0195 15.598 1.46324
258 2 40.0091 15.6035 -1.78809 40.0091 15.6035 -1.78809
259 1 40.9527 13.9106 -0.168262 40.9527 13.9106 -0.168262
260 2 42.8685 13.908 1.4519 42.8685 13.908 1.4519
261 2 42.8592 13.9132 -1.79944 42.8592 13.9132 -1.79944
262 1 43.8022 15.6007 -0.173731 43.8022 15.6007 -0.173731
263 2 45.7159 15.5961 1.44893 45.7159 15.5961 1.44893
264 2 45.7108 15.6054 -1.8024 45.7108 15.6054 -1.8024
265 1 46.6517 13.9106 -0.183019 46.6517 13.9106 -0.183019
266 2 48.5632 13.9076 1.44235 48.5632 13.9076 1.44235
267 2 48.5627 13.9137 -1.809 48.5627 13.9137 -1.809
268 1 49.5013 15.6008 -0.180249 49.5013 15.6008 -0.180249
269 2 51.4104 15.596 1.44779 51.4104 15.596 1.44779
270 2 51.4145 15.6055 -1.80355 51.4145 15.6055 -1.80355
271 1 1.05913 17.2909 -0.17173 1.05913 17.2909 -0.17173
272 2 2.96691 17.2855 1.45794 2.96691 17.2855 1.45794
273 2 2.9737 17.2964 -1.79339 2.9737 17.2964 -1.79339
274 1 3.90864 18.9811 -0.160067 3.90864 18.9811 -0.160067
275 2 5.81655 18.9765 1.46947 5.81655 18.9765 1.46947
276 2 5.82309 18.9857 -1.78186 5.82309 18.9857 -1.78186
277 1 6.75819 17.291 -0.159143 6.75819 17.291 -0.159143
278 2 8.66533 17.2883 1.47127 8.66533 17.2883 1.47127
279 2 8.6734 17.2937 -1.78006 8.6734 17.2937 -1.78006
280 1 9.60771 18.9811 -0.149186 9.60771 18.9811 -0.149186
281 2 11.5173 18.9804 1.47835 11.5173 18.9804 1.47835
282 2 11.5205 18.9819 -1.773 11.5205 18.9819 -1.773
283 1 12.4573 17.291 -0.147268 12.4573 17.291 -0.147268
284 2 14.3672 17.2918 1.47987 14.3672 17.2918 1.47987
285 2 14.3697 17.2903 -1.77148 14.3697 17.2903 -1.77148
286 1 15.3068 18.9812 -0.1458 15.3068 18.9812 -0.1458
287 2 17.2191 18.9844 1.47851 17.2191 18.9844 1.47851
288 2 17.2168 18.9779 -1.77283 17.2168 18.9779 -1.77283
289 1 18.1563 17.291 -0.144504 18.1563 17.291 -0.144504
290 2 20.0678 17.2949 1.48089 20.0678 17.2949 1.48089
291 2 20.0673 17.2871 -1.77044 20.0673 17.2871 -1.77044
292 1 21.0059 18.9811 -0.148977 21.0059 18.9811 -0.148977
293 2 22.9174 18.9866 1.47634 22.9174 18.9866 1.47634
294 2 22.9167 18.9756 -1.77499 22.9167 18.9756 -1.77499
295 1 23.8554 17.291 -0.143756 23.8554 17.291 -0.143756
296 2 25.7659 17.2955 1.48273 25.7659 17.2955 1.48273
297 2 25.7673 17.2864 -1.7686 25.7673 17.2864 -1.7686
298 1 26.7049 18.9811 -0.147343 26.7049 18.9811 -0.147343
299 2 28.6154 18.9855 1.47926 28.6154 18.9855 1.47926
300 2 28.6169 18.9766 -1.77208 28.6169 18.9766 -1.77208
301 1 29.5545 17.2909 -0.141272 29.5545 17.2909 -0.141272
302 2 31.4667 17.293 1.48317 31.4667 17.293 1.48317
303 2 31.4646 17.2888 -1.76817 31.4646 17.2888 -1.76817
304 1 32.404 18.981 -0.145364 32.404 18.981 -0.145364
305 2 34.3172 18.9822 1.47799 34.3172 18.9822 1.47799
306 2 34.3132 18.9798 -1.77335 34.3132 18.9798 -1.77335
307 1 35.2536 17.2909 -0.147544 35.2536 17.2909 -0.147544
308 2 37.1689 17.2895 1.47317 37.1689 17.2895 1.47317
309 2 37.1606 17.2922 -1.77817 37.1606 17.2922 -1.77817
310 1 38.1031 18.981 -0.153582 38.1031 18.981 -0.153582
311 2 40.0179 18.9784 1.46783 40.0179 18.9784 1.46783
312 2 40.0106 18.9835 -1.78351 40.0106 18.9835 -1.78351
313 1 40.9526 17.2908 -0.162586 40.9526 17.2908 -0.162586
314 2 42.8675 17.2864 1.4587 42.8675 17.2864 1.4587
315 2 42.8601 17.2953 -1.79263 42.8601 17.2953 -1.79263
316 1 43.8021 18.981 -0.164505 43.8021 18.981 -0.164505
317 2 45.715 18.9753 1.45919 45.715 18.9753 1.45919
318 2 45.7116 18.9867 -1.79214 45.7116 18.9867 -1.79214
319 1 46.6517 17.2909 -0.173381 46.6517 17.2909 -0.173381
320 2 48.5632 17.2848 1.45195 48.5632 17.2848 1.45195
321 2 48.5626 17.297 -1.79938 48.5626 17.297 -1.79938
322 1 49.5012 18.981 -0.167501 49.5012 18.981 -0.167501
323 2 51.4109 18.9744 1.45997 51.4109 18.9744 1.45997
324 2 51.4139 18.9877 -1.79136 51.4139 18.9877 -1.79136
325 1 1.0591 20.6712 -0.157883 1.0591 20.6712 -0.157883
326 2 2.96813 20.6655 1.47034 2.96813 20.6655 1.47034
327 2 2.97241 20.6769 -1.78099 2.97241 20.6769 -1.78099
328 1 3.90863 22.3613 -0.148096 3.90863 22.3613 -0.148096
329 2 5.81859 22.358 1.47905 5.81859 22.358 1.47905
330 2 5.821 22.3647 -1.77231 5.821 22.3647 -1.77231
331 1 6.75817 20.6712 -0.149433 6.75817 20.6712 -0.149433
332 2 8.66782 20.669 1.47806 8.66782 20.669 1.47806
333 2 8.67086 20.6736 -1.77329 8.67086 20.6736 -1.77329
334 1 9.60771 22.3614 -0.144269 9.60771 22.3614 -0.144269
335 2 11.5202 22.3625 1.47983 11.5202 22.3625 1.47983
336 2 11.5175 22.3603 -1.77153 11.5175 22.3603 -1.77153
337 1 12.4572 20.6713 -0.145563 12.4572 20.6713 -0.145563
338 2 14.3699 20.6735 1.47843 14.3699 20.6735 1.47843
339 2 14.367 20.669 -1.77292 14.367 20.669 -1.77292
340 1 15.3068 22.3614 -0.150373 15.3068 22.3614 -0.150373
341 2 17.2216 22.3669 1.47098 17.2216 22.3669 1.47098
342 2 17.2143 22.3559 -1.78035 17.2143 22.3559 -1.78035
343 1 18.1563 20.6713 -0.151156 18.1563 20.6713 -0.151156
344 2 20.0697 20.677 1.47197 20.0697 20.677 1.47197
345 2 20.0653 20.6655 -1.77936 20.0653 20.6655 -1.77936
346 1 21.0059 22.3613 -0.160938 21.0059 22.3613 -0.160938
347 2 22.9184 22.3691 1.46317 22.9184 22.3691 1.46317
348 2 22.9156 22.3536 -1.78815 22.9156 22.3536 -1.78815
349 1 23.8554 20.6712 -0.155254 23.8554 20.6712 -0.155254
350 2 25.766 20.6777 1.47119 25.766 20.6777 1.47119
351 2 25.7672 20.6647 -1.78013 25.7672 20.6647 -1.78013
352 1 26.7049 22.3613 -0.160872 26.7049 22.3613 -0.160872
353 2 28.6145 22.3684 1.46671 28.6145 22.3684 1.46671
354 2 28.6177 22.3542 -1.78461 28.6177 22.3542 -1.78461
355 1 29.5545 20.6712 -0.150669 29.5545 20.6712 -0.150669
356 2 31.4652 20.6754 1.47558 31.4652 20.6754 1.47558
357 2 31.4661 20.6669 -1.77576 31.4661 20.6669 -1.77576
358 1 32.404 22.3613 -0.15431 32.404 22.3613 -0.15431
359 2 34.3152 22.3653 1.47133 34.3152 22.3653 1.47133
360 2 34.3151 22.3572 -1.78001 34.3151 22.3572 -1.78001
361 1 35.2535 20.6711 -0.15013 35.2535 20.6711 -0.15013
362 2 37.167 20.6716 1.47288 37.167 20.6716 1.47288
363 2 37.1624 20.6706 -1.77847 37.1624 20.6706 -1.77847
364 1 38.1031 22.3612 -0.154677 38.1031 22.3612 -0.154677
365 2 40.0156 22.361 1.46936 40.0156 22.361 1.46936
366 2 40.0128 22.3614 -1.782 40.0128 22.3614 -1.782
367 1 40.9526 20.6711 -0.157315 40.9526 20.6711 -0.157315
368 2 42.8658 20.6675 1.466 42.8658 20.6675 1.466
369 2 42.8617 20.6746 -1.78534 42.8617 20.6746 -1.78534
370 1 43.8021 22.3612 -0.157196 43.8021 22.3612 -0.157196
371 2 45.7134 22.3571 1.46844 45.7134 22.3571 1.46844
372 2 45.7132 22.3653 -1.78292 45.7132 22.3653 -1.78292
373 1 46.6517 20.6711 -0.161538 46.6517 20.6711 -0.161538
374 2 48.5626 20.6649 1.46446 48.5626 20.6649 1.46446
375 2 48.5631 20.6773 -1.78687 48.5631 20.6773 -1.78687
376 1 49.5012 22.3612 -0.154613 49.5012 22.3612 -0.154613
377 2 51.411 22.3558 1.47268 51.411 22.3558 1.47268
378 2 51.4137 22.3667 -1.77866 51.4137 22.3667 -1.77866
379 1 1.0591 24.0514 -0.14655 1.0591 24.0514 -0.14655
380 2 2.96921 24.0481 1.48043 2.96921 24.0481 1.48043
381 2 2.97133 24.0547 -1.77093 2.97133 24.0547 -1.77093
382 1 3.90865 25.7415 -0.14119 3.90865 25.7415 -0.14119
383 2 5.82042 25.7413 1.48383 5.82042 25.7413 1.48383
384 2 5.81921 25.7416 -1.76754 5.81921 25.7416 -1.76754
385 1 6.75818 24.0514 -0.142435 6.75818 24.0514 -0.142435
386 2 8.67047 24.0516 1.48198 8.67047 24.0516 1.48198
387 2 8.66824 24.0513 -1.76939 8.66824 24.0513 -1.76939
388 1 9.60774 25.7415 -0.144454 9.60774 25.7415 -0.144454
389 2 11.523 25.7454 1.47637 11.523 25.7454 1.47637
390 2 11.5148 25.7376 -1.77497 11.5148 25.7376 -1.77497
391 1 12.4573 24.0515 -0.147729 12.4573 24.0515 -0.147729
392 2 14.3727 24.0563 1.47288 14.3727 24.0563 1.47288
393 2 14.3641 24.0467 -1.77845 14.3641 24.0467 -1.77845
394 1 15.3068 25.7415 -0.160208 15.3068 25.7415 -0.160208
395 2 17.2239 25.7494 1.4585 17.2239 25.7494 1.4585
396 2 17.212 25.7337 -1.79281 17.212 25.7337 -1.79281
397 1 18.1563 24.0515 -0.162473 18.1563 24.0515 -0.162473
398 2 20.0714 24.0596 1.45857 20.0714 24.0596 1.45857
399 2 20.0635 24.0433 -1.79274 20.0635 24.0433 -1.79274
400 1 21.0059 25.7415 -0.177783 21.0059 25.7415 -0.177783
401 2 22.9192 25.7513 1.44538 22.9192 25.7513 1.44538
402 2 22.9149 25.7316 -1.80592 22.9149 25.7316 -1.80592
403 1 23.8554 24.0514 -0.171279 23.8554 24.0514 -0.171279
404 2 25.766 24.0604 1.4551 25.766 24.0604 1.4551
405 2 25.7671 24.0424 -1.79621 25.7671 24.0424 -1.79621
406 1 26.7049 25.7414 -0.179568 26.7049 25.7414 -0.179568
407 2 28.6138 25.751 1.44888 28.6138 25.751 1.44888
408 2 28.6184 25.7318 -1.80243 28.6184 25.7318 -1.80243
409 1 29.5545 24.0514 -0.165409 29.5545 24.0514 -0.165409
410 2 31.4637 24.0587 1.46258 31.4637 24.0587 1.46258
411 2 31.4675 24.044 -1.78875 31.4675 24.044 -1.78875
412 1 32.404 25.7414 -0.169648 32.404 25.7414 -0.169648
413 2 34.3131 25.7483 1.45852 34.3131 25.7483 1.45852
414 2 34.3173 25.7344 -1.79282 34.3173 25.7344 -1.79282
415 1 35.2535 24.0513 -0.158641 35.2535 24.0513 -0.158641
416 2 37.1646 24.0548 1.46719 37.1646 24.0548 1.46719
417 2 37.1648 24.0477 -1.78416 37.1648 24.0477 -1.78416
418 1 38.1031 25.7413 -0.162188 38.1031 25.7413 -0.162188
419 2 40.0129 25.744 1.46509 40.0129 25.744 1.46509
420 2 40.0156 25.7387 -1.78627 40.0156 25.7387 -1.78627
421 1 40.9526 24.0513 -0.156979 40.9526 24.0513 -0.156979
422 2 42.8634 24.0504 1.46916 42.8634 24.0504 1.46916
423 2 42.8641 24.0522 -1.78221 42.8641 24.0522 -1.78221
424 1 43.8021 25.7413 -0.155454 43.8021 25.7413 -0.155454
425 2 45.7113 25.7402 1.47263 45.7113 25.7402 1.47263
426 2 45.7153 25.7425 -1.77873 45.7153 25.7425 -1.77873
427 1 46.6517 24.0513 -0.153036 46.6517 24.0513 -0.153036
428 2 48.5615 24.0475 1.47423 48.5615 24.0475 1.47423
429 2 48.5641 24.0551 -1.77713 48.5641 24.0551 -1.77713
430 1 49.5012 25.7414 -0.146774 49.5012 25.7414 -0.146774
431 2 51.4109 25.7392 1.48063 51.4109 25.7392 1.48063
432 2 51.4138 25.7436 -1.77073 51.4138 25.7436 -1.77073
433 1 1.0591 27.4315 -0.141908 1.0591 27.4315 -0.141908
434 2 2.97002 27.4318 1.4841 2.97002 27.4318 1.4841
435 2 2.97052 27.4312 -1.76725 2.97052 27.4312 -1.76725
436 1 3.90866 29.1216 -0.141695 3.90866 29.1216 -0.141695
437 2 5.82176 29.1247 1.48173 5.82176 29.1247 1.48173
438 2 5.81791 29.1187 -1.76961 5.81791 29.1187 -1.76961
439 1 6.7582 27.4316 -0.142004 6.7582 27.4316 -0.142004
440 2 8.67264 27.4348 1.47984 8.67264 27.4348 1.47984
441 2 8.66608 27.4284 -1.77151 8.66608 27.4284 -1.77151
442 1 9.60775 29.1217 -0.151049 9.60775 29.1217 -0.151049
443 2 11.5251 29.1278 1.46731 11.5251 29.1278 1.46731
444 2 11.5127 29.1157 -1.784 11.5127 29.1157 -1.784
445 1 12.4573 27.4316 -0.155698 12.4573 27.4316 -0.155698
446 2 14.3751 27.4386 1.46207 14.3751 27.4386 1.46207
447 2 14.3617 27.4246 -1.78923 14.3617 27.4246 -1.78923
448 1 15.3068 29.1217 -0.174735 15.3068 29.1217 -0.174735
449 2 17.2255 29.1306 1.44205 17.2255 29.1306 1.44205
450 2 17.2104 29.1128 -1.80921 17.2104 29.1128 -1.80921
451 1 18.1563 27.4316 -0.178687 18.1563 27.4316 -0.178687
452 2 20.0727 27.4413 1.44078 20.0727 27.4413 1.44078
453 2 20.0622 27.4218 -1.8105 20.0622 27.4218 -1.8105
454 1 21.0058 29.1216 -0.198002 21.0058 29.1216 -0.198002
455 2 22.9196 29.132 1.4246 22.9196 29.132 1.4246
456 2 22.9144 29.1112 -1.82668 22.9144 29.1112 -1.82668
457 1 23.8554 27.4315 -0.191718 23.8554 27.4315 -0.191718
458 2 25.766 27.4421 1.43468 25.766 27.4421 1.43468
459 2 25.7671 27.4209 -1.8166 25.7671 27.4209 -1.8166
460 1 26.7049 29.1216 -0.201636 26.7049 29.1216 -0.201636
461 2 28.613 29.1318 1.42771 28.613 29.1318 1.42771
462 2 28.6192 29.1113 -1.82357 28.6192 29.1113 -1.82357
463 1 29.5545 27.4315 -0.185452 29.5545 27.4315 -0.185452
464 2 31.4622 27.4408 1.44428 31.4622 27.4408 1.44428
465 2 31.4691 27.4221 -1.80702 31.4691 27.4221 -1.80702
466 1 32.404 29.1215 -0.189118 32.404 29.1215 -0.189118
467 2 34.3108 29.1294 1.44167 34.3108 29.1294 1.44167
468 2 34.3195 29.1137 -1.80963 34.3195 29.1137 -1.80963
469 1 35.2535 27.4314 -0.173248 35.2535 27.4314 -0.173248
470 2 37.1618 27.4372 1.45576 37.1618 27.4372 1.45576
471 2 37.1675 27.4256 -1.79558 37.1675 27.4256 -1.79558
472 1 38.1031 29.1215 -0.174362 38.1031 29.1215 -0.174362
473 2 40.0101 29.1257 1.45619 40.0101 29.1257 1.45619
474 2 40.0184 29.1173 -1.79514 40.0184 29.1173 -1.79514
475 1 40.9526 27.4314 -0.162654 40.9526 27.4314 -0.162654
476 2 42.8608 27.4332 1.46657 42.8608 27.4332 1.46657
477 2 42.8668 27.4296 -1.78478 42.8668 27.4296 -1.78478
478 1 43.8021 29.1215 -0.159273 43.8021 29.1215 -0.159273
479 2 45.7094 29.1231 1.47104 45.7094 29.1231 1.47104
480 2 45.7172 29.12 -1.7803 45.7172 29.12 -1.7803
481 1 46.6517 27.4314 -0.150753 46.6517 27.4314 -0.150753
482 2 48.5603 27.431 1.4779 48.5603 27.431 1.4779
483 2 48.5653 27.4319 -1.77346 48.5653 27.4319 -1.77346
484 1 49.5012 29.1216 -0.145908 49.5012 29.1216 -0.145908
485 2 51.4108 29.1227 1.48168 51.4108 29.1227 1.48168
486 2 51.414 29.1204 -1.76967 51.414 29.1204 -1.76967
487 1 1.05913 30.8117 -0.144243 1.05913 30.8117 -0.144243
488 2 2.97058 30.8147 1.48111 2.97058 30.8147 1.48111
489 2 2.97004 30.8088 -1.77023 2.97004 30.8088 -1.77023
490 1 3.9087 32.5019 -0.147773 3.9087 32.5019 -0.147773
491 2 5.82262 32.5063 1.47463 5.82262 32.5063 1.47463
492 2 5.81713 32.4976 -1.7767 5.81713 32.4976 -1.7767
493 1 6.75822 30.8118 -0.148136 6.75822 30.8118 -0.148136
494 2 8.67409 30.817 1.47199 8.67409 30.817 1.47199
495 2 8.66471 30.8066 -1.77933 8.66471 30.8066 -1.77933
496 1 9.60778 32.5019 -0.161754 9.60778 32.5019 -0.161754
497 2 11.5262 32.5082 1.45525 11.5262 32.5082 1.45525
498 2 11.5116 32.4957 -1.79604 11.5116 32.4957 -1.79604
499 1 12.4573 30.8118 -0.168198 12.4573 30.8118 -0.168198
500 2 14.3767 30.8194 1.44776 14.3767 30.8194 1.44776
501 2 14.3602 30.8042 -1.80351 14.3602 30.8042 -1.80351
502 1 15.3068 32.5019 -0.190534 15.3068 32.5019 -0.190534
503 2 17.2262 32.5095 1.42539 17.2262 32.5095 1.42539
504 2 17.2098 32.4944 -1.82588 17.2098 32.4944 -1.82588
505 1 18.1563 30.8118 -0.197166 18.1563 30.8118 -0.197166
506 2 20.0735 30.821 1.42144 20.0735 30.821 1.42144
507 2 20.0615 30.8025 -1.82983 20.0615 30.8025 -1.82983
508 1 21.0059 32.5019 -0.217265 21.0059 32.5019 -0.217265
509 2 22.9197 32.51 1.40532 22.9197 32.51 1.40532
510 2 22.9144 32.4937 -1.84598 22.9144 32.4937 -1.84598
511 1 23.8554 30.8117 -0.21335 23.8554 30.8117 -0.21335
512 2 25.7657 30.8214 1.41335 25.7657 30.8214 1.41335
513 2 25.7675 30.8019 -1.83794 25.7675 30.8019 -1.83794
514 1 26.705 32.5018 -0.221907 26.705 32.5018 -0.221907
515 2 28.612 32.5094 1.40857 28.612 32.5094 1.40857
516 2 28.6202 32.4942 -1.84273 28.6202 32.4942 -1.84273
517 1 29.5545 30.8117 -0.206775 29.5545 30.8117 -0.206775
518 2 31.4606 30.8201 1.4248 31.4606 30.8201 1.4248
519 2 31.4707 30.8032 -1.82649 31.4707 30.8032 -1.82649
520 1 32.404 32.5018 -0.206726 32.404 32.5018 -0.206726
521 2 34.3088 32.5073 1.42647 34.3088 32.5073 1.42647
522 2 34.3217 32.4962 -1.82484 34.3217 32.4962 -1.82484
523 1 35.2536 30.8116 -0.18966 35.2536 30.8116 -0.18966
524 2 37.1593 30.8171 1.44236 37.1593 30.8171 1.44236
525 2 37.1702 30.8061 -1.80896 37.1702 30.8061 -1.80896
526 1 38.1031 32.5017 -0.185938 38.1031 32.5017 -0.185938
527 2 40.0079 32.505 1.44712 40.0079 32.505 1.44712
528 2 40.0206 32.4985 -1.8042 40.0206 32.4985 -1.8042
529 1 40.9526 30.8116 -0.171478 40.9526 30.8116 -0.171478
530 2 42.8585 30.8145 1.46033 42.8585 30.8145 1.46033
531 2 42.869 30.8087 -1.79099 42.869 30.8087 -1.79099
532 1 43.8022 32.5017 -0.165314 43.8022 32.5017 -0.165314
533 2 45.7082 32.5041 1.46635 45.7082 32.5041 1.46635
534 2 45.7185 32.4995 -1.78498 45.7185 32.4995 -1.78498
535 1 46.6517 30.8117 -0.153951 46.6517 30.8117 -0.153951
536 2 48.5594 30.8137 1.47573 48.5594 30.8137 1.47573
537 2 48.5663 30.8097 -1.77561 48.5663 30.8097 -1.77561
538 1 49.5012 32.5018 -0.150049 49.5012 32.5018 -0.150049