ITEM: TIMESTEP
3449000
ITEM: NUMBER OF ATOMS
810
ITEM: BOX BOUNDS pp pp pp
8.6298438867990135e-01 5.2154620611319167e+01
-7.7030700008718371e+00 5.8719285000871416e+01
-1.0000000000000000e+01 1.0000000000000000e+01
ITEM: ATOMS id type x y z xu yu zu
1 1 1.08896 57.0412 -0.171087 1.08896 -9.38117 -0.171087
2 2 2.98233 57.0458 1.46817 2.98233 -9.37659 1.46817
3 2 2.99571 57.0386 -1.79443 2.99571 -9.38378 -1.79443
4 1 3.94 -7.73399 -0.162759 3.94 -7.73399 -0.162759
5 2 5.82438 -7.73268 1.48683 5.82438 -7.73268 1.48683
6 2 5.85528 -7.73599 -1.77551 5.85528 -7.73599 -1.77551
7 1 6.78778 57.0415 -0.1334 6.78778 -9.38084 -0.1334
8 2 8.67669 57.0392 1.51096 8.67669 -9.3832 1.51096
9 2 8.69883 57.0453 -1.7516 8.69883 -9.37704 -1.7516
10 1 9.63879 -7.73402 -0.110755 9.63879 -7.73402 -0.110755
11 2 11.5406 -7.73946 1.51803 11.5406 -7.73946 1.51803
12 2 11.5368 -7.72975 -1.74443 11.5368 -7.72975 -1.74443
13 1 12.4867 57.0412 -0.119384 12.4867 -9.38118 -0.119384
14 2 14.4083 57.0302 1.48591 14.4083 -9.39217 1.48591
15 2 14.3649 57.0532 -1.77636 14.3649 -9.36911 -1.77636
16 1 15.3377 -7.73464 -0.14648 15.3377 -7.73464 -0.14648
17 2 17.2629 -7.75109 1.45436 17.2629 -7.75109 1.45436
18 2 17.2119 -7.71968 -1.80757 17.2119 -7.71968 -1.80757
19 1 18.1851 57.0405 -0.207701 18.1851 -9.38188 -0.207701
20 2 20.1011 57.0264 1.40471 20.1011 -9.39591 1.40471
21 2 20.0691 57.0552 -1.85761 20.0691 -9.36712 -1.85761
22 1 21.0363 -7.73559 -0.221018 21.0363 -7.73559 -0.221018
23 2 22.9362 -7.75453 1.41064 22.9362 -7.75453 1.41064
24 2 22.9363 -7.71853 -1.85165 22.9363 -7.71853 -1.85165
25 1 23.8842 57.0393 -0.238826 23.8842 -9.3831 -0.238826
26 2 25.7688 57.0246 1.41075 25.7688 -9.39775 1.41075
27 2 25.7997 57.0545 -1.8516 25.7997 -9.36785 -1.8516
28 1 26.7354 -7.737 -0.195697 26.7354 -7.737 -0.195697
29 2 28.6234 -7.74736 1.44968 28.6234 -7.74736 1.44968
30 2 28.647 -7.72815 -1.81268 28.647 -7.72815 -1.81268
31 1 29.5833 57.0382 -0.184519 29.5833 -9.38417 -0.184519
32 2 31.4743 57.0255 1.45731 31.4743 -9.39681 1.45731
33 2 31.4924 57.0521 -1.80517 31.4924 -9.37027 -1.80517
34 1 32.4345 -7.73759 -0.154771 32.4345 -7.73759 -0.154771
35 2 34.3332 -7.74413 1.4781 34.3332 -7.74413 1.4781
36 2 34.3357 -7.7319 -1.78437 34.3357 -7.7319 -1.78437
37 1 35.2826 57.0381 -0.158892 35.2826 -9.38428 -0.158892
38 2 37.1822 57.0289 1.47302 37.1822 -9.3935 1.47302
39 2 37.1833 57.0492 -1.78956 37.1833 -9.37316 -1.78956
40 1 38.1338 -7.73728 -0.147314 38.1338 -7.73728 -0.147314
41 2 40.032 -7.74164 1.48632 40.032 -7.74164 1.48632
42 2 40.0356 -7.73323 -1.77616 40.0356 -7.73323 -1.77616
43 1 40.9821 57.0387 -0.148229 40.9821 -9.38364 -0.148229
44 2 42.8819 57.0332 1.48356 42.8819 -9.38913 1.48356
45 2 42.8825 57.0467 -1.77905 42.8825 -9.37568 -1.77905
46 1 43.8333 -7.73623 -0.14063 43.8333 -7.73623 -0.14063
47 2 45.741 -7.73415 1.48141 45.741 -7.73415 1.48141
48 2 45.7255 -7.73801 -1.78103 45.7255 -7.73801 -1.78103
49 1 46.6815 57.04 -0.1525 46.6815 -9.38233 -0.1525
50 2 48.5891 57.0431 1.46988 48.5891 -9.37929 1.46988
51 2 48.574 57.0396 -1.79272 48.574 -9.38274 -1.79272
52 1 49.5325 -7.73479 -0.167683 49.5325 -7.73479 -0.167683
53 2 51.4357 -7.73253 1.45975 51.4357 -7.73253 1.45975
54 2 51.4292 -7.737 -1.80271 51.4292 -7.737 -1.80271
55 1 1.09171 -6.08883 -0.175595 1.09171 -6.08883 -0.175595
56 2 2.98713 -6.08292 1.46191 2.98713 -6.08292 1.46191
57 2 2.99776 -6.08963 -1.80068 2.99776 -6.08963 -1.80068
58 1 3.94618 -4.43923 -0.169635 3.94618 -4.43923 -0.169635
59 2 5.81624 -4.44575 1.48142 5.81624 -4.44575 1.48142
60 2 5.84878 -4.45301 -1.78191 5.84878 -4.45301 -1.78191
61 1 6.79074 -6.08849 -0.136872 6.79074 -6.08849 -0.136872
62 2 8.67824 -6.0834 1.50996 8.67824 -6.0834 1.50996
63 2 8.7045 -6.089 -1.75255 8.7045 -6.089 -1.75255
64 1 9.64521 -4.43924 -0.116188 9.64521 -4.43924 -0.116188
65 2 11.5319 -4.44278 1.51499 11.5319 -4.44278 1.51499
66 2 11.5312 -4.45647 -1.74852 11.5312 -4.45647 -1.74852
67 1 12.4898 -6.08886 -0.109576 12.4898 -6.08886 -0.109576
68 2 14.4048 -6.09858 1.50491 14.4048 -6.09858 1.50491
69 2 14.3761 -6.07509 -1.7575 14.3761 -6.07509 -1.7575
70 1 15.3444 -4.43999 -0.123104 15.3444 -4.43999 -0.123104
71 2 17.2533 -4.46285 1.48127 17.2533 -4.46285 1.48127
72 2 17.2079 -4.43834 -1.78184 17.2079 -4.43834 -1.78184
73 1 18.1885 -6.08974 -0.175588 18.1885 -6.08974 -0.175588
74 2 20.1035 -6.10816 1.43906 20.1035 -6.10816 1.43906
75 2 20.0747 -6.06746 -1.82319 20.0747 -6.06746 -1.82319
76 1 21.0431 -4.44108 -0.179764 21.0431 -4.44108 -0.179764
77 2 22.9338 -4.46621 1.44721 22.9338 -4.46621 1.44721
78 2 22.925 -4.43742 -1.81621 22.925 -4.43742 -1.81621
79 1 23.8874 -6.09102 -0.201643 23.8874 -6.09102 -0.201643
80 2 25.7803 -6.09716 1.43929 25.7803 -6.09716 1.43929
81 2 25.7959 -6.08121 -1.82329 25.7959 -6.08121 -1.82329
82 1 26.742 -4.44241 -0.178684 26.742 -4.44241 -0.178684
83 2 28.625 -4.44498 1.45755 28.625 -4.44498 1.45755
84 2 28.6315 -4.46096 -1.80598 28.6315 -4.46096 -1.80598
85 1 29.5863 -6.09212 -0.164338 29.5863 -6.09212 -0.164338
86 2 31.4862 -6.0822 1.46821 31.4862 -6.0822 1.46821
87 2 31.4879 -6.09755 -1.7944 31.4879 -6.09755 -1.7944
88 1 32.4409 -4.443 -0.170043 32.4409 -4.443 -0.170043
89 2 34.327 -4.43009 1.46258 34.327 -4.43009 1.46258
90 2 34.3274 -4.47636 -1.80065 34.3274 -4.47636 -1.80065
91 1 35.2855 -6.09218 -0.145845 35.2855 -6.09218 -0.145845
92 2 37.1906 -6.08397 1.48056 37.1906 -6.08397 1.48056
93 2 37.1818 -6.09545 -1.78205 37.1818 -6.09545 -1.78205
94 1 38.1399 -4.44276 -0.159256 38.1399 -4.44276 -0.159256
95 2 40.0237 -4.43767 1.47547 40.0237 -4.43767 1.47547
96 2 40.0287 -4.46785 -1.78794 40.0287 -4.46785 -1.78794
97 1 40.9847 -6.09157 -0.139427 40.9847 -6.09157 -0.139427
98 2 42.8864 -6.08855 1.49107 42.8864 -6.08855 1.49107
99 2 42.8846 -6.08896 -1.77156 42.8846 -6.08896 -1.77156
100 1 43.8391 -4.44164 -0.141164 43.8391 -4.44164 -0.141164
101 2 45.7351 -4.44943 1.47872 45.7351 -4.44943 1.47872
102 2 45.7159 -4.45329 -1.78475 45.7159 -4.45329 -1.78475
103 1 46.6841 -6.09016 -0.156404 46.6841 -6.09016 -0.156404
104 2 48.5932 -6.08386 1.465 48.5932 -6.08386 1.465
105 2 48.5764 -6.09063 -1.79758 48.5764 -6.09063 -1.79758
106 1 49.5384 -4.44012 -0.174746 49.5384 -4.44012 -0.174746
107 2 51.426 -4.44842 1.45576 51.426 -4.44842 1.45576
108 2 51.4236 -4.45131 -1.80773 51.4236 -4.45131 -1.80773
109 1 1.06281 -2.80667 -0.177505 1.06281 -2.80667 -0.177505
110 2 3.01973 -2.7909 1.43338 3.01973 -2.7909 1.43338
111 2 3.0298 -2.7868 -1.77507 3.0298 -2.7868 -1.77507
112 1 3.87586 -1.08028 -0.165783 3.87586 -1.08028 -0.165783
113 2 5.64446 -1.39413 1.53801 5.64446 -1.39413 1.53801
114 2 5.66402 -1.40422 -1.84685 5.66402 -1.40422 -1.84685
115 1 6.76232 -2.80637 -0.144182 6.76232 -2.80637 -0.144182
116 2 8.71435 -2.77801 1.47165 8.71435 -2.77801 1.47165
117 2 8.73401 -2.79945 -1.73671 8.73401 -2.79945 -1.73671
118 1 9.57535 -1.08023 -0.138965 9.57535 -1.08023 -0.138965
119 2 11.3482 -1.39438 1.55991 11.3482 -1.39438 1.55991
120 2 11.3594 -1.40385 -1.8247 11.3594 -1.40385 -1.8247
121 1 12.4615 -2.80679 -0.124596 12.4615 -2.80679 -0.124596
122 2 14.42 -2.79227 1.48272 14.42 -2.79227 1.48272
123 2 14.4264 -2.78654 -1.72573 14.4264 -2.78654 -1.72573
124 1 15.2746 -1.08097 -0.117619 15.2746 -1.08097 -0.117619
125 2 17.0604 -1.42113 1.5623 17.0604 -1.42113 1.5623
126 2 17.0452 -1.37964 -1.8224 17.0452 -1.37964 -1.8224
127 1 18.1605 -2.80767 -0.151896 18.1605 -2.80767 -0.151896
128 2 20.1297 -2.80474 1.44322 20.1297 -2.80474 1.44322
129 2 20.1149 -2.77623 -1.76511 20.1149 -2.77623 -1.76511
130 1 20.9738 -1.08212 -0.14975 20.9738 -1.08212 -0.14975
131 2 22.7569 -1.41497 1.535 22.7569 -1.41497 1.535
132 2 22.7472 -1.38809 -1.84974 22.7472 -1.38809 -1.84974
133 1 23.8595 -2.80911 -0.172009 23.8595 -2.80911 -0.172009
134 2 25.8289 -2.78506 1.42299 25.8289 -2.78506 1.42299
135 2 25.8135 -2.7985 -1.78546 25.8135 -2.7985 -1.78546
136 1 26.6724 -1.08334 -0.192133 26.6724 -1.08334 -0.192133
137 2 28.4526 -1.38724 1.50122 28.4526 -1.38724 1.50122
138 2 28.4488 -1.41778 -1.88338 28.4488 -1.41778 -1.88338
139 1 29.5582 -2.81016 -0.179851 29.5582 -2.81016 -0.179851
140 2 31.5299 -2.76599 1.41188 31.5299 -2.76599 1.41188
141 2 31.5098 -2.8193 -1.79614 31.5098 -2.8193 -1.79614
142 1 32.3708 -1.08439 -0.225611 32.3708 -1.08439 -0.225611
143 2 34.1524 -1.36509 1.47046 34.1524 -1.36509 1.47046
144 2 34.146 -1.44122 -1.91336 34.146 -1.44122 -1.91336
145 1 35.2569 -2.81045 -0.191346 35.2569 -2.81045 -0.191346
146 2 37.2111 -2.77479 1.42192 37.2111 -2.77479 1.42192
147 2 37.2262 -2.81032 -1.78635 37.2262 -2.81032 -1.78635
148 1 38.0695 -1.08398 -0.197544 38.0695 -1.08398 -0.197544
149 2 39.8417 -1.38639 1.50428 39.8417 -1.38639 1.50428
150 2 39.854 -1.41915 -1.88048 39.854 -1.41915 -1.88048
151 1 40.9559 -2.80981 -0.17017 40.9559 -2.80981 -0.17017
152 2 42.9049 -2.78419 1.44875 42.9049 -2.78419 1.44875
153 2 42.9301 -2.79879 -1.75963 42.9301 -2.79879 -1.75963
154 1 43.7681 -1.0827 -0.157243 43.7681 -1.0827 -0.157243
155 2 45.5439 -1.40937 1.53587 45.5439 -1.40937 1.53587
156 2 45.5493 -1.39271 -1.84886 45.5493 -1.39271 -1.84886
157 1 46.6549 -2.80814 -0.161594 46.6549 -2.80814 -0.161594
158 2 48.6251 -2.78823 1.43237 48.6251 -2.78823 1.43237
159 2 48.6083 -2.79167 -1.77608 48.6083 -2.79167 -1.77608
160 1 49.4675 -1.08122 -0.177855 49.4675 -1.08122 -0.177855
161 2 51.2504 -1.39253 1.51162 51.2504 -1.39253 1.51162
162 2 51.2415 -1.40704 -1.87334 51.2415 -1.40704 -1.87334
163 1 0.996802 17.466 -0.178778 0.996802 17.466 -0.178778
164 2 2.77865 17.7706 1.51308 2.77865 17.7706 1.51308
165 2 2.77122 17.8002 -1.87173 2.77122 17.8002 -1.87173
166 1 3.88278 19.1928 -0.169101 3.88278 19.1928 -0.169101
167 2 5.82706 19.1847 1.45589 5.82706 19.1847 1.45589
168 2 5.86109 19.1657 -1.75233 5.86109 19.1657 -1.75233
169 1 6.69426 17.4663 -0.129549 6.69426 17.4663 -0.129549
170 2 8.46158 17.8046 1.57006 8.46158 17.8046 1.57006
171 2 8.48333 17.7658 -1.81458 8.48333 17.7658 -1.81458
172 1 9.58071 19.1924 -0.131745 9.58071 19.1924 -0.131745
173 2 11.5453 19.1715 1.46831 11.5453 19.1715 1.46831
174 2 11.539 19.1776 -1.7401 11.539 19.1776 -1.7401
175 1 12.3924 17.4655 -0.140585 12.3924 17.4655 -0.140585
176 2 14.1756 17.7835 1.54687 14.1756 17.7835 1.54687
177 2 14.1653 17.7855 -1.83844 14.1653 17.7855 -1.83844
178 1 15.2792 19.1911 -0.14824 15.2792 19.1911 -0.14824
179 2 17.2496 19.1785 1.4451 17.2496 19.1785 1.4451
180 2 17.2319 19.1675 -1.76327 17.2319 19.1675 -1.76327
181 1 18.0909 17.4639 -0.157956 18.0909 17.4639 -0.157956
182 2 19.8812 17.7911 1.52025 19.8812 17.7911 1.52025
183 2 19.8572 17.774 -1.86472 19.8572 17.774 -1.86472
184 1 20.9781 19.1892 -0.187155 20.9781 19.1892 -0.187155
185 2 22.9485 19.1831 1.40691 22.9485 19.1831 1.40691
186 2 22.9311 19.1597 -1.80132 22.9311 19.1597 -1.80132
187 1 23.7904 17.4625 -0.188867 23.7904 17.4625 -0.188867
188 2 25.5727 17.786 1.49893 25.5727 17.786 1.49893
189 2 25.5643 17.7772 -1.88651 25.5643 17.7772 -1.88651
190 1 26.6778 19.1879 -0.200463 26.6778 19.1879 -0.200463
191 2 28.6428 19.1759 1.40057 28.6428 19.1759 1.40057
192 2 28.6367 19.1651 -1.80774 28.6367 19.1651 -1.80774
193 1 29.4908 17.4618 -0.198886 29.4908 17.4618 -0.198886
194 2 31.2668 17.7778 1.49707 31.2668 17.7778 1.49707
195 2 31.2709 17.7847 -1.88842 31.2709 17.7847 -1.88842
196 1 32.378 19.1877 -0.191509 32.378 19.1877 -0.191509
197 2 34.3347 19.1796 1.41959 34.3347 19.1796 1.41959
198 2 34.3454 19.162 -1.78868 34.3454 19.162 -1.78868
199 1 35.1913 17.4622 -0.172172 35.1913 17.4622 -0.172172
200 2 36.962 17.7873 1.52742 36.962 17.7873 1.52742
201 2 36.9768 17.7766 -1.85793 36.9768 17.7766 -1.85793
202 1 38.0781 19.1888 -0.164814 38.0781 19.1888 -0.164814
203 2 40.0225 19.1889 1.4602 40.0225 19.1889 1.4602
204 2 40.0572 19.1553 -1.74781 40.0572 19.1553 -1.74781
205 1 40.891 17.4637 -0.1172 40.891 17.4637 -0.1172
206 2 42.6593 17.8131 1.57932 42.6593 17.8131 1.57932
207 2 42.6789 17.7539 -1.80535 42.6789 17.7539 -1.80535
208 1 43.7775 19.1905 -0.131776 43.7775 19.1905 -0.131776
209 2 45.7486 19.176 1.46079 45.7486 19.176 1.46079
210 2 45.7299 19.1711 -1.74755 45.7299 19.1711 -1.74755
211 1 46.5904 17.4649 -0.145331 46.5904 17.4649 -0.145331
212 2 48.376 17.784 1.53958 48.376 17.784 1.53958
213 2 48.3609 17.7852 -1.84546 48.3609 17.7852 -1.84546
214 1 49.4763 19.192 -0.157335 49.4763 19.192 -0.157335
215 2 51.4509 19.1752 1.4314 51.4509 19.1752 1.4314
216 2 51.4246 19.1745 -1.77692 51.4246 19.1745 -1.77692
217 1 1.06796 20.8253 -0.180021 1.06796 20.8253 -0.180021
218 2 2.94788 20.8343 1.45971 2.94788 20.8343 1.45971
219 2 2.96037 20.838 -1.80384 2.96037 20.838 -1.80384
220 1 3.91362 22.475 -0.166952 3.91362 22.475 -0.166952
221 2 5.80697 22.479 1.47272 5.80697 22.479 1.47272
222 2 5.8213 22.4669 -1.78987 5.8213 22.4669 -1.78987
223 1 6.76621 20.8254 -0.148391 6.76621 20.8254 -0.148391
224 2 8.64637 20.8434 1.48982 8.64637 20.8434 1.48982
225 2 8.65825 20.8282 -1.77369 8.65825 20.8282 -1.77369
226 1 9.61211 22.4745 -0.145738 9.61211 22.4745 -0.145738
227 2 11.5053 22.4699 1.49412 11.5053 22.4699 1.49412
228 2 11.5199 22.4745 -1.76848 11.5199 22.4745 -1.76848
229 1 12.4646 20.8246 -0.135069 12.4646 20.8246 -0.135069
230 2 14.3568 20.8326 1.48944 14.3568 20.8326 1.48944
231 2 14.3449 20.8368 -1.77406 14.3449 20.8368 -1.77406
232 1 15.3108 22.4732 -0.143808 15.3108 22.4732 -0.143808
233 2 17.223 22.4658 1.47347 17.223 22.4658 1.47347
234 2 17.1998 22.4757 -1.78904 17.1998 22.4757 -1.78904
235 1 18.1633 20.823 -0.169944 18.1633 20.823 -0.169944
236 2 20.0617 20.8373 1.4472 20.0617 20.8373 1.4472
237 2 20.0375 20.8285 -1.81617 20.0375 20.8285 -1.81617
238 1 21.0096 22.4715 -0.196315 21.0096 22.4715 -0.196315
239 2 22.9153 22.4609 1.42876 22.9153 22.4609 1.42876
240 2 22.9054 22.4774 -1.83373 22.9054 22.4774 -1.83373
241 1 23.8625 20.8214 -0.213949 23.8625 20.8214 -0.213949
242 2 25.7445 20.8363 1.42319 25.7445 20.8363 1.42319
243 2 25.7536 20.8267 -1.84016 25.7536 20.8267 -1.84016
244 1 26.7091 22.4703 -0.211003 26.7091 22.4703 -0.211003
245 2 28.6026 22.4563 1.42842 28.6026 22.4563 1.42842
246 2 28.6174 22.4802 -1.83398 28.6174 22.4802 -1.83398
247 1 29.5624 20.8207 -0.210632 29.5624 20.8207 -0.210632
248 2 31.4386 20.8316 1.43324 31.4386 20.8316 1.43324
249 2 31.4593 20.8307 -1.83005 31.4593 20.8307 -1.83005
250 1 32.4088 22.4702 -0.19302 32.4088 22.4702 -0.19302
251 2 34.3044 22.4629 1.44386 34.3044 22.4629 1.44386
252 2 34.3148 22.4741 -1.81863 34.3148 22.4741 -1.81863
253 1 35.2623 20.8212 -0.190264 35.2623 20.8212 -0.190264
254 2 37.1378 20.8383 1.45408 37.1378 20.8383 1.45408
255 2 37.1597 20.8258 -1.80921 37.1597 20.8258 -1.80921
256 1 38.1084 22.4711 -0.177349 38.1084 22.4711 -0.177349
257 2 40.0001 22.4797 1.46438 40.0001 22.4797 1.46438
258 2 40.0182 22.4598 -1.79807 40.0182 22.4598 -1.79807
259 1 40.9619 20.8226 -0.151539 40.9619 20.8226 -0.151539
260 2 42.8452 20.8497 1.483 42.8452 20.8497 1.483
261 2 42.8514 20.8176 -1.78028 42.8514 20.8176 -1.78028
262 1 43.8078 22.4726 -0.16256 43.8078 22.4726 -0.16256
263 2 45.7042 22.4745 1.47369 45.7042 22.4745 1.47369
264 2 45.7127 22.4682 -1.78889 45.7127 22.4682 -1.78889
265 1 46.661 20.8241 -0.151615 46.661 20.8241 -0.151615
266 2 48.5525 20.8383 1.47404 48.5525 20.8383 1.47404
267 2 48.542 20.832 -1.78946 48.542 20.832 -1.78946
268 1 49.5067 22.4742 -0.164237 49.5067 22.4742 -0.164237
269 2 51.4141 22.4694 1.45871 51.4141 22.4694 1.45871
270 2 51.4003 22.476 -1.80388 51.4003 22.476 -1.80388
271 1 1.06471 24.1202 -0.173242 1.06471 24.1202 -0.173242
272 2 2.96235 24.1236 1.46067 2.96235 24.1236 1.46067
273 2 2.96672 24.1191 -1.80181 2.96672 24.1191 -1.80181
274 1 3.91466 25.7673 -0.171535 3.91466 25.7673 -0.171535
275 2 5.80898 25.7679 1.46649 5.80898 25.7679 1.46649
276 2 5.82035 25.7663 -1.79612 5.82035 25.7663 -1.79612
277 1 6.76343 24.1202 -0.160597 6.76343 24.1202 -0.160597
278 2 8.65447 24.1206 1.48086 8.65447 24.1206 1.48086
279 2 8.67192 24.1214 -1.78158 8.67192 24.1214 -1.78158
280 1 9.61345 25.7669 -0.144705 9.61345 25.7669 -0.144705
281 2 11.5048 25.765 1.49686 11.5048 25.765 1.49686
282 2 11.5221 25.7677 -1.76571 11.5221 25.7677 -1.76571
283 1 12.4621 24.1194 -0.130759 12.4621 24.1194 -0.130759
284 2 14.3647 24.1122 1.49702 14.3647 24.1122 1.49702
285 2 14.3593 24.1275 -1.76541 14.3593 24.1275 -1.76541
286 1 15.3124 25.7657 -0.128083 15.3124 25.7657 -0.128083
287 2 17.2237 25.7536 1.4898 17.2237 25.7536 1.4898
288 2 17.2012 25.7761 -1.77264 17.2012 25.7761 -1.77264
289 1 18.161 24.1179 -0.159624 18.161 24.1179 -0.159624
290 2 20.0732 24.1041 1.45668 20.0732 24.1041 1.45668
291 2 20.0484 24.1323 -1.80553 20.0484 24.1323 -1.80553
292 1 21.0113 25.7641 -0.167198 21.0113 25.7641 -0.167198
293 2 22.9175 25.7446 1.45693 22.9175 25.7446 1.45693
294 2 22.9053 25.7821 -1.8054 22.9053 25.7821 -1.8054
295 1 23.86 24.1164 -0.197035 23.86 24.1164 -0.197035
296 2 25.7576 24.0992 1.43695 25.7576 24.0992 1.43695
297 2 25.7625 24.1347 -1.82523 25.7625 24.1347 -1.82523
298 1 26.7104 25.7629 -0.174327 26.7104 25.7629 -0.174327
299 2 28.6056 25.7422 1.46276 28.6056 25.7422 1.46276
300 2 28.6155 25.7829 -1.79951 28.6155 25.7829 -1.79951
301 1 29.5594 24.1157 -0.186375 29.5594 24.1157 -0.186375
302 2 31.4542 24.1014 1.45078 31.4542 24.1014 1.45078
303 2 31.4648 24.1318 -1.81144 31.4648 24.1318 -1.81144
304 1 32.4097 25.7628 -0.161551 32.4097 25.7628 -0.161551
305 2 34.3111 25.7488 1.46807 34.3111 25.7488 1.46807
306 2 34.3086 25.777 -1.79435 34.3086 25.777 -1.79435
307 1 35.2589 24.1161 -0.178569 35.2589 24.1161 -0.178569
308 2 37.1558 24.1137 1.45609 37.1558 24.1137 1.45609
309 2 37.1621 24.1212 -1.80628 37.1621 24.1212 -1.80628
310 1 38.109 25.7637 -0.169307 38.109 25.7637 -0.169307
311 2 40.0092 25.7619 1.462 40.0092 25.7619 1.462
312 2 40.0092 25.7663 -1.80056 40.0092 25.7663 -1.80056
313 1 40.9583 24.1174 -0.171701 40.9583 24.1174 -0.171701
314 2 42.8539 24.1205 1.46452 42.8539 24.1205 1.46452
315 2 42.8627 24.1173 -1.79789 42.8627 24.1173 -1.79789
316 1 43.8083 25.7652 -0.165671 43.8083 25.7652 -0.165671
317 2 45.7045 25.7658 1.4703 45.7045 25.7658 1.4703
318 2 45.7124 25.7654 -1.79228 45.7124 25.7654 -1.79228
319 1 46.6575 24.1189 -0.158516 46.6575 24.1189 -0.158516
320 2 48.5602 24.1199 1.46921 48.5602 24.1199 1.46921
321 2 48.5545 24.121 -1.79325 48.5545 24.121 -1.79325
322 1 49.5074 25.7666 -0.163294 49.5074 25.7666 -0.163294
323 2 51.4109 25.7632 1.46377 51.4109 25.7632 1.46377
324 2 51.404 25.7705 -1.79883 51.404 25.7705 -1.79883
325 1 1.06584 27.4132 -0.166008 1.06584 27.4132 -0.166008
326 2 2.96667 27.41 1.46421 2.96667 27.41 1.46421
327 2 2.96487 27.4174 -1.79848 2.96487 27.4174 -1.79848
328 1 3.91601 29.0597 -0.163733 3.91601 29.0597 -0.163733
329 2 5.81392 29.0578 1.47009 5.81392 29.0578 1.47009
330 2 5.81805 29.0618 -1.79258 5.81805 29.0618 -1.79258
331 1 6.76481 27.4132 -0.162167 6.76481 27.4132 -0.162167
332 2 8.65576 27.4149 1.4798 8.65576 27.4149 1.4798
333 2 8.67365 27.4119 -1.78285 8.67365 27.4119 -1.78285
334 1 9.61503 29.0593 -0.147492 9.61503 29.0593 -0.147492
335 2 11.5092 29.068 1.49087 11.5092 29.068 1.49087
336 2 11.5208 29.0501 -1.77173 11.5208 29.0501 -1.77173
337 1 12.4637 27.4124 -0.127851 12.4637 27.4124 -0.127851
338 2 14.3639 27.4122 1.50337 14.3639 27.4122 1.50337
339 2 14.3634 27.4124 -1.7593 14.3634 27.4124 -1.7593
340 1 15.314 29.0583 -0.127939 15.314 29.0583 -0.127939
341 2 17.222 29.0627 1.49426 17.222 29.0627 1.49426
342 2 17.2061 29.053 -1.76832 17.2061 29.053 -1.76832
343 1 18.1627 27.411 -0.136498 18.1627 27.411 -0.136498
344 2 20.0742 27.4003 1.4814 20.0742 27.4003 1.4814
345 2 20.0511 27.4211 -1.78111 20.0511 27.4211 -1.78111
346 1 21.013 29.0567 -0.14583 21.013 29.0567 -0.14583
347 2 22.9201 29.0556 1.47762 22.9201 29.0556 1.47762
348 2 22.9058 29.0571 -1.78498 22.9058 29.0571 -1.78498
349 1 23.8616 27.4095 -0.158431 23.8616 27.4095 -0.158431
350 2 25.7623 27.3947 1.47248 25.7623 27.3947 1.47248
351 2 25.761 27.4243 -1.79001 25.761 27.4243 -1.79001
352 1 26.7119 29.0557 -0.143709 26.7119 29.0557 -0.143709
353 2 28.6117 29.0539 1.48837 28.6117 29.0539 1.48837
354 2 28.6121 29.0573 -1.77422 28.6121 29.0573 -1.77422
355 1 29.5607 27.4088 -0.144519 29.5607 27.4088 -0.144519
356 2 31.4622 27.3951 1.4852 31.4622 27.3951 1.4852
357 2 31.4593 27.4234 -1.77728 31.4593 27.4234 -1.77728
358 1 32.4109 29.0555 -0.132345 32.4109 29.0555 -0.132345
359 2 34.318 29.0513 1.49088 34.318 29.0513 1.49088
360 2 34.304 29.0606 -1.77167 34.304 29.0606 -1.77167
361 1 35.2599 27.4093 -0.149338 35.2599 27.4093 -0.149338
362 2 37.1665 27.402 1.47428 37.1665 27.402 1.47428
363 2 37.1534 27.4182 -1.78828 37.1534 27.4182 -1.78828
364 1 38.1101 29.0564 -0.152527 38.1101 29.0564 -0.152527
365 2 40.0161 29.0533 1.47189 40.0161 29.0533 1.47189
366 2 40.0042 29.0607 -1.79071 40.0042 29.0607 -1.79071
367 1 40.9592 27.4106 -0.166797 40.9592 27.4106 -0.166797
368 2 42.8574 27.4094 1.46677 42.8574 27.4094 1.46677
369 2 42.861 27.4136 -1.79588 42.861 27.4136 -1.79588
370 1 43.8093 29.0577 -0.161257 43.8093 29.0577 -0.161257
371 2 45.7072 29.057 1.47265 45.7072 29.057 1.47265
372 2 45.7115 29.0599 -1.79 45.7115 29.0599 -1.79
373 1 46.6584 27.412 -0.15891 46.6584 27.412 -0.15891
374 2 48.5589 27.4095 1.47178 48.5589 27.4095 1.47178
375 2 48.5579 27.4164 -1.79089 48.5579 27.4164 -1.79089
376 1 49.5085 29.059 -0.15653 49.5085 29.059 -0.15653
377 2 51.4096 29.0522 1.47347 51.4096 29.0522 1.47347
378 2 51.4075 29.067 -1.78916 51.4075 29.067 -1.78916
379 1 1.06717 30.7056 -0.150963 1.06717 30.7056 -0.150963
380 2 2.96958 30.6979 1.47744 2.96958 30.6979 1.47744
381 2 2.96469 30.7142 -1.78522 2.96469 30.7142 -1.78522
382 1 3.9175 32.3518 -0.146897 3.9175 32.3518 -0.146897
383 2 5.82276 32.3509 1.47823 5.82276 32.3509 1.47823
384 2 5.81215 32.3532 -1.78448 5.81215 32.3532 -1.78448
385 1 6.76631 30.7057 -0.157615 6.76631 30.7057 -0.157615
386 2 8.66473 30.7129 1.47569 8.66473 30.7129 1.47569
387 2 8.66779 30.6985 -1.78699 8.66779 30.6985 -1.78699
388 1 9.61666 32.3515 -0.161719 9.61666 32.3515 -0.161719
389 2 11.5183 32.3697 1.4677 11.5183 32.3697 1.4677
390 2 11.5149 32.3331 -1.79481 11.5149 32.3331 -1.79481
391 1 12.4654 30.705 -0.14586 12.4654 30.705 -0.14586
392 2 14.3659 30.7229 1.48495 14.3659 30.7229 1.48495
393 2 14.3647 30.6867 -1.77754 14.3647 30.6867 -1.77754
394 1 15.3157 32.3505 -0.16507 15.3157 32.3505 -0.16507
395 2 17.2183 32.3725 1.46307 17.2183 32.3725 1.46307
396 2 17.2129 32.328 -1.79931 17.2129 32.328 -1.79931
397 1 18.1644 30.7038 -0.146627 18.1644 30.7038 -0.146627
398 2 20.072 30.7169 1.47591 20.072 30.7169 1.47591
399 2 20.0566 30.69 -1.78661 20.0566 30.69 -1.78661
400 1 21.0146 32.3493 -0.173611 21.0146 32.3493 -0.173611
401 2 22.9178 32.3707 1.45392 22.9178 32.3707 1.45392
402 2 22.9113 32.3274 -1.80846 22.9113 32.3274 -1.80846
403 1 23.8632 30.7025 -0.156842 23.8632 30.7025 -0.156842
404 2 25.7643 30.7164 1.47368 25.7643 30.7164 1.47368
405 2 25.7621 30.6884 -1.78885 25.7621 30.6884 -1.78885
406 1 26.7135 32.3484 -0.172369 26.7135 32.3484 -0.172369
407 2 28.6098 32.3724 1.46331 28.6098 32.3724 1.46331
408 2 28.617 32.3245 -1.79898 28.617 32.3245 -1.79898
409 1 29.5621 30.7019 -0.140924 29.5621 30.7019 -0.140924
410 2 31.4629 30.7114 1.4898 31.4629 30.7114 1.4898
411 2 31.4613 30.6929 -1.77278 31.4613 30.6929 -1.77278
412 1 32.4123 32.3483 -0.151613 32.4123 32.3483 -0.151613
413 2 34.3119 32.3591 1.48028 34.3119 32.3591 1.48028
414 2 34.3128 32.3382 -1.78232 34.3128 32.3382 -1.78232
415 1 35.2612 30.7022 -0.139875 35.2612 30.7022 -0.139875
416 2 37.1683 30.7026 1.48313 37.1683 30.7026 1.48313
417 2 37.154 30.7029 -1.77949 37.154 30.7029 -1.77949
418 1 38.1114 32.3489 -0.15238 38.1114 32.3489 -0.15238
419 2 40.0149 32.3491 1.47481 40.0149 32.3491 1.47481
420 2 40.0079 32.35 -1.78787 40.0079 32.35 -1.78787
421 1 40.9603 30.7032 -0.159025 40.9603 30.7032 -0.159025
422 2 42.8612 30.7032 1.47142 42.8612 30.7032 1.47142
423 2 42.8595 30.7048 -1.79126 42.8595 30.7048 -1.79126
424 1 43.8106 32.3501 -0.159555 43.8106 32.3501 -0.159555
425 2 45.7077 32.349 1.47534 45.7077 32.349 1.47534
426 2 45.7136 32.3525 -1.78735 45.7136 32.3525 -1.78735
427 1 46.6596 30.7046 -0.155997 46.6596 30.7046 -0.155997
428 2 48.5566 30.6996 1.4788 48.5566 30.6996 1.4788
429 2 48.5625 30.711 -1.78387 48.5625 30.711 -1.78387
430 1 49.5099 32.3513 -0.145085 49.5099 32.3513 -0.145085
431 2 51.4088 32.3442 1.48751 51.4088 32.3442 1.48751
432 2 51.4109 32.3595 -1.77516 51.4109 32.3595 -1.77516
433 1 1.06864 33.9977 -0.135498 1.06864 33.9977 -0.135498
434 2 2.97198 33.9928 1.49188 2.97198 33.9928 1.49188
435 2 2.96525 34.0033 -1.77082 2.96525 34.0033 -1.77082
436 1 3.9191 35.6438 -0.136154 3.9191 35.6438 -0.136154
437 2 5.82931 35.6438 1.48295 5.82931 35.6438 1.48295
438 2 5.80875 35.6442 -1.77972 5.80875 35.6442 -1.77972
439 1 6.76788 33.9978 -0.154843 6.76788 33.9978 -0.154843
440 2 8.67665 34.0066 1.46604 8.67665 34.0066 1.46604
441 2 8.65896 33.989 -1.7966 8.65896 33.989 -1.7966
442 1 9.61821 35.6435 -0.179371 9.61821 35.6435 -0.179371
443 2 11.5268 35.655 1.4416 11.5268 35.655 1.4416
444 2 11.5095 35.6318 -1.82099 11.5095 35.6318 -1.82099
445 1 12.467 33.997 -0.183114 12.467 33.997 -0.183114
446 2 14.369 34.018 1.44565 14.369 34.018 1.44565
447 2 14.3648 33.9757 -1.81679 14.3648 33.9757 -1.81679
448 1 15.3172 35.6425 -0.208623 15.3172 35.6425 -0.208623
449 2 17.2147 35.6539 1.42532 17.2147 35.6539 1.42532
450 2 17.2196 35.6308 -1.8373 17.2196 35.6308 -1.8373
451 1 18.1659 33.9959 -0.192673 18.1659 33.9959 -0.192673
452 2 20.0666 34.0155 1.43754 20.0666 34.0155 1.43754
453 2 20.0651 33.9758 -1.82492 20.0651 33.9758 -1.82492
454 1 21.0161 35.6414 -0.21476 21.0161 35.6414 -0.21476
455 2 22.9151 35.6533 1.41718 22.9151 35.6533 1.41718
456 2 22.917 35.6292 -1.84543 22.917 35.6292 -1.84543
457 1 23.8648 33.9948 -0.201336 23.8648 33.9948 -0.201336
458 2 25.7628 34.0197 1.43201 25.7628 34.0197 1.43201
459 2 25.7667 33.9697 -1.83028 25.7667 33.9697 -1.83028
460 1 26.715 35.6406 -0.223596 26.715 35.6406 -0.223596
461 2 28.6063 35.6584 1.41752 28.6063 35.6584 1.41752
462 2 28.6237 35.6229 -1.84491 28.6237 35.6229 -1.84491
463 1 29.5637 33.9943 -0.190344 29.5637 33.9943 -0.190344
464 2 31.454 34.0157 1.45208 31.454 34.0157 1.45208
465 2 31.4732 33.9736 -1.81027 31.4732 33.9736 -1.81027
466 1 32.4139 35.6406 -0.195286 32.4139 35.6406 -0.195286
467 2 34.2995 35.649 1.4526 34.2995 35.649 1.4526
468 2 34.3281 35.633 -1.80993 34.3281 35.633 -1.80993
469 1 35.2626 33.9947 -0.161804 35.2626 33.9947 -0.161804
470 2 37.1594 33.999 1.47313 37.1594 33.999 1.47313
471 2 37.1657 33.9915 -1.78955 37.1657 33.9915 -1.78955
472 1 38.1129 35.6412 -0.160398 38.1129 35.6412 -0.160398
473 2 40.0105 35.6401 1.47349 40.0105 35.6401 1.47349
474 2 40.0152 35.6435 -1.78922 40.0152 35.6435 -1.78922
475 1 40.9617 33.9956 -0.158195 40.9617 33.9956 -0.158195
476 2 42.8621 33.9958 1.47261 42.8621 33.9958 1.47261
477 2 42.8613 33.9968 -1.7901 42.8613 33.9968 -1.7901
478 1 43.8121 35.6422 -0.15832 43.8121 35.6422 -0.15832
479 2 45.7097 35.6446 1.47586 45.7097 35.6446 1.47586
480 2 45.7144 35.6412 -1.78686 45.7144 35.6412 -1.78686
481 1 46.661 33.9967 -0.152407 46.661 33.9967 -0.152407
482 2 48.556 33.9958 1.4849 48.556 33.9958 1.4849
483 2 48.5659 33.9991 -1.7778 48.5659 33.9991 -1.7778
484 1 49.5114 35.6433 -0.141863 49.5114 35.6433 -0.141863
485 2 51.4073 35.643 1.49432 51.4073 35.643 1.49432
486 2 51.4154 35.6447 -1.7684 51.4154 35.6447 -1.7684
487 1 1.07026 37.2896 -0.133904 1.07026 37.2896 -0.133904
488 2 2.9716 37.2902 1.49583 2.9716 37.2902 1.49583
489 2 2.96885 37.2897 -1.76691 2.96885 37.2897 -1.76691
490 1 3.92087 38.9356 -0.136803 3.92087 38.9356 -0.136803
491 2 5.82984 38.9346 1.48368 5.82984 38.9346 1.48368
492 2 5.81174 38.937 -1.77902 5.81174 38.937 -1.77902
493 1 6.76955 37.2896 -0.154354 6.76955 37.2896 -0.154354
494 2 8.68394 37.2908 1.45963 8.68394 37.2908 1.45963
495 2 8.65487 37.2886 -1.80299 8.65487 37.2886 -1.80299
496 1 9.61995 38.9354 -0.181529 9.61995 38.9354 -0.181529
497 2 11.5294 38.9277 1.43827 11.5294 38.9277 1.43827
498 2 11.5102 38.9432 -1.82438 11.5102 38.9432 -1.82438
499 1 12.4685 37.2891 -0.206747 12.4685 37.2891 -0.206747
500 2 14.3697 37.2896 1.42292 14.3697 37.2896 1.42292
501 2 14.3672 37.2884 -1.8398 14.3672 37.2884 -1.8398
502 1 15.319 38.9348 -0.210045 15.319 38.9348 -0.210045
503 2 17.2124 38.9174 1.42858 17.2124 38.9174 1.42858
504 2 17.2254 38.952 -1.83394 17.2254 38.952 -1.83394
505 1 18.1675 37.2882 -0.216729 18.1675 37.2882 -0.216729
506 2 20.063 37.283 1.41929 20.063 37.283 1.41929
507 2 20.0718 37.293 -1.8434 20.0718 37.293 -1.8434
508 1 21.0178 38.9338 -0.204636 21.0178 38.9338 -0.204636
509 2 22.9173 38.9129 1.42648 22.9173 38.9129 1.42648
510 2 22.9181 38.9544 -1.83598 22.9181 38.9544 -1.83598
511 1 23.8663 37.2872 -0.226118 23.8663 37.2872 -0.226118
512 2 25.7644 37.2872 1.4068 25.7644 37.2872 1.4068
513 2 25.7681 37.287 -1.85589 25.7681 37.287 -1.85589
514 1 26.7166 38.9331 -0.223573 26.7166 38.9331 -0.223573
515 2 28.6114 38.9216 1.41343 28.6114 38.9216 1.41343
516 2 28.6217 38.9447 -1.84916 28.6217 38.9447 -1.84916
517 1 29.5653 37.2867 -0.226868 29.5653 37.2867 -0.226868
518 2 31.4494 37.2907 1.42271 31.4494 37.2907 1.42271
519 2 31.481 37.2832 -1.83981 31.481 37.2832 -1.83981
520 1 32.4157 38.9329 -0.20314 32.4157 38.9329 -0.20314
521 2 34.2973 38.9259 1.44935 34.2973 38.9259 1.44935
522 2 34.3337 38.9406 -1.81313 34.3337 38.9406 -1.81313
523 1 35.2642 37.287 -0.178705 35.2642 37.287 -0.178705
524 2 37.1517 37.2843 1.46687 37.1517 37.2843 1.46687
525 2 37.1765 37.2907 -1.79575 37.1765 37.2907 -1.79575
526 1 38.1146 38.9333 -0.153967 38.1146 38.9333 -0.153967
527 2 40.0121 38.9292 1.48002 40.0121 38.9292 1.48002
528 2 40.017 38.9385 -1.7827 40.017 38.9385 -1.7827
529 1 40.9633 37.2877 -0.154784 40.9633 37.2877 -0.154784
530 2 42.8649 37.288 1.47445 42.8649 37.288 1.47445
531 2 42.8616 37.2887 -1.78828 42.8616 37.2887 -1.78828
532 1 43.8139 38.9341 -0.157398 43.8139 38.9341 -0.157398
533 2 45.716 38.9404 1.47142 45.716 38.9404 1.47142
534 2 45.7116 38.9293 -1.79131 45.7116 38.9293 -1.79131