ITEM: TIMESTEP
4537000
ITEM: NUMBER OF ATOMS
810
ITEM: BOX BOUNDS pp pp pp
8.6298438867990135e-01 5.2154620611319167e+01
-1.0389794747763675e+01 6.1406009747763257e+01
-1.0000000000000000e+01 1.0000000000000000e+01
ITEM: ATOMS id type x y z xu yu zu
1 1 1.07868 57.9796 -0.0724466 1.07868 -13.8162 -0.0724466
2 2 2.96141 57.9739 1.57928 2.96141 -13.8219 1.57928
3 2 2.99635 57.9856 -1.68287 2.99635 -13.8102 -1.68287
4 1 3.92823 59.6271 -0.0356545 3.92823 -12.1687 -0.0356545
5 2 5.84442 59.6413 1.57588 5.84442 -12.1545 1.57588
6 2 5.81256 59.6103 -1.68604 5.81256 -12.1855 -1.68604
7 1 6.77795 57.9787 -0.0487755 6.77795 -13.8171 -0.0487755
8 2 8.69997 57.9885 1.55658 8.69997 -13.8073 1.55658
9 2 8.65644 57.968 -1.70543 8.65644 -13.8278 -1.70543
10 1 9.62746 59.6253 -0.0977514 9.62746 -12.1705 -0.0977514
11 2 11.5514 59.6325 1.50536 11.5514 -12.1634 1.50536
12 2 11.5036 59.6145 -1.75648 11.5036 -12.1813 -1.75648
13 1 12.4769 57.9765 -0.130615 12.4769 -13.8193 -0.130615
14 2 14.405 57.984 1.46714 14.405 -13.8118 1.46714
15 2 14.349 57.968 -1.79472 14.349 -13.8279 -1.79472
16 1 15.3268 59.6227 -0.188646 15.3268 -12.1731 -0.188646
17 2 17.2364 59.6169 1.43163 17.2364 -12.1789 1.43163
18 2 17.2178 59.6254 -1.83056 17.2178 -12.1704 -1.83056
19 1 18.1764 57.9742 -0.20921 18.1764 -13.8216 -0.20921
20 2 20.0782 57.9769 1.42052 20.0782 -13.8189 1.42052
21 2 20.0756 57.971 -1.84189 20.0756 -13.8248 -1.84189
22 1 21.0269 59.6207 -0.214832 21.0269 -12.1751 -0.214832
23 2 22.9287 59.6148 1.41397 22.9287 -12.181 1.41397
24 2 22.9255 59.6238 -1.84836 22.9255 -12.172 -1.84836
25 1 23.8765 57.9727 -0.222817 23.8765 -13.8231 -0.222817
26 2 25.7818 57.9785 1.40239 25.7818 -13.8173 1.40239
27 2 25.772 57.9672 -1.86 25.772 -13.8286 -1.86
28 1 26.7267 59.6197 -0.237797 26.7267 -12.1761 -0.237797
29 2 28.6266 59.6117 1.39341 28.6266 -12.1841 1.39341
30 2 28.6272 59.6267 -1.86886 28.6272 -12.1691 -1.86886
31 1 29.576 57.9723 -0.245111 29.576 -13.8235 -0.245111
32 2 31.4657 57.9768 1.39835 31.4657 -13.819 1.39835
33 2 31.4869 57.9694 -1.86399 31.4869 -13.8264 -1.86399
34 1 32.4257 59.6205 -0.23056 32.4257 -12.1753 -0.23056
35 2 34.3155 59.6133 1.41216 34.3155 -12.1825 1.41216
36 2 34.3355 59.6272 -1.85009 34.3355 -12.1686 -1.85009
37 1 35.2745 57.9734 -0.220128 35.2745 -13.8224 -0.220128
38 2 37.1717 57.9766 1.41434 37.1717 -13.8192 1.41434
39 2 37.1775 57.9722 -1.84812 37.1775 -13.8236 -1.84812
40 1 38.1238 59.6219 -0.217515 38.1238 -12.1739 -0.217515
41 2 40.026 59.6255 1.41054 40.026 -12.1703 1.41054
42 2 40.0214 59.6183 -1.85178 40.0214 -12.1775 -1.85178
43 1 40.9732 57.9755 -0.218235 40.9732 -13.8203 -0.218235
44 2 42.867 57.9845 1.42047 42.867 -13.8113 1.42047
45 2 42.8798 57.9694 -1.84192 42.8798 -13.8264 -1.84192
46 1 43.8227 59.6243 -0.214646 43.8227 -12.1715 -0.214646
47 2 45.7035 59.625 1.43924 45.7035 -12.1708 1.43924
48 2 45.7419 59.6242 -1.82285 45.7419 -12.1716 -1.82285
49 1 46.6722 57.9781 -0.179932 46.6722 -13.8177 -0.179932
50 2 48.5466 57.9765 1.48123 48.5466 -13.8193 1.48123
51 2 48.5978 57.9824 -1.78077 48.5978 -13.8134 -1.78077
52 1 49.5213 59.6268 -0.131561 49.5213 -12.169 -0.131561
53 2 51.3866 59.6251 1.53969 51.3866 -12.1707 1.53969
54 2 51.4553 59.6281 -1.72183 51.4553 -12.1677 -1.72183
55 1 1.07855 61.2735 -0.0694088 1.07855 -10.5223 -0.0694088
56 2 2.95528 61.2675 1.58978 2.95528 -10.5284 1.58978
57 2 3.00318 61.2831 -1.6722 3.00318 -10.5127 -1.6722
58 1 3.93207 -8.8727 -0.0193551 3.93207 -8.8727 -0.0193551
59 2 5.84782 -8.89278 1.57579 5.84782 -8.89278 1.57579
60 2 5.79007 -8.87497 -1.68692 5.79007 -8.87497 -1.68692
61 1 6.7778 61.2724 -0.0803874 6.7778 -10.5234 -0.0803874
62 2 8.70319 61.2989 1.52134 8.70319 -10.4969 1.52134
63 2 8.65389 61.2479 -1.74031 8.65389 -10.5479 -1.74031
64 1 9.63118 -8.8753 -0.149383 9.63118 -8.8753 -0.149383
65 2 11.5317 -8.8628 1.46782 11.5317 -8.8628 1.46782
66 2 11.5046 -8.91096 -1.79491 11.5046 -8.91096 -1.79491
67 1 12.4775 61.2698 -0.148579 12.4775 -10.526 -0.148579
68 2 14.4011 61.2707 1.45559 14.4011 -10.5251 1.45559
69 2 14.3558 61.2712 -1.8065 14.3558 -10.5246 -1.8065
70 1 15.3321 -8.8776 -0.189374 15.3321 -8.8776 -0.189374
71 2 17.2179 -8.90156 1.44324 17.2179 -8.90156 1.44324
72 2 17.2198 -8.87577 -1.81999 17.2198 -8.87577 -1.81999
73 1 18.1776 61.2674 -0.200778 18.1776 -10.5284 -0.200778
74 2 20.0723 61.244 1.43788 20.0723 -10.5519 1.43788
75 2 20.0849 61.2935 -1.82421 20.0849 -10.5023 -1.82421
76 1 21.0321 -8.88029 -0.164638 21.0321 -8.88029 -0.164638
77 2 22.924 -8.92974 1.45879 22.924 -8.92974 1.45879
78 2 22.9129 -8.85311 -1.80391 22.9129 -8.85311 -1.80391
79 1 23.8772 61.2655 -0.214025 23.8772 -10.5303 -0.214025
80 2 25.7802 61.2482 1.41427 25.7802 -10.5476 1.41427
81 2 25.776 61.2867 -1.84802 25.776 -10.5091 -1.84802
82 1 26.731 -8.88116 -0.198554 26.731 -8.88116 -0.198554
83 2 28.618 -8.92062 1.43224 28.618 -8.92062 1.43224
84 2 28.6168 -8.86182 -1.83064 28.6168 -8.86182 -1.83064
85 1 29.5766 61.2658 -0.229905 29.5766 -10.53 -0.229905
86 2 31.471 61.2574 1.40844 31.471 -10.5384 1.40844
87 2 31.4837 61.2797 -1.85396 31.4837 -10.5161 -1.85396
88 1 32.4297 -8.87926 -0.20765 32.4297 -8.87926 -0.20765
89 2 34.3038 -8.90888 1.43829 34.3038 -8.90888 1.43829
90 2 34.3279 -8.86939 -1.82492 34.3279 -8.86939 -1.82492
91 1 35.2747 61.2672 -0.206403 35.2747 -10.5286 -0.206403
92 2 37.1704 61.2512 1.43007 37.1704 -10.5446 1.43007
93 2 37.1801 61.2883 -1.83224 37.1801 -10.5075 -1.83224
94 1 38.1276 -8.87832 -0.179614 38.1276 -8.87832 -0.179614
95 2 40.024 -8.91502 1.43892 40.024 -8.91502 1.43892
96 2 40.0035 -8.86098 -1.82409 40.0035 -8.86098 -1.82409
97 1 40.9731 61.2689 -0.225785 40.9731 -10.5269 -0.225785
98 2 42.8712 61.2786 1.40822 42.8712 -10.5172 1.40822
99 2 42.8766 61.2653 -1.85422 42.8766 -10.5305 -1.85422
100 1 43.8264 -8.87587 -0.227727 43.8264 -8.87587 -0.227727
101 2 45.6896 -8.88003 1.43267 45.6896 -8.88003 1.43267
102 2 45.7362 -8.89111 -1.83036 45.7362 -8.89111 -1.83036
103 1 46.6721 61.2714 -0.180708 46.6721 -10.5244 -0.180708
104 2 48.5464 61.2779 1.48074 48.5464 -10.5179 1.48074
105 2 48.5989 61.2714 -1.7813 48.5989 -10.5244 -1.7813
106 1 49.525 -8.87316 -0.138341 49.525 -8.87316 -0.138341
107 2 51.3767 -8.875 1.53346 51.3767 -8.875 1.53346
108 2 51.4454 -8.89082 -1.72918 51.4454 -8.89082 -1.72918
109 1 1.04825 -7.23945 -0.0859353 1.04825 -7.23945 -0.0859353
110 2 2.97186 -7.2191 1.56216 2.97186 -7.2191 1.56216
111 2 3.04786 -7.22418 -1.64529 3.04786 -7.22418 -1.64529
112 1 3.86065 -5.51321 -0.0261342 3.86065 -5.51321 -0.0261342
113 2 5.63345 -5.87945 1.66054 5.63345 -5.87945 1.66054
114 2 5.64635 -5.78263 -1.72124 5.64635 -5.78263 -1.72124
115 1 6.74792 -7.24013 -0.0672696 6.74792 -7.24013 -0.0672696
116 2 8.76895 -7.20053 1.46266 8.76895 -7.20053 1.46266
117 2 8.64918 -7.24822 -1.74303 8.64918 -7.24822 -1.74303
118 1 9.56032 -5.51679 -0.195337 9.56032 -5.51679 -0.195337
119 2 11.3754 -5.77503 1.47024 11.3754 -5.77503 1.47024
120 2 11.3015 -5.89821 -1.91174 11.3015 -5.89821 -1.91174
121 1 12.448 -7.24337 -0.192472 12.448 -7.24337 -0.192472
122 2 14.403 -7.23892 1.42199 14.403 -7.23892 1.42199
123 2 14.4184 -7.21445 -1.78627 14.4184 -7.21445 -1.78627
124 1 15.2627 -5.51865 -0.165742 15.2627 -5.51865 -0.165742
125 2 17.0369 -5.85422 1.52779 17.0369 -5.85422 1.52779
126 2 17.0461 -5.82078 -1.85621 17.0461 -5.82078 -1.85621
127 1 18.1492 -7.24579 -0.174754 18.1492 -7.24579 -0.174754
128 2 20.0846 -7.26483 1.46129 20.0846 -7.26483 1.46129
129 2 20.1382 -7.19349 -1.74593 20.1382 -7.19349 -1.74593
130 1 20.9624 -5.52147 -0.0910134 20.9624 -5.52147 -0.0910134
131 2 22.7311 -5.90287 1.59757 22.7311 -5.90287 1.59757
132 2 22.7522 -5.77628 -1.7829 22.7522 -5.77628 -1.7829
133 1 23.8476 -7.24903 -0.139028 23.8476 -7.24903 -0.139028
134 2 25.8243 -7.26283 1.44648 25.8243 -7.26283 1.44648
135 2 25.7935 -7.19997 -1.76109 25.7935 -7.19997 -1.76109
136 1 26.6596 -5.52269 -0.131094 26.6596 -5.52269 -0.131094
137 2 28.446 -5.865 1.54869 28.446 -5.865 1.54869
138 2 28.4279 -5.82015 -1.83734 28.4279 -5.82015 -1.83734
139 1 29.5463 -7.2478 -0.168925 29.5463 -7.2478 -0.168925
140 2 31.5153 -7.25529 1.42732 31.5153 -7.25529 1.42732
141 2 31.5007 -7.20255 -1.78072 31.5007 -7.20255 -1.78072
142 1 32.3577 -5.51991 -0.151789 32.3577 -5.51991 -0.151789
143 2 34.1365 -5.85184 1.53801 34.1365 -5.85184 1.53801
144 2 34.1372 -5.82257 -1.84541 34.1372 -5.82257 -1.84541
145 1 35.2443 -7.24586 -0.165795 35.2443 -7.24586 -0.165795
146 2 37.1971 -7.25611 1.44902 37.1971 -7.25611 1.44902
147 2 37.2148 -7.19955 -1.75888 37.2148 -7.19955 -1.75888
148 1 38.0561 -5.51918 -0.120571 38.0561 -5.51918 -0.120571
149 2 39.8378 -5.88137 1.55871 39.8378 -5.88137 1.55871
150 2 39.832 -5.79244 -1.82414 39.832 -5.79244 -1.82414
151 1 40.9425 -7.24462 -0.172339 40.9425 -7.24462 -0.172339
152 2 42.935 -7.22707 1.39453 42.935 -7.22707 1.39453
153 2 42.8726 -7.22403 -1.81327 42.8726 -7.22403 -1.81327
154 1 43.7536 -5.51646 -0.222498 43.7536 -5.51646 -0.222498
155 2 45.5359 -5.79594 1.47418 45.5359 -5.79594 1.47418
156 2 45.5287 -5.8724 -1.90928 45.5287 -5.8724 -1.90928
157 1 46.6412 -7.2414 -0.187792 46.6412 -7.2414 -0.187792
158 2 48.5789 -7.2187 1.44689 48.5789 -7.2187 1.44689
159 2 48.6272 -7.22668 -1.76118 48.6272 -7.22668 -1.76118
160 1 49.4532 -5.51372 -0.148521 49.4532 -5.51372 -0.148521
161 2 51.2029 -5.81821 1.57607 51.2029 -5.81821 1.57607
162 2 51.2612 -5.84383 -1.80697 51.2612 -5.84383 -1.80697
163 1 1.0053 18.3843 -0.0765549 1.0053 18.3843 -0.0765549
164 2 2.79735 18.7344 1.59407 2.79735 18.7344 1.59407
165 2 2.77027 18.6699 -1.789 2.77027 18.6699 -1.789
166 1 3.89009 20.1107 -0.133925 3.89009 20.1107 -0.133925
167 2 5.90454 20.0668 1.40403 5.90454 20.0668 1.40403
168 2 5.79566 20.1157 -1.80233 5.79566 20.1157 -1.80233
169 1 6.698 18.3822 -0.251665 6.698 18.3822 -0.251665
170 2 8.50293 18.6261 1.42648 8.50293 18.6261 1.42648
171 2 8.45149 18.7709 -1.95322 8.45149 18.7709 -1.95322
172 1 9.58566 20.1063 -0.219214 9.58566 20.1063 -0.219214
173 2 11.5423 20.0688 1.39182 11.5423 20.0688 1.39182
174 2 11.5523 20.1036 -1.81635 11.5523 20.1036 -1.81635
175 1 12.3967 18.3768 -0.228485 12.3967 18.3768 -0.228485
176 2 14.1683 18.6695 1.47586 14.1683 18.6695 1.47586
177 2 14.1823 18.7184 -1.90895 14.1823 18.7184 -1.90895
178 1 15.2858 20.0996 -0.191372 15.2858 20.0996 -0.191372
179 2 17.2188 20.0817 1.44702 17.2188 20.0817 1.44702
180 2 17.2776 20.0794 -1.76068 17.2776 20.0794 -1.76068
181 1 18.0988 18.3718 -0.141725 18.0988 18.3718 -0.141725
182 2 19.8707 18.7262 1.5493 19.8707 18.7262 1.5493
183 2 19.8849 18.653 -1.83443 19.8849 18.653 -1.83443
184 1 20.9877 20.0965 -0.169024 20.9877 20.0965 -0.169024
185 2 22.9777 20.0603 1.40071 22.9777 20.0603 1.40071
186 2 22.923 20.0972 -1.80684 22.923 20.0972 -1.80684
187 1 23.8014 18.3704 -0.236458 23.8014 18.3704 -0.236458
188 2 25.6009 18.6601 1.43961 25.6009 18.6601 1.43961
189 2 25.5591 18.7174 -1.94466 25.5591 18.7174 -1.94466
190 1 26.6902 20.0953 -0.242095 26.6902 20.0953 -0.242095
191 2 28.6699 20.06 1.342 28.6699 20.06 1.342
192 2 28.6364 20.0972 -1.86581 28.6364 20.0972 -1.86581
193 1 29.5054 18.3708 -0.290049 29.5054 18.3708 -0.290049
194 2 31.2888 18.6504 1.40495 31.2888 18.6504 1.40495
195 2 31.2794 18.7296 -1.97869 31.2794 18.7296 -1.97869
196 1 32.3927 20.0977 -0.256651 32.3927 20.0977 -0.256651
197 2 34.3307 20.0639 1.37715 34.3307 20.0639 1.37715
198 2 34.3797 20.1005 -1.83046 34.3797 20.1005 -1.83046
199 1 35.2083 18.3745 -0.233483 35.2083 18.3745 -0.233483
200 2 36.9607 18.6777 1.48859 36.9607 18.6777 1.48859
201 2 37.0117 18.713 -1.89568 37.0117 18.713 -1.89568
202 1 38.0925 20.1039 -0.172425 38.0925 20.1039 -0.172425
203 2 40.0377 20.0609 1.4512 40.0377 20.0609 1.4512
204 2 40.0708 20.1141 -1.75664 40.0708 20.1141 -1.75664
205 1 40.906 18.3794 -0.172414 40.906 18.3794 -0.172414
206 2 42.6669 18.6721 1.54272 42.6669 18.6721 1.54272
207 2 42.7022 18.7247 -1.84018 42.7022 18.7247 -1.84018
208 1 43.79 20.1082 -0.114479 43.79 20.1082 -0.114479
209 2 45.7206 20.0955 1.52572 45.7206 20.0955 1.52572
210 2 45.7816 20.0872 -1.68208 45.7816 20.0872 -1.68208
211 1 46.6022 18.3828 -0.05904 46.6022 18.3828 -0.05904
212 2 48.3713 18.7392 1.63413 48.3713 18.7392 1.63413
213 2 48.3896 18.6661 -1.74921 48.3896 18.6661 -1.74921
214 1 49.4864 20.1116 -0.0820462 49.4864 20.1116 -0.0820462
215 2 51.4513 20.1069 1.51608 51.4513 20.1069 1.51608
216 2 51.4433 20.0801 -1.69235 51.4433 20.0801 -1.69235
217 1 1.07655 21.7444 -0.105318 1.07655 21.7444 -0.105318
218 2 2.98768 21.7719 1.49553 2.98768 21.7719 1.49553
219 2 2.93619 21.7365 -1.76762 2.93619 21.7365 -1.76762
220 1 3.92047 23.3933 -0.168883 3.92047 23.3933 -0.168883
221 2 5.82997 23.3702 1.45162 5.82997 23.3702 1.45162
222 2 5.8117 23.4098 -1.81069 5.8117 23.4098 -1.81069
223 1 6.77231 21.7418 -0.204094 6.77231 21.7418 -0.204094
224 2 8.65335 21.7209 1.43574 8.65335 21.7209 1.43574
225 2 8.66363 21.7804 -1.82726 8.66363 21.7804 -1.82726
226 1 9.61804 23.3889 -0.164056 9.61804 23.3889 -0.164056
227 2 11.5257 23.371 1.4587 11.5257 23.371 1.4587
228 2 11.5118 23.3978 -1.80358 11.5118 23.3978 -1.80358
229 1 12.4706 21.7358 -0.190397 12.4706 21.7358 -0.190397
230 2 14.3464 21.7235 1.45412 14.3464 21.7235 1.45412
231 2 14.3679 21.7641 -1.80874 14.3679 21.7641 -1.80874
232 1 15.3173 23.3827 -0.150319 15.3173 23.3827 -0.150319
233 2 17.2174 23.3851 1.48251 17.2174 23.3851 1.48251
234 2 17.2198 23.3731 -1.77973 17.2198 23.3731 -1.77973
235 1 18.1713 21.7309 -0.142177 18.1713 21.7309 -0.142177
236 2 20.0747 21.7462 1.46883 20.0747 21.7462 1.46883
237 2 20.0423 21.7349 -1.79407 20.0423 21.7349 -1.79407
238 1 21.0185 23.3796 -0.176719 21.0185 23.3796 -0.176719
239 2 22.9284 23.3674 1.44495 22.9284 23.3674 1.44495
240 2 22.9118 23.3867 -1.81716 22.9118 23.3867 -1.81716
241 1 23.8733 21.7291 -0.200161 23.8733 21.7291 -0.200161
242 2 25.7757 21.7221 1.41406 25.7757 21.7221 1.41406
243 2 25.7454 21.7558 -1.84863 25.7454 21.7558 -1.84863
244 1 26.7201 23.3787 -0.209724 26.7201 23.3787 -0.209724
245 2 28.634 23.358 1.4065 28.634 23.358 1.4065
246 2 28.609 23.3966 -1.85539 28.609 23.3966 -1.85539
247 1 29.575 21.7298 -0.251389 29.575 21.7298 -0.251389
248 2 31.452 21.7152 1.39296 31.452 21.7152 1.39296
249 2 31.4724 21.7664 -1.86963 31.4724 21.7664 -1.86963
250 1 32.4205 23.3812 -0.206849 32.4205 23.3812 -0.206849
251 2 34.3055 23.3664 1.4433 34.3055 23.3664 1.4433
252 2 34.3376 23.3957 -1.81874 34.3376 23.3957 -1.81874
253 1 35.2753 21.734 -0.193299 35.2753 21.734 -0.193299
254 2 37.1393 21.7283 1.46451 37.1393 21.7283 1.46451
255 2 37.1843 21.7644 -1.79832 37.1843 21.7644 -1.79832
256 1 38.1194 23.3867 -0.135014 38.1194 23.3867 -0.135014
257 2 40.0033 23.3753 1.51613 40.0033 23.3753 1.51613
258 2 40.037 23.3971 -1.74605 40.037 23.3971 -1.74605
259 1 40.9739 21.739 -0.115864 40.9739 21.739 -0.115864
260 2 42.8479 21.7312 1.52996 42.8479 21.7312 1.52996
261 2 42.8721 21.77 -1.73328 42.8721 21.77 -1.73328
262 1 43.8177 23.3908 -0.0746519 43.8177 23.3908 -0.0746519
263 2 45.7216 23.4043 1.55317 45.7216 23.4043 1.55317
264 2 45.7153 23.3758 -1.70925 45.7153 23.3758 -1.70925
265 1 46.6715 21.7429 -0.0658237 46.6715 21.7429 -0.0658237
266 2 48.5722 21.7675 1.54749 48.5722 21.7675 1.54749
267 2 48.5431 21.7418 -1.71595 48.5431 21.7418 -1.71595
268 1 49.5156 23.394 -0.104853 49.5156 23.394 -0.104853
269 2 51.426 23.4086 1.51492 51.426 23.4086 1.51492
270 2 51.4059 23.3756 -1.74748 51.4059 23.3756 -1.74748
271 1 1.07214 25.04 -0.139137 1.07214 25.04 -0.139137
272 2 2.98747 25.038 1.47347 2.98747 25.038 1.47347
273 2 2.9558 25.0425 -1.78884 2.9558 25.0425 -1.78884
274 1 3.92076 26.6868 -0.164496 3.92076 26.6868 -0.164496
275 2 5.81961 26.6828 1.46827 5.81961 26.6828 1.46827
276 2 5.82179 26.6878 -1.79424 5.82179 26.6878 -1.79424
277 1 6.76945 25.0375 -0.164693 6.76945 25.0375 -0.164693
278 2 8.66821 25.0345 1.46812 8.66821 25.0345 1.46812
279 2 8.67013 25.0384 -1.79422 8.67013 25.0384 -1.79422
280 1 9.61889 26.6827 -0.1605 9.61889 26.6827 -0.1605
281 2 11.5208 26.6807 1.46856 11.5208 26.6807 1.46856
282 2 11.5174 26.6793 -1.7938 11.5174 26.6793 -1.7938
283 1 12.468 25.0319 -0.16269 12.468 25.0319 -0.16269
284 2 14.3628 25.0331 1.47496 14.3628 25.0331 1.47496
285 2 14.3735 25.0277 -1.78717 14.3735 25.0277 -1.78717
286 1 15.3181 26.6769 -0.155561 15.3181 26.6769 -0.155561
287 2 17.223 26.6836 1.47056 17.223 26.6836 1.47056
288 2 17.2142 26.6661 -1.79162 17.2142 26.6661 -1.79162
289 1 18.168 25.027 -0.154054 18.168 25.027 -0.154054
290 2 20.079 25.0225 1.46466 20.079 25.0225 1.46466
291 2 20.0582 25.0309 -1.79733 20.0582 25.0309 -1.79733
292 1 21.0185 26.6736 -0.168181 21.0185 26.6736 -0.168181
293 2 22.9255 26.6704 1.45585 22.9255 26.6704 1.45585
294 2 22.913 26.6751 -1.80628 22.913 26.6751 -1.80628
295 1 23.8692 25.0252 -0.181212 23.8692 25.0252 -0.181212
296 2 25.7823 25.0188 1.43522 25.7823 25.0188 1.43522
297 2 25.7575 25.0326 -1.82666 25.7575 25.0326 -1.82666
298 1 26.7191 26.6732 -0.195997 26.7191 26.6732 -0.195997
299 2 28.6256 26.6677 1.42825 28.6256 26.6677 1.42825
300 2 28.6139 26.6792 -1.83392 28.6139 26.6792 -1.83392
301 1 29.5698 25.0261 -0.21188 29.5698 25.0261 -0.21188
302 2 31.4643 25.0217 1.4267 31.4643 25.0217 1.4267
303 2 31.4762 25.0342 -1.83535 31.4762 25.0342 -1.83535
304 1 32.4188 26.6759 -0.194178 32.4188 26.6759 -0.194178
305 2 34.3052 26.6831 1.45363 34.3052 26.6831 1.45363
306 2 34.3331 26.6715 -1.80854 34.3331 26.6715 -1.80854
307 1 35.2689 25.0303 -0.163171 35.2689 25.0303 -0.163171
308 2 37.1528 25.0319 1.48739 37.1528 25.0319 1.48739
309 2 37.1853 25.0341 -1.77468 37.1853 25.0341 -1.77468
310 1 38.1175 26.6807 -0.132935 38.1175 26.6807 -0.132935
311 2 40.0022 26.6934 1.51634 40.0022 26.6934 1.51634
312 2 40.0331 26.6704 -1.74584 40.0331 26.6704 -1.74584
313 1 40.9675 25.035 -0.0939941 40.9675 25.035 -0.0939941
314 2 42.8614 25.0458 1.54418 42.8614 25.0458 1.54418
315 2 42.8736 25.0284 -1.71808 42.8736 25.0284 -1.71808
316 1 43.8162 26.6843 -0.0926163 43.8162 26.6843 -0.0926163
317 2 45.7234 26.6961 1.52989 45.7234 26.6961 1.52989
318 2 45.7091 26.6738 -1.73252 45.7091 26.6738 -1.73252
319 1 46.6661 25.0384 -0.0943176 46.6661 25.0384 -0.0943176
320 2 48.5779 25.0512 1.52231 48.5779 25.0512 1.52231
321 2 48.5537 25.0292 -1.73999 48.5537 25.0292 -1.73999
322 1 49.5145 26.687 -0.12728 49.5145 26.687 -0.12728
323 2 51.4249 26.6934 1.49167 51.4249 26.6934 1.49167
324 2 51.4039 26.6806 -1.77081 51.4039 26.6806 -1.77081
325 1 1.07164 28.3339 -0.152234 1.07164 28.3339 -0.152234
326 2 2.97604 28.3293 1.4738 2.97604 28.3293 1.4738
327 2 2.96709 28.3382 -1.78875 2.96709 28.3382 -1.78875
328 1 3.92078 29.9804 -0.155433 3.92078 29.9804 -0.155433
329 2 5.82376 29.9803 1.47252 5.82376 29.9803 1.47252
330 2 5.81785 29.9785 -1.78997 5.81785 29.9785 -1.78997
331 1 6.76996 28.332 -0.159665 6.76996 28.332 -0.159665
332 2 8.67191 28.3329 1.46928 8.67191 28.3329 1.46928
333 2 8.66798 28.3277 -1.7932 8.66798 28.3277 -1.7932
334 1 9.61934 29.9769 -0.165571 9.61934 29.9769 -0.165571
335 2 11.524 29.9835 1.46043 11.524 29.9835 1.46043
336 2 11.5151 29.9658 -1.80189 11.5151 29.9658 -1.80189
337 1 12.4686 28.3268 -0.164311 12.4686 28.3268 -0.164311
338 2 14.3712 28.3371 1.46426 14.3712 28.3371 1.46426
339 2 14.3666 28.3122 -1.79799 14.3666 28.3122 -1.79799
340 1 15.3183 29.9716 -0.180824 15.3183 29.9716 -0.180824
341 2 17.2195 29.9793 1.44949 17.2195 29.9793 1.44949
342 2 17.2181 29.9601 -1.81271 17.2181 29.9601 -1.81271
343 1 18.1682 28.322 -0.172034 18.1682 28.322 -0.172034
344 2 20.0701 28.3269 1.45749 20.0701 28.3269 1.45749
345 2 20.0673 28.3151 -1.80475 20.0673 28.3151 -1.80475
346 1 21.018 29.9684 -0.180545 21.018 29.9684 -0.180545
347 2 22.9193 29.9728 1.44976 22.9193 29.9728 1.44976
348 2 22.9179 29.9629 -1.81244 22.9179 29.9629 -1.81244
349 1 23.8685 28.3204 -0.176516 23.8685 28.3204 -0.176516
350 2 25.7792 28.3184 1.44281 25.7792 28.3184 1.44281
351 2 25.759 28.3224 -1.81936 25.759 28.3224 -1.81936
352 1 26.7179 29.9681 -0.192269 26.7179 29.9681 -0.192269
353 2 28.6241 29.9706 1.43207 28.6241 29.9706 1.43207
354 2 28.6128 29.9666 -1.83017 28.6128 29.9666 -1.83017
355 1 29.5684 28.3215 -0.200392 29.5684 28.3215 -0.200392
356 2 31.4679 28.3271 1.43194 31.4679 28.3271 1.43194
357 2 31.4697 28.3184 -1.83036 31.4697 28.3184 -1.83036
358 1 32.4175 29.9706 -0.203124 32.4175 29.9706 -0.203124
359 2 34.307 29.9809 1.44071 34.307 29.9809 1.44071
360 2 34.3287 29.9633 -1.82153 34.3287 29.9633 -1.82153
361 1 35.2676 28.3253 -0.17517 35.2676 28.3253 -0.17517
362 2 37.1504 28.3387 1.47623 37.1504 28.3387 1.47623
363 2 37.1851 28.3158 -1.78593 37.1851 28.3158 -1.78593
364 1 38.1166 29.9748 -0.156531 38.1166 29.9748 -0.156531
365 2 40.0009 29.9873 1.49291 40.0009 29.9873 1.49291
366 2 40.0325 29.9649 -1.7693 40.0325 29.9649 -1.7693
367 1 40.9663 28.3294 -0.117579 40.9663 28.3294 -0.117579
368 2 42.8605 28.3451 1.52028 42.8605 28.3451 1.52028
369 2 42.8723 28.3162 -1.74209 42.8723 28.3162 -1.74209
370 1 43.8152 29.9779 -0.1225 43.8152 29.9779 -0.1225
371 2 45.7154 29.9846 1.50826 45.7154 29.9846 1.50826
372 2 45.7152 29.973 -1.75425 45.7152 29.973 -1.75425
373 1 46.6649 28.3322 -0.117102 46.6649 28.3322 -0.117102
374 2 48.5736 28.3387 1.50366 48.5736 28.3387 1.50366
375 2 48.556 28.3279 -1.75889 48.556 28.3279 -1.75889
376 1 49.5138 29.9803 -0.138361 49.5138 29.9803 -0.138361
377 2 51.4205 29.9785 1.48507 51.4205 29.9785 1.48507
378 2 51.407 29.9828 -1.77746 51.407 29.9828 -1.77746
379 1 1.07135 31.6274 -0.147791 1.07135 31.6274 -0.147791
380 2 2.97552 31.6268 1.47876 2.97552 31.6268 1.47876
381 2 2.96725 31.6278 -1.78377 2.96725 31.6278 -1.78377
382 1 3.92071 33.2741 -0.154074 3.92071 33.2741 -0.154074
383 2 5.83092 33.2841 1.46524 5.83092 33.2841 1.46524
384 2 5.81055 33.2627 -1.79712 5.81055 33.2627 -1.79712
385 1 6.77005 31.6261 -0.161093 6.77005 31.6261 -0.161093
386 2 8.6787 31.6348 1.46017 8.6787 31.6348 1.46017
387 2 8.6615 31.6142 -1.80218 8.6615 31.6142 -1.80218
388 1 9.61922 33.2712 -0.186519 9.61922 33.2712 -0.186519
389 2 11.5254 33.2833 1.43771 11.5254 33.2833 1.43771
390 2 11.5133 33.2551 -1.82453 11.5133 33.2551 -1.82453
391 1 12.4687 31.6215 -0.182459 12.4687 31.6215 -0.182459
392 2 14.3742 31.6299 1.44259 14.3742 31.6299 1.44259
393 2 14.3637 31.6087 -1.81966 14.3637 31.6087 -1.81966
394 1 15.3182 33.2663 -0.202443 15.3182 33.2663 -0.202443
395 2 17.2178 33.2738 1.42957 17.2178 33.2738 1.42957
396 2 17.2192 33.2556 -1.83265 17.2192 33.2556 -1.83265
397 1 18.168 31.617 -0.191871 18.168 31.617 -0.191871
398 2 20.0661 31.623 1.44196 20.0661 31.623 1.44196
399 2 20.0707 31.6089 -1.82027 20.0707 31.6089 -1.82027
400 1 21.0176 33.2634 -0.195112 21.0176 33.2634 -0.195112
401 2 22.9141 33.2639 1.44074 22.9141 33.2639 1.44074
402 2 22.9221 33.2621 -1.8215 22.9221 33.2621 -1.8215
403 1 23.8676 31.6155 -0.187052 23.8676 31.6155 -0.187052
404 2 25.7699 31.6137 1.44168 25.7699 31.6137 1.44168
405 2 25.7663 31.6172 -1.82058 25.7663 31.6172 -1.82058
406 1 26.7173 33.263 -0.189006 26.7173 33.263 -0.189006
407 2 28.6232 33.2583 1.43538 28.6232 33.2583 1.43538
408 2 28.6122 33.2688 -1.8269 28.6122 33.2688 -1.8269
409 1 29.5673 31.6164 -0.204433 29.5673 31.6164 -0.204433
410 2 31.4668 31.6174 1.42768 31.4668 31.6174 1.42768
411 2 31.4686 31.6176 -1.83466 31.4686 31.6176 -1.83466
412 1 32.4168 33.2651 -0.202819 32.4168 33.2651 -0.202819
413 2 34.3115 33.2669 1.4348 34.3115 33.2669 1.4348
414 2 34.3227 33.2661 -1.82758 34.3227 33.2661 -1.82758
415 1 35.2668 31.6198 -0.1929 35.2668 31.6198 -0.1929
416 2 37.1502 31.6282 1.45783 37.1502 31.6282 1.45783
417 2 37.1837 31.6146 -1.8044 37.1837 31.6146 -1.8044
418 1 38.116 33.2688 -0.170507 38.116 33.2688 -0.170507
419 2 39.9996 33.2711 1.47994 39.9996 33.2711 1.47994
420 2 40.0327 33.2693 -1.78235 40.0327 33.2693 -1.78235
421 1 40.9657 31.6235 -0.140615 40.9657 31.6235 -0.140615
422 2 42.8571 31.6275 1.50058 42.8571 31.6275 1.50058
423 2 42.8745 31.6216 -1.76187 42.8745 31.6216 -1.76187
424 1 43.8148 33.2718 -0.128757 43.8148 33.2718 -0.128757
425 2 45.7128 33.2689 1.50468 45.7128 33.2689 1.50468
426 2 45.717 33.2763 -1.75783 45.717 33.2763 -1.75783
427 1 46.6643 31.626 -0.129182 46.6643 31.626 -0.129182
428 2 48.5683 31.6248 1.49721 48.5683 31.6248 1.49721
429 2 48.5603 31.6288 -1.76535 48.5603 31.6288 -1.76535
430 1 49.5135 33.2737 -0.134429 49.5135 33.2737 -0.134429
431 2 51.4179 33.2685 1.49177 51.4179 33.2685 1.49177
432 2 51.4093 33.2798 -1.77074 51.4093 33.2798 -1.77074
433 1 1.07142 34.921 -0.136008 1.07142 34.921 -0.136008
434 2 2.98335 34.9242 1.48122 2.98335 34.9242 1.48122
435 2 2.95964 34.9181 -1.78118 2.95964 34.9181 -1.78118
436 1 3.92095 36.568 -0.159961 3.92095 36.568 -0.159961
437 2 5.83775 36.5744 1.4514 5.83775 36.5744 1.4514
438 2 5.80416 36.5608 -1.81084 5.80416 36.5608 -1.81084
439 1 6.76995 34.9202 -0.182696 6.76995 34.9202 -0.182696
440 2 8.68052 34.9332 1.43603 8.68052 34.9332 1.43603
441 2 8.65945 34.9044 -1.8262 8.65945 34.9044 -1.8262
442 1 9.6193 36.5656 -0.215993 9.6193 36.5656 -0.215993
443 2 11.5222 36.5727 1.41206 11.5222 36.5727 1.41206
444 2 11.5167 36.555 -1.85026 11.5167 36.555 -1.85026
445 1 12.4685 34.9161 -0.211477 12.4685 34.9161 -0.211477
446 2 14.369 34.9232 1.41945 14.369 34.9232 1.41945
447 2 14.3685 34.905 -1.84282 14.3685 34.905 -1.84282
448 1 15.3184 36.5611 -0.22126 15.3184 36.5611 -0.22126
449 2 17.2143 36.5629 1.41493 17.2143 36.5629 1.41493
450 2 17.2231 36.5566 -1.84732 17.2231 36.5566 -1.84732
451 1 18.1679 34.912 -0.210384 18.1679 34.912 -0.210384
452 2 20.0622 34.9154 1.42787 20.0622 34.9154 1.42787
453 2 20.0743 34.9067 -1.83436 20.0743 34.9067 -1.83436
454 1 21.018 36.5584 -0.204158 21.018 36.5584 -0.204158
455 2 22.909 36.5567 1.43795 22.909 36.5567 1.43795
456 2 22.9277 36.5594 -1.82427 22.9277 36.5594 -1.82427
457 1 23.8675 34.9105 -0.189024 23.8675 34.9105 -0.189024
458 2 25.7664 34.908 1.4438 25.7664 34.908 1.4438
459 2 25.7695 34.9129 -1.81848 25.7695 34.9129 -1.81848
460 1 26.7176 36.5579 -0.183973 26.7176 36.5579 -0.183973
461 2 28.6199 36.552 1.44487 28.6199 36.552 1.44487
462 2 28.616 36.5646 -1.81743 28.616 36.5646 -1.81743
463 1 29.567 34.911 -0.193773 29.567 34.911 -0.193773
464 2 31.4683 34.9051 1.43623 31.4683 34.9051 1.43623
465 2 31.4665 34.9189 -1.82611 31.4665 34.9189 -1.82611
466 1 32.4169 36.5595 -0.188334 32.4169 36.5595 -0.188334
467 2 34.3165 36.5548 1.44369 34.3165 36.5548 1.44369
468 2 34.3178 36.5668 -1.8187 34.3178 36.5668 -1.8187
469 1 35.2664 34.914 -0.193344 35.2664 34.914 -0.193344
470 2 37.1524 34.9136 1.45441 37.1524 34.9136 1.45441
471 2 37.1807 34.9174 -1.80791 37.1807 34.9174 -1.80791
472 1 38.1159 36.5628 -0.166469 38.1159 36.5628 -0.166469
473 2 39.9986 36.5575 1.48517 39.9986 36.5575 1.48517
474 2 40.0334 36.571 -1.77706 40.0334 36.571 -1.77706
475 1 40.9653 34.9175 -0.142608 40.9653 34.9175 -0.142608
476 2 42.8524 34.91 1.50362 42.8524 34.91 1.50362
477 2 42.8785 34.9271 -1.75869 42.8785 34.9271 -1.75869
478 1 43.8148 36.5658 -0.11132 43.8148 36.5658 -0.11132
479 2 45.7128 36.5531 1.52222 45.7128 36.5531 1.52222
480 2 45.7171 36.5801 -1.74012 45.7171 36.5801 -1.74012
481 1 46.6641 34.9198 -0.121537 46.6641 34.9198 -0.121537
482 2 48.566 34.911 1.50741 48.566 34.911 1.50741
483 2 48.5624 34.9297 -1.75504 48.5624 34.9297 -1.75504
484 1 49.5138 36.5674 -0.115091 49.5138 36.5674 -0.115091
485 2 51.4237 36.5645 1.50456 51.4237 36.5645 1.50456
486 2 51.4042 36.5712 -1.75785 51.4042 36.5712 -1.75785
487 1 1.07205 38.2149 -0.128844 1.07205 38.2149 -0.128844
488 2 2.99151 38.2183 1.47947 2.99151 38.2183 1.47947
489 2 2.95274 38.2122 -1.78273 2.95274 38.2122 -1.78273
490 1 3.92191 39.8622 -0.166247 3.92191 39.8622 -0.166247
491 2 5.8397 39.8629 1.44395 5.8397 39.8629 1.44395
492 2 5.80425 39.8612 -1.81826 5.80425 39.8612 -1.81826
493 1 6.7705 38.2145 -0.19666 6.7705 38.2145 -0.19666
494 2 8.68364 38.2169 1.41917 8.68364 38.2169 1.41917
495 2 8.65749 38.21 -1.84311 8.65749 38.21 -1.84311
496 1 9.62054 39.8603 -0.223379 9.62054 39.8603 -0.223379
497 2 11.5205 39.8517 1.40825 11.5205 39.8517 1.40825
498 2 11.5211 39.8658 -1.85407 11.5211 39.8658 -1.85407
499 1 12.4692 38.2107 -0.229873 12.4692 38.2107 -0.229873
500 2 14.3644 38.2086 1.40724 14.3644 38.2086 1.40724
501 2 14.3747 38.2094 -1.85506 14.3747 38.2094 -1.85506
502 1 15.3198 39.8558 -0.220529 15.3198 39.8558 -0.220529
503 2 17.2148 39.8491 1.41686 17.2148 39.8491 1.41686
504 2 17.2254 39.8604 -1.84539 17.2254 39.8604 -1.84539
505 1 18.1687 38.2069 -0.216857 18.1687 38.2069 -0.216857
506 2 20.0608 38.2042 1.424 20.0608 38.2042 1.424
507 2 20.0774 38.208 -1.83823 20.0774 38.208 -1.83823
508 1 21.0192 39.8533 -0.200099 21.0192 39.8533 -0.200099
509 2 22.9139 39.8565 1.43791 22.9139 39.8565 1.43791
510 2 22.9254 39.8495 -1.82436 22.9254 39.8495 -1.82436
511 1 23.8683 38.2053 -0.186247 23.8683 38.2053 -0.186247
512 2 25.768 38.2062 1.44583 25.768 38.2062 1.44583
513 2 25.7694 38.2046 -1.81646 25.7694 38.2046 -1.81646
514 1 26.7186 39.8527 -0.185725 26.7186 39.8527 -0.185725
515 2 28.6174 39.8549 1.4472 28.6174 39.8549 1.4472
516 2 28.6205 39.8512 -1.81514 28.6205 39.8512 -1.81514
517 1 29.5677 38.2057 -0.181098 29.5677 38.2057 -0.181098
518 2 31.4716 38.2059 1.4458 31.4716 38.2059 1.4458
519 2 31.4643 38.2073 -1.81656 31.4643 38.2073 -1.81656
520 1 32.4177 39.854 -0.186812 32.4177 39.854 -0.186812
521 2 34.3141 39.8542 1.44885 34.3141 39.8542 1.44885
522 2 34.3216 39.8562 -1.81355 34.3216 39.8562 -1.81355
523 1 35.2666 38.2082 -0.180991 35.2666 38.2082 -0.180991
524 2 37.1564 38.2056 1.46273 37.1564 38.2056 1.46273
525 2 37.1772 38.2137 -1.79963 37.1772 38.2137 -1.79963
526 1 38.1164 39.857 -0.157977 38.1164 39.857 -0.157977
527 2 39.9998 39.8578 1.49302 39.9998 39.8578 1.49302
528 2 40.0332 39.859 -1.76924 40.0332 39.859 -1.76924
529 1 40.9654 38.2115 -0.128825 40.9654 38.2115 -0.128825
530 2 42.8524 38.2069 1.51791 42.8524 38.2069 1.51791
531 2 42.8787 38.2183 -1.74439 42.8787 38.2183 -1.74439
532 1 43.8153 39.8597 -0.0996533 43.8153 39.8597 -0.0996533
533 2 45.7105 39.8575 1.53751 45.7105 39.8575 1.53751
534 2 45.7207 39.8638 -1.72488 45.7207 39.8638 -1.72488