ITEM: TIMESTEP
3665000
ITEM: NUMBER OF ATOMS
810
ITEM: BOX BOUNDS pp pp pp
8.6298438867990135e-01 5.2154620611319167e+01
-8.2364638844459517e+00 5.9252678884445530e+01
-1.0000000000000000e+01 1.0000000000000000e+01
ITEM: ATOMS id type x y z xu yu zu
1 1 1.08706 57.3834 -0.175412 1.08706 -10.1057 -0.175412
2 2 2.99894 57.3977 1.44164 2.99894 -10.0914 1.44164
3 2 2.97569 57.3694 -1.82036 2.97569 -10.1197 -1.82036
4 1 3.93747 59.0312 -0.210802 3.93747 -8.45799 -0.210802
5 2 5.8421 59.0368 1.41462 5.8421 -8.4523 1.41462
6 2 5.8329 59.0239 -1.84747 5.8329 -8.46526 -1.84747
7 1 6.7851 57.3821 -0.212385 6.7851 -10.107 -0.212385
8 2 8.67408 57.3973 1.43202 8.67408 -10.0919 1.43202
9 2 8.69685 57.3689 -1.82997 8.69685 -10.1203 -1.82997
10 1 9.63556 59.0308 -0.206666 9.63556 -8.45832 -0.206666
11 2 11.5174 59.0375 1.44575 11.5174 -8.45169 1.44575
12 2 11.5537 59.0243 -1.81615 11.5537 -8.46488 -1.81615
13 1 12.4834 57.383 -0.16787 12.4834 -10.1061 -0.16787
14 2 14.3709 57.3955 1.47819 14.3709 -10.0937 1.47819
15 2 14.3968 57.3735 -1.7838 14.3968 -10.1156 -1.7838
16 1 15.3339 59.0323 -0.156408 15.3339 -8.4568 -0.156408
17 2 17.2289 59.0387 1.48057 17.2289 -8.45043 1.48057
18 2 17.2395 59.0266 -1.78147 17.2395 -8.46256 -1.78147
19 1 18.1824 57.3848 -0.141174 18.1824 -10.1044 -0.141174
20 2 20.0927 57.3927 1.4782 20.0927 -10.0965 1.4782
21 2 20.0733 57.3796 -1.78384 20.0733 -10.1095 -1.78384
22 1 21.0332 59.0339 -0.165551 21.0332 -8.45522 -0.165551
23 2 22.9437 59.0328 1.45303 22.9437 -8.4563 1.45303
24 2 22.9234 59.0353 -1.80893 22.9234 -8.45383 -1.80893
25 1 23.8819 57.3863 -0.185116 23.8819 -10.1029 -0.185116
26 2 25.7936 57.3879 1.43295 25.7936 -10.1013 1.43295
27 2 25.7717 57.3875 -1.82906 25.7717 -10.1016 -1.82906
28 1 26.7331 59.0355 -0.205078 26.7331 -8.45365 -0.205078
29 2 28.6359 59.0271 1.42304 28.6359 -8.46207 1.42304
30 2 28.6315 59.0443 -1.83889 28.6315 -8.44488 -1.83889
31 1 29.582 57.3877 -0.217994 29.582 -10.1014 -0.217994
32 2 31.4785 57.3879 1.4182 31.4785 -10.1012 1.4182
33 2 31.4872 57.3898 -1.84385 31.4872 -10.0994 -1.84385
34 1 32.4334 59.0366 -0.209459 32.4334 -8.45258 -0.209459
35 2 34.3275 59.0274 1.42904 34.3275 -8.46178 1.42904
36 2 34.3406 59.0451 -1.83286 34.3406 -8.444 -1.83286
37 1 35.2821 57.3881 -0.2071 35.2821 -10.101 -0.2071
38 2 37.1758 57.3842 1.43214 37.1758 -10.1049 1.43214
39 2 37.19 57.3931 -1.82991 37.19 -10.096 -1.82991
40 1 38.1335 59.0362 -0.190296 38.1335 -8.45294 -0.190296
41 2 40.0262 59.0263 1.44967 40.0262 -8.46283 1.44967
42 2 40.0418 59.0446 -1.81226 40.0418 -8.44459 -1.81226
43 1 40.9817 57.3871 -0.18613 40.9817 -10.102 -0.18613
44 2 42.8714 57.3862 1.45766 42.8714 -10.1029 1.45766
45 2 42.8933 57.3884 -1.8044 42.8933 -10.1007 -1.8044
46 1 43.8329 59.0348 -0.165762 43.8329 -8.45431 -0.165762
47 2 45.7293 59.0353 1.46964 45.7293 -8.45384 1.46964
48 2 45.7371 59.0324 -1.79244 45.7371 -8.45671 -1.79244
49 1 46.6806 57.3854 -0.157884 46.6806 -10.1037 -0.157884
50 2 48.5808 57.3964 1.47316 48.5808 -10.0927 1.47316
51 2 48.5811 57.3745 -1.78895 48.5811 -10.1146 -1.78895
52 1 49.5313 59.033 -0.169128 49.5313 -8.45614 -0.169128
53 2 51.4376 59.0369 1.45429 51.4376 -8.45226 1.45429
54 2 51.4252 59.0269 -1.80781 51.4252 -8.46226 -1.80781
55 1 1.09009 -6.81031 -0.185894 1.09009 -6.81031 -0.185894
56 2 2.99774 -6.82042 1.43672 2.99774 -6.82042 1.43672
57 2 2.9839 -6.7965 -1.82552 2.9839 -6.7965 -1.82552
58 1 3.94415 -5.16069 -0.186533 3.94415 -5.16069 -0.186533
59 2 5.83933 -5.19342 1.43389 5.83933 -5.19342 1.43389
60 2 5.82093 -5.14896 -1.8293 5.82093 -5.14896 -1.8293
61 1 6.78766 -6.81165 -0.225633 6.78766 -6.81165 -0.225633
62 2 8.6821 -6.8013 1.41284 8.6821 -6.8013 1.41284
63 2 8.69486 -6.8171 -1.84944 8.69486 -6.8171 -1.84944
64 1 9.64151 -5.16115 -0.22196 9.64151 -5.16115 -0.22196
65 2 11.5107 -5.16052 1.43093 11.5107 -5.16052 1.43093
66 2 11.5446 -5.18171 -1.83233 11.5446 -5.18171 -1.83233
67 1 12.4856 -6.81108 -0.181061 12.4856 -6.81108 -0.181061
68 2 14.3778 -6.79815 1.45981 14.3778 -6.79815 1.45981
69 2 14.3951 -6.81777 -1.80241 14.3951 -6.81777 -1.80241
70 1 15.3394 -5.15982 -0.176387 15.3394 -5.15982 -0.176387
71 2 17.2163 -5.16347 1.46621 17.2163 -5.16347 1.46621
72 2 17.2353 -5.17499 -1.79704 17.2353 -5.17499 -1.79704
73 1 18.1843 -6.80924 -0.153949 18.1843 -6.80924 -0.153949
74 2 20.0872 -6.81437 1.47476 20.0872 -6.81437 1.47476
75 2 20.0836 -6.79836 -1.78748 20.0836 -6.79836 -1.78748
76 1 21.0386 -5.15839 -0.149862 21.0386 -5.15839 -0.149862
77 2 22.9326 -5.18758 1.47196 22.9326 -5.18758 1.47196
78 2 22.918 -5.14846 -1.79104 22.918 -5.14846 -1.79104
79 1 23.884 -6.80783 -0.183074 23.884 -6.80783 -0.183074
80 2 25.7851 -6.82682 1.44806 25.7851 -6.82682 1.44806
81 2 25.7854 -6.78293 -1.81388 25.7854 -6.78293 -1.81388
82 1 26.7387 -5.15706 -0.160824 26.7387 -5.15706 -0.160824
83 2 28.6294 -5.19853 1.46517 28.6294 -5.19853 1.46517
84 2 28.6216 -5.13446 -1.7974 28.6216 -5.13446 -1.7974
85 1 29.5843 -6.80626 -0.200593 29.5843 -6.80626 -0.200593
86 2 31.4797 -6.82249 1.43733 31.4797 -6.82249 1.43733
87 2 31.4916 -6.78477 -1.82463 31.4916 -6.78477 -1.82463
88 1 32.4393 -5.15591 -0.170875 32.4393 -5.15591 -0.170875
89 2 34.3227 -5.18978 1.46454 34.3227 -5.18978 1.46454
90 2 34.3297 -5.14185 -1.79826 34.3297 -5.14185 -1.79826
91 1 35.2847 -6.8059 -0.189091 35.2847 -6.8059 -0.189091
92 2 37.1794 -6.81621 1.44962 37.1794 -6.81621 1.44962
93 2 37.1927 -6.7913 -1.81247 37.1927 -6.7913 -1.81247
94 1 38.1398 -5.1561 -0.164718 38.1398 -5.1561 -0.164718
95 2 40.0213 -5.17839 1.47322 40.0213 -5.17839 1.47322
96 2 40.032 -5.15453 -1.78992 40.032 -5.15453 -1.78992
97 1 40.9847 -6.80685 -0.167445 40.9847 -6.80685 -0.167445
98 2 42.8801 -6.8129 1.47039 42.8801 -6.8129 1.47039
99 2 42.8917 -6.79691 -1.79182 42.8917 -6.79691 -1.79182
100 1 43.8396 -5.1572 -0.14918 43.8396 -5.1572 -0.14918
101 2 45.7272 -5.17681 1.48093 45.7272 -5.17681 1.48093
102 2 45.725 -5.1586 -1.78238 45.725 -5.1586 -1.78238
103 1 46.6837 -6.80835 -0.160701 46.6837 -6.80835 -0.160701
104 2 48.5878 -6.80901 1.46649 48.5878 -6.80901 1.46649
105 2 48.5815 -6.80416 -1.79582 48.5815 -6.80416 -1.79582
106 1 49.5381 -5.15884 -0.164231 49.5381 -5.15884 -0.164231
107 2 51.4289 -5.18299 1.46199 51.4289 -5.18299 1.46199
108 2 51.42 -5.15621 -1.80132 51.42 -5.15621 -1.80132
109 1 1.06252 -3.5267 -0.158785 1.06252 -3.5267 -0.158785
110 2 3.02582 -3.53301 1.44342 3.02582 -3.53301 1.44342
111 2 3.02279 -3.485 -1.76469 3.02279 -3.485 -1.76469
112 1 3.87496 -1.80048 -0.136141 3.87496 -1.80048 -0.136141
113 2 5.66028 -2.15071 1.54201 5.66028 -2.15071 1.54201
114 2 5.64797 -2.08572 -1.84018 5.64797 -2.08572 -1.84018
115 1 6.75955 -3.52836 -0.180831 6.75955 -3.52836 -0.180831
116 2 8.747 -3.50584 1.3924 8.747 -3.50584 1.3924
117 2 8.69469 -3.51344 -1.81567 8.69469 -3.51344 -1.81567
118 1 9.57056 -1.80066 -0.227891 9.57056 -1.80066 -0.227891
119 2 11.3557 -2.08136 1.46499 11.3557 -2.08136 1.46499
120 2 11.3442 -2.15393 -1.91685 11.3442 -2.15393 -1.91685
121 1 12.4563 -3.52758 -0.199291 12.4563 -3.52758 -0.199291
122 2 14.4084 -3.50435 1.41724 14.4084 -3.50435 1.41724
123 2 14.4276 -3.51337 -1.7911 14.4276 -3.51337 -1.7911
124 1 15.2682 -1.79984 -0.186728 15.2682 -1.79984 -0.186728
125 2 17.0385 -2.11166 1.51531 17.0385 -2.11166 1.51531
126 2 17.0556 -2.12334 -1.86864 17.0556 -2.12334 -1.86864
127 1 18.155 -3.52568 -0.165963 18.155 -3.52568 -0.165963
128 2 20.0986 -3.52285 1.46004 20.0986 -3.52285 1.46004
129 2 20.1355 -3.4919 -1.74798 20.1355 -3.4919 -1.74798
130 1 20.9676 -1.79874 -0.118594 20.9676 -1.79874 -0.118594
131 2 22.7406 -2.1522 1.5719 22.7406 -2.1522 1.5719
132 2 22.7526 -2.08053 -1.81114 22.7526 -2.08053 -1.81114
133 1 23.8547 -3.52453 -0.145365 23.8547 -3.52453 -0.145365
134 2 25.8079 -3.53644 1.46938 25.8079 -3.53644 1.46938
135 2 25.8262 -3.47625 -1.73835 25.8262 -3.47625 -1.73835
136 1 26.6677 -1.79797 -0.0978872 26.6677 -1.79797 -0.0978872
137 2 28.4435 -2.15862 1.58862 28.4435 -2.15862 1.58862
138 2 28.45 -2.07246 -1.79427 28.45 -2.07246 -1.79427
139 1 29.5551 -3.52325 -0.136741 29.5551 -3.52325 -0.136741
140 2 31.5211 -3.53241 1.46328 31.5211 -3.53241 1.46328
141 2 31.5141 -3.47798 -1.74455 31.5141 -3.47798 -1.74455
142 1 32.3688 -1.79683 -0.113102 32.3688 -1.79683 -0.113102
143 2 34.1486 -2.14005 1.57333 34.1486 -2.14005 1.57333
144 2 34.1466 -2.08999 -1.81072 34.1466 -2.08999 -1.81072
145 1 35.2561 -3.52261 -0.140472 35.2561 -3.52261 -0.140472
146 2 37.2239 -3.51985 1.45766 37.2239 -3.51985 1.45766
147 2 37.2135 -3.49002 -1.75051 37.2135 -3.49002 -1.75051
148 1 38.0701 -1.79652 -0.132916 38.0701 -1.79652 -0.132916
149 2 39.8499 -2.12324 1.55681 39.8499 -2.12324 1.55681
150 2 39.8481 -2.10647 -1.8272 39.8481 -2.10647 -1.8272
151 1 40.9567 -3.52332 -0.142847 40.9567 -3.52332 -0.142847
152 2 42.9172 -3.51489 1.46362 42.9172 -3.51489 1.46362
153 2 42.9209 -3.4965 -1.74471 42.9209 -3.4965 -1.74471
154 1 43.7702 -1.79719 -0.129809 43.7702 -1.79719 -0.129809
155 2 45.5495 -2.12715 1.55929 45.5495 -2.12715 1.55929
156 2 45.5491 -2.10321 -1.82398 45.5491 -2.10321 -1.82398
157 1 46.6559 -3.52471 -0.142462 46.6559 -3.52471 -0.142462
158 2 48.622 -3.52139 1.45692 48.622 -3.52139 1.45692
159 2 48.6139 -3.49299 -1.75134 48.6139 -3.49299 -1.75134
160 1 49.4691 -1.79868 -0.134098 49.4691 -1.79868 -0.134098
161 2 51.2532 -2.13256 1.54918 51.2532 -2.13256 1.54918
162 2 51.2428 -2.1016 -1.83411 51.2428 -2.1016 -1.83411
163 1 0.994215 17.7619 -0.173624 0.994215 17.7619 -0.173624
164 2 2.77386 18.0617 1.52135 2.77386 18.0617 1.52135
165 2 2.77165 18.0993 -1.86322 2.77165 18.0993 -1.86322
166 1 3.88176 19.4877 -0.156062 3.88176 19.4877 -0.156062
167 2 5.83888 19.459 1.45337 5.83888 19.459 1.45337
168 2 5.84895 19.4819 -1.75473 5.84895 19.4819 -1.75473
169 1 6.69539 17.7619 -0.160914 6.69539 17.7619 -0.160914
170 2 8.4775 18.0844 1.52644 8.4775 18.0844 1.52644
171 2 8.46911 18.0792 -1.85945 8.46911 18.0792 -1.85945
172 1 9.58315 19.4879 -0.172012 9.58315 19.4879 -0.172012
173 2 11.5822 19.4306 1.38657 11.5822 19.4306 1.38657
174 2 11.5085 19.5124 -1.81987 11.5085 19.5124 -1.81987
175 1 12.3964 17.7641 -0.278325 12.3964 17.7641 -0.278325
176 2 14.1919 18.0078 1.40976 14.1919 18.0078 1.40976
177 2 14.159 18.1572 -1.97036 14.159 18.1572 -1.97036
178 1 15.2834 19.4907 -0.22806 15.2834 19.4907 -0.22806
179 2 17.2355 19.4458 1.38848 17.2355 19.4458 1.38848
180 2 17.2558 19.5029 -1.81915 17.2558 19.5029 -1.81915
181 1 18.0978 17.7663 -0.240801 18.0978 17.7663 -0.240801
182 2 19.8654 18.0558 1.4682 19.8654 18.0558 1.4682
183 2 19.8859 18.1173 -1.91668 19.8859 18.1173 -1.91668
184 1 20.9839 19.4935 -0.191441 20.9839 19.4935 -0.191441
185 2 22.9187 19.471 1.44494 22.9187 19.471 1.44494
186 2 22.973 19.4823 -1.76292 22.973 19.4823 -1.76292
187 1 23.7971 17.7682 -0.151619 23.7971 17.7682 -0.151619
188 2 25.5619 18.1028 1.55109 25.5619 18.1028 1.55109
189 2 25.5895 18.0719 -1.83254 25.5895 18.0719 -1.83254
190 1 26.6824 19.4966 -0.14438 26.6824 19.4966 -0.14438
191 2 28.6273 19.4944 1.4784 28.6273 19.4944 1.4784
192 2 28.6604 19.4649 -1.72966 28.6604 19.4649 -1.72966
193 1 29.4946 17.7711 -0.102407 29.4946 17.7711 -0.102407
194 2 31.2728 18.1345 1.57986 31.2728 18.1345 1.57986
195 2 31.2731 18.0457 -1.80316 31.2731 18.0457 -1.80316
196 1 32.3796 19.4984 -0.149175 32.3796 19.4984 -0.149175
197 2 34.3768 19.4617 1.4107 34.3768 19.4617 1.4107
198 2 34.3041 19.4972 -1.79682 34.3041 19.4972 -1.79682
199 1 35.1892 17.7703 -0.229537 35.1892 17.7703 -0.229537
200 2 36.982 18.0338 1.4581 36.982 18.0338 1.4581
201 2 36.9549 18.1401 -1.92312 36.9549 18.1401 -1.92312
202 1 38.076 19.4957 -0.196675 38.076 19.4957 -0.196675
203 2 40.0331 19.4583 1.41347 40.0331 19.4583 1.41347
204 2 40.042 19.4954 -1.79466 40.042 19.4954 -1.79466
205 1 40.8872 17.7676 -0.208102 40.8872 17.7676 -0.208102
206 2 42.6585 18.0601 1.49636 42.6585 18.0601 1.49636
207 2 42.6728 18.1109 -1.88791 42.6728 18.1109 -1.88791
208 1 43.7742 19.4925 -0.169819 43.7742 19.4925 -0.169819
209 2 45.7215 19.4667 1.45128 45.7215 19.4667 1.45128
210 2 45.7502 19.4801 -1.75694 45.7502 19.4801 -1.75694
211 1 46.5854 17.764 -0.1531 46.5854 17.764 -0.1531
212 2 48.359 18.0889 1.54257 48.359 18.0889 1.54257
213 2 48.3694 18.0741 -1.84175 48.3694 18.0741 -1.84175
214 1 49.4732 19.4889 -0.152461 49.4732 19.4889 -0.152461
215 2 51.4416 19.4608 1.44398 51.4416 19.4608 1.44398
216 2 51.429 19.4808 -1.76421 51.429 19.4808 -1.76421
217 1 1.06624 21.1214 -0.153289 1.06624 21.1214 -0.153289
218 2 2.94733 21.1182 1.48518 2.94733 21.1182 1.48518
219 2 2.95847 21.1445 -1.77794 2.95847 21.1445 -1.77794
220 1 3.91289 22.7708 -0.129833 3.91289 22.7708 -0.129833
221 2 5.81381 22.7617 1.50168 5.81381 22.7617 1.50168
222 2 5.81426 22.776 -1.76058 5.81426 22.776 -1.76058
223 1 6.76667 21.121 -0.136527 6.76667 21.121 -0.136527
224 2 8.66755 21.1222 1.47809 8.66755 21.1222 1.47809
225 2 8.63953 21.141 -1.78483 8.63953 21.141 -1.78483
226 1 9.61325 22.7713 -0.151632 9.61325 22.7713 -0.151632
227 2 11.5226 22.7408 1.46975 11.5226 22.7408 1.46975
228 2 11.5062 22.799 -1.79198 11.5062 22.799 -1.79198
229 1 12.4672 21.1225 -0.194801 12.4672 21.1225 -0.194801
230 2 14.3515 21.0919 1.44113 14.3515 21.0919 1.44113
231 2 14.3567 21.1756 -1.82102 14.3567 21.1756 -1.82102
232 1 15.3133 22.7733 -0.147126 15.3133 22.7733 -0.147126
233 2 17.2197 22.7501 1.47781 17.2197 22.7501 1.47781
234 2 17.2093 22.7949 -1.78418 17.2093 22.7949 -1.78418
235 1 18.1674 21.1252 -0.179321 18.1674 21.1252 -0.179321
236 2 20.0458 21.11 1.46196 20.0458 21.11 1.46196
237 2 20.0623 21.1632 -1.80078 20.0623 21.1632 -1.80078
238 1 21.013 22.7765 -0.137543 21.013 22.7765 -0.137543
239 2 22.9126 22.7727 1.49565 22.9126 22.7727 1.49565
240 2 22.9154 22.7787 -1.7667 22.9154 22.7787 -1.7667
241 1 23.8668 21.1281 -0.138056 23.8668 21.1281 -0.138056
242 2 25.7551 21.1394 1.49056 25.7551 21.1394 1.49056
243 2 25.7514 21.1402 -1.77287 25.7514 21.1402 -1.77287
244 1 26.712 22.7798 -0.140933 26.712 22.7798 -0.140933
245 2 28.6188 22.7975 1.48334 28.6188 22.7975 1.48334
246 2 28.6066 22.7599 -1.77887 28.6066 22.7599 -1.77887
247 1 29.5651 21.131 -0.132473 29.5651 21.131 -0.132473
248 2 31.4712 21.1631 1.47435 31.4712 21.1631 1.47435
249 2 31.431 21.1207 -1.78868 31.431 21.1207 -1.78868
250 1 32.4101 22.7811 -0.1896 32.4101 22.7811 -0.1896
251 2 34.3129 22.7756 1.43956 34.3129 22.7756 1.43956
252 2 34.3087 22.7815 -1.8229 34.3087 22.7815 -1.8229
253 1 35.2625 21.1302 -0.195002 35.2625 21.1302 -0.195002
254 2 37.1403 21.1193 1.44817 37.1403 21.1193 1.44817
255 2 37.1569 21.1603 -1.81507 37.1569 21.1603 -1.81507
256 1 38.108 22.7789 -0.158986 38.108 22.7789 -0.158986
257 2 40.0057 22.7619 1.47549 40.0057 22.7619 1.47549
258 2 40.0115 22.7895 -1.78684 40.0115 22.7895 -1.78684
259 1 40.96 21.1272 -0.168158 40.96 21.1272 -0.168158
260 2 42.8362 21.1169 1.47545 42.8362 21.1169 1.47545
261 2 42.8562 21.1559 -1.78766 42.8562 21.1559 -1.78766
262 1 43.8061 22.7755 -0.130546 43.8061 22.7755 -0.130546
263 2 45.7074 22.7661 1.49998 45.7074 22.7661 1.49998
264 2 45.7064 22.7782 -1.76238 45.7064 22.7782 -1.76238
265 1 46.6585 21.1237 -0.137974 46.6585 21.1237 -0.137974
266 2 48.5502 21.1292 1.4869 48.5502 21.1292 1.4869
267 2 48.5398 21.1366 -1.77639 48.5398 21.1366 -1.77639
268 1 49.5049 22.7723 -0.143725 49.5049 22.7723 -0.143725
269 2 51.4054 22.7591 1.48805 51.4054 22.7591 1.48805
270 2 51.4063 22.78 -1.77423 51.4063 22.78 -1.77423
271 1 1.06364 24.4177 -0.131941 1.06364 24.4177 -0.131941
272 2 2.96141 24.4155 1.50232 2.96141 24.4155 1.50232
273 2 2.9664 24.4207 -1.75979 2.9664 24.4207 -1.75979
274 1 3.9141 26.0652 -0.124441 3.9141 26.0652 -0.124441
275 2 5.81609 26.0692 1.5052 5.81609 26.0692 1.5052
276 2 5.81317 26.0607 -1.75699 5.81317 26.0607 -1.75699
277 1 6.76343 24.4171 -0.122185 6.76343 24.4171 -0.122185
278 2 8.67456 24.4074 1.49636 8.67456 24.4074 1.49636
279 2 8.65316 24.429 -1.76557 8.65316 24.429 -1.76557
280 1 9.61385 26.0656 -0.129759 9.61385 26.0656 -0.129759
281 2 11.5174 26.0642 1.49821 11.5174 26.0642 1.49821
282 2 11.5115 26.068 -1.76397 11.5115 26.068 -1.76397
283 1 12.4634 24.4184 -0.136202 12.4634 24.4184 -0.136202
284 2 14.3655 24.4114 1.49342 14.3655 24.4114 1.49342
285 2 14.3622 24.4292 -1.76861 14.3622 24.4292 -1.76861
286 1 15.3136 26.0678 -0.129525 15.3136 26.0678 -0.129525
287 2 17.217 26.0699 1.49829 17.217 26.0699 1.49829
288 2 17.2113 26.0677 -1.76392 17.2113 26.0677 -1.76392
289 1 18.1632 24.4212 -0.133198 18.1632 24.4212 -0.133198
290 2 20.0637 24.419 1.498 20.0637 24.419 1.498
291 2 20.0633 24.4277 -1.76411 20.0633 24.4277 -1.76411
292 1 21.0131 26.071 -0.128717 21.0131 26.071 -0.128717
293 2 22.917 26.0753 1.49844 22.917 26.0753 1.49844
294 2 22.9101 26.0686 -1.7638 22.9101 26.0686 -1.7638
295 1 23.8625 24.4245 -0.13143 23.8625 24.4245 -0.13143
296 2 25.7704 24.431 1.49047 25.7704 24.431 1.49047
297 2 25.755 24.4221 -1.77168 25.755 24.4221 -1.77168
298 1 26.7122 26.074 -0.14967 26.7122 26.074 -0.14967
299 2 28.6307 26.086 1.45993 28.6307 26.086 1.45993
300 2 28.5943 26.0632 -1.8021 28.5943 26.0632 -1.8021
301 1 29.5613 24.4271 -0.170342 29.5613 24.4271 -0.170342
302 2 31.4776 24.4375 1.44136 31.4776 24.4375 1.44136
303 2 31.4448 24.4189 -1.82067 31.4448 24.4189 -1.82067
304 1 32.411 26.0751 -0.208568 32.411 26.0751 -0.208568
305 2 34.3081 26.0866 1.42667 34.3081 26.0866 1.42667
306 2 34.3146 26.0623 -1.83555 34.3146 26.0623 -1.83555
307 1 35.2597 24.4266 -0.189831 35.2597 24.4266 -0.189831
308 2 37.1472 24.4342 1.45636 37.1472 24.4342 1.45636
309 2 37.172 24.4189 -1.80576 37.172 24.4189 -1.80576
310 1 38.1096 26.0733 -0.175342 38.1096 26.0733 -0.175342
311 2 39.9944 26.0796 1.47385 39.9944 26.0796 1.47385
312 2 40.0251 26.0643 -1.78828 40.0251 26.0643 -1.78828
313 1 40.9578 24.4237 -0.140016 40.9578 24.4237 -0.140016
314 2 42.8503 24.4196 1.50001 42.8503 24.4196 1.50001
315 2 42.8652 24.4269 -1.76214 42.8652 24.4269 -1.76214
316 1 43.8078 26.0701 -0.12303 43.8078 26.0701 -0.12303
317 2 45.7094 26.0684 1.50664 45.7094 26.0684 1.50664
318 2 45.7069 26.0686 -1.75562 45.7069 26.0686 -1.75562
319 1 46.6563 24.4202 -0.125301 46.6563 24.4202 -0.125301
320 2 48.5627 24.4128 1.49826 48.5627 24.4128 1.49826
321 2 48.5501 24.4269 -1.76384 48.5501 24.4269 -1.76384
322 1 49.5066 26.0669 -0.129113 49.5066 26.0669 -0.129113
323 2 51.4085 26.0655 1.50035 51.4085 26.0655 1.50035
324 2 51.4054 26.0661 -1.76189 51.4054 26.0661 -1.76189
325 1 1.06531 27.7132 -0.131206 1.06531 27.7132 -0.131206
326 2 2.96658 27.7209 1.49904 2.96658 27.7209 1.49904
327 2 2.96475 27.7051 -1.76318 2.96475 27.7051 -1.76318
328 1 3.91569 29.3605 -0.140613 3.91569 29.3605 -0.140613
329 2 5.8176 29.3722 1.48879 5.8176 29.3722 1.48879
330 2 5.81468 29.3488 -1.77332 5.81468 29.3488 -1.77332
331 1 6.76461 27.7126 -0.131059 6.76461 27.7126 -0.131059
332 2 8.66759 27.7184 1.49718 8.66759 27.7184 1.49718
333 2 8.66257 27.708 -1.76504 8.66257 27.708 -1.76504
334 1 9.615 29.3609 -0.140864 9.615 29.3609 -0.140864
335 2 11.5169 29.3721 1.48852 11.5169 29.3721 1.48852
336 2 11.5141 29.3513 -1.77359 11.5141 29.3513 -1.77359
337 1 12.4642 27.714 -0.132661 12.4642 27.714 -0.132661
338 2 14.3675 27.7229 1.49527 14.3675 27.7229 1.49527
339 2 14.3619 27.7076 -1.76693 14.3619 27.7076 -1.76693
340 1 15.3144 29.3631 -0.145279 15.3144 29.3631 -0.145279
341 2 17.2163 29.376 1.48416 17.2163 29.376 1.48416
342 2 17.2136 29.3527 -1.77795 17.2136 29.3527 -1.77795
343 1 18.1637 27.7168 -0.135664 18.1637 27.7168 -0.135664
344 2 20.0651 27.7265 1.49447 20.0651 27.7265 1.49447
345 2 20.0632 27.7101 -1.76775 20.0632 27.7101 -1.76775
346 1 21.0138 29.3661 -0.145581 21.0138 29.3661 -0.145581
347 2 22.915 29.3759 1.48467 22.915 29.3759 1.48467
348 2 22.9136 29.3589 -1.77751 22.9136 29.3589 -1.77751
349 1 23.8631 27.7199 -0.138174 23.8631 27.7199 -0.138174
350 2 25.7742 27.7289 1.48015 25.7742 27.7289 1.48015
351 2 25.7526 27.7137 -1.78205 25.7526 27.7137 -1.78205
352 1 26.7132 29.3689 -0.165318 26.7132 29.3689 -0.165318
353 2 28.6293 29.3696 1.44703 28.6293 29.3696 1.44703
354 2 28.5978 29.3698 -1.81507 28.5978 29.3698 -1.81507
355 1 29.5621 27.7221 -0.193345 29.5621 27.7221 -0.193345
356 2 31.4744 27.7283 1.42363 31.4744 27.7283 1.42363
357 2 31.4504 27.7169 -1.83859 31.4504 27.7169 -1.83859
358 1 32.4123 29.3699 -0.220243 32.4123 29.3699 -0.220243
359 2 34.3141 29.3774 1.40933 34.3141 29.3774 1.40933
360 2 34.3115 29.3619 -1.85288 34.3115 29.3619 -1.85288
361 1 35.2612 27.7217 -0.214734 35.2612 27.7217 -0.214734
362 2 37.1484 27.7368 1.43186 37.1484 27.7368 1.43186
363 2 37.1745 27.7055 -1.83021 37.1745 27.7055 -1.83021
364 1 38.1115 29.3683 -0.207293 38.1115 29.3683 -0.207293
365 2 39.9929 29.3846 1.4458 39.9929 29.3846 1.4458
366 2 40.0304 29.35 -1.81606 40.0304 29.35 -1.81606
367 1 40.9597 27.7192 -0.156242 40.9597 27.7192 -0.156242
368 2 42.8479 27.73 1.48891 42.8479 27.73 1.48891
369 2 42.8718 27.7064 -1.77323 42.8718 27.7064 -1.77323
370 1 43.8099 29.3654 -0.147342 43.8099 29.3654 -0.147342
371 2 45.7035 29.3744 1.49139 45.7035 29.3744 1.49139
372 2 45.7168 29.354 -1.77076 45.7168 29.354 -1.77076
373 1 46.6582 27.7158 -0.125242 46.6582 27.7158 -0.125242
374 2 48.5621 27.7175 1.50157 48.5621 27.7175 1.50157
375 2 48.5548 27.7124 -1.76071 48.5548 27.7124 -1.76071
376 1 49.5085 29.3623 -0.134292 49.5085 29.3623 -0.134292
377 2 51.4123 29.3706 1.49267 51.4123 29.3706 1.49267
378 2 51.4053 29.3524 -1.76949 51.4053 29.3524 -1.76949
379 1 1.06712 31.009 -0.149719 1.06712 31.009 -0.149719
380 2 2.96837 31.0192 1.48027 2.96837 31.0192 1.48027
381 2 2.96662 30.9981 -1.78187 2.96662 30.9981 -1.78187
382 1 3.91736 32.6564 -0.16207 3.91736 32.6564 -0.16207
383 2 5.81775 32.6632 1.469 5.81775 32.6632 1.469
384 2 5.81783 32.6495 -1.79314 5.81783 32.6495 -1.79314
385 1 6.76606 31.0082 -0.155051 6.76606 31.0082 -0.155051
386 2 8.66455 31.0191 1.47832 8.66455 31.0191 1.47832
387 2 8.66851 30.9983 -1.7838 8.66851 30.9983 -1.7838
388 1 9.61632 32.6566 -0.162215 9.61632 32.6566 -0.162215
389 2 11.5172 32.6664 1.46821 11.5172 32.6664 1.46821
390 2 11.5164 32.6486 -1.7939 11.5164 32.6486 -1.7939
391 1 12.4653 31.0096 -0.154023 12.4653 31.0096 -0.154023
392 2 14.3669 31.0213 1.47566 14.3669 31.0213 1.47566
393 2 14.3647 31.0002 -1.78645 14.3647 31.0002 -1.78645
394 1 15.3155 32.6589 -0.166805 15.3155 32.6589 -0.166805
395 2 17.2176 32.6701 1.46227 17.2176 32.6701 1.46227
396 2 17.2145 32.6501 -1.79982 17.2145 32.6501 -1.79982
397 1 18.1646 31.0123 -0.159569 18.1646 31.0123 -0.159569
398 2 20.0634 31.0244 1.47352 20.0634 31.0244 1.47352
399 2 20.0669 31.0031 -1.78861 20.0669 31.0031 -1.78861
400 1 21.0149 32.6617 -0.167446 21.0149 32.6617 -0.167446
401 2 22.9109 32.6668 1.46881 22.9109 32.6668 1.46881
402 2 22.9199 32.6592 -1.79335 22.9199 32.6592 -1.79335
403 1 23.8641 31.0153 -0.155743 23.8641 31.0153 -0.155743
404 2 25.7699 31.0164 1.46891 25.7699 31.0164 1.46891
405 2 25.7592 31.0165 -1.7933 25.7592 31.0165 -1.7933
406 1 26.7144 32.6642 -0.165623 26.7144 32.6642 -0.165623
407 2 28.6237 32.6534 1.45482 28.6237 32.6534 1.45482
408 2 28.6062 32.6767 -1.80725 28.6062 32.6767 -1.80725
409 1 29.5634 31.0173 -0.193312 29.5634 31.0173 -0.193312
410 2 31.4759 31.0125 1.42339 31.4759 31.0125 1.42339
411 2 31.4518 31.023 -1.83875 31.4518 31.023 -1.83875
412 1 32.4138 32.6653 -0.20939 32.4138 32.6653 -0.20939
413 2 34.3227 32.6595 1.41172 34.3227 32.6595 1.41172
414 2 34.306 32.6707 -1.85042 34.306 32.6707 -1.85042
415 1 35.2628 31.017 -0.230204 35.2628 31.017 -0.230204
416 2 37.1556 31.0258 1.40983 37.1556 31.0258 1.40983
417 2 37.1708 31.007 -1.85231 37.1708 31.007 -1.85231
418 1 38.1132 32.6638 -0.226164 38.1132 32.6638 -0.226164
419 2 39.999 32.6714 1.42204 39.999 32.6714 1.42204
420 2 40.0281 32.6545 -1.83999 40.0281 32.6545 -1.83999
421 1 40.9617 31.0146 -0.191845 40.9617 31.0146 -0.191845
422 2 42.845 31.028 1.45892 42.845 31.028 1.45892
423 2 42.8788 30.9993 -1.80302 42.8788 30.9993 -1.80302
424 1 43.8119 32.6611 -0.176881 43.8119 32.6611 -0.176881
425 2 45.7012 32.6711 1.46685 45.7012 32.6711 1.46685
426 2 45.7232 32.649 -1.7952 45.7232 32.649 -1.7952
427 1 46.6602 31.0116 -0.146408 46.6602 31.0116 -0.146408
428 2 48.5589 31.0199 1.48637 48.5589 31.0199 1.48637
429 2 48.5621 31.0013 -1.7758 48.5621 31.0013 -1.7758
430 1 49.5104 32.6582 -0.153442 49.5104 32.6582 -0.153442
431 2 51.4128 32.6649 1.47497 51.4128 32.6649 1.47497
432 2 51.4086 32.6499 -1.78718 51.4086 32.6499 -1.78718
433 1 1.06888 34.3052 -0.165113 1.06888 34.3052 -0.165113
434 2 2.9707 34.3104 1.46415 2.9707 34.3104 1.46415
435 2 2.96782 34.2991 -1.79798 2.96782 34.2991 -1.79798
436 1 3.91895 35.9527 -0.173509 3.91895 35.9527 -0.173509
437 2 5.81697 35.9529 1.46039 5.81697 35.9529 1.46039
438 2 5.8218 35.9525 -1.80173 5.8218 35.9525 -1.80173
439 1 6.76754 34.3043 -0.169056 6.76754 34.3043 -0.169056
440 2 8.66653 34.3091 1.46369 8.66653 34.3091 1.46369
441 2 8.66945 34.3004 -1.79844 8.66945 34.3004 -1.79844
442 1 9.61764 35.953 -0.170839 9.61764 35.953 -0.170839
443 2 11.5212 35.958 1.4566 11.5212 35.958 1.4566
444 2 11.5151 35.9496 -1.8055 11.5151 35.9496 -1.8055
445 1 12.4665 34.3057 -0.172122 12.4665 34.3057 -0.172122
446 2 14.3688 34.3154 1.45666 14.3688 34.3154 1.45666
447 2 14.3652 34.2982 -1.80543 14.3652 34.2982 -1.80543
448 1 15.3166 35.955 -0.184159 15.3166 35.955 -0.184159
449 2 17.2199 35.965 1.44376 17.2199 35.965 1.44376
450 2 17.2145 35.9475 -1.81829 17.2145 35.9475 -1.81829
451 1 18.1657 34.3082 -0.179881 18.1657 34.3082 -0.179881
452 2 20.0629 34.3158 1.45523 20.0629 34.3158 1.45523
453 2 20.0697 34.3033 -1.80688 20.0697 34.3033 -1.80688
454 1 21.016 35.9577 -0.18019 21.016 35.9577 -0.18019
455 2 22.9077 35.9592 1.46153 22.9077 35.9592 1.46153
456 2 22.9255 35.9584 -1.80054 22.9255 35.9584 -1.80054
457 1 23.8652 34.311 -0.163688 23.8652 34.311 -0.163688
458 2 25.7617 34.3029 1.47218 25.7617 34.3029 1.47218
459 2 25.7699 34.3211 -1.78993 25.7699 34.3211 -1.78993
460 1 26.7157 35.9599 -0.147417 26.7157 35.9599 -0.147417
461 2 28.6206 35.9463 1.47849 28.6206 35.9463 1.47849
462 2 28.6121 35.975 -1.7835 28.6121 35.975 -1.7835
463 1 29.5649 34.3127 -0.169627 29.5649 34.3127 -0.169627
464 2 31.4784 34.297 1.44584 31.4784 34.297 1.44584
465 2 31.4524 34.3293 -1.81607 31.4524 34.3293 -1.81607
466 1 32.4153 35.9608 -0.176427 32.4153 35.9608 -0.176427
467 2 34.3295 35.9436 1.4383 34.3295 35.9436 1.4383
468 2 34.3023 35.978 -1.82354 34.3023 35.978 -1.82354
469 1 35.2642 34.3127 -0.218432 35.2642 34.3127 -0.218432
470 2 37.1662 34.3072 1.41096 37.1662 34.3072 1.41096
471 2 37.1634 34.3171 -1.85119 37.1634 34.3171 -1.85119
472 1 38.1146 35.9598 -0.21572 38.1146 35.9598 -0.21572
473 2 40.0087 35.9547 1.42292 40.0087 35.9547 1.42292
474 2 40.0216 35.9632 -1.83918 40.0216 35.9632 -1.83918
475 1 40.9634 34.3105 -0.208934 40.9634 34.3105 -0.208934
476 2 42.8495 34.3163 1.43884 42.8495 34.3163 1.43884
477 2 42.8781 34.3027 -1.82318 42.8781 34.3027 -1.82318
478 1 43.8136 35.9572 -0.190738 43.8136 35.9572 -0.190738
479 2 45.7033 35.9592 1.45265 45.7033 35.9592 1.45265
480 2 45.7246 35.9533 -1.80943 45.7246 35.9533 -1.80943
481 1 46.662 34.3076 -0.169183 46.662 34.3076 -0.169183
482 2 48.5576 34.3141 1.46725 48.5576 34.3141 1.46725
483 2 48.5672 34.2993 -1.79488 48.5672 34.2993 -1.79488
484 1 49.5121 35.9545 -0.168747 49.5121 35.9545 -0.168747
485 2 51.4113 35.9556 1.46342 51.4113 35.9556 1.46342
486 2 51.4137 35.9519 -1.79872 51.4137 35.9519 -1.79872
487 1 1.07053 37.6018 -0.169036 1.07053 37.6018 -0.169036
488 2 2.97162 37.5983 1.4611 2.97162 37.5983 1.4611
489 2 2.97025 37.6045 -1.80101 2.97025 37.6045 -1.80101
490 1 3.92059 39.2495 -0.167164 3.92059 39.2495 -0.167164
491 2 5.82032 39.2461 1.46474 5.82032 39.2461 1.46474
492 2 5.82173 39.2529 -1.79733 5.82173 39.2529 -1.79733
493 1 6.76901 37.6009 -0.169408 6.76901 37.6009 -0.169408
494 2 8.6704 37.6017 1.46053 8.6704 37.6017 1.46053
495 2 8.66852 37.601 -1.80157 8.66852 37.601 -1.80157
496 1 9.61913 39.2497 -0.171359 9.61913 39.2497 -0.171359
497 2 11.5264 39.2536 1.45163 11.5264 39.2536 1.45163
498 2 11.5128 39.2474 -1.81041 11.5128 39.2474 -1.81041
499 1 12.4678 37.6021 -0.180338 12.4678 37.6021 -0.180338
500 2 14.3752 37.6115 1.44257 14.3752 37.6115 1.44257
501 2 14.3614 37.595 -1.81944 14.3614 37.595 -1.81944
502 1 15.318 39.2516 -0.200791 15.318 39.2516 -0.200791
503 2 17.222 39.2615 1.42627 17.222 39.2615 1.42627
504 2 17.2152 39.244 -1.83573 17.2152 39.244 -1.83573
505 1 18.1669 37.6045 -0.197709 18.1669 37.6045 -0.197709
506 2 20.0627 37.6142 1.43917 20.0627 37.6142 1.43917
507 2 20.0723 37.5972 -1.82286 20.0723 37.5972 -1.82286
508 1 21.0175 39.2539 -0.197602 21.0175 39.2539 -0.197602
509 2 22.9037 39.2621 1.4504 22.9037 39.2621 1.4504
510 2 22.9324 39.248 -1.8115 22.9324 39.248 -1.8115
511 1 23.8665 37.6069 -0.16472 23.8665 37.6069 -0.16472
512 2 25.756 37.6054 1.47955 25.756 37.6054 1.47955
513 2 25.7782 37.6105 -1.78246 25.7782 37.6105 -1.78246
514 1 26.717 39.256 -0.142512 26.717 39.256 -0.142512
515 2 28.6127 39.2495 1.49447 28.6127 39.2495 1.49447
516 2 28.6229 39.2639 -1.76754 28.6229 39.2639 -1.76754
517 1 29.5663 37.6085 -0.140666 29.5663 37.6085 -0.140666
518 2 31.4762 37.5901 1.47915 31.4762 37.5901 1.47915
519 2 31.4576 37.6276 -1.78269 31.4576 37.6276 -1.78269
520 1 32.4169 39.2568 -0.138365 32.4169 39.2568 -0.138365
521 2 34.3304 39.2356 1.47717 34.3304 39.2356 1.47717
522 2 34.3045 39.278 -1.78452 34.3045 39.278 -1.78452
523 1 35.2657 37.6086 -0.183016 35.2657 37.6086 -0.183016
524 2 37.1743 37.5903 1.43843 37.1743 37.5903 1.43843
525 2 37.1583 37.626 -1.82344 37.1583 37.626 -1.82344
526 1 38.1162 39.2559 -0.178733 38.1162 39.2559 -0.178733
527 2 40.0206 39.2415 1.44784 40.0206 39.2415 1.44784
528 2 40.0129 39.2691 -1.81412 40.0129 39.2691 -1.81412
529 1 40.9649 37.6067 -0.199762 40.9649 37.6067 -0.199762
530 2 42.8575 37.6011 1.44062 42.8575 37.6011 1.44062
531 2 42.8734 37.6106 -1.82145 42.8734 37.6106 -1.82145
532 1 43.8152 39.2537 -0.180798 43.8152 39.2537 -0.180798
533 2 45.7093 39.2475 1.45766 45.7093 39.2475 1.45766
534 2 45.722 39.2583 -1.80438 45.722 39.2583 -1.80438