ITEM: TIMESTEP
2849000
ITEM: NUMBER OF ATOMS
810
ITEM: BOX BOUNDS pp pp pp
8.6298438867990135e-01 5.2154620611319167e+01
-6.2214203242770747e+00 5.7237635324276653e+01
-1.0000000000000000e+01 1.0000000000000000e+01
ITEM: ATOMS id type x y z xu yu zu
1 1 1.00635 -3.07508 -0.168805 1.00635 -3.07508 -0.168805
2 2 2.98792 -3.07747 1.419 2.98792 -3.07747 1.419
3 2 3.00517 -3.07209 -1.7349 3.00517 -3.07209 -1.7349
4 1 3.85492 -0.959608 -0.149812 3.85492 -0.959608 -0.149812
5 2 5.83905 -0.960634 1.43497 5.83905 -0.960634 1.43497
6 2 5.85121 -0.958436 -1.71915 5.85121 -0.958436 -1.71915
7 1 6.70428 -3.07396 -0.140289 6.70428 -3.07396 -0.140289
8 2 8.6884 -3.07366 1.44458 8.6884 -3.07366 1.44458
9 2 8.70076 -3.07326 -1.70973 8.70076 -3.07326 -1.70973
10 1 9.55391 -0.959297 -0.129323 9.55391 -0.959297 -0.129323
11 2 11.5425 -0.956607 1.45015 11.5425 -0.956607 1.45015
12 2 11.5461 -0.961396 -1.7043 11.5461 -0.961396 -1.7043
13 1 12.4043 -3.07259 -0.12322 12.4043 -3.07259 -0.12322
14 2 14.3949 -3.06989 1.45394 14.3949 -3.06989 1.45394
15 2 14.3948 -3.07486 -1.70049 14.3948 -3.07486 -1.70049
16 1 15.2549 -0.958823 -0.127029 15.2549 -0.958823 -0.127029
17 2 17.2499 -0.953851 1.44475 17.2499 -0.953851 1.44475
18 2 17.2411 -0.963829 -1.70958 17.2411 -0.963829 -1.70958
19 1 18.1055 -3.07301 -0.128331 18.1055 -3.07301 -0.128331
20 2 20.1022 -3.06794 1.4412 20.1022 -3.06794 1.4412
21 2 20.0902 -3.07897 -1.71295 20.0902 -3.07897 -1.71295
22 1 20.9561 -0.959611 -0.146569 20.9561 -0.959611 -0.146569
23 2 22.9549 -0.954972 1.42016 22.9549 -0.954972 1.42016
24 2 22.9385 -0.964827 -1.73391 22.9385 -0.964827 -1.73391
25 1 23.8063 -3.07465 -0.154628 23.8063 -3.07465 -0.154628
26 2 25.8053 -3.07004 1.41179 25.8053 -3.07004 1.41179
27 2 25.7886 -3.07956 -1.74225 25.7886 -3.07956 -1.74225
28 1 26.6565 -0.96026 -0.176179 26.6565 -0.96026 -0.176179
29 2 28.6547 -0.956939 1.39131 28.6547 -0.956939 1.39131
30 2 28.6395 -0.963275 -1.76268 28.6395 -0.963275 -1.76268
31 1 29.5067 -3.07471 -0.185265 29.5067 -3.07471 -0.185265
32 2 31.5033 -3.07186 1.38419 31.5033 -3.07186 1.38419
33 2 31.4913 -3.07686 -1.76988 31.4913 -3.07686 -1.76988
34 1 32.3565 -0.959452 -0.199241 32.3565 -0.959452 -0.199241
35 2 34.3488 -0.959545 1.37552 34.3488 -0.959545 1.37552
36 2 34.3454 -0.958584 -1.77841 34.3454 -0.958584 -1.77841
37 1 35.2064 -3.07373 -0.202685 35.2064 -3.07373 -0.202685
38 2 37.1976 -3.07501 1.37334 37.1976 -3.07501 1.37334
39 2 37.1962 -3.0722 -1.78058 37.1962 -3.0722 -1.78058
40 1 38.0556 -0.95832 -0.202001 38.0556 -0.95832 -0.202001
41 2 40.0444 -0.962952 1.37707 40.0444 -0.962952 1.37707
42 2 40.0479 -0.953566 -1.77662 40.0479 -0.953566 -1.77662
43 1 40.9046 -3.07382 -0.204694 40.9046 -3.07382 -0.204694
44 2 42.8929 -3.07944 1.37464 42.8929 -3.07944 1.37464
45 2 42.8969 -3.06864 -1.77912 42.8969 -3.06864 -1.77912
46 1 43.7531 -0.95856 -0.193941 43.7531 -0.95856 -0.193941
47 2 45.7395 -0.965354 1.38789 45.7395 -0.965354 1.38789
48 2 45.7475 -0.952142 -1.76566 45.7475 -0.952142 -1.76566
49 1 46.6015 -3.07479 -0.195221 46.6015 -3.07479 -0.195221
50 2 48.5854 -3.08103 1.38954 48.5854 -3.08103 1.38954
51 2 48.5981 -3.06892 -1.76409 48.5981 -3.06892 -1.76409
52 1 49.4496 -0.959238 -0.175876 49.4496 -0.959238 -0.175876
53 2 51.4328 -0.963679 1.40989 51.4328 -0.963679 1.40989
54 2 51.4469 -0.955187 -1.74377 51.4469 -0.955187 -1.74377
55 1 1.00649 1.15616 -0.157696 1.00649 1.15616 -0.157696
56 2 2.99158 1.15475 1.42586 2.99158 1.15475 1.42586
57 2 3.00187 1.15683 -1.72798 3.00187 1.15683 -1.72798
58 1 3.85562 3.27114 -0.146814 3.85562 3.27114 -0.146814
59 2 5.84132 3.27152 1.4359 5.84132 3.27152 1.4359
60 2 5.85083 3.26989 -1.7178 5.85083 3.26989 -1.7178
61 1 6.70431 1.15507 -0.137624 6.70431 1.15507 -0.137624
62 2 8.69153 1.15725 1.44344 8.69153 1.15725 1.44344
63 2 8.69783 1.15277 -1.71072 8.69783 1.15277 -1.71072
64 1 9.55435 3.26961 -0.134997 9.55435 3.26961 -0.134997
65 2 11.5449 3.27378 1.44199 11.5449 3.27378 1.44199
66 2 11.545 3.26517 -1.71201 11.545 3.26517 -1.71201
67 1 12.4043 1.15482 -0.129616 12.4043 1.15482 -0.129616
68 2 14.3969 1.15999 1.445 14.3969 1.15999 1.445
69 2 14.3928 1.15005 -1.70934 14.3928 1.15005 -1.70934
70 1 15.255 3.26912 -0.139894 15.255 3.26912 -0.139894
71 2 17.2502 3.27435 1.43145 17.2502 3.27435 1.43145
72 2 17.2413 3.26439 -1.72257 17.2413 3.26439 -1.72257
73 1 18.1056 1.15488 -0.141486 18.1056 1.15488 -0.141486
74 2 20.103 1.1602 1.4271 20.103 1.1602 1.4271
75 2 20.0895 1.14952 -1.72706 20.0895 1.14952 -1.72706
76 1 20.9561 3.26924 -0.160622 20.9561 3.26924 -0.160622
77 2 22.9538 3.27319 1.40758 22.9538 3.27319 1.40758
78 2 22.9401 3.26552 -1.74631 22.9401 3.26552 -1.74631
79 1 23.8064 1.15443 -0.167863 23.8064 1.15443 -0.167863
80 2 25.8049 1.15888 1.39918 25.8049 1.15888 1.39918
81 2 25.7891 1.15001 -1.75484 25.7891 1.15001 -1.75484
82 1 26.6564 3.26924 -0.1877 26.6564 3.26924 -0.1877
83 2 28.6523 3.27176 1.38259 28.6523 3.27176 1.38259
84 2 28.6418 3.26701 -1.7714 28.6418 3.26701 -1.7714
85 1 29.5064 1.15476 -0.193948 29.5064 1.15476 -0.193948
86 2 31.5008 1.15597 1.37829 31.5008 1.15597 1.37829
87 2 31.4932 1.15408 -1.77575 31.4932 1.15408 -1.77575
88 1 32.3562 3.27018 -0.201897 32.3562 3.27018 -0.201897
89 2 34.3462 3.27015 1.37575 34.3462 3.27015 1.37575
90 2 34.3473 3.27132 -1.77826 34.3473 3.27132 -1.77826
91 1 35.2061 1.15629 -0.201691 35.2061 1.15629 -0.201691
92 2 37.1954 1.15452 1.37692 37.1954 1.15452 1.37692
93 2 37.1979 1.15882 -1.77693 37.1979 1.15882 -1.77693
94 1 38.0554 3.27235 -0.196261 38.0554 3.27235 -0.196261
95 2 40.0415 3.26954 1.38615 40.0415 3.26954 1.38615
96 2 40.0504 3.27612 -1.76754 40.0504 3.27612 -1.76754
97 1 40.9046 1.15748 -0.192774 40.9046 1.15748 -0.192774
98 2 42.892 1.15212 1.38805 42.892 1.15212 1.38805
99 2 42.8982 1.16273 -1.76548 42.8982 1.16273 -1.76548
100 1 43.7534 3.27367 -0.180076 43.7534 3.27367 -0.180076
101 2 45.7398 3.26944 1.40192 45.7398 3.26944 1.40192
102 2 45.748 3.27772 -1.75148 45.748 3.27772 -1.75148
103 1 46.6015 1.1572 -0.178208 46.6015 1.1572 -0.178208
104 2 48.5872 1.15212 1.40465 48.5872 1.15212 1.40465
105 2 48.5965 1.16162 -1.7489 48.5965 1.16162 -1.7489
106 1 49.4501 3.27293 -0.163376 49.4501 3.27293 -0.163376
107 2 51.4359 3.27063 1.41929 51.4359 3.27063 1.41929
108 2 51.4451 3.27437 -1.73418 51.4451 3.27437 -1.73418
109 1 1.00745 5.38872 -0.152406 1.00745 5.38872 -0.152406
110 2 2.99415 5.38678 1.42918 2.99415 5.38678 1.42918
111 2 3.00198 5.38921 -1.7241 3.00198 5.38921 -1.7241
112 1 3.85712 7.50424 -0.144176 3.85712 7.50424 -0.144176
113 2 5.84688 7.50543 1.43381 5.84688 7.50543 1.43381
114 2 5.84863 7.50089 -1.71968 5.84863 7.50089 -1.71968
115 1 6.70532 5.38629 -0.139685 6.70532 5.38629 -0.139685
116 2 8.69538 5.38837 1.43791 8.69538 5.38837 1.43791
117 2 8.69656 5.38278 -1.71574 8.69656 5.38278 -1.71574
118 1 9.55573 7.50097 -0.142428 9.55573 7.50097 -0.142428
119 2 11.548 7.5037 1.43248 11.548 7.5037 1.43248
120 2 11.5449 7.49688 -1.72127 11.5449 7.49688 -1.72127
121 1 12.4049 5.38434 -0.14072 12.4049 5.38434 -0.14072
122 2 14.3983 5.38846 1.43279 14.3983 5.38846 1.43279
123 2 14.3931 5.37987 -1.72104 14.3931 5.37987 -1.72104
124 1 15.2556 7.49937 -0.15118 15.2556 7.49937 -0.15118
125 2 17.2504 7.5025 1.42051 17.2504 7.5025 1.42051
126 2 17.2423 7.49636 -1.73336 17.2423 7.49636 -1.73336
127 1 18.1057 5.38426 -0.154499 18.1057 5.38426 -0.154499
128 2 20.1024 5.3877 1.41493 20.1024 5.3877 1.41493
129 2 20.0908 5.38121 -1.73881 20.0908 5.38121 -1.73881
130 1 20.9562 7.49983 -0.169372 20.9562 7.49983 -0.169372
131 2 22.9535 7.50202 1.39934 22.9535 7.50202 1.39934
132 2 22.9406 7.49766 -1.75448 22.9406 7.49766 -1.75448
133 1 23.8063 5.38448 -0.178134 23.8063 5.38448 -0.178134
134 2 25.8042 5.38656 1.3899 25.8042 5.38656 1.3899
135 2 25.7902 5.38232 -1.76386 25.7902 5.38232 -1.76386
136 1 26.6565 7.49982 -0.193288 26.6565 7.49982 -0.193288
137 2 28.6511 7.49974 1.37873 28.6511 7.49974 1.37873
138 2 28.6434 7.49991 -1.77504 28.6434 7.49991 -1.77504
139 1 29.5063 5.38455 -0.200074 29.5063 5.38455 -0.200074
140 2 31.498 5.3849 1.37542 31.498 5.3849 1.37542
141 2 31.4959 5.38476 -1.77846 31.4959 5.38476 -1.77846
142 1 32.3559 7.50042 -0.201876 32.3559 7.50042 -0.201876
143 2 34.3442 7.49896 1.37802 34.3442 7.49896 1.37802
144 2 34.349 7.50289 -1.77579 34.349 7.50289 -1.77579
145 1 35.2057 5.38625 -0.199957 35.2057 5.38625 -0.199957
146 2 37.1922 5.38416 1.38202 37.1922 5.38416 1.38202
147 2 37.2004 5.38978 -1.77177 37.2004 5.38978 -1.77177
148 1 38.0549 7.50303 -0.188993 38.0549 7.50303 -0.188993
149 2 40.0409 7.5015 1.3937 40.0409 7.5015 1.3937
150 2 40.05 7.50611 -1.76006 40.05 7.50611 -1.76006
151 1 40.9044 5.38904 -0.183912 40.9044 5.38904 -0.183912
152 2 42.8905 5.38629 1.39863 42.8905 5.38629 1.39863
153 2 42.8997 5.3927 -1.75482 42.8997 5.3927 -1.75482
154 1 43.7534 7.506 -0.171422 43.7534 7.506 -0.171422
155 2 45.7401 7.50421 1.41027 45.7401 7.50421 1.41027
156 2 45.7478 7.50802 -1.74323 45.7478 7.50802 -1.74323
157 1 46.602 5.39008 -0.16716 46.602 5.39008 -0.16716
158 2 48.5885 5.38698 1.41478 48.5885 5.38698 1.41478
159 2 48.5968 5.39243 -1.73847 48.5968 5.39243 -1.73847
160 1 49.4511 7.50633 -0.156192 49.4511 7.50633 -0.156192
161 2 51.439 7.50467 1.4241 51.439 7.50467 1.4241
162 2 51.4445 7.50661 -1.72926 51.4445 7.50661 -1.72926
163 1 1.00913 9.62166 -0.149988 1.00913 9.62166 -0.149988
164 2 2.9975 9.62238 1.42959 2.9975 9.62238 1.42959
165 2 3.00184 9.61893 -1.72406 3.00184 9.61893 -1.72406
166 1 3.85925 11.7359 -0.148393 3.85925 11.7359 -0.148393
167 2 5.84997 11.7372 1.42836 5.84997 11.7372 1.42836
168 2 5.84975 11.7324 -1.72533 5.84975 11.7324 -1.72533
169 1 6.70746 9.61857 -0.145422 6.70746 9.61857 -0.145422
170 2 8.69853 9.62032 1.43085 8.69853 9.62032 1.43085
171 2 8.69768 9.61451 -1.72277 8.69768 9.61451 -1.72277
172 1 9.5578 11.7326 -0.149952 9.5578 11.7326 -0.149952
173 2 11.5493 11.7331 1.4256 11.5493 11.7331 1.4256
174 2 11.5475 11.7301 -1.72806 11.5475 11.7301 -1.72806
175 1 12.4063 9.61537 -0.14967 12.4063 9.61537 -0.14967
176 2 14.3993 9.61704 1.42409 14.3993 9.61704 1.42409
177 2 14.3945 9.61268 -1.72977 14.3945 9.61268 -1.72977
178 1 15.2565 11.7299 -0.156963 15.2565 11.7299 -0.156963
179 2 17.2503 11.7296 1.41583 17.2503 11.7296 1.41583
180 2 17.2438 11.7293 -1.73822 17.2438 11.7293 -1.73822
181 1 18.106 9.61448 -0.162546 18.106 9.61448 -0.162546
182 2 20.1014 9.61585 1.4084 20.1014 9.61585 1.4084
183 2 20.092 9.61319 -1.74568 20.092 9.61319 -1.74568
184 1 20.9563 11.7292 -0.172738 20.9563 11.7292 -0.172738
185 2 22.9523 11.7282 1.39755 22.9523 11.7282 1.39755
186 2 22.9417 11.7305 -1.75656 22.9417 11.7305 -1.75656
187 1 23.8066 9.61491 -0.183601 23.8066 9.61491 -0.183601
188 2 25.8024 9.6142 1.38696 25.8024 9.6142 1.38696
189 2 25.7924 9.61559 -1.76692 25.7924 9.61559 -1.76692
190 1 26.6567 11.73 -0.191468 26.6567 11.73 -0.191468
191 2 28.6495 11.7269 1.3826 28.6495 11.7269 1.3826
192 2 28.6453 11.7337 -1.77123 28.6453 11.7337 -1.77123
193 1 29.5064 9.61531 -0.199658 29.5064 9.61531 -0.199658
194 2 31.497 9.61372 1.37717 31.497 9.61372 1.37717
195 2 31.4971 9.61727 -1.77658 31.4971 9.61727 -1.77658
196 1 32.3559 11.7313 -0.196888 32.3559 11.7313 -0.196888
197 2 34.343 11.7285 1.38434 34.343 11.7285 1.38434
198 2 34.3502 11.735 -1.76938 34.3502 11.735 -1.76938
199 1 35.2053 9.61683 -0.194783 35.2053 9.61683 -0.194783
200 2 37.1909 9.6153 1.38826 37.1909 9.6153 1.38826
201 2 37.2007 9.61965 -1.7656 37.2007 9.61965 -1.7656
202 1 38.0545 11.7334 -0.182956 38.0545 11.7334 -0.182956
203 2 40.0402 11.7316 1.40009 40.0402 11.7316 1.40009
204 2 40.0499 11.7366 -1.7538 40.0499 11.7366 -1.7538
205 1 40.904 9.61983 -0.177496 40.904 9.61983 -0.177496
206 2 42.8898 9.61878 1.40542 42.8898 9.61878 1.40542
207 2 42.8992 9.62218 -1.74851 42.8992 9.62218 -1.74851
208 1 43.7533 11.7361 -0.166731 43.7533 11.7361 -0.166731
209 2 45.7402 11.7356 1.41473 45.7402 11.7356 1.41473
210 2 45.7474 11.7378 -1.73922 45.7474 11.7378 -1.73922
211 1 46.6027 9.62226 -0.16183 46.6027 9.62226 -0.16183
212 2 48.5899 9.62206 1.41925 48.5899 9.62206 1.41925
213 2 48.5966 9.62217 -1.73443 48.5966 9.62217 -1.73443
214 1 49.4522 11.7377 -0.155708 49.4522 11.7377 -0.155708
215 2 51.4401 11.7381 1.42446 51.4401 11.7381 1.42446
216 2 51.4454 11.7363 -1.72938 51.4454 11.7363 -1.72938
217 1 1.01053 13.8522 -0.152574 1.01053 13.8522 -0.152574
218 2 3.00072 13.8541 1.42489 3.00072 13.8541 1.42489
219 2 3.00147 13.8487 -1.72898 3.00147 13.8487 -1.72898
220 1 3.86072 15.9661 -0.155571 3.86072 15.9661 -0.155571
221 2 5.8508 15.9676 1.42198 5.8508 15.9676 1.42198
222 2 5.8517 15.9633 -1.73194 5.8517 15.9633 -1.73194
223 1 6.70943 13.8498 -0.151786 6.70943 13.8498 -0.151786
224 2 8.70012 13.8503 1.42491 8.70012 13.8503 1.42491
225 2 8.69991 13.8474 -1.72882 8.69991 13.8474 -1.72882
226 1 9.55933 15.9636 -0.154106 9.55933 15.9636 -0.154106
227 2 11.5499 15.9631 1.42269 11.5499 15.9631 1.42269
228 2 11.5497 15.9623 -1.73121 11.5497 15.9623 -1.73121
229 1 12.4078 13.8467 -0.153724 12.4078 13.8467 -0.153724
230 2 14.4001 13.8456 1.42091 14.4001 13.8456 1.42091
231 2 14.3966 13.8458 -1.73293 14.3966 13.8458 -1.73293
232 1 15.2576 15.9604 -0.156777 15.2576 15.9604 -0.156777
233 2 17.2501 15.9576 1.41747 17.2501 15.9576 1.41747
234 2 17.2459 15.9615 -1.7365 17.2459 15.9615 -1.7365
235 1 18.1066 13.8441 -0.163127 18.1066 13.8441 -0.163127
236 2 20.1013 13.8423 1.40853 20.1013 13.8423 1.40853
237 2 20.0929 13.8454 -1.74555 20.0929 13.8454 -1.74555
238 1 20.9564 15.9584 -0.168487 20.9564 15.9584 -0.168487
239 2 22.9504 15.9539 1.40414 22.9504 15.9539 1.40414
240 2 22.9435 15.9632 -1.74993 22.9435 15.9632 -1.74993
241 1 23.8064 13.8441 -0.180541 23.8064 13.8441 -0.180541
242 2 25.8002 13.8405 1.39229 25.8002 13.8405 1.39229
243 2 25.7939 13.8485 -1.76172 25.7939 13.8485 -1.76172
244 1 26.656 15.9596 -0.180948 26.656 15.9596 -0.180948
245 2 28.6483 15.955 1.39388 28.6483 15.955 1.39388
246 2 28.645 15.9656 -1.76005 28.645 15.9656 -1.76005
247 1 29.5063 13.8458 -0.190779 29.5063 13.8458 -0.190779
248 2 31.4969 13.8412 1.38618 31.4969 13.8412 1.38618
249 2 31.497 13.8513 -1.76757 31.497 13.8513 -1.76757
250 1 32.3555 15.962 -0.18386 32.3555 15.962 -0.18386
251 2 34.3443 15.9584 1.39539 34.3443 15.9584 1.39539
252 2 34.348 15.9669 -1.75837 34.348 15.9669 -1.75837
253 1 35.2052 13.8477 -0.1861 35.2052 13.8477 -0.1861
254 2 37.1919 13.8452 1.39566 37.1919 13.8452 1.39566
255 2 37.1997 13.8512 -1.75801 37.1997 13.8512 -1.75801
256 1 38.0543 15.9642 -0.174935 38.0543 15.9642 -0.174935
257 2 40.041 15.9625 1.40673 40.041 15.9625 1.40673
258 2 40.0487 15.9667 -1.74707 40.0487 15.9667 -1.74707
259 1 40.9037 13.8499 -0.170976 40.9037 13.8499 -0.170976
260 2 42.8908 13.8489 1.41031 42.8908 13.8489 1.41031
261 2 42.8978 13.852 -1.74351 42.8978 13.852 -1.74351
262 1 43.7532 15.9661 -0.162847 43.7532 15.9661 -0.162847
263 2 45.7422 15.9674 1.41616 45.7422 15.9674 1.41616
264 2 45.7453 15.9656 -1.73786 45.7453 15.9656 -1.73786
265 1 46.6028 13.8522 -0.15911 46.6028 13.8522 -0.15911
266 2 48.592 13.853 1.41968 48.592 13.853 1.41968
267 2 48.5947 13.8517 -1.73427 48.5947 13.8517 -1.73427
268 1 49.4529 15.9673 -0.1576 49.4529 15.9673 -0.1576
269 2 51.4428 15.9702 1.4203 51.4428 15.9702 1.4203
270 2 51.4441 15.9641 -1.73372 51.4441 15.9641 -1.73372
271 1 1.01151 18.0816 -0.160459 1.01151 18.0816 -0.160459
272 2 3.00222 18.0849 1.41653 3.00222 18.0849 1.41653
273 2 3.00216 18.0776 -1.73734 3.00216 18.0776 -1.73734
274 1 3.86136 20.1963 -0.165315 3.86136 20.1963 -0.165315
275 2 5.85064 20.1999 1.41327 5.85064 20.1999 1.41327
276 2 5.8535 20.1921 -1.74038 5.8535 20.1921 -1.74038
277 1 6.71057 18.0801 -0.157842 6.71057 18.0801 -0.157842
278 2 8.70047 18.0813 1.41995 8.70047 18.0813 1.41995
279 2 8.70181 18.0776 -1.73385 8.70181 18.0776 -1.73385
280 1 9.56003 20.1946 -0.159208 9.56003 20.1946 -0.159208
281 2 11.5491 20.1949 1.4196 11.5491 20.1949 1.4196
282 2 11.5523 20.1927 -1.73393 11.5523 20.1927 -1.73393
283 1 12.4089 18.0772 -0.154981 12.4089 18.0772 -0.154981
284 2 14.3994 18.075 1.42188 14.3994 18.075 1.42188
285 2 14.3993 18.0777 -1.73195 14.3993 18.0777 -1.73195
286 1 15.258 20.1912 -0.153501 15.258 20.1912 -0.153501
287 2 17.2492 20.1877 1.42254 17.2492 20.1877 1.42254
288 2 17.2479 20.1929 -1.73112 17.2479 20.1929 -1.73112
289 1 18.107 18.0741 -0.158088 18.107 18.0741 -0.158088
290 2 20.1003 18.0693 1.41536 20.1003 18.0693 1.41536
291 2 20.0947 18.0778 -1.73858 20.0947 18.0778 -1.73858
292 1 20.9561 20.1885 -0.15749 20.9561 20.1885 -0.15749
293 2 22.9485 20.1827 1.41694 22.9485 20.1827 1.41694
294 2 22.9446 20.1941 -1.73694 22.9446 20.1941 -1.73694
295 1 23.8059 18.0734 -0.168588 23.8059 18.0734 -0.168588
296 2 25.7992 18.0683 1.40492 25.7992 18.0683 1.40492
297 2 25.7937 18.0796 -1.74903 25.7937 18.0796 -1.74903
298 1 26.655 20.1893 -0.165819 26.655 20.1893 -0.165819
299 2 28.6471 20.1839 1.40921 28.6471 20.1839 1.40921
300 2 28.6439 20.1963 -1.74477 28.6439 20.1963 -1.74477
301 1 29.5053 18.0758 -0.176799 29.5053 18.0758 -0.176799
302 2 31.4957 18.0708 1.40045 31.4957 18.0708 1.40045
303 2 31.4963 18.0823 -1.75337 31.4963 18.0823 -1.75337
304 1 32.3545 20.1924 -0.168512 32.3545 20.1924 -0.168512
305 2 34.3443 20.1874 1.4095 34.3443 20.1874 1.4095
306 2 34.346 20.1989 -1.74439 34.346 20.1989 -1.74439
307 1 35.2046 18.0785 -0.174476 35.2046 18.0785 -0.174476
308 2 37.1925 18.0749 1.40579 37.1925 18.0749 1.40579
309 2 37.1979 18.0831 -1.74802 37.1979 18.0831 -1.74802
310 1 38.0538 20.1946 -0.164262 38.0538 20.1946 -0.164262
311 2 40.0435 20.193 1.41384 40.0435 20.193 1.41384
312 2 40.0453 20.1969 -1.7401 40.0453 20.1969 -1.7401
313 1 40.9036 18.0802 -0.16529 40.9036 18.0802 -0.16529
314 2 42.8925 18.0803 1.41373 42.8925 18.0803 1.41373
315 2 42.8957 18.0807 -1.74028 42.8957 18.0807 -1.74028
316 1 43.7532 20.1956 -0.162218 43.7532 20.1956 -0.162218
317 2 45.7447 20.1978 1.41376 45.7447 20.1978 1.41376
318 2 45.7429 20.1938 -1.74033 45.7429 20.1938 -1.74033
319 1 46.6031 18.0815 -0.161186 46.6031 18.0815 -0.161186
320 2 48.5935 18.0841 1.41614 48.5935 18.0841 1.41614
321 2 48.5939 18.0791 -1.73798 48.5939 18.0791 -1.73798
322 1 49.4532 20.1963 -0.164382 49.4532 20.1963 -0.164382
323 2 51.445 20.2009 1.4113 51.445 20.2009 1.4113
324 2 51.4428 20.1919 -1.74263 51.4428 20.1919 -1.74263
325 1 1.01142 22.3115 -0.172089 1.01142 22.3115 -0.172089
326 2 3.0013 22.3156 1.40583 3.0013 22.3156 1.40583
327 2 3.00306 22.3077 -1.74792 3.00306 22.3077 -1.74792
328 1 3.86102 24.4271 -0.175839 3.86102 24.4271 -0.175839
329 2 5.84986 24.4306 1.40339 5.84986 24.4306 1.40339
330 2 5.85371 24.4239 -1.75025 5.85371 24.4239 -1.75025
331 1 6.71082 22.3115 -0.167857 6.71082 22.3115 -0.167857
332 2 8.6988 22.3141 1.4123 8.6988 22.3141 1.4123
333 2 8.70436 22.3083 -1.74116 8.70436 22.3083 -1.74116
334 1 9.56017 24.427 -0.166706 9.56017 24.427 -0.166706
335 2 11.5469 24.4278 1.415 11.5469 24.4278 1.415
336 2 11.555 24.425 -1.73836 11.555 24.425 -1.73836
337 1 12.4092 22.3093 -0.157727 12.4092 22.3093 -0.157727
338 2 14.3974 22.3082 1.42219 14.3974 22.3082 1.42219
339 2 14.4026 22.3085 -1.73115 14.4026 22.3085 -1.73115
340 1 15.2584 24.4243 -0.152873 15.2584 24.4243 -0.152873
341 2 17.2467 24.421 1.42684 17.2467 24.421 1.42684
342 2 17.2516 24.4252 -1.72643 17.2516 24.4252 -1.72643
343 1 18.107 22.3057 -0.151281 18.107 22.3057 -0.151281
344 2 20.0974 22.3 1.42566 20.0974 22.3 1.42566
345 2 20.0977 22.3098 -1.72789 20.0977 22.3098 -1.72789
346 1 20.9559 24.4205 -0.144875 20.9559 24.4205 -0.144875
347 2 22.9476 24.4146 1.4307 22.9476 24.4146 1.4307
348 2 22.9453 24.4248 -1.72289 22.9453 24.4248 -1.72289
349 1 23.8049 22.3037 -0.153514 23.8049 22.3037 -0.153514
350 2 25.7975 22.2972 1.42097 25.7975 22.2972 1.42097
351 2 25.7933 22.3105 -1.73304 25.7933 22.3105 -1.73304
352 1 26.654 24.4189 -0.148381 26.654 24.4189 -0.148381
353 2 28.6454 24.4116 1.42745 28.6454 24.4116 1.42745
354 2 28.6434 24.427 -1.72661 28.6434 24.427 -1.72661
355 1 29.504 22.3053 -0.160107 29.504 22.3053 -0.160107
356 2 31.4944 22.2999 1.41698 31.4944 22.2999 1.41698
357 2 31.4945 22.3126 -1.73719 31.4945 22.3126 -1.73719
358 1 32.3533 24.4212 -0.151559 32.3533 24.4212 -0.151559
359 2 34.3441 24.4167 1.42513 34.3441 24.4167 1.42513
360 2 34.3435 24.4276 -1.72908 34.3435 24.4276 -1.72908
361 1 35.2038 22.3085 -0.159359 35.2038 22.3085 -0.159359
362 2 37.1942 22.3052 1.41789 37.1942 22.3052 1.41789
363 2 37.1946 22.313 -1.73614 37.1946 22.313 -1.73614
364 1 38.0533 24.424 -0.153934 38.0533 24.424 -0.153934
365 2 40.0464 24.4231 1.42003 40.0464 24.4231 1.42003
366 2 40.0414 24.4256 -1.73407 40.0414 24.4256 -1.73407
367 1 40.9034 22.31 -0.160138 40.9034 22.31 -0.160138
368 2 42.8956 22.3109 1.41481 42.8956 22.3109 1.41481
369 2 42.8923 22.3094 -1.73919 42.8923 22.3094 -1.73919
370 1 43.7531 24.425 -0.164088 43.7531 24.425 -0.164088
371 2 45.7469 24.4277 1.40881 45.7469 24.4277 1.40881
372 2 45.7404 24.4224 -1.74521 45.7404 24.4224 -1.74521
373 1 46.6031 22.3105 -0.166498 46.6031 22.3105 -0.166498
374 2 48.5955 22.315 1.4082 48.5955 22.315 1.4082
375 2 48.5919 22.3066 -1.74577 48.5919 22.3066 -1.74577
376 1 49.4528 24.4258 -0.175279 49.4528 24.4258 -0.175279
377 2 51.4446 24.4299 1.40027 51.4446 24.4299 1.40027
378 2 51.4423 24.4224 -1.75367 51.4423 24.4224 -1.75367
379 1 1.01074 26.5414 -0.182403 1.01074 26.5414 -0.182403
380 2 3.00062 26.5459 1.39551 3.00062 26.5459 1.39551
381 2 3.00218 26.5381 -1.75839 3.00218 26.5381 -1.75839
382 1 3.86021 28.6574 -0.186078 3.86021 28.6574 -0.186078
383 2 5.8474 28.6603 1.39516 5.8474 28.6603 1.39516
384 2 5.85443 28.6559 -1.75863 5.85443 28.6559 -1.75863
385 1 6.7105 26.543 -0.176749 6.7105 26.543 -0.176749
386 2 8.69727 26.5453 1.40501 8.69727 26.5453 1.40501
387 2 8.70526 26.5409 -1.74859 8.70526 26.5409 -1.74859
388 1 9.55992 28.6589 -0.172321 9.55992 28.6589 -0.172321
389 2 11.5447 28.659 1.41184 11.5447 28.659 1.41184
390 2 11.5568 28.6584 -1.74168 11.5568 28.6584 -1.74168
391 1 12.4095 26.5424 -0.161274 12.4095 26.5424 -0.161274
392 2 14.3958 26.5421 1.42098 14.3958 26.5421 1.42098
393 2 14.4048 26.5411 -1.73235 14.4048 26.5411 -1.73235
394 1 15.2588 28.6575 -0.15363 15.2588 28.6575 -0.15363
395 2 17.2444 28.6556 1.42939 17.2444 28.6556 1.42939
396 2 17.2548 28.6572 -1.72396 17.2548 28.6572 -1.72396
397 1 18.1075 26.5391 -0.145856 18.1075 26.5391 -0.145856
398 2 20.096 26.5361 1.43352 20.096 26.5361 1.43352
399 2 20.1003 26.5396 -1.71982 20.1003 26.5396 -1.71982
400 1 20.9567 28.6536 -0.139396 20.9567 28.6536 -0.139396
401 2 22.945 28.6491 1.44014 22.945 28.6491 1.44014
402 2 22.9496 28.6556 -1.71326 22.9496 28.6556 -1.71326
403 1 23.805 26.5353 -0.13999 23.805 26.5353 -0.13999
404 2 25.7958 26.5287 1.43663 25.7958 26.5287 1.43663
405 2 25.7953 26.5408 -1.71698 25.7953 26.5408 -1.71698
406 1 26.6542 28.6504 -0.13235 26.6542 28.6504 -0.13235
407 2 28.645 28.6446 1.4442 28.645 28.6446 1.4442
408 2 28.6444 28.6553 -1.70949 28.6444 28.6553 -1.70949
409 1 29.5032 26.5345 -0.140148 29.5032 26.5345 -0.140148
410 2 31.4955 26.5288 1.43479 31.4955 26.5288 1.43479
411 2 31.4919 26.5415 -1.71925 31.4919 26.5415 -1.71925
412 1 32.3528 28.6504 -0.135013 32.3528 28.6504 -0.135013
413 2 34.3465 28.6477 1.43813 34.3465 28.6477 1.43813
414 2 34.34 28.6542 -1.71598 34.34 28.6542 -1.71598
415 1 35.2029 26.537 -0.14516 35.2029 26.537 -0.14516
416 2 37.1965 26.5353 1.42829 37.1965 26.5353 1.42829
417 2 37.1905 26.5404 -1.72591 37.1905 26.5404 -1.72591
418 1 38.0528 28.6526 -0.147288 38.0528 28.6526 -0.147288
419 2 40.049 28.6537 1.42282 40.049 28.6537 1.42282
420 2 40.0378 28.6529 -1.73123 40.0378 28.6529 -1.73123
421 1 40.903 26.5392 -0.156851 40.903 26.5392 -0.156851
422 2 42.8986 26.5408 1.41404 42.8986 26.5408 1.41404
423 2 42.8886 26.5384 -1.74001 42.8886 26.5384 -1.74001
424 1 43.7527 28.6544 -0.167394 43.7527 28.6544 -0.167394
425 2 45.7493 28.6581 1.40211 45.7493 28.6581 1.40211
426 2 45.7373 28.6513 -1.7518 45.7373 28.6513 -1.7518
427 1 46.6027 26.54 -0.1736 46.6027 26.54 -0.1736
428 2 48.5972 26.5444 1.39845 48.5972 26.5444 1.39845
429 2 48.5892 26.5363 -1.75557 48.5892 26.5363 -1.75557
430 1 49.4522 28.6554 -0.185979 49.4522 28.6554 -0.185979
431 2 51.4437 28.6599 1.38977 51.4437 28.6599 1.38977
432 2 51.4419 28.652 -1.76414 51.4419 28.652 -1.76414
433 1 1.00998 30.7716 -0.19288 1.00998 30.7716 -0.19288
434 2 2.99909 30.7752 1.38599 2.99909 30.7752 1.38599
435 2 3.00228 30.7696 -1.76773 3.00228 30.7696 -1.76773
436 1 3.85943 32.8885 -0.193633 3.85943 32.8885 -0.193633
437 2 5.8451 32.8903 1.3896 5.8451 32.8903 1.3896
438 2 5.85515 32.8876 -1.76424 5.85515 32.8876 -1.76424
439 1 6.70967 30.7739 -0.182746 6.70967 30.7739 -0.182746
440 2 8.69473 30.7742 1.40127 8.69473 30.7742 1.40127
441 2 8.70622 30.7745 -1.75242 8.70622 30.7745 -1.75242
442 1 9.55952 32.89 -0.172433 9.55952 32.89 -0.172433
443 2 11.5439 32.8892 1.4125 11.5439 32.8892 1.4125
444 2 11.5567 32.891 -1.74125 11.5567 32.891 -1.74125
445 1 12.4095 30.7745 -0.161983 12.4095 30.7745 -0.161983
446 2 14.3946 30.7723 1.42197 14.3946 30.7723 1.42197
447 2 14.4061 30.7757 -1.73153 14.4061 30.7757 -1.73153
448 1 15.2593 32.8896 -0.149568 15.2593 32.8896 -0.149568
449 2 17.2454 32.8872 1.43317 17.2454 32.8872 1.43317
450 2 17.2548 32.8906 -1.72034 17.2548 32.8906 -1.72034
451 1 18.1083 30.7721 -0.143336 18.1083 30.7721 -0.143336
452 2 20.0951 30.7687 1.43817 20.0951 30.7687 1.43817
453 2 20.1029 30.7731 -1.71516 20.1029 30.7731 -1.71516
454 1 20.9577 32.8866 -0.133374 20.9577 32.8866 -0.133374
455 2 22.9445 32.882 1.44809 22.9445 32.882 1.44809
456 2 22.9523 32.8887 -1.70522 22.9523 32.8887 -1.70522
457 1 23.8059 30.7681 -0.130879 23.8059 30.7681 -0.130879
458 2 25.7941 30.7629 1.44881 25.7941 30.7629 1.44881
459 2 25.799 30.7714 -1.70457 25.799 30.7714 -1.70457
460 1 26.6552 32.8831 -0.121342 26.6552 32.8831 -0.121342
461 2 28.6471 32.8806 1.45401 28.6471 32.8806 1.45401
462 2 28.6446 32.8839 -1.69943 28.6446 32.8839 -1.69943
463 1 29.5036 30.7657 -0.125955 29.5036 30.7657 -0.125955
464 2 31.4969 30.7626 1.44759 31.4969 30.7626 1.44759
465 2 31.4914 30.7686 -1.70613 31.4914 30.7686 -1.70613
466 1 32.3533 32.8814 -0.127142 32.3533 32.8814 -0.127142
467 2 34.3495 32.8818 1.44291 34.3495 32.8818 1.44291
468 2 34.3384 32.8808 -1.71077 34.3384 32.8808 -1.71077
469 1 35.2026 30.7662 -0.136667 35.2026 30.7662 -0.136667
470 2 37.1991 30.7668 1.43313 37.1991 30.7668 1.43313
471 2 37.1874 30.7669 -1.72079 37.1874 30.7669 -1.72079
472 1 38.0527 32.8824 -0.147153 38.0527 32.8824 -0.147153
473 2 40.0511 32.8853 1.42023 40.0511 32.8853 1.42023
474 2 40.0357 32.8809 -1.73354 40.0357 32.8809 -1.73354
475 1 40.9027 30.7684 -0.157943 40.9027 30.7684 -0.157943
476 2 42.9005 30.7716 1.4101 42.9005 30.7716 1.4101
477 2 42.8862 30.7665 -1.74372 42.8862 30.7665 -1.74372
478 1 43.7526 32.8847 -0.174163 43.7526 32.8847 -0.174163
479 2 45.7509 32.8891 1.3932 45.7509 32.8891 1.3932
480 2 45.7357 32.8814 -1.7604 45.7357 32.8814 -1.7604
481 1 46.6023 30.77 -0.182565 46.6023 30.77 -0.182565
482 2 48.5975 30.7737 1.38868 48.5975 30.7737 1.38868
483 2 48.5884 30.7672 -1.76506 48.5884 30.7672 -1.76506
484 1 49.4518 32.8864 -0.195097 49.4518 32.8864 -0.195097
485 2 51.4442 32.8908 1.37965 51.4442 32.8908 1.37965
486 2 51.4408 32.883 -1.77399 51.4408 32.883 -1.77399
487 1 1.00967 35.0032 -0.202883 1.00967 35.0032 -0.202883
488 2 2.99679 35.0059 1.37835 2.99679 35.0059 1.37835
489 2 3.00379 35.0013 -1.77547 3.00379 35.0013 -1.77547
490 1 3.85944 37.1192 -0.199296 3.85944 37.1192 -0.199296
491 2 5.84255 37.1192 1.38696 5.84255 37.1192 1.38696
492 2 5.85777 37.1199 -1.76676 5.85777 37.1199 -1.76676
493 1 6.70933 35.0045 -0.186133 6.70933 35.0045 -0.186133
494 2 8.69222 35.0048 1.4005 8.69222 35.0048 1.4005
495 2 8.70781 35.0049 -1.7534 8.70781 35.0049 -1.7534
496 1 9.55927 37.1203 -0.171961 9.55927 37.1203 -0.171961
497 2 11.5423 37.1196 1.41461 11.5423 37.1196 1.41461
498 2 11.558 37.1222 -1.73896 11.558 37.1222 -1.73896
499 1 12.4096 35.0055 -0.159707 12.4096 35.0055 -0.159707
500 2 14.3935 35.004 1.42569 14.3935 35.004 1.42569
501 2 14.4073 35.0071 -1.72793 14.4073 35.0071 -1.72793
502 1 15.2593 37.1213 -0.145312 15.2593 37.1213 -0.145312
503 2 17.2446 37.1185 1.4385 17.2446 37.1185 1.4385
504 2 17.2561 37.1241 -1.71466 17.2561 37.1241 -1.71466
505 1 18.109 35.0044 -0.138543 18.109 35.0044 -0.138543
506 2 20.0947 35.0007 1.44443 20.0947 35.0007 1.44443
507 2 20.1049 35.0067 -1.70886 20.1049 35.0067 -1.70886
508 1 20.9583 37.1199 -0.125647 20.9583 37.1199 -0.125647
509 2 22.946 37.1173 1.45501 22.946 37.1173 1.45501
510 2 22.9526 37.1209 -1.69799 22.9526 37.1209 -1.69799
511 1 23.807 35.0013 -0.122269 23.807 35.0013 -0.122269
512 2 25.7963 34.9994 1.45614 25.7963 34.9994 1.45614
513 2 25.799 35.0011 -1.69718 25.799 35.0011 -1.69718
514 1 26.6562 37.1163 -0.118712 26.6562 37.1163 -0.118712
515 2 28.649 37.1161 1.45544 28.649 37.1161 1.45544
516 2 28.6449 37.1141 -1.6979 28.6449 37.1141 -1.6979
517 1 29.5047 34.9981 -0.121329 29.5047 34.9981 -0.121329
518 2 31.4992 34.9985 1.45072 31.4992 34.9985 1.45072
519 2 31.4915 34.9963 -1.70285 31.4915 34.9963 -1.70285
520 1 32.3544 37.1131 -0.129732 32.3544 37.1131 -0.129732
521 2 34.3518 37.1158 1.43873 34.3518 37.1158 1.43873
522 2 34.3383 37.1094 -1.71499 34.3383 37.1094 -1.71499
523 1 35.2033 34.9971 -0.137758 35.2033 34.9971 -0.137758
524 2 37.2012 35.0002 1.43006 37.2012 35.0002 1.43006
525 2 37.1866 34.9943 -1.72375 37.1866 34.9943 -1.72375
526 1 38.0534 37.1128 -0.154932 38.0534 37.1128 -0.154932
527 2 40.0526 37.1182 1.41132 40.0526 37.1182 1.41132
528 2 40.0353 37.1085 -1.7426 40.0353 37.1085 -1.7426
529 1 40.9029 34.9989 -0.164038 40.9029 34.9989 -0.164038
530 2 42.9024 35.0039 1.40185 42.9024 35.0039 1.40185
531 2 42.8847 34.9953 -1.75187 42.8847 34.9953 -1.75187
532 1 43.7529 37.1155 -0.185608 43.7529 37.1155 -0.185608
533 2 45.7507 37.1203 1.38247 45.7507 37.1203 1.38247
534 2 45.7365 37.1124 -1.77125 45.7365 37.1124 -1.77125
535 1 46.6024 35.0015 -0.192743 46.6024 35.0015 -0.192743
536 2 48.5975 35.0062 1.37854 48.5975 35.0062 1.37854