ITEM: TIMESTEP
4413000
ITEM: NUMBER OF ATOMS
810
ITEM: BOX BOUNDS pp pp pp
8.6298438867990135e-01 5.2154620611319167e+01
-1.0083587147934091e+01 6.1099802147933673e+01
-1.0000000000000000e+01 1.0000000000000000e+01
ITEM: ATOMS id type x y z xu yu zu
1 1 1.07837 57.9202 -0.0983043 1.07837 -13.2632 -0.0983043
2 2 2.96479 57.9212 1.54855 2.96479 -13.2622 1.54855
3 2 2.99143 57.9217 -1.71396 2.99143 -13.2617 -1.71396
4 1 3.92701 59.5687 -0.0748474 3.92701 -11.6147 -0.0748474
5 2 5.82999 59.5757 1.55199 5.82999 -11.6077 1.55199
6 2 5.82341 59.5619 -1.71044 5.82341 -11.6215 -1.71044
7 1 6.77629 57.9226 -0.0740384 6.77629 -13.2607 -0.0740384
8 2 8.68768 57.9248 1.54376 8.68768 -13.2585 1.54376
9 2 8.66476 57.9231 -1.71872 8.66476 -13.2603 -1.71872
10 1 9.62534 59.5712 -0.0953303 9.62534 -11.6122 -0.0953303
11 2 11.5497 59.5747 1.50668 11.5497 -11.6087 1.50668
12 2 11.5004 59.5682 -1.75533 11.5004 -11.6152 -1.75533
13 1 12.4745 57.9252 -0.135282 12.4745 -13.2582 -0.135282
14 2 14.3991 57.9255 1.46688 14.3991 -13.2579 1.46688
15 2 14.3497 57.9273 -1.79528 14.3497 -13.2561 -1.79528
16 1 15.3236 59.5736 -0.17757 15.3236 -11.6098 -0.17757
17 2 17.2358 59.5726 1.43975 17.2358 -11.6108 1.43975
18 2 17.2112 59.5741 -1.82254 17.2112 -11.6093 -1.82254
19 1 18.1731 57.9271 -0.199073 18.1731 -13.2563 -0.199073
20 2 20.0784 57.9239 1.42658 20.0784 -13.2594 1.42658
21 2 20.0683 57.9317 -1.83591 20.0683 -13.2517 -1.83591
22 1 21.0229 59.5746 -0.203436 21.0229 -11.6088 -0.203436
23 2 22.9237 59.5754 1.42737 22.9237 -11.608 1.42737
24 2 22.9226 59.5719 -1.83496 22.9226 -11.6115 -1.83496
25 1 23.873 57.9273 -0.202263 23.873 -13.2561 -0.202263
26 2 25.7646 57.9267 1.43936 25.7646 -13.2567 1.43936
27 2 25.7821 57.9272 -1.82308 25.7821 -13.2562 -1.82308
28 1 26.7233 59.5733 -0.186359 26.7233 -11.61 -0.186359
29 2 28.6109 59.5695 1.45989 28.6109 -11.6139 1.45989
30 2 28.6363 59.5736 -1.80233 28.6363 -11.6097 -1.80233
31 1 29.5735 57.9252 -0.166036 29.5735 -13.2582 -0.166036
32 2 31.4681 57.9239 1.47189 31.4681 -13.2595 1.47189
33 2 31.4798 57.9248 -1.79062 31.4798 -13.2586 -1.79062
34 1 32.4239 59.5706 -0.155576 32.4239 -11.6128 -0.155576
35 2 34.3282 59.5704 1.47041 34.3282 -11.613 1.47041
36 2 34.3201 59.5668 -1.79198 34.3201 -11.6166 -1.79198
37 1 35.2739 57.9224 -0.161506 35.2739 -13.261 -0.161506
38 2 37.1831 57.9267 1.45927 37.1831 -13.2567 1.45927
39 2 37.1652 57.9169 -1.80323 37.1652 -13.2664 -1.80323
40 1 38.1239 59.5682 -0.182521 38.1239 -11.6152 -0.182521
41 2 40.0364 59.5736 1.43348 40.0364 -11.6098 1.43348
42 2 40.0114 59.5595 -1.8288 40.0114 -11.6239 -1.8288
43 1 40.9735 57.9203 -0.197826 40.9735 -13.2631 -0.197826
44 2 42.8733 57.9323 1.43377 42.8733 -13.251 1.43377
45 2 42.874 57.9071 -1.82875 42.874 -13.2763 -1.82875
46 1 43.8231 59.5662 -0.210075 43.8231 -11.6172 -0.210075
47 2 45.7059 59.5688 1.44148 45.7059 -11.6146 1.44148
48 2 45.74 59.5608 -1.82084 45.74 -11.6226 -1.82084
49 1 46.6724 57.9187 -0.17565 46.6724 -13.2646 -0.17565
50 2 48.5518 57.9277 1.47927 48.5518 -13.2557 1.47927
51 2 48.5926 57.9111 -1.78307 48.5926 -13.2723 -1.78307
52 1 49.5214 59.5663 -0.148264 49.5214 -11.6171 -0.148264
53 2 51.3951 59.5706 1.51318 51.3951 -11.6128 1.51318
54 2 51.4466 59.5622 -1.7489 51.4466 -11.6212 -1.7489
55 1 1.07823 -9.9702 -0.107226 1.07823 -9.9702 -0.107226
56 2 2.95678 -9.97258 1.54937 2.95678 -9.97258 1.54937
57 2 3.00005 -9.96173 -1.71297 3.00005 -9.96173 -1.71297
58 1 3.93046 -8.31931 -0.0637513 3.93046 -8.31931 -0.0637513
59 2 5.82584 -8.33722 1.55543 5.82584 -8.33722 1.55543
60 2 5.8075 -8.32124 -1.70809 5.8075 -8.32124 -1.70809
61 1 6.77588 -9.96789 -0.0884452 6.77588 -9.96789 -0.0884452
62 2 8.68414 -9.9585 1.53397 8.68414 -9.9585 1.53397
63 2 8.66866 -9.9711 -1.72856 8.66866 -9.9711 -1.72856
64 1 9.62871 -8.31704 -0.107874 9.62871 -8.31704 -0.107874
65 2 11.5374 -8.32079 1.49749 11.5374 -8.32079 1.49749
66 2 11.4925 -8.33191 -1.76557 11.4925 -8.33191 -1.76557
67 1 12.4743 -9.96517 -0.14203 12.4743 -9.96517 -0.14203
68 2 14.4017 -9.95064 1.45716 14.4017 -9.95064 1.45716
69 2 14.3478 -9.97372 -1.80485 14.3478 -9.97372 -1.80485
70 1 15.3271 -8.31449 -0.201438 15.3271 -8.31449 -0.201438
71 2 17.2179 -8.31378 1.42619 17.2179 -8.31378 1.42619
72 2 17.2092 -8.33515 -1.8372 17.2092 -8.33515 -1.8372
73 1 18.173 -9.96347 -0.197727 18.173 -9.96347 -0.197727
74 2 20.0801 -9.95605 1.42618 20.0801 -9.95605 1.42618
75 2 20.0675 -9.96649 -1.83631 20.0675 -9.96649 -1.83631
76 1 21.0268 -8.31403 -0.214134 21.0268 -8.31403 -0.214134
77 2 22.9125 -8.31835 1.4189 22.9125 -8.31835 1.4189
78 2 22.9145 -8.33101 -1.8443 22.9145 -8.33101 -1.8443
79 1 23.8733 -9.96363 -0.20577 23.8733 -9.96363 -0.20577
80 2 25.771 -9.94913 1.42932 25.771 -9.94913 1.42932
81 2 25.7776 -9.97565 -1.83307 25.7776 -9.97565 -1.83307
82 1 26.7277 -8.31553 -0.2132 26.7277 -8.31553 -0.2132
83 2 28.5956 -8.30882 1.44129 28.5956 -8.30882 1.44129
84 2 28.6333 -8.34493 -1.82155 28.6333 -8.34493 -1.82155
85 1 29.5738 -9.96588 -0.161579 29.5738 -9.96588 -0.161579
86 2 31.4694 -9.9683 1.47589 31.4694 -9.9683 1.47589
87 2 31.4804 -9.96199 -1.78661 31.4804 -9.96199 -1.78661
88 1 32.4281 -8.3183 -0.149648 32.4281 -8.3183 -0.149648
89 2 34.3151 -8.34473 1.48038 34.3151 -8.34473 1.48038
90 2 34.3146 -8.31526 -1.78284 34.3146 -8.31526 -1.78284
91 1 35.2743 -9.96886 -0.165516 35.2743 -9.96886 -0.165516
92 2 37.1722 -9.98914 1.46907 37.1722 -9.98914 1.46907
93 2 37.1781 -9.946 -1.7932 37.1781 -9.946 -1.7932
94 1 38.1283 -8.32069 -0.138633 38.1283 -8.32069 -0.138633
95 2 40.0376 -8.36358 1.46416 40.0376 -8.36358 1.46416
96 2 39.9918 -8.29952 -1.79831 39.9918 -8.29952 -1.79831
97 1 40.9736 -9.97053 -0.212229 40.9736 -9.97053 -0.212229
98 2 42.8783 -9.9605 1.41425 42.8783 -9.9605 1.41425
99 2 42.8705 -9.97865 -1.8483 42.8705 -9.97865 -1.8483
100 1 43.827 -8.32246 -0.227741 43.827 -8.32246 -0.227741
101 2 45.6979 -8.31786 1.42444 45.6979 -8.31786 1.42444
102 2 45.7292 -8.35054 -1.83882 45.7292 -8.35054 -1.83882
103 1 46.6725 -9.97249 -0.183262 46.6725 -9.97249 -0.183262
104 2 48.559 -9.95904 1.46389 48.559 -9.95904 1.46389
105 2 48.5869 -9.98044 -1.79857 48.5869 -9.98044 -1.79857
106 1 49.5253 -8.32204 -0.170448 49.5253 -8.32204 -0.170448
107 2 51.3798 -8.3236 1.49782 51.3798 -8.3236 1.49782
108 2 51.4424 -8.33912 -1.76509 51.4424 -8.33912 -1.76509
109 1 1.0477 -6.68766 -0.123255 1.0477 -6.68766 -0.123255
110 2 2.97115 -6.67376 1.52515 2.97115 -6.67376 1.52515
111 2 3.04624 -6.66383 -1.68251 3.04624 -6.66383 -1.68251
112 1 3.85812 -4.95972 -0.054953 3.85812 -4.95972 -0.054953
113 2 5.6237 -5.31878 1.64109 5.6237 -5.31878 1.64109
114 2 5.65071 -5.23511 -1.74122 5.65071 -5.23511 -1.74122
115 1 6.74478 -6.68549 -0.0768032 6.74478 -6.68549 -0.0768032
116 2 8.72921 -6.6553 1.49786 8.72921 -6.6553 1.49786
117 2 8.6829 -6.67902 -1.71013 8.6829 -6.67902 -1.71013
118 1 9.55606 -4.95815 -0.130608 9.55606 -4.95815 -0.130608
119 2 11.3551 -5.2635 1.54277 11.3551 -5.2635 1.54277
120 2 11.3128 -5.29036 -1.84265 11.3128 -5.29036 -1.84265
121 1 12.4436 -6.68255 -0.15232 12.4436 -6.68255 -0.15232
122 2 14.4359 -6.66017 1.41516 14.4359 -6.66017 1.41516
123 2 14.3747 -6.66777 -1.79271 14.3747 -6.66777 -1.79271
124 1 15.2554 -4.95507 -0.208279 15.2554 -4.95507 -0.208279
125 2 17.0544 -5.24874 1.46739 17.0544 -5.24874 1.46739
126 2 17.0142 -5.29708 -1.91594 17.0142 -5.29708 -1.91594
127 1 18.1423 -6.68112 -0.217254 18.1423 -6.68112 -0.217254
128 2 20.1055 -6.65892 1.38521 20.1055 -6.65892 1.38521
129 2 20.1025 -6.66901 -1.82301 20.1025 -6.66901 -1.82301
130 1 20.9556 -4.95544 -0.225307 20.9556 -4.95544 -0.225307
131 2 22.7327 -5.26956 1.46961 22.7327 -5.26956 1.46961
132 2 22.733 -5.28343 -1.91742 22.733 -5.28343 -1.91742
133 1 23.8432 -6.68122 -0.218275 23.8432 -6.68122 -0.218275
134 2 25.8139 -6.64703 1.37611 25.8139 -6.64703 1.37611
135 2 25.797 -6.6832 -1.83195 25.797 -6.6832 -1.83195
136 1 26.6577 -4.95712 -0.250805 26.6577 -4.95712 -0.250805
137 2 28.4288 -5.23636 1.45732 28.4288 -5.23636 1.45732
138 2 28.4421 -5.31869 -1.92751 28.4421 -5.31869 -1.92751
139 1 29.5444 -6.68367 -0.195832 29.5444 -6.68367 -0.195832
140 2 31.4749 -6.6769 1.44599 31.4749 -6.6769 1.44599
141 2 31.5373 -6.65855 -1.76165 31.5373 -6.65855 -1.76165
142 1 32.3582 -4.95967 -0.132627 32.3582 -4.95967 -0.132627
143 2 34.1192 -5.31309 1.5704 34.1192 -5.31309 1.5704
144 2 34.1521 -5.24853 -1.815 34.1521 -5.24853 -1.815
145 1 35.2447 -6.68685 -0.138248 35.2447 -6.68685 -0.138248
146 2 37.1886 -6.69921 1.48642 37.1886 -6.69921 1.48642
147 2 37.2246 -6.64123 -1.72135 37.2246 -6.64123 -1.72135
148 1 38.0577 -4.96228 -0.0781289 38.0577 -4.96228 -0.0781289
149 2 39.8392 -5.34444 1.59648 39.8392 -5.34444 1.59648
150 2 39.8337 -5.21684 -1.78508 39.8337 -5.21684 -1.78508
151 1 40.9441 -6.68836 -0.150261 40.9441 -6.68836 -0.150261
152 2 42.9546 -6.66251 1.39371 42.9546 -6.66251 1.39371
153 2 42.8557 -6.68061 -1.81309 42.8557 -6.68061 -1.81309
154 1 43.7562 -4.96333 -0.243186 43.7562 -4.96333 -0.243186
155 2 45.5518 -5.22475 1.44272 45.5518 -5.22475 1.44272
156 2 45.517 -5.34123 -1.9397 45.517 -5.34123 -1.9397
157 1 46.642 -6.69051 -0.210716 46.642 -6.69051 -0.210716
158 2 48.5829 -6.67074 1.41956 48.5829 -6.67074 1.41956
159 2 48.6234 -6.67334 -1.78868 48.6234 -6.67334 -1.78868
160 1 49.4529 -4.96279 -0.175236 49.4529 -4.96279 -0.175236
161 2 51.2064 -5.27115 1.54489 51.2064 -5.27115 1.54489
162 2 51.2554 -5.29134 -1.83997 51.2554 -5.29134 -1.83997
163 1 1.00761 18.3386 -0.16009 1.00761 18.3386 -0.16009
164 2 2.79852 18.6315 1.52462 2.79852 18.6315 1.52462
165 2 2.77383 18.6843 -1.85975 2.77383 18.6843 -1.85975
166 1 3.89482 20.0651 -0.153861 3.89482 20.0651 -0.153861
167 2 5.88234 20.017 1.42009 5.88234 20.017 1.42009
168 2 5.83181 20.0806 -1.78741 5.83181 20.0806 -1.78741
169 1 6.70848 18.3412 -0.229756 6.70848 18.3412 -0.229756
170 2 8.49512 18.5946 1.46612 8.49512 18.5946 1.46612
171 2 8.48059 18.724 -1.91423 8.48059 18.724 -1.91423
172 1 9.59418 20.0687 -0.173671 9.59418 20.0687 -0.173671
173 2 11.5062 20.0656 1.48835 11.5062 20.0656 1.48835
174 2 11.6045 20.0391 -1.71851 11.6045 20.0391 -1.71851
175 1 12.4065 18.3446 -0.0777797 12.4065 18.3446 -0.0777797
176 2 14.1679 18.7303 1.61606 14.1679 18.7303 1.61606
177 2 14.2031 18.5978 -1.76399 14.2031 18.5978 -1.76399
178 1 15.2911 20.0743 -0.118627 15.2911 20.0743 -0.118627
179 2 17.277 20.045 1.45437 17.277 20.045 1.45437
180 2 17.2272 20.0712 -1.75365 17.2272 20.0712 -1.75365
181 1 18.1027 18.3495 -0.175749 18.1027 18.3495 -0.175749
182 2 19.8951 18.6419 1.50704 19.8951 18.6419 1.50704
183 2 19.8667 18.6962 -1.87652 19.8667 18.6962 -1.87652
184 1 20.9873 20.0779 -0.170945 20.9873 20.0779 -0.170945
185 2 22.9511 20.0633 1.42921 22.9511 20.0633 1.42921
186 2 22.9452 20.0573 -1.77929 22.9452 20.0573 -1.77929
187 1 23.7982 18.3512 -0.174399 23.7982 18.3512 -0.174399
188 2 25.5916 18.6923 1.49674 25.5916 18.6923 1.49674
189 2 25.5608 18.6478 -1.88775 25.5608 18.6478 -1.88775
190 1 26.6842 20.0772 -0.224144 26.6842 20.0772 -0.224144
191 2 28.6764 20.0537 1.34282 28.6764 20.0537 1.34282
192 2 28.6141 20.0648 -1.86499 28.6141 20.0648 -1.86499
193 1 29.4955 18.3504 -0.281981 29.4955 18.3504 -0.281981
194 2 31.2811 18.6275 1.41175 31.2811 18.6275 1.41175
195 2 31.2663 18.711 -1.97245 31.2663 18.711 -1.97245
196 1 32.3828 20.0754 -0.249759 32.3828 20.0754 -0.249759
197 2 34.3087 20.0698 1.39769 34.3087 20.0698 1.39769
198 2 34.3796 20.043 -1.80995 34.3796 20.043 -1.80995
199 1 35.1934 18.3473 -0.174134 35.1934 18.3473 -0.174134
200 2 36.9456 18.6949 1.53912 36.9456 18.6949 1.53912
201 2 36.9987 18.6339 -1.84435 36.9987 18.6339 -1.84435
202 1 38.0815 20.071 -0.161094 38.0815 20.071 -0.161094
203 2 40.0496 20.055 1.43627 40.0496 20.055 1.43627
204 2 40.0373 20.049 -1.77209 40.0373 20.049 -1.77209
205 1 40.8934 18.3428 -0.166916 40.8934 18.3428 -0.166916
206 2 42.6697 18.6488 1.53084 42.6697 18.6488 1.53084
207 2 42.6738 18.673 -1.85464 42.6738 18.673 -1.85464
208 1 43.7822 20.0663 -0.150161 43.7822 20.0663 -0.150161
209 2 45.7187 20.0646 1.4843 45.7187 20.0646 1.4843
210 2 45.7698 20.0319 -1.72343 45.7698 20.0319 -1.72343
211 1 46.5951 18.3397 -0.0897559 46.5951 18.3397 -0.0897559
212 2 48.3609 18.6991 1.60708 48.3609 18.6991 1.60708
213 2 48.3853 18.6186 -1.77815 48.3853 18.6186 -1.77815
214 1 49.4845 20.0634 -0.111776 49.4845 20.0634 -0.111776
215 2 51.4681 20.0346 1.46671 51.4681 20.0346 1.46671
216 2 51.4265 20.0586 -1.74128 51.4265 20.0586 -1.74128
217 1 1.07774 21.6971 -0.137121 1.07774 21.6971 -0.137121
218 2 2.96628 21.6929 1.49318 2.96628 21.6929 1.49318
219 2 2.96289 21.7234 -1.76998 2.96289 21.7234 -1.76998
220 1 3.92358 23.3475 -0.124392 3.92358 23.3475 -0.124392
221 2 5.83223 23.321 1.49737 5.83223 23.321 1.49737
222 2 5.8167 23.3721 -1.76473 5.8167 23.3721 -1.76473
223 1 6.77788 21.6998 -0.164004 6.77788 21.6998 -0.164004
224 2 8.65239 21.6777 1.48268 8.65239 21.6777 1.48268
225 2 8.67587 21.745 -1.78009 8.67587 21.745 -1.78009
226 1 9.62263 23.3507 -0.108348 9.62263 23.3507 -0.108348
227 2 11.5293 23.3686 1.51596 11.5293 23.3686 1.51596
228 2 11.5173 23.3328 -1.74648 11.5173 23.3328 -1.74648
229 1 12.4762 21.704 -0.101566 12.4762 21.704 -0.101566
230 2 14.3811 21.7385 1.50605 14.3811 21.7385 1.50605
231 2 14.3436 21.6961 -1.75717 14.3436 21.6961 -1.75717
232 1 15.3207 23.3563 -0.156321 15.3207 23.3563 -0.156321
233 2 17.2196 23.3575 1.47743 17.2196 23.3575 1.47743
234 2 17.2224 23.3548 -1.78531 17.2224 23.3548 -1.78531
235 1 18.1732 21.7091 -0.150852 18.1732 21.7091 -0.150852
236 2 20.0664 21.7121 1.47303 20.0664 21.7121 1.47303
237 2 20.0514 21.7297 -1.79066 20.0514 21.7297 -1.79066
238 1 21.0182 23.3598 -0.154909 21.0182 23.3598 -0.154909
239 2 22.9355 23.3632 1.45618 22.9355 23.3632 1.45618
240 2 22.9012 23.3531 -1.80632 22.9012 23.3531 -1.80632
241 1 23.8703 21.7105 -0.180333 23.8703 21.7105 -0.180333
242 2 25.7851 21.7293 1.41641 25.7851 21.7293 1.41641
243 2 25.7268 21.7121 -1.84663 25.7268 21.7121 -1.84663
244 1 26.7154 23.3594 -0.240707 26.7154 23.3594 -0.240707
245 2 28.6291 23.349 1.37494 28.6291 23.349 1.37494
246 2 28.6025 23.365 -1.88756 28.6025 23.365 -1.88756
247 1 29.5679 21.7094 -0.271993 29.5679 21.7094 -0.271993
248 2 31.438 21.7085 1.38041 31.438 21.7085 1.38041
249 2 31.4706 21.7301 -1.88287 31.4706 21.7301 -1.88287
250 1 32.4143 23.3573 -0.231901 32.4143 23.3573 -0.231901
251 2 34.3009 23.3621 1.41567 34.3009 23.3621 1.41567
252 2 34.329 23.3453 -1.84678 34.329 23.3453 -1.84678
253 1 35.267 21.706 -0.199366 35.267 21.706 -0.199366
254 2 37.1398 21.7314 1.44721 37.1398 21.7314 1.44721
255 2 37.167 21.6981 -1.81601 37.167 21.6981 -1.81601
256 1 38.114 23.3528 -0.19291 38.114 23.3528 -0.19291
257 2 40.0025 23.3461 1.45246 40.0025 23.3461 1.45246
258 2 40.0271 23.3521 -1.81001 40.0271 23.3521 -1.81001
259 1 40.967 21.7014 -0.174349 40.967 21.7014 -0.174349
260 2 42.8404 21.7103 1.473 42.8404 21.7103 1.473
261 2 42.8669 21.7103 -1.79023 42.8669 21.7103 -1.79023
262 1 43.8143 23.3484 -0.151037 43.8143 23.3484 -0.151037
263 2 45.7066 23.3586 1.49034 45.7066 23.3586 1.49034
264 2 45.7242 23.3318 -1.772 45.7242 23.3318 -1.772
265 1 46.668 21.6977 -0.122388 46.668 21.6977 -0.122388
266 2 48.5576 21.7252 1.50494 48.5576 21.7252 1.50494
267 2 48.5524 21.6894 -1.75799 48.5524 21.6894 -1.75799
268 1 49.5151 23.346 -0.145416 49.5151 23.346 -0.145416
269 2 51.4078 23.3371 1.49572 51.4078 23.3371 1.49572
270 2 51.4244 23.3515 -1.76669 51.4244 23.3515 -1.76669
271 1 1.07323 24.9921 -0.123451 1.07323 24.9921 -0.123451
272 2 2.96957 24.9856 1.51235 2.96957 24.9856 1.51235
273 2 2.97717 25.0016 -1.74995 2.97717 25.0016 -1.74995
274 1 3.92274 26.6402 -0.108345 3.92274 26.6402 -0.108345
275 2 5.82522 26.6414 1.52018 5.82522 26.6414 1.52018
276 2 5.8207 26.6405 -1.74236 5.8207 26.6405 -1.74236
277 1 6.77274 24.9945 -0.111899 6.77274 24.9945 -0.111899
278 2 8.67335 25.0012 1.51877 8.67335 25.0012 1.51877
279 2 8.67199 24.9921 -1.74367 8.67199 24.9921 -1.74367
280 1 9.62197 26.6433 -0.117609 9.62197 26.6433 -0.117609
281 2 11.539 26.6556 1.49332 11.539 26.6556 1.49332
282 2 11.5048 26.6339 -1.76907 11.5048 26.6339 -1.76907
283 1 12.4714 24.9987 -0.136892 12.4714 24.9987 -0.136892
284 2 14.385 25.007 1.47782 14.385 25.007 1.47782
285 2 14.3571 24.9967 -1.78463 14.3571 24.9967 -1.78463
286 1 15.3205 26.6483 -0.166715 15.3205 26.6483 -0.166715
287 2 17.2172 26.6561 1.46874 17.2172 26.6561 1.46874
288 2 17.2236 26.644 -1.79391 17.2236 26.644 -1.79391
289 1 18.1696 25.0039 -0.154544 18.1696 25.0039 -0.154544
290 2 20.073 25.012 1.47228 20.073 25.012 1.47228
291 2 20.0653 25.0001 -1.79027 20.0653 25.0001 -1.79027
292 1 21.0189 26.6522 -0.167639 21.0189 26.6522 -0.167639
293 2 22.9332 26.6551 1.44636 22.9332 26.6551 1.44636
294 2 22.9041 26.6496 -1.81617 22.9041 26.6496 -1.81617
295 1 23.8673 25.0055 -0.190521 23.8673 25.0055 -0.190521
296 2 25.7923 25.0011 1.41034 25.7923 25.0011 1.41034
297 2 25.7412 25.0109 -1.85176 25.7412 25.0109 -1.85176
298 1 26.7168 26.652 -0.230765 26.7168 26.652 -0.230765
299 2 28.6277 26.6453 1.38785 28.6277 26.6453 1.38785
300 2 28.6058 26.6569 -1.87467 28.6058 26.6569 -1.87467
301 1 29.5653 25.004 -0.255643 29.5653 25.004 -0.255643
302 2 31.4545 25.008 1.38859 31.4545 25.008 1.38859
303 2 31.4759 24.9997 -1.87381 31.4759 24.9997 -1.87381
304 1 32.4158 26.6494 -0.240519 32.4158 26.6494 -0.240519
305 2 34.3029 26.6491 1.40605 34.3029 26.6491 1.40605
306 2 34.329 26.6461 -1.8564 34.329 26.6461 -1.8564
307 1 35.2648 25.0004 -0.215962 35.2648 25.0004 -0.215962
308 2 37.1522 25.0006 1.42993 37.1522 25.0006 1.42993
309 2 37.1774 24.9984 -1.83239 37.1774 24.9984 -1.83239
310 1 38.1154 26.6451 -0.194765 38.1154 26.6451 -0.194765
311 2 40.0011 26.6437 1.45341 40.0011 26.6437 1.45341
312 2 40.0301 26.6423 -1.80897 40.0301 26.6423 -1.80897
313 1 40.9647 24.9958 -0.168702 40.9647 24.9958 -0.168702
314 2 42.8566 24.9985 1.47194 42.8566 24.9985 1.47194
315 2 42.8731 24.9916 -1.79037 42.8731 24.9916 -1.79037
316 1 43.8152 26.6408 -0.158067 43.8152 26.6408 -0.158067
317 2 45.7106 26.6396 1.47878 45.7106 26.6396 1.47878
318 2 45.7205 26.6392 -1.78369 45.7205 26.6392 -1.78369
319 1 46.665 24.9924 -0.149455 46.665 24.9924 -0.149455
320 2 48.5619 24.9908 1.48547 48.5619 24.9908 1.48547
321 2 48.5686 24.9943 -1.77684 48.5686 24.9943 -1.77684
322 1 49.515 26.6389 -0.141813 49.515 26.6389 -0.141813
323 2 51.4041 26.6374 1.50259 51.4041 26.6374 1.50259
324 2 51.4263 26.6403 -1.75983 51.4263 26.6403 -1.75983
325 1 1.07298 28.2857 -0.120265 1.07298 28.2857 -0.120265
326 2 2.96896 28.291 1.51585 2.96896 28.291 1.51585
327 2 2.97719 28.2819 -1.74671 2.97719 28.2819 -1.74671
328 1 3.92273 29.9331 -0.117522 3.92273 29.9331 -0.117522
329 2 5.82774 29.9472 1.50777 5.82774 29.9472 1.50777
330 2 5.81788 29.9209 -1.7547 5.81788 29.9209 -1.7547
331 1 6.77233 28.2878 -0.112958 6.77233 28.2878 -0.112958
332 2 8.68305 28.3034 1.50558 8.68305 28.3034 1.50558
333 2 8.66162 28.275 -1.75687 8.66162 28.275 -1.75687
334 1 9.6218 29.9358 -0.146622 9.6218 29.9358 -0.146622
335 2 11.5305 29.9403 1.4742 11.5305 29.9403 1.4742
336 2 11.513 29.9348 -1.7884 11.513 29.9348 -1.7884
337 1 12.4712 28.2916 -0.159226 12.4712 28.2916 -0.159226
338 2 14.3759 28.2949 1.46638 14.3759 28.2949 1.46638
339 2 14.3662 28.2931 -1.79633 14.3662 28.2931 -1.79633
340 1 15.3206 29.9406 -0.168872 15.3206 29.9406 -0.168872
341 2 17.2176 29.9397 1.46599 17.2176 29.9397 1.46599
342 2 17.2236 29.9455 -1.79669 17.2236 29.9455 -1.79669
343 1 18.1699 28.2967 -0.166734 18.1699 28.2967 -0.166734
344 2 20.0715 28.3003 1.46254 20.0715 28.3003 1.46254
345 2 20.068 28.2963 -1.80019 20.068 28.2963 -1.80019
346 1 21.0196 29.9445 -0.172128 21.0196 29.9445 -0.172128
347 2 22.9305 29.9402 1.44608 22.9305 29.9402 1.44608
348 2 22.9087 29.9499 -1.81651 22.9087 29.9499 -1.81651
349 1 23.8685 28.2986 -0.19647 23.8685 28.2986 -0.19647
350 2 25.7851 28.294 1.41486 25.7851 28.294 1.41486
351 2 25.7515 28.3033 -1.84764 25.7515 28.3033 -1.84764
352 1 26.7186 29.9445 -0.221759 26.7186 29.9445 -0.221759
353 2 28.6265 29.9358 1.4002 28.6265 29.9358 1.4002
354 2 28.6108 29.952 -1.86237 28.6108 29.952 -1.86237
355 1 29.5672 28.2971 -0.243888 29.5672 28.2971 -0.243888
356 2 31.465 28.2954 1.3904 31.465 28.2954 1.3904
357 2 31.4695 28.2971 -1.87224 31.4695 28.2971 -1.87224
358 1 32.4179 29.942 -0.238412 32.4179 29.942 -0.238412
359 2 34.3077 29.9417 1.40512 34.3077 29.9417 1.40512
360 2 34.3282 29.9396 -1.85741 34.3282 29.9396 -1.85741
361 1 35.2665 28.2935 -0.219083 35.2665 28.2935 -0.219083
362 2 37.153 28.2926 1.42802 37.153 28.2926 1.42802
363 2 37.18 28.2914 -1.83446 37.18 28.2914 -1.83446
364 1 38.1169 29.9378 -0.195911 38.1169 29.9378 -0.195911
365 2 40.004 29.939 1.45062 40.004 29.939 1.45062
366 2 40.03 29.9333 -1.81182 40.03 29.9333 -1.81182
367 1 40.9658 28.289 -0.170136 40.9658 28.289 -0.170136
368 2 42.8577 28.2854 1.47069 42.8577 28.2854 1.47069
369 2 42.8743 28.29 -1.79183 42.8743 28.29 -1.79183
370 1 43.816 29.9338 -0.153688 43.816 29.9338 -0.153688
371 2 45.7087 29.9238 1.48623 45.7087 29.9238 1.48623
372 2 45.7236 29.9417 -1.77622 45.7236 29.9417 -1.77622
373 1 46.6654 28.2859 -0.149756 46.6654 28.2859 -0.149756
374 2 48.5558 28.2766 1.49277 48.5558 28.2766 1.49277
375 2 48.5752 28.2945 -1.76967 48.5752 28.2945 -1.76967
376 1 49.5151 29.9321 -0.123554 49.5151 29.9321 -0.123554
377 2 51.4133 29.9325 1.50994 51.4133 29.9325 1.50994
378 2 51.4172 29.9321 -1.75261 51.4172 29.9321 -1.75261
379 1 1.07349 31.5788 -0.120075 1.07349 31.5788 -0.120075
380 2 2.97886 31.5915 1.50487 2.97886 31.5915 1.50487
381 2 2.96825 31.5675 -1.75763 2.96825 31.5675 -1.75763
382 1 3.92359 33.2259 -0.141401 3.92359 33.2259 -0.141401
383 2 5.83224 33.243 1.47967 5.83224 33.243 1.47967
384 2 5.81487 33.2106 -1.78277 5.81487 33.2106 -1.78277
385 1 6.77257 31.5806 -0.14003 6.77257 31.5806 -0.14003
386 2 8.68196 31.5917 1.48005 8.68196 31.5917 1.48005
387 2 8.66307 31.572 -1.78248 8.66307 31.572 -1.78248
388 1 9.6223 33.2284 -0.167037 9.6223 33.2284 -0.167037
389 2 11.5198 33.2274 1.46725 11.5198 33.2274 1.46725
390 2 11.5246 33.2331 -1.79543 11.5246 33.2331 -1.79543
391 1 12.4714 31.5843 -0.165371 12.4714 31.5843 -0.165371
392 2 14.3685 31.5781 1.46928 14.3685 31.5781 1.46928
393 2 14.3741 31.5948 -1.79336 14.3741 31.5948 -1.79336
394 1 15.321 33.233 -0.151947 15.321 33.233 -0.151947
395 2 17.2192 33.2239 1.48129 17.2192 33.2239 1.48129
396 2 17.2227 33.246 -1.78132 17.2227 33.246 -1.78132
397 1 18.1703 31.5891 -0.16051 18.1703 31.5891 -0.16051
398 2 20.0719 31.5821 1.4688 20.0719 31.5821 1.4688
399 2 20.0687 31.5989 -1.79386 20.0687 31.5989 -1.79386
400 1 21.0203 33.2366 -0.155026 21.0203 33.2366 -0.155026
401 2 22.9289 33.2205 1.46606 22.9289 33.2205 1.46606
402 2 22.9119 33.2536 -1.79641 22.9119 33.2536 -1.79641
403 1 23.8697 31.591 -0.186943 23.8697 31.591 -0.186943
404 2 25.7804 31.5753 1.43154 25.7804 31.5753 1.43154
405 2 25.7591 31.6065 -1.83092 25.7591 31.6065 -1.83092
406 1 26.7201 33.2366 -0.190128 26.7201 33.2366 -0.190128
407 2 28.6321 33.2202 1.42711 28.6321 33.2202 1.42711
408 2 28.6083 33.252 -1.83533 28.6083 33.252 -1.83533
409 1 29.5692 31.5896 -0.227363 29.5692 31.5896 -0.227363
410 2 31.4713 31.5817 1.4015 31.4713 31.5817 1.4015
411 2 31.4671 31.596 -1.86111 31.4671 31.596 -1.86111
412 1 32.4197 33.2345 -0.223516 32.4197 33.2345 -0.223516
413 2 34.3175 33.2321 1.41053 34.3175 33.2321 1.41053
414 2 34.322 33.2348 -1.8521 34.322 33.2348 -1.8521
415 1 35.2684 31.5864 -0.220978 35.2684 31.5864 -0.220978
416 2 37.1565 31.5889 1.42432 37.1565 31.5889 1.42432
417 2 37.1804 31.5811 -1.83818 37.1804 31.5811 -1.83818
418 1 38.1186 33.2309 -0.203979 38.1186 33.2309 -0.203979
419 2 40.0039 33.2315 1.44447 40.0039 33.2315 1.44447
420 2 40.0332 33.2275 -1.81799 40.0332 33.2275 -1.81799
421 1 40.9671 31.5823 -0.175955 40.9671 31.5823 -0.175955
422 2 42.8527 31.5776 1.47219 42.8527 31.5776 1.47219
423 2 42.8815 31.5842 -1.79024 42.8815 31.5842 -1.79024
424 1 43.8171 33.2271 -0.147469 43.8171 33.2271 -0.147469
425 2 45.7039 33.2193 1.49904 45.7039 33.2193 1.49904
426 2 45.7303 33.2329 -1.7634 45.7303 33.2329 -1.7634
427 1 46.666 31.5791 -0.131401 46.666 31.5791 -0.131401
428 2 48.5581 31.573 1.50917 48.5581 31.573 1.50917
429 2 48.5739 31.5846 -1.75334 48.5739 31.5846 -1.75334
430 1 49.5161 33.2251 -0.111423 49.5161 33.2251 -0.111423
431 2 51.4222 33.2278 1.51258 51.4222 33.2278 1.51258
432 2 51.4102 33.2229 -1.75 51.4102 33.2229 -1.75
433 1 1.07483 34.8716 -0.124572 1.07483 34.8716 -0.124572
434 2 2.99187 34.8857 1.48634 2.99187 34.8857 1.48634
435 2 2.95764 34.8588 -1.77602 2.95764 34.8588 -1.77602
436 1 3.92476 36.5184 -0.16847 3.92476 36.5184 -0.16847
437 2 5.83479 36.532 1.45103 5.83479 36.532 1.45103
438 2 5.8145 36.5069 -1.8115 5.8145 36.5069 -1.8115
439 1 6.77349 34.8732 -0.173243 6.77349 34.8732 -0.173243
440 2 8.67476 34.8826 1.45659 8.67476 34.8826 1.45659
441 2 8.672 34.8667 -1.80605 8.672 34.8667 -1.80605
442 1 9.62302 36.5213 -0.18375 9.62302 36.5213 -0.18375
443 2 11.51 36.5237 1.46289 11.51 36.5237 1.46289
444 2 11.5355 36.5223 -1.79973 11.5355 36.5223 -1.79973
445 1 12.4718 34.877 -0.159889 12.4718 34.877 -0.159889
446 2 14.362 34.8699 1.48292 14.362 34.8699 1.48292
447 2 14.3813 34.8879 -1.77967 14.3813 34.8879 -1.77967
448 1 15.3212 36.5255 -0.133504 15.3212 36.5255 -0.133504
449 2 17.2191 36.5193 1.50038 17.2191 36.5193 1.50038
450 2 17.2232 36.5349 -1.76227 17.2232 36.5349 -1.76227
451 1 18.1707 34.8812 -0.137631 18.1707 34.8812 -0.137631
452 2 20.0714 34.8666 1.49285 20.0714 34.8666 1.49285
453 2 20.07 34.8982 -1.76968 20.07 34.8982 -1.76968
454 1 21.0208 36.5283 -0.122596 21.0208 36.5283 -0.122596
455 2 22.9309 36.5157 1.49707 22.9309 36.5157 1.49707
456 2 22.911 36.5415 -1.76545 22.911 36.5415 -1.76545
457 1 23.8706 34.8827 -0.153208 23.8706 34.8827 -0.153208
458 2 25.7825 34.8668 1.46416 25.7825 34.8668 1.46416
459 2 25.759 34.8984 -1.79831 25.759 34.8984 -1.79831
460 1 26.7209 36.5281 -0.157801 26.7209 36.5281 -0.157801
461 2 28.634 36.5137 1.45825 28.634 36.5137 1.45825
462 2 28.608 36.5416 -1.80424 28.608 36.5416 -1.80424
463 1 29.5705 34.8816 -0.194843 29.5705 34.8816 -0.194843
464 2 31.48 34.8693 1.42539 31.48 34.8693 1.42539
465 2 31.4611 34.8926 -1.83717 31.4611 34.8926 -1.83717
466 1 32.4207 36.5266 -0.199398 32.4207 36.5266 -0.199398
467 2 34.3289 36.5219 1.42235 34.3289 36.5219 1.42235
468 2 34.3125 36.5296 -1.84029 34.3125 36.5296 -1.84029
469 1 35.2699 34.8792 -0.217853 35.2699 34.8792 -0.217853
470 2 37.1639 34.8809 1.42068 37.1639 34.8809 1.42068
471 2 37.176 34.875 -1.84193 37.176 34.875 -1.84193
472 1 38.1201 36.5238 -0.210107 38.1201 36.5238 -0.210107
473 2 40.0025 36.521 1.44188 40.0025 36.521 1.44188
474 2 40.0376 36.5241 -1.82057 40.0376 36.5241 -1.82057
475 1 40.9687 34.8755 -0.180414 40.9687 34.8755 -0.180414
476 2 42.8472 34.8695 1.47588 42.8472 34.8695 1.47588
477 2 42.8899 34.8789 -1.78643 42.8899 34.8789 -1.78643
478 1 43.8187 36.5201 -0.137962 43.8187 36.5201 -0.137962
479 2 45.7049 36.5155 1.50941 45.7049 36.5155 1.50941
480 2 45.7324 36.5227 -1.75309 45.7324 36.5227 -1.75309
481 1 46.6673 34.8722 -0.117498 46.6673 34.8722 -0.117498
482 2 48.5628 34.8704 1.51899 48.5628 34.8704 1.51899
483 2 48.5718 34.8733 -1.74361 48.5718 34.8733 -1.74361
484 1 49.5177 36.5179 -0.108033 49.5177 36.5179 -0.108033
485 2 51.431 36.5254 1.50735 51.431 36.5254 1.50735
486 2 51.4044 36.5107 -1.75518 51.4044 36.5107 -1.75518
487 1 1.0762 38.1641 -0.139289 1.0762 38.1641 -0.139289
488 2 2.99808 38.1745 1.46573 2.99808 38.1745 1.46573
489 2 2.95379 38.1549 -1.79662 2.95379 38.1549 -1.79662
490 1 3.92551 39.811 -0.188527 3.92551 39.811 -0.188527
491 2 5.83501 39.8185 1.43144 5.83501 39.8185 1.43144
492 2 5.81554 39.8056 -1.83119 5.81554 39.8056 -1.83119
493 1 6.77429 38.1659 -0.198926 6.77429 38.1659 -0.198926
494 2 8.66948 38.1737 1.43814 8.66948 38.1737 1.43814
495 2 8.67872 38.1612 -1.82454 8.67872 38.1612 -1.82454
496 1 9.62347 39.8141 -0.196806 9.62347 39.8141 -0.196806
497 2 11.5057 39.8198 1.45525 11.5057 39.8198 1.45525
498 2 11.5406 39.8117 -1.80728 11.5406 39.8117 -1.80728
499 1 12.4722 38.1697 -0.161577 12.4722 38.1697 -0.161577
500 2 14.3576 38.1742 1.4866 14.3576 38.1742 1.4866
501 2 14.3862 38.1687 -1.77599 14.3862 38.1687 -1.77599
502 1 15.3216 39.8179 -0.138912 15.3216 39.8179 -0.138912
503 2 17.2162 39.8271 1.4986 17.2162 39.8271 1.4986
504 2 17.2267 39.8115 -1.76406 17.2267 39.8115 -1.76406
505 1 18.171 38.1734 -0.121547 18.171 38.1734 -0.121547
506 2 20.0731 38.1765 1.50764 20.0731 38.1765 1.50764
507 2 20.069 38.172 -1.75505 20.069 38.172 -1.75505
508 1 21.0211 39.8201 -0.126859 21.0211 39.8201 -0.126859
509 2 22.9281 39.8316 1.49657 22.9281 39.8316 1.49657
510 2 22.9144 39.809 -1.76603 22.9144 39.809 -1.76603
511 1 23.8711 38.1744 -0.126925 23.8711 38.1744 -0.126925
512 2 25.786 38.169 1.48724 25.786 38.169 1.48724
513 2 25.7563 38.1791 -1.77533 25.7563 38.1791 -1.77533
514 1 26.7212 39.8197 -0.147619 26.7212 39.8197 -0.147619
515 2 28.6329 39.8204 1.47028 28.6329 39.8204 1.47028
516 2 28.6096 39.8179 -1.79236 28.6096 39.8179 -1.79236
517 1 29.5711 38.1732 -0.166469 29.5711 38.1732 -0.166469
518 2 31.4858 38.1657 1.44766 31.4858 38.1657 1.44766
519 2 31.4564 38.1796 -1.8149 31.4564 38.1796 -1.8149
520 1 32.4211 39.8183 -0.185444 32.4211 39.8183 -0.185444
521 2 34.3301 39.8092 1.43524 34.3301 39.8092 1.43524
522 2 34.3121 39.8261 -1.82737 34.3121 39.8261 -1.82737
523 1 35.2708 38.1715 -0.209896 35.2708 38.1715 -0.209896
524 2 37.1684 38.1659 1.42439 37.1684 38.1659 1.42439
525 2 37.1732 38.1751 -1.83826 37.1732 38.1751 -1.83826
526 1 38.121 39.8162 -0.200699 38.121 39.8162 -0.200699
527 2 40.0057 39.8113 1.44864 40.0057 39.8113 1.44864
528 2 40.0363 39.8186 -1.81388 40.0363 39.8186 -1.81388
529 1 40.9701 38.1683 -0.17736 40.9701 38.1683 -0.17736
530 2 42.8472 38.1662 1.48069 42.8472 38.1662 1.48069
531 2 42.8927 38.1678 -1.78165 42.8927 38.1678 -1.78165
532 1 43.8201 39.8127 -0.136193 43.8201 39.8127 -0.136193
533 2 45.7073 39.8152 1.51013 45.7073 39.8152 1.51013
534 2 45.7329 39.808 -1.75245 45.7329 39.808 -1.75245