ITEM: TIMESTEP
3351000
ITEM: NUMBER OF ATOMS
810
ITEM: BOX BOUNDS pp pp pp
8.6298438867990135e-01 5.2154620611319167e+01
-7.4610672203613602e+00 5.8477282220360941e+01
-1.0000000000000000e+01 1.0000000000000000e+01
ITEM: ATOMS id type x y z xu yu zu
1 1 1.08621 56.8996 -0.149243 1.08621 -9.03875 -0.149243
2 2 2.98604 56.9108 1.48247 2.98604 -9.02752 1.48247
3 2 2.98693 56.8898 -1.77987 2.98693 -9.04854 -1.77987
4 1 3.93666 -7.39105 -0.159112 3.93666 -7.39105 -0.159112
5 2 5.83921 -7.38458 1.46909 5.83921 -7.38458 1.46909
6 2 5.8342 -7.39822 -1.79319 5.8342 -7.39822 -1.79319
7 1 6.78521 56.8999 -0.156603 6.78521 -9.03843 -0.156603
8 2 8.69559 56.9042 1.46249 8.69559 -9.03419 1.46249
9 2 8.67529 56.8974 -1.79985 8.67529 -9.04091 -1.79985
10 1 9.63555 -7.39047 -0.178141 9.63555 -7.39047 -0.178141
11 2 11.5389 -7.38962 1.44912 11.5389 -7.38962 1.44912
12 2 11.5323 -7.39166 -1.81317 11.5323 -7.39166 -1.81317
13 1 12.4841 56.9006 -0.182823 12.4841 -9.0377 -0.182823
14 2 14.379 56.9025 1.45487 14.379 -9.03589 1.45487
15 2 14.3897 56.9008 -1.80751 14.3897 -9.03755 -1.80751
16 1 15.3345 -7.38958 -0.173968 15.3345 -7.38958 -0.173968
17 2 17.2266 -7.38575 1.46653 17.2266 -7.38575 1.46653
18 2 17.2425 -7.39383 -1.7957 17.2425 -7.39383 -1.7957
19 1 18.183 56.9014 -0.15585 18.183 -9.03691 -0.15585
20 2 20.0787 56.9086 1.48067 20.0787 -9.0297 1.48067
21 2 20.0879 56.8959 -1.78167 20.0879 -9.04242 -1.78167
22 1 21.0335 -7.38896 -0.154451 21.0335 -7.38896 -0.154451
23 2 22.9392 -7.3844 1.46978 22.9392 -7.3844 1.46978
24 2 22.9281 -7.39439 -1.79245 22.9281 -7.39439 -1.79245
25 1 23.8821 56.9017 -0.159677 23.8821 -9.03661 -0.159677
26 2 25.7979 56.9133 1.4527 25.7979 -9.02501 1.4527
27 2 25.7667 56.8912 -1.80945 25.7667 -9.04714 -1.80945
28 1 26.7325 -7.38908 -0.199245 26.7325 -7.38908 -0.199245
29 2 28.639 -7.3886 1.42407 28.639 -7.3886 1.42407
30 2 28.6264 -7.391 -1.83812 28.6264 -7.391 -1.83812
31 1 29.5812 56.9013 -0.209274 29.5812 -9.03708 -0.209274
32 2 31.476 56.9125 1.4285 31.476 -9.02589 1.4285
33 2 31.4871 56.8908 -1.83376 31.4871 -9.04757 -1.83376
34 1 32.432 -7.3897 -0.2107 32.432 -7.3897 -0.2107
35 2 34.3146 -7.3886 1.44074 34.3146 -7.3886 1.44074
36 2 34.3497 -7.39258 -1.82131 34.3497 -7.39258 -1.82131
37 1 35.2804 56.9006 -0.177678 35.2804 -9.03779 -0.177678
38 2 37.163 56.91 1.47423 37.163 -9.02832 1.47423
39 2 37.1984 56.8919 -1.78792 37.1984 -9.04641 -1.78792
40 1 38.1311 -7.39046 -0.155856 38.1311 -7.39046 -0.155856
41 2 40.0237 -7.3844 1.48364 40.0237 -7.3844 1.48364
42 2 40.0387 -7.39788 -1.77858 40.0387 -7.39788 -1.77858
43 1 40.9796 56.9001 -0.136192 40.9796 -9.03828 -0.136192
44 2 42.8829 56.9107 1.49122 42.8829 -9.02761 1.49122
45 2 42.8769 56.8904 -1.77111 42.8769 -9.04793 -1.77111
46 1 43.8303 -7.39089 -0.152156 43.8303 -7.39089 -0.152156
47 2 45.7372 -7.38033 1.47066 45.7372 -7.38033 1.47066
48 2 45.7235 -7.40273 -1.79153 45.7235 -7.40273 -1.79153
49 1 46.6788 56.8997 -0.152962 46.6788 -9.03865 -0.152962
50 2 48.58 56.9124 1.47724 48.58 -9.02594 1.47724
51 2 48.5781 56.8881 -1.78508 48.5781 -9.05023 -1.78508
52 1 49.5293 -7.39119 -0.166686 49.5293 -7.39119 -0.166686
53 2 51.4272 -7.37876 1.46726 51.4272 -7.37876 1.46726
54 2 51.4316 -7.40468 -1.79494 51.4316 -7.40468 -1.79494
55 1 1.08804 -5.74527 -0.175557 1.08804 -5.74527 -0.175557
56 2 2.99001 -5.72459 1.45406 2.99001 -5.72459 1.45406
57 2 2.98765 -5.76119 -1.80822 2.98765 -5.76119 -1.80822
58 1 3.94198 -4.09545 -0.196309 3.94198 -4.09545 -0.196309
59 2 5.82391 -4.08784 1.44091 5.82391 -4.08784 1.44091
60 2 5.83264 -4.1231 -1.82237 5.83264 -4.1231 -1.82237
61 1 6.78688 -5.74483 -0.170579 6.78688 -5.74483 -0.170579
62 2 8.69227 -5.74177 1.45518 8.69227 -5.74177 1.45518
63 2 8.68309 -5.74278 -1.80729 8.68309 -5.74278 -1.80729
64 1 9.64074 -4.09465 -0.179672 9.64074 -4.09465 -0.179672
65 2 11.528 -4.10808 1.45047 11.528 -4.10808 1.45047
66 2 11.5262 -4.101 -1.81298 11.5262 -4.101 -1.81298
67 1 12.4858 -5.74399 -0.185012 12.4858 -5.74399 -0.185012
68 2 14.3794 -5.74306 1.45484 14.3794 -5.74306 1.45484
69 2 14.3938 -5.73962 -1.8076 14.3938 -5.73962 -1.8076
70 1 15.3396 -4.09369 -0.170264 15.3396 -4.09369 -0.170264
71 2 17.222 -4.10416 1.46602 17.222 -4.10416 1.46602
72 2 17.2301 -4.10303 -1.79739 17.2301 -4.10303 -1.79739
73 1 18.1847 -5.74313 -0.163981 18.1847 -5.74313 -0.163981
74 2 20.0843 -5.73322 1.46854 20.0843 -5.73322 1.46854
75 2 20.0869 -5.74809 -1.79388 20.0869 -5.74809 -1.79388
76 1 21.0388 -4.09308 -0.169572 21.0388 -4.09308 -0.169572
77 2 22.9257 -4.10252 1.46155 22.9257 -4.10252 1.46155
78 2 22.9249 -4.10388 -1.80184 22.9249 -4.10388 -1.80184
79 1 23.8839 -5.74283 -0.170161 23.8839 -5.74283 -0.170161
80 2 25.7953 -5.75056 1.44808 25.7953 -5.75056 1.44808
81 2 25.7743 -5.73078 -1.81423 25.7743 -5.73078 -1.81423
82 1 26.7383 -4.09319 -0.180111 26.7383 -4.09319 -0.180111
83 2 28.6248 -4.13463 1.4503 28.6248 -4.13463 1.4503
84 2 28.6248 -4.07242 -1.81248 28.6248 -4.07242 -1.81248
85 1 29.5833 -5.74314 -0.212475 29.5833 -5.74314 -0.212475
86 2 31.4726 -5.75917 1.43196 31.4726 -5.75917 1.43196
87 2 31.4959 -5.72317 -1.83017 31.4959 -5.72317 -1.83017
88 1 32.4377 -4.09386 -0.17409 32.4377 -4.09386 -0.17409
89 2 34.31 -4.13665 1.47315 34.31 -4.13665 1.47315
90 2 34.3381 -4.07223 -1.7895 34.3381 -4.07223 -1.7895
91 1 35.2826 -5.74403 -0.1823 35.2826 -5.74403 -0.1823
92 2 37.1652 -5.74691 1.46987 37.1652 -5.74691 1.46987
93 2 37.2016 -5.73719 -1.79236 37.2016 -5.73719 -1.79236
94 1 38.1369 -4.0947 -0.14525 38.1369 -4.0947 -0.14525
95 2 40.0202 -4.11516 1.4899 40.0202 -4.11516 1.4899
96 2 40.0264 -4.09493 -1.77347 40.0264 -4.09493 -1.77347
97 1 40.9817 -5.74469 -0.150203 40.9817 -5.74469 -0.150203
98 2 42.885 -5.73967 1.47775 42.885 -5.73967 1.47775
99 2 42.8801 -5.74542 -1.78471 42.8801 -5.74542 -1.78471
100 1 43.8359 -4.09512 -0.157792 43.8359 -4.09512 -0.157792
101 2 45.7318 -4.10668 1.46273 45.7318 -4.10668 1.46273
102 2 45.7128 -4.10424 -1.80065 45.7128 -4.10424 -1.80065
103 1 46.6807 -5.74511 -0.175854 46.6807 -5.74511 -0.175854
104 2 48.5846 -5.72853 1.45162 48.5846 -5.72853 1.45162
105 2 48.5785 -5.75734 -1.81072 48.5785 -5.75734 -1.81072
106 1 49.5348 -4.09552 -0.195691 49.5348 -4.09552 -0.195691
107 2 51.4184 -4.09117 1.44006 51.4184 -4.09117 1.44006
108 2 51.4241 -4.12045 -1.82327 51.4241 -4.12045 -1.82327
109 1 1.05892 -2.46263 -0.203675 1.05892 -2.46263 -0.203675
110 2 3.027 -2.42747 1.39311 3.027 -2.42747 1.39311
111 2 3.01439 -2.46203 -1.81512 3.01439 -2.46203 -1.81512
112 1 3.87129 -0.736076 -0.232454 3.87129 -0.736076 -0.232454
113 2 5.65095 -1.02693 1.46395 5.65095 -1.02693 1.46395
114 2 5.6489 -1.08193 -1.91993 5.6489 -1.08193 -1.91993
115 1 6.75755 -2.46227 -0.205345 6.75755 -2.46227 -0.205345
116 2 8.70393 -2.44548 1.41725 8.70393 -2.44548 1.41725
117 2 8.73458 -2.44252 -1.79105 8.73458 -2.44252 -1.79105
118 1 9.56964 -0.735122 -0.177965 9.56964 -0.735122 -0.177965
119 2 11.3404 -1.06697 1.51938 11.3404 -1.06697 1.51938
120 2 11.3562 -1.03965 -1.86479 11.3562 -1.03965 -1.86479
121 1 12.4563 -2.46117 -0.178945 12.4563 -2.46117 -0.178945
122 2 14.4125 -2.44389 1.43189 14.4125 -2.44389 1.43189
123 2 14.4237 -2.44219 -1.77651 14.4237 -2.44219 -1.77651
124 1 15.2687 -0.734219 -0.168353 15.2687 -0.734219 -0.168353
125 2 17.0424 -1.05536 1.52848 17.0424 -1.05536 1.52848
126 2 17.0522 -1.04974 -1.85598 17.0522 -1.04974 -1.85598
127 1 18.1554 -2.46026 -0.163038 18.1554 -2.46026 -0.163038
128 2 20.1227 -2.43984 1.43497 20.1227 -2.43984 1.43497
129 2 20.1121 -2.44487 -1.77342 20.1121 -2.44487 -1.77342
130 1 20.9682 -0.733661 -0.174276 20.9682 -0.733661 -0.174276
131 2 22.75 -1.04454 1.5165 22.75 -1.04454 1.5165
132 2 22.7437 -1.05983 -1.86797 22.7437 -1.05983 -1.86797
133 1 23.8549 -2.45993 -0.170766 23.8549 -2.45993 -0.170766
134 2 25.8043 -2.47407 1.4489 25.8043 -2.47407 1.4489
135 2 25.8297 -2.41087 -1.75878 25.8297 -2.41087 -1.75878
136 1 26.668 -0.734344 -0.115069 26.668 -0.734344 -0.115069
137 2 28.441 -1.0967 1.57398 28.441 -1.0967 1.57398
138 2 28.4522 -1.00946 -1.80933 28.4522 -1.00946 -1.80933
139 1 29.5545 -2.46066 -0.150332 29.5545 -2.46066 -0.150332
140 2 31.5063 -2.48432 1.46625 31.5063 -2.48432 1.46625
141 2 31.5266 -2.4023 -1.74104 31.5266 -2.4023 -1.74104
142 1 32.3674 -0.735391 -0.0880501 32.3674 -0.735391 -0.0880501
143 2 34.1367 -1.09814 1.605 34.1367 -1.09814 1.605
144 2 34.1554 -1.01008 -1.77821 34.1554 -1.01008 -1.77821
145 1 35.2537 -2.46178 -0.11803 35.2537 -2.46178 -0.11803
146 2 37.2216 -2.45976 1.47902 37.2216 -2.45976 1.47902
147 2 37.2097 -2.42819 -1.72923 37.2097 -2.42819 -1.72923
148 1 38.0666 -0.735402 -0.11082 38.0666 -0.735402 -0.11082
149 2 39.8493 -1.0657 1.57503 39.8493 -1.0657 1.57503
150 2 39.8411 -1.0425 -1.80937 39.8411 -1.0425 -1.80937
151 1 40.9529 -2.46196 -0.129932 40.9529 -2.46196 -0.129932
152 2 42.9275 -2.44885 1.45857 42.9275 -2.44885 1.45857
153 2 42.902 -2.43974 -1.74973 42.902 -2.43974 -1.74973
154 1 43.7658 -0.73565 -0.147328 43.7658 -0.73565 -0.147328
155 2 45.5572 -1.05768 1.53055 45.5572 -1.05768 1.53055
156 2 45.5312 -1.05115 -1.85385 45.5312 -1.05115 -1.85385
157 1 46.6519 -2.46233 -0.17315 46.6519 -2.46233 -0.17315
158 2 48.6319 -2.43537 1.40895 48.6319 -2.43537 1.40895
159 2 48.5953 -2.45391 -1.79922 48.5953 -2.45391 -1.79922
160 1 49.4644 -0.736013 -0.214011 49.4644 -0.736013 -0.214011
161 2 51.2521 -1.0297 1.4736 51.2521 -1.0297 1.4736
162 2 51.2339 -1.07961 -1.91034 51.2339 -1.07961 -1.91034
163 1 0.994894 17.3014 -0.203524 0.994894 17.3014 -0.203524
164 2 2.77389 17.59 1.49418 2.77389 17.59 1.49418
165 2 2.7725 17.6508 -1.89013 2.7725 17.6508 -1.89013
166 1 3.88156 19.0277 -0.173012 3.88156 19.0277 -0.173012
167 2 5.83133 19.004 1.44517 5.83133 19.004 1.44517
168 2 5.85522 19.0163 -1.76308 5.85522 19.0163 -1.76308
169 1 6.69387 17.3013 -0.159976 6.69387 17.3013 -0.159976
170 2 8.47036 17.6293 1.53202 8.47036 17.6293 1.53202
171 2 8.47414 17.6111 -1.8526 8.47414 17.6111 -1.8526
172 1 9.58043 19.0279 -0.166578 9.58043 19.0279 -0.166578
173 2 11.5452 19.009 1.43368 11.5452 19.009 1.43368
174 2 11.5391 19.012 -1.77466 11.5391 19.012 -1.77466
175 1 12.3928 17.3016 -0.173615 12.3928 17.3016 -0.173615
176 2 14.1723 17.6183 1.51796 14.1723 17.6183 1.51796
177 2 14.1697 17.6231 -1.86697 14.1697 17.6231 -1.86697
178 1 15.2794 19.0281 -0.173481 15.2794 19.0281 -0.173481
179 2 17.2465 18.9974 1.4245 17.2465 18.9974 1.4245
180 2 17.2358 19.0237 -1.78375 17.2358 19.0237 -1.78375
181 1 18.0916 17.3017 -0.195938 18.0916 17.3017 -0.195938
182 2 19.8673 17.5944 1.50449 19.8673 17.5944 1.50449
183 2 19.8728 17.6465 -1.87975 19.8728 17.6465 -1.87975
184 1 20.9783 19.0279 -0.163706 20.9783 19.0279 -0.163706
185 2 22.9184 19.0151 1.46581 22.9184 19.0151 1.46581
186 2 22.9615 19.0056 -1.74222 22.9615 19.0056 -1.74222
187 1 23.7905 17.3015 -0.123115 23.7905 17.3015 -0.123115
188 2 25.5629 17.6508 1.56852 25.5629 17.6508 1.56852
189 2 25.5748 17.5901 -1.81564 25.5748 17.5901 -1.81564
190 1 26.6774 19.0278 -0.145055 26.6774 19.0278 -0.145055
191 2 28.6497 19.0071 1.44595 28.6497 19.0071 1.44595
192 2 28.6286 19.0135 -1.76232 28.6286 19.0135 -1.76232
193 1 29.4898 17.3014 -0.166792 29.4898 17.3014 -0.166792
194 2 31.2718 17.6091 1.52409 31.2718 17.6091 1.52409
195 2 31.2644 17.6317 -1.86077 31.2644 17.6317 -1.86077
196 1 32.3768 19.0276 -0.161683 32.3768 19.0276 -0.161683
197 2 34.3519 18.9803 1.42634 34.3519 18.9803 1.42634
198 2 34.3254 19.0405 -1.78135 34.3254 19.0405 -1.78135
199 1 35.1892 17.302 -0.215897 35.1892 17.302 -0.215897
200 2 36.969 17.5701 1.48445 36.969 17.5701 1.48445
201 2 36.9666 17.671 -1.89845 36.9666 17.671 -1.89845
202 1 38.0759 19.028 -0.165125 38.0759 19.028 -0.165125
203 2 40.0174 19.0009 1.46255 40.0174 19.0009 1.46255
204 2 40.0576 19.0195 -1.74547 40.0576 19.0195 -1.74547
205 1 40.888 17.3013 -0.142292 40.888 17.3013 -0.142292
206 2 42.6633 17.6374 1.549 42.6633 17.6374 1.549
207 2 42.6695 17.6029 -1.8356 42.6695 17.6029 -1.8356
208 1 43.775 19.0275 -0.15534 43.775 19.0275 -0.15534
209 2 45.743 19.0102 1.44093 45.743 19.0102 1.44093
210 2 45.7306 19.0098 -1.76739 45.7306 19.0098 -1.76739
211 1 46.5874 17.3011 -0.166218 46.5874 17.3011 -0.166218
212 2 48.37 17.6189 1.52196 48.37 17.6189 1.52196
213 2 48.3615 17.6211 -1.8628 48.3615 17.6211 -1.8628
214 1 49.4741 19.0275 -0.172471 49.4741 19.0275 -0.172471
215 2 51.4455 18.9955 1.42041 51.4455 18.9955 1.42041
216 2 51.4263 19.0247 -1.78774 51.4263 19.0247 -1.78774
217 1 1.06656 20.6607 -0.173786 1.06656 20.6607 -0.173786
218 2 2.94242 20.6522 1.47078 2.94242 20.6522 1.47078
219 2 2.96345 20.6902 -1.79232 2.96345 20.6902 -1.79232
220 1 3.91269 22.3104 -0.135747 3.91269 22.3104 -0.135747
221 2 5.81506 22.3016 1.49346 5.81506 22.3016 1.49346
222 2 5.81195 22.3156 -1.76897 5.81195 22.3156 -1.76897
223 1 6.7655 20.6607 -0.1461 6.7655 20.6607 -0.1461
224 2 8.66144 20.6694 1.4737 8.66144 20.6694 1.4737
225 2 8.64231 20.6734 -1.78966 8.64231 20.6734 -1.78966
226 1 9.61162 22.3107 -0.161096 9.61162 22.3107 -0.161096
227 2 11.5179 22.3089 1.46375 11.5179 22.3089 1.46375
228 2 11.5068 22.309 -1.79871 11.5068 22.309 -1.79871
229 1 12.4644 20.6611 -0.170721 12.4644 20.6611 -0.170721
230 2 14.3519 20.6704 1.45982 14.3519 20.6704 1.45982
231 2 14.3496 20.6728 -1.80359 14.3496 20.6728 -1.80359
232 1 15.3106 22.3108 -0.171367 15.3106 22.3108 -0.171367
233 2 17.2077 22.3045 1.46449 17.2077 22.3045 1.46449
234 2 17.2151 22.3134 -1.79796 17.2151 22.3134 -1.79796
235 1 18.1634 20.6611 -0.168721 18.1634 20.6611 -0.168721
236 2 20.0405 20.6591 1.47435 20.0405 20.6591 1.47435
237 2 20.0589 20.6839 -1.78891 20.0589 20.6839 -1.78891
238 1 21.0096 22.3108 -0.139473 21.0096 22.3108 -0.139473
239 2 22.9141 22.3234 1.48765 22.9141 22.3234 1.48765
240 2 22.9069 22.2944 -1.77466 22.9069 22.2944 -1.77466
241 1 23.8624 20.661 -0.131306 23.8624 20.661 -0.131306
242 2 25.7622 20.6835 1.48375 25.7622 20.6835 1.48375
243 2 25.7356 20.6595 -1.77943 25.7356 20.6595 -1.77943
244 1 26.7088 22.3106 -0.166982 26.7088 22.3106 -0.166982
245 2 28.6125 22.3187 1.46133 28.6125 22.3187 1.46133
246 2 28.6067 22.2987 -1.80106 28.6067 22.2987 -1.80106
247 1 29.5616 20.6608 -0.160941 29.5616 20.6608 -0.160941
248 2 31.4473 20.6677 1.47238 31.4473 20.6677 1.47238
249 2 31.4488 20.6749 -1.79098 31.4488 20.6749 -1.79098
250 1 32.4079 22.3106 -0.155305 32.4079 22.3106 -0.155305
251 2 34.3038 22.301 1.48212 34.3038 22.301 1.48212
252 2 34.3137 22.3166 -1.78029 34.3137 22.3166 -1.78029
253 1 35.2608 20.6609 -0.153503 35.2608 20.6609 -0.153503
254 2 37.1391 20.6434 1.48865 37.1391 20.6434 1.48865
255 2 37.1553 20.6994 -1.77422 37.1553 20.6994 -1.77422
256 1 38.1071 22.3106 -0.110009 38.1071 22.3106 -0.110009
257 2 40.0181 22.3158 1.50963 40.0181 22.3158 1.50963
258 2 39.9981 22.3017 -1.75267 39.9981 22.3017 -1.75267
259 1 40.9601 20.6607 -0.120739 40.9601 20.6607 -0.120739
260 2 42.8655 20.6724 1.4877 42.8655 20.6724 1.4877
261 2 42.8276 20.6701 -1.77545 42.8276 20.6701 -1.77545
262 1 43.8063 22.3104 -0.155556 43.8063 22.3104 -0.155556
263 2 45.7172 22.3141 1.4642 45.7172 22.3141 1.4642
264 2 45.6971 22.3029 -1.79817 45.6971 22.3029 -1.79817
265 1 46.6591 20.6605 -0.16708 46.6591 20.6605 -0.16708
266 2 48.5487 20.6707 1.46107 48.5487 20.6707 1.46107
267 2 48.5422 20.6714 -1.80232 48.5422 20.6714 -1.80232
268 1 49.5054 22.3103 -0.172445 49.5054 22.3103 -0.172445
269 2 51.3993 22.2947 1.46694 51.3993 22.2947 1.46694
270 2 51.4131 22.3223 -1.79537 51.4131 22.3223 -1.79537
271 1 1.06394 23.9564 -0.14626 1.06394 23.9564 -0.14626
272 2 2.95245 23.9477 1.49844 2.95245 23.9477 1.49844
273 2 2.97547 23.967 -1.76369 2.97547 23.967 -1.76369
274 1 3.9143 25.604 -0.116115 3.9143 25.604 -0.116115
275 2 5.81905 25.5969 1.5096 5.81905 25.5969 1.5096
276 2 5.81018 25.6111 -1.75274 5.81018 25.6111 -1.75274
277 1 6.76294 23.9565 -0.131589 6.76294 23.9565 -0.131589
278 2 8.67554 23.9509 1.4844 8.67554 23.9509 1.4844
279 2 8.65034 23.9644 -1.77776 8.65034 23.9644 -1.77776
280 1 9.61329 25.6043 -0.147167 9.61329 25.6043 -0.147167
281 2 11.5259 25.6029 1.46945 11.5259 25.6029 1.46945
282 2 11.5011 25.6057 -1.79285 11.5011 25.6057 -1.79285
283 1 12.4618 23.9568 -0.170457 12.4618 23.9568 -0.170457
284 2 14.3636 23.9593 1.45899 14.3636 23.9593 1.45899
285 2 14.3602 23.9564 -1.80329 14.3602 23.9564 -1.80329
286 1 15.3123 25.6044 -0.174441 15.3123 25.6044 -0.174441
287 2 17.2085 25.6112 1.46176 17.2085 25.6112 1.46176
288 2 17.2167 25.5974 -1.8006 17.2167 25.5974 -1.8006
289 1 18.1609 23.9568 -0.159866 18.1609 23.9568 -0.159866
290 2 20.0557 23.9685 1.4776 20.0557 23.9685 1.4776
291 2 20.0662 23.9471 -1.78458 20.0662 23.9471 -1.78458
292 1 21.0114 25.6044 -0.161423 21.0114 25.6044 -0.161423
293 2 22.9201 25.6202 1.45961 22.9201 25.6202 1.45961
294 2 22.9033 25.5883 -1.80258 22.9033 25.5883 -1.80258
295 1 23.86 23.9567 -0.160234 23.86 23.9567 -0.160234
296 2 25.7724 23.9723 1.45625 25.7724 23.9723 1.45625
297 2 25.7478 23.943 -1.80579 25.7478 23.943 -1.80579
298 1 26.7105 25.6041 -0.196912 26.7105 25.6041 -0.196912
299 2 28.6123 25.6213 1.43255 28.6123 25.6213 1.43255
300 2 28.6093 25.5867 -1.82964 28.6093 25.5867 -1.82964
301 1 29.5592 23.9565 -0.181555 29.5592 23.9565 -0.181555
302 2 31.4531 23.9716 1.45724 31.4531 23.9716 1.45724
303 2 31.4654 23.9435 -1.80488 31.4654 23.9435 -1.80488
304 1 32.4097 25.6041 -0.184449 32.4097 25.6041 -0.184449
305 2 34.295 25.6232 1.46429 34.295 25.6232 1.46429
306 2 34.3249 25.5851 -1.79773 34.3249 25.5851 -1.79773
307 1 35.2582 23.9567 -0.138194 35.2582 23.9567 -0.138194
308 2 37.1513 23.9726 1.50153 37.1513 23.9726 1.50153
309 2 37.1654 23.943 -1.76053 37.1654 23.943 -1.76053
310 1 38.1089 25.6044 -0.140703 38.1089 25.6044 -0.140703
311 2 40.0177 25.625 1.48008 40.0177 25.625 1.48008
312 2 40.0007 25.5833 -1.78198 40.0007 25.5833 -1.78198
313 1 40.9576 23.9566 -0.134564 40.9576 23.9566 -0.134564
314 2 42.8757 23.9682 1.47512 42.8757 23.9682 1.47512
315 2 42.8396 23.9468 -1.78687 42.8396 23.9468 -1.78687
316 1 43.808 25.604 -0.177616 43.808 25.604 -0.177616
317 2 45.7135 25.6115 1.44756 45.7135 25.6115 1.44756
318 2 45.7031 25.5962 -1.81477 45.7031 25.5962 -1.81477
319 1 46.6566 23.9563 -0.17859 46.6566 23.9563 -0.17859
320 2 48.5531 23.9564 1.45711 48.5531 23.9564 1.45711
321 2 48.5603 23.9582 -1.80516 48.5603 23.9582 -1.80516
322 1 49.5071 25.604 -0.171056 49.5071 25.604 -0.171056
323 2 51.3896 25.5973 1.48097 51.3896 25.5973 1.48097
324 2 51.4249 25.6105 -1.7812 51.4249 25.6105 -1.7812
325 1 1.06584 27.2509 -0.133045 1.06584 27.2509 -0.133045
326 2 2.9542 27.2477 1.51195 2.9542 27.2477 1.51195
327 2 2.97779 27.255 -1.75038 2.97779 27.255 -1.75038
328 1 3.91642 28.8982 -0.10859 3.91642 28.8982 -0.10859
329 2 5.82044 28.897 1.51801 5.82044 28.897 1.51801
330 2 5.813 28.9001 -1.74436 5.813 28.9001 -1.74436
331 1 6.76492 27.251 -0.117006 6.76492 27.251 -0.117006
332 2 8.6794 27.2471 1.49708 8.6794 27.2471 1.49708
333 2 8.65073 27.2561 -1.76522 8.65073 27.2561 -1.76522
334 1 9.61547 28.8984 -0.138018 9.61547 28.8984 -0.138018
335 2 11.5298 28.8944 1.47646 11.5298 28.8944 1.47646
336 2 11.5015 28.9031 -1.78581 11.5015 28.9031 -1.78581
337 1 12.4638 27.2513 -0.167404 12.4638 27.2513 -0.167404
338 2 14.3691 27.2533 1.45803 14.3691 27.2533 1.45803
339 2 14.359 27.2501 -1.8044 14.359 27.2501 -1.8044
340 1 15.3145 28.8985 -0.177712 15.3145 28.8985 -0.177712
341 2 17.2146 28.9021 1.45369 17.2146 28.9021 1.45369
342 2 17.2149 28.8953 -1.80869 17.2149 28.8953 -1.80869
343 1 18.163 27.2512 -0.174052 18.163 27.2512 -0.174052
344 2 20.0631 27.2641 1.45708 20.0631 27.2641 1.45708
345 2 20.0632 27.2391 -1.80527 20.0632 27.2391 -1.80527
346 1 21.0136 28.8984 -0.187018 21.0136 28.8984 -0.187018
347 2 22.9193 28.9027 1.43739 22.9193 28.9027 1.43739
348 2 22.9084 28.8946 -1.82497 22.9084 28.8946 -1.82497
349 1 23.862 27.2511 -0.192899 23.862 27.2511 -0.192899
350 2 25.7703 27.2618 1.42841 25.7703 27.2618 1.42841
351 2 25.7541 27.2411 -1.83391 25.7541 27.2411 -1.83391
352 1 26.7126 28.8983 -0.218328 26.7126 28.8983 -0.218328
353 2 28.6122 28.8989 1.41341 28.6122 28.8989 1.41341
354 2 28.6137 28.8982 -1.84895 28.6137 28.8982 -1.84895
355 1 29.5612 27.2509 -0.217067 29.5612 27.2509 -0.217067
356 2 31.451 27.2652 1.42626 31.451 27.2652 1.42626
357 2 31.4718 27.2375 -1.83597 31.4718 27.2375 -1.83597
358 1 32.4119 28.8982 -0.212869 32.4119 28.8982 -0.212869
359 2 34.2986 28.9102 1.43382 34.2986 28.9102 1.43382
360 2 34.3256 28.8866 -1.82836 34.3256 28.8866 -1.82836
361 1 35.2603 27.251 -0.177484 35.2603 27.251 -0.177484
362 2 37.1531 27.2749 1.462 37.1531 27.2749 1.462
363 2 37.1679 27.228 -1.80005 37.1679 27.228 -1.80005
364 1 38.111 28.8982 -0.188893 38.111 28.8982 -0.188893
365 2 40.0121 28.9113 1.44071 40.0121 28.9113 1.44071
366 2 40.0104 28.8855 -1.82157 40.0104 28.8855 -1.82157
367 1 40.9595 27.2509 -0.177632 40.9595 27.2509 -0.177632
368 2 42.8671 27.2642 1.44448 42.8671 27.2642 1.44448
369 2 42.8523 27.2384 -1.81782 42.8523 27.2384 -1.81782
370 1 43.8101 28.8981 -0.204557 43.8101 28.8981 -0.204557
371 2 45.7042 28.8973 1.43378 45.7042 28.8973 1.43378
372 2 45.7166 28.8994 -1.82857 45.7166 28.8994 -1.82857
373 1 46.6587 27.2508 -0.194596 46.6587 27.2508 -0.194596
374 2 48.5447 27.2495 1.45335 48.5447 27.2495 1.45335
375 2 48.573 27.2531 -1.80896 48.573 27.2531 -1.80896
376 1 49.5092 28.8982 -0.167588 49.5092 28.8982 -0.167588
377 2 51.3886 28.8965 1.48786 51.3886 28.8965 1.48786
378 2 51.43 28.9003 -1.77426 51.43 28.9003 -1.77426
379 1 1.06803 30.5453 -0.128915 1.06803 30.5453 -0.128915
380 2 2.9588 30.5494 1.51331 2.9588 30.5494 1.51331
381 2 2.97773 30.542 -1.74902 2.97773 30.542 -1.74902
382 1 3.91872 32.1926 -0.116089 3.91872 32.1926 -0.116089
383 2 5.821 32.1985 1.51262 5.821 32.1985 1.51262
384 2 5.81699 32.1874 -1.74975 5.81699 32.1874 -1.74975
385 1 6.76715 30.5455 -0.113976 6.76715 30.5455 -0.113976
386 2 8.67978 30.5438 1.50242 8.67978 30.5438 1.50242
387 2 8.65495 30.5479 -1.75989 8.65495 30.5479 -1.75989
388 1 9.61782 32.1927 -0.134246 9.61782 32.1927 -0.134246
389 2 11.5275 32.1855 1.48577 11.5275 32.1855 1.48577
390 2 11.5086 32.2007 -1.77653 11.5086 32.2007 -1.77653
391 1 12.4661 30.5456 -0.158641 12.4661 30.5456 -0.158641
392 2 14.3737 30.5401 1.46392 14.3737 30.5401 1.46392
393 2 14.359 30.5519 -1.79844 14.359 30.5519 -1.79844
394 1 15.3169 32.1928 -0.165477 15.3169 32.1928 -0.165477
395 2 17.2215 32.1858 1.46061 17.2215 32.1858 1.46061
396 2 17.2128 32.2005 -1.80174 17.2128 32.2005 -1.80174
397 1 18.1652 30.5456 -0.180866 18.1652 30.5456 -0.180866
398 2 20.0678 30.5443 1.44739 20.0678 30.5443 1.44739
399 2 20.0631 30.5475 -1.81501 20.0631 30.5475 -1.81501
400 1 21.0159 32.1928 -0.183591 21.0159 32.1928 -0.183591
401 2 22.9196 32.1816 1.44347 22.9196 32.1816 1.44347
402 2 22.9128 32.2046 -1.81883 22.9128 32.2046 -1.81883
403 1 23.8643 30.5455 -0.201451 23.8643 30.5455 -0.201451
404 2 25.768 30.5358 1.42527 25.768 30.5358 1.42527
405 2 25.7611 30.556 -1.83704 25.7611 30.556 -1.83704
406 1 26.715 32.1928 -0.197826 26.715 32.1928 -0.197826
407 2 28.6141 32.1718 1.4345 28.6141 32.1718 1.4345
408 2 28.6165 32.2143 -1.82759 28.6165 32.2143 -1.82759
409 1 29.5634 30.5455 -0.217763 29.5634 30.5455 -0.217763
410 2 31.4559 30.5377 1.42229 31.4559 30.5377 1.42229
411 2 31.4715 30.5539 -1.84001 31.4715 30.5539 -1.84001
412 1 32.4141 32.1927 -0.195875 32.4141 32.1927 -0.195875
413 2 34.3106 32.1818 1.43946 34.3106 32.1818 1.43946
414 2 34.3181 32.2042 -1.82284 34.3181 32.2042 -1.82284
415 1 35.2625 30.5454 -0.201372 35.2625 30.5454 -0.201372
416 2 37.1574 30.5494 1.43561 37.1574 30.5494 1.43561
417 2 37.1681 30.542 -1.82676 37.1681 30.542 -1.82676
418 1 38.1132 32.1926 -0.19631 38.1132 32.1926 -0.19631
419 2 40.0128 32.1841 1.4353 40.0128 32.1841 1.4353
420 2 40.0141 32.2017 -1.82704 40.0141 32.2017 -1.82704
421 1 40.9616 30.5453 -0.204504 40.9616 30.5453 -0.204504
422 2 42.8596 30.5418 1.42903 42.8596 30.5418 1.42903
423 2 42.8642 30.5495 -1.83334 42.8642 30.5495 -1.83334
424 1 43.8123 32.1926 -0.197018 43.8123 32.1926 -0.197018
425 2 45.703 32.1806 1.4453 45.703 32.1806 1.4453
426 2 45.7222 32.2051 -1.81694 45.7222 32.2051 -1.81694
427 1 46.6608 30.5453 -0.192673 46.6608 30.5453 -0.192673
428 2 48.5436 30.5402 1.45888 48.5436 30.5402 1.45888
429 2 48.5784 30.5511 -1.80332 48.5784 30.5511 -1.80332
430 1 49.5113 32.1925 -0.15617 49.5113 32.1925 -0.15617
431 2 51.3975 32.1953 1.49156 51.3975 32.1953 1.49156
432 2 51.4256 32.1903 -1.77071 51.4256 32.1903 -1.77071
433 1 1.07031 33.8397 -0.133611 1.07031 33.8397 -0.133611
434 2 2.96671 33.8507 1.50207 2.96671 33.8507 1.50207
435 2 2.97446 33.8295 -1.76024 2.97446 33.8295 -1.76024
436 1 3.92097 35.487 -0.137578 3.92097 35.487 -0.137578
437 2 5.82031 35.4971 1.49474 5.82031 35.4971 1.49474
438 2 5.82216 35.4776 -1.76759 5.82216 35.4776 -1.76759
439 1 6.76942 33.8399 -0.125692 6.76942 33.8399 -0.125692
440 2 8.67418 33.8394 1.50019 8.67418 33.8394 1.50019
441 2 8.6652 33.8411 -1.7622 8.6652 33.8411 -1.7622
442 1 9.62011 35.4871 -0.133048 9.62011 35.4871 -0.133048
443 2 11.5226 35.4811 1.49563 11.5226 35.4811 1.49563
444 2 11.5182 35.4939 -1.76674 11.5182 35.4939 -1.76674
445 1 12.4685 33.84 -0.143245 12.4685 33.84 -0.143245
446 2 14.3754 33.83 1.48019 14.3754 33.83 1.48019
447 2 14.3622 33.8507 -1.78211 14.3622 33.8507 -1.78211
448 1 15.3192 35.4872 -0.144117 15.3192 35.4872 -0.144117
449 2 17.2282 35.4817 1.47698 17.2282 35.4817 1.47698
450 2 17.2108 35.4934 -1.78534 17.2108 35.4934 -1.78534
451 1 18.1676 33.84 -0.165377 18.1676 33.84 -0.165377
452 2 20.0734 33.832 1.45941 20.0734 33.832 1.45941
453 2 20.0623 33.8487 -1.80292 20.0623 33.8487 -1.80292
454 1 21.0182 35.4873 -0.166257 21.0182 35.4873 -0.166257
455 2 22.9212 35.4802 1.4621 22.9212 35.4802 1.4621
456 2 22.9158 35.4949 -1.80025 22.9158 35.4949 -1.80025
457 1 23.8666 33.84 -0.177979 23.8666 33.84 -0.177979
458 2 25.7673 33.8214 1.45274 25.7673 33.8214 1.45274
459 2 25.7665 33.8591 -1.80942 25.7665 33.8591 -1.80942
460 1 26.7172 35.4872 -0.159278 26.7172 35.4872 -0.159278
461 2 28.6163 35.4706 1.47348 28.6163 35.4706 1.47348
462 2 28.6186 35.5041 -1.78871 28.6186 35.5041 -1.78871
463 1 29.5656 33.8399 -0.174068 29.5656 33.8399 -0.174068
464 2 31.4658 33.8189 1.45717 31.4658 33.8189 1.45717
465 2 31.466 33.8614 -1.80494 31.466 33.8614 -1.80494
466 1 32.4162 35.487 -0.151918 32.4162 35.487 -0.151918
467 2 34.3231 35.4735 1.47155 34.3231 35.4735 1.47155
468 2 34.3099 35.5011 -1.79068 34.3099 35.5011 -1.79068
469 1 35.2647 33.8399 -0.177855 35.2647 33.8399 -0.177855
470 2 37.1676 33.8268 1.45017 37.1676 33.8268 1.45017
471 2 37.1624 33.8534 -1.8121 37.1624 33.8534 -1.8121
472 1 38.1153 35.487 -0.168748 38.1153 35.487 -0.168748
473 2 40.0179 35.4736 1.45986 40.0179 35.4736 1.45986
474 2 40.0133 35.5009 -1.80241 40.0133 35.5009 -1.80241
475 1 40.9638 33.8398 -0.186564 40.9638 33.8398 -0.186564
476 2 42.8607 33.8239 1.44855 42.8607 33.8239 1.44855
477 2 42.8675 33.8562 -1.81367 42.8675 33.8562 -1.81367
478 1 43.8144 35.4869 -0.164018 43.8144 35.4869 -0.164018
479 2 45.7099 35.4755 1.47292 45.7099 35.4755 1.47292
480 2 45.7194 35.4989 -1.78937 45.7194 35.4989 -1.78937
481 1 46.6629 33.8397 -0.167519 46.6629 33.8397 -0.167519
482 2 48.5534 33.8345 1.47515 48.5534 33.8345 1.47515
483 2 48.5729 33.8455 -1.78717 48.5729 33.8455 -1.78717
484 1 49.5135 35.4869 -0.144327 49.5135 35.4869 -0.144327
485 2 51.412 35.4949 1.48898 51.412 35.4949 1.48898
486 2 51.4156 35.4796 -1.77338 51.4156 35.4796 -1.77338
487 1 1.07248 37.1341 -0.148744 1.07248 37.1341 -0.148744
488 2 2.97434 37.148 1.48057 2.97434 37.148 1.48057
489 2 2.97116 37.1208 -1.78171 2.97116 37.1208 -1.78171
490 1 3.92311 38.7813 -0.165383 3.92311 38.7813 -0.165383
491 2 5.81799 38.791 1.47222 5.81799 38.791 1.47222
492 2 5.82879 38.7723 -1.7901 5.82879 38.7723 -1.7901
493 1 6.77163 37.1342 -0.145973 6.77163 37.1342 -0.145973
494 2 8.66647 37.1375 1.49172 8.66647 37.1375 1.49172
495 2 8.67732 37.1318 -1.77065 8.67732 37.1318 -1.77065
496 1 9.62226 38.7815 -0.139273 9.62226 38.7815 -0.139273
497 2 11.5182 38.7831 1.49706 11.5182 38.7831 1.49706
498 2 11.5269 38.7808 -1.76531 11.5269 38.7808 -1.76531
499 1 12.4708 37.1344 -0.130319 12.4708 37.1344 -0.130319
500 2 14.3769 37.1312 1.49413 14.3769 37.1312 1.49413
501 2 14.3653 37.1383 -1.76822 14.3653 37.1383 -1.76822
502 1 15.3214 38.7817 -0.136641 15.3214 38.7817 -0.136641
503 2 17.2344 38.7881 1.47953 17.2344 38.7881 1.47953
504 2 17.2089 38.7761 -1.78273 17.2089 38.7761 -1.78273
505 1 18.1698 37.1345 -0.152976 18.1698 37.1345 -0.152976
506 2 20.0791 37.1371 1.46783 20.0791 37.1371 1.46783
507 2 20.061 37.1326 -1.7945 20.061 37.1326 -1.7945
508 1 21.0203 38.7818 -0.170665 21.0203 38.7818 -0.170665
509 2 22.9232 38.7934 1.45786 22.9232 38.7934 1.45786
510 2 22.9179 38.7709 -1.80444 22.9179 38.7709 -1.80444
511 1 23.8687 37.1345 -0.162959 23.8687 37.1345 -0.162959
512 2 25.7663 37.1329 1.47196 25.7663 37.1329 1.47196
513 2 25.7717 37.1367 -1.79041 25.7717 37.1367 -1.79041
514 1 26.7192 38.7819 -0.155576 26.7192 38.7819 -0.155576
515 2 28.6153 38.7899 1.48081 28.6153 38.7899 1.48081
516 2 28.6236 38.7743 -1.78151 28.6236 38.7743 -1.78151
517 1 29.5677 37.1344 -0.139736 29.5677 37.1344 -0.139736
518 2 31.4718 37.129 1.48729 31.4718 37.129 1.48729
519 2 31.4642 37.1403 -1.77504 31.4642 37.1403 -1.77504
520 1 32.4182 38.7817 -0.140269 32.4182 38.7817 -0.140269
521 2 34.3265 38.7868 1.48166 34.3265 38.7868 1.48166
522 2 34.3105 38.7771 -1.78065 34.3105 38.7771 -1.78065
523 1 35.2668 37.1343 -0.149128 35.2668 37.1343 -0.149128
524 2 37.1751 37.1289 1.47288 37.1751 37.1289 1.47288
525 2 37.159 37.1402 -1.78943 37.159 37.1402 -1.78943
526 1 38.1173 38.7815 -0.157099 38.1173 38.7815 -0.157099
527 2 40.0188 38.7817 1.47307 40.0188 38.7817 1.47307
528 2 40.0164 38.7818 -1.78931 40.0164 38.7818 -1.78931
529 1 40.9659 37.1342 -0.158593 40.9659 37.1342 -0.158593
530 2 42.8641 37.1253 1.47525 42.8641 37.1253 1.47525
531 2 42.8681 37.1436 -1.78708 42.8681 37.1436 -1.78708
532 1 43.8164 38.7814 -0.145348 43.8164 38.7814 -0.145348
533 2 45.7154 38.7814 1.4875 45.7154 38.7814 1.4875