ITEM: TIMESTEP
3526000
ITEM: NUMBER OF ATOMS
810
ITEM: BOX BOUNDS pp pp pp
8.6298438867990135e-01 5.2154620611319167e+01
-7.8932150427014998e+00 5.8909430042701075e+01
-1.0000000000000000e+01 1.0000000000000000e+01
ITEM: ATOMS id type x y z xu yu zu
1 1 1.08459 57.1726 -0.165149 1.08459 -9.63003 -0.165149
2 2 2.98624 57.1696 1.46452 2.98624 -9.6331 1.46452
3 2 2.98361 57.1776 -1.79783 2.98361 -9.62501 -1.79783
4 1 3.93484 58.8209 -0.163294 3.93484 -7.98178 -0.163294
5 2 5.83694 58.818 1.4656 5.83694 -7.98468 1.4656
6 2 5.83302 58.8235 -1.79664 5.83302 -7.9791 -1.79664
7 1 6.7837 57.1736 -0.169575 6.7837 -9.629 -0.169575
8 2 8.68519 57.1737 1.46028 8.68519 -9.6289 1.46028
9 2 8.68295 57.1757 -1.80206 8.68295 -9.62695 -1.80206
10 1 9.63406 58.822 -0.170432 9.63406 -7.98062 -0.170432
11 2 11.5369 58.8249 1.45759 11.5369 -7.97772 1.45759
12 2 11.5316 58.8189 -1.80462 11.5316 -7.9837 -1.80462
13 1 12.4829 57.1748 -0.172085 12.4829 -9.62789 -0.172085
14 2 14.3826 57.1816 1.45995 14.3826 -9.62101 1.45995
15 2 14.384 57.1699 -1.80236 14.384 -9.63278 -1.80236
16 1 15.3334 58.823 -0.176702 15.3334 -7.97967 -0.176702
17 2 17.235 58.8311 1.45282 17.235 -7.97155 1.45282
18 2 17.2323 58.8142 -1.80935 17.2323 -7.9884 -1.80935
19 1 18.1822 57.1754 -0.170511 18.1822 -9.62724 -0.170511
20 2 20.081 57.1866 1.46243 20.081 -9.61608 1.46243
21 2 20.0842 57.1655 -1.79984 20.0842 -9.63711 -1.79984
22 1 21.0329 58.8231 -0.1786 21.0329 -7.97952 -0.1786
23 2 22.9248 58.825 1.46219 22.9248 -7.97762 1.46219
24 2 22.9413 58.8199 -1.8 22.9413 -7.98278 -1.8
25 1 23.8815 57.1751 -0.161338 23.8815 -9.62754 -0.161338
26 2 25.7792 57.1788 1.47285 25.7792 -9.62385 1.47285
27 2 25.7845 57.172 -1.78949 25.7845 -9.63064 -1.78949
28 1 26.7321 58.8224 -0.160428 26.7321 -7.98027 -0.160428
29 2 28.6273 58.8239 1.47625 28.6273 -7.97874 1.47625
30 2 28.6372 58.8189 -1.78599 28.6372 -7.98377 -1.78599
31 1 29.5807 57.1741 -0.149144 29.5807 -9.62855 -0.149144
32 2 31.4763 57.1728 1.48774 31.4763 -9.6298 1.48774
33 2 31.4856 57.1757 -1.77463 31.4856 -9.62695 -1.77463
34 1 32.4311 58.8212 -0.139269 32.4311 -7.98144 -0.139269
35 2 34.3334 58.8256 1.48937 34.3334 -7.97703 1.48937
36 2 34.3291 58.8148 -1.7729 34.3291 -7.98786 -1.7729
37 1 35.2796 57.1729 -0.137384 35.2796 -9.62977 -0.137384
38 2 37.1815 57.1695 1.49194 37.1815 -9.63314 1.49194
39 2 37.1782 57.1765 -1.77046 37.1782 -9.62616 -1.77046
40 1 38.1299 58.82 -0.136472 38.1299 -7.98262 -0.136472
41 2 40.0308 58.8169 1.49411 40.0308 -7.98576 1.49411
42 2 40.029 58.8212 -1.76819 40.029 -7.98146 -1.76819
43 1 40.9785 57.1719 -0.139839 40.9785 -9.63073 -0.139839
44 2 42.8862 57.1631 1.48244 42.8862 -9.63953 1.48244
45 2 42.8712 57.1818 -1.77987 42.8712 -9.62089 -1.77987
46 1 43.8286 58.8196 -0.14342 43.8286 -7.98308 -0.14342
47 2 45.7334 58.8143 1.48232 45.7334 -7.98833 1.48232
48 2 45.7239 58.8238 -1.77995 45.7239 -7.97885 -1.77995
49 1 46.6773 57.172 -0.156502 46.6773 -9.63068 -0.156502
50 2 48.5803 57.1647 1.47161 48.5803 -9.63793 1.47161
51 2 48.5748 57.1808 -1.79073 48.5748 -9.62181 -1.79073
52 1 49.5274 58.82 -0.152945 49.5274 -7.98268 -0.152945
53 2 51.4323 58.816 1.47258 51.4323 -7.98662 1.47258
54 2 51.4227 58.8234 -1.78967 51.4227 -7.97927 -1.78967
55 1 1.08579 -6.33621 -0.157544 1.08579 -6.33621 -0.157544
56 2 2.98946 -6.33459 1.47056 2.98946 -6.33459 1.47056
57 2 2.98381 -6.3326 -1.79188 2.98381 -6.3326 -1.79188
58 1 3.93953 -4.68585 -0.161105 3.93953 -4.68585 -0.161105
59 2 5.8288 -4.69341 1.46751 5.8288 -4.69341 1.46751
60 2 5.82315 -4.69791 -1.79587 5.82315 -4.69791 -1.79587
61 1 6.78497 -6.33509 -0.163732 6.78497 -6.33509 -0.163732
62 2 8.6901 -6.33161 1.46253 8.6901 -6.33161 1.46253
63 2 8.68166 -6.33318 -1.79989 8.68166 -6.33318 -1.79989
64 1 9.63889 -4.68467 -0.171974 9.63889 -4.68467 -0.171974
65 2 11.5299 -4.69259 1.45444 11.5299 -4.69259 1.45444
66 2 11.5209 -4.69632 -1.80891 11.5209 -4.69632 -1.80891
67 1 12.4844 -6.33393 -0.17807 12.4844 -6.33393 -0.17807
68 2 14.3885 -6.32437 1.44933 14.3885 -6.32437 1.44933
69 2 14.3822 -6.33838 -1.81304 14.3822 -6.33838 -1.81304
70 1 15.3385 -4.68375 -0.19083 15.3385 -4.68375 -0.19083
71 2 17.2258 -4.68916 1.44022 17.2258 -4.68916 1.44022
72 2 17.2245 -4.69828 -1.82309 17.2245 -4.69828 -1.82309
73 1 18.184 -6.33332 -0.187628 18.184 -6.33332 -0.187628
74 2 20.0849 -6.32223 1.44339 20.0849 -6.32223 1.44339
75 2 20.085 -6.33997 -1.81896 20.085 -6.33997 -1.81896
76 1 21.0384 -4.68358 -0.196907 21.0384 -4.68358 -0.196907
77 2 22.9097 -4.69096 1.45297 22.9097 -4.69096 1.45297
78 2 22.9402 -4.69692 -1.81023 22.9402 -4.69692 -1.81023
79 1 23.8834 -6.33367 -0.166926 23.8834 -6.33367 -0.166926
80 2 25.7738 -6.34337 1.47641 25.7738 -6.34337 1.47641
81 2 25.7948 -6.32017 -1.78588 25.7948 -6.32017 -1.78588
82 1 26.7377 -4.68441 -0.137181 26.7377 -4.68441 -0.137181
83 2 28.6234 -4.71353 1.49399 28.6234 -4.71353 1.49399
84 2 28.6248 -4.67675 -1.76923 28.6248 -4.67675 -1.76923
85 1 29.5826 -6.33477 -0.154726 29.5826 -6.33477 -0.154726
86 2 31.4738 -6.33453 1.48799 31.4738 -6.33453 1.48799
87 2 31.493 -6.3314 -1.77442 31.493 -6.3314 -1.77442
88 1 32.4367 -4.68551 -0.135363 32.4367 -4.68551 -0.135363
89 2 34.3333 -4.69117 1.48437 34.3333 -4.69117 1.48437
90 2 34.3128 -4.70121 -1.779 34.3128 -4.70121 -1.779
91 1 35.2814 -6.33598 -0.148176 35.2814 -6.33598 -0.148176
92 2 37.189 -6.3111 1.47486 37.189 -6.3111 1.47486
93 2 37.1753 -6.35732 -1.78728 37.1753 -6.35732 -1.78728
94 1 38.1352 -4.68698 -0.183177 38.1352 -4.68698 -0.183177
95 2 40.0154 -4.66155 1.45715 40.0154 -4.66155 1.45715
96 2 40.0276 -4.7337 -1.80555 40.0276 -4.7337 -1.80555
97 1 40.9799 -6.33689 -0.135051 40.9799 -6.33689 -0.135051
98 2 42.8889 -6.32903 1.48659 42.8889 -6.32903 1.48659
99 2 42.8725 -6.34049 -1.77583 42.8725 -6.34049 -1.77583
100 1 43.8335 -4.68711 -0.155767 43.8335 -4.68711 -0.155767
101 2 45.72 -4.68814 1.47529 45.72 -4.68814 1.47529
102 2 45.7194 -4.70666 -1.78814 45.7194 -4.70666 -1.78814
103 1 46.6785 -6.33689 -0.146788 46.6785 -6.33689 -0.146788
104 2 48.5793 -6.34095 1.48483 48.5793 -6.34095 1.48483
105 2 48.5793 -6.32801 -1.77762 48.5793 -6.32801 -1.77762
106 1 49.5321 -4.68679 -0.139924 49.5321 -4.68679 -0.139924
107 2 51.4255 -4.70186 1.48292 51.4255 -4.70186 1.48292
108 2 51.4115 -4.6918 -1.78047 51.4115 -4.6918 -1.78047
109 1 1.0559 -3.05335 -0.148894 1.0559 -3.05335 -0.148894
110 2 3.02588 -3.03274 1.44523 3.02588 -3.03274 1.44523
111 2 3.0096 -3.03779 -1.76313 3.0096 -3.03779 -1.76313
112 1 3.86823 -1.32639 -0.165635 3.86823 -1.32639 -0.165635
113 2 5.65224 -1.63799 1.5224 5.65224 -1.63799 1.5224
114 2 5.64141 -1.65135 -1.8621 5.64141 -1.65135 -1.8621
115 1 6.75511 -3.05221 -0.167757 6.75511 -3.05221 -0.167757
116 2 8.72026 -3.03264 1.43255 8.72026 -3.03264 1.43255
117 2 8.71389 -3.03553 -1.77584 8.71389 -3.03553 -1.77584
118 1 9.56767 -1.32525 -0.174948 9.56767 -1.32525 -0.174948
119 2 11.3506 -1.64289 1.51286 11.3506 -1.64289 1.51286
120 2 11.342 -1.64412 -1.87167 11.342 -1.64412 -1.87167
121 1 12.4547 -3.05103 -0.181762 12.4547 -3.05103 -0.181762
122 2 14.4243 -3.02906 1.41331 14.4243 -3.02906 1.41331
123 2 14.4092 -3.0372 -1.79501 14.4092 -3.0372 -1.79501
124 1 15.2676 -1.32443 -0.198924 15.2676 -1.32443 -0.198924
125 2 17.0504 -1.63337 1.49104 17.0504 -1.63337 1.49104
126 2 17.0419 -1.65266 -1.89365 17.0419 -1.65266 -1.89365
127 1 18.1547 -3.05034 -0.195897 18.1547 -3.05034 -0.195897
128 2 20.1183 -3.03272 1.40734 20.1183 -3.03272 1.40734
129 2 20.1155 -3.03276 -1.80102 20.1155 -3.03276 -1.80102
130 1 20.9681 -1.3242 -0.197108 20.9681 -1.3242 -0.197108
131 2 22.7401 -1.63016 1.50497 22.7401 -1.63016 1.50497
132 2 22.7533 -1.65571 -1.87947 22.7533 -1.65571 -1.87947
133 1 23.8547 -3.05069 -0.171947 23.8547 -3.05069 -0.171947
134 2 25.7852 -3.05299 1.46961 25.7852 -3.05299 1.46961
135 2 25.8478 -3.01373 -1.73798 25.8478 -3.01373 -1.73798
136 1 26.6673 -1.3251 -0.0978492 26.6673 -1.3251 -0.0978492
137 2 28.4311 -1.68913 1.59947 28.4311 -1.68913 1.59947
138 2 28.4614 -1.59756 -1.78285 28.4614 -1.59756 -1.78285
139 1 29.5536 -3.05198 -0.120809 29.5536 -3.05198 -0.120809
140 2 31.5255 -3.02969 1.47037 31.5255 -3.02969 1.47037
141 2 31.5056 -3.0394 -1.73796 31.5056 -3.0394 -1.73796
142 1 32.3666 -1.326 -0.143949 32.3666 -1.326 -0.143949
143 2 34.1553 -1.64163 1.5381 34.1553 -1.64163 1.5381
144 2 34.1349 -1.64837 -1.84632 34.1349 -1.64837 -1.84632
145 1 35.2527 -3.05307 -0.158463 35.2527 -3.05307 -0.158463
146 2 37.2492 -3.00061 1.4029 37.2492 -3.00061 1.4029
147 2 37.1792 -3.07122 -1.80406 37.1792 -3.07122 -1.80406
148 1 38.0645 -1.32801 -0.255362 38.0645 -1.32801 -0.255362
149 2 39.8573 -1.57527 1.43484 39.8573 -1.57527 1.43484
150 2 39.8299 -1.71641 -1.94528 39.8299 -1.71641 -1.94528
151 1 40.9505 -3.05456 -0.204484 40.9505 -3.05456 -0.204484
152 2 42.893 -3.02267 1.42276 42.893 -3.02267 1.42276
153 2 42.931 -3.05022 -1.78533 42.931 -3.05022 -1.78533
154 1 43.7625 -1.3276 -0.186976 43.7625 -1.3276 -0.186976
155 2 45.5302 -1.64407 1.51637 45.5302 -1.64407 1.51637
156 2 45.5519 -1.6481 -1.86791 45.5519 -1.6481 -1.86791
157 1 46.6488 -3.0541 -0.166744 46.6488 -3.0541 -0.166744
158 2 48.5948 -3.03603 1.45574 48.5948 -3.03603 1.45574
159 2 48.6261 -3.03617 -1.75252 48.6261 -3.03617 -1.75252
160 1 49.4609 -1.32723 -0.140881 49.4609 -1.32723 -0.140881
161 2 51.2336 -1.66275 1.55371 51.2336 -1.66275 1.55371
162 2 51.2453 -1.62873 -1.83067 51.2453 -1.62873 -1.83067
163 1 1.00187 17.5653 -0.0770013 1.00187 17.5653 -0.0770013
164 2 2.7742 17.9455 1.60824 2.7742 17.9455 1.60824
165 2 2.78721 17.822 -1.77356 2.78721 17.822 -1.77356
166 1 3.88854 19.2915 -0.130925 3.88854 19.2915 -0.130925
167 2 5.87989 19.272 1.43765 5.87989 19.272 1.43765
168 2 5.82104 19.2759 -1.77014 5.82104 19.2759 -1.77014
169 1 6.70165 17.5655 -0.18224 6.70165 17.5655 -0.18224
170 2 8.49019 17.8518 1.50653 8.49019 17.8518 1.50653
171 2 8.47018 17.9174 -1.87733 8.47018 17.9174 -1.87733
172 1 9.58849 19.2923 -0.164553 9.58849 19.2923 -0.164553
173 2 11.5459 19.2678 1.44554 11.5459 19.2678 1.44554
174 2 11.5554 19.2829 -1.76275 11.5554 19.2829 -1.76275
175 1 12.4021 17.5668 -0.164514 12.4021 17.5668 -0.164514
176 2 14.1786 17.8808 1.53051 14.1786 17.8808 1.53051
177 2 14.1825 17.8911 -1.85394 14.1825 17.8911 -1.85394
178 1 15.2881 19.2942 -0.156044 15.2881 19.2942 -0.156044
179 2 17.2447 19.2765 1.45381 17.2447 19.2765 1.45381
180 2 17.2551 19.2773 -1.75454 17.2551 19.2773 -1.75454
181 1 18.1009 17.5683 -0.148676 18.1009 17.5683 -0.148676
182 2 19.8823 17.9001 1.53748 19.8823 17.9001 1.53748
183 2 19.8764 17.8744 -1.84689 19.8764 17.8744 -1.84689
184 1 20.9868 19.2954 -0.167526 20.9868 19.2954 -0.167526
185 2 22.9656 19.2656 1.41575 22.9656 19.2656 1.41575
186 2 22.9312 19.2894 -1.79242 22.9312 19.2894 -1.79242
187 1 23.7987 17.5687 -0.209378 23.7987 17.5687 -0.209378
188 2 25.5846 17.8595 1.48067 25.5846 17.8595 1.48067
189 2 25.5704 17.9144 -1.90275 25.5704 17.9144 -1.90275
190 1 26.6847 19.2954 -0.192572 26.6847 19.2954 -0.192572
191 2 28.6437 19.2674 1.41522 28.6437 19.2674 1.41522
192 2 28.6489 19.2873 -1.79313 28.6489 19.2873 -1.79313
193 1 29.4966 17.5684 -0.198167 29.4966 17.5684 -0.198167
194 2 31.2692 17.8707 1.50337 31.2692 17.8707 1.50337
195 2 31.281 17.9028 -1.88091 31.281 17.9028 -1.88091
196 1 32.3828 19.2945 -0.171267 32.3828 19.2945 -0.171267
197 2 34.3235 19.2814 1.45752 34.3235 19.2814 1.45752
198 2 34.365 19.2703 -1.75064 34.365 19.2703 -1.75064
199 1 35.194 17.5667 -0.130632 35.194 17.5667 -0.130632
200 2 36.9661 17.9121 1.56221 36.9661 17.9121 1.56221
201 2 36.9797 17.8565 -1.82125 36.9797 17.8565 -1.82125
202 1 38.0809 19.2924 -0.148479 38.0809 19.2924 -0.148479
203 2 40.0584 19.2732 1.43663 40.0584 19.2732 1.43663
204 2 40.0269 19.2746 -1.77161 40.0269 19.2746 -1.77161
205 1 40.8929 17.5649 -0.175768 40.8929 17.5649 -0.175768
206 2 42.6795 17.8697 1.51125 42.6795 17.8697 1.51125
207 2 42.6637 17.8961 -1.87296 42.6637 17.8961 -1.87296
208 1 43.78 19.2906 -0.174431 43.78 19.2906 -0.174431
209 2 45.7318 19.2968 1.44264 45.7318 19.2968 1.44264
210 2 45.7523 19.2486 -1.76528 45.7523 19.2486 -1.76528
211 1 46.5928 17.5642 -0.130523 46.5928 17.5642 -0.130523
212 2 48.3652 17.9132 1.56215 48.3652 17.9132 1.56215
213 2 48.3776 17.8522 -1.82195 48.3776 17.8522 -1.82195
214 1 49.4801 19.29 -0.151148 49.4801 19.29 -0.151148
215 2 51.4234 19.3126 1.47513 51.4234 19.3126 1.47513
216 2 51.4612 19.2334 -1.73202 51.4612 19.2334 -1.73202
217 1 1.07221 20.9238 -0.159272 1.07221 20.9238 -0.159272
218 2 2.96197 20.9708 1.46707 2.96197 20.9708 1.46707
219 2 2.95559 20.8981 -1.79542 2.95559 20.8981 -1.79542
220 1 3.91791 22.5739 -0.202145 3.91791 22.5739 -0.202145
221 2 5.80626 22.5703 1.44403 5.80626 22.5703 1.44403
222 2 5.83187 22.5745 -1.81822 5.83187 22.5745 -1.81822
223 1 6.77227 20.9249 -0.180802 6.77227 20.9249 -0.180802
224 2 8.64634 20.9267 1.46691 8.64634 20.9267 1.46691
225 2 8.67172 20.9449 -1.79623 8.67172 20.9449 -1.79623
226 1 9.61772 22.5755 -0.148665 9.61772 22.5755 -0.148665
227 2 11.5163 22.5707 1.48528 11.5163 22.5707 1.48528
228 2 11.5213 22.5772 -1.77708 11.5213 22.5772 -1.77708
229 1 12.4719 20.9264 -0.147893 12.4719 20.9264 -0.147893
230 2 14.359 20.9306 1.48307 14.359 20.9306 1.48307
231 2 14.3579 20.944 -1.78028 14.3579 20.944 -1.78028
232 1 15.3172 22.5772 -0.141912 15.3172 22.5772 -0.141912
233 2 17.2236 22.5796 1.48295 17.2236 22.5796 1.48295
234 2 17.2126 22.5714 -1.77943 17.2126 22.5714 -1.77943
235 1 18.1712 20.928 -0.147421 18.1712 20.928 -0.147421
236 2 20.0696 20.9409 1.46962 20.0696 20.9409 1.46962
237 2 20.0454 20.9363 -1.79373 20.0454 20.9363 -1.79373
238 1 21.0162 22.5783 -0.171241 21.0162 22.5783 -0.171241
239 2 22.9201 22.567 1.45644 22.9201 22.567 1.45644
240 2 22.9139 22.5854 -1.80596 22.9139 22.5854 -1.80596
241 1 23.8697 20.9285 -0.185621 23.8697 20.9285 -0.185621
242 2 25.7535 20.9257 1.44966 25.7535 20.9257 1.44966
243 2 25.7583 20.9518 -1.81373 25.7583 20.9518 -1.81373
244 1 26.7147 22.5783 -0.167973 26.7147 22.5783 -0.167973
245 2 28.6146 22.5663 1.46402 28.6146 22.5663 1.46402
246 2 28.6161 22.5856 -1.7984 28.6161 22.5856 -1.7984
247 1 29.5679 20.9281 -0.176654 29.5679 20.9281 -0.176654
248 2 31.4454 20.9278 1.46541 31.4454 20.9278 1.46541
249 2 31.4627 20.9482 -1.79797 31.4627 20.9482 -1.79797
250 1 32.413 22.5774 -0.150923 32.413 22.5774 -0.150923
251 2 34.3112 22.5801 1.48336 34.3112 22.5801 1.48336
252 2 34.3164 22.569 -1.77908 34.3164 22.569 -1.77908
253 1 35.2661 20.9265 -0.141012 35.2661 20.9265 -0.141012
254 2 37.1605 20.9454 1.48014 37.1605 20.9454 1.48014
255 2 37.1443 20.9268 -1.78322 37.1443 20.9268 -1.78322
256 1 38.1115 22.5755 -0.165169 38.1115 22.5755 -0.165169
257 2 40.0166 22.5696 1.46101 40.0166 22.5696 1.46101
258 2 40.008 22.5756 -1.8014 40.008 22.5756 -1.8014
259 1 40.9647 20.9245 -0.175626 40.9647 20.9245 -0.175626
260 2 42.8514 20.9345 1.45612 42.8514 20.9345 1.45612
261 2 42.8508 20.934 -1.80725 42.8508 20.934 -1.80725
262 1 43.8104 22.5737 -0.176687 43.8104 22.5737 -0.176687
263 2 45.7178 22.5801 1.44652 45.7178 22.5801 1.44652
264 2 45.7048 22.5623 -1.81577 45.7048 22.5623 -1.81577
265 1 46.6641 20.9233 -0.180004 46.6641 20.9233 -0.180004
266 2 48.547 20.9564 1.45528 48.547 20.9564 1.45528
267 2 48.5544 20.9102 -1.80765 48.5544 20.9102 -1.80765
268 1 49.5098 22.573 -0.197164 49.5098 22.573 -0.197164
269 2 51.4037 22.5966 1.44199 51.4037 22.5966 1.44199
270 2 51.4179 22.5458 -1.81994 51.4179 22.5458 -1.81994
271 1 1.06761 24.2197 -0.210835 1.06761 24.2197 -0.210835
272 2 2.96398 24.2228 1.42461 2.96398 24.2228 1.42461
273 2 2.97187 24.2188 -1.83751 2.97187 24.2188 -1.83751
274 1 3.91721 25.8682 -0.205874 3.91721 25.8682 -0.205874
275 2 5.80095 25.8668 1.445 5.80095 25.8668 1.445
276 2 5.83439 25.8696 -1.81709 5.83439 25.8696 -1.81709
277 1 6.76736 24.2209 -0.177578 6.76736 24.2209 -0.177578
278 2 8.6527 24.2245 1.47109 8.6527 24.2245 1.47109
279 2 8.68254 24.22 -1.79093 8.68254 24.22 -1.79093
280 1 9.61675 25.8696 -0.153498 9.61675 25.8696 -0.153498
281 2 11.5126 25.874 1.48296 11.5126 25.874 1.48296
282 2 11.5219 25.8656 -1.77929 11.5219 25.8656 -1.77929
283 1 12.467 24.2225 -0.141096 12.467 24.2225 -0.141096
284 2 14.3695 24.2271 1.4873 14.3695 24.2271 1.4873
285 2 14.365 24.2206 -1.77488 14.365 24.2206 -1.77488
286 1 15.3163 25.8712 -0.148457 15.3163 25.8712 -0.148457
287 2 17.2238 25.8764 1.47431 17.2238 25.8764 1.47431
288 2 17.2095 25.8661 -1.78796 17.2095 25.8661 -1.78796
289 1 18.1663 24.224 -0.155668 18.1663 24.224 -0.155668
290 2 20.0741 24.2229 1.46638 20.0741 24.2229 1.46638
291 2 20.0587 24.2271 -1.79582 20.0587 24.2271 -1.79582
292 1 21.0154 25.8723 -0.167161 21.0154 25.8723 -0.167161
293 2 22.9142 25.8689 1.46596 22.9142 25.8689 1.46596
294 2 22.9172 25.875 -1.79638 22.9172 25.875 -1.79638
295 1 23.8652 24.2246 -0.167228 23.8652 24.2246 -0.167228
296 2 25.7625 24.2194 1.46728 25.7625 24.2194 1.46728
297 2 25.7679 24.231 -1.79496 25.7679 24.231 -1.79496
298 1 26.7143 25.8723 -0.156356 26.7143 25.8723 -0.156356
299 2 28.6128 25.8683 1.47677 28.6128 25.8683 1.47677
300 2 28.6162 25.875 -1.78559 28.6162 25.875 -1.78559
301 1 29.5637 24.2241 -0.156817 29.5637 24.2241 -0.156817
302 2 31.4598 24.2234 1.47903 31.4598 24.2234 1.47903
303 2 31.4677 24.2254 -1.78323 31.4677 24.2254 -1.78323
304 1 32.4129 25.8714 -0.148695 32.4129 25.8714 -0.148695
305 2 34.3169 25.8736 1.47811 34.3169 25.8736 1.47811
306 2 34.3094 25.8671 -1.78424 34.3094 25.8671 -1.78424
307 1 35.2623 24.2227 -0.152037 35.2623 24.2227 -0.152037
308 2 37.1684 24.2207 1.47166 37.1684 24.2207 1.47166
309 2 37.1561 24.2246 -1.79056 37.1561 24.2246 -1.79056
310 1 38.1115 25.8697 -0.16113 38.1115 25.8697 -0.16113
311 2 40.0141 25.8643 1.46728 40.0141 25.8643 1.46728
312 2 40.0094 25.8728 -1.79504 40.0094 25.8728 -1.79504
313 1 40.9609 24.2208 -0.169655 40.9609 24.2208 -0.169655
314 2 42.8643 24.22 1.45738 42.8643 24.22 1.45738
315 2 42.8576 24.2217 -1.80482 42.8576 24.2217 -1.80482
316 1 43.8102 25.868 -0.175089 43.8102 25.868 -0.175089
317 2 45.7179 25.8586 1.44709 45.7179 25.8586 1.44709
318 2 45.7032 25.8759 -1.81512 45.7032 25.8759 -1.81512
319 1 46.6598 24.2196 -0.197422 46.6598 24.2196 -0.197422
320 2 48.5621 24.2246 1.43097 48.5621 24.2246 1.43097
321 2 48.558 24.2156 -1.83116 48.558 24.2156 -1.83116
322 1 49.5092 25.8674 -0.205781 49.5092 25.8674 -0.205781
323 2 51.4107 25.8642 1.42413 51.4107 25.8642 1.42413
324 2 51.4087 25.8702 -1.83812 51.4087 25.8702 -1.83812
325 1 1.06719 27.5149 -0.20433 1.06719 27.5149 -0.20433
326 2 2.96263 27.5053 1.43261 2.96263 27.5053 1.43261
327 2 2.97254 27.5253 -1.82961 2.97254 27.5253 -1.82961
328 1 3.91679 29.1629 -0.185169 3.91679 29.1629 -0.185169
329 2 5.80917 29.1597 1.45556 5.80917 29.1597 1.45556
330 2 5.8253 29.1669 -1.80665 5.8253 29.1669 -1.80665
331 1 6.76671 27.5159 -0.174651 6.76671 27.5159 -0.174651
332 2 8.65647 27.5191 1.46894 8.65647 27.5191 1.46894
333 2 8.67771 27.5142 -1.79329 8.67771 27.5142 -1.79329
334 1 9.61628 29.1643 -0.158442 9.61628 29.1643 -0.158442
335 2 11.5142 29.1692 1.47545 11.5142 29.1692 1.47545
336 2 11.5192 29.1605 -1.78679 11.5192 29.1605 -1.78679
337 1 12.4663 27.5175 -0.149818 12.4663 27.5175 -0.149818
338 2 14.3696 27.5249 1.47762 14.3696 27.5249 1.47762
339 2 14.3636 27.5116 -1.78468 14.3636 27.5116 -1.78468
340 1 15.3157 29.1659 -0.16227 15.3157 29.1659 -0.16227
341 2 17.2197 29.1684 1.4646 17.2197 29.1684 1.4646
342 2 17.2126 29.1641 -1.79769 17.2126 29.1641 -1.79769
343 1 18.1656 27.5189 -0.166325 18.1656 27.5189 -0.166325
344 2 20.0667 27.5197 1.46394 20.0667 27.5197 1.46394
345 2 20.0651 27.519 -1.79843 20.0651 27.519 -1.79843
346 1 21.015 29.1669 -0.168128 21.015 29.1669 -0.168128
347 2 22.9107 29.1655 1.46851 22.9107 29.1655 1.46851
348 2 22.92 29.1683 -1.79379 22.92 29.1683 -1.79379
349 1 23.8647 27.5195 -0.161264 23.8647 27.5195 -0.161264
350 2 25.761 27.5174 1.47462 25.761 27.5174 1.47462
351 2 25.7688 27.5216 -1.78776 25.7688 27.5216 -1.78776
352 1 26.714 29.1669 -0.152079 26.714 29.1669 -0.152079
353 2 28.6139 29.1681 1.47947 28.6139 29.1681 1.47947
354 2 28.6147 29.165 -1.78286 28.6147 29.165 -1.78286
355 1 29.5635 27.5191 -0.149978 29.5635 27.5191 -0.149978
356 2 31.4652 27.5228 1.4794 31.4652 27.5228 1.4794
357 2 31.4622 27.5147 -1.78299 31.4622 27.5147 -1.78299
358 1 32.4128 29.1661 -0.156731 32.4128 29.1661 -0.156731
359 2 34.317 29.1705 1.46975 34.317 29.1705 1.46975
360 2 34.3091 29.1604 -1.79255 34.3091 29.1604 -1.79255
361 1 35.2622 27.5178 -0.158511 35.2622 27.5178 -0.158511
362 2 37.1639 27.5172 1.47086 37.1639 27.5172 1.47086
363 2 37.1608 27.5172 -1.79152 37.1608 27.5172 -1.79152
364 1 38.1115 29.1645 -0.161369 38.1115 29.1645 -0.161369
365 2 40.01 29.1607 1.472 40.01 29.1607 1.472
366 2 40.0135 29.1668 -1.7903 40.0135 29.1668 -1.7903
367 1 40.9608 27.516 -0.161078 40.9608 27.516 -0.161078
368 2 42.8639 27.5067 1.46679 42.8639 27.5067 1.46679
369 2 42.8583 27.5244 -1.79551 42.8583 27.5244 -1.79551
370 1 43.8102 29.163 -0.157104 43.8102 29.163 -0.157104
371 2 45.7149 29.1481 1.46876 45.7149 29.1481 1.46876
372 2 45.7062 29.1769 -1.79338 45.7062 29.1769 -1.79338
373 1 46.6597 27.5148 -0.179598 46.6597 27.5148 -0.179598
374 2 48.5672 27.5021 1.44278 48.5672 27.5021 1.44278
375 2 48.5526 27.5274 -1.81939 48.5526 27.5274 -1.81939
376 1 49.5091 29.1624 -0.179605 49.5091 29.1624 -0.179605
377 2 51.4149 29.1476 1.44514 51.4149 29.1476 1.44514
378 2 51.4041 29.1772 -1.81695 51.4041 29.1772 -1.81695
379 1 1.06716 30.8101 -0.173754 1.06716 30.8101 -0.173754
380 2 2.96839 30.8006 1.4565 2.96839 30.8006 1.4565
381 2 2.96672 30.8202 -1.8057 2.96672 30.8202 -1.8057
382 1 3.91699 32.4581 -0.16499 3.91699 32.4581 -0.16499
383 2 5.81633 32.4547 1.46753 5.81633 32.4547 1.46753
384 2 5.81851 32.4625 -1.7947 5.81851 32.4625 -1.7947
385 1 6.76652 30.811 -0.167019 6.76652 30.811 -0.167019
386 2 8.66194 30.8115 1.47 8.66194 30.8115 1.47
387 2 8.67196 30.8118 -1.79224 8.67196 30.8118 -1.79224
388 1 9.61638 32.4594 -0.158078 9.61638 32.4594 -0.158078
389 2 11.5164 32.4587 1.4735 11.5164 32.4587 1.4735
390 2 11.5173 32.4614 -1.78875 11.5173 32.4614 -1.78875
391 1 12.466 30.8126 -0.158769 12.466 30.8126 -0.158769
392 2 14.3692 30.8148 1.46889 14.3692 30.8148 1.46889
393 2 14.3636 30.8116 -1.79338 14.3636 30.8116 -1.79338
394 1 15.3158 32.4609 -0.16555 15.3158 32.4609 -0.16555
395 2 17.2173 32.4582 1.46418 17.2173 32.4582 1.46418
396 2 17.2151 32.4646 -1.79808 17.2151 32.4646 -1.79808
397 1 18.1654 30.8139 -0.170848 18.1654 30.8139 -0.170848
398 2 20.0635 30.813 1.46289 20.0635 30.813 1.46289
399 2 20.0679 30.8155 -1.79941 20.0679 30.8155 -1.79941
400 1 21.0151 32.4618 -0.165617 21.0151 32.4618 -0.165617
401 2 22.9111 32.4614 1.47073 22.9111 32.4614 1.47073
402 2 22.9198 32.4625 -1.79155 22.9198 32.4625 -1.79155
403 1 23.8645 30.8144 -0.158478 23.8645 30.8144 -0.158478
404 2 25.7613 30.8146 1.47686 25.7613 30.8146 1.47686
405 2 25.7684 30.8142 -1.78546 25.7684 30.8142 -1.78546
406 1 26.7142 32.4619 -0.152316 26.7142 32.4619 -0.152316
407 2 28.6178 32.4669 1.47492 28.6178 32.4669 1.47492
408 2 28.6112 32.4565 -1.78736 28.6112 32.4565 -1.78736
409 1 29.5635 30.8141 -0.152982 29.5635 30.8141 -0.152982
410 2 31.4694 30.8199 1.47151 31.4694 30.8199 1.47151
411 2 31.4581 30.8075 -1.79078 31.4581 30.8075 -1.79078
412 1 32.413 32.4611 -0.169137 32.413 32.4611 -0.169137
413 2 34.3174 32.4678 1.45726 34.3174 32.4678 1.45726
414 2 34.3093 32.4534 -1.805 34.3093 32.4534 -1.805
415 1 35.2623 30.8129 -0.168852 35.2623 30.8129 -0.168852
416 2 37.161 30.8166 1.46423 37.161 30.8166 1.46423
417 2 37.164 30.8079 -1.79807 37.164 30.8079 -1.79807
418 1 38.1119 32.4597 -0.170531 38.1119 32.4597 -0.170531
419 2 40.0035 32.459 1.47083 40.0035 32.459 1.47083
420 2 40.0207 32.4593 -1.79141 40.0207 32.4593 -1.79141
421 1 40.961 30.8113 -0.155157 40.961 30.8113 -0.155157
422 2 42.8577 30.8025 1.4802 42.8577 30.8025 1.4802
423 2 42.8648 30.819 -1.78204 42.8648 30.819 -1.78204
424 1 43.8106 32.4583 -0.140594 43.8106 32.4583 -0.140594
425 2 45.7101 32.4468 1.49145 45.7101 32.4468 1.49145
426 2 45.7118 32.4689 -1.77073 45.7118 32.4689 -1.77073
427 1 46.6598 30.81 -0.150317 46.6598 30.81 -0.150317
428 2 48.5675 30.794 1.47202 48.5675 30.794 1.47202
429 2 48.5527 30.8258 -1.79006 48.5527 30.8258 -1.79006
430 1 49.5095 32.4576 -0.147145 49.5095 32.4576 -0.147145
431 2 51.4181 32.4459 1.47428 51.4181 32.4459 1.47428
432 2 51.4016 32.4695 -1.78784 51.4016 32.4695 -1.78784
433 1 1.0678 34.1054 -0.149436 1.0678 34.1054 -0.149436
434 2 2.9738 34.1002 1.47514 2.9738 34.1002 1.47514
435 2 2.96255 34.1114 -1.78706 2.96255 34.1114 -1.78706
436 1 3.91795 35.7535 -0.153484 3.91795 35.7535 -0.153484
437 2 5.82006 35.7515 1.47576 5.82006 35.7515 1.47576
438 2 5.81668 35.7566 -1.78646 5.81668 35.7566 -1.78646
439 1 6.76702 34.1063 -0.15893 6.76702 34.1063 -0.15893
440 2 8.6656 34.1046 1.47444 8.6656 34.1046 1.47444
441 2 8.66931 34.1094 -1.78779 8.66931 34.1094 -1.78779
442 1 9.61723 35.7547 -0.153136 9.61723 35.7547 -0.153136
443 2 11.517 35.7513 1.47884 11.517 35.7513 1.47884
444 2 11.5184 35.7596 -1.78338 11.5184 35.7596 -1.78338
445 1 12.4664 34.1078 -0.156085 12.4664 34.1078 -0.156085
446 2 14.3691 34.1032 1.47226 14.3691 34.1032 1.47226
447 2 14.3645 34.1137 -1.78997 14.3645 34.1137 -1.78997
448 1 15.3166 35.7561 -0.154802 15.3166 35.7561 -0.154802
449 2 17.2205 35.7536 1.47223 17.2205 35.7536 1.47223
450 2 17.2135 35.7598 -1.79 17.2135 35.7598 -1.79
451 1 18.1658 34.109 -0.164224 18.1658 34.109 -0.164224
452 2 20.0659 34.1076 1.46724 20.0659 34.1076 1.46724
453 2 20.0664 34.1112 -1.79502 20.0664 34.1112 -1.79502
454 1 21.0159 35.757 -0.161691 21.0159 35.757 -0.161691
455 2 22.917 35.763 1.46872 22.917 35.763 1.46872
456 2 22.9155 35.7515 -1.79353 22.9155 35.7515 -1.79353
457 1 23.8649 34.1095 -0.15708 23.8649 34.1095 -0.15708
458 2 25.7657 34.1149 1.4737 25.7657 34.1149 1.4737
459 2 25.7649 34.1042 -1.78857 25.7649 34.1042 -1.78857
460 1 26.7149 35.7571 -0.163031 26.7149 35.7571 -0.163031
461 2 28.6211 35.7666 1.46131 28.6211 35.7666 1.46131
462 2 28.6095 35.7474 -1.80089 28.6095 35.7474 -1.80089
463 1 29.5639 34.1092 -0.16343 29.5639 34.1092 -0.16343
464 2 31.4721 34.117 1.45837 31.4721 34.117 1.45837
465 2 31.4564 34.1008 -1.80384 31.4564 34.1008 -1.80384
466 1 32.4139 35.7563 -0.185662 32.4139 35.7563 -0.185662
467 2 34.3168 35.7624 1.4424 34.3168 35.7624 1.4424
468 2 34.3116 35.7494 -1.81985 34.3116 35.7494 -1.81985
469 1 35.2628 34.108 -0.183584 35.2628 34.108 -0.183584
470 2 37.1587 34.1124 1.45288 37.1587 34.1124 1.45288
471 2 37.1676 34.1027 -1.80937 37.1676 34.1027 -1.80937
472 1 38.1128 35.755 -0.180569 38.1128 35.755 -0.180569
473 2 39.9992 35.7552 1.46692 39.9992 35.7552 1.46692
474 2 40.027 35.7539 -1.79523 40.027 35.7539 -1.79523
475 1 40.9616 34.1066 -0.155206 40.9616 34.1066 -0.155206
476 2 42.8512 34.1017 1.48855 42.8512 34.1017 1.48855
477 2 42.8727 34.1107 -1.77363 42.8727 34.1107 -1.77363
478 1 43.8116 35.7537 -0.131816 43.8116 35.7537 -0.131816
479 2 45.7064 35.7476 1.50575 45.7064 35.7476 1.50575
480 2 45.7176 35.7594 -1.75644 45.7176 35.7594 -1.75644
481 1 46.6605 34.1055 -0.128019 46.6605 34.1055 -0.128019
482 2 48.5658 34.0954 1.49706 48.5658 34.0954 1.49706
483 2 48.5558 34.1154 -1.7651 48.5558 34.1154 -1.7651
484 1 49.5106 35.753 -0.126832 49.5106 35.753 -0.126832
485 2 51.42 35.7469 1.49345 51.42 35.7469 1.49345
486 2 51.4018 35.7596 -1.7687 51.4018 35.7596 -1.7687
487 1 1.06924 37.4009 -0.136485 1.06924 37.4009 -0.136485
488 2 2.97755 37.3984 1.48529 2.97755 37.3984 1.48529
489 2 2.96166 37.4044 -1.77689 2.96166 37.4044 -1.77689
490 1 3.91977 39.0491 -0.147323 3.91977 39.0491 -0.147323
491 2 5.82377 39.0495 1.47971 5.82377 39.0495 1.47971
492 2 5.81657 39.05 -1.7825 5.81657 39.05 -1.7825
493 1 6.76834 37.4018 -0.153678 6.76834 37.4018 -0.153678
494 2 8.66755 37.4007 1.47904 8.66755 37.4007 1.47904
495 2 8.66999 37.4043 -1.78318 8.66999 37.4043 -1.78318
496 1 9.61893 39.0502 -0.149438 9.61893 39.0502 -0.149438
497 2 11.5183 39.0508 1.48304 11.5183 39.0508 1.48304
498 2 11.5204 39.0512 -1.77918 11.5204 39.0512 -1.77918
499 1 12.4676 37.4031 -0.147589 12.4676 37.4031 -0.147589
500 2 14.3707 37.4012 1.48052 14.3707 37.4012 1.48052
501 2 14.3655 37.4065 -1.7817 14.3655 37.4065 -1.7817
502 1 15.3182 39.0515 -0.149358 15.3182 39.0515 -0.149358
503 2 17.2254 39.056 1.47375 17.2254 39.056 1.47375
504 2 17.2118 39.0484 -1.78845 17.2118 39.0484 -1.78845
505 1 18.1669 37.4043 -0.157551 18.1669 37.4043 -0.157551
506 2 20.0727 37.4099 1.4674 20.0727 37.4099 1.4674
507 2 20.062 37.3997 -1.79481 20.062 37.3997 -1.79481
508 1 21.0174 39.0523 -0.171917 21.0174 39.0523 -0.171917
509 2 22.9226 39.0642 1.45356 22.9226 39.0642 1.45356
510 2 22.913 39.0411 -1.80859 22.913 39.0411 -1.80859
511 1 23.8661 37.4048 -0.168561 23.8661 37.4048 -0.168561
512 2 25.7704 37.4169 1.45807 25.7704 37.4169 1.45807
513 2 25.7626 37.3929 -1.80409 25.7626 37.3929 -1.80409
514 1 26.7165 39.0523 -0.187616 26.7165 39.0523 -0.187616
515 2 28.6203 39.0627 1.43938 28.6203 39.0627 1.43938
516 2 28.6134 39.042 -1.8228 28.6134 39.042 -1.8228
517 1 29.5651 37.4044 -0.183101 29.5651 37.4044 -0.183101
518 2 31.4716 37.4123 1.44078 31.4716 37.4123 1.44078
519 2 31.4593 37.3962 -1.82142 31.4593 37.3962 -1.82142
520 1 32.4156 39.0515 -0.20223 32.4156 39.0515 -0.20223
521 2 34.3149 39.0548 1.43003 34.3149 39.0548 1.43003
522 2 34.3169 39.0478 -1.83223 34.3169 39.0478 -1.83223
523 1 35.2641 37.4033 -0.196908 35.2641 37.4033 -0.196908
524 2 37.1567 37.4055 1.44335 37.1567 37.4055 1.44335
525 2 37.1722 37.4005 -1.81887 37.1722 37.4005 -1.81887
526 1 38.1146 39.0503 -0.185719 38.1146 39.0503 -0.185719
527 2 39.9993 39.0515 1.46378 39.9993 39.0515 1.46378
528 2 40.0305 39.0487 -1.79833 40.0305 39.0487 -1.79833
529 1 40.963 37.402 -0.156664 40.963 37.402 -0.156664
530 2 42.8482 37.3999 1.49217 42.8482 37.3999 1.49217
531 2 42.8784 37.4036 -1.76993 42.8784 37.4036 -1.76993
532 1 43.8134 39.0492 -0.128164 43.8134 39.0492 -0.128164
533 2 45.706 39.0476 1.51201 45.706 39.0476 1.51201
534 2 45.7216 39.0508 -1.75018 45.7216 39.0508 -1.75018