ITEM: TIMESTEP
2267000
ITEM: NUMBER OF ATOMS
810
ITEM: BOX BOUNDS pp pp pp
8.6298438867990135e-01 5.2154620611319167e+01
-4.7842201379801548e+00 5.5800435137979733e+01
-1.0000000000000000e+01 1.0000000000000000e+01
ITEM: ATOMS id type x y z xu yu zu
1 1 1.02262 -2.31678 -0.191355 1.02262 -2.31678 -0.191355
2 2 2.98803 -2.31042 1.40726 2.98803 -2.31042 1.40726
3 2 2.99876 -2.32279 -1.77677 2.99876 -2.32279 -1.77677
4 1 3.87193 -0.296919 -0.189533 3.87193 -0.296919 -0.189533
5 2 5.83526 -0.293245 1.4116 5.83526 -0.293245 1.4116
6 2 5.85005 -0.299753 -1.7724 5.85005 -0.299753 -1.7724
7 1 6.72121 -2.31571 -0.172012 6.72121 -2.31571 -0.172012
8 2 8.68527 -2.31333 1.42827 8.68527 -2.31333 1.42827
9 2 8.69856 -2.31686 -1.7558 8.69856 -2.31686 -1.7558
10 1 9.57024 -0.295307 -0.162276 9.57024 -0.295307 -0.162276
11 2 11.5329 -0.294817 1.43961 11.5329 -0.294817 1.43961
12 2 11.549 -0.294278 -1.74438 11.549 -0.294278 -1.74438
13 1 12.4198 -2.31369 -0.14835 12.4198 -2.31369 -0.14835
14 2 14.3858 -2.316 1.44948 14.3858 -2.316 1.44948
15 2 14.3952 -2.30998 -1.73452 14.3952 -2.30998 -1.73452
16 1 15.2686 -0.292933 -0.136345 15.2686 -0.292933 -0.136345
17 2 17.2358 -0.296625 1.46008 17.2358 -0.296625 1.46008
18 2 17.2429 -0.287943 -1.7239 17.2429 -0.287943 -1.7239
19 1 18.1181 -2.31173 -0.135393 18.1181 -2.31173 -0.135393
20 2 20.0881 -2.31694 1.45743 20.0881 -2.31694 1.45743
21 2 20.0895 -2.30578 -1.72654 20.0895 -2.30578 -1.72654
22 1 20.967 -0.291457 -0.127315 20.967 -0.291457 -0.127315
23 2 22.939 -0.297171 1.46324 22.939 -0.297171 1.46324
24 2 22.9366 -0.285687 -1.72079 22.9366 -0.285687 -1.72079
25 1 23.8164 -2.31104 -0.136774 23.8164 -2.31104 -0.136774
26 2 25.7919 -2.3175 1.44943 25.7919 -2.3175 1.44943
27 2 25.7825 -2.30481 -1.73459 25.7825 -2.30481 -1.73459
28 1 26.666 -0.291871 -0.137398 26.666 -0.291871 -0.137398
29 2 28.6449 -0.29714 1.44458 28.6449 -0.29714 1.44458
30 2 28.6287 -0.287292 -1.73943 28.6287 -0.287292 -1.73943
31 1 29.5155 -2.31165 -0.158145 29.5155 -2.31165 -0.158145
32 2 31.4944 -2.31391 1.42378 31.4944 -2.31391 1.42378
33 2 31.4782 -2.31002 -1.7603 31.4782 -2.31002 -1.7603
34 1 32.3655 -0.293029 -0.17016 32.3655 -0.293029 -0.17016
35 2 34.3461 -0.294033 1.40984 34.3461 -0.294033 1.40984
36 2 34.3268 -0.292992 -1.77423 34.3268 -0.292992 -1.77423
37 1 35.2153 -2.31282 -0.18813 35.2153 -2.31282 -0.18813
38 2 37.1932 -2.3102 1.39534 37.1932 -2.3102 1.39534
39 2 37.1793 -2.31652 -1.78875 37.1793 -2.31652 -1.78875
40 1 38.0657 -0.29462 -0.204187 38.0657 -0.29462 -0.204187
41 2 40.0418 -0.290854 1.38142 40.0418 -0.290854 1.38142
42 2 40.0316 -0.299511 -1.80263 40.0316 -0.299511 -1.80263
43 1 40.9154 -2.31458 -0.207809 40.9154 -2.31458 -0.207809
44 2 42.8858 -2.30752 1.38475 42.8858 -2.30752 1.38475
45 2 42.8869 -2.3227 -1.79931 42.8869 -2.3227 -1.79931
46 1 43.7657 -0.296167 -0.216388 43.7657 -0.296167 -0.216388
47 2 45.7348 -0.289164 1.37773 45.7348 -0.289164 1.37773
48 2 45.7384 -0.304039 -1.80628 45.7384 -0.304039 -1.80628
49 1 46.6152 -2.31612 -0.203825 46.6152 -2.31612 -0.203825
50 2 48.5831 -2.3081 1.39187 48.5831 -2.3081 1.39187
51 2 48.589 -2.32479 -1.79216 48.589 -2.32479 -1.79216
52 1 49.465 -0.297223 -0.208822 49.465 -0.297223 -0.208822
53 2 51.4311 -0.290261 1.38899 51.4311 -0.290261 1.38899
54 2 51.4406 -0.304377 -1.79496 51.4406 -0.304377 -1.79496
55 1 1.02289 1.72247 -0.20899 1.02289 1.72247 -0.20899
56 2 2.98635 1.72764 1.39195 2.98635 1.72764 1.39195
57 2 3.00101 1.71768 -1.79197 3.00101 1.71768 -1.79197
58 1 3.8722 3.74263 -0.202034 3.8722 3.74263 -0.202034
59 2 5.83253 3.74545 1.40262 5.83253 3.74545 1.40262
60 2 5.85323 3.74059 -1.78131 5.85323 3.74059 -1.78131
61 1 6.72105 1.72347 -0.180445 6.72105 1.72347 -0.180445
62 2 8.68236 1.72503 1.42312 8.68236 1.72503 1.42312
63 2 8.70117 1.72304 -1.7608 8.70117 1.72304 -1.7608
64 1 9.57003 3.7442 -0.164993 9.57003 3.7442 -0.164993
65 2 11.531 3.74483 1.43902 11.531 3.74483 1.43902
66 2 11.5504 3.74497 -1.74493 11.5504 3.74497 -1.74493
67 1 12.4191 1.72557 -0.147666 12.4191 1.72557 -0.147666
68 2 14.3822 1.72453 1.45378 14.3822 1.72453 1.45378
69 2 14.3975 1.72813 -1.73017 14.3975 1.72813 -1.73017
70 1 15.2682 3.7464 -0.1319 15.2682 3.7464 -0.1319
71 2 17.233 3.74433 1.46748 17.233 3.74433 1.46748
72 2 17.2448 3.7496 -1.71656 17.2448 3.7496 -1.71656
73 1 18.1176 1.72773 -0.124712 18.1176 1.72773 -0.124712
74 2 20.0866 1.72343 1.46961 20.0866 1.72343 1.46961
75 2 20.0903 1.73268 -1.71438 20.0903 1.73268 -1.71438
76 1 20.9671 3.74764 -0.115748 20.9671 3.74764 -0.115748
77 2 22.9385 3.74304 1.47574 22.9385 3.74304 1.47574
78 2 22.9376 3.75217 -1.70827 22.9376 3.75217 -1.70827
79 1 23.8166 1.72803 -0.122395 23.8166 1.72803 -0.122395
80 2 25.7917 1.72208 1.46424 25.7917 1.72208 1.46424
81 2 25.7831 1.73336 -1.71975 25.7831 1.73336 -1.71975
82 1 26.6666 3.74702 -0.123328 26.6666 3.74702 -0.123328
83 2 28.6465 3.74156 1.45753 28.6465 3.74156 1.45753
84 2 28.6284 3.75154 -1.72649 28.6284 3.75154 -1.72649
85 1 29.516 1.72698 -0.14574 29.516 1.72698 -0.14574
86 2 31.4981 1.72285 1.43246 31.4981 1.72285 1.43246
87 2 31.4758 1.73005 -1.75152 31.4758 1.73005 -1.75152
88 1 32.3664 3.7454 -0.161143 32.3664 3.7454 -0.161143
89 2 34.3503 3.74285 1.41485 34.3503 3.74285 1.41485
90 2 34.3244 3.74687 -1.76914 34.3244 3.74687 -1.76914
91 1 35.2159 1.72538 -0.186749 35.2159 1.72538 -0.186749
92 2 37.1971 1.72527 1.39264 37.1971 1.72527 1.39264
93 2 37.1768 1.72443 -1.79135 37.1768 1.72443 -1.79135
94 1 38.0664 3.74383 -0.205302 38.0664 3.74383 -0.205302
95 2 40.0456 3.74436 1.3765 40.0456 3.74436 1.3765
96 2 40.0293 3.74244 -1.80753 40.0293 3.74244 -1.80753
97 1 40.9161 1.72387 -0.218522 40.9161 1.72387 -0.218522
98 2 42.8898 1.72884 1.3701 42.8898 1.72884 1.3701
99 2 42.8844 1.71802 -1.8139 42.8844 1.71802 -1.8139
100 1 43.7664 3.74257 -0.229674 43.7664 3.74257 -0.229674
101 2 45.7368 3.74718 1.36286 45.7368 3.74718 1.36286
102 2 45.7379 3.73742 -1.82115 45.7379 3.73742 -1.82115
103 1 46.6157 1.72268 -0.222495 46.6157 1.72268 -0.222495
104 2 48.5834 1.72842 1.37351 48.5834 1.72842 1.37351
105 2 48.59 1.71646 -1.81044 48.59 1.71646 -1.81044
106 1 49.4655 3.74206 -0.22402 49.4655 3.74206 -0.22402
107 2 51.431 3.74621 1.37455 51.431 3.74621 1.37455
108 2 51.4417 3.73802 -1.80943 51.4417 3.73802 -1.80943
109 1 1.02339 5.76188 -0.219455 1.02339 5.76188 -0.219455
110 2 2.98621 5.76454 1.38229 2.98621 5.76454 1.38229
111 2 3.00203 5.75979 -1.80169 3.00203 5.75979 -1.80169
112 1 3.87251 7.78209 -0.208147 3.87251 7.78209 -0.208147
113 2 5.8325 7.78453 1.39693 5.8325 7.78453 1.39693
114 2 5.85385 7.78061 -1.78697 5.85385 7.78061 -1.78697
115 1 6.72124 5.76305 -0.186689 6.72124 5.76305 -0.186689
116 2 8.68058 5.76485 1.41919 8.68058 5.76485 1.41919
117 2 8.70314 5.7624 -1.76475 8.70314 5.7624 -1.76475
118 1 9.57002 7.78377 -0.168202 9.57002 7.78377 -0.168202
119 2 11.5296 7.78504 1.4374 11.5296 7.78504 1.4374
120 2 11.5516 7.78364 -1.74655 11.5516 7.78364 -1.74655
121 1 12.4189 5.76499 -0.147633 12.4189 5.76499 -0.147633
122 2 14.3806 5.76553 1.45547 14.3806 5.76553 1.45547
123 2 14.3985 5.76573 -1.72857 14.3985 5.76573 -1.72857
124 1 15.268 7.78536 -0.131581 15.268 7.78536 -0.131581
125 2 17.2312 7.78579 1.4698 17.2312 7.78579 1.4698
126 2 17.2463 7.78569 -1.71427 17.2463 7.78569 -1.71427
127 1 18.1175 5.76658 -0.118265 18.1175 5.76658 -0.118265
128 2 20.085 5.76408 1.47804 20.085 5.76408 1.47804
129 2 20.0917 5.76953 -1.70608 20.0917 5.76953 -1.70608
130 1 20.9673 7.78605 -0.109099 20.9673 7.78605 -0.109099
131 2 22.938 7.78431 1.4833 22.938 7.78431 1.4833
132 2 22.9384 7.78771 -1.70083 22.9384 7.78771 -1.70083
133 1 23.8171 5.76684 -0.111088 23.8171 5.76684 -0.111088
134 2 25.7925 5.7634 1.47547 25.7925 5.7634 1.47547
135 2 25.7836 5.76966 -1.7086 25.7836 5.76966 -1.7086
136 1 26.6673 7.78546 -0.115313 26.6673 7.78546 -0.115313
137 2 28.6467 7.78245 1.46639 28.6467 7.78245 1.46639
138 2 28.6299 7.7874 -1.71762 28.6299 7.7874 -1.71762
139 1 29.5169 5.76543 -0.133594 29.5169 5.76543 -0.133594
140 2 31.5005 5.76094 1.44279 31.5005 5.76094 1.44279
141 2 31.4752 5.76877 -1.7412 31.4752 5.76877 -1.7412
142 1 32.3673 7.78364 -0.151466 32.3673 7.78364 -0.151466
143 2 34.3526 7.77925 1.42284 34.3526 7.77925 1.42284
144 2 34.3238 7.78682 -1.76109 34.3238 7.78682 -1.76109
145 1 35.2168 5.76365 -0.181597 35.2168 5.76365 -0.181597
146 2 37.1996 5.76106 1.39567 37.1996 5.76106 1.39567
147 2 37.1759 5.76524 -1.78836 37.1759 5.76524 -1.78836
148 1 38.0672 7.78196 -0.200164 38.0672 7.78196 -0.200164
149 2 40.0483 7.77912 1.37931 40.0483 7.77912 1.37931
150 2 40.028 7.78391 -1.80474 40.028 7.78391 -1.80474
151 1 40.9168 5.76229 -0.220967 40.9168 5.76229 -0.220967
152 2 42.8932 5.76247 1.36427 42.8932 5.76247 1.36427
153 2 42.8824 5.76139 -1.81981 42.8824 5.76139 -1.81981
154 1 43.7671 7.78094 -0.231149 43.7671 7.78094 -0.231149
155 2 45.74 7.7808 1.35828 45.74 7.7808 1.35828
156 2 45.7359 7.78092 -1.8258 45.7359 7.78092 -1.8258
157 1 46.6164 5.76158 -0.234526 46.6164 5.76158 -0.234526
158 2 48.5836 5.7646 1.36186 48.5836 5.7646 1.36186
159 2 48.591 5.7585 -1.82219 48.591 5.7585 -1.82219
160 1 49.4661 7.78108 -0.231727 49.4661 7.78108 -0.231727
161 2 51.4311 7.78286 1.36723 51.4311 7.78286 1.36723
162 2 51.4426 7.77985 -1.81679 51.4426 7.77985 -1.81679
163 1 1.02364 9.80117 -0.223343 1.02364 9.80117 -0.223343
164 2 2.98608 9.80194 1.37873 2.98608 9.80194 1.37873
165 2 3.00255 9.80142 -1.80522 3.00255 9.80142 -1.80522
166 1 3.87248 11.8219 -0.208968 3.87248 11.8219 -0.208968
167 2 5.83385 11.8232 1.39446 5.83385 11.8232 1.39446
168 2 5.85239 11.8219 -1.78942 5.85239 11.8219 -1.78942
169 1 6.72125 9.80281 -0.191394 6.72125 9.80281 -0.191394
170 2 8.68009 9.80516 1.41505 8.68009 9.80516 1.41505
171 2 8.70363 9.80164 -1.76882 8.70363 9.80164 -1.76882
172 1 9.56991 11.8237 -0.172565 9.56991 11.8237 -0.172565
173 2 11.5293 11.8265 1.43331 11.5293 11.8265 1.43331
174 2 11.5519 11.8217 -1.75056 11.5519 11.8217 -1.75056
175 1 12.4188 9.80438 -0.14956 12.4188 9.80438 -0.14956
176 2 14.3803 9.80583 1.45399 14.3803 9.80583 1.45399
177 2 14.3989 9.80371 -1.72996 14.3989 9.80371 -1.72996
178 1 15.268 11.8247 -0.134402 15.268 11.8247 -0.134402
179 2 17.2319 11.8277 1.46633 17.2319 11.8277 1.46633
180 2 17.2459 11.8219 -1.71763 17.2459 11.8219 -1.71763
181 1 18.1175 9.80523 -0.118381 18.1175 9.80523 -0.118381
182 2 20.0836 9.8061 1.47959 20.0836 9.8061 1.47959
183 2 20.0932 9.80454 -1.70446 20.0932 9.80454 -1.70446
184 1 20.9674 11.8247 -0.111192 20.9674 11.8247 -0.111192
185 2 22.9374 11.8268 1.48212 22.9374 11.8268 1.48212
186 2 22.9393 11.8223 -1.70192 22.9393 11.8223 -1.70192
187 1 23.8173 9.80511 -0.106898 23.8173 9.80511 -0.106898
188 2 25.7925 9.80419 1.48009 25.7925 9.80419 1.48009
189 2 25.7842 9.80555 -1.70397 25.7842 9.80555 -1.70397
190 1 26.6676 11.8239 -0.11377 26.6676 11.8239 -0.11377
191 2 28.6464 11.8239 1.46873 28.6464 11.8239 1.46873
192 2 28.6309 11.823 -1.71529 28.6309 11.823 -1.71529
193 1 29.5176 9.80386 -0.127413 29.5176 9.80386 -0.127413
194 2 31.5004 9.80097 1.45 31.5004 9.80097 1.45
195 2 31.4767 9.80544 -1.73396 31.4767 9.80544 -1.73396
196 1 32.368 11.8221 -0.145894 32.368 11.8221 -0.145894
197 2 34.3515 11.8183 1.43056 34.3515 11.8183 1.43056
198 2 34.3264 11.8246 -1.75341 34.3264 11.8246 -1.75341
199 1 35.2176 9.80191 -0.172351 35.2176 9.80191 -0.172351
200 2 37.2019 9.79805 1.40321 37.2019 9.79805 1.40321
201 2 37.1752 9.8046 -1.78075 37.1752 9.8046 -1.78075
202 1 38.068 11.8203 -0.191806 38.068 11.8203 -0.191806
203 2 40.0493 11.8158 1.38741 40.0493 11.8158 1.38741
204 2 40.0287 11.8239 -1.79654 40.0287 11.8239 -1.79654
205 1 40.9176 9.80042 -0.215172 40.9176 9.80042 -0.215172
206 2 42.8955 9.7972 1.36816 42.8955 9.7972 1.36816
207 2 42.8815 9.8032 -1.81588 42.8815 9.8032 -1.81588
208 1 43.7676 11.8195 -0.223749 43.7676 11.8195 -0.223749
209 2 45.7422 11.816 1.3637 45.7422 11.816 1.3637
210 2 45.7349 11.8232 -1.82029 45.7349 11.8232 -1.82029
211 1 46.6169 9.80022 -0.23447 46.6169 9.80022 -0.23447
212 2 48.5861 9.80025 1.35943 48.5861 9.80025 1.35943
213 2 48.5893 9.80065 -1.82461 48.5893 9.80065 -1.82461
214 1 49.4663 11.8203 -0.231052 49.4663 11.8203 -0.231052
215 2 51.4322 11.8198 1.36686 51.4322 11.8198 1.36686
216 2 51.442 11.8216 -1.8171 51.442 11.8216 -1.8171
217 1 1.02373 13.8409 -0.221036 1.02373 13.8409 -0.221036
218 2 2.98714 13.8409 1.37982 2.98714 13.8409 1.37982
219 2 3.00173 13.8423 -1.80408 3.00173 13.8423 -1.80408
220 1 3.87225 15.862 -0.206957 3.87225 15.862 -0.206957
221 2 5.83423 15.8614 1.39561 5.83423 15.8614 1.39561
222 2 5.85151 15.8639 -1.78834 5.85151 15.8639 -1.78834
223 1 6.7211 13.8429 -0.193016 6.7211 13.8429 -0.193016
224 2 8.68132 13.845 1.41178 8.68132 13.845 1.41178
225 2 8.70216 13.842 -1.77213 8.70216 13.842 -1.77213
226 1 9.56975 15.8635 -0.176068 9.56975 15.8635 -0.176068
227 2 11.5305 15.8662 1.42814 11.5305 15.8662 1.42814
228 2 11.5503 15.8613 -1.75588 11.5503 15.8613 -1.75588
229 1 12.4188 13.8442 -0.155388 12.4188 13.8442 -0.155388
230 2 14.3799 13.8476 1.44843 14.3799 13.8476 1.44843
231 2 14.3991 13.8411 -1.73557 14.3991 13.8411 -1.73557
232 1 15.2681 15.8637 -0.14243 15.2681 15.8637 -0.14243
233 2 17.2322 15.8676 1.45793 17.2322 15.8676 1.45793
234 2 17.2456 15.8596 -1.7262 17.2456 15.8596 -1.7262
235 1 18.1177 13.8443 -0.125488 18.1177 13.8443 -0.125488
236 2 20.0837 13.849 1.47256 20.0837 13.849 1.47256
237 2 20.0934 13.8393 -1.71151 20.0934 13.8393 -1.71151
238 1 20.9676 15.863 -0.122814 20.9676 15.863 -0.122814
239 2 22.9361 15.8677 1.47228 22.9361 15.8677 1.47228
240 2 22.9411 15.8578 -1.71189 22.9411 15.8578 -1.71189
241 1 23.8176 13.8436 -0.11249 23.8176 13.8436 -0.11249
242 2 25.7911 13.8458 1.47664 25.7911 13.8458 1.47664
243 2 25.7862 13.8406 -1.70747 25.7862 13.8406 -1.70747
244 1 26.668 15.8619 -0.120257 26.668 15.8619 -0.120257
245 2 28.6446 15.863 1.46501 28.6446 15.863 1.46501
246 2 28.6336 15.8597 -1.71916 28.6336 15.8597 -1.71916
247 1 29.5181 13.8423 -0.128187 29.5181 13.8423 -0.128187
248 2 31.4986 13.8411 1.4522 31.4986 13.8411 1.4522
249 2 31.4798 13.8422 -1.73183 31.4798 13.8422 -1.73183
250 1 32.3687 15.8603 -0.144441 32.3687 15.8603 -0.144441
251 2 34.3497 15.858 1.43522 34.3497 15.858 1.43522
252 2 34.3298 15.8613 -1.74883 34.3298 15.8613 -1.74883
253 1 35.2184 13.8403 -0.164603 35.2184 13.8403 -0.164603
254 2 37.2016 13.8352 1.41241 37.2016 13.8352 1.41241
255 2 37.1773 13.8443 -1.77156 37.1773 13.8443 -1.77156
256 1 38.0688 15.8586 -0.180705 38.0688 15.8586 -0.180705
257 2 40.0497 15.853 1.39908 40.0497 15.853 1.39908
258 2 40.0298 15.8638 -1.78489 40.0298 15.8638 -1.78489
259 1 40.9183 13.839 -0.204998 40.9183 13.839 -0.204998
260 2 42.8963 13.8341 1.37817 42.8963 13.8341 1.37817
261 2 42.8821 13.8439 -1.8058 42.8821 13.8439 -1.8058
262 1 43.768 15.8585 -0.211443 43.768 15.8585 -0.211443
263 2 45.7432 15.8536 1.37515 45.7432 15.8536 1.37515
264 2 45.7346 15.864 -1.80882 45.7346 15.864 -1.80882
265 1 46.6173 13.8393 -0.225614 46.6173 13.8393 -0.225614
266 2 48.5888 13.8362 1.36554 48.5888 13.8362 1.36554
267 2 48.5875 13.8434 -1.81843 48.5875 13.8434 -1.81843
268 1 49.4664 15.8598 -0.221995 49.4664 15.8598 -0.221995
269 2 51.4343 15.8571 1.37347 51.4343 15.8571 1.37347
270 2 51.44 15.8639 -1.81048 51.44 15.8639 -1.81048
271 1 1.02321 17.8809 -0.212322 1.02321 17.8809 -0.212322
272 2 2.98868 17.8784 1.38602 2.98868 17.8784 1.38602
273 2 2.99905 17.8849 -1.79791 2.99905 17.8849 -1.79791
274 1 3.87144 19.9021 -0.198679 3.87144 19.9021 -0.198679
275 2 5.83525 19.8999 1.40164 5.83525 19.8999 1.40164
276 2 5.84894 19.9052 -1.78231 5.84894 19.9052 -1.78231
277 1 6.7206 17.8827 -0.189892 6.7206 17.8827 -0.189892
278 2 8.6832 17.8826 1.41204 8.6832 17.8826 1.41204
279 2 8.69927 17.8836 -1.77197 8.69927 17.8836 -1.77197
280 1 9.56923 19.9028 -0.174726 9.56923 19.9028 -0.174726
281 2 11.5332 19.9038 1.42565 11.5332 19.9038 1.42565
282 2 11.5467 19.9017 -1.75841 11.5467 19.9017 -1.75841
283 1 12.4187 17.8832 -0.161326 12.4187 17.8832 -0.161326
284 2 14.3813 17.8868 1.44061 14.3813 17.8868 1.44061
285 2 14.3974 17.8794 -1.74346 14.3974 17.8794 -1.74346
286 1 15.268 19.9021 -0.151495 15.268 19.9021 -0.151495
287 2 17.2329 19.9062 1.44775 17.2329 19.9062 1.44775
288 2 17.2447 19.8974 -1.73638 17.2447 19.8974 -1.73638
289 1 18.1177 17.8824 -0.135611 18.1177 17.8824 -0.135611
290 2 20.0848 17.887 1.46113 20.0848 17.887 1.46113
291 2 20.0922 17.8772 -1.7231 20.0922 17.8772 -1.7231
292 1 20.9676 19.9005 -0.135069 20.9676 19.9005 -0.135069
293 2 22.9365 19.9056 1.45943 22.9365 19.9056 1.45943
294 2 22.9404 19.8945 -1.72484 22.9404 19.8945 -1.72484
295 1 23.8178 17.8812 -0.124806 23.8178 17.8812 -0.124806
296 2 25.7892 17.8852 1.46673 25.7892 17.8852 1.46673
297 2 25.7883 17.8763 -1.71753 25.7883 17.8763 -1.71753
298 1 26.6681 19.8989 -0.131393 26.6681 19.8989 -0.131393
299 2 28.6415 19.9013 1.4577 28.6415 19.9013 1.4577
300 2 28.6368 19.8958 -1.72655 28.6368 19.8958 -1.72655
301 1 29.5186 17.8797 -0.13242 29.5186 17.8797 -0.13242
302 2 31.4965 17.8797 1.45106 31.4965 17.8797 1.45106
303 2 31.4827 17.8788 -1.73312 31.4827 17.8788 -1.73312
304 1 32.3689 19.8977 -0.145566 32.3689 19.8977 -0.145566
305 2 34.347 19.896 1.43763 34.347 19.896 1.43763
306 2 34.3328 19.8989 -1.74648 34.3328 19.8989 -1.74648
307 1 35.2191 17.8783 -0.160213 35.2191 17.8783 -0.160213
308 2 37.1989 17.8742 1.42084 37.1989 17.8742 1.42084
309 2 37.1813 17.8816 -1.76318 37.1813 17.8816 -1.76318
310 1 38.0689 19.897 -0.171533 38.0689 19.897 -0.171533
311 2 40.0472 19.8918 1.41125 40.0472 19.8918 1.41125
312 2 40.0324 19.9025 -1.77272 40.0324 19.9025 -1.77272
313 1 40.9186 17.8777 -0.19155 40.9186 17.8777 -0.19155
314 2 42.8967 17.8723 1.3915 42.8967 17.8723 1.3915
315 2 42.8822 17.8834 -1.79245 42.8822 17.8834 -1.79245
316 1 43.7678 19.8978 -0.197307 43.7678 19.8978 -0.197307
317 2 45.7429 19.8923 1.3893 45.7429 19.8923 1.3893
318 2 45.7343 19.9045 -1.79457 45.7343 19.9045 -1.79457
319 1 46.6172 17.8787 -0.212591 46.6172 17.8787 -0.212591
320 2 48.5892 17.8735 1.37783 48.5892 17.8735 1.37783
321 2 48.5867 17.8853 -1.80607 48.5867 17.8853 -1.80607
322 1 49.4657 19.8999 -0.207283 49.4657 19.8999 -0.207283
323 2 51.4351 19.8947 1.38624 51.4351 19.8947 1.38624
324 2 51.4376 19.9067 -1.79762 51.4376 19.9067 -1.79762
325 1 1.02223 21.9215 -0.197285 1.02223 21.9215 -0.197285
326 2 2.98962 21.9161 1.39875 2.98962 21.9161 1.39875
327 2 2.99626 21.9281 -1.78511 2.99626 21.9281 -1.78511
328 1 3.87071 23.9425 -0.183724 3.87071 23.9425 -0.183724
329 2 5.83805 23.9383 1.41252 5.83805 23.9383 1.41252
330 2 5.84487 23.9471 -1.77141 5.84487 23.9471 -1.77141
331 1 6.71995 21.9227 -0.183019 6.71995 21.9227 -0.183019
332 2 8.6846 21.9207 1.41639 8.6846 21.9207 1.41639
333 2 8.69677 21.9248 -1.76757 8.69677 21.9248 -1.76757
334 1 9.56901 23.9424 -0.16964 9.56901 23.9424 -0.16964
335 2 11.5359 23.9409 1.42735 11.5359 23.9409 1.42735
336 2 11.5438 23.9432 -1.75666 11.5438 23.9432 -1.75666
337 1 12.4184 21.9221 -0.163708 12.4184 21.9221 -0.163708
338 2 14.3837 21.9237 1.43505 14.3837 21.9237 1.43505
339 2 14.3947 21.9199 -1.74901 14.3947 21.9199 -1.74901
340 1 15.268 23.9409 -0.156164 15.268 23.9409 -0.156164
341 2 17.2354 23.943 1.44015 17.2354 23.943 1.44015
342 2 17.2424 23.9375 -1.74395 17.2424 23.9375 -1.74395
343 1 18.1177 21.9206 -0.146516 18.1177 21.9206 -0.146516
344 2 20.085 21.9239 1.4499 20.085 21.9239 1.4499
345 2 20.0922 21.9159 -1.73421 20.0922 21.9159 -1.73421
346 1 20.9678 23.9385 -0.145278 20.9678 23.9385 -0.145278
347 2 22.9377 23.9417 1.44805 22.9377 23.9417 1.44805
348 2 22.9398 23.934 -1.73606 22.9398 23.934 -1.73606
349 1 23.8178 21.9184 -0.13846 23.8178 21.9184 -0.13846
350 2 25.788 21.9226 1.45442 25.788 21.9226 1.45442
351 2 25.7895 21.9131 -1.72976 25.7895 21.9131 -1.72976
352 1 26.6679 23.9364 -0.143263 26.6679 23.9364 -0.143263
353 2 28.6395 23.9402 1.448 28.6395 23.9402 1.448
354 2 28.6384 23.932 -1.73611 28.6384 23.932 -1.73611
355 1 29.5184 21.9169 -0.139434 29.5184 21.9169 -0.139434
356 2 31.4936 21.9178 1.44748 31.4936 21.9178 1.44748
357 2 31.4853 21.9156 -1.73665 31.4853 21.9156 -1.73665
358 1 32.3684 23.9356 -0.148457 32.3684 23.9356 -0.148457
359 2 34.3438 23.9353 1.43823 34.3438 23.9353 1.43823
360 2 34.3351 23.9361 -1.74578 34.3351 23.9361 -1.74578
361 1 35.2188 21.9164 -0.156706 35.2188 21.9164 -0.156706
362 2 37.196 21.9136 1.42758 37.196 21.9136 1.42758
363 2 37.1836 21.9194 -1.75637 37.1836 21.9194 -1.75637
364 1 38.0683 23.9363 -0.164324 38.0683 23.9363 -0.164324
365 2 40.0444 23.9331 1.42133 40.0444 23.9331 1.42133
366 2 40.0342 23.9406 -1.7625 40.0342 23.9406 -1.7625
367 1 40.9182 21.917 -0.178272 40.9182 21.917 -0.178272
368 2 42.8955 21.9114 1.40579 42.8955 21.9114 1.40579
369 2 42.8827 21.9238 -1.778 42.8827 21.9238 -1.778
370 1 43.7669 23.9382 -0.181893 43.7669 23.9382 -0.181893
371 2 45.7416 23.9323 1.40529 45.7416 23.9323 1.40529
372 2 45.7339 23.9458 -1.77847 45.7339 23.9458 -1.77847
373 1 46.6163 21.919 -0.197166 46.6163 21.919 -0.197166
374 2 48.5882 21.9133 1.39338 48.5882 21.9133 1.39338
375 2 48.586 21.9264 -1.79041 48.586 21.9264 -1.79041
376 1 49.4646 23.9408 -0.190748 49.4646 23.9408 -0.190748
377 2 51.434 23.9344 1.40279 51.434 23.9344 1.40279
378 2 51.4367 23.9487 -1.78104 51.4367 23.9487 -1.78104
379 1 1.02152 25.9621 -0.179393 1.02152 25.9621 -0.179393
380 2 2.99024 25.9561 1.41509 2.99024 25.9561 1.41509
381 2 2.99426 25.9688 -1.76884 2.99426 25.9688 -1.76884
382 1 3.8706 27.9823 -0.167781 3.8706 27.9823 -0.167781
383 2 5.84011 27.9772 1.42586 5.84011 27.9772 1.42586
384 2 5.84259 27.9873 -1.75821 5.84259 27.9873 -1.75821
385 1 6.71974 25.9625 -0.171832 6.71974 25.9625 -0.171832
386 2 8.68757 25.9599 1.42386 8.68757 25.9599 1.42386
387 2 8.69342 25.9646 -1.7602 8.69342 25.9646 -1.7602
388 1 9.56937 27.9815 -0.163244 9.56937 27.9815 -0.163244
389 2 11.5374 27.979 1.43212 11.5374 27.979 1.43212
390 2 11.5429 27.9829 -1.75203 11.5429 27.9829 -1.75203
391 1 12.4186 25.9613 -0.160924 12.4186 25.9613 -0.160924
392 2 14.3868 25.9605 1.43442 14.3868 25.9605 1.43442
393 2 14.392 25.9606 -1.74971 14.392 25.9606 -1.74971
394 1 15.2686 27.9793 -0.15598 15.2686 27.9793 -0.15598
395 2 17.2385 27.9793 1.43732 17.2385 27.9793 1.43732
396 2 17.2405 27.9779 -1.74683 17.2405 27.9779 -1.74683
397 1 18.1181 25.959 -0.153192 18.1181 25.959 -0.153192
398 2 20.0869 25.9616 1.44136 20.0869 25.9616 1.44136
399 2 20.0911 25.9548 -1.74275 20.0911 25.9548 -1.74275
400 1 20.9682 27.977 -0.153699 20.9682 27.977 -0.153699
401 2 22.9384 27.9797 1.43911 22.9384 27.9797 1.43911
402 2 22.9398 27.9731 -1.74495 22.9398 27.9731 -1.74495
403 1 23.8179 25.9566 -0.148294 23.8179 25.9566 -0.148294
404 2 25.7888 25.9598 1.44382 25.7888 25.9598 1.44382
405 2 25.7889 25.9521 -1.74028 25.7889 25.9521 -1.74028
406 1 26.6679 27.975 -0.153069 26.6679 27.975 -0.153069
407 2 28.6395 27.9784 1.43816 28.6395 27.9784 1.43816
408 2 28.6382 27.9709 -1.74588 28.6382 27.9709 -1.74588
409 1 29.5179 25.955 -0.149506 29.5179 25.955 -0.149506
410 2 31.49 25.9573 1.44118 31.49 25.9573 1.44118
411 2 31.488 25.9524 -1.74288 31.488 25.9524 -1.74288
412 1 32.3677 27.9743 -0.154586 32.3677 27.9743 -0.154586
413 2 34.3399 27.9754 1.43597 34.3399 27.9754 1.43597
414 2 34.3376 27.9739 -1.74803 34.3376 27.9739 -1.74803
415 1 35.218 25.9552 -0.155821 35.218 25.9552 -0.155821
416 2 37.1927 25.9544 1.43158 37.1927 25.9544 1.43158
417 2 37.1853 25.9571 -1.75237 37.1853 25.9571 -1.75237
418 1 38.0672 27.9759 -0.160746 38.0672 27.9759 -0.160746
419 2 40.0407 27.9743 1.42798 40.0407 27.9743 1.42798
420 2 40.0354 27.9793 -1.75595 40.0354 27.9793 -1.75595
421 1 40.9172 25.9572 -0.168731 40.9172 25.9572 -0.168731
422 2 42.8918 25.9529 1.41861 42.8918 25.9529 1.41861
423 2 42.8844 25.9631 -1.76522 42.8844 25.9631 -1.76522
424 1 43.7658 27.9787 -0.168959 43.7658 27.9787 -0.168959
425 2 45.7384 27.9733 1.42081 45.7384 27.9733 1.42081
426 2 45.7349 27.9861 -1.76307 45.7349 27.9861 -1.76307
427 1 46.6154 25.96 -0.180151 46.6154 25.96 -0.180151
428 2 48.5873 25.9539 1.41039 48.5873 25.9539 1.41039
429 2 48.585 25.9676 -1.77344 48.585 25.9676 -1.77344
430 1 49.464 27.9814 -0.17341 49.464 27.9814 -0.17341
431 2 51.4334 27.9754 1.4202 51.4334 27.9754 1.4202
432 2 51.4361 27.9884 -1.76375 51.4361 27.9884 -1.76375
433 1 1.02143 30.0017 -0.162728 1.02143 30.0017 -0.162728
434 2 2.99096 29.9961 1.43084 2.99096 29.9961 1.43084
435 2 2.99337 30.0074 -1.75329 2.99337 30.0074 -1.75329
436 1 3.87109 32.0208 -0.153472 3.87109 32.0208 -0.153472
437 2 5.84168 32.0158 1.43891 5.84168 32.0158 1.43891
438 2 5.84202 32.0253 -1.74529 5.84202 32.0253 -1.74529
439 1 6.72029 30.0013 -0.159074 6.72029 30.0013 -0.159074
440 2 8.69066 29.9968 1.43362 8.69066 29.9968 1.43362
441 2 8.69146 30.0049 -1.75057 8.69146 30.0049 -1.75057
442 1 9.57027 32.0195 -0.153092 9.57027 32.0195 -0.153092
443 2 11.5411 32.0166 1.43903 11.5411 32.0166 1.43903
444 2 11.541 32.0211 -1.7452 11.541 32.0211 -1.7452
445 1 12.4194 29.9996 -0.155957 12.4194 29.9996 -0.155957
446 2 14.3893 29.9973 1.43734 14.3893 29.9973 1.43734
447 2 14.3912 30.0004 -1.74685 14.3912 30.0004 -1.74685
448 1 15.2696 32.0174 -0.1524 15.2696 32.0174 -0.1524
449 2 17.2415 32.016 1.43839 17.2415 32.016 1.43839
450 2 17.2393 32.0173 -1.7458 17.2393 32.0173 -1.7458
451 1 18.1188 29.9972 -0.154975 18.1188 29.9972 -0.154975
452 2 20.0902 29.9983 1.43639 20.0902 29.9983 1.43639
453 2 20.089 29.9948 -1.74776 20.089 29.9948 -1.74776
454 1 20.9689 32.0153 -0.158065 20.9689 32.0153 -0.158065
455 2 22.9411 32.0178 1.43232 22.9411 32.0178 1.43232
456 2 22.9384 32.0119 -1.75179 22.9384 32.0119 -1.75179
457 1 23.8183 29.9953 -0.156752 23.8183 29.9953 -0.156752
458 2 25.7897 29.9983 1.43465 25.7897 29.9983 1.43465
459 2 25.7887 29.9911 -1.74942 25.7887 29.9911 -1.74942
460 1 26.6682 32.0139 -0.162169 26.6682 32.0139 -0.162169
461 2 28.6391 32.0163 1.42974 28.6391 32.0163 1.42974
462 2 28.6391 32.011 -1.75424 28.6391 32.011 -1.75424
463 1 29.5178 29.9939 -0.158814 29.5178 29.9939 -0.158814
464 2 31.4883 29.9966 1.43371 31.4883 29.9966 1.43371
465 2 31.4893 29.991 -1.75028 31.4893 29.991 -1.75028
466 1 32.3673 32.0137 -0.161472 32.3673 32.0137 -0.161472
467 2 34.3369 32.0155 1.43193 34.3369 32.0155 1.43193
468 2 34.3394 32.0127 -1.75201 34.3394 32.0127 -1.75201
469 1 35.2171 29.9946 -0.157711 35.2171 29.9946 -0.157711
470 2 37.1891 29.9944 1.43294 37.1891 29.9944 1.43294
471 2 37.187 29.9962 -1.75102 37.187 29.9962 -1.75102
472 1 38.0661 32.0156 -0.158642 38.0661 32.0156 -0.158642
473 2 40.037 32.0137 1.43331 40.037 32.0137 1.43331
474 2 40.037 32.0194 -1.75063 40.037 32.0194 -1.75063
475 1 40.916 29.9972 -0.162224 40.916 29.9972 -0.162224
476 2 42.8875 29.9939 1.42884 42.8875 29.9939 1.42884
477 2 42.8862 30.0024 -1.7551 42.8862 30.0024 -1.7551
478 1 43.7649 32.0185 -0.158225 43.7649 32.0185 -0.158225
479 2 45.7353 32.0141 1.43434 45.7353 32.0141 1.43434
480 2 45.7362 32.0247 -1.74966 45.7362 32.0247 -1.74966
481 1 46.6146 30.0002 -0.164144 46.6146 30.0002 -0.164144
482 2 48.5856 29.9937 1.4276 48.5856 29.9937 1.4276
483 2 48.5851 30.008 -1.75638 48.5851 30.008 -1.75638
484 1 49.4637 32.0208 -0.155713 49.4637 32.0208 -0.155713
485 2 51.4342 32.0149 1.43684 51.4342 32.0149 1.43684
486 2 51.4348 32.027 -1.74726 51.4348 32.027 -1.74726
487 1 1.02185 34.0402 -0.147451 1.02185 34.0402 -0.147451
488 2 2.99282 34.0354 1.44455 2.99282 34.0354 1.44455
489 2 2.99254 34.0446 -1.73961 2.99254 34.0446 -1.73961
490 1 3.87209 36.0589 -0.141899 3.87209 36.0589 -0.141899
491 2 5.84378 36.0555 1.44925 5.84378 36.0555 1.44925
492 2 5.8421 36.0615 -1.73491 5.8421 36.0615 -1.73491
493 1 6.72114 34.0393 -0.147217 6.72114 34.0393 -0.147217
494 2 8.69264 34.0349 1.44406 8.69264 34.0349 1.44406
495 2 8.69113 34.0424 -1.74017 8.69113 34.0424 -1.74017
496 1 9.57139 36.0573 -0.143989 9.57139 36.0573 -0.143989
497 2 11.544 36.0542 1.446 11.544 36.0542 1.446
498 2 11.5403 36.0592 -1.73816 11.5403 36.0592 -1.73816
499 1 12.4205 34.0374 -0.150136 12.4205 34.0374 -0.150136
500 2 14.3916 34.0355 1.44149 14.3916 34.0355 1.44149
501 2 14.3909 34.038 -1.74269 14.3909 34.038 -1.74269
502 1 15.2706 36.0556 -0.149293 15.2706 36.0556 -0.149293
503 2 17.2437 36.0549 1.43997 17.2437 36.0549 1.43997
504 2 17.2391 36.0554 -1.74407 17.2391 36.0554 -1.74407
505 1 18.1197 34.0354 -0.153588 18.1197 34.0354 -0.153588
506 2 20.0934 34.0353 1.43492 20.0934 34.0353 1.43492
507 2 20.0876 34.0345 -1.74917 20.0876 34.0345 -1.74917
508 1 20.9693 36.0542 -0.159292 20.9693 36.0542 -0.159292
509 2 22.944 36.0553 1.42809 22.944 36.0553 1.42809
510 2 22.9364 36.0524 -1.75588 22.9364 36.0524 -1.75588
511 1 23.8187 34.034 -0.164002 23.8187 34.034 -0.164002
512 2 25.7906 34.0365 1.42672 25.7906 34.0365 1.42672
513 2 25.7886 34.0308 -1.75725 25.7886 34.0308 -1.75725
514 1 26.6682 36.0535 -0.16927 26.6682 36.0535 -0.16927
515 2 28.6387 36.0559 1.42303 28.6387 36.0559 1.42303
516 2 28.6394 36.0511 -1.76082 28.6394 36.0511 -1.76082
517 1 29.5177 34.0334 -0.16564 29.5177 34.0334 -0.16564
518 2 31.4877 34.0357 1.42732 31.4877 34.0357 1.42732
519 2 31.4894 34.0315 -1.75657 31.4894 34.0315 -1.75657
520 1 32.3667 36.054 -0.166765 32.3667 36.054 -0.166765
521 2 34.3354 36.0558 1.42785 34.3354 36.0558 1.42785
522 2 34.3398 36.0531 -1.75601 34.3398 36.0531 -1.75601
523 1 35.2163 34.0345 -0.16117 35.2163 34.0345 -0.16117
524 2 37.1853 34.0346 1.433 37.1853 34.0346 1.433
525 2 37.189 34.0357 -1.75093 37.189 34.0357 -1.75093
526 1 38.0654 36.0557 -0.157427 38.0654 36.0557 -0.157427
527 2 40.0338 36.0547 1.43759 40.0338 36.0547 1.43759
528 2 40.0388 36.058 -1.74636 40.0388 36.058 -1.74636
529 1 40.9151 34.037 -0.155201 40.9151 34.037 -0.155201
530 2 42.8853 34.0345 1.43764 42.8853 34.0345 1.43764
531 2 42.8866 34.0411 -1.74634 42.8866 34.0411 -1.74634
532 1 43.7644 36.058 -0.149895 43.7644 36.058 -0.149895
533 2 45.7336 36.0554 1.4443 45.7336 36.0554 1.4443
534 2 45.737 36.0616 -1.73978 45.737 36.0616 -1.73978
535 1 46.6142 34.0395 -0.150903 46.6142 34.0395 -0.150903
536 2 48.5839 34.0346 1.44252 48.5839 34.0346 1.44252
537 2 48.5861 34.0452 -1.74157 48.5861 34.0452 -1.74157