ITEM: TIMESTEP
1789000
ITEM: NUMBER OF ATOMS
810
ITEM: BOX BOUNDS pp pp pp
8.6298438867990135e-01 5.2154620611319167e+01
-3.6038392289596599e+00 5.4620054228959233e+01
-1.0000000000000000e+01 1.0000000000000000e+01
ITEM: ATOMS id type x y z xu yu zu
1 1 1.0299 -1.67546 -0.149039 1.0299 -1.67546 -0.149039
2 2 2.97968 -1.68072 1.46138 2.97968 -1.68072 1.46138
3 2 2.99426 -1.66972 -1.74148 2.99426 -1.66972 -1.74148
4 1 3.87939 0.265736 -0.129488 3.87939 0.265736 -0.129488
5 2 5.83356 0.26351 1.47559 5.83356 0.26351 1.47559
6 2 5.83932 0.269029 -1.7273 5.83932 0.269029 -1.7273
7 1 6.72912 -1.67431 -0.127801 6.72912 -1.67431 -0.127801
8 2 8.68536 -1.67646 1.47485 8.68536 -1.67646 1.47485
9 2 8.6871 -1.67114 -1.72803 8.6871 -1.67114 -1.72803
10 1 9.57846 0.267362 -0.122964 9.57846 0.267362 -0.122964
11 2 11.5375 0.267713 1.47616 11.5375 0.267713 1.47616
12 2 11.5336 0.268339 -1.72672 11.5336 0.268339 -1.72672
13 1 12.4284 -1.67255 -0.126909 12.4284 -1.67255 -0.126909
14 2 14.3885 -1.67233 1.47091 14.3885 -1.67233 1.47091
15 2 14.3824 -1.67162 -1.73195 14.3824 -1.67162 -1.73195
16 1 15.2776 0.269202 -0.131898 15.2776 0.269202 -0.131898
17 2 17.24 0.271653 1.46325 17.24 0.271653 1.46325
18 2 17.2295 0.267933 -1.73961 17.2295 0.267933 -1.73961
19 1 18.1276 -1.67082 -0.13892 18.1276 -1.67082 -0.13892
20 2 20.0895 -1.66766 1.45671 20.0895 -1.66766 1.45671
21 2 20.0799 -1.67318 -1.74614 20.0799 -1.67318 -1.74614
22 1 20.9769 0.270584 -0.150754 20.9769 0.270584 -0.150754
23 2 22.94 0.275247 1.44335 22.94 0.275247 1.44335
24 2 22.9279 0.266446 -1.75952 22.9279 0.266446 -1.75952
25 1 23.8267 -1.66987 -0.156168 23.8267 -1.66987 -0.156168
26 2 25.7897 -1.66458 1.43787 25.7897 -1.66458 1.43787
27 2 25.7777 -1.6752 -1.76498 25.7777 -1.6752 -1.76498
28 1 26.6761 0.270768 -0.17334 26.6761 0.270768 -0.17334
29 2 28.6407 0.275641 1.41876 28.6407 0.275641 1.41876
30 2 28.6255 0.26538 -1.78413 28.6255 0.26538 -1.78413
31 1 29.5256 -1.67032 -0.180709 29.5256 -1.67032 -0.180709
32 2 31.4915 -1.66585 1.40983 31.4915 -1.66585 1.40983
33 2 31.4737 -1.67589 -1.79304 31.4737 -1.67589 -1.79304
34 1 32.3752 0.269433 -0.202562 32.3752 0.269433 -0.202562
35 2 34.3393 0.271676 1.39012 34.3393 0.271676 1.39012
36 2 34.325 0.265829 -1.81281 34.325 0.265829 -1.81281
37 1 35.2244 -1.67213 -0.211685 35.2244 -1.67213 -0.211685
38 2 37.1867 -1.67202 1.38332 37.1867 -1.67202 1.38332
39 2 37.1761 -1.67383 -1.81962 37.1761 -1.67383 -1.81962
40 1 38.0742 0.267241 -0.222106 38.0742 0.267241 -0.222106
41 2 40.0287 0.264218 1.38239 40.0287 0.264218 1.38239
42 2 40.0336 0.268885 -1.82059 40.0336 0.268885 -1.82059
43 1 40.9233 -1.67421 -0.220342 40.9233 -1.67421 -0.220342
44 2 42.874 -1.67975 1.3889 42.874 -1.67975 1.3889
45 2 42.8867 -1.6699 -1.81403 42.8867 -1.6699 -1.81403
46 1 43.7731 0.265456 -0.203112 43.7731 0.265456 -0.203112
47 2 45.7187 0.259342 1.41227 45.7187 0.259342 1.41227
48 2 45.7415 0.270936 -1.79059 45.7415 0.270936 -1.79059
49 1 46.6224 -1.67547 -0.189801 46.6224 -1.67547 -0.189801
50 2 48.5675 -1.68262 1.42613 48.5675 -1.68262 1.42613
51 2 48.5913 -1.6687 -1.77669 48.5913 -1.6687 -1.77669
52 1 49.472 0.264925 -0.160398 49.472 0.264925 -0.160398
53 2 51.419 0.259829 1.45336 51.419 0.259829 1.45336
54 2 51.4391 0.270382 -1.74949 51.4391 0.270382 -1.74949
55 1 1.02985 2.20596 -0.136228 1.02985 2.20596 -0.136228
56 2 2.98106 2.20352 1.47238 2.98106 2.20352 1.47238
57 2 2.99266 2.20923 -1.73049 2.99266 2.20923 -1.73049
58 1 3.87913 4.14754 -0.122498 3.87913 4.14754 -0.122498
59 2 5.83483 4.14746 1.48062 5.83483 4.14746 1.48062
60 2 5.83743 4.1487 -1.72226 5.83743 4.1487 -1.72226
61 1 6.72869 2.2074 -0.121007 6.72869 2.2074 -0.121007
62 2 8.68654 2.20761 1.47954 8.68654 2.20761 1.47954
63 2 8.68493 2.20839 -1.72333 8.68493 2.20839 -1.72333
64 1 9.57791 4.14925 -0.121954 9.57791 4.14925 -0.121954
65 2 11.5384 4.15159 1.47528 11.5384 4.15159 1.47528
66 2 11.5314 4.14803 -1.72758 11.5314 4.14803 -1.72758
67 1 12.4277 2.20919 -0.126092 12.4277 2.20919 -0.126092
68 2 14.3893 2.21163 1.46994 14.3893 2.21163 1.46994
69 2 14.3803 2.20794 -1.73291 14.3803 2.20794 -1.73291
70 1 15.277 4.15089 -0.136276 15.277 4.15089 -0.136276
71 2 17.2403 4.15462 1.4576 17.2403 4.15462 1.4576
72 2 17.2278 4.14804 -1.74525 17.2278 4.14804 -1.74525
73 1 18.1269 2.2108 -0.143416 18.1269 2.2108 -0.143416
74 2 20.0907 2.21484 1.45 20.0907 2.21484 1.45
75 2 20.0774 2.20752 -1.75285 20.0774 2.20752 -1.75285
76 1 20.9764 4.15197 -0.159495 20.9764 4.15197 -0.159495
77 2 22.9403 4.15602 1.43367 22.9403 4.15602 1.43367
78 2 22.9267 4.1481 -1.76921 22.9267 4.1481 -1.76921
79 1 23.8263 2.21152 -0.166756 23.8263 2.21152 -0.166756
80 2 25.7902 2.21607 1.42632 25.7902 2.21607 1.42632
81 2 25.7766 2.20684 -1.77655 25.7766 2.20684 -1.77655
82 1 26.676 4.15184 -0.18441 26.676 4.15184 -0.18441
83 2 28.64 4.15431 1.40861 28.64 4.15431 1.40861
84 2 28.6263 4.14859 -1.7943 28.6263 4.14859 -1.7943
85 1 29.5257 2.2108 -0.193064 29.5257 2.2108 -0.193064
86 2 31.4902 2.21339 1.39913 31.4902 2.21339 1.39913
87 2 31.4753 2.20708 -1.80377 31.4753 2.20708 -1.80377
88 1 32.3755 4.15036 -0.210157 32.3755 4.15036 -0.210157
89 2 34.3372 4.14919 1.38557 34.3372 4.14919 1.38557
90 2 34.328 4.15004 -1.81738 34.328 4.15004 -1.81738
91 1 35.2249 2.20884 -0.218679 35.2249 2.20884 -0.218679
92 2 37.1834 2.20732 1.38087 37.1834 2.20732 1.38087
93 2 37.1805 2.20881 -1.82209 37.1805 2.20881 -1.82209
94 1 38.0748 4.14821 -0.220358 38.0748 4.14821 -0.220358
95 2 40.0262 4.14378 1.38783 40.0262 4.14378 1.38783
96 2 40.0374 4.15121 -1.8151 40.0374 4.15121 -1.8151
97 1 40.924 2.20672 -0.214799 40.924 2.20672 -0.214799
98 2 42.8714 2.20178 1.39825 42.8714 2.20178 1.39825
99 2 42.8905 2.21056 -1.80464 42.8905 2.21056 -1.80464
100 1 43.7736 4.14658 -0.192549 43.7736 4.14658 -0.192549
101 2 45.7181 4.14186 1.42404 45.7181 4.14186 1.42404
102 2 45.743 4.15072 -1.77879 45.743 4.15072 -1.77879
103 1 46.6227 2.2056 -0.175869 46.6227 2.2056 -0.175869
104 2 48.5676 2.20063 1.44036 48.5676 2.20063 1.44036
105 2 48.5918 2.21047 -1.76247 48.5918 2.21047 -1.76247
106 1 49.4722 4.14638 -0.148497 49.4722 4.14638 -0.148497
107 2 51.4201 4.14371 1.46394 51.4201 4.14371 1.46394
108 2 51.4381 4.14955 -1.73892 51.4381 4.14955 -1.73892
109 1 1.02978 6.08781 -0.129114 1.02978 6.08781 -0.129114
110 2 2.98258 6.08775 1.4775 2.98258 6.08775 1.4775
111 2 2.99094 6.08894 -1.72536 2.99094 6.08894 -1.72536
112 1 3.87902 8.02972 -0.121049 3.87902 8.02972 -0.121049
113 2 5.83643 8.03222 1.47998 5.83643 8.03222 1.47998
114 2 5.83556 8.02828 -1.72289 5.83556 8.02828 -1.72289
115 1 6.72834 6.08941 -0.119493 6.72834 6.08941 -0.119493
116 2 8.68777 6.09154 1.47909 8.68777 6.09154 1.47909
117 2 8.68294 6.08851 -1.72376 8.68294 6.08851 -1.72376
118 1 9.57765 8.03133 -0.125663 9.57765 8.03133 -0.125663
119 2 11.5396 8.03509 1.46991 11.5396 8.03509 1.46991
120 2 11.5298 8.02847 -1.73293 11.5298 8.02847 -1.73293
121 1 12.4272 6.09103 -0.130316 12.4272 6.09103 -0.130316
122 2 14.3897 6.09462 1.46452 14.3897 6.09462 1.46452
123 2 14.3788 6.08846 -1.73832 14.3788 6.08846 -1.73832
124 1 15.2767 8.03256 -0.14371 15.2767 8.03256 -0.14371
125 2 17.2401 8.03573 1.4501 17.2401 8.03573 1.4501
126 2 17.2275 8.02989 -1.75276 17.2275 8.02989 -1.75276
127 1 18.1265 6.09224 -0.151248 18.1265 6.09224 -0.151248
128 2 20.0904 6.09567 1.44187 20.0904 6.09567 1.44187
129 2 20.0768 6.08936 -1.76098 20.0768 6.08936 -1.76098
130 1 20.9763 8.03312 -0.167095 20.9763 8.03312 -0.167095
131 2 22.9397 8.03466 1.42666 22.9397 8.03466 1.42666
132 2 22.9272 8.03147 -1.77623 22.9272 8.03147 -1.77623
133 1 23.8262 6.09257 -0.176191 23.8262 6.09257 -0.176191
134 2 25.7896 6.09486 1.41749 25.7896 6.09486 1.41749
135 2 25.777 6.09001 -1.78539 25.777 6.09001 -1.78539
136 1 26.6762 8.03269 -0.190223 26.6762 8.03269 -0.190223
137 2 28.6385 8.03172 1.40481 28.6385 8.03172 1.40481
138 2 28.6282 8.03282 -1.79811 28.6282 8.03282 -1.79811
139 1 29.526 6.09165 -0.199973 29.526 6.09165 -0.199973
140 2 31.4886 6.09072 1.3946 31.4886 6.09072 1.3946
141 2 31.4776 6.0915 -1.80831 31.4776 6.0915 -1.80831
142 1 32.376 8.03125 -0.209324 32.376 8.03125 -0.209324
143 2 34.3354 8.02673 1.38929 34.3354 8.02673 1.38929
144 2 34.3309 8.03444 -1.81364 34.3309 8.03444 -1.81364
145 1 35.2255 6.08977 -0.217786 35.2255 6.08977 -0.217786
146 2 37.1815 6.08534 1.38478 37.1815 6.08534 1.38478
147 2 37.1836 6.09283 -1.81814 37.1836 6.09283 -1.81814
148 1 38.0754 8.0294 -0.211455 38.0754 8.0294 -0.211455
149 2 40.0258 8.02359 1.39798 40.0258 8.02359 1.39798
150 2 40.039 8.03402 -1.8049 40.039 8.03402 -1.8049
151 1 40.9245 6.08788 -0.205926 40.9245 6.08788 -0.205926
152 2 42.8709 6.08305 1.4083 42.8709 6.08305 1.4083
153 2 42.892 6.09186 -1.79454 42.892 6.09186 -1.79454
154 1 43.7741 8.02817 -0.181853 43.7741 8.02817 -0.181853
155 2 45.7191 8.02454 1.43397 45.7191 8.02454 1.43397
156 2 45.7428 8.03147 -1.76885 45.7428 8.03147 -1.76885
157 1 46.623 6.08708 -0.165139 46.623 6.08708 -0.165139
158 2 48.5686 6.08438 1.45017 48.5686 6.08438 1.45017
159 2 48.5913 6.09002 -1.75264 48.5913 6.09002 -1.75264
160 1 49.4723 8.02834 -0.141564 49.4723 8.02834 -0.141564
161 2 51.4218 8.02819 1.46898 51.4218 8.02819 1.46898
162 2 51.4367 8.02916 -1.73387 51.4367 8.02916 -1.73387
163 1 1.02994 9.97006 -0.127817 1.02994 9.97006 -0.127817
164 2 2.9845 9.97285 1.47658 2.9845 9.97285 1.47658
165 2 2.98925 9.96838 -1.72628 2.98925 9.96838 -1.72628
166 1 3.87918 11.912 -0.126289 3.87918 11.912 -0.126289
167 2 5.8379 11.9169 1.4731 5.8379 11.9169 1.4731
168 2 5.83443 11.9081 -1.72975 5.83443 11.9081 -1.72975
169 1 6.72834 9.97164 -0.124187 6.72834 9.97164 -0.124187
170 2 8.68899 9.97632 1.47292 8.68899 9.97632 1.47292
171 2 8.68168 9.96803 -1.72992 8.68168 9.96803 -1.72992
172 1 9.57777 11.9134 -0.135527 9.57777 11.9134 -0.135527
173 2 11.5395 11.9183 1.46026 11.5395 11.9183 1.46026
174 2 11.5302 11.9091 -1.74257 11.5302 11.9091 -1.74257
175 1 12.4271 9.97293 -0.138294 12.4271 9.97293 -0.138294
176 2 14.3899 9.97697 1.45636 14.3899 9.97697 1.45636
177 2 14.3786 9.96955 -1.74648 14.3786 9.96955 -1.74648
178 1 15.2769 11.9141 -0.152651 15.2769 11.9141 -0.152651
179 2 17.2391 11.9168 1.44265 17.2391 11.9168 1.44265
180 2 17.229 11.9115 -1.76022 17.229 11.9115 -1.76022
181 1 18.1265 9.97356 -0.158377 18.1265 9.97356 -0.158377
182 2 20.0897 9.97519 1.4357 20.0897 9.97519 1.4357
183 2 20.0776 9.97209 -1.76718 20.0776 9.97209 -1.76718
184 1 20.9766 11.9141 -0.17094 20.9766 11.9141 -0.17094
185 2 22.9384 11.9129 1.42489 22.9384 11.9129 1.42489
186 2 22.9292 11.9149 -1.77801 22.9292 11.9149 -1.77801
187 1 23.8264 9.97342 -0.180104 23.8264 9.97342 -0.180104
188 2 25.7887 9.97213 1.41512 25.7887 9.97213 1.41512
189 2 25.7786 9.9743 -1.78778 25.7786 9.9743 -1.78778
190 1 26.6767 11.9134 -0.187706 26.6767 11.9134 -0.187706
191 2 28.6374 11.9089 1.4094 28.6374 11.9089 1.4094
192 2 28.6304 11.9171 -1.7935 28.6304 11.9171 -1.7935
193 1 29.5264 9.97243 -0.198719 29.5264 9.97243 -0.198719
194 2 31.487 9.96809 1.39847 31.487 9.96809 1.39847
195 2 31.4802 9.97584 -1.80444 31.4802 9.97584 -1.80444
196 1 32.3766 11.9121 -0.200067 32.3766 11.9121 -0.200067
197 2 34.3344 11.9054 1.40047 34.3344 11.9054 1.40047
198 2 34.3331 11.9178 -1.80242 34.3331 11.9178 -1.80242
199 1 35.2261 9.97084 -0.208645 35.2261 9.97084 -0.208645
200 2 37.1808 9.96445 1.39558 37.1808 9.96445 1.39558
201 2 37.1856 9.97618 -1.80731 37.1856 9.97618 -1.80731
202 1 38.076 11.9108 -0.197398 38.076 11.9108 -0.197398
203 2 40.0269 11.9047 1.41145 40.0269 11.9047 1.41145
204 2 40.0391 11.9161 -1.79141 40.0391 11.9161 -1.79141
205 1 40.9251 9.96942 -0.193406 40.9251 9.96942 -0.193406
206 2 42.8723 9.96433 1.41994 42.8723 9.96433 1.41994
207 2 42.8919 9.97401 -1.78289 42.8919 9.97401 -1.78289
208 1 43.7745 11.9101 -0.1702 43.7745 11.9101 -0.1702
209 2 45.7219 11.9073 1.44289 45.7219 11.9073 1.44289
210 2 45.741 11.9129 -1.75994 45.741 11.9129 -1.75994
211 1 46.6234 9.96907 -0.156667 46.6234 9.96907 -0.156667
212 2 48.5708 9.96791 1.45639 48.5708 9.96791 1.45639
213 2 48.5899 9.9707 -1.74644 48.5899 9.9707 -1.74644
214 1 49.4726 11.9106 -0.138112 49.4726 11.9106 -0.138112
215 2 51.4246 11.9124 1.46936 51.4246 11.9124 1.46936
216 2 51.4345 11.9096 -1.7335 51.4345 11.9096 -1.7335
217 1 1.03015 13.8524 -0.131132 1.03015 13.8524 -0.131132
218 2 2.98687 13.8567 1.47064 2.98687 13.8567 1.47064
219 2 2.98729 13.8492 -1.73224 2.98729 13.8492 -1.73224
220 1 3.87941 15.7943 -0.135212 3.87941 15.7943 -0.135212
221 2 5.83892 15.799 1.46316 5.83892 15.799 1.46316
222 2 5.83386 15.7905 -1.73968 5.83386 15.7905 -1.73968
223 1 6.72852 13.8538 -0.13453 6.72852 13.8538 -0.13453
224 2 8.68924 13.8589 1.46239 8.68924 13.8589 1.46239
225 2 8.68181 13.8496 -1.74046 8.68181 13.8496 -1.74046
226 1 9.57807 15.7954 -0.146595 9.57807 15.7954 -0.146595
227 2 11.5389 15.799 1.45015 11.5389 15.799 1.45015
228 2 11.5313 15.7922 -1.75268 11.5313 15.7922 -1.75268
229 1 12.4274 13.8547 -0.149167 12.4274 13.8547 -0.149167
230 2 14.3887 13.8582 1.44705 14.3887 13.8582 1.44705
231 2 14.3802 13.8515 -1.75582 14.3802 13.8515 -1.75582
232 1 15.2773 15.7956 -0.160683 15.2773 15.7956 -0.160683
233 2 17.2373 15.7963 1.43721 17.2373 15.7963 1.43721
234 2 17.2316 15.7946 -1.76565 17.2316 15.7946 -1.76565
235 1 18.1269 13.8548 -0.164674 18.1269 13.8548 -0.164674
236 2 20.0876 13.8546 1.4324 20.0876 13.8546 1.4324
237 2 20.0805 13.8547 -1.77051 20.0805 13.8547 -1.77051
238 1 20.977 15.795 -0.170881 20.977 15.795 -0.170881
239 2 22.9358 15.7912 1.42857 22.9358 15.7912 1.42857
240 2 22.9327 15.7983 -1.77432 22.9327 15.7983 -1.77432
241 1 23.8268 13.8542 -0.177842 23.8268 13.8542 -0.177842
242 2 25.7868 13.8497 1.42015 25.7868 13.8497 1.42015
243 2 25.7813 13.8581 -1.78277 25.7813 13.8581 -1.78277
244 1 26.677 15.7941 -0.177743 26.677 15.7941 -0.177743
245 2 28.6359 15.787 1.42152 28.6359 15.787 1.42152
246 2 28.6325 15.8005 -1.78135 28.6325 15.8005 -1.78135
247 1 29.5269 13.8532 -0.188913 29.5269 13.8532 -0.188913
248 2 31.4859 13.8462 1.41017 31.4859 13.8462 1.41017
249 2 31.4822 13.8593 -1.79273 31.4822 13.8593 -1.79273
250 1 32.3769 15.7931 -0.184332 32.3769 15.7931 -0.184332
251 2 34.3343 15.7854 1.41667 34.3343 15.7854 1.41667
252 2 34.3338 15.8001 -1.78619 34.3338 15.8001 -1.78619
253 1 35.2265 13.852 -0.193755 35.2265 13.852 -0.193755
254 2 37.1813 13.8452 1.41045 37.1813 13.8452 1.41045
255 2 37.1859 13.858 -1.79244 37.1859 13.858 -1.79244
256 1 38.0762 15.7923 -0.181938 38.0762 15.7923 -0.181938
257 2 40.0288 15.7875 1.42488 40.0288 15.7875 1.42488
258 2 40.0376 15.7967 -1.77797 40.0376 15.7967 -1.77797
259 1 40.9255 13.8512 -0.179691 40.9255 13.8512 -0.179691
260 2 42.8746 13.8475 1.4313 42.8746 13.8475 1.4313
261 2 42.8902 13.8546 -1.77156 42.8902 13.8546 -1.77156
262 1 43.7747 15.7922 -0.161522 43.7747 15.7922 -0.161522
263 2 45.7248 15.7919 1.44833 45.7248 15.7919 1.44833
264 2 45.7385 15.7927 -1.75451 45.7385 15.7927 -1.75451
265 1 46.6237 13.8513 -0.149957 46.6237 13.8513 -0.149957
266 2 48.5741 13.8519 1.45953 48.5741 13.8519 1.45953
267 2 48.5871 13.8513 -1.74333 48.5871 13.8513 -1.74333
268 1 49.4728 15.793 -0.138711 49.4728 15.793 -0.138711
269 2 51.4275 15.7964 1.46559 51.4275 15.7964 1.46559
270 2 51.432 15.7904 -1.73726 51.432 15.7904 -1.73726
271 1 1.03045 17.7349 -0.138242 1.03045 17.7349 -0.138242
272 2 2.98842 17.7393 1.46203 2.98842 17.7393 1.46203
273 2 2.9864 17.7314 -1.74082 2.9864 17.7314 -1.74082
274 1 3.87986 19.6767 -0.144765 3.87986 19.6767 -0.144765
275 2 5.83934 19.6805 1.45375 5.83934 19.6805 1.45375
276 2 5.83444 19.6736 -1.7491 5.83444 19.6736 -1.7491
277 1 6.72892 17.7361 -0.144766 6.72892 17.7361 -0.144766
278 2 8.68922 17.7395 1.45269 8.68922 17.7395 1.45269
279 2 8.6827 17.7331 -1.75016 8.6827 17.7331 -1.75016
280 1 9.57867 19.6774 -0.154337 9.57867 19.6774 -0.154337
281 2 11.5384 19.6786 1.44392 11.5384 19.6786 1.44392
282 2 11.5332 19.6763 -1.75894 11.5332 19.6763 -1.75894
283 1 12.4279 17.7365 -0.157389 12.4279 17.7365 -0.157389
284 2 14.3876 17.7374 1.44082 14.3876 17.7374 1.44082
285 2 14.3824 17.7355 -1.76204 14.3824 17.7355 -1.76204
286 1 15.278 19.6772 -0.163126 15.278 19.6772 -0.163126
287 2 17.2357 19.6746 1.43764 17.2357 19.6746 1.43764
288 2 17.2346 19.6792 -1.76523 17.2346 19.6792 -1.76523
289 1 18.1274 17.736 -0.166642 18.1274 17.736 -0.166642
290 2 20.0852 17.7331 1.43396 20.0852 17.7331 1.43396
291 2 20.084 17.7385 -1.76892 20.084 17.7385 -1.76892
292 1 20.9776 19.6762 -0.16444 20.9776 19.6762 -0.16444
293 2 22.9338 19.6702 1.43814 22.9338 19.6702 1.43814
294 2 22.9358 19.6815 -1.76473 22.9358 19.6815 -1.76473
295 1 23.8273 17.7351 -0.169409 23.8273 17.7351 -0.169409
296 2 25.7849 17.7285 1.43137 25.7849 17.7285 1.43137
297 2 25.784 17.741 -1.7715 25.784 17.741 -1.7715
298 1 26.6774 19.6751 -0.162781 26.6774 19.6751 -0.162781
299 2 28.6351 19.6675 1.43789 28.6351 19.6675 1.43789
300 2 28.634 19.6821 -1.76497 28.634 19.6821 -1.76497
301 1 29.5271 17.7341 -0.172676 29.5271 17.7341 -0.172676
302 2 31.4856 17.7259 1.42717 31.4856 17.7259 1.42717
303 2 31.4831 17.7416 -1.77569 31.4831 17.7416 -1.77569
304 1 32.377 19.6743 -0.165622 32.377 19.6743 -0.165622
305 2 34.3356 19.6677 1.43405 34.3356 19.6677 1.43405
306 2 34.3327 19.6805 -1.76881 34.3327 19.6805 -1.76881
307 1 35.2267 17.7333 -0.176032 35.2267 17.7333 -0.176032
308 2 37.1831 17.7273 1.42622 37.1831 17.7273 1.42622
309 2 37.1845 17.739 -1.77664 37.1845 17.739 -1.77664
310 1 38.0763 19.674 -0.167854 38.0763 19.674 -0.167854
311 2 40.0322 19.6718 1.43508 40.0322 19.6718 1.43508
312 2 40.0345 19.6763 -1.76779 40.0345 19.6763 -1.76779
313 1 40.9256 17.7331 -0.168589 40.9256 17.7331 -0.168589
314 2 42.8778 17.7321 1.43878 42.8778 17.7321 1.43878
315 2 42.8874 17.7343 -1.76408 42.8874 17.7343 -1.76408
316 1 43.7749 19.6744 -0.158704 43.7749 19.6744 -0.158704
317 2 45.7281 19.6774 1.4474 45.7281 19.6774 1.4474
318 2 45.7356 19.672 -1.75544 45.7356 19.672 -1.75544
319 1 46.6239 17.7337 -0.148923 46.6239 17.7337 -0.148923
320 2 48.5769 17.7368 1.45744 48.5769 17.7368 1.45744
321 2 48.5848 17.7313 -1.74541 48.5848 17.7313 -1.74541
322 1 49.4731 19.6755 -0.145196 49.4731 19.6755 -0.145196
323 2 51.4291 19.6803 1.4575 51.4291 19.6803 1.4575
324 2 51.431 19.6716 -1.74535 51.431 19.6716 -1.74535
325 1 1.03078 21.6173 -0.148744 1.03078 21.6173 -0.148744
326 2 2.98872 21.6223 1.45166 2.98872 21.6223 1.45166
327 2 2.98689 21.6132 -1.75117 2.98689 21.6132 -1.75117
328 1 3.88023 23.559 -0.155776 3.88023 23.559 -0.155776
329 2 5.83831 23.5627 1.44448 5.83831 23.5627 1.44448
330 2 5.83628 23.5557 -1.75837 5.83628 23.5557 -1.75837
331 1 6.72946 21.6182 -0.153227 6.72946 21.6182 -0.153227
332 2 8.68875 21.6205 1.4456 8.68875 21.6205 1.4456
333 2 8.68437 21.6163 -1.75724 8.68437 21.6163 -1.75724
334 1 9.57927 23.5594 -0.159529 9.57927 23.5594 -0.159529
335 2 11.5368 23.5591 1.4414 11.5368 23.5591 1.4414
336 2 11.536 23.5594 -1.76147 11.536 23.5594 -1.76147
337 1 12.4286 21.6183 -0.160286 12.4286 21.6183 -0.160286
338 2 14.3865 21.6166 1.4403 14.3865 21.6166 1.4403
339 2 14.3851 21.6196 -1.76255 14.3851 21.6196 -1.76255
340 1 15.2786 23.5588 -0.159626 15.2786 23.5588 -0.159626
341 2 17.2341 23.5545 1.44394 17.2341 23.5545 1.44394
342 2 17.2376 23.5625 -1.75892 17.2376 23.5625 -1.75892
343 1 18.1281 21.6175 -0.161199 18.1281 21.6175 -0.161199
344 2 20.0836 21.6119 1.44219 20.0836 21.6119 1.44219
345 2 20.0869 21.6223 -1.76066 20.0869 21.6223 -1.76066
346 1 20.9781 23.5577 -0.152028 20.9781 23.5577 -0.152028
347 2 22.9331 23.5508 1.45207 22.9331 23.5508 1.45207
348 2 22.9375 23.5637 -1.75078 22.9375 23.5637 -1.75078
349 1 23.8277 21.6163 -0.155907 23.8277 21.6163 -0.155907
350 2 25.784 21.609 1.4465 25.784 21.609 1.4465
351 2 25.7857 21.6228 -1.75634 25.7857 21.6228 -1.75634
352 1 26.6776 23.5565 -0.146151 26.6776 23.5565 -0.146151
353 2 28.6353 23.5497 1.45452 28.6353 23.5497 1.45452
354 2 28.6341 23.5625 -1.74834 28.6341 23.5625 -1.74834
355 1 29.5273 21.6153 -0.155099 29.5273 21.6153 -0.155099
356 2 31.4859 21.6087 1.44448 31.4859 21.6087 1.44448
357 2 31.4829 21.6214 -1.75837 31.4829 21.6214 -1.75837
358 1 32.3769 23.5558 -0.150193 32.3769 23.5558 -0.150193
359 2 34.3374 23.5523 1.44713 34.3374 23.5523 1.44713
360 2 34.3306 23.5591 -1.75574 34.3306 23.5591 -1.75574
361 1 35.2266 21.6149 -0.160557 35.2266 21.6149 -0.160557
362 2 37.1857 21.6119 1.43853 37.1857 21.6119 1.43853
363 2 37.1818 21.6179 -1.76432 37.1818 21.6179 -1.76432
364 1 38.076 23.5559 -0.160491 38.076 23.5559 -0.160491
365 2 40.0356 23.5578 1.43796 40.0356 23.5578 1.43796
366 2 40.0305 23.5544 -1.7649 40.0305 23.5544 -1.7649
367 1 40.9256 21.6152 -0.163116 40.9256 21.6152 -0.163116
368 2 42.8816 21.6177 1.43968 42.8816 21.6177 1.43968
369 2 42.8836 21.6132 -1.76316 42.8836 21.6132 -1.76316
370 1 43.7747 23.5567 -0.163967 43.7747 23.5567 -0.163967
371 2 45.7307 23.5628 1.43884 45.7307 23.5628 1.43884
372 2 45.7327 23.5514 -1.764 45.7327 23.5514 -1.764
373 1 46.624 21.6161 -0.155292 46.624 21.6161 -0.155292
374 2 48.5789 21.6217 1.44888 48.5789 21.6217 1.44888
375 2 48.5832 21.6113 -1.75394 48.5832 21.6113 -1.75394
376 1 49.4732 23.5579 -0.157705 49.4732 23.5579 -0.157705
377 2 51.4292 23.5642 1.44505 51.4292 23.5642 1.44505
378 2 51.4313 23.5524 -1.75779 51.4313 23.5524 -1.75779
379 1 1.0309 25.4996 -0.162978 1.0309 25.4996 -0.162978
380 2 2.9872 25.5047 1.43942 2.9872 25.5047 1.43942
381 2 2.98872 25.4952 -1.76342 2.98872 25.4952 -1.76342
382 1 3.88045 27.4411 -0.167339 3.88045 27.4411 -0.167339
383 2 5.83588 27.4433 1.43614 5.83588 27.4433 1.43614
384 2 5.83925 27.4391 -1.76671 5.83925 27.4391 -1.76671
385 1 6.72988 25.5003 -0.161668 6.72988 25.5003 -0.161668
386 2 8.68658 25.5014 1.44027 8.68658 25.5014 1.44027
387 2 8.68743 25.4993 -1.76258 8.68743 25.4993 -1.76258
388 1 9.57976 27.4412 -0.162105 9.57976 27.4412 -0.162105
389 2 11.5347 27.4395 1.44195 11.5347 27.4395 1.44195
390 2 11.5391 27.4426 -1.76089 11.5391 27.4426 -1.76089
391 1 12.4292 25.5001 -0.160019 12.4292 25.5001 -0.160019
392 2 14.3845 25.4973 1.44373 14.3845 25.4973 1.44373
393 2 14.3883 25.5024 -1.75912 14.3883 25.5024 -1.75912
394 1 15.2792 27.4406 -0.153464 15.2792 27.4406 -0.153464
395 2 17.2325 27.436 1.45265 17.2325 27.436 1.45265
396 2 17.2402 27.4444 -1.75018 17.2402 27.4444 -1.75018
397 1 18.1286 25.4991 -0.151656 18.1286 25.4991 -0.151656
398 2 20.0824 25.4934 1.45394 20.0824 25.4934 1.45394
399 2 20.0892 25.5041 -1.74889 20.0892 25.5041 -1.74889
400 1 20.9785 27.4394 -0.139132 20.9785 27.4394 -0.139132
401 2 22.9325 27.4333 1.4662 22.9325 27.4333 1.4662
402 2 22.9388 27.4446 -1.73663 22.9388 27.4446 -1.73663
403 1 23.828 25.4979 -0.140379 23.828 25.4979 -0.140379
404 2 25.784 25.4911 1.46242 25.784 25.4911 1.46242
405 2 25.7862 25.5038 -1.74042 25.7862 25.5038 -1.74042
406 1 26.6777 27.4382 -0.130776 26.6777 27.4382 -0.130776
407 2 28.6362 27.4329 1.46883 28.6362 27.4329 1.46883
408 2 28.6333 27.4428 -1.73401 28.6333 27.4428 -1.73401
409 1 29.5272 25.4968 -0.139584 29.5272 25.4968 -0.139584
410 2 31.4874 25.4927 1.45801 31.4874 25.4927 1.45801
411 2 31.4812 25.5006 -1.74484 31.4812 25.5006 -1.74484
412 1 32.3767 27.4376 -0.140446 32.3767 27.4376 -0.140446
413 2 34.3401 27.4374 1.45322 34.3401 27.4374 1.45322
414 2 34.3274 27.4376 -1.74962 34.3274 27.4376 -1.74962
415 1 35.2263 25.4966 -0.152199 35.2263 25.4966 -0.152199
416 2 37.1887 25.4979 1.44285 37.1887 25.4979 1.44285
417 2 37.1781 25.4957 -1.75999 37.1781 25.4957 -1.75999
418 1 38.0755 27.4379 -0.162906 38.0755 27.4379 -0.162906
419 2 40.0384 27.4435 1.43141 40.0384 27.4435 1.43141
420 2 40.0267 27.4327 -1.7714 40.0267 27.4327 -1.7714
421 1 40.9252 25.4973 -0.167008 40.9252 25.4973 -0.167008
422 2 42.8844 25.5035 1.43186 42.8844 25.5035 1.43186
423 2 42.88 25.4918 -1.77097 42.88 25.4918 -1.77097
424 1 43.7743 27.4389 -0.177829 43.7743 27.4389 -0.177829
425 2 45.7317 27.4472 1.42324 45.7317 27.4472 1.42324
426 2 45.731 27.4314 -1.77958 45.731 27.4314 -1.77958
427 1 46.6239 25.4984 -0.168974 46.6239 25.4984 -0.168974
428 2 48.5794 25.506 1.43438 48.5794 25.506 1.43438
429 2 48.5824 25.4918 -1.76843 48.5824 25.4918 -1.76843
430 1 49.4731 27.4402 -0.174774 49.4731 27.4402 -0.174774
431 2 51.4278 27.4468 1.42952 51.4278 27.4468 1.42952
432 2 51.4325 27.4342 -1.77331 51.4325 27.4342 -1.77331
433 1 1.03092 29.3817 -0.178212 1.03092 29.3817 -0.178212
434 2 2.98456 29.3857 1.42745 2.98456 29.3857 1.42745
435 2 2.99149 29.3781 -1.77541 2.99149 29.3781 -1.77541
436 1 3.88057 31.3228 -0.176636 3.88057 31.3228 -0.176636
437 2 5.83292 31.3239 1.43064 5.83292 31.3239 1.43064
438 2 5.84255 31.322 -1.7722 5.84255 31.322 -1.7722
439 1 6.73024 29.3821 -0.16686 6.73024 29.3821 -0.16686
440 2 8.68437 29.3815 1.43825 8.68437 29.3815 1.43825
441 2 8.69043 29.3828 -1.76461 8.69043 29.3828 -1.76461
442 1 9.58015 31.3229 -0.160765 9.58015 31.3229 -0.160765
443 2 11.5334 31.3206 1.4455 11.5334 31.3206 1.4455
444 2 11.5413 31.325 -1.75734 11.5413 31.325 -1.75734
445 1 12.4298 29.3818 -0.156313 12.4298 29.3818 -0.156313
446 2 14.3831 29.3783 1.44974 14.3831 29.3783 1.44974
447 2 14.3907 29.3849 -1.75311 14.3907 29.3849 -1.75311
448 1 15.2797 31.3224 -0.145627 15.2797 31.3224 -0.145627
449 2 17.2321 31.3184 1.46165 17.2321 31.3184 1.46165
450 2 17.2416 31.3257 -1.74117 17.2416 31.3257 -1.74117
451 1 18.1291 29.381 -0.141542 18.1291 29.381 -0.141542
452 2 20.0818 29.376 1.4654 20.0818 29.376 1.4654
453 2 20.0908 29.3852 -1.73743 20.0908 29.3852 -1.73743
454 1 20.9789 31.3214 -0.128009 20.9789 31.3214 -0.128009
455 2 22.9324 31.3168 1.47789 22.9324 31.3168 1.47789
456 2 22.9397 31.3252 -1.72494 22.9397 31.3252 -1.72494
457 1 23.8283 29.3798 -0.126684 23.8283 29.3798 -0.126684
458 2 25.7841 29.3743 1.47624 25.7841 29.3743 1.47624
459 2 25.7866 29.3845 -1.72661 25.7866 29.3845 -1.72661
460 1 26.6778 31.3203 -0.118578 26.6778 31.3203 -0.118578
461 2 28.6379 31.3171 1.47919 28.6379 31.3171 1.47919
462 2 28.6318 31.3228 -1.72365 28.6318 31.3228 -1.72365
463 1 29.5272 29.3788 -0.127577 29.5272 29.3788 -0.127577
464 2 31.49 29.3766 1.46685 31.49 29.3766 1.46685
465 2 31.4785 29.3806 -1.73599 31.4785 29.3806 -1.73599
466 1 32.3764 31.3196 -0.135466 32.3764 31.3196 -0.135466
467 2 34.3437 31.3214 1.45347 34.3437 31.3214 1.45347
468 2 34.3232 31.3178 -1.74931 34.3232 31.3178 -1.74931
469 1 35.2259 29.3786 -0.151632 35.2259 29.3786 -0.151632
470 2 37.1918 29.3827 1.43893 37.1918 29.3827 1.43893
471 2 37.174 29.3748 -1.76388 37.174 29.3748 -1.76388
472 1 38.075 31.3199 -0.172164 38.075 31.3199 -0.172164
473 2 40.0408 31.3269 1.4185 40.0408 31.3269 1.4185
474 2 40.0232 31.3134 -1.78427 40.0232 31.3134 -1.78427
475 1 40.9247 29.3793 -0.179743 40.9247 29.3793 -0.179743
476 2 42.886 29.3876 1.41653 42.886 29.3876 1.41653
477 2 42.8775 29.3718 -1.78628 42.8775 29.3718 -1.78628
478 1 43.7738 31.3209 -0.196639 43.7738 31.3209 -0.196639
479 2 45.7315 31.3295 1.404 45.7315 31.3295 1.404
480 2 45.7302 31.3131 -1.79881 45.7302 31.3131 -1.79881
481 1 46.6235 29.3805 -0.187826 46.6235 29.3805 -0.187826
482 2 48.5785 29.3887 1.41616 48.5785 29.3887 1.41616
483 2 48.5827 29.3733 -1.78667 48.5827 29.3733 -1.78667
484 1 49.4729 31.3221 -0.19334 49.4729 31.3221 -0.19334
485 2 51.4253 31.328 1.41371 51.4253 31.328 1.41371
486 2 51.4346 31.3168 -1.78911 51.4346 31.3168 -1.78911
487 1 1.03073 33.2634 -0.191843 1.03073 33.2634 -0.191843
488 2 2.98117 33.2662 1.4177 2.98117 33.2662 1.4177
489 2 2.99459 33.2609 -1.78515 2.99459 33.2609 -1.78515
490 1 3.88042 35.2043 -0.183213 3.88042 35.2043 -0.183213
491 2 5.83027 35.2052 1.4271 5.83027 35.2052 1.4271
492 2 5.84492 35.2036 -1.77575 5.84492 35.2036 -1.77575
493 1 6.73037 33.2637 -0.169252 6.73037 33.2637 -0.169252
494 2 8.68236 33.263 1.43855 8.68236 33.263 1.43855
495 2 8.69278 33.2644 -1.7643 8.69278 33.2644 -1.7643
496 1 9.58025 35.2044 -0.159187 9.58025 35.2044 -0.159187
497 2 11.5322 35.2033 1.4487 11.5322 35.2033 1.4487
498 2 11.5427 35.2054 -1.75416 11.5427 35.2054 -1.75416
499 1 12.4301 33.2635 -0.151103 12.4301 33.2635 -0.151103
500 2 14.3826 33.2609 1.45613 14.3826 33.2609 1.45613
501 2 14.3919 33.2658 -1.74672 14.3919 33.2658 -1.74672
502 1 15.2799 35.2041 -0.139817 15.2799 35.2041 -0.139817
503 2 17.2319 35.2022 1.46799 17.2319 35.2022 1.46799
504 2 17.2422 35.2056 -1.73487 17.2422 35.2056 -1.73487
505 1 18.1295 33.2629 -0.132767 18.1295 33.2629 -0.132767
506 2 20.0818 33.2595 1.47457 20.0818 33.2595 1.47457
507 2 20.0914 33.2656 -1.72828 20.0914 33.2656 -1.72828
508 1 20.9791 35.2034 -0.120602 20.9791 35.2034 -0.120602
509 2 22.9328 35.2016 1.48495 22.9328 35.2016 1.48495
510 2 22.9395 35.2046 -1.71791 22.9395 35.2046 -1.71791
511 1 23.8284 33.2619 -0.116616 23.8284 33.2619 -0.116616
512 2 25.7849 33.2591 1.48562 25.7849 33.2591 1.48562
513 2 25.7861 33.2639 -1.71724 25.7861 33.2639 -1.71724
514 1 26.6777 35.2025 -0.112823 26.6777 35.2025 -0.112823
515 2 28.6392 35.2025 1.48319 28.6392 35.2025 1.48319
516 2 28.6302 35.202 -1.71966 28.6302 35.202 -1.71966
517 1 29.5271 33.261 -0.1207 29.5271 33.261 -0.1207
518 2 31.4925 33.2613 1.47039 31.4925 33.2613 1.47039
519 2 31.4755 33.2603 -1.73242 31.4755 33.2603 -1.73242
520 1 32.376 35.2019 -0.136432 32.376 35.2019 -0.136432
521 2 34.3461 35.2051 1.44898 34.3461 35.2051 1.44898
522 2 34.3198 35.1985 -1.75377 34.3198 35.1985 -1.75377
523 1 35.2254 33.2607 -0.155884 35.2254 33.2607 -0.155884
524 2 37.1949 33.2657 1.43031 37.1949 33.2657 1.43031
525 2 37.1699 33.2559 -1.77244 37.1699 33.2559 -1.77244
526 1 38.0743 35.2019 -0.183881 38.0743 35.2019 -0.183881
527 2 40.0421 35.2082 1.40422 40.0421 35.2082 1.40422
528 2 40.0204 35.196 -1.79854 40.0204 35.196 -1.79854
529 1 40.924 33.2613 -0.195787 40.924 33.2613 -0.195787
530 2 42.8866 33.269 1.39882 42.8866 33.269 1.39882
531 2 42.8755 33.2542 -1.80399 42.8755 33.2542 -1.80399
532 1 43.773 35.2027 -0.214459 43.773 35.2027 -0.214459
533 2 45.7304 35.2092 1.38652 45.7304 35.2092 1.38652
534 2 45.7298 35.1969 -1.81633 45.7298 35.1969 -1.81633
535 1 46.623 33.2624 -0.20749 46.623 33.2624 -0.20749
536 2 48.5765 33.2691 1.39825 48.5765 33.2691 1.39825