ITEM: TIMESTEP
684000
ITEM: NUMBER OF ATOMS
810
ITEM: BOX BOUNDS pp pp pp
8.6298438867990135e-01 5.2154620611319167e+01
-8.7513440789763641e-01 5.1891349407897209e+01
-1.0000000000000000e+01 1.0000000000000000e+01
ITEM: ATOMS id type x y z xu yu zu
1 1 1.05031 -0.198391 -0.21904 1.05031 -0.198391 -0.21904
2 2 2.9825 -0.201681 1.3921 2.9825 -0.201681 1.3921
3 2 2.97028 -0.195215 -1.8447 2.97028 -0.195215 -1.8447
4 1 3.89988 1.56048 -0.22627 3.89988 1.56048 -0.22627
5 2 5.82891 1.55471 1.38859 5.82891 1.55471 1.38859
6 2 5.823 1.56611 -1.84822 5.823 1.56611 -1.84822
7 1 6.74952 -0.198614 -0.237591 6.74952 -0.198614 -0.237591
8 2 8.67682 -0.200991 1.3793 8.67682 -0.200991 1.3793
9 2 8.67442 -0.196292 -1.85753 8.67442 -0.196292 -1.85753
10 1 9.5991 1.5603 -0.237141 9.5991 1.5603 -0.237141
11 2 11.5254 1.55661 1.38093 11.5254 1.55661 1.38093
12 2 11.525 1.56394 -1.8559 11.525 1.56394 -1.8559
13 1 12.4488 -0.198742 -0.241509 12.4488 -0.198742 -0.241509
14 2 14.3707 -0.197504 1.38169 14.3707 -0.197504 1.38169
15 2 14.379 -0.199919 -1.85514 14.379 -0.199919 -1.85514
16 1 15.2983 1.56025 -0.235515 15.2983 1.56025 -0.235515
17 2 17.2163 1.55985 1.39244 17.2163 1.55985 1.39244
18 2 17.2325 1.56072 -1.84436 17.2325 1.56072 -1.84436
19 1 18.1479 -0.198718 -0.221699 18.1479 -0.198718 -0.221699
20 2 20.06 -0.196491 1.41314 20.06 -0.196491 1.41314
21 2 20.0879 -0.200766 -1.82357 20.0879 -0.200766 -1.82357
22 1 20.9974 1.56034 -0.199511 20.9974 1.56034 -0.199511
23 2 22.9053 1.56048 1.44028 22.9053 1.56048 1.44028
24 2 22.9415 1.56036 -1.79636 22.9415 1.56036 -1.79636
25 1 23.8469 -0.198549 -0.167567 23.8469 -0.198549 -0.167567
26 2 25.7542 -0.198638 1.47295 25.7542 -0.198638 1.47295
27 2 25.7915 -0.198223 -1.76367 25.7915 -0.198223 -1.76367
28 1 26.6963 1.56053 -0.134499 26.6963 1.56053 -0.134499
29 2 28.6056 1.56034 1.50364 28.6056 1.56034 1.50364
30 2 28.6389 1.56092 -1.73303 28.6389 1.56092 -1.73303
31 1 29.5457 -0.198343 -0.105548 29.5457 -0.198343 -0.105548
32 2 31.4612 -0.199048 1.52541 31.4612 -0.199048 1.52541
33 2 31.4824 -0.197421 -1.71134 31.4824 -0.197421 -1.71134
34 1 32.3953 1.56075 -0.0861017 32.3953 1.56075 -0.0861017
35 2 34.3195 1.56245 1.53442 34.3195 1.56245 1.53442
36 2 34.3231 1.55922 -1.70242 34.3231 1.55922 -1.70242
37 1 35.2449 -0.198165 -0.0813833 35.2449 -0.198165 -0.0813833
38 2 37.1776 -0.196764 1.52917 37.1776 -0.196764 1.52917
39 2 37.1644 -0.19941 -1.70764 37.1644 -0.19941 -1.70764
40 1 38.0944 1.5609 -0.0944873 38.0944 1.5609 -0.0944873
41 2 40.0344 1.56422 1.50718 40.0344 1.56422 1.50718
42 2 40.0064 1.55762 -1.72954 40.0064 1.55762 -1.72954
43 1 40.944 -0.198087 -0.115685 40.944 -0.198087 -0.115685
44 2 42.8873 -0.195859 1.48199 42.8873 -0.195859 1.48199
45 2 42.8526 -0.200297 -1.75466 42.8526 -0.200297 -1.75466
46 1 43.7934 1.56087 -0.148696 43.7934 1.56087 -0.148696
47 2 45.7358 1.56249 1.45007 45.7358 1.56249 1.45007
48 2 45.7029 1.55916 -1.78662 45.7029 1.55916 -1.78662
49 1 46.6429 -0.198185 -0.175816 46.6429 -0.198185 -0.175816
50 2 48.5831 -0.198419 1.42568 48.5831 -0.198419 1.42568
51 2 48.5547 -0.198037 -1.81103 48.5547 -0.198037 -1.81103
52 1 49.4923 1.5607 -0.200615 49.4923 1.5607 -0.200615
53 2 51.4272 1.55776 1.40736 51.4272 1.55776 1.40736
54 2 51.4096 1.5635 -1.82944 51.4096 1.5635 -1.82944
55 1 1.05025 3.31945 -0.213007 1.05025 3.31945 -0.213007
56 2 2.98014 3.31328 1.40085 2.98014 3.31328 1.40085
57 2 2.9724 3.32552 -1.83599 2.9724 3.32552 -1.83599
58 1 3.89983 5.07812 -0.213213 3.89983 5.07812 -0.213213
59 2 5.82717 5.06895 1.40362 5.82717 5.06895 1.40362
60 2 5.82452 5.08711 -1.83322 5.82452 5.08711 -1.83322
61 1 6.74946 3.31923 -0.2253 6.74946 3.31923 -0.2253
62 2 8.67744 3.31149 1.3907 8.67744 3.31149 1.3907
63 2 8.67351 3.32692 -1.84613 8.67351 3.32692 -1.84613
64 1 9.59902 5.07794 -0.22044 9.59902 5.07794 -0.22044
65 2 11.5268 5.06875 1.39579 11.5268 5.06875 1.39579
66 2 11.5233 5.08706 -1.84103 11.5233 5.08706 -1.84103
67 1 12.4487 3.31912 -0.23349 12.4487 3.31912 -0.23349
68 2 14.3728 3.31428 1.38705 14.3728 3.31428 1.38705
69 2 14.3766 3.32404 -1.8498 14.3766 3.32404 -1.8498
70 1 15.2982 5.07792 -0.224855 15.2982 5.07792 -0.224855
71 2 17.2183 5.07221 1.40047 17.2183 5.07221 1.40047
72 2 17.2301 5.08364 -1.83636 17.2301 5.08364 -1.83636
73 1 18.1479 3.31914 -0.2207 18.1479 3.31914 -0.2207
74 2 20.0606 3.31732 1.4133 20.0606 3.31732 1.4133
75 2 20.087 3.32113 -1.82345 20.087 3.32113 -1.82345
76 1 20.9973 5.07799 -0.195349 20.9973 5.07799 -0.195349
77 2 22.9062 5.07579 1.44328 22.9062 5.07579 1.44328
78 2 22.9403 5.08029 -1.79341 22.9403 5.08029 -1.79341
79 1 23.8468 3.31927 -0.167724 23.8468 3.31927 -0.167724
80 2 25.7535 3.31881 1.47347 25.7535 3.31881 1.47347
81 2 25.792 3.31999 -1.76317 25.792 3.31999 -1.76317
82 1 26.6962 5.07817 -0.133209 26.6962 5.07817 -0.133209
83 2 28.6064 5.07882 1.50392 28.6064 5.07882 1.50392
84 2 28.6379 5.0777 -1.7328 28.6379 5.0777 -1.7328
85 1 29.5457 3.3195 -0.104898 29.5457 3.3195 -0.104898
86 2 31.4617 3.32097 1.5253 31.4617 3.32097 1.5253
87 2 31.4816 3.31829 -1.71151 31.4816 3.31829 -1.71151
88 1 32.3952 5.07843 -0.0889152 32.3952 5.07843 -0.0889152
89 2 34.3209 5.08196 1.52985 34.3209 5.08196 1.52985
90 2 34.3216 5.07505 -1.70702 34.3216 5.07505 -1.70702
91 1 35.2448 3.31972 -0.0847741 35.2448 3.31972 -0.0847741
92 2 37.1785 3.32352 1.52441 37.1785 3.32352 1.52441
93 2 37.1631 3.31608 -1.71242 37.1631 3.31608 -1.71242
94 1 38.0944 5.07858 -0.102492 38.0944 5.07858 -0.102492
95 2 40.0347 5.08332 1.49869 40.0347 5.08332 1.49869
96 2 40.0059 5.07384 -1.73806 40.0059 5.07384 -1.73806
97 1 40.9439 3.31978 -0.122802 40.9439 3.31978 -0.122802
98 2 42.8867 3.3233 1.47545 42.8867 3.3233 1.47545
99 2 42.8529 3.31627 -1.76125 42.8529 3.31627 -1.76125
100 1 43.7933 5.07853 -0.156404 43.7933 5.07853 -0.156404
101 2 45.7338 5.0807 1.44465 45.7338 5.0807 1.44465
102 2 45.7046 5.07623 -1.79212 45.7046 5.07623 -1.79212
103 1 46.6428 3.31965 -0.179536 46.6428 3.31965 -0.179536
104 2 48.5805 3.31903 1.42498 48.5805 3.31903 1.42498
105 2 48.557 3.32022 -1.81182 48.557 3.32022 -1.81182
106 1 49.4923 5.07836 -0.199548 49.4923 5.07836 -0.199548
107 2 51.4237 5.07443 1.41252 51.4237 5.07443 1.41252
108 2 51.4129 5.08211 -1.82435 51.4129 5.08211 -1.82435
109 1 1.05024 6.83702 -0.204945 1.05024 6.83702 -0.204945
110 2 2.97657 6.82961 1.41317 2.97657 6.82961 1.41317
111 2 2.97594 6.84419 -1.82369 2.97594 6.84419 -1.82369
112 1 3.89981 8.59569 -0.197644 3.89981 8.59569 -0.197644
113 2 5.82419 8.58528 1.42274 5.82419 8.58528 1.42274
114 2 5.82751 8.60583 -1.81406 5.82751 8.60583 -1.81406
115 1 6.74942 6.83676 -0.205787 6.74942 6.83676 -0.205787
116 2 8.67681 6.82542 1.41091 8.67681 6.82542 1.41091
117 2 8.67405 6.84794 -1.82589 8.67405 6.84794 -1.82589
118 1 9.59897 8.59546 -0.196123 9.59897 8.59546 -0.196123
119 2 11.5272 8.58296 1.41951 11.5272 8.58296 1.41951
120 2 11.5228 8.60786 -1.81725 11.5228 8.60786 -1.81725
121 1 12.4486 6.83666 -0.213629 12.4486 6.83666 -0.213629
122 2 14.3749 6.82678 1.40435 14.3749 6.82678 1.40435
123 2 14.3743 6.8465 -1.83246 14.3743 6.8465 -1.83246
124 1 15.2981 8.59546 -0.203422 15.2981 8.59546 -0.203422
125 2 17.2211 8.58596 1.41864 17.2211 8.58596 1.41864
126 2 17.2273 8.60495 -1.81815 17.2273 8.60495 -1.81815
127 1 18.1478 6.83671 -0.208235 18.1478 6.83671 -0.208235
128 2 20.0631 6.83119 1.42287 20.0631 6.83119 1.42287
129 2 20.0845 6.84224 -1.81391 20.0845 6.84224 -1.81391
130 1 20.9972 8.59554 -0.183259 20.9972 8.59554 -0.183259
131 2 22.9092 8.5917 1.45179 22.9092 8.5917 1.45179
132 2 22.9372 8.59944 -1.78493 22.9372 8.59944 -1.78493
133 1 23.8468 6.83682 -0.162785 23.8468 6.83682 -0.162785
134 2 25.7553 6.8359 1.47629 25.7553 6.8359 1.47629
135 2 25.7901 6.83786 -1.76039 25.7901 6.83786 -1.76039
136 1 26.6962 8.59572 -0.130972 26.6962 8.59572 -0.130972
137 2 28.6089 8.59732 1.50321 28.6089 8.59732 1.50321
138 2 28.6354 8.5943 -1.73354 28.6354 8.5943 -1.73354
139 1 29.5457 6.83706 -0.106047 29.5457 6.83706 -0.106047
140 2 31.4636 6.83991 1.52199 31.4636 6.83991 1.52199
141 2 31.4798 6.83439 -1.71484 31.4798 6.83439 -1.71484
142 1 32.3952 8.59602 -0.0948156 32.3952 8.59602 -0.0948156
143 2 34.3228 8.60108 1.52177 34.3228 8.60108 1.52177
144 2 34.3197 8.59108 -1.71507 34.3197 8.59108 -1.71507
145 1 35.2448 6.83731 -0.0921995 35.2448 6.83731 -0.0921995
146 2 37.1797 6.8425 1.51551 37.1797 6.8425 1.51551
147 2 37.1618 6.83218 -1.72131 37.1618 6.83218 -1.72131
148 1 38.0943 8.59618 -0.113661 38.0943 8.59618 -0.113661
149 2 40.0349 8.60208 1.4872 40.0349 8.60208 1.4872
150 2 40.0056 8.59023 -1.74951 40.0056 8.59023 -1.74951
151 1 40.9438 6.83736 -0.133119 40.9438 6.83736 -0.133119
152 2 42.8858 6.84184 1.46614 42.8858 6.84184 1.46614
153 2 42.8537 6.83275 -1.77058 42.8537 6.83275 -1.77058
154 1 43.7932 8.59611 -0.166357 43.7932 8.59611 -0.166357
155 2 45.7315 8.599 1.4375 45.7315 8.599 1.4375
156 2 45.7069 8.59307 -1.79928 45.7069 8.59307 -1.79928
157 1 46.6427 6.83722 -0.184555 46.6427 6.83722 -0.184555
158 2 48.5772 6.8368 1.42391 48.5772 6.8368 1.42391
159 2 48.5603 6.83747 -1.81295 48.5603 6.83747 -1.81295
160 1 49.4923 8.59595 -0.199045 49.4923 8.59595 -0.199045
161 2 51.4196 8.59218 1.41801 51.4196 8.59218 1.41801
162 2 51.4171 8.59949 -1.81886 51.4171 8.59949 -1.81886
163 1 1.05018 10.3547 -0.197257 1.05018 10.3547 -0.197257
164 2 2.97224 10.3475 1.42599 2.97224 10.3475 1.42599
165 2 2.98023 10.3616 -1.81084 2.98023 10.3616 -1.81084
166 1 3.89968 12.1135 -0.182654 3.89968 12.1135 -0.182654
167 2 5.82037 12.1037 1.44212 5.82037 12.1037 1.44212
168 2 5.83106 12.123 -1.79467 5.83106 12.123 -1.79467
169 1 6.74932 10.3544 -0.18369 6.74932 10.3544 -0.18369
170 2 8.67484 10.342 1.43529 8.67484 10.342 1.43529
171 2 8.67592 10.3666 -1.80147 8.67592 10.3666 -1.80147
172 1 9.5988 12.1132 -0.169528 9.5988 12.1132 -0.169528
173 2 11.5265 12.1 1.44687 11.5265 12.1 1.44687
174 2 11.5232 12.1263 -1.78987 11.5232 12.1263 -1.78987
175 1 12.4485 10.3543 -0.186661 12.4485 10.3543 -0.186661
176 2 14.3763 10.3418 1.42949 14.3763 10.3418 1.42949
177 2 14.3727 10.3667 -1.80725 14.3727 10.3667 -1.80725
178 1 15.2979 12.1132 -0.176364 15.2979 12.1132 -0.176364
179 2 17.2235 12.1022 1.44254 17.2235 12.1022 1.44254
180 2 17.2244 12.1242 -1.79422 17.2244 12.1242 -1.79422
181 1 18.1476 10.3544 -0.187547 18.1476 10.3544 -0.187547
182 2 20.0665 10.3467 1.43937 20.0665 10.3467 1.43937
183 2 20.0808 10.362 -1.79741 20.0808 10.362 -1.79741
184 1 20.997 12.1133 -0.166471 20.997 12.1133 -0.166471
185 2 22.9134 12.109 1.46346 22.9134 12.109 1.46346
186 2 22.9327 12.1177 -1.77331 22.9327 12.1177 -1.77331
187 1 23.8467 10.3545 -0.154239 23.8467 10.3545 -0.154239
188 2 25.7589 10.3537 1.48055 25.7589 10.3537 1.48055
189 2 25.7864 10.3554 -1.75617 25.7864 10.3554 -1.75617
190 1 26.696 12.1135 -0.128897 26.696 12.1135 -0.128897
191 2 28.6124 12.1163 1.50095 28.6124 12.1163 1.50095
192 2 28.6316 12.111 -1.73583 28.6316 12.111 -1.73583
193 1 29.5456 10.3547 -0.109198 29.5456 10.3547 -0.109198
194 2 31.4661 10.3591 1.51586 31.4661 10.3591 1.51586
195 2 31.4773 10.3505 -1.72096 31.4773 10.3505 -1.72096
196 1 32.3951 12.1138 -0.104027 32.3951 12.1138 -0.104027
197 2 34.3245 12.1205 1.51034 34.3245 12.1205 1.51034
198 2 34.3178 12.1073 -1.72647 34.3178 12.1073 -1.72647
199 1 35.2447 10.355 -0.102984 35.2447 10.355 -0.102984
200 2 37.1808 10.3615 1.50343 37.1808 10.3615 1.50343
201 2 37.1607 10.3485 -1.73334 37.1607 10.3485 -1.73334
202 1 38.0942 12.114 -0.127806 38.0942 12.114 -0.127806
203 2 40.0346 12.1208 1.47323 40.0346 12.1208 1.47323
204 2 40.0056 12.1071 -1.76347 40.0056 12.1071 -1.76347
205 1 40.9437 10.3551 -0.146 40.9437 10.3551 -0.146
206 2 42.8846 10.3604 1.45462 42.8846 10.3604 1.45462
207 2 42.8548 10.3496 -1.7821 42.8548 10.3496 -1.7821
208 1 43.7931 12.1139 -0.178115 43.7931 12.1139 -0.178115
209 2 45.7287 12.1172 1.42895 45.7287 12.1172 1.42895
210 2 45.7095 12.1105 -1.80785 45.7095 12.1105 -1.80785
211 1 46.6427 10.3549 -0.191144 46.6427 10.3549 -0.191144
212 2 48.5735 10.355 1.42172 48.5735 10.355 1.42172
213 2 48.564 10.3546 -1.81514 48.564 10.3546 -1.81514
214 1 49.4922 12.1137 -0.199703 49.4922 12.1137 -0.199703
215 2 51.4151 12.1106 1.42255 51.4151 12.1106 1.42255
216 2 51.4214 12.1167 -1.81431 51.4214 12.1167 -1.81431
217 1 1.05001 13.8725 -0.190842 1.05001 13.8725 -0.190842
218 2 2.96776 13.8664 1.43747 2.96776 13.8664 1.43747
219 2 2.98431 13.8784 -1.79933 2.98431 13.8784 -1.79933
220 1 3.8994 15.6313 -0.169775 3.8994 15.6313 -0.169775
221 2 5.81653 15.6231 1.45919 5.81653 15.6231 1.45919
222 2 5.8343 15.6392 -1.77758 5.8343 15.6392 -1.77758
223 1 6.7491 13.8722 -0.162858 6.7491 13.8722 -0.162858
224 2 8.67198 13.8608 1.45926 8.67198 13.8608 1.45926
225 2 8.6783 13.8833 -1.77751 8.6783 13.8833 -1.77751
226 1 9.5985 15.631 -0.145272 9.5985 15.631 -0.145272
227 2 11.5248 15.6194 1.47279 11.5248 15.6194 1.47279
228 2 11.5243 15.6424 -1.76398 11.5243 15.6424 -1.76398
229 1 12.4482 13.872 -0.158276 12.4482 13.872 -0.158276
230 2 14.3768 13.8595 1.45703 14.3768 13.8595 1.45703
231 2 14.3717 13.8845 -1.77971 14.3717 13.8845 -1.77971
232 1 15.2976 15.6309 -0.14929 15.2976 15.6309 -0.14929
233 2 17.2254 15.6206 1.46706 17.2254 15.6206 1.46706
234 2 17.2219 15.6413 -1.76972 17.2219 15.6413 -1.76972
235 1 18.1473 13.8721 -0.163563 18.1473 13.8721 -0.163563
236 2 20.0701 13.8641 1.45882 20.0701 13.8641 1.45882
237 2 20.0767 13.8802 -1.77798 20.0767 13.8802 -1.77798
238 1 20.9967 15.6311 -0.148853 20.9967 15.6311 -0.148853
239 2 22.9179 15.6273 1.47543 22.9179 15.6273 1.47543
240 2 22.9276 15.635 -1.7614 22.9276 15.635 -1.7614
241 1 23.8464 13.8723 -0.144505 23.8464 13.8723 -0.144505
242 2 25.7634 13.8721 1.48474 25.7634 13.8721 1.48474
243 2 25.7815 13.8726 -1.75206 25.7815 13.8726 -1.75206
244 1 26.6958 15.6313 -0.128069 26.6958 15.6313 -0.128069
245 2 28.6165 15.6351 1.49669 28.6165 15.6351 1.49669
246 2 28.627 15.6276 -1.74014 28.627 15.6276 -1.74014
247 1 29.5454 13.8726 -0.114777 29.5454 13.8726 -0.114777
248 2 31.4689 13.8784 1.50675 31.4689 13.8784 1.50675
249 2 31.4741 13.8669 -1.73008 31.4741 13.8669 -1.73008
250 1 32.3948 15.6316 -0.116443 32.3948 15.6316 -0.116443
251 2 34.3259 15.6394 1.49592 34.3259 15.6394 1.49592
252 2 34.3158 15.624 -1.74089 34.3158 15.624 -1.74089
253 1 35.2445 13.8728 -0.117139 35.2445 13.8728 -0.117139
254 2 37.1812 13.8804 1.48848 37.1812 13.8804 1.48848
255 2 37.1598 13.8652 -1.74827 37.1598 13.8652 -1.74827
256 1 38.0939 15.6318 -0.144274 38.0939 15.6318 -0.144274
257 2 40.0335 15.6387 1.45773 40.0335 15.6387 1.45773
258 2 40.0061 15.6248 -1.77899 40.0061 15.6248 -1.77899
259 1 40.9435 13.8729 -0.160859 40.9435 13.8729 -0.160859
260 2 42.8827 13.8783 1.44173 42.8827 13.8783 1.44173
261 2 42.8562 13.8673 -1.79501 42.8562 13.8673 -1.79501
262 1 43.7928 15.6317 -0.190244 43.7928 15.6317 -0.190244
263 2 45.7254 15.6346 1.42034 45.7254 15.6346 1.42034
264 2 45.7122 15.6287 -1.8165 45.7122 15.6287 -1.8165
265 1 46.6425 13.8727 -0.198569 46.6425 13.8727 -0.198569
266 2 48.5696 13.8731 1.41873 48.5696 13.8731 1.41873
267 2 48.5675 13.8723 -1.81814 48.5675 13.8723 -1.81814
268 1 49.492 15.6316 -0.200733 49.492 15.6316 -0.200733
269 2 51.4108 15.6287 1.4263 51.4108 15.6287 1.4263
270 2 51.4252 15.6342 -1.81054 51.4252 15.6342 -1.81054
271 1 1.04975 17.3903 -0.185103 1.04975 17.3903 -0.185103
272 2 2.96394 17.3851 1.44735 2.96394 17.3851 1.44735
273 2 2.98753 17.3952 -1.78942 2.98753 17.3952 -1.78942
274 1 3.89913 19.149 -0.158848 3.89913 19.149 -0.158848
275 2 5.81373 19.1427 1.47307 5.81373 19.1427 1.47307
276 2 5.83649 19.155 -1.76369 5.83649 19.155 -1.76369
277 1 6.74879 17.39 -0.145512 6.74879 17.39 -0.145512
278 2 8.66914 17.3809 1.4796 8.66914 17.3809 1.4796
279 2 8.68048 17.3987 -1.7572 8.68048 17.3987 -1.7572
280 1 9.5982 19.1487 -0.126055 9.5982 19.1487 -0.126055
281 2 11.5232 19.1403 1.49354 11.5232 19.1403 1.49354
282 2 11.5253 19.1569 -1.74327 11.5253 19.1569 -1.74327
283 1 12.4479 17.3898 -0.133357 12.4479 17.3898 -0.133357
284 2 14.3766 17.3794 1.48186 14.3766 17.3794 1.48186
285 2 14.3713 17.4 -1.75493 14.3713 17.4 -1.75493
286 1 15.2973 19.1486 -0.126962 15.2973 19.1486 -0.126962
287 2 17.2267 19.1411 1.48747 17.2267 19.1411 1.48747
288 2 17.22 19.1562 -1.74933 17.22 19.1562 -1.74933
289 1 18.147 17.3898 -0.141101 18.147 17.3898 -0.141101
290 2 20.0733 17.3832 1.47706 20.0733 17.3832 1.47706
291 2 20.0727 17.3965 -1.75977 20.0727 17.3965 -1.75977
292 1 20.9964 19.1488 -0.134197 20.9964 19.1488 -0.134197
293 2 22.922 19.1466 1.48481 22.922 19.1466 1.48481
294 2 22.9228 19.151 -1.75205 22.9228 19.151 -1.75205
295 1 23.8461 17.39 -0.135892 23.8461 17.39 -0.135892
296 2 25.7681 17.3908 1.48743 25.7681 17.3908 1.48743
297 2 25.7761 17.3894 -1.74943 25.7761 17.3894 -1.74943
298 1 26.6955 19.149 -0.129339 26.6955 19.149 -0.129339
299 2 28.6205 19.1538 1.49028 28.6205 19.1538 1.49028
300 2 28.6224 19.1445 -1.74657 28.6224 19.1445 -1.74657
301 1 29.5451 17.3903 -0.122688 29.5451 17.3903 -0.122688
302 2 31.4717 17.3971 1.49511 31.4717 17.3971 1.49511
303 2 31.4706 17.3837 -1.74173 31.4706 17.3837 -1.74173
304 1 32.3945 19.1493 -0.130859 32.3945 19.1493 -0.130859
305 2 34.327 19.1573 1.47988 34.327 19.1573 1.47988
306 2 34.3141 19.1415 -1.75692 34.3141 19.1415 -1.75692
307 1 35.2442 17.3906 -0.133711 35.2442 17.3906 -0.133711
308 2 37.1809 17.3984 1.47184 37.1809 17.3984 1.47184
309 2 37.1594 17.3828 -1.76493 37.1594 17.3828 -1.76493
310 1 38.0936 19.1495 -0.161142 38.0936 19.1495 -0.161142
311 2 40.0316 19.1554 1.44276 40.0316 19.1554 1.44276
312 2 40.0074 19.1436 -1.79399 40.0074 19.1436 -1.79399
313 1 40.9432 17.3906 -0.176052 40.9432 17.3906 -0.176052
314 2 42.8801 17.3952 1.42929 42.8801 17.3952 1.42929
315 2 42.8582 17.386 -1.8075 42.8582 17.386 -1.8075
316 1 43.7926 19.1494 -0.200368 43.7926 19.1494 -0.200368
317 2 45.7221 19.1507 1.41386 45.7221 19.1507 1.41386
318 2 45.715 19.1481 -1.823 45.715 19.1481 -1.823
319 1 46.6422 17.3905 -0.204989 46.6422 17.3905 -0.204989
320 2 48.5658 17.3901 1.41647 48.5658 17.3901 1.41647
321 2 48.5708 17.3907 -1.82041 48.5708 17.3907 -1.82041
322 1 49.4917 19.1493 -0.200192 49.4917 19.1493 -0.200192
323 2 51.4074 19.1462 1.43056 51.4074 19.1462 1.43056
324 2 51.4281 19.1522 -1.80623 51.4281 19.1522 -1.80623
325 1 1.04954 20.908 -0.178666 1.04954 20.908 -0.178666
326 2 2.96169 20.9037 1.45618 2.96169 20.9037 1.45618
327 2 2.98933 20.9121 -1.78056 2.98933 20.9121 -1.78056
328 1 3.89898 22.6667 -0.149792 3.89898 22.6667 -0.149792
329 2 5.81282 22.6632 1.48305 5.81282 22.6632 1.48305
330 2 5.83711 22.6701 -1.75371 5.83711 22.6701 -1.75371
331 1 6.74854 20.9077 -0.132248 6.74854 20.9077 -0.132248
332 2 8.6675 20.9019 1.49453 8.6675 20.9019 1.49453
333 2 8.68162 20.9132 -1.74228 8.68162 20.9132 -1.74228
334 1 9.59805 22.6665 -0.11387 9.59805 22.6665 -0.11387
335 2 11.5226 22.6627 1.50633 11.5226 22.6627 1.50633
336 2 11.5256 22.6702 -1.73051 11.5256 22.6702 -1.73051
337 1 12.4477 20.9075 -0.115423 12.4477 20.9075 -0.115423
338 2 14.3764 20.9012 1.49984 14.3764 20.9012 1.49984
339 2 14.371 20.9137 -1.73699 14.371 20.9137 -1.73699
340 1 15.2972 22.6664 -0.113437 15.2972 22.6664 -0.113437
341 2 17.2277 22.6634 1.49966 17.2277 22.6634 1.49966
342 2 17.2187 22.6694 -1.73718 17.2187 22.6694 -1.73718
343 1 18.1468 20.9076 -0.124735 18.1468 20.9076 -0.124735
344 2 20.076 20.904 1.49003 20.076 20.904 1.49003
345 2 20.0696 20.9112 -1.74682 20.0696 20.9112 -1.74682
346 1 20.9963 22.6665 -0.126308 20.9963 22.6665 -0.126308
347 2 22.9253 22.6673 1.48861 22.9253 22.6673 1.48861
348 2 22.9192 22.6659 -1.74825 22.9192 22.6659 -1.74825
349 1 23.8458 20.9078 -0.130932 23.8458 20.9078 -0.130932
350 2 25.7723 20.9101 1.48707 25.7723 20.9101 1.48707
351 2 25.7714 20.9056 -1.74979 25.7714 20.9056 -1.74979
352 1 26.6953 22.6668 -0.133939 26.6953 22.6668 -0.133939
353 2 28.6239 22.6724 1.48148 28.6239 22.6724 1.48148
354 2 28.6187 22.6614 -1.75537 28.6187 22.6614 -1.75537
355 1 29.5449 20.9081 -0.13255 29.5449 20.9081 -0.13255
356 2 31.4743 20.9152 1.48192 31.4743 20.9152 1.48192
357 2 31.4676 20.9011 -1.75491 31.4676 20.9011 -1.75491
358 1 32.3944 22.667 -0.145983 32.3944 22.667 -0.145983
359 2 34.3275 22.6744 1.46387 34.3275 22.6744 1.46387
360 2 34.3132 22.6599 -1.77293 34.3132 22.6599 -1.77293
361 1 35.2439 20.9083 -0.150724 35.2439 20.9083 -0.150724
362 2 37.1801 20.9152 1.45553 37.1801 20.9152 1.45553
363 2 37.1598 20.9014 -1.78125 37.1598 20.9014 -1.78125
364 1 38.0934 22.6672 -0.176187 38.0934 22.6672 -0.176187
365 2 40.0292 22.6713 1.43052 40.0292 22.6713 1.43052
366 2 40.0096 22.6632 -1.80628 40.0096 22.6632 -1.80628
367 1 40.9429 20.9083 -0.188962 40.9429 20.9083 -0.188962
368 2 42.8771 20.911 1.41967 42.8771 20.911 1.41967
369 2 42.8607 20.9056 -1.81716 42.8607 20.9056 -1.81716
370 1 43.7924 22.6672 -0.206345 43.7924 22.6672 -0.206345
371 2 45.7192 22.6667 1.41118 45.7192 22.6667 1.41118
372 2 45.7177 22.6676 -1.82569 45.7177 22.6676 -1.82569
373 1 46.6421 20.9083 -0.208025 46.6421 20.9083 -0.208025
374 2 48.5627 20.9066 1.4168 48.5627 20.9066 1.4168
375 2 48.5734 20.9098 -1.82005 48.5734 20.9098 -1.82005
376 1 49.4916 22.667 -0.196804 49.4916 22.667 -0.196804
377 2 51.4056 22.664 1.43596 51.4056 22.664 1.43596
378 2 51.4296 22.6699 -1.80081 51.4296 22.6699 -1.80081
379 1 1.04946 24.4257 -0.17239 1.04946 24.4257 -0.17239
380 2 2.96135 24.4236 1.46278 2.96135 24.4236 1.46278
381 2 2.98949 24.4276 -1.77397 2.98949 24.4276 -1.77397
382 1 3.89893 26.1844 -0.145452 3.89893 26.1844 -0.145452
383 2 5.81356 26.1851 1.4865 5.81356 26.1851 1.4865
384 2 5.83627 26.1836 -1.75029 5.83627 26.1836 -1.75029
385 1 6.74846 24.4255 -0.124726 6.74846 24.4255 -0.124726
386 2 8.66749 24.4241 1.50201 8.66749 24.4241 1.50201
387 2 8.68147 24.4266 -1.73482 8.68147 24.4266 -1.73482
388 1 9.59802 26.1842 -0.111225 9.59802 26.1842 -0.111225
389 2 11.5227 26.1857 1.50883 11.5227 26.1857 1.50883
390 2 11.5254 26.1826 -1.72803 11.5254 26.1826 -1.72803
391 1 12.4476 24.4253 -0.107297 12.4476 24.4253 -0.107297
392 2 14.3764 24.4242 1.50784 14.3764 24.4242 1.50784
393 2 14.3708 24.4263 -1.72902 14.3708 24.4263 -1.72902
394 1 15.2972 26.1841 -0.111175 15.2972 26.1841 -0.111175
395 2 17.2281 26.1858 1.50139 17.2281 26.1858 1.50139
396 2 17.2182 26.1824 -1.73546 17.2182 26.1824 -1.73546
397 1 18.1467 24.4253 -0.118128 18.1467 24.4253 -0.118128
398 2 20.0777 24.4259 1.49445 20.0777 24.4259 1.49445
399 2 20.0677 24.4247 -1.74241 20.0677 24.4247 -1.74241
400 1 20.9962 26.1842 -0.12748 20.9962 26.1842 -0.12748
401 2 22.9271 26.1878 1.48527 22.9271 26.1878 1.48527
402 2 22.9174 26.1808 -1.75159 22.9174 26.1808 -1.75159
403 1 23.8458 24.4255 -0.132265 23.8458 24.4255 -0.132265
404 2 25.7753 24.4297 1.48211 25.7753 24.4297 1.48211
405 2 25.7682 24.4214 -1.75475 25.7682 24.4214 -1.75475
406 1 26.6953 26.1844 -0.142712 26.6953 26.1844 -0.142712
407 2 28.6257 26.1903 1.47049 28.6257 26.1903 1.47049
408 2 28.6168 26.1789 -1.76636 28.6168 26.1789 -1.76636
409 1 29.5448 24.4258 -0.144332 29.5448 24.4258 -0.144332
410 2 31.4759 24.4326 1.46802 31.4759 24.4326 1.46802
411 2 31.4657 24.4191 -1.76881 31.4657 24.4191 -1.76881
412 1 32.3943 26.1847 -0.16063 32.3943 26.1847 -0.16063
413 2 34.3271 26.1905 1.4496 34.3271 26.1905 1.4496
414 2 34.3134 26.1791 -1.78723 34.3134 26.1791 -1.78723
415 1 35.2438 24.426 -0.166533 35.2438 24.426 -0.166533
416 2 37.1786 24.4313 1.44141 37.1786 24.4313 1.44141
417 2 37.161 24.4207 -1.7954 37.161 24.4207 -1.7954
418 1 38.0933 26.1849 -0.187734 38.0933 26.1849 -0.187734
419 2 40.0263 26.1868 1.42233 40.0263 26.1868 1.42233
420 2 40.0123 26.183 -1.81451 40.0123 26.183 -1.81451
421 1 40.9429 24.426 -0.197896 40.9429 24.426 -0.197896
422 2 42.8742 24.4268 1.41418 42.8742 24.4268 1.41418
423 2 42.8636 24.4253 -1.82267 42.8636 24.4253 -1.82267
424 1 43.7924 26.1849 -0.208068 43.7924 26.1849 -0.208068
425 2 45.7172 26.1835 1.41184 45.7172 26.1835 1.41184
426 2 45.7197 26.1861 -1.82503 45.7197 26.1861 -1.82503
427 1 46.642 24.426 -0.207201 46.642 24.426 -0.207201
428 2 48.561 24.4239 1.41964 48.561 24.4239 1.41964
429 2 48.5751 24.4278 -1.81719 48.5751 24.4278 -1.81719
430 1 49.4916 26.1847 -0.192602 49.4916 26.1847 -0.192602
431 2 51.4054 26.1836 1.44024 51.4054 26.1836 1.44024
432 2 51.4296 26.1856 -1.79653 51.4296 26.1856 -1.79653
433 1 1.04943 27.9434 -0.170125 1.04943 27.9434 -0.170125
434 2 2.96266 27.9454 1.46351 2.96266 27.9454 1.46351
435 2 2.98816 27.9412 -1.77325 2.98816 27.9412 -1.77325
436 1 3.89896 29.7022 -0.149899 3.89896 29.7022 -0.149899
437 2 5.81524 29.7081 1.48013 5.81524 29.7081 1.48013
438 2 5.8347 29.6961 -1.75664 5.8347 29.6961 -1.75664
439 1 6.74846 27.9432 -0.12635 6.74846 27.9432 -0.12635
440 2 8.66833 27.9471 1.49943 8.66833 27.9471 1.49943
441 2 8.68064 27.939 -1.7374 8.68064 27.939 -1.7374
442 1 9.59805 29.702 -0.11999 9.59805 29.702 -0.11999
443 2 11.5227 29.7084 1.50013 11.5227 29.7084 1.50013
444 2 11.5255 29.6955 -1.7367 11.5255 29.6955 -1.7367
445 1 12.4476 27.943 -0.110645 12.4476 27.943 -0.110645
446 2 14.3762 27.9467 1.50475 14.3762 27.9467 1.50475
447 2 14.371 27.9392 -1.7321 14.371 27.9392 -1.7321
448 1 15.2972 29.7019 -0.119329 15.2972 29.7019 -0.119329
449 2 17.2275 29.7067 1.49399 17.2275 29.7067 1.49399
450 2 17.2189 29.6971 -1.74286 17.2189 29.6971 -1.74286
451 1 18.1467 27.943 -0.121778 18.1467 27.943 -0.121778
452 2 20.0782 27.9467 1.49019 20.0782 27.9467 1.49019
453 2 20.0672 27.9394 -1.74665 20.0672 27.9394 -1.74665
454 1 20.9962 29.702 -0.135297 20.9962 29.702 -0.135297
455 2 22.9272 29.7062 1.4772 22.9272 29.7062 1.4772
456 2 22.9172 29.6979 -1.75966 22.9172 29.6979 -1.75966
457 1 23.8457 27.9432 -0.139647 23.8457 27.9432 -0.139647
458 2 25.7763 27.9479 1.47332 25.7763 27.9479 1.47332
459 2 25.7671 27.9386 -1.76353 25.7671 27.9386 -1.76353
460 1 26.6952 29.7022 -0.152744 26.6952 29.7022 -0.152744
461 2 28.6257 29.706 1.46035 28.6257 29.706 1.46035
462 2 28.6168 29.6986 -1.77651 28.6168 29.6986 -1.77651
463 1 29.5448 27.9434 -0.156568 29.5448 27.9434 -0.156568
464 2 31.4761 27.9485 1.45547 31.4761 27.9485 1.45547
465 2 31.4654 27.9386 -1.78138 31.4654 27.9386 -1.78138
466 1 32.3943 29.7024 -0.171299 32.3943 29.7024 -0.171299
467 2 34.3257 29.7044 1.44058 34.3257 29.7044 1.44058
468 2 34.3148 29.7007 -1.79627 34.3148 29.7007 -1.79627
469 1 35.2438 27.9437 -0.178849 35.2438 27.9437 -0.178849
470 2 37.1763 27.9461 1.43169 37.1763 27.9461 1.43169
471 2 37.1632 27.9412 -1.80515 37.1632 27.9412 -1.80515
472 1 38.0933 29.7026 -0.193071 38.0933 29.7026 -0.193071
473 2 40.0237 29.7014 1.42003 40.0237 29.7014 1.42003
474 2 40.0149 29.7038 -1.81682 40.0149 29.7038 -1.81682
475 1 40.9428 27.9437 -0.202108 40.9428 27.9437 -0.202108
476 2 42.8717 27.9428 1.41291 42.8717 27.9428 1.41291
477 2 42.866 27.9446 -1.82395 42.866 27.9446 -1.82395
478 1 43.7924 29.7026 -0.206048 43.7924 29.7026 -0.206048
479 2 45.7166 29.7011 1.41451 45.7166 29.7011 1.41451
480 2 45.7203 29.704 -1.82234 45.7203 29.704 -1.82234
481 1 46.642 27.9436 -0.204442 46.642 27.9436 -0.204442
482 2 48.5608 27.9428 1.42253 48.5608 27.9428 1.42253
483 2 48.5752 27.9443 -1.8143 48.5752 27.9443 -1.8143
484 1 49.4916 29.7024 -0.190934 49.4916 29.7024 -0.190934
485 2 51.4072 29.7047 1.4399 51.4072 29.7047 1.4399
486 2 51.428 29.7 -1.79689 51.428 29.7 -1.79689
487 1 1.04953 31.4612 -0.175049 1.04953 31.4612 -0.175049
488 2 2.9653 31.4678 1.45557 2.9653 31.4678 1.45557
489 2 2.98576 31.4544 -1.78119 2.98576 31.4544 -1.78119
490 1 3.89918 33.22 -0.164193 3.89918 33.22 -0.164193
491 2 5.81736 33.2303 1.46354 5.81736 33.2303 1.46354
492 2 5.83304 33.2096 -1.77321 5.83304 33.2096 -1.77321
493 1 6.74858 31.461 -0.13929 6.74858 31.461 -0.13929
494 2 8.6691 31.4699 1.48568 8.6691 31.4699 1.48568
495 2 8.68011 31.452 -1.75111 8.68011 31.452 -1.75111
496 1 9.59826 33.2198 -0.139394 9.59826 33.2198 -0.139394
497 2 11.5219 33.2296 1.48188 11.5219 33.2296 1.48188
498 2 11.5267 33.21 -1.75493 11.5267 33.21 -1.75493
499 1 12.4477 31.4609 -0.124567 12.4477 31.4609 -0.124567
500 2 14.375 31.4678 1.49229 14.375 31.4678 1.49229
501 2 14.3724 31.4538 -1.74454 14.3724 31.4538 -1.74454
502 1 15.2974 33.2197 -0.134593 15.2974 33.2197 -0.134593
503 2 17.2257 33.2258 1.48108 17.2257 33.2258 1.48108
504 2 17.2211 33.2137 -1.75577 17.2211 33.2137 -1.75577
505 1 18.1468 31.4608 -0.132139 18.1468 31.4608 -0.132139
506 2 20.0773 31.4652 1.48094 20.0773 31.4652 1.48094
507 2 20.0683 31.4565 -1.7559 20.0683 31.4565 -1.7559
508 1 20.9964 33.2198 -0.144826 20.9964 33.2198 -0.144826
509 2 22.9262 33.2225 1.46914 22.9262 33.2225 1.46914
510 2 22.9187 33.2172 -1.76774 22.9187 33.2172 -1.76774
511 1 23.8458 31.461 -0.148522 23.8458 31.461 -0.148522
512 2 25.7759 31.4639 1.46497 25.7759 31.4639 1.46497
513 2 25.7677 31.4583 -1.77189 25.7677 31.4583 -1.77189
514 1 26.6954 33.22 -0.158815 26.6954 33.22 -0.158815
515 2 28.6245 33.2197 1.45589 28.6245 33.2197 1.45589
516 2 28.6183 33.2205 -1.78099 28.6183 33.2205 -1.78099
517 1 29.5448 31.4612 -0.164619 29.5448 31.4612 -0.164619
518 2 31.475 31.4619 1.44876 31.475 31.4619 1.44876
519 2 31.4666 31.4607 -1.7881 31.4666 31.4607 -1.7881
520 1 32.3944 33.2202 -0.172655 32.3944 33.2202 -0.172655
521 2 34.3238 33.2164 1.44165 34.3238 33.2164 1.44165
522 2 34.3171 33.2243 -1.79521 34.3171 33.2243 -1.79521
523 1 35.2439 31.4614 -0.182886 35.2439 31.4614 -0.182886
524 2 37.1742 31.4592 1.43026 37.1742 31.4592 1.43026
525 2 37.1655 31.4639 -1.80658 37.1655 31.4639 -1.80658
526 1 38.0935 33.2204 -0.187995 38.0935 33.2204 -0.187995
527 2 40.0227 33.215 1.42658 40.0227 33.215 1.42658
528 2 40.0164 33.226 -1.81026 40.0164 33.226 -1.81026
529 1 40.9429 31.4615 -0.199519 40.9429 31.4615 -0.199519
530 2 42.8707 31.4584 1.41672 42.8707 31.4584 1.41672
531 2 42.8672 31.4646 -1.82012 42.8672 31.4646 -1.82012
532 1 43.7926 33.2204 -0.199205 43.7926 33.2204 -0.199205
533 2 45.7184 33.2183 1.4194 45.7184 33.2183 1.4194
534 2 45.7188 33.2224 -1.81745 45.7188 33.2224 -1.81745
535 1 46.6421 31.4614 -0.201209 46.6421 31.4614 -0.201209
536 2 48.5628 31.4623 1.42355 48.5628 31.4623 1.42355
537 2 48.5734 31.4604 -1.81328 48.5734 31.4604 -1.81328