ITEM: TIMESTEP
3802000
ITEM: NUMBER OF ATOMS
810
ITEM: BOX BOUNDS pp pp pp
8.6298438867990135e-01 5.2154620611319167e+01
-8.5747738939350899e+00 5.9590988893934671e+01
-1.0000000000000000e+01 1.0000000000000000e+01
ITEM: ATOMS id type x y z xu yu zu
1 1 1.06957 57.5176 -0.258359 1.06957 -10.6481 -0.258359
2 2 2.96756 57.5227 1.3754 2.96756 -10.6431 1.3754
3 2 2.9719 57.5138 -1.88706 2.9719 -10.652 -1.88706
4 1 3.91896 59.1654 -0.258964 3.91896 -9.00041 -0.258964
5 2 5.81398 59.164 1.3781 5.81398 -9.00179 1.3781
6 2 5.82396 59.1655 -1.88422 5.82396 -9.0003 -1.88422
7 1 6.7686 57.5182 -0.251134 6.7686 -10.6476 -0.251134
8 2 8.66355 57.527 1.38595 8.66355 -10.6388 1.38595
9 2 8.67408 57.5101 -1.87644 8.67408 -10.6557 -1.87644
10 1 9.61827 59.1656 -0.250844 9.61827 -9.0002 -0.250844
11 2 11.5093 59.167 1.39066 11.5093 -8.99873 1.39066
12 2 11.5274 59.1623 -1.87159 11.5274 -9.00342 -1.87159
13 1 12.468 57.518 -0.232882 12.468 -10.6477 -0.232882
14 2 14.3558 57.5298 1.41278 14.3558 -10.636 1.41278
15 2 14.3807 57.5063 -1.84948 14.3807 -10.6595 -1.84948
16 1 15.3179 59.1649 -0.223282 15.3179 -9.00089 -0.223282
17 2 17.2035 59.172 1.42449 17.2035 -8.99377 1.42449
18 2 17.2327 59.1552 -1.83763 17.2327 -9.01059 -1.83763
19 1 18.1677 57.517 -0.189261 18.1677 -10.6487 -0.189261
20 2 20.0473 57.5287 1.46595 20.0473 -10.6371 1.46595
21 2 20.0886 57.5052 -1.79613 20.0886 -10.6606 -1.79613
22 1 21.0178 59.1636 -0.165126 21.0178 -9.00214 -0.165126
23 2 22.9009 59.1662 1.48571 22.9009 -8.99961 1.48571
24 2 22.9349 59.1583 -1.77642 22.9349 -9.00743 -1.77642
25 1 23.8673 57.5155 -0.13158 23.8673 -10.6502 -0.13158
26 2 25.7626 57.5195 1.50513 25.7626 -10.6463 1.50513
27 2 25.7727 57.5108 -1.75731 25.7727 -10.655 -1.75731
28 1 26.7173 59.1619 -0.127682 26.7173 -9.00391 -0.127682
29 2 28.6137 59.1623 1.50763 28.6137 -9.00342 1.50763
30 2 28.621 59.1586 -1.75473 28.621 -9.00716 -1.75473
31 1 29.5668 57.5138 -0.119285 29.5668 -10.6519 -0.119285
32 2 31.4577 57.51 1.52288 31.4577 -10.6557 1.52288
33 2 31.4762 57.5177 -1.73956 31.4762 -10.6481 -1.73956
34 1 32.4163 59.1608 -0.098936 32.4163 -9.00498 -0.098936
35 2 34.3075 59.1521 1.54278 34.3075 -9.01368 1.54278
36 2 34.325 59.1679 -1.71951 34.325 -8.99788 -1.71951
37 1 35.2659 57.5135 -0.0912335 35.2659 -10.6522 -0.0912335
38 2 37.1751 57.4963 1.52903 37.1751 -10.6695 1.52903
39 2 37.157 57.532 -1.73322 37.157 -10.6338 -1.73322
40 1 38.1153 59.1612 -0.0892106 38.1153 -9.00456 -0.0892106
41 2 40.0286 59.1414 1.52598 40.0286 -9.02438 1.52598
42 2 40.0017 59.1804 -1.73604 40.0017 -8.98534 -1.73604
43 1 40.9646 57.5146 -0.133184 40.9646 -10.6511 -0.133184
44 2 42.888 57.4953 1.47003 42.888 -10.6704 1.47003
45 2 42.841 57.536 -1.79186 42.841 -10.6298 -1.79186
46 1 43.8137 59.1628 -0.154071 43.8137 -9.00295 -0.154071
47 2 45.7376 59.1444 1.44812 45.7376 -9.02137 1.44812
48 2 45.6891 59.1809 -1.81369 45.6891 -8.98482 -1.81369
49 1 46.6627 57.5163 -0.21603 46.6627 -10.6495 -0.21603
50 2 48.5766 57.5092 1.39891 48.5766 -10.6565 1.39891
51 2 48.5488 57.5252 -1.86341 48.5488 -10.6405 -1.86341
52 1 49.5118 59.1645 -0.232143 49.5118 -9.00127 -0.232143
53 2 51.4225 59.1572 1.38639 51.4225 -9.00858 1.38639
54 2 51.4009 59.1712 -1.87587 51.4009 -8.99459 -1.87587
55 1 1.06948 -7.35488 -0.243596 1.06948 -7.35488 -0.243596
56 2 2.97897 -7.35241 1.37734 2.97897 -7.35241 1.37734
57 2 2.96143 -7.35283 -1.88515 2.96143 -7.35283 -1.88515
58 1 3.92287 -5.70507 -0.258865 3.92287 -5.70507 -0.258865
59 2 5.80734 -5.7096 1.37663 5.80734 -5.7096 1.37663
60 2 5.8114 -5.72146 -1.88676 5.8114 -5.72146 -1.88676
61 1 6.76865 -7.35452 -0.249189 6.76865 -7.35452 -0.249189
62 2 8.66836 -7.35531 1.3829 8.66836 -7.35531 1.3829
63 2 8.67054 -7.34938 -1.87959 8.67054 -7.34938 -1.87959
64 1 9.62237 -5.70481 -0.245374 9.62237 -5.70481 -0.245374
65 2 11.4965 -5.72902 1.4003 11.4965 -5.72902 1.4003
66 2 11.5213 -5.70148 -1.86282 11.5213 -5.70148 -1.86282
67 1 12.4682 -7.35456 -0.237892 12.4682 -7.35456 -0.237892
68 2 14.3508 -7.36985 1.41447 14.3508 -7.36985 1.41447
69 2 14.3874 -7.33605 -1.84763 14.3874 -7.33605 -1.84763
70 1 15.3221 -5.7059 -0.188938 15.3221 -5.7059 -0.188938
71 2 17.2019 -5.74561 1.44905 17.2019 -5.74561 1.44905
72 2 17.2155 -5.68799 -1.81376 17.2155 -5.68799 -1.81376
73 1 18.1683 -7.35582 -0.206779 18.1683 -7.35582 -0.206779
74 2 20.0507 -7.34496 1.44582 20.0507 -7.34496 1.44582
75 2 20.0877 -7.3636 -1.81639 20.0877 -7.3636 -1.81639
76 1 21.0225 -5.70709 -0.183179 21.0225 -5.70709 -0.183179
77 2 22.8902 -5.70784 1.47151 22.8902 -5.70784 1.47151
78 2 22.928 -5.72839 -1.79156 22.928 -5.72839 -1.79156
79 1 23.868 -7.35731 -0.139357 23.868 -7.35731 -0.139357
80 2 25.7606 -7.35829 1.50123 25.7606 -7.35829 1.50123
81 2 25.7771 -7.35349 -1.76125 25.7771 -7.35349 -1.76125
82 1 26.7218 -5.70861 -0.123085 26.7218 -5.70861 -0.123085
83 2 28.6048 -5.72556 1.51199 28.6048 -5.72556 1.51199
84 2 28.6116 -5.71377 -1.75146 28.6116 -5.71377 -1.75146
85 1 29.5671 -7.35896 -0.123253 29.5671 -7.35896 -0.123253
86 2 31.4582 -7.35017 1.51943 31.4582 -7.35017 1.51943
87 2 31.4774 -7.3641 -1.74305 31.4774 -7.3641 -1.74305
88 1 32.4206 -5.70971 -0.112652 32.4206 -5.70971 -0.112652
89 2 34.295 -5.70399 1.53353 34.295 -5.70399 1.53353
90 2 34.3183 -5.73629 -1.72978 34.3183 -5.73629 -1.72978
91 1 35.2658 -7.35921 -0.0750692 35.2658 -7.35921 -0.0750692
92 2 37.1731 -7.35964 1.54855 37.1731 -7.35964 1.54855
93 2 37.1599 -7.35408 -1.71396 37.1599 -7.35408 -1.71396
94 1 38.119 -5.7092 -0.0838612 38.119 -5.7092 -0.0838612
95 2 40.0147 -5.71242 1.53684 40.0147 -5.71242 1.53684
96 2 39.9959 -5.72588 -1.72651 39.9959 -5.72588 -1.72651
97 1 40.9647 -7.35819 -0.0930916 40.9647 -7.35819 -0.0930916
98 2 42.8819 -7.38739 1.5189 42.8819 -7.38739 1.5189
99 2 42.8488 -7.32365 -1.74283 42.8488 -7.32365 -1.74283
100 1 43.8181 -5.708 -0.0898031 43.8181 -5.708 -0.0898031
101 2 45.7376 -5.74691 1.50087 45.7376 -5.74691 1.50087
102 2 45.671 -5.68879 -1.76138 45.671 -5.68879 -1.76138
103 1 46.6629 -7.35641 -0.17832 46.6629 -7.35641 -0.17832
104 2 48.5799 -7.37856 1.43395 48.5799 -7.37856 1.43395
105 2 48.547 -7.32872 -1.82804 48.547 -7.32872 -1.82804
106 1 49.516 -5.70605 -0.181058 49.516 -5.70605 -0.181058
107 2 51.4255 -5.737 1.42315 51.4255 -5.737 1.42315
108 2 51.3787 -5.69476 -1.83971 51.3787 -5.69476 -1.83971
109 1 1.03957 -4.07256 -0.200208 1.03957 -4.07256 -0.200208
110 2 3.03687 -4.05064 1.3607 3.03687 -4.05064 1.3607
111 2 2.96488 -4.05855 -1.84689 2.96488 -4.05855 -1.84689
112 1 3.8513 -2.34586 -0.265003 3.8513 -2.34586 -0.265003
113 2 5.64676 -2.63054 1.41669 5.64676 -2.63054 1.41669
114 2 5.61274 -2.69856 -1.96713 5.61274 -2.69856 -1.96713
115 1 6.73837 -4.07188 -0.257306 6.73837 -4.07188 -0.257306
116 2 8.68563 -4.06971 1.36551 8.68563 -4.06971 1.36551
117 2 8.7149 -4.03906 -1.84258 8.7149 -4.03906 -1.84258
118 1 9.55128 -2.34588 -0.214786 9.55128 -2.34588 -0.214786
119 2 11.3163 -2.6829 1.48808 11.3163 -2.6829 1.48808
120 2 11.3427 -2.64737 -1.89683 11.3427 -2.64737 -1.89683
121 1 12.4384 -4.07199 -0.210331 12.4384 -4.07199 -0.210331
122 2 14.3688 -4.08806 1.43117 14.3688 -4.08806 1.43117
123 2 14.4316 -4.02273 -1.77591 14.4316 -4.02273 -1.77591
124 1 15.2514 -2.3476 -0.121709 15.2514 -2.3476 -0.121709
125 2 17.0119 -2.72364 1.57681 17.0119 -2.72364 1.57681
126 2 17.0475 -2.61039 -1.80613 17.0475 -2.61039 -1.80613
127 1 18.1384 -4.07372 -0.151302 18.1384 -4.07372 -0.151302
128 2 20.122 -4.05069 1.42692 20.122 -4.05069 1.42692
129 2 20.0789 -4.06227 -1.78113 20.0789 -4.06227 -1.78113
130 1 20.9518 -2.34811 -0.193005 20.9518 -2.34811 -0.193005
131 2 22.7318 -2.63157 1.50541 22.7318 -2.63157 1.50541
132 2 22.7284 -2.70368 -1.87888 22.7284 -2.70368 -1.87888
133 1 23.8385 -4.07468 -0.15748 23.8385 -4.07468 -0.15748
134 2 25.779 -4.0616 1.47264 25.779 -4.0616 1.47264
135 2 25.8218 -4.05398 -1.73544 25.8218 -4.05398 -1.73544
136 1 26.6517 -2.3493 -0.116882 26.6517 -2.3493 -0.116882
137 2 28.4164 -2.68632 1.58565 28.4164 -2.68632 1.58565
138 2 28.4433 -2.65162 -1.79905 28.4433 -2.65162 -1.79905
139 1 29.5375 -4.07653 -0.112771 29.5375 -4.07653 -0.112771
140 2 31.5076 -4.0447 1.4813 31.5076 -4.0447 1.4813
141 2 31.4907 -4.07334 -1.72699 31.4907 -4.07334 -1.72699
142 1 32.3497 -2.3503 -0.141731 32.3497 -2.3503 -0.141731
143 2 34.1265 -2.63821 1.55834 34.1265 -2.63821 1.55834
144 2 34.1297 -2.70008 -1.82561 34.1297 -2.70008 -1.82561
145 1 35.2355 -4.07692 -0.106741 35.2355 -4.07692 -0.106741
146 2 37.1923 -4.04459 1.50268 37.1923 -4.04459 1.50268
147 2 37.2015 -4.0734 -1.70556 37.2015 -4.0734 -1.70556
148 1 38.0475 -2.3501 -0.114973 38.0475 -2.3501 -0.114973
149 2 39.8261 -2.66134 1.57839 39.8261 -2.66134 1.57839
150 2 39.8246 -2.67767 -1.80732 39.8246 -2.67767 -1.80732
151 1 40.9343 -4.07559 -0.107403 40.9343 -4.07559 -0.107403
152 2 42.875 -4.07413 1.52067 42.875 -4.07413 1.52067
153 2 42.9169 -4.04061 -1.6873 42.9169 -4.04061 -1.6873
154 1 43.7463 -2.34873 -0.0563216 43.7463 -2.34873 -0.0563216
155 2 45.5283 -2.72493 1.61902 45.5283 -2.72493 1.61902
156 2 45.5215 -2.60916 -1.76339 45.5215 -2.60916 -1.76339
157 1 46.6329 -4.07409 -0.122616 46.6329 -4.07409 -0.122616
158 2 48.615 -4.07555 1.45577 48.615 -4.07555 1.45577
159 2 48.5739 -4.03597 -1.75216 48.5739 -4.03597 -1.75216
160 1 49.445 -2.34691 -0.137848 49.445 -2.34691 -0.137848
161 2 51.2451 -2.68972 1.52669 51.2451 -2.68972 1.52669
162 2 51.2016 -2.64083 -1.85732 51.2016 -2.64083 -1.85732
163 1 1.0152 17.9241 -0.197961 1.0152 17.9241 -0.197961
164 2 2.78998 18.2106 1.50441 2.78998 18.2106 1.50441
165 2 2.79762 18.2754 -1.87911 2.79762 18.2754 -1.87911
166 1 3.90102 19.6514 -0.157794 3.90102 19.6514 -0.157794
167 2 5.85497 19.6165 1.45502 5.85497 19.6165 1.45502
168 2 5.87052 19.6521 -1.75317 5.87052 19.6521 -1.75317
169 1 6.71384 17.9258 -0.164716 6.71384 17.9258 -0.164716
170 2 8.49523 18.2428 1.52404 8.49523 18.2428 1.52404
171 2 8.48953 18.2471 -1.86006 8.48953 18.2471 -1.86006
172 1 9.59922 19.6537 -0.168325 9.59922 19.6537 -0.168325
173 2 11.5903 19.6053 1.39932 11.5903 19.6053 1.39932
174 2 11.5308 19.668 -1.80802 11.5308 19.668 -1.80802
175 1 12.4108 17.9285 -0.25243 12.4108 17.9285 -0.25243
176 2 14.2026 18.1884 1.43677 14.2026 18.1884 1.43677
177 2 14.1767 18.3052 -1.94482 14.1767 18.3052 -1.94482
178 1 15.297 19.6551 -0.213219 15.297 19.6551 -0.213219
179 2 17.2522 19.6161 1.39958 17.2522 19.6161 1.39958
180 2 17.2653 19.6592 -1.80852 17.2653 19.6592 -1.80852
181 1 18.1097 17.9291 -0.223881 18.1097 17.9291 -0.223881
182 2 19.8751 18.2153 1.48806 19.8751 18.2153 1.48806
183 2 19.901 18.2805 -1.89576 19.901 18.2805 -1.89576
184 1 20.9957 19.6555 -0.167982 20.9957 19.6555 -0.167982
185 2 22.9345 19.6305 1.4636 22.9345 19.6305 1.4636
186 2 22.9799 19.6453 -1.74445 22.9799 19.6453 -1.74445
187 1 23.8078 17.9291 -0.136855 23.8078 17.9291 -0.136855
188 2 25.5733 18.2538 1.56727 25.5733 18.2538 1.56727
189 2 25.5987 18.242 -1.81758 25.5987 18.242 -1.81758
190 1 26.6945 19.6549 -0.121641 26.6945 19.6549 -0.121641
191 2 28.6435 19.6473 1.4969 28.6435 19.6473 1.4969
192 2 28.669 19.6257 -1.71139 28.669 19.6257 -1.71139
193 1 29.5063 17.9276 -0.0900192 29.5063 17.9276 -0.0900192
194 2 31.29 18.2838 1.58831 31.29 18.2838 1.58831
195 2 31.28 18.2064 -1.79525 31.28 18.2064 -1.79525
196 1 32.3941 19.652 -0.139288 32.3941 19.652 -0.139288
197 2 34.389 19.6378 1.42457 34.389 19.6378 1.42457
198 2 34.3227 19.6297 -1.78309 34.3227 19.6297 -1.78309
199 1 35.2064 17.9249 -0.191247 35.2064 17.9249 -0.191247
200 2 37.0044 18.2256 1.48475 37.0044 18.2256 1.48475
201 2 36.9653 18.2609 -1.89973 36.9653 18.2609 -1.89973
202 1 38.0941 19.65 -0.205471 38.0941 19.65 -0.205471
203 2 40.0671 19.6387 1.38676 40.0671 19.6387 1.38676
204 2 40.0456 19.6252 -1.82152 40.0456 19.6252 -1.82152
205 1 40.907 17.9232 -0.215244 40.907 17.9232 -0.215244
206 2 42.688 18.2323 1.47675 42.688 18.2323 1.47675
207 2 42.6836 18.2502 -1.90758 42.6836 18.2502 -1.90758
208 1 43.7943 19.6489 -0.209472 43.7943 19.6489 -0.209472
209 2 45.7395 19.6393 1.41506 45.7395 19.6393 1.41506
210 2 45.7732 19.6237 -1.79311 45.7732 19.6237 -1.79311
211 1 46.6073 17.923 -0.17228 46.6073 17.923 -0.17228
212 2 48.3737 18.2585 1.52893 48.3737 18.2585 1.52893
213 2 48.398 18.225 -1.85527 48.398 18.225 -1.85527
214 1 49.4938 19.6497 -0.169819 49.4938 19.6497 -0.169819
215 2 51.4609 19.6139 1.42801 51.4609 19.6139 1.42801
216 2 51.4506 19.6512 -1.78018 51.4506 19.6512 -1.78018
217 1 1.08539 21.2835 -0.159741 1.08539 21.2835 -0.159741
218 2 2.95988 21.2747 1.48624 2.95988 21.2747 1.48624
219 2 2.98343 21.3141 -1.77691 2.98343 21.3141 -1.77691
220 1 3.93016 22.934 -0.118662 3.93016 22.934 -0.118662
221 2 5.83001 22.9234 1.51352 5.83001 22.9234 1.51352
222 2 5.83169 22.942 -1.74894 5.83169 22.942 -1.74894
223 1 6.78379 21.2853 -0.126777 6.78379 21.2853 -0.126777
224 2 8.68554 21.2841 1.48605 8.68554 21.2841 1.48605
225 2 8.65436 21.3091 -1.77724 8.65436 21.3091 -1.77724
226 1 9.62858 22.9361 -0.141752 9.62858 22.9361 -0.141752
227 2 11.5428 22.912 1.47339 11.5428 22.912 1.47339
228 2 11.5156 22.9571 -1.78874 11.5156 22.9571 -1.78874
229 1 12.4819 21.2874 -0.188255 12.4819 21.2874 -0.188255
230 2 14.3667 21.2673 1.44631 14.3667 21.2673 1.44631
231 2 14.3696 21.329 -1.81664 14.3696 21.329 -1.81664
232 1 15.3271 22.9372 -0.154124 15.3271 22.9372 -0.154124
233 2 17.2297 22.916 1.47478 17.2297 22.916 1.47478
234 2 17.2259 22.9549 -1.78754 17.2259 22.9549 -1.78754
235 1 18.1804 21.2881 -0.177472 18.1804 21.2881 -0.177472
236 2 20.0494 21.2769 1.47483 20.0494 21.2769 1.47483
237 2 20.0839 21.3204 -1.78818 20.0839 21.3204 -1.78818
238 1 21.0259 22.9376 -0.124747 21.0259 22.9376 -0.124747
239 2 22.9201 22.9291 1.51426 22.9201 22.9291 1.51426
240 2 22.9332 22.9422 -1.74823 22.9332 22.9422 -1.74823
241 1 23.8793 21.2882 -0.120008 23.8793 21.2882 -0.120008
242 2 25.7623 21.293 1.51491 25.7623 21.293 1.51491
243 2 25.769 21.3038 -1.74854 25.769 21.3038 -1.74854
244 1 26.7255 22.9371 -0.108912 26.7255 22.9371 -0.108912
245 2 28.6314 22.94 1.51645 28.6314 22.94 1.51645
246 2 28.6213 22.9283 -1.74603 28.6213 22.9283 -1.74603
247 1 29.579 21.2865 -0.11217 29.579 21.2865 -0.11217
248 2 31.4883 21.3119 1.4911 31.4883 21.3119 1.4911
249 2 31.4425 21.2798 -1.7718 31.4425 21.2798 -1.7718
250 1 32.425 22.9345 -0.169564 32.425 22.9345 -0.169564
251 2 34.3401 22.924 1.44492 34.3401 22.924 1.44492
252 2 34.3118 22.9394 -1.81739 34.3118 22.9394 -1.81739
253 1 35.2784 21.2839 -0.202059 35.2784 21.2839 -0.202059
254 2 37.1681 21.2929 1.42697 37.1681 21.2929 1.42697
255 2 37.1622 21.2945 -1.83635 37.1622 21.2945 -1.83635
256 1 38.1249 22.9327 -0.206626 38.1249 22.9327 -0.206626
257 2 40.0309 22.9171 1.41804 40.0309 22.9171 1.41804
258 2 40.0207 22.9432 -1.84428 40.0207 22.9432 -1.84428
259 1 40.9785 21.2824 -0.229631 40.9785 21.2824 -0.229631
260 2 42.8536 21.2909 1.41601 42.8536 21.2909 1.41601
261 2 42.8768 21.2939 -1.84726 42.8768 21.2939 -1.84726
262 1 43.8244 22.9318 -0.207438 43.8244 22.9318 -0.207438
263 2 45.7147 22.9314 1.43595 45.7147 22.9314 1.43595
264 2 45.7358 22.9282 -1.82646 45.7358 22.9282 -1.82646
265 1 46.678 21.2822 -0.187579 46.678 21.2822 -0.187579
266 2 48.5567 21.2983 1.45271 48.5567 21.2983 1.45271
267 2 48.5722 21.2875 -1.81065 48.5722 21.2875 -1.81065
268 1 49.5234 22.9325 -0.179336 49.5234 22.9325 -0.179336
269 2 51.4076 22.9208 1.4714 51.4076 22.9208 1.4714
270 2 51.4407 22.941 -1.79087 51.4407 22.941 -1.79087
271 1 1.08055 24.5792 -0.139721 1.08055 24.5792 -0.139721
272 2 2.96707 24.5778 1.50725 2.96707 24.5778 1.50725
273 2 2.99378 24.5833 -1.75496 2.99378 24.5833 -1.75496
274 1 3.92933 26.2277 -0.1132 3.92933 26.2277 -0.1132
275 2 5.83073 26.2351 1.51669 5.83073 26.2351 1.51669
276 2 5.82828 26.2209 -1.74575 5.82828 26.2209 -1.74575
277 1 6.77903 24.581 -0.107821 6.77903 24.581 -0.107821
278 2 8.69333 24.5739 1.5064 8.69333 24.5739 1.5064
279 2 8.66453 24.591 -1.75579 8.66453 24.591 -1.75579
280 1 9.62806 26.2293 -0.12438 9.62806 26.2293 -0.12438
281 2 11.5397 26.2311 1.49351 11.5397 26.2311 1.49351
282 2 11.5166 26.2278 -1.76892 11.5166 26.2278 -1.76892
283 1 12.4776 24.5825 -0.142453 12.4776 24.5825 -0.142453
284 2 14.3818 24.5785 1.48432 14.3818 24.5785 1.48432
285 2 14.3732 24.5889 -1.77804 14.3732 24.5889 -1.77804
286 1 15.327 26.2303 -0.144133 15.327 26.2303 -0.144133
287 2 17.2248 26.2322 1.48996 17.2248 26.2322 1.48996
288 2 17.2294 26.2281 -1.77256 17.2294 26.2281 -1.77256
289 1 18.1765 24.5832 -0.13754 18.1765 24.5832 -0.13754
290 2 20.0682 24.582 1.50373 20.0682 24.582 1.50373
291 2 20.0846 24.5863 -1.75861 20.0846 24.5863 -1.75861
292 1 21.0261 26.2305 -0.120438 21.0261 26.2305 -0.120438
293 2 22.9189 26.2308 1.5196 22.9189 26.2308 1.5196
294 2 22.9338 26.2294 -1.74287 22.9338 26.2294 -1.74287
295 1 23.8758 24.5832 -0.106518 23.8758 24.5832 -0.106518
296 2 25.7751 24.5803 1.52546 25.7751 24.5803 1.52546
297 2 25.7767 24.5869 -1.73689 25.7767 24.5869 -1.73689
298 1 26.7258 26.2297 -0.101959 26.7258 26.2297 -0.101959
299 2 28.6372 26.2266 1.51617 28.6372 26.2266 1.51617
300 2 28.6152 26.2305 -1.74623 28.6152 26.2305 -1.74623
301 1 29.5756 24.5815 -0.123813 29.5756 24.5815 -0.123813
302 2 31.4974 24.5745 1.48126 31.4974 24.5745 1.48126
303 2 31.4539 24.588 -1.78074 31.4539 24.588 -1.78074
304 1 32.4255 26.2275 -0.155556 32.4255 26.2275 -0.155556
305 2 34.3366 26.2144 1.46301 34.3366 26.2144 1.46301
306 2 34.315 26.2383 -1.79928 34.315 26.2383 -1.79928
307 1 35.2751 24.5792 -0.186689 35.2751 24.5792 -0.186689
308 2 37.1814 24.5701 1.43747 37.1814 24.5701 1.43747
309 2 37.1692 24.5887 -1.82475 37.1692 24.5887 -1.82475
310 1 38.1249 26.2259 -0.187492 38.1249 26.2259 -0.187492
311 2 40.0264 26.212 1.44237 40.0264 26.212 1.44237
312 2 40.0239 26.2381 -1.81996 40.0239 26.2381 -1.81996
313 1 40.9746 24.5779 -0.202795 40.9746 24.5779 -0.202795
314 2 42.8729 24.5709 1.43062 42.8729 24.5709 1.43062
315 2 42.8766 24.586 -1.83164 42.8766 24.586 -1.83164
316 1 43.824 26.2252 -0.191298 43.824 26.2252 -0.191298
317 2 45.7235 26.2243 1.44094 45.7235 26.2243 1.44094
318 2 45.7248 26.2256 -1.82152 45.7248 26.2256 -1.82152
319 1 46.6737 24.5779 -0.19068 46.6737 24.5779 -0.19068
320 2 48.5656 24.5761 1.44995 48.5656 24.5761 1.44995
321 2 48.5818 24.5819 -1.81233 48.5818 24.5819 -1.81233
322 1 49.5227 26.226 -0.173234 49.5227 26.226 -0.173234
323 2 51.4063 26.2301 1.47761 51.4063 26.2301 1.47761
324 2 51.4392 26.2222 -1.78469 51.4392 26.2222 -1.78469
325 1 1.07975 27.8735 -0.147702 1.07975 27.8735 -0.147702
326 2 2.96897 27.8892 1.49631 2.96897 27.8892 1.49631
327 2 2.99053 27.8594 -1.76601 2.99053 27.8594 -1.76601
328 1 3.92855 29.5214 -0.143855 3.92855 29.5214 -0.143855
329 2 5.82629 29.5387 1.48988 5.82629 29.5387 1.48988
330 2 5.83103 29.5049 -1.77245 5.83103 29.5049 -1.77245
331 1 6.77837 27.8752 -0.122596 6.77837 27.8752 -0.122596
332 2 8.68586 27.8868 1.49978 8.68586 27.8868 1.49978
333 2 8.67101 27.8649 -1.76267 8.67101 27.8649 -1.76267
334 1 9.62745 29.5227 -0.147335 9.62745 29.5227 -0.147335
335 2 11.5315 29.5306 1.47912 11.5315 29.5306 1.47912
336 2 11.5237 29.5153 -1.78336 11.5237 29.5153 -1.78336
337 1 12.4773 27.8764 -0.146343 12.4773 27.8764 -0.146343
338 2 14.3804 27.8839 1.48145 14.3804 27.8839 1.48145
339 2 14.3743 27.8696 -1.78108 14.3743 27.8696 -1.78108
340 1 15.3266 29.5235 -0.158959 15.3266 29.5235 -0.158959
341 2 17.2201 29.5281 1.48015 17.2201 29.5281 1.48015
342 2 17.2335 29.5189 -1.78234 17.2335 29.5189 -1.78234
343 1 18.1765 27.8769 -0.142262 18.1765 27.8769 -0.142262
344 2 20.0674 27.8825 1.49979 20.0674 27.8825 1.49979
345 2 20.0857 27.8716 -1.7627 20.0857 27.8716 -1.7627
346 1 21.026 29.5236 -0.131548 21.026 29.5236 -0.131548
347 2 22.9172 29.5307 1.51028 22.9172 29.5307 1.51028
348 2 22.9351 29.5158 -1.75216 22.9351 29.5158 -1.75216
349 1 23.8759 27.8766 -0.107998 23.8759 27.8766 -0.107998
350 2 25.7736 27.8778 1.52631 25.7736 27.8778 1.52631
351 2 25.7787 27.8748 -1.73623 25.7787 27.8748 -1.73623
352 1 26.7257 29.5227 -0.104993 26.7257 29.5227 -0.104993
353 2 28.636 29.5248 1.51456 28.636 29.5248 1.51456
354 2 28.616 29.5188 -1.74787 28.616 29.5188 -1.74787
355 1 29.5758 27.875 -0.119395 29.5758 27.875 -0.119395
356 2 31.4911 27.8647 1.49406 31.4911 27.8647 1.49406
357 2 31.4609 27.8838 -1.76826 31.4609 27.8838 -1.76826
358 1 32.4253 29.5208 -0.136105 32.4253 29.5208 -0.136105
359 2 34.3395 29.5185 1.47898 34.3395 29.5185 1.47898
360 2 34.3115 29.5215 -1.78339 34.3115 29.5215 -1.78339
361 1 35.2752 27.8731 -0.161983 35.2752 27.8731 -0.161983
362 2 37.1845 27.8631 1.45875 37.1845 27.8631 1.45875
363 2 37.1661 27.8822 -1.80365 37.1661 27.8822 -1.80365
364 1 38.1244 29.5195 -0.167801 38.1244 29.5195 -0.167801
365 2 40.0311 29.5221 1.45603 40.0311 29.5221 1.45603
366 2 40.0179 29.516 -1.80642 40.0179 29.516 -1.80642
367 1 40.9742 27.8721 -0.176068 40.9742 27.8721 -0.176068
368 2 42.8823 27.8708 1.446 42.8823 27.8708 1.446
369 2 42.8664 27.8732 -1.81647 42.8664 27.8732 -1.81647
370 1 43.8231 29.5191 -0.188541 43.8231 29.5191 -0.188541
371 2 45.7282 29.5271 1.43699 45.7282 29.5271 1.43699
372 2 45.7182 29.511 -1.82544 45.7182 29.511 -1.82544
373 1 46.673 27.8722 -0.188947 46.673 27.8722 -0.188947
374 2 48.5676 27.8783 1.44892 48.5676 27.8783 1.44892
375 2 48.5784 27.867 -1.81357 48.5784 27.867 -1.81357
376 1 49.5217 29.5198 -0.184784 49.5217 29.5198 -0.184784
377 2 51.4103 29.5366 1.45998 51.4103 29.5366 1.45998
378 2 51.4331 29.5037 -1.80227 51.4331 29.5037 -1.80227
379 1 1.07877 31.1673 -0.181218 1.07877 31.1673 -0.181218
380 2 2.96791 31.1859 1.46256 2.96791 31.1859 1.46256
381 2 2.98967 31.1498 -1.79969 2.98967 31.1498 -1.79969
382 1 3.92759 32.8149 -0.180691 3.92759 32.8149 -0.180691
383 2 5.81988 32.825 1.45933 5.81988 32.825 1.45933
384 2 5.83543 32.8056 -1.80311 5.83543 32.8056 -1.80311
385 1 6.77753 31.1688 -0.157447 6.77753 31.1688 -0.157447
386 2 8.67679 31.1779 1.47444 8.67679 31.1779 1.47444
387 2 8.67848 31.1605 -1.78806 8.67848 31.1605 -1.78806
388 1 9.62661 32.8161 -0.165525 9.62661 32.8161 -0.165525
389 2 11.5223 32.8116 1.47078 11.5223 32.8116 1.47078
390 2 11.5313 32.821 -1.79173 11.5313 32.821 -1.79173
391 1 12.4767 31.1698 -0.162567 12.4767 31.1698 -0.162567
392 2 14.3737 31.1684 1.47212 14.3737 31.1684 1.47212
393 2 14.3799 31.1716 -1.79042 14.3799 31.1716 -1.79042
394 1 15.3259 32.8168 -0.155627 15.3259 32.8168 -0.155627
395 2 17.2222 32.8142 1.48003 17.2222 32.8142 1.48003
396 2 17.2298 32.8192 -1.7825 17.2298 32.8192 -1.7825
397 1 18.176 31.1702 -0.15174 18.176 31.1702 -0.15174
398 2 20.068 31.176 1.48895 20.068 31.176 1.48895
399 2 20.0842 31.1642 -1.77354 20.0842 31.1642 -1.77354
400 1 21.0253 32.8167 -0.143286 21.0253 32.8167 -0.143286
401 2 22.922 32.83 1.4921 22.922 32.83 1.4921
402 2 22.929 32.8025 -1.77032 22.929 32.8025 -1.77032
403 1 23.8755 31.1698 -0.123062 23.8755 31.1698 -0.123062
404 2 25.7735 31.1827 1.511 25.7735 31.1827 1.511
405 2 25.7779 31.1557 -1.75142 25.7779 31.1557 -1.75142
406 1 26.7249 32.8157 -0.132599 26.7249 32.8157 -0.132599
407 2 28.6309 32.8316 1.49184 28.6309 32.8316 1.49184
408 2 28.6194 32.7982 -1.77049 28.6194 32.7982 -1.77049
409 1 29.5752 31.1683 -0.12545 29.5752 31.1683 -0.12545
410 2 31.4869 31.1765 1.49249 31.4869 31.1765 1.49249
411 2 31.4639 31.1586 -1.76989 31.4639 31.1586 -1.76989
412 1 32.4245 32.8142 -0.154521 32.4245 32.8142 -0.154521
413 2 34.3375 32.8316 1.46156 34.3375 32.8316 1.46156
414 2 34.3117 32.7956 -1.80064 34.3117 32.7956 -1.80064
415 1 35.2745 31.1668 -0.158591 35.2745 31.1668 -0.158591
416 2 37.1847 31.1742 1.46121 37.1847 31.1742 1.46121
417 2 37.1646 31.1585 -1.80119 37.1646 31.1585 -1.80119
418 1 38.1234 32.8133 -0.183911 38.1234 32.8133 -0.183911
419 2 40.0308 32.827 1.4389 40.0308 32.827 1.4389
420 2 40.0162 32.7988 -1.82345 40.0162 32.7988 -1.82345
421 1 40.9733 31.1661 -0.182091 40.9733 31.1661 -0.182091
422 2 42.8818 31.174 1.43925 42.8818 31.174 1.43925
423 2 42.8649 31.1578 -1.82317 42.8649 31.1578 -1.82317
424 1 43.822 32.813 -0.20555 43.822 32.813 -0.20555
425 2 45.7258 32.8199 1.42113 45.7258 32.8199 1.42113
426 2 45.7182 32.806 -1.84134 45.7182 32.806 -1.84134
427 1 46.6718 31.1662 -0.205276 46.6718 31.1662 -0.205276
428 2 48.5676 31.1791 1.43101 48.5676 31.1791 1.43101
429 2 48.5761 31.1538 -1.8314 48.5761 31.1538 -1.8314
430 1 49.5206 32.8136 -0.21065 49.5206 32.8136 -0.21065
431 2 51.41 32.8248 1.43285 51.41 32.8248 1.43285
432 2 51.4311 32.8031 -1.82953 51.4311 32.8031 -1.82953
433 1 1.07767 34.4611 -0.203188 1.07767 34.4611 -0.203188
434 2 2.96863 34.4682 1.43848 2.96863 34.4682 1.43848
435 2 2.98679 34.4546 -1.82397 2.98679 34.4546 -1.82397
436 1 3.92651 36.1085 -0.194246 3.92651 36.1085 -0.194246
437 2 5.81814 36.1107 1.4469 5.81814 36.1107 1.4469
438 2 5.83498 36.1069 -1.81559 5.83498 36.1069 -1.81559
439 1 6.77652 34.4623 -0.177427 6.77652 34.4623 -0.177427
440 2 8.66827 34.4599 1.46347 8.66827 34.4599 1.46347
441 2 8.68496 34.4652 -1.79902 8.68496 34.4652 -1.79902
442 1 9.62544 36.1095 -0.160239 9.62544 36.1095 -0.160239
443 2 11.5172 36.1021 1.48088 11.5172 36.1021 1.48088
444 2 11.5339 36.117 -1.78158 11.5339 36.117 -1.78158
445 1 12.4757 34.4632 -0.153094 12.4757 34.4632 -0.153094
446 2 14.3721 34.4545 1.48245 14.3721 34.4545 1.48245
447 2 14.3796 34.4719 -1.78003 14.3796 34.4719 -1.78003
448 1 15.3247 36.11 -0.137582 15.3247 36.11 -0.137582
449 2 17.2285 36.1081 1.48939 17.2285 36.1081 1.48939
450 2 17.2213 36.1117 -1.77314 17.2213 36.1117 -1.77314
451 1 18.175 34.4635 -0.146159 18.175 34.4635 -0.146159
452 2 20.0774 34.4701 1.48247 20.0774 34.4701 1.48247
453 2 20.073 34.4562 -1.78005 20.073 34.4562 -1.78005
454 1 21.0241 36.1098 -0.156934 21.0241 36.1098 -0.156934
455 2 22.9274 36.1204 1.47077 22.9274 36.1204 1.47077
456 2 22.9213 36.0981 -1.79169 22.9213 36.0981 -1.79169
457 1 23.8745 34.4628 -0.150955 23.8745 34.4628 -0.150955
458 2 25.7742 34.479 1.48097 25.7742 34.479 1.48097
459 2 25.7753 34.4452 -1.7814 25.7753 34.4452 -1.7814
460 1 26.7237 36.1086 -0.167139 26.7237 36.1086 -0.167139
461 2 28.6297 36.1251 1.45709 28.6297 36.1251 1.45709
462 2 28.6181 36.0905 -1.80524 28.6181 36.0905 -1.80524
463 1 29.5742 34.4614 -0.159762 29.5742 34.4614 -0.159762
464 2 31.4833 34.4812 1.46082 31.4833 34.4812 1.46082
465 2 31.4654 34.4402 -1.8014 31.4654 34.4402 -1.8014
466 1 32.4232 36.1073 -0.196688 32.4232 36.1073 -0.196688
467 2 34.3321 36.1234 1.42383 34.3321 36.1234 1.42383
468 2 34.3145 36.0903 -1.83846 34.3145 36.0903 -1.83846
469 1 35.2734 34.4603 -0.195518 35.2734 34.4603 -0.195518
470 2 37.178 34.4788 1.43041 37.178 34.4788 1.43041
471 2 37.169 34.4411 -1.83187 37.169 34.4411 -1.83187
472 1 38.1222 36.1069 -0.222993 38.1222 36.1069 -0.222993
473 2 40.019 36.1124 1.41197 40.019 36.1124 1.41197
474 2 40.0257 36.101 -1.85051 40.0257 36.101 -1.85051
475 1 40.9722 34.4599 -0.211246 40.9722 34.4599 -0.211246
476 2 42.8723 34.4653 1.41987 42.8723 34.4653 1.41987
477 2 42.8722 34.4542 -1.84263 42.8722 34.4542 -1.84263
478 1 43.821 36.1069 -0.217591 43.821 36.1069 -0.217591
479 2 45.7156 36.096 1.41953 45.7156 36.096 1.41953
480 2 45.7264 36.1178 -1.84289 45.7264 36.1178 -1.84289
481 1 46.6707 34.4601 -0.219641 46.6707 34.4601 -0.219641
482 2 48.5657 34.4607 1.4173 48.5657 34.4607 1.4173
483 2 48.5757 34.4598 -1.8452 48.5757 34.4598 -1.8452
484 1 49.5195 36.1075 -0.211425 49.5195 36.1075 -0.211425
485 2 51.4125 36.1042 1.4278 51.4125 36.1042 1.4278
486 2 51.4265 36.1112 -1.83469 51.4265 36.1112 -1.83469
487 1 1.0766 37.7548 -0.195417 1.0766 37.7548 -0.195417
488 2 2.97538 37.7542 1.43727 2.97538 37.7542 1.43727
489 2 2.97792 37.7559 -1.82526 2.97792 37.7559 -1.82526
490 1 3.92533 39.4021 -0.191992 3.92533 39.4021 -0.191992
491 2 5.82257 39.4077 1.44271 5.82257 39.4077 1.44271
492 2 5.8282 39.3968 -1.81981 5.8282 39.3968 -1.81981
493 1 6.77533 37.7558 -0.18121 6.77533 37.7558 -0.18121
494 2 8.66425 37.7568 1.46337 8.66425 37.7568 1.46337
495 2 8.68649 37.755 -1.79909 8.68649 37.755 -1.79909
496 1 9.62404 39.4029 -0.16223 9.62404 39.4029 -0.16223
497 2 11.5133 39.4079 1.48188 11.5133 39.4079 1.48188
498 2 11.5349 39.398 -1.78056 11.5349 39.398 -1.78056
499 1 12.4743 37.7565 -0.137812 12.4743 37.7565 -0.137812
500 2 14.373 37.7542 1.49528 14.373 37.7542 1.49528
501 2 14.376 37.7588 -1.76724 14.376 37.7588 -1.76724
502 1 15.3232 39.4034 -0.132859 15.3232 39.4034 -0.132859
503 2 17.2296 39.4051 1.49098 17.2296 39.4051 1.49098
504 2 17.2173 39.4012 -1.77151 17.2173 39.4012 -1.77151
505 1 18.1737 37.7567 -0.142107 18.1737 37.7567 -0.142107
506 2 20.0844 37.7602 1.47668 20.0844 37.7602 1.47668
507 2 20.0634 37.7524 -1.78577 20.0634 37.7524 -1.78577
508 1 21.0227 39.4031 -0.164658 21.0227 39.4031 -0.164658
509 2 22.9296 39.4055 1.45864 22.9296 39.4055 1.45864
510 2 22.9162 39.3993 -1.80384 22.9162 39.3993 -1.80384
511 1 23.8732 37.7559 -0.173517 23.8732 37.7559 -0.173517
512 2 25.776 37.7661 1.45457 25.776 37.7661 1.45457
513 2 25.7709 37.7441 -1.80789 25.7709 37.7441 -1.80789
514 1 26.7223 39.4018 -0.189597 26.7223 39.4018 -0.189597
515 2 28.6243 39.3987 1.43929 28.6243 39.3987 1.43929
516 2 28.6207 39.4033 -1.82322 28.6207 39.4033 -1.82322
517 1 29.5727 37.7545 -0.195423 29.5727 37.7545 -0.195423
518 2 31.4788 37.7632 1.4285 31.4788 37.7632 1.4285
519 2 31.4671 37.7444 -1.83394 31.4671 37.7444 -1.83394
520 1 32.4218 39.4007 -0.216032 32.4218 39.4007 -0.216032
521 2 34.3249 39.3925 1.41132 34.3249 39.3925 1.41132
522 2 34.3191 39.4082 -1.85114 34.3191 39.4082 -1.85114
523 1 35.2721 37.7537 -0.229678 35.2721 37.7537 -0.229678
524 2 37.17 37.7564 1.40397 37.17 37.7564 1.40397
525 2 37.1746 37.7507 -1.85852 37.1746 37.7507 -1.85852
526 1 38.1212 39.4006 -0.229019 38.1212 39.4006 -0.229019
527 2 40.0079 39.3823 1.41781 40.0079 39.3823 1.41781
528 2 40.0349 39.4187 -1.84437 40.0349 39.4187 -1.84437
529 1 40.9712 37.7538 -0.223653 40.9712 37.7538 -0.223653
530 2 42.8578 37.7365 1.42306 42.8578 37.7365 1.42306
531 2 42.8848 37.771 -1.83915 42.8848 37.771 -1.83915
532 1 43.8201 39.4006 -0.182856 43.8201 39.4006 -0.182856
533 2 45.7096 39.3682 1.46023 45.7096 39.3682 1.46023
534 2 45.7307 39.433 -1.80156 45.7307 39.433 -1.80156