ITEM: TIMESTEP
3301000
ITEM: NUMBER OF ATOMS
810
ITEM: BOX BOUNDS pp pp pp
8.6298438867990135e-01 5.2154620611319167e+01
-7.3375964139784644e+00 5.8353811413978043e+01
-1.0000000000000000e+01 1.0000000000000000e+01
ITEM: ATOMS id type x y z xu yu zu
1 1 1.08285 56.8251 -0.176184 1.08285 -8.86632 -0.176184
2 2 2.98723 56.8218 1.45025 2.98723 -8.86963 1.45025
3 2 2.97905 56.8291 -1.81212 2.97905 -8.86228 -1.81212
4 1 3.93268 -7.21877 -0.179497 3.93268 -7.21877 -0.179497
5 2 5.83773 -7.22033 1.44583 5.83773 -7.22033 1.44583
6 2 5.82778 -7.2187 -1.81643 5.82778 -7.2187 -1.81643
7 1 6.78189 56.8249 -0.189137 6.78189 -8.86651 -0.189137
8 2 8.68542 56.8257 1.43828 8.68542 -8.86573 1.43828
9 2 8.67895 56.825 -1.82411 8.67895 -8.86645 -1.82411
10 1 9.63174 -7.21891 -0.19508 9.63174 -7.21891 -0.19508
11 2 11.5348 -7.21774 1.43266 11.5348 -7.21774 1.43266
12 2 11.5289 -7.22144 -1.82961 11.5289 -7.22144 -1.82961
13 1 12.481 56.8249 -0.198452 12.481 -8.86653 -0.198452
14 2 14.3792 56.8308 1.4352 14.3792 -8.8606 1.4352
15 2 14.3835 56.82 -1.82716 14.3835 -8.87144 -1.82716
16 1 15.3309 -7.21882 -0.200189 15.3309 -7.21882 -0.200189
17 2 17.2213 -7.21601 1.44231 17.2213 -7.21601 1.44231
18 2 17.2406 -7.22276 -1.81991 17.2406 -7.22276 -1.81991
19 1 18.1802 56.8251 -0.179733 18.1802 -8.8663 -0.179733
20 2 20.0672 56.834 1.46686 20.0672 -8.85738 1.46686
21 2 20.0936 56.8174 -1.79538 20.0936 -8.87403 -1.79538
22 1 21.0299 -7.21848 -0.165096 21.0299 -7.21848 -0.165096
23 2 22.9189 -7.2154 1.47873 22.9189 -7.2154 1.47873
24 2 22.9411 -7.22263 -1.78346 22.9411 -7.22263 -1.78346
25 1 23.8792 56.8255 -0.142316 23.8792 -8.86595 -0.142316
26 2 25.7808 56.8348 1.48702 25.7808 -8.85663 1.48702
27 2 25.7782 56.8171 -1.77532 25.7782 -8.87427 -1.77532
28 1 26.729 -7.21822 -0.154374 26.729 -7.21822 -0.154374
29 2 28.6372 -7.22056 1.46646 28.6372 -7.22056 1.46646
30 2 28.6208 -7.21725 -1.79578 28.6208 -7.21725 -1.79578
31 1 29.5782 56.8256 -0.171222 29.5782 -8.86586 -0.171222
32 2 31.4914 56.834 1.44429 31.4914 -8.85743 1.44429
33 2 31.4655 56.8179 -1.81794 31.4655 -8.87351 -1.81794
34 1 32.4279 -7.21815 -0.203165 32.4279 -7.21815 -0.203165
35 2 34.333 -7.22327 1.42156 34.333 -7.22327 1.42156
36 2 34.323 -7.2146 -1.84065 34.323 -7.2146 -1.84065
37 1 35.2773 56.8255 -0.216834 35.2773 -8.86594 -0.216834
38 2 37.1705 56.8381 1.4227 37.1705 -8.85329 1.4227
39 2 37.1849 56.8136 -1.83954 37.1849 -8.87784 -1.83954
40 1 38.1272 -7.21822 -0.216899 38.1272 -7.21822 -0.216899
41 2 40.0151 -7.2164 1.42833 40.0151 -7.2164 1.42833
42 2 40.0395 -7.22167 -1.83383 40.0395 -7.22167 -1.83383
43 1 40.9765 56.8254 -0.192743 40.9765 -8.86602 -0.192743
44 2 42.8631 56.8397 1.45423 42.8631 -8.85166 1.45423
45 2 42.8904 56.8119 -1.80792 42.8904 -8.87949 -1.80792
46 1 43.8262 -7.21835 -0.183189 43.8262 -7.21835 -0.183189
47 2 45.7193 -7.2147 1.45591 45.7193 -7.2147 1.45591
48 2 45.7333 -7.22351 -1.80632 45.7333 -7.22351 -1.80632
49 1 46.6755 56.8253 -0.166383 46.6755 -8.86609 -0.166383
50 2 48.5766 56.8297 1.4637 48.5766 -8.86167 1.4637
51 2 48.575 56.8216 -1.79868 48.575 -8.86979 -1.79868
52 1 49.5253 -7.21853 -0.172221 49.5253 -7.21853 -0.172221
53 2 51.4268 -7.22085 1.45721 51.4268 -7.22085 1.45721
54 2 51.424 -7.21776 -1.80506 51.424 -7.21776 -1.80506
55 1 1.08343 -5.57262 -0.17323 1.08343 -5.57262 -0.17323
56 2 2.98664 -5.57254 1.45518 2.98664 -5.57254 1.45518
57 2 2.98185 -5.56862 -1.80728 2.98185 -5.56862 -1.80728
58 1 3.93705 -3.92296 -0.175405 3.93705 -3.92296 -0.175405
59 2 5.8302 -3.93337 1.44836 5.8302 -3.93337 1.44836
60 2 5.81667 -3.93338 -1.81503 5.81667 -3.93338 -1.81503
61 1 6.78246 -5.57283 -0.187306 6.78246 -5.57283 -0.187306
62 2 8.68964 -5.56732 1.43643 8.68964 -5.56732 1.43643
63 2 8.6769 -5.5742 -1.82601 8.6769 -5.5742 -1.82601
64 1 9.63605 -3.92316 -0.201981 9.63605 -3.92316 -0.201981
65 2 11.5249 -3.92915 1.42719 11.5249 -3.92915 1.42719
66 2 11.52 -3.93788 -1.83622 11.52 -3.93788 -1.83622
67 1 12.4815 -5.57291 -0.202007 12.4815 -5.57291 -0.202007
68 2 14.3829 -5.56775 1.42836 14.3829 -5.56775 1.42836
69 2 14.3818 -5.57369 -1.8341 14.3818 -5.57369 -1.8341
70 1 15.3351 -3.92306 -0.206429 15.3351 -3.92306 -0.206429
71 2 17.2101 -3.93344 1.43883 17.2101 -3.93344 1.43883
72 2 17.233 -3.93312 -1.8245 17.233 -3.93312 -1.8245
73 1 18.1806 -5.57265 -0.186606 18.1806 -5.57265 -0.186606
74 2 20.0693 -5.56984 1.45858 20.0693 -5.56984 1.45858
75 2 20.0935 -5.57092 -1.80379 20.0935 -5.57092 -1.80379
76 1 21.0341 -3.92269 -0.16623 21.0341 -3.92269 -0.16623
77 2 22.9074 -3.9392 1.4804 22.9074 -3.9392 1.4804
78 2 22.9336 -3.92651 -1.78287 22.9336 -3.92651 -1.78287
79 1 23.8796 -5.57227 -0.149935 23.8796 -5.57227 -0.149935
80 2 25.7762 -5.58148 1.48599 25.7762 -5.58148 1.48599
81 2 25.7848 -5.55869 -1.77639 25.7848 -5.55869 -1.77639
82 1 26.7332 -3.92251 -0.131613 26.7332 -3.92251 -0.131613
83 2 28.624 -3.96074 1.49352 28.624 -3.96074 1.49352
84 2 28.6153 -3.90488 -1.76939 28.6153 -3.90488 -1.76939
85 1 29.5787 -5.57209 -0.168432 29.5787 -5.57209 -0.168432
86 2 31.4842 -5.59558 1.4567 31.4842 -5.59558 1.4567
87 2 31.4748 -5.54445 -1.80534 31.4748 -5.54445 -1.80534
88 1 32.4323 -3.92258 -0.151595 32.4323 -3.92258 -0.151595
89 2 34.3247 -3.97778 1.47141 34.3247 -3.97778 1.47141
90 2 34.3127 -3.88803 -1.79073 34.3127 -3.88803 -1.79073
91 1 35.2777 -5.57197 -0.208471 35.2777 -5.57197 -0.208471
92 2 37.1721 -5.58906 1.43003 37.1721 -5.58906 1.43003
93 2 37.1853 -5.55089 -1.83214 37.1853 -5.55089 -1.83214
94 1 38.1314 -3.92241 -0.17766 38.1314 -3.92241 -0.17766
95 2 40.0113 -3.96448 1.46131 40.0113 -3.96448 1.46131
96 2 40.0244 -3.90121 -1.80145 40.0244 -3.90121 -1.80145
97 1 40.9769 -5.57219 -0.198431 40.9769 -5.57219 -0.198431
98 2 42.867 -5.57321 1.44503 42.867 -5.57321 1.44503
99 2 42.8886 -5.56707 -1.81734 42.8886 -5.56707 -1.81734
100 1 43.8306 -3.92249 -0.176376 43.8306 -3.92249 -0.176376
101 2 45.7109 -3.94298 1.46265 45.7109 -3.94298 1.46265
102 2 45.7231 -3.92288 -1.80068 45.7231 -3.92288 -1.80068
103 1 46.676 -5.57239 -0.175778 46.676 -5.57239 -0.175778
104 2 48.575 -5.56978 1.45734 48.575 -5.56978 1.45734
105 2 48.5787 -5.5709 -1.80513 48.5787 -5.5709 -1.80513
106 1 49.5296 -3.92271 -0.173283 49.5296 -3.92271 -0.173283
107 2 51.4153 -3.93456 1.45948 51.4153 -3.93456 1.45948
108 2 51.4167 -3.93171 -1.80393 51.4167 -3.93171 -1.80393
109 1 1.05355 -2.2898 -0.170067 1.05355 -2.2898 -0.170067
110 2 3.01869 -2.27142 1.42994 3.01869 -2.27142 1.42994
111 2 3.01205 -2.27307 -1.77843 3.01205 -2.27307 -1.77843
112 1 3.86619 -0.563481 -0.177015 3.86619 -0.563481 -0.177015
113 2 5.64967 -0.883861 1.50958 5.64967 -0.883861 1.50958
114 2 5.63944 -0.881029 -1.87516 5.63944 -0.881029 -1.87516
115 1 6.75258 -2.29005 -0.187379 6.75258 -2.29005 -0.187379
116 2 8.72546 -2.26765 1.40335 8.72546 -2.26765 1.40335
117 2 8.70322 -2.27728 -1.80495 8.70322 -2.27728 -1.80495
118 1 9.56508 -0.563699 -0.211522 9.56508 -0.563699 -0.211522
119 2 11.35 -0.870337 1.47651 11.35 -0.870337 1.47651
120 2 11.3369 -0.894864 -1.90812 11.3369 -0.894864 -1.90812
121 1 12.4515 -2.29016 -0.209606 12.4515 -2.29016 -0.209606
122 2 14.4109 -2.27463 1.39811 14.4109 -2.27463 1.39811
123 2 14.4158 -2.27022 -1.81027 14.4158 -2.27022 -1.81027
124 1 15.264 -0.563596 -0.202259 15.264 -0.563596 -0.202259
125 2 17.0354 -0.877933 1.4985 17.0354 -0.877933 1.4985
126 2 17.0493 -0.886839 -1.88622 17.0493 -0.886839 -1.88622
127 1 18.1505 -2.28987 -0.185497 18.1505 -2.28987 -0.185497
128 2 20.0976 -2.27935 1.43687 20.0976 -2.27935 1.43687
129 2 20.1269 -2.26486 -1.77134 20.1269 -2.26486 -1.77134
130 1 20.9629 -0.56331 -0.15171 20.9629 -0.56331 -0.15171
131 2 22.7278 -0.890953 1.55314 22.7278 -0.890953 1.55314
132 2 22.7547 -0.87328 -1.83154 22.7547 -0.87328 -1.83154
133 1 23.8496 -2.28945 -0.137605 23.8496 -2.28945 -0.137605
134 2 25.7936 -2.29636 1.48783 25.7936 -2.29636 1.48783
135 2 25.8291 -2.2475 -1.71999 25.8291 -2.2475 -1.71999
136 1 26.6621 -0.563508 -0.0811507 26.6621 -0.563508 -0.0811507
137 2 28.4341 -0.92469 1.60904 28.4341 -0.92469 1.60904
138 2 28.4471 -0.839911 -1.77453 28.4471 -0.839911 -1.77453
139 1 29.5488 -2.28958 -0.113578 29.5488 -2.28958 -0.113578
140 2 31.5047 -2.31923 1.49732 31.5047 -2.31923 1.49732
141 2 31.5168 -2.22545 -1.70967 31.5168 -2.22545 -1.70967
142 1 32.3617 -0.564488 -0.0532403 32.3617 -0.564488 -0.0532403
143 2 34.1418 -0.943807 1.62447 34.1418 -0.943807 1.62447
144 2 34.1385 -0.822482 -1.75789 34.1385 -0.822482 -1.75789
145 1 35.248 -2.29017 -0.118654 35.248 -2.29017 -0.118654
146 2 37.2191 -2.31376 1.47423 37.2191 -2.31376 1.47423
147 2 37.2003 -2.23085 -1.73301 37.2003 -2.23085 -1.73301
148 1 38.0605 -0.564017 -0.0894213 38.0605 -0.564017 -0.0894213
149 2 39.8437 -0.917944 1.59115 39.8437 -0.917944 1.59115
150 2 39.834 -0.84765 -1.79292 39.834 -0.84765 -1.79292
151 1 40.947 -2.28989 -0.13404 40.947 -2.28989 -0.13404
152 2 42.9225 -2.28993 1.45396 42.9225 -2.28993 1.45396
153 2 42.8951 -2.254 -1.7541 42.8951 -2.254 -1.7541
154 1 43.7595 -0.56323 -0.137363 43.7595 -0.56323 -0.137363
155 2 45.5447 -0.887932 1.5472 45.5447 -0.887932 1.5472
156 2 45.5312 -0.876292 -1.83751 45.5312 -0.876292 -1.83751
157 1 46.6461 -2.28961 -0.154788 46.6461 -2.28961 -0.154788
158 2 48.616 -2.27634 1.43979 48.616 -2.27634 1.43979
159 2 48.5998 -2.2677 -1.76854 48.5998 -2.2677 -1.76854
160 1 49.4587 -0.563253 -0.163807 49.4587 -0.563253 -0.163807
161 2 51.2419 -0.88041 1.52404 51.2419 -0.88041 1.52404
162 2 51.2323 -0.884061 -1.86072 51.2323 -0.884061 -1.86072
163 1 0.999026 17.2229 -0.199154 0.999026 17.2229 -0.199154
164 2 2.77858 17.5254 1.49477 2.77858 17.5254 1.49477
165 2 2.77627 17.558 -1.8899 2.77627 17.558 -1.8899
166 1 3.88591 18.949 -0.184449 3.88591 18.949 -0.184449
167 2 5.84828 18.9191 1.41867 5.84828 18.9191 1.41867
168 2 5.84745 18.9439 -1.78959 5.84745 18.9439 -1.78959
169 1 6.69872 17.2228 -0.199267 6.69872 17.2228 -0.199267
170 2 8.4804 17.5345 1.49087 8.4804 17.5345 1.49087
171 2 8.47384 17.549 -1.89389 8.47384 17.549 -1.89389
172 1 9.58549 18.9492 -0.197471 9.58549 18.9492 -0.197471
173 2 11.5509 18.9196 1.40267 11.5509 18.9196 1.40267
174 2 11.544 18.9444 -1.80558 11.544 18.9444 -1.80558
175 1 12.3985 17.2234 -0.216137 12.3985 17.2234 -0.216137
176 2 14.1741 17.5211 1.48334 14.1741 17.5211 1.48334
177 2 14.1797 17.5639 -1.90106 14.1797 17.5639 -1.90106
178 1 15.2849 18.9502 -0.189212 15.2849 18.9502 -0.189212
179 2 17.2409 18.9146 1.42214 17.2409 18.9146 1.42214
180 2 17.2526 18.9515 -1.78599 17.2526 18.9515 -1.78599
181 1 18.0978 17.2245 -0.198362 18.0978 17.2245 -0.198362
182 2 19.8661 17.5187 1.50911 19.8661 17.5187 1.50911
183 2 19.8861 17.5684 -1.87512 19.8861 17.5684 -1.87512
184 1 20.9838 18.9513 -0.15551 20.9838 18.9513 -0.15551
185 2 22.927 18.9243 1.47039 22.927 18.9243 1.47039
186 2 22.9637 18.9432 -1.73772 22.9637 18.9432 -1.73772
187 1 23.796 17.2249 -0.134808 23.796 17.2249 -0.134808
188 2 25.5643 17.548 1.56674 25.5643 17.548 1.56674
189 2 25.5845 17.5396 -1.81779 25.5845 17.5396 -1.81779
190 1 26.6823 18.9516 -0.122275 26.6823 18.9516 -0.122275
191 2 28.6382 18.9305 1.48801 28.6382 18.9305 1.48801
192 2 28.6496 18.9372 -1.72035 28.6496 18.9372 -1.72035
193 1 29.4944 17.225 -0.117325 29.4944 17.225 -0.117325
194 2 31.2752 17.5539 1.57003 31.2752 17.5539 1.57003
195 2 31.2704 17.5334 -1.81453 31.2704 17.5334 -1.81453
196 1 32.3809 18.9513 -0.132408 32.3809 18.9513 -0.132408
197 2 34.3569 18.9244 1.45389 34.3569 18.9244 1.45389
198 2 34.3282 18.9423 -1.75433 34.3282 18.9423 -1.75433
199 1 35.1928 17.2244 -0.167232 35.1928 17.2244 -0.167232
200 2 36.9833 17.5306 1.51476 36.9833 17.5306 1.51476
201 2 36.9592 17.5553 -1.86971 36.9592 17.5553 -1.86971
202 1 38.0796 18.9504 -0.175034 38.0796 18.9504 -0.175034
203 2 40.0549 18.9163 1.41278 40.0549 18.9163 1.41278
204 2 40.0278 18.949 -1.79533 40.0278 18.949 -1.79533
205 1 40.8918 17.2239 -0.215459 40.8918 17.2239 -0.215459
206 2 42.6754 17.5123 1.47719 42.6754 17.5123 1.47719
207 2 42.6652 17.5724 -1.90683 42.6652 17.5724 -1.90683
208 1 43.7787 18.9498 -0.193108 43.7787 18.9498 -0.193108
209 2 45.738 18.909 1.41403 45.738 18.909 1.41403
210 2 45.7432 18.9552 -1.794 45.7432 18.9552 -1.794
211 1 46.5912 17.2234 -0.213343 46.5912 17.2234 -0.213343
212 2 48.3658 17.5158 1.48775 48.3658 17.5158 1.48775
213 2 48.3735 17.5683 -1.89659 48.3735 17.5683 -1.89659
214 1 49.478 18.9493 -0.180084 49.478 18.9493 -0.180084
215 2 51.4358 18.9079 1.4283 51.4358 18.9079 1.4283
216 2 51.4441 18.9552 -1.77969 51.4441 18.9552 -1.77969
217 1 1.07046 20.582 -0.149201 1.07046 20.582 -0.149201
218 2 2.96615 20.5741 1.47143 2.96615 20.5741 1.47143
219 2 2.94777 20.6107 -1.79168 2.94777 20.6107 -1.79168
220 1 3.91648 22.2317 -0.146795 3.91648 22.2317 -0.146795
221 2 5.82845 22.2232 1.47149 5.82845 22.2232 1.47149
222 2 5.80624 22.2363 -1.79085 5.80624 22.2363 -1.79085
223 1 6.7699 20.5821 -0.173004 6.7699 20.5821 -0.173004
224 2 8.66526 20.5839 1.44819 8.66526 20.5839 1.44819
225 2 8.6475 20.6013 -1.81508 8.6475 20.6013 -1.81508
226 1 9.61573 22.2321 -0.179827 9.61573 22.2321 -0.179827
227 2 11.5174 22.2212 1.45057 11.5174 22.2212 1.45057
228 2 11.5158 22.2395 -1.81183 11.5158 22.2395 -1.81183
229 1 12.4693 20.5827 -0.190301 12.4693 20.5827 -0.190301
230 2 14.3477 20.5794 1.45124 14.3477 20.5794 1.45124
231 2 14.3637 20.6075 -1.812 14.3637 20.6075 -1.812
232 1 15.3149 22.2329 -0.161692 15.3149 22.2329 -0.161692
233 2 17.2077 22.2197 1.47892 17.2077 22.2197 1.47892
234 2 17.2236 22.2428 -1.78343 17.2236 22.2428 -1.78343
235 1 18.1683 20.5837 -0.159192 18.1683 20.5837 -0.159192
236 2 20.0429 20.5772 1.48646 20.0429 20.5772 1.48646
237 2 20.0663 20.6117 -1.77671 20.0663 20.6117 -1.77671
238 1 21.0138 22.2338 -0.12066 21.0138 22.2338 -0.12066
239 2 22.9122 22.2349 1.51357 22.9122 22.2349 1.51357
240 2 22.9169 22.2293 -1.74889 22.9169 22.2293 -1.74889
241 1 23.8671 20.5844 -0.113618 23.8671 20.5844 -0.113618
242 2 25.7557 20.5918 1.515 25.7557 20.5918 1.515
243 2 25.7512 20.5982 -1.74844 25.7512 20.5982 -1.74844
244 1 26.7128 22.2344 -0.114207 26.7128 22.2344 -0.114207
245 2 28.6179 22.2434 1.51233 28.6179 22.2434 1.51233
246 2 28.6091 22.2212 -1.75006 28.6091 22.2212 -1.75006
247 1 29.5659 20.5845 -0.110044 29.5659 20.5845 -0.110044
248 2 31.4656 20.5971 1.50557 31.4656 20.5971 1.50557
249 2 31.4388 20.5925 -1.75776 31.4388 20.5925 -1.75776
250 1 32.4116 22.234 -0.135882 32.4116 22.234 -0.135882
251 2 34.3221 22.2347 1.48434 34.3221 22.2347 1.48434
252 2 34.3027 22.2288 -1.77807 34.3027 22.2288 -1.77807
253 1 35.2646 20.5839 -0.1493 35.2646 20.5839 -0.1493
254 2 37.1621 20.5869 1.46975 37.1621 20.5869 1.46975
255 2 37.1398 20.601 -1.79357 37.1398 20.601 -1.79357
256 1 38.1105 22.2332 -0.161483 38.1105 22.2332 -0.161483
257 2 40.0182 22.2226 1.46183 40.0182 22.2226 1.46183
258 2 40.0044 22.2393 -1.80057 40.0044 22.2393 -1.80057
259 1 40.9635 20.5831 -0.181657 40.9635 20.5831 -0.181657
260 2 42.8469 20.5748 1.45436 42.8469 20.5748 1.45436
261 2 42.853 20.6118 -1.80883 42.853 20.6118 -1.80883
262 1 43.8095 22.2325 -0.157037 43.8095 22.2325 -0.157037
263 2 45.7071 22.2169 1.47814 45.7071 22.2169 1.47814
264 2 45.7136 22.2435 -1.78419 45.7136 22.2435 -1.78419
265 1 46.6627 20.5824 -0.164441 46.6627 20.5824 -0.164441
266 2 48.545 20.5695 1.47233 48.545 20.5695 1.47233
267 2 48.5533 20.6157 -1.79071 48.5533 20.6157 -1.79071
268 1 49.5087 22.2318 -0.133232 49.5087 22.2318 -0.133232
269 2 51.4116 22.2172 1.49582 51.4116 22.2172 1.49582
270 2 51.4077 22.2422 -1.76651 51.4077 22.2422 -1.76651
271 1 1.06706 23.8778 -0.123723 1.06706 23.8778 -0.123723
272 2 2.97742 23.8735 1.49536 2.97742 23.8735 1.49536
273 2 2.957 23.8836 -1.7668 2.957 23.8836 -1.7668
274 1 3.91703 25.5255 -0.136677 3.91703 25.5255 -0.136677
275 2 5.83167 25.5277 1.47763 5.83167 25.5277 1.47763
276 2 5.80293 25.5228 -1.78461 5.80293 25.5228 -1.78461
277 1 6.76628 23.8779 -0.159369 6.76628 23.8779 -0.159369
278 2 8.67595 23.8749 1.46065 8.67595 23.8749 1.46065
279 2 8.65679 23.8827 -1.80154 8.65679 23.8827 -1.80154
280 1 9.61609 25.5258 -0.172101 9.61609 25.5258 -0.172101
281 2 11.516 25.525 1.45985 11.516 25.525 1.45985
282 2 11.5168 25.5266 -1.80254 11.5168 25.5266 -1.80254
283 1 12.4654 23.8785 -0.171664 12.4654 23.8785 -0.171664
284 2 14.3577 23.8753 1.46896 14.3577 23.8753 1.46896
285 2 14.3733 23.8839 -1.79326 14.3733 23.8839 -1.79326
286 1 15.3151 25.5266 -0.153125 15.3151 25.5266 -0.153125
287 2 17.2068 25.5288 1.48822 17.2068 25.5288 1.48822
288 2 17.224 25.5246 -1.77413 17.224 25.5246 -1.77413
289 1 18.1644 23.8794 -0.135696 18.1644 23.8794 -0.135696
290 2 20.0576 23.8834 1.50357 20.0576 23.8834 1.50357
291 2 20.0712 23.8778 -1.75868 20.0712 23.8778 -1.75868
292 1 21.0142 25.5275 -0.126404 21.0142 25.5275 -0.126404
293 2 22.9181 25.5412 1.50045 22.9181 25.5412 1.50045
294 2 22.9109 25.5137 -1.76183 22.9109 25.5137 -1.76183
295 1 23.8635 23.8802 -0.118833 23.8635 23.8802 -0.118833
296 2 25.7682 23.8938 1.50676 25.7682 23.8938 1.50676
297 2 25.7588 23.8685 -1.75542 25.7588 23.8685 -1.75542
298 1 26.7133 25.5278 -0.139975 26.7133 25.5278 -0.139975
299 2 28.6205 25.5465 1.48305 28.6205 25.5465 1.48305
300 2 28.6066 25.5085 -1.7791 28.6066 25.5085 -1.7791
301 1 29.5625 23.8802 -0.13265 29.5625 23.8802 -0.13265
302 2 31.4714 23.8927 1.4881 31.4714 23.8927 1.4881
303 2 31.4536 23.869 -1.77406 31.4536 23.869 -1.77406
304 1 32.4123 25.5275 -0.160421 32.4123 25.5275 -0.160421
305 2 34.3171 25.5395 1.46546 34.3171 25.5395 1.46546
306 2 34.3079 25.5147 -1.79683 34.3079 25.5147 -1.79683
307 1 35.2614 23.8797 -0.155506 35.2614 23.8797 -0.155506
308 2 37.1683 23.8857 1.46775 37.1683 23.8857 1.46775
309 2 37.1545 23.8747 -1.79449 37.1545 23.8747 -1.79449
310 1 38.1113 25.5269 -0.173075 38.1113 25.5269 -0.173075
311 2 40.0106 25.5325 1.45927 40.0106 25.5325 1.45927
312 2 40.0125 25.5203 -1.8031 40.0125 25.5203 -1.8031
313 1 40.9603 23.8789 -0.164846 40.9603 23.8789 -0.164846
314 2 42.8564 23.8794 1.47143 42.8564 23.8794 1.47143
315 2 42.8644 23.8795 -1.79084 42.8644 23.8795 -1.79084
316 1 43.8103 25.5262 -0.157253 43.8103 25.5262 -0.157253
317 2 45.7018 25.5294 1.48436 45.7018 25.5294 1.48436
318 2 45.7193 25.522 -1.77796 45.7193 25.522 -1.77796
319 1 46.6594 23.8782 -0.137588 46.6594 23.8782 -0.137588
320 2 48.5544 23.8739 1.49975 48.5544 23.8739 1.49975
321 2 48.5646 23.8837 -1.76246 48.5646 23.8837 -1.76246
322 1 49.5094 25.5256 -0.123331 49.5094 25.5256 -0.123331
323 2 51.4119 25.5284 1.50544 51.4119 25.5284 1.50544
324 2 51.4076 25.5221 -1.7569 51.4076 25.5221 -1.7569
325 1 1.0679 27.1724 -0.130158 1.0679 27.1724 -0.130158
326 2 2.97711 27.1817 1.4904 2.97711 27.1817 1.4904
327 2 2.95913 27.1636 -1.7719 2.95913 27.1636 -1.7719
328 1 3.91793 28.8197 -0.155424 3.91793 28.8197 -0.155424
329 2 5.82798 28.8279 1.46408 5.82798 28.8279 1.46408
330 2 5.80836 28.8118 -1.79819 5.80836 28.8118 -1.79819
331 1 6.76694 27.1725 -0.164442 6.76694 27.1725 -0.164442
332 2 8.67392 27.1768 1.45892 8.67392 27.1768 1.45892
333 2 8.66037 27.169 -1.80346 8.66037 27.169 -1.80346
334 1 9.61694 28.82 -0.180246 9.61694 28.82 -0.180246
335 2 11.5134 28.8234 1.45549 11.5134 28.8234 1.45549
336 2 11.521 28.8174 -1.80687 11.521 28.8174 -1.80687
337 1 12.466 27.173 -0.170306 12.466 27.173 -0.170306
338 2 14.358 27.1761 1.47065 14.358 27.1761 1.47065
339 2 14.3744 27.1711 -1.79173 14.3744 27.1711 -1.79173
340 1 15.316 28.8208 -0.158286 15.316 28.8208 -0.158286
341 2 17.2093 28.8273 1.48088 17.2093 28.8273 1.48088
342 2 17.2231 28.815 -1.78145 17.2231 28.815 -1.78145
343 1 18.165 27.1739 -0.140081 18.165 27.1739 -0.140081
344 2 20.0637 27.1854 1.4928 20.0637 27.1854 1.4928
345 2 20.0668 27.1635 -1.76956 20.0668 27.1635 -1.76956
346 1 21.0151 28.8215 -0.148737 21.0151 28.8215 -0.148737
347 2 22.9208 28.8335 1.47564 22.9208 28.8335 1.47564
348 2 22.9098 28.81 -1.78664 22.9098 28.81 -1.78664
349 1 23.8641 27.1745 -0.146827 23.8641 27.1745 -0.146827
350 2 25.7707 27.1926 1.47667 25.7707 27.1926 1.47667
351 2 25.758 27.157 -1.78555 25.758 27.157 -1.78555
352 1 26.7141 28.8217 -0.176527 26.7141 28.8217 -0.176527
353 2 28.6175 28.8321 1.45084 28.6175 28.8321 1.45084
354 2 28.6113 28.8115 -1.81147 28.6113 28.8115 -1.81147
355 1 29.5632 27.1745 -0.171531 29.5632 27.1745 -0.171531
356 2 31.4653 27.1887 1.45734 31.4653 27.1887 1.45734
357 2 31.4615 27.1606 -1.80498 31.4615 27.1606 -1.80498
358 1 32.4133 28.8216 -0.189455 32.4133 28.8216 -0.189455
359 2 34.312 28.827 1.44343 34.312 28.827 1.44343
360 2 34.3151 28.816 -1.81893 34.3151 28.816 -1.81893
361 1 35.2623 27.1741 -0.181154 35.2623 27.1741 -0.181154
362 2 37.1628 27.1824 1.44962 37.1628 27.1824 1.44962
363 2 37.1622 27.1657 -1.81277 37.1622 27.1657 -1.81277
364 1 38.1124 28.821 -0.190307 38.1124 28.821 -0.190307
365 2 40.0089 28.8268 1.44518 40.0089 28.8268 1.44518
366 2 40.0164 28.8149 -1.81716 40.0164 28.8149 -1.81716
367 1 40.9614 27.1734 -0.177676 40.9614 27.1734 -0.177676
368 2 42.8548 27.1815 1.4615 42.8548 27.1815 1.4615
369 2 42.8683 27.1653 -1.80086 42.8683 27.1653 -1.80086
370 1 43.8115 28.8204 -0.173933 43.8115 28.8204 -0.173933
371 2 45.7017 28.8306 1.46904 45.7017 28.8306 1.46904
372 2 45.7218 28.8098 -1.7932 45.7218 28.8098 -1.7932
373 1 46.6604 27.1728 -0.145468 46.6604 27.1728 -0.145468
374 2 48.5537 27.1824 1.49388 48.5537 27.1824 1.49388
375 2 48.5675 27.1633 -1.76844 48.5675 27.1633 -1.76844
376 1 49.5105 28.8199 -0.143027 49.5105 28.8199 -0.143027
377 2 51.4108 28.8326 1.48798 51.4108 28.8326 1.48798
378 2 51.4108 28.8072 -1.77427 51.4108 28.8072 -1.77427
379 1 1.06906 30.467 -0.156229 1.06906 30.467 -0.156229
380 2 2.9749 30.4778 1.46814 2.9749 30.4778 1.46814
381 2 2.96372 30.4566 -1.79414 2.96372 30.4566 -1.79414
382 1 3.9193 32.1143 -0.177246 3.9193 32.1143 -0.177246
383 2 5.82402 32.1185 1.44852 5.82402 32.1185 1.44852
384 2 5.81511 32.1107 -1.81381 5.81511 32.1107 -1.81381
385 1 6.76804 30.4671 -0.181175 6.76804 30.4671 -0.181175
386 2 8.67007 30.4713 1.4479 8.67007 30.4713 1.4479
387 2 8.66653 30.4636 -1.81446 8.66653 30.4636 -1.81446
388 1 9.61832 32.1146 -0.188315 9.61832 32.1146 -0.188315
389 2 11.512 32.1152 1.45059 11.512 32.1152 1.45059
390 2 11.5252 32.1149 -1.81174 11.5252 32.1149 -1.81174
391 1 12.4671 30.4676 -0.176551 12.4671 30.4676 -0.176551
392 2 14.3584 30.4706 1.46513 14.3584 30.4706 1.46513
393 2 14.3763 30.4655 -1.7972 14.3763 30.4655 -1.7972
394 1 15.3173 32.1152 -0.163372 15.3173 32.1152 -0.163372
395 2 17.2122 32.1174 1.47394 17.2122 32.1174 1.47394
396 2 17.2229 32.1141 -1.78841 17.2229 32.1141 -1.78841
397 1 18.1661 30.4683 -0.152611 18.1661 30.4683 -0.152611
398 2 20.0672 30.4745 1.4773 20.0672 30.4745 1.4773
399 2 20.0655 30.463 -1.78508 20.0655 30.463 -1.78508
400 1 21.0164 32.1159 -0.160397 21.0164 32.1159 -0.160397
401 2 22.9219 32.1152 1.46442 22.9219 32.1152 1.46442
402 2 22.9115 32.1172 -1.79793 22.9115 32.1172 -1.79793
403 1 23.8652 30.4688 -0.170925 23.8652 30.4688 -0.170925
404 2 25.7708 30.4731 1.45377 25.7708 30.4731 1.45377
405 2 25.7602 30.4651 -1.80859 25.7602 30.4651 -1.80859
406 1 26.7156 32.1162 -0.184691 26.7156 32.1162 -0.184691
407 2 28.6163 32.1093 1.4459 28.6163 32.1093 1.4459
408 2 28.6155 32.1235 -1.81643 28.6155 32.1235 -1.81643
409 1 29.5644 30.4689 -0.192794 29.5644 30.4689 -0.192794
410 2 31.4623 30.4684 1.44101 31.4623 30.4684 1.44101
411 2 31.467 30.4696 -1.82137 31.467 30.4696 -1.82137
412 1 32.4148 32.116 -0.188177 32.4148 32.116 -0.188177
413 2 34.3132 32.1088 1.44509 34.3132 32.1088 1.44509
414 2 34.317 32.1233 -1.81724 34.317 32.1233 -1.81724
415 1 35.2635 30.4685 -0.192503 35.2635 30.4685 -0.192503
416 2 37.162 30.4678 1.44058 37.162 30.4678 1.44058
417 2 37.1656 30.4691 -1.8218 37.1656 30.4691 -1.8218
418 1 38.1139 32.1155 -0.188853 38.1139 32.1155 -0.188853
419 2 40.0136 32.1139 1.44288 40.0136 32.1139 1.44288
420 2 40.0148 32.1171 -1.81948 40.0148 32.1171 -1.81948
421 1 40.9627 30.4679 -0.189785 40.9627 30.4679 -0.189785
422 2 42.857 30.4733 1.44824 42.857 30.4733 1.44824
423 2 42.8688 30.4624 -1.81409 42.8688 30.4624 -1.81409
424 1 43.813 32.1149 -0.184924 43.813 32.1149 -0.184924
425 2 45.7068 32.1217 1.45375 45.7068 32.1217 1.45375
426 2 45.7197 32.108 -1.80855 45.7197 32.108 -1.80855
427 1 46.6617 30.4673 -0.166768 46.6617 30.4673 -0.166768
428 2 48.5553 30.4793 1.47202 48.5553 30.4793 1.47202
429 2 48.5685 30.4553 -1.79023 48.5685 30.4553 -1.79023
430 1 49.512 32.1145 -0.16751 49.512 32.1145 -0.16751
431 2 51.4114 32.1243 1.4645 51.4114 32.1243 1.4645
432 2 51.4131 32.1048 -1.79779 51.4131 32.1048 -1.79779
433 1 1.0707 33.7617 -0.176178 1.0707 33.7617 -0.176178
434 2 2.9737 33.7658 1.45159 2.9737 33.7658 1.45159
435 2 2.96824 33.7581 -1.81074 2.96824 33.7581 -1.81074
436 1 3.92115 35.4091 -0.185217 3.92115 35.4091 -0.185217
437 2 5.8221 35.4066 1.44508 5.8221 35.4066 1.44508
438 2 5.82078 35.4123 -1.81725 5.82078 35.4123 -1.81725
439 1 6.76967 33.7618 -0.189361 6.76967 33.7618 -0.189361
440 2 8.66823 33.7603 1.44378 8.66823 33.7603 1.44378
441 2 8.67168 33.7641 -1.81856 8.67168 33.7641 -1.81856
442 1 9.62015 35.4094 -0.184391 9.62015 35.4094 -0.184391
443 2 11.5139 35.4059 1.45452 11.5139 35.4059 1.45452
444 2 11.527 35.4138 -1.80779 11.527 35.4138 -1.80779
445 1 12.4687 33.7622 -0.17684 12.4687 33.7622 -0.17684
446 2 14.3607 33.7618 1.464 14.3607 33.7618 1.464
447 2 14.3772 33.7637 -1.79831 14.3772 33.7637 -1.79831
448 1 15.3192 35.4099 -0.161287 15.3192 35.4099 -0.161287
449 2 17.2156 35.4092 1.47438 17.2156 35.4092 1.47438
450 2 17.2233 35.4116 -1.78796 17.2233 35.4116 -1.78796
451 1 18.1678 33.7629 -0.155831 18.1678 33.7629 -0.155831
452 2 20.0692 33.7611 1.47385 20.0692 33.7611 1.47385
453 2 20.0669 33.7656 -1.78851 20.0669 33.7656 -1.78851
454 1 21.0183 35.4104 -0.155815 21.0183 35.4104 -0.155815
455 2 22.9217 35.4033 1.47171 22.9217 35.4033 1.47171
456 2 22.9156 35.4184 -1.79061 22.9156 35.4184 -1.79061
457 1 23.8669 33.7633 -0.168908 23.8669 33.7633 -0.168908
458 2 25.7705 33.7539 1.45833 25.7705 33.7539 1.45833
459 2 25.7639 33.7734 -1.80396 25.7639 33.7734 -1.80396
460 1 26.7175 35.4107 -0.164793 26.7175 35.4107 -0.164793
461 2 28.6182 35.3983 1.46602 28.6182 35.3983 1.46602
462 2 28.6175 35.4235 -1.79623 28.6175 35.4235 -1.79623
463 1 29.5661 33.7634 -0.178216 29.5661 33.7634 -0.178216
464 2 31.4651 33.7517 1.45445 31.4651 33.7517 1.45445
465 2 31.4677 33.7754 -1.80782 31.4677 33.7754 -1.80782
466 1 32.4167 35.4105 -0.163679 32.4167 35.4105 -0.163679
467 2 34.3195 35.4015 1.46464 34.3195 35.4015 1.46464
468 2 34.3146 35.4199 -1.79765 34.3146 35.4199 -1.79765
469 1 35.2653 33.7631 -0.177468 35.2653 33.7631 -0.177468
470 2 37.1678 33.756 1.45105 37.1678 33.756 1.45105
471 2 37.1634 33.7703 -1.81127 37.1634 33.7703 -1.81127
472 1 38.1159 35.4102 -0.174027 38.1159 35.4102 -0.174027
473 2 40.0208 35.4065 1.45168 40.0208 35.4065 1.45168
474 2 40.0115 35.4141 -1.81064 40.0115 35.4141 -1.81064
475 1 40.9644 33.7626 -0.186202 40.9644 33.7626 -0.186202
476 2 42.8639 33.7627 1.44585 42.8639 33.7627 1.44585
477 2 42.8654 33.7625 -1.8165 42.8654 33.7625 -1.8165
478 1 43.8149 35.4097 -0.184914 43.8149 35.4097 -0.184914
479 2 45.7138 35.4117 1.44792 45.7138 35.4117 1.44792
480 2 45.7165 35.4078 -1.81441 45.7165 35.4078 -1.81441
481 1 46.6634 33.762 -0.180548 46.6634 33.762 -0.180548
482 2 48.5598 33.7683 1.45515 48.5598 33.7683 1.45515
483 2 48.5676 33.7559 -1.80716 48.5676 33.7559 -1.80716
484 1 49.5138 35.4093 -0.180038 49.5138 35.4093 -0.180038
485 2 51.4137 35.4127 1.45151 51.4137 35.4127 1.45151
486 2 51.4145 35.4062 -1.81082 51.4145 35.4062 -1.81082
487 1 1.07273 37.0566 -0.182781 1.07273 37.0566 -0.182781
488 2 2.97345 37.0553 1.44781 2.97345 37.0553 1.44781
489 2 2.97258 37.0585 -1.81452 2.97258 37.0585 -1.81452
490 1 3.9233 38.7041 -0.182017 3.9233 38.7041 -0.182017
491 2 5.82194 38.6999 1.45112 5.82194 38.6999 1.45112
492 2 5.82525 38.7089 -1.81119 5.82525 38.7089 -1.81119
493 1 6.77169 37.0567 -0.183603 6.77169 37.0567 -0.183603
494 2 8.66905 37.0512 1.45102 8.66905 37.0512 1.45102
495 2 8.67493 37.0629 -1.81129 8.67493 37.0629 -1.81129
496 1 9.62228 38.7042 -0.172385 9.62228 38.7042 -0.172385
497 2 11.5185 38.7014 1.46358 11.5185 38.7014 1.46358
498 2 11.5266 38.708 -1.79874 11.5266 38.708 -1.79874
499 1 12.4707 37.057 -0.168665 12.4707 37.057 -0.168665
500 2 14.3658 37.0559 1.46859 14.3658 37.0559 1.46859
501 2 14.3762 37.0592 -1.79373 14.3762 37.0592 -1.79373
502 1 15.3213 38.7047 -0.157794 15.3213 38.7047 -0.157794
503 2 17.2193 38.7054 1.47619 17.2193 38.7054 1.47619
504 2 17.2241 38.7049 -1.78614 17.2241 38.7049 -1.78614
505 1 18.1698 37.0575 -0.15329 18.1698 37.0575 -0.15329
506 2 20.0701 37.0554 1.47793 20.0701 37.0554 1.47793
507 2 20.0702 37.0607 -1.78441 20.0702 37.0607 -1.78441
508 1 21.0205 38.7051 -0.150593 21.0205 38.7051 -0.150593
509 2 22.9202 38.7013 1.48136 22.9202 38.7013 1.48136
510 2 22.9215 38.7098 -1.78097 22.9215 38.7098 -1.78097
511 1 23.869 37.0579 -0.153606 23.869 37.0579 -0.153606
512 2 25.7704 37.0489 1.47641 25.7704 37.0489 1.47641
513 2 25.7683 37.0676 -1.78588 25.7683 37.0676 -1.78588
514 1 26.7197 38.7053 -0.14579 26.7197 38.7053 -0.14579
515 2 28.6209 38.7004 1.48455 28.6209 38.7004 1.48455
516 2 28.6192 38.7108 -1.77777 28.6192 38.7108 -1.77777
517 1 29.5682 37.058 -0.152345 29.5682 37.058 -0.152345
518 2 31.4704 37.0501 1.47681 31.4704 37.0501 1.47681
519 2 31.4667 37.0662 -1.78549 31.4667 37.0662 -1.78549
520 1 32.4189 38.7052 -0.147117 32.4189 38.7052 -0.147117
521 2 34.3251 38.7043 1.47727 34.3251 38.7043 1.47727
522 2 34.3134 38.7066 -1.78504 34.3134 38.7066 -1.78504
523 1 35.2674 37.0577 -0.158473 35.2674 37.0577 -0.158473
524 2 37.1743 37.0539 1.46506 37.1743 37.0539 1.46506
525 2 37.1611 37.0619 -1.79724 37.1611 37.0619 -1.79724
526 1 38.118 38.705 -0.165949 38.118 38.705 -0.165949
527 2 40.0245 38.7036 1.45801 40.0245 38.7036 1.45801
528 2 40.0122 38.7067 -1.8043 40.0122 38.7067 -1.8043
529 1 40.9664 37.0573 -0.17831 40.9664 37.0573 -0.17831
530 2 42.8699 37.0564 1.44923 42.8699 37.0564 1.44923
531 2 42.8636 37.0585 -1.8131 42.8636 37.0585 -1.8131
532 1 43.817 38.7046 -0.182736 43.817 38.7046 -0.182736