ITEM: TIMESTEP
4983000
ITEM: NUMBER OF ATOMS
810
ITEM: BOX BOUNDS pp pp pp
8.6298438867990135e-01 5.2154620611319167e+01
-1.1491154340699117e+01 6.2507369340698695e+01
-1.0000000000000000e+01 1.0000000000000000e+01
ITEM: ATOMS id type x y z xu yu zu
1 1 1.07681 58.0469 -0.10649 1.07681 -15.9516 -0.10649
2 2 2.9816 58.0488 1.5189 2.9816 -15.9497 1.5189
3 2 2.97218 58.046 -1.74355 2.97218 -15.9525 -1.74355
4 1 3.92602 59.6947 -0.116874 3.92602 -14.3038 -0.116874
5 2 5.83025 59.6896 1.50857 5.83025 -14.3089 1.50857
6 2 5.82133 59.6995 -1.75373 5.82133 -14.299 -1.75373
7 1 6.77491 58.0477 -0.130287 6.77491 -15.9509 -0.130287
8 2 8.67944 58.0527 1.49574 8.67944 -15.9458 1.49574
9 2 8.67064 58.045 -1.76665 8.67064 -15.9536 -1.76665
10 1 9.62417 59.6965 -0.142058 9.62417 -14.3021 -0.142058
11 2 11.5318 59.71 1.4799 11.5318 -14.2886 1.4799
12 2 11.5167 59.6833 -1.78221 11.5167 -14.3152 -1.78221
13 1 12.4741 58.0502 -0.141769 12.4741 -15.9484 -0.141769
14 2 14.3693 58.07 1.4959 14.3693 -15.9285 1.4959
15 2 14.3799 58.0332 -1.76622 14.3799 -15.9653 -1.76622
16 1 15.3241 59.6987 -0.150623 15.3241 -14.2998 -0.150623
17 2 17.2237 59.7184 1.48138 17.2237 -14.2801 1.48138
18 2 17.2253 59.6792 -1.78062 17.2253 -14.3193 -1.78062
19 1 18.1746 58.0524 -0.129372 18.1746 -15.9461 -0.129372
20 2 20.0841 58.074 1.49107 20.0841 -15.9245 1.49107
21 2 20.0665 58.0325 -1.7709 20.0665 -15.966 -1.7709
22 1 21.0252 59.7 -0.166321 21.0252 -14.2985 -0.166321
23 2 22.9308 59.7084 1.45876 22.9308 -14.2901 1.45876
24 2 22.9204 59.6906 -1.80338 22.9204 -14.3079 -1.80338
25 1 23.8753 58.0527 -0.166005 23.8753 -15.9459 -0.166005
26 2 25.7892 58.0564 1.44911 25.7892 -15.9421 1.44911
27 2 25.7625 58.0494 -1.81307 25.7625 -15.9492 -1.81307
28 1 26.7256 59.6999 -0.193869 26.7256 -14.2986 -0.193869
29 2 28.6362 59.6856 1.42497 28.6362 -14.313 1.42497
30 2 28.6157 59.7126 -1.83704 28.6157 -14.2859 -1.83704
31 1 29.5749 58.0517 -0.225746 29.5749 -15.9468 -0.225746
32 2 31.4808 58.047 1.39892 31.4808 -15.9515 1.39892
33 2 31.47 58.0564 -1.86331 31.47 -15.9421 -1.86331
34 1 32.4248 59.6992 -0.230779 32.4248 -14.2993 -0.230779
35 2 34.3351 59.6899 1.38781 34.3351 -14.3086 1.38781
36 2 34.3146 59.706 -1.87424 34.3146 -14.2925 -1.87424
37 1 35.2734 58.0501 -0.25741 35.2734 -15.9484 -0.25741
38 2 37.1696 58.0573 1.3785 37.1696 -15.9412 1.3785
39 2 37.1777 58.0426 -1.88375 37.1777 -15.956 -1.88375
40 1 38.1229 59.6976 -0.257747 38.1229 -14.301 -0.257747
41 2 40.0097 59.6957 1.38898 40.0097 -14.3028 1.38898
42 2 40.036 59.6961 -1.87317 40.036 -14.3024 -1.87317
43 1 40.9717 58.0485 -0.234245 40.9717 -15.95 -0.234245
44 2 42.8482 58.0552 1.42459 42.8482 -15.9433 1.42459
45 2 42.8954 58.0418 -1.83741 42.8954 -15.9567 -1.83741
46 1 43.8212 59.6955 -0.199269 43.8212 -14.303 -0.199269
47 2 45.6962 59.6968 1.461 45.6962 -14.3017 1.461
48 2 45.7458 59.6921 -1.80099 45.7458 -14.3064 -1.80099
49 1 46.6702 58.0476 -0.152942 46.6702 -15.9509 -0.152942
50 2 48.5532 58.0538 1.49811 48.5532 -15.9447 1.49811
51 2 48.5875 58.0419 -1.76412 48.5875 -15.9567 -1.76412
52 1 49.5197 59.6948 -0.12906 49.5197 -14.3038 -0.12906
53 2 51.4077 59.6959 1.51566 51.4077 -14.3026 1.51566
54 2 51.4313 59.6917 -1.74667 51.4313 -14.3068 -1.74667
55 1 1.07715 61.3403 -0.111215 1.07715 -12.6582 -0.111215
56 2 2.97388 61.3312 1.52394 2.97388 -12.6673 1.52394
57 2 2.98136 61.3542 -1.73856 2.98136 -12.6443 -1.73856
58 1 3.9295 -11.0079 -0.0938552 3.9295 -11.0079 -0.0938552
59 2 5.81918 -11.037 1.53262 5.81918 -11.037 1.53262
60 2 5.81197 -10.9981 -1.73063 5.81197 -10.9981 -1.73063
61 1 6.77484 61.3417 -0.120458 6.77484 -12.6568 -0.120458
62 2 8.67757 61.3271 1.50818 8.67757 -12.6714 1.50818
63 2 8.67338 61.3616 -1.75412 8.67338 -12.637 -1.75412
64 1 9.6279 -11.0063 -0.106764 9.6279 -11.0063 -0.106764
65 2 11.5353 -11.0405 1.49889 11.5353 -11.0405 1.49889
66 2 11.4933 -10.9911 -1.76371 11.4933 -10.9911 -1.76371
67 1 12.4737 61.3437 -0.16914 12.4737 -12.6549 -0.16914
68 2 14.3785 61.3711 1.4574 14.3785 -12.6274 1.4574
69 2 14.3712 61.3212 -1.80466 14.3712 -12.6773 -1.80466
70 1 15.3278 -11.0051 -0.200178 15.3278 -11.0051 -0.200178
71 2 17.2141 -10.9861 1.43424 17.2141 -10.9861 1.43424
72 2 17.2157 -11.0445 -1.82853 17.2157 -11.0445 -1.82853
73 1 18.1747 61.345 -0.168867 18.1747 -12.6535 -0.168867
74 2 20.0838 61.3642 1.45231 20.0838 -12.6343 1.45231
75 2 20.0678 61.331 -1.80993 20.0678 -12.6675 -1.80993
76 1 21.0288 -11.0037 -0.201123 21.0288 -11.0037 -0.201123
77 2 22.9082 -11.0103 1.43911 22.9082 -11.0103 1.43911
78 2 22.9231 -11.0172 -1.82418 22.9231 -11.0172 -1.82418
79 1 23.8756 61.3459 -0.184729 23.8756 -12.6527 -0.184729
80 2 25.78 61.3446 1.44243 25.78 -12.6539 1.44243
81 2 25.7735 61.3513 -1.81999 25.7735 -12.6472 -1.81999
82 1 26.7296 -11.0031 -0.187849 26.7296 -11.0031 -0.187849
83 2 28.6099 -11.0346 1.45062 28.6099 -11.0346 1.45062
84 2 28.6229 -10.992 -1.81231 28.6229 -10.992 -1.81231
85 1 29.5758 61.3459 -0.198646 29.5758 -12.6527 -0.198646
86 2 31.4786 61.3198 1.43002 31.4786 -12.6787 1.43002
87 2 31.4749 61.3757 -1.8319 31.4749 -12.6228 -1.8319
88 1 32.4294 -11.0032 -0.174166 32.4294 -11.0032 -0.174166
89 2 34.326 -11.0615 1.44327 34.326 -11.0615 1.44327
90 2 34.3059 -10.9659 -1.81854 34.3059 -10.9659 -1.81854
91 1 35.2743 61.3452 -0.241529 35.2743 -12.6533 -0.241529
92 2 37.177 61.3346 1.38689 37.177 -12.6639 1.38689
93 2 37.1731 61.3585 -1.87541 37.1731 -12.64 -1.87541
94 1 38.1278 -11.0042 -0.233105 38.1278 -11.0042 -0.233105
95 2 39.9997 -11.0425 1.41602 39.9997 -11.0425 1.41602
96 2 40.029 -10.9898 -1.84681 40.029 -10.9898 -1.84681
97 1 40.9726 61.3425 -0.234253 40.9726 -12.656 -0.234253
98 2 42.8541 61.346 1.41868 42.8541 -12.6525 1.41868
99 2 42.8923 61.3416 -1.84361 42.8923 -12.6569 -1.84361
100 1 43.8264 -11.0075 -0.203332 43.8264 -11.0075 -0.203332
101 2 45.683 -11.0249 1.46326 45.683 -11.0249 1.46326
102 2 45.7418 -11.0125 -1.79973 45.7418 -11.0125 -1.79973
103 1 46.6708 61.3406 -0.157995 46.6708 -12.6579 -0.157995
104 2 48.5573 61.3479 1.48894 48.5573 -12.6507 1.48894
105 2 48.5854 61.3376 -1.77352 48.5854 -12.661 -1.77352
106 1 49.5239 -11.0084 -0.139414 49.5239 -11.0084 -0.139414
107 2 51.392 -11.0219 1.51321 51.392 -11.0219 1.51321
108 2 51.4274 -11.0162 -1.75029 51.4274 -11.0162 -1.75029
109 1 1.04628 -9.37586 -0.104914 1.04628 -9.37586 -0.104914
110 2 2.9917 -9.37339 1.51798 2.9917 -9.37339 1.51798
111 2 3.02288 -9.34177 -1.69025 3.02288 -9.34177 -1.69025
112 1 3.85657 -7.64842 -0.0617728 3.85657 -7.64842 -0.0617728
113 2 5.62856 -7.99726 1.63066 5.62856 -7.99726 1.63066
114 2 5.64214 -7.93459 -1.75269 5.64214 -7.93459 -1.75269
115 1 6.74375 -9.37383 -0.082673 6.74375 -9.37383 -0.082673
116 2 8.70142 -9.3849 1.52557 8.70142 -9.3849 1.52557
117 2 8.70962 -9.32751 -1.68227 8.70962 -9.32751 -1.68227
118 1 9.55655 -7.64787 -0.0462383 9.55655 -7.64787 -0.0462383
119 2 11.3461 -8.01853 1.62277 11.3461 -8.01853 1.62277
120 2 11.3233 -7.91422 -1.76092 11.3233 -7.91422 -1.76092
121 1 12.4441 -9.3721 -0.121323 12.4441 -9.3721 -0.121323
122 2 14.4644 -9.32963 1.41018 14.4644 -9.32963 1.41018
123 2 14.3464 -9.37954 -1.79562 14.3464 -9.37954 -1.79562
124 1 15.2558 -7.64665 -0.248263 15.2558 -7.64665 -0.248263
125 2 17.0637 -7.89387 1.42699 17.0637 -7.89387 1.42699
126 2 17.0049 -8.03699 -1.95445 17.0049 -8.03699 -1.95445
127 1 18.144 -9.37151 -0.222497 18.144 -9.37151 -0.222497
128 2 20.0964 -9.352 1.3948 20.0964 -9.352 1.3948
129 2 20.116 -9.35516 -1.81349 20.116 -9.35516 -1.81349
130 1 20.9572 -7.64489 -0.206139 20.9572 -7.64489 -0.206139
131 2 22.728 -7.96234 1.49457 22.728 -7.96234 1.49457
132 2 22.7429 -7.96565 -1.89086 22.7429 -7.96565 -1.89086
133 1 23.8448 -9.37036 -0.1918 23.8448 -9.37036 -0.1918
134 2 25.7953 -9.36981 1.42657 25.7953 -9.36981 1.42657
135 2 25.8183 -9.33622 -1.7815 25.8183 -9.33622 -1.7815
136 1 26.6576 -7.64437 -0.153605 26.6576 -7.64437 -0.153605
137 2 28.4249 -7.98426 1.54653 28.4249 -7.98426 1.54653
138 2 28.4463 -7.94288 -1.83877 28.4463 -7.94288 -1.83877
139 1 29.5455 -9.36962 -0.155848 29.5455 -9.36962 -0.155848
140 2 31.4893 -9.4017 1.46998 31.4893 -9.4017 1.46998
141 2 31.526 -9.30362 -1.73664 31.526 -9.30362 -1.73664
142 1 32.3587 -7.6451 -0.0720323 32.3587 -7.6451 -0.0720323
143 2 34.1359 -8.03818 1.6051 34.1359 -8.03818 1.6051
144 2 34.1386 -7.88936 -1.77611 34.1386 -7.88936 -1.77611
145 1 35.2452 -9.3707 -0.147164 35.2452 -9.3707 -0.147164
146 2 37.2323 -9.39398 1.42616 37.2323 -9.39398 1.42616
147 2 37.1813 -9.31296 -1.78062 37.1813 -9.31296 -1.78062
148 1 38.0589 -7.64545 -0.146079 38.0589 -7.64545 -0.146079
149 2 39.8462 -7.98227 1.53433 39.8462 -7.98227 1.53433
150 2 39.8268 -7.95037 -1.85109 39.8268 -7.95037 -1.85109
151 1 40.9439 -9.37354 -0.178553 40.9439 -9.37354 -0.178553
152 2 42.9113 -9.3726 1.41976 42.9113 -9.3726 1.41976
153 2 42.8992 -9.34051 -1.78843 42.8992 -9.34051 -1.78843
154 1 43.7565 -7.648 -0.169227 43.7565 -7.648 -0.169227
155 2 45.5246 -7.95951 1.53595 45.5246 -7.95951 1.53595
156 2 45.5434 -7.97783 -1.84969 45.5434 -7.97783 -1.84969
157 1 46.6414 -9.37565 -0.143532 46.6414 -9.37565 -0.143532
158 2 48.5983 -9.36304 1.46712 48.5983 -9.36304 1.46712
159 2 48.6072 -9.35229 -1.74138 48.6072 -9.35229 -1.74138
160 1 49.4527 -7.64859 -0.1286 49.4527 -7.64859 -0.1286
161 2 51.2208 -7.96156 1.57562 51.2208 -7.96156 1.57562
162 2 51.2415 -7.97292 -1.80839 51.2415 -7.97292 -1.80839
163 1 1.00872 18.4463 -0.112999 1.00872 18.4463 -0.112999
164 2 2.80052 18.7787 1.5627 2.80052 18.7787 1.5627
165 2 2.77317 18.7548 -1.82194 2.77317 18.7548 -1.82194
166 1 3.89424 20.1751 -0.148301 3.89424 20.1751 -0.148301
167 2 5.8585 20.1831 1.45228 5.8585 20.1831 1.45228
168 2 5.8539 20.1365 -1.75575 5.8539 20.1365 -1.75575
169 1 6.70848 18.452 -0.129026 6.70848 18.452 -0.129026
170 2 8.49821 18.8141 1.54162 8.49821 18.8141 1.54162
171 2 8.47566 18.7302 -1.84083 8.47566 18.7302 -1.84083
172 1 9.59201 20.1821 -0.193079 9.59201 20.1821 -0.193079
173 2 11.6074 20.1362 1.34426 11.6074 20.1362 1.34426
174 2 11.4973 20.1959 -1.8618 11.4973 20.1959 -1.8618
175 1 12.4023 18.4582 -0.316989 12.4023 18.4582 -0.316989
176 2 14.197 18.6861 1.37475 14.197 18.6861 1.37475
177 2 14.165 18.8674 -2.00357 14.165 18.8674 -2.00357
178 1 15.2882 20.1849 -0.248232 15.2882 20.1849 -0.248232
179 2 17.2086 20.1597 1.40467 17.2086 20.1597 1.40467
180 2 17.2895 20.1725 -1.80273 17.2895 20.1725 -1.80273
181 1 18.0984 18.4568 -0.186403 18.0984 18.4568 -0.186403
182 2 19.8568 18.7999 1.52054 19.8568 18.7999 1.52054
183 2 19.8972 18.7487 -1.86348 19.8972 18.7487 -1.86348
184 1 20.9866 20.181 -0.180191 20.9866 20.181 -0.180191
185 2 22.9714 20.1357 1.39585 22.9714 20.1357 1.39585
186 2 22.9257 20.1886 -1.81189 22.9257 20.1886 -1.81189
187 1 23.7975 18.4531 -0.246999 23.7975 18.4531 -0.246999
188 2 25.5859 18.7175 1.44494 25.5859 18.7175 1.44494
189 2 25.5687 18.8203 -1.93594 25.5687 18.8203 -1.93594
190 1 26.6852 20.1779 -0.207501 26.6852 20.1779 -0.207501
191 2 28.6197 20.152 1.42814 28.6197 20.152 1.42814
192 2 28.6736 20.1657 -1.77957 28.6736 20.1657 -1.77957
193 1 29.4966 18.4496 -0.170634 29.4966 18.4496 -0.170634
194 2 31.2672 18.7945 1.5236 31.2672 18.7945 1.5236
195 2 31.2819 18.742 -1.86218 31.2819 18.742 -1.86218
196 1 32.3859 20.1729 -0.187146 32.3859 20.1729 -0.187146
197 2 34.3972 20.1053 1.35648 34.3972 20.1053 1.35648
198 2 34.2986 20.2042 -1.84901 34.2986 20.2042 -1.84901
199 1 35.1975 18.4476 -0.322295 35.1975 18.4476 -0.322295
200 2 36.9916 18.6528 1.3733 36.9916 18.6528 1.3733
201 2 36.9645 18.873 -2.00087 36.9645 18.873 -2.00087
202 1 38.0858 20.1715 -0.229581 38.0858 20.1715 -0.229581
203 2 40.0018 20.1301 1.42958 40.0018 20.1301 1.42958
204 2 40.0939 20.1751 -1.77722 40.0939 20.1751 -1.77722
205 1 40.898 18.4439 -0.1754 40.898 18.4439 -0.1754
206 2 42.6479 18.7625 1.54516 42.6479 18.7625 1.54516
207 2 42.708 18.757 -1.83607 42.708 18.757 -1.83607
208 1 43.7848 20.1705 -0.128077 43.7848 20.1705 -0.128077
209 2 45.7216 20.1445 1.5047 45.7216 20.1445 1.5047
210 2 45.7717 20.1626 -1.70295 45.7717 20.1626 -1.70295
211 1 46.5981 18.4449 -0.0965234 46.5981 18.4449 -0.0965234
212 2 48.367 18.7847 1.6012 48.367 18.7847 1.6012
213 2 48.3841 18.7464 -1.78516 48.3841 18.7464 -1.78516
214 1 49.4859 20.1707 -0.102089 49.4859 20.1707 -0.102089
215 2 51.4587 20.1619 1.48881 51.4587 20.1619 1.48881
216 2 51.4377 20.1472 -1.71934 51.4377 20.1472 -1.71934
217 1 1.07804 21.8058 -0.129205 1.07804 21.8058 -0.129205
218 2 2.98105 21.8282 1.48279 2.98105 21.8282 1.48279
219 2 2.94791 21.8081 -1.78028 2.94791 21.8081 -1.78028
220 1 3.92305 23.4584 -0.168737 3.92305 23.4584 -0.168737
221 2 5.83771 23.4748 1.44578 5.83771 23.4748 1.44578
222 2 5.80957 23.4428 -1.81644 5.80957 23.4428 -1.81644
223 1 6.77633 21.8116 -0.177632 6.77633 21.8116 -0.177632
224 2 8.68434 21.849 1.42721 8.68434 21.849 1.42721
225 2 8.63982 21.8 -1.83572 8.63982 21.8 -1.83572
226 1 9.62075 23.4643 -0.24181 9.62075 23.4643 -0.24181
227 2 11.52 23.4446 1.3911 11.52 23.4446 1.3911
228 2 11.523 23.4839 -1.87127 11.523 23.4839 -1.87127
229 1 12.474 21.8173 -0.258098 12.474 21.8173 -0.258098
230 2 14.3394 21.7951 1.40058 14.3394 21.7951 1.40058
231 2 14.3812 21.8628 -1.86205 14.3812 21.8628 -1.86205
232 1 15.3198 23.4667 -0.185959 15.3198 23.4667 -0.185959
233 2 17.2093 23.4618 1.45818 17.2093 23.4618 1.45818
234 2 17.2316 23.466 -1.80427 17.2316 23.466 -1.80427
235 1 18.1722 21.8159 -0.169416 18.1722 21.8159 -0.169416
236 2 20.0627 21.8253 1.45632 20.0627 21.8253 1.45632
237 2 20.0549 21.8254 -1.80706 20.0549 21.8254 -1.80706
238 1 21.0191 23.4639 -0.176499 21.0191 23.4639 -0.176499
239 2 22.9223 23.4472 1.45223 22.9223 23.4472 1.45223
240 2 22.9176 23.4745 -1.81011 22.9176 23.4745 -1.81011
241 1 23.8713 21.8125 -0.193543 23.8713 21.8125 -0.193543
242 2 25.7519 21.7952 1.44585 25.7519 21.7952 1.44585
243 2 25.7634 21.8484 -1.81718 25.7634 21.8484 -1.81718
244 1 26.7183 23.4605 -0.15586 26.7183 23.4605 -0.15586
245 2 28.6206 23.4612 1.47428 28.6206 23.4612 1.47428
246 2 28.6181 23.4531 -1.78809 28.6181 23.4531 -1.78809
247 1 29.5707 21.8086 -0.153848 29.5707 21.8086 -0.153848
248 2 31.4749 21.8181 1.45614 31.4749 21.8181 1.45614
249 2 31.4401 21.8173 -1.80681 31.4401 21.8173 -1.80681
250 1 32.4176 23.4566 -0.185165 32.4176 23.4566 -0.185165
251 2 34.3206 23.4192 1.44352 34.3206 23.4192 1.44352
252 2 34.3164 23.4877 -1.81816 34.3164 23.4877 -1.81816
253 1 35.2705 21.8055 -0.22212 35.2705 21.8055 -0.22212
254 2 37.1321 21.7574 1.44055 37.1321 21.7574 1.44055
255 2 37.1824 21.8729 -1.82029 37.1824 21.8729 -1.82029
256 1 38.116 23.4537 -0.118187 38.116 23.4537 -0.118187
257 2 40.0116 23.4368 1.51952 40.0116 23.4368 1.51952
258 2 40.0227 23.466 -1.74266 40.0227 23.466 -1.74266
259 1 40.9694 21.8033 -0.123906 40.9694 21.8033 -0.123906
260 2 42.8459 21.7951 1.51861 42.8459 21.7951 1.51861
261 2 42.8662 21.8324 -1.74452 42.8662 21.8324 -1.74452
262 1 43.8158 23.4531 -0.0869932 43.8158 23.4531 -0.0869932
263 2 45.7125 23.4538 1.54985 45.7125 23.4538 1.54985
264 2 45.7215 23.4494 -1.71247 45.7215 23.4494 -1.71247
265 1 46.6697 21.8039 -0.0765894 46.6697 21.8039 -0.0765894
266 2 48.5713 21.8177 1.5367 48.5713 21.8177 1.5367
267 2 48.5423 21.8117 -1.72626 48.5423 21.8117 -1.72626
268 1 49.5162 23.4543 -0.105787 49.5162 23.4543 -0.105787
269 2 51.4343 23.4601 1.50523 51.4343 23.4601 1.50523
270 2 51.3999 23.4467 -1.75697 51.3999 23.4467 -1.75697
271 1 1.07394 25.1021 -0.142636 1.07394 25.1021 -0.142636
272 2 2.98955 25.1066 1.46996 2.98955 25.1066 1.46996
273 2 2.9582 25.1034 -1.79217 2.9582 25.1034 -1.79217
274 1 3.92317 26.7524 -0.172034 3.92317 26.7524 -0.172034
275 2 5.84433 26.7538 1.43417 5.84433 26.7538 1.43417
276 2 5.80193 26.7548 -1.82803 5.80193 26.7548 -1.82803
277 1 6.77191 25.1074 -0.209914 6.77191 25.1074 -0.209914
278 2 8.68625 25.1041 1.40421 8.68625 25.1041 1.40421
279 2 8.6571 25.1171 -1.85803 8.6571 25.1171 -1.85803
280 1 9.62153 26.7574 -0.228476 9.62153 26.7574 -0.228476
281 2 11.5152 26.7557 1.41087 11.5152 26.7557 1.41087
282 2 11.5281 26.7613 -1.85166 11.5281 26.7613 -1.85166
283 1 12.4706 25.1118 -0.219145 12.4706 25.1118 -0.219145
284 2 14.3517 25.112 1.43458 14.3517 25.112 1.43458
285 2 14.3891 25.1141 -1.82763 14.3891 25.1141 -1.82763
286 1 15.3209 26.759 -0.184472 15.3209 26.759 -0.184472
287 2 17.2162 26.7694 1.45266 17.2162 26.7694 1.45266
288 2 17.2264 26.7473 -1.8097 17.2264 26.7473 -1.8097
289 1 18.1702 25.1111 -0.164278 18.1702 25.1111 -0.164278
290 2 20.0767 25.11 1.45942 20.0767 25.11 1.45942
291 2 20.0641 25.112 -1.80287 20.0641 25.112 -1.80287
292 1 21.0207 26.7572 -0.174269 21.0207 26.7572 -0.174269
293 2 22.9216 26.7646 1.45651 22.9216 26.7646 1.45651
294 2 22.9207 26.7474 -1.80582 22.9207 26.7474 -1.80582
295 1 23.8698 25.1083 -0.166182 23.8698 25.1083 -0.166182
296 2 25.77 25.1176 1.46525 25.77 25.1176 1.46525
297 2 25.7701 25.0987 -1.79694 25.7701 25.0987 -1.79694
298 1 26.7204 26.7544 -0.175494 26.7204 26.7544 -0.175494
299 2 28.6221 26.7679 1.45424 28.6221 26.7679 1.45424
300 2 28.6194 26.7376 -1.80798 28.6194 26.7376 -1.80798
301 1 29.5691 25.1048 -0.161892 29.5691 25.1048 -0.161892
302 2 31.4806 25.1005 1.45599 31.4806 25.1005 1.45599
303 2 31.4578 25.108 -1.80615 31.4578 25.108 -1.80615
304 1 32.4192 26.751 -0.177827 32.4192 26.751 -0.177827
305 2 34.308 26.7531 1.46708 34.308 26.7531 1.46708
306 2 34.3308 26.7463 -1.79518 34.3308 26.7463 -1.79518
307 1 35.2675 25.1014 -0.153497 35.2675 25.1014 -0.153497
308 2 37.1486 25.1026 1.50025 37.1486 25.1026 1.50025
309 2 37.1861 25.1006 -1.76171 37.1861 25.1006 -1.76171
310 1 38.1173 26.7484 -0.120936 38.1173 26.7484 -0.120936
311 2 40.0062 26.7545 1.52348 40.0062 26.7545 1.52348
312 2 40.029 26.7403 -1.73872 40.029 26.7403 -1.73872
313 1 40.9662 25.0996 -0.0933659 40.9662 25.0996 -0.0933659
314 2 42.8607 25.0966 1.54461 42.8607 25.0966 1.54461
315 2 42.8724 25.1037 -1.71751 42.8724 25.1037 -1.71751
316 1 43.8167 26.7471 -0.0794008 43.8167 26.7471 -0.0794008
317 2 45.7217 26.7532 1.54666 45.7217 26.7532 1.54666
318 2 45.7128 26.7408 -1.71558 45.7128 26.7408 -1.71558
319 1 46.6664 25.0997 -0.0808935 46.6664 25.0997 -0.0808935
320 2 48.58 25.0997 1.53444 48.58 25.0997 1.53444
321 2 48.5537 25.1024 -1.72762 48.5537 25.1024 -1.72762
322 1 49.5165 26.7483 -0.103299 49.5165 26.7483 -0.103299
323 2 51.4373 26.7465 1.50339 51.4373 26.7465 1.50339
324 2 51.3961 26.7519 -1.7587 51.3961 26.7519 -1.7587
325 1 1.0743 28.397 -0.13694 1.0743 28.397 -0.13694
326 2 2.99069 28.393 1.47506 2.99069 28.393 1.47506
327 2 2.95797 28.4051 -1.78725 2.95797 28.4051 -1.78725
328 1 3.9236 30.0465 -0.159433 3.9236 30.0465 -0.159433
329 2 5.84627 30.0393 1.44493 5.84627 30.0393 1.44493
330 2 5.80084 30.0572 -1.8172 5.80084 30.0572 -1.8172
331 1 6.77251 28.4017 -0.20856 6.77251 28.4017 -0.20856
332 2 8.68066 28.3978 1.41338 8.68066 28.3978 1.41338
333 2 8.6645 28.4096 -1.84913 8.6645 28.4096 -1.84913
334 1 9.62229 30.0506 -0.216393 9.62229 30.0506 -0.216393
335 2 11.5217 30.053 1.41606 11.5217 30.053 1.41606
336 2 11.5233 30.0503 -1.84647 11.5233 30.0503 -1.84647
337 1 12.4717 28.405 -0.213464 12.4717 28.405 -0.213464
338 2 14.3613 28.4157 1.43033 14.3613 28.4157 1.43033
339 2 14.3824 28.3954 -1.8321 14.3824 28.3954 -1.8321
340 1 15.3218 30.052 -0.20483 15.3218 30.052 -0.20483
341 2 17.2214 30.068 1.42721 17.2214 30.068 1.42721
342 2 17.2228 30.0355 -1.83508 17.2228 30.0355 -1.83508
343 1 18.1713 28.4048 -0.186812 18.1713 28.4048 -0.186812
344 2 20.0719 28.4168 1.44401 20.0719 28.4168 1.44401
345 2 20.0713 28.3917 -1.81836 20.0713 28.3917 -1.81836
346 1 21.0214 30.0509 -0.200351 21.0214 30.0509 -0.200351
347 2 22.9226 30.0676 1.42974 22.9226 30.0676 1.42974
348 2 22.921 30.0322 -1.83245 22.921 30.0322 -1.83245
349 1 23.8711 28.4027 -0.183731 23.8711 28.4027 -0.183731
350 2 25.7767 28.4186 1.44126 25.7767 28.4186 1.44126
351 2 25.7661 28.3848 -1.82096 25.7661 28.3848 -1.82096
352 1 26.7212 30.0483 -0.210457 26.7212 30.0483 -0.210457
353 2 28.6181 30.0576 1.42478 28.6181 30.0576 1.42478
354 2 28.6253 30.0364 -1.83748 28.6253 30.0364 -1.83748
355 1 29.5706 28.3995 -0.193289 29.5706 28.3995 -0.193289
356 2 31.4669 28.4066 1.44249 31.4669 28.4066 1.44249
357 2 31.4749 28.3908 -1.81988 31.4749 28.3908 -1.81988
358 1 32.4207 30.0456 -0.194686 32.4207 30.0456 -0.194686
359 2 34.3087 30.057 1.4506 34.3087 30.057 1.4506
360 2 34.3331 30.0324 -1.81157 34.3331 30.0324 -1.81157
361 1 35.2691 28.3968 -0.160825 35.2691 28.3968 -0.160825
362 2 37.1567 28.4134 1.48502 37.1567 28.4134 1.48502
363 2 37.1816 28.3789 -1.77709 37.1816 28.3789 -1.77709
364 1 38.1191 30.0431 -0.156264 38.1191 30.0431 -0.156264
365 2 40.0033 30.0618 1.49321 40.0033 30.0618 1.49321
366 2 40.0351 30.0229 -1.76872 40.0351 30.0229 -1.76872
367 1 40.9675 28.3946 -0.108471 40.9675 28.3946 -0.108471
368 2 42.86 28.4094 1.53175 42.86 28.4094 1.53175
369 2 42.8756 28.3795 -1.7304 42.8756 28.3795 -1.7304
370 1 43.8176 30.0417 -0.110357 43.8176 30.0417 -0.110357
371 2 45.7117 30.0478 1.52777 45.7117 30.0478 1.52777
372 2 45.724 30.0358 -1.7345 45.724 30.0358 -1.7345
373 1 46.6669 28.3945 -0.093476 46.6669 28.3945 -0.093476
374 2 48.573 28.3954 1.53095 48.573 28.3954 1.53095
375 2 48.5616 28.3951 -1.7314 48.5616 28.3951 -1.7314
376 1 49.5167 30.0428 -0.104025 49.5167 30.0428 -0.104025
377 2 51.4307 30.0353 1.51081 51.4307 30.0353 1.51081
378 2 51.4033 30.0524 -1.75141 51.4033 30.0524 -1.75141
379 1 1.07444 31.6915 -0.119678 1.07444 31.6915 -0.119678
380 2 2.99277 31.6859 1.48993 2.99277 31.6859 1.48993
381 2 2.95621 31.7003 -1.77229 2.95621 31.7003 -1.77229
382 1 3.92359 33.3406 -0.144359 3.92359 33.3406 -0.144359
383 2 5.84561 33.3351 1.46084 5.84561 33.3351 1.46084
384 2 5.80161 33.3491 -1.80128 5.80161 33.3491 -1.80128
385 1 6.77287 31.6955 -0.190186 6.77287 31.6955 -0.190186
386 2 8.68563 31.6929 1.42645 8.68563 31.6929 1.42645
387 2 8.66033 31.7011 -1.83596 8.66033 31.7011 -1.83596
388 1 9.62244 33.344 -0.20766 9.62244 33.344 -0.20766
389 2 11.532 33.3531 1.41282 11.532 33.3531 1.41282
390 2 11.5134 33.3368 -1.84957 11.5134 33.3368 -1.84957
391 1 12.4722 31.6984 -0.215782 12.4722 31.6984 -0.215782
392 2 14.3739 31.712 1.41388 14.3739 31.712 1.41388
393 2 14.3711 31.6855 -1.84849 14.3711 31.6855 -1.84849
394 1 15.3221 33.3455 -0.231683 15.3221 33.3455 -0.231683
395 2 17.2218 33.356 1.40002 17.2218 33.356 1.40002
396 2 17.223 33.3349 -1.86234 17.223 33.3349 -1.86234
397 1 18.1718 31.6985 -0.220204 18.1718 31.6985 -0.220204
398 2 20.0696 31.7135 1.41354 20.0696 31.7135 1.41354
399 2 20.0745 31.6824 -1.84872 20.0745 31.6824 -1.84872
400 1 21.0217 33.3447 -0.232369 21.0217 33.3447 -0.232369
401 2 22.9137 33.3418 1.40823 22.9137 33.3418 1.40823
402 2 22.9303 33.3463 -1.8541 22.9303 33.3463 -1.8541
403 1 23.8714 31.6967 -0.220337 23.8714 31.6967 -0.220337
404 2 25.7677 31.6986 1.4152 25.7677 31.6986 1.4152
405 2 25.7759 31.6926 -1.84715 25.7759 31.6926 -1.84715
406 1 26.7214 33.3425 -0.216909 26.7214 33.3425 -0.216909
407 2 28.6139 33.33 1.42315 28.6139 33.33 1.42315
408 2 28.6299 33.3528 -1.83906 28.6299 33.3528 -1.83906
409 1 29.5713 31.694 -0.215132 29.5713 31.694 -0.215132
410 2 31.4606 31.6943 1.42875 31.4606 31.6943 1.42875
411 2 31.4829 31.692 -1.83353 31.4829 31.692 -1.83353
412 1 32.4214 33.3401 -0.197119 32.4214 33.3401 -0.197119
413 2 34.313 33.336 1.44384 34.313 33.336 1.44384
414 2 34.3305 33.3427 -1.81846 34.3305 33.3427 -1.81846
415 1 35.2707 31.6917 -0.185959 35.2707 31.6917 -0.185959
416 2 37.1596 31.7013 1.45794 37.1596 31.7013 1.45794
417 2 37.1821 31.6807 -1.80428 37.1821 31.6807 -1.80428
418 1 38.1203 33.3382 -0.177073 38.1203 33.3382 -0.177073
419 2 40.0077 33.3437 1.46889 40.0077 33.3437 1.46889
420 2 40.0332 33.3313 -1.79332 40.0332 33.3313 -1.79332
421 1 40.9689 31.6896 -0.148446 40.9689 31.6896 -0.148446
422 2 42.853 31.6991 1.50117 42.853 31.6991 1.50117
423 2 42.885 31.6796 -1.76095 42.885 31.6796 -1.76095
424 1 43.8182 33.3369 -0.130669 43.8182 33.3369 -0.130669
425 2 45.7044 33.337 1.51669 45.7044 33.337 1.51669
426 2 45.7322 33.3369 -1.74554 45.7322 33.3369 -1.74554
427 1 46.6672 31.6894 -0.106083 46.6672 31.6894 -0.106083
428 2 48.5645 31.6868 1.52845 48.5645 31.6868 1.52845
429 2 48.5704 31.693 -1.7339 48.5704 31.693 -1.7339
430 1 49.5167 33.3375 -0.0979692 49.5167 33.3375 -0.0979692
431 2 51.4239 33.3294 1.52478 51.4239 33.3294 1.52478
432 2 51.4099 33.3475 -1.73752 51.4099 33.3475 -1.73752
433 1 1.07431 34.9862 -0.101363 1.07431 34.9862 -0.101363
434 2 2.99408 34.9794 1.50647 2.99408 34.9794 1.50647
435 2 2.95466 34.9954 -1.75565 2.95466 34.9954 -1.75565
436 1 3.92353 36.635 -0.127928 3.92353 36.635 -0.127928
437 2 5.85037 36.6357 1.47156 5.85037 36.6357 1.47156
438 2 5.7967 36.6368 -1.7904 5.7967 36.6368 -1.7904
439 1 6.77283 34.9895 -0.175765 6.77283 34.9895 -0.175765
440 2 8.69249 34.993 1.4326 8.69249 34.993 1.4326
441 2 8.65342 34.9882 -1.82962 8.65342 34.9882 -1.82962
442 1 9.62237 36.6377 -0.21228 9.62237 36.6377 -0.21228
443 2 11.5381 36.6458 1.40082 11.5381 36.6458 1.40082
444 2 11.5071 36.6312 -1.86143 11.5071 36.6312 -1.86143
445 1 12.4722 34.9918 -0.231998 12.4722 34.9918 -0.231998
446 2 14.3769 35.0001 1.39418 14.3769 35.0001 1.39418
447 2 14.3683 34.9845 -1.8682 14.3683 34.9845 -1.8682
448 1 15.3222 36.6392 -0.247615 15.3222 36.6392 -0.247615
449 2 17.2197 36.6398 1.38712 17.2197 36.6398 1.38712
450 2 17.2254 36.6389 -1.87528 17.2254 36.6389 -1.87528
451 1 18.172 34.9923 -0.241783 18.172 34.9923 -0.241783
452 2 20.0663 34.9909 1.39638 20.0663 34.9909 1.39638
453 2 20.0783 34.9931 -1.866 20.0783 34.9931 -1.866
454 1 21.0219 36.6389 -0.230211 21.0219 36.6389 -0.230211
455 2 22.9076 36.6267 1.41818 22.9076 36.6267 1.41818
456 2 22.9369 36.6499 -1.84397 22.9369 36.6499 -1.84397
457 1 23.8716 34.9909 -0.216089 23.8716 34.9909 -0.216089
458 2 25.763 34.9739 1.42531 25.763 34.9739 1.42531
459 2 25.7809 35.0058 -1.83684 25.7809 35.0058 -1.83684
460 1 26.7215 36.6367 -0.184259 26.7215 36.6367 -0.184259
461 2 28.6154 36.6172 1.45449 28.6154 36.6172 1.45449
462 2 28.6285 36.654 -1.80759 28.6285 36.654 -1.80759
463 1 29.5715 34.9883 -0.191659 29.5715 34.9883 -0.191659
464 2 31.4648 34.9704 1.44747 31.4648 34.9704 1.44747
465 2 31.479 35.0043 -1.81467 31.479 35.0043 -1.81467
466 1 32.4212 36.6344 -0.162098 32.4212 36.6344 -0.162098
467 2 34.322 36.6189 1.46842 34.322 36.6189 1.46842
468 2 34.3211 36.649 -1.79377 34.3211 36.649 -1.79377
469 1 35.271 34.9866 -0.178671 35.271 34.9866 -0.178671
470 2 37.1675 34.9816 1.4566 37.1675 34.9816 1.4566
471 2 37.175 34.9903 -1.80573 37.175 34.9903 -1.80573
472 1 38.1202 36.6334 -0.167729 38.1202 36.6334 -0.167729
473 2 40.0143 36.6291 1.47053 40.0143 36.6291 1.47053
474 2 40.0265 36.6364 -1.79178 40.0265 36.6364 -1.79178
475 1 40.9695 34.9851 -0.160937 40.9695 34.9851 -0.160937
476 2 42.8535 34.9865 1.48908 42.8535 34.9865 1.48908
477 2 42.8856 34.9828 -1.77312 42.8856 34.9828 -1.77312
478 1 43.8185 36.6322 -0.134366 43.8185 36.6322 -0.134366
479 2 45.7029 36.6322 1.51525 45.7029 36.6322 1.51525
480 2 45.7343 36.6319 -1.74696 45.7343 36.6319 -1.74696
481 1 46.6674 34.9845 -0.106418 46.6674 34.9845 -0.106418
482 2 48.5607 34.9812 1.53281 48.5607 34.9812 1.53281
483 2 48.5745 34.9884 -1.72952 48.5745 34.9884 -1.72952
484 1 49.5166 36.6325 -0.0906061 49.5166 36.6325 -0.0906061
485 2 51.421 36.6298 1.5358 51.421 36.6298 1.5358
486 2 51.4127 36.637 -1.72655 51.4127 36.637 -1.72655
487 1 1.07427 38.281 -0.0943168 1.07427 38.281 -0.0943168
488 2 2.99332 38.2819 1.51442 2.99332 38.2819 1.51442
489 2 2.95551 38.2822 -1.74775 2.95551 38.2822 -1.74775
490 1 3.92361 39.9295 -0.127844 3.92361 39.9295 -0.127844
491 2 5.84969 39.9299 1.47241 5.84969 39.9299 1.47241
492 2 5.79763 39.9312 -1.78958 5.79763 39.9312 -1.78958
493 1 6.77282 38.2836 -0.174504 6.77282 38.2836 -0.174504
494 2 8.69632 38.2877 1.42917 8.69632 38.2877 1.42917
495 2 8.64959 38.2812 -1.8329 8.64959 38.2812 -1.8329
496 1 9.6225 39.9316 -0.218854 9.6225 39.9316 -0.218854
497 2 11.5409 39.9363 1.39094 11.5409 39.9363 1.39094
498 2 11.5046 39.9283 -1.87124 11.5046 39.9283 -1.87124
499 1 12.4722 38.2855 -0.246679 12.4722 38.2855 -0.246679
500 2 14.377 38.2922 1.3797 14.377 38.2922 1.3797
501 2 14.3683 38.2801 -1.88265 14.3683 38.2801 -1.88265
502 1 15.3223 39.9333 -0.260317 15.3223 39.9333 -0.260317
503 2 17.211 39.9297 1.38461 17.211 39.9297 1.38461
504 2 17.2343 39.9371 -1.87766 17.2343 39.9371 -1.87766
505 1 18.1721 38.2863 -0.243155 18.1721 38.2863 -0.243155
506 2 20.061 38.2785 1.40168 20.061 38.2785 1.40168
507 2 20.084 38.2937 -1.86056 20.084 38.2937 -1.86056
508 1 21.0219 39.9332 -0.214944 21.0219 39.9332 -0.214944
509 2 22.9056 39.9256 1.43588 22.9056 39.9256 1.43588
510 2 22.9389 39.9396 -1.82625 22.9389 39.9396 -1.82625
511 1 23.8717 38.2852 -0.19245 23.8717 38.2852 -0.19245
512 2 25.76 38.271 1.45296 25.76 38.271 1.45296
513 2 25.7843 38.2972 -1.80917 25.7843 38.2972 -1.80917
514 1 26.7214 39.9311 -0.157637 26.7214 39.9311 -0.157637
515 2 28.6167 39.9253 1.47947 28.6167 39.9253 1.47947
516 2 28.6268 39.9351 -1.78282 28.6268 39.9351 -1.78282
517 1 29.5712 38.2827 -0.153716 29.5712 38.2827 -0.153716
518 2 31.4713 38.2731 1.47791 31.4713 38.2731 1.47791
519 2 31.4719 38.2906 -1.78437 31.4719 38.2906 -1.78437
520 1 32.4206 39.9292 -0.143971 32.4206 39.9292 -0.143971
521 2 34.3219 39.9268 1.48608 34.3219 39.9268 1.48608
522 2 34.3199 39.9306 -1.77627 34.3199 39.9306 -1.77627
523 1 35.2705 38.2813 -0.147651 35.2705 38.2813 -0.147651
524 2 37.1756 38.2698 1.47776 37.1756 38.2698 1.47776
525 2 37.1659 38.2919 -1.7845 37.1659 38.2919 -1.7845
526 1 38.1195 39.9282 -0.145043 38.1195 39.9282 -0.145043
527 2 40.0197 39.9198 1.48638 40.0197 39.9198 1.48638
528 2 40.0198 39.9357 -1.77595 40.0198 39.9357 -1.77595
529 1 40.9692 38.2802 -0.153062 40.9692 38.2802 -0.153062
530 2 42.8575 38.2778 1.49198 42.8575 38.2778 1.49198
531 2 42.8811 38.2818 -1.7703 42.8811 38.2818 -1.7703
532 1 43.8181 39.9272 -0.129873 43.8181 39.9272 -0.129873
533 2 45.7078 39.9317 1.51361 45.7078 39.9317 1.51361
534 2 45.7286 39.9223 -1.74868 45.7286 39.9223 -1.74868
535 1 46.6674 38.2796 -0.106701 46.6674 38.2796 -0.106701