ITEM: TIMESTEP
36000
ITEM: NUMBER OF ATOMS
810
ITEM: BOX BOUNDS pp pp pp
8.4226002569556280e-01 5.2175344974303329e+01
8.1029999610145687e-01 5.0205915003898284e+01
-1.0000000000000000e+01 1.0000000000000000e+01
ITEM: ATOMS id type x y z xu yu zu
1 1 1.04595 1.02449 -0.0747121 1.04595 1.02449 -0.0747121
2 2 2.96843 1.01318 1.5312 2.96843 1.01318 1.5312
3 2 2.92581 1.03586 -1.73063 2.92581 1.03586 -1.73063
4 1 3.89774 2.67106 -0.100721 3.89774 2.67106 -0.100721
5 2 5.82357 2.65927 1.50121 5.82357 2.65927 1.50121
6 2 5.77415 2.68291 -1.76051 5.77415 2.68291 -1.76051
7 1 6.74938 1.02464 -0.156048 6.74938 1.02464 -0.156048
8 2 8.67554 1.01289 1.44551 8.67554 1.01289 1.44551
9 2 8.62542 1.03642 -1.8162 8.62542 1.03642 -1.8162
10 1 9.60107 2.67121 -0.188074 9.60107 2.67121 -0.188074
11 2 11.5244 2.65901 1.41699 11.5244 2.65901 1.41699
12 2 11.4801 2.68341 -1.8448 11.4801 2.68341 -1.8448
13 1 12.4528 1.02476 -0.239172 12.4528 1.02476 -0.239172
14 2 14.3703 1.01271 1.37287 14.3703 1.01271 1.37287
15 2 14.3377 1.03678 -1.88906 14.3377 1.03678 -1.88906
16 1 15.3046 2.67128 -0.255373 15.3046 2.67128 -0.255373
17 2 17.2147 2.6593 1.36558 17.2147 2.6593 1.36558
18 2 17.1972 2.68321 -1.89648 17.1972 2.68321 -1.89648
19 1 18.1566 1.02477 -0.282616 18.1566 1.02477 -0.282616
20 2 20.058 1.01243 1.34851 20.058 1.01243 1.34851
21 2 20.0579 1.03705 -1.91358 20.0579 1.03705 -1.91358
22 1 21.0086 2.67123 -0.270045 21.0086 2.67123 -0.270045
23 2 22.9019 2.65975 1.37048 22.9019 2.65975 1.37048
24 2 22.9179 2.68264 -1.89159 22.9179 2.68264 -1.89159
25 1 23.8606 1.02469 -0.26743 23.8606 1.02469 -0.26743
26 2 25.7464 1.01233 1.38165 25.7464 1.01233 1.38165
27 2 25.7772 1.03698 -1.8803 25.7772 1.03698 -1.8803
28 1 26.7124 2.67111 -0.227804 26.7124 2.67111 -0.227804
29 2 28.5932 2.66043 1.427 28.5932 2.66043 1.427
30 2 28.6339 2.68175 -1.83487 28.6339 2.68175 -1.83487
31 1 29.5642 1.02455 -0.202833 29.5642 1.02455 -0.202833
32 2 31.4417 1.01278 1.45568 31.4417 1.01278 1.45568
33 2 31.4889 1.03628 -1.80608 31.4889 1.03628 -1.80608
34 1 32.4158 2.67099 -0.149486 32.4158 2.67099 -0.149486
35 2 34.2935 2.66111 1.50879 34.2935 2.66111 1.50879
36 2 34.3404 2.68086 -1.75299 34.3404 2.68086 -1.75299
37 1 35.2675 1.02443 -0.118415 35.2675 1.02443 -0.118415
38 2 37.1475 1.01336 1.53722 37.1475 1.01336 1.53722
39 2 37.1899 1.03551 -1.72461 37.1899 1.03551 -1.72461
40 1 38.1193 2.6709 -0.0701107 38.1193 2.6709 -0.0701107
41 2 40.0046 2.66124 1.57938 40.0046 2.66124 1.57938
42 2 40.0364 2.68059 -1.68259 40.0364 2.68059 -1.68259
43 1 40.9712 1.02437 -0.0521291 40.9712 1.02437 -0.0521291
44 2 42.8634 1.01358 1.58935 42.8634 1.01358 1.58935
45 2 42.8815 1.0352 -1.6727 42.8815 1.0352 -1.6727
46 1 43.8231 2.67089 -0.025486 43.8231 2.67089 -0.025486
47 2 45.7237 2.6608 1.6064 45.7237 2.6608 1.6064
48 2 45.7253 2.68102 -1.65571 45.7253 2.68102 -1.65571
49 1 46.6752 1.02439 -0.0344294 46.6752 1.02439 -0.0344294
50 2 48.5841 1.01349 1.58762 48.5841 1.01349 1.58762
51 2 48.5689 1.03535 -1.67446 48.5689 1.03535 -1.67446
52 1 49.5272 2.67094 -0.0368244 49.5272 2.67094 -0.0368244
53 2 51.4437 2.66004 1.57625 51.4437 2.66004 1.57625
54 2 51.4132 2.6819 -1.68572 51.4132 2.6819 -1.68572
55 1 1.046 4.3175 -0.052607 1.046 4.3175 -0.052607
56 2 2.9682 4.30646 1.55367 2.9682 4.30646 1.55367
57 2 2.92618 4.3286 -1.70816 2.92618 4.3286 -1.70816
58 1 3.89782 5.96408 -0.0783384 3.89782 5.96408 -0.0783384
59 2 5.82324 5.95304 1.52411 5.82324 5.95304 1.52411
60 2 5.77466 5.97516 -1.73763 5.77466 5.97516 -1.73763
61 1 6.74946 4.31764 -0.13213 6.74946 4.31764 -0.13213
62 2 8.67558 4.30567 1.4695 8.67558 4.30567 1.4695
63 2 8.62556 4.32964 -1.79221 8.62556 4.32964 -1.79221
64 1 9.60117 5.9642 -0.163818 9.60117 5.9642 -0.163818
65 2 11.5247 5.95285 1.44098 11.5247 5.95285 1.44098
66 2 11.4799 5.97557 -1.82082 11.4799 5.97557 -1.82082
67 1 12.4528 4.31775 -0.214465 12.4528 4.31775 -0.214465
68 2 14.3707 4.30603 1.39715 14.3707 4.30603 1.39715
69 2 14.3374 4.32946 -1.86479 14.3374 4.32946 -1.86479
70 1 15.3047 5.96427 -0.23162 15.3047 5.96427 -0.23162
71 2 17.2156 5.95422 1.38836 17.2156 5.95422 1.38836
72 2 17.1964 5.97427 -1.87371 17.1964 5.97427 -1.87371
73 1 18.1566 4.31776 -0.258386 18.1566 4.31776 -0.258386
74 2 20.0586 4.30712 1.37208 20.0586 4.30712 1.37208
75 2 20.0573 4.32833 -1.89004 20.0573 4.32833 -1.89004
76 1 21.0086 5.96421 -0.248535 21.0086 5.96421 -0.248535
77 2 22.9029 5.95612 1.39086 22.9029 5.95612 1.39086
78 2 22.9168 5.97224 -1.87127 22.9168 5.97224 -1.87127
79 1 23.8605 4.31766 -0.244235 23.8605 4.31766 -0.244235
80 2 25.7471 4.30832 1.40404 25.7471 4.30832 1.40404
81 2 25.7764 4.32695 -1.85797 25.7764 4.32695 -1.85797
82 1 26.7123 5.96411 -0.208905 26.7123 5.96411 -0.208905
83 2 28.5941 5.95767 1.44488 28.5941 5.95767 1.44488
84 2 28.6329 5.97051 -1.81706 28.6329 5.97051 -1.81706
85 1 29.5641 4.31755 -0.181219 29.5641 4.31755 -0.181219
86 2 31.4424 4.30929 1.47643 31.4424 4.30929 1.47643
87 2 31.488 4.32578 -1.7854 31.488 4.32578 -1.7854
88 1 32.4158 5.96402 -0.132774 32.4158 5.96402 -0.132774
89 2 34.294 5.9583 1.52492 34.294 5.9583 1.52492
90 2 34.3398 5.96975 -1.73692 34.3398 5.96975 -1.73692
91 1 35.2675 4.31746 -0.0984098 35.2675 4.31746 -0.0984098
92 2 37.148 4.30957 1.55672 37.148 4.30957 1.55672
93 2 37.1894 4.32537 -1.70516 37.1894 4.32537 -1.70516
94 1 38.1192 5.96397 -0.0541244 38.1192 5.96397 -0.0541244
95 2 40.0046 5.95776 1.59543 40.0046 5.95776 1.59543
96 2 40.0364 5.97021 -1.66656 40.0364 5.97021 -1.66656
97 1 40.9711 4.31742 -0.0325521 40.9711 4.31742 -0.0325521
98 2 42.8635 4.30894 1.6089 42.8635 4.30894 1.6089
99 2 42.8814 4.32592 -1.65318 42.8814 4.32592 -1.65318
100 1 43.8231 5.96396 -0.00832675 43.8231 5.96396 -0.00832675
101 2 45.7232 5.95632 1.62409 45.7232 5.95632 1.62409
102 2 45.7257 5.97162 -1.63804 45.7257 5.97162 -1.63804
103 1 46.6752 4.31743 -0.0139869 46.6752 4.31743 -0.0139869
104 2 48.5839 4.30777 1.60832 48.5839 4.30777 1.60832
105 2 48.5691 4.32713 -1.65376 48.5691 4.32713 -1.65376
106 1 49.5272 5.96399 -0.0172714 49.5272 5.96399 -0.0172714
107 2 51.4431 5.95453 1.59652 51.4431 5.95453 1.59652
108 2 51.4138 5.97349 -1.66547 51.4138 5.97349 -1.66547
109 1 1.04605 7.61056 -0.0334569 1.04605 7.61056 -0.0334569
110 2 2.96747 7.60128 1.57379 2.96747 7.60128 1.57379
111 2 2.92705 7.61987 -1.68808 2.92705 7.61987 -1.68808
112 1 3.89791 9.25713 -0.0595494 3.89791 9.25713 -0.0595494
113 2 5.82265 9.24841 1.54374 5.82265 9.24841 1.54374
114 2 5.77546 9.26589 -1.71805 5.77546 9.26589 -1.71805
115 1 6.74957 7.61065 -0.109755 6.74957 7.61065 -0.109755
116 2 8.6755 7.60021 1.49212 8.6755 7.60021 1.49212
117 2 8.62585 7.62114 -1.76962 8.62585 7.62114 -1.76962
118 1 9.60129 9.25722 -0.142623 9.60129 9.25722 -0.142623
119 2 11.5252 9.24836 1.46173 11.5252 9.24836 1.46173
120 2 11.4796 9.2661 -1.80009 11.4796 9.2661 -1.80009
121 1 12.4529 7.61075 -0.191445 12.4529 7.61075 -0.191445
122 2 14.3716 7.60115 1.41924 14.3716 7.60115 1.41924
123 2 14.3367 7.62034 -1.84271 14.3367 7.62034 -1.84271
124 1 15.3048 9.25727 -0.212132 15.3048 9.25727 -0.212132
125 2 17.2171 9.25059 1.40617 17.2171 9.25059 1.40617
126 2 17.195 9.26391 -1.85593 17.195 9.26391 -1.85593
127 1 18.1566 7.61075 -0.238033 18.1566 7.61075 -0.238033
128 2 20.0599 7.60355 1.39091 20.0599 7.60355 1.39091
129 2 20.056 7.61789 -1.87125 20.056 7.61789 -1.87125
130 1 21.0086 9.25721 -0.233962 21.0086 9.25721 -0.233962
131 2 22.9045 9.25368 1.40358 22.9045 9.25368 1.40358
132 2 22.9152 9.26069 -1.8586 22.9152 9.26069 -1.8586
133 1 23.8605 7.61066 -0.227881 23.8605 7.61066 -0.227881
134 2 25.7483 7.6059 1.41903 25.7483 7.6059 1.41903
135 2 25.7752 7.61537 -1.84305 25.7752 7.61537 -1.84305
136 1 26.7124 9.25713 -0.199285 26.7124 9.25713 -0.199285
137 2 28.5952 9.25585 1.45331 28.5952 9.25585 1.45331
138 2 28.6319 9.25839 -1.80868 28.6319 9.25839 -1.80868
139 1 29.5641 7.61058 -0.168192 29.5641 7.61058 -0.168192
140 2 31.4431 7.60717 1.48867 31.4431 7.60717 1.48867
141 2 31.4873 7.61398 -1.77321 31.4873 7.61398 -1.77321
142 1 32.4158 9.25709 -0.125874 32.4158 9.25709 -0.125874
143 2 34.2943 9.25632 1.53161 34.2943 9.25632 1.53161
144 2 34.3396 9.25787 -1.73026 34.3396 9.25787 -1.73026
145 1 35.2675 7.61054 -0.0868279 35.2675 7.61054 -0.0868279
146 2 37.148 7.60699 1.56831 37.148 7.60699 1.56831
147 2 37.1894 7.6141 -1.6936 37.1894 7.6141 -1.6936
148 1 38.1193 9.25708 -0.0469659 38.1193 9.25708 -0.0469659
149 2 40.004 9.25519 1.60328 40.004 9.25519 1.60328
150 2 40.037 9.259 -1.65873 40.037 9.259 -1.65873
151 1 40.9711 7.61052 -0.0199877 40.9711 7.61052 -0.0199877
152 2 42.8629 7.60555 1.62216 42.8629 7.60555 1.62216
153 2 42.882 7.61551 -1.63994 42.882 7.61551 -1.63994
154 1 43.8231 9.25708 0.00171214 43.8231 9.25708 0.00171214
155 2 45.7222 9.25295 1.63536 45.7222 9.25295 1.63536
156 2 45.7268 9.26122 -1.62679 45.7268 9.26122 -1.62679
157 1 46.6752 7.61052 0.00145655 46.6752 7.61052 0.00145655
158 2 48.583 7.6034 1.62479 48.583 7.6034 1.62479
159 2 48.57 7.61765 -1.63732 48.57 7.61765 -1.63732
160 1 49.5272 9.25709 -0.0029002 49.5272 9.25709 -0.0029002
161 2 51.442 9.25037 1.61224 51.442 9.25037 1.61224
162 2 51.415 9.26382 -1.64979 51.415 9.26382 -1.64979
163 1 1.04611 10.9037 -0.0198837 1.04611 10.9037 -0.0198837
164 2 2.9664 10.8975 1.58874 2.9664 10.8975 1.58874
165 2 2.92826 10.9098 -1.67319 2.92826 10.9098 -1.67319
166 1 3.89799 12.5502 -0.0471519 3.89799 12.5502 -0.0471519
167 2 5.8219 12.5453 1.55716 5.8219 12.5453 1.55716
168 2 5.77639 12.5552 -1.70469 5.77639 12.5552 -1.70469
169 1 6.74968 10.9037 -0.0920733 6.74968 10.9037 -0.0920733
170 2 8.67539 10.8963 1.51009 8.67539 10.8963 1.51009
171 2 8.6262 10.9111 -1.75169 8.6262 10.9111 -1.75169
172 1 9.60141 12.5503 -0.127629 9.60141 12.5503 -0.127629
173 2 11.5258 12.5453 1.47615 11.5258 12.5453 1.47615
174 2 11.4792 12.5553 -1.78569 11.4792 12.5553 -1.78569
175 1 12.453 10.9038 -0.173436 12.453 10.9038 -0.173436
176 2 14.3728 10.8976 1.4359 14.3728 10.8976 1.4359
177 2 14.3356 10.9099 -1.82606 14.3356 10.9099 -1.82606
178 1 15.3049 12.5503 -0.199641 15.3049 12.5503 -0.199641
179 2 17.219 12.5478 1.41652 17.219 12.5478 1.41652
180 2 17.1932 12.5527 -1.84557 17.1932 12.5527 -1.84557
181 1 18.1567 10.9038 -0.224479 18.1567 10.9038 -0.224479
182 2 20.0619 10.9009 1.40224 20.0619 10.9009 1.40224
183 2 20.0541 10.9066 -1.85995 20.0541 10.9066 -1.85995
184 1 21.0086 12.5502 -0.228135 21.0086 12.5502 -0.228135
185 2 22.9066 12.5515 1.40707 22.9066 12.5515 1.40707
186 2 22.9133 12.5489 -1.85512 22.9133 12.5489 -1.85512
187 1 23.8605 10.9037 -0.220725 23.8605 10.9037 -0.220725
188 2 25.7499 10.904 1.42442 25.7499 10.904 1.42442
189 2 25.7737 10.9033 -1.8377 25.7737 10.9033 -1.8377
190 1 26.7124 12.5502 -0.19995 26.7124 12.5502 -0.19995
191 2 28.5963 12.554 1.45141 28.5963 12.554 1.45141
192 2 28.6309 12.5464 -1.8106 28.6309 12.5464 -1.8106
193 1 29.5642 10.9036 -0.165604 29.5642 10.9036 -0.165604
194 2 31.4437 10.9054 1.49064 31.4437 10.9054 1.49064
195 2 31.4868 10.9019 -1.77127 31.4868 10.9019 -1.77127
196 1 32.4159 12.5502 -0.129492 32.4159 12.5502 -0.129492
197 2 34.2943 12.5543 1.5281 34.2943 12.5543 1.5281
198 2 34.3398 12.546 -1.73376 34.3398 12.546 -1.73376
199 1 35.2675 10.9036 -0.0852804 35.2675 10.9036 -0.0852804
200 2 37.1476 10.9049 1.57035 37.1476 10.9049 1.57035
201 2 37.1898 10.9024 -1.69156 37.1898 10.9024 -1.69156
202 1 38.1193 12.5502 -0.0495478 38.1193 12.5502 -0.0495478
203 2 40.0031 12.5529 1.60183 40.0031 12.5529 1.60183
204 2 40.038 12.5475 -1.66015 40.038 12.5475 -1.66015
205 1 40.9712 10.9037 -0.016176 40.9712 10.9037 -0.016176
206 2 42.8618 10.9029 1.62726 42.8618 10.9029 1.62726
207 2 42.8831 10.9044 -1.63484 42.8831 10.9044 -1.63484
208 1 43.8231 12.5502 0.00316574 43.8231 12.5502 0.00316574
209 2 45.7208 12.5503 1.63853 45.7208 12.5503 1.63853
210 2 45.7282 12.5501 -1.62363 45.7282 12.5501 -1.62363
211 1 46.6752 10.9037 0.00977531 46.6752 10.9037 0.00977531
212 2 48.5817 10.9001 1.63471 48.5817 10.9001 1.63471
213 2 48.5714 10.9072 -1.62743 48.5714 10.9072 -1.62743
214 1 49.5272 12.5502 0.00414488 49.5272 12.5502 0.00414488
215 2 51.4406 12.5474 1.62102 51.4406 12.5474 1.62102
216 2 51.4165 12.5531 -1.64105 51.4165 12.5531 -1.64105
217 1 1.04615 14.1968 -0.0141981 1.04615 14.1968 -0.0141981
218 2 2.96515 14.195 1.59598 2.96515 14.195 1.59598
219 2 2.92963 14.1986 -1.66599 2.92963 14.1986 -1.66599
220 1 3.89805 15.8434 -0.0435536 3.89805 15.8434 -0.0435536
221 2 5.82107 15.8432 1.56184 5.82107 15.8432 1.56184
222 2 5.77737 15.8435 -1.70005 5.77737 15.8435 -1.70005
223 1 6.74978 14.1968 -0.0819754 6.74978 14.1968 -0.0819754
224 2 8.67523 14.1938 1.52052 8.67523 14.1938 1.52052
225 2 8.62656 14.1998 -1.7413 8.62656 14.1998 -1.7413
226 1 9.60151 15.8434 -0.121496 9.60151 15.8434 -0.121496
227 2 11.5263 15.8432 1.48177 11.5263 15.8432 1.48177
228 2 11.4789 15.8436 -1.78008 11.4789 15.8436 -1.78008
229 1 12.4531 14.1968 -0.163194 12.4531 14.1968 -0.163194
230 2 14.3742 14.1951 1.44466 14.3742 14.1951 1.44466
231 2 14.3344 14.1985 -1.81729 14.3344 14.1985 -1.81729
232 1 15.3049 15.8433 -0.196085 15.3049 15.8433 -0.196085
233 2 17.2208 15.8455 1.41794 17.2208 15.8455 1.41794
234 2 17.1915 15.8412 -1.84412 17.1915 15.8412 -1.84412
235 1 18.1567 14.1968 -0.219454 18.1567 14.1968 -0.219454
236 2 20.0641 14.1985 1.40473 20.0641 14.1985 1.40473
237 2 20.052 14.195 -1.85745 20.052 14.195 -1.85745
238 1 21.0087 15.8433 -0.231517 21.0087 15.8433 -0.231517
239 2 22.9086 15.8489 1.40131 22.9086 15.8489 1.40131
240 2 22.9113 15.8376 -1.86088 22.9113 15.8376 -1.86088
241 1 23.8606 14.1967 -0.223254 23.8606 14.1967 -0.223254
242 2 25.7516 14.2017 1.41996 25.7516 14.2017 1.41996
243 2 25.7721 14.1916 -1.84216 25.7721 14.1916 -1.84216
244 1 26.7125 15.8432 -0.21015 26.7125 15.8432 -0.21015
245 2 28.5974 15.8512 1.44004 28.5974 15.8512 1.44004
246 2 28.63 15.8352 -1.82196 28.63 15.8352 -1.82196
247 1 29.5642 14.1967 -0.173273 29.5642 14.1967 -0.173273
248 2 31.4442 14.2032 1.48249 31.4442 14.2032 1.48249
249 2 31.4865 14.1902 -1.7794 31.4865 14.1902 -1.7794
250 1 32.416 15.8432 -0.142628 32.416 15.8432 -0.142628
251 2 34.2941 15.8516 1.51524 34.2941 15.8516 1.51524
252 2 34.3401 15.8349 -1.74658 34.3401 15.8349 -1.74658
253 1 35.2676 14.1967 -0.0937249 35.2676 14.1967 -0.0937249
254 2 37.147 14.2026 1.56269 37.147 14.2026 1.56269
255 2 37.1906 14.1909 -1.69917 37.1906 14.1909 -1.69917
256 1 38.1194 15.8433 -0.0614278 38.1194 15.8433 -0.0614278
257 2 40.002 15.8503 1.59126 40.002 15.8503 1.59126
258 2 40.0392 15.8363 -1.67068 40.0392 15.8363 -1.67068
259 1 40.9712 14.1968 -0.0217054 40.9712 14.1968 -0.0217054
260 2 42.8605 14.2005 1.62334 42.8605 14.2005 1.62334
261 2 42.8845 14.193 -1.63873 42.8845 14.193 -1.63873
262 1 43.8232 15.8434 -0.0044695 43.8232 15.8434 -0.0044695
263 2 45.7192 15.848 1.63277 45.7192 15.848 1.63277
264 2 45.7299 15.8388 -1.62937 45.7299 15.8388 -1.62937
265 1 46.6752 14.1968 0.00950825 46.6752 14.1968 0.00950825
266 2 48.5801 14.1977 1.63636 48.5801 14.1977 1.63636
267 2 48.573 14.1959 -1.62579 48.573 14.1959 -1.62579
268 1 49.5273 15.8434 0.00230978 49.5273 15.8434 0.00230978
269 2 51.439 15.8452 1.62105 51.439 15.8452 1.62105
270 2 51.4181 15.8415 -1.64105 51.4181 15.8415 -1.64105
271 1 1.04617 17.4899 -0.0179963 1.04617 17.4899 -0.0179963
272 2 2.96388 17.4932 1.59373 2.96388 17.4932 1.59373
273 2 2.93098 17.4867 -1.66827 2.93098 17.4867 -1.66827
274 1 3.89807 19.1365 -0.0501388 3.89807 19.1365 -0.0501388
275 2 5.82021 19.1416 1.5563 5.82021 19.1416 1.5563
276 2 5.77831 19.1314 -1.70559 5.77831 19.1314 -1.70559
277 1 6.74985 17.4899 -0.081693 6.74985 17.4899 -0.081693
278 2 8.67496 17.4921 1.5212 8.67496 17.4921 1.5212
279 2 8.62698 17.4878 -1.74062 8.62698 17.4878 -1.74062
280 1 9.60156 19.1364 -0.125867 9.60156 19.1364 -0.125867
281 2 11.5266 19.1414 1.47713 11.5266 19.1414 1.47713
282 2 11.4787 19.1315 -1.78469 11.4787 19.1315 -1.78469
283 1 12.4532 17.4899 -0.162728 12.4532 17.4899 -0.162728
284 2 14.3753 17.493 1.44387 14.3753 17.493 1.44387
285 2 14.3334 17.4867 -1.81805 14.3334 17.4867 -1.81805
286 1 15.305 19.1364 -0.202433 15.305 19.1364 -0.202433
287 2 17.2222 19.1429 1.40996 17.2222 19.1429 1.40996
288 2 17.1902 19.1298 -1.85205 17.1902 19.1298 -1.85205
289 1 18.1568 17.4898 -0.223741 18.1568 17.4898 -0.223741
290 2 20.066 17.4958 1.39815 20.066 17.4958 1.39815
291 2 20.0501 17.4838 -1.86399 20.0501 17.4838 -1.86399
292 1 21.0087 19.1363 -0.243548 21.0087 19.1363 -0.243548
293 2 22.9103 19.1453 1.38737 22.9103 19.1453 1.38737
294 2 22.9097 19.1271 -1.87478 22.9097 19.1271 -1.87478
295 1 23.8606 17.4897 -0.234633 23.8606 17.4897 -0.234633
296 2 25.7531 17.4985 1.40684 25.7531 17.4985 1.40684
297 2 25.7707 17.4809 -1.85527 25.7707 17.4809 -1.85527
298 1 26.7126 19.1362 -0.227931 26.7126 19.1362 -0.227931
299 2 28.5983 19.1471 1.42134 28.5983 19.1471 1.42134
300 2 28.6293 19.1253 -1.84063 28.6293 19.1253 -1.84063
301 1 29.5643 17.4897 -0.189509 29.5643 17.4897 -0.189509
302 2 31.4446 17.4998 1.46591 31.4446 17.4998 1.46591
303 2 31.4864 17.4797 -1.79596 31.4864 17.4797 -1.79596
304 1 32.4161 19.1362 -0.162978 32.4161 19.1362 -0.162978
305 2 34.2939 19.1475 1.4952 34.2939 19.1475 1.4952
306 2 34.3405 19.125 -1.76658 34.3405 19.125 -1.76658
307 1 35.2677 17.4898 -0.110681 35.2677 17.4898 -0.110681
308 2 37.1463 17.4994 1.54658 37.1463 17.4994 1.54658
309 2 37.1914 17.4802 -1.71523 37.1914 17.4802 -1.71523
310 1 38.1195 19.1364 -0.0808499 38.1195 19.1364 -0.0808499
311 2 40.0011 19.1467 1.57301 40.0011 19.1467 1.57301
312 2 40.0403 19.126 -1.68887 40.0403 19.126 -1.68887
313 1 40.9713 17.4899 -0.0359554 40.9713 17.4899 -0.0359554
314 2 42.8591 17.4978 1.61069 42.8591 17.4978 1.61069
315 2 42.886 17.482 -1.65133 42.886 17.482 -1.65133
316 1 43.8232 19.1365 -0.0204696 43.8232 19.1365 -0.0204696
317 2 45.7177 19.1451 1.61845 45.7177 19.1451 1.61845
318 2 45.7313 19.1278 -1.64365 45.7313 19.1278 -1.64365
319 1 46.6752 17.4899 0.000147459 46.6752 17.4899 0.000147459
320 2 48.5785 17.4954 1.6289 48.5785 17.4954 1.6289
321 2 48.5747 17.4844 -1.63324 48.5747 17.4844 -1.63324
322 1 49.5273 19.1365 -0.00885766 49.5273 19.1365 -0.00885766
323 2 51.4376 19.1431 1.61158 51.4376 19.1431 1.61158
324 2 51.4196 19.1299 -1.65051 51.4196 19.1299 -1.65051
325 1 1.04617 20.783 -0.0314329 1.04617 20.783 -0.0314329
326 2 2.96273 20.7911 1.58163 2.96273 20.7911 1.58163
327 2 2.93214 20.775 -1.68037 2.93214 20.775 -1.68037
328 1 3.89806 22.4296 -0.0664285 3.89806 22.4296 -0.0664285
329 2 5.8194 22.4392 1.54092 5.8194 22.4392 1.54092
330 2 5.7791 22.4199 -1.72095 5.7791 22.4199 -1.72095
331 1 6.74986 20.783 -0.0920074 6.74986 20.783 -0.0920074
332 2 8.67453 20.7903 1.5114 8.67453 20.7903 1.5114
333 2 8.62746 20.7757 -1.75041 8.62746 20.7757 -1.75041
334 1 9.60156 22.4295 -0.140564 9.60156 22.4295 -0.140564
335 2 11.5265 22.4389 1.46253 11.5265 22.4389 1.46253
336 2 11.4789 22.4201 -1.79925 11.4789 22.4201 -1.79925
337 1 12.4533 20.7829 -0.1727 12.4533 20.7829 -0.1727
338 2 14.3759 20.7907 1.43319 14.3759 20.7907 1.43319
339 2 14.3329 20.7752 -1.82868 14.3329 20.7752 -1.82868
340 1 15.305 22.4294 -0.218106 15.305 22.4294 -0.218106
341 2 17.2228 22.4394 1.39351 17.2228 22.4394 1.39351
342 2 17.1895 22.4193 -1.86845 17.1895 22.4193 -1.86845
343 1 18.1568 20.7828 -0.236991 18.1568 20.7828 -0.236991
344 2 20.0673 20.7922 1.38337 20.0673 20.7922 1.38337
345 2 20.0488 20.7734 -1.87872 20.0488 20.7734 -1.87872
346 1 21.0087 22.4293 -0.262527 21.0087 22.4293 -0.262527
347 2 22.9111 22.4404 1.36738 22.9111 22.4404 1.36738
348 2 22.9089 22.4181 -1.89473 22.9089 22.4181 -1.89473
349 1 23.8607 20.7827 -0.253005 23.8607 20.7827 -0.253005
350 2 25.7542 20.7938 1.38727 25.7542 20.7938 1.38727
351 2 25.7698 20.7716 -1.87481 25.7698 20.7716 -1.87481
352 1 26.7126 22.4292 -0.250439 26.7126 22.4292 -0.250439
353 2 28.5987 22.4412 1.39837 28.5987 22.4412 1.39837
354 2 28.629 22.4172 -1.86358 28.629 22.4172 -1.86358
355 1 29.5644 20.7827 -0.211554 29.5644 20.7827 -0.211554
356 2 31.4449 20.7947 1.44368 31.4449 20.7947 1.44368
357 2 31.4863 20.7707 -1.81816 31.4863 20.7707 -1.81816
358 1 32.4162 22.4292 -0.187245 32.4162 22.4292 -0.187245
359 2 34.2938 22.4415 1.47122 34.2938 22.4415 1.47122
360 2 34.3409 22.417 -1.79054 34.3409 22.417 -1.79054
361 1 35.2679 20.7828 -0.133443 35.2679 20.7828 -0.133443
362 2 37.1458 20.7946 1.52452 37.1458 20.7946 1.52452
363 2 37.1922 20.771 -1.73725 37.1922 20.771 -1.73725
364 1 38.1196 22.4294 -0.104803 38.1196 22.4294 -0.104803
365 2 40.0004 22.4414 1.54988 40.0004 22.4414 1.54988
366 2 40.0411 22.4173 -1.71196 40.0411 22.4173 -1.71196
367 1 40.9713 20.7829 -0.0569559 40.9713 20.7829 -0.0569559
368 2 42.858 20.7938 1.59097 42.858 20.7938 1.59097
369 2 42.8871 20.772 -1.67101 42.8871 20.772 -1.67101
370 1 43.8233 22.4295 -0.0425677 43.8233 22.4295 -0.0425677
371 2 45.7167 22.4408 1.59755 45.7167 22.4408 1.59755
372 2 45.7324 22.4182 -1.66451 45.7324 22.4182 -1.66451
373 1 46.6752 20.783 -0.0173915 46.6752 20.783 -0.0173915
374 2 48.5771 20.7925 1.61292 48.5771 20.7925 1.61292
375 2 48.576 20.7736 -1.6492 48.576 20.7736 -1.6492
376 1 49.5273 22.4296 -0.0280577 49.5273 22.4296 -0.0280577
377 2 51.4365 22.44 1.59364 51.4365 22.44 1.59364
378 2 51.4207 22.4191 -1.66843 51.4207 22.4191 -1.66843
379 1 1.04615 24.0761 -0.0525765 1.04615 24.0761 -0.0525765
380 2 2.96191 24.0876 1.56139 2.96191 24.0876 1.56139
381 2 2.93291 24.0646 -1.70058 2.93291 24.0646 -1.70058
382 1 3.89801 25.7226 -0.0896903 3.89801 25.7226 -0.0896903
383 2 5.81881 25.735 1.51826 5.81881 25.735 1.51826
384 2 5.77958 25.7102 -1.7436 5.77958 25.7102 -1.7436
385 1 6.74983 24.0761 -0.111525 6.74983 24.0761 -0.111525
386 2 8.67399 24.0872 1.49245 8.67399 24.0872 1.49245
387 2 8.62794 24.0649 -1.76934 8.62794 24.0649 -1.76934
388 1 9.6015 25.7225 -0.163183 9.6015 25.7225 -0.163183
389 2 11.526 25.7348 1.44033 11.526 25.7348 1.44033
390 2 11.4792 25.7102 -1.82142 11.4792 25.7102 -1.82142
391 1 12.4532 24.076 -0.191779 12.4532 24.076 -0.191779
392 2 14.3759 24.0871 1.41407 14.3759 24.0871 1.41407
393 2 14.3329 24.0648 -1.84776 14.3329 24.0648 -1.84776
394 1 15.3049 25.7224 -0.240642 15.3049 25.7224 -0.240642
395 2 17.2226 25.7343 1.37115 17.2226 25.7343 1.37115
396 2 17.1897 25.7104 -1.89078 17.1897 25.7104 -1.89078
397 1 18.1568 24.0758 -0.257347 18.1568 24.0758 -0.257347
398 2 20.0677 24.0872 1.36257 20.0677 24.0872 1.36257
399 2 20.0485 24.0644 -1.89949 20.0485 24.0644 -1.89949
400 1 21.0087 25.7223 -0.285569 21.0087 25.7223 -0.285569
401 2 22.9111 25.7337 1.3444 22.9111 25.7337 1.3444
402 2 22.909 25.7107 -1.9177 22.909 25.7107 -1.9177
403 1 23.8607 24.0757 -0.27558 23.8607 24.0757 -0.27558
404 2 25.7545 24.0874 1.36432 25.7545 24.0874 1.36432
405 2 25.7695 24.0639 -1.89774 25.7695 24.0639 -1.89774
406 1 26.7127 25.7222 -0.274207 26.7127 25.7222 -0.274207
407 2 28.5987 25.7335 1.37472 28.5987 25.7335 1.37472
408 2 28.6292 25.7109 -1.88724 28.6292 25.7109 -1.88724
409 1 29.5645 24.0757 -0.235906 29.5645 24.0757 -0.235906
410 2 31.4449 24.0877 1.41938 31.4449 24.0877 1.41938
411 2 31.4865 24.0637 -1.84245 31.4865 24.0637 -1.84245
412 1 32.4163 25.7222 -0.211528 32.4163 25.7222 -0.211528
413 2 34.2936 25.7336 1.44721 34.2936 25.7336 1.44721
414 2 34.3413 25.711 -1.81455 34.3413 25.711 -1.81455
415 1 35.268 24.0758 -0.158337 35.268 24.0758 -0.158337
416 2 37.1455 24.0879 1.50008 37.1455 24.0879 1.50008
417 2 37.1927 24.0637 -1.76168 37.1927 24.0637 -1.76168
418 1 38.1197 25.7224 -0.129277 38.1197 25.7224 -0.129277
419 2 40.0001 25.7339 1.52579 40.0001 25.7339 1.52579
420 2 40.0416 25.7108 -1.73606 40.0416 25.7108 -1.73606
421 1 40.9714 24.0759 -0.0813458 40.9714 24.0759 -0.0813458
422 2 42.8574 24.088 1.56733 42.8574 24.088 1.56733
423 2 42.8879 24.0639 -1.69462 42.8879 24.0639 -1.69462
424 1 43.8233 25.7225 -0.066967 43.8233 25.7225 -0.066967
425 2 45.7163 25.7345 1.57367 45.7163 25.7345 1.57367
426 2 45.7329 25.7105 -1.68838 45.7329 25.7105 -1.68838
427 1 46.6753 24.076 -0.040401 46.6753 24.076 -0.040401
428 2 48.5763 24.0879 1.59086 48.5763 24.0879 1.59086
429 2 48.5769 24.0642 -1.67123 48.5769 24.0642 -1.67123
430 1 49.5273 25.7226 -0.0520051 49.5273 25.7226 -0.0520051
431 2 51.4359 25.7349 1.5703 51.4359 25.7349 1.5703
432 2 51.4212 25.7103 -1.69176 51.4212 25.7103 -1.69176
433 1 1.0461 27.3691 -0.0775142 1.0461 27.3691 -0.0775142
434 2 2.96159 27.3818 1.53673 2.96159 27.3818 1.53673
435 2 2.93311 27.3564 -1.72524 2.93311 27.3564 -1.72524
436 1 3.89793 29.0156 -0.115469 3.89793 29.0156 -0.115469
437 2 5.81861 29.0284 1.49259 5.81861 29.0284 1.49259
438 2 5.7796 29.0027 -1.76927 5.7796 29.0027 -1.76927
439 1 6.74974 27.3691 -0.136715 6.74974 27.3691 -0.136715
440 2 8.67349 27.3821 1.46772 8.67349 27.3821 1.46772
441 2 8.62828 27.356 -1.79405 8.62828 27.356 -1.79405
442 1 9.60139 29.0155 -0.189552 9.60139 29.0155 -0.189552
443 2 11.5254 29.0284 1.41457 11.5254 29.0284 1.41457
444 2 11.4796 29.0026 -1.8472 11.4796 29.0026 -1.8472
445 1 12.4531 27.3689 -0.216645 12.4531 27.3689 -0.216645
446 2 14.3753 27.3815 1.38979 14.3753 27.3815 1.38979
447 2 14.3333 27.3564 -1.87203 14.3333 27.3564 -1.87203
448 1 15.3049 29.0154 -0.266081 15.3049 29.0154 -0.266081
449 2 17.2217 29.0271 1.34672 17.2217 29.0271 1.34672
450 2 17.1905 29.0036 -1.91523 17.1905 29.0036 -1.91523
451 1 18.1568 27.3688 -0.281494 18.1568 27.3688 -0.281494
452 2 20.0671 27.3803 1.33904 20.0671 27.3803 1.33904
453 2 20.049 27.3572 -1.92301 20.049 27.3572 -1.92301
454 1 21.0087 29.0153 -0.308957 21.0087 29.0153 -0.308957
455 2 22.9102 29.0253 1.32206 22.9102 29.0253 1.32206
456 2 22.9099 29.0052 -1.94006 22.9099 29.0052 -1.94006
457 1 23.8607 27.3687 -0.298895 23.8607 27.3687 -0.298895
458 2 25.7541 27.3793 1.34151 25.7541 27.3793 1.34151
459 2 25.77 27.3582 -1.92056 25.77 27.3582 -1.92056
460 1 26.7127 29.0152 -0.295587 26.7127 29.0152 -0.295587
461 2 28.5981 29.024 1.35407 28.5981 29.024 1.35407
462 2 28.6299 29.0065 -1.90791 28.6299 29.0065 -1.90791
463 1 29.5646 27.3687 -0.258761 29.5646 27.3687 -0.258761
464 2 31.4447 27.3788 1.39689 31.4447 27.3788 1.39689
465 2 31.4869 27.3587 -1.86496 31.4869 27.3587 -1.86496
466 1 32.4164 29.0153 -0.231917 32.4164 29.0153 -0.231917
467 2 34.2934 29.0237 1.42715 34.2934 29.0237 1.42715
468 2 34.3416 29.0069 -1.83464 34.3416 29.0069 -1.83464
469 1 35.268 27.3688 -0.181219 35.268 27.3688 -0.181219
470 2 37.1454 27.379 1.47742 37.1454 27.379 1.47742
471 2 37.1929 27.3586 -1.78436 37.1929 27.3586 -1.78436
472 1 38.1197 29.0154 -0.149945 38.1197 29.0154 -0.149945
473 2 40.0002 29.0243 1.5051 40.0002 29.0243 1.5051
474 2 40.0416 29.0065 -1.75678 40.0416 29.0065 -1.75678
475 1 40.9715 27.3689 -0.104775 40.9715 27.3689 -0.104775
476 2 42.8573 27.3798 1.54405 42.8573 27.3798 1.54405
477 2 42.8881 27.358 -1.71792 42.8881 27.358 -1.71792
478 1 43.8233 29.0155 -0.0890241 43.8233 29.0155 -0.0890241
479 2 45.7165 29.0257 1.55139 45.7165 29.0257 1.55139
480 2 45.7328 29.0053 -1.7107 45.7328 29.0053 -1.7107
481 1 46.6753 27.369 -0.0646275 46.6753 27.369 -0.0646275
482 2 48.5761 27.3809 1.5668 48.5761 27.3809 1.5668
483 2 48.577 27.3572 -1.6953 48.577 27.3572 -1.6953
484 1 49.5272 29.0155 -0.0760402 49.5272 29.0155 -0.0760402
485 2 51.4361 29.0273 1.54605 51.4361 29.0273 1.54605
486 2 51.421 29.0038 -1.71602 51.421 29.0038 -1.71602
487 1 1.04604 30.6621 -0.101318 1.04604 30.6621 -0.101318
488 2 2.9619 30.6736 1.51246 2.9619 30.6736 1.51246
489 2 2.93265 30.6506 -1.74953 2.93265 30.6506 -1.74953
490 1 3.89783 32.3086 -0.138749 3.89783 32.3086 -0.138749
491 2 5.8189 32.3194 1.46882 5.8189 32.3194 1.46882
492 2 5.77909 32.2977 -1.79305 5.77909 32.2977 -1.79305
493 1 6.74963 30.662 -0.162772 6.74963 30.662 -0.162772
494 2 8.67319 30.6745 1.44186 8.67319 30.6745 1.44186
495 2 8.62834 30.6496 -1.81992 8.62834 30.6496 -1.81992
496 1 9.60126 32.3085 -0.214737 9.60126 32.3085 -0.214737
497 2 11.5248 32.3196 1.38998 11.5248 32.3196 1.38998
498 2 11.48 32.2974 -1.87181 11.48 32.2974 -1.87181
499 1 12.453 30.6619 -0.242737 12.453 30.6619 -0.242737
500 2 14.3743 30.6736 1.36472 14.3743 30.6736 1.36472
501 2 14.3341 30.6502 -1.89713 14.3341 30.6502 -1.89713
502 1 15.3048 32.3084 -0.289825 15.3048 32.3084 -0.289825
503 2 17.2203 32.3178 1.32454 17.2203 32.3178 1.32454
504 2 17.1918 32.299 -1.93745 17.1918 32.299 -1.93745
505 1 18.1567 30.6618 -0.305247 18.1567 30.6618 -0.305247
506 2 20.0658 30.6715 1.31676 20.0658 30.6715 1.31676
507 2 20.0502 30.6521 -1.94532 20.0502 30.6521 -1.94532
508 1 21.0087 32.3083 -0.328709 21.0087 32.3083 -0.328709
509 2 22.9087 32.3152 1.30407 22.9087 32.3152 1.30407
510 2 22.9114 32.3015 -1.95807 22.9114 32.3015 -1.95807
511 1 23.8607 30.6618 -0.319249 23.8607 30.6618 -0.319249
512 2 25.7531 30.6694 1.32242 25.7531 30.6694 1.32242
513 2 25.7711 30.6541 -1.93967 25.7711 30.6541 -1.93967
514 1 26.7127 32.3083 -0.311154 26.7127 32.3083 -0.311154
515 2 28.597 32.3131 1.33973 28.597 32.3131 1.33973
516 2 28.631 32.3036 -1.92225 28.631 32.3036 -1.92225
517 1 29.5646 30.6618 -0.276531 29.5646 30.6618 -0.276531
518 2 31.4441 30.6683 1.37981 31.4441 30.6683 1.37981
519 2 31.4875 30.6553 -1.88206 31.4875 30.6553 -1.88206
520 1 32.4164 32.3084 -0.245029 32.4164 32.3084 -0.245029
521 2 34.293 32.3123 1.41447 34.293 32.3123 1.41447
522 2 34.342 32.3044 -1.84734 34.342 32.3044 -1.84734
523 1 35.2681 30.6618 -0.19818 35.2681 30.6618 -0.19818
524 2 37.1453 30.6683 1.46054 37.1453 30.6683 1.46054
525 2 37.193 30.6554 -1.80127 37.193 30.6554 -1.80127
526 1 38.1198 32.3084 -0.163017 38.1198 32.3084 -0.163017
527 2 40.0005 32.313 1.49169 40.0005 32.313 1.49169
528 2 40.0413 32.3039 -1.77024 40.0413 32.3039 -1.77024
529 1 40.9715 30.6619 -0.122817 40.9715 30.6619 -0.122817
530 2 42.8577 30.6695 1.52559 42.8577 30.6695 1.52559
531 2 42.8877 30.6543 -1.73644 42.8877 30.6543 -1.73644
532 1 43.8233 32.3085 -0.104412 43.8233 32.3085 -0.104412
533 2 45.7173 32.3149 1.53507 45.7173 32.3149 1.53507
534 2 45.732 32.302 -1.72707 45.732 32.302 -1.72707
535 1 46.6753 30.662 -0.085272 46.6753 30.662 -0.085272
536 2 48.5767 30.6716 1.54549 48.5767 30.6716 1.54549