ITEM: TIMESTEP
34000
ITEM: NUMBER OF ATOMS
810
ITEM: BOX BOUNDS pp pp pp
8.4141176974219822e-01 5.2176193230256864e+01
8.0927851115057636e-01 5.0206936488849124e+01
-1.0000000000000000e+01 1.0000000000000000e+01
ITEM: ATOMS id type x y z xu yu zu
1 1 1.04499 1.02358 -0.185287 1.04499 1.02358 -0.185287
2 2 2.94257 1.01394 1.45014 2.94257 1.01394 1.45014
3 2 2.95 1.03324 -1.81198 2.95 1.03324 -1.81198
4 1 3.89692 2.67016 -0.168971 3.89692 2.67016 -0.168971
5 2 5.79294 2.66043 1.46827 5.79294 2.66043 1.46827
6 2 5.80347 2.67989 -1.79384 5.80347 2.67989 -1.79384
7 1 6.74886 1.02358 -0.169535 6.74886 1.02358 -0.169535
8 2 8.64414 1.0131 1.46853 8.64414 1.0131 1.46853
9 2 8.65613 1.03407 -1.79356 8.65613 1.03407 -1.79356
10 1 9.60077 2.67015 -0.148399 9.60077 2.67015 -0.148399
11 2 11.496 2.65965 1.48972 11.496 2.65965 1.48972
12 2 11.5081 2.68065 -1.77237 11.5081 2.68065 -1.77237
13 1 12.4527 1.02357 -0.148421 12.4527 1.02357 -0.148421
14 2 14.3489 1.01254 1.48859 14.3489 1.01254 1.48859
15 2 14.3591 1.0346 -1.77351 14.3591 1.0346 -1.77351
16 1 15.3046 2.67013 -0.128313 15.3046 2.67013 -0.128313
17 2 17.2026 2.65935 1.50664 17.2026 2.65935 1.50664
18 2 17.2093 2.68093 -1.75546 17.2093 2.68093 -1.75546
19 1 18.1566 1.02356 -0.133379 18.1566 1.02356 -0.133379
20 2 20.0565 1.01256 1.49923 20.0565 1.01256 1.49923
21 2 20.0592 1.03456 -1.76288 20.0592 1.03456 -1.76288
22 1 21.0085 2.67013 -0.119907 21.0085 2.67013 -0.119907
23 2 22.9109 2.6596 1.50986 22.9109 2.6596 1.50986
24 2 22.9087 2.68066 -1.75226 22.9087 2.68066 -1.75226
25 1 23.8604 1.02356 -0.132507 23.8604 1.02356 -0.132507
26 2 25.7645 1.01304 1.49529 25.7645 1.01304 1.49529
27 2 25.759 1.03408 -1.76682 25.759 1.03408 -1.76682
28 1 26.7124 2.67014 -0.126726 26.7124 2.67014 -0.126726
29 2 28.6182 2.66028 1.49903 28.6182 2.66028 1.49903
30 2 28.6091 2.67999 -1.76309 28.6091 2.67999 -1.76309
31 1 29.5643 1.02356 -0.144653 29.5643 1.02356 -0.144653
32 2 31.4707 1.01363 1.48046 31.4707 1.01363 1.48046
33 2 31.4605 1.03348 -1.78165 31.4605 1.03348 -1.78165
34 1 32.4162 2.67014 -0.143502 32.4162 2.67014 -0.143502
35 2 34.3232 2.66098 1.48092 34.3232 2.66098 1.48092
36 2 34.3118 2.67929 -1.78119 34.3118 2.67929 -1.78119
37 1 35.2682 1.02356 -0.162714 35.2682 1.02356 -0.162714
38 2 37.1747 1.01404 1.46226 37.1747 1.01404 1.46226
39 2 37.1642 1.03308 -1.79986 37.1642 1.03308 -1.79986
40 1 38.1201 2.67014 -0.162199 38.1201 2.67014 -0.162199
41 2 40.0262 2.66136 1.46329 40.0262 2.66136 1.46329
42 2 40.0166 2.67891 -1.79883 40.0166 2.67891 -1.79883
43 1 40.972 1.02357 -0.17944 40.972 1.02357 -0.17944
44 2 42.8768 1.01429 1.44758 42.8768 1.01429 1.44758
45 2 42.8698 1.03283 -1.81455 42.8698 1.03283 -1.81455
46 1 43.824 2.67014 -0.176117 43.824 2.67014 -0.176117
47 2 45.7274 2.66144 1.45251 45.7274 2.66144 1.45251
48 2 45.7231 2.67885 -1.80963 45.7231 2.67885 -1.80963
49 1 46.6759 1.02357 -0.188599 46.6759 1.02357 -0.188599
50 2 48.5773 1.01436 1.44236 48.5773 1.01436 1.44236
51 2 48.5771 1.03279 -1.81977 48.5771 1.03279 -1.81977
52 1 49.5278 2.67015 -0.179434 49.5278 2.67015 -0.179434
53 2 51.4273 2.66117 1.4538 51.4273 2.66117 1.4538
54 2 51.4309 2.67914 -1.80834 51.4309 2.67914 -1.80834
55 1 1.04498 4.31673 -0.1671 1.04498 4.31673 -0.1671
56 2 2.94245 4.30821 1.46847 2.94245 4.30821 1.46847
57 2 2.95008 4.32526 -1.79366 2.95008 4.32526 -1.79366
58 1 3.8969 5.96331 -0.151717 3.8969 5.96331 -0.151717
59 2 5.79269 5.95557 1.48581 5.79269 5.95557 1.48581
60 2 5.80367 5.97106 -1.77632 5.80367 5.97106 -1.77632
61 1 6.74883 4.31673 -0.149849 6.74883 4.31673 -0.149849
62 2 8.64392 4.30738 1.48848 8.64392 4.30738 1.48848
63 2 8.65631 4.32608 -1.77363 8.65631 4.32608 -1.77363
64 1 9.60074 5.9633 -0.129473 9.60074 5.9633 -0.129473
65 2 11.4958 5.95484 1.50883 11.4958 5.95484 1.50883
66 2 11.5082 5.97177 -1.75328 11.5082 5.97177 -1.75328
67 1 12.4527 4.31671 -0.127161 12.4527 4.31671 -0.127161
68 2 14.3489 4.30678 1.50983 14.3489 4.30678 1.50983
69 2 14.359 4.32665 -1.75228 14.359 4.32665 -1.75228
70 1 15.3046 5.96329 -0.1082 15.3046 5.96329 -0.1082
71 2 17.2027 5.95443 1.52663 17.2027 5.95443 1.52663
72 2 17.2091 5.97216 -1.7355 17.2091 5.97216 -1.7355
73 1 18.1565 4.3167 -0.111523 18.1565 4.3167 -0.111523
74 2 20.0568 4.30669 1.5207 20.0568 4.30669 1.5207
75 2 20.0589 4.32672 -1.74142 20.0589 4.32672 -1.74142
76 1 21.0085 5.96329 -0.0996195 21.0085 5.96329 -0.0996195
77 2 22.9113 5.95454 1.52966 22.9113 5.95454 1.52966
78 2 22.9083 5.97205 -1.73248 22.9083 5.97205 -1.73248
79 1 23.8604 4.31671 -0.111163 23.8604 4.31671 -0.111163
80 2 25.7651 4.30717 1.51595 25.7651 4.30717 1.51595
81 2 25.7584 4.32625 -1.74617 25.7584 4.32625 -1.74617
82 1 26.7124 5.9633 -0.107395 26.7124 5.9633 -0.107395
83 2 28.6189 5.95529 1.51755 28.6189 5.95529 1.51755
84 2 28.6084 5.9713 -1.74458 28.6084 5.9713 -1.74458
85 1 29.5643 4.31672 -0.124674 29.5643 4.31672 -0.124674
86 2 31.4714 4.30806 1.49967 31.4714 4.30806 1.49967
87 2 31.4598 4.32536 -1.76245 31.4598 4.32536 -1.76245
88 1 32.4162 5.9633 -0.12596 32.4162 5.9633 -0.12596
89 2 34.3239 5.95634 1.49766 34.3239 5.95634 1.49766
90 2 34.3111 5.97026 -1.76447 34.3111 5.97026 -1.76447
91 1 35.2682 4.31672 -0.144161 35.2682 4.31672 -0.144161
92 2 37.1752 4.30879 1.48022 37.1752 4.30879 1.48022
93 2 37.1637 4.32463 -1.78191 37.1637 4.32463 -1.78191
94 1 38.1201 5.9633 -0.146149 38.1201 5.9633 -0.146149
95 2 40.0266 5.95692 1.47888 40.0266 5.95692 1.47888
96 2 40.0162 5.96967 -1.78327 40.0162 5.96967 -1.78327
97 1 40.972 4.31672 -0.161667 40.972 4.31672 -0.161667
98 2 42.8771 4.30901 1.46497 42.8771 4.30901 1.46497
99 2 42.8695 4.32442 -1.79717 42.8695 4.32442 -1.79717
100 1 43.824 5.9633 -0.160504 43.824 5.9633 -0.160504
101 2 45.7275 5.95683 1.46796 45.7275 5.95683 1.46796
102 2 45.723 5.96977 -1.7942 45.723 5.96977 -1.7942
103 1 46.6759 4.31672 -0.170973 46.6759 4.31672 -0.170973
104 2 48.5775 4.3088 1.45981 48.5775 4.3088 1.45981
105 2 48.5769 4.32465 -1.80234 48.5769 4.32465 -1.80234
106 1 49.5278 5.96331 -0.163386 49.5278 5.96331 -0.163386
107 2 51.4272 5.95632 1.46993 51.4272 5.95632 1.46993
108 2 51.431 5.97031 -1.79222 51.431 5.97031 -1.79222
109 1 1.04496 7.6099 -0.152951 1.04496 7.6099 -0.152951
110 2 2.94223 7.60405 1.48289 2.94223 7.60405 1.48289
111 2 2.95027 7.61575 -1.77926 2.95027 7.61575 -1.77926
112 1 3.89688 9.25649 -0.139887 3.89688 9.25649 -0.139887
113 2 5.79243 9.25209 1.49795 5.79243 9.25209 1.49795
114 2 5.8039 9.26089 -1.7642 5.8039 9.26089 -1.7642
115 1 6.74881 7.6099 -0.134186 6.74881 7.6099 -0.134186
116 2 8.64367 7.60335 1.50444 8.64367 7.60335 1.50444
117 2 8.65652 7.61645 -1.7577 8.65652 7.61645 -1.7577
118 1 9.60072 9.25649 -0.116222 9.60072 9.25649 -0.116222
119 2 11.4956 9.25151 1.52233 11.4956 9.25151 1.52233
120 2 11.5084 9.26147 -1.73981 11.5084 9.26147 -1.73981
121 1 12.4527 7.60989 -0.110027 12.4527 7.60989 -0.110027
122 2 14.3488 7.60275 1.52707 14.3488 7.60275 1.52707
123 2 14.3591 7.61703 -1.73507 14.3591 7.61703 -1.73507
124 1 15.3046 9.25648 -0.0937532 15.3046 9.25648 -0.0937532
125 2 17.2026 9.25102 1.54113 17.2026 9.25102 1.54113
126 2 17.2091 9.26196 -1.72102 17.2091 9.26196 -1.72102
127 1 18.1565 7.60988 -0.0935633 18.1565 7.60988 -0.0935633
128 2 20.057 7.60249 1.53845 20.057 7.60249 1.53845
129 2 20.0587 7.61728 -1.72369 20.0587 7.61728 -1.72369
130 1 21.0085 9.25648 -0.0846396 21.0085 9.25648 -0.0846396
131 2 22.9116 9.25096 1.54431 22.9116 9.25096 1.54431
132 2 22.908 9.26202 -1.71785 22.908 9.26202 -1.71785
133 1 23.8604 7.60989 -0.0934124 23.8604 7.60989 -0.0934124
134 2 25.7657 7.60287 1.53307 25.7657 7.60287 1.53307
135 2 25.7578 7.61691 -1.72907 25.7578 7.61691 -1.72907
136 1 26.7124 9.25649 -0.093148 26.7124 9.25649 -0.093148
137 2 28.6196 9.25168 1.53098 28.6196 9.25168 1.53098
138 2 28.6077 9.26131 -1.73117 28.6077 9.26131 -1.73117
139 1 29.5643 7.60989 -0.108435 29.5643 7.60989 -0.108435
140 2 31.4722 7.60392 1.51498 31.4722 7.60392 1.51498
141 2 31.459 7.61587 -1.74716 31.459 7.61587 -1.74716
142 1 32.4163 9.25649 -0.11383 32.4163 9.25649 -0.11383
143 2 34.3247 9.25288 1.50886 34.3247 9.25288 1.50886
144 2 34.3103 9.26009 -1.75328 34.3103 9.26009 -1.75328
145 1 35.2682 7.60989 -0.130048 35.2682 7.60989 -0.130048
146 2 37.1758 7.60493 1.49363 37.1758 7.60493 1.49363
147 2 37.1631 7.61484 -1.76852 37.1631 7.61484 -1.76852
148 1 38.1201 9.25649 -0.136106 38.1201 9.25649 -0.136106
149 2 40.027 9.25359 1.48848 40.027 9.25359 1.48848
150 2 40.0158 9.25937 -1.77368 40.0158 9.25937 -1.77368
151 1 40.972 7.60989 -0.148755 40.972 7.60989 -0.148755
152 2 42.8773 7.60517 1.47767 42.8773 7.60517 1.47767
153 2 42.8693 7.6146 -1.78449 42.8693 7.6146 -1.78449
154 1 43.8239 9.25648 -0.150965 43.8239 9.25648 -0.150965
155 2 45.7275 9.25338 1.4776 45.7275 9.25338 1.4776
156 2 45.723 9.25958 -1.78458 45.723 9.25958 -1.78458
157 1 46.6759 7.60989 -0.157875 46.6759 7.60989 -0.157875
158 2 48.5774 7.60473 1.47302 48.5774 7.60473 1.47302
159 2 48.5769 7.61506 -1.78916 48.5769 7.61506 -1.78916
160 1 49.5278 9.25648 -0.152948 49.5278 9.25648 -0.152948
161 2 51.427 9.25272 1.48067 51.427 9.25272 1.48067
162 2 51.4312 9.26025 -1.7815 51.4312 9.26025 -1.7815
163 1 1.04495 10.9031 -0.145341 1.04495 10.9031 -0.145341
164 2 2.94194 10.9009 1.49084 2.94194 10.9009 1.49084
165 2 2.95054 10.9053 -1.77133 2.95054 10.9053 -1.77133
166 1 3.89687 12.5497 -0.135497 3.89687 12.5497 -0.135497
167 2 5.7922 12.5494 1.50261 5.7922 12.5494 1.50261
168 2 5.8041 12.55 -1.75956 5.8041 12.55 -1.75956
169 1 6.7488 10.9031 -0.125289 6.7488 10.9031 -0.125289
170 2 8.64343 10.9005 1.5136 8.64343 10.9005 1.5136
171 2 8.65672 10.9057 -1.74855 8.65672 10.9057 -1.74855
172 1 9.60071 12.5497 -0.110891 9.60071 12.5497 -0.110891
173 2 11.4954 12.549 1.52792 11.4954 12.549 1.52792
174 2 11.5086 12.5504 -1.73424 11.5086 12.5504 -1.73424
175 1 12.4526 10.9031 -0.0999501 12.4526 10.9031 -0.0999501
176 2 14.3486 10.8999 1.53737 14.3486 10.8999 1.53737
177 2 14.3592 10.9062 -1.72479 14.3592 10.9062 -1.72479
178 1 15.3046 12.5497 -0.0873899 15.3046 12.5497 -0.0873899
179 2 17.2024 12.5486 1.54771 17.2024 12.5486 1.54771
180 2 17.2093 12.5508 -1.71446 17.2093 12.5508 -1.71446
181 1 18.1565 10.9031 -0.0824866 18.1565 10.9031 -0.0824866
182 2 20.057 10.8996 1.54952 20.057 10.8996 1.54952
183 2 20.0586 10.9066 -1.71265 20.0586 10.9066 -1.71265
184 1 21.0085 12.5497 -0.0775164 21.0085 12.5497 -0.0775164
185 2 22.9117 12.5484 1.55129 22.9117 12.5484 1.55129
186 2 22.9078 12.551 -1.71088 22.9078 12.551 -1.71088
187 1 23.8604 10.9031 -0.0821994 23.8604 10.9031 -0.0821994
188 2 25.7661 10.8998 1.54378 25.7661 10.8998 1.54378
189 2 25.7574 10.9064 -1.71838 25.7574 10.9064 -1.71838
190 1 26.7124 12.5497 -0.0865018 26.7124 12.5497 -0.0865018
191 2 28.6202 12.549 1.53694 28.6202 12.549 1.53694
192 2 28.6071 12.5504 -1.72522 28.6071 12.5504 -1.72522
193 1 29.5643 10.9031 -0.0986506 29.5643 10.9031 -0.0986506
194 2 31.473 10.9008 1.52382 31.473 10.9008 1.52382
195 2 31.4582 10.9054 -1.73832 31.4582 10.9054 -1.73832
196 1 32.4163 12.5497 -0.109227 32.4163 12.5497 -0.109227
197 2 34.3255 12.5501 1.5126 34.3255 12.5501 1.5126
198 2 34.3096 12.5493 -1.74955 34.3096 12.5493 -1.74955
199 1 35.2682 10.9031 -0.122719 35.2682 10.9031 -0.122719
200 2 37.1765 10.9019 1.50023 37.1765 10.9019 1.50023
201 2 37.1625 10.9043 -1.76193 37.1625 10.9043 -1.76193
202 1 38.1201 12.5497 -0.133693 38.1201 12.5497 -0.133693
203 2 40.0273 12.5507 1.49057 40.0273 12.5507 1.49057
204 2 40.0155 12.5487 -1.7716 40.0155 12.5487 -1.7716
205 1 40.972 10.9031 -0.142916 40.972 10.9031 -0.142916
206 2 42.8774 10.9021 1.48346 42.8774 10.9021 1.48346
207 2 42.8692 10.9041 -1.77872 42.8692 10.9041 -1.77872
208 1 43.8239 12.5497 -0.149006 43.8239 12.5497 -0.149006
209 2 45.7272 12.5504 1.47987 45.7272 12.5504 1.47987
210 2 45.7233 12.549 -1.78231 45.7233 12.549 -1.78231
211 1 46.6759 10.9031 -0.15162 46.6759 10.9031 -0.15162
212 2 48.5771 10.9015 1.47963 48.5771 10.9015 1.47963
213 2 48.5772 10.9046 -1.78256 48.5772 10.9046 -1.78256
214 1 49.5278 12.5497 -0.149833 49.5278 12.5497 -0.149833
215 2 51.4266 12.5497 1.48422 51.4266 12.5497 1.48422
216 2 51.4316 12.5496 -1.77797 51.4316 12.5496 -1.77797
217 1 1.04495 14.1963 -0.145449 1.04495 14.1963 -0.145449
218 2 2.94166 14.1981 1.49104 2.94166 14.1981 1.49104
219 2 2.9508 14.1945 -1.77113 2.9508 14.1945 -1.77113
220 1 3.89687 15.8429 -0.139168 3.89687 15.8429 -0.139168
221 2 5.79206 15.8466 1.49908 5.79206 15.8466 1.49908
222 2 5.80424 15.8391 -1.76308 5.80424 15.8391 -1.76308
223 1 6.74879 14.1963 -0.124629 6.74879 14.1963 -0.124629
224 2 8.64326 14.198 1.51446 8.64326 14.198 1.51446
225 2 8.65687 14.1946 -1.7477 8.65687 14.1946 -1.7477
226 1 9.60071 15.8429 -0.114321 9.60071 15.8429 -0.114321
227 2 11.4952 15.8467 1.52469 11.4952 15.8467 1.52469
228 2 11.5087 15.8392 -1.73746 11.5087 15.8392 -1.73746
229 1 12.4526 14.1963 -0.0986056 12.4526 14.1963 -0.0986056
230 2 14.3484 14.1977 1.53899 14.3484 14.1977 1.53899
231 2 14.3595 14.1949 -1.72317 14.3595 14.1949 -1.72317
232 1 15.3046 15.8429 -0.0902288 15.3046 15.8429 -0.0902288
233 2 17.2022 15.8465 1.54514 17.2022 15.8465 1.54514
234 2 17.2095 15.8394 -1.71702 17.2095 15.8394 -1.71702
235 1 18.1565 14.1963 -0.0802138 18.1565 14.1963 -0.0802138
236 2 20.0569 14.1974 1.55193 20.0569 14.1974 1.55193
237 2 20.0587 14.1953 -1.71024 20.0587 14.1953 -1.71024
238 1 21.0085 15.8429 -0.0796851 21.0085 15.8429 -0.0796851
239 2 22.9117 15.8464 1.54913 22.9117 15.8464 1.54913
240 2 22.9078 15.8395 -1.71304 22.9078 15.8395 -1.71304
241 1 23.8604 14.1963 -0.0796168 23.8604 14.1963 -0.0796168
242 2 25.7664 14.1975 1.54604 25.7664 14.1975 1.54604
243 2 25.7571 14.1951 -1.71612 25.7571 14.1951 -1.71612
244 1 26.7124 15.8429 -0.0889521 26.7124 15.8429 -0.0889521
245 2 28.6206 15.8467 1.53407 28.6206 15.8467 1.53407
246 2 28.6068 15.8392 -1.72807 28.6068 15.8392 -1.72807
247 1 29.5643 14.1963 -0.0972213 29.5643 14.1963 -0.0972213
248 2 31.4736 14.1983 1.52452 31.4736 14.1983 1.52452
249 2 31.4576 14.1944 -1.73762 31.4576 14.1944 -1.73762
250 1 32.4162 15.8429 -0.113163 32.4162 15.8429 -0.113163
251 2 34.3259 15.8472 1.50813 34.3259 15.8472 1.50813
252 2 34.3091 15.8386 -1.75401 34.3091 15.8386 -1.75401
253 1 35.2682 14.1963 -0.123444 35.2682 14.1963 -0.123444
254 2 37.1769 14.199 1.49896 37.1769 14.199 1.49896
255 2 37.162 14.1936 -1.76319 37.162 14.1936 -1.76319
256 1 38.1201 15.8429 -0.139195 38.1201 15.8429 -0.139195
257 2 40.0273 15.8474 1.48498 40.0273 15.8474 1.48498
258 2 40.0154 15.8383 -1.77717 40.0154 15.8383 -1.77717
259 1 40.972 14.1963 -0.144928 40.972 14.1963 -0.144928
260 2 42.8773 14.199 1.48157 42.8773 14.199 1.48157
261 2 42.8693 14.1935 -1.7806 42.8693 14.1935 -1.7806
262 1 43.8239 15.8429 -0.154597 43.8239 15.8429 -0.154597
263 2 45.7268 15.847 1.47473 45.7268 15.847 1.47473
264 2 45.7237 15.8387 -1.78744 45.7237 15.8387 -1.78744
265 1 46.6759 14.1963 -0.153026 46.6759 14.1963 -0.153026
266 2 48.5767 14.1985 1.47871 48.5767 14.1985 1.47871
267 2 48.5776 14.1941 -1.78347 48.5776 14.1941 -1.78347
268 1 49.5278 15.8429 -0.154278 49.5278 15.8429 -0.154278
269 2 51.4263 15.8466 1.48018 51.4263 15.8466 1.48018
270 2 51.4319 15.8391 -1.782 51.4319 15.8391 -1.782
271 1 1.04495 17.4895 -0.152988 1.04495 17.4895 -0.152988
272 2 2.94149 17.4948 1.48368 2.94149 17.4948 1.48368
273 2 2.95097 17.4841 -1.77847 2.95097 17.4841 -1.77847
274 1 3.89688 19.1361 -0.150016 3.89688 19.1361 -0.150016
275 2 5.79207 19.1431 1.48821 5.79207 19.1431 1.48821
276 2 5.80424 19.129 -1.77393 5.80424 19.129 -1.77393
277 1 6.74879 17.4895 -0.13218 6.74879 17.4895 -0.13218
278 2 8.6432 17.4952 1.50696 8.6432 17.4952 1.50696
279 2 8.65694 17.4838 -1.75517 8.65694 17.4838 -1.75517
280 1 9.60072 19.1361 -0.125791 9.60072 19.1361 -0.125791
281 2 11.4952 19.1436 1.51326 11.4952 19.1436 1.51326
282 2 11.5088 19.1286 -1.74886 11.5088 19.1286 -1.74886
283 1 12.4526 17.4895 -0.106204 12.4526 17.4895 -0.106204
284 2 14.3482 17.4953 1.53162 14.3482 17.4953 1.53162
285 2 14.3597 17.4838 -1.73052 14.3597 17.4838 -1.73052
286 1 15.3046 19.1361 -0.101893 15.3046 19.1361 -0.101893
287 2 17.202 19.1438 1.53369 17.202 19.1438 1.53369
288 2 17.2097 19.1285 -1.72845 17.2097 19.1285 -1.72845
289 1 18.1565 17.4895 -0.0873418 18.1565 17.4895 -0.0873418
290 2 20.0567 17.4952 1.54501 20.0567 17.4952 1.54501
291 2 20.0589 17.4839 -1.71715 20.0589 17.4839 -1.71715
292 1 21.0085 19.1362 -0.0911413 21.0085 19.1362 -0.0911413
293 2 22.9116 19.1438 1.53782 22.9116 19.1438 1.53782
294 2 22.908 19.1285 -1.72432 22.908 19.1285 -1.72432
295 1 23.8604 17.4896 -0.0865091 23.8604 17.4896 -0.0865091
296 2 25.7664 17.4953 1.53907 25.7664 17.4953 1.53907
297 2 25.757 17.4838 -1.72308 25.757 17.4838 -1.72308
298 1 26.7124 19.1361 -0.100511 26.7124 19.1361 -0.100511
299 2 28.6205 19.1438 1.52251 28.6205 19.1438 1.52251
300 2 28.6068 19.1285 -1.73961 28.6068 19.1285 -1.73961
301 1 29.5643 17.4895 -0.104779 29.5643 17.4895 -0.104779
302 2 31.4738 17.4955 1.51666 31.4738 17.4955 1.51666
303 2 31.4574 17.4836 -1.74546 31.4574 17.4836 -1.74546
304 1 32.4162 19.1361 -0.125233 32.4162 19.1361 -0.125233
305 2 34.3259 19.1437 1.49606 34.3259 19.1437 1.49606
306 2 34.3091 19.1285 -1.76605 34.3091 19.1285 -1.76605
307 1 35.2682 17.4895 -0.132186 35.2682 17.4895 -0.132186
308 2 37.177 17.4956 1.49007 37.177 17.4956 1.49007
309 2 37.1619 17.4834 -1.77206 37.1619 17.4834 -1.77206
310 1 38.1201 19.1361 -0.151583 38.1201 19.1361 -0.151583
311 2 40.027 19.1433 1.47289 40.027 19.1433 1.47289
312 2 40.0157 19.1288 -1.78925 40.0157 19.1288 -1.78925
313 1 40.972 17.4895 -0.15415 40.972 17.4895 -0.15415
314 2 42.877 17.4953 1.47269 42.877 17.4953 1.47269
315 2 42.8696 17.4836 -1.78946 42.8696 17.4836 -1.78946
316 1 43.8239 19.136 -0.166406 43.8239 19.136 -0.166406
317 2 45.7263 19.1428 1.46344 45.7263 19.1428 1.46344
318 2 45.7241 19.1293 -1.79872 45.7241 19.1293 -1.79872
319 1 46.6759 17.4894 -0.161434 46.6759 17.4894 -0.161434
320 2 48.5762 17.4948 1.47079 48.5762 17.4948 1.47079
321 2 48.5781 17.4841 -1.79138 48.5781 17.4841 -1.79138
322 1 49.5278 19.136 -0.165157 49.5278 19.136 -0.165157
323 2 51.426 19.1426 1.46958 51.426 19.1426 1.46958
324 2 51.4322 19.1294 -1.79257 51.4322 19.1294 -1.79257
325 1 1.04495 20.7826 -0.166343 1.04495 20.7826 -0.166343
326 2 2.94148 20.7905 1.47033 2.94148 20.7905 1.47033
327 2 2.951 20.7748 -1.79181 2.951 20.7748 -1.79181
328 1 3.89689 22.4292 -0.165864 3.89689 22.4292 -0.165864
329 2 5.79225 22.4382 1.47214 5.79225 22.4382 1.47214
330 2 5.80409 22.4202 -1.78998 5.80409 22.4202 -1.78998
331 1 6.74881 20.7826 -0.146377 6.74881 20.7826 -0.146377
332 2 8.64331 20.7912 1.49263 8.64331 20.7912 1.49263
333 2 8.65686 20.7741 -1.76948 8.65686 20.7741 -1.76948
334 1 9.60074 22.4292 -0.143093 9.60074 22.4292 -0.143093
335 2 11.4953 22.4391 1.49577 11.4953 22.4391 1.49577
336 2 11.5087 22.4194 -1.76632 11.5087 22.4194 -1.76632
337 1 12.4526 20.7827 -0.121372 12.4526 20.7827 -0.121372
338 2 14.3481 20.7918 1.51649 14.3481 20.7918 1.51649
339 2 14.3598 20.7736 -1.74562 14.3598 20.7736 -1.74562
340 1 15.3046 22.4293 -0.120395 15.3046 22.4293 -0.120395
341 2 17.202 22.4398 1.51524 17.202 22.4398 1.51524
342 2 17.2098 22.4188 -1.74687 17.2098 22.4188 -1.74687
343 1 18.1565 20.7827 -0.102877 18.1565 20.7827 -0.102877
344 2 20.0566 20.7921 1.52967 20.0566 20.7921 1.52967
345 2 20.0591 20.7734 -1.73246 20.0591 20.7734 -1.73246
346 1 21.0085 22.4293 -0.110135 21.0085 22.4293 -0.110135
347 2 22.9113 22.44 1.5191 22.9113 22.44 1.5191
348 2 22.9082 22.4187 -1.74301 22.9082 22.4187 -1.74301
349 1 23.8604 20.7827 -0.102066 23.8604 20.7827 -0.102066
350 2 25.7662 20.7921 1.52372 25.7662 20.7921 1.52372
351 2 25.7572 20.7734 -1.73839 25.7572 20.7734 -1.73839
352 1 26.7124 22.4293 -0.119397 26.7124 22.4293 -0.119397
353 2 28.6201 22.4396 1.50406 28.6201 22.4396 1.50406
354 2 28.6072 22.419 -1.75803 28.6072 22.419 -1.75803
355 1 29.5643 20.7827 -0.12033 29.5643 20.7827 -0.12033
356 2 31.4736 20.7917 1.50136 31.4736 20.7917 1.50136
357 2 31.4576 20.7737 -1.76074 31.4576 20.7737 -1.76074
358 1 32.4162 22.4293 -0.143491 32.4162 22.4293 -0.143491
359 2 34.3253 22.4388 1.47839 34.3253 22.4388 1.47839
360 2 34.3096 22.4197 -1.7837 34.3096 22.4197 -1.7837
361 1 35.2681 20.7827 -0.147546 35.2681 20.7827 -0.147546
362 2 37.1766 20.7911 1.4751 37.1766 20.7911 1.4751
363 2 37.1622 20.7742 -1.78701 37.1622 20.7742 -1.78701
364 1 38.12 22.4292 -0.168727 38.12 22.4292 -0.168727
365 2 40.0264 22.4379 1.45641 40.0264 22.4379 1.45641
366 2 40.0162 22.4205 -1.80572 40.0162 22.4205 -1.80572
367 1 40.972 20.7826 -0.168813 40.972 20.7826 -0.168813
368 2 42.8765 20.7904 1.45858 42.8765 20.7904 1.45858
369 2 42.8701 20.7748 -1.80356 42.8701 20.7748 -1.80356
370 1 43.8239 22.4292 -0.18225 43.8239 22.4292 -0.18225
371 2 45.7259 22.4373 1.44812 45.7259 22.4373 1.44812
372 2 45.7246 22.4211 -1.81402 45.7246 22.4211 -1.81402
373 1 46.6759 20.7826 -0.175072 46.6759 20.7826 -0.175072
374 2 48.5759 20.7901 1.45755 48.5759 20.7901 1.45755
375 2 48.5784 20.7751 -1.8046 48.5784 20.7751 -1.8046
376 1 49.5278 22.4292 -0.180345 49.5278 22.4292 -0.180345
377 2 51.4259 22.4374 1.4545 51.4259 22.4374 1.4545
378 2 51.4323 22.421 -1.80764 51.4323 22.421 -1.80764
379 1 1.04496 24.0758 -0.18302 1.04496 24.0758 -0.18302
380 2 2.94162 24.0847 1.45348 2.94162 24.0847 1.45348
381 2 2.95089 24.0669 -1.80865 2.95089 24.0669 -1.80865
382 1 3.89691 25.7224 -0.183877 3.89691 25.7224 -0.183877
383 2 5.79256 25.7318 1.45376 5.79256 25.7318 1.45376
384 2 5.80382 25.713 -1.80835 5.80382 25.713 -1.80835
385 1 6.74882 24.0758 -0.164514 6.74882 24.0758 -0.164514
386 2 8.6436 24.0857 1.47415 8.6436 24.0857 1.47415
387 2 8.65661 24.0659 -1.78795 8.65661 24.0659 -1.78795
388 1 9.60076 25.7224 -0.163096 9.60076 25.7224 -0.163096
389 2 11.4957 25.7329 1.47537 11.4957 25.7329 1.47537
390 2 11.5084 25.7119 -1.78672 11.5084 25.7119 -1.78672
391 1 12.4527 24.0758 -0.141345 12.4527 24.0758 -0.141345
392 2 14.3483 24.0867 1.49632 14.3483 24.0867 1.49632
393 2 14.3596 24.065 -1.76577 14.3596 24.065 -1.76577
394 1 15.3046 25.7224 -0.142413 15.3046 25.7224 -0.142413
395 2 17.202 25.7339 1.49311 17.202 25.7339 1.49311
396 2 17.2097 25.711 -1.76899 17.2097 25.711 -1.76899
397 1 18.1565 24.0759 -0.124153 18.1565 24.0759 -0.124153
398 2 20.0564 24.0873 1.50854 20.0564 24.0873 1.50854
399 2 20.0593 24.0645 -1.75356 20.0593 24.0645 -1.75356
400 1 21.0085 25.7225 -0.133229 21.0085 25.7225 -0.133229
401 2 22.911 25.734 1.49638 22.911 25.734 1.49638
402 2 22.9086 25.7109 -1.76572 22.9086 25.7109 -1.76572
403 1 23.8604 24.0759 -0.12364 23.8604 24.0759 -0.12364
404 2 25.7658 24.0871 1.50265 25.7658 24.0871 1.50265
405 2 25.7577 24.0647 -1.75945 25.7577 24.0647 -1.75945
406 1 26.7124 25.7224 -0.142146 26.7124 25.7224 -0.142146
407 2 28.6194 25.7334 1.48211 28.6194 25.7334 1.48211
408 2 28.6079 25.7115 -1.77998 28.6079 25.7115 -1.77998
409 1 29.5643 24.0759 -0.141196 29.5643 24.0759 -0.141196
410 2 31.4729 24.0863 1.48125 31.4729 24.0863 1.48125
411 2 31.4582 24.0654 -1.78084 31.4582 24.0654 -1.78084
412 1 32.4162 25.7224 -0.164688 32.4162 25.7224 -0.164688
413 2 34.3244 25.7323 1.45821 34.3244 25.7323 1.45821
414 2 34.3105 25.7125 -1.80389 34.3105 25.7125 -1.80389
415 1 35.2681 24.0758 -0.166917 35.2681 24.0758 -0.166917
416 2 37.1759 24.0852 1.45659 37.1759 24.0852 1.45659
417 2 37.1629 24.0664 -1.80552 37.1629 24.0664 -1.80552
418 1 38.12 25.7224 -0.187761 38.12 25.7224 -0.187761
419 2 40.0257 25.7311 1.43827 40.0257 25.7311 1.43827
420 2 40.017 25.7136 -1.82385 40.017 25.7136 -1.82385
421 1 40.972 24.0758 -0.186425 40.972 24.0758 -0.186425
422 2 42.8759 24.0843 1.44166 42.8759 24.0843 1.44166
423 2 42.8707 24.0672 -1.82047 42.8707 24.0672 -1.82047
424 1 43.8239 25.7223 -0.199554 43.8239 25.7223 -0.199554
425 2 45.7254 25.7306 1.43129 45.7254 25.7306 1.43129
426 2 45.725 25.7141 -1.83085 45.725 25.7141 -1.83085
427 1 46.6759 24.0758 -0.191535 46.6759 24.0758 -0.191535
428 2 48.5756 24.0841 1.44136 48.5756 24.0841 1.44136
429 2 48.5787 24.0674 -1.82078 48.5787 24.0674 -1.82078
430 1 49.5278 25.7223 -0.197267 49.5278 25.7223 -0.197267
431 2 51.4259 25.7309 1.43755 51.4259 25.7309 1.43755
432 2 51.4323 25.7138 -1.82459 51.4323 25.7138 -1.82459
433 1 1.04498 27.3689 -0.200291 1.04498 27.3689 -0.200291
434 2 2.94185 27.3775 1.43594 2.94185 27.3775 1.43594
435 2 2.95068 27.3604 -1.82619 2.95068 27.3604 -1.82619
436 1 3.89692 29.0155 -0.201219 3.89692 29.0155 -0.201219
437 2 5.79291 29.0239 1.43603 5.79291 29.0239 1.43603
438 2 5.80351 29.0072 -1.8261 5.80351 29.0072 -1.8261
439 1 6.74884 27.3689 -0.183497 6.74884 27.3689 -0.183497
440 2 8.64401 27.3785 1.4547 8.64401 27.3785 1.4547
441 2 8.65624 27.3594 -1.8074 8.65624 27.3594 -1.8074
442 1 9.60078 29.0155 -0.182479 9.60078 29.0155 -0.182479
443 2 11.4961 29.0249 1.45551 11.4961 29.0249 1.45551
444 2 11.508 29.0062 -1.8066 11.508 29.0062 -1.8066
445 1 12.4527 27.369 -0.162594 12.4527 27.369 -0.162594
446 2 14.3486 27.3797 1.47471 14.3486 27.3797 1.47471
447 2 14.3593 27.3583 -1.78739 14.3593 27.3583 -1.78739
448 1 15.3046 29.0156 -0.164009 15.3046 29.0156 -0.164009
449 2 17.2022 29.0258 1.47134 17.2022 29.0258 1.47134
450 2 17.2096 29.0054 -1.79078 17.2096 29.0054 -1.79078
451 1 18.1565 27.369 -0.147252 18.1565 27.369 -0.147252
452 2 20.0563 27.3803 1.48556 20.0563 27.3803 1.48556
453 2 20.0594 27.3578 -1.77655 20.0594 27.3578 -1.77655
454 1 21.0085 29.0156 -0.156007 21.0085 29.0156 -0.156007
455 2 22.9106 29.0259 1.47404 22.9106 29.0259 1.47404
456 2 22.909 29.0053 -1.78809 22.909 29.0053 -1.78809
457 1 23.8604 27.369 -0.147119 23.8604 27.369 -0.147119
458 2 25.7652 27.38 1.47985 25.7652 27.38 1.47985
459 2 25.7583 27.3581 -1.78226 25.7583 27.3581 -1.78226
460 1 26.7123 29.0156 -0.16434 26.7123 29.0156 -0.16434
461 2 28.6186 29.0251 1.46085 28.6186 29.0251 1.46085
462 2 28.6086 29.006 -1.80127 28.6086 29.006 -1.80127
463 1 29.5643 27.369 -0.163452 29.5643 27.369 -0.163452
464 2 31.472 27.3789 1.46003 31.472 27.3789 1.46003
465 2 31.4591 27.359 -1.80207 31.4591 27.359 -1.80207
466 1 32.4162 29.0155 -0.184897 32.4162 29.0155 -0.184897
467 2 34.3235 29.024 1.43912 34.3235 29.024 1.43912
468 2 34.3115 29.0071 -1.823 34.3115 29.0071 -1.823
469 1 35.2681 27.3689 -0.186917 35.2681 27.3689 -0.186917
470 2 37.1749 27.3777 1.43766 37.1749 27.3777 1.43766
471 2 37.1638 27.3602 -1.82446 37.1638 27.3602 -1.82446
472 1 38.12 29.0155 -0.205534 38.12 29.0155 -0.205534
473 2 40.0249 29.023 1.42138 40.0249 29.023 1.42138
474 2 40.0178 29.008 -1.84076 40.0178 29.008 -1.84076
475 1 40.972 27.3689 -0.204194 40.972 27.3689 -0.204194
476 2 42.8753 27.3769 1.42459 42.8753 27.3769 1.42459
477 2 42.8713 27.3609 -1.83755 42.8713 27.3609 -1.83755
478 1 43.8239 29.0155 -0.215722 43.8239 29.0155 -0.215722
479 2 45.7251 29.0227 1.41547 45.7251 29.0227 1.41547
480 2 45.7253 29.0083 -1.84668 45.7253 29.0083 -1.84668
481 1 46.6759 27.3689 -0.20827 46.6759 27.3689 -0.20827
482 2 48.5755 27.3769 1.42478 48.5755 27.3769 1.42478
483 2 48.5788 27.361 -1.83737 48.5788 27.361 -1.83737
484 1 49.5278 29.0155 -0.213373 49.5278 29.0155 -0.213373
485 2 51.426 29.0231 1.42132 51.426 29.0231 1.42132
486 2 51.4322 29.0079 -1.84082 51.4322 29.0079 -1.84082
487 1 1.04499 30.6621 -0.215611 1.04499 30.6621 -0.215611
488 2 2.94208 30.6691 1.42035 2.94208 30.6691 1.42035
489 2 2.95047 30.6551 -1.84179 2.95047 30.6551 -1.84179
490 1 3.89693 32.3087 -0.215354 3.89693 32.3087 -0.215354
491 2 5.79319 32.3148 1.42158 5.79319 32.3148 1.42158
492 2 5.80326 32.3026 -1.84056 5.80326 32.3026 -1.84056
493 1 6.74886 30.6621 -0.200409 6.74886 30.6621 -0.200409
494 2 8.64439 30.6699 1.43736 8.64439 30.6699 1.43736
495 2 8.6559 30.6543 -1.82476 8.6559 30.6543 -1.82476
496 1 9.60079 32.3087 -0.198246 9.60079 32.3087 -0.198246
497 2 11.4964 32.3155 1.43939 11.4964 32.3155 1.43939
498 2 11.5077 32.302 -1.82275 11.5077 32.302 -1.82275
499 1 12.4527 30.6621 -0.181571 12.4527 30.6621 -0.181571
500 2 14.3489 30.6708 1.45539 14.3489 30.6708 1.45539
501 2 14.3591 30.6535 -1.80674 14.3591 30.6535 -1.80674
502 1 15.3046 32.3087 -0.181468 15.3046 32.3087 -0.181468
503 2 17.2023 32.316 1.45378 17.2023 32.316 1.45378
504 2 17.2095 32.3015 -1.80837 17.2095 32.3015 -1.80837
505 1 18.1566 30.6622 -0.167911 18.1566 30.6622 -0.167911
506 2 20.0562 30.6712 1.46503 20.0562 30.6712 1.46503
507 2 20.0595 30.6532 -1.79711 20.0595 30.6532 -1.79711
508 1 21.0085 32.3088 -0.17421 21.0085 32.3088 -0.17421
509 2 22.9102 32.3158 1.45626 22.9102 32.3158 1.45626
510 2 22.9093 32.3017 -1.8059 22.9093 32.3017 -1.8059
511 1 23.8604 30.6622 -0.167943 23.8604 30.6622 -0.167943
512 2 25.7645 30.6707 1.45973 25.7645 30.6707 1.45973
513 2 25.7588 30.6536 -1.80241 25.7588 30.6536 -1.80241
514 1 26.7123 32.3087 -0.181738 26.7123 32.3087 -0.181738
515 2 28.6179 32.3151 1.4443 28.6179 32.3151 1.4443
516 2 28.6094 32.3024 -1.81785 28.6094 32.3024 -1.81785
517 1 29.5643 30.6621 -0.182828 29.5643 30.6621 -0.182828
518 2 31.4711 30.6698 1.4417 31.4711 30.6698 1.4417
519 2 31.46 30.6545 -1.82043 31.46 30.6545 -1.82043
520 1 32.4162 32.3087 -0.200375 32.4162 32.3087 -0.200375
521 2 34.3227 32.3142 1.42458 34.3227 32.3142 1.42458
522 2 34.3123 32.3032 -1.83757 34.3123 32.3032 -1.83757
523 1 35.2681 30.6621 -0.203998 35.2681 30.6621 -0.203998
524 2 37.1741 30.6688 1.42155 37.1741 30.6688 1.42155
525 2 37.1647 30.6554 -1.8406 37.1647 30.6554 -1.8406
526 1 38.12 32.3087 -0.219055 38.12 32.3087 -0.219055
527 2 40.0244 32.3137 1.40848 40.0244 32.3137 1.40848
528 2 40.0183 32.3037 -1.85369 40.0183 32.3037 -1.85369
529 1 40.972 30.6621 -0.219351 40.972 30.6621 -0.219351
530 2 42.8748 30.6683 1.40995 42.8748 30.6683 1.40995
531 2 42.8717 30.6559 -1.85221 42.8717 30.6559 -1.85221
532 1 43.8239 32.3087 -0.228331 43.8239 32.3087 -0.228331
533 2 45.725 32.3137 1.40301 45.725 32.3137 1.40301
534 2 45.7254 32.3036 -1.85915 45.7254 32.3036 -1.85915
535 1 46.6759 30.6621 -0.222843 46.6759 30.6621 -0.222843
536 2 48.5755 30.6685 1.41024 48.5755 30.6685 1.41024
537 2 48.5789 30.6557 -1.85192 48.5789 30.6557 -1.85192
538 1 49.5278 32.3087 -0.226339 49.5278 32.3087 -0.226339