ITEM: TIMESTEP
12000
ITEM: NUMBER OF ATOMS
810
ITEM: BOX BOUNDS pp pp pp
8.4379706015531231e-01 5.2173807939844224e+01
8.1206385816239013e-01 5.0204151141836654e+01
-1.0000000000000000e+01 1.0000000000000000e+01
ITEM: ATOMS id type x y z xu yu zu
1 1 1.04803 1.02525 0.0142113 1.04803 1.02525 0.0142113
2 2 2.98463 0.972758 1.60226 2.98463 0.972758 1.60226
3 2 2.91343 1.07809 -1.65744 2.91343 1.07809 -1.65744
4 1 3.89984 2.67168 0.00490243 3.89984 2.67168 0.00490243
5 2 5.84331 2.61993 1.58467 5.84331 2.61993 1.58467
6 2 5.758 2.72378 -1.67473 5.758 2.72378 -1.67473
7 1 6.75074 1.02626 -0.122496 6.75074 1.02626 -0.122496
8 2 8.69492 0.972852 1.45635 8.69492 0.972852 1.45635
9 2 8.60805 1.07992 -1.80292 8.60805 1.07992 -1.80292
10 1 9.6022 2.6727 -0.144429 9.6022 2.6727 -0.144429
11 2 11.5428 2.61999 1.43897 11.5428 2.61999 1.43897
12 2 11.4633 2.72559 -1.82054 11.4633 2.72559 -1.82054
13 1 12.4532 1.02722 -0.267402 12.4532 1.02722 -0.267402
14 2 14.3846 0.973208 1.32719 14.3846 0.973208 1.32719
15 2 14.3239 1.08122 -1.93263 14.3239 1.08122 -1.93263
16 1 15.305 2.6734 -0.265699 15.305 2.6734 -0.265699
17 2 17.2251 2.62052 1.34264 17.2251 2.62052 1.34264
18 2 17.1874 2.7262 -1.91764 17.1874 2.7262 -1.91764
19 1 18.1568 1.02761 -0.351922 18.1568 1.02761 -0.351922
20 2 20.0624 0.973336 1.27363 20.0624 0.973336 1.27363
21 2 20.054 1.08167 -1.98675 20.054 1.08167 -1.98675
22 1 21.0089 2.67344 -0.304076 21.0089 2.67344 -0.304076
23 2 22.9011 2.62116 1.3371 22.9011 2.62116 1.3371
24 2 22.9193 2.72549 -1.9234 22.9193 2.72549 -1.9234
25 1 23.861 1.02733 -0.340546 23.861 1.02733 -0.340546
26 2 25.7395 0.973368 1.31629 25.7395 0.973368 1.31629
27 2 25.7849 1.08101 -1.9438 25.7849 1.08101 -1.9438
28 1 26.7126 2.6729 -0.245905 26.7126 2.6729 -0.245905
29 2 28.5817 2.62181 1.42151 28.5817 2.62181 1.42151
30 2 28.6454 2.72379 -1.83848 28.6454 2.72379 -1.83848
31 1 29.5643 1.02657 -0.241459 29.5643 1.02657 -0.241459
32 2 31.4258 0.973682 1.43436 31.4258 0.973682 1.43436
33 2 31.5044 1.07927 -1.82517 31.5044 1.07927 -1.82517
34 1 32.4152 2.67208 -0.118939 32.4152 2.67208 -0.118939
35 2 34.2757 2.62248 1.55816 34.2757 2.62248 1.55816
36 2 34.3564 2.72162 -1.70152 34.3564 2.72162 -1.70152
37 1 35.2667 1.02568 -0.0982848 35.2667 1.02568 -0.0982848
38 2 37.1287 0.974219 1.577 37.1287 0.974219 1.577
39 2 37.2065 1.07707 -1.68263 37.2065 1.07707 -1.68263
40 1 38.1178 2.6713 0.022004 38.1178 2.6713 0.022004
41 2 39.9882 2.62279 1.68795 39.9882 2.62279 1.68795
42 2 40.0497 2.71985 -1.57218 40.0497 2.71985 -1.57218
43 1 40.9697 1.02497 0.0266971 40.9697 1.02497 0.0266971
44 2 42.8507 0.97422 1.68045 42.8507 0.97422 1.68045
45 2 42.8913 1.07577 -1.57989 42.8913 1.07577 -1.57989
46 1 43.8216 2.67083 0.113523 43.8216 2.67083 0.113523
47 2 45.7178 2.62212 1.74997 45.7178 2.62212 1.74997
48 2 45.7285 2.71969 -1.51069 45.7285 2.71969 -1.51069
49 1 46.6739 1.02475 0.0733695 46.6739 1.02475 0.0733695
50 2 48.585 0.973421 1.69213 48.585 0.973421 1.69213
51 2 48.5658 1.07631 -1.56836 48.5658 1.07631 -1.56836
52 1 49.5263 2.67093 0.108288 49.5263 2.67093 0.108288
53 2 51.4521 2.62078 1.70958 51.4521 2.62078 1.70958
54 2 51.4031 2.7214 -1.55065 51.4031 2.7214 -1.55065
55 1 1.04845 4.31737 0.116072 1.04845 4.31737 0.116072
56 2 2.98559 4.2702 1.70383 2.98559 4.2702 1.70383
57 2 2.91349 4.36488 -1.55614 2.91349 4.36488 -1.55614
58 1 3.90037 5.96403 0.10075 3.90037 5.96403 0.10075
59 2 5.84412 5.92168 1.68061 5.84412 5.92168 1.68061
60 2 5.75835 6.00671 -1.5793 5.75835 6.00671 -1.5793
61 1 6.75141 4.31823 -0.0173408 6.75141 4.31823 -0.0173408
62 2 8.6964 4.26934 1.56075 8.6964 4.26934 1.56075
63 2 8.60788 4.36742 -1.69876 8.60788 4.36742 -1.69876
64 1 9.60284 5.96483 -0.0451106 9.60284 5.96483 -0.0451106
65 2 11.5443 5.92108 1.53757 11.5443 5.92108 1.53757
66 2 11.4629 6.0088 -1.72245 11.4629 6.0088 -1.72245
67 1 12.4538 4.31908 -0.160466 12.4538 4.31908 -0.160466
68 2 14.3864 4.26962 1.43284 14.3864 4.26962 1.43284
69 2 14.3231 4.36862 -1.82727 14.3231 4.36862 -1.82727
70 1 15.3054 5.9654 -0.165426 15.3054 5.9654 -0.165426
71 2 17.2271 5.92195 1.44135 17.2271 5.92195 1.44135
72 2 17.186 6.00885 -1.8195 17.186 6.00885 -1.8195
73 1 18.157 4.31944 -0.2449 18.157 4.31944 -0.2449
74 2 20.0641 4.27066 1.37894 20.0641 4.27066 1.37894
75 2 20.0524 4.36809 -1.88184 20.0524 4.36809 -1.88184
76 1 21.0089 5.96543 -0.205394 21.0089 5.96543 -0.205394
77 2 22.9031 5.92365 1.43372 22.9031 5.92365 1.43372
78 2 22.917 6.00709 -1.82746 22.917 6.00709 -1.82746
79 1 23.8607 4.31918 -0.234886 23.8607 4.31918 -0.234886
80 2 25.7411 4.2719 1.41996 25.7411 4.2719 1.41996
81 2 25.7826 4.36629 -1.84065 25.7826 4.36629 -1.84065
82 1 26.7122 5.965 -0.150294 26.7122 5.965 -0.150294
83 2 28.5835 5.92522 1.51501 28.5835 5.92522 1.51501
84 2 28.6428 6.0047 -1.74573 28.6428 6.0047 -1.74573
85 1 29.5638 4.31853 -0.138161 29.5638 4.31853 -0.138161
86 2 31.4275 4.27289 1.5355 31.4275 4.27289 1.5355
87 2 31.5017 4.36409 -1.72458 31.5017 4.36409 -1.72458
88 1 32.4147 5.96439 -0.0265509 32.4147 5.96439 -0.0265509
89 2 34.2773 5.92617 1.64859 34.2773 5.92617 1.64859
90 2 34.3539 6.00262 -1.6118 34.3539 6.00262 -1.6118
91 1 35.2662 4.31779 0.00215655 35.2662 4.31779 0.00215655
92 2 37.1303 4.27351 1.67535 37.1303 4.27351 1.67535
93 2 37.204 4.3621 -1.58477 37.204 4.3621 -1.58477
94 1 38.1174 5.96381 0.111753 38.1174 5.96381 0.111753
95 2 39.9895 5.92644 1.77618 39.9895 5.92644 1.77618
96 2 40.0477 6.00127 -1.48456 40.0477 6.00127 -1.48456
97 1 40.9694 4.3172 0.125001 40.9694 4.3172 0.125001
98 2 42.852 4.2733 1.77733 42.852 4.2733 1.77733
99 2 42.8897 4.36121 -1.48338 42.8897 4.36121 -1.48338
100 1 43.8215 5.96345 0.202531 43.8215 5.96345 0.202531
101 2 45.7185 5.92559 1.83841 45.7185 5.92559 1.83841
102 2 45.7277 6.00146 -1.42278 45.7277 6.00146 -1.42278
103 1 46.674 4.31699 0.172153 46.674 4.31699 0.172153
104 2 48.5858 4.27194 1.79039 48.5858 4.27194 1.79039
105 2 48.5652 4.36228 -1.4704 48.5652 4.36228 -1.4704
106 1 49.5264 5.96349 0.199725 49.5264 5.96349 0.199725
107 2 51.4525 5.92359 1.80126 51.4525 5.92359 1.80126
108 2 51.4033 6.00365 -1.45948 51.4033 6.00365 -1.45948
109 1 1.04876 7.61026 0.197093 1.04876 7.61026 0.197093
110 2 2.98564 7.57693 1.78568 2.98564 7.57693 1.78568
111 2 2.91425 7.64386 -1.47495 2.91425 7.64386 -1.47495
112 1 3.90073 9.25722 0.168482 3.90073 9.25722 0.168482
113 2 5.84396 9.23181 1.74944 5.84396 9.23181 1.74944
114 2 5.75935 9.28284 -1.5112 5.75935 9.28284 -1.5112
115 1 6.75196 7.61083 0.0687408 6.75196 7.61083 0.0687408
116 2 8.69715 7.57518 1.64702 8.69715 7.57518 1.64702
117 2 8.60825 7.64674 -1.61316 8.60825 7.64674 -1.61316
118 1 9.60333 9.25768 0.0273465 9.60333 9.25768 0.0273465
119 2 11.5452 9.23071 1.60996 11.5452 9.23071 1.60996
120 2 11.463 9.28483 -1.65078 11.463 9.28483 -1.65078
121 1 12.4543 7.61143 -0.0716215 12.4543 7.61143 -0.0716215
122 2 14.388 7.57524 1.52069 14.388 7.57524 1.52069
123 2 14.3223 7.64774 -1.7401 14.3223 7.64774 -1.7401
124 1 15.3058 9.25802 -0.0919675 15.3058 9.25802 -0.0919675
125 2 17.229 9.23176 1.5133 17.229 9.23176 1.5133
126 2 17.1846 9.28432 -1.74827 17.1846 9.28432 -1.74827
127 1 18.1572 7.61169 -0.156855 18.1572 7.61169 -0.156855
128 2 20.0663 7.57693 1.46501 20.0663 7.57693 1.46501
129 2 20.0504 7.6464 -1.79651 20.0504 7.6464 -1.79651
130 1 21.0089 9.25803 -0.134981 21.0089 9.25803 -0.134981
131 2 22.9054 9.23412 1.50189 22.9054 9.23412 1.50189
132 2 22.9147 9.28187 -1.76007 22.9147 9.28187 -1.76007
133 1 23.8606 7.6115 -0.150348 23.8606 7.6115 -0.150348
134 2 25.7432 7.57908 1.50229 25.7432 7.57908 1.50229
135 2 25.78 7.64384 -1.75915 25.78 7.64384 -1.75915
136 1 26.712 9.25776 -0.0846556 26.712 9.25776 -0.0846556
137 2 28.5854 9.23622 1.57866 28.5854 9.23622 1.57866
138 2 28.6405 9.27926 -1.68286 28.6405 9.27926 -1.68286
139 1 29.5634 7.61106 -0.0576329 29.5634 7.61106 -0.0576329
140 2 31.4291 7.58055 1.61414 31.4291 7.58055 1.61414
141 2 31.4993 7.64156 -1.64676 31.4993 7.64156 -1.64676
142 1 32.4144 9.25741 0.0352715 32.4144 9.25741 0.0352715
143 2 34.2786 9.23724 1.709 34.2786 9.23724 1.709
144 2 34.3521 9.27763 -1.55211 34.3521 9.27763 -1.55211
145 1 35.2658 7.61058 0.079608 35.2658 7.61058 0.079608
146 2 37.1316 7.58117 1.75131 37.1316 7.58117 1.75131
147 2 37.202 7.64005 -1.50954 37.202 7.64005 -1.50954
148 1 38.1172 9.25711 0.171387 38.1172 9.25711 0.171387
149 2 39.9904 9.23742 1.83495 39.9904 9.23742 1.83495
150 2 40.0465 9.27688 -1.42643 40.0465 9.27688 -1.42643
151 1 40.9691 7.61019 0.200787 40.9691 7.61019 0.200787
152 2 42.8528 7.58094 1.85235 42.8528 7.58094 1.85235
153 2 42.8885 7.63956 -1.409 42.8885 7.63956 -1.409
154 1 43.8214 9.25692 0.261875 43.8214 9.25692 0.261875
155 2 45.7188 9.23658 1.89782 45.7188 9.23658 1.89782
156 2 45.7274 9.27736 -1.36396 45.7274 9.27736 -1.36396
157 1 46.674 7.61005 0.248944 46.674 7.61005 0.248944
158 2 48.586 7.57939 1.8675 48.586 7.57939 1.8675
159 2 48.5653 7.64088 -1.39392 48.5653 7.64088 -1.39392
160 1 49.5266 9.25693 0.261937 49.5266 9.25693 0.261937
161 2 51.4521 9.23436 1.86458 51.4521 9.23436 1.86458
162 2 51.4041 9.27966 -1.39681 51.4041 9.27966 -1.39681
163 1 1.04892 10.904 0.242889 1.04892 10.904 0.242889
164 2 2.98479 10.8903 1.83308 2.98479 10.8903 1.83308
165 2 2.91555 10.9178 -1.42815 2.91555 10.9178 -1.42815
166 1 3.90088 12.5511 0.196298 3.90088 12.5511 0.196298
167 2 5.84298 12.547 1.77889 5.84298 12.547 1.77889
168 2 5.76073 12.5552 -1.48219 5.76073 12.5552 -1.48219
169 1 6.7523 10.9042 0.120376 6.7523 10.9042 0.120376
170 2 8.69705 10.8882 1.69958 8.69705 10.8882 1.69958
171 2 8.60909 10.9204 -1.56125 8.60909 10.9204 -1.56125
172 1 9.6036 12.5512 0.0599899 9.6036 12.5512 0.0599899
173 2 11.5454 12.5459 1.64292 11.5454 12.5459 1.64292
174 2 11.4633 12.5566 -1.61826 11.4633 12.5566 -1.61826
175 1 12.4546 10.9045 -0.0168044 12.4546 10.9045 -0.0168044
176 2 14.3892 10.8882 1.57483 14.3892 10.8882 1.57483
177 2 14.3217 10.9209 -1.68658 14.3217 10.9209 -1.68658
178 1 15.306 12.5513 -0.0587182 15.306 12.5513 -0.0587182
179 2 17.2305 12.5471 1.54518 17.2305 12.5471 1.54518
180 2 17.1834 12.5554 -1.71678 17.1834 12.5554 -1.71678
181 1 18.1574 10.9046 -0.103559 18.1574 10.9046 -0.103559
182 2 20.0684 10.8902 1.51631 20.0684 10.8902 1.51631
183 2 20.0485 10.919 -1.74582 20.0485 10.919 -1.74582
184 1 21.009 12.5512 -0.105684 21.009 12.5512 -0.105684
185 2 22.9074 12.5496 1.52905 22.9074 12.5496 1.52905
186 2 22.9127 12.5527 -1.73327 22.9127 12.5527 -1.73327
187 1 23.8605 10.9045 -0.101924 23.8605 10.9045 -0.101924
188 2 25.7452 10.8927 1.54856 25.7452 10.8927 1.54856
189 2 25.7778 10.9162 -1.7135 25.7778 10.9162 -1.7135
190 1 26.712 12.5511 -0.0608156 26.712 12.5511 -0.0608156
191 2 28.5869 12.5517 1.60088 28.5869 12.5517 1.60088
192 2 28.6389 12.5504 -1.66098 28.6389 12.5504 -1.66098
193 1 29.5632 10.9043 -0.014004 29.5632 10.9043 -0.014004
194 2 31.4305 10.8943 1.65633 31.4305 10.8943 1.65633
195 2 31.4977 10.9142 -1.60515 31.4977 10.9142 -1.60515
196 1 32.4144 12.551 0.0555403 32.4144 12.551 0.0555403
197 2 34.2793 12.5524 1.72855 34.2793 12.5524 1.72855
198 2 34.3513 12.5495 -1.53284 34.3513 12.5495 -1.53284
199 1 35.2656 10.9041 0.120529 35.2656 10.9041 0.120529
200 2 37.1324 10.8947 1.79143 37.1324 10.8947 1.79143
201 2 37.2009 10.9135 -1.46993 37.2009 10.9135 -1.46993
202 1 38.1171 12.551 0.190435 38.1171 12.551 0.190435
203 2 39.9907 12.5523 1.85381 39.9907 12.5523 1.85381
204 2 40.0462 12.5496 -1.40781 40.0462 12.5496 -1.40781
205 1 40.969 10.9039 0.24075 40.969 10.9039 0.24075
206 2 42.8531 10.8944 1.89214 42.8531 10.8944 1.89214
207 2 42.8881 10.9136 -1.36967 42.8881 10.9136 -1.36967
208 1 43.8214 12.551 0.281269 43.8214 12.551 0.281269
209 2 45.7184 12.5515 1.91777 45.7184 12.5515 1.91777
210 2 45.7278 12.5505 -1.34425 45.7278 12.5505 -1.34425
211 1 46.674 10.9039 0.290188 46.674 10.9039 0.290188
212 2 48.5855 10.8929 1.90965 48.5855 10.8929 1.90965
213 2 48.5659 10.915 -1.35225 48.5659 10.915 -1.35225
214 1 49.5266 12.551 0.284231 49.5266 12.551 0.284231
215 2 51.451 12.5495 1.88844 51.451 12.5495 1.88844
216 2 51.4053 12.5526 -1.37328 51.4053 12.5526 -1.37328
217 1 1.04893 14.1981 0.245903 1.04893 14.1981 0.245903
218 2 2.98331 14.2062 1.83794 2.98331 14.2062 1.83794
219 2 2.9171 14.19 -1.42343 2.9171 14.19 -1.42343
220 1 3.90083 15.845 0.179851 3.90083 15.845 0.179851
221 2 5.84151 15.8629 1.76405 5.84151 15.8629 1.76405
222 2 5.76214 15.8272 -1.49692 5.76214 15.8272 -1.49692
223 1 6.7524 14.1981 0.128633 6.7524 14.1981 0.128633
224 2 8.69628 14.2045 1.70899 8.69628 14.2045 1.70899
225 2 8.61012 14.1917 -1.55202 8.61012 14.1917 -1.55202
226 1 9.60361 15.8449 0.0470665 9.60361 15.8449 0.0470665
227 2 11.545 15.8623 1.63034 11.545 15.8623 1.63034
228 2 11.4637 15.8274 -1.63069 11.4637 15.8274 -1.63069
229 1 12.4548 14.198 -0.00602477 12.4548 14.198 -0.00602477
230 2 14.3898 14.2047 1.58511 14.3898 14.2047 1.58511
231 2 14.3214 14.1914 -1.67642 14.3214 14.1914 -1.67642
232 1 15.306 15.8447 -0.0720892 15.306 15.8447 -0.0720892
233 2 17.2314 15.8636 1.53066 17.2314 15.8636 1.53066
234 2 17.1826 15.8256 -1.73105 17.1826 15.8256 -1.73105
235 1 18.1575 14.1979 -0.0950319 18.1575 14.1979 -0.0950319
236 2 20.07 14.2066 1.52305 20.07 14.2066 1.52305
237 2 20.047 14.1891 -1.73915 20.047 14.1891 -1.73915
238 1 21.0091 15.8444 -0.123378 21.0091 15.8444 -0.123378
239 2 22.9088 15.8657 1.50968 22.9088 15.8657 1.50968
240 2 22.9115 15.823 -1.75236 22.9115 15.823 -1.75236
241 1 23.8606 14.1978 -0.0987016 23.8606 14.1978 -0.0987016
242 2 25.7469 14.209 1.55002 25.7469 14.209 1.55002
243 2 25.7764 14.1865 -1.71208 25.7764 14.1865 -1.71208
244 1 26.7121 15.8444 -0.0835576 26.7121 15.8444 -0.0835576
245 2 28.5877 15.8673 1.57721 28.5877 15.8673 1.57721
246 2 28.6384 15.8213 -1.68435 28.6384 15.8213 -1.68435
247 1 29.5633 14.1977 -0.0153119 29.5633 14.1977 -0.0153119
248 2 31.4312 14.2102 1.65424 31.4312 14.2102 1.65424
249 2 31.4971 14.1853 -1.60724 31.4971 14.1853 -1.60724
250 1 32.4146 15.8445 0.0303123 32.4146 15.8445 0.0303123
251 2 34.2793 15.8675 1.70344 34.2793 15.8675 1.70344
252 2 34.3518 15.8215 -1.55761 34.3518 15.8215 -1.55761
253 1 35.2657 14.1978 0.117556 35.2657 14.1978 0.117556
254 2 37.1325 14.2102 1.78844 37.1325 14.2102 1.78844
255 2 37.201 14.1855 -1.47288 37.201 14.1855 -1.47288
256 1 38.1173 15.8448 0.165443 38.1173 15.8448 0.165443
257 2 39.9901 15.8669 1.82941 39.9901 15.8669 1.82941
258 2 40.047 15.8226 -1.43189 40.047 15.8226 -1.43189
259 1 40.9691 14.198 0.237967 40.9691 14.198 0.237967
260 2 42.8528 14.2096 1.88978 42.8528 14.2096 1.88978
261 2 42.8885 14.1863 -1.372 42.8885 14.1863 -1.372
262 1 43.8214 15.845 0.257628 43.8214 15.845 0.257628
263 2 45.7174 15.8661 1.89513 45.7174 15.8661 1.89513
264 2 45.7288 15.8239 -1.36662 45.7288 15.8239 -1.36662
265 1 46.674 14.1981 0.289057 46.674 14.1981 0.289057
266 2 48.5845 14.2083 1.90975 48.5845 14.2083 1.90975
267 2 48.5669 14.1878 -1.35217 48.5669 14.1878 -1.35217
268 1 49.5265 15.8451 0.263346 49.5265 15.8451 0.263346
269 2 51.4494 15.8646 1.86922 51.4494 15.8646 1.86922
270 2 51.4068 15.8256 -1.39233 51.4068 15.8256 -1.39233
271 1 1.0488 17.4919 0.206362 1.0488 17.4919 0.206362
272 2 2.98157 17.5201 1.80006 2.98157 17.5201 1.80006
273 2 2.91857 17.4637 -1.46094 2.91857 17.4637 -1.46094
274 1 3.9006 19.1384 0.122731 3.9006 19.1384 0.122731
275 2 5.83995 19.1748 1.70815 5.83995 19.1748 1.70815
276 2 5.76323 19.1021 -1.55228 5.76323 19.1021 -1.55228
277 1 6.75226 17.4917 0.0924821 6.75226 17.4917 0.0924821
278 2 8.69514 17.5193 1.67379 8.69514 17.5193 1.67379
279 2 8.61102 17.4641 -1.58683 8.61102 17.4641 -1.58683
280 1 9.60338 19.1381 -0.00889279 9.60338 19.1381 -0.00889279
281 2 11.5443 19.1751 1.57456 11.5443 19.1751 1.57456
282 2 11.464 19.101 -1.68582 11.464 19.101 -1.68582
283 1 12.4547 17.4914 -0.0413835 12.4547 17.4914 -0.0413835
284 2 14.3899 17.5199 1.54933 14.3899 17.5199 1.54933
285 2 14.3212 17.4627 -1.71171 14.3212 17.4627 -1.71171
286 1 15.3059 19.1376 -0.129978 15.3059 19.1376 -0.129978
287 2 17.2316 19.1764 1.47201 17.2316 19.1764 1.47201
288 2 17.1823 19.0987 -1.78896 17.1823 19.0987 -1.78896
289 1 18.1575 17.4911 -0.13339 18.1575 17.4911 -0.13339
290 2 20.0709 17.5216 1.4834 20.0709 17.5216 1.4834
291 2 20.0462 17.4603 -1.77823 20.0462 17.4603 -1.77823
292 1 21.0091 19.1372 -0.185463 21.0091 19.1372 -0.185463
293 2 22.9093 19.1778 1.44677 22.9093 19.1778 1.44677
294 2 22.9113 19.0964 -1.8145 22.9113 19.0964 -1.8145
295 1 23.8607 17.4908 -0.141919 23.8607 17.4908 -0.141919
296 2 25.7476 17.5232 1.50581 25.7476 17.5232 1.50581
297 2 25.776 17.4582 -1.75571 25.776 17.4582 -1.75571
298 1 26.7125 19.1371 -0.14938 26.7125 19.1371 -0.14938
299 2 28.5877 19.1784 1.51144 28.5877 19.1784 1.51144
300 2 28.6392 19.0957 -1.74935 28.6392 19.0957 -1.74935
301 1 29.5636 17.4909 -0.0618419 29.5636 17.4909 -0.0618419
302 2 31.4312 17.5238 1.60783 31.4312 17.5238 1.60783
303 2 31.4978 17.458 -1.65306 31.4978 17.458 -1.65306
304 1 32.4151 19.1375 -0.0363303 32.4151 19.1375 -0.0363303
305 2 34.2784 19.178 1.63791 34.2784 19.178 1.63791
306 2 34.3535 19.0968 -1.62241 34.3535 19.0968 -1.62241
307 1 35.2661 17.4913 0.0709228 35.2661 17.4913 0.0709228
308 2 37.1317 17.5232 1.74271 37.1317 17.5232 1.74271
309 2 37.2023 17.4593 -1.51805 37.2023 17.4593 -1.51805
310 1 38.1177 19.138 0.100697 38.1177 19.138 0.100697
311 2 39.9888 19.177 1.76616 39.9888 19.177 1.76616
312 2 40.0489 19.0989 -1.49448 40.0489 19.0989 -1.49448
313 1 40.9693 17.4917 0.193016 40.9693 17.4917 0.193016
314 2 42.8517 17.5223 1.84594 42.8517 17.5223 1.84594
315 2 42.8898 17.461 -1.41534 42.8898 17.461 -1.41534
316 1 43.8216 19.1384 0.195421 43.8216 19.1384 0.195421
317 2 45.716 19.1761 1.8344 45.716 19.1761 1.8344
318 2 45.7304 19.1007 -1.42679 45.7304 19.1007 -1.42679
319 1 46.674 17.4919 0.246307 46.674 17.4919 0.246307
320 2 48.583 17.5213 1.86843 48.583 17.5213 1.86843
321 2 48.5683 17.4624 -1.39307 48.5683 17.4624 -1.39307
322 1 49.5265 19.1386 0.20364 49.5265 19.1386 0.20364
323 2 51.4477 19.1753 1.81105 51.4477 19.1753 1.81105
324 2 51.4082 19.1018 -1.44997 51.4082 19.1018 -1.44997
325 1 1.04858 20.785 0.13187 1.04858 20.785 0.13187
326 2 2.97991 20.8281 1.72684 2.97991 20.8281 1.72684
327 2 2.91969 20.7419 -1.53361 2.91969 20.7419 -1.53361
328 1 3.90023 22.4311 0.0354788 3.90023 22.4311 0.0354788
329 2 5.83861 22.4794 1.62163 5.83861 22.4794 1.62163
330 2 5.76377 22.3827 -1.63824 5.76377 22.3827 -1.63824
331 1 6.75192 20.7847 0.0188369 6.75192 20.7847 0.0188369
332 2 8.69398 20.8284 1.6007 8.69398 20.8284 1.6007
333 2 8.61151 20.7408 -1.65926 8.61151 20.7408 -1.65926
334 1 9.60293 22.4305 -0.0975983 9.60293 22.4305 -0.0975983
335 2 11.5435 22.4804 1.48594 11.5435 22.4804 1.48594
336 2 11.464 22.3805 -1.77377 11.464 22.3805 -1.77377
337 1 12.4544 20.7841 -0.116462 12.4544 20.7841 -0.116462
338 2 14.3894 20.8294 1.47399 14.3894 20.8294 1.47399
339 2 14.3212 20.7386 -1.78626 14.3212 20.7386 -1.78626
340 1 15.3056 22.4298 -0.221892 15.3056 22.4298 -0.221892
341 2 17.2311 22.4814 1.37997 17.2311 22.4814 1.37997
342 2 17.1823 22.3781 -1.88026 17.1823 22.3781 -1.88026
343 1 18.1574 20.7835 -0.212005 18.1574 20.7835 -0.212005
344 2 20.0709 20.8305 1.40429 20.0709 20.8305 1.40429
345 2 20.0462 20.7363 -1.85652 20.0462 20.7363 -1.85652
346 1 21.0091 22.4293 -0.280896 21.0091 22.4293 -0.280896
347 2 22.9088 22.4818 1.35162 22.9088 22.4818 1.35162
348 2 22.9121 22.3765 -1.90891 22.9121 22.3765 -1.90891
349 1 23.861 20.7832 -0.224248 23.861 20.7832 -0.224248
350 2 25.7474 20.8312 1.42359 25.7474 20.8312 1.42359
351 2 25.7768 20.7351 -1.83711 25.7768 20.7351 -1.83711
352 1 26.7129 22.4292 -0.246722 26.7129 22.4292 -0.246722
353 2 28.5868 22.4816 1.4153 28.5868 22.4816 1.4153
354 2 28.6411 22.3767 -1.84478 28.6411 22.3767 -1.84478
355 1 29.5641 20.7834 -0.145684 29.5641 20.7834 -0.145684
356 2 31.4303 20.8309 1.52515 31.4303 20.8309 1.52515
357 2 31.4997 20.7358 -1.73494 31.4997 20.7358 -1.73494
358 1 32.4157 22.4297 -0.132727 32.4157 22.4297 -0.132727
359 2 34.2768 22.4807 1.54359 34.2768 22.4807 1.54359
360 2 34.3562 22.3787 -1.71604 34.3562 22.3787 -1.71604
361 1 35.2666 20.784 -0.0113363 35.2666 20.784 -0.0113363
362 2 37.1302 20.8299 1.66232 37.1302 20.8299 1.66232
363 2 37.2048 20.738 -1.5977 37.2048 20.738 -1.5977
364 1 38.1182 22.4304 0.00758961 38.1182 22.4304 0.00758961
365 2 39.987 22.4795 1.67535 39.987 22.4795 1.67535
366 2 40.0516 22.3814 -1.5847 40.0516 22.3814 -1.5847
367 1 40.9696 20.7846 0.113888 40.9696 20.7846 0.113888
368 2 42.85 20.8289 1.76864 42.85 20.8289 1.76864
369 2 42.8919 20.7403 -1.49202 42.8919 20.7403 -1.49202
370 1 43.8218 22.431 0.105749 43.8218 22.431 0.105749
371 2 45.7142 22.4788 1.74659 45.7142 22.4788 1.74659
372 2 45.7324 22.3833 -1.51411 45.7324 22.3833 -1.51411
373 1 46.674 20.785 0.169879 46.674 20.785 0.169879
374 2 48.5813 20.8282 1.79356 48.5813 20.8282 1.79356
375 2 48.5699 20.7417 -1.46738 48.5699 20.7417 -1.46738
376 1 49.5263 22.4313 0.115969 49.5263 22.4313 0.115969
377 2 51.446 22.4788 1.72471 51.446 22.4788 1.72471
378 2 51.4094 22.3838 -1.53585 51.4094 22.3838 -1.53585
379 1 1.04829 24.0773 0.0356503 1.04829 24.0773 0.0356503
380 2 2.97859 24.1278 1.63146 2.97859 24.1278 1.63146
381 2 2.92027 24.0269 -1.62863 2.92027 24.0269 -1.62863
382 1 3.89977 25.7231 -0.0667131 3.89977 25.7231 -0.0667131
383 2 5.83763 25.7751 1.51981 5.83763 25.7751 1.51981
384 2 5.76373 25.6712 -1.73989 5.76373 25.6712 -1.73989
385 1 6.75142 24.0769 -0.0790439 6.75142 24.0769 -0.0790439
386 2 8.69295 24.129 1.50309 8.69295 24.129 1.50309
387 2 8.61151 24.0247 -1.75641 8.61151 24.0247 -1.75641
388 1 9.60233 25.7225 -0.203208 9.60233 25.7225 -0.203208
389 2 11.5425 25.7763 1.38058 11.5425 25.7763 1.38058
390 2 11.4639 25.6686 -1.87888 11.4639 25.6686 -1.87888
391 1 12.4539 24.0762 -0.217573 12.4539 24.0762 -0.217573
392 2 14.3886 24.13 1.37301 14.3886 24.13 1.37301
393 2 14.3212 24.0222 -1.88671 14.3212 24.0222 -1.88671
394 1 15.3051 25.7216 -0.331069 15.3051 25.7216 -0.331069
395 2 17.23 25.7766 1.27148 17.23 25.7766 1.27148
396 2 17.1828 25.6666 -1.98849 17.1828 25.6666 -1.98849
397 1 18.1571 24.0754 -0.316552 18.1571 24.0754 -0.316552
398 2 20.07 24.1303 1.30026 20.07 24.1303 1.30026
399 2 20.0469 24.0203 -1.96 20.0469 24.0203 -1.96
400 1 21.0091 25.721 -0.392247 21.0091 25.721 -0.392247
401 2 22.9075 25.776 1.2417 22.9075 25.776 1.2417
402 2 22.9136 25.6659 -2.01859 22.9136 25.6659 -2.01859
403 1 23.8612 24.075 -0.330864 23.8612 24.075 -0.330864
404 2 25.7464 24.1299 1.31827 25.7464 24.1299 1.31827
405 2 25.7785 24.02 -1.94191 25.7785 24.02 -1.94191
406 1 26.7133 25.721 -0.358011 26.7133 25.721 -0.358011
407 2 28.5852 25.775 1.30619 28.5852 25.775 1.30619
408 2 28.6436 25.6669 -1.95366 28.6436 25.6669 -1.95366
409 1 29.5647 24.0753 -0.251915 29.5647 24.0753 -0.251915
410 2 31.4288 24.1291 1.42106 31.4288 24.1291 1.42106
411 2 31.5024 24.0215 -1.83853 31.5024 24.0215 -1.83853
412 1 32.4164 25.7215 -0.241675 32.4164 25.7215 -0.241675
413 2 34.2749 25.7739 1.43739 34.2749 25.7739 1.43739
414 2 34.3593 25.6693 -1.82202 34.3593 25.6693 -1.82202
415 1 35.2672 24.076 -0.114671 35.2672 24.076 -0.114671
416 2 37.1283 24.1279 1.56163 37.1283 24.1279 1.56163
417 2 37.2078 24.0242 -1.69794 37.2078 24.0242 -1.69794
418 1 38.1187 25.7224 -0.0974298 38.1187 25.7224 -0.0974298
419 2 39.9849 25.7729 1.57309 39.9849 25.7729 1.57309
420 2 40.0545 25.672 -1.68681 40.0545 25.672 -1.68681
421 1 40.97 24.0768 0.0145385 40.97 24.0768 0.0145385
422 2 42.8481 24.127 1.67164 42.8481 24.127 1.67164
423 2 42.8944 24.0267 -1.58867 42.8944 24.0267 -1.58867
424 1 43.822 25.7231 0.00422979 43.822 25.7231 0.00422979
425 2 45.7125 25.7727 1.64706 45.7125 25.7727 1.64706
426 2 45.7343 25.6736 -1.61357 45.7343 25.6736 -1.61357
427 1 46.6741 24.0773 0.0732388 46.6741 24.0773 0.0732388
428 2 48.5797 24.127 1.69849 48.5797 24.127 1.69849
429 2 48.5714 24.0277 -1.56216 48.5714 24.0277 -1.56216
430 1 49.5262 25.7234 0.0154552 49.5262 25.7234 0.0154552
431 2 51.4448 25.7736 1.62522 51.4448 25.7736 1.62522
432 2 51.4102 25.6732 -1.63525 51.4102 25.6732 -1.63525
433 1 1.04795 27.3693 -0.0660119 1.04795 27.3693 -0.0660119
434 2 2.97775 27.4188 1.53025 2.97775 27.4188 1.53025
435 2 2.92026 27.3199 -1.72996 2.92026 27.3199 -1.72996
436 1 3.89927 29.0152 -0.166732 3.89927 29.0152 -0.166732
437 2 5.837 29.0621 1.41996 5.837 29.0621 1.41996
438 2 5.76324 28.9683 -1.84007 5.76324 28.9683 -1.84007
439 1 6.75082 27.3688 -0.184247 6.75082 27.3688 -0.184247
440 2 8.69208 27.4203 1.39814 8.69208 27.4203 1.39814
441 2 8.61117 27.3173 -1.86142 8.61117 27.3173 -1.86142
442 1 9.60168 29.0145 -0.307425 9.60168 29.0145 -0.307425
443 2 11.5414 29.0629 1.27699 11.5414 29.0629 1.27699
444 2 11.4637 28.966 -1.9828 11.4637 28.966 -1.9828
445 1 12.4533 27.368 -0.32663 12.4533 27.368 -0.32663
446 2 14.3874 27.4207 1.26469 14.3874 27.4207 1.26469
447 2 14.3213 27.3152 -1.99509 14.3213 27.3152 -1.99509
448 1 15.3046 29.0137 -0.437964 15.3046 29.0137 -0.437964
449 2 17.2284 29.0622 1.1661 17.2284 29.0622 1.1661
450 2 17.1836 28.965 -2.09425 17.1836 28.965 -2.09425
451 1 18.1568 27.3672 -0.427967 18.1568 27.3672 -0.427967
452 2 20.0686 27.4201 1.19037 20.0686 27.4201 1.19037
453 2 20.0481 27.3143 -2.06998 20.0481 27.3143 -2.06998
454 1 21.009 29.0131 -0.499345 21.009 29.0131 -0.499345
455 2 22.9057 29.0608 1.13688 22.9057 29.0608 1.13688
456 2 22.9156 28.9655 -2.12381 22.9156 28.9655 -2.12381
457 1 23.8614 27.3669 -0.442372 23.8614 27.3669 -0.442372
458 2 25.7447 27.4188 1.209 25.7447 27.4188 1.209
459 2 25.7808 27.315 -2.05128 25.7808 27.315 -2.05128
460 1 26.7137 29.0131 -0.463229 26.7137 29.0131 -0.463229
461 2 28.5835 29.0593 1.20365 28.5835 29.0593 1.20365
462 2 28.6463 28.967 -2.05656 28.6463 28.967 -2.05656
463 1 29.5653 27.3672 -0.361442 29.5653 27.3672 -0.361442
464 2 31.427 27.4176 1.31425 31.427 27.4176 1.31425
465 2 31.5054 27.3168 -1.94541 31.5054 27.3168 -1.94541
466 1 32.4169 29.0136 -0.343792 32.4169 29.0136 -0.343792
467 2 34.2731 29.0583 1.33811 34.2731 29.0583 1.33811
468 2 34.3622 28.9692 -1.92164 34.3622 28.9692 -1.92164
469 1 35.2678 27.3679 -0.220721 35.2678 27.3679 -0.220721
470 2 37.1263 27.4167 1.45849 37.1263 27.4167 1.45849
471 2 37.2109 27.3194 -1.80117 37.2109 27.3194 -1.80117
472 1 38.1192 29.0144 -0.19596 38.1192 29.0144 -0.19596
473 2 39.9831 29.0578 1.47716 39.9831 29.0578 1.47716
474 2 40.057 28.9713 -1.78309 40.057 28.9713 -1.78309
475 1 40.9704 27.3688 -0.0877017 40.9704 27.3688 -0.0877017
476 2 42.8463 27.4163 1.5718 42.8463 27.4163 1.5718
477 2 42.8968 27.3214 -1.68866 42.8968 27.3214 -1.68866
478 1 43.8222 29.0151 -0.0917893 43.8222 29.0151 -0.0917893
479 2 45.7112 29.0584 1.55271 45.7112 29.0584 1.55271
480 2 45.7357 28.9721 -1.70832 45.7357 28.9721 -1.70832
481 1 46.6741 27.3693 -0.0271312 46.6741 27.3693 -0.0271312
482 2 48.5784 27.4171 1.59945 48.5784 27.4171 1.59945
483 2 48.5724 27.3216 -1.66138 48.5724 27.3216 -1.66138
484 1 49.526 29.0154 -0.0811161 49.526 29.0154 -0.0811161
485 2 51.4441 29.0601 1.52923 51.4441 29.0601 1.52923
486 2 51.4103 28.9708 -1.73163 51.4103 28.9708 -1.73163
487 1 1.0476 30.6615 -0.156381 1.0476 30.6615 -0.156381
488 2 2.97744 30.7017 1.43993 2.97744 30.7017 1.43993
489 2 2.9197 30.6213 -1.82081 2.9197 30.6213 -1.82081
490 1 3.8988 32.3076 -0.248157 3.8988 32.3076 -0.248157
491 2 5.83669 32.3417 1.33855 5.83669 32.3417 1.33855
492 2 5.76251 32.2736 -1.92212 5.76251 32.2736 -1.92212
493 1 6.75022 30.661 -0.279141 6.75022 30.661 -0.279141
494 2 8.69131 30.7031 1.30363 8.69131 30.7031 1.30363
495 2 8.61072 30.6189 -1.95647 8.61072 30.6189 -1.95647
496 1 9.60108 32.3071 -0.39271 9.60108 32.3071 -0.39271
497 2 11.5403 32.3419 1.1927 11.5403 32.3419 1.1927
498 2 11.4638 32.2722 -2.06779 11.4638 32.2722 -2.06779
499 1 12.4527 30.6603 -0.424691 12.4527 30.6603 -0.424691
500 2 14.3859 30.7028 1.16797 14.3859 30.7028 1.16797
501 2 14.3218 30.6178 -2.0924 14.3218 30.6178 -2.0924
502 1 15.3042 32.3065 -0.524112 15.3042 32.3065 -0.524112
503 2 17.2266 32.3404 1.082 17.2266 32.3404 1.082
504 2 17.1848 32.2725 -2.17909 17.1848 32.2725 -2.17909
505 1 18.1566 30.6597 -0.526439 18.1566 30.6597 -0.526439
506 2 20.0667 30.7012 1.09414 20.0667 30.7012 1.09414
507 2 20.0497 30.6182 -2.16683 20.0497 30.6182 -2.16683
508 1 21.009 32.3061 -0.583466 21.009 32.3061 -0.583466
509 2 22.9038 32.3383 1.05534 22.9038 32.3383 1.05534
510 2 22.9176 32.274 -2.20604 22.9176 32.274 -2.20604
511 1 23.8615 30.6594 -0.538884 23.8615 30.6594 -0.538884
512 2 25.7429 30.6993 1.11513 25.7429 30.6993 1.11513
513 2 25.7832 30.6196 -2.14572 25.7832 30.6196 -2.14572
514 1 26.7139 32.3061 -0.544017 26.7139 32.3061 -0.544017
515 2 28.5818 32.3365 1.12539 28.5818 32.3365 1.12539
516 2 28.6486 32.2759 -2.13544 28.6486 32.2759 -2.13544
517 1 29.5657 30.6597 -0.454903 29.5657 30.6597 -0.454903
518 2 31.4253 30.6981 1.22347 31.4253 30.6981 1.22347
519 2 31.508 30.6215 -2.03672 31.508 30.6215 -2.03672
520 1 32.4173 32.3065 -0.421399 32.4173 32.3065 -0.421399
521 2 34.2718 32.3358 1.26277 34.2718 32.3358 1.26277
522 2 34.3644 32.2774 -1.99756 34.3644 32.2774 -1.99756
523 1 35.2683 30.6603 -0.310945 35.2683 30.6603 -0.310945
524 2 37.1247 30.6975 1.37078 37.1247 30.6975 1.37078
525 2 37.2133 30.6233 -1.88938 37.2133 30.6233 -1.88938
526 1 38.1196 32.3071 -0.27112 38.1196 32.3071 -0.27112
527 2 39.982 32.3359 1.40383 39.982 32.3359 1.40383
528 2 40.0587 32.2784 -1.85703 40.0587 32.2784 -1.85703
529 1 40.9707 30.661 -0.175287 40.9707 30.661 -0.175287
530 2 42.845 30.6979 1.48609 42.845 30.6979 1.48609
531 2 42.8984 30.6244 -1.77491 42.8984 30.6244 -1.77491
532 1 43.8223 32.3076 -0.166177 43.8223 32.3076 -0.166177
533 2 45.7107 32.3372 1.4792 45.7107 32.3372 1.4792
534 2 45.7362 32.2781 -1.78247 45.7362 32.2781 -1.78247
535 1 46.6741 30.6614 -0.114457 46.6741 30.6614 -0.114457
536 2 48.5779 30.6995 1.51287 48.5779 30.6995 1.51287
537 2 48.5727 30.6236 -1.74853 48.5727 30.6236 -1.74853
538 1 49.5258 32.3078 -0.157859 49.5258 32.3078 -0.157859
539 2 51.4441 32.3396 1.45244 51.4441 32.3396 1.45244
540 2 51.4098 32.2761 -1.80906 51.4098 32.2761 -1.80906