ITEM: TIMESTEP
37000
ITEM: NUMBER OF ATOMS
810
ITEM: BOX BOUNDS pp pp pp
8.4424409581514637e-01 5.2173360904183831e+01
8.0846322403880755e-01 5.0207751775961057e+01
-1.0000000000000000e+01 1.0000000000000000e+01
ITEM: ATOMS id type x y z xu yu zu
1 1 1.04817 1.02262 -0.0206622 1.04817 1.02262 -0.0206622
2 2 2.98102 1.01122 1.57269 2.98102 1.01122 1.57269
3 2 2.9173 1.03409 -1.68879 2.9173 1.03409 -1.68879
4 1 3.89972 2.66933 -0.0651152 3.89972 2.66933 -0.0651152
5 2 5.83837 2.65749 1.52122 5.83837 2.65749 1.52122
6 2 5.76275 2.68123 -1.74 5.76275 2.68123 -1.74
7 1 6.7509 1.02281 -0.143509 6.7509 1.02281 -0.143509
8 2 8.69069 1.01175 1.44148 8.69069 1.01175 1.44148
9 2 8.6127 1.03391 -1.81969 8.6127 1.03391 -1.81969
10 1 9.60217 2.66952 -0.200652 9.60217 2.66952 -0.200652
11 2 11.5392 2.65809 1.38785 11.5392 2.65809 1.38785
12 2 11.4669 2.68098 -1.87345 11.4669 2.68098 -1.87345
13 1 12.4534 1.02298 -0.275467 12.4534 1.02298 -0.275467
14 2 14.3828 1.0123 1.32238 14.3828 1.0123 1.32238
15 2 14.3262 1.03365 -1.93924 14.3262 1.03365 -1.93924
16 1 15.3051 2.66966 -0.314113 15.3051 2.66966 -0.314113
17 2 17.2238 2.65908 1.29654 17.2238 2.65908 1.29654
18 2 17.1888 2.6802 -1.96538 17.1888 2.6802 -1.96538
19 1 18.1569 1.02305 -0.355304 18.1569 1.02305 -0.355304
20 2 20.062 1.01288 1.27165 20.062 1.01288 1.27165
21 2 20.0546 1.03318 -1.99046 20.0546 1.03318 -1.99046
22 1 21.009 2.66965 -0.351215 21.009 2.66965 -0.351215
23 2 22.9002 2.66016 1.29182 22.9002 2.66016 1.29182
24 2 22.9204 2.67909 -1.97025 22.9204 2.67909 -1.97025
25 1 23.861 1.02299 -0.342855 23.861 1.02299 -0.342855
26 2 25.7389 1.0131 1.31538 25.7389 1.0131 1.31538
27 2 25.7853 1.03281 -1.94641 25.7853 1.03281 -1.94641
28 1 26.7127 2.66953 -0.291922 26.7127 2.66953 -0.291922
29 2 28.5808 2.66058 1.37739 28.5808 2.66058 1.37739
30 2 28.6465 2.67842 -1.88409 28.6465 2.67842 -1.88409
31 1 29.5641 1.02282 -0.243131 29.5641 1.02282 -0.243131
32 2 31.4264 1.01257 1.43261 31.4264 1.01257 1.43261
33 2 31.5035 1.03302 -1.8286 31.5035 1.03302 -1.8286
34 1 32.4153 2.66935 -0.165116 32.4153 2.66935 -0.165116
35 2 34.2768 2.66008 1.51146 34.2768 2.66008 1.51146
36 2 34.3554 2.6786 -1.74972 34.3554 2.6786 -1.74972
37 1 35.2665 1.02263 -0.105518 35.2665 1.02263 -0.105518
38 2 37.1321 1.01174 1.56634 37.1321 1.01174 1.56634
39 2 37.2027 1.03351 -1.695 37.2027 1.03351 -1.695
40 1 38.1179 2.6692 -0.0327133 38.1179 2.6692 -0.0327133
41 2 39.9917 2.65915 1.62982 39.9917 2.65915 1.62982
42 2 40.0462 2.67925 -1.63183 40.0462 2.67925 -1.63183
43 1 40.9695 1.02251 0.00470293 40.9695 1.02251 0.00470293
44 2 42.8549 1.01116 1.65412 42.8549 1.01116 1.65412
45 2 42.8868 1.03388 -1.60782 42.8868 1.03388 -1.60782
46 1 43.8214 2.66912 0.0439153 43.8214 2.66912 0.0439153
47 2 45.7199 2.65815 1.6782 45.7199 2.65815 1.6782
48 2 45.7258 2.68014 -1.58389 45.7258 2.68014 -1.58389
49 1 46.6735 1.0225 0.0376922 46.6735 1.0225 0.0376922
50 2 48.5852 1.01095 1.65635 48.5852 1.01095 1.65635
51 2 48.5645 1.03411 -1.60568 48.5645 1.03411 -1.60568
52 1 49.5256 2.66917 0.0309253 49.5256 2.66917 0.0309253
53 2 51.4493 2.65746 1.63531 51.4493 2.65746 1.63531
54 2 51.4042 2.68094 -1.62647 51.4042 2.68094 -1.62647
55 1 1.04829 4.31586 0.00311534 1.04829 4.31586 0.00311534
56 2 2.98132 4.30409 1.59629 2.98132 4.30409 1.59629
57 2 2.91729 4.3277 -1.66517 2.91729 4.3277 -1.66517
58 1 3.8999 5.96257 -0.0412142 3.8999 5.96257 -0.0412142
59 2 5.83873 5.95116 1.54493 5.83873 5.95116 1.54493
60 2 5.76276 5.97405 -1.71629 5.76276 5.97405 -1.71629
61 1 6.75107 4.31604 -0.119458 6.75107 4.31604 -0.119458
62 2 8.69136 4.30425 1.46495 8.69136 4.30425 1.46495
63 2 8.61236 4.32789 -1.79619 8.61236 4.32789 -1.79619
64 1 9.60236 5.96276 -0.176697 9.60236 5.96276 -0.176697
65 2 11.54 5.95179 1.41098 11.54 5.95179 1.41098
66 2 11.4664 5.97376 -1.8503 11.4664 5.97376 -1.8503
67 1 12.4536 4.31622 -0.252267 12.4536 4.31622 -0.252267
68 2 14.3837 4.30528 1.34471 14.3837 4.30528 1.34471
69 2 14.3255 4.32717 -1.91689 14.3255 4.32717 -1.91689
70 1 15.3052 5.96288 -0.291906 15.3052 5.96288 -0.291906
71 2 17.225 5.95342 1.31748 17.225 5.95342 1.31748
72 2 17.1877 5.97232 -1.94445 17.1877 5.97232 -1.94445
73 1 18.157 4.31629 -0.333892 18.157 4.31629 -0.333892
74 2 20.0629 4.30684 1.29202 20.0629 4.30684 1.29202
75 2 20.0537 4.32568 -1.97011 20.0537 4.32568 -1.97011
76 1 21.009 5.96287 -0.332092 21.009 5.96287 -0.332092
77 2 22.9014 5.95548 1.3096 22.9014 5.95548 1.3096
78 2 22.9192 5.9702 -1.95252 22.9192 5.9702 -1.95252
79 1 23.8609 4.31621 -0.32367 23.8609 4.31621 -0.32367
80 2 25.7396 4.30825 1.33381 25.7396 4.30825 1.33381
81 2 25.7846 4.32411 -1.92804 25.7846 4.32411 -1.92804
82 1 26.7127 5.96275 -0.275843 26.7127 5.96275 -0.275843
83 2 28.5815 5.95697 1.39269 28.5815 5.95697 1.39269
84 2 28.6458 5.96848 -1.86885 28.6458 5.96848 -1.86885
85 1 29.5641 4.31606 -0.225071 29.5641 4.31606 -0.225071
86 2 31.4265 4.30865 1.45053 31.4265 4.30865 1.45053
87 2 31.5033 4.32343 -1.81072 31.5033 4.32343 -1.81072
88 1 32.4153 5.96262 -0.150158 32.4153 5.96262 -0.150158
89 2 34.2768 5.95713 1.52641 34.2768 5.95713 1.52641
90 2 34.3554 5.9681 -1.73481 34.3554 5.9681 -1.73481
91 1 35.2665 4.31591 -0.0867835 35.2665 4.31591 -0.0867835
92 2 37.1319 4.30798 1.58529 37.1319 4.30798 1.58529
93 2 37.2028 4.32384 -1.67608 37.2028 4.32384 -1.67608
94 1 38.1178 5.96252 -0.0166751 38.1178 5.96252 -0.0166751
95 2 39.9913 5.95597 1.64636 39.9913 5.95597 1.64636
96 2 40.0466 5.96908 -1.61531 40.0466 5.96908 -1.61531
97 1 40.9695 4.31581 0.0250377 40.9695 4.31581 0.0250377
98 2 42.8546 4.30661 1.67477 42.8546 4.30661 1.67477
99 2 42.887 4.32502 -1.58718 42.887 4.32502 -1.58718
100 1 43.8214 5.96246 0.0625179 43.8214 5.96246 0.0625179
101 2 45.7193 5.95391 1.69757 45.7193 5.95391 1.69757
102 2 45.7264 5.97101 -1.56453 45.7264 5.97101 -1.56453
103 1 46.6735 4.31578 0.0599444 46.6735 4.31578 0.0599444
104 2 48.5851 4.30503 1.67884 48.5851 4.30503 1.67884
105 2 48.5647 4.32657 -1.58319 48.5647 4.32657 -1.58319
106 1 49.5256 5.96246 0.0527152 49.5256 5.96246 0.0527152
107 2 51.449 5.95193 1.65762 51.449 5.95193 1.65762
108 2 51.4048 5.97302 -1.60418 51.4048 5.97302 -1.60418
109 1 1.04843 7.60916 0.0244434 1.04843 7.60916 0.0244434
110 2 2.98106 7.59916 1.61814 2.98106 7.59916 1.61814
111 2 2.91787 7.6192 -1.64336 2.91787 7.6192 -1.64336
112 1 3.90008 9.25587 -0.020935 3.90008 9.25587 -0.020935
113 2 5.83875 9.24699 1.56544 5.83875 9.24699 1.56544
114 2 5.76314 9.26481 -1.6958 5.76314 9.26481 -1.6958
115 1 6.75128 7.60929 -0.0962703 6.75128 7.60929 -0.0962703
116 2 8.69196 7.59893 1.48768 8.69196 7.59893 1.48768
117 2 8.61216 7.61971 -1.77346 8.61216 7.61971 -1.77346
118 1 9.60257 9.25601 -0.155625 9.60257 9.25601 -0.155625
119 2 11.541 9.24755 1.43117 11.541 9.24755 1.43117
120 2 11.4658 9.26451 -1.83011 11.4658 9.26451 -1.83011
121 1 12.4537 7.60945 -0.229979 12.4537 7.60945 -0.229979
122 2 14.3848 7.60024 1.36577 14.3848 7.60024 1.36577
123 2 14.3246 7.61867 -1.89581 14.3246 7.61867 -1.89581
124 1 15.3053 9.2561 -0.273181 15.3053 9.2561 -0.273181
125 2 17.2265 9.24956 1.33455 17.2265 9.24956 1.33455
126 2 17.1864 9.26263 -1.92738 17.1864 9.26263 -1.92738
127 1 18.157 7.6095 -0.314704 18.157 7.6095 -0.314704
128 2 20.0644 7.60247 1.30955 20.0644 7.60247 1.30955
129 2 20.0523 7.61648 -1.9526 20.0523 7.61648 -1.9526
130 1 21.009 9.25608 -0.317844 21.009 9.25608 -0.317844
131 2 22.9031 9.25223 1.32196 22.9031 9.25223 1.32196
132 2 22.9176 9.25987 -1.94021 22.9176 9.25987 -1.94021
133 1 23.861 7.60942 -0.308714 23.861 7.60942 -0.308714
134 2 25.7409 7.6048 1.34731 25.7409 7.6048 1.34731
135 2 25.7833 7.61399 -1.91461 25.7833 7.61399 -1.91461
136 1 26.7127 9.25598 -0.26648 26.7127 9.25598 -0.26648
137 2 28.5827 9.25451 1.40073 28.5827 9.25451 1.40073
138 2 28.6446 9.25742 -1.86088 28.6446 9.25742 -1.86088
139 1 29.5641 7.60931 -0.213398 29.5641 7.60931 -0.213398
140 2 31.4271 7.60609 1.46161 31.4271 7.60609 1.46161
141 2 31.5027 7.61251 -1.7997 31.5027 7.61251 -1.7997
142 1 32.4153 9.25592 -0.143646 32.4153 9.25592 -0.143646
143 2 34.277 9.25527 1.53272 34.277 9.25527 1.53272
144 2 34.3552 9.25657 -1.72852 34.3552 9.25657 -1.72852
145 1 35.2665 7.60923 -0.075689 35.2665 7.60923 -0.075689
146 2 37.1317 7.6057 1.59671 37.1317 7.6057 1.59671
147 2 37.2031 7.61277 -1.66467 37.2031 7.61277 -1.66467
148 1 38.1179 9.25589 -0.00955528 38.1179 9.25589 -0.00955528
149 2 39.9905 9.25402 1.65438 39.9905 9.25402 1.65438
150 2 40.0474 9.25776 -1.60728 40.0474 9.25776 -1.60728
151 1 40.9695 7.60917 0.0382687 40.9695 7.60917 0.0382687
152 2 42.8537 7.60376 1.68902 42.8537 7.60376 1.68902
153 2 42.8878 7.61459 -1.57294 42.8878 7.61459 -1.57294
154 1 43.8215 9.25585 0.0734246 43.8215 9.25585 0.0734246
155 2 45.718 9.25127 1.71003 45.718 9.25127 1.71003
156 2 45.7278 9.26042 -1.55209 45.7278 9.26042 -1.55209
157 1 46.6736 7.60913 0.0772088 46.6736 7.60913 0.0772088
158 2 48.5842 7.60109 1.69728 48.5842 7.60109 1.69728
159 2 48.5657 7.61717 -1.56479 48.5657 7.61717 -1.56479
160 1 49.5257 9.25581 0.0689432 49.5257 9.25581 0.0689432
161 2 51.448 9.2484 1.67515 51.448 9.2484 1.67515
162 2 51.406 9.26324 -1.5867 51.406 9.26324 -1.5867
163 1 1.04855 10.9025 0.0394223 1.04855 10.9025 0.0394223
164 2 2.9803 10.8961 1.63422 2.9803 10.8961 1.63422
165 2 2.91893 10.9089 -1.62734 2.91893 10.9089 -1.62734
166 1 3.90023 12.5492 -0.00802006 3.90023 12.5492 -0.00802006
167 2 5.83841 12.5445 1.57899 5.83841 12.5445 1.57899
168 2 5.76383 12.554 -1.68231 5.76383 12.554 -1.68231
169 1 6.75148 10.9026 -0.0782236 6.75148 10.9026 -0.0782236
170 2 8.69238 10.8956 1.50549 8.69238 10.8956 1.50549
171 2 8.61214 10.9096 -1.75568 8.61214 10.9096 -1.75568
172 1 9.60276 12.5493 -0.141353 9.60276 12.5493 -0.141353
173 2 11.5418 12.5449 1.44465 11.5418 12.5449 1.44465
174 2 11.4653 12.5537 -1.81663 11.4653 12.5537 -1.81663
175 1 12.4539 10.9027 -0.212763 12.4539 10.9027 -0.212763
176 2 14.3862 10.897 1.38163 14.3862 10.897 1.38163
177 2 14.3236 10.9084 -1.87995 14.3236 10.9084 -1.87995
178 1 15.3054 12.5493 -0.261535 15.3054 12.5493 -0.261535
179 2 17.2281 12.547 1.34444 17.2281 12.547 1.34444
180 2 17.185 12.5516 -1.91748 17.185 12.5516 -1.91748
181 1 18.1571 10.9027 -0.301398 18.1571 10.9027 -0.301398
182 2 20.0661 10.8996 1.32089 20.0661 10.8996 1.32089
183 2 20.0507 10.9058 -1.94128 20.0507 10.9058 -1.94128
184 1 21.0091 12.5493 -0.311408 21.0091 12.5493 -0.311408
185 2 22.9049 12.5499 1.32632 22.9049 12.5499 1.32632
186 2 22.9158 12.5486 -1.93587 22.9158 12.5486 -1.93587
187 1 23.861 10.9026 -0.300902 23.861 10.9026 -0.300902
188 2 25.7426 10.9024 1.35325 25.7426 10.9024 1.35325
189 2 25.7818 10.9029 -1.90872 25.7818 10.9029 -1.90872
190 1 26.7128 12.5492 -0.265924 26.7128 12.5492 -0.265924
191 2 28.5842 12.5525 1.39971 28.5842 12.5525 1.39971
192 2 28.6434 12.5459 -1.86195 28.6434 12.5459 -1.86195
193 1 29.5642 10.9026 -0.21042 29.5642 10.9026 -0.21042
194 2 31.428 10.9043 1.46366 31.428 10.9043 1.46366
195 2 31.502 10.9009 -1.7977 31.502 10.9009 -1.7977
196 1 32.4155 12.5492 -0.147055 32.4155 12.5492 -0.147055
197 2 34.2774 12.5536 1.52904 34.2774 12.5536 1.52904
198 2 34.3551 12.5448 -1.73221 34.3551 12.5448 -1.73221
199 1 35.2666 10.9026 -0.0743922 35.2666 10.9026 -0.0743922
200 2 37.1314 10.9041 1.59844 37.1314 10.9041 1.59844
201 2 37.2035 10.901 -1.66293 37.2035 10.901 -1.66293
202 1 38.118 12.5493 -0.0127583 38.118 12.5493 -0.0127583
203 2 39.9896 12.5524 1.65237 39.9896 12.5524 1.65237
204 2 40.0485 12.5461 -1.60925 40.0485 12.5461 -1.60925
205 1 40.9695 10.9026 0.0419959 40.9695 10.9026 0.0419959
206 2 42.8525 10.9019 1.6943 42.8525 10.9019 1.6943
207 2 42.8892 10.9032 -1.56764 42.8892 10.9032 -1.56764
208 1 43.8215 12.5493 0.0746673 43.8215 12.5493 0.0746673
209 2 45.7163 12.5495 1.71333 45.7163 12.5495 1.71333
210 2 45.7295 12.549 -1.5488 45.7295 12.549 -1.5488
211 1 46.6736 10.9025 0.0864023 46.6736 10.9025 0.0864023
212 2 48.5827 10.8987 1.70834 48.5827 10.8987 1.70834
213 2 48.5674 10.9064 -1.55377 48.5674 10.9064 -1.55377
214 1 49.5258 12.5492 0.0766521 49.5258 12.5492 0.0766521
215 2 51.4465 12.5463 1.6847 51.4465 12.5463 1.6847
216 2 51.4076 12.5522 -1.57721 51.4076 12.5522 -1.57721
217 1 1.04863 14.1959 0.0453186 1.04863 14.1959 0.0453186
218 2 2.97917 14.1943 1.64161 2.97917 14.1943 1.64161
219 2 2.92029 14.1976 -1.62001 2.92029 14.1976 -1.62001
220 1 3.90033 15.8426 -0.00475204 3.90033 15.8426 -0.00475204
221 2 5.83777 15.8428 1.58317 5.83777 15.8428 1.58317
222 2 5.76471 15.8424 -1.67818 5.76471 15.8424 -1.67818
223 1 6.75165 14.1959 -0.0686074 6.75165 14.1959 -0.0686074
224 2 8.69254 14.1935 1.51512 8.69254 14.1935 1.51512
225 2 8.61231 14.1984 -1.74607 8.61231 14.1984 -1.74607
226 1 9.60289 15.8426 -0.136383 9.60289 15.8426 -0.136383
227 2 11.5424 15.843 1.44903 11.5424 15.843 1.44903
228 2 11.4649 15.8422 -1.81224 11.4649 15.8422 -1.81224
229 1 12.4541 14.196 -0.20381 12.4541 14.196 -0.20381
230 2 14.3874 14.1948 1.3893 14.3874 14.1948 1.3893
231 2 14.3226 14.1971 -1.87226 14.3226 14.1971 -1.87226
232 1 15.3055 15.8426 -0.259095 15.3055 15.8426 -0.259095
233 2 17.2296 15.8449 1.34528 17.2296 15.8449 1.34528
234 2 17.1837 15.8403 -1.9166 17.1837 15.8403 -1.9166
235 1 18.1572 14.1959 -0.296648 18.1572 14.1959 -0.296648
236 2 20.0679 14.1973 1.32368 20.0679 14.1973 1.32368
237 2 20.049 14.1945 -1.93848 20.049 14.1945 -1.93848
238 1 21.0091 15.8425 -0.314224 21.0091 15.8425 -0.314224
239 2 22.9066 15.8476 1.32157 22.9066 15.8476 1.32157
240 2 22.9142 15.8374 -1.94062 22.9142 15.8374 -1.94062
241 1 23.861 14.1959 -0.302107 23.861 14.1959 -0.302107
242 2 25.7443 14.2002 1.35012 25.7443 14.2002 1.35012
243 2 25.7802 14.1915 -1.91188 25.7802 14.1915 -1.91188
244 1 26.7129 15.8425 -0.2747 26.7129 15.8425 -0.2747
245 2 28.5856 15.8501 1.38944 28.5856 15.8501 1.38944
246 2 28.6422 15.8348 -1.87223 28.6422 15.8348 -1.87223
247 1 29.5643 14.1958 -0.217093 29.5643 14.1958 -0.217093
248 2 31.429 14.2023 1.45598 31.429 14.2023 1.45598
249 2 31.5013 14.1894 -1.80539 31.5013 14.1894 -1.80539
250 1 32.4157 15.8425 -0.160039 32.4157 15.8425 -0.160039
251 2 34.2778 15.8512 1.51583 34.2778 15.8512 1.51583
252 2 34.3551 15.8338 -1.74539 34.3551 15.8338 -1.74539
253 1 35.2667 14.1959 -0.0833384 35.2667 14.1959 -0.0833384
254 2 37.1311 14.2023 1.59004 37.1311 14.2023 1.59004
255 2 37.2042 14.1895 -1.67129 37.2042 14.1895 -1.67129
256 1 38.1181 15.8426 -0.0257683 38.1181 15.8426 -0.0257683
257 2 39.9886 15.8502 1.64067 39.9886 15.8502 1.64067
258 2 40.0497 15.835 -1.62089 40.0497 15.835 -1.62089
259 1 40.9696 14.196 0.0355053 40.9696 14.196 0.0355053
260 2 42.8509 14.2002 1.68965 42.8509 14.2002 1.68965
261 2 42.8908 14.1917 -1.57225 42.8908 14.1917 -1.57225
262 1 43.8216 15.8427 0.0660303 43.8216 15.8427 0.0660303
263 2 45.7144 15.8476 1.70687 45.7144 15.8476 1.70687
264 2 45.7315 15.8377 -1.55523 45.7315 15.8377 -1.55523
265 1 46.6736 14.196 0.0858524 46.6736 14.196 0.0858524
266 2 48.5808 14.197 1.71001 48.5808 14.197 1.71001
267 2 48.5693 14.1949 -1.55212 48.5693 14.1949 -1.55212
268 1 49.5258 15.8426 0.0744759 49.5258 15.8426 0.0744759
269 2 51.4448 15.8447 1.68458 51.4448 15.8447 1.68458
270 2 51.4094 15.8406 -1.57738 51.4094 15.8406 -1.57738
271 1 1.04867 17.4893 0.0411566 1.04867 17.4893 0.0411566
272 2 2.97787 17.4927 1.63906 2.97787 17.4927 1.63906
273 2 2.92172 17.486 -1.62261 2.92172 17.486 -1.62261
274 1 3.90037 19.136 -0.0115864 3.90037 19.136 -0.0115864
275 2 5.83694 19.141 1.57737 5.83694 19.141 1.57737
276 2 5.76564 19.131 -1.68401 5.76564 19.131 -1.68401
277 1 6.75174 17.4893 -0.0690187 6.75174 17.4893 -0.0690187
278 2 8.69241 17.4918 1.51497 8.69241 17.4918 1.51497
279 2 8.61264 17.4868 -1.74623 8.61264 17.4868 -1.74623
280 1 9.60296 19.1359 -0.141396 9.60296 19.1359 -0.141396
281 2 11.5427 19.1409 1.44375 11.5427 19.1409 1.44375
282 2 11.4648 19.1309 -1.8175 11.4648 19.1309 -1.8175
283 1 12.4541 17.4892 -0.204559 12.4541 17.4892 -0.204559
284 2 14.3883 17.4927 1.38752 14.3883 17.4927 1.38752
285 2 14.3218 17.4858 -1.874 14.3218 17.4858 -1.874
286 1 15.3056 19.1358 -0.266056 15.3056 19.1358 -0.266056
287 2 17.2306 19.1422 1.33708 17.2306 19.1422 1.33708
288 2 17.1827 19.1294 -1.92475 17.1827 19.1294 -1.92475
289 1 18.1572 17.4892 -0.301284 18.1572 17.4892 -0.301284
290 2 20.0693 17.4949 1.31734 20.0693 17.4949 1.31734
291 2 20.0477 17.4834 -1.94478 20.0477 17.4834 -1.94478
292 1 21.0092 19.1357 -0.325723 21.0092 19.1357 -0.325723
293 2 22.908 19.1443 1.30852 22.908 19.1443 1.30852
294 2 22.913 19.1271 -1.95363 22.913 19.1271 -1.95363
295 1 23.8611 17.4891 -0.312348 23.8611 17.4891 -0.312348
296 2 25.7458 17.4973 1.33823 25.7458 17.4973 1.33823
297 2 25.7789 17.4808 -1.92377 25.7789 17.4808 -1.92377
298 1 26.713 19.1357 -0.291384 26.713 19.1357 -0.291384
299 2 28.5867 19.1463 1.37161 28.5867 19.1463 1.37161
300 2 28.6414 19.1251 -1.89006 28.6414 19.1251 -1.89006
301 1 29.5645 17.4891 -0.232493 29.5645 17.4891 -0.232493
302 2 31.4299 17.4991 1.43974 31.4299 17.4991 1.43974
303 2 31.5008 17.479 -1.82162 31.5008 17.479 -1.82162
304 1 32.4159 19.1357 -0.180378 32.4159 19.1357 -0.180378
305 2 34.278 19.1472 1.49541 34.278 19.1472 1.49541
306 2 34.3553 19.1243 -1.76578 34.3553 19.1243 -1.76578
307 1 35.2669 17.4892 -0.101002 35.2669 17.4892 -0.101002
308 2 37.1307 17.4993 1.57297 37.1307 17.4993 1.57297
309 2 37.2049 17.4791 -1.6883 37.2049 17.4791 -1.6883
310 1 38.1183 19.1359 -0.0462305 38.1183 19.1359 -0.0462305
311 2 39.9877 19.1466 1.6214 39.9877 19.1466 1.6214
312 2 40.051 19.1252 -1.64009 40.051 19.1252 -1.64009
313 1 40.9698 17.4893 0.0199885 40.9698 17.4893 0.0199885
314 2 42.8495 17.4976 1.67593 42.8495 17.4976 1.67593
315 2 42.8925 17.481 -1.58591 42.8925 17.481 -1.58591
316 1 43.8217 19.136 0.049109 43.8217 19.136 0.049109
317 2 45.7128 19.1448 1.69187 45.7128 19.1448 1.69187
318 2 45.7332 19.1272 -1.57018 45.7332 19.1272 -1.57018
319 1 46.6737 17.4894 0.0757051 46.6737 17.4894 0.0757051
320 2 48.579 17.495 1.70204 48.579 17.495 1.70204
321 2 48.5712 17.4837 -1.56009 48.5712 17.4837 -1.56009
322 1 49.5258 19.136 0.0628905 49.5258 19.136 0.0628905
323 2 51.4432 19.1426 1.67488 51.4432 19.1426 1.67488
324 2 51.411 19.1295 -1.58709 51.411 19.1295 -1.58709
325 1 1.04867 20.7827 0.027794 1.04867 20.7827 0.027794
326 2 2.97664 20.7904 1.62713 2.97664 20.7904 1.62713
327 2 2.92295 20.775 -1.63456 2.92295 20.775 -1.63456
328 1 3.90034 22.4293 -0.0271955 3.90034 22.4293 -0.0271955
329 2 5.83607 22.4383 1.56272 5.83607 22.4383 1.56272
330 2 5.76646 22.4204 -1.69866 5.76646 22.4204 -1.69866
331 1 6.75176 20.7826 -0.0792318 6.75176 20.7826 -0.0792318
332 2 8.692 20.7895 1.50524 8.692 20.7895 1.50524
333 2 8.6131 20.7757 -1.75596 8.6131 20.7757 -1.75596
334 1 9.60294 22.4292 -0.155356 9.60294 22.4292 -0.155356
335 2 11.5426 22.4378 1.4299 11.5426 22.4378 1.4299
336 2 11.4649 22.4206 -1.83132 11.4649 22.4206 -1.83132
337 1 12.4542 20.7825 -0.214623 12.4542 20.7825 -0.214623
338 2 14.3888 20.7899 1.37686 14.3888 20.7899 1.37686
339 2 14.3214 20.7751 -1.8846 14.3214 20.7751 -1.8846
340 1 15.3055 22.4291 -0.280931 15.3055 22.4291 -0.280931
341 2 17.2311 22.4383 1.32155 17.2311 22.4383 1.32155
342 2 17.1822 22.4198 -1.94022 17.1822 22.4198 -1.94022
343 1 18.1573 20.7824 -0.31421 18.1573 20.7824 -0.31421
344 2 20.0704 20.7912 1.30321 20.0704 20.7912 1.30321
345 2 20.0467 20.7735 -1.95885 20.0467 20.7735 -1.95885
346 1 21.0092 22.4289 -0.343614 21.0092 22.4289 -0.343614
347 2 22.9088 22.4394 1.2897 22.9088 22.4394 1.2897
348 2 22.9123 22.4184 -1.97242 22.9123 22.4184 -1.97242
349 1 23.8612 20.7823 -0.329708 23.8612 20.7823 -0.329708
350 2 25.7469 20.7929 1.3197 25.7469 20.7929 1.3197
351 2 25.778 20.7716 -1.94228 25.778 20.7716 -1.94228
352 1 26.7131 22.4289 -0.312917 26.7131 22.4289 -0.312917
353 2 28.5874 22.4405 1.34943 28.5874 22.4405 1.34943
354 2 28.641 22.4172 -1.91223 28.641 22.4172 -1.91223
355 1 29.5646 20.7823 -0.253929 29.5646 20.7823 -0.253929
356 2 31.4305 20.7942 1.41779 31.4305 20.7942 1.41779
357 2 31.5005 20.7704 -1.84356 31.5005 20.7704 -1.84356
358 1 32.416 22.429 -0.204449 32.416 22.429 -0.204449
359 2 34.2781 22.4412 1.47143 34.2781 22.4412 1.47143
360 2 34.3556 22.4168 -1.78975 34.3556 22.4168 -1.78975
361 1 35.2672 20.7824 -0.124227 35.2672 20.7824 -0.124227
362 2 37.1304 20.7944 1.5503 37.1304 20.7944 1.5503
363 2 37.2056 20.7705 -1.71092 37.2056 20.7705 -1.71092
364 1 38.1185 22.4292 -0.0704879 38.1185 22.4292 -0.0704879
365 2 39.9871 22.4411 1.59802 39.9871 22.4411 1.59802
366 2 40.0519 22.4173 -1.66343 40.0519 22.4173 -1.66343
367 1 40.9699 20.7826 -0.00174478 40.9699 20.7826 -0.00174478
368 2 42.8483 20.7935 1.65563 42.8483 20.7935 1.65563
369 2 42.8939 20.7717 -1.60615 42.8939 20.7717 -1.60615
370 1 43.8217 22.4293 0.0269471 43.8217 22.4293 0.0269471
371 2 45.7117 22.4404 1.67106 45.7117 22.4404 1.67106
372 2 45.7344 22.4183 -1.59096 45.7344 22.4183 -1.59096
373 1 46.6737 20.7827 0.0578455 46.6737 20.7827 0.0578455
374 2 48.5775 20.792 1.68593 48.5775 20.792 1.68593
375 2 48.5727 20.7734 -1.57618 48.5727 20.7734 -1.57618
376 1 49.5258 22.4294 0.0440485 49.5258 22.4294 0.0440485
377 2 51.442 22.4393 1.65745 51.442 22.4393 1.65745
378 2 51.4122 22.4195 -1.60453 51.4122 22.4195 -1.60453
379 1 1.04862 24.076 0.007689 1.04862 24.076 0.007689
380 2 2.9757 24.0867 1.60805 2.9757 24.0867 1.60805
381 2 2.92378 24.0654 -1.65365 2.92378 24.0654 -1.65365
382 1 3.90024 25.7226 -0.0487553 3.90024 25.7226 -0.0487553
383 2 5.83534 25.7339 1.5419 5.83534 25.7339 1.5419
384 2 5.767 25.7114 -1.71949 5.767 25.7114 -1.71949
385 1 6.75169 24.0759 -0.0973533 6.75169 24.0759 -0.0973533
386 2 8.69139 24.086 1.48774 8.69139 24.086 1.48774
387 2 8.61359 24.0658 -1.77345 8.61359 24.0658 -1.77345
388 1 9.60284 25.7225 -0.175772 9.60284 25.7225 -0.175772
389 2 11.5421 25.7333 1.40997 11.5421 25.7333 1.40997
390 2 11.4652 25.7117 -1.85124 11.4652 25.7117 -1.85124
391 1 12.4541 24.0758 -0.232107 12.4541 24.0758 -0.232107
392 2 14.3887 24.0857 1.35937 14.3887 24.0857 1.35937
393 2 14.3214 24.0658 -1.90207 14.3214 24.0658 -1.90207
394 1 15.3055 25.7223 -0.301029 15.3055 25.7223 -0.301029
395 2 17.231 25.7327 1.30155 17.231 25.7327 1.30155
396 2 17.1823 25.7118 -1.9602 17.1823 25.7118 -1.9602
397 1 18.1572 24.0756 -0.332923 18.1572 24.0756 -0.332923
398 2 20.0707 24.0859 1.28402 20.0707 24.0859 1.28402
399 2 20.0463 24.0653 -1.97801 20.0463 24.0653 -1.97801
400 1 21.0092 25.7222 -0.364541 21.0092 25.7222 -0.364541
401 2 22.9089 25.7326 1.26864 22.9089 25.7326 1.26864
402 2 22.9122 25.7118 -1.99347 22.9122 25.7118 -1.99347
403 1 23.8612 24.0755 -0.350891 23.8612 24.0755 -0.350891
404 2 25.7473 24.0865 1.29801 25.7473 24.0865 1.29801
405 2 25.7776 24.0645 -1.96396 25.7776 24.0645 -1.96396
406 1 26.7132 25.7221 -0.33526 26.7132 25.7221 -0.33526
407 2 28.5875 25.7326 1.32704 28.5875 25.7326 1.32704
408 2 28.6411 25.7116 -1.93463 28.6411 25.7116 -1.93463
409 1 29.5648 24.0755 -0.277493 29.5648 24.0755 -0.277493
410 2 31.4307 24.0871 1.39411 31.4307 24.0871 1.39411
411 2 31.5006 24.064 -1.86724 31.5006 24.064 -1.86724
412 1 32.4162 25.7222 -0.227864 32.4162 25.7222 -0.227864
413 2 34.2781 25.7329 1.44821 34.2781 25.7329 1.44821
414 2 34.3559 25.7116 -1.81298 34.3559 25.7116 -1.81298
415 1 35.2673 24.0757 -0.148867 35.2673 24.0757 -0.148867
416 2 37.1302 24.0874 1.52608 37.1302 24.0874 1.52608
417 2 37.2061 24.064 -1.73514 37.2061 24.064 -1.73514
418 1 38.1186 25.7224 -0.0942556 38.1186 25.7224 -0.0942556
419 2 39.9868 25.7334 1.57464 39.9868 25.7334 1.57464
420 2 40.0523 25.7114 -1.68682 40.0523 25.7114 -1.68682
421 1 40.97 24.0759 -0.0258507 40.97 24.0759 -0.0258507
422 2 42.8477 24.0875 1.63236 42.8477 24.0875 1.63236
423 2 42.8947 24.0643 -1.6294 42.8947 24.0643 -1.6294
424 1 43.8218 25.7225 0.00342138 43.8218 25.7225 0.00342138
425 2 45.7112 25.7339 1.64809 45.7112 25.7339 1.64809
426 2 45.7349 25.7112 -1.61393 45.7349 25.7112 -1.61393
427 1 46.6737 24.076 0.0354705 46.6737 24.076 0.0354705
428 2 48.5766 24.0872 1.66461 48.5766 24.0872 1.66461
429 2 48.5736 24.0648 -1.59749 48.5736 24.0648 -1.59749
430 1 49.5258 25.7226 0.0213025 49.5258 25.7226 0.0213025
431 2 51.4413 25.7342 1.6354 51.4413 25.7342 1.6354
432 2 51.4128 25.7112 -1.62657 51.4128 25.7112 -1.62657
433 1 1.04853 27.3693 -0.0156064 1.04853 27.3693 -0.0156064
434 2 2.9752 27.381 1.58519 2.9752 27.381 1.58519
435 2 2.92406 27.3576 -1.67651 2.92406 27.3576 -1.67651
436 1 3.90011 29.0159 -0.0724838 3.90011 29.0159 -0.0724838
437 2 5.83487 29.0275 1.51854 5.83487 29.0275 1.51854
438 2 5.76718 29.0042 -1.74287 5.76718 29.0042 -1.74287
439 1 6.75156 27.3692 -0.120173 6.75156 27.3692 -0.120173
440 2 8.69071 27.3807 1.46556 8.69071 27.3807 1.46556
441 2 8.61402 27.3577 -1.79564 8.61402 27.3577 -1.79564
442 1 9.60268 29.0157 -0.199112 9.60268 29.0157 -0.199112
443 2 11.5413 29.0268 1.3874 11.5413 29.0268 1.3874
444 2 11.4658 29.0046 -1.87384 11.4658 29.0046 -1.87384
445 1 12.454 27.369 -0.253982 12.454 27.369 -0.253982
446 2 14.3881 27.3798 1.33808 14.3881 27.3798 1.33808
447 2 14.3218 27.3582 -1.92336 14.3218 27.3582 -1.92336
448 1 15.3054 29.0156 -0.322932 15.3054 29.0156 -0.322932
449 2 17.2301 29.0254 1.28052 17.2301 29.0254 1.28052
450 2 17.183 29.0057 -1.98125 17.183 29.0057 -1.98125
451 1 18.1572 27.3689 -0.354095 18.1572 27.3689 -0.354095
452 2 20.0703 27.3788 1.26325 20.0703 27.3788 1.26325
453 2 20.0466 27.3589 -1.99878 20.0466 27.3589 -1.99878
454 1 21.0092 29.0155 -0.384779 21.0092 29.0155 -0.384779
455 2 22.9082 29.0239 1.24918 22.9082 29.0239 1.24918
456 2 22.9129 29.007 -2.01295 22.9129 29.007 -2.01295
457 1 23.8612 27.3688 -0.371946 23.8612 27.3688 -0.371946
458 2 25.7471 27.3781 1.27723 25.7471 27.3781 1.27723
459 2 25.7779 27.3594 -1.98474 25.7779 27.3594 -1.98474
460 1 26.7132 29.0155 -0.354225 26.7132 29.0155 -0.354225
461 2 28.587 29.0229 1.30863 28.587 29.0229 1.30863
462 2 28.6416 29.008 -1.95306 28.6416 29.008 -1.95306
463 1 29.5649 27.3688 -0.298774 29.5649 27.3688 -0.298774
464 2 31.4306 27.3779 1.37308 31.4306 27.3779 1.37308
465 2 31.5009 27.3597 -1.88829 31.5009 27.3597 -1.88829
466 1 32.4163 29.0155 -0.24631 32.4163 29.0155 -0.24631
467 2 34.278 29.0228 1.42994 34.278 29.0228 1.42994
468 2 34.3561 29.0082 -1.83128 34.3561 29.0082 -1.83128
469 1 35.2674 27.3689 -0.170503 35.2674 27.3689 -0.170503
470 2 37.1302 27.3784 1.50459 37.1302 27.3784 1.50459
471 2 37.2063 27.3595 -1.75666 37.2063 27.3595 -1.75666
472 1 38.1187 29.0156 -0.113391 38.1187 29.0156 -0.113391
473 2 39.9871 29.0239 1.55528 39.9871 29.0239 1.55528
474 2 40.0522 29.0074 -1.70623 40.0522 29.0074 -1.70623
475 1 40.9701 27.3691 -0.0481536 40.9701 27.3691 -0.0481536
476 2 42.8476 27.3794 1.61014 42.8476 27.3794 1.61014
477 2 42.8948 27.3588 -1.65165 42.8948 27.3588 -1.65165
478 1 43.8218 29.0158 -0.0174744 43.8218 29.0158 -0.0174744
479 2 45.7115 29.0256 1.62687 45.7115 29.0256 1.62687
480 2 45.7347 29.006 -1.63519 45.7347 29.006 -1.63519
481 1 46.6737 27.3692 0.0124423 46.6737 27.3692 0.0124423
482 2 48.5764 27.3805 1.64178 48.5764 27.3805 1.64178
483 2 48.5738 27.358 -1.62033 48.5738 27.358 -1.62033
484 1 49.5257 29.0159 -0.00144707 49.5257 29.0159 -0.00144707
485 2 51.4413 29.027 1.61257 51.4413 29.027 1.61257
486 2 51.4126 29.0048 -1.64942 51.4126 29.0048 -1.64942
487 1 1.04842 30.6625 -0.0380934 1.04842 30.6625 -0.0380934
488 2 2.97521 30.6733 1.56253 2.97521 30.6733 1.56253
489 2 2.92378 30.6517 -1.69919 2.92378 30.6517 -1.69919
490 1 3.89994 32.3091 -0.0943033 3.89994 32.3091 -0.0943033
491 2 5.83473 32.3191 1.49667 5.83473 32.3191 1.49667
492 2 5.76696 32.2991 -1.76475 5.76696 32.2991 -1.76475
493 1 6.75138 30.6624 -0.143731 6.75138 30.6624 -0.143731
494 2 8.69009 30.6734 1.44252 8.69009 30.6734 1.44252
495 2 8.61429 30.6514 -1.81871 8.61429 30.6514 -1.81871
496 1 9.60249 32.309 -0.221382 9.60249 32.309 -0.221382
497 2 11.5404 32.3186 1.366 11.5404 32.3186 1.366
498 2 11.4663 32.2994 -1.89529 11.4663 32.2994 -1.89529
499 1 12.4538 30.6623 -0.276547 12.4538 30.6623 -0.276547
500 2 14.3871 30.6721 1.31659 14.3871 30.6721 1.31659
501 2 14.3226 30.6524 -1.94489 14.3226 30.6524 -1.94489
502 1 15.3053 32.3089 -0.342997 15.3053 32.3089 -0.342997
503 2 17.2288 32.3165 1.26197 17.2288 32.3165 1.26197
504 2 17.1842 32.3012 -1.99985 17.1842 32.3012 -1.99985
505 1 18.1571 30.6621 -0.374144 18.1571 30.6621 -0.374144
506 2 20.0692 30.6701 1.24446 20.0692 30.6701 1.24446
507 2 20.0477 30.6542 -2.01759 20.0477 30.6542 -2.01759
508 1 21.0091 32.3088 -0.400898 21.0091 32.3088 -0.400898
509 2 22.9068 32.3139 1.23466 22.9068 32.3139 1.23466
510 2 22.9142 32.3037 -2.02748 22.9142 32.3037 -2.02748
511 1 23.8612 30.6621 -0.389083 23.8612 30.6621 -0.389083
512 2 25.7462 30.6681 1.26114 25.7462 30.6681 1.26114
513 2 25.7789 30.6561 -2.00084 25.7789 30.6561 -2.00084
514 1 26.7132 32.3088 -0.366398 26.7132 32.3088 -0.366398
515 2 28.5861 32.3119 1.29749 28.5861 32.3119 1.29749
516 2 28.6425 32.3058 -1.96418 28.6425 32.3058 -1.96418
517 1 29.5649 30.6622 -0.313805 29.5649 30.6622 -0.313805
518 2 31.4302 30.6672 1.35853 31.4302 30.6672 1.35853
519 2 31.5014 30.6571 -1.90285 31.5014 30.6571 -1.90285
520 1 32.4162 32.3089 -0.256495 32.4162 32.3089 -0.256495
521 2 34.2779 32.3116 1.4198 34.2779 32.3116 1.4198
522 2 34.3561 32.3061 -1.84144 34.3561 32.3061 -1.84144
523 1 35.2675 30.6622 -0.185294 35.2675 30.6622 -0.185294
524 2 37.1304 30.6678 1.48955 37.1304 30.6678 1.48955
525 2 37.2062 30.6566 -1.77174 37.2062 30.6566 -1.77174
526 1 38.1187 32.3089 -0.124649 38.1187 32.3089 -0.124649
527 2 39.9878 32.3131 1.5432 39.9878 32.3131 1.5432
528 2 40.0515 32.3048 -1.71837 40.0515 32.3048 -1.71837
529 1 40.9701 30.6623 -0.0648757 40.9701 30.6623 -0.0648757
530 2 42.8483 30.6697 1.59271 42.8483 30.6697 1.59271
531 2 42.8942 30.655 -1.66914 42.8942 30.655 -1.66914
532 1 43.8218 32.309 -0.0322525 43.8218 32.309 -0.0322525
533 2 45.7125 32.3156 1.61095 45.7125 32.3156 1.61095
534 2 45.7337 32.3024 -1.65116 45.7337 32.3024 -1.65116
535 1 46.6737 30.6624 -0.00736718 46.6737 30.6624 -0.00736718
536 2 48.5769 30.6718 1.62131 48.5769 30.6718 1.62131
537 2 48.5732 30.6531 -1.64084 48.5732 30.6531 -1.64084