ITEM: TIMESTEP
39000
ITEM: NUMBER OF ATOMS
810
ITEM: BOX BOUNDS pp pp pp
8.5206412130765730e-01 5.2165540878691296e+01
8.0912800463213874e-01 5.0207086995367888e+01
-1.0000000000000000e+01 1.0000000000000000e+01
ITEM: ATOMS id type x y z xu yu zu
1 1 1.05736 1.02328 0.103071 1.05736 1.02328 0.103071
2 2 3.00855 1.01727 1.67371 3.00855 1.01727 1.67371
3 2 2.90696 1.02933 -1.58687 2.90696 1.02933 -1.58687
4 1 3.908 2.66995 0.0198282 3.908 2.66995 0.0198282
5 2 5.8713 2.66473 1.57537 5.8713 2.66473 1.57537
6 2 5.74444 2.67521 -1.68433 5.74444 2.67521 -1.68433
7 1 6.75773 1.02343 -0.0968723 6.75773 1.02343 -0.0968723
8 2 8.7249 1.01876 1.45386 8.7249 1.01876 1.45386
9 2 8.58986 1.02813 -1.80551 8.58986 1.02813 -1.80551
10 1 9.60724 2.6701 -0.210485 9.60724 2.6701 -0.210485
11 2 11.5714 2.66637 1.34415 11.5714 2.66637 1.34415
12 2 11.4426 2.67383 -1.91548 11.4426 2.67383 -1.91548
13 1 12.4569 1.02355 -0.32703 12.4569 1.02355 -0.32703
14 2 14.4099 1.02016 1.24186 14.4099 1.02016 1.24186
15 2 14.3046 1.02695 -2.01862 14.3046 1.02695 -2.01862
16 1 15.3074 2.67018 -0.415631 15.3074 2.67018 -0.415631
17 2 17.2437 2.66742 1.17396 17.2437 2.66742 1.17396
18 2 17.1729 2.67294 -2.08745 17.1729 2.67294 -2.08745
19 1 18.1588 1.02361 -0.48016 18.1588 1.02361 -0.48016
20 2 20.0736 1.02072 1.13543 20.0736 1.02072 1.13543
21 2 20.0465 1.0265 -2.12663 20.0465 1.0265 -2.12663
22 1 21.0107 2.67021 -0.500475 21.0107 2.67021 -0.500475
23 2 22.9022 2.66742 1.14242 22.9022 2.66742 1.14242
24 2 22.9218 2.67302 -2.1197 22.9218 2.67302 -2.1197
25 1 23.8627 1.02363 -0.485655 23.8627 1.02363 -0.485655
26 2 25.7317 1.02021 1.1828 25.7317 1.02021 1.1828
27 2 25.7956 1.02706 -2.07875 25.7956 1.02706 -2.07875
28 1 26.7141 2.67022 -0.42578 26.7141 2.67022 -0.42578
29 2 28.5638 2.6664 1.26404 28.5638 2.6664 1.26404
30 2 28.6652 2.67404 -1.99656 28.6652 2.67404 -1.99656
31 1 29.5647 1.0236 -0.340458 29.5647 1.0236 -0.340458
32 2 31.4017 1.01893 1.3631 31.4017 1.01893 1.3631
33 2 31.5275 1.02826 -1.89664 31.5275 1.02826 -1.89664
34 1 32.4145 2.67015 -0.225296 32.4145 2.67015 -0.225296
35 2 34.246 2.66493 1.48404 34.246 2.66493 1.48404
36 2 34.3822 2.67536 -1.77528 34.3822 2.67536 -1.77528
37 1 35.264 1.02349 -0.111107 35.264 1.02349 -0.111107
38 2 37.0993 1.0176 1.59396 37.0993 1.0176 1.59396
39 2 37.2282 1.02933 -1.66566 37.2282 1.02933 -1.66566
40 1 38.1136 2.67001 0.00769127 38.1136 2.67001 0.00769127
41 2 39.9606 2.66371 1.70005 39.9606 2.66371 1.70005
42 2 40.0673 2.67625 -1.56035 40.0673 2.67625 -1.56035
43 1 40.9642 1.02332 0.0946068 40.9642 1.02332 0.0946068
44 2 42.8296 1.01671 1.76636 42.8296 1.01671 1.76636
45 2 42.9004 1.0299 -1.49502 42.9004 1.0299 -1.49502
46 1 43.8155 2.66986 0.16294 43.8155 2.66986 0.16294
47 2 45.7034 2.66308 1.80919 45.7034 2.66308 1.80919
48 2 45.7301 2.67661 -1.45284 45.7301 2.67661 -1.45284
49 1 46.6674 1.02323 0.179023 46.6674 1.02323 0.179023
50 2 48.579 1.01649 1.79771 48.579 1.01649 1.79771
51 2 48.5585 1.02997 -1.46437 48.5585 1.02997 -1.46437
52 1 49.5194 2.66983 0.16743 49.5194 2.66983 0.16743
53 2 51.4531 2.6634 1.75956 51.4531 2.6634 1.75956
54 2 51.3877 2.6763 -1.50193 51.3877 2.6763 -1.50193
55 1 1.05747 4.31648 0.116165 1.05747 4.31648 0.116165
56 2 3.00944 4.31097 1.68588 3.00944 4.31097 1.68588
57 2 2.9063 4.32204 -1.57464 2.9063 4.32204 -1.57464
58 1 3.90812 5.96315 0.0310773 3.90812 5.96315 0.0310773
59 2 5.87237 5.95903 1.58545 5.87237 5.95903 1.58545
60 2 5.74357 5.96733 -1.67417 5.74357 5.96733 -1.67417
61 1 6.75785 4.31662 -0.0862148 6.75785 4.31662 -0.0862148
62 2 8.72601 4.31261 1.46328 8.72601 4.31261 1.46328
63 2 8.58892 4.32067 -1.79601 8.58892 4.32067 -1.79601
64 1 9.60732 5.96328 -0.202276 9.60732 5.96328 -0.202276
65 2 11.5724 5.96057 1.35123 11.5724 5.96057 1.35123
66 2 11.4417 5.96601 -1.90833 11.4417 5.96601 -1.90833
67 1 12.457 4.31674 -0.31944 12.457 4.31674 -0.31944
68 2 14.4107 4.31401 1.24851 14.4107 4.31401 1.24851
69 2 14.3038 4.31946 -2.01192 14.3038 4.31946 -2.01192
70 1 15.3074 5.96335 -0.410093 15.3074 5.96335 -0.410093
71 2 17.2442 5.96149 1.17891 17.2442 5.96149 1.17891
72 2 17.1723 5.9652 -2.08248 17.1723 5.9652 -2.08248
73 1 18.1588 4.31679 -0.47457 18.1588 4.31679 -0.47457
74 2 20.0738 4.31453 1.14077 20.0738 4.31453 1.14077
75 2 20.0463 4.31904 -2.1213 20.0463 4.31904 -2.1213
76 1 21.0107 5.96337 -0.495918 21.0107 5.96337 -0.495918
77 2 22.9021 5.96148 1.1471 22.9021 5.96148 1.1471
78 2 22.9219 5.96528 -2.11503 22.9219 5.96528 -2.11503
79 1 23.8627 4.3168 -0.480003 23.8627 4.3168 -0.480003
80 2 25.7313 4.31399 1.18888 25.7313 4.31399 1.18888
81 2 25.7959 4.31963 -2.07266 25.7959 4.31963 -2.07266
82 1 26.7141 5.96338 -0.420093 26.7141 5.96338 -0.420093
83 2 28.5632 5.96053 1.27041 28.5632 5.96053 1.27041
84 2 28.6657 5.96625 -1.99016 28.6657 5.96625 -1.99016
85 1 29.5647 4.31679 -0.33275 29.5647 4.31679 -0.33275
86 2 31.401 4.31265 1.37157 31.401 4.31265 1.37157
87 2 31.5281 4.32092 -1.88813 31.5281 4.32092 -1.88813
88 1 32.4144 5.96334 -0.216949 32.4144 5.96334 -0.216949
89 2 34.2452 5.95911 1.49315 34.2452 5.95911 1.49315
90 2 34.3828 5.96755 -1.76612 34.3828 5.96755 -1.76612
91 1 35.2639 4.31668 -0.100567 35.2639 4.31668 -0.100567
92 2 37.0987 4.3112 1.60508 37.0987 4.3112 1.60508
93 2 37.2286 4.32213 -1.65449 37.2286 4.32213 -1.65449
94 1 38.1135 5.96321 0.0187406 38.1135 5.96321 0.0187406
95 2 39.96 5.95784 1.71156 39.96 5.95784 1.71156
96 2 40.0675 5.96854 -1.54882 40.0675 5.96854 -1.54882
97 1 40.964 4.31653 0.107297 40.964 4.31653 0.107297
98 2 42.8293 4.31021 1.77928 42.8293 4.31021 1.77928
99 2 42.9005 4.3228 -1.48208 42.9005 4.3228 -1.48208
100 1 43.8154 5.96308 0.175681 43.8154 5.96308 0.175681
101 2 45.7034 5.95722 1.82195 45.7034 5.95722 1.82195
102 2 45.7301 5.96891 -1.44008 45.7301 5.96891 -1.44008
103 1 46.6674 4.31643 0.192729 46.6674 4.31643 0.192729
104 2 48.5792 4.31004 1.81115 48.5792 4.31004 1.81115
105 2 48.5583 4.32283 -1.45092 48.5583 4.32283 -1.45092
106 1 49.5195 5.96305 0.180409 49.5195 5.96305 0.180409
107 2 51.4538 5.95765 1.7719 51.4538 5.95765 1.7719
108 2 51.3872 5.96849 -1.48956 51.3872 5.96849 -1.48956
109 1 1.05756 7.60971 0.127178 1.05756 7.60971 0.127178
110 2 3.01032 7.60578 1.69595 3.01032 7.60578 1.69595
111 2 2.90561 7.61368 -1.56452 2.90561 7.61368 -1.56452
112 1 3.90821 9.25638 0.0391134 3.90821 9.25638 0.0391134
113 2 5.8733 9.25412 1.59246 5.8733 9.25412 1.59246
114 2 5.74279 9.25868 -1.66709 5.74279 9.25868 -1.66709
115 1 6.75794 7.60982 -0.0777666 6.75794 7.60982 -0.0777666
116 2 8.72703 7.60722 1.47057 8.72703 7.60722 1.47057
117 2 8.58802 7.61246 -1.78864 8.58802 7.61246 -1.78864
118 1 9.60736 9.25646 -0.196941 9.60736 9.25646 -0.196941
119 2 11.5732 9.25525 1.35565 11.5732 9.25525 1.35565
120 2 11.441 9.25768 -1.90385 11.441 9.25768 -1.90385
121 1 12.457 7.60991 -0.313902 12.457 7.60991 -0.313902
122 2 14.4114 7.60836 1.25323 14.4114 7.60836 1.25323
123 2 14.3031 7.61145 -2.00716 14.3031 7.61145 -2.00716
124 1 15.3074 9.2565 -0.406938 15.3074 9.2565 -0.406938
125 2 17.2446 9.2559 1.18162 17.2446 9.2559 1.18162
126 2 17.172 9.2571 -2.07976 17.172 9.2571 -2.07976
127 1 18.1588 7.60994 -0.470806 18.1588 7.60994 -0.470806
128 2 20.0739 7.60876 1.14433 20.0739 7.60876 1.14433
129 2 20.0461 7.61111 -2.11774 20.0461 7.61111 -2.11774
130 1 21.0107 9.25651 -0.493542 21.0107 9.25651 -0.493542
131 2 22.902 9.25585 1.14962 22.902 9.25585 1.14962
132 2 22.922 9.25719 -2.11251 22.922 9.25719 -2.11251
133 1 23.8627 7.60995 -0.476166 23.8627 7.60995 -0.476166
134 2 25.7309 7.60831 1.19316 25.7309 7.60831 1.19316
135 2 25.7963 7.61162 -2.06837 25.7963 7.61162 -2.06837
136 1 26.7141 9.25653 -0.416763 26.7141 9.25653 -0.416763
137 2 28.5627 9.25515 1.27435 28.5627 9.25515 1.27435
138 2 28.6662 9.25792 -1.9862 28.6662 9.25792 -1.9862
139 1 29.5646 7.60995 -0.326989 29.5646 7.60995 -0.326989
140 2 31.4002 7.60719 1.3781 31.4002 7.60719 1.3781
141 2 31.5287 7.61271 -1.88155 31.5287 7.61271 -1.88155
142 1 32.4143 9.25651 -0.21138 32.4143 9.25651 -0.21138
143 2 34.2445 9.25408 1.49944 34.2445 9.25408 1.49944
144 2 34.3833 9.25892 -1.75978 34.3833 9.25892 -1.75978
145 1 35.2637 7.60988 -0.0920444 35.2637 7.60988 -0.0920444
146 2 37.098 7.60586 1.61427 37.098 7.60586 1.61427
147 2 37.2291 7.61385 -1.64525 37.2291 7.61385 -1.64525
148 1 38.1134 9.25642 0.0268125 38.1134 9.25642 0.0268125
149 2 39.9595 9.253 1.72014 39.9595 9.253 1.72014
150 2 40.0679 9.25981 -1.54021 40.0679 9.25981 -1.54021
151 1 40.9639 7.60975 0.118123 40.9639 7.60975 0.118123
152 2 42.829 7.60491 1.79038 42.829 7.60491 1.79038
153 2 42.9007 7.61455 -1.47097 42.9007 7.61455 -1.47097
154 1 43.8153 9.25633 0.185448 43.8153 9.25633 0.185448
155 2 45.7033 9.2525 1.83173 45.7033 9.2525 1.83173
156 2 45.73 9.26014 -1.4303 45.73 9.26014 -1.4303
157 1 46.6674 7.60967 0.204571 46.6674 7.60967 0.204571
158 2 48.5795 7.60483 1.8227 48.5795 7.60483 1.8227
159 2 48.5581 7.61452 -1.43937 48.5581 7.61452 -1.43937
160 1 49.5195 9.25631 0.19024 49.5195 9.25631 0.19024
161 2 51.4544 9.25297 1.78111 51.4544 9.25297 1.78111
162 2 51.3867 9.25967 -1.48033 51.3867 9.25967 -1.48033
163 1 1.05763 10.903 0.133987 1.05763 10.903 0.133987
164 2 3.01103 10.9014 1.70198 3.01103 10.9014 1.70198
165 2 2.90502 10.9046 -1.55845 2.90502 10.9046 -1.55845
166 1 3.90825 12.5496 0.0424103 3.90825 12.5496 0.0424103
167 2 5.87388 12.5496 1.59508 5.87388 12.5496 1.59508
168 2 5.74225 12.5496 -1.66443 5.74225 12.5496 -1.66443
169 1 6.75799 10.903 -0.0731197 6.75799 10.903 -0.0731197
170 2 8.72776 10.9023 1.47436 8.72776 10.9023 1.47436
171 2 8.58734 10.9038 -1.78479 8.58734 10.9038 -1.78479
172 1 9.60736 12.5496 -0.195461 9.60736 12.5496 -0.195461
173 2 11.5737 12.5502 1.35658 11.5737 12.5502 1.35658
174 2 11.4405 12.5491 -1.90289 11.4405 12.5491 -1.90289
175 1 12.457 10.9031 -0.311421 12.457 10.9031 -0.311421
176 2 14.4119 10.903 1.25514 14.4119 10.903 1.25514
177 2 14.3026 10.9031 -2.00522 14.3026 10.9031 -2.00522
178 1 15.3074 12.5496 -0.406811 15.3074 12.5496 -0.406811
179 2 17.2448 12.5505 1.18149 17.2448 12.5505 1.18149
180 2 17.1717 12.5488 -2.07988 17.1717 12.5488 -2.07988
181 1 18.1587 10.9031 -0.469585 18.1587 10.9031 -0.469585
182 2 20.074 10.9032 1.14544 20.074 10.9032 1.14544
183 2 20.046 10.9029 -2.11663 20.046 10.9029 -2.11663
184 1 21.0107 12.5496 -0.493815 21.0107 12.5496 -0.493815
185 2 22.9018 12.5503 1.1495 22.9018 12.5503 1.1495
186 2 22.9221 12.549 -2.11262 22.9221 12.549 -2.11262
187 1 23.8627 10.9031 -0.474831 23.8627 10.9031 -0.474831
188 2 25.7306 10.9029 1.19487 25.7306 10.9029 1.19487
189 2 25.7966 10.9033 -2.06666 25.7966 10.9033 -2.06666
190 1 26.7141 12.5497 -0.416298 26.7141 12.5497 -0.416298
191 2 28.5623 12.5499 1.27522 28.5623 12.5499 1.27522
192 2 28.6666 12.5494 -1.9853 28.6666 12.5494 -1.9853
193 1 29.5646 10.9031 -0.324213 29.5646 10.9031 -0.324213
194 2 31.3997 10.9022 1.38148 31.3997 10.9022 1.38148
195 2 31.5292 10.904 -1.87813 31.5292 10.904 -1.87813
196 1 32.4143 12.5497 -0.209525 32.4143 12.5497 -0.209525
197 2 34.244 12.5495 1.50179 34.244 12.5495 1.50179
198 2 34.3837 12.5498 -1.7574 34.3837 12.5498 -1.7574
199 1 35.2637 10.9031 -0.0871693 35.2637 10.9031 -0.0871693
200 2 37.0974 10.9013 1.61975 37.0974 10.9013 1.61975
201 2 37.2295 10.9048 -1.63974 37.2295 10.9048 -1.63974
202 1 38.1133 12.5496 0.0303547 38.1133 12.5496 0.0303547
203 2 39.9591 12.5489 1.72411 39.9591 12.5489 1.72411
204 2 40.0682 12.5504 -1.53622 40.0682 12.5504 -1.53622
205 1 40.9639 10.903 0.125012 40.9639 10.903 0.125012
206 2 42.8287 10.9006 1.79755 42.8287 10.9006 1.79755
207 2 42.9008 10.9054 -1.46379 42.9008 10.9054 -1.46379
208 1 43.8153 12.5496 0.190322 43.8153 12.5496 0.190322
209 2 45.7033 12.5486 1.83662 45.7033 12.5486 1.83662
210 2 45.73 12.5506 -1.42541 45.73 12.5506 -1.42541
211 1 46.6674 10.9029 0.212315 46.6674 10.9029 0.212315
212 2 48.5798 10.9006 1.83015 48.5798 10.9006 1.83015
213 2 48.5578 10.9053 -1.43192 48.5578 10.9053 -1.43192
214 1 49.5196 12.5496 0.195019 49.5196 12.5496 0.195019
215 2 51.4548 12.549 1.7854 51.4548 12.549 1.7854
216 2 51.3864 12.5502 -1.47603 51.3864 12.5502 -1.47603
217 1 1.05765 14.1962 0.135284 1.05765 14.1962 0.135284
218 2 3.01142 14.1972 1.70282 3.01142 14.1972 1.70282
219 2 2.90465 14.1952 -1.55759 2.90465 14.1952 -1.55759
220 1 3.90823 15.8428 0.0403745 3.90823 15.8428 0.0403745
221 2 5.87404 15.8452 1.59282 5.87404 15.8452 1.59282
222 2 5.74204 15.8405 -1.66668 5.74204 15.8405 -1.66668
223 1 6.75799 14.1962 -0.0731396 6.75799 14.1962 -0.0731396
224 2 8.72809 14.1976 1.47393 8.72809 14.1976 1.47393
225 2 8.58698 14.1949 -1.78519 8.58698 14.1949 -1.78519
226 1 9.60732 15.8428 -0.198188 9.60732 15.8428 -0.198188
227 2 11.5737 15.8451 1.35371 11.5737 15.8451 1.35371
228 2 11.4404 15.8405 -1.90574 11.4404 15.8405 -1.90574
229 1 12.457 14.1962 -0.31255 12.457 14.1962 -0.31255
230 2 14.4121 14.1978 1.25375 14.4121 14.1978 1.25375
231 2 14.3024 14.1947 -2.00659 14.3024 14.1947 -2.00659
232 1 15.3074 15.8428 -0.409952 15.3074 15.8428 -0.409952
233 2 17.2447 15.845 1.17837 17.2447 15.845 1.17837
234 2 17.1717 15.8405 -2.08299 17.1717 15.8405 -2.08299
235 1 18.1587 14.1962 -0.471289 18.1587 14.1962 -0.471289
236 2 20.074 14.1977 1.14378 20.074 14.1977 1.14378
237 2 20.046 14.1947 -2.11829 20.046 14.1947 -2.11829
238 1 21.0107 15.8428 -0.49683 21.0107 15.8428 -0.49683
239 2 22.9017 15.8447 1.14671 22.9017 15.8447 1.14671
240 2 22.9223 15.8408 -2.11541 22.9223 15.8408 -2.11541
241 1 23.8627 14.1962 -0.476234 23.8627 14.1962 -0.476234
242 2 25.7304 14.1974 1.19373 25.7304 14.1974 1.19373
243 2 25.7968 14.195 -2.06778 25.7968 14.195 -2.06778
244 1 26.7141 15.8428 -0.418749 26.7141 15.8428 -0.418749
245 2 28.5622 15.8447 1.27294 28.5622 15.8447 1.27294
246 2 28.6668 15.8409 -1.98757 28.6668 15.8409 -1.98757
247 1 29.5646 14.1962 -0.324795 29.5646 14.1962 -0.324795
248 2 31.3994 14.1973 1.38119 31.3994 14.1973 1.38119
249 2 31.5294 14.1952 -1.8784 31.5294 14.1952 -1.8784
250 1 32.4143 15.8428 -0.211641 32.4143 15.8428 -0.211641
251 2 34.2439 15.8449 1.49979 34.2439 15.8449 1.49979
252 2 34.3839 15.8407 -1.75938 34.3839 15.8407 -1.75938
253 1 35.2637 14.1962 -0.0868078 35.2637 14.1962 -0.0868078
254 2 37.097 14.1971 1.62046 37.097 14.1971 1.62046
255 2 37.2298 14.1954 -1.63901 37.2298 14.1954 -1.63901
256 1 38.1134 15.8429 0.0286189 38.1134 15.8429 0.0286189
257 2 39.9589 15.845 1.72259 39.9589 15.845 1.72259
258 2 40.0684 15.8407 -1.53772 40.0684 15.8407 -1.53772
259 1 40.9638 14.1962 0.126529 40.9638 14.1962 0.126529
260 2 42.8285 14.1968 1.7993 42.8285 14.1968 1.7993
261 2 42.901 14.1957 -1.46204 42.901 14.1957 -1.46204
262 1 43.8153 15.8429 0.189185 43.8153 15.8429 0.189185
263 2 45.7033 15.8449 1.83554 45.7033 15.8449 1.83554
264 2 45.7301 15.8408 -1.42648 45.7301 15.8408 -1.42648
265 1 46.6674 14.1962 0.214369 46.6674 14.1962 0.214369
266 2 48.58 14.1968 1.83201 48.58 14.1968 1.83201
267 2 48.5577 14.1956 -1.43005 48.5577 14.1956 -1.43005
268 1 49.5196 15.8429 0.193773 49.5196 15.8429 0.193773
269 2 51.455 15.845 1.78394 51.455 15.845 1.78394
270 2 51.3862 15.8407 -1.47748 51.3862 15.8407 -1.47748
271 1 1.05762 17.4895 0.130863 1.05762 17.4895 0.130863
272 2 3.01141 17.4929 1.69836 3.01141 17.4929 1.69836
273 2 2.90459 17.4861 -1.56204 2.90459 17.4861 -1.56204
274 1 3.90816 19.1361 0.0334596 3.90816 19.1361 0.0334596
275 2 5.87378 19.1402 1.58612 5.87378 19.1402 1.58612
276 2 5.74215 19.1319 -1.67338 5.74215 19.1319 -1.67338
277 1 6.75793 17.4894 -0.0778492 6.75793 17.4894 -0.0778492
278 2 8.72799 17.4926 1.46927 8.72799 17.4926 1.46927
279 2 8.58697 17.4862 -1.78985 8.58697 17.4862 -1.78985
280 1 9.60724 19.136 -0.204727 9.60724 19.136 -0.204727
281 2 11.5734 19.1396 1.34747 11.5734 19.1396 1.34747
282 2 11.4406 19.1323 -1.912 11.4406 19.1323 -1.912
283 1 12.4569 17.4893 -0.317276 12.4569 17.4893 -0.317276
284 2 14.4119 17.4923 1.24913 14.4119 17.4923 1.24913
285 2 14.3024 17.4864 -2.01121 14.3024 17.4864 -2.01121
286 1 15.3073 19.1359 -0.415927 15.3073 19.1359 -0.415927
287 2 17.2444 19.1391 1.17274 17.2444 19.1391 1.17274
288 2 17.172 19.1327 -2.08863 17.172 19.1327 -2.08863
289 1 18.1587 17.4893 -0.475803 18.1587 17.4893 -0.475803
290 2 20.0738 17.4919 1.13951 20.0738 17.4919 1.13951
291 2 20.0462 17.4867 -2.12255 20.0462 17.4867 -2.12255
292 1 21.0107 19.1359 -0.502092 21.0107 19.1359 -0.502092
293 2 22.9014 19.1387 1.14172 22.9014 19.1387 1.14172
294 2 22.9226 19.1331 -2.12039 22.9226 19.1331 -2.12039
295 1 23.8627 17.4893 -0.480192 23.8627 17.4893 -0.480192
296 2 25.7303 17.4918 1.18995 25.7303 17.4918 1.18995
297 2 25.797 17.4869 -2.07155 25.797 17.4869 -2.07155
298 1 26.7141 19.1359 -0.423676 26.7141 19.1359 -0.423676
299 2 28.5623 19.139 1.26794 28.5623 19.139 1.26794
300 2 28.6667 19.1328 -1.99256 28.6667 19.1328 -1.99256
301 1 29.5647 17.4894 -0.328598 29.5647 17.4894 -0.328598
302 2 31.3995 17.4922 1.37733 31.3995 17.4922 1.37733
303 2 31.5294 17.4866 -1.88226 31.5294 17.4866 -1.88226
304 1 32.4144 19.136 -0.217297 32.4144 19.136 -0.217297
305 2 34.2442 19.1399 1.49387 34.2442 19.1399 1.49387
306 2 34.3837 19.1321 -1.76532 34.3837 19.1321 -1.76532
307 1 35.2637 17.4894 -0.0910273 35.2637 17.4894 -0.0910273
308 2 37.0971 17.4927 1.61623 37.0971 17.4927 1.61623
309 2 37.2299 17.4861 -1.64322 37.2299 17.4861 -1.64322
310 1 38.1134 19.1361 0.0219121 38.1134 19.1361 0.0219121
311 2 39.959 19.1406 1.71586 39.959 19.1406 1.71586
312 2 40.0685 19.1315 -1.54445 40.0685 19.1315 -1.54445
313 1 40.9639 17.4895 0.122232 40.9639 17.4895 0.122232
314 2 42.8284 17.4929 1.79515 42.8284 17.4929 1.79515
315 2 42.9012 17.486 -1.46618 42.9012 17.486 -1.46618
316 1 43.8153 19.1361 0.182177 43.8153 19.1361 0.182177
317 2 45.7031 19.1408 1.82868 45.7031 19.1408 1.82868
318 2 45.7303 19.1315 -1.43334 45.7303 19.1315 -1.43334
319 1 46.6674 17.4895 0.210224 46.6674 17.4895 0.210224
320 2 48.5799 17.4929 1.82789 48.5799 17.4929 1.82789
321 2 48.5577 17.4861 -1.43417 48.5577 17.4861 -1.43417
322 1 49.5195 19.1361 0.186793 49.5195 19.1361 0.186793
323 2 51.4548 19.1406 1.7771 51.4548 19.1406 1.7771
324 2 51.3863 19.1316 -1.48432 51.3863 19.1316 -1.48432
325 1 1.05755 20.7827 0.121747 1.05755 20.7827 0.121747
326 2 3.01103 20.7878 1.6896 3.01103 20.7878 1.6896
327 2 2.90481 20.7776 -1.57082 2.90481 20.7776 -1.57082
328 1 3.90806 22.4293 0.0231657 3.90806 22.4293 0.0231657
329 2 5.8732 22.4344 1.5764 5.8732 22.4344 1.5764
330 2 5.74253 22.4241 -1.68314 5.74253 22.4241 -1.68314
331 1 6.75783 20.7826 -0.0863277 6.75783 20.7826 -0.0863277
332 2 8.7275 20.787 1.46126 8.7275 20.787 1.46126
333 2 8.58728 20.7781 -1.79789 8.58728 20.7781 -1.79789
334 1 9.60714 22.4291 -0.213775 9.60714 22.4291 -0.213775
335 2 11.5727 22.4334 1.33911 11.5727 22.4334 1.33911
336 2 11.4411 22.4249 -1.9204 11.4411 22.4249 -1.9204
337 1 12.4569 20.7825 -0.324764 12.4569 20.7825 -0.324764
338 2 14.4114 20.7862 1.24215 14.4114 20.7862 1.24215
339 2 14.3028 20.7788 -2.01821 14.3028 20.7788 -2.01821
340 1 15.3073 22.4291 -0.423449 15.3073 22.4291 -0.423449
341 2 17.2439 22.4324 1.16582 17.2439 22.4324 1.16582
342 2 17.1725 22.4257 -2.09557 17.1725 22.4257 -2.09557
343 1 18.1587 20.7825 -0.482231 18.1587 20.7825 -0.482231
344 2 20.0734 20.7856 1.1335 20.0734 20.7856 1.1335
345 2 20.0466 20.7794 -2.12856 20.0466 20.7794 -2.12856
346 1 21.0107 22.4291 -0.50843 21.0107 22.4291 -0.50843
347 2 22.9012 22.4321 1.13561 22.9012 22.4321 1.13561
348 2 22.9228 22.426 -2.12648 22.9228 22.426 -2.12648
349 1 23.8627 20.7825 -0.485922 23.8627 20.7825 -0.485922
350 2 25.7302 20.7856 1.18426 25.7302 20.7856 1.18426
351 2 25.7971 20.7793 -2.07722 25.7971 20.7793 -2.07722
352 1 26.7142 22.4291 -0.430059 26.7142 22.4291 -0.430059
353 2 28.5626 22.4328 1.26125 28.5626 22.4328 1.26125
354 2 28.6665 22.4254 -1.99926 28.6665 22.4254 -1.99926
355 1 29.5647 20.7825 -0.334859 29.5647 20.7825 -0.334859
356 2 31.3999 20.7865 1.3707 31.3999 20.7865 1.3707
357 2 31.5292 20.7785 -1.88891 31.5292 20.7785 -1.88891
358 1 32.4145 22.4291 -0.22531 32.4145 22.4291 -0.22531
359 2 34.2448 22.434 1.48528 34.2448 22.434 1.48528
360 2 34.3833 22.4242 -1.77394 34.3833 22.4242 -1.77394
361 1 35.2638 20.7826 -0.0989334 35.2638 20.7826 -0.0989334
362 2 37.0975 20.7876 1.60798 37.0975 20.7876 1.60798
363 2 37.2297 20.7776 -1.6515 37.2297 20.7776 -1.6515
364 1 38.1136 22.4292 0.0117173 38.1136 22.4292 0.0117173
365 2 39.9593 22.4352 1.70538 39.9593 22.4352 1.70538
366 2 40.0683 22.4233 -1.55495 40.0683 22.4233 -1.55495
367 1 40.964 20.7827 0.113022 40.964 20.7827 0.113022
368 2 42.8284 20.7883 1.78598 42.8284 20.7883 1.78598
369 2 42.9013 20.7771 -1.47535 42.9013 20.7771 -1.47535
370 1 43.8154 22.4294 0.170878 43.8154 22.4294 0.170878
371 2 45.703 22.4355 1.81759 45.703 22.4355 1.81759
372 2 45.7305 22.4232 -1.44443 45.7305 22.4232 -1.44443
373 1 46.6674 20.7828 0.200797 46.6674 20.7828 0.200797
374 2 48.5797 20.7882 1.81872 48.5797 20.7882 1.81872
375 2 48.5579 20.7773 -1.44334 48.5579 20.7773 -1.44334
376 1 49.5195 22.4294 0.175695 49.5195 22.4294 0.175695
377 2 51.4544 22.4352 1.76644 51.4544 22.4352 1.76644
378 2 51.3866 22.4235 -1.495 51.3866 22.4235 -1.495
379 1 1.05746 24.0759 0.109955 1.05746 24.0759 0.109955
380 2 3.01042 24.0816 1.67842 3.01042 24.0816 1.67842
381 2 2.90523 24.0702 -1.58204 2.90523 24.0702 -1.58204
382 1 3.90794 25.7224 0.011657 3.90794 25.7224 0.011657
383 2 5.87243 25.7275 1.56568 5.87243 25.7275 1.56568
384 2 5.74309 25.7174 -1.69392 5.74309 25.7174 -1.69392
385 1 6.75771 24.0758 -0.0967852 6.75771 24.0758 -0.0967852
386 2 8.72674 24.0805 1.45159 8.72674 24.0805 1.45159
387 2 8.58784 24.071 -1.80761 8.58784 24.071 -1.80761
388 1 9.60705 25.7223 -0.223365 9.60705 25.7223 -0.223365
389 2 11.5719 25.7261 1.33047 11.5719 25.7261 1.33047
390 2 11.4418 25.7185 -1.9291 11.4418 25.7185 -1.9291
391 1 12.4568 24.0757 -0.33337 12.4568 24.0757 -0.33337
392 2 14.4107 24.0793 1.23436 14.4107 24.0793 1.23436
393 2 14.3034 24.0721 -2.02605 14.3034 24.0721 -2.02605
394 1 15.3073 25.7222 -0.430762 15.3073 25.7222 -0.430762
395 2 17.2433 25.7251 1.15922 17.2433 25.7251 1.15922
396 2 17.1731 25.7194 -2.10219 17.1731 25.7194 -2.10219
397 1 18.1587 24.0756 -0.489059 18.1587 24.0756 -0.489059
398 2 20.073 24.0786 1.12713 20.073 24.0786 1.12713
399 2 20.047 24.0727 -2.13493 20.047 24.0727 -2.13493
400 1 21.0107 25.7222 -0.514381 21.0107 25.7222 -0.514381
401 2 22.9012 25.7249 1.12973 22.9012 25.7249 1.12973
402 2 22.9229 25.7195 -2.13236 22.9229 25.7195 -2.13236
403 1 23.8627 24.0756 -0.492157 23.8627 24.0756 -0.492157
404 2 25.7304 24.0789 1.17788 25.7304 24.0789 1.17788
405 2 25.797 24.0724 -2.08361 25.797 24.0724 -2.08361
406 1 26.7142 25.7223 -0.436587 26.7142 25.7223 -0.436587
407 2 28.563 25.7258 1.2542 28.563 25.7258 1.2542
408 2 28.6661 25.7187 -2.00634 28.6661 25.7187 -2.00634
409 1 29.5648 24.0757 -0.342302 29.5648 24.0757 -0.342302
410 2 31.4005 24.08 1.36265 31.4005 24.08 1.36265
411 2 31.5287 24.0713 -1.897 31.5287 24.0713 -1.897
412 1 32.4146 25.7223 -0.234077 32.4146 25.7223 -0.234077
413 2 34.2456 25.7272 1.47576 34.2456 25.7272 1.47576
414 2 34.3828 25.7174 -1.78352 34.3828 25.7174 -1.78352
415 1 35.264 24.0758 -0.10884 35.264 24.0758 -0.10884
416 2 37.0982 24.0815 1.59746 37.0982 24.0815 1.59746
417 2 37.2293 24.0701 -1.66206 37.2293 24.0701 -1.66206
418 1 38.1137 25.7224 0.000205655 38.1137 25.7224 0.000205655
419 2 39.9599 25.7286 1.6934 39.9599 25.7286 1.6934
420 2 40.0681 25.7163 -1.56696 40.0681 25.7163 -1.56696
421 1 40.9641 24.0759 0.100962 40.9641 24.0759 0.100962
422 2 42.8286 24.0824 1.77383 42.8286 24.0824 1.77383
423 2 42.9013 24.0694 -1.4875 42.9013 24.0694 -1.4875
424 1 43.8155 25.7225 0.157772 43.8155 25.7225 0.157772
425 2 45.7029 25.729 1.80466 45.7029 25.729 1.80466
426 2 45.7307 25.7161 -1.45737 45.7307 25.7161 -1.45737
427 1 46.6674 24.076 0.188232 46.6674 24.076 0.188232
428 2 48.5793 24.0823 1.80657 48.5793 24.0823 1.80657
429 2 48.5583 24.0696 -1.45551 48.5583 24.0696 -1.45551
430 1 49.5195 25.7225 0.162877 49.5195 25.7225 0.162877
431 2 51.4538 25.7285 1.75422 51.4538 25.7285 1.75422
432 2 51.387 25.7166 -1.50725 51.387 25.7166 -1.50725
433 1 1.05738 27.3691 0.0978355 1.05738 27.3691 0.0978355
434 2 3.00971 27.3743 1.66704 3.00971 27.3743 1.66704
435 2 2.90576 27.3638 -1.59347 2.90576 27.3638 -1.59347
436 1 3.90785 29.0156 0.00106071 3.90785 29.0156 0.00106071
437 2 5.87161 29.0197 1.55598 5.87161 29.0197 1.55598
438 2 5.74375 29.0115 -1.70369 5.74375 29.0115 -1.70369
439 1 6.75761 27.369 -0.107066 6.75761 27.369 -0.107066
440 2 8.72587 27.373 1.44228 8.72587 27.373 1.44228
441 2 8.58856 27.3649 -1.817 8.58856 27.3649 -1.817
442 1 9.60699 29.0155 -0.231556 9.60699 29.0155 -0.231556
443 2 11.571 29.0183 1.3233 11.571 29.0183 1.3233
444 2 11.4426 29.0127 -1.93634 11.4426 29.0127 -1.93634
445 1 12.4567 27.3689 -0.341183 12.4567 27.3689 -0.341183
446 2 14.4099 27.3716 1.22748 14.4099 27.3716 1.22748
447 2 14.3042 27.3661 -2.03298 14.3042 27.3661 -2.03298
448 1 15.3073 29.0155 -0.436354 15.3073 29.0155 -0.436354
449 2 17.2428 29.0173 1.15426 17.2428 29.0173 1.15426
450 2 17.1736 29.0137 -2.10718 17.1736 29.0137 -2.10718
451 1 18.1587 27.3688 -0.494755 18.1587 27.3688 -0.494755
452 2 20.0727 27.371 1.12178 20.0727 27.371 1.12178
453 2 20.0473 27.3667 -2.14029 20.0473 27.3667 -2.14029
454 1 21.0107 29.0155 -0.518801 21.0107 29.0155 -0.518801
455 2 22.9013 29.0174 1.12516 22.9013 29.0174 1.12516
456 2 22.9228 29.0136 -2.13693 22.9228 29.0136 -2.13693
457 1 23.8627 27.3688 -0.497614 23.8627 27.3688 -0.497614
458 2 25.7307 27.3716 1.17206 25.7307 27.3716 1.17206
459 2 25.7967 27.3661 -2.08944 25.7967 27.3661 -2.08944
460 1 26.7142 29.0155 -0.442097 26.7142 29.0155 -0.442097
461 2 28.5636 29.0184 1.24803 28.5636 29.0184 1.24803
462 2 28.6656 29.0126 -2.01254 28.6656 29.0126 -2.01254
463 1 29.5648 27.3689 -0.349524 29.5648 27.3689 -0.349524
464 2 31.4012 27.3728 1.35469 31.4012 27.3728 1.35469
465 2 31.5282 27.3649 -1.90501 31.5282 27.3649 -1.90501
466 1 32.4146 29.0155 -0.242044 32.4146 29.0155 -0.242044
467 2 34.2464 29.0197 1.46703 34.2464 29.0197 1.46703
468 2 34.3822 29.0113 -1.79232 34.3822 29.0113 -1.79232
469 1 35.2641 27.3689 -0.118816 35.2641 27.3689 -0.118816
470 2 37.0989 27.3742 1.58678 37.0989 27.3742 1.58678
471 2 37.2288 27.3637 -1.6728 37.2288 27.3637 -1.6728
472 1 38.1138 29.0156 -0.0104725 38.1138 29.0156 -0.0104725
473 2 39.9605 29.0209 1.68217 39.9605 29.0209 1.68217
474 2 40.0677 29.0103 -1.57824 40.0677 29.0103 -1.57824
475 1 40.9642 27.3691 0.0885325 40.9642 27.3691 0.0885325
476 2 42.8289 27.3752 1.76119 42.8289 27.3752 1.76119
477 2 42.9012 27.3629 -1.50017 42.9012 27.3629 -1.50017
478 1 43.8156 29.0157 0.14534 43.8156 29.0157 0.14534
479 2 45.7029 29.0214 1.7923 45.7029 29.0214 1.7923
480 2 45.7308 29.01 -1.46975 45.7308 29.01 -1.46975
481 1 46.6675 27.3691 0.175098 46.6675 27.3691 0.175098
482 2 48.5789 27.3752 1.79386 48.5789 27.3752 1.79386
483 2 48.5586 27.3631 -1.46823 48.5586 27.3631 -1.46823
484 1 49.5194 29.0157 0.150672 49.5194 29.0157 0.150672
485 2 51.4532 29.0209 1.74262 51.4532 29.0209 1.74262
486 2 51.3875 29.0105 -1.51889 51.3875 29.0105 -1.51889
487 1 1.05731 30.6622 0.0873128 1.05731 30.6622 0.0873128
488 2 3.009 30.6663 1.65729 3.009 30.6663 1.65729
489 2 2.90632 30.6582 -1.60328 2.90632 30.6582 -1.60328
490 1 3.90778 32.3088 -0.00715735 3.90778 32.3088 -0.00715735
491 2 5.87081 32.3115 1.54868 5.87081 32.3115 1.54868
492 2 5.74445 32.3061 -1.71106 5.74445 32.3061 -1.71106
493 1 6.75754 30.6621 -0.1154 6.75754 30.6621 -0.1154
494 2 8.72501 30.6649 1.43494 8.72501 30.6649 1.43494
495 2 8.58934 30.6594 -1.82442 8.58934 30.6594 -1.82442
496 1 9.60697 32.3087 -0.237152 9.60697 32.3087 -0.237152
497 2 11.5703 32.3101 1.31864 11.5703 32.3101 1.31864
498 2 11.4434 32.3073 -1.94107 11.4434 32.3073 -1.94107
499 1 12.4567 30.6621 -0.346789 12.4567 30.6621 -0.346789
500 2 14.4092 30.6637 1.22271 14.4092 30.6637 1.22271
501 2 14.3049 30.6605 -2.03779 14.3049 30.6605 -2.03779
502 1 15.3073 32.3087 -0.439528 15.3073 32.3087 -0.439528
503 2 17.2424 32.3094 1.15152 17.2424 32.3094 1.15152
504 2 17.174 32.308 -2.10993 17.174 32.308 -2.10993
505 1 18.1587 30.6621 -0.49839 18.1587 30.6621 -0.49839
506 2 20.0726 30.6633 1.11828 20.0726 30.6633 1.11828
507 2 20.0474 30.6609 -2.14378 20.0474 30.6609 -2.14378
508 1 21.0107 32.3087 -0.521229 21.0107 32.3087 -0.521229
509 2 22.9016 32.3097 1.12243 22.9016 32.3097 1.12243
510 2 22.9225 32.3077 -2.13966 22.9225 32.3077 -2.13966
511 1 23.8627 30.6621 -0.501443 23.8627 30.6621 -0.501443
512 2 25.7312 30.664 1.1677 25.7312 30.664 1.1677
513 2 25.7963 30.6602 -2.09382 25.7963 30.6602 -2.09382
514 1 26.7142 32.3087 -0.445867 26.7142 32.3087 -0.445867
515 2 28.5642 32.3106 1.2436 28.5642 32.3106 1.2436
516 2 28.665 32.3068 -2.01702 28.665 32.3068 -2.01702
517 1 29.5648 30.6621 -0.35536 29.5648 30.6621 -0.35536
518 2 31.4019 30.6651 1.34812 31.4019 30.6651 1.34812
519 2 31.5276 30.6591 -1.91163 31.5276 30.6591 -1.91163
520 1 32.4147 32.3087 -0.248049 32.4147 32.3087 -0.248049
521 2 34.247 32.3116 1.46035 34.247 32.3116 1.46035
522 2 34.3817 32.3059 -1.79905 34.3817 32.3059 -1.79905
523 1 35.2642 30.6621 -0.127195 35.2642 30.6621 -0.127195
524 2 37.0996 30.6662 1.57771 37.0996 30.6662 1.57771
525 2 37.2283 30.6581 -1.68194 37.2283 30.6581 -1.68194
526 1 38.1139 32.3088 -0.0187238 38.1139 32.3088 -0.0187238
527 2 39.961 32.3125 1.67337 39.961 32.3125 1.67337
528 2 40.0673 32.3051 -1.58709 40.0673 32.3051 -1.58709
529 1 40.9643 30.6622 0.0778637 40.9643 30.6622 0.0778637
530 2 42.8292 30.6672 1.7502 42.8292 30.6672 1.7502
531 2 42.901 30.6573 -1.51119 42.901 30.6573 -1.51119
532 1 43.8156 32.3089 0.135415 43.8156 32.3089 0.135415
533 2 45.7029 32.3131 1.78231 45.7029 32.3131 1.78231
534 2 45.7307 32.3046 -1.47976 45.7307 32.3046 -1.47976
535 1 46.6675 30.6623 0.16356 46.6675 30.6623 0.16356
536 2 48.5787 30.6672 1.78265 48.5787 30.6672 1.78265
537 2 48.5589 30.6574 -1.47947 48.5589 30.6574 -1.47947
538 1 49.5194 32.3089 0.140745 49.5194 32.3089 0.140745
539 2 51.4527 32.3127 1.73324 51.4527 32.3127 1.73324
540 2 51.3879 32.305 -1.5283 51.3879 32.305 -1.5283