ITEM: TIMESTEP
87000
ITEM: NUMBER OF ATOMS
810
ITEM: BOX BOUNDS pp pp pp
8.4997565437805345e-01 5.2167629345620732e+01
8.1079047087747347e-01 5.0205424529121451e+01
-1.0000000000000000e+01 1.0000000000000000e+01
ITEM: ATOMS id type x y z xu yu zu
1 1 1.05473 1.02553 0.0520462 1.05473 1.02553 0.0520462
2 2 2.9864 1.04157 1.64639 2.9864 1.04157 1.64639
3 2 2.92458 1.00952 -1.61505 2.92458 1.00952 -1.61505
4 1 3.90576 2.67194 -0.0186543 3.90576 2.67194 -0.0186543
5 2 5.84877 2.68796 1.56185 5.84877 2.68796 1.56185
6 2 5.7636 2.6559 -1.69907 5.7636 2.6559 -1.69907
7 1 6.75649 1.02537 -0.0772722 6.75649 1.02537 -0.0772722
8 2 8.70614 1.04069 1.49513 8.70614 1.04069 1.49513
9 2 8.60726 1.01001 -1.76542 8.60726 1.01001 -1.76542
10 1 9.60669 2.67168 -0.179567 9.60669 2.67168 -0.179567
11 2 11.5563 2.68704 1.393 11.5563 2.68704 1.393
12 2 11.4575 2.65624 -1.86754 11.4575 2.65624 -1.86754
13 1 12.4571 1.02506 -0.250493 12.4571 1.02506 -0.250493
14 2 14.4015 1.03979 1.32865 14.4015 1.03979 1.32865
15 2 14.3135 1.01026 -1.93222 14.3135 1.01026 -1.93222
16 1 15.3076 2.67135 -0.342403 15.3076 2.67135 -0.342403
17 2 17.241 2.68581 1.2503 17.241 2.68581 1.2503
18 2 17.1757 2.65682 -2.01109 17.1757 2.65682 -2.01109
19 1 18.1588 1.02476 -0.384742 18.1588 1.02476 -0.384742
20 2 20.0782 1.03919 1.22489 20.0782 1.03919 1.22489
21 2 20.0414 1.01026 -2.03695 20.0414 1.01026 -2.03695
22 1 21.0103 2.67112 -0.431392 21.0103 2.67112 -0.431392
23 2 22.913 2.68462 1.19811 22.913 2.68462 1.19811
24 2 22.9099 2.65757 -2.06394 22.9099 2.65757 -2.06394
25 1 23.862 1.02459 -0.420067 23.862 1.02459 -0.420067
26 2 25.7482 1.03911 1.22851 25.7482 1.03911 1.22851
27 2 25.778 1.00999 -2.0334 25.778 1.00999 -2.0334
28 1 26.7137 2.67105 -0.408471 26.7137 2.67105 -0.408471
29 2 28.5843 2.68401 1.25774 28.5843 2.68401 1.25774
30 2 28.6447 2.65804 -2.00376 28.6447 2.65804 -2.00376
31 1 29.5648 1.02458 -0.342221 29.5648 1.02458 -0.342221
32 2 31.4235 1.03965 1.33728 31.4235 1.03965 1.33728
33 2 31.5071 1.00949 -1.92368 31.5071 1.00949 -1.92368
34 1 32.4156 2.67114 -0.284044 32.4156 2.67114 -0.284044
35 2 34.267 2.68434 1.4035 34.267 2.68434 1.4035
36 2 34.3648 2.65795 -1.8571 34.3648 2.65795 -1.8571
37 1 35.2659 1.02477 -0.184889 35.2659 1.02477 -0.184889
38 2 37.116 1.04051 1.50393 37.116 1.04051 1.50393
39 2 37.2162 1.0091 -1.75657 37.2162 1.0091 -1.75657
40 1 38.1163 2.67139 -0.112974 38.1163 2.67139 -0.112974
41 2 39.9714 2.68547 1.57018 39.9714 2.68547 1.57018
42 2 40.0619 2.6574 -1.69064 40.0619 2.6574 -1.69064
43 1 40.9668 1.02512 -0.019659 40.9668 1.02512 -0.019659
44 2 42.8326 1.04137 1.65144 42.8326 1.04137 1.65144
45 2 42.9022 1.00899 -1.60985 42.9022 1.00899 -1.60985
46 1 43.8178 2.67172 0.0246625 43.8178 2.67172 0.0246625
47 2 45.6988 2.68694 1.67862 45.6988 2.68694 1.67862
48 2 45.7387 2.65662 -1.58319 45.7387 2.65662 -1.58319
49 1 46.6692 1.02543 0.0746357 46.6692 1.02543 0.0746357
50 2 48.5676 1.04183 1.70845 48.5676 1.04183 1.70845
51 2 48.5729 1.00913 -1.55357 48.5729 1.00913 -1.55357
52 1 49.5208 2.67195 0.0623701 49.5208 2.67195 0.0623701
53 2 51.4368 2.68799 1.67558 51.4368 2.68799 1.67558
54 2 51.4069 2.65599 -1.58632 51.4069 2.65599 -1.58632
55 1 1.05459 4.31842 0.0196534 1.05459 4.31842 0.0196534
56 2 2.98599 4.33404 1.61427 2.98599 4.33404 1.61427
57 2 2.92462 4.30283 -1.64721 2.92462 4.30283 -1.64721
58 1 3.90552 5.96483 -0.050244 3.90552 5.96483 -0.050244
59 2 5.84832 5.97968 1.53049 5.84832 5.97968 1.53049
60 2 5.76353 5.94996 -1.73047 5.76353 5.94996 -1.73047
61 1 6.75625 4.31828 -0.109749 6.75625 4.31828 -0.109749
62 2 8.70522 4.33383 1.46344 8.70522 4.33383 1.46344
63 2 8.60769 4.30267 -1.79714 8.60769 4.30267 -1.79714
64 1 9.6064 5.9646 -0.211137 9.6064 5.9646 -0.211137
65 2 11.5552 5.97893 1.3624 11.5552 5.97893 1.3624
66 2 11.4581 5.95018 -1.89821 11.4581 5.95018 -1.89821
67 1 12.4569 4.31797 -0.281706 12.4569 4.31797 -0.281706
68 2 14.4004 4.33251 1.29844 14.4004 4.33251 1.29844
69 2 14.3142 4.30335 -1.96247 14.3142 4.30335 -1.96247
70 1 15.3074 5.9643 -0.371962 15.3074 5.9643 -0.371962
71 2 17.2397 5.97685 1.22218 17.2397 5.97685 1.22218
72 2 17.1768 5.9517 -2.03928 17.1768 5.9517 -2.03928
73 1 18.1587 4.3177 -0.414125 18.1587 4.3177 -0.414125
74 2 20.0772 4.33059 1.19661 20.0772 4.33059 1.19661
75 2 20.0423 4.30475 -2.06526 20.0423 4.30475 -2.06526
76 1 21.0102 5.96414 -0.457604 21.0102 5.96414 -0.457604
77 2 22.9116 5.97411 1.1735 22.9116 5.97411 1.1735
78 2 22.9113 5.95414 -2.08859 22.9113 5.95414 -2.08859
79 1 23.862 4.31758 -0.447476 23.862 4.31758 -0.447476
80 2 25.7475 4.32874 1.202 25.7475 4.32874 1.202
81 2 25.7788 4.30637 -2.05993 25.7788 4.30637 -2.05993
82 1 26.7137 5.96412 -0.431149 26.7137 5.96412 -0.431149
83 2 28.5834 5.97187 1.23618 28.5834 5.97187 1.23618
84 2 28.6457 5.95636 -2.02534 28.6457 5.95636 -2.02534
85 1 29.5649 4.3176 -0.368528 29.5649 4.3176 -0.368528
86 2 31.4232 4.32792 1.31139 31.4232 4.32792 1.31139
87 2 31.5076 4.30726 -1.94962 31.5076 4.30726 -1.94962
88 1 32.4157 5.9642 -0.304965 32.4157 5.9642 -0.304965
89 2 34.2668 5.97138 1.38281 34.2668 5.97138 1.38281
90 2 34.3651 5.957 -1.87786 34.3651 5.957 -1.87786
91 1 35.2661 4.31774 -0.211607 35.2661 4.31774 -0.211607
92 2 37.1162 4.32859 1.47717 37.1162 4.32859 1.47717
93 2 37.2163 4.30693 -1.78342 37.2163 4.30693 -1.78342
94 1 38.1164 5.96435 -0.134873 38.1164 5.96435 -0.134873
95 2 39.972 5.97296 1.54771 39.972 5.97296 1.54771
96 2 40.0614 5.95579 -1.71323 40.0614 5.95579 -1.71323
97 1 40.9669 4.318 -0.0480574 40.9669 4.318 -0.0480574
98 2 42.833 4.33049 1.62272 42.833 4.33049 1.62272
99 2 42.902 4.30562 -1.63866 42.902 4.30562 -1.63866
100 1 43.8178 5.96459 -0.00046329 43.8178 5.96459 -0.00046329
101 2 45.6996 5.97584 1.65255 45.6996 5.97584 1.65255
102 2 45.7378 5.95346 -1.60937 45.7378 5.95346 -1.60937
103 1 46.6692 4.31829 0.0439611 46.6692 4.31829 0.0439611
104 2 48.5678 4.33271 1.67754 48.5678 4.33271 1.67754
105 2 48.5727 4.30398 -1.58454 48.5727 4.30398 -1.58454
106 1 49.5207 5.96481 0.0333215 49.5207 5.96481 0.0333215
107 2 51.4372 5.97855 1.6459 51.4372 5.97855 1.6459
108 2 51.4062 5.95116 -1.61605 51.4062 5.95116 -1.61605
109 1 1.05441 7.61129 -0.00803513 1.05441 7.61129 -0.00803513
110 2 2.98638 7.62416 1.58587 2.98638 7.62416 1.58587
111 2 2.92379 7.59846 -1.67564 2.92379 7.59846 -1.67564
112 1 3.90526 9.25773 -0.0762352 3.90526 9.25773 -0.0762352
113 2 5.84842 9.26923 1.50405 5.84842 9.26923 1.50405
114 2 5.76285 9.24621 -1.75695 5.76285 9.24621 -1.75695
115 1 6.75595 7.61119 -0.139853 6.75595 7.61119 -0.139853
116 2 8.70454 7.62465 1.43381 8.70454 7.62465 1.43381
117 2 8.60778 7.59768 -1.82684 8.60778 7.59768 -1.82684
118 1 9.60608 9.25756 -0.238479 9.60608 9.25756 -0.238479
119 2 11.5541 9.26874 1.33603 11.5541 9.26874 1.33603
120 2 11.4586 9.24631 -1.92467 11.4586 9.24631 -1.92467
121 1 12.4566 7.61093 -0.310856 12.4566 7.61093 -0.310856
122 2 14.399 7.62304 1.2707 14.399 7.62304 1.2707
123 2 14.3151 7.59876 -1.99029 14.3151 7.59876 -1.99029
124 1 15.3072 9.25734 -0.396613 15.3072 9.25734 -0.396613
125 2 17.2378 9.26607 1.19958 17.2378 9.26607 1.19958
126 2 17.1783 9.24858 -2.06199 17.1783 9.24858 -2.06199
127 1 18.1586 7.61073 -0.439656 18.1586 7.61073 -0.439656
128 2 20.0754 7.62002 1.1731 20.0754 7.62002 1.1731
129 2 20.0439 7.60142 -2.08884 20.0439 7.60142 -2.08884
130 1 21.0102 9.25726 -0.476516 21.0102 9.25726 -0.476516
131 2 22.9094 9.26221 1.15709 22.9094 9.26221 1.15709
132 2 22.9134 9.25232 -2.10503 22.9134 9.25232 -2.10503
133 1 23.862 7.61068 -0.467754 23.862 7.61068 -0.467754
134 2 25.7458 7.61663 1.18365 25.7458 7.61663 1.18365
135 2 25.7804 7.60473 -2.07828 25.7804 7.60473 -2.07828
136 1 26.7136 9.2573 -0.443256 26.7136 9.2573 -0.443256
137 2 28.5817 9.25868 1.22594 28.5817 9.25868 1.22594
138 2 28.6472 9.25591 -2.03555 28.6472 9.25591 -2.03555
139 1 29.5649 7.61073 -0.384262 29.5649 7.61073 -0.384262
140 2 31.4224 7.61456 1.29658 31.4224 7.61456 1.29658
141 2 31.5084 7.60687 -1.96444 31.5084 7.60687 -1.96444
142 1 32.4156 9.25733 -0.312751 32.4156 9.25733 -0.312751
143 2 34.2664 9.25743 1.3753 34.2664 9.25743 1.3753
144 2 34.3652 9.25718 -1.88539 34.3652 9.25718 -1.88539
145 1 35.266 7.6108 -0.226155 35.266 7.6108 -0.226155
146 2 37.1165 7.61502 1.46223 37.1165 7.61502 1.46223
147 2 37.2159 7.60656 -1.79844 37.2159 7.60656 -1.79844
148 1 38.1162 9.25736 -0.143386 38.1162 9.25736 -0.143386
149 2 39.973 9.25925 1.53791 39.973 9.25925 1.53791
150 2 40.0602 9.25548 -1.72314 40.0602 9.25548 -1.72314
151 1 40.9669 7.61093 -0.0653778 40.9669 7.61093 -0.0653778
152 2 42.8342 7.6178 1.60406 42.8342 7.6178 1.60406
153 2 42.9008 7.60414 -1.65745 42.9008 7.60414 -1.65745
154 1 43.8178 9.25748 -0.0142052 43.8178 9.25748 -0.0142052
155 2 45.7013 9.26313 1.63676 45.7013 9.26313 1.63676
156 2 45.736 9.25194 -1.62527 45.736 9.25194 -1.62527
157 1 46.6692 7.61115 0.0213781 46.6692 7.61115 0.0213781
158 2 48.569 7.62147 1.65348 48.569 7.62147 1.65348
159 2 48.5713 7.60094 -1.60868 48.5713 7.60094 -1.60868
160 1 49.5206 9.25767 0.0126188 49.5206 9.25767 0.0126188
161 2 51.4385 9.2671 1.6235 51.4385 9.2671 1.6235
162 2 51.4046 9.24834 -1.6385 51.4046 9.24834 -1.6385
163 1 1.05423 10.9042 -0.0269584 1.05423 10.9042 -0.0269584
164 2 2.98747 10.9124 1.5654 2.98747 10.9124 1.5654
165 2 2.92223 10.896 -1.69613 2.92223 10.896 -1.69613
166 1 3.90501 12.5507 -0.09277 3.90501 12.5507 -0.09277
167 2 5.84902 12.557 1.48648 5.84902 12.557 1.48648
168 2 5.76167 12.5443 -1.77453 5.76167 12.5443 -1.77453
169 1 6.75563 10.9041 -0.163152 6.75563 10.9041 -0.163152
170 2 8.70415 10.9135 1.41061 8.70415 10.9135 1.41061
171 2 8.60752 10.8947 -1.85009 8.60752 10.8947 -1.85009
172 1 9.60575 12.5506 -0.257527 9.60575 12.5506 -0.257527
173 2 11.5531 12.5569 1.31786 11.5531 12.5569 1.31786
174 2 11.459 12.5442 -1.94293 11.459 12.5442 -1.94293
175 1 12.4563 10.904 -0.333618 12.4563 10.904 -0.333618
176 2 14.3974 10.9118 1.24961 14.3974 10.9118 1.24961
177 2 14.3163 10.8961 -2.0115 14.3163 10.8961 -2.0115
178 1 15.307 12.5505 -0.412662 15.307 12.5505 -0.412662
179 2 17.2357 12.5541 1.18587 17.2357 12.5541 1.18587
180 2 17.1801 12.5468 -2.07579 17.1801 12.5468 -2.07579
181 1 18.1584 10.9039 -0.457458 18.1584 10.9039 -0.457458
182 2 20.0731 10.9082 1.15793 20.0731 10.9082 1.15793
183 2 20.046 10.8995 -2.10408 20.046 10.8995 -2.10408
184 1 21.0101 12.5505 -0.485405 21.0101 12.5505 -0.485405
185 2 22.9068 12.5498 1.15116 22.9068 12.5498 1.15116
186 2 22.9158 12.5511 -2.11096 22.9158 12.5511 -2.11096
187 1 23.862 10.9039 -0.477847 23.862 10.9039 -0.477847
188 2 25.7434 10.9039 1.17621 25.7434 10.9039 1.17621
189 2 25.7826 10.9039 -2.0857 25.7826 10.9039 -2.0857
190 1 26.7135 12.5505 -0.443339 26.7135 12.5505 -0.443339
191 2 28.5795 12.5456 1.22818 28.5795 12.5456 1.22818
192 2 28.6491 12.5554 -2.03321 28.6491 12.5554 -2.03321
193 1 29.5648 10.9039 -0.387105 29.5648 10.9039 -0.387105
194 2 31.4211 10.9009 1.29504 31.4211 10.9009 1.29504
195 2 31.5094 10.9069 -1.96592 31.5094 10.9069 -1.96592
196 1 32.4153 12.5505 -0.306641 32.4153 12.5505 -0.306641
197 2 34.2659 12.5437 1.38176 34.2659 12.5437 1.38176
198 2 34.3652 12.5571 -1.87888 34.3652 12.5571 -1.87888
199 1 35.2658 10.9039 -0.226378 35.2658 10.9039 -0.226378
200 2 37.1169 10.901 1.46131 37.1169 10.901 1.46131
201 2 37.2151 10.9067 -1.79941 37.2151 10.9067 -1.79941
202 1 38.116 12.5504 -0.137479 38.116 12.5504 -0.137479
203 2 39.9743 12.5454 1.54208 39.9743 12.5454 1.54208
204 2 40.0585 12.5554 -1.71904 40.0585 12.5554 -1.71904
205 1 40.9667 10.9039 -0.0691084 40.9667 10.9039 -0.0691084
206 2 42.836 10.9042 1.59816 42.836 10.9042 1.59816
207 2 42.8988 10.9037 -1.66346 42.8988 10.9037 -1.66346
208 1 43.8176 12.5504 -0.0146149 43.8176 12.5504 -0.0146149
209 2 45.7037 12.5496 1.63353 45.7037 12.5496 1.63353
210 2 45.7335 12.5513 -1.62857 45.7335 12.5513 -1.62857
211 1 46.6691 10.904 0.0101474 46.6691 10.904 0.0101474
212 2 48.5711 10.9087 1.63977 48.5711 10.9087 1.63977
213 2 48.5691 10.8994 -1.62245 48.5691 10.8994 -1.62245
214 1 49.5205 12.5506 0.0033187 49.5205 12.5506 0.0033187
215 2 51.4405 12.5542 1.61168 51.4405 12.5542 1.61168
216 2 51.4023 12.547 -1.65032 51.4023 12.547 -1.65032
217 1 1.05405 14.1971 -0.0341994 1.05405 14.1971 -0.0341994
218 2 2.98908 14.1993 1.55601 2.98908 14.1993 1.55601
219 2 2.92019 14.1949 -1.70548 2.92019 14.1949 -1.70548
220 1 3.90479 15.8436 -0.0971262 3.90479 15.8436 -0.0971262
221 2 5.85 15.8437 1.48068 5.85 15.8437 1.48068
222 2 5.7602 15.8436 -1.78029 5.7602 15.8436 -1.78029
223 1 6.75533 14.1971 -0.176064 6.75533 14.1971 -0.176064
224 2 8.70408 14.2008 1.39746 8.70408 14.2008 1.39746
225 2 8.607 14.1934 -1.86328 8.607 14.1934 -1.86328
226 1 9.60549 15.8437 -0.265087 9.60549 15.8437 -0.265087
227 2 11.5523 15.8438 1.31094 11.5523 15.8438 1.31094
228 2 11.4593 15.8434 -1.94991 11.4593 15.8434 -1.94991
229 1 12.4561 14.1971 -0.346458 12.4561 14.1971 -0.346458
230 2 14.3958 14.1994 1.23843 14.3958 14.1994 1.23843
231 2 14.3175 14.1947 -2.02278 14.3175 14.1947 -2.02278
232 1 15.3068 15.8437 -0.417459 15.3068 15.8437 -0.417459
233 2 17.2337 15.8415 1.18325 17.2337 15.8415 1.18325
234 2 17.1819 15.8458 -2.07847 17.1819 15.8458 -2.07847
235 1 18.1583 14.1971 -0.464873 18.1583 14.1971 -0.464873
236 2 20.0707 14.1959 1.15329 20.0707 14.1959 1.15329
237 2 20.0483 14.1983 -2.10876 20.0483 14.1983 -2.10876
238 1 21.01 15.8437 -0.48308 21.01 15.8437 -0.48308
239 2 22.9043 15.8377 1.15633 22.9043 15.8377 1.15633
240 2 22.9182 15.8497 -2.10576 22.9182 15.8497 -2.10576
241 1 23.8619 14.1971 -0.476628 23.8619 14.1971 -0.476628
242 2 25.7408 14.1915 1.18031 25.7408 14.1915 1.18031
243 2 25.785 14.2027 -2.08151 25.785 14.2027 -2.08151
244 1 26.7134 15.8437 -0.432022 26.7134 15.8437 -0.432022
245 2 28.5772 15.8336 1.24188 28.5772 15.8336 1.24188
246 2 28.651 15.8537 -2.01938 28.651 15.8537 -2.01938
247 1 29.5646 14.1971 -0.377313 29.5646 14.1971 -0.377313
248 2 31.4195 14.188 1.30638 31.4195 14.188 1.30638
249 2 31.5105 14.2061 -1.95446 31.5105 14.2061 -1.95446
250 1 32.415 15.8435 -0.28834 32.415 15.8435 -0.28834
251 2 34.265 15.8313 1.40057 34.265 15.8313 1.40057
252 2 34.3654 15.8557 -1.85998 34.3654 15.8557 -1.85998
253 1 35.2655 14.1969 -0.212793 35.2655 14.1969 -0.212793
254 2 37.1172 14.1875 1.47413 37.1172 14.1875 1.47413
255 2 37.2142 14.2063 -1.78657 37.2142 14.2063 -1.78657
256 1 38.1157 15.8433 -0.118482 38.1157 15.8433 -0.118482
257 2 39.9756 15.8323 1.5593 39.9756 15.8323 1.5593
258 2 40.0567 15.8544 -1.70183 40.0567 15.8544 -1.70183
259 1 40.9665 14.1968 -0.0588882 40.9665 14.1968 -0.0588882
260 2 42.838 14.1905 1.60578 42.838 14.1905 1.60578
261 2 42.8964 14.2032 -1.6559 42.8964 14.2032 -1.6559
262 1 43.8175 15.8433 -0.00164173 43.8175 15.8433 -0.00164173
263 2 45.7062 15.8361 1.6434 45.7062 15.8361 1.6434
264 2 45.7307 15.8506 -1.61871 45.7307 15.8506 -1.61871
265 1 46.669 14.1969 0.0119797 46.669 14.1969 0.0119797
266 2 48.5736 14.1952 1.63851 48.5736 14.1952 1.63851
267 2 48.5663 14.1987 -1.62372 48.5663 14.1987 -1.62372
268 1 49.5204 15.8434 0.00699672 49.5204 15.8434 0.00699672
269 2 51.4428 15.8406 1.61242 51.4428 15.8406 1.61242
270 2 51.3997 15.8464 -1.64952 51.3997 15.8464 -1.64952
271 1 1.05394 17.49 -0.0283293 1.05394 17.49 -0.0283293
272 2 2.99094 17.4856 1.55948 2.99094 17.4856 1.55948
273 2 2.91803 17.4945 -1.70191 2.91803 17.4945 -1.70191
274 1 3.90468 19.1366 -0.0880942 3.90468 19.1366 -0.0880942
275 2 5.85119 19.1299 1.48811 5.85119 19.1299 1.48811
276 2 5.75873 19.1432 -1.77275 5.75873 19.1432 -1.77275
277 1 6.75512 17.4902 -0.176144 6.75512 17.4902 -0.176144
278 2 8.70433 17.4873 1.39683 8.70433 17.4873 1.39683
279 2 8.60632 17.493 -1.86388 8.60632 17.493 -1.86388
280 1 9.60533 19.1367 -0.259299 9.60533 19.1367 -0.259299
281 2 11.552 19.1304 1.31693 11.552 19.1304 1.31693
282 2 11.4593 19.143 -1.94389 11.4593 19.143 -1.94389
283 1 12.4559 17.4902 -0.346912 12.4559 17.4902 -0.346912
284 2 14.3946 17.4864 1.23926 14.3946 17.4864 1.23926
285 2 14.3184 17.494 -2.02199 14.3184 17.494 -2.02199
286 1 15.3068 19.1368 -0.409785 15.3068 19.1368 -0.409785
287 2 17.2324 19.1291 1.19244 17.2324 19.1291 1.19244
288 2 17.1831 19.1445 -2.0693 17.1831 19.1445 -2.0693
289 1 18.1582 17.4903 -0.460598 18.1582 17.4903 -0.460598
290 2 20.0686 17.4837 1.15989 20.0686 17.4837 1.15989
291 2 20.0502 17.4968 -2.10217 20.0502 17.4968 -2.10217
292 1 21.01 19.1369 -0.469882 21.01 19.1369 -0.469882
293 2 22.9024 19.1265 1.17167 22.9024 19.1265 1.17167
294 2 22.92 19.1472 -2.09036 22.92 19.1472 -2.09036
295 1 23.8618 17.4903 -0.464609 23.8618 17.4903 -0.464609
296 2 25.7385 17.4801 1.1949 25.7385 17.4801 1.1949
297 2 25.7871 17.5005 -2.06682 25.7871 17.5005 -2.06682
298 1 26.7132 19.1368 -0.411435 26.7132 19.1368 -0.411435
299 2 28.5752 19.1233 1.26449 28.5752 19.1233 1.26449
300 2 28.6525 19.1502 -1.99664 28.6525 19.1502 -1.99664
301 1 29.5643 17.4902 -0.35709 29.5643 17.4902 -0.35709
302 2 31.4178 17.4767 1.32818 31.4178 17.4767 1.32818
303 2 31.5116 17.5035 -1.93253 31.5116 17.5035 -1.93253
304 1 32.4147 19.1365 -0.26124 32.4147 19.1365 -0.26124
305 2 34.2641 19.1209 1.42832 34.2641 19.1209 1.42832
306 2 34.3656 19.1521 -1.83213 34.3656 19.1521 -1.83213
307 1 35.2651 17.4899 -0.188107 35.2651 17.4899 -0.188107
308 2 37.1173 17.4757 1.49827 37.1173 17.4757 1.49827
309 2 37.2134 17.5041 -1.76239 37.2134 17.5041 -1.76239
310 1 38.1153 19.1362 -0.0896609 38.1153 19.1362 -0.0896609
311 2 39.9764 19.1209 1.58674 39.9764 19.1209 1.58674
312 2 40.0552 19.1516 -1.67437 40.0552 19.1516 -1.67437
313 1 40.9662 17.4897 -0.0364526 40.9662 17.4897 -0.0364526
314 2 42.8399 17.4777 1.62573 42.8399 17.4777 1.62573
315 2 42.894 17.5018 -1.63595 42.894 17.5018 -1.63595
316 1 43.8173 19.1361 0.0227946 43.8173 19.1361 0.0227946
317 2 45.7085 19.1235 1.66502 45.7085 19.1235 1.66502
318 2 45.7282 19.1489 -1.59704 45.7282 19.1489 -1.59704
319 1 46.6689 17.4898 0.0267744 46.6689 17.4898 0.0267744
320 2 48.5762 17.4818 1.65012 48.5762 17.4818 1.65012
321 2 48.5635 17.4979 -1.61205 48.5635 17.4979 -1.61205
322 1 49.5203 19.1363 0.0234268 49.5203 19.1363 0.0234268
323 2 51.4452 19.1272 1.62598 51.4452 19.1272 1.62598
324 2 51.3972 19.1455 -1.63584 51.3972 19.1455 -1.63584
325 1 1.05391 20.7829 -0.00976763 1.05391 20.7829 -0.00976763
326 2 2.99275 20.7723 1.57581 2.99275 20.7723 1.57581
327 2 2.91612 20.7936 -1.68543 2.91612 20.7936 -1.68543
328 1 3.9047 22.4295 -0.0664679 3.9047 22.4295 -0.0664679
329 2 5.85242 22.4169 1.50825 5.85242 22.4169 1.50825
330 2 5.75751 22.4421 -1.75247 5.75751 22.4421 -1.75247
331 1 6.75505 20.7831 -0.162643 6.75505 20.7831 -0.162643
332 2 8.70491 20.7738 1.40953 8.70491 20.7738 1.40953
333 2 8.60557 20.7925 -1.85109 8.60557 20.7925 -1.85109
334 1 9.60534 22.4297 -0.240358 9.60534 22.4297 -0.240358
335 2 11.5523 22.4178 1.33552 11.5523 22.4178 1.33552
336 2 11.459 22.4417 -1.92523 11.459 22.4417 -1.92523
337 1 12.4558 20.7833 -0.334229 12.4558 20.7833 -0.334229
338 2 14.3941 20.7737 1.25249 14.3941 20.7737 1.25249
339 2 14.3188 20.7929 -2.00874 14.3188 20.7929 -2.00874
340 1 15.3068 22.4299 -0.390395 15.3068 22.4299 -0.390395
341 2 17.232 22.4177 1.2123 17.232 22.4177 1.2123
342 2 17.1835 22.4421 -2.0494 17.1835 22.4421 -2.0494
343 1 18.1582 20.7834 -0.445005 18.1582 20.7834 -0.445005
344 2 20.0674 20.7724 1.17686 20.0674 20.7724 1.17686
345 2 20.0513 20.7943 -2.08518 20.0513 20.7943 -2.08518
346 1 21.01 22.4299 -0.447715 21.01 22.4299 -0.447715
347 2 22.9014 22.4167 1.1949 22.9014 22.4167 1.1949
348 2 22.9208 22.4431 -2.0671 22.9208 22.4431 -2.0671
349 1 23.8617 20.7834 -0.443704 23.8617 20.7834 -0.443704
350 2 25.7368 20.7701 1.21757 25.7368 20.7701 1.21757
351 2 25.7885 20.7965 -2.04407 25.7885 20.7965 -2.04407
352 1 26.7131 22.4298 -0.384756 26.7131 22.4298 -0.384756
353 2 28.5739 22.4148 1.29248 28.5739 22.4148 1.29248
354 2 28.6534 22.4446 -1.96859 28.6534 22.4446 -1.96859
355 1 29.5641 20.7832 -0.329854 29.5641 20.7832 -0.329854
356 2 31.4163 20.7675 1.35677 31.4163 20.7675 1.35677
357 2 31.5124 20.7987 -1.90384 31.5124 20.7987 -1.90384
358 1 32.4144 22.4295 -0.229648 32.4144 22.4295 -0.229648
359 2 34.2632 22.4128 1.4606 34.2632 22.4128 1.4606
360 2 34.3659 22.4461 -1.79979 34.3659 22.4461 -1.79979
361 1 35.2648 20.7828 -0.156465 35.2648 20.7828 -0.156465
362 2 37.1171 20.766 1.52975 37.1171 20.766 1.52975
363 2 37.2129 20.7996 -1.73086 37.2129 20.7996 -1.73086
364 1 38.115 22.4291 -0.0555899 38.115 22.4291 -0.0555899
365 2 39.9768 22.4119 1.62009 39.9768 22.4119 1.62009
366 2 40.0543 22.4464 -1.641 40.0543 22.4464 -1.641
367 1 40.966 20.7826 -0.00534249 40.966 20.7826 -0.00534249
368 2 42.8413 20.7668 1.65496 42.8413 20.7668 1.65496
369 2 42.8922 20.7985 -1.60669 42.8922 20.7985 -1.60669
370 1 43.8171 22.429 0.0549853 43.8171 22.429 0.0549853
371 2 45.7101 22.4129 1.6952 45.7101 22.4129 1.6952
372 2 45.7264 22.4452 -1.56679 45.7264 22.4452 -1.56679
373 1 46.6688 20.7826 0.0524853 46.6688 20.7826 0.0524853
374 2 48.5784 20.7694 1.6731 48.5784 20.7694 1.6731
375 2 48.5612 20.796 -1.58896 48.5612 20.796 -1.58896
376 1 49.5203 22.4291 0.0503959 49.5203 22.4291 0.0503959
377 2 51.4471 22.4151 1.65066 51.4471 22.4151 1.65066
378 2 51.3953 22.4434 -1.61101 51.3953 22.4434 -1.61101
379 1 1.05399 24.0757 0.0189575 1.05399 24.0757 0.0189575
380 2 2.99421 24.0605 1.60286 2.99421 24.0605 1.60286
381 2 2.91483 24.0911 -1.65822 2.91483 24.0911 -1.65822
382 1 3.90487 25.7223 -0.0354128 3.90487 25.7223 -0.0354128
383 2 5.85355 25.7059 1.53814 5.85355 25.7059 1.53814
384 2 5.75672 25.7388 -1.72244 5.75672 25.7388 -1.72244
385 1 6.75515 24.0761 -0.137135 6.75515 24.0761 -0.137135
386 2 8.70581 24.0616 1.43405 8.70581 24.0616 1.43405
387 2 8.60485 24.0906 -1.82644 8.60485 24.0906 -1.82644
388 1 9.60551 25.7227 -0.211041 9.60551 25.7227 -0.211041
389 2 11.5532 25.707 1.36392 11.5532 25.707 1.36392
390 2 11.4584 25.7384 -1.89673 11.4584 25.7384 -1.89673
391 1 12.4559 24.0763 -0.309974 12.4559 24.0763 -0.309974
392 2 14.3944 24.0624 1.27639 14.3944 24.0624 1.27639
393 2 14.3185 24.0902 -1.98478 14.3185 24.0902 -1.98478
394 1 15.3069 25.7229 -0.36225 15.3069 25.7229 -0.36225
395 2 17.2326 25.7082 1.23981 17.2326 25.7082 1.23981
396 2 17.183 25.7375 -2.02186 17.183 25.7375 -2.02186
397 1 18.1582 24.0764 -0.420332 18.1582 24.0764 -0.420332
398 2 20.0672 24.0627 1.20171 20.0672 24.0627 1.20171
399 2 20.0515 24.0901 -2.0603 20.0515 24.0901 -2.0603
400 1 21.0099 25.7229 -0.419939 21.0099 25.7229 -0.419939
401 2 22.9015 25.7088 1.22252 22.9015 25.7088 1.22252
402 2 22.9206 25.7368 -2.03948 22.9206 25.7368 -2.03948
403 1 23.8617 24.0763 -0.417013 23.8617 24.0763 -0.417013
404 2 25.7361 24.062 1.24496 25.7361 24.062 1.24496
405 2 25.789 24.0905 -2.01666 25.789 24.0905 -2.01666
406 1 26.713 25.7227 -0.355918 26.713 25.7227 -0.355918
407 2 28.5734 25.7085 1.32167 28.5734 25.7085 1.32167
408 2 28.6535 25.7367 -1.93941 28.6535 25.7367 -1.93941
409 1 29.5638 24.0761 -0.299692 29.5638 24.0761 -0.299692
410 2 31.4153 24.0605 1.38777 31.4153 24.0605 1.38777
411 2 31.5129 24.0915 -1.8728 31.5129 24.0915 -1.8728
412 1 32.4141 25.7223 -0.198313 32.4141 25.7223 -0.198313
413 2 34.2625 25.7072 1.49244 34.2625 25.7072 1.49244
414 2 34.366 25.7374 -1.76796 34.366 25.7374 -1.76796
415 1 35.2644 24.0757 -0.122765 35.2644 24.0757 -0.122765
416 2 37.1167 24.0589 1.56365 37.1167 24.0589 1.56365
417 2 37.2128 24.0925 -1.69694 37.2128 24.0925 -1.69694
418 1 38.1147 25.722 -0.0216123 38.1147 25.722 -0.0216123
419 2 39.9766 25.7057 1.65405 39.9766 25.7057 1.65405
420 2 40.0541 25.7383 -1.60704 40.0541 25.7383 -1.60704
421 1 40.9657 24.0755 0.0295744 40.9657 24.0755 0.0295744
422 2 42.842 24.0583 1.68891 42.842 24.0583 1.68891
423 2 42.8912 24.0927 -1.57271 42.8912 24.0927 -1.57271
424 1 43.817 25.7219 0.0897998 43.817 25.7219 0.0897998
425 2 45.7108 25.705 1.72915 45.7108 25.705 1.72915
426 2 45.7256 25.7389 -1.53281 45.7256 25.7389 -1.53281
427 1 46.6687 24.0755 0.0852294 46.6687 24.0755 0.0852294
428 2 48.5799 24.0591 1.70406 48.5799 24.0591 1.70406
429 2 48.5597 24.092 -1.5579 48.5597 24.092 -1.5579
430 1 49.5204 25.722 0.08374 49.5204 25.722 0.08374
431 2 51.4483 25.7052 1.68269 51.4483 25.7052 1.68269
432 2 51.3943 25.739 -1.57886 51.3943 25.739 -1.57886
433 1 1.05416 27.3686 0.0531856 1.05416 27.3686 0.0531856
434 2 2.99511 27.3513 1.63625 2.99511 27.3513 1.63625
435 2 2.91433 27.3859 -1.62473 2.91433 27.3859 -1.62473
436 1 3.90515 29.0152 -0.000354237 3.90515 29.0152 -0.000354237
437 2 5.8544 28.998 1.57255 5.8544 28.998 1.57255
438 2 5.75647 29.0325 -1.68796 5.75647 29.0325 -1.68796
439 1 6.75541 27.3689 -0.103796 6.75541 27.3689 -0.103796
440 2 8.70691 27.352 1.46636 8.70691 27.352 1.46636
441 2 8.60424 27.386 -1.79403 8.60424 27.386 -1.79403
442 1 9.60583 29.0155 -0.176585 9.60583 29.0155 -0.176585
443 2 11.5546 28.9991 1.3971 11.5546 28.9991 1.3971
444 2 11.4576 29.032 -1.86347 11.4576 29.032 -1.86347
445 1 12.4561 27.3692 -0.278183 12.4561 27.3692 -0.278183
446 2 14.3956 27.3535 1.307 14.3956 27.3535 1.307
447 2 14.3177 27.385 -1.9541 14.3177 27.385 -1.9541
448 1 15.3071 29.0158 -0.330251 15.3071 29.0158 -0.330251
449 2 17.234 29.0011 1.27027 17.234 29.0011 1.27027
450 2 17.1818 29.0303 -1.99138 17.1818 29.0303 -1.99138
451 1 18.1583 27.3694 -0.39056 18.1583 27.3694 -0.39056
452 2 20.0681 27.3551 1.23051 20.0681 27.3551 1.23051
453 2 20.0506 27.3835 -2.03151 20.0506 27.3835 -2.03151
454 1 21.01 29.0157 -0.391086 21.01 29.0157 -0.391086
455 2 22.9026 29.0032 1.25009 22.9026 29.0032 1.25009
456 2 22.9194 29.0282 -2.01197 22.9194 29.0282 -2.01197
457 1 23.8616 27.3692 -0.388611 23.8616 27.3692 -0.388611
458 2 25.7365 27.3561 1.2729 25.7365 27.3561 1.2729
459 2 25.7885 27.3822 -1.98878 25.7885 27.3822 -1.98878
460 1 26.7129 29.0155 -0.329407 26.7129 29.0155 -0.329407
461 2 28.574 29.0045 1.34752 28.574 29.0045 1.34752
462 2 28.6528 29.0265 -1.91366 28.6528 29.0265 -1.91366
463 1 29.5637 27.3689 -0.271113 29.5637 27.3689 -0.271113
464 2 31.4151 27.356 1.41648 31.4151 27.356 1.41648
465 2 31.5128 27.3818 -1.84414 31.5128 27.3818 -1.84414
466 1 32.414 29.0152 -0.172148 32.414 29.0152 -0.172148
467 2 34.2623 29.0043 1.51875 34.2623 29.0043 1.51875
468 2 34.3659 29.0262 -1.74171 34.3659 29.0262 -1.74171
469 1 35.2642 27.3686 -0.0922523 35.2642 27.3686 -0.0922523
470 2 37.1161 27.3547 1.59457 37.1161 27.3547 1.59457
471 2 37.2129 27.3826 -1.66605 37.2129 27.3826 -1.66605
472 1 38.1146 29.015 0.00664166 38.1146 29.015 0.00664166
473 2 39.976 29.0025 1.6829 39.976 29.0025 1.6829
474 2 40.0544 29.0275 -1.57821 40.0544 29.0275 -1.57821
475 1 40.9656 27.3684 0.0625872 40.9656 27.3684 0.0625872
476 2 42.8418 27.3529 1.722 42.8418 27.3529 1.722
477 2 42.8911 27.384 -1.53964 42.8911 27.384 -1.53964
478 1 43.817 29.0149 0.121243 43.817 29.0149 0.121243
479 2 45.7104 29.0002 1.76102 45.7104 29.0002 1.76102
480 2 45.7259 29.0296 -1.50095 45.7259 29.0296 -1.50095
481 1 46.6687 27.3684 0.119598 46.6687 27.3684 0.119598
482 2 48.5804 27.3517 1.73792 48.5804 27.3517 1.73792
483 2 48.5593 27.3852 -1.52399 48.5593 27.3852 -1.52399
484 1 49.5205 29.0149 0.117696 49.5205 29.0149 0.117696
485 2 51.4485 28.9984 1.71657 51.4485 28.9984 1.71657
486 2 51.3944 29.0315 -1.54497 51.3944 29.0315 -1.54497
487 1 1.05439 30.6615 0.0866882 1.05439 30.6615 0.0866882
488 2 2.99529 30.6456 1.66991 2.99529 30.6456 1.66991
489 2 2.91471 30.6776 -1.5911 2.91471 30.6776 -1.5911
490 1 3.90548 32.3081 0.0320415 3.90548 32.3081 0.0320415
491 2 5.85479 32.2935 1.60495 5.85479 32.2935 1.60495
492 2 5.75678 32.3229 -1.65561 5.75678 32.3229 -1.65561
493 1 6.75577 30.6618 -0.06884 6.75577 30.6618 -0.06884
494 2 8.70799 30.6456 1.50047 8.70799 30.6456 1.50047
495 2 8.60385 30.6781 -1.75989 8.60385 30.6781 -1.75989
496 1 9.6062 32.3084 -0.14361 9.6062 32.3084 -0.14361
497 2 11.556 32.2943 1.42878 11.556 32.2943 1.42878
498 2 11.4568 32.3226 -1.83178 11.4568 32.3226 -1.83178
499 1 12.4564 30.6621 -0.244755 12.4564 30.6621 -0.244755
500 2 14.3973 30.6474 1.33875 14.3973 30.6474 1.33875
501 2 14.3165 30.6768 -1.92231 14.3165 30.6768 -1.92231
502 1 15.3073 32.3086 -0.300344 15.3073 32.3086 -0.300344
503 2 17.236 32.2968 1.29812 17.236 32.2968 1.29812
504 2 17.1802 32.3204 -1.96352 17.1802 32.3204 -1.96352
505 1 18.1584 30.6622 -0.360914 18.1584 30.6622 -0.360914
506 2 20.0698 30.6499 1.25829 20.0698 30.6499 1.25829
507 2 20.0491 30.6744 -2.00376 20.0491 30.6744 -2.00376
508 1 21.01 32.3086 -0.366279 21.01 32.3086 -0.366279
509 2 22.9045 32.2998 1.27276 22.9045 32.2998 1.27276
510 2 22.9176 32.3172 -1.98939 22.9176 32.3172 -1.98939
511 1 23.8616 30.6621 -0.363227 23.8616 30.6621 -0.363227
512 2 25.7378 30.6524 1.29677 25.7378 30.6524 1.29677
513 2 25.7871 30.6716 -1.96501 25.7871 30.6716 -1.96501
514 1 26.7129 32.3084 -0.309846 26.7129 32.3084 -0.309846
515 2 28.5754 32.3025 1.3655 28.5754 32.3025 1.3655
516 2 28.6514 32.3142 -1.8958 28.6514 32.3142 -1.8958
517 1 29.5636 30.6618 -0.248792 29.5636 30.6618 -0.248792
518 2 31.4156 30.6537 1.43816 31.4156 30.6537 1.43816
519 2 31.5121 30.6699 -1.82257 31.5121 30.6699 -1.82257
520 1 32.414 32.3082 -0.155754 32.414 32.3082 -0.155754
521 2 34.2626 32.3034 1.53485 34.2626 32.3034 1.53485
522 2 34.3656 32.313 -1.72569 34.3656 32.313 -1.72569
523 1 35.2642 30.6616 -0.0700814 35.2642 30.6616 -0.0700814
524 2 37.1157 30.653 1.6172 37.1157 30.653 1.6172
525 2 37.2131 30.6702 -1.64347 37.2131 30.6702 -1.64347
526 1 38.1146 32.3081 0.024042 38.1146 32.3081 0.024042
527 2 39.9751 32.3018 1.70135 39.9751 32.3018 1.70135
528 2 40.0552 32.3144 -1.55978 40.0552 32.3144 -1.55978
529 1 40.9655 30.6615 0.087855 40.9655 30.6615 0.087855
530 2 42.8409 30.6505 1.74832 42.8409 30.6505 1.74832
531 2 42.8919 30.6725 -1.51335 42.8919 30.6725 -1.51335
532 1 43.8169 32.308 0.14346 43.8169 32.308 0.14346
533 2 45.7091 32.2983 1.78486 45.7091 32.2983 1.78486
534 2 45.7272 32.3176 -1.47716 45.7272 32.3176 -1.47716
535 1 46.6688 30.6614 0.149386 46.6688 30.6614 0.149386
536 2 48.5798 30.6475 1.76858 48.5798 30.6475 1.76858
537 2 48.5601 30.6754 -1.49337 48.5601 30.6754 -1.49337
538 1 49.5206 32.308 0.145894 49.5206 32.308 0.145894