ITEM: TIMESTEP
81000
ITEM: NUMBER OF ATOMS
810
ITEM: BOX BOUNDS pp pp pp
8.5628883705369807e-01 5.2161316162944956e+01
8.2436589535859728e-01 5.0191849104640582e+01
-1.0000000000000000e+01 1.0000000000000000e+01
ITEM: ATOMS id type x y z xu yu zu
1 1 1.05923 1.03856 0.0585983 1.05923 1.03856 0.0585983
2 2 3.03649 1.11497 1.59428 3.03649 1.11497 1.59428
3 2 2.88034 0.959945 -1.6605 2.88034 0.959945 -1.6605
4 1 3.90729 2.68083 -0.157416 3.90729 2.68083 -0.157416
5 2 5.89066 2.74937 1.37071 5.89066 2.74937 1.37071
6 2 5.72138 2.61095 -1.88414 5.72138 2.61095 -1.88414
7 1 6.7561 1.03401 -0.236223 6.7561 1.03401 -0.236223
8 2 8.73746 1.11325 1.29438 8.73746 1.11325 1.29438
9 2 8.57275 0.954047 -1.95969 8.57275 0.954047 -1.95969
10 1 9.60377 2.6773 -0.461477 9.60377 2.6773 -0.461477
11 2 11.5731 2.74874 1.08521 11.5731 2.74874 1.08521
12 2 11.4342 2.60609 -2.17073 11.4342 2.60609 -2.17073
13 1 12.4542 1.03131 -0.511211 12.4542 1.03131 -0.511211
14 2 14.404 1.11428 1.05983 14.404 1.11428 1.05983
15 2 14.3059 0.949334 -2.19655 14.3059 0.949334 -2.19655
16 1 15.3048 2.67606 -0.68047 15.3048 2.67606 -0.68047
17 2 17.2296 2.75324 0.921784 17.2296 2.75324 0.921784
18 2 17.1835 2.60044 -2.33625 17.1835 2.60044 -2.33625
19 1 18.1576 1.03155 -0.64337 18.1576 1.03155 -0.64337
20 2 20.0535 1.11784 0.992595 20.0535 1.11784 0.992595
21 2 20.0651 0.947491 -2.26498 20.0651 0.947491 -2.26498
22 1 21.0104 2.67748 -0.718911 21.0104 2.67748 -0.718911
23 2 22.8777 2.76075 0.949999 22.8777 2.76075 0.949999
24 2 22.9461 2.59659 -2.30713 22.9461 2.59659 -2.30713
25 1 23.8622 1.03462 -0.575409 23.8622 1.03462 -0.575409
26 2 25.7035 1.12226 1.12171 25.7035 1.12226 1.12171
27 2 25.8215 0.949592 -2.13369 25.8215 0.949592 -2.13369
28 1 26.7137 2.68123 -0.558825 26.7137 2.68123 -0.558825
29 2 28.5348 2.76838 1.15999 28.5348 2.76838 1.15999
30 2 28.6915 2.59651 -2.09378 28.6915 2.59651 -2.09378
31 1 29.5618 1.03937 -0.333968 29.5618 1.03937 -0.333968
32 2 31.3734 1.12519 1.39474 31.3734 1.12519 1.39474
33 2 31.5477 0.955444 -1.85832 31.5477 0.955444 -1.85832
34 1 32.4111 2.68598 -0.266829 32.4111 2.68598 -0.266829
35 2 34.2218 2.77205 1.46263 34.2218 2.77205 1.46263
36 2 34.3979 2.60126 -1.79028 34.3979 2.60126 -1.79028
37 1 35.2581 1.04361 -0.0258162 35.2581 1.04361 -0.0258162
38 2 37.0833 1.12448 1.68826 37.0833 1.12448 1.68826
39 2 37.2318 0.962843 -1.56648 37.2318 0.962843 -1.56648
40 1 38.1082 2.68923 0.0222702 38.1082 2.68923 0.0222702
41 2 39.953 2.76927 1.71495 39.953 2.76927 1.71495
42 2 40.0639 2.60848 -1.5414 40.0639 2.60848 -1.5414
43 1 40.9581 1.04503 0.200497 40.9581 1.04503 0.200497
44 2 42.8344 1.12122 1.85838 42.8344 1.12122 1.85838
45 2 42.8844 0.967023 -1.39975 42.8844 0.967023 -1.39975
46 1 43.8103 2.68893 0.165653 43.8103 2.68893 0.165653
47 2 45.7155 2.7622 1.78998 45.7155 2.7622 1.78998
48 2 45.7078 2.6133 -1.46889 45.7078 2.6133 -1.46889
49 1 46.6625 1.04293 0.23343 46.6625 1.04293 0.23343
50 2 48.5994 1.1178 1.81989 48.5994 1.1178 1.81989
51 2 48.5276 0.96539 -1.43798 48.5276 0.96539 -1.43798
52 1 49.5137 2.68542 0.0926256 49.5137 2.68542 0.0926256
53 2 51.4733 2.75465 1.65086 51.4733 2.75465 1.65086
54 2 51.3541 2.6137 -1.60622 51.3541 2.6137 -1.60622
55 1 1.05829 4.32791 -0.0841894 1.05829 4.32791 -0.0841894
56 2 3.03251 4.38553 1.45581 3.03251 4.38553 1.45581
57 2 2.88223 4.26849 -1.80094 2.88223 4.26849 -1.80094
58 1 3.90666 5.97129 -0.276062 3.90666 5.97129 -0.276062
59 2 5.8869 6.01339 1.25679 5.8869 6.01339 1.25679
60 2 5.72395 5.92831 -2.00027 5.72395 5.92831 -2.00027
61 1 6.75482 4.32411 -0.37647 6.75482 4.32411 -0.37647
62 2 8.73511 4.38102 1.15634 8.73511 4.38102 1.15634
63 2 8.57263 4.26681 -2.09971 8.57263 4.26681 -2.09971
64 1 9.60308 5.96885 -0.577154 9.60308 5.96885 -0.577154
65 2 11.5728 6.01274 0.96997 11.5728 6.01274 0.96997
66 2 11.4332 5.92525 -2.28783 11.4332 5.92525 -2.28783
67 1 12.4531 4.32198 -0.655648 12.4531 4.32198 -0.655648
68 2 14.4038 4.38412 0.915266 14.4038 4.38412 0.915266
69 2 14.3043 4.2607 -2.34279 14.3043 4.2607 -2.34279
70 1 15.3043 5.96793 -0.805314 15.3043 5.96793 -0.805314
71 2 17.2321 6.02067 0.794348 17.2321 6.02067 0.794348
72 2 17.1803 5.91628 -2.46537 17.1803 5.91628 -2.46537
73 1 18.1573 4.32192 -0.797997 18.1573 4.32192 -0.797997
74 2 20.0549 4.39289 0.836967 20.0549 4.39289 0.836967
75 2 20.0639 4.25272 -2.42186 20.0639 4.25272 -2.42186
76 1 21.0107 5.96861 -0.860664 21.0107 5.96861 -0.860664
77 2 22.8817 6.03352 0.805016 22.8817 6.03352 0.805016
78 2 22.9435 5.9054 -2.45369 22.9435 5.9054 -2.45369
79 1 23.8633 4.32408 -0.741571 23.8633 4.32408 -0.741571
80 2 25.7055 4.40403 0.955184 25.7055 4.40403 0.955184
81 2 25.8226 4.24642 -2.30084 25.8226 4.24642 -2.30084
82 1 26.7154 5.97111 -0.718339 26.7154 5.97111 -0.718339
83 2 28.5387 6.04701 0.998858 28.5387 6.04701 0.998858
84 2 28.6919 5.89727 -2.25605 28.6919 5.89727 -2.25605
85 1 29.5642 4.32807 -0.508092 29.5642 4.32807 -0.508092
86 2 31.374 4.41315 1.2225 31.374 4.41315 1.2225
87 2 31.552 4.24509 -2.03038 31.552 4.24509 -2.03038
88 1 32.4139 5.97494 -0.437119 32.4139 5.97494 -0.437119
89 2 34.2223 6.05489 1.29487 34.2223 6.05489 1.29487
90 2 34.4026 5.89657 -1.95843 34.4026 5.89657 -1.95843
91 1 35.2605 4.33227 -0.19898 35.2605 4.33227 -0.19898
92 2 37.0807 4.41477 1.52013 37.0807 4.41477 1.52013
93 2 37.2384 4.2504 -1.73412 37.2384 4.2504 -1.73412
94 1 38.1103 5.97803 -0.144418 38.1103 5.97803 -0.144418
95 2 39.9486 6.05168 1.55535 39.9486 6.05168 1.55535
96 2 40.0716 5.90419 -1.70131 40.0716 5.90419 -1.70131
97 1 40.9593 4.33398 0.0374993 40.9593 4.33398 0.0374993
98 2 42.8296 4.40755 1.70191 42.8296 4.40755 1.70191
99 2 42.8907 4.25895 -1.55646 42.8907 4.25895 -1.55646
100 1 43.811 5.97797 0.0149703 43.811 5.97797 0.0149703
101 2 45.7085 6.03873 1.64837 45.7085 6.03873 1.64837
102 2 45.7154 5.91531 -1.61175 45.7154 5.91531 -1.61175
103 1 46.6624 4.332 0.0825894 46.6624 4.332 0.0825894
104 2 48.5944 4.39582 1.67491 48.5944 4.39582 1.67491
105 2 48.5318 4.26573 -1.58429 48.5318 4.26573 -1.58429
106 1 49.5134 5.97493 -0.0392596 49.5134 5.97493 -0.0392596
107 2 51.467 6.0234 1.52689 51.467 6.0234 1.52689
108 2 51.3596 5.92443 -1.73229 51.3596 5.92443 -1.73229
109 1 1.05823 7.6185 -0.184628 1.05823 7.6185 -0.184628
110 2 3.02628 7.64769 1.36369 3.02628 7.64769 1.36369
111 2 2.88847 7.58804 -1.89526 2.88847 7.58804 -1.89526
112 1 3.90721 9.26321 -0.336678 3.90721 9.26321 -0.336678
113 2 5.88278 9.27203 1.20248 5.88278 9.27203 1.20248
114 2 5.72936 9.2539 -2.05616 5.72936 9.2539 -2.05616
115 1 6.7548 7.61605 -0.462717 6.7548 7.61605 -0.462717
116 2 8.73348 7.64138 1.07282 8.73348 7.64138 1.07282
117 2 8.57425 7.59062 -2.18501 8.57425 7.59062 -2.18501
118 1 9.60362 9.26214 -0.62853 9.60362 9.26214 -0.62853
119 2 11.5745 9.27164 0.917622 11.5745 9.27164 0.917622
120 2 11.4324 9.25295 -2.34119 11.4324 9.25295 -2.34119
121 1 12.4529 7.61492 -0.744142 12.4529 7.61492 -0.744142
122 2 14.4064 7.64619 0.824101 14.4064 7.64619 0.824101
123 2 14.3012 7.58424 -2.43545 14.3012 7.58424 -2.43545
124 1 15.3044 9.26194 -0.867803 15.3044 9.26194 -0.867803
125 2 17.2378 9.28199 0.725751 17.2378 9.28199 0.725751
126 2 17.1747 9.24246 -2.53513 17.1747 9.24246 -2.53513
127 1 18.1571 7.61479 -0.90346 18.1571 7.61479 -0.90346
128 2 20.0602 7.65883 0.726183 20.0602 7.65883 0.726183
129 2 20.0588 7.57177 -2.53438 20.0588 7.57177 -2.53438
130 1 21.0108 9.26218 -0.948483 21.0108 9.26218 -0.948483
131 2 22.8896 9.29847 0.709453 22.8896 9.29847 0.709453
132 2 22.9366 9.22673 -2.55112 22.9366 9.22673 -2.55112
133 1 23.8641 7.61582 -0.871065 23.8641 7.61582 -0.871065
134 2 25.7118 7.67478 0.820647 25.7118 7.67478 0.820647
135 2 25.8189 7.55838 -2.43732 25.8189 7.55838 -2.43732
136 1 26.7167 9.26331 -0.835949 26.7167 9.26331 -0.835949
137 2 28.5463 9.31563 0.875488 28.5463 9.31563 0.875488
138 2 28.6879 9.21233 -2.38166 28.6879 9.21233 -2.38166
139 1 29.5665 7.61836 -0.659641 29.5665 7.61836 -0.659641
140 2 31.3785 7.68828 1.06942 31.3785 7.68828 1.06942
141 2 31.5527 7.5502 -2.18501 31.5527 7.5502 -2.18501
142 1 32.4165 9.26563 -0.576919 32.4165 9.26563 -0.576919
143 2 34.2254 9.32603 1.15531 34.2254 9.32603 1.15531
144 2 34.4049 9.2066 -2.09969 34.4049 9.2066 -2.09969
145 1 35.2632 7.6216 -0.359461 35.2632 7.6216 -0.359461
146 2 37.0794 7.69179 1.36435 37.0794 7.69179 1.36435
147 2 37.2446 7.55232 -1.89073 37.2446 7.55232 -1.89073
148 1 38.1128 9.26788 -0.285904 38.1128 9.26788 -0.285904
149 2 39.9441 9.32257 1.42188 39.9441 9.32257 1.42188
150 2 40.08 9.21336 -1.83587 40.08 9.21336 -1.83587
151 1 40.9609 7.62318 -0.112146 40.9609 7.62318 -0.112146
152 2 42.8225 7.68184 1.5623 42.8225 7.68184 1.5623
153 2 42.9001 7.56361 -1.6971 42.9001 7.56361 -1.6971
154 1 43.8121 9.26789 -0.105119 43.8121 9.26789 -0.105119
155 2 45.6988 9.30571 1.54117 45.6988 9.30571 1.54117
156 2 45.7266 9.22869 -1.72039 45.7266 9.22869 -1.72039
157 1 46.6627 7.62165 -0.042652 46.6627 7.62165 -0.042652
158 2 48.5856 7.66374 1.56099 48.5856 7.66374 1.56099
159 2 48.5409 7.57765 -1.70011 48.5409 7.57765 -1.70011
160 1 49.5138 9.26558 -0.126769 49.5138 9.26558 -0.126769
161 2 51.4579 9.28508 1.45142 51.4579 9.28508 1.45142
162 2 51.3695 9.24456 -1.80969 51.3695 9.24456 -1.80969
163 1 1.05904 10.9102 -0.226005 1.05904 10.9102 -0.226005
164 2 3.01894 10.9061 1.33267 3.01894 10.9061 1.33267
165 2 2.89784 10.9134 -1.92755 2.89784 10.9134 -1.92755
166 1 3.90873 12.5557 -0.329628 3.90873 12.5557 -0.329628
167 2 5.87904 12.53 1.21591 5.87904 12.53 1.21591
168 2 5.73646 12.5809 -2.04291 5.73646 12.5809 -2.04291
169 1 6.75603 10.9091 -0.481179 6.75603 10.9091 -0.481179
170 2 8.73291 10.899 1.05663 8.73291 10.899 1.05663
171 2 8.5772 10.9192 -2.20174 8.5772 10.9192 -2.20174
172 1 9.60527 12.5558 -0.608074 9.60527 12.5558 -0.608074
173 2 11.5778 12.53 0.935585 11.5778 12.53 0.935585
174 2 11.4319 12.582 -2.32274 11.4319 12.582 -2.32274
175 1 12.4537 10.9092 -0.76288 12.4537 10.9092 -0.76288
176 2 14.4115 10.905 0.800207 14.4115 10.905 0.800207
177 2 14.2973 10.9137 -2.45962 14.2973 10.9137 -2.45962
178 1 15.3051 12.5567 -0.8587 15.3051 12.5567 -0.8587
179 2 17.2458 12.5416 0.725888 17.2458 12.5416 0.725888
180 2 17.1676 12.572 -2.53478 17.1676 12.572 -2.53478
181 1 18.1572 10.9095 -0.943114 18.1572 10.9095 -0.943114
182 2 20.0686 10.9201 0.677313 20.0686 10.9201 0.677313
183 2 20.0507 10.8992 -2.58425 20.0507 10.8992 -2.58425
184 1 21.0109 12.5571 -0.969176 21.0109 12.5571 -0.969176
185 2 22.8999 12.56 0.677332 22.8999 12.56 0.677332
186 2 22.9266 12.5546 -2.58423 22.9266 12.5546 -2.58423
187 1 23.8645 10.9098 -0.943321 23.8645 10.9098 -0.943321
188 2 25.7214 10.9388 0.739162 25.7214 10.9388 0.739162
189 2 25.811 10.8815 -2.52084 25.811 10.8815 -2.52084
190 1 26.7174 12.5575 -0.893649 26.7174 12.5575 -0.893649
191 2 28.5561 12.5785 0.808646 28.5561 12.5785 0.808646
192 2 28.6804 12.5372 -2.45053 28.6804 12.5372 -2.45053
193 1 29.5682 10.9109 -0.764026 29.5682 10.9109 -0.764026
194 2 31.3856 10.9544 0.960235 31.3856 10.9544 0.960235
195 2 31.5498 10.8685 -2.29646 31.5498 10.8685 -2.29646
196 1 32.4186 12.5584 -0.663762 32.4186 12.5584 -0.663762
197 2 34.2303 12.5894 1.06636 34.2303 12.5894 1.06636
198 2 34.4046 12.5284 -2.19051 34.4046 12.5284 -2.19051
199 1 35.2659 10.9127 -0.480491 35.2659 10.9127 -0.480491
200 2 37.0795 10.9587 1.24681 37.0795 10.9587 1.24681
201 2 37.2495 10.8676 -2.00976 37.2495 10.8676 -2.00976
202 1 38.1151 12.5595 -0.378295 38.1151 12.5595 -0.378295
203 2 39.9401 12.5855 1.33692 39.9401 12.5855 1.33692
204 2 40.088 12.5336 -1.92175 40.088 12.5336 -1.92175
205 1 40.9628 10.9137 -0.2231 40.9628 10.9137 -0.2231
206 2 42.8144 10.9471 1.46289 42.8144 10.9471 1.46289
207 2 42.911 10.8797 -1.79753 42.911 10.8797 -1.79753
208 1 43.8134 12.5591 -0.173827 43.8134 12.5591 -0.173827
209 2 45.688 12.567 1.48652 45.688 12.567 1.48652
210 2 45.7394 12.55 -1.77567 45.7394 12.55 -1.77567
211 1 46.6635 10.9124 -0.12109 46.6635 10.9124 -0.12109
212 2 48.5745 10.9254 1.49693 48.5745 10.9254 1.49693
213 2 48.5533 10.898 -1.76552 48.5533 10.898 -1.76552
214 1 49.5147 12.5571 -0.155007 49.5147 12.5571 -0.155007
215 2 51.4476 12.5442 1.43672 51.4476 12.5442 1.43672
216 2 51.3819 12.5687 -1.82512 51.3819 12.5687 -1.82512
217 1 1.06042 14.2021 -0.20154 1.06042 14.2021 -0.20154
218 2 3.01176 14.1655 1.36738 3.01176 14.1655 1.36738
219 2 2.90838 14.2378 -1.89267 2.90838 14.2378 -1.89267
220 1 3.91076 15.8474 -0.256693 3.91076 15.8474 -0.256693
221 2 5.87622 15.7917 1.29423 5.87622 15.7917 1.29423
222 2 5.74379 15.9026 -1.96354 5.74379 15.9026 -1.96354
223 1 6.75815 14.2018 -0.429705 6.75815 14.2018 -0.429705
224 2 8.73346 14.1585 1.10942 8.73346 14.1585 1.10942
225 2 8.58085 14.2452 -2.14804 8.58085 14.2452 -2.14804
226 1 9.60768 15.8484 -0.520191 9.60768 15.8484 -0.520191
227 2 11.5822 15.7919 1.01997 11.5822 15.7919 1.01997
228 2 11.4318 15.9052 -2.23665 11.4318 15.9052 -2.23665
229 1 12.4554 14.203 -0.709954 12.4554 14.203 -0.709954
230 2 14.4182 14.165 0.846229 14.4182 14.165 0.846229
231 2 14.2933 14.2415 -2.41237 14.2933 14.2415 -2.41237
232 1 15.3065 15.8504 -0.780796 15.3065 15.8504 -0.780796
233 2 17.255 15.8036 0.793369 17.255 15.8036 0.793369
234 2 17.1603 15.8976 -2.46573 17.1603 15.8976 -2.46573
235 1 18.1577 14.2043 -0.911853 18.1577 14.2043 -0.911853
236 2 20.0788 14.1809 0.696668 20.0788 14.1809 0.696668
237 2 20.041 14.2279 -2.56449 20.041 14.2279 -2.56449
238 1 21.0111 15.8518 -0.9211 21.0111 15.8518 -0.9211
239 2 22.9113 15.8218 0.712005 22.9113 15.8218 0.712005
240 2 22.9154 15.8821 -2.54917 22.9154 15.8821 -2.54917
241 1 23.8646 14.2048 -0.948278 23.8646 14.2048 -0.948278
242 2 25.7325 14.2003 0.722055 25.7325 14.2003 0.722055
243 2 25.8005 14.2096 -2.53895 25.8005 14.2096 -2.53895
244 1 26.7176 15.8523 -0.883887 26.7176 15.8523 -0.883887
245 2 28.5665 15.8395 0.807377 28.5665 15.8395 0.807377
246 2 28.6712 15.8655 -2.45266 28.6712 15.8655 -2.45266
247 1 29.5693 14.2051 -0.805591 29.5693 14.2051 -0.805591
248 2 31.394 14.2157 0.911416 31.394 14.2157 0.911416
249 2 31.5444 14.1951 -2.34699 31.5444 14.1951 -2.34699
250 1 32.4198 15.8525 -0.684436 32.4198 15.8525 -0.684436
251 2 34.2356 15.8491 1.04178 34.2356 15.8491 1.04178
252 2 34.4024 15.8563 -2.21602 34.4024 15.8563 -2.21602
253 1 35.268 14.2057 -0.542321 35.268 14.2057 -0.542321
254 2 37.0805 14.2194 1.18673 37.0805 14.2194 1.18673
255 2 37.2527 14.1923 -2.07087 37.2527 14.1923 -2.07087
256 1 38.1169 15.8523 -0.405886 38.1169 15.8523 -0.405886
257 2 39.9369 15.8447 1.31497 39.9369 15.8447 1.31497
258 2 40.0944 15.8596 -1.9436 40.0944 15.8596 -1.9436
259 1 40.9646 14.2056 -0.276029 40.9646 14.2056 -0.276029
260 2 42.8066 14.2074 1.4208 42.8066 14.2074 1.4208
261 2 42.9216 14.2031 -1.83972 42.9216 14.2031 -1.83972
262 1 43.8146 15.8509 -0.178619 43.8146 15.8509 -0.178619
263 2 45.678 15.8269 1.49422 45.678 15.8269 1.49422
264 2 45.7513 15.8736 -1.76723 45.7513 15.8736 -1.76723
265 1 46.6645 14.204 -0.138837 46.6645 14.204 -0.138837
266 2 48.5631 14.1851 1.49364 48.5631 14.1851 1.49364
267 2 48.5667 14.2214 -1.7688 48.5667 14.2214 -1.7688
268 1 49.5157 15.8486 -0.118842 49.5157 15.8486 -0.118842
269 2 51.438 15.8051 1.48529 51.438 15.8051 1.48529
270 2 51.3941 15.8906 -1.77587 51.3941 15.8906 -1.77587
271 1 1.06192 17.4931 -0.11536 1.06192 17.4931 -0.11536
272 2 3.00592 17.4298 1.46197 3.00592 17.4298 1.46197
273 2 2.91795 17.5551 -1.79688 2.91795 17.5551 -1.79688
274 1 3.91282 19.1376 -0.130119 3.91282 19.1376 -0.130119
275 2 5.87469 19.0609 1.42464 5.87469 19.0609 1.42464
276 2 5.75004 19.2137 -1.8317 5.75004 19.2137 -1.8317
277 1 6.76069 17.493 -0.317482 6.76069 17.493 -0.317482
278 2 8.73493 17.4237 1.22209 8.73493 17.4237 1.22209
279 2 8.58453 17.5624 -2.0337 8.58453 17.5624 -2.0337
280 1 9.61041 19.1389 -0.379672 9.61041 19.1389 -0.379672
281 2 11.587 19.0612 1.15689 11.587 19.0612 1.15689
282 2 11.4321 19.2173 -2.09781 11.4321 19.2173 -2.09781
283 1 12.4577 17.4951 -0.594966 12.4577 17.4951 -0.594966
284 2 14.4255 17.4299 0.953849 14.4255 17.4299 0.953849
285 2 14.2897 17.5611 -2.30266 14.2897 17.5611 -2.30266
286 1 15.3084 19.1419 -0.64762 15.3084 19.1419 -0.64762
287 2 17.2641 19.0715 0.916585 17.2641 19.0715 0.916585
288 2 17.154 19.2134 -2.34042 17.154 19.2134 -2.34042
289 1 18.1587 17.4976 -0.816199 18.1587 17.4976 -0.816199
290 2 20.0895 17.4449 0.779734 20.0895 17.4449 0.779734
291 2 20.0314 17.551 -2.47984 20.0314 17.551 -2.47984
292 1 21.0115 19.1446 -0.813251 21.0115 19.1446 -0.813251
293 2 22.922 19.0873 0.806914 22.922 19.0873 0.806914
294 2 22.9051 19.203 -2.45284 22.9051 19.203 -2.45284
295 1 23.8645 17.4991 -0.886826 23.8645 17.4991 -0.886826
296 2 25.7435 17.4627 0.770491 25.7435 17.4627 0.770491
297 2 25.7895 17.536 -2.49016 25.7895 17.536 -2.49016
298 1 26.7175 19.1461 -0.809283 26.7175 19.1461 -0.809283
299 2 28.5756 19.1018 0.871069 28.5756 19.1018 0.871069
300 2 28.662 19.191 -2.38846 28.662 19.191 -2.38846
301 1 29.5696 17.4996 -0.778933 29.5696 17.4996 -0.778933
302 2 31.402 17.4759 0.929759 31.402 17.4759 0.929759
303 2 31.5378 17.5236 -2.32901 31.5378 17.5236 -2.32901
304 1 32.4202 19.1463 -0.63599 32.4202 19.1463 -0.63599
305 2 34.2402 19.1089 1.08541 34.2402 19.1089 1.08541
306 2 34.399 19.1836 -2.17195 34.399 19.1836 -2.17195
307 1 35.2692 17.4993 -0.535002 35.2692 17.4993 -0.535002
308 2 37.0819 17.4783 1.194 37.0819 17.4783 1.194
309 2 37.254 17.5201 -2.06342 37.254 17.5201 -2.06342
310 1 38.1178 19.145 -0.363546 38.1178 19.145 -0.363546
311 2 39.9346 19.1045 1.36036 39.9346 19.1045 1.36036
312 2 40.0983 19.1846 -1.8969 40.0983 19.1846 -1.8969
313 1 40.9658 17.4979 -0.261222 40.9658 17.4979 -0.261222
314 2 42.8001 17.4671 1.44386 42.8001 17.4671 1.44386
315 2 42.9301 17.5276 -1.81548 42.9301 17.5276 -1.81548
316 1 43.8152 19.1424 -0.117648 43.8152 19.1424 -0.117648
317 2 45.6704 19.0896 1.56402 45.6704 19.0896 1.56402
318 2 45.7602 19.1931 -1.69561 45.7602 19.1931 -1.69561
319 1 46.6653 17.4954 -0.0920344 46.6653 17.4954 -0.0920344
320 2 48.5534 17.4473 1.55231 48.5534 17.4473 1.55231
321 2 48.5782 17.5416 -1.70881 48.5782 17.5416 -1.70881
322 1 49.5166 19.1392 -0.0237522 49.5166 19.1392 -0.0237522
323 2 51.4308 19.0719 1.58958 51.4308 19.0719 1.58958
324 2 51.4038 19.2045 -1.67008 51.4038 19.2045 -1.67008
325 1 1.06319 20.7828 0.0185964 1.06319 20.7828 0.0185964
326 2 3.00239 20.703 1.60144 3.00239 20.703 1.60144
327 2 2.92484 20.8611 -1.65614 2.92484 20.8611 -1.65614
328 1 3.91459 22.4267 0.0297839 3.91459 22.4267 0.0297839
329 2 5.87474 22.3411 1.5866 5.87474 22.3411 1.5866
330 2 5.75417 22.5116 -1.66894 5.75417 22.5116 -1.66894
331 1 6.76319 20.7826 -0.162768 6.76319 20.7826 -0.162768
332 2 8.73705 20.6983 1.37669 8.73705 20.6983 1.37669
333 2 8.58758 20.8669 -1.87772 8.58758 20.8669 -1.87772
334 1 9.61302 22.428 -0.208878 9.61302 22.428 -0.208878
335 2 11.5915 22.3413 1.32483 11.5915 22.3413 1.32483
336 2 11.4325 22.5155 -1.9288 11.4325 22.5155 -1.9288
337 1 12.4602 20.7851 -0.436709 12.4602 20.7851 -0.436709
338 2 14.4323 20.7034 1.10573 14.4323 20.7034 1.10573
339 2 14.2872 20.8681 -2.14895 14.2872 20.8681 -2.14895
340 1 15.3105 22.4315 -0.480549 15.3105 22.4315 -0.480549
341 2 17.2715 22.3486 1.0761 17.2715 22.3486 1.0761
342 2 17.1497 22.5161 -2.1794 17.1497 22.5161 -2.1794
343 1 18.16 20.7887 -0.672178 18.16 20.7887 -0.672178
344 2 20.0988 20.7152 0.912895 20.0988 20.7152 0.912895
345 2 20.0236 20.8635 -2.34483 20.0236 20.8635 -2.34483
346 1 21.0122 22.4353 -0.662812 21.0122 22.4353 -0.662812
347 2 22.9301 22.3593 0.94743 22.9301 22.3593 0.94743
348 2 22.8974 22.513 -2.3108 22.8974 22.513 -2.3108
349 1 23.8646 20.7915 -0.769266 23.8646 20.7915 -0.769266
350 2 25.7527 20.7289 0.876597 25.7527 20.7289 0.876597
351 2 25.7801 20.8552 -2.38276 25.7801 20.8552 -2.38276
352 1 26.7171 22.4379 -0.681191 26.7171 22.4379 -0.681191
353 2 28.5823 22.3688 0.99036 28.5823 22.3688 0.99036
354 2 28.6545 22.5081 -2.26787 28.6545 22.5081 -2.26787
355 1 29.5694 20.7927 -0.688379 29.5694 20.7927 -0.688379
356 2 31.4083 20.7384 1.01248 31.4083 20.7384 1.01248
357 2 31.5313 20.8474 -2.24538 31.5313 20.8474 -2.24538
358 1 32.4197 22.4383 -0.525474 32.4197 22.4383 -0.525474
359 2 34.2435 22.3728 1.19105 34.2435 22.3728 1.19105
360 2 34.3949 22.5038 -2.06492 34.3949 22.5038 -2.06492
361 1 35.2694 20.792 -0.459247 35.2694 20.792 -0.459247
362 2 37.0831 20.7393 1.26807 37.0831 20.7393 1.26807
363 2 37.2532 20.8441 -1.98802 37.2532 20.8441 -1.98802
364 1 38.1175 22.4364 -0.257435 38.1175 22.4364 -0.257435
365 2 39.9337 22.3694 1.46653 39.9337 22.3694 1.46653
366 2 40.0988 22.5019 -1.78888 40.0988 22.5019 -1.78888
367 1 40.9661 20.7894 -0.18022 40.9661 20.7894 -0.18022
368 2 42.7958 20.7305 1.5293 42.7958 20.7305 1.5293
369 2 42.9349 20.8465 -1.72807 42.9349 20.8465 -1.72807
370 1 43.8151 22.4325 -0.000319803 43.8151 22.4325 -0.000319803
371 2 45.6663 22.3597 1.68528 45.6663 22.3597 1.68528
372 2 45.7642 22.503 -1.57247 45.7642 22.503 -1.57247
373 1 46.6656 20.7857 0.0123785 46.6656 20.7857 0.0123785
374 2 48.5469 20.7158 1.66414 48.5469 20.7158 1.66414
375 2 48.5858 20.8532 -1.59517 48.5858 20.8532 -1.59517
376 1 49.5171 22.4286 0.115057 49.5171 22.4286 0.115057
377 2 51.4271 22.3484 1.7332 51.4271 22.3484 1.7332
378 2 51.4092 22.5066 -1.52523 51.4092 22.5066 -1.52523
379 1 1.06409 24.0717 0.178638 1.06409 24.0717 0.178638
380 2 3.0018 23.9884 1.7636 3.0018 23.9884 1.7636
381 2 2.92801 24.1536 -1.49358 2.92801 24.1536 -1.49358
382 1 3.9159 25.7158 0.197043 3.9159 25.7158 0.197043
383 2 5.87642 25.6355 1.7541 5.87642 25.6355 1.7541
384 2 5.75565 25.7955 -1.50186 5.75565 25.7955 -1.50186
385 1 6.76529 24.0714 0.0098501 6.76529 24.0714 0.0098501
386 2 8.73959 23.9857 1.54895 8.73959 23.9857 1.54895
387 2 8.5895 24.1572 -1.70526 8.5895 24.1572 -1.70526
388 1 9.61512 25.7169 -0.0350853 9.61512 25.7169 -0.0350853
389 2 11.5951 25.6353 1.49718 11.5951 25.6353 1.49718
390 2 11.433 25.7993 -1.75685 11.433 25.7993 -1.75685
391 1 12.4626 24.0739 -0.260193 12.4626 24.0739 -0.260193
392 2 14.4377 23.9885 1.27815 14.4377 23.9885 1.27815
393 2 14.2859 24.1608 -1.97593 14.2859 24.1608 -1.97593
394 1 15.3123 25.7202 -0.30587 15.3123 25.7202 -0.30587
395 2 17.2761 25.6377 1.2472 17.2761 25.6377 1.2472
396 2 17.148 25.8046 -2.00825 17.148 25.8046 -2.00825
397 1 18.1614 24.0779 -0.502375 18.1614 24.0779 -0.502375
398 2 20.1053 23.995 1.07577 20.1053 23.995 1.07577
399 2 20.0189 24.1629 -2.18091 20.0189 24.1629 -2.18091
400 1 21.0129 25.7243 -0.492775 21.0129 25.7243 -0.492775
401 2 22.9344 25.6413 1.11257 22.9344 25.6413 1.11257
402 2 22.8936 25.8097 -2.14503 22.8936 25.8097 -2.14503
403 1 23.8646 24.0817 -0.613372 23.8646 24.0817 -0.613372
404 2 25.7586 24.0023 1.02481 25.7586 24.0023 1.02481
405 2 25.7736 24.1628 -2.23329 25.7736 24.1628 -2.23329
406 1 26.7165 25.7276 -0.518586 26.7165 25.7276 -0.518586
407 2 28.5854 25.6443 1.14786 28.5854 25.6443 1.14786
408 2 28.6496 25.8125 -2.10932 28.6496 25.8125 -2.10932
409 1 29.5686 24.0836 -0.547185 29.5686 24.0836 -0.547185
410 2 31.4122 24.0071 1.14765 31.4122 24.0071 1.14765
411 2 31.5257 24.1609 -2.10884 31.5257 24.1609 -2.10884
412 1 32.4184 25.7283 -0.369579 32.4184 25.7283 -0.369579
413 2 34.2454 25.6453 1.34272 34.2454 25.6453 1.34272
414 2 34.3903 25.8114 -1.91199 34.3903 25.8114 -1.91199
415 1 35.2685 24.0828 -0.32649 35.2685 24.0828 -0.32649
416 2 37.0844 24.007 1.39777 37.0844 24.007 1.39777
417 2 37.2503 24.1577 -1.85672 37.2503 24.1577 -1.85672
418 1 38.116 25.726 -0.104779 38.116 25.726 -0.104779
419 2 39.9346 25.6441 1.6163 39.9346 25.6441 1.6163
420 2 40.0954 25.8062 -1.63791 40.0954 25.8062 -1.63791
421 1 40.9654 24.0794 -0.0460131 40.9654 24.0794 -0.0460131
422 2 42.7946 24.0024 1.66357 42.7946 24.0024 1.66357
423 2 42.9349 24.1542 -1.59215 42.9349 24.1542 -1.59215
424 1 43.8142 25.7216 0.1535 43.8142 25.7216 0.1535
425 2 45.6667 25.6414 1.83784 45.6667 25.6414 1.83784
426 2 45.7628 25.7995 -1.4191 45.7628 25.7995 -1.4191
427 1 46.6654 24.0749 0.157302 46.6654 24.0749 0.157302
428 2 48.5448 23.995 1.81122 48.5448 23.995 1.81122
429 2 48.5881 24.1524 -1.44695 48.5881 24.1524 -1.44695
430 1 49.5172 25.7176 0.274363 49.5172 25.7176 0.274363
431 2 51.4276 25.6381 1.89259 51.4276 25.6381 1.89259
432 2 51.4097 25.7952 -1.36571 51.4097 25.7952 -1.36571
433 1 1.06464 27.3613 0.337758 1.06464 27.3613 0.337758
434 2 3.00427 27.2887 1.92139 3.00427 27.2887 1.92139
435 2 2.92725 27.4327 -1.33657 2.92725 27.4327 -1.33657
436 1 3.9167 29.0064 0.342945 3.9167 29.0064 0.342945
437 2 5.87951 28.9455 1.8984 5.87951 28.9455 1.8984
438 2 5.75445 29.0667 -1.35899 5.75445 29.0667 -1.35899
439 1 6.76675 27.361 0.171929 6.76675 27.361 0.171929
440 2 8.74217 27.2883 1.71059 8.74217 27.2883 1.71059
441 2 8.59007 27.4338 -1.54475 8.59007 27.4338 -1.54475
442 1 9.61637 29.0071 0.112335 9.61637 29.0071 0.112335
443 2 11.5969 28.9447 1.64491 11.5969 28.9447 1.64491
444 2 11.4336 29.0701 -1.6108 11.4336 29.0701 -1.6108
445 1 12.4643 27.3631 -0.0939536 12.4643 27.3631 -0.0939536
446 2 14.4406 27.2878 1.44349 14.4406 27.2878 1.44349
447 2 14.2861 27.4396 -1.81158 14.2861 27.4396 -1.81158
448 1 15.3135 29.0096 -0.152169 15.3135 29.0096 -0.152169
449 2 17.2768 28.9413 1.40212 17.2768 28.9413 1.40212
450 2 17.1491 29.0796 -1.85482 17.1491 29.0796 -1.85482
451 1 18.1625 27.3667 -0.33338 18.1625 27.3667 -0.33338
452 2 20.1076 27.2874 1.24321 20.1076 27.2874 1.24321
453 2 20.018 27.4482 -2.01391 20.018 27.4482 -2.01391
454 1 21.0132 29.0132 -0.330034 21.0132 29.0132 -0.330034
455 2 22.9339 28.9367 1.27642 22.9339 28.9367 1.27642
456 2 22.894 29.092 -1.98203 22.894 29.092 -1.98203
457 1 23.8645 27.3705 -0.44286 23.8645 27.3705 -0.44286
458 2 25.7601 27.2868 1.19291 25.7601 27.2868 1.19291
459 2 25.771 27.4564 -2.06493 25.771 27.4564 -2.06493
460 1 26.7156 29.0163 -0.346915 26.7156 29.0163 -0.346915
461 2 28.5847 28.9325 1.31902 28.5847 28.9325 1.31902
462 2 28.6476 29.1018 -1.93829 28.6476 29.1018 -1.93829
463 1 29.5672 27.3728 -0.376827 29.5672 27.3728 -0.376827
464 2 31.4133 27.2863 1.31471 31.4133 27.2863 1.31471
465 2 31.5215 27.4601 -1.94107 31.5215 27.4601 -1.94107
466 1 32.4162 29.0171 -0.193473 32.4162 29.0171 -0.193473
467 2 34.2458 28.9308 1.51579 34.2458 28.9308 1.51579
468 2 34.3854 29.1034 -1.73888 34.3854 29.1034 -1.73888
469 1 35.2665 27.3719 -0.158171 35.2665 27.3719 -0.158171
470 2 37.0858 27.2862 1.56205 37.0858 27.2862 1.56205
471 2 37.2451 27.4568 -1.69178 37.2451 27.4568 -1.69178
472 1 38.1137 29.0147 0.0681775 38.1137 29.0147 0.0681775
473 2 39.9375 28.9327 1.78387 39.9375 28.9327 1.78387
474 2 40.0886 29.0953 -1.47071 40.0886 29.0953 -1.47071
475 1 40.9637 27.3683 0.118303 40.9637 27.3683 0.118303
476 2 42.7969 27.287 1.82376 42.7969 27.287 1.82376
477 2 42.9301 27.4476 -1.43171 42.9301 27.4476 -1.43171
478 1 43.8128 29.0108 0.316401 43.8128 29.0108 0.316401
479 2 45.6714 28.9378 1.99474 45.6714 28.9378 1.99474
480 2 45.7563 29.0821 -1.26299 45.7563 29.0821 -1.26299
481 1 46.6648 27.3641 0.317532 46.6648 27.3641 0.317532
482 2 48.5475 27.2882 1.96841 48.5475 27.2882 1.96841
483 2 48.5851 27.4379 -1.29001 48.5851 27.4379 -1.29001
484 1 49.5171 29.0076 0.426095 49.5171 29.0076 0.426095
485 2 51.4322 28.943 2.03996 51.4322 28.943 2.03996
486 2 51.4056 29.071 -1.21938 51.4056 29.071 -1.21938
487 1 1.06491 30.6528 0.467514 1.06491 30.6528 0.467514
488 2 3.00939 30.6043 2.04653 3.00939 30.6043 2.04653
489 2 2.92297 30.7006 -1.21282 2.92297 30.7006 -1.21282
490 1 3.91691 32.2992 0.440645 3.91691 32.2992 0.440645
491 2 5.88347 32.2694 1.99255 5.88347 32.2694 1.99255
492 2 5.75088 32.3285 -1.26619 5.75088 32.3285 -1.26619
493 1 6.76741 30.6526 0.294744 6.76741 30.6526 0.294744
494 2 8.74427 30.6062 1.83282 8.74427 30.6062 1.83282
495 2 8.58932 30.6988 -1.42429 8.58932 30.6988 -1.42429
496 1 9.61655 32.2994 0.206153 9.61655 32.2994 0.206153
497 2 11.5965 32.2682 1.74059 11.5965 32.2682 1.74059
498 2 11.4344 32.3308 -1.51703 11.4344 32.3308 -1.51703
499 1 12.4651 30.6538 0.0330982 12.4651 30.6538 0.0330982
500 2 14.4401 30.6023 1.57311 14.4401 30.6023 1.57311
501 2 14.2879 30.7062 -1.68402 14.2879 30.7062 -1.68402
502 1 15.3136 32.3008 -0.0471051 15.3136 32.3008 -0.0471051
503 2 17.273 32.2595 1.51305 17.273 32.2595 1.51305
504 2 17.1531 32.3431 -1.74616 17.1531 32.3431 -1.74616
505 1 18.163 30.6564 -0.193476 18.163 30.6564 -0.193476
506 2 20.1052 30.5945 1.38731 20.1052 30.5945 1.38731
507 2 20.0209 30.7201 -1.87165 20.0209 30.7201 -1.87165
508 1 21.013 32.3032 -0.203044 21.013 32.3032 -0.203044
509 2 22.9284 32.2473 1.41034 22.9284 32.2473 1.41034
510 2 22.8984 32.3609 -1.85008 22.8984 32.3609 -1.85008
511 1 23.864 30.6595 -0.285725 23.864 30.6595 -0.285725
512 2 25.757 30.5859 1.35338 25.757 30.5859 1.35338
513 2 25.7724 30.7352 -1.90561 25.7724 30.7352 -1.90561
514 1 26.7142 32.3056 -0.195915 26.7142 32.3056 -0.195915
515 2 28.5801 32.2366 1.47421 28.5801 32.2366 1.47421
516 2 28.6487 32.3761 -1.78452 28.6487 32.3761 -1.78452
517 1 29.5654 30.6615 -0.205454 29.5654 30.6615 -0.205454
518 2 31.4116 30.5802 1.48601 31.4116 30.5802 1.48601
519 2 31.5189 30.7437 -1.77044 31.5189 30.7437 -1.77044
520 1 32.4136 32.3062 -0.0279382 32.4136 32.3062 -0.0279382
521 2 34.2451 32.2323 1.6799 34.2451 32.2323 1.6799
522 2 34.3808 32.3801 -1.57618 34.3808 32.3801 -1.57618
523 1 35.2638 30.6607 0.0167859 35.2638 30.6607 0.0167859
524 2 37.0876 30.5804 1.73253 37.0876 30.5804 1.73253
525 2 37.2383 30.7403 -1.52224 37.2383 30.7403 -1.52224
526 1 38.1111 32.3043 0.230408 38.1111 32.3043 0.230408
527 2 39.9423 32.2372 1.93898 39.9423 32.2372 1.93898
528 2 40.0794 32.3705 -1.31746 40.0794 32.3705 -1.31746
529 1 40.9616 30.6576 0.283275 40.9616 30.6576 0.283275
530 2 42.8026 30.5869 1.98111 42.8026 30.5869 1.98111
531 2 42.9213 30.7269 -1.27575 42.9213 30.7269 -1.27575
532 1 43.8115 32.3016 0.458572 43.8115 32.3016 0.458572
533 2 45.6799 32.2491 2.12708 45.6799 32.2491 2.12708
534 2 45.7462 32.3531 -1.13248 45.7462 32.3531 -1.13248
535 1 46.6641 30.6545 0.464006 46.6641 30.6545 0.464006
536 2 48.5544 30.5966 2.10726 48.5544 30.5966 2.10726
537 2 48.5776 30.7112 -1.15255 48.5776 30.7112 -1.15255