ITEM: TIMESTEP
11000
ITEM: NUMBER OF ATOMS
810
ITEM: BOX BOUNDS pp pp pp
8.4791501197765484e-01 5.2169689988021837e+01
8.2016605103613627e-01 5.0196048948963274e+01
-1.0000000000000000e+01 1.0000000000000000e+01
ITEM: ATOMS id type x y z xu yu zu
1 1 1.05256 1.03269 0.0572603 1.05256 1.03269 0.0572603
2 2 2.99192 0.968133 1.64126 2.99192 0.968133 1.64126
3 2 2.91472 1.09745 -1.61743 2.91472 1.09745 -1.61743
4 1 3.9041 2.67838 0.0548228 3.9041 2.67838 0.0548228
5 2 5.85265 2.61539 1.6277 5.85265 2.61539 1.6277
6 2 5.75653 2.74161 -1.63059 5.75653 2.74161 -1.63059
7 1 6.75439 1.03374 -0.0933986 6.75439 1.03374 -0.0933986
8 2 8.70536 0.968058 1.47633 8.70536 0.968058 1.47633
9 2 8.60409 1.09963 -1.78163 8.60409 1.09963 -1.78163
10 1 9.60537 2.67954 -0.115573 9.60537 2.67954 -0.115573
11 2 11.5541 2.61555 1.45708 11.5541 2.61555 1.45708
12 2 11.4574 2.74374 -1.80116 11.4574 2.74374 -1.80116
13 1 12.4555 1.035 -0.265148 12.4555 1.035 -0.265148
14 2 14.3954 50.3446 1.31845 14.3954 0.96871 1.31845
15 2 14.317 1.10142 -1.94009 14.317 1.10142 -1.94009
16 1 15.3069 2.68062 -0.266435 15.3069 2.68062 -0.266435
17 2 17.2349 2.61624 1.33176 17.2349 2.61624 1.33176
18 2 17.1807 2.74514 -1.92747 17.1807 2.74514 -1.92747
19 1 18.1581 1.0359 -0.378852 18.1581 1.0359 -0.378852
20 2 20.0697 50.3455 1.23899 20.0697 0.96965 1.23899
21 2 20.0489 1.10217 -2.02044 20.0489 1.10217 -2.02044
22 1 21.0099 2.68117 -0.329596 21.0099 2.68117 -0.329596
23 2 22.9054 2.61684 1.30719 22.9054 2.61684 1.30719
24 2 22.9167 2.74555 -1.95248 22.9167 2.74555 -1.95248
25 1 23.8618 1.03606 -0.384401 23.8618 1.03606 -0.384401
26 2 25.7398 0.970149 1.27242 25.7398 0.970149 1.27242
27 2 25.7859 1.10189 -1.98677 25.7859 1.10189 -1.98677
28 1 26.713 2.68094 -0.276925 26.713 2.68094 -0.276925
29 2 28.5777 2.617 1.39495 28.5777 2.617 1.39495
30 2 28.6498 2.74478 -1.86397 28.6498 2.74478 -1.86397
31 1 29.5644 1.03538 -0.278085 29.5644 1.03538 -0.278085
32 2 31.418 0.969936 1.40607 31.418 0.969936 1.40607
33 2 31.5118 1.1006 -1.85214 31.5118 1.1006 -1.85214
34 1 32.4146 2.67993 -0.129395 32.4146 2.67993 -0.129395
35 2 34.2649 2.61681 1.55836 34.2649 2.61681 1.55836
36 2 34.365 2.74288 -1.69985 34.365 2.74288 -1.69985
37 1 35.2656 1.03408 -0.10532 35.2656 1.03408 -0.10532
38 2 37.1171 0.969274 1.58091 37.1171 0.969274 1.58091
39 2 37.2148 1.09866 -1.67724 37.2148 1.09866 -1.67724
40 1 38.1157 2.67862 0.0459291 38.1157 2.67862 0.0459291
41 2 39.9773 2.6164 1.72113 39.9773 2.6164 1.72113
42 2 40.0557 2.74076 -1.5377 40.0557 2.74076 -1.5377
43 1 40.9672 1.03283 0.0516345 40.9672 1.03283 0.0516345
44 2 42.8416 0.968738 1.71214 42.8416 0.968738 1.71214
45 2 42.8949 1.09689 -1.54707 42.8949 1.09689 -1.54707
46 1 43.8186 2.67773 0.162932 43.8186 2.67773 0.162932
47 2 45.7113 2.61607 1.80277 45.7113 2.61607 1.80277
48 2 45.7287 2.73951 -1.45697 45.7287 2.73951 -1.45697
49 1 46.6707 1.03232 0.115452 46.6707 1.03232 0.115452
50 2 48.5803 0.96847 1.73535 48.5803 0.96847 1.73535
51 2 48.5638 1.0963 -1.52427 48.5638 1.0963 -1.52427
52 1 49.5228 2.67768 0.165398 49.5228 2.67768 0.165398
53 2 51.4497 2.61574 1.7648 51.4497 2.61574 1.7648
54 2 51.3983 2.73983 -1.49456 51.3983 2.73983 -1.49456
55 1 1.05311 4.32342 0.182933 1.05311 4.32342 0.182933
56 2 2.9938 4.266 1.76585 2.9938 4.266 1.76585
57 2 2.91418 4.38108 -1.49326 2.91418 4.38108 -1.49326
58 1 3.9048 5.96951 0.171395 3.9048 5.96951 0.171395
59 2 5.85447 5.91928 1.74356 5.85447 5.91928 1.74356
60 2 5.75623 6.01998 -1.51553 5.75623 6.01998 -1.51553
61 1 6.7553 4.32429 0.0344506 6.7553 4.32429 0.0344506
62 2 8.70742 4.26579 1.60318 8.70742 4.26579 1.60318
63 2 8.60381 4.38305 -1.65525 8.60381 4.38305 -1.65525
64 1 9.60622 5.97037 0.00321482 9.60622 5.97037 0.00321482
65 2 11.5561 5.9192 1.57502 11.5561 5.9192 1.57502
66 2 11.4569 6.02179 -1.68409 11.4569 6.02179 -1.68409
67 1 12.4564 4.32536 -0.135294 12.4564 4.32536 -0.135294
68 2 14.3976 4.26606 1.4469 14.3976 4.26606 1.4469
69 2 14.3162 4.38487 -1.81216 14.3162 4.38487 -1.81216
70 1 15.3075 5.97121 -0.146081 15.3075 5.97121 -0.146081
71 2 17.2368 5.91932 1.45095 17.2368 5.91932 1.45095
72 2 17.1796 6.0233 -1.8092 17.1796 6.0233 -1.8092
73 1 18.1584 4.32615 -0.248287 18.1584 4.32615 -0.248287
74 2 20.0716 4.2665 1.36785 20.0716 4.2665 1.36785
75 2 20.0472 4.38595 -1.89215 20.0472 4.38595 -1.89215
76 1 21.0099 5.97165 -0.208607 21.0099 5.97165 -0.208607
77 2 22.9069 5.91936 1.42679 22.9069 5.91936 1.42679
78 2 22.9148 6.02408 -1.83384 22.9148 6.02408 -1.83384
79 1 23.8614 4.32632 -0.254039 23.8614 4.32632 -0.254039
80 2 25.7412 4.26673 1.4009 25.7412 4.26673 1.4009
81 2 25.7834 4.38595 -1.85892 25.7834 4.38595 -1.85892
82 1 26.7124 5.97148 -0.156151 26.7124 5.97148 -0.156151
83 2 28.579 5.91951 1.51395 28.579 5.91951 1.51395
84 2 28.647 6.02349 -1.74596 28.647 6.02349 -1.74596
85 1 29.5636 4.32574 -0.148636 29.5636 4.32574 -0.148636
86 2 31.4193 4.26688 1.53338 31.4193 4.26688 1.53338
87 2 31.5088 4.38452 -1.72549 31.5088 4.38452 -1.72549
88 1 32.4138 5.97071 -0.0101945 32.4138 5.97071 -0.0101945
89 2 34.2664 5.91993 1.67545 34.2664 5.91993 1.67545
90 2 34.3619 6.02145 -1.58376 34.3619 6.02145 -1.58376
91 1 35.2646 4.32461 0.0224289 35.2646 4.32461 0.0224289
92 2 37.1185 4.26691 1.70643 37.1185 4.26691 1.70643
93 2 37.2118 4.38223 -1.55235 37.2118 4.38223 -1.55235
94 1 38.115 5.9697 0.162784 38.115 5.9697 0.162784
95 2 39.9789 5.92011 1.83603 39.9789 5.92011 1.83603
96 2 40.053 6.01933 -1.42371 40.053 6.01933 -1.42371
97 1 40.9666 4.32354 0.177636 40.9666 4.32354 0.177636
98 2 42.8433 4.26669 1.83608 42.8433 4.26669 1.83608
99 2 42.8924 4.38048 -1.42365 42.8924 4.38048 -1.42365
100 1 43.8183 5.96902 0.278216 43.8183 5.96902 0.278216
101 2 45.713 5.91991 1.91647 45.713 5.91991 1.91647
102 2 45.7268 6.01832 -1.34404 45.7268 6.01832 -1.34404
103 1 46.6707 4.3231 0.24049 46.6707 4.3231 0.24049
104 2 48.5821 4.2664 1.85873 48.5821 4.2664 1.85873
105 2 48.5623 4.38003 -1.4013 48.5623 4.38003 -1.4013
106 1 49.5231 5.96898 0.280498 49.5231 5.96898 0.280498
107 2 51.4515 5.9196 1.87884 51.4515 5.9196 1.87884
108 2 51.3974 6.01861 -1.38126 51.3974 6.01861 -1.38126
109 1 1.05354 7.61529 0.28323 1.05354 7.61529 0.28323
110 2 2.99535 7.57552 1.86554 2.99535 7.57552 1.86554
111 2 2.91369 7.65528 -1.39452 2.91369 7.65528 -1.39452
112 1 3.90527 9.26191 0.252208 3.90527 9.26191 0.252208
113 2 5.85576 9.23377 1.82405 5.85576 9.23377 1.82405
114 2 5.75596 9.29019 -1.43604 5.75596 9.29019 -1.43604
115 1 6.756 7.61587 0.136472 6.756 7.61587 0.136472
116 2 8.70906 7.57533 1.70473 8.70906 7.57533 1.70473
117 2 8.60357 7.65661 -1.55473 8.60357 7.65661 -1.55473
118 1 9.60678 9.26237 0.0855544 9.60678 9.26237 0.0855544
119 2 11.5574 9.23358 1.65712 11.5574 9.23358 1.65712
120 2 11.4567 9.2913 -1.60306 11.4567 9.2913 -1.60306
121 1 12.457 7.61657 -0.031361 12.457 7.61657 -0.031361
122 2 14.3993 7.57519 1.55021 14.3993 7.57519 1.55021
123 2 14.3156 7.65815 -1.70995 14.3156 7.65815 -1.70995
124 1 15.3079 9.26282 -0.0620409 15.3079 9.26282 -0.0620409
125 2 17.2379 9.23315 1.53471 17.2379 9.23315 1.53471
126 2 17.179 9.29264 -1.72657 17.179 9.29264 -1.72657
127 1 18.1587 7.61711 -0.142962 18.1587 7.61711 -0.142962
128 2 20.073 7.57495 1.47237 20.073 7.57495 1.47237
129 2 20.046 7.65943 -1.78878 20.046 7.65943 -1.78878
130 1 21.0099 9.26307 -0.123034 21.0099 9.26307 -0.123034
131 2 22.9077 9.23259 1.51187 22.9077 9.23259 1.51187
132 2 22.9137 9.29368 -1.74993 22.9137 9.29368 -1.74993
133 1 23.8611 7.61723 -0.147964 23.8611 7.61723 -0.147964
134 2 25.7424 7.57478 1.50579 25.7424 7.57478 1.50579
135 2 25.7814 7.65979 -1.75521 25.7814 7.65979 -1.75521
136 1 26.712 9.26298 -0.0700301 26.712 9.26298 -0.0700301
137 2 28.5801 9.23261 1.5989 28.5801 9.23261 1.5989
138 2 28.645 9.29343 -1.6622 28.645 9.29343 -1.6622
139 1 29.5629 7.61684 -0.0432825 29.5629 7.61684 -0.0432825
140 2 31.4207 7.5752 1.63695 31.4207 7.5752 1.63695
141 2 31.5059 7.65851 -1.62311 31.5059 7.65851 -1.62311
142 1 32.4131 9.26255 0.0742437 32.4131 9.26255 0.0742437
143 2 34.2678 9.23339 1.75819 34.2678 9.23339 1.75819
144 2 34.3592 9.29176 -1.50219 34.3592 9.29176 -1.50219
145 1 35.2639 7.61608 0.125321 35.2639 7.61608 0.125321
146 2 37.12 7.57586 1.80742 37.12 7.57586 1.80742
147 2 37.2089 7.65635 -1.4525 37.2089 7.65635 -1.4525
148 1 38.1145 9.26201 0.244367 38.1145 9.26201 0.244367
149 2 39.9802 9.23401 1.9162 39.9802 9.23401 1.9162
150 2 40.0508 9.29009 -1.3446 40.0508 9.29009 -1.3446
151 1 40.9661 7.61538 0.278181 40.9661 7.61538 0.278181
152 2 42.8448 7.57598 1.93516 42.8448 7.57598 1.93516
153 2 42.8903 7.65491 -1.32558 42.8903 7.65491 -1.32558
154 1 43.8181 9.26164 0.358188 43.8181 9.26164 0.358188
155 2 45.7141 9.23398 1.99556 45.7141 9.23398 1.99556
156 2 45.7255 9.28946 -1.26591 45.7255 9.28946 -1.26591
157 1 46.6707 7.61509 0.340179 46.6707 7.61509 0.340179
158 2 48.5836 7.57576 1.95741 48.5836 7.57576 1.95741
159 2 48.5611 7.65463 -1.30355 48.5611 7.65463 -1.30355
160 1 49.5233 9.26162 0.360397 49.5233 9.26162 0.360397
161 2 51.4527 9.23384 1.95818 51.4527 9.23384 1.95818
162 2 51.3967 9.28957 -1.30285 51.3967 9.28957 -1.30285
163 1 1.05377 10.9084 0.339697 1.05377 10.9084 0.339697
164 2 2.99629 10.8936 1.92169 2.99629 10.8936 1.92169
165 2 2.91333 10.9233 -1.33914 2.91333 10.9233 -1.33914
166 1 3.90543 12.5553 0.282257 3.90543 12.5553 0.282257
167 2 5.85631 12.5544 1.85392 5.85631 12.5544 1.85392
168 2 5.75576 12.5561 -1.40662 5.75576 12.5561 -1.40662
169 1 6.75637 10.9086 0.193633 6.75637 10.9086 0.193633
170 2 8.70995 10.8937 1.76177 8.70995 10.8937 1.76177
171 2 8.60342 10.9237 -1.49852 8.60342 10.9237 -1.49852
172 1 9.60696 12.5553 0.115963 9.60696 12.5553 0.115963
173 2 11.5577 12.5543 1.68767 11.5577 12.5543 1.68767
174 2 11.4567 12.5563 -1.57302 11.4567 12.5563 -1.57302
175 1 12.4574 10.9089 0.0271067 12.4574 10.9089 0.0271067
176 2 14.3999 10.8932 1.60874 14.3999 10.8932 1.60874
177 2 14.3155 10.9246 -1.65233 14.3155 10.9246 -1.65233
178 1 15.308 12.5553 -0.0302968 15.308 12.5553 -0.0302968
179 2 17.2379 12.5535 1.56685 17.2379 12.5535 1.56685
180 2 17.1792 12.5571 -1.695 17.1792 12.5571 -1.695
181 1 18.1588 10.9091 -0.082708 18.1588 10.9091 -0.082708
182 2 20.0734 10.8925 1.5327 20.0734 10.8925 1.5327
183 2 20.0457 10.9258 -1.72941 20.0457 10.9258 -1.72941
184 1 21.0099 12.5553 -0.089275 21.0099 12.5553 -0.089275
185 2 22.9077 12.5526 1.5459 22.9077 12.5526 1.5459
186 2 22.9135 12.5581 -1.71649 22.9135 12.5581 -1.71649
187 1 23.8609 10.9091 -0.086085 23.8609 10.9091 -0.086085
188 2 25.7429 10.8919 1.56726 25.7429 10.8919 1.56726
189 2 25.7803 10.9264 -1.69471 25.7803 10.9264 -1.69471
190 1 26.7118 12.5554 -0.0350411 26.7118 12.5554 -0.0350411
191 2 28.5805 12.5524 1.63342 28.5805 12.5524 1.63342
192 2 28.644 12.5583 -1.62829 28.644 12.5583 -1.62829
193 1 29.5625 10.909 0.0183666 29.5625 10.909 0.0183666
194 2 31.4217 10.8923 1.6974 31.4217 10.8923 1.6974
195 2 31.504 10.9257 -1.56365 31.504 10.9257 -1.56365
196 1 32.4128 12.5553 0.108068 32.4128 12.5553 0.108068
197 2 34.2687 12.5532 1.79096 34.2687 12.5532 1.79096
198 2 34.3578 12.5575 -1.47001 34.3578 12.5575 -1.47001
199 1 35.2634 10.9087 0.184502 35.2634 10.9087 0.184502
200 2 37.1212 10.8933 1.86524 37.1212 10.8933 1.86524
201 2 37.207 10.9242 -1.39559 37.207 10.9242 -1.39559
202 1 38.1143 12.5553 0.275748 38.1143 12.5553 0.275748
203 2 39.9809 12.5539 1.94681 39.9809 12.5539 1.94681
204 2 40.0498 12.5567 -1.31449 40.0498 12.5567 -1.31449
205 1 40.9659 10.9085 0.335019 40.9659 10.9085 0.335019
206 2 42.8457 10.8936 1.99121 42.8457 10.8936 1.99121
207 2 42.889 10.9234 -1.27035 42.889 10.9234 -1.27035
208 1 43.818 12.5553 0.388328 43.818 12.5553 0.388328
209 2 45.7146 12.554 2.02544 45.7146 12.554 2.02544
210 2 45.725 12.5566 -1.23649 45.725 12.5566 -1.23649
211 1 46.6707 10.9084 0.396381 46.6707 10.9084 0.396381
212 2 48.5844 10.8936 2.01318 48.5844 10.8936 2.01318
213 2 48.5604 10.9233 -1.24855 48.5604 10.9233 -1.24855
214 1 49.5233 12.5553 0.390488 49.5233 12.5553 0.390488
215 2 51.4532 12.5541 1.98804 51.4532 12.5541 1.98804
216 2 51.3964 12.5564 -1.27344 51.3964 12.5564 -1.27344
217 1 1.05378 14.2021 0.342056 1.05378 14.2021 0.342056
218 2 2.99648 14.2149 1.92384 2.99648 14.2149 1.92384
219 2 2.91314 14.1893 -1.33702 2.91314 14.1893 -1.33702
220 1 3.90527 15.8487 0.256254 3.90527 15.8487 0.256254
221 2 5.85605 15.8751 1.82776 5.85605 15.8751 1.82776
222 2 5.75564 15.8222 -1.43237 5.75564 15.8222 -1.43237
223 1 6.75636 14.2019 0.195365 6.75636 14.2019 0.195365
224 2 8.70994 14.2152 1.76351 8.70994 14.2152 1.76351
225 2 8.60339 14.1886 -1.49681 8.60339 14.1886 -1.49681
226 1 9.60674 15.8482 0.0889839 9.60674 15.8482 0.0889839
227 2 11.557 15.875 1.66097 11.557 15.875 1.66097
228 2 11.457 15.8213 -1.5993 11.457 15.8213 -1.5993
229 1 12.4573 14.2017 0.0291151 12.4573 14.2017 0.0291151
230 2 14.3996 14.2147 1.61119 14.3996 14.2147 1.61119
231 2 14.3158 14.1886 -1.64995 14.3158 14.1886 -1.64995
232 1 15.3078 15.8478 -0.0567907 15.3078 15.8478 -0.0567907
233 2 17.2369 15.8743 1.54111 17.2369 15.8743 1.54111
234 2 17.1799 15.8213 -1.72032 17.1799 15.8213 -1.72032
235 1 18.1588 14.2016 -0.0791162 18.1588 14.2016 -0.0791162
236 2 20.0728 14.2137 1.53696 20.0728 14.2137 1.53696
237 2 20.0462 14.1894 -1.72524 20.0462 14.1894 -1.72524
238 1 21.0098 15.8477 -0.113976 21.0098 15.8477 -0.113976
239 2 22.9068 15.8733 1.52198 22.9068 15.8733 1.52198
240 2 22.9144 15.822 -1.73999 22.9144 15.822 -1.73999
241 1 23.8609 14.2016 -0.0805001 23.8609 14.2016 -0.0805001
242 2 25.7427 14.213 1.57312 25.7427 14.213 1.57312
243 2 25.7804 14.1902 -1.68896 25.7804 14.1902 -1.68896
244 1 26.7119 15.8479 -0.0581969 26.7119 15.8479 -0.0581969
245 2 28.5802 15.873 1.61051 28.5802 15.873 1.61051
246 2 28.6446 15.8227 -1.65078 28.6446 15.8227 -1.65078
247 1 29.5624 14.2017 0.024395 29.5624 14.2017 0.024395
248 2 31.4221 14.2132 1.70297 31.4221 14.2132 1.70297
249 2 31.5035 14.1902 -1.5582 31.5035 14.1902 -1.5582
250 1 32.413 15.8482 0.0847402 32.413 15.8482 0.0847402
251 2 34.2689 15.8734 1.76743 34.2689 15.8734 1.76743
252 2 34.358 15.8229 -1.49314 34.358 15.8229 -1.49314
253 1 35.2634 14.2019 0.188946 35.2634 14.2019 0.188946
254 2 37.1218 14.214 1.86907 37.1218 14.214 1.86907
255 2 37.2064 14.1898 -1.39185 37.2064 14.1898 -1.39185
256 1 38.1145 15.8486 0.251258 38.1145 15.8486 0.251258
257 2 39.9809 15.8739 1.92231 39.9809 15.8739 1.92231
258 2 40.0501 15.8233 -1.3386 40.0501 15.8233 -1.3386
259 1 40.9659 14.2021 0.33789 40.9659 14.2021 0.33789
260 2 42.8458 14.2144 1.99394 42.8458 14.2144 1.99394
261 2 42.8889 14.1898 -1.26766 42.8889 14.1898 -1.26766
262 1 43.8181 15.849 0.363434 43.8181 15.849 0.363434
263 2 45.7142 15.8741 2.00083 45.7142 15.8741 2.00083
264 2 45.7255 15.8237 -1.26072 45.7255 15.8237 -1.26072
265 1 46.6707 14.2022 0.399002 46.6707 14.2022 0.399002
266 2 48.5845 14.2145 2.01579 48.5845 14.2145 2.01579
267 2 48.5604 14.1899 -1.24597 48.5604 14.1899 -1.24597
268 1 49.5233 15.849 0.365562 49.5233 15.849 0.365562
269 2 51.453 15.8745 1.96308 51.453 15.8745 1.96308
270 2 51.3965 15.8234 -1.29802 51.3965 15.8234 -1.29802
271 1 1.05357 17.4954 0.290302 1.05357 17.4954 0.290302
272 2 2.99594 17.5332 1.87197 2.99594 17.5332 1.87197
273 2 2.91313 17.4574 -1.38815 2.91313 17.4574 -1.38815
274 1 3.90481 19.1412 0.179479 3.90481 19.1412 0.179479
275 2 5.85507 19.1897 1.75097 5.85507 19.1897 1.75097
276 2 5.75561 19.0924 -1.50819 5.75561 19.0924 -1.50819
277 1 6.75597 17.4948 0.141772 6.75597 17.4948 0.141772
278 2 8.7091 17.5336 1.70998 8.7091 17.5336 1.70998
279 2 8.60345 17.4557 -1.54956 8.60345 17.4557 -1.54956
280 1 9.60616 19.1403 0.0101273 9.60616 19.1403 0.0101273
281 2 11.5556 19.1897 1.58255 11.5556 19.1897 1.58255
282 2 11.4573 19.0907 -1.67669 11.4573 19.0907 -1.67669
283 1 12.457 17.4941 -0.0253834 12.457 17.4941 -0.0253834
284 2 14.3983 17.5332 1.55733 14.3983 17.5332 1.55733
285 2 14.3165 17.4548 -1.703 14.3165 17.4548 -1.703
286 1 15.3074 19.1396 -0.136181 15.3074 19.1396 -0.136181
287 2 17.2353 19.1891 1.46271 17.2353 19.1891 1.46271
288 2 17.181 19.0899 -1.79764 17.181 19.0899 -1.79764
289 1 18.1586 17.4937 -0.132801 18.1586 17.4937 -0.132801
290 2 20.0715 17.5323 1.48427 20.0715 17.5323 1.48427
291 2 20.0474 17.4549 -1.77709 20.0474 17.4549 -1.77709
292 1 21.0098 19.1393 -0.192408 21.0098 19.1393 -0.192408
293 2 22.9054 19.1885 1.44472 22.9054 19.1885 1.44472
294 2 22.9161 19.0901 -1.81612 22.9161 19.0901 -1.81612
295 1 23.861 17.4937 -0.132508 23.861 17.4937 -0.132508
296 2 25.7418 17.5317 1.52195 25.7418 17.5317 1.52195
297 2 25.7818 17.4556 -1.73926 25.7818 17.4556 -1.73926
298 1 26.7122 19.1396 -0.135257 26.7122 19.1396 -0.135257
299 2 28.5792 19.1881 1.53445 28.5792 19.1881 1.53445
300 2 28.6464 19.091 -1.7257 28.6464 19.091 -1.7257
301 1 29.5627 17.4941 -0.0265915 29.5627 17.4941 -0.0265915
302 2 31.4217 17.5316 1.65239 31.4217 17.5316 1.65239
303 2 31.5046 17.4564 -1.60794 31.5046 17.4564 -1.60794
304 1 32.4136 19.1403 0.00854213 32.4136 19.1403 0.00854213
305 2 34.2682 19.1882 1.69205 34.2682 19.1882 1.69205
306 2 34.3598 19.0923 -1.56744 34.3598 19.0923 -1.56744
307 1 35.2638 17.4947 0.137816 35.2638 17.4947 0.137816
308 2 37.1215 17.532 1.81825 37.1215 17.532 1.81825
309 2 37.2074 17.4573 -1.44188 37.2074 17.4573 -1.44188
310 1 38.115 19.1411 0.175569 38.115 19.1411 0.175569
311 2 39.98 19.1884 1.84753 39.98 19.1884 1.84753
312 2 40.0518 19.0937 -1.41239 40.0518 19.0937 -1.41239
313 1 40.9661 17.4953 0.286582 40.9661 17.4953 0.286582
314 2 42.8452 17.5322 1.9432 42.8452 17.5322 1.9432
315 2 42.8899 17.4583 -1.31767 42.8899 17.4583 -1.31767
316 1 43.8183 19.1417 0.288477 43.8183 19.1417 0.288477
317 2 45.7131 19.1885 1.92674 45.7131 19.1885 1.92674
318 2 45.7268 19.0948 -1.3339 45.7268 19.0948 -1.3339
319 1 46.6707 17.4956 0.348002 46.6707 17.4956 0.348002
320 2 48.5837 17.5325 1.96517 48.5837 17.5325 1.96517
321 2 48.561 17.4585 -1.2959 48.561 17.4585 -1.2959
322 1 49.5231 19.1418 0.290637 49.5231 19.1418 0.290637
323 2 51.452 19.1891 1.8884 51.452 19.1891 1.8884
324 2 51.3969 19.0943 -1.37179 51.3969 19.0943 -1.37179
325 1 1.05316 20.7874 0.194274 1.05316 20.7874 0.194274
326 2 2.99476 20.8432 1.77614 2.99476 20.8432 1.77614
327 2 2.91329 20.7313 -1.48303 2.91329 20.7313 -1.48303
328 1 3.90413 22.4325 0.0661869 3.90413 22.4325 0.0661869
329 2 5.85352 22.4943 1.63808 5.85352 22.4943 1.63808
330 2 5.75567 22.3703 -1.62025 5.75567 22.3703 -1.62025
331 1 6.75527 20.7865 0.0431856 6.75527 20.7865 0.0431856
332 2 8.70761 20.8435 1.61171 8.70761 20.8435 1.61171
333 2 8.60355 20.7291 -1.64681 8.60355 20.7291 -1.64681
334 1 9.60533 22.4313 -0.105759 9.60533 22.4313 -0.105759
335 2 11.5537 22.4942 1.46747 11.5537 22.4942 1.46747
336 2 11.4577 22.3681 -1.79089 11.4577 22.3681 -1.79089
337 1 12.4563 20.7854 -0.125774 12.4563 20.7854 -0.125774
338 2 14.3965 20.8431 1.45783 14.3965 20.8431 1.45783
339 2 14.3173 20.7275 -1.80141 14.3173 20.7275 -1.80141
340 1 15.3069 22.4302 -0.253332 15.3069 22.4302 -0.253332
341 2 17.2333 22.4937 1.34681 17.2333 22.4937 1.34681
342 2 17.1822 22.3667 -1.91256 17.1822 22.3667 -1.91256
343 1 18.1584 20.7848 -0.23335 18.1584 20.7848 -0.23335
344 2 20.0698 20.8426 1.38497 20.0698 20.8426 1.38497
345 2 20.0489 20.7269 -1.87521 20.0489 20.7269 -1.87521
346 1 21.0098 22.4299 -0.309614 21.0098 22.4299 -0.309614
347 2 22.9038 22.4934 1.32901 22.9038 22.4934 1.32901
348 2 22.9181 22.3664 -1.93074 22.9181 22.3664 -1.93074
349 1 23.8613 20.7848 -0.232201 23.8613 20.7848 -0.232201
350 2 25.7404 20.8422 1.42363 25.7404 20.8422 1.42363
351 2 25.7839 20.7273 -1.83634 25.7839 20.7273 -1.83634
352 1 26.7128 22.4303 -0.251669 26.7128 22.4303 -0.251669
353 2 28.5779 22.4933 1.41973 28.5779 22.4933 1.41973
354 2 28.6491 22.3673 -1.83929 28.6491 22.3673 -1.83929
355 1 29.5634 20.7854 -0.125055 29.5634 20.7854 -0.125055
356 2 31.4206 20.8421 1.55526 31.4206 20.8421 1.55526
357 2 31.507 20.7287 -1.70384 31.507 20.7287 -1.70384
358 1 32.4144 22.4312 -0.106405 32.4144 22.4312 -0.106405
359 2 34.2669 22.4932 1.57893 34.2669 22.4932 1.57893
360 2 34.3627 22.3692 -1.67949 34.3627 22.3692 -1.67949
361 1 35.2645 20.7864 0.0405832 35.2645 20.7864 0.0405832
362 2 37.1204 20.8421 1.72239 37.1204 20.8421 1.72239
363 2 37.2097 20.7306 -1.53663 37.2097 20.7306 -1.53663
364 1 38.1157 22.4323 0.062521 38.1157 22.4323 0.062521
365 2 39.9785 22.4932 1.73635 39.9785 22.4932 1.73635
366 2 40.0544 22.3715 -1.52263 40.0544 22.3715 -1.52263
367 1 40.9666 20.7873 0.190691 40.9666 20.7873 0.190691
368 2 42.8438 20.8422 1.84867 42.8438 20.8422 1.84867
369 2 42.8919 20.7323 -1.41121 42.8919 20.7323 -1.41121
370 1 43.8186 22.4332 0.177167 43.8186 22.4332 0.177167
371 2 45.7115 22.4934 1.81694 45.7115 22.4934 1.81694
372 2 45.7286 22.3729 -1.4429 45.7286 22.3729 -1.4429
373 1 46.6707 20.7877 0.253015 46.6707 20.7877 0.253015
374 2 48.5824 20.8425 1.87103 48.5824 20.8425 1.87103
375 2 48.5621 20.7328 -1.38912 48.5621 20.7328 -1.38912
376 1 49.5229 22.4333 0.179464 49.5229 22.4333 0.179464
377 2 51.4506 22.4939 1.77797 51.4506 22.4939 1.77797
378 2 51.3976 22.3724 -1.48146 51.3976 22.3724 -1.48146
379 1 1.05263 24.0783 0.071263 1.05263 24.0783 0.071263
380 2 2.99312 24.1422 1.65392 2.99312 24.1422 1.65392
381 2 2.91362 24.0141 -1.60476 2.91362 24.0141 -1.60476
382 1 3.90334 25.7229 -0.0635087 3.90334 25.7229 -0.0635087
383 2 5.85165 25.7873 1.50942 5.85165 25.7873 1.50942
384 2 5.75584 25.6583 -1.74882 5.75584 25.6583 -1.74882
385 1 6.75439 24.0771 -0.0824196 6.75439 24.0771 -0.0824196
386 2 8.7057 24.1422 1.48692 8.7057 24.1422 1.48692
387 2 8.60371 24.0118 -1.77105 8.60371 24.0118 -1.77105
388 1 9.60439 25.7216 -0.237884 9.60439 25.7216 -0.237884
389 2 11.5516 25.787 1.33663 11.5516 25.787 1.33663
390 2 11.4582 25.6561 -1.92157 11.4582 25.6561 -1.92157
391 1 12.4555 24.0759 -0.253485 12.4555 24.0759 -0.253485
392 2 14.3944 24.1418 1.33138 14.3944 24.1418 1.33138
393 2 14.318 24.0098 -1.92725 14.318 24.0098 -1.92725
394 1 15.3063 25.7205 -0.38698 15.3063 25.7205 -0.38698
395 2 17.2313 25.7865 1.21472 17.2313 25.7865 1.21472
396 2 17.1834 25.6545 -2.04441 17.1834 25.6545 -2.04441
397 1 18.1581 24.0751 -0.361952 18.1581 24.0751 -0.361952
398 2 20.068 24.1415 1.25788 20.068 24.1415 1.25788
399 2 20.0505 24.0087 -2.00157 20.0505 24.0087 -2.00157
400 1 21.0098 25.7201 -0.44406 21.0098 25.7201 -0.44406
401 2 22.9022 25.7865 1.19634 22.9022 25.7865 1.19634
402 2 22.9201 25.6538 -2.06306 22.9201 25.6538 -2.06306
403 1 23.8616 24.0751 -0.360868 23.8616 24.0751 -0.360868
404 2 25.7389 24.1414 1.29678 25.7389 24.1414 1.29678
405 2 25.7864 24.0088 -1.96238 25.7864 24.0088 -1.96238
406 1 26.7134 25.7205 -0.386007 26.7134 25.7205 -0.386007
407 2 28.5765 25.7866 1.28759 28.5765 25.7866 1.28759
408 2 28.652 25.6545 -1.97102 28.652 25.6545 -1.97102
409 1 29.5642 24.0758 -0.252719 29.5642 24.0758 -0.252719
410 2 31.4192 24.1414 1.42973 31.4192 24.1414 1.42973
411 2 31.5101 24.0103 -1.82856 31.5101 24.0103 -1.82856
412 1 32.4154 25.7215 -0.239254 32.4154 25.7215 -0.239254
413 2 34.2654 25.7867 1.44865 34.2654 25.7867 1.44865
414 2 34.366 25.6566 -1.80938 34.366 25.6566 -1.80938
415 1 35.2654 24.077 -0.0850776 35.2654 24.077 -0.0850776
416 2 37.1188 24.1414 1.59904 37.1188 24.1414 1.59904
417 2 37.2129 24.0127 -1.65924 37.2129 24.0127 -1.65924
418 1 38.1165 25.7228 -0.0677926 38.1165 25.7228 -0.0677926
419 2 39.9767 25.7866 1.60864 39.9767 25.7866 1.60864
420 2 40.0575 25.6591 -1.65007 40.0575 25.6591 -1.65007
421 1 40.9672 24.0781 0.0674157 40.9672 24.0781 0.0674157
422 2 42.8421 24.1414 1.7275 42.8421 24.1414 1.7275
423 2 42.8944 24.0149 -1.53179 42.8944 24.0149 -1.53179
424 1 43.819 25.7237 0.0490709 43.819 25.7237 0.0490709
425 2 45.7096 25.7869 1.69092 45.7096 25.7869 1.69092
426 2 45.7307 25.6606 -1.56878 45.7307 25.6606 -1.56878
427 1 46.6708 24.0787 0.131036 46.6708 24.0787 0.131036
428 2 48.5807 24.1418 1.75048 48.5807 24.1418 1.75048
429 2 48.5634 24.0155 -1.50919 48.5634 24.0155 -1.50919
430 1 49.5226 25.7238 0.05161 49.5226 25.7238 0.05161
431 2 51.4488 25.7872 1.65148 51.4488 25.7872 1.65148
432 2 51.3984 25.6602 -1.60786 51.3984 25.6602 -1.60786
433 1 1.05205 27.3687 -0.0572909 1.05205 27.3687 -0.0572909
434 2 2.99125 27.4297 1.52679 2.99125 27.4297 1.52679
435 2 2.91409 27.3075 -1.73223 2.91409 27.3075 -1.73223
436 1 3.90258 29.0135 -0.187232 3.90258 29.0135 -0.187232
437 2 5.84974 29.0694 1.38724 5.84974 29.0694 1.38724
438 2 5.75612 28.9574 -1.87172 5.75612 28.9574 -1.87172
439 1 6.75347 27.3675 -0.21303 6.75347 27.3675 -0.21303
440 2 8.70367 27.4294 1.35768 8.70367 27.4294 1.35768
441 2 8.60393 27.3054 -1.90062 8.60393 27.3054 -1.90062
442 1 9.6035 29.0123 -0.363437 9.6035 29.0123 -0.363437
443 2 11.5496 29.0689 1.21269 11.5496 29.0689 1.21269
444 2 11.4585 28.9555 -2.0462 11.4585 28.9555 -2.0462
445 1 12.4547 27.3662 -0.386002 12.4547 27.3662 -0.386002
446 2 14.3923 27.4289 1.20047 14.3923 27.4289 1.20047
447 2 14.3187 27.3035 -2.05842 14.3187 27.3035 -2.05842
448 1 15.3056 29.0112 -0.514009 15.3056 29.0112 -0.514009
449 2 17.2296 29.0686 1.08942 17.2296 29.0686 1.08942
450 2 17.1842 28.954 -2.17032 17.1842 28.954 -2.17032
451 1 18.1577 27.3654 -0.495695 18.1577 27.3654 -0.495695
452 2 20.0663 27.4288 1.12588 20.0663 27.4288 1.12588
453 2 20.0519 27.3023 -2.13374 20.0519 27.3023 -2.13374
454 1 21.0098 29.0108 -0.572198 21.0098 29.0108 -0.572198
455 2 22.9009 29.0687 1.0701 22.9009 29.0687 1.0701
456 2 22.9218 28.9532 -2.18984 22.9218 28.9532 -2.18984
457 1 23.862 27.3654 -0.495309 23.862 27.3654 -0.495309
458 2 25.7375 27.429 1.16442 25.7375 27.429 1.16442
459 2 25.7887 27.3021 -2.09482 25.7887 27.3021 -2.09482
460 1 26.714 29.0112 -0.514515 26.714 29.0112 -0.514515
461 2 28.5753 29.069 1.16144 28.5753 29.069 1.16144
462 2 28.6546 28.9536 -2.09765 28.6546 28.9536 -2.09765
463 1 29.565 27.3661 -0.386602 29.565 27.3661 -0.386602
464 2 31.4178 27.4291 1.29842 31.4178 27.4291 1.29842
465 2 31.5133 27.3034 -1.95992 31.5133 27.3034 -1.95992
466 1 32.4163 29.0121 -0.366596 32.4163 29.0121 -0.366596
467 2 34.2639 29.0691 1.32411 34.2639 29.0691 1.32411
468 2 34.3692 28.9554 -1.93438 34.3692 28.9554 -1.93438
469 1 35.2663 27.3673 -0.216897 35.2663 27.3673 -0.216897
470 2 37.1172 27.4291 1.47007 37.1172 27.4291 1.47007
471 2 37.2162 27.3058 -1.7883 37.2162 27.3058 -1.7883
472 1 38.1173 29.0133 -0.192773 38.1173 29.0133 -0.192773
473 2 39.975 29.0693 1.48648 39.975 29.0693 1.48648
474 2 40.0604 28.9576 -1.77274 40.0604 28.9576 -1.77274
475 1 40.9678 27.3685 -0.0617874 40.9678 27.3685 -0.0617874
476 2 42.8402 27.4293 1.60088 42.8402 27.4293 1.60088
477 2 42.897 27.3079 -1.65861 42.897 27.3079 -1.65861
478 1 43.8192 29.0142 -0.0738722 43.8192 29.0142 -0.0738722
479 2 45.7079 29.0695 1.57033 45.7079 29.0695 1.57033
480 2 45.7326 28.9589 -1.69 45.7326 28.9589 -1.69
481 1 46.6708 27.3691 0.00319754 46.6708 27.3691 0.00319754
482 2 48.5789 27.4296 1.62457 48.5789 27.4296 1.62457
483 2 48.5648 27.3085 -1.6354 48.5648 27.3085 -1.6354
484 1 49.5223 29.0143 -0.0709525 49.5223 29.0143 -0.0709525
485 2 51.447 29.0696 1.53076 51.447 29.0696 1.53076
486 2 51.3993 28.9588 -1.72929 51.3993 28.9588 -1.72929
487 1 1.05154 30.6594 -0.169464 1.05154 30.6594 -0.169464
488 2 2.98948 30.7072 1.41638 2.98948 30.7072 1.41638
489 2 2.91463 30.6115 -1.84363 2.91463 30.6115 -1.84363
490 1 3.90198 32.3048 -0.284125 3.90198 32.3048 -0.284125
491 2 5.84815 32.3429 1.29195 5.84815 32.3429 1.29195
492 2 5.75644 32.2666 -1.96811 5.75644 32.2666 -1.96811
493 1 6.75267 30.6585 -0.326398 6.75267 30.6585 -0.326398
494 2 8.70187 30.7068 1.24591 8.70187 30.7068 1.24591
495 2 8.60416 30.6101 -2.01337 8.60416 30.6101 -2.01337
496 1 9.6028 32.3039 -0.461378 9.6028 32.3039 -0.461378
497 2 11.5481 32.3426 1.11623 11.5481 32.3426 1.11623
498 2 11.4587 32.2653 -2.14374 11.4587 32.2653 -2.14374
499 1 12.454 30.6574 -0.500861 12.454 30.6574 -0.500861
500 2 14.3907 30.7064 1.08726 14.3907 30.7064 1.08726
501 2 14.3192 30.6085 -2.17256 14.3192 30.6085 -2.17256
502 1 15.3052 32.3032 -0.61322 15.3052 32.3032 -0.61322
503 2 17.2284 32.3424 0.991724 17.2284 32.3424 0.991724
504 2 17.1848 32.2641 -2.26905 17.1848 32.2641 -2.26905
505 1 18.1574 30.6568 -0.611815 18.1574 30.6568 -0.611815
506 2 20.065 30.7064 1.01149 20.065 30.7064 1.01149
507 2 20.053 30.6074 -2.24899 20.053 30.6074 -2.24899
508 1 21.0098 32.3029 -0.672479 21.0098 32.3029 -0.672479
509 2 22.9 32.3426 0.97146 22.9 32.3426 0.97146
510 2 22.9229 32.2634 -2.28948 22.9229 32.2634 -2.28948
511 1 23.8622 30.6567 -0.612337 23.8622 30.6567 -0.612337
512 2 25.7365 30.7066 1.0494 25.7365 30.7066 1.0494
513 2 25.7906 30.6071 -2.21066 25.7906 30.6071 -2.21066
514 1 26.7145 32.3031 -0.615316 26.7145 32.3031 -0.615316
515 2 28.5744 32.3428 1.06266 28.5744 32.3428 1.06266
516 2 28.6565 32.2637 -2.19739 28.6565 32.2637 -2.19739
517 1 29.5657 30.6573 -0.503446 29.5657 30.6573 -0.503446
518 2 31.4167 30.7068 1.18408 31.4167 30.7068 1.18408
519 2 31.5159 30.6081 -2.07503 31.5159 30.6081 -2.07503
520 1 32.4169 32.3038 -0.466631 32.4169 32.3038 -0.466631
521 2 34.2629 32.343 1.22646 34.2629 32.343 1.22646
522 2 34.3716 32.2649 -2.03295 34.3716 32.2649 -2.03295
523 1 35.2671 30.6583 -0.332098 35.2671 30.6583 -0.332098
524 2 37.1158 30.707 1.35761 37.1158 30.707 1.35761
525 2 37.219 30.6099 -1.90153 37.219 30.6099 -1.90153
526 1 38.1178 32.3046 -0.29118 38.1178 32.3046 -0.29118
527 2 39.9738 32.3433 1.39044 39.9738 32.3433 1.39044
528 2 40.0626 32.2662 -1.86974 40.0626 32.2662 -1.86974
529 1 40.9683 30.6593 -0.174921 40.9683 30.6593 -0.174921
530 2 42.8387 30.7073 1.49026 42.8387 30.7073 1.49026
531 2 42.8992 30.6115 -1.77007 42.8992 30.6115 -1.77007
532 1 43.8195 32.3052 -0.170969 43.8195 32.3052 -0.170969
533 2 45.7065 32.3436 1.47535 45.7065 32.3436 1.47535
534 2 45.7341 32.2671 -1.786 45.7341 32.2671 -1.786
535 1 46.6708 30.6597 -0.108806 46.6708 30.6597 -0.108806
536 2 48.5773 30.7075 1.51468 48.5773 30.7075 1.51468
537 2 48.5661 30.6121 -1.74624 48.5661 30.6121 -1.74624
538 1 49.5221 32.3053 -0.167546 49.5221 32.3053 -0.167546
539 2 51.4455 32.3434 1.43605 51.4455 32.3434 1.43605