ITEM: TIMESTEP
25000
ITEM: NUMBER OF ATOMS
810
ITEM: BOX BOUNDS pp pp pp
8.6264138639279286e-01 5.2154963613606803e+01
8.1805879934293801e-01 5.0198156200656300e+01
-1.0000000000000000e+01 1.0000000000000000e+01
ITEM: ATOMS id type x y z xu yu zu
1 1 1.0718 1.02801 -0.612764 1.0718 1.02801 -0.612764
2 2 2.91147 1.09086 1.08711 2.91147 1.09086 1.08711
3 2 3.03243 0.964749 -2.17033 3.03243 0.964749 -2.17033
4 1 3.9226 2.6739 -0.570154 3.9226 2.6739 -0.570154
5 2 5.73692 2.73075 1.15691 5.73692 2.73075 1.15691
6 2 5.90619 2.61706 -2.09882 5.90619 2.61706 -2.09882
7 1 6.77031 1.02892 -0.36394 6.77031 1.02892 -0.36394
8 2 8.57298 1.09078 1.37483 8.57298 1.09078 1.37483
9 2 8.76374 0.967406 -1.87943 8.76374 0.967406 -1.87943
10 1 9.61817 2.67554 -0.259189 9.61817 2.67554 -0.259189
11 2 11.4194 2.73136 1.48094 11.4194 2.73136 1.48094
12 2 11.6127 2.62027 -1.77367 11.6127 2.62027 -1.77367
13 1 12.4645 1.03129 -0.0337418 12.4645 1.03129 -0.0337418
14 2 14.2792 1.09229 1.69203 14.2792 1.09229 1.69203
15 2 14.4472 0.971083 -1.56363 14.4472 0.971083 -1.56363
16 1 15.3132 2.67796 0.0517457 15.3132 2.67796 0.0517457
17 2 17.1494 2.73541 1.7544 17.1494 2.73541 1.7544
18 2 17.2764 2.62143 -1.50345 17.2764 2.62143 -1.50345
19 1 18.1626 1.0339 0.220091 18.1626 1.0339 0.220091
20 2 20.0284 1.09601 1.8902 20.0284 1.09601 1.8902
21 2 20.0985 0.97287 -1.36896 20.0985 0.97287 -1.36896
22 1 21.0141 2.68026 0.218673 21.0141 2.68026 0.218673
23 2 22.9118 2.74244 1.85208 22.9118 2.74244 1.85208
24 2 22.9187 2.61925 -1.40789 22.9187 2.61925 -1.40789
25 1 23.8661 1.0359 0.286288 23.8661 1.0359 0.286288
26 2 25.7954 1.10073 1.88241 25.7954 1.10073 1.88241
27 2 25.739 0.972097 -1.37675 25.739 0.972097 -1.37675
28 1 26.7173 2.68165 0.171178 26.7173 2.68165 0.171178
29 2 28.6743 2.74876 1.73282 28.6743 2.74876 1.73282
30 2 28.5603 2.61536 -1.52469 28.5603 2.61536 -1.52469
31 1 29.5682 1.03645 0.138248 29.5682 1.03645 0.138248
32 2 31.5468 1.10291 1.6728 31.5468 1.10291 1.6728
33 2 31.3877 0.970348 -1.5828 31.3877 0.970348 -1.5828
34 1 32.4158 2.68122 -0.068601 32.4158 2.68122 -0.068601
35 2 34.4063 2.75001 1.45028 34.4063 2.75001 1.45028
36 2 34.2216 2.6123 -1.80377 34.2216 2.6123 -1.80377
37 1 35.2641 1.03501 -0.160879 35.2641 1.03501 -0.160879
38 2 37.2578 1.10105 1.35425 37.2578 1.10105 1.35425
39 2 37.0665 0.968317 -1.89962 37.0665 0.968317 -1.89962
40 1 38.1102 2.67887 -0.39578 38.1102 2.67887 -0.39578
41 2 40.094 2.74585 1.13231 40.094 2.74585 1.13231
42 2 39.9238 2.61094 -2.1226 39.9238 2.61094 -2.1226
43 1 40.9592 1.03208 -0.476423 40.9592 1.03208 -0.476423
44 2 42.9253 1.0968 1.07472 42.9253 1.0968 1.07472
45 2 42.7925 0.966126 -2.18215 42.7925 0.966126 -2.18215
46 1 43.8084 2.67588 -0.658641 43.8084 2.67588 -0.658641
47 2 45.7456 2.73904 0.928875 45.7456 2.73904 0.928875
48 2 45.6733 2.61164 -2.32991 45.6733 2.61164 -2.32991
49 1 46.6602 1.02925 -0.657031 46.6602 1.02925 -0.657031
50 2 48.566 1.09276 0.968265 48.566 1.09276 0.968265
51 2 48.5574 0.964636 -2.29135 48.5574 0.964636 -2.29135
52 1 49.5126 2.67394 -0.728874 49.5126 2.67394 -0.728874
53 2 51.3824 2.73331 0.937984 51.3824 2.73331 0.937984
54 2 51.4454 2.61393 -2.32126 51.4454 2.61393 -2.32126
55 1 1.07258 4.31965 -0.73376 1.07258 4.31965 -0.73376
56 2 2.90902 4.37017 0.970211 2.90902 4.37017 0.970211
57 2 3.03679 4.26893 -2.28771 3.03679 4.26893 -2.28771
58 1 3.92344 5.96626 -0.672842 3.92344 5.96626 -0.672842
59 2 5.73417 6.00464 1.05861 5.73417 6.00464 1.05861
60 2 5.91062 5.92789 -2.19775 5.91062 5.92789 -2.19775
61 1 6.77161 4.32049 -0.479217 6.77161 4.32049 -0.479217
62 2 8.5716 4.36828 1.26279 8.5716 4.36828 1.26279
63 2 8.76761 4.27294 -1.99208 8.76761 4.27294 -1.99208
64 1 9.61905 5.96741 -0.355881 9.61905 5.96741 -0.355881
65 2 11.4186 6.0048 1.38645 11.4186 6.0048 1.38645
66 2 11.6151 5.93031 -1.86904 11.6151 5.93031 -1.86904
67 1 12.4657 4.32234 -0.146374 12.4657 4.32234 -0.146374
68 2 14.2788 4.37109 1.58124 14.2788 4.37109 1.58124
69 2 14.4495 4.27423 -1.67518 14.4495 4.27423 -1.67518
70 1 15.3138 5.96908 -0.0463655 15.3138 5.96908 -0.0463655
71 2 17.1505 6.01084 1.6559 17.1505 6.01084 1.6559
72 2 17.2761 5.92807 -1.60307 17.2761 5.92807 -1.60307
73 1 18.1631 4.32451 0.10468 18.1631 4.32451 0.10468
74 2 20.029 4.37852 1.77451 20.029 4.37852 1.77451
75 2 20.0983 4.27155 -1.4854 20.0983 4.27155 -1.4854
76 1 21.014 5.97091 0.110494 21.014 5.97091 0.110494
77 2 22.9139 6.0214 1.74132 22.9139 6.0214 1.74132
78 2 22.9157 5.92148 -1.51961 22.9157 5.92148 -1.51961
79 1 23.8656 4.32634 0.161642 23.8656 4.32634 0.161642
80 2 25.7957 4.38801 1.75643 25.7957 4.38801 1.75643
81 2 25.7369 4.26575 -1.5031 25.7369 4.26575 -1.5031
82 1 26.716 5.97209 0.0475018 26.716 5.97209 0.0475018
83 2 28.6746 6.03159 1.60702 28.6746 6.03159 1.60702
84 2 28.5567 5.91338 -1.65107 28.5567 5.91338 -1.65107
85 1 29.5664 4.32687 0.00316022 29.5664 4.32687 0.00316022
86 2 31.5445 4.39396 1.53787 31.5445 4.39396 1.53787
87 2 31.3859 4.26019 -1.71778 31.3859 4.26019 -1.71778
88 1 32.4133 5.97166 -0.204113 32.4133 5.97166 -0.204113
89 2 34.403 6.03531 1.31583 34.403 6.03531 1.31583
90 2 34.2199 5.90794 -1.93874 34.2199 5.90794 -1.93874
91 1 35.2618 4.32543 -0.300483 35.2618 4.32543 -0.300483
92 2 37.2533 4.39272 1.21726 37.2533 4.39272 1.21726
93 2 37.0666 4.25761 -2.03673 37.0666 4.25761 -2.03673
94 1 38.1078 5.96956 -0.532821 38.1078 5.96956 -0.532821
95 2 40.0883 6.03058 0.999904 40.0883 6.03058 0.999904
96 2 39.9256 5.90787 -2.25575 39.9256 5.90787 -2.25575
97 1 40.9575 4.3227 -0.613242 40.9575 4.3227 -0.613242
98 2 42.9203 4.38554 0.942328 42.9203 4.38554 0.942328
99 2 42.795 4.25895 -2.31484 42.795 4.25895 -2.31484
100 1 43.8073 5.9672 -0.787084 43.8073 5.9672 -0.787084
101 2 45.7395 6.02052 0.80712 45.7395 6.02052 0.80712
102 2 45.6782 5.91331 -2.45244 45.6782 5.91331 -2.45244
103 1 46.6599 4.32039 -0.786191 46.6599 4.32039 -0.786191
104 2 48.5619 4.37657 0.843953 48.5619 4.37657 0.843953
105 2 48.5615 4.26356 -2.41604 48.5615 4.26356 -2.41604
106 1 49.5128 5.96603 -0.843515 49.5128 5.96603 -0.843515
107 2 51.3777 6.0104 0.829636 51.3777 6.0104 0.829636
108 2 51.451 5.92143 -2.43021 51.451 5.92143 -2.43021
109 1 1.07302 7.61271 -0.824095 1.07302 7.61271 -0.824095
110 2 2.90408 7.64189 0.886336 2.90408 7.64189 0.886336
111 2 3.04265 7.5835 -2.37209 3.04265 7.5835 -2.37209
112 1 3.92363 9.25993 -0.732201 3.92363 9.25993 -0.732201
113 2 5.72987 9.27257 1.00436 5.72987 9.27257 1.00436
114 2 5.91501 9.24716 -2.25227 5.91501 9.24716 -2.25227
115 1 6.7721 7.61331 -0.557114 6.7721 7.61331 -0.557114
116 2 8.56941 7.63815 1.18814 8.56941 7.63815 1.18814
117 2 8.7706 7.58847 -2.06742 8.7706 7.58847 -2.06742
118 1 9.61897 9.26031 -0.406288 9.61897 9.26031 -0.406288
119 2 11.4179 9.27196 1.33696 11.4179 9.27196 1.33696
120 2 11.6155 9.2486 -1.91925 11.6155 9.2486 -1.91925
121 1 12.466 7.6143 -0.221871 12.466 7.6143 -0.221871
122 2 14.2793 7.64142 1.50576 14.2793 7.64142 1.50576
123 2 14.4494 7.58753 -1.75176 14.4494 7.58753 -1.75176
124 1 15.3136 9.26101 -0.100864 15.3136 9.26101 -0.100864
125 2 17.1531 9.27881 1.59863 17.1531 9.27881 1.59863
126 2 17.2731 9.24367 -1.66149 17.2731 9.24367 -1.66149
127 1 18.1632 7.6157 0.0209785 18.1632 7.6157 0.0209785
128 2 20.0319 7.65092 1.68779 20.0319 7.65092 1.68779
129 2 20.0952 7.58133 -1.57338 20.0952 7.58133 -1.57338
130 1 21.0136 9.26221 0.0402645 21.0136 9.26221 0.0402645
131 2 22.9182 9.29106 1.66577 22.9182 9.29106 1.66577
132 2 22.9101 9.23423 -1.5963 22.9101 9.23423 -1.5963
133 1 23.8649 7.61713 0.0606718 23.8649 7.61713 0.0606718
134 2 25.7985 7.66333 1.65127 25.7985 7.66333 1.65127
135 2 25.7319 7.57185 -1.60925 25.7319 7.57185 -1.60925
136 1 26.7146 9.2632 -0.0448928 26.7146 9.2632 -0.0448928
137 2 28.6772 9.30348 1.50992 28.6772 9.30348 1.50992
138 2 28.5505 9.22351 -1.74908 28.5505 9.22351 -1.74908
139 1 29.5643 7.61756 -0.116442 29.5643 7.61756 -0.116442
140 2 31.544 7.6722 1.4165 31.544 7.6722 1.4165
141 2 31.3818 7.56324 -1.83995 31.3818 7.56324 -1.83995
142 1 32.4108 9.26292 -0.314414 32.4108 9.26292 -0.314414
143 2 34.4011 9.30922 1.2053 34.4011 9.30922 1.2053
144 2 34.2167 9.21651 -2.05036 34.2167 9.21651 -2.05036
145 1 35.2591 7.61634 -0.429584 35.2591 7.61634 -0.429584
146 2 37.2487 7.67228 1.09114 37.2487 7.67228 1.09114
147 2 37.0663 7.56001 -2.1639 37.0663 7.56001 -2.1639
148 1 38.1054 9.2614 -0.64673 38.1054 9.2614 -0.64673
149 2 40.0822 9.30495 0.891525 40.0822 9.30495 0.891525
150 2 39.9278 9.21745 -2.36557 39.9278 9.21745 -2.36557
151 1 40.9556 7.61425 -0.737796 40.9556 7.61425 -0.737796
152 2 42.9134 7.66387 0.824829 42.9134 7.66387 0.824829
153 2 42.7993 7.56414 -2.43353 42.7993 7.56414 -2.43353
154 1 43.8062 9.25999 -0.88844 43.8062 9.25999 -0.88844
155 2 45.7316 9.29353 0.714826 45.7316 9.29353 0.714826
156 2 45.6849 9.22633 -2.5459 45.6849 9.22633 -2.5459
157 1 46.6595 7.61286 -0.895067 46.6595 7.61286 -0.895067
158 2 48.5551 7.65181 0.74341 48.5551 7.65181 0.74341
159 2 48.5683 7.57374 -2.51743 48.5683 7.57374 -2.51743
160 1 49.5129 9.25964 -0.922907 49.5129 9.25964 -0.922907
161 2 51.3705 9.28079 0.758926 51.3705 9.28079 0.758926
162 2 51.4585 9.23853 -2.50139 51.4585 9.23853 -2.50139
163 1 1.07304 10.907 -0.867192 1.07304 10.907 -0.867192
164 2 2.89749 10.909 0.850653 2.89749 10.909 0.850653
165 2 3.04894 10.9049 -2.40767 3.04894 10.9049 -2.40767
166 1 3.92304 12.5542 -0.736606 3.92304 12.5542 -0.736606
167 2 5.72475 12.5381 1.00465 5.72475 12.5381 1.00465
168 2 5.91846 12.5698 -2.25142 5.91846 12.5698 -2.25142
169 1 6.77166 10.907 -0.582988 6.77166 10.907 -0.582988
170 2 8.56667 10.9039 1.16477 8.56667 10.9039 1.16477
171 2 8.7722 10.9099 -2.09088 8.7722 10.9099 -2.09088
172 1 9.61786 12.5536 -0.400223 9.61786 12.5536 -0.400223
173 2 11.4174 12.5369 1.34227 11.4174 12.5369 1.34227
174 2 11.6138 12.5698 -1.91395 11.6138 12.5698 -1.91395
175 1 12.4654 10.907 -0.245496 12.4654 10.907 -0.245496
176 2 14.2807 10.907 1.4801 14.2807 10.907 1.4801
177 2 14.4469 10.907 -1.77811 14.4469 10.907 -1.77811
178 1 15.3128 12.5533 -0.100744 15.3128 12.5533 -0.100744
179 2 17.1568 12.5438 1.59372 17.1568 12.5438 1.59372
180 2 17.2679 12.5631 -1.66687 17.2679 12.5631 -1.66687
181 1 18.1627 10.9075 -0.0143905 18.1627 10.9075 -0.0143905
182 2 20.0365 10.9172 1.6469 20.0365 10.9172 1.6469
183 2 20.0896 10.8986 -1.61521 20.0896 10.8986 -1.61521
184 1 21.013 12.554 0.0217398 21.013 12.554 0.0217398
185 2 22.9242 12.5562 1.63964 22.9242 12.5562 1.63964
186 2 22.9028 12.5526 -1.62289 22.9028 12.5526 -1.62289
187 1 23.8641 10.9086 0.00343722 23.8641 10.9086 0.00343722
188 2 25.8035 10.9307 1.58729 25.8035 10.9307 1.58729
189 2 25.7247 10.8873 -1.67402 25.7247 10.8873 -1.67402
190 1 26.7135 12.5551 -0.0884696 26.7135 12.5551 -0.0884696
191 2 28.6819 12.5692 1.45942 28.6819 12.5692 1.45942
192 2 28.543 12.5414 -1.79997 28.543 12.5414 -1.79997
193 1 29.5625 10.9092 -0.197201 29.5625 10.9092 -0.197201
194 2 31.5456 10.9412 1.33181 31.5456 10.9412 1.33181
195 2 31.376 10.8774 -1.92549 31.376 10.8774 -1.92549
196 1 32.4088 12.5553 -0.3788 32.4088 12.5553 -0.3788
197 2 34.4009 12.5758 1.13908 34.4009 12.5758 1.13908
198 2 34.2127 12.5347 -2.1174 34.2127 12.5347 -2.1174
199 1 35.2566 10.9085 -0.523519 35.2566 10.9085 -0.523519
200 2 37.245 10.9424 0.999489 37.245 10.9424 0.999489
201 2 37.0654 10.8743 -2.25688 37.0654 10.8743 -2.25688
202 1 38.1034 12.5547 -0.715918 38.1034 12.5547 -0.715918
203 2 40.0768 12.5723 0.827434 40.0768 12.5723 0.827434
204 2 39.93 12.5369 -2.43093 39.93 12.5369 -2.43093
205 1 40.9539 10.9073 -0.826709 40.9539 10.9073 -0.826709
206 2 42.906 10.9341 0.743867 42.906 10.9341 0.743867
207 2 42.8043 10.8804 -2.51588 42.8043 10.8804 -2.51588
208 1 43.8055 12.5542 -0.943179 43.8055 12.5542 -0.943179
209 2 45.7235 12.561 0.669483 45.7235 12.561 0.669483
210 2 45.6922 12.5475 -2.59202 45.6922 12.5475 -2.59202
211 1 46.6592 10.9069 -0.9635 46.6592 10.9069 -0.9635
212 2 48.5467 10.9209 0.684867 48.5467 10.9209 0.684867
213 2 48.5764 10.8929 -2.57658 48.5764 10.8929 -2.57658
214 1 49.5128 12.5543 -0.95161 49.5128 12.5543 -0.95161
215 2 51.3624 12.5476 0.739315 51.3624 12.5476 0.739315
216 2 51.4662 12.5611 -2.52074 51.4662 12.5611 -2.52074
217 1 1.07252 14.2016 -0.853797 1.07252 14.2016 -0.853797
218 2 2.89048 14.1752 0.870741 2.89048 14.1752 0.870741
219 2 3.05423 14.2275 -2.38657 3.05423 14.2275 -2.38657
220 1 3.92163 15.848 -0.68378 3.92163 15.848 -0.68378
221 2 5.7198 15.8055 1.06066 5.7198 15.8055 1.06066
222 2 5.92002 15.8896 -2.19411 5.92002 15.8896 -2.19411
223 1 6.77025 14.2006 -0.550975 6.77025 14.2006 -0.550975
224 2 8.5639 14.1695 1.19788 8.5639 14.1695 1.19788
225 2 8.77195 14.2311 -2.05704 8.77195 14.2311 -2.05704
226 1 9.61589 15.8462 -0.337822 9.61589 15.8462 -0.337822
227 2 11.4175 15.8042 1.40212 11.4175 15.8042 1.40212
228 2 11.6101 15.8876 -1.85341 11.6101 15.8876 -1.85341
229 1 12.4639 14.1995 -0.212006 12.4639 14.1995 -0.212006
230 2 14.2829 14.1724 1.50954 14.2829 14.1724 1.50954
231 2 14.4422 14.2264 -1.74855 14.4422 14.2264 -1.74855
232 1 15.3114 15.8451 -0.0458445 15.3114 15.8451 -0.0458445
233 2 17.1614 15.8107 1.64187 17.1614 15.8107 1.64187
234 2 17.2612 15.8798 -1.61836 17.2612 15.8798 -1.61836
235 1 18.1619 14.1994 0.00540855 18.1619 14.1994 0.00540855
236 2 20.0422 14.1823 1.65922 20.0422 14.1823 1.65922
237 2 20.0825 14.2172 -1.60293 20.0825 14.2172 -1.60293
238 1 21.0124 15.8456 0.0573636 21.0124 15.8456 0.0573636
239 2 22.9311 15.8221 1.66638 22.9311 15.8221 1.66638
240 2 22.8948 15.87 -1.59562 22.8948 15.87 -1.59562
241 1 23.8634 14.2005 7.88627e-05 23.8634 14.2005 7.88627e-05
242 2 25.8099 14.1954 1.57539 25.8099 14.1954 1.57539
243 2 25.7166 14.2063 -1.6858 25.7166 14.2063 -1.6858
244 1 26.7128 15.8471 -0.0771078 26.7128 15.8471 -0.0771078
245 2 28.6876 15.834 1.4628 28.6876 15.834 1.4628
246 2 28.5356 15.8608 -1.79597 28.5356 15.8608 -1.79597
247 1 29.5612 14.2016 -0.225027 29.5612 14.2016 -0.225027
248 2 31.5489 14.2058 1.29841 31.5489 14.2058 1.29841
249 2 31.3696 14.1975 -1.95897 31.3696 14.1975 -1.95897
250 1 32.4076 15.8483 -0.386983 32.4076 15.8483 -0.386983
251 2 34.4021 15.84 1.12802 34.4021 15.84 1.12802
252 2 34.2089 15.8565 -2.12836 34.2089 15.8565 -2.12836
253 1 35.2548 14.2018 -0.565179 35.2548 14.2018 -0.565179
254 2 37.2427 14.2075 0.958953 37.2427 14.2075 0.958953
255 2 37.0644 14.1958 -2.29814 37.0644 14.1958 -2.29814
256 1 38.1024 15.8487 -0.727819 38.1024 15.8487 -0.727819
257 2 40.0728 15.8369 0.81943 40.0728 15.8369 0.81943
258 2 39.9323 15.8603 -2.4393 39.9323 15.8603 -2.4393
259 1 40.9529 14.2016 -0.862833 40.9529 14.2016 -0.862833
260 2 42.8994 14.1999 0.714977 42.8994 14.1999 0.714977
261 2 42.8095 14.2032 -2.54551 42.8095 14.2032 -2.54551
262 1 43.8051 15.849 -0.9401 43.8051 15.849 -0.9401
263 2 45.7164 15.8269 0.680523 45.7164 15.8269 0.680523
264 2 45.6987 15.871 -2.58082 45.6987 15.871 -2.58082
265 1 46.659 14.2017 -0.977508 46.659 14.2017 -0.977508
266 2 48.5384 14.1873 0.680162 48.5384 14.1873 0.680162
267 2 48.5842 14.2162 -2.58107 48.5842 14.2162 -2.58107
268 1 49.5124 15.849 -0.922657 49.5124 15.849 -0.922657
269 2 51.3548 15.8146 0.775879 51.3548 15.8146 0.775879
270 2 51.4724 15.883 -2.48305 51.4724 15.883 -2.48305
271 1 1.07138 17.4953 -0.784716 1.07138 17.4953 -0.784716
272 2 2.88435 17.4446 0.944471 2.88435 17.4446 0.944471
273 2 3.05725 17.545 -2.31131 3.05725 17.545 -2.31131
274 1 3.91955 19.1403 -0.582143 3.91955 19.1403 -0.582143
275 2 5.71609 19.0789 1.16336 5.71609 19.0789 1.16336
276 2 5.9191 19.2005 -2.0901 5.9191 19.2005 -2.0901
277 1 6.76803 17.4932 -0.465793 6.76803 17.4932 -0.465793
278 2 8.56179 17.4396 1.28241 8.56179 17.4396 1.28241
279 2 8.76957 17.5458 -1.97138 8.76957 17.5458 -1.97138
280 1 9.61338 19.1376 -0.230088 9.61338 19.1376 -0.230088
281 2 11.4184 19.0782 1.50588 11.4184 19.0782 1.50588
282 2 11.6047 19.1964 -1.7489 11.6047 19.1964 -1.7489
283 1 12.4619 17.4911 -0.127283 12.4619 17.4911 -0.127283
284 2 14.2858 17.4424 1.5887 14.2858 17.4424 1.5887
285 2 14.436 17.5398 -1.66875 14.436 17.5398 -1.66875
286 1 15.3098 19.1361 0.0530038 15.3098 19.1361 0.0530038
287 2 17.1664 19.084 1.73333 17.1664 19.084 1.73333
288 2 17.254 19.1887 -1.5262 17.254 19.1887 -1.5262
289 1 18.161 17.4907 0.0757236 18.161 17.4907 0.0757236
290 2 20.0485 17.4513 1.72116 20.0485 17.4513 1.72116
291 2 20.075 17.531 -1.54025 20.075 17.531 -1.54025
292 1 21.012 19.1366 0.138366 21.012 19.1366 0.138366
293 2 22.9378 19.0933 1.73877 22.9378 19.0933 1.73877
294 2 22.8877 19.1811 -1.5221 22.8877 19.1811 -1.5221
295 1 23.8632 17.492 0.0488171 23.8632 17.492 0.0488171
296 2 25.8168 17.4625 1.61526 25.8168 17.4625 1.61526
297 2 25.7091 17.5225 -1.64489 25.7091 17.5225 -1.64489
298 1 26.7129 19.1387 -0.016042 26.7129 19.1387 -0.016042
299 2 28.6932 19.1022 1.51663 28.6932 19.1022 1.51663
300 2 28.5298 19.176 -1.7408 28.5298 19.176 -1.7408
301 1 29.5607 17.4939 -0.197538 29.5607 17.4939 -0.197538
302 2 31.5528 17.471 1.32006 31.5528 17.471 1.32006
303 2 31.3643 17.5172 -1.93643 31.3643 17.5172 -1.93643
304 1 32.4074 19.1409 -0.34001 32.4074 19.1409 -0.34001
305 2 34.4038 19.1063 1.17221 34.4038 19.1063 1.17221
306 2 34.2067 19.1756 -2.08322 34.2067 19.1756 -2.08322
307 1 35.2541 17.4952 -0.548417 35.2541 17.4952 -0.548417
308 2 37.2418 17.4722 0.975945 37.2418 17.4722 0.975945
309 2 37.064 17.5181 -2.28087 37.064 17.5181 -2.28087
310 1 38.1022 19.1424 -0.681283 38.1022 19.1424 -0.681283
311 2 40.0704 19.1037 0.868476 40.0704 19.1037 0.868476
312 2 39.9346 19.1808 -2.38967 39.9346 19.1808 -2.38967
313 1 40.9525 17.496 -0.839379 40.9525 17.496 -0.839379
314 2 42.8944 17.4658 0.74391 42.8944 17.4658 0.74391
315 2 42.814 17.5259 -2.51631 42.814 17.5259 -2.51631
316 1 43.8051 19.1431 -0.879402 43.8051 19.1431 -0.879402
317 2 45.7112 19.0959 0.74667 45.7112 19.0959 0.74667
318 2 45.7035 19.1897 -2.51376 45.7035 19.1897 -2.51376
319 1 46.6588 17.4963 -0.933196 46.6588 17.4963 -0.933196
320 2 48.5315 17.4551 0.731572 48.5315 17.4551 0.731572
321 2 48.5903 17.5368 -2.52862 48.5903 17.5368 -2.52862
322 1 49.5117 19.1425 -0.840097 49.5117 19.1425 -0.840097
323 2 51.3488 19.0861 0.863367 51.3488 19.0861 0.863367
324 2 51.476 19.1978 -2.39411 51.476 19.1978 -2.39411
325 1 1.06973 20.7874 -0.671675 1.06973 20.7874 -0.671675
326 2 2.88021 20.7214 1.05949 2.88021 20.7214 1.05949
327 2 3.05733 20.8519 -2.19509 3.05733 20.8519 -2.19509
328 1 3.91717 22.4312 -0.449917 3.91717 22.4312 -0.449917
329 2 5.71436 22.3621 1.29456 5.71436 22.3621 1.29456
330 2 5.91581 22.499 -1.95845 5.91581 22.499 -1.95845
331 1 6.76539 20.7843 -0.342477 6.76539 20.7843 -0.342477
332 2 8.56097 20.7182 1.40345 8.56097 20.7182 1.40345
333 2 8.76527 20.8495 -1.84965 8.76527 20.8495 -1.84965
334 1 9.61083 22.428 -0.0969237 9.61083 22.428 -0.0969237
335 2 11.4202 22.3625 1.63446 11.4202 22.3625 1.63446
336 2 11.5985 22.4934 -1.62021 11.5985 22.4934 -1.62021
337 1 12.4597 20.7818 -0.00728483 12.4597 20.7818 -0.00728483
338 2 14.2892 20.7209 1.70263 14.2892 20.7209 1.70263
339 2 14.4292 20.8429 -1.55435 14.4292 20.8429 -1.55435
340 1 15.3084 22.4265 0.176687 15.3084 22.4265 0.176687
341 2 17.171 22.3668 1.85041 17.171 22.3668 1.85041
342 2 17.2474 22.487 -1.40871 17.2474 22.487 -1.40871
343 1 18.1601 20.7814 0.182023 18.1601 20.7814 0.182023
344 2 20.0544 20.7278 1.8197 20.0544 20.7278 1.8197
345 2 20.0682 20.836 -1.44082 20.0682 20.836 -1.44082
346 1 21.0119 22.4272 0.248049 21.0119 22.4272 0.248049
347 2 22.9432 22.3725 1.84188 22.9432 22.3725 1.84188
348 2 22.8826 22.4832 -1.41796 22.8826 22.4832 -1.41796
349 1 23.8633 20.7829 0.137949 23.8633 20.7829 0.137949
350 2 25.8227 20.7355 1.69708 25.8227 20.7355 1.69708
351 2 25.7036 20.8316 -1.56168 25.7036 20.8316 -1.56168
352 1 26.7134 22.4296 0.0813436 26.7134 22.4296 0.0813436
353 2 28.6973 22.377 1.60927 28.6973 22.377 1.60927
354 2 28.5269 22.4833 -1.6468 28.5269 22.4833 -1.6468
355 1 29.561 20.7855 -0.122576 29.561 20.7855 -0.122576
356 2 31.5564 20.7407 1.39057 31.5564 20.7407 1.39057
357 2 31.3613 20.8311 -1.86456 31.3613 20.8311 -1.86456
358 1 32.4081 22.4325 -0.248329 32.4081 22.4325 -0.248329
359 2 34.4056 22.3785 1.2622 34.4056 22.3785 1.2622
360 2 34.2064 22.487 -1.99204 34.2064 22.487 -1.99204
361 1 35.2544 20.7879 -0.478133 35.2544 20.7879 -0.478133
362 2 37.2418 20.7409 1.04611 37.2418 20.7409 1.04611
363 2 37.0645 20.8349 -2.20973 37.0645 20.8349 -2.20973
364 1 38.103 22.4348 -0.58609 38.103 22.4348 -0.58609
365 2 40.0697 22.3767 0.964845 40.0697 22.3767 0.964845
366 2 39.9365 22.4925 -2.29237 39.9365 22.4925 -2.29237
367 1 40.9528 20.7893 -0.761312 40.9528 20.7893 -0.761312
368 2 42.8915 20.7364 0.825224 42.8915 20.7364 0.825224
369 2 42.8172 20.8417 -2.43411 42.8172 20.8417 -2.43411
370 1 43.8053 22.4355 -0.77283 43.8053 22.4355 -0.77283
371 2 45.7087 22.3721 0.855777 45.7087 22.3721 0.855777
372 2 45.7059 22.4979 -2.40376 45.7059 22.4979 -2.40376
373 1 46.6585 20.7893 -0.838344 46.6585 20.7893 -0.838344
374 2 48.527 20.7289 0.830491 48.527 20.7289 0.830491
375 2 48.5935 20.8486 -2.42852 48.5935 20.8486 -2.42852
376 1 49.5106 22.4342 -0.718927 49.5106 22.4342 -0.718927
377 2 51.3455 22.3663 0.986375 51.3455 22.3663 0.986375
378 2 51.4764 22.5007 -2.27025 51.4764 22.5007 -2.27025
379 1 1.06793 24.078 -0.535527 1.06793 24.078 -0.535527
380 2 2.87873 24.0091 1.19501 2.87873 24.0091 1.19501
381 2 3.05464 24.1456 -2.05952 3.05464 24.1456 -2.05952
382 1 3.91504 25.7214 -0.311599 3.91504 25.7214 -0.311599
383 2 5.71489 25.6575 1.43023 5.71489 25.6575 1.43023
384 2 5.91099 25.7845 -1.82356 5.91099 25.7845 -1.82356
385 1 6.76286 24.0746 -0.203699 6.76286 24.0746 -0.203699
386 2 8.56166 24.0082 1.53894 8.56166 24.0082 1.53894
387 2 8.75986 24.1404 -1.71449 8.75986 24.1404 -1.71449
388 1 9.60877 25.7185 0.0371479 9.60877 25.7185 0.0371479
389 2 11.4225 25.6586 1.76436 11.4225 25.6586 1.76436
390 2 11.5928 25.7786 -1.49108 11.5928 25.7786 -1.49108
391 1 12.4578 24.0722 0.125517 12.4578 24.0722 0.125517
392 2 14.2925 24.0105 1.83011 14.2925 24.0105 1.83011
393 2 14.423 24.1345 -1.42706 14.423 24.1345 -1.42706
394 1 15.3074 25.7173 0.302406 15.3074 25.7173 0.302406
395 2 17.1743 25.6604 1.97176 17.1743 25.6604 1.97176
396 2 17.2429 25.7751 -1.28758 17.2429 25.7751 -1.28758
397 1 18.1595 24.0719 0.303924 18.1595 24.0719 0.303924
398 2 20.0588 24.0141 1.9361 20.0588 24.0141 1.9361
399 2 20.0633 24.1309 -1.32398 20.0633 24.1309 -1.32398
400 1 21.012 25.718 0.366374 21.012 25.718 0.366374
401 2 22.9461 25.6612 1.95719 22.9461 25.6612 1.95719
402 2 22.8804 25.776 -1.30224 22.8804 25.776 -1.30224
403 1 23.8637 24.0736 0.250053 23.8637 24.0736 0.250053
404 2 25.8265 24.0169 1.80511 25.8265 24.0169 1.80511
405 2 25.7011 24.1316 -1.45267 25.7011 24.1316 -1.45267
406 1 26.7144 25.7203 0.197471 26.7144 25.7203 0.197471
407 2 28.6992 25.6606 1.72422 28.6992 25.6606 1.72422
408 2 28.5272 25.7812 -1.53116 28.5272 25.7812 -1.53116
409 1 29.562 24.0765 -0.0148995 29.562 24.0765 -0.0148995
410 2 31.5587 24.0179 1.49631 31.5587 24.0179 1.49631
411 2 31.3611 24.1359 -1.75774 31.3611 24.1359 -1.75774
412 1 32.4096 25.7234 -0.128759 32.4096 25.7234 -0.128759
413 2 34.407 25.6596 1.38161 34.407 25.6596 1.38161
414 2 34.208 25.7878 -1.87194 34.208 25.7878 -1.87194
415 1 35.2556 24.0794 -0.368243 35.2556 24.0794 -0.368243
416 2 37.2427 24.0174 1.15591 37.2427 24.0174 1.15591
417 2 37.0658 24.1415 -2.09902 37.0658 24.1415 -2.09902
418 1 38.1044 25.7259 -0.460317 38.1044 25.7259 -0.460317
419 2 40.0708 25.6593 1.09048 40.0708 25.6593 1.09048
420 2 39.9376 25.7922 -2.16622 39.9376 25.7922 -2.16622
421 1 40.9536 24.0811 -0.643985 40.9536 24.0811 -0.643985
422 2 42.891 24.0155 0.94347 42.891 24.0155 0.94347
423 2 42.8187 24.1458 -2.31517 42.8187 24.1458 -2.31517
424 1 43.8057 25.7265 -0.640872 43.8057 25.7265 -0.640872
425 2 45.709 25.6589 0.987351 45.709 25.6589 0.987351
426 2 45.7055 25.7929 -2.27206 45.7055 25.7929 -2.27206
427 1 46.6581 24.0806 -0.71103 46.6581 24.0806 -0.71103
428 2 48.5253 24.0123 0.958701 48.5253 24.0123 0.958701
429 2 48.5935 24.1475 -2.29987 48.5935 24.1475 -2.29987
430 1 49.5096 25.7247 -0.582046 49.5096 25.7247 -0.582046
431 2 51.3453 25.6579 1.12215 51.3453 25.6579 1.12215
432 2 51.4738 25.79 -2.13484 51.4738 25.79 -2.13484
433 1 1.06644 27.3683 -0.401704 1.06644 27.3683 -0.401704
434 2 2.88011 27.309 1.32598 2.88011 27.309 1.32598
435 2 3.05 27.4264 -1.92973 3.05 27.4264 -1.92973
436 1 3.91366 29.0122 -0.19252 3.91366 29.0122 -0.19252
437 2 5.71746 28.9646 1.54566 5.71746 28.9646 1.54566
438 2 5.90582 29.0593 -1.70976 5.90582 29.0593 -1.70976
439 1 6.761 27.3653 -0.0748857 6.761 27.3653 -0.0748857
440 2 8.56361 27.3104 1.66423 8.56361 27.3104 1.66423
441 2 8.75458 27.42 -1.59047 8.75458 27.42 -1.59047
442 1 9.60757 29.0101 0.148302 9.60757 29.0101 0.148302
443 2 11.4246 28.9658 1.87264 11.4246 28.9658 1.87264
444 2 11.5888 29.0547 -1.38406 11.5888 29.0547 -1.38406
445 1 12.4565 27.3634 0.247236 12.4565 27.3634 0.247236
446 2 14.2949 27.3113 1.94842 14.2949 27.3113 1.94842
447 2 14.4188 27.4162 -1.30957 14.4188 27.4162 -1.30957
448 1 15.3068 29.0092 0.408717 15.3068 29.0092 0.408717
449 2 17.1753 28.9641 2.07695 17.1753 28.9641 2.07695
450 2 17.2413 29.0552 -1.18306 17.2413 29.0552 -1.18306
451 1 18.1592 27.3632 0.420077 18.1592 27.3632 0.420077
452 2 20.0606 27.3104 2.05031 20.0606 27.3104 2.05031
453 2 20.0615 27.4171 -1.20996 20.0615 27.4171 -1.20996
454 1 21.0122 29.0097 0.474284 21.0122 29.0097 0.474284
455 2 22.9458 28.9593 2.06633 22.9458 28.9593 2.06633
456 2 22.8818 29.0612 -1.19342 22.8818 29.0612 -1.19342
457 1 23.8643 27.3646 0.366219 23.8643 27.3646 0.366219
458 2 25.8274 27.3076 1.92131 25.8274 27.3076 1.92131
459 2 25.702 27.4228 -1.33632 25.702 27.4228 -1.33632
460 1 26.7155 29.0115 0.314083 26.7155 29.0115 0.314083
461 2 28.6988 28.9537 1.84322 28.6988 28.9537 1.84322
462 2 28.5306 29.0703 -1.41241 28.5306 29.0703 -1.41241
463 1 29.5635 27.3672 0.107258 29.5635 27.3672 0.107258
464 2 31.5596 27.3046 1.6193 31.5596 27.3046 1.6193
465 2 31.3635 27.4308 -1.63449 31.3635 27.4308 -1.63449
466 1 32.4116 29.0141 -0.00104193 32.4116 29.0141 -0.00104193
467 2 34.4083 28.9511 1.51037 34.4083 28.9511 1.51037
468 2 34.2107 29.0779 -1.74334 34.2107 29.0779 -1.74334
469 1 35.2574 27.3701 -0.238341 35.2574 27.3701 -0.238341
470 2 37.2445 27.304 1.28569 37.2445 27.304 1.28569
471 2 37.0674 27.4364 -1.96899 37.0674 27.4364 -1.96899
472 1 38.1062 29.0164 -0.326172 38.1062 29.0164 -0.326172
473 2 40.0738 28.9529 1.22303 40.0738 28.9529 1.22303
474 2 39.9375 29.0797 -2.03392 39.9375 29.0797 -2.03392
475 1 40.9548 27.3717 -0.509305 40.9548 27.3717 -0.509305
476 2 42.8931 27.3057 1.07673 42.8931 27.3057 1.07673
477 2 42.8181 27.437 -2.18199 42.8181 27.437 -2.18199
478 1 43.8063 29.0169 -0.507752 43.8063 29.0169 -0.507752
479 2 45.7123 28.9573 1.11723 45.7123 28.9573 1.11723
480 2 45.7024 29.0753 -2.14298 45.7024 29.0753 -2.14298
481 1 46.6579 27.371 -0.575317 46.6579 27.371 -0.575317
482 2 48.5269 27.3076 1.09228 48.5269 27.3076 1.09228
483 2 48.5907 27.4331 -2.16697 48.5907 27.4331 -2.16697
484 1 49.5089 29.015 -0.454851 49.5089 29.015 -0.454851
485 2 51.3482 28.9616 1.24558 51.3482 28.9616 1.24558
486 2 51.4689 29.0672 -2.01283 51.4689 29.0672 -2.01283
487 1 1.06567 30.6592 -0.294504 1.06567 30.6592 -0.294504
488 2 2.88408 30.6199 1.42857 2.88408 30.6199 1.42857
489 2 3.04449 30.6977 -1.82891 3.04449 30.6977 -1.82891
490 1 3.91335 32.3041 -0.113635 3.91335 32.3041 -0.113635
491 2 5.72145 32.2807 1.62046 5.72145 32.2807 1.62046
492 2 5.90142 32.3272 -1.63652 5.90142 32.3272 -1.63652
493 1 6.76018 30.657 0.0211345 6.76018 30.657 0.0211345
494 2 8.56623 30.6228 1.7572 8.56623 30.6228 1.7572
495 2 8.75062 30.6914 -1.499 8.75062 30.6914 -1.499
496 1 9.60741 32.3029 0.217843 9.60741 32.3029 0.217843
497 2 11.4258 32.2812 1.94117 11.4258 32.2812 1.94117
498 2 11.5874 32.3251 -1.31655 11.5874 32.3251 -1.31655
499 1 12.456 30.6559 0.337361 12.456 30.6559 0.337361
500 2 14.2956 30.6215 2.03779 14.2956 30.6215 2.03779
501 2 14.4173 30.691 -1.22114 14.4173 30.691 -1.22114
502 1 15.3067 32.3025 0.479041 15.3067 32.3025 0.479041
503 2 17.1736 32.2757 2.14969 17.1736 32.2757 2.14969
504 2 17.243 32.33 -1.11098 17.243 32.33 -1.11098
505 1 18.1591 30.6558 0.512227 18.1591 30.6558 0.512227
506 2 20.0592 30.6157 2.14455 20.0592 30.6157 2.14455
507 2 20.0631 30.6967 -1.11632 20.0631 30.6967 -1.11632
508 1 21.0124 32.3027 0.556104 21.0124 32.3027 0.556104
509 2 22.9423 32.2658 2.15332 22.9423 32.2658 2.15332
510 2 22.8863 32.3403 -1.10722 22.8863 32.3403 -1.10722
511 1 23.865 30.6566 0.469141 23.865 30.6566 0.469141
512 2 25.8253 30.6075 2.0282 25.8253 30.6075 2.0282
513 2 25.7061 30.7067 -1.23007 25.7061 30.7067 -1.23007
514 1 26.7167 32.3037 0.414327 26.7167 32.3037 0.414327
515 2 28.6966 32.2564 1.94856 28.6966 32.2564 1.94856
516 2 28.536 32.3517 -1.30808 28.536 32.3517 -1.30808
517 1 29.5652 30.6585 0.225203 29.5652 30.6585 0.225203
518 2 31.5594 30.6016 1.74021 31.5594 30.6016 1.74021
519 2 31.3676 30.7164 -1.51422 31.3676 30.7164 -1.51422
520 1 32.4138 32.3056 0.115158 32.4138 32.3056 0.115158
521 2 34.4097 32.2531 1.62803 34.4097 32.2531 1.62803
522 2 34.2138 32.3587 -1.62654 34.2138 32.3587 -1.62654
523 1 35.2596 30.6609 -0.109832 35.2596 30.6609 -0.109832
524 2 37.2473 30.6017 1.41362 37.2473 30.6017 1.41362
525 2 37.0686 30.7205 -1.84157 37.0686 30.7205 -1.84157
526 1 38.1081 32.3073 -0.205727 38.1081 32.3073 -0.205727
527 2 40.0786 32.2573 1.34021 40.0786 32.2573 1.34021
528 2 39.9359 32.3573 -1.91751 39.9359 32.3573 -1.91751
529 1 40.9562 30.6622 -0.380772 40.9562 30.6622 -0.380772
530 2 42.8977 30.607 1.20147 42.8977 30.607 1.20147
531 2 42.8153 30.7169 -2.05803 42.8153 30.7169 -2.05803
532 1 43.8071 32.3076 -0.396302 43.8071 32.3076 -0.396302
533 2 45.7184 32.266 1.22269 45.7184 32.266 1.22269
534 2 45.6971 32.3482 -2.03871 45.6971 32.3482 -2.03871
535 1 46.6579 30.6615 -0.455639 46.6579 30.6615 -0.455639
536 2 48.5316 30.614 1.20695 48.5316 30.614 1.20695
537 2 48.5854 30.7077 -2.05372 48.5854 30.7077 -2.05372
538 1 49.5087 32.306 -0.359784 49.5087 32.306 -0.359784