ITEM: TIMESTEP
99000
ITEM: NUMBER OF ATOMS
810
ITEM: BOX BOUNDS pp pp pp
8.6332289889906844e-01 5.2154282101099902e+01
8.0845585162792455e-01 5.0207759148371558e+01
-1.0000000000000000e+01 1.0000000000000000e+01
ITEM: ATOMS id type x y z xu yu zu
1 1 1.06733 1.0227 -0.5058 1.06733 1.0227 -0.5058
2 2 2.87793 1.03291 1.22627 2.87793 1.03291 1.22627
3 2 3.05405 1.01276 -2.0311 3.05405 1.01276 -2.0311
4 1 3.91555 2.66954 -0.36102 3.91555 2.66954 -0.36102
5 2 5.71238 2.68404 1.38513 5.71238 2.68404 1.38513
6 2 5.91424 2.65533 -1.87066 5.91424 2.65533 -1.87066
7 1 6.76181 1.02326 -0.169154 6.76181 1.02326 -0.169154
8 2 8.55905 1.03138 1.57638 8.55905 1.03138 1.57638
9 2 8.76014 1.01522 -1.67951 8.76014 1.01522 -1.67951
10 1 9.60864 2.67019 -0.00101582 9.60864 2.67019 -0.00101582
11 2 11.4185 2.68206 1.73121 11.4185 2.68206 1.73121
12 2 11.5961 2.65833 -1.52598 11.5961 2.65833 -1.52598
13 1 12.4564 1.02352 0.1665 12.4564 1.02352 0.1665
14 2 14.2919 1.02926 1.87135 14.2919 1.02926 1.87135
15 2 14.421 1.01758 -1.38818 14.421 1.01758 -1.38818
16 1 15.3065 2.6703 0.273226 15.3065 2.6703 0.273226
17 2 17.173 2.6773 1.94393 17.173 2.6773 1.94393
18 2 17.2424 2.66294 -1.31742 17.2424 2.66294 -1.31742
19 1 18.1583 1.02336 0.340654 18.1583 1.02336 0.340654
20 2 20.0607 1.02778 1.97008 20.0607 1.02778 1.97008
21 2 20.059 1.01867 -1.29205 20.059 1.01867 -1.29205
22 1 21.0107 2.66985 0.333641 21.0107 2.66985 0.333641
23 2 22.9459 2.67201 1.92396 22.9459 2.67201 1.92396
24 2 22.8778 2.66737 -1.33751 22.8778 2.66737 -1.33751
25 1 23.8624 1.02306 0.275495 23.8624 1.02306 0.275495
26 2 25.8266 1.02753 1.82968 25.8266 1.02753 1.82968
27 2 25.6981 1.01843 -1.42998 25.6981 1.01843 -1.42998
28 1 26.7124 2.66943 0.15751 26.7124 2.66943 0.15751
29 2 28.6967 2.66901 1.68595 28.6967 2.66901 1.68595
30 2 28.5256 2.6698 -1.57177 28.5256 2.6698 -1.57177
31 1 29.5604 1.02278 0.00656821 29.5604 1.02278 0.00656821
32 2 31.5556 1.02829 1.52082 31.5556 1.02829 1.52082
33 2 31.3611 1.01721 -1.73554 31.3611 1.01721 -1.73554
34 1 32.4074 2.66931 -0.169863 32.4074 2.66931 -0.169863
35 2 34.4032 2.66942 1.34381 34.4032 2.66942 1.34381
36 2 34.2074 2.66927 -1.91246 34.2074 2.66927 -1.91246
37 1 35.2541 1.02252 -0.341472 35.2541 1.02252 -0.341472
38 2 37.2396 1.02935 1.18612 37.2396 1.02935 1.18612
39 2 37.0663 1.01567 -2.07136 37.0663 1.01567 -2.07136
40 1 38.1023 2.66924 -0.50011 38.1023 2.66924 -0.50011
41 2 40.0685 2.67253 1.05247 40.0685 2.67253 1.05247
42 2 39.936 2.66595 -2.20692 39.936 2.66595 -2.20692
43 1 40.9522 1.0223 -0.612543 40.9522 1.0223 -0.612543
44 2 42.8896 1.03083 0.976206 42.8896 1.03083 0.976206
45 2 42.8171 1.01383 -2.28505 42.8171 1.01383 -2.28505
46 1 43.804 2.66906 -0.683992 43.804 2.66906 -0.683992
47 2 45.7086 2.67742 0.944082 45.7086 2.67742 0.944082
48 2 45.7026 2.66068 -2.31798 45.7026 2.66068 -2.31798
49 1 46.6564 1.02231 -0.680111 46.6564 1.02231 -0.680111
50 2 48.5246 1.03251 0.989795 48.5246 1.03251 0.989795
51 2 48.5906 1.01231 -2.27163 48.5906 1.01231 -2.27163
52 1 49.5084 2.66904 -0.631619 49.5084 2.66904 -0.631619
53 2 51.3447 2.68216 1.07334 51.3447 2.68216 1.07334
54 2 51.4723 2.6561 -2.18623 51.4723 2.6561 -2.18623
55 1 1.06792 4.31575 -0.532105 1.06792 4.31575 -0.532105
56 2 2.87982 4.33385 1.19859 2.87982 4.33385 1.19859
57 2 3.05359 4.29793 -2.05876 3.05359 4.29793 -2.05876
58 1 3.91672 5.96257 -0.397314 3.91672 5.96257 -0.397314
59 2 5.71459 5.98588 1.34771 5.71459 5.98588 1.34771
60 2 5.91457 5.93968 -1.90799 5.91457 5.93968 -1.90799
61 1 6.76265 4.31648 -0.19825 6.76265 4.31648 -0.19825
62 2 8.55861 4.33515 1.54854 8.55861 4.33515 1.54854
63 2 8.7621 4.29814 -1.70704 8.7621 4.29814 -1.70704
64 1 9.60988 5.96351 -0.03858 9.60988 5.96351 -0.03858
65 2 11.4169 5.98406 1.69655 11.4169 5.98406 1.69655
66 2 11.5998 5.94315 -1.56019 11.5998 5.94315 -1.56019
67 1 12.4569 4.3171 0.142366 12.4569 4.3171 0.142366
68 2 14.2896 4.33017 1.85026 14.2896 4.33017 1.85026
69 2 14.4241 4.30385 -1.40898 14.4241 4.30385 -1.40898
70 1 15.3072 5.9638 0.246376 15.3072 5.9638 0.246376
71 2 17.1684 5.97401 1.92283 17.1684 5.97401 1.92283
72 2 17.2478 5.95315 -1.33829 17.2478 5.95315 -1.33829
73 1 18.1584 4.31684 0.325985 18.1584 4.31684 0.325985
74 2 20.0578 4.321 1.95906 20.0578 4.321 1.95906
75 2 20.0622 4.31216 -1.30309 20.0622 4.31216 -1.30309
76 1 21.011 5.9631 0.324475 21.011 5.9631 0.324475
77 2 22.9412 5.96059 1.92084 22.9412 5.96059 1.92084
78 2 22.8833 5.96508 -1.34085 22.8833 5.96508 -1.34085
79 1 23.8626 4.31615 0.270703 23.8626 4.31615 0.270703
80 2 25.8248 4.31251 1.82743 25.8248 4.31251 1.82743
81 2 25.7005 4.31955 -1.43241 25.7005 4.31955 -1.43241
82 1 26.7131 5.96245 0.164502 26.7131 5.96245 0.164502
83 2 28.695 5.95143 1.69603 28.695 5.95143 1.69603
84 2 28.529 5.97347 -1.56188 28.529 5.97347 -1.56188
85 1 29.5608 4.3159 0.00733887 29.5608 4.3159 0.00733887
86 2 31.5558 4.30933 1.52184 31.5558 4.30933 1.52184
87 2 31.3618 4.3226 -1.73454 31.3618 4.3226 -1.73454
88 1 32.4083 5.96259 -0.156413 32.4083 5.96259 -0.156413
89 2 34.4049 5.95089 1.35619 34.4049 5.95089 1.35619
90 2 34.2075 5.97458 -1.8999 34.2075 5.97458 -1.8999
91 1 35.2545 4.31606 -0.341582 35.2545 4.31606 -0.341582
92 2 37.2413 4.31203 1.1842 37.2413 4.31203 1.1842
93 2 37.0651 4.3202 -2.07313 37.0651 4.3202 -2.07313
94 1 38.1029 5.96292 -0.491702 38.1029 5.96292 -0.491702
95 2 40.0725 5.95761 1.05661 40.0725 5.95761 1.05661
96 2 39.933 5.96824 -2.20248 39.933 5.96824 -2.20248
97 1 40.9524 4.31602 -0.619084 40.9524 4.31602 -0.619084
98 2 42.8924 4.31877 0.966445 42.8924 4.31877 0.966445
99 2 42.8145 4.31316 -2.29471 42.8145 4.31316 -2.29471
100 1 43.8042 5.96269 -0.689452 43.8042 5.96269 -0.689452
101 2 45.7138 5.96832 0.932864 45.7138 5.96832 0.932864
102 2 45.6979 5.9568 -2.32918 45.6979 5.9568 -2.32918
103 1 46.6566 4.31571 -0.696913 46.6566 4.31571 -0.696913
104 2 48.5277 4.32721 0.969712 48.5277 4.32721 0.969712
105 2 48.5881 4.30414 -2.29178 48.5881 4.30414 -2.29178
106 1 49.5089 5.96226 -0.654774 49.5089 5.96226 -0.654774
107 2 51.3495 5.97936 1.04549 51.3495 5.97936 1.04549
108 2 51.4689 5.94515 -2.21429 51.4689 5.94515 -2.21429
109 1 1.06898 7.60884 -0.566534 1.06898 7.60884 -0.566534
110 2 2.88534 7.63233 1.15943 2.88534 7.63233 1.15943
111 2 3.05078 7.58554 -2.09819 3.05078 7.58554 -2.09819
112 1 3.9185 9.25557 -0.444532 3.9185 9.25557 -0.444532
113 2 5.71934 9.28412 1.29737 5.71934 9.28412 1.29737
114 2 5.91383 9.22746 -1.95849 5.91383 9.22746 -1.95849
115 1 6.76442 7.60954 -0.24502 6.76442 7.60954 -0.24502
116 2 8.55964 7.63617 1.50244 8.55964 7.63617 1.50244
117 2 8.76451 7.58341 -1.75284 8.76451 7.58341 -1.75284
118 1 9.612 9.25658 -0.0921145 9.612 9.25658 -0.0921145
119 2 11.4151 9.28276 1.64694 11.4151 9.28276 1.64694
120 2 11.6052 9.23079 -1.60926 11.6052 9.23079 -1.60926
121 1 12.4583 7.61043 0.100735 12.4583 7.61043 0.100735
122 2 14.2853 7.62891 1.81456 14.2853 7.62891 1.81456
123 2 14.4304 7.59188 -1.44415 14.4304 7.59188 -1.44415
124 1 15.3083 9.25708 0.208549 15.3083 9.25708 0.208549
125 2 17.161 9.26904 1.89451 17.161 9.26904 1.89451
126 2 17.257 9.24474 -1.36616 17.257 9.24474 -1.36616
127 1 18.159 7.61018 0.304562 18.159 7.61018 0.304562
128 2 20.0508 7.61336 1.94636 20.0508 7.61336 1.94636
129 2 20.0702 7.60637 -1.31576 20.0702 7.60637 -1.31576
130 1 21.0116 9.25629 0.317026 21.0116 9.25629 0.317026
131 2 22.9329 9.24973 1.92398 22.9329 9.24973 1.92398
132 2 22.8929 9.26219 -1.33796 22.8929 9.26219 -1.33796
133 1 23.8632 7.60923 0.27499 23.8632 7.60923 0.27499
134 2 25.8197 7.59796 1.83878 25.8197 7.59796 1.83878
135 2 25.7073 7.62015 -1.42143 25.7073 7.62015 -1.42143
136 1 26.7143 9.25545 0.18674 26.7143 9.25545 0.18674
137 2 28.6915 9.23578 1.72422 28.6915 9.23578 1.72422
138 2 28.5355 9.27509 -1.53402 28.5355 9.27509 -1.53402
139 1 29.5621 7.60895 0.0295586 29.5621 7.60895 0.0295586
140 2 31.5558 7.59133 1.54571 31.5558 7.59133 1.54571
141 2 31.3646 7.62686 -1.71067 31.3646 7.62686 -1.71067
142 1 32.4102 9.25573 -0.120431 32.4102 9.25573 -0.120431
143 2 34.4077 9.23418 1.39079 34.4077 9.23418 1.39079
144 2 34.2083 9.27773 -1.86498 34.2083 9.27773 -1.86498
145 1 35.2559 7.60949 -0.317498 35.2559 7.60949 -0.317498
146 2 37.2455 7.59541 1.20449 37.2455 7.59541 1.20449
147 2 37.0632 7.62385 -2.05241 37.0632 7.62385 -2.05241
148 1 38.1043 9.25643 -0.462681 38.1043 9.25643 -0.462681
149 2 40.0793 9.24346 1.07856 40.0793 9.24346 1.07856
150 2 39.9283 9.26951 -2.17994 39.9283 9.26951 -2.17994
151 1 40.9531 7.60971 -0.608082 40.9531 7.60971 -0.608082
152 2 42.8988 7.60659 0.970298 42.8988 7.60659 0.970298
153 2 42.8091 7.61264 -2.29055 42.8091 7.61264 -2.29055
154 1 43.8048 9.25632 -0.682993 43.8048 9.25632 -0.682993
155 2 45.7223 9.25841 0.929757 45.7223 9.25841 0.929757
156 2 45.6903 9.25381 -2.33218 45.6903 9.25381 -2.33218
157 1 46.657 7.60918 -0.708295 46.657 7.60918 -0.708295
158 2 48.5349 7.62053 0.950654 48.5349 7.62053 0.950654
159 2 48.582 7.59752 -2.31104 48.582 7.59752 -2.31104
160 1 49.5096 9.25558 -0.677749 49.5096 9.25558 -0.677749
161 2 51.3578 9.27399 1.01419 51.3578 9.27399 1.01419
162 2 51.4627 9.23694 -2.24604 51.4627 9.23694 -2.24604
163 1 1.07027 10.902 -0.603751 1.07027 10.902 -0.603751
164 2 2.89355 10.9269 1.11488 2.89355 10.9269 1.11488
165 2 3.04599 10.8772 -2.1433 3.04599 10.8772 -2.1433
166 1 3.92052 12.5487 -0.49463 3.92052 12.5487 -0.49463
167 2 5.72589 12.5774 1.24259 5.72589 12.5774 1.24259
168 2 5.91197 12.5203 -2.01374 5.91197 12.5203 -2.01374
169 1 6.76683 10.9025 -0.302339 6.76683 10.9025 -0.302339
170 2 8.56197 10.9328 1.44517 8.56197 10.9328 1.44517
171 2 8.76699 10.8728 -1.80999 8.76699 10.8728 -1.80999
172 1 9.61465 12.5495 -0.152939 9.61465 12.5495 -0.152939
173 2 11.4137 12.577 1.59035 11.4137 12.577 1.59035
174 2 11.6114 12.5226 -1.66537 11.6114 12.5226 -1.66537
175 1 12.4603 10.9035 0.0478535 12.4603 10.9035 0.0478535
176 2 14.2798 10.9246 1.76963 14.2798 10.9246 1.76963
177 2 14.4391 10.8825 -1.48839 14.4391 10.8825 -1.48839
178 1 15.3099 12.5502 0.165506 15.3099 12.5502 0.165506
179 2 17.152 12.5623 1.86304 17.152 12.5623 1.86304
180 2 17.2683 12.5378 -1.39699 17.2683 12.5378 -1.39699
181 1 18.1598 10.9034 0.279529 18.1598 10.9034 0.279529
182 2 20.0409 10.9055 1.93365 20.0409 10.9055 1.93365
183 2 20.0814 10.9007 -1.3283 20.0814 10.9007 -1.3283
184 1 21.0123 12.5495 0.311668 21.0123 12.5495 0.311668
185 2 22.9225 12.5406 1.93191 22.9225 12.5406 1.93191
186 2 22.905 12.5575 -1.33021 22.905 12.5575 -1.33021
187 1 23.8641 10.9023 0.287235 23.8641 10.9023 0.287235
188 2 25.8123 10.8857 1.8614 25.8123 10.8857 1.8614
189 2 25.7171 10.9184 -1.39926 25.7171 10.9184 -1.39926
190 1 26.7158 12.5484 0.219502 26.7158 12.5484 0.219502
191 2 28.6867 12.524 1.76496 28.6867 12.524 1.76496
192 2 28.544 12.5727 -1.49374 28.544 12.5727 -1.49374
193 1 29.5641 10.9019 0.0692201 29.5641 10.9019 0.0692201
194 2 31.5554 10.8764 1.58829 31.5554 10.8764 1.58829
195 2 31.3692 10.9278 -1.66817 31.3692 10.9278 -1.66817
196 1 32.4127 12.5487 -0.0684204 32.4127 12.5487 -0.0684204
197 2 34.411 12.521 1.4416 34.411 12.521 1.4416
198 2 34.2098 12.5769 -1.81387 34.2098 12.5769 -1.81387
199 1 35.258 10.9027 -0.273263 35.258 10.9027 -0.273263
200 2 37.2514 10.8808 1.24358 37.2514 10.8808 1.24358
201 2 37.0609 10.925 -2.01269 37.0609 10.925 -2.01269
202 1 38.1063 12.5497 -0.417699 38.1063 12.5497 -0.417699
203 2 40.0878 12.531 1.11493 40.0878 12.531 1.11493
204 2 39.9228 12.5687 -2.1428 39.9228 12.5687 -2.1428
205 1 40.9542 10.9033 -0.581385 40.9542 10.9033 -0.581385
206 2 42.9079 10.8946 0.987013 42.9079 10.8946 0.987013
207 2 42.8016 10.9117 -2.27331 42.8016 10.9117 -2.27331
208 1 43.8055 12.5498 -0.665238 43.8055 12.5498 -0.665238
209 2 45.733 12.5476 0.93564 45.733 12.5476 0.93564
210 2 45.6809 12.5517 -2.32604 45.6809 12.5517 -2.32604
211 1 46.6575 10.9027 -0.712567 46.6575 10.9027 -0.712567
212 2 48.5449 10.9118 0.935506 48.5449 10.9118 0.935506
213 2 48.5732 10.8931 -2.32642 48.5732 10.8931 -2.32642
214 1 49.5103 12.549 -0.696338 49.5103 12.549 -0.696338
215 2 51.3682 12.5652 0.98494 51.3682 12.5652 0.98494
216 2 51.4544 12.5324 -2.27586 51.4544 12.5324 -2.27586
217 1 1.07152 14.1954 -0.636616 1.07152 14.1954 -0.636616
218 2 2.90311 14.2168 1.07319 2.90311 14.2168 1.07319
219 2 3.03983 14.1738 -2.18576 3.03983 14.1738 -2.18576
220 1 3.92235 15.842 -0.537949 3.92235 15.842 -0.537949
221 2 5.73322 15.8653 1.19364 5.73322 15.8653 1.19364
222 2 5.90907 15.8188 -2.0634 5.90907 15.8188 -2.0634
223 1 6.7694 14.1955 -0.360024 6.7694 14.1955 -0.360024
224 2 8.56536 14.224 1.3867 8.56536 14.224 1.3867
225 2 8.7689 14.1676 -1.8686 8.7689 14.1676 -1.8686
226 1 9.61735 15.8425 -0.210087 9.61735 15.8425 -0.210087
227 2 11.413 15.8663 1.53675 11.413 15.8663 1.53675
228 2 11.617 15.8192 -1.71871 11.617 15.8192 -1.71871
229 1 12.4627 14.1964 -0.00751348 12.4627 14.1964 -0.00751348
230 2 14.2743 14.2168 1.72268 14.2743 14.2168 1.72268
231 2 14.4485 14.1764 -1.53461 14.4485 14.1764 -1.53461
232 1 15.3117 15.8431 0.124171 15.3117 15.8431 0.124171
233 2 17.1433 15.8537 1.8331 17.1433 15.8537 1.8331
234 2 17.2796 15.8324 -1.42619 17.2796 15.8324 -1.42619
235 1 18.1609 14.1965 0.2542 18.1609 14.1965 0.2542
236 2 20.0299 14.1978 1.92197 20.0299 14.1978 1.92197
237 2 20.0941 14.1946 -1.3396 20.0941 14.1946 -1.3396
238 1 21.013 15.8426 0.307931 21.013 15.8426 0.307931
239 2 22.9116 15.8338 1.94178 22.9116 15.8338 1.94178
240 2 22.9173 15.8507 -1.32037 22.9173 15.8507 -1.32037
241 1 23.865 14.1954 0.303905 23.865 14.1954 0.303905
242 2 25.8034 14.1772 1.89009 25.8034 14.1772 1.89009
243 2 25.7284 14.2131 -1.37104 25.7284 14.2131 -1.37104
244 1 26.7171 15.8415 0.255481 26.7171 15.8415 0.255481
245 2 28.6811 15.8172 1.80986 28.6811 15.8172 1.80986
246 2 28.5531 15.8656 -1.44943 28.5531 15.8656 -1.44943
247 1 29.5662 14.1949 0.118382 29.5662 14.1949 0.118382
248 2 31.5544 14.1663 1.64151 31.5544 14.1663 1.64151
249 2 31.375 14.2237 -1.61521 31.375 14.2237 -1.61521
250 1 32.4151 15.8416 -0.0102634 32.4151 15.8416 -0.0102634
251 2 34.4137 15.8128 1.49948 34.4137 15.8128 1.49948
252 2 34.2121 15.8709 -1.75593 34.2121 15.8709 -1.75593
253 1 35.2605 14.1957 -0.216583 35.2605 14.1957 -0.216583
254 2 37.2579 14.1697 1.29501 37.2579 14.1697 1.29501
255 2 37.0589 14.2223 -1.96065 37.0589 14.2223 -1.96065
256 1 38.1085 15.8427 -0.364131 38.1085 15.8427 -0.364131
257 2 40.0964 15.8211 1.16014 40.0964 15.8211 1.16014
258 2 39.9177 15.8648 -2.09682 39.9177 15.8648 -2.09682
259 1 40.9557 14.1966 -0.542813 40.9557 14.1966 -0.542813
260 2 42.9181 14.1833 1.01451 42.9181 14.1833 1.01451
261 2 42.7935 14.2098 -2.24512 42.7935 14.2098 -2.24512
262 1 43.8065 15.8432 -0.638056 43.8065 15.8432 -0.638056
263 2 45.7439 15.8364 0.95066 45.7439 15.8364 0.95066
264 2 45.6714 15.8498 -2.31062 45.6714 15.8498 -2.31062
265 1 46.658 14.1962 -0.70806 46.658 14.1962 -0.70806
266 2 48.5561 14.201 0.927651 48.5561 14.201 0.927651
267 2 48.5633 14.191 -2.33442 48.5633 14.191 -2.33442
268 1 49.511 15.8426 -0.706086 49.511 15.8426 -0.706086
269 2 51.3791 15.8531 0.963867 51.3791 15.8531 0.963867
270 2 51.4455 15.8315 -2.29747 51.4455 15.8315 -2.29747
271 1 1.07248 17.489 -0.658083 1.07248 17.489 -0.658083
272 2 2.91246 17.5026 1.04275 2.91246 17.5026 1.04275
273 2 3.03321 17.475 -2.21698 3.03321 17.475 -2.21698
274 1 3.92366 19.1356 -0.565697 3.92366 19.1356 -0.565697
275 2 5.74012 19.1489 1.16013 5.74012 19.1489 1.16013
276 2 5.9055 19.1222 -2.09766 5.9055 19.1222 -2.09766
277 1 6.77162 17.4888 -0.406996 6.77162 17.4888 -0.406996
278 2 8.56936 17.51 1.33804 8.56936 17.51 1.33804
279 2 8.76965 17.468 -1.91768 8.76965 17.468 -1.91768
280 1 9.61955 19.1357 -0.252614 9.61955 19.1357 -0.252614
281 2 11.4135 19.1513 1.49619 11.4135 19.1513 1.49619
282 2 11.6207 19.1205 -1.75925 11.6207 19.1205 -1.75925
283 1 12.4651 17.4894 -0.0554248 12.4651 17.4894 -0.0554248
284 2 14.2699 17.5054 1.68187 14.2699 17.5054 1.68187
285 2 14.4567 17.4738 -1.57483 14.4567 17.4738 -1.57483
286 1 15.3134 19.1361 0.0918583 15.3134 19.1361 0.0918583
287 2 17.1366 19.1432 1.80974 17.1366 19.1432 1.80974
288 2 17.2887 19.129 -1.44889 17.2887 19.129 -1.44889
289 1 18.162 17.4895 0.232177 18.162 17.4895 0.232177
290 2 20.0199 17.4902 1.91237 20.0199 17.4902 1.91237
291 2 20.1057 17.4884 -1.34871 20.1057 17.4884 -1.34871
292 1 21.0137 19.1357 0.305659 21.0137 19.1357 0.305659
293 2 22.9024 19.1286 1.951 22.9024 19.1286 1.951
294 2 22.9278 19.1422 -1.31105 22.9278 19.1422 -1.31105
295 1 23.8657 17.4886 0.3206 23.8657 17.4886 0.3206
296 2 25.7947 17.4725 1.91842 25.7947 17.4725 1.91842
297 2 25.7392 17.5041 -1.34312 25.7392 17.5041 -1.34312
298 1 26.7181 19.1348 0.287236 26.7181 19.1348 0.287236
299 2 28.6755 19.1151 1.85006 28.6755 19.1151 1.85006
300 2 28.5614 19.1541 -1.40985 28.5614 19.1541 -1.40985
301 1 29.568 17.4879 0.16711 29.568 17.4879 0.16711
302 2 31.5525 17.4616 1.69515 31.5525 17.4616 1.69515
303 2 31.3811 17.5144 -1.56206 31.3811 17.5144 -1.56206
304 1 32.4172 19.1347 0.0430932 32.4172 19.1347 0.0430932
305 2 34.415 19.1099 1.55394 34.415 19.1099 1.55394
306 2 34.2151 19.16 -1.7017 34.2151 19.16 -1.7017
307 1 35.263 17.4886 -0.157638 35.263 17.4886 -0.157638
308 2 37.2633 17.4628 1.35001 37.2633 17.4628 1.35001
309 2 37.058 17.5151 -1.90526 37.058 17.5151 -1.90526
310 1 38.1105 19.1357 -0.311033 38.1105 19.1357 -0.311033
311 2 40.1031 19.1145 1.207 40.1031 19.1145 1.207
312 2 39.9143 19.1574 -2.04942 39.9143 19.1574 -2.04942
313 1 40.9572 17.4897 -0.498145 40.9572 17.4897 -0.498145
314 2 42.9275 17.4736 1.04914 42.9275 17.4736 1.04914
315 2 42.7864 17.5059 -2.20978 42.7864 17.5059 -2.20978
316 1 43.8075 19.1364 -0.604966 43.8075 19.1364 -0.604966
317 2 45.7531 19.1256 0.973501 45.7531 19.1256 0.973501
318 2 45.6635 19.1471 -2.28733 45.6635 19.1471 -2.28733
319 1 46.6586 17.4897 -0.694117 46.6586 17.4897 -0.694117
320 2 48.5668 17.4886 0.9298 48.5668 17.4886 0.9298
321 2 48.5538 17.4904 -2.33227 48.5538 17.4904 -2.33227
322 1 49.5115 19.1361 -0.703873 49.5115 19.1361 -0.703873
323 2 51.3885 19.1386 0.955927 51.3885 19.1386 0.955927
324 2 51.4373 19.1332 -2.30579 51.4373 19.1332 -2.30579
325 1 1.07303 20.7826 -0.663254 1.07303 20.7826 -0.663254
326 2 2.92008 20.7858 1.02992 2.92008 20.7858 1.02992
327 2 3.02724 20.7792 -2.2304 3.02724 20.7792 -2.2304
328 1 3.92427 22.4293 -0.572202 3.92427 22.4293 -0.572202
329 2 5.74542 22.4302 1.14871 5.74542 22.4302 1.14871
330 2 5.90192 22.4284 -2.10964 5.90192 22.4284 -2.10964
331 1 6.77308 20.7823 -0.433958 6.77308 20.7823 -0.433958
332 2 8.57332 20.7921 1.30863 8.57332 20.7921 1.30863
333 2 8.76899 20.7728 -1.94758 8.76899 20.7728 -1.94758
334 1 9.62081 22.4292 -0.272124 9.62081 22.4292 -0.272124
335 2 11.4149 22.4333 1.47661 11.4149 22.4333 1.47661
336 2 11.6219 22.4251 -1.77899 11.6219 22.4251 -1.77899
337 1 12.4668 20.7825 -0.0866726 12.4668 20.7825 -0.0866726
338 2 14.2676 20.7909 1.65491 14.2676 20.7909 1.65491
339 2 14.462 20.7744 -1.60146 14.462 20.7744 -1.60146
340 1 15.3145 22.4292 0.0750338 15.3145 22.4292 0.0750338
341 2 17.1331 22.431 1.79773 17.1331 22.431 1.79773
342 2 17.2938 22.4273 -1.46052 17.2938 22.4273 -1.46052
343 1 18.163 20.7825 0.217426 18.163 20.7825 0.217426
344 2 20.0128 20.7822 1.90649 20.0128 20.7822 1.90649
345 2 20.1141 20.7826 -1.35414 20.1141 20.7826 -1.35414
346 1 21.0141 22.4288 0.305757 21.0141 22.4288 0.305757
347 2 22.8965 22.4241 1.95841 22.8965 22.4241 1.95841
348 2 22.9344 22.4331 -1.30352 22.9344 22.4331 -1.30352
349 1 23.8662 20.7819 0.33403 23.8662 20.7819 0.33403
350 2 25.7876 20.7705 1.94104 25.7876 20.7705 1.94104
351 2 25.7476 20.7927 -1.32078 25.7476 20.7927 -1.32078
352 1 26.7186 22.4282 0.309539 26.7186 22.4282 0.309539
353 2 28.671 22.4162 1.87874 28.671 22.4162 1.87874
354 2 28.5674 22.4399 -1.38165 28.5674 22.4399 -1.38165
355 1 29.5692 20.7813 0.206362 29.5692 20.7813 0.206362
356 2 31.55 20.7618 1.73941 31.55 20.7618 1.73941
357 2 31.3866 20.8007 -1.51839 31.3866 20.8007 -1.51839
358 1 32.4185 22.4281 0.0824294 32.4185 22.4281 0.0824294
359 2 34.4147 22.4113 1.59553 34.4147 22.4113 1.59553
360 2 34.2183 22.445 -1.66053 34.2183 22.445 -1.66053
361 1 35.2649 20.7817 -0.106872 35.2649 20.7817 -0.106872
362 2 37.2665 20.7605 1.39914 37.2665 20.7605 1.39914
363 2 37.0584 20.8034 -1.85611 37.0584 20.8034 -1.85611
364 1 38.112 22.4287 -0.26744 38.112 22.4287 -0.26744
365 2 40.1068 22.4116 1.2477 40.1068 22.4116 1.2477
366 2 39.9132 22.4462 -2.00856 39.9132 22.4462 -2.00856
367 1 40.9587 20.7826 -0.45451 40.9587 20.7826 -0.45451
368 2 42.9344 20.7662 1.08576 42.9344 20.7662 1.08576
369 2 42.7816 20.7994 -2.17266 42.7816 20.7994 -2.17266
370 1 43.8083 22.4294 -0.571075 43.8083 22.4294 -0.571075
371 2 45.7591 22.4164 1.00094 45.7591 22.4164 1.00094
372 2 45.6587 22.4426 -2.25957 45.6587 22.4426 -2.25957
373 1 46.6592 20.783 -0.671974 46.6592 20.783 -0.671974
374 2 48.575 20.7758 0.942753 48.575 20.7758 0.942753
375 2 48.5464 20.79 -2.3192 48.5464 20.79 -2.3192
376 1 49.5117 22.4296 -0.689227 49.5117 22.4296 -0.689227
377 2 51.3951 22.4235 0.963304 51.3951 22.4235 0.963304
378 2 51.4313 22.4355 -2.29857 51.4313 22.4355 -2.29857
379 1 1.07315 24.0763 -0.650863 1.07315 24.0763 -0.650863
380 2 2.92469 24.0685 1.0373 2.92469 24.0685 1.0373
381 2 3.02306 24.084 -2.22328 3.02306 24.084 -2.22328
382 1 3.92415 25.723 -0.556352 3.92415 25.723 -0.556352
383 2 5.74816 25.7114 1.16142 5.74816 25.7114 1.16142
384 2 5.8991 25.7346 -2.09712 5.8991 25.7346 -2.09712
385 1 6.77356 24.0761 -0.435625 6.77356 24.0761 -0.435625
386 2 8.57649 24.0725 1.30419 8.57649 24.0725 1.30419
387 2 8.76709 24.0796 -1.95238 8.76709 24.0796 -1.95238
388 1 9.62092 25.7227 -0.264834 9.62092 25.7227 -0.264834
389 2 11.4169 25.7145 1.48189 11.4169 25.7145 1.48189
390 2 11.6203 25.7307 -1.77391 11.6203 25.7307 -1.77391
391 1 12.4676 24.0758 -0.0949146 12.4676 24.0758 -0.0949146
392 2 14.2677 24.0746 1.64739 14.2677 24.0746 1.64739
393 2 14.4633 24.077 -1.60895 14.4633 24.077 -1.60895
394 1 15.3147 25.7223 0.0775563 15.3147 25.7223 0.0775563
395 2 17.1335 25.7179 1.8002 17.1335 25.7179 1.8002
396 2 17.294 25.7265 -1.45805 17.294 25.7265 -1.45805
397 1 18.1635 24.0756 0.213546 18.1635 24.0756 0.213546
398 2 20.0098 24.0736 1.9064 20.0098 24.0736 1.9064
399 2 20.1178 24.0774 -1.35401 20.1178 24.0774 -1.35401
400 1 21.0143 25.722 0.309597 21.0143 25.722 0.309597
401 2 22.895 25.7197 1.96414 22.895 25.7197 1.96414
402 2 22.9362 25.7242 -1.29775 22.9362 25.7242 -1.29775
403 1 23.8664 24.0752 0.342944 23.8664 24.0752 0.342944
404 2 25.7836 24.0698 1.955 25.7836 24.0698 1.955
405 2 25.7521 24.0803 -1.30695 25.7521 24.0803 -1.30695
406 1 26.7187 25.7218 0.320041 26.7187 25.7218 0.320041
407 2 28.6687 25.7188 1.89221 28.6687 25.7188 1.89221
408 2 28.57 25.7246 -1.3684 28.57 25.7246 -1.3684
409 1 29.5697 24.0749 0.230166 29.5697 24.0749 0.230166
410 2 31.5476 24.0652 1.76716 31.5476 24.0652 1.76716
411 2 31.3905 24.0845 -1.49111 31.3905 24.0845 -1.49111
412 1 32.4188 25.7217 0.101874 32.4188 25.7217 0.101874
413 2 34.4131 25.7157 1.61755 34.4131 25.7157 1.61755
414 2 34.2208 25.7276 -1.63891 34.2208 25.7276 -1.63891
415 1 35.266 24.075 -0.0727946 35.266 24.075 -0.0727946
416 2 37.267 24.062 1.43399 37.267 24.062 1.43399
417 2 37.06 24.0882 -1.82151 37.06 24.0882 -1.82151
418 1 38.1127 25.7219 -0.240896 38.1127 25.7219 -0.240896
419 2 40.107 25.7122 1.27497 40.107 25.7122 1.27497
420 2 39.9143 25.7318 -1.98149 39.9143 25.7318 -1.98149
421 1 40.9596 24.0756 -0.419384 40.9596 24.0756 -0.419384
422 2 42.9374 24.0618 1.11816 42.9374 24.0618 1.11816
423 2 42.7801 24.0898 -2.14013 42.7801 24.0898 -2.14013
424 1 43.8088 25.7224 -0.542675 43.8088 25.7224 -0.542675
425 2 45.7607 25.7099 1.02787 45.7607 25.7099 1.02787
426 2 45.6578 25.7353 -2.23261 45.6578 25.7353 -2.23261
427 1 46.6595 24.0762 -0.645221 46.6595 24.0762 -0.645221
428 2 48.5794 24.0643 0.964576 48.5794 24.0643 0.964576
429 2 48.5425 24.0881 -2.29727 48.5425 24.0881 -2.29727
430 1 49.5118 25.7229 -0.665004 49.5118 25.7229 -0.665004
431 2 51.3977 25.7097 0.984548 51.3977 25.7097 0.984548
432 2 51.4287 25.7364 -2.27733 51.4287 25.7364 -2.27733
433 1 1.07283 27.3698 -0.623753 1.07283 27.3698 -0.623753
434 2 2.92539 27.3528 1.06313 2.92539 27.3528 1.06313
435 2 3.02158 27.3869 -2.1974 3.02158 27.3869 -2.1974
436 1 3.92335 29.0166 -0.521744 3.92335 29.0166 -0.521744
437 2 5.74776 28.9949 1.1954 5.74776 28.9949 1.1954
438 2 5.89771 29.0382 -2.06302 5.89771 29.0382 -2.06302
439 1 6.77302 27.3697 -0.411983 6.77302 27.3697 -0.411983
440 2 8.5782 27.3537 1.32535 8.5782 27.3537 1.32535
441 2 8.76445 27.3855 -1.93133 8.76445 27.3855 -1.93133
442 1 9.61989 29.0161 -0.232453 9.61989 29.0161 -0.232453
443 2 11.419 28.9973 1.51089 11.419 28.9973 1.51089
444 2 11.6164 29.0345 -1.74511 11.6164 29.0345 -1.74511
445 1 12.4673 27.3691 -0.0784267 12.4673 27.3691 -0.0784267
446 2 14.27 27.3583 1.66109 14.27 27.3583 1.66109
447 2 14.4606 27.3796 -1.59548 14.4606 27.3796 -1.59548
448 1 15.3141 29.0154 0.0992953 15.3141 29.0154 0.0992953
449 2 17.1372 29.0055 1.81728 17.1372 29.0055 1.81728
450 2 17.2895 29.0252 -1.44132 17.2895 29.0252 -1.44132
451 1 18.1634 27.3687 0.222307 18.1634 27.3687 0.222307
452 2 20.0114 27.3647 1.91335 20.0114 27.3647 1.91335
453 2 20.1162 27.3726 -1.34715 20.1162 27.3726 -1.34715
454 1 21.0141 29.0153 0.317693 21.0141 29.0153 0.317693
455 2 22.8981 29.0152 1.9685 22.8981 29.0152 1.9685
456 2 22.9328 29.0154 -1.29347 22.9328 29.0154 -1.29347
457 1 23.8663 27.3686 0.347452 23.8663 27.3686 0.347452
458 2 25.7836 27.3694 1.9595 25.7836 27.3694 1.9595
459 2 25.752 27.3679 -1.30247 25.752 27.3679 -1.30247
460 1 26.7184 29.0155 0.318509 26.7184 29.0155 0.318509
461 2 28.6693 29.0215 1.88956 28.6693 29.0215 1.88956
462 2 28.5687 29.0095 -1.37098 28.5687 29.0095 -1.37098
463 1 29.5696 27.3686 0.235961 29.5696 27.3686 0.235961
464 2 31.5461 27.3699 1.77475 31.5461 27.3699 1.77475
465 2 31.3919 27.3672 -1.48372 31.3919 27.3672 -1.48372
466 1 32.4183 29.0155 0.0991306 32.4183 29.0155 0.0991306
467 2 34.4111 29.0212 1.61675 34.4111 29.0212 1.61675
468 2 34.2219 29.0095 -1.6399 34.2219 29.0095 -1.6399
469 1 35.266 27.3686 -0.060811 35.266 27.3686 -0.060811
470 2 37.2651 27.3662 1.44854 37.2651 27.3662 1.44854
471 2 37.0622 27.3708 -1.80733 37.0622 27.3708 -1.80733
472 1 38.1123 29.0153 -0.236304 38.1123 29.0153 -0.236304
473 2 40.1037 29.0151 1.28337 40.1037 29.0151 1.28337
474 2 39.9172 29.0154 -1.97352 39.9172 29.0154 -1.97352
475 1 40.9599 27.3687 -0.399513 40.9599 27.3687 -0.399513
476 2 42.9362 27.3605 1.13992 42.9362 27.3605 1.13992
477 2 42.7819 27.3771 -2.11862 42.7819 27.3771 -2.11862
478 1 43.8087 29.0155 -0.526024 43.8087 29.0155 -0.526024
479 2 45.7575 29.0064 1.0483 45.7575 29.0064 1.0483
480 2 45.6608 29.0249 -2.21245 45.6608 29.0249 -2.21245
481 1 46.6596 27.3693 -0.619515 46.6596 27.3693 -0.619515
482 2 48.5791 27.3555 0.990642 48.5791 27.3555 0.990642
483 2 48.5427 27.3834 -2.27122 48.5427 27.3834 -2.27122
484 1 49.5115 29.0162 -0.636748 49.5115 29.0162 -0.636748
485 2 51.3955 28.9986 1.01489 51.3955 28.9986 1.01489
486 2 51.4301 29.0341 -2.24691 51.4301 29.0341 -2.24691
487 1 1.07213 30.6631 -0.58795 1.07213 30.6631 -0.58795
488 2 2.92189 30.6404 1.10185 2.92189 30.6404 1.10185
489 2 3.02323 30.6861 -2.15844 3.02323 30.6861 -2.15844
490 1 3.92199 32.3099 -0.475606 3.92199 32.3099 -0.475606
491 2 5.74421 32.2825 1.2437 5.74421 32.2825 1.2437
492 2 5.8981 32.3372 -2.01441 5.8981 32.3372 -2.01441
493 1 6.77161 30.6631 -0.368091 6.77161 30.6631 -0.368091
494 2 8.57809 30.6379 1.36768 8.57809 30.6379 1.36768
495 2 8.7617 30.688 -1.88895 8.7617 30.688 -1.88895
496 1 9.61797 32.3093 -0.181645 9.61797 32.3093 -0.181645
497 2 11.4208 32.2837 1.55774 11.4208 32.2837 1.55774
498 2 11.6112 32.3344 -1.69851 11.6112 32.3344 -1.69851
499 1 12.4659 30.6623 -0.0406047 12.4659 30.6623 -0.0406047
500 2 14.2739 30.6442 1.69338 14.2739 30.6442 1.69338
501 2 14.4547 30.6801 -1.56362 14.4547 30.6801 -1.56362
502 1 15.3128 32.3085 0.135943 15.3128 32.3085 0.135943
503 2 17.1436 32.2951 1.8457 17.1436 32.2951 1.8457
504 2 17.2813 32.3219 -1.41349 17.2813 32.3219 -1.41349
505 1 18.1628 30.6618 0.242501 18.1628 30.6618 0.242501
506 2 20.0171 30.6565 1.92667 20.0171 30.6565 1.92667
507 2 20.1098 30.6672 -1.33419 20.1098 30.6672 -1.33419
508 1 21.0136 32.3086 0.328803 21.0136 32.3086 0.328803
509 2 22.905 32.311 1.97101 22.905 32.311 1.97101
510 2 22.9249 32.3065 -1.29109 22.9249 32.3065 -1.29109
511 1 23.866 30.6621 0.347778 23.866 30.6621 0.347778
512 2 25.7874 30.6686 1.95481 25.7874 30.6686 1.95481
513 2 25.7473 30.6559 -1.30705 25.7473 30.6559 -1.30705
514 1 26.7177 32.3092 0.305782 26.7177 32.3092 0.305782
515 2 28.6726 32.3231 1.8718 28.6726 32.3231 1.8718
516 2 28.5636 32.2953 -1.38839 28.5636 32.2953 -1.38839
517 1 29.5689 30.6624 0.223856 29.5689 30.6624 0.223856
518 2 31.546 30.6742 1.76172 31.546 30.6742 1.76172
519 2 31.3903 30.6505 -1.49661 31.3903 30.6505 -1.49661
520 1 32.417 32.3092 0.075087 32.417 32.3092 0.075087
521 2 34.4092 32.3257 1.59341 34.4092 32.3257 1.59341
522 2 34.2212 32.2922 -1.66317 34.2212 32.2922 -1.66317
523 1 35.265 30.6622 -0.0727308 35.265 30.6622 -0.0727308
524 2 37.2616 30.6711 1.44004 37.2616 30.6711 1.44004
525 2 37.0641 30.6529 -1.81614 37.0641 30.6529 -1.81614
526 1 38.1111 32.3086 -0.254931 38.1111 32.3086 -0.254931
527 2 40.0979 32.3184 1.27064 40.0979 32.3184 1.27064
528 2 39.921 32.2986 -1.98674 39.921 32.2986 -1.98674
529 1 40.9593 30.6619 -0.399392 40.9593 30.6619 -0.399392
530 2 42.931 30.6615 1.14597 42.931 30.6615 1.14597
531 2 42.7863 30.6624 -2.11308 42.7863 30.6624 -2.11308
532 1 43.8081 32.3086 -0.525389 43.8081 32.3086 -0.525389
533 2 45.7502 32.3051 1.05725 45.7502 32.3051 1.05725
534 2 45.6673 32.3124 -2.20396 45.6673 32.3124 -2.20396
535 1 46.6594 30.6624 -0.600967 46.6594 30.6624 -0.600967
536 2 48.574 30.6497 1.01494 48.574 30.6497 1.01494
537 2 48.5472 30.6755 -2.24708 48.5472 30.6755 -2.24708
538 1 49.511 32.3094 -0.610858 49.511 32.3094 -0.610858
539 2 51.3888 32.2912 1.04775 51.3888 32.2912 1.04775
540 2 51.4354 32.3281 -2.21393 51.4354 32.3281 -2.21393