ITEM: TIMESTEP
14000
ITEM: NUMBER OF ATOMS
810
ITEM: BOX BOUNDS pp pp pp
8.4304953892100798e-01 5.2174555461078342e+01
8.1135329680975543e-01 5.0204861703189309e+01
-1.0000000000000000e+01 1.0000000000000000e+01
ITEM: ATOMS id type x y z xu yu zu
1 1 1.04673 1.02541 -0.0703375 1.04673 1.02541 -0.0703375
2 2 2.96873 0.999267 1.53594 2.96873 0.999267 1.53594
3 2 2.92699 1.05166 -1.72556 2.92699 1.05166 -1.72556
4 1 3.89851 2.6719 -0.080508 3.89851 2.6719 -0.080508
5 2 5.82357 2.64543 1.52214 5.82357 2.64543 1.52214
6 2 5.77561 2.69846 -1.73926 5.77561 2.69846 -1.73926
7 1 6.75004 1.02571 -0.149386 6.75004 1.02571 -0.149386
8 2 8.67566 0.998251 1.45257 8.67566 0.998251 1.45257
9 2 8.62652 1.05321 -1.80878 8.62652 1.05321 -1.80878
10 1 9.60172 2.67217 -0.164638 9.60172 2.67217 -0.164638
11 2 11.5251 2.64443 1.44008 11.5251 2.64443 1.44008
12 2 11.4805 2.69993 -1.82133 11.4805 2.69993 -1.82133
13 1 12.4533 1.02596 -0.231692 12.4533 1.02596 -0.231692
14 2 14.3717 0.997268 1.37899 14.3717 0.997268 1.37899
15 2 14.3372 1.05463 -1.8825 14.3372 1.05463 -1.8825
16 1 15.3051 2.67234 -0.232752 15.3051 2.67234 -0.232752
17 2 17.2165 2.64417 1.38631 17.2165 2.64417 1.38631
18 2 17.1961 2.70045 -1.87533 17.1961 2.70045 -1.87533
19 1 18.1569 1.02605 -0.278898 18.1569 1.02605 -0.278898
20 2 20.0593 0.996966 1.35076 20.0593 0.996966 1.35076
21 2 20.057 1.05502 -1.9109 20.057 1.05502 -1.9109
22 1 21.0088 2.67229 -0.251275 21.0088 2.67229 -0.251275
23 2 22.9027 2.64486 1.38831 22.9027 2.64486 1.38831
24 2 22.9173 2.6996 -1.87339 22.9173 2.6996 -1.87339
25 1 23.8606 1.02588 -0.265922 23.8606 1.02588 -0.265922
26 2 25.7458 0.99737 1.38369 25.7458 0.99737 1.38369
27 2 25.7778 1.05423 -1.87785 25.7778 1.05423 -1.87785
28 1 26.7123 2.67202 -0.208877 26.7123 2.67202 -0.208877
29 2 28.5922 2.64605 1.44685 28.5922 2.64605 1.44685
30 2 28.6347 2.69787 -1.81465 28.6347 2.69787 -1.81465
31 1 29.564 1.02552 -0.197691 29.564 1.02552 -0.197691
32 2 31.44 0.998111 1.46238 31.44 0.998111 1.46238
33 2 31.4902 1.05283 -1.79896 31.4902 1.05283 -1.79896
34 1 32.4155 2.67168 -0.125884 32.4155 2.67168 -0.125884
35 2 34.2924 2.6471 1.53318 34.2924 2.6471 1.53318
36 2 34.3408 2.69623 -1.72827 34.3408 2.69623 -1.72827
37 1 35.2672 1.02518 -0.108266 35.2672 1.02518 -0.108266
38 2 37.1468 0.99888 1.54759 37.1468 0.99888 1.54759
39 2 37.1898 1.05151 -1.71388 37.1898 1.05151 -1.71388
40 1 38.1188 2.67146 -0.0439255 38.1188 2.67146 -0.0439255
41 2 40.005 2.64757 1.60442 40.005 2.64757 1.60442
42 2 40.035 2.69543 -1.65726 40.035 2.69543 -1.65726
43 1 40.9707 1.02505 -0.0418786 40.9707 1.02505 -0.0418786
44 2 42.864 0.999503 1.59808 42.864 0.999503 1.59808
45 2 42.8798 1.05073 -1.66366 42.8798 1.05073 -1.66366
46 1 43.8226 2.67145 -0.00228292 43.8226 2.67145 -0.00228292
47 2 45.7246 2.64737 1.62763 45.7246 2.64737 1.62763
48 2 45.7231 2.69569 -1.63418 45.7231 2.69569 -1.63418
49 1 46.6745 1.02516 -0.0281882 46.6745 1.02516 -0.0281882
50 2 48.5843 0.999732 1.59261 48.5843 0.999732 1.59261
51 2 48.5673 1.05074 -1.66913 48.5673 1.05074 -1.66913
52 1 49.5265 2.67163 -0.0174528 49.5265 2.67163 -0.0174528
53 2 51.4433 2.64657 1.59504 51.4433 2.64657 1.59504
54 2 51.4121 2.69684 -1.6666 51.4121 2.69684 -1.6666
55 1 1.04686 4.31815 -0.0194739 1.04686 4.31815 -0.0194739
56 2 2.96875 4.29383 1.58702 2.96875 4.29383 1.58702
57 2 2.92727 4.34257 -1.67453 2.92727 4.34257 -1.67453
58 1 3.89868 5.96468 -0.0311943 3.89868 5.96468 -0.0311943
59 2 5.82348 5.94196 1.57187 5.82348 5.94196 1.57187
60 2 5.77606 5.98748 -1.68965 5.77606 5.98748 -1.68965
61 1 6.75023 4.3184 -0.0957253 6.75023 4.3184 -0.0957253
62 2 8.67577 4.29265 1.50641 8.67577 4.29265 1.50641
63 2 8.62681 4.3442 -1.755 8.62681 4.3442 -1.755
64 1 9.60192 5.96489 -0.112455 9.60192 5.96489 -0.112455
65 2 11.5255 5.94139 1.49214 11.5255 5.94139 1.49214
66 2 11.4805 5.98842 -1.76941 11.4805 5.98842 -1.76941
67 1 12.4534 4.31861 -0.175509 12.4534 4.31861 -0.175509
68 2 14.3722 4.29231 1.43486 14.3722 4.29231 1.43486
69 2 14.337 4.34489 -1.82672 14.337 4.34489 -1.82672
70 1 15.3052 5.96501 -0.179499 15.3052 5.96501 -0.179499
71 2 17.2175 5.94211 1.4386 17.2175 5.94211 1.4386
72 2 17.1953 5.98788 -1.82321 17.1953 5.98788 -1.82321
73 1 18.1569 4.31867 -0.221888 18.1569 4.31867 -0.221888
74 2 20.0603 4.2931 1.40667 20.0603 4.2931 1.40667
75 2 20.056 4.34414 -1.85514 20.056 4.34414 -1.85514
76 1 21.0088 5.96496 -0.19955 21.0088 5.96496 -0.19955
77 2 22.9042 5.94392 1.43834 22.9042 5.94392 1.43834
78 2 22.9157 5.98591 -1.82359 22.9157 5.98591 -1.82359
79 1 23.8606 4.31851 -0.210456 23.8606 4.31851 -0.210456
80 2 25.7473 4.2947 1.43752 25.7473 4.2947 1.43752
81 2 25.7762 4.3422 -1.82421 25.7762 4.3422 -1.82421
82 1 26.7122 5.96475 -0.160729 26.7122 5.96475 -0.160729
83 2 28.5938 5.94606 1.49313 28.5938 5.94606 1.49313
84 2 28.6328 5.98337 -1.76862 28.6328 5.98337 -1.76862
85 1 29.5639 4.31821 -0.14517 29.5639 4.31821 -0.14517
86 2 31.4414 4.29628 1.51326 31.4414 4.29628 1.51326
87 2 31.4885 4.34008 -1.74829 31.4885 4.34008 -1.74829
88 1 32.4154 5.9645 -0.0814981 32.4154 5.9645 -0.0814981
89 2 34.2936 5.94743 1.5762 34.2936 5.94743 1.5762
90 2 34.3394 5.98158 -1.68548 34.3394 5.98158 -1.68548
91 1 35.267 4.31795 -0.0584953 35.267 4.31795 -0.0584953
92 2 37.1478 4.29703 1.59617 37.1478 4.29703 1.59617
93 2 37.1886 4.33892 -1.66548 37.1886 4.33892 -1.66548
94 1 38.1187 5.96436 -0.00151327 38.1187 5.96436 -0.00151327
95 2 40.0054 5.94727 1.64635 40.0054 5.94727 1.64635
96 2 40.0344 5.98153 -1.61551 40.0344 5.98153 -1.61551
97 1 40.9706 4.31785 0.00658792 40.9706 4.31785 0.00658792
98 2 42.8646 4.29662 1.64594 42.8646 4.29662 1.64594
99 2 42.8792 4.33922 -1.61591 42.8792 4.33922 -1.61591
100 1 43.8225 5.96436 0.0408159 43.8225 5.96436 0.0408159
101 2 45.7245 5.94569 1.67099 45.7245 5.94569 1.67099
102 2 45.7233 5.98316 -1.59095 45.7233 5.98316 -1.59095
103 1 46.6745 4.31794 0.0207238 46.6745 4.31794 0.0207238
104 2 48.5845 4.29535 1.64143 48.5845 4.29535 1.64143
105 2 48.5672 4.34067 -1.62038 48.5672 4.34067 -1.62038
106 1 49.5265 5.96448 0.02839 49.5265 5.96448 0.02839
107 2 51.443 5.94359 1.64145 51.443 5.94359 1.64145
108 2 51.4126 5.98549 -1.6203 51.4126 5.98549 -1.6203
109 1 1.04697 7.61106 0.0229044 1.04697 7.61106 0.0229044
110 2 2.96828 7.59245 1.63022 2.96828 7.59245 1.63022
111 2 2.92802 7.62974 -1.63148 2.92802 7.62974 -1.63148
112 1 3.89882 9.25765 0.00652737 3.89882 9.25765 0.00652737
113 2 5.8232 9.24236 1.61022 5.8232 9.24236 1.61022
114 2 5.77666 9.273 -1.65147 5.77666 9.273 -1.65147
115 1 6.75041 7.61122 -0.0496516 6.75041 7.61122 -0.0496516
116 2 8.67592 7.59139 1.55265 8.67592 7.59139 1.55265
117 2 8.62704 7.63112 -1.70893 8.62704 7.63112 -1.70893
118 1 9.6021 9.25778 -0.0722204 9.6021 9.25778 -0.0722204
119 2 11.5261 9.24234 1.53195 11.5261 9.24234 1.53195
120 2 11.4802 9.27324 -1.72978 11.4802 9.27324 -1.72978
121 1 12.4536 7.61137 -0.12788 12.4536 7.61137 -0.12788
122 2 14.373 7.59187 1.48175 14.373 7.59187 1.48175
123 2 14.3364 7.63088 -1.78002 14.3364 7.63088 -1.78002
124 1 15.3053 9.25785 -0.13996 15.3053 9.25785 -0.13996
125 2 17.2189 9.24395 1.47673 17.2189 9.24395 1.47673
126 2 17.194 9.27173 -1.78527 17.194 9.27173 -1.78527
127 1 18.157 7.6114 -0.175497 18.157 7.6114 -0.175497
128 2 20.0619 7.59368 1.45144 20.0619 7.59368 1.45144
129 2 20.0545 7.62907 -1.81058 20.0545 7.62907 -1.81058
130 1 21.0088 9.2578 -0.163656 21.0088 9.2578 -0.163656
131 2 22.9061 9.24658 1.47217 22.9061 9.24658 1.47217
132 2 22.9138 9.26895 -1.78997 22.9138 9.26895 -1.78997
133 1 23.8605 7.61128 -0.167882 23.8605 7.61128 -0.167882
134 2 25.7491 7.59619 1.47806 25.7491 7.59619 1.47806
135 2 25.7743 7.62629 -1.78392 25.7743 7.62629 -1.78392
136 1 26.7122 9.25766 -0.130193 26.7122 9.25766 -0.130193
137 2 28.5956 9.24927 1.52169 28.5956 9.24927 1.52169
138 2 28.631 9.266 -1.74029 28.631 9.266 -1.74029
139 1 29.5638 7.61108 -0.107342 29.5638 7.61108 -0.107342
140 2 31.4429 7.59829 1.54942 31.4429 7.59829 1.54942
141 2 31.4869 7.62384 -1.71238 31.4869 7.62384 -1.71238
142 1 32.4154 9.25753 -0.055601 32.4154 9.25753 -0.055601
143 2 34.2946 9.2507 1.60106 34.2946 9.2507 1.60106
144 2 34.3384 9.26438 -1.6608 34.3384 9.26438 -1.6608
145 1 35.267 7.61093 -0.0239056 35.267 7.61093 -0.0239056
146 2 37.1484 7.59882 1.63011 37.1484 7.59882 1.63011
147 2 37.1879 7.62309 -1.63173 37.1879 7.62309 -1.63173
148 1 38.1187 9.25747 0.0230337 38.1187 9.25747 0.0230337
149 2 40.0052 9.24991 1.67125 40.0052 9.24991 1.67125
150 2 40.0347 9.2651 -1.59074 40.0347 9.2651 -1.59074
151 1 40.9705 7.61088 0.0412467 40.9705 7.61088 0.0412467
152 2 42.8643 7.59737 1.68106 42.8643 7.59737 1.68106
153 2 42.8794 7.62448 -1.58094 42.8794 7.62448 -1.58094
154 1 43.8225 9.25748 0.0682019 43.8225 9.25748 0.0682019
155 2 45.7234 9.24722 1.69973 45.7234 9.24722 1.69973
156 2 45.7243 9.26782 -1.56235 45.7243 9.26782 -1.56235
157 1 46.6746 7.61093 0.0586083 46.6746 7.61093 0.0586083
158 2 48.5838 7.59477 1.68032 48.5838 7.59477 1.68032
159 2 48.568 7.62719 -1.58163 48.568 7.62719 -1.58163
160 1 49.5266 9.25754 0.0611528 49.5266 9.25754 0.0611528
161 2 51.442 9.24419 1.67559 51.442 9.24419 1.67559
162 2 51.4138 9.27096 -1.58633 51.4138 9.27096 -1.58633
163 1 1.04705 10.9042 0.0499582 1.04705 10.9042 0.0499582
164 2 2.9674 10.8943 1.65854 2.9674 10.8943 1.65854
165 2 2.92912 10.914 -1.60334 2.92912 10.914 -1.60334
166 1 3.89892 12.5508 0.0264532 3.89892 12.5508 0.0264532
167 2 5.82277 12.5455 1.63087 5.82277 12.5455 1.63087
168 2 5.77733 12.5562 -1.63097 5.77733 12.5562 -1.63097
169 1 6.75056 10.9043 -0.0186336 6.75056 10.9043 -0.0186336
170 2 8.6761 10.8935 1.58373 8.6761 10.8935 1.58373
171 2 8.62716 10.915 -1.67802 8.62716 10.915 -1.67802
172 1 9.60223 12.5509 -0.0504719 9.60223 12.5509 -0.0504719
173 2 11.5268 12.5459 1.55304 11.5268 12.5459 1.55304
174 2 11.4797 12.5558 -1.7088 11.4797 12.5558 -1.7088
175 1 12.4538 10.9043 -0.0965659 12.4538 10.9043 -0.0965659
176 2 14.3742 10.8947 1.51196 14.3742 10.8947 1.51196
177 2 14.3355 10.914 -1.74997 14.3355 10.914 -1.74997
178 1 15.3054 12.5509 -0.120412 15.3054 12.5509 -0.120412
179 2 17.2204 12.548 1.49461 17.2204 12.548 1.49461
180 2 17.1927 12.5537 -1.76749 17.1927 12.5537 -1.76749
181 1 18.1571 10.9043 -0.147317 18.1571 10.9043 -0.147317
182 2 20.0637 10.8972 1.47769 20.0637 10.8972 1.47769
183 2 20.0528 10.9114 -1.78449 20.0528 10.9114 -1.78449
184 1 21.0088 12.5508 -0.149213 21.0088 12.5508 -0.149213
185 2 22.908 12.551 1.48446 22.908 12.551 1.48446
186 2 22.912 12.5505 -1.77777 22.912 12.5505 -1.77777
187 1 23.8606 10.9042 -0.145167 23.8606 10.9042 -0.145167
188 2 25.751 10.9002 1.49861 25.751 10.9002 1.49861
189 2 25.7724 10.9082 -1.76353 25.7724 10.9082 -1.76353
190 1 26.7123 12.5507 -0.122012 26.7123 12.5507 -0.122012
191 2 28.5973 12.5538 1.52803 28.5973 12.5538 1.52803
192 2 28.6295 12.5476 -1.73402 28.6295 12.5476 -1.73402
193 1 29.5638 10.9041 -0.0903608 29.5638 10.9041 -0.0903608
194 2 31.4443 10.9024 1.56491 31.4443 10.9024 1.56491
195 2 31.4856 10.9058 -1.69702 31.4856 10.9058 -1.69702
196 1 32.4155 12.5507 -0.0521845 32.4155 12.5507 -0.0521845
197 2 34.2952 12.555 1.60388 34.2952 12.555 1.60388
198 2 34.3379 12.5463 -1.65801 34.3379 12.5463 -1.65801
199 1 35.267 10.9041 -0.0100612 35.267 10.9041 -0.0100612
200 2 37.1485 10.9026 1.64391 37.1485 10.9026 1.64391
201 2 37.1878 10.9055 -1.61802 37.1878 10.9055 -1.61802
202 1 38.1188 12.5507 0.0259192 38.1188 12.5507 0.0259192
203 2 40.0044 12.5538 1.6752 40.0044 12.5538 1.6752
204 2 40.0356 12.5476 -1.5868 40.0356 12.5476 -1.5868
205 1 40.9706 10.9041 0.0565629 40.9706 10.9041 0.0565629
206 2 42.8632 10.9005 1.69777 42.8632 10.9005 1.69777
207 2 42.8806 10.9078 -1.56432 42.8806 10.9078 -1.56432
208 1 43.8225 12.5507 0.0755182 43.8225 12.5507 0.0755182
209 2 45.7217 12.5506 1.7092 45.7217 12.5506 1.7092
210 2 45.7261 12.5509 -1.55294 45.7261 12.5509 -1.55294
211 1 46.6746 10.9041 0.079384 46.6746 10.9041 0.079384
212 2 48.5823 10.897 1.703 48.5823 10.897 1.703
213 2 48.5696 10.9112 -1.55909 48.5696 10.9112 -1.55909
214 1 49.5266 12.5508 0.0754609 49.5266 12.5508 0.0754609
215 2 51.4405 12.5472 1.69181 51.4405 12.5472 1.69181
216 2 51.4154 12.5543 -1.57023 51.4154 12.5543 -1.57023
217 1 1.0471 14.1974 0.0570955 1.0471 14.1974 0.0570955
218 2 2.96626 14.1981 1.66713 2.96626 14.1981 1.66713
219 2 2.93039 14.1967 -1.59483 2.93039 14.1967 -1.59483
220 1 3.89896 15.844 0.025053 3.89896 15.844 0.025053
221 2 5.8222 15.8497 1.6302 5.8222 15.8497 1.6302
222 2 5.77801 15.8384 -1.63165 5.77801 15.8384 -1.63165
223 1 6.75066 14.1974 -0.0078295 6.75066 14.1974 -0.0078295
224 2 8.67624 14.1976 1.59451 8.67624 14.1976 1.59451
225 2 8.62722 14.1973 -1.6673 8.62722 14.1973 -1.6673
226 1 9.6023 15.844 -0.0507551 9.6023 15.844 -0.0507551
227 2 11.5275 15.8503 1.55208 11.5275 15.8503 1.55208
228 2 11.4792 15.8377 -1.70974 11.4792 15.8377 -1.70974
229 1 12.4538 14.1974 -0.0864956 12.4538 14.1974 -0.0864956
230 2 14.3754 14.199 1.52077 14.3754 14.199 1.52077
231 2 14.3345 14.1958 -1.74119 14.3345 14.1958 -1.74119
232 1 15.3055 15.8439 -0.12365 15.3055 15.8439 -0.12365
233 2 17.2218 15.8523 1.48974 17.2218 15.8523 1.48974
234 2 17.1913 15.8354 -1.77229 17.1913 15.8354 -1.77229
235 1 18.1571 14.1973 -0.141537 18.1571 14.1973 -0.141537
236 2 20.0654 14.2017 1.4815 20.0654 14.2017 1.4815
237 2 20.0512 14.1929 -1.78069 20.0512 14.1929 -1.78069
238 1 21.0089 15.8438 -0.158015 21.0089 15.8438 -0.158015
239 2 22.9097 15.8551 1.47372 22.9097 15.8551 1.47372
240 2 22.9104 15.8324 -1.78843 22.9104 15.8324 -1.78843
241 1 23.8606 14.1972 -0.145578 23.8606 14.1972 -0.145578
242 2 25.7528 14.2046 1.49621 25.7528 14.2046 1.49621
243 2 25.7707 14.1898 -1.76593 25.7707 14.1898 -1.76593
244 1 26.7124 15.8437 -0.137007 26.7124 15.8437 -0.137007
245 2 28.5986 15.8575 1.51158 28.5986 15.8575 1.51158
246 2 28.6284 15.8298 -1.75038 28.6284 15.8298 -1.75038
247 1 29.5639 14.1972 -0.0966069 29.5639 14.1972 -0.0966069
248 2 31.4453 14.2067 1.55755 31.4453 14.2067 1.55755
249 2 31.4847 14.1877 -1.70436 31.4847 14.1877 -1.70436
250 1 32.4156 15.8437 -0.0714151 32.4156 15.8437 -0.0714151
251 2 34.2954 15.8585 1.58452 34.2954 15.8585 1.58452
252 2 34.338 15.829 -1.67726 34.338 15.829 -1.67726
253 1 35.2671 14.1972 -0.018915 35.2671 14.1972 -0.018915
254 2 37.1482 14.2066 1.63555 37.1482 14.2066 1.63555
255 2 37.1883 14.1879 -1.62632 37.1883 14.1879 -1.62632
256 1 38.1189 15.8439 0.00688869 38.1189 15.8439 0.00688869
257 2 40.0031 15.8572 1.65769 40.0031 15.8572 1.65769
258 2 40.037 15.8306 -1.60419 40.037 15.8306 -1.60419
259 1 40.9706 14.1973 0.050209 40.9706 14.1973 0.050209
260 2 42.8615 14.2042 1.69342 42.8615 14.2042 1.69342
261 2 42.8823 14.1905 -1.56864 42.8823 14.1905 -1.56864
262 1 43.8226 15.844 0.0615523 43.8226 15.844 0.0615523
263 2 45.7195 15.8541 1.6977 45.7195 15.8541 1.6977
264 2 45.7283 15.8338 -1.56437 45.7283 15.8338 -1.56437
265 1 46.6746 14.1974 0.0796141 46.6746 14.1974 0.0796141
266 2 48.5803 14.2007 1.70561 48.5803 14.2007 1.70561
267 2 48.5716 14.1941 -1.55652 48.5716 14.1941 -1.55652
268 1 49.5266 15.844 0.0687106 49.5266 15.844 0.0687106
269 2 51.4387 15.8511 1.68714 51.4387 15.8511 1.68714
270 2 51.4172 15.837 -1.5749 51.4172 15.837 -1.5749
271 1 1.0471 17.4906 0.0427058 1.0471 17.4906 0.0427058
272 2 2.96501 17.502 1.65417 2.96501 17.502 1.65417
273 2 2.93166 17.4793 -1.60774 2.93166 17.4793 -1.60774
274 1 3.89895 19.1372 0.00203521 3.89895 19.1372 0.00203521
275 2 5.82151 19.1531 1.60789 5.82151 19.1531 1.60789
276 2 5.77868 19.1212 -1.65385 5.77868 19.1212 -1.65385
277 1 6.75069 17.4906 -0.0192719 6.75069 17.4906 -0.0192719
278 2 8.67621 17.5017 1.58309 8.67621 17.5017 1.58309
279 2 8.62731 17.4795 -1.67865 8.62731 17.4795 -1.67865
280 1 9.60229 19.1371 -0.073212 9.60229 19.1371 -0.073212
281 2 11.5278 19.1536 1.52913 11.5278 19.1536 1.52913
282 2 11.4789 19.1205 -1.73253 11.4789 19.1205 -1.73253
283 1 12.4539 17.4905 -0.0991525 12.4539 17.4905 -0.0991525
284 2 14.3763 17.503 1.50699 14.3763 17.503 1.50699
285 2 14.3336 17.4779 -1.75485 14.3336 17.4779 -1.75485
286 1 15.3055 19.1369 -0.148929 15.3055 19.1369 -0.148929
287 2 17.2228 19.1551 1.46321 17.2228 19.1551 1.46321
288 2 17.1904 19.1185 -1.79863 17.1904 19.1185 -1.79863
289 1 18.1572 17.4903 -0.158597 18.1572 17.4903 -0.158597
290 2 20.0668 17.5052 1.46276 20.0668 17.5052 1.46276
291 2 20.0499 17.4753 -1.79929 20.0499 17.4753 -1.79929
292 1 21.0089 19.1367 -0.18818 21.0089 19.1367 -0.18818
293 2 22.9109 19.1571 1.44215 22.9109 19.1571 1.44215
294 2 22.9094 19.1162 -1.81981 22.9094 19.1162 -1.81981
295 1 23.8607 17.4902 -0.16848 23.8607 17.4902 -0.16848
296 2 25.7541 17.5076 1.47175 25.7541 17.5076 1.47175
297 2 25.7696 17.4727 -1.79024 25.7696 17.4727 -1.79024
298 1 26.7125 19.1366 -0.172276 26.7125 19.1366 -0.172276
299 2 28.5994 19.1587 1.47544 28.5994 19.1587 1.47544
300 2 28.6279 19.1143 -1.78634 28.6279 19.1143 -1.78634
301 1 29.5641 17.4902 -0.124605 29.5641 17.4902 -0.124605
302 2 31.4459 17.5091 1.52892 31.4459 17.5091 1.52892
303 2 31.4844 17.4712 -1.73283 31.4844 17.4712 -1.73283
304 1 32.4158 19.1366 -0.109851 32.4158 19.1366 -0.109851
305 2 34.2952 19.1593 1.54637 34.2952 19.1593 1.54637
306 2 34.3385 19.114 -1.71521 34.3385 19.114 -1.71521
307 1 35.2673 17.4903 -0.0487647 35.2673 17.4903 -0.0487647
308 2 37.1475 17.5089 1.60657 37.1475 17.5089 1.60657
309 2 37.1893 17.4716 -1.65512 37.1893 17.4716 -1.65512
310 1 38.119 19.1368 -0.0309063 38.119 19.1368 -0.0309063
311 2 40.0017 19.1582 1.62154 40.0017 19.1582 1.62154
312 2 40.0387 19.1154 -1.64014 40.0387 19.1154 -1.64014
313 1 40.9707 17.4905 0.0232269 40.9707 17.4905 0.0232269
314 2 42.8596 17.5068 1.66861 42.8596 17.5068 1.66861
315 2 42.8843 17.4741 -1.59329 42.8843 17.4741 -1.59329
316 1 43.8226 19.137 0.028317 43.8226 19.137 0.028317
317 2 45.7175 19.1561 1.66679 45.7175 19.1561 1.66679
318 2 45.7304 19.118 -1.59512 45.7304 19.118 -1.59512
319 1 46.6746 17.4906 0.0589698 46.6746 17.4906 0.0589698
320 2 48.5782 17.504 1.68736 48.5782 17.504 1.68736
321 2 48.5737 17.4772 -1.57468 48.5737 17.4772 -1.57468
322 1 49.5266 19.1372 0.0414856 49.5266 19.1372 0.0414856
323 2 51.437 19.1541 1.66182 51.437 19.1541 1.66182
324 2 51.4189 19.1203 -1.60011 51.4189 19.1203 -1.60011
325 1 1.04706 20.7837 0.0085118 1.04706 20.7837 0.0085118
326 2 2.96382 20.8042 1.62122 2.96382 20.8042 1.62122
327 2 2.93277 20.7632 -1.64054 2.93277 20.7632 -1.64054
328 1 3.89887 22.4301 -0.0394087 3.89887 22.4301 -0.0394087
329 2 5.82074 22.454 1.56712 5.82074 22.454 1.56712
330 2 5.77928 22.4063 -1.69444 5.77928 22.4063 -1.69444
331 1 6.75064 20.7836 -0.0515746 6.75064 20.7836 -0.0515746
332 2 8.67592 20.8041 1.55095 8.67592 20.8041 1.55095
333 2 8.62751 20.7631 -1.71062 8.62751 20.7631 -1.71062
334 1 9.6022 22.43 -0.114618 9.6022 22.43 -0.114618
335 2 11.5277 22.4543 1.48764 11.5277 22.4543 1.48764
336 2 11.4788 22.4056 -1.77382 11.4788 22.4056 -1.77382
337 1 12.4538 20.7834 -0.132643 12.4538 20.7834 -0.132643
338 2 14.3767 20.8049 1.47282 14.3767 20.8049 1.47282
339 2 14.3331 20.7619 -1.78881 14.3331 20.7619 -1.78881
340 1 15.3054 22.4297 -0.192385 15.3054 22.4297 -0.192385
341 2 17.2231 22.4549 1.41922 17.2231 22.4549 1.41922
342 2 17.19 22.4043 -1.84242 17.19 22.4043 -1.84242
343 1 18.1572 20.7832 -0.195588 18.1572 20.7832 -0.195588
344 2 20.0676 20.8062 1.42472 20.0676 20.8062 1.42472
345 2 20.0491 20.76 -1.83711 20.0491 20.76 -1.83711
346 1 21.0089 22.4294 -0.234831 21.0089 22.4294 -0.234831
347 2 22.9112 22.4557 1.39497 22.9112 22.4557 1.39497
348 2 22.9091 22.403 -1.8668 22.9091 22.403 -1.8668
349 1 23.8607 20.783 -0.209849 23.8607 20.783 -0.209849
350 2 25.7548 20.8075 1.42956 25.7548 20.8075 1.42956
351 2 25.7691 20.7584 -1.83225 25.7691 20.7584 -1.83225
352 1 26.7126 22.4293 -0.221964 26.7126 22.4293 -0.221964
353 2 28.5995 22.4562 1.42567 28.5995 22.4562 1.42567
354 2 28.628 22.4023 -1.83596 28.628 22.4023 -1.83596
355 1 29.5642 20.783 -0.16951 29.5642 20.783 -0.16951
356 2 31.446 20.8083 1.48397 31.446 20.8083 1.48397
357 2 31.4847 20.7576 -1.7776 31.4847 20.7576 -1.7776
358 1 32.416 22.4294 -0.16113 32.416 22.4294 -0.16113
359 2 34.2947 22.4562 1.49578 34.2947 22.4562 1.49578
360 2 34.3394 22.4025 -1.76566 34.3394 22.4025 -1.76566
361 1 35.2675 20.7831 -0.0946388 35.2675 20.7831 -0.0946388
362 2 37.1466 20.808 1.56177 37.1466 20.808 1.56177
363 2 37.1905 20.7582 -1.69973 37.1905 20.7582 -1.69973
364 1 38.1192 22.4296 -0.0813754 38.1192 22.4296 -0.0813754
365 2 40.0005 22.4557 1.57255 40.0005 22.4557 1.57255
366 2 40.0402 22.4035 -1.68897 40.0402 22.4035 -1.68897
367 1 40.9708 20.7834 -0.0201682 40.9708 20.7834 -0.0201682
368 2 42.8579 20.8068 1.62718 42.8579 20.8068 1.62718
369 2 42.8862 20.76 -1.63454 42.8862 20.76 -1.63454
370 1 43.8227 22.4299 -0.0191058 43.8227 22.4299 -0.0191058
371 2 45.7159 22.4549 1.62117 45.7159 22.4549 1.62117
372 2 45.7321 22.4049 -1.64058 45.7321 22.4049 -1.64058
373 1 46.6746 20.7836 0.0203381 46.6746 20.7836 0.0203381
374 2 48.5764 20.8052 1.65074 48.5764 20.8052 1.65074
375 2 48.5755 20.762 -1.61114 48.5755 20.762 -1.61114
376 1 49.5266 22.4301 -0.00230062 49.5266 22.4301 -0.00230062
377 2 51.4356 22.4542 1.61949 51.4356 22.4542 1.61949
378 2 51.4202 22.406 -1.64229 51.4202 22.406 -1.64229
379 1 1.04699 24.0765 -0.0402779 1.04699 24.0765 -0.0402779
380 2 2.96284 24.1028 1.57335 2.96284 24.1028 1.57335
381 2 2.93357 24.0503 -1.68827 2.93357 24.0503 -1.68827
382 1 3.89874 25.7228 -0.0925916 3.89874 25.7228 -0.0925916
383 2 5.82003 25.7506 1.5145 5.82003 25.7506 1.5145
384 2 5.7797 25.6951 -1.74696 5.7797 25.6951 -1.74696
385 1 6.75052 24.0764 -0.0998847 6.75052 24.0764 -0.0998847
386 2 8.67537 24.103 1.50301 8.67537 24.103 1.50301
387 2 8.6278 24.0498 -1.7584 8.6278 24.0498 -1.7584
388 1 9.60203 25.7226 -0.16851 9.60203 25.7226 -0.16851
389 2 11.5271 25.7509 1.43409 11.5271 25.7509 1.43409
390 2 11.4791 25.6943 -1.82725 11.4791 25.6943 -1.82725
391 1 12.4537 24.0762 -0.181956 12.4537 24.0762 -0.181956
392 2 14.3765 24.1033 1.42348 14.3765 24.1033 1.42348
393 2 14.3331 24.049 -1.83797 14.3331 24.049 -1.83797
394 1 15.3053 25.7223 -0.247388 15.3053 25.7223 -0.247388
395 2 17.2226 25.7507 1.36456 17.2226 25.7507 1.36456
396 2 17.1903 25.6939 -1.89697 17.1903 25.6939 -1.89697
397 1 18.1571 24.0759 -0.246849 18.1571 24.0759 -0.246849
398 2 20.0675 24.1034 1.37337 20.0675 24.1034 1.37337
399 2 20.0491 24.0482 -1.8883 20.0491 24.0482 -1.8883
400 1 21.0089 25.7221 -0.290776 21.0089 25.7221 -0.290776
401 2 22.9107 25.7501 1.33959 22.9107 25.7501 1.33959
402 2 22.9096 25.6939 -1.92211 22.9096 25.6939 -1.92211
403 1 23.8608 24.0756 -0.263131 23.8608 24.0756 -0.263131
404 2 25.7547 24.1034 1.37644 25.7547 24.1034 1.37644
405 2 25.7694 24.0478 -1.88524 25.7694 24.0478 -1.88524
406 1 26.7127 25.7219 -0.278209 26.7127 25.7219 -0.278209
407 2 28.5988 25.7493 1.37027 28.5988 25.7493 1.37027
408 2 28.6289 25.6946 -1.89132 28.6289 25.6946 -1.89132
409 1 29.5644 24.0756 -0.224035 29.5644 24.0756 -0.224035
410 2 31.4456 24.1032 1.43006 31.4456 24.1032 1.43006
411 2 31.4854 24.048 -1.83142 31.4854 24.048 -1.83142
412 1 32.4162 25.722 -0.216959 32.4162 25.722 -0.216959
413 2 34.2939 25.7487 1.441 34.2939 25.7487 1.441
414 2 34.3405 25.6953 -1.82041 34.3405 25.6953 -1.82041
415 1 35.2677 24.0758 -0.149074 35.2677 24.0758 -0.149074
416 2 37.1458 24.1029 1.50847 37.1458 24.1029 1.50847
417 2 37.1917 24.0487 -1.75295 37.1917 24.0487 -1.75295
418 1 38.1194 25.7223 -0.136285 38.1194 25.7223 -0.136285
419 2 39.9996 25.7487 1.51879 39.9996 25.7487 1.51879
420 2 40.0413 25.6959 -1.7427 40.0413 25.6959 -1.7427
421 1 40.971 24.0761 -0.0730407 40.971 24.0761 -0.0730407
422 2 42.8567 24.1027 1.57575 42.8567 24.1027 1.57575
423 2 42.8876 24.0495 -1.68586 42.8876 24.0495 -1.68586
424 1 43.8228 25.7225 -0.0729671 43.8228 25.7225 -0.0729671
425 2 45.715 25.7492 1.56837 45.715 25.7492 1.56837
426 2 45.7331 25.696 -1.69334 45.7331 25.696 -1.69334
427 1 46.6747 24.0763 -0.0302601 46.6747 24.0763 -0.0302601
428 2 48.5751 24.1027 1.60149 48.5751 24.1027 1.60149
429 2 48.5768 24.0501 -1.66026 48.5768 24.0501 -1.66026
430 1 49.5266 25.7228 -0.0554969 49.5266 25.7228 -0.0554969
431 2 51.4348 25.75 1.56714 51.4348 25.75 1.56714
432 2 51.4209 25.6957 -1.69456 51.4209 25.6957 -1.69456
433 1 1.04689 27.3691 -0.0952662 1.04689 27.3691 -0.0952662
434 2 2.96227 27.3966 1.51881 2.96227 27.3966 1.51881
435 2 2.93387 27.3418 -1.7428 2.93387 27.3418 -1.7428
436 1 3.89857 29.0155 -0.14804 3.89857 29.0155 -0.14804
437 2 5.8196 29.0421 1.45931 5.8196 29.0421 1.45931
438 2 5.77975 28.9888 -1.8022 5.77975 28.9888 -1.8022
439 1 6.75033 27.3691 -0.156126 6.75033 27.3691 -0.156126
440 2 8.67474 27.3973 1.44722 8.67474 27.3973 1.44722
441 2 8.62805 27.3408 -1.81415 8.62805 27.3408 -1.81415
442 1 9.60181 29.0153 -0.225717 9.60181 29.0153 -0.225717
443 2 11.5263 29.0426 1.37751 11.5263 29.0426 1.37751
444 2 11.4794 28.9879 -1.88387 11.4794 28.9879 -1.88387
445 1 12.4535 27.3688 -0.239231 12.4535 27.3688 -0.239231
446 2 14.3757 27.3972 1.36684 14.3757 27.3972 1.36684
447 2 14.3335 27.3403 -1.89457 14.3335 27.3403 -1.89457
448 1 15.3051 29.015 -0.30501 15.3051 29.015 -0.30501
449 2 17.2215 29.0417 1.30811 17.2215 29.0417 1.30811
450 2 17.1912 28.9882 -1.95348 17.1912 28.9882 -1.95348
451 1 18.157 27.3685 -0.304411 18.157 27.3685 -0.304411
452 2 20.0666 27.3963 1.31676 20.0666 27.3963 1.31676
453 2 20.0499 27.3407 -1.9449 20.0499 27.3407 -1.9449
454 1 21.0089 29.0148 -0.347115 21.0089 29.0148 -0.347115
455 2 22.9093 29.0399 1.28487 22.9093 29.0399 1.28487
456 2 22.911 28.9895 -1.9769 22.911 28.9895 -1.9769
457 1 23.8608 27.3683 -0.319983 23.8608 27.3683 -0.319983
458 2 25.7537 27.3948 1.32083 25.7537 27.3948 1.32083
459 2 25.7705 27.3417 -1.94087 25.7705 27.3417 -1.94087
460 1 26.7128 29.0147 -0.331991 26.7128 29.0147 -0.331991
461 2 28.5975 29.0379 1.31822 28.5975 29.0379 1.31822
462 2 28.6305 28.9914 -1.94345 28.6305 28.9914 -1.94345
463 1 29.5645 27.3683 -0.279443 29.5645 27.3683 -0.279443
464 2 31.4446 27.3936 1.37594 31.4446 27.3936 1.37594
465 2 31.4867 27.343 -1.88558 31.4867 27.343 -1.88558
466 1 32.4163 29.0148 -0.26817 32.4163 29.0148 -0.26817
467 2 34.2929 29.0367 1.39114 34.2929 29.0367 1.39114
468 2 34.3418 28.9928 -1.87038 34.3418 28.9928 -1.87038
469 1 35.2678 27.3685 -0.203145 35.2678 27.3685 -0.203145
470 2 37.145 27.3932 1.45549 37.145 27.3932 1.45549
471 2 37.1928 27.3438 -1.80597 37.1928 27.3438 -1.80597
472 1 38.1195 29.015 -0.18634 38.1195 29.015 -0.18634
473 2 39.9991 29.0371 1.46948 39.9991 29.0371 1.46948
474 2 40.0421 28.993 -1.79214 40.0421 28.993 -1.79214
475 1 40.9711 27.3687 -0.126532 40.9711 27.3687 -0.126532
476 2 42.8561 27.3939 1.52305 42.8561 27.3939 1.52305
477 2 42.8884 27.3437 -1.7386 42.8884 27.3437 -1.7386
478 1 43.8229 29.0152 -0.123815 43.8229 29.0152 -0.123815
479 2 45.7148 29.0386 1.51775 45.7148 29.0386 1.51775
480 2 45.7333 28.9919 -1.74407 45.7333 28.9919 -1.74407
481 1 46.6747 27.369 -0.0841687 46.6747 27.369 -0.0841687
482 2 48.5746 27.3953 1.54813 48.5746 27.3953 1.54813
483 2 48.5772 27.3429 -1.71365 48.5772 27.3429 -1.71365
484 1 49.5265 29.0154 -0.108538 49.5265 29.0154 -0.108538
485 2 51.4346 29.0406 1.5142 51.4346 29.0406 1.5142
486 2 51.4209 28.9903 -1.74759 51.4209 28.9903 -1.74759
487 1 1.04677 30.6618 -0.146222 1.04677 30.6618 -0.146222
488 2 2.96229 30.6852 1.46767 2.96229 30.6852 1.46767
489 2 2.93354 30.6385 -1.79407 2.93354 30.6385 -1.79407
490 1 3.89839 32.3082 -0.195298 3.89839 32.3082 -0.195298
491 2 5.81963 32.3287 1.41182 5.81963 32.3287 1.41182
492 2 5.77931 32.2877 -1.84988 5.77931 32.2877 -1.84988
493 1 6.7501 30.6617 -0.210127 6.7501 30.6617 -0.210127
494 2 8.67425 30.6865 1.39353 8.67425 30.6865 1.39353
495 2 8.62808 30.637 -1.86796 8.62808 30.637 -1.86796
496 1 9.60157 32.3081 -0.275787 9.60157 32.3081 -0.275787
497 2 11.5256 32.3293 1.3281 11.5256 32.3293 1.3281
498 2 11.4797 32.2868 -1.93348 11.4797 32.2868 -1.93348
499 1 12.4533 30.6615 -0.294585 12.4533 30.6615 -0.294585
500 2 14.3746 30.6862 1.31256 14.3746 30.6862 1.31256
501 2 14.3342 30.6368 -1.94898 14.3342 30.6368 -1.94898
502 1 15.3049 32.3078 -0.355097 15.3049 32.3078 -0.355097
503 2 17.22 32.3281 1.25969 17.22 32.3281 1.25969
504 2 17.1924 32.2875 -2.00209 17.1924 32.2875 -2.00209
505 1 18.1569 30.6613 -0.358708 18.1569 30.6613 -0.358708
506 2 20.065 30.6844 1.26427 20.065 30.6844 1.26427
507 2 20.0514 30.638 -1.99752 20.0514 30.638 -1.99752
508 1 21.0088 32.3077 -0.394178 21.0088 32.3077 -0.394178
509 2 22.9073 32.3255 1.24018 22.9073 32.3255 1.24018
510 2 22.913 32.2898 -2.02176 22.913 32.2898 -2.02176
511 1 23.8609 30.6611 -0.371078 23.8609 30.6611 -0.371078
512 2 25.7519 30.6819 1.2719 25.7519 30.6819 1.2719
513 2 25.7724 30.6404 -1.98993 25.7724 30.6404 -1.98993
514 1 26.7128 32.3077 -0.374127 26.7128 32.3077 -0.374127
515 2 28.5956 32.3226 1.27842 28.5956 32.3226 1.27842
516 2 28.6326 32.2927 -1.98339 28.6326 32.2927 -1.98339
517 1 29.5646 30.6612 -0.326552 29.5646 30.6612 -0.326552
518 2 31.4432 30.6798 1.33066 31.4432 30.6798 1.33066
519 2 31.4884 30.6426 -1.93099 31.4884 30.6426 -1.93099
520 1 32.4164 32.3077 -0.3059 32.4164 32.3077 -0.3059
521 2 34.2918 32.321 1.35487 34.2918 32.321 1.35487
522 2 34.3431 32.2945 -1.90679 34.3431 32.2945 -1.90679
523 1 35.268 30.6613 -0.247635 35.268 30.6613 -0.247635
524 2 37.1443 30.6792 1.41198 37.1443 30.6792 1.41198
525 2 37.1937 30.6434 -1.84964 37.1937 30.6434 -1.84964
526 1 38.1196 32.3079 -0.222595 38.1196 32.3079 -0.222595
527 2 39.9989 32.3214 1.43348 39.9989 32.3214 1.43348
528 2 40.0423 32.2943 -1.82833 40.0423 32.2943 -1.82833
529 1 40.9712 30.6615 -0.171156 40.9712 30.6615 -0.171156
530 2 42.8561 30.6805 1.47852 42.8561 30.6805 1.47852
531 2 42.8885 30.6426 -1.78331 42.8885 30.6426 -1.78331
532 1 43.8229 32.308 -0.162211 43.8229 32.308 -0.162211
533 2 45.7154 32.3237 1.47875 45.7154 32.3237 1.47875
534 2 45.7327 32.2924 -1.78328 45.7327 32.2924 -1.78328
535 1 46.6747 30.6617 -0.131465 46.6747 30.6617 -0.131465
536 2 48.5748 30.6829 1.50051 48.5748 30.6829 1.50051
537 2 48.5769 30.6406 -1.76143 48.5769 30.6406 -1.76143