ITEM: TIMESTEP
41000
ITEM: NUMBER OF ATOMS
810
ITEM: BOX BOUNDS pp pp pp
8.6195323884733288e-01 5.2155651761151510e+01
8.0978526371616610e-01 5.0206429736283901e+01
-1.0000000000000000e+01 1.0000000000000000e+01
ITEM: ATOMS id type x y z xu yu zu
1 1 1.06994 1.02468 0.229361 1.06994 1.02468 0.229361
2 2 3.03425 1.03545 1.78342 3.03425 1.03545 1.78342
3 2 2.90537 1.01393 -1.47612 2.90537 1.01393 -1.47612
4 1 3.91956 2.67119 0.10507 3.91956 2.67119 0.10507
5 2 5.90282 2.68435 1.63486 5.90282 2.68435 1.63486
6 2 5.73378 2.65801 -1.62283 5.73378 2.65801 -1.62283
7 1 6.76787 1.02447 -0.0300335 6.76787 1.02447 -0.0300335
8 2 8.75976 1.03595 1.48863 8.75976 1.03595 1.48863
9 2 8.5722 1.01294 -1.76808 8.5722 1.01294 -1.76808
10 1 9.61482 2.67083 -0.20613 9.61482 2.67083 -0.20613
11 2 11.6043 2.68429 1.31581 11.6043 2.68429 1.31581
12 2 11.4218 2.65724 -1.94115 11.4218 2.65724 -1.94115
13 1 12.4625 1.02407 -0.352181 12.4625 1.02407 -0.352181
14 2 14.4393 1.03563 1.18644 14.4393 1.03563 1.18644
15 2 14.2838 1.0124 -2.07197 14.2838 1.0124 -2.07197
16 1 15.311 2.67037 -0.499857 15.311 2.67037 -0.499857
17 2 17.2658 2.68274 1.06695 17.2658 2.68274 1.06695
18 2 17.1567 2.65792 -2.19331 17.1567 2.65792 -2.19331
19 1 18.1616 1.0237 -0.58233 18.1616 1.0237 -0.58233
20 2 20.0888 1.0347 1.01843 20.0888 1.0347 1.01843
21 2 20.0365 1.01264 -2.24326 20.0365 1.01264 -2.24326
22 1 21.0132 2.67015 -0.638776 21.0132 2.67015 -0.638776
23 2 22.9088 2.68057 0.999556 22.9088 2.68057 0.999556
24 2 22.9204 2.65972 -2.26251 22.9204 2.65972 -2.26251
25 1 23.8653 1.02357 -0.617411 23.8653 1.02357 -0.617411
26 2 25.7303 1.03378 1.05559 25.7303 1.03378 1.05559
27 2 25.802 1.01332 -2.20573 25.802 1.01332 -2.20573
28 1 26.7166 2.6702 -0.564438 26.7166 2.6702 -0.564438
29 2 28.5538 2.67869 1.13916 28.5538 2.67869 1.13916
30 2 28.6794 2.6617 -2.12053 28.6794 2.6617 -2.12053
31 1 29.5665 1.02367 -0.445346 29.5665 1.02367 -0.445346
32 2 31.3836 1.03344 1.2795 31.3836 1.03344 1.2795
33 2 31.5472 1.0139 -1.97851 31.5472 1.0139 -1.97851
34 1 32.4149 2.67039 -0.311631 32.4149 2.67039 -0.311631
35 2 34.2211 2.67808 1.42448 34.2211 2.67808 1.42448
36 2 34.4051 2.66269 -1.83247 34.4051 2.66269 -1.83247
37 1 35.2622 1.02395 -0.142478 35.2622 1.02395 -0.142478
38 2 37.0695 1.03376 1.59224 37.0695 1.03376 1.59224
39 2 37.2514 1.01419 -1.66482 37.2514 1.01419 -1.66482
40 1 38.1097 2.67065 0.00684613 38.1097 2.67065 0.00684613
41 2 39.9298 2.67892 1.72799 39.9298 2.67892 1.72799
42 2 40.0876 2.66242 -1.53035 40.0876 2.66242 -1.53035
43 1 40.9582 1.02431 0.15318 40.9582 1.02431 0.15318
44 2 42.8013 1.03425 1.84958 42.8013 1.03425 1.84958
45 2 42.9154 1.01445 -1.41055 42.9154 1.01445 -1.41055
46 1 43.8085 2.67096 0.242736 43.8085 2.67096 0.242736
47 2 45.6815 2.68079 1.90585 45.6815 2.68079 1.90585
48 2 45.7376 2.66125 -1.35581 45.7376 2.66125 -1.35581
49 1 46.6602 1.0246 0.301171 46.6602 1.0246 0.301171
50 2 48.5659 1.03482 1.92657 48.5659 1.03482 1.92657
51 2 48.5571 1.01446 -1.33552 48.5571 1.01446 -1.33552
52 1 49.5122 2.67122 0.282558 49.5122 2.67122 0.282558
53 2 51.4498 2.6829 1.86976 51.4498 2.6829 1.86976
54 2 51.3763 2.65963 -1.3915 51.3763 2.65963 -1.3915
55 1 1.06965 4.3178 0.205818 1.06965 4.3178 0.205818
56 2 3.03447 4.33137 1.75915 3.03447 4.33137 1.75915
57 2 2.90443 4.30428 -1.50033 2.90443 4.30428 -1.50033
58 1 3.91901 5.96428 0.0776562 3.91901 5.96428 0.0776562
59 2 5.90278 5.97923 1.60668 5.90278 5.97923 1.60668
60 2 5.73255 5.94927 -1.65092 5.73255 5.94927 -1.65092
61 1 6.76734 4.31759 -0.056704 6.76734 4.31759 -0.056704
62 2 8.75923 4.33241 1.46189 8.75923 4.33241 1.46189
63 2 8.57164 4.30266 -1.79476 8.57164 4.30266 -1.79476
64 1 9.61409 5.96388 -0.236294 9.61409 5.96388 -0.236294
65 2 11.603 5.97886 1.28644 11.603 5.97886 1.28644
66 2 11.4219 5.94874 -1.97056 11.4219 5.94874 -1.97056
67 1 12.462 4.3171 -0.379627 12.462 4.3171 -0.379627
68 2 14.438 4.33103 1.15999 14.438 4.33103 1.15999
69 2 14.2842 4.30306 -2.09844 14.2842 4.30306 -2.09844
70 1 15.3105 5.96342 -0.528259 15.3105 5.96342 -0.528259
71 2 17.2637 5.97598 1.0406 17.2637 5.97598 1.0406
72 2 17.1581 5.95083 -2.21974 17.1581 5.95083 -2.21974
73 1 18.1613 4.31676 -0.607525 18.1613 4.31676 -0.607525
74 2 20.0872 4.32813 0.994871 20.0872 4.32813 0.994871
75 2 20.0377 4.30539 -2.26683 20.0377 4.30539 -2.26683
76 1 21.0131 5.96331 -0.661901 21.0131 5.96331 -0.661901
77 2 22.9065 5.97187 0.978983 22.9065 5.97187 0.978983
78 2 22.9225 5.95482 -2.28306 22.9225 5.95482 -2.28306
79 1 23.8653 4.31675 -0.638575 23.8653 4.31675 -0.638575
80 2 25.7289 4.32487 1.03609 25.7289 4.32487 1.03609
81 2 25.8035 4.30866 -2.22516 25.8035 4.30866 -2.22516
82 1 26.7167 5.96347 -0.580935 26.7167 5.96347 -0.580935
83 2 28.5519 5.96797 1.12478 28.5519 5.96797 1.12478
84 2 28.6812 5.959 -2.13478 28.6812 5.959 -2.13478
85 1 29.5666 4.31691 -0.462603 29.5666 4.31691 -0.462603
86 2 31.3827 4.32258 1.26326 31.3827 4.32258 1.26326
87 2 31.5481 4.31122 -1.99468 31.5481 4.31122 -1.99468
88 1 32.4148 5.96362 -0.323184 32.4148 5.96362 -0.323184
89 2 34.2203 5.96606 1.41372 34.2203 5.96606 1.41372
90 2 34.4057 5.9611 -1.84318 34.4057 5.9611 -1.84318
91 1 35.2622 4.31708 -0.15808 35.2622 4.31708 -0.15808
92 2 37.0694 4.3225 1.57678 37.0694 4.3225 1.57678
93 2 37.2515 4.31163 -1.68032 37.2515 4.31163 -1.68032
94 1 38.1096 5.96371 -0.00415851 38.1096 5.96371 -0.00415851
95 2 39.9303 5.96739 1.71633 39.9303 5.96739 1.71633
96 2 40.0869 5.95999 -1.54212 40.0869 5.95999 -1.54212
97 1 40.9583 4.3173 0.136472 40.9583 4.3173 0.136472
98 2 42.8017 4.32474 1.83239 42.8017 4.32474 1.83239
99 2 42.915 4.30992 -1.42783 42.915 4.30992 -1.42783
100 1 43.8085 5.96392 0.227778 43.8085 5.96392 0.227778
101 2 45.6829 5.97154 1.88926 45.6829 5.97154 1.88926
102 2 45.7361 5.95644 -1.37249 45.7361 5.95644 -1.37249
103 1 46.6601 4.3176 0.281406 46.6601 4.3176 0.281406
104 2 48.5665 4.3283 1.90598 48.5665 4.3283 1.90598
105 2 48.5563 4.30707 -1.35613 48.5563 4.30707 -1.35613
106 1 49.512 5.96424 0.261113 49.512 5.96424 0.261113
107 2 51.4509 5.97638 1.84662 51.4509 5.97638 1.84662
108 2 51.3746 5.95224 -1.4146 51.3746 5.95224 -1.4146
109 1 1.06921 7.61082 0.181433 1.06921 7.61082 0.181433
110 2 3.03547 7.62419 1.73285 3.03547 7.62419 1.73285
111 2 2.90228 7.59751 -1.52653 2.90228 7.59751 -1.52653
112 1 3.9183 9.25729 0.0506851 3.9183 9.25729 0.0506851
113 2 5.90301 9.27072 1.57846 5.90301 9.27072 1.57846
114 2 5.73072 9.24378 -1.67908 5.73072 9.24378 -1.67908
115 1 6.76654 7.61064 -0.0870508 6.76654 7.61064 -0.0870508
116 2 8.75838 7.62558 1.43157 8.75838 7.62558 1.43157
117 2 8.57087 7.59554 -1.82508 8.57087 7.59554 -1.82508
118 1 9.6132 9.25693 -0.266773 9.6132 9.25693 -0.266773
119 2 11.6012 9.27013 1.25716 11.6012 9.27013 1.25716
120 2 11.422 9.24356 -1.99997 11.422 9.24356 -1.99997
121 1 12.4612 7.61015 -0.410207 12.4612 7.61015 -0.410207
122 2 14.4358 7.6235 1.13132 14.4358 7.6235 1.13132
123 2 14.2852 7.59671 -2.12725 14.2852 7.59671 -2.12725
124 1 15.3099 9.25655 -0.555505 15.3099 9.25655 -0.555505
125 2 17.2608 9.26652 1.0163 17.2608 9.26652 1.0163
126 2 17.1602 9.24659 -2.2442 17.1602 9.24659 -2.2442
127 1 18.161 7.6099 -0.633107 18.161 7.6099 -0.633107
128 2 20.0844 7.61927 0.972318 20.0844 7.61927 0.972318
129 2 20.0401 7.6006 -2.28945 20.0401 7.6006 -2.28945
130 1 21.0129 9.25657 -0.680954 21.0129 9.25657 -0.680954
131 2 22.9031 9.26127 0.963643 22.9031 9.26127 0.963643
132 2 22.9256 9.25202 -2.29837 22.9256 9.25202 -2.29837
133 1 23.8652 7.61002 -0.655965 23.8652 7.61002 -0.655965
134 2 25.7261 7.61432 1.02182 25.7261 7.61432 1.02182
135 2 25.8062 7.60583 -2.2393 25.8062 7.60583 -2.2393
136 1 26.7165 9.25681 -0.58967 26.7165 9.25681 -0.58967
137 2 28.5489 9.25604 1.11919 28.5489 9.25604 1.11919
138 2 28.6838 9.25762 -2.14015 28.6838 9.25762 -2.14015
139 1 29.5664 7.61022 -0.471788 29.5664 7.61022 -0.471788
140 2 31.3808 7.61049 1.25604 31.3808 7.61049 1.25604
141 2 31.5497 7.6099 -2.00173 31.5497 7.6099 -2.00173
142 1 32.4144 9.25688 -0.323847 32.4144 9.25688 -0.323847
143 2 34.2188 9.25318 1.41419 34.2188 9.25318 1.41419
144 2 34.4064 9.26044 -1.84258 34.4064 9.26044 -1.84258
145 1 35.262 7.61024 -0.163134 35.262 7.61024 -0.163134
146 2 37.0692 7.60987 1.57166 37.0692 7.60987 1.57166
147 2 37.2512 7.6105 -1.68546 37.2512 7.6105 -1.68546
148 1 38.1092 9.25676 -0.00349482 38.1092 9.25676 -0.00349482
149 2 39.9312 9.25467 1.71555 39.9312 9.25467 1.71555
150 2 40.0853 9.25877 -1.54303 40.0853 9.25877 -1.54303
151 1 40.9581 7.61027 0.129027 40.9581 7.61027 0.129027
152 2 42.8033 7.61328 1.82302 42.8033 7.61328 1.82302
153 2 42.9132 7.60731 -1.43735 42.9132 7.60731 -1.43735
154 1 43.8083 9.25685 0.221838 43.8083 9.25685 0.221838
155 2 45.6855 9.26031 1.88005 45.6855 9.26031 1.88005
156 2 45.7331 9.25356 -1.38183 45.7331 9.25356 -1.38183
157 1 46.66 7.61055 0.266201 46.66 7.61055 0.266201
158 2 48.5686 7.61919 1.88806 48.5686 7.61919 1.88806
159 2 48.5538 7.60212 -1.37408 48.5538 7.60212 -1.37408
160 1 49.5117 9.25719 0.243942 49.5117 9.25719 0.243942
161 2 51.4532 9.26701 1.82621 51.4532 9.26701 1.82621
162 2 51.3715 9.24755 -1.43494 51.3715 9.24755 -1.43494
163 1 1.06871 10.9038 0.161831 1.06871 10.9038 0.161831
164 2 3.03719 10.914 1.7104 3.03719 10.914 1.7104
165 2 2.89928 10.8936 -1.54884 2.89928 10.8936 -1.54884
166 1 3.91759 12.5503 0.0301012 3.91759 12.5503 0.0301012
167 2 5.90355 12.5594 1.55628 5.90355 12.5594 1.55628
168 2 5.72859 12.5411 -1.70118 5.72859 12.5411 -1.70118
169 1 6.76565 10.9037 -0.114329 6.76565 10.9037 -0.114329
170 2 8.75752 10.9155 1.40429 8.75752 10.9155 1.40429
171 2 8.56997 10.8917 -1.85241 8.56997 10.8917 -1.85241
172 1 9.61234 12.55 -0.290955 9.61234 12.55 -0.290955
173 2 11.5994 12.5587 1.23425 11.5994 12.5587 1.23425
174 2 11.4223 12.5412 -2.02304 11.4223 12.5412 -2.02304
175 1 12.4604 10.9033 -0.437197 12.4604 10.9033 -0.437197
176 2 14.4333 10.9131 1.10664 14.4333 10.9131 1.10664
177 2 14.2865 10.8934 -2.15213 14.2865 10.8934 -2.15213
178 1 15.3094 12.5498 -0.575612 15.3094 12.5498 -0.575612
179 2 17.2577 12.555 0.999378 17.2577 12.555 0.999378
180 2 17.1624 12.5446 -2.26131 17.1624 12.5446 -2.26131
181 1 18.1606 10.9032 -0.653425 18.1606 10.9032 -0.653425
182 2 20.081 10.9083 0.955736 20.081 10.9083 0.955736
183 2 20.043 10.8981 -2.30612 20.043 10.8981 -2.30612
184 1 21.0127 12.5499 -0.691467 21.0127 12.5499 -0.691467
185 2 22.8994 12.5494 0.957275 22.8994 12.5494 0.957275
186 2 22.929 12.5506 -2.30468 22.929 12.5506 -2.30468
187 1 23.8651 10.9034 -0.66549 23.8651 10.9034 -0.66549
188 2 25.7225 10.9025 1.01622 25.7225 10.9025 1.01622
189 2 25.8094 10.9044 -2.24472 25.8094 10.9044 -2.24472
190 1 26.7163 12.5502 -0.587915 26.7163 12.5502 -0.587915
191 2 28.5454 12.5437 1.12446 28.5454 12.5437 1.12446
192 2 28.6866 12.5567 -2.13458 28.6866 12.5567 -2.13458
193 1 29.5661 10.9035 -0.470307 29.5661 10.9035 -0.470307
194 2 31.3781 10.8978 1.26 31.3781 10.8978 1.26
195 2 31.5515 10.9092 -1.99751 31.5515 10.9092 -1.99751
196 1 32.4138 12.5501 -0.312382 32.4138 12.5501 -0.312382
197 2 34.217 12.5405 1.42681 34.217 12.5405 1.42681
198 2 34.4068 12.5596 -1.82978 34.4068 12.5596 -1.82978
199 1 35.2614 10.9034 -0.155797 35.2614 10.9034 -0.155797
200 2 37.0689 10.8968 1.57871 37.0689 10.8968 1.57871
201 2 37.2504 10.9098 -1.67841 37.2504 10.9098 -1.67841
202 1 38.1085 12.5498 0.0096653 38.1085 12.5498 0.0096653
203 2 39.9324 12.542 1.72667 39.9324 12.542 1.72667
204 2 40.083 12.5575 -1.53204 40.083 12.5575 -1.53204
205 1 40.9577 10.9032 0.133277 40.9577 10.9032 0.133277
206 2 42.8056 10.9009 1.82423 42.8056 10.9009 1.82423
207 2 42.9102 10.9057 -1.43632 42.9102 10.9057 -1.43632
208 1 43.8079 12.5498 0.226886 43.8079 12.5498 0.226886
209 2 45.689 12.5482 1.88073 45.689 12.5482 1.88073
210 2 45.729 12.5515 -1.38126 45.729 12.5515 -1.38126
211 1 46.6598 10.9035 0.259516 46.6598 10.9035 0.259516
212 2 48.5719 10.908 1.87717 48.5719 10.908 1.87717
213 2 48.55 10.8991 -1.38498 48.55 10.8991 -1.38498
214 1 49.5114 12.5501 0.235086 49.5114 12.5501 0.235086
215 2 51.4564 12.5556 1.8131 51.4564 12.5556 1.8131
216 2 51.3675 12.5449 -1.44791 51.3675 12.5449 -1.44791
217 1 1.06826 14.1967 0.151146 1.06826 14.1967 0.151146
218 2 3.03933 14.2019 1.69645 3.03933 14.2019 1.69645
219 2 2.89597 14.1916 -1.56261 2.89597 14.1916 -1.56261
220 1 3.91702 15.8433 0.0197621 3.91702 15.8433 0.0197621
221 2 5.90433 15.8467 1.54424 5.90433 15.8467 1.54424
222 2 5.72652 15.8397 -1.7131 5.72652 15.8397 -1.7131
223 1 6.76488 14.1967 -0.132917 6.76488 14.1967 -0.132917
224 2 8.75687 14.2033 1.38559 8.75687 14.2033 1.38559
225 2 8.56907 14.19 -1.87115 8.56907 14.19 -1.87115
226 1 9.61169 15.8432 -0.304367 9.61169 15.8432 -0.304367
227 2 11.598 15.846 1.22192 11.598 15.846 1.22192
228 2 11.4226 15.8402 -2.0355 11.4226 15.8402 -2.0355
229 1 12.4598 14.1965 -0.455025 12.4598 14.1965 -0.455025
230 2 14.4309 14.2009 1.09105 14.4309 14.2009 1.09105
231 2 14.2878 14.192 -2.16792 14.2878 14.192 -2.16792
232 1 15.309 15.8431 -0.584759 15.309 15.8431 -0.584759
233 2 17.2551 15.8427 0.993112 17.2551 15.8427 0.993112
234 2 17.1645 15.8436 -2.26773 17.1645 15.8436 -2.26773
235 1 18.1604 14.1965 -0.664054 18.1604 14.1965 -0.664054
236 2 20.0777 14.1963 0.948849 20.0777 14.1963 0.948849
237 2 20.046 14.1968 -2.31308 20.046 14.1968 -2.31308
238 1 21.0126 15.8433 -0.691091 21.0126 15.8433 -0.691091
239 2 22.8959 15.8376 0.96155 22.8959 15.8376 0.96155
240 2 22.9322 15.8491 -2.30032 22.9322 15.8491 -2.30032
241 1 23.8649 14.1967 -0.664459 23.8649 14.1967 -0.664459
242 2 25.7187 14.1904 1.02128 25.7187 14.1904 1.02128
243 2 25.8127 14.2031 -2.23944 25.8127 14.2031 -2.23944
244 1 26.7159 15.8435 -0.575184 26.7159 15.8435 -0.575184
245 2 28.5419 15.8322 1.14046 28.5419 15.8322 1.14046
246 2 28.6889 15.8547 -2.11827 28.6889 15.8547 -2.11827
247 1 29.5655 14.1968 -0.457264 29.5655 14.1968 -0.457264
248 2 31.3752 14.1857 1.27548 31.3752 14.1857 1.27548
249 2 31.553 14.2078 -1.98174 31.553 14.2078 -1.98174
250 1 32.413 15.8432 -0.289986 32.413 15.8432 -0.289986
251 2 34.2154 15.8292 1.45003 34.2154 15.8292 1.45003
252 2 34.4066 15.857 -1.80641 34.4066 15.857 -1.80641
253 1 35.2605 14.1965 -0.136449 35.2605 14.1965 -0.136449
254 2 37.0686 14.1847 1.59745 37.0686 14.1847 1.59745
255 2 37.2491 14.2081 -1.65967 37.2491 14.2081 -1.65967
256 1 38.1077 15.8428 0.0333877 38.1077 15.8428 0.0333877
257 2 39.9339 15.8308 1.74797 39.9339 15.8308 1.74797
258 2 40.0802 15.8546 -1.51087 40.0802 15.8546 -1.51087
259 1 40.9571 14.1962 0.149032 40.9571 14.1962 0.149032
260 2 42.8084 14.1888 1.8363 42.8084 14.1888 1.8363
261 2 42.9066 14.2036 -1.42441 42.9066 14.2036 -1.42441
262 1 43.8075 15.8427 0.242049 43.8075 15.8427 0.242049
263 2 45.6928 15.8367 1.89117 45.6928 15.8367 1.89117
264 2 45.7247 15.8489 -1.37087 45.7247 15.8489 -1.37087
265 1 46.6595 14.1964 0.263007 46.6595 14.1964 0.263007
266 2 48.5759 14.1961 1.87571 48.5759 14.1961 1.87571
267 2 48.5455 14.197 -1.38638 48.5455 14.197 -1.38638
268 1 49.5112 15.843 0.236158 49.5112 15.843 0.236158
269 2 51.4598 15.8433 1.80971 51.4598 15.8433 1.80971
270 2 51.3634 15.8429 -1.45109 51.3634 15.8429 -1.45109
271 1 1.06793 17.4897 0.150889 1.06793 17.4897 0.150889
272 2 3.04147 17.4893 1.69309 3.04147 17.4893 1.69309
273 2 2.89297 17.4901 -1.56574 2.89297 17.4901 -1.56574
274 1 3.91668 19.1362 0.0206049 3.91668 19.1362 0.0206049
275 2 5.90517 19.1341 1.5436 5.90517 19.1341 1.5436
276 2 5.72489 19.1384 -1.71361 5.72489 19.1384 -1.71361
277 1 6.76434 17.4898 -0.139951 6.76434 17.4898 -0.139951
278 2 8.75654 17.4904 1.37835 8.75654 17.4904 1.37835
279 2 8.56834 17.4891 -1.87839 8.56834 17.4891 -1.87839
280 1 9.61132 19.1364 -0.305655 9.61132 19.1364 -0.305655
281 2 11.597 19.1335 1.22146 11.597 19.1335 1.22146
282 2 11.4229 19.1392 -2.03603 11.4229 19.1392 -2.03603
283 1 12.4594 17.4898 -0.460969 12.4594 17.4898 -0.460969
284 2 14.4291 17.4884 1.08696 14.4291 17.4884 1.08696
285 2 14.289 17.4911 -2.17215 14.289 17.4911 -2.17215
286 1 15.3088 19.1365 -0.58215 15.3088 19.1365 -0.58215
287 2 17.253 19.1309 0.997981 17.253 19.1309 0.997981
288 2 17.1662 19.142 -2.26295 17.1662 19.142 -2.26295
289 1 18.1602 17.4899 -0.663297 18.1602 17.4899 -0.663297
290 2 20.0748 17.4846 0.952817 20.0748 17.4846 0.952817
291 2 20.0485 17.4953 -2.30915 20.0485 17.4953 -2.30915
292 1 21.0124 19.1366 -0.680361 21.0124 19.1366 -0.680361
293 2 22.893 19.127 0.975386 22.893 19.127 0.975386
294 2 22.9346 19.1463 -2.2864 22.9346 19.1463 -2.2864
295 1 23.8647 17.4901 -0.652897 23.8647 17.4901 -0.652897
296 2 25.7152 17.4795 1.03635 25.7152 17.4795 1.03635
297 2 25.8154 17.5006 -2.22416 25.8154 17.5006 -2.22416
298 1 26.7154 19.1366 -0.553937 26.7154 19.1366 -0.553937
299 2 28.5391 19.1229 1.16424 28.5391 19.1229 1.16424
300 2 28.6906 19.1503 -2.09427 28.6906 19.1503 -2.09427
301 1 29.5649 17.49 -0.434556 29.5649 17.49 -0.434556
302 2 31.3726 17.4755 1.30013 31.3726 17.4755 1.30013
303 2 31.554 17.5043 -1.95685 31.554 17.5043 -1.95685
304 1 32.4121 19.1363 -0.260761 32.4121 19.1363 -0.260761
305 2 34.2142 19.1207 1.47957 34.2142 19.1207 1.47957
306 2 34.406 19.1516 -1.7768 34.406 19.1516 -1.7768
307 1 35.2596 17.4895 -0.108281 35.2596 17.4895 -0.108281
308 2 37.0686 17.4748 1.62464 37.0686 17.4748 1.62464
309 2 37.2474 17.504 -1.6325 37.2474 17.504 -1.6325
310 1 38.1069 19.1358 0.0630608 38.1069 19.1358 0.0630608
311 2 39.9354 19.1222 1.77519 39.9354 19.1222 1.77519
312 2 40.0773 19.1493 -1.48379 40.0773 19.1493 -1.48379
313 1 40.9565 17.4891 0.173268 40.9565 17.4891 0.173268
314 2 42.8112 17.4785 1.85678 42.8112 17.4785 1.85678
315 2 42.9028 17.4999 -1.40406 42.9028 17.4999 -1.40406
316 1 43.8072 19.1356 0.263897 43.8072 19.1356 0.263897
317 2 45.6961 19.1267 1.90881 45.6961 19.1267 1.90881
318 2 45.7208 19.1448 -1.35324 45.7208 19.1448 -1.35324
319 1 46.6593 17.4893 0.275598 46.6593 17.4893 0.275598
320 2 48.5797 17.4846 1.88355 48.5797 17.4846 1.88355
321 2 48.5412 17.4943 -1.37843 48.5412 17.4943 -1.37843
322 1 49.511 19.1359 0.246156 49.511 19.1359 0.246156
323 2 51.4627 19.1316 1.81589 51.4627 19.1316 1.81589
324 2 51.36 19.1405 -1.4447 51.36 19.1405 -1.4447
325 1 1.06778 20.7826 0.159991 1.06778 20.7826 0.159991
326 2 3.04321 20.7774 1.69983 3.04321 20.7774 1.69983
327 2 2.8908 20.7878 -1.55879 2.8908 20.7878 -1.55879
328 1 3.91657 22.4292 0.0311849 3.91657 22.4292 0.0311849
329 2 5.90584 22.4223 1.55321 5.90584 22.4223 1.55321
330 2 5.72397 22.4361 -1.70387 5.72397 22.4361 -1.70387
331 1 6.76408 20.7828 -0.135499 6.76408 20.7828 -0.135499
332 2 8.75645 20.778 1.38262 8.75645 20.778 1.38262
333 2 8.56793 20.7876 -1.87409 8.56793 20.7876 -1.87409
334 1 9.61122 22.4295 -0.295963 9.61122 22.4295 -0.295963
335 2 11.5964 22.4219 1.23172 11.5964 22.4219 1.23172
336 2 11.4233 22.4371 -2.02579 11.4233 22.4371 -2.02579
337 1 12.4592 20.783 -0.455242 12.4592 20.783 -0.455242
338 2 14.4278 20.7767 1.09404 14.4278 20.7767 1.09404
339 2 14.29 20.7893 -2.16514 14.29 20.7893 -2.16514
340 1 15.3088 22.4297 -0.569353 15.3088 22.4297 -0.569353
341 2 17.2518 22.4205 1.0122 17.2518 22.4205 1.0122
342 2 17.1674 22.439 -2.24878 17.1674 22.439 -2.24878
343 1 18.1601 20.7832 -0.652186 18.1601 20.7832 -0.652186
344 2 20.0728 20.7741 0.966209 20.0728 20.7741 0.966209
345 2 20.0504 20.7923 -2.29578 20.0504 20.7923 -2.29578
346 1 21.0123 22.4299 -0.662034 21.0123 22.4299 -0.662034
347 2 22.8912 22.4185 0.995545 22.8912 22.4185 0.995545
348 2 22.936 22.4411 -2.26621 22.936 22.4411 -2.26621
349 1 23.8644 20.7833 -0.633539 23.8644 20.7833 -0.633539
350 2 25.7127 20.7708 1.05817 25.7127 20.7708 1.05817
351 2 25.8172 20.7957 -2.2022 25.8172 20.7957 -2.2022
352 1 26.715 22.4297 -0.528849 26.715 22.4297 -0.528849
353 2 28.5373 22.4164 1.19073 28.5373 22.4164 1.19073
354 2 28.6912 22.4429 -2.06769 28.6912 22.4429 -2.06769
355 1 29.5642 20.783 -0.406823 29.5642 20.783 -0.406823
356 2 31.3708 20.7682 1.32903 31.3708 20.7682 1.32903
357 2 31.5542 20.7977 -1.92784 31.5542 20.7977 -1.92784
358 1 32.4113 22.4293 -0.230822 32.4113 22.4293 -0.230822
359 2 34.2136 22.4154 1.50935 34.2136 22.4154 1.50935
360 2 34.4051 22.443 -1.74707 34.4051 22.443 -1.74707
361 1 35.2587 20.7825 -0.0769341 35.2587 20.7825 -0.0769341
362 2 37.0688 20.7679 1.65484 37.0688 20.7679 1.65484
363 2 37.2456 20.7969 -1.60241 37.2456 20.7969 -1.60241
364 1 38.1062 22.4288 0.0924951 38.1062 22.4288 0.0924951
365 2 39.9366 22.4164 1.80264 39.9366 22.4164 1.80264
366 2 40.075 22.4411 -1.45649 40.075 22.4411 -1.45649
367 1 40.9559 20.7821 0.200835 40.9559 20.7821 0.200835
368 2 42.8135 20.7706 1.88119 42.8135 20.7706 1.88119
369 2 42.8997 20.7938 -1.37976 42.8997 20.7938 -1.37976
370 1 43.8069 22.4286 0.287558 43.8069 22.4286 0.287558
371 2 45.6985 22.4188 1.92957 45.6985 22.4188 1.92957
372 2 45.7182 22.4386 -1.33248 45.7182 22.4386 -1.33248
373 1 46.6591 20.7822 0.29406 46.6591 20.7822 0.29406
374 2 48.5826 20.7745 1.89832 48.5826 20.7745 1.89832
375 2 48.538 20.7902 -1.36353 48.538 20.7902 -1.36353
376 1 49.5109 22.4289 0.262218 49.5109 22.4289 0.262218
377 2 51.4647 22.4212 1.82945 51.4647 22.4212 1.82945
378 2 51.3579 22.4367 -1.43095 51.3579 22.4367 -1.43095
379 1 1.0678 24.0755 0.175796 1.0678 24.0755 0.175796
380 2 3.04419 24.0668 1.71445 3.04419 24.0668 1.71445
381 2 2.88984 24.0843 -1.54403 2.88984 24.0843 -1.54403
382 1 3.91671 25.7222 0.0488709 3.91671 25.7222 0.0488709
383 2 5.90617 25.712 1.57067 5.90617 25.712 1.57067
384 2 5.72394 25.7325 -1.68635 5.72394 25.7325 -1.68635
385 1 6.7641 24.0759 -0.121511 6.7641 24.0759 -0.121511
386 2 8.75651 24.0669 1.39657 8.75651 24.0669 1.39657
387 2 8.56792 24.0849 -1.86009 8.56792 24.0849 -1.86009
388 1 9.61139 25.7226 -0.277713 9.61139 25.7226 -0.277713
389 2 11.5964 25.7117 1.25028 11.5964 25.7117 1.25028
390 2 11.4237 25.7335 -2.00723 11.4237 25.7335 -2.00723
391 1 12.4593 24.0762 -0.439895 12.4593 24.0762 -0.439895
392 2 14.4273 24.0663 1.11016 14.4273 24.0663 1.11016
393 2 14.2906 24.0862 -2.14906 14.2906 24.0862 -2.14906
394 1 15.309 25.7229 -0.549195 15.309 25.7229 -0.549195
395 2 17.2516 25.7117 1.03274 17.2516 25.7117 1.03274
396 2 17.1678 25.7341 -2.22826 17.1678 25.7341 -2.22826
397 1 18.1601 24.0764 -0.633483 18.1601 24.0764 -0.633483
398 2 20.0719 24.0655 0.985918 20.0719 24.0655 0.985918
399 2 20.0512 24.0873 -2.27609 20.0512 24.0873 -2.27609
400 1 21.0123 25.723 -0.639943 21.0123 25.723 -0.639943
401 2 22.891 25.7121 1.01783 22.891 25.7121 1.01783
402 2 22.936 25.7337 -2.24396 22.936 25.7337 -2.24396
403 1 23.8642 24.0764 -0.610672 23.8642 24.0764 -0.610672
404 2 25.7116 24.0646 1.08202 25.7116 24.0646 1.08202
405 2 25.8177 24.088 -2.17833 25.8177 24.088 -2.17833
406 1 26.7147 25.7227 -0.5052 26.7147 25.7227 -0.5052
407 2 28.537 25.7125 1.21442 28.537 25.7125 1.21442
408 2 28.6909 25.7327 -2.04407 28.6909 25.7327 -2.04407
409 1 29.5637 24.076 -0.380013 29.5637 24.076 -0.380013
410 2 31.37 24.0639 1.35612 31.37 24.0639 1.35612
411 2 31.5539 24.088 -1.90078 31.5539 24.088 -1.90078
412 1 32.4109 25.7223 -0.206349 32.4109 25.7223 -0.206349
413 2 34.2137 25.7128 1.53331 34.2137 25.7128 1.53331
414 2 34.4042 25.7317 -1.72324 34.4042 25.7317 -1.72324
415 1 35.2581 24.0755 -0.0489372 35.2581 24.0755 -0.0489372
416 2 37.0693 24.064 1.68181 37.0693 24.064 1.68181
417 2 37.2441 24.087 -1.57557 37.2441 24.087 -1.57557
418 1 38.1059 25.7219 0.115785 38.1059 25.7219 0.115785
419 2 39.9374 25.713 1.82483 39.9374 25.713 1.82483
420 2 40.0738 25.7308 -1.43441 40.0738 25.7308 -1.43441
421 1 40.9556 24.0752 0.22596 40.9556 24.0752 0.22596
422 2 42.815 24.0651 1.90439 42.815 24.0651 1.90439
423 2 42.8977 24.0855 -1.35664 42.8977 24.0855 -1.35664
424 1 43.8068 25.7218 0.308255 43.8068 25.7218 0.308255
425 2 45.6993 25.7129 1.9492 45.6993 25.7129 1.9492
426 2 45.7172 25.7307 -1.31284 45.7172 25.7307 -1.31284
427 1 46.6591 24.0752 0.314217 46.6591 24.0752 0.314217
428 2 48.5842 24.0661 1.91655 48.5842 24.0661 1.91655
429 2 48.5363 24.0845 -1.34521 48.5363 24.0845 -1.34521
430 1 49.511 25.7219 0.280829 49.511 25.7219 0.280829
431 2 51.4654 25.7123 1.84735 51.4654 25.7123 1.84735
432 2 51.3573 25.7315 -1.41297 51.3573 25.7315 -1.41297
433 1 1.06798 27.3685 0.195205 1.06798 27.3685 0.195205
434 2 3.04423 27.3578 1.73408 3.04423 27.3578 1.73408
435 2 2.89026 27.3794 -1.52438 2.89026 27.3794 -1.52438
436 1 3.91706 29.0152 0.0707169 3.91706 29.0152 0.0707169
437 2 5.90609 29.0031 1.59309 5.90609 29.0031 1.59309
438 2 5.72482 29.0274 -1.66395 5.72482 29.0274 -1.66395
439 1 6.76439 27.3689 -0.100702 6.76439 27.3689 -0.100702
440 2 8.75668 27.3572 1.41753 8.75668 27.3572 1.41753
441 2 8.56835 27.3808 -1.83911 8.56835 27.3808 -1.83911
442 1 9.61182 29.0157 -0.253833 9.61182 29.0157 -0.253833
443 2 11.5968 29.0031 1.2741 11.5968 29.0031 1.2741
444 2 11.424 29.0283 -1.98339 11.424 29.0283 -1.98339
445 1 12.4596 27.3693 -0.417804 12.4596 27.3693 -0.417804
446 2 14.4275 27.3575 1.13227 14.4275 27.3575 1.13227
447 2 14.2909 27.3813 -2.12694 14.2909 27.3813 -2.12694
448 1 15.3093 29.016 -0.525068 15.3093 29.016 -0.525068
449 2 17.2526 29.0047 1.05602 17.2526 29.0047 1.05602
450 2 17.1673 29.0273 -2.20497 17.1673 29.0273 -2.20497
451 1 18.1602 27.3695 -0.61075 18.1602 27.3695 -0.61075
452 2 20.0724 27.3587 1.00815 20.0724 27.3587 1.00815
453 2 20.0508 27.3802 -2.25388 20.0508 27.3802 -2.25388
454 1 21.0123 29.016 -0.618104 21.0123 29.016 -0.618104
455 2 22.8924 29.0075 1.03813 22.8924 29.0075 1.03813
456 2 22.9347 29.0243 -2.22375 22.9347 29.0243 -2.22375
457 1 23.8641 27.3694 -0.58882 23.8641 27.3694 -0.58882
458 2 25.7121 27.3605 1.10316 25.7121 27.3605 1.10316
459 2 25.8169 27.378 -2.1573 25.8169 27.378 -2.1573
460 1 26.7147 29.0156 -0.487434 26.7147 29.0156 -0.487434
461 2 28.5382 29.0103 1.23085 28.5382 29.0103 1.23085
462 2 28.6896 29.0209 -2.02782 28.6896 29.0209 -2.02782
463 1 29.5634 27.369 -0.359493 29.5634 27.369 -0.359493
464 2 31.3704 27.3618 1.37601 31.3704 27.3618 1.37601
465 2 31.553 27.3761 -1.88103 31.553 27.3761 -1.88103
466 1 32.4109 29.0153 -0.191854 32.4109 29.0153 -0.191854
467 2 34.2144 29.0117 1.54708 34.2144 29.0117 1.54708
468 2 34.4035 29.019 -1.7096 34.4035 29.019 -1.7096
469 1 35.2579 27.3686 -0.0297073 35.2579 27.3686 -0.0297073
470 2 37.0697 27.3622 1.7004 37.0697 27.3622 1.7004
471 2 37.2433 27.3751 -1.55709 37.2433 27.3751 -1.55709
472 1 38.1059 29.0151 0.128875 38.1059 29.0151 0.128875
473 2 39.9374 29.0111 1.83794 39.9374 29.0111 1.83794
474 2 40.0738 29.0192 -1.42132 40.0738 29.0192 -1.42132
475 1 40.9555 27.3684 0.243965 40.9555 27.3684 0.243965
476 2 42.8153 27.3614 1.92206 42.8153 27.3614 1.92206
477 2 42.8974 27.3755 -1.339 42.8974 27.3755 -1.339
478 1 43.8069 29.015 0.322515 43.8069 29.015 0.322515
479 2 45.6986 29.0084 1.96438 45.6986 29.0084 1.96438
480 2 45.718 29.0216 -1.29766 45.718 29.0216 -1.29766
481 1 46.6591 27.3684 0.332267 46.6591 27.3684 0.332267
482 2 48.5842 27.3595 1.93476 48.5842 27.3595 1.93476
483 2 48.5365 27.3773 -1.32699 48.5365 27.3773 -1.32699
484 1 49.5111 29.015 0.298812 49.5111 29.015 0.298812
485 2 51.4646 29.005 1.86652 51.4646 29.005 1.86652
486 2 51.3585 29.0249 -1.39384 51.3585 29.0249 -1.39384
487 1 1.06829 30.6616 0.215275 1.06829 30.6616 0.215275
488 2 3.0433 30.6502 1.75576 3.0433 30.6502 1.75576
489 2 2.89199 30.673 -1.50281 2.89199 30.673 -1.50281
490 1 3.91759 32.3083 0.0937012 3.91759 32.3083 0.0937012
491 2 5.90564 32.296 1.61735 5.90564 32.296 1.61735
492 2 5.72646 32.3207 -1.63979 5.72646 32.3207 -1.63979
493 1 6.76493 30.6619 -0.0761043 6.76493 30.6619 -0.0761043
494 2 8.75697 30.6491 1.44243 8.75697 30.6491 1.44243
495 2 8.56914 30.675 -1.81423 8.56914 30.675 -1.81423
496 1 9.61246 32.3087 -0.227622 9.61246 32.3087 -0.227622
497 2 11.5978 32.2963 1.2998 11.5978 32.2963 1.2998
498 2 11.4242 32.3213 -1.95767 11.4242 32.3213 -1.95767
499 1 12.46 30.6624 -0.392261 12.46 30.6624 -0.392261
500 2 14.4286 30.6504 1.15696 14.4286 30.6504 1.15696
501 2 14.2906 30.6745 -2.10221 14.2906 30.6745 -2.10221
502 1 15.3097 32.309 -0.500599 15.3097 32.309 -0.500599
503 2 17.2546 32.2993 1.07844 17.2546 32.2993 1.07844
504 2 17.1658 32.3188 -2.1825 17.1658 32.3188 -2.1825
505 1 18.1605 30.6626 -0.587734 18.1605 30.6626 -0.587734
506 2 20.0743 30.6536 1.02915 20.0743 30.6536 1.02915
507 2 20.0491 30.6714 -2.23291 20.0491 30.6714 -2.23291
508 1 21.0125 32.3089 -0.599999 21.0125 32.3089 -0.599999
509 2 22.8951 32.304 1.05322 22.8951 32.304 1.05322
510 2 22.9322 32.3137 -2.20878 22.9322 32.3137 -2.20878
511 1 23.8642 30.6623 -0.571748 23.8642 30.6623 -0.571748
512 2 25.7142 30.6577 1.11793 25.7142 30.6577 1.11793
513 2 25.8149 30.6667 -2.14272 25.8149 30.6667 -2.14272
514 1 26.7148 32.3086 -0.478246 26.7148 32.3086 -0.478246
515 2 28.5406 32.3087 1.23757 28.5406 32.3087 1.23757
516 2 28.6877 32.3084 -2.02133 28.6877 32.3084 -2.02133
517 1 29.5636 30.662 -0.348746 29.5636 30.662 -0.348746
518 2 31.3719 30.6607 1.38536 31.3719 30.6607 1.38536
519 2 31.5519 30.6632 -1.87186 31.5519 30.6632 -1.87186
520 1 32.4113 32.3084 -0.189342 32.4113 32.3084 -0.189342
521 2 34.2155 32.3109 1.54879 34.2155 32.3109 1.54879
522 2 34.4032 32.306 -1.70798 34.4032 32.306 -1.70798
523 1 35.2581 30.6618 -0.0223234 35.2581 30.6618 -0.0223234
524 2 37.07 30.6612 1.70768 37.07 30.6612 1.70768
525 2 37.2434 30.6625 -1.54986 37.2434 30.6625 -1.54986
526 1 38.1063 32.3084 0.130168 38.1063 32.3084 0.130168
527 2 39.9367 32.3094 1.84038 39.9367 32.3094 1.84038
528 2 40.0751 32.3075 -1.41881 40.0751 32.3075 -1.41881
529 1 40.9556 30.6617 0.252177 40.9556 30.6617 0.252177
530 2 42.8143 30.6587 1.93155 42.8143 30.6587 1.93155
531 2 42.8986 30.6648 -1.32946 42.8986 30.6648 -1.32946
532 1 43.807 32.3083 0.328612 43.807 32.3083 0.328612
533 2 45.6965 32.3047 1.97318 45.6965 32.3047 1.97318
534 2 45.7205 32.3119 -1.28884 45.7205 32.3119 -1.28884
535 1 46.6592 30.6616 0.345516 46.6592 30.6616 0.345516
536 2 48.5825 30.6541 1.95016 48.5825 30.6541 1.95016
537 2 48.5385 30.669 -1.31163 48.5385 30.669 -1.31163
538 1 49.5113 32.3082 0.313744 49.5113 32.3082 0.313744
539 2 51.4626 32.2991 1.8843 51.4626 32.2991 1.8843
540 2 51.3612 32.3172 -1.37621 51.3612 32.3172 -1.37621