ITEM: TIMESTEP
67000
ITEM: NUMBER OF ATOMS
810
ITEM: BOX BOUNDS pp pp pp
8.4707404522981478e-01 5.2170530954768182e+01
8.2255667991320391e-01 5.0193658320086087e+01
-1.0000000000000000e+01 1.0000000000000000e+01
ITEM: ATOMS id type x y z xu yu zu
1 1 1.05087 1.03722 -0.296599 1.05087 1.03722 -0.296599
2 2 2.91191 0.967128 1.3791 2.91191 0.967128 1.3791
3 2 2.99113 1.10661 -1.87916 2.99113 1.10661 -1.87916
4 1 3.90145 2.68128 -0.156186 3.90145 2.68128 -0.156186
5 2 5.75643 2.61528 1.52634 5.75643 2.61528 1.52634
6 2 5.84734 2.7468 -1.73194 5.84734 2.7468 -1.73194
7 1 6.75251 1.03543 -0.142714 6.75251 1.03543 -0.142714
8 2 8.60656 0.96373 1.54049 8.60656 0.96373 1.54049
9 2 8.69938 1.10683 -1.71722 8.69938 1.10683 -1.71722
10 1 9.60272 2.67965 0.0112385 9.60272 2.67965 0.0112385
11 2 11.4629 2.61215 1.68783 11.4629 2.61215 1.68783
12 2 11.5439 2.74719 -1.57051 11.5439 2.74719 -1.57051
13 1 12.4541 1.03409 0.0140133 12.4541 1.03409 0.0140133
14 2 14.3247 0.960818 1.67854 14.3247 0.960818 1.67854
15 2 14.3855 1.10768 -1.57973 14.3855 1.10768 -1.57973
16 1 15.3053 2.67883 0.141478 15.3053 2.67883 0.141478
17 2 17.1907 2.60918 1.78947 17.1907 2.60918 1.78947
18 2 17.2225 2.74907 -1.46947 17.2225 2.74907 -1.46947
19 1 18.1574 1.03391 0.0984862 18.1574 1.03391 0.0984862
20 2 20.0579 0.959718 1.72857 20.0579 0.959718 1.72857
21 2 20.0595 1.10888 -1.53017 20.0595 1.10888 -1.53017
22 1 21.0094 2.67919 0.175142 21.0094 2.67919 0.175142
23 2 22.926 2.60746 1.78657 22.926 2.60746 1.78657
24 2 22.8955 2.75177 -1.47219 22.8955 2.75177 -1.47219
25 1 23.8612 1.03489 0.0752188 23.8612 1.03489 0.0752188
26 2 25.7903 0.960419 1.67133 25.7903 0.960419 1.67133
27 2 25.7342 1.11017 -1.58691 25.7342 1.11017 -1.58691
28 1 26.7131 2.68046 0.101626 26.7131 2.68046 0.101626
29 2 28.6533 2.60758 1.6844 28.6533 2.60758 1.6844
30 2 28.5745 2.75407 -1.57349 28.5745 2.75407 -1.57349
31 1 29.5638 1.03648 -0.0417566 29.5638 1.03648 -0.0417566
32 2 31.5089 0.962529 1.53487 31.5089 0.962529 1.53487
33 2 31.4199 1.1109 -1.72271 31.4199 1.1109 -1.72271
34 1 32.4152 2.68205 -0.0447623 32.4152 2.68205 -0.0447623
35 2 34.3628 2.60979 1.52894 34.3628 2.60979 1.52894
36 2 34.2685 2.75467 -1.72866 34.2685 2.75467 -1.72866
37 1 35.2654 1.03797 -0.200751 35.2654 1.03797 -0.200751
38 2 37.2076 0.965545 1.37954 37.2076 0.965545 1.37954
39 2 37.1243 1.11041 -1.87836 37.1243 1.11041 -1.87836
40 1 38.1167 2.68329 -0.200313 38.1167 2.68329 -0.200313
41 2 40.0519 2.61329 1.38892 40.0519 2.61329 1.38892
42 2 39.9831 2.75321 -1.86958 39.9831 2.75321 -1.86958
43 1 40.9676 1.03878 -0.331202 40.9676 1.03878 -0.331202
44 2 42.8883 0.968235 1.27554 42.8883 0.968235 1.27554
45 2 42.8491 1.1089 -1.98338 42.8491 1.1089 -1.98338
46 1 43.8194 2.68365 -0.29404 43.8194 2.68365 -0.29404
47 2 45.7259 2.61627 1.32976 45.7259 2.61627 1.32976
48 2 45.7151 2.75053 -1.92971 45.7151 2.75053 -1.92971
49 1 46.6711 1.03852 -0.370955 46.6711 1.03852 -0.370955
50 2 48.5595 0.969027 1.27391 48.5595 0.969027 1.27391
51 2 48.5851 1.10731 -1.98526 48.5851 1.10731 -1.98526
52 1 49.5227 2.68288 -0.278059 49.5227 2.68288 -0.278059
53 2 51.3966 2.61704 1.38341 51.3966 2.61704 1.38341
54 2 51.4506 2.74804 -1.87577 51.4506 2.74804 -1.87577
55 1 1.05032 4.32722 -0.163935 1.05032 4.32722 -0.163935
56 2 2.9131 4.26865 1.51025 2.9131 4.26865 1.51025
57 2 2.98866 4.38526 -1.74904 2.98866 4.38526 -1.74904
58 1 3.90085 5.97187 -0.0380747 3.90085 5.97187 -0.0380747
59 2 5.75751 5.92363 1.64323 5.75751 5.92363 1.64323
60 2 5.84501 6.01981 -1.61641 5.84501 6.01981 -1.61641
61 1 6.75168 4.32564 -0.0095307 6.75168 4.32564 -0.0095307
62 2 8.60667 4.26696 1.67325 8.60667 4.26696 1.67325
63 2 8.69765 4.38414 -1.58554 8.69765 4.38414 -1.58554
64 1 9.60203 5.9706 0.129892 9.60203 5.9706 0.129892
65 2 11.4628 5.92161 1.80668 11.4628 5.92161 1.80668
66 2 11.5428 6.01968 -1.45297 11.5428 6.01968 -1.45297
67 1 12.4534 4.32443 0.150755 12.4534 4.32443 0.150755
68 2 14.3246 4.26364 1.8153 14.3246 4.26364 1.8153
69 2 14.3843 4.38556 -1.44395 14.3843 4.38556 -1.44395
70 1 15.3048 5.96991 0.264907 15.3048 5.96991 0.264907
71 2 17.1901 5.91751 1.91392 17.1901 5.91751 1.91392
72 2 17.2225 6.02279 -1.34624 17.2225 6.02279 -1.34624
73 1 18.1571 4.32416 0.240135 18.1571 4.32416 0.240135
74 2 20.0585 4.26004 1.87001 20.0585 4.26004 1.87001
75 2 20.0588 4.389 -1.38948 20.0588 4.389 -1.38948
76 1 21.0094 5.97005 0.305696 21.0094 5.97005 0.305696
77 2 22.926 5.91311 1.91798 22.926 5.91311 1.91798
78 2 22.8959 6.02769 -1.34187 22.8959 6.02769 -1.34187
79 1 23.8616 4.32488 0.221365 23.8616 4.32488 0.221365
80 2 25.7921 4.25769 1.81648 25.7921 4.25769 1.81648
81 2 25.7336 4.39288 -1.44226 25.7336 4.39288 -1.44226
82 1 26.7138 5.97093 0.238544 26.7138 5.97093 0.238544
83 2 28.655 5.91068 1.82087 28.655 5.91068 1.82087
84 2 28.5744 6.03187 -1.43795 28.5744 6.03187 -1.43795
85 1 29.5648 4.32623 0.10666 29.5648 4.32623 0.10666
86 2 31.5121 4.25787 1.68099 31.5121 4.25787 1.68099
87 2 31.4186 4.39522 -1.57691 31.4186 4.39522 -1.57691
88 1 32.4162 5.9722 0.0944146 32.4162 5.9722 0.0944146
89 2 34.3662 5.91163 1.66574 34.3662 5.91163 1.66574
90 2 34.267 6.03327 -1.59265 34.267 6.03327 -1.59265
91 1 35.2664 4.32765 -0.0539278 35.2664 4.32765 -0.0539278
92 2 37.2118 4.26074 1.52285 37.2118 4.26074 1.52285
93 2 37.122 4.39482 -1.73537 37.122 4.39482 -1.73537
94 1 38.1176 5.97332 -0.064404 38.1176 5.97332 -0.064404
95 2 40.0562 5.91532 1.52112 40.0562 5.91532 1.52112
96 2 39.9801 6.03145 -1.7382 39.9801 6.03145 -1.7382
97 1 40.9682 4.32851 -0.189411 40.9682 4.32851 -0.189411
98 2 42.8922 4.26476 1.41356 42.8922 4.26476 1.41356
99 2 42.8459 4.39209 -1.8459 42.8459 4.39209 -1.8459
100 1 43.8197 5.97371 -0.165006 43.8197 5.97371 -0.165006
101 2 45.7297 5.9197 1.45501 45.7297 5.9197 1.45501
102 2 45.7115 6.02746 -1.8055 45.7115 6.02746 -1.8055
103 1 46.6711 4.32837 -0.234951 46.6711 4.32837 -0.234951
104 2 48.5622 4.26787 1.407 48.5622 4.26787 1.407
105 2 48.5819 4.38835 -1.85301 48.5819 4.38835 -1.85301
106 1 49.5225 5.97313 -0.156007 49.5225 5.97313 -0.156007
107 2 51.3992 5.92287 1.50272 51.3992 5.92287 1.50272
108 2 51.4472 6.02293 -1.75772 51.4472 6.02293 -1.75772
109 1 1.04999 7.61816 -0.0625455 1.04999 7.61816 -0.0625455
110 2 2.91551 7.58091 1.60917 2.91551 7.58091 1.60917
111 2 2.98549 7.65508 -1.65154 2.98549 7.65508 -1.65154
112 1 3.9006 9.26365 0.0370958 3.9006 9.26365 0.0370958
113 2 5.75951 9.24125 1.71645 5.75951 9.24125 1.71645
114 2 5.84251 9.28588 -1.54444 5.84251 9.28588 -1.54444
115 1 6.75119 7.61709 0.0878857 6.75119 7.61709 0.0878857
116 2 8.60736 7.58132 1.77006 8.60736 7.58132 1.77006
117 2 8.696 7.65278 -1.49011 8.696 7.65278 -1.49011
118 1 9.60173 9.26298 0.202255 9.60173 9.26298 0.202255
119 2 11.4626 9.24068 1.87951 11.4626 9.24068 1.87951
120 2 11.5424 9.28535 -1.3813 11.5424 9.28535 -1.3813
121 1 12.4529 7.61629 0.25003 12.4529 7.61629 0.25003
122 2 14.3238 7.57836 1.91583 14.3238 7.57836 1.91583
123 2 14.3844 7.65446 -1.34475 14.3844 7.65446 -1.34475
124 1 15.3045 9.26263 0.341879 15.3045 9.26263 0.341879
125 2 17.1882 9.23632 1.99347 17.1882 9.23632 1.99347
126 2 17.2239 9.28921 -1.26787 17.2239 9.28921 -1.26787
127 1 18.1569 7.61604 0.346678 18.1569 7.61604 0.346678
128 2 20.0571 7.57316 1.97875 20.0571 7.57316 1.97875
129 2 20.06 7.65939 -1.28207 20.06 7.65939 -1.28207
130 1 21.0094 9.26265 0.392905 21.0094 9.26265 0.392905
131 2 22.9241 9.2303 2.00829 22.9241 9.2303 2.00829
132 2 22.8981 9.2954 -1.2529 22.8981 9.2954 -1.2529
133 1 23.8619 7.6164 0.337343 23.8619 7.6164 0.337343
134 2 25.7919 7.5684 1.93401 25.7919 7.5684 1.93401
135 2 25.7347 7.66499 -1.32606 25.7347 7.66499 -1.32606
136 1 26.7142 9.26308 0.336315 26.7142 9.26308 0.336315
137 2 28.6549 9.226 1.92024 28.6549 9.226 1.92024
138 2 28.5757 9.30064 -1.33996 28.5757 9.30064 -1.33996
139 1 29.5656 7.61728 0.229413 29.5656 7.61728 0.229413
140 2 31.514 7.56669 1.80324 31.514 7.56669 1.80324
141 2 31.4185 7.66843 -1.45586 31.4185 7.66843 -1.45586
142 1 32.417 9.26384 0.197497 32.417 9.26384 0.197497
143 2 34.3686 9.22558 1.76781 34.3686 9.22558 1.76781
144 2 34.2664 9.30252 -1.49184 34.2664 9.30252 -1.49184
145 1 35.2673 7.61834 0.0693573 35.2673 7.61834 0.0693573
146 2 37.2155 7.56876 1.64341 37.2155 7.56876 1.64341
147 2 37.1199 7.66827 -1.6159 37.1199 7.66827 -1.6159
148 1 38.1183 9.26458 0.0364896 38.1183 9.26458 0.0364896
149 2 40.06 9.22872 1.61886 40.06 9.22872 1.61886
150 2 39.9775 9.30061 -1.6416 39.9775 9.30061 -1.6416
151 1 40.9688 7.61905 -0.0716819 40.9688 7.61905 -0.0716819
152 2 42.8965 7.57312 1.52741 42.8965 7.57312 1.52741
153 2 42.8424 7.66497 -1.73318 42.8424 7.66497 -1.73318
154 1 43.82 9.26483 -0.0718715 43.82 9.26483 -0.0718715
155 2 45.7339 9.23352 1.54417 45.7339 9.23352 1.54417
156 2 45.7077 9.29599 -1.71752 45.7077 9.29599 -1.71752
157 1 46.6711 7.61898 -0.125735 46.6711 7.61898 -0.125735
158 2 48.5659 7.57771 1.51251 48.5659 7.57771 1.51251
159 2 48.5781 7.65993 -1.7488 48.5781 7.65993 -1.7488
160 1 49.5224 9.26442 -0.0726466 49.5224 9.26442 -0.0726466
161 2 51.4028 9.23828 1.58251 51.4028 9.23828 1.58251
162 2 51.4434 9.29027 -1.67919 51.4434 9.29027 -1.67919
163 1 1.04995 10.9102 -0.00978684 1.04995 10.9102 -0.00978684
164 2 2.91868 10.9006 1.65869 2.91868 10.9006 1.65869
165 2 2.98225 10.9195 -1.60297 2.98225 10.9195 -1.60297
166 1 3.90074 12.5562 0.056336 3.90074 12.5562 0.056336
167 2 5.762 12.5635 1.73321 5.762 12.5635 1.73321
168 2 5.84037 12.5488 -1.52808 5.84037 12.5488 -1.52808
169 1 6.75113 10.9097 0.133128 6.75113 10.9097 0.133128
170 2 8.60854 10.9028 1.81433 8.60854 10.9028 1.81433
171 2 8.69473 10.9166 -1.44667 8.69473 10.9166 -1.44667
172 1 9.60189 12.5562 0.21624 9.60189 12.5562 0.21624
173 2 11.4625 12.5641 1.89395 11.4625 12.5641 1.89395
174 2 11.5428 12.5482 -1.36711 11.5428 12.5482 -1.36711
175 1 12.4528 10.9095 0.295198 12.4528 10.9095 0.295198
176 2 14.3224 10.9006 1.9629 14.3224 10.9006 1.9629
177 2 14.3855 10.9184 -1.29846 14.3855 10.9184 -1.29846
178 1 15.3045 12.5563 0.359808 15.3045 12.5563 0.359808
179 2 17.1855 12.5602 2.01475 17.1855 12.5602 2.01475
180 2 17.2266 12.5525 -1.24694 17.2266 12.5525 -1.24694
181 1 18.1567 10.9094 0.400096 18.1567 10.9094 0.400096
182 2 20.0543 10.8949 2.03592 20.0543 10.8949 2.03592
183 2 20.0627 10.9242 -1.22586 20.0627 10.9242 -1.22586
184 1 21.0094 12.5565 0.422381 21.0094 12.5565 0.422381
185 2 22.9208 12.5539 2.04212 22.9208 12.5539 2.04212
186 2 22.9015 12.5592 -1.21974 22.9015 12.5592 -1.21974
187 1 23.862 10.9096 0.403145 23.862 10.9096 0.403145
188 2 25.7898 10.8889 2.00316 25.7898 10.8889 2.00316
189 2 25.7373 10.9306 -1.2581 25.7373 10.9306 -1.2581
190 1 26.7144 12.5566 0.378464 26.7144 12.5566 0.378464
191 2 28.6531 12.5487 1.96527 28.6531 12.5487 1.96527
192 2 28.5781 12.5647 -1.29582 28.5781 12.5647 -1.29582
193 1 29.5662 10.91 0.304973 29.5662 10.91 0.304973
194 2 31.5144 10.8858 1.87982 31.5144 10.8858 1.87982
195 2 31.4194 10.9345 -1.3805 31.4194 10.9345 -1.3805
196 1 32.4175 12.5568 0.246804 32.4175 12.5568 0.246804
197 2 34.3694 12.5473 1.81718 34.3694 12.5473 1.81718
198 2 34.2666 12.5666 -1.44328 34.2666 12.5666 -1.44328
199 1 35.2681 10.9105 0.147343 35.2681 10.9105 0.147343
200 2 37.2182 10.8868 1.71965 37.2182 10.8868 1.71965
201 2 37.1186 10.9344 -1.54071 37.1186 10.9344 -1.54071
202 1 38.1188 12.557 0.0847838 38.1188 12.557 0.0847838
203 2 40.0628 12.5495 1.66472 40.0628 12.5495 1.66472
204 2 39.9755 12.5646 -1.59638 39.9755 12.5646 -1.59638
205 1 40.9693 10.9108 0.00123709 40.9693 10.9108 0.00123709
206 2 42.9003 10.8907 1.59682 42.9003 10.8907 1.59682
207 2 42.8393 10.9309 -1.66472 42.8393 10.9309 -1.66472
208 1 43.8203 12.5569 -0.0310941 43.8203 12.5569 -0.0310941
209 2 45.7376 12.5539 1.58118 45.7376 12.5539 1.58118
210 2 45.7044 12.5598 -1.68105 45.7044 12.5598 -1.68105
211 1 46.6713 10.9107 -0.0623474 46.6713 10.9107 -0.0623474
212 2 48.5699 10.8958 1.57188 48.5699 10.8958 1.57188
213 2 48.5742 10.9252 -1.69039 48.5742 10.9252 -1.69039
214 1 49.5225 12.5566 -0.0427211 49.5225 12.5566 -0.0427211
215 2 51.4065 12.5592 1.60849 51.4065 12.5592 1.60849
216 2 51.4399 12.5536 -1.65372 51.4399 12.5536 -1.65372
217 1 1.0502 14.2026 -0.0152964 1.0502 14.2026 -0.0152964
218 2 2.92194 14.2225 1.64969 2.92194 14.2225 1.64969
219 2 2.97959 14.1823 -1.61189 2.97959 14.1823 -1.61189
220 1 3.90123 15.8486 0.0156952 3.90123 15.8486 0.0156952
221 2 5.76434 15.8845 1.69011 5.76434 15.8845 1.69011
222 2 5.83911 15.8125 -1.5705 5.83911 15.8125 -1.5705
223 1 6.75152 14.2026 0.118318 6.75152 14.2026 0.118318
224 2 8.60984 14.2256 1.79834 8.60984 14.2256 1.79834
225 2 8.6942 14.1794 -1.46242 8.6942 14.1794 -1.46242
226 1 9.60249 15.849 0.169438 9.60249 15.849 0.169438
227 2 11.4622 15.8858 1.84769 11.4622 15.8858 1.84769
228 2 11.5441 15.8122 -1.41257 11.5441 15.8122 -1.41257
229 1 12.4531 14.2029 0.279002 12.4531 14.2029 0.279002
230 2 14.3207 14.2244 1.94882 14.3207 14.2244 1.94882
231 2 14.3877 14.1815 -1.31224 14.3877 14.1815 -1.31224
232 1 15.3049 15.8497 0.31628 15.3049 15.8497 0.31628
233 2 17.1824 15.8829 1.97478 17.1824 15.8829 1.97478
234 2 17.2301 15.8166 -1.28619 17.2301 15.8166 -1.28619
235 1 18.1568 14.2033 0.392078 18.1568 14.2033 0.392078
236 2 20.0506 14.2192 2.03229 20.0506 14.2192 2.03229
237 2 20.0664 14.1875 -1.22945 20.0664 14.1875 -1.22945
238 1 21.0094 15.8502 0.3901 21.0094 15.8502 0.3901
239 2 22.9165 15.8774 2.01452 22.9165 15.8774 2.01452
240 2 22.9057 15.8231 -1.24695 22.9057 15.8231 -1.24695
241 1 23.862 14.2035 0.408363 23.862 14.2035 0.408363
242 2 25.7864 14.2131 2.01257 25.7864 14.2131 2.01257
243 2 25.7408 14.1939 -1.249 25.7408 14.1939 -1.249
244 1 26.7144 15.8504 0.35887 26.7144 15.8504 0.35887
245 2 28.6502 15.8725 1.94905 28.6502 15.8725 1.94905
246 2 28.5811 15.8282 -1.31191 28.5811 15.8282 -1.31191
247 1 29.5663 14.2036 0.321065 29.5663 14.2036 0.321065
248 2 31.5132 14.2095 1.89782 31.5132 14.2095 1.89782
249 2 31.4212 14.1977 -1.36292 31.4212 14.1977 -1.36292
250 1 32.4176 15.8502 0.234785 32.4176 15.8502 0.234785
251 2 34.3688 15.8705 1.80591 34.3688 15.8705 1.80591
252 2 34.2674 15.8298 -1.4544 34.2674 15.8298 -1.4544
253 1 35.2684 14.2035 0.16698 35.2684 14.2035 0.16698
254 2 37.2194 14.2096 1.73835 37.2194 14.2096 1.73835
255 2 37.118 14.1975 -1.52227 37.118 14.1975 -1.52227
256 1 38.119 15.8498 0.0725854 38.119 15.8498 0.0725854
257 2 40.0643 15.8717 1.6508 40.0643 15.8717 1.6508
258 2 39.9744 15.8277 -1.60996 39.9744 15.8277 -1.60996
259 1 40.9695 14.2033 0.0166593 40.9695 14.2033 0.0166593
260 2 42.9031 14.2126 1.60931 42.9031 14.2126 1.60931
261 2 42.837 14.1938 -1.65233 42.837 14.1938 -1.65233
262 1 43.8205 15.8492 -0.0499664 43.8205 15.8492 -0.0499664
263 2 45.7403 15.8752 1.55909 45.7403 15.8752 1.55909
264 2 45.7021 15.8229 -1.70265 45.7021 15.8229 -1.70265
265 1 46.6715 14.2029 -0.0562686 46.6715 14.2029 -0.0562686
266 2 48.5734 14.2173 1.57407 48.5734 14.2173 1.57407
267 2 48.5711 14.1881 -1.6882 48.5711 14.1881 -1.6882
268 1 49.5228 15.8487 -0.0721607 49.5228 15.8487 -0.0721607
269 2 51.4097 15.88 1.57533 51.4097 15.88 1.57533
270 2 51.4373 15.817 -1.68632 51.4373 15.817 -1.68632
271 1 1.05065 17.4944 -0.0790059 1.05065 17.4944 -0.0790059
272 2 2.9246 17.5408 1.58295 2.9246 17.5408 1.58295
273 2 2.97803 17.4476 -1.67759 2.97803 17.4476 -1.67759
274 1 3.90196 19.1399 -0.0786595 3.90196 19.1399 -0.0786595
275 2 5.766 19.1986 1.59405 5.766 19.1986 1.59405
276 2 5.83905 19.081 -1.66526 5.83905 19.081 -1.66526
277 1 6.75227 17.4947 0.0454361 6.75227 17.4947 0.0454361
278 2 8.61082 17.544 1.72459 8.61082 17.544 1.72459
279 2 8.69471 17.4453 -1.53503 8.69471 17.4453 -1.53503
280 1 9.6034 19.1407 0.069497 9.6034 19.1407 0.069497
281 2 11.4616 19.2002 1.74866 11.4616 19.2002 1.74866
282 2 11.5464 19.0812 -1.51021 11.5464 19.0812 -1.51021
283 1 12.4538 17.4955 0.204375 12.4538 17.4955 0.204375
284 2 14.3188 17.5435 1.87643 14.3188 17.5435 1.87643
285 2 14.3907 17.4476 -1.38343 14.3907 17.4476 -1.38343
286 1 15.3055 19.1418 0.219006 15.3055 19.1418 0.219006
287 2 17.1792 19.1986 1.88098 17.1792 19.1986 1.88098
288 2 17.2342 19.0853 -1.37864 17.2342 19.0853 -1.37864
289 1 18.1571 17.4964 0.324775 18.1571 17.4964 0.324775
290 2 20.0465 17.5397 1.96936 20.0465 17.5397 1.96936
291 2 20.0708 17.4532 -1.29139 20.0708 17.4532 -1.29139
292 1 21.0095 19.1428 0.302361 21.0095 19.1428 0.302361
293 2 22.9122 19.1949 1.9312 22.9122 19.1949 1.9312
294 2 22.91 19.0909 -1.32915 22.91 19.0909 -1.32915
295 1 23.8619 17.4969 0.353228 23.8619 17.4969 0.353228
296 2 25.7823 17.5348 1.96168 25.7823 17.5348 1.96168
297 2 25.7447 17.459 -1.2992 25.7447 17.459 -1.2992
298 1 26.7142 19.1432 0.281946 26.7142 19.1432 0.281946
299 2 28.6466 19.1913 1.87545 28.6466 19.1913 1.87545
300 2 28.5842 19.095 -1.38457 28.5842 19.095 -1.38457
301 1 29.5662 17.4969 0.276111 29.5662 17.4969 0.276111
302 2 31.5108 17.5315 1.85511 31.5108 17.5315 1.85511
303 2 31.4233 17.4622 -1.40505 31.4233 17.4622 -1.40505
304 1 32.4174 19.1428 0.164516 32.4174 19.1428 0.164516
305 2 34.367 19.1892 1.73684 34.367 19.1892 1.73684
306 2 34.2687 19.0961 -1.5225 34.2687 19.0961 -1.5225
307 1 35.2684 17.4964 0.125772 35.2684 17.4964 0.125772
308 2 37.2192 17.5308 1.69689 37.2192 17.5308 1.69689
309 2 37.1181 17.4617 -1.56303 37.1181 17.4617 -1.56303
310 1 38.1188 19.1419 0.00265552 38.1188 19.1419 0.00265552
311 2 40.0643 19.1892 1.58003 40.0643 19.1892 1.58003
312 2 39.974 19.0941 -1.67961 39.974 19.0941 -1.67961
313 1 40.9696 17.4956 -0.0277998 40.9696 17.4956 -0.0277998
314 2 42.9046 17.5325 1.56269 42.9046 17.5325 1.56269
315 2 42.8356 17.4582 -1.69807 42.8356 17.4582 -1.69807
316 1 43.8204 19.1408 -0.12519 43.8204 19.1408 -0.12519
317 2 45.7417 19.1912 1.48162 45.7417 19.1912 1.48162
318 2 45.7008 19.0898 -1.77889 45.7008 19.0898 -1.77889
319 1 46.6716 17.4948 -0.109035 46.6716 17.4948 -0.109035
320 2 48.576 17.5362 1.51807 48.576 17.5362 1.51807
321 2 48.569 17.4528 -1.74322 48.569 17.4528 -1.74322
322 1 49.5231 19.14 -0.15652 49.5231 19.14 -0.15652
323 2 51.4119 19.1949 1.48817 51.4119 19.1949 1.48817
324 2 51.436 19.0846 -1.7722 51.436 19.0846 -1.7722
325 1 1.05119 20.785 -0.190563 1.05119 20.785 -0.190563
326 2 2.92619 20.8502 1.4696 2.92619 20.8502 1.4696
327 2 2.9778 20.7195 -1.78964 2.9778 20.7195 -1.78964
328 1 3.90277 22.43 -0.21093 3.90277 22.43 -0.21093
329 2 5.76668 22.5015 1.46142 5.76668 22.5015 1.46142
330 2 5.84019 22.3583 -1.79681 5.84019 22.3583 -1.79681
331 1 6.75323 20.7854 -0.0736332 6.75323 20.7854 -0.0736332
332 2 8.61119 20.8527 1.60549 8.61119 20.8527 1.60549
333 2 8.69628 20.7181 -1.65281 8.69628 20.7181 -1.65281
334 1 9.60448 22.4309 -0.0668854 9.60448 22.4309 -0.0668854
335 2 11.4608 22.5031 1.61378 11.4608 22.5031 1.61378
336 2 11.5492 22.3589 -1.64399 11.5492 22.3589 -1.64399
337 1 12.4547 20.7866 0.0838524 12.4547 20.7866 0.0838524
338 2 14.3169 20.8531 1.7583 14.3169 20.8531 1.7583
339 2 14.3941 20.7203 -1.50019 14.3941 20.7203 -1.50019
340 1 15.3063 22.4324 0.0843986 15.3063 22.4324 0.0843986
341 2 17.1765 22.5032 1.74958 17.1765 22.5032 1.74958
342 2 17.2381 22.362 -1.5089 17.2381 22.362 -1.5089
343 1 18.1575 20.7879 0.209933 18.1575 20.7879 0.209933
344 2 20.0427 20.8513 1.85849 20.0427 20.8513 1.85849
345 2 20.075 20.7249 -1.40096 20.075 20.7249 -1.40096
346 1 21.0097 22.4337 0.174225 21.0097 22.4337 0.174225
347 2 22.9085 22.5021 1.80681 22.9085 22.5021 1.80681
348 2 22.9138 22.3659 -1.45243 22.9138 22.3659 -1.45243
349 1 23.8619 20.7888 0.247782 23.8619 20.7888 0.247782
350 2 25.7783 20.8485 1.86006 25.7783 20.8485 1.86006
351 2 25.7483 20.7293 -1.39968 25.7483 20.7293 -1.39968
352 1 26.7139 22.4344 0.161141 26.7139 22.4344 0.161141
353 2 28.6431 22.5003 1.75765 28.6431 22.5003 1.75765
354 2 28.5869 22.3685 -1.50131 28.5869 22.3685 -1.50131
355 1 29.5659 20.7889 0.17859 29.5659 20.7889 0.17859
356 2 31.5079 20.8461 1.75994 31.5079 20.8461 1.75994
357 2 31.4255 20.7315 -1.49911 31.4255 20.7315 -1.49911
358 1 32.4168 22.434 0.048416 32.4168 22.434 0.048416
359 2 34.3644 22.4986 1.62244 34.3644 22.4986 1.62244
360 2 34.2702 22.3691 -1.63579 34.2702 22.3691 -1.63579
361 1 35.2679 20.7881 0.0314836 35.2679 20.7881 0.0314836
362 2 37.2178 20.8448 1.60314 37.2178 20.8448 1.60314
363 2 37.1188 20.731 -1.65558 37.1188 20.731 -1.65558
364 1 38.1182 22.4327 -0.112606 38.1182 22.4327 -0.112606
365 2 40.0629 22.4973 1.46516 40.0629 22.4973 1.46516
366 2 39.9745 22.3676 -1.79329 39.9745 22.3676 -1.79329
367 1 40.9693 20.7868 -0.124074 40.9693 20.7868 -0.124074
368 2 42.9046 20.8449 1.46543 42.9046 20.8449 1.46543
369 2 42.8352 20.728 -1.79402 42.8352 20.728 -1.79402
370 1 43.8202 22.4312 -0.243558 43.8202 22.4312 -0.243558
371 2 45.7416 22.4973 1.36252 45.7416 22.4973 1.36252
372 2 45.7007 22.3644 -1.89678 45.7007 22.3644 -1.89678
373 1 46.6717 20.7856 -0.211659 46.6717 20.7856 -0.211659
374 2 48.5772 20.847 1.41348 48.5772 20.847 1.41348
375 2 48.5682 20.7236 -1.84648 48.5682 20.7236 -1.84648
376 1 49.5233 22.4302 -0.281367 49.5233 22.4302 -0.281367
377 2 51.4128 22.4991 1.36212 51.4128 22.4991 1.36212
378 2 51.4359 22.3607 -1.89711 51.4359 22.3607 -1.89711
379 1 1.05171 24.0748 -0.330704 1.05171 24.0748 -0.330704
380 2 2.9265 24.1473 1.32943 2.9265 24.1473 1.32943
381 2 2.97885 24.002 -1.92911 2.97885 24.002 -1.92911
382 1 3.90353 25.7197 -0.358085 3.90353 25.7197 -0.358085
383 2 5.76635 25.7915 1.31546 5.76635 25.7915 1.31546
384 2 5.84223 25.6477 -1.94265 5.84223 25.6477 -1.94265
385 1 6.75423 24.0751 -0.218652 6.75423 24.0751 -0.218652
386 2 8.61093 24.149 1.46155 8.61093 24.149 1.46155
387 2 8.69858 24.0014 -1.79611 8.69858 24.0014 -1.79611
388 1 9.60551 25.7205 -0.216446 9.60551 25.7205 -0.216446
389 2 11.4599 25.7932 1.46619 11.4599 25.7932 1.46619
390 2 11.552 25.6481 -1.79146 11.552 25.6481 -1.79146
391 1 12.4558 24.0764 -0.0623134 12.4558 24.0764 -0.0623134
392 2 14.3153 24.1504 1.61459 14.3153 24.1504 1.61459
393 2 14.3975 24.0029 -1.64321 14.3975 24.0029 -1.64321
394 1 15.3071 25.722 -0.0650117 15.3071 25.722 -0.0650117
395 2 17.1747 25.7952 1.60279 17.1747 25.7952 1.60279
396 2 17.2411 25.6495 -1.65547 17.2411 25.6495 -1.65547
397 1 18.1581 24.078 0.0668058 18.1581 24.078 0.0668058
398 2 20.0399 24.151 1.71862 20.0399 24.151 1.71862
399 2 20.0786 24.0056 -1.54006 20.0786 24.0056 -1.54006
400 1 21.0099 25.7236 0.0269486 21.0099 25.7236 0.0269486
401 2 22.9058 25.7969 1.66232 22.9058 25.7969 1.66232
402 2 22.9164 25.6509 -1.59659 22.9164 25.6509 -1.59659
403 1 23.8618 24.0792 0.10979 23.8618 24.0792 0.10979
404 2 25.7749 24.1508 1.7252 25.7749 24.1508 1.7252
405 2 25.7512 24.008 -1.53373 25.7512 24.008 -1.53373
406 1 26.7135 25.7244 0.0165003 26.7135 25.7244 0.0165003
407 2 28.6401 25.7973 1.6156 28.6401 25.7973 1.6156
408 2 28.5889 25.6517 -1.64294 28.5889 25.6517 -1.64294
409 1 29.5653 24.0794 0.045063 29.5653 24.0794 0.045063
410 2 31.5047 24.1497 1.62883 31.5047 24.1497 1.62883
411 2 31.4274 24.0091 -1.62938 31.4274 24.0091 -1.62938
412 1 32.416 25.7239 -0.0940846 32.416 25.7239 -0.0940846
413 2 34.3613 25.796 1.4823 34.3613 25.796 1.4823
414 2 34.2717 25.6517 -1.77546 34.2717 25.6517 -1.77546
415 1 35.2672 24.0785 -0.0997008 35.2672 24.0785 -0.0997008
416 2 37.2152 24.1478 1.47357 37.2152 24.1478 1.47357
417 2 37.12 24.0086 -1.78426 37.12 24.0086 -1.78426
418 1 38.1174 25.7226 -0.253597 38.1174 25.7226 -0.253597
419 2 40.0602 25.7934 1.32618 40.0602 25.7934 1.32618
420 2 39.9759 25.6512 -1.93181 39.9759 25.6512 -1.93181
421 1 40.9687 24.0769 -0.255423 40.9687 24.0769 -0.255423
422 2 42.9031 24.1462 1.33478 42.9031 24.1462 1.33478
423 2 42.8359 24.007 -1.92378 42.8359 24.007 -1.92378
424 1 43.8197 25.721 -0.384537 43.8197 25.721 -0.384537
425 2 45.7399 25.7913 1.22284 45.7399 25.7913 1.22284
426 2 45.7018 25.6501 -2.03605 45.7018 25.6501 -2.03605
427 1 46.6716 24.0755 -0.346225 46.6716 24.0755 -0.346225
428 2 48.5769 24.146 1.27881 48.5769 24.146 1.27881
429 2 48.5687 24.0043 -1.98031 48.5687 24.0043 -1.98031
430 1 49.5235 25.7199 -0.4248 49.5235 25.7199 -0.4248
431 2 51.4122 25.7907 1.21952 51.4122 25.7907 1.21952
432 2 51.4372 25.6486 -2.03945 51.4372 25.6486 -2.03945
433 1 1.05215 27.3646 -0.474605 1.05215 27.3646 -0.474605
434 2 2.92556 27.4316 1.18735 2.92556 27.4316 1.18735
435 2 2.98096 27.2975 -2.07155 2.98096 27.2975 -2.07155
436 1 3.90412 29.01 -0.493889 3.90412 29.01 -0.493889
437 2 5.76527 29.0694 1.18201 5.76527 29.0694 1.18201
438 2 5.84466 28.9506 -2.07698 5.84466 28.9506 -2.07698
439 1 6.75509 27.3649 -0.364274 6.75509 27.3649 -0.364274
440 2 8.61024 27.4325 1.31785 8.61024 27.4325 1.31785
441 2 8.70104 27.2976 -1.94026 8.70104 27.2976 -1.94026
442 1 9.60632 29.0107 -0.353105 9.60632 29.0107 -0.353105
443 2 11.4594 29.0712 1.3314 11.4594 29.0712 1.3314
444 2 11.5541 28.9505 -1.92719 11.5541 28.9505 -1.92719
445 1 12.4567 27.3661 -0.20926 12.4567 27.3661 -0.20926
446 2 14.3144 27.435 1.46973 14.3144 27.435 1.46973
447 2 14.4 27.2978 -1.78847 14.4 27.2978 -1.78847
448 1 15.3078 29.012 -0.203924 15.3078 29.012 -0.203924
449 2 17.1742 29.0751 1.46538 17.1742 29.0751 1.46538
450 2 17.2426 28.9495 -1.79375 17.2426 28.9495 -1.79375
451 1 18.1586 27.3677 -0.080791 18.1586 27.3677 -0.080791
452 2 20.0383 27.4381 1.57318 20.0383 27.4381 1.57318
453 2 20.0807 27.298 -1.68577 20.0807 27.298 -1.68577
454 1 21.0101 29.0133 -0.114989 21.0101 29.0133 -0.114989
455 2 22.9047 29.0793 1.52185 22.9047 29.0793 1.52185
456 2 22.9174 28.9481 -1.73777 22.9174 28.9481 -1.73777
457 1 23.8616 27.3689 -0.0379881 23.8616 27.3689 -0.0379881
458 2 25.7726 27.4406 1.57964 25.7726 27.4406 1.57964
459 2 25.7528 27.2978 -1.67941 25.7528 27.2978 -1.67941
460 1 26.713 29.0141 -0.128027 26.713 29.0141 -0.128027
461 2 28.6379 29.0817 1.47304 28.6379 29.0817 1.47304
462 2 28.5898 28.9468 -1.78607 28.5898 28.9468 -1.78607
463 1 29.5646 27.3691 -0.102383 29.5646 27.3691 -0.102383
464 2 31.5017 27.4408 1.48385 31.5017 27.4408 1.48385
465 2 31.4288 27.2976 -1.77439 31.4288 27.2976 -1.77439
466 1 32.4151 29.0137 -0.239204 32.4151 29.0137 -0.239204
467 2 34.358 29.081 1.3401 34.358 29.081 1.3401
468 2 34.2731 28.9464 -1.91822 34.2731 28.9464 -1.91822
469 1 35.2663 27.3682 -0.245805 35.2663 27.3682 -0.245805
470 2 37.2119 27.4385 1.3303 37.2119 27.4385 1.3303
471 2 37.1216 27.2975 -1.92758 37.1216 27.2975 -1.92758
472 1 38.1165 29.0125 -0.396474 38.1165 29.0125 -0.396474
473 2 40.0565 29.0774 1.1869 40.0565 29.0774 1.1869
474 2 39.9781 28.9472 -2.0717 39.9781 28.9472 -2.0717
475 1 40.968 27.3666 -0.399418 40.968 27.3666 -0.399418
476 2 42.9002 27.4351 1.19345 42.9002 27.4351 1.19345
477 2 42.8377 27.2977 -2.06519 42.8377 27.2977 -2.06519
478 1 43.8193 29.0111 -0.523765 43.8193 29.0111 -0.523765
479 2 45.7369 29.0732 1.08703 45.7369 29.0732 1.08703
480 2 45.7043 28.9486 -2.17251 45.7043 28.9486 -2.17251
481 1 46.6714 27.3653 -0.489196 46.6714 27.3653 -0.489196
482 2 48.5751 27.4325 1.13794 48.5751 27.4325 1.13794
483 2 48.5705 27.2977 -2.12138 48.5705 27.2977 -2.12138
484 1 49.5236 29.0102 -0.561395 49.5236 29.0102 -0.561395
485 2 51.4103 29.0702 1.08579 51.4103 29.0702 1.08579
486 2 51.4398 28.9499 -2.17393 51.4398 28.9499 -2.17393
487 1 1.05246 30.6557 -0.596499 1.05246 30.6557 -0.596499
488 2 2.92361 30.7051 1.06865 2.92361 30.7051 1.06865
489 2 2.98375 30.6063 -2.19136 2.98375 30.6063 -2.19136
490 1 3.90448 32.3019 -0.593989 3.90448 32.3019 -0.593989
491 2 5.76373 32.3382 1.08466 5.76373 32.3382 1.08466
492 2 5.84698 32.2656 -2.17555 5.84698 32.2656 -2.17555
493 1 6.75569 30.6559 -0.484571 6.75569 30.6559 -0.484571
494 2 8.60947 30.7052 1.19964 8.60947 30.7052 1.19964
495 2 8.70302 30.6069 -2.05969 8.70302 30.6069 -2.05969
496 1 9.60676 32.3023 -0.452661 9.60676 32.3023 -0.452661
497 2 11.4594 32.3399 1.23285 11.4594 32.3399 1.23285
498 2 11.5549 32.2649 -2.0271 11.5549 32.2649 -2.0271
499 1 12.4573 30.6568 -0.331495 12.4573 30.6568 -0.331495
500 2 14.3144 30.7086 1.34855 14.3144 30.7086 1.34855
501 2 14.401 30.6054 -1.91093 14.401 30.6054 -1.91093
502 1 15.3081 32.3031 -0.308301 15.3081 32.3031 -0.308301
503 2 17.1751 32.3451 1.36078 17.1751 32.3451 1.36078
504 2 17.2422 32.2615 -1.89978 17.2422 32.2615 -1.89978
505 1 18.1589 30.6579 -0.207897 18.1589 30.6579 -0.207897
506 2 20.0384 30.7139 1.44664 20.0384 30.7139 1.44664
507 2 20.081 30.6027 -1.81351 20.081 30.6027 -1.81351
508 1 21.0101 32.304 -0.227447 21.0101 32.304 -0.227447
509 2 22.9053 32.3513 1.4091 22.9053 32.3513 1.4091
510 2 22.9165 32.2573 -1.85188 22.9165 32.2573 -1.85188
511 1 23.8614 30.6589 -0.170837 23.8614 30.6589 -0.170837
512 2 25.7718 30.7185 1.44776 25.7718 30.7185 1.44776
513 2 25.7529 30.6 -1.81235 25.7529 30.6 -1.81235
514 1 26.7124 32.3046 -0.247969 26.7124 32.3046 -0.247969
515 2 28.6369 32.3553 1.35404 28.6369 32.3553 1.35404
516 2 28.5894 32.2542 -1.90636 28.5894 32.2542 -1.90636
517 1 29.5638 30.6591 -0.239041 29.5638 30.6591 -0.239041
518 2 31.4993 30.72 1.34943 31.4993 30.72 1.34943
519 2 31.4295 30.5985 -1.9098 31.4295 30.5985 -1.9098
520 1 32.4141 32.3043 -0.362268 32.4141 32.3043 -0.362268
521 2 34.3551 32.3552 1.21995 34.3551 32.3552 1.21995
522 2 34.2742 32.2535 -2.03966 34.2742 32.2535 -2.03966
523 1 35.2653 30.6584 -0.38213 35.2653 30.6584 -0.38213
524 2 37.2082 30.7176 1.19768 37.2082 30.7176 1.19768
525 2 37.1236 30.599 -2.06122 37.1236 30.599 -2.06122
526 1 38.1157 32.3034 -0.516756 38.1157 32.3034 -0.516756
527 2 40.0525 32.3512 1.07113 40.0525 32.3512 1.07113
528 2 39.9807 32.2555 -2.18877 39.9807 32.2555 -2.18877
529 1 40.9673 30.6571 -0.531387 40.9673 30.6571 -0.531387
530 2 42.8963 30.7129 1.06584 42.8963 30.7129 1.06584
531 2 42.8406 30.6012 -2.19384 42.8406 30.6012 -2.19384
532 1 43.8189 32.3025 -0.637047 43.8189 32.3025 -0.637047
533 2 45.733 32.3455 0.978651 45.733 32.3455 0.978651
534 2 45.7079 32.2593 -2.28212 45.7079 32.2593 -2.28212
535 1 46.6712 30.6561 -0.615489 46.6712 30.6561 -0.615489
536 2 48.572 30.7081 1.01569 48.572 30.7081 1.01569
537 2 48.5736 30.604 -2.24468 48.5736 30.604 -2.24468
538 1 49.5237 32.3019 -0.666903 49.5237 32.3019 -0.666903
539 2 51.4073 32.3405 0.984518 51.4073 32.3405 0.984518
540 2 51.4432 32.2633 -2.27638 51.4432 32.2633 -2.27638