ITEM: TIMESTEP
54000
ITEM: NUMBER OF ATOMS
810
ITEM: BOX BOUNDS pp pp pp
8.4486386051962159e-01 5.2172741139479164e+01
8.1208811125419766e-01 5.0204126888745435e+01
-1.0000000000000000e+01 1.0000000000000000e+01
ITEM: ATOMS id type x y z xu yu zu
1 1 1.0485 1.02645 -0.240806 1.0485 1.02645 -0.240806
2 2 2.92979 1.00873 1.41319 2.92979 1.00873 1.41319
3 2 2.96918 1.04412 -1.84857 2.96918 1.04412 -1.84857
4 1 3.89993 2.67271 -0.188249 3.89993 2.67271 -0.188249
5 2 5.7782 2.65571 1.46917 5.7782 2.65571 1.46917
6 2 5.82354 2.68969 -1.79253 5.82354 2.68969 -1.79253
7 1 6.75139 1.02628 -0.165611 6.75139 1.02628 -0.165611
8 2 8.62933 1.00771 1.4921 8.62933 1.00771 1.4921
9 2 8.67533 1.04485 -1.76954 8.67533 1.04485 -1.76954
10 1 9.60274 2.67257 -0.106488 9.60274 2.67257 -0.106488
11 2 11.483 2.65457 1.54862 11.483 2.65457 1.54862
12 2 11.5245 2.69058 -1.71309 11.5245 2.69058 -1.71309
13 1 12.4543 1.02615 -0.0883329 12.4543 1.02615 -0.0883329
14 2 14.3391 1.00679 1.56141 14.3391 1.00679 1.56141
15 2 14.3715 1.04555 -1.70038 14.3715 1.04555 -1.70038
16 1 15.3058 2.67247 -0.0404254 15.3058 2.67247 -0.0404254
17 2 17.1972 2.65348 1.60178 17.1972 2.65348 1.60178
18 2 17.2166 2.69151 -1.66011 17.2166 2.69151 -1.66011
19 1 18.1575 1.02611 -0.0427625 18.1575 1.02611 -0.0427625
20 2 20.0566 1.00616 1.59044 20.0566 1.00616 1.59044
21 2 20.0606 1.04611 -1.6715 20.0606 1.04611 -1.6715
22 1 21.0092 2.67247 -0.0191575 21.0092 2.67247 -0.0191575
23 2 22.9166 2.65272 1.60438 22.9166 2.65272 1.60438
24 2 22.9041 2.69229 -1.65753 22.9041 2.69229 -1.65753
25 1 23.8609 1.02618 -0.0502843 23.8609 1.02618 -0.0502843
26 2 25.7755 1.00617 1.56459 25.7755 1.00617 1.56459
27 2 25.7483 1.04625 -1.69723 25.7483 1.04625 -1.69723
28 1 26.7125 2.67259 -0.0540053 26.7125 2.67259 -0.0540053
29 2 28.6335 2.65282 1.55344 28.6335 2.65282 1.55344
30 2 28.5936 2.69244 -1.70825 28.5936 2.69244 -1.70825
31 1 29.564 1.02635 -0.109141 29.564 1.02635 -0.109141
32 2 31.488 1.00708 1.49459 31.488 1.00708 1.49459
33 2 31.4418 1.04568 -1.76704 31.4418 1.04568 -1.76704
34 1 32.4154 2.67279 -0.130182 32.4154 2.67279 -0.130182
35 2 34.3408 2.65387 1.47209 34.3408 2.65387 1.47209
36 2 34.2919 2.69174 -1.78951 34.2919 2.69174 -1.78951
37 1 35.2667 1.02654 -0.192158 35.2667 1.02654 -0.192158
38 2 37.1893 1.00834 1.4135 37.1893 1.00834 1.4135
39 2 37.1461 1.04472 -1.8482 37.1461 1.04472 -1.8482
40 1 38.1182 2.67294 -0.211501 38.1182 2.67294 -0.211501
41 2 40.0365 2.65524 1.39936 40.0365 2.65524 1.39936
42 2 40.002 2.69061 -1.86246 40.002 2.69061 -1.86246
43 1 40.9697 1.02663 -0.259499 40.9697 1.02663 -0.259499
44 2 42.8805 1.00923 1.36029 42.8805 1.00923 1.36029
45 2 42.8612 1.04396 -1.90165 42.8612 1.04396 -1.90165
46 1 43.8214 2.67297 -0.258691 43.8214 2.67297 -0.258691
47 2 45.7244 2.65626 1.37028 45.7244 2.65626 1.37028
48 2 45.7207 2.68961 -1.89174 45.7207 2.68961 -1.89174
49 1 46.6731 1.02659 -0.278667 46.6731 1.02659 -0.278667
50 2 48.5673 1.00936 1.3605 48.5673 1.00936 1.3605
51 2 48.5811 1.04373 -1.90147 48.5811 1.04373 -1.90147
52 1 49.5248 2.67287 -0.249021 49.5248 2.67287 -0.249021
53 2 51.4118 2.65644 1.3985 51.4118 2.65644 1.3985
54 2 51.4399 2.68924 -1.86341 51.4399 2.68924 -1.86341
55 1 1.04843 4.31915 -0.207594 1.04843 4.31915 -0.207594
56 2 2.92995 4.30437 1.44619 2.92995 4.30437 1.44619
57 2 2.96886 4.33389 -1.81564 2.96886 4.33389 -1.81564
58 1 3.89985 5.96545 -0.158362 3.89985 5.96545 -0.158362
59 2 5.77819 5.95298 1.49904 5.77819 5.95298 1.49904
60 2 5.82337 5.97791 -1.76274 5.82337 5.97791 -1.76274
61 1 6.75128 4.319 -0.131214 6.75128 4.319 -0.131214
62 2 8.62915 4.30341 1.52664 8.62915 4.30341 1.52664
63 2 8.67529 4.3346 -1.73506 8.67529 4.3346 -1.73506
64 1 9.60264 5.96533 -0.0749271 9.60264 5.96533 -0.0749271
65 2 11.4826 5.95175 1.5805 11.4826 5.95175 1.5805
66 2 11.5246 5.97894 -1.68129 11.5246 5.97894 -1.68129
67 1 12.4542 4.31889 -0.051875 12.4542 4.31889 -0.051875
68 2 14.339 4.30209 1.59801 14.339 4.30209 1.59801
69 2 14.3715 4.33572 -1.66383 14.3715 4.33572 -1.66383
70 1 15.3057 5.96526 -0.00638474 15.3057 5.96526 -0.00638474
71 2 17.1969 5.95024 1.63613 17.1969 5.95024 1.63613
72 2 17.2168 5.98031 -1.62583 17.2168 5.98031 -1.62583
73 1 18.1574 4.31883 -0.00426152 18.1574 4.31883 -0.00426152
74 2 20.0566 4.30082 1.62894 20.0566 4.30082 1.62894
75 2 20.0606 4.3369 -1.63302 20.0606 4.3369 -1.63302
76 1 21.0092 5.96524 0.0173761 21.0092 5.96524 0.0173761
77 2 22.9166 5.94884 1.64103 22.9166 5.94884 1.64103
78 2 22.9042 5.98169 -1.62094 22.9042 5.98169 -1.62094
79 1 23.8609 4.31888 -0.0102087 23.8609 4.31888 -0.0102087
80 2 25.776 4.30005 1.60422 25.776 4.30005 1.60422
81 2 25.748 4.33778 -1.65761 25.748 4.33778 -1.65761
82 1 26.7126 5.96533 -0.0157782 26.7126 5.96533 -0.0157782
83 2 28.6341 5.9482 1.59117 28.6341 5.9482 1.59117
84 2 28.5932 5.98252 -1.67056 28.5932 5.98252 -1.67056
85 1 29.5641 4.31903 -0.0689933 29.5641 4.31903 -0.0689933
86 2 31.4891 4.30034 1.53365 31.4891 4.30034 1.53365
87 2 31.441 4.33779 -1.72796 31.441 4.33779 -1.72796
88 1 32.4156 5.96549 -0.0922201 32.4156 5.96549 -0.0922201
89 2 34.342 5.94879 1.50885 34.342 5.94879 1.50885
90 2 34.291 5.98224 -1.75277 34.291 5.98224 -1.75277
91 1 35.2669 4.31922 -0.153759 35.2669 4.31922 -0.153759
92 2 37.1906 4.30162 1.45048 37.1906 4.30162 1.45048
93 2 37.145 4.33683 -1.8112 37.145 4.33683 -1.8112
94 1 38.1184 5.96563 -0.175793 38.1184 5.96563 -0.175793
95 2 40.0379 5.95039 1.43353 40.0379 5.95039 1.43353
96 2 40.0008 5.98087 -1.82832 40.0008 5.98087 -1.82832
97 1 40.9698 4.31932 -0.223648 40.9698 4.31932 -0.223648
98 2 42.8817 4.3032 1.39485 42.8817 4.3032 1.39485
99 2 42.8601 4.33538 -1.86711 42.8601 4.33538 -1.86711
100 1 43.8214 5.96566 -0.226057 43.8214 5.96566 -0.226057
101 2 45.7257 5.95218 1.40154 45.7257 5.95218 1.40154
102 2 45.7194 5.97909 -1.86054 45.7194 5.97909 -1.86054
103 1 46.6731 4.31928 -0.244876 46.6731 4.31928 -0.244876
104 2 48.5681 4.30431 1.39348 48.5681 4.30431 1.39348
105 2 48.5803 4.33417 -1.86856 48.5803 4.33417 -1.86856
106 1 49.5247 5.96558 -0.218763 49.5247 5.96558 -0.218763
107 2 51.4124 5.95324 1.42801 51.4124 5.95324 1.42801
108 2 51.4391 5.97786 -1.83399 51.4391 5.97786 -1.83399
109 1 1.04839 7.61189 -0.182641 1.04839 7.61189 -0.182641
110 2 2.93039 7.60279 1.47066 2.93039 7.60279 1.47066
111 2 2.96833 7.62098 -1.79127 2.96833 7.62098 -1.79127
112 1 3.89983 9.25825 -0.139938 3.89983 9.25825 -0.139938
113 2 5.77831 9.25272 1.51736 5.77831 9.25272 1.51736
114 2 5.82319 9.26379 -1.74451 5.82319 9.26379 -1.74451
115 1 6.75121 7.6118 -0.105989 6.75121 7.6118 -0.105989
116 2 8.62891 7.60212 1.55214 8.62891 7.60212 1.55214
117 2 8.67538 7.62148 -1.70966 8.67538 7.62148 -1.70966
118 1 9.60259 9.2582 -0.0553462 9.60259 9.2582 -0.0553462
119 2 11.4822 9.25168 1.60063 11.4822 9.25168 1.60063
120 2 11.525 9.26475 -1.66123 11.525 9.26475 -1.66123
121 1 12.4541 7.61172 -0.0243579 12.4541 7.61172 -0.0243579
122 2 14.3385 7.60065 1.62604 14.3385 7.60065 1.62604
123 2 14.3718 7.62282 -1.63588 14.3718 7.62282 -1.63588
124 1 15.3057 9.25817 0.0160413 15.3057 9.25817 0.0160413
125 2 17.1963 9.25004 1.65927 17.1963 9.25004 1.65927
126 2 17.2173 9.26631 -1.60277 17.2173 9.26631 -1.60277
127 1 18.1574 7.61168 0.0261776 18.1574 7.61168 0.0261776
128 2 20.0563 7.59898 1.65988 20.0563 7.59898 1.65988
129 2 20.0609 7.62441 -1.60217 20.0609 7.62441 -1.60217
130 1 21.0092 9.25815 0.0431024 21.0092 9.25815 0.0431024
131 2 22.9161 9.24829 1.66739 22.9161 9.24829 1.66739
132 2 22.9047 9.26804 -1.59468 22.9047 9.26804 -1.59468
133 1 23.861 7.6117 0.0230526 23.861 7.6117 0.0230526
134 2 25.7761 7.59758 1.63763 25.7761 7.59758 1.63763
135 2 25.7481 7.62586 -1.62429 25.7481 7.62586 -1.62429
136 1 26.7127 9.25819 0.0128507 26.7127 9.25819 0.0128507
137 2 28.6341 9.24698 1.61993 28.6341 9.24698 1.61993
138 2 28.5934 9.26944 -1.6419 28.5934 9.26944 -1.6419
139 1 29.5642 7.6118 -0.0342187 29.5642 7.6118 -0.0342187
140 2 31.4898 7.59718 1.56782 31.4898 7.59718 1.56782
141 2 31.4405 7.62648 -1.69385 31.4405 7.62648 -1.69385
142 1 32.4157 9.25829 -0.0625244 32.4157 9.25829 -0.0625244
143 2 34.3428 9.24696 1.53775 34.3428 9.24696 1.53775
144 2 34.2904 9.26966 -1.72393 34.2904 9.26966 -1.72393
145 1 35.267 7.61195 -0.119845 35.267 7.61195 -0.119845
146 2 37.192 7.59818 1.48302 37.192 7.59818 1.48302
147 2 37.1439 7.62573 -1.7787 37.1439 7.62573 -1.7787
148 1 38.1185 9.25839 -0.147837 38.1185 9.25839 -0.147837
149 2 40.0394 9.24845 1.45991 40.0394 9.24845 1.45991
150 2 39.9995 9.26832 -1.80199 39.9995 9.26832 -1.80199
151 1 40.9699 7.61203 -0.192727 40.9699 7.61203 -0.192727
152 2 42.8832 7.60013 1.42411 42.8832 7.60013 1.42411
153 2 42.8587 7.62389 -1.83792 42.8587 7.62389 -1.83792
154 1 43.8215 9.2584 -0.201935 43.8215 9.2584 -0.201935
155 2 45.7272 9.25067 1.42394 45.7272 9.25067 1.42394
156 2 45.7179 9.26608 -1.83823 45.7179 9.26608 -1.83823
157 1 46.6731 7.61199 -0.217587 46.6731 7.61199 -0.217587
158 2 48.5693 7.60202 1.41944 48.5693 7.60202 1.41944
159 2 48.5791 7.62192 -1.8427 48.5791 7.62192 -1.8427
160 1 49.5247 9.25833 -0.19857 49.5247 9.25833 -0.19857
161 2 51.4134 9.25241 1.4471 51.4134 9.25241 1.4471
162 2 51.4381 9.26421 -1.815 51.4381 9.26421 -1.815
163 1 1.04839 10.9047 -0.170669 1.04839 10.9047 -0.170669
164 2 2.93104 10.9031 1.48193 2.93104 10.9031 1.48193
165 2 2.96768 10.9063 -1.78007 2.96768 10.9063 -1.78007
166 1 3.89986 12.5511 -0.136618 3.89986 12.5511 -0.136618
167 2 5.77853 12.5537 1.52049 5.77853 12.5537 1.52049
168 2 5.82304 12.5486 -1.7414 5.82304 12.5486 -1.7414
169 1 6.75121 10.9047 -0.0947924 6.75121 10.9047 -0.0947924
170 2 8.62867 10.9028 1.56365 8.62867 10.9028 1.56365
171 2 8.6756 10.9065 -1.6982 8.6756 10.9065 -1.6982
172 1 9.6026 12.5511 -0.0516604 9.6026 12.5511 -0.0516604
173 2 11.4816 12.553 1.60499 11.4816 12.553 1.60499
174 2 11.5255 12.5493 -1.65689 11.5255 12.5493 -1.65689
175 1 12.4541 10.9047 -0.0111482 12.4541 10.9047 -0.0111482
176 2 14.3378 10.9015 1.64004 14.3378 10.9015 1.64004
177 2 14.3724 10.9078 -1.62193 14.3724 10.9078 -1.62193
178 1 15.3057 12.5512 0.0223445 15.3057 12.5512 0.0223445
179 2 17.1955 12.5516 1.66656 17.1955 12.5516 1.66656
180 2 17.2181 12.5507 -1.59551 17.2181 12.5507 -1.59551
181 1 18.1574 10.9047 0.0426253 18.1574 10.9047 0.0426253
182 2 20.0555 10.8998 1.67723 20.0555 10.8998 1.67723
183 2 20.0617 10.9095 -1.5849 20.0617 10.9095 -1.5849
184 1 21.0092 12.5512 0.0528793 21.0092 12.5512 0.0528793
185 2 22.9152 12.5498 1.67825 22.9152 12.5498 1.67825
186 2 22.9056 12.5525 -1.58388 22.9056 12.5525 -1.58388
187 1 23.861 10.9047 0.043033 23.861 10.9047 0.043033
188 2 25.7755 10.898 1.65836 25.7755 10.898 1.65836
189 2 25.7488 10.9113 -1.60366 25.7488 10.9113 -1.60366
190 1 26.7128 12.5512 0.0262877 26.7128 12.5512 0.0262877
191 2 28.6336 12.548 1.63415 28.6336 12.548 1.63415
192 2 28.5941 12.5543 -1.62776 28.5941 12.5543 -1.62776
193 1 29.5643 10.9047 -0.011475 29.5643 10.9047 -0.011475
194 2 31.49 10.8969 1.59059 31.49 10.8969 1.59059
195 2 31.4406 10.9125 -1.67117 31.4406 10.9125 -1.67117
196 1 32.4158 12.5512 -0.0467738 32.4158 12.5512 -0.0467738
197 2 34.3431 12.5474 1.55329 34.3431 12.5474 1.55329
198 2 34.2903 12.555 -1.70845 34.2903 12.555 -1.70845
199 1 35.2672 10.9048 -0.0968166 35.2672 10.9048 -0.0968166
200 2 37.193 10.8975 1.505 37.193 10.8975 1.505
201 2 37.1431 10.9121 -1.75678 37.1431 10.9121 -1.75678
202 1 38.1186 12.5512 -0.132956 38.1186 12.5512 -0.132956
203 2 40.0406 12.5485 1.47346 40.0406 12.5485 1.47346
204 2 39.9984 12.5539 -1.78847 39.9984 12.5539 -1.78847
205 1 40.97 10.9048 -0.172532 40.97 10.9048 -0.172532
206 2 42.8848 10.8994 1.44256 42.8848 10.8994 1.44256
207 2 42.8572 10.9102 -1.81952 42.8572 10.9102 -1.81952
208 1 43.8215 12.5512 -0.190972 43.8215 12.5512 -0.190972
209 2 45.7288 12.5508 1.43311 45.7288 12.5508 1.43311
210 2 45.7164 12.5516 -1.82908 45.7164 12.5516 -1.82908
211 1 46.6731 10.9048 -0.201923 46.6731 10.9048 -0.201923
212 2 48.5707 10.9017 1.43348 48.5707 10.9017 1.43348
213 2 48.5777 10.9078 -1.82872 48.5777 10.9078 -1.82872
214 1 49.5247 12.5511 -0.192391 49.5247 12.5511 -0.192391
215 2 51.4146 12.5529 1.45199 51.4146 12.5529 1.45199
216 2 51.437 12.5494 -1.81014 51.437 12.5494 -1.81014
217 1 1.04844 14.1975 -0.174183 1.04844 14.1975 -0.174183
218 2 2.93176 14.2038 1.47764 2.93176 14.2038 1.47764
219 2 2.96708 14.1913 -1.78435 2.96708 14.1913 -1.78435
220 1 3.89994 15.8439 -0.149282 3.89994 15.8439 -0.149282
221 2 5.77878 15.8542 1.50761 5.77878 15.8542 1.50761
222 2 5.82297 15.8337 -1.75423 5.82297 15.8337 -1.75423
223 1 6.75127 14.1976 -0.09996 6.75127 14.1976 -0.09996
224 2 8.62847 14.204 1.55877 8.62847 14.204 1.55877
225 2 8.67592 14.1911 -1.70304 8.67592 14.1911 -1.70304
226 1 9.60269 15.844 -0.0647599 9.60269 15.844 -0.0647599
227 2 11.4811 15.854 1.59255 11.4811 15.854 1.59255
228 2 11.5262 15.8341 -1.66925 11.5262 15.8341 -1.66925
229 1 12.4541 14.1976 -0.0149921 12.4541 14.1976 -0.0149921
230 2 14.3371 14.2031 1.63712 14.3371 14.2031 1.63712
231 2 14.3732 14.1921 -1.62483 14.3732 14.1921 -1.62483
232 1 15.3057 15.8441 0.0111612 15.3057 15.8441 0.0111612
233 2 17.1946 15.853 1.65648 17.1946 15.853 1.65648
234 2 17.2191 15.8352 -1.60554 17.2191 15.8352 -1.60554
235 1 18.1574 14.1977 0.0417113 18.1574 14.1977 0.0417113
236 2 20.0545 14.2017 1.67748 20.0545 14.2017 1.67748
237 2 20.0627 14.1937 -1.58465 20.0627 14.1937 -1.58465
238 1 21.0092 15.8442 0.0447695 21.0092 15.8442 0.0447695
239 2 22.9141 15.8515 1.6715 22.9141 15.8515 1.6715
240 2 22.9068 15.8369 -1.5906 22.9068 15.8369 -1.5906
241 1 23.861 14.1977 0.0457756 23.861 14.1977 0.0457756
242 2 25.7745 14.1998 1.66235 25.7745 14.1998 1.66235
243 2 25.7499 14.1956 -1.59971 25.7499 14.1956 -1.59971
244 1 26.7128 15.8442 0.0220277 26.7128 15.8442 0.0220277
245 2 28.6325 15.8496 1.63119 28.6325 15.8496 1.63119
246 2 28.5952 15.8388 -1.63074 28.5952 15.8388 -1.63074
247 1 29.5644 14.1977 -0.00511318 29.5644 14.1977 -0.00511318
248 2 31.4895 14.1982 1.59761 31.4895 14.1982 1.59761
249 2 31.4412 14.1971 -1.6642 31.4412 14.1971 -1.6642
250 1 32.4159 15.8441 -0.0478772 32.4159 15.8441 -0.0478772
251 2 34.3429 15.8485 1.55256 34.3429 15.8485 1.55256
252 2 34.2907 15.8398 -1.70919 34.2907 15.8398 -1.70919
253 1 35.2672 14.1977 -0.0890594 35.2672 14.1977 -0.0890594
254 2 37.1936 14.1982 1.51221 37.1936 14.1982 1.51221
255 2 37.1427 14.1971 -1.74959 37.1427 14.1971 -1.74959
256 1 38.1186 15.8441 -0.133987 38.1186 15.8441 -0.133987
257 2 40.0414 15.8491 1.47155 40.0414 15.8491 1.47155
258 2 39.9977 15.839 -1.79034 39.9977 15.839 -1.79034
259 1 40.97 14.1976 -0.166987 40.97 14.1976 -0.166987
260 2 42.8861 14.1998 1.44657 42.8861 14.1998 1.44657
261 2 42.8559 14.1954 -1.81549 42.8559 14.1954 -1.81549
262 1 43.8216 15.844 -0.195414 43.8216 15.844 -0.195414
263 2 45.7301 15.8511 1.42713 45.7301 15.8511 1.42713
264 2 45.7152 15.8369 -1.83502 45.7152 15.8369 -1.83502
265 1 46.6732 14.1976 -0.201062 46.6732 14.1976 -0.201062
266 2 48.5721 14.2021 1.43274 48.5721 14.2021 1.43274
267 2 48.5763 14.1929 -1.82946 48.5763 14.1929 -1.82946
268 1 49.5248 15.8439 -0.201667 49.5248 15.8439 -0.201667
269 2 51.4156 15.8531 1.44152 51.4156 15.8531 1.44152
270 2 51.436 15.8347 -1.82058 51.436 15.8347 -1.82058
271 1 1.04852 17.4903 -0.19278 1.04852 17.4903 -0.19278
272 2 2.93239 17.5033 1.45837 2.93239 17.5033 1.45837
273 2 2.96664 17.4772 -1.80354 2.96664 17.4772 -1.80354
274 1 3.90007 19.1367 -0.175735 3.90007 19.1367 -0.175735
275 2 5.77898 19.1527 1.481 5.77898 19.1527 1.481
276 2 5.82303 19.1207 -1.78073 5.82303 19.1207 -1.78073
277 1 6.75139 17.4904 -0.120702 6.75139 17.4904 -0.120702
278 2 8.62831 17.5039 1.5383 8.62831 17.5039 1.5383
279 2 8.67631 17.4768 -1.72342 8.67631 17.4768 -1.72342
280 1 9.60284 19.1368 -0.092225 9.60284 19.1368 -0.092225
281 2 11.4806 19.153 1.56569 11.4806 19.153 1.56569
282 2 11.5269 19.1207 -1.696 11.5269 19.1207 -1.696
283 1 12.4542 17.4905 -0.0352438 12.4542 17.4905 -0.0352438
284 2 14.3363 17.5036 1.61777 14.3363 17.5036 1.61777
285 2 14.3741 17.4775 -1.64407 14.3741 17.4775 -1.64407
286 1 15.3058 19.137 -0.0153005 15.3058 19.137 -0.0153005
287 2 17.1937 19.1526 1.63106 17.1937 19.1526 1.63106
288 2 17.2201 19.1215 -1.63085 17.2201 19.1215 -1.63085
289 1 18.1574 17.4906 0.0236284 18.1574 17.4906 0.0236284
290 2 20.0534 17.5026 1.66064 20.0534 17.5026 1.66064
291 2 20.0638 17.4787 -1.60141 20.0638 17.4787 -1.60141
292 1 21.0092 19.1371 0.0205699 21.0092 19.1371 0.0205699
293 2 22.9128 19.1515 1.64871 22.9128 19.1515 1.64871
294 2 22.908 19.1227 -1.61332 22.908 19.1227 -1.61332
295 1 23.861 17.4907 0.0309314 23.861 17.4907 0.0309314
296 2 25.7732 17.5009 1.64903 25.7732 17.5009 1.64903
297 2 25.7512 17.4804 -1.61299 25.7512 17.4804 -1.61299
298 1 26.7127 19.1371 0.00121844 26.7127 19.1371 0.00121844
299 2 28.6311 19.1499 1.61191 28.6311 19.1499 1.61191
300 2 28.5965 19.1243 -1.64998 28.5965 19.1243 -1.64998
301 1 29.5644 17.4906 -0.0161269 29.5644 17.4906 -0.0161269
302 2 31.4885 17.4992 1.58774 31.4885 17.4992 1.58774
303 2 31.4422 17.482 -1.67405 31.4422 17.482 -1.67405
304 1 32.4158 19.137 -0.065355 32.4158 19.137 -0.065355
305 2 34.3421 19.1486 1.53592 34.3421 19.1486 1.53592
306 2 34.2914 19.1254 -1.72579 34.2914 19.1254 -1.72579
307 1 35.2673 17.4906 -0.0979132 35.2673 17.4906 -0.0979132
308 2 37.1936 17.4988 1.50335 37.1936 17.4988 1.50335
309 2 37.1428 17.4823 -1.7584 37.1428 17.4823 -1.7584
310 1 38.1186 19.1369 -0.150608 38.1186 19.1369 -0.150608
311 2 40.0416 19.1487 1.45461 40.0416 19.1487 1.45461
312 2 39.9975 19.1251 -1.80721 39.9975 19.1251 -1.80721
313 1 40.97 17.4904 -0.177182 40.97 17.4904 -0.177182
314 2 42.887 17.4998 1.4353 42.887 17.4998 1.4353
315 2 42.8551 17.481 -1.82669 42.8551 17.481 -1.82669
316 1 43.8216 19.1368 -0.214484 43.8216 19.1368 -0.214484
317 2 45.7309 19.15 1.40703 45.7309 19.15 1.40703
318 2 45.7143 19.1235 -1.85503 45.7143 19.1235 -1.85503
319 1 46.6732 17.4903 -0.215372 46.6732 17.4903 -0.215372
320 2 48.5732 17.5018 1.41712 48.5732 17.5018 1.41712
321 2 48.5753 17.4788 -1.84501 48.5753 17.4788 -1.84501
322 1 49.5248 19.1367 -0.224835 49.5248 19.1367 -0.224835
323 2 51.4164 19.1516 1.41745 51.4164 19.1516 1.41745
324 2 51.4354 19.1217 -1.84456 51.4354 19.1217 -1.84456
325 1 1.04862 20.783 -0.223094 1.04862 20.783 -0.223094
326 2 2.93281 20.8005 1.42763 2.93281 20.8005 1.42763
327 2 2.96645 20.7655 -1.8342 2.96645 20.7655 -1.8342
328 1 3.9002 22.4294 -0.211093 3.9002 22.4294 -0.211093
329 2 5.77909 22.4482 1.44563 5.77909 22.4482 1.44563
330 2 5.82321 22.4105 -1.81605 5.82321 22.4105 -1.81605
331 1 6.75154 20.7831 -0.153193 6.75154 20.7831 -0.153193
332 2 8.62818 20.8012 1.50606 8.62818 20.8012 1.50606
333 2 8.67674 20.765 -1.75556 8.67674 20.765 -1.75556
334 1 9.603 22.4295 -0.128864 9.603 22.4295 -0.128864
335 2 11.4803 22.4488 1.52953 11.4803 22.4488 1.52953
336 2 11.5275 22.4103 -1.73209 11.5275 22.4103 -1.73209
337 1 12.4543 20.7833 -0.0679783 12.4543 20.7833 -0.0679783
338 2 14.3357 20.8014 1.58581 14.3357 20.8014 1.58581
339 2 14.375 20.7653 -1.67593 14.375 20.7653 -1.67593
340 1 15.3059 22.4298 -0.0518605 15.3059 22.4298 -0.0518605
341 2 17.193 22.449 1.59533 17.193 22.449 1.59533
342 2 17.221 22.4106 -1.6665 17.221 22.4106 -1.6665
343 1 18.1575 20.7835 -0.00793838 18.1575 20.7835 -0.00793838
344 2 20.0524 20.8009 1.63021 20.0524 20.8009 1.63021
345 2 20.0649 20.766 -1.63174 20.0649 20.766 -1.63174
346 1 21.0092 22.4299 -0.0148259 21.0092 22.4299 -0.0148259
347 2 22.9117 22.4486 1.61451 22.9117 22.4486 1.61451
348 2 22.9091 22.4112 -1.64744 22.9091 22.4112 -1.64744
349 1 23.861 20.7835 0.00170474 23.861 20.7835 0.00170474
350 2 25.7718 20.7998 1.62129 25.7718 20.7998 1.62129
351 2 25.7525 20.7672 -1.64065 25.7525 20.7672 -1.64065
352 1 26.7127 22.4299 -0.0318488 26.7127 22.4299 -0.0318488
353 2 28.6298 22.4476 1.58029 28.6298 22.4476 1.58029
354 2 28.5977 22.4123 -1.68154 28.5977 22.4123 -1.68154
355 1 29.5643 20.7835 -0.0420762 29.5643 20.7835 -0.0420762
356 2 31.4872 20.7984 1.56316 31.4872 20.7984 1.56316
357 2 31.4434 20.7686 -1.69859 31.4434 20.7686 -1.69859
358 1 32.4158 22.4298 -0.0956209 32.4158 22.4298 -0.0956209
359 2 34.341 22.4464 1.50677 34.341 22.4464 1.50677
360 2 34.2924 22.4132 -1.75489 34.2924 22.4132 -1.75489
361 1 35.2672 20.7834 -0.121449 35.2672 20.7834 -0.121449
362 2 37.193 20.7976 1.48031 37.193 20.7976 1.48031
363 2 37.1432 20.7691 -1.78137 37.1432 20.7691 -1.78137
364 1 38.1186 22.4297 -0.179481 38.1186 22.4297 -0.179481
365 2 40.0413 22.4459 1.42599 40.0413 22.4459 1.42599
366 2 39.9977 22.4133 -1.83574 39.9977 22.4133 -1.83574
367 1 40.97 20.7832 -0.201089 40.97 20.7832 -0.201089
368 2 42.8873 20.798 1.41094 42.8873 20.798 1.41094
369 2 42.8547 20.7683 -1.85096 42.8547 20.7683 -1.85096
370 1 43.8216 22.4295 -0.244478 43.8216 22.4295 -0.244478
371 2 45.7312 22.4463 1.37666 45.7312 22.4463 1.37666
372 2 45.7141 22.4125 -1.88532 45.7141 22.4125 -1.88532
373 1 46.6732 20.783 -0.242184 46.6732 20.783 -0.242184
374 2 48.5739 20.7992 1.38952 48.5739 20.7992 1.38952
375 2 48.5747 20.7668 -1.87252 48.5747 20.7668 -1.87252
376 1 49.5249 22.4293 -0.257551 49.5249 22.4293 -0.257551
377 2 51.4168 22.4473 1.38429 51.4168 22.4473 1.38429
378 2 51.4352 22.4113 -1.87765 51.4352 22.4113 -1.87765
379 1 1.0487 24.0757 -0.259482 1.0487 24.0757 -0.259482
380 2 2.93298 24.0943 1.39113 2.93298 24.0943 1.39113
381 2 2.9665 24.057 -1.87067 2.9665 24.057 -1.87067
382 1 3.90031 25.7221 -0.248836 3.90031 25.7221 -0.248836
383 2 5.77909 25.7403 1.40799 5.77909 25.7403 1.40799
384 2 5.82346 25.7038 -1.85368 5.82346 25.7038 -1.85368
385 1 6.7517 24.0758 -0.191404 6.7517 24.0758 -0.191404
386 2 8.62809 24.0951 1.46808 8.62809 24.0951 1.46808
387 2 8.67713 24.0565 -1.79351 8.67713 24.0565 -1.79351
388 1 9.60314 25.7222 -0.167921 9.60314 25.7222 -0.167921
389 2 11.4802 25.7411 1.49075 11.4802 25.7411 1.49075
390 2 11.5279 25.7034 -1.77086 11.5279 25.7034 -1.77086
391 1 12.4545 24.076 -0.107002 12.4545 24.076 -0.107002
392 2 14.3353 24.0957 1.54732 14.3353 24.0957 1.54732
393 2 14.3756 24.0563 -1.71438 14.3756 24.0563 -1.71438
394 1 15.306 25.7224 -0.0917159 15.306 25.7224 -0.0917159
395 2 17.1926 25.7419 1.55596 17.1926 25.7419 1.55596
396 2 17.2215 25.703 -1.70587 17.2215 25.703 -1.70587
397 1 18.1576 24.0762 -0.0468949 18.1576 24.0762 -0.0468949
398 2 20.0517 24.0959 1.59209 20.0517 24.0959 1.59209
399 2 20.0657 24.0565 -1.66982 20.0657 24.0565 -1.66982
400 1 21.0093 25.7226 -0.0547884 21.0093 25.7226 -0.0547884
401 2 22.911 25.7422 1.57534 22.911 25.7422 1.57534
402 2 22.9098 25.703 -1.68661 22.9098 25.703 -1.68661
403 1 23.861 24.0763 -0.0361709 23.861 24.0763 -0.0361709
404 2 25.7707 24.0956 1.5846 25.7707 24.0956 1.5846
405 2 25.7535 24.057 -1.6773 25.7535 24.057 -1.6773
406 1 26.7126 25.7226 -0.0709359 26.7126 25.7226 -0.0709359
407 2 28.6287 25.7419 1.54231 28.6287 25.7419 1.54231
408 2 28.5986 25.7033 -1.71951 28.5986 25.7033 -1.71951
409 1 29.5642 24.0763 -0.0778529 29.5642 24.0763 -0.0778529
410 2 31.486 24.0947 1.52869 31.486 24.0947 1.52869
411 2 31.4445 24.0578 -1.73302 31.4445 24.0578 -1.73302
412 1 32.4157 25.7225 -0.13293 32.4157 25.7225 -0.13293
413 2 34.3399 25.741 1.47064 34.3399 25.741 1.47064
414 2 34.2933 25.704 -1.791 34.2933 25.704 -1.791
415 1 35.2671 24.0761 -0.155046 35.2671 24.0761 -0.155046
416 2 37.1922 24.0937 1.4476 37.1922 24.0937 1.4476
417 2 37.1439 24.0585 -1.81404 37.1439 24.0585 -1.81404
418 1 38.1185 25.7223 -0.215096 38.1185 25.7223 -0.215096
419 2 40.0405 25.74 1.39118 40.0405 25.74 1.39118
420 2 39.9984 25.7046 -1.87054 39.9984 25.7046 -1.87054
421 1 40.97 24.0759 -0.234049 40.97 24.0759 -0.234049
422 2 42.8871 24.0932 1.3782 42.8871 24.0932 1.3782
423 2 42.8549 24.0585 -1.88364 42.8549 24.0585 -1.88364
424 1 43.8215 25.7221 -0.279668 43.8215 25.7221 -0.279668
425 2 45.7309 25.7395 1.3418 45.7309 25.7395 1.3418
426 2 45.7144 25.7047 -1.92016 45.7144 25.7047 -1.92016
427 1 46.6732 24.0757 -0.276376 46.6732 24.0757 -0.276376
428 2 48.574 24.0935 1.35515 48.574 24.0935 1.35515
429 2 48.5747 24.0578 -1.90684 48.5747 24.0578 -1.90684
430 1 49.5249 25.722 -0.29368 49.5249 25.722 -0.29368
431 2 51.4168 25.7397 1.3482 51.4168 25.7397 1.3482
432 2 51.4353 25.7043 -1.91374 51.4353 25.7043 -1.91374
433 1 1.04877 27.3684 -0.295239 1.04877 27.3684 -0.295239
434 2 2.93289 27.3848 1.35555 2.93289 27.3848 1.35555
435 2 2.96676 27.3519 -1.90628 2.96676 27.3519 -1.90628
436 1 3.90039 29.0148 -0.282124 3.90039 29.0148 -0.282124
437 2 5.77904 29.0293 1.37487 5.77904 29.0293 1.37487
438 2 5.82369 29.0004 -1.88687 5.82369 29.0004 -1.88687
439 1 6.75182 27.3685 -0.228381 6.75182 27.3685 -0.228381
440 2 8.62808 27.3856 1.43125 8.62808 27.3856 1.43125
441 2 8.67739 27.3515 -1.83038 8.67739 27.3515 -1.83038
442 1 9.60325 29.0149 -0.202456 9.60325 29.0149 -0.202456
443 2 11.4803 29.0303 1.45622 11.4803 29.0303 1.45622
444 2 11.528 28.9997 -1.80547 11.528 28.9997 -1.80547
445 1 12.4546 27.3687 -0.145265 12.4546 27.3687 -0.145265
446 2 14.3353 27.3866 1.50924 14.3353 27.3866 1.50924
447 2 14.3759 27.3508 -1.7525 14.3759 27.3508 -1.7525
448 1 15.3061 29.0151 -0.1279 15.3061 29.0151 -0.1279
449 2 17.1927 29.0315 1.5198 17.1927 29.0315 1.5198
450 2 17.2216 28.9988 -1.74211 17.2216 28.9988 -1.74211
451 1 18.1576 27.3689 -0.0862224 18.1576 27.3689 -0.0862224
452 2 20.0514 27.3875 1.55315 20.0514 27.3875 1.55315
453 2 20.066 27.3503 -1.7088 20.066 27.3503 -1.7088
454 1 21.0093 29.0153 -0.092409 21.0093 29.0153 -0.092409
455 2 22.9108 29.0326 1.53795 22.9108 29.0326 1.53795
456 2 22.91 28.998 -1.72406 22.91 28.998 -1.72406
457 1 23.8609 27.369 -0.0758719 23.8609 27.369 -0.0758719
458 2 25.7701 27.3879 1.54559 25.7701 27.3879 1.54559
459 2 25.754 27.3501 -1.71635 25.754 27.3501 -1.71635
460 1 26.7125 29.0153 -0.109259 26.7125 29.0153 -0.109259
461 2 28.6281 29.033 1.5046 28.6281 29.033 1.5046
462 2 28.5991 28.9976 -1.75728 28.5991 28.9976 -1.75728
463 1 29.5641 27.3689 -0.116939 29.5641 27.3689 -0.116939
464 2 31.4849 27.3876 1.49066 31.4849 27.3876 1.49066
465 2 31.4453 27.3503 -1.77107 31.4453 27.3503 -1.77107
466 1 32.4155 29.0152 -0.170695 32.4155 29.0152 -0.170695
467 2 34.3388 29.0325 1.43395 34.3388 29.0325 1.43395
468 2 34.2941 28.998 -1.82775 34.2941 28.998 -1.82775
469 1 35.267 27.3688 -0.19252 35.267 27.3688 -0.19252
470 2 37.1911 27.3865 1.41127 37.1911 27.3865 1.41127
471 2 37.1448 27.351 -1.85039 37.1448 27.351 -1.85039
472 1 38.1183 29.0151 -0.251064 38.1183 29.0151 -0.251064
473 2 40.0394 29.0311 1.35643 40.0394 29.0311 1.35643
474 2 39.9993 28.999 -1.90534 39.9993 28.999 -1.90534
475 1 40.9699 27.3686 -0.269909 40.9699 27.3686 -0.269909
476 2 42.8862 27.3853 1.3432 42.8862 27.3853 1.3432
477 2 42.8557 27.3518 -1.91866 42.8557 27.3518 -1.91866
478 1 43.8215 29.0149 -0.313657 43.8215 29.0149 -0.313657
479 2 45.73 29.0297 1.30877 45.73 29.0297 1.30877
480 2 45.7152 29.0001 -1.95324 45.7152 29.0001 -1.95324
481 1 46.6732 27.3684 -0.311574 46.6732 27.3684 -0.311574
482 2 48.5736 27.3847 1.32041 48.5736 27.3847 1.32041
483 2 48.5751 27.3521 -1.9416 48.5751 27.3521 -1.9416
484 1 49.525 29.0148 -0.326642 49.525 29.0148 -0.326642
485 2 51.4164 29.029 1.31575 51.4164 29.029 1.31575
486 2 51.4358 29.0006 -1.94624 51.4358 29.0006 -1.94624
487 1 1.04881 30.6612 -0.323978 1.04881 30.6612 -0.323978
488 2 2.93258 30.6726 1.32724 2.93258 30.6726 1.32724
489 2 2.96716 30.6498 -1.93467 2.96716 30.6498 -1.93467
490 1 3.90042 32.3077 -0.305169 3.90042 32.3077 -0.305169
491 2 5.77897 32.3159 1.35197 5.77897 32.3159 1.35197
492 2 5.82383 32.2995 -1.90985 5.82383 32.2995 -1.90985
493 1 6.75189 30.6613 -0.257589 6.75189 30.6613 -0.257589
494 2 8.6282 30.6732 1.40201 8.6282 30.6732 1.40201
495 2 8.67742 30.6494 -1.85972 8.67742 30.6494 -1.85972
496 1 9.6033 32.3078 -0.226604 9.6033 32.3078 -0.226604
497 2 11.4807 32.317 1.43171 11.4807 32.317 1.43171
498 2 11.5278 32.2986 -1.83009 11.5278 32.2986 -1.83009
499 1 12.4547 30.6614 -0.176197 12.4547 30.6614 -0.176197
500 2 14.3356 30.6746 1.47807 14.3356 30.6746 1.47807
501 2 14.3757 30.6483 -1.78377 14.3757 30.6483 -1.78377
502 1 15.3061 32.3079 -0.154473 15.3061 32.3079 -0.154473
503 2 17.1932 32.3186 1.49273 17.1932 32.3186 1.49273
504 2 17.2212 32.2972 -1.76928 17.2212 32.2972 -1.76928
505 1 18.1577 30.6616 -0.119326 18.1577 30.6616 -0.119326
506 2 20.0516 30.6761 1.51988 20.0516 30.6761 1.51988
507 2 20.0659 30.6471 -1.74217 20.0659 30.6471 -1.74217
508 1 21.0093 32.308 -0.12167 21.0093 32.308 -0.12167
509 2 22.9111 32.3203 1.50832 22.9111 32.3203 1.50832
510 2 22.9096 32.2957 -1.75379 22.9096 32.2957 -1.75379
511 1 23.8609 30.6616 -0.110825 23.8609 30.6616 -0.110825
512 2 25.7699 30.6772 1.51073 25.7699 30.6772 1.51073
513 2 25.754 30.6461 -1.75129 25.754 30.6461 -1.75129
514 1 26.7125 32.308 -0.140704 26.7125 32.308 -0.140704
515 2 28.6279 32.3214 1.47322 28.6279 32.3214 1.47322
516 2 28.599 32.2947 -1.78875 28.599 32.2947 -1.78875
517 1 29.564 30.6616 -0.152764 29.564 30.6616 -0.152764
518 2 31.4843 30.6775 1.45548 31.4843 30.6775 1.45548
519 2 31.4457 30.6458 -1.80633 31.4457 30.6458 -1.80633
520 1 32.4154 32.308 -0.202775 32.4154 32.308 -0.202775
521 2 34.338 32.3212 1.4027 34.338 32.3212 1.4027
522 2 34.2947 32.2947 -1.85909 34.2947 32.2947 -1.85909
523 1 35.2669 30.6615 -0.227454 35.2669 30.6615 -0.227454
524 2 37.1899 30.6765 1.37756 37.1899 30.6765 1.37756
525 2 37.1457 30.6465 -1.88419 37.1457 30.6465 -1.88419
526 1 38.1182 32.3078 -0.281438 38.1182 32.3078 -0.281438
527 2 40.0381 32.3197 1.32752 40.0381 32.3197 1.32752
528 2 40.0005 32.296 -1.93435 40.0005 32.296 -1.93435
529 1 40.9698 30.6614 -0.302427 40.9698 30.6614 -0.302427
530 2 42.885 30.6747 1.31205 42.885 30.6747 1.31205
531 2 42.8568 30.648 -1.94989 42.8568 30.648 -1.94989
532 1 43.8214 32.3077 -0.340751 43.8214 32.3077 -0.340751
533 2 45.7288 32.3175 1.28314 45.7288 32.3175 1.28314
534 2 45.7164 32.2979 -1.97894 45.7164 32.2979 -1.97894
535 1 46.6732 30.6612 -0.341566 46.6732 30.6612 -0.341566
536 2 48.5728 30.6731 1.29142 48.5728 30.6731 1.29142
537 2 48.576 30.6493 -1.97066 48.576 30.6493 -1.97066
538 1 49.525 32.3077 -0.350776 49.525 32.3077 -0.350776