ITEM: TIMESTEP
49000
ITEM: NUMBER OF ATOMS
810
ITEM: BOX BOUNDS pp pp pp
8.4248173168672880e-01 5.2175123268312213e+01
8.1017398442423005e-01 5.0206041015575416e+01
-1.0000000000000000e+01 1.0000000000000000e+01
ITEM: ATOMS id type x y z xu yu zu
1 1 1.04625 1.02464 -0.0686939 1.04625 1.02464 -0.0686939
2 2 2.97181 1.05903 1.53317 2.97181 1.05903 1.53317
3 2 2.92299 0.990152 -1.72792 2.92299 0.990152 -1.72792
4 1 3.89784 2.67078 -0.146556 3.89784 2.67078 -0.146556
5 2 5.82782 2.70314 1.45002 5.82782 2.70314 1.45002
6 2 5.76996 2.63837 -1.81102 5.76996 2.63837 -1.81102
7 1 6.74955 1.02424 -0.164665 6.74955 1.02424 -0.164665
8 2 8.68114 1.05926 1.43 8.68114 1.05926 1.43
9 2 8.62003 0.989174 -1.83086 8.62003 0.989174 -1.83086
10 1 9.60094 2.67038 -0.253773 9.60094 2.67038 -0.253773
11 2 11.5298 2.70347 1.3443 11.5298 2.70347 1.3443
12 2 11.4743 2.63732 -1.91673 11.4743 2.63732 -1.91673
13 1 12.4527 1.02385 -0.268949 12.4527 1.02385 -0.268949
14 2 14.3758 1.05941 1.3361 14.3758 1.05941 1.3361
15 2 14.3321 0.988361 -1.92501 14.3321 0.988361 -1.92501
16 1 15.3045 2.67011 -0.343184 15.3045 2.67011 -0.343184
17 2 17.2185 2.70408 1.27275 17.2185 2.70408 1.27275
18 2 17.1931 2.63626 -1.9886 17.1931 2.63626 -1.9886
19 1 18.1566 1.02371 -0.33101 18.1566 1.02371 -0.33101
20 2 20.0604 1.05955 1.29693 20.0604 1.05955 1.29693
21 2 20.0555 0.988018 -1.96445 20.0555 0.988018 -1.96445
22 1 21.0087 2.67012 -0.371383 21.0087 2.67012 -0.371383
23 2 22.9014 2.70469 1.26954 22.9014 2.70469 1.26954
24 2 22.9187 2.63572 -1.99184 22.9187 2.63572 -1.99184
25 1 23.8607 1.02388 -0.32117 23.8607 1.02388 -0.32117
26 2 25.7441 1.05955 1.33054 25.7441 1.05955 1.33054
27 2 25.7799 0.988383 -1.93067 25.7799 0.988383 -1.93067
28 1 26.7127 2.67041 -0.325597 26.7127 2.67041 -0.325597
29 2 28.5879 2.70488 1.33538 28.5879 2.70488 1.33538
30 2 28.6399 2.6361 -1.92565 28.6399 2.6361 -1.92565
31 1 29.5643 1.02428 -0.245137 29.5643 1.02428 -0.245137
32 2 31.4355 1.05928 1.42027 31.4355 1.05928 1.42027
33 2 31.4953 0.98938 -1.84061 31.4953 0.98938 -1.84061
34 1 32.4161 2.67084 -0.228123 32.4161 2.67084 -0.228123
35 2 34.2857 2.70458 1.43901 34.2857 2.70458 1.43901
36 2 34.3485 2.63717 -1.82187 34.3485 2.63717 -1.82187
37 1 35.2675 1.0247 -0.138974 35.2675 1.0247 -0.138974
38 2 37.1406 1.05894 1.52415 37.1406 1.05894 1.52415
39 2 37.1965 0.990445 -1.73684 37.1965 0.990445 -1.73684
40 1 38.1192 2.67119 -0.124729 38.1192 2.67119 -0.124729
41 2 39.9979 2.70405 1.53202 39.9979 2.70405 1.53202
42 2 40.0429 2.63827 -1.72921 40.0429 2.63827 -1.72921
43 1 40.9709 1.02494 -0.0522173 40.9709 1.02494 -0.0522173
44 2 42.859 1.05876 1.59374 42.859 1.05876 1.59374
45 2 42.8854 0.991009 -1.66764 42.8854 0.991009 -1.66764
46 1 43.8229 2.67129 -0.063605 43.8229 2.67129 -0.063605
47 2 45.7206 2.70351 1.57121 45.7206 2.70351 1.57121
48 2 45.7279 2.63895 -1.69035 45.7279 2.63895 -1.69035
49 1 46.675 1.02491 -0.0248414 46.675 1.02491 -0.0248414
50 2 48.5836 1.05882 1.59721 48.5836 1.05882 1.59721
51 2 48.5691 0.990867 -1.66424 48.5691 0.990867 -1.66424
52 1 49.5269 2.67113 -0.0722238 49.5269 2.67113 -0.0722238
53 2 51.4445 2.70315 1.53916 51.4445 2.70315 1.53916
54 2 51.4118 2.639 -1.72225 51.4118 2.639 -1.72225
55 1 1.04606 4.31734 -0.133654 1.04606 4.31734 -0.133654
56 2 2.97081 4.34577 1.4692 2.97081 4.34577 1.4692
57 2 2.92355 4.28884 -1.79217 2.92355 4.28884 -1.79217
58 1 3.89763 5.96362 -0.204203 3.89763 5.96362 -0.204203
59 2 5.82699 5.9872 1.3932 5.82699 5.9872 1.3932
60 2 5.77035 5.94002 -1.86817 5.77035 5.94002 -1.86817
61 1 6.74927 4.31699 -0.230249 6.74927 4.31699 -0.230249
62 2 8.68035 4.34592 1.3651 8.68035 4.34592 1.3651
63 2 8.62027 4.28805 -1.89602 8.62027 4.28805 -1.89602
64 1 9.6007 5.96332 -0.312353 9.6007 5.96332 -0.312353
65 2 11.5294 5.98792 1.28604 11.5294 5.98792 1.28604
66 2 11.4743 5.93876 -1.97529 11.4743 5.93876 -1.97529
67 1 12.4525 4.31666 -0.335917 12.4525 4.31666 -0.335917
68 2 14.3752 4.34677 1.26963 14.3752 4.34677 1.26963
69 2 14.3322 4.28663 -1.99169 14.3322 4.28663 -1.99169
70 1 15.3043 5.9631 -0.404047 15.3043 5.9631 -0.404047
71 2 17.2184 5.98949 1.21196 17.2184 5.98949 1.21196
72 2 17.193 5.93683 -2.04965 17.193 5.93683 -2.04965
73 1 18.1565 4.31652 -0.399657 18.1565 4.31652 -0.399657
74 2 20.06 4.34796 1.22884 20.06 4.34796 1.22884
75 2 20.0559 4.28523 -2.0327 20.0559 4.28523 -2.0327
76 1 21.0087 5.96309 -0.434869 21.0087 5.96309 -0.434869
77 2 22.9012 5.99105 1.20641 22.9012 5.99105 1.20641
78 2 22.919 5.93528 -2.05519 22.919 5.93528 -2.05519
79 1 23.8608 4.31666 -0.390999 23.8608 4.31666 -0.390999
80 2 25.7434 4.34882 1.26165 25.7434 4.34882 1.26165
81 2 25.7809 4.28468 -1.99965 25.7809 4.28468 -1.99965
82 1 26.7129 5.96331 -0.39054 26.7129 5.96331 -0.39054
83 2 28.5873 5.99181 1.27142 28.5873 5.99181 1.27142
84 2 28.6409 5.93496 -1.98979 28.6409 5.93496 -1.98979
85 1 29.5646 4.31701 -0.314795 29.5646 4.31701 -0.314795
86 2 31.4346 4.34891 1.35201 31.4346 4.34891 1.35201
87 2 31.4968 4.28525 -1.90895 31.4968 4.28525 -1.90895
88 1 32.4164 5.96366 -0.292603 32.4164 5.96366 -0.292603
89 2 34.2847 5.99159 1.37603 34.2847 5.99159 1.37603
90 2 34.3501 5.93583 -1.88502 34.3501 5.93583 -1.88502
91 1 35.2678 4.3174 -0.207256 35.2678 4.3174 -0.207256
92 2 37.1395 4.34835 1.45743 37.1395 4.34835 1.45743
93 2 37.1981 4.28648 -1.80365 37.1981 4.28648 -1.80365
94 1 38.1195 5.96396 -0.187407 38.1195 5.96396 -0.187407
95 2 39.9967 5.99053 1.47108 39.9967 5.99053 1.47108
96 2 40.0445 5.93737 -1.79035 40.0445 5.93737 -1.79035
97 1 40.9711 4.31763 -0.118844 40.9711 4.31763 -0.118844
98 2 42.8579 4.34739 1.52863 42.8579 4.34739 1.52863
99 2 42.8868 4.28779 -1.73291 42.8868 4.28779 -1.73291
100 1 43.823 5.96404 -0.123975 43.823 5.96404 -0.123975
101 2 45.7192 5.98898 1.51257 45.7192 5.98898 1.51257
102 2 45.7293 5.93901 -1.74926 45.7293 5.93901 -1.74926
103 1 46.6749 4.31759 -0.0902163 46.6749 4.31759 -0.0902163
104 2 48.5824 4.34636 1.53315 48.5824 4.34636 1.53315
105 2 48.5701 4.28871 -1.72854 48.5701 4.28871 -1.72854
106 1 49.5268 5.96389 -0.130607 49.5268 5.96389 -0.130607
107 2 51.4433 5.98764 1.48217 51.4433 5.98764 1.48217
108 2 51.4128 5.94008 -1.77957 51.4128 5.94008 -1.77957
109 1 1.04595 7.61026 -0.181815 1.04595 7.61026 -0.181815
110 2 2.96978 7.62787 1.42222 2.96978 7.62787 1.42222
111 2 2.92431 7.59262 -1.83949 2.92431 7.59262 -1.83949
112 1 3.89754 9.25674 -0.239881 3.89754 9.25674 -0.239881
113 2 5.82643 9.26765 1.35818 5.82643 9.26765 1.35818
114 2 5.77073 9.24582 -1.90348 5.77073 9.24582 -1.90348
115 1 6.7491 7.61003 -0.277997 6.7491 7.61003 -0.277997
116 2 8.67997 7.62801 1.31771 8.67997 7.62801 1.31771
117 2 8.62031 7.59207 -1.94373 8.62031 7.59207 -1.94373
118 1 9.60059 9.25659 -0.348704 9.60059 9.25659 -0.348704
119 2 11.5297 9.2687 1.24934 11.5297 9.2687 1.24934
120 2 11.4738 9.24452 -2.01225 11.4738 9.24452 -2.01225
121 1 12.4523 7.60982 -0.385653 12.4523 7.60982 -0.385653
122 2 14.3754 7.62958 1.21962 14.3754 7.62958 1.21962
123 2 14.3318 7.59013 -2.04198 14.3318 7.59013 -2.04198
124 1 15.3042 9.25649 -0.44393 15.3042 9.25649 -0.44393
125 2 17.2191 9.27105 1.17126 17.2191 9.27105 1.17126
126 2 17.1921 9.242 -2.09061 17.1921 9.242 -2.09061
127 1 18.1564 7.60972 -0.452936 18.1564 7.60972 -0.452936
128 2 20.0603 7.63171 1.17528 20.0603 7.63171 1.17528
129 2 20.0555 7.58784 -2.08654 20.0555 7.58784 -2.08654
130 1 21.0087 9.25647 -0.479243 21.0087 9.25647 -0.479243
131 2 22.9018 9.27334 1.16162 22.9018 9.27334 1.16162
132 2 22.9186 9.2397 -2.10027 22.9186 9.2397 -2.10027
133 1 23.8609 7.60979 -0.447444 23.8609 7.60979 -0.447444
134 2 25.7434 7.63326 1.20554 25.7434 7.63326 1.20554
135 2 25.7813 7.58646 -2.05603 25.7813 7.58646 -2.05603
136 1 26.7131 9.25659 -0.437916 26.7131 9.25659 -0.437916
137 2 28.5872 9.27456 1.22449 28.5872 9.27456 1.22449
138 2 28.6414 9.23873 -2.037 28.6414 9.23873 -2.037
139 1 29.5649 7.61004 -0.372371 29.5649 7.61004 -0.372371
140 2 31.434 7.63366 1.29554 31.434 7.63366 1.29554
141 2 31.4979 7.58653 -1.96565 31.4979 7.58653 -1.96565
142 1 32.4166 9.2568 -0.340345 32.4166 9.2568 -0.340345
143 2 34.2839 9.27439 1.32956 34.2839 9.27439 1.32956
144 2 34.3513 9.23929 -1.93174 34.3513 9.23929 -1.93174
145 1 35.268 7.61033 -0.263739 35.268 7.61033 -0.263739
146 2 37.1384 7.63289 1.40261 37.1384 7.63289 1.40261
147 2 37.1997 7.58781 -1.85871 37.1997 7.58781 -1.85871
148 1 38.1197 9.25698 -0.233094 38.1197 9.25698 -0.233094
149 2 39.9953 9.27289 1.42727 39.9953 9.27289 1.42727
150 2 40.0462 9.24107 -1.83441 40.0462 9.24107 -1.83441
151 1 40.9713 7.61049 -0.172711 40.9713 7.61049 -0.172711
152 2 42.8564 7.63116 1.47671 42.8564 7.63116 1.47671
153 2 42.8885 7.58977 -1.7851 42.8885 7.58977 -1.7851
154 1 43.8231 9.25701 -0.165928 43.8231 9.25701 -0.165928
155 2 45.7176 9.27054 1.47268 45.7176 9.27054 1.47268
156 2 45.7311 9.24342 -1.78943 45.7311 9.24342 -1.78943
157 1 46.6749 7.61045 -0.140846 46.6749 7.61045 -0.140846
158 2 48.5809 7.62915 1.48433 48.5809 7.62915 1.48433
159 2 48.5715 7.59168 -1.77769 48.5715 7.59168 -1.77769
160 1 49.5268 9.2569 -0.168577 49.5268 9.2569 -0.168577
161 2 51.442 9.26844 1.44581 51.442 9.26844 1.44581
162 2 51.414 9.24531 -1.81624 51.414 9.24531 -1.81624
163 1 1.04593 10.9034 -0.205249 1.04593 10.9034 -0.205249
164 2 2.9689 10.9075 1.39989 2.9689 10.9075 1.39989
165 2 2.92516 10.8993 -1.86204 2.92516 10.8993 -1.86204
166 1 3.89759 12.55 -0.248094 3.89759 12.55 -0.248094
167 2 5.82618 12.5467 1.35034 5.82618 12.5467 1.35034
168 2 5.77106 12.5533 -1.91139 5.77106 12.5533 -1.91139
169 1 6.74906 10.9033 -0.300082 6.74906 10.9033 -0.300082
170 2 8.68007 10.9075 1.29553 8.68007 10.9075 1.29553
171 2 8.62012 10.8992 -1.96609 8.62012 10.8992 -1.96609
172 1 9.60061 12.5501 -0.357114 9.60061 12.5501 -0.357114
173 2 11.5305 12.5478 1.24 11.5305 12.5478 1.24
174 2 11.473 12.5524 -2.02165 11.473 12.5524 -2.02165
175 1 12.4522 10.9033 -0.410076 12.4522 10.9033 -0.410076
176 2 14.3763 10.9095 1.19413 14.3763 10.9095 1.19413
177 2 14.3307 10.8971 -2.06766 14.3307 10.8971 -2.06766
178 1 15.3042 12.5501 -0.456395 15.3042 12.5501 -0.456395
179 2 17.2205 12.5504 1.1572 17.2205 12.5504 1.1572
180 2 17.1907 12.5499 -2.10477 17.1907 12.5499 -2.10477
181 1 18.1563 10.9033 -0.482286 18.1563 10.9033 -0.482286
182 2 20.0613 10.9123 1.14479 20.0613 10.9123 1.14479
183 2 20.0545 10.8944 -2.11725 20.0545 10.8944 -2.11725
184 1 21.0087 12.5502 -0.497323 21.0087 12.5502 -0.497323
185 2 22.9029 12.5532 1.14234 22.9029 12.5532 1.14234
186 2 22.9176 12.5472 -2.11972 22.9176 12.5472 -2.11972
187 1 23.861 10.9033 -0.481477 23.861 10.9033 -0.481477
188 2 25.7439 10.9143 1.17114 25.7439 10.9143 1.17114
189 2 25.7809 10.8924 -2.09069 25.7809 10.8924 -2.09069
190 1 26.7132 12.5502 -0.460121 26.7132 12.5502 -0.460121
191 2 28.5876 12.5547 1.20206 28.5876 12.5547 1.20206
192 2 28.6413 12.5457 -2.05961 28.6413 12.5457 -2.05961
193 1 29.565 10.9034 -0.408654 29.565 10.9034 -0.408654
194 2 31.4337 10.915 1.25987 31.4337 10.915 1.25987
195 2 31.4985 10.8919 -2.00156 31.4985 10.8919 -2.00156
196 1 32.4168 12.5502 -0.363705 32.4168 12.5502 -0.363705
197 2 34.2835 12.5546 1.30701 34.2835 12.5546 1.30701
198 2 34.3521 12.5458 -1.95443 34.3521 12.5458 -1.95443
199 1 35.2682 10.9036 -0.299315 35.2682 10.9036 -0.299315
200 2 37.1374 10.9141 1.36851 37.1374 10.9141 1.36851
201 2 37.2011 10.8931 -1.893 37.2011 10.8931 -1.893
202 1 38.1198 12.5502 -0.254424 38.1198 12.5502 -0.254424
203 2 39.994 12.5529 1.4076 39.994 12.5529 1.4076
204 2 40.0477 12.5475 -1.85418 40.0477 12.5475 -1.85418
205 1 40.9714 10.9036 -0.204976 40.9714 10.9036 -0.204976
206 2 42.8548 10.9118 1.44648 42.8548 10.9118 1.44648
207 2 42.8903 10.8953 -1.81553 42.8903 10.8953 -1.81553
208 1 43.8232 12.5502 -0.182707 43.8232 12.5502 -0.182707
209 2 45.716 12.5503 1.45788 45.716 12.5503 1.45788
210 2 45.7328 12.55 -1.80433 45.7328 12.55 -1.80433
211 1 46.675 10.9035 -0.16835 46.675 10.9035 -0.16835
212 2 48.5794 10.9092 1.45875 48.5794 10.9092 1.45875
213 2 48.573 10.8978 -1.80348 48.573 10.8978 -1.80348
214 1 49.5268 12.5501 -0.180182 49.5268 12.5501 -0.180182
215 2 51.4408 12.5478 1.43568 51.4408 12.5478 1.43568
216 2 51.4153 12.5523 -1.82646 51.4153 12.5523 -1.82646
217 1 1.04602 14.1966 -0.200738 1.04602 14.1966 -0.200738
218 2 2.96826 14.1868 1.40525 2.96826 14.1868 1.40525
219 2 2.92599 14.2064 -1.85665 2.92599 14.2064 -1.85665
220 1 3.89774 15.8433 -0.228275 3.89774 15.8433 -0.228275
221 2 5.82615 15.8266 1.37031 5.82615 15.8266 1.37031
222 2 5.77141 15.8599 -1.89127 5.77141 15.8599 -1.89127
223 1 6.74918 14.1967 -0.293427 6.74918 14.1967 -0.293427
224 2 8.68052 14.1866 1.30174 8.68052 14.1866 1.30174
225 2 8.61988 14.2068 -1.95981 8.61988 14.2068 -1.95981
226 1 9.60078 15.8435 -0.336615 9.60078 15.8435 -0.336615
227 2 11.5315 15.8272 1.25932 11.5315 15.8272 1.25932
228 2 11.4722 15.8598 -2.00214 11.4722 15.8598 -2.00214
229 1 12.4523 14.1969 -0.405363 12.4523 14.1969 -0.405363
230 2 14.3777 14.1885 1.19722 14.3777 14.1885 1.19722
231 2 14.3294 14.2053 -2.06451 14.3294 14.2053 -2.06451
232 1 15.3042 15.8437 -0.439292 15.3042 15.8437 -0.439292
233 2 17.2222 15.8296 1.17225 17.2222 15.8296 1.17225
234 2 17.1891 15.8579 -2.08958 17.1891 15.8579 -2.08958
235 1 18.1563 14.197 -0.482818 18.1563 14.197 -0.482818
236 2 20.0629 14.1914 1.14242 20.0629 14.1914 1.14242
237 2 20.0529 14.2027 -2.11964 20.0529 14.2027 -2.11964
238 1 21.0087 15.8439 -0.485855 21.0087 15.8439 -0.485855
239 2 22.9044 15.8323 1.15196 22.9044 15.8323 1.15196
240 2 22.916 15.8555 -2.11003 22.916 15.8555 -2.11003
241 1 23.861 14.197 -0.487468 23.861 14.197 -0.487468
242 2 25.7449 14.1937 1.16405 25.7449 14.1937 1.16405
243 2 25.78 14.2004 -2.09786 25.78 14.2004 -2.09786
244 1 26.7132 15.8439 -0.453332 26.7132 15.8439 -0.453332
245 2 28.5884 15.834 1.20791 28.5884 15.834 1.20791
246 2 28.6405 15.8537 -2.05374 28.6405 15.8537 -2.05374
247 1 29.5651 14.197 -0.417754 29.5651 14.197 -0.417754
248 2 31.4339 14.1946 1.25073 31.4339 14.1946 1.25073
249 2 31.4986 14.1995 -2.01078 31.4986 14.1995 -2.01078
250 1 32.4168 15.8437 -0.358783 32.4168 15.8437 -0.358783
251 2 34.2834 15.8342 1.31209 34.2834 15.8342 1.31209
252 2 34.3523 15.8533 -1.94931 34.3523 15.8533 -1.94931
253 1 35.2683 14.197 -0.308253 35.2683 14.197 -0.308253
254 2 37.1366 14.1937 1.36058 37.1366 14.1937 1.36058
255 2 37.202 14.2001 -1.90096 37.202 14.2001 -1.90096
256 1 38.1199 15.8436 -0.247986 38.1199 15.8436 -0.247986
257 2 39.9931 15.8327 1.41513 39.9931 15.8327 1.41513
258 2 40.0487 15.8543 -1.84655 40.0487 15.8543 -1.84655
259 1 40.9715 14.1968 -0.210534 40.9715 14.1968 -0.210534
260 2 42.8534 14.1915 1.44262 42.8534 14.1915 1.44262
261 2 42.8918 14.2021 -1.81939 42.8918 14.2021 -1.81939
262 1 43.8232 15.8434 -0.17195 43.8232 15.8434 -0.17195
263 2 45.7148 15.8303 1.47009 45.7148 15.8303 1.47009
264 2 45.7341 15.8563 -1.792 45.7341 15.8563 -1.792
265 1 46.675 14.1967 -0.168638 46.675 14.1967 -0.168638
266 2 48.578 14.1888 1.46009 48.578 14.1888 1.46009
267 2 48.5745 14.2046 -1.80213 48.5745 14.2046 -1.80213
268 1 49.5269 15.8432 -0.16424 49.5269 15.8432 -0.16424
269 2 51.4399 15.8279 1.45273 51.4399 15.8279 1.45273
270 2 51.4164 15.8585 -1.80929 51.4164 15.8585 -1.80929
271 1 1.04616 17.4897 -0.169854 1.04616 17.4897 -0.169854
272 2 2.96788 17.468 1.43668 2.96788 17.468 1.43668
273 2 2.9267 17.5114 -1.825 2.9267 17.5114 -1.825
274 1 3.89796 19.1363 -0.184332 3.89796 19.1363 -0.184332
275 2 5.82623 19.1092 1.41433 5.82623 19.1092 1.41433
276 2 5.77182 19.1634 -1.84696 5.77182 19.1634 -1.84696
277 1 6.7494 17.4899 -0.259744 6.7494 17.4899 -0.259744
278 2 8.68106 17.4673 1.33494 8.68106 17.4673 1.33494
279 2 8.61978 17.5126 -1.92636 8.61978 17.5126 -1.92636
280 1 9.60105 19.1366 -0.290809 9.60105 19.1366 -0.290809
281 2 11.5325 19.109 1.30411 11.5325 19.109 1.30411
282 2 11.4717 19.1643 -1.95702 11.4717 19.1643 -1.95702
283 1 12.4525 17.4903 -0.372326 12.4525 17.4903 -0.372326
284 2 14.3792 17.4685 1.22852 14.3792 17.4685 1.22852
285 2 14.3282 17.5121 -2.03293 14.3282 17.5121 -2.03293
286 1 15.3044 19.1371 -0.395106 15.3044 19.1371 -0.395106
287 2 17.224 19.1105 1.21436 17.224 19.1105 1.21436
288 2 17.1875 19.1637 -2.04713 17.1875 19.1637 -2.04713
289 1 18.1564 17.4906 -0.454031 18.1564 17.4906 -0.454031
290 2 20.0647 17.471 1.16898 20.0647 17.471 1.16898
291 2 20.0511 17.5102 -2.09286 20.0511 17.5102 -2.09286
292 1 21.0087 19.1373 -0.446104 21.0087 19.1373 -0.446104
293 2 22.9062 19.1128 1.18952 22.9062 19.1128 1.18952
294 2 22.9142 19.1619 -2.07222 22.9142 19.1619 -2.07222
295 1 23.861 17.4907 -0.46397 23.861 17.4907 -0.46397
296 2 25.7463 17.4733 1.18583 25.7463 17.4733 1.18583
297 2 25.7786 17.5081 -2.07594 25.7786 17.5081 -2.07594
298 1 26.7131 19.1373 -0.418066 26.7131 19.1373 -0.418066
299 2 28.5896 19.1144 1.24163 28.5896 19.1144 1.24163
300 2 28.6392 19.1602 -2.01981 28.6392 19.1602 -2.01981
301 1 29.5651 17.4906 -0.397841 29.5651 17.4906 -0.397841
302 2 31.4345 17.4743 1.26989 31.4345 17.4743 1.26989
303 2 31.4979 17.5067 -1.99148 31.4979 17.5067 -1.99148
304 1 32.4168 19.1371 -0.325931 32.4168 19.1371 -0.325931
305 2 34.2838 19.1149 1.34432 34.2838 19.1149 1.34432
306 2 34.3518 19.1592 -1.91685 34.3518 19.1592 -1.91685
307 1 35.2683 17.4903 -0.288929 35.2683 17.4903 -0.288929
308 2 37.1363 17.4738 1.38017 37.1363 17.4738 1.38017
309 2 37.2023 17.5067 -1.88119 37.2023 17.5067 -1.88119
310 1 38.1198 19.1367 -0.214704 38.1198 19.1367 -0.214704
311 2 39.9928 19.114 1.44862 39.9928 19.114 1.44862
312 2 40.0489 19.1592 -1.8128 40.0489 19.1592 -1.8128
313 1 40.9714 17.49 -0.188667 40.9714 17.49 -0.188667
314 2 42.8525 17.4721 1.46544 42.8525 17.4721 1.46544
315 2 42.8927 17.5079 -1.79635 42.8927 17.5079 -1.79635
316 1 43.8232 19.1364 -0.135771 43.8232 19.1364 -0.135771
317 2 45.7142 19.1124 1.5069 45.7142 19.1124 1.5069
318 2 45.7347 19.1602 -1.75492 45.7347 19.1602 -1.75492
319 1 46.6751 17.4898 -0.142277 46.6751 17.4898 -0.142277
320 2 48.5772 17.4699 1.48747 48.5772 17.4699 1.48747
321 2 48.5755 17.5096 -1.77453 48.5755 17.5096 -1.77453
322 1 49.527 19.1362 -0.124034 49.527 19.1362 -0.124034
323 2 51.4394 19.1106 1.49352 51.4394 19.1106 1.49352
324 2 51.4171 19.1617 -1.76823 51.4171 19.1617 -1.76823
325 1 1.04633 20.7826 -0.118137 1.04633 20.7826 -0.118137
326 2 2.96778 20.7526 1.48866 2.96778 20.7526 1.48866
327 2 2.92722 20.8126 -1.77275 2.92722 20.8126 -1.77275
328 1 3.89821 22.429 -0.123605 3.89821 22.429 -0.123605
329 2 5.82638 22.3958 1.47514 5.82638 22.3958 1.47514
330 2 5.77222 22.4623 -1.78593 5.77222 22.4623 -1.78593
331 1 6.74969 20.7828 -0.204854 6.74969 20.7828 -0.204854
332 2 8.6815 20.7514 1.38954 8.6815 20.7514 1.38954
333 2 8.61992 20.8143 -1.87146 8.61992 20.8143 -1.87146
334 1 9.60138 22.4294 -0.227202 9.60138 22.4294 -0.227202
335 2 11.5332 22.395 1.36716 11.5332 22.395 1.36716
336 2 11.4716 22.464 -1.89371 11.4716 22.464 -1.89371
337 1 12.4528 20.7833 -0.316276 12.4528 20.7833 -0.316276
338 2 14.3805 20.7516 1.28317 14.3805 20.7516 1.28317
339 2 14.3273 20.8151 -1.97793 14.3273 20.8151 -1.97793
340 1 15.3047 22.43 -0.330833 15.3047 22.43 -0.330833
341 2 17.2254 22.3953 1.27702 17.2254 22.3953 1.27702
342 2 17.1864 22.4647 -1.98416 17.1864 22.4647 -1.98416
343 1 18.1565 20.7838 -0.400138 18.1565 20.7838 -0.400138
344 2 20.0665 20.7532 1.2207 20.0665 20.7532 1.2207
345 2 20.0494 20.8144 -2.04082 20.0494 20.8144 -2.04082
346 1 21.0087 22.4304 -0.384085 21.0087 22.4304 -0.384085
347 2 22.9079 22.3967 1.2494 22.9079 22.3967 1.2494
348 2 22.9124 22.4641 -2.01205 22.9124 22.4641 -2.01205
349 1 23.8609 20.784 -0.414162 23.8609 20.784 -0.414162
350 2 25.7479 20.755 1.23357 25.7479 20.755 1.23357
351 2 25.7768 20.8129 -2.02792 25.7768 20.8129 -2.02792
352 1 26.713 22.4304 -0.359474 26.713 22.4304 -0.359474
353 2 28.591 22.398 1.29833 28.591 22.398 1.29833
354 2 28.6375 22.4627 -1.96286 28.6375 22.4627 -1.96286
355 1 29.565 20.7838 -0.351529 29.565 20.7838 -0.351529
356 2 31.4355 20.7561 1.31481 31.4355 20.7561 1.31481
357 2 31.4967 20.8114 -1.94631 31.4967 20.8114 -1.94631
358 1 32.4166 22.4301 -0.269929 32.4166 22.4301 -0.269929
359 2 34.2847 22.3987 1.39898 34.2847 22.3987 1.39898
360 2 34.3505 22.4614 -1.86193 34.3505 22.4614 -1.86193
361 1 35.2682 20.7834 -0.244053 35.2682 20.7834 -0.244053
362 2 37.1367 20.7562 1.42443 37.1367 20.7562 1.42443
363 2 37.2018 20.8105 -1.83667 37.2018 20.8105 -1.83667
364 1 38.1196 22.4296 -0.159672 38.1196 22.4296 -0.159672
365 2 39.9933 22.3987 1.50286 39.9933 22.3987 1.50286
366 2 40.0482 22.4603 -1.7583 40.0482 22.4603 -1.7583
367 1 40.9714 20.783 -0.142932 40.9714 20.783 -0.142932
368 2 42.8524 20.7554 1.51115 42.8524 20.7554 1.51115
369 2 42.8927 20.8104 -1.75036 42.8927 20.8104 -1.75036
370 1 43.8231 22.4292 -0.0800967 43.8231 22.4292 -0.0800967
371 2 45.7143 22.3982 1.56227 45.7143 22.3982 1.56227
372 2 45.7345 22.46 -1.6993 45.7345 22.46 -1.6993
373 1 46.6751 20.7827 -0.0939513 46.6751 20.7827 -0.0939513
374 2 48.5769 20.7541 1.53608 48.5769 20.7541 1.53608
375 2 48.5759 20.8111 -1.72565 48.5759 20.8111 -1.72565
376 1 49.5271 22.429 -0.0663134 49.5271 22.429 -0.0663134
377 2 51.4395 22.3972 1.55127 51.4395 22.3972 1.55127
378 2 51.4173 22.4607 -1.71024 51.4173 22.4607 -1.71024
379 1 1.04649 24.0753 -0.0539177 1.04649 24.0753 -0.0539177
380 2 2.96801 24.0418 1.55284 2.96801 24.0418 1.55284
381 2 2.92742 24.1088 -1.70841 2.92742 24.1088 -1.70841
382 1 3.89844 25.7217 -0.0557304 3.89844 25.7217 -0.0557304
383 2 5.82667 25.6878 1.54302 5.82667 25.6878 1.54302
384 2 5.77246 25.7557 -1.718 5.77246 25.7557 -1.718
385 1 6.74999 24.0755 -0.137656 6.74999 24.0755 -0.137656
386 2 8.68181 24.0405 1.45673 8.68181 24.0405 1.45673
387 2 8.62024 24.1107 -1.80412 8.62024 24.1107 -1.80412
388 1 9.6017 25.7221 -0.156183 9.6017 25.7221 -0.156183
389 2 11.5337 25.6866 1.4381 11.5337 25.6866 1.4381
390 2 11.4718 25.7577 -1.82272 11.4718 25.7577 -1.82272
391 1 12.4531 24.076 -0.246359 12.4531 24.076 -0.246359
392 2 14.3814 24.0397 1.35234 14.3814 24.0397 1.35234
393 2 14.327 24.1125 -1.90858 14.327 24.1125 -1.90858
394 1 15.3049 25.7226 -0.257196 15.3049 25.7226 -0.257196
395 2 17.2264 25.6858 1.34983 17.2264 25.6858 1.34983
396 2 17.1859 25.7595 -1.91128 17.1859 25.7595 -1.91128
397 1 18.1567 24.0765 -0.329825 18.1567 24.0765 -0.329825
398 2 20.068 24.0401 1.28934 20.068 24.0401 1.28934
399 2 20.0481 24.1131 -1.97195 20.0481 24.1131 -1.97195
400 1 21.0088 25.723 -0.310108 21.0088 25.723 -0.310108
401 2 22.9093 25.686 1.32178 22.9093 25.686 1.32178
402 2 22.911 25.7601 -1.93957 22.911 25.7601 -1.93957
403 1 23.8609 24.0768 -0.345873 23.8609 24.0768 -0.345873
404 2 25.7494 24.0411 1.29987 25.7494 24.0411 1.29987
405 2 25.775 24.1125 -1.96142 25.775 24.1125 -1.96142
406 1 26.7128 25.7231 -0.28712 26.7128 25.7231 -0.28712
407 2 28.5924 25.6867 1.36884 28.5924 25.6867 1.36884
408 2 28.6357 25.7595 -1.89224 28.6357 25.7595 -1.89224
409 1 29.5648 24.0767 -0.285942 29.5648 24.0767 -0.285942
410 2 31.4368 24.042 1.37862 31.4368 24.042 1.37862
411 2 31.495 24.1112 -1.8823 31.495 24.1112 -1.8823
412 1 32.4163 25.7228 -0.199774 32.4163 25.7228 -0.199774
413 2 34.2859 25.6874 1.46734 34.2859 25.6874 1.46734
414 2 34.3487 25.7581 -1.79347 34.3487 25.7581 -1.79347
415 1 35.268 24.0762 -0.18054 35.268 24.0762 -0.18054
416 2 37.1376 24.0426 1.4865 37.1376 24.0426 1.4865
417 2 37.2003 24.1097 -1.7744 37.2003 24.1097 -1.7744
418 1 38.1194 25.7223 -0.0916813 38.1194 25.7223 -0.0916813
419 2 39.9945 25.6882 1.56921 39.9945 25.6882 1.56921
420 2 40.0466 25.7562 -1.69185 40.0466 25.7562 -1.69185
421 1 40.9712 24.0757 -0.0805622 40.9712 24.0757 -0.0805622
422 2 42.8531 24.0429 1.57249 42.8531 24.0429 1.57249
423 2 42.8917 24.1084 -1.68882 42.8917 24.1084 -1.68882
424 1 43.823 25.7219 -0.0137784 43.823 25.7219 -0.0137784
425 2 45.7153 25.6888 1.62742 45.7153 25.6888 1.62742
426 2 45.7335 25.7548 -1.63404 45.7335 25.7548 -1.63404
427 1 46.6751 24.0754 -0.0314381 46.6751 24.0754 -0.0314381
428 2 48.5773 24.0427 1.59809 48.5773 24.0427 1.59809
429 2 48.5756 24.108 -1.66345 48.5756 24.108 -1.66345
430 1 49.5272 25.7217 -0.000177846 49.5272 25.7217 -0.000177846
431 2 51.4401 25.6887 1.61689 51.4401 25.6887 1.61689
432 2 51.417 25.7546 -1.64454 51.417 25.7546 -1.64454
433 1 1.04664 27.3681 0.0127403 1.04664 27.3681 0.0127403
434 2 2.96863 27.3364 1.61908 2.96863 27.3364 1.61908
435 2 2.92719 27.3998 -1.64221 2.92719 27.3998 -1.64221
436 1 3.89864 29.0146 0.00844449 3.89864 29.0146 0.00844449
437 2 5.82723 28.9856 1.60695 5.82723 28.9856 1.60695
438 2 5.77235 29.0436 -1.65424 5.77235 29.0436 -1.65424
439 1 6.75027 27.3682 -0.068976 6.75027 27.3682 -0.068976
440 2 8.68211 27.3354 1.52551 8.68211 27.3354 1.52551
441 2 8.62052 27.4012 -1.73543 8.62052 27.4012 -1.73543
442 1 9.60197 29.0148 -0.089629 9.60197 29.0148 -0.089629
443 2 11.5339 28.9845 1.50491 11.5339 28.9845 1.50491
444 2 11.4721 29.0453 -1.75613 11.4721 29.0453 -1.75613
445 1 12.4534 27.3686 -0.174339 12.4534 27.3686 -0.174339
446 2 14.3818 27.3341 1.4243 14.3818 27.3341 1.4243
447 2 14.3271 27.4034 -1.8367 14.3271 27.4034 -1.8367
448 1 15.3051 29.0152 -0.187053 15.3051 29.0152 -0.187053
449 2 17.2267 28.983 1.42 17.2267 28.983 1.42
450 2 17.1859 29.0477 -1.84132 17.1859 29.0477 -1.84132
451 1 18.1568 27.3691 -0.255199 18.1568 27.3691 -0.255199
452 2 20.0688 27.3333 1.36315 20.0688 27.3333 1.36315
453 2 20.0474 27.4052 -1.89819 20.0474 27.4052 -1.89819
454 1 21.0088 29.0156 -0.237297 21.0088 29.0156 -0.237297
455 2 22.91 28.982 1.39387 22.91 28.982 1.39387
456 2 22.9102 29.0493 -1.86765 22.9102 29.0493 -1.86765
457 1 23.8608 27.3694 -0.270812 23.8608 27.3694 -0.270812
458 2 25.7506 27.3332 1.37346 25.7506 27.3332 1.37346
459 2 25.7736 27.4056 -1.88786 25.7736 27.4056 -1.88786
460 1 26.7126 29.0157 -0.213758 26.7126 29.0157 -0.213758
461 2 28.5935 28.9818 1.44085 28.5935 28.9818 1.44085
462 2 28.6341 29.0496 -1.8204 28.6341 29.0496 -1.8204
463 1 29.5645 27.3693 -0.212155 29.5645 27.3693 -0.212155
464 2 31.438 27.3337 1.45064 31.438 27.3337 1.45064
465 2 31.4931 27.4048 -1.81031 31.4931 27.4048 -1.81031
466 1 32.4159 29.0154 -0.127653 32.4159 29.0154 -0.127653
467 2 34.2873 28.9823 1.53765 34.2873 28.9823 1.53765
468 2 34.3467 29.0484 -1.72333 34.3467 29.0484 -1.72333
469 1 35.2676 27.3689 -0.108937 35.2676 27.3689 -0.108937
470 2 37.1391 27.3346 1.55617 37.1391 27.3346 1.55617
471 2 37.1983 27.4031 -1.70475 37.1983 27.4031 -1.70475
472 1 38.1191 29.015 -0.022256 38.1191 29.015 -0.022256
473 2 39.9961 28.9836 1.63658 39.9961 28.9836 1.63658
474 2 40.0445 29.0463 -1.62463 40.0445 29.0463 -1.62463
475 1 40.971 27.3684 -0.0116814 40.971 27.3684 -0.0116814
476 2 42.8546 27.3357 1.63961 42.8546 27.3357 1.63961
477 2 42.89 27.401 -1.62172 42.89 27.401 -1.62172
478 1 43.8229 29.0147 0.0523747 43.8229 29.0147 0.0523747
479 2 45.7168 28.985 1.69184 45.7168 28.985 1.69184
480 2 45.7318 29.0443 -1.56974 45.7318 29.0443 -1.56974
481 1 46.6751 27.3681 0.035375 46.6751 27.3681 0.035375
482 2 48.5784 27.3365 1.66376 48.5784 27.3365 1.66376
483 2 48.5746 27.3997 -1.59779 48.5746 27.3997 -1.59779
484 1 49.5272 29.0145 0.0638919 49.5272 29.0145 0.0638919
485 2 51.4412 28.9857 1.67994 51.4412 28.9857 1.67994
486 2 51.4161 29.0433 -1.58161 51.4161 29.0433 -1.58161
487 1 1.04676 30.6611 0.0710377 1.04676 30.6611 0.0710377
488 2 2.96963 30.6365 1.67655 2.96963 30.6365 1.67655
489 2 2.92649 30.6856 -1.58495 2.92649 30.6856 -1.58495
490 1 3.89878 32.3077 0.0580945 3.89878 32.3077 0.0580945
491 2 5.82806 32.2888 1.656 5.82806 32.2888 1.656
492 2 5.77183 32.3267 -1.60545 5.77183 32.3267 -1.60545
493 1 6.75047 30.6612 -0.0102459 6.75047 30.6612 -0.0102459
494 2 8.6825 30.6363 1.58422 8.6825 30.6363 1.58422
495 2 8.62055 30.6862 -1.67699 8.62055 30.6862 -1.67699
496 1 9.60214 32.3079 -0.0391332 9.60214 32.3079 -0.0391332
497 2 11.5339 32.2882 1.55573 11.5339 32.2882 1.55573
498 2 11.4724 32.3277 -1.70565 11.4724 32.3277 -1.70565
499 1 12.4536 30.6615 -0.112785 12.4536 30.6615 -0.112785
500 2 14.3818 30.6349 1.48633 14.3818 30.6349 1.48633
501 2 14.3275 30.6882 -1.775 14.3275 30.6882 -1.775
502 1 15.3053 32.3081 -0.133101 15.3053 32.3081 -0.133101
503 2 17.2263 32.2864 1.47471 17.2263 32.2864 1.47471
504 2 17.1865 32.33 -1.78699 17.1865 32.33 -1.78699
505 1 18.157 30.6618 -0.189728 18.157 30.6618 -0.189728
506 2 20.0689 30.6332 1.42879 20.0689 30.6332 1.42879
507 2 20.0474 30.6906 -1.83287 20.0474 30.6906 -1.83287
508 1 21.0088 32.3084 -0.179105 21.0088 32.3084 -0.179105
509 2 22.9099 32.2845 1.45235 22.9099 32.2845 1.45235
510 2 22.9102 32.3324 -1.80954 22.9102 32.3324 -1.80954
511 1 23.8607 30.662 -0.202619 23.8607 30.662 -0.202619
512 2 25.7512 30.6321 1.44104 25.7512 30.6321 1.44104
513 2 25.7727 30.6921 -1.82057 25.7727 30.6921 -1.82057
514 1 26.7124 32.3084 -0.152974 26.7124 32.3084 -0.152974
515 2 28.5939 32.2835 1.50104 28.5939 32.2835 1.50104
516 2 28.6332 32.3335 -1.76056 28.6332 32.3335 -1.76056
517 1 29.5642 30.6619 -0.143487 29.5642 30.6619 -0.143487
518 2 31.4391 30.6319 1.51796 31.4391 30.6319 1.51796
519 2 31.4915 30.6919 -1.74327 31.4915 30.6919 -1.74327
520 1 32.4156 32.3083 -0.066858 32.4156 32.3083 -0.066858
521 2 34.2884 32.2837 1.59701 34.2884 32.2837 1.59701
522 2 34.345 32.3328 -1.66432 34.345 32.3328 -1.66432
523 1 35.2673 30.6616 -0.0419619 35.2673 30.6616 -0.0419619
524 2 37.1406 30.6328 1.62121 37.1406 30.6328 1.62121
525 2 37.1963 30.6904 -1.63998 37.1963 30.6904 -1.63998
526 1 38.1188 32.308 0.0361008 38.1188 32.308 0.0361008
527 2 39.9978 32.2849 1.69296 39.9978 32.2849 1.69296
528 2 40.0424 32.331 -1.56856 40.0424 32.331 -1.56856
529 1 40.9708 30.6613 0.05192 40.9708 30.6613 0.05192
530 2 42.8563 30.6344 1.70115 42.8563 30.6344 1.70115
531 2 42.888 30.6882 -1.5604 42.888 30.6882 -1.5604
532 1 43.8228 32.3078 0.106927 43.8228 32.3078 0.106927
533 2 45.7186 32.2866 1.74447 45.7186 32.2866 1.74447
534 2 45.73 32.3289 -1.51737 45.73 32.3289 -1.51737
535 1 46.675 30.6611 0.0955207 46.675 30.6611 0.0955207
536 2 48.5799 30.6358 1.72233 48.5799 30.6358 1.72233
537 2 48.5731 30.6864 -1.53941 48.5731 30.6864 -1.53941
538 1 49.5273 32.3077 0.115126 49.5273 32.3077 0.115126