ITEM: TIMESTEP
65000
ITEM: NUMBER OF ATOMS
810
ITEM: BOX BOUNDS pp pp pp
8.5126743704395214e-01 5.2166337562954247e+01
8.3154325745151569e-01 5.0184671742548055e+01
-1.0000000000000000e+01 1.0000000000000000e+01
ITEM: ATOMS id type x y z xu yu zu
1 1 1.05425 1.0456 -0.31948 1.05425 1.0456 -0.31948
2 2 2.88969 0.949765 1.38322 2.88969 0.949765 1.38322
3 2 3.01847 1.13909 -1.87093 3.01847 1.13909 -1.87093
4 1 3.90319 2.6868 -0.110168 3.90319 2.6868 -0.110168
5 2 5.73536 2.59987 1.59643 5.73536 2.59987 1.59643
6 2 5.87026 2.77235 -1.6584 5.87026 2.77235 -1.6584
7 1 6.75343 1.04095 -0.0788122 6.75343 1.04095 -0.0788122
8 2 8.58796 0.945734 1.62467 8.58796 0.945734 1.62467
9 2 8.71857 1.13536 -1.62932 8.71857 1.13536 -1.62932
10 1 9.60235 2.6833 0.131962 9.60235 2.6833 0.131962
11 2 11.4502 2.59715 1.8215 11.4502 2.59715 1.8215
12 2 11.5555 2.76977 -1.43428 11.5555 2.76977 -1.43428
13 1 12.4537 1.03838 0.137026 12.4537 1.03838 0.137026
14 2 14.3188 0.94353 1.80681 14.3188 0.94353 1.80681
15 2 14.3907 1.13429 -1.44888 14.3907 1.13429 -1.44888
16 1 15.3048 2.68238 0.29655 15.3048 2.68238 0.29655
17 2 17.1929 2.5939 1.94072 17.1929 2.5939 1.94072
18 2 17.22 2.77268 -1.31625 17.22 2.77268 -1.31625
19 1 18.1574 1.03899 0.229643 18.1574 1.03899 0.229643
20 2 20.0682 0.94372 1.84658 20.0682 0.94372 1.84658
21 2 20.0496 1.13668 -1.40974 20.0496 1.13668 -1.40974
22 1 21.0099 2.68431 0.310555 21.0099 2.68431 0.310555
23 2 22.9434 2.59171 1.90058 22.9434 2.59171 1.90058
24 2 22.879 2.77954 -1.35539 22.879 2.77954 -1.35539
25 1 23.8614 1.04246 0.158623 23.8614 1.04246 0.158623
26 2 25.8128 0.946618 1.72619 25.8128 0.946618 1.72619
27 2 25.7111 1.14104 -1.52856 25.7111 1.14104 -1.52856
28 1 26.713 2.68841 0.16744 26.713 2.68841 0.16744
29 2 28.6782 2.5921 1.71785 28.6782 2.5921 1.71785
30 2 28.5479 2.78724 -1.5358 28.5479 2.78724 -1.5358
31 1 29.5621 1.04735 -0.0459273 29.5621 1.04735 -0.0459273
32 2 31.5319 0.951591 1.49838 31.5319 0.951591 1.49838
33 2 31.3914 1.14498 -1.755 31.3914 1.14498 -1.755
34 1 32.4125 2.69311 -0.0714475 32.4125 2.69311 -0.0714475
35 2 34.3812 2.59535 1.47436 34.3812 2.59535 1.47436
36 2 34.243 2.7921 -1.77892 34.243 2.7921 -1.77892
37 1 35.261 1.05145 -0.292318 35.261 1.05145 -0.292318
38 2 37.2176 0.956317 1.26912 37.2176 0.956317 1.26912
39 2 37.1049 1.14659 -1.98551 37.1049 1.14659 -1.98551
40 1 38.1122 2.696 -0.294703 38.1122 2.696 -0.294703
41 2 40.0528 2.5995 1.28658 40.0528 2.5995 1.28658
42 2 39.9729 2.79164 -1.96899 39.9729 2.79164 -1.96899
43 1 40.9628 1.0526 -0.461765 40.9628 1.0526 -0.461765
44 2 42.8792 0.957563 1.14924 42.8792 0.957563 1.14924
45 2 42.8491 1.1457 -2.10735 42.8491 1.1457 -2.10735
46 1 43.815 2.69531 -0.392432 43.815 2.69531 -0.392432
47 2 45.7085 2.60182 1.24552 45.7085 2.60182 1.24552
48 2 45.7239 2.78636 -2.01149 45.7239 2.78636 -2.01149
49 1 46.6671 1.05022 -0.471745 46.6671 1.05022 -0.471745
50 2 48.5352 0.954595 1.19511 48.5352 0.954595 1.19511
51 2 48.6009 1.143 -2.06099 48.6009 1.143 -2.06099
52 1 49.5182 2.69154 -0.318158 49.5182 2.69154 -0.318158
53 2 51.3684 2.6016 1.36883 51.3684 2.6016 1.36883
54 2 51.4685 2.77892 -1.88709 51.4685 2.77892 -1.88709
55 1 1.05301 4.33305 -0.139783 1.05301 4.33305 -0.139783
56 2 2.89254 4.25649 1.55938 2.89254 4.25649 1.55938
57 2 3.01297 4.40783 -1.69718 3.01297 4.40783 -1.69718
58 1 3.90217 5.97574 0.0432801 3.90217 5.97574 0.0432801
59 2 5.73878 5.91759 1.74631 5.73878 5.91759 1.74631
60 2 5.86491 6.03308 -1.51144 5.86491 6.03308 -1.51144
61 1 6.75191 4.32921 0.0960091 6.75191 4.32921 0.0960091
62 2 8.58941 4.25602 1.79751 8.58941 4.25602 1.79751
63 2 8.71432 4.40208 -1.45893 8.71432 4.40208 -1.45893
64 1 9.60135 5.97332 0.279961 9.60135 5.97332 0.279961
65 2 11.4505 5.91559 1.96946 11.4505 5.91559 1.96946
66 2 11.5534 6.03151 -1.28885 11.5534 6.03151 -1.28885
67 1 12.4525 4.32725 0.311882 12.4525 4.32725 0.311882
68 2 14.3188 4.25191 1.98165 14.3188 4.25191 1.98165
69 2 14.3888 4.40368 -1.27601 14.3888 4.40368 -1.27601
70 1 15.3041 5.97268 0.450174 15.3041 5.97268 0.450174
71 2 17.191 5.90808 2.0973 17.191 5.90808 2.0973
72 2 17.2211 6.03869 -1.16179 17.2211 6.03869 -1.16179
73 1 18.1571 4.32766 0.41062 18.1571 4.32766 0.41062
74 2 20.0682 4.24584 2.02856 20.0682 4.24584 2.02856
75 2 20.0498 4.41157 -1.22908 20.0498 4.41157 -1.22908
76 1 21.0101 5.97387 0.47826 21.0101 5.97387 0.47826
77 2 22.9417 5.89874 2.07208 22.9417 5.89874 2.07208
78 2 22.882 6.05103 -1.18567 22.882 6.05103 -1.18567
79 1 23.8624 4.33033 0.34879 23.8624 4.33033 0.34879
80 2 25.8142 4.2409 1.91668 25.8142 4.2409 1.91668
81 2 25.7123 4.42226 -1.33866 25.7123 4.42226 -1.33866
82 1 26.7145 5.97677 0.351042 26.7145 5.97677 0.351042
83 2 28.6789 5.89188 1.90358 28.6789 5.89188 1.90358
84 2 28.5508 6.06383 -1.35135 28.5508 6.06383 -1.35135
85 1 29.5641 4.3345 0.151743 29.5641 4.3345 0.151743
86 2 31.5356 4.23967 1.69425 31.5356 4.23967 1.69425
87 2 31.3918 4.43137 -1.55903 31.3918 4.43137 -1.55903
88 1 32.4148 5.98052 0.122775 32.4148 5.98052 0.122775
89 2 34.3853 5.89088 1.66696 34.3853 5.89088 1.66696
90 2 34.2434 6.07156 -1.5871 34.2434 6.07156 -1.5871
91 1 35.263 4.33839 -0.0929273 35.263 4.33839 -0.0929273
92 2 37.223 4.24298 1.46431 37.223 4.24298 1.46431
93 2 37.103 4.43423 -1.79008 37.103 4.43423 -1.79008
94 1 38.1139 5.98309 -0.10083 38.1139 5.98309 -0.10083
95 2 40.0594 5.89641 1.47502 40.0594 5.89641 1.47502
96 2 39.9691 6.06939 -1.78147 39.9691 6.06939 -1.78147
97 1 40.9638 4.33959 -0.267053 40.9638 4.33959 -0.267053
98 2 42.8846 4.24869 1.33879 42.8846 4.24869 1.33879
99 2 42.8449 4.42892 -1.91832 42.8449 4.42892 -1.91832
100 1 43.8155 5.98258 -0.209704 43.8155 5.98258 -0.209704
101 2 45.7156 5.90542 1.42122 45.7156 5.90542 1.42122
102 2 45.7171 6.05786 -1.83766 45.7171 6.05786 -1.83766
103 1 46.6668 4.33728 -0.284758 46.6668 4.33728 -0.284758
104 2 48.5395 4.25378 1.37745 48.5395 4.25378 1.37745
105 2 48.5955 4.41834 -1.88029 48.5955 4.41834 -1.88029
106 1 49.5176 5.97941 -0.151313 49.5176 5.97941 -0.151313
107 2 51.3742 5.91354 1.52959 51.3742 5.91354 1.52959
108 2 51.4613 6.04335 -1.72908 51.4613 6.04335 -1.72908
109 1 1.05258 7.62254 -0.00807915 1.05258 7.62254 -0.00807915
110 2 2.89893 7.57935 1.68473 2.89893 7.57935 1.68473
111 2 3.00579 7.66456 -1.57479 3.00579 7.66456 -1.57479
112 1 3.90226 9.26707 0.129794 3.90226 9.26707 0.129794
113 2 5.74413 9.24815 1.82795 5.74413 9.24815 1.82795
114 2 5.85985 9.28554 -1.43206 5.85985 9.28554 -1.43206
115 1 6.75142 7.62008 0.213104 6.75142 7.62008 0.213104
116 2 8.59167 7.58201 1.91284 8.59167 7.58201 1.91284
117 2 8.71118 7.65812 -1.3462 8.71118 7.65812 -1.3462
118 1 9.60136 9.26595 0.357046 9.60136 9.26595 0.357046
119 2 11.45 9.2469 2.04807 11.45 9.2469 2.04807
120 2 11.5538 9.28536 -1.21203 11.5538 9.28536 -1.21203
121 1 12.452 7.61901 0.429219 12.452 7.61901 0.429219
122 2 14.3167 7.57619 2.10217 14.3167 7.57619 2.10217
123 2 14.39 7.66263 -1.15772 14.39 7.66263 -1.15772
124 1 15.3039 9.26582 0.537513 15.3039 9.26582 0.537513
125 2 17.1859 9.23642 2.19138 17.1859 9.23642 2.19138
126 2 17.2257 9.29601 -1.06961 17.2257 9.29601 -1.06961
127 1 18.1569 7.6192 0.542699 18.1569 7.6192 0.542699
128 2 20.064 7.5647 2.16676 20.064 7.5647 2.16676
129 2 20.054 7.67506 -1.09314 20.054 7.67506 -1.09314
130 1 21.0101 9.26638 0.589767 21.0101 9.26638 0.589767
131 2 22.9358 9.22171 2.19222 22.9358 9.22171 2.19222
132 2 22.8886 9.31218 -1.06793 22.8886 9.31218 -1.06793
133 1 23.8631 7.62069 0.502842 23.8631 7.62069 0.502842
134 2 25.8114 7.55288 2.07665 25.8114 7.55288 2.07665
135 2 25.7174 7.69027 -1.18095 25.7174 7.69027 -1.18095
136 1 26.7156 9.26785 0.490011 26.7156 9.26785 0.490011
137 2 28.6758 9.20914 2.04931 28.6758 9.20914 2.04931
138 2 28.5569 9.32802 -1.20824 28.5569 9.32802 -1.20824
139 1 29.566 7.62342 0.325848 29.566 7.62342 0.325848
140 2 31.5366 7.54589 1.8709 31.5366 7.54589 1.8709
141 2 31.3952 7.70268 -1.38431 31.3952 7.70268 -1.38431
142 1 32.4169 9.27012 0.281592 32.4169 9.27012 0.281592
143 2 34.3877 9.20442 1.82687 34.3877 9.20442 1.82687
144 2 34.2454 9.33702 -1.42947 34.2454 9.33702 -1.42947
145 1 35.2653 7.62632 0.0902097 35.2653 7.62632 0.0902097
146 2 37.2285 7.54745 1.6443 37.2285 7.54745 1.6443
147 2 37.1015 7.70588 -1.61164 37.1015 7.70588 -1.61164
148 1 38.1159 9.2719 0.0598703 38.1159 9.2719 0.0598703
149 2 40.0673 9.21067 1.62951 40.0673 9.21067 1.62951
150 2 39.9644 9.33312 -1.62897 39.9644 9.33312 -1.62897
151 1 40.9651 7.62736 -0.0915984 40.9651 7.62736 -0.0915984
152 2 42.8931 7.55707 1.50637 42.8931 7.55707 1.50637
153 2 42.8381 7.69669 -1.75264 42.8381 7.69669 -1.75264
154 1 43.8164 9.27156 -0.0679408 43.8164 9.27156 -0.0679408
155 2 45.7262 9.22482 1.55246 45.7262 9.22482 1.55246
156 2 45.7075 9.31706 -1.70874 45.7075 9.31706 -1.70874
157 1 46.6669 7.62562 -0.130092 46.6669 7.62562 -0.130092
158 2 48.5482 7.56966 1.52325 48.5482 7.56966 1.52325
159 2 48.5866 7.67983 -1.73719 48.5866 7.67983 -1.73719
160 1 49.5177 9.26934 -0.0394037 49.5177 9.26934 -0.0394037
161 2 51.3837 9.23953 1.63188 51.3837 9.23953 1.63188
162 2 51.452 9.29782 -1.62941 51.452 9.29782 -1.62941
163 1 1.0531 10.914 0.0512792 1.0531 10.914 0.0512792
164 2 2.9077 10.9118 1.73547 2.9077 10.9118 1.73547
165 2 2.99828 10.9154 -1.52572 2.99828 10.9154 -1.52572
166 1 3.90336 12.5595 0.133643 3.90336 12.5595 0.133643
167 2 5.75044 12.5831 1.82599 5.75044 12.5831 1.82599
168 2 5.8559 12.5355 -1.43428 5.8559 12.5355 -1.43428
169 1 6.75208 10.9129 0.251067 6.75208 10.9129 0.251067
170 2 8.59428 10.9168 1.94907 8.59428 10.9168 1.94907
171 2 8.70981 10.909 -1.31102 8.70981 10.909 -1.31102
172 1 9.6024 12.5596 0.349134 9.6024 12.5596 0.349134
173 2 11.4489 12.583 2.04242 11.4489 12.583 2.04242
174 2 11.5567 12.5363 -1.21748 11.5567 12.5363 -1.21748
175 1 12.4523 10.9129 0.468006 12.4523 10.9129 0.468006
176 2 14.3127 10.9105 2.14634 14.3127 10.9105 2.14634
177 2 14.3943 10.9157 -1.11449 14.3943 10.9157 -1.11449
178 1 15.3041 12.5603 0.542531 15.3041 12.5603 0.542531
179 2 17.1786 12.572 2.20525 17.1786 12.572 2.20525
180 2 17.2332 12.549 -1.05599 17.2332 12.549 -1.05599
181 1 18.1567 10.9133 0.602742 18.1567 10.9133 0.602742
182 2 20.0564 10.8959 2.23651 20.0564 10.8959 2.23651
183 2 20.0614 10.9312 -1.02501 20.0614 10.9312 -1.02501
184 1 21.01 12.5609 0.625102 21.01 12.5609 0.625102
185 2 22.9266 12.5551 2.23908 22.9266 12.5551 2.23908
186 2 22.8978 12.5672 -1.02249 22.8978 12.5672 -1.02249
187 1 23.8634 10.9139 0.594187 23.8634 10.9139 0.594187
188 2 25.8047 10.8797 2.17793 25.8047 10.8797 2.17793
189 2 25.7254 10.949 -1.08214 25.7254 10.949 -1.08214
190 1 26.7162 12.5615 0.55989 26.7162 12.5615 0.55989
191 2 28.6696 12.5397 2.12877 28.6696 12.5397 2.12877
192 2 28.5649 12.5841 -1.1311 28.5649 12.5841 -1.1311
193 1 29.5675 10.9152 0.446121 29.5675 10.9152 0.446121
194 2 31.5346 10.8687 1.99697 31.5346 10.8687 1.99697
195 2 31.4007 10.9627 -1.26091 31.4007 10.9627 -1.26091
196 1 32.4186 12.5625 0.376761 32.4186 12.5625 0.376761
197 2 34.388 12.5327 1.92489 34.388 12.5327 1.92489
198 2 34.2486 12.593 -1.33368 34.2486 12.593 -1.33368
199 1 35.2674 10.9168 0.224626 35.2674 10.9168 0.224626
200 2 37.2334 10.8687 1.77652 37.2334 10.8687 1.77652
201 2 37.1006 10.9655 -1.48162 37.1006 10.9655 -1.48162
202 1 38.1178 12.5632 0.158151 38.1178 12.5632 0.158151
203 2 40.0752 12.5386 1.7212 40.0752 12.5386 1.7212
204 2 39.9596 12.5878 -1.5388 39.9596 12.5878 -1.5388
205 1 40.9666 10.9173 0.0327742 40.9666 10.9173 0.0327742
206 2 42.9036 10.8804 1.62088 42.9036 10.8804 1.62088
207 2 42.83 10.9536 -1.64 42.83 10.9536 -1.64
208 1 43.8175 12.5626 0.00665866 43.8175 12.5626 0.00665866
209 2 45.7385 12.5546 1.61437 45.7385 12.5546 1.61437
210 2 45.6971 12.5696 -1.64793 45.6971 12.5696 -1.64793
211 1 46.6675 10.916 -0.0362538 46.6675 10.916 -0.0362538
212 2 48.56 10.8976 1.60493 48.56 10.8976 1.60493
213 2 48.5758 10.9331 -1.65744 48.5758 10.9331 -1.65744
214 1 49.5185 12.5609 -0.00301257 49.5185 12.5609 -0.00301257
215 2 51.3952 12.5721 1.65634 51.3952 12.5721 1.65634
216 2 51.4423 12.5484 -1.60579 51.4423 12.5484 -1.60579
217 1 1.05429 14.206 0.0276243 1.05429 14.206 0.0276243
218 2 2.91712 14.2447 1.70218 2.91712 14.2447 1.70218
219 2 2.99161 14.1662 -1.55849 2.99161 14.1662 -1.55849
220 1 3.9051 15.8511 0.0543023 3.9051 15.8511 0.0543023
221 2 5.7566 15.9128 1.74079 5.7566 15.9128 1.74079
222 2 5.85348 15.7887 -1.51774 5.85348 15.7887 -1.51774
223 1 6.75371 14.2056 0.202963 6.75371 14.2056 0.202963
224 2 8.59696 14.251 1.89913 8.59696 14.251 1.89913
225 2 8.71024 14.1601 -1.35982 8.71024 14.1601 -1.35982
226 1 9.60431 15.8518 0.256984 9.60431 15.8518 0.256984
227 2 11.4477 15.9144 1.95257 11.4477 15.9144 1.95257
228 2 11.5612 15.7896 -1.30513 11.5612 15.7896 -1.30513
229 1 12.4534 14.2066 0.42049 12.4534 14.2066 0.42049
230 2 14.3077 14.246 2.10499 14.3077 14.246 2.10499
231 2 14.4008 14.1676 -1.15465 14.4008 14.1676 -1.15465
232 1 15.3051 15.8537 0.46276 15.3051 15.8537 0.46276
233 2 17.1705 15.9058 2.13471 17.1705 15.9058 2.13471
234 2 17.2425 15.8022 -1.12469 17.2425 15.8022 -1.12469
235 1 18.1568 14.2079 0.578959 18.1568 14.2079 0.578959
236 2 20.0467 14.2318 2.22403 20.0467 14.2318 2.22403
237 2 20.0712 14.1843 -1.03727 20.0712 14.1843 -1.03727
238 1 21.0099 15.8553 0.576465 21.0099 15.8553 0.576465
239 2 22.9158 15.8906 2.20271 22.9158 15.8906 2.20271
240 2 22.9084 15.8205 -1.05828 22.9084 15.8205 -1.05828
241 1 23.8633 14.2086 0.606007 23.8633 14.2086 0.606007
242 2 25.7953 14.2148 2.20154 25.7953 14.2148 2.20154
243 2 25.7351 14.2028 -1.05964 25.7351 14.2028 -1.05964
244 1 26.7162 15.8561 0.547402 26.7162 15.8561 0.547402
245 2 28.6613 15.8757 2.12661 28.6613 15.8757 2.12661
246 2 28.5738 15.8368 -1.13383 28.5738 15.8368 -1.13383
247 1 29.5682 14.2091 0.490926 29.5682 14.2091 0.490926
248 2 31.5302 14.2024 2.04912 31.5302 14.2024 2.04912
249 2 31.4073 14.2163 -1.21049 31.4073 14.2163 -1.21049
250 1 32.4194 15.8563 0.390697 32.4194 15.8563 0.390697
251 2 34.3864 15.8682 1.94231 34.3864 15.8682 1.94231
252 2 34.2524 15.8447 -1.31694 34.2524 15.8447 -1.31694
253 1 35.269 14.2095 0.28579 35.269 14.2095 0.28579
254 2 37.2369 14.2011 1.83608 37.2369 14.2011 1.83608
255 2 37.1003 14.2181 -1.42327 37.1003 14.2181 -1.42327
256 1 38.119 15.856 0.175577 38.119 15.856 0.175577
257 2 40.0815 15.8725 1.7324 40.0815 15.8725 1.7324
258 2 39.9556 15.839 -1.52739 39.9556 15.839 -1.52739
259 1 40.968 14.2092 0.0829102 40.968 14.2092 0.0829102
260 2 42.9139 14.2123 1.66044 42.9139 14.2123 1.66044
261 2 42.8219 14.2054 -1.60078 42.8219 14.2054 -1.60078
262 1 43.8184 15.8545 8.35307e-05 43.8184 15.8545 8.35307e-05
263 2 45.7497 15.8862 1.59515 45.7497 15.8862 1.59515
264 2 45.6875 15.8213 -1.66619 45.6875 15.8213 -1.66619
265 1 46.6684 14.2077 -0.0206261 46.6684 14.2077 -0.0206261
266 2 48.5725 14.2297 1.60703 48.5725 14.2297 1.60703
267 2 48.5652 14.1842 -1.65526 48.5652 14.1842 -1.65526
268 1 49.5195 15.8523 -0.0486525 49.5195 15.8523 -0.0486525
269 2 51.4061 15.902 1.59866 51.4061 15.902 1.59866
270 2 51.4338 15.8011 -1.6622 51.4338 15.8011 -1.6622
271 1 1.05569 17.4965 -0.0743032 1.05569 17.4965 -0.0743032
272 2 2.92533 17.5688 1.59152 2.92533 17.5688 1.59152
273 2 2.98672 17.4228 -1.66705 2.98672 17.4228 -1.66705
274 1 3.90698 19.1403 -0.093369 3.90698 19.1403 -0.093369
275 2 5.7616 19.2289 1.58848 5.7616 19.2289 1.58848
276 2 5.85266 19.0509 -1.66769 5.85266 19.0509 -1.66769
277 1 6.75589 17.4962 0.0773183 6.75589 17.4962 0.0773183
278 2 8.59947 17.5753 1.77183 8.59947 17.5753 1.77183
279 2 8.71208 17.417 -1.48459 8.71208 17.417 -1.48459
280 1 9.60672 19.1413 0.096558 9.60672 19.1413 0.096558
281 2 11.4469 19.2322 1.79423 11.4469 19.2322 1.79423
282 2 11.5664 19.051 -1.46065 11.5664 19.051 -1.46065
283 1 12.4553 17.4981 0.29384 12.4553 17.4981 0.29384
284 2 14.3031 17.5733 1.98416 14.3031 17.5733 1.98416
285 2 14.4085 17.4236 -1.27269 14.4085 17.4236 -1.27269
286 1 15.3068 19.1443 0.310798 15.3068 19.1443 0.310798
287 2 17.1633 19.2284 1.99099 17.1633 19.2284 1.99099
288 2 17.252 19.0614 -1.26548 17.252 19.0614 -1.26548
289 1 18.1575 17.5007 0.473623 18.1575 17.5007 0.473623
290 2 20.0367 17.563 2.12968 20.0367 17.563 2.12968
291 2 20.0818 17.4391 -1.12948 20.0818 17.4391 -1.12948
292 1 21.0103 19.1473 0.450586 21.0103 19.1473 0.450586
293 2 22.9053 19.2185 2.08801 22.9053 19.2185 2.08801
294 2 22.919 19.0772 -1.17077 22.919 19.0772 -1.17077
295 1 23.8631 17.5024 0.534605 23.8631 17.5024 0.534605
296 2 25.7848 17.549 2.14174 25.7848 17.549 2.14174
297 2 25.7454 17.4564 -1.11853 25.7454 17.4564 -1.11853
298 1 26.7159 19.1491 0.453281 26.7159 19.1491 0.453281
299 2 28.6524 19.2076 2.04194 28.6524 19.2076 2.04194
300 2 28.5824 19.0912 -1.21714 28.5824 19.0912 -1.21714
301 1 29.5683 17.5031 0.451314 29.5683 17.5031 0.451314
302 2 31.5241 17.5381 2.01684 31.5241 17.5381 2.01684
303 2 31.414 17.4684 -1.24252 31.414 17.4684 -1.24252
304 1 32.4195 19.1494 0.319914 32.4195 19.1494 0.319914
305 2 34.3829 19.2012 1.87506 34.3829 19.2012 1.87506
306 2 34.2563 19.0974 -1.38292 34.2563 19.0974 -1.38292
307 1 35.2698 17.5028 0.261954 35.2698 17.5028 0.261954
308 2 37.2382 17.5358 1.81123 37.2382 17.5358 1.81123
309 2 37.1006 17.4695 -1.44742 37.1006 17.4695 -1.44742
310 1 38.1195 19.1481 0.108498 38.1195 19.1481 0.108498
311 2 40.0848 19.2025 1.66081 40.0848 19.2025 1.66081
312 2 39.9531 19.0926 -1.59701 39.9531 19.0926 -1.59701
313 1 40.9689 17.5014 0.0492514 40.9689 17.5014 0.0492514
314 2 42.9218 17.5435 1.61746 42.9218 17.5435 1.61746
315 2 42.8154 17.4579 -1.64215 42.8154 17.4579 -1.64215
316 1 43.8188 19.1453 -0.0862609 43.8188 19.1453 -0.0862609
317 2 45.7574 19.2103 1.49893 45.7574 19.2103 1.49893
318 2 45.6807 19.0782 -1.75997 45.6807 19.0782 -1.75997
319 1 46.6692 17.4988 -0.0859411 46.6692 17.4988 -0.0859411
320 2 48.5828 17.5566 1.52953 48.5828 17.5566 1.52953
321 2 48.5565 17.439 -1.73079 48.5565 17.439 -1.73079
322 1 49.5204 19.1421 -0.167329 49.5204 19.1421 -0.167329
323 2 51.4143 19.2205 1.47044 51.4143 19.2205 1.47044
324 2 51.4278 19.0616 -1.7881 51.4278 19.0616 -1.7881
325 1 1.05688 20.7848 -0.234988 1.05688 20.7848 -0.234988
326 2 2.93087 20.877 1.42503 2.93087 20.877 1.42503
327 2 2.98422 20.691 -1.83155 2.98422 20.691 -1.83155
328 1 3.90858 22.4277 -0.281633 3.90858 22.4277 -0.281633
329 2 5.76476 22.5267 1.39797 5.76476 22.5267 1.39797
330 2 5.85325 22.3278 -1.85698 5.85325 22.3278 -1.85698
331 1 6.75815 20.7842 -0.102877 6.75815 20.7842 -0.102877
332 2 8.60156 20.8827 1.59075 8.60156 20.8827 1.59075
333 2 8.71464 20.6857 -1.66353 8.71464 20.6857 -1.66353
334 1 9.60911 22.4285 -0.102995 9.60911 22.4285 -0.102995
335 2 11.4468 22.5312 1.59658 11.4468 22.5312 1.59658
336 2 11.5711 22.3266 -1.65677 11.5711 22.3266 -1.65677
337 1 12.4576 20.7865 0.110007 12.4576 20.7865 0.110007
338 2 14.2997 20.8844 1.80518 14.2997 20.8844 1.80518
339 2 14.4159 20.6899 -1.44903 14.4159 20.6899 -1.44903
340 1 15.3088 22.4319 0.113488 15.3088 22.4319 0.113488
341 2 17.1585 22.5331 1.79998 17.1585 22.5331 1.79998
342 2 17.26 22.3327 -1.45438 17.26 22.3327 -1.45438
343 1 18.1587 20.7903 0.304092 18.1587 20.7903 0.304092
344 2 20.0282 20.8806 1.96936 20.0282 20.8806 1.96936
345 2 20.0917 20.7017 -1.28709 20.0917 20.7017 -1.28709
346 1 21.0109 22.4361 0.269048 21.0109 22.4361 0.269048
347 2 22.897 22.5309 1.91512 22.897 22.5309 1.91512
348 2 22.9278 22.3433 -1.34137 22.9278 22.3433 -1.34137
349 1 23.8631 20.7935 0.391099 23.8631 20.7935 0.391099
350 2 25.775 20.873 2.00809 25.775 20.873 2.00809
351 2 25.7546 20.7153 -1.24997 25.7546 20.7153 -1.24997
352 1 26.7155 22.4391 0.29325 26.7155 22.4391 0.29325
353 2 28.6443 22.5265 1.88945 28.6443 22.5265 1.88945
354 2 28.5894 22.3529 -1.36749 28.5894 22.3529 -1.36749
355 1 29.5679 20.795 0.333099 29.5679 20.795 0.333099
356 2 31.5173 20.866 1.90507 31.5173 20.866 1.90507
357 2 31.4201 20.7244 -1.35243 31.4201 20.7244 -1.35243
358 1 32.4187 22.4398 0.176398 32.4187 22.4398 0.176398
359 2 34.3779 22.5224 1.73527 34.3779 22.5224 1.73527
360 2 34.2599 22.3572 -1.52054 34.2599 22.3572 -1.52054
361 1 35.2696 20.7944 0.156742 35.2696 20.7944 0.156742
362 2 37.2367 20.8628 1.70632 37.2367 20.8628 1.70632
363 2 37.1018 20.7253 -1.5502 37.1018 20.7253 -1.5502
364 1 38.1189 22.438 -0.0307607 38.1189 22.438 -0.0307607
365 2 40.0841 22.5198 1.52042 40.0841 22.5198 1.52042
366 2 39.9529 22.3546 -1.73502 39.9529 22.3546 -1.73502
367 1 40.9688 20.7919 -0.0618427 40.9688 20.7919 -0.0618427
368 2 42.9255 20.8646 1.50061 42.9255 20.8646 1.50061
369 2 42.8118 20.717 -1.75644 42.8118 20.717 -1.75644
370 1 43.8185 22.4341 -0.235576 43.8185 22.4341 -0.235576
371 2 45.7601 22.5197 1.34498 45.7601 22.5197 1.34498
372 2 45.6777 22.3459 -1.91169 45.6777 22.3459 -1.91169
373 1 46.6694 20.788 -0.21936 46.6694 20.788 -0.21936
374 2 48.589 20.8702 1.38807 48.589 20.8702 1.38807
375 2 48.5513 20.7033 -1.86985 48.5513 20.7033 -1.86985
376 1 49.5208 22.4299 -0.336111 49.5208 22.4299 -0.336111
377 2 51.4184 22.5222 1.29681 51.4184 22.5222 1.29681
378 2 51.4252 22.3353 -1.96012 51.4252 22.3353 -1.96012
379 1 1.05766 24.072 -0.424119 1.05766 24.072 -0.424119
380 2 2.93305 24.1672 1.23429 2.93305 24.1672 1.23429
381 2 2.98431 23.9752 -2.02184 2.98431 23.9752 -2.02184
382 1 3.90971 25.715 -0.475944 3.90971 25.715 -0.475944
383 2 5.76572 25.8066 1.20434 5.76572 25.8066 1.20434
384 2 5.85504 25.6225 -2.05136 5.85504 25.6225 -2.05136
385 1 6.76004 24.0712 -0.304281 6.76004 24.0712 -0.304281
386 2 8.60304 24.1709 1.3897 8.60304 24.1709 1.3897
387 2 8.71719 23.9714 -1.86437 8.71719 23.9714 -1.86437
388 1 9.61099 25.7155 -0.305025 9.61099 25.7155 -0.305025
389 2 11.4474 25.8112 1.39621 11.4474 25.8112 1.39621
390 2 11.5742 25.6207 -1.85793 11.5742 25.6207 -1.85793
391 1 12.4599 24.0733 -0.0974132 12.4599 24.0733 -0.0974132
392 2 14.2983 24.1759 1.60119 14.2983 24.1759 1.60119
393 2 14.4212 23.9723 -1.6523 14.4212 23.9723 -1.6523
394 1 15.3105 25.7186 -0.0927933 15.3105 25.7186 -0.0927933
395 2 17.1568 25.818 1.59723 17.1568 25.818 1.59723
396 2 17.2645 25.6214 -1.65728 17.2645 25.6214 -1.65728
397 1 18.1601 24.0775 0.100948 18.1601 24.0775 0.100948
398 2 20.0231 24.1793 1.77247 20.0231 24.1793 1.77247
399 2 20.0987 23.978 -1.48258 20.0987 23.978 -1.48258
400 1 21.0117 25.723 0.0650431 21.0117 25.723 0.0650431
401 2 22.8926 25.824 1.71611 22.8926 25.824 1.71611
402 2 22.9328 25.6246 -1.53976 22.9328 25.6246 -1.53976
403 1 23.8632 24.0816 0.200849 23.8632 24.0816 0.200849
404 2 25.7679 24.1798 1.82479 25.7679 24.1798 1.82479
405 2 25.7612 23.9854 -1.43151 25.7612 23.9854 -1.43151
406 1 26.715 25.7266 0.0962133 26.715 25.7266 0.0962133
407 2 28.6386 25.827 1.69736 28.6386 25.827 1.69736
408 2 28.5935 25.628 -1.55843 28.5935 25.628 -1.55843
409 1 29.567 24.0839 0.157049 29.567 24.0839 0.157049
410 2 31.5108 24.1781 1.73427 31.5108 24.1781 1.73427
411 2 31.4247 23.9906 -1.52132 31.4247 23.9906 -1.52132
412 1 32.4174 25.7277 -0.0136275 32.4174 25.7277 -0.0136275
413 2 34.3723 25.8256 1.54933 34.3723 25.8256 1.54933
414 2 34.2628 25.6299 -1.70512 34.2628 25.6299 -1.70512
415 1 35.2685 24.0834 -0.0106625 35.2685 24.0834 -0.0106625
416 2 37.2325 24.1743 1.54137 37.2325 24.1743 1.54137
417 2 37.1039 23.9916 -1.71316 37.1039 23.9916 -1.71316
418 1 38.1174 25.7257 -0.21601 38.1174 25.7257 -0.21601
419 2 40.0796 25.8197 1.33825 40.0796 25.8197 1.33825
420 2 39.9549 25.63 -1.91605 39.9549 25.63 -1.91605
421 1 40.9679 24.0801 -0.22915 40.9679 24.0801 -0.22915
422 2 42.9242 24.1698 1.33287 42.9242 24.1698 1.33287
423 2 42.8117 23.9882 -1.92238 42.8117 23.9882 -1.92238
424 1 43.8176 25.7215 -0.419546 43.8176 25.7215 -0.419546
425 2 45.7577 25.8121 1.16272 45.7577 25.8121 1.16272
426 2 45.6791 25.6284 -2.09334 45.6791 25.6284 -2.09334
427 1 46.6691 24.0756 -0.395219 46.6691 24.0756 -0.395219
428 2 48.5901 24.1668 1.21017 48.5901 24.1668 1.21017
429 2 48.5502 23.9817 -2.04657 48.5502 23.9817 -2.04657
430 1 49.5208 25.7173 -0.523512 49.5208 25.7173 -0.523512
431 2 51.4181 25.8069 1.11018 51.4181 25.8069 1.11018
432 2 51.4264 25.6255 -2.1469 51.4264 25.6255 -2.1469
433 1 1.05811 27.36 -0.607825 1.05811 27.36 -0.607825
434 2 2.93182 27.4418 1.05333 2.93182 27.4418 1.05333
435 2 2.98699 27.277 -2.2041 2.98699 27.277 -2.2041
436 1 3.91037 29.0043 -0.642857 3.91037 29.0043 -0.642857
437 2 5.7643 29.0732 1.04084 5.7643 29.0732 1.04084
438 2 5.85804 28.9347 -2.21692 5.85804 28.9347 -2.21692
439 1 6.76128 27.3592 -0.490723 6.76128 27.3592 -0.490723
440 2 8.60357 27.4425 1.20488 8.60357 27.4425 1.20488
441 2 8.71936 27.2759 -2.05093 8.71936 27.2759 -2.05093
442 1 9.61204 29.0045 -0.473725 9.61204 29.0045 -0.473725
443 2 11.4483 29.0763 1.22866 11.4483 29.0763 1.22866
444 2 11.5754 28.9333 -2.02793 11.5754 28.9333 -2.02793
445 1 12.4614 27.3608 -0.290385 12.4614 27.3608 -0.290385
446 2 14.2989 27.4492 1.40977 14.2989 27.4492 1.40977
447 2 14.4235 27.2738 -1.84538 14.4235 27.2738 -1.84538
448 1 15.3116 29.0067 -0.270415 15.3116 29.0067 -0.270415
449 2 17.1584 29.0864 1.41969 17.1584 29.0864 1.41969
450 2 17.2646 28.9289 -1.83711 17.2646 28.9289 -1.83711
451 1 18.1612 27.3644 -0.0982347 18.1612 27.3644 -0.0982347
452 2 20.0221 27.4589 1.57563 20.0221 27.4589 1.57563
453 2 20.1012 27.2723 -1.68038 20.1012 27.2723 -1.68038
454 1 21.0121 29.0103 -0.123855 21.0121 29.0103 -0.123855
455 2 22.8928 29.0991 1.52764 22.8928 29.0991 1.52764
456 2 22.9327 28.9241 -1.7298 22.9327 28.9241 -1.7298
457 1 23.8632 27.3684 -0.00113104 23.8632 27.3684 -0.00113104
458 2 25.7647 27.4674 1.62595 25.7647 27.4674 1.62595
459 2 25.7636 27.272 -1.63048 25.7636 27.272 -1.63048
460 1 26.7142 29.0135 -0.101617 26.7142 29.0135 -0.101617
461 2 28.6363 29.1086 1.50119 28.6363 29.1086 1.50119
462 2 28.5936 28.9204 -1.75542 28.5936 28.9204 -1.75542
463 1 29.5659 27.3709 -0.0445012 29.5659 27.3709 -0.0445012
464 2 31.506 27.471 1.5364 31.506 27.471 1.5364
465 2 31.4268 27.272 -1.71879 31.4268 27.272 -1.71879
466 1 32.4156 29.0146 -0.215163 32.4156 29.0146 -0.215163
467 2 34.3672 29.1104 1.35175 34.3672 29.1104 1.35175
468 2 34.2642 28.9192 -1.90324 34.2642 28.9192 -1.90324
469 1 35.2667 27.3705 -0.209094 35.2667 27.3705 -0.209094
470 2 37.2266 27.4675 1.34759 37.2266 27.4675 1.34759
471 2 37.1065 27.2729 -1.90658 37.1065 27.2729 -1.90658
472 1 38.1155 29.0128 -0.413244 38.1155 29.0128 -0.413244
473 2 40.0725 29.1028 1.14766 40.0725 29.1028 1.14766
474 2 39.9587 28.9218 -2.10747 39.9587 28.9218 -2.10747
475 1 40.9665 27.3673 -0.421458 40.9665 27.3673 -0.421458
476 2 42.9187 27.458 1.14562 42.9187 27.458 1.14562
477 2 42.815 27.2748 -2.10972 42.815 27.2748 -2.10972
478 1 43.8165 29.0093 -0.605255 43.8165 29.0093 -0.605255
479 2 45.7511 29.0898 0.984378 45.7511 29.0898 0.984378
480 2 45.6843 28.927 -2.27291 45.6843 28.927 -2.27291
481 1 46.6686 27.3631 -0.581349 46.6686 27.3631 -0.581349
482 2 48.5865 27.4477 1.02818 48.5865 27.4477 1.02818
483 2 48.5534 27.2764 -2.22923 48.5534 27.2764 -2.22923
484 1 49.5207 29.006 -0.697054 49.5207 29.006 -0.697054
485 2 51.4138 29.0783 0.942518 51.4138 29.0783 0.942518
486 2 51.4311 28.9321 -2.31615 51.4311 28.9321 -2.31615
487 1 1.05837 30.6504 -0.756022 1.05837 30.6504 -0.756022
488 2 2.92744 30.7058 0.911521 2.92744 30.7058 0.911521
489 2 2.99213 30.5941 -2.34788 2.99213 30.5941 -2.34788
490 1 3.91062 32.2962 -0.756167 3.91062 32.2962 -0.756167
491 2 5.76052 32.3318 0.933003 5.76052 32.3318 0.933003
492 2 5.86227 32.2601 -2.32662 5.86227 32.2601 -2.32662
493 1 6.76182 30.6498 -0.631024 6.76182 30.6498 -0.631024
494 2 8.60276 30.7029 1.0672 8.60276 30.7029 1.0672
495 2 8.72129 30.5965 -2.19102 8.72129 30.5965 -2.19102
496 1 9.61218 32.2962 -0.581418 9.61218 32.2962 -0.581418
497 2 11.449 32.3325 1.12131 11.449 32.3325 1.12131
498 2 11.5749 32.26 -2.13767 11.5749 32.26 -2.13767
499 1 12.462 30.6507 -0.435127 12.462 30.6507 -0.435127
500 2 14.3012 30.7097 1.26428 14.3012 30.7097 1.26428
501 2 14.4223 30.5926 -1.99368 14.4223 30.5926 -1.99368
502 1 15.3116 32.2974 -0.388806 15.3116 32.2974 -0.388806
503 2 17.1626 32.3439 1.29769 17.1626 32.3439 1.29769
504 2 17.2605 32.2521 -1.96198 17.2605 32.2521 -1.96198
505 1 18.1616 30.6531 -0.25758 18.1616 30.6531 -0.25758
506 2 20.0252 30.7236 1.4141 20.0252 30.7236 1.4141
507 2 20.0986 30.5847 -1.84455 20.0986 30.5847 -1.84455
508 1 21.0119 32.2997 -0.264262 21.0119 32.2997 -0.264262
509 2 22.8973 32.3608 1.38271 22.8973 32.3608 1.38271
510 2 22.9273 32.2405 -1.87743 22.9273 32.2405 -1.87743
511 1 23.8628 30.6562 -0.178143 23.8628 30.6562 -0.178143
512 2 25.766 30.7382 1.44755 25.766 30.7382 1.44755
513 2 25.761 30.5765 -1.81086 25.761 30.5765 -1.81086
514 1 26.7132 32.3021 -0.265081 26.7132 32.3021 -0.265081
515 2 28.6378 32.3754 1.3355 28.6378 32.3754 1.3355
516 2 28.5895 32.2304 -1.92333 28.5895 32.2304 -1.92333
517 1 29.5644 30.6583 -0.234991 29.5644 30.6583 -0.234991
518 2 31.5036 30.7466 1.34735 31.5036 30.7466 1.34735
519 2 31.4258 30.5713 -1.90932 31.4258 30.5713 -1.90932
520 1 32.4137 32.3028 -0.392657 32.4137 32.3028 -0.392657
521 2 34.3637 32.3802 1.17704 34.3637 32.3802 1.17704
522 2 34.2638 32.226 -2.08003 34.2638 32.226 -2.08003
523 1 35.2646 30.658 -0.402803 35.2646 30.658 -0.402803
524 2 37.2203 30.7442 1.15967 37.2203 30.7442 1.15967
525 2 37.109 30.5714 -2.09602 37.109 30.5714 -2.09602
526 1 38.1135 32.3015 -0.588462 38.1135 32.3015 -0.588462
527 2 40.0645 32.3726 0.980909 40.0645 32.3726 0.980909
528 2 39.9635 32.2299 -2.27646 39.9635 32.2299 -2.27646
529 1 40.9648 30.6555 -0.605045 40.9648 30.6555 -0.605045
530 2 42.9103 30.7321 0.971167 42.9103 30.7321 0.971167
531 2 42.8209 30.5776 -2.28597 42.8209 30.5776 -2.28597
532 1 43.8155 32.2992 -0.762115 43.8155 32.2992 -0.762115
533 2 45.7418 32.357 0.838648 45.7418 32.357 0.838648
534 2 45.6924 32.2403 -2.42081 45.6924 32.2403 -2.42081
535 1 46.6681 30.6524 -0.746477 46.6681 30.6524 -0.746477
536 2 48.5793 30.717 0.872132 48.5793 30.717 0.872132
537 2 48.5603 30.5866 -2.38714 48.5603 30.5866 -2.38714
538 1 49.5207 32.2972 -0.829396 49.5207 32.2972 -0.829396
539 2 51.4064 32.3413 0.819789 51.4064 32.3413 0.819789
540 2 51.4388 32.2522 -2.44072 51.4388 32.2522 -2.44072