ITEM: TIMESTEP
13000
ITEM: NUMBER OF ATOMS
810
ITEM: BOX BOUNDS pp pp pp
8.4416887366787419e-01 5.2173436126331410e+01
8.1409136685204819e-01 5.0202123633146911e+01
-1.0000000000000000e+01 1.0000000000000000e+01
ITEM: ATOMS id type x y z xu yu zu
1 1 1.04807 1.02778 -0.0284924 1.04807 1.02778 -0.0284924
2 2 2.97809 0.988836 1.56782 2.97809 0.988836 1.56782
3 2 2.92005 1.06695 -1.69291 2.92005 1.06695 -1.69291
4 1 3.89975 2.67411 -0.0399896 3.89975 2.67411 -0.0399896
5 2 5.83459 2.63514 1.55055 5.83459 2.63514 1.55055
6 2 5.7667 2.7133 -1.70998 5.7667 2.7133 -1.70998
7 1 6.75091 1.02842 -0.139085 6.75091 1.02842 -0.139085
8 2 8.68631 0.987972 1.45074 8.68631 0.987972 1.45074
9 2 8.61721 1.06902 -1.8097 8.61721 1.06902 -1.8097
10 1 9.60239 2.67473 -0.158623 9.60239 2.67473 -0.158623
11 2 11.5344 2.63431 1.43548 11.5344 2.63431 1.43548
12 2 11.4723 2.71523 -1.82511 11.4723 2.71523 -1.82511
13 1 12.4536 1.02898 -0.25386 12.4536 1.02898 -0.25386
14 2 14.378 0.987366 1.34937 14.378 0.987366 1.34937
15 2 14.3313 1.07055 -1.91141 14.3313 1.07055 -1.91141
16 1 15.3054 2.6751 -0.252486 15.3054 2.6751 -0.252486
17 2 17.2202 2.63435 1.36234 17.2202 2.63435 1.36234
18 2 17.1929 2.71572 -1.89873 17.1929 2.71572 -1.89873
19 1 18.1571 1.02914 -0.317267 18.1571 1.02914 -0.317267
20 2 20.0599 0.987068 1.31167 20.0599 0.987068 1.31167
21 2 20.0568 1.071 -1.94943 20.0568 1.071 -1.94943
22 1 21.0089 2.675 -0.277212 21.0089 2.675 -0.277212
23 2 22.9009 2.635 1.36443 22.9009 2.635 1.36443
24 2 22.9194 2.71477 -1.89675 22.9194 2.71477 -1.89675
25 1 23.8608 1.02883 -0.301068 23.8608 1.02883 -0.301068
26 2 25.7418 0.98724 1.35316 25.7418 0.98724 1.35316
27 2 25.7821 1.07017 -1.90772 25.7821 1.07017 -1.90772
28 1 26.7123 2.67453 -0.223417 26.7123 2.67453 -0.223417
29 2 28.5864 2.63607 1.43872 28.5864 2.63607 1.43872
30 2 28.6403 2.71281 -1.82214 28.6403 2.71281 -1.82214
31 1 29.564 1.02824 -0.214763 29.564 1.02824 -0.214763
32 2 31.4325 0.988004 1.45342 31.4325 0.988004 1.45342
33 2 31.4972 1.06833 -1.80714 31.4972 1.06833 -1.80714
34 1 32.4151 2.67395 -0.117235 32.4151 2.67395 -0.117235
35 2 34.284 2.63722 1.55063 34.284 2.63722 1.55063
36 2 34.348 2.71066 -1.7101 34.348 2.71066 -1.7101
37 1 35.2666 1.02766 -0.0981935 35.2666 1.02766 -0.0981935
38 2 37.1378 0.988987 1.56699 37.1378 0.988987 1.56699
39 2 37.1974 1.06634 -1.69373 37.1974 1.06634 -1.69373
40 1 38.1179 2.67352 -0.0067758 38.1179 2.67352 -0.0067758
41 2 39.9968 2.63789 1.64978 39.9968 2.63789 1.64978
42 2 40.0414 2.70926 -1.6113 40.0414 2.70926 -1.6113
43 1 40.9697 1.02732 -0.00387069 40.9697 1.02732 -0.00387069
44 2 42.8575 0.989615 1.64239 42.8575 0.989615 1.64239
45 2 42.8845 1.06518 -1.6188 42.8845 1.06518 -1.6188
46 1 43.8216 2.67338 0.0579192 43.8216 2.67338 0.0579192
47 2 45.7213 2.63765 1.69044 45.7213 2.63765 1.69044
48 2 45.7246 2.70932 -1.57093 45.7246 2.70932 -1.57093
49 1 46.6736 1.02736 0.0244473 46.6736 1.02736 0.0244473
50 2 48.5846 0.989536 1.64353 48.5846 0.989536 1.64353
51 2 48.5652 1.06541 -1.61771 48.5652 1.06541 -1.61771
52 1 49.5257 2.67359 0.045595 49.5257 2.67359 0.045595
53 2 51.4476 2.63653 1.65178 51.4476 2.63653 1.65178
54 2 51.4061 2.7109 -1.60927 51.4061 2.7109 -1.60927
55 1 1.04831 4.31995 0.0467714 1.04831 4.31995 0.0467714
56 2 2.9783 4.28449 1.64332 2.9783 4.28449 1.64332
57 2 2.92043 4.35564 -1.61755 2.92043 4.35564 -1.61755
58 1 3.90006 5.96639 0.0320126 3.90006 5.96639 0.0320126
59 2 5.83459 5.93372 1.62317 5.83459 5.93372 1.62317
60 2 5.76739 5.99926 -1.63765 5.76739 5.99926 -1.63765
61 1 6.75129 4.32049 -0.0599624 6.75129 4.32049 -0.0599624
62 2 8.6868 4.283 1.52988 8.6868 4.283 1.52988
63 2 8.61749 4.35814 -1.7307 8.61749 4.35814 -1.7307
64 1 9.60277 5.96687 -0.0825511 9.60277 5.96687 -0.0825511
65 2 11.5351 5.93289 1.51126 11.5351 5.93289 1.51126
66 2 11.4722 6.00094 -1.74962 11.4722 6.00094 -1.74962
67 1 12.4539 4.32097 -0.171916 12.4539 4.32097 -0.171916
68 2 14.3791 4.28288 1.43056 14.3791 4.28288 1.43056
69 2 14.3308 4.35906 -1.8304 14.3308 4.35906 -1.8304
70 1 15.3056 5.96716 -0.175322 15.3056 5.96716 -0.175322
71 2 17.2217 5.93393 1.43812 17.2217 5.93393 1.43812
72 2 17.1917 6.00032 -1.8233 17.1917 6.00032 -1.8233
73 1 18.1572 4.3211 -0.23485 18.1572 4.3211 -0.23485
74 2 20.0613 4.28394 1.39265 20.0613 4.28394 1.39265
75 2 20.0554 4.3581 -1.86873 20.0554 4.3581 -1.86873
76 1 21.0089 5.96706 -0.202072 21.0089 5.96706 -0.202072
77 2 22.9028 5.93599 1.43756 22.9028 5.93599 1.43756
78 2 22.9174 5.99798 -1.82405 22.9174 5.99798 -1.82405
79 1 23.8607 4.32081 -0.22025 23.8607 4.32081 -0.22025
80 2 25.7434 4.2855 1.43207 25.7434 4.2855 1.43207
81 2 25.7801 4.35593 -1.82919 25.7801 4.35593 -1.82919
82 1 26.7121 5.96669 -0.152047 26.7121 5.96669 -0.152047
83 2 28.5882 5.93809 1.50795 28.5882 5.93809 1.50795
84 2 28.638 5.99519 -1.75339 28.638 5.99519 -1.75339
85 1 29.5636 4.32031 -0.136998 29.5636 4.32031 -0.136998
86 2 31.4342 4.28704 1.52911 31.4342 4.28704 1.52911
87 2 31.4949 4.35351 -1.73184 31.4949 4.35351 -1.73184
88 1 32.4148 5.96627 -0.0498766 32.4148 5.96627 -0.0498766
89 2 34.2855 5.93948 1.6162 34.2855 5.93948 1.6162
90 2 34.346 5.99308 -1.64498 34.346 5.99308 -1.64498
91 1 35.2663 4.31985 -0.0237832 35.2663 4.31985 -0.0237832
92 2 37.1392 4.28795 1.63963 37.1392 4.28795 1.63963
93 2 37.1954 4.35181 -1.62143 37.1954 4.35181 -1.62143
94 1 38.1177 5.96597 0.0579039 38.1177 5.96597 0.0579039
95 2 39.9977 5.93962 1.71343 39.9977 5.93962 1.71343
96 2 40.0401 5.99245 -1.548 40.0401 5.99245 -1.548
97 1 40.9696 4.31959 0.0684215 40.9696 4.31959 0.0684215
98 2 42.8584 4.28778 1.71362 42.8584 4.28778 1.71362
99 2 42.8833 4.35157 -1.5478 42.8833 4.35157 -1.5478
100 1 43.8215 5.96588 0.122487 43.8215 5.96588 0.122487
101 2 45.7215 5.93831 1.75493 45.7215 5.93831 1.75493
102 2 45.7244 5.99362 -1.50672 45.7244 5.99362 -1.50672
103 1 46.6737 4.31962 0.097003 46.6737 4.31962 0.097003
104 2 48.5851 4.28644 1.71584 48.5851 4.28644 1.71584
105 2 48.565 4.35302 -1.54556 48.565 4.35302 -1.54556
106 1 49.5258 5.96602 0.11296 49.5258 5.96602 0.11296
107 2 51.4474 5.93598 1.71977 51.4474 5.93598 1.71977
108 2 51.4067 5.99626 -1.54155 51.4067 5.99626 -1.54155
109 1 1.0485 7.61253 0.107752 1.0485 7.61253 0.107752
110 2 2.97775 7.58644 1.70547 2.97775 7.58644 1.70547
111 2 2.92147 7.63879 -1.55576 2.92147 7.63879 -1.55576
112 1 3.90029 9.25912 0.0849673 3.90029 9.25912 0.0849673
113 2 5.83405 9.23814 1.67732 5.83405 9.23814 1.67732
114 2 5.76848 9.28023 -1.58391 5.76848 9.28023 -1.58391
115 1 6.75163 7.61289 0.00637407 6.75163 7.61289 0.00637407
116 2 8.68698 7.58463 1.59665 8.68698 7.58463 1.59665
117 2 8.61801 7.6413 -1.66431 8.61801 7.6413 -1.66431
118 1 9.60309 9.2594 -0.0251709 9.60309 9.2594 -0.0251709
119 2 11.5358 9.23748 1.56839 11.5358 9.23748 1.56839
120 2 11.4721 9.28141 -1.6929 11.4721 9.28141 -1.6929
121 1 12.4543 7.61323 -0.102987 12.4543 7.61323 -0.102987
122 2 14.3804 7.58504 1.49849 14.3804 7.58504 1.49849
123 2 14.33 7.64144 -1.76286 14.33 7.64144 -1.76286
124 1 15.3058 9.25957 -0.118157 15.3058 9.25957 -0.118157
125 2 17.2236 9.23934 1.49347 17.2236 9.23934 1.49347
126 2 17.1901 9.27977 -1.76836 17.1901 9.27977 -1.76836
127 1 18.1573 7.61331 -0.167572 18.1573 7.61331 -0.167572
128 2 20.0634 7.5873 1.45788 20.0634 7.5873 1.45788
129 2 20.0535 7.63922 -1.80394 20.0535 7.63922 -1.80394
130 1 21.009 9.25949 -0.149429 21.009 9.25949 -0.149429
131 2 22.9051 9.24248 1.48775 22.9051 9.24248 1.48775
132 2 22.915 9.27639 -1.77433 22.915 9.27639 -1.77433
133 1 23.8606 7.61309 -0.157423 23.8606 7.61309 -0.157423
134 2 25.7455 7.59002 1.4926 25.7455 7.59002 1.4926
135 2 25.7777 7.63604 -1.76916 25.7777 7.63604 -1.76916
136 1 26.712 9.25924 -0.105383 26.712 9.25924 -0.105383
137 2 28.5902 9.24524 1.55246 28.5902 9.24524 1.55246
138 2 28.6358 9.27319 -1.70934 28.6358 9.27319 -1.70934
139 1 29.5634 7.61275 -0.0791333 29.5634 7.61275 -0.0791333
140 2 31.4359 7.59206 1.58506 31.4359 7.59206 1.58506
141 2 31.4928 7.63342 -1.67639 31.4928 7.63342 -1.67639
142 1 32.4147 9.25901 -0.00796457 32.4147 9.25901 -0.00796457
143 2 34.2867 9.24661 1.65684 34.2867 9.24661 1.65684
144 2 34.3446 9.27145 -1.60473 34.3446 9.27145 -1.60473
145 1 35.2661 7.61247 0.0305187 35.2661 7.61247 0.0305187
146 2 37.1402 7.59272 1.69284 37.1402 7.59272 1.69284
147 2 37.1941 7.63229 -1.56863 37.1941 7.63229 -1.56863
148 1 38.1176 9.25888 0.0979683 38.1176 9.25888 0.0979683
149 2 39.9979 9.24616 1.75338 39.9979 9.24616 1.75338
150 2 40.0398 9.2717 -1.50838 40.0398 9.2717 -1.50838
151 1 40.9695 7.61232 0.121908 40.9695 7.61232 0.121908
152 2 42.8586 7.59172 1.76707 42.8586 7.59172 1.76707
153 2 42.883 7.63306 -1.4947 42.883 7.63306 -1.4947
154 1 43.8215 9.25885 0.164298 43.8215 9.25885 0.164298
155 2 45.7208 9.24399 1.7977 45.7208 9.24399 1.7977
156 2 45.725 9.2738 -1.46426 45.725 9.2738 -1.46426
157 1 46.6737 7.61233 0.152961 46.6737 7.61233 0.152961
158 2 48.5846 7.58931 1.77268 48.5846 7.58931 1.77268
159 2 48.5656 7.63551 -1.48906 48.5656 7.63551 -1.48906
160 1 49.5258 9.25891 0.159679 49.5258 9.25891 0.159679
161 2 51.4464 9.24086 1.76805 51.4464 9.24086 1.76805
162 2 51.4079 9.27709 -1.49364 51.4079 9.27709 -1.49364
163 1 1.04861 10.9056 0.144374 1.04861 10.9056 0.144374
164 2 2.97656 10.8932 1.74388 2.97656 10.8932 1.74388
165 2 2.92298 10.9181 -1.51771 2.92298 10.9181 -1.51771
166 1 3.90043 12.5522 0.110118 3.90043 12.5522 0.110118
167 2 5.8331 12.5465 1.70395 5.8331 12.5465 1.70395
168 2 5.76977 12.5581 -1.55757 5.76977 12.5581 -1.55757
169 1 6.75188 10.9057 0.0489563 6.75188 10.9057 0.0489563
170 2 8.68687 10.8914 1.6399 8.68687 10.8914 1.6399
171 2 8.61865 10.9202 -1.62144 8.61865 10.9202 -1.62144
172 1 9.60331 12.5523 0.00405598 9.60331 12.5523 0.00405598
173 2 11.5364 12.5461 1.59735 11.5364 12.5461 1.59735
174 2 11.4719 12.5586 -1.66419 11.4719 12.5586 -1.66419
175 1 12.4545 10.9059 -0.0584734 12.4545 10.9059 -0.0584734
176 2 14.3818 10.8922 1.54182 14.3818 10.8922 1.54182
177 2 14.3291 10.9196 -1.71988 14.3291 10.9196 -1.71988
178 1 15.306 12.5523 -0.0903624 15.306 12.5523 -0.0903624
179 2 17.2256 12.5484 1.5192 17.2256 12.5484 1.5192
180 2 17.1883 12.5563 -1.74284 17.1883 12.5563 -1.74284
181 1 18.1574 10.9059 -0.126554 18.1574 10.9059 -0.126554
182 2 20.0657 10.8953 1.49645 20.0657 10.8953 1.49645
183 2 20.0513 10.9165 -1.76572 20.0513 10.9165 -1.76572
184 1 21.009 12.5522 -0.127884 21.009 12.5522 -0.127884
185 2 22.9075 12.552 1.50666 22.9075 12.552 1.50666
186 2 22.9127 12.5524 -1.75561 22.9127 12.5524 -1.75561
187 1 23.8606 10.9057 -0.123003 23.8606 10.9057 -0.123003
188 2 25.7477 10.8986 1.52458 25.7477 10.8986 1.52458
189 2 25.7755 10.9127 -1.73753 25.7755 10.9127 -1.73753
190 1 26.7121 12.5521 -0.0910378 26.7121 12.5521 -0.0910378
191 2 28.592 12.5549 1.56488 28.592 12.5549 1.56488
192 2 28.6341 12.5492 -1.69709 28.6341 12.5492 -1.69709
193 1 29.5634 10.9056 -0.0507948 29.5634 10.9056 -0.0507948
194 2 31.4374 10.9008 1.61184 31.4374 10.9008 1.61184
195 2 31.4913 10.9103 -1.64992 31.4913 10.9103 -1.64992
196 1 32.4148 12.552 0.00167215 32.4148 12.552 0.00167215
197 2 34.2874 12.5559 1.66584 34.2874 12.5559 1.66584
198 2 34.3441 12.5481 -1.59584 34.3441 12.5481 -1.59584
199 1 35.2661 10.9055 0.0556675 35.2661 10.9055 0.0556675
200 2 37.1406 10.9011 1.71767 37.1406 10.9011 1.71767
201 2 37.1937 10.9099 -1.54404 37.1937 10.9099 -1.54404
202 1 38.1177 12.5521 0.106886 38.1177 12.5521 0.106886
203 2 39.9974 12.555 1.763 39.9974 12.555 1.763
204 2 40.0404 12.5491 -1.49885 40.0404 12.5491 -1.49885
205 1 40.9694 10.9055 0.147726 40.9694 10.9055 0.147726
206 2 42.8579 10.8994 1.79378 42.8579 10.8994 1.79378
207 2 42.8837 10.9115 -1.4682 42.8837 10.9115 -1.4682
208 1 43.8215 12.5521 0.176498 43.8215 12.5521 0.176498
209 2 45.7194 12.5524 1.81163 45.7194 12.5524 1.81163
210 2 45.7264 12.5518 -1.45046 45.7264 12.5518 -1.45046
211 1 46.6737 10.9055 0.183076 46.6737 10.9055 0.183076
212 2 48.5833 10.8964 1.80453 48.5833 10.8964 1.80453
213 2 48.567 10.9146 -1.45748 48.567 10.9146 -1.45748
214 1 49.5259 12.5522 0.178027 49.5259 12.5522 0.178027
215 2 51.4447 12.5491 1.78852 51.4447 12.5491 1.78852
216 2 51.4097 12.5553 -1.47339 51.4097 12.5553 -1.47339
217 1 1.04864 14.1988 0.150506 1.04864 14.1988 0.150506
218 2 2.97496 14.2023 1.75204 2.97496 14.2023 1.75204
219 2 2.92472 14.1954 -1.50969 2.92472 14.1954 -1.50969
220 1 3.90046 15.8454 0.103126 3.90046 15.8454 0.103126
221 2 5.83189 15.856 1.69843 5.83189 15.856 1.69843
222 2 5.77109 15.8349 -1.56309 5.77109 15.8349 -1.56309
223 1 6.75201 14.1989 0.0606909 6.75201 14.1989 0.0606909
224 2 8.68648 14.2008 1.65233 8.68648 14.2008 1.65233
225 2 8.61933 14.197 -1.60915 8.61933 14.197 -1.60915
226 1 9.60341 15.8454 0.000193702 9.60341 15.8454 0.000193702
227 2 11.5367 15.8559 1.59322 11.5367 15.8559 1.59322
228 2 11.4718 15.8349 -1.66828 11.4718 15.8349 -1.66828
229 1 12.4547 14.1988 -0.0457047 12.4547 14.1988 -0.0457047
230 2 14.3831 14.2019 1.55331 14.3831 14.2019 1.55331
231 2 14.3281 14.1957 -1.70846 14.3281 14.1957 -1.70846
232 1 15.3061 15.8452 -0.0965429 15.3061 15.8452 -0.0965429
233 2 17.2273 15.8582 1.51102 17.2273 15.8582 1.51102
234 2 17.1868 15.8322 -1.75088 17.1868 15.8322 -1.75088
235 1 18.1575 14.1987 -0.118475 18.1575 14.1987 -0.118475
236 2 20.068 14.2051 1.50199 20.068 14.2051 1.50199
237 2 20.0492 14.1922 -1.7602 20.0492 14.1922 -1.7602
238 1 21.0091 15.845 -0.140911 21.0091 15.845 -0.140911
239 2 22.9096 15.8615 1.49124 22.9096 15.8615 1.49124
240 2 22.9109 15.8284 -1.77086 22.9109 15.8284 -1.77086
241 1 23.8607 14.1986 -0.122527 23.8607 14.1986 -0.122527
242 2 25.7498 14.2085 1.5228 25.7498 14.2085 1.5228
243 2 25.7736 14.1885 -1.73931 25.7736 14.1885 -1.73931
244 1 26.7123 15.8449 -0.111204 26.7123 15.8449 -0.111204
245 2 28.5933 15.8639 1.54332 28.5933 15.8639 1.54332
246 2 28.6332 15.8258 -1.71845 28.6332 15.8258 -1.71845
247 1 29.5636 14.1985 -0.0564651 29.5636 14.1985 -0.0564651
248 2 31.4384 14.2103 1.60515 31.4384 14.2103 1.60515
249 2 31.4906 14.1866 -1.65657 31.4906 14.1866 -1.65657
250 1 32.415 15.845 -0.0223148 32.415 15.845 -0.0223148
251 2 34.2874 15.8644 1.64191 34.2874 15.8644 1.64191
252 2 34.3445 15.8254 -1.61955 34.3445 15.8254 -1.61955
253 1 35.2662 14.1986 0.0477105 35.2662 14.1986 0.0477105
254 2 37.1403 14.2102 1.71012 37.1403 14.2102 1.71012
255 2 37.1942 14.187 -1.55152 37.1942 14.187 -1.55152
256 1 38.1178 15.8452 0.0833835 38.1178 15.8452 0.0833835
257 2 39.9963 15.8633 1.74082 39.9963 15.8633 1.74082
258 2 40.0417 15.8271 -1.5208 40.0417 15.8271 -1.5208
259 1 40.9695 14.1987 0.141734 40.9695 14.1987 0.141734
260 2 42.8566 14.2083 1.78936 42.8566 14.2083 1.78936
261 2 42.8851 14.1892 -1.47257 42.8851 14.1892 -1.47257
262 1 43.8215 15.8453 0.157107 43.8215 15.8453 0.157107
263 2 45.7176 15.8609 1.79435 45.7176 15.8609 1.79435
264 2 45.7283 15.8298 -1.46759 45.7283 15.8298 -1.46759
265 1 46.6737 14.1988 0.182367 46.6737 14.1988 0.182367
266 2 48.5814 14.2053 1.80603 48.5814 14.2053 1.80603
267 2 48.5688 14.1923 -1.45602 48.5688 14.1923 -1.45602
268 1 49.5258 15.8454 0.164837 49.5258 15.8454 0.164837
269 2 51.4427 15.8581 1.77761 51.4427 15.8581 1.77761
270 2 51.4117 15.8328 -1.48426 51.4117 15.8328 -1.48426
271 1 1.04861 17.492 0.124888 1.04861 17.492 0.124888
272 2 2.97321 17.5109 1.72834 2.97321 17.5109 1.72834
273 2 2.92642 17.4731 -1.53324 2.92642 17.4731 -1.53324
274 1 3.90038 19.1384 0.0648444 3.90038 19.1384 0.0648444
275 2 5.8306 19.1636 1.66141 5.8306 19.1636 1.66141
276 2 5.77225 19.1132 -1.59984 5.77225 19.1132 -1.59984
277 1 6.75201 17.4919 0.039387 6.75201 17.4919 0.039387
278 2 8.68585 17.51 1.63167 8.68585 17.51 1.63167
279 2 8.61999 17.4739 -1.62965 8.61999 17.4739 -1.62965
280 1 9.60335 19.1382 -0.0363843 9.60335 19.1382 -0.0363843
281 2 11.5366 19.1639 1.55645 11.5366 19.1639 1.55645
282 2 11.4718 19.1125 -1.7047 11.4718 19.1125 -1.7047
283 1 12.4547 17.4917 -0.066947 12.4547 17.4917 -0.066947
284 2 14.3839 17.5111 1.53094 14.3839 17.5111 1.53094
285 2 14.3273 17.4722 -1.73057 14.3273 17.4722 -1.73057
286 1 15.3061 19.1379 -0.135861 15.3061 19.1379 -0.135861
287 2 17.2284 19.1657 1.47016 17.2284 19.1657 1.47016
288 2 17.1857 19.1099 -1.79132 17.1857 19.1099 -1.79132
289 1 18.1576 17.4915 -0.144726 18.1576 17.4915 -0.144726
290 2 20.0697 17.5139 1.47358 20.0697 17.5139 1.47358
291 2 20.0476 17.4689 -1.78829 20.0476 17.4689 -1.78829
292 1 21.0092 19.1375 -0.186416 21.0092 19.1375 -0.186416
293 2 22.9109 19.168 1.44407 22.9109 19.168 1.44407
294 2 22.9098 19.1068 -1.8176 22.9098 19.1068 -1.8176
295 1 23.8608 17.4912 -0.155998 23.8608 17.4912 -0.155998
296 2 25.7512 17.5165 1.48767 25.7512 17.5165 1.48767
297 2 25.7725 17.4658 -1.77411 25.7725 17.4658 -1.77411
298 1 26.7125 19.1374 -0.162482 26.7125 19.1374 -0.162482
299 2 28.5938 19.1694 1.4915 28.5938 19.1694 1.4915
300 2 28.6332 19.1052 -1.76985 28.6332 19.1052 -1.76985
301 1 29.5638 17.4912 -0.0950296 29.5638 17.4912 -0.0950296
302 2 31.4387 17.5176 1.56631 31.4387 17.5176 1.56631
303 2 31.4908 17.4648 -1.69506 31.4908 17.4648 -1.69506
304 1 32.4153 19.1375 -0.0758033 32.4153 19.1375 -0.0758033
305 2 34.2868 19.1693 1.58923 34.2868 19.1693 1.58923
306 2 34.3457 19.1057 -1.67181 34.3457 19.1057 -1.67181
307 1 35.2665 17.4914 0.0081888 35.2665 17.4914 0.0081888
308 2 37.1395 17.517 1.67165 37.1395 17.517 1.67165
309 2 37.1955 17.4658 -1.58964 37.1955 17.4658 -1.58964
310 1 38.1181 19.1379 0.0314964 38.1181 19.1379 0.0314964
311 2 39.9948 19.1681 1.69068 39.9948 19.1681 1.69068
312 2 40.0436 19.1077 -1.57055 40.0436 19.1077 -1.57055
313 1 40.9696 17.4917 0.105029 40.9696 17.4917 0.105029
314 2 42.8549 17.5153 1.75459 42.8549 17.5153 1.75459
315 2 42.887 17.4682 -1.50704 42.887 17.4682 -1.50704
316 1 43.8216 19.1382 0.109322 43.8216 19.1382 0.109322
317 2 45.7156 19.1664 1.74871 45.7156 19.1664 1.74871
318 2 45.7304 19.1101 -1.5129 45.7304 19.1101 -1.5129
319 1 46.6737 17.4919 0.150854 46.6737 17.4919 0.150854
320 2 48.5793 17.513 1.77678 48.5793 17.513 1.77678
321 2 48.5709 17.4709 -1.48505 48.5709 17.4709 -1.48505
322 1 49.5258 19.1384 0.12211 49.5258 19.1384 0.12211
323 2 51.4408 19.1648 1.73691 51.4408 19.1648 1.73691
324 2 51.4135 19.1121 -1.52468 51.4135 19.1121 -1.52468
325 1 1.04852 20.7848 0.0715581 1.04852 20.7848 0.0715581
326 2 2.97163 20.8161 1.67653 2.97163 20.8161 1.67653
327 2 2.92778 20.7535 -1.58473 2.92778 20.7535 -1.58473
328 1 3.90021 22.4309 0.00147402 3.90021 22.4309 0.00147402
329 2 5.82943 22.4667 1.59895 5.82943 22.4667 1.59895
330 2 5.77305 22.3952 -1.66195 5.77305 22.3952 -1.66195
331 1 6.75188 20.7846 -0.011704 6.75188 20.7846 -0.011704
332 2 8.68505 20.816 1.58113 8.68505 20.816 1.58113
333 2 8.62054 20.7533 -1.67981 8.62054 20.7533 -1.67981
334 1 9.60315 22.4307 -0.0998043 9.60315 22.4307 -0.0998043
335 2 11.5362 22.4672 1.49308 11.5362 22.4672 1.49308
336 2 11.4719 22.394 -1.76766 11.4719 22.394 -1.76766
337 1 12.4546 20.7843 -0.118926 12.4546 20.7843 -0.118926
338 2 14.3842 20.8169 1.47826 14.3842 20.8169 1.47826
339 2 14.3268 20.7516 -1.7828 14.3268 20.7516 -1.7828
340 1 15.3059 22.4302 -0.201963 15.3059 22.4302 -0.201963
341 2 17.2286 22.4682 1.40338 17.2286 22.4682 1.40338
342 2 17.1853 22.3919 -1.85765 17.1853 22.3919 -1.85765
343 1 18.1575 20.7839 -0.201118 18.1575 20.7839 -0.201118
344 2 20.0706 20.8186 1.41588 20.0706 20.8186 1.41588
345 2 20.0467 20.7489 -1.84552 20.0467 20.7489 -1.84552
346 1 21.0092 22.4297 -0.256937 21.0092 22.4297 -0.256937
347 2 22.9112 22.4691 1.37304 22.9112 22.4691 1.37304
348 2 22.9097 22.39 -1.88821 22.9097 22.39 -1.88821
349 1 23.8609 20.7835 -0.21791 23.8609 20.7835 -0.21791
350 2 25.7517 20.8199 1.4251 25.7517 20.8199 1.4251
351 2 25.7724 20.7469 -1.83624 25.7724 20.7469 -1.83624
352 1 26.7127 22.4295 -0.236394 26.7127 22.4295 -0.236394
353 2 28.5934 22.4693 1.41811 28.5934 22.4693 1.41811
354 2 28.6342 22.3896 -1.84287 28.6342 22.3896 -1.84287
355 1 29.5641 20.7835 -0.160068 29.5641 20.7835 -0.160068
356 2 31.4383 20.8201 1.50189 31.4383 20.8201 1.50189
357 2 31.4919 20.7469 -1.75905 31.4919 20.7469 -1.75905
358 1 32.4157 22.4297 -0.149916 32.4157 22.4297 -0.149916
359 2 34.2857 22.4685 1.51667 34.2857 22.4685 1.51667
360 2 34.3475 22.3909 -1.74401 34.3475 22.3909 -1.74401
361 1 35.2668 20.7839 -0.0562542 35.2668 20.7839 -0.0562542
362 2 37.1382 20.8192 1.60881 37.1382 20.8192 1.60881
363 2 37.1974 20.7485 -1.65207 37.1974 20.7485 -1.65207
364 1 38.1184 22.4302 -0.0401144 38.1184 22.4302 -0.0401144
365 2 39.9932 22.4675 1.62102 39.9932 22.4675 1.62102
366 2 40.0458 22.3929 -1.63987 40.0458 22.3929 -1.63987
367 1 40.9699 20.7843 0.0437452 40.9699 20.7843 0.0437452
368 2 42.8531 20.818 1.69532 42.8531 20.818 1.69532
369 2 42.889 20.7507 -1.56594 42.889 20.7507 -1.56594
370 1 43.8218 22.4306 0.0411003 43.8218 22.4306 0.0411003
371 2 45.7139 22.4668 1.68237 45.7139 22.4668 1.68237
372 2 45.7323 22.3946 -1.57894 45.7323 22.3946 -1.57894
373 1 46.6737 20.7846 0.0936926 46.6737 20.7846 0.0936926
374 2 48.5775 20.8169 1.7216 48.5775 20.8169 1.7216
375 2 48.5727 20.7525 -1.53991 48.5727 20.7525 -1.53991
376 1 49.5258 22.4309 0.0569043 49.5258 22.4309 0.0569043
377 2 51.4392 22.4666 1.67322 51.4392 22.4666 1.67322
378 2 51.4149 22.3954 -1.58807 51.4149 22.3954 -1.58807
379 1 1.04837 24.0771 -0.000566886 1.04837 24.0771 -0.000566886
380 2 2.97046 24.1155 1.60535 2.97046 24.1155 1.60535
381 2 2.92857 24.0387 -1.65566 2.92857 24.0387 -1.65566
382 1 3.89996 25.7231 -0.0762271 3.89996 25.7231 -0.0762271
383 2 5.82858 25.7632 1.52175 5.82858 25.7632 1.52175
384 2 5.77332 25.6829 -1.73898 5.77332 25.6829 -1.73898
385 1 6.75162 24.0769 -0.0841175 6.75162 24.0769 -0.0841175
386 2 8.68419 24.1162 1.50918 8.68419 24.1162 1.50918
387 2 8.62087 24.0376 -1.75144 8.62087 24.0376 -1.75144
388 1 9.60281 25.7227 -0.179367 9.60281 25.7227 -0.179367
389 2 11.5354 25.764 1.41388 11.5354 25.764 1.41388
390 2 11.472 25.6814 -1.84665 11.472 25.6814 -1.84665
391 1 12.4543 24.0765 -0.193067 12.4543 24.0765 -0.193067
392 2 14.3838 24.1168 1.40408 14.3838 24.1168 1.40408
393 2 14.3268 24.036 -1.85661 14.3268 24.036 -1.85661
394 1 15.3057 25.7222 -0.283745 15.3057 25.7222 -0.283745
395 2 17.228 25.764 1.322 17.228 25.764 1.322
396 2 17.1856 25.6802 -1.93882 17.1856 25.6802 -1.93882
397 1 18.1574 24.0759 -0.278328 18.1574 24.0759 -0.278328
398 2 20.0704 24.1171 1.33858 20.0704 24.1171 1.33858
399 2 20.0468 24.0345 -1.92248 20.0468 24.0345 -1.92248
400 1 21.0092 25.7216 -0.340649 21.0092 25.7216 -0.340649
401 2 22.9104 25.7633 1.29016 22.9104 25.7633 1.29016
402 2 22.9106 25.6798 -1.97094 22.9106 25.6798 -1.97094
403 1 23.8611 24.0755 -0.29799 23.8611 24.0755 -0.29799
404 2 25.7513 24.117 1.34559 25.7513 24.117 1.34559
405 2 25.7733 24.0339 -1.91547 25.7733 24.0339 -1.91547
406 1 26.713 25.7215 -0.320565 26.713 25.7215 -0.320565
407 2 28.5923 25.7623 1.33553 28.5923 25.7623 1.33553
408 2 28.6359 25.6806 -1.92534 28.6359 25.6806 -1.92534
409 1 29.5645 24.0755 -0.240783 29.5645 24.0755 -0.240783
410 2 31.4372 24.1162 1.42272 31.4372 24.1162 1.42272
411 2 31.4937 24.0349 -1.83796 31.4937 24.0349 -1.83796
412 1 32.4161 25.7217 -0.232269 32.4161 25.7217 -0.232269
413 2 34.2841 25.761 1.43644 34.2841 25.761 1.43644
414 2 34.3498 25.6825 -1.82414 34.3498 25.6825 -1.82414
415 1 35.2672 24.076 -0.134898 35.2672 24.076 -0.134898
416 2 37.1367 24.1152 1.53217 37.1367 24.1152 1.53217
417 2 37.1996 24.0368 -1.72847 37.1996 24.0368 -1.72847
418 1 38.1188 25.7222 -0.119458 38.1188 25.7222 -0.119458
419 2 39.9917 25.7604 1.54364 39.9917 25.7604 1.54364
420 2 40.0478 25.6842 -1.71719 40.0478 25.6842 -1.71719
421 1 40.9701 24.0765 -0.0318674 40.9701 24.0765 -0.0318674
422 2 42.8516 24.1146 1.62157 42.8516 24.1146 1.62157
423 2 42.891 24.0385 -1.63949 42.891 24.0385 -1.63949
424 1 43.8219 25.7227 -0.036041 43.8219 25.7227 -0.036041
425 2 45.7127 25.7607 1.60666 45.7127 25.7607 1.60666
426 2 45.7336 25.6849 -1.65459 45.7336 25.6849 -1.65459
427 1 46.6738 24.0769 0.0204839 46.6738 24.0769 0.0204839
428 2 48.5761 24.1148 1.64983 48.5761 24.1148 1.64983
429 2 48.5741 24.0391 -1.61147 48.5741 24.0391 -1.61147
430 1 49.5257 25.723 -0.0197113 49.5257 25.723 -0.0197113
431 2 51.4383 25.7619 1.59744 51.4383 25.7619 1.59744
432 2 51.4156 25.6843 -1.66375 51.4156 25.6843 -1.66375
433 1 1.04818 27.3691 -0.0790707 1.04818 27.3691 -0.0790707
434 2 2.96991 27.4079 1.52714 2.96991 27.4079 1.52714
435 2 2.92863 27.3304 -1.73388 2.92863 27.3304 -1.73388
436 1 3.89965 29.0151 -0.154722 3.89965 29.0151 -0.154722
437 2 5.8282 29.0526 1.44329 5.8282 29.0526 1.44329
438 2 5.773 28.9776 -1.81758 5.773 28.9776 -1.81758
439 1 6.75126 27.3689 -0.165391 6.75126 27.3689 -0.165391
440 2 8.68344 27.4094 1.42827 8.68344 27.4094 1.42827
441 2 8.6209 27.3285 -1.83231 8.6209 27.3285 -1.83231
442 1 9.6024 29.0148 -0.261253 9.6024 29.0148 -0.261253
443 2 11.5345 29.0535 1.33262 11.5345 29.0535 1.33262
444 2 11.4722 28.976 -1.92803 11.4722 28.976 -1.92803
445 1 12.454 27.3685 -0.276687 12.454 27.3685 -0.276687
446 2 14.3828 27.4095 1.32117 14.3828 27.4095 1.32117
447 2 14.3272 27.3273 -1.93949 14.3272 27.3273 -1.93949
448 1 15.3053 29.0142 -0.367086 15.3053 29.0142 -0.367086
449 2 17.2265 29.0525 1.24009 17.2265 29.0525 1.24009
450 2 17.1865 28.9757 -2.02091 17.1865 28.9757 -2.02091
451 1 18.1572 27.3679 -0.363218 18.1572 27.3679 -0.363218
452 2 20.0692 27.4085 1.25489 20.0692 27.4085 1.25489
453 2 20.0478 27.3271 -2.00618 20.0478 27.3271 -2.00618
454 1 21.0091 29.0137 -0.423182 21.0091 29.0137 -0.423182
455 2 22.9087 29.0505 1.20967 22.9087 29.0505 1.20967
456 2 22.9123 28.9769 -2.05163 22.9123 28.9769 -2.05163
457 1 23.8612 27.3675 -0.382664 23.8612 27.3675 -0.382664
458 2 25.7499 27.407 1.26268 25.7499 27.407 1.26268
459 2 25.775 27.328 -1.99842 25.775 27.328 -1.99842
460 1 26.7132 29.0136 -0.400557 26.7132 29.0136 -0.400557
461 2 28.5905 29.0484 1.25793 28.5905 29.0484 1.25793
462 2 28.6382 28.9789 -2.00313 28.6382 28.9789 -2.00313
463 1 29.5648 27.3676 -0.323511 29.5648 27.3676 -0.323511
464 2 31.4356 27.4054 1.34223 31.4356 27.4054 1.34223
465 2 31.496 27.3299 -1.9185 31.496 27.3299 -1.9185
466 1 32.4164 29.0139 -0.308771 32.4164 29.0139 -0.308771
467 2 34.2825 29.0469 1.36226 34.2825 29.0469 1.36226
468 2 34.3521 28.981 -1.89851 34.3521 28.981 -1.89851
469 1 35.2676 27.368 -0.214477 35.2676 27.368 -0.214477
470 2 37.1352 27.4044 1.45473 37.1352 27.4044 1.45473
471 2 37.2018 27.3318 -1.80598 37.2018 27.3318 -1.80598
472 1 38.119 29.0144 -0.193009 38.119 29.0144 -0.193009
473 2 39.9905 29.0467 1.47174 39.9905 29.0467 1.47174
474 2 40.0494 28.9822 -1.7893 40.0494 28.9822 -1.7893
475 1 40.9704 27.3685 -0.109008 40.9704 27.3685 -0.109008
476 2 42.8504 27.4046 1.54593 42.8504 27.4046 1.54593
477 2 42.8924 27.3326 -1.71522 42.8924 27.3326 -1.71522
478 1 43.8221 29.0148 -0.108871 43.8221 29.0148 -0.108871
479 2 45.7121 29.048 1.5346 45.7121 29.048 1.5346
480 2 45.7343 28.9818 -1.72688 45.7343 28.9818 -1.72688
481 1 46.6738 27.3689 -0.0562674 46.6738 27.3689 -0.0562674
482 2 48.5753 27.406 1.57384 48.5753 27.406 1.57384
483 2 48.5747 27.3321 -1.68754 48.5747 27.3321 -1.68754
484 1 49.5256 29.0151 -0.094482 49.5256 29.0151 -0.094482
485 2 51.4381 29.0503 1.52275 51.4381 29.0503 1.52275
486 2 51.4155 28.98 -1.73864 51.4155 28.98 -1.73864
487 1 1.04797 30.6612 -0.150214 1.04797 30.6612 -0.150214
488 2 2.97004 30.6936 1.45561 2.97004 30.6936 1.45561
489 2 2.92795 30.6289 -1.80571 2.92795 30.6289 -1.80571
490 1 3.89933 32.3073 -0.220167 3.89933 32.3073 -0.220167
491 2 5.82837 32.3355 1.37737 5.82837 32.3355 1.37737
492 2 5.77213 32.2792 -1.88387 5.77213 32.2792 -1.88387
493 1 6.75086 30.661 -0.241265 6.75086 30.661 -0.241265
494 2 8.68295 30.6955 1.35258 8.68295 30.6955 1.35258
495 2 8.62058 30.6266 -1.90829 8.62058 30.6266 -1.90829
496 1 9.60198 32.3071 -0.331048 9.60198 32.3071 -0.331048
497 2 11.5336 32.3364 1.26357 11.5336 32.3364 1.26357
498 2 11.4723 32.2777 -1.99749 11.4723 32.2777 -1.99749
499 1 12.4536 30.6606 -0.355188 12.4536 30.6606 -0.355188
500 2 14.3814 30.6952 1.24397 14.3814 30.6952 1.24397
501 2 14.3279 30.6259 -2.017 14.3279 30.6259 -2.017
502 1 15.305 32.3067 -0.437369 15.305 32.3067 -0.437369
503 2 17.2246 32.3347 1.17194 17.2246 32.3347 1.17194
504 2 17.188 32.2785 -2.08949 17.188 32.2785 -2.08949
505 1 18.157 30.6601 -0.441039 18.157 30.6601 -0.441039
506 2 20.0673 30.6931 1.17932 20.0673 30.6931 1.17932
507 2 20.0495 30.6271 -2.08208 20.0495 30.6271 -2.08208
508 1 21.0091 32.3063 -0.490088 21.0091 32.3063 -0.490088
509 2 22.9064 32.3316 1.14561 22.9064 32.3316 1.14561
510 2 22.9147 32.281 -2.11609 22.9147 32.281 -2.11609
511 1 23.8612 30.6599 -0.457254 23.8612 30.6599 -0.457254
512 2 25.7479 30.6904 1.19072 25.7479 30.6904 1.19072
513 2 25.7773 30.6294 -2.0707 25.7773 30.6294 -2.0707
514 1 26.7133 32.3063 -0.462353 26.7133 32.3063 -0.462353
515 2 28.5885 32.3288 1.19884 28.5885 32.3288 1.19884
516 2 28.6406 32.2839 -2.06255 28.6406 32.2839 -2.06255
517 1 29.5651 30.66 -0.393906 29.5651 30.66 -0.393906
518 2 31.4338 30.6883 1.27434 31.4338 30.6883 1.27434
519 2 31.4983 30.6318 -1.98669 31.4983 30.6318 -1.98669
520 1 32.4167 32.3065 -0.36603 32.4167 32.3065 -0.36603
521 2 34.281 32.3274 1.30702 34.281 32.3274 1.30702
522 2 34.354 32.2857 -1.95407 34.354 32.2857 -1.95407
523 1 35.2679 30.6603 -0.281258 35.2679 30.6603 -0.281258
524 2 37.1339 30.6875 1.3898 37.1339 30.6875 1.3898
525 2 37.2035 30.6333 -1.87121 37.2035 30.6333 -1.87121
526 1 38.1192 32.3068 -0.247944 38.1192 32.3068 -0.247944
527 2 39.9899 32.3277 1.41782 39.9899 32.3277 1.41782
528 2 40.0503 32.2861 -1.84359 40.0503 32.2861 -1.84359
529 1 40.9705 30.6607 -0.174368 40.9705 30.6607 -0.174368
530 2 42.8499 30.6884 1.48144 42.8499 30.6884 1.48144
531 2 42.8932 30.6333 -1.78004 42.8932 30.6333 -1.78004
532 1 43.8221 32.3071 -0.164679 43.8221 32.3071 -0.164679
533 2 45.7123 32.3296 1.47876 45.7123 32.3296 1.47876
534 2 45.7342 32.2848 -1.78312 45.7342 32.2848 -1.78312
535 1 46.6738 30.6611 -0.123242 46.6738 30.6611 -0.123242
536 2 48.5754 30.6907 1.50684 48.5754 30.6907 1.50684
537 2 48.5746 30.6316 -1.75487 48.5746 30.6316 -1.75487