ITEM: TIMESTEP
16000
ITEM: NUMBER OF ATOMS
810
ITEM: BOX BOUNDS pp pp pp
8.4124884427637048e-01 5.2176356155722900e+01
8.1011942247494428e-01 5.0206095577524103e+01
-1.0000000000000000e+01 1.0000000000000000e+01
ITEM: ATOMS id type x y z xu yu zu
1 1 1.04481 1.02442 -0.14224 1.04481 1.02442 -0.14224
2 2 2.95121 1.02114 1.48285 2.95121 1.02114 1.48285
3 2 2.94101 1.0277 -1.77932 2.94101 1.0277 -1.77932
4 1 3.89676 2.67095 -0.147897 3.89676 2.67095 -0.147897
5 2 5.80427 2.66771 1.4759 5.80427 2.66771 1.4759
6 2 5.79184 2.67419 -1.78626 5.79184 2.67419 -1.78626
7 1 6.7487 1.02442 -0.162105 6.7487 1.02442 -0.162105
8 2 8.65612 1.02174 1.4618 8.65612 1.02174 1.4618
9 2 8.64386 1.02709 -1.80035 8.64386 1.02709 -1.80035
10 1 9.60064 2.67095 -0.170136 9.60064 2.67095 -0.170136
11 2 11.5076 2.66838 1.45428 11.5076 2.66838 1.45428
12 2 11.4962 2.6735 -1.80788 11.4962 2.6735 -1.80788
13 1 12.4526 1.02441 -0.18273 12.4526 1.02441 -0.18273
14 2 14.358 1.02252 1.44361 14.358 1.02252 1.44361
15 2 14.3498 1.02629 -1.81856 14.3498 1.02629 -1.81856
16 1 15.3045 2.67094 -0.187931 15.3045 2.67094 -0.187931
17 2 17.2083 2.66912 1.44025 17.2083 2.66912 1.44025
18 2 17.2033 2.67274 -1.82193 17.2033 2.67274 -1.82193
19 1 18.1565 1.0244 -0.194136 18.1565 1.0244 -0.194136
20 2 20.0582 1.023 1.43657 20.0582 1.023 1.43657
21 2 20.0574 1.02579 -1.82561 20.0574 1.02579 -1.82561
22 1 21.0085 2.67093 -0.193313 21.0085 2.67093 -0.193313
23 2 22.9082 2.66942 1.43958 22.9082 2.66942 1.43958
24 2 22.9113 2.67244 -1.82261 22.9113 2.67244 -1.82261
25 1 23.8604 1.02439 -0.192151 23.8604 1.02439 -0.192151
26 2 25.7584 1.02292 1.44282 25.7584 1.02292 1.44282
27 2 25.765 1.02587 -1.81936 25.765 1.02587 -1.81936
28 1 26.7124 2.67093 -0.184852 26.7124 2.67093 -0.184852
29 2 28.6088 2.66918 1.45195 28.6088 2.66918 1.45195
30 2 28.6185 2.67269 -1.81022 28.6185 2.67269 -1.81022
31 1 29.5643 1.0244 -0.178059 29.5643 1.0244 -0.178059
32 2 31.4598 1.02237 1.45978 31.4598 1.02237 1.45978
33 2 31.4714 1.02644 -1.80238 31.4714 1.02644 -1.80238
34 1 32.4163 2.67094 -0.16587 32.4163 2.67094 -0.16587
35 2 34.3112 2.66856 1.47263 34.3112 2.66856 1.47263
36 2 34.3239 2.67333 -1.78953 34.3239 2.67333 -1.78953
37 1 35.2682 1.02441 -0.157153 35.2682 1.02441 -0.157153
38 2 37.1637 1.02159 1.48066 37.1637 1.02159 1.48066
39 2 37.1753 1.02724 -1.7815 37.1753 1.02724 -1.7815
40 1 38.1201 2.67095 -0.144198 38.1201 2.67095 -0.144198
41 2 40.0167 2.66786 1.49243 40.0167 2.66786 1.49243
42 2 40.0262 2.67404 -1.76973 40.0262 2.67404 -1.76973
43 1 40.9721 1.02442 -0.139002 40.9721 1.02442 -0.139002
44 2 42.8706 1.021 1.49536 42.8706 1.021 1.49536
45 2 42.8762 1.02784 -1.76681 42.8762 1.02784 -1.76681
46 1 43.824 2.67095 -0.130621 43.824 2.67095 -0.130621
47 2 45.7246 2.6674 1.50126 45.7246 2.6674 1.50126
48 2 45.7261 2.6745 -1.76092 45.7261 2.6745 -1.76092
49 1 46.676 1.02442 -0.133027 46.676 1.02442 -0.133027
50 2 48.5789 1.02085 1.49623 48.5789 1.02085 1.49623
51 2 48.5758 1.02799 -1.76595 48.5758 1.02799 -1.76595
52 1 49.528 2.67095 -0.132151 49.528 2.67095 -0.132151
53 2 51.4329 2.66737 1.49463 51.4329 2.66737 1.49463
54 2 51.4256 2.67454 -1.76754 51.4256 2.67454 -1.76754
55 1 1.04482 4.31748 -0.134962 1.04482 4.31748 -0.134962
56 2 2.95151 4.31408 1.48979 2.95151 4.31408 1.48979
57 2 2.94072 4.32088 -1.77237 2.94072 4.32088 -1.77237
58 1 3.89677 5.96401 -0.140998 3.89677 5.96401 -0.140998
59 2 5.80459 5.96099 1.48244 5.80459 5.96099 1.48244
60 2 5.79153 5.96703 -1.77971 5.79153 5.96703 -1.77971
61 1 6.7487 4.31748 -0.155518 6.7487 4.31748 -0.155518
62 2 8.65659 4.31447 1.46785 8.65659 4.31447 1.46785
63 2 8.6434 4.32048 -1.7943 8.6434 4.32048 -1.7943
64 1 9.60065 5.96401 -0.164021 9.60065 5.96401 -0.164021
65 2 11.5081 5.9614 1.45982 11.5081 5.9614 1.45982
66 2 11.4957 5.9666 -1.80234 11.4957 5.9666 -1.80234
67 1 12.4526 4.31747 -0.177524 12.4526 4.31747 -0.177524
68 2 14.3585 4.31516 1.44819 14.3585 4.31516 1.44819
69 2 14.3493 4.31977 -1.81398 14.3493 4.31977 -1.81398
70 1 15.3045 5.964 -0.183238 15.3045 5.964 -0.183238
71 2 17.2088 5.96201 1.44439 17.2088 5.96201 1.44439
72 2 17.2028 5.96598 -1.81779 17.2028 5.96598 -1.81779
73 1 18.1565 4.31746 -0.190458 18.1565 4.31746 -0.190458
74 2 20.0585 4.31574 1.4399 20.0585 4.31574 1.4399
75 2 20.0571 4.31918 -1.82228 20.0571 4.31918 -1.82228
76 1 21.0085 5.96399 -0.189814 21.0085 5.96399 -0.189814
77 2 22.9084 5.96237 1.44285 22.9084 5.96237 1.44285
78 2 22.9111 5.96561 -1.81933 22.9111 5.96561 -1.81933
79 1 23.8604 4.31746 -0.189098 23.8604 4.31746 -0.189098
80 2 25.7584 4.31583 1.44592 25.7584 4.31583 1.44592
81 2 25.7651 4.31909 -1.81626 25.7651 4.31909 -1.81626
82 1 26.7124 5.96399 -0.181563 26.7124 5.96399 -0.181563
83 2 28.6087 5.96235 1.45533 28.6087 5.96235 1.45533
84 2 28.6186 5.96564 -1.80684 28.6186 5.96564 -1.80684
85 1 29.5643 4.31746 -0.174516 29.5643 4.31746 -0.174516
86 2 31.4596 4.31551 1.46365 31.4596 4.31551 1.46365
87 2 31.4717 4.31943 -1.79851 31.4717 4.31943 -1.79851
88 1 32.4163 5.964 -0.161918 32.4163 5.964 -0.161918
89 2 34.311 5.96208 1.47685 34.311 5.96208 1.47685
90 2 34.3241 5.96593 -1.78531 34.3241 5.96593 -1.78531
91 1 35.2682 4.31747 -0.152338 35.2682 4.31747 -0.152338
92 2 37.1634 4.31496 1.48587 37.1634 4.31496 1.48587
93 2 37.1756 4.32 -1.77629 37.1756 4.32 -1.77629
94 1 38.1201 5.96401 -0.139095 38.1201 5.96401 -0.139095
95 2 40.0164 5.96163 1.49782 40.0164 5.96163 1.49782
96 2 40.0264 5.9664 -1.76435 40.0264 5.9664 -1.76435
97 1 40.9721 4.31748 -0.132749 40.9721 4.31748 -0.132749
98 2 42.8704 4.31438 1.50184 42.8704 4.31438 1.50184
99 2 42.8764 4.32058 -1.76033 42.8764 4.32058 -1.76033
100 1 43.824 5.96401 -0.124344 43.824 5.96401 -0.124344
101 2 45.7245 5.96118 1.50766 45.7245 5.96118 1.50766
102 2 45.7262 5.96685 -1.75451 45.7262 5.96685 -1.75451
103 1 46.676 4.31748 -0.125827 46.676 4.31748 -0.125827
104 2 48.5789 4.31406 1.50336 48.5789 4.31406 1.50336
105 2 48.5757 4.32091 -1.75882 48.5757 4.32091 -1.75882
106 1 49.528 5.96402 -0.125199 49.528 5.96402 -0.125199
107 2 51.433 5.96093 1.50145 51.433 5.96093 1.50145
108 2 51.4255 5.9671 -1.76072 51.4255 5.9671 -1.76072
109 1 1.04482 7.61055 -0.12871 1.04482 7.61055 -0.12871
110 2 2.95164 7.60798 1.49591 2.95164 7.60798 1.49591
111 2 2.9406 7.61311 -1.76625 2.9406 7.61311 -1.76625
112 1 3.89677 9.25708 -0.135791 3.89677 9.25708 -0.135791
113 2 5.8047 9.25513 1.48753 5.8047 9.25513 1.48753
114 2 5.79143 9.25902 -1.77462 5.79143 9.25902 -1.77462
115 1 6.74871 7.61054 -0.149381 6.74871 7.61054 -0.149381
116 2 8.65692 7.60805 1.47362 8.65692 7.60805 1.47362
117 2 8.64309 7.61303 -1.78853 8.64309 7.61303 -1.78853
118 1 9.60065 9.25707 -0.158957 9.60065 9.25707 -0.158957
119 2 11.5084 9.25519 1.46454 11.5084 9.25519 1.46454
120 2 11.4954 9.25893 -1.79762 11.4954 9.25893 -1.79762
121 1 12.4526 7.61053 -0.172227 12.4526 7.61053 -0.172227
122 2 14.359 7.60843 1.45294 14.359 7.60843 1.45294
123 2 14.3488 7.61263 -1.80923 14.3488 7.61263 -1.80923
124 1 15.3045 9.25706 -0.178968 15.3045 9.25706 -0.178968
125 2 17.2092 9.25552 1.4482 17.2092 9.25552 1.4482
126 2 17.2025 9.25859 -1.81398 17.2025 9.25859 -1.81398
127 1 18.1565 7.61053 -0.186413 18.1565 7.61053 -0.186413
128 2 20.0588 7.60889 1.44352 20.0588 7.60889 1.44352
129 2 20.0568 7.61215 -1.81866 20.0568 7.61215 -1.81866
130 1 21.0085 9.25705 -0.186498 21.0085 9.25705 -0.186498
131 2 22.9087 9.25584 1.44587 22.9087 9.25584 1.44587
132 2 22.9108 9.25826 -1.81631 22.9108 9.25826 -1.81631
133 1 23.8604 7.61052 -0.185817 23.8604 7.61052 -0.185817
134 2 25.7585 7.6091 1.44908 25.7585 7.6091 1.44908
135 2 25.7649 7.61195 -1.8131 25.7649 7.61195 -1.8131
136 1 26.7124 9.25705 -0.178666 26.7124 9.25705 -0.178666
137 2 28.6088 9.25601 1.45812 28.6088 9.25601 1.45812
138 2 28.6185 9.25811 -1.80405 28.6185 9.25811 -1.80405
139 1 29.5643 7.61053 -0.171185 29.5643 7.61053 -0.171185
140 2 31.4595 7.60909 1.46705 31.4595 7.60909 1.46705
141 2 31.4717 7.61197 -1.79511 31.4717 7.61197 -1.79511
142 1 32.4163 9.25706 -0.158993 32.4163 9.25706 -0.158993
143 2 34.311 9.25611 1.47977 34.311 9.25611 1.47977
144 2 34.3241 9.25803 -1.78239 34.3241 9.25803 -1.78239
145 1 35.2682 7.61054 -0.148435 35.2682 7.61054 -0.148435
146 2 37.1632 7.60893 1.48996 37.1632 7.60893 1.48996
147 2 37.1757 7.61216 -1.7722 37.1757 7.61216 -1.7722
148 1 38.1201 9.25708 -0.135828 38.1201 9.25708 -0.135828
149 2 40.0163 9.25602 1.50123 40.0163 9.25602 1.50123
150 2 40.0265 9.25814 -1.76094 40.0265 9.25814 -1.76094
151 1 40.9721 7.61055 -0.127929 40.9721 7.61055 -0.127929
152 2 42.8702 7.60857 1.50687 42.8702 7.60857 1.50687
153 2 42.8766 7.61253 -1.7553 42.8766 7.61253 -1.7553
154 1 43.824 9.25708 -0.120346 43.824 9.25708 -0.120346
155 2 45.7244 9.25569 1.51185 45.7244 9.25569 1.51185
156 2 45.7263 9.25847 -1.75033 45.7263 9.25847 -1.75033
157 1 46.676 7.61055 -0.120083 46.676 7.61055 -0.120083
158 2 48.5789 7.60819 1.50918 48.5789 7.60819 1.50918
159 2 48.5758 7.61291 -1.753 48.5758 7.61291 -1.753
160 1 49.528 9.25708 -0.120424 49.528 9.25708 -0.120424
161 2 51.433 9.25534 1.50631 51.433 9.25534 1.50631
162 2 51.4256 9.25882 -1.75587 51.4256 9.25882 -1.75587
163 1 1.04482 10.9036 -0.125181 1.04482 10.9036 -0.125181
164 2 2.95155 10.9025 1.49954 2.95155 10.9025 1.49954
165 2 2.94069 10.9047 -1.76262 2.94069 10.9047 -1.76262
166 1 3.89677 12.5501 -0.133627 3.89677 12.5501 -0.133627
167 2 5.80458 12.5497 1.48984 5.80458 12.5497 1.48984
168 2 5.79155 12.5506 -1.77232 5.79155 12.5506 -1.77232
169 1 6.74871 10.9036 -0.145443 6.74871 10.9036 -0.145443
170 2 8.65699 10.9023 1.47748 8.65699 10.9023 1.47748
171 2 8.64302 10.9049 -1.78468 8.64302 10.9049 -1.78468
172 1 9.60065 12.5501 -0.156384 9.60065 12.5501 -0.156384
173 2 11.5085 12.5495 1.46707 11.5085 12.5495 1.46707
174 2 11.4954 12.5507 -1.79509 11.4954 12.5507 -1.79509
175 1 12.4526 10.9036 -0.168425 12.4526 10.9036 -0.168425
176 2 14.3592 10.9024 1.45644 14.3592 10.9024 1.45644
177 2 14.3485 10.9048 -1.80572 14.3485 10.9048 -1.80572
178 1 15.3045 12.5501 -0.17653 15.3045 12.5501 -0.17653
179 2 17.2095 12.5496 1.45038 17.2095 12.5496 1.45038
180 2 17.2022 12.5506 -1.8118 17.2022 12.5506 -1.8118
181 1 18.1565 10.9036 -0.183291 18.1565 10.9036 -0.183291
182 2 20.0591 10.9027 1.44629 20.0591 10.9027 1.44629
183 2 20.0565 10.9045 -1.8159 20.0565 10.9045 -1.8159
184 1 21.0084 12.5501 -0.184637 21.0084 12.5501 -0.184637
185 2 22.9089 12.5499 1.44747 22.9089 12.5499 1.44747
186 2 22.9106 12.5503 -1.81472 22.9106 12.5503 -1.81472
187 1 23.8604 10.9036 -0.183356 23.8604 10.9036 -0.183356
188 2 25.7587 10.9029 1.45132 25.7587 10.9029 1.45132
189 2 25.7647 10.9043 -1.81086 25.7647 10.9043 -1.81086
190 1 26.7124 12.5501 -0.177298 26.7124 12.5501 -0.177298
191 2 28.609 12.5502 1.45927 28.609 12.5502 1.45927
192 2 28.6183 12.5501 -1.8029 28.6183 12.5501 -1.8029
193 1 29.5643 10.9036 -0.169042 29.5643 10.9036 -0.169042
194 2 31.4596 10.9032 1.46904 31.4596 10.9032 1.46904
195 2 31.4716 10.904 -1.79313 31.4716 10.904 -1.79313
196 1 32.4162 12.5501 -0.1581 32.4162 12.5501 -0.1581
197 2 34.3111 12.5505 1.48047 34.3111 12.5505 1.48047
198 2 34.3239 12.5498 -1.78169 34.3239 12.5498 -1.78169
199 1 35.2682 10.9036 -0.146493 35.2682 10.9036 -0.146493
200 2 37.1633 10.9033 1.49187 37.1633 10.9033 1.49187
201 2 37.1757 10.9039 -1.77029 37.1757 10.9039 -1.77029
202 1 38.1201 12.5501 -0.135304 38.1201 12.5501 -0.135304
203 2 40.0163 12.5507 1.50178 40.0163 12.5507 1.50178
204 2 40.0266 12.5496 -1.76039 40.0266 12.5496 -1.76039
205 1 40.9721 10.9036 -0.125786 40.9721 10.9036 -0.125786
206 2 42.8701 10.9032 1.50918 42.8701 10.9032 1.50918
207 2 42.8767 10.904 -1.753 42.8767 10.904 -1.753
208 1 43.824 12.5502 -0.119583 43.824 12.5502 -0.119583
209 2 45.7242 12.5505 1.51283 45.7242 12.5505 1.51283
210 2 45.7265 12.5499 -1.74935 45.7265 12.5499 -1.74935
211 1 46.676 10.9036 -0.117274 46.676 10.9036 -0.117274
212 2 48.5787 10.9029 1.51219 48.5787 10.9029 1.51219
213 2 48.5759 10.9043 -1.74999 48.5759 10.9043 -1.74999
214 1 49.528 12.5502 -0.118964 49.528 12.5502 -0.118964
215 2 51.4328 12.5501 1.50801 51.4328 12.5501 1.50801
216 2 51.4258 12.5502 -1.75417 51.4258 12.5502 -1.75417
217 1 1.04482 14.1967 -0.125067 1.04482 14.1967 -0.125067
218 2 2.95131 14.1972 1.49993 2.95131 14.1972 1.49993
219 2 2.94093 14.1961 -1.76223 2.94093 14.1961 -1.76223
220 1 3.89677 15.8432 -0.134727 3.89677 15.8432 -0.134727
221 2 5.80431 15.8442 1.48905 5.80431 15.8442 1.48905
222 2 5.79182 15.8422 -1.77311 5.79182 15.8422 -1.77311
223 1 6.74871 14.1967 -0.144622 6.74871 14.1967 -0.144622
224 2 8.65684 14.1969 1.47847 8.65684 14.1969 1.47847
225 2 8.64317 14.1965 -1.78368 8.64317 14.1965 -1.78368
226 1 9.60065 15.8432 -0.156793 9.60065 15.8432 -0.156793
227 2 11.5084 15.8439 1.46682 11.5084 15.8439 1.46682
228 2 11.4955 15.8424 -1.79534 11.4955 15.8424 -1.79534
229 1 12.4526 14.1967 -0.167223 12.4526 14.1967 -0.167223
230 2 14.3593 14.1967 1.45759 14.3593 14.1967 1.45759
231 2 14.3485 14.1966 -1.80457 14.3485 14.1966 -1.80457
232 1 15.3045 15.8432 -0.176714 15.3045 15.8432 -0.176714
233 2 17.2095 15.844 1.45012 17.2095 15.844 1.45012
234 2 17.2022 15.8424 -1.81206 17.2022 15.8424 -1.81206
235 1 18.1565 14.1966 -0.182307 18.1565 14.1966 -0.182307
236 2 20.0593 14.1969 1.44705 20.0593 14.1969 1.44705
237 2 20.0563 14.1964 -1.81513 20.0563 14.1964 -1.81513
238 1 21.0084 15.8432 -0.185183 21.0084 15.8432 -0.185183
239 2 22.9091 15.8442 1.44674 22.9091 15.8442 1.44674
240 2 22.9104 15.8421 -1.81545 22.9104 15.8421 -1.81545
241 1 23.8604 14.1966 -0.182889 23.8604 14.1966 -0.182889
242 2 25.7589 14.1972 1.45157 25.7589 14.1972 1.45157
243 2 25.7646 14.1961 -1.81061 25.7646 14.1961 -1.81061
244 1 26.7124 15.8432 -0.178384 26.7124 15.8432 -0.178384
245 2 28.6092 15.8445 1.45798 28.6092 15.8445 1.45798
246 2 28.6181 15.8418 -1.80419 28.6181 15.8418 -1.80419
247 1 29.5643 14.1967 -0.169106 29.5643 14.1967 -0.169106
248 2 31.4599 14.1975 1.46873 31.4599 14.1975 1.46873
249 2 31.4714 14.1958 -1.79344 31.4714 14.1958 -1.79344
250 1 32.4163 15.8432 -0.159866 32.4163 15.8432 -0.159866
251 2 34.3113 15.8449 1.47849 34.3113 15.8449 1.47849
252 2 34.3238 15.8415 -1.78367 34.3238 15.8415 -1.78367
253 1 35.2682 14.1967 -0.147229 35.2682 14.1967 -0.147229
254 2 37.1634 14.1979 1.49099 37.1634 14.1979 1.49099
255 2 37.1756 14.1955 -1.77117 37.1756 14.1955 -1.77117
256 1 38.1201 15.8432 -0.137731 38.1201 15.8432 -0.137731
257 2 40.0163 15.8451 1.49934 40.0163 15.8451 1.49934
258 2 40.0266 15.8413 -1.76282 40.0266 15.8413 -1.76282
259 1 40.9721 14.1967 -0.126822 40.9721 14.1967 -0.126822
260 2 42.8699 14.1979 1.50827 42.8699 14.1979 1.50827
261 2 42.8768 14.1955 -1.7539 42.8768 14.1955 -1.7539
262 1 43.824 15.8432 -0.122026 43.824 15.8432 -0.122026
263 2 45.724 15.845 1.51063 45.724 15.845 1.51063
264 2 45.7267 15.8415 -1.75155 45.7267 15.8415 -1.75155
265 1 46.676 14.1967 -0.117899 46.676 14.1967 -0.117899
266 2 48.5784 14.1976 1.51185 48.5784 14.1976 1.51185
267 2 48.5762 14.1958 -1.75033 48.5762 14.1958 -1.75033
268 1 49.528 15.8432 -0.120829 49.528 15.8432 -0.120829
269 2 51.4325 15.8446 1.50647 51.4325 15.8446 1.50647
270 2 51.426 15.8418 -1.75571 51.426 15.8418 -1.75571
271 1 1.04482 17.4898 -0.127931 1.04482 17.4898 -0.127931
272 2 2.951 17.4915 1.49742 2.951 17.4915 1.49742
273 2 2.94123 17.488 -1.76475 2.94123 17.488 -1.76475
274 1 3.89676 19.1363 -0.138302 3.89676 19.1363 -0.138302
275 2 5.804 19.1382 1.48582 5.804 19.1382 1.48582
276 2 5.79212 19.1343 -1.77634 5.79212 19.1343 -1.77634
277 1 6.74871 17.4897 -0.146718 6.74871 17.4897 -0.146718
278 2 8.65658 17.4911 1.47668 8.65658 17.4911 1.47668
279 2 8.64343 17.4883 -1.78548 8.64343 17.4883 -1.78548
280 1 9.60065 19.1363 -0.15966 9.60065 19.1363 -0.15966
281 2 11.5081 19.138 1.46419 11.5081 19.138 1.46419
282 2 11.4957 19.1345 -1.79797 11.4957 19.1345 -1.79797
283 1 12.4526 17.4897 -0.168755 12.4526 17.4897 -0.168755
284 2 14.3592 17.491 1.45616 14.3592 17.491 1.45616
285 2 14.3486 17.4884 -1.80601 14.3486 17.4884 -1.80601
286 1 15.3045 19.1362 -0.179303 15.3045 19.1362 -0.179303
287 2 17.2095 19.138 1.44753 17.2095 19.138 1.44753
288 2 17.2022 19.1345 -1.81465 17.2022 19.1345 -1.81465
289 1 18.1565 17.4897 -0.1839 18.1565 17.4897 -0.1839
290 2 20.0594 17.4912 1.44535 20.0594 17.4912 1.44535
291 2 20.0562 17.4882 -1.81683 20.0562 17.4882 -1.81683
292 1 21.0084 19.1362 -0.188155 21.0084 19.1362 -0.188155
293 2 22.9092 19.1383 1.44364 22.9092 19.1383 1.44364
294 2 22.9103 19.1342 -1.81854 22.9103 19.1342 -1.81854
295 1 23.8604 17.4897 -0.184999 23.8604 17.4897 -0.184999
296 2 25.759 17.4915 1.4493 25.759 17.4915 1.4493
297 2 25.7644 17.4879 -1.81288 25.7644 17.4879 -1.81288
298 1 26.7124 19.1362 -0.181997 26.7124 19.1362 -0.181997
299 2 28.6093 19.1387 1.45424 28.6093 19.1387 1.45424
300 2 28.618 19.1338 -1.80793 28.618 19.1338 -1.80793
301 1 29.5643 17.4897 -0.171838 29.5643 17.4897 -0.171838
302 2 31.46 17.4918 1.46581 31.46 17.4918 1.46581
303 2 31.4712 17.4876 -1.79635 31.4712 17.4876 -1.79635
304 1 32.4163 19.1363 -0.164118 32.4163 19.1363 -0.164118
305 2 34.3114 19.1389 1.47413 34.3114 19.1389 1.47413
306 2 34.3237 19.1336 -1.78803 34.3237 19.1336 -1.78803
307 1 35.2682 17.4897 -0.150679 35.2682 17.4897 -0.150679
308 2 37.1635 17.4921 1.48744 37.1635 17.4921 1.48744
309 2 37.1755 17.4874 -1.77472 37.1755 17.4874 -1.77472
310 1 38.1201 19.1363 -0.142507 38.1201 19.1363 -0.142507
311 2 40.0163 19.139 1.49462 40.0163 19.139 1.49462
312 2 40.0266 19.1335 -1.76754 40.0266 19.1335 -1.76754
313 1 40.9721 17.4898 -0.130655 40.9721 17.4898 -0.130655
314 2 42.8698 17.4921 1.50459 42.8698 17.4921 1.50459
315 2 42.877 17.4874 -1.75758 42.877 17.4874 -1.75758
316 1 43.824 19.1363 -0.126792 43.824 19.1363 -0.126792
317 2 45.7238 19.1389 1.50612 45.7238 19.1389 1.50612
318 2 45.7269 19.1337 -1.75606 45.7269 19.1337 -1.75606
319 1 46.676 17.4898 -0.12143 46.676 17.4898 -0.12143
320 2 48.5782 17.4919 1.50863 48.5782 17.4919 1.50863
321 2 48.5765 17.4877 -1.75355 48.5765 17.4877 -1.75355
322 1 49.528 19.1363 -0.125095 49.528 19.1363 -0.125095
323 2 51.4322 19.1386 1.50253 51.4322 19.1386 1.50253
324 2 51.4263 19.134 -1.75964 51.4263 19.134 -1.75964
325 1 1.04481 20.7828 -0.132613 1.04481 20.7828 -0.132613
326 2 2.95072 20.7852 1.49306 2.95072 20.7852 1.49306
327 2 2.9415 20.7804 -1.76911 2.9415 20.7804 -1.76911
328 1 3.89676 22.4293 -0.143139 3.89676 22.4293 -0.143139
329 2 5.80374 22.4317 1.48128 5.80374 22.4317 1.48128
330 2 5.79237 22.427 -1.78088 5.79237 22.427 -1.78088
331 1 6.74871 20.7828 -0.150728 6.74871 20.7828 -0.150728
332 2 8.6563 20.7849 1.47298 8.6563 20.7849 1.47298
333 2 8.6437 20.7807 -1.78918 8.6437 20.7807 -1.78918
334 1 9.60064 22.4293 -0.163889 9.60064 22.4293 -0.163889
335 2 11.5079 22.4314 1.4602 11.5079 22.4314 1.4602
336 2 11.4959 22.4272 -1.80197 11.4959 22.4272 -1.80197
337 1 12.4526 20.7828 -0.172235 12.4526 20.7828 -0.172235
338 2 14.3591 20.7847 1.45281 14.3591 20.7847 1.45281
339 2 14.3487 20.7808 -1.80936 14.3487 20.7808 -1.80936
340 1 15.3045 22.4293 -0.183283 15.3045 22.4293 -0.183283
341 2 17.2095 22.4315 1.44356 17.2095 22.4315 1.44356
342 2 17.2022 22.4272 -1.81862 17.2022 22.4272 -1.81862
343 1 18.1565 20.7828 -0.187478 18.1565 20.7828 -0.187478
344 2 20.0595 20.785 1.44169 20.0595 20.785 1.44169
345 2 20.0561 20.7806 -1.82049 20.0561 20.7806 -1.82049
346 1 21.0084 22.4293 -0.192583 21.0084 22.4293 -0.192583
347 2 22.9093 22.4318 1.43909 22.9093 22.4318 1.43909
348 2 22.9102 22.4268 -1.82309 22.9102 22.4268 -1.82309
349 1 23.8604 20.7828 -0.189212 23.8604 20.7828 -0.189212
350 2 25.7591 20.7853 1.44497 25.7591 20.7853 1.44497
351 2 25.7643 20.7802 -1.81721 25.7643 20.7802 -1.81721
352 1 26.7124 22.4293 -0.187164 26.7124 22.4293 -0.187164
353 2 28.6093 22.4321 1.449 28.6093 22.4321 1.449
354 2 28.618 22.4265 -1.81317 28.618 22.4265 -1.81317
355 1 29.5643 20.7828 -0.176714 29.5643 20.7828 -0.176714
356 2 31.4601 20.7856 1.46087 31.4601 20.7856 1.46087
357 2 31.4712 20.78 -1.80129 31.4712 20.78 -1.80129
358 1 32.4163 22.4293 -0.169815 32.4163 22.4293 -0.169815
359 2 34.3114 22.4323 1.46845 34.3114 22.4323 1.46845
360 2 34.3237 22.4264 -1.79371 34.3237 22.4264 -1.79371
361 1 35.2682 20.7828 -0.156052 35.2682 20.7828 -0.156052
362 2 37.1635 20.7857 1.48208 37.1635 20.7857 1.48208
363 2 37.1755 20.7799 -1.78008 37.1755 20.7799 -1.78008
364 1 38.1201 22.4293 -0.148438 38.1201 22.4293 -0.148438
365 2 40.0162 22.4323 1.48881 40.0162 22.4323 1.48881
366 2 40.0267 22.4264 -1.77336 40.0267 22.4264 -1.77336
367 1 40.9721 20.7828 -0.136206 40.9721 20.7828 -0.136206
368 2 42.8697 20.7857 1.49922 42.8697 20.7857 1.49922
369 2 42.8771 20.78 -1.76295 42.8771 20.78 -1.76295
370 1 43.824 22.4294 -0.132595 43.824 22.4294 -0.132595
371 2 45.7236 22.4322 1.50054 45.7236 22.4322 1.50054
372 2 45.7271 22.4265 -1.76164 45.7271 22.4265 -1.76164
373 1 46.676 20.7828 -0.126671 46.676 20.7828 -0.126671
374 2 48.5779 20.7855 1.50367 48.5779 20.7855 1.50367
375 2 48.5767 20.7802 -1.75851 48.5767 20.7802 -1.75851
376 1 49.528 22.4294 -0.130473 49.528 22.4294 -0.130473
377 2 51.432 22.432 1.49741 51.432 22.432 1.49741
378 2 51.4266 22.4267 -1.76476 51.4266 22.4267 -1.76476
379 1 1.04481 24.0759 -0.137915 1.04481 24.0759 -0.137915
380 2 2.95052 24.0784 1.48799 2.95052 24.0784 1.48799
381 2 2.9417 24.0734 -1.77418 2.9417 24.0734 -1.77418
382 1 3.89676 25.7224 -0.148215 3.89676 25.7224 -0.148215
383 2 5.80355 25.7247 1.47643 5.80355 25.7247 1.47643
384 2 5.79256 25.7201 -1.78573 5.79256 25.7201 -1.78573
385 1 6.7487 24.0759 -0.155507 6.7487 24.0759 -0.155507
386 2 8.65607 24.0781 1.46846 8.65607 24.0781 1.46846
387 2 8.64392 24.0736 -1.7937 8.64392 24.0736 -1.7937
388 1 9.60064 25.7224 -0.168441 9.60064 25.7224 -0.168441
389 2 11.5077 25.7244 1.45586 11.5077 25.7244 1.45586
390 2 11.4961 25.7203 -1.8063 11.4961 25.7203 -1.8063
391 1 12.4526 24.0758 -0.176525 12.4526 24.0758 -0.176525
392 2 14.359 24.0779 1.44865 14.359 24.0779 1.44865
393 2 14.3488 24.0738 -1.81352 14.3488 24.0738 -1.81352
394 1 15.3045 25.7224 -0.187501 15.3045 25.7224 -0.187501
395 2 17.2095 25.7243 1.43938 17.2095 25.7243 1.43938
396 2 17.2022 25.7204 -1.8228 17.2022 25.7204 -1.8228
397 1 18.1565 24.0758 -0.191831 18.1565 24.0758 -0.191831
398 2 20.0595 24.0781 1.43726 20.0595 24.0781 1.43726
399 2 20.0561 24.0736 -1.82492 20.0561 24.0736 -1.82492
400 1 21.0084 25.7224 -0.1971 21.0084 25.7224 -0.1971
401 2 22.9094 25.7245 1.43446 22.9094 25.7245 1.43446
402 2 22.9101 25.7202 -1.82772 22.9101 25.7202 -1.82772
403 1 23.8604 24.0758 -0.194225 23.8604 24.0758 -0.194225
404 2 25.7592 24.0784 1.43985 25.7592 24.0784 1.43985
405 2 25.7642 24.0733 -1.82233 25.7642 24.0733 -1.82233
406 1 26.7124 25.7224 -0.192362 26.7124 25.7224 -0.192362
407 2 28.6094 25.7248 1.44374 28.6094 25.7248 1.44374
408 2 28.6179 25.7199 -1.81843 28.6179 25.7199 -1.81843
409 1 29.5643 24.0758 -0.182387 29.5643 24.0758 -0.182387
410 2 31.4601 24.0786 1.45519 31.4601 24.0786 1.45519
411 2 31.4712 24.0731 -1.80697 31.4712 24.0731 -1.80697
412 1 32.4163 25.7224 -0.175476 32.4163 25.7224 -0.175476
413 2 34.3114 25.725 1.46283 34.3114 25.725 1.46283
414 2 34.3237 25.7198 -1.79933 34.3237 25.7198 -1.79933
415 1 35.2682 24.0759 -0.162024 35.2682 24.0759 -0.162024
416 2 37.1634 24.0787 1.47619 37.1634 24.0787 1.47619
417 2 37.1756 24.073 -1.78597 37.1756 24.073 -1.78597
418 1 38.1201 25.7224 -0.154217 38.1201 25.7224 -0.154217
419 2 40.0161 25.725 1.48311 40.0161 25.725 1.48311
420 2 40.0268 25.7198 -1.77906 40.0268 25.7198 -1.77906
421 1 40.9721 24.0759 -0.14218 40.9721 24.0759 -0.14218
422 2 42.8695 24.0787 1.49339 42.8695 24.0787 1.49339
423 2 42.8773 24.0731 -1.76878 42.8773 24.0731 -1.76878
424 1 43.824 25.7224 -0.138297 43.824 25.7224 -0.138297
425 2 45.7235 25.725 1.49496 45.7235 25.725 1.49496
426 2 45.7272 25.7198 -1.76722 45.7272 25.7198 -1.76722
427 1 46.676 24.0759 -0.132379 46.676 24.0759 -0.132379
428 2 48.5777 24.0786 1.49816 48.5777 24.0786 1.49816
429 2 48.5769 24.0732 -1.76402 48.5769 24.0732 -1.76402
430 1 49.528 25.7224 -0.135917 49.528 25.7224 -0.135917
431 2 51.4318 25.7249 1.49213 51.4318 25.7249 1.49213
432 2 51.4267 25.7199 -1.77005 51.4267 25.7199 -1.77005
433 1 1.04481 27.3689 -0.143023 1.04481 27.3689 -0.143023
434 2 2.95039 27.3713 1.48303 2.95039 27.3713 1.48303
435 2 2.94183 27.3666 -1.77914 2.94183 27.3666 -1.77914
436 1 3.89676 29.0155 -0.152911 3.89676 29.0155 -0.152911
437 2 5.8034 29.0175 1.4719 5.8034 29.0175 1.4719
438 2 5.79271 29.0134 -1.79026 5.79271 29.0134 -1.79026
439 1 6.7487 27.3689 -0.16022 6.7487 27.3689 -0.16022
440 2 8.65588 27.371 1.46398 8.65588 27.371 1.46398
441 2 8.64411 27.3669 -1.79818 8.64411 27.3669 -1.79818
442 1 9.60064 29.0155 -0.17264 9.60064 29.0155 -0.17264
443 2 11.5075 29.0172 1.4519 11.5075 29.0172 1.4519
444 2 11.4963 29.0137 -1.81027 11.4963 29.0137 -1.81027
445 1 12.4526 27.3689 -0.180698 12.4526 27.3689 -0.180698
446 2 14.3588 27.3707 1.44464 14.3588 27.3707 1.44464
447 2 14.349 27.3671 -1.81752 14.349 27.3671 -1.81752
448 1 15.3045 29.0154 -0.191128 15.3045 29.0154 -0.191128
449 2 17.2093 29.0168 1.4359 17.2093 29.0168 1.4359
450 2 17.2024 29.014 -1.82628 17.2024 29.014 -1.82628
451 1 18.1565 27.3689 -0.195804 18.1565 27.3689 -0.195804
452 2 20.0595 27.3706 1.43327 20.0595 27.3706 1.43327
453 2 20.0561 27.3672 -1.82891 20.0561 27.3672 -1.82891
454 1 21.0085 29.0154 -0.200571 21.0085 29.0154 -0.200571
455 2 22.9094 29.0168 1.43096 22.9094 29.0168 1.43096
456 2 22.9101 29.0141 -1.83123 22.9101 29.0141 -1.83123
457 1 23.8604 27.3689 -0.198588 23.8604 27.3689 -0.198588
458 2 25.7593 27.3708 1.43538 25.7593 27.3708 1.43538
459 2 25.7642 27.367 -1.8268 25.7642 27.367 -1.8268
460 1 26.7124 29.0154 -0.196209 26.7124 29.0154 -0.196209
461 2 28.6095 29.017 1.4398 28.6095 29.017 1.4398
462 2 28.6179 29.0139 -1.82238 28.6179 29.0139 -1.82238
463 1 29.5643 27.3689 -0.187317 29.5643 27.3689 -0.187317
464 2 31.4601 27.371 1.45023 31.4601 27.371 1.45023
465 2 31.4711 27.3668 -1.81193 31.4711 27.3668 -1.81193
466 1 32.4163 29.0154 -0.179775 32.4163 29.0154 -0.179775
467 2 34.3114 29.0172 1.45848 34.3114 29.0172 1.45848
468 2 34.3237 29.0137 -1.80368 34.3237 29.0137 -1.80368
469 1 35.2682 27.3689 -0.16725 35.2682 27.3689 -0.16725
470 2 37.1634 27.3712 1.47098 37.1634 27.3712 1.47098
471 2 37.1756 27.3667 -1.79118 37.1756 27.3667 -1.79118
472 1 38.1202 29.0155 -0.158825 38.1202 29.0155 -0.158825
473 2 40.0161 29.0175 1.47845 40.0161 29.0175 1.47845
474 2 40.0268 29.0135 -1.78372 40.0268 29.0135 -1.78372
475 1 40.9721 27.3689 -0.147521 40.9721 27.3689 -0.147521
476 2 42.8695 27.3714 1.48809 42.8695 27.3714 1.48809
477 2 42.8773 27.3665 -1.77408 42.8773 27.3665 -1.77408
478 1 43.824 29.0155 -0.14316 43.824 29.0155 -0.14316
479 2 45.7235 29.0177 1.49009 45.7235 29.0177 1.49009
480 2 45.7272 29.0133 -1.77209 45.7272 29.0133 -1.77209
481 1 46.676 27.369 -0.137689 46.676 27.369 -0.137689
482 2 48.5777 27.3714 1.49294 48.5777 27.3714 1.49294
483 2 48.577 27.3665 -1.76924 48.577 27.3665 -1.76924
484 1 49.528 29.0155 -0.14082 49.528 29.0155 -0.14082
485 2 51.4318 29.0177 1.4873 51.4318 29.0177 1.4873
486 2 51.4268 29.0133 -1.77488 51.4268 29.0133 -1.77488
487 1 1.04481 30.662 -0.147505 1.04481 30.662 -0.147505
488 2 2.95031 30.664 1.47864 2.95031 30.664 1.47864
489 2 2.94191 30.66 -1.78354 2.94191 30.66 -1.78354
490 1 3.89676 32.3085 -0.156916 3.89676 32.3085 -0.156916
491 2 5.80328 32.3102 1.46804 5.80328 32.3102 1.46804
492 2 5.79283 32.3068 -1.79413 5.79283 32.3068 -1.79413
493 1 6.7487 30.662 -0.164398 6.7487 30.662 -0.164398
494 2 8.65569 30.6637 1.46002 8.65569 30.6637 1.46002
495 2 8.6443 30.6603 -1.80214 8.6443 30.6603 -1.80214
496 1 9.60064 32.3085 -0.176146 9.60064 32.3085 -0.176146
497 2 11.5073 32.3098 1.44869 11.5073 32.3098 1.44869
498 2 11.4966 32.3072 -1.81348 11.4966 32.3072 -1.81348
499 1 12.4526 30.662 -0.184213 12.4526 30.662 -0.184213
500 2 14.3586 30.6633 1.4414 14.3586 30.6633 1.4414
501 2 14.3492 30.6607 -1.82077 14.3492 30.6607 -1.82077
502 1 15.3045 32.3085 -0.193732 15.3045 32.3085 -0.193732
503 2 17.2091 32.3092 1.43361 17.2091 32.3092 1.43361
504 2 17.2026 32.3078 -1.82857 17.2026 32.3078 -1.82857
505 1 18.1565 30.662 -0.198651 18.1565 30.662 -0.198651
506 2 20.0594 30.6629 1.43057 20.0594 30.6629 1.43057
507 2 20.0562 30.6611 -1.83162 20.0562 30.6611 -1.83162
508 1 21.0085 32.3085 -0.202377 21.0085 32.3085 -0.202377
509 2 22.9093 32.3088 1.42925 22.9093 32.3088 1.42925
510 2 22.9102 32.3082 -1.83294 22.9102 32.3082 -1.83294
511 1 23.8604 30.662 -0.201271 23.8604 30.662 -0.201271
512 2 25.7593 30.6628 1.43263 25.7593 30.6628 1.43263
513 2 25.7641 30.6611 -1.82955 25.7641 30.6611 -1.82955
514 1 26.7124 32.3085 -0.19792 26.7124 32.3085 -0.19792
515 2 28.6096 32.3089 1.43796 28.6096 32.3089 1.43796
516 2 28.6178 32.3081 -1.82421 28.6178 32.3081 -1.82421
517 1 29.5643 30.662 -0.19037 29.5643 30.662 -0.19037
518 2 31.4602 30.6631 1.44706 31.4602 30.6631 1.44706
519 2 31.471 30.6609 -1.81511 31.471 30.6609 -1.81511
520 1 32.4163 32.3085 -0.181946 32.4163 32.3085 -0.181946
521 2 34.3116 32.3092 1.45611 34.3116 32.3092 1.45611
522 2 34.3235 32.3078 -1.80605 34.3235 32.3078 -1.80605
523 1 35.2682 30.662 -0.170775 35.2682 30.662 -0.170775
524 2 37.1635 30.6634 1.46732 37.1635 30.6634 1.46732
525 2 37.1755 30.6606 -1.79484 37.1755 30.6606 -1.79484
526 1 38.1202 32.3085 -0.161692 38.1202 32.3085 -0.161692
527 2 40.0164 32.3097 1.47533 40.0164 32.3097 1.47533
528 2 40.0266 32.3073 -1.78684 40.0266 32.3073 -1.78684
529 1 40.9721 30.662 -0.151567 40.9721 30.662 -0.151567
530 2 42.8696 30.6638 1.48391 42.8696 30.6638 1.48391
531 2 42.8772 30.6602 -1.77826 42.8772 30.6602 -1.77826
532 1 43.8241 32.3085 -0.146792 43.8241 32.3085 -0.146792
533 2 45.7236 32.3102 1.4863 45.7236 32.3102 1.4863
534 2 45.7271 32.3069 -1.77588 45.7271 32.3069 -1.77588
535 1 46.676 30.662 -0.142129 46.676 30.662 -0.142129
536 2 48.5777 30.664 1.48848 48.5777 30.664 1.48848
537 2 48.5769 30.66 -1.7737 48.5769 30.66 -1.7737
538 1 49.528 32.3085 -0.144872 49.528 32.3085 -0.144872
539 2 51.4318 32.3103 1.48325 51.4318 32.3103 1.48325