ITEM: TIMESTEP
9000
ITEM: NUMBER OF ATOMS
810
ITEM: BOX BOUNDS pp pp pp
8.5215715530821756e-01 5.2165447844691556e+01
8.2736453155887268e-01 5.0188850468440592e+01
-1.0000000000000000e+01 1.0000000000000000e+01
ITEM: ATOMS id type x y z xu yu zu
1 1 1.05863 1.03668 0.169294 1.05863 1.03668 0.169294
2 2 2.99804 0.947228 1.75212 2.99804 0.947228 1.75212
3 2 2.92094 1.12549 -1.50422 2.92094 1.12549 -1.50422
4 1 3.91051 2.68105 0.191764 3.91051 2.68105 0.191764
5 2 5.86794 2.60001 1.75289 5.86794 2.60001 1.75289
6 2 5.75371 2.76204 -1.50318 5.75371 2.76204 -1.50318
7 1 6.76028 1.03711 0.00948634 6.76028 1.03711 0.00948634
8 2 8.72563 0.950633 1.56014 8.72563 0.950633 1.56014
9 2 8.59444 1.12388 -1.69479 8.59444 1.12388 -1.69479
10 1 9.61068 2.68247 -0.0177933 9.61068 2.68247 -0.0177933
11 2 11.5801 2.6041 1.52831 11.5801 2.6041 1.52831
12 2 11.4403 2.76163 -1.7271 11.4403 2.76163 -1.7271
13 1 12.4594 1.0394 -0.219881 12.4594 1.0394 -0.219881
14 2 14.4213 50.3167 1.33533 14.4213 0.955209 1.33533
15 2 14.297 1.12466 -1.92013 14.297 1.12466 -1.92013
16 1 15.3097 2.68515 -0.242771 15.3097 2.68515 -0.242771
17 2 17.259 2.60659 1.32875 17.259 2.60659 1.32875
18 2 17.1609 2.76501 -1.92824 17.1609 2.76501 -1.92824
19 1 18.1599 1.04237 -0.408416 18.1599 1.04237 -0.408416
20 2 20.0884 50.3196 1.18831 20.0884 0.958067 1.18831
21 2 20.0331 1.12797 -2.06904 20.0331 1.12797 -2.06904
22 1 21.0115 2.68776 -0.370405 21.0115 2.68776 -0.370405
23 2 22.9167 2.60585 1.25429 22.9167 2.60585 1.25429
24 2 22.9083 2.77094 -2.00384 22.9083 2.77094 -2.00384
25 1 23.8633 1.04452 -0.460588 23.8633 1.04452 -0.460588
26 2 25.7443 0.957778 1.19196 25.7443 0.957778 1.19196
27 2 25.7844 1.13224 -2.06534 25.7844 1.13224 -2.06534
28 1 26.7145 2.68902 -0.336582 26.7145 2.68902 -0.336582
29 2 28.5742 2.60248 1.33988 28.5742 2.60248 1.33988
30 2 28.6558 2.7763 -1.91673 28.6558 2.7763 -1.91673
31 1 29.5659 1.04488 -0.352459 29.5659 1.04488 -0.352459
32 2 31.4096 0.955253 1.34137 31.4096 0.955253 1.34137
33 2 31.5223 1.1348 -1.91393 31.5223 1.1348 -1.91393
34 1 32.4152 2.68836 -0.162426 32.4152 2.68836 -0.162426
35 2 34.2511 2.59866 1.53974 34.2511 2.59866 1.53974
36 2 34.3786 2.77802 -1.71502 34.3786 2.77802 -1.71502
37 1 35.2656 1.04337 -0.141188 35.2656 1.04337 -0.141188
38 2 37.1008 0.951928 1.56155 37.1008 0.951928 1.56155
39 2 37.2299 1.13436 -1.69297 37.2299 1.13436 -1.69297
40 1 38.1144 2.68617 0.0643669 38.1144 2.68617 0.0643669
41 2 39.9587 2.596 1.75732 39.9587 2.596 1.75732
42 2 40.0705 2.77569 -1.49793 40.0705 2.77569 -1.49793
43 1 40.9654 1.04078 0.0713357 40.9654 1.04078 0.0713357
44 2 42.8227 0.948787 1.74976 42.8227 0.948787 1.74976
45 2 42.9094 1.13176 -1.50611 42.9094 1.13176 -1.50611
46 1 43.8159 2.68354 0.239797 43.8159 2.68354 0.239797
47 2 45.6938 2.59527 1.89542 45.6938 2.59527 1.89542
48 2 45.7406 2.77085 -1.36157 45.7406 2.77085 -1.36157
49 1 46.668 1.03819 0.191662 46.668 1.03819 0.191662
50 2 48.5655 0.946792 1.82436 48.5655 0.946792 1.82436
51 2 48.5732 1.12844 -1.43269 48.5732 1.12844 -1.43269
52 1 49.5202 2.68153 0.29006 49.5202 2.68153 0.29006
53 2 51.4416 2.59666 1.89521 51.4416 2.59666 1.89521
54 2 51.4017 2.76564 -1.36221 51.4017 2.76564 -1.36221
55 1 1.05942 4.32596 0.340527 1.05942 4.32596 0.340527
56 2 3.00324 4.25301 1.91923 3.00324 4.25301 1.91923
57 2 2.91772 4.39864 -1.33839 2.91772 4.39864 -1.33839
58 1 3.91146 5.97158 0.339388 3.91146 5.97158 0.339388
59 2 5.87315 5.91409 1.89653 5.87315 5.91409 1.89653
60 2 5.75044 6.02917 -1.36116 5.75044 6.02917 -1.36116
61 1 6.76161 4.32648 0.173704 6.76161 4.32648 0.173704
62 2 8.73061 4.25738 1.72087 8.73061 4.25738 1.72087
63 2 8.59203 4.39598 -1.53538 8.59203 4.39598 -1.53538
64 1 9.6117 5.97271 0.122665 9.6117 5.97271 0.122665
65 2 11.5834 5.9172 1.66687 11.5834 5.9172 1.66687
66 2 11.4387 6.02886 -1.59025 11.4387 6.02886 -1.59025
67 1 12.4606 4.32845 -0.0602724 12.4606 4.32845 -0.0602724
68 2 14.4246 4.25985 1.49308 14.4246 4.25985 1.49308
69 2 14.2957 4.39809 -1.76375 14.2957 4.39809 -1.76375
70 1 15.3104 5.97472 -0.102806 15.3104 5.97472 -0.102806
71 2 17.2598 5.91646 1.46941 17.2598 5.91646 1.46941
72 2 17.161 6.03407 -1.7894 17.161 6.03407 -1.7894
73 1 18.1604 4.331 -0.248034 18.1604 4.331 -0.248034
74 2 20.0893 4.25892 1.34878 20.0893 4.25892 1.34878
75 2 20.0328 4.40437 -1.90988 20.0328 4.40437 -1.90988
76 1 21.0115 5.97675 -0.223262 21.0115 5.97675 -0.223262
77 2 22.9152 5.91203 1.40386 22.9152 5.91203 1.40386
78 2 22.9093 6.04262 -1.85599 22.9093 6.04262 -1.85599
79 1 23.8629 4.33287 -0.293525 23.8629 4.33287 -0.293525
80 2 25.7433 4.25482 1.35999 25.7433 4.25482 1.35999
81 2 25.784 4.41197 -1.89833 25.784 4.41197 -1.89833
82 1 26.7135 5.97774 -0.177598 26.7135 5.97774 -0.177598
83 2 28.5718 5.90577 1.50101 28.5718 5.90577 1.50101
84 2 28.6556 6.05041 -1.75708 28.6556 6.05041 -1.75708
85 1 29.5645 4.33311 -0.176498 29.5645 4.33311 -0.176498
86 2 31.4085 4.24977 1.51737 31.4085 4.24977 1.51737
87 2 31.5203 4.41684 -1.73869 31.5203 4.41684 -1.73869
88 1 32.4134 5.97707 0.0067407 32.4134 5.97707 0.0067407
89 2 34.25 5.90071 1.70894 34.25 5.90071 1.70894
90 2 34.3762 6.05351 -1.54722 34.3762 6.05351 -1.54722
91 1 35.2637 4.3316 0.0405037 35.2637 4.3316 0.0405037
92 2 37.101 4.24634 1.74156 37.101 4.24634 1.74156
93 2 37.2263 4.4166 -1.51371 37.2263 4.4166 -1.51371
94 1 38.1126 5.97517 0.236885 38.1126 5.97517 0.236885
95 2 39.9601 5.89944 1.92731 39.9601 5.89944 1.92731
96 2 40.0661 6.05054 -1.32948 40.0661 6.05054 -1.32948
97 1 40.964 4.32921 0.253415 40.964 4.32921 0.253415
98 2 42.8248 4.24601 1.92868 42.8248 4.24601 1.92868
99 2 42.9051 4.41177 -1.32813 42.9051 4.41177 -1.32813
100 1 43.815 5.9731 0.407817 43.815 5.9731 0.407817
101 2 45.6979 5.90257 2.05905 45.6979 5.90257 2.05905
102 2 45.7355 6.04314 -1.1996 45.7355 6.04314 -1.1996
103 1 46.6677 4.32705 0.369572 46.6677 4.32705 0.369572
104 2 48.5696 4.24864 1.9983 48.5696 4.24864 1.9983
105 2 48.5692 4.40477 -1.25991 48.5692 4.40477 -1.25991
106 1 49.5204 5.97174 0.448328 49.5204 5.97174 0.448328
107 2 51.4471 5.9084 2.04856 51.4471 5.9084 2.04856
108 2 51.3971 6.03475 -1.2105 51.3971 6.03475 -1.2105
109 1 1.05997 7.61768 0.468666 1.05997 7.61768 0.468666
110 2 3.00906 7.57288 2.04224 3.00906 7.57288 2.04224
111 2 2.91315 7.66241 -1.21702 2.91315 7.66241 -1.21702
112 1 3.91191 9.26448 0.430226 3.91191 9.26448 0.430226
113 2 5.87774 9.23953 1.9832 5.87774 9.23953 1.9832
114 2 5.74663 9.28941 -1.27576 5.74663 9.28941 -1.27576
115 1 6.76234 7.61809 0.290369 6.76234 7.61809 0.290369
116 2 8.7344 7.57758 1.83485 8.7344 7.57758 1.83485
117 2 8.58956 7.65886 -1.42305 8.58956 7.65886 -1.42305
118 1 9.61199 9.26496 0.205027 9.61199 9.26496 0.205027
119 2 11.5847 9.24127 1.74883 11.5847 9.24127 1.74883
120 2 11.4378 9.2889 -1.50978 11.4378 9.2889 -1.50978
121 1 12.4611 7.61932 0.0528199 12.4611 7.61932 0.0528199
122 2 14.4255 7.57763 1.60671 14.4255 7.57763 1.60671
123 2 14.2956 7.66171 -1.652 14.2956 7.66171 -1.652
124 1 15.3105 9.26595 -0.0177624 15.3105 9.26595 -0.0177624
125 2 17.258 9.23763 1.55759 17.258 9.23763 1.55759
126 2 17.1629 9.29496 -1.70303 17.1629 9.29496 -1.70303
127 1 18.1606 7.62101 -0.129072 18.1606 7.62101 -0.129072
128 2 20.0876 7.57332 1.47093 20.0876 7.57332 1.47093
129 2 20.0345 7.66972 -1.78974 20.0345 7.66972 -1.78974
130 1 21.0112 9.26723 -0.125867 21.0112 9.26723 -0.125867
131 2 22.9113 9.23053 1.50623 22.9113 9.23053 1.50623
132 2 22.9122 9.30482 -1.75548 22.9122 9.30482 -1.75548
133 1 23.8624 7.62239 -0.161497 23.8624 7.62239 -0.161497
134 2 25.74 7.56636 1.49595 25.74 7.56636 1.49595
135 2 25.7856 7.6793 -1.76426 25.7856 7.6793 -1.76426
136 1 26.7125 9.26801 -0.0634519 26.7125 9.26801 -0.0634519
137 2 28.5677 9.22254 1.61954 28.5677 9.22254 1.61954
138 2 28.6573 9.31406 -1.64037 28.6573 9.31406 -1.64037
139 1 29.563 7.62255 -0.0301624 29.563 7.62255 -0.0301624
140 2 31.4057 7.55956 1.66601 31.4057 7.55956 1.66601
141 2 31.5199 7.6859 -1.59184 31.5199 7.6859 -1.59184
142 1 32.4117 9.26763 0.134601 32.4117 9.26763 0.134601
143 2 34.2479 9.21703 1.83829 34.2479 9.21703 1.83829
144 2 34.3749 9.3183 -1.41984 34.3749 9.3183 -1.41984
145 1 35.2619 7.62135 0.195279 35.2619 7.62135 0.195279
146 2 37.1008 7.55631 1.89549 37.1008 7.55631 1.89549
147 2 37.2229 7.68626 -1.3617 37.2229 7.68626 -1.3617
148 1 38.111 9.26637 0.3686 38.111 9.26637 0.3686
149 2 39.9619 9.21721 2.05651 39.9619 9.21721 2.05651
150 2 40.0617 9.31536 -1.2024 40.0617 9.31536 -1.2024
151 1 40.9626 7.61957 0.406599 40.9626 7.61957 0.406599
152 2 42.8282 7.55858 2.07789 42.8282 7.55858 2.07789
153 2 42.8998 7.68028 -1.18094 42.8998 7.68028 -1.18094
154 1 43.8143 9.26514 0.531299 43.8143 9.26514 0.531299
155 2 45.7033 9.22342 2.1769 45.7033 9.22342 2.1769
156 2 45.7295 9.30671 -1.0837 45.7295 9.30671 -1.0837
157 1 46.6674 7.6182 0.512138 46.6674 7.6182 0.512138
158 2 48.5754 7.56528 2.13522 48.5754 7.56528 2.13522
159 2 48.5636 7.67087 -1.12486 48.5636 7.67087 -1.12486
160 1 49.5206 9.2645 0.555503 49.5206 9.2645 0.555503
161 2 51.4536 9.23249 2.1494 51.4536 9.23249 2.1494
162 2 51.3913 9.29641 -1.11117 51.3913 9.29641 -1.11117
163 1 1.06022 10.9116 0.533622 1.06022 10.9116 0.533622
164 2 3.01468 10.9016 2.1013 3.01468 10.9016 2.1013
165 2 2.9079 10.9214 -1.15874 2.9079 10.9214 -1.15874
166 1 3.91179 12.5587 0.450418 3.91179 12.5587 0.450418
167 2 5.88111 12.5698 1.99918 5.88111 12.5698 1.99918
168 2 5.74272 12.5472 -1.25978 5.74272 12.5472 -1.25978
169 1 6.76237 10.9115 0.340973 6.76237 10.9115 0.340973
170 2 8.73654 10.9058 1.88335 8.73654 10.9058 1.88335
171 2 8.58728 10.9171 -1.37533 8.58728 10.9171 -1.37533
172 1 9.61151 12.5582 0.216374 9.61151 12.5582 0.216374
173 2 11.5839 12.57 1.76077 11.5839 12.57 1.76077
174 2 11.4377 12.5462 -1.49815 11.4377 12.5462 -1.49815
175 1 12.4609 10.9117 0.101005 12.4609 10.9117 0.101005
176 2 14.424 10.9037 1.65715 14.424 10.9037 1.65715
177 2 14.2968 10.92 -1.60274 14.2968 10.92 -1.60274
178 1 15.31 12.5581 -0.00143112 15.31 12.5581 -0.00143112
179 2 17.254 12.5643 1.57852 17.254 12.5643 1.57852
180 2 17.1661 12.5523 -1.68281 17.1661 12.5523 -1.68281
181 1 18.1604 10.9124 -0.0712166 18.1604 10.9124 -0.0712166
182 2 20.0835 10.897 1.53397 20.0835 10.897 1.53397
183 2 20.038 10.9286 -1.72814 20.038 10.9286 -1.72814
184 1 21.0108 12.5588 -0.0941123 21.0108 12.5588 -0.0941123
185 2 22.9058 12.5559 1.54432 22.9058 12.5559 1.54432
186 2 22.9167 12.5624 -1.71825 22.9167 12.5624 -1.71825
187 1 23.8618 10.9134 -0.0865274 23.8618 10.9134 -0.0865274
188 2 25.735 10.8885 1.5767 25.735 10.8885 1.5767
189 2 25.7891 10.939 -1.685 25.7891 10.939 -1.685
190 1 26.7117 12.5597 -0.0124902 26.7117 12.5597 -0.0124902
191 2 28.5624 12.5477 1.67601 28.5624 12.5477 1.67601
192 2 28.6607 12.5722 -1.58487 28.6607 12.5722 -1.58487
193 1 29.5618 10.9138 0.0623323 29.5618 10.9138 0.0623323
194 2 31.4017 10.8812 1.76229 31.4017 10.8812 1.76229
195 2 31.521 10.9467 -1.49718 31.521 10.9467 -1.49718
196 1 32.4104 12.56 0.200783 32.4104 12.56 0.200783
197 2 34.2453 12.5431 1.9066 34.2453 12.5431 1.9066
198 2 34.3749 12.577 -1.3528 34.3749 12.577 -1.3528
199 1 35.2603 10.9133 0.29785 35.2603 10.9133 0.29785
200 2 37.1005 10.8788 1.99778 37.1005 10.8788 1.99778
201 2 37.2205 10.9477 -1.2613 37.2205 10.9477 -1.2613
202 1 38.1099 12.5597 0.438461 38.1099 12.5597 0.438461
203 2 39.9639 12.5449 2.12374 39.9639 12.5449 2.12374
204 2 40.058 12.5744 -1.13663 40.058 12.5744 -1.13663
205 1 40.9617 10.9124 0.506207 40.9617 10.9124 0.506207
206 2 42.8323 10.8832 2.17293 42.8323 10.8832 2.17293
207 2 42.8944 10.9415 -1.08775 42.8944 10.9415 -1.08775
208 1 43.814 12.5593 0.590604 43.814 12.5593 0.590604
209 2 45.7091 12.5528 2.22981 45.7091 12.5528 2.22981
210 2 45.7234 12.5656 -1.03185 45.7234 12.5656 -1.03185
211 1 46.6674 10.9118 0.596759 46.6674 10.9118 0.596759
212 2 48.582 10.8924 2.21295 48.582 10.8924 2.21295
213 2 48.5572 10.9311 -1.04845 48.5572 10.9311 -1.04845
214 1 49.5208 12.5591 0.594914 49.5208 12.5591 0.594914
215 2 51.4599 12.563 2.18168 51.4599 12.563 2.18168
216 2 51.3851 12.5549 -1.07921 51.3851 12.5549 -1.07921
217 1 1.06007 14.2062 0.525604 1.06007 14.2062 0.525604
218 2 3.01916 14.2322 2.0873 3.01916 14.2322 2.0873
219 2 2.90274 14.1796 -1.17205 2.90274 14.1796 -1.17205
220 1 3.91106 15.8525 0.397254 3.91106 15.8525 0.397254
221 2 5.88269 15.8977 1.94236 5.88269 15.8977 1.94236
222 2 5.7393 15.8064 -1.31521 5.7393 15.8064 -1.31521
223 1 6.76168 14.2053 0.318105 6.76168 14.2053 0.318105
224 2 8.73687 14.235 1.85888 8.73687 14.235 1.85888
225 2 8.5854 14.1749 -1.39918 8.5854 14.1749 -1.39918
226 1 9.61036 15.8509 0.15541 9.61036 15.8509 0.15541
227 2 11.5812 15.8961 1.70111 11.5812 15.8961 1.70111
228 2 11.4382 15.8051 -1.55676 11.4382 15.8051 -1.55676
229 1 12.4601 14.2043 0.0768228 12.4601 14.2043 0.0768228
230 2 14.4205 14.2312 1.63622 14.4205 14.2312 1.63622
231 2 14.299 14.1774 -1.62349 14.299 14.1774 -1.62349
232 1 15.3092 15.8499 -0.0561062 15.3092 15.8499 -0.0561062
233 2 17.2485 15.8894 1.52909 17.2485 15.8894 1.52909
234 2 17.1702 15.8105 -1.73153 17.1702 15.8105 -1.73153
235 1 18.1599 14.2043 -0.0836649 18.1599 14.2043 -0.0836649
236 2 20.0779 14.2233 1.52765 20.0779 14.2233 1.52765
237 2 20.0428 14.1857 -1.73453 20.0428 14.1857 -1.73453
238 1 21.0104 15.8503 -0.132484 21.0104 15.8503 -0.132484
239 2 22.8995 15.8813 1.51254 22.8995 15.8813 1.51254
240 2 22.9223 15.82 -1.74937 22.9223 15.82 -1.74937
241 1 23.8613 14.2052 -0.0802427 23.8613 14.2052 -0.0802427
242 2 25.729 14.2149 1.5894 25.729 14.2149 1.5894
243 2 25.794 14.1961 -1.67244 25.794 14.1961 -1.67244
244 1 26.7114 15.8517 -0.0318116 26.7114 15.8517 -0.0318116
245 2 28.5571 15.8747 1.66206 28.5571 15.8747 1.66206
246 2 28.6651 15.8292 -1.59825 28.6651 15.8292 -1.59825
247 1 29.561 14.2062 0.0868925 29.561 14.2062 0.0868925
248 2 31.3975 14.2089 1.79096 31.3975 14.2089 1.79096
249 2 31.5235 14.2038 -1.46889 31.5235 14.2038 -1.46889
250 1 32.4098 15.853 0.195524 32.4098 15.853 0.195524
251 2 34.243 15.8724 1.90313 34.243 15.8724 1.90313
252 2 34.3759 15.8337 -1.35606 34.3759 15.8337 -1.35606
253 1 35.2593 14.2067 0.3322 35.2593 14.2067 0.3322
254 2 37.1002 14.2083 2.03182 37.1002 14.2083 2.03182
255 2 37.2191 14.205 -1.22799 37.2191 14.205 -1.22799
256 1 38.1095 15.8538 0.435304 38.1095 15.8538 0.435304
257 2 39.966 15.876 2.11773 39.966 15.876 2.11773
258 2 40.0552 15.8314 -1.1426 40.0552 15.8314 -1.1426
259 1 40.9612 14.2068 0.5363 40.9612 14.2068 0.5363
260 2 42.8364 14.2141 2.1981 42.8364 14.2141 2.1981
261 2 42.8897 14.1992 -1.06318 42.8897 14.1992 -1.06318
262 1 43.8139 15.8541 0.575827 43.8139 15.8541 0.575827
263 2 45.7143 15.8841 2.20868 45.7143 15.8841 2.20868
264 2 45.7182 15.8235 -1.05248 45.7182 15.8235 -1.05248
265 1 46.6674 14.2066 0.609973 46.6674 14.2066 0.609973
266 2 48.5882 14.2237 2.21888 48.5882 14.2237 2.21888
267 2 48.551 14.1892 -1.04243 48.551 14.1892 -1.04243
268 1 49.5207 15.8537 0.560184 49.5207 15.8537 0.560184
269 2 51.4648 15.8928 2.14022 51.4648 15.8928 2.14022
270 2 51.3796 15.8137 -1.1195 51.3796 15.8137 -1.1195
271 1 1.05944 17.4997 0.445676 1.05944 17.4997 0.445676
272 2 3.02154 17.5576 2.00254 3.02154 17.5576 2.00254
273 2 2.89856 17.4406 -1.25496 2.89856 17.4406 -1.25496
274 1 3.90975 19.1443 0.278804 3.90975 19.1443 0.278804
275 2 5.88202 19.2166 1.82187 5.88202 19.2166 1.82187
276 2 5.73701 19.0708 -1.4337 5.73701 19.0708 -1.4337
277 1 6.76036 17.4976 0.225719 6.76036 17.4976 0.225719
278 2 8.73532 17.558 1.76579 8.73532 17.558 1.76579
279 2 8.5842 17.4363 -1.49058 8.5842 17.4363 -1.49058
280 1 9.60872 19.1417 0.0319869 9.60872 19.1417 0.0319869
281 2 11.5771 19.2131 1.57989 11.5771 19.2131 1.57989
282 2 11.4394 19.0696 -1.6763 11.4394 19.0696 -1.6763
283 1 12.4588 17.4958 -0.0154487 12.4588 17.4958 -0.0154487
284 2 14.4155 17.553 1.54777 14.4155 17.553 1.54777
285 2 14.3018 17.4382 -1.71061 14.3018 17.4382 -1.71061
286 1 15.3081 19.1402 -0.172543 15.3081 19.1402 -0.172543
287 2 17.2424 19.2065 1.41804 17.2424 19.2065 1.41804
288 2 17.1748 19.0741 -1.841 17.1748 19.0741 -1.841
289 1 18.1593 17.4952 -0.163778 18.1593 17.4952 -0.163778
290 2 20.0715 17.5455 1.45374 20.0715 17.5455 1.45374
291 2 20.0482 17.4455 -1.80717 20.0482 17.4455 -1.80717
292 1 21.0102 19.1406 -0.233842 21.0102 19.1406 -0.233842
293 2 22.8935 19.2002 1.41716 22.8935 19.2002 1.41716
294 2 22.9282 19.0819 -1.84298 22.9282 19.0819 -1.84298
295 1 23.8612 17.4964 -0.142503 23.8612 17.4964 -0.142503
296 2 25.7231 17.5389 1.53307 25.7231 17.5389 1.53307
297 2 25.7995 17.4547 -1.72743 25.7995 17.4547 -1.72743
298 1 26.7115 19.1427 -0.117208 26.7115 19.1427 -0.117208
299 2 28.5528 19.197 1.58089 28.5528 19.197 1.58089
300 2 28.6696 19.0892 -1.67759 28.6696 19.0892 -1.67759
301 1 29.5608 17.4984 0.0406792 29.5608 17.4984 0.0406792
302 2 31.3939 17.5359 1.74808 31.3939 17.5359 1.74808
303 2 31.5266 17.4614 -1.51064 31.5266 17.4614 -1.51064
304 1 32.41 19.1452 0.120031 32.41 19.1452 0.120031
305 2 34.2418 19.1981 1.82847 34.2418 19.1981 1.82847
306 2 34.3775 19.0925 -1.42911 34.3775 19.0925 -1.42911
307 1 35.2591 17.5001 0.293033 35.2591 17.5001 0.293033
308 2 37.1003 17.5378 1.99184 37.1003 17.5378 1.99184
309 2 37.2186 17.4623 -1.26712 37.2186 17.4623 -1.26712
310 1 38.1097 19.147 0.358945 38.1097 19.147 0.358945
311 2 39.968 19.2031 2.03858 39.968 19.2031 2.03858
312 2 40.0538 19.0904 -1.22025 40.0538 19.0904 -1.22025
313 1 40.9612 17.5009 0.491372 40.9612 17.5009 0.491372
314 2 42.84 17.5441 2.14849 42.84 17.5441 2.14849
315 2 42.8862 17.4573 -1.11182 42.8862 17.4573 -1.11182
316 1 43.8141 19.1474 0.488115 43.8141 19.1474 0.488115
317 2 45.7178 19.2097 2.11588 45.7178 19.2097 2.11588
318 2 45.7147 19.0842 -1.14352 45.7147 19.0842 -1.14352
319 1 46.6674 17.5008 0.548857 46.6674 17.5008 0.548857
320 2 48.5927 17.552 2.15142 48.5927 17.552 2.15142
321 2 48.5461 17.4488 -1.10839 48.5461 17.4488 -1.10839
322 1 49.5202 19.1465 0.455862 49.5202 19.1465 0.455862
323 2 51.4673 19.2151 2.03107 51.4673 19.2151 2.03107
324 2 51.3757 19.0766 -1.22659 51.3757 19.0766 -1.22659
325 1 1.05833 20.7907 0.30552 1.05833 20.7907 0.30552
326 2 3.02115 20.8718 1.86011 3.02115 20.8718 1.86011
327 2 2.89619 20.7082 -1.39539 2.89619 20.7082 -1.39539
328 1 3.90802 22.4337 0.113053 3.90802 22.4337 0.113053
329 2 5.87888 22.5218 1.6568 5.87888 22.5218 1.6568
330 2 5.73648 22.3444 -1.59737 5.73648 22.3444 -1.59737
331 1 6.75856 20.7878 0.0780383 6.75856 20.7878 0.0780383
332 2 8.73186 20.8694 1.61911 8.73186 20.8694 1.61911
333 2 8.58412 20.7051 -1.63557 8.58412 20.7051 -1.63557
334 1 9.60683 22.4306 -0.134473 9.60683 22.4306 -0.134473
335 2 11.5718 22.5168 1.41696 11.5718 22.5168 1.41696
336 2 11.4414 22.344 -1.83806 11.4414 22.344 -1.83806
337 1 12.4573 20.7853 -0.16093 12.4573 20.7853 -0.16093
338 2 14.4098 20.8638 1.40665 14.4098 20.8638 1.40665
339 2 14.3051 20.7067 -1.85019 14.3051 20.7067 -1.85019
340 1 15.307 22.4289 -0.331718 15.307 22.4289 -0.331718
341 2 17.2365 22.5113 1.26412 17.2365 22.5113 1.26412
342 2 17.1793 22.3471 -1.99354 17.1793 22.3471 -1.99354
343 1 18.1587 20.7847 -0.298034 18.1587 20.7847 -0.298034
344 2 20.0655 20.8578 1.32519 20.0655 20.8578 1.32519
345 2 20.0537 20.7123 -1.93394 20.0537 20.7123 -1.93394
346 1 21.0102 22.4295 -0.381258 21.0102 22.4295 -0.381258
347 2 22.8888 22.5082 1.27448 22.8888 22.5082 1.27448
348 2 22.9334 22.3521 -1.9838 22.9334 22.3521 -1.9838
349 1 23.8614 20.7862 -0.262393 23.8614 20.7862 -0.262393
350 2 25.7185 20.8547 1.41781 25.7185 20.8547 1.41781
351 2 25.8048 20.719 -1.8406 25.8048 20.719 -1.8406
352 1 26.7122 22.4321 -0.25465 26.7122 22.4321 -0.25465
353 2 28.5504 22.5093 1.44599 28.5504 22.5093 1.44599
354 2 28.6735 22.3562 -1.81036 28.6735 22.3562 -1.81036
355 1 29.5613 20.7891 -0.0685147 29.5613 20.7891 -0.0685147
356 2 31.3918 20.8557 1.64081 31.3918 20.8557 1.64081
357 2 31.5297 20.7233 -1.61581 31.5297 20.7233 -1.61581
358 1 32.4109 22.4354 -0.0140157 32.4109 22.4354 -0.0140157
359 2 34.2418 22.5138 1.69438 34.2418 22.5138 1.69438
360 2 34.3794 22.3575 -1.5611 34.3794 22.3575 -1.5611
361 1 35.2597 20.7918 0.186068 35.2597 20.7918 0.186068
362 2 37.101 20.86 1.88371 37.101 20.86 1.88371
363 2 37.219 20.7235 -1.37332 37.219 20.7235 -1.37332
364 1 38.1106 22.4378 0.220676 38.1106 22.4378 0.220676
365 2 39.9694 22.5191 1.89844 39.9694 22.5191 1.89844
366 2 40.0539 22.3559 -1.35838 40.0539 22.3559 -1.35838
367 1 40.9617 20.7932 0.377392 40.9617 20.7932 0.377392
368 2 42.8424 20.8657 2.03109 42.8424 20.8657 2.03109
369 2 42.8845 20.7198 -1.22727 42.8845 20.7198 -1.22727
370 1 43.8144 22.4382 0.340438 43.8144 22.4382 0.340438
371 2 45.719 22.523 1.96575 45.719 22.523 1.96575
372 2 45.7135 22.3522 -1.29174 45.7135 22.3522 -1.29174
373 1 46.6672 20.7928 0.421871 46.6672 20.7928 0.421871
374 2 48.5946 20.8703 2.02054 48.5946 20.8703 2.02054
375 2 48.5433 20.7139 -1.23721 48.5433 20.7139 -1.23721
376 1 49.5195 22.4367 0.297551 49.5195 22.4367 0.297551
377 2 51.4667 22.524 1.87122 51.4667 22.524 1.87122
378 2 51.3742 22.3477 -1.38472 51.3742 22.3477 -1.38472
379 1 1.05689 24.0794 0.126946 1.05689 24.0794 0.126946
380 2 3.01788 24.1706 1.68285 3.01788 24.1706 1.68285
381 2 2.89614 23.9868 -1.57181 2.89614 23.9868 -1.57181
382 1 3.90616 25.7217 -0.0732241 3.90616 25.7217 -0.0732241
383 2 5.87366 25.8108 1.4744 5.87366 25.8108 1.4744
384 2 5.73794 25.6316 -1.78002 5.73794 25.6316 -1.78002
385 1 6.75655 24.0761 -0.101703 6.75655 24.0761 -0.101703
386 2 8.72676 24.1657 1.44268 8.72676 24.1657 1.44268
387 2 8.58542 23.9858 -1.81145 8.58542 23.9858 -1.81145
388 1 9.60499 25.7187 -0.316819 9.60499 25.7187 -0.316819
389 2 11.566 25.8052 1.23945 11.566 25.8052 1.23945
390 2 11.444 25.6321 -2.01581 11.444 25.6321 -2.01581
391 1 12.4557 24.0735 -0.336101 12.4557 24.0735 -0.336101
392 2 14.404 24.1604 1.23634 14.404 24.1604 1.23634
393 2 14.3084 23.987 -2.01984 14.3084 23.987 -2.01984
394 1 15.3061 25.7171 -0.50739 15.3061 25.7171 -0.50739
395 2 17.2317 25.8019 1.09309 17.2317 25.8019 1.09309
396 2 17.1829 25.6333 -2.16432 17.1829 25.6333 -2.16432
397 1 18.1582 24.073 -0.464358 18.1582 24.073 -0.464358
398 2 20.0607 24.1572 1.16357 20.0607 24.1572 1.16357
399 2 20.0582 23.99 -2.09437 20.0582 23.99 -2.09437
400 1 21.0103 25.7179 -0.550659 21.0103 25.7179 -0.550659
401 2 22.8862 25.8029 1.10808 22.8862 25.8029 1.10808
402 2 22.9369 25.6344 -2.14933 22.9369 25.6344 -2.14933
403 1 23.8619 24.0748 -0.420404 23.8619 24.0748 -0.420404
404 2 25.716 24.1584 1.26265 25.716 24.1584 1.26265
405 2 25.8088 23.9928 -1.99407 25.8088 23.9928 -1.99407
406 1 26.7132 25.7206 -0.422235 26.7132 25.7206 -0.422235
407 2 28.5502 25.8081 1.27928 28.5502 25.8081 1.27928
408 2 28.6762 25.6344 -1.97583 28.6762 25.6344 -1.97583
409 1 29.5624 24.0781 -0.223483 29.5624 24.0781 -0.223483
410 2 31.3916 24.1633 1.48645 31.3916 24.1633 1.48645
411 2 31.5323 23.994 -1.76831 31.5323 23.994 -1.76831
412 1 32.4125 25.724 -0.185417 32.4125 25.724 -0.185417
413 2 34.2429 25.8149 1.52274 34.2429 25.8149 1.52274
414 2 34.3814 25.6337 -1.73144 34.3814 25.6337 -1.73144
415 1 35.2611 24.0813 0.0278473 35.2611 24.0813 0.0278473
416 2 37.102 24.1691 1.72472 37.102 24.1691 1.72472
417 2 37.2205 23.9935 -1.5305 37.2205 23.9935 -1.5305
418 1 38.112 25.7264 0.0427753 38.112 25.7264 0.0427753
419 2 39.9698 25.8193 1.72065 39.9698 25.8193 1.72065
420 2 40.0557 25.633 -1.53505 40.0557 25.633 -1.53505
421 1 40.9625 24.0828 0.212125 40.9625 24.0828 0.212125
422 2 42.8429 24.1729 1.86485 42.8429 24.1729 1.86485
423 2 42.8849 23.9917 -1.3919 42.8849 23.9917 -1.3919
424 1 43.8148 25.7267 0.156966 43.8148 25.7267 0.156966
425 2 45.7175 25.8196 1.78343 45.7175 25.8196 1.78343
426 2 45.7148 25.6324 -1.47336 45.7148 25.6324 -1.47336
427 1 46.667 24.082 0.248912 46.667 24.082 0.248912
428 2 48.5936 24.1733 1.84733 48.5936 24.1733 1.84733
429 2 48.5431 23.9891 -1.40915 48.5431 23.9891 -1.40915
430 1 49.5185 25.7248 0.110996 49.5185 25.7248 0.110996
431 2 51.4631 25.8163 1.68715 51.4631 25.8163 1.68715
432 2 51.3752 25.6318 -1.56863 51.3752 25.6318 -1.56863
433 1 1.05545 27.3672 -0.0599977 1.05545 27.3672 -0.0599977
434 2 3.01238 27.4527 1.50087 3.01238 27.4527 1.50087
435 2 2.89847 27.2806 -1.75484 2.89847 27.2806 -1.75484
436 1 3.90461 29.01 -0.247621 3.90461 29.01 -0.247621
437 2 5.86742 29.0842 1.30638 5.86742 29.0842 1.30638
438 2 5.74114 28.9353 -1.95 5.74114 28.9353 -1.95
439 1 6.75471 27.3642 -0.283355 6.75471 27.3642 -0.283355
440 2 8.72086 27.4463 1.2664 8.72086 27.4463 1.2664
441 2 8.58795 27.2818 -1.9889 8.58795 27.2818 -1.9889
442 1 9.60353 29.0077 -0.483527 9.60353 29.0077 -0.483527
443 2 11.561 29.0793 1.07797 11.561 29.0793 1.07797
444 2 11.4466 28.9363 -2.17898 11.4466 28.9363 -2.17898
445 1 12.4544 27.362 -0.511566 12.4544 27.362 -0.511566
446 2 14.3991 27.4424 1.06562 14.3991 27.4424 1.06562
447 2 14.3113 27.2823 -2.19134 14.3113 27.2823 -2.19134
448 1 15.3053 29.0066 -0.669663 15.3053 29.0066 -0.669663
449 2 17.2289 29.0792 0.933932 17.2289 29.0792 0.933932
450 2 17.1848 28.9349 -2.32456 17.1848 28.9349 -2.32456
451 1 18.1578 27.3617 -0.635163 18.1578 27.3617 -0.635163
452 2 20.0581 27.443 0.995808 20.0581 27.443 0.995808
453 2 20.0609 27.2817 -2.26225 20.0609 27.2817 -2.26225
454 1 21.0105 29.0071 -0.714016 21.0105 29.0071 -0.714016
455 2 22.8861 29.0843 0.945523 22.8861 29.0843 0.945523
456 2 22.938 28.9314 -2.31247 22.938 28.9314 -2.31247
457 1 23.8626 27.3634 -0.590979 23.8626 27.3634 -0.590979
458 2 25.7159 27.4483 1.09299 25.7159 27.4483 1.09299
459 2 25.8108 27.28 -2.16338 25.8108 27.28 -2.16338
460 1 26.7144 29.0093 -0.592629 26.7144 29.0093 -0.592629
461 2 28.5521 29.0925 1.1084 28.5521 29.0925 1.1084
462 2 28.6772 28.9275 -2.14709 28.6772 28.9275 -2.14709
463 1 29.564 27.3664 -0.399315 29.564 27.3664 -0.399315
464 2 31.3931 27.4559 1.31042 31.3931 27.4559 1.31042
465 2 31.5342 27.278 -1.94382 31.5342 27.278 -1.94382
466 1 32.4144 29.0122 -0.365623 32.4144 29.0122 -0.365623
467 2 34.2445 29.0998 1.34281 34.2445 29.0998 1.34281
468 2 34.3835 28.9253 -1.91173 34.3835 28.9253 -1.91173
469 1 35.2629 27.3694 -0.155621 35.2629 27.3694 -0.155621
470 2 37.1028 27.4617 1.54177 37.1028 27.4617 1.54177
471 2 37.2228 27.2772 -1.71299 37.2228 27.2772 -1.71299
472 1 38.1137 29.0143 -0.144143 38.1137 29.0143 -0.144143
473 2 39.9689 29.1021 1.53632 39.9689 29.1021 1.53632
474 2 40.0591 28.9261 -1.71996 40.0591 28.9261 -1.71996
475 1 40.9636 27.3707 0.0234747 40.9636 27.3707 0.0234747
476 2 42.8415 27.4626 1.67842 42.8415 27.4626 1.67842
477 2 42.8877 27.2779 -1.57826 42.8877 27.2779 -1.57826
478 1 43.8153 29.0144 -0.0302115 43.8153 29.0144 -0.0302115
479 2 45.7138 29.0988 1.60104 45.7138 29.0988 1.60104
480 2 45.7187 28.9289 -1.65688 45.7187 28.9289 -1.65688
481 1 46.6667 27.3697 0.0593162 46.6667 27.3697 0.0593162
482 2 48.5898 27.459 1.66151 48.5898 27.459 1.66151
483 2 48.5456 27.2792 -1.5955 48.5456 27.2792 -1.5955
484 1 49.5177 29.0126 -0.071221 49.5177 29.0126 -0.071221
485 2 51.4574 29.0918 1.51109 51.4574 29.0918 1.51109
486 2 51.3788 28.9323 -1.7464 51.3788 28.9323 -1.7464
487 1 1.0544 30.6559 -0.221687 1.0544 30.6559 -0.221687
488 2 3.00582 30.7199 1.34667 3.00582 30.7199 1.34667
489 2 2.9028 30.5914 -1.91151 2.9028 30.5914 -1.91151
490 1 3.90373 32.3002 -0.377938 3.90373 32.3002 -0.377938
491 2 5.86152 32.3455 1.1832 5.86152 32.3455 1.1832
492 2 5.74541 32.2548 -2.07575 5.74541 32.2548 -2.07575
493 1 6.75343 30.6538 -0.434415 6.75343 30.6538 -0.434415
494 2 8.7154 30.7133 1.12144 8.7154 30.7133 1.12144
495 2 8.59113 30.5943 -2.13618 8.59113 30.5943 -2.13618
496 1 9.60272 32.2988 -0.604209 9.60272 32.2988 -0.604209
497 2 11.5577 32.3423 0.961318 11.5577 32.3423 0.961318
498 2 11.4486 32.2558 -2.29775 11.4486 32.2558 -2.29775
499 1 12.4534 30.6524 -0.656463 12.4534 30.6524 -0.656463
500 2 14.3962 30.712 0.924134 14.3962 30.712 0.924134
501 2 14.3128 30.5934 -2.33462 14.3128 30.5934 -2.33462
502 1 15.3048 32.2982 -0.789744 15.3048 32.2982 -0.789744
503 2 17.2288 32.3457 0.814348 17.2288 32.3457 0.814348
504 2 17.1843 32.2516 -2.44586 17.1843 32.2516 -2.44586
505 1 18.1575 30.6521 -0.781273 18.1575 30.6521 -0.781273
506 2 20.058 30.7165 0.850296 20.058 30.7165 0.850296
507 2 20.061 30.5889 -2.40911 20.061 30.5889 -2.40911
508 1 21.0106 32.2986 -0.843183 21.0106 32.2986 -0.843183
509 2 22.8887 32.3542 0.814569 22.8887 32.3542 0.814569
510 2 22.9363 32.2439 -2.44508 22.9363 32.2439 -2.44508
511 1 23.8632 30.6533 -0.745695 23.8632 30.6533 -0.745695
512 2 25.7182 30.725 0.937238 25.7182 30.725 0.937238
513 2 25.8105 30.5828 -2.32031 25.8105 30.5828 -2.32031
514 1 26.7155 32.2999 -0.736634 26.7155 32.2999 -0.736634
515 2 28.5555 32.3639 0.962711 28.5555 32.3639 0.962711
516 2 28.6765 32.2368 -2.29455 28.6765 32.2368 -2.29455
517 1 29.5656 30.6555 -0.56642 29.5656 30.6555 -0.56642
518 2 31.3957 30.7337 1.1428 31.3957 30.7337 1.1428
519 2 31.5352 30.5783 -2.11261 31.5352 30.5783 -2.11261
520 1 32.4163 32.3018 -0.52302 32.4163 32.3018 -0.52302
521 2 34.2462 32.3702 1.18631 34.2462 32.3702 1.18631
522 2 34.3855 32.234 -2.07005 34.3855 32.234 -2.07005
523 1 35.2648 30.6578 -0.332416 35.2648 30.6578 -0.332416
524 2 37.1031 30.738 1.3671 37.1031 30.738 1.3671
525 2 37.226 30.5779 -1.88891 37.226 30.5779 -1.88891
526 1 38.1153 32.3032 -0.306408 38.1153 32.3032 -0.306408
527 2 39.967 32.37 1.37863 39.967 32.37 1.37863
528 2 40.0636 32.2365 -1.87958 40.0636 32.2365 -1.87958
529 1 40.9648 30.6588 -0.154928 40.9648 30.6588 -0.154928
530 2 42.8384 30.7358 1.50516 42.8384 30.7358 1.50516
531 2 42.8923 30.5812 -1.75312 42.8923 30.5812 -1.75312
532 1 43.8159 32.3033 -0.186902 43.8159 32.3033 -0.186902
533 2 45.7087 32.3634 1.45168 45.7087 32.3634 1.45168
534 2 45.7243 32.2425 -1.80853 45.7243 32.2425 -1.80853
535 1 46.6666 30.658 -0.112872 46.6666 30.658 -0.112872
536 2 48.5841 30.7287 1.49637 48.5841 30.7287 1.49637
537 2 48.5504 30.5864 -1.76277 48.5504 30.5864 -1.76277
538 1 49.5173 32.302 -0.215517 49.5173 32.302 -0.215517
539 2 51.4507 32.3539 1.37511 51.4507 32.3539 1.37511
540 2 51.3843 32.2495 -1.885 51.3843 32.2495 -1.885
541 1 1.05403 33.9468 -0.327661 1.05403 33.9468 -0.327661