ITEM: TIMESTEP
92000
ITEM: NUMBER OF ATOMS
810
ITEM: BOX BOUNDS pp pp pp
8.4159344983822548e-01 5.2176011550160553e+01
8.0885626618464290e-01 5.0207358733814445e+01
-1.0000000000000000e+01 1.0000000000000000e+01
ITEM: ATOMS id type x y z xu yu zu
1 1 1.04529 1.02333 -0.235513 1.04529 1.02333 -0.235513
2 2 2.93875 1.00689 1.4047 2.93875 1.00689 1.4047
3 2 2.95443 1.03982 -1.85728 2.95443 1.03982 -1.85728
4 1 3.89721 2.66992 -0.205028 3.89721 2.66992 -0.205028
5 2 5.78659 2.65334 1.43989 5.78659 2.65334 1.43989
6 2 5.81037 2.68652 -1.82204 5.81037 2.68652 -1.82204
7 1 6.74915 1.02334 -0.200929 6.74915 1.02334 -0.200929
8 2 8.63508 1.00738 1.44793 8.63508 1.00738 1.44793
9 2 8.66569 1.0393 -1.81396 8.66569 1.0393 -1.81396
10 1 9.60097 2.66988 -0.157914 9.60097 2.66988 -0.157914
11 2 11.4858 2.65378 1.49221 11.4858 2.65378 1.49221
12 2 11.5186 2.68595 -1.76966 11.5186 2.68595 -1.76966
13 1 12.4528 1.02325 -0.145441 12.4528 1.02325 -0.145441
14 2 14.3378 1.00779 1.50456 14.3378 1.00779 1.50456
15 2 14.3704 1.03866 -1.75732 14.3704 1.03866 -1.75732
16 1 15.3047 2.66975 -0.101214 15.3047 2.66975 -0.101214
17 2 17.1926 2.65446 1.54531 17.1926 2.65446 1.54531
18 2 17.2193 2.68499 -1.71662 17.2193 2.68499 -1.71662
19 1 18.1566 1.0231 -0.0933305 18.1566 1.0231 -0.0933305
20 2 20.0487 1.00782 1.54828 20.0487 1.00782 1.54828
21 2 20.067 1.0383 -1.71372 20.067 1.0383 -1.71372
22 1 21.0085 2.66961 -0.0619553 21.0085 2.66961 -0.0619553
23 2 22.9071 2.65504 1.57227 22.9071 2.65504 1.57227
24 2 22.9127 2.68412 -1.68977 22.9127 2.68412 -1.68977
25 1 23.8605 1.02297 -0.0718382 23.8605 1.02297 -0.0718382
26 2 25.7653 1.00758 1.55507 25.7653 1.00758 1.55507
27 2 25.7584 1.03831 -1.70696 25.7584 1.03831 -1.70696
28 1 26.7125 2.66953 -0.0623994 26.7125 2.66953 -0.0623994
29 2 28.6235 2.65529 1.55727 28.6235 2.65529 1.55727
30 2 28.6042 2.68375 -1.70473 28.6042 2.68375 -1.70473
31 1 29.5645 1.02294 -0.0937666 29.5645 1.02294 -0.0937666
32 2 31.4797 1.0073 1.52082 31.4797 1.0073 1.52082
33 2 31.4518 1.03857 -1.74109 31.4518 1.03857 -1.74109
34 1 32.4164 2.66955 -0.102457 32.4164 2.66955 -0.102457
35 2 34.3342 2.65518 1.50905 34.3342 2.65518 1.50905
36 2 34.301 2.68394 -1.75284 34.301 2.68394 -1.75284
37 1 35.2682 1.02301 -0.146138 35.2682 1.02301 -0.146138
38 2 37.1863 1.00713 1.46508 37.1863 1.00713 1.46508
39 2 37.1525 1.03891 -1.79678 37.1525 1.03891 -1.79678
40 1 38.1201 2.66964 -0.159601 38.1201 2.66964 -0.159601
41 2 40.0367 2.6548 1.45341 40.0367 2.6548 1.45341
42 2 40.0059 2.68453 -1.8085 40.0059 2.68453 -1.8085
43 1 40.9719 1.02312 -0.201559 40.9719 1.02312 -0.201559
44 2 42.8853 1.00694 1.41528 42.8853 1.00694 1.41528
45 2 42.861 1.03936 -1.84666 42.861 1.03936 -1.84666
46 1 43.8238 2.66976 -0.206359 43.8238 2.66976 -0.206359
47 2 45.7329 2.65409 1.41562 45.7329 2.65409 1.41562
48 2 45.7173 2.68549 -1.84638 45.7173 2.68549 -1.84638
49 1 46.6757 1.02325 -0.235787 46.6757 1.02325 -0.235787
50 2 48.5797 1.00673 1.39222 48.5797 1.00673 1.39222
51 2 48.5744 1.03982 -1.86979 48.5744 1.03982 -1.86979
52 1 49.5277 2.66986 -0.223564 49.5277 2.66986 -0.223564
53 2 51.4264 2.65344 1.4106 51.4264 2.65344 1.4106
54 2 51.4317 2.68635 -1.85142 51.4317 2.68635 -1.85142
55 1 1.04525 4.31647 -0.202201 1.04525 4.31647 -0.202201
56 2 2.93896 4.30047 1.43774 2.93896 4.30047 1.43774
57 2 2.95412 4.33252 -1.82425 2.95412 4.33252 -1.82425
58 1 3.89715 5.96306 -0.172583 3.89715 5.96306 -0.172583
59 2 5.78676 5.948 1.4721 5.78676 5.948 1.4721
60 2 5.81006 5.97816 -1.78987 5.81006 5.97816 -1.78987
61 1 6.74907 4.31648 -0.167322 6.74907 4.31648 -0.167322
62 2 8.63566 4.30037 1.48079 8.63566 4.30037 1.48079
63 2 8.66496 4.3326 -1.7811 8.66496 4.3326 -1.7811
64 1 9.60088 5.96303 -0.125252 9.60088 5.96303 -0.125252
65 2 11.4865 5.94826 1.52396 11.4865 5.94826 1.52396
66 2 11.5177 5.97779 -1.73795 11.5177 5.97779 -1.73795
67 1 12.4528 4.3164 -0.112836 12.4528 4.3164 -0.112836
68 2 14.3386 4.30115 1.53615 14.3386 4.30115 1.53615
69 2 14.3694 4.33161 -1.72574 14.3694 4.33161 -1.72574
70 1 15.3046 5.96293 -0.0703218 15.3046 5.96293 -0.0703218
71 2 17.1938 5.94976 1.57483 17.1938 5.94976 1.57483
72 2 17.218 5.97605 -1.68715 17.218 5.97605 -1.68715
73 1 18.1565 4.31626 -0.0623909 18.1565 4.31626 -0.0623909
74 2 20.0496 4.30244 1.57821 20.0496 4.30244 1.57821
75 2 20.0661 4.33003 -1.68381 20.0661 4.33003 -1.68381
76 1 21.0085 5.96282 -0.0339773 21.0085 5.96282 -0.0339773
77 2 22.9082 5.95171 1.59894 22.9082 5.95171 1.59894
78 2 22.9115 5.9739 -1.66315 22.9115 5.9739 -1.66315
79 1 23.8605 4.31616 -0.0423797 23.8605 4.31616 -0.0423797
80 2 25.766 4.30354 1.58379 25.766 4.30354 1.58379
81 2 25.7578 4.32875 -1.67828 25.7578 4.32875 -1.67828
82 1 26.7126 5.96277 -0.0368527 26.7126 5.96277 -0.0368527
83 2 28.6242 5.95297 1.58204 28.6242 5.95297 1.58204
84 2 28.6035 5.97257 -1.68002 28.6035 5.97257 -1.68002
85 1 29.5645 4.31614 -0.0649394 29.5645 4.31614 -0.0649394
86 2 31.4801 4.30392 1.54925 31.4801 4.30392 1.54925
87 2 31.4514 4.32836 -1.71271 31.4514 4.32836 -1.71271
88 1 32.4164 5.96279 -0.0777056 32.4164 5.96279 -0.0777056
89 2 34.3345 5.95308 1.53358 34.3345 5.95308 1.53358
90 2 34.3008 5.97251 -1.72837 34.3008 5.97251 -1.72837
91 1 35.2683 4.3162 -0.117029 35.2683 4.3162 -0.117029
92 2 37.1865 4.3036 1.49404 37.1865 4.3036 1.49404
93 2 37.1524 4.32882 -1.76787 37.1524 4.32882 -1.76787
94 1 38.1201 5.96285 -0.134077 38.1201 5.96285 -0.134077
95 2 40.0366 5.95223 1.47915 40.0366 5.95223 1.47915
96 2 40.0061 5.9735 -1.78283 40.0061 5.9735 -1.78283
97 1 40.9719 4.31629 -0.171468 40.9719 4.31629 -0.171468
98 2 42.8853 4.30268 1.44546 42.8853 4.30268 1.44546
99 2 42.8611 4.32994 -1.81653 42.8611 4.32994 -1.81653
100 1 43.8239 5.96293 -0.178784 43.8239 5.96293 -0.178784
101 2 45.7325 5.95068 1.44371 45.7325 5.95068 1.44371
102 2 45.7177 5.97524 -1.81836 45.7177 5.97524 -1.81836
103 1 46.6758 4.31639 -0.204019 46.6758 4.31639 -0.204019
104 2 48.5796 4.30142 1.42411 48.5796 4.30142 1.42411
105 2 48.5745 4.33143 -1.83794 48.5745 4.33143 -1.83794
106 1 49.5277 5.96302 -0.193199 49.5277 5.96302 -0.193199
107 2 51.4261 5.94899 1.44133 51.4261 5.94899 1.44133
108 2 51.4319 5.9771 -1.82074 51.4319 5.9771 -1.82074
109 1 1.04521 7.60964 -0.173766 1.04521 7.60964 -0.173766
110 2 2.93856 7.59695 1.46663 2.93856 7.59695 1.46663
111 2 2.95441 7.62237 -1.79542 2.95441 7.62237 -1.79542
112 1 3.89708 9.25626 -0.146865 3.89708 9.25626 -0.146865
113 2 5.7864 9.24544 1.49819 5.7864 9.24544 1.49819
114 2 5.81025 9.2671 -1.76385 5.81025 9.2671 -1.76385
115 1 6.74898 7.60965 -0.13678 6.74898 7.60965 -0.13678
116 2 8.63595 7.59624 1.51094 8.63595 7.59624 1.51094
117 2 8.66449 7.62306 -1.75101 8.66449 7.62306 -1.75101
118 1 9.60079 9.25624 -0.0980753 9.60079 9.25624 -0.0980753
119 2 11.4872 9.24543 1.55034 11.4872 9.24543 1.55034
120 2 11.5169 9.26703 -1.71164 11.5169 9.26703 -1.71164
121 1 12.4527 7.60958 -0.0828897 12.4527 7.60958 -0.0828897
122 2 14.3397 7.59727 1.56478 14.3397 7.59727 1.56478
123 2 14.3682 7.62187 -1.69718 14.3682 7.62187 -1.69718
124 1 15.3045 9.25617 -0.0453512 15.3045 9.25617 -0.0453512
125 2 17.1953 9.2475 1.59796 17.1953 9.2475 1.59796
126 2 17.2163 9.26482 -1.6641 17.2163 9.26482 -1.6641
127 1 18.1565 7.60949 -0.0357079 18.1565 7.60949 -0.0357079
128 2 20.0512 7.59964 1.60313 20.0512 7.59964 1.60313
129 2 20.0645 7.61932 -1.65896 20.0645 7.61932 -1.65896
130 1 21.0085 9.25611 -0.0139865 21.0085 9.25611 -0.0139865
131 2 22.9099 9.25046 1.61697 22.9099 9.25046 1.61697
132 2 22.9098 9.26176 -1.64518 22.9098 9.26176 -1.64518
133 1 23.8605 7.60944 -0.0198699 23.8605 7.60944 -0.0198699
134 2 25.7672 7.6019 1.60493 25.7672 7.6019 1.60493
135 2 25.7566 7.61696 -1.65719 25.7566 7.61696 -1.65719
136 1 26.7126 9.2561 -0.0215748 26.7126 9.2561 -0.0215748
137 2 28.6252 9.25253 1.59618 28.6252 9.25253 1.59618
138 2 28.6025 9.25967 -1.6659 28.6025 9.25967 -1.6659
139 1 29.5645 7.60943 -0.0450765 29.5645 7.60943 -0.0450765
140 2 31.4807 7.60288 1.56857 31.4807 7.60288 1.56857
141 2 31.451 7.61598 -1.69345 31.451 7.61598 -1.69345
142 1 32.4164 9.25611 -0.0644355 32.4164 9.25611 -0.0644355
143 2 34.3347 9.25288 1.54675 34.3347 9.25288 1.54675
144 2 34.3007 9.25933 -1.71525 34.3007 9.25933 -1.71525
145 1 35.2683 7.60946 -0.0973682 35.2683 7.60946 -0.0973682
146 2 37.1865 7.60242 1.51388 37.1865 7.60242 1.51388
147 2 37.1526 7.6165 -1.74811 37.1526 7.6165 -1.74811
148 1 38.1201 9.25612 -0.119844 38.1201 9.25612 -0.119844
149 2 40.0361 9.25172 1.49406 40.0361 9.25172 1.49406
150 2 40.0066 9.26054 -1.76799 40.0066 9.26054 -1.76799
151 1 40.972 7.60951 -0.149953 40.972 7.60951 -0.149953
152 2 42.8848 7.6009 1.46766 42.8848 7.6009 1.46766
153 2 42.8616 7.61815 -1.7944 42.8616 7.61815 -1.7944
154 1 43.8239 9.25617 -0.16136 43.8239 9.25617 -0.16136
155 2 45.7316 9.2496 1.46226 45.7316 9.2496 1.46226
156 2 45.7186 9.26278 -1.79989 45.7186 9.26278 -1.79989
157 1 46.6758 7.60958 -0.179183 46.6758 7.60958 -0.179183
158 2 48.5789 7.59882 1.44981 48.5789 7.59882 1.44981
159 2 48.5752 7.62039 -1.81232 48.5752 7.62039 -1.81232
160 1 49.5277 9.25622 -0.171393 49.5277 9.25622 -0.171393
161 2 51.4252 9.24719 1.4642 51.4252 9.24719 1.4642
162 2 51.4327 9.2653 -1.79794 51.4327 9.2653 -1.79794
163 1 1.04517 10.9029 -0.155467 1.04517 10.9029 -0.155467
164 2 2.93759 10.8959 1.48605 2.93759 10.8959 1.48605
165 2 2.95526 10.9099 -1.77607 2.95526 10.9099 -1.77607
166 1 3.89702 12.5495 -0.132707 3.89702 12.5495 -0.132707
167 2 5.78555 12.545 1.5133 5.78555 12.545 1.5133
168 2 5.81097 12.5541 -1.74878 5.81097 12.5541 -1.74878
169 1 6.7489 10.9029 -0.114854 6.7489 10.9029 -0.114854
170 2 8.63587 10.8946 1.53292 8.63587 10.8946 1.53292
171 2 8.66441 10.9111 -1.7291 8.66441 10.9111 -1.7291
172 1 9.60071 12.5495 -0.0813395 9.60071 12.5495 -0.0813395
173 2 11.4876 12.5446 1.56655 11.4876 12.5446 1.56655
174 2 11.5163 12.5544 -1.69549 11.5163 12.5544 -1.69549
175 1 12.4526 10.9028 -0.0609727 12.4526 10.9028 -0.0609727
176 2 14.3409 10.8957 1.5853 14.3409 10.8957 1.5853
177 2 14.3669 10.91 -1.67674 14.3669 10.91 -1.67674
178 1 15.3045 12.5495 -0.0307937 15.3045 12.5495 -0.0307937
179 2 17.197 12.5468 1.61053 17.197 12.5468 1.61053
180 2 17.2146 12.5521 -1.65159 17.2146 12.5521 -1.65159
181 1 18.1565 10.9028 -0.0180832 18.1565 10.9028 -0.0180832
182 2 20.0531 10.8987 1.61851 20.0531 10.8987 1.61851
183 2 20.0626 10.9069 -1.64364 20.0626 10.9069 -1.64364
184 1 21.0085 12.5495 -0.00554289 21.0085 12.5495 -0.00554289
185 2 22.9119 12.5502 1.62313 22.9119 12.5502 1.62313
186 2 22.9078 12.5487 -1.63903 22.9078 12.5487 -1.63903
187 1 23.8606 10.9028 -0.00836647 23.8606 10.9028 -0.00836647
188 2 25.7688 10.9017 1.61462 25.7688 10.9017 1.61462
189 2 25.755 10.9039 -1.64751 25.755 10.9039 -1.64751
190 1 26.7126 12.5495 -0.0192886 26.7126 12.5495 -0.0192886
191 2 28.6264 12.5528 1.59713 28.6264 12.5528 1.59713
192 2 28.6014 12.5462 -1.66494 28.6014 12.5462 -1.66494
193 1 29.5645 10.9028 -0.0378241 29.5645 10.9028 -0.0378241
194 2 31.4812 10.9031 1.57518 31.4812 10.9031 1.57518
195 2 31.4504 10.9024 -1.68685 31.4504 10.9024 -1.68685
196 1 32.4164 12.5494 -0.0651587 32.4164 12.5494 -0.0651587
197 2 34.3347 12.5534 1.54599 34.3347 12.5534 1.54599
198 2 34.3006 12.5455 -1.716 34.3006 12.5455 -1.716
199 1 35.2683 10.9028 -0.0908601 35.2683 10.9028 -0.0908601
200 2 37.1861 10.9027 1.52084 37.1861 10.9027 1.52084
201 2 37.1529 10.9028 -1.74118 37.1529 10.9028 -1.74118
202 1 38.1201 12.5494 -0.119756 38.1201 12.5494 -0.119756
203 2 40.0352 12.5523 1.49515 40.0352 12.5523 1.49515
204 2 40.0074 12.5466 -1.76693 40.0074 12.5466 -1.76693
205 1 40.972 10.9028 -0.141053 40.972 10.9028 -0.141053
206 2 42.8838 10.9009 1.47773 42.8838 10.9009 1.47773
207 2 42.8626 10.9047 -1.78439 42.8626 10.9047 -1.78439
208 1 43.8238 12.5494 -0.157556 43.8238 12.5494 -0.157556
209 2 45.7303 12.55 1.46762 45.7303 12.55 1.46762
210 2 45.7199 12.5489 -1.79457 45.7199 12.5489 -1.79457
211 1 46.6758 10.9028 -0.165887 46.6758 10.9028 -0.165887
212 2 48.5777 10.8984 1.46455 48.5777 10.8984 1.46455
213 2 48.5763 10.9073 -1.79764 48.5763 10.9073 -1.79764
214 1 49.5277 12.5495 -0.162366 49.5277 12.5495 -0.162366
215 2 51.4238 12.5472 1.47484 51.4238 12.5472 1.47484
216 2 51.434 12.5518 -1.78734 51.434 12.5518 -1.78734
217 1 1.04513 14.1961 -0.150917 1.04513 14.1961 -0.150917
218 2 2.93616 14.1962 1.49223 2.93616 14.1962 1.49223
219 2 2.9566 14.1961 -1.7699 2.9566 14.1961 -1.7699
220 1 3.89698 15.8428 -0.132885 3.89698 15.8428 -0.132885
221 2 5.78429 15.8454 1.51454 5.78429 15.8454 1.51454
222 2 5.81214 15.8402 -1.74753 5.81214 15.8402 -1.74753
223 1 6.74884 14.1962 -0.105654 6.74884 14.1962 -0.105654
224 2 8.63537 14.1946 1.54264 8.63537 14.1946 1.54264
225 2 8.66478 14.1977 -1.71941 8.66478 14.1977 -1.71941
226 1 9.60066 15.8428 -0.0781433 9.60066 15.8428 -0.0781433
227 2 11.4876 15.8448 1.56962 11.4876 15.8448 1.56962
228 2 11.5162 15.8409 -1.69243 11.5162 15.8409 -1.69243
229 1 12.4525 14.1962 -0.051067 12.4525 14.1962 -0.051067
230 2 14.3419 14.1954 1.59399 14.3419 14.1954 1.59399
231 2 14.3658 14.1969 -1.6681 14.3658 14.1969 -1.6681
232 1 15.3045 15.8428 -0.029251 15.3045 15.8428 -0.029251
233 2 17.1985 15.8466 1.61031 17.1985 15.8466 1.61031
234 2 17.2131 15.839 -1.65182 17.2131 15.839 -1.65182
235 1 18.1565 14.1962 -0.0126559 18.1565 14.1962 -0.0126559
236 2 20.0551 14.1984 1.62164 20.0551 14.1984 1.62164
237 2 20.0606 14.1939 -1.64052 20.0606 14.1939 -1.64052
238 1 21.0085 15.8428 -0.0100546 21.0085 15.8428 -0.0100546
239 2 22.9137 15.8498 1.61644 22.9137 15.8498 1.61644
240 2 22.906 15.8359 -1.64569 22.906 15.8359 -1.64569
241 1 23.8606 14.1962 -0.00984992 23.8606 14.1962 -0.00984992
242 2 25.7704 14.2016 1.61121 25.7704 14.2016 1.61121
243 2 25.7534 14.1907 -1.6509 25.7534 14.1907 -1.6509
244 1 26.7125 15.8428 -0.0302992 26.7125 15.8428 -0.0302992
245 2 28.6274 15.8523 1.58478 28.6274 15.8523 1.58478
246 2 28.6002 15.8333 -1.67723 28.6002 15.8333 -1.67723
247 1 29.5645 14.1961 -0.0444883 29.5645 14.1961 -0.0444883
248 2 31.4818 14.2034 1.56781 31.4818 14.2034 1.56781
249 2 31.4497 14.1889 -1.69418 31.4497 14.1889 -1.69418
250 1 32.4164 15.8428 -0.0798205 32.4164 15.8428 -0.0798205
251 2 34.3346 15.8533 1.53128 34.3346 15.8533 1.53128
252 2 34.3005 15.8322 -1.73066 34.3005 15.8322 -1.73066
253 1 35.2682 14.1961 -0.0989165 35.2682 14.1961 -0.0989165
254 2 37.1856 14.2032 1.51335 37.1856 14.2032 1.51335
255 2 37.1533 14.189 -1.74865 37.1533 14.189 -1.74865
256 1 38.12 15.8427 -0.134214 38.12 15.8427 -0.134214
257 2 40.0342 15.8525 1.48176 40.0342 15.8525 1.48176
258 2 40.0083 15.8329 -1.78027 40.0083 15.8329 -1.78027
259 1 40.9719 14.1961 -0.146823 40.9719 14.1961 -0.146823
260 2 42.8826 14.2015 1.4734 42.8826 14.2015 1.4734
261 2 42.8638 14.1906 -1.78873 42.8638 14.1906 -1.78873
262 1 43.8238 15.8427 -0.168599 43.8238 15.8427 -0.168599
263 2 45.7288 15.8505 1.45831 45.7288 15.8505 1.45831
264 2 45.7214 15.835 -1.80385 45.7214 15.835 -1.80385
265 1 46.6757 14.1961 -0.166975 46.6757 14.1961 -0.166975
266 2 48.5762 14.1989 1.46526 48.5762 14.1989 1.46526
267 2 48.5779 14.1933 -1.79694 48.5779 14.1933 -1.79694
268 1 49.5276 15.8427 -0.168169 49.5276 15.8427 -0.168169
269 2 51.4221 15.8478 1.47098 51.4221 15.8478 1.47098
270 2 51.4357 15.8377 -1.79117 51.4357 15.8377 -1.79117
271 1 1.04512 17.4894 -0.161204 1.04512 17.4894 -0.161204
272 2 2.93448 17.4966 1.48386 2.93448 17.4966 1.48386
273 2 2.95825 17.4822 -1.77822 2.95825 17.4822 -1.77822
274 1 3.89698 19.1361 -0.147462 3.89698 19.1361 -0.147462
275 2 5.78284 19.1453 1.5016 5.78284 19.1453 1.5016
276 2 5.81358 19.1268 -1.7604 5.81358 19.1268 -1.7604
277 1 6.74881 17.4895 -0.110955 6.74881 17.4895 -0.110955
278 2 8.63451 17.4949 1.53828 8.63451 17.4949 1.53828
279 2 8.66557 17.4841 -1.72374 8.66557 17.4841 -1.72374
280 1 9.60064 19.1361 -0.0890888 9.60064 19.1361 -0.0890888
281 2 11.4873 19.1445 1.55901 11.4873 19.1445 1.55901
282 2 11.5165 19.1278 -1.703 11.5165 19.1278 -1.703
283 1 12.4525 17.4895 -0.0549678 12.4525 17.4895 -0.0549678
284 2 14.3425 17.4953 1.58932 14.3425 17.4953 1.58932
285 2 14.3651 17.4837 -1.67276 14.3651 17.4837 -1.67276
286 1 15.3045 19.1362 -0.0409103 15.3045 19.1362 -0.0409103
287 2 17.1995 19.1456 1.59749 17.1995 19.1456 1.59749
288 2 17.2121 19.1267 -1.6646 17.2121 19.1267 -1.6646
289 1 18.1565 17.4895 -0.0202923 18.1565 17.4895 -0.0202923
290 2 20.0567 17.4977 1.61209 20.0567 17.4977 1.61209
291 2 20.059 17.4813 -1.65004 20.059 17.4813 -1.65004
292 1 21.0085 19.1362 -0.0265252 21.0085 19.1362 -0.0265252
293 2 22.9151 19.1479 1.59828 22.9151 19.1479 1.59828
294 2 22.9046 19.1243 -1.66379 22.9046 19.1243 -1.66379
295 1 23.8605 17.4895 -0.0238925 23.8605 17.4895 -0.0238925
296 2 25.7718 17.5004 1.59544 25.7718 17.5004 1.59544
297 2 25.7519 17.4785 -1.6666 25.7519 17.4785 -1.6666
298 1 26.7125 19.1361 -0.052467 26.7125 19.1361 -0.052467
299 2 28.6283 19.1501 1.56148 28.6283 19.1501 1.56148
300 2 28.5992 19.1221 -1.70045 28.5992 19.1221 -1.70045
301 1 29.5644 17.4894 -0.0637971 29.5644 17.4894 -0.0637971
302 2 31.4823 17.5022 1.54781 31.4823 17.5022 1.54781
303 2 31.4491 17.4766 -1.7141 31.4491 17.4766 -1.7141
304 1 32.4163 19.136 -0.10575 32.4163 19.136 -0.10575
305 2 34.3346 19.1511 1.50524 34.3346 19.1511 1.50524
306 2 34.3004 19.1208 -1.75662 34.3004 19.1208 -1.75662
307 1 35.2681 17.4893 -0.120264 35.2681 17.4893 -0.120264
308 2 37.185 17.5025 1.49252 37.185 17.5025 1.49252
309 2 37.1537 17.4762 -1.76942 37.1537 17.4762 -1.76942
310 1 38.12 19.1359 -0.16083 38.12 19.1359 -0.16083
311 2 40.0333 19.1509 1.45608 40.0333 19.1509 1.45608
312 2 40.0091 19.1209 -1.80588 40.0091 19.1209 -1.80588
313 1 40.9719 17.4893 -0.166684 40.9719 17.4893 -0.166684
314 2 42.8813 17.5013 1.45498 42.8813 17.5013 1.45498
315 2 42.865 17.4773 -1.80709 42.865 17.4773 -1.80709
316 1 43.8238 19.1359 -0.192877 43.8238 19.1359 -0.192877
317 2 45.7273 19.1496 1.43569 45.7273 19.1496 1.43569
318 2 45.7228 19.1223 -1.82639 45.7228 19.1223 -1.82639
319 1 46.6757 17.4893 -0.182729 46.6757 17.4893 -0.182729
320 2 48.5745 17.4991 1.45143 48.5745 17.4991 1.45143
321 2 48.5795 17.4796 -1.8107 48.5795 17.4796 -1.8107
322 1 49.5276 19.136 -0.18801 49.5276 19.136 -0.18801
323 2 51.4204 19.1474 1.45314 51.4204 19.1474 1.45314
324 2 51.4374 19.1245 -1.80893 51.4374 19.1245 -1.80893
325 1 1.04514 20.7826 -0.184485 1.04514 20.7826 -0.184485
326 2 2.93284 20.7955 1.46245 2.93284 20.7955 1.46245
327 2 2.95993 20.7697 -1.79953 2.95993 20.7697 -1.79953
328 1 3.89702 22.4293 -0.173683 3.89702 22.4293 -0.173683
329 2 5.78147 22.4435 1.47694 5.78147 22.4435 1.47694
330 2 5.81502 22.4151 -1.78495 5.81502 22.4151 -1.78495
331 1 6.74882 20.7827 -0.129779 6.74882 20.7827 -0.129779
332 2 8.63345 20.7941 1.52064 8.63345 20.7941 1.52064
333 2 8.66664 20.7714 -1.7413 8.66664 20.7714 -1.7413
334 1 9.60067 22.4294 -0.112115 9.60067 22.4294 -0.112115
335 2 11.4866 22.4426 1.53673 11.4866 22.4426 1.53673
336 2 11.5172 22.4162 -1.7252 11.5172 22.4162 -1.7252
337 1 12.4525 20.7828 -0.0719043 12.4525 20.7828 -0.0719043
338 2 14.3426 20.794 1.57223 14.3426 20.794 1.57223
339 2 14.3651 20.7716 -1.68979 14.3651 20.7716 -1.68979
340 1 15.3045 22.4294 -0.0635066 15.3045 22.4294 -0.0635066
341 2 17.1997 22.4428 1.57456 17.1997 22.4428 1.57456
342 2 17.2119 22.4161 -1.68749 17.2119 22.4161 -1.68749
343 1 18.1565 20.7828 -0.0394237 18.1565 20.7828 -0.0394237
344 2 20.0576 20.7953 1.59178 20.0576 20.7953 1.59178
345 2 20.058 20.7703 -1.6703 20.058 20.7703 -1.6703
346 1 21.0085 22.4294 -0.0517821 21.0085 22.4294 -0.0517821
347 2 22.9158 22.4438 1.57213 22.9158 22.4438 1.57213
348 2 22.9038 22.4149 -1.6899 22.9038 22.4149 -1.6899
349 1 23.8605 20.7827 -0.0477666 23.8605 20.7827 -0.0477666
350 2 25.7728 20.7971 1.57035 25.7728 20.7971 1.57035
351 2 25.7509 20.7683 -1.69163 25.7509 20.7683 -1.69163
352 1 26.7124 22.4293 -0.0816319 26.7124 22.4293 -0.0816319
353 2 28.6288 22.4451 1.5316 28.6288 22.4451 1.5316
354 2 28.5986 22.4134 -1.73029 28.5986 22.4134 -1.73029
355 1 29.5644 20.7826 -0.0921244 29.5644 20.7826 -0.0921244
356 2 31.4826 20.7986 1.51891 31.4826 20.7986 1.51891
357 2 31.4486 20.7666 -1.74294 31.4486 20.7666 -1.74294
358 1 32.4162 22.4291 -0.138107 32.4162 22.4291 -0.138107
359 2 34.3346 22.4461 1.47274 34.3346 22.4461 1.47274
360 2 34.3002 22.4122 -1.78908 34.3002 22.4122 -1.78908
361 1 35.268 20.7825 -0.151011 35.268 20.7825 -0.151011
362 2 37.1846 20.7992 1.4621 37.1846 20.7992 1.4621
363 2 37.154 20.7658 -1.79977 37.154 20.7658 -1.79977
364 1 38.1199 22.429 -0.194643 38.1199 22.429 -0.194643
365 2 40.0327 22.4465 1.42288 40.0327 22.4465 1.42288
366 2 40.0096 22.4116 -1.83904 40.0096 22.4116 -1.83904
367 1 40.9718 20.7825 -0.197166 40.9718 20.7825 -0.197166
368 2 42.8802 20.7988 1.42569 42.8802 20.7988 1.42569
369 2 42.866 20.7662 -1.83631 42.866 20.7662 -1.83631
370 1 43.8237 22.429 -0.225897 43.8237 22.429 -0.225897
371 2 45.7261 22.446 1.40398 45.7261 22.446 1.40398
372 2 45.724 22.4121 -1.85804 45.724 22.4121 -1.85804
373 1 46.6757 20.7825 -0.210439 46.6757 20.7825 -0.210439
374 2 48.5729 20.7974 1.42549 48.5729 20.7974 1.42549
375 2 48.5811 20.7677 -1.83656 48.5811 20.7677 -1.83656
376 1 49.5277 22.4291 -0.218175 49.5277 22.4291 -0.218175
377 2 51.4189 22.4448 1.42468 51.4189 22.4448 1.42468
378 2 51.439 22.4135 -1.8373 51.439 22.4135 -1.8373
379 1 1.04519 24.0757 -0.216292 1.04519 24.0757 -0.216292
380 2 2.93157 24.092 1.43211 2.93157 24.092 1.43211
381 2 2.9613 24.0596 -1.82978 2.9613 24.0596 -1.82978
382 1 3.89709 25.7224 -0.206546 3.89709 25.7224 -0.206546
383 2 5.78048 25.7389 1.44525 5.78048 25.7389 1.44525
384 2 5.81614 25.706 -1.81657 5.81614 25.706 -1.81657
385 1 6.74888 24.0759 -0.158556 6.74888 24.0759 -0.158556
386 2 8.6324 24.0911 1.49308 8.6324 24.0911 1.49308
387 2 8.66779 24.0607 -1.76877 8.66779 24.0607 -1.76877
388 1 9.60073 25.7225 -0.14288 9.60073 25.7225 -0.14288
389 2 11.4858 25.7382 1.50698 11.4858 25.7382 1.50698
390 2 11.5182 25.7069 -1.7549 11.5182 25.7069 -1.7549
391 1 12.4526 24.076 -0.0986709 12.4526 24.076 -0.0986709
392 2 14.3421 24.0905 1.54598 14.3421 24.0905 1.54598
393 2 14.3656 24.0615 -1.71599 14.3656 24.0615 -1.71599
394 1 15.3045 25.7226 -0.0928299 15.3045 25.7226 -0.0928299
395 2 17.1992 25.7374 1.54576 17.1992 25.7374 1.54576
396 2 17.2124 25.7078 -1.71626 17.2124 25.7078 -1.71626
397 1 18.1565 24.076 -0.0664281 18.1565 24.076 -0.0664281
398 2 20.0578 24.0905 1.56454 20.0578 24.0905 1.56454
399 2 20.0578 24.0614 -1.69751 20.0578 24.0614 -1.69751
400 1 21.0085 25.7226 -0.0812147 21.0085 25.7226 -0.0812147
401 2 22.9158 25.7371 1.54272 22.9158 25.7371 1.54272
402 2 22.9038 25.7079 -1.71931 22.9038 25.7079 -1.71931
403 1 23.8605 24.0759 -0.0770453 23.8605 24.0759 -0.0770453
404 2 25.7731 24.0912 1.54057 25.7731 24.0912 1.54057
405 2 25.7504 24.0606 -1.7214 25.7504 24.0606 -1.7214
406 1 26.7124 25.7224 -0.112531 26.7124 25.7224 -0.112531
407 2 28.6288 25.7373 1.50054 28.6288 25.7373 1.50054
408 2 28.5984 25.7075 -1.76137 28.5984 25.7075 -1.76137
409 1 29.5643 24.0758 -0.124234 29.5643 24.0758 -0.124234
410 2 31.4828 24.092 1.48649 31.4828 24.092 1.48649
411 2 31.4483 24.0595 -1.77535 31.4483 24.0595 -1.77535
412 1 32.4161 25.7223 -0.170933 32.4161 25.7223 -0.170933
413 2 34.3345 25.7379 1.43983 34.3345 25.7379 1.43983
414 2 34.3001 25.7066 -1.82203 34.3001 25.7066 -1.82203
415 1 35.2679 24.0757 -0.185367 35.2679 24.0757 -0.185367
416 2 37.1844 24.0927 1.42786 37.1844 24.0927 1.42786
417 2 37.154 24.0586 -1.834 37.154 24.0586 -1.834
418 1 38.1198 25.7222 -0.229199 38.1198 25.7222 -0.229199
419 2 40.0324 25.7386 1.38852 40.0324 25.7386 1.38852
420 2 40.0097 25.7057 -1.87342 40.0097 25.7057 -1.87342
421 1 40.9717 24.0756 -0.232435 40.9717 24.0756 -0.232435
422 2 42.8795 24.093 1.39114 42.8795 24.093 1.39114
423 2 42.8666 24.0582 -1.87084 42.8666 24.0582 -1.87084
424 1 43.8237 25.7222 -0.261234 43.8237 25.7222 -0.261234
425 2 45.7255 25.7391 1.36931 45.7255 25.7391 1.36931
426 2 45.7246 25.7052 -1.89269 45.7246 25.7052 -1.89269
427 1 46.6757 24.0756 -0.244771 46.6757 24.0756 -0.244771
428 2 48.5718 24.0927 1.39242 48.5718 24.0927 1.39242
429 2 48.5822 24.0586 -1.86957 48.5822 24.0586 -1.86957
430 1 49.5277 25.7222 -0.25282 49.5277 25.7222 -0.25282
431 2 51.418 25.7392 1.39108 51.418 25.7392 1.39108
432 2 51.44 25.7053 -1.87085 51.44 25.7053 -1.87085
433 1 1.04525 27.3689 -0.250587 1.04525 27.3689 -0.250587
434 2 2.93096 27.3854 1.39856 2.93096 27.3854 1.39856
435 2 2.96204 27.3524 -1.8633 2.96204 27.3524 -1.8633
436 1 3.89717 29.0155 -0.24001 3.89717 29.0155 -0.24001
437 2 5.78008 29.0314 1.41232 5.78008 29.0314 1.41232
438 2 5.8167 28.9998 -1.8495 5.8167 28.9998 -1.8495
439 1 6.74896 27.369 -0.191899 6.74896 27.369 -0.191899
440 2 8.63158 27.3853 1.46072 8.63158 27.3853 1.46072
441 2 8.66875 27.3528 -1.80109 8.66875 27.3528 -1.80109
442 1 9.60082 29.0157 -0.175789 9.60082 29.0157 -0.175789
443 2 11.4849 29.031 1.4751 11.4849 29.031 1.4751
444 2 11.5192 29.0004 -1.78676 11.5192 29.0004 -1.78676
445 1 12.4526 27.3692 -0.130331 12.4526 27.3692 -0.130331
446 2 14.3412 27.3844 1.51535 14.3412 27.3844 1.51535
447 2 14.3665 27.3539 -1.7466 14.3665 27.3539 -1.7466
448 1 15.3045 29.0158 -0.123719 15.3045 29.0158 -0.123719
449 2 17.1982 29.0296 1.51609 17.1982 29.0296 1.51609
450 2 17.2135 29.0019 -1.74594 17.2135 29.0019 -1.74594
451 1 18.1565 27.3692 -0.0964742 18.1565 27.3692 -0.0964742
452 2 20.0572 27.3833 1.53519 20.0572 27.3833 1.53519
453 2 20.0585 27.355 -1.72688 20.0585 27.355 -1.72688
454 1 21.0085 29.0157 -0.109822 21.0085 29.0157 -0.109822
455 2 22.915 29.028 1.51502 22.915 29.028 1.51502
456 2 22.9046 29.0033 -1.74706 22.9046 29.0033 -1.74706
457 1 23.8604 27.3691 -0.106594 23.8604 27.3691 -0.106594
458 2 25.7728 27.3826 1.51131 25.7728 27.3826 1.51131
459 2 25.7506 27.3555 -1.7507 25.7506 27.3555 -1.7507
460 1 26.7123 29.0156 -0.13994 26.7123 29.0156 -0.13994
461 2 28.6284 29.0271 1.47359 28.6284 29.0271 1.47359
462 2 28.5987 29.004 -1.78839 28.5987 29.004 -1.78839
463 1 29.5642 27.3689 -0.154444 29.5642 27.3689 -0.154444
464 2 31.4826 27.3825 1.45632 31.4826 27.3825 1.45632
465 2 31.4482 27.3553 -1.80557 31.4482 27.3553 -1.80557
466 1 32.416 29.0155 -0.198504 32.416 29.0155 -0.198504
467 2 34.3344 29.0271 1.4123 34.3344 29.0271 1.4123
468 2 34.3 29.0039 -1.84961 34.3 29.0039 -1.84961
469 1 35.2679 27.3688 -0.216998 35.2679 27.3688 -0.216998
470 2 37.1843 27.3831 1.39618 37.1843 27.3831 1.39618
471 2 37.1539 27.3545 -1.86573 37.1539 27.3545 -1.86573
472 1 38.1197 29.0154 -0.258159 38.1197 29.0154 -0.258159
473 2 40.0326 29.0279 1.35936 40.0326 29.0279 1.35936
474 2 40.0095 29.0029 -1.90264 40.0095 29.0029 -1.90264
475 1 40.9717 27.3687 -0.26573 40.9717 27.3687 -0.26573
476 2 42.8793 27.3841 1.35796 42.8793 27.3841 1.35796
477 2 42.8667 27.3535 -1.90405 42.8667 27.3535 -1.90405
478 1 43.8237 29.0154 -0.292216 43.8237 29.0154 -0.292216
479 2 45.7256 29.0293 1.33821 45.7256 29.0293 1.33821
480 2 45.7245 29.0015 -1.92384 45.7245 29.0015 -1.92384
481 1 46.6757 27.3688 -0.279098 46.6757 27.3688 -0.279098
482 2 48.5714 27.3849 1.35855 48.5714 27.3849 1.35855
483 2 48.5827 27.3527 -1.90345 48.5827 27.3527 -1.90345
484 1 49.5277 29.0154 -0.285475 49.5277 29.0154 -0.285475
485 2 51.4179 29.0306 1.35856 51.4179 29.0306 1.35856
486 2 51.4402 29.0003 -1.9034 51.4402 29.0003 -1.9034
487 1 1.0453 30.6621 -0.281243 1.0453 30.6621 -0.281243
488 2 2.93115 30.6761 1.36777 2.93115 30.6761 1.36777
489 2 2.962 30.6481 -1.89414 2.962 30.6481 -1.89414
490 1 3.89725 32.3087 -0.268355 3.89725 32.3087 -0.268355
491 2 5.78034 32.3213 1.38378 5.78034 32.3213 1.38378
492 2 5.81661 32.2962 -1.87809 5.81661 32.2962 -1.87809
493 1 6.74905 30.6622 -0.223899 6.74905 30.6622 -0.223899
494 2 8.63119 30.6768 1.42928 8.63119 30.6768 1.42928
495 2 8.66932 30.6477 -1.83255 8.66932 30.6477 -1.83255
496 1 9.60091 32.3089 -0.205258 9.60091 32.3089 -0.205258
497 2 11.4843 32.3214 1.44648 11.4843 32.3214 1.44648
498 2 11.52 32.2964 -1.81542 11.52 32.2964 -1.81542
499 1 12.4527 30.6623 -0.161392 12.4527 30.6623 -0.161392
500 2 14.3402 30.6758 1.48558 14.3402 30.6758 1.48558
501 2 14.3677 30.6488 -1.77638 14.3677 30.6488 -1.77638
502 1 15.3046 32.3089 -0.151108 15.3046 32.3089 -0.151108
503 2 17.1968 32.3196 1.49037 17.1968 32.3196 1.49037
504 2 17.2149 32.2982 -1.77171 17.2149 32.2982 -1.77171
505 1 18.1565 30.6623 -0.12458 18.1565 30.6623 -0.12458
506 2 20.0559 30.6738 1.50855 20.0559 30.6738 1.50855
507 2 20.0597 30.6508 -1.75356 20.0597 30.6508 -1.75356
508 1 21.0085 32.3089 -0.133104 21.0085 32.3089 -0.133104
509 2 22.9136 32.3171 1.49338 22.9136 32.3171 1.49338
510 2 22.906 32.3007 -1.76876 22.906 32.3007 -1.76876
511 1 23.8604 30.6623 -0.13163 23.8604 30.6623 -0.13163
512 2 25.7719 30.6719 1.48732 25.7719 30.6719 1.48732
513 2 25.7515 30.6525 -1.77476 25.7515 30.6525 -1.77476
514 1 26.7123 32.3088 -0.159582 26.7123 32.3088 -0.159582
515 2 28.6275 32.3152 1.45497 28.6275 32.3152 1.45497
516 2 28.5996 32.3024 -1.80708 28.5996 32.3024 -1.80708
517 1 29.5642 30.6621 -0.177803 29.5642 30.6621 -0.177803
518 2 31.4822 30.671 1.43341 31.4822 30.671 1.43341
519 2 31.4485 30.6533 -1.82856 31.4485 30.6533 -1.82856
520 1 32.416 32.3087 -0.216426 32.416 32.3087 -0.216426
521 2 34.3342 32.3145 1.39463 34.3342 32.3145 1.39463
522 2 34.3002 32.3029 -1.86736 34.3002 32.3029 -1.86736
523 1 35.2678 30.662 -0.240479 35.2678 30.662 -0.240479
524 2 37.1844 30.6712 1.37256 37.1844 30.6712 1.37256
525 2 37.1537 30.6529 -1.88943 37.1537 30.6529 -1.88943
526 1 38.1197 32.3087 -0.276702 38.1197 32.3087 -0.276702
527 2 40.033 32.3153 1.34032 40.033 32.3153 1.34032
528 2 40.009 32.3021 -1.92174 40.009 32.3021 -1.92174
529 1 40.9716 30.662 -0.291066 40.9716 30.662 -0.291066
530 2 42.8797 30.6725 1.33213 42.8797 30.6725 1.33213
531 2 42.8662 30.6515 -1.92995 42.8662 30.6515 -1.92995
532 1 43.8236 32.3086 -0.313511 43.8236 32.3086 -0.313511
533 2 45.7263 32.3172 1.31602 45.7263 32.3172 1.31602
534 2 45.7237 32.3001 -1.9461 45.7237 32.3001 -1.9461
535 1 46.6757 30.662 -0.307193 46.6757 30.662 -0.307193
536 2 48.5718 30.6744 1.32999 48.5718 30.6744 1.32999