ITEM: TIMESTEP
93000
ITEM: NUMBER OF ATOMS
810
ITEM: BOX BOUNDS pp pp pp
8.4323209506942265e-01 5.2174372904929399e+01
8.1024425482293116e-01 5.0205970745175946e+01
-1.0000000000000000e+01 1.0000000000000000e+01
ITEM: ATOMS id type x y z xu yu zu
1 1 1.04741 1.02502 -0.309768 1.04741 1.02502 -0.309768
2 2 2.93394 1.00493 1.33847 2.93394 1.00493 1.33847
3 2 2.9634 1.04522 -1.92332 2.9634 1.04522 -1.92332
4 1 3.89922 2.67153 -0.26342 3.89922 2.67153 -0.26342
5 2 5.77701 2.65026 1.39476 5.77701 2.65026 1.39476
6 2 5.82369 2.69284 -1.86681 5.82369 2.69284 -1.86681
7 1 6.75101 1.02503 -0.24395 6.75101 1.02503 -0.24395
8 2 8.6222 1.0054 1.42166 8.6222 1.0054 1.42166
9 2 8.68184 1.04463 -1.83975 8.68184 1.04463 -1.83975
10 1 9.60243 2.6714 -0.171772 9.60243 2.6714 -0.171772
11 2 11.4715 2.65073 1.49616 11.4715 2.65073 1.49616
12 2 11.5353 2.69196 -1.76514 11.5353 2.69196 -1.76514
13 1 12.454 1.02479 -0.136763 12.454 1.02479 -0.136763
14 2 14.324 1.00576 1.53006 14.324 1.00576 1.53006
15 2 14.3859 1.04368 -1.73132 14.3859 1.04368 -1.73132
16 1 15.3054 2.67107 -0.0633426 15.3054 2.67107 -0.0633426
17 2 17.1814 2.65196 1.59668 17.1814 2.65196 1.59668
18 2 17.2316 2.69002 -1.66489 17.2316 2.69002 -1.66489
19 1 18.1571 1.02443 -0.0387556 18.1571 1.02443 -0.0387556
20 2 20.041 1.00592 1.61223 20.041 1.00592 1.61223
21 2 20.0757 1.04277 -1.64956 20.0757 1.04277 -1.64956
22 1 21.009 2.67074 0.0100943 21.009 2.67074 0.0100943
23 2 22.904 2.65335 1.64828 22.904 2.65335 1.64828
24 2 22.9166 2.68798 -1.61369 22.9166 2.68798 -1.61369
25 1 23.861 1.02412 0.00341034 23.861 1.02412 0.00341034
26 2 25.7668 1.00576 1.62904 25.7668 1.00576 1.62904
27 2 25.7579 1.04233 -1.63292 25.7579 1.04233 -1.63292
28 1 26.713 2.67053 0.0139743 26.713 2.67053 0.0139743
29 2 28.6298 2.65416 1.62664 28.6298 2.65416 1.62664
30 2 28.5988 2.68681 -1.63522 28.5988 2.68681 -1.63522
31 1 29.5649 1.02399 -0.0298814 29.5649 1.02399 -0.0298814
32 2 31.4902 1.00519 1.57262 31.4902 1.00519 1.57262
33 2 31.4419 1.04272 -1.68898 31.4419 1.04272 -1.68898
34 1 32.4167 2.67052 -0.053263 32.4167 2.67052 -0.053263
35 2 34.3479 2.65389 1.54218 34.3479 2.65389 1.54218
36 2 34.2875 2.68713 -1.71928 34.2875 2.68713 -1.71928
37 1 35.2682 1.02409 -0.122962 35.2682 1.02409 -0.122962
38 2 37.2015 1.00448 1.46985 37.2015 1.00448 1.46985
39 2 37.1367 1.04376 -1.79145 37.1367 1.04376 -1.79145
40 1 38.1197 2.6707 -0.159806 38.1197 2.6707 -0.159806
41 2 40.0512 2.65278 1.4352 40.0512 2.65278 1.4352
42 2 39.99 2.68873 -1.82622 39.99 2.68873 -1.82622
43 1 40.9711 1.0244 -0.231549 40.9711 1.0244 -0.231549
44 2 42.8975 1.00415 1.36972 42.8975 1.00415 1.36972
45 2 42.8468 1.04482 -1.89182 42.8468 1.04482 -1.89182
46 1 43.8228 2.67104 -0.255236 43.8228 2.67104 -0.255236
47 2 45.741 2.65152 1.35588 45.741 2.65152 1.35588
48 2 45.7069 2.69074 -1.9059 45.7069 2.69074 -1.9059
49 1 46.6746 1.02477 -0.304779 46.6746 1.02477 -0.304779
50 2 48.5827 1.00439 1.31833 48.5827 1.00439 1.31833
51 2 48.569 1.04533 -1.94357 48.569 1.04533 -1.94357
52 1 49.5265 2.67137 -0.295879 49.5265 2.67137 -0.295879
53 2 51.4238 2.6506 1.33994 51.4238 2.6506 1.33994
54 2 51.4319 2.69231 -1.92198 51.4319 2.69231 -1.92198
55 1 1.0473 4.31793 -0.26754 1.0473 4.31793 -0.26754
56 2 2.93394 4.29663 1.38055 2.93394 4.29663 1.38055
57 2 2.9631 4.33934 -1.88124 2.9631 4.33934 -1.88124
58 1 3.89901 5.96442 -0.220184 3.89901 5.96442 -0.220184
59 2 5.77688 5.94318 1.43791 5.77688 5.94318 1.43791
60 2 5.82334 5.9857 -1.82368 5.82334 5.9857 -1.82368
61 1 6.75078 4.31794 -0.20082 6.75078 4.31794 -0.20082
62 2 8.62276 4.29628 1.46389 8.62276 4.29628 1.46389
63 2 8.68082 4.33958 -1.7975 8.68082 4.33958 -1.7975
64 1 9.60214 5.96429 -0.127885 9.60214 5.96429 -0.127885
65 2 11.4726 5.94384 1.53855 11.4726 5.94384 1.53855
66 2 11.5337 5.98466 -1.72281 11.5337 5.98466 -1.72281
67 1 12.4537 4.31769 -0.0949663 12.4537 4.31769 -0.0949663
68 2 14.3252 4.29773 1.57027 14.3252 4.29773 1.57027
69 2 14.3843 4.33753 -1.69113 14.3843 4.33753 -1.69113
70 1 15.3052 5.964 -0.0229518 15.3052 5.964 -0.0229518
71 2 17.1834 5.94688 1.63462 17.1834 5.94688 1.63462
72 2 17.2292 5.98101 -1.62705 17.2292 5.98101 -1.62705
73 1 18.157 4.31737 -0.000148629 18.157 4.31737 -0.000148629
74 2 20.0425 4.30034 1.64904 20.0425 4.30034 1.64904
75 2 20.074 4.33426 -1.6128 20.074 4.33426 -1.6128
76 1 21.0089 5.96376 0.044532 21.0089 5.96376 0.044532
77 2 22.9062 5.95088 1.6802 22.9062 5.95088 1.6802
78 2 22.9143 5.97656 -1.58185 22.9143 5.97656 -1.58185
79 1 23.861 4.31713 0.0385225 23.861 4.31713 0.0385225
80 2 25.7681 4.30286 1.66274 25.7681 4.30286 1.66274
81 2 25.7566 4.33131 -1.59928 25.7566 4.33131 -1.59928
82 1 26.713 5.96365 0.0428505 26.713 5.96365 0.0428505
83 2 28.6313 5.95391 1.65389 28.6313 5.95391 1.65389
84 2 28.5973 5.97334 -1.60803 28.5973 5.97334 -1.60803
85 1 29.565 4.31705 0.00319548 29.565 4.31705 0.00319548
86 2 31.4908 4.30399 1.60515 31.4908 4.30399 1.60515
87 2 31.4415 4.33006 -1.65654 31.4415 4.33006 -1.65654
88 1 32.4167 5.96365 -0.0268608 32.4167 5.96365 -0.0268608
89 2 34.3481 5.95447 1.56842 34.3481 5.95447 1.56842
90 2 34.2873 5.97279 -1.69314 34.2873 5.97279 -1.69314
91 1 35.2682 4.31712 -0.0893115 35.2682 4.31712 -0.0893115
92 2 37.2014 4.30317 1.50379 37.2014 4.30317 1.50379
93 2 37.137 4.33108 -1.75764 37.137 4.33108 -1.75764
94 1 38.1197 5.96374 -0.131582 38.1197 5.96374 -0.131582
95 2 40.0505 5.95237 1.46448 40.0505 5.95237 1.46448
96 2 39.9909 5.97518 -1.7971 39.9909 5.97518 -1.7971
97 1 40.9712 4.31734 -0.19517 40.9712 4.31734 -0.19517
98 2 42.8971 4.30097 1.4067 42.8971 4.30097 1.4067
99 2 42.8473 4.33384 -1.85496 42.8473 4.33384 -1.85496
100 1 43.8228 5.96397 -0.222019 43.8228 5.96397 -0.222019
101 2 45.7399 5.94872 1.39057 45.7399 5.94872 1.39057
102 2 45.7081 5.97938 -1.87135 45.7081 5.97938 -1.87135
103 1 46.6746 4.31766 -0.265085 46.6746 4.31766 -0.265085
104 2 48.5824 4.29847 1.3584 48.5824 4.29847 1.3584
105 2 48.5693 4.33705 -1.90355 48.5693 4.33705 -1.90355
106 1 49.5265 5.96426 -0.25686 49.5265 5.96426 -0.25686
107 2 51.4229 5.94514 1.37999 51.4229 5.94514 1.37999
108 2 51.4326 5.98356 -1.88198 51.4326 5.98356 -1.88198
109 1 1.04714 7.61083 -0.228688 1.04714 7.61083 -0.228688
110 2 2.93275 7.59207 1.42062 2.93275 7.59207 1.42062
111 2 2.96388 7.62969 -1.84122 2.96388 7.62969 -1.84122
112 1 3.89875 9.25734 -0.18212 3.89875 9.25734 -0.18212
113 2 5.77602 9.24002 1.4767 5.77602 9.24002 1.4767
114 2 5.82362 9.2747 -1.78498 5.82362 9.2747 -1.78498
115 1 6.75048 7.61084 -0.157741 6.75048 7.61084 -0.157741
116 2 8.6231 7.59104 1.50628 8.6231 7.59104 1.50628
117 2 8.67988 7.63062 -1.75518 8.67988 7.63062 -1.75518
118 1 9.6018 9.25725 -0.0877527 9.6018 9.25725 -0.0877527
119 2 11.4738 9.24079 1.57692 11.4738 9.24079 1.57692
120 2 11.5318 9.27364 -1.68458 11.5318 9.27364 -1.68458
121 1 12.4534 7.61063 -0.0535496 12.4534 7.61063 -0.0535496
122 2 14.3272 7.59346 1.6092 14.3272 7.59346 1.6092
123 2 14.3819 7.62771 -1.65233 14.3819 7.62771 -1.65233
124 1 15.3049 9.25704 0.0118551 15.3049 9.25704 0.0118551
125 2 17.1863 9.24517 1.6659 17.1863 9.24517 1.6659
126 2 17.226 9.26885 -1.59593 17.226 9.26885 -1.59593
127 1 18.1568 7.6104 0.0345287 18.1568 7.6104 0.0345287
128 2 20.0454 7.59819 1.6804 20.0454 7.59819 1.6804
129 2 20.071 7.62254 -1.58157 20.071 7.62254 -1.58157
130 1 21.0088 9.25692 0.0693179 21.0088 9.25692 0.0693179
131 2 22.9095 9.25116 1.70113 22.9095 9.25116 1.70113
132 2 22.9109 9.26267 -1.56099 22.9109 9.26267 -1.56099
133 1 23.8609 7.61029 0.0646343 23.8609 7.61029 0.0646343
134 2 25.7705 7.60304 1.686 25.7705 7.60304 1.686
135 2 25.7541 7.61749 -1.57608 25.7541 7.61749 -1.57608
136 1 26.713 9.25691 0.0575738 26.713 9.25691 0.0575738
137 2 28.6335 9.25594 1.66603 28.6335 9.25594 1.66603
138 2 28.5951 9.25784 -1.59589 28.5951 9.25784 -1.59589
139 1 29.565 7.61026 0.0229124 29.565 7.61026 0.0229124
140 2 31.4919 7.60567 1.62364 31.4919 7.60567 1.62364
141 2 31.4403 7.6148 -1.63811 31.4403 7.6148 -1.63811
142 1 32.4166 9.25689 -0.0175967 32.4166 9.25689 -0.0175967
143 2 34.3482 9.2572 1.57746 34.3482 9.2572 1.57746
144 2 34.287 9.25652 -1.68415 34.287 9.25652 -1.68415
145 1 35.2682 7.61027 -0.070789 35.2682 7.61027 -0.070789
146 2 37.2008 7.60481 1.52309 37.2008 7.60481 1.52309
147 2 37.1375 7.61571 -1.73847 37.1375 7.61571 -1.73847
148 1 38.1196 9.25689 -0.120612 38.1196 9.25689 -0.120612
149 2 40.0487 9.25444 1.47749 40.0487 9.25444 1.47749
150 2 39.9924 9.25934 -1.78422 39.9924 9.25934 -1.78422
151 1 40.9712 7.61037 -0.172147 40.9712 7.61037 -0.172147
152 2 42.8954 7.60101 1.43184 42.8954 7.60101 1.43184
153 2 42.849 7.61983 -1.83 42.849 7.61983 -1.83
154 1 43.8227 9.257 -0.203078 43.8227 9.257 -0.203078
155 2 45.7372 9.24899 1.41268 45.7372 9.24899 1.41268
156 2 45.7107 9.26513 -1.8494 45.7107 9.26513 -1.8494
157 1 46.6746 7.6106 -0.234124 46.6746 7.6106 -0.234124
158 2 48.5805 7.59602 1.39164 48.5805 7.59602 1.39164
159 2 48.5711 7.62535 -1.87043 48.5711 7.62535 -1.87043
160 1 49.5264 9.25722 -0.227266 49.5264 9.25722 -0.227266
161 2 51.4205 9.24328 1.41227 51.4205 9.24328 1.41227
162 2 51.4347 9.27129 -1.8498 51.4347 9.27129 -1.8498
163 1 1.04695 10.9038 -0.200412 1.04695 10.9038 -0.200412
164 2 2.9305 10.8912 1.45131 2.9305 10.8912 1.45131
165 2 2.96567 10.9165 -1.81062 2.96567 10.9165 -1.81062
166 1 3.89849 12.5504 -0.156481 3.89849 12.5504 -0.156481
167 2 5.77451 12.5403 1.50381 5.77451 12.5403 1.50381
168 2 5.82455 12.5605 -1.75795 5.82455 12.5605 -1.75795
169 1 6.75016 10.9038 -0.122613 6.75016 10.9038 -0.122613
170 2 8.62314 10.8896 1.54106 8.62314 10.8896 1.54106
171 2 8.6792 10.9181 -1.72053 8.6792 10.9181 -1.72053
172 1 9.60149 12.5503 -0.0588506 9.60149 12.5503 -0.0588506
173 2 11.475 12.5408 1.60417 11.475 12.5408 1.60417
174 2 11.53 12.5598 -1.65749 11.53 12.5598 -1.65749
175 1 12.4532 10.9037 -0.0201815 12.4532 10.9037 -0.0201815
176 2 14.3295 10.8925 1.63961 14.3295 10.8925 1.63961
177 2 14.379 10.9148 -1.6221 14.379 10.9148 -1.6221
178 1 15.3047 12.5502 0.0346493 15.3047 12.5502 0.0346493
179 2 17.1897 12.5457 1.68473 17.1897 12.5457 1.68473
180 2 17.2224 12.5547 -1.57724 17.2224 12.5547 -1.57724
181 1 18.1567 10.9036 0.0586658 18.1567 10.9036 0.0586658
182 2 20.049 10.8985 1.70024 20.049 10.8985 1.70024
183 2 20.0672 10.9086 -1.56185 20.0672 10.9086 -1.56185
184 1 21.0088 12.5502 0.0797255 21.0088 12.5502 0.0797255
185 2 22.9134 12.5526 1.70698 22.9134 12.5526 1.70698
186 2 22.907 12.5478 -1.55516 22.907 12.5478 -1.55516
187 1 23.8609 10.9036 0.0764146 23.8609 10.9036 0.0764146
188 2 25.7737 10.9049 1.69396 25.7737 10.9049 1.69396
189 2 25.7508 10.9022 -1.5681 25.7508 10.9022 -1.5681
190 1 26.7129 12.5502 0.0549686 26.7129 12.5502 0.0549686
191 2 28.636 12.5583 1.66033 28.636 12.5583 1.66033
192 2 28.5923 12.5421 -1.6015 28.5923 12.5421 -1.6015
193 1 29.5648 10.9035 0.0248919 29.5648 10.9035 0.0248919
194 2 31.4931 10.9086 1.62397 31.4931 10.9086 1.62397
195 2 31.4388 10.8985 -1.63773 31.4388 10.8985 -1.63773
196 1 32.4164 12.5501 -0.0277931 32.4164 12.5501 -0.0277931
197 2 34.3482 12.56 1.56705 34.3482 12.56 1.56705
198 2 34.2866 12.5402 -1.69449 34.2866 12.5402 -1.69449
199 1 35.268 10.9035 -0.0715208 35.268 10.9035 -0.0715208
200 2 37.1997 10.9078 1.52356 37.1997 10.9078 1.52356
201 2 37.1383 10.8991 -1.73805 37.1383 10.8991 -1.73805
202 1 38.1194 12.55 -0.129521 38.1194 12.55 -0.129521
203 2 40.0463 12.5572 1.47128 40.0463 12.5572 1.47128
204 2 39.9945 12.5429 -1.79049 39.9945 12.5429 -1.79049
205 1 40.971 10.9035 -0.167292 40.971 10.9035 -0.167292
206 2 42.8925 10.9031 1.44003 42.8925 10.9031 1.44003
207 2 42.8517 10.9039 -1.82193 42.8517 10.9039 -1.82193
208 1 43.8226 12.5501 -0.202466 43.8226 12.5501 -0.202466
209 2 45.7334 12.5511 1.41764 45.7334 12.5511 1.41764
210 2 45.7142 12.5492 -1.84453 45.7142 12.5492 -1.84453
211 1 46.6745 10.9036 -0.217912 46.6745 10.9036 -0.217912
212 2 48.5772 10.8966 1.41173 48.5772 10.8966 1.41173
213 2 48.5742 10.9108 -1.85047 48.5742 10.9108 -1.85047
214 1 49.5262 12.5502 -0.212976 49.5262 12.5502 -0.212976
215 2 51.417 12.5443 1.43048 51.417 12.5443 1.43048
216 2 51.4378 12.5563 -1.83166 51.4378 12.5563 -1.83166
217 1 1.04677 14.1969 -0.188416 1.04677 14.1969 -0.188416
218 2 2.92752 14.1929 1.46656 2.92752 14.1929 1.46656
219 2 2.96821 14.2009 -1.7954 2.96821 14.2009 -1.7954
220 1 3.89829 15.8435 -0.1484 3.89829 15.8435 -0.1484
221 2 5.7725 15.8425 1.51396 5.7725 15.8425 1.51396
222 2 5.8261 15.8444 -1.7478 5.8261 15.8444 -1.7478
223 1 6.74988 14.1969 -0.102151 6.74988 14.1969 -0.102151
224 2 8.62275 14.1908 1.56168 8.62275 14.1908 1.56168
225 2 8.67902 14.203 -1.7 8.67902 14.203 -1.7
226 1 9.60125 15.8435 -0.046477 9.60125 15.8435 -0.046477
227 2 11.4758 15.8425 1.61541 11.4758 15.8425 1.61541
228 2 11.5288 15.8444 -1.64633 11.5288 15.8444 -1.64633
229 1 12.4529 14.1969 -0.000930471 12.4529 14.1969 -0.000930471
230 2 14.3318 14.1935 1.65602 14.3318 14.1935 1.65602
231 2 14.3764 14.2002 -1.60583 14.3764 14.2002 -1.60583
232 1 15.3046 15.8435 0.0416336 15.3046 15.8435 0.0416336
233 2 17.1927 15.8467 1.68805 17.1927 15.8467 1.68805
234 2 17.2192 15.8402 -1.57399 17.2192 15.8402 -1.57399
235 1 18.1566 14.1968 0.0680113 18.1566 14.1968 0.0680113
236 2 20.0529 14.1996 1.70505 20.0529 14.1996 1.70505
237 2 20.0632 14.1941 -1.55708 20.0632 14.1941 -1.55708
238 1 21.0087 15.8435 0.0743256 21.0087 15.8435 0.0743256
239 2 22.9171 15.8532 1.69706 22.9171 15.8532 1.69706
240 2 22.9031 15.8337 -1.56501 22.9031 15.8337 -1.56501
241 1 23.8609 14.1969 0.0717289 23.8609 14.1969 0.0717289
242 2 25.7772 14.2063 1.6851 25.7772 14.2063 1.6851
243 2 25.7472 14.1873 -1.57686 25.7472 14.1873 -1.57686
244 1 26.7128 15.8434 0.0358147 26.7128 15.8434 0.0358147
245 2 28.6384 15.8588 1.63803 28.6384 15.8588 1.63803
246 2 28.5895 15.828 -1.62362 28.5895 15.828 -1.62362
247 1 29.5647 14.1968 0.00853761 29.5647 14.1968 0.00853761
248 2 31.4944 14.2104 1.60582 31.4944 14.2104 1.60582
249 2 31.4371 14.1831 -1.65573 31.4371 14.1831 -1.65573
250 1 32.4161 15.8433 -0.0554881 32.4161 15.8433 -0.0554881
251 2 34.348 15.8608 1.53915 34.348 15.8608 1.53915
252 2 34.2862 15.8257 -1.72226 34.2862 15.8257 -1.72226
253 1 35.2678 14.1966 -0.0917186 35.2678 14.1966 -0.0917186
254 2 37.1982 14.21 1.50475 37.1982 14.21 1.50475
255 2 37.1393 14.1832 -1.7568 37.1393 14.1832 -1.7568
256 1 38.1191 15.8431 -0.156753 38.1191 15.8431 -0.156753
257 2 40.0437 15.8585 1.44683 40.0437 15.8585 1.44683
258 2 39.9967 15.8277 -1.81489 39.9967 15.8277 -1.81489
259 1 40.9708 14.1966 -0.181948 40.9708 14.1966 -0.181948
260 2 42.889 14.2055 1.42932 42.889 14.2055 1.42932
261 2 42.8549 14.1877 -1.83268 42.8549 14.1877 -1.83268
262 1 43.8225 15.8431 -0.220606 43.8225 15.8431 -0.220606
263 2 45.7293 15.8531 1.40415 45.7293 15.8531 1.40415
264 2 45.7181 15.8333 -1.85799 45.7181 15.8333 -1.85799
265 1 46.6743 14.1967 -0.219976 46.6743 14.1967 -0.219976
266 2 48.573 14.1987 1.41442 48.573 14.1987 1.41442
267 2 48.5782 14.1948 -1.8478 48.5782 14.1948 -1.8478
268 1 49.5261 15.8433 -0.217139 49.5261 15.8433 -0.217139
269 2 51.4131 15.8467 1.43077 51.4131 15.8467 1.43077
270 2 51.4415 15.84 -1.83133 51.4415 15.84 -1.83133
271 1 1.04666 17.4899 -0.19532 1.04666 17.4899 -0.19532
272 2 2.92429 17.4954 1.46319 2.92429 17.4954 1.46319
273 2 2.97115 17.4845 -1.79867 2.97115 17.4845 -1.79867
274 1 3.89819 19.1366 -0.159519 3.89819 19.1366 -0.159519
275 2 5.77027 19.1449 1.50523 5.77027 19.1449 1.50523
276 2 5.82809 19.1283 -1.75641 5.82809 19.1283 -1.75641
277 1 6.74969 17.4901 -0.100233 6.74969 17.4901 -0.100233
278 2 8.62187 17.4931 1.56438 8.62187 17.4931 1.56438
279 2 8.67952 17.487 -1.69729 8.67952 17.487 -1.69729
280 1 9.60112 19.1367 -0.0526401 9.60112 19.1367 -0.0526401
281 2 11.4759 19.1442 1.60895 11.4759 19.1442 1.60895
282 2 11.5285 19.1292 -1.65276 11.5285 19.1292 -1.65276
283 1 12.4528 17.4901 0.00105642 12.4528 17.4901 0.00105642
284 2 14.3335 17.4948 1.65588 14.3335 17.4948 1.65588
285 2 14.3745 17.4854 -1.60601 14.3745 17.4854 -1.60601
286 1 15.3046 19.1368 0.0321745 15.3046 19.1368 0.0321745
287 2 17.1949 19.1469 1.67593 17.1949 19.1469 1.67593
288 2 17.2169 19.1266 -1.58609 17.2169 19.1266 -1.58609
289 1 18.1566 17.4901 0.0615417 18.1566 17.4901 0.0615417
290 2 20.0562 17.4997 1.69461 20.0562 17.4997 1.69461
291 2 20.0598 17.4804 -1.56748 20.0598 17.4804 -1.56748
292 1 21.0087 19.1367 0.0549241 21.0087 19.1367 0.0549241
293 2 22.9201 19.1516 1.67397 22.9201 19.1516 1.67397
294 2 22.9 19.1217 -1.58799 22.9 19.1217 -1.58799
295 1 23.8608 17.4901 0.0521489 23.8608 17.4901 0.0521489
296 2 25.7803 17.5056 1.66166 25.7803 17.5056 1.66166
297 2 25.7438 17.4745 -1.60015 25.7438 17.4745 -1.60015
298 1 26.7126 19.1365 0.00441567 26.7126 19.1365 0.00441567
299 2 28.6404 19.156 1.60392 28.6404 19.156 1.60392
300 2 28.5871 19.1169 -1.65758 28.5871 19.1169 -1.65758
301 1 29.5644 17.4899 -0.0226185 29.5644 17.4899 -0.0226185
302 2 31.4955 17.5094 1.57296 31.4955 17.5094 1.57296
303 2 31.4354 17.4703 -1.68843 31.4354 17.4703 -1.68843
304 1 32.4158 19.1363 -0.0949982 32.4158 19.1363 -0.0949982
305 2 34.3478 19.1579 1.49938 34.3478 19.1579 1.49938
306 2 34.2857 19.1145 -1.76192 34.2857 19.1145 -1.76192
307 1 35.2674 17.4897 -0.127354 35.2674 17.4897 -0.127354
308 2 37.1968 17.5094 1.47037 37.1968 17.5094 1.47037
309 2 37.1401 17.4698 -1.79109 37.1401 17.4698 -1.79109
310 1 38.1188 19.136 -0.196912 38.1188 19.136 -0.196912
311 2 40.0414 19.1567 1.40896 40.0414 19.1567 1.40896
312 2 39.9984 19.1154 -1.85269 39.9984 19.1154 -1.85269
313 1 40.9706 17.4896 -0.213334 40.9706 17.4896 -0.213334
314 2 42.8857 17.506 1.40164 42.8857 17.506 1.40164
315 2 42.8579 17.4732 -1.86029 42.8579 17.4732 -1.86029
316 1 43.8223 19.1361 -0.254028 43.8223 19.1361 -0.254028
317 2 45.7257 19.1531 1.37472 45.7257 19.1531 1.37472
318 2 45.7214 19.1192 -1.88731 45.7214 19.1192 -1.88731
319 1 46.6742 17.4897 -0.240182 46.6742 17.4897 -0.240182
320 2 48.5688 17.5006 1.3989 48.5688 17.5006 1.3989
321 2 48.5821 17.479 -1.86322 48.5821 17.479 -1.86322
322 1 49.5261 19.1363 -0.239167 49.5261 19.1363 -0.239167
323 2 51.4094 19.1484 1.41285 51.4094 19.1484 1.41285
324 2 51.445 19.1243 -1.84908 51.445 19.1243 -1.84908
325 1 1.04665 20.7829 -0.219881 1.04665 20.7829 -0.219881
326 2 2.92142 20.7968 1.44183 2.92142 20.7968 1.44183
327 2 2.97396 20.7692 -1.81983 2.97396 20.7692 -1.81983
328 1 3.89823 22.4296 -0.187617 3.89823 22.4296 -0.187617
329 2 5.76821 22.4455 1.47943 5.76821 22.4455 1.47943
330 2 5.83018 22.4138 -1.78202 5.83018 22.4138 -1.78202
331 1 6.74963 20.7832 -0.117043 6.74963 20.7832 -0.117043
332 2 8.62058 20.7947 1.54891 8.62058 20.7947 1.54891
333 2 8.68068 20.7717 -1.71264 8.68068 20.7717 -1.71264
334 1 9.60113 22.4298 -0.0759007 9.60113 22.4298 -0.0759007
335 2 11.4753 22.4443 1.58629 11.4753 22.4443 1.58629
336 2 11.5291 22.4153 -1.67531 11.5291 22.4153 -1.67531
337 1 12.4527 20.7833 -0.0141139 12.4527 20.7833 -0.0141139
338 2 14.3343 20.7951 1.63972 14.3343 20.7951 1.63972
339 2 14.3736 20.7715 -1.62212 14.3736 20.7715 -1.62212
340 1 15.3046 22.4299 0.00837767 15.3046 22.4299 0.00837767
341 2 17.1959 22.445 1.65094 17.1959 22.445 1.65094
342 2 17.2159 22.4147 -1.61102 17.2159 22.4147 -1.61102
343 1 18.1566 20.7833 0.0410975 18.1566 20.7833 0.0410975
344 2 20.0584 20.7978 1.6715 20.0584 20.7978 1.6715
345 2 20.0576 20.7687 -1.59054 20.0576 20.7687 -1.59054
346 1 21.0087 22.4298 0.0254883 21.0087 22.4298 0.0254883
347 2 22.9219 22.4471 1.64237 22.9219 22.4471 1.64237
348 2 22.8981 22.4123 -1.61953 22.8981 22.4123 -1.61953
349 1 23.8607 20.7832 0.021997 23.8607 20.7832 0.021997
350 2 25.7825 20.8016 1.62862 25.7825 20.8016 1.62862
351 2 25.7413 20.7646 -1.63308 25.7413 20.7646 -1.63308
352 1 26.7124 22.4295 -0.0330027 26.7124 22.4295 -0.0330027
353 2 28.6417 22.4495 1.5647 28.6417 22.4495 1.5647
354 2 28.5854 22.4093 -1.69674 28.5854 22.4093 -1.69674
355 1 29.5642 20.7829 -0.0621845 29.5642 20.7829 -0.0621845
356 2 31.4963 20.8044 1.532 31.4963 20.8044 1.532
357 2 31.434 20.7612 -1.72929 31.434 20.7612 -1.72929
358 1 32.4155 22.4292 -0.138684 32.4155 22.4292 -0.138684
359 2 34.3478 22.451 1.45538 34.3478 22.451 1.45538
360 2 34.2852 22.4072 -1.80591 34.2852 22.4072 -1.80591
361 1 35.2671 20.7826 -0.171389 35.2671 20.7826 -0.171389
362 2 37.1957 20.805 1.42715 37.1957 20.805 1.42715
363 2 37.1406 20.7602 -1.83426 37.1406 20.7602 -1.83426
364 1 38.1185 22.4289 -0.24232 38.1185 22.4289 -0.24232
365 2 40.04 22.4511 1.36489 40.04 22.4511 1.36489
366 2 39.9994 22.4068 -1.89674 39.9994 22.4068 -1.89674
367 1 40.9704 20.7824 -0.255327 40.9704 20.7824 -0.255327
368 2 42.8831 20.8034 1.36236 42.8831 20.8034 1.36236
369 2 42.8602 20.7617 -1.89949 42.8602 20.7617 -1.89949
370 1 43.8222 22.4289 -0.296348 43.8222 22.4289 -0.296348
371 2 45.7234 22.4499 1.33497 45.7234 22.4499 1.33497
372 2 45.7237 22.4082 -1.92696 45.7237 22.4082 -1.92696
373 1 46.6742 20.7826 -0.274689 46.6742 20.7826 -0.274689
374 2 48.5656 20.8003 1.36808 48.5656 20.8003 1.36808
375 2 48.5853 20.7651 -1.89387 48.5853 20.7651 -1.89387
376 1 49.5261 22.4292 -0.274854 49.5261 22.4292 -0.274854
377 2 51.4067 22.4478 1.38018 51.4067 22.4478 1.38018
378 2 51.4478 22.4108 -1.88155 51.4478 22.4108 -1.88155
379 1 1.04675 24.0758 -0.257344 1.04675 24.0758 -0.257344
380 2 2.91944 24.0955 1.40667 2.91944 24.0955 1.40667
381 2 2.97613 24.0564 -1.85479 2.97613 24.0564 -1.85479
382 1 3.89839 25.7225 -0.227264 3.89839 25.7225 -0.227264
383 2 5.76676 25.7431 1.44154 5.76676 25.7431 1.44154
384 2 5.83194 25.702 -1.81973 5.83194 25.702 -1.81973
385 1 6.74973 24.0762 -0.149241 6.74973 24.0762 -0.149241
386 2 8.61916 24.094 1.51834 8.61916 24.094 1.51834
387 2 8.68224 24.0585 -1.74304 8.68224 24.0585 -1.74304
388 1 9.60126 25.7228 -0.111913 9.60126 25.7228 -0.111913
389 2 11.4742 25.7418 1.55159 11.4742 25.7418 1.55159
390 2 11.5304 25.7038 -1.70989 11.5304 25.7038 -1.70989
391 1 12.4528 24.0764 -0.0435091 12.4528 24.0764 -0.0435091
392 2 14.334 24.0932 1.61062 14.334 24.0932 1.61062
393 2 14.374 24.0596 -1.65113 14.374 24.0596 -1.65113
394 1 15.3046 25.7229 -0.0256105 15.3046 25.7229 -0.0256105
395 2 17.1954 25.7405 1.61745 17.1954 25.7405 1.61745
396 2 17.2164 25.7052 -1.64448 17.2164 25.7052 -1.64448
397 1 18.1566 24.0764 0.0104584 18.1566 24.0764 0.0104584
398 2 20.0591 24.0933 1.63998 20.0591 24.0933 1.63998
399 2 20.0568 24.0593 -1.62201 20.0568 24.0593 -1.62201
400 1 21.0086 25.7228 -0.00894098 21.0086 25.7228 -0.00894098
401 2 22.922 25.7396 1.60774 22.922 25.7396 1.60774
402 2 22.8979 25.7057 -1.65418 22.8979 25.7057 -1.65418
403 1 23.8606 24.0761 -0.0131495 23.8606 24.0761 -0.0131495
404 2 25.7835 24.0943 1.59214 25.7835 24.0943 1.59214
405 2 25.7401 24.0578 -1.66955 25.7401 24.0578 -1.66955
406 1 26.7123 25.7224 -0.0698939 26.7123 25.7224 -0.0698939
407 2 28.642 25.7396 1.52728 28.642 25.7396 1.52728
408 2 28.5848 25.7051 -1.73422 28.5848 25.7051 -1.73422
409 1 29.5639 24.0758 -0.102809 29.5639 24.0758 -0.102809
410 2 31.4968 24.0956 1.49054 31.4968 24.0956 1.49054
411 2 31.4331 24.0559 -1.77078 31.4331 24.0559 -1.77078
412 1 32.4153 25.7221 -0.178817 32.4153 25.7221 -0.178817
413 2 34.3479 25.7403 1.41494 34.3479 25.7403 1.41494
414 2 34.2847 25.7038 -1.84642 34.2847 25.7038 -1.84642
415 1 35.2668 24.0755 -0.215694 35.2668 24.0755 -0.215694
416 2 37.1953 24.0965 1.38309 37.1953 24.0965 1.38309
417 2 37.1405 24.0544 -1.87836 37.1405 24.0544 -1.87836
418 1 38.1184 25.7218 -0.284891 38.1184 25.7218 -0.284891
419 2 40.0397 25.7416 1.32252 40.0397 25.7416 1.32252
420 2 39.9994 25.7022 -1.93916 39.9994 25.7022 -1.93916
421 1 40.9702 24.0753 -0.300137 40.9702 24.0753 -0.300137
422 2 42.8819 24.0969 1.31881 42.8819 24.0969 1.31881
423 2 42.8612 24.0539 -1.94302 42.8612 24.0539 -1.94302
424 1 43.8222 25.7218 -0.339858 43.8222 25.7218 -0.339858
425 2 45.7227 25.7429 1.29224 45.7227 25.7429 1.29224
426 2 45.7244 25.701 -1.96967 45.7244 25.701 -1.96967
427 1 46.6742 24.0755 -0.316981 46.6742 24.0755 -0.316981
428 2 48.5638 24.0966 1.32784 48.5638 24.0966 1.32784
429 2 48.5872 24.0546 -1.93399 48.5872 24.0546 -1.93399
430 1 49.5262 25.7221 -0.317447 49.5262 25.7221 -0.317447
431 2 51.4056 25.7435 1.33902 51.4056 25.7435 1.33902
432 2 51.4492 25.7008 -1.92259 51.4492 25.7008 -1.92259
433 1 1.04693 27.3687 -0.300613 1.04693 27.3687 -0.300613
434 2 2.91873 27.3904 1.36438 2.91873 27.3904 1.36438
435 2 2.97724 27.3472 -1.89699 2.97724 27.3472 -1.89699
436 1 3.89864 29.0154 -0.271096 3.89864 29.0154 -0.271096
437 2 5.76626 29.0369 1.39853 5.76626 29.0369 1.39853
438 2 5.83295 28.994 -1.86268 5.83295 28.994 -1.86268
439 1 6.74994 27.3691 -0.190823 6.74994 27.3691 -0.190823
440 2 8.61797 27.3901 1.47828 8.61797 27.3901 1.47828
441 2 8.68382 27.3483 -1.78297 8.68382 27.3483 -1.78297
442 1 9.6015 29.0157 -0.15432 9.6015 29.0157 -0.15432
443 2 11.4729 29.036 1.51086 11.4729 29.036 1.51086
444 2 11.5321 28.9955 -1.75054 11.5321 28.9955 -1.75054
445 1 12.4529 27.3694 -0.0820263 12.4529 27.3694 -0.0820263
446 2 14.3328 27.3884 1.57355 14.3328 27.3884 1.57355
447 2 14.3754 27.3503 -1.68813 14.3754 27.3503 -1.68813
448 1 15.3048 29.0159 -0.0642159 15.3048 29.0159 -0.0642159
449 2 17.1938 29.0332 1.58087 17.1938 29.0332 1.58087
450 2 17.2183 28.9984 -1.68105 17.2183 28.9984 -1.68105
451 1 18.1566 27.3694 -0.0253601 18.1566 27.3694 -0.0253601
452 2 20.0581 27.386 1.60526 20.0581 27.386 1.60526
453 2 20.0578 27.3525 -1.65676 20.0578 27.3525 -1.65676
454 1 21.0086 29.0157 -0.0429243 21.0086 29.0157 -0.0429243
455 2 22.9204 29.0296 1.57557 22.9204 29.0296 1.57557
456 2 22.8994 29.0017 -1.68645 22.8994 29.0017 -1.68645
457 1 23.8606 27.3691 -0.0475236 23.8606 27.3691 -0.0475236
458 2 25.783 27.384 1.55827 25.783 27.384 1.55827
459 2 25.7404 27.3539 -1.70351 25.7404 27.3539 -1.70351
460 1 26.7123 29.0154 -0.100391 26.7123 29.0154 -0.100391
461 2 28.6412 29.027 1.49767 28.6412 29.027 1.49767
462 2 28.5854 29.0036 -1.76397 28.5854 29.0036 -1.76397
463 1 29.5638 27.3687 -0.137668 29.5638 27.3687 -0.137668
464 2 31.4967 27.3835 1.4556 31.4967 27.3835 1.4556
465 2 31.4328 27.3538 -1.80583 31.4328 27.3538 -1.80583
466 1 32.4152 29.0151 -0.208854 32.4152 29.0151 -0.208854
467 2 34.348 29.0269 1.38472 34.348 29.0269 1.38472
468 2 34.2845 29.0033 -1.87676 34.2845 29.0033 -1.87676
469 1 35.2667 27.3684 -0.252709 35.2667 27.3684 -0.252709
470 2 37.1955 27.3846 1.34574 37.1955 27.3846 1.34574
471 2 37.1401 27.3523 -1.91581 37.1401 27.3523 -1.91581
472 1 38.1183 29.0149 -0.31753 38.1183 29.0149 -0.31753
473 2 40.0404 29.0289 1.289 40.0404 29.0289 1.289
474 2 39.9986 29.001 -1.97277 39.9986 29.001 -1.97277
475 1 40.9701 27.3683 -0.339968 40.9701 27.3683 -0.339968
476 2 42.8821 27.3867 1.27868 42.8821 27.3867 1.27868
477 2 42.8609 27.35 -1.9832 42.8609 27.35 -1.9832
478 1 43.8221 29.0149 -0.377009 43.8221 29.0149 -0.377009
479 2 45.7236 29.0323 1.25409 45.7236 29.0323 1.25409
480 2 45.7235 28.9976 -2.00788 45.7235 28.9976 -2.00788
481 1 46.6742 27.3684 -0.359365 46.6742 27.3684 -0.359365
482 2 48.5637 27.3891 1.28561 48.5637 27.3891 1.28561
483 2 48.5875 27.3479 -1.9762 48.5875 27.3479 -1.9762
484 1 49.5263 29.015 -0.359148 49.5263 29.015 -0.359148
485 2 51.406 29.0355 1.29699 51.406 29.0355 1.29699
486 2 51.4491 28.9948 -1.96464 51.4491 28.9948 -1.96464
487 1 1.04713 30.6617 -0.341804 1.04713 30.6617 -0.341804
488 2 2.91942 30.6816 1.32266 2.91942 30.6816 1.32266
489 2 2.97703 30.6419 -1.93875 2.97703 30.6419 -1.93875
490 1 3.89892 32.3083 -0.311334 3.89892 32.3083 -0.311334
491 2 5.76685 32.3272 1.35797 5.76685 32.3272 1.35797
492 2 5.83295 32.2896 -1.90331 5.83295 32.2896 -1.90331
493 1 6.75024 30.662 -0.234365 6.75024 30.662 -0.234365
494 2 8.61733 30.6826 1.43577 8.61733 30.6826 1.43577
495 2 8.68502 30.6416 -1.82545 8.68502 30.6416 -1.82545
496 1 9.60181 32.3086 -0.195874 9.60181 32.3086 -0.195874
497 2 11.4718 32.3269 1.47097 11.4718 32.3269 1.47097
498 2 11.5338 32.2905 -1.79043 11.5338 32.2905 -1.79043
499 1 12.4532 30.6623 -0.123198 12.4532 30.6623 -0.123198
500 2 14.331 30.6805 1.53465 14.331 30.6805 1.53465
501 2 14.3775 30.6441 -1.72701 14.3775 30.6441 -1.72701
502 1 15.3049 32.3088 -0.101143 15.3049 32.3088 -0.101143
503 2 17.1912 32.323 1.5471 17.1912 32.323 1.5471
504 2 17.2211 32.2944 -1.71484 17.2211 32.2944 -1.71484
505 1 18.1567 30.6623 -0.0606744 18.1567 30.6623 -0.0606744
506 2 20.0558 30.6761 1.57278 20.0558 30.6761 1.57278
507 2 20.0603 30.6483 -1.68931 20.0603 30.6483 -1.68931
508 1 21.0087 32.3086 -0.0711772 21.0087 32.3086 -0.0711772
509 2 22.9175 32.3174 1.5508 22.9175 32.3174 1.5508
510 2 22.9024 32.2998 -1.71134 22.9024 32.2998 -1.71134
511 1 23.8606 30.662 -0.0758321 23.8606 30.662 -0.0758321
512 2 25.7811 30.6716 1.53223 25.7811 30.6716 1.53223
513 2 25.7423 30.6523 -1.72969 25.7423 30.6523 -1.72969
514 1 26.7123 32.3084 -0.119927 26.7123 32.3084 -0.119927
515 2 28.6394 32.3128 1.4803 28.6394 32.3128 1.4803
516 2 28.5873 32.3039 -1.78148 28.5873 32.3039 -1.78148
517 1 29.5638 30.6617 -0.161362 29.5638 30.6617 -0.161362
518 2 31.4962 30.6693 1.43263 31.4962 30.6693 1.43263
519 2 31.4334 30.6541 -1.82893 31.4334 30.6541 -1.82893
520 1 32.4153 32.3082 -0.22423 32.4153 32.3082 -0.22423
521 2 34.348 32.3117 1.36935 34.348 32.3117 1.36935
522 2 34.2845 32.3047 -1.8922 34.2845 32.3047 -1.8922
523 1 35.2667 30.6616 -0.276514 35.2667 30.6616 -0.276514
524 2 37.1961 30.6703 1.32113 37.1961 30.6703 1.32113
525 2 37.1394 30.6529 -1.9405 37.1394 30.6529 -1.9405
526 1 38.1183 32.3081 -0.33506 38.1183 32.3081 -0.33506
527 2 40.0419 32.3142 1.26972 40.0419 32.3142 1.26972
528 2 39.9971 32.3021 -1.9921 39.9971 32.3021 -1.9921
529 1 40.9701 30.6615 -0.368213 40.9701 30.6615 -0.368213
530 2 42.8835 30.6737 1.24874 42.8835 30.6737 1.24874
531 2 42.8594 30.6493 -2.01322 42.8594 30.6493 -2.01322
532 1 43.8222 32.3081 -0.401583 43.8222 32.3081 -0.401583
533 2 45.7258 32.3189 1.227 45.7258 32.3189 1.227
534 2 45.7214 32.2973 -2.03506 45.7214 32.2973 -2.03506
535 1 46.6743 30.6615 -0.394409 46.6743 30.6615 -0.394409
536 2 48.5652 30.6781 1.24893 48.5652 30.6781 1.24893
537 2 48.5862 30.645 -2.01298 48.5862 30.645 -2.01298