ITEM: TIMESTEP
59000
ITEM: NUMBER OF ATOMS
810
ITEM: BOX BOUNDS pp pp pp
8.5523943621758047e-01 5.2162365563780725e+01
8.2372705062389917e-01 5.0192487949375533e+01
-1.0000000000000000e+01 1.0000000000000000e+01
ITEM: ATOMS id type x y z xu yu zu
1 1 1.06136 1.04129 -0.449722 1.06136 1.04129 -0.449722
2 2 2.91492 0.959556 1.23374 2.91492 0.959556 1.23374
3 2 3.00858 1.12321 -2.02298 3.00858 1.12321 -2.02298
4 1 3.91114 2.68535 -0.284306 3.91114 2.68535 -0.284306
5 2 5.75059 2.60528 1.41451 5.75059 2.60528 1.41451
6 2 5.87116 2.76554 -1.84153 5.87116 2.76554 -1.84153
7 1 6.76158 1.0402 -0.259465 6.76158 1.0402 -0.259465
8 2 8.5907 0.96149 1.45049 8.5907 0.96149 1.45049
9 2 8.73122 1.11864 -1.80487 8.73122 1.11864 -1.80487
10 1 9.60979 2.68377 -0.0564952 9.60979 2.68377 -0.0564952
11 2 11.441 2.60725 1.65127 11.441 2.60725 1.65127
12 2 11.5775 2.75994 -1.60447 11.5775 2.75994 -1.60447
13 1 12.4598 1.03803 -0.0141036 12.4598 1.03803 -0.0141036
14 2 14.2967 0.962939 1.68737 14.2967 0.962939 1.68737
15 2 14.4223 1.11239 -1.56897 14.4223 1.11239 -1.56897
16 1 15.3089 2.68151 0.171588 15.3089 2.68151 0.171588
17 2 17.164 2.6091 1.85345 17.164 2.6091 1.85345
18 2 17.255 2.75322 -1.40421 17.255 2.75322 -1.40421
19 1 18.1602 1.03558 0.178175 18.1602 1.03558 0.178175
20 2 20.0352 0.962237 1.83751 20.0352 0.962237 1.83751
21 2 20.0872 1.10805 -1.42098 20.0872 1.10805 -1.42098
22 1 21.0118 2.67951 0.297242 21.0118 2.67951 0.297242
23 2 22.9135 2.60931 1.92613 22.9135 2.60931 1.92613
24 2 22.9129 2.74908 -1.33294 22.9129 2.74908 -1.33294
25 1 23.8639 1.03397 0.225651 23.8639 1.03397 0.225651
26 2 25.7899 0.959829 1.82531 25.7899 0.959829 1.82531
27 2 25.74 1.10759 -1.4331 25.74 1.10759 -1.4331
28 1 26.7159 2.67877 0.256289 26.7159 2.67877 0.256289
29 2 28.6649 2.60814 1.82826 28.6649 2.60814 1.82826
30 2 28.5681 2.74927 -1.42934 28.5681 2.74927 -1.42934
31 1 29.5663 1.03413 0.0997758 29.5663 1.03413 0.0997758
32 2 31.5309 0.957999 1.65161 31.5309 0.957999 1.65161
33 2 31.4011 1.11043 -1.6044 31.4011 1.11043 -1.6044
34 1 32.4166 2.67978 0.0628661 32.4166 2.67978 0.0628661
35 2 34.3898 2.60704 1.60409 34.3898 2.60704 1.60409
36 2 34.2419 2.75298 -1.65145 34.2419 2.75298 -1.65145
37 1 35.2648 1.03608 -0.14072 35.2648 1.03608 -0.14072
38 2 37.2372 0.957768 1.40131 37.2372 0.957768 1.40131
39 2 37.0909 1.11508 -1.85379 37.0909 1.11508 -1.85379
40 1 38.1144 2.68204 -0.189244 38.1144 2.68204 -0.189244
41 2 40.0778 2.60628 1.36449 40.0778 2.60628 1.36449
42 2 39.9502 2.7586 -1.8917 39.9502 2.7586 -1.8917
43 1 40.9633 1.03875 -0.377875 40.9633 1.03875 -0.377875
44 2 42.9099 0.958177 1.19676 42.9099 0.958177 1.19676
45 2 42.8174 1.12014 -2.0601 42.8174 1.12014 -2.0601
46 1 43.8142 2.68437 -0.37658 43.8142 2.68437 -0.37658
47 2 45.7391 2.60545 1.22477 45.7391 2.60545 1.22477
48 2 45.6909 2.76407 -2.03329 45.6909 2.76407 -2.03329
49 1 46.6653 1.04079 -0.49847 46.6653 1.04079 -0.49847
50 2 48.565 0.95863 1.1327 48.565 0.95863 1.1327
51 2 48.568 1.12352 -2.12531 48.568 1.12352 -2.12531
52 1 49.5169 2.68564 -0.411843 49.5169 2.68564 -0.411843
53 2 51.3927 2.60475 1.2467 51.3927 2.60475 1.2467
54 2 51.4425 2.76702 -2.01114 51.4425 2.76702 -2.01114
55 1 1.06025 4.33016 -0.28535 1.06025 4.33016 -0.28535
56 2 2.91596 4.25389 1.39582 2.91596 4.25389 1.39582
57 2 3.00482 4.40683 -1.86168 3.00482 4.40683 -1.86168
58 1 3.90956 5.97464 -0.129353 3.90956 5.97464 -0.129353
59 2 5.75149 5.90631 1.5672 5.75149 5.90631 1.5672
60 2 5.8669 6.04326 -1.69015 5.8669 6.04326 -1.69015
61 1 6.75976 4.32928 -0.097004 6.75976 4.32928 -0.097004
62 2 8.59305 4.25449 1.60865 8.59305 4.25449 1.60865
63 2 8.72539 4.40409 -1.64743 8.72539 4.40409 -1.64743
64 1 9.60795 5.97343 0.0951894 9.60795 5.97343 0.0951894
65 2 11.4438 5.90767 1.79848 11.4438 5.90767 1.79848
66 2 11.5715 6.03914 -1.45849 11.5715 6.03914 -1.45849
67 1 12.4582 4.32748 0.140724 12.4582 4.32748 0.140724
68 2 14.3002 4.25714 1.83721 14.3002 4.25714 1.83721
69 2 14.4164 4.39744 -1.4198 14.4164 4.39744 -1.4198
70 1 15.3078 5.97175 0.313884 15.3078 5.97175 0.313884
71 2 17.1682 5.91171 1.99062 17.1682 5.91171 1.99062
72 2 17.2492 6.03148 -1.26817 17.2492 6.03148 -1.26817
73 1 18.1595 4.3255 0.324249 18.1595 4.3255 0.324249
74 2 20.0385 4.26001 1.97978 20.0385 4.26001 1.97978
75 2 20.0832 4.39046 -1.27932 20.0832 4.39046 -1.27932
76 1 21.0115 5.97037 0.429472 21.0115 5.97037 0.429472
77 2 22.9172 5.91566 2.05477 22.9172 5.91566 2.05477
78 2 22.9093 6.02478 -1.20533 22.9093 6.02478 -1.20533
79 1 23.8641 4.32425 0.367212 23.8641 4.32425 0.367212
80 2 25.7923 4.26115 1.9652 25.7923 4.26115 1.9652
81 2 25.7387 4.38703 -1.29393 25.7387 4.38703 -1.29393
82 1 26.7164 5.96991 0.3838 26.7164 5.96991 0.3838
83 2 28.6672 5.91709 1.95462 28.6672 5.91709 1.95462
84 2 28.5672 6.02266 -1.30413 28.5672 6.02266 -1.30413
85 1 29.5673 4.32436 0.242699 29.5673 4.32436 0.242699
86 2 31.5328 4.26051 1.79432 31.5328 4.26051 1.79432
87 2 31.4015 4.38837 -1.46262 31.4015 4.38837 -1.46262
88 1 32.4176 5.97059 0.192369 32.4176 5.97059 0.192369
89 2 34.3912 5.9161 1.73412 34.3912 5.9161 1.73412
90 2 34.2427 6.02539 -1.52282 34.2427 6.02539 -1.52282
91 1 35.2662 4.32586 0.00711226 35.2662 4.32586 0.00711226
92 2 37.2388 4.25913 1.54946 37.2388 4.25913 1.54946
93 2 37.0919 4.39319 -1.70669 37.0919 4.39319 -1.70669
94 1 38.1155 5.97215 -0.0534715 38.1155 5.97215 -0.0534715
95 2 40.0785 5.91383 1.5015 40.0785 5.91383 1.5015
96 2 39.9514 6.0311 -1.75624 39.9514 6.0311 -1.75624
97 1 40.9643 4.328 -0.223605 40.9643 4.328 -0.223605
98 2 42.911 4.25733 1.35132 42.911 4.25733 1.35132
99 2 42.8178 4.39945 -1.90658 42.8178 4.39945 -1.90658
100 1 43.8147 5.97385 -0.232681 43.8147 5.97385 -0.232681
101 2 45.7391 5.91091 1.36974 45.7391 5.91091 1.36974
102 2 45.6913 6.03751 -1.88987 45.6913 6.03751 -1.88987
103 1 46.6654 4.3297 -0.337844 46.6654 4.3297 -0.337844
104 2 48.5657 4.25529 1.29279 48.5657 4.25529 1.29279
105 2 48.5667 4.40478 -1.96614 48.5667 4.40478 -1.96614
106 1 49.5163 5.97483 -0.260487 49.5163 5.97483 -0.260487
107 2 51.3926 5.90794 1.39797 51.3926 5.90794 1.39797
108 2 51.4409 6.04229 -1.8613 51.4409 6.04229 -1.8613
109 1 1.05915 7.61999 -0.149319 1.05915 7.61999 -0.149319
110 2 2.91532 7.56337 1.53201 2.91532 7.56337 1.53201
111 2 3.00283 7.67704 -1.72721 3.00283 7.67704 -1.72721
112 1 3.90818 9.2654 -0.0142516 3.90818 9.2654 -0.0142516
113 2 5.75069 9.22145 1.68246 5.75069 9.22145 1.68246
114 2 5.86476 9.30963 -1.57667 5.86476 9.30963 -1.57667
115 1 6.758 7.61939 0.041788 6.758 7.61939 0.041788
116 2 8.59422 7.56219 1.74499 8.59422 7.56219 1.74499
117 2 8.72083 7.67677 -1.51274 8.72083 7.67677 -1.51274
118 1 9.60634 9.26469 0.211367 9.60634 9.26469 0.211367
119 2 11.4458 9.22176 1.91157 11.4458 9.22176 1.91157
120 2 11.5666 9.30766 -1.34715 11.5666 9.30766 -1.34715
121 1 12.4567 7.61817 0.274091 12.4567 7.61817 0.274091
122 2 14.3039 7.56522 1.96565 14.3039 7.56522 1.96565
123 2 14.4103 7.67102 -1.29292 14.4103 7.67102 -1.29292
124 1 15.3068 9.26373 0.421282 15.3068 9.26373 0.421282
125 2 17.1729 9.22704 2.0925 17.1729 9.22704 2.0925
126 2 17.2431 9.30033 -1.16783 17.2431 9.30033 -1.16783
127 1 18.1589 7.61692 0.445758 18.1589 7.61692 0.445758
128 2 20.0433 7.57089 2.09609 20.0433 7.57089 2.09609
129 2 20.0778 7.66276 -1.16434 20.0778 7.66276 -1.16434
130 1 21.0113 9.26305 0.522727 21.0113 9.26305 0.522727
131 2 22.9219 9.23374 2.14312 22.9219 9.23374 2.14312
132 2 22.9045 9.29226 -1.11815 22.9045 9.29226 -1.11815
133 1 23.8642 7.61623 0.477841 23.8642 7.61623 0.477841
134 2 25.7958 7.57524 2.07282 25.7958 7.57524 2.07282
135 2 25.7358 7.65708 -1.18749 25.7358 7.65708 -1.18749
136 1 26.7167 9.26287 0.466779 26.7167 9.26287 0.466779
137 2 28.6697 9.23743 2.03565 28.6697 9.23743 2.03565
138 2 28.5653 9.28823 -1.22421 28.5653 9.28823 -1.22421
139 1 29.5679 7.61632 0.349655 29.5679 7.61632 0.349655
140 2 31.5344 7.57605 1.90104 31.5344 7.57605 1.90104
141 2 31.4013 7.65665 -1.35729 31.4013 7.65665 -1.35729
142 1 32.418 9.26315 0.274017 32.418 9.26315 0.274017
143 2 34.3916 9.23694 1.81664 34.3916 9.23694 1.81664
144 2 34.2432 9.28942 -1.4417 34.2432 9.28942 -1.4417
145 1 35.267 7.61718 0.117813 35.267 7.61718 0.117813
146 2 37.2392 7.5741 1.66165 37.2392 7.5741 1.66165
147 2 37.0931 7.66061 -1.59619 37.0931 7.66061 -1.59619
148 1 38.116 9.26386 0.0341149 38.116 9.26386 0.0341149
149 2 40.0777 9.23387 1.59145 40.0777 9.23387 1.59145
150 2 39.953 9.29417 -1.668 39.953 9.29417 -1.668
151 1 40.965 7.61849 -0.104867 40.965 7.61849 -0.104867
152 2 42.9106 7.5708 1.47213 42.9106 7.5708 1.47213
153 2 42.8191 7.66676 -1.78761 42.8191 7.66676 -1.78761
154 1 43.8149 9.26479 -0.135575 43.8149 9.26479 -0.135575
155 2 45.7376 9.22964 1.46958 45.7376 9.22964 1.46958
156 2 45.6927 9.30044 -1.79186 45.6927 9.30044 -1.79186
157 1 46.6654 7.61963 -0.209699 46.6654 7.61963 -0.209699
158 2 48.5648 7.56691 1.42261 48.5648 7.56691 1.42261
159 2 48.5669 7.67296 -1.83815 48.5669 7.67296 -1.83815
160 1 49.5157 9.26544 -0.153184 49.5157 9.26544 -0.153184
161 2 51.3908 9.22504 1.50737 51.3908 9.22504 1.50737
162 2 51.441 9.30632 -1.75372 51.441 9.30632 -1.75372
163 1 1.05828 10.9114 -0.0671057 1.05828 10.9114 -0.0671057
164 2 2.91299 10.8848 1.61654 2.91299 10.8848 1.61654
165 2 3.00308 10.9383 -1.64421 3.00308 10.9383 -1.64421
166 1 3.90727 12.5577 0.0398094 3.90727 12.5577 0.0398094
167 2 5.74833 12.546 1.73865 5.74833 12.546 1.73865
168 2 5.86513 12.5695 -1.5215 5.86513 12.5695 -1.5215
169 1 6.75663 10.9112 0.1311 6.75663 10.9112 0.1311
170 2 8.59388 10.8822 1.83393 8.59388 10.8822 1.83393
171 2 8.71849 10.9404 -1.42536 8.71849 10.9404 -1.42536
172 1 9.60526 12.5576 0.270447 9.60526 12.5576 0.270447
173 2 11.4467 12.5454 1.9691 11.4467 12.5454 1.9691
174 2 11.5639 12.5697 -1.29076 11.5639 12.5697 -1.29076
175 1 12.4555 10.9107 0.361271 12.4555 10.9107 0.361271
176 2 14.3072 10.885 2.04867 14.3072 10.885 2.04867
177 2 14.4051 10.9363 -1.21142 14.4051 10.9363 -1.21142
178 1 15.3061 12.5573 0.473545 15.3061 12.5573 0.473545
179 2 17.1774 12.5509 2.13957 17.1774 12.5509 2.13957
180 2 17.2378 12.5636 -1.12171 17.2378 12.5636 -1.12171
181 1 18.1584 10.9101 0.520245 18.1584 10.9101 0.520245
182 2 20.0485 10.8922 2.16474 20.0485 10.8922 2.16474
183 2 20.072 10.928 -1.0968 20.072 10.928 -1.0968
184 1 21.0112 12.5571 0.559289 21.0112 12.5571 0.559289
185 2 22.9268 12.5589 2.17417 22.9268 12.5589 2.17417
186 2 22.8996 12.5553 -1.08751 22.8996 12.5553 -1.08751
187 1 23.8643 10.9099 0.537285 23.8643 10.9099 0.537285
188 2 25.7996 10.8987 2.12825 25.7996 10.8987 2.12825
189 2 25.732 10.921 -1.13281 25.732 10.921 -1.13281
190 1 26.7166 12.557 0.489531 26.7166 12.557 0.489531
191 2 28.672 12.5639 2.05577 28.672 12.5639 2.05577
192 2 28.5628 12.5499 -1.20428 28.5628 12.5499 -1.20428
193 1 29.568 10.9099 0.401159 29.568 10.9099 0.401159
194 2 31.5355 10.9008 1.95194 31.5355 10.9008 1.95194
195 2 31.4004 10.9188 -1.30723 31.4004 10.9188 -1.30723
196 1 32.4178 12.5568 0.292289 32.4178 12.5568 0.292289
197 2 34.391 12.5641 1.83564 34.391 12.5641 1.83564
198 2 34.2433 12.5493 -1.42313 34.2433 12.5493 -1.42313
199 1 35.2671 10.91 0.170941 35.2671 10.91 0.170941
200 2 37.2383 10.8988 1.71669 37.2383 10.8988 1.71669
201 2 37.0943 10.9212 -1.54233 37.0943 10.9212 -1.54233
202 1 38.1158 12.5566 0.0567617 38.1158 12.5566 0.0567617
203 2 40.0755 12.5608 1.61686 40.0755 12.5608 1.61686
204 2 39.9548 12.5525 -1.64331 39.9548 12.5525 -1.64331
205 1 40.9651 10.9104 -0.043871 40.9651 10.9104 -0.043871
206 2 42.9087 10.8947 1.5362 42.9087 10.8947 1.5362
207 2 42.8211 10.9264 -1.72497 42.8211 10.9264 -1.72497
208 1 43.8147 12.5569 -0.103587 43.8147 12.5569 -0.103587
209 2 45.7347 12.556 1.50519 45.7347 12.556 1.50519
210 2 45.6951 12.5581 -1.75713 45.6951 12.5581 -1.75713
211 1 46.6651 10.9111 -0.13811 46.6651 10.9111 -0.13811
212 2 48.5623 10.8898 1.49742 48.5623 10.8898 1.49742
213 2 48.5685 10.9327 -1.76485 48.5685 10.9327 -1.76485
214 1 49.5152 12.5574 -0.109852 49.5152 12.5574 -0.109852
215 2 51.3876 12.5506 1.55426 51.3876 12.5506 1.55426
216 2 51.443 12.5644 -1.70776 51.443 12.5644 -1.70776
217 1 1.05783 14.2038 -0.0533134 1.05783 14.2038 -0.0533134
218 2 2.90942 14.2116 1.63398 2.90942 14.2116 1.63398
219 2 3.00557 14.1961 -1.62699 3.00557 14.1961 -1.62699
220 1 3.90701 15.8503 0.0239789 3.90701 15.8503 0.0239789
221 2 5.74502 15.8725 1.72604 5.74502 15.8725 1.72604
222 2 5.86777 15.8282 -1.53365 5.86777 15.8282 -1.53365
223 1 6.75591 14.2042 0.154827 6.75591 14.2042 0.154827
224 2 8.59225 14.2084 1.85891 8.59225 14.2084 1.85891
225 2 8.71864 14.2001 -1.40081 8.71864 14.2001 -1.40081
226 1 9.60488 15.8511 0.261968 9.60488 15.8511 0.261968
227 2 11.4464 15.8717 1.96039 11.4464 15.8717 1.96039
228 2 11.5634 15.8302 -1.2993 11.5634 15.8302 -1.2993
229 1 12.4549 14.2044 0.385948 12.4549 14.2044 0.385948
230 2 14.3095 14.2107 2.07029 14.3095 14.2107 2.07029
231 2 14.4018 14.1979 -1.19032 14.4018 14.1979 -1.19032
232 1 15.306 15.8514 0.460695 15.306 15.8514 0.460695
233 2 17.1808 15.8766 2.12244 17.1808 15.8766 2.12244
234 2 17.2342 15.8258 -1.1386 17.2342 15.8258 -1.1386
235 1 18.1582 14.2044 0.533301 18.1582 14.2044 0.533301
236 2 20.0533 14.218 2.17213 20.0533 14.218 2.17213
237 2 20.067 14.1905 -1.08954 20.067 14.1905 -1.08954
238 1 21.0112 15.8514 0.531631 21.0112 15.8514 0.531631
239 2 22.9308 15.8841 2.14126 22.9308 15.8841 2.14126
240 2 22.8952 15.8182 -1.11972 22.8952 15.8182 -1.11972
241 1 23.8641 14.2043 0.533807 23.8641 14.2043 0.533807
242 2 25.8031 14.2252 2.12033 25.8031 14.2252 2.12033
243 2 25.7281 14.1831 -1.14038 25.7281 14.1831 -1.14038
244 1 26.7161 15.8509 0.446985 26.7161 15.8509 0.446985
245 2 28.6734 15.8893 2.01033 28.6734 15.8893 2.01033
246 2 28.5601 15.8121 -1.24873 28.5601 15.8121 -1.24873
247 1 29.5675 14.2039 0.386959 29.5675 14.2039 0.386959
248 2 31.5357 14.228 1.93668 31.5357 14.228 1.93668
249 2 31.3992 14.1794 -1.32213 31.3992 14.1794 -1.32213
250 1 32.417 15.8501 0.242972 32.417 15.8501 0.242972
251 2 34.3894 15.8898 1.78674 34.3894 15.8898 1.78674
252 2 34.2432 15.8099 -1.47116 34.2432 15.8099 -1.47116
253 1 35.2666 14.2033 0.155888 35.2666 14.2033 0.155888
254 2 37.2362 14.2263 1.70349 37.2362 14.2263 1.70349
255 2 37.0954 14.18 -1.55543 37.0954 14.18 -1.55543
256 1 38.115 15.8492 0.00971221 38.115 15.8492 0.00971221
257 2 40.0722 15.8868 1.57255 40.0722 15.8868 1.57255
258 2 39.9568 15.8115 -1.68693 39.9568 15.8115 -1.68693
259 1 40.9647 14.2029 -0.0523678 40.9647 14.2029 -0.0523678
260 2 42.9055 14.2221 1.53112 42.9055 14.2221 1.53112
261 2 42.8237 14.1839 -1.73013 42.8237 14.1839 -1.73013
262 1 43.8143 15.8489 -0.142436 43.8143 15.8489 -0.142436
263 2 45.7308 15.882 1.47022 45.7308 15.882 1.47022
264 2 45.6984 15.816 -1.79148 45.6984 15.816 -1.79148
265 1 46.6648 14.2032 -0.136166 46.6648 14.2032 -0.136166
266 2 48.5586 14.2169 1.50336 48.5586 14.2169 1.50336
267 2 48.5716 14.1897 -1.75906 48.5716 14.1897 -1.75906
268 1 49.5151 15.8494 -0.137519 49.5151 15.8494 -0.137519
269 2 51.3835 15.8769 1.5308 51.3835 15.8769 1.5308
270 2 51.4467 15.8222 -1.73062 51.4467 15.8222 -1.73062
271 1 1.05792 17.4957 -0.10891 1.05792 17.4957 -0.10891
272 2 2.90541 17.5358 1.5825 2.90541 17.5358 1.5825
273 2 3.00971 17.4558 -1.67724 3.00971 17.4558 -1.67724
274 1 3.90745 19.142 -0.057217 3.90745 19.142 -0.057217
275 2 5.74163 19.1936 1.64839 5.74163 19.1936 1.64839
276 2 5.87193 19.0907 -1.60965 5.87193 19.0907 -1.60965
277 1 6.75595 17.497 0.109805 6.75595 17.497 0.109805
278 2 8.58991 17.5332 1.81608 8.58991 17.5332 1.81608
279 2 8.72095 17.4607 -1.44266 8.72095 17.4607 -1.44266
280 1 9.60524 19.1437 0.188412 9.60524 19.1437 0.188412
281 2 11.4454 19.1931 1.88767 11.4454 19.1931 1.88767
282 2 11.5651 19.0938 -1.3707 11.5651 19.0938 -1.3707
283 1 12.4549 17.4979 0.34387 12.4549 17.4979 0.34387
284 2 14.3107 17.535 2.02643 14.3107 17.535 2.02643
285 2 14.4007 17.4603 -1.23344 14.4007 17.4603 -1.23344
286 1 15.3062 19.1444 0.385127 15.3062 19.1444 0.385127
287 2 17.1827 19.1966 2.04416 17.1827 19.1966 2.04416
288 2 17.2326 19.0915 -1.21571 17.2326 19.0915 -1.21571
289 1 18.1583 17.4981 0.482054 18.1583 17.4981 0.482054
290 2 20.0568 17.541 2.11624 20.0568 17.541 2.11624
291 2 20.0635 17.4547 -1.14448 20.0635 17.4547 -1.14448
292 1 21.0111 19.1443 0.444271 21.0111 19.1443 0.444271
293 2 22.9332 19.2022 2.04991 22.9332 19.2022 2.04991
294 2 22.8922 19.0855 -1.20968 22.8922 19.0855 -1.20968
295 1 23.8638 17.4978 0.467232 23.8638 17.4978 0.467232
296 2 25.8054 17.5473 2.04971 25.8054 17.5473 2.04971
297 2 25.7248 17.4477 -1.20969 25.7248 17.4477 -1.20969
298 1 26.7153 19.1433 0.346188 26.7153 19.1433 0.346188
299 2 28.6736 19.2063 1.90717 28.6736 19.2063 1.90717
300 2 28.5578 19.0796 -1.35034 28.5578 19.0796 -1.35034
301 1 29.5666 17.4968 0.308849 29.5666 17.4968 0.308849
302 2 31.535 17.55 1.85738 31.535 17.55 1.85738
303 2 31.3977 17.443 -1.40004 31.3977 17.443 -1.40004
304 1 32.4156 19.1418 0.134551 32.4156 19.1418 0.134551
305 2 34.3869 19.2068 1.67872 34.3869 19.2068 1.67872
306 2 34.2429 19.0763 -1.57766 34.2429 19.0763 -1.57766
307 1 35.2654 17.4955 0.0748459 35.2654 17.4955 0.0748459
308 2 37.233 17.5487 1.62411 37.233 17.5487 1.62411
309 2 37.0963 17.442 -1.63355 37.0963 17.442 -1.63355
310 1 38.1137 19.1403 -0.0984571 38.1137 19.1403 -0.0984571
311 2 40.0682 19.2043 1.46702 40.0682 19.2043 1.46702
312 2 39.9588 19.0762 -1.79097 39.9588 19.0762 -1.79097
313 1 40.9639 17.4946 -0.128726 40.9639 17.4946 -0.128726
314 2 42.9014 17.5448 1.45818 42.9014 17.5448 1.45818
315 2 42.8266 17.4444 -1.80187 42.8266 17.4444 -1.80187
316 1 43.8137 19.1397 -0.244268 43.8137 19.1397 -0.244268
317 2 45.7264 19.2004 1.37223 45.7264 19.2004 1.37223
318 2 45.7022 19.0793 -1.88787 45.7022 19.0793 -1.88787
319 1 46.6646 17.4947 -0.20323 46.6646 17.4947 -0.20323
320 2 48.5544 17.5402 1.44047 48.5544 17.5402 1.44047
321 2 48.5757 17.4494 -1.82069 48.5757 17.4494 -1.82069
322 1 49.5152 19.1404 -0.229586 49.5152 19.1404 -0.229586
323 2 51.3794 19.1965 1.44296 51.3794 19.1965 1.44296
324 2 51.4514 19.0847 -1.81674 51.4514 19.0847 -1.81674
325 1 1.05854 20.7862 -0.222239 1.05854 20.7862 -0.222239
326 2 2.90181 20.851 1.47311 2.90181 20.851 1.47311
327 2 3.01464 20.722 -1.7847 3.01464 20.722 -1.7847
328 1 3.90849 22.4322 -0.18802 3.90849 22.4322 -0.18802
329 2 5.73886 22.5037 1.52101 5.73886 22.5037 1.52101
330 2 5.87673 22.3613 -1.73519 5.87673 22.3613 -1.73519
331 1 6.75671 20.7884 0.0055027 6.75671 20.7884 0.0055027
332 2 8.5875 20.8499 1.71442 8.5875 20.8499 1.71442
333 2 8.7247 20.727 -1.54255 8.7247 20.727 -1.54255
334 1 9.60623 22.4346 0.0638812 9.60623 22.4346 0.0638812
335 2 11.4439 22.5038 1.765 11.4439 22.5038 1.765
336 2 11.5682 22.3651 -1.4918 11.5682 22.3651 -1.4918
337 1 12.4555 20.79 0.243264 12.4555 20.79 0.243264
338 2 14.3107 20.851 1.9256 14.3107 20.851 1.9256
339 2 14.4016 20.7283 -1.33286 14.4016 20.7283 -1.33286
340 1 15.3068 22.4357 0.260835 15.3068 22.4357 0.260835
341 2 17.1828 22.5053 1.91938 17.1828 22.5053 1.91938
342 2 17.2332 22.3651 -1.33928 17.2332 22.3651 -1.33928
343 1 18.1585 20.7903 0.375724 18.1585 20.7903 0.375724
344 2 20.0584 20.8547 2.00726 20.0584 20.8547 2.00726
345 2 20.0619 20.7249 -1.25215 20.0619 20.7249 -1.25215
346 1 21.0109 22.4352 0.312908 21.0109 22.4352 0.312908
347 2 22.9337 22.508 1.91682 22.9337 22.508 1.91682
348 2 22.8908 22.3615 -1.34168 22.8908 22.3615 -1.34168
349 1 23.8633 20.7894 0.349157 23.8633 20.7894 0.349157
350 2 25.8061 20.8587 1.92903 25.8061 20.8587 1.92903
351 2 25.7224 20.7194 -1.32895 25.7224 20.7194 -1.32895
352 1 26.7142 22.4337 0.20508 26.7142 22.4337 0.20508
353 2 28.6725 22.5101 1.76508 28.6725 22.5101 1.76508
354 2 28.5562 22.3567 -1.49135 28.5562 22.3567 -1.49135
355 1 29.5652 20.7879 0.180554 29.5652 20.7879 0.180554
356 2 31.5333 20.8606 1.72845 31.5333 20.8606 1.72845
357 2 31.3964 20.7146 -1.52752 31.3964 20.7146 -1.52752
358 1 32.4138 22.4317 -0.0134094 32.4138 22.4317 -0.0134094
359 2 34.3839 22.5103 1.5316 34.3839 22.5103 1.5316
360 2 34.2425 22.3528 -1.72371 34.2425 22.3528 -1.72371
361 1 35.2638 20.786 -0.0575104 35.2638 20.786 -0.0575104
362 2 37.2294 20.8596 1.49344 37.2294 20.8596 1.49344
363 2 37.0971 20.7122 -1.76278 37.0971 20.7122 -1.76278
364 1 38.1122 22.4299 -0.247832 38.1122 22.4299 -0.247832
365 2 40.0642 22.5087 1.32018 40.0642 22.5087 1.32018
366 2 39.9604 22.3512 -1.93661 39.9604 22.3512 -1.93661
367 1 40.9628 20.7847 -0.258577 40.9628 20.7847 -0.258577
368 2 42.8971 20.8567 1.33161 42.8971 20.8567 1.33161
369 2 42.8295 20.7129 -1.92686 42.8295 20.7129 -1.92686
370 1 43.8132 22.4291 -0.38999 43.8132 22.4291 -0.38999
371 2 45.7224 22.5063 1.23006 45.7224 22.5063 1.23006
372 2 45.7058 22.3525 -2.02856 45.7058 22.3525 -2.02856
373 1 46.6645 20.7848 -0.325956 46.6645 20.7848 -0.325956
374 2 48.5503 20.8535 1.32173 48.5503 20.8535 1.32173
375 2 48.5801 20.7166 -1.93763 48.5801 20.7166 -1.93763
376 1 49.5157 22.43 -0.368386 49.5157 22.43 -0.368386
377 2 51.376 22.5046 1.30797 51.376 22.5046 1.30797
378 2 51.4562 22.3563 -1.94996 51.4562 22.3563 -1.94996
379 1 1.05955 24.0756 -0.372502 1.05955 24.0756 -0.372502
380 2 2.89929 24.1537 1.32626 2.89929 24.1537 1.32626
381 2 3.01942 23.9984 -1.93004 3.01942 23.9984 -1.93004
382 1 3.90992 25.7215 -0.345329 3.90992 25.7215 -0.345329
383 2 5.73712 25.8006 1.36681 5.73712 25.8006 1.36681
384 2 5.88137 25.6432 -1.88837 5.88137 25.6432 -1.88837
385 1 6.75805 24.0783 -0.138868 6.75805 24.0783 -0.138868
386 2 8.58548 24.154 1.57302 8.58548 24.154 1.57302
387 2 8.72918 24.0029 -1.68248 8.72918 24.0029 -1.68248
388 1 9.60768 25.7241 -0.0893244 9.60768 25.7241 -0.0893244
389 2 11.4421 25.8009 1.61481 11.4421 25.8009 1.61481
390 2 11.5725 25.6474 -1.64115 11.5725 25.6474 -1.64115
391 1 12.4565 24.0803 0.102654 12.4565 24.0803 0.102654
392 2 14.3095 24.1542 1.78666 14.3095 24.1542 1.78666
393 2 14.4044 24.0058 -1.47072 14.4044 24.0058 -1.47072
394 1 15.3076 25.7254 0.110432 15.3076 25.7254 0.110432
395 2 17.1812 25.7999 1.77114 17.1812 25.7999 1.77114
396 2 17.2358 25.65 -1.48716 17.2358 25.65 -1.48716
397 1 18.1588 24.0806 0.23373 18.1588 24.0806 0.23373
398 2 20.0579 24.1548 1.86534 20.0579 24.1548 1.86534
399 2 20.0624 24.0053 -1.39337 20.0624 24.0053 -1.39337
400 1 21.0108 25.7248 0.161471 21.0108 25.7248 0.161471
401 2 22.9322 25.7991 1.76646 22.9322 25.7991 1.76646
402 2 22.8914 25.6495 -1.49208 22.8914 25.6495 -1.49208
403 1 23.8626 24.0794 0.200892 23.8626 24.0794 0.200892
404 2 25.8051 24.1559 1.78038 25.8051 24.1559 1.78038
405 2 25.7215 24.002 -1.47707 25.7215 24.002 -1.47707
406 1 26.7131 25.723 0.0492201 26.7131 25.723 0.0492201
407 2 28.6704 25.7989 1.61006 28.6704 25.7989 1.61006
408 2 28.5556 25.6466 -1.64658 28.5556 25.6466 -1.64658
409 1 29.5637 24.0774 0.025234 29.5637 24.0774 0.025234
410 2 31.5309 24.1565 1.5736 31.5309 24.1565 1.5736
411 2 31.3955 23.9979 -1.6819 31.3955 23.9979 -1.6819
412 1 32.4121 25.7209 -0.174056 32.4121 25.7209 -0.174056
413 2 34.381 25.7987 1.37234 34.381 25.7987 1.37234
414 2 34.2421 25.6428 -1.88314 34.2421 25.6428 -1.88314
415 1 35.262 24.0753 -0.217028 35.262 24.0753 -0.217028
416 2 37.2259 24.1559 1.33573 37.2259 24.1559 1.33573
417 2 37.0974 23.9946 -1.91992 37.0974 23.9946 -1.91992
418 1 38.1107 25.719 -0.411299 38.1107 25.719 -0.411299
419 2 40.0609 25.7985 1.15891 40.0609 25.7985 1.15891
420 2 39.9612 25.6397 -2.09783 39.9612 25.6397 -2.09783
421 1 40.9618 24.0738 -0.418127 40.9618 24.0738 -0.418127
422 2 42.8934 24.1547 1.17497 42.8934 24.1547 1.17497
423 2 42.8317 23.9934 -2.08265 42.8317 23.9934 -2.08265
424 1 43.8127 25.7182 -0.553416 43.8127 25.7182 -0.553416
425 2 45.7196 25.7985 1.06945 45.7196 25.7985 1.06945
426 2 45.7084 25.6386 -2.18873 45.7084 25.6386 -2.18873
427 1 46.6646 24.0738 -0.481856 46.6646 24.0738 -0.481856
428 2 48.5471 24.1537 1.16925 48.5471 24.1537 1.16925
429 2 48.584 23.9948 -2.08888 48.584 23.9948 -2.08888
430 1 49.5164 25.7191 -0.529349 49.5164 25.7191 -0.529349
431 2 51.3739 25.7993 1.15002 51.3739 25.7993 1.15002
432 2 51.4601 25.6399 -2.10708 51.4601 25.6399 -2.10708
433 1 1.06075 27.3648 -0.533983 1.06075 27.3648 -0.533983
434 2 2.8982 27.4431 1.1674 2.8982 27.4431 1.1674
435 2 3.02327 27.2877 -2.08859 3.02327 27.2877 -2.08859
436 1 3.9115 29.011 -0.502771 3.9115 29.011 -0.502771
437 2 5.7365 29.0845 1.21201 5.7365 29.0845 1.21201
438 2 5.88526 28.9385 -2.04343 5.88526 28.9385 -2.04343
439 1 6.75973 27.3675 -0.298368 6.75973 27.3675 -0.298368
440 2 8.58397 27.4445 1.4168 8.58397 27.4445 1.4168
441 2 8.73382 27.2911 -1.83832 8.73382 27.2911 -1.83832
442 1 9.60935 29.0135 -0.244815 9.60935 29.0135 -0.244815
443 2 11.44 29.0844 1.46344 11.44 29.0844 1.46344
444 2 11.5775 28.9428 -1.79283 11.5775 28.9428 -1.79283
445 1 12.4578 27.3696 -0.052947 12.4578 27.3696 -0.052947
446 2 14.3072 27.4433 1.63477 14.3072 27.4433 1.63477
447 2 14.4087 27.2956 -1.62256 14.4087 27.2956 -1.62256
448 1 15.3086 29.0147 -0.0392428 15.3086 29.0147 -0.0392428
449 2 17.178 29.0809 1.62613 17.178 29.0809 1.62613
450 2 17.2402 28.948 -1.63291 17.2402 28.948 -1.63291
451 1 18.1592 27.3699 0.0818537 18.1592 27.3699 0.0818537
452 2 20.0555 27.4406 1.71647 20.0555 27.4406 1.71647
453 2 20.0649 27.2983 -1.54272 20.0649 27.2983 -1.54272
454 1 21.0107 29.0142 0.0173716 21.0107 29.0142 0.0173716
455 2 22.9291 29.0768 1.626 22.9291 29.0768 1.626
456 2 22.8938 28.9508 -1.63375 22.8938 28.9508 -1.63375
457 1 23.862 27.3686 0.0493705 23.862 27.3686 0.0493705
458 2 25.8028 27.4387 1.63083 25.8028 27.4387 1.63083
459 2 25.722 27.2979 -1.62742 25.722 27.2979 -1.62742
460 1 26.7121 29.0125 -0.0933383 26.7121 29.0125 -0.0933383
461 2 28.6678 29.0745 1.46984 28.6678 29.0745 1.46984
462 2 28.556 28.9501 -1.78818 28.556 28.9501 -1.78818
463 1 29.5623 27.3667 -0.129049 29.5623 27.3667 -0.129049
464 2 31.5284 27.4379 1.42086 31.5284 27.4379 1.42086
465 2 31.395 27.2951 -1.8355 31.395 27.2951 -1.8355
466 1 32.4107 29.0106 -0.318742 32.4107 29.0106 -0.318742
467 2 34.3788 29.0743 1.22919 34.3788 29.0743 1.22919
468 2 34.2415 28.947 -2.0276 34.2415 28.947 -2.0276
469 1 35.2604 27.3646 -0.374986 35.2604 27.3646 -0.374986
470 2 37.2233 27.4381 1.17942 37.2233 27.4381 1.17942
471 2 37.0972 27.2913 -2.07695 37.0972 27.2913 -2.07695
472 1 38.1095 29.009 -0.559988 38.1095 29.009 -0.559988
473 2 40.0592 29.0755 1.01152 40.0592 29.0755 1.01152
474 2 39.961 28.9428 -2.24632 39.961 28.9428 -2.24632
475 1 40.9607 27.3632 -0.578939 40.9607 27.3632 -0.578939
476 2 42.891 27.4389 1.01619 42.891 27.4389 1.01619
477 2 42.8328 27.288 -2.24184 42.8328 27.288 -2.24184
478 1 43.8122 29.0082 -0.706232 43.8122 29.0082 -0.706232
479 2 45.7185 29.0781 0.918037 45.7185 29.0781 0.918037
480 2 45.7093 28.9391 -2.34093 45.7093 28.9391 -2.34093
481 1 46.6647 27.3632 -0.643782 46.6647 27.3632 -0.643782
482 2 48.5455 27.4407 1.00966 48.5455 27.4407 1.00966
483 2 48.5866 27.2866 -2.24848 48.5866 27.2866 -2.24848
484 1 49.5171 29.0089 -0.685342 49.5171 29.0089 -0.685342
485 2 51.3735 29.0816 0.99577 51.3735 29.0816 0.99577
486 2 51.4625 28.9373 -2.26181 51.4625 28.9373 -2.26181
487 1 1.0619 30.6553 -0.680053 1.0619 30.6553 -0.680053
488 2 2.8986 30.7208 1.0228 2.8986 30.7208 1.0228
489 2 3.02561 30.5907 -2.23412 3.02561 30.5907 -2.23412
490 1 3.91294 32.302 -0.634505 3.91294 32.302 -0.634505
491 2 5.73691 32.3577 1.08211 5.73691 32.3577 1.08211
492 2 5.88795 32.2472 -2.17457 5.88795 32.2472 -2.17457
493 1 6.76147 30.6574 -0.446305 6.76147 30.6574 -0.446305
494 2 8.58297 30.7227 1.27223 8.58297 30.7227 1.27223
495 2 8.73814 30.5929 -1.98367 8.73814 30.5929 -1.98367
496 1 9.61098 32.3039 -0.376326 9.61098 32.3039 -0.376326
497 2 11.4378 32.3569 1.33656 11.4378 32.3569 1.33656
498 2 11.5825 32.2512 -1.92079 11.5825 32.2512 -1.92079
499 1 12.4592 30.6593 -0.196503 12.4592 30.6593 -0.196503
500 2 14.304 30.7198 1.49653 14.304 30.7198 1.49653
501 2 14.4141 30.5986 -1.7617 14.4141 30.5986 -1.7617
502 1 15.3095 32.3049 -0.162132 15.3095 32.3049 -0.162132
503 2 17.1737 32.3512 1.50949 17.1737 32.3512 1.50949
504 2 17.2457 32.2582 -1.75083 17.2457 32.2582 -1.75083
505 1 18.1597 30.6596 -0.0527982 18.1597 30.6596 -0.0527982
506 2 20.0516 30.7142 1.58713 20.0516 30.7142 1.58713
507 2 20.0692 30.6043 -1.67341 20.0692 30.6043 -1.67341
508 1 21.0108 32.3044 -0.0939769 21.0108 32.3044 -0.0939769
509 2 22.9252 32.3445 1.51989 22.9252 32.3445 1.51989
510 2 22.8975 32.2637 -1.74149 22.8975 32.2637 -1.74149
511 1 23.8616 30.6585 -0.0782767 23.8616 30.6585 -0.0782767
512 2 25.7997 30.7097 1.50685 25.7997 30.7097 1.50685
513 2 25.724 30.6067 -1.75305 25.724 30.6067 -1.75305
514 1 26.7117 32.3032 -0.197624 26.7117 32.3032 -0.197624
515 2 28.6654 32.3407 1.36852 28.6654 32.3407 1.36852
516 2 28.5573 32.2654 -1.8912 28.5573 32.2654 -1.8912
517 1 29.5613 30.6569 -0.255025 29.5613 30.6569 -0.255025
518 2 31.5263 30.7081 1.29687 31.5263 30.7081 1.29687
519 2 31.3951 30.6055 -1.96113 31.3951 30.6055 -1.96113
520 1 32.4099 32.3019 -0.422599 32.4099 32.3019 -0.422599
521 2 34.3777 32.3406 1.12633 34.3777 32.3406 1.12633
522 2 34.241 32.2632 -2.13204 34.241 32.2632 -2.13204
523 1 35.2593 30.6553 -0.503854 35.2593 30.6553 -0.503854
524 2 37.222 30.7091 1.05144 37.222 30.7091 1.05144
525 2 37.0963 30.6017 -2.20642 37.0963 30.6017 -2.20642
526 1 38.1087 32.3008 -0.6687 38.1087 32.3008 -0.6687
527 2 40.0593 32.3435 0.902585 40.0593 32.3435 0.902585
528 2 39.9595 32.2585 -2.35671 39.9595 32.2585 -2.35671
529 1 40.96 30.6542 -0.713365 40.96 30.6542 -0.713365
530 2 42.8906 30.7121 0.882218 42.8906 30.7121 0.882218
531 2 42.8321 30.5968 -2.37712 42.8321 30.5968 -2.37712
532 1 43.8119 32.3003 -0.822964 43.8119 32.3003 -0.822964
533 2 45.7195 32.3483 0.800703 45.7195 32.3483 0.800703
534 2 45.7081 32.2527 -2.45969 45.7081 32.2527 -2.45969
535 1 46.6648 30.6541 -0.784554 46.6648 30.6541 -0.784554
536 2 48.5458 30.7164 0.869497 48.5458 30.7164 0.869497
537 2 48.5872 30.5925 -2.38977 48.5872 30.5925 -2.38977
538 1 49.5176 32.3006 -0.810824 49.5176 32.3006 -0.810824
539 2 51.3748 32.3538 0.870319 51.3748 32.3538 0.870319
540 2 51.4629 32.2482 -2.38864 51.4629 32.2482 -2.38864