ITEM: TIMESTEP
42000
ITEM: NUMBER OF ATOMS
810
ITEM: BOX BOUNDS pp pp pp
8.6572744397864121e-01 5.2151877556020295e+01
8.1125708870657565e-01 5.0204957911293413e+01
-1.0000000000000000e+01 1.0000000000000000e+01
ITEM: ATOMS id type x y z xu yu zu
1 1 1.07467 1.02691 0.262343 1.07467 1.02691 0.262343
2 2 3.04144 1.0502 1.81315 3.04144 1.0502 1.81315
3 2 2.90743 1.0037 -1.44592 2.90743 1.0037 -1.44592
4 1 3.92396 2.67318 0.12089 3.92396 2.67318 0.12089
5 2 5.91133 2.6984 1.64514 5.91133 2.6984 1.64514
6 2 5.7335 2.64792 -1.6118 5.7335 2.64792 -1.6118
7 1 6.77203 1.02646 -0.00972246 6.77203 1.02646 -0.00972246
8 2 8.77039 1.0498 1.50026 8.77039 1.0498 1.50026
9 2 8.56896 1.00299 -1.75536 8.56896 1.00299 -1.75536
10 1 9.61809 2.6724 -0.210085 9.61809 2.6724 -0.210085
11 2 11.6159 2.69714 1.30078 11.6159 2.69714 1.30078
12 2 11.4156 2.64741 -1.95487 11.4156 2.64741 -1.95487
13 1 12.4651 1.02554 -0.360271 12.4651 1.02554 -0.360271
14 2 14.4518 1.04848 1.16527 14.4518 1.04848 1.16527
15 2 14.2752 1.00234 -2.09181 14.2752 1.00234 -2.09181
16 1 15.3126 2.67137 -0.538192 15.3126 2.67137 -0.538192
17 2 17.2768 2.69424 1.01666 17.2768 2.69424 1.01666
18 2 17.1482 2.64825 -2.24264 17.1482 2.64825 -2.24264
19 1 18.1627 1.0246 -0.627152 18.1627 1.0246 -0.627152
20 2 20.097 1.04717 0.96496 20.097 1.04717 0.96496
21 2 20.0304 1.00177 -2.29621 20.0304 1.00177 -2.29621
22 1 21.0143 2.67068 -0.708007 21.0143 2.67068 -0.708007
23 2 22.9123 2.69157 0.927532 22.9123 2.69157 0.927532
24 2 22.9193 2.64965 -2.3343 22.9193 2.64965 -2.3343
25 1 23.8666 1.02409 -0.680004 23.8666 1.02409 -0.680004
26 2 25.7286 1.04683 0.996398 25.7286 1.04683 0.996398
27 2 25.8063 1.0012 -2.26449 25.8063 1.0012 -2.26449
28 1 26.7181 2.67059 -0.634386 26.7181 2.67059 -0.634386
29 2 28.5475 2.69049 1.07762 28.5475 2.69049 1.07762
30 2 28.6881 2.65064 -2.18122 28.6881 2.65064 -2.18122
31 1 29.5675 1.02424 -0.490504 29.5675 1.02424 -0.490504
32 2 31.3738 1.04736 1.24559 31.3738 1.04736 1.24559
33 2 31.5577 1.00115 -2.01106 31.5577 1.00115 -2.01106
34 1 32.4152 2.67103 -0.352445 32.4152 2.67103 -0.352445
35 2 34.2099 2.69077 1.39553 34.2099 2.69077 1.39553
36 2 34.4156 2.65135 -1.85991 34.4156 2.65135 -1.85991
37 1 35.2613 1.02499 -0.152191 35.2613 1.02499 -0.152191
38 2 37.0585 1.04796 1.59289 37.0585 1.04796 1.59289
39 2 37.2593 1.00219 -1.6628 37.2593 1.00219 -1.6628
40 1 38.1081 2.67181 0.000413414 38.1081 2.67181 0.000413414
41 2 39.92 2.69204 1.73005 39.92 2.69204 1.73005
42 2 40.0932 2.65178 -1.52732 40.0932 2.65178 -1.52732
43 1 40.9558 1.02594 0.172255 40.9558 1.02594 0.172255
44 2 42.7934 1.04857 1.87438 42.7934 1.04857 1.87438
45 2 42.918 1.00357 -1.38513 42.918 1.00357 -1.38513
46 1 43.8059 2.67267 0.258116 43.8059 2.67267 0.258116
47 2 45.6756 2.69438 1.92473 45.6756 2.69438 1.92473
48 2 45.738 2.65124 -1.33661 45.738 2.65124 -1.33661
49 1 46.6574 1.02669 0.333989 46.6574 1.02669 0.333989
50 2 48.5621 1.04949 1.9605 48.5621 1.04949 1.9605
51 2 48.5554 1.00412 -1.30135 48.5554 1.00412 -1.30135
52 1 49.5094 2.67324 0.304587 49.5094 2.67324 0.304587
53 2 51.4476 2.69711 1.89077 51.4476 2.69711 1.89077
54 2 51.3727 2.64959 -1.37021 51.3727 2.64959 -1.37021
55 1 1.07415 4.31966 0.214275 1.07415 4.31966 0.214275
56 2 3.04127 4.34488 1.76444 3.04127 4.34488 1.76444
57 2 2.90627 4.29455 -1.49458 2.90627 4.29455 -1.49458
58 1 3.92304 5.96588 0.0699646 3.92304 5.96588 0.0699646
59 2 5.91068 5.99161 1.59372 5.91068 5.99161 1.59372
60 2 5.73207 5.94007 -1.66319 5.73207 5.94007 -1.66319
61 1 6.77109 4.31923 -0.0608565 6.77109 4.31923 -0.0608565
62 2 8.76888 4.34523 1.44976 8.76888 4.34523 1.44976
63 2 8.56859 4.29302 -1.80586 8.56859 4.29302 -1.80586
64 1 9.61692 5.96511 -0.263028 9.61692 5.96511 -0.263028
65 2 11.6133 5.98967 1.24969 11.6133 5.98967 1.24969
66 2 11.4161 5.94024 -2.00614 11.4161 5.94024 -2.00614
67 1 12.4642 4.31822 -0.410715 12.4642 4.31822 -0.410715
68 2 14.4495 4.34197 1.11675 14.4495 4.34197 1.11675
69 2 14.2761 4.29419 -2.14044 14.2761 4.29419 -2.14044
70 1 15.3118 5.96415 -0.586711 15.3118 5.96415 -0.586711
71 2 17.2734 5.98404 0.971524 17.2734 5.98404 0.971524
72 2 17.1504 5.94411 -2.28802 17.1504 5.94411 -2.28802
73 1 18.1623 4.31737 -0.673823 18.1623 4.31737 -0.673823
74 2 20.0948 4.33728 0.920593 20.0948 4.33728 0.920593
75 2 20.0321 4.29734 -2.34066 20.0321 4.29734 -2.34066
76 1 21.0141 5.96373 -0.748575 21.0141 5.96373 -0.748575
77 2 22.9095 5.97814 0.890123 22.9095 5.97814 0.890123
78 2 22.9219 5.94936 -2.37178 22.9219 5.94936 -2.37178
79 1 23.8666 4.31711 -0.722514 23.8666 4.31711 -0.722514
80 2 25.7274 4.33381 0.955521 25.7274 4.33381 0.955521
81 2 25.808 4.30038 -2.30539 25.808 4.30038 -2.30539
82 1 26.7182 5.96386 -0.668313 26.7182 5.96386 -0.668313
83 2 28.546 5.97464 1.04553 28.546 5.97464 1.04553
84 2 28.6899 5.95306 -2.21331 28.6899 5.95306 -2.21331
85 1 29.5678 4.31734 -0.53092 29.5678 4.31734 -0.53092
86 2 31.3734 4.33267 1.20615 31.3734 4.33267 1.20615
87 2 31.559 4.30198 -2.05055 31.559 4.30198 -2.05055
88 1 32.4154 5.96416 -0.38358 32.4154 5.96416 -0.38358
89 2 34.2096 5.9743 1.36501 34.2096 5.9743 1.36501
90 2 34.4162 5.95395 -1.89055 34.4162 5.95395 -1.89055
91 1 35.2617 4.31785 -0.192171 35.2617 4.31785 -0.192171
92 2 37.0584 4.33368 1.55349 37.0584 4.33368 1.55349
93 2 37.2602 4.30207 -1.70233 37.2602 4.30207 -1.70233
94 1 38.1082 5.96459 -0.0316117 38.1082 5.96459 -0.0316117
95 2 39.9206 5.97714 1.69749 39.9206 5.97714 1.69749
96 2 40.0928 5.95213 -1.56013 40.0928 5.95213 -1.56013
97 1 40.9561 4.31856 0.131474 40.9561 4.31856 0.131474
98 2 42.7937 4.33674 1.83352 42.7937 4.33674 1.83352
99 2 42.9181 4.30063 -1.42617 42.9181 4.30063 -1.42617
100 1 43.8059 5.96523 0.221605 43.8059 5.96523 0.221605
101 2 45.677 5.98259 1.88657 45.677 5.98259 1.88657
102 2 45.7365 5.9482 -1.37498 45.7365 5.9482 -1.37498
103 1 46.6573 4.31931 0.290361 46.6573 4.31931 0.290361
104 2 48.5626 4.34121 1.91606 48.5626 4.34121 1.91606
105 2 48.5545 4.29773 -1.34588 48.5545 4.29773 -1.34588
106 1 49.509 5.96585 0.260654 49.509 5.96585 0.260654
107 2 51.4487 5.98853 1.84494 51.4487 5.98853 1.84494
108 2 51.3706 5.94345 -1.41606 51.3706 5.94345 -1.41606
109 1 1.07343 7.61226 0.168726 1.07343 7.61226 0.168726
110 2 3.04211 7.63529 1.7168 3.04211 7.63529 1.7168
111 2 2.9036 7.58936 -1.54219 2.9036 7.58936 -1.54219
112 1 3.9219 9.25852 0.0235204 3.9219 9.25852 0.0235204
113 2 5.91044 9.28039 1.54606 5.91044 9.28039 1.54606
114 2 5.72977 9.23655 -1.71087 5.72977 9.23655 -1.71087
115 1 6.76981 7.61191 -0.113058 6.76981 7.61191 -0.113058
116 2 8.76703 7.63622 1.39827 8.76703 7.63622 1.39827
117 2 8.56788 7.58737 -1.85748 8.56788 7.58737 -1.85748
118 1 9.61551 9.2579 -0.312579 9.61551 9.2579 -0.312579
119 2 11.6099 9.27816 1.2028 11.6099 9.27816 1.2028
120 2 11.417 9.23735 -2.05338 11.417 9.23735 -2.05338
121 1 12.463 7.61102 -0.4609 12.463 7.61102 -0.4609
122 2 14.4456 7.63134 1.07018 14.4456 7.63134 1.07018
123 2 14.2781 7.59046 -2.18738 14.2781 7.59046 -2.18738
124 1 15.311 9.2572 -0.62829 15.311 9.2572 -0.62829
125 2 17.2685 9.27064 0.935176 17.2685 9.27064 0.935176
126 2 17.1541 9.2437 -2.32477 17.1541 9.2437 -2.32477
127 1 18.1618 7.61043 -0.71442 18.1618 7.61043 -0.71442
128 2 20.0907 7.62384 0.884549 20.0907 7.62384 0.884549
129 2 20.0357 7.59704 -2.37692 20.0357 7.59704 -2.37692
130 1 21.0138 9.25711 -0.775883 21.0138 9.25711 -0.775883
131 2 22.9051 9.26235 0.867746 22.9051 9.26235 0.867746
132 2 22.926 9.25202 -2.39419 22.926 9.25202 -2.39419
133 1 23.8665 7.61047 -0.751775 23.8665 7.61047 -0.751775
134 2 25.7244 7.61767 0.929566 25.7244 7.61767 0.929566
135 2 25.8107 7.60335 -2.3313 25.8107 7.60335 -2.3313
136 1 26.718 9.25738 -0.68292 26.718 9.25738 -0.68292
137 2 28.5433 9.25682 1.03362 28.5433 9.25682 1.03362
138 2 28.6919 9.25793 -2.22505 28.6919 9.25793 -2.22505
139 1 29.5677 7.61071 -0.552843 29.5677 7.61071 -0.552843
140 2 31.3721 7.61497 1.18554 31.3721 7.61497 1.18554
141 2 31.56 7.60635 -2.07115 31.56 7.60635 -2.07115
142 1 32.4149 9.25746 -0.39234 32.4149 9.25746 -0.39234
143 2 34.2091 9.25584 1.35628 34.2091 9.25584 1.35628
144 2 34.4158 9.25888 -1.89934 34.4158 9.25888 -1.89934
145 1 35.2616 7.61088 -0.212803 35.2616 7.61088 -0.212803
146 2 37.0588 7.61645 1.53228 37.0588 7.61645 1.53228
147 2 37.2595 7.60524 -1.72376 37.2595 7.60524 -1.72376
148 1 38.1078 9.25746 -0.0429104 38.1078 9.25746 -0.0429104
149 2 39.9224 9.25991 1.68386 39.9224 9.25991 1.68386
150 2 40.0904 9.255 -1.57409 40.0904 9.255 -1.57409
151 1 40.956 7.61123 0.106213 40.956 7.61123 0.106213
152 2 42.7956 7.62183 1.80605 42.7956 7.62183 1.80605
153 2 42.916 7.60082 -1.45396 42.916 7.60082 -1.45396
154 1 43.8057 9.25782 0.200463 43.8057 9.25782 0.200463
155 2 45.6801 9.2677 1.8616 45.6801 9.2677 1.8616
156 2 45.7329 9.24823 -1.40024 45.7329 9.24823 -1.40024
157 1 46.6571 7.61185 0.255667 46.6571 7.61185 0.255667
158 2 48.5649 7.62928 1.87834 48.5649 7.62928 1.87834
159 2 48.5516 7.59477 -1.38375 48.5516 7.59477 -1.38375
160 1 49.5086 9.2584 0.225846 49.5086 9.2584 0.225846
161 2 51.4512 9.27594 1.80647 51.4512 9.27594 1.80647
162 2 51.3668 9.24114 -1.45455 51.3668 9.24114 -1.45455
163 1 1.07261 10.9049 0.133613 1.07261 10.9049 0.133613
164 2 3.04384 10.9215 1.67841 3.04384 10.9215 1.67841
165 2 2.8998 10.8883 -1.58052 2.8998 10.8883 -1.58052
166 1 3.92074 12.5512 -0.010031 3.92074 12.5512 -0.010031
167 2 5.91078 12.5653 1.51059 5.91078 12.5653 1.51059
168 2 5.72684 12.5371 -1.74634 5.72684 12.5371 -1.74634
169 1 6.76839 10.9047 -0.157448 6.76839 10.9047 -0.157448
170 2 8.76519 10.9231 1.35449 8.76519 10.9231 1.35449
171 2 8.5669 10.886 -1.90146 8.5669 10.886 -1.90146
172 1 9.6141 12.5509 -0.350309 9.6141 12.5509 -0.350309
173 2 11.6064 12.5635 1.16794 11.6064 12.5635 1.16794
174 2 11.418 12.538 -2.08865 11.418 12.538 -2.08865
175 1 12.4618 10.904 -0.502375 12.4618 10.904 -0.502375
176 2 14.4409 10.9177 1.03343 14.4409 10.9177 1.03343
177 2 14.281 10.8903 -2.22462 14.281 10.8903 -2.22462
178 1 15.3102 12.5505 -0.65624 15.3102 12.5505 -0.65624
179 2 17.2629 12.5556 0.913378 17.2629 12.5556 0.913378
180 2 17.1587 12.5454 -2.34698 17.1587 12.5454 -2.34698
181 1 18.1614 10.9038 -0.74191 18.1614 10.9038 -0.74191
182 2 20.0853 10.9086 0.863128 20.0853 10.9086 0.863128
183 2 20.0404 10.8991 -2.39857 20.0404 10.8991 -2.39857
184 1 21.0135 12.5507 -0.785682 21.0135 12.5507 -0.785682
185 2 22.8997 12.5463 0.863866 22.8997 12.5463 0.863866
186 2 22.9307 12.5553 -2.39798 22.9307 12.5553 -2.39798
187 1 23.8663 10.9041 -0.762385 23.8663 10.9041 -0.762385
188 2 25.7201 10.9006 0.923398 25.7201 10.9006 0.923398
189 2 25.8143 10.9076 -2.33726 25.8143 10.9076 -2.33726
190 1 26.7174 12.551 -0.67589 26.7174 12.551 -0.67589
191 2 28.5397 12.5395 1.04384 28.5397 12.5395 1.04384
192 2 28.6941 12.5624 -2.21449 28.6941 12.5624 -2.21449
193 1 29.5671 10.9042 -0.551782 29.5671 10.9042 -0.551782
194 2 31.3701 10.8966 1.18797 31.3701 10.8966 1.18797
195 2 31.5606 10.9117 -2.06854 31.5606 10.9117 -2.06854
196 1 32.4139 12.5507 -0.377058 32.4139 12.5507 -0.377058
197 2 34.2084 12.5378 1.37107 34.2084 12.5378 1.37107
198 2 34.4144 12.5634 -1.88449 34.4144 12.5634 -1.88449
199 1 35.2608 10.904 -0.209687 35.2608 10.904 -0.209687
200 2 37.0598 10.8981 1.53359 37.0598 10.8981 1.53359
201 2 37.2572 10.9097 -1.72264 37.2572 10.9097 -1.72264
202 1 38.107 12.5503 -0.0310829 38.107 12.5503 -0.0310829
203 2 39.925 12.5421 1.69195 39.925 12.5421 1.69195
204 2 40.0864 12.5585 -1.56629 40.0864 12.5585 -1.56629
205 1 40.9556 10.9039 0.101372 40.9556 10.9039 0.101372
206 2 42.7989 10.9048 1.79707 42.7989 10.9048 1.79707
207 2 42.912 10.9032 -1.46329 42.912 10.9032 -1.46329
208 1 43.8053 12.5504 0.19896 43.8053 12.5504 0.19896
209 2 45.6845 12.5507 1.85468 45.6845 12.5507 1.85468
210 2 45.7278 12.5505 -1.40737 45.7278 12.5505 -1.40737
211 1 46.6568 10.9044 0.236122 46.6568 10.9044 0.236122
212 2 48.5686 10.914 1.85395 48.5686 10.914 1.85395
213 2 48.547 10.8951 -1.40826 48.547 10.8951 -1.40826
214 1 49.5081 12.551 0.206837 49.5081 12.551 0.206837
215 2 51.4547 12.5599 1.78254 51.4547 12.5599 1.78254
216 2 51.362 12.5423 -1.47842 51.362 12.5423 -1.47842
217 1 1.07186 14.1975 0.116005 1.07186 14.1975 0.116005
218 2 3.04634 14.2044 1.65668 3.04634 14.2044 1.65668
219 2 2.8954 14.1907 -1.60209 2.8954 14.1907 -1.60209
220 1 3.91982 15.844 -0.0238462 3.91982 15.844 -0.0238462
221 2 5.91193 15.8474 1.49414 5.91193 15.8474 1.49414
222 2 5.72358 15.8406 -1.76265 5.72358 15.8406 -1.76265
223 1 6.76709 14.1976 -0.185936 6.76709 14.1976 -0.185936
224 2 8.76389 14.2069 1.32609 8.76389 14.2069 1.32609
225 2 8.56562 14.188 -1.93001 8.56562 14.188 -1.93001
226 1 9.61295 15.844 -0.369517 9.61295 15.844 -0.369517
227 2 11.6037 15.847 1.15092 11.6037 15.847 1.15092
228 2 11.4188 15.8409 -2.10595 11.4188 15.8409 -2.10595
229 1 12.4607 14.1973 -0.52838 12.4607 14.1973 -0.52838
230 2 14.4361 14.2022 1.01224 14.4361 14.2022 1.01224
231 2 14.2841 14.1922 -2.24628 14.2841 14.1922 -2.24628
232 1 15.3095 15.844 -0.66655 15.3095 15.844 -0.66655
233 2 17.2576 15.8405 0.908901 17.2576 15.8405 0.908901
234 2 17.1631 15.8476 -2.35176 17.1631 15.8476 -2.35176
235 1 18.1609 14.1973 -0.752478 18.1609 14.1973 -0.752478
236 2 20.0795 14.1933 0.859096 20.0795 14.1933 0.859096
237 2 20.0456 14.2015 -2.40274 20.0456 14.2015 -2.40274
238 1 21.0133 15.8443 -0.777594 21.0133 15.8443 -0.777594
239 2 22.8942 15.8317 0.877889 22.8942 15.8317 0.877889
240 2 22.9355 15.8569 -2.38378 22.9355 15.8569 -2.38378
241 1 23.8659 14.1977 -0.753473 23.8659 14.1977 -0.753473
242 2 25.7152 14.1847 0.937224 25.7152 14.1847 0.937224
243 2 25.818 14.2106 -2.32309 25.818 14.2106 -2.32309
244 1 26.7166 15.8444 -0.649813 26.7166 15.8444 -0.649813
245 2 28.5357 15.8247 1.07322 28.5357 15.8247 1.07322
246 2 28.6961 15.8639 -2.18469 28.6961 15.8639 -2.18469
247 1 29.5661 14.1976 -0.528673 29.5661 14.1976 -0.528673
248 2 31.3676 14.1799 1.21248 31.3676 14.1799 1.21248
249 2 31.5608 14.215 -2.04373 31.5608 14.215 -2.04373
250 1 32.4126 15.8438 -0.341469 32.4126 15.8438 -0.341469
251 2 34.2076 15.8223 1.40605 34.2076 15.8223 1.40605
252 2 34.4126 15.8651 -1.8494 34.4126 15.8651 -1.8494
253 1 35.2596 14.197 -0.183617 35.2596 14.197 -0.183617
254 2 37.0609 14.1808 1.55716 37.0609 14.1808 1.55716
255 2 37.254 14.2129 -1.69919 37.254 14.2129 -1.69919
256 1 38.1058 15.8431 0.00153933 38.1058 15.8431 0.00153933
257 2 39.9278 15.8256 1.72041 39.9278 15.8256 1.72041
258 2 40.0819 15.8606 -1.53802 40.0819 15.8606 -1.53802
259 1 40.9548 14.1966 0.118209 40.9548 14.1966 0.118209
260 2 42.8029 14.1874 1.80869 42.8029 14.1874 1.80869
261 2 42.9069 14.2061 -1.45192 42.9069 14.2061 -1.45192
262 1 43.8048 15.843 0.218096 43.8048 15.843 0.218096
263 2 45.6891 15.8332 1.8679 45.6891 15.8332 1.8679
264 2 45.7224 15.8532 -1.3942 45.7224 15.8532 -1.3942
265 1 46.6564 14.197 0.236078 46.6564 14.197 0.236078
266 2 48.5732 14.1966 1.84806 48.5732 14.1966 1.84806
267 2 48.5416 14.1977 -1.41413 48.5416 14.1977 -1.41413
268 1 49.5076 15.8435 0.208207 49.5076 15.8435 0.208207
269 2 51.4587 15.8417 1.77843 51.4587 15.8417 1.77843
270 2 51.3568 15.8457 -1.4823 51.3568 15.8457 -1.4823
271 1 1.07138 17.4902 0.120229 1.07138 17.4902 0.120229
272 2 3.0494 17.4857 1.65641 3.0494 17.4857 1.65641
273 2 2.89107 17.4948 -1.60201 2.89107 17.4948 -1.60201
274 1 3.91936 19.1368 -0.014556 3.91936 19.1368 -0.014556
275 2 5.91389 19.1287 1.50029 5.91389 19.1287 1.50029
276 2 5.72044 19.145 -1.75616 5.72044 19.145 -1.75616
277 1 6.76618 17.4906 -0.192803 6.76618 17.4906 -0.192803
278 2 8.76367 17.489 1.31839 8.76367 17.489 1.31839
279 2 8.56398 17.492 -1.93766 8.56398 17.492 -1.93766
280 1 9.61226 19.1373 -0.366481 9.61226 19.1373 -0.366481
281 2 11.6024 19.13 1.15473 11.6024 19.13 1.15473
282 2 11.4188 19.1444 -2.10218 11.4188 19.1444 -2.10218
283 1 12.4599 17.4907 -0.534642 12.4599 17.4907 -0.534642
284 2 14.4325 17.4864 1.00969 14.4325 17.4864 1.00969
285 2 14.2865 17.4949 -2.24911 14.2865 17.4949 -2.24911
286 1 15.3091 19.1375 -0.658037 15.3091 19.1375 -0.658037
287 2 17.2537 19.1262 0.921694 17.2537 19.1262 0.921694
288 2 17.1663 19.1487 -2.33911 17.1663 19.1487 -2.33911
289 1 18.1606 17.4909 -0.745468 18.1606 17.4909 -0.745468
290 2 20.0743 17.4793 0.871902 20.0743 17.4793 0.871902
291 2 20.0502 17.5025 -2.38997 20.0502 17.5025 -2.38997
292 1 21.013 19.1377 -0.7543 21.013 19.1377 -0.7543
293 2 22.8895 19.1196 0.906129 22.8895 19.1196 0.906129
294 2 22.9394 19.1557 -2.35536 22.9394 19.1557 -2.35536
295 1 23.8654 17.4911 -0.728107 23.8654 17.4911 -0.728107
296 2 25.7104 17.4717 0.967224 25.7104 17.4717 0.967224
297 2 25.8214 17.5104 -2.29273 25.8214 17.5104 -2.29273
298 1 26.7158 19.1375 -0.610678 26.7158 19.1375 -0.610678
299 2 28.532 19.1136 1.11533 28.532 19.1136 1.11533
300 2 28.6977 19.1612 -2.14223 28.6977 19.1612 -2.14223
301 1 29.5649 17.4907 -0.489061 29.5649 17.4907 -0.489061
302 2 31.365 17.4667 1.2535 31.365 17.4667 1.2535
303 2 31.5608 17.5144 -2.00241 31.5608 17.5144 -2.00241
304 1 32.4112 19.1367 -0.293126 32.4112 19.1367 -0.293126
305 2 34.2065 19.1107 1.45403 34.2065 19.1107 1.45403
306 2 34.4109 19.1623 -1.80132 34.4109 19.1623 -1.80132
307 1 35.2582 17.4898 -0.140171 35.2582 17.4898 -0.140171
308 2 37.0617 17.4666 1.59822 37.0617 17.4666 1.59822
309 2 37.2506 17.5129 -1.65818 37.2506 17.5129 -1.65818
310 1 38.1046 19.1358 0.0485899 38.1046 19.1358 0.0485899
311 2 39.9299 19.1122 1.76397 39.9299 19.1122 1.76397
312 2 40.0779 19.1594 -1.49456 40.0779 19.1594 -1.49456
313 1 40.954 17.4893 0.153834 40.954 17.4893 0.153834
314 2 42.8067 17.4713 1.83924 42.8067 17.4713 1.83924
315 2 42.9019 17.5074 -1.42145 42.9019 17.5074 -1.42145
316 1 43.8043 19.1356 0.254845 43.8043 19.1356 0.254845
317 2 45.6932 19.1172 1.89948 45.6932 19.1172 1.89948
318 2 45.7176 19.1543 -1.36249 45.7176 19.1543 -1.36249
319 1 46.6561 17.4895 0.256557 46.6561 17.4895 0.256557
320 2 48.5777 17.4787 1.86272 48.5777 17.4787 1.86272
321 2 48.5364 17.5007 -1.39926 48.5364 17.5007 -1.39926
322 1 49.5074 19.1361 0.230653 49.5074 19.1361 0.230653
323 2 51.4626 19.1235 1.79576 51.4626 19.1235 1.79576
324 2 51.3524 19.149 -1.46456 51.3524 19.149 -1.46456
325 1 1.07131 20.7828 0.146144 1.07131 20.7828 0.146144
326 2 3.05253 20.7677 1.67824 3.05253 20.7677 1.67824
327 2 2.8876 20.7982 -1.57969 2.8876 20.7982 -1.57969
328 1 3.91946 22.4295 0.0164489 3.91946 22.4295 0.0164489
329 2 5.91633 22.4114 1.52824 5.91633 22.4114 1.52824
330 2 5.71804 22.4479 -1.72772 5.71804 22.4479 -1.72772
331 1 6.76586 20.7836 -0.176267 6.76586 20.7836 -0.176267
332 2 8.76473 20.7712 1.33312 8.76473 20.7712 1.33312
333 2 8.56215 20.7959 -1.92265 8.56215 20.7959 -1.92265
334 1 9.61218 22.4304 -0.34144 9.61218 22.4304 -0.34144
335 2 11.603 22.414 1.17888 11.603 22.414 1.17888
336 2 11.4179 22.4467 -2.07783 11.4179 22.4467 -2.07783
337 1 12.4596 20.7841 -0.520044 12.4596 20.7841 -0.520044
338 2 14.4308 20.7712 1.026 14.4308 20.7712 1.026
339 2 14.2876 20.7967 -2.23285 14.2876 20.7967 -2.23285
340 1 15.309 22.4308 -0.632272 15.309 22.4308 -0.632272
341 2 17.2521 22.4136 0.949348 17.2521 22.4136 0.949348
342 2 17.1678 22.4478 -2.31148 17.1678 22.4478 -2.31148
343 1 18.1605 20.7843 -0.722809 18.1605 20.7843 -0.722809
344 2 20.0707 20.7674 0.898544 20.0707 20.7674 0.898544
345 2 20.0534 20.8011 -2.36331 20.0534 20.8011 -2.36331
346 1 21.0128 22.4309 -0.720285 21.0128 22.4309 -0.720285
347 2 22.8865 22.4104 0.943264 22.8865 22.4104 0.943264
348 2 22.9417 22.4511 -2.31813 22.9417 22.4511 -2.31813
349 1 23.8649 20.7842 -0.691739 23.8649 20.7842 -0.691739
350 2 25.7066 20.7619 1.00721 25.7066 20.7619 1.00721
351 2 25.8239 20.8063 -2.25249 25.8239 20.8063 -2.25249
352 1 26.7151 22.4304 -0.565795 26.7151 22.4304 -0.565795
353 2 28.5292 22.4063 1.16237 28.5292 22.4063 1.16237
354 2 28.6987 22.4541 -2.09503 28.6987 22.4541 -2.09503
355 1 29.5638 20.7836 -0.440933 29.5638 20.7836 -0.440933
356 2 31.3626 20.7577 1.30293 31.3626 20.7577 1.30293
357 2 31.5607 20.8091 -1.9528 31.5607 20.8091 -1.9528
358 1 32.41 22.4294 -0.241002 32.41 22.4294 -0.241002
359 2 34.2053 22.4036 1.50618 34.2053 22.4036 1.50618
360 2 34.4097 22.455 -1.74917 34.4097 22.455 -1.74917
361 1 35.2568 20.7825 -0.0878351 35.2568 20.7825 -0.0878351
362 2 37.0619 20.7564 1.64896 37.0619 20.7564 1.64896
363 2 37.248 20.8085 -1.60749 37.248 20.8085 -1.60749
364 1 38.1036 22.4284 0.101377 38.1036 22.4284 0.101377
365 2 39.9309 22.4031 1.81469 39.9309 22.4031 1.81469
366 2 40.0752 22.4538 -1.44389 40.0752 22.4538 -1.44389
367 1 40.9532 20.7819 0.201704 40.9532 20.7819 0.201704
368 2 42.8094 20.7585 1.88333 42.8094 20.7585 1.88333
369 2 42.898 20.8055 -1.37735 42.898 20.8055 -1.37735
370 1 43.8039 22.4281 0.30253 43.8039 22.4281 0.30253
371 2 45.6958 22.4047 1.94382 45.6958 22.4047 1.94382
372 2 45.7146 22.4519 -1.31799 45.7146 22.4519 -1.31799
373 1 46.6559 20.782 0.294259 46.6559 20.782 0.294259
374 2 48.5814 20.7627 1.8958 48.5814 20.7627 1.8958
375 2 48.5324 20.8017 -1.36585 48.5324 20.8017 -1.36585
376 1 49.5075 22.4286 0.270232 49.5075 22.4286 0.270232
377 2 51.4657 22.4078 1.83161 51.4657 22.4078 1.83161
378 2 51.3494 22.4499 -1.42827 51.3494 22.4499 -1.42827
379 1 1.07165 24.0753 0.18887 1.07165 24.0753 0.18887
380 2 3.05509 24.0524 1.71817 3.05509 24.0524 1.71817
381 2 2.88572 24.0985 -1.53931 2.88572 24.0985 -1.53931
382 1 3.9201 25.7221 0.0632022 3.9201 25.7221 0.0632022
383 2 5.91864 25.6974 1.57282 5.91864 25.6974 1.57282
384 2 5.71694 25.7472 -1.68272 5.71694 25.7472 -1.68272
385 1 6.7662 24.0764 -0.139214 6.7662 24.0764 -0.139214
386 2 8.76681 24.0554 1.36784 8.76681 24.0554 1.36784
387 2 8.56055 24.0975 -1.88753 8.56055 24.0975 -1.88753
388 1 9.61271 25.7232 -0.298768 9.61271 25.7232 -0.298768
389 2 11.6051 25.7005 1.21938 11.6051 25.7005 1.21938
390 2 11.4166 25.746 -2.037 11.4166 25.746 -2.037
391 1 12.4597 24.0772 -0.486914 12.4597 24.0772 -0.486914
392 2 14.4313 24.0579 1.05856 14.4313 24.0579 1.05856
393 2 14.2872 24.0964 -2.20015 14.2872 24.0964 -2.20015
394 1 15.3092 25.7239 -0.593261 15.3092 25.7239 -0.593261
395 2 17.2528 25.7033 0.987615 17.2528 25.7033 0.987615
396 2 17.1672 25.7442 -2.27315 17.1672 25.7442 -2.27315
397 1 18.1604 24.0774 -0.688278 18.1604 24.0774 -0.688278
398 2 20.0693 24.0577 0.934559 20.0693 24.0577 0.934559
399 2 20.0545 24.0968 -2.3273 20.0545 24.0968 -2.3273
400 1 21.0127 25.7238 -0.68077 21.0127 25.7238 -0.68077
401 2 22.8857 25.7038 0.983531 22.8857 25.7038 0.983531
402 2 22.9421 25.7434 -2.27792 22.9421 25.7434 -2.27792
403 1 23.8646 24.0771 -0.650551 23.8646 24.0771 -0.650551
404 2 25.7044 24.0554 1.05039 25.7044 24.0554 1.05039
405 2 25.8251 24.0985 -2.20925 25.8251 24.0985 -2.20925
406 1 26.7146 25.7231 -0.522227 26.7146 25.7231 -0.522227
407 2 28.5279 25.7025 1.20681 28.5279 25.7025 1.20681
408 2 28.6988 25.7433 -2.05065 28.6988 25.7433 -2.05065
409 1 29.5629 24.0763 -0.392549 29.5629 24.0763 -0.392549
410 2 31.3609 24.0527 1.35222 31.3609 24.0527 1.35222
411 2 31.5605 24.0996 -1.90351 31.5605 24.0996 -1.90351
412 1 32.4092 25.7221 -0.193584 32.4092 25.7221 -0.193584
413 2 34.2044 25.7006 1.55383 34.2044 25.7006 1.55383
414 2 34.4091 25.7435 -1.70162 34.4091 25.7435 -1.70162
415 1 35.2558 24.0752 -0.0358046 35.2558 24.0752 -0.0358046
416 2 37.0616 24.0508 1.70042 37.0616 24.0508 1.70042
417 2 37.2466 24.0996 -1.55612 37.2466 24.0996 -1.55612
418 1 38.1029 25.7213 0.150848 38.1029 25.7213 0.150848
419 2 39.9307 25.6985 1.86374 39.9307 25.6985 1.86374
420 2 40.0743 25.7441 -1.39491 40.0743 25.7441 -1.39491
421 1 40.9525 24.0746 0.253158 40.9525 24.0746 0.253158
422 2 42.8105 24.05 1.933 42.8105 24.05 1.933
423 2 42.8961 24.0993 -1.32766 42.8961 24.0993 -1.32766
424 1 43.8036 25.7209 0.352472 43.8036 25.7209 0.352472
425 2 45.6965 25.6967 1.99277 45.6965 25.6967 1.99277
426 2 45.7136 25.7453 -1.26895 45.7136 25.7453 -1.26895
427 1 46.6559 24.0746 0.342152 46.6559 24.0746 0.342152
428 2 48.5836 24.0505 1.94119 48.5836 24.0505 1.94119
429 2 48.5305 24.099 -1.3202 48.5305 24.099 -1.3202
430 1 49.5078 25.7212 0.319346 49.5078 25.7212 0.319346
431 2 51.4674 25.6961 1.87915 51.4674 25.6961 1.87915
432 2 51.3486 25.7466 -1.38045 51.3486 25.7466 -1.38045
433 1 1.07231 27.3679 0.240089 1.07231 27.3679 0.240089
434 2 3.05652 27.3417 1.76852 3.05652 27.3417 1.76852
435 2 2.88581 27.3945 -1.48873 2.88581 27.3945 -1.48873
436 1 3.92111 29.0147 0.116661 3.92111 29.0147 0.116661
437 2 5.92023 28.988 1.62561 5.92023 28.988 1.62561
438 2 5.71747 29.0419 -1.62978 5.71747 29.0419 -1.62978
439 1 6.76711 27.369 -0.088644 6.76711 27.369 -0.088644
440 2 8.76932 27.3432 1.41628 8.76932 27.3432 1.41628
441 2 8.55967 27.3951 -1.83873 8.55967 27.3951 -1.83873
442 1 9.61377 29.0159 -0.246141 9.61377 29.0159 -0.246141
443 2 11.6082 28.9907 1.26932 11.6082 28.9907 1.26932
444 2 11.4153 29.0414 -1.98675 11.4153 29.0414 -1.98675
445 1 12.4603 27.37 -0.440722 12.4603 27.37 -0.440722
446 2 14.4338 27.3472 1.10227 14.4338 27.3472 1.10227
447 2 14.2856 27.3928 -2.15621 14.2856 27.3928 -2.15621
448 1 15.3098 29.0166 -0.546983 15.3098 29.0166 -0.546983
449 2 17.2557 28.9957 1.03085 17.2557 28.9957 1.03085
450 2 17.165 29.0373 -2.22983 17.165 29.0373 -2.22983
451 1 18.1606 27.3703 -0.646914 18.1606 27.3703 -0.646914
452 2 20.0705 27.3506 0.974713 20.0705 27.3506 0.974713
453 2 20.0535 27.3896 -2.2872 20.0535 27.3896 -2.2872
454 1 21.0128 29.0164 -0.641245 21.0128 29.0164 -0.641245
455 2 22.8873 28.9998 1.02126 22.8873 28.9998 1.02126
456 2 22.9404 29.0326 -2.24037 22.9404 29.0326 -2.24037
457 1 23.8644 27.3698 -0.610508 23.8644 27.3698 -0.610508
458 2 25.7043 27.3518 1.09035 25.7043 27.3518 1.09035
459 2 25.8247 27.3874 -2.16945 25.8247 27.3874 -2.16945
460 1 26.7145 29.0157 -0.486171 26.7145 29.0157 -0.486171
461 2 28.5284 29.0016 1.24216 28.5284 29.0016 1.24216
462 2 28.6979 29.0295 -2.01555 28.6979 29.0295 -2.01555
463 1 29.5625 27.3689 -0.35122 29.5625 27.3689 -0.35122
464 2 31.3603 27.3513 1.39373 31.3603 27.3513 1.39373
465 2 31.5601 27.3864 -1.86215 31.5601 27.3864 -1.86215
466 1 32.4089 29.0149 -0.158006 32.4089 29.0149 -0.158006
467 2 34.2041 29.001 1.58957 34.2041 29.001 1.58957
468 2 34.4089 29.0287 -1.66604 34.4089 29.0287 -1.66604
469 1 35.2553 27.3681 0.00759148 35.2553 27.3681 0.00759148
470 2 37.0609 27.3493 1.74411 37.0609 27.3493 1.74411
471 2 37.2462 27.3869 -1.51253 37.2462 27.3869 -1.51253
472 1 38.1026 29.0143 0.188951 38.1026 29.0143 0.188951
473 2 39.9296 28.998 1.90285 39.9296 28.998 1.90285
474 2 40.0748 29.0307 -1.35583 40.0748 29.0307 -1.35583
475 1 40.9522 27.3675 0.299322 40.9522 27.3675 0.299322
476 2 42.81 27.3461 1.97948 42.81 27.3461 1.97948
477 2 42.896 27.389 -1.2812 42.896 27.389 -1.2812
478 1 43.8035 29.0139 0.395808 43.8035 29.0139 0.395808
479 2 45.6955 28.9935 2.03742 45.6955 28.9935 2.03742
480 2 45.7148 29.0345 -1.22432 45.7148 29.0345 -1.22432
481 1 46.656 27.3674 0.39133 46.656 27.3674 0.39133
482 2 48.5839 27.3431 1.99034 48.5839 27.3431 1.99034
483 2 48.5307 27.3919 -1.27097 48.5307 27.3919 -1.27097
484 1 49.5083 29.014 0.368659 49.5083 29.014 0.368659
485 2 51.4674 28.9894 1.92929 51.4674 28.9894 1.92929
486 2 51.3499 29.0388 -1.33031 51.3499 29.0388 -1.33031
487 1 1.07311 30.6607 0.29001 1.07311 30.6607 0.29001
488 2 3.05646 30.6361 1.81975 3.05646 30.6361 1.81975
489 2 2.88782 30.6856 -1.43761 2.88782 30.6856 -1.43761
490 1 3.92225 32.3075 0.166814 3.92225 32.3075 0.166814
491 2 5.92067 32.2836 1.67685 5.92067 32.2836 1.67685
492 2 5.71956 32.3318 -1.57871 5.71956 32.3318 -1.57871
493 1 6.76838 30.6616 -0.034049 6.76838 30.6616 -0.034049
494 2 8.77155 30.6356 1.46966 8.77155 30.6356 1.46966
495 2 8.55989 30.688 -1.78521 8.55989 30.688 -1.78521
496 1 9.61513 32.3085 -0.192986 9.61513 32.3085 -0.192986
497 2 11.6114 32.2851 1.32006 11.6114 32.2851 1.32006
498 2 11.4145 32.3323 -1.93584 11.4145 32.3323 -1.93584
499 1 12.4613 30.6627 -0.389247 12.4613 30.6627 -0.389247
500 2 14.4376 30.64 1.15012 14.4376 30.64 1.15012
501 2 14.2833 30.6854 -2.10813 14.2833 30.6854 -2.10813
502 1 15.3105 32.3092 -0.500832 15.3105 32.3092 -0.500832
503 2 17.2602 32.2913 1.07237 17.2602 32.2913 1.07237
504 2 17.1616 32.327 -2.1882 17.1616 32.327 -2.1882
505 1 18.1609 30.6629 -0.604707 18.1609 30.6629 -0.604707
506 2 20.0739 30.6461 1.01328 20.0739 30.6461 1.01328
507 2 20.0505 30.6794 -2.24872 20.0505 30.6794 -2.24872
508 1 21.013 32.309 -0.607405 21.013 32.309 -0.607405
509 2 22.8911 32.2981 1.05099 22.8911 32.2981 1.05099
510 2 22.9369 32.3193 -2.2109 22.9369 32.3193 -2.2109
511 1 23.8645 30.6623 -0.57715 23.8645 30.6623 -0.57715
512 2 25.7064 30.6507 1.12142 25.7064 30.6507 1.12142
513 2 25.8226 30.6736 -2.13868 25.8226 30.6736 -2.13868
514 1 26.7146 32.3083 -0.462813 26.7146 32.3083 -0.462813
515 2 28.5308 32.3028 1.26321 28.5308 32.3028 1.26321
516 2 28.6959 32.3135 -1.99484 28.6959 32.3135 -1.99484
517 1 29.5625 30.6616 -0.322915 29.5625 30.6616 -0.322915
518 2 31.3611 30.6525 1.42127 31.3611 30.6525 1.42127
519 2 31.5593 30.6706 -1.83486 31.5593 30.6706 -1.83486
520 1 32.4092 32.3078 -0.139623 32.4092 32.3078 -0.139623
521 2 34.2045 32.3038 1.60787 34.2045 32.3038 1.60787
522 2 34.409 32.3119 -1.64787 34.409 32.3119 -1.64787
523 1 35.2553 30.6611 0.0356395 35.2553 30.6611 0.0356395
524 2 37.0602 30.651 1.77303 37.0602 30.651 1.77303
525 2 37.2469 30.6713 -1.48367 37.2469 30.6713 -1.48367
526 1 38.1028 32.3076 0.209483 38.1028 32.3076 0.209483
527 2 39.928 32.3005 1.92542 39.928 32.3005 1.92542
528 2 40.0767 32.3147 -1.33321 40.0767 32.3147 -1.33321
529 1 40.9521 30.6607 0.332371 40.9521 30.6607 0.332371
530 2 42.8083 30.6464 2.01461 42.8083 30.6464 2.01461
531 2 42.8977 30.6751 -1.24608 42.8977 30.6751 -1.24608
532 1 43.8036 32.3073 0.424827 43.8036 32.3073 0.424827
533 2 45.693 32.2943 2.06963 45.693 32.2943 2.06963
534 2 45.7176 32.3202 -1.19218 45.7176 32.3202 -1.19218
535 1 46.6561 30.6605 0.43276 46.6561 30.6605 0.43276
536 2 48.5824 30.6405 2.03407 48.5824 30.6405 2.03407
537 2 48.5329 30.6805 -1.22735 48.5329 30.6805 -1.22735
538 1 49.5087 32.3071 0.408964 49.5087 32.3071 0.408964
539 2 51.4656 32.2876 1.97264 51.4656 32.2876 1.97264