ITEM: TIMESTEP
32000
ITEM: NUMBER OF ATOMS
810
ITEM: BOX BOUNDS pp pp pp
8.4577159396992585e-01 5.2171833406029137e+01
8.1057981550414948e-01 5.0205635184495414e+01
-1.0000000000000000e+01 1.0000000000000000e+01
ITEM: ATOMS id type x y z xu yu zu
1 1 1.0496 1.02489 -0.291906 1.0496 1.02489 -0.291906
2 2 2.92049 1.02164 1.37411 2.92049 1.02164 1.37411
3 2 2.98046 1.02813 -1.88752 2.98046 1.02813 -1.88752
4 1 3.90091 2.67136 -0.235871 3.90091 2.67136 -0.235871
5 2 5.76658 2.66875 1.43593 5.76658 2.66875 1.43593
6 2 5.83673 2.67398 -1.8255 5.83673 2.67398 -1.8255
7 1 6.75203 1.02484 -0.176913 6.75203 1.02484 -0.176913
8 2 8.61695 1.02108 1.49564 8.61695 1.02108 1.49564
9 2 8.68855 1.02861 -1.76575 8.68855 1.02861 -1.76575
10 1 9.60311 2.67133 -0.110341 9.60311 2.67133 -0.110341
11 2 11.4715 2.66802 1.55831 11.4715 2.66802 1.55831
12 2 11.5364 2.67465 -1.70322 11.5364 2.67465 -1.70322
13 1 12.4543 1.0248 -0.0568617 12.4543 1.0248 -0.0568617
14 2 14.3304 1.0203 1.60306 14.3304 1.0203 1.60306
15 2 14.3803 1.02932 -1.65872 14.3803 1.02932 -1.65872
16 1 15.3058 2.6713 -0.00874302 15.3058 2.6713 -0.00874302
17 2 17.192 2.66688 1.63957 17.192 2.66688 1.63957
18 2 17.2219 2.67573 -1.62246 17.2219 2.67573 -1.62246
19 1 18.1575 1.02479 0.0127668 18.1575 1.02479 0.0127668
20 2 20.0558 1.0197 1.64706 20.0558 1.0197 1.64706
21 2 20.0616 1.0299 -1.6151 20.0616 1.0299 -1.6151
22 1 21.0093 2.67129 0.0227872 21.0093 2.67129 0.0227872
23 2 22.9197 2.66588 1.64295 22.9197 2.66588 1.64295
24 2 22.9014 2.67673 -1.61916 22.9014 2.67673 -1.61916
25 1 23.8611 1.02481 0.000996481 23.8611 1.02481 0.000996481
26 2 25.7825 1.01958 1.60793 25.7825 1.01958 1.60793
27 2 25.7417 1.03007 -1.65398 25.7417 1.03007 -1.65398
28 1 26.7127 2.67133 -0.0296694 26.7127 2.67133 -0.0296694
29 2 28.6429 2.6655 1.56667 28.6429 2.6655 1.56667
30 2 28.5842 2.67718 -1.69496 28.5842 2.67718 -1.69496
31 1 29.564 1.02487 -0.0872618 29.564 1.02487 -0.0872618
32 2 31.4995 1.02006 1.50273 31.4995 1.02006 1.50273
33 2 31.43 1.02971 -1.7587 31.43 1.02971 -1.7587
34 1 32.4151 2.6714 -0.143413 32.4151 2.6714 -0.143413
35 2 34.3522 2.66596 1.44477 34.3522 2.66596 1.44477
36 2 34.2795 2.67686 -1.81659 34.2795 2.67686 -1.81659
37 1 35.2662 1.02494 -0.21267 35.2662 1.02494 -0.21267
38 2 37.1999 1.02084 1.37964 37.1999 1.02084 1.37964
39 2 37.134 1.02902 -1.88187 37.134 1.02902 -1.88187
40 1 38.1174 2.67146 -0.266187 38.1174 2.67146 -0.266187
41 2 40.0443 2.66695 1.33447 40.0443 2.66695 1.33447
42 2 39.9924 2.67595 -1.92729 39.9924 2.67595 -1.92729
43 1 40.9688 1.02496 -0.316104 40.9688 1.02496 -0.316104
44 2 42.8851 1.02151 1.2974 42.8851 1.02151 1.2974
45 2 42.8548 1.02839 -1.96464 42.8548 1.02839 -1.96464
46 1 43.8205 2.67146 -0.338918 43.8205 2.67146 -0.338918
47 2 45.7248 2.66806 1.28885 45.7248 2.66806 1.28885
48 2 45.7187 2.67482 -1.97332 45.7187 2.67482 -1.97332
49 1 46.6723 1.02494 -0.347373 46.6723 1.02494 -0.347373
50 2 48.5636 1.02182 1.29548 48.5636 1.02182 1.29548
51 2 48.5834 1.02803 -1.96664 48.5834 1.02803 -1.96664
52 1 49.5241 2.67141 -0.326589 49.5241 2.67141 -0.326589
53 2 51.404 2.66876 1.3293 51.404 2.66876 1.3293
54 2 51.4463 2.67403 -1.93261 51.4463 2.67403 -1.93261
55 1 1.04962 4.31787 -0.286566 1.04962 4.31787 -0.286566
56 2 2.92068 4.31614 1.37925 2.92068 4.31614 1.37925
57 2 2.98029 4.3196 -1.88239 2.98029 4.3196 -1.88239
58 1 3.90094 5.96434 -0.232364 3.90094 5.96434 -0.232364
59 2 5.76675 5.96372 1.43929 5.76675 5.96372 1.43929
60 2 5.83663 5.96498 -1.82215 5.83663 5.96498 -1.82215
61 1 6.75203 4.31784 -0.171628 6.75203 4.31784 -0.171628
62 2 8.61673 4.31597 1.5012 8.61673 4.31597 1.5012
63 2 8.68878 4.31973 -1.76019 8.68878 4.31973 -1.76019
64 1 9.60314 5.96434 -0.10655 9.60314 5.96434 -0.10655
65 2 11.4711 5.96312 1.56261 11.4711 5.96312 1.56261
66 2 11.5368 5.96558 -1.69891 11.5368 5.96558 -1.69891
67 1 12.4543 4.31782 -0.0501733 12.4543 4.31782 -0.0501733
68 2 14.3299 4.31484 1.61033 14.3299 4.31484 1.61033
69 2 14.3807 4.32082 -1.65144 14.3807 4.32082 -1.65144
70 1 15.3058 5.96433 -0.00271206 15.3058 5.96433 -0.00271206
71 2 17.1912 5.96145 1.64649 17.1912 5.96145 1.64649
72 2 17.2226 5.96721 -1.61553 17.2226 5.96721 -1.61553
73 1 18.1575 4.3178 0.0217107 18.1575 4.3178 0.0217107
74 2 20.0553 4.31324 1.65655 20.0553 4.31324 1.65655
75 2 20.0621 4.32237 -1.6056 20.0621 4.32237 -1.6056
76 1 21.0094 5.96431 0.0320094 21.0094 5.96431 0.0320094
77 2 22.919 5.95945 1.65296 22.919 5.95945 1.65296
78 2 22.9021 5.96917 -1.60916 22.9021 5.96917 -1.60916
79 1 23.8611 4.3178 0.0119865 23.8611 4.3178 0.0119865
80 2 25.7824 4.31192 1.61911 25.7824 4.31192 1.61911
81 2 25.742 4.32371 -1.64279 25.742 4.32371 -1.64279
82 1 26.7128 5.96432 -0.0177385 26.7128 5.96432 -0.0177385
83 2 28.6428 5.95802 1.57886 28.6428 5.95802 1.57886
84 2 28.5845 5.97064 -1.68278 28.5845 5.97064 -1.68278
85 1 29.5641 4.31785 -0.0754144 29.5641 4.31785 -0.0754144
86 2 31.4999 4.31152 1.51423 31.4999 4.31152 1.51423
87 2 31.4298 4.32422 -1.74718 31.4298 4.32422 -1.74718
88 1 32.4153 5.96438 -0.130532 32.4153 5.96438 -0.130532
89 2 34.3527 5.95786 1.45716 34.3527 5.95786 1.45716
90 2 34.2792 5.97093 -1.80417 34.2792 5.97093 -1.80417
91 1 35.2663 4.31793 -0.201604 35.2663 4.31793 -0.201604
92 2 37.2006 4.31222 1.38994 37.2006 4.31222 1.38994
93 2 37.1335 4.32365 -1.87153 37.1335 4.32365 -1.87153
94 1 38.1175 5.96445 -0.254575 38.1175 5.96445 -0.254575
95 2 40.0453 5.95911 1.34499 40.0453 5.95911 1.34499
96 2 39.9916 5.96979 -1.91673 39.9916 5.96979 -1.91673
97 1 40.9689 4.31797 -0.30696 40.9689 4.31797 -0.30696
98 2 42.8859 4.3137 1.30565 42.8859 4.3137 1.30565
99 2 42.8541 4.3222 -1.95637 42.8541 4.3222 -1.95637
100 1 43.8206 5.96445 -0.330259 43.8206 5.96445 -0.330259
101 2 45.7259 5.96115 1.29625 45.7259 5.96115 1.29625
102 2 45.7177 5.9677 -1.96592 45.7177 5.9677 -1.96592
103 1 46.6724 4.31793 -0.340499 46.6724 4.31793 -0.340499
104 2 48.5642 4.31526 1.30167 48.5642 4.31526 1.30167
105 2 48.5828 4.32056 -1.96046 48.5828 4.32056 -1.96046
106 1 49.5241 5.96439 -0.32119 49.5241 5.96439 -0.32119
107 2 51.4048 5.96297 1.33385 51.4048 5.96297 1.33385
108 2 51.4456 5.96578 -1.92808 51.4456 5.96578 -1.92808
109 1 1.04965 7.61085 -0.283694 1.04965 7.61085 -0.283694
110 2 2.92143 7.61096 1.38132 2.92143 7.61096 1.38132
111 2 2.97964 7.61073 -1.88035 2.97964 7.61073 -1.88035
112 1 3.90101 9.25733 -0.232568 3.90101 9.25733 -0.232568
113 2 5.76729 9.25896 1.43857 5.76729 9.25896 1.43857
114 2 5.83624 9.25571 -1.82289 5.83624 9.25571 -1.82289
115 1 6.75209 7.61084 -0.170348 6.75209 7.61084 -0.170348
116 2 8.61669 7.61128 1.50259 8.61669 7.61128 1.50259
117 2 8.68893 7.61042 -1.75879 8.68893 7.61042 -1.75879
118 1 9.60321 9.25735 -0.107438 9.60321 9.25735 -0.107438
119 2 11.4707 9.25865 1.56225 11.4707 9.25865 1.56225
120 2 11.5373 9.25609 -1.69925 11.5373 9.25609 -1.69925
121 1 12.4544 7.61085 -0.04772 12.4544 7.61085 -0.04772
122 2 14.3292 7.61008 1.61366 14.3292 7.61008 1.61366
123 2 14.3815 7.61164 -1.6481 14.3815 7.61164 -1.6481
124 1 15.3058 9.25737 -0.00118146 15.3058 9.25737 -0.00118146
125 2 17.1902 9.25678 1.64929 17.1902 9.25678 1.64929
126 2 17.2238 9.25796 -1.6127 17.2238 9.25796 -1.6127
127 1 18.1575 7.61084 0.0275037 18.1575 7.61084 0.0275037
128 2 20.0544 7.60788 1.66353 20.0544 7.60788 1.66353
129 2 20.0631 7.6138 -1.59862 20.0631 7.6138 -1.59862
130 1 21.0094 9.25734 0.0379527 21.0094 9.25734 0.0379527
131 2 22.9179 9.2542 1.66031 22.9179 9.2542 1.66031
132 2 22.9033 9.26047 -1.60182 22.9033 9.26047 -1.60182
133 1 23.8612 7.61082 0.0218037 23.8612 7.61082 0.0218037
134 2 25.7817 7.60564 1.62985 25.7817 7.60564 1.62985
135 2 25.7428 7.61599 -1.63207 25.7428 7.61599 -1.63207
136 1 26.7129 9.25733 -0.00729284 26.7129 9.25733 -0.00729284
137 2 28.6422 9.25199 1.59021 28.6422 9.25199 1.59021
138 2 28.5854 9.26267 -1.67146 28.5854 9.26267 -1.67146
139 1 29.5642 7.61084 -0.0626349 29.5642 7.61084 -0.0626349
140 2 31.4999 7.60438 1.52715 31.4999 7.60438 1.52715
141 2 31.43 7.61733 -1.73425 31.43 7.61733 -1.73425
142 1 32.4154 9.25737 -0.117409 32.4154 9.25737 -0.117409
143 2 34.353 9.2512 1.47013 34.353 9.2512 1.47013
144 2 34.2792 9.26356 -1.7912 34.2792 9.26356 -1.7912
145 1 35.2664 7.61091 -0.18834 35.2664 7.61091 -0.18834
146 2 37.2015 7.60478 1.40238 37.2015 7.60478 1.40238
147 2 37.1329 7.61706 -1.85906 37.1329 7.61706 -1.85906
148 1 38.1176 9.25743 -0.242086 38.1176 9.25743 -0.242086
149 2 40.0465 9.25243 1.35617 40.0465 9.25243 1.35617
150 2 39.9906 9.26244 -1.90553 39.9906 9.26244 -1.90553
151 1 40.969 7.61095 -0.296086 40.969 7.61095 -0.296086
152 2 42.8872 7.60674 1.31501 42.8872 7.60674 1.31501
153 2 42.8529 7.61514 -1.94699 42.8529 7.61514 -1.94699
154 1 43.8206 9.25743 -0.321675 43.8206 9.25743 -0.321675
155 2 45.7275 9.25501 1.30299 45.7275 9.25501 1.30299
156 2 45.7161 9.25981 -1.95918 45.7161 9.25981 -1.95918
157 1 46.6724 7.61091 -0.333812 46.6724 7.61091 -0.333812
158 2 48.5655 7.60919 1.30687 48.5655 7.60919 1.30687
159 2 48.5816 7.61258 -1.95528 48.5816 7.61258 -1.95528
160 1 49.5242 9.25736 -0.317695 49.5242 9.25736 -0.317695
161 2 51.4061 9.25757 1.33586 51.4061 9.25757 1.33586
162 2 51.4443 9.25713 -1.92611 51.4443 9.25713 -1.92611
163 1 1.04971 10.9038 -0.28409 1.04971 10.9038 -0.28409
164 2 2.92259 10.906 1.37969 2.92259 10.906 1.37969
165 2 2.97863 10.9017 -1.88202 2.97863 10.9017 -1.88202
166 1 3.9011 12.5503 -0.236926 3.9011 12.5503 -0.236926
167 2 5.76807 12.5542 1.43344 5.76807 12.5542 1.43344
168 2 5.83568 12.5465 -1.82804 5.83568 12.5465 -1.82804
169 1 6.75219 10.9038 -0.173636 6.75219 10.9038 -0.173636
170 2 8.61686 10.9068 1.49924 8.61686 10.9068 1.49924
171 2 8.68896 10.9009 -1.76215 8.68896 10.9009 -1.76215
172 1 9.60333 12.5504 -0.113329 9.60333 12.5504 -0.113329
173 2 11.4703 12.5541 1.55686 11.4703 12.5541 1.55686
174 2 11.5379 12.5466 -1.70461 11.5379 12.5466 -1.70461
175 1 12.4545 10.9039 -0.0503463 12.4545 10.9039 -0.0503463
176 2 14.3283 10.9057 1.61206 14.3283 10.9057 1.61206
177 2 14.3825 10.9021 -1.64966 14.3825 10.9021 -1.64966
178 1 15.3059 12.5504 -0.00483816 15.3059 12.5504 -0.00483816
179 2 17.1889 12.5523 1.64713 17.1889 12.5523 1.64713
180 2 17.2251 12.5485 -1.61484 17.2251 12.5485 -1.61484
181 1 18.1576 10.9039 0.0286409 18.1576 10.9039 0.0286409
182 2 20.053 10.9033 1.66629 20.053 10.9033 1.66629
183 2 20.0645 10.9045 -1.59586 20.0645 10.9045 -1.59586
184 1 21.0094 12.5504 0.0391488 21.0094 12.5504 0.0391488
185 2 22.9164 12.5496 1.66332 22.9164 12.5496 1.66332
186 2 22.9049 12.5512 -1.59883 22.9049 12.5512 -1.59883
187 1 23.8612 10.9038 0.0281027 23.8612 10.9038 0.0281027
188 2 25.7805 10.9005 1.63766 25.7805 10.9005 1.63766
189 2 25.7441 10.9071 -1.6243 25.7441 10.9071 -1.6243
190 1 26.7129 12.5504 -0.000662273 26.7129 12.5504 -0.000662273
191 2 28.6411 12.547 1.59826 28.6411 12.547 1.59826
192 2 28.5867 12.5537 -1.66345 28.5867 12.5537 -1.66345
193 1 29.5643 10.9038 -0.0518447 29.5643 10.9038 -0.0518447
194 2 31.4995 10.8987 1.53864 31.4995 10.8987 1.53864
195 2 31.4308 10.9091 -1.72279 31.4308 10.9091 -1.72279
196 1 32.4156 12.5504 -0.106885 32.4156 12.5504 -0.106885
197 2 34.353 12.5458 1.48091 34.353 12.5458 1.48091
198 2 34.2796 12.555 -1.78044 34.2796 12.555 -1.78044
199 1 35.2666 10.9039 -0.1758 35.2666 10.9039 -0.1758
200 2 37.2022 10.8987 1.41426 37.2022 10.8987 1.41426
201 2 37.1325 10.9091 -1.84717 37.1325 10.9091 -1.84717
202 1 38.1178 12.5504 -0.231456 38.1178 12.5504 -0.231456
203 2 40.0477 12.5469 1.36552 40.0477 12.5469 1.36552
204 2 39.9896 12.554 -1.89614 39.9896 12.554 -1.89614
205 1 40.9691 10.9039 -0.285884 40.9691 10.9039 -0.285884
206 2 42.8888 10.9008 1.32341 42.8888 10.9008 1.32341
207 2 42.8514 10.9071 -1.93856 42.8514 10.9071 -1.93856
208 1 43.8207 12.5504 -0.315208 43.8207 12.5504 -0.315208
209 2 45.7293 12.5495 1.30738 45.7293 12.5495 1.30738
210 2 45.7144 12.5512 -1.95478 45.7144 12.5512 -1.95478
211 1 46.6724 10.9039 -0.328873 46.6724 10.9039 -0.328873
212 2 48.5673 10.9037 1.30985 48.5673 10.9037 1.30985
213 2 48.5799 10.9041 -1.95232 48.5799 10.9041 -1.95232
214 1 49.5242 12.5503 -0.317233 49.5242 12.5503 -0.317233
215 2 51.4077 12.5524 1.33451 51.4077 12.5524 1.33451
216 2 51.4428 12.5482 -1.92749 51.4428 12.5482 -1.92749
217 1 1.04978 14.1968 -0.288251 1.04978 14.1968 -0.288251
218 2 2.9239 14.2009 1.37413 2.9239 14.2009 1.37413
219 2 2.97751 14.1927 -1.88761 2.97751 14.1927 -1.88761
220 1 3.90122 15.8433 -0.245151 3.90122 15.8433 -0.245151
221 2 5.7689 15.8488 1.4244 5.7689 15.8488 1.4244
222 2 5.8351 15.8378 -1.8371 5.8351 15.8378 -1.8371
223 1 6.75232 14.1968 -0.181418 6.75232 14.1968 -0.181418
224 2 8.61713 14.2019 1.49129 8.61713 14.2019 1.49129
225 2 8.68895 14.1918 -1.77009 8.68895 14.1918 -1.77009
226 1 9.60347 15.8434 -0.123495 9.60347 15.8434 -0.123495
227 2 11.47 15.8489 1.54718 11.47 15.8489 1.54718
228 2 11.5384 15.8379 -1.71426 11.5384 15.8379 -1.71426
229 1 12.4546 14.1969 -0.0579547 12.4546 14.1969 -0.0579547
230 2 14.3275 14.201 1.60553 14.3275 14.201 1.60553
231 2 14.3835 14.1929 -1.65615 14.3835 14.1929 -1.65615
232 1 15.306 15.8434 -0.0130987 15.306 15.8434 -0.0130987
233 2 17.1877 15.8474 1.64038 17.1877 15.8474 1.64038
234 2 17.2265 15.8395 -1.62155 17.2265 15.8395 -1.62155
235 1 18.1576 14.1969 0.0247121 18.1576 14.1969 0.0247121
236 2 20.0515 14.1987 1.66416 20.0515 14.1987 1.66416
237 2 20.0661 14.1952 -1.59797 20.0661 14.1952 -1.59797
238 1 21.0094 15.8434 0.0355275 21.0094 15.8434 0.0355275
239 2 22.9148 15.8449 1.66161 22.9148 15.8449 1.66161
240 2 22.9065 15.842 -1.60055 22.9065 15.842 -1.60055
241 1 23.8613 14.1969 0.0296151 23.8613 14.1969 0.0296151
242 2 25.779 14.1959 1.641 25.779 14.1959 1.641
243 2 25.7458 14.1978 -1.621 25.7458 14.1978 -1.621
244 1 26.713 15.8434 0.00118543 26.713 15.8434 0.00118543
245 2 28.6398 15.8424 1.60176 28.6398 15.8424 1.60176
246 2 28.5881 15.8444 -1.66001 28.5881 15.8444 -1.66001
247 1 29.5644 14.1969 -0.0451618 29.5644 14.1969 -0.0451618
248 2 31.4987 14.1938 1.54644 31.4987 14.1938 1.54644
249 2 31.4318 14.1999 -1.71505 31.4318 14.1999 -1.71505
250 1 32.4157 15.8434 -0.100759 32.4157 15.8434 -0.100759
251 2 34.3526 15.8411 1.48758 34.3526 15.8411 1.48758
252 2 34.2802 15.8457 -1.7738 34.2802 15.8457 -1.7738
253 1 35.2667 14.1969 -0.166538 35.2667 14.1969 -0.166538
254 2 37.2026 14.1936 1.42313 37.2026 14.1936 1.42313
255 2 37.1323 14.2002 -1.8383 37.1323 14.2002 -1.8383
256 1 38.1179 15.8434 -0.224726 38.1179 15.8434 -0.224726
257 2 40.0487 15.8419 1.37119 40.0487 15.8419 1.37119
258 2 39.9888 15.8449 -1.89045 39.9888 15.8449 -1.89045
259 1 40.9692 14.1969 -0.278601 40.9692 14.1969 -0.278601
260 2 42.8904 14.1955 1.32893 42.8904 14.1955 1.32893
261 2 42.85 14.1983 -1.93301 42.85 14.1983 -1.93301
262 1 43.8207 15.8434 -0.312366 43.8207 15.8434 -0.312366
263 2 45.731 15.8444 1.30823 45.731 15.8444 1.30823
264 2 45.7128 15.8423 -1.95391 45.7128 15.8423 -1.95391
265 1 46.6725 14.1969 -0.327104 46.6725 14.1969 -0.327104
266 2 48.5691 14.1984 1.30954 48.5691 14.1984 1.30954
267 2 48.5782 14.1952 -1.95264 48.5782 14.1952 -1.95264
268 1 49.5243 15.8433 -0.320411 49.5243 15.8433 -0.320411
269 2 51.4093 15.8471 1.32955 51.4093 15.8471 1.32955
270 2 51.4414 15.8395 -1.93248 51.4414 15.8395 -1.93248
271 1 1.04986 17.4898 -0.295844 1.04986 17.4898 -0.295844
272 2 2.92509 17.4951 1.36526 2.92509 17.4951 1.36526
273 2 2.97652 17.4844 -1.8965 2.97652 17.4844 -1.8965
274 1 3.90133 19.1363 -0.255976 3.90133 19.1363 -0.255976
275 2 5.76959 19.1424 1.41292 5.76959 19.1424 1.41292
276 2 5.83467 19.1301 -1.84859 5.83467 19.1301 -1.84859
277 1 6.75246 17.4898 -0.192569 6.75246 17.4898 -0.192569
278 2 8.6174 17.496 1.47999 8.6174 17.496 1.47999
279 2 8.68897 17.4836 -1.78139 8.68897 17.4836 -1.78139
280 1 9.60362 19.1364 -0.136084 9.60362 19.1364 -0.136084
281 2 11.4698 19.1426 1.53504 11.4698 19.1426 1.53504
282 2 11.539 19.1302 -1.72639 11.539 19.1302 -1.72639
283 1 12.4547 17.4899 -0.0691832 12.4547 17.4899 -0.0691832
284 2 14.3267 17.4954 1.59532 14.3267 17.4954 1.59532
285 2 14.3845 17.4845 -1.66633 14.3845 17.4845 -1.66633
286 1 15.3061 19.1364 -0.0241904 15.3061 19.1364 -0.0241904
287 2 17.1866 19.1415 1.63061 17.1866 19.1415 1.63061
288 2 17.2277 19.1314 -1.6313 17.2277 19.1314 -1.6313
289 1 18.1577 17.49 0.0167091 18.1577 17.49 0.0167091
290 2 20.0501 17.4935 1.65788 20.0501 17.4935 1.65788
291 2 20.0676 17.4864 -1.60424 20.0676 17.4864 -1.60424
292 1 21.0095 19.1365 0.0283181 21.0095 19.1365 0.0283181
293 2 22.9134 19.1396 1.65609 22.9134 19.1396 1.65609
294 2 22.908 19.1334 -1.60608 22.908 19.1334 -1.60608
295 1 23.8613 17.4899 0.0265865 23.8613 17.4899 0.0265865
296 2 25.7775 17.4911 1.63978 25.7775 17.4911 1.63978
297 2 25.7473 17.4887 -1.62225 25.7473 17.4887 -1.62225
298 1 26.713 19.1364 -0.0013344 26.713 19.1364 -0.0013344
299 2 28.6386 19.1377 1.60073 28.6386 19.1377 1.60073
300 2 28.5894 19.1352 -1.66107 28.5894 19.1352 -1.66107
301 1 29.5645 17.4899 -0.0432707 29.5645 17.4899 -0.0432707
302 2 31.4977 17.4893 1.54955 31.4977 17.4893 1.54955
303 2 31.4329 17.4905 -1.71199 31.4329 17.4905 -1.71199
304 1 32.4158 19.1364 -0.0995218 32.4158 19.1364 -0.0995218
305 2 34.3522 19.1366 1.4894 34.3522 19.1366 1.4894
306 2 34.2808 19.1362 -1.772 34.2808 19.1362 -1.772
307 1 35.2668 17.4899 -0.161955 35.2668 17.4899 -0.161955
308 2 37.2029 17.489 1.42754 37.2029 17.489 1.42754
309 2 37.1323 17.4908 -1.83388 37.1323 17.4908 -1.83388
310 1 38.118 19.1364 -0.222796 38.118 19.1364 -0.222796
311 2 40.0494 19.1371 1.37234 40.0494 19.1371 1.37234
312 2 39.9882 19.1357 -1.88927 39.9882 19.1357 -1.88927
313 1 40.9692 17.4899 -0.275567 40.9692 17.4899 -0.275567
314 2 42.8917 17.4905 1.33045 42.8917 17.4905 1.33045
315 2 42.8488 17.4892 -1.93146 42.8488 17.4892 -1.93146
316 1 43.8208 19.1364 -0.313637 43.8208 19.1364 -0.313637
317 2 45.7324 19.139 1.30534 45.7324 19.139 1.30534
318 2 45.7114 19.1337 -1.95678 45.7114 19.1337 -1.95678
319 1 46.6725 17.4898 -0.329121 46.6725 17.4898 -0.329121
320 2 48.5707 17.493 1.30566 48.5707 17.493 1.30566
321 2 48.5766 17.4866 -1.95652 48.5766 17.4866 -1.95652
322 1 49.5243 19.1363 -0.326868 49.5243 19.1363 -0.326868
323 2 51.4106 19.1411 1.32163 51.4106 19.1411 1.32163
324 2 51.4402 19.1315 -1.94041 51.4402 19.1315 -1.94041
325 1 1.04993 20.7828 -0.305575 1.04993 20.7828 -0.305575
326 2 2.92595 20.7884 1.35463 2.92595 20.7884 1.35463
327 2 2.97584 20.7771 -1.90715 2.97584 20.7771 -1.90715
328 1 3.90141 22.4293 -0.267357 3.90141 22.4293 -0.267357
329 2 5.76999 22.4349 1.40119 5.76999 22.4349 1.40119
330 2 5.83447 22.4237 -1.86033 5.83447 22.4237 -1.86033
331 1 6.75259 20.7828 -0.205051 6.75259 20.7828 -0.205051
332 2 8.61757 20.789 1.46745 8.61757 20.789 1.46745
333 2 8.68906 20.7766 -1.79393 8.68906 20.7766 -1.79393
334 1 9.60373 22.4293 -0.14864 9.60373 22.4293 -0.14864
335 2 11.4696 22.435 1.52281 11.4696 22.435 1.52281
336 2 11.5394 22.4237 -1.73861 11.5394 22.4237 -1.73861
337 1 12.4548 20.7829 -0.0817827 12.4548 20.7829 -0.0817827
338 2 14.3261 20.7886 1.58353 14.3261 20.7886 1.58353
339 2 14.3853 20.7772 -1.67809 14.3853 20.7772 -1.67809
340 1 15.3062 22.4294 -0.035839 15.3062 22.4294 -0.035839
341 2 17.1859 22.4345 1.61987 17.1859 22.4345 1.61987
342 2 17.2285 22.4243 -1.64202 17.2285 22.4243 -1.64202
343 1 18.1577 20.783 0.00651818 18.1577 20.783 0.00651818
344 2 20.0489 20.7874 1.64904 20.0489 20.7874 1.64904
345 2 20.0688 20.7785 -1.61306 20.0688 20.7785 -1.61306
346 1 21.0095 22.4295 0.0192446 21.0095 22.4295 0.0192446
347 2 22.9123 22.4335 1.6482 22.9123 22.4335 1.6482
348 2 22.909 22.4254 -1.61397 22.909 22.4254 -1.61397
349 1 23.8613 20.783 0.0202446 23.8613 20.783 0.0202446
350 2 25.7763 20.7858 1.63489 25.7763 20.7858 1.63489
351 2 25.7486 20.7801 -1.62717 25.7486 20.7801 -1.62717
352 1 26.713 22.4295 -0.00719054 26.713 22.4295 -0.00719054
353 2 28.6377 22.4325 1.59592 28.6377 22.4325 1.59592
354 2 28.5903 22.4265 -1.66591 28.5903 22.4265 -1.66591
355 1 29.5645 20.7829 -0.0457777 29.5645 20.7829 -0.0457777
356 2 31.4969 20.7846 1.54803 31.4969 20.7846 1.54803
357 2 31.4338 20.7813 -1.71354 31.4338 20.7813 -1.71354
358 1 32.4158 22.4294 -0.102843 32.4158 22.4294 -0.102843
359 2 34.3519 22.4319 1.48653 34.3519 22.4319 1.48653
360 2 34.2812 22.427 -1.77488 34.2812 22.427 -1.77488
361 1 35.2669 20.7829 -0.162337 35.2669 20.7829 -0.162337
362 2 37.2029 20.7843 1.42712 37.2029 20.7843 1.42712
363 2 37.1323 20.7815 -1.8343 37.1323 20.7815 -1.8343
364 1 38.118 22.4294 -0.225587 38.118 22.4294 -0.225587
365 2 40.0498 22.432 1.36914 40.0498 22.432 1.36914
366 2 39.9879 22.4267 -1.89246 39.9879 22.4267 -1.89246
367 1 40.9693 20.7829 -0.277033 40.9693 20.7829 -0.277033
368 2 42.8927 20.7853 1.3279 42.8927 20.7853 1.3279
369 2 42.8479 20.7804 -1.93398 42.8479 20.7804 -1.93398
370 1 43.8208 22.4293 -0.318501 43.8208 22.4293 -0.318501
371 2 45.7333 22.433 1.29945 45.7333 22.433 1.29945
372 2 45.7106 22.4256 -1.96265 45.7106 22.4256 -1.96265
373 1 46.6725 20.7828 -0.334488 46.6725 20.7828 -0.334488
374 2 48.5719 20.787 1.29891 48.5719 20.787 1.29891
375 2 48.5755 20.7786 -1.96326 48.5755 20.7786 -1.96326
376 1 49.5243 22.4293 -0.33529 49.5243 22.4293 -0.33529
377 2 51.4114 22.4341 1.3123 51.4114 22.4341 1.3123
378 2 51.4395 22.4244 -1.94975 51.4395 22.4244 -1.94975
379 1 1.04997 24.0758 -0.315454 1.04997 24.0758 -0.315454
380 2 2.92636 24.0805 1.34435 2.92636 24.0805 1.34435
381 2 2.97555 24.071 -1.91745 2.97555 24.071 -1.91745
382 1 3.90146 25.7223 -0.276967 3.90146 25.7223 -0.276967
383 2 5.77007 25.7262 1.39155 5.77007 25.7262 1.39155
384 2 5.8345 25.7184 -1.86998 5.8345 25.7184 -1.86998
385 1 6.75267 24.0758 -0.216408 6.75267 24.0758 -0.216408
386 2 8.61763 24.0808 1.45612 8.61763 24.0808 1.45612
387 2 8.68917 24.0708 -1.80526 8.68917 24.0708 -1.80526
388 1 9.60379 25.7223 -0.158732 9.60379 25.7223 -0.158732
389 2 11.4695 25.7265 1.51283 11.4695 25.7265 1.51283
390 2 11.5395 25.7182 -1.74859 11.5395 25.7182 -1.74859
391 1 12.4549 24.0759 -0.0932995 12.4549 24.0759 -0.0932995
392 2 14.3258 24.0809 1.57246 14.3258 24.0809 1.57246
393 2 14.3857 24.0709 -1.68916 14.3857 24.0709 -1.68916
394 1 15.3062 25.7224 -0.0458958 15.3062 25.7224 -0.0458958
395 2 17.1856 25.7268 1.61012 17.1856 25.7268 1.61012
396 2 17.2288 25.7181 -1.65177 17.2288 25.7181 -1.65177
397 1 18.1577 24.076 -0.00384525 18.1577 24.076 -0.00384525
398 2 20.0483 24.0806 1.63946 20.0483 24.0806 1.63946
399 2 20.0695 24.0714 -1.62264 20.0695 24.0714 -1.62264
400 1 21.0095 25.7225 0.00992274 21.0095 25.7225 0.00992274
401 2 22.9119 25.7269 1.63937 22.9119 25.7269 1.63937
402 2 22.9094 25.7181 -1.6228 22.9094 25.7181 -1.6228
403 1 23.8613 24.076 0.0119873 23.8613 24.076 0.0119873
404 2 25.7756 24.08 1.62748 25.7756 24.08 1.62748
405 2 25.7493 24.072 -1.63458 25.7493 24.072 -1.63458
406 1 26.713 25.7225 -0.0153139 26.713 25.7225 -0.0153139
407 2 28.6373 25.7268 1.58825 28.6373 25.7268 1.58825
408 2 28.5907 25.7181 -1.67359 28.5907 25.7181 -1.67359
409 1 29.5645 24.076 -0.0518894 29.5645 24.076 -0.0518894
410 2 31.4964 24.0795 1.54251 31.4964 24.0795 1.54251
411 2 31.4343 24.0724 -1.71907 31.4343 24.0724 -1.71907
412 1 32.4158 25.7225 -0.110006 32.4158 25.7225 -0.110006
413 2 34.3516 25.7267 1.47965 34.3516 25.7267 1.47965
414 2 34.2814 25.7182 -1.78177 34.2814 25.7182 -1.78177
415 1 35.2669 24.0759 -0.167262 35.2669 24.0759 -0.167262
416 2 37.2029 24.0793 1.4223 37.2029 24.0793 1.4223
417 2 37.1324 24.0726 -1.83912 37.1324 24.0726 -1.83912
418 1 38.118 25.7224 -0.232356 38.118 25.7224 -0.232356
419 2 40.0497 25.7263 1.36241 40.0497 25.7263 1.36241
420 2 39.9879 25.7184 -1.89918 39.9879 25.7184 -1.89918
421 1 40.9693 24.0759 -0.282378 40.9693 24.0759 -0.282378
422 2 42.893 24.0794 1.32208 42.893 24.0794 1.32208
423 2 42.8475 24.0723 -1.93978 42.8475 24.0723 -1.93978
424 1 43.8208 25.7223 -0.32574 43.8208 25.7223 -0.32574
425 2 45.7335 25.7262 1.29195 45.7335 25.7262 1.29195
426 2 45.7104 25.7184 -1.97014 45.7104 25.7184 -1.97014
427 1 46.6725 24.0758 -0.341913 46.6725 24.0758 -0.341913
428 2 48.5725 24.08 1.29079 48.5725 24.08 1.29079
429 2 48.5749 24.0716 -1.97138 48.5749 24.0716 -1.97138
430 1 49.5243 25.7223 -0.34381 49.5243 25.7223 -0.34381
431 2 51.4117 25.7262 1.30353 51.4117 25.7262 1.30353
432 2 51.4393 25.7184 -1.95852 51.4393 25.7184 -1.95852
433 1 1.04999 27.3688 -0.323363 1.04999 27.3688 -0.323363
434 2 2.92627 27.3717 1.33656 2.92627 27.3717 1.33656
435 2 2.97568 27.3659 -1.92524 2.97568 27.3659 -1.92524
436 1 3.90146 29.0153 -0.282816 3.90146 29.0153 -0.282816
437 2 5.76987 29.0168 1.38592 5.76987 29.0168 1.38592
438 2 5.83469 29.0138 -1.87561 5.83469 29.0138 -1.87561
439 1 6.7527 27.3688 -0.224383 6.7527 27.3688 -0.224383
440 2 8.61762 27.3717 1.44819 8.61762 27.3717 1.44819
441 2 8.68924 27.366 -1.81321 8.68924 27.366 -1.81321
442 1 9.60379 29.0154 -0.164489 9.60379 29.0154 -0.164489
443 2 11.4697 29.0172 1.50689 11.4697 29.0172 1.50689
444 2 11.5394 29.0135 -1.75455 11.5394 29.0135 -1.75455
445 1 12.4549 27.3689 -0.101633 12.4549 27.3689 -0.101633
446 2 14.3258 27.3723 1.56407 14.3258 27.3723 1.56407
447 2 14.3857 27.3655 -1.69757 14.3857 27.3655 -1.69757
448 1 15.3062 29.0154 -0.0527015 15.3062 29.0154 -0.0527015
449 2 17.186 29.0184 1.60293 17.186 29.0184 1.60293
450 2 17.2285 29.0124 -1.65898 17.2285 29.0124 -1.65898
451 1 18.1578 27.3689 -0.0126597 18.1578 27.3689 -0.0126597
452 2 20.0482 27.373 1.63067 20.0482 27.373 1.63067
453 2 20.0696 27.3649 -1.63144 20.0696 27.3649 -1.63144
454 1 21.0095 29.0155 0.00168701 21.0095 29.0155 0.00168701
455 2 22.9122 29.0197 1.63082 22.9122 29.0197 1.63082
456 2 22.9092 29.0113 -1.63136 22.9092 29.0113 -1.63136
457 1 23.8613 27.369 0.00305729 23.8613 27.369 0.00305729
458 2 25.7754 27.3736 1.61868 25.7754 27.3736 1.61868
459 2 25.7494 27.3644 -1.64338 25.7494 27.3644 -1.64338
460 1 26.7129 29.0155 -0.0246618 26.7129 29.0155 -0.0246618
461 2 28.6373 29.0206 1.57874 28.6373 29.0206 1.57874
462 2 28.5905 29.0104 -1.68309 28.5905 29.0104 -1.68309
463 1 29.5645 27.369 -0.0606855 29.5645 27.369 -0.0606855
464 2 31.4962 27.3739 1.53387 31.4962 27.3739 1.53387
465 2 31.4344 27.3641 -1.72771 31.4344 27.3641 -1.72771
466 1 32.4157 29.0155 -0.119973 32.4157 29.0155 -0.119973
467 2 34.3514 29.0208 1.46984 34.3514 29.0208 1.46984
468 2 34.2815 29.0101 -1.79157 34.2815 29.0101 -1.79157
469 1 35.2668 27.3689 -0.175831 35.2668 27.3689 -0.175831
470 2 37.2026 27.3736 1.41401 37.2026 27.3736 1.41401
471 2 37.1326 27.3642 -1.84741 37.1326 27.3642 -1.84741
472 1 38.1179 29.0154 -0.241885 38.1179 29.0154 -0.241885
473 2 40.0492 29.0199 1.35346 40.0492 29.0199 1.35346
474 2 39.9884 29.0108 -1.90815 39.9884 29.0108 -1.90815
475 1 40.9692 27.3688 -0.290432 40.9692 27.3688 -0.290432
476 2 42.8928 27.3728 1.31428 42.8928 27.3728 1.31428
477 2 42.8477 27.3648 -1.94758 42.8477 27.3648 -1.94758
478 1 43.8208 29.0153 -0.33385 43.8208 29.0153 -0.33385
479 2 45.733 29.0186 1.28444 45.733 29.0186 1.28444
480 2 45.7109 29.0121 -1.97766 45.7109 29.0121 -1.97766
481 1 46.6725 27.3688 -0.349729 46.6725 27.3688 -0.349729
482 2 48.5724 27.3721 1.28309 48.5724 27.3721 1.28309
483 2 48.575 27.3654 -1.97908 48.575 27.3654 -1.97908
484 1 49.5243 29.0153 -0.350587 49.5243 29.0153 -0.350587
485 2 51.4113 29.0174 1.29721 51.4113 29.0174 1.29721
486 2 51.4397 29.0132 -1.96484 51.4397 29.0132 -1.96484
487 1 1.04997 30.6618 -0.327632 1.04997 30.6618 -0.327632
488 2 2.92573 30.6623 1.33288 2.92573 30.6623 1.33288
489 2 2.97617 30.6614 -1.92891 2.97617 30.6614 -1.92891
490 1 3.90141 32.3084 -0.283731 3.90141 32.3084 -0.283731
491 2 5.76948 32.3072 1.38537 5.76948 32.3072 1.38537
492 2 5.83496 32.3095 -1.87615 5.83496 32.3095 -1.87615
493 1 6.75267 30.6618 -0.22745 6.75267 30.6618 -0.22745
494 2 8.61761 30.6621 1.4451 8.61761 30.6621 1.4451
495 2 8.68918 30.6616 -1.8163 8.68918 30.6616 -1.8163
496 1 9.60372 32.3084 -0.164947 9.60372 32.3084 -0.164947
497 2 11.4701 32.3077 1.50592 11.4701 32.3077 1.50592
498 2 11.5389 32.309 -1.75554 11.5389 32.309 -1.75554
499 1 12.4549 30.6619 -0.105403 12.4549 30.6619 -0.105403
500 2 14.3263 30.6632 1.5597 14.3263 30.6632 1.5597
501 2 14.3852 30.6606 -1.70196 14.3852 30.6606 -1.70196
502 1 15.3062 32.3084 -0.0552812 15.3062 32.3084 -0.0552812
503 2 17.1869 32.3096 1.59927 17.1869 32.3096 1.59927
504 2 17.2275 32.3072 -1.66267 17.2275 32.3072 -1.66267
505 1 18.1577 30.6619 -0.0186601 18.1577 30.6619 -0.0186601
506 2 20.0489 30.665 1.6239 20.0489 30.665 1.6239
507 2 20.0689 30.6589 -1.63823 20.0689 30.6589 -1.63823
508 1 21.0095 32.3085 -0.00442377 21.0095 32.3085 -0.00442377
509 2 22.9131 32.312 1.62362 22.9131 32.312 1.62362
510 2 22.9082 32.305 -1.63856 22.9082 32.305 -1.63856
511 1 23.8612 30.662 -0.00543773 23.8612 30.662 -0.00543773
512 2 25.7759 30.6667 1.60959 25.7759 30.6667 1.60959
513 2 25.7488 30.6573 -1.65248 25.7488 30.6573 -1.65248
514 1 26.7129 32.3085 -0.0341118 26.7129 32.3085 -0.0341118
515 2 28.6379 32.3137 1.56859 28.6379 32.3137 1.56859
516 2 28.5898 32.3032 -1.69323 28.5898 32.3032 -1.69323
517 1 29.5644 30.662 -0.0710631 29.5644 30.662 -0.0710631
518 2 31.4963 30.6676 1.52328 31.4963 30.6676 1.52328
519 2 31.4341 30.6563 -1.73829 31.4341 30.6563 -1.73829
520 1 32.4156 32.3085 -0.131378 32.4156 32.3085 -0.131378
521 2 34.3512 32.3142 1.45855 34.3512 32.3142 1.45855
522 2 34.2814 32.3027 -1.80288 34.2814 32.3027 -1.80288
523 1 35.2667 30.6619 -0.186725 35.2667 30.6619 -0.186725
524 2 37.202 30.6672 1.40363 37.202 30.6672 1.40363
525 2 37.1329 30.6566 -1.85781 37.1329 30.6566 -1.85781
526 1 38.1178 32.3084 -0.25264 38.1178 32.3084 -0.25264
527 2 40.0482 32.3128 1.34377 40.0482 32.3128 1.34377
528 2 39.9892 32.3039 -1.91787 39.9892 32.3039 -1.91787
529 1 40.9692 30.6618 -0.299737 40.9692 30.6618 -0.299737
530 2 42.8919 30.6655 1.30598 42.8919 30.6655 1.30598
531 2 42.8485 30.6581 -1.9559 42.8485 30.6581 -1.9559
532 1 43.8207 32.3083 -0.34137 43.8207 32.3083 -0.34137
533 2 45.7317 32.3104 1.27833 45.7317 32.3104 1.27833
534 2 45.712 32.3063 -1.98379 45.712 32.3063 -1.98379
535 1 46.6725 30.6618 -0.356345 46.6725 30.6618 -0.356345
536 2 48.5716 30.6636 1.2774 48.5716 30.6636 1.2774