ITEM: TIMESTEP
75000
ITEM: NUMBER OF ATOMS
810
ITEM: BOX BOUNDS pp pp pp
8.4207441586065890e-01 5.2175530584137611e+01
8.1160227432676879e-01 5.0204612725672540e+01
-1.0000000000000000e+01 1.0000000000000000e+01
ITEM: ATOMS id type x y z xu yu zu
1 1 1.04581 1.02623 -0.0947931 1.04581 1.02623 -0.0947931
2 2 2.95519 1.05937 1.52638 2.95519 1.05937 1.52638
3 2 2.93897 0.993214 -1.73509 2.93897 0.993214 -1.73509
4 1 3.89764 2.67252 -0.142605 3.89764 2.67252 -0.142605
5 2 5.81103 2.7051 1.47381 5.81103 2.7051 1.47381
6 2 5.7867 2.64003 -1.78764 5.7867 2.64003 -1.78764
7 1 6.74955 1.02627 -0.131087 6.74955 1.02627 -0.131087
8 2 8.66649 1.05859 1.48118 8.66649 1.05859 1.48118
9 2 8.63501 0.993971 -1.78021 8.63501 0.993971 -1.78021
10 1 9.60126 2.67247 -0.191437 9.60126 2.67247 -0.191437
11 2 11.5187 2.70423 1.42026 11.5187 2.70423 1.42026
12 2 11.4862 2.64069 -1.84114 11.4862 2.64069 -1.84114
13 1 12.4531 1.02611 -0.18775 12.4531 1.02611 -0.18775
14 2 14.3707 1.05733 1.42387 14.3707 1.05733 1.42387
15 2 14.338 0.994792 -1.83756 14.338 0.994792 -1.83756
16 1 15.3049 2.67224 -0.248069 15.3049 2.67224 -0.248069
17 2 17.2193 2.70257 1.36733 17.2193 2.70257 1.36733
18 2 17.193 2.64178 -1.89418 17.193 2.64178 -1.89418
19 1 18.1568 1.0258 -0.240334 18.1568 1.0258 -0.240334
20 2 20.0678 1.0563 1.37911 20.0678 1.0563 1.37911
21 2 20.0483 0.99511 -1.88244 20.0483 0.99511 -1.88244
22 1 21.0087 2.67192 -0.288342 21.0087 2.67192 -0.288342
23 2 22.9137 2.70097 1.33821 22.9137 2.70097 1.33821
24 2 22.9063 2.64271 -1.92344 22.9063 2.64271 -1.92344
25 1 23.8606 1.02547 -0.265297 23.8606 1.02547 -0.265297
26 2 25.7601 1.05593 1.36773 25.7601 1.05593 1.36773
27 2 25.7638 0.994838 -1.89388 25.7638 0.994838 -1.89388
28 1 26.7126 2.67167 -0.292943 26.7126 2.67167 -0.292943
29 2 28.6056 2.70011 1.34757 28.6056 2.70011 1.34757
30 2 28.6222 2.64312 -1.91407 28.6222 2.64312 -1.91407
31 1 29.5645 1.02529 -0.249603 29.5645 1.02529 -0.249603
32 2 31.4528 1.05619 1.39638 31.4528 1.05619 1.39638
33 2 31.4788 0.994333 -1.86511 31.4788 0.994333 -1.86511
34 1 32.4164 2.67162 -0.258099 32.4164 2.67162 -0.258099
35 2 34.3008 2.70025 1.39238 34.3008 2.70025 1.39238
36 2 34.3345 2.64299 -1.86912 34.3345 2.64299 -1.86912
37 1 35.2682 1.02536 -0.199564 35.2682 1.02536 -0.199564
38 2 37.1511 1.05696 1.45243 37.1511 1.05696 1.45243
39 2 37.1876 0.993826 -1.80894 37.1876 0.993826 -1.80894
40 1 38.12 2.67178 -0.199579 38.12 2.67178 -0.199579
41 2 40.0034 2.7014 1.45182 40.0034 2.7014 1.45182
42 2 40.0389 2.64227 -1.80964 40.0389 2.64227 -1.80964
43 1 40.9717 1.02564 -0.13867 40.9717 1.02564 -0.13867
44 2 42.8582 1.05811 1.50915 42.8582 1.05811 1.50915
45 2 42.8876 0.993338 -1.75226 42.8876 0.993338 -1.75226
46 1 43.8236 2.67209 -0.145782 43.8236 2.67209 -0.145782
47 2 45.7148 2.70316 1.49662 45.7148 2.70316 1.49662
48 2 45.7349 2.6412 -1.76493 45.7349 2.6412 -1.76493
49 1 46.6754 1.02599 -0.096974 46.6754 1.02599 -0.096974
50 2 48.5727 1.05912 1.5383 48.5727 1.05912 1.5383
51 2 48.5807 0.993038 -1.72321 48.5807 0.993038 -1.72321
52 1 49.5273 2.67238 -0.123632 49.5273 2.67238 -0.123632
53 2 51.4307 2.70467 1.50461 51.4307 2.70467 1.50461
54 2 51.4265 2.64025 -1.75695 51.4265 2.64025 -1.75695
55 1 1.04573 4.31874 -0.160023 1.04573 4.31874 -0.160023
56 2 2.95452 4.34928 1.4618 2.95452 4.34928 1.4618
57 2 2.93941 4.28834 -1.79979 2.93941 4.28834 -1.79979
58 1 3.8975 5.9651 -0.204307 3.8975 5.9651 -0.204307
59 2 5.81045 5.9929 1.41265 5.81045 5.9929 1.41265
60 2 5.78696 5.93741 -1.84899 5.78696 5.93741 -1.84899
61 1 6.74938 4.31879 -0.197002 6.74938 4.31879 -0.197002
62 2 8.66513 4.3496 1.41665 8.66513 4.3496 1.41665
63 2 8.63603 4.28803 -1.84483 8.63603 4.28803 -1.84483
64 1 9.60107 5.96506 -0.253821 9.60107 5.96506 -0.253821
65 2 11.5172 5.99271 1.35943 11.5172 5.99271 1.35943
66 2 11.4873 5.93743 -1.90215 11.4873 5.93743 -1.90215
67 1 12.453 4.31866 -0.252127 12.453 4.31866 -0.252127
68 2 14.369 4.34825 1.36134 14.369 4.34825 1.36134
69 2 14.3394 4.28902 -1.90017 14.3394 4.28902 -1.90017
70 1 15.3047 5.96489 -0.308097 15.3047 5.96489 -0.308097
71 2 17.2173 5.99051 1.30955 17.2173 5.99051 1.30955
72 2 17.1947 5.93921 -1.95214 17.1947 5.93921 -1.95214
73 1 18.1567 4.3184 -0.301927 18.1567 4.3184 -0.301927
74 2 20.0661 4.34591 1.31937 20.0661 4.34591 1.31937
75 2 20.0498 4.29077 -1.9423 20.0498 4.29077 -1.9423
76 1 21.0086 5.96466 -0.34422 21.0086 5.96466 -0.34422
77 2 22.9118 5.98748 1.28456 22.9118 5.98748 1.28456
78 2 22.9081 5.94175 -1.97728 22.9081 5.94175 -1.97728
79 1 23.8606 4.31814 -0.324311 23.8606 4.31814 -0.324311
80 2 25.7589 4.34379 1.31016 25.7589 4.34379 1.31016
81 2 25.765 4.29238 -1.9516 25.765 4.29238 -1.9516
82 1 26.7126 5.96449 -0.345027 26.7126 5.96449 -0.345027
83 2 28.6043 5.98514 1.29712 28.6043 5.98514 1.29712
84 2 28.6236 5.94378 -1.96473 28.6236 5.94378 -1.96473
85 1 29.5646 4.318 -0.307311 29.5646 4.318 -0.307311
86 2 31.4521 4.34278 1.33963 31.4521 4.34278 1.33963
87 2 31.4796 4.29317 -1.92205 31.4796 4.29317 -1.92205
88 1 32.4165 5.96445 -0.308338 32.4165 5.96445 -0.308338
89 2 34.3002 5.98445 1.34295 34.3002 5.98445 1.34295
90 2 34.3352 5.94446 -1.91879 34.3352 5.94446 -1.91879
91 1 35.2683 4.31805 -0.257535 35.2683 4.31805 -0.257535
92 2 37.1509 4.34327 1.39492 37.1509 4.34327 1.39492
93 2 37.1881 4.29288 -1.86666 37.1881 4.29288 -1.86666
94 1 38.1201 5.96456 -0.250576 38.1201 5.96456 -0.250576
95 2 40.0036 5.98563 1.40084 40.0036 5.98563 1.40084
96 2 40.0389 5.94357 -1.8609 40.0389 5.94357 -1.8609
97 1 40.9718 4.31826 -0.198521 40.9718 4.31826 -0.198521
98 2 42.8583 4.34509 1.44941 42.8583 4.34509 1.44941
99 2 42.8878 4.29157 -1.81222 42.8878 4.29157 -1.81222
100 1 43.8236 5.96477 -0.199936 43.8236 5.96477 -0.199936
101 2 45.7152 5.98822 1.44205 45.7152 5.98822 1.44205
102 2 45.7345 5.94147 -1.81977 45.7345 5.94147 -1.81977
103 1 46.6754 4.31854 -0.159696 46.6754 4.31854 -0.159696
104 2 48.5726 4.34747 1.47572 48.5726 4.34747 1.47572
105 2 48.5807 4.28978 -1.78596 48.5807 4.28978 -1.78596
106 1 49.5273 5.96499 -0.182006 49.5273 5.96499 -0.182006
107 2 51.4308 5.99107 1.446 51.4308 5.99107 1.446
108 2 51.4262 5.93906 -1.81579 51.4262 5.93906 -1.81579
109 1 1.04562 7.61145 -0.212642 1.04562 7.61145 -0.212642
110 2 2.95489 7.63398 1.40869 2.95489 7.63398 1.40869
111 2 2.93878 7.58904 -1.85317 2.93878 7.58904 -1.85317
112 1 3.89736 9.25793 -0.249767 3.89736 9.25793 -0.249767
113 2 5.81084 9.27615 1.36665 5.81084 9.27615 1.36665
114 2 5.78626 9.2398 -1.89525 5.78626 9.2398 -1.89525
115 1 6.7492 7.61148 -0.253187 6.7492 7.61148 -0.253187
116 2 8.66447 7.63542 1.36111 8.66447 7.63542 1.36111
117 2 8.63634 7.58761 -1.9006 8.63634 7.58761 -1.9006
118 1 9.6009 9.25791 -0.302247 9.6009 9.25791 -0.302247
119 2 11.5162 9.27668 1.31208 11.5162 9.27668 1.31208
120 2 11.488 9.23916 -1.94976 11.488 9.23916 -1.94976
121 1 12.4528 7.61139 -0.308152 12.4528 7.61139 -0.308152
122 2 14.3672 7.63427 1.3073 14.3672 7.63427 1.3073
123 2 14.3409 7.5885 -1.95444 14.3409 7.5885 -1.95444
124 1 15.3046 9.25781 -0.354523 15.3046 9.25781 -0.354523
125 2 17.2151 9.27431 1.26569 17.2151 9.27431 1.26569
126 2 17.1967 9.24128 -1.99625 17.1967 9.24128 -1.99625
127 1 18.1566 7.61122 -0.353941 18.1566 7.61122 -0.353941
128 2 20.0638 7.63111 1.27005 20.0638 7.63111 1.27005
129 2 20.052 7.59128 -1.99184 20.052 7.59128 -1.99184
130 1 21.0086 9.25768 -0.384637 21.0086 9.25768 -0.384637
131 2 22.9093 9.27041 1.24711 22.9093 9.27041 1.24711
132 2 22.9106 9.24492 -2.01494 22.9106 9.24492 -2.01494
133 1 23.8606 7.61107 -0.370673 23.8606 7.61107 -0.370673
134 2 25.7569 7.62766 1.26621 25.7569 7.62766 1.26621
135 2 25.767 7.59441 -1.99576 25.767 7.59441 -1.99576
136 1 26.7127 9.2576 -0.378764 26.7127 9.2576 -0.378764
137 2 28.6025 9.267 1.26562 28.6025 9.267 1.26562
138 2 28.6255 9.24815 -1.9964 28.6255 9.24815 -1.9964
139 1 29.5646 7.61099 -0.349214 29.5646 7.61099 -0.349214
140 2 31.4509 7.62555 1.29919 31.4509 7.62555 1.29919
141 2 31.4809 7.59639 -1.96271 31.4809 7.59639 -1.96271
142 1 32.4165 9.25757 -0.337881 32.4165 9.25757 -0.337881
143 2 34.2995 9.26555 1.31432 34.2995 9.26555 1.31432
144 2 34.336 9.24957 -1.94761 34.336 9.24957 -1.94761
145 1 35.2683 7.611 -0.298006 35.2683 7.611 -0.298006
146 2 37.1507 7.62556 1.35476 37.1507 7.62556 1.35476
147 2 37.1883 7.59647 -1.90708 37.1883 7.59647 -1.90708
148 1 38.1201 9.2576 -0.279997 38.1201 9.2576 -0.279997
149 2 40.004 9.26654 1.37097 40.004 9.26654 1.37097
150 2 40.0385 9.2487 -1.891 40.0385 9.2487 -1.891
151 1 40.9718 7.61112 -0.241067 40.9718 7.61112 -0.241067
152 2 42.8589 7.62765 1.40624 42.8589 7.62765 1.40624
153 2 42.8872 7.5947 -1.85568 42.8872 7.5947 -1.85568
154 1 43.8236 9.25771 -0.233225 43.8236 9.25771 -0.233225
155 2 45.7164 9.2695 1.40744 45.7164 9.2695 1.40744
156 2 45.7332 9.24602 -1.85465 45.7332 9.24602 -1.85465
157 1 46.6754 7.6113 -0.206965 46.6754 7.6113 -0.206965
158 2 48.5735 7.6309 1.42751 48.5735 7.6309 1.42751
159 2 48.5798 7.59184 -1.83447 48.5798 7.59184 -1.83447
160 1 49.5272 9.25785 -0.221477 49.5272 9.25785 -0.221477
161 2 51.432 9.27322 1.40514 51.432 9.27322 1.40514
162 2 51.4248 9.2426 -1.85693 51.4248 9.2426 -1.85693
163 1 1.04553 10.9044 -0.243568 1.04553 10.9044 -0.243568
164 2 2.95624 10.9152 1.37614 2.95624 10.9152 1.37614
165 2 2.9372 10.8937 -1.88595 2.9372 10.8937 -1.88595
166 1 3.89724 12.551 -0.271397 3.89724 12.551 -0.271397
167 2 5.81208 12.5566 1.34349 5.81208 12.5566 1.34349
168 2 5.78477 12.5454 -1.91857 5.78477 12.5454 -1.91857
169 1 6.74905 10.9045 -0.289961 6.74905 10.9045 -0.289961
170 2 8.66461 10.9174 1.3241 8.66461 10.9174 1.3241
171 2 8.63589 10.8915 -1.93786 8.63589 10.8915 -1.93786
172 1 9.60076 12.551 -0.32848 9.60076 12.551 -0.32848
173 2 11.5158 12.5577 1.28626 11.5158 12.5577 1.28626
174 2 11.4882 12.5444 -1.97577 11.4882 12.5444 -1.97577
175 1 12.4526 10.9044 -0.346185 12.4526 10.9044 -0.346185
176 2 14.3657 10.9166 1.27101 14.3657 10.9166 1.27101
177 2 14.3422 10.8922 -1.99097 14.3422 10.8922 -1.99097
178 1 15.3045 12.551 -0.379324 15.3045 12.551 -0.379324
179 2 17.213 12.5554 1.24329 17.213 12.5554 1.24329
180 2 17.1987 12.5465 -2.01882 17.1987 12.5465 -2.01882
181 1 18.1565 10.9043 -0.387481 18.1565 10.9043 -0.387481
182 2 20.0613 10.9131 1.23952 20.0613 10.9131 1.23952
183 2 20.0545 10.8955 -2.02258 20.0545 10.8955 -2.02258
184 1 21.0086 12.5509 -0.402595 21.0086 12.5509 -0.402595
185 2 22.9067 12.5513 1.23226 22.9067 12.5513 1.23226
186 2 22.9132 12.5506 -2.02988 22.9132 12.5506 -2.02988
187 1 23.8606 10.9043 -0.396581 23.8606 10.9043 -0.396581
188 2 25.7545 10.909 1.24318 25.7545 10.909 1.24318
189 2 25.7695 10.8995 -2.01892 25.7695 10.8995 -2.01892
190 1 26.7127 12.5509 -0.388401 26.7127 12.5509 -0.388401
191 2 28.6005 12.5474 1.25837 28.6005 12.5474 1.25837
192 2 28.6275 12.5543 -2.00367 28.6275 12.5543 -2.00367
193 1 29.5646 10.9042 -0.368351 29.5646 10.9042 -0.368351
194 2 31.4495 10.9061 1.28172 31.4495 10.9061 1.28172
195 2 31.4823 10.9023 -1.98028 31.4823 10.9023 -1.98028
196 1 32.4165 12.5508 -0.341742 32.4165 12.5508 -0.341742
197 2 34.2987 12.5454 1.31126 34.2987 12.5454 1.31126
198 2 34.3366 12.5562 -1.95068 34.3366 12.5562 -1.95068
199 1 35.2683 10.9042 -0.314185 35.2683 10.9042 -0.314185
200 2 37.1507 10.9056 1.33866 37.1507 10.9056 1.33866
201 2 37.1883 10.9027 -1.92331 37.1883 10.9027 -1.92331
202 1 38.12 12.5508 -0.282901 38.12 12.5508 -0.282901
203 2 40.0047 12.5462 1.36717 40.0047 12.5462 1.36717
204 2 40.0377 12.5554 -1.89486 40.0377 12.5554 -1.89486
205 1 40.9718 10.9042 -0.25907 40.9718 10.9042 -0.25907
206 2 42.86 10.9077 1.38694 42.86 10.9077 1.38694
207 2 42.886 10.9008 -1.87516 42.886 10.9008 -1.87516
208 1 43.8235 12.5508 -0.240112 43.8235 12.5508 -0.240112
209 2 45.7181 12.5491 1.39849 45.7181 12.5491 1.39849
210 2 45.7314 12.5525 -1.8637 45.7314 12.5525 -1.8637
211 1 46.6754 10.9043 -0.230654 46.6754 10.9043 -0.230654
212 2 48.5751 10.9113 1.40189 48.5751 10.9113 1.40189
213 2 48.578 10.8974 -1.8603 48.578 10.8974 -1.8603
214 1 49.5272 12.5509 -0.23551 49.5272 12.5509 -0.23551
215 2 51.434 12.5532 1.38876 51.434 12.5532 1.38876
216 2 51.4227 12.5487 -1.87344 51.4227 12.5487 -1.87344
217 1 1.04545 14.1975 -0.247964 1.04545 14.1975 -0.247964
218 2 2.95828 14.1949 1.36928 2.95828 14.1949 1.36928
219 2 2.935 14.2002 -1.89284 2.935 14.2002 -1.89284
220 1 3.89718 15.8441 -0.266013 3.89718 15.8441 -0.266013
221 2 5.81386 15.8365 1.3467 5.81386 15.8365 1.3467
222 2 5.78285 15.8518 -1.91532 5.78285 15.8518 -1.91532
223 1 6.74894 14.1976 -0.301303 6.74894 14.1976 -0.301303
224 2 8.66542 14.1975 1.31172 8.66542 14.1975 1.31172
225 2 8.63486 14.1978 -1.95032 8.63486 14.1978 -1.95032
226 1 9.60069 15.8442 -0.328173 9.60069 15.8442 -0.328173
227 2 11.516 15.8376 1.28632 11.516 15.8376 1.28632
228 2 11.4879 15.8509 -1.9757 11.4879 15.8509 -1.9757
229 1 12.4526 14.1976 -0.359687 12.4526 14.1976 -0.359687
230 2 14.3646 14.197 1.25872 14.3646 14.197 1.25872
231 2 14.3431 14.1983 -2.00337 14.3431 14.1983 -2.00337
232 1 15.3045 15.8443 -0.378056 15.3045 15.8443 -0.378056
233 2 17.2114 15.8357 1.2464 17.2114 15.8357 1.2464
234 2 17.2002 15.8528 -2.01569 17.2002 15.8528 -2.01569
235 1 18.1565 14.1976 -0.396605 18.1565 14.1976 -0.396605
236 2 20.059 14.1936 1.23316 20.059 14.1936 1.23316
237 2 20.0568 14.2016 -2.02898 20.0568 14.2016 -2.02898
238 1 21.0086 15.8442 -0.394651 21.0086 15.8442 -0.394651
239 2 22.9043 15.8318 1.24289 22.9043 15.8318 1.24289
240 2 22.9156 15.8565 -2.01915 22.9156 15.8565 -2.01915
241 1 23.8606 14.1976 -0.397387 23.8606 14.1976 -0.397387
242 2 25.7521 14.1894 1.24515 25.7521 14.1894 1.24515
243 2 25.7719 14.2057 -2.0169 25.7719 14.2057 -2.0169
244 1 26.7127 15.8441 -0.371958 26.7127 15.8441 -0.371958
245 2 28.5986 15.8281 1.27686 28.5986 15.8281 1.27686
246 2 28.6293 15.8601 -1.985 28.6293 15.8601 -1.985
247 1 29.5646 14.1975 -0.361348 29.5646 14.1975 -0.361348
248 2 31.4481 14.1863 1.29026 31.4481 14.1863 1.29026
249 2 31.4836 14.2086 -1.97164 31.4836 14.2086 -1.97164
250 1 32.4164 15.844 -0.319097 32.4164 15.844 -0.319097
251 2 34.2982 15.8261 1.33439 34.2982 15.8261 1.33439
252 2 34.337 15.8618 -1.92737 34.337 15.8618 -1.92737
253 1 35.2682 14.1974 -0.303317 35.2682 14.1974 -0.303317
254 2 37.1508 14.1855 1.34928 37.1508 14.1855 1.34928
255 2 37.188 14.2092 -1.91261 37.188 14.2092 -1.91261
256 1 38.1199 15.8439 -0.258872 38.1199 15.8439 -0.258872
257 2 40.0057 15.8266 1.38991 40.0057 15.8266 1.38991
258 2 40.0365 15.8611 -1.87197 40.0365 15.8611 -1.87197
259 1 40.9717 14.1973 -0.249645 40.9717 14.1973 -0.249645
260 2 42.8615 14.1873 1.39454 42.8615 14.1873 1.39454
261 2 42.8843 14.2073 -1.86753 42.8843 14.2073 -1.86753
262 1 43.8235 15.8438 -0.219798 43.8235 15.8438 -0.219798
263 2 45.7202 15.8293 1.41626 45.7202 15.8293 1.41626
264 2 45.7292 15.8584 -1.84581 45.7292 15.8584 -1.84581
265 1 46.6753 14.1974 -0.2271 46.6753 14.1974 -0.2271
266 2 48.5774 14.1909 1.40281 48.5774 14.1909 1.40281
267 2 48.5757 14.2039 -1.85939 48.5757 14.2039 -1.85939
268 1 49.5271 15.844 -0.222302 49.5271 15.844 -0.222302
269 2 51.4364 15.8331 1.39906 51.4364 15.8331 1.39906
270 2 51.4202 15.8549 -1.86305 51.4202 15.8549 -1.86305
271 1 1.04544 17.4905 -0.22575 1.04544 17.4905 -0.22575
272 2 2.96059 17.4754 1.38869 2.96059 17.4754 1.38869
273 2 2.93263 17.5058 -1.87325 2.93263 17.5058 -1.87325
274 1 3.8972 19.1371 -0.235119 3.8972 19.1371 -0.235119
275 2 5.81578 19.1176 1.37527 5.81578 19.1176 1.37527
276 2 5.78095 19.1567 -1.8865 5.78095 19.1567 -1.8865
277 1 6.74891 17.4907 -0.285665 6.74891 17.4907 -0.285665
278 2 8.66665 17.4776 1.32584 8.66665 17.4776 1.32584
279 2 8.63356 17.5039 -1.93607 8.63356 17.5039 -1.93607
280 1 9.6007 19.1373 -0.301569 9.6007 19.1373 -0.301569
281 2 11.5166 19.1186 1.3122 11.5166 19.1186 1.3122
282 2 11.4873 19.1561 -1.94962 11.4873 19.1561 -1.94962
283 1 12.4525 17.4909 -0.346297 12.4525 17.4909 -0.346297
284 2 14.3641 17.4773 1.27266 14.3641 17.4773 1.27266
285 2 14.3436 17.5044 -1.98932 14.3436 17.5044 -1.98932
286 1 15.3045 19.1374 -0.350725 15.3045 19.1374 -0.350725
287 2 17.2105 19.1171 1.27478 17.2105 19.1171 1.27478
288 2 17.2012 19.1576 -1.98711 17.2012 19.1576 -1.98711
289 1 18.1565 17.4909 -0.379386 18.1565 17.4909 -0.379386
290 2 20.0572 17.4745 1.25245 20.0572 17.4745 1.25245
291 2 20.0586 17.5071 -2.00953 20.0586 17.5071 -2.00953
292 1 21.0086 19.1373 -0.361692 21.0086 19.1373 -0.361692
293 2 22.9027 19.1141 1.27767 22.9027 19.1141 1.27767
294 2 22.9172 19.1604 -1.98412 22.9172 19.1604 -1.98412
295 1 23.8606 17.4908 -0.372469 23.8606 17.4908 -0.372469
296 2 25.7501 17.4708 1.27223 25.7501 17.4708 1.27223
297 2 25.7738 17.5106 -1.9896 25.7738 17.5106 -1.9896
298 1 26.7126 19.1372 -0.33173 26.7126 19.1372 -0.33173
299 2 28.5973 19.1111 1.3184 28.5973 19.1111 1.3184
300 2 28.6304 19.163 -1.94318 28.6304 19.163 -1.94318
301 1 29.5645 17.4906 -0.329034 29.5645 17.4906 -0.329034
302 2 31.447 17.468 1.32364 31.447 17.468 1.32364
303 2 31.4845 17.5131 -1.938 31.4845 17.5131 -1.938
304 1 32.4163 19.1369 -0.273512 32.4163 19.1369 -0.273512
305 2 34.2979 19.1095 1.37998 34.2979 19.1095 1.37998
306 2 34.337 19.1642 -1.88151 34.337 19.1642 -1.88151
307 1 35.2681 17.4904 -0.267159 35.2681 17.4904 -0.267159
308 2 37.1511 17.4672 1.38483 37.1511 17.4672 1.38483
309 2 37.1875 17.5135 -1.87683 37.1875 17.5135 -1.87683
310 1 38.1198 19.1367 -0.212047 38.1198 19.1367 -0.212047
311 2 40.0068 19.1098 1.43522 40.0068 19.1098 1.43522
312 2 40.0352 19.1636 -1.82642 40.0352 19.1636 -1.82642
313 1 40.9716 17.4903 -0.214639 40.9716 17.4903 -0.214639
314 2 42.8632 17.4688 1.42743 42.8632 17.4688 1.42743
315 2 42.8825 17.5118 -1.83444 42.8825 17.5118 -1.83444
316 1 43.8234 19.1367 -0.176138 43.8234 19.1367 -0.176138
317 2 45.7223 19.1119 1.4573 45.7223 19.1119 1.4573
318 2 45.727 19.1615 -1.80453 45.727 19.1615 -1.80453
319 1 46.6753 17.4903 -0.197471 46.6753 17.4903 -0.197471
320 2 48.5798 17.4719 1.4295 48.5798 17.4719 1.4295
321 2 48.5732 17.5089 -1.8325 48.5732 17.5089 -1.8325
322 1 49.5271 19.1368 -0.184753 49.5271 19.1368 -0.184753
323 2 51.4389 19.115 1.43367 51.4389 19.115 1.43367
324 2 51.4178 19.1588 -1.82818 51.4178 19.1588 -1.82818
325 1 1.04549 20.7833 -0.181285 1.04549 20.7833 -0.181285
326 2 2.96275 20.7584 1.43058 2.96275 20.7584 1.43058
327 2 2.93057 20.8085 -1.83107 2.93057 20.8085 -1.83107
328 1 3.89729 22.4299 -0.184348 3.89729 22.4299 -0.184348
329 2 5.81745 22.402 1.42409 5.81745 22.402 1.42409
330 2 5.77945 22.4579 -1.83739 5.77945 22.4579 -1.83739
331 1 6.74897 20.7837 -0.246099 6.74897 20.7837 -0.246099
332 2 8.66798 20.7599 1.36381 8.66798 20.7599 1.36381
333 2 8.63232 20.8075 -1.89783 8.63232 20.8075 -1.89783
334 1 9.60078 22.4302 -0.253416 9.60078 22.4302 -0.253416
335 2 11.5174 22.4026 1.35941 11.5174 22.4026 1.35941
336 2 11.4867 22.4578 -1.90216 11.4867 22.4578 -1.90216
337 1 12.4526 20.7839 -0.308327 12.4526 20.7839 -0.308327
338 2 14.3641 20.7597 1.31055 14.3641 20.7597 1.31055
339 2 14.3436 20.8079 -1.95119 14.3436 20.8079 -1.95119
340 1 15.3046 22.4303 -0.30198 15.3046 22.4303 -0.30198
341 2 17.2103 22.4018 1.32372 17.2103 22.4018 1.32372
342 2 17.2015 22.4586 -1.93794 17.2015 22.4586 -1.93794
343 1 18.1565 20.7839 -0.338476 18.1565 20.7839 -0.338476
344 2 20.0561 20.7578 1.29447 20.0561 20.7578 1.29447
345 2 20.0596 20.8098 -1.96727 20.0596 20.8098 -1.96727
346 1 21.0086 22.4302 -0.309117 21.0086 22.4302 -0.309117
347 2 22.902 22.4 1.33099 22.902 22.4 1.33099
348 2 22.9178 22.4601 -1.93059 22.9178 22.4601 -1.93059
349 1 23.8606 20.7837 -0.325606 23.8606 20.7837 -0.325606
350 2 25.749 20.7552 1.32029 25.749 20.7552 1.32029
351 2 25.7748 20.812 -1.94128 25.7748 20.812 -1.94128
352 1 26.7125 22.4299 -0.274228 26.7125 22.4299 -0.274228
353 2 28.5968 22.3982 1.37629 28.5968 22.3982 1.37629
354 2 28.6306 22.4614 -1.8851 28.6306 22.4614 -1.8851
355 1 29.5644 20.7834 -0.276489 29.5644 20.7834 -0.276489
356 2 31.4464 20.7532 1.37655 31.4464 20.7532 1.37655
357 2 31.4847 20.8135 -1.88485 31.4847 20.8135 -1.88485
358 1 32.4161 22.4295 -0.212504 32.4161 22.4295 -0.212504
359 2 34.2981 22.3972 1.44049 34.2981 22.3972 1.44049
360 2 34.3364 22.4618 -1.82083 34.3364 22.4618 -1.82083
361 1 35.2679 20.7831 -0.21171 35.2679 20.7831 -0.21171
362 2 37.1516 20.7526 1.43937 37.1516 20.7526 1.43937
363 2 37.1866 20.8135 -1.82207 37.1866 20.8135 -1.82207
364 1 38.1196 22.4293 -0.15034 38.1196 22.4293 -0.15034
365 2 40.0079 22.3973 1.49543 40.0079 22.3973 1.49543
366 2 40.0338 22.4612 -1.76603 40.0338 22.4612 -1.76603
367 1 40.9715 20.783 -0.160159 40.9715 20.783 -0.160159
368 2 42.8648 20.7537 1.47982 42.8648 20.7537 1.47982
369 2 42.8807 20.8123 -1.78182 42.8807 20.8123 -1.78182
370 1 43.8234 22.4292 -0.116717 43.8234 22.4292 -0.116717
371 2 45.7242 22.3986 1.51448 45.7242 22.3986 1.51448
372 2 45.7251 22.46 -1.74714 45.7251 22.46 -1.74714
373 1 46.6753 20.783 -0.147254 46.6753 20.783 -0.147254
374 2 48.582 20.7559 1.477 48.582 20.7559 1.477
375 2 48.571 20.8103 -1.78473 48.571 20.8103 -1.78473
376 1 49.5272 22.4295 -0.129586 49.5272 22.4295 -0.129586
377 2 51.4409 22.4004 1.48641 51.4409 22.4004 1.48641
378 2 51.4159 22.4587 -1.77516 51.4159 22.4587 -1.77516
379 1 1.04559 24.0759 -0.122249 1.04559 24.0759 -0.122249
380 2 2.96439 24.0454 1.48776 2.96439 24.0454 1.48776
381 2 2.92915 24.1067 -1.77366 2.92915 24.1067 -1.77366
382 1 3.89744 25.7224 -0.122232 3.89744 25.7224 -0.122232
383 2 5.81865 25.6908 1.48495 5.81865 25.6908 1.48495
384 2 5.77855 25.7542 -1.77637 5.77855 25.7542 -1.77637
385 1 6.74909 24.0764 -0.189513 6.74909 24.0764 -0.189513
386 2 8.66918 24.0461 1.41905 8.66918 24.0461 1.41905
387 2 8.63135 24.1067 -1.84235 8.63135 24.1067 -1.84235
388 1 9.60093 25.7228 -0.192018 9.60093 25.7228 -0.192018
389 2 11.5183 25.6911 1.41979 11.5183 25.6911 1.41979
390 2 11.4859 25.7544 -1.84162 11.4859 25.7544 -1.84162
391 1 12.4527 24.0766 -0.252418 12.4527 24.0766 -0.252418
392 2 14.3647 24.0462 1.36585 14.3647 24.0462 1.36585
393 2 14.3432 24.107 -1.89569 14.3432 24.107 -1.89569
394 1 15.3046 25.7229 -0.240399 15.3046 25.7229 -0.240399
395 2 17.2109 25.6913 1.38465 17.2109 25.6913 1.38465
396 2 17.2009 25.7544 -1.87691 17.2009 25.7544 -1.87691
397 1 18.1566 24.0766 -0.280939 18.1566 24.0766 -0.280939
398 2 20.0561 24.0454 1.35206 20.0561 24.0454 1.35206
399 2 20.0597 24.1076 -1.90952 20.0597 24.1076 -1.90952
400 1 21.0085 25.7227 -0.246178 21.0085 25.7227 -0.246178
401 2 22.9023 25.691 1.39355 22.9023 25.691 1.39355
402 2 22.9174 25.7542 -1.86799 22.9174 25.7542 -1.86799
403 1 23.8605 24.0763 -0.264738 23.8605 24.0763 -0.264738
404 2 25.7488 24.0442 1.38127 25.7488 24.0442 1.38127
405 2 25.7748 24.1082 -1.88018 25.7748 24.1082 -1.88018
406 1 26.7123 25.7224 -0.209435 26.7123 25.7224 -0.209435
407 2 28.5971 25.6907 1.44056 28.5971 25.6907 1.44056
408 2 28.63 25.7539 -1.82084 28.63 25.7539 -1.82084
409 1 29.5642 24.076 -0.212535 29.5642 24.076 -0.212535
410 2 31.4466 24.0433 1.44014 31.4466 24.0433 1.44014
411 2 31.4842 24.1085 -1.82117 31.4842 24.1085 -1.82117
412 1 32.4159 25.722 -0.146534 32.4159 25.722 -0.146534
413 2 34.2987 25.6904 1.50564 34.2987 25.6904 1.50564
414 2 34.3354 25.7536 -1.75572 34.3354 25.7536 -1.75572
415 1 35.2678 24.0756 -0.146317 35.2678 24.0756 -0.146317
416 2 37.1524 24.043 1.50373 37.1524 24.043 1.50373
417 2 37.1856 24.1083 -1.75763 37.1856 24.1083 -1.75763
418 1 38.1195 25.7218 -0.0842076 38.1195 25.7218 -0.0842076
419 2 40.0088 25.6902 1.56041 40.0088 25.6902 1.56041
420 2 40.0327 25.7535 -1.70107 40.0327 25.7535 -1.70107
421 1 40.9714 24.0755 -0.0954268 40.9714 24.0755 -0.0954268
422 2 42.8662 24.0433 1.54288 42.8662 24.0433 1.54288
423 2 42.8792 24.1077 -1.71864 42.8792 24.1077 -1.71864
424 1 43.8233 25.7218 -0.0514811 43.8233 25.7218 -0.0514811
425 2 45.7254 25.6902 1.57828 45.7254 25.6902 1.57828
426 2 45.7239 25.7535 -1.68328 45.7239 25.7535 -1.68328
427 1 46.6753 24.0756 -0.0850139 46.6753 24.0756 -0.0850139
428 2 48.5837 24.0443 1.53724 48.5837 24.0443 1.53724
429 2 48.5694 24.1071 -1.72431 48.5694 24.1071 -1.72431
430 1 49.5272 25.722 -0.0659742 49.5272 25.722 -0.0659742
431 2 51.4423 25.6905 1.54855 51.4423 25.6905 1.54855
432 2 51.4147 25.7537 -1.7129 51.4147 25.7537 -1.7129
433 1 1.04572 27.3685 -0.0582496 1.04572 27.3685 -0.0582496
434 2 2.9653 27.3373 1.5509 2.9653 27.3373 1.5509
435 2 2.92854 27.3999 -1.71047 2.92854 27.3999 -1.71047
436 1 3.89761 29.015 -0.0588281 3.89761 29.015 -0.0588281
437 2 5.8193 28.9849 1.54787 5.8193 28.9849 1.54787
438 2 5.77826 29.0453 -1.71349 5.77826 29.0453 -1.71349
439 1 6.74927 27.3689 -0.125361 6.74927 27.3689 -0.125361
440 2 8.67016 27.3372 1.48227 8.67016 27.3372 1.48227
441 2 8.63071 27.4007 -1.77906 8.63071 27.4007 -1.77906
442 1 9.60111 29.0153 -0.127766 9.60111 29.0153 -0.127766
443 2 11.5195 28.9851 1.483 11.5195 28.9851 1.483
444 2 11.4851 29.0456 -1.77845 11.4851 29.0456 -1.77845
445 1 12.4528 27.3691 -0.18831 12.4528 27.3691 -0.18831
446 2 14.3658 27.3378 1.42888 14.3658 27.3378 1.42888
447 2 14.3424 27.4004 -1.83263 14.3424 27.4004 -1.83263
448 1 15.3047 29.0154 -0.176907 15.3047 29.0154 -0.176907
449 2 17.2123 28.9864 1.44671 17.2123 28.9864 1.44671
450 2 17.1997 29.0443 -1.81495 17.1997 29.0443 -1.81495
451 1 18.1566 27.3691 -0.217073 18.1566 27.3691 -0.217073
452 2 20.057 27.3385 1.41496 20.057 27.3385 1.41496
453 2 20.0588 27.3995 -1.84666 20.0588 27.3995 -1.84666
454 1 21.0085 29.0153 -0.18431 21.0085 29.0153 -0.18431
455 2 22.9035 28.9879 1.45402 22.9035 28.9879 1.45402
456 2 22.916 29.0425 -1.8077 22.916 29.0425 -1.8077
457 1 23.8604 27.3688 -0.200772 23.8604 27.3688 -0.200772
458 2 25.7495 27.339 1.44434 25.7495 27.339 1.44434
459 2 25.7738 27.3985 -1.81722 25.7738 27.3985 -1.81722
460 1 26.7122 29.015 -0.149103 26.7122 29.015 -0.149103
461 2 28.5982 28.989 1.49966 28.5982 28.989 1.49966
462 2 28.6286 29.0408 -1.76198 28.6286 29.0408 -1.76198
463 1 29.5641 27.3685 -0.148463 29.5641 27.3685 -0.148463
464 2 31.4473 27.3392 1.5033 31.4473 27.3392 1.5033
465 2 31.4832 27.3977 -1.75817 31.4832 27.3977 -1.75817
466 1 32.4158 29.0147 -0.0873012 32.4158 29.0147 -0.0873012
467 2 34.2995 28.9893 1.56397 34.2995 28.9893 1.56397
468 2 34.3344 29.04 -1.69762 34.3344 29.04 -1.69762
469 1 35.2676 27.3682 -0.0822726 35.2676 27.3682 -0.0822726
470 2 37.1531 27.339 1.56691 37.1531 27.339 1.56691
471 2 37.1846 27.3974 -1.69459 37.1846 27.3974 -1.69459
472 1 38.1194 29.0145 -0.025023 38.1194 29.0145 -0.025023
473 2 40.0093 28.9886 1.61909 40.0093 28.9886 1.61909
474 2 40.032 29.0405 -1.64258 40.032 29.0405 -1.64258
475 1 40.9713 27.3681 -0.0313436 40.9713 27.3681 -0.0313436
476 2 42.8669 27.3384 1.60609 42.8669 27.3384 1.60609
477 2 42.8784 27.3979 -1.65551 42.8784 27.3979 -1.65551
478 1 43.8233 29.0145 0.00874326 43.8233 29.0145 0.00874326
479 2 45.7258 28.9872 1.63822 45.7258 28.9872 1.63822
480 2 45.7235 29.0419 -1.62348 45.7235 29.0419 -1.62348
481 1 46.6753 27.3682 -0.0209692 46.6753 27.3682 -0.0209692
482 2 48.5846 27.3377 1.60039 48.5846 27.3377 1.60039
483 2 48.5686 27.3988 -1.66117 48.5686 27.3988 -1.66117
484 1 49.5273 29.0147 -0.00417124 49.5273 29.0147 -0.00417124
485 2 51.4427 28.9857 1.61009 51.4427 28.9857 1.61009
486 2 51.4145 29.0438 -1.65144 51.4145 29.0438 -1.65144
487 1 1.04585 30.6612 0.000467226 1.04585 30.6612 0.000467226
488 2 2.9654 30.6344 1.6098 2.9654 30.6344 1.6098
489 2 2.92875 30.6882 -1.65171 2.92875 30.6882 -1.65171
490 1 3.89777 32.3078 -0.00441095 3.89777 32.3078 -0.00441095
491 2 5.8194 32.2841 1.60253 5.8194 32.2841 1.60253
492 2 5.77851 32.3316 -1.65904 5.77851 32.3316 -1.65904
493 1 6.74946 30.6615 -0.0641661 6.74946 30.6615 -0.0641661
494 2 8.67092 30.6338 1.54291 8.67092 30.6338 1.54291
495 2 8.63033 30.6894 -1.71854 8.63033 30.6894 -1.71854
496 1 9.6013 32.308 -0.0714415 9.6013 32.308 -0.0714415
497 2 11.5207 32.2844 1.53825 11.5207 32.2844 1.53825
498 2 11.4843 32.3317 -1.72339 11.4843 32.3317 -1.72339
499 1 12.453 30.6617 -0.127067 12.453 30.6617 -0.127067
500 2 14.3673 30.6349 1.48862 14.3673 30.6349 1.48862
501 2 14.3411 30.6885 -1.77304 14.3411 30.6885 -1.77304
502 1 15.3049 32.3081 -0.122617 15.3049 32.3081 -0.122617
503 2 17.2143 32.2868 1.4989 17.2143 32.2868 1.4989
504 2 17.1978 32.3294 -1.76299 17.1978 32.3294 -1.76299
505 1 18.1567 30.6617 -0.158363 18.1567 30.6617 -0.158363
506 2 20.0587 30.6372 1.47179 20.0587 30.6372 1.47179
507 2 20.0571 30.6861 -1.79006 20.0571 30.6861 -1.79006
508 1 21.0085 32.308 -0.134704 21.0085 32.308 -0.134704
509 2 22.9056 32.2898 1.50139 22.9056 32.2898 1.50139
510 2 22.914 32.326 -1.76061 22.914 32.326 -1.76061
511 1 23.8604 30.6615 -0.145428 23.8604 30.6615 -0.145428
512 2 25.7511 30.6393 1.49798 25.7511 30.6393 1.49798
513 2 25.7721 30.6835 -1.76386 25.7721 30.6835 -1.76386
514 1 26.7122 32.3078 -0.104268 26.7122 32.3078 -0.104268
515 2 28.5998 32.2922 1.54278 28.5998 32.2922 1.54278
516 2 28.627 32.3233 -1.71916 28.627 32.3233 -1.71916
517 1 29.564 30.6612 -0.0959054 29.564 30.6612 -0.0959054
518 2 31.4484 30.6405 1.55464 31.4484 30.6405 1.55464
519 2 31.4819 30.6818 -1.70712 31.4819 30.6818 -1.70712
520 1 32.4157 32.3076 -0.0454637 32.4157 32.3076 -0.0454637
521 2 34.3002 32.2929 1.60506 34.3002 32.2929 1.60506
522 2 34.3335 32.3222 -1.65682 34.3335 32.3222 -1.65682
523 1 35.2675 30.661 -0.0308684 35.2675 30.661 -0.0308684
524 2 37.1535 30.6403 1.61786 37.1535 30.6403 1.61786
525 2 37.1839 30.6817 -1.64391 37.1839 30.6817 -1.64391
526 1 38.1193 32.3074 0.0168686 38.1193 32.3074 0.0168686
527 2 40.0091 32.2917 1.6613 40.0091 32.2917 1.6613
528 2 40.0321 32.3232 -1.60063 40.0321 32.3232 -1.60063
529 1 40.9713 30.6609 0.0211863 40.9713 30.6609 0.0211863
530 2 42.8669 30.6387 1.6588 42.8669 30.6387 1.6588
531 2 42.8783 30.6832 -1.60303 42.8783 30.6832 -1.60303
532 1 43.8233 32.3074 0.0538078 43.8233 32.3074 0.0538078
533 2 45.7251 32.289 1.68427 45.7251 32.289 1.68427
534 2 45.7242 32.326 -1.57767 45.7242 32.326 -1.57767
535 1 46.6753 30.661 0.0344089 46.6753 30.661 0.0344089
536 2 48.5844 30.6364 1.65617 48.5844 30.6364 1.65617
537 2 48.5689 30.6857 -1.60557 48.5689 30.6857 -1.60557
538 1 49.5274 32.3075 0.0457651 49.5274 32.3075 0.0457651