ITEM: TIMESTEP
69000
ITEM: NUMBER OF ATOMS
810
ITEM: BOX BOUNDS pp pp pp
8.4399984647086534e-01 5.2173605153526779e+01
8.1581500309092780e-01 5.0200399996908430e+01
-1.0000000000000000e+01 1.0000000000000000e+01
ITEM: ATOMS id type x y z xu yu zu
1 1 1.04793 1.03063 -0.269598 1.04793 1.03063 -0.269598
2 2 2.93194 0.983115 1.38087 2.93194 0.983115 1.38087
3 2 2.96619 1.07827 -1.87975 2.96619 1.07827 -1.87975
4 1 3.89946 2.67637 -0.191215 3.89946 2.67637 -0.191215
5 2 5.77739 2.63028 1.4662 5.77739 2.63028 1.4662
6 2 5.82357 2.72258 -1.79436 5.82357 2.72258 -1.79436
7 1 6.75117 1.03048 -0.197291 6.75117 1.03048 -0.197291
8 2 8.62435 0.983157 1.46541 8.62435 0.983157 1.46541
9 2 8.67991 1.07783 -1.79493 8.67991 1.07783 -1.79493
10 1 9.6024 2.67608 -0.100571 9.6024 2.67608 -0.100571
11 2 11.4754 2.63017 1.56235 11.4754 2.63017 1.56235
12 2 11.5313 2.72196 -1.69806 11.5313 2.72196 -1.69806
13 1 12.454 1.03002 -0.0979897 12.454 1.03002 -0.0979897
14 2 14.3289 0.983235 1.56279 14.3289 0.983235 1.56279
15 2 14.3812 1.07667 -1.69763 14.3812 1.07667 -1.69763
16 1 15.3054 2.67554 -0.00481617 15.3054 2.67554 -0.00481617
17 2 17.1873 2.63048 1.64804 17.1873 2.63048 1.64804
18 2 17.2258 2.72046 -1.61265 17.2258 2.72046 -1.61265
19 1 18.1572 1.02942 -0.0165864 18.1572 1.02942 -0.0165864
20 2 20.0472 0.983124 1.62678 20.0472 0.983124 1.62678
21 2 20.0696 1.07553 -1.63401 20.0696 1.07553 -1.63401
22 1 21.009 2.67504 0.0497013 21.009 2.67504 0.0497013
23 2 22.9106 2.63086 1.67984 22.9106 2.63086 1.67984
24 2 22.9102 2.71911 -1.58112 22.9102 2.71911 -1.58112
25 1 23.861 1.02904 0.00457078 23.861 1.02904 0.00457078
26 2 25.7725 0.982966 1.62279 25.7725 0.982966 1.62279
27 2 25.7519 1.07503 -1.63802 25.7519 1.07503 -1.63802
28 1 26.7129 2.6749 0.0329659 26.7129 2.6749 0.0329659
29 2 28.6345 2.6313 1.63946 28.6345 2.6313 1.63946
30 2 28.5938 2.7185 -1.62128 28.5938 2.7185 -1.62128
31 1 29.5645 1.02912 -0.0469209 29.5645 1.02912 -0.0469209
32 2 31.492 0.983026 1.55237 31.492 0.983026 1.55237
33 2 31.4392 1.07524 -1.70808 31.4392 1.07524 -1.70808
34 1 32.4162 2.67516 -0.0465651 32.4162 2.67516 -0.0465651
35 2 34.3473 2.63163 1.54847 34.3473 2.63163 1.54847
36 2 34.2871 2.71878 -1.71199 34.2871 2.71878 -1.71199
37 1 35.2675 1.02954 -0.143421 35.2675 1.02954 -0.143421
38 2 37.1975 0.983109 1.45276 37.1975 0.983109 1.45276
39 2 37.1393 1.07607 -1.80759 37.1393 1.07607 -1.80759
40 1 38.1191 2.67563 -0.147315 38.1191 2.67563 -0.147315
41 2 40.0457 2.6316 1.45311 40.0457 2.6316 1.45311
42 2 39.9944 2.71978 -1.8075 39.9944 2.71978 -1.8075
43 1 40.9704 1.03006 -0.236758 40.9704 1.03006 -0.236758
44 2 42.8901 0.983095 1.37195 42.8901 0.983095 1.37195
45 2 42.8529 1.07716 -1.88868 42.8529 1.07716 -1.88868
46 1 43.8222 2.67607 -0.221551 43.8222 2.67607 -0.221551
47 2 45.7338 2.63124 1.39682 45.7338 2.63124 1.39682
48 2 45.7128 2.72107 -1.86409 45.7128 2.72107 -1.86409
49 1 46.6739 1.03046 -0.285178 46.6739 1.03046 -0.285178
50 2 48.5758 0.983081 1.34466 48.5758 0.983081 1.34466
51 2 48.5745 1.078 -1.91616 48.5745 1.078 -1.91616
52 1 49.5257 2.67635 -0.238012 49.5257 2.67635 -0.238012
53 2 51.4186 2.63074 1.40225 51.4186 2.63074 1.40225
54 2 51.4351 2.72214 -1.85864 51.4351 2.72214 -1.85864
55 1 1.04771 4.32223 -0.177042 1.04771 4.32223 -0.177042
56 2 2.93259 4.27998 1.47259 2.93259 4.27998 1.47259
57 2 2.96498 4.36466 -1.78837 2.96498 4.36466 -1.78837
58 1 3.89914 5.96815 -0.105469 3.89914 5.96815 -0.105469
59 2 5.77774 5.93079 1.55144 5.77774 5.93079 1.55144
60 2 5.82252 6.00565 -1.70961 5.82252 6.00565 -1.70961
61 1 6.75078 4.3221 -0.1038 6.75078 4.3221 -0.1038
62 2 8.62523 4.27925 1.55764 8.62523 4.27925 1.55764
63 2 8.67825 4.36504 -1.70299 8.67825 4.36504 -1.70299
64 1 9.602 5.96791 -0.0136765 9.602 5.96791 -0.0136765
65 2 11.4764 5.93019 1.64801 11.4764 5.93019 1.64801
66 2 11.5296 6.00566 -1.61286 11.5296 6.00566 -1.61286
67 1 12.4537 4.3217 -0.00500447 12.4537 4.3217 -0.00500447
68 2 14.3302 4.27938 1.65402 14.3302 4.27938 1.65402
69 2 14.3792 4.36398 -1.60667 14.3792 4.36398 -1.60667
70 1 15.3051 5.96749 0.0808976 15.3051 5.96749 0.0808976
71 2 17.1888 5.93086 1.73193 17.1888 5.93086 1.73193
72 2 17.2238 6.00407 -1.5292 17.2238 6.00407 -1.5292
73 1 18.157 4.3212 0.0745625 18.157 4.3212 0.0745625
74 2 20.0488 4.28016 1.71615 20.0488 4.28016 1.71615
75 2 20.0679 4.36214 -1.5449 20.0679 4.36214 -1.5449
76 1 21.009 5.96713 0.132751 21.009 5.96713 0.132751
77 2 22.9124 5.93222 1.76107 22.9124 5.93222 1.76107
78 2 22.9084 6.002 -1.5003 22.9084 6.002 -1.5003
79 1 23.8611 4.3209 0.0939433 23.8611 4.3209 0.0939433
80 2 25.7741 4.2811 1.71064 25.7741 4.2811 1.71064
81 2 25.7506 4.36068 -1.55044 25.7506 4.36068 -1.55044
82 1 26.7131 5.96704 0.113572 26.7131 5.96704 0.113572
83 2 28.6362 5.93356 1.71859 28.6362 5.93356 1.71859
84 2 28.5925 6.00057 -1.54256 28.5925 6.00057 -1.54256
85 1 29.5648 4.32098 0.041397 29.5648 4.32098 0.041397
86 2 31.4935 4.2819 1.63948 31.4935 4.2819 1.63948
87 2 31.4382 4.36013 -1.62127 31.4382 4.36013 -1.62127
88 1 32.4165 5.96725 0.032662 32.4165 5.96725 0.032662
89 2 34.3487 5.93441 1.62671 34.3487 5.93441 1.62671
90 2 34.2862 6.00018 -1.6342 34.2862 6.00018 -1.6342
91 1 35.2678 4.32133 -0.0551712 35.2678 4.32133 -0.0551712
92 2 37.1988 4.2822 1.54017 37.1988 4.2822 1.54017
93 2 37.1387 4.36058 -1.72053 37.1387 4.36058 -1.72053
94 1 38.1193 5.9676 -0.0679398 38.1193 5.9676 -0.0679398
95 2 40.0466 5.93441 1.53201 40.0466 5.93441 1.53201
96 2 39.9939 6.0009 -1.72911 39.9939 6.0009 -1.72911
97 1 40.9707 4.32175 -0.14747 40.9707 4.32175 -0.14747
98 2 42.8911 4.28183 1.46064 42.8911 4.28183 1.46064
99 2 42.8523 4.36183 -1.80038 42.8523 4.36183 -1.80038
100 1 43.8223 5.96792 -0.140562 43.8223 5.96792 -0.140562
101 2 45.7343 5.93356 1.47763 45.7343 5.93356 1.47763
102 2 45.7124 6.00245 -1.78381 45.7124 6.00245 -1.78381
103 1 46.6739 4.32209 -0.194212 46.6739 4.32209 -0.194212
104 2 48.5765 4.28099 1.435 48.5765 4.28099 1.435
105 2 48.5737 4.36337 -1.82619 48.5737 4.36337 -1.82619
106 1 49.5256 5.96813 -0.154604 49.5256 5.96813 -0.154604
107 2 51.4189 5.93218 1.48547 51.4189 5.93218 1.48547
108 2 51.4345 6.00427 -1.77594 51.4345 6.00427 -1.77594
109 1 1.0475 7.61424 -0.104074 1.0475 7.61424 -0.104074
110 2 2.93244 7.58466 1.54578 2.93244 7.58466 1.54578
111 2 2.96462 7.64399 -1.71576 2.96462 7.64399 -1.71576
112 1 3.89888 9.26045 -0.0454268 3.89888 9.26045 -0.0454268
113 2 5.77731 9.2383 1.61198 5.77731 9.2383 1.61198
114 2 5.82238 9.28272 -1.64963 5.82238 9.28272 -1.64963
115 1 6.75042 7.61416 -0.0279934 6.75042 7.61416 -0.0279934
116 2 8.62549 7.58321 1.63306 8.62549 7.58321 1.63306
117 2 8.67728 7.6452 -1.62813 8.67728 7.6452 -1.62813
118 1 9.60167 9.26032 0.0491062 9.60167 9.26032 0.0491062
119 2 11.4768 9.23723 1.7103 11.4768 9.23723 1.7103
120 2 11.5286 9.28345 -1.55113 11.5286 9.28345 -1.55113
121 1 12.4533 7.61388 0.0714474 12.4533 7.61388 0.0714474
122 2 14.3314 7.58315 1.72909 14.3314 7.58315 1.72909
123 2 14.3775 7.64461 -1.53214 14.3775 7.64461 -1.53214
124 1 15.3049 9.26008 0.143182 15.3049 9.26008 0.143182
125 2 17.1903 9.23799 1.7926 17.1903 9.23799 1.7926
126 2 17.222 9.28214 -1.46906 17.222 9.28214 -1.46906
127 1 18.1569 7.61354 0.148753 18.1569 7.61354 0.148753
128 2 20.0507 7.58452 1.78841 20.0507 7.58452 1.78841
129 2 20.0659 7.64254 -1.47314 20.0659 7.64254 -1.47314
130 1 21.0089 9.25987 0.191568 21.0089 9.25987 0.191568
131 2 22.9143 9.24 1.81791 22.9143 9.24 1.81791
132 2 22.9065 9.27975 -1.44393 22.9065 9.27975 -1.44393
133 1 23.8611 7.61336 0.16465 23.8611 7.61336 0.16465
134 2 25.776 7.58634 1.77956 25.776 7.58634 1.77956
135 2 25.7489 7.6404 -1.48198 25.7489 7.6404 -1.48198
136 1 26.7132 9.25983 0.16836 26.7132 9.25983 0.16836
137 2 28.6379 9.24199 1.77175 28.6379 9.24199 1.77175
138 2 28.591 9.2777 -1.48983 28.591 9.2777 -1.48983
139 1 29.565 7.61342 0.109277 29.565 7.61342 0.109277
140 2 31.495 7.5878 1.70607 31.495 7.5878 1.70607
141 2 31.4371 7.63911 -1.55516 31.4371 7.63911 -1.55516
142 1 32.4167 9.25994 0.0846429 32.4167 9.25994 0.0846429
143 2 34.3499 9.24327 1.67773 34.3499 9.24327 1.67773
144 2 34.2853 9.27666 -1.58363 34.2853 9.27666 -1.58363
145 1 35.268 7.61365 0.0114349 35.268 7.61365 0.0114349
146 2 37.1998 7.58841 1.60615 37.1998 7.58841 1.60615
147 2 37.1381 7.63898 -1.65507 37.1381 7.63898 -1.65507
148 1 38.1195 9.26011 -0.016728 38.1195 9.26011 -0.016728
149 2 40.0471 9.2434 1.58306 40.0471 9.2434 1.58306
150 2 39.9936 9.27689 -1.67856 39.9936 9.27689 -1.67856
151 1 40.9708 7.61392 -0.0801517 40.9708 7.61392 -0.0801517
152 2 42.8915 7.58791 1.52793 42.8915 7.58791 1.52793
153 2 42.8521 7.64004 -1.73366 42.8521 7.64004 -1.73366
154 1 43.8223 9.26028 -0.08781 43.8223 9.26028 -0.08781
155 2 45.7342 9.24232 1.53087 45.7342 9.24232 1.53087
156 2 45.7125 9.27835 -1.73113 45.7125 9.27835 -1.73113
157 1 46.6739 7.61414 -0.124482 46.6739 7.61414 -0.124482
158 2 48.5765 7.58651 1.50502 48.5765 7.58651 1.50502
159 2 48.5735 7.64193 -1.75677 48.5735 7.64193 -1.75677
160 1 49.5255 9.26042 -0.0985281 49.5255 9.26042 -0.0985281
161 2 51.4184 9.24039 1.54231 51.4184 9.24039 1.54231
162 2 51.4347 9.2806 -1.71967 51.4347 9.2806 -1.71967
163 1 1.04735 10.9068 -0.0634136 1.04735 10.9068 -0.0634136
164 2 2.93149 10.8949 1.58758 2.93149 10.8949 1.58758
165 2 2.96519 10.9187 -1.6744 2.96519 10.9187 -1.6744
166 1 3.89873 12.5532 -0.0213553 3.89873 12.5532 -0.0213553
167 2 5.77616 12.5499 1.63735 5.77616 12.5499 1.63735
168 2 5.82319 12.5566 -1.62453 5.82319 12.5566 -1.62453
169 1 6.75016 10.9068 0.0169648 6.75016 10.9068 0.0169648
170 2 8.62502 10.893 1.67852 8.62502 10.893 1.67852
171 2 8.67722 10.9206 -1.58313 8.67722 10.9206 -1.58313
172 1 9.60147 12.5532 0.0770815 9.60147 12.5532 0.0770815
173 2 11.4765 12.5486 1.73849 11.4765 12.5486 1.73849
174 2 11.5285 12.5579 -1.52324 11.5285 12.5579 -1.52324
175 1 12.4531 10.9067 0.11828 12.4531 10.9067 0.11828
176 2 14.3321 10.8927 1.77512 14.3321 10.8927 1.77512
177 2 14.3764 10.9206 -1.48659 14.3764 10.9206 -1.48659
178 1 15.3047 12.5532 0.171453 15.3047 12.5532 0.171453
179 2 17.1914 12.5494 1.81963 17.1914 12.5494 1.81963
180 2 17.2207 12.5569 -1.44232 17.2207 12.5569 -1.44232
181 1 18.1568 10.9065 0.19353 18.1568 10.9065 0.19353
182 2 20.0524 10.8944 1.83135 20.0524 10.8944 1.83135
183 2 20.064 10.9186 -1.43063 20.064 10.9186 -1.43063
184 1 21.0089 12.5531 0.216175 21.0089 12.5531 0.216175
185 2 22.9161 12.5517 1.8406 22.9161 12.5517 1.8406
186 2 22.9047 12.5545 -1.42145 22.9047 12.5545 -1.42145
187 1 23.8611 10.9064 0.204965 23.8611 10.9064 0.204965
188 2 25.7779 10.8967 1.818 25.7779 10.8967 1.818
189 2 25.7472 10.9161 -1.44388 25.7472 10.9161 -1.44388
190 1 26.7132 12.5531 0.188078 26.7132 12.5531 0.188078
191 2 28.6394 12.554 1.78988 28.6394 12.554 1.78988
192 2 28.5896 12.5522 -1.47185 28.5896 12.5522 -1.47185
193 1 29.5651 10.9064 0.145481 29.5651 10.9064 0.145481
194 2 31.4964 10.8986 1.74095 31.4964 10.8986 1.74095
195 2 31.4359 10.9143 -1.52058 31.4359 10.9143 -1.52058
196 1 32.4167 12.553 0.100645 32.4167 12.553 0.100645
197 2 34.3507 12.5553 1.69285 34.3507 12.5553 1.69285
198 2 34.2845 12.5507 -1.56864 34.2845 12.5507 -1.56864
199 1 35.2681 10.9065 0.045261 35.2681 10.9065 0.045261
200 2 37.2005 10.8994 1.63948 37.2005 10.8994 1.63948
201 2 37.1375 10.9136 -1.62209 37.1375 10.9136 -1.62209
202 1 38.1195 12.553 -0.00229158 38.1195 12.553 -0.00229158
203 2 40.0472 12.5555 1.59755 40.0472 12.5555 1.59755
204 2 39.9935 12.5505 -1.66424 39.9935 12.5505 -1.66424
205 1 40.9709 10.9066 -0.0462595 40.9709 10.9066 -0.0462595
206 2 42.8914 10.8989 1.5622 42.8914 10.8989 1.5622
207 2 42.8523 10.9143 -1.69979 42.8523 10.9143 -1.69979
208 1 43.8223 12.553 -0.0722298 43.8223 12.553 -0.0722298
209 2 45.7335 12.5544 1.54738 45.7335 12.5544 1.54738
210 2 45.7132 12.5517 -1.71483 45.7132 12.5517 -1.71483
211 1 46.6739 10.9067 -0.0880463 46.6739 10.9067 -0.0880463
212 2 48.5758 10.8972 1.54245 48.5758 10.8972 1.54245
213 2 48.5741 10.9162 -1.71977 48.5741 10.9162 -1.71977
214 1 49.5254 12.5531 -0.0793561 49.5254 12.5531 -0.0793561
215 2 51.4172 12.5523 1.56294 51.4172 12.5523 1.56294
216 2 51.4357 12.554 -1.69928 51.4357 12.554 -1.69928
217 1 1.04729 14.1995 -0.0617089 1.04729 14.1995 -0.0617089
218 2 2.92994 14.2072 1.59103 2.92994 14.2072 1.59103
219 2 2.9666 14.192 -1.67098 2.9666 14.192 -1.67098
220 1 3.89872 15.846 -0.0368096 3.89872 15.846 -0.0368096
221 2 5.77455 15.8618 1.62363 5.77455 15.8618 1.62363
222 2 5.82475 15.8302 -1.63805 5.82475 15.8302 -1.63805
223 1 6.75006 14.1997 0.0236638 6.75006 14.1997 0.0236638
224 2 8.62395 14.2052 1.68637 8.62395 14.2052 1.68637
225 2 8.67806 14.1942 -1.57535 8.67806 14.1942 -1.57535
226 1 9.60144 15.8463 0.065856 9.60144 15.8463 0.065856
227 2 11.4758 15.8608 1.72796 11.4758 15.8608 1.72796
228 2 11.5291 15.8317 -1.53363 11.5291 15.8317 -1.53363
229 1 12.4529 14.1998 0.127627 12.4529 14.1998 0.127627
230 2 14.3323 14.205 1.78417 14.3323 14.205 1.78417
231 2 14.376 14.1945 -1.47764 14.376 14.1945 -1.47764
232 1 15.3047 15.8464 0.160867 15.3047 15.8464 0.160867
233 2 17.1921 15.8618 1.8082 17.1921 15.8618 1.8082
234 2 17.2201 15.831 -1.45363 17.2201 15.831 -1.45363
235 1 18.1567 14.1998 0.201153 18.1567 14.1998 0.201153
236 2 20.0537 14.2068 1.8374 20.0537 14.2068 1.8374
237 2 20.0626 14.1928 -1.42464 20.0626 14.1928 -1.42464
238 1 21.0089 15.8465 0.202009 21.0089 15.8465 0.202009
239 2 22.9173 15.8641 1.82483 22.9173 15.8641 1.82483
240 2 22.9034 15.8287 -1.43703 22.9034 15.8287 -1.43703
241 1 23.8611 14.1998 0.207811 23.8611 14.1998 0.207811
242 2 25.7793 14.2092 1.81913 25.7793 14.2092 1.81913
243 2 25.7457 14.1903 -1.44273 25.7457 14.1903 -1.44273
244 1 26.7132 15.8463 0.168926 26.7132 15.8463 0.168926
245 2 28.6403 15.866 1.76944 28.6403 15.866 1.76944
246 2 28.5885 15.8265 -1.49202 28.5885 15.8265 -1.49202
247 1 29.5651 14.1997 0.143706 29.5651 14.1997 0.143706
248 2 31.4974 14.2109 1.73802 31.4974 14.2109 1.73802
249 2 31.4349 14.1883 -1.52344 31.4349 14.1883 -1.52344
250 1 32.4166 15.8461 0.0777313 32.4166 15.8461 0.0777313
251 2 34.351 15.867 1.66935 34.351 15.867 1.66935
252 2 34.284 15.825 -1.59186 34.284 15.825 -1.59186
253 1 35.2681 14.1995 0.0405914 35.2681 14.1995 0.0405914
254 2 37.2007 14.2116 1.63449 37.2007 14.2116 1.63449
255 2 37.1372 14.1873 -1.62701 37.1372 14.1873 -1.62701
256 1 38.1193 15.8458 -0.0269428 38.1193 15.8458 -0.0269428
257 2 40.0467 15.8669 1.5732 40.0467 15.8669 1.5732
258 2 39.9938 15.8246 -1.68833 39.9938 15.8246 -1.68833
259 1 40.9708 14.1994 -0.0513729 40.9708 14.1994 -0.0513729
260 2 42.8908 14.2111 1.55773 42.8908 14.2111 1.55773
261 2 42.8528 14.1876 -1.70422 42.8528 14.1876 -1.70422
262 1 43.8222 15.8457 -0.0960502 43.8222 15.8457 -0.0960502
263 2 45.7323 15.8658 1.52476 45.7323 15.8658 1.52476
264 2 45.7143 15.8255 -1.73721 45.7143 15.8255 -1.73721
265 1 46.6738 14.1994 -0.0908481 46.6738 14.1994 -0.0908481
266 2 48.5745 14.2095 1.54109 48.5745 14.2095 1.54109
267 2 48.5753 14.1894 -1.72112 48.5753 14.1894 -1.72112
268 1 49.5254 15.8458 -0.0997972 49.5254 15.8458 -0.0997972
269 2 51.4155 15.8639 1.54431 51.4155 15.8639 1.54431
270 2 51.4374 15.8277 -1.71767 51.4374 15.8277 -1.71767
271 1 1.04735 17.4921 -0.0984958 1.04735 17.4921 -0.0984958
272 2 2.92813 17.5176 1.55619 2.92813 17.5176 1.55619
273 2 2.96852 17.4666 -1.7054 2.96852 17.4666 -1.7054
274 1 3.89887 19.1384 -0.0884714 3.89887 19.1384 -0.0884714
275 2 5.77289 19.1706 1.57376 5.77289 19.1706 1.57376
276 2 5.82669 19.1064 -1.68737 5.82669 19.1064 -1.68737
277 1 6.75013 17.4925 -0.00842885 6.75013 17.4925 -0.00842885
278 2 8.6226 17.5162 1.6557 8.6226 17.5162 1.6557
279 2 8.67952 17.4687 -1.60564 8.67952 17.4687 -1.60564
280 1 9.60158 19.1389 0.0177238 9.60158 19.1389 0.0177238
281 2 11.4749 19.1702 1.68072 11.4749 19.1702 1.68072
282 2 11.5303 19.1076 -1.58037 11.5303 19.1076 -1.58037
283 1 12.453 17.4928 0.0981106 12.453 17.4928 0.0981106
284 2 14.3321 17.5164 1.75473 14.3321 17.5164 1.75473
285 2 14.3762 17.4692 -1.50676 14.3762 17.4692 -1.50676
286 1 15.3048 19.1393 0.113101 15.3048 19.1393 0.113101
287 2 17.1923 19.1713 1.76 17.1923 19.1713 1.76
288 2 17.22 19.1071 -1.50136 17.22 19.1071 -1.50136
289 1 18.1568 17.493 0.170008 18.1568 17.493 0.170008
290 2 20.0546 17.5182 1.80509 20.0546 17.5182 1.80509
291 2 20.0618 17.4677 -1.4566 20.0618 17.4677 -1.4566
292 1 21.0089 19.1394 0.150901 21.0089 19.1394 0.150901
293 2 22.9179 19.1733 1.77268 22.9179 19.1733 1.77268
294 2 22.9028 19.1052 -1.48868 22.9028 19.1052 -1.48868
295 1 23.8611 17.4929 0.172092 23.8611 17.4929 0.172092
296 2 25.7801 17.5203 1.78214 25.7801 17.5203 1.78214
297 2 25.7448 17.4654 -1.47931 25.7448 17.4654 -1.47931
298 1 26.7131 19.1391 0.113424 26.7131 19.1391 0.113424
299 2 28.6404 19.1746 1.71331 28.6404 19.1746 1.71331
300 2 28.588 19.1034 -1.54762 28.588 19.1034 -1.54762
301 1 29.5649 17.4926 0.10371 29.5649 17.4926 0.10371
302 2 31.4975 17.5214 1.69736 31.4975 17.5214 1.69736
303 2 31.4343 17.4637 -1.56366 31.4343 17.4637 -1.56366
304 1 32.4163 19.1386 0.0192864 32.4163 19.1386 0.0192864
305 2 34.3504 19.1748 1.61095 34.3504 19.1748 1.61095
306 2 34.284 19.1022 -1.64974 34.284 19.1022 -1.64974
307 1 35.2678 17.4922 -0.00191715 35.2678 17.4922 -0.00191715
308 2 37.2002 17.5215 1.59205 37.2002 17.5215 1.59205
309 2 37.1373 17.4628 -1.66902 37.1373 17.4628 -1.66902
310 1 38.1191 19.1382 -0.086475 38.1191 19.1382 -0.086475
311 2 40.0456 19.1743 1.51439 40.0456 19.1743 1.51439
312 2 39.9945 19.1019 -1.74663 39.9945 19.1019 -1.74663
313 1 40.9706 17.4919 -0.0942726 40.9706 17.4919 -0.0942726
314 2 42.8896 17.5208 1.51574 42.8896 17.5208 1.51574
315 2 42.8536 17.463 -1.7458 42.8536 17.463 -1.7458
316 1 43.8221 19.1379 -0.154705 43.8221 19.1379 -0.154705
317 2 45.7308 19.1732 1.46748 45.7308 19.1732 1.46748
318 2 45.7157 19.1026 -1.79396 45.7157 19.1026 -1.79396
319 1 46.6738 17.4919 -0.131738 46.6738 17.4919 -0.131738
320 2 48.5729 17.5194 1.50184 48.5729 17.5194 1.50184
321 2 48.5769 17.4644 -1.75996 48.5769 17.4644 -1.75996
322 1 49.5254 19.138 -0.155615 49.5254 19.138 -0.155615
323 2 51.4137 19.1719 1.49036 51.4137 19.1719 1.49036
324 2 51.4393 19.1043 -1.77108 51.4393 19.1043 -1.77108
325 1 1.0475 20.7842 -0.166957 1.0475 20.7842 -0.166957
326 2 2.92644 20.8232 1.48956 2.92644 20.8232 1.48956
327 2 2.97057 20.7453 -1.77143 2.97057 20.7453 -1.77143
328 1 3.89913 22.4303 -0.167373 3.89913 22.4303 -0.167373
329 2 5.7715 22.4734 1.49646 5.7715 22.4734 1.49646
330 2 5.82863 22.3874 -1.7641 5.82863 22.3874 -1.7641
331 1 6.75035 20.7847 -0.0734901 6.75035 20.7847 -0.0734901
332 2 8.6213 20.8227 1.59206 8.6213 20.8227 1.59206
333 2 8.68124 20.7468 -1.66869 8.68124 20.7468 -1.66869
334 1 9.60187 22.431 -0.0591389 9.60187 22.431 -0.0591389
335 2 11.474 22.4738 1.60485 11.474 22.4738 1.60485
336 2 11.5317 22.3883 -1.65569 11.5317 22.3883 -1.65569
337 1 12.4532 20.7853 0.0347643 12.4532 20.7853 0.0347643
338 2 14.3317 20.8233 1.69174 14.3317 20.8233 1.69174
339 2 14.377 20.7472 -1.5692 14.377 20.7472 -1.5692
340 1 15.305 22.4315 0.0360327 15.305 22.4315 0.0360327
341 2 17.192 22.4749 1.68304 17.192 22.4749 1.68304
342 2 17.2205 22.3879 -1.57783 17.2205 22.3879 -1.57783
343 1 18.1568 20.7856 0.104986 18.1568 20.7856 0.104986
344 2 20.0548 20.8249 1.73951 20.0548 20.8249 1.73951
345 2 20.0617 20.746 -1.52165 20.0617 20.746 -1.52165
346 1 21.0089 22.4315 0.0710523 21.0089 22.4315 0.0710523
347 2 22.9178 22.4762 1.69262 22.9178 22.4762 1.69262
348 2 22.9028 22.3866 -1.56825 22.9028 22.3866 -1.56825
349 1 23.861 20.7854 0.103181 23.861 20.7854 0.103181
350 2 25.7801 20.8263 1.71272 25.7801 20.8263 1.71272
351 2 25.7445 20.7443 -1.54818 25.7445 20.7443 -1.54818
352 1 26.7128 22.4312 0.0303673 26.7128 22.4312 0.0303673
353 2 28.6396 22.4767 1.63054 28.6396 22.4767 1.63054
354 2 28.5883 22.3854 -1.62994 28.5883 22.3854 -1.62994
355 1 29.5647 20.785 0.0315676 29.5647 20.785 0.0315676
356 2 31.4968 20.8266 1.62537 31.4968 20.8266 1.62537
357 2 31.4344 20.7431 -1.63512 31.4344 20.7431 -1.63512
358 1 32.4159 22.4306 -0.0653529 32.4159 22.4306 -0.0653529
359 2 34.349 22.4761 1.52721 34.349 22.4761 1.52721
360 2 34.2847 22.3848 -1.73306 34.2847 22.3848 -1.73306
361 1 35.2675 20.7844 -0.0754314 35.2675 20.7844 -0.0754314
362 2 37.199 20.826 1.51927 37.199 20.826 1.51927
363 2 37.1379 20.7425 -1.74129 37.1379 20.7425 -1.74129
364 1 38.1187 22.43 -0.171053 38.1187 22.43 -0.171053
365 2 40.044 22.4751 1.43109 40.044 22.4751 1.43109
366 2 39.9955 22.3848 -1.8295 39.9955 22.3848 -1.8295
367 1 40.9704 20.7839 -0.167541 40.9704 20.7839 -0.167541
368 2 42.8882 20.8251 1.44371 42.8882 20.8251 1.44371
369 2 42.8548 20.7428 -1.8173 42.8548 20.7428 -1.8173
370 1 43.822 22.4297 -0.238131 43.822 22.4297 -0.238131
371 2 45.7291 22.4742 1.38558 45.7291 22.4742 1.38558
372 2 45.7172 22.3853 -1.87539 45.7172 22.3853 -1.87539
373 1 46.6738 20.7839 -0.203253 46.6738 20.7839 -0.203253
374 2 48.5712 20.8241 1.43198 48.5712 20.8241 1.43198
375 2 48.5786 20.7437 -1.82925 48.5786 20.7437 -1.82925
376 1 49.5255 22.4298 -0.237046 49.5255 22.4298 -0.237046
377 2 51.4121 22.4736 1.41062 51.4121 22.4736 1.41062
378 2 51.4412 22.3862 -1.85029 51.4412 22.3862 -1.85029
379 1 1.04774 24.0759 -0.255542 1.04774 24.0759 -0.255542
380 2 2.92516 24.1219 1.40251 2.92516 24.1219 1.40251
381 2 2.9724 24.03 -1.85804 2.9724 24.03 -1.85804
382 1 3.89947 25.7219 -0.260442 3.89947 25.7219 -0.260442
383 2 5.77054 25.7688 1.40472 5.77054 25.7688 1.40472
384 2 5.83031 25.6753 -1.85557 5.83031 25.6753 -1.85557
385 1 6.7507 24.0765 -0.160607 6.7507 24.0765 -0.160607
386 2 8.62025 24.1224 1.50627 8.62025 24.1224 1.50627
387 2 8.68296 24.0308 -1.75403 8.68296 24.0308 -1.75403
388 1 9.60225 25.7226 -0.15192 9.60225 25.7226 -0.15192
389 2 11.4732 25.7697 1.5132 11.4732 25.7697 1.5132
390 2 11.5331 25.6757 -1.74708 11.5331 25.6757 -1.74708
391 1 12.4535 24.0772 -0.0518463 12.4535 24.0772 -0.0518463
392 2 14.331 24.1233 1.60586 14.331 24.1233 1.60586
393 2 14.3781 24.031 -1.65466 14.3781 24.031 -1.65466
394 1 15.3053 25.7232 -0.0573566 15.3053 25.7232 -0.0573566
395 2 17.1913 25.7705 1.59047 17.1913 25.7705 1.59047
396 2 17.2215 25.6757 -1.6702 17.2215 25.6757 -1.6702
397 1 18.157 24.0775 0.0168862 18.157 24.0775 0.0168862
398 2 20.0544 24.1243 1.6517 20.0544 24.1243 1.6517
399 2 20.0622 24.0304 -1.60911 20.0622 24.0304 -1.60911
400 1 21.0089 25.7232 -0.0239755 21.0089 25.7232 -0.0239755
401 2 22.9168 25.7708 1.59842 22.9168 25.7708 1.59842
402 2 22.9035 25.6753 -1.66234 22.9035 25.6753 -1.66234
403 1 23.8609 24.0773 0.0124508 23.8609 24.0773 0.0124508
404 2 25.7793 24.1248 1.62248 25.7793 24.1248 1.62248
405 2 25.7449 24.0295 -1.63811 25.7449 24.0295 -1.63811
406 1 26.7125 25.7228 -0.0661616 26.7125 25.7228 -0.0661616
407 2 28.6381 25.7704 1.53528 28.6381 25.7704 1.53528
408 2 28.5891 25.6749 -1.72514 28.5891 25.6749 -1.72514
409 1 29.5643 24.0767 -0.0609013 29.5643 24.0767 -0.0609013
410 2 31.4953 24.1243 1.534 31.4953 24.1243 1.534
411 2 31.4352 24.0289 -1.72623 31.4352 24.0289 -1.72623
412 1 32.4155 25.7221 -0.162001 32.4155 25.7221 -0.162001
413 2 34.3471 25.7693 1.43227 34.3471 25.7693 1.43227
414 2 34.2858 25.6748 -1.82797 34.2858 25.6748 -1.82797
415 1 35.2671 24.076 -0.1679 35.2671 24.076 -0.1679
416 2 37.1972 24.1232 1.42827 37.1972 24.1232 1.42827
417 2 37.1389 24.0288 -1.83203 37.1389 24.0288 -1.83203
418 1 38.1183 25.7215 -0.266661 38.1183 25.7215 -0.266661
419 2 40.0421 25.7682 1.33722 40.0421 25.7682 1.33722
420 2 39.9968 25.6749 -1.92331 39.9968 25.6749 -1.92331
421 1 40.9701 24.0756 -0.259008 40.9701 24.0756 -0.259008
422 2 42.8864 24.1222 1.3538 42.8864 24.1222 1.3538
423 2 42.8561 24.029 -1.90691 42.8561 24.029 -1.90691
424 1 43.8218 25.7213 -0.33256 43.8218 25.7213 -0.33256
425 2 45.7276 25.7677 1.29272 45.7276 25.7677 1.29272
426 2 45.7186 25.675 -1.96812 45.7186 25.675 -1.96812
427 1 46.6737 24.0755 -0.293352 46.6737 24.0755 -0.293352
428 2 48.5697 24.1218 1.34344 48.5697 24.1218 1.34344
429 2 48.5803 24.0294 -1.91742 48.5803 24.0294 -1.91742
430 1 49.5257 25.7214 -0.330637 49.5257 25.7214 -0.330637
431 2 51.411 25.768 1.31842 51.411 25.768 1.31842
432 2 51.4427 25.675 -1.94227 51.4427 25.675 -1.94227
433 1 1.04799 27.3675 -0.349697 1.04799 27.3675 -0.349697
434 2 2.9244 27.4129 1.30951 2.9244 27.4129 1.30951
435 2 2.97378 27.3223 -1.95101 2.97378 27.3223 -1.95101
436 1 3.89982 29.0137 -0.352229 3.89982 29.0137 -0.352229
437 2 5.77009 29.0564 1.31392 5.77009 29.0564 1.31392
438 2 5.83152 28.9712 -1.94655 5.83152 28.9712 -1.94655
439 1 6.75111 27.3681 -0.255298 6.75111 27.3681 -0.255298
440 2 8.61954 27.4141 1.41277 8.61954 27.4141 1.41277
441 2 8.68447 27.3223 -1.84748 8.68447 27.3223 -1.84748
442 1 9.60267 29.0143 -0.244935 9.60267 29.0143 -0.244935
443 2 11.4726 29.0575 1.42143 11.4726 29.0575 1.42143
444 2 11.5346 28.9712 -1.83903 11.5346 28.9712 -1.83903
445 1 12.4538 27.3687 -0.147082 12.4538 27.3687 -0.147082
446 2 14.3302 27.4149 1.51182 14.3302 27.4149 1.51182
447 2 14.3795 27.3226 -1.7487 14.3795 27.3226 -1.7487
448 1 15.3055 29.0147 -0.150904 15.3055 29.0147 -0.150904
449 2 17.1902 29.0576 1.49849 17.1902 29.0576 1.49849
450 2 17.223 28.9719 -1.76244 17.223 28.9719 -1.76244
451 1 18.1571 27.369 -0.0791055 18.1571 27.369 -0.0791055
452 2 20.0533 27.415 1.55696 20.0533 27.415 1.55696
453 2 20.0633 27.3228 -1.70393 20.0633 27.3228 -1.70393
454 1 21.0089 29.0147 -0.117359 21.0089 29.0147 -0.117359
455 2 22.9153 29.0567 1.50686 22.9153 29.0567 1.50686
456 2 22.9049 28.9726 -1.75427 22.9049 28.9726 -1.75427
457 1 23.8607 27.3688 -0.0842762 23.8607 27.3688 -0.0842762
458 2 25.7778 27.4144 1.52725 25.7778 27.4144 1.52725
459 2 25.7459 27.3229 -1.73352 25.7459 27.3229 -1.73352
460 1 26.7123 29.0143 -0.15891 26.7123 29.0143 -0.15891
461 2 28.6361 29.0554 1.44455 28.6361 29.0554 1.44455
462 2 28.5904 28.9731 -1.8163 28.5904 28.9731 -1.8163
463 1 29.5639 27.3682 -0.157647 29.5639 27.3682 -0.157647
464 2 31.4933 27.4133 1.43913 31.4933 27.4133 1.43913
465 2 31.4363 27.3229 -1.82131 31.4363 27.3229 -1.82131
466 1 32.4151 29.0138 -0.253595 32.4151 29.0138 -0.253595
467 2 34.345 29.0542 1.34276 34.345 29.0542 1.34276
468 2 34.2871 28.9733 -1.9179 34.2871 28.9733 -1.9179
469 1 35.2667 27.3676 -0.263606 35.2667 27.3676 -0.263606
470 2 37.1951 27.4122 1.33451 37.1951 27.4122 1.33451
471 2 37.1402 27.323 -1.92598 37.1402 27.323 -1.92598
472 1 38.118 29.0133 -0.356959 38.118 29.0133 -0.356959
473 2 40.0404 29.0535 1.2487 40.0404 29.0535 1.2487
474 2 39.998 28.9732 -2.01218 39.998 28.9732 -2.01218
475 1 40.9699 27.3672 -0.353498 40.9699 27.3672 -0.353498
476 2 42.8848 27.4116 1.26097 42.8848 27.4116 1.26097
477 2 42.8574 27.3229 -1.99986 42.8574 27.3229 -1.99986
478 1 43.8217 29.0131 -0.422353 43.8217 29.0131 -0.422353
479 2 45.7265 29.0538 1.20425 45.7265 29.0538 1.20425
480 2 45.7196 28.9727 -2.05686 45.7196 28.9727 -2.05686
481 1 46.6737 27.3672 -0.38728 46.6737 27.3672 -0.38728
482 2 48.5686 27.4119 1.25084 48.5686 27.4119 1.25084
483 2 48.5815 27.3226 -2.01006 48.5815 27.3226 -2.01006
484 1 49.5258 29.0132 -0.421039 49.5258 29.0132 -0.421039
485 2 51.4104 29.0549 1.22901 51.4104 29.0549 1.22901
486 2 51.4438 28.9718 -2.0319 51.4438 28.9718 -2.0319
487 1 1.04822 30.6595 -0.433759 1.04822 30.6595 -0.433759
488 2 2.9242 30.6966 1.22613 2.9242 30.6966 1.22613
489 2 2.97456 30.6226 -2.03477 2.97456 30.6226 -2.03477
490 1 3.90011 32.3059 -0.42714 3.90011 32.3059 -0.42714
491 2 5.77014 32.3371 1.23951 5.77014 32.3371 1.23951
492 2 5.83212 32.275 -2.02146 5.83212 32.275 -2.02146
493 1 6.7515 30.66 -0.341551 6.7515 30.66 -0.341551
494 2 8.61919 30.6982 1.32748 8.61919 30.6982 1.32748
495 2 8.68559 30.622 -1.93313 8.68559 30.622 -1.93313
496 1 9.60303 32.3064 -0.322131 9.60303 32.3064 -0.322131
497 2 11.472 32.3381 1.34544 11.472 32.3381 1.34544
498 2 11.5358 32.2748 -1.91552 11.5358 32.2748 -1.91552
499 1 12.4542 30.6605 -0.234481 12.4542 30.6605 -0.234481
500 2 14.3293 30.6986 1.42601 14.3293 30.6986 1.42601
501 2 14.381 30.6224 -1.83491 14.381 30.6224 -1.83491
502 1 15.3058 32.3067 -0.228051 15.3058 32.3067 -0.228051
503 2 17.1888 32.3372 1.42345 17.1888 32.3372 1.42345
504 2 17.2248 32.2761 -1.83802 17.2248 32.2761 -1.83802
505 1 18.1572 30.6607 -0.16594 18.1572 30.6607 -0.16594
506 2 20.0517 30.6975 1.47222 20.0517 30.6975 1.47222
507 2 20.065 30.6237 -1.78916 20.065 30.6237 -1.78916
508 1 21.0089 32.3066 -0.192134 21.0089 32.3066 -0.192134
509 2 22.9133 32.3352 1.43456 22.9133 32.3352 1.43456
510 2 22.9067 32.278 -1.8272 22.9067 32.278 -1.8272
511 1 23.8606 30.6605 -0.169459 23.8606 30.6605 -0.169459
512 2 25.7759 30.6959 1.4443 25.7759 30.6959 1.4443
513 2 25.7474 30.625 -1.81705 25.7474 30.625 -1.81705
514 1 26.7121 32.3063 -0.230749 26.7121 32.3063 -0.230749
515 2 28.6342 32.3332 1.37497 28.6342 32.3332 1.37497
516 2 28.5919 32.2794 -1.88655 28.5919 32.2794 -1.88655
517 1 29.5636 30.66 -0.241052 29.5636 30.66 -0.241052
518 2 31.4913 30.6944 1.35788 31.4913 30.6944 1.35788
519 2 31.4377 30.6256 -1.90316 31.4377 30.6256 -1.90316
520 1 32.4148 32.306 -0.323291 32.4148 32.306 -0.323291
521 2 34.3434 32.3322 1.27488 34.3434 32.3322 1.27488
522 2 34.2881 32.2798 -1.98641 34.2881 32.2798 -1.98641
523 1 35.2663 30.6596 -0.345518 35.2663 30.6596 -0.345518
524 2 37.1934 30.6936 1.25443 37.1934 30.6936 1.25443
525 2 37.1413 30.6256 -2.0066 37.1413 30.6256 -2.0066
526 1 38.1178 32.3057 -0.42584 38.1178 32.3057 -0.42584
527 2 40.0393 32.3322 1.18103 40.0393 32.3322 1.18103
528 2 39.9986 32.2793 -2.08041 39.9986 32.2793 -2.08041
529 1 40.9696 30.6593 -0.434848 40.9696 30.6593 -0.434848
530 2 42.8837 30.6938 1.18093 42.8837 30.6938 1.18093
531 2 42.8582 30.625 -2.08036 42.8582 30.625 -2.08036
532 1 43.8216 32.3056 -0.492078 43.8216 32.3056 -0.492078
533 2 45.726 32.3333 1.13521 45.726 32.3333 1.13521
534 2 45.72 32.278 -2.12641 45.72 32.278 -2.12641
535 1 46.6737 30.6593 -0.469419 46.6737 30.6593 -0.469419
536 2 48.568 30.6949 1.16956 48.568 30.6949 1.16956
537 2 48.5822 30.6238 -2.09175 48.5822 30.6238 -2.09175
538 1 49.5259 32.3057 -0.492987 49.5259 32.3057 -0.492987
539 2 51.4104 32.3351 1.15744 51.4104 32.3351 1.15744