ITEM: TIMESTEP
47000
ITEM: NUMBER OF ATOMS
810
ITEM: BOX BOUNDS pp pp pp
8.4886333551266624e-01 5.2168741664486383e+01
8.1490869623890472e-01 5.0201306303760717e+01
-1.0000000000000000e+01 1.0000000000000000e+01
ITEM: ATOMS id type x y z xu yu zu
1 1 1.0532 1.03007 0.0272896 1.0532 1.03007 0.0272896
2 2 2.99959 1.08083 1.6031 2.99959 1.08083 1.6031
3 2 2.90789 0.978937 -1.65621 2.90789 0.978937 -1.65621
4 1 3.90364 2.67526 -0.105006 3.90364 2.67526 -0.105006
5 2 5.85758 2.72344 1.46148 5.85758 2.72344 1.46148
6 2 5.75012 2.62684 -1.79752 5.75012 2.62684 -1.79752
7 1 6.75432 1.02886 -0.150557 6.75432 1.02886 -0.150557
8 2 8.71107 1.0798 1.41251 8.71107 1.0798 1.41251
9 2 8.59784 0.977743 -1.84611 8.59784 0.977743 -1.84611
10 1 9.60413 2.67409 -0.301573 9.60413 2.67409 -0.301573
11 2 11.556 2.72231 1.26776 11.556 2.72231 1.26776
12 2 11.453 2.62585 -1.99134 11.453 2.62585 -1.99134
13 1 12.455 1.02775 -0.343039 12.455 1.02775 -0.343039
14 2 14.3973 1.07881 1.23822 14.3973 1.07881 1.23822
15 2 14.3141 0.976734 -2.02128 14.3141 0.976734 -2.02128
16 1 15.3059 2.67325 -0.467494 15.3059 2.67325 -0.467494
17 2 17.2324 2.72202 1.13317 17.2324 2.72202 1.13317
18 2 17.1817 2.62466 -2.1271 17.1817 2.62466 -2.1271
19 1 18.1578 1.02719 -0.462463 18.1578 1.02719 -0.462463
20 2 20.0662 1.07876 1.15993 20.0662 1.07876 1.15993
21 2 20.0522 0.975885 -2.10057 20.0522 0.975885 -2.10057
22 1 21.0099 2.67307 -0.526398 21.0099 2.67307 -0.526398
23 2 22.8978 2.72325 1.11991 22.8978 2.72325 1.11991
24 2 22.9249 2.62324 -2.14056 22.9249 2.62324 -2.14056
25 1 23.8619 1.02747 -0.451742 23.8619 1.02747 -0.451742
26 2 25.7311 1.07982 1.21565 25.7311 1.07982 1.21565
27 2 25.7947 0.975517 -2.04423 25.7947 0.975517 -2.04423
28 1 26.7137 2.67371 -0.448465 26.7137 2.67371 -0.448465
29 2 28.5672 2.72534 1.23642 28.5672 2.72534 1.23642
30 2 28.6615 2.62251 -2.02274 28.6615 2.62251 -2.02274
31 1 29.5643 1.02852 -0.313533 29.5643 1.02852 -0.313533
32 2 31.4086 1.08118 1.38116 31.4086 1.08118 1.38116
33 2 31.5203 0.976245 -1.87742 31.5203 0.976245 -1.87742
34 1 32.415 2.67494 -0.268659 32.415 2.67494 -0.268659
35 2 34.2562 2.72703 1.42933 34.2562 2.72703 1.42933
36 2 34.3739 2.62319 -1.82907 34.3739 2.62319 -1.82907
37 1 35.2647 1.02986 -0.112928 35.2647 1.02986 -0.112928
38 2 37.1117 1.08216 1.57868 37.1117 1.08216 1.57868
39 2 37.2182 0.977708 -1.68009 37.2182 0.977708 -1.68009
40 1 38.1155 2.67615 -0.07253 38.1155 2.67615 -0.07253
41 2 39.9733 2.7275 1.60705 39.9733 2.7275 1.60705
42 2 40.0589 2.62483 -1.65241 40.0589 2.62483 -1.65241
43 1 40.9662 1.03079 0.0542455 40.9662 1.03079 0.0542455
44 2 42.8418 1.08234 1.71384 42.8418 1.08234 1.71384
45 2 42.8927 0.979054 -1.5463 42.8927 0.979054 -1.5463
46 1 43.8179 2.67667 0.0462545 43.8179 2.67667 0.0462545
47 2 45.7121 2.72657 1.68451 45.7121 2.72657 1.68451
48 2 45.7262 2.6265 -1.57615 45.7262 2.6265 -1.57615
49 1 46.6698 1.03085 0.108867 46.6698 1.03085 0.108867
50 2 48.5848 1.08175 1.72267 48.5848 1.08175 1.72267
51 2 48.5573 0.979555 -1.5378 48.5573 0.979555 -1.5378
52 1 49.5215 2.67628 0.032541 49.5215 2.67628 0.032541
53 2 51.4533 2.72492 1.62612 51.4533 2.72492 1.62612
54 2 51.3915 2.62728 -1.63406 51.3915 2.62728 -1.63406
55 1 1.05269 4.32162 -0.0716104 1.05269 4.32162 -0.0716104
56 2 2.99731 4.36542 1.50636 2.99731 4.36542 1.50636
57 2 2.90898 4.27756 -1.7535 2.90898 4.27756 -1.7535
58 1 3.90306 5.96709 -0.194008 3.90306 5.96709 -0.194008
59 2 5.85532 6.00384 1.37471 5.85532 6.00384 1.37471
60 2 5.75118 5.93021 -1.88502 5.75118 5.93021 -1.88502
61 1 6.75356 4.32057 -0.248407 6.75356 4.32057 -0.248407
62 2 8.70897 4.36384 1.31647 8.70897 4.36384 1.31647
63 2 8.5985 4.27721 -1.94269 8.5985 4.27721 -1.94269
64 1 9.60349 5.9662 -0.389338 9.60349 5.9662 -0.389338
65 2 11.5542 6.0026 1.18171 11.5542 6.0026 1.18171
66 2 11.4537 5.92983 -2.07805 11.4537 5.92983 -2.07805
67 1 12.4544 4.31962 -0.44076 12.4544 4.31962 -0.44076
68 2 14.3956 4.36314 1.14207 14.3956 4.36314 1.14207
69 2 14.3148 4.2762 -2.11788 14.3148 4.2762 -2.11788
70 1 15.3055 5.96555 -0.555559 15.3055 5.96555 -0.555559
71 2 17.2315 6.00287 1.04612 17.2315 6.00287 1.04612
72 2 17.1821 5.92841 -2.21471 17.1821 5.92841 -2.21471
73 1 18.1576 4.31912 -0.561064 18.1576 4.31912 -0.561064
74 2 20.0653 4.36404 1.06228 20.0653 4.36404 1.06228
75 2 20.0529 4.27445 -2.19853 20.0529 4.27445 -2.19853
76 1 21.0099 5.96537 -0.617106 21.0099 5.96537 -0.617106
77 2 22.8979 6.00511 1.02946 22.8979 6.00511 1.02946
78 2 22.9251 5.92591 -2.2315 22.9251 5.92591 -2.2315
79 1 23.8622 4.31929 -0.553015 23.8622 4.31929 -0.553015
80 2 25.731 4.36651 1.11506 25.731 4.36651 1.11506
81 2 25.7957 4.27244 -2.14503 25.7957 4.27244 -2.14503
82 1 26.7143 5.96579 -0.543714 26.7143 5.96579 -0.543714
83 2 28.5677 6.00837 1.14157 28.5677 6.00837 1.14157
84 2 28.6624 5.92359 -2.11803 28.6624 5.92359 -2.11803
85 1 29.5651 4.32016 -0.417686 29.5651 4.32016 -0.417686
86 2 31.4085 4.36911 1.27817 31.4085 4.36911 1.27817
87 2 31.5222 4.27163 -1.98054 31.5222 4.27163 -1.98054
88 1 32.4159 5.96675 -0.367414 32.4159 5.96675 -0.367414
89 2 34.2561 6.0108 1.33192 34.2561 6.0108 1.33192
90 2 34.3759 5.92306 -1.92687 34.3759 5.92306 -1.92687
91 1 35.2656 4.32138 -0.218141 35.2656 4.32138 -0.218141
92 2 37.1108 4.37042 1.47536 37.1108 4.37042 1.47536
93 2 37.2207 4.27257 -1.78353 37.2207 4.27257 -1.78353
94 1 38.1163 5.96776 -0.171693 38.1163 5.96776 -0.171693
95 2 39.9719 6.01106 1.51033 39.9719 6.01106 1.51033
96 2 40.0616 5.92458 -1.74955 40.0616 5.92458 -1.74955
97 1 40.9667 4.32226 -0.0497766 40.9667 4.32226 -0.0497766
98 2 42.84 4.36979 1.61231 42.84 4.36979 1.61231
99 2 42.8952 4.27466 -1.64809 42.8952 4.27466 -1.64809
100 1 43.8182 5.96822 -0.0501445 43.8182 5.96822 -0.0501445
101 2 45.7097 6.00909 1.59121 45.7097 6.00909 1.59121
102 2 45.7288 5.92718 -1.67001 45.7288 5.92718 -1.67001
103 1 46.6698 4.32233 0.00750328 46.6698 4.32233 0.00750328
104 2 48.5825 4.36768 1.62389 48.5825 4.36768 1.62389
105 2 48.5592 4.27668 -1.63703 48.5592 4.27668 -1.63703
106 1 49.5213 5.9679 -0.0596605 49.5213 5.9679 -0.0596605
107 2 51.4507 6.00618 1.53685 51.4507 6.00618 1.53685
108 2 51.3934 5.92938 -1.72404 51.3934 5.92938 -1.72404
109 1 1.05234 7.61358 -0.149435 1.05234 7.61358 -0.149435
110 2 2.99476 7.64277 1.4314 2.99476 7.64277 1.4314
111 2 2.91074 7.58424 -1.82928 2.91074 7.58424 -1.82928
112 1 3.90275 9.25952 -0.253341 3.90275 9.25952 -0.253341
113 2 5.85322 9.27823 1.31779 5.85322 9.27823 1.31779
114 2 5.75265 9.24075 -1.94269 5.75265 9.24075 -1.94269
115 1 6.75305 7.61287 -0.323006 6.75305 7.61287 -0.323006
116 2 8.70706 7.64082 1.24386 8.70706 7.64082 1.24386
117 2 8.59945 7.5849 -2.01607 8.59945 7.5849 -2.01607
118 1 9.60315 9.25905 -0.446006 9.60315 9.25905 -0.446006
119 2 11.553 9.2771 1.12642 11.553 9.2771 1.12642
120 2 11.4543 9.24105 -2.134 11.4543 9.24105 -2.134
121 1 12.4539 7.61225 -0.514479 12.4539 7.61225 -0.514479
122 2 14.3945 7.6404 1.06953 14.3945 7.6404 1.06953
123 2 14.3153 7.58421 -2.19109 14.3153 7.58421 -2.19109
124 1 15.3052 9.25872 -0.612458 15.3052 9.25872 -0.612458
125 2 17.2313 9.27785 0.989467 17.2313 9.27785 0.989467
126 2 17.182 9.23971 -2.27195 17.182 9.23971 -2.27195
127 1 18.1574 7.61191 -0.636452 18.1574 7.61191 -0.636452
128 2 20.0654 7.64194 0.987041 20.0654 7.64194 0.987041
129 2 20.0528 7.58205 -2.27439 20.0528 7.58205 -2.27439
130 1 21.01 9.25861 -0.677707 21.01 9.25861 -0.677707
131 2 22.8989 9.2806 0.968101 22.8989 9.2806 0.968101
132 2 22.9244 9.23676 -2.29349 22.9244 9.23676 -2.29349
133 1 23.8625 7.61196 -0.633171 23.8625 7.61196 -0.633171
134 2 25.7319 7.64526 1.03455 25.7319 7.64526 1.03455
135 2 25.7956 7.57894 -2.22618 25.7956 7.57894 -2.22618
136 1 26.7147 9.2588 -0.610825 26.7147 9.2588 -0.610825
137 2 28.569 9.28441 1.07376 28.569 9.28441 1.07376
138 2 28.6621 9.23342 -2.18656 28.6621 9.23342 -2.18656
139 1 29.5658 7.61252 -0.503539 29.5658 7.61252 -0.503539
140 2 31.4091 7.64865 1.19268 31.4091 7.64865 1.19268
141 2 31.523 7.57673 -2.06666 31.523 7.57673 -2.06666
142 1 32.4166 9.25934 -0.440254 32.4166 9.25934 -0.440254
143 2 34.2565 9.28715 1.25967 34.2565 9.28715 1.25967
144 2 34.3769 9.23181 -1.99981 34.3769 9.23181 -1.99981
145 1 35.2665 7.61339 -0.307048 35.2665 7.61339 -0.307048
146 2 37.1103 7.65016 1.3882 37.1103 7.65016 1.3882
147 2 37.2228 7.57686 -1.87126 37.2228 7.57686 -1.87126
148 1 38.117 9.25997 -0.245987 38.117 9.25997 -0.245987
149 2 39.9707 9.28718 1.43832 39.9707 9.28718 1.43832
150 2 40.0639 9.23289 -1.82219 40.0639 9.23289 -1.82219
151 1 40.9673 7.61405 -0.13743 40.9673 7.61405 -0.13743
152 2 42.838 7.64897 1.52767 42.838 7.64897 1.52767
153 2 42.898 7.57912 -1.73335 42.898 7.57912 -1.73335
154 1 43.8185 9.26024 -0.12097 43.8185 9.26024 -0.12097
155 2 45.7072 9.28458 1.52378 45.7072 9.28458 1.52378
156 2 45.7316 9.23581 -1.73812 45.7316 9.23581 -1.73812
157 1 46.6698 7.61409 -0.0755259 46.6698 7.61409 -0.0755259
158 2 48.5797 7.6459 1.5443 48.5797 7.6459 1.5443
159 2 48.5618 7.58209 -1.71737 48.5618 7.58209 -1.71737
160 1 49.5212 9.26001 -0.124362 49.5212 9.26001 -0.124362
161 2 51.4479 9.28098 1.4755 51.4479 9.28098 1.4755
162 2 51.3958 9.23888 -1.78616 51.3958 9.23888 -1.78616
163 1 1.05222 10.9061 -0.192151 1.05222 10.9061 -0.192151
164 2 2.99247 10.9152 1.39148 2.99247 10.9152 1.39148
165 2 2.91278 10.8969 -1.86981 2.91278 10.8969 -1.86981
166 1 3.90276 12.5524 -0.271969 3.90276 12.5524 -0.271969
167 2 5.85177 12.5495 1.30104 5.85177 12.5495 1.30104
168 2 5.75418 12.5553 -1.95975 5.75418 12.5553 -1.95975
169 1 6.75289 10.9058 -0.361004 6.75289 10.9058 -0.361004
170 2 8.70572 10.9133 1.20748 8.70572 10.9133 1.20748
171 2 8.60049 10.8983 -2.05297 8.60049 10.8983 -2.05297
172 1 9.60318 12.5524 -0.461269 9.60318 12.5524 -0.461269
173 2 11.5526 12.5488 1.11168 11.5526 12.5488 1.11168
174 2 11.4547 12.556 -2.14895 11.4547 12.556 -2.14895
175 1 12.4538 10.9056 -0.550989 12.4538 10.9056 -0.550989
176 2 14.3942 10.9134 1.03341 14.3942 10.9134 1.03341
177 2 14.3153 10.8979 -2.22764 14.3153 10.8979 -2.22764
178 1 15.3052 12.5525 -0.62807 15.3052 12.5525 -0.62807
179 2 17.232 12.5501 0.973099 17.232 12.5501 0.973099
180 2 17.1813 12.5548 -2.2885 17.1813 12.5548 -2.2885
181 1 18.1573 10.9055 -0.675025 18.1573 10.9055 -0.675025
182 2 20.0662 10.9153 0.947644 20.0662 10.9153 0.947644
183 2 20.0519 10.8958 -2.31424 20.0519 10.8958 -2.31424
184 1 21.01 12.5525 -0.697429 21.01 12.5525 -0.697429
185 2 22.9006 12.553 0.946598 22.9006 12.553 0.946598
186 2 22.9228 12.552 -2.31529 22.9228 12.552 -2.31529
187 1 23.8626 10.9055 -0.677484 23.8626 10.9055 -0.677484
188 2 25.7336 10.9189 0.988771 25.7336 10.9189 0.988771
189 2 25.7944 10.8923 -2.27255 25.7944 10.8923 -2.27255
190 1 26.7148 12.5525 -0.63766 26.7148 12.5525 -0.63766
191 2 28.571 12.5567 1.04508 28.571 12.5567 1.04508
192 2 28.6606 12.5484 -2.21571 28.6606 12.5484 -2.21571
193 1 29.5662 10.9057 -0.555124 29.5662 10.9057 -0.555124
194 2 31.4105 10.9224 1.14036 31.4105 10.9224 1.14036
195 2 31.5227 10.8892 -2.11964 31.5227 10.8892 -2.11964
196 1 32.417 12.5527 -0.47382 32.417 12.5527 -0.47382
197 2 34.2575 12.5592 1.22566 34.2575 12.5592 1.22566
198 2 34.3768 12.5462 -2.0343 34.3768 12.5462 -2.0343
199 1 35.2671 10.9061 -0.363109 35.2671 10.9061 -0.363109
200 2 37.1102 10.9238 1.33318 37.1102 10.9238 1.33318
201 2 37.2241 10.8886 -1.92689 37.2241 10.8886 -1.92689
202 1 38.1174 12.5528 -0.281639 38.1174 12.5528 -0.281639
203 2 39.9699 12.5588 1.40419 39.9699 12.5588 1.40419
204 2 40.0654 12.5468 -1.85669 40.0654 12.5468 -1.85669
205 1 40.9677 10.9065 -0.192495 40.9677 10.9065 -0.192495
206 2 42.8362 10.9222 1.47533 42.8362 10.9222 1.47533
207 2 42.9004 10.8907 -1.78623 42.9004 10.8907 -1.78623
208 1 43.8187 12.5528 -0.152936 43.8187 12.5528 -0.152936
209 2 45.705 12.5558 1.4947 45.705 12.5558 1.4947
210 2 45.7341 12.5497 -1.76755 45.7341 12.5497 -1.76755
211 1 46.6699 10.9064 -0.125006 46.6699 10.9064 -0.125006
212 2 48.5771 10.9186 1.49821 48.5771 10.9186 1.49821
213 2 48.5645 10.894 -1.76405 48.5645 10.894 -1.76405
214 1 49.5212 12.5526 -0.149364 49.5212 12.5526 -0.149364
215 2 51.4456 12.552 1.45339 51.4456 12.552 1.45339
216 2 51.3982 12.553 -1.80862 51.3982 12.553 -1.80862
217 1 1.05237 14.1989 -0.191287 1.05237 14.1989 -0.191287
218 2 2.99096 14.1858 1.39432 2.99096 14.1858 1.39432
219 2 2.91464 14.2118 -1.867 2.91464 14.2118 -1.867
220 1 3.90311 15.8453 -0.245711 3.90311 15.8453 -0.245711
221 2 5.85138 15.8209 1.32804 5.85138 15.8209 1.32804
222 2 5.75532 15.8696 -1.93243 5.75532 15.8696 -1.93243
223 1 6.75311 14.199 -0.355097 6.75311 14.199 -0.355097
224 2 8.70535 14.1846 1.21405 8.70535 14.1846 1.21405
225 2 8.60131 14.2133 -2.04635 8.60131 14.2133 -2.04635
226 1 9.60358 15.8457 -0.432112 9.60358 15.8457 -0.432112
227 2 11.5534 15.8212 1.14015 11.5534 15.8212 1.14015
228 2 11.4546 15.8701 -2.12011 11.4546 15.8701 -2.12011
229 1 12.454 14.1992 -0.543748 12.454 14.1992 -0.543748
230 2 14.3949 14.1854 1.03994 14.3949 14.1854 1.03994
231 2 14.3149 14.2131 -2.22101 14.3149 14.2131 -2.22101
232 1 15.3055 15.8461 -0.599953 15.3055 15.8461 -0.599953
233 2 17.2336 15.8231 0.999423 17.2336 15.8231 0.999423
234 2 17.1801 15.8691 -2.26183 17.1801 15.8691 -2.26183
235 1 18.1574 14.1994 -0.670237 18.1574 14.1994 -0.670237
236 2 20.0678 14.1876 0.950635 20.0678 14.1876 0.950635
237 2 20.0505 14.2112 -2.31121 20.0505 14.2112 -2.31121
238 1 21.01 15.8463 -0.673474 21.01 15.8463 -0.673474
239 2 22.9027 15.8259 0.968012 22.9027 15.8259 0.968012
240 2 22.9207 15.8668 -2.29367 22.9207 15.8668 -2.29367
241 1 23.8626 14.1995 -0.678432 23.8626 14.1995 -0.678432
242 2 25.7358 14.1909 0.985401 25.7358 14.1909 0.985401
243 2 25.7923 14.208 -2.27606 25.7923 14.208 -2.27606
244 1 26.7148 15.8463 -0.620213 26.7148 15.8463 -0.620213
245 2 28.5732 15.8289 1.0599 28.5732 15.8289 1.0599
246 2 28.6583 15.8637 -2.20085 28.6583 15.8637 -2.20085
247 1 29.5663 14.1994 -0.563457 29.5663 14.1994 -0.563457
248 2 31.4124 14.194 1.13024 31.4124 14.194 1.13024
249 2 31.5212 14.2049 -2.13002 31.5212 14.2049 -2.13002
250 1 32.4171 15.8461 -0.46267 32.4171 15.8461 -0.46267
251 2 34.2588 15.8306 1.23545 34.2588 15.8306 1.23545
252 2 34.3757 15.8616 -2.02448 34.3757 15.8616 -2.02448
253 1 35.2674 14.1994 -0.376262 35.2674 14.1994 -0.376262
254 2 37.1105 14.1948 1.32008 37.1105 14.1948 1.32008
255 2 37.2243 14.204 -1.94016 37.2243 14.204 -1.94016
256 1 38.1175 15.8458 -0.272409 38.1175 15.8458 -0.272409
257 2 39.9695 15.8296 1.41399 39.9695 15.8296 1.41399
258 2 40.066 15.8619 -1.84672 40.066 15.8619 -1.84672
259 1 40.9679 14.1993 -0.204725 40.9679 14.1993 -0.204725
260 2 42.8348 14.1927 1.46498 42.8348 14.1927 1.46498
261 2 42.9022 14.2057 -1.79665 42.9022 14.2057 -1.79665
262 1 43.8189 15.8455 -0.139886 43.8189 15.8455 -0.139886
263 2 45.7034 15.8263 1.50964 45.7034 15.8263 1.50964
264 2 45.736 15.8644 -1.75235 45.736 15.8644 -1.75235
265 1 46.67 14.199 -0.131329 46.67 14.199 -0.131329
266 2 48.575 14.189 1.49448 48.575 14.189 1.49448
267 2 48.5668 14.2089 -1.76783 48.5668 14.2089 -1.76783
268 1 49.5214 15.8452 -0.129299 49.5214 15.8452 -0.129299
269 2 51.4442 15.8228 1.47529 51.4442 15.8228 1.47529
270 2 51.4001 15.8674 -1.78646 51.4001 15.8674 -1.78646
271 1 1.05274 17.4914 -0.1461 1.05274 17.4914 -0.1461
272 2 2.99058 17.4581 1.44022 2.99058 17.4581 1.44022
273 2 2.91591 17.5244 -1.82055 2.91591 17.5244 -1.82055
274 1 3.90373 19.1376 -0.178595 3.90373 19.1376 -0.178595
275 2 5.85227 19.096 1.39456 5.85227 19.096 1.39456
276 2 5.75575 19.1791 -1.86519 5.75575 19.1791 -1.86519
277 1 6.75368 17.4918 -0.305746 6.75368 17.4918 -0.305746
278 2 8.70623 17.4579 1.26275 8.70623 17.4579 1.26275
279 2 8.60155 17.5256 -1.99705 8.60155 17.5256 -1.99705
280 1 9.60428 19.1383 -0.363584 9.60428 19.1383 -0.363584
281 2 11.5554 19.0974 1.20679 11.5554 19.0974 1.20679
282 2 11.4539 19.1792 -2.05275 11.4539 19.1792 -2.05275
283 1 12.4545 17.4924 -0.494161 12.4545 17.4924 -0.494161
284 2 14.3967 17.4597 1.08767 14.3967 17.4597 1.08767
285 2 14.314 17.5251 -2.1727 14.314 17.5251 -2.1727
286 1 15.3059 19.1391 -0.533557 15.3059 19.1391 -0.533557
287 2 17.2359 19.0998 1.06328 17.2359 19.0998 1.06328
288 2 17.1784 19.1783 -2.19734 17.1784 19.1783 -2.19734
289 1 18.1576 17.4929 -0.623641 18.1576 17.4929 -0.623641
290 2 20.0698 17.4621 0.994722 20.0698 17.4621 0.994722
291 2 20.0486 17.5237 -2.26665 20.0486 17.5237 -2.26665
292 1 21.0101 19.1395 -0.611024 21.0101 19.1395 -0.611024
293 2 22.9048 19.1022 1.02766 22.9048 19.1022 1.02766
294 2 22.9184 19.1769 -2.2335 22.9184 19.1769 -2.2335
295 1 23.8625 17.4931 -0.636884 23.8625 17.4931 -0.636884
296 2 25.738 17.4647 1.02406 25.738 17.4647 1.02406
297 2 25.7898 17.5214 -2.23707 25.7898 17.5214 -2.23707
298 1 26.7145 19.1396 -0.562732 26.7145 19.1396 -0.562732
299 2 28.5752 19.1041 1.11459 28.5752 19.1041 1.11459
300 2 28.6558 19.175 -2.14573 28.6558 19.175 -2.14573
301 1 29.5662 17.4929 -0.528061 29.5662 17.4929 -0.528061
302 2 31.4142 17.4668 1.16325 31.4142 17.4668 1.16325
303 2 31.5191 17.519 -2.09675 31.5191 17.519 -2.09675
304 1 32.4168 19.1392 -0.409807 32.4168 19.1392 -0.409807
305 2 34.2599 19.1048 1.28648 34.2599 19.1048 1.28648
306 2 34.374 19.1734 -1.97298 34.374 19.1734 -1.97298
307 1 35.2673 17.4925 -0.344852 35.2673 17.4925 -0.344852
308 2 37.111 17.4669 1.35071 37.111 17.4669 1.35071
309 2 37.2237 17.518 -1.90917 37.2237 17.518 -1.90917
310 1 38.1173 19.1385 -0.220604 38.1173 19.1385 -0.220604
311 2 39.9694 19.1032 1.46555 39.9694 19.1032 1.46555
312 2 40.0659 19.1735 -1.79454 40.0659 19.1735 -1.79454
313 1 40.9679 17.492 -0.172071 40.9679 17.492 -0.172071
314 2 42.8339 17.4643 1.49851 42.8339 17.4643 1.49851
315 2 42.9031 17.5194 -1.76262 42.9031 17.5194 -1.76262
316 1 43.8188 19.1378 -0.0842449 43.8188 19.1378 -0.0842449
317 2 45.7025 19.0999 1.56608 45.7025 19.0999 1.56608
318 2 45.7369 19.1753 -1.69518 45.7369 19.1753 -1.69518
319 1 46.6701 17.4915 -0.092847 46.6701 17.4915 -0.092847
320 2 48.5738 17.4607 1.5344 48.5738 17.4607 1.5344
321 2 48.5684 17.522 -1.72737 48.5684 17.522 -1.72737
322 1 49.5217 19.1374 -0.0672545 49.5217 19.1374 -0.0672545
323 2 51.4438 19.0969 1.53791 51.4438 19.0969 1.53791
324 2 51.4012 19.1776 -1.72311 51.4012 19.1776 -1.72311
325 1 1.05326 20.7833 -0.0643392 1.05326 20.7833 -0.0643392
326 2 2.99137 20.7358 1.52146 2.99137 20.7358 1.52146
327 2 2.91636 20.8306 -1.73855 2.91636 20.8306 -1.73855
328 1 3.90449 22.4293 -0.0825547 3.90449 22.4293 -0.0825547
329 2 5.85425 22.378 1.48897 5.85425 22.378 1.48897
330 2 5.75539 22.4806 -1.77012 5.75539 22.4806 -1.77012
331 1 6.75449 20.7839 -0.221506 6.75449 20.7839 -0.221506
332 2 8.70829 20.7367 1.34517 8.70829 20.7367 1.34517
333 2 8.60105 20.8311 -1.91389 8.60105 20.8311 -1.91389
334 1 9.60515 22.4302 -0.267912 9.60515 22.4302 -0.267912
335 2 11.5582 22.3801 1.29987 11.5582 22.3801 1.29987
336 2 11.4527 22.4804 -1.95905 11.4527 22.4804 -1.95905
337 1 12.4552 20.7848 -0.41122 12.4552 20.7848 -0.41122
338 2 14.3992 20.7391 1.16801 14.3992 20.7391 1.16801
339 2 14.3125 20.8306 -2.09168 14.3125 20.8306 -2.09168
340 1 15.3065 22.4312 -0.440814 15.3065 22.4312 -0.440814
341 2 17.2384 22.3826 1.15332 17.2384 22.3826 1.15332
342 2 17.1767 22.48 -2.10678 17.1767 22.48 -2.10678
343 1 18.1579 20.7856 -0.544059 18.1579 20.7856 -0.544059
344 2 20.0721 20.7414 1.0716 20.0721 20.7414 1.0716
345 2 20.0466 20.8298 -2.18919 20.0466 20.8298 -2.18919
346 1 21.0101 22.4319 -0.521515 21.0101 22.4319 -0.521515
347 2 22.9068 22.3842 1.11471 22.9068 22.3842 1.11471
348 2 22.9164 22.4796 -2.146 22.9164 22.4796 -2.146
349 1 23.8624 20.7859 -0.561123 23.8624 20.7859 -0.561123
350 2 25.74 20.7431 1.09712 25.74 20.7431 1.09712
351 2 25.7874 20.8287 -2.1635 25.7874 20.8287 -2.1635
352 1 26.7142 22.432 -0.475993 26.7142 22.432 -0.475993
353 2 28.5766 22.3849 1.19903 28.5766 22.3849 1.19903
354 2 28.6535 22.4791 -2.06084 28.6535 22.4791 -2.06084
355 1 29.5658 20.7857 -0.456211 29.5658 20.7857 -0.456211
356 2 31.4157 20.7439 1.23275 31.4157 20.7439 1.23275
357 2 31.5169 20.8274 -2.02675 31.5169 20.8274 -2.02675
358 1 32.4162 22.4314 -0.325249 32.4162 22.4314 -0.325249
359 2 34.2608 22.3845 1.36925 34.2608 22.3845 1.36925
360 2 34.3721 22.4783 -1.88968 34.3721 22.4783 -1.88968
361 1 35.2669 20.785 -0.275321 35.2669 20.785 -0.275321
362 2 37.1115 20.7432 1.41902 37.1115 20.7432 1.41902
363 2 37.2225 20.8267 -1.84024 37.2225 20.8267 -1.84024
364 1 38.1168 22.4305 -0.136046 38.1168 22.4305 -0.136046
365 2 39.9694 22.3827 1.54932 39.9694 22.3827 1.54932
366 2 40.065 22.4781 -1.71012 40.065 22.4781 -1.71012
367 1 40.9677 20.7841 -0.100911 40.9677 20.7841 -0.100911
368 2 42.8335 20.7406 1.56968 42.8335 20.7406 1.56968
369 2 42.9032 20.8274 -1.6907 42.9032 20.8274 -1.6907
370 1 43.8186 22.4295 0.00361359 43.8186 22.4295 0.00361359
371 2 45.7023 22.3799 1.65382 45.7023 22.3799 1.65382
372 2 45.737 22.4788 -1.60674 45.737 22.4788 -1.60674
373 1 46.6702 20.7834 -0.0165207 46.6702 20.7834 -0.0165207
374 2 48.5734 20.7374 1.61105 48.5734 20.7374 1.61105
375 2 48.5691 20.8291 -1.64995 48.5691 20.8291 -1.64995
376 1 49.5219 22.429 0.0255242 49.5219 22.429 0.0255242
377 2 51.4444 22.3778 1.63022 51.4444 22.3778 1.63022
378 2 51.4015 22.48 -1.63013 51.4015 22.48 -1.63013
379 1 1.05382 24.0747 0.0391121 1.05382 24.0747 0.0391121
380 2 2.9931 24.0216 1.62355 2.9931 24.0216 1.62355
381 2 2.916 24.1278 -1.63601 2.916 24.1278 -1.63601
382 1 3.90526 25.7207 0.0249536 3.90526 25.7207 0.0249536
383 2 5.85684 25.6689 1.5944 5.85684 25.6689 1.5944
384 2 5.75444 25.7727 -1.66451 5.75444 25.7727 -1.66451
385 1 6.75539 24.0754 -0.117512 6.75539 24.0754 -0.117512
386 2 8.71109 24.0233 1.44676 8.71109 24.0233 1.44676
387 2 8.59998 24.1277 -1.81186 8.59998 24.1277 -1.81186
388 1 9.60603 25.7217 -0.162092 9.60603 25.7217 -0.162092
389 2 11.5611 25.6712 1.40314 11.5611 25.6712 1.40314
390 2 11.4513 25.7725 -1.85562 11.4513 25.7725 -1.85562
391 1 12.456 24.0766 -0.309602 12.456 24.0766 -0.309602
392 2 14.4021 24.0258 1.26694 14.4021 24.0258 1.26694
393 2 14.3109 24.1275 -1.99238 14.3109 24.1275 -1.99238
394 1 15.3071 25.7229 -0.33777 15.3071 25.7229 -0.33777
395 2 17.2408 25.6731 1.25414 17.2408 25.6731 1.25414
396 2 17.1751 25.7728 -2.00588 17.1751 25.7728 -2.00588
397 1 18.1583 24.0775 -0.445443 18.1583 24.0775 -0.445443
398 2 20.0742 24.0276 1.1679 20.0742 24.0276 1.1679
399 2 20.0448 24.1276 -2.0926 20.0448 24.1276 -2.0926
400 1 21.0102 25.7236 -0.420248 21.0102 25.7236 -0.420248
401 2 22.9081 25.6737 1.21436 22.9081 25.6737 1.21436
402 2 22.9148 25.7737 -2.04631 22.9148 25.7737 -2.04631
403 1 23.8622 24.0779 -0.46454 23.8622 24.0779 -0.46454
404 2 25.7413 24.0281 1.19176 25.7413 24.0281 1.19176
405 2 25.7855 24.1279 -2.06857 25.7855 24.1279 -2.06857
406 1 26.7138 25.7237 -0.374916 26.7138 25.7237 -0.374916
407 2 28.5773 25.673 1.29875 28.5773 25.673 1.29875
408 2 28.6518 25.7746 -1.96102 28.6518 25.7746 -1.96102
409 1 29.5652 24.0777 -0.360778 29.5652 24.0777 -0.360778
410 2 31.4165 24.0276 1.32639 31.4165 24.0276 1.32639
411 2 31.5148 24.1278 -1.93276 31.5148 24.1278 -1.93276
412 1 32.4155 25.7232 -0.223721 32.4155 25.7232 -0.223721
413 2 34.2612 25.6716 1.46942 34.2612 25.6716 1.46942
414 2 34.3702 25.7746 -1.78932 34.3702 25.7746 -1.78932
415 1 35.2662 24.0769 -0.180262 35.2662 24.0769 -0.180262
416 2 37.1119 24.0263 1.51276 37.1119 24.0263 1.51276
417 2 37.2209 24.1273 -1.74605 37.2209 24.1273 -1.74605
418 1 38.1161 25.7221 -0.0337085 38.1161 25.7221 -0.0337085
419 2 39.9698 25.6701 1.65053 39.9698 25.6701 1.65053
420 2 40.0635 25.7739 -1.60865 40.0635 25.7739 -1.60865
421 1 40.9672 24.0758 -0.00429138 40.9672 24.0758 -0.00429138
422 2 42.8336 24.0242 1.66562 42.8336 24.0242 1.66562
423 2 42.9024 24.127 -1.59424 42.9024 24.127 -1.59424
424 1 43.8183 25.721 0.107802 43.8183 25.721 0.107802
425 2 45.7029 25.6686 1.7571 45.7029 25.6686 1.7571
426 2 45.7361 25.7732 -1.50322 45.7361 25.7732 -1.50322
427 1 46.6702 24.0749 0.0836179 46.6702 24.0749 0.0836179
428 2 48.574 24.0221 1.7106 48.574 24.0221 1.7106
429 2 48.5689 24.1274 -1.5499 48.5689 24.1274 -1.5499
430 1 49.5222 25.7204 0.13207 49.5222 25.7204 0.13207
431 2 51.4459 25.6679 1.73554 51.4459 25.6679 1.73554
432 2 51.4009 25.7729 -1.52462 51.4009 25.7729 -1.52462
433 1 1.05433 27.3663 0.145434 1.05433 27.3663 0.145434
434 2 2.99538 27.3172 1.72807 2.99538 27.3172 1.72807
435 2 2.91497 27.4155 -1.53159 2.91497 27.4155 -1.53159
436 1 3.9059 29.0126 0.124593 3.9059 29.0126 0.124593
437 2 5.85945 28.9694 1.69204 5.85945 28.9694 1.69204
438 2 5.75318 29.056 -1.56721 5.75318 29.056 -1.56721
439 1 6.75622 27.367 -0.0124021 6.75622 27.367 -0.0124021
440 2 8.71396 27.3191 1.54959 8.71396 27.3191 1.54959
441 2 8.59871 27.4152 -1.70913 8.59871 27.4152 -1.70913
442 1 9.60676 29.0135 -0.0646461 9.60676 29.0135 -0.0646461
443 2 11.5636 28.9711 1.49873 11.5636 28.9711 1.49873
444 2 11.4501 29.0562 -1.7604 11.4501 29.0562 -1.7604
445 1 12.4567 27.3681 -0.206944 12.4567 27.3681 -0.206944
446 2 14.4046 27.3209 1.36752 14.4046 27.3209 1.36752
447 2 14.3096 27.4156 -1.89195 14.3096 27.4156 -1.89195
448 1 15.3076 29.0145 -0.241908 15.3076 29.0145 -0.241908
449 2 17.2424 28.9719 1.34878 17.2424 28.9719 1.34878
450 2 17.1742 29.0574 -1.91166 17.1742 29.0574 -1.91166
451 1 18.1586 27.3691 -0.344466 18.1586 27.3691 -0.344466
452 2 20.0757 27.3217 1.26747 20.0757 27.3217 1.26747
453 2 20.0436 27.4167 -1.99323 20.0436 27.4167 -1.99323
454 1 21.0102 29.0152 -0.324033 21.0102 29.0152 -0.324033
455 2 22.9086 28.9712 1.3101 22.9086 28.9712 1.3101
456 2 22.9141 29.0594 -1.95099 22.9141 29.0594 -1.95099
457 1 23.862 27.3695 -0.363314 23.862 27.3695 -0.363314
458 2 25.7418 27.3209 1.29214 25.7418 27.3209 1.29214
459 2 25.7843 27.4183 -1.96836 25.7843 27.4183 -1.96836
460 1 26.7133 29.0153 -0.276281 26.7133 29.0153 -0.276281
461 2 28.5771 28.9693 1.39715 28.5771 28.9693 1.39715
462 2 28.6508 29.0614 -1.86297 28.6508 29.0614 -1.86297
463 1 29.5646 27.3693 -0.257911 29.5646 27.3693 -0.257911
464 2 31.4167 27.3192 1.42836 31.4167 27.3192 1.42836
465 2 31.5132 27.4194 -1.83088 31.5132 27.4194 -1.83088
466 1 32.4147 29.0148 -0.122297 32.4147 29.0148 -0.122297
467 2 34.2612 28.9674 1.57009 34.2612 28.9674 1.57009
468 2 34.3685 29.0621 -1.68896 34.3685 29.0621 -1.68896
469 1 35.2654 27.3685 -0.0759951 35.2654 27.3685 -0.0759951
470 2 37.1123 27.3177 1.61584 37.1123 27.3177 1.61584
471 2 37.219 27.419 -1.64301 37.219 27.419 -1.64301
472 1 38.1154 29.0138 0.0689122 38.1154 29.0138 0.0689122
473 2 39.9705 28.9665 1.75178 39.9705 28.9665 1.75178
474 2 40.0615 29.0609 -1.50771 40.0615 29.0609 -1.50771
475 1 40.9666 27.3673 0.100833 40.9666 27.3673 0.100833
476 2 42.8344 27.3167 1.76947 42.8344 27.3167 1.76947
477 2 42.9008 27.4177 -1.49043 42.9008 27.4177 -1.49043
478 1 43.8179 29.0128 0.210048 43.8179 29.0128 0.210048
479 2 45.7044 28.9667 1.85768 45.7044 28.9667 1.85768
480 2 45.7343 29.0587 -1.40297 45.7343 29.0587 -1.40297
481 1 46.6701 27.3664 0.189552 46.6701 27.3664 0.189552
482 2 48.5754 27.3164 1.81517 48.5754 27.3164 1.81517
483 2 48.5678 27.4163 -1.44541 48.5678 27.4163 -1.44541
484 1 49.5224 29.0123 0.233259 49.5224 29.0123 0.233259
485 2 51.448 28.9678 1.83494 51.448 28.9678 1.83494
486 2 51.3995 29.0568 -1.42556 51.3995 29.0568 -1.42556
487 1 1.05472 30.6587 0.235654 1.05472 30.6587 0.235654
488 2 2.9978 30.6221 1.81635 2.9978 30.6221 1.81635
489 2 2.91349 30.6954 -1.44381 2.91349 30.6954 -1.44381
490 1 3.90632 32.3054 0.198853 3.90632 32.3054 0.198853
491 2 5.86155 32.2782 1.7647 5.86155 32.2782 1.7647
492 2 5.75194 32.3327 -1.4951 5.75194 32.3327 -1.4951
493 1 6.75683 30.6592 0.0753021 6.75683 30.6592 0.0753021
494 2 8.71624 30.6236 1.63565 8.71624 30.6236 1.63565
495 2 8.5976 30.695 -1.62358 8.5976 30.695 -1.62358
496 1 9.60722 32.3059 0.00766466 9.60722 32.3059 0.00766466
497 2 11.5651 32.2789 1.57019 11.5651 32.2789 1.57019
498 2 11.4495 32.3332 -1.68953 11.4495 32.3332 -1.68953
499 1 12.4572 30.6601 -0.120794 12.4572 30.6601 -0.120794
500 2 14.4062 30.6244 1.45264 14.4062 30.6244 1.45264
501 2 14.3088 30.696 -1.80738 14.3088 30.696 -1.80738
502 1 15.3078 32.3066 -0.169344 15.3078 32.3066 -0.169344
503 2 17.243 32.2783 1.42131 17.243 32.2783 1.42131
504 2 17.174 32.3352 -1.83979 17.174 32.3352 -1.83979
505 1 18.1588 30.6608 -0.257966 18.1588 30.6608 -0.257966
506 2 20.0763 30.6238 1.35374 20.0763 30.6238 1.35374
507 2 20.0431 30.6982 -1.90755 20.0431 30.6982 -1.90755
508 1 21.0102 32.3071 -0.248769 21.0102 32.3071 -0.248769
509 2 22.9082 32.2764 1.38605 22.9082 32.2764 1.38605
510 2 22.9141 32.3381 -1.8757 22.9141 32.3381 -1.8757
511 1 23.8618 30.6612 -0.27411 23.8618 30.6612 -0.27411
512 2 25.7414 30.6218 1.38167 25.7414 30.6218 1.38167
513 2 25.7839 30.7008 -1.8794 25.7839 30.7008 -1.8794
514 1 26.7128 32.3072 -0.196317 26.7128 32.3072 -0.196317
515 2 28.5762 32.2736 1.47791 28.5762 32.2736 1.47791
516 2 28.6506 32.341 -1.78283 28.6506 32.341 -1.78283
517 1 29.5639 30.661 -0.164676 29.5639 30.661 -0.164676
518 2 31.4162 30.6194 1.52163 31.4162 30.6194 1.52163
519 2 31.5122 30.7028 -1.73813 31.5122 30.7028 -1.73813
520 1 32.4139 32.3068 -0.0378574 32.4139 32.3068 -0.0378574
521 2 34.2609 32.2715 1.65437 34.2609 32.2715 1.65437
522 2 34.3673 32.3422 -1.60531 34.3673 32.3422 -1.60531
523 1 35.2645 30.6603 0.0199398 35.2645 30.6603 0.0199398
524 2 37.1126 30.618 1.71079 37.1126 30.618 1.71079
525 2 37.2171 30.7025 -1.54859 37.2171 30.7025 -1.54859
526 1 38.1146 32.3061 0.154498 38.1146 32.3061 0.154498
527 2 39.9716 32.2715 1.83581 39.9716 32.2715 1.83581
528 2 40.0592 32.3405 -1.42436 40.0592 32.3405 -1.42436
529 1 40.966 30.6594 0.196443 40.966 30.6594 0.196443
530 2 42.8358 30.6185 1.86325 42.8358 30.6185 1.86325
531 2 42.8985 30.7001 -1.39719 42.8985 30.7001 -1.39719
532 1 43.8176 32.3054 0.292779 43.8176 32.3054 0.292779
533 2 45.7066 32.2736 1.93805 45.7066 32.2736 1.93805
534 2 45.7318 32.3371 -1.32324 45.7318 32.3371 -1.32324
535 1 46.67 30.6587 0.282675 46.67 30.6587 0.282675
536 2 48.5775 30.6201 1.90622 48.5775 30.6201 1.90622
537 2 48.5658 30.6972 -1.35488 48.5658 30.6972 -1.35488
538 1 49.5225 32.3051 0.311361 49.5225 32.3051 0.311361