ITEM: TIMESTEP
55000
ITEM: NUMBER OF ATOMS
810
ITEM: BOX BOUNDS pp pp pp
8.4396361153223465e-01 5.2173641388466528e+01
8.1117693749615205e-01 5.0205038062503512e+01
-1.0000000000000000e+01 1.0000000000000000e+01
ITEM: ATOMS id type x y z xu yu zu
1 1 1.04784 1.0258 -0.278704 1.04784 1.0258 -0.278704
2 2 2.92323 0.99606 1.38206 2.92323 0.99606 1.38206
3 2 2.97456 1.05549 -1.87918 2.97456 1.05549 -1.87918
4 1 3.89929 2.67196 -0.203446 3.89929 2.67196 -0.203446
5 2 5.76932 2.64322 1.46335 5.76932 2.64322 1.46335
6 2 5.83113 2.70067 -1.79775 5.83113 2.70067 -1.79775
7 1 6.75082 1.02548 -0.178187 6.75082 1.02548 -0.178187
8 2 8.61897 0.99488 1.4906 8.61897 0.99488 1.4906
9 2 8.68448 1.05604 -1.77035 8.68448 1.05604 -1.77035
10 1 9.60202 2.67161 -0.0897816 9.60202 2.67161 -0.0897816
11 2 11.4726 2.64182 1.57623 11.4726 2.64182 1.57623
12 2 11.5334 2.7014 -1.68484 11.5334 2.7014 -1.68484
13 1 12.4536 1.02512 -0.0667339 12.4536 1.02512 -0.0667339
14 2 14.3301 0.993713 1.59254 14.3301 0.993713 1.59254
15 2 14.3793 1.05653 -1.66866 14.3793 1.05653 -1.66866
16 1 15.3051 2.67131 0.00809442 15.3051 2.67131 0.00809442
17 2 17.1908 2.64072 1.65691 17.1908 2.64072 1.65691
18 2 17.222 2.70193 -1.60453 17.222 2.70193 -1.60453
19 1 18.157 1.0249 0.00427748 18.157 1.0249 0.00427748
20 2 20.0531 0.993318 1.641 20.0531 0.993318 1.641
21 2 20.0636 1.05653 -1.62055 20.0636 1.05653 -1.62055
22 1 21.009 2.67121 0.0452461 21.009 2.67121 0.0452461
23 2 22.9169 2.64061 1.66821 22.9169 2.64061 1.66821
24 2 22.9038 2.70188 -1.59335 22.9038 2.70188 -1.59335
25 1 23.8609 1.02493 0.00254217 23.8609 1.02493 0.00254217
26 2 25.7789 0.99386 1.61347 25.7789 0.99386 1.61347
27 2 25.7454 1.05608 -1.64794 25.7454 1.05608 -1.64794
28 1 26.7128 2.67137 0.0044408 26.7128 2.67137 0.0044408
29 2 28.6402 2.64133 1.60424 28.6402 2.64133 1.60424
30 2 28.5877 2.70151 -1.65695 28.5877 2.70151 -1.65695
31 1 29.5643 1.02521 -0.0721733 29.5643 1.02521 -0.0721733
32 2 31.4968 0.994899 1.52139 31.4968 0.994899 1.52139
33 2 31.4337 1.0556 -1.73962 31.4337 1.0556 -1.73962
34 1 32.4159 2.67172 -0.0967991 32.4159 2.67172 -0.0967991
35 2 34.351 2.6425 1.49369 34.351 2.6425 1.49369
36 2 34.2825 2.70103 -1.76726 34.2825 2.70103 -1.76726
37 1 35.2671 1.0256 -0.186391 35.2671 1.0256 -0.186391
38 2 37.1994 0.996053 1.40748 37.1994 0.996053 1.40748
39 2 37.1366 1.05519 -1.85357 37.1366 1.05519 -1.85357
40 1 38.1186 2.67209 -0.211398 38.1186 2.67209 -0.211398
41 2 40.0455 2.64377 1.38908 40.0455 2.64377 1.38908
42 2 39.9937 2.70043 -1.87221 39.9937 2.70043 -1.87221
43 1 40.9701 1.02591 -0.285347 40.9701 1.02591 -0.285347
44 2 42.8874 0.996834 1.32676 42.8874 0.996834 1.32676
45 2 42.8552 1.05493 -1.93475 42.8552 1.05493 -1.93475
46 1 43.8219 2.67228 -0.283912 43.8219 2.67228 -0.283912
47 2 45.7287 2.64448 1.34073 45.7287 2.64448 1.34073
48 2 45.7177 2.70002 -1.92099 45.7177 2.70002 -1.92099
49 1 46.6738 1.02597 -0.321394 46.6738 1.02597 -0.321394
50 2 48.5686 0.996805 1.31724 48.5686 0.996805 1.31724
51 2 48.5816 1.05506 -1.94441 48.5816 1.05506 -1.94441
52 1 49.5257 2.67222 -0.280223 49.5257 2.67222 -0.280223
53 2 51.41 2.64423 1.37047 51.41 2.64423 1.37047
54 2 51.4437 2.70015 -1.89109 51.4437 2.70015 -1.89109
55 1 1.04767 4.31843 -0.222084 1.04767 4.31843 -0.222084
56 2 2.92345 4.29286 1.43832 2.92345 4.29286 1.43832
57 2 2.97392 4.34397 -1.8231 2.97392 4.34397 -1.8231
58 1 3.89908 5.96468 -0.151705 3.89908 5.96468 -0.151705
59 2 5.7693 5.94256 1.51501 5.7693 5.94256 1.51501
60 2 5.8307 5.98678 -1.74632 5.8307 5.98678 -1.74632
61 1 6.75054 4.31814 -0.120026 6.75054 4.31814 -0.120026
62 2 8.61891 4.29155 1.54863 8.61891 4.29155 1.54863
63 2 8.68398 4.34472 -1.71247 8.68398 4.34472 -1.71247
64 1 9.60176 5.9644 -0.0359559 9.60176 5.9644 -0.0359559
65 2 11.4724 5.941 1.63016 11.4724 5.941 1.63016
66 2 11.5331 5.9878 -1.63111 11.5331 5.9878 -1.63111
67 1 12.4533 4.31782 -0.00640439 12.4533 4.31782 -0.00640439
68 2 14.3301 4.29003 1.65266 14.3301 4.29003 1.65266
69 2 14.3788 4.34562 -1.60866 14.3788 4.34562 -1.60866
70 1 15.3049 5.96414 0.064377 15.3049 5.96414 0.064377
71 2 17.1909 5.93953 1.71304 17.1909 5.93953 1.71304
72 2 17.2216 5.98879 -1.54859 17.2216 5.98879 -1.54859
73 1 18.1569 4.31761 0.0662631 18.1569 4.31761 0.0662631
74 2 20.0538 4.28914 1.70227 20.0538 4.28914 1.70227
75 2 20.0629 4.34614 -1.55936 20.0629 4.34614 -1.55936
76 1 21.009 5.96404 0.102966 21.009 5.96404 0.102966
77 2 22.9177 5.93889 1.72521 22.9177 5.93889 1.72521
78 2 22.9031 5.98928 -1.5365 22.9031 5.98928 -1.5365
79 1 23.861 4.31763 0.0646052 23.861 4.31763 0.0646052
80 2 25.7801 4.28928 1.67436 25.7801 4.28928 1.67436
81 2 25.7445 4.34609 -1.5871 25.7445 4.34609 -1.5871
82 1 26.713 5.96417 0.0619939 26.713 5.96417 0.0619939
83 2 28.6415 5.93924 1.66067 28.6415 5.93924 1.66067
84 2 28.5869 5.98922 -1.60064 28.5869 5.98922 -1.60064
85 1 29.5646 4.31789 -0.0112134 29.5646 4.31789 -0.0112134
86 2 31.4983 4.29016 1.58097 31.4983 4.29016 1.58097
87 2 31.4328 4.34573 -1.68007 31.4328 4.34573 -1.68007
88 1 32.4162 5.96448 -0.0405006 32.4162 5.96448 -0.0405006
89 2 34.3525 5.9404 1.54857 34.3525 5.9404 1.54857
90 2 34.2815 5.98865 -1.71249 34.2815 5.98865 -1.71249
91 1 35.2673 4.31826 -0.127083 35.2673 4.31826 -0.127083
92 2 37.201 4.29157 1.46529 37.201 4.29157 1.46529
93 2 37.1355 4.34501 -1.79581 37.1355 4.34501 -1.79581
94 1 38.1188 5.96479 -0.157233 38.1188 5.96479 -0.157233
95 2 40.0472 5.94209 1.44169 40.0472 5.94209 1.44169
96 2 39.9924 5.98752 -1.81975 39.9924 5.98752 -1.81975
97 1 40.9702 4.31854 -0.227939 40.9702 4.31854 -0.227939
98 2 42.8887 4.29294 1.38285 42.8887 4.29294 1.38285
99 2 42.854 4.34412 -1.87878 42.854 4.34412 -1.87878
100 1 43.822 5.96494 -0.232055 43.822 5.96494 -0.232055
101 2 45.7299 5.94338 1.39141 45.7299 5.94338 1.39141
102 2 45.7165 5.98646 -1.87051 45.7165 5.98646 -1.87051
103 1 46.6738 4.31859 -0.265137 46.6738 4.31859 -0.265137
104 2 48.5693 4.29344 1.3727 48.5693 4.29344 1.3727
105 2 48.5807 4.34369 -1.88912 48.5807 4.34369 -1.88912
106 1 49.5256 5.96488 -0.22933 49.5256 5.96488 -0.22933
107 2 51.4105 5.94351 1.42083 51.4105 5.94351 1.42083
108 2 51.443 5.98622 -1.84096 51.443 5.98622 -1.84096
109 1 1.04755 7.6112 -0.178841 1.04755 7.6112 -0.178841
110 2 2.9236 7.59446 1.48139 2.9236 7.59446 1.48139
111 2 2.97348 7.62793 -1.78028 2.97348 7.62793 -1.78028
112 1 3.89896 9.25759 -0.117833 3.89896 9.25759 -0.117833
113 2 5.76911 9.2461 1.54907 5.76911 9.2461 1.54907
114 2 5.8306 9.26908 -1.71247 5.8306 9.26908 -1.71247
115 1 6.75034 7.611 -0.0752583 6.75034 7.611 -0.0752583
116 2 8.61865 7.59318 1.59363 8.61865 7.59318 1.59363
117 2 8.68383 7.62882 -1.66771 8.68383 7.62882 -1.66771
118 1 9.60159 9.25743 0.000107465 9.60159 9.25743 0.000107465
119 2 11.472 9.24462 1.66671 11.472 9.24462 1.66671
120 2 11.5332 9.27025 -1.59477 11.5332 9.27025 -1.59477
121 1 12.4531 7.61077 0.0409647 12.4531 7.61077 0.0409647
122 2 14.3298 7.59152 1.70031 14.3298 7.59152 1.70031
123 2 14.3787 7.63004 -1.56124 14.3787 7.63004 -1.56124
124 1 15.3048 9.25728 0.103356 15.3048 9.25728 0.103356
125 2 17.1906 9.243 1.7524 17.1906 9.243 1.7524
126 2 17.2217 9.27159 -1.50944 17.2217 9.27159 -1.50944
127 1 18.1568 7.61061 0.116141 18.1568 7.61061 0.116141
128 2 20.054 7.59021 1.75202 20.054 7.59021 1.75202
129 2 20.0626 7.63106 -1.50983 20.0626 7.63106 -1.50983
130 1 21.009 9.25722 0.144332 21.009 9.25722 0.144332
131 2 22.9179 9.24192 1.76646 22.9179 9.24192 1.76646
132 2 22.903 9.27257 -1.49547 22.903 9.27257 -1.49547
133 1 23.8611 7.61062 0.11565 23.8611 7.61062 0.11565
134 2 25.781 7.58983 1.72472 25.781 7.58983 1.72472
135 2 25.7439 7.63149 -1.53693 25.7439 7.63149 -1.53693
136 1 26.7132 9.25729 0.104201 26.7132 9.25729 0.104201
137 2 28.6424 9.24184 1.70218 28.6424 9.24184 1.70218
138 2 28.5863 9.27283 -1.55932 28.5863 9.27283 -1.55932
139 1 29.5648 7.61081 0.0394262 29.5648 7.61081 0.0394262
140 2 31.4996 7.59046 1.63048 31.4996 7.59046 1.63048
141 2 31.432 7.63126 -1.63072 31.432 7.63126 -1.63072
142 1 32.4164 9.25748 0.000855801 32.4164 9.25748 0.000855801
143 2 34.3539 9.24281 1.58867 34.3539 9.24281 1.58867
144 2 34.2806 9.27223 -1.67255 34.2806 9.27223 -1.67255
145 1 35.2676 7.61109 -0.0781816 35.2676 7.61109 -0.0781816
146 2 37.2026 7.59198 1.51265 37.2026 7.59198 1.51265
147 2 37.1343 7.63025 -1.74861 37.1343 7.63025 -1.74861
148 1 38.119 9.25768 -0.11843 38.119 9.25768 -0.11843
149 2 40.0488 9.24464 1.47888 40.0488 9.24464 1.47888
150 2 39.9911 9.27074 -1.78273 39.9911 9.27074 -1.78273
151 1 40.9704 7.61129 -0.181885 40.9704 7.61129 -0.181885
152 2 42.8902 7.59381 1.42739 42.8902 7.59381 1.42739
153 2 42.8527 7.62877 -1.83444 42.8527 7.62877 -1.83444
154 1 43.8221 9.25776 -0.19662 43.8221 9.25776 -0.19662
155 2 45.7311 9.24634 1.42557 45.7311 9.24634 1.42557
156 2 45.7154 9.26915 -1.83656 45.7154 9.26915 -1.83656
157 1 46.6738 7.61132 -0.221496 46.6738 7.61132 -0.221496
158 2 48.5702 7.5948 1.41547 48.5702 7.5948 1.41547
159 2 48.5798 7.62781 -1.84659 48.5798 7.62781 -1.84659
160 1 49.5256 9.25771 -0.195895 49.5256 9.25771 -0.195895
161 2 51.4109 9.24685 1.45382 51.4109 9.24685 1.45382
162 2 51.4424 9.26855 -1.8082 51.4424 9.26855 -1.8082
163 1 1.04751 10.9041 -0.156875 1.04751 10.9041 -0.156875
164 2 2.92363 10.8993 1.50336 2.92363 10.8993 1.50336
165 2 2.97333 10.909 -1.75848 2.97333 10.909 -1.75848
166 1 3.89895 12.5506 -0.107991 3.89895 12.5506 -0.107991
167 2 5.7688 12.5519 1.55931 5.7688 12.5519 1.55931
168 2 5.83088 12.5494 -1.70231 5.83088 12.5494 -1.70231
169 1 6.75024 10.9041 -0.0520078 6.75024 10.9041 -0.0520078
170 2 8.61819 10.8983 1.61739 8.61819 10.8983 1.61739
171 2 8.68408 10.9099 -1.6441 8.68408 10.9099 -1.6441
172 1 9.60155 12.5507 0.0118734 9.60155 12.5507 0.0118734
173 2 11.4713 12.5508 1.67923 11.4713 12.5508 1.67923
174 2 11.5338 12.5506 -1.58233 11.5338 12.5506 -1.58233
175 1 12.453 10.904 0.0668921 12.453 10.904 0.0668921
176 2 14.3293 10.8967 1.72692 14.3293 10.8967 1.72692
177 2 14.3791 10.9113 -1.5348 14.3791 10.9113 -1.5348
178 1 15.3047 12.5507 0.118031 15.3047 12.5507 0.118031
179 2 17.1899 12.5493 1.76787 17.1899 12.5493 1.76787
180 2 17.2223 12.552 -1.49408 17.2223 12.552 -1.49408
181 1 18.1568 10.9039 0.145072 18.1568 10.9039 0.145072
182 2 20.0537 10.8953 1.78139 20.0537 10.8953 1.78139
183 2 20.0628 10.9126 -1.48065 20.0628 10.9126 -1.48065
184 1 21.009 12.5507 0.161873 21.009 12.5507 0.161873
185 2 22.9177 12.5481 1.78442 22.9177 12.5481 1.78442
186 2 22.9033 12.5532 -1.47764 22.9033 12.5532 -1.47764
187 1 23.8612 10.9039 0.146685 23.8612 10.9039 0.146685
188 2 25.7813 10.8945 1.75561 25.7813 10.8945 1.75561
189 2 25.7438 10.9134 -1.50623 25.7438 10.9134 -1.50623
190 1 26.7133 12.5507 0.123377 26.7133 12.5507 0.123377
191 2 28.6427 12.5476 1.72116 28.6427 12.5476 1.72116
192 2 28.5862 12.5537 -1.54047 28.5862 12.5537 -1.54047
193 1 29.565 10.904 0.0708329 29.565 10.904 0.0708329
194 2 31.5006 10.8947 1.66111 31.5006 10.8947 1.66111
195 2 31.4314 10.9134 -1.60025 31.4314 10.9134 -1.60025
196 1 32.4165 12.5507 0.019769 32.4165 12.5507 0.019769
197 2 34.3549 12.5481 1.60672 34.3549 12.5481 1.60672
198 2 34.2799 12.5533 -1.65459 34.2799 12.5533 -1.65459
199 1 35.2678 10.9041 -0.0483522 35.2678 10.9041 -0.0483522
200 2 37.204 10.896 1.5411 37.204 10.896 1.5411
201 2 37.1332 10.9123 -1.72029 37.1332 10.9123 -1.72029
202 1 38.1191 12.5507 -0.101901 38.1191 12.5507 -0.101901
203 2 40.0501 12.5496 1.49401 40.0501 12.5496 1.49401
204 2 39.99 12.5519 -1.76766 39.99 12.5519 -1.76766
205 1 40.9705 10.9042 -0.155415 40.9705 10.9042 -0.155415
206 2 42.8917 10.8979 1.45235 42.8917 10.8979 1.45235
207 2 42.8514 10.9105 -1.80962 42.8514 10.9105 -1.80962
208 1 43.8221 12.5507 -0.183847 43.8221 12.5507 -0.183847
209 2 45.7322 12.5513 1.43714 45.7322 12.5513 1.43714
210 2 45.7143 12.55 -1.82507 45.7143 12.55 -1.82507
211 1 46.6738 10.9042 -0.198375 46.6738 10.9042 -0.198375
212 2 48.571 10.8993 1.43773 48.571 10.8993 1.43773
213 2 48.579 10.9091 -1.8245 48.579 10.9091 -1.8245
214 1 49.5256 12.5507 -0.185898 49.5256 12.5507 -0.185898
215 2 51.4113 12.5522 1.46346 51.4113 12.5522 1.46346
216 2 51.4421 12.5491 -1.79864 51.4421 12.5491 -1.79864
217 1 1.04756 14.1971 -0.160033 1.04756 14.1971 -0.160033
218 2 2.92359 14.2049 1.5003 2.92359 14.2049 1.5003
219 2 2.97348 14.1893 -1.76151 2.97348 14.1893 -1.76151
220 1 3.89907 15.8437 -0.123802 3.89907 15.8437 -0.123802
221 2 5.76847 15.8573 1.54394 5.76847 15.8573 1.54394
222 2 5.83143 15.8301 -1.71754 5.83143 15.8301 -1.71754
223 1 6.75029 14.1972 -0.0544894 6.75029 14.1972 -0.0544894
224 2 8.61764 14.2045 1.61558 8.61764 14.2045 1.61558
225 2 8.6847 14.19 -1.64588 8.6847 14.19 -1.64588
226 1 9.60165 15.8439 -0.00279156 9.60165 15.8439 -0.00279156
227 2 11.4706 15.8569 1.66539 11.4706 15.8569 1.66539
228 2 11.5346 15.8309 -1.59603 11.5346 15.8309 -1.59603
229 1 12.453 14.1973 0.0666576 12.453 14.1973 0.0666576
230 2 14.3285 14.2034 1.72758 14.3285 14.2034 1.72758
231 2 14.3799 14.1912 -1.53412 14.3799 14.1912 -1.53412
232 1 15.3048 15.844 0.105625 15.3048 15.844 0.105625
233 2 17.1891 15.8561 1.75642 17.1891 15.8561 1.75642
234 2 17.2232 15.832 -1.50543 17.2232 15.832 -1.50543
235 1 18.1568 14.1974 0.147722 18.1568 14.1974 0.147722
236 2 20.053 14.2022 1.78485 20.053 14.2022 1.78485
237 2 20.0635 14.1925 -1.47721 20.0635 14.1925 -1.47721
238 1 21.009 15.8441 0.152041 21.009 15.8441 0.152041
239 2 22.917 15.8551 1.77537 22.917 15.8551 1.77537
240 2 22.904 15.8331 -1.48663 22.904 15.8331 -1.48663
241 1 23.8612 14.1974 0.151806 23.8612 14.1974 0.151806
242 2 25.7811 14.2013 1.7611 25.7811 14.2013 1.7611
243 2 25.7441 14.1935 -1.50079 25.7441 14.1935 -1.50079
244 1 26.7133 15.8441 0.115484 26.7133 15.8441 0.115484
245 2 28.6424 15.8543 1.71363 28.6424 15.8543 1.71363
246 2 28.5865 15.8338 -1.54796 28.5865 15.8338 -1.54796
247 1 29.5651 14.1974 0.0770024 29.5651 14.1974 0.0770024
248 2 31.5009 14.201 1.66705 31.5009 14.201 1.66705
249 2 31.4312 14.1937 -1.59435 31.4312 14.1937 -1.59435
250 1 32.4166 15.844 0.0124326 32.4166 15.844 0.0124326
251 2 34.355 15.8541 1.59919 34.355 15.8541 1.59919
252 2 34.2798 15.8339 -1.66205 34.2798 15.8339 -1.66205
253 1 35.2679 14.1973 -0.0430835 35.2679 14.1973 -0.0430835
254 2 37.2049 14.2016 1.54548 37.2049 14.2016 1.54548
255 2 37.1325 14.193 -1.71591 37.1325 14.193 -1.71591
256 1 38.1191 15.8438 -0.110569 38.1191 15.8438 -0.110569
257 2 40.0507 15.8546 1.48453 40.0507 15.8546 1.48453
258 2 39.9893 15.8329 -1.77704 39.9893 15.8329 -1.77704
259 1 40.9705 14.1972 -0.153095 40.9705 14.1972 -0.153095
260 2 42.8927 14.2031 1.45344 42.8927 14.2031 1.45344
261 2 42.8504 14.1914 -1.80851 42.8504 14.1914 -1.80851
262 1 43.8221 15.8437 -0.195651 43.8221 15.8437 -0.195651
263 2 45.733 15.856 1.42439 45.733 15.856 1.42439
264 2 45.7136 15.8313 -1.83771 45.7136 15.8313 -1.83771
265 1 46.6739 14.1972 -0.199673 46.6739 14.1972 -0.199673
266 2 48.5717 14.2045 1.43567 48.5717 14.2045 1.43567
267 2 48.5784 14.1898 -1.82655 48.5784 14.1898 -1.82655
268 1 49.5257 15.8436 -0.200772 49.5257 15.8436 -0.200772
269 2 51.4116 15.8571 1.44828 51.4116 15.8571 1.44828
270 2 51.4419 15.8301 -1.8137 51.4419 15.8301 -1.8137
271 1 1.04769 17.49 -0.187363 1.04769 17.49 -0.187363
272 2 2.92355 17.5089 1.47308 2.92355 17.5089 1.47308
273 2 2.97382 17.4712 -1.78854 2.97382 17.4712 -1.78854
274 1 3.89927 19.1365 -0.16207 3.89927 19.1365 -0.16207
275 2 5.76825 19.16 1.50604 5.76825 19.16 1.50604
276 2 5.83209 19.1131 -1.7552 5.83209 19.1131 -1.7552
277 1 6.75047 17.4903 -0.0821086 6.75047 17.4903 -0.0821086
278 2 8.61715 17.5092 1.58861 8.61715 17.5092 1.58861
279 2 8.68553 17.4714 -1.67264 8.68553 17.4714 -1.67264
280 1 9.60188 19.1369 -0.0411263 9.60188 19.1369 -0.0411263
281 2 11.4701 19.1605 1.62777 11.4701 19.1605 1.62777
282 2 11.5356 19.1133 -1.63339 11.5356 19.1133 -1.63339
283 1 12.4532 17.4905 0.0402516 12.4532 17.4905 0.0402516
284 2 14.3277 17.509 1.70208 14.3277 17.509 1.70208
285 2 14.3809 17.4721 -1.55942 14.3809 17.4721 -1.55942
286 1 15.3049 19.1372 0.0682101 15.3049 19.1372 0.0682101
287 2 17.1883 19.1606 1.7199 17.1883 19.1606 1.7199
288 2 17.2242 19.1138 -1.5417 17.2242 19.1138 -1.5417
289 1 18.1568 17.4908 0.123288 18.1568 17.4908 0.123288
290 2 20.0521 17.5085 1.76137 20.0521 17.5085 1.76137
291 2 20.0644 17.473 -1.50052 20.0644 17.473 -1.50052
292 1 21.009 19.1374 0.116117 21.009 19.1374 0.116117
293 2 22.916 19.1602 1.74044 22.916 19.1602 1.74044
294 2 22.9049 19.1145 -1.52135 22.9049 19.1145 -1.52135
295 1 23.8612 17.4908 0.129464 23.8612 17.4908 0.129464
296 2 25.7803 17.5076 1.73956 25.7803 17.5076 1.73956
297 2 25.7448 17.4739 -1.52219 25.7448 17.4739 -1.52219
298 1 26.7132 19.1373 0.0813 26.7132 19.1373 0.0813
299 2 28.6413 19.1592 1.68041 28.6413 19.1592 1.68041
300 2 28.5874 19.1154 -1.58099 28.5874 19.1154 -1.58099
301 1 29.565 17.4907 0.0562028 29.565 17.4907 0.0562028
302 2 31.5003 17.5068 1.64673 31.5003 17.5068 1.64673
303 2 31.4317 17.4745 -1.61455 31.4317 17.4745 -1.61455
304 1 32.4164 19.1371 -0.0202183 32.4164 19.1371 -0.0202183
305 2 34.3542 19.158 1.56724 34.3542 19.158 1.56724
306 2 34.2804 19.1161 -1.69384 34.2804 19.1161 -1.69384
307 1 35.2678 17.4904 -0.0635219 35.2678 17.4904 -0.0635219
308 2 37.2048 17.5063 1.52497 37.2048 17.5063 1.52497
309 2 37.1325 17.4745 -1.73628 37.1325 17.4745 -1.73628
310 1 38.119 19.1368 -0.142794 38.119 19.1368 -0.142794
311 2 40.0505 19.1575 1.45235 40.0505 19.1575 1.45235
312 2 39.9894 19.1159 -1.80902 39.9894 19.1159 -1.80902
313 1 40.9705 17.4902 -0.175055 40.9705 17.4902 -0.175055
314 2 42.8932 17.5069 1.43082 42.8932 17.5069 1.43082
315 2 42.8499 17.4734 -1.83096 42.8499 17.4734 -1.83096
316 1 43.8221 19.1365 -0.2295 43.8221 19.1365 -0.2295
317 2 45.7332 19.1581 1.39008 45.7332 19.1581 1.39008
318 2 45.7133 19.1148 -1.8718 45.7133 19.1148 -1.8718
319 1 46.6739 17.49 -0.224663 46.6739 17.49 -0.224663
320 2 48.5721 17.5081 1.4101 48.5721 17.5081 1.4101
321 2 48.578 17.4719 -1.85193 48.578 17.4719 -1.85193
322 1 49.5257 19.1364 -0.237354 49.5257 19.1364 -0.237354
323 2 51.4117 19.1592 1.41149 51.4117 19.1592 1.41149
324 2 51.442 19.1136 -1.85027 51.442 19.1136 -1.85027
325 1 1.04786 20.7828 -0.233512 1.04786 20.7828 -0.233512
326 2 2.92355 20.8092 1.42701 2.92355 20.8092 1.42701
327 2 2.97422 20.7564 -1.83438 2.97422 20.7564 -1.83438
328 1 3.89952 22.4292 -0.215539 3.89952 22.4292 -0.215539
329 2 5.76819 22.4581 1.45281 5.76819 22.4581 1.45281
330 2 5.83268 22.4003 -1.80824 5.83268 22.4003 -1.80824
331 1 6.75074 20.7831 -0.129581 6.75074 20.7831 -0.129581
332 2 8.61687 20.8102 1.54161 8.61687 20.8102 1.54161
333 2 8.68633 20.756 -1.71939 8.68633 20.756 -1.71939
334 1 9.60218 22.4296 -0.0959768 9.60218 22.4296 -0.0959768
335 2 11.4698 22.4594 1.57336 11.4698 22.4594 1.57336
336 2 11.5363 22.3999 -1.68759 11.5363 22.3999 -1.68759
337 1 12.4534 20.7835 -0.00750646 12.4534 20.7835 -0.00750646
338 2 14.3272 20.811 1.65501 14.3272 20.811 1.65501
339 2 14.3818 20.756 -1.60623 14.3818 20.756 -1.60623
340 1 15.3052 22.43 0.0125387 15.3052 22.43 0.0125387
341 2 17.1878 22.4605 1.66489 17.1878 22.4605 1.66489
342 2 17.225 22.3996 -1.59648 17.225 22.3996 -1.59648
343 1 18.1569 20.7838 0.0759251 18.1569 20.7838 0.0759251
344 2 20.0512 20.8113 1.71492 20.0512 20.8113 1.71492
345 2 20.0654 20.7563 -1.54672 20.0654 20.7563 -1.54672
346 1 21.009 22.4303 0.0603919 21.009 22.4303 0.0603919
347 2 22.9149 22.4607 1.68577 22.9149 22.4607 1.68577
348 2 22.9059 22.3998 -1.5758 22.9059 22.3998 -1.5758
349 1 23.8611 20.7839 0.0832203 23.8611 20.7839 0.0832203
350 2 25.779 20.8107 1.69448 25.779 20.8107 1.69448
351 2 25.7459 20.757 -1.56705 25.7459 20.757 -1.56705
352 1 26.713 22.4302 0.0267853 26.713 22.4302 0.0267853
353 2 28.6397 22.4597 1.62738 28.6397 22.4597 1.62738
354 2 28.5886 22.4006 -1.63384 28.5886 22.4006 -1.63384
355 1 29.5648 20.7837 0.0117892 29.5648 20.7837 0.0117892
356 2 31.499 20.8094 1.60357 31.499 20.8094 1.60357
357 2 31.4327 20.7579 -1.65751 31.4327 20.7579 -1.65751
358 1 32.4162 22.4299 -0.0723576 32.4162 22.4299 -0.0723576
359 2 34.3525 22.4579 1.51666 34.3525 22.4579 1.51666
360 2 34.2816 22.4018 -1.74427 34.2816 22.4018 -1.74427
361 1 35.2676 20.7834 -0.106051 35.2676 20.7834 -0.106051
362 2 37.2038 20.8079 1.48333 37.2038 20.8079 1.48333
363 2 37.1332 20.7587 -1.77773 37.1332 20.7587 -1.77773
364 1 38.1188 22.4295 -0.192694 38.1188 22.4295 -0.192694
365 2 40.0494 22.4564 1.40341 40.0494 22.4564 1.40341
366 2 39.9902 22.4025 -1.8578 39.9902 22.4025 -1.8578
367 1 40.9704 20.783 -0.217127 40.9704 20.783 -0.217127
368 2 42.8929 20.8074 1.38887 42.8929 20.8074 1.38887
369 2 42.8501 20.7584 -1.8727 42.8501 20.7584 -1.8727
370 1 43.822 22.4292 -0.279142 43.822 22.4292 -0.279142
371 2 45.7329 22.4561 1.34062 45.7329 22.4561 1.34062
372 2 45.7136 22.4021 -1.92108 45.7136 22.4021 -1.92108
373 1 46.6739 20.7827 -0.268455 46.6739 20.7827 -0.268455
374 2 48.5723 20.8081 1.36608 48.5723 20.8081 1.36608
375 2 48.578 20.7573 -1.89574 48.578 20.7573 -1.89574
376 1 49.5258 22.429 -0.28876 49.5258 22.429 -0.28876
377 2 51.4118 22.4569 1.36007 51.4118 22.4569 1.36007
378 2 51.4423 22.4011 -1.90151 51.4423 22.4011 -1.90151
379 1 1.04803 24.0754 -0.289986 1.04803 24.0754 -0.289986
380 2 2.92358 24.1046 1.37065 2.92358 24.1046 1.37065
381 2 2.97463 24.0463 -1.89062 2.97463 24.0463 -1.89062
382 1 3.89976 25.7218 -0.274536 3.89976 25.7218 -0.274536
383 2 5.76831 25.7511 1.39391 5.76831 25.7511 1.39391
384 2 5.83309 25.6926 -1.8671 5.83309 25.6926 -1.8671
385 1 6.75104 24.0757 -0.188088 6.75104 24.0757 -0.188088
386 2 8.61688 24.106 1.48332 8.61688 24.106 1.48332
387 2 8.68692 24.0454 -1.77755 8.68692 24.0454 -1.77755
388 1 9.60248 25.7222 -0.15733 9.60248 25.7222 -0.15733
389 2 11.47 25.7529 1.51212 11.47 25.7529 1.51212
390 2 11.5368 25.6916 -1.7488 11.5368 25.6916 -1.7488
391 1 12.4537 24.0762 -0.0678384 12.4537 24.0762 -0.0678384
392 2 14.327 24.1077 1.59504 14.327 24.1077 1.59504
393 2 14.3825 24.0447 -1.66606 14.3825 24.0447 -1.66606
394 1 15.3054 25.7226 -0.0511897 15.3054 25.7226 -0.0511897
395 2 17.1875 25.7546 1.60153 17.1875 25.7546 1.60153
396 2 17.2256 25.6907 -1.65981 17.2256 25.6907 -1.65981
397 1 18.1571 24.0765 0.0142401 18.1571 24.0765 0.0142401
398 2 20.0505 24.1087 1.65398 20.0505 24.1087 1.65398
399 2 20.0662 24.0443 -1.60751 20.0662 24.0443 -1.60751
400 1 21.0091 25.7229 -0.0048258 21.0091 25.7229 -0.0048258
401 2 22.9139 25.7553 1.62155 22.9139 25.7553 1.62155
402 2 22.9068 25.6905 -1.63999 22.9068 25.6905 -1.63999
403 1 23.861 24.0766 0.0214797 23.861 24.0766 0.0214797
404 2 25.7776 24.1085 1.63411 25.7776 24.1085 1.63411
405 2 25.747 24.0447 -1.62729 25.747 24.0447 -1.62729
406 1 26.7128 25.7228 -0.037911 26.7128 25.7228 -0.037911
407 2 28.638 25.7545 1.56442 28.638 25.7545 1.56442
408 2 28.5898 25.6911 -1.69679 28.5898 25.6911 -1.69679
409 1 29.5646 24.0764 -0.048125 29.5646 24.0764 -0.048125
410 2 31.497 24.107 1.54551 31.497 24.107 1.54551
411 2 31.4341 24.0458 -1.71549 31.4341 24.0458 -1.71549
412 1 32.4159 25.7225 -0.134392 32.4159 25.7225 -0.134392
413 2 34.3504 25.7526 1.45669 34.3504 25.7526 1.45669
414 2 34.2831 25.6924 -1.80425 34.2831 25.6924 -1.80425
415 1 35.2674 24.076 -0.16293 35.2674 24.076 -0.16293
416 2 37.202 24.1049 1.42814 37.202 24.1049 1.42814
417 2 37.1345 24.047 -1.83283 37.1345 24.047 -1.83283
418 1 38.1186 25.7221 -0.251371 38.1186 25.7221 -0.251371
419 2 40.0478 25.7506 1.34638 40.0478 25.7506 1.34638
420 2 39.9914 25.6936 -1.91482 39.9914 25.6936 -1.91482
421 1 40.9702 24.0756 -0.271765 40.9702 24.0756 -0.271765
422 2 42.8919 24.1036 1.33514 42.8919 24.1036 1.33514
423 2 42.8509 24.0476 -1.92631 42.8509 24.0476 -1.92631
424 1 43.8219 25.7218 -0.335903 43.8219 25.7218 -0.335903
425 2 45.7321 25.7496 1.28468 45.7321 25.7496 1.28468
426 2 45.7143 25.694 -1.97697 45.7143 25.694 -1.97697
427 1 46.6739 24.0754 -0.323163 46.6739 24.0754 -0.323163
428 2 48.572 24.1036 1.31161 48.572 24.1036 1.31161
429 2 48.5784 24.0471 -1.95009 48.5784 24.0471 -1.95009
430 1 49.5259 25.7217 -0.345907 49.5259 25.7217 -0.345907
431 2 51.4116 25.7498 1.30319 51.4116 25.7498 1.30319
432 2 51.4427 25.6935 -1.95835 51.4427 25.6935 -1.95835
433 1 1.04818 27.3681 -0.346988 1.04818 27.3681 -0.346988
434 2 2.92357 27.3951 1.31384 2.92357 27.3951 1.31384
435 2 2.97501 27.3412 -1.94747 2.97501 27.3412 -1.94747
436 1 3.89994 29.0146 -0.329067 3.89994 29.0146 -0.329067
437 2 5.76852 29.0394 1.3394 5.76852 29.0394 1.3394
438 2 5.83329 28.9899 -1.92175 5.83329 28.9899 -1.92175
439 1 6.7513 27.3684 -0.247263 6.7513 27.3684 -0.247263
440 2 8.61716 27.3967 1.42412 8.61716 27.3967 1.42412
441 2 8.68718 27.3401 -1.83682 8.68718 27.3401 -1.83682
442 1 9.60273 29.0149 -0.214555 9.60273 29.0149 -0.214555
443 2 11.4704 29.0412 1.45474 11.4704 29.0412 1.45474
444 2 11.5369 28.9887 -1.80635 11.5369 28.9887 -1.80635
445 1 12.454 27.3688 -0.129883 12.454 27.3688 -0.129883
446 2 14.3272 27.3986 1.53304 14.3272 27.3986 1.53304
447 2 14.3828 27.339 -1.72814 14.3828 27.339 -1.72814
448 1 15.3056 29.0153 -0.111592 15.3056 29.0153 -0.111592
449 2 17.1876 29.043 1.54123 17.1876 29.043 1.54123
450 2 17.2257 28.9876 -1.72029 17.2257 28.9876 -1.72029
451 1 18.1572 27.3691 -0.0504218 18.1572 27.3691 -0.0504218
452 2 20.0501 27.4001 1.58984 20.0501 27.4001 1.58984
453 2 20.0667 27.3381 -1.67173 20.0667 27.3381 -1.67173
454 1 21.0091 29.0154 -0.067518 21.0091 29.0154 -0.067518
455 2 22.9132 29.0439 1.55964 22.9132 29.0439 1.55964
456 2 22.9073 28.987 -1.70207 22.9073 28.987 -1.70207
457 1 23.8609 27.3692 -0.0442078 23.8609 27.3692 -0.0442078
458 2 25.7763 27.4002 1.56975 25.7763 27.4002 1.56975
459 2 25.7479 27.3381 -1.69174 25.7479 27.3381 -1.69174
460 1 26.7126 29.0154 -0.100771 26.7126 29.0154 -0.100771
461 2 28.6364 29.0435 1.50315 28.6364 29.0435 1.50315
462 2 28.5909 28.9873 -1.75826 28.5909 28.9873 -1.75826
463 1 29.5643 27.369 -0.112403 29.5643 27.369 -0.112403
464 2 31.495 27.3989 1.48323 31.495 27.3989 1.48323
465 2 31.4355 27.339 -1.77787 31.4355 27.339 -1.77787
466 1 32.4156 29.0152 -0.195099 32.4156 29.0152 -0.195099
467 2 34.3484 29.0421 1.39803 34.3484 29.0421 1.39803
468 2 34.2845 28.9882 -1.86309 34.2845 28.9882 -1.86309
469 1 35.2671 27.3687 -0.223956 35.2671 27.3687 -0.223956
470 2 37.2 27.3969 1.36919 37.2 27.3969 1.36919
471 2 37.136 27.3404 -1.89187 37.136 27.3404 -1.89187
472 1 38.1183 29.0148 -0.308687 38.1183 29.0148 -0.308687
473 2 40.046 29.0401 1.291 40.046 29.0401 1.291
474 2 39.9929 28.9895 -1.97034 39.9929 28.9895 -1.97034
475 1 40.9701 27.3683 -0.329543 40.9701 27.3683 -0.329543
476 2 42.8905 27.3951 1.27886 42.8905 27.3951 1.27886
477 2 42.8521 27.3414 -1.98264 42.8521 27.3414 -1.98264
478 1 43.8218 29.0146 -0.390296 43.8218 29.0146 -0.390296
479 2 45.731 29.0386 1.2316 45.731 29.0386 1.2316
480 2 45.7154 28.9905 -2.03016 45.7154 28.9905 -2.03016
481 1 46.6739 27.3681 -0.379466 46.6739 27.3681 -0.379466
482 2 48.5714 27.3944 1.25602 48.5714 27.3944 1.25602
483 2 48.5791 27.3417 -2.0057 48.5791 27.3417 -2.0057
484 1 49.526 29.0145 -0.399282 49.526 29.0145 -0.399282
485 2 51.4113 29.0383 1.25036 51.4113 29.0383 1.25036
486 2 51.4433 28.9906 -2.01128 51.4433 28.9906 -2.01128
487 1 1.04828 30.661 -0.395275 1.04828 30.661 -0.395275
488 2 2.9235 30.6815 1.26584 2.9235 30.6815 1.26584
489 2 2.97535 30.6406 -1.99564 2.97535 30.6406 -1.99564
490 1 3.90006 32.3076 -0.370527 3.90006 32.3076 -0.370527
491 2 5.76872 32.3241 1.29793 5.76872 32.3241 1.29793
492 2 5.83337 32.2913 -1.96342 5.83337 32.2913 -1.96342
493 1 6.75149 30.6612 -0.297341 6.75149 30.6612 -0.297341
494 2 8.61757 30.6829 1.37386 8.61757 30.6829 1.37386
495 2 8.68717 30.6396 -1.8873 8.68717 30.6396 -1.8873
496 1 9.6029 32.3078 -0.258384 9.6029 32.3078 -0.258384
497 2 11.4709 32.3255 1.41062 11.4709 32.3255 1.41062
498 2 11.5367 32.2902 -1.85073 11.5367 32.2902 -1.85073
499 1 12.4542 30.6615 -0.183055 12.4542 30.6615 -0.183055
500 2 14.3276 30.6847 1.47968 14.3276 30.6847 1.47968
501 2 14.3827 30.6384 -1.78173 14.3827 30.6384 -1.78173
502 1 15.3057 32.308 -0.158469 15.3057 32.308 -0.158469
503 2 17.1879 32.327 1.49427 17.1879 32.327 1.49427
504 2 17.2257 32.2891 -1.76752 17.2257 32.2891 -1.76752
505 1 18.1573 30.6617 -0.106569 18.1573 30.6617 -0.106569
506 2 20.05 30.686 1.53398 20.05 30.686 1.53398
507 2 20.0669 30.6375 -1.72784 20.0669 30.6375 -1.72784
508 1 21.009 32.3082 -0.116684 21.009 32.3082 -0.116684
509 2 22.9129 32.3278 1.51094 22.9129 32.3278 1.51094
510 2 22.9076 32.2885 -1.75106 22.9076 32.2885 -1.75106
511 1 23.8608 30.6618 -0.101858 23.8608 30.6618 -0.101858
512 2 25.7754 30.6864 1.51311 25.7754 30.6864 1.51311
513 2 25.7486 30.6372 -1.74864 25.7486 30.6372 -1.74864
514 1 26.7124 32.3081 -0.150608 26.7124 32.3081 -0.150608
515 2 28.6354 32.3279 1.45437 28.6354 32.3279 1.45437
516 2 28.5915 32.2884 -1.80732 28.5915 32.2884 -1.80732
517 1 29.564 30.6617 -0.169412 29.564 30.6617 -0.169412
518 2 31.4934 30.6858 1.42786 31.4934 30.6858 1.42786
519 2 31.4366 30.6376 -1.8335 31.4366 30.6376 -1.8335
520 1 32.4153 32.308 -0.243906 32.4153 32.308 -0.243906
521 2 34.347 32.3272 1.35075 34.347 32.3272 1.35075
522 2 34.2855 32.2888 -1.91064 34.2855 32.2888 -1.91064
523 1 35.2668 30.6614 -0.278513 35.2668 30.6614 -0.278513
524 2 37.1981 30.6843 1.31658 37.1981 30.6843 1.31658
525 2 37.1374 30.6386 -1.94471 37.1374 30.6386 -1.94471
526 1 38.1181 32.3078 -0.355026 38.1181 32.3078 -0.355026
527 2 40.0443 32.3257 1.24646 40.0443 32.3257 1.24646
528 2 39.9942 32.2898 -2.01511 39.9942 32.2898 -2.01511
529 1 40.9699 30.6612 -0.380824 40.9699 30.6612 -0.380824
530 2 42.8889 30.6825 1.22933 42.8889 30.6825 1.22933
531 2 42.8534 30.6398 -2.03235 42.8534 30.6398 -2.03235
532 1 43.8217 32.3076 -0.433505 43.8217 32.3076 -0.433505
533 2 45.7297 32.3241 1.1899 45.7297 32.3241 1.1899
534 2 45.7166 32.2911 -2.07203 45.7166 32.2911 -2.07203
535 1 46.6739 30.661 -0.428207 46.6739 30.661 -0.428207
536 2 48.5706 30.6813 1.20835 48.5706 30.6813 1.20835
537 2 48.58 30.6407 -2.05352 48.58 30.6407 -2.05352
538 1 49.526 32.3076 -0.440435 49.526 32.3076 -0.440435
539 2 51.4107 32.3234 1.20994 51.4107 32.3234 1.20994