ITEM: TIMESTEP
24000
ITEM: NUMBER OF ATOMS
810
ITEM: BOX BOUNDS pp pp pp
8.5857832774986520e-01 5.2159026672249503e+01
8.2124165975143537e-01 5.0194973340247550e+01
-1.0000000000000000e+01 1.0000000000000000e+01
ITEM: ATOMS id type x y z xu yu zu
1 1 1.06637 1.03125 -0.558559 1.06637 1.03125 -0.558559
2 2 2.91418 1.10329 1.13189 2.91418 1.10329 1.13189
3 2 3.01927 0.958877 -2.12535 3.01927 0.958877 -2.12535
4 1 3.91751 2.67672 -0.539198 3.91751 2.67672 -0.539198
5 2 5.74257 2.74233 1.17603 5.74257 2.74233 1.17603
6 2 5.89134 2.61125 -2.08005 5.89134 2.61125 -2.08005
7 1 6.76591 1.03223 -0.342166 6.76591 1.03223 -0.342166
8 2 8.58131 1.10177 1.38288 8.58131 1.10177 1.38288
9 2 8.74799 0.963067 -1.87209 8.74799 0.963067 -1.87209
10 1 9.6148 2.67846 -0.266287 9.6148 2.67846 -0.266287
11 2 11.4281 2.74152 1.46099 11.4281 2.74152 1.46099
12 2 11.5987 2.61602 -1.79436 11.5987 2.61602 -1.79436
13 1 12.4621 1.03458 -0.0533694 12.4621 1.03458 -0.0533694
14 2 14.2879 1.10177 1.66041 14.2879 1.10177 1.66041
15 2 14.4348 0.968139 -1.59577 14.4348 0.968139 -1.59577
16 1 15.3116 2.68088 0.00741939 15.3116 2.68088 0.00741939
17 2 17.1559 2.74365 1.70104 17.1559 2.74365 1.70104
18 2 17.2671 2.61898 -1.55699 17.2671 2.61898 -1.55699
19 1 18.1614 1.03705 0.167498 18.1614 1.03705 0.167498
20 2 20.0328 1.10379 1.83096 20.0328 1.10379 1.83096
21 2 20.0917 0.971228 -1.42805 20.0917 0.971228 -1.42805
22 1 21.0129 2.68299 0.151425 21.0129 2.68299 0.151425
23 2 22.9124 2.74876 1.78253 22.9124 2.74876 1.78253
24 2 22.9155 2.61825 -1.47717 22.9155 2.61825 -1.47717
25 1 23.8647 1.03877 0.219465 23.8647 1.03877 0.219465
26 2 25.7921 1.10777 1.81759 25.7921 1.10777 1.81759
27 2 25.7393 0.970673 -1.44131 25.7393 0.970673 -1.44131
28 1 26.7158 2.68412 0.10328 26.7158 2.68412 0.10328
29 2 28.6671 2.75508 1.67184 28.6671 2.75508 1.67184
30 2 28.5648 2.61392 -1.58575 28.5648 2.61392 -1.58575
31 1 29.5668 1.03918 0.0845313 29.5668 1.03918 0.0845313
32 2 31.5355 1.11164 1.63135 31.5355 1.11164 1.63135
33 2 31.397 0.967119 -1.62469 31.397 0.967119 -1.62469
34 1 32.4151 2.68363 -0.110276 32.4151 2.68363 -0.110276
35 2 34.3937 2.75854 1.42374 34.3937 2.75854 1.42374
36 2 34.2343 2.6087 -1.83111 34.2343 2.6087 -1.83111
37 1 35.2644 1.03788 -0.174368 35.2644 1.03788 -0.174368
38 2 37.2445 1.11246 1.35797 37.2445 1.11246 1.35797
39 2 37.082 0.9628 -1.89672 37.082 0.9628 -1.89672
40 1 38.1117 2.68146 -0.392631 38.1117 2.68146 -0.392631
41 2 40.0834 2.75655 1.15065 40.0834 2.75655 1.15065
42 2 39.9388 2.60553 -2.10477 39.9388 2.60553 -2.10477
43 1 40.9616 1.03518 -0.442732 40.9616 1.03518 -0.442732
44 2 42.9181 1.10982 1.11999 42.9181 1.10982 1.11999
45 2 42.8053 0.959381 -2.13676 42.8053 0.959381 -2.13676
46 1 43.8113 2.67861 -0.617482 43.8113 2.67861 -0.617482
47 2 45.743 2.751 0.976164 45.743 2.751 0.976164
48 2 45.6819 2.60518 -2.28206 45.6819 2.60518 -2.28206
49 1 46.6632 1.03244 -0.596903 46.6632 1.03244 -0.596903
50 2 48.5681 1.10611 1.02877 48.5681 1.10611 1.02877
51 2 48.561 0.9577 -2.22998 48.561 0.9577 -2.22998
52 1 49.5154 2.67669 -0.677801 49.5154 2.67669 -0.677801
53 2 51.3889 2.74563 0.984368 51.3889 2.74563 0.984368
54 2 51.4444 2.60719 -2.27425 51.4444 2.60719 -2.27425
55 1 1.06724 4.32201 -0.698885 1.06724 4.32201 -0.698885
56 2 2.91126 4.38151 0.996398 2.91126 4.38151 0.996398
57 2 3.02432 4.26244 -2.26146 3.02432 4.26244 -2.26146
58 1 3.91854 5.96832 -0.659963 3.91854 5.96832 -0.659963
59 2 5.7395 6.01506 1.06034 5.7395 6.01506 1.06034
60 2 5.89648 5.92177 -2.19657 5.89648 5.92177 -2.19657
61 1 6.76733 4.32297 -0.475075 6.76733 4.32297 -0.475075
62 2 8.57903 4.37887 1.25438 8.57903 4.37887 1.25438
63 2 8.75293 4.26747 -2.00123 8.75293 4.26747 -2.00123
64 1 9.61587 5.96966 -0.37926 9.61587 5.96966 -0.37926
65 2 11.4262 6.01406 1.35156 11.4262 6.01406 1.35156
66 2 11.6023 5.92572 -1.90475 11.6023 5.92572 -1.90475
67 1 12.4633 4.32495 -0.180609 12.4633 4.32495 -0.180609
68 2 14.2863 4.37992 1.53636 14.2863 4.37992 1.53636
69 2 14.4383 4.27068 -1.72059 14.4383 4.27068 -1.72059
70 1 15.3122 5.97145 -0.103251 15.3122 5.97145 -0.103251
71 2 17.1556 6.01792 1.59157 17.1556 6.01792 1.59157
72 2 17.2682 5.92573 -1.66762 17.2682 5.92573 -1.66762
73 1 18.1619 4.32709 0.0412335 18.1619 4.32709 0.0412335
74 2 20.0323 4.38505 1.70578 20.0323 4.38505 1.70578
75 2 20.0926 4.27008 -1.55403 20.0926 4.27008 -1.55403
76 1 21.0128 5.97316 0.0351126 21.0128 5.97316 0.0351126
77 2 22.9136 6.02632 1.6648 22.9136 6.02632 1.6648
78 2 22.9136 5.92096 -1.59595 22.9136 5.92096 -1.59595
79 1 23.8643 4.32869 0.0874199 23.8643 4.32869 0.0874199
80 2 25.7923 4.39308 1.68451 25.7923 4.39308 1.68451
81 2 25.7376 4.26526 -1.57488 25.7376 4.26526 -1.57488
82 1 26.7147 5.97411 -0.0259902 26.7147 5.97411 -0.0259902
83 2 28.668 6.03582 1.54014 28.668 6.03582 1.54014
84 2 28.5611 5.9131 -1.71815 28.5611 5.9131 -1.71815
85 1 29.5652 4.32902 -0.0583351 29.5652 4.32902 -0.0583351
86 2 31.5346 4.39983 1.48738 31.5346 4.39983 1.48738
87 2 31.3944 4.25859 -1.7688 31.3944 4.25859 -1.7688
88 1 32.413 5.97356 -0.253266 32.413 5.97356 -0.253266
89 2 34.3918 6.0405 1.28061 34.3918 6.0405 1.28061
90 2 34.2317 5.90658 -1.9749 34.2317 5.90658 -1.9749
91 1 35.2623 4.3276 -0.326184 35.2623 4.3276 -0.326184
92 2 37.2413 4.40056 1.2075 37.2413 4.40056 1.2075
93 2 37.0811 4.25421 -2.04741 37.0811 4.25421 -2.04741
94 1 38.1095 5.97156 -0.540991 38.1095 5.97156 -0.540991
95 2 40.0786 6.03712 1.00615 40.0786 6.03712 1.00615
96 2 39.94 5.90541 -2.25026 39.94 5.90541 -2.25026
97 1 40.96 4.32502 -0.595843 40.96 4.32502 -0.595843
98 2 42.9136 4.39496 0.970844 42.9136 4.39496 0.970844
99 2 42.8074 4.25424 -2.2864 42.8074 4.25424 -2.2864
100 1 43.8103 5.96929 -0.76021 43.8103 5.96929 -0.76021
101 2 45.7376 6.02856 0.839592 45.7376 6.02856 0.839592
102 2 45.6862 5.90947 -2.41971 45.6862 5.90947 -2.41971
103 1 46.6629 4.32275 -0.744724 46.6629 4.32275 -0.744724
104 2 48.5641 4.38733 0.885835 48.5641 4.38733 0.885835
105 2 48.5651 4.25756 -2.37353 48.5651 4.25756 -2.37353
106 1 49.5156 5.96807 -0.8094 49.5156 5.96807 -0.8094
107 2 51.3845 6.02019 0.858883 51.3845 6.02019 0.858883
108 2 51.4499 5.91577 -2.40066 51.4499 5.91577 -2.40066
109 1 1.06782 7.6145 -0.804842 1.06782 7.6145 -0.804842
110 2 2.90693 7.65099 0.896592 2.90693 7.65099 0.896592
111 2 3.02996 7.57808 -2.36216 3.02996 7.57808 -2.36216
112 1 3.919 9.26158 -0.734004 3.919 9.26158 -0.734004
113 2 5.73575 9.28091 0.991348 5.73575 9.28091 0.991348
114 2 5.90099 9.24228 -2.26621 5.90099 9.24228 -2.26621
115 1 6.76811 7.61521 -0.569725 6.76811 7.61521 -0.569725
116 2 8.57641 7.64741 1.16391 8.57641 7.64741 1.16391
117 2 8.75692 7.58321 -2.0926 8.75692 7.58321 -2.0926
118 1 9.61616 9.26216 -0.444397 9.61616 9.26216 -0.444397
119 2 11.4248 9.27965 1.28865 11.4248 9.27965 1.28865
120 2 11.6041 9.24479 -1.96851 11.6041 9.24479 -1.96851
121 1 12.4639 7.61641 -0.27016 12.4639 7.61641 -0.27016
122 2 14.2857 7.64895 1.4484 14.2857 7.64895 1.4484
123 2 14.4397 7.58432 -1.80971 14.4397 7.58432 -1.80971
124 1 15.3123 9.263 -0.168664 15.3123 9.263 -0.168664
125 2 17.157 9.28447 1.52501 17.157 9.28447 1.52501
126 2 17.2668 9.24201 -1.73538 17.2668 9.24201 -1.73538
127 1 18.162 7.61784 -0.05204 18.162 7.61784 -0.05204
128 2 20.034 7.6562 1.61104 20.034 7.6562 1.61104
129 2 20.0908 7.58026 -1.6501 20.0908 7.58026 -1.6501
130 1 21.0125 9.26411 -0.0415822 21.0125 9.26411 -0.0415822
131 2 22.917 9.29482 1.584 22.917 9.29482 1.584
132 2 22.9091 9.23418 -1.67798 22.9091 9.23418 -1.67798
133 1 23.8637 7.61908 -0.0190683 23.8637 7.61908 -0.0190683
134 2 25.7948 7.66703 1.5745 25.7948 7.66703 1.5745
135 2 25.7332 7.57196 -1.68601 25.7332 7.57196 -1.68601
136 1 26.7136 9.26491 -0.122027 26.7136 9.26491 -0.122027
137 2 28.6706 9.30607 1.43978 28.6706 9.30607 1.43978
138 2 28.5555 9.22427 -1.81959 28.5555 9.22427 -1.81959
139 1 29.5635 7.61933 -0.182463 29.5635 7.61933 -0.182463
140 2 31.5349 7.67562 1.36098 31.5349 7.67562 1.36098
141 2 31.3901 7.56333 -1.89616 31.3901 7.56333 -1.89616
142 1 32.4108 9.26454 -0.36691 32.4108 9.26454 -0.36691
143 2 34.3906 9.31143 1.16649 34.3906 9.31143 1.16649
144 2 34.2286 9.21759 -2.09031 34.2286 9.21759 -2.09031
145 1 35.2599 7.6181 -0.461868 35.2599 7.6181 -0.461868
146 2 37.2377 7.67627 1.07405 37.2377 7.67627 1.07405
147 2 37.0803 7.55961 -2.18213 37.0803 7.55961 -2.18213
148 1 38.1075 9.26313 -0.659317 38.1075 9.26313 -0.659317
149 2 40.0733 9.30747 0.892883 40.0733 9.30747 0.892883
150 2 39.9419 9.21847 -2.36518 39.9419 9.21847 -2.36518
151 1 40.9583 7.61613 -0.729462 40.9583 7.61613 -0.729462
152 2 42.9075 7.66891 0.843616 42.9075 7.66891 0.843616
153 2 42.8111 7.56292 -2.41511 42.8111 7.56292 -2.41511
154 1 43.8094 9.2618 -0.867847 43.8094 9.2618 -0.867847
155 2 45.7308 9.29738 0.739981 45.7308 9.29738 0.739981
156 2 45.692 9.22606 -2.52076 45.692 9.22606 -2.52076
157 1 46.6625 7.61473 -0.865585 46.6625 7.61473 -0.865585
158 2 48.5582 7.65882 0.772384 48.5582 7.65882 0.772384
159 2 48.571 7.57047 -2.48818 48.571 7.57047 -2.48818
160 1 49.5158 9.26133 -0.899139 49.5158 9.26133 -0.899139
161 2 51.3788 9.28725 0.776527 51.3788 9.28725 0.776527
162 2 51.4562 9.23543 -2.48391 51.4562 9.23543 -2.48391
163 1 1.06802 10.9086 -0.857551 1.06802 10.9086 -0.857551
164 2 2.90189 10.9151 0.850004 2.90189 10.9151 0.850004
165 2 3.03523 10.902 -2.40907 3.03523 10.902 -2.40907
166 1 3.91875 12.5558 -0.747491 3.91875 12.5558 -0.747491
167 2 5.73191 12.5436 0.981715 5.73191 12.5436 0.981715
168 2 5.90401 12.5676 -2.27562 5.90401 12.5676 -2.27562
169 1 6.7681 10.9087 -0.608983 6.7681 10.9087 -0.608983
170 2 8.57382 10.911 1.12762 8.57382 10.911 1.12762
171 2 8.75925 10.9062 -2.12923 8.75925 10.9062 -2.12923
172 1 9.61556 12.5553 -0.449363 9.61556 12.5553 -0.449363
173 2 11.424 12.5424 1.28385 11.424 12.5424 1.28385
174 2 11.6037 12.5679 -1.97338 11.6037 12.5679 -1.97338
175 1 12.4636 10.9088 -0.305479 12.4636 10.9088 -0.305479
176 2 14.2861 10.9128 1.41255 14.2861 10.9128 1.41255
177 2 14.4387 10.9049 -1.84629 14.4387 10.9049 -1.84629
178 1 15.3117 12.5551 -0.176586 15.3117 12.5551 -0.176586
179 2 17.1598 12.5477 1.51348 17.1598 12.5477 1.51348
180 2 17.263 12.5627 -1.74738 17.263 12.5627 -1.74738
181 1 18.1617 10.9094 -0.0948685 18.1617 10.9094 -0.0948685
182 2 20.0375 10.9211 1.56411 20.0375 10.9211 1.56411
183 2 20.0866 10.8983 -1.69803 20.0866 10.8983 -1.69803
184 1 21.0121 12.5557 -0.0643889 21.0121 12.5557 -0.0643889
185 2 22.9221 12.5584 1.55482 22.9221 12.5584 1.55482
186 2 22.9029 12.5537 -1.70771 22.9029 12.5537 -1.70771
187 1 23.863 10.9103 -0.0802017 23.863 10.9103 -0.0802017
188 2 25.7992 10.933 1.50759 25.7992 10.933 1.50759
189 2 25.727 10.8883 -1.75384 25.727 10.8883 -1.75384
190 1 26.7126 12.5566 -0.167047 26.7126 12.5566 -0.167047
191 2 28.6746 12.5697 1.38887 28.6746 12.5697 1.38887
192 2 28.5491 12.5439 -1.87106 28.5491 12.5439 -1.87106
193 1 29.5619 10.9108 -0.265108 29.5619 10.9108 -0.265108
194 2 31.5365 10.9423 1.27489 31.5365 10.9423 1.27489
195 2 31.3849 10.8794 -1.98329 31.3849 10.8794 -1.98329
196 1 32.4091 12.5568 -0.430549 32.4091 12.5568 -0.430549
197 2 34.3903 12.5753 1.1016 34.3903 12.5753 1.1016
198 2 34.2254 12.5383 -2.15617 34.2254 12.5383 -2.15617
199 1 35.2578 10.9101 -0.556941 35.2578 10.9101 -0.556941
200 2 37.2345 10.9432 0.981249 37.2345 10.9432 0.981249
201 2 37.0797 10.8768 -2.27642 37.0797 10.8768 -2.27642
202 1 38.1059 12.5564 -0.726633 38.1059 12.5564 -0.726633
203 2 40.0684 12.5717 0.830493 40.0684 12.5717 0.830493
204 2 39.9444 12.5409 -2.42886 39.9444 12.5409 -2.42886
205 1 40.957 10.9091 -0.819869 40.957 10.9091 -0.819869
206 2 42.901 10.9353 0.760494 42.901 10.9353 0.760494
207 2 42.8158 10.8827 -2.49974 42.8158 10.8827 -2.49974
208 1 43.8088 12.556 -0.921486 43.8088 12.556 -0.921486
209 2 45.7238 12.5613 0.694592 45.7238 12.5613 0.694592
210 2 45.6984 12.5505 -2.56698 45.6984 12.5505 -2.56698
211 1 46.6623 10.9086 -0.938123 46.6623 10.9086 -0.938123
212 2 48.5514 10.9241 0.708154 48.5514 10.9241 0.708154
213 2 48.5778 10.893 -2.55329 48.5778 10.893 -2.55329
214 1 49.5158 12.5559 -0.930874 49.5158 12.5559 -0.930874
215 2 51.3725 12.5505 0.751979 51.3725 12.5505 0.751979
216 2 51.4623 12.5613 -2.50849 51.4623 12.5613 -2.50849
217 1 1.06768 14.2031 -0.84679 1.06768 14.2031 -0.84679
218 2 2.89683 14.1778 0.865653 2.89683 14.1778 0.865653
219 2 3.03917 14.228 -2.39269 3.03917 14.228 -2.39269
220 1 3.9177 15.8495 -0.69668 3.9177 15.8495 -0.69668
221 2 5.72866 15.8074 1.03432 5.72866 15.8074 1.03432
222 2 5.90478 15.8908 -2.22184 5.90478 15.8908 -2.22184
223 1 6.76719 14.2023 -0.58476 6.76719 14.2023 -0.58476
224 2 8.5718 14.1739 1.15274 8.5718 14.1739 1.15274
225 2 8.75928 14.2301 -2.10352 8.75928 14.2301 -2.10352
226 1 9.61412 15.8479 -0.392333 9.61412 15.8479 -0.392333
227 2 11.4243 15.8069 1.33861 11.4243 15.8069 1.33861
228 2 11.6007 15.8883 -1.91789 11.6007 15.8883 -1.91789
229 1 12.4626 14.2013 -0.279668 12.4626 14.2013 -0.279668
230 2 14.2877 14.1761 1.43544 14.2877 14.1761 1.43544
231 2 14.4354 14.2263 -1.82325 14.4354 14.2263 -1.82325
232 1 15.3107 15.8468 -0.125562 15.3107 15.8468 -0.125562
233 2 17.1636 15.8122 1.5589 17.1636 15.8122 1.5589
234 2 17.2576 15.8816 -1.7015 17.2576 15.8816 -1.7015
235 1 18.1611 14.2011 -0.0794239 18.1611 14.2011 -0.0794239
236 2 20.0423 14.1842 1.57336 20.0423 14.1842 1.57336
237 2 20.0808 14.2185 -1.68881 20.0808 14.2185 -1.68881
238 1 21.0117 15.8471 -0.0293444 21.0117 15.8471 -0.0293444
239 2 22.928 15.8216 1.58231 22.928 15.8216 1.58231
240 2 22.8963 15.8734 -1.67968 22.8963 15.8734 -1.67968
241 1 23.8625 14.202 -0.0846742 23.8625 14.202 -0.0846742
242 2 25.8047 14.1954 1.49585 25.8047 14.1954 1.49585
243 2 25.7202 14.2093 -1.76556 25.7202 14.2093 -1.76556
244 1 26.7122 15.8485 -0.152773 26.7122 15.8485 -0.152773
245 2 28.6795 15.8314 1.39648 28.6795 15.8314 1.39648
246 2 28.543 15.8661 -1.8629 28.543 15.8661 -1.8629
247 1 29.5608 14.203 -0.291056 29.5608 14.203 -0.291056
248 2 31.5392 14.2043 1.24443 31.5392 14.2043 1.24443
249 2 31.3797 14.202 -2.01397 31.3797 14.202 -2.01397
250 1 32.4082 15.8497 -0.432695 32.4082 15.8497 -0.432695
251 2 34.3913 15.8367 1.09718 34.3913 15.8367 1.09718
252 2 34.2225 15.8628 -2.16048 34.2225 15.8628 -2.16048
253 1 35.2564 14.2034 -0.594422 35.2564 14.2034 -0.594422
254 2 37.2324 14.2055 0.945163 37.2324 14.2055 0.945163
255 2 37.0793 14.2011 -2.31322 37.0793 14.2011 -2.31322
256 1 38.1052 15.8503 -0.731206 38.1052 15.8503 -0.731206
257 2 40.0648 15.8339 0.829562 40.0648 15.8339 0.829562
258 2 39.9468 15.8666 -2.42998 39.9468 15.8666 -2.42998
259 1 40.9562 14.2033 -0.851299 40.9562 14.2033 -0.851299
260 2 42.895 14.1982 0.735729 42.895 14.1982 0.735729
261 2 42.8207 14.2082 -2.52515 42.8207 14.2082 -2.52515
262 1 43.8086 15.8506 -0.911676 43.8086 15.8506 -0.911676
263 2 45.7175 15.8244 0.711452 45.7175 15.8244 0.711452
264 2 45.7044 15.8765 -2.54981 45.7044 15.8765 -2.54981
265 1 46.6622 14.2033 -0.949368 46.6622 14.2033 -0.949368
266 2 48.5446 14.187 0.704622 48.5446 14.187 0.704622
267 2 48.5843 14.2195 -2.55666 48.5843 14.2195 -2.55666
268 1 49.5155 15.8505 -0.898234 49.5155 15.8505 -0.898234
269 2 51.3666 15.8138 0.790416 51.3666 15.8138 0.790416
270 2 51.4672 15.8866 -2.46899 51.4672 15.8866 -2.46899
271 1 1.06672 17.4967 -0.773237 1.06672 17.4967 -0.773237
272 2 2.89253 17.4433 0.942048 2.89253 17.4433 0.942048
273 2 3.04095 17.5491 -2.31476 3.04095 17.5491 -2.31476
274 1 3.91593 19.1416 -0.589511 3.91593 19.1416 -0.589511
275 2 5.7267 19.0769 1.14092 5.7267 19.0769 1.14092
276 2 5.9029 19.2053 -2.11383 5.9029 19.2053 -2.11383
277 1 6.76545 17.4948 -0.500184 6.76545 17.4948 -0.500184
278 2 8.57095 17.4405 1.23576 8.57095 17.4405 1.23576
279 2 8.75667 17.5482 -2.01931 8.75667 17.5482 -2.01931
280 1 9.6121 19.1391 -0.28305 9.6121 19.1391 -0.28305
281 2 11.426 19.0776 1.44348 11.426 19.0776 1.44348
282 2 11.5954 19.2 -1.81207 11.5954 19.2 -1.81207
283 1 12.4611 17.4928 -0.197104 12.4611 17.4928 -0.197104
284 2 14.2904 17.4432 1.51302 14.2904 17.4432 1.51302
285 2 14.4302 17.5421 -1.74486 14.4302 17.5421 -1.74486
286 1 15.3095 19.1375 -0.025194 15.3095 19.1375 -0.025194
287 2 17.1681 19.0824 1.65273 17.1681 19.0824 1.65273
288 2 17.2515 19.1929 -1.60672 17.2515 19.1929 -1.60672
289 1 18.1604 17.4922 -0.00893657 18.1604 17.4922 -0.00893657
290 2 20.0476 17.4502 1.63672 20.0476 17.4502 1.63672
291 2 20.0746 17.5348 -1.62458 20.0746 17.5348 -1.62458
292 1 21.0114 19.1378 0.0565245 21.0114 19.1378 0.0565245
293 2 22.9336 19.0892 1.661 22.9336 19.0892 1.661
294 2 22.8906 19.1873 -1.59969 22.8906 19.1873 -1.59969
295 1 23.8624 17.4933 -0.0319691 23.8624 17.4933 -0.0319691
296 2 25.8105 17.459 1.5411 25.8105 17.459 1.5411
297 2 25.7141 17.5284 -1.71921 25.7141 17.5284 -1.71921
298 1 26.7123 19.1397 -0.0823314 26.7123 19.1397 -0.0823314
299 2 28.6843 19.0962 1.46072 28.6843 19.0962 1.46072
300 2 28.5384 19.1841 -1.79718 28.5384 19.1841 -1.79718
301 1 29.5606 17.4952 -0.255753 29.5606 17.4952 -0.255753
302 2 31.5427 17.4663 1.27473 31.5427 17.4663 1.27473
303 2 31.3754 17.5245 -1.98273 31.3754 17.5245 -1.98273
304 1 32.4084 19.1421 -0.37354 32.4084 19.1421 -0.37354
305 2 34.3934 19.1003 1.15342 34.3934 19.1003 1.15342
306 2 34.2205 19.184 -2.10305 34.2205 19.184 -2.10305
307 1 35.256 17.4967 -0.567906 35.256 17.4967 -0.567906
308 2 37.2318 17.4677 0.97173 37.2318 17.4677 0.97173
309 2 37.0792 17.5255 -2.28617 37.0792 17.5255 -2.28617
310 1 38.1053 19.1437 -0.672692 38.1053 19.1437 -0.672692
311 2 40.063 19.0985 0.889959 40.063 19.0985 0.889959
312 2 39.9488 19.1886 -2.36869 39.9488 19.1886 -2.36869
313 1 40.9561 17.4975 -0.818373 40.9561 17.4975 -0.818373
314 2 42.8906 17.4618 0.773587 42.8906 17.4618 0.773587
315 2 42.825 17.5328 -2.48676 42.825 17.5328 -2.48676
316 1 43.8087 19.1443 -0.840008 43.8087 19.1443 -0.840008
317 2 45.7128 19.0908 0.788026 45.7128 19.0908 0.788026
318 2 45.7089 19.197 -2.47205 45.7089 19.197 -2.47205
319 1 46.6621 17.4976 -0.896864 46.6621 17.4976 -0.896864
320 2 48.5387 17.4517 0.763096 48.5387 17.4517 0.763096
321 2 48.5895 17.5428 -2.49699 48.5895 17.5428 -2.49699
322 1 49.5149 19.1436 -0.806121 49.5149 19.1436 -0.806121
323 2 51.3619 19.0818 0.886141 51.3619 19.0818 0.886141
324 2 51.4699 19.2043 -2.37164 51.4699 19.2043 -2.37164
325 1 1.06524 20.7883 -0.649251 1.06524 20.7883 -0.649251
326 2 2.88982 20.7165 1.06652 2.88982 20.7165 1.06652
327 2 3.04007 20.8589 -2.18891 3.04007 20.8589 -2.18891
328 1 3.91377 22.4319 -0.445121 3.91377 22.4319 -0.445121
329 2 5.7265 22.3566 1.28273 5.7265 22.3566 1.28273
330 2 5.89863 22.5063 -1.97139 5.89863 22.5063 -1.97139
331 1 6.76318 20.7855 -0.369979 6.76318 20.7855 -0.369979
332 2 8.57162 20.7153 1.36234 8.57162 20.7153 1.36234
333 2 8.75168 20.8549 -1.89185 8.75168 20.8549 -1.89185
334 1 9.60989 22.4291 -0.141459 9.60989 22.4291 -0.141459
335 2 11.4288 22.3584 1.57956 11.4288 22.3584 1.57956
336 2 11.5889 22.4994 -1.67566 11.5889 22.4994 -1.67566
337 1 12.4593 20.7831 -0.0728951 12.4593 20.7831 -0.0728951
338 2 14.294 20.7185 1.63118 14.294 20.7185 1.63118
339 2 14.4238 20.8477 -1.62596 14.4238 20.8477 -1.62596
340 1 15.3083 22.4274 0.105866 15.3083 22.4274 0.105866
341 2 17.1723 22.3621 1.77775 17.1723 22.3621 1.77775
342 2 17.2457 22.4933 -1.48105 17.2457 22.4933 -1.48105
343 1 18.1598 20.7824 0.10314 18.1598 20.7824 0.10314
344 2 20.0526 20.7235 1.74224 20.0526 20.7235 1.74224
345 2 20.069 20.8422 -1.51793 20.069 20.8422 -1.51793
346 1 21.0114 22.4278 0.176874 21.0114 22.4278 0.176874
347 2 22.938 22.3655 1.7761 22.938 22.3655 1.7761
348 2 22.8868 22.4913 -1.48337 22.8868 22.4913 -1.48337
349 1 23.8627 20.7838 0.0674898 23.8627 20.7838 0.0674898
350 2 25.8155 20.7287 1.63453 25.8155 20.7287 1.63453
351 2 25.7099 20.84 -1.62422 25.7099 20.84 -1.62422
352 1 26.7131 22.43 0.0304325 26.7131 22.43 0.0304325
353 2 28.6883 22.3685 1.5692 28.6883 22.3685 1.5692
354 2 28.5362 22.4927 -1.68714 28.5362 22.4927 -1.68714
355 1 29.5612 20.7864 -0.166528 29.5612 20.7864 -0.166528
356 2 31.5464 20.7332 1.35956 31.5464 20.7332 1.35956
357 2 31.3729 20.8403 -1.89629 31.3729 20.8403 -1.89629
358 1 32.4094 22.4331 -0.264963 32.4094 22.4331 -0.264963
359 2 34.396 22.3708 1.25943 34.396 22.3708 1.25943
360 2 34.2199 22.496 -1.99554 34.2199 22.496 -1.99554
361 1 35.2566 20.789 -0.483042 35.2566 20.789 -0.483042
362 2 37.2326 20.7345 1.05563 37.2326 20.7345 1.05563
363 2 37.0793 20.8434 -2.20097 37.0793 20.8434 -2.20097
364 1 38.1061 22.4355 -0.562352 38.1061 22.4355 -0.562352
365 2 40.0629 22.3698 1.00068 40.0629 22.3698 1.00068
366 2 39.9503 22.5008 -2.25675 39.9503 22.5008 -2.25675
367 1 40.9565 20.7903 -0.727234 40.9565 20.7903 -0.727234
368 2 42.8881 20.7303 0.867478 42.8881 20.7303 0.867478
369 2 42.828 20.8496 -2.39168 42.828 20.8496 -2.39168
370 1 43.809 22.4361 -0.719281 43.809 22.4361 -0.719281
371 2 45.7103 22.3649 0.911123 45.7103 22.3649 0.911123
372 2 45.7113 22.5062 -2.34779 45.7113 22.5062 -2.34779
373 1 46.6619 20.7901 -0.789472 46.6619 20.7901 -0.789472
374 2 48.5346 20.7226 0.874004 48.5346 20.7226 0.874004
375 2 48.5924 20.8565 -2.38464 48.5924 20.8565 -2.38464
376 1 49.5139 22.4347 -0.670663 49.5139 22.4347 -0.670663
377 2 51.3592 22.3591 1.02268 51.3592 22.3591 1.02268
378 2 51.4698 22.509 -2.23402 51.4698 22.509 -2.23402
379 1 1.06354 24.0783 -0.497385 1.06354 24.0783 -0.497385
380 2 2.88929 24.0013 1.21674 2.88929 24.0013 1.21674
381 2 3.0367 24.154 -2.03848 3.0367 24.154 -2.03848
382 1 3.91172 25.7214 -0.29034 3.91172 25.7214 -0.29034
383 2 5.72807 25.6494 1.43376 5.72807 25.6494 1.43376
384 2 5.89298 25.7928 -1.82109 5.89298 25.7928 -1.82109
385 1 6.76086 24.0752 -0.218134 6.76086 24.0752 -0.218134
386 2 8.57369 24.0021 1.50949 8.57369 24.0021 1.50949
387 2 8.74537 24.1478 -1.74488 8.74537 24.1478 -1.74488
388 1 9.60797 25.7188 0.00635639 9.60797 25.7188 0.00635639
389 2 11.4321 25.6518 1.72217 11.4321 25.6518 1.72217
390 2 11.5825 25.7859 -1.53373 11.5825 25.7859 -1.53373
391 1 12.4576 24.0729 0.0701 12.4576 24.0729 0.0701
392 2 14.2977 24.005 1.76849 14.2977 24.005 1.76849
393 2 14.4176 24.1411 -1.48864 14.4176 24.1411 -1.48864
394 1 15.3074 25.7174 0.243817 15.3074 25.7174 0.243817
395 2 17.1755 25.6536 1.91147 17.1755 25.6536 1.91147
396 2 17.2414 25.7821 -1.34744 17.2414 25.7821 -1.34744
397 1 18.1593 24.0723 0.236082 18.1593 24.0723 0.236082
398 2 20.0562 24.0072 1.87061 20.0562 24.0072 1.87061
399 2 20.0651 24.1384 -1.38894 20.0651 24.1384 -1.38894
400 1 21.0116 25.7178 0.309685 21.0116 25.7178 0.309685
401 2 22.9402 25.653 1.90672 22.9402 25.653 1.90672
402 2 22.8854 25.7838 -1.35232 22.8854 25.7838 -1.35232
403 1 23.8632 24.0737 0.194867 23.8632 24.0737 0.194867
404 2 25.8187 24.0081 1.75868 25.8187 24.0081 1.75868
405 2 25.7083 24.1405 -1.49898 25.7083 24.1405 -1.49898
406 1 26.7142 25.72 0.164439 26.7142 25.72 0.164439
407 2 28.6904 25.6516 1.70199 28.6904 25.6516 1.70199
408 2 28.5367 25.7896 -1.55363 28.5367 25.7896 -1.55363
409 1 29.5625 24.0766 -0.0406645 29.5625 24.0766 -0.0406645
410 2 31.5494 24.0092 1.48291 31.5494 24.0092 1.48291
411 2 31.3725 24.145 -1.77164 31.3725 24.145 -1.77164
412 1 32.4111 25.7232 -0.127314 32.4111 25.7232 -0.127314
413 2 34.3983 25.6514 1.3959 34.3983 25.6514 1.3959
414 2 34.2208 25.7957 -1.85822 34.2208 25.7957 -1.85822
415 1 35.2579 24.0797 -0.35611 35.2579 24.0797 -0.35611
416 2 37.2344 24.0098 1.18141 37.2344 24.0098 1.18141
417 2 37.08 24.1499 -2.07402 37.08 24.1499 -2.07402
418 1 38.1075 25.7259 -0.420431 38.1075 25.7259 -0.420431
419 2 40.0645 25.6515 1.14195 40.0645 25.6515 1.14195
420 2 39.951 25.7999 -2.11484 39.951 25.7999 -2.11484
421 1 40.9573 24.0814 -0.594618 40.9573 24.0814 -0.594618
422 2 42.8877 24.0079 1.00075 42.8877 24.0079 1.00075
423 2 42.8294 24.154 -2.25751 42.8294 24.154 -2.25751
424 1 43.8094 25.7263 -0.571352 43.8094 25.7263 -0.571352
425 2 45.7105 25.6503 1.0588 45.7105 25.6503 1.0588
426 2 45.711 25.8009 -2.19988 45.711 25.8009 -2.19988
427 1 46.6616 24.0807 -0.64647 46.6616 24.0807 -0.64647
428 2 48.533 24.004 1.0178 48.533 24.004 1.0178
429 2 48.5925 24.156 -2.2402 48.5925 24.156 -2.2402
430 1 49.5129 25.7244 -0.5167 49.5129 25.7244 -0.5167
431 2 51.3593 25.649 1.17525 51.3593 25.649 1.17525
432 2 51.467 25.7985 -2.08174 51.467 25.7985 -2.08174
433 1 1.06206 27.3678 -0.345849 1.06206 27.3678 -0.345849
434 2 2.89107 27.2998 1.36501 2.89107 27.2998 1.36501
435 2 3.03169 27.4347 -1.89142 3.03169 27.4347 -1.89142
436 1 3.91029 29.0115 -0.153594 3.91029 29.0115 -0.153594
437 2 5.73099 28.9555 1.56642 5.73099 28.9555 1.56642
438 2 5.88732 29.0672 -1.69015 5.88732 29.0672 -1.69015
439 1 6.75902 27.365 -0.0726967 6.75902 27.365 -0.0726967
440 2 8.57656 27.3021 1.6504 8.57656 27.3021 1.6504
441 2 8.73923 27.4279 -1.60527 8.73923 27.4279 -1.60527
442 1 9.6067 29.0095 0.133947 9.6067 29.0095 0.133947
443 2 11.435 28.9575 1.84601 11.435 28.9575 1.84601
444 2 11.5776 29.0619 -1.41128 11.5776 29.0619 -1.41128
445 1 12.4564 27.3632 0.206156 12.4564 27.3632 0.206156
446 2 14.3008 27.3039 1.90051 14.3008 27.3039 1.90051
447 2 14.4128 27.4232 -1.35745 14.4128 27.4232 -1.35745
448 1 15.3067 29.0086 0.364684 15.3067 29.0086 0.364684
449 2 17.177 28.9568 2.03074 17.177 28.9568 2.03074
450 2 17.2393 29.0612 -1.22898 17.2393 29.0612 -1.22898
451 1 18.159 27.3628 0.366259 18.159 27.3628 0.366259
452 2 20.0578 27.3029 1.99913 20.0578 27.3029 1.99913
453 2 20.0635 27.4237 -1.26066 20.0635 27.4237 -1.26066
454 1 21.0117 29.0088 0.431961 21.0117 29.0088 0.431961
455 2 22.94 28.9524 2.03024 22.94 28.9524 2.03024
456 2 22.8867 29.0663 -1.22932 22.8867 29.0663 -1.22932
457 1 23.8639 27.3639 0.327261 23.8639 27.3639 0.327261
458 2 25.8195 27.2994 1.89137 25.8195 27.2994 1.89137
459 2 25.7095 27.4297 -1.36624 25.7095 27.4297 -1.36624
460 1 26.7154 29.0105 0.296266 26.7154 29.0105 0.296266
461 2 28.6903 28.9468 1.83599 28.6903 28.9468 1.83599
462 2 28.5397 29.0752 -1.42006 28.5397 29.0752 -1.42006
463 1 29.5641 27.3665 0.0989976 29.5641 27.3665 0.0989976
464 2 31.5509 27.2966 1.62278 31.5509 27.2966 1.62278
465 2 31.3744 27.4376 -1.63153 31.3744 27.4376 -1.63153
466 1 32.413 29.0132 0.0154354 32.413 29.0132 0.0154354
467 2 34.3999 28.9441 1.53928 34.3999 28.9441 1.53928
468 2 34.2231 29.0832 -1.71512 34.2231 29.0832 -1.71512
469 1 35.2598 27.3696 -0.209913 35.2598 27.3696 -0.209913
470 2 37.2366 27.2964 1.32687 37.2366 27.2964 1.32687
471 2 37.081 27.4432 -1.92829 37.081 27.4432 -1.92829
472 1 38.1093 29.0156 -0.271656 38.1093 29.0156 -0.271656
473 2 40.0674 28.9454 1.28921 40.0674 28.9454 1.28921
474 2 39.9508 29.0857 -1.96796 39.9508 29.0857 -1.96796
475 1 40.9584 27.3712 -0.444282 40.9584 27.3712 -0.444282
476 2 42.8897 27.2974 1.14977 42.8897 27.2974 1.14977
477 2 42.8288 27.4442 -2.10859 42.8288 27.4442 -2.10859
478 1 43.81 29.0159 -0.422614 43.81 29.0159 -0.422614
479 2 45.7136 28.9488 1.20463 45.7136 28.9488 1.20463
480 2 45.7081 29.0819 -2.055 45.7081 29.0819 -2.055
481 1 46.6613 27.3703 -0.493939 46.6613 27.3703 -0.493939
482 2 48.5345 27.2985 1.16836 48.5345 27.2985 1.16836
483 2 48.5898 27.4408 -2.09033 48.5898 27.4408 -2.09033
484 1 49.5122 29.014 -0.372455 49.5122 29.014 -0.372455
485 2 51.3621 28.9524 1.31588 51.3621 28.9524 1.31588
486 2 51.4622 29.0746 -1.94264 51.4622 29.0746 -1.94264
487 1 1.06122 30.6581 -0.221968 1.06122 30.6581 -0.221968
488 2 2.89481 30.6109 1.48451 2.89481 30.6109 1.48451
489 2 3.02618 30.7046 -1.77384 3.02618 30.7046 -1.77384
490 1 3.90976 32.3029 -0.0585315 3.90976 32.3029 -0.0585315
491 2 5.73461 32.2719 1.65762 5.73461 32.2719 1.65762
492 2 5.88276 32.3337 -1.60071 5.88276 32.3337 -1.60071
493 1 6.75803 30.6561 0.0405929 6.75803 30.6561 0.0405929
494 2 8.5795 30.6138 1.76016 8.5795 30.6138 1.76016
495 2 8.7346 30.6986 -1.4972 8.7346 30.6986 -1.4972
496 1 9.60627 32.3018 0.219894 9.60627 32.3018 0.219894
497 2 11.4367 32.2729 1.9302 11.4367 32.2729 1.9302
498 2 11.5751 32.331 -1.3284 11.5751 32.331 -1.3284
499 1 12.4557 30.655 0.312016 12.4557 30.655 0.312016
500 2 14.3023 30.6138 2.00469 14.3023 30.6138 2.00469
501 2 14.4103 30.6969 -1.25444 14.4103 30.6969 -1.25444
502 1 15.3065 32.3013 0.448805 15.3065 32.3013 0.448805
503 2 17.1764 32.2696 2.11597 17.1764 32.2696 2.11597
504 2 17.2397 32.3336 -1.14467 17.2397 32.3336 -1.14467
505 1 18.1588 30.6547 0.471882 18.1588 30.6547 0.471882
506 2 20.0571 30.6096 2.10616 20.0571 30.6096 2.10616
507 2 20.0643 30.7006 -1.15447 20.0643 30.7006 -1.15447
508 1 21.0119 32.3014 0.52397 21.0119 32.3014 0.52397
509 2 22.9373 32.2621 2.12644 22.9373 32.2621 2.12644
510 2 22.8901 32.3413 -1.13413 22.8901 32.3413 -1.13413
511 1 23.8645 30.6554 0.44244 23.8645 30.6554 0.44244
512 2 25.8177 30.6023 2.01022 25.8177 30.6023 2.01022
513 2 25.713 30.7094 -1.2483 25.713 30.7094 -1.2483
514 1 26.7164 32.3023 0.404519 26.7164 32.3023 0.404519
515 2 28.688 32.2534 1.94926 28.688 32.2534 1.94926
516 2 28.5447 32.352 -1.30808 28.5447 32.352 -1.30808
517 1 29.5657 30.6573 0.22894 29.5657 30.6573 0.22894
518 2 31.5507 30.5962 1.75565 31.5507 30.5962 1.75565
519 2 31.3783 30.7193 -1.49956 31.3783 30.7193 -1.49956
520 1 32.4149 32.3042 0.140078 32.4149 32.3042 0.140078
521 2 34.4007 32.2487 1.66606 34.4007 32.2487 1.66606
522 2 34.2262 32.3604 -1.58954 34.2262 32.3604 -1.58954
523 1 35.2618 30.6597 -0.0690313 35.2618 30.6597 -0.0690313
524 2 37.2392 30.5953 1.46746 37.2392 30.5953 1.46746
525 2 37.0822 30.7246 -1.78845 37.0822 30.7246 -1.78845
526 1 38.111 32.306 -0.140592 38.111 32.306 -0.140592
527 2 40.0716 32.2514 1.41775 40.0716 32.2514 1.41775
528 2 39.9496 32.3606 -1.84051 39.9496 32.3606 -1.84051
529 1 40.9597 30.6611 -0.302088 40.9597 30.6611 -0.302088
530 2 42.894 30.5995 1.28862 42.894 30.5995 1.28862
531 2 42.8262 30.722 -1.97077 42.8262 30.722 -1.97077
532 1 43.8107 32.3061 -0.298483 43.8107 32.3061 -0.298483
533 2 45.7194 32.259 1.32327 45.7194 32.259 1.32327
534 2 45.7031 32.3523 -1.93785 45.7031 32.3523 -1.93785
535 1 46.6613 30.6602 -0.359047 46.6613 30.6602 -0.359047
536 2 48.5389 30.6057 1.29865 48.5389 30.6057 1.29865
537 2 48.5848 30.7136 -1.96168 48.5848 30.7136 -1.96168
538 1 49.5119 32.3046 -0.263111 49.5119 32.3046 -0.263111