ITEM: TIMESTEP
66000
ITEM: NUMBER OF ATOMS
810
ITEM: BOX BOUNDS pp pp pp
8.4767172759056875e-01 5.2169933272407455e+01
8.2411161643701270e-01 5.0192103383562433e+01
-1.0000000000000000e+01 1.0000000000000000e+01
ITEM: ATOMS id type x y z xu yu zu
1 1 1.05122 1.0386 -0.310554 1.05122 1.0386 -0.310554
2 2 2.89827 0.957201 1.38029 2.89827 0.957201 1.38029
3 2 3.00484 1.11849 -1.87618 3.00484 1.11849 -1.87618
4 1 3.90121 2.68153 -0.13504 3.90121 2.68153 -0.13504
5 2 5.74315 2.60573 1.56155 5.74315 2.60573 1.56155
6 2 5.85945 2.75635 -1.69509 5.85945 2.75635 -1.69509
7 1 6.75189 1.03539 -0.108913 6.75189 1.03539 -0.108913
8 2 8.59555 0.952086 1.58532 8.59555 0.952086 1.58532
9 2 8.70871 1.11814 -1.67064 8.70871 1.11814 -1.67064
10 1 9.60163 2.6789 0.0745149 9.60163 2.6789 0.0745149
11 2 11.4556 2.60142 1.75776 11.4556 2.60142 1.75776
12 2 11.5491 2.75655 -1.4993 11.5491 2.75655 -1.4993
13 1 12.4531 1.03347 0.0780727 12.4531 1.03347 0.0780727
14 2 14.3223 0.948097 1.74381 14.3223 0.948097 1.74381
15 2 14.3862 1.11962 -1.51316 14.3862 1.11962 -1.51316
16 1 15.3044 2.67805 0.220809 15.3044 2.67805 0.220809
17 2 17.1927 2.59729 1.86515 17.1927 2.59729 1.86515
18 2 17.2193 2.76011 -1.39272 17.2193 2.76011 -1.39272
19 1 18.1569 1.03384 0.161557 18.1569 1.03384 0.161557
20 2 20.0642 0.947093 1.78319 20.0642 0.947093 1.78319
21 2 20.0526 1.12226 -1.4742 20.0526 1.12226 -1.4742
22 1 21.0093 2.67931 0.23971 21.0093 2.67931 0.23971
23 2 22.9353 2.59501 1.83931 22.9353 2.59501 1.83931
24 2 22.8861 2.76538 -1.41792 22.8861 2.76538 -1.41792
25 1 23.861 1.03615 0.110007 23.861 1.03615 0.110007
26 2 25.8011 0.94916 1.69219 25.8011 0.94916 1.69219
27 2 25.7228 1.12483 -1.56429 25.7228 1.12483 -1.56429
28 1 26.713 2.68196 0.129969 26.713 2.68196 0.129969
29 2 28.6646 2.59561 1.69805 28.6646 2.59561 1.69805
30 2 28.5625 2.76977 -1.55782 28.5625 2.76977 -1.55782
31 1 29.5631 1.03916 -0.0479474 29.5631 1.03916 -0.0479474
32 2 31.5187 0.953014 1.51512 31.5187 0.953014 1.51512
33 2 31.4082 1.12621 -1.74057 31.4082 1.12621 -1.74057
34 1 32.4144 2.68475 -0.0573064 32.4144 2.68475 -0.0573064
35 2 34.3711 2.59866 1.50441 34.3711 2.59866 1.50441
36 2 34.2581 2.77144 -1.75122 34.2581 2.77144 -1.75122
37 1 35.264 1.04154 -0.243933 35.264 1.04154 -0.243933
38 2 37.2129 0.957127 1.32778 37.2129 0.957127 1.32778
39 2 37.1162 1.12586 -1.92859 37.1162 1.12586 -1.92859
40 1 38.1154 2.68656 -0.243118 38.1154 2.68656 -0.243118
41 2 40.0542 2.60307 1.34116 40.0542 2.60307 1.34116
42 2 39.9782 2.76965 -1.91592 39.9782 2.76965 -1.91592
43 1 40.9662 1.04244 -0.393881 40.9662 1.04244 -0.393881
44 2 42.8862 0.960132 1.21345 42.8862 0.960132 1.21345
45 2 42.8488 1.12373 -2.04441 42.8488 1.12373 -2.04441
46 1 43.8184 2.68658 -0.343423 43.8184 2.68658 -0.343423
47 2 45.72 2.60681 1.28577 45.72 2.60681 1.28577
48 2 45.7193 2.7651 -1.97266 45.7193 2.7651 -1.97266
49 1 46.6704 1.04138 -0.423634 46.6704 1.04138 -0.423634
50 2 48.5492 0.960361 1.23186 48.5492 0.960361 1.23186
51 2 48.594 1.12077 -2.0261 48.594 1.12077 -2.0261
52 1 49.522 2.68462 -0.302686 49.522 2.68462 -0.302686
53 2 51.3837 2.60795 1.37224 51.3837 2.60795 1.37224
54 2 51.4617 2.75975 -1.88556 51.4617 2.75975 -1.88556
55 1 1.05045 4.32786 -0.15679 1.05045 4.32786 -0.15679
56 2 2.90025 4.26077 1.53163 2.90025 4.26077 1.53163
57 2 3.00115 4.39377 -1.72638 3.00115 4.39377 -1.72638
58 1 3.90047 5.97172 -0.000278991 3.90047 5.97172 -0.000278991
59 2 5.74523 5.91834 1.69412 5.74523 5.91834 1.69412
60 2 5.8559 6.02446 -1.56451 5.8559 6.02446 -1.56451
61 1 6.75083 4.3251 0.0436194 6.75083 4.3251 0.0436194
62 2 8.59563 4.25902 1.73749 8.59563 4.25902 1.73749
63 2 8.70657 4.39085 -1.5201 8.70657 4.39085 -1.5201
64 1 9.60082 5.96976 0.208017 9.60082 5.96976 0.208017
65 2 11.4552 5.91599 1.89189 11.4552 5.91599 1.89189
66 2 11.548 6.02377 -1.36706 11.548 6.02377 -1.36706
67 1 12.4522 4.32343 0.235149 12.4522 4.32343 0.235149
68 2 14.3217 4.25436 1.90161 14.3217 4.25436 1.90161
69 2 14.3854 4.39324 -1.35682 14.3854 4.39324 -1.35682
70 1 15.3039 5.96906 0.361369 15.3039 5.96906 0.361369
71 2 17.1911 5.90965 2.00817 17.1911 5.90965 2.00817
72 2 17.2202 6.02946 -1.25143 17.2202 6.02946 -1.25143
73 1 18.1567 4.32354 0.326392 18.1567 4.32354 0.326392
74 2 20.0643 4.24882 1.94868 20.0643 4.24882 1.94868
75 2 20.0526 4.39974 -1.30978 20.0526 4.39974 -1.30978
76 1 21.0095 5.96977 0.392449 21.0095 5.96977 0.392449
77 2 22.9345 5.90219 1.99451 22.9345 5.90219 1.99451
78 2 22.8879 6.03874 -1.26423 22.8879 6.03874 -1.26423
79 1 23.8618 4.32529 0.282528 23.8618 4.32529 0.282528
80 2 25.8031 4.24503 1.86398 25.8031 4.24503 1.86398
81 2 25.7228 4.40717 -1.39303 25.7228 4.40717 -1.39303
82 1 26.7141 5.97162 0.294157 26.7141 5.97162 0.294157
83 2 28.6663 5.89753 1.86259 28.6663 5.89753 1.86259
84 2 28.5636 6.04703 -1.39439 28.5636 6.04703 -1.39439
85 1 29.5647 4.32788 0.128495 29.5647 4.32788 0.128495
86 2 31.5227 4.24489 1.6889 31.5227 4.24489 1.6889
87 2 31.4073 4.41201 -1.56689 31.4073 4.41201 -1.56689
88 1 32.416 5.97387 0.112032 32.416 5.97387 0.112032
89 2 34.3754 5.89797 1.67116 34.3754 5.89797 1.67116
90 2 34.257 6.05057 -1.58528 34.257 6.05057 -1.58528
91 1 35.2655 4.33019 -0.0688356 35.2655 4.33019 -0.0688356
92 2 37.2181 4.24839 1.49851 37.2181 4.24839 1.49851
93 2 37.1137 4.41228 -1.75791 37.1137 4.41228 -1.75791
94 1 38.1168 5.97552 -0.076989 38.1168 5.97552 -0.076989
95 2 40.06 5.90288 1.50232 40.06 5.90288 1.50232
96 2 39.9745 6.04814 -1.75562 39.9745 6.04814 -1.75562
97 1 40.9671 4.33122 -0.225063 40.9671 4.33122 -0.225063
98 2 42.8913 4.25385 1.37723 42.8913 4.25385 1.37723
99 2 42.8447 4.40792 -1.8811 42.8447 4.40792 -1.8811
100 1 43.8188 5.97569 -0.187252 43.8188 5.97569 -0.187252
101 2 45.7258 5.90984 1.43615 45.7258 5.90984 1.43615
102 2 45.7138 6.04069 -1.82359 45.7138 6.04069 -1.82359
103 1 46.6703 4.33034 -0.263277 46.6703 4.33034 -0.263277
104 2 48.5532 4.25872 1.38791 48.5532 4.25872 1.38791
105 2 48.5894 4.40064 -1.87113 48.5894 4.40064 -1.87113
106 1 49.5216 5.97412 -0.158858 49.5216 5.97412 -0.158858
107 2 51.3881 5.91585 1.51133 51.3881 5.91585 1.51133
108 2 51.4563 6.03127 -1.74829 51.4563 6.03127 -1.74829
109 1 1.05009 7.61842 -0.039751 1.05009 7.61842 -0.039751
110 2 2.90483 7.5775 1.644 2.90483 7.5775 1.644
111 2 2.99581 7.65858 -1.61607 2.99581 7.65858 -1.61607
112 1 3.90035 9.26357 0.0819953 3.90035 9.26357 0.0819953
113 2 5.74923 9.24224 1.77257 5.74923 9.24224 1.77257
114 2 5.85173 9.28455 -1.48781 5.85173 9.28455 -1.48781
115 1 6.75035 7.61661 0.151156 6.75035 7.61661 0.151156
116 2 8.59708 7.57939 1.84387 8.59708 7.57939 1.84387
117 2 8.70422 7.6537 -1.41566 8.70422 7.6537 -1.41566
118 1 9.60068 9.26261 0.283279 9.60068 9.26261 0.283279
119 2 11.4551 9.24213 1.96793 11.4551 9.24213 1.96793
120 2 11.5478 9.2833 -1.29252 11.5478 9.2833 -1.29252
121 1 12.4517 7.6156 0.34423 12.4517 7.6156 0.34423
122 2 14.32 7.57509 2.01318 14.32 7.57509 2.01318
123 2 14.3862 7.65663 -1.24708 14.3862 7.65663 -1.24708
124 1 15.3036 9.26235 0.443782 15.3036 9.26235 0.443782
125 2 17.1875 9.23483 2.09549 17.1875 9.23483 2.09549
126 2 17.2235 9.29043 -1.16571 17.2235 9.29043 -1.16571
127 1 18.1564 7.61558 0.447569 18.1564 7.61558 0.447569
128 2 20.0613 7.56627 2.07444 20.0613 7.56627 2.07444
129 2 20.0556 7.66583 -1.18591 20.0556 7.66583 -1.18591
130 1 21.0095 9.26266 0.493063 21.0095 9.26266 0.493063
131 2 22.9303 9.22381 2.10147 22.9303 9.22381 2.10147
132 2 22.8927 9.30228 -1.15922 22.8927 9.30228 -1.15922
133 1 23.8624 7.61651 0.420698 23.8624 7.61651 0.420698
134 2 25.8016 7.55742 2.00592 25.8016 7.55742 2.00592
135 2 25.726 7.67676 -1.25295 25.726 7.67676 -1.25295
136 1 26.715 9.26356 0.414899 26.715 9.26356 0.414899
137 2 28.6649 9.21503 1.98734 28.6649 9.21503 1.98734
138 2 28.5671 9.31298 -1.27168 28.5671 9.31298 -1.27168
139 1 29.5661 7.61818 0.2799 29.5661 7.61818 0.2799
140 2 31.5247 7.5533 1.84074 31.5247 7.5533 1.84074
141 2 31.4084 7.68407 -1.41663 31.4084 7.68407 -1.41663
142 1 32.4175 9.2649 0.244524 32.4175 9.2649 0.244524
143 2 34.3782 9.21292 1.80312 34.3782 9.21292 1.80312
144 2 34.2571 9.31758 -1.4551 34.2571 9.31758 -1.4551
145 1 35.2671 7.61992 0.085839 35.2671 7.61992 0.085839
146 2 37.2231 7.55549 1.64982 37.2231 7.55549 1.64982
147 2 37.1115 7.68483 -1.60795 37.1115 7.68483 -1.60795
148 1 38.1181 9.26603 0.0541722 38.1181 9.26603 0.0541722
149 2 40.0659 9.21749 1.6288 40.0659 9.21749 1.6288
150 2 39.9708 9.31471 -1.63071 39.9708 9.31471 -1.63071
151 1 40.968 7.62081 -0.0777655 40.968 7.62081 -0.0777655
152 2 42.8979 7.56233 1.51855 42.8979 7.56233 1.51855
153 2 42.8396 7.67899 -1.74123 42.8396 7.67899 -1.74123
154 1 43.8194 9.26614 -0.0688729 43.8194 9.26614 -0.0688729
155 2 45.733 9.2263 1.54747 45.733 9.2263 1.54747
156 2 45.7073 9.30545 -1.71394 45.7073 9.30545 -1.71394
157 1 46.6704 7.6202 -0.130578 46.6704 7.6202 -0.130578
158 2 48.5595 7.5708 1.51412 48.5595 7.5708 1.51412
159 2 48.5829 7.66871 -1.74677 48.5829 7.66871 -1.74677
160 1 49.5216 9.26505 -0.0594797 49.5216 9.26505 -0.0594797
161 2 51.3948 9.23585 1.60393 51.3948 9.23585 1.60393
162 2 51.4496 9.29349 -1.65755 51.4496 9.29349 -1.65755
163 1 1.05024 10.9104 0.0188662 1.05024 10.9104 0.0188662
164 2 2.91108 10.9034 1.69629 2.91108 10.9034 1.69629
165 2 2.98999 10.917 -1.56512 2.98999 10.917 -1.56512
166 1 3.90087 12.5564 0.0959646 3.90087 12.5564 0.0959646
167 2 5.75423 12.5713 1.78164 5.75423 12.5713 1.78164
168 2 5.84792 12.5412 -1.47917 5.84792 12.5412 -1.47917
169 1 6.7506 10.9096 0.194109 6.7506 10.9096 0.194109
170 2 8.59955 10.9081 1.88481 8.59955 10.9081 1.88481
171 2 8.70228 10.9112 -1.37573 8.70228 10.9112 -1.37573
172 1 9.60126 12.5564 0.286385 9.60126 12.5564 0.286385
173 2 11.4551 12.5729 1.97171 11.4551 12.5729 1.97171
174 2 11.5488 12.54 -1.28882 11.5488 12.54 -1.28882
175 1 12.4518 10.9095 0.385822 12.4518 10.9095 0.385822
176 2 14.3175 10.9047 2.0582 14.3175 10.9047 2.0582
177 2 14.3887 10.9146 -1.20294 14.3887 10.9146 -1.20294
178 1 15.3038 12.5568 0.453539 15.3038 12.5568 0.453539
179 2 17.1825 12.5659 2.11142 17.1825 12.5659 2.11142
180 2 17.2287 12.548 -1.15007 17.2287 12.548 -1.15007
181 1 18.1563 10.9097 0.503616 18.1563 10.9097 0.503616
182 2 20.0557 10.8944 2.13767 20.0557 10.8944 2.13767
183 2 20.0611 10.9254 -1.12401 20.0611 10.9254 -1.12401
184 1 21.0094 12.5572 0.524155 21.0094 12.5572 0.524155
185 2 22.9235 12.5537 2.1411 22.9235 12.5537 2.1411
186 2 22.8995 12.561 -1.12063 22.8995 12.561 -1.12063
187 1 23.8626 10.91 0.499932 23.8626 10.91 0.499932
188 2 25.797 10.8825 2.09219 25.797 10.8825 2.09219
189 2 25.7316 10.9381 -1.16855 25.7316 10.9381 -1.16855
190 1 26.7153 12.5575 0.470982 26.7153 12.5575 0.470982
191 2 28.6609 12.5431 2.0497 28.6609 12.5431 2.0497
192 2 28.5724 12.5724 -1.21089 28.5724 12.5724 -1.21089
193 1 29.5671 10.9108 0.379018 29.5671 10.9108 0.379018
194 2 31.5242 10.8756 1.94283 31.5242 10.8756 1.94283
195 2 31.4112 10.9466 -1.31646 31.4112 10.9466 -1.31646
196 1 32.4185 12.558 0.316341 32.4185 12.558 0.316341
197 2 34.3791 12.5393 1.87595 34.3791 12.5393 1.87595
198 2 34.2584 12.5772 -1.38372 34.2584 12.5772 -1.38372
199 1 35.2685 10.9117 0.191943 35.2685 10.9117 0.191943
200 2 37.227 10.8764 1.75373 37.227 10.8764 1.75373
201 2 37.1101 10.9474 -1.50565 37.1101 10.9474 -1.50565
202 1 38.1191 12.5584 0.12627 38.1191 12.5584 0.12627
203 2 40.0708 12.5429 1.69679 40.0708 12.5429 1.69679
204 2 39.9677 12.5739 -1.56378 39.9677 12.5739 -1.56378
205 1 40.969 10.9121 0.0209117 40.969 10.9121 0.0209117
206 2 42.9046 10.8834 1.61104 42.9046 10.8834 1.61104
207 2 42.8343 10.9407 -1.65014 42.8343 10.9407 -1.65014
208 1 43.82 12.5581 -0.0105403 43.82 12.5581 -0.0105403
209 2 45.7403 12.5518 1.59831 45.7403 12.5518 1.59831
210 2 45.701 12.5639 -1.66394 45.701 12.5639 -1.66394
211 1 46.6708 10.9116 -0.0501539 46.6708 10.9116 -0.0501539
212 2 48.5671 10.8937 1.58671 48.5671 10.8937 1.58671
213 2 48.5758 10.9288 -1.67559 48.5758 10.9288 -1.67559
214 1 49.522 12.5572 -0.0236141 49.522 12.5572 -0.0236141
215 2 51.4023 12.5628 1.63187 51.4023 12.5628 1.63187
216 2 51.4429 12.5509 -1.63033 51.4429 12.5509 -1.63033
217 1 1.05085 14.203 0.00712534 1.05085 14.203 0.00712534
218 2 2.91771 14.2315 1.67755 2.91771 14.2315 1.67755
219 2 2.98482 14.1739 -1.58365 2.98482 14.1739 -1.58365
220 1 3.90188 15.8488 0.037793 3.90188 15.8488 0.037793
221 2 5.7591 15.8976 1.71851 5.7591 15.8976 1.71851
222 2 5.8453 15.7996 -1.54117 5.8453 15.7996 -1.54117
223 1 6.75153 14.2028 0.163728 6.75153 14.2028 0.163728
224 2 8.60231 14.2375 1.852 8.60231 14.2375 1.852
225 2 8.70137 14.1681 -1.40794 8.70137 14.1681 -1.40794
226 1 9.60247 15.8494 0.216087 9.60247 15.8494 0.216087
227 2 11.4549 15.9001 1.90218 11.4549 15.9001 1.90218
228 2 11.5512 15.7988 -1.35692 11.5512 15.7988 -1.35692
229 1 12.4526 14.2035 0.352336 12.4526 14.2035 0.352336
230 2 14.3145 14.2352 2.02849 14.3145 14.2352 2.02849
231 2 14.3928 14.172 -1.23192 14.3928 14.172 -1.23192
232 1 15.3045 15.8506 0.389232 15.3045 15.8506 0.389232
233 2 17.1768 15.8944 2.05361 17.1768 15.8944 2.05361
234 2 17.2352 15.807 -1.20662 17.2352 15.807 -1.20662
235 1 18.1565 14.2042 0.485194 18.1565 14.2042 0.485194
236 2 20.0487 14.2254 2.1275 20.0487 14.2254 2.1275
237 2 20.0683 14.1833 -1.13401 20.0683 14.1833 -1.13401
238 1 21.0094 15.8516 0.481239 21.0094 15.8516 0.481239
239 2 22.9155 15.8837 2.10718 22.9155 15.8837 2.10718
240 2 22.9074 15.8197 -1.15404 22.9074 15.8197 -1.15404
241 1 23.8625 14.2047 0.506997 23.8625 14.2047 0.506997
242 2 25.7901 14.2133 2.1077 25.7901 14.2133 2.1077
243 2 25.7387 14.1963 -1.1537 25.7387 14.1963 -1.1537
244 1 26.7153 15.852 0.45342 26.7153 15.852 0.45342
245 2 28.6551 15.8738 2.03905 28.6551 15.8738 2.03905
246 2 28.5784 15.8304 -1.22169 28.5784 15.8304 -1.22169
247 1 29.5675 14.2049 0.408592 29.5675 14.2049 0.408592
248 2 31.5215 14.2056 1.97671 31.5215 14.2056 1.97671
249 2 31.4151 14.2045 -1.28356 31.4151 14.2045 -1.28356
250 1 32.4189 15.852 0.315172 32.4189 15.852 0.315172
251 2 34.378 15.8695 1.87658 34.378 15.8695 1.87658
252 2 34.2604 15.8345 -1.38322 34.2604 15.8345 -1.38322
253 1 35.2693 14.205 0.230368 35.2693 14.205 0.230368
254 2 37.2291 14.2051 1.7909 37.2291 14.2051 1.7909
255 2 37.1096 14.205 -1.46915 37.1096 14.205 -1.46915
256 1 38.1197 15.8516 0.126266 38.1197 15.8516 0.126266
257 2 40.074 15.8718 1.69345 40.074 15.8718 1.69345
258 2 39.9655 15.831 -1.56682 39.9655 15.831 -1.56682
259 1 40.9697 14.2047 0.0525395 40.9697 14.2047 0.0525395
260 2 42.9103 14.2111 1.63683 42.9103 14.2111 1.63683
261 2 42.8298 14.198 -1.62459 42.8298 14.198 -1.62459
262 1 43.8205 15.8506 -0.023501 43.8205 15.8506 -0.023501
263 2 45.7463 15.8791 1.57837 45.7463 15.8791 1.57837
264 2 45.6958 15.8212 -1.6832 45.6958 15.8212 -1.6832
265 1 46.6712 14.2039 -0.0376479 46.6712 14.2039 -0.0376479
266 2 48.5746 14.2211 1.59107 48.5746 14.2211 1.59107
267 2 48.5692 14.1859 -1.67124 48.5692 14.1859 -1.67124
268 1 49.5225 15.8494 -0.0589465 49.5225 15.8494 -0.0589465
269 2 51.4092 15.8891 1.58875 51.4092 15.8891 1.58875
270 2 51.4372 15.8088 -1.67259 51.4372 15.8088 -1.67259
271 1 1.05169 17.4946 -0.0739442 1.05169 17.4946 -0.0739442
272 2 2.92341 17.5538 1.5902 2.92341 17.5538 1.5902
273 2 2.98116 17.4345 -1.66947 2.98116 17.4345 -1.66947
274 1 3.9031 19.1396 -0.0827982 3.9031 19.1396 -0.0827982
275 2 5.76285 19.2137 1.59419 5.76285 19.2137 1.59419
276 2 5.84431 19.0649 -1.66367 5.84431 19.0649 -1.66367
277 1 6.75292 17.4946 0.0645196 6.75292 17.4946 0.0645196
278 2 8.60465 17.5595 1.75079 8.60465 17.5595 1.75079
279 2 8.70185 17.4296 -1.50737 8.70185 17.4296 -1.50737
280 1 9.60408 19.1404 0.0845398 9.60408 19.1404 0.0845398
281 2 11.4544 19.2163 1.77186 11.4544 19.2163 1.77186
282 2 11.5546 19.0647 -1.4852 11.5546 19.0647 -1.4852
283 1 12.4538 17.4959 0.249607 12.4538 17.4959 0.249607
284 2 14.3114 17.5585 1.92966 14.3114 17.5585 1.92966
285 2 14.398 17.4337 -1.32883 14.398 17.4337 -1.32883
286 1 15.3056 19.1423 0.262584 15.3056 19.1423 0.262584
287 2 17.1714 19.2131 1.93309 17.1714 19.2131 1.93309
288 2 17.2422 19.0721 -1.32511 17.2422 19.0721 -1.32511
289 1 18.1569 17.4975 0.39635 18.1569 17.4975 0.39635
290 2 20.0413 17.5511 2.0467 20.0413 17.5511 2.0467
291 2 20.0761 17.4444 -1.21328 20.0761 17.4444 -1.21328
292 1 21.0097 19.1442 0.372874 21.0097 19.1442 0.372874
293 2 22.9078 19.206 2.00692 22.9078 19.206 2.00692
294 2 22.9151 19.0829 -1.25269 22.9151 19.0829 -1.25269
295 1 23.8624 17.4986 0.441858 23.8624 17.4986 0.441858
296 2 25.7826 17.5415 2.05078 25.7826 17.5415 2.05078
297 2 25.746 17.456 -1.2098 25.746 17.456 -1.2098
298 1 26.7151 19.1452 0.366586 26.7151 19.1452 0.366586
299 2 28.6489 19.199 1.95853 28.6489 19.199 1.95853
300 2 28.5841 19.0917 -1.30104 28.5841 19.0917 -1.30104
301 1 29.5674 17.4989 0.364432 29.5674 17.4989 0.364432
302 2 31.5174 17.5348 1.93707 31.5174 17.5348 1.93707
303 2 31.4193 17.463 -1.32269 31.4193 17.463 -1.32269
304 1 32.4187 19.1451 0.242356 32.4187 19.1451 0.242356
305 2 34.3755 19.1953 1.80586 34.3755 19.1953 1.80586
306 2 34.2627 19.0946 -1.45276 34.2627 19.0946 -1.45276
307 1 35.2695 17.4984 0.194838 35.2695 17.4984 0.194838
308 2 37.2294 17.5336 1.75483 37.2294 17.5336 1.75483
309 2 37.1098 17.4629 -1.50443 37.1098 17.4629 -1.50443
310 1 38.1197 19.1439 0.0547868 38.1197 19.1439 0.0547868
311 2 40.0751 19.1959 1.61979 40.0751 19.1959 1.61979
312 2 39.9644 19.0912 -1.63894 39.9644 19.0912 -1.63894
313 1 40.97 17.4973 0.0113514 40.97 17.4973 0.0113514
314 2 42.914 17.5374 1.59086 42.914 17.5374 1.59086
315 2 42.8266 17.4563 -1.66936 42.8266 17.4563 -1.66936
316 1 43.8206 19.1421 -0.105478 43.8206 19.1421 -0.105478
317 2 45.7501 19.2002 1.49114 45.7501 19.2002 1.49114
318 2 45.6923 19.0828 -1.76864 45.6923 19.0828 -1.76864
319 1 46.6716 17.4957 -0.0960196 46.6716 17.4957 -0.0960196
320 2 48.5805 17.545 1.52557 48.5805 17.545 1.52557
321 2 48.5643 17.4453 -1.73532 48.5643 17.4453 -1.73532
322 1 49.523 19.1403 -0.159671 49.523 19.1403 -0.159671
323 2 51.4143 19.207 1.48192 51.4143 19.207 1.48192
324 2 51.4336 19.0724 -1.77763 51.4336 19.0724 -1.77763
325 1 1.0525 20.7845 -0.210035 1.0525 20.7845 -0.210035
326 2 2.92711 20.8637 1.45007 2.92711 20.8637 1.45007
327 2 2.97955 20.7043 -1.80791 2.97955 20.7043 -1.80791
328 1 3.90426 22.4287 -0.244099 3.90426 22.4287 -0.244099
329 2 5.76483 22.5147 1.43141 5.76483 22.5147 1.43141
330 2 5.84499 22.3421 -1.82525 5.84499 22.3421 -1.82525
331 1 6.75447 20.7845 -0.0860428 6.75447 20.7845 -0.0860428
332 2 8.60607 20.868 1.59949 8.60607 20.868 1.59949
333 2 8.7036 20.7008 -1.65697 8.7036 20.7008 -1.65697
334 1 9.60575 22.4295 -0.084815 9.60575 22.4295 -0.084815
335 2 11.4538 22.5174 1.60439 11.4538 22.5174 1.60439
336 2 11.5584 22.3422 -1.65139 11.5584 22.3422 -1.65139
337 1 12.4554 20.7861 0.0958797 12.4554 20.7861 0.0958797
338 2 14.3085 20.8686 1.77978 14.3085 20.8686 1.77978
339 2 14.4035 20.7043 -1.4768 14.4035 20.7043 -1.4768
340 1 15.3069 22.4319 0.0960823 15.3069 22.4319 0.0960823
341 2 17.1673 22.5174 1.77174 17.1673 22.5174 1.77174
342 2 17.2483 22.3474 -1.48493 17.2483 22.3474 -1.48493
343 1 18.1577 20.7885 0.25326 18.1577 20.7885 0.25326
344 2 20.035 20.8651 1.91053 20.035 20.8651 1.91053
345 2 20.0833 20.7129 -1.34759 20.0833 20.7129 -1.34759
346 1 21.01 22.4345 0.21854 21.01 22.4345 0.21854
347 2 22.9017 22.5153 1.85891 22.9017 22.5153 1.85891
348 2 22.9214 22.3549 -1.39915 22.9214 22.3549 -1.39915
349 1 23.8624 20.7905 0.316967 23.8624 20.7905 0.316967
350 2 25.7757 20.8598 1.93278 25.7757 20.8598 1.93278
351 2 25.7524 20.7218 -1.32622 25.7524 20.7218 -1.32622
352 1 26.7147 22.4363 0.226663 26.7147 22.4363 0.226663
353 2 28.6433 22.5124 1.82368 28.6433 22.5124 1.82368
354 2 28.5887 22.3608 -1.43441 28.5887 22.3608 -1.43441
355 1 29.567 20.7912 0.255616 29.567 20.7912 0.255616
356 2 31.5127 20.8555 1.83234 31.5127 20.8555 1.83234
357 2 31.4231 20.7269 -1.42596 31.4231 20.7269 -1.42596
358 1 32.418 22.4363 0.111968 32.418 22.4363 0.111968
359 2 34.372 22.5099 1.67779 34.372 22.5099 1.67779
360 2 34.2648 22.3623 -1.57926 34.2648 22.3623 -1.57926
361 1 35.2691 20.7904 0.0928011 35.2691 20.7904 0.0928011
362 2 37.2279 20.8538 1.65312 37.2279 20.8538 1.65312
363 2 37.1105 20.7263 -1.60448 37.1105 20.7263 -1.60448
364 1 38.119 22.4346 -0.0743786 38.119 22.4346 -0.0743786
365 2 40.074 22.5086 1.49022 40.074 22.5086 1.49022
366 2 39.9644 22.3595 -1.76678 39.9644 22.3595 -1.76678
367 1 40.9697 20.7884 -0.0946675 40.9697 20.7884 -0.0946675
368 2 42.9153 20.8548 1.48203 42.9153 20.8548 1.48203
369 2 42.8249 20.7208 -1.77629 42.8249 20.7208 -1.77629
370 1 43.8202 22.432 -0.241166 43.8202 22.432 -0.241166
371 2 45.7511 22.5089 1.35314 45.7511 22.5089 1.35314
372 2 45.6911 22.3537 -1.90491 45.6911 22.3537 -1.90491
373 1 46.6717 20.7861 -0.214737 46.6717 20.7861 -0.214737
374 2 48.5838 20.8584 1.40226 48.5838 20.8584 1.40226
375 2 48.5615 20.7124 -1.85675 48.5615 20.7124 -1.85675
376 1 49.5233 22.4297 -0.307433 49.5233 22.4297 -0.307433
377 2 51.4166 22.5112 1.33122 51.4166 22.5112 1.33122
378 2 51.4323 22.3469 -1.92689 51.4323 22.3469 -1.92689
379 1 1.05313 24.0733 -0.376242 1.05313 24.0733 -0.376242
380 2 2.92826 24.1581 1.28306 2.92826 24.1581 1.28306
381 2 2.98015 23.9876 -1.97427 2.98015 23.9876 -1.97427
382 1 3.90518 25.7175 -0.41675 3.90518 25.7175 -0.41675
383 2 5.76494 25.8001 1.25987 5.76494 25.8001 1.25987
384 2 5.84706 25.6345 -1.99705 5.84706 25.6345 -1.99705
385 1 6.75587 24.0732 -0.260832 6.75587 24.0732 -0.260832
386 2 8.60648 24.1606 1.42556 8.60648 24.1606 1.42556
387 2 8.70612 23.9858 -1.83041 8.70612 23.9858 -1.83041
388 1 9.60716 25.7182 -0.261845 9.60716 25.7182 -0.261845
389 2 11.4532 25.8026 1.42959 11.4532 25.8026 1.42959
390 2 11.5617 25.6344 -1.82644 11.5617 25.6344 -1.82644
391 1 12.457 24.0749 -0.0816408 12.457 24.0749 -0.0816408
392 2 14.3066 24.1629 1.60566 14.3066 24.1629 1.60566
393 2 14.4082 23.9878 -1.65022 14.4082 23.9878 -1.65022
394 1 15.3081 25.7205 -0.081322 15.3081 25.7205 -0.081322
395 2 17.1651 25.8062 1.59782 17.1651 25.8062 1.59782
396 2 17.2524 25.6363 -1.65879 17.2524 25.6363 -1.65879
397 1 18.1586 24.0777 0.080988 18.1586 24.0777 0.080988
398 2 20.0307 24.1642 1.74327 20.0307 24.1642 1.74327
399 2 20.0887 23.9927 -1.51384 20.0887 23.9927 -1.51384
400 1 21.0105 25.7235 0.0447851 21.0105 25.7235 0.0447851
401 2 22.8982 25.8095 1.68907 22.8982 25.8095 1.68907
402 2 22.9252 25.639 -1.56855 22.9252 25.639 -1.56855
403 1 23.8623 24.0803 0.15443 23.8623 24.0803 0.15443
404 2 25.7705 24.1641 1.77519 25.7705 24.1641 1.77519
405 2 25.757 23.9976 -1.48266 25.757 23.9976 -1.48266
406 1 26.7142 25.7256 0.0580037 26.7142 25.7256 0.0580037
407 2 28.6391 25.811 1.65858 28.6391 25.811 1.65858
408 2 28.5915 25.6411 -1.59883 28.5915 25.6411 -1.59883
409 1 29.5663 24.0814 0.101984 29.5663 24.0814 0.101984
410 2 31.5083 24.1628 1.68218 31.5083 24.1628 1.68218
411 2 31.4259 24.0002 -1.57487 31.4259 24.0002 -1.57487
412 1 32.4169 25.7257 -0.0526705 32.4169 25.7257 -0.0526705
413 2 34.3681 25.8097 1.51589 34.3681 25.8097 1.51589
414 2 34.2666 25.6414 -1.74037 34.2666 25.6414 -1.74037
415 1 35.2682 24.0804 -0.0566675 35.2682 24.0804 -0.0566675
416 2 37.225 24.1606 1.5052 37.225 24.1606 1.5052
417 2 37.1117 23.9995 -1.75105 37.1117 23.9995 -1.75105
418 1 38.1179 25.7238 -0.237544 38.1179 25.7238 -0.237544
419 2 40.0709 25.8064 1.329 40.0709 25.8064 1.329
420 2 39.9655 25.6401 -1.92725 39.9655 25.6401 -1.92725
421 1 40.969 24.0779 -0.245651 40.969 24.0779 -0.245651
422 2 42.914 24.1583 1.33109 42.914 24.1583 1.33109
423 2 42.8251 23.9962 -1.9259 42.8251 23.9962 -1.9259
424 1 43.8195 25.7209 -0.405411 43.8195 25.7209 -0.405411
425 2 45.7491 25.8024 1.19034 45.7491 25.8024 1.19034
426 2 45.6922 25.6381 -2.0672 45.6922 25.6381 -2.0672
427 1 46.6715 24.0752 -0.371809 46.6715 24.0752 -0.371809
428 2 48.584 24.1572 1.24432 48.584 24.1572 1.24432
429 2 48.5614 23.9918 -2.01363 48.5614 23.9918 -2.01363
430 1 49.5234 25.7185 -0.474933 49.5234 25.7185 -0.474933
431 2 51.416 25.7998 1.16468 51.416 25.7998 1.16468
432 2 51.4337 25.6361 -2.09331 51.4337 25.6361 -2.09331
433 1 1.05354 27.3626 -0.542078 1.05354 27.3626 -0.542078
434 2 2.92696 27.4377 1.1197 2.92696 27.4377 1.1197
435 2 2.9827 27.2868 -2.13842 2.9827 27.2868 -2.13842
436 1 3.90579 29.0076 -0.569619 3.90579 29.0076 -0.569619
437 2 5.76348 29.0721 1.1101 5.76348 29.0721 1.1101
438 2 5.84994 28.9428 -2.14827 5.84994 28.9428 -2.14827
439 1 6.7569 27.3624 -0.428496 6.7569 27.3624 -0.428496
440 2 8.60605 27.4383 1.26001 8.60605 27.4383 1.26001
441 2 8.70871 27.2866 -1.997 8.70871 27.2866 -1.997
442 1 9.60806 29.0081 -0.415438 9.60806 29.0081 -0.415438
443 2 11.453 29.0745 1.27783 11.453 29.0745 1.27783
444 2 11.5636 28.9423 -1.97981 11.5636 28.9423 -1.97981
445 1 12.4581 27.3639 -0.251967 12.4581 27.3639 -0.251967
446 2 14.3059 27.4424 1.43758 14.3059 27.4424 1.43758
447 2 14.4109 27.2864 -1.81923 14.4109 27.2864 -1.81923
448 1 15.3089 29.01 -0.239296 15.3089 29.01 -0.239296
449 2 17.1653 29.0813 1.44087 17.1653 29.0813 1.44087
450 2 17.2534 28.94 -1.81717 17.2534 28.94 -1.81717
451 1 18.1594 27.3665 -0.0911067 18.1594 27.3665 -0.0911067
452 2 20.0292 27.4483 1.57361 20.0292 27.4483 1.57361
453 2 20.0912 27.2863 -1.68404 20.0912 27.2863 -1.68404
454 1 21.0107 29.0125 -0.119262 21.0107 29.0125 -0.119262
455 2 22.8976 29.0896 1.52597 22.8976 29.0896 1.52597
456 2 22.9256 28.9371 -1.73267 22.9256 28.9371 -1.73267
457 1 23.8622 27.3691 -0.0182426 23.8622 27.3691 -0.0182426
458 2 25.7679 27.4534 1.6051 25.7679 27.4534 1.6051
459 2 25.7589 27.2863 -1.65286 25.7589 27.2863 -1.65286
460 1 26.7136 29.0145 -0.111215 26.7136 29.0145 -0.111215
461 2 28.6369 29.095 1.49114 28.6369 29.095 1.49114
462 2 28.592 28.935 -1.7669 28.592 28.935 -1.7669
463 1 29.5653 27.3703 -0.070103 29.5653 27.3703 -0.070103
464 2 31.5046 27.4549 1.51295 31.5046 27.4549 1.51295
465 2 31.4275 27.2862 -1.74399 31.4275 27.2862 -1.74399
466 1 32.4156 29.0146 -0.223593 32.4156 29.0146 -0.223593
467 2 34.3642 29.0949 1.34815 34.3642 29.0949 1.34815
468 2 34.2678 28.9342 -1.90868 34.2678 28.9342 -1.90868
469 1 35.2668 27.3693 -0.227165 35.2668 27.3693 -0.227165
470 2 37.221 27.4522 1.33779 37.221 27.4522 1.33779
471 2 37.1132 27.2859 -1.91837 37.1132 27.2859 -1.91837
472 1 38.1165 29.0128 -0.406087 38.1165 29.0128 -0.406087
473 2 40.0662 29.0896 1.16487 40.0662 29.0896 1.16487
474 2 39.9679 28.9351 -2.09212 39.9679 28.9351 -2.09212
475 1 40.9679 27.3668 -0.414131 40.9679 27.3668 -0.414131
476 2 42.9102 27.4467 1.16592 42.9102 27.4467 1.16592
477 2 42.8272 27.2858 -2.09119 42.8272 27.2858 -2.09119
478 1 43.8187 29.0103 -0.56847 43.8187 29.0103 -0.56847
479 2 45.7445 29.0818 1.03235 45.7445 29.0818 1.03235
480 2 45.6958 28.9378 -2.22616 45.6958 28.9378 -2.22616
481 1 46.6711 27.3642 -0.538241 46.6711 27.3642 -0.538241
482 2 48.5812 27.4409 1.08105 48.5812 27.4409 1.08105
483 2 48.564 27.2864 -2.17733 48.564 27.2864 -2.17733
484 1 49.5234 29.0083 -0.631541 49.5234 29.0083 -0.631541
485 2 51.4127 29.075 1.01257 51.4127 29.075 1.01257
486 2 51.4374 28.941 -2.24662 51.4374 28.941 -2.24662
487 1 1.05379 30.6536 -0.677841 1.05379 30.6536 -0.677841
488 2 2.92371 30.7059 0.988816 2.92371 30.7059 0.988816
489 2 2.98668 30.6009 -2.2709 2.98668 30.6009 -2.2709
490 1 3.90605 32.2998 -0.676067 3.90605 32.2998 -0.676067
491 2 5.76086 32.3353 1.00769 5.76086 32.3353 1.00769
492 2 5.8531 32.2641 -2.25227 5.8531 32.2641 -2.25227
493 1 6.75744 30.6535 -0.559512 6.75744 30.6535 -0.559512
494 2 8.60513 30.7048 1.13147 8.60513 30.7048 1.13147
495 2 8.71076 30.6023 -2.12734 8.71076 30.6023 -2.12734
496 1 9.60833 32.3001 -0.519187 9.60833 32.3001 -0.519187
497 2 11.4534 32.3372 1.17466 11.4534 32.3372 1.17466
498 2 11.5637 32.2633 -2.08486 11.5637 32.2633 -2.08486
499 1 12.4587 30.6545 -0.385809 12.4587 30.6545 -0.385809
500 2 14.3069 30.7102 1.30401 14.3069 30.7102 1.30401
501 2 14.4109 30.5996 -1.95473 14.4109 30.5996 -1.95473
502 1 15.3091 32.3012 -0.351143 15.3091 32.3012 -0.351143
503 2 17.1679 32.3462 1.32699 17.1679 32.3462 1.32699
504 2 17.251 32.2572 -1.93311 17.251 32.2572 -1.93311
505 1 18.1597 30.6564 -0.23411 18.1597 30.6564 -0.23411
506 2 20.0307 30.72 1.4298 20.0307 30.72 1.4298
507 2 20.09 30.5943 -1.8296 20.09 30.5943 -1.8296
508 1 21.0106 32.3029 -0.246344 21.0106 32.3029 -0.246344
509 2 22.9002 32.3581 1.39642 22.9002 32.3581 1.39642
510 2 22.9225 32.2491 -1.8641 22.9225 32.2491 -1.8641
511 1 23.8619 30.6585 -0.172466 23.8619 30.6585 -0.172466
512 2 25.768 30.7294 1.45068 25.768 30.7294 1.45068
513 2 25.7577 30.589 -1.80864 25.7577 30.589 -1.80864
514 1 26.7128 32.3044 -0.25318 26.7128 32.3044 -0.25318
515 2 28.6368 32.3669 1.34883 28.6368 32.3669 1.34883
516 2 28.5901 32.2429 -1.91083 28.5901 32.2429 -1.91083
517 1 29.5643 30.6596 -0.23217 29.5643 30.6596 -0.23217
518 2 31.5021 30.7334 1.35288 31.5021 30.7334 1.35288
519 2 31.4275 30.5862 -1.90522 31.4275 30.5862 -1.90522
520 1 32.4143 32.3045 -0.372677 32.4143 32.3045 -0.372677
521 2 34.3608 32.3679 1.20223 34.3608 32.3679 1.20223
522 2 34.2685 32.2412 -2.05622 34.2685 32.2412 -2.05622
523 1 35.2654 30.6587 -0.38995 35.2654 30.6587 -0.38995
524 2 37.2163 30.7304 1.17945 37.2163 30.7304 1.17945
525 2 37.1152 30.5867 -2.07798 37.1152 30.5867 -2.07798
526 1 38.1152 32.3032 -0.551783 38.1152 32.3032 -0.551783
527 2 40.0605 32.3615 1.02539 40.0605 32.3615 1.02539
528 2 39.9715 32.2443 -2.23336 39.9715 32.2443 -2.23336
529 1 40.9667 30.6566 -0.570735 40.9667 30.6566 -0.570735
530 2 42.9046 30.7222 1.01551 42.9046 30.7222 1.01551
531 2 42.8311 30.5903 -2.24304 42.8311 30.5903 -2.24304
532 1 43.8181 32.3014 -0.702296 43.8181 32.3014 -0.702296
533 2 45.7382 32.351 0.906216 45.7382 32.351 0.906216
534 2 45.7013 32.2513 -2.35401 45.7013 32.2513 -2.35401
535 1 46.6707 30.6547 -0.684257 46.6707 30.6547 -0.684257
536 2 48.5761 30.7127 0.941486 48.5761 30.7127 0.941486
537 2 48.5689 30.596 -2.3184 48.5689 30.596 -2.3184
538 1 49.5234 32.3002 -0.749934 49.5234 32.3002 -0.749934
539 2 51.4076 32.3408 0.901029 51.4076 32.3408 0.901029
540 2 51.4428 32.2592 -2.35971 51.4428 32.2592 -2.35971