ITEM: TIMESTEP
48000
ITEM: NUMBER OF ATOMS
810
ITEM: BOX BOUNDS pp pp pp
8.4601602464716208e-01 5.2171588975351973e+01
8.1479747706505690e-01 5.0201417522934662e+01
-1.0000000000000000e+01 1.0000000000000000e+01
ITEM: ATOMS id type x y z xu yu zu
1 1 1.04993 1.02946 -0.0272281 1.04993 1.02946 -0.0272281
2 2 2.98544 1.07291 1.56218 2.98544 1.07291 1.56218
3 2 2.91608 0.9858 -1.69811 2.91608 0.9858 -1.69811
4 1 3.90093 2.675 -0.132396 3.90093 2.675 -0.132396
5 2 5.842 2.71568 1.45029 5.842 2.71568 1.45029
6 2 5.76117 2.6342 -1.80989 5.76117 2.6342 -1.80989
7 1 6.75214 1.0287 -0.162212 6.75214 1.0287 -0.162212
8 2 8.69532 1.07243 1.41793 8.69532 1.07243 1.41793
9 2 8.61019 0.984892 -1.84197 8.61019 0.984892 -1.84197
10 1 9.6028 2.67428 -0.281234 9.6028 2.67428 -0.281234
11 2 11.5423 2.71544 1.30354 11.5423 2.71544 1.30354
12 2 11.4648 2.63314 -1.95667 11.4648 2.63314 -1.95667
13 1 12.4541 1.02801 -0.307564 12.4541 1.02801 -0.307564
14 2 14.3863 1.07217 1.2863 14.3863 1.07217 1.2863
15 2 14.3239 0.983917 -1.97408 14.3239 0.983917 -1.97408
16 1 15.3054 2.67376 -0.406752 15.3054 2.67376 -0.406752
17 2 17.2254 2.7158 1.20191 17.2254 2.7158 1.20191
18 2 17.1879 2.63186 -2.05893 17.1879 2.63186 -2.05893
19 1 18.1574 1.02768 -0.396939 18.1574 1.02768 -0.396939
20 2 20.0632 1.07216 1.22851 20.0632 1.07216 1.22851
21 2 20.0542 0.983399 -2.03243 20.0542 0.983399 -2.03243
22 1 21.0094 2.67368 -0.449465 21.0094 2.67368 -0.449465
23 2 22.8992 2.71658 1.19466 22.8992 2.71658 1.19466
24 2 22.9222 2.63106 -2.06628 22.9222 2.63106 -2.06628
25 1 23.8613 1.02791 -0.38576 23.8613 1.02791 -0.38576
26 2 25.7369 1.07251 1.27447 25.7369 1.07251 1.27447
27 2 25.7878 0.983632 -1.98609 25.7878 0.983632 -1.98609
28 1 26.7131 2.67418 -0.385907 26.7131 2.67418 -0.385907
29 2 28.5768 2.71768 1.28779 28.5768 2.71768 1.28779
30 2 28.6512 2.631 -1.97236 28.6512 2.631 -1.97236
31 1 29.5641 1.02867 -0.276658 29.5641 1.02867 -0.276658
32 2 31.4215 1.0731 1.4039 31.4215 1.0731 1.4039
33 2 31.508 0.98451 -1.85592 31.508 0.98451 -1.85592
34 1 32.4154 2.67503 -0.245613 32.4154 2.67503 -0.245613
35 2 34.2709 2.71844 1.43682 34.2709 2.71844 1.43682
36 2 34.3609 2.63183 -1.82298 34.3609 2.63183 -1.82298
37 1 35.2659 1.02955 -0.122991 35.2659 1.02955 -0.122991
38 2 37.1268 1.07346 1.55353 37.1268 1.07346 1.55353
39 2 37.2065 0.985681 -1.7065 37.2065 0.985681 -1.7065
40 1 38.1172 2.67576 -0.0977163 38.1172 2.67576 -0.0977163
41 2 39.9866 2.71828 1.56913 39.9866 2.71828 1.56913
42 2 40.0496 2.6332 -1.69136 40.0496 2.6332 -1.69136
43 1 40.9684 1.03005 0.000281467 40.9684 1.03005 0.000281467
44 2 42.8515 1.07346 1.65163 42.8515 1.07346 1.65163
45 2 42.8877 0.98647 -1.60919 42.8877 0.98647 -1.60919
46 1 43.8202 2.67598 -0.0123408 43.8202 2.67598 -0.0123408
47 2 45.7171 2.71743 1.62305 45.7171 2.71743 1.62305
48 2 45.7258 2.63431 -1.6381 45.7258 2.63431 -1.6381
49 1 46.6721 1.03 0.0370143 46.6721 1.03 0.0370143
50 2 48.5844 1.07327 1.65427 48.5844 1.07327 1.65427
51 2 48.5622 0.986453 -1.60669 48.5622 0.986453 -1.60669
52 1 49.5238 2.67566 -0.026732 49.5238 2.67566 -0.026732
53 2 51.4485 2.71646 1.57571 51.4485 2.71646 1.57571
54 2 51.4011 2.63463 -1.68514 51.4011 2.63463 -1.68514
55 1 1.04961 4.3213 -0.110111 1.04961 4.3213 -0.110111
56 2 2.98379 4.35742 1.48094 2.98379 4.35742 1.48094
57 2 2.91698 4.28504 -1.77979 2.91698 4.28504 -1.77979
58 1 3.90059 5.96707 -0.205712 3.90059 5.96707 -0.205712
59 2 5.84054 5.99689 1.37847 5.84054 5.99689 1.37847
60 2 5.76191 5.93719 -1.88225 5.76191 5.93719 -1.88225
61 1 6.75166 4.32065 -0.244745 6.75166 4.32065 -0.244745
62 2 8.69392 4.35685 1.33664 8.69392 4.35685 1.33664
63 2 8.61068 4.28443 -1.92367 8.61068 4.28443 -1.92367
64 1 9.60241 5.96653 -0.354558 9.60241 5.96653 -0.354558
65 2 11.5415 5.99703 1.231 11.5415 5.99703 1.231
66 2 11.465 5.93607 -2.02968 11.465 5.93607 -2.02968
67 1 12.4537 4.32006 -0.390909 12.4537 4.32006 -0.390909
68 2 14.3853 4.35728 1.20382 14.3853 4.35728 1.20382
69 2 14.3243 4.28294 -2.05689 14.3243 4.28294 -2.05689
70 1 15.3052 5.96612 -0.482012 15.3052 5.96612 -0.482012
71 2 17.225 5.99833 1.12702 17.225 5.99833 1.12702
72 2 17.188 5.93404 -2.13423 17.188 5.93404 -2.13423
73 1 18.1572 4.31975 -0.481936 18.1572 4.31975 -0.481936
74 2 20.0625 4.35844 1.14432 20.0625 4.35844 1.14432
75 2 20.0548 4.28128 -2.11687 20.0548 4.28128 -2.11687
76 1 21.0094 5.96602 -0.527572 21.0094 5.96602 -0.527572
77 2 22.8992 6.00032 1.11689 22.8992 6.00032 1.11689
78 2 22.9226 5.93196 -2.1444 22.9226 5.93196 -2.1444
79 1 23.8615 4.31993 -0.472352 23.8615 4.31993 -0.472352
80 2 25.7365 4.36002 1.18874 25.7365 4.36002 1.18874
81 2 25.7889 4.28014 -2.07198 25.7889 4.28014 -2.07198
82 1 26.7135 5.96638 -0.466786 26.7135 5.96638 -0.466786
83 2 28.5768 6.00241 1.20752 28.5768 6.00241 1.20752
84 2 28.6521 5.93066 -2.05294 28.6521 5.93066 -2.05294
85 1 29.5647 4.32058 -0.364447 29.5647 4.32058 -0.364447
86 2 31.421 4.36144 1.31731 31.421 4.36144 1.31731
87 2 31.5096 4.28002 -1.94263 31.5096 4.28002 -1.94263
88 1 32.4159 5.96707 -0.328078 32.4159 5.96707 -0.328078
89 2 34.2704 6.00346 1.35573 34.2704 6.00346 1.35573
90 2 34.3625 5.9309 -1.90434 34.3625 5.9309 -1.90434
91 1 35.2665 4.32138 -0.210734 35.2665 4.32138 -0.210734
92 2 37.1258 4.36168 1.46754 37.1258 4.36168 1.46754
93 2 37.2085 4.2812 -1.79262 37.2085 4.2812 -1.79262
94 1 38.1177 5.96768 -0.179263 38.1177 5.96768 -0.179263
95 2 39.9852 6.00261 1.4898 39.9852 6.00261 1.4898
96 2 40.0518 5.93278 -1.77101 40.0518 5.93278 -1.77101
97 1 40.9687 4.32186 -0.0859144 40.9687 4.32186 -0.0859144
98 2 42.85 4.36054 1.5675 42.85 4.36054 1.5675
99 2 42.8896 4.28306 -1.69357 42.8896 4.28306 -1.69357
100 1 43.8204 5.96787 -0.0908426 43.8204 5.96787 -0.0908426
101 2 45.7152 6.00041 1.54702 45.7152 6.00041 1.54702
102 2 45.7279 5.93518 -1.71457 45.7279 5.93518 -1.71457
103 1 46.6721 4.32179 -0.0471874 46.6721 4.32179 -0.0471874
104 2 48.5827 4.35883 1.57202 48.5827 4.35883 1.57202
105 2 48.5637 4.28454 -1.68933 48.5637 4.28454 -1.68933
106 1 49.5237 5.96759 -0.101994 49.5237 5.96759 -0.101994
107 2 51.4467 5.99815 1.50258 51.4467 5.99815 1.50258
108 2 51.4026 5.93687 -1.75881 51.4026 5.93687 -1.75881
109 1 1.04943 7.6135 -0.172192 1.04943 7.6135 -0.172192
110 2 2.98213 7.63614 1.42079 2.98213 7.63614 1.42079
111 2 2.91822 7.59077 -1.84052 2.91822 7.59077 -1.84052
112 1 3.90046 9.25959 -0.251664 3.90046 9.25959 -0.251664
113 2 5.83947 9.27358 1.33379 5.83947 9.27358 1.33379
114 2 5.76269 9.24557 -1.9274 5.76269 9.24557 -1.9274
115 1 6.75139 7.61306 -0.305205 6.75139 7.61306 -0.305205
116 2 8.69303 7.63561 1.27712 8.69303 7.63561 1.27712
117 2 8.61102 7.59053 -1.98372 8.61102 7.59053 -1.98372
118 1 9.60224 9.25931 -0.400186 9.60224 9.25931 -0.400186
119 2 11.5413 9.27409 1.1855 11.5413 9.27409 1.1855
120 2 11.4648 9.24457 -2.07561 11.4648 9.24457 -2.07561
121 1 12.4535 7.61268 -0.452611 12.4535 7.61268 -0.452611
122 2 14.3851 7.63669 1.14225 14.3851 7.63669 1.14225
123 2 14.324 7.58874 -2.11893 14.324 7.58874 -2.11893
124 1 15.305 9.2591 -0.530523 15.305 9.2591 -0.530523
125 2 17.2256 9.27614 1.07792 17.2256 9.27614 1.07792
126 2 17.1872 9.24214 -2.18374 17.1872 9.24214 -2.18374
127 1 18.1571 7.61245 -0.547003 18.1571 7.61245 -0.547003
128 2 20.0628 7.63888 1.07905 20.0628 7.63888 1.07905
129 2 20.0545 7.58617 -2.18257 20.0545 7.58617 -2.18257
130 1 21.0094 9.25903 -0.580898 21.0094 9.25903 -0.580898
131 2 22.9 9.27907 1.06282 22.9 9.27907 1.06282
132 2 22.9219 9.23912 -2.19891 22.9219 9.23912 -2.19891
133 1 23.8617 7.61253 -0.541538 23.8617 7.61253 -0.541538
134 2 25.737 7.64151 1.11948 25.737 7.64151 1.11948
135 2 25.7889 7.58379 -2.14168 25.7889 7.58379 -2.14168
136 1 26.7138 9.25921 -0.525195 26.7138 9.25921 -0.525195
137 2 28.5775 9.28184 1.14888 28.5775 9.28184 1.14888
138 2 28.652 9.23678 -2.11205 28.652 9.23678 -2.11205
139 1 29.5651 7.61297 -0.437096 29.5651 7.61297 -0.437096
140 2 31.4211 7.64348 1.24531 31.4211 7.64348 1.24531
141 2 31.5105 7.58272 -2.01504 31.5105 7.58272 -2.01504
142 1 32.4164 9.25962 -0.389622 32.4164 9.25962 -0.389622
143 2 34.2701 9.28302 1.29519 34.2701 9.28302 1.29519
144 2 34.3637 9.23641 -1.96531 34.3637 9.23641 -1.96531
145 1 35.267 7.61356 -0.284241 35.267 7.61356 -0.284241
146 2 37.1248 7.64351 1.39587 37.1248 7.64351 1.39587
147 2 37.2104 7.58376 -1.86468 37.2104 7.58376 -1.86468
148 1 38.1181 9.26002 -0.239828 38.1181 9.26002 -0.239828
149 2 39.9836 9.28163 1.43162 39.9836 9.28163 1.43162
150 2 40.054 9.23844 -1.82959 40.054 9.23844 -1.82959
151 1 40.9691 7.61393 -0.156693 40.9691 7.61393 -0.156693
152 2 42.848 7.64137 1.49941 42.848 7.64137 1.49941
153 2 42.892 7.58643 -1.76211 42.892 7.58643 -1.76211
154 1 43.8206 9.26012 -0.146546 43.8206 9.26012 -0.146546
155 2 45.7129 9.27838 1.49426 45.7129 9.27838 1.49426
156 2 45.7303 9.24175 -1.76778 45.7303 9.24175 -1.76778
157 1 46.6721 7.61386 -0.113289 46.6721 7.61386 -0.113289
158 2 48.5806 7.63837 1.50856 48.5806 7.63837 1.50856
159 2 48.5657 7.58921 -1.75332 48.5657 7.58921 -1.75332
160 1 49.5237 9.25991 -0.151825 49.5237 9.25991 -0.151825
161 2 51.4447 9.27514 1.45521 51.4447 9.27514 1.45521
162 2 51.4044 9.24456 -1.80669 51.4044 9.24456 -1.80669
163 1 1.04942 10.9061 -0.203193 1.04942 10.9061 -0.203193
164 2 2.9807 10.9116 1.3916 2.9807 10.9116 1.3916
165 2 2.91962 10.9005 -1.87008 2.91962 10.9005 -1.87008
166 1 3.90054 12.5524 -0.262853 3.90054 12.5524 -0.262853
167 2 5.83892 12.5483 1.32341 5.83892 12.5483 1.32341
168 2 5.76342 12.5564 -1.93793 5.76342 12.5564 -1.93793
169 1 6.75135 10.9059 -0.333562 6.75135 10.9059 -0.333562
170 2 8.69279 10.9111 1.24911 8.69279 10.9111 1.24911
171 2 8.61117 10.9007 -2.01203 8.61117 10.9007 -2.01203
172 1 9.6023 12.5524 -0.410694 9.6023 12.5524 -0.410694
173 2 11.5419 12.5491 1.17437 11.5419 12.5491 1.17437
174 2 11.4642 12.5558 -2.08683 11.4642 12.5558 -2.08683
175 1 12.4534 10.9058 -0.482457 12.4534 10.9058 -0.482457
176 2 14.3857 10.9127 1.11168 14.3857 10.9127 1.11168
177 2 14.3232 10.899 -2.14979 14.3232 10.899 -2.14979
178 1 15.305 12.5525 -0.544327 15.305 12.5525 -0.544327
179 2 17.2269 12.5515 1.06261 17.2269 12.5515 1.06261
180 2 17.1859 12.5534 -2.19919 17.1859 12.5534 -2.19919
181 1 18.1571 10.9057 -0.581372 18.1571 10.9057 -0.581372
182 2 20.064 10.9155 1.04342 20.064 10.9155 1.04342
183 2 20.0533 10.896 -2.21854 20.0533 10.896 -2.21854
184 1 21.0094 12.5525 -0.600618 21.0094 12.5525 -0.600618
185 2 22.9017 12.5549 1.04133 22.9017 12.5549 1.04133
186 2 22.9203 12.5501 -2.22064 22.9203 12.5501 -2.22064
187 1 23.8618 10.9058 -0.581929 23.8618 10.9058 -0.581929
188 2 25.7383 10.9188 1.07801 25.7383 10.9188 1.07801
189 2 25.788 10.8928 -2.18357 25.788 10.8928 -2.18357
190 1 26.7139 12.5525 -0.551466 26.7139 12.5525 -0.551466
191 2 28.5788 12.558 1.12147 28.5788 12.558 1.12147
192 2 28.6512 12.5472 -2.13979 28.6512 12.5472 -2.13979
193 1 29.5654 10.9059 -0.482702 29.5654 10.9059 -0.482702
194 2 31.4217 10.9211 1.19964 31.4217 10.9211 1.19964
195 2 31.5107 10.891 -2.06114 31.5107 10.891 -2.06114
196 1 32.4167 12.5527 -0.420145 32.4167 12.5527 -0.420145
197 2 34.2703 12.5592 1.26503 34.2703 12.5592 1.26503
198 2 34.3642 12.5462 -1.99576 34.3642 12.5462 -1.99576
199 1 35.2674 10.9062 -0.331479 35.2674 10.9062 -0.331479
200 2 37.124 10.921 1.35018 37.124 10.921 1.35018
201 2 37.212 10.8916 -1.91072 37.212 10.8916 -1.91072
202 1 38.1184 12.5528 -0.269629 38.1184 12.5528 -0.269629
203 2 39.9822 12.5576 1.40389 39.9822 12.5576 1.40389
204 2 40.056 12.5479 -1.85752 40.056 12.5479 -1.85752
205 1 40.9693 10.9064 -0.200505 40.9693 10.9064 -0.200505
206 2 42.846 10.9182 1.45839 42.846 10.9182 1.45839
207 2 42.8945 10.8945 -1.80345 42.8945 10.8945 -1.80345
208 1 43.8207 12.5527 -0.170584 43.8207 12.5527 -0.170584
209 2 45.7106 12.5538 1.47313 45.7106 12.5538 1.47313
210 2 45.7329 12.5514 -1.78911 45.7329 12.5514 -1.78911
211 1 46.6722 10.9063 -0.150449 46.6722 10.9063 -0.150449
212 2 48.5783 10.9143 1.47427 48.5783 10.9143 1.47427
213 2 48.5681 10.8981 -1.78798 48.5681 10.8981 -1.78798
214 1 49.5237 12.5525 -0.168279 49.5237 12.5525 -0.168279
215 2 51.4428 12.55 1.44109 51.4428 12.55 1.44109
216 2 51.4064 12.5548 -1.821 51.4064 12.5548 -1.821
217 1 1.04957 14.1988 -0.198379 1.04957 14.1988 -0.198379
218 2 2.97967 14.1863 1.39781 2.97967 14.1863 1.39781
219 2 2.921 14.2111 -1.86384 2.921 14.2111 -1.86384
220 1 3.90082 15.8451 -0.237798 3.90082 15.8451 -0.237798
221 2 5.83889 15.8238 1.34872 5.83889 15.8238 1.34872
222 2 5.76404 15.8664 -1.91237 5.76404 15.8664 -1.91237
223 1 6.75154 14.1988 -0.325388 6.75154 14.1988 -0.325388
224 2 8.69317 14.186 1.257 8.69317 14.186 1.257
225 2 8.61116 14.2117 -2.00405 8.61116 14.2117 -2.00405
226 1 9.60259 15.8454 -0.384548 9.60259 15.8454 -0.384548
227 2 11.5431 15.8246 1.19928 11.5431 15.8246 1.19928
228 2 11.4636 15.8663 -2.06162 11.4636 15.8663 -2.06162
229 1 12.4535 14.1991 -0.475648 12.4535 14.1991 -0.475648
230 2 14.3871 14.1877 1.11701 14.3871 14.1877 1.11701
231 2 14.3221 14.2105 -2.14436 14.3221 14.2105 -2.14436
232 1 15.3052 15.8458 -0.521195 15.3052 15.8458 -0.521195
233 2 17.2287 15.827 1.0836 17.2287 15.827 1.0836
234 2 17.1842 15.8646 -2.17795 17.1842 15.8646 -2.17795
235 1 18.1571 14.1992 -0.579356 18.1571 14.1992 -0.579356
236 2 20.0658 14.1907 1.04331 20.0658 14.1907 1.04331
237 2 20.0515 14.2078 -2.21865 20.0515 14.2078 -2.21865
238 1 21.0094 15.846 -0.583266 21.0094 15.846 -0.583266
239 2 22.9038 15.8302 1.05619 22.9038 15.8302 1.05619
240 2 22.9182 15.8618 -2.20567 22.9182 15.8618 -2.20567
241 1 23.8618 14.1993 -0.586664 23.8618 14.1993 -0.586664
242 2 25.7401 14.1941 1.07128 25.7401 14.1941 1.07128
243 2 25.7863 14.2045 -2.19043 25.7863 14.2045 -2.19043
244 1 26.7139 15.846 -0.540868 26.7139 15.846 -0.540868
245 2 28.5805 15.8331 1.13012 28.5805 15.8331 1.13012
246 2 28.6495 15.8589 -2.13113 28.6495 15.8589 -2.13113
247 1 29.5656 14.1993 -0.493553 29.5656 14.1993 -0.493553
248 2 31.4227 14.1964 1.18788 31.4227 14.1964 1.18788
249 2 31.51 14.2022 -2.07307 31.51 14.2022 -2.07307
250 1 32.4168 15.8458 -0.414308 32.4168 15.8458 -0.414308
251 2 34.2708 15.8343 1.27035 34.2708 15.8343 1.27035
252 2 34.3639 15.8574 -1.99041 34.3639 15.8574 -1.99041
253 1 35.2677 14.1992 -0.344665 35.2677 14.1992 -0.344665
254 2 37.1235 14.1963 1.33786 37.1235 14.1963 1.33786
255 2 37.2129 14.2022 -1.92313 37.2129 14.2022 -1.92313
256 1 38.1185 15.8456 -0.263744 38.1185 15.8456 -0.263744
257 2 39.9812 15.8329 1.41103 39.9812 15.8329 1.41103
258 2 40.0572 15.8583 -1.85024 40.0572 15.8583 -1.85024
259 1 40.9695 14.1991 -0.210407 40.9695 14.1991 -0.210407
260 2 42.8441 14.1934 1.45085 42.8441 14.1934 1.45085
261 2 42.8966 14.2047 -1.811 42.8966 14.2047 -1.811
262 1 43.8208 15.8453 -0.15928 43.8208 15.8453 -0.15928
263 2 45.7087 15.8292 1.48673 45.7087 15.8292 1.48673
264 2 45.735 15.8612 -1.77531 45.735 15.8612 -1.77531
265 1 46.6723 14.1989 -0.152956 46.6723 14.1989 -0.152956
266 2 48.5762 14.1893 1.47435 48.5762 14.1893 1.47435
267 2 48.5704 14.2084 -1.78789 48.5704 14.2084 -1.78789
268 1 49.5239 15.8451 -0.149064 49.5239 15.8451 -0.149064
269 2 51.4414 15.8255 1.46215 51.4414 15.8255 1.46215
270 2 51.4083 15.8645 -1.79973 51.4083 15.8645 -1.79973
271 1 1.04984 17.4912 -0.158894 1.04984 17.4912 -0.158894
272 2 2.97915 17.4631 1.43811 2.97915 17.4631 1.43811
273 2 2.92216 17.5193 -1.82317 2.92216 17.5193 -1.82317
274 1 3.90123 19.1375 -0.180851 3.90123 19.1375 -0.180851
275 2 5.83936 19.1025 1.40542 5.83936 19.1025 1.40542
276 2 5.76444 19.1724 -1.85519 5.76444 19.1724 -1.85519
277 1 6.75194 17.4915 -0.282282 6.75194 17.4915 -0.282282
278 2 8.69406 17.4627 1.29931 8.69406 17.4627 1.29931
279 2 8.61103 17.5203 -1.96131 8.61103 17.5203 -1.96131
280 1 9.60305 19.138 -0.326186 9.60305 19.138 -0.326186
281 2 11.5447 19.1032 1.2561 11.5447 19.1032 1.2561
282 2 11.4628 19.1729 -2.00428 11.4628 19.1729 -2.00428
283 1 12.4538 17.492 -0.4334 12.4538 17.492 -0.4334
284 2 14.3888 17.4643 1.15733 14.3888 17.4643 1.15733
285 2 14.3209 17.5198 -2.1036 14.3209 17.5198 -2.1036
286 1 15.3055 19.1386 -0.464924 15.3055 19.1386 -0.464924
287 2 17.2307 19.105 1.13754 17.2307 19.105 1.13754
288 2 17.1826 19.1723 -2.12352 17.1826 19.1723 -2.12352
289 1 18.1572 17.4925 -0.541168 18.1572 17.4925 -0.541168
290 2 20.0679 17.4669 1.07892 20.0679 17.4669 1.07892
291 2 20.0495 17.518 -2.18269 20.0495 17.518 -2.18269
292 1 21.0095 19.139 -0.531438 21.0095 19.139 -0.531438
293 2 22.9059 19.1075 1.10527 22.9059 19.1075 1.10527
294 2 22.916 19.1706 -2.15618 22.916 19.1706 -2.15618
295 1 23.8618 17.4926 -0.554542 23.8618 17.4926 -0.554542
296 2 25.7422 17.4698 1.1008 25.7422 17.4698 1.1008
297 2 25.7841 17.5154 -2.16068 25.7841 17.5154 -2.16068
298 1 26.7138 19.1391 -0.494667 26.7138 19.1391 -0.494667
299 2 28.5824 19.1098 1.17385 28.5824 19.1098 1.17385
300 2 28.6474 19.1683 -2.08709 28.6474 19.1683 -2.08709
301 1 29.5655 17.4925 -0.46735 29.5655 17.4925 -0.46735
302 2 31.4241 17.4719 1.21237 31.4241 17.4719 1.21237
303 2 31.5086 17.513 -2.04841 31.5086 17.513 -2.04841
304 1 32.4167 19.1387 -0.372617 32.4167 19.1387 -0.372617
305 2 34.2718 19.1109 1.31066 34.2718 19.1109 1.31066
306 2 34.3627 19.1665 -1.94978 34.3627 19.1665 -1.94978
307 1 35.2677 17.4922 -0.321295 35.2677 17.4922 -0.321295
308 2 37.1235 17.4719 1.36111 37.1235 17.4719 1.36111
309 2 37.2129 17.5123 -1.89963 37.2129 17.5123 -1.89963
310 1 38.1185 19.1382 -0.222858 38.1185 19.1382 -0.222858
311 2 39.9808 19.1099 1.45209 39.9808 19.1099 1.45209
312 2 40.0574 19.1664 -1.80876 40.0574 19.1664 -1.80876
313 1 40.9696 17.4918 -0.184733 40.9696 17.4918 -0.184733
314 2 42.8428 17.4695 1.47794 42.8428 17.4695 1.47794
315 2 42.898 17.5139 -1.78356 42.898 17.5139 -1.78356
316 1 43.8208 19.1377 -0.114435 43.8208 19.1377 -0.114435
317 2 45.7075 19.107 1.53285 45.7075 19.107 1.53285
318 2 45.7363 19.1682 -1.72872 45.7363 19.1682 -1.72872
319 1 46.6724 17.4914 -0.12063 46.6724 17.4914 -0.12063
320 2 48.5746 17.4658 1.50853 48.5746 17.4658 1.50853
321 2 48.5722 17.5168 -1.75336 48.5722 17.5168 -1.75336
322 1 49.5241 19.1374 -0.0975053 49.5241 19.1374 -0.0975053
323 2 51.4405 19.1039 1.51478 51.4405 19.1039 1.51478
324 2 51.4096 19.1707 -1.74665 51.4096 19.1707 -1.74665
325 1 1.05016 20.7833 -0.0913336 1.05016 20.7833 -0.0913336
326 2 2.97925 20.7441 1.50581 2.97925 20.7441 1.50581
327 2 2.92284 20.8225 -1.75498 2.92284 20.8225 -1.75498
328 1 3.90169 22.4294 -0.101477 3.90169 22.4294 -0.101477
329 2 5.84028 22.3866 1.48415 5.84028 22.3866 1.48415
330 2 5.76452 22.4722 -1.77605 5.76452 22.4722 -1.77605
331 1 6.75246 20.7837 -0.211471 6.75246 20.7837 -0.211471
332 2 8.69531 20.7438 1.36905 8.69531 20.7438 1.36905
333 2 8.61081 20.8237 -1.89107 8.61081 20.8237 -1.89107
334 1 9.60361 22.43 -0.245333 9.60361 22.43 -0.245333
335 2 11.5463 22.387 1.33545 11.5463 22.387 1.33545
336 2 11.4622 22.4732 -1.9245 11.4622 22.4732 -1.9245
337 1 12.4543 20.7844 -0.362737 12.4543 20.7844 -0.362737
338 2 14.3906 20.745 1.22606 14.3906 20.745 1.22606
339 2 14.3198 20.824 -2.03436 14.3198 20.824 -2.03436
340 1 15.3058 22.4308 -0.384863 15.3058 22.4308 -0.384863
341 2 17.2326 22.3882 1.21557 17.2326 22.3882 1.21557
342 2 17.1813 22.4737 -2.04505 17.1813 22.4737 -2.04505
343 1 18.1574 20.7851 -0.473036 18.1574 20.7851 -0.473036
344 2 20.07 20.7468 1.14457 20.07 20.7468 1.14457
345 2 20.0476 20.8235 -2.11656 20.0476 20.8235 -2.11656
346 1 21.0095 22.4314 -0.453699 21.0095 22.4314 -0.453699
347 2 22.9078 22.3895 1.18059 22.9078 22.3895 1.18059
348 2 22.914 22.4734 -2.08046 22.914 22.4734 -2.08046
349 1 23.8617 20.7854 -0.490613 23.8617 20.7854 -0.490613
350 2 25.7442 20.7488 1.16204 25.7442 20.7488 1.16204
351 2 25.7818 20.822 -2.09903 25.7818 20.822 -2.09903
352 1 26.7135 22.4315 -0.420432 26.7135 22.4315 -0.420432
353 2 28.5841 22.3909 1.24558 28.5841 22.3909 1.24558
354 2 28.6451 22.4721 -2.01498 28.6451 22.4721 -2.01498
355 1 29.5653 20.7852 -0.408085 29.5653 20.7852 -0.408085
356 2 31.4256 20.7503 1.2694 31.4256 20.7503 1.2694
357 2 31.5065 20.8201 -1.991 31.5065 20.8201 -1.991
358 1 32.4163 22.4311 -0.301886 32.4163 22.4311 -0.301886
359 2 34.273 22.3916 1.37944 34.273 22.3916 1.37944
360 2 34.3608 22.4705 -1.88061 34.3608 22.4705 -1.88061
361 1 35.2674 20.7847 -0.264938 35.2674 20.7847 -0.264938
362 2 37.1241 20.7504 1.41639 37.1241 20.7504 1.41639
363 2 37.2119 20.8188 -1.84391 37.2119 20.8188 -1.84391
364 1 38.1182 22.4304 -0.153581 38.1182 22.4304 -0.153581
365 2 39.9812 22.3911 1.52049 39.9812 22.3911 1.52049
366 2 40.0566 22.4695 -1.73991 40.0566 22.4695 -1.73991
367 1 40.9694 20.7841 -0.12748 40.9694 20.7841 -0.12748
368 2 42.8423 20.7488 1.53544 42.8423 20.7488 1.53544
369 2 42.8983 20.8191 -1.72556 42.8983 20.8191 -1.72556
370 1 43.8207 22.4297 -0.0432561 43.8207 22.4297 -0.0432561
371 2 45.7072 22.3894 1.60409 45.7072 22.3894 1.60409
372 2 45.7364 22.4698 -1.65702 45.7364 22.4698 -1.65702
373 1 46.6724 20.7835 -0.0587112 46.6724 20.7835 -0.0587112
374 2 48.5739 20.7461 1.57125 48.5739 20.7461 1.57125
375 2 48.5732 20.8207 -1.69015 48.5732 20.8207 -1.69015
376 1 49.5242 22.4293 -0.022042 49.5242 22.4293 -0.022042
377 2 51.4406 22.3875 1.59037 51.4406 22.3875 1.59037
378 2 51.4101 22.4709 -1.67064 51.4101 22.4709 -1.67064
379 1 1.05048 24.0752 -0.00690005 1.05048 24.0752 -0.00690005
380 2 2.98002 24.0315 1.58974 2.98002 24.0315 1.58974
381 2 2.92287 24.1188 -1.67078 2.92287 24.1188 -1.67078
382 1 3.90213 25.7212 -0.013023 3.90213 25.7212 -0.013023
383 2 5.84154 25.6779 1.57173 5.84154 25.6779 1.57173
384 2 5.76424 25.7646 -1.68838 5.76424 25.7646 -1.68838
385 1 6.75301 24.0756 -0.124795 6.75301 24.0756 -0.124795
386 2 8.69673 24.0313 1.45464 8.69673 24.0313 1.45464
387 2 8.61048 24.1199 -1.80521 8.61048 24.1199 -1.80521
388 1 9.60417 25.7218 -0.15564 9.60417 25.7218 -0.15564
389 2 11.5478 25.678 1.424 11.5478 25.678 1.424
390 2 11.4617 25.7658 -1.83587 11.4617 25.7658 -1.83587
391 1 12.4548 24.0764 -0.275499 12.4548 24.0764 -0.275499
392 2 14.3923 24.0319 1.31174 14.3923 24.0319 1.31174
393 2 14.3189 24.121 -1.94839 14.3189 24.121 -1.94839
394 1 15.3062 25.7227 -0.294624 15.3062 25.7227 -0.294624
395 2 17.2341 25.6783 1.30448 17.2341 25.6783 1.30448
396 2 17.1804 25.7672 -1.95605 17.1804 25.7672 -1.95605
397 1 18.1576 24.0771 -0.386435 18.1576 24.0771 -0.386435
398 2 20.0717 24.0326 1.22928 20.0717 24.0326 1.22928
399 2 20.0462 24.1218 -2.03156 20.0462 24.1218 -2.03156
400 1 21.0096 25.7232 -0.363416 21.0096 25.7232 -0.363416
401 2 22.9092 25.6784 1.26928 22.9092 25.6784 1.26928
402 2 22.9125 25.7683 -1.99167 22.9125 25.7683 -1.99167
403 1 23.8616 24.0775 -0.40569 23.8616 24.0775 -0.40569
404 2 25.7458 24.0334 1.24475 25.7458 24.0334 1.24475
405 2 25.7798 24.1217 -2.01604 25.7798 24.1217 -2.01604
406 1 26.7132 25.7234 -0.330998 26.7132 25.7234 -0.330998
407 2 28.5854 25.6785 1.33306 28.5854 25.6785 1.33306
408 2 28.643 25.7683 -1.92738 28.643 25.7683 -1.92738
409 1 29.5649 24.0773 -0.325791 29.5649 24.0773 -0.325791
410 2 31.4271 24.0341 1.34945 31.4271 24.0341 1.34945
411 2 31.5043 24.1205 -1.91067 31.5043 24.1205 -1.91067
412 1 32.4158 25.723 -0.214312 32.4158 25.723 -0.214312
413 2 34.2742 25.6788 1.46501 34.2742 25.6788 1.46501
414 2 34.3586 25.7671 -1.79489 34.3586 25.7671 -1.79489
415 1 35.267 24.0767 -0.185068 35.267 24.0767 -0.185068
416 2 37.1251 24.0343 1.49456 37.1251 24.0343 1.49456
417 2 37.2101 24.1191 -1.76542 37.2101 24.1191 -1.76542
418 1 38.1177 25.7223 -0.067698 38.1177 25.7223 -0.067698
419 2 39.9822 25.6788 1.60478 39.9822 25.6788 1.60478
420 2 40.0548 25.7656 -1.65544 40.0548 25.7656 -1.65544
421 1 40.9691 24.076 -0.0480921 40.9691 24.076 -0.0480921
422 2 42.8428 24.0336 1.61397 42.8428 24.0336 1.61397
423 2 42.8974 24.1181 -1.64668 42.8974 24.1181 -1.64668
424 1 43.8205 25.7215 0.0423346 43.8205 25.7215 0.0423346
425 2 45.708 25.6785 1.68862 45.708 25.6785 1.68862
426 2 45.7354 25.7644 -1.57231 45.7354 25.7644 -1.57231
427 1 46.6724 24.0754 0.0226437 46.6724 24.0754 0.0226437
428 2 48.5742 24.0324 1.65226 48.5742 24.0324 1.65226
429 2 48.5731 24.1181 -1.60881 48.5731 24.1181 -1.60881
430 1 49.5244 25.7211 0.064716 49.5244 25.7211 0.064716
431 2 51.4415 25.6781 1.67635 51.4415 25.6781 1.67635
432 2 51.4097 25.764 -1.58453 51.4097 25.764 -1.58453
433 1 1.05075 27.3671 0.0800904 1.05075 27.3671 0.0800904
434 2 2.98135 27.3264 1.67571 2.98135 27.3264 1.67571
435 2 2.92224 27.4077 -1.58489 2.92224 27.4077 -1.58489
436 1 3.9025 29.0133 0.0693576 3.9025 29.0133 0.0693576
437 2 5.84293 28.9769 1.65317 5.84293 28.9769 1.65317
438 2 5.76365 29.0498 -1.60721 5.76365 29.0498 -1.60721
439 1 6.75351 27.3674 -0.0369969 6.75351 27.3674 -0.0369969
440 2 8.6981 27.3265 1.54155 8.6981 27.3265 1.54155
441 2 8.6101 27.4085 -1.71841 8.6101 27.4085 -1.71841
442 1 9.60463 29.0138 -0.0725258 9.60463 29.0138 -0.0725258
443 2 11.549 28.9768 1.50652 11.549 28.9768 1.50652
444 2 11.4614 29.051 -1.75366 11.4614 29.051 -1.75366
445 1 12.4553 27.3682 -0.186603 12.4553 27.3682 -0.186603
446 2 14.3936 27.3264 1.39977 14.3936 27.3264 1.39977
447 2 14.3185 27.4101 -1.8605 14.3185 27.4101 -1.8605
448 1 15.3066 29.0145 -0.209848 15.3066 29.0145 -0.209848
449 2 17.2349 28.9762 1.38886 17.2349 28.9762 1.38886
450 2 17.1801 29.053 -1.87201 17.1801 29.053 -1.87201
451 1 18.1579 27.3689 -0.296349 18.1579 27.3689 -0.296349
452 2 20.0727 27.326 1.31846 20.0727 27.326 1.31846
453 2 20.0454 27.4119 -1.94252 20.0454 27.4119 -1.94252
454 1 21.0096 29.015 -0.276406 21.0096 29.015 -0.276406
455 2 22.9096 28.975 1.35585 22.9096 28.975 1.35585
456 2 22.9118 29.0552 -1.90541 22.9118 29.0552 -1.90541
457 1 23.8614 27.3692 -0.314612 23.8614 27.3692 -0.314612
458 2 25.7467 27.3254 1.33458 25.7467 27.3254 1.33458
459 2 25.7783 27.4132 -1.9263 25.7783 27.4132 -1.9263
460 1 26.7129 29.0151 -0.242115 26.7129 29.0151 -0.242115
461 2 28.586 28.9739 1.42097 28.586 28.9739 1.42097
462 2 28.6415 29.0564 -1.83974 28.6415 29.0564 -1.83974
463 1 29.5644 27.3691 -0.234863 29.5644 27.3691 -0.234863
464 2 31.4282 27.3251 1.43866 31.4282 27.3251 1.43866
465 2 31.5022 27.4131 -1.82151 31.5022 27.4131 -1.82151
466 1 32.4152 29.0148 -0.125221 32.4152 29.0148 -0.125221
467 2 34.2752 28.9735 1.55251 34.2752 28.9735 1.55251
468 2 34.3565 29.056 -1.70762 34.3565 29.056 -1.70762
469 1 35.2664 27.3686 -0.0955366 35.2664 27.3686 -0.0955366
470 2 37.1263 27.3253 1.58223 37.1263 27.3253 1.58223
471 2 37.208 27.4117 -1.67778 37.208 27.4117 -1.67778
472 1 38.1172 29.0142 0.019883 38.1172 29.0142 0.019883
473 2 39.9836 28.9741 1.69044 39.9836 28.9741 1.69044
474 2 40.0526 29.0542 -1.57 40.0526 29.0542 -1.57
475 1 40.9687 27.3678 0.0398285 40.9687 27.3678 0.0398285
476 2 42.844 27.3257 1.70021 42.844 27.3257 1.70021
477 2 42.8956 27.4098 -1.56045 42.8956 27.4098 -1.56045
478 1 43.8203 29.0135 0.127577 43.8203 29.0135 0.127577
479 2 45.7097 28.9752 1.77197 45.7097 28.9752 1.77197
480 2 45.7335 29.0517 -1.48917 45.7335 29.0517 -1.48917
481 1 46.6723 27.3672 0.10962 46.6723 27.3672 0.10962
482 2 48.5755 27.3261 1.7379 48.5755 27.3261 1.7379
483 2 48.5719 27.4082 -1.52321 48.5719 27.4082 -1.52321
484 1 49.5244 29.0132 0.147889 49.5244 29.0132 0.147889
485 2 51.4431 28.9764 1.75802 51.4431 28.9764 1.75802
486 2 51.4084 29.05 -1.50309 51.4084 29.05 -1.50309
487 1 1.05096 30.6595 0.154641 1.05096 30.6595 0.154641
488 2 2.98301 30.6288 1.74887 2.98301 30.6288 1.74887
489 2 2.92111 30.6901 -1.51208 2.92111 30.6901 -1.51208
490 1 3.90273 32.306 0.131429 3.90273 32.306 0.131429
491 2 5.84424 32.2828 1.71428 5.84424 32.2828 1.71428
492 2 5.76284 32.3291 -1.54652 5.76284 32.3291 -1.54652
493 1 6.75387 30.6597 0.0367692 6.75387 30.6597 0.0367692
494 2 8.6992 30.6291 1.61473 8.6992 30.6291 1.61473
495 2 8.60973 30.6904 -1.64564 8.60973 30.6904 -1.64564
496 1 9.60491 32.3063 -0.0104338 9.60491 32.3063 -0.0104338
497 2 11.5495 32.2825 1.56857 11.5495 32.2825 1.56857
498 2 11.4614 32.3301 -1.6921 11.4614 32.3301 -1.6921
499 1 12.4557 30.6603 -0.111472 12.4557 30.6603 -0.111472
500 2 14.3943 30.6285 1.4748 14.3943 30.6285 1.4748
501 2 14.3184 30.6922 -1.78594 14.3184 30.6922 -1.78594
502 1 15.3068 32.3067 -0.145317 15.3068 32.3067 -0.145317
503 2 17.2348 32.2811 1.45389 17.2348 32.2811 1.45389
504 2 17.1804 32.3325 -1.80752 17.1804 32.3325 -1.80752
505 1 18.158 30.6608 -0.218526 18.158 30.6608 -0.218526
506 2 20.0728 30.6271 1.39645 20.0728 30.6271 1.39645
507 2 20.0453 30.6947 -1.865 20.0453 30.6947 -1.865
508 1 21.0096 32.3071 -0.207923 21.0096 32.3071 -0.207923
509 2 22.9092 32.279 1.42501 22.9092 32.279 1.42501
510 2 22.912 32.3353 -1.83679 22.912 32.3353 -1.83679
511 1 23.8612 30.6611 -0.233419 23.8612 30.6611 -0.233419
512 2 25.7467 30.6253 1.41571 25.7467 30.6253 1.41571
513 2 25.7777 30.6971 -1.84562 25.7777 30.6971 -1.84562
514 1 26.7125 32.3072 -0.169415 26.7125 32.3072 -0.169415
515 2 28.5857 32.2768 1.49384 28.5857 32.2768 1.49384
516 2 28.641 32.3376 -1.76738 28.641 32.3376 -1.76738
517 1 29.5639 30.661 -0.15128 29.5639 30.661 -0.15128
518 2 31.4286 30.624 1.52142 31.4286 30.624 1.52142
519 2 31.5007 30.6981 -1.73916 31.5007 30.6981 -1.73916
520 1 32.4147 32.3069 -0.0501658 32.4147 32.3069 -0.0501658
521 2 34.2757 32.2758 1.62667 34.2757 32.2758 1.62667
522 2 34.355 32.3381 -1.63396 34.355 32.3381 -1.63396
523 1 35.2659 30.6605 -0.0119477 35.2659 30.6605 -0.0119477
524 2 37.1274 30.624 1.66415 37.1274 30.624 1.66415
525 2 37.2058 30.6971 -1.59625 37.2058 30.6971 -1.59625
526 1 38.1167 32.3065 0.0939552 38.1167 32.3065 0.0939552
527 2 39.9851 32.2767 1.76254 39.9851 32.2767 1.76254
528 2 40.0503 32.3362 -1.49839 40.0503 32.3362 -1.49839
529 1 40.9683 30.66 0.121012 40.9683 30.66 0.121012
530 2 42.8458 30.6254 1.77922 42.8458 30.6254 1.77922
531 2 42.8933 30.6945 -1.48181 42.8933 30.6945 -1.48181
532 1 43.82 32.3061 0.197671 43.82 32.3061 0.197671
533 2 45.7119 32.2791 1.8396 45.7119 32.2791 1.8396
534 2 45.7311 32.333 -1.42198 45.7311 32.333 -1.42198
535 1 46.6723 30.6595 0.187161 46.6723 30.6595 0.187161
536 2 48.5775 30.6274 1.81336 48.5775 30.6274 1.81336
537 2 48.57 30.6917 -1.44809 48.57 30.6917 -1.44809
538 1 49.5245 32.3059 0.213079 49.5245 32.3059 0.213079