ITEM: TIMESTEP
51000
ITEM: NUMBER OF ATOMS
810
ITEM: BOX BOUNDS pp pp pp
8.4215944382686503e-01 5.2175445556172114e+01
8.1099459383530059e-01 5.0205220406164187e+01
-1.0000000000000000e+01 1.0000000000000000e+01
ITEM: ATOMS id type x y z xu yu zu
1 1 1.04574 1.02531 -0.137289 1.04574 1.02531 -0.137289
2 2 2.95204 1.0391 1.48778 2.95204 1.0391 1.48778
3 2 2.9419 1.01154 -1.77428 2.9419 1.01154 -1.77428
4 1 3.89758 2.67176 -0.160154 3.89758 2.67176 -0.160154
5 2 5.80557 2.68582 1.46292 5.80557 2.68582 1.46292
6 2 5.79204 2.65772 -1.79912 5.79204 2.65772 -1.79912
7 1 6.74943 1.02531 -0.15785 6.74943 1.02531 -0.15785
8 2 8.658 1.04016 1.46457 8.658 1.04016 1.46457
9 2 8.64331 1.01048 -1.79745 8.64331 1.01048 -1.79745
10 1 9.60125 2.67174 -0.18575 9.60125 2.67174 -0.18575
11 2 11.5097 2.68691 1.4368 11.5097 2.68691 1.4368
12 2 11.4952 2.65659 -1.82521 11.4952 2.65659 -1.82521
13 1 12.4531 1.02529 -0.183096 12.4531 1.02529 -0.183096
14 2 14.3604 1.04116 1.44084 14.3604 1.04116 1.44084
15 2 14.3483 1.00943 -1.82117 14.3483 1.00943 -1.82117
16 1 15.3049 2.67171 -0.20976 15.3049 2.67171 -0.20976
17 2 17.2105 2.68761 1.41622 17.2105 2.68761 1.41622
18 2 17.2019 2.65582 -1.8458 17.2019 2.65582 -1.8458
19 1 18.1568 1.02527 -0.201221 18.1568 1.02527 -0.201221
20 2 20.0603 1.04166 1.4272 20.0603 1.04166 1.4272
21 2 20.0558 1.00886 -1.83481 20.0558 1.00886 -1.83481
22 1 21.0087 2.67168 -0.221721 21.0087 2.67168 -0.221721
23 2 22.9096 2.68764 1.4097 22.9096 2.68764 1.4097
24 2 22.9102 2.65572 -1.85232 22.9102 2.65572 -1.85232
25 1 23.8605 1.02524 -0.204946 23.8605 1.02524 -0.204946
26 2 25.7594 1.04148 1.42891 25.7594 1.04148 1.42891
27 2 25.7642 1.00899 -1.8331 25.7642 1.00899 -1.8331
28 1 26.7124 2.67167 -0.217148 26.7124 2.67167 -0.217148
29 2 28.6086 2.687 1.41975 28.6086 2.687 1.41975
30 2 28.6187 2.65633 -1.84227 28.6187 2.65633 -1.84227
31 1 29.5642 1.02523 -0.192786 29.5642 1.02523 -0.192786
32 2 31.4591 1.04065 1.44563 31.4591 1.04065 1.44563
33 2 31.4718 1.0098 -1.81638 31.4718 1.0098 -1.81638
34 1 32.4161 2.67167 -0.197323 32.4161 2.67167 -0.197323
35 2 34.3094 2.68589 1.44295 34.3094 2.68589 1.44295
36 2 34.3252 2.65745 -1.81907 34.3252 2.65745 -1.81907
37 1 35.2679 1.02525 -0.169021 35.2679 1.02525 -0.169021
38 2 37.1616 1.03951 1.47077 37.1616 1.03951 1.47077
39 2 37.1766 1.01098 -1.79126 37.1766 1.01098 -1.79126
40 1 38.1198 2.6717 -0.170319 38.1198 2.6717 -0.170319
41 2 40.0138 2.68484 1.46904 40.0138 2.68484 1.46904
42 2 40.0281 2.65856 -1.79301 40.0281 2.65856 -1.79301
43 1 40.9716 1.02527 -0.144509 40.9716 1.02527 -0.144509
44 2 42.8679 1.03862 1.49225 42.8679 1.03862 1.49225
45 2 42.8777 1.01193 -1.76981 42.8777 1.01193 -1.76981
46 1 43.8234 2.67173 -0.14943 43.8234 2.67173 -0.14943
47 2 45.7219 2.68439 1.48484 45.7219 2.68439 1.48484
48 2 45.7275 2.65909 -1.77725 45.7275 2.65909 -1.77725
49 1 46.6753 1.0253 -0.131787 46.6753 1.0253 -0.131787
50 2 48.5767 1.03846 1.499 48.5767 1.03846 1.499
51 2 48.5764 1.01215 -1.76308 48.5764 1.01215 -1.76308
52 1 49.5272 2.67176 -0.145466 49.5272 2.67176 -0.145466
53 2 51.4312 2.68479 1.48223 51.4312 2.68479 1.48223
54 2 51.4256 2.65873 -1.77985 51.4256 2.65873 -1.77985
55 1 1.04572 4.31821 -0.163651 1.04572 4.31821 -0.163651
56 2 2.95221 4.33088 1.46118 2.95221 4.33088 1.46118
57 2 2.94169 4.30556 -1.8009 2.94169 4.30556 -1.8009
58 1 3.89755 5.96466 -0.185765 3.89755 5.96466 -0.185765
59 2 5.80583 5.97648 1.43696 5.80583 5.97648 1.43696
60 2 5.79172 5.95286 -1.82511 5.79172 5.95286 -1.82511
61 1 6.7494 4.3182 -0.186281 6.7494 4.3182 -0.186281
62 2 8.65824 4.33198 1.4358 8.65824 4.33198 1.4358
63 2 8.64301 4.30443 -1.82623 8.64301 4.30443 -1.82623
64 1 9.60121 5.96464 -0.213625 9.60121 5.96464 -0.213625
65 2 11.5098 5.97734 1.40873 11.5098 5.97734 1.40873
66 2 11.495 5.95195 -1.85332 11.495 5.95195 -1.85332
67 1 12.4531 4.31817 -0.213787 12.4531 4.31817 -0.213787
68 2 14.3604 4.33279 1.41006 14.3604 4.33279 1.41006
69 2 14.3482 4.30356 -1.85197 14.3482 4.30356 -1.85197
70 1 15.3049 5.96461 -0.239358 15.3049 5.96461 -0.239358
71 2 17.2103 5.97768 1.38683 17.2103 5.97768 1.38683
72 2 17.202 5.95154 -1.87524 17.202 5.95154 -1.87524
73 1 18.1568 4.31814 -0.233416 18.1568 4.31814 -0.233416
74 2 20.0599 4.33301 1.39537 20.0599 4.33301 1.39537
75 2 20.0561 4.30327 -1.86667 20.0561 4.30327 -1.86667
76 1 21.0086 5.96458 -0.251854 21.0086 5.96458 -0.251854
77 2 22.909 5.97738 1.38026 22.909 5.97738 1.38026
78 2 22.9108 5.95178 -1.88182 22.9108 5.95178 -1.88182
79 1 23.8605 4.31812 -0.237302 23.8605 4.31812 -0.237302
80 2 25.7586 4.33255 1.39741 25.7586 4.33255 1.39741
81 2 25.7649 4.30367 -1.86463 25.7649 4.30367 -1.86463
82 1 26.7124 5.96457 -0.246431 26.7124 5.96457 -0.246431
83 2 28.6077 5.97657 1.39154 28.6077 5.97657 1.39154
84 2 28.6196 5.95258 -1.87053 28.6196 5.95258 -1.87053
85 1 29.5643 4.31811 -0.223883 29.5643 4.31811 -0.223883
86 2 31.4581 4.33159 1.41574 31.4581 4.33159 1.41574
87 2 31.4729 4.30463 -1.8463 31.4729 4.30463 -1.8463
88 1 32.4161 5.96458 -0.224667 32.4161 5.96458 -0.224667
89 2 34.3084 5.97559 1.41681 34.3084 5.97559 1.41681
90 2 34.3263 5.95359 -1.84525 34.3263 5.95359 -1.84525
91 1 35.2679 4.31813 -0.197858 35.2679 4.31813 -0.197858
92 2 37.1606 4.33053 1.44316 37.1606 4.33053 1.44316
93 2 37.1777 4.30575 -1.81889 37.1777 4.30575 -1.81889
94 1 38.1198 5.96461 -0.195439 38.1198 5.96461 -0.195439
95 2 40.013 5.97486 1.44489 40.013 5.97486 1.44489
96 2 40.029 5.95438 -1.81719 40.029 5.95438 -1.81719
97 1 40.9716 4.31817 -0.171142 40.9716 4.31817 -0.171142
98 2 42.8672 4.32987 1.46648 42.8672 4.32987 1.46648
99 2 42.8785 4.30647 -1.79561 42.8785 4.30647 -1.79561
100 1 43.8234 5.96464 -0.173132 43.8234 5.96464 -0.173132
101 2 45.7215 5.97477 1.46159 45.7215 5.97477 1.46159
102 2 45.7279 5.95453 -1.80053 45.7279 5.95453 -1.80053
103 1 46.6753 4.3182 -0.157395 46.6753 4.3182 -0.157395
104 2 48.5765 4.33 1.47365 48.5765 4.33 1.47365
105 2 48.5766 4.30641 -1.78845 48.5766 4.30641 -1.78845
106 1 49.5272 5.96466 -0.169334 49.5272 5.96466 -0.169334
107 2 51.4313 5.97543 1.45825 51.4313 5.97543 1.45825
108 2 51.4255 5.95391 -1.80386 51.4255 5.95391 -1.80386
109 1 1.04571 7.61113 -0.185431 1.04571 7.61113 -0.185431
110 2 2.95246 7.62052 1.43908 2.95246 7.62052 1.43908
111 2 2.9414 7.60176 -1.82304 2.9414 7.60176 -1.82304
112 1 3.89753 9.25761 -0.204742 3.89753 9.25761 -0.204742
113 2 5.80607 9.26505 1.41768 5.80607 9.26505 1.41768
114 2 5.79142 9.25018 -1.84444 5.79142 9.25018 -1.84444
115 1 6.74937 7.61112 -0.210184 6.74937 7.61112 -0.210184
116 2 8.65842 7.62139 1.41164 8.65842 7.62139 1.41164
117 2 8.64275 7.60086 -1.85044 8.64275 7.60086 -1.85044
118 1 9.60118 9.2576 -0.234412 9.60118 9.2576 -0.234412
119 2 11.5098 9.26553 1.38791 11.5098 9.26553 1.38791
120 2 11.495 9.24967 -1.8742 11.495 9.24967 -1.8742
121 1 12.453 7.6111 -0.239494 12.453 7.6111 -0.239494
122 2 14.3603 7.62181 1.38442 14.3603 7.62181 1.38442
123 2 14.3482 7.60039 -1.87766 14.3482 7.60039 -1.87766
124 1 15.3049 9.25758 -0.261055 15.3049 9.25758 -0.261055
125 2 17.21 9.26545 1.36549 17.21 9.26545 1.36549
126 2 17.2023 9.24971 -1.89664 17.2023 9.24971 -1.89664
127 1 18.1568 7.61107 -0.259893 18.1568 7.61107 -0.259893
128 2 20.0595 7.62163 1.36941 20.0595 7.62163 1.36941
129 2 20.0565 7.60052 -1.8927 20.0565 7.60052 -1.8927
130 1 21.0086 9.25756 -0.273249 21.0086 9.25756 -0.273249
131 2 22.9084 9.26482 1.3596 22.9084 9.26482 1.3596
132 2 22.9114 9.25031 -1.90254 22.9114 9.25031 -1.90254
133 1 23.8605 7.61106 -0.263251 23.8605 7.61106 -0.263251
134 2 25.7579 7.62092 1.37237 25.7579 7.62092 1.37237
135 2 25.7657 7.6012 -1.88974 25.7657 7.6012 -1.88974
136 1 26.7124 9.25756 -0.266427 26.7124 9.25756 -0.266427
137 2 28.6069 9.26394 1.37248 28.6069 9.26394 1.37248
138 2 28.6204 9.25118 -1.88964 28.6204 9.25118 -1.88964
139 1 29.5643 7.61106 -0.248211 29.5643 7.61106 -0.248211
140 2 31.4572 7.62002 1.39249 31.4572 7.62002 1.39249
141 2 31.4738 7.6021 -1.8696 31.4738 7.6021 -1.8696
142 1 32.4161 9.25756 -0.242833 32.4161 9.25756 -0.242833
143 2 34.3077 9.26325 1.39951 34.3077 9.26325 1.39951
144 2 34.3271 9.25188 -1.8626 34.3271 9.25188 -1.8626
145 1 35.268 7.61108 -0.220163 35.268 7.61108 -0.220163
146 2 37.1598 7.6193 1.42182 37.1598 7.6193 1.42182
147 2 37.1786 7.60286 -1.84027 37.1786 7.60286 -1.84027
148 1 38.1198 9.25757 -0.212109 38.1198 9.25757 -0.212109
149 2 40.0125 9.26297 1.4288 40.0125 9.26297 1.4288
150 2 40.0295 9.25218 -1.83333 40.0295 9.25218 -1.83333
151 1 40.9716 7.6111 -0.191893 40.9716 7.6111 -0.191893
152 2 42.8667 7.61909 1.44629 42.8667 7.61909 1.44629
153 2 42.879 7.60312 -1.81584 42.879 7.60312 -1.81584
154 1 43.8235 9.25759 -0.189302 43.8235 9.25759 -0.189302
155 2 45.7214 9.2633 1.44555 45.7214 9.2633 1.44555
156 2 45.728 9.25189 -1.81662 45.728 9.25189 -1.81662
157 1 46.6753 7.61112 -0.177883 46.6753 7.61112 -0.177883
158 2 48.5764 7.61956 1.4532 48.5764 7.61956 1.4532
159 2 48.5766 7.60269 -1.80895 48.5766 7.60269 -1.80895
160 1 49.5271 9.2576 -0.186406 49.5271 9.2576 -0.186406
161 2 51.4315 9.26416 1.44091 51.4315 9.26416 1.44091
162 2 51.4252 9.25106 -1.82125 51.4252 9.25106 -1.82125
163 1 1.04569 10.9041 -0.198676 1.04569 10.9041 -0.198676
164 2 2.95275 10.9084 1.42547 2.95275 10.9084 1.42547
165 2 2.94107 10.8998 -1.83669 2.94107 10.8998 -1.83669
166 1 3.89751 12.5506 -0.213414 3.89751 12.5506 -0.213414
167 2 5.80629 12.5522 1.40873 5.80629 12.5522 1.40873
168 2 5.79116 12.549 -1.85342 5.79116 12.549 -1.85342
169 1 6.74934 10.9041 -0.22524 6.74934 10.9041 -0.22524
170 2 8.65853 10.909 1.39644 8.65853 10.909 1.39644
171 2 8.64259 10.8992 -1.86569 8.64259 10.8992 -1.86569
172 1 9.60116 12.5506 -0.244247 9.60116 12.5506 -0.244247
173 2 11.5098 12.5523 1.37815 11.5098 12.5523 1.37815
174 2 11.495 12.5489 -1.884 11.495 12.5489 -1.884
175 1 12.453 10.9041 -0.255566 12.453 10.9041 -0.255566
176 2 14.3602 10.909 1.36857 14.3602 10.909 1.36857
177 2 14.3483 10.8992 -1.89357 14.3483 10.8992 -1.89357
178 1 15.3049 12.5506 -0.27094 15.3049 12.5506 -0.27094
179 2 17.2096 12.5519 1.35602 17.2096 12.5519 1.35602
180 2 17.2026 12.5493 -1.90614 17.2026 12.5493 -1.90614
181 1 18.1567 10.9041 -0.27584 18.1567 10.9041 -0.27584
182 2 20.059 10.9084 1.35405 20.059 10.9084 1.35405
183 2 20.057 10.8997 -1.90812 20.057 10.8997 -1.90812
184 1 21.0086 12.5506 -0.282085 21.0086 12.5506 -0.282085
185 2 22.9078 12.5511 1.35145 22.9078 12.5511 1.35145
186 2 22.912 12.5501 -1.91073 22.912 12.5501 -1.91073
187 1 23.8605 10.9041 -0.277968 23.8605 10.9041 -0.277968
188 2 25.7572 10.9076 1.35847 25.7572 10.9076 1.35847
189 2 25.7664 10.9006 -1.90369 25.7664 10.9006 -1.90369
190 1 26.7124 12.5506 -0.273503 26.7124 12.5506 -0.273503
191 2 28.6064 12.5502 1.36605 28.6064 12.5502 1.36605
192 2 28.621 12.5509 -1.89609 28.621 12.5509 -1.89609
193 1 29.5643 10.9041 -0.261158 29.5643 10.9041 -0.261158
194 2 31.4566 10.9068 1.38028 31.4566 10.9068 1.38028
195 2 31.4744 10.9013 -1.88185 31.4744 10.9013 -1.88185
196 1 32.4161 12.5506 -0.248425 32.4161 12.5506 -0.248425
197 2 34.3073 12.5499 1.3943 34.3073 12.5499 1.3943
198 2 34.3274 12.5513 -1.86783 34.3274 12.5513 -1.86783
199 1 35.268 10.9041 -0.231694 35.268 10.9041 -0.231694
200 2 37.1594 10.9065 1.41079 37.1594 10.9065 1.41079
201 2 37.179 10.9016 -1.85134 37.179 10.9016 -1.85134
202 1 38.1198 12.5506 -0.21706 38.1198 12.5506 -0.21706
203 2 40.0124 12.5499 1.42395 40.0124 12.5499 1.42395
204 2 40.0296 12.5512 -1.8382 40.0296 12.5512 -1.8382
205 1 40.9716 10.9041 -0.202822 40.9716 10.9041 -0.202822
206 2 42.8666 10.9067 1.43551 42.8666 10.9067 1.43551
207 2 42.8791 10.9014 -1.82666 42.8791 10.9014 -1.82666
208 1 43.8235 12.5506 -0.194622 43.8235 12.5506 -0.194622
209 2 45.7216 12.5505 1.43997 45.7216 12.5505 1.43997
210 2 45.7278 12.5506 -1.82222 45.7278 12.5506 -1.82222
211 1 46.6753 10.9041 -0.189426 46.6753 10.9041 -0.189426
212 2 48.5766 10.9075 1.44141 48.5766 10.9075 1.44141
213 2 48.5764 10.9007 -1.82078 48.5764 10.9007 -1.82078
214 1 49.5271 12.5506 -0.193224 49.5271 12.5506 -0.193224
215 2 51.4319 12.5515 1.43365 51.4319 12.5515 1.43365
216 2 51.4248 12.5497 -1.82854 51.4248 12.5497 -1.82854
217 1 1.04568 14.1971 -0.200448 1.04568 14.1971 -0.200448
218 2 2.95313 14.1952 1.42325 2.95313 14.1952 1.42325
219 2 2.94067 14.1989 -1.83891 2.94067 14.1989 -1.83891
220 1 3.8975 15.8436 -0.209649 3.8975 15.8436 -0.209649
221 2 5.80656 15.8388 1.41217 5.80656 15.8388 1.41217
222 2 5.79088 15.8484 -1.84997 5.79088 15.8484 -1.84997
223 1 6.74932 14.1971 -0.228408 6.74932 14.1971 -0.228408
224 2 8.65861 14.1955 1.39317 8.65861 14.1955 1.39317
225 2 8.64248 14.1987 -1.86897 8.64248 14.1987 -1.86897
226 1 9.60115 15.8436 -0.241084 9.60115 15.8436 -0.241084
227 2 11.5097 15.8387 1.38136 11.5097 15.8387 1.38136
228 2 11.495 15.8485 -1.88078 11.495 15.8485 -1.88078
229 1 12.453 14.1971 -0.25901 12.453 14.1971 -0.25901
230 2 14.3599 14.1953 1.36537 14.3599 14.1953 1.36537
231 2 14.3485 14.199 -1.89679 14.3485 14.199 -1.89679
232 1 15.3049 15.8437 -0.267232 15.3049 15.8437 -0.267232
233 2 17.2093 15.8382 1.36005 17.2093 15.8382 1.36005
234 2 17.2029 15.8491 -1.9021 17.2029 15.8491 -1.9021
235 1 18.1567 14.1971 -0.278462 18.1567 14.1971 -0.278462
236 2 20.0586 14.1946 1.35194 20.0586 14.1946 1.35194
237 2 20.0574 14.1997 -1.91023 20.0574 14.1997 -1.91023
238 1 21.0086 15.8437 -0.27696 21.0086 15.8437 -0.27696
239 2 22.9074 15.8374 1.35703 22.9074 15.8374 1.35703
240 2 22.9124 15.8499 -1.90512 22.9124 15.8499 -1.90512
241 1 23.8605 14.1971 -0.278937 23.8605 14.1971 -0.278937
242 2 25.7567 14.1937 1.35808 25.7567 14.1937 1.35808
243 2 25.7669 14.2005 -1.90408 25.7669 14.2005 -1.90408
244 1 26.7124 15.8436 -0.266626 26.7124 15.8436 -0.266626
245 2 28.6061 15.8367 1.37321 28.6061 15.8367 1.37321
246 2 28.6212 15.8505 -1.8889 28.6212 15.8505 -1.8889
247 1 29.5643 14.1971 -0.260457 29.5643 14.1971 -0.260457
248 2 31.4563 14.1932 1.38128 31.4563 14.1932 1.38128
249 2 31.4747 14.201 -1.88083 31.4747 14.201 -1.88083
250 1 32.4161 15.8436 -0.240502 32.4161 15.8436 -0.240502
251 2 34.3074 15.8366 1.40214 34.3074 15.8366 1.40214
252 2 34.3273 15.8506 -1.85995 34.3273 15.8506 -1.85995
253 1 35.268 14.1971 -0.230227 35.268 14.1971 -0.230227
254 2 37.1593 14.1932 1.41226 37.1593 14.1932 1.41226
255 2 37.179 14.201 -1.84986 37.179 14.201 -1.84986
256 1 38.1198 15.8436 -0.209146 38.1198 15.8436 -0.209146
257 2 40.0127 15.8368 1.43154 40.0127 15.8368 1.43154
258 2 40.0293 15.8503 -1.83058 40.0293 15.8503 -1.83058
259 1 40.9716 14.1971 -0.20153 40.9716 14.1971 -0.20153
260 2 42.8668 14.1936 1.43652 42.8668 14.1936 1.43652
261 2 42.8789 14.2005 -1.82564 42.8789 14.2005 -1.82564
262 1 43.8234 15.8435 -0.187552 43.8234 15.8435 -0.187552
263 2 45.7221 15.8375 1.44646 45.7221 15.8375 1.44646
264 2 45.7273 15.8496 -1.8157 45.7273 15.8496 -1.8157
265 1 46.6753 14.1971 -0.189333 46.6753 14.1971 -0.189333
266 2 48.5771 14.1944 1.44097 48.5771 14.1944 1.44097
267 2 48.5759 14.1997 -1.82122 48.5759 14.1997 -1.82122
268 1 49.5271 15.8436 -0.187833 49.5271 15.8436 -0.187833
269 2 51.4324 15.8383 1.43841 51.4324 15.8383 1.43841
270 2 51.4243 15.8488 -1.82375 51.4243 15.8488 -1.82375
271 1 1.04568 17.4901 -0.189743 1.04568 17.4901 -0.189743
272 2 2.9536 17.4822 1.43339 2.9536 17.4822 1.43339
273 2 2.9402 17.498 -1.82873 2.9402 17.498 -1.82873
274 1 3.89752 19.1366 -0.193623 3.89752 19.1366 -0.193623
275 2 5.80693 19.1261 1.42776 5.80693 19.1261 1.42776
276 2 5.79053 19.147 -1.83431 5.79053 19.147 -1.83431
277 1 6.74933 17.4901 -0.21867 6.74933 17.4901 -0.21867
278 2 8.65876 17.4823 1.40272 8.65876 17.4823 1.40272
279 2 8.64233 17.4979 -1.85938 8.64233 17.4979 -1.85938
280 1 9.60117 19.1366 -0.22526 9.60117 19.1366 -0.22526
281 2 11.5098 19.126 1.39708 11.5098 19.126 1.39708
282 2 11.495 19.1472 -1.865 11.495 19.1472 -1.865
283 1 12.453 17.4901 -0.249077 12.453 17.4901 -0.249077
284 2 14.3598 17.482 1.37541 14.3598 17.482 1.37541
285 2 14.3486 17.4983 -1.8867 14.3486 17.4983 -1.8867
286 1 15.3049 19.1367 -0.250671 15.3049 19.1367 -0.250671
287 2 17.2093 19.1256 1.37669 17.2093 19.1256 1.37669
288 2 17.203 19.1477 -1.8854 17.203 19.1477 -1.8854
289 1 18.1567 17.4902 -0.267432 18.1567 17.4902 -0.267432
290 2 20.0583 17.4813 1.36325 20.0583 17.4813 1.36325
291 2 20.0577 17.499 -1.89888 20.0577 17.499 -1.89888
292 1 21.0086 19.1367 -0.259104 21.0086 19.1367 -0.259104
293 2 22.9073 19.125 1.37501 22.9073 19.125 1.37501
294 2 22.9125 19.1483 -1.88708 22.9125 19.1483 -1.88708
295 1 23.8605 17.4902 -0.266294 23.8605 17.4902 -0.266294
296 2 25.7565 17.4807 1.37095 25.7565 17.4807 1.37095
297 2 25.7671 17.4996 -1.89115 25.7671 17.4996 -1.89115
298 1 26.7124 19.1366 -0.247438 26.7124 19.1366 -0.247438
299 2 28.6062 19.1246 1.39231 28.6062 19.1246 1.39231
300 2 28.6211 19.1486 -1.86975 28.6211 19.1486 -1.86975
301 1 29.5643 17.4901 -0.246509 29.5643 17.4901 -0.246509
302 2 31.4564 17.4804 1.39513 31.4564 17.4804 1.39513
303 2 31.4746 17.4999 -1.86694 31.4746 17.4999 -1.86694
304 1 32.4161 19.1366 -0.220749 32.4161 19.1366 -0.220749
305 2 34.3077 19.1247 1.42147 34.3077 19.1247 1.42147
306 2 34.3269 19.1485 -1.84057 34.3269 19.1485 -1.84057
307 1 35.2679 17.4901 -0.216033 35.2679 17.4901 -0.216033
308 2 37.1596 17.4805 1.42607 37.1596 17.4805 1.42607
309 2 37.1787 17.4996 -1.83601 37.1787 17.4996 -1.83601
310 1 38.1198 19.1365 -0.189776 38.1198 19.1365 -0.189776
311 2 40.0132 19.125 1.45031 40.0132 19.125 1.45031
312 2 40.0288 19.1481 -1.81176 40.0288 19.1481 -1.81176
313 1 40.9716 17.49 -0.18792 40.9716 17.49 -0.18792
314 2 42.8673 17.4809 1.44955 42.8673 17.4809 1.44955
315 2 42.8784 17.4991 -1.81257 42.8784 17.4991 -1.81257
316 1 43.8234 19.1365 -0.169074 43.8234 19.1365 -0.169074
317 2 45.7227 19.1254 1.46421 45.7227 19.1254 1.46421
318 2 45.7267 19.1476 -1.7979 45.7267 19.1476 -1.7979
319 1 46.6753 17.49 -0.176994 46.6753 17.49 -0.176994
320 2 48.5777 17.4816 1.45258 48.5777 17.4816 1.45258
321 2 48.5753 17.4985 -1.80957 48.5753 17.4985 -1.80957
322 1 49.5271 19.1365 -0.170673 49.5271 19.1365 -0.170673
323 2 51.433 19.1259 1.45486 51.433 19.1259 1.45486
324 2 51.4237 19.1472 -1.80725 51.4237 19.1472 -1.80725
325 1 1.0457 20.783 -0.168168 1.0457 20.783 -0.168168
326 2 2.95411 20.7704 1.45438 2.95411 20.7704 1.45438
327 2 2.93972 20.7956 -1.80768 2.93972 20.7956 -1.80768
328 1 3.89754 22.4295 -0.168165 3.89754 22.4295 -0.168165
329 2 5.80735 22.4154 1.45277 5.80735 22.4154 1.45277
330 2 5.79018 22.4436 -1.80925 5.79018 22.4436 -1.80925
331 1 6.74935 20.783 -0.197544 6.74935 20.783 -0.197544
332 2 8.65905 20.7704 1.42354 8.65905 20.7704 1.42354
333 2 8.6421 20.7957 -1.8385 8.6421 20.7957 -1.8385
334 1 9.6012 22.4295 -0.199659 9.6012 22.4295 -0.199659
335 2 11.5101 22.4152 1.42241 11.5101 22.4152 1.42241
336 2 11.4948 22.4439 -1.83961 11.4948 22.4439 -1.83961
337 1 12.453 20.7831 -0.227573 12.453 20.7831 -0.227573
338 2 14.3599 20.7702 1.39681 14.3599 20.7702 1.39681
339 2 14.3486 20.7961 -1.86525 14.3486 20.7961 -1.86525
340 1 15.3049 22.4296 -0.224451 15.3049 22.4296 -0.224451
341 2 17.2095 22.415 1.40272 17.2095 22.415 1.40272
342 2 17.2028 22.4442 -1.85932 17.2028 22.4442 -1.85932
343 1 18.1568 20.7831 -0.245004 18.1568 20.7831 -0.245004
344 2 20.0584 20.7698 1.38564 20.0584 20.7698 1.38564
345 2 20.0577 20.7965 -1.87643 20.0577 20.7965 -1.87643
346 1 21.0086 22.4296 -0.232111 21.0086 22.4296 -0.232111
347 2 22.9075 22.4148 1.40178 22.9075 22.4148 1.40178
348 2 22.9123 22.4443 -1.86027 22.9123 22.4443 -1.86027
349 1 23.8605 20.7831 -0.24276 23.8605 20.7831 -0.24276
350 2 25.7566 20.7695 1.39436 25.7566 20.7695 1.39436
351 2 25.767 20.7967 -1.86769 25.767 20.7967 -1.86769
352 1 26.7124 22.4295 -0.219847 26.7124 22.4295 -0.219847
353 2 28.6065 22.4148 1.41951 28.6065 22.4148 1.41951
354 2 28.6207 22.4443 -1.8425 28.6207 22.4443 -1.8425
355 1 29.5642 20.7831 -0.222256 29.5642 20.7831 -0.222256
356 2 31.4567 20.7694 1.41898 31.4567 20.7694 1.41898
357 2 31.4742 20.7967 -1.84304 31.4742 20.7967 -1.84304
358 1 32.4161 22.4295 -0.193113 32.4161 22.4295 -0.193113
359 2 34.3082 22.415 1.44848 34.3082 22.415 1.44848
360 2 34.3263 22.4439 -1.81353 34.3263 22.4439 -1.81353
361 1 35.2679 20.783 -0.191915 35.2679 20.783 -0.191915
362 2 37.1602 20.7696 1.44955 37.1602 20.7696 1.44955
363 2 37.1781 20.7963 -1.81248 37.1781 20.7963 -1.81248
364 1 38.1197 22.4294 -0.162729 38.1197 22.4294 -0.162729
365 2 40.0138 22.4153 1.47664 40.0138 22.4153 1.47664
366 2 40.0281 22.4435 -1.78539 40.0281 22.4435 -1.78539
367 1 40.9716 20.7829 -0.164505 40.9716 20.7829 -0.164505
368 2 42.8678 20.7699 1.47227 42.8678 20.7699 1.47227
369 2 42.8778 20.7959 -1.7898 42.8778 20.7959 -1.7898
370 1 43.8234 22.4294 -0.142732 43.8234 22.4294 -0.142732
371 2 45.7232 22.4154 1.48989 45.7232 22.4154 1.48989
372 2 45.7261 22.4433 -1.77218 45.7261 22.4433 -1.77218
373 1 46.6753 20.7829 -0.154477 46.6753 20.7829 -0.154477
374 2 48.5783 20.7702 1.47437 48.5783 20.7702 1.47437
375 2 48.5747 20.7957 -1.78772 48.5747 20.7957 -1.78772
376 1 49.5271 22.4294 -0.144876 49.5271 22.4294 -0.144876
377 2 51.4335 22.4154 1.48005 51.4335 22.4154 1.48005
378 2 51.4232 22.4434 -1.782 51.4232 22.4434 -1.782
379 1 1.04572 24.0759 -0.139863 1.04572 24.0759 -0.139863
380 2 2.95453 24.0611 1.48223 2.95453 24.0611 1.48223
381 2 2.93936 24.0906 -1.77978 2.93936 24.0906 -1.77978
382 1 3.89758 25.7223 -0.138279 3.89758 25.7223 -0.138279
383 2 5.80766 25.7074 1.48235 5.80766 25.7074 1.48235
384 2 5.78993 25.7373 -1.77965 5.78993 25.7373 -1.77965
385 1 6.74939 24.0759 -0.169015 6.74939 24.0759 -0.169015
386 2 8.65938 24.0609 1.45172 8.65938 24.0609 1.45172
387 2 8.64183 24.091 -1.81028 8.64183 24.091 -1.81028
388 1 9.60124 25.7224 -0.169171 9.60124 25.7224 -0.169171
389 2 11.5104 25.707 1.45261 11.5104 25.707 1.45261
390 2 11.4945 25.7378 -1.8094 11.4945 25.7378 -1.8094
391 1 12.4531 24.076 -0.198571 12.4531 24.076 -0.198571
392 2 14.3602 24.0607 1.42552 14.3602 24.0607 1.42552
393 2 14.3483 24.0913 -1.8365 14.3483 24.0913 -1.8365
394 1 15.3049 25.7225 -0.193451 15.3049 25.7225 -0.193451
395 2 17.2098 25.707 1.43336 17.2098 25.707 1.43336
396 2 17.2025 25.738 -1.82867 17.2025 25.738 -1.82867
397 1 18.1568 24.076 -0.215469 18.1568 24.076 -0.215469
398 2 20.0587 24.0606 1.41485 20.0587 24.0606 1.41485
399 2 20.0574 24.0914 -1.84719 20.0574 24.0914 -1.84719
400 1 21.0086 25.7225 -0.200949 21.0086 25.7225 -0.200949
401 2 22.9079 25.7072 1.43244 22.9079 25.7072 1.43244
402 2 22.9119 25.7378 -1.8296 22.9119 25.7378 -1.8296
403 1 23.8605 24.076 -0.212899 23.8605 24.076 -0.212899
404 2 25.7569 24.0607 1.42379 25.7569 24.0607 1.42379
405 2 25.7666 24.0912 -1.83824 25.7666 24.0912 -1.83824
406 1 26.7124 25.7224 -0.188958 26.7124 25.7224 -0.188958
407 2 28.607 25.7075 1.44981 28.607 25.7075 1.44981
408 2 28.6202 25.7373 -1.81222 28.6202 25.7373 -1.81222
409 1 29.5642 24.076 -0.192415 29.5642 24.076 -0.192415
410 2 31.4572 24.061 1.44824 31.4572 24.061 1.44824
411 2 31.4737 24.0909 -1.81377 31.4737 24.0909 -1.81377
412 1 32.416 25.7224 -0.162783 32.416 25.7224 -0.162783
413 2 34.3088 25.7079 1.4781 34.3088 25.7079 1.4781
414 2 34.3257 25.7367 -1.78391 34.3257 25.7367 -1.78391
415 1 35.2679 24.0759 -0.162563 35.2679 24.0759 -0.162563
416 2 37.1608 24.0613 1.47817 37.1608 24.0613 1.47817
417 2 37.1774 24.0904 -1.78384 37.1774 24.0904 -1.78384
418 1 38.1197 25.7223 -0.133224 38.1197 25.7223 -0.133224
419 2 40.0144 25.7083 1.50544 40.0144 25.7083 1.50544
420 2 40.0275 25.7362 -1.75659 40.0275 25.7362 -1.75659
421 1 40.9716 24.0758 -0.135896 40.9716 24.0758 -0.135896
422 2 42.8684 24.0615 1.50023 42.8684 24.0615 1.50023
423 2 42.8772 24.0901 -1.76182 42.8772 24.0901 -1.76182
424 1 43.8234 25.7222 -0.113764 43.8234 25.7222 -0.113764
425 2 45.7236 25.7082 1.51841 45.7236 25.7082 1.51841
426 2 45.7257 25.7363 -1.74365 45.7257 25.7363 -1.74365
427 1 46.6753 24.0758 -0.12622 46.6753 24.0758 -0.12622
428 2 48.5788 24.0614 1.50212 48.5788 24.0614 1.50212
429 2 48.5743 24.0903 -1.75994 48.5743 24.0903 -1.75994
430 1 49.5272 25.7223 -0.11561 49.5272 25.7223 -0.11561
431 2 51.4338 25.7078 1.50901 51.4338 25.7078 1.50901
432 2 51.423 25.7368 -1.75303 51.423 25.7368 -1.75303
433 1 1.04575 27.3687 -0.110519 1.04575 27.3687 -0.110519
434 2 2.9547 27.3547 1.51145 2.9547 27.3547 1.51145
435 2 2.93925 27.3828 -1.75058 2.93925 27.3828 -1.75058
436 1 3.89761 29.0152 -0.109862 3.89761 29.0152 -0.109862
437 2 5.80771 29.0021 1.51079 5.80771 29.0021 1.51079
438 2 5.78995 29.0283 -1.75124 5.78995 29.0283 -1.75124
439 1 6.74943 27.3688 -0.138647 6.74943 27.3688 -0.138647
440 2 8.65961 27.3542 1.48189 8.65961 27.3542 1.48189
441 2 8.64167 27.3835 -1.78011 8.64167 27.3835 -1.78011
442 1 9.60127 29.0153 -0.139499 9.60127 29.0153 -0.139499
443 2 11.5105 29.0016 1.48215 11.5105 29.0016 1.48215
444 2 11.4944 29.029 -1.77988 11.4944 29.029 -1.77988
445 1 12.4531 27.3689 -0.167442 12.4531 27.3689 -0.167442
446 2 14.3605 27.3539 1.45635 14.3605 27.3539 1.45635
447 2 14.3481 27.3839 -1.80567 14.3481 27.3839 -1.80567
448 1 15.3049 29.0153 -0.163079 15.3049 29.0153 -0.163079
449 2 17.2102 29.0014 1.46336 17.2102 29.0014 1.46336
450 2 17.2022 29.0293 -1.7987 17.2022 29.0293 -1.7987
451 1 18.1568 27.3689 -0.184058 18.1568 27.3689 -0.184058
452 2 20.0591 27.354 1.44576 20.0591 27.354 1.44576
453 2 20.0569 27.3838 -1.81629 20.0569 27.3838 -1.81629
454 1 21.0086 29.0153 -0.170791 21.0086 29.0153 -0.170791
455 2 22.9085 29.0019 1.46193 22.9085 29.0019 1.46193
456 2 22.9113 29.0288 -1.80014 22.9113 29.0288 -1.80014
457 1 23.8605 27.3689 -0.181909 23.8605 27.3689 -0.181909
458 2 25.7575 27.3545 1.45412 25.7575 27.3545 1.45412
459 2 25.766 27.3832 -1.80793 25.766 27.3832 -1.80793
460 1 26.7123 29.0153 -0.159852 26.7123 29.0153 -0.159852
461 2 28.6077 29.0026 1.47815 28.6077 29.0026 1.47815
462 2 28.6195 29.028 -1.78392 28.6195 29.028 -1.78392
463 1 29.5642 27.3688 -0.16226 29.5642 27.3688 -0.16226
464 2 31.4578 27.3551 1.47769 31.4578 27.3551 1.47769
465 2 31.473 27.3826 -1.78435 31.473 27.3826 -1.78435
466 1 32.416 29.0152 -0.134947 32.416 29.0152 -0.134947
467 2 34.3095 29.0033 1.50518 34.3095 29.0033 1.50518
468 2 34.325 29.0272 -1.75688 34.325 29.0272 -1.75688
469 1 35.2678 27.3688 -0.133375 35.2678 27.3688 -0.133375
470 2 37.1614 27.3556 1.50662 37.1614 27.3556 1.50662
471 2 37.1767 27.3819 -1.75543 37.1767 27.3819 -1.75543
472 1 38.1197 29.0152 -0.106601 38.1197 29.0152 -0.106601
473 2 40.0149 29.0038 1.53143 40.0149 29.0038 1.53143
474 2 40.0269 29.0265 -1.73065 40.0269 29.0265 -1.73065
475 1 40.9715 27.3687 -0.107594 40.9715 27.3687 -0.107594
476 2 42.8689 27.3558 1.52801 42.8689 27.3558 1.52801
477 2 42.8767 27.3816 -1.73406 42.8767 27.3816 -1.73406
478 1 43.8234 29.0152 -0.0876899 43.8234 29.0152 -0.0876899
479 2 45.7239 29.0037 1.54428 45.7239 29.0037 1.54428
480 2 45.7254 29.0266 -1.71782 45.7254 29.0266 -1.71782
481 1 46.6753 27.3687 -0.0978599 46.6753 27.3687 -0.0978599
482 2 48.579 27.3554 1.53031 48.579 27.3554 1.53031
483 2 48.5741 27.382 -1.73176 48.5741 27.382 -1.73176
484 1 49.5272 29.0152 -0.0886824 49.5272 29.0152 -0.0886824
485 2 51.4338 29.003 1.53601 51.4338 29.003 1.53601
486 2 51.423 29.0274 -1.72606 51.423 29.0274 -1.72606
487 1 1.04576 30.6617 -0.0858188 1.04576 30.6617 -0.0858188
488 2 2.95453 30.6509 1.53642 2.95453 30.6509 1.53642
489 2 2.93947 30.6724 -1.72565 2.93947 30.6724 -1.72565
490 1 3.89762 32.3082 -0.0881166 3.89762 32.3082 -0.0881166
491 2 5.80741 32.2992 1.53295 5.80741 32.2992 1.53295
492 2 5.79029 32.3172 -1.72914 5.79029 32.3172 -1.72914
493 1 6.74946 30.6617 -0.112144 6.74946 30.6617 -0.112144
494 2 8.65957 30.65 1.50853 8.65957 30.65 1.50853
495 2 8.64178 30.6734 -1.75352 8.64178 30.6734 -1.75352
496 1 9.6013 32.3082 -0.115813 9.6013 32.3082 -0.115813
497 2 11.5105 32.2983 1.50602 11.5105 32.2983 1.50602
498 2 11.4946 32.3181 -1.75607 11.4946 32.3181 -1.75607
499 1 12.4531 30.6618 -0.139627 12.4531 30.6618 -0.139627
500 2 14.3607 30.6495 1.48404 14.3607 30.6495 1.48404
501 2 14.348 30.674 -1.77803 14.348 30.674 -1.77803
502 1 15.305 32.3083 -0.138264 15.305 32.3083 -0.138264
503 2 17.2104 32.2981 1.48793 17.2104 32.2981 1.48793
504 2 17.202 32.3184 -1.77419 17.202 32.3184 -1.77419
505 1 18.1568 30.6618 -0.155876 18.1568 30.6618 -0.155876
506 2 20.0596 30.6497 1.47342 20.0596 30.6497 1.47342
507 2 20.0565 30.6739 -1.78868 20.0565 30.6739 -1.78868
508 1 21.0086 32.3083 -0.146226 21.0086 32.3083 -0.146226
509 2 22.9091 32.2986 1.48579 22.9091 32.2986 1.48579
510 2 22.9106 32.3179 -1.77635 22.9106 32.3179 -1.77635
511 1 23.8605 30.6618 -0.154611 23.8605 30.6618 -0.154611
512 2 25.7582 30.6504 1.48061 25.7582 30.6504 1.48061
513 2 25.7652 30.6731 -1.78149 25.7652 30.6731 -1.78149
514 1 26.7123 32.3082 -0.136847 26.7123 32.3082 -0.136847
515 2 28.6084 32.2996 1.50027 28.6084 32.2996 1.50027
516 2 28.6187 32.3169 -1.76186 28.6187 32.3169 -1.76186
517 1 29.5642 30.6617 -0.136545 29.5642 30.6617 -0.136545
518 2 31.4585 30.6513 1.50258 31.4585 30.6513 1.50258
519 2 31.4722 30.6721 -1.75951 31.4722 30.6721 -1.75951
520 1 32.416 32.3082 -0.113877 32.416 32.3082 -0.113877
521 2 34.3102 32.3005 1.52544 34.3102 32.3005 1.52544
522 2 34.3242 32.3158 -1.73668 34.3242 32.3158 -1.73668
523 1 35.2678 30.6617 -0.109227 35.2678 30.6617 -0.109227
524 2 37.162 30.6521 1.53004 37.162 30.6521 1.53004
525 2 37.176 30.6713 -1.73206 37.176 30.6713 -1.73206
526 1 38.1197 32.3082 -0.0871808 38.1197 32.3082 -0.0871808
527 2 40.0154 32.3012 1.55029 40.0154 32.3012 1.55029
528 2 40.0263 32.3151 -1.71185 40.0263 32.3151 -1.71185
529 1 40.9715 30.6616 -0.0846099 40.9715 30.6616 -0.0846099
530 2 42.8692 30.6524 1.55062 42.8692 30.6524 1.55062
531 2 42.8763 30.6709 -1.7115 42.8763 30.6709 -1.7115
532 1 43.8234 32.3081 -0.0689863 43.8234 32.3081 -0.0689863
533 2 45.7239 32.3011 1.56296 45.7239 32.3011 1.56296
534 2 45.7254 32.3151 -1.69919 45.7254 32.3151 -1.69919
535 1 46.6753 30.6616 -0.0747189 46.6753 30.6616 -0.0747189
536 2 48.5789 30.6519 1.55358 48.5789 30.6519 1.55358
537 2 48.5742 30.6714 -1.70854 48.5742 30.6714 -1.70854
538 1 49.5272 32.3081 -0.068994 49.5272 32.3081 -0.068994
539 2 51.4335 32.3003 1.55611 51.4335 32.3003 1.55611