ITEM: TIMESTEP
68000
ITEM: NUMBER OF ATOMS
810
ITEM: BOX BOUNDS pp pp pp
8.4310480675461474e-01 5.2174500193243212e+01
8.1444490055198049e-01 5.0201770099447408e+01
-1.0000000000000000e+01 1.0000000000000000e+01
ITEM: ATOMS id type x y z xu yu zu
1 1 1.04703 1.02915 -0.281678 1.04703 1.02915 -0.281678
2 2 2.92144 0.969267 1.37953 2.92144 0.969267 1.37953
3 2 2.97487 1.08894 -1.88004 2.97487 1.08894 -1.88004
4 1 3.89843 2.67451 -0.173997 3.89843 2.67451 -0.173997
5 2 5.76676 2.61783 1.49414 5.76676 2.61783 1.49414
6 2 5.83204 2.73118 -1.76544 5.83204 2.73118 -1.76544
7 1 6.75016 1.02848 -0.173904 6.75016 1.02848 -0.173904
8 2 8.61489 0.968599 1.49809 8.61489 0.968599 1.49809
9 2 8.68729 1.08835 -1.7611 8.68729 1.08835 -1.7611
10 1 9.60122 2.6738 -0.0497039 9.60122 2.6738 -0.0497039
11 2 11.4683 2.61699 1.61975 11.4683 2.61699 1.61975
12 2 11.5361 2.73068 -1.63973 11.5361 2.73068 -1.63973
13 1 12.453 1.02773 -0.0477025 12.453 1.02773 -0.0477025
14 2 14.3252 0.967913 1.6158 14.3252 0.967913 1.6158
15 2 14.383 1.08759 -1.64366 14.383 1.08759 -1.64366
16 1 15.3044 2.67317 0.0635586 15.3044 2.67317 0.0635586
17 2 17.187 2.61606 1.71546 17.187 2.61606 1.71546
18 2 17.2246 2.7304 -1.54446 17.2246 2.7304 -1.54446
19 1 18.1566 1.02722 0.0386223 18.1566 1.02722 0.0386223
20 2 20.0505 0.96728 1.67724 20.0505 0.96728 1.67724
21 2 20.0656 1.08729 -1.58268 20.0656 1.08729 -1.58268
22 1 21.0088 2.6729 0.112403 21.0088 2.6729 0.112403
23 2 22.9166 2.61542 1.73496 22.9166 2.61542 1.73496
24 2 22.904 2.73059 -1.52511 22.904 2.73059 -1.52511
25 1 23.8609 1.02724 0.0429601 23.8609 1.02724 0.0429601
26 2 25.7805 0.967122 1.65134 25.7805 0.967122 1.65134
27 2 25.744 1.08756 -1.6084 25.744 1.08756 -1.6084
28 1 26.7131 2.6732 0.071769 26.7131 2.6732 0.071769
29 2 28.6438 2.61555 1.66702 28.6438 2.61555 1.66702
30 2 28.5849 2.7311 -1.59255 28.5849 2.7311 -1.59255
31 1 29.5646 1.02783 -0.0384496 29.5646 1.02783 -0.0384496
32 2 31.5012 0.967867 1.54945 31.5012 0.967867 1.54945
33 2 31.43 1.08799 -1.70974 31.43 1.08799 -1.70974
34 1 32.4164 2.67395 -0.0401001 32.4164 2.67395 -0.0401001
35 2 34.3563 2.61663 1.544 34.3563 2.61663 1.544
36 2 34.2783 2.73148 -1.71523 34.2783 2.73148 -1.71523
37 1 35.2674 1.02869 -0.166471 35.2674 1.02869 -0.166471
38 2 37.2041 0.969222 1.42141 37.2041 0.969222 1.42141
39 2 37.1326 1.08823 -1.83782 37.1326 1.08823 -1.83782
40 1 38.1191 2.67475 -0.168772 38.1191 2.67475 -0.168772
41 2 40.0503 2.61803 1.42605 40.0503 2.61803 1.42605
42 2 39.99 2.73149 -1.83364 39.99 2.73149 -1.83364
43 1 40.9705 1.02934 -0.278733 40.9705 1.02934 -0.278733
44 2 42.891 0.970115 1.3289 42.891 0.970115 1.3289
45 2 42.8525 1.08847 -1.93092 42.8525 1.08847 -1.93092
46 1 43.8225 2.67514 -0.252228 43.8225 2.67514 -0.252228
47 2 45.7319 2.61877 1.36869 45.7319 2.61877 1.36869
48 2 45.7157 2.73142 -1.89156 45.7157 2.73142 -1.89156
49 1 46.6744 1.02949 -0.323081 46.6744 1.02949 -0.323081
50 2 48.5706 0.96997 1.31328 48.5706 0.96997 1.31328
51 2 48.581 1.08886 -1.94674 48.581 1.08886 -1.94674
52 1 49.5264 2.67502 -0.253404 49.5264 2.67502 -0.253404
53 2 51.4114 2.61853 1.39593 51.4114 2.61853 1.39593
54 2 51.4439 2.73143 -1.86418 51.4439 2.73143 -1.86418
55 1 1.04665 4.32057 -0.167364 1.04665 4.32057 -0.167364
56 2 2.92237 4.26975 1.49266 2.92237 4.26975 1.49266
57 2 2.97303 4.3714 -1.7676 2.97303 4.3714 -1.7676
58 1 3.89798 5.96631 -0.0710821 3.89798 5.96631 -0.0710821
59 2 5.76741 5.9232 1.59625 5.76741 5.9232 1.59625
60 2 5.83041 6.00949 -1.66423 5.83041 6.00949 -1.66423
61 1 6.74957 4.32 -0.0591176 6.74957 4.32 -0.0591176
62 2 8.61572 4.26884 1.61164 8.61572 4.26884 1.61164
63 2 8.68529 4.37123 -1.6482 8.68529 4.37123 -1.6482
64 1 9.60068 5.96577 0.0539694 9.60068 5.96577 0.0539694
65 2 11.4689 5.92194 1.7227 11.4689 5.92194 1.7227
66 2 11.5346 6.00973 -1.53761 11.5346 6.00973 -1.53761
67 1 12.4524 4.31936 0.0674299 12.4524 4.31936 0.0674299
68 2 14.3261 4.26769 1.72975 14.3261 4.26769 1.72975
69 2 14.3813 4.37116 -1.53027 14.3813 4.37116 -1.53027
70 1 15.3041 5.96528 0.168311 15.3041 5.96528 0.168311
71 2 17.1877 5.92058 1.81953 17.1877 5.92058 1.81953
72 2 17.2234 6.01014 -1.44113 17.2234 6.01014 -1.44113
73 1 18.1564 4.31892 0.154396 18.1564 4.31892 0.154396
74 2 20.0517 4.26665 1.79189 20.0517 4.26665 1.79189
75 2 20.0642 4.37137 -1.46851 20.0642 4.37137 -1.46851
76 1 21.0087 5.96506 0.218426 21.0087 5.96506 0.218426
77 2 22.9177 5.91964 1.84023 22.9177 5.91964 1.84023
78 2 22.9031 6.0107 -1.42054 22.9031 6.0107 -1.42054
79 1 23.8611 4.31892 0.159566 23.8611 4.31892 0.159566
80 2 25.7821 4.26621 1.76671 25.7821 4.26621 1.76671
81 2 25.743 4.37188 -1.49345 25.743 4.37188 -1.49345
82 1 26.7135 5.96528 0.178763 26.7135 5.96528 0.178763
83 2 28.6454 5.9195 1.773 28.6454 5.9195 1.773
84 2 28.5841 6.01133 -1.48724 28.5841 6.01133 -1.48724
85 1 29.5652 4.31943 0.0785608 29.5652 4.31943 0.0785608
86 2 31.5034 4.2667 1.66487 31.5034 4.2667 1.66487
87 2 31.429 4.37242 -1.59471 31.429 4.37242 -1.59471
88 1 32.417 5.96588 0.0669689 32.417 5.96588 0.0669689
89 2 34.3584 5.92034 1.6496 34.3584 5.92034 1.6496
90 2 34.2773 6.01165 -1.61029 34.2773 6.01165 -1.61029
91 1 35.268 4.3202 -0.0501439 35.268 4.3202 -0.0501439
92 2 37.2066 4.26805 1.53583 37.2066 4.26805 1.53583
93 2 37.1313 4.3725 -1.72384 37.1313 4.3725 -1.72384
94 1 38.1196 5.96652 -0.0629754 38.1196 5.96652 -0.0629754
95 2 40.0526 5.92198 1.53006 40.0526 5.92198 1.53006
96 2 39.9885 6.01115 -1.73034 39.9885 6.01115 -1.73034
97 1 40.9709 4.32078 -0.16382 40.9709 4.32078 -0.16382
98 2 42.8931 4.26951 1.44202 42.8931 4.26951 1.44202
99 2 42.8509 4.37204 -1.81834 42.8509 4.37204 -1.81834
100 1 43.8227 5.96683 -0.148391 43.8227 5.96683 -0.148391
101 2 45.7338 5.92348 1.47098 45.7338 5.92348 1.47098
102 2 45.714 6.01016 -1.7901 45.714 6.01016 -1.7901
103 1 46.6745 4.32089 -0.209015 46.6745 4.32089 -0.209015
104 2 48.572 4.27012 1.42598 48.572 4.27012 1.42598
105 2 48.5794 4.3716 -1.83469 48.5794 4.3716 -1.83469
106 1 49.5262 5.96672 -0.150665 49.5262 5.96672 -0.150665
107 2 51.4125 5.92388 1.49762 51.4125 5.92388 1.49762
108 2 51.4423 6.00954 -1.7634 51.4423 6.00954 -1.7634
109 1 1.04639 7.61272 -0.0806472 1.04639 7.61272 -0.0806472
110 2 2.92305 7.57951 1.57876 2.92305 7.57951 1.57876
111 2 2.97171 7.64598 -1.68247 2.97171 7.64598 -1.68247
112 1 3.89771 9.25898 -0.0038089 3.89771 9.25898 -0.0038089
113 2 5.76759 9.23643 1.66344 5.76759 9.23643 1.66344
114 2 5.82964 9.28161 -1.59789 5.82964 9.28161 -1.59789
115 1 6.74913 7.61234 0.0282392 6.74913 7.61234 0.0282392
116 2 8.61599 7.5784 1.69869 8.61599 7.5784 1.69869
117 2 8.68415 7.64638 -1.56207 8.68415 7.64638 -1.56207
118 1 9.60033 9.25871 0.122783 9.60033 9.25871 0.122783
119 2 11.4688 9.23498 1.7917 11.4688 9.23498 1.7917
120 2 11.5341 9.28254 -1.46944 11.5341 9.28254 -1.46944
121 1 12.452 7.61192 0.156299 12.452 7.61192 0.156299
122 2 14.3263 7.57687 1.8184 14.3263 7.57687 1.8184
123 2 14.3803 7.6471 -1.44249 14.3803 7.6471 -1.44249
124 1 15.3038 9.25845 0.239399 15.3038 9.25845 0.239399
125 2 17.1877 9.2334 1.89079 17.1877 9.2334 1.89079
126 2 17.223 9.28362 -1.37069 17.223 9.28362 -1.37069
127 1 18.1562 7.61161 0.245056 18.1562 7.61161 0.245056
128 2 20.0522 7.57552 1.88226 20.0522 7.57552 1.88226
129 2 20.0635 7.64786 -1.37897 20.0635 7.64786 -1.37897
130 1 21.0087 9.25832 0.291665 21.0087 9.25832 0.291665
131 2 22.9182 9.23225 1.91341 22.9182 9.23225 1.91341
132 2 22.9027 9.28454 -1.34816 22.9027 9.28454 -1.34816
133 1 23.8613 7.6116 0.251757 23.8613 7.6116 0.251757
134 2 25.7832 7.57482 1.85839 25.7832 7.57482 1.85839
135 2 25.7424 7.64858 -1.40258 25.7424 7.64858 -1.40258
136 1 26.7137 9.25844 0.253447 26.7137 9.25844 0.253447
137 2 28.6464 9.23182 1.8473 28.6464 9.23182 1.8473
138 2 28.5836 9.28524 -1.41373 28.5836 9.28524 -1.41373
139 1 29.5656 7.61194 0.171545 29.5656 7.61194 0.171545
140 2 31.505 7.575 1.75696 31.505 7.575 1.75696
141 2 31.4283 7.64912 -1.50342 31.4283 7.64912 -1.50342
142 1 32.4174 9.25878 0.142036 32.4174 9.25878 0.142036
143 2 34.36 9.23231 1.72376 34.36 9.23231 1.72376
144 2 34.2765 9.28541 -1.53691 34.2765 9.28541 -1.53691
145 1 35.2685 7.61248 0.0423332 35.2685 7.61248 0.0423332
146 2 37.2087 7.57621 1.62685 37.2087 7.57621 1.62685
147 2 37.13 7.64891 -1.63361 37.13 7.64891 -1.63361
148 1 38.12 9.25914 0.010661 38.12 9.25914 0.010661
149 2 40.0546 9.23394 1.60214 40.0546 9.23394 1.60214
150 2 39.9871 9.28441 -1.65904 39.9871 9.28441 -1.65904
151 1 40.9712 7.61289 -0.0735093 40.9712 7.61289 -0.0735093
152 2 42.8952 7.57813 1.53063 42.8952 7.57813 1.53063
153 2 42.8493 7.64768 -1.73059 42.8493 7.64768 -1.73059
154 1 43.8229 9.2593 -0.0779502 43.8229 9.2593 -0.0779502
155 2 45.7355 9.23596 1.53987 45.7355 9.23596 1.53987
156 2 45.7123 9.28263 -1.72203 45.7123 9.28263 -1.72203
157 1 46.6745 7.61295 -0.121245 46.6745 7.61295 -0.121245
158 2 48.5735 7.57951 1.51251 48.5735 7.57951 1.51251
159 2 48.5778 7.64639 -1.74911 48.5778 7.64639 -1.74911
160 1 49.5262 9.25921 -0.0829543 49.5262 9.25921 -0.0829543
161 2 51.4134 9.23696 1.56453 51.4134 9.23696 1.56453
162 2 51.441 9.28146 -1.69736 51.441 9.28146 -1.69736
163 1 1.04628 10.9056 -0.0356156 1.04628 10.9056 -0.0356156
164 2 2.92342 10.8952 1.62356 2.92342 10.8952 1.62356
165 2 2.97107 10.9161 -1.63831 2.97107 10.9161 -1.63831
166 1 3.89766 12.5522 0.0173383 3.89766 12.5522 0.0173383
167 2 5.76741 12.5537 1.68491 5.76741 12.5537 1.68491
168 2 5.8297 12.5508 -1.57674 5.8297 12.5508 -1.57674
169 1 6.74892 10.9055 0.0739475 6.74892 10.9055 0.0739475
170 2 8.61571 10.8942 1.74482 8.61571 10.8942 1.74482
171 2 8.684 10.9169 -1.51657 8.684 10.9169 -1.51657
172 1 9.60022 12.5523 0.145736 9.60022 12.5523 0.145736
173 2 11.4681 12.5525 1.81542 11.4681 12.5525 1.81542
174 2 11.5344 12.5522 -1.44604 11.5344 12.5522 -1.44604
175 1 12.4518 10.9054 0.20443 12.4518 10.9054 0.20443
176 2 14.3259 10.8927 1.86708 14.3259 10.8927 1.86708
177 2 14.3803 10.9182 -1.39445 14.3803 10.9182 -1.39445
178 1 15.3037 12.5524 0.265289 15.3037 12.5524 0.265289
179 2 17.1872 12.5511 1.9174 17.1872 12.5511 1.9174
180 2 17.2233 12.5537 -1.34443 17.2233 12.5537 -1.34443
181 1 18.1561 10.9053 0.295892 18.1561 10.9053 0.295892
182 2 20.0522 10.8912 1.93346 20.0522 10.8912 1.93346
183 2 20.0634 10.9195 -1.32841 20.0634 10.9195 -1.32841
184 1 21.0087 12.5524 0.320259 21.0087 12.5524 0.320259
185 2 22.918 12.5499 1.94245 22.918 12.5499 1.94245
186 2 22.9029 12.5549 -1.31952 22.9029 12.5549 -1.31952
187 1 23.8613 10.9053 0.304703 23.8613 10.9053 0.304703
188 2 25.7836 10.8903 1.91139 25.7836 10.8903 1.91139
189 2 25.7423 10.9204 -1.35023 25.7423 10.9204 -1.35023
190 1 26.7138 12.5524 0.283866 26.7138 12.5524 0.283866
191 2 28.6467 12.5493 1.87782 28.6467 12.5493 1.87782
192 2 28.5837 12.5556 -1.38362 28.5837 12.5556 -1.38362
193 1 29.5659 10.9054 0.225641 29.5659 10.9054 0.225641
194 2 31.5059 10.8901 1.8107 31.5059 10.8901 1.8107
195 2 31.4279 10.9209 -1.45033 31.4279 10.9209 -1.45033
196 1 32.4176 12.5524 0.17314 32.4176 12.5524 0.17314
197 2 34.3608 12.5493 1.7544 34.3608 12.5493 1.7544
198 2 34.2761 12.5556 -1.50666 34.2761 12.5556 -1.50666
199 1 35.2689 10.9057 0.0961222 35.2689 10.9057 0.0961222
200 2 37.2102 10.891 1.67956 37.2102 10.891 1.67956
201 2 37.1291 10.9204 -1.58152 37.1291 10.9204 -1.58152
202 1 38.1202 12.5524 0.0404572 38.1202 12.5524 0.0404572
203 2 40.056 12.5504 1.63064 40.056 12.5504 1.63064
204 2 39.986 12.5544 -1.63088 39.986 12.5544 -1.63088
205 1 40.9714 10.9058 -0.022359 40.9714 10.9058 -0.022359
206 2 42.897 10.8929 1.58015 42.897 10.8929 1.58015
207 2 42.8477 10.9186 -1.68168 42.8477 10.9186 -1.68168
208 1 43.8229 12.5524 -0.0518813 43.8229 12.5524 -0.0518813
209 2 45.7371 12.5524 1.56441 45.7371 12.5524 1.56441
210 2 45.7109 12.5522 -1.69782 45.7109 12.5522 -1.69782
211 1 46.6745 10.9058 -0.0739715 46.6745 10.9058 -0.0739715
212 2 48.5748 10.8948 1.55856 48.5748 10.8948 1.55856
213 2 48.5764 10.9167 -1.7037 48.5764 10.9167 -1.7037
214 1 49.5262 12.5523 -0.0607216 49.5262 12.5523 -0.0607216
215 2 51.4142 12.5538 1.58605 51.4142 12.5538 1.58605
216 2 51.4402 12.5507 -1.67617 51.4402 12.5507 -1.67617
217 1 1.04635 14.1988 -0.0388004 1.04635 14.1988 -0.0388004
218 2 2.92356 14.2125 1.62027 2.92356 14.2125 1.62027
219 2 2.97107 14.1851 -1.64155 2.97107 14.1851 -1.64155
220 1 3.89784 15.8455 -0.0104084 3.89784 15.8455 -0.0104084
221 2 5.76704 15.8705 1.65759 5.76704 15.8705 1.65759
222 2 5.83043 15.8204 -1.60365 5.83043 15.8204 -1.60365
223 1 6.74898 14.199 0.0710474 6.74898 14.199 0.0710474
224 2 8.6151 14.2121 1.74266 8.6151 14.2121 1.74266
225 2 8.68468 14.186 -1.51869 8.68468 14.186 -1.51869
226 1 9.60039 15.8459 0.119273 9.60039 15.8459 0.119273
227 2 11.4673 15.8701 1.78993 11.4673 15.8701 1.78993
228 2 11.5356 15.8217 -1.47113 11.5356 15.8217 -1.47113
229 1 12.4518 14.1993 0.204045 12.4518 14.1993 0.204045
230 2 14.3251 14.211 1.86765 14.3251 14.211 1.86765
231 2 14.3811 14.1876 -1.39387 14.3811 14.1876 -1.39387
232 1 15.3038 15.8463 0.241518 15.3038 15.8463 0.241518
233 2 17.1862 15.8693 1.89466 17.1862 15.8693 1.89466
234 2 17.2244 15.8233 -1.36684 17.2244 15.8233 -1.36684
235 1 18.156 14.1995 0.298496 18.156 14.1995 0.298496
236 2 20.0515 14.2099 1.93686 20.0515 14.2099 1.93686
237 2 20.0641 14.1891 -1.32506 20.0641 14.1891 -1.32506
238 1 21.0087 15.8466 0.299185 21.0087 15.8466 0.299185
239 2 22.9171 15.8684 1.92219 22.9171 15.8684 1.92219
240 2 22.9037 15.8246 -1.33951 22.9037 15.8246 -1.33951
241 1 23.8613 14.1995 0.309709 23.8613 14.1995 0.309709
242 2 25.7833 14.2089 1.91687 25.7833 14.2089 1.91687
243 2 25.7427 14.1901 -1.34484 25.7427 14.1901 -1.34484
244 1 26.7138 15.8465 0.264761 26.7138 15.8465 0.264761
245 2 28.6461 15.8676 1.85921 28.6461 15.8676 1.85921
246 2 28.5842 15.8253 -1.40199 28.5842 15.8253 -1.40199
247 1 29.5659 14.1994 0.232073 29.5659 14.1994 0.232073
248 2 31.506 14.2084 1.81721 31.506 14.2084 1.81721
249 2 31.428 14.1904 -1.44391 31.428 14.1904 -1.44391
250 1 32.4175 15.8462 0.154999 32.4175 15.8462 0.154999
251 2 34.3606 15.867 1.73627 34.3606 15.867 1.73627
252 2 34.2762 15.8252 -1.52453 34.2762 15.8252 -1.52453
253 1 35.269 14.1993 0.102582 35.269 14.1993 0.102582
254 2 37.2109 14.2086 1.68536 37.2109 14.2086 1.68536
255 2 37.1286 14.1899 -1.57576 37.1286 14.1899 -1.57576
256 1 38.1202 15.8458 0.0215436 38.1202 15.8458 0.0215436
257 2 40.0566 15.8674 1.61092 40.0566 15.8674 1.61092
258 2 39.9854 15.8241 -1.65028 39.9854 15.8241 -1.65028
259 1 40.9715 14.1991 -0.0183131 40.9715 14.1991 -0.0183131
260 2 42.8983 14.21 1.5828 42.8983 14.21 1.5828
261 2 42.8466 14.188 -1.67902 42.8466 14.188 -1.67902
262 1 43.823 15.8455 -0.0740405 43.823 15.8455 -0.0740405
263 2 45.738 15.8688 1.54101 45.738 15.8688 1.54101
264 2 45.7101 15.822 -1.72086 45.7101 15.822 -1.72086
265 1 46.6746 14.1989 -0.074177 46.6746 14.1989 -0.074177
266 2 48.5758 14.2117 1.55718 48.5758 14.2117 1.55718
267 2 48.5755 14.1859 -1.70505 48.5755 14.1859 -1.70505
268 1 49.5263 15.8453 -0.086849 49.5263 15.8453 -0.086849
269 2 51.4146 15.8701 1.55933 51.4146 15.8701 1.55933
270 2 51.44 15.8204 -1.70251 51.44 15.8204 -1.70251
271 1 1.04656 17.4917 -0.0890898 1.04656 17.4917 -0.0890898
272 2 2.92348 17.5271 1.57 2.92348 17.5271 1.57
273 2 2.97164 17.4562 -1.69115 2.97164 17.4562 -1.69115
274 1 3.89821 19.138 -0.0822079 3.89821 19.138 -0.0822079
275 2 5.76661 19.1826 1.58627 5.76661 19.1826 1.58627
276 2 5.83163 19.0935 -1.67409 5.83163 19.0935 -1.67409
277 1 6.74929 17.4921 0.0203345 6.74929 17.4921 0.0203345
278 2 8.61442 17.5275 1.69272 8.61442 17.5275 1.69272
279 2 8.68596 17.4568 -1.56792 8.68596 17.4568 -1.56792
280 1 9.60081 19.1387 0.0476521 9.60081 19.1387 0.0476521
281 2 11.4664 19.1832 1.71929 11.4664 19.1832 1.71929
282 2 11.5372 19.0944 -1.54088 11.5372 19.0944 -1.54088
283 1 12.452 17.4928 0.155008 12.452 17.4928 0.155008
284 2 14.3241 17.5273 1.81971 14.3241 17.5273 1.81971
285 2 14.3825 17.4582 -1.44113 14.3825 17.4582 -1.44113
286 1 15.304 19.1395 0.171485 15.304 19.1395 0.171485
287 2 17.185 19.1833 1.82583 17.185 19.1833 1.82583
288 2 17.226 19.0957 -1.43482 17.226 19.0957 -1.43482
289 1 18.1561 17.4933 0.251926 18.1561 17.4933 0.251926
290 2 20.0503 17.5268 1.89136 20.0503 17.5268 1.89136
291 2 20.0653 17.4597 -1.36995 20.0653 17.4597 -1.36995
292 1 21.0087 19.1399 0.231224 21.0087 19.1399 0.231224
293 2 22.9157 19.1829 1.85537 22.9157 19.1829 1.85537
294 2 22.905 19.0969 -1.40554 22.905 19.0969 -1.40554
295 1 23.8613 17.4934 0.265391 23.8613 17.4934 0.265391
296 2 25.7822 17.526 1.8734 25.7822 17.526 1.8734
297 2 25.7436 17.4606 -1.38776 25.7436 17.4606 -1.38776
298 1 26.7136 19.1399 0.198574 26.7136 19.1399 0.198574
299 2 28.6447 19.182 1.79397 28.6447 19.182 1.79397
300 2 28.5851 19.0975 -1.46648 28.5851 19.0975 -1.46648
301 1 29.5658 17.4931 0.189275 29.5658 17.4931 0.189275
302 2 31.5051 17.5251 1.77496 31.5051 17.5251 1.77496
303 2 31.4286 17.4609 -1.48563 31.4286 17.4609 -1.48563
304 1 32.4173 19.1393 0.0899668 32.4173 19.1393 0.0899668
305 2 34.3594 19.181 1.67189 34.3594 19.181 1.67189
306 2 34.2769 19.0974 -1.58816 34.2769 19.0974 -1.58816
307 1 35.2688 17.4926 0.0602568 35.2688 17.4926 0.0602568
308 2 37.2105 17.5246 1.643 37.2105 17.5246 1.643
309 2 37.1287 17.4604 -1.61755 37.1287 17.4604 -1.61755
310 1 38.1199 19.1386 -0.0434647 38.1199 19.1386 -0.0434647
311 2 40.0559 19.1804 1.54592 40.0559 19.1804 1.54592
312 2 39.9856 19.0965 -1.71448 39.9856 19.0965 -1.71448
313 1 40.9714 17.492 -0.0621504 40.9714 17.492 -0.0621504
314 2 42.8986 17.525 1.53818 42.8986 17.525 1.53818
315 2 42.8462 17.4588 -1.72302 42.8462 17.4588 -1.72302
316 1 43.8229 19.138 -0.140993 43.8229 19.138 -0.140993
317 2 45.738 19.1808 1.47356 45.738 19.1808 1.47356
318 2 45.71 19.0949 -1.78748 45.71 19.0949 -1.78748
319 1 46.6746 17.4916 -0.121507 46.6746 17.4916 -0.121507
320 2 48.5763 17.5261 1.50905 48.5763 17.5261 1.50905
321 2 48.5752 17.457 -1.75252 48.5752 17.457 -1.75252
322 1 49.5264 19.1377 -0.156837 49.5264 19.1377 -0.156837
323 2 51.4146 19.1816 1.48914 51.4146 19.1816 1.48914
324 2 51.4405 19.0937 -1.77185 51.4405 19.0937 -1.77185
325 1 1.04687 20.7837 -0.178149 1.04687 20.7837 -0.178149
326 2 2.92315 20.8351 1.48126 2.92315 20.8351 1.48126
327 2 2.97273 20.7323 -1.77898 2.97273 20.7323 -1.77898
328 1 3.89869 22.4298 -0.186275 3.89869 22.4298 -0.186275
329 2 5.76616 22.4865 1.48286 5.76616 22.4865 1.48286
330 2 5.83314 22.3731 -1.77668 5.83314 22.3731 -1.77668
331 1 6.7498 20.7844 -0.0698615 6.7498 20.7844 -0.0698615
332 2 8.6138 20.8363 1.6033 8.6138 20.8363 1.6033
333 2 8.68757 20.7325 -1.6564 8.68757 20.7325 -1.6564
334 1 9.60141 22.4306 -0.0574454 9.60141 22.4306 -0.0574454
335 2 11.4656 22.488 1.61521 11.4656 22.488 1.61521
336 2 11.5391 22.3735 -1.64411 11.5391 22.3735 -1.64411
337 1 12.4525 20.7853 0.0650502 12.4525 20.7853 0.0650502
338 2 14.323 20.8372 1.73091 14.323 20.8372 1.73091
339 2 14.3844 20.7335 -1.52899 14.3844 20.7335 -1.52899
340 1 15.3045 22.4316 0.0664398 15.3045 22.4316 0.0664398
341 2 17.1837 22.489 1.72215 17.1837 22.489 1.72215
342 2 17.2279 22.3743 -1.53766 17.2279 22.3743 -1.53766
343 1 18.1563 20.786 0.163263 18.1563 20.786 0.163263
344 2 20.0489 20.8374 1.80403 20.0489 20.8374 1.80403
345 2 20.067 20.7346 -1.45639 20.067 20.7346 -1.45639
346 1 21.0088 22.4322 0.12715 21.0088 22.4322 0.12715
347 2 22.914 22.4892 1.7528 22.914 22.4892 1.7528
348 2 22.9067 22.3752 -1.50732 22.9067 22.3752 -1.50732
349 1 23.8612 20.7862 0.17836 23.8612 20.7862 0.17836
350 2 25.7805 20.8369 1.78765 25.7805 20.8369 1.78765
351 2 25.7449 20.7354 -1.47267 25.7449 20.7354 -1.47267
352 1 26.7133 22.4321 0.0957477 26.7133 22.4321 0.0957477
353 2 28.6427 22.4885 1.69265 28.6427 22.4885 1.69265
354 2 28.5864 22.3755 -1.56704 28.5864 22.3755 -1.56704
355 1 29.5654 20.7859 0.10364 29.5654 20.7859 0.10364
356 2 31.5033 20.8359 1.69047 31.5033 20.8359 1.69047
357 2 31.4296 20.7356 -1.56929 31.4296 20.7356 -1.56929
358 1 32.4168 22.4314 -0.0116336 32.4168 22.4314 -0.0116336
359 2 34.3573 22.4872 1.57171 34.3573 22.4872 1.57171
360 2 34.278 22.3755 -1.68759 34.278 22.3755 -1.68759
361 1 35.2684 20.7851 -0.0244506 35.2684 20.7851 -0.0244506
362 2 37.209 20.8347 1.55911 37.209 20.8347 1.55911
363 2 37.1295 20.7352 -1.7006 37.1295 20.7352 -1.7006
364 1 38.1195 22.4305 -0.144199 38.1195 22.4305 -0.144199
365 2 40.0542 22.4858 1.44628 40.0542 22.4858 1.44628
366 2 39.9866 22.375 -1.81336 39.9866 22.375 -1.81336
367 1 40.9711 20.7843 -0.147122 40.9711 20.7843 -0.147122
368 2 42.8977 20.834 1.45345 42.8977 20.834 1.45345
369 2 42.8466 20.7342 -1.80688 42.8466 20.7342 -1.80688
370 1 43.8227 22.4297 -0.242 43.8227 22.4297 -0.242
371 2 45.7369 22.485 1.37318 45.7369 22.485 1.37318
372 2 45.7109 22.3742 -1.88707 45.7109 22.3742 -1.88707
373 1 46.6746 20.7837 -0.208366 46.6746 20.7837 -0.208366
374 2 48.576 20.8342 1.4222 48.576 20.8342 1.4222
375 2 48.5757 20.733 -1.8385 48.5757 20.733 -1.8385
376 1 49.5266 22.4294 -0.25928 49.5266 22.4294 -0.25928
377 2 51.4141 22.4853 1.38719 51.4141 22.4853 1.38719
378 2 51.4416 22.3734 -1.873 51.4416 22.3734 -1.873
379 1 1.04723 24.0752 -0.291366 1.04723 24.0752 -0.291366
380 2 2.92257 24.134 1.36886 2.92257 24.134 1.36886
381 2 2.9742 24.0164 -1.89081 2.9742 24.0164 -1.89081
382 1 3.89921 25.7211 -0.305402 3.89921 25.7211 -0.305402
383 2 5.76567 25.7805 1.36474 5.76567 25.7805 1.36474
384 2 5.83477 25.6619 -1.89455 5.83477 25.6619 -1.89455
385 1 6.75041 24.0759 -0.184663 6.75041 24.0759 -0.184663
386 2 8.6133 24.1357 1.48941 8.6133 24.1357 1.48941
387 2 8.6893 24.0162 -1.7697 8.6893 24.0162 -1.7697
388 1 9.60207 25.722 -0.178407 9.60207 25.722 -0.178407
389 2 11.4651 25.7824 1.49542 11.4651 25.7824 1.49542
390 2 11.5409 25.6618 -1.76366 11.5409 25.6618 -1.76366
391 1 12.4531 24.0769 -0.0509432 12.4531 24.0769 -0.0509432
392 2 14.3221 24.1373 1.6162 14.3221 24.1373 1.6162
393 2 14.3863 24.0166 -1.6431 14.3863 24.0166 -1.6431
394 1 15.305 25.7229 -0.0558271 15.305 25.7229 -0.0558271
395 2 17.1825 25.784 1.60144 17.1825 25.784 1.60144
396 2 17.2298 25.6621 -1.65813 17.2298 25.6621 -1.65813
397 1 18.1566 24.0777 0.0471374 18.1566 24.0777 0.0471374
398 2 20.0473 24.1383 1.68951 20.0473 24.1383 1.68951
399 2 20.0688 24.0172 -1.57033 20.0688 24.0172 -1.57033
400 1 21.0088 25.7236 0.00458174 21.0088 25.7236 0.00458174
401 2 22.9121 25.7848 1.63206 22.9121 25.7848 1.63206
402 2 22.9083 25.6624 -1.62784 22.9083 25.6624 -1.62784
403 1 23.861 24.078 0.0628926 23.861 24.078 0.0628926
404 2 25.7784 24.1382 1.67392 25.7784 24.1382 1.67392
405 2 25.7464 24.0177 -1.58585 25.7464 24.0177 -1.58585
406 1 26.7129 25.7235 -0.0263745 26.7129 25.7235 -0.0263745
407 2 28.6403 25.7844 1.57256 28.6403 25.7844 1.57256
408 2 28.5879 25.6625 -1.68693 28.5879 25.6625 -1.68693
409 1 29.5649 24.0776 -0.0107788 29.5649 24.0776 -0.0107788
410 2 31.5009 24.1372 1.57788 31.5009 24.1372 1.57788
411 2 31.431 24.0177 -1.68135 31.431 24.0177 -1.68135
412 1 32.4161 25.7228 -0.132652 32.4161 25.7228 -0.132652
413 2 34.3546 25.783 1.45289 34.3546 25.783 1.45289
414 2 34.2794 25.6625 -1.8062 34.2794 25.6625 -1.8062
415 1 35.2678 24.0767 -0.137582 35.2678 24.0767 -0.137582
416 2 37.2066 24.1356 1.44775 37.2066 24.1356 1.44775
417 2 37.1308 24.0176 -1.81142 37.1308 24.0176 -1.81142
418 1 38.1189 25.7219 -0.263653 38.1189 25.7219 -0.263653
419 2 40.0517 25.7811 1.32897 40.0517 25.7811 1.32897
420 2 39.9882 25.6625 -1.93044 39.9882 25.6625 -1.93044
421 1 40.9707 24.0758 -0.259251 40.9707 24.0758 -0.259251
422 2 42.8959 24.134 1.34276 42.8959 24.134 1.34276
423 2 42.8479 24.0173 -1.917 42.8479 24.0173 -1.917
424 1 43.8224 25.7211 -0.360147 43.8224 25.7211 -0.360147
425 2 45.7351 25.7795 1.2568 45.7351 25.7795 1.2568
426 2 45.7125 25.6625 -2.00319 45.7125 25.6625 -2.00319
427 1 46.6745 24.0752 -0.320508 46.6745 24.0752 -0.320508
428 2 48.5748 24.1334 1.31109 48.5748 24.1334 1.31109
429 2 48.577 24.0169 -1.94903 48.577 24.0169 -1.94903
430 1 49.5267 25.7208 -0.37723 49.5267 25.7208 -0.37723
431 2 51.413 25.7793 1.27051 51.413 25.7793 1.27051
432 2 51.4431 25.6622 -1.98941 51.4431 25.6622 -1.98941
433 1 1.04756 27.3666 -0.409908 1.04756 27.3666 -0.409908
434 2 2.9218 27.4231 1.25165 2.9218 27.4231 1.25165
435 2 2.97582 27.3103 -2.0081 2.97582 27.3103 -2.0081
436 1 3.89968 29.0128 -0.419554 3.89968 29.0128 -0.419554
437 2 5.76514 29.0647 1.25192 5.76514 29.0647 1.25192
438 2 5.83634 28.9611 -2.0078 5.83634 28.9611 -2.0078
439 1 6.75103 27.3672 -0.30479 6.75103 27.3672 -0.30479
440 2 8.61289 27.4246 1.37044 8.61289 27.4246 1.37044
441 2 8.69095 27.31 -1.88879 8.69095 27.31 -1.88879
442 1 9.60267 29.0135 -0.294468 9.60267 29.0135 -0.294468
443 2 11.4646 29.0664 1.38068 11.4646 29.0664 1.38068
444 2 11.5425 28.9609 -1.87889 11.5425 28.9609 -1.87889
445 1 12.4537 27.3681 -0.173076 12.4537 27.3681 -0.173076
446 2 14.3213 27.4265 1.49549 14.3213 27.4265 1.49549
447 2 14.3881 27.31 -1.76396 14.3881 27.31 -1.76396
448 1 15.3054 29.0143 -0.173859 15.3054 29.0143 -0.173859
449 2 17.1816 29.0681 1.48497 17.1816 29.0681 1.48497
450 2 17.2313 28.9607 -1.77513 17.2313 28.9607 -1.77513
451 1 18.1569 27.3689 -0.0763211 18.1569 27.3689 -0.0763211
452 2 20.0459 27.428 1.56779 20.0459 27.428 1.56779
453 2 20.0705 27.31 -1.69221 20.0705 27.31 -1.69221
454 1 21.0089 29.0148 -0.114851 21.0089 29.0148 -0.114851
455 2 22.9106 29.0694 1.51446 22.9106 29.0694 1.51446
456 2 22.9096 28.9604 -1.74598 22.9096 28.9604 -1.74598
457 1 23.8608 27.3692 -0.0610352 23.8608 27.3692 -0.0610352
458 2 25.7763 27.4284 1.55202 25.7763 27.4284 1.55202
459 2 25.7479 27.31 -1.70792 25.7479 27.31 -1.70792
460 1 26.7125 29.0148 -0.146348 26.7125 29.0148 -0.146348
461 2 28.638 29.0694 1.45479 28.638 29.0694 1.45479
462 2 28.5891 28.9601 -1.80524 28.5891 28.9601 -1.80524
463 1 29.5644 27.3688 -0.134264 29.5644 27.3688 -0.134264
464 2 31.4983 27.4277 1.45672 31.4983 27.4277 1.45672
465 2 31.4324 27.3099 -1.80269 31.4324 27.3099 -1.80269
466 1 32.4155 29.0142 -0.251951 32.4155 29.0142 -0.251951
467 2 34.3519 29.0682 1.33619 34.3519 29.0682 1.33619
468 2 34.2809 28.9601 -1.92343 34.2809 28.9601 -1.92343
469 1 35.2671 27.368 -0.259664 35.2671 27.368 -0.259664
470 2 37.2038 27.4259 1.32822 37.2038 27.4259 1.32822
471 2 37.1324 27.31 -1.93111 37.1324 27.31 -1.93111
472 1 38.1183 29.0134 -0.381021 38.1183 29.0134 -0.381021
473 2 40.0489 29.0662 1.21442 40.0489 29.0662 1.21442
474 2 39.9899 28.9606 -2.04548 39.9899 28.9606 -2.04548
475 1 40.9702 27.3671 -0.37932 40.9702 27.3671 -0.37932
476 2 42.8934 27.4238 1.22512 42.8934 27.4238 1.22512
477 2 42.8497 27.3104 -2.03476 42.8497 27.3104 -2.03476
478 1 43.8221 29.0127 -0.475076 43.8221 29.0127 -0.475076
479 2 45.7329 29.0643 1.14438 45.7329 29.0643 1.14438
480 2 45.7144 28.9611 -2.11604 45.7144 28.9611 -2.11604
481 1 46.6745 27.3666 -0.439032 46.6745 27.3666 -0.439032
482 2 48.5732 27.4227 1.19447 48.5732 27.4227 1.19447
483 2 48.5788 27.3105 -2.06573 48.5788 27.3105 -2.06573
484 1 49.5268 29.0125 -0.490786 49.5268 29.0125 -0.490786
485 2 51.4118 29.0638 1.15878 51.4118 29.0638 1.15878
486 2 51.4449 28.9613 -2.10155 51.4449 28.9613 -2.10155
487 1 1.04784 30.6588 -0.513672 1.04784 30.6588 -0.513672
488 2 2.92097 30.7031 1.14951 2.92097 30.7031 1.14951
489 2 2.97738 30.6146 -2.1109 2.97738 30.6146 -2.1109
490 1 3.90003 32.3054 -0.509105 3.90003 32.3054 -0.509105
491 2 5.7646 32.3406 1.16378 5.7646 32.3406 1.16378
492 2 5.83766 32.2703 -2.09676 5.83766 32.2703 -2.09676
493 1 6.75153 30.6592 -0.40968 6.75153 30.6592 -0.40968
494 2 8.61248 30.7042 1.26688 8.61248 30.7042 1.26688
495 2 8.69239 30.6145 -1.99307 8.69239 30.6145 -1.99307
496 1 9.60312 32.3058 -0.385338 9.60312 32.3058 -0.385338
497 2 11.4642 32.3418 1.29106 11.4642 32.3418 1.29106
498 2 11.5436 32.2701 -1.9694 11.5436 32.2701 -1.9694
499 1 12.4542 30.6599 -0.27991 12.4542 30.6599 -0.27991
500 2 14.3208 30.7058 1.39003 14.3208 30.7058 1.39003
501 2 14.3894 30.6142 -1.8702 14.3894 30.6142 -1.8702
502 1 15.3057 32.3064 -0.26661 15.3057 32.3064 -0.26661
503 2 17.1812 32.3433 1.39342 17.1812 32.3433 1.39342
504 2 17.2323 32.2696 -1.86763 17.2323 32.2696 -1.86763
505 1 18.1571 30.6605 -0.185105 18.1571 30.6605 -0.185105
506 2 20.045 30.7074 1.46053 20.045 30.7074 1.46053
507 2 20.0716 30.6137 -1.80029 20.0716 30.6137 -1.80029
508 1 21.0089 32.3067 -0.209715 21.0089 32.3067 -0.209715
509 2 22.9097 32.3448 1.42094 22.9097 32.3448 1.42094
510 2 22.9103 32.2688 -1.84048 22.9103 32.2688 -1.84048
511 1 23.8607 30.6607 -0.171348 23.8607 30.6607 -0.171348
512 2 25.7747 30.7084 1.44356 25.7747 30.7084 1.44356
513 2 25.7489 30.6131 -1.81722 25.7489 30.6131 -1.81722
514 1 26.7122 32.3067 -0.242772 26.7122 32.3067 -0.242772
515 2 28.6364 32.3454 1.36016 28.6364 32.3454 1.36016
516 2 28.5899 32.2681 -1.90086 28.5899 32.2681 -1.90086
517 1 29.5638 30.6604 -0.244999 29.5638 30.6604 -0.244999
518 2 31.496 30.708 1.34832 31.496 30.708 1.34832
519 2 31.4335 30.6128 -1.91192 31.4335 30.6128 -1.91192
520 1 32.4149 32.3063 -0.348435 32.4149 32.3063 -0.348435
521 2 34.3496 32.3446 1.24211 34.3496 32.3446 1.24211
522 2 34.282 32.268 -2.01848 34.282 32.268 -2.01848
523 1 35.2665 30.6598 -0.369242 35.2665 30.6598 -0.369242
524 2 37.2011 30.7065 1.22146 37.2011 30.7065 1.22146
525 2 37.134 30.6131 -2.03867 37.134 30.6131 -2.03867
526 1 38.1178 32.3057 -0.475627 38.1178 32.3057 -0.475627
527 2 40.0464 32.3428 1.12266 40.0464 32.3428 1.12266
528 2 39.9916 32.2687 -2.13814 39.9916 32.2687 -2.13814
529 1 40.9698 30.6591 -0.486324 40.9698 30.6591 -0.486324
530 2 42.8909 30.7043 1.12099 42.8909 30.7043 1.12099
531 2 42.8516 30.6139 -2.13961 42.8516 30.6139 -2.13961
532 1 43.8219 32.3053 -0.566684 43.8219 32.3053 -0.566684
533 2 45.7308 32.341 1.05539 45.7308 32.341 1.05539
534 2 45.7162 32.2697 -2.20586 45.7162 32.2697 -2.20586
535 1 46.6744 30.6587 -0.543536 46.6744 30.6587 -0.543536
536 2 48.5715 30.703 1.09228 48.5715 30.703 1.09228
537 2 48.5806 30.6146 -2.16859 48.5806 30.6146 -2.16859
538 1 49.5269 32.3052 -0.580364 49.5269 32.3052 -0.580364
539 2 51.4106 32.3402 1.07111 51.4106 32.3402 1.07111
540 2 51.4464 32.2702 -2.19 51.4464 32.2702 -2.19