ITEM: TIMESTEP
22000
ITEM: NUMBER OF ATOMS
810
ITEM: BOX BOUNDS pp pp pp
8.5079266983506241e-01 5.2166812330164497e+01
8.1892269185091748e-01 5.0197292308147929e+01
-1.0000000000000000e+01 1.0000000000000000e+01
ITEM: ATOMS id type x y z xu yu zu
1 1 1.05582 1.03096 -0.416768 1.05582 1.03096 -0.416768
2 2 2.91722 1.0964 1.2586 2.91722 1.0964 1.2586
3 2 2.9957 0.965587 -1.99999 2.9957 0.965587 -1.99999
4 1 3.90722 2.67666 -0.414046 3.90722 2.67666 -0.414046
5 2 5.75595 2.73757 1.27544 5.75595 2.73757 1.27544
6 2 5.85908 2.61596 -1.98281 5.85908 2.61596 -1.98281
7 1 6.75718 1.03183 -0.262 6.75718 1.03183 -0.262
8 2 8.60173 1.09524 1.43184 8.60173 1.09524 1.43184
9 2 8.71272 0.968639 -1.826 8.71272 0.968639 -1.826
10 1 9.60775 2.67782 -0.228846 9.60775 2.67782 -0.228846
11 2 11.4518 2.73668 1.46557 11.4518 2.73668 1.46557
12 2 11.5637 2.6193 -1.7926 11.5637 2.6193 -1.7926
13 1 12.4574 1.03318 -0.0714445 12.4574 1.03318 -0.0714445
14 2 14.3107 1.09457 1.61262 14.3107 1.09457 1.61262
15 2 14.4047 0.972122 -1.64593 14.4047 0.972122 -1.64593
16 1 15.3082 2.67919 -0.0512969 15.3082 2.67919 -0.0512969
17 2 17.1742 2.73692 1.61862 17.1742 2.73692 1.61862
18 2 17.2434 2.62183 -1.64087 17.2434 2.62183 -1.64087
19 1 18.159 1.03443 0.0672497 18.159 1.03443 0.0672497
20 2 20.0445 1.09479 1.71501 20.0445 1.09479 1.71501
21 2 20.0756 0.974341 -1.54483 20.0756 0.974341 -1.54483
22 1 21.0106 2.68012 0.0330883 21.0106 2.68012 0.0330883
23 2 22.9157 2.7381 1.65803 22.9157 2.7381 1.65803
24 2 22.9076 2.62236 -1.60217 22.9076 2.62236 -1.60217
25 1 23.8623 1.03492 0.083992 23.8623 1.03492 0.083992
26 2 25.7878 1.09581 1.68473 25.7878 1.09581 1.68473
27 2 25.7387 0.97408 -1.57483 25.7387 0.97408 -1.57483
28 1 26.7134 2.68008 -0.0210865 26.7134 2.68008 -0.0210865
29 2 28.6548 2.73952 1.56023 28.6548 2.73952 1.56023
30 2 28.5729 2.62059 -1.6988 28.5729 2.62059 -1.6988
31 1 29.5645 1.03432 -0.0331099 29.5645 1.03432 -0.0331099
32 2 31.5169 1.097 1.53454 31.5169 1.097 1.53454
33 2 31.4123 0.971452 -1.72356 31.4123 0.971452 -1.72356
34 1 32.4142 2.679 -0.188683 32.4142 2.679 -0.188683
35 2 34.3704 2.74039 1.37428 34.3704 2.74039 1.37428
36 2 34.2578 2.6174 -1.88364 34.2578 2.6174 -1.88364
37 1 35.2646 1.03294 -0.22537 35.2646 1.03294 -0.22537
38 2 37.2181 1.0978 1.34112 37.2181 1.0978 1.34112
39 2 37.1113 0.967851 -1.91671 37.1113 0.967851 -1.91671
40 1 38.1143 2.67752 -0.384776 38.1143 2.67752 -0.384776
41 2 40.0583 2.74064 1.19377 40.0583 2.74064 1.19377
42 2 39.9714 2.61425 -2.06475 39.9714 2.61425 -2.06475
43 1 40.9655 1.03157 -0.396871 40.9655 1.03157 -0.396871
44 2 42.8956 1.09799 1.19856 42.8956 1.09799 1.19856
45 2 42.8371 0.965037 -2.06036 42.8371 0.965037 -2.06036
46 1 43.8166 2.67642 -0.515288 43.8166 2.67642 -0.515288
47 2 45.7289 2.74018 1.10182 45.7289 2.74018 1.10182
48 2 45.7069 2.61266 -2.1577 45.7069 2.61266 -2.1577
49 1 46.6685 1.03085 -0.469777 46.6685 1.03085 -0.469777
50 2 48.5631 1.09745 1.168 48.5631 1.09745 1.168
51 2 48.5764 0.964234 -2.0914 48.5764 0.964234 -2.0914
52 1 49.5205 2.67613 -0.525234 49.5205 2.67613 -0.525234
53 2 51.3961 2.73899 1.13437 51.3961 2.73899 1.13437
54 2 51.4471 2.61336 -2.12491 51.4471 2.61336 -2.12491
55 1 1.05645 4.3219 -0.544061 1.05645 4.3219 -0.544061
56 2 2.91525 4.37769 1.13464 2.91525 4.37769 1.13464
57 2 2.99917 4.26632 -2.12446 2.99917 4.26632 -2.12446
58 1 3.90797 5.96815 -0.526909 3.90797 5.96815 -0.526909
59 2 5.75401 6.01433 1.16602 5.75401 6.01433 1.16602
60 2 5.86256 5.92225 -2.09298 5.86256 5.92225 -2.09298
61 1 6.75814 4.32274 -0.385244 6.75814 4.32274 -0.385244
62 2 8.59975 4.37642 1.3121 8.59975 4.37642 1.3121
63 2 8.7165 4.26939 -1.94622 8.7165 4.26939 -1.94622
64 1 9.60855 5.96912 -0.3373 9.60855 5.96912 -0.3373
65 2 11.4501 6.01382 1.36011 11.4501 6.01382 1.36011
66 2 11.5667 5.9248 -1.89882 11.5667 5.9248 -1.89882
67 1 12.4582 4.324 -0.190378 12.4582 4.324 -0.190378
68 2 14.3089 4.37642 1.49665 14.3089 4.37642 1.49665
69 2 14.4077 4.27198 -1.76244 14.4077 4.27198 -1.76244
70 1 15.3087 5.97024 -0.157081 15.3087 5.97024 -0.157081
71 2 17.173 6.01498 1.51488 17.173 6.01498 1.51488
72 2 17.2453 5.92589 -1.74543 17.2453 5.92589 -1.74543
73 1 18.1593 4.32515 -0.0492969 18.1593 4.32515 -0.0492969
74 2 20.0431 4.37773 1.60047 20.0431 4.37773 1.60047
75 2 20.0772 4.27292 -1.65998 20.0772 4.27292 -1.65998
76 1 21.0106 5.97102 -0.072996 21.0106 5.97102 -0.072996
77 2 22.9149 6.01712 1.55305 22.9149 6.01712 1.55305
78 2 22.9081 5.92519 -1.70799 22.9081 5.92519 -1.70799
79 1 23.8621 4.32562 -0.0331592 23.8621 4.32562 -0.0331592
80 2 25.7866 4.37951 1.56861 25.7866 4.37951 1.56861
81 2 25.739 4.27185 -1.69156 25.739 4.27185 -1.69156
82 1 26.7129 5.971 -0.130047 26.7129 5.971 -0.130047
83 2 28.6538 6.01886 1.45194 28.6538 6.01886 1.45194
84 2 28.5726 5.92315 -1.80794 28.5726 5.92315 -1.80794
85 1 29.5637 4.32505 -0.153496 29.5637 4.32505 -0.153496
86 2 31.5157 4.38068 1.41476 31.5157 4.38068 1.41476
87 2 31.4117 4.2693 -1.84391 31.4117 4.2693 -1.84391
88 1 32.4133 5.97009 -0.301447 32.4133 5.97009 -0.301447
89 2 34.3692 6.01935 1.26232 34.3692 6.01935 1.26232
90 2 34.2573 5.92067 -1.99644 34.2573 5.92067 -1.99644
91 1 35.2636 4.32374 -0.349906 35.2636 4.32374 -0.349906
92 2 37.2167 4.38094 1.21738 37.2167 4.38094 1.21738
93 2 37.1109 4.26635 -2.04103 37.1109 4.26635 -2.04103
94 1 38.1134 5.96882 -0.500819 38.1134 5.96882 -0.500819
95 2 40.0568 6.01895 1.07902 40.0568 6.01895 1.07902
96 2 39.9715 5.9186 -2.18039 39.9715 5.9186 -2.18039
97 1 40.9647 4.32243 -0.524874 40.9647 4.32243 -0.524874
98 2 42.894 4.38054 1.07207 42.894 4.38054 1.07207
99 2 42.8377 4.26428 -2.18743 42.8377 4.26428 -2.18743
100 1 43.8162 5.96789 -0.633044 43.8162 5.96789 -0.633044
101 2 45.7271 6.01785 0.986265 45.7271 6.01785 0.986265
102 2 45.7083 5.91801 -2.27415 45.7083 5.91801 -2.27415
103 1 46.6685 4.32176 -0.598944 46.6685 4.32176 -0.598944
104 2 48.5612 4.37936 1.0414 48.5612 4.37936 1.0414
105 2 48.5786 4.26426 -2.21856 48.5786 4.26426 -2.21856
106 1 49.5208 5.96768 -0.641844 49.5208 5.96768 -0.641844
107 2 51.3942 6.01605 1.02088 51.3942 6.01605 1.02088
108 2 51.4499 5.91949 -2.23922 51.4499 5.91949 -2.23922
109 1 1.05691 7.61413 -0.641907 1.05691 7.61413 -0.641907
110 2 2.91333 7.65097 1.04003 2.91333 7.65097 1.04003
111 2 3.00218 7.5775 -2.21995 3.00218 7.5775 -2.21995
112 1 3.90842 9.26093 -0.601373 3.90842 9.26093 -0.601373
113 2 5.75236 9.28492 1.09434 5.75236 9.28492 1.09434
114 2 5.86513 9.23712 -2.16543 5.86513 9.23712 -2.16543
115 1 6.7588 7.61475 -0.478556 6.7588 7.61475 -0.478556
116 2 8.59814 7.64976 1.22172 8.59814 7.64976 1.22172
117 2 8.71935 7.58002 -2.03744 8.71935 7.58002 -2.03744
118 1 9.60899 9.26148 -0.407967 9.60899 9.26148 -0.407967
119 2 11.4492 9.28467 1.29132 11.4492 9.28467 1.29132
120 2 11.5684 9.2385 -1.96842 11.5684 9.2385 -1.96842
121 1 12.4587 7.61563 -0.280561 12.4587 7.61563 -0.280561
122 2 14.308 7.65038 1.40845 14.308 7.65038 1.40845
123 2 14.4095 7.58121 -1.85154 14.4095 7.58121 -1.85154
124 1 15.309 9.26211 -0.227109 15.309 9.26211 -0.227109
125 2 17.1729 9.28647 1.4456 17.1729 9.28647 1.4456
126 2 17.2457 9.23801 -1.8156 17.2457 9.23801 -1.8156
127 1 18.1595 7.61645 -0.139474 18.1595 7.61645 -0.139474
128 2 20.0426 7.65261 1.51126 20.0426 7.65261 1.51126
129 2 20.0778 7.58062 -1.75013 20.0778 7.58062 -1.75013
130 1 21.0106 9.2626 -0.145821 21.0106 9.2626 -0.145821
131 2 22.915 9.28932 1.4803 22.915 9.28932 1.4803
132 2 22.9076 9.2361 -1.78166 22.9076 9.2361 -1.78166
133 1 23.8618 7.61682 -0.126183 23.8618 7.61682 -0.126183
134 2 25.7862 7.65501 1.47607 25.7862 7.65501 1.47607
135 2 25.7386 7.57878 -1.78505 25.7386 7.57878 -1.78505
136 1 26.7124 9.26263 -0.207181 26.7124 9.26263 -0.207181
137 2 28.6534 9.29128 1.3751 28.6534 9.29128 1.3751
138 2 28.5719 9.23402 -1.8857 28.5719 9.23402 -1.8857
139 1 29.563 7.61642 -0.250368 29.563 7.61642 -0.250368
140 2 31.5147 7.6561 1.31858 31.5147 7.6561 1.31858
141 2 31.4112 7.57667 -1.94106 31.4112 7.57667 -1.94106
142 1 32.4126 9.26209 -0.381872 32.4126 9.26209 -0.381872
143 2 34.368 9.29151 1.18283 34.368 9.29151 1.18283
144 2 34.257 9.23259 -2.07692 34.257 9.23259 -2.07692
145 1 35.2627 7.61544 -0.449824 35.2627 7.61544 -0.449824
146 2 37.2153 7.65584 1.11861 37.2153 7.65584 1.11861
147 2 37.1107 7.57493 -2.14081 37.1107 7.57493 -2.14081
148 1 38.1128 9.26131 -0.58277 38.1128 9.26131 -0.58277
149 2 40.0554 9.29065 0.998514 40.0554 9.29065 0.998514
150 2 39.9718 9.23193 -2.2619 39.9718 9.23193 -2.2619
151 1 40.9642 7.61447 -0.626506 40.9642 7.61447 -0.626506
152 2 42.8924 7.65484 0.972225 42.8924 7.65484 0.972225
153 2 42.8384 7.57411 -2.28831 42.8384 7.57411 -2.28831
154 1 43.8159 9.26075 -0.714819 43.8159 9.26075 -0.714819
155 2 45.7255 9.28911 0.906658 45.7255 9.28911 0.906658
156 2 45.7097 9.23246 -2.35473 45.7097 9.23246 -2.35473
157 1 46.6684 7.61399 -0.700094 46.6684 7.61399 -0.700094
158 2 48.5594 7.65308 0.94296 48.5594 7.65308 0.94296
159 2 48.5807 7.57505 -2.31799 48.5807 7.57505 -2.31799
160 1 49.521 9.26064 -0.720924 49.521 9.26064 -0.720924
161 2 51.3923 9.28686 0.944682 51.3923 9.28686 0.944682
162 2 51.4523 9.23456 -2.31629 51.4523 9.23456 -2.31629
163 1 1.05715 10.9076 -0.694931 1.05715 10.9076 -0.694931
164 2 2.91163 10.9199 0.989566 2.91163 10.9199 0.989566
165 2 3.00441 10.8954 -2.27101 3.00441 10.8954 -2.27101
166 1 3.90854 12.5546 -0.626197 3.90854 12.5546 -0.626197
167 2 5.75106 12.5528 1.07123 5.75106 12.5528 1.07123
168 2 5.86659 12.5563 -2.18878 5.86659 12.5563 -2.18878
169 1 6.75908 10.9078 -0.527003 6.75908 10.9078 -0.527003
170 2 8.59706 10.9186 1.17506 8.59706 10.9186 1.17506
171 2 8.72093 10.8971 -2.08467 8.72093 10.8971 -2.08467
172 1 9.60903 12.5545 -0.429702 9.60903 12.5545 -0.429702
173 2 11.4489 12.5525 1.27005 11.4489 12.5525 1.27005
174 2 11.5688 12.5566 -1.99 11.5688 12.5566 -1.99
175 1 12.4589 10.9081 -0.327306 12.4589 10.9081 -0.327306
176 2 14.3079 10.9195 1.36225 14.3079 10.9195 1.36225
177 2 14.4099 10.8969 -1.8984 14.4099 10.8969 -1.8984
178 1 15.309 12.5546 -0.24993 15.309 12.5546 -0.24993
179 2 17.1737 12.5545 1.42199 17.1737 12.5545 1.42199
180 2 17.2449 12.5548 -1.83962 17.2449 12.5548 -1.83962
181 1 18.1596 10.9085 -0.188486 18.1596 10.9085 -0.188486
182 2 20.0432 10.9222 1.46184 20.0432 10.9222 1.46184
183 2 20.0771 10.8949 -1.80029 20.0771 10.8949 -1.80029
184 1 21.0105 12.5548 -0.173395 21.0105 12.5548 -0.173395
185 2 22.916 12.5576 1.45155 22.916 12.5576 1.45155
186 2 22.9063 12.5521 -1.81086 22.9063 12.5521 -1.81086
187 1 23.8616 10.9087 -0.180007 23.8616 10.9087 -0.180007
188 2 25.7865 10.925 1.42187 25.7865 10.925 1.42187
189 2 25.7377 10.8926 -1.84 25.7377 10.8926 -1.84
190 1 26.7122 12.5549 -0.239993 26.7122 12.5549 -0.239993
191 2 28.6536 12.5596 1.34193 28.6536 12.5596 1.34193
192 2 28.5711 12.5503 -1.91936 28.5711 12.5503 -1.91936
193 1 29.5625 10.9086 -0.308327 29.5625 10.9086 -0.308327
194 2 31.5141 10.9261 1.26107 31.5141 10.9261 1.26107
195 2 31.4107 10.8911 -1.99936 31.4107 10.8911 -1.99936
196 1 32.4122 12.5549 -0.417258 32.4122 12.5549 -0.417258
197 2 34.3673 12.5598 1.14809 34.3673 12.5598 1.14809
198 2 34.257 12.55 -2.11219 34.257 12.55 -2.11219
199 1 35.2622 10.9082 -0.5095 35.2622 10.9082 -0.5095
200 2 37.2142 10.9256 1.06006 37.2142 10.9256 1.06006
201 2 37.1108 10.8907 -2.20019 37.1108 10.8907 -2.20019
202 1 38.1125 12.5547 -0.618069 38.1125 12.5547 -0.618069
203 2 40.0544 12.5589 0.964374 40.0544 12.5589 0.964374
204 2 39.9723 12.5506 -2.29657 39.9723 12.5506 -2.29657
205 1 40.9638 10.9078 -0.685998 40.9638 10.9078 -0.685998
206 2 42.8911 10.9243 0.914358 42.8911 10.9243 0.914358
207 2 42.8392 10.8912 -2.347 42.8392 10.8912 -2.347
208 1 43.8158 12.5546 -0.748414 43.8158 12.5546 -0.748414
209 2 45.7243 12.5573 0.874709 45.7243 12.5573 0.874709
210 2 45.7108 12.5519 -2.38715 45.7108 12.5519 -2.38715
211 1 46.6684 10.9075 -0.757507 46.6684 10.9075 -0.757507
212 2 48.5578 10.9223 0.887872 48.5578 10.9223 0.887872
213 2 48.5825 10.8928 -2.3738 48.5825 10.8928 -2.3738
214 1 49.5211 12.5546 -0.750806 49.5211 12.5546 -0.750806
215 2 51.3907 12.555 0.916945 51.3907 12.555 0.916945
216 2 51.4542 12.5542 -2.34436 51.4542 12.5542 -2.34436
217 1 1.05715 14.2016 -0.69574 1.05715 14.2016 -0.69574
218 2 2.91023 14.1877 0.990292 2.91023 14.1877 0.990292
219 2 3.00571 14.2153 -2.27018 3.00571 14.2153 -2.27018
220 1 3.90829 15.8482 -0.598228 3.90829 15.8482 -0.598228
221 2 5.75014 15.8211 1.09971 5.75014 15.8211 1.09971
222 2 5.86691 15.875 -2.15983 5.86691 15.875 -2.15983
223 1 6.75895 14.2013 -0.523435 6.75895 14.2013 -0.523435
224 2 8.59645 14.1862 1.1791 8.59645 14.1862 1.1791
225 2 8.72123 14.2162 -2.08053 8.72123 14.2162 -2.08053
226 1 9.60866 15.8475 -0.399254 9.60866 15.8475 -0.399254
227 2 11.4492 15.8205 1.29959 11.4492 15.8205 1.29959
228 2 11.5678 15.8743 -1.96005 11.5678 15.8743 -1.96005
229 1 12.4587 14.2009 -0.323114 12.4587 14.2009 -0.323114
230 2 14.3085 14.1869 1.3655 14.3085 14.1869 1.3655
231 2 14.409 14.2149 -1.89516 14.409 14.2149 -1.89516
232 1 15.3087 15.847 -0.22158 15.3087 15.847 -0.22158
233 2 17.1752 15.8222 1.44816 17.1752 15.8222 1.44816
234 2 17.243 15.8717 -1.81314 17.243 15.8717 -1.81314
235 1 18.1595 14.2008 -0.188106 18.1595 14.2008 -0.188106
236 2 20.0447 14.1897 1.46037 20.0447 14.1897 1.46037
237 2 20.0755 14.212 -1.80183 20.0755 14.212 -1.80183
238 1 21.0104 15.8469 -0.150707 21.0104 15.8469 -0.150707
239 2 22.9178 15.8251 1.47189 22.9178 15.8251 1.47189
240 2 22.9044 15.8689 -1.7902 22.9044 15.8689 -1.7902
241 1 23.8615 14.201 -0.185567 23.8615 14.201 -0.185567
242 2 25.7875 14.1925 1.41492 25.7875 14.1925 1.41492
243 2 25.7363 14.2096 -1.84703 25.7363 14.2096 -1.84703
244 1 26.7121 15.8473 -0.222576 26.7121 15.8473 -0.222576
245 2 28.6544 15.8269 1.35819 28.6544 15.8269 1.35819
246 2 28.5702 15.8678 -1.90279 28.5702 15.8678 -1.90279
247 1 29.5623 14.2013 -0.31782 29.5623 14.2013 -0.31782
248 2 31.5141 14.1935 1.25145 31.5141 14.1935 1.25145
249 2 31.4104 14.2091 -2.00912 31.4104 14.2091 -2.00912
250 1 32.4122 15.8478 -0.401458 32.4122 15.8478 -0.401458
251 2 34.3672 15.8271 1.16391 34.3672 15.8271 1.16391
252 2 34.2571 15.8686 -2.09613 34.2571 15.8686 -2.09613
253 1 35.262 14.2015 -0.51948 35.262 14.2015 -0.51948
254 2 37.2135 14.193 1.05075 37.2135 14.193 1.05075
255 2 37.1112 14.2099 -2.20968 37.1112 14.2099 -2.20968
256 1 38.1125 15.8483 -0.600996 38.1125 15.8483 -0.600996
257 2 40.054 15.8265 0.981855 40.054 15.8265 0.981855
258 2 39.9728 15.8701 -2.27884 39.9728 15.8701 -2.27884
259 1 40.9637 14.2016 -0.694449 40.9637 14.2016 -0.694449
260 2 42.8903 14.192 0.906886 42.8903 14.192 0.906886
261 2 42.84 14.2112 -2.3546 42.84 14.2112 -2.3546
262 1 43.8159 15.8486 -0.728971 43.8159 15.8486 -0.728971
263 2 45.7236 15.8254 0.894812 45.7236 15.8254 0.894812
264 2 45.7115 15.8717 -2.36675 45.7115 15.8717 -2.36675
265 1 46.6684 14.2017 -0.763062 46.6684 14.2017 -0.763062
266 2 48.5565 14.1902 0.88379 48.5565 14.1902 0.88379
267 2 48.5838 14.2131 -2.37791 48.5838 14.2131 -2.37791
268 1 49.521 15.8486 -0.727652 49.521 15.8486 -0.727652
269 2 51.3896 15.8233 0.941157 51.3896 15.8233 0.941157
270 2 51.4551 15.8736 -2.31974 51.4551 15.8736 -2.31974
271 1 1.05688 17.4951 -0.644817 1.05688 17.4951 -0.644817
272 2 2.90932 17.4573 1.04154 2.90932 17.4573 1.04154
273 2 3.00591 17.5324 -2.21818 3.00591 17.5324 -2.21818
274 1 3.90772 19.1409 -0.522223 3.90772 19.1409 -0.522223
275 2 5.74974 19.0928 1.17506 5.74974 19.0928 1.17506
276 2 5.86605 19.1884 -2.08356 5.86605 19.1884 -2.08356
277 1 6.75843 17.4942 -0.468817 6.75843 17.4942 -0.468817
278 2 8.59627 17.4557 1.23299 8.59627 17.4557 1.23299
279 2 8.72034 17.5324 -2.02591 8.72034 17.5324 -2.02591
280 1 9.60794 19.1397 -0.321554 9.60794 19.1397 -0.321554
281 2 11.4499 19.092 1.37534 11.4499 19.092 1.37534
282 2 11.5658 19.187 -1.88345 11.5658 19.187 -1.88345
283 1 12.4582 17.4933 -0.268521 12.4582 17.4933 -0.268521
284 2 14.3097 17.4561 1.41791 14.3097 17.4561 1.41791
285 2 14.4069 17.5303 -1.8421 14.4069 17.5303 -1.8421
286 1 15.3082 19.1387 -0.146303 15.3082 19.1387 -0.146303
287 2 17.1772 19.0932 1.52033 17.1772 19.0932 1.52033
288 2 17.2403 19.1843 -1.74011 17.2403 19.1843 -1.74011
289 1 18.1593 17.4928 -0.13786 18.1593 17.4928 -0.13786
290 2 20.0469 17.4583 1.50767 20.0469 17.4583 1.50767
291 2 20.0731 17.5274 -1.75388 20.0731 17.5274 -1.75388
292 1 21.0104 19.1386 -0.0807644 21.0104 19.1386 -0.0807644
293 2 22.9201 19.0953 1.53878 22.9201 19.0953 1.53878
294 2 22.9022 19.182 -1.72238 22.9022 19.182 -1.72238
295 1 23.8615 17.493 -0.141177 23.8615 17.493 -0.141177
296 2 25.7892 17.4607 1.45708 25.7892 17.4607 1.45708
297 2 25.7348 17.5255 -1.80419 25.7348 17.5255 -1.80419
298 1 26.7124 19.1392 -0.15687 26.7124 19.1392 -0.15687
299 2 28.6559 19.0967 1.42213 28.6559 19.0967 1.42213
300 2 28.5693 19.1818 -1.83791 28.5693 19.1818 -1.83791
301 1 29.5624 17.4937 -0.276498 29.5624 17.4937 -0.276498
302 2 31.5147 17.4615 1.29195 31.5147 17.4615 1.29195
303 2 31.4101 17.526 -1.96798 31.4101 17.526 -1.96798
304 1 32.4126 19.1402 -0.33609 32.4126 19.1402 -0.33609
305 2 34.3679 19.0967 1.2286 34.3679 19.0967 1.2286
306 2 34.2573 19.1837 -2.03053 34.2573 19.1837 -2.03053
307 1 35.2623 17.4945 -0.477481 35.2623 17.4945 -0.477481
308 2 37.2136 17.4611 1.09263 37.2136 17.4611 1.09263
309 2 37.1116 17.5279 -2.16717 37.1116 17.5279 -2.16717
310 1 38.113 19.1412 -0.533451 38.113 19.1412 -0.533451
311 2 40.0544 19.0964 1.04887 40.0544 19.0964 1.04887
312 2 39.9731 19.1859 -2.21093 39.9731 19.1859 -2.21093
313 1 40.9639 17.4952 -0.650232 40.9639 17.4952 -0.650232
314 2 42.8902 17.4606 0.951056 42.8902 17.4606 0.951056
315 2 42.8403 17.5296 -2.3098 42.8403 17.5296 -2.3098
316 1 43.8161 19.1418 -0.659137 43.8161 19.1418 -0.659137
317 2 45.7238 19.0961 0.964067 45.7238 19.0961 0.964067
318 2 45.7115 19.1873 -2.2966 45.7115 19.1873 -2.2966
319 1 46.6685 17.4954 -0.716163 46.6685 17.4954 -0.716163
320 2 48.556 17.4595 0.930948 48.556 17.4595 0.930948
321 2 48.5842 17.5311 -2.33008 48.5842 17.5311 -2.33008
322 1 49.5208 19.1417 -0.655188 49.5208 19.1417 -0.655188
323 2 51.3892 19.0948 1.01336 51.3892 19.0948 1.01336
324 2 51.4549 19.1882 -2.24664 51.4549 19.1882 -2.24664
325 1 1.05639 20.7874 -0.550202 1.05639 20.7874 -0.550202
326 2 2.90915 20.7319 1.13525 2.90915 20.7319 1.13525
327 2 3.00484 20.8424 -2.12355 3.00484 20.8424 -2.12355
328 1 3.90691 22.4324 -0.410302 3.90691 22.4324 -0.410302
329 2 5.75 22.3712 1.28537 5.75 22.3712 1.28537
330 2 5.86402 22.493 -1.97251 5.86402 22.493 -1.97251
331 1 6.75759 20.7861 -0.371979 6.75759 20.7861 -0.371979
332 2 8.59657 20.7304 1.32816 8.59657 20.7304 1.32816
333 2 8.71839 20.8413 -1.92985 8.71839 20.8413 -1.92985
334 1 9.60699 22.4308 -0.209214 9.60699 22.4308 -0.209214
335 2 11.451 22.3705 1.48517 11.451 22.3705 1.48517
336 2 11.563 22.4909 -1.77289 11.563 22.4909 -1.77289
337 1 12.4575 20.7847 -0.172248 12.4575 20.7847 -0.172248
338 2 14.3113 20.7304 1.5113 14.3113 20.7304 1.5113
339 2 14.4042 20.8389 -1.74784 14.4042 20.8389 -1.74784
340 1 15.3076 22.4296 -0.036339 15.3076 22.4296 -0.036339
341 2 17.1794 22.3709 1.62699 17.1794 22.3709 1.62699
342 2 17.2373 22.4884 -1.63263 17.2373 22.4884 -1.63263
343 1 18.159 20.784 -0.0455477 18.159 20.784 -0.0455477
344 2 20.0493 20.7318 1.59658 20.0493 20.7318 1.59658
345 2 20.0704 20.8364 -1.66399 20.0704 20.8364 -1.66399
346 1 21.0103 22.4294 0.0252251 21.0103 22.4294 0.0252251
347 2 22.9226 22.372 1.64172 22.9226 22.372 1.64172
348 2 22.9001 22.4872 -1.61844 22.9001 22.4872 -1.61844
349 1 23.8617 20.7843 -0.0534145 23.8617 20.7843 -0.0534145
350 2 25.7914 20.7333 1.54224 25.7914 20.7333 1.54224
351 2 25.7332 20.8357 -1.71793 25.7332 20.8357 -1.71793
352 1 26.7129 22.4302 -0.0531661 26.7129 22.4302 -0.0531661
353 2 28.6577 22.3725 1.52393 28.6577 22.3725 1.52393
354 2 28.5687 22.4882 -1.73504 28.5687 22.4882 -1.73504
355 1 29.563 20.7853 -0.190251 29.563 20.7853 -0.190251
356 2 31.516 20.7336 1.37691 31.516 20.7336 1.37691
357 2 31.41 20.8372 -1.88195 31.41 20.8372 -1.88195
358 1 32.4134 22.4315 -0.231169 32.4134 22.4315 -0.231169
359 2 34.3692 22.3722 1.33248 34.3692 22.3722 1.33248
360 2 34.2576 22.4909 -1.92562 34.2576 22.4909 -1.92562
361 1 35.2629 20.7866 -0.389344 35.2629 20.7866 -0.389344
362 2 37.2145 20.7333 1.17994 37.2145 20.7333 1.17994
363 2 37.1119 20.8399 -2.07882 37.1119 20.8399 -2.07882
364 1 38.1137 22.4328 -0.425567 38.1137 22.4328 -0.425567
365 2 40.0558 22.3721 1.15551 40.0558 22.3721 1.15551
366 2 39.973 22.4935 -2.10329 39.973 22.4935 -2.10329
367 1 40.9644 20.7876 -0.559554 40.9644 20.7876 -0.559554
368 2 42.8911 20.7334 1.04062 42.8911 20.7334 1.04062
369 2 42.8401 20.8417 -2.21921 42.8401 20.8417 -2.21921
370 1 43.8164 22.4336 -0.549374 43.8164 22.4336 -0.549374
371 2 45.7251 22.3725 1.07216 45.7251 22.3725 1.07216
372 2 45.7105 22.4945 -2.18759 45.7105 22.4945 -2.18759
373 1 46.6685 20.788 -0.623751 46.6685 20.788 -0.623751
374 2 48.5564 20.7332 1.02229 48.5564 20.7332 1.02229
375 2 48.5835 20.8424 -2.23779 48.5835 20.8424 -2.23779
376 1 49.5205 22.4335 -0.544554 49.5205 22.4335 -0.544554
377 2 51.3897 22.3724 1.12247 51.3897 22.3724 1.12247
378 2 51.4534 22.4942 -2.13672 51.4534 22.4942 -2.13672
379 1 1.05572 24.0785 -0.426855 1.05572 24.0785 -0.426855
380 2 2.90991 24.0142 1.25665 2.90991 24.0142 1.25665
381 2 3.00249 24.1422 -2.00167 3.00249 24.1422 -2.00167
382 1 3.90596 25.723 -0.280579 3.90596 25.723 -0.280579
383 2 5.75105 25.659 1.4128 5.75105 25.659 1.4128
384 2 5.86099 25.7866 -1.84503 5.86099 25.7866 -1.84503
385 1 6.75657 24.0769 -0.24864 6.75657 24.0769 -0.24864
386 2 8.59741 24.0134 1.44925 8.59741 24.0134 1.44925
387 2 8.71556 24.1401 -1.80833 8.71556 24.1401 -1.80833
388 1 9.60594 25.7214 -0.0809044 9.60594 25.7214 -0.0809044
389 2 11.4524 25.6587 1.61085 11.4524 25.6587 1.61085
390 2 11.5598 25.7839 -1.64714 11.5598 25.7839 -1.64714
391 1 12.4566 24.0754 -0.0502399 12.4566 24.0754 -0.0502399
392 2 14.313 24.0132 1.63034 14.313 24.0132 1.63034
393 2 14.401 24.1376 -1.6283 14.401 24.1376 -1.6283
394 1 15.307 25.7202 0.0896332 15.307 25.7202 0.0896332
395 2 17.1814 25.6586 1.75017 17.1814 25.6586 1.75017
396 2 17.2345 25.782 -1.50923 17.2345 25.782 -1.50923
397 1 18.1586 24.0747 0.0734448 18.1586 24.0747 0.0734448
398 2 20.0516 24.0136 1.71251 20.0516 24.0136 1.71251
399 2 20.0679 24.136 -1.54737 20.0679 24.136 -1.54737
400 1 21.0104 25.72 0.149143 21.0104 25.72 0.149143
401 2 22.9246 25.6584 1.76336 22.9246 25.6584 1.76336
402 2 22.8984 25.782 -1.49636 22.8984 25.782 -1.49636
403 1 23.862 24.075 0.0632136 23.862 24.075 0.0632136
404 2 25.7935 24.0139 1.6566 25.7935 24.0139 1.6566
405 2 25.732 24.1364 -1.60273 25.732 24.1364 -1.60273
406 1 26.7135 25.7208 0.0709221 26.7135 25.7208 0.0709221
407 2 28.6595 25.6579 1.64663 28.6595 25.6579 1.64663
408 2 28.5684 25.784 -1.61183 28.5684 25.784 -1.61183
409 1 29.5637 24.0761 -0.0731215 29.5637 24.0761 -0.0731215
410 2 31.5176 24.0136 1.49277 31.5176 24.0136 1.49277
411 2 31.41 24.1389 -1.76524 31.41 24.1389 -1.76524
412 1 32.4144 25.7221 -0.104283 32.4144 25.7221 -0.104283
413 2 34.3709 25.6572 1.45846 34.3709 25.6572 1.45846
414 2 34.2579 25.7872 -1.79917 34.2579 25.7872 -1.79917
415 1 35.2639 24.0776 -0.269153 35.2639 24.0776 -0.269153
416 2 37.2161 24.0132 1.29903 37.2161 24.0132 1.29903
417 2 37.1121 24.142 -1.95893 37.1121 24.142 -1.95893
418 1 38.1147 25.7234 -0.295112 38.1147 25.7234 -0.295112
419 2 40.0576 25.6571 1.28455 40.0576 25.6571 1.28455
420 2 39.9727 25.7898 -1.97382 39.9727 25.7898 -1.97382
421 1 40.9651 24.0787 -0.436626 40.9651 24.0787 -0.436626
422 2 42.8928 24.0135 1.16178 42.8928 24.0135 1.16178
423 2 42.8393 24.1438 -2.09731 42.8393 24.1438 -2.09731
424 1 43.8167 25.7243 -0.417388 43.8167 25.7243 -0.417388
425 2 45.727 25.6579 1.20193 45.727 25.6579 1.20193
426 2 45.7087 25.7905 -2.05751 45.7087 25.7905 -2.05751
427 1 46.6685 24.0792 -0.500201 46.6685 24.0792 -0.500201
428 2 48.5578 24.0143 1.14373 48.5578 24.0143 1.14373
429 2 48.5816 24.1437 -2.11574 48.5816 24.1437 -2.11574
430 1 49.5201 25.7242 -0.413436 49.5201 25.7242 -0.413436
431 2 51.3912 25.6589 1.25117 51.3912 25.6589 1.25117
432 2 51.4507 25.7891 -2.00787 51.4507 25.7891 -2.00787
433 1 1.055 27.3689 -0.294924 1.055 27.3689 -0.294924
434 2 2.91154 27.3066 1.38598 2.91154 27.3066 1.38598
435 2 2.99919 27.4309 -1.8727 2.99919 27.4309 -1.8727
436 1 3.90506 29.0136 -0.154698 3.90506 29.0136 -0.154698
437 2 5.75283 28.9576 1.53601 5.75283 28.9576 1.53601
438 2 5.85736 29.0694 -1.72262 5.85736 29.0694 -1.72262
439 1 6.75552 27.3675 -0.119276 6.75552 27.3675 -0.119276
440 2 8.59881 27.307 1.57611 8.59881 27.307 1.57611
441 2 8.71216 27.4278 -1.68186 8.71216 27.4278 -1.68186
442 1 9.60498 29.0122 0.0414917 9.60498 29.0122 0.0414917
443 2 11.454 28.9581 1.73084 11.454 28.9581 1.73084
444 2 11.5565 29.0663 -1.52789 11.5565 29.0663 -1.52789
445 1 12.4557 27.3661 0.0766729 12.4557 27.3661 0.0766729
446 2 14.3147 27.3069 1.75473 14.3147 27.3069 1.75473
447 2 14.398 27.4253 -1.50419 14.398 27.4253 -1.50419
448 1 15.3064 29.0113 0.209571 15.3064 29.0113 0.209571
449 2 17.1829 28.9577 1.86826 17.1829 28.9577 1.86826
450 2 17.2322 29.065 -1.39167 17.2322 29.065 -1.39167
451 1 18.1583 27.3654 0.198404 18.1583 27.3654 0.198404
452 2 20.0534 27.3064 1.83542 20.0534 27.3064 1.83542
453 2 20.0659 27.4247 -1.42452 20.0659 27.4247 -1.42452
454 1 21.0104 29.0111 0.268984 21.0104 29.0111 0.268984
455 2 22.9259 28.9564 1.88222 22.9259 28.9564 1.88222
456 2 22.8976 29.0661 -1.37787 22.8976 29.0661 -1.37787
457 1 23.8623 27.3657 0.188323 23.8623 27.3657 0.188323
458 2 25.7952 27.3054 1.78043 25.7952 27.3054 1.78043
459 2 25.7314 27.4263 -1.47883 25.7314 27.4263 -1.47883
460 1 26.7141 29.0117 0.193397 26.7141 29.0117 0.193397
461 2 28.6609 28.9548 1.76867 28.6609 28.9548 1.76867
462 2 28.5685 29.0689 -1.49014 28.5685 29.0689 -1.49014
463 1 29.5646 27.3667 0.0545857 29.5646 27.3667 0.0545857
464 2 31.5193 27.3044 1.61975 31.5193 27.3044 1.61975
465 2 31.4103 27.4293 -1.63819 31.4103 27.4293 -1.63819
466 1 32.4154 29.0128 0.0222448 32.4154 29.0128 0.0222448
467 2 34.3725 28.9538 1.58458 34.3725 28.9538 1.58458
468 2 34.2583 29.072 -1.67346 34.2583 29.072 -1.67346
469 1 35.2649 27.368 -0.137517 35.2649 27.368 -0.137517
470 2 37.2179 27.3038 1.42978 37.2179 27.3038 1.42978
471 2 37.1122 27.4324 -1.82816 37.1122 27.4324 -1.82816
472 1 38.1156 29.0139 -0.164844 38.1156 29.0139 -0.164844
473 2 40.0596 28.9536 1.41376 40.0596 28.9536 1.41376
474 2 39.9722 29.0743 -1.84508 39.9722 29.0743 -1.84508
475 1 40.9658 27.3691 -0.302159 40.9658 27.3691 -0.302159
476 2 42.895 27.3042 1.29447 42.895 27.3042 1.29447
477 2 42.8381 27.4341 -1.96467 42.8381 27.4341 -1.96467
478 1 43.8171 29.0147 -0.285782 43.8171 29.0147 -0.285782
479 2 45.7293 28.9546 1.33141 45.7293 28.9546 1.33141
480 2 45.7067 29.0748 -1.92858 45.7067 29.0748 -1.92858
481 1 46.6684 27.3696 -0.365888 46.6684 27.3696 -0.365888
482 2 48.5599 27.3055 1.27549 48.5599 27.3055 1.27549
483 2 48.579 27.4334 -1.98418 48.579 27.4334 -1.98418
484 1 49.5197 29.0146 -0.283819 49.5197 29.0146 -0.283819
485 2 51.3934 28.9562 1.37804 51.3934 28.9562 1.37804
486 2 51.4474 29.0728 -1.88172 51.4474 29.0728 -1.88172
487 1 1.05435 30.6597 -0.176869 1.05435 30.6597 -0.176869
488 2 2.91377 30.6102 1.50121 2.91377 30.6102 1.50121
489 2 2.99551 30.709 -1.75856 2.99551 30.709 -1.75856
490 1 3.90436 32.305 -0.0545089 3.90436 32.305 -0.0545089
491 2 5.75508 32.2669 1.63346 5.75508 32.2669 1.63346
492 2 5.85374 32.3429 -1.62641 5.85374 32.3429 -1.62641
493 1 6.75463 30.6586 -0.00599572 6.75463 30.6586 -0.00599572
494 2 8.60068 30.6117 1.68686 8.60068 30.6117 1.68686
495 2 8.70864 30.7054 -1.57219 8.70864 30.7054 -1.57219
496 1 9.60429 32.3041 0.13653 9.60429 32.3041 0.13653
497 2 11.4557 32.2682 1.82387 11.4557 32.2682 1.82387
498 2 11.5536 32.34 -1.43598 11.5536 32.34 -1.43598
499 1 12.455 30.6575 0.186301 12.455 30.6575 0.186301
500 2 14.3162 30.6119 1.86254 14.3162 30.6119 1.86254
501 2 14.3954 30.7033 -1.39729 14.3954 30.7033 -1.39729
502 1 15.306 32.3035 0.302135 15.306 32.3035 0.302135
503 2 17.1837 32.2676 1.96008 17.1837 32.2676 1.96008
504 2 17.2308 32.3396 -1.30079 17.2308 32.3396 -1.30079
505 1 18.158 30.657 0.307057 18.158 30.657 0.307057
506 2 20.0544 30.6106 1.94334 20.0544 30.6106 1.94334
507 2 20.0648 30.7037 -1.31733 20.0648 30.7037 -1.31733
508 1 21.0104 32.3033 0.363212 21.0104 32.3033 0.363212
509 2 22.9262 32.2653 1.97684 22.9262 32.2653 1.97684
510 2 22.8976 32.3416 -1.28412 22.8976 32.3416 -1.28412
511 1 23.8626 30.6572 0.299472 23.8626 30.6572 0.299472
512 2 25.796 30.6086 1.89158 25.796 30.6086 1.89158
513 2 25.7315 30.7062 -1.36836 25.7315 30.7062 -1.36836
514 1 26.7146 32.3037 0.292253 26.7146 32.3037 0.292253
515 2 28.6616 32.2631 1.86806 28.6616 32.2631 1.86806
516 2 28.5691 32.3446 -1.39166 28.5691 32.3446 -1.39166
517 1 29.5654 30.6579 0.170075 29.5654 30.6579 0.170075
518 2 31.5206 30.607 1.73526 31.5206 30.607 1.73526
519 2 31.4108 30.7092 -1.52342 31.4108 30.7092 -1.52342
520 1 32.4162 32.3044 0.12572 32.4162 32.3044 0.12572
521 2 34.3738 32.262 1.68812 34.3738 32.262 1.68812
522 2 34.2587 32.347 -1.57091 34.2587 32.347 -1.57091
523 1 35.2659 30.6589 -0.0178632 35.2659 30.6589 -0.0178632
524 2 37.2196 30.6064 1.54903 37.2196 30.6064 1.54903
525 2 37.1123 30.7117 -1.70973 37.1123 30.7117 -1.70973
526 1 38.1164 32.3052 -0.0581735 38.1164 32.3052 -0.0581735
527 2 40.0613 32.2619 1.51988 40.0613 32.2619 1.51988
528 2 39.9719 32.3486 -1.74004 39.9719 32.3486 -1.74004
529 1 40.9664 30.6598 -0.179899 40.9664 30.6598 -0.179899
530 2 42.897 30.6067 1.41542 42.897 30.6067 1.41542
531 2 42.837 30.713 -1.84461 42.837 30.713 -1.84461
532 1 43.8174 32.3057 -0.178061 43.8174 32.3057 -0.178061
533 2 45.7313 32.2627 1.43754 45.7313 32.2627 1.43754
534 2 45.7049 32.3488 -1.82359 45.7049 32.3488 -1.82359
535 1 46.6684 30.6601 -0.244113 46.6684 30.6601 -0.244113
536 2 48.5622 30.6081 1.39487 48.5622 30.6081 1.39487
537 2 48.5762 30.7121 -1.86578 48.5762 30.7121 -1.86578
538 1 49.5194 32.3056 -0.178475 49.5194 32.3056 -0.178475