ITEM: TIMESTEP
58000
ITEM: NUMBER OF ATOMS
810
ITEM: BOX BOUNDS pp pp pp
8.4876396628684725e-01 5.2168841033711736e+01
8.1826586320890271e-01 5.0197949136790555e+01
-1.0000000000000000e+01 1.0000000000000000e+01
ITEM: ATOMS id type x y z xu yu zu
1 1 1.05424 1.03468 -0.405731 1.05424 1.03468 -0.405731
2 2 2.91478 0.969126 1.27094 2.91478 0.969126 1.27094
3 2 2.99536 1.10042 -1.98761 2.99536 1.10042 -1.98761
4 1 3.90498 2.67971 -0.268276 3.90498 2.67971 -0.268276
5 2 5.75189 2.61498 1.42337 5.75189 2.61498 1.42337
6 2 5.85869 2.74448 -1.83452 5.85869 2.74448 -1.83452
7 1 6.75598 1.03391 -0.239895 6.75598 1.03391 -0.239895
8 2 8.59443 0.968088 1.46084 8.59443 0.968088 1.46084
9 2 8.71762 1.09953 -1.79637 8.71762 1.09953 -1.79637
10 1 9.60543 2.67844 -0.0652022 9.60543 2.67844 -0.0652022
11 2 11.445 2.61393 1.63434 11.445 2.61393 1.63434
12 2 11.5661 2.74263 -1.62304 11.5661 2.74263 -1.62304
13 1 12.4561 1.03226 -0.0241491 12.4561 1.03226 -0.0241491
14 2 14.3026 0.966747 1.66767 14.3026 0.966747 1.66767
15 2 14.4104 1.09731 -1.59011 14.4104 1.09731 -1.59011
16 1 15.3063 2.67668 0.136382 15.3063 2.67668 0.136382
17 2 17.1691 2.61353 1.81038 17.1691 2.61353 1.81038
18 2 17.2456 2.73942 -1.44841 17.2456 2.73942 -1.44841
19 1 18.1582 1.03055 0.139575 18.1582 1.03055 0.139575
20 2 20.0395 0.965458 1.79239 20.0395 0.965458 1.79239
21 2 20.0796 1.09519 -1.46694 20.0796 1.09519 -1.46694
22 1 21.0102 2.67536 0.240085 21.0102 2.67536 0.240085
23 2 22.9148 2.61349 1.86626 22.9148 2.61349 1.86626
24 2 22.9089 2.73695 -1.39349 22.9089 2.73695 -1.39349
25 1 23.8626 1.02962 0.172149 23.8626 1.02962 0.172149
26 2 25.7875 0.964431 1.77382 25.7875 0.964431 1.77382
27 2 25.7403 1.09458 -1.48539 25.7403 1.09458 -1.48539
28 1 26.7149 2.67505 0.196292 26.7149 2.67505 0.196292
29 2 28.6591 2.61373 1.77486 28.6591 2.61373 1.77486
30 2 28.5726 2.73636 -1.4838 28.5726 2.73636 -1.4838
31 1 29.5659 1.02989 0.058192 29.5659 1.02989 0.058192
32 2 31.5222 0.964346 1.6214 31.5222 0.964346 1.6214
33 2 31.4103 1.09553 -1.63621 31.4103 1.09553 -1.63621
34 1 32.417 2.67585 0.0263695 32.417 2.67585 0.0263695
35 2 34.3805 2.61454 1.58083 34.3805 2.61454 1.58083
36 2 34.2535 2.73745 -1.67656 34.2535 2.73745 -1.67656
37 1 35.2665 1.03121 -0.147124 35.2665 1.03121 -0.147124
38 2 37.2283 0.965632 1.40926 37.2283 0.965632 1.40926
39 2 37.1047 1.09718 -1.84793 37.1047 1.09718 -1.84793
40 1 38.1171 2.67738 -0.188744 38.1171 2.67738 -0.188744
41 2 40.0717 2.61575 1.37698 40.0717 2.61575 1.37698
42 2 39.963 2.73952 -1.8811 39.963 2.73952 -1.8811
43 1 40.9672 1.03294 -0.346365 40.9672 1.03294 -0.346365
44 2 42.907 0.967658 1.23768 42.907 0.967658 1.23768
45 2 42.829 1.09873 -2.02096 42.829 1.09873 -2.02096
46 1 43.8187 2.67895 -0.347937 43.8187 2.67895 -0.347937
47 2 45.7406 2.61655 1.25795 45.7406 2.61655 1.25795
48 2 45.699 2.74191 -2.00163 45.699 2.74191 -2.00163
49 1 46.6704 1.03428 -0.447304 46.6704 1.03428 -0.447304
50 2 48.5707 0.969093 1.18405 48.5707 0.969093 1.18405
51 2 48.5728 1.09991 -2.07553 48.5728 1.09991 -2.07553
52 1 49.5223 2.67987 -0.378839 49.5223 2.67987 -0.378839
53 2 51.4022 2.6162 1.27615 51.4022 2.6162 1.27615
54 2 51.4447 2.74396 -1.98332 51.4447 2.74396 -1.98332
55 1 1.05357 4.32526 -0.276393 1.05357 4.32526 -0.276393
56 2 2.91494 4.26487 1.39946 2.91494 4.26487 1.39946
57 2 2.9935 4.38592 -1.85962 2.9935 4.38592 -1.85962
58 1 3.90398 5.97053 -0.145725 3.90398 5.97053 -0.145725
59 2 5.75177 5.91585 1.54529 5.75177 5.91585 1.54529
60 2 5.85663 6.02531 -1.71344 5.85663 6.02531 -1.71344
61 1 6.7548 4.32455 -0.108731 6.7548 4.32455 -0.108731
62 2 8.59496 4.26351 1.59036 8.59496 4.26351 1.59036
63 2 8.71474 4.38547 -1.66735 8.71474 4.38547 -1.66735
64 1 9.60421 5.96945 0.0583647 9.60421 5.96945 0.0583647
65 2 11.4461 5.91552 1.7558 11.4461 5.91552 1.7558
66 2 11.5627 6.02318 -1.50247 11.5627 6.02318 -1.50247
67 1 12.455 4.32302 0.106266 12.455 4.32302 0.106266
68 2 14.3042 4.26351 1.79558 14.3042 4.26351 1.79558
69 2 14.4071 4.3822 -1.46275 14.4071 4.3822 -1.46275
70 1 15.3055 5.96802 0.256688 15.3055 5.96802 0.256688
71 2 17.1715 5.91714 1.92773 17.1715 5.91714 1.92773
72 2 17.2421 6.01868 -1.33195 17.2421 6.01868 -1.33195
73 1 18.1577 4.32152 0.267126 18.1577 4.32152 0.267126
74 2 20.0418 4.26451 1.91738 20.0418 4.26451 1.91738
75 2 20.0768 4.37826 -1.3425 20.0768 4.37826 -1.3425
76 1 21.0101 5.96704 0.355355 21.0101 5.96704 0.355355
77 2 22.9176 5.91951 1.97885 22.9176 5.91951 1.97885
78 2 22.9062 6.01448 -1.28173 22.9062 6.01448 -1.28173
79 1 23.8628 4.32078 0.297205 23.8628 4.32078 0.297205
80 2 25.79 4.2657 1.89688 25.79 4.2657 1.89688
81 2 25.7387 4.37578 -1.3629 25.7387 4.37578 -1.3629
82 1 26.7154 5.96688 0.307816 26.7154 5.96688 0.307816
83 2 28.6618 5.92153 1.88451 28.6618 5.92153 1.88451
84 2 28.5711 6.01229 -1.375 28.5711 6.01229 -1.375
85 1 29.5667 4.32104 0.182415 29.5667 4.32104 0.182415
86 2 31.5248 4.26677 1.74412 31.5248 4.26677 1.74412
87 2 31.4095 4.37547 -1.51414 31.4095 4.37547 -1.51414
88 1 32.4178 5.96749 0.136497 32.4178 5.96749 0.136497
89 2 34.3827 5.9226 1.68991 34.3827 5.9226 1.68991
90 2 34.2529 6.01264 -1.56843 34.2529 6.01264 -1.56843
91 1 35.2675 4.32215 -0.0226083 35.2675 4.32215 -0.0226083
92 2 37.2308 4.26756 1.53253 37.2308 4.26756 1.53253
93 2 37.1042 4.37714 -1.72539 37.1042 4.37714 -1.72539
94 1 38.1179 5.96863 -0.0777635 38.1179 5.96863 -0.0777635
95 2 40.0732 5.92233 1.48765 40.0732 5.92233 1.48765
96 2 39.9628 6.01538 -1.77145 39.9628 6.01538 -1.77145
97 1 40.9679 4.32362 -0.221012 40.9679 4.32362 -0.221012
98 2 42.9088 4.26765 1.36202 42.9088 4.26765 1.36202
99 2 42.8283 4.38016 -1.89735 42.8283 4.38016 -1.89735
100 1 43.819 5.96986 -0.23405 43.819 5.96986 -0.23405
101 2 45.741 5.92064 1.37208 45.741 5.92064 1.37208
102 2 45.6989 6.01963 -1.8885 45.6989 6.01963 -1.8885
103 1 46.6704 4.32485 -0.32039 46.6704 4.32485 -0.32039
104 2 48.5715 4.26665 1.31024 48.5715 4.26665 1.31024
105 2 48.5716 4.38359 -1.94997 48.5716 4.38359 -1.94997
106 1 49.522 5.97064 -0.260495 49.522 5.97064 -0.260495
107 2 51.4019 5.91803 1.39477 51.4019 5.91803 1.39477
108 2 51.4439 6.0237 -1.86559 51.4439 6.0237 -1.86559
109 1 1.05287 7.61639 -0.16947 1.05287 7.61639 -0.16947
110 2 2.91403 7.57119 1.50705 2.91403 7.57119 1.50705
111 2 2.99271 7.66187 -1.75308 2.99271 7.66187 -1.75308
112 1 3.90306 9.26221 -0.0539318 3.90306 9.26221 -0.0539318
113 2 5.75105 9.22672 1.63737 5.75105 9.22672 1.63737
114 2 5.85538 9.2978 -1.62247 5.85538 9.2978 -1.62247
115 1 6.75365 7.61587 0.00213059 6.75365 7.61587 0.00213059
116 2 8.5953 7.56985 1.7001 8.5953 7.56985 1.7001
117 2 8.71214 7.66185 -1.5587 8.71214 7.66185 -1.5587
118 1 9.60314 9.26154 0.151608 9.60314 9.26154 0.151608
119 2 11.4474 9.22716 1.84704 11.4474 9.22716 1.84704
120 2 11.5595 9.29581 -1.41242 11.5595 9.29581 -1.41242
121 1 12.454 7.61474 0.215395 12.454 7.61474 0.215395
122 2 14.3063 7.57131 1.90191 14.3063 7.57131 1.90191
123 2 14.4033 7.65801 -1.35754 14.4033 7.65801 -1.35754
124 1 15.3048 9.26067 0.344622 15.3048 9.26067 0.344622
125 2 17.1744 9.2305 2.01228 17.1744 9.2305 2.01228
126 2 17.2382 9.29075 -1.2485 17.2382 9.29075 -1.2485
127 1 18.1572 7.61372 0.370069 18.1572 7.61372 0.370069
128 2 20.0448 7.57454 2.01706 20.0448 7.57454 2.01706
129 2 20.0733 7.65281 -1.24383 20.0733 7.65281 -1.24383
130 1 21.01 9.26015 0.434732 21.01 9.26015 0.434732
131 2 22.921 9.23493 2.05488 22.921 9.23493 2.05488
132 2 22.903 9.28536 -1.20659 22.903 9.28536 -1.20659
133 1 23.863 7.61329 0.393452 23.863 7.61329 0.393452
134 2 25.793 7.57786 1.99054 25.793 7.57786 1.99054
135 2 25.7363 7.64874 -1.27016 25.7363 7.64874 -1.27016
136 1 26.7156 9.2601 0.379671 26.7156 9.2601 0.379671
137 2 28.6643 9.23844 1.95416 28.6643 9.23844 1.95416
138 2 28.5691 9.28179 -1.30615 28.5691 9.28179 -1.30615
139 1 29.5672 7.61351 0.27438 29.5672 7.61351 0.27438
140 2 31.527 7.57993 1.83468 31.527 7.57993 1.83468
141 2 31.4084 7.6472 -1.42455 31.4084 7.6472 -1.42455
142 1 32.4181 9.2604 0.20465 32.4181 9.2604 0.20465
143 2 34.3839 9.23956 1.75756 34.3839 9.23956 1.75756
144 2 34.2523 9.28133 -1.50167 34.2523 9.28133 -1.50167
145 1 35.2681 7.6142 0.0685929 35.2681 7.6142 0.0685929
146 2 37.232 7.57998 1.62364 37.232 7.57998 1.62364
147 2 37.1041 7.64869 -1.63537 37.1041 7.64869 -1.63537
148 1 38.1181 9.26095 -0.00821933 38.1181 9.26095 -0.00821933
149 2 40.0729 9.23785 1.5584 40.0729 9.23785 1.5584
150 2 39.9636 9.28431 -1.70177 39.9636 9.28431 -1.70177
151 1 40.9683 7.61516 -0.126826 40.9683 7.61516 -0.126826
152 2 42.9088 7.57795 1.45718 42.9088 7.57795 1.45718
153 2 42.8288 7.65282 -1.80335 42.8288 7.65282 -1.80335
154 1 43.8191 9.26166 -0.158328 43.8191 9.26166 -0.158328
155 2 45.7396 9.23397 1.45004 45.7396 9.23397 1.45004
156 2 45.7002 9.28976 -1.81167 45.7002 9.28976 -1.81167
157 1 46.6704 7.61605 -0.220242 46.6704 7.61605 -0.220242
158 2 48.5707 7.57451 1.41178 48.5707 7.57451 1.41178
159 2 48.572 7.65808 -1.84955 48.572 7.65808 -1.84955
160 1 49.5216 9.26222 -0.175977 49.5216 9.26222 -0.175977
161 2 51.4001 9.22952 1.48127 51.4001 9.22952 1.48127
162 2 51.4446 9.29528 -1.78017 51.4446 9.29528 -1.78017
163 1 1.05227 10.9084 -0.102963 1.05227 10.9084 -0.102963
164 2 2.91217 10.8861 1.57537 2.91217 10.8861 1.57537
165 2 2.99312 10.9309 -1.68568 2.99312 10.9309 -1.68568
166 1 3.90239 12.5548 -0.00859836 3.90239 12.5548 -0.00859836
167 2 5.74978 12.5446 1.68369 5.74978 12.5446 1.68369
168 2 5.85522 12.565 -1.57683 5.85522 12.565 -1.57683
169 1 6.75271 10.9083 0.0741273 6.75271 10.9083 0.0741273
170 2 8.59542 10.8849 1.77145 8.59542 10.8849 1.77145
171 2 8.71023 10.9316 -1.48839 8.71023 10.9316 -1.48839
172 1 9.60242 12.5547 0.198906 9.60242 12.5547 0.198906
173 2 11.4486 12.5455 1.89261 11.4486 12.5455 1.89261
174 2 11.5571 12.5638 -1.36762 11.5571 12.5638 -1.36762
175 1 12.4532 10.9077 0.285026 12.4532 10.9077 0.285026
176 2 14.3086 10.8874 1.96865 14.3086 10.8874 1.96865
177 2 14.3998 10.9279 -1.29183 14.3998 10.9279 -1.29183
178 1 15.3045 12.5544 0.385785 15.3045 12.5544 0.385785
179 2 17.1775 12.5497 2.04992 17.1775 12.5497 2.04992
180 2 17.2347 12.5591 -1.21149 17.2347 12.5591 -1.21149
181 1 18.1569 10.9073 0.431227 18.1569 10.9073 0.431227
182 2 20.0483 10.8922 2.07448 20.0483 10.8922 2.07448
183 2 20.0696 10.9222 -1.18721 20.0696 10.9222 -1.18721
184 1 21.0099 12.5543 0.465255 21.0099 12.5543 0.465255
185 2 22.9243 12.5553 2.08162 22.9243 12.5553 2.08162
186 2 22.8996 12.5532 -1.18017 22.8996 12.5532 -1.18017
187 1 23.863 10.9071 0.444621 23.863 10.9071 0.444621
188 2 25.7961 10.8971 2.03858 25.7961 10.8971 2.03858
189 2 25.7334 10.9171 -1.22267 25.7334 10.9171 -1.22267
190 1 26.7156 12.5542 0.399953 26.7156 12.5542 0.399953
191 2 28.6665 12.5596 1.97195 28.6665 12.5596 1.97195
192 2 28.5669 12.5487 -1.28848 28.5669 12.5487 -1.28848
193 1 29.5674 10.9071 0.318338 29.5674 10.9071 0.318338
194 2 31.5286 10.8998 1.87724 31.5286 10.8998 1.87724
195 2 31.407 10.9144 -1.38252 31.407 10.9144 -1.38252
196 1 32.418 12.554 0.219434 32.418 12.554 0.219434
197 2 34.384 12.5606 1.77219 34.384 12.5606 1.77219
198 2 34.2519 12.5473 -1.48727 34.2519 12.5473 -1.48727
199 1 35.2682 10.9073 0.11088 35.2682 10.9073 0.11088
200 2 37.2317 10.8992 1.66673 37.2317 10.8992 1.66673
201 2 37.1044 10.9154 -1.59301 37.1044 10.9154 -1.59301
202 1 38.118 12.5539 0.00814254 38.118 12.5539 0.00814254
203 2 40.0711 12.558 1.57696 40.0711 12.558 1.57696
204 2 39.965 12.5499 -1.68366 39.965 12.5499 -1.68366
205 1 40.9683 10.9076 -0.0798655 40.9683 10.9076 -0.0798655
206 2 42.907 10.8956 1.50669 42.907 10.8956 1.50669
207 2 42.8305 10.9199 -1.75474 42.8305 10.9199 -1.75474
208 1 43.819 12.5541 -0.13381 43.819 12.5541 -0.13381
209 2 45.7367 12.553 1.47811 45.7367 12.553 1.47811
210 2 45.7027 12.5556 -1.78418 45.7027 12.5556 -1.78418
211 1 46.6702 10.9081 -0.163871 46.6702 10.9081 -0.163871
212 2 48.5682 10.8904 1.4712 48.5682 10.8904 1.4712
213 2 48.5739 10.9261 -1.79105 48.5739 10.9261 -1.79105
214 1 49.5213 12.5546 -0.139948 49.5213 12.5546 -0.139948
215 2 51.3973 12.5477 1.52045 51.3973 12.5477 1.52045
216 2 51.4466 12.5617 -1.74158 51.4466 12.5617 -1.74158
217 1 1.05188 14.2011 -0.0888029 1.05188 14.2011 -0.0888029
218 2 2.90963 14.2059 1.59208 2.90963 14.2059 1.59208
219 2 2.99477 14.1964 -1.66916 2.99477 14.1964 -1.66916
220 1 3.90212 15.8477 -0.0182257 3.90212 15.8477 -0.0182257
221 2 5.74806 15.865 1.6756 5.74806 15.865 1.6756
222 2 5.85635 15.8305 -1.58469 5.85635 15.8305 -1.58469
223 1 6.75217 14.2014 0.0947837 6.75217 14.2014 0.0947837
224 2 8.59514 14.2048 1.79198 8.59514 14.2048 1.79198
225 2 8.70947 14.198 -1.46819 8.70947 14.198 -1.46819
226 1 9.60215 15.8482 0.192055 9.60215 15.8482 0.192055
227 2 11.4493 15.8657 1.88467 11.4493 15.8657 1.88467
228 2 11.556 15.8305 -1.37548 11.556 15.8305 -1.37548
229 1 12.4528 14.2015 0.303675 12.4528 14.2015 0.303675
230 2 14.3107 14.2074 1.98472 14.3107 14.2074 1.98472
231 2 14.3972 14.1954 -1.2761 14.3972 14.1954 -1.2761
232 1 15.3044 15.8485 0.373667 15.3044 15.8485 0.373667
233 2 17.18 15.8696 2.03472 17.18 15.8696 2.03472
234 2 17.2321 15.8271 -1.22653 17.2321 15.8271 -1.22653
235 1 18.1569 14.2015 0.440904 18.1569 14.2015 0.440904
236 2 20.0515 14.2127 2.08033 20.0515 14.2127 2.08033
237 2 20.0662 14.1901 -1.18145 20.0662 14.1901 -1.18145
238 1 21.0099 15.8485 0.442461 21.0099 15.8485 0.442461
239 2 22.9272 15.8751 2.05511 22.9272 15.8751 2.05511
240 2 22.8966 15.8216 -1.20622 22.8966 15.8216 -1.20622
241 1 23.863 14.2014 0.442657 23.863 14.2014 0.442657
242 2 25.7988 14.2182 2.03322 25.7988 14.2182 2.03322
243 2 25.7305 14.1844 -1.22781 25.7305 14.1844 -1.22781
244 1 26.7153 15.8482 0.365871 26.7153 15.8482 0.365871
245 2 28.6679 15.8794 1.93538 28.6679 15.8794 1.93538
246 2 28.5646 15.8166 -1.32438 28.5646 15.8166 -1.32438
247 1 29.5671 14.2011 0.307286 29.5671 14.2011 0.307286
248 2 31.5293 14.221 1.86481 31.5293 14.221 1.86481
249 2 31.4056 14.1809 -1.39466 31.4056 14.1809 -1.39466
250 1 32.4173 15.8475 0.178831 32.4173 15.8475 0.178831
251 2 34.3831 15.8802 1.73162 34.3831 15.8802 1.73162
252 2 34.2516 15.8144 -1.52723 34.2516 15.8144 -1.52723
253 1 35.2678 14.2006 0.09736 35.2678 14.2006 0.09736
254 2 37.2302 14.22 1.65448 37.2302 14.22 1.65448
255 2 37.1052 14.1811 -1.60516 37.1052 14.1811 -1.60516
256 1 38.1174 15.8467 -0.0313119 38.1174 15.8467 -0.0313119
257 2 40.0682 15.8774 1.54004 40.0682 15.8774 1.54004
258 2 39.9669 15.816 -1.72015 39.9669 15.816 -1.72015
259 1 40.968 14.2004 -0.0881909 40.968 14.2004 -0.0881909
260 2 42.904 14.2158 1.50169 42.904 14.2158 1.50169
261 2 42.8331 14.185 -1.75981 42.8331 14.185 -1.75981
262 1 43.8186 15.8466 -0.165083 43.8186 15.8466 -0.165083
263 2 45.7329 15.8726 1.45078 45.7329 15.8726 1.45078
264 2 45.706 15.8207 -1.81113 45.706 15.8207 -1.81113
265 1 46.67 14.2006 -0.161397 46.67 14.2006 -0.161397
266 2 48.5647 14.2103 1.4776 48.5647 14.2103 1.4776
267 2 48.577 14.1912 -1.78478 48.577 14.1912 -1.78478
268 1 49.5211 15.847 -0.159433 49.5211 15.847 -0.159433
269 2 51.3938 15.8677 1.50459 51.3938 15.8677 1.50459
270 2 51.4496 15.8266 -1.75708 51.4496 15.8266 -1.75708
271 1 1.05185 17.4935 -0.13052 1.05185 17.4935 -0.13052
272 2 2.90678 17.5252 1.55323 2.90678 17.5252 1.55323
273 2 2.99754 17.462 -1.70723 2.99754 17.462 -1.70723
274 1 3.90235 19.14 -0.0822861 3.90235 19.14 -0.0822861
275 2 5.74603 19.1822 1.61359 5.74603 19.1822 1.61359
276 2 5.85882 19.0979 -1.64562 5.85882 19.0979 -1.64562
277 1 6.75214 17.4944 0.0598305 6.75214 17.4944 0.0598305
278 2 8.59432 17.5242 1.75762 8.59432 17.5242 1.75762
279 2 8.71023 17.4646 -1.50195 8.71023 17.4646 -1.50195
280 1 9.6024 19.1411 0.131656 9.6024 19.1411 0.131656
281 2 11.4491 19.1825 1.82426 11.4491 19.1825 1.82426
282 2 11.5567 19.0995 -1.43501 11.5567 19.0995 -1.43501
283 1 12.4529 17.4951 0.268161 12.4529 17.4951 0.268161
284 2 14.3119 17.5262 1.94751 14.3119 17.5262 1.94751
285 2 14.396 17.4636 -1.31282 14.396 17.4636 -1.31282
286 1 15.3046 19.1418 0.310376 15.3046 19.1418 0.310376
287 2 17.1814 19.1852 1.96951 17.1814 19.1852 1.96951
288 2 17.231 19.098 -1.29094 17.231 19.098 -1.29094
289 1 18.1569 17.4953 0.397951 18.1569 17.4953 0.397951
290 2 20.054 17.5307 2.03417 20.054 17.5307 2.03417
291 2 20.0638 17.4597 -1.22698 20.0638 17.4597 -1.22698
292 1 21.0099 19.1418 0.370653 21.0099 19.1418 0.370653
293 2 22.929 19.1893 1.98045 22.929 19.1893 1.98045
294 2 22.8944 19.0938 -1.27994 22.8944 19.0938 -1.27994
295 1 23.8628 17.4951 0.388554 23.8628 17.4951 0.388554
296 2 25.8006 17.5355 1.97603 25.8006 17.5355 1.97603
297 2 25.7279 17.4543 -1.28412 25.7279 17.4543 -1.28412
298 1 26.7147 19.1411 0.283777 26.7147 19.1411 0.283777
299 2 28.6683 19.1926 1.85133 28.6683 19.1926 1.85133
300 2 28.5627 19.089 -1.40736 28.5627 19.089 -1.40736
301 1 29.5664 17.4943 0.2437 29.5664 17.4943 0.2437
302 2 31.5291 17.5379 1.80006 31.5291 17.5379 1.80006
303 2 31.4043 17.4503 -1.45847 31.4043 17.4503 -1.45847
304 1 32.4163 19.1398 0.0901628 32.4163 19.1398 0.0901628
305 2 34.3813 19.1931 1.64323 34.3813 19.1931 1.64323
306 2 34.2513 19.0862 -1.6146 34.2513 19.0862 -1.6146
307 1 35.2669 17.4933 0.0306668 35.2669 17.4933 0.0306668
308 2 37.2278 17.5368 1.5892 37.2278 17.5368 1.5892
309 2 37.106 17.4495 -1.66961 37.106 17.4495 -1.66961
310 1 38.1164 19.1386 -0.119782 38.1164 19.1386 -0.119782
311 2 40.0649 19.1908 1.45401 40.0649 19.1908 1.45401
312 2 39.9687 19.0864 -1.8052 39.9687 19.0864 -1.8052
313 1 40.9674 17.4926 -0.150528 40.9674 17.4926 -0.150528
314 2 42.9003 17.5331 1.44272 42.9003 17.5331 1.44272
315 2 42.8359 17.4521 -1.81801 42.8359 17.4521 -1.81801
316 1 43.8182 19.1382 -0.247253 43.8182 19.1382 -0.247253
317 2 45.7291 19.1874 1.37222 45.7291 19.1874 1.37222
318 2 45.7094 19.0894 -1.88862 45.7094 19.0894 -1.88862
319 1 46.6698 17.4927 -0.214022 46.6698 17.4927 -0.214022
320 2 48.5608 17.5287 1.42893 48.5608 17.5287 1.42893
321 2 48.5806 17.457 -1.83264 48.5806 17.457 -1.83264
322 1 49.5211 19.1388 -0.232118 49.5211 19.1388 -0.232118
323 2 51.3904 19.1841 1.4354 51.3904 19.1841 1.4354
324 2 51.4533 19.0939 -1.8251 51.4533 19.0939 -1.8251
325 1 1.05224 20.785 -0.221976 1.05224 20.785 -0.221976
326 2 2.90413 20.8386 1.46464 2.90413 20.8386 1.46464
327 2 3.00106 20.7318 -1.79445 3.00106 20.7318 -1.79445
328 1 3.90308 22.4313 -0.190535 3.90308 22.4313 -0.190535
329 2 5.74403 22.4915 1.50779 5.74403 22.4915 1.50779
330 2 5.86229 22.3714 -1.75006 5.86229 22.3714 -1.75006
331 1 6.75266 20.7865 -0.0256289 6.75266 20.7865 -0.0256289
332 2 8.59294 20.8379 1.67367 8.59294 20.8379 1.67367
333 2 8.71257 20.7351 -1.58468 8.71257 20.7351 -1.58468
334 1 9.60314 22.4329 0.0274426 9.60314 22.4329 0.0274426
335 2 11.448 22.4914 1.72142 11.448 22.4914 1.72142
336 2 11.559 22.3742 -1.53672 11.559 22.3742 -1.53672
337 1 12.4533 20.7877 0.184139 12.4533 20.7877 0.184139
338 2 14.312 20.8389 1.86327 14.312 20.8389 1.86327
339 2 14.3967 20.7361 -1.39609 14.3967 20.7361 -1.39609
340 1 15.305 22.4338 0.206354 15.305 22.4338 0.206354
341 2 17.1813 22.4923 1.86538 17.1813 22.4923 1.86538
342 2 17.2316 22.3749 -1.3942 17.2316 22.3749 -1.3942
343 1 18.1571 20.7881 0.309708 18.1571 20.7881 0.309708
344 2 20.055 20.8415 1.94418 20.055 20.8415 1.94418
345 2 20.0628 20.7341 -1.31607 20.0628 20.7341 -1.31607
346 1 21.0098 22.4338 0.262025 21.0098 22.4338 0.262025
347 2 22.9293 22.4942 1.87066 22.9293 22.4942 1.87066
348 2 22.8935 22.3727 -1.38897 22.8935 22.3727 -1.38897
349 1 23.8624 20.7876 0.291849 23.8624 20.7876 0.291849
350 2 25.8013 20.8445 1.87732 25.8013 20.8445 1.87732
351 2 25.7261 20.73 -1.38185 25.7261 20.73 -1.38185
352 1 26.714 22.4327 0.16786 26.714 22.4327 0.16786
353 2 28.6677 22.4957 1.73459 28.6677 22.4957 1.73459
354 2 28.5615 22.369 -1.52334 28.5615 22.369 -1.52334
355 1 29.5654 20.7863 0.138788 29.5654 20.7863 0.138788
356 2 31.528 20.846 1.69458 31.528 20.846 1.69458
357 2 31.4032 20.7261 -1.56296 31.4032 20.7261 -1.56296
358 1 32.4151 22.431 -0.0312735 32.4151 22.431 -0.0312735
359 2 34.3791 22.4956 1.5225 34.3791 22.4956 1.5225
360 2 34.2511 22.3659 -1.73459 34.2511 22.3659 -1.73459
361 1 35.2657 20.7848 -0.0776482 35.2657 20.7848 -0.0776482
362 2 37.225 20.845 1.48236 37.225 20.845 1.48236
363 2 37.1067 20.7243 -1.77548 37.1067 20.7243 -1.77548
364 1 38.1154 22.4295 -0.242099 38.1154 22.4295 -0.242099
365 2 40.0617 22.4942 1.33386 40.0617 22.4942 1.33386
366 2 39.9702 22.3648 -1.92451 39.9702 22.3648 -1.92451
367 1 40.9667 20.7838 -0.256349 40.9667 20.7838 -0.256349
368 2 42.8967 20.8427 1.33981 42.8967 20.8427 1.33981
369 2 42.8384 20.7251 -1.91985 42.8384 20.7251 -1.91985
370 1 43.8178 22.429 -0.36642 43.8178 22.429 -0.36642
371 2 45.7259 22.4929 1.25588 45.7259 22.4929 1.25588
372 2 45.7122 22.3656 -2.00387 45.7122 22.3656 -2.00387
373 1 46.6697 20.7839 -0.313329 46.6697 20.7839 -0.313329
374 2 48.5574 20.8404 1.33299 48.5574 20.8404 1.33299
375 2 48.5842 20.7279 -1.92729 48.5842 20.7279 -1.92729
376 1 49.5215 22.4297 -0.346057 49.5215 22.4297 -0.346057
377 2 51.3877 22.492 1.32439 51.3877 22.492 1.32439
378 2 51.4569 22.3679 -1.93478 51.4569 22.3679 -1.93478
379 1 1.05299 24.0756 -0.347678 1.05299 24.0756 -0.347678
380 2 2.90216 24.1419 1.34155 2.90216 24.1419 1.34155
381 2 3.0047 24.01 -1.91638 3.0047 24.01 -1.91638
382 1 3.90418 25.7217 -0.324184 3.90418 25.7217 -0.324184
383 2 5.74248 25.7894 1.37674 5.74248 25.7894 1.37674
384 2 5.86606 25.6546 -1.8803 5.86606 25.6546 -1.8803
385 1 6.75367 24.0775 -0.147338 6.75367 24.0775 -0.147338
386 2 8.59127 24.1419 1.55437 8.59127 24.1419 1.55437
387 2 8.71611 24.0132 -1.70288 8.71611 24.0132 -1.70288
388 1 9.60426 25.7236 -0.102954 9.60426 25.7236 -0.102954
389 2 11.4463 25.7894 1.59367 11.4463 25.7894 1.59367
390 2 11.5626 25.6579 -1.66378 11.5626 25.6579 -1.66378
391 1 12.4541 24.079 0.0654771 12.4541 24.079 0.0654771
392 2 14.3108 24.1418 1.74614 14.3108 24.1418 1.74614
393 2 14.399 24.0159 -1.51238 14.399 24.0159 -1.51238
394 1 15.3057 25.7247 0.0788422 15.3057 25.7247 0.0788422
395 2 17.1798 25.7886 1.73981 17.1798 25.7886 1.73981
396 2 17.2339 25.6604 -1.51941 17.2339 25.6604 -1.51941
397 1 18.1573 24.0795 0.190825 18.1573 24.0795 0.190825
398 2 20.0544 24.1421 1.82562 20.0544 24.1421 1.82562
399 2 20.0634 24.0163 -1.43408 20.0634 24.0163 -1.43408
400 1 21.0097 25.7246 0.134602 21.0097 25.7246 0.134602
401 2 22.928 25.7879 1.74423 22.928 25.7879 1.74423
402 2 22.8942 25.6607 -1.51531 22.8942 25.6607 -1.51531
403 1 23.862 24.0788 0.168883 23.862 24.0788 0.168883
404 2 25.8005 24.1428 1.75409 25.8005 24.1428 1.75409
405 2 25.7255 24.0141 -1.50466 25.7255 24.0141 -1.50466
406 1 26.7132 25.7234 0.0376087 26.7132 25.7234 0.0376087
407 2 28.666 25.7873 1.60506 28.666 25.7873 1.60506
408 2 28.5612 25.6588 -1.65292 28.5612 25.6588 -1.65292
409 1 29.5643 24.0772 0.0104722 29.5643 24.0772 0.0104722
410 2 31.5263 24.1429 1.56664 31.5263 24.1429 1.56664
411 2 31.4026 24.011 -1.69052 31.4026 24.011 -1.69052
412 1 32.4139 25.7215 -0.164834 32.4139 25.7215 -0.164834
413 2 34.3767 25.7866 1.39023 34.3767 25.7866 1.39023
414 2 34.2511 25.6562 -1.86692 34.2511 25.6562 -1.86692
415 1 35.2645 24.0754 -0.209025 35.2645 24.0754 -0.209025
416 2 37.2222 24.1421 1.35256 37.2222 24.1421 1.35256
417 2 37.1072 24.0086 -1.90487 37.1072 24.0086 -1.90487
418 1 38.1143 25.72 -0.377259 38.1143 25.72 -0.377259
419 2 40.0592 25.7861 1.20053 40.0592 25.7861 1.20053
420 2 39.971 25.6541 -2.05775 39.971 25.6541 -2.05775
421 1 40.9659 24.0743 -0.387467 40.9659 24.0743 -0.387467
422 2 42.8939 24.1413 1.21094 42.8939 24.1413 1.21094
423 2 42.8402 24.0076 -2.04807 42.8402 24.0076 -2.04807
424 1 43.8175 25.7194 -0.50185 43.8175 25.7194 -0.50185
425 2 45.724 25.7867 1.12234 45.724 25.7867 1.12234
426 2 45.714 25.6527 -2.13703 45.714 25.6527 -2.13703
427 1 46.6697 24.0744 -0.442282 46.6697 24.0744 -0.442282
428 2 48.555 24.1414 1.2065 48.555 24.1414 1.2065
429 2 48.5871 24.0079 -2.05282 48.5871 24.0079 -2.05282
430 1 49.522 25.7201 -0.481284 49.522 25.7201 -0.481284
431 2 51.3862 25.7883 1.19127 51.3862 25.7883 1.19127
432 2 51.4598 25.6525 -2.06723 51.4598 25.6525 -2.06723
433 1 1.0539 27.3661 -0.485159 1.0539 27.3661 -0.485159
434 2 2.90128 27.433 1.20609 2.90128 27.433 1.20609
435 2 3.00769 27.2998 -2.05158 3.00769 27.2998 -2.05158
436 1 3.90539 29.0123 -0.459124 3.90539 29.0123 -0.459124
437 2 5.74185 29.0753 1.244 5.74185 29.0753 1.244
438 2 5.86922 28.95 -2.01323 5.86922 28.95 -2.01323
439 1 6.75497 27.3679 -0.283977 6.75497 27.3679 -0.283977
440 2 8.58978 27.4341 1.4206 8.58978 27.4341 1.4206
441 2 8.72003 27.3021 -1.8363 8.72003 27.3021 -1.8363
442 1 9.60555 29.0141 -0.236768 9.60555 29.0141 -0.236768
443 2 11.4446 29.0758 1.46319 11.4446 29.0758 1.46319
444 2 11.5666 28.9528 -1.79442 11.5666 28.9528 -1.79442
445 1 12.4551 27.3695 -0.0677635 12.4551 27.3695 -0.0677635
446 2 14.3088 27.4334 1.616 14.3088 27.4334 1.616
447 2 14.4026 27.3056 -1.64237 14.4026 27.3056 -1.64237
448 1 15.3064 29.0153 -0.0506835 15.3064 29.0153 -0.0506835
449 2 17.1772 29.0738 1.61393 17.1772 29.0738 1.61393
450 2 17.2375 28.9565 -1.6457 17.2375 28.9565 -1.6457
451 1 18.1577 27.3701 0.0609732 18.1577 27.3701 0.0609732
452 2 20.0523 27.4316 1.69827 20.0523 27.4316 1.69827
453 2 20.0656 27.3081 -1.56162 20.0656 27.3081 -1.56162
454 1 21.0097 29.0152 0.00947851 21.0097 29.0152 0.00947851
455 2 22.9252 29.0708 1.62222 22.9252 29.0708 1.62222
456 2 22.8963 28.959 -1.63805 22.8963 28.959 -1.63805
457 1 23.8615 27.3694 0.0400304 23.8615 27.3694 0.0400304
458 2 25.7985 27.4298 1.627 25.7985 27.4298 1.627
459 2 25.7263 27.3084 -1.6322 25.7263 27.3084 -1.6322
460 1 26.7125 29.014 -0.0853148 26.7125 29.014 -0.0853148
461 2 28.6635 29.0681 1.48448 28.6635 29.0681 1.48448
462 2 28.5621 28.9594 -1.77441 28.5621 28.9594 -1.77441
463 1 29.5633 27.3678 -0.119697 29.5633 27.3678 -0.119697
464 2 31.524 27.4284 1.43798 31.524 27.4284 1.43798
465 2 31.4027 27.3068 -1.8197 31.4027 27.3068 -1.8197
466 1 32.4128 29.0124 -0.287945 32.4128 29.0124 -0.287945
467 2 34.3744 29.0667 1.26893 34.3744 29.0667 1.26893
468 2 34.2513 28.958 -1.9891 34.2513 28.958 -1.9891
469 1 35.2633 27.3661 -0.341076 35.2633 27.3661 -0.341076
470 2 37.2199 27.4277 1.22216 37.2199 27.4277 1.22216
471 2 37.1075 27.3045 -2.03572 37.1075 27.3045 -2.03572
472 1 38.1134 29.0111 -0.502014 38.1134 29.0111 -0.502014
473 2 40.0575 29.067 1.07715 40.0575 29.067 1.07715
474 2 39.9713 28.9555 -2.18187 39.9713 28.9555 -2.18187
475 1 40.9652 27.365 -0.521134 40.9652 27.365 -0.521134
476 2 42.8921 27.4283 1.07878 42.8921 27.4283 1.07878
477 2 42.841 27.3021 -2.18046 42.841 27.3021 -2.18046
478 1 43.8171 29.0105 -0.629661 43.8171 29.0105 -0.629661
479 2 45.7233 29.0692 0.995385 45.7233 29.0692 0.995385
480 2 45.7146 28.9524 -2.26453 45.7146 28.9524 -2.26453
481 1 46.6698 27.3649 -0.578032 46.6698 27.3649 -0.578032
482 2 48.5541 27.4305 1.07215 48.5541 27.4305 1.07215
483 2 48.5887 27.3 -2.18714 48.5887 27.3 -2.18714
484 1 49.5225 29.0109 -0.61338 49.5225 29.0109 -0.61338
485 2 51.3861 29.0726 1.06023 51.3861 29.0726 1.06023
486 2 51.4614 28.95 -2.19864 51.4614 28.95 -2.19864
487 1 1.05475 30.6574 -0.609339 1.05475 30.6574 -0.609339
488 2 2.90169 30.7128 1.08287 2.90169 30.7128 1.08287
489 2 3.00933 30.6025 -2.17553 3.00933 30.6025 -2.17553
490 1 3.90644 32.3041 -0.570815 3.90644 32.3041 -0.570815
491 2 5.74235 32.351 1.13344 5.74235 32.351 1.13344
492 2 5.87099 32.2577 -2.12477 5.87099 32.2577 -2.12477
493 1 6.75629 30.6588 -0.410972 6.75629 30.6588 -0.410972
494 2 8.58899 30.715 1.29619 8.58899 30.715 1.29619
495 2 8.72336 30.6032 -1.96129 8.72336 30.6032 -1.96129
496 1 9.60677 32.3054 -0.350124 9.60677 32.3054 -0.350124
497 2 11.4432 32.3519 1.35297 11.4432 32.3519 1.35297
498 2 11.5701 32.2592 -1.90549 11.5701 32.2592 -1.90549
499 1 12.4562 30.6603 -0.192438 12.4562 30.6603 -0.192438
500 2 14.3065 30.7141 1.49523 14.3065 30.7141 1.49523
501 2 14.4066 30.6065 -1.76375 14.4066 30.6065 -1.76375
502 1 15.3072 32.3063 -0.159746 15.3072 32.3063 -0.159746
503 2 17.1742 32.3493 1.50934 17.1742 32.3493 1.50934
504 2 17.2415 32.2633 -1.7512 17.2415 32.2633 -1.7512
505 1 18.158 30.6608 -0.0579556 18.158 30.6608 -0.0579556
506 2 20.0492 30.7107 1.58354 20.0492 30.7107 1.58354
507 2 20.0691 30.6106 -1.67722 20.0691 30.6106 -1.67722
508 1 21.0097 32.3063 -0.0920383 21.0097 32.3063 -0.0920383
509 2 22.9217 32.3445 1.52524 22.9217 32.3445 1.52524
510 2 22.8997 32.2676 -1.73618 22.8997 32.2676 -1.73618
511 1 23.8612 30.6602 -0.0731896 23.8612 30.6602 -0.0731896
512 2 25.7954 30.7067 1.51729 25.7954 30.7067 1.51729
513 2 25.7284 30.6132 -1.74303 25.7284 30.6132 -1.74303
514 1 26.712 32.3054 -0.180032 26.712 32.3054 -0.180032
515 2 28.6605 32.3403 1.3932 28.6605 32.3403 1.3932
516 2 28.564 32.2702 -1.86695 28.564 32.2702 -1.86695
517 1 29.5625 30.6589 -0.229793 29.5625 30.6589 -0.229793
518 2 31.5215 30.704 1.33033 31.5215 30.704 1.33033
519 2 31.4035 30.6136 -1.92852 31.4035 30.6136 -1.92852
520 1 32.4122 32.3043 -0.37953 32.4122 32.3043 -0.37953
521 2 34.3726 32.3384 1.17926 34.3726 32.3384 1.17926
522 2 34.2519 32.2702 -2.07996 34.2519 32.2702 -2.07996
523 1 35.2624 30.6576 -0.451219 35.2624 30.6576 -0.451219
524 2 37.2182 30.7034 1.11349 37.2182 30.7034 1.11349
525 2 37.1076 30.6118 -2.14544 37.1076 30.6118 -2.14544
526 1 38.1128 32.3034 -0.594777 38.1128 32.3034 -0.594777
527 2 40.0569 32.3394 0.98498 40.0569 32.3394 0.98498
528 2 39.9709 32.2677 -2.2751 39.9709 32.2677 -2.2751
529 1 40.9646 30.6567 -0.634047 40.9646 30.6567 -0.634047
530 2 42.8915 30.7052 0.966475 42.8915 30.7052 0.966475
531 2 42.8408 30.6087 -2.29369 42.8408 30.6087 -2.29369
532 1 43.8169 32.303 -0.727325 43.8169 32.303 -0.727325
533 2 45.7239 32.3426 0.897376 45.7239 32.3426 0.897376
534 2 45.7138 32.2638 -2.36358 45.7138 32.2638 -2.36358
535 1 46.6699 30.6566 -0.696243 46.6699 30.6566 -0.696243
536 2 48.5545 30.7088 0.954123 48.5545 30.7088 0.954123
537 2 48.5889 30.6049 -2.30601 48.5889 30.6049 -2.30601
538 1 49.5228 32.3032 -0.71849 49.5228 32.3032 -0.71849
539 2 51.3874 32.3472 0.954831 51.3874 32.3472 0.954831
540 2 51.4613 32.2597 -2.30511 51.4613 32.2597 -2.30511