ITEM: TIMESTEP
18000
ITEM: NUMBER OF ATOMS
810
ITEM: BOX BOUNDS pp pp pp
8.4100773414432972e-01 5.2176597265854959e+01
8.1033048637403060e-01 5.0205884513624980e+01
-1.0000000000000000e+01 1.0000000000000000e+01
ITEM: ATOMS id type x y z xu yu zu
1 1 1.04459 1.02456 -0.212675 1.04459 1.02456 -0.212675
2 2 2.93354 1.04593 1.43271 2.93354 1.04593 1.43271
3 2 2.95823 1.00327 -1.82911 2.95823 1.00327 -1.82911
4 1 3.89658 2.67109 -0.212563 3.89658 2.67109 -0.212563
5 2 5.78436 2.69301 1.43413 5.78436 2.69301 1.43413
6 2 5.81139 2.64922 -1.82765 5.81139 2.64922 -1.82765
7 1 6.74848 1.02473 -0.166715 6.74848 1.02473 -0.166715
8 2 8.63647 1.04713 1.47971 8.63647 1.04713 1.47971
9 2 8.66306 1.00235 -1.78206 8.66306 1.00235 -1.78206
10 1 9.60045 2.67122 -0.166072 9.60045 2.67122 -0.166072
11 2 11.4901 2.69409 1.47836 11.4901 2.69409 1.47836
12 2 11.5134 2.64835 -1.78343 11.5134 2.64835 -1.78343
13 1 12.4524 1.02484 -0.122615 12.4524 1.02484 -0.122615
14 2 14.3453 1.04795 1.51808 14.3453 1.04795 1.51808
15 2 14.3621 1.00169 -1.74373 14.3621 1.00169 -1.74373
16 1 15.3044 2.67128 -0.131343 15.3044 2.67128 -0.131343
17 2 17.2012 2.69417 1.50473 17.2012 2.69417 1.50473
18 2 17.2102 2.64835 -1.75712 17.2102 2.64835 -1.75712
19 1 18.1564 1.02484 -0.100405 18.1564 1.02484 -0.100405
20 2 20.0585 1.04785 1.52955 20.0585 1.04785 1.52955
21 2 20.0569 1.00176 -1.73231 20.0569 1.00176 -1.73231
22 1 21.0084 2.67123 -0.125202 21.0084 2.67123 -0.125202
23 2 22.9148 2.69312 1.49963 22.9148 2.69312 1.49963
24 2 22.9046 2.64925 -1.76225 22.9046 2.64925 -1.76225
25 1 23.8604 1.02472 -0.112128 23.8604 1.02472 -0.112128
26 2 25.7716 1.04696 1.50708 25.7716 1.04696 1.50708
27 2 25.7518 1.00239 -1.75474 25.7518 1.00239 -1.75474
28 1 26.7123 2.67107 -0.152251 26.7123 2.67107 -0.152251
29 2 28.6259 2.69158 1.46419 28.6259 2.69158 1.46419
30 2 28.6013 2.65047 -1.79765 28.6013 2.65047 -1.79765
31 1 29.5643 1.02452 -0.153144 29.5643 1.02452 -0.153144
32 2 31.4798 1.04592 1.46108 31.4798 1.04592 1.46108
33 2 31.4513 1.00307 -1.8007 31.4513 1.00307 -1.8007
34 1 32.4162 2.67088 -0.199843 32.4162 2.67088 -0.199843
35 2 34.3306 2.69035 1.41568 34.3306 2.69035 1.41568
36 2 34.3043 2.6514 -1.84617 34.3043 2.6514 -1.84617
37 1 35.2681 1.02436 -0.203228 35.2681 1.02436 -0.203228
38 2 37.1808 1.04511 1.41443 37.1808 1.04511 1.41443
39 2 37.1581 1.00362 -1.84741 37.1581 1.00362 -1.84741
40 1 38.1201 2.67079 -0.244144 38.1201 2.67079 -0.244144
41 2 40.0287 2.68984 1.37833 40.0287 2.68984 1.37833
42 2 40.0141 2.65178 -1.8836 40.0141 2.65178 -1.8836
43 1 40.9721 1.02432 -0.237623 40.9721 1.02432 -0.237623
44 2 42.8766 1.04473 1.38974 42.8766 1.04473 1.38974
45 2 42.8703 1.00398 -1.87218 42.8703 1.00398 -1.87218
46 1 43.8241 2.67081 -0.26367 43.8241 2.67081 -0.26367
47 2 45.7236 2.69029 1.36951 45.7236 2.69029 1.36951
48 2 45.7273 2.65143 -1.89243 45.7273 2.65143 -1.89243
49 1 46.6762 1.0244 -0.240706 46.6762 1.0244 -0.240706
50 2 48.5714 1.04502 1.39746 48.5714 1.04502 1.39746
51 2 48.5836 1.00388 -1.86444 48.5836 1.00388 -1.86444
52 1 49.5282 2.67093 -0.25072 49.5282 2.67093 -0.25072
53 2 51.4197 2.69152 1.39173 51.4197 2.69152 1.39173
54 2 51.4394 2.65043 -1.87014 51.4394 2.65043 -1.87014
55 1 1.04465 4.31747 -0.254262 1.04465 4.31747 -0.254262
56 2 2.9338 4.33766 1.39088 2.9338 4.33766 1.39088
57 2 2.95812 4.29735 -1.87096 2.95812 4.29735 -1.87096
58 1 3.89665 5.96402 -0.253355 3.89665 5.96402 -0.253355
59 2 5.78475 5.98306 1.39296 5.78475 5.98306 1.39296
60 2 5.81115 5.94502 -1.86889 5.81115 5.94502 -1.86889
61 1 6.74856 4.3176 -0.211041 6.74856 4.3176 -0.211041
62 2 8.63659 4.33916 1.43531 8.63659 4.33916 1.43531
63 2 8.6631 4.29608 -1.82648 8.6631 4.29608 -1.82648
64 1 9.60054 5.96412 -0.209686 9.60054 5.96412 -0.209686
65 2 11.49 5.98401 1.43499 11.49 5.98401 1.43499
66 2 11.5137 5.94423 -1.82687 11.5137 5.94423 -1.82687
67 1 12.4524 4.3177 -0.168934 12.4524 4.3177 -0.168934
68 2 14.3449 4.3396 1.47226 14.3449 4.3396 1.47226
69 2 14.3626 4.29578 -1.78959 14.3626 4.29578 -1.78959
70 1 15.3044 5.96416 -0.175745 15.3044 5.96416 -0.175745
71 2 17.2003 5.98353 1.46141 17.2003 5.98353 1.46141
72 2 17.2111 5.94477 -1.80053 17.2111 5.94477 -1.80053
73 1 18.1564 4.3177 -0.14683 18.1564 4.3177 -0.14683
74 2 20.0574 4.33871 1.48433 20.0574 4.33871 1.48433
75 2 20.058 4.29663 -1.77759 20.058 4.29663 -1.77759
76 1 21.0084 5.96412 -0.167858 21.0084 5.96412 -0.167858
77 2 22.9133 5.98175 1.45872 22.9133 5.98175 1.45872
78 2 22.906 5.94644 -1.80328 22.906 5.94644 -1.80328
79 1 23.8603 4.3176 -0.156588 23.8603 4.3176 -0.156588
80 2 25.7702 4.33688 1.46421 25.7702 4.33688 1.46421
81 2 25.7531 4.29825 -1.79771 25.7531 4.29825 -1.79771
82 1 26.7123 5.964 -0.19142 26.7123 5.964 -0.19142
83 2 28.6243 5.97946 1.42685 28.6243 5.97946 1.42685
84 2 28.6028 5.9485 -1.83512 28.6028 5.9485 -1.83512
85 1 29.5642 4.31744 -0.194801 29.5642 4.31744 -0.194801
86 2 31.4785 4.33505 1.42088 31.4785 4.33505 1.42088
87 2 31.4525 4.29979 -1.84101 31.4525 4.29979 -1.84101
88 1 32.4161 5.96387 -0.235574 32.4161 5.96387 -0.235574
89 2 34.3294 5.97774 1.38132 34.3294 5.97774 1.38132
90 2 34.3054 5.95001 -1.88065 34.3054 5.95001 -1.88065
91 1 35.2681 4.31731 -0.242681 35.2681 4.31731 -0.242681
92 2 37.1798 4.33404 1.37604 37.1798 4.33404 1.37604
93 2 37.1589 4.3006 -1.8859 37.1589 4.3006 -1.8859
94 1 38.12 5.96381 -0.278013 38.12 5.96381 -0.278013
95 2 40.0281 5.97743 1.34508 40.0281 5.97743 1.34508
96 2 40.0146 5.95024 -1.91696 40.0146 5.95024 -1.91696
97 1 40.9721 4.31728 -0.27617 40.9721 4.31728 -0.27617
98 2 42.8761 4.3343 1.35172 42.8761 4.3343 1.35172
99 2 42.8707 4.30033 -1.91028 42.8707 4.30033 -1.91028
100 1 43.8241 5.96383 -0.298049 43.8241 5.96383 -0.298049
101 2 45.7238 5.97875 1.33496 45.7238 5.97875 1.33496
102 2 45.7272 5.94898 -1.92707 45.7272 5.94898 -1.92707
103 1 46.6762 4.31735 -0.280042 46.6762 4.31735 -0.280042
104 2 48.5714 4.33575 1.35812 48.5714 4.33575 1.35812
105 2 48.5837 4.29903 -1.90383 48.5837 4.29903 -1.90383
106 1 49.5282 5.96391 -0.287865 49.5282 5.96391 -0.287865
107 2 51.4202 5.98102 1.35402 51.4202 5.98102 1.35402
108 2 51.4389 5.94687 -1.90793 51.4389 5.94687 -1.90793
109 1 1.04469 7.61049 -0.288797 1.04469 7.61049 -0.288797
110 2 2.93457 7.6258 1.35552 2.93457 7.6258 1.35552
111 2 2.95746 7.59522 -1.90643 2.95746 7.59522 -1.90643
112 1 3.89671 9.25707 -0.284278 3.89671 9.25707 -0.284278
113 2 5.78544 9.26975 1.36136 5.78544 9.26975 1.36136
114 2 5.81059 9.24444 -1.90063 5.81059 9.24444 -1.90063
115 1 6.74864 7.61057 -0.24955 6.74864 7.61057 -0.24955
116 2 8.63681 7.62737 1.39666 8.63681 7.62737 1.39666
117 2 8.66305 7.59379 -1.86524 8.66305 7.59379 -1.86524
118 1 9.60061 9.25713 -0.243692 9.60061 9.25713 -0.243692
119 2 11.4898 9.27044 1.40132 11.4898 9.27044 1.40132
120 2 11.514 9.24384 -1.86068 11.514 9.24384 -1.86068
121 1 12.4525 7.61063 -0.209227 12.4525 7.61063 -0.209227
122 2 14.3443 7.62743 1.43274 14.3443 7.62743 1.43274
123 2 14.3633 7.59383 -1.82923 14.3633 7.59383 -1.82923
124 1 15.3045 9.25716 -0.209804 15.3045 9.25716 -0.209804
125 2 17.1993 9.26953 1.42866 17.1993 9.26953 1.42866
126 2 17.2122 9.24477 -1.83342 17.2122 9.24477 -1.83342
127 1 18.1564 7.61063 -0.186122 18.1564 7.61063 -0.186122
128 2 20.0561 7.626 1.44668 20.0561 7.626 1.44668
129 2 20.0594 7.59524 -1.81537 20.0594 7.59524 -1.81537
130 1 21.0084 9.25713 -0.199077 21.0084 9.25713 -0.199077
131 2 22.9117 9.26735 1.42952 22.9117 9.26735 1.42952
132 2 22.9077 9.24687 -1.83262 22.9077 9.24687 -1.83262
133 1 23.8603 7.61056 -0.192394 23.8603 7.61056 -0.192394
134 2 25.7685 7.6236 1.43046 25.7685 7.6236 1.43046
135 2 25.7547 7.59749 -1.8316 25.7547 7.59749 -1.8316
136 1 26.7123 9.25706 -0.217922 26.7123 9.25706 -0.217922
137 2 28.6226 9.2647 1.40244 28.6226 9.2647 1.40244
138 2 28.6045 9.24939 -1.85967 28.6045 9.24939 -1.85967
139 1 29.5642 7.61046 -0.226198 29.5642 7.61046 -0.226198
140 2 31.477 7.62125 1.39128 31.477 7.62125 1.39128
141 2 31.454 7.59965 -1.87076 31.454 7.59965 -1.87076
142 1 32.4161 9.25699 -0.257485 32.4161 9.25699 -0.257485
143 2 34.3282 9.26278 1.3608 34.3282 9.26278 1.3608
144 2 34.3065 9.2512 -1.90129 34.3065 9.2512 -1.90129
145 1 35.268 7.61039 -0.270777 35.268 7.61039 -0.270777
146 2 37.179 7.62014 1.34888 37.179 7.62014 1.34888
147 2 37.1597 7.60067 -1.91319 37.1597 7.60067 -1.91319
148 1 38.12 9.25697 -0.297723 38.12 9.25697 -0.297723
149 2 40.028 9.26271 1.32553 40.028 9.26271 1.32553
150 2 40.0147 9.25125 -1.9366 40.0147 9.25125 -1.9366
151 1 40.972 7.61037 -0.303693 40.972 7.61037 -0.303693
152 2 42.8762 7.6209 1.32407 42.8762 7.6209 1.32407
153 2 42.8706 7.5999 -1.93803 42.8706 7.5999 -1.93803
154 1 43.8241 9.25698 -0.319266 43.8241 9.25698 -0.319266
155 2 45.7246 9.26463 1.31279 45.7246 9.26463 1.31279
156 2 45.7263 9.24938 -1.94934 45.7263 9.24938 -1.94934
157 1 46.6762 7.61041 -0.310133 46.6762 7.61041 -0.310133
158 2 48.5722 7.62321 1.32716 48.5722 7.62321 1.32716
159 2 48.5829 7.59768 -1.93489 48.5829 7.59768 -1.93489
160 1 49.5283 9.25702 -0.313663 49.5283 9.25702 -0.313663
161 2 51.4214 9.2675 1.32693 51.4214 9.2675 1.32693
162 2 51.4378 9.24658 -1.93513 51.4378 9.24658 -1.93513
163 1 1.04471 10.9036 -0.309921 1.04471 10.9036 -0.309921
164 2 2.93575 10.9113 1.3331 2.93575 10.9113 1.3331
165 2 2.95635 10.896 -1.92897 2.95635 10.896 -1.92897
166 1 3.89674 12.5503 -0.299696 3.89674 12.5503 -0.299696
167 2 5.7863 12.5543 1.34501 5.7863 12.5543 1.34501
168 2 5.8098 12.5462 -1.91707 5.8098 12.5462 -1.91707
169 1 6.7487 10.9037 -0.275163 6.7487 10.9037 -0.275163
170 2 8.63713 10.9127 1.37079 8.63713 10.9127 1.37079
171 2 8.66284 10.8947 -1.89124 8.66284 10.8947 -1.89124
172 1 9.60066 12.5503 -0.261894 9.60066 12.5503 -0.261894
173 2 11.4897 12.5546 1.38339 11.4897 12.5546 1.38339
174 2 11.5142 12.546 -1.8787 11.5142 12.546 -1.8787
175 1 12.4526 10.9037 -0.236183 12.4526 10.9037 -0.236183
176 2 14.3437 10.9123 1.40662 14.3437 10.9123 1.40662
177 2 14.364 10.8951 -1.85547 14.364 10.8951 -1.85547
178 1 15.3045 12.5503 -0.227344 15.3045 12.5503 -0.227344
179 2 17.1983 12.5534 1.41238 17.1983 12.5534 1.41238
180 2 17.2133 12.5472 -1.84978 17.2133 12.5472 -1.84978
181 1 18.1564 10.9037 -0.211243 18.1564 10.9037 -0.211243
182 2 20.0547 10.9106 1.42327 20.0547 10.9106 1.42327
183 2 20.0608 10.8968 -1.8389 20.0608 10.8968 -1.8389
184 1 21.0084 12.5502 -0.213151 21.0084 12.5502 -0.213151
185 2 22.9101 12.5511 1.41734 22.9101 12.5511 1.41734
186 2 22.9093 12.5494 -1.84486 22.9093 12.5494 -1.84486
187 1 23.8603 10.9037 -0.213201 23.8603 10.9037 -0.213201
188 2 25.7667 10.908 1.41178 25.7667 10.908 1.41178
189 2 25.7565 10.8993 -1.85039 25.7565 10.8993 -1.85039
190 1 26.7123 12.5502 -0.226824 26.7123 12.5502 -0.226824
191 2 28.621 12.5485 1.39546 28.621 12.5485 1.39546
192 2 28.6062 12.5519 -1.86671 28.6062 12.5519 -1.86671
193 1 29.5642 10.9036 -0.241758 29.5642 10.9036 -0.241758
194 2 31.4755 10.9056 1.37749 31.4755 10.9056 1.37749
195 2 31.4555 10.9016 -1.88464 31.4555 10.9016 -1.88464
196 1 32.4161 12.5502 -0.261513 32.4161 12.5502 -0.261513
197 2 34.3274 12.5468 1.35783 34.3274 12.5468 1.35783
198 2 34.3075 12.5536 -1.90429 34.3075 12.5536 -1.90429
199 1 35.268 10.9036 -0.28252 35.268 10.9036 -0.28252
200 2 37.1785 10.9046 1.33774 37.1785 10.9046 1.33774
201 2 37.1602 10.9026 -1.92438 37.1602 10.9026 -1.92438
202 1 38.12 12.5502 -0.299765 38.12 12.5502 -0.299765
203 2 40.0284 12.5471 1.32309 40.0284 12.5471 1.32309
204 2 40.0144 12.5533 -1.93905 40.0144 12.5533 -1.93905
205 1 40.972 10.9036 -0.315261 40.972 10.9036 -0.315261
206 2 42.8769 10.9058 1.31172 42.8769 10.9058 1.31172
207 2 42.8699 10.9014 -1.95044 42.8699 10.9014 -1.95044
208 1 43.8241 12.5502 -0.323621 43.8241 12.5502 -0.323621
209 2 45.726 12.5494 1.30685 45.726 12.5494 1.30685
210 2 45.725 12.5511 -1.95532 45.725 12.5511 -1.95532
211 1 46.6762 10.9036 -0.325505 46.6762 10.9036 -0.325505
212 2 48.5736 10.9085 1.31021 48.5736 10.9085 1.31021
213 2 48.5816 10.8987 -1.95194 48.5816 10.8987 -1.95194
214 1 49.5283 12.5502 -0.323514 49.5283 12.5502 -0.323514
215 2 51.423 12.5523 1.31529 51.423 12.5523 1.31529
216 2 51.4363 12.5482 -1.94685 51.4363 12.5482 -1.94685
217 1 1.04472 14.1969 -0.313997 1.04472 14.1969 -0.313997
218 2 2.9371 14.1956 1.32749 2.9371 14.1956 1.32749
219 2 2.95503 14.1981 -1.93463 2.95503 14.1981 -1.93463
220 1 3.89674 15.8435 -0.297118 3.89674 15.8435 -0.297118
221 2 5.78716 15.8384 1.34662 5.78716 15.8384 1.34662
222 2 5.80897 15.8486 -1.91547 5.80897 15.8486 -1.91547
223 1 6.74873 14.1969 -0.283325 6.74873 14.1969 -0.283325
224 2 8.6375 14.1965 1.36227 8.6375 14.1965 1.36227
225 2 8.66254 14.1972 -1.89982 8.66254 14.1972 -1.89982
226 1 9.60068 15.8435 -0.261189 9.60068 15.8435 -0.261189
227 2 11.4895 15.8381 1.38429 11.4895 15.8381 1.38429
228 2 11.5144 15.8488 -1.87779 11.5144 15.8488 -1.87779
229 1 12.4526 14.1969 -0.244963 12.4526 14.1969 -0.244963
230 2 14.3431 14.1958 1.39858 14.3431 14.1958 1.39858
231 2 14.3647 14.1979 -1.86355 14.3647 14.1979 -1.86355
232 1 15.3045 15.8434 -0.225213 15.3045 15.8434 -0.225213
233 2 17.1974 15.8366 1.41555 17.1974 15.8366 1.41555
234 2 17.2142 15.8502 -1.84658 17.2142 15.8502 -1.84658
235 1 18.1565 14.1968 -0.217561 18.1565 14.1968 -0.217561
236 2 20.0534 14.1939 1.41845 20.0534 14.1939 1.41845
237 2 20.0621 14.1998 -1.84374 20.0621 14.1998 -1.84374
238 1 21.0084 15.8434 -0.207252 21.0084 15.8434 -0.207252
239 2 22.9088 15.8344 1.42473 22.9088 15.8344 1.42473
240 2 22.9106 15.8523 -1.83742 22.9106 15.8523 -1.83742
241 1 23.8603 14.1968 -0.214948 23.8603 14.1968 -0.214948
242 2 25.7652 14.1914 1.41183 25.7652 14.1914 1.41183
243 2 25.7581 14.2022 -1.85034 25.7581 14.2022 -1.85034
244 1 26.7123 15.8433 -0.216003 26.7123 15.8433 -0.216003
245 2 28.6198 15.8323 1.40763 28.6198 15.8323 1.40763
246 2 28.6074 15.8544 -1.85447 28.6074 15.8544 -1.85447
247 1 29.5642 14.1968 -0.238311 29.5642 14.1968 -0.238311
248 2 31.4744 14.1894 1.38226 31.4744 14.1894 1.38226
249 2 31.4566 14.2041 -1.87985 31.4566 14.2041 -1.87985
250 1 32.4162 15.8433 -0.246574 32.4162 15.8433 -0.246574
251 2 34.3271 15.8313 1.37316 34.3271 15.8313 1.37316
252 2 34.3079 15.8553 -1.88888 34.3079 15.8553 -1.88888
253 1 35.2681 14.1968 -0.275683 35.2681 14.1968 -0.275683
254 2 37.1785 14.1889 1.34463 37.1785 14.1889 1.34463
255 2 37.1603 14.2046 -1.91746 37.1603 14.2046 -1.91746
256 1 38.1201 15.8434 -0.283836 38.1201 15.8434 -0.283836
257 2 40.0292 15.8322 1.33803 40.0292 15.8322 1.33803
258 2 40.0136 15.8546 -1.92403 40.0136 15.8546 -1.92403
259 1 40.9721 14.1968 -0.308976 40.9721 14.1968 -0.308976
260 2 42.878 14.1905 1.31666 42.878 14.1905 1.31666
261 2 42.8688 14.2032 -1.94548 42.8688 14.2032 -1.94548
262 1 43.8241 15.8434 -0.310707 43.8241 15.8434 -0.310707
263 2 45.7276 15.8345 1.31781 45.7276 15.8345 1.31781
264 2 45.7233 15.8524 -1.94431 45.7233 15.8524 -1.94431
265 1 46.6762 14.1968 -0.323673 46.6762 14.1968 -0.323673
266 2 48.5753 14.1932 1.31003 48.5753 14.1932 1.31003
267 2 48.5798 14.2005 -1.95213 48.5798 14.2005 -1.95213
268 1 49.5282 15.8435 -0.316057 49.5282 15.8435 -0.316057
269 2 51.4246 15.837 1.32082 51.4246 15.837 1.32082
270 2 51.4346 15.85 -1.94131 51.4346 15.85 -1.94131
271 1 1.04471 17.4901 -0.300773 1.04471 17.4901 -0.300773
272 2 2.93833 17.4804 1.33928 2.93833 17.4804 1.33928
273 2 2.9538 17.4998 -1.9228 2.9538 17.4998 -1.9228
274 1 3.89674 19.1366 -0.277485 3.89674 19.1366 -0.277485
275 2 5.7878 19.1235 1.36548 5.7878 19.1235 1.36548
276 2 5.80832 19.1498 -1.89653 5.80832 19.1498 -1.89653
277 1 6.74873 17.4901 -0.272939 6.74873 17.4901 -0.272939
278 2 8.63779 17.4806 1.37232 8.63779 17.4806 1.37232
279 2 8.66227 17.4995 -1.88971 8.66227 17.4995 -1.88971
280 1 9.60068 19.1366 -0.24205 9.60068 19.1366 -0.24205
281 2 11.4894 19.1227 1.4036 11.4894 19.1227 1.4036
282 2 11.5146 19.1506 -1.85837 11.5146 19.1506 -1.85837
283 1 12.4526 17.49 -0.234185 12.4526 17.49 -0.234185
284 2 14.3426 17.4795 1.40995 14.3426 17.4795 1.40995
285 2 14.3652 17.5006 -1.8521 14.3652 17.5006 -1.8521
286 1 15.3045 19.1366 -0.203886 15.3045 19.1366 -0.203886
287 2 17.1967 19.121 1.43764 17.1967 19.121 1.43764
288 2 17.2149 19.152 -1.82436 17.2149 19.152 -1.82436
289 1 18.1565 17.49 -0.203817 18.1565 17.49 -0.203817
290 2 20.0525 17.4775 1.43331 20.0525 17.4775 1.43331
291 2 20.0631 17.5024 -1.82878 20.0631 17.5024 -1.82878
292 1 21.0084 19.1365 -0.182165 21.0084 19.1365 -0.182165
293 2 22.908 19.1191 1.45073 22.908 19.1191 1.45073
294 2 22.9115 19.1537 -1.81129 22.9115 19.1537 -1.81129
295 1 23.8604 17.4899 -0.196843 23.8604 17.4899 -0.196843
296 2 25.7642 17.4755 1.43111 25.7642 17.4755 1.43111
297 2 25.7592 17.5043 -1.83096 25.7592 17.5043 -1.83096
298 1 26.7124 19.1364 -0.186922 26.7124 19.1364 -0.186922
299 2 28.6194 19.1178 1.43721 28.6194 19.1178 1.43721
300 2 28.6079 19.1549 -1.82475 28.6079 19.1549 -1.82475
301 1 29.5643 17.4899 -0.215963 29.5643 17.4899 -0.215963
302 2 31.4739 17.4743 1.40515 31.4739 17.4743 1.40515
303 2 31.4572 17.5054 -1.85685 31.4572 17.5054 -1.85685
304 1 32.4163 19.1364 -0.215026 32.4163 19.1364 -0.215026
305 2 34.3275 19.1178 1.40426 34.3275 19.1178 1.40426
306 2 34.3076 19.1549 -1.85765 34.3076 19.1549 -1.85765
307 1 35.2681 17.4899 -0.251337 35.2681 17.4899 -0.251337
308 2 37.1791 17.4746 1.36833 37.1791 17.4746 1.36833
309 2 37.1598 17.5052 -1.89366 37.1598 17.5052 -1.89366
310 1 38.1201 19.1364 -0.252849 38.1201 19.1364 -0.252849
311 2 40.0305 19.1192 1.36753 40.0305 19.1192 1.36753
312 2 40.0124 19.1537 -1.89442 40.0124 19.1537 -1.89442
313 1 40.9721 17.4899 -0.286247 40.9721 17.4899 -0.286247
314 2 42.8795 17.4764 1.33765 42.8795 17.4764 1.33765
315 2 42.8674 17.5035 -1.92439 42.8674 17.5035 -1.92439
316 1 43.8241 19.1365 -0.283218 43.8241 19.1365 -0.283218
317 2 45.7293 19.1212 1.34332 45.7293 19.1212 1.34332
318 2 45.7217 19.1518 -1.9187 45.7217 19.1518 -1.9187
319 1 46.6762 17.49 -0.305468 46.6762 17.49 -0.305468
320 2 48.577 17.4787 1.32619 48.577 17.4787 1.32619
321 2 48.5781 17.5013 -1.9359 48.5781 17.5013 -1.9359
322 1 49.5282 19.1366 -0.293131 49.5282 19.1366 -0.293131
323 2 51.426 19.1229 1.34208 51.426 19.1229 1.34208
324 2 51.4332 19.1503 -1.91997 51.4332 19.1503 -1.91997
325 1 1.0447 20.7832 -0.273016 1.0447 20.7832 -0.273016
326 2 2.93918 20.7669 1.36601 2.93918 20.7669 1.36601
327 2 2.95292 20.7994 -1.89598 2.95292 20.7994 -1.89598
328 1 3.89672 22.4297 -0.244541 3.89672 22.4297 -0.244541
329 2 5.78809 22.4108 1.39804 5.78809 22.4108 1.39804
330 2 5.80798 22.4486 -1.86386 5.80798 22.4486 -1.86386
331 1 6.74871 20.7832 -0.246237 6.74871 20.7832 -0.246237
332 2 8.63789 20.7664 1.39886 8.63789 20.7664 1.39886
333 2 8.66213 20.8 -1.86306 8.66213 20.8 -1.86306
334 1 9.60065 22.4296 -0.208094 9.60065 22.4296 -0.208094
335 2 11.4891 22.4096 1.43777 11.4891 22.4096 1.43777
336 2 11.5147 22.4497 -1.82407 11.5147 22.4497 -1.82407
337 1 12.4526 20.7831 -0.205987 12.4526 20.7831 -0.205987
338 2 14.3421 20.765 1.4386 14.3421 20.765 1.4386
339 2 14.3656 20.8012 -1.8233 14.3656 20.8012 -1.8233
340 1 15.3045 22.4295 -0.167226 15.3045 22.4295 -0.167226
341 2 17.1963 22.408 1.47473 17.1963 22.408 1.47473
342 2 17.2153 22.451 -1.78712 17.2153 22.451 -1.78712
343 1 18.1565 20.783 -0.172418 18.1565 20.783 -0.172418
344 2 20.0519 20.7632 1.46535 20.0519 20.7632 1.46535
345 2 20.0637 20.8027 -1.79659 20.0637 20.8027 -1.79659
346 1 21.0084 22.4294 -0.142271 21.0084 22.4294 -0.142271
347 2 22.9078 22.4068 1.49084 22.9078 22.4068 1.49084
348 2 22.9117 22.4519 -1.77103 22.9117 22.4519 -1.77103
349 1 23.8604 20.7829 -0.161831 23.8604 20.7829 -0.161831
350 2 25.7639 20.762 1.4665 25.7639 20.762 1.4665
351 2 25.7596 20.8037 -1.79543 25.7596 20.8037 -1.79543
352 1 26.7124 22.4293 -0.144615 26.7124 22.4293 -0.144615
353 2 28.6198 22.4065 1.47913 28.6198 22.4065 1.47913
354 2 28.6077 22.452 -1.78272 28.6077 22.452 -1.78272
355 1 29.5643 20.7828 -0.17841 29.5643 20.7828 -0.17841
356 2 31.4743 20.7618 1.44233 31.4743 20.7618 1.44233
357 2 31.457 20.8039 -1.81955 31.457 20.8039 -1.81955
358 1 32.4163 22.4293 -0.172371 32.4163 22.4293 -0.172371
359 2 34.3286 22.4074 1.44574 34.3286 22.4074 1.44574
360 2 34.3067 22.4511 -1.81608 34.3067 22.4511 -1.81608
361 1 35.2682 20.7829 -0.213716 35.2682 20.7829 -0.213716
362 2 37.1803 20.7629 1.40466 37.1803 20.7629 1.40466
363 2 37.1588 20.8029 -1.85721 37.1588 20.8029 -1.85721
364 1 38.1202 22.4294 -0.212269 38.1202 22.4294 -0.212269
365 2 40.032 22.4091 1.40641 40.032 22.4091 1.40641
366 2 40.011 22.4497 -1.85546 40.011 22.4497 -1.85546
367 1 40.9722 20.783 -0.25127 40.9722 20.783 -0.25127
368 2 42.8811 20.7647 1.3708 42.8811 20.7647 1.3708
369 2 42.8659 20.8013 -1.89114 42.8659 20.8013 -1.89114
370 1 43.8242 22.4295 -0.246081 43.8242 22.4295 -0.246081
371 2 45.7307 22.4105 1.37883 45.7307 22.4105 1.37883
372 2 45.7203 22.4485 -1.88312 45.7203 22.4485 -1.88312
373 1 46.6762 20.7831 -0.274453 46.6762 20.7831 -0.274453
374 2 48.5785 20.7662 1.35551 48.5785 20.7662 1.35551
375 2 48.5767 20.8 -1.90649 48.5767 20.8 -1.90649
376 1 49.5282 22.4296 -0.258967 49.5282 22.4296 -0.258967
377 2 51.427 22.4112 1.37514 51.427 22.4112 1.37514
378 2 51.4323 22.4481 -1.88683 51.4323 22.4481 -1.88683
379 1 1.04469 24.0761 -0.235627 1.04469 24.0761 -0.235627
380 2 2.93954 24.0561 1.40294 2.93954 24.0561 1.40294
381 2 2.95251 24.0962 -1.85897 2.95251 24.0962 -1.85897
382 1 3.89668 25.7226 -0.20393 3.89668 25.7226 -0.20393
383 2 5.78801 25.7012 1.43871 5.78801 25.7012 1.43871
384 2 5.80798 25.744 -1.82314 5.80798 25.744 -1.82314
385 1 6.74868 24.0761 -0.208019 6.74868 24.0761 -0.208019
386 2 8.63778 24.055 1.43715 8.63778 24.055 1.43715
387 2 8.66216 24.0973 -1.82467 8.66216 24.0973 -1.82467
388 1 9.60059 25.7226 -0.165227 9.60059 25.7226 -0.165227
389 2 11.4889 25.6998 1.48085 11.4889 25.6998 1.48085
390 2 11.5149 25.7452 -1.78091 11.5149 25.7452 -1.78091
391 1 12.4525 24.076 -0.165413 12.4525 24.076 -0.165413
392 2 14.3418 24.0535 1.47946 14.3418 24.0535 1.47946
393 2 14.3658 24.0985 -1.78233 14.3658 24.0985 -1.78233
394 1 15.3045 25.7224 -0.121686 15.3045 25.7224 -0.121686
395 2 17.1962 25.6987 1.5203 17.1962 25.6987 1.5203
396 2 17.2153 25.746 -1.74149 17.2153 25.746 -1.74149
397 1 18.1564 24.0759 -0.128951 18.1564 24.0759 -0.128951
398 2 20.0518 24.0524 1.50892 20.0518 24.0524 1.50892
399 2 20.0638 24.0993 -1.75291 20.0638 24.0993 -1.75291
400 1 21.0084 25.7222 -0.0947295 21.0084 25.7222 -0.0947295
401 2 22.9083 25.6985 1.5379 22.9083 25.6985 1.5379
402 2 22.9113 25.7459 -1.72394 22.9113 25.7459 -1.72394
403 1 23.8604 24.0758 -0.116152 23.8604 24.0758 -0.116152
404 2 25.7643 24.0521 1.51173 25.7643 24.0521 1.51173
405 2 25.7592 24.0993 -1.75011 25.7592 24.0993 -1.75011
406 1 26.7125 25.7221 -0.0967415 26.7125 25.7221 -0.0967415
407 2 28.6209 25.6993 1.52585 28.6209 25.6993 1.52585
408 2 28.6067 25.7449 -1.73598 28.6067 25.7449 -1.73598
409 1 29.5644 24.0757 -0.132328 29.5644 24.0757 -0.132328
410 2 31.4754 24.0529 1.48727 31.4754 24.0529 1.48727
411 2 31.4561 24.0985 -1.77455 31.4561 24.0985 -1.77455
412 1 32.4164 25.7222 -0.126174 32.4164 25.7222 -0.126174
413 2 34.33 25.7008 1.49034 34.33 25.7008 1.49034
414 2 34.3054 25.7435 -1.77147 34.3054 25.7435 -1.77147
415 1 35.2683 24.0758 -0.1694 35.2683 24.0758 -0.1694
416 2 37.1817 24.0544 1.44734 37.1817 24.0544 1.44734
417 2 37.1575 24.0971 -1.81447 37.1575 24.0971 -1.81447
418 1 38.1203 25.7223 -0.169013 38.1203 25.7223 -0.169013
419 2 40.0334 25.7022 1.4481 40.0334 25.7022 1.4481
420 2 40.0097 25.7423 -1.81376 40.0097 25.7423 -1.81376
421 1 40.9722 24.0759 -0.210059 40.9722 24.0759 -0.210059
422 2 42.8825 24.0559 1.41043 42.8825 24.0559 1.41043
423 2 42.8646 24.096 -1.85146 42.8646 24.096 -1.85146
424 1 43.8242 25.7224 -0.205445 43.8242 25.7224 -0.205445
425 2 45.7317 25.7028 1.41843 45.7317 25.7028 1.41843
426 2 45.7194 25.7421 -1.8435 45.7194 25.7421 -1.8435
427 1 46.6762 24.076 -0.235961 46.6762 24.076 -0.235961
428 2 48.5794 24.0565 1.39293 48.5794 24.0565 1.39293
429 2 48.5757 24.0957 -1.86902 48.5757 24.0957 -1.86902
430 1 49.5282 25.7225 -0.219269 49.5282 25.7225 -0.219269
431 2 51.4273 25.7024 1.41443 51.4273 25.7024 1.41443
432 2 51.4319 25.7428 -1.84751 51.4319 25.7428 -1.84751
433 1 1.04467 27.369 -0.19477 1.04467 27.369 -0.19477
434 2 2.93941 27.3485 1.44395 2.93941 27.3485 1.44395
435 2 2.95257 27.3896 -1.81796 2.95257 27.3896 -1.81796
436 1 3.89663 29.0155 -0.16235 3.89663 29.0155 -0.16235
437 2 5.78763 28.9952 1.4807 5.78763 28.9952 1.4807
438 2 5.80823 29.0359 -1.78117 5.80823 29.0359 -1.78117
439 1 6.74861 27.369 -0.164748 6.74861 27.369 -0.164748
440 2 8.63751 27.347 1.48068 8.63751 27.347 1.48068
441 2 8.6623 27.391 -1.78112 8.6623 27.391 -1.78112
442 1 9.6005 29.0154 -0.120698 9.6005 29.0154 -0.120698
443 2 11.4887 28.994 1.52551 11.4887 28.994 1.52551
444 2 11.5149 29.0369 -1.73629 11.5149 29.0369 -1.73629
445 1 12.4525 27.3689 -0.119464 12.4525 27.3689 -0.119464
446 2 14.3418 27.3459 1.52543 14.3418 27.3459 1.52543
447 2 14.3658 27.3918 -1.73634 14.3658 27.3918 -1.73634
448 1 15.3044 29.0153 -0.0751985 15.3044 29.0153 -0.0751985
449 2 17.1966 28.9937 1.56632 17.1966 28.9937 1.56632
450 2 17.2148 29.0368 -1.69552 17.2148 29.0368 -1.69552
451 1 18.1564 27.3687 -0.0811295 18.1564 27.3687 -0.0811295
452 2 20.0522 27.3457 1.55624 20.0522 27.3457 1.55624
453 2 20.0633 27.3917 -1.7056 20.0633 27.3917 -1.7056
454 1 21.0084 29.0151 -0.0481227 21.0084 29.0151 -0.0481227
455 2 22.9093 28.9946 1.58334 22.9093 28.9946 1.58334
456 2 22.9102 29.0356 -1.67858 22.9102 29.0356 -1.67858
457 1 23.8605 27.3686 -0.0681257 23.8605 27.3686 -0.0681257
458 2 25.7654 27.3466 1.5586 25.7654 27.3466 1.5586
459 2 25.7582 27.3906 -1.70328 25.7582 27.3906 -1.70328
460 1 26.7125 29.0151 -0.0520755 26.7125 29.0151 -0.0520755
461 2 28.6224 28.9963 1.56888 28.6224 28.9963 1.56888
462 2 28.6053 29.0338 -1.69304 28.6053 29.0338 -1.69304
463 1 29.5645 27.3686 -0.0860566 29.5645 27.3686 -0.0860566
464 2 31.4769 27.3481 1.53193 31.4769 27.3481 1.53193
465 2 31.4547 27.389 -1.72992 31.4547 27.389 -1.72992
466 1 32.4165 29.0151 -0.0846844 32.4165 29.0151 -0.0846844
467 2 34.3315 28.998 1.53021 34.3315 28.998 1.53021
468 2 34.304 29.0322 -1.73167 34.304 29.0322 -1.73167
469 1 35.2684 27.3687 -0.126086 35.2684 27.3687 -0.126086
470 2 37.1832 27.3496 1.48908 37.1832 27.3496 1.48908
471 2 37.1562 27.3877 -1.77277 37.1562 27.3877 -1.77277
472 1 38.1204 29.0152 -0.130396 38.1204 29.0152 -0.130396
473 2 40.0345 28.9988 1.48565 40.0345 28.9988 1.48565
474 2 40.0088 29.0317 -1.77627 40.0088 29.0317 -1.77627
475 1 40.9723 27.3688 -0.169415 40.9723 27.3688 -0.169415
476 2 42.8835 27.3503 1.45005 42.8835 27.3503 1.45005
477 2 42.8637 27.3874 -1.81187 42.8637 27.3874 -1.81187
478 1 43.8243 29.0153 -0.16789 43.8243 29.0153 -0.16789
479 2 45.732 28.9983 1.45573 45.732 28.9983 1.45573
480 2 45.7192 29.0324 -1.80627 45.7192 29.0324 -1.80627
481 1 46.6762 27.3689 -0.196225 46.6762 27.3689 -0.196225
482 2 48.5797 27.3498 1.43234 48.5797 27.3498 1.43234
483 2 48.5754 27.3882 -1.82962 48.5754 27.3882 -1.82962
484 1 49.5282 29.0155 -0.180454 49.5282 29.0155 -0.180454
485 2 51.4271 28.9969 1.45355 51.4271 28.9969 1.45355
486 2 51.4321 29.0341 -1.80843 51.4321 29.0341 -1.80843
487 1 1.04463 30.662 -0.157112 1.04463 30.662 -0.157112
488 2 2.93885 30.6444 1.48228 2.93885 30.6444 1.48228
489 2 2.95304 30.6796 -1.7797 2.95304 30.6796 -1.7797
490 1 3.89657 32.3085 -0.126676 3.89657 32.3085 -0.126676
491 2 5.78704 32.2926 1.51705 5.78704 32.2926 1.51705
492 2 5.80867 32.3244 -1.74491 5.80867 32.3244 -1.74491
493 1 6.74854 30.662 -0.123612 6.74854 30.662 -0.123612
494 2 8.63719 30.6428 1.52216 8.63719 30.6428 1.52216
495 2 8.66245 30.6811 -1.7397 8.66245 30.6811 -1.7397
496 1 9.60041 32.3084 -0.081993 9.60041 32.3084 -0.081993
497 2 11.4888 32.2918 1.56415 11.4888 32.2918 1.56415
498 2 11.5146 32.325 -1.69775 11.5146 32.325 -1.69775
499 1 12.4524 30.6618 -0.0759876 12.4524 30.6618 -0.0759876
500 2 14.3421 30.6424 1.56858 14.3421 30.6424 1.56858
501 2 14.3653 30.6812 -1.69328 14.3653 30.6812 -1.69328
502 1 15.3043 32.3083 -0.0358113 15.3043 32.3083 -0.0358113
503 2 17.1975 32.2925 1.60474 17.1975 32.2925 1.60474
504 2 17.2138 32.324 -1.65724 17.2138 32.324 -1.65724
505 1 18.1564 30.6617 -0.0374173 18.1564 30.6617 -0.0374173
506 2 20.0532 30.6433 1.59883 20.0532 30.6433 1.59883
507 2 20.0622 30.6801 -1.66312 20.0622 30.6801 -1.66312
508 1 21.0084 32.3082 -0.0108046 21.0084 32.3082 -0.0108046
509 2 22.9109 32.2945 1.61895 22.9109 32.2945 1.61895
510 2 22.9087 32.3218 -1.6431 22.9087 32.3218 -1.6431
511 1 23.8605 30.6616 -0.0265246 23.8605 30.6616 -0.0265246
512 2 25.7669 30.6452 1.59851 25.7669 30.6452 1.59851
513 2 25.7567 30.678 -1.66348 25.7567 30.678 -1.66348
514 1 26.7125 32.3081 -0.0187599 26.7125 32.3081 -0.0187599
515 2 28.6241 32.2968 1.60036 28.6241 32.2968 1.60036
516 2 28.6037 32.3194 -1.66166 28.6037 32.3194 -1.66166
517 1 29.5645 30.6616 -0.0480247 29.5645 30.6616 -0.0480247
518 2 31.4785 30.6471 1.56826 31.4785 30.6471 1.56826
519 2 31.4533 30.6761 -1.69369 31.4533 30.6761 -1.69369
520 1 32.4165 32.3082 -0.0553512 32.4165 32.3082 -0.0553512
521 2 34.3327 32.2983 1.55828 34.3327 32.2983 1.55828
522 2 34.3029 32.318 -1.70371 34.3029 32.318 -1.70371
523 1 35.2685 30.6616 -0.0913595 35.2685 30.6616 -0.0913595
524 2 37.1843 30.6482 1.52268 37.1843 30.6482 1.52268
525 2 37.1552 30.6752 -1.73927 37.1552 30.6752 -1.73927
526 1 38.1204 32.3082 -0.103088 38.1204 32.3082 -0.103088
527 2 40.0348 32.2983 1.51265 40.0348 32.2983 1.51265
528 2 40.0085 32.3183 -1.74938 40.0085 32.3183 -1.74938
529 1 40.9723 30.6618 -0.136096 40.9723 30.6618 -0.136096
530 2 42.8838 30.6479 1.48311 42.8838 30.6479 1.48311
531 2 42.8634 30.6757 -1.77891 42.8634 30.6757 -1.77891
532 1 43.8243 32.3083 -0.1397 43.8243 32.3083 -0.1397
533 2 45.7316 32.2968 1.48449 45.7316 32.2968 1.48449
534 2 45.7196 32.32 -1.77761 45.7196 32.32 -1.77761
535 1 46.6762 30.6619 -0.161708 46.6762 30.6619 -0.161708
536 2 48.5794 30.6463 1.46733 48.5794 30.6463 1.46733
537 2 48.5758 30.6775 -1.79472 48.5758 30.6775 -1.79472
538 1 49.5282 32.3084 -0.14893 49.5282 32.3084 -0.14893