ITEM: TIMESTEP
43000
ITEM: NUMBER OF ATOMS
810
ITEM: BOX BOUNDS pp pp pp
8.6612216235205719e-01 5.2151482837646775e+01
8.1189801778328452e-01 5.0204316982216675e+01
-1.0000000000000000e+01 1.0000000000000000e+01
ITEM: ATOMS id type x y z xu yu zu
1 1 1.07507 1.02836 0.260528 1.07507 1.02836 0.260528
2 2 3.04267 1.06858 1.80994 3.04267 1.06858 1.80994
3 2 2.90695 0.988233 -1.44841 2.90695 0.988233 -1.44841
4 1 3.92406 2.67423 0.100366 3.92406 2.67423 0.100366
5 2 5.91169 2.71393 1.62395 5.91169 2.71393 1.62395
6 2 5.73328 2.63448 -1.6324 5.73328 2.63448 -1.6324
7 1 6.7723 1.02753 -0.0160997 6.7723 1.02753 -0.0160997
8 2 8.77227 1.06544 1.4915 8.77227 1.06544 1.4915
9 2 8.56748 0.989369 -1.76336 8.56748 0.989369 -1.76336
10 1 9.61804 2.67295 -0.234312 9.61804 2.67295 -0.234312
11 2 11.6174 2.70981 1.27427 11.6174 2.70981 1.27427
12 2 11.4139 2.6357 -1.98071 11.4139 2.6357 -1.98071
13 1 12.465 1.02593 -0.375038 12.465 1.02593 -0.375038
14 2 14.4546 1.06101 1.14668 14.4546 1.06101 1.14668
15 2 14.2722 0.990364 -2.10963 14.2722 0.990364 -2.10963
16 1 15.3124 2.67125 -0.570541 15.3124 2.67125 -0.570541
17 2 17.2786 2.70458 0.981572 17.2786 2.70458 0.981572
18 2 17.1459 2.63746 -2.27716 17.1459 2.63746 -2.27716
19 1 18.1626 1.02429 -0.652497 18.1626 1.02429 -0.652497
20 2 20.0983 1.0585 0.937825 20.0983 1.0585 0.937825
21 2 20.029 0.989585 -2.32285 20.029 0.989585 -2.32285
22 1 21.0144 2.67001 -0.747567 21.0144 2.67001 -0.747567
23 2 22.9123 2.70165 0.888068 22.9123 2.70165 0.888068
24 2 22.9198 2.63804 -2.37337 22.9198 2.63804 -2.37337
25 1 23.8669 1.02335 -0.708181 23.8669 1.02335 -0.708181
26 2 25.7268 1.05898 0.970548 25.7268 1.05898 0.970548
27 2 25.809 0.987461 -2.28974 25.809 0.987461 -2.28974
28 1 26.7187 2.66973 -0.671722 26.7187 2.66973 -0.671722
29 2 28.5446 2.70177 1.04407 28.5446 2.70177 1.04407
30 2 28.6923 2.63764 -2.21403 28.6923 2.63764 -2.21403
31 1 29.5679 1.02362 -0.509341 29.5679 1.02362 -0.509341
32 2 31.3694 1.06107 1.23175 31.3694 1.06107 1.23175
33 2 31.5627 0.986333 -2.0238 31.5627 0.986333 -2.0238
34 1 32.4156 2.67055 -0.377415 32.4156 2.67055 -0.377415
35 2 34.2057 2.70402 1.37514 34.2057 2.70402 1.37514
36 2 34.4201 2.63736 -1.8793 34.4201 2.63736 -1.8793
37 1 35.2611 1.02503 -0.155776 35.2611 1.02503 -0.155776
38 2 37.0547 1.06373 1.59289 37.0547 1.06373 1.59289
39 2 37.2625 0.986773 -1.66177 37.2625 0.986773 -1.66177
40 1 38.1079 2.67209 -0.0128172 38.1079 2.67209 -0.0128172
41 2 39.9181 2.70773 1.71831 39.9181 2.70773 1.71831
42 2 40.0946 2.63692 -1.53838 40.0946 2.63692 -1.53838
43 1 40.9554 1.0268 0.177218 40.9554 1.0268 0.177218
44 2 42.7927 1.06663 1.87935 42.7927 1.06663 1.87935
45 2 42.9179 0.987459 -1.37949 42.9179 0.987459 -1.37949
46 1 43.8056 2.67362 0.246281 43.8056 2.67362 0.246281
47 2 45.676 2.71173 1.91168 45.676 2.71173 1.91168
48 2 45.737 2.636 -1.34912 45.737 2.636 -1.34912
49 1 46.657 1.02808 0.337224 46.657 1.02808 0.337224
50 2 48.5629 1.0687 1.96203 48.5629 1.0687 1.96203
51 2 48.554 0.987819 -1.29914 48.554 0.987819 -1.29914
52 1 49.5089 2.67447 0.287784 49.5089 2.67447 0.287784
53 2 51.4478 2.71437 1.87285 51.4478 2.71437 1.87285
54 2 51.3716 2.63487 -1.38752 51.3716 2.63487 -1.38752
55 1 1.07423 4.32061 0.180054 1.07423 4.32061 0.180054
56 2 3.04108 4.35909 1.73018 3.04108 4.35909 1.73018
57 2 2.90647 4.28229 -1.52839 2.90647 4.28229 -1.52839
58 1 3.92282 5.96652 0.0226188 3.92282 5.96652 0.0226188
59 2 5.90971 6.00247 1.54706 5.90971 6.00247 1.54706
60 2 5.73256 5.93051 -1.70958 5.73256 5.93051 -1.70958
61 1 6.77092 4.31986 -0.0966281 6.77092 4.31986 -0.0966281
62 2 8.76884 4.35751 1.41356 8.76884 4.35751 1.41356
63 2 8.56828 4.28196 -1.8416 8.56828 4.28196 -1.8416
64 1 9.61658 5.96538 -0.310928 9.61658 5.96538 -0.310928
65 2 11.6133 5.99886 1.20113 11.6133 5.99886 1.20113
66 2 11.4154 5.93153 -2.05432 11.4154 5.93153 -2.05432
67 1 12.4639 4.31832 -0.450232 12.4639 4.31832 -0.450232
68 2 14.4508 4.35179 1.07512 14.4508 4.35179 1.07512
69 2 14.2743 4.28441 -2.18154 14.2743 4.28441 -2.18154
70 1 15.3115 5.96394 -0.638935 15.3115 5.96394 -0.638935
71 2 17.2744 5.99136 0.917645 17.2744 5.99136 0.917645
72 2 17.149 5.9362 -2.34153 17.149 5.9362 -2.34153
73 1 18.1622 4.3169 -0.720552 18.1622 4.3169 -0.720552
74 2 20.0959 4.34568 0.872435 20.0959 4.34568 0.872435
75 2 20.0311 4.28781 -2.38845 20.0311 4.28781 -2.38845
76 1 21.0142 5.96311 -0.806245 21.0142 5.96311 -0.806245
77 2 22.9096 5.98476 0.832478 22.9096 5.98476 0.832478
78 2 22.9224 5.94134 -2.42919 22.9224 5.94134 -2.42919
79 1 23.867 4.31628 -0.7726 23.867 4.31628 -0.7726
80 2 25.7262 4.34258 0.907251 25.7262 4.34258 0.907251
81 2 25.8102 4.28985 -2.35326 25.8102 4.28985 -2.35326
82 1 26.7189 5.96308 -0.725134 26.7189 5.96308 -0.725134
83 2 28.5439 5.98222 0.991815 28.5439 5.98222 0.991815
84 2 28.6934 5.9439 -2.26655 28.6934 5.9439 -2.26655
85 1 29.5685 4.31657 -0.574301 29.5685 4.31657 -0.574301
86 2 31.3698 4.34308 1.16717 31.3698 4.34308 1.16717
87 2 31.5637 4.29014 -2.08874 31.5637 4.29014 -2.08874
88 1 32.416 5.96364 -0.431033 32.416 5.96364 -0.431033
89 2 34.2065 5.98409 1.32124 34.2065 5.98409 1.32124
90 2 34.4201 5.94329 -1.93368 34.4201 5.94329 -1.93368
91 1 35.262 4.31763 -0.223315 35.262 4.31763 -0.223315
92 2 37.0557 4.34649 1.52525 37.0557 4.34649 1.52525
93 2 37.2631 4.28908 -1.72987 37.2631 4.28908 -1.72987
94 1 38.1084 5.96466 -0.070931 38.1084 5.96466 -0.070931
95 2 39.9197 5.98908 1.65901 39.9197 5.98908 1.65901
96 2 40.0938 5.94058 -1.59828 40.0938 5.94058 -1.59828
97 1 40.956 4.31905 0.105522 40.956 4.31905 0.105522
98 2 42.7936 4.35154 1.80722 42.7936 4.35154 1.80722
99 2 42.9179 4.28704 -1.45207 42.9179 4.28704 -1.45207
100 1 43.8058 5.96584 0.181057 43.8058 5.96584 0.181057
101 2 45.6775 5.99527 1.84502 45.6775 5.99527 1.84502
102 2 45.7356 5.9369 -1.4163 45.7356 5.9369 -1.4163
103 1 46.657 4.32024 0.260601 46.657 4.32024 0.260601
104 2 48.5629 4.3564 1.88514 48.5629 4.3564 1.88514
105 2 48.5534 4.28452 -1.37635 48.5534 4.28452 -1.37635
106 1 49.5085 5.96665 0.215098 49.5085 5.96665 0.215098
107 2 51.448 6.00057 1.79923 51.448 6.00057 1.79923
108 2 51.37 5.93307 -1.46147 51.37 5.93307 -1.46147
109 1 1.07333 7.61287 0.111808 1.07333 7.61287 0.111808
110 2 3.04104 7.64392 1.66081 3.04104 7.64392 1.66081
111 2 2.90428 7.58198 -1.59806 2.90428 7.58198 -1.59806
112 1 3.92155 9.25897 -0.0400219 3.92155 9.25897 -0.0400219
113 2 5.90892 9.28594 1.48383 5.90892 9.28594 1.48383
114 2 5.73053 9.23193 -1.77312 5.73053 9.23193 -1.77312
115 1 6.76941 7.6123 -0.169513 6.76941 7.6123 -0.169513
116 2 8.76601 7.644 1.34244 8.76601 7.644 1.34244
117 2 8.56814 7.58036 -1.91314 8.56814 7.58036 -1.91314
118 1 9.61503 9.25815 -0.375463 9.61503 9.25815 -0.375463
119 2 11.6093 9.28328 1.14001 11.6093 9.28328 1.14001
120 2 11.4168 9.23268 -2.11604 11.4168 9.23268 -2.11604
121 1 12.4626 7.61106 -0.518582 12.4626 7.61106 -0.518582
122 2 14.4459 7.63781 1.01161 14.4459 7.63781 1.01161
123 2 14.2772 7.58396 -2.24566 14.2772 7.58396 -2.24566
124 1 15.3106 9.25716 -0.693673 15.3106 9.25716 -0.693673
125 2 17.2688 9.27469 0.86906 17.2688 9.27469 0.86906
126 2 17.1534 9.23947 -2.39071 17.1534 9.23947 -2.39071
127 1 18.1617 7.61008 -0.776576 18.1617 7.61008 -0.776576
128 2 20.0913 7.62896 0.821567 20.0913 7.62896 0.821567
129 2 20.0351 7.59111 -2.4397 20.0351 7.59111 -2.4397
130 1 21.0139 9.25682 -0.844734 21.0139 9.25682 -0.844734
131 2 22.9051 9.26546 0.799181 22.9051 9.26546 0.799181
132 2 22.9266 9.24822 -2.46264 22.9266 9.24822 -2.46264
133 1 23.867 7.60988 -0.816638 23.867 7.60988 -0.816638
134 2 25.7237 7.62273 0.866144 25.7237 7.62273 0.866144
135 2 25.8127 7.59702 -2.3945 25.8127 7.59702 -2.3945
136 1 26.7186 9.25698 -0.751215 26.7186 9.25698 -0.751215
137 2 28.5419 9.26073 0.967643 28.5419 9.26073 0.967643
138 2 28.6948 9.25316 -2.29077 28.6948 9.25316 -2.29077
139 1 29.5685 7.61014 -0.613117 29.5685 7.61014 -0.613117
140 2 31.3696 7.62176 1.12866 31.3696 7.62176 1.12866
141 2 31.5638 7.59847 -2.12756 31.5638 7.59847 -2.12756
142 1 32.4156 9.25717 -0.454583 32.4156 9.25717 -0.454583
143 2 34.2073 9.26197 1.29657 34.2073 9.26197 1.29657
144 2 34.4187 9.25227 -1.95873 34.4187 9.25227 -1.95873
145 1 35.262 7.61067 -0.264598 35.262 7.61067 -0.264598
146 2 37.0573 7.6255 1.48248 37.0573 7.6255 1.48248
147 2 37.2617 7.59596 -1.77323 37.2617 7.59596 -1.77323
148 1 38.1082 9.25753 -0.100751 38.1082 9.25753 -0.100751
149 2 39.9222 9.26741 1.62648 39.9222 9.26741 1.62648
150 2 40.0912 9.24782 -1.63143 40.0912 9.24782 -1.63143
151 1 40.9561 7.61153 0.0565023 40.9561 7.61153 0.0565023
152 2 42.7959 7.63189 1.7559 42.7959 7.63189 1.7559
153 2 42.9158 7.59155 -1.50403 42.9158 7.59155 -1.50403
154 1 43.8057 9.25824 0.140345 43.8057 9.25824 0.140345
155 2 45.6803 9.27487 1.80104 45.6803 9.27487 1.80104
156 2 45.7324 9.24204 -1.4608 45.7324 9.24204 -1.4608
157 1 46.6569 7.61246 0.201631 46.6569 7.61246 0.201631
158 2 48.5647 7.63887 1.82387 48.5647 7.63887 1.82387
159 2 48.5509 7.5865 -1.43807 48.5509 7.5865 -1.43807
160 1 49.5079 9.25894 0.162229 49.5079 9.25894 0.162229
161 2 51.4498 9.28209 1.74356 51.4498 9.28209 1.74356
162 2 51.3667 9.23611 -1.51745 51.3667 9.23611 -1.51745
163 1 1.07245 10.9053 0.0653948 1.07245 10.9053 0.0653948
164 2 3.04232 10.9245 1.6117 3.04232 10.9245 1.6117
165 2 2.9008 10.8863 -1.64737 2.9008 10.8863 -1.64737
166 1 3.92038 12.5517 -0.0786467 3.92038 12.5517 -0.0786467
167 2 5.90922 12.5656 1.44341 5.90922 12.5656 1.44341
168 2 5.72762 12.5377 -1.8137 5.72762 12.5377 -1.8137
169 1 6.76792 10.9051 -0.224185 6.76792 10.9051 -0.224185
170 2 8.76398 10.9261 1.28861 8.76398 10.9261 1.28861
171 2 8.5672 10.8838 -1.96738 8.5672 10.8838 -1.96738
172 1 9.61358 12.5513 -0.4184 9.61358 12.5513 -0.4184
173 2 11.6058 12.5643 1.09995 11.6058 12.5643 1.09995
174 2 11.4177 12.5381 -2.15663 11.4177 12.5381 -2.15663
175 1 12.4613 10.9043 -0.569991 12.4613 10.9043 -0.569991
176 2 14.4406 10.9204 0.965519 14.4406 10.9204 0.965519
177 2 14.2805 10.8879 -2.29243 14.2805 10.8879 -2.29243
178 1 15.3098 12.5509 -0.726834 15.3098 12.5509 -0.726834
179 2 17.2627 12.5561 0.84267 17.2627 12.5561 0.84267
180 2 17.1584 12.5456 -2.41762 17.1584 12.5456 -2.41762
181 1 18.1612 10.9038 -0.812473 18.1612 10.9038 -0.812473
182 2 20.0853 10.9103 0.792485 20.0853 10.9103 0.792485
183 2 20.0404 10.8973 -2.46912 20.0404 10.8973 -2.46912
184 1 21.0137 12.5509 -0.858087 21.0137 12.5509 -0.858087
185 2 22.8993 12.5458 0.792223 22.8993 12.5458 0.792223
186 2 22.9318 12.5561 -2.46952 22.9318 12.5561 -2.46952
187 1 23.8667 10.9039 -0.834228 23.8667 10.9039 -0.834228
188 2 25.7196 10.902 0.852806 25.7196 10.902 0.852806
189 2 25.816 10.9059 -2.40771 25.816 10.9059 -2.40771
190 1 26.718 12.5511 -0.747359 26.718 12.5511 -0.747359
191 2 28.539 12.5396 0.973911 28.539 12.5396 0.973911
192 2 28.6962 12.5624 -2.28423 28.6962 12.5624 -2.28423
193 1 29.5679 10.904 -0.620797 29.5679 10.904 -0.620797
194 2 31.3688 10.8997 1.12118 31.3688 10.8997 1.12118
195 2 31.5634 10.9082 -2.13509 31.5634 10.9082 -2.13509
196 1 32.4147 12.5508 -0.445861 32.4147 12.5508 -0.445861
197 2 34.2078 12.5397 1.3037 34.2078 12.5397 1.3037
198 2 34.4165 12.5616 -1.95173 34.4165 12.5616 -1.95173
199 1 35.2614 10.904 -0.274347 35.2614 10.904 -0.274347
200 2 37.0591 10.903 1.47019 37.0591 10.903 1.47019
201 2 37.2589 10.9049 -1.78597 37.2589 10.9049 -1.78597
202 1 38.1075 12.5505 -0.0987366 38.1075 12.5505 -0.0987366
203 2 39.925 12.5446 1.62481 39.925 12.5446 1.62481
204 2 40.0874 12.5565 -1.63348 40.0874 12.5565 -1.63348
205 1 40.9558 10.9042 0.0367992 40.9558 10.9042 0.0367992
206 2 42.7991 10.9097 1.73245 42.7991 10.9097 1.73245
207 2 42.9121 10.899 -1.52799 42.9121 10.899 -1.52799
208 1 43.8054 12.5508 0.12963 43.8054 12.5508 0.12963
209 2 45.6839 12.5522 1.7858 45.6839 12.5522 1.7858
210 2 45.7281 12.5497 -1.47636 45.7281 12.5497 -1.47636
211 1 46.6565 10.9048 0.168561 46.6565 10.9048 0.168561
212 2 48.5677 10.9178 1.78684 48.5677 10.9178 1.78684
213 2 48.5469 10.8923 -1.47544 48.5469 10.8923 -1.47544
214 1 49.5074 12.5514 0.13654 49.5074 12.5514 0.13654
215 2 51.4527 12.5604 1.71367 51.4527 12.5604 1.71367
216 2 51.3623 12.5427 -1.54746 51.3623 12.5427 -1.54746
217 1 1.07171 14.1979 0.047605 1.07171 14.1979 0.047605
218 2 3.04464 14.2022 1.59008 3.04464 14.2022 1.59008
219 2 2.89664 14.1938 -1.66892 2.89664 14.1938 -1.66892
220 1 3.91952 15.8446 -0.0870059 3.91952 15.8446 -0.0870059
221 2 5.91052 15.8429 1.43229 5.91052 15.8429 1.43229
222 2 5.72433 15.8462 -1.82467 5.72433 15.8462 -1.82467
223 1 6.76664 14.1981 -0.252431 6.76664 14.1981 -0.252431
224 2 8.76292 14.2051 1.26021 8.76292 14.2051 1.26021
225 2 8.56569 14.191 -1.99599 8.56569 14.191 -1.99599
226 1 9.61245 15.8448 -0.432749 9.61245 15.8448 -0.432749
227 2 11.6034 15.8432 1.08738 11.6034 15.8432 1.08738
228 2 11.4181 15.8462 -2.16946 11.4181 15.8462 -2.16946
229 1 12.4602 14.1979 -0.596659 12.4602 14.1979 -0.596659
230 2 14.4359 14.2009 0.943692 14.4359 14.2009 0.943692
231 2 14.2835 14.1947 -2.31477 14.2835 14.1947 -2.31477
232 1 15.3091 15.8448 -0.733252 15.3091 15.8448 -0.733252
233 2 17.2572 15.8368 0.842319 17.2572 15.8368 0.842319
234 2 17.163 15.8527 -2.41825 17.163 15.8527 -2.41825
235 1 18.1608 14.1979 -0.823357 18.1608 14.1979 -0.823357
236 2 20.0789 14.1913 0.788805 20.0789 14.1913 0.788805
237 2 20.0462 14.2044 -2.47294 20.0462 14.2044 -2.47294
238 1 21.0134 15.845 -0.845078 21.0134 15.845 -0.845078
239 2 22.8933 15.8274 0.811625 22.8933 15.8274 0.811625
240 2 22.9369 15.8626 -2.44984 22.9369 15.8626 -2.44984
241 1 23.8663 14.1981 -0.824036 23.8663 14.1981 -0.824036
242 2 25.7146 14.1823 0.867855 25.7146 14.1823 0.867855
243 2 25.8197 14.2138 -2.39226 25.8197 14.2138 -2.39226
244 1 26.7172 15.8449 -0.715641 26.7172 15.8449 -0.715641
245 2 28.5355 15.8205 1.0083 28.5355 15.8205 1.0083
246 2 28.6977 15.8691 -2.24934 28.6977 15.8691 -2.24934
247 1 29.5669 14.1978 -0.597747 29.5669 14.1978 -0.597747
248 2 31.3674 14.1787 1.1445 31.3674 14.1787 1.1445
249 2 31.5626 14.2167 -2.11152 31.5626 14.2167 -2.11152
250 1 32.4134 15.8442 -0.407293 32.4134 15.8442 -0.407293
251 2 34.2078 15.8191 1.34074 34.2078 15.8191 1.34074
252 2 34.414 15.8689 -1.91455 34.414 15.8689 -1.91455
253 1 35.2603 14.1972 -0.252114 35.2603 14.1972 -0.252114
254 2 37.0608 14.1808 1.48942 37.0608 14.1808 1.48942
255 2 37.2554 14.2135 -1.76688 37.2554 14.2135 -1.76688
256 1 38.1065 15.8434 -0.0654965 38.1065 15.8434 -0.0654965
257 2 39.9275 15.8225 1.65413 39.9275 15.8225 1.65413
258 2 40.0832 15.8643 -1.60423 40.0832 15.8643 -1.60423
259 1 40.9552 14.1969 0.0488983 40.9552 14.1969 0.0488983
260 2 42.8025 14.1867 1.74005 42.8025 14.1867 1.74005
261 2 42.9077 14.2074 -1.5206 42.9077 14.2074 -1.5206
262 1 43.8049 15.8433 0.150704 43.8049 15.8433 0.150704
263 2 45.6879 15.829 1.80181 45.6879 15.829 1.80181
264 2 45.7234 15.8579 -1.4603 45.7234 15.8579 -1.4603
265 1 46.6562 14.1973 0.166127 46.6562 14.1973 0.166127
266 2 48.5716 14.1948 1.77941 48.5716 14.1948 1.77941
267 2 48.5422 14.2003 -1.48291 48.5422 14.2003 -1.48291
268 1 49.507 15.8439 0.142282 49.507 15.8439 0.142282
269 2 51.4563 15.837 1.71439 51.4563 15.837 1.71439
270 2 51.3576 15.8512 -1.5465 51.3576 15.8512 -1.5465
271 1 1.07129 17.4906 0.0621607 1.07129 17.4906 0.0621607
272 2 3.04772 17.4786 1.60016 3.04772 17.4786 1.60016
273 2 2.89244 17.5028 -1.6584 2.89244 17.5028 -1.6584
274 1 3.91918 19.1374 -0.0623057 3.91918 19.1374 -0.0623057
275 2 5.91283 19.1196 1.4535 5.91283 19.1196 1.4535
276 2 5.72111 19.1553 -1.80292 5.72111 19.1553 -1.80292
277 1 6.76582 17.4913 -0.248972 6.76582 17.4913 -0.248972
278 2 8.76308 17.4825 1.26241 8.76308 17.4825 1.26241
279 2 8.56382 17.5 -1.99363 8.56382 17.5 -1.99363
280 1 9.61188 19.1383 -0.415026 9.61188 19.1383 -0.415026
281 2 11.6026 19.1217 1.1053 11.6026 19.1217 1.1053
282 2 11.4178 19.1546 -2.15139 11.4178 19.1546 -2.15139
283 1 12.4595 17.4917 -0.593724 12.4595 17.4917 -0.593724
284 2 14.4325 17.4806 0.949999 14.4325 17.4806 0.949999
285 2 14.2857 17.5026 -2.30865 14.2857 17.5026 -2.30865
286 1 15.3088 19.1387 -0.711113 15.3088 19.1387 -0.711113
287 2 17.2534 19.1183 0.868559 17.2534 19.1183 0.868559
288 2 17.1662 19.1587 -2.39203 17.1662 19.1587 -2.39203
289 1 18.1604 17.4919 -0.807512 18.1604 17.4919 -0.807512
290 2 20.0734 17.4733 0.810789 20.0734 17.4733 0.810789
291 2 20.0512 17.5103 -2.45089 20.0512 17.5103 -2.45089
292 1 21.0131 19.1388 -0.80785 21.0131 19.1388 -0.80785
293 2 22.8884 19.1114 0.853988 22.8884 19.1114 0.853988
294 2 22.941 19.1659 -2.40714 22.941 19.1659 -2.40714
295 1 23.8658 17.4919 -0.788584 23.8658 17.4919 -0.788584
296 2 25.7097 17.4651 0.907934 25.7097 17.4651 0.907934
297 2 25.8231 17.5184 -2.35167 25.8231 17.5184 -2.35167
298 1 26.7163 19.1383 -0.661766 26.7163 19.1383 -0.661766
299 2 28.5319 19.1049 1.06478 28.5319 19.1049 1.06478
300 2 28.6989 19.1713 -2.19235 28.6989 19.1713 -2.19235
301 1 29.5656 17.4912 -0.548586 29.5656 17.4912 -0.548586
302 2 31.3654 17.4604 1.19422 31.3654 17.4604 1.19422
303 2 31.5619 17.5217 -2.0614 31.5619 17.5217 -2.0614
304 1 32.4119 19.1371 -0.345224 32.4119 19.1371 -0.345224
305 2 34.2071 19.1019 1.40184 34.2071 19.1019 1.40184
306 2 34.4118 19.1721 -1.85316 34.4118 19.1721 -1.85316
307 1 35.259 17.4902 -0.201589 35.259 17.4902 -0.201589
308 2 37.0619 17.4606 1.53722 37.0619 17.4606 1.53722
309 2 37.2519 17.5196 -1.71897 37.2519 17.5196 -1.71897
310 1 38.1053 19.136 -0.00567935 38.1053 19.136 -0.00567935
311 2 39.9294 19.1028 1.71057 39.9294 19.1028 1.71057
312 2 40.0793 19.1692 -1.5476 40.0793 19.1692 -1.5476
313 1 40.9544 17.4895 0.0914232 40.9544 17.4895 0.0914232
314 2 42.8057 17.4646 1.77809 42.8057 17.4646 1.77809
315 2 42.9033 17.5146 -1.48244 42.9033 17.5146 -1.48244
316 1 43.8043 19.1356 0.20141 43.8043 19.1356 0.20141
317 2 45.6914 19.1072 1.84773 45.6914 19.1072 1.84773
318 2 45.7191 19.1645 -1.41401 45.7191 19.1645 -1.41401
319 1 46.6558 17.4897 0.195569 46.6558 17.4897 0.195569
320 2 48.5757 17.4714 1.80354 48.5757 17.4714 1.80354
321 2 48.5375 17.5085 -1.45844 48.5375 17.5085 -1.45844
322 1 49.5068 19.1363 0.180008 49.5068 19.1363 0.180008
323 2 51.4603 19.1137 1.74698 51.4603 19.1137 1.74698
324 2 51.3533 19.1594 -1.5133 51.3533 19.1594 -1.5133
325 1 1.07136 20.783 0.108577 1.07136 20.783 0.108577
326 2 3.05131 20.7558 1.64201 3.05131 20.7558 1.64201
327 2 2.88886 20.8106 -1.61578 2.88886 20.8106 -1.61578
328 1 3.91954 22.4299 -0.00669609 3.91954 22.4299 -0.00669609
329 2 5.91607 22.3983 1.50524 5.91607 22.3983 1.50524
330 2 5.71841 22.4619 -1.75036 5.71841 22.4619 -1.75036
331 1 6.76569 20.7843 -0.212691 6.76569 20.7843 -0.212691
332 2 8.76473 20.7605 1.29628 8.76473 20.7605 1.29628
333 2 8.56176 20.8082 -1.95923 8.56176 20.8082 -1.95923
334 1 9.61204 22.4313 -0.3666 9.61204 22.4313 -0.3666
335 2 11.6039 22.402 1.15211 11.6039 22.402 1.15211
336 2 11.4166 22.4606 -2.10411 11.4166 22.4606 -2.10411
337 1 12.4592 20.7852 -0.560381 12.4592 20.7852 -0.560381
338 2 14.4313 20.7612 0.984483 14.4313 20.7612 0.984483
339 2 14.2865 20.8089 -2.27401 14.2865 20.8089 -2.27401
340 1 15.3088 22.4321 -0.662884 15.3088 22.4321 -0.662884
341 2 17.2523 22.4023 0.918087 17.2523 22.4023 0.918087
342 2 17.1673 22.4615 -2.34234 17.1673 22.4615 -2.34234
343 1 18.1603 20.7855 -0.766767 18.1603 20.7855 -0.766767
344 2 20.0699 20.7576 0.85536 20.0699 20.7576 0.85536
345 2 20.0542 20.8131 -2.40616 20.0542 20.8131 -2.40616
346 1 21.0129 22.432 -0.751837 21.0129 22.432 -0.751837
347 2 22.8854 22.399 0.912887 22.8854 22.399 0.912887
348 2 22.9431 22.4644 -2.34804 22.9431 22.4644 -2.34804
349 1 23.8652 20.7852 -0.733631 23.8652 20.7852 -0.733631
350 2 25.7057 20.7516 0.966475 25.7057 20.7516 0.966475
351 2 25.8255 20.8183 -2.29272 25.8255 20.8183 -2.29272
352 1 26.7154 22.4311 -0.594318 26.7154 22.4311 -0.594318
353 2 28.5288 22.394 1.13437 28.5288 22.394 1.13437
354 2 28.6997 22.4677 -2.12246 28.6997 22.4677 -2.12246
355 1 29.5643 20.7841 -0.481375 29.5643 20.7841 -0.481375
356 2 31.363 20.7465 1.26238 31.363 20.7465 1.26238
357 2 31.5614 20.8213 -1.99287 31.5614 20.8213 -1.99287
358 1 32.4104 22.4296 -0.269447 32.4104 22.4296 -0.269447
359 2 34.2056 22.3898 1.47754 34.2056 22.3898 1.47754
360 2 34.4103 22.4693 -1.77724 34.4103 22.4693 -1.77724
361 1 35.2574 20.7827 -0.130414 35.2574 20.7827 -0.130414
362 2 37.0621 20.7445 1.60658 37.0621 20.7445 1.60658
363 2 37.249 20.8209 -1.64938 37.249 20.8209 -1.64938
364 1 38.1039 22.4283 0.0717724 38.1039 22.4283 0.0717724
365 2 39.9301 22.3881 1.78587 39.9301 22.3881 1.78587
366 2 40.0764 22.4686 -1.47207 40.0764 22.4686 -1.47207
367 1 40.9534 20.7818 0.158694 40.9534 20.7818 0.158694
368 2 42.8081 20.7458 1.8417 42.8081 20.7458 1.8417
369 2 42.8996 20.8181 -1.41851 42.8996 20.8181 -1.41851
370 1 43.8038 22.4278 0.274758 43.8038 22.4278 0.274758
371 2 45.6941 22.3894 1.91745 45.6941 22.3894 1.91745
372 2 45.7158 22.4667 -1.34383 45.7158 22.4667 -1.34383
373 1 46.6556 20.782 0.253756 46.6556 20.782 0.253756
374 2 48.5794 20.75 1.85697 48.5794 20.75 1.85697
375 2 48.5336 20.8144 -1.40441 48.5336 20.8144 -1.40441
376 1 49.507 22.4285 0.245284 49.507 22.4285 0.245284
377 2 51.464 22.3932 1.80785 51.464 22.3932 1.80785
378 2 51.3501 22.4643 -1.45166 51.3501 22.4643 -1.45166
379 1 1.07198 24.0752 0.180667 1.07198 24.0752 0.180667
380 2 3.05497 24.037 1.71019 3.05497 24.037 1.71019
381 2 2.88649 24.114 -1.54676 2.88649 24.114 -1.54676
382 1 3.92059 25.7222 0.0714297 3.92059 25.7222 0.0714297
383 2 5.91982 25.6819 1.57982 5.91982 25.6819 1.57982
384 2 5.71668 25.7629 -1.67501 5.71668 25.7629 -1.67501
385 1 6.76637 24.0769 -0.148102 6.76637 24.0769 -0.148102
386 2 8.76784 24.0416 1.35753 8.76784 24.0416 1.35753
387 2 8.55974 24.1125 -1.89722 8.55974 24.1125 -1.89722
388 1 9.61296 25.7239 -0.294691 9.61296 25.7239 -0.294691
389 2 11.6072 25.6866 1.22084 11.6072 25.6866 1.22084
390 2 11.4148 25.7613 -2.03479 11.4148 25.7613 -2.03479
391 1 12.4596 24.0783 -0.500979 12.4596 24.0783 -0.500979
392 2 14.4326 24.045 1.04253 14.4326 24.045 1.04253
393 2 14.2857 24.1112 -2.21561 14.2857 24.1112 -2.21561
394 1 15.3092 25.7249 -0.595818 15.3092 25.7249 -0.595818
395 2 17.2539 25.6903 0.983494 17.2539 25.6903 0.983494
396 2 17.1661 25.7589 -2.27676 17.1661 25.7589 -2.27676
397 1 18.1604 24.0786 -0.706883 18.1604 24.0786 -0.706883
398 2 20.0691 24.0455 0.916056 20.0691 24.0455 0.916056
399 2 20.0548 24.1111 -2.34538 20.0548 24.1111 -2.34538
400 1 21.0128 25.7246 -0.685478 21.0128 25.7246 -0.685478
401 2 22.885 25.6911 0.979426 22.885 25.6911 0.979426
402 2 22.9428 25.7574 -2.28158 22.9428 25.7574 -2.28158
403 1 23.8647 24.0779 -0.667556 23.8647 24.0779 -0.667556
404 2 25.7034 24.0428 1.03444 25.7034 24.0428 1.03444
405 2 25.8264 24.1125 -2.22465 25.8264 24.1125 -2.22465
406 1 26.7147 25.7235 -0.523742 26.7147 25.7235 -0.523742
407 2 28.5269 25.6886 1.2062 28.5269 25.6886 1.2062
408 2 28.6998 25.758 -2.05068 28.6998 25.758 -2.05068
409 1 29.5631 24.0766 -0.40676 29.5631 24.0766 -0.40676
410 2 31.3606 24.0383 1.33819 31.3606 24.0383 1.33819
411 2 31.5611 24.1146 -1.91693 31.5611 24.1146 -1.91693
412 1 32.4091 25.722 -0.192147 32.4091 25.722 -0.192147
413 2 34.2037 25.6842 1.55561 34.2037 25.6842 1.55561
414 2 34.4096 25.7596 -1.69918 34.4096 25.7596 -1.69918
415 1 35.256 24.0751 -0.0498815 35.256 24.0751 -0.0498815
416 2 37.0612 24.0345 1.6866 37.0612 24.0345 1.6866
417 2 37.2472 24.1157 -1.56925 37.2472 24.1157 -1.56925
418 1 38.1028 25.7207 0.154057 38.1028 25.7207 0.154057
419 2 39.9296 25.6805 1.86762 39.9296 25.6805 1.86762
420 2 40.075 25.761 -1.39027 40.075 25.761 -1.39027
421 1 40.9525 24.074 0.240242 40.9525 24.074 0.240242
422 2 42.8092 24.0328 1.92113 42.8092 24.0328 1.92113
423 2 42.8972 24.1156 -1.33882 42.8972 24.1156 -1.33882
424 1 43.8033 25.7201 0.358595 43.8033 25.7201 0.358595
425 2 45.6954 25.6785 1.9996 45.6954 25.6785 1.9996
426 2 45.7143 25.7621 -1.2614 45.7143 25.7621 -1.2614
427 1 46.6556 24.0741 0.332091 46.6556 24.0741 0.332091
428 2 48.5822 24.0337 1.93202 48.5822 24.0337 1.93202
429 2 48.5312 24.115 -1.32878 48.5312 24.115 -1.32878
430 1 49.5075 25.7206 0.327728 49.5075 25.7206 0.327728
431 2 51.4669 25.6787 1.88756 51.4669 25.6787 1.88756
432 2 51.3487 25.7631 -1.37137 51.3487 25.7631 -1.37137
433 1 1.07303 27.3674 0.266161 1.07303 27.3674 0.266161
434 2 3.05798 27.3249 1.79336 3.05798 27.3249 1.79336
435 2 2.88585 27.4104 -1.4631 2.88585 27.4104 -1.4631
436 1 3.92212 29.0144 0.158098 3.92212 29.0144 0.158098
437 2 5.92324 28.9729 1.66418 5.92324 28.9729 1.66418
438 2 5.71636 29.0564 -1.5903 5.71636 29.0564 -1.5903
439 1 6.76776 27.3692 -0.0658866 6.76776 27.3692 -0.0658866
440 2 8.77189 27.3285 1.43621 8.77189 27.3285 1.43621
441 2 8.55818 27.4102 -1.81793 8.55818 27.4102 -1.81793
442 1 9.61448 29.0162 -0.211832 9.61448 29.0162 -0.211832
443 2 11.6117 28.9775 1.2997 11.6117 28.9775 1.2997
444 2 11.4128 29.055 -1.95551 11.4128 29.055 -1.95551
445 1 12.4606 27.3707 -0.4252 12.4606 27.3707 -0.4252
446 2 14.4362 27.3339 1.1148 14.4362 27.3339 1.1148
447 2 14.2835 27.4073 -2.14298 14.2835 27.4073 -2.14298
448 1 15.31 29.0172 -0.521285 15.31 29.0172 -0.521285
449 2 17.2579 28.9838 1.05392 17.2579 28.9838 1.05392
450 2 17.163 29.0501 -2.20628 17.163 29.0501 -2.20628
451 1 18.1606 27.3711 -0.637329 18.1606 27.3711 -0.637329
452 2 20.0711 27.3381 0.983446 20.0711 27.3381 0.983446
453 2 20.0529 27.4034 -2.27808 20.0529 27.4034 -2.27808
454 1 21.0128 29.0169 -0.619335 21.0128 29.0169 -0.619335
455 2 22.8872 28.9882 1.04317 22.8872 28.9882 1.04317
456 2 22.9404 29.0449 -2.2182 22.9404 29.0449 -2.2182
457 1 23.8644 27.3703 -0.600455 23.8644 27.3703 -0.600455
458 2 25.7032 27.339 1.1014 25.7032 27.339 1.1014
459 2 25.8257 27.401 -2.15796 25.8257 27.401 -2.15796
460 1 26.7142 29.0157 -0.460914 26.7142 29.0157 -0.460914
461 2 28.5266 28.9885 1.269 28.5266 28.9885 1.269
462 2 28.699 29.0426 -1.98825 28.699 29.0426 -1.98825
463 1 29.5623 27.3689 -0.336493 29.5623 27.3689 -0.336493
464 2 31.3589 27.3361 1.40951 31.3589 27.3361 1.40951
465 2 31.5609 27.4015 -1.84577 31.5609 27.4015 -1.84577
466 1 32.4083 29.0145 -0.125937 32.4083 29.0145 -0.125937
467 2 34.202 28.9853 1.62296 34.202 28.9853 1.62296
468 2 34.4095 29.0437 -1.63207 34.4095 29.0437 -1.63207
469 1 35.2549 27.3675 0.0265338 35.2549 27.3675 0.0265338
470 2 37.0596 27.3317 1.76372 37.0596 27.3317 1.76372
471 2 37.2467 27.4034 -1.49224 37.2467 27.4034 -1.49224
472 1 38.1019 29.0134 0.226636 38.1019 29.0134 0.226636
473 2 39.9282 28.9806 1.94122 39.9282 28.9806 1.94122
474 2 40.075 29.0463 -1.31686 40.075 29.0463 -1.31686
475 1 40.9517 27.3665 0.321782 40.9517 27.3665 0.321782
476 2 42.8088 27.3277 2.00254 42.8088 27.3277 2.00254
477 2 42.8965 27.4056 -1.25741 42.8965 27.4056 -1.25741
478 1 43.803 29.0128 0.437492 43.803 29.0128 0.437492
479 2 45.6948 28.9758 2.0792 45.6948 28.9758 2.0792
480 2 45.7148 29.05 -1.18189 45.7148 29.05 -1.18189
481 1 46.6557 27.3664 0.416819 46.6557 27.3664 0.416819
482 2 48.5834 27.3249 2.01579 48.5834 27.3249 2.01579
483 2 48.5308 27.4084 -1.24479 48.5308 27.4084 -1.24479
484 1 49.5082 29.013 0.412228 49.5082 29.013 0.412228
485 2 51.4681 28.9724 1.97178 51.4681 28.9724 1.97178
486 2 51.3494 29.0542 -1.28707 51.3494 29.0542 -1.28707
487 1 1.07425 30.6599 0.348997 1.07425 30.6599 0.348997
488 2 3.05952 30.6213 1.87618 3.05952 30.6213 1.87618
489 2 2.88719 30.6991 -1.38037 2.88719 30.6991 -1.38037
490 1 3.92376 32.307 0.236943 3.92376 32.307 0.236943
491 2 5.9255 32.2721 1.7426 5.9255 32.2721 1.7426
492 2 5.71761 32.3425 -1.51209 5.71761 32.3425 -1.51209
493 1 6.76958 30.6614 0.0188798 6.76958 30.6614 0.0188798
494 2 8.77599 30.623 1.51812 8.77599 30.623 1.51812
495 2 8.55748 30.7004 -1.73579 8.55748 30.7004 -1.73579
496 1 9.61631 32.3085 -0.133353 9.61631 32.3085 -0.133353
497 2 11.6166 32.2758 1.37423 11.6166 32.2758 1.37423
498 2 11.411 32.3415 -1.88085 11.411 32.3415 -1.88085
499 1 12.4619 30.6629 -0.346599 12.4619 30.6629 -0.346599
500 2 14.4413 30.6292 1.18856 14.4413 30.6292 1.18856
501 2 14.2804 30.6966 -2.06903 14.2804 30.6966 -2.06903
502 1 15.311 32.3094 -0.452824 15.311 32.3094 -0.452824
503 2 17.2635 32.2833 1.11674 17.2635 32.2833 1.11674
504 2 17.1588 32.3351 -2.1435 17.1588 32.3351 -2.1435
505 1 18.1611 30.6632 -0.570027 18.1611 30.6632 -0.570027
506 2 20.0753 30.6361 1.04623 20.0753 30.6361 1.04623
507 2 20.0491 30.6898 -2.21555 20.0491 30.6898 -2.21555
508 1 21.013 32.309 -0.564801 21.013 32.309 -0.564801
509 2 22.8913 32.2902 1.0933 22.8913 32.2902 1.0933
510 2 22.9365 32.3272 -2.16855 22.9365 32.3272 -2.16855
511 1 23.8643 30.6624 -0.542992 23.8643 30.6624 -0.542992
512 2 25.7051 30.6401 1.15672 25.7051 30.6401 1.15672
513 2 25.8234 30.6843 -2.10317 25.8234 30.6843 -2.10317
514 1 26.7142 32.3081 -0.416007 26.7142 32.3081 -0.416007
515 2 28.528 32.2932 1.31246 28.528 32.2932 1.31246
516 2 28.6974 32.3227 -1.94532 28.6974 32.3227 -1.94532
517 1 29.5619 30.6613 -0.281699 29.5619 30.6613 -0.281699
518 2 31.3583 30.6396 1.46469 31.3583 30.6396 1.46469
519 2 31.5606 30.683 -1.79097 31.5606 30.683 -1.79097
520 1 32.4081 32.3073 -0.0819244 32.4081 32.3073 -0.0819244
521 2 34.2011 32.2919 1.66791 34.2011 32.2919 1.66791
522 2 34.4099 32.3228 -1.58741 34.4099 32.3228 -1.58741
523 1 35.2542 30.6604 0.0856729 35.2542 30.6604 0.0856729
524 2 37.0579 30.6359 1.82432 37.0579 30.6359 1.82432
525 2 37.2471 30.685 -1.4319 37.2471 30.685 -1.4319
526 1 38.1015 32.3067 0.276375 38.1015 32.3067 0.276375
527 2 39.9261 32.2874 1.99308 39.9261 32.2874 1.99308
528 2 40.0763 32.3261 -1.26521 40.0763 32.3261 -1.26521
529 1 40.9512 30.6596 0.388247 40.9512 30.6596 0.388247
530 2 42.8071 30.6305 2.0708 42.8071 30.6305 2.0708
531 2 42.8975 30.6889 -1.18939 42.8975 30.6889 -1.18939
532 1 43.8029 32.3062 0.496596 43.8029 32.3062 0.496596
533 2 45.6926 32.2808 2.14119 45.6926 32.2808 2.14119
534 2 45.7171 32.3317 -1.12022 45.7171 32.3317 -1.12022
535 1 46.6559 30.6593 0.49192 46.6559 30.6593 0.49192
536 2 48.5826 30.6247 2.09258 48.5826 30.6247 2.09258
537 2 48.5326 30.6943 -1.16825 48.5326 30.6943 -1.16825
538 1 49.5089 32.3062 0.482673 49.5089 32.3062 0.482673