ITEM: TIMESTEP
31000
ITEM: NUMBER OF ATOMS
810
ITEM: BOX BOUNDS pp pp pp
8.4751782500827966e-01 5.2170087174990769e+01
8.0963947691008198e-01 5.0206575523089462e+01
-1.0000000000000000e+01 1.0000000000000000e+01
ITEM: ATOMS id type x y z xu yu zu
1 1 1.05167 1.02393 -0.346492 1.05167 1.02393 -0.346492
2 2 2.91082 1.02507 1.33281 2.91082 1.02507 1.33281
3 2 2.99386 1.02278 -1.92832 2.99386 1.02278 -1.92832
4 1 3.90269 2.67048 -0.274606 3.90269 2.67048 -0.274606
5 2 5.75442 2.67276 1.41279 5.75442 2.67276 1.41279
6 2 5.85182 2.6682 -1.84793 5.85182 2.6682 -1.84793
7 1 6.7533 1.02393 -0.186781 6.7533 1.02393 -0.186781
8 2 8.60355 1.02502 1.50214 8.60355 1.02502 1.50214
9 2 8.70379 1.02284 -1.75849 8.70379 1.02284 -1.75849
10 1 9.60388 2.6705 -0.100008 9.60388 2.6705 -0.100008
11 2 11.4586 2.67264 1.58392 11.4586 2.67264 1.58392
12 2 11.5502 2.66837 -1.67696 11.5502 2.66837 -1.67696
13 1 12.4547 1.02394 -0.0176071 12.4547 1.02394 -0.0176071
14 2 14.3195 1.02478 1.65501 14.3195 1.02478 1.65501
15 2 14.3915 1.0231 -1.60637 14.3915 1.0231 -1.60637
16 1 15.3059 2.67052 0.0444474 15.3059 2.67052 0.0444474
17 2 17.1849 2.67192 1.70108 17.1849 2.67192 1.70108
18 2 17.2292 2.66911 -1.56079 17.2292 2.66911 -1.56079
19 1 18.1576 1.02394 0.0844788 18.1576 1.02394 0.0844788
20 2 20.0537 1.02438 1.72141 20.0537 1.02438 1.72141
21 2 20.0642 1.02349 -1.54075 20.0642 1.02349 -1.54075
22 1 21.0096 2.6705 0.092859 21.0096 2.6705 0.092859
23 2 22.923 2.67077 1.70947 22.923 2.67077 1.70947
24 2 22.8988 2.67021 -1.55262 22.8988 2.67021 -1.55262
25 1 23.8615 1.02393 0.0715658 23.8615 1.02393 0.0715658
26 2 25.7911 1.02394 1.66872 25.7911 1.02394 1.66872
27 2 25.734 1.0239 -1.59295 25.734 1.0239 -1.59295
28 1 26.7131 2.67047 0.0210872 26.7131 2.67047 0.0210872
29 2 28.6551 2.66965 1.60316 28.6551 2.66965 1.60316
30 2 28.5724 2.67128 -1.65797 28.5724 2.67128 -1.65797
31 1 29.5641 1.02391 -0.0524105 29.5641 1.02391 -0.0524105
32 2 31.5138 1.02373 1.52011 31.5138 1.02373 1.52011
33 2 31.4151 1.0241 -1.74058 31.4151 1.0241 -1.74058
34 1 32.4147 2.67047 -0.138915 32.4147 2.67047 -0.138915
35 2 34.3662 2.66927 1.43149 34.3662 2.66927 1.43149
36 2 34.2638 2.6717 -1.82908 34.2638 2.6717 -1.82908
37 1 35.2652 1.02392 -0.229942 35.2652 1.02392 -0.229942
38 2 37.2124 1.02394 1.34592 37.2124 1.02394 1.34592
39 2 37.1189 1.02391 -1.91492 37.1189 1.02391 -1.91492
40 1 38.1159 2.6705 -0.311781 38.1159 2.6705 -0.311781
41 2 40.0535 2.66991 1.27616 40.0535 2.66991 1.27616
42 2 39.98 2.67111 -1.98519 39.98 2.67111 -1.98519
43 1 40.9672 1.02393 -0.376519 40.9672 1.02393 -0.376519
44 2 42.8901 1.02442 1.22915 42.8901 1.02442 1.22915
45 2 42.8465 1.02344 -2.03273 42.8465 1.02344 -2.03273
46 1 43.8189 2.6705 -0.41496 43.8189 2.6705 -0.41496
47 2 45.7249 2.67111 1.21087 45.7249 2.67111 1.21087
48 2 45.7155 2.66989 -2.05129 45.7155 2.66989 -2.05129
49 1 46.6709 1.02393 -0.422282 46.6709 1.02393 -0.422282
50 2 48.5589 1.02486 1.22455 48.5589 1.02486 1.22455
51 2 48.5854 1.02299 -2.03752 48.5854 1.02299 -2.03752
52 1 49.5228 2.67048 -0.399601 49.5228 2.67048 -0.399601
53 2 51.3947 2.6722 1.26552 51.3947 2.6722 1.26552
54 2 51.4529 2.66875 -1.99615 51.4529 2.66875 -1.99615
55 1 1.05173 4.31702 -0.34999 1.05173 4.31702 -0.34999
56 2 2.9112 4.31988 1.32895 2.9112 4.31988 1.32895
57 2 2.99361 4.31416 -1.93219 2.99361 4.31416 -1.93219
58 1 3.90281 5.96358 -0.280391 3.90281 5.96358 -0.280391
59 2 5.75485 5.96754 1.40666 5.75485 5.96754 1.40666
60 2 5.85164 5.95963 -1.85408 5.85164 5.95963 -1.85408
61 1 6.75338 4.31704 -0.191411 6.75338 4.31704 -0.191411
62 2 8.60355 4.32038 1.4976 8.60355 4.32038 1.4976
63 2 8.70396 4.31373 -1.76302 8.70396 4.31373 -1.76302
64 1 9.60401 5.96363 -0.10676 9.60401 5.96363 -0.10676
65 2 11.4584 5.9676 1.57753 11.4584 5.9676 1.57753
66 2 11.5507 5.95967 -1.68334 11.5507 5.95967 -1.68334
67 1 12.4547 4.31709 -0.021946 12.4547 4.31709 -0.021946
68 2 14.3191 4.31982 1.65112 14.3191 4.31982 1.65112
69 2 14.3919 4.31435 -1.61024 14.3919 4.31435 -1.61024
70 1 15.306 5.96367 0.0388671 15.306 5.96367 0.0388671
71 2 17.1841 5.96632 1.69643 17.1841 5.96632 1.69643
72 2 17.2301 5.96099 -1.56541 17.2301 5.96099 -1.56541
73 1 18.1577 4.31709 0.0816035 18.1577 4.31709 0.0816035
74 2 20.0531 4.31835 1.71927 20.0531 4.31835 1.71927
75 2 20.0648 4.31579 -1.54289 20.0648 4.31579 -1.54289
76 1 21.0097 5.96363 0.0902182 21.0097 5.96363 0.0902182
77 2 22.9219 5.96396 1.70814 22.9219 5.96396 1.70814
78 2 22.8999 5.96326 -1.55397 22.8999 5.96326 -1.55397
79 1 23.8615 4.31704 0.0709776 23.8615 4.31704 0.0709776
80 2 25.7905 4.31641 1.66893 25.7905 4.31641 1.66893
81 2 25.7347 4.31765 -1.59277 25.7347 4.31765 -1.59277
82 1 26.7131 5.96357 0.0223018 26.7131 5.96357 0.0223018
83 2 28.6542 5.96151 1.60551 28.6542 5.96151 1.60551
84 2 28.5735 5.96563 -1.65567 28.5735 5.96563 -1.65567
85 1 29.5641 4.31702 -0.0507757 29.5641 4.31702 -0.0507757
86 2 31.5136 4.31499 1.52215 31.5136 4.31499 1.52215
87 2 31.4155 4.31906 -1.73855 31.4155 4.31906 -1.73855
88 1 32.4148 5.96359 -0.134813 32.4148 5.96359 -0.134813
89 2 34.3661 5.96042 1.43583 34.3661 5.96042 1.43583
90 2 34.2641 5.9668 -1.82475 34.2641 5.9668 -1.82475
91 1 35.2652 4.31706 -0.227478 35.2652 4.31706 -0.227478
92 2 37.2127 4.31504 1.34811 37.2127 4.31504 1.34811
93 2 37.1188 4.3191 -1.91272 37.1188 4.3191 -1.91272
94 1 38.116 5.96365 -0.307647 38.116 5.96365 -0.307647
95 2 40.0542 5.96138 1.27949 40.0542 5.96138 1.27949
96 2 39.9795 5.96595 -1.98182 39.9795 5.96595 -1.98182
97 1 40.9672 4.31709 -0.375281 40.9672 4.31709 -0.375281
98 2 42.8908 4.31648 1.22965 42.8908 4.31648 1.22965
99 2 42.8459 4.31769 -2.03222 42.8459 4.31769 -2.03222
100 1 43.8189 5.96366 -0.413694 43.8189 5.96366 -0.413694
101 2 45.726 5.96369 1.21088 45.726 5.96369 1.21088
102 2 45.7144 5.96359 -2.05128 45.7144 5.96359 -2.05128
103 1 46.6709 4.31706 -0.423496 46.6709 4.31706 -0.423496
104 2 48.5595 4.3184 1.22261 48.5595 4.3184 1.22261
105 2 48.5848 4.31569 -2.03946 48.5848 4.31569 -2.03946
106 1 49.5228 5.9636 -0.402315 49.5228 5.9636 -0.402315
107 2 51.3956 5.96609 1.26178 51.3956 5.96609 1.26178
108 2 51.452 5.96107 -1.99991 51.452 5.96107 -1.99991
109 1 1.05182 7.61013 -0.35504 1.05182 7.61013 -0.35504
110 2 2.91223 7.61386 1.32285 2.91223 7.61386 1.32285
111 2 2.99283 7.60639 -1.93833 2.99283 7.60639 -1.93833
112 1 3.90296 9.25669 -0.287926 3.90296 9.25669 -0.287926
113 2 5.75569 9.26135 1.39836 5.75569 9.26135 1.39836
114 2 5.85115 9.25204 -1.86241 5.85115 9.25204 -1.86241
115 1 6.75355 7.61015 -0.199424 6.75355 7.61015 -0.199424
116 2 8.60377 7.61485 1.48952 8.60377 7.61485 1.48952
117 2 8.70406 7.60549 -1.77111 8.70406 7.60549 -1.77111
118 1 9.60421 9.25675 -0.116263 9.60421 9.25675 -0.116263
119 2 11.4582 9.26158 1.5684 11.4582 9.26158 1.5684
120 2 11.5512 9.25195 -1.69244 11.5512 9.25195 -1.69244
121 1 12.4549 7.61022 -0.0300115 12.4549 7.61022 -0.0300115
122 2 14.3186 7.6142 1.64386 14.3186 7.6142 1.64386
123 2 14.3928 7.60625 -1.61747 14.3928 7.60625 -1.61747
124 1 15.3061 9.2568 0.0307641 15.3061 9.2568 0.0307641
125 2 17.183 9.26 1.68971 17.183 9.26 1.68971
126 2 17.2314 9.25359 -1.57211 17.2314 9.25359 -1.57211
127 1 18.1577 7.61022 0.0761425 18.1577 7.61022 0.0761425
128 2 20.0518 7.61199 1.71533 20.0518 7.61199 1.71533
129 2 20.0662 7.60842 -1.54682 20.0662 7.60842 -1.54682
130 1 21.0097 9.25676 0.0865271 21.0097 9.25676 0.0865271
131 2 22.9202 9.25687 1.70653 22.9202 9.25687 1.70653
132 2 22.9017 9.25659 -1.5556 22.9017 9.25659 -1.5556
133 1 23.8616 7.61016 0.070196 23.8616 7.61016 0.070196
134 2 25.7891 7.60888 1.66992 25.7891 7.60888 1.66992
135 2 25.7362 7.61139 -1.59183 25.7362 7.61139 -1.59183
136 1 26.7132 9.25668 0.0247697 26.7132 9.25668 0.0247697
137 2 28.6527 9.25353 1.60985 28.6527 9.25353 1.60985
138 2 28.5751 9.25983 -1.65141 28.5751 9.25983 -1.65141
139 1 29.5642 7.61012 -0.0466436 29.5642 7.61012 -0.0466436
140 2 31.5128 7.60652 1.52735 31.5128 7.60652 1.52735
141 2 31.4165 7.61375 -1.7334 31.4165 7.61375 -1.7334
142 1 32.415 9.2567 -0.12752 32.415 9.2567 -0.12752
143 2 34.3659 9.25195 1.44365 34.3659 9.25195 1.44365
144 2 34.2648 9.26151 -1.81695 34.2648 9.26151 -1.81695
145 1 35.2654 7.61019 -0.221018 35.2654 7.61019 -0.221018
146 2 37.2131 7.60636 1.35424 37.2131 7.60636 1.35424
147 2 37.1186 7.61406 -1.90656 37.1186 7.61406 -1.90656
148 1 38.1162 9.2568 -0.299811 38.1162 9.2568 -0.299811
149 2 40.0553 9.25304 1.28621 40.0553 9.25304 1.28621
150 2 39.9787 9.26058 -1.97506 39.9787 9.26058 -1.97506
151 1 40.9673 7.61024 -0.3706 40.9673 7.61024 -0.3706
152 2 42.8921 7.60839 1.23288 42.8921 7.60839 1.23288
153 2 42.8447 7.61208 -2.02895 42.8447 7.61208 -2.02895
154 1 43.819 9.2568 -0.409885 43.819 9.2568 -0.409885
155 2 45.7278 9.25603 1.21266 45.7278 9.25603 1.21266
156 2 45.7128 9.25753 -2.04948 45.7128 9.25753 -2.04948
157 1 46.6709 7.6102 -0.423533 46.6709 7.6102 -0.423533
158 2 48.561 7.61139 1.22091 48.561 7.61139 1.22091
159 2 48.5834 7.60895 -2.04119 48.5834 7.60895 -2.04119
160 1 49.5229 9.25672 -0.404711 49.5229 9.25672 -0.404711
161 2 51.3973 9.25931 1.25758 51.3973 9.25931 1.25758
162 2 51.4506 9.25409 -2.00416 51.4506 9.25409 -2.00416
163 1 1.05194 10.9032 -0.360265 1.05194 10.9032 -0.360265
164 2 2.91375 10.9071 1.31606 2.91375 10.9071 1.31606
165 2 2.99161 10.8994 -1.94519 2.99161 10.8994 -1.94519
166 1 3.90313 12.5498 -0.295653 3.90313 12.5498 -0.295653
167 2 5.75679 12.5544 1.38962 5.75679 12.5544 1.38962
168 2 5.85045 12.5453 -1.87121 5.85045 12.5453 -1.87121
169 1 6.75375 10.9033 -0.208841 6.75375 10.9033 -0.208841
170 2 8.60421 10.9083 1.47984 8.60421 10.9083 1.47984
171 2 8.70404 10.8983 -1.7808 8.70404 10.8983 -1.7808
172 1 9.60442 12.5499 -0.126404 9.60442 12.5499 -0.126404
173 2 11.4581 12.5545 1.55862 11.4581 12.5545 1.55862
174 2 11.5517 12.5453 -1.70221 11.5517 12.5453 -1.70221
175 1 12.4551 10.9033 -0.0397965 12.4551 10.9033 -0.0397965
176 2 14.3179 10.9076 1.63501 14.3179 10.9076 1.63501
177 2 14.3937 10.8991 -1.62628 14.3937 10.8991 -1.62628
178 1 15.3063 12.5499 0.0221774 15.3063 12.5499 0.0221774
179 2 17.1818 12.5528 1.68267 17.1818 12.5528 1.68267
180 2 17.2328 12.547 -1.57911 17.2328 12.547 -1.57911
181 1 18.1578 10.9034 0.0695784 18.1578 10.9034 0.0695784
182 2 20.0502 10.905 1.71075 20.0502 10.905 1.71075
183 2 20.0679 10.9017 -1.55139 20.0679 10.9017 -1.55139
184 1 21.0097 12.5499 0.0830574 21.0097 12.5499 0.0830574
185 2 22.9182 12.5495 1.70549 22.9182 12.5495 1.70549
186 2 22.9039 12.5502 -1.55666 22.9039 12.5502 -1.55666
187 1 23.8616 10.9033 0.0698249 23.8616 10.9033 0.0698249
188 2 25.7871 10.9013 1.67193 25.7871 10.9013 1.67193
189 2 25.7383 10.9052 -1.58989 25.7383 10.9052 -1.58989
190 1 26.7133 12.5498 0.0286194 26.7133 12.5498 0.0286194
191 2 28.651 12.5459 1.6159 28.651 12.5459 1.6159
192 2 28.5771 12.5537 -1.64544 28.5771 12.5537 -1.64544
193 1 29.5644 10.9032 -0.0403237 29.5644 10.9032 -0.0403237
194 2 31.5118 10.8985 1.53514 31.5118 10.8985 1.53514
195 2 31.418 10.908 -1.72568 31.418 10.908 -1.72568
196 1 32.4152 12.5498 -0.117854 32.4152 12.5498 -0.117854
197 2 34.3656 12.5442 1.45396 34.3656 12.5442 1.45396
198 2 34.2656 12.5555 -1.80667 34.2656 12.5555 -1.80667
199 1 35.2656 10.9033 -0.211338 35.2656 10.9033 -0.211338
200 2 37.2136 10.8982 1.36357 37.2136 10.8982 1.36357
201 2 37.1186 10.9085 -1.89721 37.1186 10.9085 -1.89721
202 1 38.1164 12.5499 -0.289282 38.1164 12.5499 -0.289282
203 2 40.0565 12.5453 1.29544 40.0565 12.5453 1.29544
204 2 39.9778 12.5546 -1.96578 39.9778 12.5546 -1.96578
205 1 40.9674 10.9034 -0.362891 40.9674 10.9034 -0.362891
206 2 42.8938 10.9005 1.23869 42.8938 10.9005 1.23869
207 2 42.8432 10.9063 -2.0231 42.8432 10.9063 -2.0231
208 1 43.8191 12.5499 -0.40392 43.8191 12.5499 -0.40392
209 2 45.73 12.5485 1.21614 45.73 12.5485 1.21614
210 2 45.7107 12.5513 -2.04598 45.7107 12.5513 -2.04598
211 1 46.671 10.9033 -0.421922 46.671 10.9033 -0.421922
212 2 48.5631 10.9041 1.22017 48.5631 10.9041 1.22017
213 2 48.5815 10.9025 -2.04195 48.5815 10.9025 -2.04195
214 1 49.5229 12.5498 -0.406192 49.5229 12.5498 -0.406192
215 2 51.3993 12.5522 1.25382 51.3993 12.5522 1.25382
216 2 51.4487 12.5475 -2.00798 51.4487 12.5475 -2.00798
217 1 1.05205 14.1964 -0.364945 1.05205 14.1964 -0.364945
218 2 2.91546 14.1999 1.30961 2.91546 14.1999 1.30961
219 2 2.99021 14.1929 -1.95171 2.99021 14.1929 -1.95171
220 1 3.9033 15.8429 -0.302726 3.9033 15.8429 -0.302726
221 2 5.75784 15.8469 1.38157 5.75784 15.8469 1.38157
222 2 5.84978 15.839 -1.87931 5.84978 15.839 -1.87931
223 1 6.75396 14.1964 -0.218017 6.75396 14.1964 -0.218017
224 2 8.60468 14.2009 1.47037 8.60468 14.2009 1.47037
225 2 8.70399 14.1919 -1.79029 8.70399 14.1919 -1.79029
226 1 9.60462 15.843 -0.13555 9.60462 15.843 -0.13555
227 2 11.4579 15.8468 1.54989 11.4579 15.8468 1.54989
228 2 11.5522 15.8393 -1.71092 11.5522 15.8393 -1.71092
229 1 12.4552 14.1965 -0.0492149 12.4552 14.1965 -0.0492149
230 2 14.3172 14.2 1.62657 14.3172 14.2 1.62657
231 2 14.3947 14.1929 -1.63468 14.3947 14.1929 -1.63468
232 1 15.3064 15.843 0.0149024 15.3064 15.843 0.0149024
233 2 17.1806 15.845 1.67689 17.1806 15.845 1.67689
234 2 17.2342 15.8411 -1.58486 17.2342 15.8411 -1.58486
235 1 18.1579 14.1965 0.0636539 18.1579 14.1965 0.0636539
236 2 20.0485 14.1975 1.70688 20.0485 14.1975 1.70688
237 2 20.0698 14.1954 -1.55524 20.0698 14.1954 -1.55524
238 1 21.0098 15.843 0.0808675 21.0098 15.843 0.0808675
239 2 22.9163 15.842 1.7056 22.9163 15.842 1.7056
240 2 22.9059 15.8439 -1.55657 22.9059 15.8439 -1.55657
241 1 23.8617 14.1964 0.0705059 23.8617 14.1964 0.0705059
242 2 25.7851 14.1939 1.67511 25.7851 14.1939 1.67511
243 2 25.7405 14.1988 -1.58677 25.7405 14.1988 -1.58677
244 1 26.7134 15.8429 0.0335417 26.7134 15.8429 0.0335417
245 2 28.6494 15.8389 1.62292 28.6494 15.8389 1.62292
246 2 28.579 15.847 -1.6385 28.579 15.847 -1.6385
247 1 29.5646 14.1964 -0.0324534 29.5646 14.1964 -0.0324534
248 2 31.5107 14.1911 1.54455 31.5107 14.1911 1.54455
249 2 31.4195 14.2016 -1.71634 31.4195 14.2016 -1.71634
250 1 32.4154 15.843 -0.10725 32.4154 15.843 -0.10725
251 2 34.3653 15.8374 1.46515 34.3653 15.8374 1.46515
252 2 34.2663 15.8486 -1.79551 34.2663 15.8486 -1.79551
253 1 35.2659 14.1964 -0.199799 35.2659 14.1964 -0.199799
254 2 37.2141 14.1908 1.37473 37.2141 14.1908 1.37473
255 2 37.1185 14.2021 -1.88603 37.1185 14.2021 -1.88603
256 1 38.1167 15.843 -0.277826 38.1167 15.843 -0.277826
257 2 40.0578 15.8384 1.30555 40.0578 15.8384 1.30555
258 2 39.9768 15.8477 -1.95561 39.9768 15.8477 -1.95561
259 1 40.9676 14.1965 -0.353356 40.9676 14.1965 -0.353356
260 2 42.8957 14.1932 1.2461 42.8957 14.1932 1.2461
261 2 42.8416 14.1998 -2.01562 42.8416 14.1998 -2.01562
262 1 43.8192 15.8431 -0.397082 43.8192 15.8431 -0.397082
263 2 45.7323 15.8416 1.22038 45.7323 15.8416 1.22038
264 2 45.7086 15.8445 -2.04171 45.7086 15.8445 -2.04171
265 1 46.6711 14.1965 -0.419036 46.6711 14.1965 -0.419036
266 2 48.5654 14.1969 1.22038 48.5654 14.1969 1.22038
267 2 48.5792 14.196 -2.04177 48.5792 14.196 -2.04177
268 1 49.523 15.843 -0.407014 49.523 15.843 -0.407014
269 2 51.4015 15.845 1.25065 51.4015 15.845 1.25065
270 2 51.4468 15.8409 -2.01122 51.4468 15.8409 -2.01122
271 1 1.05216 17.4895 -0.369074 1.05216 17.4895 -0.369074
272 2 2.917 17.4925 1.30388 2.917 17.4925 1.30388
273 2 2.98895 17.4865 -1.9575 2.98895 17.4865 -1.9575
274 1 3.90344 19.1361 -0.308806 3.90344 19.1361 -0.308806
275 2 5.75857 19.1391 1.37485 5.75857 19.1391 1.37485
276 2 5.84937 19.1331 -1.88606 5.84937 19.1331 -1.88606
277 1 6.75414 17.4895 -0.225999 6.75414 17.4895 -0.225999
278 2 8.60498 17.4931 1.46228 8.60498 17.4931 1.46228
279 2 8.70407 17.486 -1.79839 8.70407 17.486 -1.79839
280 1 9.60479 19.1361 -0.142728 9.60479 19.1361 -0.142728
281 2 11.4576 19.1386 1.54331 11.4576 19.1386 1.54331
282 2 11.5529 19.1337 -1.71749 11.5529 19.1337 -1.71749
283 1 12.4554 17.4896 -0.0568117 12.4554 17.4896 -0.0568117
284 2 14.3165 17.492 1.61997 14.3165 17.492 1.61997
285 2 14.3957 17.4872 -1.64126 14.3957 17.4872 -1.64126
286 1 15.3065 19.1362 0.0100009 15.3065 19.1362 0.0100009
287 2 17.1796 19.137 1.67329 17.1796 19.137 1.67329
288 2 17.2354 19.1353 -1.58842 17.2354 19.1353 -1.58842
289 1 18.158 17.4896 0.0595757 18.158 17.4896 0.0595757
290 2 20.047 17.4898 1.7046 20.047 17.4898 1.7046
291 2 20.0714 17.4893 -1.5575 20.0714 17.4893 -1.5575
292 1 21.0099 19.1361 0.0803395 21.0099 19.1361 0.0803395
293 2 22.9148 19.1349 1.70686 22.9148 19.1349 1.70686
294 2 22.9074 19.1374 -1.55532 22.9074 19.1374 -1.55532
295 1 23.8618 17.4895 0.0723272 23.8618 17.4895 0.0723272
296 2 25.7834 17.487 1.67907 25.7834 17.487 1.67907
297 2 25.7424 17.4921 -1.58285 25.7424 17.4921 -1.58285
298 1 26.7135 19.1361 0.0386425 26.7135 19.1361 0.0386425
299 2 28.6482 19.1327 1.62965 28.6482 19.1327 1.62965
300 2 28.5805 19.1395 -1.63182 28.5805 19.1395 -1.63182
301 1 29.5647 17.4895 -0.0242951 29.5647 17.4895 -0.0242951
302 2 31.5098 17.4847 1.55404 31.5098 17.4847 1.55404
303 2 31.4208 17.4943 -1.70691 31.4208 17.4943 -1.70691
304 1 32.4156 19.1361 -0.0976226 32.4156 19.1361 -0.0976226
305 2 34.3652 19.1316 1.47522 34.3652 19.1316 1.47522
306 2 34.2669 19.1406 -1.78547 34.2669 19.1406 -1.78547
307 1 35.2661 17.4896 -0.188394 35.2661 17.4896 -0.188394
308 2 37.2147 17.4846 1.38574 37.2147 17.4846 1.38574
309 2 37.1184 17.4946 -1.87501 37.1184 17.4946 -1.87501
310 1 38.1169 19.1362 -0.267655 38.1169 19.1362 -0.267655
311 2 40.0591 19.1326 1.31449 40.0591 19.1326 1.31449
312 2 39.976 19.1398 -1.94663 39.976 19.1398 -1.94663
313 1 40.9678 17.4896 -0.343927 40.9678 17.4896 -0.343927
314 2 42.8975 17.4867 1.25348 42.8975 17.4867 1.25348
315 2 42.84 17.4925 -2.00819 42.84 17.4925 -2.00819
316 1 43.8193 19.1362 -0.391137 43.8193 19.1362 -0.391137
317 2 45.7343 19.1352 1.22402 45.7343 19.1352 1.22402
318 2 45.7067 19.1371 -2.03805 45.7067 19.1371 -2.03805
319 1 46.6711 17.4896 -0.416011 46.6711 17.4896 -0.416011
320 2 48.5677 17.49 1.22084 48.5677 17.49 1.22084
321 2 48.5771 17.4891 -2.04133 48.5771 17.4891 -2.04133
322 1 49.5231 19.1361 -0.407873 49.5231 19.1361 -0.407873
323 2 51.4033 19.1379 1.24779 51.4033 19.1379 1.24779
324 2 51.4451 19.1343 -2.01412 51.4451 19.1343 -2.01412
325 1 1.05225 20.7827 -0.372733 1.05225 20.7827 -0.372733
326 2 2.91808 20.7849 1.29913 2.91808 20.7849 1.29913
327 2 2.98812 20.7804 -1.96229 2.98812 20.7804 -1.96229
328 1 3.90356 22.4293 -0.313387 3.90356 22.4293 -0.313387
329 2 5.75885 22.431 1.37011 5.75885 22.431 1.37011
330 2 5.84935 22.4275 -1.89082 5.84935 22.4275 -1.89082
331 1 6.7543 20.7827 -0.232162 6.7543 20.7827 -0.232162
332 2 8.60495 20.7849 1.45633 8.60495 20.7849 1.45633
333 2 8.70439 20.7805 -1.80434 8.70439 20.7805 -1.80434
334 1 9.60491 22.4293 -0.147221 9.60491 22.4293 -0.147221
335 2 11.457 22.4302 1.53953 11.457 22.4302 1.53953
336 2 11.5536 22.4284 -1.72123 11.5536 22.4284 -1.72123
337 1 12.4555 20.7827 -0.0617732 12.4555 20.7827 -0.0617732
338 2 14.3157 20.7837 1.61597 14.3157 20.7837 1.61597
339 2 14.3967 20.7817 -1.64522 14.3967 20.7817 -1.64522
340 1 15.3066 22.4293 0.00791944 15.3066 22.4293 0.00791944
341 2 17.1788 22.429 1.67216 17.1788 22.429 1.67216
342 2 17.2363 22.4295 -1.58952 17.2363 22.4295 -1.58952
343 1 18.158 20.7827 0.0578115 18.158 20.7827 0.0578115
344 2 20.0459 20.7822 1.70414 20.0459 20.7822 1.70414
345 2 20.0725 20.7832 -1.55794 20.0725 20.7832 -1.55794
346 1 21.0099 22.4293 0.0812771 21.0099 22.4293 0.0812771
347 2 22.914 22.428 1.7088 22.914 22.428 1.7088
348 2 22.9083 22.4304 -1.55338 22.9083 22.4304 -1.55338
349 1 23.8618 20.7827 0.0748026 23.8618 20.7827 0.0748026
350 2 25.7822 20.7806 1.683 25.7822 20.7806 1.683
351 2 25.7437 20.7847 -1.57895 25.7437 20.7847 -1.57895
352 1 26.7136 22.4292 0.0428056 26.7136 22.4292 0.0428056
353 2 28.6475 22.4271 1.63474 28.6475 22.4271 1.63474
354 2 28.5814 22.4313 -1.62677 28.5814 22.4313 -1.62677
355 1 29.5649 20.7826 -0.0174326 29.5649 20.7826 -0.0174326
356 2 31.5092 20.7793 1.56183 31.5092 20.7793 1.56183
357 2 31.4217 20.786 -1.69917 31.4217 20.786 -1.69917
358 1 32.4158 22.4292 -0.0908038 32.4158 22.4292 -0.0908038
359 2 34.3652 22.4267 1.48225 34.3652 22.4267 1.48225
360 2 34.2672 22.4318 -1.77846 34.2672 22.4318 -1.77846
361 1 35.2663 20.7827 -0.179271 35.2663 20.7827 -0.179271
362 2 37.2152 20.7793 1.39447 37.2152 20.7793 1.39447
363 2 37.1182 20.7861 -1.86627 37.1182 20.7861 -1.86627
364 1 38.117 22.4293 -0.260732 38.117 22.4293 -0.260732
365 2 40.06 22.4275 1.32047 40.06 22.4275 1.32047
366 2 39.9753 22.4311 -1.94062 39.9753 22.4311 -1.94062
367 1 40.9679 20.7827 -0.336637 40.9679 20.7827 -0.336637
368 2 42.8991 20.781 1.25908 42.8991 20.781 1.25908
369 2 42.8387 20.7845 -2.00255 42.8387 20.7845 -2.00255
370 1 43.8194 22.4293 -0.387502 43.8194 22.4293 -0.387502
371 2 45.7358 22.4291 1.22602 45.7358 22.4291 1.22602
372 2 45.7054 22.4295 -2.03602 45.7054 22.4295 -2.03602
373 1 46.6712 20.7827 -0.414036 46.6712 20.7827 -0.414036
374 2 48.5695 20.7833 1.22081 48.5695 20.7833 1.22081
375 2 48.5754 20.7821 -2.04137 48.5754 20.7821 -2.04137
376 1 49.5231 22.4293 -0.409104 49.5231 22.4293 -0.409104
377 2 51.4045 22.4306 1.24528 51.4045 22.4306 1.24528
378 2 51.4441 22.4279 -2.01666 51.4441 22.4279 -2.01666
379 1 1.05232 24.0758 -0.375423 1.05232 24.0758 -0.375423
380 2 2.91852 24.0769 1.29602 2.91852 24.0769 1.29602
381 2 2.98783 24.0748 -1.96542 2.98783 24.0748 -1.96542
382 1 3.90362 25.7224 -0.315469 3.90362 25.7224 -0.315469
383 2 5.75869 25.7224 1.36828 5.75869 25.7224 1.36828
384 2 5.84963 25.7225 -1.89264 5.84963 25.7225 -1.89264
385 1 6.7544 24.0758 -0.235675 6.7544 24.0758 -0.235675
386 2 8.60462 24.0764 1.45329 8.60462 24.0764 1.45329
387 2 8.70489 24.0753 -1.80735 8.70489 24.0753 -1.80735
388 1 9.60496 25.7224 -0.148298 9.60496 25.7224 -0.148298
389 2 11.4565 25.7216 1.53909 11.4565 25.7216 1.53909
390 2 11.5542 25.7232 -1.72163 11.5542 25.7232 -1.72163
391 1 12.4556 24.0758 -0.0635874 12.4556 24.0758 -0.0635874
392 2 14.3151 24.0754 1.61492 14.3151 24.0754 1.61492
393 2 14.3974 24.0763 -1.64623 14.3974 24.0763 -1.64623
394 1 15.3066 25.7224 0.00873726 15.3066 25.7224 0.00873726
395 2 17.1784 25.7212 1.67339 17.1784 25.7212 1.67339
396 2 17.2367 25.7236 -1.58827 17.2367 25.7236 -1.58827
397 1 18.1581 24.0758 0.0583155 18.1581 24.0758 0.0583155
398 2 20.0454 24.0749 1.70525 20.0454 24.0749 1.70525
399 2 20.0731 24.0768 -1.55682 20.0731 24.0768 -1.55682
400 1 21.0099 25.7224 0.0832019 21.0099 25.7224 0.0832019
401 2 22.9139 25.7215 1.71081 22.9139 25.7215 1.71081
402 2 22.9084 25.7232 -1.55137 22.9084 25.7232 -1.55137
403 1 23.8618 24.0758 0.0772208 23.8618 24.0758 0.0772208
404 2 25.7818 24.0747 1.68596 25.7818 24.0747 1.68596
405 2 25.7442 24.0769 -1.576 25.7442 24.0769 -1.576
406 1 26.7136 25.7224 0.0450999 26.7136 25.7224 0.0450999
407 2 28.6475 25.7221 1.63713 28.6475 25.7221 1.63713
408 2 28.5815 25.7227 -1.62438 28.5815 25.7227 -1.62438
409 1 29.5649 24.0758 -0.0132356 29.5649 24.0758 -0.0132356
410 2 31.5089 24.0745 1.56642 31.5089 24.0745 1.56642
411 2 31.4221 24.0772 -1.6946 31.4221 24.0772 -1.6946
412 1 32.4158 25.7224 -0.0880846 32.4158 25.7224 -0.0880846
413 2 34.3652 25.7223 1.48496 34.3652 25.7223 1.48496
414 2 34.2672 25.7225 -1.77575 34.2672 25.7225 -1.77575
415 1 35.2664 24.0758 -0.174121 35.2664 24.0758 -0.174121
416 2 37.2156 24.0746 1.3993 37.2156 24.0746 1.3993
417 2 37.1181 24.077 -1.86143 37.1181 24.077 -1.86143
418 1 38.1171 25.7224 -0.258284 38.1171 25.7224 -0.258284
419 2 40.0604 25.7225 1.32244 40.0604 25.7225 1.32244
420 2 39.9749 25.7223 -1.93863 39.9749 25.7223 -1.93863
421 1 40.968 24.0759 -0.332877 40.968 24.0759 -0.332877
422 2 42.9 24.0755 1.2618 42.9 24.0755 1.2618
423 2 42.8378 24.0762 -1.9998 42.8378 24.0762 -1.9998
424 1 43.8194 25.7224 -0.386705 43.8194 25.7224 -0.386705
425 2 45.7363 25.7228 1.22619 45.7363 25.7228 1.22619
426 2 45.7049 25.7221 -2.03585 45.7049 25.7221 -2.03585
427 1 46.6712 24.0759 -0.413588 46.6712 24.0759 -0.413588
428 2 48.5705 24.0764 1.22016 48.5705 24.0764 1.22016
429 2 48.5745 24.0753 -2.04202 48.5745 24.0753 -2.04202
430 1 49.5232 25.7224 -0.410266 49.5232 25.7224 -0.410266
431 2 51.4048 25.7228 1.24376 51.4048 25.7228 1.24376
432 2 51.4438 25.7221 -2.01818 51.4438 25.7221 -2.01818
433 1 1.05235 27.369 -0.376124 1.05235 27.369 -0.376124
434 2 2.91832 27.3683 1.29558 2.91832 27.3683 1.29558
435 2 2.98809 27.3698 -1.96585 2.98809 27.3698 -1.96585
436 1 3.90361 29.0156 -0.313991 3.90361 29.0156 -0.313991
437 2 5.75823 29.0134 1.37025 5.75823 29.0134 1.37025
438 2 5.85004 29.0177 -1.89064 5.85004 29.0177 -1.89064
439 1 6.75442 27.369 -0.235543 6.75442 27.369 -0.235543
440 2 8.6042 27.3676 1.45392 8.6042 27.3676 1.45392
441 2 8.70533 27.3704 -1.8067 8.70533 27.3704 -1.8067
442 1 9.60491 29.0156 -0.14543 9.60491 29.0156 -0.14543
443 2 11.4562 29.0131 1.54223 11.4562 29.0131 1.54223
444 2 11.5544 29.018 -1.71848 11.5544 29.018 -1.71848
445 1 12.4556 27.369 -0.061961 12.4556 27.369 -0.061961
446 2 14.3148 27.3672 1.61689 14.3148 27.3672 1.61689
447 2 14.3976 27.3707 -1.64425 14.3976 27.3707 -1.64425
448 1 15.3065 29.0155 0.0122119 15.3065 29.0155 0.0122119
449 2 17.1786 29.0137 1.6766 17.1786 29.0137 1.6766
450 2 17.2364 29.0173 -1.58507 17.2364 29.0173 -1.58507
451 1 18.158 27.3689 0.0607234 18.158 27.3689 0.0607234
452 2 20.0456 27.3678 1.70747 20.0456 27.3678 1.70747
453 2 20.0729 27.3701 -1.5546 20.0729 27.3701 -1.5546
454 1 21.0099 29.0155 0.0855252 21.0099 29.0155 0.0855252
455 2 22.9146 29.0153 1.71231 22.9146 29.0153 1.71231
456 2 22.9077 29.0157 -1.54986 22.9077 29.0157 -1.54986
457 1 23.8618 27.369 0.0789188 23.8618 27.369 0.0789188
458 2 25.7822 27.369 1.68724 25.7822 27.369 1.68724
459 2 25.7438 27.3689 -1.57471 25.7438 27.3689 -1.57471
460 1 26.7136 29.0155 0.0449625 26.7136 29.0155 0.0449625
461 2 28.648 29.0171 1.63627 28.648 29.0171 1.63627
462 2 28.5809 29.014 -1.62522 28.5809 29.014 -1.62522
463 1 29.5649 27.369 -0.0125574 29.5649 27.369 -0.0125574
464 2 31.5091 27.3699 1.5669 31.5091 27.3699 1.5669
465 2 31.422 27.368 -1.69411 31.422 27.368 -1.69411
466 1 32.4158 29.0156 -0.090027 32.4158 29.0156 -0.090027
467 2 34.3654 29.0179 1.48279 34.3654 29.0179 1.48279
468 2 34.267 29.0132 -1.77791 34.267 29.0132 -1.77791
469 1 35.2664 27.369 -0.173885 35.2664 27.369 -0.173885
470 2 37.2157 27.3702 1.3994 37.2157 27.3702 1.3994
471 2 37.118 27.3678 -1.86133 37.118 27.3678 -1.86133
472 1 38.117 29.0155 -0.260682 38.117 29.0155 -0.260682
473 2 40.0602 29.0175 1.3202 40.0602 29.0175 1.3202
474 2 39.975 29.0135 -1.94087 39.975 29.0135 -1.94087
475 1 40.968 27.369 -0.333149 40.968 27.369 -0.333149
476 2 42.9001 27.3698 1.26138 42.9001 27.3698 1.26138
477 2 42.8377 27.3681 -2.00022 42.8377 27.3681 -2.00022
478 1 43.8194 29.0155 -0.388492 43.8194 29.0155 -0.388492
479 2 45.7359 29.0161 1.22493 45.7359 29.0161 1.22493
480 2 45.7053 29.0149 -2.03711 45.7053 29.0149 -2.03711
481 1 46.6712 27.369 -0.414338 46.6712 27.369 -0.414338
482 2 48.5704 27.3691 1.21945 48.5704 27.3691 1.21945
483 2 48.5746 27.3689 -2.04273 48.5746 27.3689 -2.04273
484 1 49.5232 29.0156 -0.410489 49.5232 29.0156 -0.410489
485 2 51.4043 29.0145 1.24417 51.4043 29.0145 1.24417
486 2 51.4444 29.0167 -2.01776 51.4444 29.0167 -2.01776
487 1 1.05231 30.6622 -0.373967 1.05231 30.6622 -0.373967
488 2 2.91753 30.6595 1.29857 2.91753 30.6595 1.29857
489 2 2.98877 30.6649 -1.96282 2.98877 30.6649 -1.96282
490 1 3.90351 32.3088 -0.308586 3.90351 32.3088 -0.308586
491 2 5.75761 32.3047 1.37622 5.75761 32.3047 1.37622
492 2 5.85042 32.3128 -1.88463 5.85042 32.3128 -1.88463
493 1 6.75434 30.6622 -0.23119 6.75434 30.6622 -0.23119
494 2 8.60387 30.6588 1.45854 8.60387 30.6588 1.45854
495 2 8.70549 30.6654 -1.80205 8.70549 30.6654 -1.80205
496 1 9.60478 32.3087 -0.138731 9.60478 32.3087 -0.138731
497 2 11.4564 32.3049 1.54865 11.4564 32.3049 1.54865
498 2 11.554 32.3124 -1.71206 11.554 32.3124 -1.71206
499 1 12.4555 30.6621 -0.0570138 12.4555 30.6621 -0.0570138
500 2 14.315 30.6593 1.62154 14.315 30.6593 1.62154
501 2 14.3973 30.6648 -1.6396 14.3973 30.6648 -1.6396
502 1 15.3064 32.3086 0.0177561 15.3064 32.3086 0.0177561
503 2 17.1794 32.3065 1.68115 17.1794 32.3065 1.68115
504 2 17.2355 32.3107 -1.58055 17.2355 32.3107 -1.58055
505 1 18.158 30.6621 0.0644403 18.158 30.6621 0.0644403
506 2 20.0464 30.661 1.71021 20.0464 30.661 1.71021
507 2 20.0721 30.6631 -1.55187 20.0721 30.6631 -1.55187
508 1 21.0098 32.3086 0.0876698 21.0098 32.3086 0.0876698
509 2 22.9159 32.3091 1.71287 22.9159 32.3091 1.71287
510 2 22.9063 32.3082 -1.54929 22.9063 32.3082 -1.54929
511 1 23.8618 30.6621 0.079398 23.8618 30.6621 0.079398
512 2 25.7832 30.6635 1.68645 25.7832 30.6635 1.68645
513 2 25.7427 30.6608 -1.57548 25.7427 30.6608 -1.57548
514 1 26.7135 32.3087 0.0422659 26.7135 32.3087 0.0422659
515 2 28.6491 32.3119 1.63217 28.6491 32.3119 1.63217
516 2 28.5796 32.3055 -1.62926 28.5796 32.3055 -1.62926
517 1 29.5649 30.6621 -0.01565 29.5649 30.6621 -0.01565
518 2 31.5096 30.6653 1.56308 31.5096 30.6653 1.56308
519 2 31.4212 30.659 -1.6979 31.4212 30.659 -1.6979
520 1 32.4156 32.3087 -0.0964181 32.4156 32.3087 -0.0964181
521 2 34.3655 32.3131 1.47604 34.3655 32.3131 1.47604
522 2 34.2665 32.3042 -1.78463 34.2665 32.3042 -1.78463
523 1 35.2663 30.6621 -0.17867 35.2663 30.6621 -0.17867
524 2 37.2155 30.6654 1.39473 37.2155 30.6654 1.39473
525 2 37.118 30.6587 -1.86599 37.118 30.6587 -1.86599
526 1 38.1169 32.3086 -0.26749 38.1169 32.3086 -0.26749
527 2 40.0594 32.312 1.31428 40.0594 32.312 1.31428
528 2 39.9757 32.3052 -1.94683 39.9757 32.3052 -1.94683
529 1 40.9679 30.6621 -0.337192 40.9679 30.6621 -0.337192
530 2 42.8993 30.6639 1.25821 42.8993 30.6639 1.25821
531 2 42.8384 30.6603 -2.00341 42.8384 30.6603 -2.00341
532 1 43.8193 32.3086 -0.392206 43.8193 32.3086 -0.392206
533 2 45.7344 32.3092 1.22289 45.7344 32.3092 1.22289
534 2 45.7067 32.3081 -2.03917 45.7067 32.3081 -2.03917
535 1 46.6712 30.6621 -0.415585 46.6712 30.6621 -0.415585
536 2 48.5694 30.6614 1.2194 48.5694 30.6614 1.2194
537 2 48.5756 30.6628 -2.04277 48.5756 30.6628 -2.04277
538 1 49.5231 32.3087 -0.409147 49.5231 32.3087 -0.409147