ITEM: TIMESTEP
26000
ITEM: NUMBER OF ATOMS
810
ITEM: BOX BOUNDS pp pp pp
8.6414583286893198e-01 5.2153459167130578e+01
8.1494966678265279e-01 5.0201265333216547e+01
-1.0000000000000000e+01 1.0000000000000000e+01
ITEM: ATOMS id type x y z xu yu zu
1 1 1.07344 1.02594 -0.620579 1.07344 1.02594 -0.620579
2 2 2.90759 1.07417 1.08579 2.90759 1.07417 1.08579
3 2 3.03922 0.977434 -2.17225 3.03922 0.977434 -2.17225
4 1 3.92384 2.67225 -0.553787 3.92384 2.67225 -0.553787
5 2 5.73424 2.71526 1.1778 5.73424 2.71526 1.1778
6 2 5.91093 2.62916 -2.07839 5.91093 2.62916 -2.07839
7 1 6.77145 1.02671 -0.355111 6.77145 1.02671 -0.355111
8 2 8.57047 1.07507 1.38791 8.57047 1.07507 1.38791
9 2 8.76818 0.978503 -1.86685 8.76818 0.978503 -1.86685
10 1 9.61889 2.67346 -0.230734 9.61889 2.67346 -0.230734
11 2 11.4172 2.71681 1.51282 11.4172 2.71681 1.51282
12 2 11.6161 2.63043 -1.7422 11.6161 2.63043 -1.7422
13 1 12.4651 1.02851 -0.0129725 12.4651 1.02851 -0.0129725
14 2 14.2762 1.07733 1.71708 14.2762 1.07733 1.71708
15 2 14.4512 0.980317 -1.539 14.4512 0.980317 -1.539
16 1 15.3135 2.67536 0.0908951 15.3135 2.67536 0.0908951
17 2 17.1471 2.72105 1.79684 17.1471 2.72105 1.79684
18 2 17.2792 2.63042 -1.46151 17.2792 2.63042 -1.46151
19 1 18.1629 1.03066 0.251993 18.1629 1.03066 0.251993
20 2 20.0277 1.07984 1.92364 20.0277 1.07984 1.92364
21 2 20.0998 0.982293 -1.33632 20.0998 0.982293 -1.33632
22 1 21.0144 2.67727 0.265233 21.0144 2.67727 0.265233
23 2 22.9137 2.72591 1.89741 22.9137 2.72591 1.89741
24 2 22.9177 2.62945 -1.36343 22.9177 2.62945 -1.36343
25 1 23.8666 1.03214 0.316837 23.8666 1.03214 0.316837
26 2 25.8006 1.0818 1.90776 25.8006 1.0818 1.90776
27 2 25.7346 0.983046 -1.35225 25.7346 0.983046 -1.35225
28 1 26.7177 2.67816 0.208418 26.7177 2.67816 0.208418
29 2 28.6815 2.72928 1.76228 28.6815 2.72928 1.76228
30 2 28.5537 2.62741 -1.49584 28.5537 2.62741 -1.49584
31 1 29.5681 1.03216 0.147391 29.5681 1.03216 0.147391
32 2 31.5544 1.08258 1.67258 31.5544 1.08258 1.67258
33 2 31.3791 0.981751 -1.58331 31.3791 0.981751 -1.58331
34 1 32.4152 2.67737 -0.0576437 32.4152 2.67737 -0.0576437
35 2 34.4131 2.72941 1.45234 34.4131 2.72941 1.45234
36 2 34.2129 2.625 -1.80203 34.2129 2.625 -1.80203
37 1 35.2627 1.03062 -0.180401 35.2627 1.03062 -0.180401
38 2 37.2615 1.08093 1.32856 37.2615 1.08093 1.32856
39 2 37.0592 0.97977 -1.92578 37.0592 0.97977 -1.92578
40 1 38.1085 2.67525 -0.40893 38.1085 2.67525 -0.40893
41 2 40.095 2.72563 1.11645 40.095 2.72563 1.11645
42 2 39.9192 2.62422 -2.13938 39.9192 2.62422 -2.13938
43 1 40.9571 1.02832 -0.511331 40.9571 1.02832 -0.511331
44 2 42.9226 1.07756 1.04133 42.9226 1.07756 1.04133
45 2 42.7913 0.978369 -2.2167 42.7913 0.978369 -2.2167
46 1 43.8067 2.67312 -0.676204 43.8067 2.67312 -0.676204
47 2 45.7408 2.72058 0.915795 45.7408 2.72058 0.915795
48 2 45.675 2.62511 -2.34423 45.675 2.62511 -2.34423
49 1 46.6588 1.02651 -0.684998 46.6588 1.02651 -0.684998
50 2 48.559 1.07502 0.947342 48.559 1.07502 0.947342
51 2 48.5615 0.977419 -2.31334 48.5615 0.977419 -2.31334
52 1 49.5112 2.67204 -0.731622 49.5112 2.67204 -0.731622
53 2 51.3753 2.71682 0.942189 51.3753 2.71682 0.942189
54 2 51.4495 2.62695 -2.31779 51.4495 2.62695 -2.31779
55 1 1.07399 4.31828 -0.711666 1.07399 4.31828 -0.711666
56 2 2.90579 4.35556 0.997654 2.90579 4.35556 0.997654
57 2 3.04238 4.28088 -2.26066 3.04238 4.28088 -2.26066
58 1 3.92435 5.96507 -0.629538 3.92435 5.96507 -0.629538
59 2 5.73212 5.99228 1.10519 5.73212 5.99228 1.10519
60 2 5.91404 5.93778 -2.15135 5.91404 5.93778 -2.15135
61 1 6.77237 4.31898 -0.442405 6.77237 4.31898 -0.442405
62 2 8.5699 4.35447 1.30245 8.5699 4.35447 1.30245
63 2 8.77053 4.28353 -1.95277 8.77053 4.28353 -1.95277
64 1 9.61939 5.96588 -0.302658 9.61939 5.96588 -0.302658
65 2 11.4173 5.99321 1.4416 11.4173 5.99321 1.4416
66 2 11.6169 5.93866 -1.81409 11.6169 5.93866 -1.81409
67 1 12.466 4.32033 -0.100515 12.466 4.32033 -0.100515
68 2 14.2766 4.35818 1.63006 14.2766 4.35818 1.63006
69 2 14.4522 4.28293 -1.62665 14.4522 4.28293 -1.62665
70 1 15.3139 5.96715 0.0147208 15.3139 5.96715 0.0147208
71 2 17.1488 6.00009 1.7193 17.1488 6.00009 1.7193
72 2 17.278 5.93482 -1.53988 17.278 5.93482 -1.53988
73 1 18.1633 4.32212 0.160231 18.1633 4.32212 0.160231
74 2 20.0282 4.36511 1.83169 20.0282 4.36511 1.83169
75 2 20.0997 4.27999 -1.42876 20.0997 4.27999 -1.42876
76 1 21.0143 5.96873 0.179141 21.0143 5.96873 0.179141
77 2 22.915 6.0093 1.80942 22.915 6.0093 1.80942
78 2 22.9155 5.929 -1.45199 22.9155 5.929 -1.45199
79 1 23.8661 4.32361 0.219218 23.8661 4.32361 0.219218
80 2 25.8001 4.37164 1.80986 25.8001 4.37164 1.80986
81 2 25.7336 4.27627 -1.45038 25.7336 4.27627 -1.45038
82 1 26.7166 5.96963 0.111921 26.7166 5.96963 0.111921
83 2 28.681 6.01601 1.66474 28.681 6.01601 1.66474
84 2 28.5513 5.92361 -1.59369 28.5513 5.92361 -1.59369
85 1 29.5667 4.32373 0.044239 29.5667 4.32373 0.044239
86 2 31.5525 4.37476 1.56973 31.5525 4.37476 1.56973
87 2 31.3778 4.27271 -1.68622 31.3778 4.27271 -1.68622
88 1 32.4133 5.96892 -0.161027 32.4133 5.96892 -0.161027
89 2 34.4102 6.01706 1.35015 34.4102 6.01706 1.35015
90 2 34.2118 5.92046 -1.90458 34.2118 5.92046 -1.90458
91 1 35.2608 4.32218 -0.286251 35.2608 4.32218 -0.286251
92 2 37.2579 4.37262 1.22491 37.2579 4.37262 1.22491
93 2 37.0594 4.27121 -2.02961 37.0594 4.27121 -2.02961
94 1 38.1066 5.96701 -0.511803 38.1066 5.96701 -0.511803
95 2 40.0902 6.01199 1.01757 40.0902 6.01199 1.01757
96 2 39.921 5.92153 -2.23884 39.921 5.92153 -2.23884
97 1 40.9558 4.31999 -0.614189 40.9558 4.31999 -0.614189
98 2 42.9187 4.36651 0.942054 42.9187 4.36651 0.942054
99 2 42.7934 4.27295 -2.31626 42.7934 4.27295 -2.31626
100 1 43.8058 5.96533 -0.77113 43.8058 5.96533 -0.77113
101 2 45.7362 6.00403 0.825871 45.7362 6.00403 0.825871
102 2 45.6787 5.92637 -2.43465 45.6787 5.92637 -2.43465
103 1 46.6585 4.31853 -0.781772 46.6585 4.31853 -0.781772
104 2 48.5561 4.36011 0.854054 48.5561 4.36011 0.854054
105 2 48.5645 4.27667 -2.40686 48.5645 4.27667 -2.40686
106 1 49.5113 5.96474 -0.816247 49.5113 5.96474 -0.816247
107 2 51.3718 5.99675 0.862088 51.3718 5.99675 0.862088
108 2 51.4536 5.93265 -2.3982 51.4536 5.93265 -2.3982
109 1 1.07419 7.6116 -0.77674 1.07419 7.6116 -0.77674
110 2 2.9019 7.63139 0.937374 2.9019 7.63139 0.937374
111 2 3.04664 7.59176 -2.32113 3.04664 7.59176 -2.32113
112 1 3.92425 9.25871 -0.669839 3.92425 9.25871 -0.669839
113 2 5.72848 9.26525 1.0688 5.72848 9.26525 1.0688
114 2 5.91719 9.252 -2.18775 5.91719 9.252 -2.18775
115 1 6.77249 7.61206 -0.497731 6.77249 7.61206 -0.497731
116 2 8.56829 7.62836 1.24916 8.56829 7.62836 1.24916
117 2 8.77223 7.59563 -2.00645 8.77223 7.59563 -2.00645
118 1 9.61897 9.25892 -0.335861 9.61897 9.25892 -0.335861
119 2 11.4173 9.2652 1.4081 11.4173 9.2652 1.4081
120 2 11.6161 9.25248 -1.84809 11.6161 9.25248 -1.84809
121 1 12.466 7.61272 -0.15575 12.466 7.61272 -0.15575
122 2 14.2782 7.63267 1.57334 14.2782 7.63267 1.57334
123 2 14.4507 7.59298 -1.68422 14.4507 7.59298 -1.68422
124 1 15.3136 9.25941 -0.0253428 15.3136 9.25941 -0.0253428
125 2 17.1523 9.27349 1.67512 17.1523 9.27349 1.67512
126 2 17.2739 9.24573 -1.58494 17.2739 9.24573 -1.58494
127 1 18.1633 7.61388 0.0942729 18.1633 7.61388 0.0942729
128 2 20.0312 7.64274 1.76229 20.0312 7.64274 1.76229
129 2 20.0963 7.58575 -1.49902 20.0963 7.58575 -1.49902
130 1 21.0139 9.2605 0.121657 21.0139 9.2605 0.121657
131 2 22.9189 9.28557 1.74697 22.9189 9.28557 1.74697
132 2 22.9104 9.23615 -1.51513 22.9104 9.23615 -1.51513
133 1 23.8654 7.61514 0.13806 23.8654 7.61514 0.13806
134 2 25.8018 7.65283 1.72575 25.8018 7.65283 1.72575
135 2 25.7299 7.57809 -1.53501 25.7299 7.57809 -1.53501
136 1 26.7154 9.26132 0.0363979 26.7154 9.26132 0.0363979
137 2 28.6822 9.29462 1.58633 28.6822 9.29462 1.58633
138 2 28.5471 9.22835 -1.67259 28.5471 9.22835 -1.67259
139 1 29.565 7.61532 -0.0492725 29.565 7.61532 -0.0492725
140 2 31.5513 7.65786 1.47563 31.5513 7.65786 1.47563
141 2 31.3753 7.57277 -1.78079 31.3753 7.57277 -1.78079
142 1 32.4113 9.26087 -0.247204 32.4113 9.26087 -0.247204
143 2 34.4076 9.29647 1.265 34.4076 9.29647 1.265
144 2 34.2104 9.22499 -1.99045 34.2104 9.22499 -1.99045
145 1 35.2587 7.61403 -0.384187 35.2587 7.61403 -0.384187
146 2 37.2537 7.6557 1.13002 37.2537 7.6557 1.13002
147 2 37.0598 7.57192 -2.12524 37.0598 7.57192 -2.12524
148 1 38.1048 9.2595 -0.596832 38.1048 9.2595 -0.596832
149 2 40.0849 9.29113 0.937578 40.0849 9.29113 0.937578
150 2 39.9234 9.22755 -2.31979 39.9234 9.22755 -2.31979
151 1 40.9544 7.61235 -0.706011 40.9544 7.61235 -0.706011
152 2 42.9131 7.64806 0.855928 42.9131 7.64806 0.855928
153 2 42.797 7.57637 -2.40317 42.797 7.57637 -2.40317
154 1 43.8051 9.25851 -0.843978 43.8051 9.25851 -0.843978
155 2 45.7301 9.28171 0.759895 45.7301 9.28171 0.759895
156 2 45.6838 9.2353 -2.5013 45.6838 9.2353 -2.5013
157 1 46.6582 7.61151 -0.860625 46.6582 7.61151 -0.860625
158 2 48.551 7.63892 0.78121 48.551 7.63892 0.78121
159 2 48.5694 7.58409 -2.48016 48.5694 7.58409 -2.48016
160 1 49.5113 9.25842 -0.871991 49.5113 9.25842 -0.871991
161 2 51.3664 9.27203 0.812654 51.3664 9.27203 0.812654
162 2 51.459 9.24488 -2.44779 51.459 9.24488 -2.44779
163 1 1.07401 10.9057 -0.804449 1.07401 10.9057 -0.804449
164 2 2.89657 10.9044 0.915326 2.89657 10.9044 0.915326
165 2 3.05126 10.9068 -2.34293 3.05126 10.9068 -2.34293
166 1 3.92351 12.5527 -0.667577 3.92351 12.5527 -0.667577
167 2 5.72392 12.5373 1.07498 5.72392 12.5373 1.07498
168 2 5.91981 12.5677 -2.18103 5.91981 12.5677 -2.18103
169 1 6.77179 10.9056 -0.511263 6.77179 10.9056 -0.511263
170 2 8.56589 10.8997 1.23741 8.56589 10.8997 1.23741
171 2 8.77301 10.9112 -2.01815 8.77301 10.9112 -2.01815
172 1 9.6177 12.5521 -0.324283 9.6177 12.5521 -0.324283
173 2 11.4172 12.5362 1.41834 11.4172 12.5362 1.41834
174 2 11.6138 12.5676 -1.83786 11.6138 12.5676 -1.83786
175 1 12.4652 10.9055 -0.168557 12.4652 10.9055 -0.168557
176 2 14.2806 10.9039 1.55717 14.2806 10.9039 1.55717
177 2 14.4469 10.9071 -1.70098 14.4469 10.9071 -1.70098
178 1 15.3126 12.5518 -0.0218557 15.3126 12.5518 -0.0218557
179 2 17.1571 12.5446 1.67231 17.1571 12.5446 1.67231
180 2 17.2676 12.5593 -1.58826 17.2676 12.5593 -1.58826
181 1 18.1628 10.906 0.0664083 18.1628 10.906 0.0664083
182 2 20.0364 10.9155 1.72809 20.0364 10.9155 1.72809
183 2 20.0901 10.8971 -1.53393 20.0901 10.8971 -1.53393
184 1 21.0133 12.5526 0.103323 21.0133 12.5526 0.103323
185 2 22.9247 12.5578 1.72121 22.9247 12.5578 1.72121
186 2 22.9032 12.548 -1.54123 22.9032 12.548 -1.54123
187 1 23.8646 10.907 0.0882576 23.8646 10.907 0.0882576
188 2 25.8055 10.9276 1.67057 25.8055 10.9276 1.67057
189 2 25.7241 10.887 -1.59063 25.7241 10.887 -1.59063
190 1 26.7143 12.5534 -0.00454007 26.7143 12.5534 -0.00454007
191 2 28.6847 12.5678 1.54092 28.6847 12.5678 1.54092
192 2 28.5418 12.5393 -1.71823 28.5418 12.5393 -1.71823
193 1 29.5633 10.9074 -0.116276 29.5633 10.9074 -0.116276
194 2 31.551 10.9338 1.40703 31.551 10.9338 1.40703
195 2 31.3719 10.8809 -1.84993 31.3719 10.8809 -1.84993
196 1 32.4095 12.5534 -0.300711 32.4095 12.5534 -0.300711
197 2 34.4057 12.5702 1.2119 34.4057 12.5702 1.2119
198 2 34.2087 12.5364 -2.04415 34.2087 12.5364 -2.04415
199 1 35.2567 10.9066 -0.456667 35.2567 10.9066 -0.456667
200 2 37.2497 10.9321 1.06063 37.2497 10.9321 1.06063
201 2 37.0603 10.8808 -2.19553 37.0603 10.8808 -2.19553
202 1 38.1033 12.5528 -0.648892 38.1033 12.5528 -0.648892
203 2 40.0799 12.5656 0.890377 40.0799 12.5656 0.890377
204 2 39.9261 12.5399 -2.36783 39.9261 12.5399 -2.36783
205 1 40.9532 10.9057 -0.770628 40.9532 10.9057 -0.770628
206 2 42.907 10.9243 0.797846 42.907 10.9243 0.797846
207 2 42.8014 10.8869 -2.46211 42.8014 10.8869 -2.46211
208 1 43.8045 12.5525 -0.882062 43.8045 12.5525 -0.882062
209 2 45.7237 12.5562 0.729103 45.7237 12.5562 0.729103
210 2 45.6896 12.5489 -2.53252 45.6896 12.5489 -2.53252
211 1 46.6579 10.9054 -0.907877 46.6579 10.9054 -0.907877
212 2 48.5447 10.9139 0.741261 48.5447 10.9139 0.741261
213 2 48.5754 10.8971 -2.52037 48.5754 10.8971 -2.52037
214 1 49.5111 12.5527 -0.889222 49.5111 12.5527 -0.889222
215 2 51.3601 12.5456 0.802288 51.3601 12.5456 0.802288
216 2 51.4646 12.5599 -2.45785 51.4646 12.5599 -2.45785
217 1 1.07343 14.1998 -0.790124 1.07343 14.1998 -0.790124
218 2 2.89066 14.1778 0.935163 2.89066 14.1778 0.935163
219 2 3.05541 14.2215 -2.32232 3.05541 14.2215 -2.32232
220 1 3.92222 15.8462 -0.623458 3.92222 15.8462 -0.623458
221 2 5.71915 15.8118 1.12242 5.71915 15.8118 1.12242
222 2 5.92146 15.88 -2.13264 5.92146 15.88 -2.13264
223 1 6.77035 14.1991 -0.480616 6.77035 14.1991 -0.480616
224 2 8.56311 14.1721 1.26924 8.56311 14.1721 1.26924
225 2 8.77271 14.2255 -1.98575 8.77271 14.2255 -1.98575
226 1 9.6158 15.8448 -0.27016 9.6158 15.8448 -0.27016
227 2 11.4171 15.8098 1.47035 11.4171 15.8098 1.47035
228 2 11.6103 15.8794 -1.78545 11.6103 15.8794 -1.78545
229 1 12.4637 14.1981 -0.136616 12.4637 14.1981 -0.136616
230 2 14.2834 14.1754 1.58439 14.2834 14.1754 1.58439
231 2 14.4416 14.2207 -1.67384 14.4416 14.2207 -1.67384
232 1 15.3113 15.844 0.0242553 15.3113 15.844 0.0242553
233 2 17.1625 15.8172 1.71099 17.1625 15.8172 1.71099
234 2 17.2603 15.8711 -1.54953 17.2603 15.8711 -1.54953
235 1 18.1619 14.1982 0.0815663 18.1619 14.1982 0.0815663
236 2 20.0428 14.1869 1.735 20.0428 14.1869 1.735
237 2 20.0823 14.2099 -1.52719 20.0823 14.2099 -1.52719
238 1 21.0127 15.8446 0.126947 21.0127 15.8446 0.126947
239 2 22.9314 15.8295 1.73619 22.9314 15.8295 1.73619
240 2 22.8953 15.8603 -1.52596 22.8953 15.8603 -1.52596
241 1 23.8639 14.1991 0.0785622 23.8639 14.1991 0.0785622
242 2 25.8107 14.1993 1.65382 25.8107 14.1993 1.65382
243 2 25.7172 14.1995 -1.60731 25.7172 14.1995 -1.60731
244 1 26.7135 15.8457 -0.00408527 26.7135 15.8457 -0.00408527
245 2 28.6883 15.839 1.53602 28.6883 15.839 1.53602
246 2 28.5364 15.8527 -1.72281 28.5364 15.8527 -1.72281
247 1 29.562 14.1998 -0.144974 29.562 14.1998 -0.144974
248 2 31.5519 14.2057 1.37578 31.5519 14.2057 1.37578
249 2 31.3682 14.194 -1.88132 31.3682 14.194 -1.88132
250 1 32.4083 15.8464 -0.312517 32.4083 15.8464 -0.312517
251 2 34.4051 15.8418 1.19966 34.4051 15.8418 1.19966
252 2 34.2072 15.8508 -2.05649 34.2072 15.8508 -2.05649
253 1 35.2553 14.1998 -0.49095 35.2553 14.1998 -0.49095
254 2 37.2467 14.2048 1.02869 37.2467 14.2048 1.02869
255 2 37.0608 14.1946 -2.22805 37.0608 14.1946 -2.22805
256 1 38.1025 15.8466 -0.659266 38.1025 15.8466 -0.659266
257 2 40.0762 15.8385 0.883729 40.0762 15.8385 0.883729
258 2 39.9284 15.8546 -2.37482 39.9284 15.8546 -2.37482
259 1 40.9524 14.1997 -0.796838 40.9524 14.1997 -0.796838
260 2 42.9016 14.1981 0.777623 42.9016 14.1981 0.777623
261 2 42.8058 14.2012 -2.48282 42.8058 14.2012 -2.48282
262 1 43.8042 15.8469 -0.879164 43.8042 15.8469 -0.879164
263 2 45.7181 15.8306 0.738363 45.7181 15.8306 0.738363
264 2 45.6947 15.8631 -2.52321 45.6947 15.8631 -2.52321
265 1 46.6577 14.1998 -0.915545 46.6577 14.1998 -0.915545
266 2 48.5382 14.188 0.740795 48.5382 14.188 0.740795
267 2 48.5814 14.2117 -2.52064 48.5814 14.2117 -2.52064
268 1 49.5107 15.847 -0.865411 49.5107 15.847 -0.865411
269 2 51.3538 15.8204 0.832369 51.3538 15.8204 0.832369
270 2 51.4697 15.8732 -2.42702 51.4697 15.8732 -2.42702
271 1 1.0725 17.4934 -0.73686 1.0725 17.4934 -0.73686
272 2 2.88506 17.4547 0.993014 2.88506 17.4547 0.993014
273 2 3.05843 17.5315 -2.26345 3.05843 17.5315 -2.26345
274 1 3.92059 19.139 -0.545725 3.92059 19.139 -0.545725
275 2 5.71491 19.0917 1.20252 5.71491 19.0917 1.20252
276 2 5.92191 19.1854 -2.05165 5.92191 19.1854 -2.05165
277 1 6.76842 17.4918 -0.411609 6.76842 17.4918 -0.411609
278 2 8.56036 17.4487 1.33877 8.56036 17.4487 1.33877
279 2 8.77143 17.5342 -1.91544 8.77143 17.5342 -1.91544
280 1 9.61362 19.1368 -0.1835 9.61362 19.1368 -0.1835
281 2 11.417 19.0891 1.55464 11.417 19.0891 1.55464
282 2 11.6065 19.1841 -1.7007 11.6065 19.1841 -1.7007
283 1 12.4618 17.4902 -0.0660338 12.4618 17.4902 -0.0660338
284 2 14.2862 17.4508 1.6498 14.2862 17.4508 1.6498
285 2 14.4357 17.5295 -1.60816 14.4357 17.5295 -1.60816
286 1 15.3099 19.1356 0.104205 15.3099 19.1356 0.104205
287 2 17.1674 19.0944 1.78383 17.1674 19.0944 1.78383
288 2 17.2533 19.1774 -1.47634 17.2533 19.1774 -1.47634
289 1 18.1611 17.49 0.136422 18.1611 17.49 0.136422
290 2 20.0495 17.4605 1.78118 20.0495 17.4605 1.78118
291 2 20.0744 17.5202 -1.48062 20.0744 17.5202 -1.48062
292 1 21.0122 19.1363 0.187585 21.0122 19.1363 0.187585
293 2 22.9378 19.104 1.78861 22.9378 19.104 1.78861
294 2 22.8883 19.1694 -1.47276 22.8883 19.1694 -1.47276
295 1 23.8635 17.4911 0.109994 23.8635 17.4911 0.109994
296 2 25.8163 17.4713 1.6778 25.8163 17.4713 1.6778
297 2 25.7106 17.5116 -1.58267 25.7106 17.5116 -1.58267
298 1 26.7132 19.1378 0.0369453 26.7132 19.1378 0.0369453
299 2 28.6921 19.1116 1.5718 28.6921 19.1116 1.5718
300 2 28.5319 19.1644 -1.68618 28.5319 19.1644 -1.68618
301 1 29.5613 17.4924 -0.130978 29.5613 17.4924 -0.130978
302 2 31.5536 17.4771 1.38668 31.5536 17.4771 1.38668
303 2 31.3649 17.5078 -1.86999 31.3649 17.5078 -1.86999
304 1 32.408 19.1392 -0.281367 32.408 19.1392 -0.281367
305 2 34.4055 19.1143 1.22966 34.4055 19.1143 1.22966
306 2 34.206 19.164 -2.02602 34.206 19.164 -2.02602
307 1 35.2546 17.4932 -0.481761 35.2546 17.4932 -0.481761
308 2 37.245 17.4771 1.03906 37.245 17.4771 1.03906
309 2 37.0611 17.5091 -2.21764 37.0611 17.5091 -2.21764
310 1 38.1022 19.1402 -0.626911 38.1022 19.1402 -0.626911
311 2 40.0742 19.1128 0.918217 40.0742 19.1128 0.918217
312 2 39.9301 19.1675 -2.34011 39.9301 19.1675 -2.34011
313 1 40.9521 17.4937 -0.780698 40.9521 17.4937 -0.780698
314 2 42.8976 17.4724 0.798226 42.8976 17.4724 0.798226
315 2 42.8093 17.5149 -2.46218 42.8093 17.5149 -2.46218
316 1 43.8042 19.1408 -0.836316 43.8042 19.1408 -0.836316
317 2 45.714 19.1074 0.78568 45.714 19.1074 0.78568
318 2 45.6985 19.1738 -2.4755 45.6985 19.1738 -2.4755
319 1 46.6575 17.494 -0.882902 46.6575 17.494 -0.882902
320 2 48.5326 17.464 0.779369 48.5326 17.464 0.779369
321 2 48.5863 17.5236 -2.48151 48.5863 17.5236 -2.48151
322 1 49.5102 19.1405 -0.805259 49.5102 19.1405 -0.805259
323 2 51.3486 19.0993 0.897272 51.3486 19.0993 0.897272
324 2 51.4731 19.181 -2.36128 51.4731 19.181 -2.36128
325 1 1.07135 20.7861 -0.654255 1.07135 20.7861 -0.654255
326 2 2.88071 20.7374 1.07865 2.88071 20.7374 1.07865
327 2 3.05979 20.8339 -2.17706 3.05979 20.8339 -2.17706
328 1 3.9189 22.4309 -0.447953 3.9189 22.4309 -0.447953
329 2 5.71199 22.3788 1.30139 5.71199 22.3788 1.30139
330 2 5.92106 22.482 -1.9524 5.92106 22.482 -1.9524
331 1 6.76633 20.7838 -0.316675 6.76633 20.7838 -0.316675
332 2 8.55814 20.7322 1.43364 8.55814 20.7322 1.43364
333 2 8.76942 20.8346 -1.82005 8.76942 20.8346 -1.82005
334 1 9.61155 22.4283 -0.0796407 9.61155 22.4283 -0.0796407
335 2 11.4169 22.3763 1.65639 11.4169 22.3763 1.65639
336 2 11.6028 22.4801 -1.59883 11.6028 22.4801 -1.59883
337 1 12.4599 20.7817 0.0303078 12.4599 20.7817 0.0303078
338 2 14.2885 20.7328 1.74156 14.2885 20.7328 1.74156
339 2 14.4303 20.8308 -1.51613 14.4303 20.8308 -1.51613
340 1 15.3086 22.427 0.20363 15.3086 22.427 0.20363
341 2 17.1711 22.3786 1.87783 17.1711 22.3786 1.87783
342 2 17.2478 22.4761 -1.38203 17.2478 22.4761 -1.38203
343 1 18.1603 20.7815 0.220678 18.1603 20.7815 0.220678
344 2 20.0551 20.7392 1.85802 20.0551 20.7392 1.85802
345 2 20.0678 20.8246 -1.40316 20.0678 20.8246 -1.40316
346 1 21.012 22.4277 0.274172 21.012 22.4277 0.274172
347 2 22.9428 22.384 1.86904 22.9428 22.384 1.86904
348 2 22.8833 22.4724 -1.3915 22.8833 22.4724 -1.3915
349 1 23.8634 20.7828 0.176361 23.8634 20.7828 0.176361
350 2 25.8213 20.7467 1.73777 25.8213 20.7467 1.73777
351 2 25.7055 20.8197 -1.52169 25.7055 20.8197 -1.52169
352 1 26.7136 22.4294 0.111 26.7136 22.4294 0.111
353 2 28.6956 22.3884 1.64176 28.6956 22.3884 1.64176
354 2 28.5292 22.4711 -1.6152 28.5292 22.4711 -1.6152
355 1 29.5614 20.7846 -0.0773866 29.5614 20.7846 -0.0773866
356 2 31.5559 20.751 1.43726 31.5559 20.751 1.43726
357 2 31.3627 20.8184 -1.81855 31.3627 20.8184 -1.81855
358 1 32.4085 22.4314 -0.213072 32.4085 22.4314 -0.213072
359 2 34.407 22.3906 1.29645 34.407 22.3906 1.29645
360 2 34.2055 22.4724 -1.95845 34.2055 22.4724 -1.95845
361 1 35.2547 20.7861 -0.431381 35.2547 20.7861 -0.431381
362 2 37.2449 20.7519 1.08947 37.2449 20.7519 1.08947
363 2 37.0614 20.8203 -2.16672 37.0614 20.8203 -2.16672
364 1 38.1027 22.4331 -0.557606 38.1027 22.4331 -0.557606
365 2 40.074 22.3908 0.987952 40.074 22.3908 0.987952
366 2 39.9311 22.4751 -2.26986 39.9311 22.4751 -2.26986
367 1 40.9523 20.7872 -0.725372 40.9523 20.7872 -0.725372
368 2 42.8955 20.7496 0.855941 42.8955 20.7496 0.855941
369 2 42.8116 20.8244 -2.40408 42.8116 20.8244 -2.40408
370 1 43.8043 22.4338 -0.760718 43.8043 22.4338 -0.760718
371 2 45.7121 22.3887 0.863217 45.7121 22.3887 0.863217
372 2 45.7002 22.4782 -2.39754 45.7002 22.4782 -2.39754
373 1 46.6573 20.7873 -0.815799 46.6573 20.7873 -0.815799
374 2 48.5287 20.7443 0.85022 48.5287 20.7443 0.85022
375 2 48.5892 20.8296 -2.41007 48.5892 20.8296 -2.41007
376 1 49.5096 22.433 -0.719025 49.5096 22.433 -0.719025
377 2 51.3453 22.3841 0.985974 51.3453 22.3841 0.985974
378 2 51.4744 22.481 -2.2721 51.4744 22.481 -2.2721
379 1 1.07019 24.0779 -0.556213 1.07019 24.0779 -0.556213
380 2 2.87849 24.0274 1.17765 2.87849 24.0274 1.17765
381 2 3.05916 24.1275 -2.07796 3.05916 24.1275 -2.07796
382 1 3.91746 25.7224 -0.346568 3.91746 25.7224 -0.346568
383 2 5.71101 25.6744 1.40237 5.71101 25.6744 1.40237
384 2 5.91897 25.7696 -1.85178 5.91897 25.7696 -1.85178
385 1 6.76445 24.0753 -0.212148 6.76445 24.0753 -0.212148
386 2 8.5569 24.024 1.53758 8.5569 24.024 1.53758
387 2 8.76696 24.126 -1.71621 8.76696 24.126 -1.71621
388 1 9.60993 25.7199 0.0236977 9.60993 25.7199 0.0236977
389 2 11.417 25.6723 1.75825 11.417 25.6723 1.75825
390 2 11.5999 25.7675 -1.49734 11.5999 25.7675 -1.49734
391 1 12.4583 24.0732 0.135603 12.4583 24.0732 0.135603
392 2 14.29 24.0231 1.84374 14.29 24.0231 1.84374
393 2 14.4263 24.1236 -1.414 14.4263 24.1236 -1.414
394 1 15.3077 25.7187 0.305427 15.3077 25.7187 0.305427
395 2 17.1729 25.6714 1.97691 17.1729 25.6714 1.97691
396 2 17.2448 25.7668 -1.28299 17.2448 25.7668 -1.28299
397 1 18.1597 24.0729 0.319496 18.1597 24.0729 0.319496
398 2 20.0588 24.0252 1.95213 20.0588 24.0252 1.95213
399 2 20.0637 24.1215 -1.30862 20.0637 24.1215 -1.30862
400 1 21.0121 25.7192 0.371787 21.0121 25.7192 0.371787
401 2 22.9455 25.6714 1.96376 22.9455 25.6714 1.96376
402 2 22.8813 25.7679 -1.29631 22.8813 25.7679 -1.29631
403 1 23.8638 24.0742 0.265969 23.8638 24.0742 0.265969
404 2 25.825 24.0281 1.82334 25.825 24.0281 1.82334
405 2 25.7028 24.1212 -1.43525 25.7028 24.1212 -1.43525
406 1 26.7144 25.7209 0.20539 26.7144 25.7209 0.20539
407 2 28.6981 25.6719 1.73412 28.6981 25.6719 1.73412
408 2 28.5286 25.7706 -1.52215 28.5286 25.7706 -1.52215
409 1 29.5622 24.0762 0.00641638 29.5622 24.0762 0.00641638
410 2 31.5583 24.0302 1.51881 31.5583 24.0302 1.51881
411 2 31.3619 24.1228 -1.73614 31.3619 24.1228 -1.73614
412 1 32.4097 25.7231 -0.119167 32.4097 25.7231 -0.119167
413 2 34.4092 25.6731 1.38897 34.4092 25.6731 1.38897
414 2 34.2057 25.7735 -1.86529 34.2057 25.7735 -1.86529
415 1 35.2556 24.0783 -0.348464 35.2556 24.0783 -0.348464
416 2 37.2463 24.0316 1.17148 37.2463 24.0316 1.17148
417 2 37.0617 24.1251 -2.08406 37.0617 24.1251 -2.08406
418 1 38.1038 25.7251 -0.462773 38.1038 25.7251 -0.462773
419 2 40.0758 25.675 1.08159 40.0758 25.675 1.08159
420 2 39.931 25.775 -2.1758 39.931 25.775 -2.1758
421 1 40.9528 24.0797 -0.639978 40.9528 24.0797 -0.639978
422 2 42.8956 24.032 0.941409 42.8956 24.032 0.941409
423 2 42.8121 24.1269 -2.31822 42.8121 24.1269 -2.31822
424 1 43.8047 25.7258 -0.664657 43.8047 25.7258 -0.664657
425 2 45.7129 25.6765 0.958422 45.7129 25.6765 0.958422
426 2 45.6995 25.7744 -2.30224 45.6995 25.7744 -2.30224
427 1 46.6571 24.0796 -0.725208 46.6571 24.0796 -0.725208
428 2 48.5274 24.0307 0.941755 48.5274 24.0307 0.941755
429 2 48.5896 24.1277 -2.31831 48.5896 24.1277 -2.31831
430 1 49.509 25.7247 -0.620861 49.509 25.7247 -0.620861
431 2 51.3448 25.6762 1.08386 51.3448 25.6762 1.08386
432 2 51.4731 25.7722 -2.17439 51.4731 25.7722 -2.17439
433 1 1.06926 27.3694 -0.458978 1.06926 27.3694 -0.458978
434 2 2.87892 27.3255 1.27351 2.87892 27.3255 1.27351
435 2 3.05659 27.4124 -1.98273 3.05659 27.4124 -1.98273
436 1 3.91655 29.014 -0.258507 3.91655 29.014 -0.258507
437 2 5.71223 28.9781 1.48847 5.71223 28.9781 1.48847
438 2 5.91596 29.0494 -1.7666 5.91596 29.0494 -1.7666
439 1 6.76312 27.367 -0.11559 6.76312 27.367 -0.11559
440 2 8.55694 27.3246 1.63301 8.55694 27.3246 1.63301
441 2 8.7644 27.4089 -1.62143 8.7644 27.4089 -1.62143
442 1 9.60903 29.0121 0.109177 9.60903 29.0121 0.109177
443 2 11.4172 28.9769 1.843 11.4172 28.9769 1.843
444 2 11.5981 29.0474 -1.41328 11.5981 29.0474 -1.41328
445 1 12.4572 27.3652 0.232032 12.4572 27.3652 0.232032
446 2 14.2904 27.3224 1.93903 14.2904 27.3224 1.93903
447 2 14.4242 27.4084 -1.31913 14.4242 27.4084 -1.31913
448 1 15.3072 29.0112 0.392483 15.3072 29.0112 0.392483
449 2 17.1725 28.9728 2.06436 17.1725 28.9728 2.06436
450 2 17.2446 29.0501 -1.19589 17.2446 29.0501 -1.19589
451 1 18.1594 27.3648 0.416119 18.1594 27.3648 0.416119
452 2 20.0598 27.3197 2.04761 20.0598 27.3197 2.04761
453 2 20.0626 27.4108 -1.21315 20.0626 27.4108 -1.21315
454 1 21.0123 29.0114 0.464034 21.0123 29.0114 0.464034
455 2 22.9454 28.9676 2.05689 22.9454 28.9676 2.05689
456 2 22.8825 29.0559 -1.20331 22.8825 29.0559 -1.20331
457 1 23.8644 27.3658 0.363664 23.8644 27.3658 0.363664
458 2 25.8265 27.3174 1.92016 25.8265 27.3174 1.92016
459 2 25.703 27.4151 -1.33813 25.703 27.4151 -1.33813
460 1 26.7156 29.0126 0.304278 26.7156 29.0126 0.304278
461 2 28.6991 28.964 1.83346 28.6991 28.964 1.83346
462 2 28.5304 29.062 -1.42278 28.5304 29.062 -1.42278
463 1 29.5636 27.3677 0.106373 29.5636 27.3677 0.106373
464 2 31.5605 27.3168 1.61784 31.5605 27.3168 1.61784
465 2 31.3627 27.4193 -1.63669 31.3627 27.4193 -1.63669
466 1 32.4115 29.0146 -0.0152584 32.4115 29.0146 -0.0152584
467 2 34.4118 28.9638 1.49191 34.4118 28.9638 1.49191
468 2 34.2067 29.0659 -1.7622 34.2067 29.0659 -1.7622
469 1 35.2571 27.3699 -0.246721 35.2571 27.3699 -0.246721
470 2 37.2489 27.3185 1.27165 37.2489 27.3185 1.27165
471 2 37.0618 27.4216 -1.98352 37.0618 27.4216 -1.98352
472 1 38.1053 29.0165 -0.358208 38.1053 29.0165 -0.358208
473 2 40.0793 28.9672 1.18354 40.0793 28.9672 1.18354
474 2 39.9299 29.0658 -2.07379 39.9299 29.0658 -2.07379
475 1 40.9538 27.3714 -0.538587 40.9538 27.3714 -0.538587
476 2 42.8982 27.3217 1.04062 42.8982 27.3217 1.04062
477 2 42.8108 27.4207 -2.21892 42.8108 27.4207 -2.21892
478 1 43.8052 29.0172 -0.564301 43.8052 29.0172 -0.564301
479 2 45.7163 28.9721 1.05533 45.7163 28.9721 1.05533
480 2 45.6965 29.0616 -2.2057 45.6965 29.0616 -2.2057
481 1 46.6571 27.3712 -0.626045 46.6571 27.3712 -0.626045
482 2 48.529 27.3245 1.03892 48.529 27.3245 1.03892
483 2 48.5873 27.4169 -2.2215 48.5873 27.4169 -2.2215
484 1 49.5085 29.0161 -0.527182 49.5085 29.0161 -0.527182
485 2 51.3472 28.9762 1.17456 51.3472 28.9762 1.17456
486 2 51.4696 29.0551 -2.08451 51.4696 29.0551 -2.08451
487 1 1.06876 30.661 -0.378987 1.06876 30.661 -0.378987
488 2 2.88194 30.6312 1.34997 2.88194 30.6312 1.34997
489 2 3.05257 30.6901 -1.90735 3.05257 30.6901 -1.90735
490 1 3.91635 32.3062 -0.198753 3.91635 32.3062 -0.198753
491 2 5.71541 32.2884 1.54495 5.71541 32.2884 1.54495
492 2 5.91258 32.3236 -1.71116 5.91258 32.3236 -1.71116
493 1 6.76257 30.6592 -0.0432304 6.76257 30.6592 -0.0432304
494 2 8.55826 30.6329 1.70379 8.55826 30.6329 1.70379
495 2 8.76215 30.6854 -1.55155 8.76215 30.6854 -1.55155
496 1 9.60898 32.3051 0.162374 9.60898 32.3051 0.162374
497 2 11.4175 32.2883 1.89621 11.4175 32.2883 1.89621
498 2 11.5978 32.3221 -1.36066 11.5978 32.3221 -1.36066
499 1 12.4568 30.658 0.303407 12.4568 30.658 0.303407
500 2 14.2896 30.6297 2.01129 14.2896 30.6297 2.01129
501 2 14.4244 30.6867 -1.24739 14.4244 30.6867 -1.24739
502 1 15.3071 32.3046 0.450124 15.3071 32.3046 0.450124
503 2 17.1699 32.2817 2.1253 17.1699 32.2817 2.1253
504 2 17.2473 32.3278 -1.13534 17.2473 32.3278 -1.13534
505 1 18.1593 30.6577 0.494308 18.1593 30.6577 0.494308
506 2 20.0581 30.6227 2.12834 20.0581 30.6227 2.12834
507 2 20.0647 30.6932 -1.13281 20.0647 30.6932 -1.13281
508 1 21.0126 32.3045 0.535255 21.0126 32.3045 0.535255
509 2 22.9425 32.2722 2.13251 22.9425 32.2722 2.13251
510 2 22.8865 32.3371 -1.12826 22.8865 32.3371 -1.12826
511 1 23.8652 30.6581 0.452966 23.8652 30.6581 0.452966
512 2 25.8257 30.6157 2.01189 25.8257 30.6157 2.01189
513 2 25.706 30.7012 -1.24677 25.706 30.7012 -1.24677
514 1 26.7169 32.3051 0.390786 26.7169 32.3051 0.390786
515 2 28.6986 32.2651 1.92282 28.6986 32.2651 1.92282
516 2 28.5341 32.3456 -1.33404 28.5341 32.3456 -1.33404
517 1 29.5653 30.6595 0.20566 29.5653 30.6595 0.20566
518 2 31.562 30.6124 1.71773 31.562 30.6124 1.71773
519 2 31.3649 30.7073 -1.53703 31.3649 30.7073 -1.53703
520 1 32.4136 32.3065 0.0809452 32.4136 32.3065 0.0809452
521 2 34.4144 32.2638 1.58771 34.4144 32.2638 1.58771
522 2 34.2081 32.3498 -1.66679 34.2081 32.3498 -1.66679
523 1 35.2591 30.6615 -0.143245 35.2591 30.6615 -0.143245
524 2 37.2525 30.6142 1.37311 37.2525 30.6142 1.37311
525 2 37.0617 30.7091 -1.88215 37.0617 30.7091 -1.88215
526 1 38.1071 32.3081 -0.261971 38.1071 32.3081 -0.261971
527 2 40.0841 32.2683 1.27605 40.0841 32.2683 1.27605
528 2 39.928 32.348 -1.98157 39.928 32.348 -1.98157
529 1 40.955 30.6628 -0.438558 40.955 30.6628 -0.438558
530 2 42.9027 30.6198 1.13655 42.9027 30.6198 1.13655
531 2 42.8079 30.7055 -2.12329 42.8079 30.7055 -2.12329
532 1 43.8059 32.3086 -0.477304 43.8059 32.3086 -0.477304
533 2 45.7217 32.2758 1.13688 45.7217 32.2758 1.13688
534 2 45.6919 32.3408 -2.12478 45.6919 32.3408 -2.12478
535 1 46.6572 30.6625 -0.535351 46.6572 30.6625 -0.535351
536 2 48.5331 30.6262 1.12508 48.5331 30.6262 1.12508
537 2 48.5829 30.6981 -2.13614 48.5829 30.6981 -2.13614