ITEM: TIMESTEP
82000
ITEM: NUMBER OF ATOMS
810
ITEM: BOX BOUNDS pp pp pp
8.5913348914894572e-01 5.2158471510849822e+01
8.2185695660703140e-01 5.0194358043392100e+01
-1.0000000000000000e+01 1.0000000000000000e+01
ITEM: ATOMS id type x y z xu yu zu
1 1 1.06145 1.03558 0.0719068 1.06145 1.03558 0.0719068
2 2 3.04739 1.0964 1.59702 3.04739 1.0964 1.59702
3 2 2.87288 0.97254 -1.65818 2.87288 0.97254 -1.65818
4 1 3.90901 2.67847 -0.144478 3.90901 2.67847 -0.144478
5 2 5.90239 2.73063 1.37123 5.90239 2.73063 1.37123
6 2 5.71186 2.62488 -1.88367 5.71186 2.62488 -1.88367
7 1 6.75662 1.03109 -0.258562 6.75662 1.03109 -0.258562
8 2 8.74646 1.09709 1.26163 8.74646 1.09709 1.26163
9 2 8.56381 0.964295 -1.99263 8.56381 0.964295 -1.99263
10 1 9.60369 2.67501 -0.486178 9.60369 2.67501 -0.486178
11 2 11.5801 2.73271 1.05221 11.5801 2.73271 1.05221
12 2 11.4265 2.61747 -2.20412 11.4265 2.61747 -2.20412
13 1 12.4535 1.02844 -0.562576 12.4535 1.02844 -0.562576
14 2 14.4054 1.10082 1.00665 14.4054 1.10082 1.00665
15 2 14.3034 0.957172 -2.25058 14.3034 0.957172 -2.25058
16 1 15.3044 2.67389 -0.724396 15.3044 2.67389 -0.724396
17 2 17.2273 2.74057 0.880828 17.2273 2.74057 0.880828
18 2 17.1852 2.60894 -2.37815 17.1852 2.60894 -2.37815
19 1 18.1573 1.02907 -0.694295 18.1573 1.02907 -0.694295
20 2 20.0459 1.10656 0.950794 20.0459 1.10656 0.950794
21 2 20.0723 0.954235 -2.30757 20.0723 0.954235 -2.30757
22 1 21.0103 2.67573 -0.747611 21.0103 2.67573 -0.747611
23 2 22.8676 2.75125 0.933086 22.8676 2.75125 0.933086
24 2 22.9558 2.60293 -2.32432 22.9558 2.60293 -2.32432
25 1 23.8618 1.03287 -0.594651 23.8618 1.03287 -0.594651
26 2 25.6914 1.11179 1.11572 25.6914 1.11179 1.11572
27 2 25.832 0.956866 -2.13969 25.832 0.956866 -2.13969
28 1 26.7127 2.68004 -0.549234 26.7127 2.68004 -0.549234
29 2 28.5229 2.75958 1.18157 28.5229 2.75958 1.18157
30 2 28.7003 2.60305 -2.07192 28.7003 2.60305 -2.07192
31 1 29.5599 1.03795 -0.313906 29.5599 1.03795 -0.313906
32 2 31.3631 1.1136 1.42405 31.3631 1.1136 1.42405
33 2 31.5532 0.964021 -1.82911 31.5532 0.964021 -1.82911
34 1 32.4085 2.68484 -0.222768 32.4085 2.68484 -0.222768
35 2 34.2134 2.76165 1.51316 34.2134 2.76165 1.51316
36 2 34.4004 2.60911 -1.74002 34.4004 2.60911 -1.74002
37 1 35.255 1.04177 0.0185501 35.255 1.04177 0.0185501
38 2 37.0776 1.1113 1.73592 37.0776 1.1113 1.73592
39 2 37.2311 0.971956 -1.5196 37.2311 0.971956 -1.5196
40 1 38.1049 2.68755 0.0822819 38.1049 2.68755 0.0822819
41 2 39.9494 2.75645 1.77585 39.9494 2.75645 1.77585
42 2 40.0611 2.6176 -1.48146 40.0611 2.6176 -1.48146
43 1 40.955 1.04252 0.250062 40.955 1.04252 0.250062
44 2 42.8335 1.10587 1.90599 42.8335 1.10587 1.90599
45 2 42.8793 0.977098 -1.35329 42.8793 0.977098 -1.35329
46 1 43.8074 2.68669 0.224279 43.8074 2.68669 0.224279
47 2 45.7162 2.74607 1.84499 45.7162 2.74607 1.84499
48 2 45.7014 2.62477 -1.41499 45.7014 2.62477 -1.41499
49 1 46.6596 1.04001 0.271854 46.6596 1.04001 0.271854
50 2 48.6023 1.09982 1.85185 48.6023 1.09982 1.85185
51 2 48.5188 0.977451 -1.40701 48.5188 0.977451 -1.40701
52 1 49.5109 2.68297 0.135809 49.5109 2.68297 0.135809
53 2 51.4777 2.73563 1.68565 51.4777 2.73563 1.68565
54 2 51.3435 2.62777 -1.57211 51.3435 2.62777 -1.57211
55 1 1.06104 4.32597 -0.0373608 1.06104 4.32597 -0.0373608
56 2 3.04429 4.36656 1.4916 3.04429 4.36656 1.4916
57 2 2.87503 4.28351 -1.76526 2.87503 4.28351 -1.76526
58 1 3.90916 5.96976 -0.228664 3.90916 5.96976 -0.228664
59 2 5.90016 5.99548 1.2906 5.90016 5.99548 1.2906
60 2 5.71442 5.94309 -1.96592 5.71442 5.94309 -1.96592
61 1 6.75595 4.32232 -0.365632 6.75595 4.32232 -0.365632
62 2 8.74657 4.36306 1.1543 8.74657 4.36306 1.1543
63 2 8.56224 4.28108 -2.10153 8.56224 4.28108 -2.10153
64 1 9.60369 5.9675 -0.569118 9.60369 5.9675 -0.569118
65 2 11.5824 5.99644 0.966972 11.5824 5.99644 0.966972
66 2 11.424 5.93879 -2.29061 11.424 5.93879 -2.29061
67 1 12.4527 4.32028 -0.67917 12.4527 4.32028 -0.67917
68 2 14.4076 4.36935 0.887287 14.4076 4.36935 0.887287
69 2 14.2998 4.27203 -2.37135 14.2998 4.27203 -2.37135
70 1 15.3041 5.9667 -0.822683 15.3041 5.9667 -0.822683
71 2 17.2328 6.00869 0.776514 17.2328 6.00869 0.776514
72 2 17.1795 5.92571 -2.48377 17.1795 5.92571 -2.48377
73 1 18.1571 4.32036 -0.827417 18.1571 4.32036 -0.827417
74 2 20.0494 4.3826 0.814308 20.0494 4.3826 0.814308
75 2 20.0693 4.26 -2.44517 20.0693 4.26 -2.44517
76 1 21.0108 5.96744 -0.87147 21.0108 5.96744 -0.87147
77 2 22.8743 6.02679 0.803139 22.8743 6.02679 0.803139
78 2 22.951 5.90985 -2.45568 22.951 5.90985 -2.45568
79 1 23.8631 4.32286 -0.744767 23.8631 4.32286 -0.744767
80 2 25.6943 4.3971 0.964303 25.6943 4.3971 0.964303
81 2 25.8326 4.25114 -2.29145 25.8326 4.25114 -2.29145
82 1 26.7148 5.9702 -0.696941 26.7148 5.9702 -0.696941
83 2 28.5275 6.04276 1.03164 28.5275 6.04276 1.03164
84 2 28.7007 5.89987 -2.22259 28.7007 5.89987 -2.22259
85 1 29.5625 4.32724 -0.472551 29.5625 4.32724 -0.472551
86 2 31.3634 4.40607 1.26773 31.3634 4.40607 1.26773
87 2 31.5582 4.25047 -1.98481 31.5582 4.25047 -1.98481
88 1 32.4115 5.97428 -0.380484 32.4115 5.97428 -0.380484
89 2 34.2133 6.04936 1.3587 34.2133 6.04936 1.3587
90 2 34.4062 5.90067 -1.89433 34.4062 5.90067 -1.89433
91 1 35.2574 4.3313 -0.13618 35.2574 4.3313 -0.13618
92 2 37.0744 4.40535 1.58686 37.0744 4.40535 1.58686
93 2 37.2384 4.25755 -1.66784 37.2384 4.25755 -1.66784
94 1 38.1072 5.97713 -0.0676725 38.1072 5.97713 -0.0676725
95 2 39.944 6.04308 1.63407 39.944 6.04308 1.63407
96 2 40.0699 5.91068 -1.62311 40.0699 5.91068 -1.62311
97 1 40.9561 4.33247 0.109236 40.9561 4.33247 0.109236
98 2 42.8276 4.39481 1.77282 42.8276 4.39481 1.77282
99 2 42.8866 4.26837 -1.48649 42.8866 4.26837 -1.48649
100 1 43.8082 5.97662 0.0959781 43.8082 5.97662 0.0959781
101 2 45.7078 6.02622 1.72736 45.7078 6.02622 1.72736
102 2 45.7106 5.92487 -1.53349 45.7106 5.92487 -1.53349
103 1 46.6597 4.33009 0.148906 46.6597 4.33009 0.148906
104 2 48.5964 4.37917 1.73611 48.5964 4.37917 1.73611
105 2 48.5243 4.27843 -1.52392 48.5243 4.27843 -1.52392
106 1 49.5109 5.97334 0.0336181 49.5109 5.97334 0.0336181
107 2 51.4708 6.00707 1.59245 51.4708 6.00707 1.59245
108 2 51.3506 5.93746 -1.66702 51.3506 5.93746 -1.66702
109 1 1.06157 7.61711 -0.108102 1.06157 7.61711 -0.108102
110 2 3.03801 7.63253 1.42983 3.03801 7.63253 1.42983
111 2 2.88274 7.60029 -1.82871 2.88274 7.60029 -1.82871
112 1 3.91047 9.26185 -0.261573 3.91047 9.26185 -0.261573
113 2 5.89622 9.2584 1.26454 5.89622 9.2584 1.26454
114 2 5.72135 9.26474 -1.99306 5.72135 9.26474 -1.99306
115 1 6.75684 7.61478 -0.418749 6.75684 7.61478 -0.418749
116 2 8.74675 7.62522 1.10243 8.74675 7.62522 1.10243
117 2 8.56371 7.60422 -2.15447 8.56371 7.60422 -2.15447
118 1 9.60513 9.26102 -0.590316 9.60513 9.26102 -0.590316
119 2 11.5862 9.25812 0.942828 11.5862 9.25812 0.942828
120 2 11.4226 9.26427 -2.31502 11.4226 9.26427 -2.31502
121 1 12.4532 7.61389 -0.73733 12.4532 7.61389 -0.73733
122 2 14.4133 7.63283 0.823101 14.4133 7.63283 0.823101
123 2 14.2946 7.59547 -2.43635 14.2946 7.59547 -2.43635
124 1 15.3046 9.26103 -0.860095 15.3046 9.26103 -0.860095
125 2 17.2422 9.27307 0.728708 17.2422 9.27307 0.728708
126 2 17.1707 9.24945 -2.53216 17.1707 9.24945 -2.53216
127 1 18.1572 7.61378 -0.911027 18.1572 7.61378 -0.911027
128 2 20.0584 7.65109 0.721184 20.0584 7.65109 0.721184
129 2 20.0609 7.57738 -2.53971 20.0609 7.57738 -2.53971
130 1 21.0111 9.26116 -0.9456 21.0111 9.26116 -0.9456
131 2 22.8858 9.29567 0.717089 22.8858 9.29567 0.717089
132 2 22.9408 9.22738 -2.54346 22.9408 9.22738 -2.54346
133 1 23.8642 7.61479 -0.862843 23.8642 7.61479 -0.862843
134 2 25.7031 7.67196 0.838678 25.7031 7.67196 0.838678
135 2 25.8271 7.55922 -2.41884 25.8271 7.55922 -2.41884
136 1 26.7165 9.26227 -0.810787 26.7165 9.26227 -0.810787
137 2 28.5368 9.31635 0.910587 28.5368 9.31635 0.910587
138 2 28.6961 9.20965 -2.34566 28.6961 9.20965 -2.34566
139 1 29.5653 7.61758 -0.617185 29.5653 7.61758 -0.617185
140 2 31.368 7.68641 1.12165 31.368 7.68641 1.12165
141 2 31.5596 7.55064 -2.13191 31.5596 7.55064 -2.13191
142 1 32.4147 9.26487 -0.517991 32.4147 9.26487 -0.517991
143 2 34.216 9.32613 1.22225 34.216 9.32613 1.22225
144 2 34.4099 9.20504 -2.03186 34.4099 9.20504 -2.03186
145 1 35.2605 7.62098 -0.286952 35.2605 7.62098 -0.286952
146 2 37.0721 7.68763 1.44189 37.0721 7.68763 1.44189
147 2 37.2461 7.55507 -1.81301 37.2461 7.55507 -1.81301
148 1 38.1099 9.26719 -0.202207 38.1099 9.26719 -0.202207
149 2 39.9383 9.31978 1.50899 39.9383 9.31978 1.50899
150 2 40.0801 9.21457 -1.74861 40.0801 9.21457 -1.74861
151 1 40.9579 7.62229 -0.0251792 40.9579 7.62229 -0.0251792
152 2 42.8192 7.67417 1.64993 42.8192 7.67417 1.64993
153 2 42.8975 7.56921 -1.60987 42.8975 7.56921 -1.60987
154 1 43.8094 9.26692 -0.0107277 43.8094 9.26692 -0.0107277
155 2 45.6965 9.29934 1.63532 45.6965 9.29934 1.63532
156 2 45.7237 9.23288 -1.62644 45.7237 9.23288 -1.62644
157 1 46.6602 7.62039 0.0459459 46.6602 7.62039 0.0459459
158 2 48.5862 7.65204 1.64623 48.5862 7.65204 1.64623
159 2 48.5354 7.58663 -1.61523 48.5354 7.58663 -1.61523
160 1 49.5116 9.26431 -0.0330288 49.5116 9.26431 -0.0330288
161 2 51.4604 9.27476 1.53962 51.4604 9.27476 1.53962
162 2 51.3626 9.25213 -1.72137 51.3626 9.25213 -1.72137
163 1 1.06282 10.9088 -0.131465 1.06282 10.9088 -0.131465
164 2 3.0294 10.8972 1.4189 3.0294 10.8972 1.4189
165 2 2.89456 10.9193 -1.8407 2.89456 10.9193 -1.8407
166 1 3.91254 12.554 -0.239638 3.91254 12.554 -0.239638
167 2 5.89112 12.5222 1.29529 5.89112 12.5222 1.29529
168 2 5.73124 12.5855 -1.96251 5.73124 12.5855 -1.96251
169 1 6.75893 10.9077 -0.412495 6.75893 10.9077 -0.412495
170 2 8.74661 10.8873 1.1113 8.74661 10.8873 1.1113
171 2 8.56803 10.9282 -2.14571 8.56803 10.9282 -2.14571
172 1 9.60767 12.5543 -0.548892 9.60767 12.5543 -0.548892
173 2 11.5908 12.5211 0.981063 11.5908 12.5211 0.981063
174 2 11.4225 12.5881 -2.27592 11.4225 12.5881 -2.27592
175 1 12.4548 10.9081 -0.730825 12.4548 10.9081 -0.730825
176 2 14.4212 10.8955 0.821398 14.4212 10.8955 0.821398
177 2 14.289 10.9211 -2.43766 14.289 10.9211 -2.43766
178 1 15.3059 12.5555 -0.83373 15.3059 12.5555 -0.83373
179 2 17.2539 12.5374 0.741964 17.2539 12.5374 0.741964
180 2 17.1606 12.574 -2.51827 17.1606 12.574 -2.51827
181 1 18.1576 10.9085 -0.934365 18.1576 10.9085 -0.934365
182 2 20.0709 10.9166 0.683856 20.0709 10.9166 0.683856
183 2 20.049 10.9006 -2.57773 20.049 10.9006 -2.57773
184 1 21.0113 12.5559 -0.96122 21.0113 12.5559 -0.96122
185 2 22.9 12.5619 0.685784 22.9 12.5619 0.685784
186 2 22.9274 12.5502 -2.57578 22.9274 12.5502 -2.57578
187 1 23.8648 10.9086 -0.931472 23.8648 10.9086 -0.931472
188 2 25.7158 10.9407 0.757632 25.7158 10.9407 0.757632
189 2 25.8169 10.8772 -2.50194 25.8169 10.8772 -2.50194
190 1 26.7177 12.5561 -0.87462 26.7177 12.5561 -0.87462
191 2 28.5488 12.5841 0.835954 28.5488 12.5841 0.835954
192 2 28.6877 12.5289 -2.42245 28.6877 12.5289 -2.42245
193 1 29.5677 10.9098 -0.724994 29.5677 10.9098 -0.724994
194 2 31.3759 10.9579 1.00887 31.3759 10.9579 1.00887
195 2 31.5574 10.8629 -2.24667 31.5574 10.8629 -2.24667
196 1 32.4176 12.5572 -0.614071 32.4176 12.5572 -0.614071
197 2 34.2207 12.5949 1.12498 34.2207 12.5949 1.12498
198 2 34.4112 12.5205 -2.13071 34.4112 12.5205 -2.13071
199 1 35.2638 10.9119 -0.409712 35.2638 10.9119 -0.409712
200 2 37.0713 10.9604 1.32401 37.0713 10.9604 1.32401
201 2 37.2529 10.8642 -1.93177 37.2529 10.8642 -1.93177
202 1 38.1128 12.5585 -0.299924 38.1128 12.5585 -0.299924
203 2 39.9331 12.5888 1.42041 39.9331 12.5888 1.42041
204 2 40.0902 12.5283 -1.83765 40.0902 12.5283 -1.83765
205 1 40.9601 10.9129 -0.132136 40.9601 10.9129 -0.132136
206 2 42.8096 10.9459 1.55622 42.8096 10.9459 1.55622
207 2 42.9104 10.8791 -1.70405 42.9104 10.8791 -1.70405
208 1 43.8109 12.558 -0.0789113 43.8109 12.558 -0.0789113
209 2 45.6842 12.5675 1.58312 45.6842 12.5675 1.58312
210 2 45.7385 12.5473 -1.67897 45.7385 12.5473 -1.67897
211 1 46.6611 10.9113 -0.0218738 46.6611 10.9113 -0.0218738
212 2 48.5735 10.9206 1.59481 48.5735 10.9206 1.59481
213 2 48.5499 10.9002 -1.66764 48.5499 10.9002 -1.66764
214 1 49.5127 12.5558 -0.0542806 49.5127 12.5558 -0.0542806
215 2 51.4483 12.5409 1.53442 51.4483 12.5409 1.53442
216 2 51.3774 12.5691 -1.72727 51.3774 12.5691 -1.72727
217 1 1.06444 14.2005 -0.10344 1.06444 14.2005 -0.10344
218 2 3.01994 14.1629 1.46043 3.01994 14.1629 1.46043
219 2 2.90816 14.2369 -1.79929 2.90816 14.2369 -1.79929
220 1 3.91492 15.8455 -0.165092 3.91492 15.8455 -0.165092
221 2 5.886 15.7893 1.37876 5.886 15.7893 1.37876
222 2 5.74192 15.9012 -1.87848 5.74192 15.9012 -1.87848
223 1 6.76175 14.2 -0.348659 6.76175 14.2 -0.348659
224 2 8.74634 14.152 1.1784 8.74634 14.152 1.1784
225 2 8.57411 14.2481 -2.07783 8.57411 14.2481 -2.07783
226 1 9.61086 15.8465 -0.45158 9.61086 15.8465 -0.45158
227 2 11.5957 15.7881 1.07513 11.5957 15.7881 1.07513
228 2 11.4234 15.9056 -2.18027 11.4234 15.9056 -2.18027
229 1 12.4572 14.2015 -0.662702 12.4572 14.2015 -0.662702
230 2 14.4304 14.1604 0.880267 14.4304 14.1604 0.880267
231 2 14.2837 14.2433 -2.37729 14.2837 14.2433 -2.37729
232 1 15.3079 15.8489 -0.749308 15.3079 15.8489 -0.749308
233 2 17.2664 15.8043 0.812407 17.2664 15.8043 0.812407
234 2 17.1508 15.8943 -2.44615 17.1508 15.8943 -2.44615
235 1 18.1584 14.203 -0.896681 18.1584 14.203 -0.896681
236 2 20.085 14.1823 0.705257 20.085 14.1823 0.705257
237 2 20.0358 14.224 -2.55584 20.0358 14.224 -2.55584
238 1 21.0117 15.8504 -0.918376 21.0117 15.8504 -0.918376
239 2 22.9148 15.8281 0.711623 22.9148 15.8281 0.711623
240 2 22.9132 15.8731 -2.54981 22.9132 15.8731 -2.54981
241 1 23.8651 14.2034 -0.942742 23.8651 14.2034 -0.942742
242 2 25.73 14.2067 0.731279 25.73 14.2067 0.731279
243 2 25.8041 14.2003 -2.52962 25.8041 14.2003 -2.52962
244 1 26.7183 15.8507 -0.880628 26.7183 15.8507 -0.880628
245 2 28.561 15.849 0.817545 28.561 15.849 0.817545
246 2 28.6776 15.8529 -2.44219 28.6776 15.8529 -2.44219
247 1 29.5694 14.2036 -0.78057 29.5694 14.2036 -0.78057
248 2 31.3853 14.2239 0.945888 31.3853 14.2239 0.945888
249 2 31.5525 14.184 -2.31153 31.5525 14.184 -2.31153
250 1 32.4197 15.8509 -0.654247 32.4197 15.8509 -0.654247
251 2 34.2261 15.8589 1.08182 34.2261 15.8589 1.08182
252 2 34.4105 15.8434 -2.17501 34.4105 15.8434 -2.17501
253 1 35.2667 14.2044 -0.48514 35.2667 14.2044 -0.48514
254 2 37.0716 14.2265 1.25189 37.0716 14.2265 1.25189
255 2 37.2582 14.1828 -2.00474 37.2582 14.1828 -2.00474
256 1 38.1153 15.851 -0.344459 38.1153 15.851 -0.344459
257 2 39.9288 15.8531 1.38334 39.9288 15.8531 1.38334
258 2 40.0987 15.8487 -1.87463 40.0987 15.8487 -1.87463
259 1 40.9623 14.2045 -0.193907 40.9623 14.2045 -0.193907
260 2 42.8005 14.2123 1.50717 42.8005 14.2123 1.50717
261 2 42.9231 14.196 -1.75301 42.9231 14.196 -1.75301
262 1 43.8125 15.8497 -0.0959624 43.8125 15.8497 -0.0959624
263 2 45.6727 15.833 1.58066 45.6727 15.833 1.58066
264 2 45.7525 15.865 -1.68078 45.7525 15.865 -1.68078
265 1 46.6623 14.2028 -0.0429509 46.6623 14.2028 -0.0429509
266 2 48.5603 14.1871 1.59051 48.5603 14.1871 1.59051
267 2 48.5654 14.2168 -1.67196 48.5654 14.2168 -1.67196
268 1 49.5139 15.8472 -0.0248367 49.5139 15.8472 -0.0248367
269 2 51.4365 15.8077 1.57928 51.4365 15.8077 1.57928
270 2 51.3923 15.885 -1.68206 51.3923 15.885 -1.68206
271 1 1.06607 17.4916 -0.025716 1.06607 17.4916 -0.025716
272 2 3.01144 17.4322 1.55022 3.01144 17.4322 1.55022
273 2 2.92086 17.5494 -1.70885 2.92086 17.5494 -1.70885
274 1 3.91719 19.136 -0.0468948 3.91719 19.136 -0.0468948
275 2 5.88215 19.0631 1.50424 5.88215 19.0631 1.50424
276 2 5.7512 19.208 -1.7522 5.7512 19.208 -1.7522
277 1 6.7648 17.491 -0.235655 6.7648 17.491 -0.235655
278 2 8.74648 17.4222 1.29438 8.74648 17.4222 1.29438
279 2 8.5804 17.56 -1.96069 8.5804 17.56 -1.96069
280 1 9.61423 19.137 -0.312068 9.61423 19.137 -0.312068
281 2 11.6009 19.062 1.21159 11.6009 19.062 1.21159
282 2 11.4246 19.2129 -2.04227 11.4246 19.2129 -2.04227
283 1 12.4603 17.4933 -0.543464 12.4603 17.4933 -0.543464
284 2 14.4398 17.43 0.990384 14.4398 17.43 0.990384
285 2 14.2793 17.5578 -2.26516 14.2793 17.5578 -2.26516
286 1 15.3103 19.1404 -0.619507 15.3103 19.1404 -0.619507
287 2 17.2783 19.076 0.929359 17.2783 19.076 0.929359
288 2 17.1424 19.2063 -2.32717 17.1424 19.2063 -2.32717
289 1 18.1596 17.4962 -0.804915 18.1596 17.4962 -0.804915
290 2 20.099 17.4504 0.780792 20.099 17.4504 0.780792
291 2 20.0233 17.5429 -2.47885 20.0233 17.5429 -2.47885
292 1 21.0123 19.1435 -0.82418 21.0123 19.1435 -0.82418
293 2 22.9282 19.0966 0.790023 22.9282 19.0966 0.790023
294 2 22.9004 19.1915 -2.47033 22.9004 19.1915 -2.47033
295 1 23.8653 17.4977 -0.896637 23.8653 17.4977 -0.896637
296 2 25.7434 17.4725 0.762062 25.7434 17.4725 0.762062
297 2 25.7913 17.5234 -2.49898 25.7913 17.5234 -2.49898
298 1 26.7185 19.1449 -0.828639 26.7185 19.1449 -0.828639
299 2 28.5718 19.1138 0.857616 28.5718 19.1138 0.857616
300 2 28.6678 19.1764 -2.40224 28.6678 19.1764 -2.40224
301 1 29.5703 17.498 -0.776284 29.5703 17.498 -0.776284
302 2 31.3942 17.4873 0.941805 31.3942 17.4873 0.941805
303 2 31.5463 17.509 -2.31652 31.5463 17.509 -2.31652
304 1 32.4207 19.1448 -0.632028 32.4207 19.1448 -0.632028
305 2 34.2309 19.1213 1.10001 34.2309 19.1213 1.10001
306 2 34.4083 19.1684 -2.1569 34.4083 19.1684 -2.1569
307 1 35.2687 17.4978 -0.500774 35.2687 17.4978 -0.500774
308 2 37.0724 17.4891 1.23767 37.0724 17.4891 1.23767
309 2 37.2613 17.5064 -2.01904 37.2613 17.5064 -2.01904
310 1 38.1168 19.1437 -0.327093 38.1168 19.1437 -0.327093
311 2 39.9258 19.116 1.40543 39.9258 19.116 1.40543
312 2 40.1045 19.1707 -1.85156 40.1045 19.1707 -1.85156
313 1 40.9641 17.4967 -0.198696 40.9641 17.4967 -0.198696
314 2 42.7928 17.4764 1.51258 42.7928 17.4764 1.51258
315 2 42.9336 17.5159 -1.74663 42.9336 17.5159 -1.74663
316 1 43.8135 19.1414 -0.0564156 43.8135 19.1414 -0.0564156
317 2 45.6636 19.0995 1.63113 45.6636 19.0995 1.63113
318 2 45.7632 19.1813 -1.62882 45.7632 19.1813 -1.62882
319 1 46.6633 17.4942 -0.0111887 46.6633 17.4942 -0.0111887
320 2 48.5487 17.4541 1.63663 48.5487 17.4541 1.63663
321 2 48.5792 17.5324 -1.62484 48.5792 17.5324 -1.62484
322 1 49.5149 19.1381 0.0538905 49.5149 19.1381 0.0538905
323 2 51.4269 19.0785 1.6702 51.4269 19.0785 1.6702
324 2 51.4044 19.1955 -1.59008 51.4044 19.1955 -1.59008
325 1 1.0674 20.7818 0.0922849 1.0674 20.7818 0.0922849
326 2 3.00559 20.7092 1.67683 3.00559 20.7092 1.67683
327 2 2.93031 20.8525 -1.58147 2.93031 20.8525 -1.58147
328 1 3.91907 22.4257 0.0980209 3.91907 22.4257 0.0980209
329 2 5.88055 22.3475 1.65365 5.88055 22.3475 1.65365
330 2 5.75738 22.5029 -1.60253 5.75738 22.5029 -1.60253
331 1 6.76765 20.7809 -0.0890884 6.76765 20.7809 -0.0890884
332 2 8.74748 20.7014 1.443 8.74748 20.7014 1.443
333 2 8.58552 20.8604 -1.81129 8.58552 20.8604 -1.81129
334 1 9.61727 22.4265 -0.151001 9.61727 22.4265 -0.151001
335 2 11.6056 22.3464 1.37037 11.6056 22.3464 1.37037
336 2 11.4259 22.5075 -1.88285 11.4259 22.5075 -1.88285
337 1 12.4634 20.7834 -0.390399 12.4634 20.7834 -0.390399
338 2 14.4483 20.7073 1.13585 14.4483 20.7073 1.13585
339 2 14.2761 20.8611 -2.11806 14.2761 20.8611 -2.11806
340 1 15.3128 22.4303 -0.463419 15.3128 22.4303 -0.463419
341 2 17.2878 22.3558 1.07589 17.2878 22.3558 1.07589
342 2 17.1367 22.507 -2.17919 17.1367 22.507 -2.17919
343 1 18.1612 20.7876 -0.672521 18.1612 20.7876 -0.672521
344 2 20.1111 20.7235 0.899437 20.1111 20.7235 0.899437
345 2 20.0132 20.8535 -2.35847 20.0132 20.8535 -2.35847
346 1 21.0131 22.4348 -0.692195 21.0131 22.4348 -0.692195
347 2 22.9384 22.3701 0.909911 22.9384 22.3701 0.909911
348 2 22.891 22.5014 -2.3491 22.891 22.5014 -2.3491
349 1 23.8655 20.7907 -0.800108 23.8655 20.7907 -0.800108
350 2 25.7545 20.7406 0.845394 25.7545 20.7406 0.845394
351 2 25.7803 20.8418 -2.41483 25.7803 20.8418 -2.41483
352 1 26.7183 22.4375 -0.725937 26.7183 22.4375 -0.725937
353 2 28.5795 22.3815 0.950812 28.5795 22.3815 0.950812
354 2 28.6598 22.4943 -2.30822 28.6598 22.4943 -2.30822
355 1 29.5705 20.7916 -0.712558 29.5705 20.7916 -0.712558
356 2 31.4013 20.7513 0.99769 31.4013 20.7513 0.99769
357 2 31.54 20.8323 -2.26033 31.54 20.8323 -2.26033
358 1 32.4207 22.4377 -0.549898 32.4207 22.4377 -0.549898
359 2 34.2344 22.3859 1.17782 34.2344 22.3859 1.17782
360 2 34.4049 22.4893 -2.07818 34.4049 22.4893 -2.07818
361 1 35.2695 20.7909 -0.452958 35.2695 20.7909 -0.452958
362 2 37.0735 20.7521 1.28499 37.0735 20.7521 1.28499
363 2 37.262 20.8291 -1.97085 37.262 20.8291 -1.97085
364 1 38.117 22.4357 -0.249045 38.117 22.4357 -0.249045
365 2 39.9243 22.3821 1.48482 39.9243 22.3821 1.48482
366 2 40.1063 22.488 -1.77066 40.1063 22.488 -1.77066
367 1 40.9649 20.7886 -0.143547 40.9649 20.7886 -0.143547
368 2 42.7876 20.7423 1.5739 42.7876 20.7423 1.5739
369 2 42.9401 20.8331 -1.68367 42.9401 20.8331 -1.68367
370 1 43.8136 22.4322 0.0353336 43.8136 22.4322 0.0353336
371 2 45.6584 22.3714 1.72855 45.6584 22.3714 1.72855
372 2 45.7688 22.4907 -1.52976 45.7688 22.4907 -1.52976
373 1 46.6639 20.785 0.0712095 46.6639 20.785 0.0712095
374 2 48.5405 20.7256 1.72875 48.5405 20.7256 1.72875
375 2 48.5887 20.842 -1.53124 48.5887 20.842 -1.53124
376 1 49.5154 22.4282 0.171442 49.5154 22.4282 0.171442
377 2 51.4214 22.3578 1.79488 51.4214 22.3578 1.79488
378 2 51.4117 22.4962 -1.46446 51.4117 22.4962 -1.46446
379 1 1.06828 24.0715 0.232296 1.06828 24.0715 0.232296
380 2 3.00356 23.9979 1.82082 3.00356 23.9979 1.82082
381 2 2.93495 24.1434 -1.43739 2.93495 24.1434 -1.43739
382 1 3.92034 25.7157 0.245312 3.92034 25.7157 0.245312
383 2 5.88147 25.646 1.80223 5.88147 25.646 1.80223
384 2 5.75964 25.7844 -1.45466 5.75964 25.7844 -1.45466
385 1 6.7699 24.0705 0.0681686 6.7699 24.0705 0.0681686
386 2 8.74931 23.9934 1.60124 8.74931 23.9934 1.60124
387 2 8.58863 24.1475 -1.65331 8.58863 24.1475 -1.65331
388 1 9.6195 25.7162 0.00510828 9.6195 25.7162 0.00510828
389 2 11.6088 25.6447 1.52574 11.6088 25.6447 1.52574
390 2 11.427 25.7885 -1.72819 11.427 25.7885 -1.72819
391 1 12.4662 24.0728 -0.227119 12.4662 24.0728 -0.227119
392 2 14.4545 23.996 1.29463 14.4545 23.996 1.29463
393 2 14.2748 24.1514 -1.95888 14.2748 24.1514 -1.95888
394 1 15.3149 25.7197 -0.305775 15.3149 25.7197 -0.305775
395 2 17.2931 25.6471 1.22939 17.2931 25.6471 1.22939
396 2 17.1347 25.7947 -2.02565 17.1347 25.7947 -2.02565
397 1 18.1629 24.0775 -0.51916 18.1629 24.0775 -0.51916
398 2 20.1193 24.0047 1.044 20.1193 24.0047 1.044
399 2 20.0072 24.1527 -2.21284 20.0072 24.1527 -2.21284
400 1 21.0139 25.7246 -0.542181 21.0139 25.7246 -0.542181
401 2 22.9437 25.652 1.05385 22.9437 25.652 1.05385
402 2 22.8863 25.7998 -2.20448 22.8863 25.7998 -2.20448
403 1 23.8656 24.0818 -0.666917 23.8656 24.0818 -0.666917
404 2 25.7616 24.0143 0.969703 25.7616 24.0143 0.969703
405 2 25.7729 24.1511 -2.28946 25.7729 24.1511 -2.28946
406 1 26.7178 25.7283 -0.587271 26.7178 25.7283 -0.587271
407 2 28.5831 25.6559 1.08401 28.5831 25.6559 1.08401
408 2 28.6547 25.802 -2.17405 28.6547 25.802 -2.17405
409 1 29.57 24.0836 -0.598162 29.57 24.0836 -0.598162
410 2 31.4056 24.0197 1.10605 31.4056 24.0197 1.10605
411 2 31.5346 24.1481 -2.15093 31.5346 24.1481 -2.15093
412 1 32.4195 25.7288 -0.419748 32.4195 25.7288 -0.419748
413 2 34.2363 25.657 1.30401 34.2363 25.657 1.30401
414 2 34.4007 25.8004 -1.95083 34.4007 25.8004 -1.95083
415 1 35.2689 24.0826 -0.348114 35.2689 24.0826 -0.348114
416 2 37.0745 24.0197 1.38751 37.0745 24.0197 1.38751
417 2 37.2599 24.1446 -1.86701 37.2599 24.1446 -1.86701
418 1 38.1158 25.7263 -0.12237 38.1158 25.7263 -0.12237
419 2 39.9248 25.6559 1.60923 39.9248 25.6559 1.60923
420 2 40.1036 25.795 -1.64512 40.1036 25.795 -1.64512
421 1 40.9644 24.0793 -0.0362825 40.9644 24.0793 -0.0362825
422 2 42.7856 24.0147 1.68242 42.7856 24.0147 1.68242
423 2 42.9413 24.1419 -1.57367 42.9413 24.1419 -1.57367
424 1 43.8128 25.7221 0.164148 43.8128 25.7221 0.164148
425 2 45.6579 25.6533 1.857 45.6579 25.6533 1.857
426 2 45.7682 25.7886 -1.40054 45.7682 25.7886 -1.40054
427 1 46.6637 24.0751 0.191834 46.6637 24.0751 0.191834
428 2 48.5371 24.0064 1.85312 48.5371 24.0064 1.85312
429 2 48.5924 24.1413 -1.40588 48.5924 24.1413 -1.40588
430 1 49.5155 25.7181 0.307958 49.5155 25.7181 0.307958
431 2 51.4209 25.6495 1.9326 51.4209 25.6495 1.9326
432 2 51.4131 25.7845 -1.32673 51.4131 25.7845 -1.32673
433 1 1.0687 27.362 0.36903 1.0687 27.362 0.36903
434 2 3.00565 27.3011 1.95655 3.00565 27.3011 1.95655
435 2 2.93432 27.4214 -1.30248 2.93432 27.4214 -1.30248
436 1 3.92091 29.0072 0.367289 3.92091 29.0072 0.367289
437 2 5.88447 28.9593 1.92234 5.88447 28.9593 1.92234
438 2 5.75804 29.0543 -1.33584 5.75804 29.0543 -1.33584
439 1 6.77125 27.3611 0.208363 6.77125 27.3611 0.208363
440 2 8.75137 27.3004 1.74158 8.75137 27.3004 1.74158
441 2 8.58954 27.4216 -1.51426 8.58954 27.4216 -1.51426
442 1 9.62047 29.0075 0.127941 9.62047 29.0075 0.127941
443 2 11.6096 28.9576 1.64986 11.6096 28.9576 1.64986
444 2 11.4282 29.0577 -1.60575 11.4282 29.0577 -1.60575
445 1 12.4679 27.3628 -0.0814011 12.4679 27.3628 -0.0814011
446 2 14.4568 27.2985 1.44024 14.4568 27.2985 1.44024
447 2 14.2757 27.4287 -1.81438 14.2757 27.4287 -1.81438
448 1 15.3159 29.01 -0.173898 15.3159 29.01 -0.173898
449 2 17.2925 28.9518 1.36384 17.2925 28.9518 1.36384
450 2 17.137 29.0701 -1.89267 17.137 29.0701 -1.89267
451 1 18.1641 27.367 -0.36953 18.1641 27.367 -0.36953
452 2 20.1218 27.2973 1.19191 20.1218 27.2973 1.19191
453 2 20.0062 27.4393 -2.06526 20.0062 27.4393 -2.06526
454 1 21.0143 29.0142 -0.39852 21.0143 29.0142 -0.39852
455 2 22.9427 28.9456 1.19907 22.9427 28.9456 1.19907
456 2 22.8872 29.0855 -2.05984 22.8872 29.0855 -2.05984
457 1 23.8656 27.3715 -0.517225 23.8656 27.3715 -0.517225
458 2 25.7634 27.2971 1.11663 25.7634 27.2971 1.11663
459 2 25.7702 27.4484 -2.14209 25.7702 27.4484 -2.14209
460 1 26.7169 29.0179 -0.43412 26.7169 29.0179 -0.43412
461 2 28.5821 28.9408 1.23681 28.5821 28.9408 1.23681
462 2 28.653 29.0966 -2.02098 28.653 29.0966 -2.02098
463 1 29.5687 27.3739 -0.450116 29.5687 27.3739 -0.450116
464 2 31.4066 27.2965 1.25084 31.4066 27.2965 1.25084
465 2 31.5306 27.452 -2.00527 31.5306 27.452 -2.00527
466 1 32.4173 29.0185 -0.262212 32.4173 29.0185 -0.262212
467 2 34.2366 28.9389 1.45845 34.2366 28.9389 1.45845
468 2 34.3959 29.0978 -1.79599 34.3959 29.0978 -1.79599
469 1 35.267 27.3728 -0.202753 35.267 27.3728 -0.202753
470 2 37.0758 27.2965 1.52897 37.0758 27.2965 1.52897
471 2 37.255 27.4479 -1.72477 37.255 27.4479 -1.72477
472 1 38.1133 29.0159 0.0312418 38.1133 29.0159 0.0312418
473 2 39.9278 28.9417 1.75716 39.9278 28.9417 1.75716
474 2 40.0965 29.0885 -1.49732 40.0965 29.0885 -1.49732
475 1 40.9627 27.3691 0.104763 40.9627 27.3691 0.104763
476 2 42.7876 27.298 1.81957 42.7876 27.298 1.81957
477 2 42.9367 27.4382 -1.43618 42.9367 27.4382 -1.43618
478 1 43.8113 29.012 0.306335 43.8113 29.012 0.306335
479 2 45.6628 28.9485 1.9928 45.6628 28.9485 1.9928
480 2 45.7613 29.0737 -1.26536 45.7613 29.0737 -1.26536
481 1 46.6631 27.365 0.328998 46.6631 27.365 0.328998
482 2 48.5394 27.3001 1.98759 48.5394 27.3001 1.98759
483 2 48.5896 27.4278 -1.2716 48.5896 27.4278 -1.2716
484 1 49.5152 29.0088 0.437466 49.5152 29.0088 0.437466
485 2 51.4256 28.9556 2.05731 51.4256 28.9556 2.05731
486 2 51.4085 29.0606 -1.20292 51.4085 29.0606 -1.20292
487 1 1.06876 30.6541 0.475612 1.06876 30.6541 0.475612
488 2 3.01132 30.6181 2.05737 3.01132 30.6181 2.05737
489 2 2.92896 30.6892 -1.20274 2.92896 30.6892 -1.20274
490 1 3.92073 32.3006 0.439591 3.92073 32.3006 0.439591
491 2 5.88873 32.2841 1.98988 5.88873 32.2841 1.98988
492 2 5.75321 32.3164 -1.26911 5.75321 32.3164 -1.26911
493 1 6.77149 30.6536 0.304609 6.77149 30.6536 0.304609
494 2 8.75287 30.6209 1.83725 8.75287 30.6209 1.83725
495 2 8.58851 30.6858 -1.42004 8.58851 30.6858 -1.42004
496 1 9.61998 32.3005 0.193708 9.61998 32.3005 0.193708
497 2 11.6073 32.2821 1.71868 11.6073 32.2821 1.71868
498 2 11.4296 32.3188 -1.5385 11.4296 32.3188 -1.5385
499 1 12.4682 30.6545 0.0199179 12.4682 30.6545 0.0199179
500 2 14.4542 30.6145 1.54614 14.4542 30.6145 1.54614
501 2 14.2789 30.6952 -1.71048 14.2789 30.6952 -1.71048
502 1 15.3156 32.3017 -0.0923684 15.3156 32.3017 -0.0923684
503 2 17.2857 32.2689 1.45437 17.2857 32.2689 1.45437
504 2 17.1434 32.3356 -1.80432 17.1434 32.3356 -1.80432
505 1 18.1645 30.6573 -0.249837 18.1645 30.6573 -0.249837
506 2 20.1175 30.603 1.3178 20.1175 30.603 1.3178
507 2 20.0109 30.7138 -1.94104 20.0109 30.7138 -1.94104
508 1 21.014 32.3046 -0.286614 21.014 32.3046 -0.286614
509 2 22.935 32.2522 1.32032 22.935 32.2522 1.32032
510 2 22.8939 32.3592 -1.94021 22.8939 32.3592 -1.94021
511 1 23.8651 30.6611 -0.375686 23.8651 30.6611 -0.375686
512 2 25.7593 30.5922 1.26239 25.7593 30.5922 1.26239
513 2 25.7725 30.7324 -1.99699 25.7725 30.7324 -1.99699
514 1 26.7154 32.3075 -0.292404 26.7154 32.3075 -0.292404
515 2 28.5763 32.2393 1.38346 28.5763 32.2393 1.38346
516 2 28.6549 32.3773 -1.87509 28.6549 32.3773 -1.87509
517 1 29.5667 30.6633 -0.292425 29.5667 30.6633 -0.292425
518 2 31.4044 30.5857 1.40856 31.4044 30.5857 1.40856
519 2 31.5282 30.7416 -1.84765 31.5282 30.7416 -1.84765
520 1 32.4143 32.308 -0.104307 32.4143 32.308 -0.104307
521 2 34.2356 32.235 1.61447 34.2356 32.235 1.61447
522 2 34.3908 32.3808 -1.64082 34.3908 32.3808 -1.64082
523 1 35.264 30.6622 -0.0416405 35.264 30.6622 -0.0416405
524 2 37.0777 30.5865 1.68506 37.0777 30.5865 1.68506
525 2 37.2476 30.737 -1.56921 37.2476 30.737 -1.56921
526 1 38.1103 32.3058 0.184081 38.1103 32.3058 0.184081
527 2 39.9331 32.2417 1.9016 39.9331 32.2417 1.9016
528 2 40.0861 32.3688 -1.35441 40.0861 32.3688 -1.35441
529 1 40.9604 30.659 0.253788 40.9604 30.659 0.253788
530 2 42.7938 30.595 1.96 42.7938 30.595 1.96
531 2 42.927 30.7214 -1.29689 42.927 30.7214 -1.29689
532 1 43.8097 32.303 0.434792 43.8097 32.303 0.434792
533 2 45.6725 32.2571 2.10964 45.6725 32.2571 2.10964
534 2 45.7496 32.3479 -1.15012 45.7496 32.3479 -1.15012
535 1 46.6622 30.6559 0.456185 46.6622 30.6559 0.456185
536 2 48.5471 30.6077 2.10599 48.5471 30.6077 2.10599
537 2 48.581 30.7028 -1.15438 48.581 30.7028 -1.15438