ITEM: TIMESTEP
61000
ITEM: NUMBER OF ATOMS
810
ITEM: BOX BOUNDS pp pp pp
8.5831033815195834e-01 5.2159294661846531e+01
8.3247641652967108e-01 5.0183738583469896e+01
-1.0000000000000000e+01 1.0000000000000000e+01
ITEM: ATOMS id type x y z xu yu zu
1 1 1.06545 1.05241 -0.516996 1.06545 1.05241 -0.516996
2 2 2.89651 0.944918 1.19003 2.89651 0.944918 1.19003
3 2 3.03398 1.15869 -2.06219 3.03398 1.15869 -2.06219
4 1 3.91386 2.6937 -0.287471 3.91386 2.6937 -0.287471
5 2 5.72728 2.59044 1.43832 5.72728 2.59044 1.43832
6 2 5.89771 2.79562 -1.81297 5.89771 2.79562 -1.81297
7 1 6.7631 1.04826 -0.241436 6.7631 1.04826 -0.241436
8 2 8.5659 0.944991 1.49539 8.5659 0.944991 1.49539
9 2 8.75662 1.14994 -1.75474 8.75662 1.14994 -1.75474
10 1 9.60908 2.68901 0.0300018 9.60908 2.68901 0.0300018
11 2 11.4207 2.59258 1.75785 11.4207 2.59258 1.75785
12 2 11.5949 2.78445 -1.49396 11.5949 2.78445 -1.49396
13 1 12.4584 1.04333 0.0855609 12.4584 1.04333 0.0855609
14 2 14.2841 0.945631 1.79826 14.2841 0.945631 1.79826
15 2 14.4318 1.14025 -1.45473 14.4318 1.14025 -1.45473
16 1 15.3071 2.68516 0.313521 15.3071 2.68516 0.313521
17 2 17.1617 2.59491 1.9955 17.1617 2.59491 1.9955
18 2 17.2546 2.77534 -1.26021 17.2546 2.77534 -1.26021
19 1 18.1593 1.0403 0.30337 18.1593 1.0403 0.30337
20 2 20.0413 0.946318 1.95402 20.0413 0.946318 1.95402
21 2 20.0804 1.13428 -1.30245 20.0804 1.13428 -1.30245
22 1 21.0118 2.68363 0.432281 21.0118 2.68363 0.432281
23 2 22.9265 2.59498 2.04553 22.9265 2.59498 2.04553
24 2 22.9009 2.77258 -1.21153 22.9009 2.77258 -1.21153
25 1 23.8646 1.03978 0.319634 23.8646 1.03978 0.319634
26 2 25.8061 0.944508 1.89973 25.8061 0.944508 1.89973
27 2 25.7253 1.13531 -1.35581 25.7253 1.13531 -1.35581
28 1 26.7171 2.68414 0.34487 26.7171 2.68414 0.34487
29 2 28.6818 2.59143 1.8965 28.6818 2.59143 1.8965
30 2 28.5532 2.7772 -1.35771 28.5532 2.7772 -1.35771
31 1 29.5669 1.04137 0.137848 29.5669 1.04137 0.137848
32 2 31.5478 0.940275 1.66785 31.5478 0.940275 1.66785
33 2 31.3844 1.143 -1.58388 31.3844 1.143 -1.58388
34 1 32.417 2.68635 0.0968733 32.417 2.68635 0.0968733
35 2 34.4054 2.5865 1.61737 34.4054 2.5865 1.61737
36 2 34.2259 2.78702 -1.63365 34.2259 2.78702 -1.63365
37 1 35.2637 1.04485 -0.162003 35.2637 1.04485 -0.162003
38 2 37.2518 0.937462 1.35835 37.2518 0.937462 1.35835
39 2 37.0728 1.15351 -1.89172 37.0728 1.15351 -1.89172
40 1 38.113 2.6902 -0.209481 38.113 2.6902 -0.209481
41 2 40.0901 2.58414 1.32522 40.0901 2.58414 1.32522
42 2 39.934 2.7978 -1.92627 39.934 2.7978 -1.92627
43 1 40.9606 1.04954 -0.454191 40.9606 1.04954 -0.454191
44 2 42.9173 0.939114 1.10636 42.9173 0.939114 1.10636
45 2 42.8044 1.16143 -2.14623 42.8044 1.16143 -2.14623
46 1 43.8117 2.6944 -0.440192 43.8117 2.6944 -0.440192
47 2 45.7408 2.58565 1.15445 45.7408 2.58565 1.15445
48 2 45.6843 2.80437 -2.09998 45.6843 2.80437 -2.09998
49 1 46.6628 1.05291 -0.599884 46.6628 1.05291 -0.599884
50 2 48.5575 0.942927 1.03599 48.5575 0.942927 1.03599
51 2 48.5712 1.16318 -2.21865 48.5712 1.16318 -2.21865
52 1 49.5146 2.69607 -0.475614 49.5146 2.69607 -0.475614
53 2 51.3772 2.58842 1.19667 51.3772 2.58842 1.19667
54 2 51.4534 2.80347 -2.0576 51.4534 2.80347 -2.0576
55 1 1.06361 4.33838 -0.299074 1.06361 4.33838 -0.299074
56 2 2.89965 4.23885 1.40271 2.89965 4.23885 1.40271
57 2 3.02655 4.43726 -1.85112 3.02655 4.43726 -1.85112
58 1 3.91147 5.98057 -0.0863062 3.91147 5.98057 -0.0863062
59 2 5.7314 5.89554 1.63339 5.7314 5.89554 1.63339
60 2 5.88884 6.06491 -1.62072 5.88884 6.06491 -1.62072
61 1 6.76038 4.33487 -0.0333515 6.76038 4.33487 -0.0333515
62 2 8.5698 4.24254 1.69713 8.5698 4.24254 1.69713
63 2 8.74773 4.42622 -1.55502 8.74773 4.42622 -1.55502
64 1 9.60674 5.97708 0.216393 9.60674 5.97708 0.216393
65 2 11.426 5.90128 1.93739 11.426 5.90128 1.93739
66 2 11.5858 6.05251 -1.31724 11.5858 6.05251 -1.31724
67 1 12.4562 4.33083 0.280198 12.4562 4.33083 0.280198
68 2 14.2888 4.24668 1.98663 14.2888 4.24668 1.98663
69 2 14.4239 4.41475 -1.26824 14.4239 4.41475 -1.26824
70 1 15.3059 5.97441 0.483984 15.3059 5.97441 0.483984
71 2 17.1664 5.90592 2.16074 17.1664 5.90592 2.16074
72 2 17.2483 6.04318 -1.0972 17.2483 6.04318 -1.0972
73 1 18.1585 4.32853 0.486227 18.1585 4.32853 0.486227
74 2 20.0452 4.249 2.1329 20.0452 4.249 2.1329
75 2 20.0759 4.40839 -1.12495 20.0759 4.40839 -1.12495
76 1 21.0117 5.97344 0.593742 21.0117 5.97344 0.593742
77 2 22.929 5.90661 2.20542 22.929 5.90661 2.20542
78 2 22.8989 6.04065 -1.05348 22.8989 6.04065 -1.05348
79 1 23.8651 4.32818 0.499445 23.8651 4.32818 0.499445
80 2 25.8079 4.24729 2.07936 25.8079 4.24729 2.07936
81 2 25.7254 4.40939 -1.17748 25.7254 4.40939 -1.17748
82 1 26.718 5.97375 0.508968 26.718 5.97375 0.508968
83 2 28.6823 5.90314 2.06267 28.6823 5.90314 2.06267
84 2 28.5551 6.04459 -1.19368 28.5551 6.04459 -1.19368
85 1 29.5686 4.32929 0.325901 29.5686 4.32929 0.325901
86 2 31.5484 4.24235 1.85859 31.5484 4.24235 1.85859
87 2 31.3878 4.41663 -1.39483 31.3878 4.41663 -1.39483
88 1 32.4189 5.97511 0.273332 32.4189 5.97511 0.273332
89 2 34.4055 5.89765 1.79767 34.4055 5.89765 1.79767
90 2 34.2298 6.05311 -1.45602 34.2298 6.05311 -1.45602
91 1 35.2663 4.33182 0.0410803 35.2663 4.33182 0.0410803
92 2 37.253 4.23732 1.56407 37.253 4.23732 1.56407
93 2 37.0766 4.42743 -1.68784 37.0766 4.42743 -1.68784
94 1 38.1151 5.9777 -0.0169266 38.1151 5.9777 -0.0169266
95 2 40.0907 5.89251 1.52084 40.0907 5.89251 1.52084
96 2 39.9371 6.06418 -1.7334 39.9371 6.06418 -1.7334
97 1 40.9626 4.33559 -0.237744 40.9626 4.33559 -0.237744
98 2 42.9197 4.23507 1.32269 42.9197 4.23507 1.32269
99 2 42.805 4.43768 -1.93136 42.805 4.43768 -1.93136
100 1 43.8128 5.98086 -0.234977 43.8128 5.98086 -0.234977
101 2 45.7426 5.89016 1.35957 45.7426 5.89016 1.35957
102 2 45.6834 6.07285 -1.8973 45.6834 6.07285 -1.8973
103 1 46.6631 4.33862 -0.378314 46.6631 4.33862 -0.378314
104 2 48.5605 4.23614 1.25428 48.5605 4.23614 1.25428
105 2 48.5673 4.44183 -2.00163 48.5673 4.44183 -2.00163
106 1 49.5137 5.98231 -0.267236 49.5137 5.98231 -0.267236
107 2 51.3801 5.8914 1.40144 51.3801 5.8914 1.40144
108 2 51.4477 6.07342 -1.85527 51.4477 6.07342 -1.85527
109 1 1.0619 7.62591 -0.114593 1.0619 7.62591 -0.114593
110 2 2.90312 7.55227 1.5826 2.90312 7.55227 1.5826
111 2 3.01924 7.69937 -1.67451 3.01924 7.69937 -1.67451
112 1 3.90959 9.27005 0.0629189 3.90959 9.27005 0.0629189
113 2 5.73611 9.21872 1.77679 5.73611 9.21872 1.77679
114 2 5.88058 9.32111 -1.48079 5.88058 9.32111 -1.48079
115 1 6.75811 7.62359 0.138517 6.75811 7.62359 0.138517
116 2 8.57523 7.55855 1.8621 8.57523 7.55855 1.8621
117 2 8.73837 7.68823 -1.39343 8.73837 7.68823 -1.39343
118 1 9.60519 9.26811 0.348083 9.60519 9.26811 0.348083
119 2 11.432 9.22621 2.06232 11.432 9.22621 2.06232
120 2 11.5775 9.30995 -1.19538 11.5775 9.30995 -1.19538
121 1 12.4547 7.62104 0.433691 12.4547 7.62104 0.433691
122 2 14.2943 7.56513 2.13387 14.2943 7.56513 2.13387
123 2 14.4162 7.67709 -1.12383 14.4162 7.67709 -1.12383
124 1 15.3052 9.26676 0.597595 15.3052 9.26676 0.597595
125 2 17.1709 9.23168 2.2699 17.1709 9.23168 2.2699
126 2 17.2431 9.30212 -0.990281 17.2431 9.30212 -0.990281
127 1 18.158 7.61973 0.625377 18.158 7.61973 0.625377
128 2 20.0486 7.56837 2.26898 20.0486 7.56837 2.26898
129 2 20.0721 7.67148 -0.991034 20.0721 7.67148 -0.991034
130 1 21.0116 9.26632 0.698199 21.0116 9.26632 0.698199
131 2 22.9306 9.23265 2.30922 22.9306 9.23265 2.30922
132 2 22.8976 9.3002 -0.95159 22.8976 9.3002 -0.95159
133 1 23.8654 7.61954 0.635169 23.8654 7.61954 0.635169
134 2 25.8089 7.56703 2.21588 25.8089 7.56703 2.21588
135 2 25.7256 7.67226 -1.04312 25.7256 7.67226 -1.04312
136 1 26.7185 9.26641 0.615501 26.7185 9.26641 0.615501
137 2 28.6821 9.23025 2.17145 28.6821 9.23025 2.17145
138 2 28.5565 9.30261 -1.08715 28.5565 9.30261 -1.08715
139 1 29.5697 7.62009 0.469112 29.5697 7.62009 0.469112
140 2 31.5481 7.56276 2.00526 31.5481 7.56276 2.00526
141 2 31.3907 7.67759 -1.25089 31.3907 7.67759 -1.25089
142 1 32.4198 9.26696 0.389608 32.4198 9.26696 0.389608
143 2 34.4044 9.22594 1.9181 34.4044 9.22594 1.9181
144 2 34.233 9.30819 -1.33849 34.233 9.30819 -1.33849
145 1 35.2679 7.62149 0.198504 35.2679 7.62149 0.198504
146 2 37.2523 7.55706 1.72607 37.2523 7.55706 1.72607
147 2 37.0805 7.68662 -1.52911 37.0805 7.68662 -1.52911
148 1 38.1162 9.26823 0.114241 38.1162 9.26823 0.114241
149 2 40.089 9.21978 1.65714 40.089 9.21978 1.65714
150 2 39.9409 9.31744 -1.60052 39.9409 9.31744 -1.60052
151 1 40.964 7.62383 -0.0639146 40.964 7.62383 -0.0639146
152 2 42.9196 7.55165 1.49981 42.9196 7.55165 1.49981
153 2 42.8073 7.69725 -1.75756 42.8073 7.69725 -1.75756
154 1 43.8133 9.27002 -0.0875818 43.8133 9.27002 -0.0875818
155 2 45.7419 9.21439 1.50992 45.7419 9.21439 1.50992
156 2 45.6845 9.32662 -1.75035 45.6845 9.32662 -1.75035
157 1 46.6631 7.62595 -0.193286 46.6631 7.62595 -0.193286
158 2 48.5619 7.54963 1.43876 48.5619 7.54963 1.43876
159 2 48.5648 7.70309 -1.82026 48.5648 7.70309 -1.82026
160 1 49.5129 9.27099 -0.11177 49.5129 9.27099 -0.11177
161 2 51.3818 9.21378 1.55518 51.3818 9.21378 1.55518
162 2 51.4435 9.32853 -1.70488 51.4435 9.32853 -1.70488
163 1 1.06066 10.9163 0.00176128 1.06066 10.9163 0.00176128
164 2 2.90598 10.8824 1.69556 2.90598 10.8824 1.69556
165 2 3.01373 10.9502 -1.56453 3.01373 10.9502 -1.56453
166 1 3.90859 12.5622 0.131827 3.90859 12.5622 0.131827
167 2 5.74008 12.5538 1.84104 5.74008 12.5538 1.84104
168 2 5.87492 12.5703 -1.41854 5.87492 12.5703 -1.41854
169 1 6.75673 10.9153 0.242523 6.75673 10.9153 0.242523
170 2 8.58076 10.889 1.95976 8.58076 10.889 1.95976
171 2 8.73065 10.9413 -1.29858 8.73065 10.9413 -1.29858
172 1 9.60465 12.5616 0.40123 9.60465 12.5616 0.40123
173 2 11.4371 12.5604 2.10991 11.4371 12.5604 2.10991
174 2 11.5719 12.5625 -1.14931 11.5719 12.5625 -1.14931
175 1 12.4541 10.9142 0.518766 12.4541 10.9142 0.518766
176 2 14.2995 10.8958 2.21355 14.2995 10.8958 2.21355
177 2 14.4103 10.9326 -1.0462 14.4103 10.9326 -1.0462
178 1 15.3052 12.5613 0.634921 15.3052 12.5613 0.634921
179 2 17.1741 12.5649 2.30407 17.1741 12.5649 2.30407
180 2 17.2401 12.5575 -0.956975 17.2401 12.5575 -0.956975
181 1 18.1579 10.9137 0.696797 18.1579 10.9137 0.696797
182 2 20.0511 10.8989 2.33834 20.0511 10.8989 2.33834
183 2 20.0696 10.9286 -0.923133 20.0696 10.9286 -0.923133
184 1 21.0117 12.5612 0.728233 21.0117 12.5612 0.728233
185 2 22.9312 12.566 2.33902 22.9312 12.566 2.33902
186 2 22.8971 12.5562 -0.922433 22.8971 12.5562 -0.922433
187 1 23.8655 10.9136 0.703545 23.8655 10.9136 0.703545
188 2 25.809 10.8984 2.28518 25.809 10.8984 2.28518
189 2 25.7258 10.9288 -0.975317 25.7258 10.9288 -0.975317
190 1 26.7185 12.5611 0.646263 26.7185 12.5611 0.646263
191 2 28.6815 12.5656 2.20343 28.6815 12.5656 2.20343
192 2 28.5572 12.5564 -1.05599 28.5572 12.5564 -1.05599
193 1 29.57 10.9137 0.542368 29.57 10.9137 0.542368
194 2 31.5472 10.8962 2.0812 31.5472 10.8962 2.0812
195 2 31.3925 10.9311 -1.17689 31.3925 10.9311 -1.17689
196 1 32.4197 12.561 0.425007 32.4197 12.561 0.425007
197 2 34.4026 12.5638 1.9563 34.4026 12.5638 1.9563
198 2 34.2349 12.5581 -1.30152 34.2349 12.5581 -1.30152
199 1 35.2684 10.9141 0.281761 35.2684 10.9141 0.281761
200 2 37.2501 10.8917 1.81403 37.2501 10.8917 1.81403
201 2 37.0839 10.9368 -1.44375 37.0839 10.9368 -1.44375
202 1 38.1163 12.5611 0.159808 38.1163 12.5611 0.159808
203 2 40.0855 12.5585 1.70793 40.0855 12.5585 1.70793
204 2 39.9446 12.564 -1.55155 39.9446 12.564 -1.55155
205 1 40.9645 10.9151 0.0348806 40.9645 10.9151 0.0348806
206 2 42.9169 10.8849 1.60388 42.9169 10.8849 1.60388
207 2 42.8107 10.9459 -1.65649 42.8107 10.9459 -1.65649
208 1 43.8133 12.5617 -0.0260323 43.8133 12.5617 -0.0260323
209 2 45.7387 12.5519 1.57609 45.7387 12.5519 1.57609
210 2 45.6874 12.5721 -1.68622 45.6874 12.5721 -1.68622
211 1 46.6629 10.9162 -0.0796906 46.6629 10.9162 -0.0796906
212 2 48.5612 10.8806 1.55414 48.5612 10.8806 1.55414
213 2 48.5645 10.9523 -1.70784 48.5645 10.9523 -1.70784
214 1 49.5122 12.5623 -0.0390722 49.5122 12.5623 -0.0390722
215 2 51.382 12.5497 1.62777 51.382 12.5497 1.62777
216 2 51.4418 12.5751 -1.6343 51.4418 12.5751 -1.6343
217 1 1.06013 14.2086 0.027512 1.06013 14.2086 0.027512
218 2 2.90744 14.2206 1.71936 2.90744 14.2206 1.71936
219 2 3.01128 14.1964 -1.54148 3.01128 14.1964 -1.54148
220 1 3.9086 15.855 0.107467 3.9086 15.855 0.107467
221 2 5.74223 15.8906 1.814 5.74223 15.8906 1.814
222 2 5.87305 15.8187 -1.44498 5.87305 15.8187 -1.44498
223 1 6.75644 14.2086 0.259407 6.75644 14.2086 0.259407
224 2 8.58486 14.2253 1.97202 8.58486 14.2253 1.97202
225 2 8.72635 14.1914 -1.28694 8.72635 14.1914 -1.28694
226 1 9.6051 15.8554 0.367037 9.6051 15.8554 0.367037
227 2 11.44 15.8942 2.07251 11.44 15.8942 2.07251
228 2 11.5699 15.8159 -1.186 11.5699 15.8159 -1.186
229 1 12.4543 14.2086 0.521058 12.4543 14.2086 0.521058
230 2 14.3029 14.23 2.21222 14.3029 14.23 2.21222
231 2 14.4074 14.1867 -1.04768 14.4074 14.1867 -1.04768
232 1 15.3057 15.8557 0.59108 15.3057 15.8557 0.59108
233 2 17.1753 15.8964 2.25879 17.1753 15.8964 2.25879
234 2 17.2396 15.8144 -1.00133 17.2396 15.8144 -1.00133
235 1 18.1581 14.2086 0.689277 18.1581 14.2086 0.689277
236 2 20.0521 14.2322 2.32974 20.0521 14.2322 2.32974
237 2 20.0689 14.1848 -0.931551 20.0689 14.1848 -0.931551
238 1 21.0118 15.8558 0.680198 21.0118 15.8558 0.680198
239 2 22.9308 15.8977 2.29079 22.9308 15.8977 2.29079
240 2 22.8973 15.8135 -0.969668 22.8973 15.8135 -0.969668
241 1 23.8654 14.2086 0.693589 23.8654 14.2086 0.693589
242 2 25.8086 14.233 2.27547 25.8086 14.233 2.27547
243 2 25.7259 14.184 -0.984835 25.7259 14.184 -0.984835
244 1 26.718 15.8555 0.596616 26.718 15.8555 0.596616
245 2 28.6808 15.8996 2.15333 28.6808 15.8996 2.15333
246 2 28.5568 15.8111 -1.10496 28.5568 15.8111 -1.10496
247 1 29.5696 14.2083 0.533046 29.5696 14.2083 0.533046
248 2 31.5461 14.2336 2.07267 31.5461 14.2336 2.07267
249 2 31.3928 14.1828 -1.1853 31.3928 14.1828 -1.1853
250 1 32.4188 15.8548 0.373527 32.4188 15.8548 0.373527
251 2 34.4006 15.9008 1.90543 34.4006 15.9008 1.90543
252 2 34.235 15.8086 -1.35123 34.235 15.8086 -1.35123
253 1 35.2679 14.2078 0.275873 35.2679 14.2078 0.275873
254 2 37.2471 14.2315 1.81134 37.2471 14.2315 1.81134
255 2 37.086 14.1841 -1.44669 37.086 14.1841 -1.44669
256 1 38.1153 15.854 0.111698 38.1153 15.854 0.111698
257 2 40.0811 15.8977 1.66367 40.0811 15.8977 1.66367
258 2 39.9476 15.8103 -1.59495 39.9476 15.8103 -1.59495
259 1 40.9642 14.2077 0.0401869 40.9642 14.2077 0.0401869
260 2 42.9123 14.2255 1.61457 42.9123 14.2255 1.61457
261 2 42.8148 14.1903 -1.64647 42.8148 14.1903 -1.64647
262 1 43.8128 15.8539 -0.0617919 43.8128 15.8539 -0.0617919
263 2 45.734 15.8918 1.54503 45.734 15.8918 1.54503
264 2 45.6914 15.8162 -1.71656 45.6914 15.8162 -1.71656
265 1 46.6626 14.2082 -0.0593717 46.6626 14.2082 -0.0593717
266 2 48.5586 14.2202 1.57747 48.5586 14.2202 1.57747
267 2 48.5664 14.1965 -1.68521 48.5664 14.1965 -1.68521
268 1 49.512 15.8544 -0.0631265 49.512 15.8544 -0.0631265
269 2 51.3806 15.8888 1.60474 51.3806 15.8888 1.60474
270 2 51.4428 15.8199 -1.65662 51.4428 15.8199 -1.65662
271 1 1.06038 17.5004 -0.0422258 1.06038 17.5004 -0.0422258
272 2 2.90717 17.5559 1.64939 2.90717 17.5559 1.64939
273 2 3.01233 17.4444 -1.60953 3.01233 17.4444 -1.60953
274 1 3.90956 19.146 -0.00554507 3.90956 19.146 -0.00554507
275 2 5.74208 19.2193 1.701 5.74208 19.2193 1.701
276 2 5.8753 19.072 -1.5553 5.8753 19.072 -1.5553
277 1 6.75716 17.5012 0.186614 6.75716 17.5012 0.186614
278 2 8.58649 17.5573 1.89736 8.58649 17.5573 1.89736
279 2 8.72629 17.4443 -1.3599 8.72629 17.4443 -1.3599
280 1 9.60635 19.1472 0.252512 9.60635 19.1472 0.252512
281 2 11.4401 19.2189 1.95806 11.4401 19.2189 1.95806
282 2 11.5722 19.0746 -1.29817 11.5722 19.0746 -1.29817
283 1 12.4551 17.502 0.441773 12.4551 17.502 0.441773
284 2 14.3038 17.5586 2.13186 14.3038 17.5586 2.13186
285 2 14.4079 17.4445 -1.12642 14.4079 17.4445 -1.12642
286 1 15.3066 19.148 0.475481 15.3066 19.148 0.475481
287 2 17.1744 19.2183 2.14386 17.1744 19.2183 2.14386
288 2 17.2417 19.0769 -1.1143 17.2417 19.0769 -1.1143
289 1 18.1585 17.5023 0.606161 18.1585 17.5023 0.606161
290 2 20.0516 17.5594 2.24652 20.0516 17.5594 2.24652
291 2 20.0697 17.4447 -1.0132 20.0697 17.4447 -1.0132
292 1 21.0118 19.1483 0.563996 21.0118 19.1483 0.563996
293 2 22.9298 19.2196 2.17441 22.9298 19.2196 2.17441
294 2 22.8978 19.0764 -1.08416 22.8978 19.0764 -1.08416
295 1 23.8651 17.5023 0.608366 23.8651 17.5023 0.608366
296 2 25.8079 17.5616 2.18952 25.8079 17.5616 2.18952
297 2 25.7256 17.4426 -1.0691 25.7256 17.4426 -1.0691
298 1 26.7172 19.1477 0.476138 26.7172 19.1477 0.476138
299 2 28.6801 19.2234 2.03101 28.6801 19.2234 2.03101
300 2 28.5552 19.0718 -1.22503 28.5552 19.0718 -1.22503
301 1 29.5686 17.5015 0.443422 29.5686 17.5015 0.443422
302 2 31.545 17.5648 1.98177 31.545 17.5648 1.98177
303 2 31.3915 17.4379 -1.27417 31.3915 17.4379 -1.27417
304 1 32.4172 19.1463 0.244975 32.4172 19.1463 0.244975
305 2 34.3987 19.2269 1.77554 34.3987 19.2269 1.77554
306 2 34.2335 19.0654 -1.47846 34.2335 19.0654 -1.47846
307 1 35.2665 17.5002 0.182388 35.2665 17.5002 0.182388
308 2 37.2438 17.5654 1.71897 37.2438 17.5654 1.71897
309 2 37.0867 17.4349 -1.53697 37.0867 17.4349 -1.53697
310 1 38.1137 19.1446 -0.0206614 38.1137 19.1446 -0.0206614
311 2 40.0766 19.2264 1.53335 40.0766 19.2264 1.53335
312 2 39.9492 19.0628 -1.7225 39.9492 19.0628 -1.7225
313 1 40.9632 17.4993 -0.0484794 40.9632 17.4993 -0.0484794
314 2 42.907 17.5615 1.53011 42.907 17.5615 1.53011
315 2 42.8186 17.4373 -1.72894 42.8186 17.4373 -1.72894
316 1 43.8121 19.144 -0.187754 43.8121 19.144 -0.187754
317 2 45.7289 19.2227 1.42295 45.7289 19.2227 1.42295
318 2 45.6957 19.0656 -1.83569 45.6957 19.0656 -1.83569
319 1 46.6623 17.4995 -0.136019 46.6623 17.4995 -0.136019
320 2 48.5547 17.557 1.50411 48.5547 17.557 1.50411
321 2 48.5701 17.4422 -1.75652 48.5701 17.4422 -1.75652
322 1 49.5123 19.1447 -0.179464 49.5123 19.1447 -0.179464
323 2 51.378 19.22 1.49041 51.378 19.22 1.49041
324 2 51.4464 19.0694 -1.76796 51.4464 19.0694 -1.76796
325 1 1.06139 20.7896 -0.194731 1.06139 20.7896 -0.194731
326 2 2.90525 20.8789 1.49877 2.90525 20.8789 1.49877
327 2 3.01663 20.6999 -1.75681 3.01663 20.6999 -1.75681
328 1 3.91132 22.4341 -0.186984 3.91132 22.4341 -0.186984
329 2 5.73984 22.5325 1.5227 5.73984 22.5325 1.5227
330 2 5.88117 22.3354 -1.73055 5.88117 22.3354 -1.73055
331 1 6.75875 20.7912 0.0373593 6.75875 20.7912 0.0373593
332 2 8.58535 20.8771 1.74975 8.58535 20.8771 1.74975
333 2 8.73047 20.7046 -1.50467 8.73047 20.7046 -1.50467
334 1 9.60823 22.4362 0.077589 9.60823 22.4362 0.077589
335 2 11.4374 22.5289 1.78689 11.4374 22.5289 1.78689
336 2 11.5781 22.3426 -1.46691 11.5781 22.3426 -1.46691
337 1 12.4565 20.7927 0.295546 12.4565 20.7927 0.295546
338 2 14.3021 20.8748 1.98771 14.3021 20.8748 1.98771
339 2 14.4118 20.7096 -1.26832 14.4118 20.7096 -1.26832
340 1 15.3077 22.4376 0.308112 15.3077 22.4376 0.308112
341 2 17.1716 22.526 1.97954 17.1716 22.526 1.97954
342 2 17.2459 22.3484 -1.27687 17.2459 22.3484 -1.27687
343 1 18.159 20.7934 0.462924 18.159 20.7934 0.462924
344 2 20.05 20.8742 2.10439 20.05 20.8742 2.10439
345 2 20.0717 20.712 -1.15347 20.0717 20.712 -1.15347
346 1 21.0118 22.438 0.399737 21.0118 22.438 0.399737
347 2 22.9284 22.5268 2.01054 22.9284 22.5268 2.01054
348 2 22.8986 22.3487 -1.24653 22.8986 22.3487 -1.24653
349 1 23.8647 20.7933 0.463424 23.8647 20.7933 0.463424
350 2 25.8071 20.8771 2.04338 25.8071 20.8771 2.04338
351 2 25.7248 20.7091 -1.21323 25.7248 20.7091 -1.21323
352 1 26.716 22.4372 0.306086 26.716 22.4372 0.306086
353 2 28.6796 22.5311 1.85874 28.6796 22.5311 1.85874
354 2 28.5528 22.3428 -1.39546 28.5528 22.3428 -1.39546
355 1 29.5671 20.792 0.289905 29.5671 20.792 0.289905
356 2 31.5442 20.8818 1.82572 31.5442 20.8818 1.82572
357 2 31.3889 20.7017 -1.42771 31.3889 20.7017 -1.42771
358 1 32.4151 22.4349 0.0626252 32.4151 22.4349 0.0626252
359 2 34.3972 22.5356 1.59093 34.3972 22.5356 1.59093
360 2 34.2305 22.3338 -1.66075 34.2305 22.3338 -1.66075
361 1 35.2644 20.7897 0.0187388 35.2644 20.7897 0.0187388
362 2 37.2409 20.8845 1.55481 37.2409 20.8845 1.55481
363 2 37.0857 20.6948 -1.69827 37.0857 20.6948 -1.69827
364 1 38.1115 22.4323 -0.212865 38.1115 22.4323 -0.212865
365 2 40.0729 22.5374 1.34179 40.0729 22.5374 1.34179
366 2 39.9493 22.3274 -1.9114 39.9493 22.3274 -1.9114
367 1 40.9617 20.7881 -0.214277 40.9617 20.7881 -0.214277
368 2 42.9022 20.8834 1.36704 42.9022 20.8834 1.36704
369 2 42.8214 20.6932 -1.88886 42.8214 20.6932 -1.88886
370 1 43.8112 22.4313 -0.380531 43.8112 22.4313 -0.380531
371 2 45.7245 22.5366 1.23318 45.7245 22.5366 1.23318
372 2 45.6994 22.3266 -2.02234 45.6994 22.3266 -2.02234
373 1 46.6622 20.7882 -0.295257 46.6622 20.7882 -0.295257
374 2 48.5506 20.8809 1.34811 48.5506 20.8809 1.34811
375 2 48.5747 20.696 -1.90906 48.5747 20.696 -1.90906
376 1 49.513 22.4322 -0.36679 49.513 22.4322 -0.36679
377 2 51.3748 22.5348 1.30626 51.3748 22.5348 1.30626
378 2 51.4517 22.3299 -1.94876 51.4517 22.3299 -1.94876
379 1 1.06298 24.0762 -0.402445 1.06298 24.0762 -0.402445
380 2 2.90227 24.1836 1.29523 2.90227 24.1836 1.29523
381 2 3.02327 23.969 -1.95769 3.02327 23.969 -1.95769
382 1 3.91364 25.7204 -0.404591 3.91364 25.7204 -0.404591
383 2 5.73633 25.8267 1.31098 5.73633 25.8267 1.31098
384 2 5.88934 25.6143 -1.94067 5.88934 25.6143 -1.94067
385 1 6.76102 24.0786 -0.162413 6.76102 24.0786 -0.162413
386 2 8.58199 24.18 1.55511 8.58199 24.18 1.55511
387 2 8.73802 23.9769 -1.69703 8.73802 23.9769 -1.69703
388 1 9.61056 25.7231 -0.128334 9.61056 25.7231 -0.128334
389 2 11.4328 25.8219 1.58785 11.4328 25.8219 1.58785
390 2 11.5865 25.6241 -1.66475 11.5865 25.6241 -1.66475
391 1 12.4583 24.0808 0.106707 12.4583 24.0808 0.106707
392 2 14.2982 24.1754 1.8041 14.2982 24.1754 1.8041
393 2 14.4184 23.9856 -1.45035 14.4184 23.9856 -1.45035
394 1 15.309 25.7251 0.115751 15.309 25.7251 0.115751
395 2 17.1675 25.8178 1.79255 17.1675 25.8178 1.79255
396 2 17.2516 25.632 -1.46336 17.2516 25.632 -1.46336
397 1 18.1597 24.0819 0.283094 18.1597 24.0819 0.283094
398 2 20.0473 24.1735 1.92727 20.0473 24.1735 1.92727
399 2 20.0748 23.9898 -1.32962 20.0748 23.9898 -1.32962
400 1 21.0118 25.7257 0.213802 21.0118 25.7257 0.213802
401 2 22.9263 25.8177 1.8263 22.9263 25.8177 1.8263
402 2 22.8998 25.6334 -1.43068 22.8998 25.6334 -1.43068
403 1 23.8641 24.0817 0.283161 23.8641 24.0817 0.283161
404 2 25.8061 24.176 1.86246 25.8061 24.176 1.86246
405 2 25.7238 23.9871 -1.39321 25.7238 23.9871 -1.39321
406 1 26.7147 25.7246 0.11494 26.7147 25.7246 0.11494
407 2 28.6788 25.8211 1.66625 28.6788 25.8211 1.66625
408 2 28.5502 25.6278 -1.58774 28.5502 25.6278 -1.58774
409 1 29.5653 24.0799 0.0993528 29.5653 24.0799 0.0993528
410 2 31.5435 24.1806 1.63265 31.5435 24.1806 1.63265
411 2 31.3854 23.9787 -1.61945 31.3854 23.9787 -1.61945
412 1 32.4127 25.7219 -0.141785 32.4127 25.7219 -0.141785
413 2 34.396 25.8253 1.38453 34.396 25.8253 1.38453
414 2 34.2267 25.6181 -1.86667 34.2267 25.6181 -1.86667
415 1 35.2619 24.0769 -0.185675 35.2619 24.0769 -0.185675
416 2 37.2386 24.1843 1.34918 37.2386 24.1843 1.34918
417 2 37.0832 23.9693 -1.90222 37.0832 23.9693 -1.90222
418 1 38.1091 25.7186 -0.43073 38.1091 25.7186 -0.43073
419 2 40.0704 25.8284 1.1239 40.0704 25.8284 1.1239
420 2 39.9478 25.6091 -2.12853 39.9478 25.6091 -2.12853
421 1 40.9599 24.0745 -0.427019 40.9599 24.0745 -0.427019
422 2 42.8984 24.1858 1.15592 42.8984 24.1858 1.15592
423 2 42.8226 23.9639 -2.09787 42.8226 23.9639 -2.09787
424 1 43.8102 25.7172 -0.605317 43.8102 25.7172 -0.605317
425 2 45.7213 25.83 1.01086 45.7213 25.83 1.01086
426 2 45.7019 25.6052 -2.24342 45.7019 25.6052 -2.24342
427 1 46.6621 24.0745 -0.507969 46.6621 24.0745 -0.507969
428 2 48.547 24.1855 1.13877 48.547 24.1855 1.13877
429 2 48.5793 23.9642 -2.11581 48.5793 23.9642 -2.11581
430 1 49.5139 25.7181 -0.590999 49.5139 25.7181 -0.590999
431 2 51.3717 25.8296 1.08643 51.3717 25.8296 1.08643
432 2 51.4577 25.6073 -2.16697 51.4577 25.6073 -2.16697
433 1 1.06487 27.3622 -0.627709 1.06487 27.3622 -0.627709
434 2 2.89907 27.4685 1.07584 2.89907 27.4685 1.07584
435 2 3.03079 27.2567 -2.17666 3.03079 27.2567 -2.17666
436 1 3.9161 29.0072 -0.619353 3.9161 29.0072 -0.619353
437 2 5.73268 29.1029 1.10352 5.73268 29.1029 1.10352
438 2 5.89796 28.9124 -2.14878 5.89796 28.9124 -2.14878
439 1 6.76365 27.365 -0.377909 6.76365 27.365 -0.377909
440 2 8.5776 27.4647 1.34717 8.5776 27.4647 1.34717
441 2 8.74723 27.2657 -1.90453 8.74723 27.2657 -1.90453
442 1 9.61304 29.0101 -0.330148 9.61304 29.0101 -0.330148
443 2 11.4277 29.0983 1.39448 11.4277 29.0983 1.39448
444 2 11.5957 28.9223 -1.85872 11.5957 28.9223 -1.85872
445 1 12.4602 27.3677 -0.0939581 12.4602 27.3677 -0.0939581
446 2 14.293 27.4596 1.61096 14.293 27.4596 1.61096
447 2 14.4264 27.2757 -1.64345 14.4264 27.2757 -1.64345
448 1 15.3103 29.0123 -0.0706855 15.3103 29.0123 -0.0706855
449 2 17.1627 29.0941 1.61302 17.1627 29.0941 1.61302
450 2 17.2581 28.9306 -1.64395 17.2581 28.9306 -1.64395
451 1 18.1603 27.3692 0.0949431 18.1603 27.3692 0.0949431
452 2 20.0437 27.457 1.74359 20.0437 27.457 1.74359
453 2 20.0787 27.2812 -1.51389 20.0787 27.2812 -1.51389
454 1 21.0118 29.0131 0.0358538 21.0118 29.0131 0.0358538
455 2 22.9236 29.093 1.6516 22.9236 29.093 1.6516
456 2 22.9016 28.9329 -1.60691 22.9016 28.9329 -1.60691
457 1 23.8634 27.369 0.0966646 23.8634 27.369 0.0966646
458 2 25.8045 27.4583 1.67671 25.8045 27.4583 1.67671
459 2 25.7231 27.2795 -1.57976 25.7231 27.2795 -1.57976
460 1 26.7135 29.012 -0.0659843 26.7135 29.012 -0.0659843
461 2 28.6775 29.0949 1.48559 28.6775 29.0949 1.48559
462 2 28.5482 28.9288 -1.77002 28.5482 28.9288 -1.77002
463 1 29.5634 27.367 -0.0962372 29.5634 27.367 -0.0962372
464 2 31.5426 27.4616 1.43571 31.5426 27.4616 1.43571
465 2 31.3818 27.2719 -1.81707 31.3818 27.2719 -1.81707
466 1 32.4104 29.0093 -0.333793 32.4104 29.0093 -0.333793
467 2 34.3951 29.0979 1.19156 34.3951 29.0979 1.19156
468 2 34.2229 28.9204 -2.06123 34.2229 28.9204 -2.06123
469 1 35.2593 27.3636 -0.39546 35.2593 27.3636 -0.39546
470 2 37.2372 27.4653 1.13831 37.2372 27.4653 1.13831
471 2 37.0797 27.2619 -2.11363 37.0797 27.2619 -2.11363
472 1 38.1067 29.0061 -0.636657 38.1067 29.0061 -0.636657
473 2 40.0692 29.1016 0.91767 40.0692 29.1016 0.91767
474 2 39.945 28.9109 -2.3363 39.945 28.9109 -2.3363
475 1 40.958 27.3609 -0.6491 40.958 27.3609 -0.6491
476 2 42.8962 27.4684 0.934822 42.8962 27.4684 0.934822
477 2 42.8222 27.2542 -2.31926 42.8222 27.2542 -2.31926
478 1 43.8092 29.0044 -0.822347 43.8092 29.0044 -0.822347
479 2 45.7196 29.1047 0.795869 45.7196 29.1047 0.795869
480 2 45.7028 28.905 -2.45977 45.7028 28.905 -2.45977
481 1 46.6621 27.3606 -0.735723 46.6621 27.3606 -0.735723
482 2 48.5443 27.4699 0.914619 48.5443 27.4699 0.914619
483 2 48.5832 27.2523 -2.33984 48.5832 27.2523 -2.33984
484 1 49.515 29.005 -0.811453 49.515 29.005 -0.811453
485 2 51.3692 29.1053 0.870982 51.3692 29.1053 0.870982
486 2 51.4632 28.9058 -2.38342 51.4632 28.9058 -2.38342
487 1 1.06667 30.6505 -0.82994 1.06667 30.6505 -0.82994
488 2 2.89644 30.7367 0.879836 2.89644 30.7367 0.879836
489 2 3.03758 30.5654 -2.37446 3.03758 30.5654 -2.37446
490 1 3.91824 32.297 -0.793121 3.91824 32.297 -0.793121
491 2 5.72968 32.3649 0.936672 5.72968 32.3649 0.936672
492 2 5.90529 32.2301 -2.31775 5.90529 32.2301 -2.31775
493 1 6.76621 30.653 -0.571064 6.76621 30.653 -0.571064
494 2 8.57341 30.7333 1.16214 8.57341 30.7333 1.16214
495 2 8.75609 30.5734 -2.09097 8.75609 30.5734 -2.09097
496 1 9.6152 32.2993 -0.492415 9.6152 32.2993 -0.492415
497 2 11.4233 32.361 1.24021 11.4233 32.361 1.24021
498 2 11.6038 32.2381 -2.0148 11.6038 32.2381 -2.0148
499 1 12.4621 30.6555 -0.272551 12.4621 30.6555 -0.272551
500 2 14.2879 30.7289 1.44053 14.2879 30.7289 1.44053
501 2 14.4344 30.5825 -1.81534 14.4344 30.5825 -1.81534
502 1 15.3115 32.301 -0.219164 15.3115 32.301 -0.219164
503 2 17.1582 32.3571 1.47145 17.1582 32.3571 1.47145
504 2 17.264 32.2451 -1.78753 17.264 32.2451 -1.78753
505 1 18.1609 30.657 -0.0707326 18.1609 30.657 -0.0707326
506 2 20.0398 30.7259 1.58346 20.0398 30.7259 1.58346
507 2 20.083 30.588 -1.67594 20.083 30.588 -1.67594
508 1 21.0119 32.3016 -0.103837 21.0119 32.3016 -0.103837
509 2 22.9207 32.3554 1.51588 22.9207 32.3554 1.51588
510 2 22.9038 32.2477 -1.74499 22.9038 32.2477 -1.74499
511 1 23.8628 30.6568 -0.0653954 23.8628 30.6568 -0.0653954
512 2 25.8025 30.726 1.51684 25.8025 30.726 1.51684
513 2 25.7232 30.5876 -1.74183 25.7232 30.5876 -1.74183
514 1 26.7124 32.3008 -0.206021 26.7124 32.3008 -0.206021
515 2 28.676 32.3558 1.34701 28.676 32.3558 1.34701
516 2 28.5472 32.2457 -1.9111 28.5472 32.2457 -1.9111
517 1 29.5617 30.6551 -0.264275 29.5617 30.6551 -0.264275
518 2 31.5414 30.7277 1.26778 31.5414 30.7277 1.26778
519 2 31.3791 30.5823 -1.98726 31.3791 30.5823 -1.98726
520 1 32.4086 32.2989 -0.48107 32.4086 32.2989 -0.48107
521 2 34.3944 32.3578 1.04408 34.3944 32.3578 1.04408
522 2 34.2198 32.2398 -2.21126 34.2198 32.2398 -2.21126
523 1 35.257 30.6523 -0.575149 35.257 30.6523 -0.575149
524 2 37.2365 30.7309 0.957895 37.2365 30.7309 0.957895
525 2 37.076 30.5736 -2.29634 37.076 30.5736 -2.29634
526 1 38.1049 32.2966 -0.795914 38.1049 32.2966 -0.795914
527 2 40.0693 32.3618 0.757593 40.0693 32.3618 0.757593
528 2 39.9416 32.2315 -2.49905 39.9416 32.2315 -2.49905
529 1 40.9563 30.6498 -0.842256 40.9563 30.6498 -0.842256
530 2 42.8956 30.735 0.741995 42.8956 30.735 0.741995
531 2 42.8203 30.5652 -2.51444 42.8203 30.5652 -2.51444
532 1 43.8083 32.2951 -0.994315 43.8083 32.2951 -0.994315
533 2 45.7194 32.3659 0.624997 45.7194 32.3659 0.624997
534 2 45.7023 32.2251 -2.63348 45.7023 32.2251 -2.63348
535 1 46.6621 30.6492 -0.938086 46.6621 30.6492 -0.938086
536 2 48.5429 30.7375 0.71554 48.5429 30.7375 0.71554
537 2 48.5858 30.562 -2.54114 48.5858 30.562 -2.54114
538 1 49.5158 32.2954 -0.989289 49.5158 32.2954 -0.989289
539 2 51.3677 32.367 0.697526 51.3677 32.367 0.697526
540 2 51.4673 32.2247 -2.55949 51.4673 32.2247 -2.55949