ITEM: TIMESTEP
50000
ITEM: NUMBER OF ATOMS
810
ITEM: BOX BOUNDS pp pp pp
8.4272421497165084e-01 5.2174880785027341e+01
8.1194471888082231e-01 5.0204270281118760e+01
-1.0000000000000000e+01 1.0000000000000000e+01
ITEM: ATOMS id type x y z xu yu zu
1 1 1.04638 1.02636 -0.103273 1.04638 1.02636 -0.103273
2 2 2.96246 1.05031 1.51006 2.96246 1.05031 1.51006
3 2 2.93265 1.00238 -1.75164 2.93265 1.00238 -1.75164
4 1 3.89809 2.6726 -0.153784 3.89809 2.6726 -0.153784
5 2 5.81732 2.69582 1.45579 5.81732 2.69582 1.45579
6 2 5.78111 2.64935 -1.80586 5.78111 2.64935 -1.80586
7 1 6.74983 1.02618 -0.162133 6.74983 1.02618 -0.162133
8 2 8.6699 1.05136 1.4465 8.6699 1.05136 1.4465
9 2 8.63202 1.00098 -1.81508 8.63202 1.00098 -1.81508
10 1 9.60145 2.6724 -0.220855 9.60145 2.6724 -0.220855
11 2 11.52 2.6969 1.38966 11.52 2.6969 1.38966
12 2 11.4852 2.64789 -1.87197 11.4852 2.64789 -1.87197
13 1 12.4532 1.026 -0.22651 12.4532 1.026 -0.22651
14 2 14.368 1.05232 1.38848 14.368 1.05232 1.38848
15 2 14.3408 0.999682 -1.87316 14.3408 0.999682 -1.87316
16 1 15.305 2.67225 -0.276908 15.305 2.67225 -0.276908
17 2 17.2143 2.69777 1.34456 17.2143 2.69777 1.34456
18 2 17.1981 2.64676 -1.91718 17.1981 2.64676 -1.91718
19 1 18.1569 1.0259 -0.265206 18.1569 1.0259 -0.265206
20 2 20.0601 1.05262 1.36348 20.0601 1.05262 1.36348
21 2 20.0562 0.99924 -1.89826 20.0562 0.99924 -1.89826
22 1 21.0088 2.67222 -0.295533 21.0088 2.67222 -0.295533
23 2 22.9052 2.69797 1.34109 22.9052 2.69797 1.34109
24 2 22.9149 2.64654 -1.92066 22.9149 2.64654 -1.92066
25 1 23.8606 1.02596 -0.260895 23.8606 1.02596 -0.260895
26 2 25.7516 1.05223 1.38197 25.7516 1.05223 1.38197
27 2 25.7721 0.999734 -1.87972 25.7721 0.999734 -1.87972
28 1 26.7125 2.67233 -0.269489 26.7125 2.67233 -0.269489
29 2 28.5985 2.69751 1.37916 28.5985 2.69751 1.37916
30 2 28.6289 2.64721 -1.88249 28.6289 2.64721 -1.88249
31 1 29.5642 1.0261 -0.217311 29.5642 1.0261 -0.217311
32 2 31.448 1.05154 1.43384 31.448 1.05154 1.43384
33 2 31.4828 1.00069 -1.82776 31.4828 1.00069 -1.82776
34 1 32.416 2.67249 -0.212564 32.416 2.67249 -0.212564
35 2 34.2983 2.69667 1.44021 34.2983 2.69667 1.44021
36 2 34.3359 2.64834 -1.8214 34.3359 2.64834 -1.8214
37 1 35.2676 1.02626 -0.155154 35.2676 1.02626 -0.155154
38 2 37.1517 1.05079 1.49559 37.1517 1.05079 1.49559
39 2 37.1859 1.00174 -1.76605 37.1859 1.00174 -1.76605
40 1 38.1194 2.67264 -0.150126 38.1194 2.67264 -0.150126
41 2 40.0059 2.69578 1.4978 40.0059 2.69578 1.4978
42 2 40.0352 2.64952 -1.76393 40.0352 2.64952 -1.76393
43 1 40.9711 1.02639 -0.101107 40.9711 1.02639 -0.101107
44 2 42.863 1.05012 1.54066 42.863 1.05012 1.54066
45 2 42.8817 1.00265 -1.72113 42.8817 1.00265 -1.72113
46 1 43.823 2.67274 -0.108832 43.823 2.67274 -0.108832
47 2 45.7204 2.6952 1.52646 45.7204 2.6952 1.52646
48 2 45.728 2.65028 -1.73542 45.728 2.65028 -1.73542
49 1 46.6748 1.02644 -0.0795517 46.6748 1.02644 -0.0795517
50 2 48.5794 1.04987 1.5474 48.5794 1.04987 1.5474
51 2 48.5728 1.00298 -1.71444 48.5728 1.00298 -1.71444
52 1 49.5267 2.67273 -0.109224 49.5267 2.67273 -0.109224
53 2 51.4374 2.69516 1.5105 51.4374 2.69516 1.5105
54 2 51.4184 2.65028 -1.75133 51.4184 2.65028 -1.75133
55 1 1.04631 4.31901 -0.148716 1.04631 4.31901 -0.148716
56 2 2.96211 4.33955 1.46494 2.96211 4.33955 1.46494
57 2 2.93283 4.29845 -1.79687 2.93283 4.29845 -1.79687
58 1 3.898 5.96531 -0.195379 3.898 5.96531 -0.195379
59 2 5.81713 5.98306 1.41435 5.81713 5.98306 1.41435
60 2 5.78111 5.94753 -1.84745 5.78111 5.94753 -1.84745
61 1 6.74972 4.31885 -0.209164 6.74972 4.31885 -0.209164
62 2 8.66986 4.34034 1.39938 8.66986 4.34034 1.39938
63 2 8.63182 4.29733 -1.8623 8.63182 4.29733 -1.8623
64 1 9.60134 5.96514 -0.264376 9.60134 5.96514 -0.264376
65 2 11.52 5.98396 1.346 11.52 5.98396 1.346
66 2 11.485 5.94632 -1.91577 11.485 5.94632 -1.91577
67 1 12.4531 4.31866 -0.276122 12.4531 4.31866 -0.276122
68 2 14.3679 4.34143 1.33888 14.3679 4.34143 1.33888
69 2 14.3407 4.29591 -1.92286 14.3407 4.29591 -1.92286
70 1 15.3049 5.965 -0.32299 15.3049 5.965 -0.32299
71 2 17.2143 5.98509 1.29851 17.2143 5.98509 1.29851
72 2 17.1981 5.94494 -1.96336 17.1981 5.94494 -1.96336
73 1 18.1568 4.31857 -0.316858 18.1568 4.31857 -0.316858
74 2 20.0596 4.34224 1.31233 20.0596 4.34224 1.31233
75 2 20.0566 4.29494 -1.94949 20.0566 4.29494 -1.94949
76 1 21.0088 5.96497 -0.343427 21.0088 5.96497 -0.343427
77 2 22.9048 5.98584 1.29376 22.9048 5.98584 1.29376
78 2 22.9154 5.94416 -1.96811 22.9154 5.94416 -1.96811
79 1 23.8607 4.3186 -0.312996 23.8607 4.3186 -0.312996
80 2 25.7508 4.34233 1.33092 25.7508 4.34233 1.33092
81 2 25.773 4.29495 -1.93083 25.773 4.29495 -1.93083
82 1 26.7126 5.96505 -0.317484 26.7126 5.96505 -0.317484
83 2 28.5976 5.98569 1.33231 28.5976 5.98569 1.33231
84 2 28.63 5.94448 -1.92943 28.63 5.94448 -1.92943
85 1 29.5643 4.31875 -0.26827 29.5643 4.31875 -0.26827
86 2 31.4469 4.34167 1.38425 31.4469 4.34167 1.38425
87 2 31.4841 4.29588 -1.8774 31.4841 4.29588 -1.8774
88 1 32.4161 5.9652 -0.258963 32.4161 5.9652 -0.258963
89 2 34.2972 5.98473 1.39529 34.2972 5.98473 1.39529
90 2 34.3373 5.94571 -1.86641 34.3373 5.94571 -1.86641
91 1 35.2678 4.3189 -0.204123 35.2678 4.3189 -0.204123
92 2 37.1506 4.34063 1.44807 37.1506 4.34063 1.44807
93 2 37.1872 4.29721 -1.81363 37.1872 4.29721 -1.81363
94 1 38.1195 5.96533 -0.194131 38.1195 5.96533 -0.194131
95 2 40.0048 5.98363 1.45522 40.0048 5.98363 1.45522
96 2 40.0365 5.94706 -1.80662 40.0365 5.94706 -1.80662
97 1 40.9712 4.31903 -0.147979 40.9712 4.31903 -0.147979
98 2 42.8619 4.33976 1.49506 42.8619 4.33976 1.49506
99 2 42.8829 4.29831 -1.76681 42.8829 4.29831 -1.76681
100 1 43.823 5.96542 -0.150823 43.823 5.96542 -0.150823
101 2 45.7195 5.98295 1.48553 45.7195 5.98295 1.48553
102 2 45.729 5.9479 -1.77647 45.729 5.9479 -1.77647
103 1 46.6748 4.31908 -0.12504 46.6748 4.31908 -0.12504
104 2 48.5786 4.33937 1.50277 48.5786 4.33937 1.50277
105 2 48.5735 4.29878 -1.75918 48.5735 4.29878 -1.75918
106 1 49.5267 5.96542 -0.150323 49.5267 5.96542 -0.150323
107 2 51.4368 5.98275 1.47003 51.4368 5.98275 1.47003
108 2 51.4189 5.94807 -1.79195 51.4189 5.94807 -1.79195
109 1 1.04626 7.61176 -0.183828 1.04626 7.61176 -0.183828
110 2 2.96172 7.6254 1.43025 2.96172 7.6254 1.43025
111 2 2.93309 7.59812 -1.83172 2.93309 7.59812 -1.83172
112 1 3.89794 9.25815 -0.223 3.89794 9.25815 -0.223
113 2 5.8169 9.26743 1.38696 5.8169 9.26743 1.38696
114 2 5.78121 9.24885 -1.87498 5.78121 9.24885 -1.87498
115 1 6.74963 7.61164 -0.245125 6.74963 7.61164 -0.245125
116 2 8.66982 7.62582 1.3634 8.66982 7.62582 1.3634
117 2 8.63168 7.59746 -1.89843 8.63168 7.59746 -1.89843
118 1 9.60127 9.25805 -0.293072 9.60127 9.25805 -0.293072
119 2 11.5202 9.26802 1.31709 11.5202 9.26802 1.31709
120 2 11.4847 9.24807 -1.94483 11.4847 9.24807 -1.94483
121 1 12.453 7.61151 -0.314209 12.453 7.61151 -0.314209
122 2 14.3681 7.62686 1.30056 14.3681 7.62686 1.30056
123 2 14.3404 7.59617 -1.96134 14.3404 7.59617 -1.96134
124 1 15.3048 9.25796 -0.354035 15.3048 9.25796 -0.354035
125 2 17.2146 9.26925 1.2671 17.2146 9.26925 1.2671
126 2 17.1977 9.24669 -1.99493 17.1977 9.24669 -1.99493
127 1 18.1568 7.61143 -0.357498 18.1568 7.61143 -0.357498
128 2 20.0597 7.62805 1.27171 20.0597 7.62805 1.27171
129 2 20.0565 7.59484 -1.99028 20.0565 7.59484 -1.99028
130 1 21.0088 9.25793 -0.377032 21.0088 9.25793 -0.377032
131 2 22.9048 9.27041 1.26017 22.9048 9.27041 1.26017
132 2 22.9154 9.24549 -2.00187 22.9154 9.24549 -2.00187
133 1 23.8607 7.61144 -0.355205 23.8607 7.61144 -0.355205
134 2 25.7504 7.62861 1.28935 25.7504 7.62861 1.28935
135 2 25.7736 7.59433 -1.97254 25.7736 7.59433 -1.97254
136 1 26.7127 9.25798 -0.35221 26.7127 9.25798 -0.35221
137 2 28.5971 9.27059 1.29839 28.5971 9.27059 1.29839
138 2 28.6307 9.24542 -1.9635 28.6307 9.24542 -1.9635
139 1 29.5645 7.61155 -0.310027 29.5645 7.61155 -0.310027
140 2 31.446 7.62807 1.34379 31.446 7.62807 1.34379
141 2 31.4853 7.59508 -1.91798 31.4853 7.59508 -1.91798
142 1 32.4162 9.25807 -0.29241 32.4162 9.25807 -0.29241
143 2 34.2961 9.26964 1.36322 34.2961 9.26964 1.36322
144 2 34.3386 9.24654 -1.89861 34.3386 9.24654 -1.89861
145 1 35.2679 7.61167 -0.24367 35.2679 7.61167 -0.24367
146 2 37.1494 7.6269 1.41001 37.1494 7.6269 1.41001
147 2 37.1886 7.59648 -1.85181 37.1886 7.59648 -1.85181
148 1 38.1196 9.25816 -0.224961 38.1196 9.25816 -0.224961
149 2 40.0038 9.26853 1.42565 40.0038 9.26853 1.42565
150 2 40.0376 9.24781 -1.83631 40.0376 9.24781 -1.83631
151 1 40.9713 7.61177 -0.185036 40.9713 7.61177 -0.185036
152 2 42.861 7.62597 1.4592 42.861 7.62597 1.4592
153 2 42.8839 7.59759 -1.80281 42.8839 7.59759 -1.80281
154 1 43.8231 9.25821 -0.179572 43.8231 9.25821 -0.179572
155 2 45.7188 9.26787 1.45767 45.7188 9.26787 1.45767
156 2 45.7297 9.24857 -1.80447 45.7297 9.24857 -1.80447
157 1 46.6748 7.61181 -0.160545 46.6748 7.61181 -0.160545
158 2 48.578 7.6255 1.46808 48.578 7.6255 1.46808
159 2 48.5741 7.59813 -1.79402 48.5741 7.59813 -1.79402
160 1 49.5266 9.25821 -0.178048 49.5266 9.25821 -0.178048
161 2 51.4363 9.26749 1.44289 51.4363 9.26749 1.44289
162 2 51.4193 9.24892 -1.81923 51.4193 9.24892 -1.81923
163 1 1.04624 10.9046 -0.202637 1.04624 10.9046 -0.202637
164 2 2.96137 10.909 1.41186 2.96137 10.909 1.41186
165 2 2.93338 10.9002 -1.85022 2.93338 10.9002 -1.85022
166 1 3.89794 12.5511 -0.231911 3.89794 12.5511 -0.231911
167 2 5.81671 12.5503 1.37829 5.81671 12.5503 1.37829
168 2 5.78138 12.5519 -1.88372 5.78138 12.5519 -1.88372
169 1 6.74959 10.9046 -0.263928 6.74959 10.9046 -0.263928
170 2 8.6698 10.9091 1.34461 8.6698 10.9091 1.34461
171 2 8.63161 10.9001 -1.91734 8.63161 10.9001 -1.91734
172 1 9.60125 12.5511 -0.302134 9.60125 12.5511 -0.302134
173 2 11.5204 12.5506 1.30772 11.5204 12.5506 1.30772
174 2 11.4844 12.5516 -1.95425 11.4844 12.5516 -1.95425
175 1 12.453 10.9045 -0.334383 12.453 10.9045 -0.334383
176 2 14.3685 10.9099 1.27993 14.3685 10.9099 1.27993
177 2 14.34 10.8991 -1.98209 14.34 10.8991 -1.98209
178 1 15.3048 12.5511 -0.364915 15.3048 12.5511 -0.364915
179 2 17.2152 12.5517 1.25548 17.2152 12.5517 1.25548
180 2 17.197 12.5504 -2.00661 17.197 12.5504 -2.00661
181 1 18.1568 10.9045 -0.380303 18.1568 10.9045 -0.380303
182 2 20.0601 10.9113 1.24839 20.0601 10.9113 1.24839
183 2 20.0561 10.8977 -2.01372 20.0561 10.8977 -2.01372
184 1 21.0088 12.5511 -0.390772 21.0088 12.5511 -0.390772
185 2 22.9053 12.5531 1.24588 22.9053 12.5531 1.24588
186 2 22.9149 12.5491 -2.01625 22.9149 12.5491 -2.01625
187 1 23.8608 10.9045 -0.380433 23.8608 10.9045 -0.380433
188 2 25.7504 10.9122 1.26424 25.7504 10.9122 1.26424
189 2 25.7737 10.8968 -1.99779 25.7737 10.8968 -1.99779
190 1 26.7127 12.5511 -0.36782 26.7127 12.5511 -0.36782
191 2 28.5969 12.5535 1.28309 28.5969 12.5535 1.28309
192 2 28.631 12.5487 -1.97888 28.631 12.5487 -1.97888
193 1 29.5645 10.9045 -0.335537 29.5645 10.9045 -0.335537
194 2 31.4452 10.9119 1.31925 31.4452 10.9119 1.31925
195 2 31.4861 10.8973 -1.94263 31.4861 10.8973 -1.94263
196 1 32.4163 12.5511 -0.307225 32.4163 12.5511 -0.307225
197 2 34.2954 12.5527 1.34939 34.2954 12.5527 1.34939
198 2 34.3395 12.5495 -1.91249 34.3395 12.5495 -1.91249
199 1 35.268 10.9046 -0.267093 35.268 10.9046 -0.267093
200 2 37.1485 10.9108 1.38782 37.1485 10.9108 1.38782
201 2 37.1897 10.8985 -1.87409 37.1897 10.8985 -1.87409
202 1 38.1196 12.5511 -0.237429 38.1196 12.5511 -0.237429
203 2 40.0031 12.5518 1.41404 40.0031 12.5518 1.41404
204 2 40.0384 12.5504 -1.84797 40.0384 12.5504 -1.84797
205 1 40.9713 10.9046 -0.206034 40.9713 10.9046 -0.206034
206 2 42.8603 10.9099 1.4391 42.8603 10.9099 1.4391
207 2 42.8847 10.8994 -1.82301 42.8847 10.8994 -1.82301
208 1 43.8231 12.5511 -0.190284 43.8231 12.5511 -0.190284
209 2 45.7183 12.5512 1.44752 45.7183 12.5512 1.44752
210 2 45.7302 12.551 -1.81468 45.7302 12.551 -1.81468
211 1 46.6748 10.9047 -0.180087 46.6748 10.9047 -0.180087
212 2 48.5775 10.9094 1.44916 48.5775 10.9094 1.44916
213 2 48.5746 10.8999 -1.81305 48.5746 10.8999 -1.81305
214 1 49.5266 12.5511 -0.187713 49.5266 12.5511 -0.187713
215 2 51.4359 12.5507 1.43368 51.4359 12.5507 1.43368
216 2 51.4197 12.5515 -1.82849 51.4197 12.5515 -1.82849
217 1 1.04625 14.1975 -0.201872 1.04625 14.1975 -0.201872
218 2 2.96109 14.1919 1.41296 2.96109 14.1919 1.41296
219 2 2.93369 14.2032 -1.84911 2.93369 14.2032 -1.84911
220 1 3.89798 15.844 -0.220454 3.89798 15.844 -0.220454
221 2 5.81662 15.8332 1.38988 5.81662 15.8332 1.38988
222 2 5.78157 15.8548 -1.87206 5.78157 15.8548 -1.87206
223 1 6.74961 14.1976 -0.262334 6.74961 14.1976 -0.262334
224 2 8.66986 14.1916 1.34615 8.66986 14.1916 1.34615
225 2 8.63159 14.2035 -1.91579 8.63159 14.2035 -1.91579
226 1 9.6013 15.8441 -0.290023 9.6013 15.8441 -0.290023
227 2 11.5208 15.8332 1.31941 11.5208 15.8332 1.31941
228 2 11.4841 15.855 -1.94248 11.4841 15.855 -1.94248
229 1 12.453 14.1976 -0.33334 12.453 14.1976 -0.33334
230 2 14.369 14.1922 1.2803 14.369 14.1922 1.2803
231 2 14.3394 14.203 -1.98171 14.3394 14.203 -1.98171
232 1 15.3048 15.8442 -0.353949 15.3048 15.8442 -0.353949
233 2 17.216 15.8342 1.26545 17.216 15.8342 1.26545
234 2 17.1962 15.8542 -1.99658 17.1962 15.8542 -1.99658
235 1 18.1567 14.1976 -0.381588 18.1567 14.1976 -0.381588
236 2 20.0609 14.1936 1.24616 20.0609 14.1936 1.24616
237 2 20.0553 14.2017 -2.01596 20.0553 14.2017 -2.01596
238 1 21.0088 15.8442 -0.382465 21.0088 15.8442 -0.382465
239 2 22.9061 15.8354 1.2532 22.9061 15.8354 1.2532
240 2 22.914 15.853 -2.00889 22.914 15.853 -2.00889
241 1 23.8608 14.1977 -0.384487 23.8608 14.1977 -0.384487
242 2 25.7508 14.1946 1.25975 25.7508 14.1946 1.25975
243 2 25.7734 14.2007 -2.00231 25.7734 14.2007 -2.00231
244 1 26.7127 15.8442 -0.361669 26.7127 15.8442 -0.361669
245 2 28.5971 15.836 1.28901 28.5971 15.836 1.28901
246 2 28.6308 15.8524 -1.97293 28.6308 15.8524 -1.97293
247 1 29.5646 14.1976 -0.340453 29.5646 14.1976 -0.340453
248 2 31.4449 14.1945 1.31481 31.4449 14.1945 1.31481
249 2 31.4866 14.2008 -1.94709 31.4866 14.2008 -1.94709
250 1 32.4163 15.8441 -0.300866 32.4163 15.8441 -0.300866
251 2 34.295 15.8356 1.35614 34.295 15.8356 1.35614
252 2 34.3398 15.8527 -1.90568 34.3398 15.8527 -1.90568
253 1 35.268 14.1976 -0.270428 35.268 14.1976 -0.270428
254 2 37.1478 14.1937 1.38521 37.1478 14.1937 1.38521
255 2 37.1903 14.2015 -1.8767 37.1903 14.2015 -1.8767
256 1 38.1196 15.8441 -0.22946 38.1196 15.8441 -0.22946
257 2 40.0028 15.835 1.42231 40.0028 15.835 1.42231
258 2 40.0387 15.8531 -1.83965 40.0387 15.8531 -1.83965
259 1 40.9713 14.1976 -0.20748 40.9713 14.1976 -0.20748
260 2 42.8599 14.1931 1.43809 42.8599 14.1931 1.43809
261 2 42.8851 14.2021 -1.82402 42.8851 14.2021 -1.82402
262 1 43.8231 15.844 -0.181157 43.8231 15.844 -0.181157
263 2 45.7182 15.8346 1.45679 45.7182 15.8346 1.45679
264 2 45.7303 15.8534 -1.80535 45.7303 15.8534 -1.80535
265 1 46.6749 14.1975 -0.180392 46.6749 14.1975 -0.180392
266 2 48.5772 14.1925 1.4492 48.5772 14.1925 1.4492
267 2 48.5749 14.2025 -1.813 48.5749 14.2025 -1.813
268 1 49.5267 15.844 -0.177595 49.5267 15.844 -0.177595
269 2 51.4357 15.8339 1.44407 51.4357 15.8339 1.44407
270 2 51.42 15.854 -1.81804 51.42 15.854 -1.81804
271 1 1.04629 17.4904 -0.181488 1.04629 17.4904 -0.181488
272 2 2.96096 17.4756 1.43352 2.96096 17.4756 1.43352
273 2 2.93393 17.5052 -1.82843 2.93393 17.5052 -1.82843
274 1 3.89806 19.1368 -0.190421 3.89806 19.1368 -0.190421
275 2 5.81666 19.1178 1.41992 5.81666 19.1178 1.41992
276 2 5.78171 19.1558 -1.84187 5.78171 19.1558 -1.84187
277 1 6.74968 17.4905 -0.24049 6.74968 17.4905 -0.24049
278 2 8.67003 17.475 1.36783 8.67003 17.475 1.36783
279 2 8.63157 17.5059 -1.89398 8.63157 17.5059 -1.89398
280 1 9.60141 19.137 -0.258726 9.60141 19.137 -0.258726
281 2 11.5213 19.1176 1.35021 11.5213 19.1176 1.35021
282 2 11.4838 19.1564 -1.91152 11.4838 19.1564 -1.91152
283 1 12.4531 17.4906 -0.311307 12.4531 17.4906 -0.311307
284 2 14.3697 17.4754 1.30153 14.3697 17.4754 1.30153
285 2 14.3388 17.5059 -1.96035 14.3388 17.5059 -1.96035
286 1 15.3049 19.1371 -0.323048 15.3049 19.1371 -0.323048
287 2 17.217 19.1181 1.29527 17.217 19.1181 1.29527
288 2 17.1954 19.1561 -1.9666 17.1954 19.1561 -1.9666
289 1 18.1568 17.4907 -0.36127 18.1568 17.4907 -0.36127
290 2 20.0619 17.4765 1.26529 20.0619 17.4765 1.26529
291 2 20.0543 17.505 -1.99673 20.0543 17.505 -1.99673
292 1 21.0088 19.1372 -0.353537 21.0088 19.1372 -0.353537
293 2 22.9071 19.1191 1.28093 22.9071 19.1191 1.28093
294 2 22.913 19.1553 -1.98102 22.913 19.1553 -1.98102
295 1 23.8608 17.4908 -0.366706 23.8608 17.4908 -0.366706
296 2 25.7515 17.4774 1.27667 25.7515 17.4774 1.27667
297 2 25.7726 17.504 -1.98531 25.7726 17.504 -1.98531
298 1 26.7127 19.1372 -0.334714 26.7127 19.1372 -0.334714
299 2 28.5976 19.1197 1.31524 28.5976 19.1197 1.31524
300 2 28.6302 19.1546 -1.94657 28.6302 19.1546 -1.94657
301 1 29.5645 17.4907 -0.323879 29.5645 17.4907 -0.323879
302 2 31.445 17.4776 1.33124 31.445 17.4776 1.33124
303 2 31.4864 17.5038 -1.93057 31.4864 17.5038 -1.93057
304 1 32.4162 19.1371 -0.274358 32.4162 19.1371 -0.274358
305 2 34.2951 19.1197 1.38238 34.2951 19.1197 1.38238
306 2 34.3395 19.1544 -1.87932 34.3395 19.1544 -1.87932
307 1 35.2679 17.4906 -0.25311 35.2679 17.4906 -0.25311
308 2 37.1477 17.4772 1.40261 37.1477 17.4772 1.40261
309 2 37.1904 17.5039 -1.8592 37.1904 17.5039 -1.8592
310 1 38.1196 19.1369 -0.202384 38.1196 19.1369 -0.202384
311 2 40.003 19.1195 1.44909 40.003 19.1195 1.44909
312 2 40.0384 19.1542 -1.81273 40.0384 19.1542 -1.81273
313 1 40.9713 17.4904 -0.189122 40.9713 17.4904 -0.189122
314 2 42.8599 17.4768 1.45637 42.8599 17.4768 1.45637
315 2 42.885 17.504 -1.80563 42.885 17.504 -1.80563
316 1 43.823 19.1368 -0.153639 43.823 19.1368 -0.153639
317 2 45.7184 19.1193 1.48404 45.7184 19.1193 1.48404
318 2 45.7301 19.1543 -1.77796 45.7301 19.1543 -1.77796
319 1 46.6749 17.4904 -0.161307 46.6749 17.4904 -0.161307
320 2 48.5771 17.4764 1.46833 48.5771 17.4764 1.46833
321 2 48.575 17.5044 -1.79376 48.575 17.5044 -1.79376
322 1 49.5267 19.1368 -0.149245 49.5267 19.1368 -0.149245
323 2 51.4357 19.1186 1.47245 51.4357 19.1186 1.47245
324 2 51.4201 19.1549 -1.78951 51.4201 19.1549 -1.78951
325 1 1.04636 20.7831 -0.144833 1.04636 20.7831 -0.144833
326 2 2.961 20.7616 1.47018 2.961 20.7616 1.47018
327 2 2.93405 20.8046 -1.79162 2.93405 20.8046 -1.79162
328 1 3.89816 22.4295 -0.146882 3.89816 22.4295 -0.146882
329 2 5.81682 22.4055 1.46337 5.81682 22.4055 1.46337
330 2 5.78178 22.4535 -1.79827 5.78178 22.4535 -1.79827
331 1 6.7498 20.7833 -0.20201 6.7498 20.7833 -0.20201
332 2 8.6703 20.7609 1.40609 8.6703 20.7609 1.40609
333 2 8.63154 20.8056 -1.85556 8.63154 20.8056 -1.85556
334 1 9.60155 22.4297 -0.21348 9.60155 22.4297 -0.21348
335 2 11.5217 22.405 1.39501 11.5217 22.405 1.39501
336 2 11.4836 22.4544 -1.86657 11.4836 22.4544 -1.86657
337 1 12.4532 20.7834 -0.271978 12.4532 20.7834 -0.271978
338 2 14.3704 20.7609 1.34007 14.3704 20.7609 1.34007
339 2 14.3383 20.806 -1.92163 14.3383 20.806 -1.92163
340 1 15.305 22.4299 -0.277358 15.305 22.4299 -0.277358
341 2 17.2178 22.405 1.34003 17.2178 22.405 1.34003
342 2 17.1947 22.4548 -1.92169 17.1947 22.4548 -1.92169
343 1 18.1568 20.7836 -0.32277 18.1568 20.7836 -0.32277
344 2 20.0629 20.7615 1.3026 20.0629 20.7615 1.3026
345 2 20.0533 20.8057 -1.95925 20.0533 20.8057 -1.95925
346 1 21.0088 22.43 -0.308756 21.0088 22.43 -0.308756
347 2 22.9081 22.4056 1.32453 22.9081 22.4056 1.32453
348 2 22.912 22.4545 -1.93727 22.912 22.4545 -1.93727
349 1 23.8607 20.7837 -0.330007 23.8607 20.7837 -0.330007
350 2 25.7523 20.7623 1.31225 25.7523 20.7623 1.31225
351 2 25.7717 20.805 -1.94958 25.7717 20.805 -1.94958
352 1 26.7126 22.43 -0.29138 26.7126 22.43 -0.29138
353 2 28.5984 22.4062 1.35748 28.5984 22.4062 1.35748
354 2 28.6292 22.4538 -1.9042 28.6292 22.4538 -1.9042
355 1 29.5645 20.7836 -0.288521 29.5645 20.7836 -0.288521
356 2 31.4455 20.7627 1.36586 31.4455 20.7627 1.36586
357 2 31.4858 20.8044 -1.8958 31.4858 20.8044 -1.8958
358 1 32.4161 22.4298 -0.232113 32.4161 22.4298 -0.232113
359 2 34.2958 22.4066 1.42373 34.2958 22.4066 1.42373
360 2 34.3387 22.453 -1.83784 34.3387 22.453 -1.83784
361 1 35.2679 20.7834 -0.218027 35.2679 20.7834 -0.218027
362 2 37.1481 20.7628 1.43714 37.1481 20.7628 1.43714
363 2 37.1898 20.8039 -1.82452 37.1898 20.8039 -1.82452
364 1 38.1195 22.4296 -0.160711 38.1195 22.4296 -0.160711
365 2 40.0036 22.4069 1.48997 40.0036 22.4069 1.48997
366 2 40.0377 22.4523 -1.77173 40.0377 22.4523 -1.77173
367 1 40.9712 20.7832 -0.153982 40.9712 20.7832 -0.153982
368 2 42.8603 20.7628 1.49096 42.8603 20.7628 1.49096
369 2 42.8845 20.8036 -1.77089 42.8845 20.8036 -1.77089
370 1 43.823 22.4295 -0.112274 43.823 22.4295 -0.112274
371 2 45.7189 22.4069 1.52479 45.7189 22.4069 1.52479
372 2 45.7296 22.452 -1.73708 45.7296 22.452 -1.73708
373 1 46.6749 20.7831 -0.125925 46.6749 20.7831 -0.125925
374 2 48.5773 20.7624 1.50344 48.5773 20.7624 1.50344
375 2 48.5748 20.8038 -1.7585 48.5748 20.8038 -1.7585
376 1 49.5267 22.4294 -0.107396 49.5267 22.4294 -0.107396
377 2 51.4359 22.4064 1.5141 51.4359 22.4064 1.5141
378 2 51.42 22.4525 -1.74773 51.42 22.4525 -1.74773
379 1 1.04643 24.0758 -0.098176 1.04643 24.0758 -0.098176
380 2 2.96121 24.0513 1.5167 2.96121 24.0513 1.5167
381 2 2.93403 24.1002 -1.74501 2.93403 24.1002 -1.74501
382 1 3.89827 25.7221 -0.0973498 3.89827 25.7221 -0.0973498
383 2 5.81704 25.6973 1.51282 5.81704 25.6973 1.51282
384 2 5.78181 25.747 -1.74879 5.78181 25.747 -1.74879
385 1 6.74994 24.0759 -0.153428 6.74994 24.0759 -0.153428
386 2 8.67059 24.0504 1.45449 8.67059 24.0504 1.45449
387 2 8.63153 24.1014 -1.80706 8.63153 24.1014 -1.80706
388 1 9.60169 25.7223 -0.161928 9.60169 25.7223 -0.161928
389 2 11.5221 25.6964 1.44632 11.5221 25.6964 1.44632
390 2 11.4835 25.7482 -1.81523 11.4835 25.7482 -1.81523
391 1 12.4533 24.0761 -0.221906 12.4533 24.0761 -0.221906
392 2 14.371 24.05 1.38957 14.371 24.05 1.38957
393 2 14.3379 24.1022 -1.87202 14.3379 24.1022 -1.87202
394 1 15.3051 25.7225 -0.224436 15.3051 25.7225 -0.224436
395 2 17.2184 25.6959 1.39235 17.2184 25.6959 1.39235
396 2 17.1942 25.7491 -1.86931 17.1942 25.7491 -1.86931
397 1 18.1569 24.0763 -0.272424 18.1569 24.0763 -0.272424
398 2 20.0637 24.05 1.35199 20.0637 24.05 1.35199
399 2 20.0526 24.1026 -1.90975 20.0526 24.1026 -1.90975
400 1 21.0088 25.7226 -0.255527 21.0088 25.7226 -0.255527
401 2 22.9089 25.696 1.37678 22.9089 25.696 1.37678
402 2 22.9112 25.7494 -1.88496 22.9112 25.7494 -1.88496
403 1 23.8607 24.0764 -0.280439 23.8607 24.0764 -0.280439
404 2 25.7533 24.0505 1.36063 25.7533 24.0505 1.36063
405 2 25.7706 24.1022 -1.90109 25.7706 24.1022 -1.90109
406 1 26.7125 25.7226 -0.238937 26.7125 25.7226 -0.238937
407 2 28.5994 25.6965 1.40864 28.5994 25.6965 1.40864
408 2 28.628 25.7487 -1.853 28.628 25.7487 -1.853
409 1 29.5644 24.0763 -0.240275 29.5644 24.0763 -0.240275
410 2 31.4464 24.0512 1.41291 31.4464 24.0512 1.41291
411 2 31.4846 24.1013 -1.84866 31.4846 24.1013 -1.84866
412 1 32.416 25.7225 -0.181289 32.416 25.7225 -0.181289
413 2 34.2968 25.6974 1.47323 34.2968 25.6974 1.47323
414 2 34.3374 25.7475 -1.78832 34.3374 25.7475 -1.78832
415 1 35.2677 24.076 -0.171073 35.2677 24.076 -0.171073
416 2 37.1489 24.0517 1.48303 37.1489 24.0517 1.48303
417 2 37.1888 24.1003 -1.77855 37.1888 24.1003 -1.77855
418 1 38.1193 25.7222 -0.111512 38.1193 25.7222 -0.111512
419 2 40.0045 25.698 1.53803 40.0045 25.698 1.53803
420 2 40.0366 25.7464 -1.72364 40.0366 25.7464 -1.72364
421 1 40.9711 24.0758 -0.107944 40.9711 24.0758 -0.107944
422 2 42.861 24.0521 1.5361 42.861 24.0521 1.5361
423 2 42.8837 24.0996 -1.72567 42.8837 24.0996 -1.72567
424 1 43.8229 25.7221 -0.0641037 43.8229 25.7221 -0.0641037
425 2 45.7196 25.6983 1.57209 45.7196 25.6983 1.57209
426 2 45.7288 25.7458 -1.68973 45.7288 25.7458 -1.68973
427 1 46.6748 24.0758 -0.0802045 46.6748 24.0758 -0.0802045
428 2 48.5778 24.052 1.54861 48.5778 24.052 1.54861
429 2 48.5744 24.0995 -1.71323 48.5744 24.0995 -1.71323
430 1 49.5268 25.7221 -0.0592606 49.5268 25.7221 -0.0592606
431 2 51.4363 25.6981 1.56184 51.4363 25.6981 1.56184
432 2 51.4197 25.746 -1.69995 51.4197 25.746 -1.69995
433 1 1.0465 27.3684 -0.0496597 1.0465 27.3684 -0.0496597
434 2 2.96154 27.3453 1.565 2.96154 27.3453 1.565
435 2 2.93388 27.3915 -1.69673 2.93388 27.3915 -1.69673
436 1 3.89836 29.0148 -0.0505044 3.89836 29.0148 -0.0505044
437 2 5.81724 28.9935 1.55965 5.81724 28.9935 1.55965
438 2 5.78181 29.0362 -1.70206 5.78181 29.0362 -1.70206
439 1 6.75006 27.3685 -0.103112 6.75006 27.3685 -0.103112
440 2 8.67079 27.3443 1.50478 8.67079 27.3443 1.50478
441 2 8.63159 27.3927 -1.75681 8.63159 27.3927 -1.75681
442 1 9.60181 29.0149 -0.112942 9.60181 29.0149 -0.112942
443 2 11.5222 28.9924 1.49538 11.5222 28.9924 1.49538
444 2 11.4836 29.0375 -1.76627 11.4836 29.0375 -1.76627
445 1 12.4534 27.3687 -0.169505 12.4534 27.3687 -0.169505
446 2 14.3714 27.3434 1.44175 14.3714 27.3434 1.44175
447 2 14.3378 27.394 -1.81987 14.3378 27.394 -1.81987
448 1 15.3052 29.0151 -0.173226 15.3052 29.0151 -0.173226
449 2 17.2187 28.9914 1.4434 17.2187 28.9914 1.4434
450 2 17.1941 29.0388 -1.81836 17.1941 29.0388 -1.81836
451 1 18.1569 27.3689 -0.21861 18.1569 27.3689 -0.21861
452 2 20.0643 27.3429 1.40521 20.0643 27.3429 1.40521
453 2 20.052 27.3949 -1.85654 20.052 27.3949 -1.85654
454 1 21.0088 29.0152 -0.202895 21.0088 29.0152 -0.202895
455 2 22.9095 28.991 1.42878 22.9095 28.991 1.42878
456 2 22.9105 29.0395 -1.83306 22.9105 29.0395 -1.83306
457 1 23.8606 27.369 -0.226363 23.8606 27.369 -0.226363
458 2 25.7542 27.343 1.41365 25.7542 27.343 1.41365
459 2 25.7696 27.3949 -1.8481 25.7696 27.3949 -1.8481
460 1 26.7124 29.0152 -0.186423 26.7124 29.0152 -0.186423
461 2 28.6005 28.9914 1.45992 28.6005 28.9914 1.45992
462 2 28.6267 29.0391 -1.80182 28.6267 29.0391 -1.80182
463 1 29.5642 27.3689 -0.187385 29.5642 27.3689 -0.187385
464 2 31.4475 27.3439 1.46437 31.4475 27.3439 1.46437
465 2 31.4832 27.3938 -1.79724 31.4832 27.3938 -1.79724
466 1 32.4158 29.0151 -0.130667 32.4158 29.0151 -0.130667
467 2 34.2981 28.9925 1.52233 34.2981 28.9925 1.52233
468 2 34.3359 29.0377 -1.73932 34.3359 29.0377 -1.73932
469 1 35.2676 27.3687 -0.120296 35.2676 27.3687 -0.120296
470 2 37.15 27.3449 1.53244 37.15 27.3449 1.53244
471 2 37.1875 27.3924 -1.72918 37.1875 27.3924 -1.72918
472 1 38.1192 29.0149 -0.0633093 38.1192 29.0149 -0.0633093
473 2 40.0055 28.9935 1.58494 40.0055 28.9935 1.58494
474 2 40.0353 29.0363 -1.67682 40.0353 29.0363 -1.67682
475 1 40.9711 27.3685 -0.0589296 40.9711 27.3685 -0.0589296
476 2 42.8619 27.3455 1.58401 42.8619 27.3455 1.58401
477 2 42.8826 27.3915 -1.67778 42.8826 27.3915 -1.67778
478 1 43.8229 29.0148 -0.0175546 43.8229 29.0148 -0.0175546
479 2 45.7205 28.9941 1.61767 45.7205 28.9941 1.61767
480 2 45.7279 29.0355 -1.64423 45.7279 29.0355 -1.64423
481 1 46.6748 27.3684 -0.0320883 46.6748 27.3684 -0.0320883
482 2 48.5785 27.3457 1.59601 48.5785 27.3457 1.59601
483 2 48.5738 27.3911 -1.66585 48.5738 27.3911 -1.66585
484 1 49.5268 29.0148 -0.0133216 49.5268 29.0148 -0.0133216
485 2 51.4368 28.9941 1.60727 51.4368 28.9941 1.60727
486 2 51.4192 29.0354 -1.65459 51.4192 29.0354 -1.65459
487 1 1.04655 30.6612 -0.00788703 1.04655 30.6612 -0.00788703
488 2 2.96189 30.6435 1.60654 2.96189 30.6435 1.60654
489 2 2.93366 30.6789 -1.65532 2.93366 30.6789 -1.65532
490 1 3.89842 32.3077 -0.0146665 3.89842 32.3077 -0.0146665
491 2 5.81737 32.2936 1.59553 5.81737 32.2936 1.59553
492 2 5.78182 32.3217 -1.66633 5.78182 32.3217 -1.66633
493 1 6.75016 30.6613 -0.0599056 6.75016 30.6613 -0.0599056
494 2 8.67084 30.6426 1.54817 8.67084 30.6426 1.54817
495 2 8.63174 30.6799 -1.71357 8.63174 30.6799 -1.71357
496 1 9.60189 32.3077 -0.0751775 9.60189 32.3077 -0.0751775
497 2 11.5221 32.2925 1.53352 11.5221 32.2925 1.53352
498 2 11.4839 32.3229 -1.7283 11.4839 32.3229 -1.7283
499 1 12.4535 30.6614 -0.12384 12.4535 30.6614 -0.12384
500 2 14.3714 30.6414 1.48761 14.3714 30.6414 1.48761
501 2 14.3379 30.6814 -1.77417 14.3379 30.6814 -1.77417
502 1 15.3053 32.3078 -0.13273 15.3053 32.3078 -0.13273
503 2 17.2186 32.2913 1.48419 17.2186 32.2913 1.48419
504 2 17.1943 32.3245 -1.77776 17.1943 32.3245 -1.77776
505 1 18.157 30.6615 -0.170604 18.157 30.6615 -0.170604
506 2 20.0646 30.6404 1.45308 20.0646 30.6404 1.45308
507 2 20.0518 30.6827 -1.80883 20.0518 30.6827 -1.80883
508 1 21.0088 32.3079 -0.160136 21.0088 32.3079 -0.160136
509 2 22.9097 32.2904 1.47134 22.9097 32.2904 1.47134
510 2 22.9102 32.3255 -1.79068 22.9102 32.3255 -1.79068
511 1 23.8606 30.6616 -0.177186 23.8606 30.6616 -0.177186
512 2 25.7548 30.6402 1.46205 25.7548 30.6402 1.46205
513 2 25.7687 30.683 -1.79985 25.7687 30.683 -1.79985
514 1 26.7123 32.3079 -0.143111 26.7123 32.3079 -0.143111
515 2 28.6013 32.2906 1.50225 28.6013 32.2906 1.50225
516 2 28.6257 32.3253 -1.75967 28.6257 32.3253 -1.75967
517 1 29.5641 30.6615 -0.139085 29.5641 30.6615 -0.139085
518 2 31.4487 30.641 1.51126 31.4487 30.641 1.51126
519 2 31.4818 30.682 -1.75051 31.4818 30.682 -1.75051
520 1 32.4157 32.3078 -0.0891221 32.4157 32.3078 -0.0891221
521 2 34.2993 32.2917 1.56243 34.2993 32.2917 1.56243
522 2 34.3344 32.324 -1.6994 34.3344 32.324 -1.6994
523 1 35.2674 30.6614 -0.0745272 35.2674 30.6614 -0.0745272
524 2 37.1512 30.6422 1.57675 37.1512 30.6422 1.57675
525 2 37.186 30.6805 -1.68502 37.186 30.6805 -1.68502
526 1 38.1191 32.3077 -0.0245322 38.1191 32.3077 -0.0245322
527 2 40.0066 32.2929 1.62246 40.0066 32.2929 1.62246
528 2 40.034 32.3226 -1.63946 40.034 32.3226 -1.63946
529 1 40.971 30.6612 -0.0155302 40.971 30.6612 -0.0155302
530 2 42.8629 30.6431 1.62628 42.8629 30.6431 1.62628
531 2 42.8815 30.6793 -1.63563 42.8815 30.6793 -1.63563
532 1 43.8229 32.3076 0.0191302 43.8229 32.3076 0.0191302
533 2 45.7213 32.2936 1.65342 45.7213 32.2936 1.65342
534 2 45.727 32.3217 -1.60861 45.727 32.3217 -1.60861
535 1 46.6748 30.6612 0.00989477 46.6748 30.6612 0.00989477
536 2 48.5792 30.6436 1.63722 48.5792 30.6436 1.63722
537 2 48.573 30.6787 -1.62475 48.573 30.6787 -1.62475
538 1 49.5268 32.3076 0.0222401 49.5268 32.3076 0.0222401
539 2 51.4374 32.294 1.64232 51.4374 32.294 1.64232