ITEM: TIMESTEP
91000
ITEM: NUMBER OF ATOMS
810
ITEM: BOX BOUNDS pp pp pp
8.4234364447096799e-01 5.2175261355527844e+01
8.1209009705870583e-01 5.0204124902940357e+01
-1.0000000000000000e+01 1.0000000000000000e+01
ITEM: ATOMS id type x y z xu yu zu
1 1 1.04586 1.02633 -0.163355 1.04586 1.02633 -0.163355
2 2 2.94465 1.01474 1.47055 2.94465 1.01474 1.47055
3 2 2.94951 1.03791 -1.79155 2.94951 1.03791 -1.79155
4 1 3.89768 2.6727 -0.147332 3.89768 2.6727 -0.147332
5 2 5.79665 2.66212 1.48638 5.79665 2.66212 1.48638
6 2 5.80115 2.68327 -1.77574 5.80115 2.68327 -1.77574
7 1 6.74952 1.02631 -0.154062 6.74952 1.02631 -0.154062
8 2 8.64843 1.01497 1.47969 8.64843 1.01497 1.47969
9 2 8.65304 1.03764 -1.78242 8.65304 1.03764 -1.78242
10 1 9.60134 2.67268 -0.138531 9.60134 2.67268 -0.138531
11 2 11.5009 2.66231 1.49446 11.5009 2.66231 1.49446
12 2 11.5042 2.68306 -1.76766 11.5042 2.68306 -1.76766
13 1 12.4532 1.0263 -0.146135 12.4532 1.0263 -0.146135
14 2 14.3533 1.01535 1.48625 14.3533 1.01535 1.48625
15 2 14.3555 1.03726 -1.77586 14.3555 1.03726 -1.77586
16 1 15.305 2.67269 -0.133043 15.305 2.67269 -0.133043
17 2 17.2063 2.66238 1.49799 17.2063 2.66238 1.49799
18 2 17.2062 2.68301 -1.76413 17.2062 2.68301 -1.76413
19 1 18.1568 1.02631 -0.14353 18.1568 1.02631 -0.14353
20 2 20.059 1.01552 1.48636 20.059 1.01552 1.48636
21 2 20.0571 1.03712 -1.77575 20.0571 1.03712 -1.77575
22 1 21.0087 2.67271 -0.134343 21.0087 2.67271 -0.134343
23 2 22.912 2.66215 1.49426 22.912 2.66215 1.49426
24 2 22.9078 2.6833 -1.76786 22.9078 2.6833 -1.76786
25 1 23.8605 1.02634 -0.148721 23.8605 1.02634 -0.148721
26 2 25.7645 1.01541 1.47904 25.7645 1.01541 1.47904
27 2 25.7589 1.03729 -1.78307 25.7589 1.03729 -1.78307
28 1 26.7123 2.67275 -0.142589 26.7123 2.67275 -0.142589
29 2 28.6168 2.66187 1.48464 28.6168 2.66187 1.48464
30 2 28.6103 2.68364 -1.77746 28.6103 2.68364 -1.77746
31 1 29.5642 1.02638 -0.159327 29.5642 1.02638 -0.159327
32 2 31.4686 1.01528 1.46801 31.4686 1.01528 1.46801
33 2 31.4622 1.03749 -1.79409 31.4622 1.03749 -1.79409
34 1 32.416 2.67277 -0.153649 32.416 2.67277 -0.153649
35 2 34.32 2.66177 1.47414 34.32 2.66177 1.47414
36 2 34.3144 2.68379 -1.78797 34.3144 2.68379 -1.78797
37 1 35.2678 1.0264 -0.169694 35.2678 1.0264 -0.169694
38 2 37.1709 1.0151 1.45918 37.1709 1.0151 1.45918
39 2 37.1671 1.03769 -1.80293 37.1671 1.03769 -1.80293
40 1 38.1196 2.67278 -0.161531 38.1196 2.67278 -0.161531
41 2 40.0218 2.66172 1.46849 40.0218 2.66172 1.46849
42 2 40.0199 2.68383 -1.79362 40.0199 2.68383 -1.79362
43 1 40.9715 1.02639 -0.174283 40.9715 1.02639 -0.174283
44 2 42.8724 1.01486 1.45714 42.8724 1.01486 1.45714
45 2 42.873 1.03791 -1.80497 42.873 1.03791 -1.80497
46 1 43.8233 2.67276 -0.162063 43.8233 2.67276 -0.162063
47 2 45.7235 2.66181 1.47027 45.7235 2.66181 1.47027
48 2 45.7256 2.6837 -1.79184 45.7256 2.6837 -1.79184
49 1 46.6751 1.02636 -0.171228 46.6751 1.02636 -0.171228
50 2 48.5745 1.01474 1.46204 48.5745 1.01474 1.46204
51 2 48.5782 1.03796 -1.80006 48.5782 1.03796 -1.80006
52 1 49.527 2.67273 -0.15614 49.527 2.67273 -0.15614
53 2 51.4261 2.66198 1.47736 51.4261 2.66198 1.47736
54 2 51.4302 2.68346 -1.78476 51.4302 2.68346 -1.78476
55 1 1.04586 4.3191 -0.141593 1.04586 4.3191 -0.141593
56 2 2.94504 4.30985 1.49188 2.94504 4.30985 1.49188
57 2 2.94911 4.32834 -1.77025 2.94911 4.32834 -1.77025
58 1 3.89768 5.96549 -0.128605 3.89768 5.96549 -0.128605
59 2 5.79698 5.95811 1.50475 5.79698 5.95811 1.50475
60 2 5.80082 5.97286 -1.7574 5.80082 5.97286 -1.7574
61 1 6.74951 4.31908 -0.13264 6.74951 4.31908 -0.13264
62 2 8.64883 4.30993 1.50067 8.64883 4.30993 1.50067
63 2 8.65263 4.32823 -1.76146 8.65263 4.32823 -1.76146
64 1 9.60134 5.96548 -0.119994 9.60134 5.96548 -0.119994
65 2 11.5011 5.95791 1.51277 11.5011 5.95791 1.51277
66 2 11.504 5.97305 -1.74938 11.504 5.97305 -1.74938
67 1 12.4532 4.31908 -0.12512 12.4532 4.31908 -0.12512
68 2 14.3536 4.30984 1.5069 14.3536 4.30984 1.5069
69 2 14.3552 4.32833 -1.75523 14.3552 4.32833 -1.75523
70 1 15.305 5.96548 -0.114328 15.305 5.96548 -0.114328
71 2 17.2063 5.95738 1.51666 17.2063 5.95738 1.51666
72 2 17.2061 5.9736 -1.74548 17.2061 5.9736 -1.74548
73 1 18.1568 4.31909 -0.122644 18.1568 4.31909 -0.122644
74 2 20.0592 4.30947 1.50711 20.0592 4.30947 1.50711
75 2 20.0569 4.32873 -1.75501 20.0569 4.32873 -1.75501
76 1 21.0087 5.9655 -0.114851 21.0087 5.9655 -0.114851
77 2 22.9119 5.95665 1.51387 22.9119 5.95665 1.51387
78 2 22.9079 5.97437 -1.74826 22.9079 5.97437 -1.74826
79 1 23.8605 4.31912 -0.12732 23.8605 4.31912 -0.12732
80 2 25.7646 4.30897 1.5004 25.7646 4.30897 1.5004
81 2 25.7589 4.32928 -1.76171 25.7589 4.32928 -1.76171
82 1 26.7123 5.96553 -0.122036 26.7123 5.96553 -0.122036
83 2 28.6169 5.95614 1.50518 28.6169 5.95614 1.50518
84 2 28.6103 5.97493 -1.75694 28.6103 5.97493 -1.75694
85 1 29.5642 4.31915 -0.137296 29.5642 4.31915 -0.137296
86 2 31.4687 4.30875 1.48988 31.4687 4.30875 1.48988
87 2 31.462 4.32957 -1.77223 31.462 4.32957 -1.77223
88 1 32.416 5.96555 -0.13257 32.416 5.96555 -0.13257
89 2 34.3203 5.95614 1.49496 34.3203 5.95614 1.49496
90 2 34.3142 5.97497 -1.76717 34.3142 5.97497 -1.76717
91 1 35.2678 4.31917 -0.147399 35.2678 4.31917 -0.147399
92 2 37.1711 4.30882 1.48122 37.1711 4.30882 1.48122
93 2 37.1669 4.32952 -1.7809 37.1669 4.32952 -1.7809
94 1 38.1196 5.96556 -0.140563 38.1196 5.96556 -0.140563
95 2 40.0222 5.95656 1.48903 40.0222 5.95656 1.48903
96 2 40.0196 5.97455 -1.77311 40.0196 5.97455 -1.77311
97 1 40.9715 4.31916 -0.151884 40.9715 4.31916 -0.151884
98 2 42.8727 4.3091 1.47918 42.8727 4.3091 1.47918
99 2 42.8727 4.3292 -1.78295 42.8727 4.3292 -1.78295
100 1 43.8233 5.96554 -0.141691 43.8233 5.96554 -0.141691
101 2 45.724 5.95727 1.49005 45.724 5.95727 1.49005
102 2 45.725 5.97379 -1.7721 45.725 5.97379 -1.7721
103 1 46.6751 4.31913 -0.149052 46.6751 4.31913 -0.149052
104 2 48.5749 4.30955 1.48375 48.5749 4.30955 1.48375
105 2 48.5778 4.32869 -1.77838 48.5778 4.32869 -1.77838
106 1 49.5269 5.96551 -0.136746 49.5269 5.96551 -0.136746
107 2 51.4266 5.95792 1.49622 51.4266 5.95792 1.49622
108 2 51.4297 5.97309 -1.76593 51.4297 5.97309 -1.76593
109 1 1.04586 7.6119 -0.126215 1.04586 7.6119 -0.126215
110 2 2.94544 7.60662 1.50683 2.94544 7.60662 1.50683
111 2 2.94872 7.61718 -1.75533 2.94872 7.61718 -1.75533
112 1 3.89769 9.25831 -0.117906 3.89769 9.25831 -0.117906
113 2 5.79715 9.25538 1.51528 5.79715 9.25538 1.51528
114 2 5.80066 9.26124 -1.7469 5.80066 9.26124 -1.7469
115 1 6.74951 7.61189 -0.117708 6.74951 7.61189 -0.117708
116 2 8.64896 7.6065 1.51548 8.64896 7.6065 1.51548
117 2 8.6525 7.61728 -1.74669 8.6525 7.61728 -1.74669
118 1 9.60134 9.2583 -0.109086 9.60134 9.2583 -0.109086
119 2 11.501 9.25481 1.52388 11.501 9.25481 1.52388
120 2 11.5041 9.26181 -1.7383 11.5041 9.26181 -1.7383
121 1 12.4532 7.61188 -0.109789 12.4532 7.61188 -0.109789
122 2 14.3535 7.60586 1.52232 14.3535 7.60586 1.52232
123 2 14.3553 7.61792 -1.73984 14.3553 7.61792 -1.73984
124 1 15.305 9.2583 -0.102132 15.305 9.2583 -0.102132
125 2 17.206 9.25372 1.5293 17.206 9.25372 1.5293
126 2 17.2065 9.2629 -1.73287 17.2065 9.2629 -1.73287
127 1 18.1568 7.61189 -0.106237 18.1568 7.61189 -0.106237
128 2 20.059 7.60491 1.5238 20.059 7.60491 1.5238
129 2 20.0572 7.6189 -1.73835 20.0572 7.6189 -1.73835
130 1 21.0087 9.25832 -0.100711 21.0087 9.25832 -0.100711
131 2 22.9116 9.25256 1.52846 22.9116 9.25256 1.52846
132 2 22.9083 9.26409 -1.7337 22.9083 9.26409 -1.7337
133 1 23.8605 7.61191 -0.109388 23.8605 7.61191 -0.109388
134 2 25.7644 7.60407 1.51854 25.7644 7.60407 1.51854
135 2 25.759 7.61978 -1.7436 25.759 7.61978 -1.7436
136 1 26.7123 9.25833 -0.106133 26.7123 9.25833 -0.106133
137 2 28.6168 9.25187 1.5212 28.6168 9.25187 1.5212
138 2 28.6103 9.26482 -1.74095 28.6103 9.26482 -1.74095
139 1 29.5642 7.61194 -0.11828 29.5642 7.61194 -0.11828
140 2 31.4689 7.60378 1.50877 31.4689 7.60378 1.50877
141 2 31.4619 7.62011 -1.75337 31.4619 7.62011 -1.75337
142 1 32.416 9.25835 -0.11602 32.416 9.25835 -0.11602
143 2 34.3206 9.25197 1.51116 34.3206 9.25197 1.51116
144 2 34.3139 9.26475 -1.75099 34.3139 9.26475 -1.75099
145 1 35.2678 7.61195 -0.12832 35.2678 7.61195 -0.12832
146 2 37.1716 7.60416 1.49985 37.1716 7.60416 1.49985
147 2 37.1665 7.61975 -1.7623 37.1665 7.61975 -1.7623
148 1 38.1197 9.25836 -0.124755 38.1197 9.25836 -0.124755
149 2 40.0228 9.25286 1.50411 40.0228 9.25286 1.50411
150 2 40.0189 9.26386 -1.75806 40.0189 9.26386 -1.75806
151 1 40.9715 7.61195 -0.133654 40.9715 7.61195 -0.133654
152 2 42.8734 7.60505 1.49672 42.8734 7.60505 1.49672
153 2 42.872 7.61884 -1.76544 42.872 7.61884 -1.76544
154 1 43.8233 9.25835 -0.127707 43.8233 9.25835 -0.127707
155 2 45.7248 9.25413 1.50315 45.7248 9.25413 1.50315
156 2 45.7243 9.26256 -1.75902 45.7243 9.26256 -1.75902
157 1 46.6751 7.61193 -0.132311 46.6751 7.61193 -0.132311
158 2 48.5755 7.60606 1.49977 48.5755 7.60606 1.49977
159 2 48.5772 7.61779 -1.76239 48.5772 7.61779 -1.76239
160 1 49.527 9.25833 -0.124854 49.527 9.25833 -0.124854
161 2 51.4272 9.25515 1.50747 51.4272 9.25515 1.50747
162 2 51.4292 9.2615 -1.75471 51.4292 9.2615 -1.75471
163 1 1.04587 10.9047 -0.11977 1.04587 10.9047 -0.11977
164 2 2.94578 10.9042 1.5129 2.94578 10.9042 1.5129
165 2 2.94838 10.9052 -1.74929 2.94838 10.9052 -1.74929
166 1 3.8977 12.5512 -0.116885 3.8977 12.5512 -0.116885
167 2 5.79717 12.5531 1.51629 5.79717 12.5531 1.51629
168 2 5.80065 12.5492 -1.74589 5.80065 12.5492 -1.74589
169 1 6.74951 10.9047 -0.111787 6.74951 10.9047 -0.111787
170 2 8.64882 10.904 1.52159 8.64882 10.904 1.52159
171 2 8.65265 10.9055 -1.74059 8.65265 10.9055 -1.74059
172 1 9.60135 12.5511 -0.107611 9.60135 12.5511 -0.107611
173 2 11.5005 12.5523 1.52592 11.5005 12.5523 1.52592
174 2 11.5046 12.55 -1.73626 11.5046 12.55 -1.73626
175 1 12.4532 10.9047 -0.102725 12.4532 10.9047 -0.102725
176 2 14.3531 10.9029 1.52995 14.3531 10.9029 1.52995
177 2 14.3557 10.9065 -1.73223 14.3557 10.9065 -1.73223
178 1 15.305 12.5512 -0.0985373 15.305 12.5512 -0.0985373
179 2 17.2053 12.5509 1.53373 17.2053 12.5509 1.53373
180 2 17.2072 12.5514 -1.72845 17.2072 12.5514 -1.72845
181 1 18.1568 10.9047 -0.0969635 18.1568 10.9047 -0.0969635
182 2 20.0584 10.9016 1.53375 20.0584 10.9016 1.53375
183 2 20.0577 10.9079 -1.72843 20.0577 10.9079 -1.72843
184 1 21.0087 12.5512 -0.0943168 21.0087 12.5512 -0.0943168
185 2 22.911 12.5496 1.53556 22.911 12.5496 1.53556
186 2 22.9088 12.5528 -1.72662 22.9088 12.5528 -1.72662
187 1 23.8605 10.9047 -0.0977275 23.8605 10.9047 -0.0977275
188 2 25.7641 10.9005 1.53062 25.7641 10.9005 1.53062
189 2 25.7594 10.909 -1.73155 25.7594 10.909 -1.73155
190 1 26.7124 12.5512 -0.0975026 26.7124 12.5512 -0.0975026
191 2 28.6166 12.5488 1.53007 28.6166 12.5488 1.53007
192 2 28.6105 12.5536 -1.7321 28.6105 12.5536 -1.7321
193 1 29.5642 10.9048 -0.105171 29.5642 10.9048 -0.105171
194 2 31.469 10.9002 1.52179 31.469 10.9002 1.52179
195 2 31.4618 10.9094 -1.74038 31.4618 10.9094 -1.74038
196 1 32.416 12.5512 -0.106657 32.416 12.5512 -0.106657
197 2 34.3209 12.5489 1.52015 34.3209 12.5489 1.52015
198 2 34.3135 12.5535 -1.74203 34.3135 12.5535 -1.74203
199 1 35.2678 10.9048 -0.115365 35.2678 10.9048 -0.115365
200 2 37.1721 10.9008 1.51217 37.1721 10.9008 1.51217
201 2 37.166 10.9088 -1.75001 37.166 10.9088 -1.75001
202 1 38.1197 12.5512 -0.116606 38.1197 12.5512 -0.116606
203 2 40.0236 12.5501 1.51133 40.0236 12.5501 1.51133
204 2 40.0181 12.5523 -1.75085 40.0181 12.5523 -1.75085
205 1 40.9715 10.9048 -0.122489 40.9715 10.9048 -0.122489
206 2 42.8742 10.9021 1.50692 42.8742 10.9021 1.50692
207 2 42.8712 10.9074 -1.75526 42.8712 10.9074 -1.75526
208 1 43.8233 12.5512 -0.122291 43.8233 12.5512 -0.122291
209 2 45.7257 12.5516 1.50754 45.7257 12.5516 1.50754
210 2 45.7234 12.5508 -1.75464 45.7234 12.5508 -1.75464
211 1 46.6751 10.9048 -0.123757 46.6751 10.9048 -0.123757
212 2 48.5763 10.9035 1.50745 48.5763 10.9035 1.50745
213 2 48.5764 10.906 -1.75473 48.5764 10.906 -1.75473
214 1 49.527 12.5512 -0.122278 49.527 12.5512 -0.122278
215 2 51.4277 12.5528 1.50938 51.4277 12.5528 1.50938
216 2 51.4286 12.5495 -1.7528 51.4286 12.5495 -1.7528
217 1 1.04588 14.1976 -0.123055 1.04588 14.1976 -0.123055
218 2 2.94606 14.2018 1.5093 2.94606 14.2018 1.5093
219 2 2.94813 14.1934 -1.75288 2.94813 14.1934 -1.75288
220 1 3.89771 15.844 -0.125398 3.89771 15.844 -0.125398
221 2 5.7971 15.8503 1.50787 5.7971 15.8503 1.50787
222 2 5.80075 15.8377 -1.75429 5.80075 15.8377 -1.75429
223 1 6.74953 14.1976 -0.115695 6.74953 14.1976 -0.115695
224 2 8.64849 14.2015 1.51808 8.64849 14.2015 1.51808
225 2 8.653 14.1936 -1.7441 8.653 14.1936 -1.7441
226 1 9.60136 15.844 -0.1157 9.60136 15.844 -0.1157
227 2 11.4999 15.8496 1.51858 11.4999 15.8496 1.51858
228 2 11.5053 15.8383 -1.74358 11.5053 15.8383 -1.74358
229 1 12.4532 14.1976 -0.105136 12.4532 14.1976 -0.105136
230 2 14.3523 14.2004 1.52842 14.3523 14.2004 1.52842
231 2 14.3565 14.1947 -1.73376 14.3565 14.1947 -1.73376
232 1 15.305 15.844 -0.104304 15.305 15.844 -0.104304
233 2 17.2044 15.8483 1.52899 17.2044 15.8483 1.52899
234 2 17.2081 15.8397 -1.73318 17.2081 15.8397 -1.73318
235 1 18.1568 14.1976 -0.096547 18.1568 14.1976 -0.096547
236 2 20.0576 14.1989 1.53509 20.0576 14.1989 1.53509
237 2 20.0585 14.1962 -1.72709 20.0585 14.1962 -1.72709
238 1 21.0087 15.844 -0.0970859 21.0087 15.844 -0.0970859
239 2 22.9103 15.8471 1.53363 22.9103 15.8471 1.53363
240 2 22.9096 15.8409 -1.72855 22.9096 15.8409 -1.72855
241 1 23.8605 14.1976 -0.0945021 23.8605 14.1976 -0.0945021
242 2 25.7636 14.1978 1.53441 25.7636 14.1978 1.53441
243 2 25.7599 14.1974 -1.72777 25.7599 14.1974 -1.72777
244 1 26.7124 15.844 -0.0979848 26.7124 15.844 -0.0979848
245 2 28.6163 15.8464 1.52994 28.6163 15.8464 1.52994
246 2 28.6109 15.8417 -1.73223 28.6109 15.8417 -1.73223
247 1 29.5642 14.1976 -0.100324 29.5642 14.1976 -0.100324
248 2 31.469 14.1975 1.52662 31.469 14.1975 1.52662
249 2 31.4618 14.1977 -1.73556 31.4618 14.1977 -1.73556
250 1 32.416 15.844 -0.106384 32.416 15.844 -0.106384
251 2 34.3212 15.8465 1.52014 34.3212 15.8465 1.52014
252 2 34.3133 15.8416 -1.74204 34.3133 15.8416 -1.74204
253 1 35.2679 14.1976 -0.110759 35.2679 14.1976 -0.110759
254 2 37.1727 14.1981 1.51609 37.1727 14.1981 1.51609
255 2 37.1654 14.1971 -1.74609 37.1654 14.1971 -1.74609
256 1 38.1197 15.844 -0.117596 38.1197 15.844 -0.117596
257 2 40.0244 15.8475 1.50947 40.0244 15.8475 1.50947
258 2 40.0174 15.8406 -1.7527 40.0174 15.8406 -1.7527
259 1 40.9715 14.1976 -0.120146 40.9715 14.1976 -0.120146
260 2 42.8751 14.1995 1.50821 42.8751 14.1995 1.50821
261 2 42.8703 14.1957 -1.75397 42.8703 14.1957 -1.75397
262 1 43.8233 15.844 -0.126178 43.8233 15.844 -0.126178
263 2 45.7265 15.8489 1.50269 45.7265 15.8489 1.50269
264 2 45.7226 15.8391 -1.75948 45.7226 15.8391 -1.75948
265 1 46.6751 14.1976 -0.124577 46.6751 14.1976 -0.124577
266 2 48.5771 14.201 1.50575 48.5771 14.201 1.50575
267 2 48.5757 14.1942 -1.75643 48.5757 14.1942 -1.75643
268 1 49.527 15.844 -0.129129 49.527 15.844 -0.129129
269 2 51.4282 15.85 1.50195 51.4282 15.85 1.50195
270 2 51.4282 15.838 -1.76021 51.4282 15.838 -1.76021
271 1 1.04589 17.4904 -0.135182 1.04589 17.4904 -0.135182
272 2 2.94623 17.4985 1.49696 2.94623 17.4985 1.49696
273 2 2.94799 17.4823 -1.76518 2.94799 17.4823 -1.76518
274 1 3.89772 19.1368 -0.141738 3.89772 19.1368 -0.141738
275 2 5.79697 19.1464 1.49167 5.79697 19.1464 1.49167
276 2 5.80091 19.1272 -1.77046 5.80091 19.1272 -1.77046
277 1 6.74954 17.4904 -0.12852 6.74954 17.4904 -0.12852
278 2 8.6481 17.4984 1.50571 8.6481 17.4984 1.50571
279 2 8.65342 17.4824 -1.75644 8.65342 17.4824 -1.75644
280 1 9.60137 19.1368 -0.131854 9.60137 19.1368 -0.131854
281 2 11.4993 19.146 1.50313 11.4993 19.146 1.50313
282 2 11.5059 19.1276 -1.759 11.5059 19.1276 -1.759
283 1 12.4532 17.4904 -0.116636 12.4532 17.4904 -0.116636
284 2 14.3515 17.4975 1.51787 14.3515 17.4975 1.51787
285 2 14.3573 17.4833 -1.74428 14.3573 17.4833 -1.74428
286 1 15.305 19.1368 -0.118638 15.305 19.1368 -0.118638
287 2 17.2035 19.1451 1.51563 17.2035 19.1451 1.51563
288 2 17.209 19.1285 -1.74651 17.209 19.1285 -1.74651
289 1 18.1568 17.4904 -0.105385 18.1568 17.4904 -0.105385
290 2 20.0568 17.4963 1.52724 20.0568 17.4963 1.52724
291 2 20.0594 17.4846 -1.73492 20.0594 17.4846 -1.73492
292 1 21.0087 19.1368 -0.109006 21.0087 19.1368 -0.109006
293 2 22.9096 19.1443 1.52251 22.9096 19.1443 1.52251
294 2 22.9103 19.1294 -1.73964 22.9103 19.1294 -1.73964
295 1 23.8605 17.4904 -0.100753 23.8605 17.4904 -0.100753
296 2 25.7631 17.4954 1.5288 25.7631 17.4954 1.5288
297 2 25.7604 17.4855 -1.73337 25.7604 17.4855 -1.73337
298 1 26.7124 19.1369 -0.108073 26.7124 19.1369 -0.108073
299 2 28.6159 19.1438 1.52028 28.6159 19.1438 1.52028
300 2 28.6112 19.1299 -1.74187 28.6112 19.1299 -1.74187
301 1 29.5642 17.4905 -0.105088 29.5642 17.4905 -0.105088
302 2 31.4689 17.4951 1.52198 31.4689 17.4951 1.52198
303 2 31.462 17.4858 -1.74019 31.462 17.4858 -1.74019
304 1 32.416 19.1369 -0.115802 32.416 19.1369 -0.115802
305 2 34.3212 19.1438 1.51066 34.3212 19.1438 1.51066
306 2 34.3133 19.1299 -1.75148 34.3133 19.1299 -1.75148
307 1 35.2679 17.4905 -0.115672 35.2679 17.4905 -0.115672
308 2 37.1732 17.4955 1.51069 37.1732 17.4955 1.51069
309 2 37.165 17.4854 -1.75147 37.165 17.4854 -1.75147
310 1 38.1197 19.1369 -0.127883 38.1197 19.1369 -0.127883
311 2 40.0248 19.1444 1.49864 40.0248 19.1444 1.49864
312 2 40.017 19.1293 -1.7635 40.017 19.1293 -1.7635
313 1 40.9715 17.4904 -0.127074 40.9715 17.4904 -0.127074
314 2 42.8758 17.4966 1.50043 42.8758 17.4966 1.50043
315 2 42.8696 17.4842 -1.76173 42.8696 17.4842 -1.76173
316 1 43.8233 19.1368 -0.138693 43.8233 19.1368 -0.138693
317 2 45.727 19.1453 1.48952 45.727 19.1453 1.48952
318 2 45.7221 19.1283 -1.77262 45.7221 19.1283 -1.77262
319 1 46.6752 17.4904 -0.134406 46.6752 17.4904 -0.134406
320 2 48.5777 17.4978 1.49522 48.5777 17.4978 1.49522
321 2 48.5751 17.483 -1.76693 48.5751 17.483 -1.76693
322 1 49.527 19.1368 -0.144029 49.527 19.1368 -0.144029
323 2 51.4286 19.1461 1.48668 51.4286 19.1461 1.48668
324 2 51.4279 19.1275 -1.77546 51.4279 19.1275 -1.77546
325 1 1.0459 20.7832 -0.153953 1.0459 20.7832 -0.153953
326 2 2.94627 20.7937 1.47813 2.94627 20.7937 1.47813
327 2 2.94797 20.7726 -1.78399 2.94797 20.7726 -1.78399
328 1 3.89774 22.4296 -0.163087 3.89774 22.4296 -0.163087
329 2 5.79681 22.4408 1.47051 5.79681 22.4408 1.47051
330 2 5.8011 22.4183 -1.7916 5.8011 22.4183 -1.7916
331 1 6.74956 20.7832 -0.147923 6.74956 20.7832 -0.147923
332 2 8.64775 20.7937 1.4867 8.64775 20.7937 1.4867
333 2 8.6538 20.7726 -1.77541 8.6538 20.7726 -1.77541
334 1 9.60139 22.4296 -0.153278 9.60139 22.4296 -0.153278
335 2 11.4988 22.4407 1.48222 11.4988 22.4407 1.48222
336 2 11.5064 22.4184 -1.77988 11.5064 22.4184 -1.77988
337 1 12.4532 20.7832 -0.135286 12.4532 20.7832 -0.135286
338 2 14.3508 20.7933 1.50001 14.3508 20.7933 1.50001
339 2 14.358 20.773 -1.76211 14.358 20.773 -1.76211
340 1 15.305 22.4296 -0.139209 15.305 22.4296 -0.139209
341 2 17.2029 22.4405 1.49575 17.2029 22.4405 1.49575
342 2 17.2096 22.4187 -1.76635 17.2096 22.4187 -1.76635
343 1 18.1569 20.7832 -0.122268 18.1569 20.7832 -0.122268
344 2 20.0561 20.7928 1.51118 20.0561 20.7928 1.51118
345 2 20.0601 20.7737 -1.75094 20.0601 20.7737 -1.75094
346 1 21.0087 22.4296 -0.128335 21.0087 22.4296 -0.128335
347 2 22.909 22.4403 1.50381 22.909 22.4403 1.50381
348 2 22.9108 22.419 -1.7583 22.9108 22.419 -1.7583
349 1 23.8605 20.7833 -0.11589 23.8605 20.7833 -0.11589
350 2 25.7625 20.7923 1.51426 25.7625 20.7923 1.51426
351 2 25.761 20.7742 -1.74787 25.761 20.7742 -1.74787
352 1 26.7124 22.4297 -0.126418 26.7124 22.4297 -0.126418
353 2 28.6155 22.4401 1.50238 28.6155 22.4401 1.50238
354 2 28.6117 22.4192 -1.75973 28.6117 22.4192 -1.75973
355 1 29.5642 20.7833 -0.119182 29.5642 20.7833 -0.119182
356 2 31.4686 20.7921 1.50816 31.4686 20.7921 1.50816
357 2 31.4622 20.7744 -1.75397 31.4622 20.7744 -1.75397
358 1 32.416 22.4297 -0.133703 32.416 22.4297 -0.133703
359 2 34.321 22.44 1.49298 34.321 22.44 1.49298
360 2 34.3135 22.4193 -1.76913 34.3135 22.4193 -1.76913
361 1 35.2679 20.7833 -0.129729 35.2679 20.7833 -0.129729
362 2 37.1732 20.7922 1.49651 37.1732 20.7922 1.49651
363 2 37.1649 20.7743 -1.76562 37.1649 20.7743 -1.76562
364 1 38.1197 22.4296 -0.146037 38.1197 22.4296 -0.146037
365 2 40.0248 22.4401 1.48044 40.0248 22.4401 1.48044
366 2 40.017 22.4192 -1.78167 40.017 22.4192 -1.78167
367 1 40.9715 20.7832 -0.14231 40.9715 20.7832 -0.14231
368 2 42.8762 20.7927 1.48477 42.8762 20.7927 1.48477
369 2 42.8693 20.7738 -1.77735 42.8693 20.7738 -1.77735
370 1 43.8233 22.4296 -0.157863 43.8233 22.4296 -0.157863
371 2 45.7272 22.4403 1.47017 45.7272 22.4403 1.47017
372 2 45.7219 22.4189 -1.79194 45.7219 22.4189 -1.79194
373 1 46.6752 20.7832 -0.151548 46.6752 20.7832 -0.151548
374 2 48.578 20.7933 1.47771 48.578 20.7933 1.47771
375 2 48.5748 20.7731 -1.78441 48.5748 20.7731 -1.78441
376 1 49.527 22.4296 -0.16448 49.527 22.4296 -0.16448
377 2 51.4286 22.4406 1.46615 51.4286 22.4406 1.46615
378 2 51.4278 22.4185 -1.79596 51.4278 22.4185 -1.79596
379 1 1.04591 24.0759 -0.176294 1.04591 24.0759 -0.176294
380 2 2.94613 24.0872 1.45594 2.94613 24.0872 1.45594
381 2 2.94813 24.0646 -1.80617 2.94813 24.0646 -1.80617
382 1 3.89774 25.7223 -0.18597 3.89774 25.7223 -0.18597
383 2 5.79658 25.7333 1.44788 5.79658 25.7333 1.44788
384 2 5.80135 25.7113 -1.81423 5.80135 25.7113 -1.81423
385 1 6.74957 24.0759 -0.170636 6.74957 24.0759 -0.170636
386 2 8.64748 24.0873 1.46429 8.64748 24.0873 1.46429
387 2 8.65409 24.0645 -1.79781 8.65409 24.0645 -1.79781
388 1 9.6014 25.7223 -0.176364 9.6014 25.7223 -0.176364
389 2 11.4986 25.7335 1.45941 11.4986 25.7335 1.45941
390 2 11.5067 25.7111 -1.80268 11.5067 25.7111 -1.80268
391 1 12.4532 24.076 -0.157918 12.4532 24.076 -0.157918
392 2 14.3504 24.0874 1.47785 14.3504 24.0874 1.47785
393 2 14.3585 24.0645 -1.78425 14.3585 24.0645 -1.78425
394 1 15.305 25.7224 -0.162467 15.305 25.7224 -0.162467
395 2 17.2026 25.7339 1.47282 17.2026 25.7339 1.47282
396 2 17.2099 25.7108 -1.78928 17.2099 25.7108 -1.78928
397 1 18.1569 24.076 -0.144406 18.1569 24.076 -0.144406
398 2 20.0556 24.0875 1.48956 20.0556 24.0875 1.48956
399 2 20.0606 24.0645 -1.77254 20.0606 24.0645 -1.77254
400 1 21.0087 25.7224 -0.151708 21.0087 25.7224 -0.151708
401 2 22.9087 25.7343 1.48079 22.9087 25.7343 1.48079
402 2 22.9112 25.7105 -1.78131 22.9112 25.7105 -1.78131
403 1 23.8605 24.076 -0.137486 23.8605 24.076 -0.137486
404 2 25.7621 24.0876 1.49313 25.7621 24.0876 1.49313
405 2 25.7614 24.0645 -1.76897 25.7614 24.0645 -1.76897
406 1 26.7124 25.7224 -0.149836 26.7124 25.7224 -0.149836
407 2 28.6152 25.7345 1.47935 28.6152 25.7345 1.47935
408 2 28.612 25.7104 -1.78275 28.612 25.7104 -1.78275
409 1 29.5642 24.076 -0.140396 29.5642 24.076 -0.140396
410 2 31.4683 24.0876 1.48733 31.4683 24.0876 1.48733
411 2 31.4626 24.0645 -1.77477 31.4626 24.0645 -1.77477
412 1 32.416 25.7224 -0.157041 32.416 25.7224 -0.157041
413 2 34.3206 25.7344 1.47008 34.3206 25.7344 1.47008
414 2 34.3139 25.7104 -1.79201 34.3139 25.7104 -1.79201
415 1 35.2679 24.076 -0.150771 35.2679 24.076 -0.150771
416 2 37.173 24.0874 1.47575 37.173 24.0874 1.47575
417 2 37.1652 24.0647 -1.78634 37.1652 24.0647 -1.78634
418 1 38.1197 25.7224 -0.169076 38.1197 25.7224 -0.169076
419 2 40.0244 25.734 1.45786 40.0244 25.734 1.45786
420 2 40.0174 25.7108 -1.80424 40.0174 25.7108 -1.80424
421 1 40.9715 24.076 -0.163482 40.9715 24.076 -0.163482
422 2 42.876 24.0872 1.46374 42.876 24.0872 1.46374
423 2 42.8694 24.0648 -1.79836 42.8694 24.0648 -1.79836
424 1 43.8233 25.7224 -0.180602 43.8233 25.7224 -0.180602
425 2 45.7269 25.7336 1.44777 45.7269 25.7336 1.44777
426 2 45.7223 25.7111 -1.81433 45.7223 25.7111 -1.81433
427 1 46.6752 24.076 -0.173252 46.6752 24.076 -0.173252
428 2 48.5779 24.0872 1.45608 48.5779 24.0872 1.45608
429 2 48.5749 24.0647 -1.80603 48.5749 24.0647 -1.80603
430 1 49.527 25.7223 -0.187209 49.527 25.7223 -0.187209
431 2 51.4284 25.7334 1.44369 51.4284 25.7334 1.44369
432 2 51.4281 25.7113 -1.81842 51.4281 25.7113 -1.81842
433 1 1.04591 27.3687 -0.198624 1.04591 27.3687 -0.198624
434 2 2.94582 27.3789 1.43397 2.94582 27.3789 1.43397
435 2 2.94845 27.3585 -1.82815 2.94845 27.3585 -1.82815
436 1 3.89775 29.0151 -0.206698 3.89775 29.0151 -0.206698
437 2 5.7963 29.0241 1.42747 5.7963 29.0241 1.42747
438 2 5.80163 29.0061 -1.83466 5.80163 29.0061 -1.83466
439 1 6.74958 27.3687 -0.192937 6.74958 27.3687 -0.192937
440 2 8.64729 27.379 1.44222 8.64729 27.379 1.44222
441 2 8.65431 27.3584 -1.8199 8.65431 27.3584 -1.8199
442 1 9.60141 29.0151 -0.197237 9.60141 29.0151 -0.197237
443 2 11.4985 29.0244 1.43863 11.4985 29.0244 1.43863
444 2 11.5068 29.0058 -1.8235 11.5068 29.0058 -1.8235
445 1 12.4532 27.3687 -0.180632 12.4532 27.3687 -0.180632
446 2 14.3503 27.3795 1.45528 14.3503 27.3795 1.45528
447 2 14.3586 27.358 -1.80683 14.3586 27.358 -1.80683
448 1 15.3051 29.0151 -0.184231 15.3051 29.0151 -0.184231
449 2 17.2027 29.0251 1.45102 17.2027 29.0251 1.45102
450 2 17.2099 29.0051 -1.8111 17.2099 29.0051 -1.8111
451 1 18.1569 27.3687 -0.167815 18.1569 27.3687 -0.167815
452 2 20.0554 27.3801 1.4663 20.0554 27.3801 1.4663
453 2 20.0607 27.3574 -1.7958 20.0607 27.3574 -1.7958
454 1 21.0087 29.0151 -0.174714 21.0087 29.0151 -0.174714
455 2 22.9086 29.026 1.45781 22.9086 29.026 1.45781
456 2 22.9112 29.0043 -1.80431 22.9112 29.0043 -1.80431
457 1 23.8605 27.3688 -0.161572 23.8605 27.3688 -0.161572
458 2 25.7619 27.3806 1.46929 25.7619 27.3806 1.46929
459 2 25.7616 27.3569 -1.79281 25.7616 27.3569 -1.79281
460 1 26.7124 29.0152 -0.173857 26.7124 29.0152 -0.173857
461 2 28.615 29.0265 1.45555 28.615 29.0265 1.45555
462 2 28.6122 29.0039 -1.80656 28.6122 29.0039 -1.80656
463 1 29.5642 27.3688 -0.164852 29.5642 27.3688 -0.164852
464 2 31.4679 27.3808 1.46327 31.4679 27.3808 1.46327
465 2 31.4629 27.3568 -1.79882 31.4629 27.3568 -1.79882
466 1 32.416 29.0152 -0.181427 32.416 29.0152 -0.181427
467 2 34.3201 29.0265 1.44622 34.3201 29.0265 1.44622
468 2 34.3143 29.0039 -1.81589 34.3143 29.0039 -1.81589
469 1 35.2678 27.3688 -0.175071 35.2678 27.3688 -0.175071
470 2 37.1724 27.3805 1.45205 37.1724 27.3805 1.45205
471 2 37.1657 27.3571 -1.81005 37.1657 27.3571 -1.81005
472 1 38.1197 29.0152 -0.192853 38.1197 29.0152 -0.192853
473 2 40.0237 29.0259 1.43487 40.0237 29.0259 1.43487
474 2 40.018 29.0045 -1.82724 40.018 29.0045 -1.82724
475 1 40.9715 27.3688 -0.187023 40.9715 27.3688 -0.187023
476 2 42.8755 27.3798 1.44083 42.8755 27.3798 1.44083
477 2 42.87 27.3577 -1.82128 42.87 27.3577 -1.82128
478 1 43.8233 29.0151 -0.203061 43.8233 29.0151 -0.203061
479 2 45.7262 29.025 1.42606 45.7262 29.025 1.42606
480 2 45.7229 29.0053 -1.83606 45.7229 29.0053 -1.83606
481 1 46.6752 27.3687 -0.196 46.6752 27.3687 -0.196
482 2 48.5774 27.3793 1.43382 48.5774 27.3793 1.43382
483 2 48.5753 27.3582 -1.82829 48.5753 27.3582 -1.82829
484 1 49.527 29.0151 -0.208527 49.527 29.0151 -0.208527
485 2 51.4279 29.0243 1.42292 51.4279 29.0243 1.42292
486 2 51.4286 29.0059 -1.83921 51.4286 29.0059 -1.83921
487 1 1.04591 30.6615 -0.217315 1.04591 30.6615 -0.217315
488 2 2.94539 30.669 1.41578 2.94539 30.669 1.41578
489 2 2.94888 30.654 -1.84637 2.94888 30.654 -1.84637
490 1 3.89775 32.3079 -0.221901 3.89775 32.3079 -0.221901
491 2 5.796 32.3134 1.41262 5.796 32.3134 1.41262
492 2 5.80193 32.3024 -1.84954 5.80193 32.3024 -1.84954
493 1 6.74958 30.6615 -0.21118 6.74958 30.6615 -0.21118
494 2 8.64714 30.669 1.42415 8.64714 30.669 1.42415
495 2 8.65446 30.654 -1.838 8.65446 30.654 -1.838
496 1 9.60141 32.3079 -0.212392 9.60141 32.3079 -0.212392
497 2 11.4985 32.3137 1.42344 11.4985 32.3137 1.42344
498 2 11.5067 32.3022 -1.83872 11.5067 32.3022 -1.83872
499 1 12.4532 30.6615 -0.199461 12.4532 30.6615 -0.199461
500 2 14.3504 30.6696 1.43634 14.3504 30.6696 1.43634
501 2 14.3585 30.6535 -1.8258 14.3585 30.6535 -1.8258
502 1 15.3051 32.3079 -0.200519 15.3051 32.3079 -0.200519
503 2 17.2029 32.3145 1.43442 17.2029 32.3145 1.43442
504 2 17.2096 32.3013 -1.82773 17.2096 32.3013 -1.82773
505 1 18.1569 30.6615 -0.188084 18.1569 30.6615 -0.188084
506 2 20.0556 30.6705 1.44584 20.0556 30.6705 1.44584
507 2 20.0606 30.6525 -1.81629 20.0606 30.6525 -1.81629
508 1 21.0087 32.3079 -0.192892 21.0087 32.3079 -0.192892
509 2 22.9089 32.3156 1.43932 22.9089 32.3156 1.43932
510 2 22.9109 32.3003 -1.82283 22.9109 32.3003 -1.82283
511 1 23.8605 30.6615 -0.183462 23.8605 30.6615 -0.183462
512 2 25.7619 30.6714 1.44737 25.7619 30.6714 1.44737
513 2 25.7616 30.6517 -1.81476 25.7616 30.6517 -1.81476
514 1 26.7124 32.3079 -0.193772 26.7124 32.3079 -0.193772
515 2 28.615 32.3163 1.43562 28.615 32.3163 1.43562
516 2 28.6122 32.2996 -1.82652 28.6122 32.2996 -1.82652
517 1 29.5642 30.6616 -0.187799 29.5642 30.6616 -0.187799
518 2 31.4676 30.6718 1.44062 31.4676 30.6718 1.44062
519 2 31.4632 30.6514 -1.8215 31.4632 30.6514 -1.8215
520 1 32.416 32.308 -0.202111 32.416 32.308 -0.202111
521 2 34.3197 32.3164 1.42597 34.3197 32.3164 1.42597
522 2 34.3147 32.2995 -1.83617 34.3147 32.2995 -1.83617
523 1 35.2678 30.6616 -0.198013 35.2678 30.6616 -0.198013
524 2 37.1718 30.6714 1.42981 37.1718 30.6714 1.42981
525 2 37.1663 30.6517 -1.83231 37.1663 30.6517 -1.83231
526 1 38.1197 32.3079 -0.212887 38.1197 32.3079 -0.212887
527 2 40.023 32.3158 1.4157 40.023 32.3158 1.4157
528 2 40.0188 32.3001 -1.84644 40.0188 32.3001 -1.84644
529 1 40.9715 30.6615 -0.208707 40.9715 30.6615 -0.208707
530 2 42.8747 30.6705 1.42006 42.8747 30.6705 1.42006
531 2 42.8708 30.6526 -1.84207 42.8708 30.6526 -1.84207
532 1 43.8233 32.3079 -0.22128 43.8233 32.3079 -0.22128
533 2 45.7254 32.3147 1.40878 45.7254 32.3147 1.40878
534 2 45.7237 32.3012 -1.85338 45.7237 32.3012 -1.85338
535 1 46.6752 30.6615 -0.215966 46.6752 30.6615 -0.215966
536 2 48.5768 30.6696 1.41463 48.5768 30.6696 1.41463
537 2 48.576 30.6535 -1.84752 48.576 30.6535 -1.84752
538 1 49.527 32.3079 -0.224875 49.527 32.3079 -0.224875
539 2 51.4273 32.3138 1.40728 51.4273 32.3138 1.40728