ITEM: TIMESTEP
10000
ITEM: NUMBER OF ATOMS
810
ITEM: BOX BOUNDS pp pp pp
8.4926409874756092e-01 5.2168340901252087e+01
8.2220200308391389e-01 5.0194012996915582e+01
-1.0000000000000000e+01 1.0000000000000000e+01
ITEM: ATOMS id type x y z xu yu zu
1 1 1.05464 1.03348 0.107653 1.05464 1.03348 0.107653
2 2 2.99463 0.957356 1.69046 2.99463 0.957356 1.69046
3 2 2.91629 1.10946 -1.56721 2.91629 1.10946 -1.56721
4 1 3.90634 2.67871 0.115773 3.90634 2.67871 0.115773
5 2 5.85866 2.60674 1.6837 5.85866 2.60674 1.6837
6 2 5.75492 2.75072 -1.57361 5.75492 2.75072 -1.57361
7 1 6.75649 1.03429 -0.0480921 6.75649 1.03429 -0.0480921
8 2 8.71371 0.957784 1.51341 8.71371 0.957784 1.51341
9 2 8.59955 1.11095 -1.74317 8.59955 1.11095 -1.74317
10 1 9.6073 2.67988 -0.0706087 9.6073 2.67988 -0.0706087
11 2 11.5652 2.60751 1.49039 11.5652 2.60751 1.49039
12 2 11.4496 2.75265 -1.76654 11.4496 2.75265 -1.76654
13 1 12.4569 1.03593 -0.245236 12.4569 1.03593 -0.245236
14 2 14.4077 50.3307 1.32448 14.4077 0.958901 1.32448
15 2 14.3069 1.11354 -1.9325 14.3069 1.11354 -1.9325
16 1 15.3079 2.68165 -0.255054 15.3079 2.68165 -0.255054
17 2 17.2469 2.60805 1.32947 17.2469 2.60805 1.32947
18 2 17.1703 2.75596 -1.92854 17.1703 2.75596 -1.92854
19 1 18.1587 1.03785 -0.396675 18.1587 1.03785 -0.396675
20 2 20.0794 50.3323 1.20992 20.0794 0.960475 1.20992
21 2 20.0403 1.1159 -2.04835 20.0403 1.1159 -2.04835
22 1 21.0105 2.68324 -0.351837 21.0105 2.68324 -0.351837
23 2 22.9111 2.60818 1.2786 22.9111 2.60818 1.2786
24 2 22.9122 2.75889 -1.98018 22.9122 2.75889 -1.98018
25 1 23.8624 1.03897 -0.426644 23.8624 1.03897 -0.426644
26 2 25.741 0.961195 1.22912 25.741 0.961195 1.22912
27 2 25.786 1.11702 -2.02904 25.786 1.11702 -2.02904
28 1 26.7137 2.68361 -0.307829 26.7137 2.68361 -0.307829
29 2 28.5746 2.60736 1.36787 28.5746 2.60736 1.36787
30 2 28.654 2.75997 -1.88983 28.654 2.75997 -1.88983
31 1 29.5651 1.03852 -0.314939 29.5651 1.03852 -0.314939
32 2 31.4121 0.960266 1.37601 31.4121 0.960266 1.37601
33 2 31.5188 1.11658 -1.88068 31.5188 1.11658 -1.88068
34 1 32.4148 2.68248 -0.141966 32.4148 2.68248 -0.141966
35 2 34.257 2.60581 1.55418 34.257 2.60581 1.55418
36 2 34.3728 2.7589 -1.70235 34.3728 2.7589 -1.70235
37 1 35.2656 1.03685 -0.117753 35.2656 1.03685 -0.117753
38 2 37.1086 0.958634 1.57724 37.1086 0.958634 1.57724
39 2 37.2228 1.11465 -1.6792 37.2228 1.11465 -1.6792
40 1 38.1151 2.68062 0.0613972 38.1151 2.68062 0.0613972
41 2 39.9687 2.60478 1.74494 39.9687 2.60478 1.74494
42 2 40.0627 2.75616 -1.51232 40.0627 2.75616 -1.51232
43 1 40.9665 1.03494 0.0670923 40.9665 1.03494 0.0670923
44 2 42.8335 0.957565 1.73541 42.8335 0.957565 1.73541
45 2 42.9013 1.11193 -1.5224 42.9013 1.11193 -1.5224
46 1 43.8176 2.67905 0.204433 43.8176 2.67905 0.204433
47 2 45.7048 2.60482 1.85023 45.7048 2.60482 1.85023
48 2 45.7334 2.75307 -1.40836 45.7334 2.75307 -1.40836
49 1 46.6699 1.03369 0.154198 46.6699 1.03369 0.154198
50 2 48.5753 0.957229 1.77843 48.5753 0.957229 1.77843
51 2 48.5672 1.10986 -1.48015 48.5672 1.10986 -1.48015
52 1 49.5221 2.67838 0.224008 49.5221 2.67838 0.224008
53 2 51.4477 2.60568 1.82464 51.4477 2.60568 1.82464
54 2 51.3991 2.75097 -1.43385 51.3991 2.75097 -1.43385
55 1 1.05527 4.32371 0.254826 1.05527 4.32371 0.254826
56 2 2.99784 4.25845 1.83529 2.99784 4.25845 1.83529
57 2 2.91463 4.38899 -1.42311 2.91463 4.38899 -1.42311
58 1 3.90711 5.96965 0.248027 3.90711 5.96965 0.248027
59 2 5.86187 5.91506 1.81387 5.86187 5.91506 1.81387
60 2 5.75336 6.02436 -1.44458 5.75336 6.02436 -1.44458
61 1 6.75754 4.32442 0.0977492 6.75754 4.32442 0.0977492
62 2 8.71653 4.25995 1.65777 8.71653 4.25995 1.65777
63 2 8.59881 4.38909 -1.59972 8.59881 4.38909 -1.59972
64 1 9.60821 5.97054 0.0602047 9.60821 5.97054 0.0602047
65 2 11.5674 5.91619 1.62045 11.5674 5.91619 1.62045
66 2 11.4491 6.02523 -1.63782 11.4491 6.02523 -1.63782
67 1 12.4579 4.32576 -0.0982259 12.4579 4.32576 -0.0982259
68 2 14.4098 4.26023 1.4706 14.4098 4.26023 1.4706
69 2 14.3064 4.39186 -1.78738 14.3064 4.39186 -1.78738
70 1 15.3086 5.97184 -0.121765 15.3086 5.97184 -0.121765
71 2 17.2479 5.91517 1.46297 17.2479 5.91517 1.46297
72 2 17.1702 6.02915 -1.79647 17.1702 6.02915 -1.79647
73 1 18.1592 4.32738 -0.246887 18.1592 4.32738 -0.246887
74 2 20.0808 4.25949 1.35883 20.0808 4.25949 1.35883
75 2 20.0392 4.396 -1.90038 20.0392 4.396 -1.90038
76 1 21.0105 5.97307 -0.213643 21.0105 5.97307 -0.213643
77 2 22.9114 5.913 1.41693 22.9114 5.913 1.41693
78 2 22.9113 6.03376 -1.84322 22.9113 6.03376 -1.84322
79 1 23.862 4.32838 -0.274033 23.862 4.32838 -0.274033
80 2 25.7419 4.25817 1.38052 25.7419 4.25817 1.38052
81 2 25.7839 4.39901 -1.87849 25.7839 4.39901 -1.87849
82 1 26.7129 5.97339 -0.165229 26.7129 5.97339 -0.165229
83 2 28.5747 5.91076 1.50989 28.5747 5.91076 1.50989
84 2 28.6519 6.03623 -1.7491 28.6519 6.03623 -1.7491
85 1 29.564 4.328 -0.160371 29.564 4.328 -0.160371
86 2 31.4126 4.25648 1.52896 31.4126 4.25648 1.52896
87 2 31.5157 4.39949 -1.72851 31.5157 4.39949 -1.72851
88 1 32.4135 5.97247 0.00289062 32.4135 5.97247 0.00289062
89 2 34.2576 5.90907 1.69757 34.2576 5.90907 1.69757
90 2 34.3696 6.03579 -1.56023 34.3696 6.03579 -1.56023
91 1 35.2642 4.32649 0.0373478 35.2642 4.32649 0.0373478
92 2 37.1097 4.25521 1.73006 37.1097 4.25521 1.73006
93 2 37.2192 4.39756 -1.52713 37.2192 4.39756 -1.52713
94 1 38.1139 5.97096 0.205639 38.1139 5.97096 0.205639
95 2 39.9704 5.9087 1.88676 39.9704 5.9087 1.88676
96 2 40.0591 6.03313 -1.37171 40.0591 6.03313 -1.37171
97 1 40.9655 4.32482 0.220478 40.9655 4.32482 0.220478
98 2 42.8357 4.25523 1.88593 42.8357 4.25523 1.88593
99 2 42.8978 4.39427 -1.37256 42.8978 4.39427 -1.37256
100 1 43.8171 5.96976 0.345316 43.8171 5.96976 0.345316
101 2 45.7076 5.90993 1.9882 45.7076 5.90993 1.9882
102 2 45.73 6.0296 -1.27149 45.73 6.0296 -1.27149
103 1 46.6697 4.3238 0.304376 46.6697 4.3238 0.304376
104 2 48.5783 4.2565 1.92575 48.5783 4.2565 1.92575
105 2 48.5645 4.39105 -1.33347 48.5645 4.39105 -1.33347
106 1 49.5223 5.96933 0.360332 49.5223 5.96933 0.360332
107 2 51.4511 5.9124 1.95813 51.4511 5.9124 1.95813
108 2 51.3966 6.02632 -1.30141 51.3966 6.02632 -1.30141
109 1 1.05575 7.61558 0.370287 1.05575 7.61558 0.370287
110 2 3.00141 7.57198 1.94796 3.00141 7.57198 1.94796
111 2 2.9122 7.65927 -1.31165 2.9122 7.65927 -1.31165
112 1 3.9076 9.26232 0.336541 3.9076 9.26232 0.336541
113 2 5.86508 9.23425 1.89986 5.86508 9.23425 1.89986
114 2 5.75111 9.29045 -1.35972 5.75111 9.29045 -1.35972
115 1 6.75824 7.61608 0.208514 6.75824 7.61608 0.208514
116 2 8.71917 7.57459 1.76703 8.71917 7.57459 1.76703
117 2 8.59752 7.65774 -1.49179 8.59752 7.65774 -1.49179
118 1 9.60866 9.26277 0.144454 9.60866 9.26277 0.144454
119 2 11.5688 9.23576 1.70428 11.5688 9.23576 1.70428
120 2 11.4484 9.28995 -1.55531 11.4484 9.28995 -1.55531
121 1 12.4585 7.61694 0.0122008 12.4585 7.61694 0.0122008
122 2 14.4108 7.57441 1.58143 14.4108 7.57441 1.58143
123 2 14.3065 7.65988 -1.67811 14.3065 7.65988 -1.67811
124 1 15.3088 9.26345 -0.0352768 15.3088 9.26345 -0.0352768
125 2 17.2473 9.23367 1.55121 17.2473 9.23367 1.55121
126 2 17.1711 9.29365 -1.70977 17.1711 9.29365 -1.70977
127 1 18.1594 7.61801 -0.131537 18.1594 7.61801 -0.131537
128 2 20.0805 7.57177 1.47552 20.0805 7.57177 1.47552
129 2 20.0396 7.66485 -1.78532 20.0396 7.66485 -1.78532
130 1 21.0103 9.2642 -0.119488 21.0103 9.2642 -0.119488
131 2 22.91 9.22974 1.5132 22.91 9.22974 1.5132
132 2 22.9121 9.29913 -1.74853 22.9121 9.29913 -1.74853
133 1 23.8616 7.61873 -0.15182 23.8616 7.61873 -0.15182
134 2 25.7413 7.56861 1.5035 25.7413 7.56861 1.5035
135 2 25.7832 7.66927 -1.75708 25.7832 7.66927 -1.75708
136 1 26.7121 9.26447 -0.0633668 26.7121 9.26447 -0.0633668
137 2 28.5738 9.22646 1.61267 28.5738 9.22646 1.61267
138 2 28.6511 9.30268 -1.64789 28.6511 9.30268 -1.64789
139 1 29.5629 7.61848 -0.03332 29.5629 7.61848 -0.03332
140 2 31.4125 7.56627 1.65563 31.4125 7.56627 1.65563
141 2 31.5135 7.67076 -1.60341 31.5135 7.67076 -1.60341
142 1 32.4124 9.26393 0.108731 32.4124 9.26393 0.108731
143 2 34.2577 9.22481 1.80284 34.2577 9.22481 1.80284
144 2 34.3673 9.30304 -1.45656 34.3673 9.30304 -1.45656
145 1 35.2629 7.61738 0.165744 35.2629 7.61738 0.165744
146 2 37.1107 7.56532 1.85684 37.1107 7.56532 1.85684
147 2 37.216 7.6694 -1.40189 37.216 7.6694 -1.40189
148 1 38.113 9.26301 0.311131 38.113 9.26301 0.311131
149 2 39.9719 9.22495 1.99043 39.9719 9.22495 1.99043
150 2 40.056 9.30106 -1.26958 40.056 9.30106 -1.26958
151 1 40.9647 7.61621 0.346587 40.9647 7.61621 0.346587
152 2 42.838 7.5661 2.00949 42.838 7.5661 2.00949
153 2 42.8944 7.66634 -1.25043 42.8944 7.66634 -1.25043
154 1 43.8167 9.26232 0.446933 43.8167 9.26232 0.446933
155 2 45.7103 9.22692 2.08714 45.7103 9.22692 2.08714
156 2 45.7269 9.29779 -1.17393 45.7269 9.29779 -1.17393
157 1 46.6696 7.61556 0.425655 46.6696 7.61556 0.425655
158 2 48.5815 7.56855 2.04405 48.5815 7.56855 2.04405
159 2 48.5614 7.66267 -1.21645 48.5614 7.66267 -1.21645
160 1 49.5225 9.26211 0.45577 49.5225 9.26211 0.45577
161 2 51.4546 9.23044 2.05047 51.4546 9.23044 2.05047
162 2 51.3936 9.29387 -1.21025 51.3936 9.29387 -1.21025
163 1 1.05603 10.9091 0.434653 1.05603 10.9091 0.434653
164 2 3.00482 10.8946 2.00916 3.00482 10.8946 2.00916
165 2 2.90938 10.9236 -1.25127 2.90938 10.9236 -1.25127
166 1 3.90773 12.5562 0.366031 3.90773 12.5562 0.366031
167 2 5.86774 12.5596 1.92649 5.86774 12.5596 1.92649
168 2 5.74857 12.5526 -1.33337 5.74857 12.5526 -1.33337
169 1 6.75852 10.9092 0.265524 6.75852 10.9092 0.265524
170 2 8.72133 10.8978 1.82227 8.72133 10.8978 1.82227
171 2 8.5958 10.9207 -1.43739 8.5958 10.9207 -1.43739
172 1 9.6086 12.556 0.167659 9.6086 12.556 0.167659
173 2 11.5692 12.561 1.7271 11.5692 12.561 1.7271
174 2 11.4478 12.551 -1.53289 11.4478 12.551 -1.53289
175 1 12.4587 10.9095 0.0670516 12.4587 10.9095 0.0670516
176 2 14.4105 10.8973 1.63736 14.4105 10.8973 1.63736
177 2 14.3069 10.9219 -1.62327 14.3069 10.9219 -1.62327
178 1 15.3087 12.556 -0.0104625 15.3087 12.556 -0.0104625
179 2 17.2453 12.5581 1.5786 17.2453 12.5581 1.5786
180 2 17.1728 12.5541 -1.68303 17.1728 12.5541 -1.68303
181 1 18.1594 10.9099 -0.0709085 18.1594 10.9099 -0.0709085
182 2 20.0786 10.8934 1.539 20.0786 10.8934 1.539
183 2 20.0413 10.9269 -1.72309 20.0413 10.9269 -1.72309
184 1 21.0101 12.5564 -0.0856703 21.0101 12.5564 -0.0856703
185 2 22.9073 12.5533 1.55032 22.9073 12.5533 1.55032
186 2 22.9143 12.5597 -1.71216 22.9143 12.5597 -1.71216
187 1 23.8612 10.9104 -0.081672 23.8612 10.9104 -0.081672
188 2 25.7394 10.8891 1.57593 25.7394 10.8891 1.57593
189 2 25.784 10.932 -1.68593 25.784 10.932 -1.68593
190 1 26.7117 12.5567 -0.0199547 26.7117 12.5567 -0.0199547
191 2 28.572 12.5498 1.65793 28.572 12.5498 1.65793
192 2 28.6518 12.5638 -1.60345 28.6518 12.5638 -1.60345
193 1 29.5621 10.9104 0.0438307 29.5621 10.9104 0.0438307
194 2 31.4118 10.8866 1.73339 31.4118 10.8866 1.73339
195 2 31.5126 10.9343 -1.52699 31.5126 10.9343 -1.52699
196 1 32.4118 12.5567 0.15708 32.4118 12.5567 0.15708
197 2 34.2574 12.5487 1.85127 34.2574 12.5487 1.85127
198 2 34.3664 12.5648 -1.40905 34.3664 12.5648 -1.40905
199 1 35.262 10.9099 0.245018 35.262 10.9099 0.245018
200 2 37.1113 10.8861 1.93522 37.1113 10.8861 1.93522
201 2 37.2138 10.9338 -1.32488 37.2138 10.9338 -1.32488
202 1 38.1125 12.5566 0.359507 38.1125 12.5566 0.359507
203 2 39.9729 12.5493 2.0376 39.9729 12.5493 2.0376
204 2 40.0542 12.5637 -1.22331 40.0542 12.5637 -1.22331
205 1 40.9642 10.9094 0.423763 40.9642 10.9094 0.423763
206 2 42.8399 10.8873 2.08464 42.8399 10.8873 2.08464
207 2 42.8917 10.9315 -1.17654 42.8917 10.9315 -1.17654
208 1 43.8165 12.5564 0.491732 43.8165 12.5564 0.491732
209 2 45.7126 12.5517 2.12961 45.7126 12.5517 2.12961
210 2 45.7245 12.5611 -1.13219 45.7245 12.5611 -1.13219
211 1 46.6696 10.9091 0.497549 46.6696 10.9091 0.497549
212 2 48.5846 10.8904 2.11303 48.5846 10.8904 2.11303
213 2 48.5585 10.9279 -1.1485 48.5585 10.9279 -1.1485
214 1 49.5226 12.5563 0.493858 49.5226 12.5563 0.493858
215 2 51.4577 12.5556 2.08537 51.4577 12.5556 2.08537
216 2 51.3908 12.557 -1.17582 51.3908 12.557 -1.17582
217 1 1.05604 14.2034 0.436203 1.05604 14.2034 0.436203
218 2 3.00741 14.221 2.00749 3.00741 14.221 2.00749
219 2 2.90666 14.1856 -1.25271 2.90666 14.1856 -1.25271
220 1 3.90741 15.85 0.330314 3.90741 15.85 0.330314
221 2 5.86916 15.8848 1.88814 5.86916 15.8848 1.88814
222 2 5.74631 15.8147 -1.37084 5.74631 15.8147 -1.37084
223 1 6.7583 14.2029 0.258477 6.7583 14.2029 0.258477
224 2 8.72249 14.2237 1.81338 8.72249 14.2237 1.81338
225 2 8.59406 14.1818 -1.44598 8.59406 14.1818 -1.44598
226 1 9.60802 15.8491 0.125264 9.60802 15.8491 0.125264
227 2 11.5684 15.8853 1.68459 11.5684 15.8853 1.68459
228 2 11.4475 15.8125 -1.57463 11.4475 15.8125 -1.57463
229 1 12.4583 14.2024 0.0568376 12.4583 14.2024 0.0568376
230 2 14.4089 14.2226 1.62854 14.4089 14.2226 1.62854
231 2 14.3078 14.1822 -1.63201 14.3078 14.1822 -1.63201
232 1 15.3082 15.8484 -0.0514084 15.3082 15.8484 -0.0514084
233 2 17.2421 15.8819 1.54064 17.2421 15.8819 1.54064
234 2 17.1752 15.815 -1.72042 17.1752 15.815 -1.72042
235 1 18.1591 14.2024 -0.0751553 18.1591 14.2024 -0.0751553
236 2 20.0753 14.2181 1.53833 20.0753 14.2181 1.53833
237 2 20.0441 14.1869 -1.72385 20.0441 14.1869 -1.72385
238 1 21.0099 15.8486 -0.117387 21.0099 15.8486 -0.117387
239 2 22.9037 15.8772 1.52232 22.9037 15.8772 1.52232
240 2 22.9176 15.8202 -1.73963 22.9176 15.8202 -1.73963
241 1 23.861 14.2028 -0.0753642 23.861 14.2028 -0.0753642
242 2 25.7367 14.2137 1.58523 25.7367 14.2137 1.58523
243 2 25.7862 14.1921 -1.67677 25.7862 14.1921 -1.67677
244 1 26.7116 15.8492 -0.0419537 26.7116 15.8492 -0.0419537
245 2 28.5699 15.8744 1.63805 28.5699 15.8744 1.63805
246 2 28.6537 15.8241 -1.62285 28.6537 15.8241 -1.62285
247 1 29.5617 14.2032 0.0578838 29.5617 14.2032 0.0578838
248 2 31.4106 14.2118 1.74852 31.4106 14.2118 1.74852
249 2 31.513 14.1947 -1.51211 31.513 14.1947 -1.51211
250 1 32.4117 15.8499 0.139724 32.4117 15.8499 0.139724
251 2 34.2569 15.8742 1.83427 34.2569 15.8742 1.83427
252 2 34.3668 15.8254 -1.42568 34.3668 15.8254 -1.42568
253 1 35.2617 14.2035 0.261344 35.2617 14.2035 0.261344
254 2 37.1115 14.212 1.95116 37.1115 14.212 1.95116
255 2 37.213 14.1948 -1.30927 37.213 14.1948 -1.30927
256 1 38.1124 15.8504 0.342154 38.1124 15.8504 0.342154
257 2 39.9734 15.8755 2.01954 39.9734 15.8755 2.01954
258 2 40.0537 15.8251 -1.24104 40.0537 15.8251 -1.24104
259 1 40.964 14.2036 0.438408 40.964 14.2036 0.438408
260 2 42.8412 14.2136 2.09777 42.8412 14.2136 2.09777
261 2 42.8901 14.1934 -1.16367 42.8901 14.1934 -1.16367
262 1 43.8165 15.8507 0.471307 43.8165 15.8507 0.471307
263 2 45.714 15.878 2.10735 45.714 15.878 2.10735
264 2 45.7231 15.8232 -1.15403 45.7231 15.8232 -1.15403
265 1 46.6696 14.2036 0.507201 46.6696 14.2036 0.507201
266 2 48.587 14.2169 2.12001 48.587 14.2169 2.12001
267 2 48.5562 14.1902 -1.14157 48.5562 14.1902 -1.14157
268 1 49.5226 15.8506 0.466977 49.5226 15.8506 0.466977
269 2 51.4597 15.8816 2.05562 51.4597 15.8816 2.05562
270 2 51.3886 15.8193 -1.2049 51.3886 15.8193 -1.2049
271 1 1.05572 17.497 0.373263 1.05572 17.497 0.373263
272 2 3.00855 17.5441 1.94198 3.00855 17.5441 1.94198
273 2 2.90459 17.4493 -1.31697 2.90459 17.4493 -1.31697
274 1 3.90664 19.1424 0.234271 3.90664 19.1424 0.234271
275 2 5.86882 19.203 1.79059 5.86882 19.203 1.79059
276 2 5.74487 19.0812 -1.46687 5.74487 19.0812 -1.46687
277 1 6.75757 17.4958 0.18749 6.75757 17.4958 0.18749
278 2 8.72214 17.5455 1.74117 8.72214 17.5455 1.74117
279 2 8.59284 17.4455 -1.5169 8.59284 17.4455 -1.5169
280 1 9.60698 19.1408 0.0239204 9.60698 19.1408 0.0239204
281 2 11.5661 19.2021 1.58395 11.5661 19.2021 1.58395
282 2 11.4478 19.079 -1.67383 11.4478 19.079 -1.67383
283 1 12.4575 17.4946 -0.0169347 12.4575 17.4946 -0.0169347
284 2 14.4062 17.5435 1.55659 14.4062 17.5435 1.55659
285 2 14.3093 17.4454 -1.70283 14.3093 17.4454 -1.70283
286 1 15.3075 19.1397 -0.150875 15.3075 19.1397 -0.150875
287 2 17.2381 19.1986 1.44443 17.2381 19.1986 1.44443
288 2 17.1782 19.0809 -1.81526 17.1782 19.0809 -1.81526
289 1 18.1587 17.4942 -0.143004 18.1587 17.4942 -0.143004
290 2 20.0714 17.5392 1.47427 20.0714 17.5392 1.47427
291 2 20.0476 17.4494 -1.78685 20.0476 17.4494 -1.78685
292 1 21.0098 19.1397 -0.208438 21.0098 19.1397 -0.208438
293 2 22.9 19.1948 1.43489 22.9 19.1948 1.43489
294 2 22.9214 19.085 -1.82559 22.9214 19.085 -1.82559
295 1 23.861 17.4947 -0.133182 23.861 17.4947 -0.133182
296 2 25.7336 17.5357 1.53046 25.7336 17.5357 1.53046
297 2 25.7894 17.4539 -1.73045 25.7894 17.4539 -1.73045
298 1 26.7119 19.1407 -0.124843 26.7119 19.1407 -0.124843
299 2 28.5678 19.1935 1.55716 28.5678 19.1935 1.55716
300 2 28.6565 19.0882 -1.70225 28.6565 19.0882 -1.70225
301 1 29.5619 17.4956 0.00690702 29.5619 17.4956 0.00690702
302 2 31.4093 17.535 1.69868 31.4093 17.535 1.69868
303 2 31.5146 17.4563 -1.56093 31.5146 17.4563 -1.56093
304 1 32.4122 19.142 0.0600369 32.4122 19.142 0.0600369
305 2 34.2563 19.1946 1.75509 34.2563 19.1946 1.75509
306 2 34.3684 19.0895 -1.50346 34.3684 19.0895 -1.50346
307 1 35.262 17.4966 0.211928 35.262 17.4966 0.211928
308 2 37.1113 17.5362 1.90168 37.1113 17.5362 1.90168
309 2 37.2136 17.4569 -1.35782 37.2136 17.4569 -1.35782
310 1 38.113 19.1432 0.261847 38.113 19.1432 0.261847
311 2 39.9734 19.1966 1.93901 39.9734 19.1966 1.93901
312 2 40.0546 19.0896 -1.32024 40.0546 19.0896 -1.32024
313 1 40.9642 17.4974 0.387414 40.9642 17.4974 0.387414
314 2 42.8418 17.5382 2.04583 42.8418 17.5382 2.04583
315 2 42.8899 17.4562 -1.2147 42.8899 17.4562 -1.2147
316 1 43.8168 19.1439 0.388224 43.8168 19.1439 0.388224
317 2 45.7143 19.199 2.02322 45.7143 19.199 2.02322
318 2 45.723 19.0884 -1.23682 45.723 19.0884 -1.23682
319 1 46.6696 17.4976 0.451792 46.6696 17.4976 0.451792
320 2 48.5881 17.5411 2.06255 48.5881 17.5411 2.06255
321 2 48.5549 17.4536 -1.19799 48.5549 17.4536 -1.19799
322 1 49.5224 19.1437 0.37841 49.5224 19.1437 0.37841
323 2 51.4602 19.2014 1.96519 51.4602 19.2014 1.96519
324 2 51.3873 19.0852 -1.29388 51.3873 19.0852 -1.29388
325 1 1.05505 20.7888 0.255618 1.05505 20.7888 0.255618
326 2 3.00784 20.8576 1.8233 3.00784 20.8576 1.8233
327 2 2.9036 20.7192 -1.43416 2.9036 20.7192 -1.43416
328 1 3.90551 22.433 0.0941186 3.90551 22.433 0.0941186
329 2 5.86665 22.5087 1.65082 5.86665 22.5087 1.65082
330 2 5.7446 22.3566 -1.60548 5.7446 22.3566 -1.60548
331 1 6.7564 20.787 0.0641046 6.7564 20.787 0.0641046
332 2 8.72009 20.8571 1.61796 8.72009 20.8571 1.61796
333 2 8.59254 20.7162 -1.63867 8.59254 20.7162 -1.63867
334 1 9.60565 22.4309 -0.118872 9.60565 22.4309 -0.118872
335 2 11.5627 22.5065 1.44307 11.5627 22.5065 1.44307
336 2 11.4488 22.3549 -1.81362 11.4488 22.3549 -1.81362
337 1 12.4565 20.7852 -0.14162 12.4565 20.7852 -0.14162
338 2 14.4025 20.8545 1.43438 14.4025 20.8545 1.43438
339 2 14.3112 20.7159 -1.82368 14.3112 20.7159 -1.82368
340 1 15.3067 22.4296 -0.291356 15.3067 22.4296 -0.291356
341 2 17.234 22.5036 1.30738 17.234 22.5036 1.30738
342 2 17.1812 22.3558 -1.95111 17.1812 22.3558 -1.95111
343 1 18.1583 20.7846 -0.262291 18.1583 20.7846 -0.262291
344 2 20.0673 20.851 1.35871 20.0673 20.851 1.35871
345 2 20.0513 20.7186 -1.9009 20.0513 20.7186 -1.9009
346 1 21.0098 22.4297 -0.342576 21.0098 22.4297 -0.342576
347 2 22.8966 22.5016 1.30405 22.8966 22.5016 1.30405
348 2 22.9252 22.3584 -1.95497 22.9252 22.3584 -1.95497
349 1 23.8612 20.7853 -0.244446 23.8612 20.7853 -0.244446
350 2 25.7308 20.8492 1.42198 25.7308 20.8492 1.42198
351 2 25.793 20.7219 -1.83727 25.793 20.7219 -1.83727
352 1 26.7125 22.431 -0.25371 26.7125 22.431 -0.25371
353 2 28.5663 22.5019 1.43014 28.5663 22.5019 1.43014
354 2 28.6596 22.3604 -1.8277 28.6596 22.3604 -1.8277
355 1 29.5626 20.7868 -0.09972 29.5626 20.7868 -0.09972
356 2 31.4083 20.8499 1.5932 31.4083 20.8499 1.5932
357 2 31.5171 20.7238 -1.66478 31.5171 20.7238 -1.66478
358 1 32.4132 22.4327 -0.0677158 32.4132 22.4327 -0.0677158
359 2 34.2559 22.5041 1.62811 34.2559 22.5041 1.62811
360 2 34.3707 22.3614 -1.62892 34.3707 22.3614 -1.62892
361 1 35.2628 20.7883 0.105522 35.2628 20.7883 0.105522
362 2 37.1111 20.8521 1.79557 37.1111 20.8521 1.79557
363 2 37.2153 20.7244 -1.46237 37.2153 20.7244 -1.46237
364 1 38.1139 22.4343 0.132504 38.1139 22.4343 0.132504
365 2 39.973 22.5067 1.81012 39.973 22.5067 1.81012
366 2 40.0564 22.3617 -1.44768 40.0564 22.3617 -1.44768
367 1 40.9648 20.7895 0.279064 40.9648 20.7895 0.279064
368 2 42.8416 20.8544 1.93732 42.8416 20.8544 1.93732
369 2 42.8909 20.7242 -1.32171 42.8909 20.7242 -1.32171
370 1 43.8171 22.4351 0.256309 43.8171 22.4351 0.256309
371 2 45.7136 22.5085 1.89155 45.7136 22.5085 1.89155
372 2 45.724 22.3612 -1.36715 45.724 22.3612 -1.36715
373 1 46.6696 20.7897 0.339844 46.6696 20.7897 0.339844
374 2 48.5879 20.8564 1.94981 48.5879 20.8564 1.94981
375 2 48.5547 20.7225 -1.30926 48.5547 20.7225 -1.30926
376 1 49.5219 22.4347 0.24283 49.5219 22.4347 0.24283
377 2 51.459 22.5093 1.82956 51.459 22.5093 1.82956
378 2 51.3872 22.3593 -1.42827 51.3872 22.3593 -1.42827
379 1 1.05413 24.0788 0.103738 1.05413 24.0788 0.103738
380 2 3.00534 24.157 1.67259 3.00534 24.157 1.67259
381 2 2.90392 23.9999 -1.5842 2.90392 23.9999 -1.5842
382 1 3.90425 25.7224 -0.0650615 3.90425 25.7224 -0.0650615
383 2 5.86312 25.7996 1.49412 5.86312 25.7996 1.49412
384 2 5.74549 25.6447 -1.76226 5.74549 25.6447 -1.76226
385 1 6.755 24.0767 -0.0899771 6.755 24.0767 -0.0899771
386 2 8.7167 24.1547 1.46582 8.7167 24.1547 1.46582
387 2 8.59322 23.9981 -1.79025 8.59322 23.9981 -1.79025
388 1 9.60428 25.7203 -0.277642 9.60428 25.7203 -0.277642
389 2 11.5588 25.7968 1.28728 11.5588 25.7968 1.28728
390 2 11.4503 25.6436 -1.96947 11.4503 25.6436 -1.96947
391 1 12.4553 24.0747 -0.295194 12.4553 24.0747 -0.295194
392 2 14.3986 24.1521 1.28384 14.3986 24.1521 1.28384
393 2 14.3133 23.9975 -1.97357 14.3133 23.9975 -1.97357
394 1 15.3059 25.719 -0.448008 15.3059 25.719 -0.448008
395 2 17.2306 25.7952 1.15392 17.2306 25.7952 1.15392
396 2 17.1836 25.6433 -2.10434 17.1836 25.6433 -2.10434
397 1 18.1579 24.0741 -0.411948 18.1579 24.0741 -0.411948
398 2 20.0637 24.1503 1.21245 20.0637 24.1503 1.21245
399 2 20.0547 23.9986 -2.04622 20.0547 23.9986 -2.04622
400 1 21.0099 25.7192 -0.496218 21.0099 25.7192 -0.496218
401 2 22.8943 25.7953 1.1531 22.8943 25.7953 1.1531
402 2 22.9281 25.6438 -2.10536 22.9281 25.6438 -2.10536
403 1 23.8617 24.075 -0.389446 23.8617 24.075 -0.389446
404 2 25.7288 24.1504 1.27941 25.7288 24.1504 1.27941
405 2 25.7963 24.0002 -1.97865 25.7963 24.0002 -1.97865
406 1 26.7134 25.7205 -0.405862 26.7134 25.7205 -0.405862
407 2 28.5654 25.7973 1.27969 28.5654 25.7973 1.27969
408 2 28.6625 25.6443 -1.97744 28.6625 25.6443 -1.97744
409 1 29.5636 24.0766 -0.243026 29.5636 24.0766 -0.243026
410 2 31.4076 24.1525 1.45118 31.4076 24.1525 1.45118
411 2 31.5199 24.0011 -1.80557 31.5199 24.0011 -1.80557
412 1 32.4145 25.7223 -0.22097 32.4145 25.7223 -0.22097
413 2 34.2557 25.8001 1.47609 34.2557 25.8001 1.47609
414 2 34.3734 25.6447 -1.78026 34.3734 25.6447 -1.78026
415 1 35.264 24.0784 -0.0390551 35.264 24.0784 -0.0390551
416 2 37.1108 24.1552 1.65187 37.1108 24.1552 1.65187
417 2 37.2177 24.0017 -1.60492 37.2177 24.0017 -1.60492
418 1 38.115 25.7239 -0.023055 38.115 25.7239 -0.023055
419 2 39.9724 25.8025 1.65596 39.9724 25.8025 1.65596
420 2 40.0589 25.6453 -1.60129 40.0589 25.6453 -1.60129
421 1 40.9655 24.0798 0.132166 40.9655 24.0798 0.132166
422 2 42.8407 24.1573 1.79142 42.8407 24.1573 1.79142
423 2 42.8928 24.0019 -1.46659 42.8928 24.0019 -1.46659
424 1 43.8176 25.7248 0.0988586 43.8176 25.7248 0.0988586
425 2 45.7118 25.8033 1.736 45.7118 25.8033 1.736
426 2 45.726 25.6458 -1.52236 45.726 25.6458 -1.52236
427 1 46.6696 24.08 0.190641 46.6696 24.08 0.190641
428 2 48.5862 24.1579 1.80166 48.5862 24.1579 1.80166
429 2 48.5557 24.0015 -1.45657 48.5557 24.0015 -1.45657
430 1 49.5214 25.7242 0.0843406 49.5214 25.7242 0.0843406
431 2 51.4562 25.8022 1.67322 51.4562 25.8022 1.67322
432 2 51.3884 25.6456 -1.58452 51.3884 25.6456 -1.58452
433 1 1.05319 27.3681 -0.0548654 1.05319 27.3681 -0.0548654
434 2 3.00166 27.4416 1.51724 3.00166 27.4416 1.51724
435 2 2.90543 27.2941 -1.74025 2.90543 27.2941 -1.74025
436 1 3.90314 29.0121 -0.214466 3.90314 29.0121 -0.214466
437 2 5.85911 29.0771 1.34864 5.85911 29.0771 1.34864
438 2 5.74724 28.9468 -1.90906 5.74724 28.9468 -1.90906
439 1 6.75365 27.3661 -0.247007 6.75365 27.3661 -0.247007
440 2 8.7128 27.4383 1.31212 8.7128 27.4383 1.31212
441 2 8.59459 27.2937 -1.9447 8.59459 27.2937 -1.9447
442 1 9.60313 29.0103 -0.424157 9.60313 29.0103 -0.424157
443 2 11.5555 29.0745 1.14401 11.5555 29.0745 1.14401
444 2 11.4517 28.9463 -2.11392 11.4517 28.9463 -2.11392
445 1 12.4542 27.3644 -0.450402 12.4542 27.3644 -0.450402
446 2 14.3952 27.4364 1.13169 14.3952 27.4364 1.13169
447 2 14.3149 27.2927 -2.12626 14.3149 27.2927 -2.12626
448 1 15.3052 29.0093 -0.593506 15.3052 29.0093 -0.593506
449 2 17.2284 29.0746 1.01071 17.2284 29.0746 1.01071
450 2 17.1849 28.9445 -2.24843 17.1849 28.9445 -2.24843
451 1 18.1576 27.3639 -0.565753 18.1576 27.3639 -0.565753
452 2 20.0614 27.4367 1.06121 20.0614 27.4367 1.06121
453 2 20.0568 27.2918 -2.19765 20.0568 27.2918 -2.19765
454 1 21.01 29.0094 -0.642859 21.01 29.0094 -0.642859
455 2 22.8934 29.0769 1.00807 22.8934 29.0769 1.00807
456 2 22.9297 28.9426 -2.25098 22.9297 28.9426 -2.25098
457 1 23.8622 27.3646 -0.542907 23.8622 27.3646 -0.542907
458 2 25.7278 27.4387 1.12779 25.7278 27.4387 1.12779
459 2 25.7987 27.2913 -2.13021 25.7987 27.2913 -2.13021
460 1 26.7143 29.0105 -0.555092 26.7143 29.0105 -0.555092
461 2 28.5653 29.08 1.13184 28.5653 29.08 1.13184
462 2 28.6646 28.9416 -2.12579 28.6646 28.9416 -2.12579
463 1 29.5648 27.3662 -0.397946 29.5648 27.3662 -0.397946
464 2 31.4075 27.4416 1.29771 31.4075 27.4416 1.29771
465 2 31.5225 27.2913 -1.95895 31.5225 27.2913 -1.95895
466 1 32.4158 29.012 -0.373171 32.4158 29.012 -0.373171
467 2 34.2556 29.0828 1.32556 34.2556 29.0828 1.32556
468 2 34.376 28.9416 -1.93134 34.376 28.9416 -1.93134
469 1 35.2653 27.3679 -0.196383 35.2653 27.3679 -0.196383
470 2 37.1105 27.4442 1.49615 37.1105 27.4442 1.49615
471 2 37.2204 27.2918 -1.76063 37.2204 27.2918 -1.76063
472 1 38.1161 29.0134 -0.177417 38.1161 29.0134 -0.177417
473 2 39.9715 29.0843 1.50397 39.9715 29.0843 1.50397
474 2 40.0617 28.9427 -1.75397 40.0617 28.9427 -1.75397
475 1 40.9664 27.3691 -0.0271276 40.9664 27.3691 -0.0271276
476 2 42.8393 27.4454 1.63442 42.8393 27.4454 1.63442
477 2 42.8953 27.2927 -1.62377 42.8953 27.2927 -1.62377
478 1 43.818 29.0141 -0.0557649 43.818 29.0141 -0.0557649
479 2 45.7093 29.0837 1.58472 45.7093 29.0837 1.58472
480 2 45.7287 28.9444 -1.67457 45.7287 28.9444 -1.67457
481 1 46.6695 27.3693 0.031056 46.6695 27.3693 0.031056
482 2 48.5834 27.4444 1.64503 48.5834 27.4444 1.64503
483 2 48.5578 27.2938 -1.61366 48.5578 27.2938 -1.61366
484 1 49.5209 29.0136 -0.0682472 49.5209 29.0136 -0.0682472
485 2 51.4525 29.0809 1.52456 51.4525 29.0809 1.52456
486 2 51.3906 28.946 -1.73438 51.3906 28.946 -1.73438
487 1 1.05245 30.6581 -0.191537 1.05245 30.6581 -0.191537
488 2 2.99766 30.7138 1.38501 2.99766 30.7138 1.38501
489 2 2.90776 30.6021 -1.87415 2.90776 30.6021 -1.87415
490 1 3.90242 32.3031 -0.327654 3.90242 32.3031 -0.327654
491 2 5.85552 32.3447 1.23965 5.85552 32.3447 1.23965
492 2 5.74942 32.2614 -2.01982 5.74942 32.2614 -2.01982
493 1 6.75265 30.6566 -0.379088 6.75265 30.6566 -0.379088
494 2 8.7093 30.7104 1.18376 8.7093 30.7104 1.18376
495 2 8.59622 30.6028 -2.07467 8.59622 30.6028 -2.07467
496 1 9.6024 32.302 -0.533147 9.6024 32.302 -0.533147
497 2 11.5533 32.343 1.03752 11.5533 32.343 1.03752
498 2 11.4526 32.2611 -2.22196 11.4526 32.2611 -2.22196
499 1 12.4534 30.6554 -0.580341 12.4534 30.6554 -0.580341
500 2 14.3932 30.7098 1.00397 14.3932 30.7098 1.00397
501 2 14.3157 30.6013 -2.25533 14.3157 30.6013 -2.25533
502 1 15.3047 32.3013 -0.703335 15.3047 32.3013 -0.703335
503 2 17.2281 32.3451 0.90154 17.2281 32.3451 0.90154
504 2 17.1846 32.258 -2.35895 17.1846 32.258 -2.35895
505 1 18.1573 30.655 -0.697484 18.1573 30.655 -0.697484
506 2 20.0608 30.7123 0.930589 20.0608 30.7123 0.930589
507 2 20.0574 30.5984 -2.32938 20.0574 30.5984 -2.32938
508 1 21.01 32.3014 -0.758097 21.01 32.3014 -0.758097
509 2 22.8941 32.3492 0.892923 22.8941 32.3492 0.892923
510 2 22.9296 32.2541 -2.36742 22.9296 32.2541 -2.36742
511 1 23.8626 30.6555 -0.67886 23.8626 30.6555 -0.67886
512 2 25.728 30.7158 0.99276 25.728 30.7158 0.99276
513 2 25.7999 30.5958 -2.26624 25.7999 30.5958 -2.26624
514 1 26.715 32.302 -0.67658 26.715 32.302 -0.67658
515 2 28.566 32.3529 1.01111 28.566 32.3529 1.01111
516 2 28.6656 32.2517 -2.24781 28.6656 32.2517 -2.24781
517 1 29.5659 30.6567 -0.538178 29.5659 30.6567 -0.538178
518 2 31.4077 30.7189 1.15891 31.4077 30.7189 1.15891
519 2 31.5246 30.5949 -2.09875 31.5246 30.5949 -2.09875
520 1 32.4169 32.3031 -0.498719 32.4169 32.3031 -0.498719
521 2 34.2556 32.3549 1.20188 34.2556 32.3549 1.20188
522 2 34.3783 32.2516 -2.05635 34.3783 32.2516 -2.05635
523 1 35.2665 30.658 -0.339349 35.2665 30.658 -0.339349
524 2 37.11 30.7206 1.35545 37.11 30.7206 1.35545
525 2 37.2231 30.5957 -1.90244 37.2231 30.5957 -1.90244
526 1 38.1171 32.3041 -0.303935 38.1171 32.3041 -0.303935
527 2 39.9702 32.3548 1.38046 39.9702 32.3548 1.38046
528 2 40.0645 32.2534 -1.87893 40.0645 32.2534 -1.87893
529 1 40.9672 30.659 -0.170572 40.9672 30.659 -0.170572
530 2 42.8374 30.7203 1.49428 42.8374 30.7203 1.49428
531 2 42.8983 30.5976 -1.76519 42.8983 30.5976 -1.76519
532 1 43.8184 32.3045 -0.180103 43.8184 32.3045 -0.180103
533 2 45.7066 32.3527 1.46444 45.7066 32.3527 1.46444
534 2 45.7317 32.2562 -1.79646 45.7317 32.2562 -1.79646
535 1 46.6695 30.6591 -0.110069 46.6695 30.6591 -0.110069
536 2 48.58 30.7178 1.50813 48.58 30.7178 1.50813
537 2 48.5606 30.6 -1.75207 48.5606 30.6 -1.75207
538 1 49.5206 32.3041 -0.18759 49.5206 32.3041 -0.18759
539 2 51.4488 32.3488 1.40986 51.4488 32.3488 1.40986
540 2 51.3935 32.2592 -1.85084 51.3935 32.2592 -1.85084