ITEM: TIMESTEP
29000
ITEM: NUMBER OF ATOMS
810
ITEM: BOX BOUNDS pp pp pp
8.5593331135219997e-01 5.2161671688646891e+01
8.1038225472140624e-01 5.0205832745277981e+01
-1.0000000000000000e+01 1.0000000000000000e+01
ITEM: ATOMS id type x y z xu yu zu
1 1 1.06179 1.02412 -0.472391 1.06179 1.02412 -0.472391
2 2 2.90256 1.03629 1.22717 2.90256 1.03629 1.22717
3 2 3.02109 1.012 -2.03275 3.02109 1.012 -2.03275
4 1 3.91194 2.67076 -0.38038 3.91194 2.67076 -0.38038
5 2 5.73826 2.68378 1.33459 5.73826 2.68378 1.33459
6 2 5.88433 2.65781 -1.92421 5.88433 2.65781 -1.92421
7 1 6.76083 1.02446 -0.238999 6.76083 1.02446 -0.238999
8 2 8.58123 1.03846 1.4821 8.58123 1.03846 1.4821
9 2 8.73848 1.01054 -1.77617 8.73848 1.01054 -1.77617
10 1 9.60954 2.67117 -0.115235 9.60954 2.67117 -0.115235
11 2 11.4351 2.68602 1.60022 11.4351 2.68602 1.60022
12 2 11.5826 2.65641 -1.65849 11.5826 2.65641 -1.65849
13 1 12.4583 1.02493 0.0288726 12.4583 1.02493 0.0288726
14 2 14.298 1.04048 1.72896 14.298 1.04048 1.72896
15 2 14.4185 1.00944 -1.53084 14.4185 1.00944 -1.53084
16 1 15.3084 2.6716 0.118464 15.3084 2.6716 0.118464
17 2 17.1702 2.68744 1.79422 17.1702 2.68744 1.79422
18 2 17.2481 2.65578 -1.46688 17.2481 2.65578 -1.46688
19 1 18.1595 1.02527 0.202364 18.1595 1.02527 0.202364
20 2 20.0475 1.04174 1.84832 20.0475 1.04174 1.84832
21 2 20.0739 1.00877 -1.41358 20.0739 1.00877 -1.41358
22 1 21.0114 2.67175 0.208276 21.0114 2.67175 0.208276
23 2 22.9264 2.68768 1.82266 22.9264 2.68768 1.82266
24 2 22.8988 2.65575 -1.43926 22.8988 2.65575 -1.43926
25 1 23.8633 1.02526 0.199704 23.8633 1.02526 0.199704
26 2 25.8033 1.04156 1.78391 25.8033 1.04156 1.78391
27 2 25.7248 1.00884 -1.47715 25.7248 1.00884 -1.47715
28 1 26.7143 2.67155 0.113752 26.7143 2.67155 0.113752
29 2 28.6733 2.68644 1.67441 28.6733 2.68644 1.67441
30 2 28.5552 2.65654 -1.58552 28.5552 2.65654 -1.58552
31 1 29.5644 1.0249 0.025071 29.5644 1.0249 0.025071
32 2 31.5364 1.03967 1.56932 31.5364 1.03967 1.56932
33 2 31.3911 1.01002 -1.68948 31.3911 1.01002 -1.68948
34 1 32.4132 2.67114 -0.117614 32.4132 2.67114 -0.117614
35 2 34.3886 2.68413 1.42247 34.3886 2.68413 1.42247
36 2 34.2361 2.65808 -1.83605 34.2361 2.65808 -1.83605
37 1 35.2621 1.02445 -0.238101 35.2621 1.02445 -0.238101
38 2 37.2338 1.03707 1.30684 37.2338 1.03707 1.30684
39 2 37.0891 1.01178 -1.95202 37.0891 1.01178 -1.95202
40 1 38.1111 2.67077 -0.377656 38.1111 2.67077 -0.377656
41 2 40.0696 2.68191 1.18413 40.0696 2.68191 1.18413
42 2 39.9526 2.65964 -2.07586 39.9526 2.65964 -2.07586
43 1 40.9612 1.02413 -0.468708 40.9612 1.02413 -0.468708
44 2 42.9011 1.03522 1.11646 42.9011 1.03522 1.11646
45 2 42.8228 1.01306 -2.14469 42.8228 1.01306 -2.14469
46 1 43.8124 2.67057 -0.548119 43.8124 2.67057 -0.548119
47 2 45.7277 2.68091 1.06686 45.7277 2.68091 1.06686
48 2 45.6996 2.66026 -2.1951 45.6996 2.66026 -2.1951
49 1 46.6643 1.02402 -0.561769 46.6643 1.02402 -0.561769
50 2 48.5532 1.03497 1.08423 48.5532 1.03497 1.08423
51 2 48.5781 1.0131 -2.17776 48.5781 1.0131 -2.17776
52 1 49.5163 2.67056 -0.550436 49.5163 2.67056 -0.550436
53 2 51.3793 2.68167 1.1248 51.3793 2.68167 1.1248
54 2 51.455 2.65949 -2.1364 51.455 2.65949 -2.1364
55 1 1.0619 4.31717 -0.494812 1.0619 4.31717 -0.494812
56 2 2.90345 4.32852 1.20391 2.90345 4.32852 1.20391
57 2 3.02055 4.30586 -2.05606 3.02055 4.30586 -2.05606
58 1 3.91214 5.96383 -0.403278 3.91214 5.96383 -0.403278
59 2 5.73944 5.97515 1.31064 5.73944 5.97515 1.31064
60 2 5.88368 5.95255 -1.94826 5.88368 5.95255 -1.94826
61 1 6.76111 4.31745 -0.265254 6.76111 4.31745 -0.265254
62 2 8.58234 4.33089 1.45494 8.58234 4.33089 1.45494
63 2 8.73802 4.30409 -1.80341 8.73802 4.30409 -1.80341
64 1 9.60989 5.96415 -0.142353 9.60989 5.96415 -0.142353
65 2 11.4359 5.97708 1.57254 11.4359 5.97708 1.57254
66 2 11.5824 5.95131 -1.68626 11.5824 5.95131 -1.68626
67 1 12.4587 4.31787 -0.00110271 12.4587 4.31787 -0.00110271
68 2 14.2986 4.33254 1.69865 14.2986 4.33254 1.69865
69 2 14.4185 4.30327 -1.56121 14.4185 4.30327 -1.56121
70 1 15.3087 5.9645 0.0888197 15.3087 5.9645 0.0888197
71 2 17.1702 5.97766 1.7648 17.1702 5.97766 1.7648
72 2 17.2485 5.95136 -1.49637 17.2485 5.95136 -1.49637
73 1 18.1596 4.31816 0.170292 18.1596 4.31816 0.170292
74 2 20.0473 4.33295 1.81654 20.0473 4.33295 1.81654
75 2 20.0742 4.30334 -1.44542 20.0742 4.30334 -1.44542
76 1 21.0114 5.9646 0.17827 21.0114 5.9646 0.17827
77 2 22.9256 5.977 1.79352 22.9256 5.977 1.79352
78 2 22.8995 5.95214 -1.46851 22.8995 5.95214 -1.46851
79 1 23.8631 4.31812 0.167335 23.8631 4.31812 0.167335
80 2 25.8022 4.33215 1.75261 25.8022 4.33215 1.75261
81 2 25.7254 4.30399 -1.50858 25.7254 4.30399 -1.50858
82 1 26.714 5.96442 0.0851896 26.714 5.96442 0.0851896
83 2 28.6718 5.97557 1.64728 28.6718 5.97557 1.64728
84 2 28.5562 5.95317 -1.61281 28.5562 5.95317 -1.61281
85 1 29.564 4.3178 -0.00526501 29.564 4.3178 -0.00526501
86 2 31.5347 4.33034 1.54076 31.5347 4.33034 1.54076
87 2 31.3922 4.30519 -1.71823 31.3922 4.30519 -1.71823
88 1 32.4129 5.9641 -0.143152 32.4129 5.9641 -0.143152
89 2 34.387 5.97389 1.3986 34.387 5.97389 1.3986
90 2 34.2373 5.95429 -1.86009 34.2373 5.95429 -1.86009
91 1 35.2618 4.31744 -0.264544 35.2618 4.31744 -0.264544
92 2 37.2321 4.32825 1.28223 37.2321 4.32825 1.28223
93 2 37.0904 4.30661 -1.97679 37.0904 4.30661 -1.97679
94 1 38.1109 5.96384 -0.399615 38.1109 5.96384 -0.399615
95 2 40.0684 5.97241 1.16354 40.0684 5.97241 1.16354
96 2 39.9536 5.9553 -2.09654 39.9536 5.9553 -2.09654
97 1 40.9611 4.31719 -0.491297 40.9611 4.31719 -0.491297
98 2 42.9001 4.32678 1.095 42.9001 4.32678 1.095
99 2 42.8237 4.30763 -2.1662 42.8237 4.30763 -2.1662
100 1 43.8123 5.9637 -0.567525 43.8123 5.9637 -0.567525
101 2 45.7273 5.97188 1.04793 45.7273 5.97188 1.04793
102 2 45.7001 5.95556 -2.21404 45.7001 5.95556 -2.21404
103 1 46.6643 4.3171 -0.582666 46.6643 4.3171 -0.582666
104 2 48.5532 4.32683 1.06335 48.5532 4.32683 1.06335
105 2 48.5782 4.3074 -2.19864 48.5782 4.3074 -2.19864
106 1 49.5164 5.96369 -0.570077 49.5164 5.96369 -0.570077
107 2 51.3799 5.97293 1.10458 51.3799 5.97293 1.10458
108 2 51.4546 5.95446 -2.15665 51.4546 5.95446 -2.15665
109 1 1.06202 7.61033 -0.513474 1.06202 7.61033 -0.513474
110 2 2.90448 7.61899 1.18427 2.90448 7.61899 1.18427
111 2 3.01988 7.60168 -2.07578 3.01988 7.60168 -2.07578
112 1 3.91234 9.25699 -0.42077 3.91234 9.25699 -0.42077
113 2 5.74058 9.26459 1.29215 5.74058 9.26459 1.29215
114 2 5.88305 9.24942 -1.96687 5.88305 9.24942 -1.96687
115 1 6.76141 7.61051 -0.288104 6.76141 7.61051 -0.288104
116 2 8.58342 7.62106 1.43126 8.58342 7.62106 1.43126
117 2 8.7376 7.60003 -1.82721 8.7376 7.60003 -1.82721
118 1 9.61023 9.25718 -0.16364 9.61023 9.25718 -0.16364
119 2 11.4365 9.26585 1.55097 11.4365 9.26585 1.55097
120 2 11.5825 9.24859 -1.70793 11.5825 9.24859 -1.70793
121 1 12.459 7.61082 -0.0271959 12.459 7.61082 -0.0271959
122 2 14.2989 7.62197 1.6726 14.2989 7.62197 1.6726
123 2 14.4189 7.59973 -1.58733 14.4189 7.59973 -1.58733
124 1 15.309 9.2574 0.0662778 15.309 9.2574 0.0662778
125 2 17.1698 9.2655 1.74296 17.1698 9.2655 1.74296
126 2 17.2493 9.24933 -1.51827 17.2493 9.24933 -1.51827
127 1 18.1598 7.61102 0.143629 18.1598 7.61102 0.143629
128 2 20.0467 7.62136 1.79069 20.0467 7.62136 1.79069
129 2 20.075 7.60065 -1.47136 20.075 7.60065 -1.47136
130 1 21.0114 9.25744 0.157256 21.0114 9.25744 0.157256
131 2 22.9246 9.26399 1.77372 22.9246 9.26399 1.77372
132 2 22.9004 9.25083 -1.48842 22.9004 9.25083 -1.48842
133 1 23.863 7.61096 0.142125 23.863 7.61096 0.142125
134 2 25.8011 7.61999 1.72862 25.8011 7.61999 1.72862
135 2 25.7263 7.60185 -1.53271 25.7263 7.60185 -1.53271
136 1 26.7139 9.2573 0.0667845 26.7139 9.2573 0.0667845
137 2 28.6708 9.26263 1.63003 28.6708 9.26263 1.63003
138 2 28.557 9.25193 -1.6302 28.557 9.25193 -1.6302
139 1 29.5638 7.61073 -0.0279949 29.5638 7.61073 -0.0279949
140 2 31.5333 7.61864 1.51939 31.5333 7.61864 1.51939
141 2 31.3931 7.60279 -1.73976 31.3931 7.60279 -1.73976
142 1 32.4128 9.25713 -0.159239 32.4128 9.25713 -0.159239
143 2 34.3861 9.26187 1.38346 34.3861 9.26187 1.38346
144 2 34.2379 9.25239 -1.87534 34.2379 9.25239 -1.87534
145 1 35.2616 7.6105 -0.284435 35.2616 7.6105 -0.284435
146 2 37.2309 7.61751 1.26361 37.2309 7.61751 1.26361
147 2 37.0913 7.6035 -1.99554 37.0913 7.6035 -1.99554
148 1 38.1108 9.25701 -0.413837 38.1108 9.25701 -0.413837
149 2 40.0677 9.2614 1.15009 40.0677 9.2614 1.15009
150 2 39.9542 9.25263 -2.11007 39.9542 9.25263 -2.11007
151 1 40.961 7.61035 -0.508655 40.961 7.61035 -0.508655
152 2 42.8994 7.61679 1.07843 42.8994 7.61679 1.07843
153 2 42.8244 7.60394 -2.18282 42.8244 7.60394 -2.18282
154 1 43.8123 9.25694 -0.580557 43.8123 9.25694 -0.580557
155 2 45.7271 9.26144 1.03506 45.7271 9.26144 1.03506
156 2 45.7002 9.25246 -2.22693 45.7002 9.25246 -2.22693
157 1 46.6644 7.61029 -0.599182 46.6644 7.61029 -0.599182
158 2 48.5533 7.61722 1.04664 48.5533 7.61722 1.04664
159 2 48.5781 7.60338 -2.21536 48.5781 7.60338 -2.21536
160 1 49.5164 9.25693 -0.584064 49.5164 9.25693 -0.584064
161 2 51.3806 9.26264 1.08988 51.3806 9.26264 1.08988
162 2 51.4541 9.25121 -2.1714 51.4541 9.25121 -2.1714
163 1 1.06212 10.9036 -0.525019 1.06212 10.9036 -0.525019
164 2 2.90547 10.9079 1.17176 2.90547 10.9079 1.17176
165 2 3.01918 10.8993 -2.08838 3.01918 10.8993 -2.08838
166 1 3.91248 12.5502 -0.429413 3.91248 12.5502 -0.429413
167 2 5.74153 12.5525 1.28265 5.74153 12.5525 1.28265
168 2 5.88247 12.5479 -1.97646 5.88247 12.5479 -1.97646
169 1 6.76166 10.9036 -0.303433 6.76166 10.9036 -0.303433
170 2 8.58428 10.9093 1.41529 8.58428 10.9093 1.41529
171 2 8.7373 10.898 -1.84328 8.7373 10.898 -1.84328
172 1 9.61048 12.5503 -0.175092 9.61048 12.5503 -0.175092
173 2 11.4368 12.5531 1.53946 11.4368 12.5531 1.53946
174 2 11.5827 12.5475 -1.71948 11.5827 12.5475 -1.71948
175 1 12.4593 10.9038 -0.0446914 12.4593 10.9038 -0.0446914
176 2 14.2988 10.9094 1.6555 14.2988 10.9094 1.6555
177 2 14.4194 10.8982 -1.60449 14.4194 10.8982 -1.60449
178 1 15.3092 12.5503 0.0549238 15.3092 12.5503 0.0549238
179 2 17.1691 12.552 1.73261 17.1691 12.552 1.73261
180 2 17.2503 12.5487 -1.52863 17.2503 12.5487 -1.52863
181 1 18.1599 10.9039 0.127217 18.1599 10.9039 0.127217
182 2 20.0458 10.9079 1.77549 20.0458 10.9079 1.77549
183 2 20.0761 10.8998 -1.48662 20.0761 10.8998 -1.48662
184 1 21.0115 12.5503 0.148978 21.0115 12.5503 0.148978
185 2 22.9235 12.5499 1.76675 22.9235 12.5499 1.76675
186 2 22.9016 12.5506 -1.49544 22.9016 12.5506 -1.49544
187 1 23.863 10.9038 0.128767 23.863 10.9038 0.128767
188 2 25.8001 10.9062 1.71643 25.8001 10.9062 1.71643
189 2 25.7272 10.9013 -1.545 25.7272 10.9013 -1.545
190 1 26.714 12.5502 0.0618147 26.714 12.5502 0.0618147
191 2 28.6703 12.5488 1.62572 28.6703 12.5488 1.62572
192 2 28.5576 12.5516 -1.63457 28.5576 12.5516 -1.63457
193 1 29.5638 10.9037 -0.0388443 29.5638 10.9037 -0.0388443
194 2 31.5327 10.9055 1.50923 31.5327 10.9055 1.50923
195 2 31.3936 10.9019 -1.75002 31.3936 10.9019 -1.75002
196 1 32.4128 12.5502 -0.162939 32.4128 12.5502 -0.162939
197 2 34.3861 12.549 1.37987 34.3861 12.549 1.37987
198 2 34.238 12.5514 -1.87896 34.238 12.5514 -1.87896
199 1 35.2616 10.9036 -0.294048 35.2616 10.9036 -0.294048
200 2 37.2305 10.9055 1.25445 37.2305 10.9055 1.25445
201 2 37.0916 10.9018 -2.00475 37.0916 10.9018 -2.00475
202 1 38.1108 12.5502 -0.417564 38.1108 12.5502 -0.417564
203 2 40.0677 12.5495 1.14641 40.0677 12.5495 1.14641
204 2 39.9542 12.551 -2.11375 39.9542 12.551 -2.11375
205 1 40.961 10.9036 -0.517548 40.961 10.9036 -0.517548
206 2 42.8991 10.9056 1.0698 42.8991 10.9056 1.0698
207 2 42.8246 10.9016 -2.19146 42.8246 10.9016 -2.19146
208 1 43.8123 12.5502 -0.584541 43.8123 12.5502 -0.584541
209 2 45.7273 12.55 1.0309 45.7273 12.55 1.0309
210 2 45.7001 12.5505 -2.2311 45.7001 12.5505 -2.2311
211 1 46.6644 10.9036 -0.608277 46.6644 10.9036 -0.608277
212 2 48.5537 10.9063 1.03715 48.5537 10.9063 1.03715
213 2 48.5778 10.9009 -2.22487 48.5778 10.9009 -2.22487
214 1 49.5165 12.5502 -0.589492 49.5165 12.5502 -0.589492
215 2 51.3813 12.5511 1.08366 51.3813 12.5511 1.08366
216 2 51.4535 12.5494 -2.17766 51.4535 12.5494 -2.17766
217 1 1.06217 14.1969 -0.526757 1.06217 14.1969 -0.526757
218 2 2.90634 14.1957 1.16913 2.90634 14.1957 1.16913
219 2 3.01847 14.198 -2.09108 3.01847 14.198 -2.09108
220 1 3.91253 15.8435 -0.42703 3.91253 15.8435 -0.42703
221 2 5.74223 15.8399 1.28433 5.74223 15.8399 1.28433
222 2 5.88193 15.8471 -1.97483 5.88193 15.8471 -1.97483
223 1 6.76182 14.1968 -0.308105 6.76182 14.1968 -0.308105
224 2 8.58486 14.1965 1.41017 8.58486 14.1965 1.41017
225 2 8.73708 14.1972 -1.84846 8.73708 14.1972 -1.84846
226 1 9.61059 15.8434 -0.174416 9.61059 15.8434 -0.174416
227 2 11.4369 15.8398 1.54021 11.4369 15.8398 1.54021
228 2 11.5828 15.847 -1.71873 11.5828 15.847 -1.71873
229 1 12.4595 14.1968 -0.0503353 12.4595 14.1968 -0.0503353
230 2 14.2985 14.1959 1.65041 14.2985 14.1959 1.65041
231 2 14.4201 14.1977 -1.60955 14.4201 14.1977 -1.60955
232 1 15.3092 15.8433 0.0566973 15.3092 15.8433 0.0566973
233 2 17.1682 15.8383 1.73539 17.1682 15.8383 1.73539
234 2 17.2512 15.8482 -1.52579 17.2512 15.8482 -1.52579
235 1 18.16 14.1968 0.123895 18.16 14.1968 0.123895
236 2 20.0448 14.194 1.77347 20.0448 14.194 1.77347
237 2 20.0773 14.1995 -1.48862 20.0773 14.1995 -1.48862
238 1 21.0116 15.8432 0.154552 21.0116 15.8432 0.154552
239 2 22.9227 15.8363 1.77345 22.9227 15.8363 1.77345
240 2 22.9026 15.85 -1.48871 22.9026 15.85 -1.48871
241 1 23.8631 14.1967 0.129416 23.8631 14.1967 0.129416
242 2 25.7994 14.1923 1.71798 25.7994 14.1923 1.71798
243 2 25.7281 14.2011 -1.54348 25.7281 14.2011 -1.54348
244 1 26.7141 15.8431 0.0707272 26.7141 15.8431 0.0707272
245 2 28.6703 15.8355 1.63477 28.6703 15.8355 1.63477
246 2 28.5579 15.8508 -1.62549 28.5579 15.8508 -1.62549
247 1 29.5639 14.1967 -0.0360417 29.5639 14.1967 -0.0360417
248 2 31.5329 14.1922 1.51199 31.5329 14.1922 1.51199
249 2 31.3937 14.2012 -1.74725 31.3937 14.2012 -1.74725
250 1 32.413 15.8433 -0.153746 32.413 15.8433 -0.153746
251 2 34.3867 15.8363 1.38843 34.3867 15.8363 1.38843
252 2 34.2377 15.8502 -1.87033 34.2377 15.8502 -1.87033
253 1 35.2616 14.1968 -0.291567 35.2616 14.1968 -0.291567
254 2 37.2308 14.193 1.25659 37.2308 14.193 1.25659
255 2 37.0914 14.2006 -2.00259 37.0914 14.2006 -2.00259
256 1 38.1109 15.8434 -0.409854 38.1109 15.8434 -0.409854
257 2 40.0682 15.8374 1.15356 40.0682 15.8374 1.15356
258 2 39.9538 15.8495 -2.10656 39.9538 15.8495 -2.10656
259 1 40.961 14.1969 -0.515977 40.961 14.1969 -0.515977
260 2 42.8994 14.1937 1.07114 42.8994 14.1937 1.07114
261 2 42.8244 14.2 -2.19012 42.8244 14.2 -2.19012
262 1 43.8124 15.8435 -0.578106 43.8124 15.8435 -0.578106
263 2 45.7277 15.8381 1.03689 45.7277 15.8381 1.03689
264 2 45.6997 15.8489 -2.22509 45.6997 15.8489 -2.22509
265 1 46.6644 14.1969 -0.607696 46.6644 14.1969 -0.607696
266 2 48.5542 14.1945 1.03718 48.5542 14.1945 1.03718
267 2 48.5773 14.1993 -2.22485 48.5773 14.1993 -2.22485
268 1 49.5165 15.8435 -0.584575 49.5165 15.8435 -0.584575
269 2 51.382 15.839 1.0878 51.382 15.839 1.0878
270 2 51.4528 15.8481 -2.17354 51.4528 15.8481 -2.17354
271 1 1.06215 17.4901 -0.517564 1.06215 17.4901 -0.517564
272 2 2.90701 17.4834 1.17754 2.90701 17.4834 1.17754
273 2 3.01778 17.4969 -2.08269 3.01778 17.4969 -2.08269
274 1 3.91246 19.1367 -0.413394 3.91246 19.1367 -0.413394
275 2 5.74266 19.1277 1.2974 5.74266 19.1277 1.2974
276 2 5.88138 19.1457 -1.96176 5.88138 19.1457 -1.96176
277 1 6.76184 17.49 -0.300833 6.76184 17.49 -0.300833
278 2 8.58519 17.4837 1.41711 8.58519 17.4837 1.41711
279 2 8.73682 17.4964 -1.84153 8.73682 17.4964 -1.84153
280 1 9.61055 19.1365 -0.161538 9.61055 19.1365 -0.161538
281 2 11.4368 19.1272 1.55313 11.4368 19.1272 1.55313
282 2 11.5828 19.1457 -1.70575 11.5828 19.1457 -1.70575
283 1 12.4595 17.4898 -0.0431147 12.4595 17.4898 -0.0431147
284 2 14.298 17.4827 1.65816 14.298 17.4827 1.65816
285 2 14.4206 17.4969 -1.60174 14.4206 17.4969 -1.60174
286 1 15.3092 19.1362 0.0710558 15.3092 19.1362 0.0710558
287 2 17.1676 19.1257 1.7505 17.1676 19.1257 1.7505
288 2 17.2519 19.1466 -1.51057 17.2519 19.1466 -1.51057
289 1 18.16 17.4897 0.133899 18.16 17.4897 0.133899
290 2 20.0439 17.4808 1.78457 20.0439 17.4808 1.78457
291 2 20.0783 17.4985 -1.47745 20.0783 17.4985 -1.47745
292 1 21.0116 19.136 0.172379 21.0116 19.136 0.172379
293 2 22.9221 19.1241 1.792 22.9221 19.1241 1.792
294 2 22.9034 19.1479 -1.47009 22.9034 19.1479 -1.47009
295 1 23.8632 17.4896 0.143337 23.8632 17.4896 0.143337
296 2 25.7992 17.4794 1.7324 25.7992 17.4794 1.7324
297 2 25.7287 17.4997 -1.52902 25.7287 17.4997 -1.52902
298 1 26.7144 19.136 0.0912338 26.7144 19.136 0.0912338
299 2 28.6708 19.1238 1.65499 28.6708 19.1238 1.65499
300 2 28.5579 19.1483 -1.60518 28.5579 19.1483 -1.60518
301 1 29.5642 17.4897 -0.0205523 29.5642 17.4897 -0.0205523
302 2 31.5336 17.4798 1.52686 31.5336 17.4798 1.52686
303 2 31.3935 17.4996 -1.73228 31.3935 17.4996 -1.73228
304 1 32.4133 19.1363 -0.13366 32.4133 19.1363 -0.13366
305 2 34.3879 19.125 1.40742 34.3879 19.125 1.40742
306 2 34.2371 19.1476 -1.8512 34.2371 19.1476 -1.8512
307 1 35.2619 17.4899 -0.277443 35.2619 17.4899 -0.277443
308 2 37.2318 17.4811 1.26978 37.2318 17.4811 1.26978
309 2 37.0908 17.4987 -1.98929 37.0908 17.4987 -1.98929
310 1 38.1111 19.1366 -0.391951 38.1111 19.1366 -0.391951
311 2 40.0691 19.1263 1.17053 40.0691 19.1263 1.17053
312 2 39.9532 19.1469 -2.0895 39.9532 19.1469 -2.0895
313 1 40.9611 17.4901 -0.503737 40.9611 17.4901 -0.503737
314 2 42.8999 17.4821 1.08277 42.8999 17.4821 1.08277
315 2 42.824 17.4981 -2.17844 42.824 17.4981 -2.17844
316 1 43.8124 19.1368 -0.561815 43.8124 19.1368 -0.561815
317 2 45.7282 19.1269 1.05259 45.7282 19.1269 1.05259
318 2 45.6993 19.1466 -2.20936 45.6993 19.1466 -2.20936
319 1 46.6644 17.4902 -0.596731 46.6644 17.4902 -0.596731
320 2 48.5547 17.4827 1.04752 48.5547 17.4827 1.04752
321 2 48.5768 17.4977 -2.21449 48.5768 17.4977 -2.21449
322 1 49.5164 19.1368 -0.569402 49.5164 19.1368 -0.569402
323 2 51.3826 19.1274 1.10228 51.3826 19.1274 1.10228
324 2 51.4522 19.1462 -2.15906 51.4522 19.1462 -2.15906
325 1 1.06204 20.7833 -0.498464 1.06204 20.7833 -0.498464
326 2 2.9074 20.7721 1.19605 2.9074 20.7721 1.19605
327 2 3.01715 20.7946 -2.06418 3.01715 20.7946 -2.06418
328 1 3.91228 22.4298 -0.390588 3.91228 22.4298 -0.390588
329 2 5.74283 22.4169 1.31981 5.74283 22.4169 1.31981
330 2 5.88082 22.4427 -1.93935 5.88082 22.4427 -1.93935
331 1 6.7617 20.7831 -0.282533 6.7617 20.7831 -0.282533
332 2 8.58531 20.7718 1.43512 8.58531 20.7718 1.43512
333 2 8.73644 20.7944 -1.82349 8.73644 20.7944 -1.82349
334 1 9.61035 22.4295 -0.13863 9.61035 22.4295 -0.13863
335 2 11.4367 22.4162 1.57598 11.4367 22.4162 1.57598
336 2 11.5826 22.4428 -1.68284 11.5826 22.4428 -1.68284
337 1 12.4594 20.7828 -0.0243493 12.4594 20.7828 -0.0243493
338 2 14.2977 20.7708 1.67723 14.2977 20.7708 1.67723
339 2 14.4207 20.7948 -1.58257 14.4207 20.7948 -1.58257
340 1 15.3091 22.4291 0.0953041 15.3091 22.4291 0.0953041
341 2 17.1672 22.4151 1.77506 17.1672 22.4151 1.77506
342 2 17.2521 22.4432 -1.48591 17.2521 22.4432 -1.48591
343 1 18.16 20.7825 0.155046 18.16 20.7825 0.155046
344 2 20.0433 20.7694 1.80633 20.0433 20.7694 1.80633
345 2 20.0788 20.7956 -1.45559 20.0788 20.7956 -1.45559
346 1 21.0116 22.4289 0.198867 21.0116 22.4289 0.198867
347 2 22.9221 22.4142 1.81867 22.9221 22.4142 1.81867
348 2 22.9036 22.4435 -1.44335 22.9036 22.4435 -1.44335
349 1 23.8634 20.7824 0.167356 23.8634 20.7824 0.167356
350 2 25.7993 20.7687 1.75649 25.7993 20.7687 1.75649
351 2 25.729 20.7962 -1.50485 25.729 20.7962 -1.50485
352 1 26.7146 22.4289 0.119117 26.7146 22.4289 0.119117
353 2 28.6716 22.4145 1.68228 28.6716 22.4145 1.68228
354 2 28.5578 22.4434 -1.5778 28.5578 22.4434 -1.5778
355 1 29.5645 20.7826 0.00424553 29.5645 20.7826 0.00424553
356 2 31.5347 20.7694 1.55073 31.5347 20.7694 1.55073
357 2 31.393 20.7959 -1.70828 31.393 20.7959 -1.70828
358 1 32.4137 22.4293 -0.106728 32.4137 22.4293 -0.106728
359 2 34.3892 22.4158 1.43312 34.3892 22.4158 1.43312
360 2 34.2364 22.4428 -1.82537 34.2364 22.4428 -1.82537
361 1 35.2622 20.783 -0.254454 35.2622 20.783 -0.254454
362 2 37.233 20.7708 1.29157 37.233 20.7708 1.29157
363 2 37.0901 20.7951 -1.96738 37.0901 20.7951 -1.96738
364 1 38.1114 22.4296 -0.367279 38.1114 22.4296 -0.367279
365 2 40.0702 22.4171 1.19417 40.0702 22.4171 1.19417
366 2 39.9525 22.4422 -2.06579 39.9525 22.4422 -2.06579
367 1 40.9613 20.7832 -0.482843 40.9613 20.7832 -0.482843
368 2 42.9007 20.7717 1.1029 42.9007 20.7717 1.1029
369 2 42.8234 20.7947 -2.15826 42.8234 20.7947 -2.15826
370 1 43.8125 22.4299 -0.538533 43.8125 22.4299 -0.538533
371 2 45.7287 22.4175 1.07532 45.7287 22.4175 1.07532
372 2 45.6988 22.4422 -2.18661 45.6988 22.4422 -2.18661
373 1 46.6644 20.7834 -0.576837 46.6644 20.7834 -0.576837
374 2 48.5552 20.772 1.06687 48.5552 20.772 1.06687
375 2 48.5763 20.7947 -2.19513 48.5763 20.7947 -2.19513
376 1 49.5164 22.4299 -0.546406 49.5164 22.4299 -0.546406
377 2 51.3828 22.4173 1.12484 51.3828 22.4173 1.12484
378 2 51.4517 22.4425 -2.1365 51.4517 22.4425 -2.1365
379 1 1.06187 24.0764 -0.472877 1.06187 24.0764 -0.472877
380 2 2.90744 24.0628 1.22138 2.90744 24.0628 1.22138
381 2 3.0167 24.09 -2.03885 3.0167 24.09 -2.03885
382 1 3.91201 25.7228 -0.362978 3.91201 25.7228 -0.362978
383 2 5.74262 25.7085 1.34734 5.74262 25.7085 1.34734
384 2 5.88045 25.7371 -1.91181 5.88045 25.7371 -1.91181
385 1 6.76144 24.0762 -0.256403 6.76144 24.0762 -0.256403
386 2 8.58524 24.062 1.46104 8.58524 24.062 1.46104
387 2 8.73599 24.0904 -1.79754 8.73599 24.0904 -1.79754
388 1 9.61003 25.7225 -0.109866 9.61003 25.7225 -0.109866
389 2 11.4364 25.7075 1.60466 11.4364 25.7075 1.60466
390 2 11.5822 25.7374 -1.65412 11.5822 25.7374 -1.65412
391 1 12.4592 24.0758 0.0026231 12.4592 24.0758 0.0026231
392 2 14.2974 24.061 1.70423 14.2974 24.061 1.70423
393 2 14.4206 24.0905 -1.5555 14.4206 24.0905 -1.5555
394 1 15.3089 25.7221 0.125196 15.3089 25.7221 0.125196
395 2 17.1671 25.7067 1.80483 17.1671 25.7067 1.80483
396 2 17.2518 25.7374 -1.45611 17.2518 25.7374 -1.45611
397 1 18.1599 24.0754 0.183487 18.1599 24.0754 0.183487
398 2 20.0432 24.0603 1.83481 20.0432 24.0603 1.83481
399 2 20.0788 24.0905 -1.42705 20.0788 24.0905 -1.42705
400 1 21.0116 25.7218 0.229477 21.0116 25.7218 0.229477
401 2 22.9225 25.7068 1.84889 22.9225 25.7068 1.84889
402 2 22.9034 25.7369 -1.41309 22.9034 25.7369 -1.41309
403 1 23.8635 24.0753 0.196978 23.8635 24.0753 0.196978
404 2 25.7998 24.0603 1.78575 25.7998 24.0603 1.78575
405 2 25.7289 24.0903 -1.47552 25.7289 24.0903 -1.47552
406 1 26.7148 25.7219 0.149499 26.7148 25.7219 0.149499
407 2 28.6725 25.7076 1.71184 28.6725 25.7076 1.71184
408 2 28.5573 25.7363 -1.54817 28.5573 25.7363 -1.54817
409 1 29.5648 24.0756 0.0336025 29.5648 24.0756 0.0336025
410 2 31.5359 24.0614 1.57905 31.5359 24.0614 1.57905
411 2 31.3925 24.0898 -1.67986 31.3925 24.0898 -1.67986
412 1 32.414 25.7223 -0.0778817 32.414 25.7223 -0.0778817
413 2 34.3905 25.7091 1.46076 34.3905 25.7091 1.46076
414 2 34.2356 25.7355 -1.79763 34.2356 25.7355 -1.79763
415 1 35.2625 24.076 -0.227064 35.2625 24.076 -0.227064
416 2 37.2343 24.0629 1.31775 37.2343 24.0629 1.31775
417 2 37.0893 24.0891 -1.9411 37.0893 24.0891 -1.9411
418 1 38.1116 25.7226 -0.340637 38.1116 25.7226 -0.340637
419 2 40.0712 25.7103 1.21984 40.0712 25.7103 1.21984
420 2 39.9519 25.735 -2.04008 39.9519 25.735 -2.04008
421 1 40.9615 24.0763 -0.457363 40.9615 24.0763 -0.457363
422 2 42.9015 24.0637 1.12765 42.9015 24.0637 1.12765
423 2 42.8229 24.0889 -2.13349 42.8229 24.0889 -2.13349
424 1 43.8126 25.7229 -0.512996 43.8126 25.7229 -0.512996
425 2 45.7291 25.7105 1.10049 45.7291 25.7105 1.10049
426 2 45.6985 25.7352 -2.16146 45.6985 25.7352 -2.16146
427 1 46.6644 24.0764 -0.551784 46.6644 24.0764 -0.551784
428 2 48.5554 24.0635 1.09162 48.5554 24.0635 1.09162
429 2 48.5759 24.0894 -2.17039 48.5759 24.0894 -2.17039
430 1 49.5163 25.7229 -0.520212 49.5163 25.7229 -0.520212
431 2 51.3827 25.7097 1.15103 51.3827 25.7097 1.15103
432 2 51.4515 25.7361 -2.11033 51.4515 25.7361 -2.11033
433 1 1.06168 27.3693 -0.446113 1.06168 27.3693 -0.446113
434 2 2.907 27.3562 1.24841 2.907 27.3562 1.24841
435 2 3.01666 27.3826 -2.01183 3.01666 27.3826 -2.01183
436 1 3.91174 29.0157 -0.33627 3.91174 29.0157 -0.33627
437 2 5.74192 29.0029 1.37452 5.74192 29.0029 1.37452
438 2 5.88051 29.0286 -1.88463 5.88051 29.0286 -1.88463
439 1 6.7611 27.3691 -0.227514 6.7611 27.3691 -0.227514
440 2 8.58486 27.3547 1.48999 8.58486 27.3547 1.48999
441 2 8.73568 27.3836 -1.76858 8.73568 27.3836 -1.76858
442 1 9.60966 29.0154 -0.0806204 9.60966 29.0154 -0.0806204
443 2 11.436 29.0014 1.63401 11.436 29.0014 1.63401
444 2 11.5819 29.0295 -1.62478 11.5819 29.0295 -1.62478
445 1 12.4588 27.3688 0.0330007 12.4588 27.3688 0.0330007
446 2 14.2973 27.3537 1.73448 14.2973 27.3537 1.73448
447 2 14.4202 27.3838 -1.52524 14.4202 27.3838 -1.52524
448 1 15.3086 29.0151 0.155704 15.3086 29.0151 0.155704
449 2 17.1673 29.0009 1.83492 17.1673 29.0009 1.83492
450 2 17.2512 29.0292 -1.42602 17.2512 29.0292 -1.42602
451 1 18.1598 27.3684 0.214522 18.1598 27.3684 0.214522
452 2 20.0436 27.3536 1.86536 20.0436 27.3536 1.86536
453 2 20.0783 27.3832 -1.39648 20.0783 27.3832 -1.39648
454 1 21.0116 29.0149 0.259527 21.0116 29.0149 0.259527
455 2 22.9233 29.0015 1.87807 22.9233 29.0015 1.87807
456 2 22.9027 29.0282 -1.38389 22.9027 29.0282 -1.38389
457 1 23.8636 27.3683 0.227489 23.8636 27.3683 0.227489
458 2 25.8007 27.3544 1.81547 25.8007 27.3544 1.81547
459 2 25.7284 27.3823 -1.44577 25.7284 27.3823 -1.44577
460 1 26.715 29.015 0.177835 26.715 29.015 0.177835
461 2 28.6737 29.0029 1.73911 28.6737 29.0029 1.73911
462 2 28.5566 29.0271 -1.52085 28.5566 29.0271 -1.52085
463 1 29.5651 27.3686 0.0626624 29.5651 27.3686 0.0626624
464 2 31.5371 27.3558 1.60701 31.5371 27.3558 1.60701
465 2 31.3919 27.3815 -1.65182 31.3919 27.3815 -1.65182
466 1 32.4143 29.0153 -0.0517798 32.4143 29.0153 -0.0517798
467 2 34.3917 29.0045 1.48568 34.3917 29.0045 1.48568
468 2 34.2349 29.0261 -1.77265 34.2349 29.0261 -1.77265
469 1 35.2627 27.369 -0.200216 35.2627 27.369 -0.200216
470 2 37.2355 27.3573 1.34345 37.2355 27.3573 1.34345
471 2 37.0886 27.3807 -1.91534 37.0886 27.3807 -1.91534
472 1 38.1118 29.0156 -0.31692 38.1118 29.0156 -0.31692
473 2 40.0721 29.0059 1.24263 40.0721 29.0059 1.24263
474 2 39.9512 29.0253 -2.01727 39.9512 29.0253 -2.01727
475 1 40.9616 27.3692 -0.4324 40.9616 27.3692 -0.4324
476 2 42.9021 27.3581 1.15199 42.9021 27.3581 1.15199
477 2 42.8224 27.3804 -2.10916 42.8224 27.3804 -2.10916
478 1 43.8127 29.0158 -0.490473 43.8127 29.0158 -0.490473
479 2 45.7293 29.0061 1.12286 45.7293 29.0061 1.12286
480 2 45.6983 29.0255 -2.13915 45.6983 29.0255 -2.13915
481 1 46.6644 27.3694 -0.526867 46.6644 27.3694 -0.526867
482 2 48.5554 27.3576 1.1166 48.5554 27.3576 1.1166
483 2 48.5759 27.3811 -2.14545 48.5759 27.3811 -2.14545
484 1 49.5162 29.0158 -0.496433 49.5162 29.0158 -0.496433
485 2 51.3822 29.0048 1.17532 51.3822 29.0048 1.17532
486 2 51.4517 29.0269 -2.08608 51.4517 29.0269 -2.08608
487 1 1.06152 30.6623 -0.423837 1.06152 30.6623 -0.423837
488 2 2.90607 30.6522 1.27156 2.90607 30.6522 1.27156
489 2 3.01715 30.6724 -1.9887 3.01715 30.6724 -1.9887
490 1 3.91152 32.3087 -0.315826 3.91152 32.3087 -0.315826
491 2 5.74074 32.2997 1.39604 5.74074 32.2997 1.39604
492 2 5.88116 32.3177 -1.86309 5.88116 32.3177 -1.86309
493 1 6.76077 30.6621 -0.201568 6.76077 30.6621 -0.201568
494 2 8.58404 30.65 1.5165 8.58404 30.65 1.5165
495 2 8.73579 30.6741 -1.74206 8.73579 30.6741 -1.74206
496 1 9.60931 32.3085 -0.0562606 9.60931 32.3085 -0.0562606
497 2 11.4353 32.2978 1.6588 11.4353 32.2978 1.6588
498 2 11.582 32.3191 -1.59999 11.582 32.3191 -1.59999
499 1 12.4585 30.6618 0.0614336 12.4585 30.6618 0.0614336
500 2 14.2971 30.6489 1.76281 14.2971 30.6489 1.76281
501 2 14.4198 30.6746 -1.49692 14.4198 30.6746 -1.49692
502 1 15.3083 32.3082 0.181759 15.3083 32.3082 0.181759
503 2 17.1676 32.2974 1.86048 17.1676 32.2974 1.86048
504 2 17.2506 32.3189 -1.40051 17.2506 32.3189 -1.40051
505 1 18.1596 30.6615 0.243265 18.1596 30.6615 0.243265
506 2 20.0442 30.6492 1.89329 20.0442 30.6492 1.89329
507 2 20.0776 30.6738 -1.36856 20.0776 30.6738 -1.36856
508 1 21.0116 32.308 0.284521 21.0116 32.308 0.284521
509 2 22.9243 32.2984 1.90191 22.9243 32.2984 1.90191
510 2 22.9017 32.3177 -1.36006 22.9017 32.3177 -1.36006
511 1 23.8637 30.6615 0.254503 23.8637 30.6615 0.254503
512 2 25.8018 30.6505 1.84133 25.8018 30.6505 1.84133
513 2 25.7275 30.6725 -1.41987 25.7275 30.6725 -1.41987
514 1 26.7152 32.3081 0.200138 26.7152 32.3081 0.200138
515 2 28.6749 32.3001 1.76017 28.6749 32.3001 1.76017
516 2 28.5557 32.3163 -1.49974 28.5557 32.3163 -1.49974
517 1 29.5653 30.6617 0.0871739 29.5653 30.6617 0.0871739
518 2 31.5383 30.6521 1.63035 31.5383 30.6521 1.63035
519 2 31.3911 30.6713 -1.62843 31.3911 30.6713 -1.62843
520 1 32.4144 32.3084 -0.03229 32.4144 32.3084 -0.03229
521 2 34.3928 32.3016 1.50402 34.3928 32.3016 1.50402
522 2 34.234 32.3151 -1.75426 34.234 32.3151 -1.75426
523 1 35.2629 30.662 -0.178303 35.2629 30.662 -0.178303
524 2 37.2366 30.6537 1.36426 37.2366 30.6537 1.36426
525 2 37.0878 30.6703 -1.8945 37.0878 30.6703 -1.8945
526 1 38.1119 32.3086 -0.30007 38.1119 32.3086 -0.30007
527 2 40.073 32.303 1.2586 40.073 32.303 1.2586
528 2 39.9505 32.3142 -2.00129 39.9505 32.3142 -2.00129
529 1 40.9617 30.6622 -0.412664 40.9617 30.6622 -0.412664
530 2 42.9027 30.6546 1.17119 42.9027 30.6546 1.17119
531 2 42.822 30.6697 -2.09 42.822 30.6697 -2.09
532 1 43.8127 32.3087 -0.475195 43.8127 32.3087 -0.475195
533 2 45.7294 32.3033 1.13811 45.7294 32.3033 1.13811
534 2 45.6982 32.314 -2.12395 45.6982 32.314 -2.12395
535 1 46.6644 30.6623 -0.50727 46.6644 30.6623 -0.50727
536 2 48.555 30.6541 1.1366 48.555 30.6541 1.1366
537 2 48.5761 30.6705 -2.12552 48.5761 30.6705 -2.12552
538 1 49.5161 32.3087 -0.479887 49.5161 32.3087 -0.479887
539 2 51.3813 32.302 1.19279 51.3813 32.302 1.19279