ITEM: TIMESTEP
33000
ITEM: NUMBER OF ATOMS
810
ITEM: BOX BOUNDS pp pp pp
8.4148724329315694e-01 5.2176117756705906e+01
8.0941177827038435e-01 5.0206803221729196e+01
-1.0000000000000000e+01 1.0000000000000000e+01
ITEM: ATOMS id type x y z xu yu zu
1 1 1.04517 1.02378 -0.23924 1.04517 1.02378 -0.23924
2 2 2.92915 1.01648 1.41203 2.92915 1.01648 1.41203
3 2 2.9637 1.03106 -1.84994 2.9637 1.03106 -1.84994
4 1 3.89703 2.67032 -0.201462 3.89703 2.67032 -0.201462
5 2 5.77769 2.66336 1.45357 5.77769 2.66336 1.45357
6 2 5.81879 2.67726 -1.80833 5.81879 2.67726 -1.80833
7 1 6.74886 1.02371 -0.172399 6.74886 1.02371 -0.172399
8 2 8.62888 1.01588 1.4833 8.62888 1.01588 1.4833
9 2 8.67124 1.03153 -1.77857 8.67124 1.03153 -1.77857
10 1 9.60063 2.67025 -0.127343 9.60063 2.67025 -0.127343
11 2 11.4826 2.66264 1.52606 11.4826 2.66264 1.52606
12 2 11.5211 2.67784 -1.73586 11.5211 2.67784 -1.73586
13 1 12.4525 1.02364 -0.10137 12.4525 1.02364 -0.10137
14 2 14.339 1.01526 1.54685 14.339 1.01526 1.54685
15 2 14.3686 1.03201 -1.71516 14.3686 1.03201 -1.71516
16 1 15.3044 2.67019 -0.0670568 15.3044 2.67019 -0.0670568
17 2 17.197 2.66184 1.57413 17.197 2.66184 1.57413
18 2 17.2145 2.67853 -1.68796 17.2145 2.67853 -1.68796
19 1 18.1564 1.0236 -0.060272 18.1564 1.0236 -0.060272
20 2 20.0561 1.01499 1.57268 20.0561 1.01499 1.57268
21 2 20.0595 1.03223 -1.68946 20.0595 1.03223 -1.68946
22 1 21.0085 2.67018 -0.0487003 21.0085 2.67018 -0.0487003
23 2 22.9153 2.6615 1.57582 22.9153 2.6615 1.57582
24 2 22.9043 2.67887 -1.68629 22.9043 2.67887 -1.68629
25 1 23.8605 1.02362 -0.0672696 23.8605 1.02362 -0.0672696
26 2 25.7736 1.01525 1.54991 25.7736 1.01525 1.54991
27 2 25.7501 1.03203 -1.71214 25.7501 1.03203 -1.71214
28 1 26.7125 2.67022 -0.0795055 26.7125 2.67022 -0.0795055
29 2 28.6307 2.66178 1.53164 28.6307 2.66178 1.53164
30 2 28.5968 2.67869 -1.73033 28.5968 2.67869 -1.73033
31 1 29.5643 1.02369 -0.117807 29.5643 1.02369 -0.117807
32 2 31.4852 1.01584 1.49013 31.4852 1.01584 1.49013
33 2 31.4459 1.03156 -1.77178 31.4459 1.03156 -1.77178
34 1 32.4162 2.6703 -0.144349 32.4162 2.6703 -0.144349
35 2 34.3381 2.66245 1.4624 34.3381 2.66245 1.4624
36 2 34.2967 2.67816 -1.79949 34.2967 2.67816 -1.79949
37 1 35.268 1.02376 -0.188591 35.268 1.02376 -0.188591
38 2 37.1881 1.01648 1.42039 37.1881 1.01648 1.42039
39 2 37.1504 1.03105 -1.84155 37.1504 1.03105 -1.84155
40 1 38.1198 2.67036 -0.214193 38.1198 2.67036 -0.214193
41 2 40.0365 2.66318 1.39897 40.0365 2.66318 1.39897
42 2 40.0058 2.67754 -1.86304 40.0058 2.67754 -1.86304
43 1 40.9718 1.02381 -0.248239 40.9718 1.02381 -0.248239
44 2 42.8825 1.01689 1.3719 42.8825 1.01689 1.3719
45 2 42.8637 1.03073 -1.8902 42.8637 1.03073 -1.8902
46 1 43.8238 2.67039 -0.257604 43.8238 2.67039 -0.257604
47 2 45.7278 2.66363 1.37048 45.7278 2.66363 1.37048
48 2 45.7225 2.67714 -1.89167 45.7225 2.67714 -1.89167
49 1 46.6758 1.02382 -0.268955 46.6758 1.02382 -0.268955
50 2 48.5723 1.01686 1.36796 48.5723 1.01686 1.36796
51 2 48.582 1.03076 -1.89419 48.582 1.03076 -1.89419
52 1 49.5278 2.67037 -0.25318 49.5278 2.67037 -0.25318
53 2 51.4174 2.66368 1.39168 51.4174 2.66368 1.39168
54 2 51.4409 2.67704 -1.8704 51.4409 2.67704 -1.8704
55 1 1.04515 4.31692 -0.225704 1.04515 4.31692 -0.225704
56 2 2.92926 4.31104 1.42543 2.92926 4.31104 1.42543
57 2 2.96353 4.32277 -1.83656 2.96353 4.32277 -1.83656
58 1 3.89701 5.96346 -0.189577 3.89701 5.96346 -0.189577
59 2 5.77774 5.95877 1.46539 5.77774 5.95877 1.46539
60 2 5.81868 5.96813 -1.79653 5.81868 5.96813 -1.79653
61 1 6.74882 4.31686 -0.158322 6.74882 4.31686 -0.158322
62 2 8.62874 4.31057 1.49751 8.62874 4.31057 1.49751
63 2 8.67129 4.32312 -1.76437 8.67129 4.32312 -1.76437
64 1 9.6006 5.9634 -0.114647 9.6006 5.9634 -0.114647
65 2 11.4823 5.95794 1.5391 11.4823 5.95794 1.5391
66 2 11.5213 5.96886 -1.72283 11.5213 5.96886 -1.72283
67 1 12.4525 4.31679 -0.0859912 12.4525 4.31679 -0.0859912
68 2 14.3387 4.30955 1.56251 14.3387 4.30955 1.56251
69 2 14.3688 4.32402 -1.6995 14.3688 4.32402 -1.6995
70 1 15.3044 5.96336 -0.0524238 15.3044 5.96336 -0.0524238
71 2 17.1966 5.95657 1.58921 17.1966 5.95657 1.58921
72 2 17.2149 5.97014 -1.67288 17.2149 5.97014 -1.67288
73 1 18.1564 4.31675 -0.0433783 18.1564 4.31675 -0.0433783
74 2 20.056 4.30858 1.58964 20.056 4.30858 1.58964
75 2 20.0595 4.32494 -1.67249 20.0595 4.32494 -1.67249
76 1 21.0085 5.96333 -0.0321447 21.0085 5.96333 -0.0321447
77 2 22.9153 5.95556 1.59246 22.9153 5.95556 1.59246
78 2 22.9044 5.97112 -1.66966 22.9044 5.97112 -1.66966
79 1 23.8605 4.31677 -0.049671 23.8605 4.31677 -0.049671
80 2 25.7739 4.30828 1.56718 25.7739 4.30828 1.56718
81 2 25.7498 4.32527 -1.69487 25.7498 4.32527 -1.69487
82 1 26.7125 5.96337 -0.0622912 26.7125 5.96337 -0.0622912
83 2 28.6311 5.95546 1.54843 28.6311 5.95546 1.54843
84 2 28.5965 5.9713 -1.71353 28.5965 5.9713 -1.71353
85 1 29.5644 4.31683 -0.100669 29.5644 4.31683 -0.100669
86 2 31.4858 4.30871 1.50664 31.4858 4.30871 1.50664
87 2 31.4454 4.32497 -1.75526 31.4454 4.32497 -1.75526
88 1 32.4163 5.96343 -0.127863 32.4163 5.96343 -0.127863
89 2 34.3388 5.95612 1.47815 34.3388 5.95612 1.47815
90 2 34.2961 5.97077 -1.78372 34.2961 5.97077 -1.78372
91 1 35.268 4.3169 -0.172666 35.268 4.3169 -0.172666
92 2 37.1887 4.30954 1.43559 37.1887 4.30954 1.43559
93 2 37.1498 4.32428 -1.82633 37.1498 4.32428 -1.82633
94 1 38.1199 5.9635 -0.19924 38.1199 5.9635 -0.19924
95 2 40.0372 5.95712 1.41312 40.0372 5.95712 1.41312
96 2 40.0051 5.96988 -1.84889 40.0051 5.96988 -1.84889
97 1 40.9718 4.31695 -0.23368 40.9718 4.31695 -0.23368
98 2 42.883 4.31037 1.38587 42.883 4.31037 1.38587
99 2 42.8632 4.32352 -1.87623 42.8632 4.32352 -1.87623
100 1 43.8238 5.96352 -0.244271 43.8238 5.96352 -0.244271
101 2 45.7284 5.95809 1.38317 45.7284 5.95809 1.38317
102 2 45.7219 5.96894 -1.879 45.7219 5.96894 -1.879
103 1 46.6758 4.31695 -0.255265 46.6758 4.31695 -0.255265
104 2 48.5726 4.31092 1.38129 48.5726 4.31092 1.38129
105 2 48.5817 4.32297 -1.88086 48.5817 4.32297 -1.88086
106 1 49.5278 5.9635 -0.240955 49.5278 5.9635 -0.240955
107 2 51.4178 5.95874 1.40349 51.4178 5.95874 1.40349
108 2 51.4405 5.96825 -1.85861 51.4405 5.96825 -1.85861
109 1 1.04514 7.61005 -0.216059 1.04514 7.61005 -0.216059
110 2 2.92958 7.60695 1.43471 2.92958 7.60695 1.43471
111 2 2.96319 7.61314 -1.8273 2.96319 7.61314 -1.8273
112 1 3.89701 9.25661 -0.183301 3.89701 9.25661 -0.183301
113 2 5.77787 9.25529 1.47153 5.77787 9.25529 1.47153
114 2 5.81855 9.25792 -1.7904 5.81855 9.25792 -1.7904
115 1 6.7488 7.61001 -0.148849 6.7488 7.61001 -0.148849
116 2 8.62858 7.60664 1.50717 8.62858 7.60664 1.50717
117 2 8.67141 7.61337 -1.75473 8.67141 7.61337 -1.75473
118 1 9.60059 9.25658 -0.107848 9.60059 9.25658 -0.107848
119 2 11.4819 9.25447 1.54646 11.4819 9.25447 1.54646
120 2 11.5218 9.25868 -1.71548 11.5218 9.25868 -1.71548
121 1 12.4524 7.60997 -0.0749481 12.4524 7.60997 -0.0749481
122 2 14.3382 7.60532 1.57419 14.3382 7.60532 1.57419
123 2 14.3693 7.61461 -1.68783 14.3693 7.61461 -1.68783
124 1 15.3044 9.25655 -0.0430532 15.3044 9.25655 -0.0430532
125 2 17.1958 9.25275 1.59946 17.1958 9.25275 1.59946
126 2 17.2156 9.26034 -1.66264 17.2156 9.26034 -1.66264
127 1 18.1564 7.60993 -0.0296554 18.1564 7.60993 -0.0296554
128 2 20.0556 7.60375 1.60391 20.0556 7.60375 1.60391
129 2 20.06 7.61612 -1.65824 20.06 7.61612 -1.65824
130 1 21.0085 9.25653 -0.0196312 21.0085 9.25653 -0.0196312
131 2 22.9149 9.25119 1.60549 22.9149 9.25119 1.60549
132 2 22.9049 9.26186 -1.65665 22.9049 9.26186 -1.65665
133 1 23.8605 7.60993 -0.0339169 23.8605 7.60993 -0.0339169
134 2 25.7739 7.6029 1.58292 25.7739 7.6029 1.58292
135 2 25.7498 7.61698 -1.67913 25.7498 7.61698 -1.67913
136 1 26.7126 9.25654 -0.048025 26.7126 9.25654 -0.048025
137 2 28.6313 9.25067 1.56252 28.6313 9.25067 1.56252
138 2 28.5964 9.26243 -1.69945 28.5964 9.26243 -1.69945
139 1 29.5645 7.60998 -0.0846073 29.5645 7.60998 -0.0846073
140 2 31.4864 7.60311 1.52214 31.4864 7.60311 1.52214
141 2 31.445 7.61687 -1.73975 31.445 7.61687 -1.73975
142 1 32.4163 9.25659 -0.113895 32.4163 9.25659 -0.113895
143 2 34.3395 9.25122 1.4914 34.3395 9.25122 1.4914
144 2 34.2956 9.26198 -1.77047 34.2956 9.26198 -1.77047
145 1 35.2681 7.61004 -0.157797 35.2681 7.61004 -0.157797
146 2 37.1895 7.60401 1.44961 37.1895 7.60401 1.44961
147 2 37.1491 7.61608 -1.81231 37.1491 7.61608 -1.81231
148 1 38.1199 9.25664 -0.186986 38.1199 9.25664 -0.186986
149 2 40.038 9.25235 1.42443 40.038 9.25235 1.42443
150 2 40.0043 9.26093 -1.83758 40.0043 9.26093 -1.83758
151 1 40.9718 7.61008 -0.220731 40.9718 7.61008 -0.220731
152 2 42.8838 7.6052 1.39794 42.8838 7.6052 1.39794
153 2 42.8624 7.61496 -1.86417 42.8624 7.61496 -1.86417
154 1 43.8238 9.25666 -0.234348 43.8238 9.25666 -0.234348
155 2 45.7292 9.25371 1.39215 45.7292 9.25371 1.39215
156 2 45.7211 9.2596 -1.87003 45.7211 9.2596 -1.87003
157 1 46.6758 7.61008 -0.244251 46.6758 7.61008 -0.244251
158 2 48.5732 7.60631 1.3916 48.5732 7.60631 1.3916
159 2 48.5811 7.61384 -1.87058 48.5811 7.61384 -1.87058
160 1 49.5278 9.25664 -0.233301 49.5278 9.25664 -0.233301
161 2 51.4184 9.25489 1.41045 51.4184 9.25489 1.41045
162 2 51.4399 9.25837 -1.85167 51.4399 9.25837 -1.85167
163 1 1.04514 10.9032 -0.212512 1.04514 10.9032 -0.212512
164 2 2.93005 10.9036 1.43773 2.93005 10.9036 1.43773
165 2 2.96274 10.9028 -1.82429 2.96274 10.9028 -1.82429
166 1 3.89703 12.5498 -0.184068 3.89703 12.5498 -0.184068
167 2 5.77807 12.5521 1.47057 5.77807 12.5521 1.47057
168 2 5.81841 12.5474 -1.79137 5.81841 12.5474 -1.79137
169 1 6.74882 10.9032 -0.146193 6.74882 10.9032 -0.146193
170 2 8.6284 10.9035 1.51007 8.6284 10.9035 1.51007
171 2 8.67162 10.9028 -1.75183 8.67162 10.9028 -1.75183
172 1 9.60062 12.5498 -0.108602 9.60062 12.5498 -0.108602
173 2 11.4813 12.5516 1.54636 11.4813 12.5516 1.54636
174 2 11.5224 12.5479 -1.71556 11.5224 12.5479 -1.71556
175 1 12.4524 10.9032 -0.0707186 12.4524 10.9032 -0.0707186
176 2 14.3374 10.9022 1.57934 14.3374 10.9022 1.57934
177 2 14.37 10.9041 -1.68267 14.37 10.9041 -1.68267
178 1 15.3044 12.5498 -0.0411856 15.3044 12.5498 -0.0411856
179 2 17.1949 12.5499 1.6025 17.1949 12.5499 1.6025
180 2 17.2166 12.5496 -1.6596 17.2166 12.5496 -1.6596
181 1 18.1564 10.9031 -0.0220075 18.1564 10.9031 -0.0220075
182 2 20.0547 10.9003 1.61253 20.0547 10.9003 1.61253
183 2 20.0608 10.906 -1.64963 20.0608 10.906 -1.64963
184 1 21.0085 12.5497 -0.0139237 21.0085 12.5497 -0.0139237
185 2 22.9141 12.548 1.61213 22.9141 12.548 1.61213
186 2 22.9057 12.5514 -1.65003 22.9057 12.5514 -1.65003
187 1 23.8606 10.9031 -0.0231186 23.8606 10.9031 -0.0231186
188 2 25.7737 10.899 1.59409 25.7737 10.899 1.59409
189 2 25.7502 10.9073 -1.66799 25.7502 10.9073 -1.66799
190 1 26.7126 12.5497 -0.0396083 26.7126 12.5497 -0.0396083
191 2 28.6312 12.5471 1.57107 28.6312 12.5471 1.57107
192 2 28.5966 12.5524 -1.69092 28.5966 12.5524 -1.69092
193 1 29.5645 10.9031 -0.0726867 29.5645 10.9031 -0.0726867
194 2 31.4868 10.8989 1.53366 31.4868 10.8989 1.53366
195 2 31.4447 10.9074 -1.72824 31.4447 10.9074 -1.72824
196 1 32.4164 12.5498 -0.105212 32.4164 12.5498 -0.105212
197 2 34.34 12.5474 1.49951 34.34 12.5474 1.49951
198 2 34.2951 12.5521 -1.76236 34.2951 12.5521 -1.76236
199 1 35.2681 10.9032 -0.146876 35.2681 10.9032 -0.146876
200 2 37.1903 10.8997 1.45969 37.1903 10.8997 1.45969
201 2 37.1484 10.9067 -1.80222 37.1484 10.9067 -1.80222
202 1 38.12 12.5498 -0.179909 38.12 12.5498 -0.179909
203 2 40.0388 12.5485 1.4306 40.0388 12.5485 1.4306
204 2 40.0036 12.5511 -1.8314 40.0036 12.5511 -1.8314
205 1 40.9718 10.9032 -0.212006 40.9718 10.9032 -0.212006
206 2 42.8847 10.901 1.40565 42.8847 10.901 1.40565
207 2 42.8616 10.9054 -1.85646 42.8616 10.9054 -1.85646
208 1 43.8238 12.5498 -0.22987 43.8238 12.5498 -0.22987
209 2 45.7301 12.5499 1.39559 45.7301 12.5499 1.39559
210 2 45.7202 12.5497 -1.86659 45.7202 12.5497 -1.86659
211 1 46.6758 10.9032 -0.238254 46.6758 10.9032 -0.238254
212 2 48.574 10.9025 1.39664 48.574 10.9025 1.39664
213 2 48.5803 10.9039 -1.86555 48.5803 10.9039 -1.86555
214 1 49.5278 12.5498 -0.231841 49.5278 12.5498 -0.231841
215 2 51.4191 12.5513 1.41106 51.4191 12.5513 1.41106
216 2 51.4391 12.5482 -1.85107 51.4391 12.5482 -1.85107
217 1 1.04517 14.1963 -0.215696 1.04517 14.1963 -0.215696
218 2 2.9306 14.2 1.43394 2.9306 14.2 1.43394
219 2 2.96226 14.1927 -1.82809 2.96226 14.1927 -1.82809
220 1 3.89708 15.8429 -0.191494 3.89708 15.8429 -0.191494
221 2 5.77838 15.8483 1.46283 5.77838 15.8483 1.46283
222 2 5.81821 15.8375 -1.7991 5.81821 15.8375 -1.7991
223 1 6.74887 14.1963 -0.150963 6.74887 14.1963 -0.150963
224 2 8.62828 14.2004 1.50548 8.62828 14.2004 1.50548
225 2 8.67183 14.1923 -1.7564 8.67183 14.1923 -1.7564
226 1 9.60068 15.8429 -0.116819 9.60068 15.8429 -0.116819
227 2 11.4809 15.8484 1.53866 11.4809 15.8484 1.53866
228 2 11.5229 15.8375 -1.72323 11.5229 15.8375 -1.72323
229 1 12.4525 14.1964 -0.0744679 12.4525 14.1964 -0.0744679
230 2 14.3366 14.1995 1.57658 14.3366 14.1995 1.57658
231 2 14.3709 14.1932 -1.68541 14.3709 14.1932 -1.68541
232 1 15.3044 15.843 -0.0475399 15.3044 15.843 -0.0475399
233 2 17.1938 15.8472 1.59737 17.1938 15.8472 1.59737
234 2 17.2177 15.8387 -1.66471 17.2177 15.8387 -1.66471
235 1 18.1564 14.1964 -0.0223889 18.1564 14.1964 -0.0223889
236 2 20.0537 14.1976 1.61343 20.0537 14.1976 1.61343
237 2 20.0619 14.1951 -1.64873 20.0619 14.1951 -1.64873
238 1 21.0085 15.843 -0.0165539 21.0085 15.843 -0.0165539
239 2 22.9131 15.8454 1.61073 22.9131 15.8454 1.61073
240 2 22.9067 15.8405 -1.65143 22.9067 15.8405 -1.65143
241 1 23.8606 14.1963 -0.0197177 23.8606 14.1963 -0.0197177
242 2 25.7731 14.196 1.59825 25.7731 14.196 1.59825
243 2 25.7508 14.1967 -1.66385 25.7508 14.1967 -1.66385
244 1 26.7126 15.843 -0.0389805 26.7126 15.843 -0.0389805
245 2 28.6308 15.8442 1.57219 28.6308 15.8442 1.57219
246 2 28.597 15.8417 -1.68981 28.597 15.8417 -1.68981
247 1 29.5646 14.1963 -0.0673973 29.5646 14.1963 -0.0673973
248 2 31.4869 14.1956 1.53884 31.4869 14.1956 1.53884
249 2 31.4446 14.1971 -1.72307 31.4446 14.1971 -1.72307
250 1 32.4164 15.8429 -0.103663 32.4164 15.8429 -0.103663
251 2 34.3403 15.8442 1.50079 34.3403 15.8442 1.50079
252 2 34.2949 15.8417 -1.76108 34.2949 15.8417 -1.76108
253 1 35.2682 14.1964 -0.14214 35.2682 14.1964 -0.14214
254 2 37.1909 14.1962 1.46377 37.1909 14.1962 1.46377
255 2 37.1479 14.1966 -1.79813 37.1479 14.1966 -1.79813
256 1 38.12 15.8429 -0.179467 38.12 15.8429 -0.179467
257 2 40.0394 15.8448 1.43039 40.0394 15.8448 1.43039
258 2 40.0031 15.8411 -1.83159 40.0031 15.8411 -1.83159
259 1 40.9719 14.1964 -0.209285 40.9719 14.1964 -0.209285
260 2 42.8855 14.1973 1.40746 42.8855 14.1973 1.40746
261 2 42.8608 14.1955 -1.85464 42.8608 14.1955 -1.85464
262 1 43.8238 15.8429 -0.231647 43.8238 15.8429 -0.231647
263 2 45.7308 15.8459 1.39293 45.7308 15.8459 1.39293
264 2 45.7195 15.8399 -1.86924 45.7195 15.8399 -1.86924
265 1 46.6758 14.1964 -0.238422 46.6758 14.1964 -0.238422
266 2 48.5749 14.1987 1.39549 48.5749 14.1987 1.39549
267 2 48.5794 14.194 -1.8667 48.5794 14.194 -1.8667
268 1 49.5278 15.8429 -0.236607 49.5278 15.8429 -0.236607
269 2 51.4199 15.8473 1.40546 51.4199 15.8473 1.40546
270 2 51.4385 15.8385 -1.85667 51.4385 15.8385 -1.85667
271 1 1.04521 17.4895 -0.224555 1.04521 17.4895 -0.224555
272 2 2.93118 17.4955 1.42445 2.93118 17.4955 1.42445
273 2 2.96177 17.4834 -1.83758 2.96177 17.4834 -1.83758
274 1 3.89714 19.136 -0.203701 3.89714 19.136 -0.203701
275 2 5.77884 19.1434 1.45015 5.77884 19.1434 1.45015
276 2 5.81788 19.1287 -1.81177 5.81788 19.1287 -1.81177
277 1 6.74893 17.4895 -0.161973 6.74893 17.4895 -0.161973
278 2 8.62837 17.4963 1.49443 8.62837 17.4963 1.49443
279 2 8.67188 17.4826 -1.76743 8.67188 17.4826 -1.76743
280 1 9.60076 19.1361 -0.130725 9.60076 19.1361 -0.130725
281 2 11.4808 19.144 1.52495 11.4808 19.144 1.52495
282 2 11.5231 19.1281 -1.73692 11.5231 19.1281 -1.73692
283 1 12.4525 17.4895 -0.08555 12.4525 17.4895 -0.08555
284 2 14.3359 17.4961 1.56629 14.3359 17.4961 1.56629
285 2 14.3717 17.4829 -1.69566 14.3717 17.4829 -1.69566
286 1 15.3045 19.1361 -0.0609273 15.3045 19.1361 -0.0609273
287 2 17.193 19.1436 1.58498 17.193 19.1436 1.58498
288 2 17.2186 19.1287 -1.67706 17.2186 19.1287 -1.67706
289 1 18.1564 17.4896 -0.0310141 18.1564 17.4896 -0.0310141
290 2 20.0525 17.4948 1.60614 20.0525 17.4948 1.60614
291 2 20.0631 17.4844 -1.656 20.0631 17.4844 -1.656
292 1 21.0085 19.1362 -0.0271413 21.0085 19.1362 -0.0271413
293 2 22.9119 19.1422 1.60144 22.9119 19.1422 1.60144
294 2 22.9078 19.1301 -1.66071 22.9078 19.1301 -1.66071
295 1 23.8606 17.4896 -0.0246794 23.8606 17.4896 -0.0246794
296 2 25.7722 17.4932 1.59433 25.7722 17.4932 1.59433
297 2 25.7517 17.4859 -1.66777 25.7517 17.4859 -1.66777
298 1 26.7126 19.1362 -0.0464056 26.7126 19.1362 -0.0464056
299 2 28.6301 19.141 1.56556 28.6301 19.141 1.56556
300 2 28.5977 19.1313 -1.69645 28.5977 19.1313 -1.69645
301 1 29.5646 17.4895 -0.0699714 29.5646 17.4895 -0.0699714
302 2 31.4867 17.4925 1.53652 31.4867 17.4925 1.53652
303 2 31.4449 17.4866 -1.72539 31.4449 17.4866 -1.72539
304 1 32.4164 19.1361 -0.109606 32.4164 19.1361 -0.109606
305 2 34.3401 19.1406 1.49497 34.3401 19.1406 1.49497
306 2 34.295 19.1317 -1.76689 34.295 19.1317 -1.76689
307 1 35.2682 17.4895 -0.144587 35.2682 17.4895 -0.144587
308 2 37.1911 17.4926 1.46103 37.1911 17.4926 1.46103
309 2 37.1477 17.4865 -1.80087 37.1477 17.4865 -1.80087
310 1 38.12 19.1361 -0.185684 38.12 19.1361 -0.185684
311 2 40.0396 19.1407 1.42396 40.0396 19.1407 1.42396
312 2 40.0029 19.1315 -1.83801 40.0029 19.1315 -1.83801
313 1 40.9719 17.4895 -0.213046 40.9719 17.4895 -0.213046
314 2 42.886 17.4932 1.40311 42.886 17.4932 1.40311
315 2 42.8603 17.4858 -1.85897 42.8603 17.4858 -1.85897
316 1 43.8238 19.1361 -0.239117 43.8238 19.1361 -0.239117
317 2 45.7312 19.1412 1.38497 45.7312 19.1412 1.38497
318 2 45.7191 19.1309 -1.87719 45.7191 19.1309 -1.87719
319 1 46.6758 17.4895 -0.244444 46.6758 17.4895 -0.244444
320 2 48.5756 17.4942 1.38868 48.5756 17.4942 1.38868
321 2 48.5788 17.4847 -1.8735 48.5788 17.4847 -1.8735
322 1 49.5279 19.136 -0.246233 49.5279 19.136 -0.246233
323 2 51.4204 19.1422 1.39517 51.4204 19.1422 1.39517
324 2 51.4379 19.1299 -1.86695 51.4379 19.1299 -1.86695
325 1 1.04524 20.7826 -0.236946 1.04524 20.7826 -0.236946
326 2 2.93172 20.7897 1.41146 2.93172 20.7897 1.41146
327 2 2.96132 20.7755 -1.85056 2.96132 20.7755 -1.85056
328 1 3.89718 22.4292 -0.218073 3.89718 22.4292 -0.218073
329 2 5.77937 22.4369 1.4352 5.77937 22.4369 1.4352
330 2 5.81745 22.4214 -1.82672 5.81745 22.4214 -1.82672
331 1 6.749 20.7826 -0.176792 6.749 20.7826 -0.176792
332 2 8.62871 20.7909 1.47928 8.62871 20.7909 1.47928
333 2 8.67168 20.7744 -1.78258 8.67168 20.7744 -1.78258
334 1 9.60083 22.4292 -0.147445 9.60083 22.4292 -0.147445
335 2 11.481 22.438 1.50805 11.481 22.438 1.50805
336 2 11.5231 22.4204 -1.75381 11.5231 22.4204 -1.75381
337 1 12.4526 20.7827 -0.101676 12.4526 20.7827 -0.101676
338 2 14.3356 20.7914 1.55058 14.3356 20.7914 1.55058
339 2 14.3721 20.774 -1.71135 14.3721 20.774 -1.71135
340 1 15.3045 22.4293 -0.0785236 15.3045 22.4293 -0.0785236
341 2 17.1925 22.4383 1.56798 17.1925 22.4383 1.56798
342 2 17.2191 22.4203 -1.69404 17.2191 22.4203 -1.69404
343 1 18.1565 20.7827 -0.0461093 18.1565 20.7827 -0.0461093
344 2 20.0516 20.7907 1.59216 20.0516 20.7907 1.59216
345 2 20.0641 20.7747 -1.66996 20.0641 20.7747 -1.66996
346 1 21.0085 22.4293 -0.0433764 21.0085 22.4293 -0.0433764
347 2 22.911 22.4377 1.58628 22.911 22.4377 1.58628
348 2 22.9088 22.421 -1.67586 22.9088 22.421 -1.67586
349 1 23.8606 20.7828 -0.0369937 23.8606 20.7828 -0.0369937
350 2 25.7712 20.7896 1.58314 25.7712 20.7896 1.58314
351 2 25.7527 20.7759 -1.67896 25.7527 20.7759 -1.67896
352 1 26.7126 22.4293 -0.0602393 26.7126 22.4293 -0.0602393
353 2 28.6293 22.4367 1.55264 28.6293 22.4367 1.55264
354 2 28.5985 22.4219 -1.70936 28.5985 22.4219 -1.70936
355 1 29.5646 20.7827 -0.0798723 29.5646 20.7827 -0.0798723
356 2 31.4862 20.7887 1.52721 31.4862 20.7887 1.52721
357 2 31.4454 20.7768 -1.7347 31.4454 20.7768 -1.7347
358 1 32.4164 22.4293 -0.121685 32.4164 22.4293 -0.121685
359 2 34.3397 22.436 1.4834 34.3397 22.436 1.4834
360 2 34.2955 22.4226 -1.77846 34.2955 22.4226 -1.77846
361 1 35.2682 20.7827 -0.153628 35.2682 20.7827 -0.153628
362 2 37.191 20.7883 1.45213 37.191 20.7883 1.45213
363 2 37.1478 20.777 -1.80976 37.1478 20.777 -1.80976
364 1 38.12 22.4292 -0.197112 38.12 22.4292 -0.197112
365 2 40.0393 22.4356 1.41277 40.0393 22.4356 1.41277
366 2 40.0031 22.4229 -1.84919 40.0031 22.4229 -1.84919
367 1 40.9719 20.7826 -0.222362 40.9719 20.7826 -0.222362
368 2 42.8861 20.7883 1.3937 42.8861 20.7883 1.3937
369 2 42.8602 20.777 -1.86837 42.8602 20.777 -1.86837
370 1 43.8238 22.4292 -0.250571 43.8238 22.4292 -0.250571
371 2 45.7312 22.4354 1.37351 45.7312 22.4354 1.37351
372 2 45.7191 22.423 -1.88863 45.7191 22.423 -1.88863
373 1 46.6758 20.7826 -0.254816 46.6758 20.7826 -0.254816
374 2 48.5759 20.7887 1.3779 48.5759 20.7887 1.3779
375 2 48.5785 20.7765 -1.88426 48.5785 20.7765 -1.88426
376 1 49.5279 22.4292 -0.258554 49.5279 22.4292 -0.258554
377 2 51.4208 22.4358 1.38246 51.4208 22.4358 1.38246
378 2 51.4376 22.4225 -1.87965 51.4376 22.4225 -1.87965
379 1 1.04526 24.0757 -0.250362 1.04526 24.0757 -0.250362
380 2 2.93214 24.0826 1.39758 2.93214 24.0826 1.39758
381 2 2.96097 24.0689 -1.86445 2.96097 24.0689 -1.86445
382 1 3.89721 25.7223 -0.231939 3.89721 25.7223 -0.231939
383 2 5.77987 25.7291 1.42079 5.77987 25.7291 1.42079
384 2 5.81703 25.7155 -1.84115 5.81703 25.7155 -1.84115
385 1 6.74906 24.0758 -0.192465 6.74906 24.0758 -0.192465
386 2 8.62922 24.0838 1.46307 8.62922 24.0838 1.46307
387 2 8.67129 24.0677 -1.7988 8.67129 24.0677 -1.7988
388 1 9.60089 25.7223 -0.16372 9.60089 25.7223 -0.16372
389 2 11.4814 25.7303 1.49132 11.4814 25.7303 1.49132
390 2 11.5227 25.7144 -1.77056 11.5227 25.7144 -1.77056
391 1 12.4527 24.0758 -0.119525 12.4527 24.0758 -0.119525
392 2 14.3357 24.0848 1.53272 14.3357 24.0848 1.53272
393 2 14.3722 24.0669 -1.72921 14.3722 24.0669 -1.72921
394 1 15.3046 25.7224 -0.0966752 15.3046 25.7224 -0.0966752
395 2 17.1925 25.7312 1.54992 17.1925 25.7312 1.54992
396 2 17.2193 25.7136 -1.71211 17.2193 25.7136 -1.71211
397 1 18.1565 24.0759 -0.0644047 18.1565 24.0759 -0.0644047
398 2 20.051 24.0849 1.57452 20.051 24.0849 1.57452
399 2 20.0647 24.0668 -1.68759 20.0647 24.0668 -1.68759
400 1 21.0085 25.7225 -0.0617572 21.0085 25.7225 -0.0617572
401 2 22.9105 25.7314 1.5685 22.9105 25.7314 1.5685
402 2 22.9093 25.7136 -1.69364 22.9093 25.7136 -1.69364
403 1 23.8606 24.0759 -0.0539259 23.8606 24.0759 -0.0539259
404 2 25.7704 24.0844 1.56714 25.7704 24.0844 1.56714
405 2 25.7535 24.0674 -1.69495 25.7535 24.0674 -1.69495
406 1 26.7126 25.7225 -0.077466 26.7126 25.7225 -0.077466
407 2 28.6286 25.7309 1.53624 28.6286 25.7309 1.53624
408 2 28.5991 25.7141 -1.72577 28.5991 25.7141 -1.72577
409 1 29.5645 24.0759 -0.0948806 29.5645 24.0759 -0.0948806
410 2 31.4854 24.0836 1.51299 31.4854 24.0836 1.51299
411 2 31.446 24.0682 -1.74892 31.446 24.0682 -1.74892
412 1 32.4163 25.7224 -0.137271 32.4163 25.7224 -0.137271
413 2 34.339 25.73 1.46856 34.339 25.73 1.46856
414 2 34.2961 25.7149 -1.79331 34.2961 25.7149 -1.79331
415 1 35.2681 24.0758 -0.167222 35.2681 24.0758 -0.167222
416 2 37.1905 24.0828 1.43906 37.1905 24.0828 1.43906
417 2 37.1482 24.0688 -1.82282 37.1482 24.0688 -1.82282
418 1 38.1199 25.7224 -0.211298 38.1199 25.7224 -0.211298
419 2 40.0388 25.7292 1.39918 40.0388 25.7292 1.39918
420 2 40.0036 25.7156 -1.86279 40.0036 25.7156 -1.86279
421 1 40.9718 24.0758 -0.235171 40.9718 24.0758 -0.235171
422 2 42.8857 24.0822 1.38124 42.8857 24.0822 1.38124
423 2 42.8605 24.0693 -1.88083 42.8605 24.0693 -1.88083
424 1 43.8238 25.7223 -0.263679 43.8238 25.7223 -0.263679
425 2 45.7309 25.7285 1.36082 45.7309 25.7285 1.36082
426 2 45.7194 25.7162 -1.90132 45.7194 25.7162 -1.90132
427 1 46.6758 24.0757 -0.267347 46.6758 24.0757 -0.267347
428 2 48.5759 24.082 1.36539 48.5759 24.082 1.36539
429 2 48.5785 24.0695 -1.89677 48.5785 24.0695 -1.89677
430 1 49.5279 25.7223 -0.271236 49.5279 25.7223 -0.271236
431 2 51.4208 25.7283 1.36971 51.4208 25.7283 1.36971
432 2 51.4376 25.7163 -1.89241 51.4376 25.7163 -1.89241
433 1 1.04527 27.3689 -0.262537 1.04527 27.3689 -0.262537
434 2 2.93234 27.3744 1.38518 2.93234 27.3744 1.38518
435 2 2.9608 27.3633 -1.87686 2.9608 27.3633 -1.87686
436 1 3.89722 29.0155 -0.24313 3.89722 29.0155 -0.24313
437 2 5.78018 29.0203 1.40926 5.78018 29.0203 1.40926
438 2 5.81675 29.0107 -1.85271 5.81675 29.0107 -1.85271
439 1 6.74909 27.3689 -0.206198 6.74909 27.3689 -0.206198
440 2 8.62975 27.3753 1.44876 8.62975 27.3753 1.44876
441 2 8.67084 27.3625 -1.81314 8.67084 27.3625 -1.81314
442 1 9.60091 29.0155 -0.176697 9.60091 29.0155 -0.176697
443 2 11.482 29.0213 1.47776 11.482 29.0213 1.47776
444 2 11.5223 29.0097 -1.78416 11.5223 29.0097 -1.78416
445 1 12.4527 27.3689 -0.135637 12.4527 27.3689 -0.135637
446 2 14.336 27.3765 1.51622 14.336 27.3765 1.51622
447 2 14.3719 27.3614 -1.74574 14.3719 27.3614 -1.74574
448 1 15.3046 29.0155 -0.111971 15.3046 29.0155 -0.111971
449 2 17.1928 29.0225 1.53421 17.1928 29.0225 1.53421
450 2 17.2189 29.0086 -1.72785 17.2189 29.0086 -1.72785
451 1 18.1565 27.369 -0.082176 18.1565 27.369 -0.082176
452 2 20.051 27.3774 1.55682 20.051 27.3774 1.55682
453 2 20.0647 27.3606 -1.7053 20.0647 27.3606 -1.7053
454 1 21.0085 29.0156 -0.0787345 21.0085 29.0156 -0.0787345
455 2 22.9105 29.0235 1.55154 22.9105 29.0235 1.55154
456 2 22.9093 29.0077 -1.71061 22.9093 29.0077 -1.71061
457 1 23.8606 27.369 -0.0719603 23.8606 27.369 -0.0719603
458 2 25.7699 27.3776 1.54964 25.7699 27.3776 1.54964
459 2 25.7539 27.3605 -1.71246 25.7539 27.3605 -1.71246
460 1 26.7125 29.0156 -0.094732 26.7125 29.0156 -0.094732
461 2 28.6281 29.0235 1.51951 28.6281 29.0235 1.51951
462 2 28.5996 29.0077 -1.74251 28.5996 29.0077 -1.74251
463 1 29.5645 27.369 -0.11188 29.5645 27.369 -0.11188
464 2 31.4847 27.377 1.49677 31.4847 27.377 1.49677
465 2 31.4467 27.3611 -1.76515 31.4467 27.3611 -1.76515
466 1 32.4163 29.0156 -0.153363 32.4163 29.0156 -0.153363
467 2 34.3383 29.0227 1.45327 34.3383 29.0227 1.45327
468 2 34.2967 29.0084 -1.80862 34.2967 29.0084 -1.80862
469 1 35.2681 27.369 -0.182588 35.2681 27.369 -0.182588
470 2 37.1898 27.376 1.42445 37.1898 27.376 1.42445
471 2 37.1488 27.3619 -1.83745 37.1488 27.3619 -1.83745
472 1 38.1199 29.0155 -0.225597 38.1199 29.0155 -0.225597
473 2 40.0381 29.0217 1.38566 40.0381 29.0217 1.38566
474 2 40.0042 29.0094 -1.87632 40.0042 29.0094 -1.87632
475 1 40.9718 27.3689 -0.248959 40.9718 27.3689 -0.248959
476 2 42.8851 27.3751 1.36811 42.8851 27.3751 1.36811
477 2 42.8611 27.3628 -1.89396 42.8611 27.3628 -1.89396
478 1 43.8238 29.0155 -0.276175 43.8238 29.0155 -0.276175
479 2 45.7303 29.0207 1.349 45.7303 29.0207 1.349
480 2 45.72 29.0103 -1.91315 45.72 29.0103 -1.91315
481 1 46.6758 27.3689 -0.27979 46.6758 27.3689 -0.27979
482 2 48.5755 27.3744 1.35332 48.5755 27.3744 1.35332
483 2 48.5788 27.3634 -1.90884 48.5788 27.3634 -1.90884
484 1 49.5279 29.0155 -0.282329 49.5279 29.0155 -0.282329
485 2 51.4206 29.0201 1.35885 51.4206 29.0201 1.35885
486 2 51.4378 29.0109 -1.90327 51.4378 29.0109 -1.90327
487 1 1.04527 30.6621 -0.271845 1.04527 30.6621 -0.271845
488 2 2.93225 30.6656 1.37597 2.93225 30.6656 1.37597
489 2 2.96089 30.6585 -1.88608 2.96089 30.6585 -1.88608
490 1 3.89722 32.3087 -0.25027 3.89722 32.3087 -0.25027
491 2 5.78018 32.3109 1.40211 5.78018 32.3109 1.40211
492 2 5.81675 32.3064 -1.85987 5.81675 32.3064 -1.85987
493 1 6.74909 30.6621 -0.215926 6.74909 30.6621 -0.215926
494 2 8.63013 30.6659 1.43861 8.63013 30.6659 1.43861
495 2 8.67048 30.6582 -1.82332 8.67048 30.6582 -1.82332
496 1 9.60091 32.3087 -0.184503 9.60091 32.3087 -0.184503
497 2 11.4825 32.3115 1.4694 11.4825 32.3115 1.4694
498 2 11.5218 32.3059 -1.79254 11.5218 32.3059 -1.79254
499 1 12.4527 30.6621 -0.147295 12.4527 30.6621 -0.147295
500 2 14.3366 30.6671 1.5039 14.3366 30.6671 1.5039
501 2 14.3713 30.6571 -1.75809 14.3713 30.6571 -1.75809
502 1 15.3046 32.3087 -0.122018 15.3046 32.3087 -0.122018
503 2 17.1935 32.3129 1.52335 17.1935 32.3129 1.52335
504 2 17.2182 32.3045 -1.73874 17.2182 32.3045 -1.73874
505 1 18.1565 30.6621 -0.096298 18.1565 30.6621 -0.096298
506 2 20.0514 30.6685 1.5422 20.0514 30.6685 1.5422
507 2 20.0643 30.6558 -1.71995 20.0643 30.6558 -1.71995
508 1 21.0085 32.3087 -0.0915533 21.0085 32.3087 -0.0915533
509 2 22.9109 32.3144 1.53819 22.9109 32.3144 1.53819
510 2 22.9088 32.3031 -1.72398 22.9088 32.3031 -1.72398
511 1 23.8605 30.6622 -0.0878589 23.8605 30.6622 -0.0878589
512 2 25.7698 30.6693 1.53378 25.7698 30.6693 1.53378
513 2 25.7539 30.655 -1.72834 25.7539 30.655 -1.72834
514 1 26.7125 32.3087 -0.109175 26.7125 32.3087 -0.109175
515 2 28.6279 32.3149 1.50524 28.6279 32.3149 1.50524
516 2 28.5997 32.3026 -1.7568 28.5997 32.3026 -1.7568
517 1 29.5644 30.6622 -0.127823 29.5644 30.6622 -0.127823
518 2 31.4841 30.6691 1.48145 31.4841 30.6691 1.48145
519 2 31.4472 30.6553 -1.7805 31.4472 30.6553 -1.7805
520 1 32.4162 32.3087 -0.167339 32.4162 32.3087 -0.167339
521 2 34.3376 32.3143 1.44 34.3376 32.3143 1.44
522 2 34.2973 32.3031 -1.82192 34.2973 32.3031 -1.82192
523 1 35.2681 30.6621 -0.197042 35.2681 30.6621 -0.197042
524 2 37.189 30.6681 1.41082 37.189 30.6681 1.41082
525 2 37.1495 30.6561 -1.8511 37.1495 30.6561 -1.8511
526 1 38.1199 32.3087 -0.237783 38.1199 32.3087 -0.237783
527 2 40.0374 32.3134 1.3743 40.0374 32.3134 1.3743
528 2 40.0049 32.304 -1.88771 40.0049 32.304 -1.88771
529 1 40.9718 30.6621 -0.261446 40.9718 30.6621 -0.261446
530 2 42.8844 30.6671 1.35642 42.8844 30.6671 1.35642
531 2 42.8618 30.6571 -1.90566 42.8618 30.6571 -1.90566
532 1 43.8238 32.3087 -0.286284 43.8238 32.3087 -0.286284
533 2 45.7296 32.3123 1.33966 45.7296 32.3123 1.33966
534 2 45.7207 32.305 -1.92249 45.7207 32.305 -1.92249
535 1 46.6758 30.6621 -0.290331 46.6758 30.6621 -0.290331
536 2 48.575 30.6661 1.34339 48.575 30.6661 1.34339