ITEM: TIMESTEP
56000
ITEM: NUMBER OF ATOMS
810
ITEM: BOX BOUNDS pp pp pp
8.4502357564990349e-01 5.2172581424348778e+01
8.1318347486575926e-01 5.0203031525133945e+01
-1.0000000000000000e+01 1.0000000000000000e+01
ITEM: ATOMS id type x y z xu yu zu
1 1 1.0493 1.02814 -0.319837 1.0493 1.02814 -0.319837
2 2 2.91918 0.986662 1.34701 2.91918 0.986662 1.34701
3 2 2.98141 1.0696 -1.91353 2.98141 1.0696 -1.91353
4 1 3.90056 2.67398 -0.223053 3.90056 2.67398 -0.223053
5 2 5.76225 2.63358 1.45292 5.76225 2.63358 1.45292
6 2 5.84039 2.71435 -1.80734 5.84039 2.71435 -1.80734
7 1 6.75193 1.02766 -0.195236 6.75193 1.02766 -0.195236
8 2 8.60987 0.985291 1.48476 8.60987 0.985291 1.48476
9 2 8.69535 1.06998 -1.7752 8.69535 1.06998 -1.7752
10 1 9.60268 2.67339 -0.0773699 9.60268 2.67339 -0.0773699
11 2 11.463 2.63215 1.60002 11.463 2.63215 1.60002
12 2 11.5439 2.71459 -1.6601 11.5439 2.71459 -1.6601
13 1 12.454 1.02701 -0.0481223 12.454 1.02701 -0.0481223
14 2 14.321 0.984119 1.62165 14.321 0.984119 1.62165
15 2 14.389 1.06986 -1.63869 14.389 1.06986 -1.63869
16 1 15.3053 2.67279 0.0547006 15.3053 2.67279 0.0547006
17 2 17.1841 2.63125 1.71119 17.1841 2.63125 1.71119
18 2 17.2289 2.71433 -1.5496 17.2289 2.71433 -1.5496
19 1 18.1572 1.02651 0.0518233 18.1572 1.02651 0.0518233
20 2 20.0494 0.983497 1.6928 20.0494 0.983497 1.6928
21 2 20.0677 1.06953 -1.56819 20.0677 1.06953 -1.56819
22 1 21.0092 2.67248 0.111166 21.0092 2.67248 0.111166
23 2 22.917 2.63117 1.73414 22.917 2.63117 1.73414
24 2 22.9044 2.71385 -1.52693 22.9044 2.71385 -1.52693
25 1 23.8613 1.02641 0.0580431 23.8613 1.02641 0.0580431
26 2 25.7823 0.983727 1.66517 25.7823 0.983727 1.66517
27 2 25.7428 1.06915 -1.59564 25.7428 1.06915 -1.59564
28 1 26.7133 2.67262 0.0664702 26.7133 2.67262 0.0664702
29 2 28.6465 2.63214 1.65901 28.6465 2.63214 1.65901
30 2 28.5822 2.71317 -1.60151 28.5822 2.71317 -1.60151
31 1 29.5647 1.02674 -0.0310617 29.5647 1.02674 -0.0310617
32 2 31.5047 0.984906 1.55303 31.5047 0.984906 1.55303
33 2 31.4262 1.06863 -1.70713 31.4262 1.06863 -1.70713
34 1 32.4161 2.67309 -0.0575625 32.4161 2.67309 -0.0575625
35 2 34.3602 2.63377 1.5217 34.3602 2.63377 1.5217
36 2 34.2733 2.71249 -1.73838 34.2733 2.71249 -1.73838
37 1 35.2669 1.02732 -0.173539 35.2669 1.02732 -0.173539
38 2 37.2086 0.986371 1.40866 37.2086 0.986371 1.40866
39 2 37.1266 1.06832 -1.85147 37.1266 1.06832 -1.85147
40 1 38.1182 2.67368 -0.203802 38.1182 2.67368 -0.203802
41 2 40.0543 2.63504 1.38544 40.0543 2.63504 1.38544
42 2 39.9838 2.71239 -1.87509 39.9838 2.71239 -1.87509
43 1 40.9694 1.02789 -0.304503 40.9694 1.02789 -0.304503
44 2 42.8944 0.987364 1.29817 42.8944 0.987364 1.29817
45 2 42.8466 1.06848 -1.96266 42.8466 1.06848 -1.96266
46 1 43.8212 2.67414 -0.305067 43.8212 2.67414 -0.305067
47 2 45.7332 2.63547 1.31319 45.7332 2.63547 1.31319
48 2 45.7116 2.71287 -1.94805 45.7116 2.71287 -1.94805
49 1 46.673 1.02822 -0.362834 46.673 1.02822 -0.362834
50 2 48.5697 0.987516 1.27344 48.5697 0.987516 1.27344
51 2 48.579 1.06895 -1.98773 48.579 1.06895 -1.98773
52 1 49.525 2.67427 -0.31313 49.525 2.67427 -0.31313
53 2 51.4075 2.63493 1.33952 51.4075 2.63493 1.33952
54 2 51.4448 2.71362 -1.92153 51.4448 2.71362 -1.92153
55 1 1.049 4.32023 -0.240167 1.049 4.32023 -0.240167
56 2 2.91934 4.28381 1.42628 2.91934 4.28381 1.42628
57 2 2.98051 4.35667 -1.83456 2.98051 4.35667 -1.83456
58 1 3.90016 5.96621 -0.149287 3.90016 5.96621 -0.149287
59 2 5.76214 5.9342 1.52657 5.76214 5.9342 1.52657
60 2 5.83963 5.99823 -1.7341 5.83963 5.99823 -1.7341
61 1 6.75143 4.3198 -0.113443 6.75143 4.3198 -0.113443
62 2 8.60994 4.28222 1.5661 8.60994 4.28222 1.5661
63 2 8.69428 4.35737 -1.69413 8.69428 4.35737 -1.69413
64 1 9.60218 5.96573 -0.00127744 9.60218 5.96573 -0.00127744
65 2 11.463 5.93262 1.67574 11.463 5.93262 1.67574
66 2 11.5429 5.99884 -1.58476 11.5429 5.99884 -1.58476
67 1 12.4536 4.31921 0.035363 12.4536 4.31921 0.035363
68 2 14.3215 4.28096 1.70434 14.3215 4.28096 1.70434
69 2 14.3877 4.35746 -1.55623 14.3877 4.35746 -1.55623
70 1 15.3049 5.96524 0.132174 15.3049 5.96524 0.132174
71 2 17.1847 5.93174 1.78785 17.1847 5.93174 1.78785
72 2 17.2278 5.99878 -1.47328 17.2278 5.99878 -1.47328
73 1 18.157 4.31876 0.135955 18.157 4.31876 0.135955
74 2 20.0504 4.28053 1.7758 20.0504 4.28053 1.7758
75 2 20.0665 4.35705 -1.48538 20.0665 4.35705 -1.48538
76 1 21.0092 5.965 0.188676 21.0092 5.965 0.188676
77 2 22.9183 5.93196 1.81038 22.9183 5.93196 1.81038
78 2 22.9032 5.99814 -1.451 22.9032 5.99814 -1.451
79 1 23.8615 4.31869 0.141786 23.8615 4.31869 0.141786
80 2 25.784 4.28116 1.74737 25.784 4.28116 1.74737
81 2 25.7416 4.35631 -1.51361 25.7416 4.35631 -1.51361
82 1 26.7136 5.96513 0.142601 26.7136 5.96513 0.142601
83 2 28.6485 5.93332 1.73341 28.6485 5.93332 1.73341
84 2 28.5809 5.99705 -1.52739 28.5809 5.99705 -1.52739
85 1 29.5651 4.319 0.0510305 29.5651 4.319 0.0510305
86 2 31.5069 4.28277 1.63325 31.5069 4.28277 1.63325
87 2 31.4249 4.35534 -1.62707 31.4249 4.35534 -1.62707
88 1 32.4165 5.96552 0.0159714 32.4165 5.96552 0.0159714
89 2 34.3623 5.93515 1.59348 34.3623 5.93515 1.59348
90 2 34.2721 5.996 -1.66689 34.2721 5.996 -1.66689
91 1 35.2674 4.31952 -0.0937898 35.2674 4.31952 -0.0937898
92 2 37.2106 4.28438 1.48677 37.2106 4.28438 1.48677
93 2 37.1255 4.35476 -1.77356 37.1255 4.35476 -1.77356
94 1 38.1186 5.96599 -0.132502 38.1186 5.96599 -0.132502
95 2 40.0558 5.9363 1.45556 40.0558 5.9363 1.45556
96 2 39.9829 5.99577 -1.80532 39.9829 5.99577 -1.80532
97 1 40.9697 4.32003 -0.226158 40.9697 4.32003 -0.226158
98 2 42.8958 4.28512 1.37538 42.8958 4.28512 1.37538
99 2 42.8456 4.35502 -1.88572 42.8456 4.35502 -1.88572
100 1 43.8213 5.96635 -0.234285 43.8213 5.96635 -0.234285
101 2 45.7341 5.93643 1.38331 45.7341 5.93643 1.38331
102 2 45.7109 5.99634 -1.87833 45.7109 5.99634 -1.87833
103 1 46.6731 4.32032 -0.284464 46.6731 4.32032 -0.284464
104 2 48.5704 4.28493 1.35109 48.5704 4.28493 1.35109
105 2 48.5781 4.35576 -1.91038 48.5781 4.35576 -1.91038
106 1 49.5248 5.96645 -0.241417 49.5248 5.96645 -0.241417
107 2 51.4077 5.93569 1.41095 51.4077 5.93569 1.41095
108 2 51.4441 5.99725 -1.85053 51.4441 5.99725 -1.85053
109 1 1.04876 7.61259 -0.177852 1.04876 7.61259 -0.177852
110 2 2.9192 7.58767 1.48868 2.9192 7.58767 1.48868
111 2 2.98004 7.63754 -1.77262 2.98004 7.63754 -1.77262
112 1 3.89988 9.25882 -0.0988166 3.89988 9.25882 -0.0988166
113 2 5.76174 9.24075 1.5774 5.76174 9.24075 1.5774
114 2 5.83941 9.27691 -1.6837 5.83941 9.27691 -1.6837
115 1 6.75101 7.61228 -0.0486155 6.75101 7.61228 -0.0486155
116 2 8.60969 7.58604 1.63099 8.60969 7.58604 1.63099
117 2 8.69369 7.63854 -1.62968 8.69369 7.63854 -1.62968
118 1 9.60182 9.25855 0.0518673 9.60182 9.25855 0.0518673
119 2 11.4628 9.23924 1.72905 11.4628 9.23924 1.72905
120 2 11.5425 9.27787 -1.53189 11.5425 9.27787 -1.53189
121 1 12.4532 7.61186 0.102424 12.4532 7.61186 0.102424
122 2 14.3217 7.58473 1.77106 14.3217 7.58473 1.77106
123 2 14.3869 7.63903 -1.48995 14.3869 7.63903 -1.48995
124 1 15.3047 9.25827 0.18717 15.3047 9.25827 0.18717
125 2 17.1851 9.23844 1.84242 17.1851 9.23844 1.84242
126 2 17.2271 9.27813 -1.41913 17.2271 9.27813 -1.41913
127 1 18.1568 7.61155 0.203865 18.1568 7.61155 0.203865
128 2 20.0514 7.58444 1.8428 20.0514 7.58444 1.8428
129 2 20.0655 7.63873 -1.41879 20.0655 7.63873 -1.41879
130 1 21.0092 9.25813 0.243678 21.0092 9.25813 0.243678
131 2 22.9195 9.23886 1.8643 22.9195 9.23886 1.8643
132 2 22.9021 9.27748 -1.39748 22.9021 9.27748 -1.39748
133 1 23.8616 7.61151 0.208828 23.8616 7.61151 0.208828
134 2 25.7856 7.58539 1.81295 25.7856 7.58539 1.81295
135 2 25.7404 7.63774 -1.44839 25.7404 7.63774 -1.44839
136 1 26.7138 9.25822 0.195653 26.7138 9.25822 0.195653
137 2 28.6503 9.24036 1.78488 28.6503 9.24036 1.78488
138 2 28.5796 9.27616 -1.47625 28.5796 9.27616 -1.47625
139 1 29.5654 7.61175 0.115615 29.5654 7.61175 0.115615
140 2 31.5089 7.58719 1.69607 31.5089 7.58719 1.69607
141 2 31.4236 7.63641 -1.56458 31.4236 7.63641 -1.56458
142 1 32.4168 9.25845 0.0658558 32.4168 9.25845 0.0658558
143 2 34.364 9.2421 1.64187 34.364 9.2421 1.64187
144 2 34.2709 9.27485 -1.61881 34.2709 9.27485 -1.61881
145 1 35.2677 7.61212 -0.0321416 35.2677 7.61212 -0.0321416
146 2 37.2122 7.58873 1.54708 37.2122 7.58873 1.54708
147 2 37.1244 7.63558 -1.71362 37.1244 7.63558 -1.71362
148 1 38.1188 9.2587 -0.0850484 38.1188 9.2587 -0.0850484
149 2 40.0569 9.24301 1.50223 40.0569 9.24301 1.50223
150 2 39.9822 9.27443 -1.75902 39.9822 9.27443 -1.75902
151 1 40.9699 7.61245 -0.165932 40.9699 7.61245 -0.165932
152 2 42.8967 7.58922 1.43496 42.8967 7.58922 1.43496
153 2 42.845 7.63575 -1.82657 42.845 7.63575 -1.82657
154 1 43.8214 9.25888 -0.187182 43.8214 9.25888 -0.187182
155 2 45.7345 9.24288 1.43024 45.7345 9.24288 1.43024
156 2 45.7105 9.27494 -1.83181 45.7105 9.27494 -1.83181
157 1 46.6731 7.61264 -0.223812 46.6731 7.61264 -0.223812
158 2 48.5708 7.58882 1.41153 48.5708 7.58882 1.41153
159 2 48.5776 7.63653 -1.8504 48.5776 7.63653 -1.8504
160 1 49.5247 9.25894 -0.193127 49.5247 9.25894 -0.193127
161 2 51.4076 9.2421 1.4594 51.4076 9.2421 1.4594
162 2 51.4439 9.27583 -1.80251 51.4439 9.27583 -1.80251
163 1 1.04862 10.9053 -0.143724 1.04862 10.9053 -0.143724
164 2 2.91879 10.8961 1.52327 2.91879 10.8961 1.52327
165 2 2.98009 10.9146 -1.73837 2.98009 10.9146 -1.73837
166 1 3.89977 12.5517 -0.0801248 3.89977 12.5517 -0.0801248
167 2 5.76114 12.5505 1.59675 5.76114 12.5505 1.59675
168 2 5.83976 12.553 -1.66453 5.83976 12.553 -1.66453
169 1 6.75077 10.9052 -0.0120241 6.75077 10.9052 -0.0120241
170 2 8.60915 10.8947 1.66812 8.60915 10.8947 1.66812
171 2 8.69373 10.9157 -1.5929 8.69373 10.9157 -1.5929
172 1 9.60167 12.5517 0.0730214 9.60167 12.5517 0.0730214
173 2 11.4623 12.5495 1.75075 11.4623 12.5495 1.75075
174 2 11.5427 12.554 -1.51038 11.5427 12.554 -1.51038
175 1 12.4529 10.905 0.141531 12.4529 10.905 0.141531
176 2 14.3215 10.8937 1.81029 14.3215 10.8937 1.81029
177 2 14.3866 10.9164 -1.45108 14.3866 10.9164 -1.45108
178 1 15.3045 12.5517 0.210255 15.3045 12.5517 0.210255
179 2 17.1852 12.549 1.86548 17.1852 12.549 1.86548
180 2 17.2268 12.5545 -1.39631 17.2268 12.5545 -1.39631
181 1 18.1567 10.9049 0.244072 18.1567 10.9049 0.244072
182 2 20.052 10.8935 1.88242 20.052 10.8935 1.88242
183 2 20.0647 10.9164 -1.37952 20.0647 10.9164 -1.37952
184 1 21.0092 12.5517 0.266825 21.0092 12.5517 0.266825
185 2 22.9203 12.5495 1.88669 22.9203 12.5495 1.88669
186 2 22.9014 12.554 -1.37529 22.9014 12.554 -1.37529
187 1 23.8617 10.9049 0.247972 23.8617 10.9049 0.247972
188 2 25.787 10.8945 1.85086 25.787 10.8945 1.85086
189 2 25.7393 10.9153 -1.41078 25.7393 10.9153 -1.41078
190 1 26.7139 12.5517 0.216753 26.7139 12.5517 0.216753
191 2 28.6515 12.5508 1.80474 28.6515 12.5508 1.80474
192 2 28.5786 12.5527 -1.45653 28.5786 12.5527 -1.45653
193 1 29.5656 10.905 0.151909 29.5656 10.905 0.151909
194 2 31.5105 10.8962 1.73089 31.5105 10.8962 1.73089
195 2 31.4224 10.9139 -1.53 31.4224 10.9139 -1.53
196 1 32.4169 12.5517 0.0837992 32.4169 12.5517 0.0837992
197 2 34.3651 12.5521 1.65872 34.3651 12.5521 1.65872
198 2 34.2699 12.5513 -1.60206 34.2699 12.5513 -1.60206
199 1 35.2679 10.9051 0.00105314 35.2679 10.9051 0.00105314
200 2 37.2134 10.8974 1.57929 37.2134 10.8974 1.57929
201 2 37.1236 10.9128 -1.68165 37.1236 10.9128 -1.68165
202 1 38.1188 12.5517 -0.0694116 38.1188 12.5517 -0.0694116
203 2 40.0573 12.5526 1.51749 40.0573 12.5526 1.51749
204 2 39.9818 12.5507 -1.74389 39.9818 12.5507 -1.74389
205 1 40.97 10.9052 -0.134118 40.97 10.9052 -0.134118
206 2 42.8971 10.8976 1.46655 42.8971 10.8976 1.46655
207 2 42.8447 10.9129 -1.79528 42.8447 10.9129 -1.79528
208 1 43.8214 12.5517 -0.171748 43.8214 12.5517 -0.171748
209 2 45.7343 12.5522 1.44593 45.7343 12.5522 1.44593
210 2 45.7106 12.5512 -1.81629 45.7106 12.5512 -1.81629
211 1 46.673 10.9053 -0.191378 46.673 10.9053 -0.191378
212 2 48.5707 10.897 1.44417 48.5707 10.897 1.44417
213 2 48.5776 10.9136 -1.81808 48.5776 10.9136 -1.81808
214 1 49.5247 12.5517 -0.176387 49.5247 12.5517 -0.176387
215 2 51.4072 12.5514 1.47664 51.4072 12.5514 1.47664
216 2 51.4441 12.552 -1.78545 51.4441 12.552 -1.78545
217 1 1.04861 14.1981 -0.143133 1.04861 14.1981 -0.143133
218 2 2.91821 14.2058 1.52452 2.91821 14.2058 1.52452
219 2 2.98064 14.1905 -1.73711 2.98064 14.1905 -1.73711
220 1 3.89985 15.8446 -0.0956458 3.89985 15.8446 -0.0956458
221 2 5.76054 15.8601 1.58191 5.76054 15.8601 1.58191
222 2 5.8405 15.8292 -1.67919 5.8405 15.8292 -1.67919
223 1 6.75074 14.1983 -0.00950778 6.75074 14.1983 -0.00950778
224 2 8.6085 14.2052 1.67134 8.6085 14.2052 1.67134
225 2 8.69429 14.1914 -1.58968 8.69429 14.1914 -1.58968
226 1 9.60174 15.845 0.0590377 9.60174 15.845 0.0590377
227 2 11.4617 15.86 1.73738 11.4617 15.86 1.73738
228 2 11.5434 15.83 -1.52359 11.5434 15.83 -1.52359
229 1 12.4529 14.1985 0.146099 12.4529 14.1985 0.146099
230 2 14.3211 14.2048 1.81527 14.3211 14.2048 1.81527
231 2 14.3869 14.1922 -1.44613 14.3869 14.1922 -1.44613
232 1 15.3046 15.8453 0.197509 15.3046 15.8453 0.197509
233 2 17.1849 15.8602 1.85297 17.1849 15.8602 1.85297
234 2 17.2271 15.8304 -1.40868 17.2271 15.8304 -1.40868
235 1 18.1567 14.1986 0.249621 18.1567 14.1986 0.249621
236 2 20.0522 14.2049 1.88776 20.0522 14.2049 1.88776
237 2 20.0645 14.1923 -1.37423 20.0645 14.1923 -1.37423
238 1 21.0092 15.8454 0.254061 21.0092 15.8454 0.254061
239 2 22.9205 15.8606 1.87362 22.9205 15.8606 1.87362
240 2 22.9012 15.8301 -1.38822 22.9012 15.8301 -1.38822
241 1 23.8617 14.1986 0.252558 23.8617 14.1986 0.252558
242 2 25.7877 14.2057 1.85463 25.7877 14.2057 1.85463
243 2 25.7386 14.1914 -1.40702 25.7386 14.1914 -1.40702
244 1 26.7139 15.8453 0.202351 26.7139 15.8453 0.202351
245 2 28.652 15.8614 1.78965 28.652 15.8614 1.78965
246 2 28.578 15.8291 -1.47144 28.578 15.8291 -1.47144
247 1 29.5656 14.1985 0.153902 29.5656 14.1985 0.153902
248 2 31.5113 14.2068 1.73188 31.5113 14.2068 1.73188
249 2 31.4215 14.1901 -1.52896 31.4215 14.1901 -1.52896
250 1 32.4168 15.845 0.0668999 32.4168 15.845 0.0668999
251 2 34.3654 15.862 1.64126 34.3654 15.862 1.64126
252 2 34.2694 15.8279 -1.61933 34.2694 15.8279 -1.61933
253 1 35.2679 14.1983 0.000318206 35.2679 14.1983 0.000318206
254 2 37.2138 14.2075 1.57801 37.2138 14.2075 1.57801
255 2 37.1231 14.189 -1.68289 37.1231 14.189 -1.68289
256 1 38.1187 15.8446 -0.0881017 38.1187 15.8446 -0.0881017
257 2 40.057 15.8619 1.49887 40.057 15.8619 1.49887
258 2 39.9819 15.8273 -1.76233 39.9819 15.8273 -1.76233
259 1 40.9699 14.1981 -0.135993 40.9699 14.1981 -0.135993
260 2 42.8969 14.2072 1.46488 42.8969 14.2072 1.46488
261 2 42.8449 14.1889 -1.79694 42.8449 14.1889 -1.79694
262 1 43.8213 15.8444 -0.190305 43.8213 15.8444 -0.190305
263 2 45.7336 15.8611 1.42804 45.7336 15.8611 1.42804
264 2 45.7113 15.8277 -1.83401 45.7113 15.8277 -1.83401
265 1 46.673 14.198 -0.192419 46.673 14.198 -0.192419
266 2 48.5702 14.2065 1.44372 48.5702 14.2065 1.44372
267 2 48.5781 14.1896 -1.81854 48.5781 14.1896 -1.81854
268 1 49.5247 15.8444 -0.193447 49.5247 15.8444 -0.193447
269 2 51.4065 15.8603 1.46031 51.4065 15.8603 1.46031
270 2 51.4449 15.8285 -1.80159 51.4449 15.8285 -1.80159
271 1 1.04872 17.4908 -0.175373 1.04872 17.4908 -0.175373
272 2 2.91758 17.5138 1.49298 2.91758 17.5138 1.49298
273 2 2.98154 17.468 -1.76832 2.98154 17.468 -1.76832
274 1 3.90009 19.1373 -0.142027 3.90009 19.1373 -0.142027
275 2 5.76013 19.1666 1.53605 5.76013 19.1666 1.53605
276 2 5.84141 19.108 -1.72462 5.84141 19.108 -1.72462
277 1 6.75092 17.4912 -0.0407521 6.75092 17.4912 -0.0407521
278 2 8.60802 17.5141 1.64068 8.60802 17.5141 1.64068
279 2 8.69512 17.4684 -1.62002 8.69512 17.4684 -1.62002
280 1 9.60202 19.1379 0.0127395 9.60202 19.1379 0.0127395
281 2 11.4614 19.1677 1.69151 11.4614 19.1677 1.69151
282 2 11.5442 19.1082 -1.56904 11.5442 19.1082 -1.56904
283 1 12.453 17.4917 0.115637 12.453 17.4917 0.115637
284 2 14.3207 17.5146 1.78527 14.3207 17.5146 1.78527
285 2 14.3876 17.4689 -1.47583 14.3876 17.4689 -1.47583
286 1 15.3048 19.1384 0.151144 15.3048 19.1384 0.151144
287 2 17.1845 19.1685 1.807 17.1845 19.1685 1.807
288 2 17.2278 19.1084 -1.45425 17.2278 19.1084 -1.45425
289 1 18.1568 17.4921 0.219486 18.1568 17.4921 0.219486
290 2 20.052 17.5151 1.85777 20.052 17.5151 1.85777
291 2 20.0648 17.469 -1.40394 20.0648 17.469 -1.40394
292 1 21.0092 19.1387 0.20741 21.0092 19.1387 0.20741
293 2 22.9201 19.1689 1.82718 22.9201 19.1689 1.82718
294 2 22.9015 19.1084 -1.43428 22.9015 19.1084 -1.43428
295 1 23.8617 17.4921 0.221715 23.8617 17.4921 0.221715
296 2 25.7877 17.5155 1.82355 25.7877 17.5155 1.82355
297 2 25.7385 17.4685 -1.43781 25.7385 17.4685 -1.43781
298 1 26.7137 19.1385 0.154777 26.7137 19.1385 0.154777
299 2 28.6515 19.169 1.74209 28.6515 19.169 1.74209
300 2 28.578 19.1078 -1.51862 28.578 19.1078 -1.51862
301 1 29.5655 17.4918 0.12129 29.5655 17.4918 0.12129
302 2 31.5113 17.5159 1.69891 31.5113 17.5159 1.69891
303 2 31.4212 17.4675 -1.56162 31.4212 17.4675 -1.56162
304 1 32.4165 19.1379 0.0179413 32.4165 19.1379 0.0179413
305 2 34.3648 19.1687 1.5924 34.3648 19.1687 1.5924
306 2 34.2694 19.1069 -1.66779 34.2694 19.1069 -1.66779
307 1 35.2676 17.4913 -0.0341576 35.2676 17.4913 -0.0341576
308 2 37.2134 17.5158 1.54353 37.2134 17.5158 1.54353
309 2 37.123 17.4666 -1.71706 37.123 17.4666 -1.71706
310 1 38.1184 19.1373 -0.137925 38.1184 19.1373 -0.137925
311 2 40.056 19.1679 1.44968 40.056 19.1679 1.44968
312 2 39.9824 19.1065 -1.81115 39.9824 19.1065 -1.81115
313 1 40.9698 17.4908 -0.171029 40.9698 17.4908 -0.171029
314 2 42.896 17.515 1.43052 42.896 17.515 1.43052
315 2 42.8455 17.4666 -1.831 42.8455 17.4666 -1.831
316 1 43.8212 19.1369 -0.239374 43.8212 19.1369 -0.239374
317 2 45.7324 19.1667 1.38006 45.7324 19.1667 1.38006
318 2 45.7123 19.107 -1.88159 45.7123 19.107 -1.88159
319 1 46.673 17.4907 -0.226234 46.673 17.4907 -0.226234
320 2 48.5693 17.514 1.41082 48.5693 17.514 1.41082
321 2 48.579 17.4673 -1.85111 48.579 17.4673 -1.85111
322 1 49.5248 19.1369 -0.24079 49.5248 19.1369 -0.24079
323 2 51.4057 19.1661 1.41387 51.4057 19.1661 1.41387
324 2 51.446 19.1077 -1.84762 51.446 19.1077 -1.84762
325 1 1.04894 20.7832 -0.234514 1.04894 20.7832 -0.234514
326 2 2.91705 20.8175 1.43449 2.91705 20.8175 1.43449
327 2 2.9826 20.749 -1.82636 2.9826 20.749 -1.82636
328 1 3.90043 22.4296 -0.211333 3.90043 22.4296 -0.211333
329 2 5.76 22.468 1.46707 5.76 22.468 1.46707
330 2 5.8423 22.3913 -1.79318 5.8423 22.3913 -1.79318
331 1 6.75127 20.7838 -0.100102 6.75127 20.7838 -0.100102
332 2 8.60787 20.8188 1.58164 8.60787 20.8188 1.58164
333 2 8.69597 20.7489 -1.6786 8.69597 20.7489 -1.6786
334 1 9.60245 22.4303 -0.0580768 9.60245 22.4303 -0.0580768
335 2 11.4613 22.4699 1.62095 11.4613 22.4699 1.62095
336 2 11.5451 22.3908 -1.63918 11.5451 22.3908 -1.63918
337 1 12.4534 20.7845 0.0554032 12.4534 20.7845 0.0554032
338 2 14.3204 20.8202 1.72543 14.3204 20.8202 1.72543
339 2 14.3884 20.7489 -1.53521 14.3884 20.7489 -1.53521
340 1 15.3051 22.431 0.0788688 15.3051 22.431 0.0788688
341 2 17.184 22.4713 1.73528 17.184 22.4713 1.73528
342 2 17.2287 22.3908 -1.52555 17.2287 22.3908 -1.52555
343 1 18.1569 20.785 0.158654 18.1569 20.785 0.158654
344 2 20.0514 20.821 1.79744 20.0514 20.821 1.79744
345 2 20.0655 20.749 -1.46383 20.0655 20.749 -1.46383
346 1 21.0092 22.4314 0.134522 21.0092 22.4314 0.134522
347 2 22.9191 22.4716 1.75508 22.9191 22.4716 1.75508
348 2 22.9023 22.391 -1.50601 22.9023 22.391 -1.50601
349 1 23.8615 20.7851 0.16045 23.8615 20.7851 0.16045
350 2 25.7869 20.821 1.76274 25.7869 20.821 1.76274
351 2 25.7389 20.7489 -1.49822 25.7389 20.7489 -1.49822
352 1 26.7134 22.4311 0.0817596 26.7134 22.4311 0.0817596
353 2 28.6503 22.471 1.66991 28.6503 22.471 1.66991
354 2 28.5786 22.3909 -1.59046 28.5786 22.3909 -1.59046
355 1 29.5651 20.7846 0.0593653 29.5651 20.7846 0.0593653
356 2 31.5104 20.8205 1.6374 31.5104 20.8205 1.6374
357 2 31.4214 20.7484 -1.62274 31.4214 20.7484 -1.62274
358 1 32.416 22.4304 -0.055136 32.416 22.4304 -0.055136
359 2 34.3633 22.4699 1.52025 34.3633 22.4699 1.52025
360 2 34.27 22.3906 -1.73962 34.27 22.3906 -1.73962
361 1 35.2672 20.7838 -0.0967221 35.2672 20.7838 -0.0967221
362 2 37.2122 20.8196 1.48166 37.2122 20.8196 1.48166
363 2 37.1235 20.7478 -1.77855 37.1235 20.7478 -1.77855
364 1 38.118 22.4296 -0.210602 38.118 22.4296 -0.210602
365 2 40.0544 22.4684 1.37829 40.0544 22.4684 1.37829
366 2 39.9833 22.3906 -1.88221 39.9833 22.3906 -1.88221
367 1 40.9695 20.7832 -0.2332 40.9695 20.7832 -0.2332
368 2 42.8946 20.8183 1.36954 42.8946 20.8183 1.36954
369 2 42.8465 20.748 -1.89159 42.8465 20.748 -1.89159
370 1 43.821 22.4291 -0.310523 43.821 22.4291 -0.310523
371 2 45.7309 22.4671 1.31037 45.7309 22.4671 1.31037
372 2 45.7137 22.3911 -1.95092 45.7137 22.3911 -1.95092
373 1 46.673 20.783 -0.286721 46.673 20.783 -0.286721
374 2 48.5681 20.8173 1.35153 48.5681 20.8173 1.35153
375 2 48.5804 20.7487 -1.90997 48.5804 20.7487 -1.90997
376 1 49.5249 22.4291 -0.310219 49.5249 22.4291 -0.310219
377 2 51.4048 22.4668 1.34542 51.4048 22.4668 1.34542
378 2 51.4473 22.3915 -1.91566 51.4473 22.3915 -1.91566
379 1 1.04921 24.0753 -0.310732 1.04921 24.0753 -0.310732
380 2 2.91671 24.1154 1.35884 2.91671 24.1154 1.35884
381 2 2.98361 24.0354 -1.90169 2.98361 24.0354 -1.90169
382 1 3.90084 25.7217 -0.292318 3.90084 25.7217 -0.292318
383 2 5.76012 25.7629 1.38632 5.76012 25.7629 1.38632
384 2 5.84307 25.6806 -1.87377 5.84307 25.6806 -1.87377
385 1 6.75173 24.076 -0.177802 6.75173 24.076 -0.177802
386 2 8.60802 24.1174 1.50408 8.60802 24.1174 1.50408
387 2 8.69674 24.0347 -1.75584 8.69674 24.0347 -1.75584
388 1 9.60297 25.7224 -0.141815 9.60297 25.7224 -0.141815
389 2 11.4615 25.7652 1.53743 11.4615 25.7652 1.53743
390 2 11.5459 25.6798 -1.72254 11.5459 25.6798 -1.72254
391 1 12.4538 24.0768 -0.0246627 12.4538 24.0768 -0.0246627
392 2 14.3202 24.1194 1.64578 14.3202 24.1194 1.64578
393 2 14.3893 24.0343 -1.61454 14.3893 24.0343 -1.61454
394 1 15.3054 25.7232 -0.00730847 15.3054 25.7232 -0.00730847
395 2 17.1835 25.7668 1.64988 17.1835 25.7668 1.64988
396 2 17.2297 25.6795 -1.61081 17.2297 25.6795 -1.61081
397 1 18.1571 24.0774 0.0771831 18.1571 24.0774 0.0771831
398 2 20.0505 24.1203 1.71685 20.0505 24.1203 1.71685
399 2 20.0665 24.0344 -1.54413 20.0665 24.0344 -1.54413
400 1 21.0092 25.7235 0.0475089 21.0092 25.7235 0.0475089
401 2 22.9177 25.767 1.66939 22.9177 25.767 1.66939
402 2 22.9034 25.6798 -1.5916 22.9034 25.6798 -1.5916
403 1 23.8614 24.0774 0.0788057 23.8614 24.0774 0.0788057
404 2 25.7854 24.12 1.68228 25.7854 24.12 1.68228
405 2 25.7398 24.0347 -1.57844 25.7398 24.0347 -1.57844
406 1 26.713 25.7232 -0.00465743 26.713 25.7232 -0.00465743
407 2 28.6484 25.7659 1.58512 28.6484 25.7659 1.58512
408 2 28.5796 25.6803 -1.67521 28.5796 25.6803 -1.67521
409 1 29.5647 24.0769 -0.0217855 29.5647 24.0769 -0.0217855
410 2 31.5086 24.1187 1.55754 31.5086 24.1187 1.55754
411 2 31.4222 24.0347 -1.70241 31.4222 24.0347 -1.70241
412 1 32.4155 25.7225 -0.140258 32.4155 25.7225 -0.140258
413 2 34.3612 25.7641 1.43689 34.3612 25.7641 1.43689
414 2 34.271 25.6806 -1.82297 34.271 25.6806 -1.82297
415 1 35.2667 24.076 -0.177091 35.2667 24.076 -0.177091
416 2 37.2104 24.1171 1.40277 37.2104 24.1171 1.40277
417 2 37.1244 24.0348 -1.85725 37.1244 24.0348 -1.85725
418 1 38.1175 25.7216 -0.293987 38.1175 25.7216 -0.293987
419 2 40.0524 25.7622 1.29678 40.0524 25.7622 1.29678
420 2 39.9846 25.681 -1.96368 39.9846 25.681 -1.96368
421 1 40.9692 24.0753 -0.312063 40.9692 24.0753 -0.312063
422 2 42.8928 24.1154 1.29233 42.8928 24.1154 1.29233
423 2 42.8479 24.0352 -1.96857 42.8479 24.0352 -1.96857
424 1 43.8209 25.7212 -0.391832 43.8209 25.7212 -0.391832
425 2 45.7294 25.761 1.23068 45.7294 25.761 1.23068
426 2 45.7152 25.6814 -2.03049 45.7152 25.6814 -2.03049
427 1 46.673 24.0751 -0.363665 46.673 24.0751 -0.363665
428 2 48.5669 24.1147 1.27592 48.5669 24.1147 1.27592
429 2 48.5818 24.0356 -1.98529 48.5818 24.0356 -1.98529
430 1 49.5251 25.7212 -0.390291 49.5251 25.7212 -0.390291
431 2 51.4041 25.7612 1.26627 51.4041 25.7612 1.26627
432 2 51.4485 25.6813 -1.99462 51.4485 25.6813 -1.99462
433 1 1.04951 27.3675 -0.391649 1.04951 27.3675 -0.391649
434 2 2.91658 27.4068 1.27842 2.91658 27.4068 1.27842
435 2 2.98446 27.3284 -1.98209 2.98446 27.3284 -1.98209
436 1 3.90124 29.0139 -0.371716 3.90124 29.0139 -0.371716
437 2 5.76036 29.0511 1.30716 5.76036 29.0511 1.30716
438 2 5.84372 28.977 -1.95309 5.84372 28.977 -1.95309
439 1 6.75223 27.3681 -0.261177 6.75223 27.3681 -0.261177
440 2 8.60834 27.409 1.42086 8.60834 27.409 1.42086
441 2 8.69743 27.3274 -1.83909 8.69743 27.3274 -1.83909
442 1 9.60347 29.0146 -0.224464 9.60347 29.0146 -0.224464
443 2 11.4617 29.0532 1.45512 11.4617 29.0532 1.45512
444 2 11.5466 28.9761 -1.80506 11.5466 28.9761 -1.80506
445 1 12.4543 27.3688 -0.111215 12.4543 27.3688 -0.111215
446 2 14.3201 27.4111 1.55978 14.3201 27.4111 1.55978
447 2 14.3902 27.3267 -1.70058 14.3902 27.3267 -1.70058
448 1 15.3058 29.0152 -0.0926938 15.3058 29.0152 -0.0926938
449 2 17.1829 29.0547 1.56546 17.1829 29.0547 1.56546
450 2 17.2308 28.9758 -1.69546 17.2308 28.9758 -1.69546
451 1 18.1573 27.3694 -0.0112079 18.1573 27.3694 -0.0112079
452 2 20.0495 27.4119 1.62969 20.0495 27.4119 1.62969
453 2 20.0677 27.3268 -1.63136 20.0677 27.3268 -1.63136
454 1 21.0092 29.0154 -0.03873 21.0092 29.0154 -0.03873
455 2 22.9162 29.0547 1.58485 22.9162 29.0547 1.58485
456 2 22.9047 28.9762 -1.67643 22.9047 28.9762 -1.67643
457 1 23.8612 27.3694 -0.00950904 23.8612 27.3694 -0.00950904
458 2 25.7836 27.4113 1.59576 25.7836 27.4113 1.59576
459 2 25.741 27.3274 -1.66509 25.741 27.3274 -1.66509
460 1 26.7127 29.0152 -0.0897104 26.7127 29.0152 -0.0897104
461 2 28.6461 29.0533 1.50229 28.6461 29.0533 1.50229
462 2 28.581 28.9771 -1.75839 28.581 28.9771 -1.75839
463 1 29.5642 27.3689 -0.108565 29.5642 27.3689 -0.108565
464 2 31.5064 27.4095 1.47282 31.5064 27.4095 1.47282
465 2 31.4234 27.328 -1.7873 31.4234 27.328 -1.7873
466 1 32.415 29.0146 -0.222821 32.415 29.0146 -0.222821
467 2 34.3588 29.051 1.35668 34.3588 29.051 1.35668
468 2 34.2724 28.978 -1.90355 34.2724 28.978 -1.90355
469 1 35.2662 27.3681 -0.261711 35.2662 27.3681 -0.261711
470 2 37.2081 27.4074 1.32026 37.2081 27.4074 1.32026
471 2 37.1258 27.3286 -1.93992 37.1258 27.3286 -1.93992
472 1 38.1171 29.0139 -0.373802 38.1171 29.0139 -0.373802
473 2 40.0503 29.0492 1.21905 40.0503 29.0492 1.21905
474 2 39.986 28.9786 -2.04169 39.986 28.9786 -2.04169
475 1 40.9688 27.3675 -0.394346 40.9688 27.3675 -0.394346
476 2 42.891 27.4059 1.21192 42.891 27.4059 1.21192
477 2 42.8493 27.3291 -2.04906 42.8493 27.3291 -2.04906
478 1 43.8207 29.0135 -0.469644 43.8207 29.0135 -0.469644
479 2 45.7281 29.0486 1.15434 45.7281 29.0486 1.15434
480 2 45.7163 28.9786 -2.10701 45.7163 28.9786 -2.10701
481 1 46.673 27.3673 -0.444332 46.673 27.3673 -0.444332
482 2 48.5658 27.4056 1.1965 48.5658 27.4056 1.1965
483 2 48.583 27.329 -2.0647 48.583 27.329 -2.0647
484 1 49.5252 29.0136 -0.467839 49.5252 29.0136 -0.467839
485 2 51.4037 29.0493 1.18948 51.4037 29.0493 1.18948
486 2 51.4493 28.978 -2.07155 51.4493 28.978 -2.07155
487 1 1.04976 30.66 -0.463811 1.04976 30.66 -0.463811
488 2 2.91664 30.6918 1.20664 2.91664 30.6918 1.20664
489 2 2.98505 30.6284 -2.05416 2.98505 30.6284 -2.05416
490 1 3.90156 32.3066 -0.435965 3.90156 32.3066 -0.435965
491 2 5.76063 32.3331 1.24315 5.76063 32.3331 1.24315
492 2 5.84417 32.2803 -2.0175 5.84417 32.2803 -2.0175
493 1 6.75267 30.6605 -0.336178 6.75267 30.6605 -0.336178
494 2 8.60866 30.6937 1.3461 8.60866 30.6937 1.3461
495 2 8.69801 30.6274 -1.91418 8.69801 30.6274 -1.91418
496 1 9.60389 32.3071 -0.291625 9.60389 32.3071 -0.291625
497 2 11.4619 32.3346 1.38838 11.4619 32.3346 1.38838
498 2 11.5472 32.2796 -1.87225 11.5472 32.2796 -1.87225
499 1 12.4547 30.661 -0.18932 12.4547 30.661 -0.18932
500 2 14.32 30.6954 1.48233 14.32 30.6954 1.48233
501 2 14.3911 30.6268 -1.7784 14.3911 30.6268 -1.7784
502 1 15.3061 32.3075 -0.162155 15.3061 32.3075 -0.162155
503 2 17.1825 32.3356 1.49697 17.1825 32.3356 1.49697
504 2 17.2317 32.2794 -1.76444 17.2317 32.2794 -1.76444
505 1 18.1575 30.6614 -0.0910941 18.1575 30.6614 -0.0910941
506 2 20.0485 30.696 1.55118 20.0485 30.696 1.55118
507 2 20.0688 30.6269 -1.71028 20.0688 30.6269 -1.71028
508 1 21.0092 32.3077 -0.1088 21.0092 32.3077 -0.1088
509 2 22.9148 32.3354 1.51648 22.9148 32.3354 1.51648
510 2 22.9059 32.2799 -1.74531 22.9059 32.2799 -1.74531
511 1 23.861 30.6615 -0.0890587 23.861 30.6615 -0.0890587
512 2 25.7817 30.6952 1.51831 25.7817 30.6952 1.51831
513 2 25.7424 30.6276 -1.743 25.7424 30.6276 -1.743
514 1 26.7124 32.3075 -0.1582 26.7124 32.3075 -0.1582
515 2 28.644 32.3339 1.43615 28.644 32.3339 1.43615
516 2 28.5825 32.281 -1.82509 28.5825 32.281 -1.82509
517 1 29.5638 30.6611 -0.185785 29.5638 30.6611 -0.185785
518 2 31.504 30.6932 1.39808 31.504 30.6932 1.39808
519 2 31.4249 30.6288 -1.86254 31.4249 30.6288 -1.86254
520 1 32.4146 32.3071 -0.288056 32.4146 32.3071 -0.288056
521 2 34.3566 32.3318 1.29384 34.3566 32.3318 1.29384
522 2 34.2739 32.2824 -1.96692 34.2739 32.2824 -1.96692
523 1 35.2657 30.6605 -0.335753 35.2657 30.6605 -0.335753
524 2 37.2059 30.6911 1.2485 37.2059 30.6911 1.2485
525 2 37.1272 30.6298 -2.01213 37.1272 30.6298 -2.01213
526 1 38.1168 32.3066 -0.435928 38.1168 32.3066 -0.435928
527 2 40.0487 32.3304 1.15868 40.0487 32.3304 1.15868
528 2 39.9871 32.2829 -2.1025 39.9871 32.2829 -2.1025
529 1 40.9686 30.66 -0.465888 40.9686 30.66 -0.465888
530 2 42.8895 30.6901 1.14201 42.8895 30.6901 1.14201
531 2 42.8504 30.63 -2.11931 42.8504 30.63 -2.11931
532 1 43.8206 32.3064 -0.530557 43.8206 32.3064 -0.530557
533 2 45.7273 32.3305 1.09438 45.7273 32.3305 1.09438
534 2 45.717 32.2824 -2.16733 45.717 32.2824 -2.16733
535 1 46.673 30.6599 -0.515175 46.673 30.6599 -0.515175
536 2 48.5652 30.6905 1.12657 48.5652 30.6905 1.12657
537 2 48.5838 30.6294 -2.13491 48.5838 30.6294 -2.13491
538 1 49.5253 32.3064 -0.529697 49.5253 32.3064 -0.529697
539 2 51.4036 32.3316 1.12805 51.4036 32.3316 1.12805