ITEM: TIMESTEP
64000
ITEM: NUMBER OF ATOMS
810
ITEM: BOX BOUNDS pp pp pp
8.5529215200212683e-01 5.2162312847996034e+01
8.3662500920204352e-01 5.0179589990797467e+01
-1.0000000000000000e+01 1.0000000000000000e+01
ITEM: ATOMS id type x y z xu yu zu
1 1 1.05767 1.05 -0.33629 1.05767 1.05 -0.33629
2 2 2.88471 0.942 1.37471 2.88471 0.942 1.37471
3 2 3.02946 1.1551 -1.87729 3.02946 1.1551 -1.87729
4 1 3.90572 2.68989 -0.100861 3.90572 2.68989 -0.100861
5 2 5.72976 2.59338 1.6139 5.72976 2.59338 1.6139
6 2 5.88005 2.78482 -1.63919 5.88005 2.78482 -1.63919
7 1 6.75553 1.04427 -0.0655805 6.75553 1.04427 -0.0655805
8 2 8.58049 0.938849 1.64759 8.58049 0.938849 1.64759
9 2 8.72932 1.1488 -1.60436 8.72932 1.1488 -1.60436
10 1 9.60354 2.68569 0.171583 9.60354 2.68569 0.171583
11 2 11.4418 2.59226 1.87128 11.4418 2.59226 1.87128
12 2 11.5656 2.77949 -1.383 11.5656 2.77949 -1.383
13 1 12.4545 1.04097 0.185577 12.4545 1.04097 0.185577
14 2 14.3097 0.938336 1.86592 14.3097 0.938336 1.86592
15 2 14.4009 1.14466 -1.38831 14.4009 1.14466 -1.38831
16 1 15.3052 2.68428 0.369933 15.3052 2.68428 0.369933
17 2 17.1873 2.59075 2.02082 17.1873 2.59075 2.02082
18 2 17.2265 2.77982 -1.23538 17.2265 2.77982 -1.23538
19 1 18.158 1.04113 0.308453 18.158 1.04113 0.308453
20 2 20.0679 0.939996 1.92617 20.0679 0.939996 1.92617
21 2 20.0513 1.14512 -1.32937 20.0513 1.14512 -1.32937
22 1 21.0107 2.68632 0.397251 21.0107 2.68632 0.397251
23 2 22.9503 2.58902 1.97965 22.9503 2.58902 1.97965
24 2 22.8738 2.78705 -1.27539 22.8738 2.78705 -1.27539
25 1 23.8623 1.04539 0.229457 23.8623 1.04539 0.229457
26 2 25.826 0.943711 1.78111 25.826 0.943711 1.78111
27 2 25.6988 1.151 -1.47192 25.6988 1.151 -1.47192
28 1 26.7134 2.69191 0.222199 26.7134 2.69191 0.222199
29 2 28.6939 2.58879 1.75254 28.6939 2.58879 1.75254
30 2 28.5315 2.79877 -1.49871 28.5315 2.79877 -1.49871
31 1 29.5612 1.05246 -0.0269206 29.5612 1.05246 -0.0269206
32 2 31.5471 0.948798 1.49609 31.5471 0.948798 1.49609
33 2 31.3726 1.15912 -1.75456 31.3726 1.15912 -1.75456
34 1 32.4105 2.69877 -0.0737567 32.4105 2.69877 -0.0737567
35 2 34.3916 2.59107 1.45542 34.3916 2.59107 1.45542
36 2 34.2272 2.80831 -1.79531 34.2272 2.80831 -1.79531
37 1 35.2577 1.05846 -0.327986 35.2577 1.05846 -0.327986
38 2 37.2228 0.952168 1.22216 37.2228 0.952168 1.22216
39 2 37.0924 1.16485 -2.03039 37.0924 1.16485 -2.03039
40 1 38.1086 2.70266 -0.334396 38.1086 2.70266 -0.334396
41 2 40.0519 2.5936 1.24288 40.0519 2.5936 1.24288
42 2 39.9664 2.81037 -2.01098 39.9664 2.81037 -2.01098
43 1 40.9589 1.05984 -0.518651 40.9589 1.05984 -0.518651
44 2 42.8737 0.951343 1.09359 42.8737 0.951343 1.09359
45 2 42.847 1.16554 -2.16138 42.847 1.16554 -2.16138
46 1 43.8113 2.70125 -0.433051 43.8113 2.70125 -0.433051
47 2 45.6996 2.59471 1.21009 45.6996 2.59471 1.21009
48 2 45.7251 2.8043 -2.04535 45.7251 2.8043 -2.04535
49 1 46.6633 1.05621 -0.516108 46.6633 1.05621 -0.516108
50 2 48.524 0.947098 1.15824 48.524 0.947098 1.15824
51 2 48.6041 1.16145 -2.09591 48.6041 1.16145 -2.09591
52 1 49.5139 2.6959 -0.33667 49.5139 2.6959 -0.33667
53 2 51.3563 2.59441 1.35812 51.3563 2.59441 1.35812
54 2 51.4713 2.79406 -1.89603 51.4713 2.79406 -1.89603
55 1 1.05603 4.33607 -0.133914 1.05603 4.33607 -0.133914
56 2 2.88833 4.2509 1.57258 2.88833 4.2509 1.57258
57 2 3.0224 4.4191 -1.68264 3.0224 4.4191 -1.68264
58 1 3.90446 5.97792 0.0697181 3.90446 5.97792 0.0697181
59 2 5.73419 5.91447 1.77991 5.73419 5.91447 1.77991
60 2 5.87327 6.04052 -1.47693 5.87327 6.04052 -1.47693
61 1 6.75361 4.33144 0.128494 6.75361 4.33144 0.128494
62 2 8.58288 4.25172 1.83857 8.58288 4.25172 1.83857
63 2 8.72345 4.4109 -1.41661 8.72345 4.4109 -1.41661
64 1 9.60237 5.97512 0.332935 9.60237 5.97512 0.332935
65 2 11.4434 5.91405 2.03131 11.4434 5.91405 2.03131
66 2 11.5621 6.03681 -1.22617 11.5621 6.03681 -1.22617
67 1 12.4531 4.32908 0.375299 12.4531 4.32908 0.375299
68 2 14.3111 4.2495 2.05422 14.3111 4.2495 2.05422
69 2 14.3974 4.4099 -1.20258 14.3974 4.4099 -1.20258
70 1 15.3045 5.97432 0.532352 15.3045 5.97432 0.532352
71 2 17.1863 5.90784 2.18537 17.1863 5.90784 2.18537
72 2 17.2267 6.04246 -1.07336 17.2267 6.04246 -1.07336
73 1 18.1576 4.32932 0.499868 18.1576 4.32932 0.499868
74 2 20.0683 4.24418 2.11826 20.0683 4.24418 2.11826
75 2 20.0511 4.41698 -1.13894 20.0511 4.41698 -1.13894
76 1 21.011 5.97569 0.572048 21.011 5.97569 0.572048
77 2 22.9477 5.89713 2.15955 22.9477 5.89713 2.15955
78 2 22.8778 6.05687 -1.09756 22.8778 6.05687 -1.09756
79 1 23.8634 4.33266 0.429863 23.8634 4.33266 0.429863
80 2 25.8264 4.23784 1.98337 25.8264 4.23784 1.98337
81 2 25.7014 4.43098 -1.27043 25.7014 4.43098 -1.27043
82 1 26.7152 5.97963 0.417633 26.7152 5.97963 0.417633
83 2 28.693 5.8874 1.95259 28.693 5.8874 1.95259
84 2 28.5368 6.07498 -1.30021 28.5368 6.07498 -1.30021
85 1 29.5636 4.33863 0.185723 29.5636 4.33863 0.185723
86 2 31.5496 4.23504 1.70891 31.5496 4.23504 1.70891
87 2 31.3752 4.44523 -1.54171 31.3752 4.44523 -1.54171
88 1 32.4134 5.98503 0.139157 32.4134 5.98503 0.139157
89 2 34.395 5.88516 1.66833 34.395 5.88516 1.66833
90 2 34.2294 6.08681 -1.58337 34.2294 6.08681 -1.58337
91 1 35.2603 4.34412 -0.107864 35.2603 4.34412 -0.107864
92 2 37.2275 4.23735 1.43952 37.2275 4.23735 1.43952
93 2 37.0922 4.45132 -1.81286 37.0922 4.45132 -1.81286
94 1 38.1109 5.98834 -0.117527 38.1109 5.98834 -0.117527
95 2 40.0587 5.89059 1.45481 40.0587 5.89059 1.45481
96 2 39.9633 6.08526 -1.80034 39.9633 6.08526 -1.80034
97 1 40.9602 4.34531 -0.298993 40.9602 4.34531 -0.298993
98 2 42.8791 4.2422 1.30835 42.8791 4.2422 1.30835
99 2 42.843 4.446 -1.94743 42.843 4.446 -1.94743
100 1 43.8119 5.98706 -0.226453 43.8119 5.98706 -0.226453
101 2 45.7076 5.89991 1.409 45.7076 5.89991 1.409
102 2 45.7175 6.07145 -1.84897 45.7175 6.07145 -1.84897
103 1 46.6628 4.3417 -0.303717 46.6628 4.3417 -0.303717
104 2 48.529 4.24733 1.36518 48.529 4.24733 1.36518
105 2 48.5975 4.43274 -1.89124 48.5975 4.43274 -1.89124
106 1 49.5132 5.98253 -0.148654 49.5132 5.98253 -0.148654
107 2 51.3634 5.90917 1.53883 51.3634 5.90917 1.53883
108 2 51.4625 6.05341 -1.71894 51.4625 6.05341 -1.71894
109 1 1.05557 7.62484 0.0124695 1.05557 7.62484 0.0124695
110 2 2.89612 7.57796 1.71137 2.89612 7.57796 1.71137
111 2 3.01379 7.67033 -1.54763 3.01379 7.67033 -1.54763
112 1 3.90471 9.269 0.163531 3.90471 9.269 0.163531
113 2 5.74075 9.24996 1.8679 5.74075 9.24996 1.8679
114 2 5.86735 9.28754 -1.39173 5.86735 9.28754 -1.39173
115 1 6.75308 7.6219 0.256342 6.75308 7.6219 0.256342
116 2 8.58624 7.58182 1.96366 8.58624 7.58182 1.96366
117 2 8.71918 7.66205 -1.29475 8.71918 7.66205 -1.29475
118 1 9.60253 9.26772 0.41423 9.60253 9.26772 0.41423
119 2 11.4439 9.24958 2.11327 11.4439 9.24958 2.11327
120 2 11.5618 9.28638 -1.14633 11.5618 9.28638 -1.14633
121 1 12.4526 7.62072 0.499628 12.4526 7.62072 0.499628
122 2 14.3101 7.57736 2.18065 14.3101 7.57736 2.18065
123 2 14.3975 7.66508 -1.0788 14.3975 7.66508 -1.0788
124 1 15.3043 9.26768 0.621016 15.3043 9.26768 0.621016
125 2 17.1814 9.2393 2.28068 17.1814 9.2393 2.28068
126 2 17.2313 9.29706 -0.980107 17.2313 9.29706 -0.980107
127 1 18.1574 7.62096 0.635994 18.1574 7.62096 0.635994
128 2 20.0637 7.56534 2.26113 20.0637 7.56534 2.26113
129 2 20.0557 7.67826 -0.998579 20.0557 7.67826 -0.998579
130 1 21.0109 9.26844 0.686078 21.0109 9.26844 0.686078
131 2 22.9399 9.22169 2.28465 22.9399 9.22169 2.28465
132 2 22.8864 9.31666 -0.97517 22.8864 9.31666 -0.97517
133 1 23.8642 7.62288 0.591365 23.8642 7.62288 0.591365
134 2 25.8216 7.54996 2.1536 25.8216 7.54996 2.1536
135 2 25.709 7.6982 -1.10286 25.709 7.6982 -1.10286
136 1 26.7166 9.27045 0.567503 26.7166 9.27045 0.567503
137 2 28.6879 9.20477 2.1124 28.6879 9.20477 2.1124
138 2 28.5458 9.33818 -1.14361 28.5458 9.33818 -1.14361
139 1 29.5661 7.62675 0.375591 29.5661 7.62675 0.375591
140 2 31.5495 7.54021 1.90356 31.5495 7.54021 1.90356
141 2 31.3809 7.71576 -1.34936 31.3809 7.71576 -1.34936
142 1 32.4163 9.27373 0.316966 32.4163 9.27373 0.316966
143 2 34.3975 9.19886 1.84825 34.3975 9.19886 1.84825
144 2 34.2329 9.35025 -1.40622 34.2329 9.35025 -1.40622
145 1 35.2633 7.63081 0.0964989 35.2633 7.63081 0.0964989
146 2 37.2333 7.54187 1.64126 37.2333 7.54187 1.64126
147 2 37.0916 7.72049 -1.61306 37.0916 7.72049 -1.61306
148 1 38.1135 9.27604 0.0636388 38.1135 9.27604 0.0636388
149 2 40.0678 9.20667 1.62914 40.0678 9.20667 1.62914
150 2 39.9583 9.34515 -1.62855 39.9583 9.34515 -1.62855
151 1 40.9619 7.63178 -0.101568 40.9619 7.63178 -0.101568
152 2 42.8887 7.55253 1.49736 42.8887 7.55253 1.49736
153 2 42.8358 7.70942 -1.76096 42.8358 7.70942 -1.76096
154 1 43.813 9.27513 -0.0671907 43.813 9.27513 -0.0671907
155 2 45.7199 9.22291 1.55639 45.7199 9.22291 1.55639
156 2 45.7067 9.32547 -1.70462 45.7067 9.32547 -1.70462
157 1 46.663 7.62897 -0.129676 46.663 7.62897 -0.129676
158 2 48.5393 7.56663 1.52902 48.5393 7.56663 1.52902
159 2 48.5871 7.6889 -1.73093 48.5871 7.6889 -1.73093
160 1 49.5134 9.27191 -0.0244353 49.5134 9.27191 -0.0244353
161 2 51.3748 9.23992 1.65181 51.3748 9.23992 1.65181
162 2 51.4517 9.30215 -1.60928 51.4517 9.30215 -1.60928
163 1 1.05642 10.9162 0.075871 1.05642 10.9162 0.075871
164 2 2.90657 10.9157 1.76479 2.90657 10.9157 1.76479
165 2 3.0053 10.9155 -1.49623 3.0053 10.9155 -1.49623
166 1 3.90633 12.5614 0.163541 3.90633 12.5614 0.163541
167 2 5.74816 12.5898 1.86138 5.74816 12.5898 1.86138
168 2 5.86332 12.5324 -1.39845 5.86332 12.5324 -1.39845
169 1 6.75409 10.9147 0.294517 6.75409 10.9147 0.294517
170 2 8.58971 10.9214 1.99957 8.58971 10.9214 1.99957
171 2 8.71762 10.9081 -1.26005 8.71762 10.9081 -1.26005
172 1 9.60401 12.5614 0.400695 9.60401 12.5614 0.400695
173 2 11.443 12.5895 2.102 11.443 12.5895 2.102
174 2 11.565 12.5337 -1.15723 11.565 12.5337 -1.15723
175 1 12.4531 10.9148 0.536753 12.4531 10.9148 0.536753
176 2 14.3065 10.9152 2.22285 14.3065 10.9152 2.22285
177 2 14.4017 10.915 -1.03756 14.4017 10.915 -1.03756
178 1 15.3048 12.5624 0.62044 15.3048 12.5624 0.62044
179 2 17.1735 12.5777 2.28967 17.1735 12.5777 2.28967
180 2 17.2396 12.5478 -0.97122 17.2396 12.5478 -0.97122
181 1 18.1572 10.9154 0.694143 18.1572 10.9154 0.694143
182 2 20.0549 10.8991 2.33049 20.0549 10.8991 2.33049
183 2 20.0644 10.9325 -0.930938 20.0644 10.9325 -0.930938
184 1 21.0108 12.5634 0.719487 21.0108 12.5634 0.719487
185 2 22.9284 12.5577 2.33243 22.9284 12.5577 2.33243
186 2 22.8979 12.5698 -0.929007 22.8979 12.5698 -0.929007
187 1 23.8644 10.9163 0.687168 23.8644 10.9163 0.687168
188 2 25.8123 10.8784 2.26286 25.8123 10.8784 2.26286
189 2 25.7199 10.9555 -0.996594 25.7199 10.9555 -0.996594
190 1 26.7173 12.5643 0.645189 26.7173 12.5643 0.645189
191 2 28.6795 12.5377 2.203 28.6795 12.5377 2.203
192 2 28.5568 12.592 -1.056 28.5568 12.592 -1.056
193 1 29.568 10.9181 0.510544 29.568 10.9181 0.510544
194 2 31.5466 10.864 2.04654 31.5466 10.864 2.04654
195 2 31.3886 10.9738 -1.20974 31.3886 10.9738 -1.20974
196 1 32.4186 12.5657 0.42815 32.4186 12.5657 0.42815
197 2 34.3983 12.5292 1.96296 34.3983 12.5292 1.96296
198 2 34.2371 12.6033 -1.29434 34.2371 12.6033 -1.29434
199 1 35.2661 10.9204 0.249981 35.2661 10.9204 0.249981
200 2 37.2395 10.8647 1.79212 37.2395 10.8647 1.79212
201 2 37.0908 10.9769 -1.46488 37.0908 10.9769 -1.46488
202 1 38.1159 12.5668 0.177568 38.1159 12.5668 0.177568
203 2 40.0777 12.5372 1.73499 40.0777 12.5372 1.73499
204 2 39.9527 12.5962 -1.52457 39.9527 12.5962 -1.52457
205 1 40.9639 10.921 0.0390604 40.9639 10.921 0.0390604
206 2 42.9011 10.8791 1.62664 42.9011 10.8791 1.62664
207 2 42.8265 10.9619 -1.63407 42.8265 10.9619 -1.63407
208 1 43.8145 12.5658 0.0171604 43.8145 12.5658 0.0171604
209 2 45.7345 12.5566 1.62588 45.7345 12.5566 1.62588
210 2 45.6946 12.5735 -1.63654 45.6946 12.5735 -1.63654
211 1 46.6639 10.9189 -0.0253497 46.6639 10.9189 -0.0253497
212 2 48.5533 10.8993 1.61926 48.5533 10.8993 1.61926
213 2 48.5748 10.9368 -1.64315 48.5748 10.9368 -1.64315
214 1 49.5146 12.5633 0.0140651 49.5146 12.5633 0.0140651
215 2 51.3885 12.5774 1.67634 51.3885 12.5774 1.67634
216 2 51.4405 12.5476 -1.58575 51.4405 12.5476 -1.58575
217 1 1.05816 14.2079 0.0460379 1.05816 14.2079 0.0460379
218 2 2.91781 14.2529 1.72376 2.91781 14.2529 1.72376
219 2 2.99799 14.1616 -1.53651 2.99799 14.1616 -1.53651
220 1 3.90872 15.8526 0.0713436 3.90872 15.8526 0.0713436
221 2 5.75528 15.9224 1.76276 5.75528 15.9224 1.76276
222 2 5.86128 15.7818 -1.49486 5.86128 15.7818 -1.49486
223 1 6.75633 14.2073 0.23645 6.75633 14.2073 0.23645
224 2 8.59271 14.2592 1.93978 8.59271 14.2592 1.93978
225 2 8.71888 14.1552 -1.31832 8.71888 14.1552 -1.31832
226 1 9.60653 15.8534 0.295145 9.60653 15.8534 0.295145
227 2 11.4414 15.923 1.9996 11.4414 15.923 1.9996
228 2 11.571 15.7842 -1.25693 11.571 15.7842 -1.25693
229 1 12.4546 14.2086 0.479908 12.4546 14.2086 0.479908
230 2 14.3012 14.2533 2.17278 14.3012 14.2533 2.17278
231 2 14.4093 14.1644 -1.08607 14.4093 14.1644 -1.08607
232 1 15.3061 15.8559 0.529985 15.3061 15.8559 0.529985
233 2 17.1646 15.9134 2.20943 17.1646 15.9134 2.20943
234 2 17.25 15.7992 -1.04923 17.25 15.7992 -1.04923
235 1 18.1575 14.2103 0.663437 18.1575 14.2103 0.663437
236 2 20.0436 14.2376 2.31278 20.0436 14.2376 2.31278
237 2 20.0756 14.1836 -0.948266 20.0756 14.1836 -0.948266
238 1 21.0107 15.8581 0.664277 21.0107 15.8581 0.664277
239 2 22.9156 15.8966 2.2917 22.9156 15.8966 2.2917
240 2 22.9104 15.8203 -0.969063 22.9104 15.8203 -0.969063
241 1 23.8643 14.2114 0.698942 23.8643 14.2114 0.698942
242 2 25.8003 14.2169 2.28977 25.8003 14.2169 2.28977
243 2 25.7323 14.2066 -0.971166 25.7323 14.2066 -0.971166
244 1 26.7173 15.8593 0.634279 26.7173 15.8593 0.634279
245 2 28.6691 15.8782 2.20542 28.6691 15.8782 2.20542
246 2 28.5682 15.841 -1.05458 28.5682 15.841 -1.05458
247 1 29.5691 14.2122 0.56525 29.5691 14.2122 0.56525
248 2 31.541 14.201 2.11082 31.541 14.201 2.11082
249 2 31.3974 14.2242 -1.14785 31.3974 14.2242 -1.14785
250 1 32.4199 15.8597 0.45153 32.4199 15.8597 0.45153
251 2 34.3966 15.8683 1.99072 34.3966 15.8683 1.99072
252 2 34.2421 15.8516 -1.26767 34.2421 15.8516 -1.26767
253 1 35.2684 14.2129 0.3252 35.2684 14.2129 0.3252
254 2 37.2443 14.1998 1.86504 37.2443 14.1998 1.86504
255 2 37.0904 14.2265 -1.39352 37.0904 14.2265 -1.39352
256 1 38.1179 15.8594 0.204851 38.1179 15.8594 0.204851
257 2 40.086 15.8736 1.75441 40.086 15.8736 1.75441
258 2 39.9478 15.8446 -1.50499 39.9478 15.8446 -1.50499
259 1 40.9658 14.2126 0.0992387 40.9658 14.2126 0.0992387
260 2 42.9138 14.2138 1.67402 42.9138 14.2138 1.67402
261 2 42.817 14.2103 -1.58716 42.817 14.2103 -1.58716
262 1 43.816 15.8575 0.0140614 43.816 15.8575 0.0140614
263 2 45.7486 15.8908 1.60723 45.7486 15.8908 1.60723
264 2 45.6831 15.8223 -1.65406 45.6831 15.8223 -1.65406
265 1 46.6652 14.2104 -0.00767223 46.6652 14.2104 -0.00767223
266 2 48.5684 14.2351 1.62077 48.5684 14.2351 1.62077
267 2 48.5623 14.1838 -1.64153 48.5623 14.1838 -1.64153
268 1 49.5161 15.8545 -0.0374614 49.5161 15.8545 -0.0374614
269 2 51.402 15.9103 1.61017 51.402 15.9103 1.61017
270 2 51.4305 15.7965 -1.65034 51.4305 15.7965 -1.65034
271 1 1.0601 17.4979 -0.0688152 1.0601 17.4979 -0.0688152
272 2 2.92802 17.5788 1.59834 2.92802 17.5788 1.59834
273 2 2.99231 17.4151 -1.65941 2.99231 17.4151 -1.65941
274 1 3.91119 19.141 -0.0941973 3.91119 19.141 -0.0941973
275 2 5.76121 19.2392 1.59205 5.76121 19.2392 1.59205
276 2 5.86079 19.0415 -1.66277 5.86079 19.0415 -1.66277
277 1 6.75921 17.4972 0.0940665 6.75921 17.4972 0.0940665
278 2 8.59516 17.5849 1.7963 8.59516 17.5849 1.7963
279 2 8.72205 17.4093 -1.45873 8.72205 17.4093 -1.45873
280 1 9.60955 19.142 0.11713 9.60955 19.142 0.11713
281 2 11.4399 19.2413 1.82485 11.4399 19.2413 1.82485
282 2 11.578 19.0436 -1.42835 11.578 19.0436 -1.42835
283 1 12.457 17.4996 0.339082 12.457 17.4996 0.339082
284 2 14.2958 17.5818 2.03881 14.2958 17.5818 2.03881
285 2 14.4184 17.4185 -1.21676 14.4184 17.4185 -1.21676
286 1 15.308 19.1459 0.364207 15.308 19.1459 0.364207
287 2 17.157 19.2374 2.05243 17.157 19.2374 2.05243
288 2 17.2604 19.0561 -1.20281 17.2604 19.0561 -1.20281
289 1 18.1583 17.503 0.547246 18.1583 17.503 0.547246
290 2 20.0327 17.5713 2.20854 20.0327 17.5713 2.20854
291 2 20.0874 17.436 -1.04996 20.0874 17.436 -1.04996
292 1 21.0111 19.1499 0.526778 21.0111 19.1499 0.526778
293 2 22.9042 19.2281 2.16617 22.9042 19.2281 2.16617
294 2 22.9219 19.0732 -1.09189 22.9219 19.0732 -1.09189
295 1 23.8641 17.5055 0.621241 23.8641 17.5055 0.621241
296 2 25.7878 17.5558 2.22595 25.7878 17.5558 2.22595
297 2 25.7445 17.4562 -1.03397 25.7445 17.4562 -1.03397
298 1 26.717 19.1524 0.532999 26.717 19.1524 0.532999
299 2 28.6581 19.2155 2.11582 28.6581 19.2155 2.11582
300 2 28.5788 19.0903 -1.14265 28.5788 19.0903 -1.14265
301 1 29.5694 17.5066 0.527245 29.5694 17.5066 0.527245
302 2 31.5334 17.5416 2.08239 31.5334 17.5416 2.08239
303 2 31.4063 17.472 -1.17631 31.4063 17.472 -1.17631
304 1 32.4202 19.153 0.380857 32.4202 19.153 0.380857
305 2 34.3922 19.206 1.92506 34.3922 19.206 1.92506
306 2 34.2475 19.1 -1.33209 34.2475 19.1 -1.33209
307 1 35.2697 17.5063 0.308271 35.2697 17.5063 0.308271
308 2 37.2463 17.5377 1.84693 37.2463 17.5377 1.84693
309 2 37.0911 17.4746 -1.41103 37.0911 17.4746 -1.41103
310 1 38.1188 19.1515 0.141064 38.1188 19.1515 0.141064
311 2 40.0906 19.2065 1.68496 40.0906 19.2065 1.68496
312 2 39.9449 19.0953 -1.57226 39.9449 19.0953 -1.57226
313 1 40.9672 17.5046 0.0702842 40.9672 17.5046 0.0702842
314 2 42.9242 17.5472 1.63327 42.9242 17.5472 1.63327
315 2 42.809 17.4603 -1.62608 42.809 17.4603 -1.62608
316 1 43.8168 19.1482 -0.0734297 43.8168 19.1482 -0.0734297
317 2 45.7592 19.2167 1.50664 45.7592 19.2167 1.50664
318 2 45.6741 19.0768 -1.75179 45.6741 19.0768 -1.75179
319 1 46.6664 17.5013 -0.076543 46.6664 17.5013 -0.076543
320 2 48.5818 17.564 1.53642 48.5818 17.564 1.53642
321 2 48.5514 17.4359 -1.72355 48.5514 17.4359 -1.72355
322 1 49.5173 19.1437 -0.166704 49.5173 19.1437 -0.166704
323 2 51.4131 19.23 1.46838 51.4131 19.23 1.46838
324 2 51.4225 19.0545 -1.7894 51.4225 19.0545 -1.7894
325 1 1.06168 20.7854 -0.246126 1.06168 20.7854 -0.246126
326 2 2.93553 20.8873 1.41332 2.93553 20.8873 1.41332
327 2 2.98878 20.6809 -1.84208 2.98878 20.6809 -1.84208
328 1 3.91324 22.4271 -0.303062 3.91324 22.4271 -0.303062
329 2 5.76512 22.5367 1.38058 5.76512 22.5367 1.38058
330 2 5.86166 22.3161 -1.87277 5.86166 22.3161 -1.87277
331 1 6.76207 20.7842 -0.106102 6.76207 20.7842 -0.106102
332 2 8.59712 20.8923 1.59595 8.59712 20.8923 1.59595
333 2 8.72594 20.676 -1.65654 8.72594 20.676 -1.65654
334 1 9.6125 22.4281 -0.102127 9.6125 22.4281 -0.102127
335 2 11.4392 22.5403 1.60859 11.4392 22.5403 1.60859
336 2 11.5842 22.317 -1.6427 11.5842 22.317 -1.6427
337 1 12.4598 20.7872 0.138533 12.4598 20.7872 0.138533
338 2 14.2919 20.8934 1.84393 14.2919 20.8934 1.84393
339 2 14.427 20.6826 -1.40852 14.427 20.6826 -1.40852
340 1 15.3104 22.4326 0.150427 15.3104 22.4326 0.150427
341 2 17.1523 22.543 1.84479 17.1523 22.543 1.84479
342 2 17.2687 22.3246 -1.4079 17.2687 22.3246 -1.4079
343 1 18.1597 20.7921 0.36325 18.1597 20.7921 0.36325
344 2 20.0244 20.8911 2.03353 20.0244 20.8911 2.03353
345 2 20.0974 20.6952 -1.2217 20.0974 20.6952 -1.2217
346 1 21.0119 22.4379 0.328076 21.0119 22.4379 0.328076
347 2 22.8961 22.5434 1.97557 22.8961 22.5434 1.97557
348 2 22.9305 22.3349 -1.27958 22.9305 22.3349 -1.27958
349 1 23.864 20.7963 0.463906 23.864 20.7963 0.463906
350 2 25.777 20.8844 2.07936 25.777 20.8844 2.07936
351 2 25.7547 20.71 -1.17778 25.7547 20.71 -1.17778
352 1 26.7165 22.4419 0.356019 26.7165 22.4419 0.356019
353 2 28.6486 22.5394 1.9477 28.6486 22.5394 1.9477
354 2 28.587 22.3461 -1.30799 28.587 22.3461 -1.30799
355 1 29.5689 20.7985 0.400064 29.5689 20.7985 0.400064
356 2 31.5247 20.875 1.96381 31.5247 20.875 1.96381
357 2 31.4144 20.7226 -1.29274 31.4144 20.7226 -1.29274
358 1 32.4194 22.4432 0.226214 32.4194 22.4432 0.226214
359 2 34.3855 22.5326 1.77598 34.3855 22.5326 1.77598
360 2 34.253 22.3539 -1.47855 34.253 22.3539 -1.47855
361 1 35.2697 20.798 0.200773 35.2697 20.798 0.200773
362 2 37.2446 20.8691 1.74034 37.2446 20.8691 1.74034
363 2 37.0933 20.7261 -1.51523 37.0933 20.7261 -1.51523
364 1 38.1184 22.4412 -0.00383949 38.1184 22.4412 -0.00383949
365 2 40.0903 22.5281 1.53845 40.0903 22.5281 1.53845
366 2 39.9447 22.3524 -1.71586 39.9447 22.3524 -1.71586
367 1 40.9676 20.7949 -0.0420797 40.9676 20.7949 -0.0420797
368 2 42.9299 20.8711 1.51298 42.9299 20.8711 1.51298
369 2 42.804 20.7163 -1.74334 42.804 20.7163 -1.74334
370 1 43.8167 22.4365 -0.229961 43.8167 22.4365 -0.229961
371 2 45.7643 22.5287 1.34266 45.7643 22.5287 1.34266
372 2 45.6692 22.3408 -1.91292 45.6692 22.3408 -1.91292
373 1 46.667 20.79 -0.217746 46.667 20.79 -0.217746
374 2 48.591 20.879 1.38373 48.591 20.879 1.38373
375 2 48.5438 20.6975 -1.87334 48.5438 20.6975 -1.87334
376 1 49.518 22.4308 -0.350094 49.518 22.4308 -0.350094
377 2 51.4196 22.5325 1.27743 51.4196 22.5325 1.27743
378 2 51.4181 22.3256 -1.97834 51.4181 22.3256 -1.97834
379 1 1.06272 24.0714 -0.455438 1.06272 24.0714 -0.455438
380 2 2.93902 24.1775 1.20118 2.93902 24.1775 1.20118
381 2 2.98824 23.9627 -2.05356 2.98824 23.9627 -2.05356
382 1 3.91473 25.7132 -0.52049 3.91473 25.7132 -0.52049
383 2 5.7662 25.816 1.16417 5.7662 25.816 1.16417
384 2 5.86419 25.6091 -2.08989 5.86419 25.6091 -2.08989
385 1 6.76446 24.0698 -0.329471 6.76446 24.0698 -0.329471
386 2 8.59834 24.1801 1.37375 8.59834 24.1801 1.37375
387 2 8.72976 23.9595 -1.87831 8.72976 23.9595 -1.87831
388 1 9.61487 25.7138 -0.325634 9.61487 25.7138 -0.325634
389 2 11.4392 25.8197 1.38787 11.4392 25.8197 1.38787
390 2 11.5888 25.6091 -1.86407 11.5888 25.6091 -1.86407
391 1 12.4625 24.0728 -0.087781 12.4625 24.0728 -0.087781
392 2 14.2903 24.185 1.62163 14.2903 24.185 1.62163
393 2 14.4334 23.9625 -1.62981 14.4334 23.9625 -1.62981
394 1 15.3125 25.718 -0.0750409 15.3125 25.718 -0.0750409
395 2 17.151 25.8277 1.62263 17.151 25.8277 1.62263
396 2 17.2734 25.6108 -1.6301 17.2734 25.6108 -1.6301
397 1 18.1614 24.078 0.14179 18.1614 24.078 0.14179
398 2 20.02 24.1909 1.81737 20.02 24.1909 1.81737
399 2 20.104 23.968 -1.43609 20.104 23.968 -1.43609
400 1 21.0128 25.7233 0.102281 21.0128 25.7233 0.102281
401 2 22.8926 25.8371 1.75363 22.8926 25.8371 1.75363
402 2 22.9348 25.6126 -1.50061 22.9348 25.6126 -1.50061
403 1 23.8642 24.0832 0.252426 23.8642 24.0832 0.252426
404 2 25.7697 24.1942 1.87461 25.7697 24.1942 1.87461
405 2 25.7614 23.9749 -1.3801 25.7614 23.9749 -1.3801
406 1 26.7159 25.7278 0.133792 26.7159 25.7278 0.133792
407 2 28.642 25.8424 1.73087 28.642 25.8424 1.73087
408 2 28.5916 25.6158 -1.52305 28.5916 25.6158 -1.52305
409 1 29.5679 24.0864 0.204037 29.5679 24.0864 0.204037
410 2 31.5163 24.192 1.77475 31.5163 24.192 1.77475
411 2 31.4205 23.9823 -1.4792 31.4205 23.9823 -1.4792
412 1 32.4178 25.7298 0.0135989 32.4178 25.7298 0.0135989
413 2 34.3779 25.8405 1.56909 34.3779 25.8405 1.56909
414 2 34.2573 25.6197 -1.68338 34.2573 25.6197 -1.68338
415 1 35.2685 24.0863 0.0196278 35.2685 24.0863 0.0196278
416 2 37.2392 24.186 1.56273 37.2392 24.186 1.56273
417 2 37.0966 23.9858 -1.69021 37.0966 23.9858 -1.69021
418 1 38.1167 25.7279 -0.206679 38.1167 25.7279 -0.206679
419 2 40.0851 25.8331 1.33893 40.0851 25.8331 1.33893
420 2 39.9472 25.621 -1.91346 39.9472 25.621 -1.91346
421 1 40.9668 24.0826 -0.220002 40.9668 24.0826 -0.220002
422 2 42.9295 24.1804 1.33328 42.9295 24.1804 1.33328
423 2 42.8032 23.982 -1.92052 42.8032 23.982 -1.92052
424 1 43.8158 25.7229 -0.430909 43.8158 25.7229 -0.430909
425 2 45.7627 25.8243 1.14208 45.7627 25.8243 1.14208
426 2 45.6696 25.618 -2.11226 45.6696 25.618 -2.11226
427 1 46.6668 24.0768 -0.407781 46.6668 24.0768 -0.407781
428 2 48.5942 24.1776 1.18917 48.5942 24.1776 1.18917
429 2 48.5409 23.9722 -2.06619 48.5409 23.9722 -2.06619
430 1 49.5181 25.7169 -0.557947 49.5181 25.7169 -0.557947
431 2 51.4203 25.8178 1.06915 51.4203 25.8178 1.06915
432 2 51.4184 25.6127 -2.18653 51.4184 25.6127 -2.18653
433 1 1.06333 27.3582 -0.663128 1.06333 27.3582 -0.663128
434 2 2.93775 27.4513 0.996614 2.93775 27.4513 0.996614
435 2 2.99148 27.263 -2.25952 2.99148 27.263 -2.25952
436 1 3.91569 29.0015 -0.711277 3.91569 29.0015 -0.711277
437 2 5.76406 29.0805 0.978179 5.76406 29.0805 0.978179
438 2 5.86861 28.9215 -2.27826 5.86861 28.9215 -2.27826
439 1 6.76613 27.3567 -0.539114 6.76613 27.3567 -0.539114
440 2 8.59829 27.4505 1.16697 8.59829 27.4505 1.16697
441 2 8.73341 27.2629 -2.08694 8.73341 27.2629 -2.08694
442 1 9.61634 29.0018 -0.515712 9.61634 29.0018 -0.515712
443 2 11.4394 29.0827 1.20039 11.4394 29.0827 1.20039
444 2 11.5915 28.9217 -2.0543 11.5915 28.9217 -2.0543
445 1 12.4645 27.359 -0.301248 12.4645 27.359 -0.301248
446 2 14.2906 27.4572 1.41057 14.2906 27.4572 1.41057
447 2 14.4367 27.2626 -1.84263 14.4367 27.2626 -1.84263
448 1 15.3138 29.0048 -0.272086 15.3138 29.0048 -0.272086
449 2 17.1526 29.0933 1.42612 17.1526 29.0933 1.42612
450 2 17.274 28.9185 -1.82934 17.274 28.9185 -1.82934
451 1 18.1628 27.3634 -0.0779838 18.1628 27.3634 -0.0779838
452 2 20.0198 27.469 1.59919 20.0198 27.469 1.59919
453 2 20.106 27.2608 -1.65538 20.106 27.2608 -1.65538
454 1 21.0133 29.009 -0.108517 21.0133 29.009 -0.108517
455 2 22.8938 29.1089 1.5423 22.8938 29.1089 1.5423
456 2 22.9337 28.9121 -1.71398 22.9337 28.9121 -1.71398
457 1 23.8642 27.3682 0.0251156 23.8642 27.3682 0.0251156
458 2 25.767 27.4812 1.64963 25.767 27.4812 1.64963
459 2 25.763 27.2585 -1.60508 25.763 27.2585 -1.60508
460 1 26.7148 29.0129 -0.0917466 26.7148 29.0129 -0.0917466
461 2 28.6397 29.1226 1.50654 28.6397 29.1226 1.50654
462 2 28.5909 28.906 -1.74826 28.5909 28.906 -1.74826
463 1 29.5663 27.3717 -0.0256245 29.5663 27.3717 -0.0256245
464 2 31.5101 27.4871 1.54967 31.5101 27.4871 1.54967
465 2 31.4232 27.2584 -1.70339 31.4232 27.2584 -1.70339
466 1 32.4154 29.0148 -0.218154 32.4154 29.0148 -0.218154
467 2 34.3713 29.1268 1.34209 34.3713 29.1268 1.34209
468 2 34.259 28.904 -1.91059 34.259 28.904 -1.91059
469 1 35.2663 27.3719 -0.204246 35.2663 27.3719 -0.204246
470 2 37.2315 27.4833 1.34462 37.2315 27.4833 1.34462
471 2 37.1001 27.2603 -1.90728 37.1001 27.2603 -1.90728
472 1 38.1142 29.0134 -0.432826 38.1142 29.0134 -0.432826
473 2 40.0765 29.1189 1.12032 40.0765 29.1189 1.12032
474 2 39.9515 28.9066 -2.13249 39.9515 28.9066 -2.13249
475 1 40.965 27.3685 -0.435005 40.965 27.3685 -0.435005
476 2 42.9234 27.4723 1.12338 42.9234 27.4723 1.12338
477 2 42.8066 27.2622 -2.1299 42.8066 27.2622 -2.1299
478 1 43.8142 29.0091 -0.643985 43.8142 29.0091 -0.643985
479 2 45.7549 29.1035 0.937278 45.7549 29.1035 0.937278
480 2 45.6754 28.9122 -2.31816 45.6754 28.9122 -2.31816
481 1 46.6661 27.363 -0.616807 46.6661 27.363 -0.616807
482 2 48.5907 27.4598 0.984006 48.5907 27.4598 0.984006
483 2 48.544 27.263 -2.27179 48.544 27.263 -2.27179
484 1 49.518 29.0043 -0.757325 49.518 29.0043 -0.757325
485 2 51.4152 29.0882 0.876854 51.4152 29.0882 0.876854
486 2 51.4242 28.918 -2.38063 51.4242 28.918 -2.38063
487 1 1.06374 30.6477 -0.835729 1.06374 30.6477 -0.835729
488 2 2.93195 30.7124 0.832502 2.93195 30.7124 0.832502
489 2 2.99849 30.5816 -2.42607 2.99849 30.5816 -2.42607
490 1 3.91617 32.2931 -0.843915 3.91617 32.2931 -0.843915
491 2 5.75894 32.3347 0.853015 5.75894 32.3347 0.853015
492 2 5.87464 32.2508 -2.40577 5.87464 32.2508 -2.40577
493 1 6.76702 30.6467 -0.700291 6.76702 30.6467 -0.700291
494 2 8.59658 30.7077 1.01002 8.59658 30.7077 1.01002
495 2 8.73691 30.5855 -2.24674 8.73691 30.5855 -2.24674
496 1 9.61673 32.2931 -0.639607 9.61673 32.2931 -0.639607
497 2 11.4392 32.3345 1.07839 11.4392 32.3345 1.07839
498 2 11.5924 32.2521 -2.17921 11.5924 32.2521 -2.17921
499 1 12.4654 30.648 -0.464347 12.4654 30.648 -0.464347
500 2 14.292 30.714 1.24811 14.292 30.714 1.24811
501 2 14.4368 30.5832 -2.00842 14.4368 30.5832 -2.00842
502 1 15.3141 32.2947 -0.404374 15.3141 32.2947 -0.404374
503 2 17.1561 32.3451 1.29137 17.1561 32.3451 1.29137
504 2 17.2707 32.2457 -1.96764 17.2707 32.2457 -1.96764
505 1 18.1633 30.651 -0.254917 18.1633 30.651 -0.254917
506 2 20.0232 30.7287 1.42007 20.0232 30.7287 1.42007
507 2 20.1032 30.5755 -1.8379 20.1032 30.5755 -1.8379
508 1 21.013 32.2974 -0.263361 21.013 32.2974 -0.263361
509 2 22.8991 32.3638 1.38218 22.8991 32.3638 1.38218
510 2 22.9272 32.2331 -1.87771 22.9272 32.2331 -1.87771
511 1 23.8637 30.6545 -0.173977 23.8637 30.6545 -0.173977
512 2 25.7692 30.7472 1.44796 25.7692 30.7472 1.44796
513 2 25.7589 30.5647 -1.80943 25.7589 30.5647 -1.80943
514 1 26.7134 32.3001 -0.276311 26.7134 32.3001 -0.276311
515 2 28.6424 32.3836 1.318 28.6424 32.3836 1.318
516 2 28.5845 32.2189 -1.93982 28.5845 32.2189 -1.93982
517 1 29.5643 30.6573 -0.244895 29.5643 30.6573 -0.244895
518 2 31.5075 30.7604 1.33134 31.5075 30.7604 1.33134
519 2 31.421 30.5562 -1.92347 31.421 30.5562 -1.92347
520 1 32.4126 32.3015 -0.424907 32.4126 32.3015 -0.424907
521 2 34.3677 32.3935 1.13743 34.3677 32.3935 1.13743
522 2 34.2569 32.2105 -2.11779 34.2569 32.2105 -2.11779
523 1 35.2634 30.6575 -0.430063 35.2634 30.6575 -0.430063
524 2 37.2238 30.7604 1.12527 37.2238 30.7604 1.12527
525 2 37.1024 30.5548 -2.12814 37.1024 30.5548 -2.12814
526 1 38.1113 32.3004 -0.641327 38.1113 32.3004 -0.641327
527 2 40.0669 32.3872 0.921439 40.0669 32.3872 0.921439
528 2 39.9562 32.213 -2.33404 39.9562 32.213 -2.33404
529 1 40.9626 30.6549 -0.650415 40.9626 30.6549 -0.650415
530 2 42.9131 30.747 0.918654 42.9131 30.747 0.918654
531 2 42.8132 30.5612 -2.33652 42.8132 30.5612 -2.33652
532 1 43.8127 32.2975 -0.832624 43.8127 32.2975 -0.832624
533 2 45.7431 32.3683 0.762671 45.7431 32.3683 0.762671
534 2 45.6854 32.2254 -2.49554 45.6854 32.2254 -2.49554
535 1 46.6653 30.6509 -0.810858 46.6653 30.6509 -0.810858
536 2 48.5814 30.7276 0.801368 48.5814 30.7276 0.801368
537 2 48.5526 30.5721 -2.45668 48.5526 30.5721 -2.45668
538 1 49.5179 32.2947 -0.915254 49.5179 32.2947 -0.915254
539 2 51.4053 32.3473 0.731775 51.4053 32.3473 0.731775
540 2 51.4345 32.2407 -2.52814 51.4345 32.2407 -2.52814
541 1 1.06401 33.9405 -0.944101 1.06401 33.9405 -0.944101