ITEM: TIMESTEP
43300
ITEM: NUMBER OF ATOMS
810
ITEM: BOX BOUNDS pp pp pp
8.1619130235009896e-01 5.2201413697651120e+01
7.6436192371236311e-01 5.0251853076286771e+01
-1.0000000000000000e+01 1.0000000000000000e+01
ITEM: ATOMS id type x y z xu yu zu
1 1 0.968011 0.98912 -0.327602 0.968011 0.98912 -0.327602
2 2 2.8284 0.991306 1.43666 2.8284 0.991306 1.43666
3 2 3.04324 50.4358 -1.83225 3.04324 0.948282 -1.83225
4 1 3.8698 2.63628 -0.226881 3.8698 2.63628 -0.226881
5 2 5.83977 2.64314 1.36246 5.83977 2.64314 1.36246
6 2 5.74679 2.61827 -1.84679 5.74679 2.61827 -1.84679
7 1 6.73163 1.00504 -0.319197 6.73163 1.00504 -0.319197
8 2 8.55499 1.10489 1.40765 8.55499 1.10489 1.40765
9 2 8.62132 0.795111 -1.86874 8.62132 0.795111 -1.86874
10 1 9.53092 2.58762 -0.343126 9.53092 2.58762 -0.343126
11 2 11.4266 2.447 1.32028 11.4266 2.447 1.32028
12 2 11.403 2.66207 -1.97693 11.403 2.66207 -1.97693
13 1 12.459 0.969832 -0.519809 12.459 0.969832 -0.519809
14 2 14.3778 1.13157 1.1423 14.3778 1.13157 1.1423
15 2 14.4831 50.2883 -2.10809 14.4831 0.800834 -2.10809
16 1 15.2757 2.71915 -0.667908 15.2757 2.71915 -0.667908
17 2 17.0503 2.62956 1.23674 17.0503 2.62956 1.23674
18 2 17.376 2.86944 -2.09684 17.376 2.86944 -2.09684
19 1 18.1358 1.08667 -0.414987 18.1358 1.08667 -0.414987
20 2 20.1296 50.4574 1.21781 20.1296 0.969904 1.21781
21 2 20.0508 1.17608 -2.08314 20.0508 1.17608 -2.08314
22 1 21.0906 2.72461 -0.423074 21.0906 2.72461 -0.423074
23 2 23.0534 2.4864 1.01976 23.0534 2.4864 1.01976
24 2 22.7856 2.84551 -2.29538 22.7856 2.84551 -2.29538
25 1 23.8471 0.985452 -0.80265 23.8471 0.985452 -0.80265
26 2 25.7507 0.808644 0.731283 25.7507 0.808644 0.731283
27 2 25.6412 1.17337 -2.47511 25.6412 1.17337 -2.47511
28 1 26.7108 2.61572 -0.755196 26.7108 2.61572 -0.755196
29 2 28.6255 2.44742 0.880805 28.6255 2.44742 0.880805
30 2 28.6324 2.85855 -2.31657 28.6324 2.85855 -2.31657
31 1 29.5416 0.942647 -0.92255 29.5416 0.942647 -0.92255
32 2 31.4083 50.3065 0.754627 31.4083 0.819029 0.754627
33 2 31.5201 1.01089 -2.43301 31.5201 1.01089 -2.43301
34 1 32.4377 2.57562 -0.680688 32.4377 2.57562 -0.680688
35 2 34.4688 2.65953 0.896116 34.4688 2.65953 0.896116
36 2 34.2022 2.65572 -2.39762 34.2022 2.65572 -2.39762
37 1 35.2933 1.00575 -0.780954 35.2933 1.00575 -0.780954
38 2 37.3108 50.4818 0.97628 37.3108 0.994313 0.97628
39 2 37.1598 0.947375 -2.4062 37.1598 0.947375 -2.4062
40 1 38.1456 2.64166 -0.730921 38.1456 2.64166 -0.730921
41 2 40.1531 2.5622 0.720244 40.1531 2.5622 0.720244
42 2 39.8116 2.5129 -2.61279 39.8116 2.5129 -2.61279
43 1 41.0154 0.966105 -0.992946 41.0154 0.966105 -0.992946
44 2 42.7098 1.02889 0.873159 42.7098 1.02889 0.873159
45 2 42.893 0.842759 -2.46383 42.893 0.842759 -2.46383
46 1 43.7478 2.57169 -0.834131 43.7478 2.57169 -0.834131
47 2 45.6646 2.66024 0.877744 45.6646 2.66024 0.877744
48 2 45.733 2.48411 -2.36592 45.733 2.48411 -2.36592
49 1 46.6714 0.971262 -0.642983 46.6714 0.971262 -0.642983
50 2 48.5241 1.11796 1.14621 48.5241 1.11796 1.14621
51 2 48.6098 0.98524 -2.16334 48.6098 0.98524 -2.16334
52 1 49.4768 2.6584 -0.508049 49.4768 2.6584 -0.508049
53 2 51.2761 2.58956 1.33712 51.2761 2.58956 1.33712
54 2 51.4295 2.67769 -2.09993 51.4295 2.67769 -2.09993
55 1 1.06 4.17784 -0.322251 1.06 4.17784 -0.322251
56 2 2.9444 4.34161 1.36337 2.9444 4.34161 1.36337
57 2 2.95396 4.27885 -1.89324 2.95396 4.27885 -1.89324
58 1 3.84854 5.93712 -0.265469 3.84854 5.93712 -0.265469
59 2 5.93306 5.92609 1.33037 5.93306 5.92609 1.33037
60 2 5.74706 6.07051 -1.88458 5.74706 6.07051 -1.88458
61 1 6.72776 4.20534 -0.287605 6.72776 4.20534 -0.287605
62 2 8.6861 4.09477 1.2929 8.6861 4.09477 1.2929
63 2 8.53159 4.31008 -1.98541 8.53159 4.31008 -1.98541
64 1 9.54229 5.8791 -0.333741 9.54229 5.8791 -0.333741
65 2 11.3294 5.99596 1.47278 11.3294 5.99596 1.47278
66 2 11.6203 6.09598 -1.78528 11.6203 6.09598 -1.78528
67 1 12.353 4.32879 -0.189923 12.353 4.32879 -0.189923
68 2 14.3094 4.03932 1.27439 14.3094 4.03932 1.27439
69 2 14.2969 4.72458 -1.92898 14.2969 4.72458 -1.92898
70 1 15.3064 5.90333 0.00292676 15.3064 5.90333 0.00292676
71 2 17.2168 5.88704 1.56783 17.2168 5.88704 1.56783
72 2 17.1505 6.09982 -1.67257 17.1505 6.09982 -1.67257
73 1 18.1545 4.30027 -0.234081 18.1545 4.30027 -0.234081
74 2 20.131 4.26079 1.24393 20.131 4.26079 1.24393
75 2 19.9723 4.41751 -1.97192 19.9723 4.41751 -1.97192
76 1 21.0003 5.99835 -0.279227 21.0003 5.99835 -0.279227
77 2 22.9333 5.89693 1.38916 22.9333 5.89693 1.38916
78 2 22.854 6.19502 -1.97711 22.854 6.19502 -1.97711
79 1 23.8691 4.33994 -0.52557 23.8691 4.33994 -0.52557
80 2 25.706 4.07758 1.19398 25.706 4.07758 1.19398
81 2 25.8289 4.46766 -2.12946 25.8289 4.46766 -2.12946
82 1 26.7448 5.95344 -0.275734 26.7448 5.95344 -0.275734
83 2 28.5213 5.69819 1.40324 28.5213 5.69819 1.40324
84 2 28.5758 6.0156 -1.83931 28.5758 6.0156 -1.83931
85 1 29.545 4.27941 -0.514181 29.545 4.27941 -0.514181
86 2 31.5225 4.0179 1.15653 31.5225 4.0179 1.15653
87 2 31.409 4.45486 -2.12667 31.409 4.45486 -2.12667
88 1 32.4866 5.89015 -0.297193 32.4866 5.89015 -0.297193
89 2 34.5679 5.72099 1.04841 34.5679 5.72099 1.04841
90 2 34.1801 6.20534 -2.08879 34.1801 6.20534 -2.08879
91 1 35.2718 4.25508 -0.858355 35.2718 4.25508 -0.858355
92 2 37.1996 4.22587 0.89665 37.1996 4.22587 0.89665
93 2 37.2395 4.21238 -2.39008 37.2395 4.21238 -2.39008
94 1 38.0328 5.92172 -0.563436 38.0328 5.92172 -0.563436
95 2 40.1625 5.69108 0.788727 40.1625 5.69108 0.788727
96 2 39.8219 5.97914 -2.45387 39.8219 5.97914 -2.45387
97 1 40.8178 4.19493 -1.07124 40.8178 4.19493 -1.07124
98 2 42.6456 4.16382 0.680037 42.6456 4.16382 0.680037
99 2 42.8313 4.19682 -2.54909 42.8313 4.19682 -2.54909
100 1 43.7213 5.82192 -0.842 43.7213 5.82192 -0.842
101 2 45.404 5.67594 0.848078 45.404 5.67594 0.848078
102 2 45.7245 6.07165 -2.33517 45.7245 6.07165 -2.33517
103 1 46.6441 4.20875 -0.843904 46.6441 4.20875 -0.843904
104 2 48.416 4.34531 0.936255 48.416 4.34531 0.936255
105 2 48.6499 4.27519 -2.23147 48.6499 4.27519 -2.23147
106 1 49.4658 5.92607 -0.605478 49.4658 5.92607 -0.605478
107 2 51.3004 5.89589 1.2243 51.3004 5.89589 1.2243
108 2 51.6071 5.9234 -2.0847 51.6071 5.9234 -2.0847
109 1 0.979304 7.49834 -0.313554 0.979304 7.49834 -0.313554
110 2 2.75769 7.55028 1.38768 2.75769 7.55028 1.38768
111 2 2.76213 7.62621 -1.87588 2.76213 7.62621 -1.87588
112 1 3.94447 9.17059 -0.154994 3.94447 9.17059 -0.154994
113 2 5.97391 9.22936 1.48457 5.97391 9.22936 1.48457
114 2 5.8081 9.30208 -1.8132 5.8081 9.30208 -1.8132
115 1 6.81169 7.53085 -0.275386 6.81169 7.53085 -0.275386
116 2 8.57754 7.32042 1.46458 8.57754 7.32042 1.46458
117 2 8.81086 7.7244 -1.78576 8.81086 7.7244 -1.78576
118 1 9.53624 9.17401 0.151179 9.53624 9.17401 0.151179
119 2 11.555 9.2181 1.7111 11.555 9.2181 1.7111
120 2 11.3862 9.24072 -1.47972 11.3862 9.24072 -1.47972
121 1 12.4193 7.59709 0.0603519 12.4193 7.59709 0.0603519
122 2 14.2902 7.29056 1.68593 14.2902 7.29056 1.68593
123 2 14.3434 7.7735 -1.56977 14.3434 7.7735 -1.56977
124 1 15.3003 9.17419 0.262702 15.3003 9.17419 0.262702
125 2 17.3086 9.26088 1.81655 17.3086 9.26088 1.81655
126 2 17.0721 9.31915 -1.5028 17.0721 9.31915 -1.5028
127 1 18.1545 7.67421 0.0404474 18.1545 7.67421 0.0404474
128 2 20.1547 7.59151 1.60048 20.1547 7.59151 1.60048
129 2 19.8919 7.7799 -1.61866 19.8919 7.7799 -1.61866
130 1 20.9864 9.28836 0.0209979 20.9864 9.28836 0.0209979
131 2 22.9476 9.20972 1.54749 22.9476 9.20972 1.54749
132 2 22.7983 9.4201 -1.65745 22.7983 9.4201 -1.65745
133 1 23.9143 7.61387 -0.149131 23.9143 7.61387 -0.149131
134 2 25.7481 7.36266 1.55841 25.7481 7.36266 1.55841
135 2 25.8064 7.75834 -1.76866 25.8064 7.75834 -1.76866
136 1 26.693 9.18593 0.177354 26.693 9.18593 0.177354
137 2 28.7045 9.14686 1.65958 28.7045 9.14686 1.65958
138 2 28.4602 9.14705 -1.55392 28.4602 9.14705 -1.55392
139 1 29.5587 7.50658 -0.0260219 29.5587 7.50658 -0.0260219
140 2 31.6216 7.51754 1.45552 31.6216 7.51754 1.45552
141 2 31.3524 7.64371 -1.73586 31.3524 7.64371 -1.73586
142 1 32.3853 9.26984 -0.204259 32.3853 9.26984 -0.204259
143 2 34.1409 9.13619 1.42646 34.1409 9.13619 1.42646
144 2 34.2648 9.58023 -1.87603 34.2648 9.58023 -1.87603
145 1 35.2312 7.62295 -0.390762 35.2312 7.62295 -0.390762
146 2 37.1183 7.48892 1.25609 37.1183 7.48892 1.25609
147 2 37.1251 7.68961 -2.02696 37.1251 7.68961 -2.02696
148 1 38.0369 9.25073 -0.33762 38.0369 9.25073 -0.33762
149 2 40.0376 8.99957 1.09479 40.0376 8.99957 1.09479
150 2 39.8315 9.40769 -2.12353 39.8315 9.40769 -2.12353
151 1 40.86 7.52122 -0.793979 40.86 7.52122 -0.793979
152 2 42.6913 7.36006 0.987387 42.6913 7.36006 0.987387
153 2 42.8426 7.67643 -2.33354 42.8426 7.67643 -2.33354
154 1 43.7283 9.19454 -0.513125 43.7283 9.19454 -0.513125
155 2 45.4909 8.8574 1.20974 45.4909 8.8574 1.20974
156 2 45.8528 9.31767 -1.9716 45.8528 9.31767 -1.9716
157 1 46.6056 7.45513 -0.57393 46.6056 7.45513 -0.57393
158 2 48.5012 7.41183 1.09847 48.5012 7.41183 1.09847
159 2 48.5892 7.6497 -2.18715 48.5892 7.6497 -2.18715
160 1 49.5059 9.18569 -0.434432 49.5059 9.18569 -0.434432
161 2 51.3664 9.0666 1.26588 51.3664 9.0666 1.26588
162 2 51.5058 9.27157 -1.93121 51.5058 9.27157 -1.93121
163 1 1.03058 10.7898 -0.328346 1.03058 10.7898 -0.328346
164 2 2.83445 10.8662 1.38493 2.83445 10.8662 1.38493
165 2 3.0083 10.7811 -1.89942 3.0083 10.7811 -1.89942
166 1 3.8751 12.4501 -0.330713 3.8751 12.4501 -0.330713
167 2 5.7348 12.475 1.41403 5.7348 12.475 1.41403
168 2 5.88496 12.6457 -1.92092 5.88496 12.6457 -1.92092
169 1 6.67309 10.9069 -0.194273 6.67309 10.9069 -0.194273
170 2 8.42809 11.082 1.65629 8.42809 11.082 1.65629
171 2 8.81436 10.8844 -1.52233 8.81436 10.8844 -1.52233
172 1 9.60044 12.5818 0.057495 9.60044 12.5818 0.057495
173 2 11.3907 12.5192 1.8217 11.3907 12.5192 1.8217
174 2 11.5288 12.5986 -1.46861 11.5288 12.5986 -1.46861
175 1 12.4287 10.854 0.118654 12.4287 10.854 0.118654
176 2 14.2981 10.7528 1.80404 14.2981 10.7528 1.80404
177 2 14.4659 10.8261 -1.33759 14.4659 10.8261 -1.33759
178 1 15.2496 12.5366 0.279064 15.2496 12.5366 0.279064
179 2 17.2565 12.4368 1.84785 17.2565 12.4368 1.84785
180 2 17.1217 12.6379 -1.42746 17.1217 12.6379 -1.42746
181 1 18.0827 10.8764 0.0540052 18.0827 10.8764 0.0540052
182 2 20.0867 10.8294 1.62541 20.0867 10.8294 1.62541
183 2 20.0068 10.8406 -1.57327 20.0068 10.8406 -1.57327
184 1 20.9126 12.5524 0.0161373 20.9126 12.5524 0.0161373
185 2 22.7742 12.4376 1.71189 22.7742 12.4376 1.71189
186 2 22.9141 12.7301 -1.47207 22.9141 12.7301 -1.47207
187 1 23.8746 10.9303 -0.00307641 23.8746 10.9303 -0.00307641
188 2 25.6609 10.9485 1.77071 25.6609 10.9485 1.77071
189 2 25.7992 10.7872 -1.48489 25.7992 10.7872 -1.48489
190 1 26.6865 12.5836 0.132716 26.6865 12.5836 0.132716
191 2 28.4684 12.3224 1.82121 28.4684 12.3224 1.82121
192 2 28.6491 12.8393 -1.39285 28.6491 12.8393 -1.39285
193 1 29.5406 10.9116 0.0487884 29.5406 10.9116 0.0487884
194 2 31.5207 10.9118 1.56173 31.5207 10.9118 1.56173
195 2 31.1786 10.9746 -1.64927 31.1786 10.9746 -1.64927
196 1 32.2771 12.632 -0.0441723 32.2771 12.632 -0.0441723
197 2 34.198 12.3836 1.62434 34.198 12.3836 1.62434
198 2 34.274 12.7263 -1.66571 34.274 12.7263 -1.66571
199 1 35.229 10.9444 -0.145155 35.229 10.9444 -0.145155
200 2 37.1029 10.7997 1.47487 37.1029 10.7997 1.47487
201 2 37.1978 11.0663 -1.82067 37.1978 11.0663 -1.82067
202 1 38.061 12.5456 0.028544 38.061 12.5456 0.028544
203 2 40.1858 12.3574 1.40868 40.1858 12.3574 1.40868
204 2 39.8637 12.6563 -1.74435 39.8637 12.6563 -1.74435
205 1 40.9953 10.807 -0.393792 40.9953 10.807 -0.393792
206 2 42.8511 10.7213 1.29634 42.8511 10.7213 1.29634
207 2 42.766 10.91 -2.09381 42.766 10.91 -2.09381
208 1 43.8173 12.4465 -0.266968 43.8173 12.4465 -0.266968
209 2 45.4948 12.2423 1.70504 45.4948 12.2423 1.70504
210 2 45.9043 12.4491 -1.67277 45.9043 12.4491 -1.67277
211 1 46.6498 10.7694 -0.0158052 46.6498 10.7694 -0.0158052
212 2 48.7957 10.5969 1.36642 48.7957 10.5969 1.36642
213 2 48.4573 10.9686 -1.81843 48.4573 10.9686 -1.81843
214 1 49.5952 12.4424 -0.126973 49.5952 12.4424 -0.126973
215 2 51.5233 12.3272 1.36617 51.5233 12.3272 1.36617
216 2 51.4185 12.6214 -1.70245 51.4185 12.6214 -1.70245
217 1 1.02869 14.112 -0.0459415 1.02869 14.112 -0.0459415
218 2 3.02563 14.1118 1.38357 3.02563 14.1118 1.38357
219 2 2.82205 14.0428 -1.76553 2.82205 14.0428 -1.76553
220 1 3.81498 15.7208 -0.31868 3.81498 15.7208 -0.31868
221 2 5.70959 15.9456 1.42921 5.70959 15.9456 1.42921
222 2 5.82628 15.696 -1.8157 5.82628 15.696 -1.8157
223 1 6.76769 14.2621 -0.0790274 6.76769 14.2621 -0.0790274
224 2 8.50073 14.1584 1.71357 8.50073 14.1584 1.71357
225 2 8.63884 14.2353 -1.68746 8.63884 14.2353 -1.68746
226 1 9.48606 15.9191 0.147615 9.48606 15.9191 0.147615
227 2 11.3908 15.8905 1.8403 11.3908 15.8905 1.8403
228 2 11.4932 15.7804 -1.42821 11.4932 15.7804 -1.42821
229 1 12.4794 14.1774 0.22533 12.4794 14.1774 0.22533
230 2 14.2924 14.2149 1.90795 14.2924 14.2149 1.90795
231 2 14.3388 14.2579 -1.3779 14.3388 14.2579 -1.3779
232 1 15.2879 15.9068 0.331692 15.2879 15.9068 0.331692
233 2 17.173 15.6929 1.95828 17.173 15.6929 1.95828
234 2 17.1874 15.8915 -1.27626 17.1874 15.8915 -1.27626
235 1 18.1499 14.2137 0.336599 18.1499 14.2137 0.336599
236 2 20.0699 13.9981 1.8915 20.0699 13.9981 1.8915
237 2 20.0537 14.4269 -1.40718 20.0537 14.4269 -1.40718
238 1 20.9877 15.847 0.492539 20.9877 15.847 0.492539
239 2 22.9122 15.7275 2.04128 22.9122 15.7275 2.04128
240 2 22.8035 15.9317 -1.14205 22.8035 15.9317 -1.14205
241 1 23.8294 14.1956 0.257604 23.8294 14.1956 0.257604
242 2 25.7009 14.02 1.86515 25.7009 14.02 1.86515
243 2 25.6923 14.3303 -1.35369 25.6923 14.3303 -1.35369
244 1 26.718 15.814 0.480401 26.718 15.814 0.480401
245 2 28.3848 15.7672 2.26957 28.3848 15.7672 2.26957
246 2 28.6405 16.0591 -1.02051 28.6405 16.0591 -1.02051
247 1 29.4821 14.2562 0.520671 29.4821 14.2562 0.520671
248 2 31.6224 13.9772 1.92893 31.6224 13.9772 1.92893
249 2 31.1549 14.4937 -1.35792 31.1549 14.4937 -1.35792
250 1 32.3762 15.8621 0.438494 32.3762 15.8621 0.438494
251 2 34.3903 15.6371 1.90936 34.3903 15.6371 1.90936
252 2 34.235 15.9365 -1.35287 34.235 15.9365 -1.35287
253 1 35.2006 14.0697 0.132488 35.2006 14.0697 0.132488
254 2 37.2742 14.0291 1.6407 37.2742 14.0291 1.6407
255 2 37.1161 14.1464 -1.48577 37.1161 14.1464 -1.48577
256 1 38.1008 15.8089 0.0904331 38.1008 15.8089 0.0904331
257 2 39.8762 15.5036 1.83635 39.8762 15.5036 1.83635
258 2 40.1108 15.9653 -1.38808 40.1108 15.9653 -1.38808
259 1 40.948 14.1137 -0.0177399 40.948 14.1137 -0.0177399
260 2 42.8662 13.8312 1.60423 42.8662 13.8312 1.60423
261 2 42.8148 14.2336 -1.66566 42.8148 14.2336 -1.66566
262 1 43.8062 15.6664 0.173171 43.8062 15.6664 0.173171
263 2 45.6751 15.6615 1.771 45.6751 15.6615 1.771
264 2 45.6875 15.5279 -1.4666 45.6875 15.5279 -1.4666
265 1 46.6385 13.9657 0.224806 46.6385 13.9657 0.224806
266 2 48.6928 13.896 1.6899 48.6928 13.896 1.6899
267 2 48.3976 14.2124 -1.55624 48.3976 14.2124 -1.55624
268 1 49.5078 15.7077 0.100874 49.5078 15.7077 0.100874
269 2 51.5225 15.9281 1.62558 51.5225 15.9281 1.62558
270 2 51.2909 15.5747 -1.70647 51.2909 15.5747 -1.70647
271 1 1.00769 17.3809 -0.195127 1.00769 17.3809 -0.195127
272 2 2.94922 17.3368 1.35512 2.94922 17.3368 1.35512
273 2 2.87727 17.512 -1.85 2.87727 17.512 -1.85
274 1 3.83387 19.0477 -0.197396 3.83387 19.0477 -0.197396
275 2 5.67683 18.9454 1.50023 5.67683 18.9454 1.50023
276 2 5.81208 19.3429 -1.73447 5.81208 19.3429 -1.73447
277 1 6.70853 17.5467 -0.260505 6.70853 17.5467 -0.260505
278 2 8.43393 17.5943 1.61844 8.43393 17.5943 1.61844
279 2 8.84781 17.5066 -1.71861 8.84781 17.5066 -1.71861
280 1 9.53086 19.1533 0.156553 9.53086 19.1533 0.156553
281 2 11.3911 19.1412 1.82577 11.3911 19.1412 1.82577
282 2 11.5537 19.277 -1.29694 11.5537 19.277 -1.29694
283 1 12.4798 17.5395 0.174845 12.4798 17.5395 0.174845
284 2 14.2656 17.5382 2.00476 14.2656 17.5382 2.00476
285 2 14.5078 17.6285 -1.26733 14.5078 17.6285 -1.26733
286 1 15.3582 19.2389 0.468281 15.3582 19.2389 0.468281
287 2 17.2795 19.2539 2.02122 17.2795 19.2539 2.02122
288 2 17.2341 19.1789 -1.21259 17.2341 19.1789 -1.21259
289 1 18.1965 17.4739 0.446833 18.1965 17.4739 0.446833
290 2 20.1626 17.4394 2.10429 20.1626 17.4394 2.10429
291 2 20.1735 17.4747 -1.15147 20.1735 17.4747 -1.15147
292 1 21.0901 19.1282 0.577497 21.0901 19.1282 0.577497
293 2 23.0059 19.0905 2.24687 23.0059 19.0905 2.24687
294 2 23.0089 19.2768 -1.06973 23.0089 19.2768 -1.06973
295 1 23.8221 17.4991 0.511807 23.8221 17.4991 0.511807
296 2 25.7568 17.3696 2.18838 25.7568 17.3696 2.18838
297 2 25.8726 17.4931 -1.15431 25.8726 17.4931 -1.15431
298 1 26.7232 19.0022 0.547123 26.7232 19.0022 0.547123
299 2 28.6025 19.1785 2.19796 28.6025 19.1785 2.19796
300 2 28.5591 18.9905 -1.04813 28.5591 18.9905 -1.04813
301 1 29.5379 17.5738 0.707857 29.5379 17.5738 0.707857
302 2 31.5266 17.3869 2.29554 31.5266 17.3869 2.29554
303 2 31.465 17.6299 -1.03572 31.465 17.6299 -1.03572
304 1 32.4527 19.1965 0.691168 32.4527 19.1965 0.691168
305 2 34.5497 19.121 2.08242 34.5497 19.121 2.08242
306 2 34.0428 19.2297 -1.18122 34.0428 19.2297 -1.18122
307 1 35.2783 17.4981 0.236874 35.2783 17.4981 0.236874
308 2 37.1597 17.28 1.90365 37.1597 17.28 1.90365
309 2 37.2011 17.6052 -1.42414 37.2011 17.6052 -1.42414
310 1 38.1165 19.0806 0.308063 38.1165 19.0806 0.308063
311 2 39.9488 19.1197 2.02617 39.9488 19.1197 2.02617
312 2 40.0305 19.0246 -1.26984 40.0305 19.0246 -1.26984
313 1 40.8952 17.3813 0.508945 40.8952 17.3813 0.508945
314 2 42.99 17.342 1.88539 42.99 17.342 1.88539
315 2 42.7695 17.4006 -1.35324 42.7695 17.4006 -1.35324
316 1 43.8301 18.9843 0.277019 43.8301 18.9843 0.277019
317 2 45.8775 19.0319 1.6859 45.8775 19.0319 1.6859
318 2 45.5449 18.9181 -1.53821 45.5449 18.9181 -1.53821
319 1 46.6614 17.3138 0.105981 46.6614 17.3138 0.105981
320 2 48.5998 17.4286 1.68981 48.5998 17.4286 1.68981
321 2 48.4598 17.3437 -1.5893 48.4598 17.3437 -1.5893
322 1 49.4742 19.0876 -0.0268119 49.4742 19.0876 -0.0268119
323 2 51.4743 19.1039 1.44793 51.4743 19.1039 1.44793
324 2 51.2523 19.0441 -1.81196 51.2523 19.0441 -1.81196
325 1 0.980699 20.6879 -0.184937 0.980699 20.6879 -0.184937
326 2 2.98038 20.8011 1.39839 2.98038 20.8011 1.39839
327 2 2.93832 20.7313 -1.8936 2.93832 20.7313 -1.8936
328 1 3.90447 22.3182 -0.309968 3.90447 22.3182 -0.309968
329 2 5.76646 22.5339 1.4953 5.76646 22.5339 1.4953
330 2 5.9801 22.2395 -1.70084 5.9801 22.2395 -1.70084
331 1 6.80016 20.7413 0.122473 6.80016 20.7413 0.122473
332 2 8.57421 20.7561 1.85789 8.57421 20.7561 1.85789
333 2 8.73108 20.784 -1.50401 8.73108 20.784 -1.50401
334 1 9.65659 22.447 0.277783 9.65659 22.447 0.277783
335 2 11.5218 22.6626 1.86853 11.5218 22.6626 1.86853
336 2 11.5636 22.4989 -1.34833 11.5636 22.4989 -1.34833
337 1 12.4575 20.8357 0.405525 12.4575 20.8357 0.405525
338 2 14.3686 20.9613 2.05744 14.3686 20.9613 2.05744
339 2 14.322 20.7197 -1.17711 14.322 20.7197 -1.17711
340 1 15.3642 22.4471 0.313711 15.3642 22.4471 0.313711
341 2 17.2921 22.4955 1.90119 17.2921 22.4955 1.90119
342 2 17.2585 22.3501 -1.34211 17.2585 22.3501 -1.34211
343 1 18.2746 20.8522 0.373905 18.2746 20.8522 0.373905
344 2 20.0935 20.896 2.10045 20.0935 20.896 2.10045
345 2 20.2195 20.8265 -1.1108 20.2195 20.8265 -1.1108
346 1 21.1001 22.4858 0.487132 21.1001 22.4858 0.487132
347 2 22.6537 22.3087 2.36682 22.6537 22.3087 2.36682
348 2 23.0973 22.4784 -0.949076 23.0973 22.4784 -0.949076
349 1 23.9215 20.7493 0.755513 23.9215 20.7493 0.755513
350 2 25.8132 20.7389 2.30375 25.8132 20.7389 2.30375
351 2 25.6616 20.6139 -1.04267 25.6616 20.6139 -1.04267
352 1 26.6385 22.3903 0.561092 26.6385 22.3903 0.561092
353 2 28.6365 22.5396 2.13919 28.6365 22.5396 2.13919
354 2 28.6231 22.4332 -1.199 28.6231 22.4332 -1.199
355 1 29.5468 20.7617 0.516335 29.5468 20.7617 0.516335
356 2 31.4422 20.9645 2.12489 31.4422 20.9645 2.12489
357 2 31.3563 20.6991 -1.19855 31.3563 20.6991 -1.19855
358 1 32.3749 22.436 0.174632 32.3749 22.436 0.174632
359 2 34.2272 22.4883 1.95138 34.2272 22.4883 1.95138
360 2 34.4755 22.4067 -1.40785 34.4755 22.4067 -1.40785
361 1 35.2358 20.7695 0.302071 35.2358 20.7695 0.302071
362 2 37.1591 20.6796 1.86698 37.1591 20.6796 1.86698
363 2 37.1787 20.7682 -1.28596 37.1787 20.7682 -1.28596
364 1 38.0801 22.4412 0.350225 38.0801 22.4412 0.350225
365 2 40.0699 22.4157 2.02202 40.0699 22.4157 2.02202
366 2 39.9435 22.4485 -1.24031 39.9435 22.4485 -1.24031
367 1 40.9333 20.6319 0.418367 40.9333 20.6319 0.418367
368 2 42.9379 20.5672 1.92581 42.9379 20.5672 1.92581
369 2 42.7841 20.606 -1.31295 42.7841 20.606 -1.31295
370 1 43.7753 22.2971 0.183896 43.7753 22.2971 0.183896
371 2 45.8621 22.2553 1.58871 45.8621 22.2553 1.58871
372 2 45.5907 22.5198 -1.53909 45.5907 22.5198 -1.53909
373 1 46.6104 20.6308 -0.130672 46.6104 20.6308 -0.130672
374 2 48.5298 20.7142 1.51922 48.5298 20.7142 1.51922
375 2 48.571 20.7158 -1.72406 48.571 20.7158 -1.72406
376 1 49.5428 22.3197 -0.105948 49.5428 22.3197 -0.105948
377 2 51.4865 22.3574 1.45669 51.4865 22.3574 1.45669
378 2 51.3092 22.2674 -1.81609 51.3092 22.2674 -1.81609
379 1 1.11525 23.9413 -0.161827 1.11525 23.9413 -0.161827
380 2 3.12701 23.7656 1.52856 3.12701 23.7656 1.52856
381 2 2.9952 24.1399 -1.79068 2.9952 24.1399 -1.79068
382 1 3.98977 25.6641 0.0852239 3.98977 25.6641 0.0852239
383 2 5.963 25.6912 1.649 5.963 25.6912 1.649
384 2 5.80586 25.8116 -1.55837 5.80586 25.8116 -1.55837
385 1 6.84052 24.0148 -0.107741 6.84052 24.0148 -0.107741
386 2 8.46646 24.2285 1.66957 8.46646 24.2285 1.66957
387 2 8.915 23.9934 -1.56215 8.915 23.9934 -1.56215
388 1 9.64832 25.754 0.0115974 9.64832 25.754 0.0115974
389 2 11.4621 25.8835 1.6798 11.4621 25.8835 1.6798
390 2 11.6314 25.7955 -1.61591 11.6314 25.7955 -1.61591
391 1 12.5183 24.1408 0.119424 12.5183 24.1408 0.119424
392 2 14.2715 24.2087 1.88163 14.2715 24.2087 1.88163
393 2 14.4542 24.0622 -1.46056 14.4542 24.0622 -1.46056
394 1 15.2852 25.7446 0.156279 15.2852 25.7446 0.156279
395 2 17.1809 25.7894 1.71247 17.1809 25.7894 1.71247
396 2 17.1591 25.7123 -1.46586 17.1591 25.7123 -1.46586
397 1 18.1673 24.1071 0.199354 18.1673 24.1071 0.199354
398 2 19.9522 24.1381 1.97922 19.9522 24.1381 1.97922
399 2 20.1306 23.9294 -1.31998 20.1306 23.9294 -1.31998
400 1 20.9998 25.7238 0.237686 20.9998 25.7238 0.237686
401 2 22.6708 25.9883 1.99954 22.6708 25.9883 1.99954
402 2 23.001 25.5111 -1.1305 23.001 25.5111 -1.1305
403 1 23.8138 24.1266 0.813828 23.8138 24.1266 0.813828
404 2 25.968 24.1448 2.22611 25.968 24.1448 2.22611
405 2 25.5218 24.0271 -1.01056 25.5218 24.0271 -1.01056
406 1 26.6669 25.6913 0.441102 26.6669 25.6913 0.441102
407 2 28.6465 25.7391 2.03487 28.6465 25.7391 2.03487
408 2 28.6052 25.6379 -1.29167 28.6052 25.6379 -1.29167
409 1 29.6151 24.0621 0.336232 29.6151 24.0621 0.336232
410 2 31.5416 24.0663 1.88824 31.5416 24.0663 1.88824
411 2 31.3561 24.1622 -1.37922 31.3561 24.1622 -1.37922
412 1 32.4118 25.7857 0.396141 32.4118 25.7857 0.396141
413 2 34.4821 25.6954 1.92479 34.4821 25.6954 1.92479
414 2 34.2627 25.7623 -1.27796 34.2627 25.7623 -1.27796
415 1 35.2521 24.0815 0.238636 35.2521 24.0815 0.238636
416 2 37.1229 24.1736 1.91381 37.1229 24.1736 1.91381
417 2 37.1619 24.0367 -1.31405 37.1619 24.0367 -1.31405
418 1 38.1797 25.7163 0.26156 38.1797 25.7163 0.26156
419 2 39.864 25.7657 1.93742 39.864 25.7657 1.93742
420 2 40.0208 25.8402 -1.32178 40.0208 25.8402 -1.32178
421 1 40.9982 24.0847 0.344412 40.9982 24.0847 0.344412
422 2 43.0066 23.982 1.92049 43.0066 23.982 1.92049
423 2 42.797 24.0487 -1.40378 42.797 24.0487 -1.40378
424 1 43.8442 25.7335 0.291402 43.8442 25.7335 0.291402
425 2 45.8288 25.6086 1.76693 45.8288 25.6086 1.76693
426 2 45.5626 25.792 -1.59485 45.5626 25.792 -1.59485
427 1 46.5857 24.0245 0.0293819 46.5857 24.0245 0.0293819
428 2 48.666 23.9378 1.53468 48.666 23.9378 1.53468
429 2 48.4743 23.9526 -1.68358 48.4743 23.9526 -1.68358
430 1 49.6266 25.5246 -0.226479 49.6266 25.5246 -0.226479
431 2 51.4056 25.5196 1.44857 51.4056 25.5196 1.44857
432 2 51.6518 25.7607 -1.71444 51.6518 25.7607 -1.71444
433 1 1.07496 27.2895 -0.0065708 1.07496 27.2895 -0.0065708
434 2 2.96685 27.3648 1.63425 2.96685 27.3648 1.63425
435 2 3.05392 27.2704 -1.62441 3.05392 27.2704 -1.62441
436 1 3.96996 29.0093 0.037 3.96996 29.0093 0.037
437 2 5.70841 28.9385 1.7416 5.70841 28.9385 1.7416
438 2 5.91564 29.2767 -1.54123 5.91564 29.2767 -1.54123
439 1 6.72157 27.4373 0.0555007 6.72157 27.4373 0.0555007
440 2 8.61091 27.4792 1.5742 8.61091 27.4792 1.5742
441 2 8.60592 27.3102 -1.62637 8.60592 27.3102 -1.62637
442 1 9.60395 29.0117 -0.163 9.60395 29.0117 -0.163
443 2 11.4662 29.1616 1.49684 11.4662 29.1616 1.49684
444 2 11.6422 28.9072 -1.75345 11.6422 28.9072 -1.75345
445 1 12.3916 27.3963 0.0427682 12.3916 27.3963 0.0427682
446 2 14.3126 27.4518 1.76849 14.3126 27.4518 1.76849
447 2 14.4211 27.2601 -1.5142 14.4211 27.2601 -1.5142
448 1 15.3718 29.0461 0.0814541 15.3718 29.0461 0.0814541
449 2 17.3002 29.274 1.65209 17.3002 29.274 1.65209
450 2 17.1997 28.9776 -1.6411 17.1997 28.9776 -1.6411
451 1 18.1846 27.4908 0.121117 18.1846 27.4908 0.121117
452 2 20.063 27.5307 1.74256 20.063 27.5307 1.74256
453 2 19.9228 27.1394 -1.47882 19.9228 27.1394 -1.47882
454 1 20.9704 28.9331 -0.144006 20.9704 28.9331 -0.144006
455 2 22.7919 29.099 1.56567 22.7919 29.099 1.56567
456 2 22.9963 28.6432 -1.6273 22.9963 28.6432 -1.6273
457 1 23.8612 27.3517 0.257351 23.8612 27.3517 0.257351
458 2 25.7516 27.4502 1.90722 25.7516 27.4502 1.90722
459 2 25.7316 27.1804 -1.33985 25.7316 27.1804 -1.33985
460 1 26.7174 28.9472 0.118237 26.7174 28.9472 0.118237
461 2 28.4479 29.2503 1.79769 28.4479 29.2503 1.79769
462 2 28.5399 28.7956 -1.54197 28.5399 28.7956 -1.54197
463 1 29.5177 27.3955 0.280233 29.5177 27.3955 0.280233
464 2 31.4208 27.5498 1.85297 31.4208 27.5498 1.85297
465 2 31.4503 27.2463 -1.37305 31.4503 27.2463 -1.37305
466 1 32.4402 29.0626 0.0643336 32.4402 29.0626 0.0643336
467 2 34.3928 29.3556 1.66516 34.3928 29.3556 1.66516
468 2 34.3133 28.8869 -1.55701 34.3133 28.8869 -1.55701
469 1 35.2589 27.4597 0.353219 35.2589 27.4597 0.353219
470 2 37.3345 27.6024 1.73193 37.3345 27.6024 1.73193
471 2 37.0617 27.266 -1.48763 37.0617 27.266 -1.48763
472 1 38.1579 29.1345 -0.101914 38.1579 29.1345 -0.101914
473 2 39.7793 29.3597 1.79975 39.7793 29.3597 1.79975
474 2 40.2471 28.8478 -1.52043 40.2471 28.8478 -1.52043
475 1 40.9072 27.4356 0.444026 40.9072 27.4356 0.444026
476 2 42.9843 27.595 1.896 42.9843 27.595 1.896
477 2 42.6458 27.2618 -1.27978 42.6458 27.2618 -1.27978
478 1 43.7867 29.0651 0.133191 43.7867 29.0651 0.133191
479 2 45.7045 28.9563 1.69185 45.7045 28.9563 1.69185
480 2 45.6569 28.9285 -1.56492 45.6569 28.9285 -1.56492
481 1 46.6902 27.2329 0.023488 46.6902 27.2329 0.023488
482 2 48.6619 27.0457 1.63467 48.6619 27.0457 1.63467
483 2 48.4865 27.3261 -1.71831 48.4865 27.3261 -1.71831
484 1 49.5229 28.9114 0.126335 49.5229 28.9114 0.126335
485 2 51.5229 28.8948 1.59377 51.5229 28.8948 1.59377
486 2 51.4714 28.9891 -1.55487 51.4714 28.9891 -1.55487
487 1 1.09115 30.6245 -0.0796362 1.09115 30.6245 -0.0796362
488 2 2.91755 30.5628 1.71249 2.91755 30.5628 1.71249
489 2 3.08118 30.6695 -1.62688 3.08118 30.6695 -1.62688
490 1 3.88111 32.2778 0.10377 3.88111 32.2778 0.10377
491 2 5.69652 32.4528 1.7826 5.69652 32.4528 1.7826
492 2 5.82405 32.3372 -1.43004 5.82405 32.3372 -1.43004
493 1 6.79011 30.7266 0.290075 6.79011 30.7266 0.290075
494 2 8.82798 30.753 1.62525 8.82798 30.753 1.62525
495 2 8.46084 30.5794 -1.64764 8.46084 30.5794 -1.64764
496 1 9.5886 32.3191 -0.147343 9.5886 32.3191 -0.147343
497 2 11.516 32.3808 1.56241 11.516 32.3808 1.56241
498 2 11.4448 32.2034 -1.80495 11.4448 32.2034 -1.80495
499 1 12.4378 30.6912 -0.096311 12.4378 30.6912 -0.096311
500 2 14.4657 30.9381 1.49308 14.4657 30.9381 1.49308
501 2 14.4771 30.5913 -1.71586 14.4771 30.5913 -1.71586
502 1 15.3344 32.3669 -0.227889 15.3344 32.3669 -0.227889
503 2 17.2281 32.5506 1.36379 17.2281 32.5506 1.36379
504 2 17.2383 32.217 -1.92027 17.2383 32.217 -1.92027
505 1 18.1967 30.7756 -0.168406 18.1967 30.7756 -0.168406
506 2 20.1436 30.7334 1.37383 20.1436 30.7334 1.37383
507 2 20.0862 30.5328 -1.86462 20.0862 30.5328 -1.86462
508 1 21.0665 32.2461 -0.390719 21.0665 32.2461 -0.390719
509 2 22.7989 32.4781 1.27069 22.7989 32.4781 1.27069
510 2 23.0842 32.183 -2.00151 23.0842 32.183 -2.00151
511 1 23.8648 30.5248 -0.204458 23.8648 30.5248 -0.204458
512 2 25.8157 30.7073 1.55478 25.8157 30.7073 1.55478
513 2 25.9152 30.4615 -1.79892 25.9152 30.4615 -1.79892
514 1 26.7025 32.3523 -0.285497 26.7025 32.3523 -0.285497
515 2 28.5804 32.6149 1.42349 28.5804 32.6149 1.42349
516 2 28.691 32.2581 -1.87247 28.691 32.2581 -1.87247
517 1 29.5566 30.6431 -0.0544564 29.5566 30.6431 -0.0544564
518 2 31.592 30.9929 1.37108 31.592 30.9929 1.37108
519 2 31.4298 30.3235 -1.74067 31.4298 30.3235 -1.74067
520 1 32.4355 32.3326 -0.565443 32.4355 32.3326 -0.565443
521 2 34.1492 32.3829 1.22143 34.1492 32.3829 1.22143
522 2 34.4606 32.2854 -2.0667 34.4606 32.2854 -2.0667
523 1 35.2921 30.7183 -0.246789 35.2921 30.7183 -0.246789
524 2 37.2381 30.8951 1.37137 37.2381 30.8951 1.37137
525 2 37.2334 30.6222 -1.83875 37.2334 30.6222 -1.83875
526 1 38.1748 32.3215 -0.346745 38.1748 32.3215 -0.346745
527 2 40.0442 32.6204 1.34699 40.0442 32.6204 1.34699
528 2 40.1667 32.0919 -1.77463 40.1667 32.0919 -1.77463
529 1 41.0348 30.6555 0.0863704 41.0348 30.6555 0.0863704
530 2 42.8462 30.9318 1.74344 42.8462 30.9318 1.74344
531 2 42.9137 30.5888 -1.5429 42.9137 30.5888 -1.5429
532 1 43.8659 32.454 -0.0888178 43.8659 32.454 -0.0888178
533 2 45.708 32.3404 1.54542 45.708 32.3404 1.54542
534 2 45.7869 32.1318 -1.76319 45.7869 32.1318 -1.76319
535 1 46.6079 30.5059 -0.0322859 46.6079 30.5059 -0.0322859
536 2 48.5499 30.67 1.66246 48.5499 30.67 1.66246
537 2 48.5187 30.4712 -1.60488 48.5187 30.4712 -1.60488
538 1 49.575 32.2229 0.00581371 49.575 32.2229 0.00581371
539 2 51.4877 32.3369 1.57536 51.4877 32.3369 1.57536
540 2 51.479 32.2078 -1.68109 51.479 32.2078 -1.68109