ITEM: TIMESTEP
31000
ITEM: NUMBER OF ATOMS
810
ITEM: BOX BOUNDS pp pp pp
8.2712182943142631e-01 5.2190483170569379e+01
7.6128794468111982e-01 5.0254927055318241e+01
-1.0000000000000000e+01 1.0000000000000000e+01
ITEM: ATOMS id type x y z xu yu zu
1 1 0.991308 1.0165 0.274515 0.991308 1.0165 0.274515
2 2 2.99186 0.874214 1.76133 2.99186 0.874214 1.76133
3 2 2.75657 1.25273 -1.47056 2.75657 1.25273 -1.47056
4 1 3.90182 2.71629 0.187563 3.90182 2.71629 0.187563
5 2 5.86847 2.50459 1.58208 5.86847 2.50459 1.58208
6 2 5.57063 2.89247 -1.66035 5.57063 2.89247 -1.66035
7 1 6.63773 1.00206 -0.358285 6.63773 1.00206 -0.358285
8 2 8.6646 50.604 1.19476 8.6646 1.11037 1.19476
9 2 8.44899 1.03521 -2.13505 8.44899 1.03521 -2.13505
10 1 9.56181 2.68937 -0.540514 9.56181 2.68937 -0.540514
11 2 11.4344 2.40624 1.09786 11.4344 2.40624 1.09786
12 2 11.5467 2.79375 -2.10456 11.5467 2.79375 -2.10456
13 1 12.4071 0.997196 -0.630896 12.4071 0.997196 -0.630896
14 2 14.1618 0.927339 1.16074 14.1618 0.927339 1.16074
15 2 14.4169 1.17386 -2.02809 14.4169 1.17386 -2.02809
16 1 15.2636 2.65087 -0.218582 15.2636 2.65087 -0.218582
17 2 17.2935 2.57834 1.23225 17.2935 2.57834 1.23225
18 2 17.1053 2.53399 -1.94509 17.1053 2.53399 -1.94509
19 1 18.0974 0.969888 -0.354242 18.0974 0.969888 -0.354242
20 2 20.0873 0.9758 1.13272 20.0873 0.9758 1.13272
21 2 19.9265 0.870589 -2.09145 19.9265 0.870589 -2.09145
22 1 20.9308 2.57854 -0.570221 20.9308 2.57854 -0.570221
23 2 22.779 2.63853 1.18174 22.779 2.63853 1.18174
24 2 23.0583 2.54591 -2.1097 23.0583 2.54591 -2.1097
25 1 23.8076 0.965421 -0.329654 23.8076 0.965421 -0.329654
26 2 25.6359 0.889501 1.26992 25.6359 0.889501 1.26992
27 2 25.8321 1.07867 -1.99441 25.8321 1.07867 -1.99441
28 1 26.6919 2.65447 -0.36119 26.6919 2.65447 -0.36119
29 2 28.4438 2.51551 1.40022 28.4438 2.51551 1.40022
30 2 28.716 2.71472 -1.83424 28.716 2.71472 -1.83424
31 1 29.6093 1.00775 -0.266493 29.6093 1.00775 -0.266493
32 2 31.3301 0.905794 1.38022 31.3301 0.905794 1.38022
33 2 31.5801 1.05363 -1.78191 31.5801 1.05363 -1.78191
34 1 32.4289 2.66165 -0.186928 32.4289 2.66165 -0.186928
35 2 34.2606 2.6344 1.5283 34.2606 2.6344 1.5283
36 2 34.467 2.75536 -1.75079 34.467 2.75536 -1.75079
37 1 35.31 0.989691 -0.129435 35.31 0.989691 -0.129435
38 2 37.0894 0.902522 1.68231 37.0894 0.902522 1.68231
39 2 37.2282 1.17022 -1.68736 37.2282 1.17022 -1.68736
40 1 38.0313 2.66945 0.151726 38.0313 2.66945 0.151726
41 2 39.9505 2.53617 1.88405 39.9505 2.53617 1.88405
42 2 40.152 2.66994 -1.35184 40.152 2.66994 -1.35184
43 1 40.9787 1.02457 0.230326 40.9787 1.02457 0.230326
44 2 42.7514 50.4672 1.89596 42.7514 0.973522 1.89596
45 2 42.9176 1.0024 -1.2751 42.9176 1.0024 -1.2751
46 1 43.87 2.52891 0.307607 43.87 2.52891 0.307607
47 2 45.6734 2.38666 2.08594 45.6734 2.38666 2.08594
48 2 45.883 2.81433 -1.10403 45.883 2.81433 -1.10403
49 1 46.68 0.951713 0.367221 46.68 0.951713 0.367221
50 2 48.684 50.3528 1.90135 48.684 0.859211 1.90135
51 2 48.5479 1.10874 -1.41553 48.5479 1.10874 -1.41553
52 1 49.5632 2.61397 0.421448 49.5632 2.61397 0.421448
53 2 51.4143 2.47483 2.08499 51.4143 2.47483 2.08499
54 2 51.6289 2.82671 -1.16802 51.6289 2.82671 -1.16802
55 1 1.06546 4.24712 0.723698 1.06546 4.24712 0.723698
56 2 3.22587 4.1205 2.18286 3.22587 4.1205 2.18286
57 2 2.84444 4.60604 -1.10693 2.84444 4.60604 -1.10693
58 1 3.86249 6.01665 0.654251 3.86249 6.01665 0.654251
59 2 6.0689 5.92532 1.83475 6.0689 5.92532 1.83475
60 2 5.45278 6.25278 -1.29487 5.45278 6.25278 -1.29487
61 1 6.7268 4.32995 -0.0927623 6.7268 4.32995 -0.0927623
62 2 8.81217 4.06237 1.33758 8.81217 4.06237 1.33758
63 2 8.49884 4.54227 -1.87817 8.49884 4.54227 -1.87817
64 1 9.60506 5.8996 -0.143464 9.60506 5.8996 -0.143464
65 2 11.4785 5.82279 1.55122 11.4785 5.82279 1.55122
66 2 11.4403 5.99262 -1.76133 11.4403 5.99262 -1.76133
67 1 12.3908 4.24037 -0.298335 12.3908 4.24037 -0.298335
68 2 14.3299 4.2916 1.25206 14.3299 4.2916 1.25206
69 2 14.2966 4.16167 -1.9829 14.2966 4.16167 -1.9829
70 1 15.3033 5.97153 -0.487217 15.3033 5.97153 -0.487217
71 2 17.1432 5.84956 1.20235 17.1432 5.84956 1.20235
72 2 17.2345 5.8903 -2.07283 17.2345 5.8903 -2.07283
73 1 18.1027 4.21428 -0.461382 18.1027 4.21428 -0.461382
74 2 20.0399 4.31514 1.13695 20.0399 4.31514 1.13695
75 2 19.9581 4.1636 -2.1186 19.9581 4.1636 -2.1186
76 1 20.9089 5.89455 -0.480168 20.9089 5.89455 -0.480168
77 2 22.733 5.8517 1.20375 22.733 5.8517 1.20375
78 2 22.9372 5.99229 -2.03288 22.9372 5.99229 -2.03288
79 1 23.8339 4.32906 -0.479336 23.8339 4.32906 -0.479336
80 2 25.5996 4.2131 1.23583 25.5996 4.2131 1.23583
81 2 25.8106 4.3716 -1.98776 25.8106 4.3716 -1.98776
82 1 26.6637 5.98003 -0.283327 26.6637 5.98003 -0.283327
83 2 28.5299 5.88309 1.48904 28.5299 5.88309 1.48904
84 2 28.7202 5.99214 -1.73346 28.7202 5.99214 -1.73346
85 1 29.5276 4.29175 -0.0344863 29.5276 4.29175 -0.0344863
86 2 31.4973 4.20722 1.634 31.4973 4.20722 1.634
87 2 31.5295 4.39285 -1.70441 31.5295 4.39285 -1.70441
88 1 32.3985 5.96427 0.101061 32.3985 5.96427 0.101061
89 2 34.2454 5.84361 1.86653 34.2454 5.84361 1.86653
90 2 34.2581 5.99021 -1.43076 34.2581 5.99021 -1.43076
91 1 35.2444 4.31382 0.0830524 35.2444 4.31382 0.0830524
92 2 37.2292 4.36275 1.77884 37.2292 4.36275 1.77884
93 2 37.1968 4.22045 -1.57396 37.1968 4.22045 -1.57396
94 1 38.1619 5.98074 0.108379 38.1619 5.98074 0.108379
95 2 39.8691 5.99203 1.90703 39.8691 5.99203 1.90703
96 2 40.2473 5.78912 -1.33889 40.2473 5.78912 -1.33889
97 1 41.0333 4.28753 0.399955 41.0333 4.28753 0.399955
98 2 42.8908 4.03188 2.04022 42.8908 4.03188 2.04022
99 2 42.9772 4.44709 -1.15213 42.9772 4.44709 -1.15213
100 1 43.9112 5.93428 0.595361 43.9112 5.93428 0.595361
101 2 45.723 5.92096 2.304 45.723 5.92096 2.304
102 2 45.8324 5.93643 -0.916641 45.8324 5.93643 -0.916641
103 1 46.7459 4.25504 0.793622 46.7459 4.25504 0.793622
104 2 48.6903 3.91782 2.44982 48.6903 3.91782 2.44982
105 2 48.5215 4.56692 -0.843876 48.5215 4.56692 -0.843876
106 1 49.5554 5.84095 1.08033 49.5554 5.84095 1.08033
107 2 51.5746 5.77858 2.43124 51.5746 5.77858 2.43124
108 2 51.3089 6.00453 -0.725277 51.3089 6.00453 -0.725277
109 1 1.03066 7.52159 0.906984 1.03066 7.52159 0.906984
110 2 3.01516 7.41483 2.47256 3.01516 7.41483 2.47256
111 2 2.88104 7.79538 -0.736498 2.88104 7.79538 -0.736498
112 1 3.87012 9.21244 1.02042 3.87012 9.21244 1.02042
113 2 6.09132 9.05337 2.26307 6.09132 9.05337 2.26307
114 2 5.50304 9.44645 -0.952289 5.50304 9.44645 -0.952289
115 1 6.71356 7.7098 0.245011 6.71356 7.7098 0.245011
116 2 8.67804 7.52697 1.73291 8.67804 7.52697 1.73291
117 2 8.49628 7.73613 -1.47476 8.49628 7.73613 -1.47476
118 1 9.55307 9.15591 0.143328 9.55307 9.15591 0.143328
119 2 11.4375 9.02673 1.74206 11.4375 9.02673 1.74206
120 2 11.3682 9.2884 -1.50763 11.3682 9.2884 -1.50763
121 1 12.4456 7.48952 0.074373 12.4456 7.48952 0.074373
122 2 14.5429 7.4662 1.33152 14.5429 7.4662 1.33152
123 2 14.0802 7.77715 -1.90004 14.0802 7.77715 -1.90004
124 1 15.1998 9.25241 -0.285274 15.1998 9.25241 -0.285274
125 2 17.1382 9.14464 1.33634 17.1382 9.14464 1.33634
126 2 17.1721 9.32579 -1.87743 17.1721 9.32579 -1.87743
127 1 18.1812 7.58015 -0.328507 18.1812 7.58015 -0.328507
128 2 20.0517 7.36611 1.35843 20.0517 7.36611 1.35843
129 2 20.0391 7.64805 -1.97594 20.0391 7.64805 -1.97594
130 1 21.0171 9.1511 -0.220501 21.0171 9.1511 -0.220501
131 2 22.9554 9.20155 1.35005 22.9554 9.20155 1.35005
132 2 23.0149 9.39113 -1.87701 23.0149 9.39113 -1.87701
133 1 23.8016 7.56782 -0.309945 23.8016 7.56782 -0.309945
134 2 25.5736 7.48893 1.37093 25.5736 7.48893 1.37093
135 2 25.7553 7.77093 -1.78093 25.7553 7.77093 -1.78093
136 1 26.6601 9.27237 -0.106739 26.6601 9.27237 -0.106739
137 2 28.4993 9.22069 1.55979 28.4993 9.22069 1.55979
138 2 28.4825 9.18617 -1.6578 28.4825 9.18617 -1.6578
139 1 29.5359 7.62917 0.0199436 29.5359 7.62917 0.0199436
140 2 31.3912 7.39037 1.77155 31.3912 7.39037 1.77155
141 2 31.3725 7.6365 -1.58038 31.3725 7.6365 -1.58038
142 1 32.4397 9.16473 0.251531 32.4397 9.16473 0.251531
143 2 34.3077 9.15297 1.98436 34.3077 9.15297 1.98436
144 2 34.494 9.23005 -1.26894 34.494 9.23005 -1.26894
145 1 35.2372 7.50462 0.398913 35.2372 7.50462 0.398913
146 2 37.1548 7.37504 1.93217 37.1548 7.37504 1.93217
147 2 37.2279 7.7252 -1.28767 37.2279 7.7252 -1.28767
148 1 38.176 9.21883 0.598659 38.176 9.21883 0.598659
149 2 40.1762 9.31822 2.00063 40.1762 9.31822 2.00063
150 2 39.9971 9.32992 -1.23279 39.9971 9.32992 -1.23279
151 1 41.0524 7.6022 0.232234 41.0524 7.6022 0.232234
152 2 42.633 7.52036 2.09968 42.633 7.52036 2.09968
153 2 43.2043 7.68493 -1.12717 43.2043 7.68493 -1.12717
154 1 43.8632 9.24497 0.84711 43.8632 9.24497 0.84711
155 2 45.6669 9.12977 2.49784 45.6669 9.12977 2.49784
156 2 45.8556 9.24805 -0.735131 45.8556 9.24805 -0.735131
157 1 46.722 7.61889 0.819147 46.722 7.61889 0.819147
158 2 48.5125 7.60226 2.59407 48.5125 7.60226 2.59407
159 2 48.6517 7.45408 -0.715296 48.6517 7.45408 -0.715296
160 1 49.5094 9.17959 0.94539 49.5094 9.17959 0.94539
161 2 51.3822 9.02847 2.6176 51.3822 9.02847 2.6176
162 2 51.4955 9.37597 -0.690255 51.4955 9.37597 -0.690255
163 1 1.08134 10.807 1.17795 1.08134 10.807 1.17795
164 2 3.10169 10.7722 2.73174 3.10169 10.7722 2.73174
165 2 2.95616 10.8785 -0.580395 2.95616 10.8785 -0.580395
166 1 3.96215 12.4856 0.989575 3.96215 12.4856 0.989575
167 2 5.89948 12.274 2.57587 5.89948 12.274 2.57587
168 2 5.71683 12.7638 -0.709063 5.71683 12.7638 -0.709063
169 1 6.75634 10.8491 0.618979 6.75634 10.8491 0.618979
170 2 8.91998 10.5384 2.02278 8.91998 10.5384 2.02278
171 2 8.47991 11.0804 -1.16407 8.47991 11.0804 -1.16407
172 1 9.59215 12.4432 0.648935 9.59215 12.4432 0.648935
173 2 11.8539 12.2865 2.03671 11.8539 12.2865 2.03671
174 2 11.2897 12.5756 -1.21714 11.2897 12.5756 -1.21714
175 1 12.3605 10.7781 0.145528 12.3605 10.7781 0.145528
176 2 14.3425 10.7624 1.70956 14.3425 10.7624 1.70956
177 2 14.2525 10.9845 -1.55578 14.2525 10.9845 -1.55578
178 1 15.3498 12.4716 0.126417 15.3498 12.4716 0.126417
179 2 17.2759 12.4135 1.62728 17.2759 12.4135 1.62728
180 2 17.0687 12.6444 -1.6784 17.0687 12.6444 -1.6784
181 1 18.1578 10.8494 -0.252241 18.1578 10.8494 -0.252241
182 2 19.9827 10.7142 1.48802 19.9827 10.7142 1.48802
183 2 20.0636 10.9367 -1.8769 20.0636 10.9367 -1.8769
184 1 21.0422 12.4823 -0.193735 21.0422 12.4823 -0.193735
185 2 22.9599 12.5297 1.52778 22.9599 12.5297 1.52778
186 2 22.9416 12.5205 -1.82389 22.9416 12.5205 -1.82389
187 1 23.8179 10.9646 -0.144821 23.8179 10.9646 -0.144821
188 2 25.6843 10.8019 1.56702 25.6843 10.8019 1.56702
189 2 25.8175 10.9652 -1.74021 25.8175 10.9652 -1.74021
190 1 26.7882 12.5164 -0.0405499 26.7882 12.5164 -0.0405499
191 2 28.6581 12.5334 1.54814 28.6581 12.5334 1.54814
192 2 28.685 12.5053 -1.65746 28.685 12.5053 -1.65746
193 1 29.5661 10.8138 -0.0179204 29.5661 10.8138 -0.0179204
194 2 31.4552 10.7586 1.83294 31.4552 10.7586 1.83294
195 2 31.621 10.69 -1.43738 31.621 10.69 -1.43738
196 1 32.4266 12.3929 0.190026 32.4266 12.3929 0.190026
197 2 34.253 12.6735 1.96351 34.253 12.6735 1.96351
198 2 34.3452 12.4289 -1.29334 34.3452 12.4289 -1.29334
199 1 35.2717 10.845 0.458068 35.2717 10.845 0.458068
200 2 37.1443 10.8331 2.20038 37.1443 10.8331 2.20038
201 2 37.238 10.8962 -1.0709 37.238 10.8962 -1.0709
202 1 38.197 12.4918 0.536616 38.197 12.4918 0.536616
203 2 40.165 12.6002 1.98304 40.165 12.6002 1.98304
204 2 40.006 12.5122 -1.26003 40.006 12.5122 -1.26003
205 1 41.08 10.9649 0.360668 41.08 10.9649 0.360668
206 2 42.7819 10.95 2.28495 42.7819 10.95 2.28495
207 2 43.2147 10.9786 -0.986154 43.2147 10.9786 -0.986154
208 1 43.8789 12.6355 0.748974 43.8789 12.6355 0.748974
209 2 45.6796 12.3364 2.56337 45.6796 12.3364 2.56337
210 2 45.986 12.4392 -0.681509 45.986 12.4392 -0.681509
211 1 46.729 10.8178 0.9988 46.729 10.8178 0.9988
212 2 48.6183 10.8854 2.73041 48.6183 10.8854 2.73041
213 2 48.6621 10.9363 -0.637681 48.6621 10.9363 -0.637681
214 1 49.6404 12.5172 1.12401 49.6404 12.5172 1.12401
215 2 51.5257 12.5635 2.8252 51.5257 12.5635 2.8252
216 2 51.4842 12.5097 -0.495595 51.4842 12.5097 -0.495595
217 1 1.05688 14.1291 1.13671 1.05688 14.1291 1.13671
218 2 3.04615 14.1766 2.62531 3.04615 14.1766 2.62531
219 2 2.91409 14.1172 -0.610042 2.91409 14.1172 -0.610042
220 1 3.93559 15.7956 0.946362 3.93559 15.7956 0.946362
221 2 5.81188 15.8385 2.65372 5.81188 15.8385 2.65372
222 2 5.85655 15.7628 -0.573453 5.85655 15.7628 -0.573453
223 1 6.79247 14.141 1.15985 6.79247 14.141 1.15985
224 2 8.93718 14.0344 2.48175 8.93718 14.0344 2.48175
225 2 8.39877 14.3656 -0.707198 8.39877 14.3656 -0.707198
226 1 9.60819 15.8487 0.789401 9.60819 15.8487 0.789401
227 2 11.8619 15.9641 2.10227 11.8619 15.9641 2.10227
228 2 11.2102 15.7913 -1.08909 11.2102 15.7913 -1.08909
229 1 12.4241 14.1085 0.463917 12.4241 14.1085 0.463917
230 2 14.609 14.1961 1.75654 14.609 14.1961 1.75654
231 2 14.0781 14.1359 -1.41839 14.0781 14.1359 -1.41839
232 1 15.3298 15.7742 0.0419347 15.3298 15.7742 0.0419347
233 2 17.2758 15.8745 1.61859 17.2758 15.8745 1.61859
234 2 17.1612 15.6734 -1.61803 17.1612 15.6734 -1.61803
235 1 18.1457 14.1505 0.00111429 18.1457 14.1505 0.00111429
236 2 20.3035 13.9871 1.53584 20.3035 13.9871 1.53584
237 2 19.9259 14.1213 -1.67844 19.9259 14.1213 -1.67844
238 1 21.0519 15.755 -0.04569 21.0519 15.755 -0.04569
239 2 23.0507 15.7588 1.39715 23.0507 15.7588 1.39715
240 2 22.7601 15.7216 -1.84043 22.7601 15.7216 -1.84043
241 1 23.92 14.1556 -0.202084 23.92 14.1556 -0.202084
242 2 25.7229 14.1904 1.48863 25.7229 14.1904 1.48863
243 2 25.8098 14.0345 -1.72206 25.8098 14.0345 -1.72206
244 1 26.7407 15.845 -0.161417 26.7407 15.845 -0.161417
245 2 28.5799 15.8199 1.49491 28.5799 15.8199 1.49491
246 2 28.6914 15.7779 -1.75429 28.6914 15.7779 -1.75429
247 1 29.5997 14.1672 -0.0706854 29.5997 14.1672 -0.0706854
248 2 31.2763 14.0401 1.6847 31.2763 14.0401 1.6847
249 2 31.6075 14.0121 -1.50517 31.6075 14.0121 -1.50517
250 1 32.4662 15.7207 0.266056 32.4662 15.7207 0.266056
251 2 34.3507 15.7669 1.92198 34.3507 15.7669 1.92198
252 2 34.4053 15.6733 -1.37508 34.4053 15.6733 -1.37508
253 1 35.4007 14.1677 0.31358 35.4007 14.1677 0.31358
254 2 37.1891 14.2945 1.99426 37.1891 14.2945 1.99426
255 2 37.3531 14.0906 -1.17026 37.3531 14.0906 -1.17026
256 1 38.2627 15.9057 0.34163 38.2627 15.9057 0.34163
257 2 39.9962 15.694 2.08886 39.9962 15.694 2.08886
258 2 40.1746 16.0262 -1.17485 40.1746 16.0262 -1.17485
259 1 41.0399 14.1839 0.328922 41.0399 14.1839 0.328922
260 2 42.6694 14.2457 2.20751 42.6694 14.2457 2.20751
261 2 43.1675 14.1624 -1.02077 43.1675 14.1624 -1.02077
262 1 43.8253 15.8816 0.672204 43.8253 15.8816 0.672204
263 2 45.5126 15.827 2.53816 45.5126 15.827 2.53816
264 2 46.0894 15.7493 -0.659387 46.0894 15.7493 -0.659387
265 1 46.7428 14.1596 1.06592 46.7428 14.1596 1.06592
266 2 48.7643 14.1657 2.68466 48.7643 14.1657 2.68466
267 2 48.7165 14.0977 -0.549989 48.7165 14.0977 -0.549989
268 1 49.5687 15.8942 1.1271 49.5687 15.8942 1.1271
269 2 51.4546 15.8355 2.83646 51.4546 15.8355 2.83646
270 2 51.5755 15.8171 -0.453901 51.5755 15.8171 -0.453901
271 1 1.04201 17.4568 1.27201 1.04201 17.4568 1.27201
272 2 3.06662 17.381 2.76848 3.06662 17.381 2.76848
273 2 2.70453 17.496 -0.475729 2.70453 17.496 -0.475729
274 1 3.81293 19.1278 1.07438 3.81293 19.1278 1.07438
275 2 5.83298 19.1429 2.61025 5.83298 19.1429 2.61025
276 2 5.68574 19.1049 -0.626188 5.68574 19.1049 -0.626188
277 1 6.73474 17.5587 0.972223 6.73474 17.5587 0.972223
278 2 8.75832 17.3781 2.4874 8.75832 17.3781 2.4874
279 2 8.50245 17.5094 -0.698991 8.50245 17.5094 -0.698991
280 1 9.61016 19.1195 0.783817 9.61016 19.1195 0.783817
281 2 11.8401 19.139 1.94201 11.8401 19.139 1.94201
282 2 11.2231 19.0465 -1.24227 11.2231 19.0465 -1.24227
283 1 12.3692 17.49 0.234029 12.3692 17.49 0.234029
284 2 14.5759 17.5774 1.62712 14.5759 17.5774 1.62712
285 2 14.0367 17.2687 -1.60474 14.0367 17.2687 -1.60474
286 1 15.2295 19.0399 -0.288951 15.2295 19.0399 -0.288951
287 2 17.1521 19.0966 1.32422 17.1521 19.0966 1.32422
288 2 17.2229 18.8885 -1.8834 17.2229 18.8885 -1.8834
289 1 18.1897 17.4217 -0.176741 18.1897 17.4217 -0.176741
290 2 20.0138 17.4099 1.52909 20.0138 17.4099 1.52909
291 2 20.1457 17.4086 -1.754 20.1457 17.4086 -1.754
292 1 21.0883 19.0517 -0.0871968 21.0883 19.0517 -0.0871968
293 2 23.2498 19.2904 1.28877 23.2498 19.2904 1.28877
294 2 22.7715 18.9237 -2.00104 22.7715 18.9237 -2.00104
295 1 23.881 17.4222 -0.287156 23.881 17.4222 -0.287156
296 2 25.7493 17.4817 1.3901 25.7493 17.4817 1.3901
297 2 25.9138 17.4754 -1.86263 25.9138 17.4754 -1.86263
298 1 26.8196 19.0684 -0.309447 26.8196 19.0684 -0.309447
299 2 28.5407 19.1805 1.51853 28.5407 19.1805 1.51853
300 2 28.8131 19.0075 -1.8233 28.8131 19.0075 -1.8233
301 1 29.5591 17.4316 -0.0533185 29.5591 17.4316 -0.0533185
302 2 31.4363 17.5556 1.66591 31.4363 17.5556 1.66591
303 2 31.5944 17.2833 -1.57288 31.5944 17.2833 -1.57288
304 1 32.4872 19.0696 0.053598 32.4872 19.0696 0.053598
305 2 34.3239 19.1981 1.69458 34.3239 19.1981 1.69458
306 2 34.3505 18.8578 -1.57854 34.3505 18.8578 -1.57854
307 1 35.3031 17.4368 0.310199 35.3031 17.4368 0.310199
308 2 37.1971 17.5723 1.96481 37.1971 17.5723 1.96481
309 2 37.2442 17.5334 -1.30709 37.2442 17.5334 -1.30709
310 1 38.1394 19.2171 0.327085 38.1394 19.2171 0.327085
311 2 39.8508 19.2439 1.99686 39.8508 19.2439 1.99686
312 2 40.0653 18.9671 -1.23298 40.0653 18.9671 -1.23298
313 1 41.0863 17.5183 0.606769 41.0863 17.5183 0.606769
314 2 43.0185 17.6703 2.23254 43.0185 17.6703 2.23254
315 2 42.9066 17.5001 -1.04171 42.9066 17.5001 -1.04171
316 1 43.9394 19.2377 0.495575 43.9394 19.2377 0.495575
317 2 45.5052 19.2009 2.43651 45.5052 19.2009 2.43651
318 2 46.0252 19.1112 -0.836994 46.0252 19.1112 -0.836994
319 1 46.7325 17.4679 0.979935 46.7325 17.4679 0.979935
320 2 48.8028 17.6613 2.60278 48.8028 17.6613 2.60278
321 2 48.6002 17.3711 -0.63793 48.6002 17.3711 -0.63793
322 1 49.6029 19.118 0.810272 49.6029 19.118 0.810272
323 2 51.3145 19.2502 2.60276 51.3145 19.2502 2.60276
324 2 51.5773 19.0086 -0.592123 51.5773 19.0086 -0.592123
325 1 1.0332 20.8013 0.970346 1.0332 20.8013 0.970346
326 2 3.04045 20.9118 2.52326 3.04045 20.9118 2.52326
327 2 2.92154 20.6498 -0.720247 2.92154 20.6498 -0.720247
328 1 3.85715 22.4187 0.737061 3.85715 22.4187 0.737061
329 2 5.80279 22.6175 2.34333 5.80279 22.6175 2.34333
330 2 5.7236 22.2425 -0.916532 5.7236 22.2425 -0.916532
331 1 6.75758 20.7926 0.910338 6.75758 20.7926 0.910338
332 2 8.81056 20.9822 2.4257 8.81056 20.9822 2.4257
333 2 8.68759 20.7094 -0.900943 8.68759 20.7094 -0.900943
334 1 9.61102 22.4664 0.644721 9.61102 22.4664 0.644721
335 2 11.7886 22.4717 1.86064 11.7886 22.4717 1.86064
336 2 11.2977 22.3593 -1.39747 11.2977 22.3593 -1.39747
337 1 12.429 20.7673 0.0876058 12.429 20.7673 0.0876058
338 2 14.4912 20.5975 1.50516 14.4912 20.5975 1.50516
339 2 14.255 20.8733 -1.74184 14.255 20.8733 -1.74184
340 1 15.3351 22.3878 -0.0616876 15.3351 22.3878 -0.0616876
341 2 17.5521 22.4309 1.24471 17.5521 22.4309 1.24471
342 2 16.9943 22.387 -1.90927 16.9943 22.387 -1.90927
343 1 18.1846 20.6821 -0.393556 18.1846 20.6821 -0.393556
344 2 19.9598 20.8359 1.30612 19.9598 20.8359 1.30612
345 2 20.2323 20.6525 -1.87534 20.2323 20.6525 -1.87534
346 1 21.0051 22.3512 -0.334101 21.0051 22.3512 -0.334101
347 2 23.1294 22.3822 0.983666 23.1294 22.3822 0.983666
348 2 22.714 22.1733 -2.24772 22.714 22.1733 -2.24772
349 1 23.8839 20.6749 -0.703938 23.8839 20.6749 -0.703938
350 2 25.7002 20.6865 1.10838 25.7002 20.6865 1.10838
351 2 25.985 20.654 -2.11968 25.985 20.654 -2.11968
352 1 26.7884 22.2767 -0.402021 26.7884 22.2767 -0.402021
353 2 28.7035 22.5806 1.39956 28.7035 22.5806 1.39956
354 2 28.7668 22.1329 -1.83355 28.7668 22.1329 -1.83355
355 1 29.6204 20.656 -0.0430444 29.6204 20.656 -0.0430444
356 2 31.5121 20.8593 1.49473 31.5121 20.8593 1.49473
357 2 31.5217 20.5915 -1.75101 31.5217 20.5915 -1.75101
358 1 32.3942 22.4431 -0.334155 32.3942 22.4431 -0.334155
359 2 34.2535 22.3846 1.42951 34.2535 22.3846 1.42951
360 2 34.4191 22.5718 -1.76713 34.4191 22.5718 -1.76713
361 1 35.2807 20.7338 -0.176449 35.2807 20.7338 -0.176449
362 2 36.9942 21.0278 1.67003 36.9942 21.0278 1.67003
363 2 37.312 20.5924 -1.52081 37.312 20.5924 -1.52081
364 1 38.0067 22.5161 -0.0446117 38.0067 22.5161 -0.0446117
365 2 39.8699 22.5442 1.64506 39.8699 22.5442 1.64506
366 2 40.1181 22.3221 -1.61995 40.1181 22.3221 -1.61995
367 1 40.9641 20.7306 0.238558 40.9641 20.7306 0.238558
368 2 42.8202 20.9443 2.01756 42.8202 20.9443 2.01756
369 2 42.943 20.7287 -1.23995 42.943 20.7287 -1.23995
370 1 43.8292 22.4583 0.35651 43.8292 22.4583 0.35651
371 2 45.5251 22.7051 2.19945 45.5251 22.7051 2.19945
372 2 46.0464 22.3293 -1.02183 46.0464 22.3293 -1.02183
373 1 46.6799 20.7493 0.86666 46.6799 20.7493 0.86666
374 2 48.5793 20.6714 2.41956 48.5793 20.6714 2.41956
375 2 48.5679 20.7349 -0.813093 48.5679 20.7349 -0.813093
376 1 49.467 22.4077 0.873674 49.467 22.4077 0.873674
377 2 51.4937 22.7123 2.37314 51.4937 22.7123 2.37314
378 2 51.3522 22.206 -0.80824 51.3522 22.206 -0.80824
379 1 0.9531 24.1292 0.473362 0.9531 24.1292 0.473362
380 2 2.72437 24.2769 2.20401 2.72437 24.2769 2.20401
381 2 2.93046 23.8809 -1.08735 2.93046 23.8809 -1.08735
382 1 3.84195 25.716 0.431968 3.84195 25.716 0.431968
383 2 5.69923 25.9476 1.95588 5.69923 25.9476 1.95588
384 2 5.58927 25.4473 -1.37854 5.58927 25.4473 -1.37854
385 1 6.74498 24.06 0.526031 6.74498 24.06 0.526031
386 2 8.64018 24.4612 1.97495 8.64018 24.4612 1.97495
387 2 8.55345 23.6781 -1.20178 8.55345 23.6781 -1.20178
388 1 9.52141 25.6747 -0.106988 9.52141 25.6747 -0.106988
389 2 11.3474 25.7773 1.55436 11.3474 25.7773 1.55436
390 2 11.5733 25.499 -1.72754 11.5733 25.499 -1.72754
391 1 12.5382 24.0975 0.0295664 12.5382 24.0975 0.0295664
392 2 14.4901 24.1651 1.51792 14.4901 24.1651 1.51792
393 2 14.2554 23.9062 -1.74648 14.2554 23.9062 -1.74648
394 1 15.346 25.7113 -0.284152 15.346 25.7113 -0.284152
395 2 17.3202 25.7346 1.21697 17.3202 25.7346 1.21697
396 2 17.1637 25.7679 -2.02503 17.1637 25.7679 -2.02503
397 1 18.1644 24.0295 -0.454607 18.1644 24.0295 -0.454607
398 2 20.1643 24.2666 1.03453 20.1643 24.2666 1.03453
399 2 19.9671 23.8101 -2.09623 19.9671 23.8101 -2.09623
400 1 20.9716 25.7848 -0.829981 20.9716 25.7848 -0.829981
401 2 22.7372 25.5727 0.942311 22.7372 25.5727 0.942311
402 2 22.9062 25.8841 -2.41422 22.9062 25.8841 -2.41422
403 1 23.8331 23.9886 -0.766372 23.8331 23.9886 -0.766372
404 2 25.6449 24.1169 1.02688 25.6449 24.1169 1.02688
405 2 25.9655 23.9306 -2.20182 25.9655 23.9306 -2.20182
406 1 26.6753 25.666 -0.556 26.6753 25.666 -0.556
407 2 28.497 25.6708 1.0534 28.497 25.6708 1.0534
408 2 28.5152 25.4736 -2.19121 28.5152 25.4736 -2.19121
409 1 29.5119 24.0032 -0.43844 29.5119 24.0032 -0.43844
410 2 31.4391 24.0888 1.15475 31.4391 24.0888 1.15475
411 2 31.5489 23.934 -2.06272 31.5489 23.934 -2.06272
412 1 32.3695 25.819 -0.56564 32.3695 25.819 -0.56564
413 2 34.0204 25.7128 1.48758 34.0204 25.7128 1.48758
414 2 34.5783 25.7276 -1.80965 34.5783 25.7276 -1.80965
415 1 35.1309 24.122 -0.0372507 35.1309 24.122 -0.0372507
416 2 37.0661 24.0324 1.65869 37.0661 24.0324 1.65869
417 2 37.1398 24.1814 -1.53372 37.1398 24.1814 -1.53372
418 1 38.1544 25.7384 0.246911 38.1544 25.7384 0.246911
419 2 40.282 25.7469 1.65487 40.282 25.7469 1.65487
420 2 39.9575 25.6014 -1.53908 39.9575 25.6014 -1.53908
421 1 40.944 24.0715 0.0260831 40.944 24.0715 0.0260831
422 2 42.7649 24.2179 1.85982 42.7649 24.2179 1.85982
423 2 43.1208 24.1601 -1.36383 43.1208 24.1601 -1.36383
424 1 43.908 25.7503 0.309561 43.908 25.7503 0.309561
425 2 45.7026 25.8429 1.91693 45.7026 25.8429 1.91693
426 2 45.8178 25.614 -1.28665 45.8178 25.614 -1.28665
427 1 46.8003 24.1181 0.493289 46.8003 24.1181 0.493289
428 2 48.5564 24.2246 2.28734 48.5564 24.2246 2.28734
429 2 48.8026 23.9287 -1.01682 48.8026 23.9287 -1.01682
430 1 49.6025 25.7673 0.534184 49.6025 25.7673 0.534184
431 2 51.6977 25.9493 1.93148 51.6977 25.9493 1.93148
432 2 51.2429 25.4648 -1.37105 51.2429 25.4648 -1.37105
433 1 1.01622 27.313 -0.103381 1.01622 27.313 -0.103381
434 2 2.94017 27.7693 1.52711 2.94017 27.7693 1.52711
435 2 3.03348 26.8942 -1.63988 3.03348 26.8942 -1.63988
436 1 3.9059 29.0015 -0.405596 3.9059 29.0015 -0.405596
437 2 5.80494 29.2518 1.22604 5.80494 29.2518 1.22604
438 2 5.83818 28.7238 -1.8574 5.83818 28.7238 -1.8574
439 1 6.63275 27.3164 -0.0203773 6.63275 27.3164 -0.0203773
440 2 8.72741 27.4853 1.42469 8.72741 27.4853 1.42469
441 2 8.32372 27.1187 -1.78122 8.32372 27.1187 -1.78122
442 1 9.56721 28.9071 -0.472043 9.56721 28.9071 -0.472043
443 2 11.4554 29.2068 1.24296 11.4554 29.2068 1.24296
444 2 11.5606 28.8002 -1.96514 11.5606 28.8002 -1.96514
445 1 12.4365 27.3562 -0.111103 12.4365 27.3562 -0.111103
446 2 14.4737 27.395 1.27271 14.4737 27.395 1.27271
447 2 14.2633 27.2341 -1.84863 14.2633 27.2341 -1.84863
448 1 15.2603 28.9574 -0.446549 15.2603 28.9574 -0.446549
449 2 17.1801 29.176 1.18786 17.1801 29.176 1.18786
450 2 17.0666 29.0685 -2.09913 17.0666 29.0685 -2.09913
451 1 18.1382 27.4552 -0.443598 18.1382 27.4552 -0.443598
452 2 20.2473 27.3808 0.925221 20.2473 27.3808 0.925221
453 2 19.8169 27.5252 -2.30629 19.8169 27.5252 -2.30629
454 1 21.1128 29.1084 -0.688912 21.1128 29.1084 -0.688912
455 2 23.0328 29.1652 0.923878 23.0328 29.1652 0.923878
456 2 22.9304 28.8656 -2.36025 22.9304 28.8656 -2.36025
457 1 23.8499 27.3649 -0.523952 23.8499 27.3649 -0.523952
458 2 25.8578 27.3463 1.03337 25.8578 27.3463 1.03337
459 2 25.6985 27.1982 -2.26089 25.6985 27.1982 -2.26089
460 1 26.7167 29.0201 -0.664982 26.7167 29.0201 -0.664982
461 2 28.7713 29.0455 0.871741 28.7713 29.0455 0.871741
462 2 28.5513 28.8966 -2.42 28.5513 28.8966 -2.42
463 1 29.4979 27.3185 -0.739978 29.4979 27.3185 -0.739978
464 2 31.4174 27.6717 0.930886 31.4174 27.6717 0.930886
465 2 31.4764 27.2651 -2.36603 31.4764 27.2651 -2.36603
466 1 32.4661 29.0566 -0.869317 32.4661 29.0566 -0.869317
467 2 34.0696 29.4272 1.08574 34.0696 29.4272 1.08574
468 2 34.5948 28.8327 -2.08192 34.5948 28.8327 -2.08192
469 1 35.1929 27.3845 -0.0604495 35.1929 27.3845 -0.0604495
470 2 37.2002 27.6094 1.62516 37.2002 27.6094 1.62516
471 2 37.2545 27.1753 -1.62108 37.2545 27.1753 -1.62108
472 1 38.1975 29.0537 -0.262059 38.1975 29.0537 -0.262059
473 2 40.1509 29.1079 1.38708 40.1509 29.1079 1.38708
474 2 40.1389 28.7153 -1.85729 40.1389 28.7153 -1.85729
475 1 41.1369 27.2631 -0.00827794 41.1369 27.2631 -0.00827794
476 2 42.8598 27.3798 1.83535 42.8598 27.3798 1.83535
477 2 43.0603 27.3474 -1.47867 43.0603 27.3474 -1.47867
478 1 43.8535 29.0694 0.249401 43.8535 29.0694 0.249401
479 2 45.8643 29.3497 1.6651 45.8643 29.3497 1.6651
480 2 45.6447 28.7722 -1.53904 45.6447 28.7722 -1.53904
481 1 46.693 27.4442 0.234507 46.693 27.4442 0.234507
482 2 48.4884 27.7316 1.8126 48.4884 27.7316 1.8126
483 2 48.7144 27.116 -1.3721 48.7144 27.116 -1.3721
484 1 49.5471 29.0322 -0.150717 49.5471 29.0322 -0.150717
485 2 51.6131 29.2695 1.37255 51.6131 29.2695 1.37255
486 2 51.3515 28.8099 -1.89787 51.3515 28.8099 -1.89787
487 1 1.10915 30.6277 -0.60637 1.10915 30.6277 -0.60637
488 2 3.00219 30.8592 1.07797 3.00219 30.8592 1.07797
489 2 2.96096 30.4205 -2.26163 2.96096 30.4205 -2.26163
490 1 3.86624 32.3707 -0.77982 3.86624 32.3707 -0.77982
491 2 5.66437 32.4134 0.976567 5.66437 32.4134 0.976567
492 2 5.81681 32.337 -2.21255 5.81681 32.337 -2.21255
493 1 6.74993 30.5864 -0.476156 6.74993 30.5864 -0.476156
494 2 8.68958 30.4494 1.20556 8.68958 30.4494 1.20556
495 2 8.66238 30.5515 -2.09728 8.66238 30.5515 -2.09728
496 1 9.49355 32.2223 -0.409946 9.49355 32.2223 -0.409946
497 2 11.5399 32.5628 0.884712 11.5399 32.5628 0.884712
498 2 11.2053 32.0456 -2.27496 11.2053 32.0456 -2.27496
499 1 12.4252 30.6367 -0.484441 12.4252 30.6367 -0.484441
500 2 14.3598 30.6254 1.16213 14.3598 30.6254 1.16213
501 2 14.2106 30.5795 -2.19999 14.2106 30.5795 -2.19999
502 1 15.2071 32.2603 -0.615848 15.2071 32.2603 -0.615848
503 2 17.2528 32.4456 0.971306 17.2528 32.4456 0.971306
504 2 17.0231 32.2457 -2.36542 17.0231 32.2457 -2.36542
505 1 18.1563 30.7248 -0.544208 18.1563 30.7248 -0.544208
506 2 20.1163 30.8671 1.01021 20.1163 30.8671 1.01021
507 2 19.9884 30.688 -2.35537 19.9884 30.688 -2.35537
508 1 20.9448 32.4089 -0.856179 20.9448 32.4089 -0.856179
509 2 22.9566 32.4493 0.77308 22.9566 32.4493 0.77308
510 2 22.8835 32.1671 -2.48543 22.8835 32.1671 -2.48543
511 1 23.873 30.7327 -0.813452 23.873 30.7327 -0.813452
512 2 25.8055 31.0233 0.70333 25.8055 31.0233 0.70333
513 2 25.6557 30.5805 -2.47832 25.6557 30.5805 -2.47832
514 1 26.6702 32.3807 -1.15034 26.6702 32.3807 -1.15034
515 2 28.6551 32.4563 0.535338 28.6551 32.4563 0.535338
516 2 28.7163 32.1944 -2.67918 28.7163 32.1944 -2.67918
517 1 29.5243 30.6719 -0.901667 29.5243 30.6719 -0.901667
518 2 31.4467 30.7344 0.696928 31.4467 30.7344 0.696928
519 2 31.4671 30.6075 -2.54564 31.4671 30.6075 -2.54564
520 1 32.4665 32.322 -1.06381 32.4665 32.322 -1.06381
521 2 34.3366 32.4684 0.635757 34.3366 32.4684 0.635757
522 2 34.408 32.1363 -2.5508 34.408 32.1363 -2.5508
523 1 35.2881 30.6508 -0.68752 35.2881 30.6508 -0.68752
524 2 37.0439 30.8253 1.04008 37.0439 30.8253 1.04008
525 2 37.3288 30.577 -2.16909 37.3288 30.577 -2.16909
526 1 38.0815 32.3985 -0.711122 38.0815 32.3985 -0.711122
527 2 39.7955 32.2425 1.10159 39.7955 32.2425 1.10159
528 2 40.1927 32.2972 -2.13504 40.1927 32.2972 -2.13504
529 1 40.9865 30.5937 -0.387289 40.9865 30.5937 -0.387289
530 2 42.7037 30.961 1.45654 42.7037 30.961 1.45654
531 2 43.0838 30.3971 -1.71427 43.0838 30.3971 -1.71427
532 1 43.7893 32.2471 -0.315163 43.7893 32.2471 -0.315163
533 2 45.8436 32.5474 1.20488 45.8436 32.5474 1.20488
534 2 45.6967 32.0617 -2.09528 45.6967 32.0617 -2.09528
535 1 46.6067 30.641 -0.291817 46.6067 30.641 -0.291817
536 2 48.5156 30.812 1.31188 48.5156 30.812 1.31188
537 2 48.5929 30.4856 -1.86493 48.5929 30.4856 -1.86493
538 1 49.5004 32.2505 -0.389007 49.5004 32.2505 -0.389007
539 2 51.5118 32.362 1.03715 51.5118 32.362 1.03715
540 2 51.2358 32.2658 -2.22354 51.2358 32.2658 -2.22354