ITEM: TIMESTEP
81700
ITEM: NUMBER OF ATOMS
810
ITEM: BOX BOUNDS pp pp pp
7.5251180879386315e-01 5.2265093191206333e+01
8.0881437158505931e-01 5.0207400628414121e+01
-1.0000000000000000e+01 1.0000000000000000e+01
ITEM: ATOMS id type x y z xu yu zu
1 1 0.982834 1.03335 0.151822 0.982834 1.03335 0.151822
2 2 2.82496 1.06109 1.83695 2.82496 1.06109 1.83695
3 2 2.97145 1.02904 -1.40822 2.97145 1.02904 -1.40822
4 1 3.90831 2.7663 0.128684 3.90831 2.7663 0.128684
5 2 5.83071 2.73496 1.76773 5.83071 2.73496 1.76773
6 2 5.79273 2.66 -1.52323 5.79273 2.66 -1.52323
7 1 6.71707 1.076 0.11777 6.71707 1.076 0.11777
8 2 8.69303 1.11358 1.65427 8.69303 1.11358 1.65427
9 2 8.52404 1.03139 -1.65056 8.52404 1.03139 -1.65056
10 1 9.65756 2.71509 -0.0311196 9.65756 2.71509 -0.0311196
11 2 11.4696 2.78928 1.54759 11.4696 2.78928 1.54759
12 2 11.4701 2.53471 -1.72542 11.4701 2.53471 -1.72542
13 1 12.4445 0.999616 -0.0296339 12.4445 0.999616 -0.0296339
14 2 14.4788 1.03944 1.50708 14.4788 1.03944 1.50708
15 2 14.4357 0.87371 -1.79169 14.4357 0.87371 -1.79169
16 1 15.2875 2.56676 -0.277808 15.2875 2.56676 -0.277808
17 2 17.1645 2.79524 1.34683 17.1645 2.79524 1.34683
18 2 17.26 2.46938 -1.85646 17.26 2.46938 -1.85646
19 1 18.1696 0.991153 -0.057747 18.1696 0.991153 -0.057747
20 2 20.1162 0.93184 1.51191 20.1162 0.93184 1.51191
21 2 19.9975 0.855371 -1.75794 19.9975 0.855371 -1.75794
22 1 20.9363 2.55087 -0.183774 20.9363 2.55087 -0.183774
23 2 22.9246 2.6959 1.37725 22.9246 2.6959 1.37725
24 2 22.7692 2.61349 -1.78151 22.7692 2.61349 -1.78151
25 1 23.8424 1.12115 -0.227803 23.8424 1.12115 -0.227803
26 2 25.8275 1.01708 1.32948 25.8275 1.01708 1.32948
27 2 25.7134 0.950958 -1.86353 25.7134 0.950958 -1.86353
28 1 26.7756 2.6498 -0.317013 26.7756 2.6498 -0.317013
29 2 28.5559 2.60318 1.42025 28.5559 2.60318 1.42025
30 2 28.6816 2.7766 -1.85762 28.6816 2.7766 -1.85762
31 1 29.5953 1.0402 -0.266463 29.5953 1.0402 -0.266463
32 2 31.2929 1.08527 1.69775 31.2929 1.08527 1.69775
33 2 31.8073 0.877396 -1.61901 31.8073 0.877396 -1.61901
34 1 32.447 2.65453 0.111963 32.447 2.65453 0.111963
35 2 34.3042 2.56868 1.73565 34.3042 2.56868 1.73565
36 2 34.5014 2.69874 -1.41496 34.5014 2.69874 -1.41496
37 1 35.3259 0.935676 0.263465 35.3259 0.935676 0.263465
38 2 37.0189 1.02337 2.1104 37.0189 1.02337 2.1104
39 2 37.4025 1.0096 -0.96982 37.4025 1.0096 -0.96982
40 1 38.1074 2.71032 0.672041 38.1074 2.71032 0.672041
41 2 40.1596 2.70652 2.20016 40.1596 2.70652 2.20016
42 2 40.0389 2.73638 -1.01478 40.0389 2.73638 -1.01478
43 1 41.0459 1.01245 0.618791 41.0459 1.01245 0.618791
44 2 43.0534 1.12258 2.22966 43.0534 1.12258 2.22966
45 2 42.8575 0.881047 -1.11298 42.8575 0.881047 -1.11298
46 1 43.7938 2.79173 0.37423 43.7938 2.79173 0.37423
47 2 45.6462 2.7201 2.1025 45.6462 2.7201 2.1025
48 2 45.7566 2.97068 -1.17866 45.7566 2.97068 -1.17866
49 1 46.7084 1.06164 0.426878 46.7084 1.06164 0.426878
50 2 48.6018 0.895214 2.04427 48.6018 0.895214 2.04427
51 2 48.5499 1.02764 -1.33968 48.5499 1.02764 -1.33968
52 1 49.583 2.66671 0.434411 49.583 2.66671 0.434411
53 2 51.6707 2.57548 1.93364 51.6707 2.57548 1.93364
54 2 51.3725 2.78719 -1.29004 51.3725 2.78719 -1.29004
55 1 0.987425 4.39767 0.273227 0.987425 4.39767 0.273227
56 2 2.87205 4.37616 1.89106 2.87205 4.37616 1.89106
57 2 2.96061 4.43816 -1.33832 2.96061 4.43816 -1.33832
58 1 3.81262 6.00862 0.373192 3.81262 6.00862 0.373192
59 2 5.82732 5.81797 1.83793 5.82732 5.81797 1.83793
60 2 5.60329 6.11574 -1.38748 5.60329 6.11574 -1.38748
61 1 6.72514 4.27978 0.0529845 6.72514 4.27978 0.0529845
62 2 8.60677 4.24329 1.64788 8.60677 4.24329 1.64788
63 2 8.59613 4.44353 -1.60657 8.59613 4.44353 -1.60657
64 1 9.53158 5.9708 0.144028 9.53158 5.9708 0.144028
65 2 11.5207 5.84224 1.55975 11.5207 5.84224 1.55975
66 2 11.2399 6.1113 -1.6024 11.2399 6.1113 -1.6024
67 1 12.4218 4.35227 -0.270327 12.4218 4.35227 -0.270327
68 2 14.3275 4.17075 1.34052 14.3275 4.17075 1.34052
69 2 14.2288 4.18628 -1.94414 14.2288 4.18628 -1.94414
70 1 15.1663 5.93075 -0.356229 15.1663 5.93075 -0.356229
71 2 16.9543 5.79892 1.36415 16.9543 5.79892 1.36415
72 2 17.1503 6.05164 -1.94804 17.1503 6.05164 -1.94804
73 1 18.1495 4.25535 -0.438366 18.1495 4.25535 -0.438366
74 2 19.8835 4.29332 1.38843 19.8835 4.29332 1.38843
75 2 20.1751 4.27576 -1.91294 20.1751 4.27576 -1.91294
76 1 20.9459 5.92619 -0.213382 20.9459 5.92619 -0.213382
77 2 22.8636 5.89246 1.43076 22.8636 5.89246 1.43076
78 2 22.8238 5.88867 -1.84843 22.8238 5.88867 -1.84843
79 1 23.8982 4.28309 -0.197264 23.8982 4.28309 -0.197264
80 2 25.78 4.25224 1.37535 25.78 4.25224 1.37535
81 2 25.7759 4.29069 -1.85282 25.7759 4.29069 -1.85282
82 1 26.7166 5.95205 -0.094529 26.7166 5.95205 -0.094529
83 2 28.666 6.00792 1.45598 28.666 6.00792 1.45598
84 2 28.5201 6.00627 -1.79473 28.5201 6.00627 -1.79473
85 1 29.5812 4.36617 -0.143957 29.5812 4.36617 -0.143957
86 2 31.2802 4.13828 1.79768 31.2802 4.13828 1.79768
87 2 31.6482 4.39248 -1.58596 31.6482 4.39248 -1.58596
88 1 32.4088 5.96896 0.324988 32.4088 5.96896 0.324988
89 2 34.1974 5.94079 2.10148 34.1974 5.94079 2.10148
90 2 34.3765 6.02507 -1.19495 34.3765 6.02507 -1.19495
91 1 35.3799 4.32619 0.358282 35.3799 4.32619 0.358282
92 2 37.1384 4.41229 2.11306 37.1384 4.41229 2.11306
93 2 37.3183 4.29991 -1.12932 37.3183 4.29991 -1.12932
94 1 38.1414 5.96794 0.523922 38.1414 5.96794 0.523922
95 2 40.0981 6.03513 2.23338 40.0981 6.03513 2.23338
96 2 40.0789 6.07524 -1.05383 40.0789 6.07524 -1.05383
97 1 41.0035 4.41449 0.57303 41.0035 4.41449 0.57303
98 2 42.9471 4.3806 2.22015 42.9471 4.3806 2.22015
99 2 42.8658 4.50371 -1.09552 42.8658 4.50371 -1.09552
100 1 43.8288 6.07745 0.661199 43.8288 6.07745 0.661199
101 2 45.7245 6.08346 2.25683 45.7245 6.08346 2.25683
102 2 45.6563 6.01161 -1.018 45.6563 6.01161 -1.018
103 1 46.6819 4.39233 0.589276 46.6819 4.39233 0.589276
104 2 48.7304 4.38771 2.09253 48.7304 4.38771 2.09253
105 2 48.5031 4.31944 -1.0938 48.5031 4.31944 -1.0938
106 1 49.6501 5.99729 0.316985 49.6501 5.99729 0.316985
107 2 51.5407 5.88268 1.9101 51.5407 5.88268 1.9101
108 2 51.5668 6.21203 -1.30534 51.5668 6.21203 -1.30534
109 1 1.02507 7.62981 0.458495 1.02507 7.62981 0.458495
110 2 2.92942 7.61711 1.99894 2.92942 7.61711 1.99894
111 2 2.88896 7.6333 -1.31462 2.88896 7.6333 -1.31462
112 1 3.79512 9.30585 0.325867 3.79512 9.30585 0.325867
113 2 5.83553 9.40794 1.8338 5.83553 9.40794 1.8338
114 2 5.71331 9.17421 -1.3322 5.71331 9.17421 -1.3322
115 1 6.75448 7.6237 0.29591 6.75448 7.6237 0.29591
116 2 8.67363 7.61428 1.78758 8.67363 7.61428 1.78758
117 2 8.49622 7.58765 -1.41173 8.49622 7.58765 -1.41173
118 1 9.57381 9.27294 0.0892703 9.57381 9.27294 0.0892703
119 2 11.6514 9.22734 1.66317 11.6514 9.22734 1.66317
120 2 11.4209 9.14233 -1.64591 11.4209 9.14233 -1.64591
121 1 12.4237 7.52856 0.0316398 12.4237 7.52856 0.0316398
122 2 14.4682 7.36992 1.52172 14.4682 7.36992 1.52172
123 2 14.1063 7.69489 -1.7678 14.1063 7.69489 -1.7678
124 1 15.3494 9.17554 -0.0485912 15.3494 9.17554 -0.0485912
125 2 17.2883 9.3337 1.43102 17.2883 9.3337 1.43102
126 2 17.1073 9.00282 -1.88754 17.1073 9.00282 -1.88754
127 1 18.0769 7.5805 -0.0469351 18.0769 7.5805 -0.0469351
128 2 20.0312 7.52849 1.45653 20.0312 7.52849 1.45653
129 2 19.9732 7.57863 -1.7424 19.9732 7.57863 -1.7424
130 1 21.0284 9.17412 -0.167649 21.0284 9.17412 -0.167649
131 2 23.0514 9.18613 1.34988 23.0514 9.18613 1.34988
132 2 22.8516 9.12494 -1.8838 22.8516 9.12494 -1.8838
133 1 23.8481 7.56032 -0.319395 23.8481 7.56032 -0.319395
134 2 25.5868 7.71077 1.39495 25.5868 7.71077 1.39495
135 2 25.7959 7.37166 -1.93787 25.7959 7.37166 -1.93787
136 1 26.7558 9.21086 -0.414897 26.7558 9.21086 -0.414897
137 2 28.5144 9.16217 1.35557 28.5144 9.16217 1.35557
138 2 28.7033 9.3472 -1.99885 28.7033 9.3472 -1.99885
139 1 29.5649 7.64717 -0.287477 29.5649 7.64717 -0.287477
140 2 31.1556 7.77108 1.6221 31.1556 7.77108 1.6221
141 2 31.7398 7.40995 -1.56612 31.7398 7.40995 -1.56612
142 1 32.4399 9.22922 0.0532109 32.4399 9.22922 0.0532109
143 2 34.217 9.48297 1.92681 34.217 9.48297 1.92681
144 2 34.5131 9.07415 -1.41355 34.5131 9.07415 -1.41355
145 1 35.2486 7.61757 0.603598 35.2486 7.61757 0.603598
146 2 37.29 7.62286 2.11518 37.29 7.62286 2.11518
147 2 37.0751 7.53151 -1.0955 37.0751 7.53151 -1.0955
148 1 38.1826 9.28277 0.388188 38.1826 9.28277 0.388188
149 2 39.9135 9.51035 2.1457 39.9135 9.51035 2.1457
150 2 40.0935 9.27924 -1.06256 40.0935 9.27924 -1.06256
151 1 41.0586 7.80379 0.664474 41.0586 7.80379 0.664474
152 2 42.9653 7.80967 2.19319 42.9653 7.80967 2.19319
153 2 42.9836 7.66236 -1.01027 42.9836 7.66236 -1.01027
154 1 43.9785 9.31556 0.486986 43.9785 9.31556 0.486986
155 2 45.8409 9.39717 2.11197 45.8409 9.39717 2.11197
156 2 45.9383 9.33203 -1.19575 45.9383 9.33203 -1.19575
157 1 46.7976 7.68833 0.50354 46.7976 7.68833 0.50354
158 2 48.7317 7.56274 2.05425 48.7317 7.56274 2.05425
159 2 48.5559 7.65448 -1.19473 48.5559 7.65448 -1.19473
160 1 49.6404 9.2823 0.503164 49.6404 9.2823 0.503164
161 2 51.5165 9.22555 2.1348 51.5165 9.22555 2.1348
162 2 51.4191 9.33875 -1.11527 51.4191 9.33875 -1.11527
163 1 0.944538 10.8722 0.599385 0.944538 10.8722 0.599385
164 2 3.0626 10.9787 2.00851 3.0626 10.9787 2.00851
165 2 2.53012 10.8214 -1.29486 2.53012 10.8214 -1.29486
166 1 3.87134 12.4522 0.11107 3.87134 12.4522 0.11107
167 2 5.8763 12.6824 1.51966 5.8763 12.6824 1.51966
168 2 5.57011 12.472 -1.66668 5.57011 12.472 -1.66668
169 1 6.69799 10.9714 0.00430877 6.69799 10.9714 0.00430877
170 2 8.62884 11.0039 1.56986 8.62884 11.0039 1.56986
171 2 8.6137 10.7763 -1.67772 8.6137 10.7763 -1.67772
172 1 9.55638 12.5243 -0.235602 9.55638 12.5243 -0.235602
173 2 11.3642 12.5696 1.45156 11.3642 12.5696 1.45156
174 2 11.5259 12.4347 -1.8465 11.5259 12.4347 -1.8465
175 1 12.4379 10.8579 -0.0712494 12.4379 10.8579 -0.0712494
176 2 14.3311 11.0316 1.46535 14.3311 11.0316 1.46535
177 2 14.2946 10.6795 -1.77883 14.2946 10.6795 -1.77883
178 1 15.2796 12.4282 -0.333594 15.2796 12.4282 -0.333594
179 2 17.2642 12.6756 1.19331 17.2642 12.6756 1.19331
180 2 17.0348 12.3586 -2.04813 17.0348 12.3586 -2.04813
181 1 18.198 10.8177 -0.403738 18.198 10.8177 -0.403738
182 2 20.1357 11.1112 1.24423 20.1357 11.1112 1.24423
183 2 20.1162 10.688 -2.0015 20.1162 10.688 -2.0015
184 1 21.086 12.5259 -0.5784 21.086 12.5259 -0.5784
185 2 22.8755 12.5978 1.15598 22.8755 12.5978 1.15598
186 2 23.0397 12.4559 -2.12703 23.0397 12.4559 -2.12703
187 1 23.8788 10.8546 -0.37922 23.8788 10.8546 -0.37922
188 2 25.7725 10.7782 1.28538 25.7725 10.7782 1.28538
189 2 25.8324 10.8814 -2.00589 25.8324 10.8814 -2.00589
190 1 26.7709 12.5224 -0.330174 26.7709 12.5224 -0.330174
191 2 28.6508 12.5483 1.24196 28.6508 12.5483 1.24196
192 2 28.658 12.3028 -1.98191 28.658 12.3028 -1.98191
193 1 29.5914 10.8275 -0.267691 29.5914 10.8275 -0.267691
194 2 31.4042 10.9003 1.56825 31.4042 10.9003 1.56825
195 2 31.5257 10.7568 -1.75998 31.5257 10.7568 -1.75998
196 1 32.4694 12.4936 -0.118443 32.4694 12.4936 -0.118443
197 2 34.2406 12.7281 1.64017 34.2406 12.7281 1.64017
198 2 34.5002 12.3602 -1.65969 34.5002 12.3602 -1.65969
199 1 35.3409 10.8877 0.164121 35.3409 10.8877 0.164121
200 2 37.1316 11.0063 1.85559 37.1316 11.0063 1.85559
201 2 37.2961 10.9008 -1.41554 37.2961 10.9008 -1.41554
202 1 38.2073 12.5681 0.232256 38.2073 12.5681 0.232256
203 2 40.0147 12.6867 1.91918 40.0147 12.6867 1.91918
204 2 40.2356 12.6888 -1.28 40.2356 12.6888 -1.28
205 1 41.0616 11.0289 0.413176 41.0616 11.0289 0.413176
206 2 42.9205 10.9816 2.05641 42.9205 10.9816 2.05641
207 2 43.0734 10.9004 -1.13549 43.0734 10.9004 -1.13549
208 1 43.9592 12.5984 0.4919 43.9592 12.5984 0.4919
209 2 45.9058 12.5575 2.10952 45.9058 12.5575 2.10952
210 2 45.812 12.5065 -1.08924 45.812 12.5065 -1.08924
211 1 46.8535 10.9984 0.546369 46.8535 10.9984 0.546369
212 2 48.6283 10.9479 2.16036 48.6283 10.9479 2.16036
213 2 48.6169 10.9769 -1.09877 48.6169 10.9769 -1.09877
214 1 49.5975 12.5715 0.498765 49.5975 12.5715 0.498765
215 2 51.585 12.6258 2.05484 51.585 12.6258 2.05484
216 2 51.3649 12.3436 -1.18686 51.3649 12.3436 -1.18686
217 1 1.00767 14.0717 0.27395 1.00767 14.0717 0.27395
218 2 3.01129 14.2738 1.68372 3.01129 14.2738 1.68372
219 2 2.74147 14.0083 -1.55175 2.74147 14.0083 -1.55175
220 1 3.77348 15.7968 -0.0178283 3.77348 15.7968 -0.0178283
221 2 5.88568 15.9447 1.40547 5.88568 15.9447 1.40547
222 2 5.57066 15.8371 -1.87706 5.57066 15.8371 -1.87706
223 1 6.70145 14.2788 -0.284229 6.70145 14.2788 -0.284229
224 2 8.6272 14.2745 1.27007 8.6272 14.2745 1.27007
225 2 8.41781 14.1204 -1.96141 8.41781 14.1204 -1.96141
226 1 9.48988 15.7736 -0.491216 9.48988 15.7736 -0.491216
227 2 11.411 16.0912 1.10592 11.411 16.0912 1.10592
228 2 11.3683 15.4295 -2.10901 11.3683 15.4295 -2.10901
229 1 12.3765 14.1669 -0.127151 12.3765 14.1669 -0.127151
230 2 14.4915 14.2002 1.26727 14.4915 14.2002 1.26727
231 2 14.0671 13.7911 -1.96965 14.0671 13.7911 -1.96965
232 1 15.2844 15.6202 -0.632951 15.2844 15.6202 -0.632951
233 2 17.2696 15.7791 1.00132 17.2696 15.7791 1.00132
234 2 17.2452 15.566 -2.21136 17.2452 15.566 -2.21136
235 1 18.2373 14.0762 -0.592501 18.2373 14.0762 -0.592501
236 2 20.1675 14.1992 1.01676 20.1675 14.1992 1.01676
237 2 20.1684 14.1321 -2.26109 20.1684 14.1321 -2.26109
238 1 20.9842 15.8635 -0.701522 20.9842 15.8635 -0.701522
239 2 22.7904 15.8621 0.970117 22.7904 15.8621 0.970117
240 2 23.0181 15.6833 -2.25159 23.0181 15.6833 -2.25159
241 1 23.9364 14.1703 -0.506975 23.9364 14.1703 -0.506975
242 2 25.7324 14.2536 1.11832 25.7324 14.2536 1.11832
243 2 25.9059 14.0248 -2.06938 25.9059 14.0248 -2.06938
244 1 26.7665 15.8273 -0.569705 26.7665 15.8273 -0.569705
245 2 28.7698 15.7957 1.01583 28.7698 15.7957 1.01583
246 2 28.7092 15.5887 -2.13953 28.7092 15.5887 -2.13953
247 1 29.7268 14.0469 -0.476765 29.7268 14.0469 -0.476765
248 2 31.5944 14.4811 1.21115 31.5944 14.4811 1.21115
249 2 31.6733 13.7771 -2.08444 31.6733 13.7771 -2.08444
250 1 32.5119 15.7906 -0.520944 32.5119 15.7906 -0.520944
251 2 34.3115 15.9708 1.33836 34.3115 15.9708 1.33836
252 2 34.5477 15.7389 -1.98453 34.5477 15.7389 -1.98453
253 1 35.2955 14.1674 -0.121223 35.2955 14.1674 -0.121223
254 2 37.0259 14.0875 1.72064 37.0259 14.0875 1.72064
255 2 37.405 14.1346 -1.54791 37.405 14.1346 -1.54791
256 1 38.185 15.86 0.127792 38.185 15.86 0.127792
257 2 39.9996 16.132 1.88715 39.9996 16.132 1.88715
258 2 40.2311 15.7461 -1.45516 40.2311 15.7461 -1.45516
259 1 41.1133 14.3169 0.434532 41.1133 14.3169 0.434532
260 2 43.0893 14.21 2.12654 43.0893 14.21 2.12654
261 2 42.9984 14.26 -1.20073 42.9984 14.26 -1.20073
262 1 43.9377 15.8782 0.464218 43.9377 15.8782 0.464218
263 2 45.8785 16.208 2.01943 45.8785 16.208 2.01943
264 2 45.8401 15.7397 -1.14427 45.8401 15.7397 -1.14427
265 1 46.8266 14.2824 0.560552 46.8266 14.2824 0.560552
266 2 48.7173 14.4356 2.07144 48.7173 14.4356 2.07144
267 2 48.5172 14.0068 -1.17277 48.5172 14.0068 -1.17277
268 1 49.6273 15.8158 0.207177 49.6273 15.8158 0.207177
269 2 51.5104 15.8947 1.76462 51.5104 15.8947 1.76462
270 2 51.6217 15.6231 -1.48405 51.6217 15.6231 -1.48405
271 1 0.824147 17.4974 -0.0376522 0.824147 17.4974 -0.0376522
272 2 2.81696 17.72 1.45068 2.81696 17.72 1.45068
273 2 2.75081 17.2441 -1.78835 2.75081 17.2441 -1.78835
274 1 3.76164 19.1299 -0.421673 3.76164 19.1299 -0.421673
275 2 5.71279 19.1329 1.25461 5.71279 19.1329 1.25461
276 2 5.58172 18.9253 -2.11454 5.58172 18.9253 -2.11454
277 1 6.65821 17.4756 -0.361787 6.65821 17.4756 -0.361787
278 2 8.7114 17.5545 1.14543 8.7114 17.5545 1.14543
279 2 8.45388 17.3708 -2.1562 8.45388 17.3708 -2.1562
280 1 9.49293 19.1059 -0.66955 9.49293 19.1059 -0.66955
281 2 11.4649 19.0688 0.791634 11.4649 19.0688 0.791634
282 2 11.4016 19.0742 -2.38533 11.4016 19.0742 -2.38533
283 1 12.3478 17.375 -0.878987 12.3478 17.375 -0.878987
284 2 14.1618 17.3587 0.867183 14.1618 17.3587 0.867183
285 2 14.4062 17.1888 -2.40406 14.4062 17.1888 -2.40406
286 1 15.2522 19.0901 -0.771331 15.2522 19.0901 -0.771331
287 2 17.1405 19.0818 0.984991 17.1405 19.0818 0.984991
288 2 17.2634 19.1116 -2.2901 17.2634 19.1116 -2.2901
289 1 18.2658 17.4118 -0.61276 18.2658 17.4118 -0.61276
290 2 20.0962 17.399 1.00703 20.0962 17.399 1.00703
291 2 20.0428 17.5449 -2.34338 20.0428 17.5449 -2.34338
292 1 21.0023 19.1532 -0.579888 21.0023 19.1532 -0.579888
293 2 22.9104 19.2013 1.09056 22.9104 19.2013 1.09056
294 2 22.8864 19.1372 -2.14487 22.8864 19.1372 -2.14487
295 1 23.8753 17.4704 -0.618098 23.8753 17.4704 -0.618098
296 2 25.7809 17.4307 1.08628 25.7809 17.4307 1.08628
297 2 25.8828 17.3793 -2.27634 25.8828 17.3793 -2.27634
298 1 26.7555 19.0791 -0.572033 26.7555 19.0791 -0.572033
299 2 28.7763 19.0956 0.92771 28.7763 19.0956 0.92771
300 2 28.6775 19.1186 -2.29742 28.6775 19.1186 -2.29742
301 1 29.5923 17.4048 -0.680516 29.5923 17.4048 -0.680516
302 2 31.3775 17.3012 1.05257 31.3775 17.3012 1.05257
303 2 31.5291 17.5299 -2.22898 31.5291 17.5299 -2.22898
304 1 32.4996 19.039 -0.578964 32.4996 19.039 -0.578964
305 2 34.1933 19.2296 1.18345 34.1933 19.2296 1.18345
306 2 34.485 19.0532 -2.07346 34.485 19.0532 -2.07346
307 1 35.3782 17.4801 -0.307725 35.3782 17.4801 -0.307725
308 2 37.0279 17.5505 1.60162 37.0279 17.5505 1.60162
309 2 37.547 17.4709 -1.67652 37.547 17.4709 -1.67652
310 1 38.1318 19.1178 -0.0318712 38.1318 19.1178 -0.0318712
311 2 39.9851 19.4104 1.52978 39.9851 19.4104 1.52978
312 2 40.0951 18.8667 -1.58995 40.0951 18.8667 -1.58995
313 1 41.0415 17.5623 0.155383 41.0415 17.5623 0.155383
314 2 42.911 17.8484 1.73296 42.911 17.8484 1.73296
315 2 42.9467 17.3296 -1.43956 42.9467 17.3296 -1.43956
316 1 43.9156 19.1318 -0.110042 43.9156 19.1318 -0.110042
317 2 45.6628 19.393 1.61083 45.6628 19.393 1.61083
318 2 45.8979 18.9537 -1.58518 45.8979 18.9537 -1.58518
319 1 46.7873 17.6012 0.301563 46.7873 17.6012 0.301563
320 2 48.8368 17.7635 1.71235 48.8368 17.7635 1.71235
321 2 48.7147 17.3065 -1.58115 48.7147 17.3065 -1.58115
322 1 49.6586 19.2352 -0.11703 49.6586 19.2352 -0.11703
323 2 51.551 19.2595 1.47075 51.551 19.2595 1.47075
324 2 51.4516 19.0368 -1.69334 51.4516 19.0368 -1.69334
325 1 0.925749 20.7987 -0.211729 0.925749 20.7987 -0.211729
326 2 3.0627 20.8402 1.31442 3.0627 20.8402 1.31442
327 2 2.71501 20.7677 -2.02039 2.71501 20.7677 -2.02039
328 1 3.78111 22.4084 -0.535378 3.78111 22.4084 -0.535378
329 2 5.6406 22.4125 0.975483 5.6406 22.4125 0.975483
330 2 5.62812 22.3749 -2.2022 5.62812 22.3749 -2.2022
331 1 6.53842 20.7619 -0.56074 6.53842 20.7619 -0.56074
332 2 8.54143 20.625 1.08673 8.54143 20.625 1.08673
333 2 8.43773 20.8448 -2.16996 8.43773 20.8448 -2.16996
334 1 9.48146 22.3586 -0.534229 9.48146 22.3586 -0.534229
335 2 11.5537 22.4545 0.923148 11.5537 22.4545 0.923148
336 2 11.2125 22.2379 -2.28387 11.2125 22.2379 -2.28387
337 1 12.3788 20.6429 -0.780162 12.3788 20.6429 -0.780162
338 2 14.4018 20.7943 0.904038 14.4018 20.7943 0.904038
339 2 14.2519 20.6825 -2.4276 14.2519 20.6825 -2.4276
340 1 15.2313 22.367 -0.875056 15.2313 22.367 -0.875056
341 2 16.9902 22.5722 0.815218 16.9902 22.5722 0.815218
342 2 17.2161 22.2658 -2.34593 17.2161 22.2658 -2.34593
343 1 18.1087 20.7153 -0.563273 18.1087 20.7153 -0.563273
344 2 19.9365 20.7809 1.12769 19.9365 20.7809 1.12769
345 2 20.1159 20.7024 -2.18119 20.1159 20.7024 -2.18119
346 1 20.9642 22.4247 -0.479519 20.9642 22.4247 -0.479519
347 2 23.1283 22.5881 1.06436 23.1283 22.5881 1.06436
348 2 22.8064 22.1746 -2.29935 22.8064 22.1746 -2.29935
349 1 23.8383 20.7774 -0.478399 23.8383 20.7774 -0.478399
350 2 25.7816 20.8819 0.983957 25.7816 20.8819 0.983957
351 2 25.7166 20.6116 -2.23531 25.7166 20.6116 -2.23531
352 1 26.6441 22.4017 -0.70518 26.6441 22.4017 -0.70518
353 2 28.7182 22.5759 0.87407 28.7182 22.5759 0.87407
354 2 28.6204 22.2076 -2.37988 28.6204 22.2076 -2.37988
355 1 29.551 20.7777 -0.668895 29.551 20.7777 -0.668895
356 2 31.4316 20.8647 0.841895 31.4316 20.8647 0.841895
357 2 31.5103 20.6449 -2.31354 31.5103 20.6449 -2.31354
358 1 32.539 22.424 -0.832016 32.539 22.424 -0.832016
359 2 34.1841 22.432 0.984407 34.1841 22.432 0.984407
360 2 34.569 22.4067 -2.33748 34.569 22.4067 -2.33748
361 1 35.2474 20.8424 -0.519412 35.2474 20.8424 -0.519412
362 2 37.0096 21.0794 1.27911 37.0096 21.0794 1.27911
363 2 37.3041 20.5888 -1.92794 37.3041 20.5888 -1.92794
364 1 38.1689 22.4792 -0.431706 38.1689 22.4792 -0.431706
365 2 40.0795 22.5277 1.20375 40.0795 22.5277 1.20375
366 2 40.1372 22.3987 -2.0747 40.1372 22.3987 -2.0747
367 1 41.0059 20.7665 -0.350611 41.0059 20.7665 -0.350611
368 2 42.9482 20.9605 1.28687 42.9482 20.9605 1.28687
369 2 42.991 20.6894 -1.92118 42.991 20.6894 -1.92118
370 1 43.8822 22.4289 -0.409293 43.8822 22.4289 -0.409293
371 2 45.7636 22.5852 1.18886 45.7636 22.5852 1.18886
372 2 45.8335 22.3367 -1.88132 45.8335 22.3367 -1.88132
373 1 46.7363 20.7972 -0.191093 46.7363 20.7972 -0.191093
374 2 48.6902 20.8288 1.54254 48.6902 20.8288 1.54254
375 2 48.6107 20.7966 -1.75069 48.6107 20.7966 -1.75069
376 1 49.6991 22.4826 -0.104964 49.6991 22.4826 -0.104964
377 2 51.6629 22.5911 1.35022 51.6629 22.5911 1.35022
378 2 51.3889 22.2979 -1.91847 51.3889 22.2979 -1.91847
379 1 0.959835 24.1184 -0.513039 0.959835 24.1184 -0.513039
380 2 2.7478 24.0516 1.19576 2.7478 24.0516 1.19576
381 2 2.90504 24.2688 -2.05425 2.90504 24.2688 -2.05425
382 1 3.87424 25.7705 -0.346897 3.87424 25.7705 -0.346897
383 2 5.76472 25.618 1.23765 5.76472 25.618 1.23765
384 2 5.60644 25.6658 -2.10162 5.60644 25.6658 -2.10162
385 1 6.68802 24.0194 -0.587599 6.68802 24.0194 -0.587599
386 2 8.49633 24.1214 1.13483 8.49633 24.1214 1.13483
387 2 8.53088 23.9755 -2.22418 8.53088 23.9755 -2.22418
388 1 9.52309 25.666 -0.614176 9.52309 25.666 -0.614176
389 2 11.4359 25.5967 0.889359 11.4359 25.5967 0.889359
390 2 11.2222 25.628 -2.45155 11.2222 25.628 -2.45155
391 1 12.3251 23.9746 -0.850306 12.3251 23.9746 -0.850306
392 2 14.3206 23.9728 0.787191 14.3206 23.9728 0.787191
393 2 14.2247 23.9742 -2.54539 14.2247 23.9742 -2.54539
394 1 15.158 25.6638 -0.958933 15.158 25.6638 -0.958933
395 2 17.1257 25.8553 0.656918 17.1257 25.8553 0.656918
396 2 17.0835 25.601 -2.63384 17.0835 25.601 -2.63384
397 1 18.0991 24.1071 -0.881891 18.0991 24.1071 -0.881891
398 2 19.9187 24.2936 0.867913 19.9187 24.2936 0.867913
399 2 20.0006 23.8433 -2.42311 20.0006 23.8433 -2.42311
400 1 21.0282 25.7004 -0.890887 21.0282 25.7004 -0.890887
401 2 22.7854 25.8055 0.808217 22.7854 25.8055 0.808217
402 2 22.9203 25.6854 -2.45683 22.9203 25.6854 -2.45683
403 1 23.8831 24.0745 -0.830615 23.8831 24.0745 -0.830615
404 2 25.7233 24.2439 0.871906 25.7233 24.2439 0.871906
405 2 25.6862 23.7543 -2.47441 25.6862 23.7543 -2.47441
406 1 26.6806 25.702 -0.969349 26.6806 25.702 -0.969349
407 2 28.5586 25.6899 0.706144 28.5586 25.6899 0.706144
408 2 28.5446 25.7825 -2.55965 28.5446 25.7825 -2.55965
409 1 29.561 24.0203 -1.00361 29.561 24.0203 -1.00361
410 2 31.318 24.1214 0.816304 31.318 24.1214 0.816304
411 2 31.6898 23.9559 -2.49054 31.6898 23.9559 -2.49054
412 1 32.3968 25.6917 -0.85276 32.3968 25.6917 -0.85276
413 2 34.3286 25.768 0.835689 34.3286 25.768 0.835689
414 2 34.457 25.5245 -2.37228 34.457 25.5245 -2.37228
415 1 35.3504 24.0436 -0.604523 35.3504 24.0436 -0.604523
416 2 37.1838 24.2331 1.08196 37.1838 24.2331 1.08196
417 2 37.3422 24.0307 -2.09563 37.3422 24.0307 -2.09563
418 1 38.1637 25.7899 -0.601586 38.1637 25.7899 -0.601586
419 2 40.0429 25.7147 1.16111 40.0429 25.7147 1.16111
420 2 40.2335 25.78 -2.22198 40.2335 25.78 -2.22198
421 1 41.065 24.0466 -0.494876 41.065 24.0466 -0.494876
422 2 42.8922 24.1788 1.08489 42.8922 24.1788 1.08489
423 2 42.9404 24.0106 -2.07457 42.9404 24.0106 -2.07457
424 1 43.9463 25.7231 -0.535369 43.9463 25.7231 -0.535369
425 2 45.6437 25.7005 1.24647 45.6437 25.7005 1.24647
426 2 45.8699 25.8722 -2.07697 45.8699 25.8722 -2.07697
427 1 46.8082 24.1674 -0.417759 46.8082 24.1674 -0.417759
428 2 48.6104 24.1658 1.40394 48.6104 24.1658 1.40394
429 2 48.8692 24.2028 -1.89198 48.8692 24.2028 -1.89198
430 1 49.5514 25.8008 -0.153227 49.5514 25.8008 -0.153227
431 2 51.5523 25.6817 1.28248 51.5523 25.6817 1.28248
432 2 51.4475 25.9086 -1.85917 51.4475 25.9086 -1.85917
433 1 1.05 27.4752 -0.145294 1.05 27.4752 -0.145294
434 2 3.0323 27.3018 1.42229 3.0323 27.3018 1.42229
435 2 2.80752 27.5251 -1.84401 2.80752 27.5251 -1.84401
436 1 3.78589 29.1196 -0.141966 3.78589 29.1196 -0.141966
437 2 5.83164 29.1952 1.2846 5.83164 29.1952 1.2846
438 2 5.47516 29.0223 -1.99149 5.47516 29.0223 -1.99149
439 1 6.62761 27.2933 -0.422694 6.62761 27.2933 -0.422694
440 2 8.66719 27.3614 1.07489 8.66719 27.3614 1.07489
441 2 8.41436 27.1851 -2.19779 8.41436 27.1851 -2.19779
442 1 9.49767 29.0955 -0.571215 9.49767 29.0955 -0.571215
443 2 11.4951 28.943 0.95842 11.4951 28.943 0.95842
444 2 11.3537 29.2096 -2.25514 11.3537 29.2096 -2.25514
445 1 12.2847 27.3175 -0.798244 12.2847 27.3175 -0.798244
446 2 14.2477 27.1892 0.795873 14.2477 27.1892 0.795873
447 2 14.1692 27.4049 -2.39735 14.1692 27.4049 -2.39735
448 1 15.2339 28.9521 -0.727396 15.2339 28.9521 -0.727396
449 2 17.2082 28.8886 0.844335 17.2082 28.8886 0.844335
450 2 17.074 29.0973 -2.42227 17.074 29.0973 -2.42227
451 1 18.1112 27.3214 -1.05214 18.1112 27.3214 -1.05214
452 2 20.0111 27.553 0.588506 20.0111 27.553 0.588506
453 2 20.0622 27.1873 -2.71284 20.0622 27.1873 -2.71284
454 1 20.9858 29.0153 -1.15373 20.9858 29.0153 -1.15373
455 2 22.6605 29.0411 0.665932 22.6605 29.0411 0.665932
456 2 23.1127 29.2206 -2.51375 23.1127 29.2206 -2.51375
457 1 23.8196 27.3681 -0.850199 23.8196 27.3681 -0.850199
458 2 25.7018 27.4515 0.719995 25.7018 27.4515 0.719995
459 2 25.6277 27.3522 -2.52073 25.6277 27.3522 -2.52073
460 1 26.6259 29.0046 -0.886146 26.6259 29.0046 -0.886146
461 2 28.5559 28.8206 0.706239 28.5559 28.8206 0.706239
462 2 28.6159 29.1548 -2.47084 28.6159 29.1548 -2.47084
463 1 29.571 27.3774 -1.01801 29.571 27.3774 -1.01801
464 2 31.282 27.4817 0.682148 31.282 27.4817 0.682148
465 2 31.6038 27.3952 -2.59406 31.6038 27.3952 -2.59406
466 1 32.491 29.0518 -0.89612 32.491 29.0518 -0.89612
467 2 34.2412 28.8421 0.950321 34.2412 28.8421 0.950321
468 2 34.5473 29.2321 -2.3833 34.5473 29.2321 -2.3833
469 1 35.2896 27.3984 -0.869305 35.2896 27.3984 -0.869305
470 2 37.0964 27.4047 0.924223 37.0964 27.4047 0.924223
471 2 37.3852 27.4809 -2.25461 37.3852 27.4809 -2.25461
472 1 38.2684 29.1308 -0.532143 38.2684 29.1308 -0.532143
473 2 40.16 29.0825 1.12316 40.16 29.0825 1.12316
474 2 40.185 29.0444 -2.12524 40.185 29.0444 -2.12524
475 1 41.0592 27.4062 -0.446586 41.0592 27.4062 -0.446586
476 2 43.0073 27.4371 1.07185 43.0073 27.4371 1.07185
477 2 42.8568 27.3831 -2.15086 42.8568 27.3831 -2.15086
478 1 43.9153 29.0571 -0.562634 43.9153 29.0571 -0.562634
479 2 45.5993 28.9614 1.34845 45.5993 28.9614 1.34845
480 2 45.9212 29.2534 -2.00933 45.9212 29.2534 -2.00933
481 1 46.773 27.4512 -0.333889 46.773 27.4512 -0.333889
482 2 48.4699 27.4637 1.48231 48.4699 27.4637 1.48231
483 2 48.8541 27.5444 -1.85548 48.8541 27.5444 -1.85548
484 1 49.6238 29.1121 -0.0601638 49.6238 29.1121 -0.0601638
485 2 51.5863 29.1044 1.49228 51.5863 29.1044 1.49228
486 2 51.5268 29.008 -1.66644 51.5268 29.008 -1.66644
487 1 0.972373 30.8258 -0.210918 0.972373 30.8258 -0.210918
488 2 2.73404 30.7226 1.4283 2.73404 30.7226 1.4283
489 2 2.84367 30.8086 -1.81642 2.84367 30.8086 -1.81642
490 1 3.78711 32.4292 -0.0990105 3.78711 32.4292 -0.0990105
491 2 5.87376 32.3751 1.22223 5.87376 32.3751 1.22223
492 2 5.34281 32.4709 -2.00807 5.34281 32.4709 -2.00807
493 1 6.65917 30.7973 -0.55714 6.65917 30.7973 -0.55714
494 2 8.65377 30.863 0.922206 8.65377 30.863 0.922206
495 2 8.50221 30.6347 -2.30354 8.50221 30.6347 -2.30354
496 1 9.51046 32.4215 -0.854971 9.51046 32.4215 -0.854971
497 2 11.2511 32.2608 0.965767 11.2511 32.2608 0.965767
498 2 11.5396 32.4146 -2.33963 11.5396 32.4146 -2.33963
499 1 12.3689 30.6676 -0.635929 12.3689 30.6676 -0.635929
500 2 14.2641 30.5819 0.909212 14.2641 30.5819 0.909212
501 2 14.2099 30.7128 -2.27457 14.2099 30.7128 -2.27457
502 1 15.2384 32.239 -0.6156 15.2384 32.239 -0.6156
503 2 17.0318 32.1205 1.07665 17.0318 32.1205 1.07665
504 2 17.1958 32.4375 -2.18698 17.1958 32.4375 -2.18698
505 1 18.059 30.6712 -0.693135 18.059 30.6712 -0.693135
506 2 20.1311 30.4982 0.697721 20.1311 30.4982 0.697721
507 2 19.908 30.8638 -2.51315 19.908 30.8638 -2.51315
508 1 20.959 32.3523 -0.74803 20.959 32.3523 -0.74803
509 2 22.8187 32.2139 0.987378 22.8187 32.2139 0.987378
510 2 22.9328 32.2855 -2.32719 22.9328 32.2855 -2.32719
511 1 23.8655 30.6557 -0.718226 23.8655 30.6557 -0.718226
512 2 25.6998 30.4381 0.981779 25.6998 30.4381 0.981779
513 2 25.7982 30.7346 -2.3735 25.7982 30.7346 -2.3735
514 1 26.6568 32.2028 -0.519132 26.6568 32.2028 -0.519132
515 2 28.6204 32.1311 1.09229 28.6204 32.1311 1.09229
516 2 28.5866 32.2959 -2.15535 28.5866 32.2959 -2.15535
517 1 29.6491 30.5505 -0.684496 29.6491 30.5505 -0.684496
518 2 31.6269 30.5245 0.957781 31.6269 30.5245 0.957781
519 2 31.3411 30.8375 -2.3274 31.3411 30.8375 -2.3274
520 1 32.4424 32.373 -0.612712 32.4424 32.373 -0.612712
521 2 34.3294 32.3547 1.08963 34.3294 32.3547 1.08963
522 2 34.5009 32.4113 -2.17887 34.5009 32.4113 -2.17887
523 1 35.3403 30.6632 -0.450198 35.3403 30.6632 -0.450198
524 2 37.2207 30.7354 1.11739 37.2207 30.7354 1.11739
525 2 37.2305 30.7162 -2.13478 37.2305 30.7162 -2.13478
526 1 38.1437 32.395 -0.571535 38.1437 32.395 -0.571535
527 2 40.0014 32.1808 1.07779 40.0014 32.1808 1.07779
528 2 40.2025 32.4477 -2.08153 40.2025 32.4477 -2.08153
529 1 41.0446 30.6794 -0.606581 41.0446 30.6794 -0.606581
530 2 42.7335 30.5667 1.18852 42.7335 30.5667 1.18852
531 2 43.0874 30.7613 -2.13787 43.0874 30.7613 -2.13787
532 1 43.8522 32.3113 -0.225369 43.8522 32.3113 -0.225369
533 2 45.547 32.2512 1.4436 45.547 32.2512 1.4436
534 2 45.7672 32.4581 -1.70475 45.7672 32.4581 -1.70475
535 1 46.7151 30.758 -0.154085 46.7151 30.758 -0.154085
536 2 48.5009 30.6192 1.54044 48.5009 30.6192 1.54044
537 2 48.7503 30.8297 -1.6454 48.7503 30.8297 -1.6454
538 1 49.663 32.4247 0.196606 49.663 32.4247 0.196606