ITEM: TIMESTEP
89800
ITEM: NUMBER OF ATOMS
810
ITEM: BOX BOUNDS pp pp pp
8.1397549690554971e-01 5.2203629503094874e+01
8.2722157415778996e-01 5.0188993425841481e+01
-1.0000000000000000e+01 1.0000000000000000e+01
ITEM: ATOMS id type x y z xu yu zu
1 1 1.00677 1.02148 -1.16269 1.00677 1.02148 -1.16269
2 2 2.68181 0.859703 0.67895 2.68181 0.859703 0.67895
3 2 3.06326 1.06291 -2.50419 3.06326 1.06291 -2.50419
4 1 3.87257 2.65658 -0.708324 3.87257 2.65658 -0.708324
5 2 5.80056 2.59449 0.819444 5.80056 2.59449 0.819444
6 2 5.717 2.83692 -2.3896 5.717 2.83692 -2.3896
7 1 6.66494 1.12914 -1.04522 6.66494 1.12914 -1.04522
8 2 8.46468 50.4317 0.748782 8.46468 1.06994 0.748782
9 2 8.85323 1.131 -2.48649 8.85323 1.131 -2.48649
10 1 9.65402 2.69458 -0.758879 9.65402 2.69458 -0.758879
11 2 11.5452 2.55192 1.05368 11.5452 2.55192 1.05368
12 2 11.6531 2.89028 -2.20755 11.6531 2.89028 -2.20755
13 1 12.4839 1.10722 -0.733119 12.4839 1.10722 -0.733119
14 2 14.224 0.794013 1.057 14.224 0.794013 1.057
15 2 14.5724 1.27825 -2.19631 14.5724 1.27825 -2.19631
16 1 15.3392 2.68161 -0.290447 15.3392 2.68161 -0.290447
17 2 17.0676 2.60369 1.40808 17.0676 2.60369 1.40808
18 2 17.2592 2.69279 -1.86082 17.2592 2.69279 -1.86082
19 1 18.1514 1.03676 -0.186818 18.1514 1.03676 -0.186818
20 2 20.1157 1.10351 1.4019 20.1157 1.10351 1.4019
21 2 19.9973 0.953963 -1.91808 19.9973 0.953963 -1.91808
22 1 21.0571 2.67995 -0.39665 21.0571 2.67995 -0.39665
23 2 22.9878 2.83063 1.19002 22.9878 2.83063 1.19002
24 2 22.8977 2.58145 -1.99893 22.8977 2.58145 -1.99893
25 1 23.9293 1.05923 -0.270974 23.9293 1.05923 -0.270974
26 2 25.8421 1.13059 1.2631 25.8421 1.13059 1.2631
27 2 25.689 0.978661 -1.96738 25.689 0.978661 -1.96738
28 1 26.7305 2.74987 -0.611343 26.7305 2.74987 -0.611343
29 2 28.4524 2.66361 1.05984 28.4524 2.66361 1.05984
30 2 28.7517 2.69461 -2.20487 28.7517 2.69461 -2.20487
31 1 29.6208 1.05793 -0.530807 29.6208 1.05793 -0.530807
32 2 31.4809 0.951926 1.00878 31.4809 0.951926 1.00878
33 2 31.3834 1.10004 -2.22754 31.3834 1.10004 -2.22754
34 1 32.4142 2.70374 -0.658109 32.4142 2.70374 -0.658109
35 2 34.1421 2.58045 1.03634 34.1421 2.58045 1.03634
36 2 34.4241 2.78434 -2.15626 34.4241 2.78434 -2.15626
37 1 35.2207 1.07199 -0.611191 35.2207 1.07199 -0.611191
38 2 37.1395 0.915322 0.800605 37.1395 0.915322 0.800605
39 2 37.0506 1.33405 -2.31619 37.0506 1.33405 -2.31619
40 1 38.1457 2.7859 -0.615685 38.1457 2.7859 -0.615685
41 2 40.0774 2.58889 1.01992 40.0774 2.58889 1.01992
42 2 40.0697 2.96414 -2.26354 40.0697 2.96414 -2.26354
43 1 40.9467 1.03943 -0.807326 40.9467 1.03943 -0.807326
44 2 42.9302 0.921289 1.01444 42.9302 0.921289 1.01444
45 2 42.983 1.01027 -2.3117 42.983 1.01027 -2.3117
46 1 43.8358 2.70205 -0.724359 43.8358 2.70205 -0.724359
47 2 45.8078 2.64612 0.830558 45.8078 2.64612 0.830558
48 2 45.5582 2.72467 -2.40511 45.5582 2.72467 -2.40511
49 1 46.6286 0.946945 -0.925742 46.6286 0.946945 -0.925742
50 2 48.6341 0.963016 0.513813 48.6341 0.963016 0.513813
51 2 48.4103 1.02557 -2.65372 48.4103 1.02557 -2.65372
52 1 49.5711 2.60762 -1.02916 49.5711 2.60762 -1.02916
53 2 51.3741 2.48163 0.560147 51.3741 2.48163 0.560147
54 2 51.399 2.72867 -2.70979 51.399 2.72867 -2.70979
55 1 1.00208 4.30502 -1.01138 1.00208 4.30502 -1.01138
56 2 2.72225 4.21937 0.837614 2.72225 4.21937 0.837614
57 2 3.14392 4.31859 -2.44966 3.14392 4.31859 -2.44966
58 1 3.80579 5.94835 -0.574286 3.80579 5.94835 -0.574286
59 2 5.68967 5.74001 1.11415 5.68967 5.74001 1.11415
60 2 5.76992 6.10398 -2.20167 5.76992 6.10398 -2.20167
61 1 6.76039 4.36512 -0.673717 6.76039 4.36512 -0.673717
62 2 8.59872 4.22945 0.970143 8.59872 4.22945 0.970143
63 2 8.7031 4.34252 -2.36511 8.7031 4.34252 -2.36511
64 1 9.63898 5.94811 -0.593181 9.63898 5.94811 -0.593181
65 2 11.4679 5.885 1.2083 11.4679 5.885 1.2083
66 2 11.7459 6.03902 -1.95768 11.7459 6.03902 -1.95768
67 1 12.5197 4.28782 -0.423198 12.5197 4.28782 -0.423198
68 2 14.3297 4.34783 1.35095 14.3297 4.34783 1.35095
69 2 14.4893 4.3742 -1.9625 14.4893 4.3742 -1.9625
70 1 15.4358 5.93359 -0.231282 15.4358 5.93359 -0.231282
71 2 17.3823 6.03905 1.46079 17.3823 6.03905 1.46079
72 2 17.206 5.89335 -1.85842 17.206 5.89335 -1.85842
73 1 18.2012 4.34369 -0.130428 18.2012 4.34369 -0.130428
74 2 20.1244 4.23293 1.44202 20.1244 4.23293 1.44202
75 2 19.9605 4.34402 -1.8873 19.9605 4.34402 -1.8873
76 1 21.0783 6.09731 -0.313403 21.0783 6.09731 -0.313403
77 2 23.0095 5.88586 1.23209 23.0095 5.88586 1.23209
78 2 22.9511 6.20084 -1.95812 22.9511 6.20084 -1.95812
79 1 23.8676 4.45466 -0.554784 23.8676 4.45466 -0.554784
80 2 25.7986 4.28095 1.03328 25.7986 4.28095 1.03328
81 2 25.755 4.44786 -2.18797 25.755 4.44786 -2.18797
82 1 26.7008 5.97353 -0.479005 26.7008 5.97353 -0.479005
83 2 28.5717 5.89424 1.20194 28.5717 5.89424 1.20194
84 2 28.7817 6.22754 -2.00728 28.7817 6.22754 -2.00728
85 1 29.5674 4.296 -0.445593 29.5674 4.296 -0.445593
86 2 31.4104 4.1503 1.22637 31.4104 4.1503 1.22637
87 2 31.4951 4.64225 -1.99972 31.4951 4.64225 -1.99972
88 1 32.4518 5.9736 -0.159395 32.4518 5.9736 -0.159395
89 2 34.4699 5.90124 1.4162 34.4699 5.90124 1.4162
90 2 34.304 6.11591 -1.80937 34.304 6.11591 -1.80937
91 1 35.2477 4.36848 -0.349603 35.2477 4.36848 -0.349603
92 2 37.2224 4.3027 1.16359 37.2224 4.3027 1.16359
93 2 36.9786 4.57594 -2.1174 36.9786 4.57594 -2.1174
94 1 38.1124 5.95351 -0.324348 38.1124 5.95351 -0.324348
95 2 40.0892 5.83589 1.23957 40.0892 5.83589 1.23957
96 2 40.0301 6.05145 -1.99431 40.0301 6.05145 -1.99431
97 1 41.0174 4.29926 -0.475202 41.0174 4.29926 -0.475202
98 2 42.9846 4.11619 1.09958 42.9846 4.11619 1.09958
99 2 42.8502 4.4554 -2.1953 42.8502 4.4554 -2.1953
100 1 43.8165 5.88977 -0.41268 43.8165 5.88977 -0.41268
101 2 45.8146 5.91758 1.15329 45.8146 5.91758 1.15329
102 2 45.6262 6.11742 -2.12164 45.6262 6.11742 -2.12164
103 1 46.7146 4.32602 -0.83329 46.7146 4.32602 -0.83329
104 2 48.6534 4.09742 0.714722 48.6534 4.09742 0.714722
105 2 48.5653 4.37648 -2.45818 48.5653 4.37648 -2.45818
106 1 49.5385 5.90161 -0.893765 49.5385 5.90161 -0.893765
107 2 51.4379 5.71712 0.748839 51.4379 5.71712 0.748839
108 2 51.5012 6.19716 -2.49398 51.5012 6.19716 -2.49398
109 1 1.00772 7.56891 -0.646505 1.00772 7.56891 -0.646505
110 2 2.78306 7.50719 1.10026 2.78306 7.50719 1.10026
111 2 3.05962 7.75307 -2.09702 3.05962 7.75307 -2.09702
112 1 3.83255 9.22361 -0.190594 3.83255 9.22361 -0.190594
113 2 5.72959 9.13642 1.39224 5.72959 9.13642 1.39224
114 2 5.76924 9.25119 -1.94729 5.76924 9.25119 -1.94729
115 1 6.70256 7.53337 -0.338203 6.70256 7.53337 -0.338203
116 2 8.6332 7.25303 1.28182 8.6332 7.25303 1.28182
117 2 8.63819 7.86455 -1.93233 8.63819 7.86455 -1.93233
118 1 9.5698 9.19379 -0.0186265 9.5698 9.19379 -0.0186265
119 2 11.5779 9.00605 1.62373 11.5779 9.00605 1.62373
120 2 11.5736 9.34122 -1.60544 11.5736 9.34122 -1.60544
121 1 12.5364 7.55041 -0.189645 12.5364 7.55041 -0.189645
122 2 14.4509 7.42076 1.43523 14.4509 7.42076 1.43523
123 2 14.3258 7.56483 -1.85658 14.3258 7.56483 -1.85658
124 1 15.2738 9.2644 -0.246145 15.2738 9.2644 -0.246145
125 2 17.2445 9.1537 1.40012 17.2445 9.1537 1.40012
126 2 17.3659 9.43483 -1.9647 17.3659 9.43483 -1.9647
127 1 18.2062 7.69699 -0.363389 18.2062 7.69699 -0.363389
128 2 19.997 7.54513 1.45862 19.997 7.54513 1.45862
129 2 20.2791 7.81072 -1.81331 20.2791 7.81072 -1.81331
130 1 21.0777 9.35311 -0.134612 21.0777 9.35311 -0.134612
131 2 22.915 9.22066 1.50314 22.915 9.22066 1.50314
132 2 23.0924 9.44537 -1.722 23.0924 9.44537 -1.722
133 1 23.9237 7.73633 -0.266922 23.9237 7.73633 -0.266922
134 2 25.8158 7.42043 1.37009 25.8158 7.42043 1.37009
135 2 25.8271 7.75318 -1.9561 25.8271 7.75318 -1.9561
136 1 26.7785 9.2539 -0.0744657 26.7785 9.2539 -0.0744657
137 2 28.6882 9.33172 1.48604 28.6882 9.33172 1.48604
138 2 28.6277 9.26618 -1.67832 28.6277 9.26618 -1.67832
139 1 29.6053 7.70437 -0.175951 29.6053 7.70437 -0.175951
140 2 31.5037 7.45548 1.54167 31.5037 7.45548 1.54167
141 2 31.5734 7.72796 -1.71047 31.5734 7.72796 -1.71047
142 1 32.4697 9.26005 0.133843 32.4697 9.26005 0.133843
143 2 34.5006 9.10858 1.57337 34.5006 9.10858 1.57337
144 2 34.2594 9.31111 -1.61903 34.2594 9.31111 -1.61903
145 1 35.3496 7.63649 -0.156865 35.3496 7.63649 -0.156865
146 2 37.2255 7.4278 1.48558 37.2255 7.4278 1.48558
147 2 37.1592 7.65561 -1.78714 37.1592 7.65561 -1.78714
148 1 38.1904 9.22778 -0.063311 38.1904 9.22778 -0.063311
149 2 40.1578 9.24754 1.42566 40.1578 9.24754 1.42566
150 2 39.9943 9.14794 -1.78685 39.9943 9.14794 -1.78685
151 1 41.0495 7.59903 -0.2145 41.0495 7.59903 -0.2145
152 2 43.0567 7.61534 1.19795 43.0567 7.61534 1.19795
153 2 42.8618 7.63005 -2.05756 42.8618 7.63005 -2.05756
154 1 43.8826 9.21624 -0.548666 43.8826 9.21624 -0.548666
155 2 45.7005 9.32452 1.09876 45.7005 9.32452 1.09876
156 2 45.7702 9.33187 -2.19756 45.7702 9.33187 -2.19756
157 1 46.7201 7.64631 -0.471601 46.7201 7.64631 -0.471601
158 2 48.7155 7.19616 1.00148 48.7155 7.19616 1.00148
159 2 48.4613 7.73564 -2.27492 48.4613 7.73564 -2.27492
160 1 49.4952 9.15463 -0.541989 49.4952 9.15463 -0.541989
161 2 51.4114 9.03927 1.16607 51.4114 9.03927 1.16607
162 2 51.3849 9.41063 -2.18295 51.3849 9.41063 -2.18295
163 1 0.945209 10.8198 -0.36104 0.945209 10.8198 -0.36104
164 2 2.91417 11.0735 1.36337 2.91417 11.0735 1.36337
165 2 3.01105 10.7214 -1.91888 3.01105 10.7214 -1.91888
166 1 3.85051 12.5424 -0.365651 3.85051 12.5424 -0.365651
167 2 5.72178 12.5433 1.40202 5.72178 12.5433 1.40202
168 2 5.82981 12.5233 -1.91352 5.82981 12.5233 -1.91352
169 1 6.62639 10.8935 -0.211 6.62639 10.8935 -0.211
170 2 8.43788 10.709 1.51568 8.43788 10.709 1.51568
171 2 8.75387 10.8795 -1.71698 8.75387 10.8795 -1.71698
172 1 9.53808 12.4772 0.149141 9.53808 12.4772 0.149141
173 2 11.2933 12.3138 1.9483 11.2933 12.3138 1.9483
174 2 11.6247 12.5613 -1.42205 11.6247 12.5613 -1.42205
175 1 12.4566 10.8075 0.183898 12.4566 10.8075 0.183898
176 2 14.3754 10.7177 1.6977 14.3754 10.7177 1.6977
177 2 14.2979 11.1706 -1.52824 14.2979 11.1706 -1.52824
178 1 15.2937 12.516 0.239008 15.2937 12.516 0.239008
179 2 17.224 12.3209 1.73122 17.224 12.3209 1.73122
180 2 17.1055 12.8247 -1.52043 17.1055 12.8247 -1.52043
181 1 18.2056 10.9826 -0.22572 18.2056 10.9826 -0.22572
182 2 19.9154 10.7739 1.60378 19.9154 10.7739 1.60378
183 2 20.2606 11.2212 -1.74551 20.2606 11.2212 -1.74551
184 1 20.9983 12.5303 0.160587 20.9983 12.5303 0.160587
185 2 22.9873 12.5629 1.77714 22.9873 12.5629 1.77714
186 2 22.8783 12.6731 -1.56343 22.8783 12.6731 -1.56343
187 1 23.9797 10.9731 0.076772 23.9797 10.9731 0.076772
188 2 25.9569 10.9924 1.57155 25.9569 10.9924 1.57155
189 2 25.7207 10.9968 -1.79581 25.7207 10.9968 -1.79581
190 1 26.7754 12.6538 -0.12558 26.7754 12.6538 -0.12558
191 2 28.6528 12.6301 1.52072 28.6528 12.6301 1.52072
192 2 28.6356 12.4994 -1.75205 28.6356 12.4994 -1.75205
193 1 29.6395 10.9518 -0.0502071 29.6395 10.9518 -0.0502071
194 2 31.5946 11.0695 1.65453 31.5946 11.0695 1.65453
195 2 31.5296 10.7704 -1.69316 31.5296 10.7704 -1.69316
196 1 32.5401 12.5693 -0.120585 32.5401 12.5693 -0.120585
197 2 34.3703 12.6217 1.62424 34.3703 12.6217 1.62424
198 2 34.4303 12.5599 -1.62348 34.4303 12.5599 -1.62348
199 1 35.2939 10.8745 0.0552045 35.2939 10.8745 0.0552045
200 2 37.3877 11.0309 1.49479 37.3877 11.0309 1.49479
201 2 36.9944 10.8552 -1.75043 36.9944 10.8552 -1.75043
202 1 38.0673 12.5675 -0.201236 38.0673 12.5675 -0.201236
203 2 40.1331 12.6354 1.28048 40.1331 12.6354 1.28048
204 2 39.9138 12.473 -1.87818 39.9138 12.473 -1.87818
205 1 40.9331 10.9018 -0.258965 40.9331 10.9018 -0.258965
206 2 43.0124 10.872 1.18979 43.0124 10.872 1.18979
207 2 42.8539 10.7684 -2.11764 42.8539 10.7684 -2.11764
208 1 43.8083 12.5086 -0.59058 43.8083 12.5086 -0.59058
209 2 45.7114 12.5367 1.10308 45.7114 12.5367 1.10308
210 2 45.7864 12.5055 -2.17826 45.7864 12.5055 -2.17826
211 1 46.736 10.9184 -0.461654 46.736 10.9184 -0.461654
212 2 48.6252 10.8664 1.13989 48.6252 10.8664 1.13989
213 2 48.4414 10.8669 -2.22145 48.4414 10.8669 -2.22145
214 1 49.5335 12.5595 -0.560973 49.5335 12.5595 -0.560973
215 2 51.326 12.5443 1.16404 51.326 12.5443 1.16404
216 2 51.614 12.42 -2.03285 51.614 12.42 -2.03285
217 1 0.938559 14.1284 -0.357074 0.938559 14.1284 -0.357074
218 2 2.80355 13.9122 1.35201 2.80355 13.9122 1.35201
219 2 2.97473 14.2485 -1.96269 2.97473 14.2485 -1.96269
220 1 3.86046 15.7544 -0.0389163 3.86046 15.7544 -0.0389163
221 2 5.78588 15.6347 1.58275 5.78588 15.6347 1.58275
222 2 5.92439 15.9046 -1.7839 5.92439 15.9046 -1.7839
223 1 6.73899 14.1364 -0.171429 6.73899 14.1364 -0.171429
224 2 8.33232 14.1441 1.66308 8.33232 14.1441 1.66308
225 2 8.8404 14.1975 -1.56909 8.8404 14.1975 -1.56909
226 1 9.54827 15.8527 0.162497 9.54827 15.8527 0.162497
227 2 11.3107 15.7884 1.96775 11.3107 15.7884 1.96775
228 2 11.4831 15.8926 -1.29792 11.4831 15.8926 -1.29792
229 1 12.3263 14.1258 0.400598 12.3263 14.1258 0.400598
230 2 14.3382 14.0138 2.03555 14.3382 14.0138 2.03555
231 2 14.3383 14.2061 -1.31019 14.3383 14.2061 -1.31019
232 1 15.2893 15.7795 0.459523 15.2893 15.7795 0.459523
233 2 17.2107 15.754 2.01528 17.2107 15.754 2.01528
234 2 17.1148 15.997 -1.25578 17.1148 15.997 -1.25578
235 1 18.1118 14.249 0.255189 18.1118 14.249 0.255189
236 2 19.9455 14.0753 1.8445 19.9455 14.0753 1.8445
237 2 19.9943 14.2145 -1.35249 19.9943 14.2145 -1.35249
238 1 20.9435 15.8531 0.446327 20.9435 15.8531 0.446327
239 2 23.1362 15.8628 1.87185 23.1362 15.8628 1.87185
240 2 22.664 15.9066 -1.29689 22.664 15.9066 -1.29689
241 1 23.7875 14.1593 0.0983754 23.7875 14.1593 0.0983754
242 2 25.8301 14.0588 1.65509 25.8301 14.0588 1.65509
243 2 25.7116 14.4386 -1.64283 25.7116 14.4386 -1.64283
244 1 26.7131 15.9944 0.116716 26.7131 15.9944 0.116716
245 2 28.7311 15.9065 1.59864 28.7311 15.9065 1.59864
246 2 28.66 15.97 -1.58116 28.66 15.97 -1.58116
247 1 29.664 14.1709 -0.161115 29.664 14.1709 -0.161115
248 2 31.5225 14.2029 1.47473 31.5225 14.2029 1.47473
249 2 31.6172 14.2952 -1.77041 31.6172 14.2952 -1.77041
250 1 32.4035 15.9367 0.012012 32.4035 15.9367 0.012012
251 2 34.3904 15.9836 1.61382 34.3904 15.9836 1.61382
252 2 34.1786 15.689 -1.65058 34.1786 15.689 -1.65058
253 1 35.2101 14.1935 -0.0288573 35.2101 14.1935 -0.0288573
254 2 37.1767 14.2593 1.43402 37.1767 14.2593 1.43402
255 2 37.0419 14.1989 -1.78047 37.0419 14.1989 -1.78047
256 1 38.1409 15.8844 -0.241049 38.1409 15.8844 -0.241049
257 2 40.102 15.6954 1.19296 40.102 15.6954 1.19296
258 2 39.9133 15.7702 -1.99186 39.9133 15.7702 -1.99186
259 1 40.9617 14.1303 -0.507739 40.9617 14.1303 -0.507739
260 2 42.8693 14.2284 1.00671 42.8693 14.2284 1.00671
261 2 42.8403 14.1225 -2.14975 42.8403 14.1225 -2.14975
262 1 43.8449 15.8312 -0.555166 43.8449 15.8312 -0.555166
263 2 45.8006 15.7399 1.09236 45.8006 15.7399 1.09236
264 2 45.7776 15.9047 -2.13548 45.7776 15.9047 -2.13548
265 1 46.6355 14.1378 -0.61144 46.6355 14.1378 -0.61144
266 2 48.5571 14.0328 1.07967 48.5571 14.0328 1.07967
267 2 48.6348 14.2424 -2.16951 48.6348 14.2424 -2.16951
268 1 49.5442 15.8197 -0.396241 49.5442 15.8197 -0.396241
269 2 51.2837 15.6021 1.39841 51.2837 15.6021 1.39841
270 2 51.647 15.9248 -1.97619 51.647 15.9248 -1.97619
271 1 0.941729 17.3748 -0.0210458 0.941729 17.3748 -0.0210458
272 2 2.78742 17.3622 1.74311 2.78742 17.3622 1.74311
273 2 2.96692 17.4556 -1.56376 2.96692 17.4556 -1.56376
274 1 3.86264 18.9836 0.208805 3.86264 18.9836 0.208805
275 2 5.77828 18.8571 1.88682 5.77828 18.8571 1.88682
276 2 5.72757 19.3131 -1.43825 5.72757 19.3131 -1.43825
277 1 6.71648 17.4064 0.0764965 6.71648 17.4064 0.0764965
278 2 8.52715 17.2876 1.83392 8.52715 17.2876 1.83392
279 2 8.73115 17.6226 -1.33711 8.73115 17.6226 -1.33711
280 1 9.58466 19.0989 0.507057 9.58466 19.0989 0.507057
281 2 11.6336 19.1421 2.08993 11.6336 19.1421 2.08993
282 2 11.4215 19.0577 -1.18292 11.4215 19.0577 -1.18292
283 1 12.3808 17.4341 0.548566 12.3808 17.4341 0.548566
284 2 14.4516 17.5554 2.02699 14.4516 17.5554 2.02699
285 2 14.1531 17.259 -1.2531 14.1531 17.259 -1.2531
286 1 15.3263 19.1013 0.220489 15.3263 19.1013 0.220489
287 2 17.0556 19.2577 1.91054 17.0556 19.2577 1.91054
288 2 17.2138 18.9717 -1.37261 17.2138 18.9717 -1.37261
289 1 18.0964 17.5046 0.448637 18.0964 17.5046 0.448637
290 2 19.9658 17.5281 2.09224 19.9658 17.5281 2.09224
291 2 19.9554 17.5781 -1.26478 19.9554 17.5781 -1.26478
292 1 21.0223 19.1814 0.481909 21.0223 19.1814 0.481909
293 2 22.9509 18.9844 2.00548 22.9509 18.9844 2.00548
294 2 22.8554 19.293 -1.1705 22.8554 19.293 -1.1705
295 1 23.8512 17.4895 0.194479 23.8512 17.4895 0.194479
296 2 25.7437 17.4154 1.8692 25.7437 17.4154 1.8692
297 2 25.6392 17.6413 -1.4136 25.6392 17.6413 -1.4136
298 1 26.749 19.2217 0.282529 26.749 19.2217 0.282529
299 2 28.7235 18.943 1.80917 28.7235 18.943 1.80917
300 2 28.5306 19.2214 -1.40392 28.5306 19.2214 -1.40392
301 1 29.7138 17.57 0.0492828 29.7138 17.57 0.0492828
302 2 31.478 17.5375 1.78201 31.478 17.5375 1.78201
303 2 31.6847 17.6835 -1.61781 31.6847 17.6835 -1.61781
304 1 32.506 19.2562 0.164153 32.506 19.2562 0.164153
305 2 34.5222 19.0188 1.64483 34.5222 19.0188 1.64483
306 2 34.226 19.3103 -1.52331 34.226 19.3103 -1.52331
307 1 35.2346 17.4999 -0.258585 35.2346 17.4999 -0.258585
308 2 37.1825 17.4199 1.30561 37.1825 17.4199 1.30561
309 2 37.1498 17.5204 -1.86428 37.1498 17.5204 -1.86428
310 1 38.0884 19.0964 -0.244245 38.0884 19.0964 -0.244245
311 2 40.2223 19.0954 1.1379 40.2223 19.0954 1.1379
312 2 39.9067 19.2246 -1.96286 39.9067 19.2246 -1.96286
313 1 41.0111 17.4286 -0.516168 41.0111 17.4286 -0.516168
314 2 42.9132 17.4387 1.08709 42.9132 17.4387 1.08709
315 2 42.8818 17.4838 -2.17461 42.8818 17.4838 -2.17461
316 1 43.8635 19.1052 -0.487011 43.8635 19.1052 -0.487011
317 2 45.626 19.1873 1.18335 45.626 19.1873 1.18335
318 2 45.7092 19.191 -2.16779 45.7092 19.191 -2.16779
319 1 46.7141 17.5628 -0.430529 46.7141 17.5628 -0.430529
320 2 48.5563 17.3498 1.29646 48.5563 17.3498 1.29646
321 2 48.6067 17.5603 -2.02172 48.6067 17.5603 -2.02172
322 1 49.53 19.0418 -0.261821 49.53 19.0418 -0.261821
323 2 51.235 18.9111 1.53772 51.235 18.9111 1.53772
324 2 51.4662 19.0507 -1.6496 51.4662 19.0507 -1.6496
325 1 0.966311 20.6298 0.130078 0.966311 20.6298 0.130078
326 2 2.8205 20.6085 1.89412 2.8205 20.6085 1.89412
327 2 2.98166 20.7151 -1.42899 2.98166 20.7151 -1.42899
328 1 3.82543 22.3753 0.428493 3.82543 22.3753 0.428493
329 2 5.72156 22.4546 2.01935 5.72156 22.4546 2.01935
330 2 5.75666 22.2357 -1.20596 5.75666 22.2357 -1.20596
331 1 6.76489 20.6597 0.418375 6.76489 20.6597 0.418375
332 2 8.54877 20.7452 2.11966 8.54877 20.7452 2.11966
333 2 8.80134 20.7383 -1.14594 8.80134 20.7383 -1.14594
334 1 9.56486 22.3594 0.562683 9.56486 22.3594 0.562683
335 2 11.5832 22.3112 2.06489 11.5832 22.3112 2.06489
336 2 11.3178 22.345 -1.2358 11.3178 22.345 -1.2358
337 1 12.4615 20.7057 0.365289 12.4615 20.7057 0.365289
338 2 14.4291 20.7562 1.85326 14.4291 20.7562 1.85326
339 2 14.2533 20.6559 -1.40551 14.2533 20.6559 -1.40551
340 1 15.2579 22.3325 0.122389 15.2579 22.3325 0.122389
341 2 17.0524 22.3645 1.86455 17.0524 22.3645 1.86455
342 2 17.1892 22.3997 -1.47359 17.1892 22.3997 -1.47359
343 1 18.1385 20.7653 0.271202 18.1385 20.7653 0.271202
344 2 19.9269 20.8315 1.98893 19.9269 20.8315 1.98893
345 2 20.1509 20.8207 -1.24839 20.1509 20.8207 -1.24839
346 1 20.9615 22.489 0.369355 20.9615 22.489 0.369355
347 2 22.7317 22.4321 2.08595 22.7317 22.4321 2.08595
348 2 22.9158 22.4368 -1.14208 22.9158 22.4368 -1.14208
349 1 23.8457 20.7763 0.533793 23.8457 20.7763 0.533793
350 2 25.8179 20.626 2.10864 25.8179 20.626 2.10864
351 2 25.6298 20.9417 -1.24335 25.6298 20.9417 -1.24335
352 1 26.7364 22.5007 0.589995 26.7364 22.5007 0.589995
353 2 28.7607 22.4745 2.0422 28.7607 22.4745 2.0422
354 2 28.5122 22.4576 -1.234 28.5122 22.4576 -1.234
355 1 29.6529 20.8106 0.308338 29.6529 20.8106 0.308338
356 2 31.646 20.9513 1.79099 31.646 20.9513 1.79099
357 2 31.3465 20.7065 -1.46534 31.3465 20.7065 -1.46534
358 1 32.357 22.4594 0.0970559 32.357 22.4594 0.0970559
359 2 34.2971 22.3729 1.74123 34.2971 22.3729 1.74123
360 2 34.2041 22.4048 -1.58584 34.2041 22.4048 -1.58584
361 1 35.3208 20.7136 0.0828366 35.3208 20.7136 0.0828366
362 2 37.4988 20.7471 1.5575 37.4988 20.7471 1.5575
363 2 36.9582 20.6902 -1.71933 36.9582 20.6902 -1.71933
364 1 38.0792 22.465 -0.228695 38.0792 22.465 -0.228695
365 2 40.0107 22.3365 1.30588 40.0107 22.3365 1.30588
366 2 39.9949 22.5147 -1.90869 39.9949 22.5147 -1.90869
367 1 40.9905 20.7939 -0.457202 40.9905 20.7939 -0.457202
368 2 42.9963 20.726 1.19305 42.9963 20.726 1.19305
369 2 42.902 20.7968 -2.07799 42.902 20.7968 -2.07799
370 1 43.8469 22.4248 -0.448166 43.8469 22.4248 -0.448166
371 2 45.7282 22.2934 1.2862 45.7282 22.2934 1.2862
372 2 45.8054 22.5207 -2.05916 45.8054 22.5207 -2.05916
373 1 46.7057 20.7076 -0.512838 46.7057 20.7076 -0.512838
374 2 48.3281 20.5976 1.28998 48.3281 20.5976 1.28998
375 2 48.9294 20.8527 -1.88467 48.9294 20.8527 -1.88467
376 1 49.6191 22.4468 0.0431123 49.6191 22.4468 0.0431123
377 2 51.3259 22.2233 1.86869 51.3259 22.2233 1.86869
378 2 51.6277 22.5329 -1.40232 51.6277 22.5329 -1.40232
379 1 1.0361 24.0348 0.515183 1.0361 24.0348 0.515183
380 2 2.99041 24.2648 1.95478 2.99041 24.2648 1.95478
381 2 2.86906 23.9555 -1.242 2.86906 23.9555 -1.242
382 1 3.88243 25.7489 0.15373 3.88243 25.7489 0.15373
383 2 5.79608 25.8843 1.8598 5.79608 25.8843 1.8598
384 2 5.7769 25.5374 -1.38596 5.7769 25.5374 -1.38596
385 1 6.72563 24.024 0.405667 6.72563 24.024 0.405667
386 2 8.70493 24.1947 2.10879 8.70493 24.1947 2.10879
387 2 8.59818 23.85 -1.21802 8.59818 23.85 -1.21802
388 1 9.60592 25.6351 0.35841 9.60592 25.6351 0.35841
389 2 11.5884 25.7482 1.99425 11.5884 25.7482 1.99425
390 2 11.4146 25.6208 -1.36605 11.4146 25.6208 -1.36605
391 1 12.3783 24.0272 0.312067 12.3783 24.0272 0.312067
392 2 14.3391 23.9047 1.84881 14.3391 23.9047 1.84881
393 2 14.3228 24.1495 -1.38467 14.3228 24.1495 -1.38467
394 1 15.2193 25.6211 0.322273 15.2193 25.6211 0.322273
395 2 17.1547 25.66 2.16755 17.1547 25.66 2.16755
396 2 17.2656 25.9161 -1.15335 17.2656 25.9161 -1.15335
397 1 18.0568 24.0252 0.450701 18.0568 24.0252 0.450701
398 2 19.8088 23.863 2.09396 19.8088 23.863 2.09396
399 2 20.0179 24.3495 -1.13575 20.0179 24.3495 -1.13575
400 1 20.9128 25.7112 0.607556 20.9128 25.7112 0.607556
401 2 22.7764 25.584 2.32757 22.7764 25.584 2.32757
402 2 22.8963 25.8826 -1.09397 22.8963 25.8826 -1.09397
403 1 23.7786 24.1196 0.474616 23.7786 24.1196 0.474616
404 2 25.6741 24.2193 2.21578 25.6741 24.2193 2.21578
405 2 25.7361 24.0544 -1.04376 25.7361 24.0544 -1.04376
406 1 26.6676 25.6891 0.472574 26.6676 25.6891 0.472574
407 2 28.6842 25.7132 2.00801 28.6842 25.7132 2.00801
408 2 28.4466 25.6927 -1.23848 28.4466 25.6927 -1.23848
409 1 29.6002 24.059 0.321745 29.6002 24.059 0.321745
410 2 31.4618 24.0377 1.83379 31.4618 24.0377 1.83379
411 2 31.4235 24.1767 -1.41485 31.4235 24.1767 -1.41485
412 1 32.4856 25.6661 0.308933 32.4856 25.6661 0.308933
413 2 34.6068 25.7267 1.75262 34.6068 25.7267 1.75262
414 2 34.1382 25.727 -1.50268 34.1382 25.727 -1.50268
415 1 35.2365 23.9918 0.0369544 35.2365 23.9918 0.0369544
416 2 37.1775 24.0065 1.62921 37.1775 24.0065 1.62921
417 2 37.1163 24.2345 -1.70404 37.1163 24.2345 -1.70404
418 1 38.1514 25.7373 0.0810856 38.1514 25.7373 0.0810856
419 2 40.2399 25.7607 1.51806 40.2399 25.7607 1.51806
420 2 39.8892 25.665 -1.76976 39.8892 25.665 -1.76976
421 1 40.9513 24.0717 -0.183771 40.9513 24.0717 -0.183771
422 2 43.1452 24.2416 1.28705 43.1452 24.2416 1.28705
423 2 42.6932 24.1082 -2.00369 42.6932 24.1082 -2.00369
424 1 43.883 25.7318 -0.553711 43.883 25.7318 -0.553711
425 2 45.6773 25.7148 1.31571 45.6773 25.7148 1.31571
426 2 46.0706 25.8191 -1.93131 46.0706 25.8191 -1.93131
427 1 46.7455 24.0611 -0.219322 46.7455 24.0611 -0.219322
428 2 48.4419 23.8618 1.66276 48.4419 23.8618 1.66276
429 2 48.7918 24.1287 -1.64514 48.7918 24.1287 -1.64514
430 1 49.5239 25.7224 0.208252 49.5239 25.7224 0.208252
431 2 51.3664 25.7673 1.91765 51.3664 25.7673 1.91765
432 2 51.5659 25.6797 -1.34564 51.5659 25.6797 -1.34564
433 1 1.04825 27.3805 0.215052 1.04825 27.3805 0.215052
434 2 3.15632 27.5176 1.72299 3.15632 27.5176 1.72299
435 2 2.80344 27.3941 -1.51252 2.80344 27.3941 -1.51252
436 1 3.93955 28.9772 -0.0764823 3.93955 28.9772 -0.0764823
437 2 5.70776 29.0485 1.63631 5.70776 29.0485 1.63631
438 2 5.87014 28.9163 -1.65299 5.87014 28.9163 -1.65299
439 1 6.76919 27.3354 0.0685973 6.76919 27.3354 0.0685973
440 2 8.53546 27.3317 1.8549 8.53546 27.3317 1.8549
441 2 8.87162 27.3064 -1.36873 8.87162 27.3064 -1.36873
442 1 9.5205 29.034 0.289194 9.5205 29.034 0.289194
443 2 11.3652 28.9236 1.99903 11.3652 28.9236 1.99903
444 2 11.5126 28.9846 -1.23037 11.5126 28.9846 -1.23037
445 1 12.353 27.3071 0.326385 12.353 27.3071 0.326385
446 2 14.2123 27.3593 2.1339 14.2123 27.3593 2.1339
447 2 14.328 27.3633 -1.17942 14.328 27.3633 -1.17942
448 1 15.2074 28.9983 0.495944 15.2074 28.9983 0.495944
449 2 17.0497 28.9921 2.21888 17.0497 28.9921 2.21888
450 2 17.1984 29.0381 -1.11294 17.1984 29.0381 -1.11294
451 1 18.0998 27.4359 0.640276 18.0998 27.4359 0.640276
452 2 20.024 27.4287 2.23941 20.024 27.4287 2.23941
453 2 19.8921 27.4222 -1.02703 19.8921 27.4222 -1.02703
454 1 21.0055 29.0387 0.534091 21.0055 29.0387 0.534091
455 2 22.7369 28.9126 2.34336 22.7369 28.9126 2.34336
456 2 23.0441 29.036 -0.861578 23.0441 29.036 -0.861578
457 1 23.875 27.3601 0.710437 23.875 27.3601 0.710437
458 2 25.7437 27.2464 2.20688 25.7437 27.2464 2.20688
459 2 25.754 27.4243 -1.00806 25.754 27.4243 -1.00806
460 1 26.7172 29.0066 0.578232 26.7172 29.0066 0.578232
461 2 28.897 28.9931 1.97213 28.897 28.9931 1.97213
462 2 28.5593 28.976 -1.1989 28.5593 28.976 -1.1989
463 1 29.5913 27.256 0.315354 29.5913 27.256 0.315354
464 2 31.6092 27.4659 1.79065 31.6092 27.4659 1.79065
465 2 31.4187 27.2973 -1.46592 31.4187 27.2973 -1.46592
466 1 32.4572 29.0487 -0.0270503 32.4572 29.0487 -0.0270503
467 2 34.3962 28.9949 1.60786 34.3962 28.9949 1.60786
468 2 34.3078 28.92 -1.6815 34.3078 28.92 -1.6815
469 1 35.3485 27.2984 -0.0403249 35.3485 27.2984 -0.0403249
470 2 37.2457 27.4668 1.64779 37.2457 27.4668 1.64779
471 2 37.3488 27.2913 -1.74759 37.3488 27.2913 -1.74759
472 1 38.1706 28.9943 -0.136962 38.1706 28.9943 -0.136962
473 2 40.2336 28.8635 1.46299 40.2336 28.8635 1.46299
474 2 40.1151 29.0475 -1.78427 40.1151 29.0475 -1.78427
475 1 41.082 27.3027 -0.24068 41.082 27.3027 -0.24068
476 2 43.0346 27.2092 1.27163 43.0346 27.2092 1.27163
477 2 42.7289 27.5561 -1.98197 42.7289 27.5561 -1.98197
478 1 43.865 29.0158 -0.284706 43.865 29.0158 -0.284706
479 2 45.5475 29.067 1.48161 45.5475 29.067 1.48161
480 2 45.8291 29.1482 -1.77763 45.8291 29.1482 -1.77763
481 1 46.7586 27.4117 -0.111858 46.7586 27.4117 -0.111858
482 2 48.571 27.3607 1.78326 48.571 27.3607 1.78326
483 2 48.8079 27.3169 -1.55905 48.8079 27.3169 -1.55905
484 1 49.5404 28.9995 0.138751 49.5404 28.9995 0.138751
485 2 51.5258 29.1212 1.82627 51.5258 29.1212 1.82627
486 2 51.5137 29.0876 -1.4129 51.5137 29.0876 -1.4129
487 1 1.13079 30.6484 0.204999 1.13079 30.6484 0.204999
488 2 3.08926 30.6358 1.723 3.08926 30.6358 1.723
489 2 2.82784 30.821 -1.64977 2.82784 30.821 -1.64977
490 1 3.9046 32.3947 0.0573622 3.9046 32.3947 0.0573622
491 2 5.78783 32.3979 1.62326 5.78783 32.3979 1.62326
492 2 5.68957 32.3944 -1.59978 5.68957 32.3944 -1.59978
493 1 6.68928 30.7786 -0.0088658 6.68928 30.7786 -0.0088658
494 2 8.49652 30.7393 1.75573 8.49652 30.7393 1.75573
495 2 8.72256 30.6876 -1.46483 8.72256 30.6876 -1.46483
496 1 9.52079 32.3831 0.143648 9.52079 32.3831 0.143648
497 2 11.1707 32.2082 2.07944 11.1707 32.2082 2.07944
498 2 11.7136 32.3906 -1.26512 11.7136 32.3906 -1.26512
499 1 12.3765 30.6497 0.492921 12.3765 30.6497 0.492921
500 2 14.2301 30.5881 2.24015 14.2301 30.5881 2.24015
501 2 14.3491 30.805 -1.13692 14.3491 30.805 -1.13692
502 1 15.1955 32.2956 0.795887 15.1955 32.2956 0.795887
503 2 17.1493 32.1713 2.38552 17.1493 32.1713 2.38552
504 2 17.1156 32.3814 -0.812888 17.1156 32.3814 -0.812888
505 1 18.1207 30.6371 0.588828 18.1207 30.6371 0.588828
506 2 20.0326 30.5772 2.30216 20.0326 30.5772 2.30216
507 2 19.997 30.68 -0.99624 19.997 30.68 -0.99624
508 1 21.0193 32.3307 0.639701 21.0193 32.3307 0.639701
509 2 22.9513 32.5358 2.26268 22.9513 32.5358 2.26268
510 2 22.9148 31.9676 -1.00878 22.9148 31.9676 -1.00878
511 1 23.8847 30.6512 0.885728 23.8847 30.6512 0.885728
512 2 26.0449 30.6743 2.21209 26.0449 30.6743 2.21209
513 2 25.6037 30.5663 -1.00004 25.6037 30.5663 -1.00004
514 1 26.8193 32.2986 0.392783 26.8193 32.2986 0.392783
515 2 28.6717 32.1727 1.97586 28.6717 32.1727 1.97586
516 2 28.735 32.292 -1.34984 28.735 32.292 -1.34984
517 1 29.5952 30.6446 0.25384 29.5952 30.6446 0.25384
518 2 31.5943 30.772 1.75298 31.5943 30.772 1.75298
519 2 31.3092 30.7517 -1.48203 31.3092 30.7517 -1.48203
520 1 32.5054 32.2922 0.0743101 32.5054 32.2922 0.0743101
521 2 34.3994 32.3184 1.51301 34.3994 32.3184 1.51301
522 2 34.2969 32.3675 -1.66323 34.2969 32.3675 -1.66323
523 1 35.2851 30.5814 -0.0111709 35.2851 30.5814 -0.0111709
524 2 37.2717 30.5532 1.58412 37.2717 30.5532 1.58412
525 2 37.0572 30.7208 -1.65207 37.0572 30.7208 -1.65207
526 1 38.0855 32.2875 -0.020236 38.0855 32.2875 -0.020236
527 2 40.0627 32.3571 1.58261 40.0627 32.3571 1.58261
528 2 39.9995 32.2139 -1.68606 39.9995 32.2139 -1.68606
529 1 41.0127 30.6705 -0.0601185 41.0127 30.6705 -0.0601185
530 2 43.0481 30.5813 1.502 43.0481 30.5813 1.502
531 2 42.8537 30.7875 -1.78352 42.8537 30.7875 -1.78352
532 1 43.8208 32.315 -0.151872 43.8208 32.315 -0.151872
533 2 45.7021 32.4409 1.48667 45.7021 32.4409 1.48667
534 2 45.741 32.3596 -1.75402 45.741 32.3596 -1.75402
535 1 46.6537 30.7516 -0.118611 46.6537 30.7516 -0.118611
536 2 48.5251 30.7943 1.66845 48.5251 30.7943 1.66845
537 2 48.7082 30.6633 -1.60828 48.7082 30.6633 -1.60828
538 1 49.5874 32.4073 0.0668855 49.5874 32.4073 0.0668855
539 2 51.5829 32.4096 1.67437 51.5829 32.4096 1.67437
540 2 51.4496 32.2546 -1.54588 51.4496 32.2546 -1.54588