ITEM: TIMESTEP
48300
ITEM: NUMBER OF ATOMS
810
ITEM: BOX BOUNDS pp pp pp
7.7135247111587046e-01 5.2246252528885044e+01
7.9743487689107806e-01 5.0218780123108246e+01
-1.0000000000000000e+01 1.0000000000000000e+01
ITEM: ATOMS id type x y z xu yu zu
1 1 0.986509 0.9548 0.0580045 0.986509 0.9548 0.0580045
2 2 2.69292 0.834476 1.86622 2.69292 0.834476 1.86622
3 2 3.07207 1.21796 -1.41613 3.07207 1.21796 -1.41613
4 1 3.84708 2.62147 0.416928 3.84708 2.62147 0.416928
5 2 5.76902 2.49127 2.07841 5.76902 2.49127 2.07841
6 2 5.72682 2.9024 -1.17178 5.72682 2.9024 -1.17178
7 1 6.67774 1.0035 0.246433 6.67774 1.0035 0.246433
8 2 8.60255 1.04193 1.66624 8.60255 1.04193 1.66624
9 2 8.57288 0.967657 -1.57899 8.57288 0.967657 -1.57899
10 1 9.54988 2.67075 -0.00142895 9.54988 2.67075 -0.00142895
11 2 11.5025 2.65651 1.60757 11.5025 2.65651 1.60757
12 2 11.4653 2.64924 -1.70904 11.4653 2.64924 -1.70904
13 1 12.394 1.06817 -0.0835741 12.394 1.06817 -0.0835741
14 2 14.3912 1.19772 1.45482 14.3912 1.19772 1.45482
15 2 14.2534 0.907526 -1.74418 14.2534 0.907526 -1.74418
16 1 15.2932 2.69867 -0.24054 15.2932 2.69867 -0.24054
17 2 17.2669 2.76067 1.25433 17.2669 2.76067 1.25433
18 2 17.0678 2.69357 -1.98725 17.0678 2.69357 -1.98725
19 1 18.1165 1.0388 -0.32623 18.1165 1.0388 -0.32623
20 2 20.1261 0.860515 1.24595 20.1261 0.860515 1.24595
21 2 19.8932 1.11074 -2.05102 19.8932 1.11074 -2.05102
22 1 20.91 2.66063 -0.446691 20.91 2.66063 -0.446691
23 2 22.8212 2.70365 1.02436 22.8212 2.70365 1.02436
24 2 22.7002 2.53319 -2.18726 22.7002 2.53319 -2.18726
25 1 23.8321 0.990911 -0.588393 23.8321 0.990911 -0.588393
26 2 25.5885 1.1035 1.13445 25.5885 1.1035 1.13445
27 2 25.8312 1.01169 -2.00551 25.8312 1.01169 -2.00551
28 1 26.7707 2.65683 -0.416904 26.7707 2.65683 -0.416904
29 2 28.5424 2.84724 1.29441 28.5424 2.84724 1.29441
30 2 28.7731 2.74042 -2.06564 28.7731 2.74042 -2.06564
31 1 29.5716 1.10141 -0.328339 29.5716 1.10141 -0.328339
32 2 31.2567 0.881419 1.58772 31.2567 0.881419 1.58772
33 2 31.7428 1.13113 -1.59583 31.7428 1.13113 -1.59583
34 1 32.4208 2.67938 0.300534 32.4208 2.67938 0.300534
35 2 34.2256 2.65571 2.08062 34.2256 2.65571 2.08062
36 2 34.4117 2.66086 -1.21232 34.4117 2.66086 -1.21232
37 1 35.2721 0.956678 0.450726 35.2721 0.956678 0.450726
38 2 37.1298 0.866497 2.14347 37.1298 0.866497 2.14347
39 2 37.2171 1.09593 -1.10083 37.2171 1.09593 -1.10083
40 1 38.0537 2.70234 0.681046 38.0537 2.70234 0.681046
41 2 39.9413 2.74031 2.47511 39.9413 2.74031 2.47511
42 2 39.98 2.52426 -0.934862 39.98 2.52426 -0.934862
43 1 40.9493 1.00383 0.835689 40.9493 1.00383 0.835689
44 2 42.9667 1.02676 2.3885 42.9667 1.02676 2.3885
45 2 42.7505 1.09826 -0.85257 42.7505 1.09826 -0.85257
46 1 43.8065 2.68048 0.745506 43.8065 2.68048 0.745506
47 2 45.7798 2.54412 2.26294 45.7798 2.54412 2.26294
48 2 45.7537 2.6909 -0.925946 45.7537 2.6909 -0.925946
49 1 46.7236 0.923043 0.559581 46.7236 0.923043 0.559581
50 2 48.6334 50.3592 2.136 48.6334 0.937842 2.136
51 2 48.5277 0.830931 -1.16317 48.5277 0.830931 -1.16317
52 1 49.6148 2.60857 0.296258 49.6148 2.60857 0.296258
53 2 51.4782 2.51069 1.84624 51.4782 2.51069 1.84624
54 2 51.456 2.67521 -1.35755 51.456 2.67521 -1.35755
55 1 0.907763 4.25588 0.298282 0.907763 4.25588 0.298282
56 2 2.76214 4.18608 2.03372 2.76214 4.18608 2.03372
57 2 2.92032 4.25471 -1.2828 2.92032 4.25471 -1.2828
58 1 3.70827 5.9056 0.484335 3.70827 5.9056 0.484335
59 2 5.67982 5.92496 2.19593 5.67982 5.92496 2.19593
60 2 5.70705 6.01192 -1.01664 5.70705 6.01192 -1.01664
61 1 6.71052 4.35335 0.529569 6.71052 4.35335 0.529569
62 2 8.93037 4.22024 1.82906 8.93037 4.22024 1.82906
63 2 8.52399 4.42236 -1.35196 8.52399 4.42236 -1.35196
64 1 9.59454 5.95512 0.222092 9.59454 5.95512 0.222092
65 2 11.6807 5.92329 1.54723 11.6807 5.92329 1.54723
66 2 11.2659 5.9495 -1.70566 11.2659 5.9495 -1.70566
67 1 12.3881 4.32803 -0.129192 12.3881 4.32803 -0.129192
68 2 14.4185 4.33276 1.34237 14.4185 4.33276 1.34237
69 2 14.2282 4.27657 -1.8666 14.2282 4.27657 -1.8666
70 1 15.2488 6.01006 -0.3562 15.2488 6.01006 -0.3562
71 2 17.2041 5.90889 1.30948 17.2041 5.90889 1.30948
72 2 17.2741 5.9742 -2.01784 17.2741 5.9742 -2.01784
73 1 18.0996 4.3706 -0.445115 18.0996 4.3706 -0.445115
74 2 19.9746 4.31337 1.20345 19.9746 4.31337 1.20345
75 2 19.9313 4.36858 -2.11408 19.9313 4.36858 -2.11408
76 1 20.936 6.04904 -0.410495 20.936 6.04904 -0.410495
77 2 22.8378 5.98248 1.01293 22.8378 5.98248 1.01293
78 2 22.7141 5.94362 -2.17639 22.7141 5.94362 -2.17639
79 1 23.7579 4.28733 -0.644495 23.7579 4.28733 -0.644495
80 2 25.5611 4.44603 1.19641 25.5611 4.44603 1.19641
81 2 25.9131 4.38284 -2.1476 25.9131 4.38284 -2.1476
82 1 26.6088 5.93282 -0.365745 26.6088 5.93282 -0.365745
83 2 28.543 5.91322 1.35869 28.543 5.91322 1.35869
84 2 28.5986 5.98268 -1.98281 28.5986 5.98268 -1.98281
85 1 29.656 4.38932 -0.311426 29.656 4.38932 -0.311426
86 2 31.2208 4.32839 1.67485 31.2208 4.32839 1.67485
87 2 31.847 4.37368 -1.52407 31.847 4.37368 -1.52407
88 1 32.473 6.01759 0.228904 32.473 6.01759 0.228904
89 2 34.1924 5.99335 1.97041 34.1924 5.99335 1.97041
90 2 34.5601 6.01021 -1.30836 34.5601 6.01021 -1.30836
91 1 35.275 4.19377 0.484756 35.275 4.19377 0.484756
92 2 37.0804 4.3226 2.22926 37.0804 4.3226 2.22926
93 2 37.2628 4.33999 -1.07915 37.2628 4.33999 -1.07915
94 1 38.0633 5.95413 0.650633 38.0633 5.95413 0.650633
95 2 40.1438 6.01445 2.26675 40.1438 6.01445 2.26675
96 2 40.1179 5.85496 -1.04735 40.1179 5.85496 -1.04735
97 1 40.946 4.25165 0.688021 40.946 4.25165 0.688021
98 2 42.8181 4.36845 2.42316 42.8181 4.36845 2.42316
99 2 42.9593 4.30636 -0.823902 42.9593 4.30636 -0.823902
100 1 43.8499 5.94004 0.768865 43.8499 5.94004 0.768865
101 2 45.8079 5.8827 2.36368 45.8079 5.8827 2.36368
102 2 45.7645 5.92861 -0.934633 45.7645 5.92861 -0.934633
103 1 46.6991 4.2672 0.700039 46.6991 4.2672 0.700039
104 2 48.7205 4.11232 2.17663 48.7205 4.11232 2.17663
105 2 48.5002 4.36968 -1.02268 48.5002 4.36968 -1.02268
106 1 49.4809 5.86837 0.721341 49.4809 5.86837 0.721341
107 2 51.5201 5.77527 2.21652 51.5201 5.77527 2.21652
108 2 51.2924 6.02267 -1.08578 51.2924 6.02267 -1.08578
109 1 0.806263 7.57605 0.684975 0.806263 7.57605 0.684975
110 2 2.90929 7.57215 2.10097 2.90929 7.57215 2.10097
111 2 2.54685 7.58366 -1.02142 2.54685 7.58366 -1.02142
112 1 3.77832 9.21458 0.463634 3.77832 9.21458 0.463634
113 2 5.74801 9.29246 2.14283 5.74801 9.29246 2.14283
114 2 5.80739 9.21336 -1.19188 5.80739 9.21336 -1.19188
115 1 6.64853 7.60958 0.550538 6.64853 7.60958 0.550538
116 2 8.74335 7.52255 1.99777 8.74335 7.52255 1.99777
117 2 8.38605 7.61311 -1.30549 8.38605 7.61311 -1.30549
118 1 9.47959 9.1656 0.359986 9.47959 9.1656 0.359986
119 2 11.6257 9.15176 1.64881 11.6257 9.15176 1.64881
120 2 11.2563 9.36407 -1.52205 11.2563 9.36407 -1.52205
121 1 12.386 7.57487 -0.185124 12.386 7.57487 -0.185124
122 2 14.3054 7.6095 1.34023 14.3054 7.6095 1.34023
123 2 14.2565 7.73299 -1.91337 14.2565 7.73299 -1.91337
124 1 15.2049 9.23376 -0.315398 15.2049 9.23376 -0.315398
125 2 17.1681 9.23815 1.34829 17.1681 9.23815 1.34829
126 2 17.1923 9.23983 -1.91284 17.1923 9.23983 -1.91284
127 1 18.1772 7.67281 -0.216115 18.1772 7.67281 -0.216115
128 2 20.1075 7.80782 1.18848 20.1075 7.80782 1.18848
129 2 19.8117 7.61256 -2.04892 19.8117 7.61256 -2.04892
130 1 21.0061 9.31522 -0.573787 21.0061 9.31522 -0.573787
131 2 22.8185 9.10758 1.13913 22.8185 9.10758 1.13913
132 2 23.0326 9.39466 -2.13165 23.0326 9.39466 -2.13165
133 1 23.7693 7.56684 -0.664079 23.7693 7.56684 -0.664079
134 2 25.5874 7.69619 1.14718 25.5874 7.69619 1.14718
135 2 25.8894 7.4912 -2.09659 25.8894 7.4912 -2.09659
136 1 26.6377 9.3169 -0.467379 26.6377 9.3169 -0.467379
137 2 28.4309 9.13382 1.38611 28.4309 9.13382 1.38611
138 2 28.7084 9.43278 -1.78674 28.7084 9.43278 -1.78674
139 1 29.6039 7.60857 -0.209921 29.6039 7.60857 -0.209921
140 2 31.3603 7.65641 1.71318 31.3603 7.65641 1.71318
141 2 31.6679 7.66779 -1.51037 31.6679 7.66779 -1.51037
142 1 32.4136 9.34322 0.141425 32.4136 9.34322 0.141425
143 2 34.1314 9.30341 1.85231 34.1314 9.30341 1.85231
144 2 34.5122 9.26612 -1.24914 34.5122 9.26612 -1.24914
145 1 35.2654 7.66478 0.386984 35.2654 7.66478 0.386984
146 2 37.1617 7.83194 1.98943 37.1617 7.83194 1.98943
147 2 37.2529 7.37898 -1.2387 37.2529 7.37898 -1.2387
148 1 38.1594 9.25147 0.213565 38.1594 9.25147 0.213565
149 2 39.8864 9.22096 1.93073 39.8864 9.22096 1.93073
150 2 40.285 9.16181 -1.22139 40.285 9.16181 -1.22139
151 1 41.0769 7.51881 0.446784 41.0769 7.51881 0.446784
152 2 42.6883 7.71786 2.25467 42.6883 7.71786 2.25467
153 2 43.0672 7.45057 -0.98844 43.0672 7.45057 -0.98844
154 1 43.948 9.21596 0.57146 43.948 9.21596 0.57146
155 2 45.6802 9.19221 2.35194 45.6802 9.19221 2.35194
156 2 45.8635 9.22311 -0.934252 45.8635 9.22311 -0.934252
157 1 46.6835 7.6941 0.782748 46.6835 7.6941 0.782748
158 2 48.4872 7.47928 2.44817 48.4872 7.47928 2.44817
159 2 48.629 7.85573 -0.807784 48.629 7.85573 -0.807784
160 1 49.6051 9.20931 0.961281 49.6051 9.20931 0.961281
161 2 51.584 9.07927 2.50234 51.584 9.07927 2.50234
162 2 51.4814 9.35363 -0.817123 51.4814 9.35363 -0.817123
163 1 0.991908 10.8997 0.950722 0.991908 10.8997 0.950722
164 2 3.02647 10.7359 2.36925 3.02647 10.7359 2.36925
165 2 2.69297 11.081 -0.956789 2.69297 11.081 -0.956789
166 1 3.84578 12.4339 0.757441 3.84578 12.4339 0.757441
167 2 6.01033 12.6133 2.09611 6.01033 12.6133 2.09611
168 2 5.55734 12.4648 -1.15967 5.55734 12.4648 -1.15967
169 1 6.70472 10.9288 0.395423 6.70472 10.9288 0.395423
170 2 8.53941 10.824 2.0707 8.53941 10.824 2.0707
171 2 8.51097 11.0022 -1.23437 8.51097 11.0022 -1.23437
172 1 9.48605 12.6017 0.46671 9.48605 12.6017 0.46671
173 2 11.5016 12.4491 1.80055 11.5016 12.4491 1.80055
174 2 11.3685 12.693 -1.35252 11.3685 12.693 -1.35252
175 1 12.311 10.9286 0.0514655 12.311 10.9286 0.0514655
176 2 14.3781 10.7764 1.48813 14.3781 10.7764 1.48813
177 2 14.0178 11.0156 -1.74605 14.0178 11.0156 -1.74605
178 1 15.1413 12.5404 -0.103458 15.1413 12.5404 -0.103458
179 2 17.1315 12.5122 1.43123 17.1315 12.5122 1.43123
180 2 16.8664 12.5623 -1.82687 16.8664 12.5623 -1.82687
181 1 18.102 10.9258 -0.282693 18.102 10.9258 -0.282693
182 2 20.1614 10.8203 1.20631 20.1614 10.8203 1.20631
183 2 19.9238 11.0512 -1.99043 19.9238 11.0512 -1.99043
184 1 20.9297 12.5833 -0.382828 20.9297 12.5833 -0.382828
185 2 22.7647 12.7435 1.32279 22.7647 12.7435 1.32279
186 2 22.8211 12.3887 -1.98242 22.8211 12.3887 -1.98242
187 1 23.7704 10.8909 -0.173383 23.7704 10.8909 -0.173383
188 2 25.7759 10.8581 1.32381 25.7759 10.8581 1.32381
189 2 25.5789 11.0473 -2.00431 25.5789 11.0473 -2.00431
190 1 26.6812 12.5086 -0.263013 26.6812 12.5086 -0.263013
191 2 28.4954 12.6918 1.36647 28.4954 12.6918 1.36647
192 2 28.5491 12.3732 -1.85066 28.5491 12.3732 -1.85066
193 1 29.5812 10.9273 -0.00340518 29.5812 10.9273 -0.00340518
194 2 31.4343 10.8638 1.69964 31.4343 10.8638 1.69964
195 2 31.5729 10.9963 -1.52548 31.5729 10.9963 -1.52548
196 1 32.4567 12.6306 0.265699 32.4567 12.6306 0.265699
197 2 34.3133 12.5158 1.92753 34.3133 12.5158 1.92753
198 2 34.3151 12.4041 -1.41044 34.3151 12.4041 -1.41044
199 1 35.2576 10.8794 0.388034 35.2576 10.8794 0.388034
200 2 37.1792 10.8249 1.88427 37.1792 10.8249 1.88427
201 2 36.99 10.9109 -1.29357 36.99 10.9109 -1.29357
202 1 38.0813 12.4906 0.26136 38.0813 12.4906 0.26136
203 2 39.9103 12.5197 2.16259 39.9103 12.5197 2.16259
204 2 40.1817 12.7009 -1.12771 40.1817 12.7009 -1.12771
205 1 41.0193 10.8374 0.410657 41.0193 10.8374 0.410657
206 2 42.8698 10.8698 2.18514 42.8698 10.8698 2.18514
207 2 43.058 10.9503 -1.06016 43.058 10.9503 -1.06016
208 1 43.8742 12.5295 0.647649 43.8742 12.5295 0.647649
209 2 45.6378 12.4636 2.40578 45.6378 12.4636 2.40578
210 2 45.7697 12.5661 -0.886541 45.7697 12.5661 -0.886541
211 1 46.7979 10.9248 0.813683 46.7979 10.9248 0.813683
212 2 48.479 10.7586 2.64842 48.479 10.7586 2.64842
213 2 48.852 11.0236 -0.647464 48.852 11.0236 -0.647464
214 1 49.6263 12.4692 1.19301 49.6263 12.4692 1.19301
215 2 51.7083 12.501 2.61742 51.7083 12.501 2.61742
216 2 51.3347 12.4683 -0.60486 51.3347 12.4683 -0.60486
217 1 1.01263 14.0847 0.877539 1.01263 14.0847 0.877539
218 2 2.98881 14.1743 2.43252 2.98881 14.1743 2.43252
219 2 2.82519 14.065 -0.813007 2.82519 14.065 -0.813007
220 1 3.83039 15.8234 0.677405 3.83039 15.8234 0.677405
221 2 5.84369 15.7886 2.05237 5.84369 15.7886 2.05237
222 2 5.43724 15.8675 -1.20524 5.43724 15.8675 -1.20524
223 1 6.68276 14.2412 0.321969 6.68276 14.2412 0.321969
224 2 8.6351 14.2759 2.02506 8.6351 14.2759 2.02506
225 2 8.51329 14.1325 -1.31464 8.51329 14.1325 -1.31464
226 1 9.55701 15.8453 0.30272 9.55701 15.8453 0.30272
227 2 11.705 16.087 1.74014 11.705 16.087 1.74014
228 2 11.2866 15.7145 -1.53881 11.2866 15.7145 -1.53881
229 1 12.3749 14.2289 0.240788 12.3749 14.2289 0.240788
230 2 14.5157 14.2014 1.68429 14.5157 14.2014 1.68429
231 2 14.0627 14.2381 -1.59608 14.0627 14.2381 -1.59608
232 1 15.178 15.8736 -0.0928214 15.178 15.8736 -0.0928214
233 2 17.2002 15.845 1.43534 17.2002 15.845 1.43534
234 2 16.9241 15.7635 -1.9084 16.9241 15.7635 -1.9084
235 1 18.0306 14.1889 -0.279168 18.0306 14.1889 -0.279168
236 2 19.9983 14.1448 1.26629 19.9983 14.1448 1.26629
237 2 19.964 14.2983 -1.93954 19.964 14.2983 -1.93954
238 1 20.9073 15.912 -0.157064 20.9073 15.912 -0.157064
239 2 22.9806 15.8005 1.19086 22.9806 15.8005 1.19086
240 2 22.6923 15.834 -1.94737 22.6923 15.834 -1.94737
241 1 23.7717 14.1877 -0.473207 23.7717 14.1877 -0.473207
242 2 25.4622 14.1976 1.33582 25.4622 14.1976 1.33582
243 2 25.8185 14.17 -1.93946 25.8185 14.17 -1.93946
244 1 26.6721 15.7503 -0.288265 26.6721 15.7503 -0.288265
245 2 28.639 15.8247 1.33578 28.639 15.8247 1.33578
246 2 28.6161 15.8212 -1.86213 28.6161 15.8212 -1.86213
247 1 29.526 14.1859 -0.330941 29.526 14.1859 -0.330941
248 2 31.1631 14.3441 1.69249 31.1631 14.3441 1.69249
249 2 31.7529 14.1812 -1.60116 31.7529 14.1812 -1.60116
250 1 32.4359 15.8385 0.034526 32.4359 15.8385 0.034526
251 2 34.2718 15.9329 1.69511 34.2718 15.9329 1.69511
252 2 34.4892 15.8058 -1.53715 34.4892 15.8058 -1.53715
253 1 35.2523 14.1566 0.231618 35.2523 14.1566 0.231618
254 2 37.1068 14.2223 1.98397 37.1068 14.2223 1.98397
255 2 37.1609 14.2446 -1.34516 37.1609 14.2446 -1.34516
256 1 38.1959 15.8394 0.346351 38.1959 15.8394 0.346351
257 2 40.0449 16.006 2.11172 40.0449 16.006 2.11172
258 2 40.1554 15.7524 -1.20149 40.1554 15.7524 -1.20149
259 1 41.0711 14.24 0.662795 41.0711 14.24 0.662795
260 2 42.8332 14.0938 2.37889 42.8332 14.0938 2.37889
261 2 42.8786 14.2524 -0.939082 42.8786 14.2524 -0.939082
262 1 43.8956 15.7702 0.837803 43.8956 15.7702 0.837803
263 2 45.8013 15.8124 2.49623 45.8013 15.8124 2.49623
264 2 45.7767 15.7538 -0.874202 45.7767 15.7538 -0.874202
265 1 46.7307 14.1481 0.776646 46.7307 14.1481 0.776646
266 2 48.6191 14.394 2.48399 48.6191 14.394 2.48399
267 2 48.7806 13.9439 -0.643024 48.7806 13.9439 -0.643024
268 1 49.6449 15.8384 0.726133 49.6449 15.8384 0.726133
269 2 51.5907 15.8715 2.42083 51.5907 15.8715 2.42083
270 2 51.5828 15.8623 -0.776741 51.5828 15.8623 -0.776741
271 1 1.00982 17.5083 0.840922 1.00982 17.5083 0.840922
272 2 2.98015 17.6139 2.34867 2.98015 17.6139 2.34867
273 2 2.77199 17.2844 -0.933312 2.77199 17.2844 -0.933312
274 1 3.8759 19.1298 0.573212 3.8759 19.1298 0.573212
275 2 5.89112 19.0732 2.03106 5.89112 19.0732 2.03106
276 2 5.72375 19.1777 -1.15814 5.72375 19.1777 -1.15814
277 1 6.68079 17.456 0.30975 6.68079 17.456 0.30975
278 2 8.60297 17.548 1.85813 8.60297 17.548 1.85813
279 2 8.44708 17.4157 -1.3941 8.44708 17.4157 -1.3941
280 1 9.50228 19.1692 0.112551 9.50228 19.1692 0.112551
281 2 11.6204 19.3786 1.50942 11.6204 19.3786 1.50942
282 2 11.1967 18.9697 -1.76489 11.1967 18.9697 -1.76489
283 1 12.3559 17.5202 -0.142731 12.3559 17.5202 -0.142731
284 2 14.2814 17.5562 1.38566 14.2814 17.5562 1.38566
285 2 14.1468 17.3019 -1.79409 14.1468 17.3019 -1.79409
286 1 15.2101 19.0574 -0.318133 15.2101 19.0574 -0.318133
287 2 17.2435 19.2038 1.19111 17.2435 19.2038 1.19111
288 2 17.0397 19.0939 -2.09946 17.0397 19.0939 -2.09946
289 1 18.0867 17.4484 -0.30089 18.0867 17.4484 -0.30089
290 2 19.9927 17.7269 1.26486 19.9927 17.7269 1.26486
291 2 19.9076 17.3937 -1.95905 19.9076 17.3937 -1.95905
292 1 20.8857 19.159 -0.542196 20.8857 19.159 -0.542196
293 2 22.7867 19.207 1.1221 22.7867 19.207 1.1221
294 2 22.8835 19.0935 -2.16767 22.8835 19.0935 -2.16767
295 1 23.8465 17.4056 -0.419013 23.8465 17.4056 -0.419013
296 2 25.7776 17.6371 1.2095 25.7776 17.6371 1.2095
297 2 25.6445 17.2932 -2.03023 25.6445 17.2932 -2.03023
298 1 26.6649 19.1335 -0.592777 26.6649 19.1335 -0.592777
299 2 28.4624 19.3045 1.10384 28.4624 19.3045 1.10384
300 2 28.69 18.9026 -2.0937 28.69 18.9026 -2.0937
301 1 29.5168 17.4373 -0.250954 29.5168 17.4373 -0.250954
302 2 31.3733 17.5797 1.39779 31.3733 17.5797 1.39779
303 2 31.49 17.3056 -1.76574 31.49 17.3056 -1.76574
304 1 32.4515 19.1984 -0.252442 32.4515 19.1984 -0.252442
305 2 34.2164 19.0933 1.53142 34.2164 19.0933 1.53142
306 2 34.4941 19.1579 -1.72248 34.4941 19.1579 -1.72248
307 1 35.3513 17.5233 0.0347618 35.3513 17.5233 0.0347618
308 2 37.0721 17.4698 1.80153 37.0721 17.4698 1.80153
309 2 37.4529 17.5096 -1.38818 37.4529 17.5096 -1.38818
310 1 38.2526 19.2615 0.27561 38.2526 19.2615 0.27561
311 2 40.2098 19.3302 1.89345 40.2098 19.3302 1.89345
312 2 40.0113 18.87 -1.45715 40.0113 18.87 -1.45715
313 1 41.0436 17.5076 0.315088 41.0436 17.5076 0.315088
314 2 42.8012 17.5699 2.11046 42.8012 17.5699 2.11046
315 2 43.0146 17.1142 -1.13734 43.0146 17.1142 -1.13734
316 1 43.9455 19.0505 0.356098 43.9455 19.0505 0.356098
317 2 45.7133 19.2765 2.15261 45.7133 19.2765 2.15261
318 2 45.9766 19.0225 -1.1301 45.9766 19.0225 -1.1301
319 1 46.705 17.4824 0.758144 46.705 17.4824 0.758144
320 2 48.6111 17.4952 2.36 48.6111 17.4952 2.36
321 2 48.6202 17.598 -0.846425 48.6202 17.598 -0.846425
322 1 49.7176 19.0773 0.85564 49.7176 19.0773 0.85564
323 2 51.6711 19.2814 2.44335 51.6711 19.2814 2.44335
324 2 51.6344 19.1428 -0.835179 51.6344 19.1428 -0.835179
325 1 1.04219 20.7801 0.653275 1.04219 20.7801 0.653275
326 2 3.12633 20.9102 2.15307 3.12633 20.9102 2.15307
327 2 2.77079 20.7107 -1.08792 2.77079 20.7107 -1.08792
328 1 3.79602 22.4134 0.287547 3.79602 22.4134 0.287547
329 2 5.7433 22.6075 1.81808 5.7433 22.6075 1.81808
330 2 5.71724 22.2475 -1.36439 5.71724 22.2475 -1.36439
331 1 6.75136 20.8061 0.445112 6.75136 20.8061 0.445112
332 2 8.86387 20.8463 1.75616 8.86387 20.8463 1.75616
333 2 8.39503 20.7677 -1.47865 8.39503 20.7677 -1.47865
334 1 9.52932 22.4477 -0.0685117 9.52932 22.4477 -0.0685117
335 2 11.661 22.5099 1.40351 11.661 22.5099 1.40351
336 2 11.2087 22.4204 -1.9212 11.2087 22.4204 -1.9212
337 1 12.3872 20.7832 -0.424217 12.3872 20.7832 -0.424217
338 2 14.3362 20.8011 1.18083 14.3362 20.8011 1.18083
339 2 14.2357 20.5267 -2.12303 14.2357 20.5267 -2.12303
340 1 15.2076 22.3323 -0.613826 15.2076 22.3323 -0.613826
341 2 17.171 22.5089 0.976665 17.171 22.5089 0.976665
342 2 17.2255 22.2334 -2.28189 17.2255 22.2334 -2.28189
343 1 18.0402 20.7512 -0.51228 18.0402 20.7512 -0.51228
344 2 19.9654 20.9103 1.01855 19.9654 20.9103 1.01855
345 2 19.8787 20.7224 -2.25975 19.8787 20.7224 -2.25975
346 1 20.9595 22.4584 -0.673568 20.9595 22.4584 -0.673568
347 2 22.8211 22.6609 0.961577 22.8211 22.6609 0.961577
348 2 22.8552 22.3668 -2.34109 22.8552 22.3668 -2.34109
349 1 23.7329 20.8369 -0.57538 23.7329 20.8369 -0.57538
350 2 25.7922 20.9286 1.00092 25.7922 20.9286 1.00092
351 2 25.6187 20.6033 -2.24326 25.6187 20.6033 -2.24326
352 1 26.6153 22.4592 -0.772616 26.6153 22.4592 -0.772616
353 2 28.5944 22.4348 0.890685 28.5944 22.4348 0.890685
354 2 28.5244 22.3551 -2.438 28.5244 22.3551 -2.438
355 1 29.5107 20.7603 -0.614597 29.5107 20.7603 -0.614597
356 2 31.2885 20.7512 1.25472 31.2885 20.7512 1.25472
357 2 31.7233 20.7541 -1.95625 31.7233 20.7541 -1.95625
358 1 32.4106 22.489 -0.214192 32.4106 22.489 -0.214192
359 2 34.3024 22.4581 1.45579 34.3024 22.4581 1.45579
360 2 34.453 22.4223 -1.73148 34.453 22.4223 -1.73148
361 1 35.3883 20.7581 -0.00423439 35.3883 20.7581 -0.00423439
362 2 37.1575 21.0221 1.703 37.1575 21.0221 1.703
363 2 37.3854 20.7477 -1.56687 37.3854 20.7477 -1.56687
364 1 38.1912 22.4676 0.0538947 38.1912 22.4676 0.0538947
365 2 40.2376 22.4961 1.55375 40.2376 22.4961 1.55375
366 2 40.105 22.2754 -1.68801 40.105 22.2754 -1.68801
367 1 41.0591 20.7426 0.0242542 41.0591 20.7426 0.0242542
368 2 42.8777 20.923 1.82428 42.8777 20.923 1.82428
369 2 43.1442 20.7121 -1.39492 43.1442 20.7121 -1.39492
370 1 43.9355 22.3996 0.123768 43.9355 22.3996 0.123768
371 2 45.6095 22.5005 1.9563 45.6095 22.5005 1.9563
372 2 45.9144 22.3549 -1.16764 45.9144 22.3549 -1.16764
373 1 46.8376 20.7756 0.579083 46.8376 20.7756 0.579083
374 2 48.7448 20.9107 2.37526 48.7448 20.9107 2.37526
375 2 48.8372 20.7141 -0.872731 48.8372 20.7141 -0.872731
376 1 49.6674 22.4657 0.707445 49.6674 22.4657 0.707445
377 2 51.6623 22.6001 2.20054 51.6623 22.6001 2.20054
378 2 51.3519 22.2822 -1.08633 51.3519 22.2822 -1.08633
379 1 0.989535 24.1118 0.329212 0.989535 24.1118 0.329212
380 2 2.99433 24.1405 1.85232 2.99433 24.1405 1.85232
381 2 2.77913 24.0109 -1.38167 2.77913 24.0109 -1.38167
382 1 3.80626 25.7332 0.0739874 3.80626 25.7332 0.0739874
383 2 5.9262 25.8496 1.44106 5.9262 25.8496 1.44106
384 2 5.58447 25.5193 -1.75569 5.58447 25.5193 -1.75569
385 1 6.6469 24.067 -0.0158232 6.6469 24.067 -0.0158232
386 2 8.72747 24.2705 1.43958 8.72747 24.2705 1.43958
387 2 8.40915 23.9952 -1.79138 8.40915 23.9952 -1.79138
388 1 9.51658 25.7057 -0.442189 9.51658 25.7057 -0.442189
389 2 11.391 25.8663 1.12464 11.391 25.8663 1.12464
390 2 11.3001 25.59 -2.12402 11.3001 25.59 -2.12402
391 1 12.3599 24.059 -0.373242 12.3599 24.059 -0.373242
392 2 14.5072 24.0595 1.04564 14.5072 24.0595 1.04564
393 2 14.0848 24.0436 -2.31077 14.0848 24.0436 -2.31077
394 1 15.1704 25.6004 -0.834654 15.1704 25.6004 -0.834654
395 2 17.1128 25.6718 0.867647 17.1128 25.6718 0.867647
396 2 17.2318 25.6344 -2.43012 17.2318 25.6344 -2.43012
397 1 18.0632 24.0327 -0.816496 18.0632 24.0327 -0.816496
398 2 19.9467 24.0448 0.887999 19.9467 24.0448 0.887999
399 2 20.0698 24.1056 -2.30757 20.0698 24.1056 -2.30757
400 1 20.962 25.796 -0.794925 20.962 25.796 -0.794925
401 2 22.855 25.7539 0.825832 22.855 25.7539 0.825832
402 2 23.0445 25.9374 -2.38594 23.0445 25.9374 -2.38594
403 1 23.7435 24.1437 -0.869604 23.7435 24.1437 -0.869604
404 2 25.5661 24.1225 0.843319 25.5661 24.1225 0.843319
405 2 25.8844 24.2236 -2.43653 25.8844 24.2236 -2.43653
406 1 26.7564 25.7824 -0.731346 26.7564 25.7824 -0.731346
407 2 28.6323 25.6833 0.878203 28.6323 25.6833 0.878203
408 2 28.7445 25.7945 -2.39043 28.7445 25.7945 -2.39043
409 1 29.5828 24.0472 -0.744426 29.5828 24.0472 -0.744426
410 2 31.1366 24.2537 1.23303 31.1366 24.2537 1.23303
411 2 31.8116 24.2151 -2.03686 31.8116 24.2151 -2.03686
412 1 32.4845 25.7983 -0.222965 32.4845 25.7983 -0.222965
413 2 34.3558 25.9028 1.34908 34.3558 25.9028 1.34908
414 2 34.369 25.5919 -1.90711 34.369 25.5919 -1.90711
415 1 35.3312 24.0541 -0.219528 35.3312 24.0541 -0.219528
416 2 37.2594 24.2113 1.51628 37.2594 24.2113 1.51628
417 2 37.3511 23.9182 -1.72181 37.3511 23.9182 -1.72181
418 1 38.2702 25.7243 -0.169424 38.2702 25.7243 -0.169424
419 2 40.1748 25.8772 1.39782 40.1748 25.8772 1.39782
420 2 40.0053 25.538 -1.88327 40.0053 25.538 -1.88327
421 1 41.1547 23.9769 -0.187051 41.1547 23.9769 -0.187051
422 2 42.8681 24.0218 1.57516 42.8681 24.0218 1.57516
423 2 43.0885 24.0187 -1.59287 43.0885 24.0187 -1.59287
424 1 43.9558 25.8497 -0.0270646 43.9558 25.8497 -0.0270646
425 2 45.7555 26.0835 1.63662 45.7555 26.0835 1.63662
426 2 45.8303 25.4515 -1.55141 45.8303 25.4515 -1.55141
427 1 46.7871 24.1267 0.404764 46.7871 24.1267 0.404764
428 2 48.6762 24.3813 2.04287 48.6762 24.3813 2.04287
429 2 48.6652 23.8011 -1.24989 48.6652 23.8011 -1.24989
430 1 49.4939 25.6787 0.124337 49.4939 25.6787 0.124337
431 2 51.4201 25.8508 1.78431 51.4201 25.8508 1.78431
432 2 51.4863 25.6284 -1.52203 51.4863 25.6284 -1.52203
433 1 0.92109 27.3619 0.0271866 0.92109 27.3619 0.0271866
434 2 2.84199 27.4585 1.56446 2.84199 27.4585 1.56446
435 2 2.77165 27.2757 -1.65419 2.77165 27.2757 -1.65419
436 1 3.78813 28.9769 -0.146617 3.78813 28.9769 -0.146617
437 2 5.88153 29.2197 1.08897 5.88153 29.2197 1.08897
438 2 5.4844 29.0876 -2.04549 5.4844 29.0876 -2.04549
439 1 6.64915 27.3824 -0.432032 6.64915 27.3824 -0.432032
440 2 8.75303 27.5436 1.06729 8.75303 27.5436 1.06729
441 2 8.4163 27.2261 -2.17294 8.4163 27.2261 -2.17294
442 1 9.48393 28.9811 -0.751883 9.48393 28.9811 -0.751883
443 2 11.4463 29.0376 0.800751 11.4463 29.0376 0.800751
444 2 11.4336 28.9284 -2.39932 11.4336 28.9284 -2.39932
445 1 12.3562 27.3672 -0.720581 12.3562 27.3672 -0.720581
446 2 14.3919 27.3201 0.796162 14.3919 27.3201 0.796162
447 2 14.1244 27.329 -2.50499 14.1244 27.329 -2.50499
448 1 15.2427 28.9512 -0.869886 15.2427 28.9512 -0.869886
449 2 17.0969 29.056 0.707931 17.0969 29.056 0.707931
450 2 17.0664 28.9753 -2.55924 17.0664 28.9753 -2.55924
451 1 18.0367 27.3261 -0.803976 18.0367 27.3261 -0.803976
452 2 19.9972 27.4131 0.743155 19.9972 27.4131 0.743155
453 2 20.0906 27.4492 -2.45569 20.0906 27.4492 -2.45569
454 1 20.961 29.0365 -0.887537 20.961 29.0365 -0.887537
455 2 22.7577 29.2228 0.79246 22.7577 29.2228 0.79246
456 2 22.8875 28.9421 -2.53419 22.8875 28.9421 -2.53419
457 1 23.8769 27.4254 -0.674451 23.8769 27.4254 -0.674451
458 2 25.8323 27.432 0.873155 25.8323 27.432 0.873155
459 2 25.7413 27.4446 -2.34236 25.7413 27.4446 -2.34236
460 1 26.7397 29.1131 -0.784095 26.7397 29.1131 -0.784095
461 2 28.6341 29.1372 0.929546 28.6341 29.1372 0.929546
462 2 28.7602 29.1033 -2.26997 28.7602 29.1033 -2.26997
463 1 29.5898 27.4026 -0.608778 29.5898 27.4026 -0.608778
464 2 31.4006 27.568 1.15651 31.4006 27.568 1.15651
465 2 31.682 27.2624 -2.07694 31.682 27.2624 -2.07694
466 1 32.4787 29.0429 -0.516795 32.4787 29.0429 -0.516795
467 2 34.4829 29.1328 0.989044 34.4829 29.1328 0.989044
468 2 34.297 28.7553 -2.28337 34.297 28.7553 -2.28337
469 1 35.3629 27.3773 -0.399471 35.3629 27.3773 -0.399471
470 2 37.3901 27.5879 1.26236 37.3901 27.5879 1.26236
471 2 37.2638 27.149 -1.95333 37.2638 27.149 -1.95333
472 1 38.2194 28.9806 -0.617008 38.2194 28.9806 -0.617008
473 2 40.1359 29.1588 0.993853 40.1359 29.1588 0.993853
474 2 40.1868 28.6779 -2.21282 40.1868 28.6779 -2.21282
475 1 41.0687 27.3118 -0.28422 41.0687 27.3118 -0.28422
476 2 42.8369 27.5285 1.41729 42.8369 27.5285 1.41729
477 2 43.0743 27.2378 -1.84192 43.0743 27.2378 -1.84192
478 1 43.9046 29.0506 -0.298698 43.9046 29.0506 -0.298698
479 2 45.7455 29.0155 1.32508 45.7455 29.0155 1.32508
480 2 45.7619 28.9365 -1.91111 45.7619 28.9365 -1.91111
481 1 46.7402 27.3678 -0.270405 46.7402 27.3678 -0.270405
482 2 48.4478 27.5891 1.46707 48.4478 27.5891 1.46707
483 2 48.8029 27.1022 -1.7501 48.8029 27.1022 -1.7501
484 1 49.7172 29.0219 -0.307211 49.7172 29.0219 -0.307211
485 2 51.3881 29.062 1.45421 51.3881 29.062 1.45421
486 2 51.7248 28.9128 -1.8384 51.7248 28.9128 -1.8384
487 1 1.0805 30.715 -0.12269 1.0805 30.715 -0.12269
488 2 2.96597 30.7029 1.51369 2.96597 30.7029 1.51369
489 2 2.96856 30.6736 -1.76392 2.96856 30.6736 -1.76392
490 1 3.95353 32.3126 -0.179334 3.95353 32.3126 -0.179334
491 2 6.03392 32.2857 1.1403 6.03392 32.2857 1.1403
492 2 5.4957 32.2405 -2.1526 5.4957 32.2405 -2.1526
493 1 6.73006 30.634 -0.699284 6.73006 30.634 -0.699284
494 2 8.63521 30.6499 0.92766 8.63521 30.6499 0.92766
495 2 8.57773 30.6083 -2.3212 8.57773 30.6083 -2.3212
496 1 9.51051 32.2941 -0.831629 9.51051 32.2941 -0.831629
497 2 11.4413 32.4012 0.7236 11.4413 32.4012 0.7236
498 2 11.3153 32.2076 -2.6008 11.3153 32.2076 -2.6008
499 1 12.348 30.7128 -0.905133 12.348 30.7128 -0.905133
500 2 14.2272 30.6493 0.791098 14.2272 30.6493 0.791098
501 2 14.194 30.6211 -2.47546 14.194 30.6211 -2.47546
502 1 15.2681 32.2724 -0.90369 15.2681 32.2724 -0.90369
503 2 17.2641 32.3141 0.630713 17.2641 32.3141 0.630713
504 2 16.9986 32.1038 -2.63824 16.9986 32.1038 -2.63824
505 1 18.0575 30.593 -0.99631 18.0575 30.593 -0.99631
506 2 19.8334 30.7317 0.686194 19.8334 30.7317 0.686194
507 2 19.9323 30.5367 -2.67581 19.9323 30.5367 -2.67581
508 1 20.95 32.2728 -1.06589 20.95 32.2728 -1.06589
509 2 22.7824 32.2739 0.652581 22.7824 32.2739 0.652581
510 2 22.9068 32.3601 -2.67628 22.9068 32.3601 -2.67628
511 1 23.8776 30.7652 -0.999078 23.8776 30.7652 -0.999078
512 2 25.6454 30.8651 0.735046 25.6454 30.8651 0.735046
513 2 25.9062 30.6828 -2.53184 25.9062 30.6828 -2.53184
514 1 26.7269 32.4388 -0.894295 26.7269 32.4388 -0.894295
515 2 28.5664 32.3835 0.822903 28.5664 32.3835 0.822903
516 2 28.716 32.3364 -2.44554 28.716 32.3364 -2.44554
517 1 29.5973 30.7533 -0.655908 29.5973 30.7533 -0.655908
518 2 31.4257 30.7896 0.966927 31.4257 30.7896 0.966927
519 2 31.506 30.5203 -2.24054 31.506 30.5203 -2.24054
520 1 32.428 32.3624 -0.890503 32.428 32.3624 -0.890503
521 2 34.3271 32.3257 0.711899 34.3271 32.3257 0.711899
522 2 34.3002 32.3154 -2.55804 34.3002 32.3154 -2.55804
523 1 35.3028 30.5954 -0.89802 35.3028 30.5954 -0.89802
524 2 37.1287 30.7404 0.803046 37.1287 30.7404 0.803046
525 2 37.2561 30.4288 -2.50583 37.2561 30.4288 -2.50583
526 1 38.1439 32.2667 -1.09699 38.1439 32.2667 -1.09699
527 2 39.8898 32.2289 0.69772 39.8898 32.2289 0.69772
528 2 40.1675 32.1852 -2.61732 40.1675 32.1852 -2.61732
529 1 40.9451 30.6271 -0.815269 40.9451 30.6271 -0.815269
530 2 42.6468 30.8565 1.015 42.6468 30.8565 1.015
531 2 43.0172 30.4481 -2.28239 43.0172 30.4481 -2.28239
532 1 43.9047 32.228 -0.71673 43.9047 32.228 -0.71673
533 2 45.6714 32.124 1.11918 45.6714 32.124 1.11918
534 2 46.1029 32.2314 -2.03681 46.1029 32.2314 -2.03681
535 1 46.789 30.6055 -0.357247 46.789 30.6055 -0.357247
536 2 48.5751 30.5779 1.41478 48.5751 30.5779 1.41478
537 2 48.8541 30.7642 -1.89277 48.8541 30.7642 -1.89277
538 1 49.6334 32.2998 -0.00564525 49.6334 32.2998 -0.00564525
539 2 51.6783 32.3699 1.52449 51.6783 32.3699 1.52449