ITEM: TIMESTEP
86200
ITEM: NUMBER OF ATOMS
810
ITEM: BOX BOUNDS pp pp pp
8.2882411418444923e-01 5.2188780885815959e+01
7.9981790464010127e-01 5.0216397095359071e+01
-1.0000000000000000e+01 1.0000000000000000e+01
ITEM: ATOMS id type x y z xu yu zu
1 1 1.07159 0.869633 -0.703483 1.07159 0.869633 -0.703483
2 2 2.90014 1.00984 0.952197 2.90014 1.00984 0.952197
3 2 2.85466 0.83505 -2.38489 2.85466 0.83505 -2.38489
4 1 3.88949 2.49354 -0.851663 3.88949 2.49354 -0.851663
5 2 5.68122 2.5139 0.902453 5.68122 2.5139 0.902453
6 2 5.87321 2.58386 -2.39713 5.87321 2.58386 -2.39713
7 1 6.80321 0.958869 -0.756754 6.80321 0.958869 -0.756754
8 2 8.52936 1.15649 1.04603 8.52936 1.15649 1.04603
9 2 8.85615 0.865941 -2.19111 8.85615 0.865941 -2.19111
10 1 9.70591 2.68735 -0.616223 9.70591 2.68735 -0.616223
11 2 11.5522 2.83898 1.09895 11.5522 2.83898 1.09895
12 2 11.7212 2.63097 -2.10345 11.7212 2.63097 -2.10345
13 1 12.4837 1.04672 -0.379392 12.4837 1.04672 -0.379392
14 2 14.3537 1.15233 1.35154 14.3537 1.15233 1.35154
15 2 14.5451 0.881597 -1.93953 14.5451 0.881597 -1.93953
16 1 15.429 2.60463 -0.332495 15.429 2.60463 -0.332495
17 2 17.1038 2.86884 1.46621 17.1038 2.86884 1.46621
18 2 17.3976 2.42274 -1.79497 17.3976 2.42274 -1.79497
19 1 18.197 1.05023 0.125235 18.197 1.05023 0.125235
20 2 20.0071 1.46419 1.76519 20.0071 1.46419 1.76519
21 2 20.1307 0.861133 -1.44765 20.1307 0.861133 -1.44765
22 1 21.0969 2.73675 -0.115819 21.0969 2.73675 -0.115819
23 2 23.1113 2.91396 1.43355 23.1113 2.91396 1.43355
24 2 22.8065 2.38633 -1.79648 22.8065 2.38633 -1.79648
25 1 23.8496 0.982161 -0.0430037 23.8496 0.982161 -0.0430037
26 2 25.7426 1.20794 1.51997 25.7426 1.20794 1.51997
27 2 25.6708 0.854937 -1.78207 25.6708 0.854937 -1.78207
28 1 26.6115 2.59062 -0.285155 26.6115 2.59062 -0.285155
29 2 28.4892 2.70569 1.26342 28.4892 2.70569 1.26342
30 2 28.4388 2.58211 -2.02144 28.4388 2.58211 -2.02144
31 1 29.4741 0.996544 -0.428903 29.4741 0.996544 -0.428903
32 2 31.2124 1.29257 1.40317 31.2124 1.29257 1.40317
33 2 31.55 0.805272 -1.84194 31.55 0.805272 -1.84194
34 1 32.4532 2.69528 -0.391431 32.4532 2.69528 -0.391431
35 2 34.198 2.8733 1.2485 34.198 2.8733 1.2485
36 2 34.4635 2.28695 -1.91718 34.4635 2.28695 -1.91718
37 1 35.2278 0.99641 0.0469105 35.2278 0.99641 0.0469105
38 2 37.2088 1.07622 1.51684 37.2088 1.07622 1.51684
39 2 37.0997 0.82682 -1.73851 37.0997 0.82682 -1.73851
40 1 38.0944 2.64427 -0.320602 38.0944 2.64427 -0.320602
41 2 40.0383 2.67933 1.21106 40.0383 2.67933 1.21106
42 2 39.9539 2.59202 -2.01252 39.9539 2.59202 -2.01252
43 1 41.0058 0.95138 -0.343627 41.0058 0.95138 -0.343627
44 2 42.836 1.18553 1.20708 42.836 1.18553 1.20708
45 2 42.9813 49.9849 -1.97808 42.9813 0.568286 -1.97808
46 1 43.7803 2.62601 -0.632542 43.7803 2.62601 -0.632542
47 2 45.7223 2.69348 0.996357 45.7223 2.69348 0.996357
48 2 45.7494 2.7257 -2.31344 45.7494 2.7257 -2.31344
49 1 46.6173 1.05954 -0.613285 46.6173 1.05954 -0.613285
50 2 48.4254 1.05471 0.988787 48.4254 1.05471 0.988787
51 2 48.6542 0.9604 -2.22981 48.6542 0.9604 -2.22981
52 1 49.4918 2.66052 -0.670632 49.4918 2.66052 -0.670632
53 2 51.5592 2.56744 0.901763 51.5592 2.56744 0.901763
54 2 51.3599 2.44586 -2.31495 51.3599 2.44586 -2.31495
55 1 0.980344 4.14908 -0.710824 0.980344 4.14908 -0.710824
56 2 3.06058 4.1664 0.860263 3.06058 4.1664 0.860263
57 2 2.75262 4.3026 -2.4966 2.75262 4.3026 -2.4966
58 1 3.91458 5.8213 -0.899693 3.91458 5.8213 -0.899693
59 2 5.62201 5.95247 0.947567 5.62201 5.95247 0.947567
60 2 5.94349 5.83863 -2.36335 5.94349 5.83863 -2.36335
61 1 6.77467 4.19629 -0.632457 6.77467 4.19629 -0.632457
62 2 8.732 4.3698 0.977411 8.732 4.3698 0.977411
63 2 8.57903 4.16539 -2.32641 8.57903 4.16539 -2.32641
64 1 9.56851 6.00041 -0.77748 9.56851 6.00041 -0.77748
65 2 11.3523 6.12766 0.919483 11.3523 6.12766 0.919483
66 2 11.5453 5.80951 -2.36843 11.5453 5.80951 -2.36843
67 1 12.4891 4.37229 -0.589048 12.4891 4.37229 -0.589048
68 2 14.3134 4.27844 1.12632 14.3134 4.27844 1.12632
69 2 14.5272 4.30168 -2.04488 14.5272 4.30168 -2.04488
70 1 15.3084 5.96233 -0.455748 15.3084 5.96233 -0.455748
71 2 17.2813 6.19962 1.20719 17.2813 6.19962 1.20719
72 2 17.231 5.93828 -2.1224 17.231 5.93828 -2.1224
73 1 18.2259 4.27817 -0.290282 18.2259 4.27817 -0.290282
74 2 20.1247 4.56864 1.28202 20.1247 4.56864 1.28202
75 2 20.0707 4.13748 -1.9863 20.0707 4.13748 -1.9863
76 1 20.9593 6.03241 -0.549515 20.9593 6.03241 -0.549515
77 2 22.8942 6.015 1.04198 22.8942 6.015 1.04198
78 2 22.8903 5.99138 -2.12056 22.8903 5.99138 -2.12056
79 1 23.8493 4.36032 -0.508684 23.8493 4.36032 -0.508684
80 2 25.6518 4.41852 1.18873 25.6518 4.41852 1.18873
81 2 25.7689 4.16372 -2.09177 25.7689 4.16372 -2.09177
82 1 26.6739 5.98832 -0.526294 26.6739 5.98832 -0.526294
83 2 28.5331 5.93813 1.14471 28.5331 5.93813 1.14471
84 2 28.6339 6.00103 -2.06422 28.6339 6.00103 -2.06422
85 1 29.4884 4.33897 -0.521106 29.4884 4.33897 -0.521106
86 2 31.3644 4.38192 1.18892 31.3644 4.38192 1.18892
87 2 31.414 4.25222 -2.10108 31.414 4.25222 -2.10108
88 1 32.3203 5.94908 -0.427296 32.3203 5.94908 -0.427296
89 2 34.2484 5.95146 1.15896 34.2484 5.95146 1.15896
90 2 34.1926 5.96587 -2.14901 34.1926 5.96587 -2.14901
91 1 35.2817 4.22967 -0.501287 35.2817 4.22967 -0.501287
92 2 37.0286 4.43276 1.16888 37.0286 4.43276 1.16888
93 2 37.1551 4.19472 -2.03189 37.1551 4.19472 -2.03189
94 1 38.1017 5.92651 -0.474671 38.1017 5.92651 -0.474671
95 2 40.1149 5.99895 1.0772 40.1149 5.99895 1.0772
96 2 39.9209 5.91588 -2.27335 39.9209 5.91588 -2.27335
97 1 40.9755 4.33549 -0.519054 40.9755 4.33549 -0.519054
98 2 42.9007 4.23618 1.08424 42.9007 4.23618 1.08424
99 2 42.6863 4.16788 -2.25078 42.6863 4.16788 -2.25078
100 1 43.8399 5.93901 -0.587132 43.8399 5.93901 -0.587132
101 2 45.8004 5.77251 1.03241 45.8004 5.77251 1.03241
102 2 45.687 5.96508 -2.26975 45.687 5.96508 -2.26975
103 1 46.7138 4.30842 -0.706149 46.7138 4.30842 -0.706149
104 2 48.621 4.43921 0.885785 48.621 4.43921 0.885785
105 2 48.5547 4.29205 -2.33071 48.5547 4.29205 -2.33071
106 1 49.5498 5.88931 -0.807122 49.5498 5.88931 -0.807122
107 2 51.3817 5.9408 0.846032 51.3817 5.9408 0.846032
108 2 51.4875 5.7392 -2.37831 51.4875 5.7392 -2.37831
109 1 1.01176 7.58617 -0.791999 1.01176 7.58617 -0.791999
110 2 2.93962 7.4652 0.918622 2.93962 7.4652 0.918622
111 2 2.86274 7.63021 -2.41441 2.86274 7.63021 -2.41441
112 1 3.8072 9.17884 -0.671799 3.8072 9.17884 -0.671799
113 2 5.63834 9.11335 1.04544 5.63834 9.11335 1.04544
114 2 5.84386 9.29958 -2.2555 5.84386 9.29958 -2.2555
115 1 6.65608 7.56758 -0.663974 6.65608 7.56758 -0.663974
116 2 8.5475 7.58692 0.950997 8.5475 7.58692 0.950997
117 2 8.45192 7.67555 -2.35034 8.45192 7.67555 -2.35034
118 1 9.53721 9.2421 -0.66347 9.53721 9.2421 -0.66347
119 2 11.4993 9.18938 0.79006 11.4993 9.18938 0.79006
120 2 11.3425 9.29406 -2.41829 11.3425 9.29406 -2.41829
121 1 12.3932 7.60169 -0.816022 12.3932 7.60169 -0.816022
122 2 14.0589 7.80606 0.901198 14.0589 7.80606 0.901198
123 2 14.4848 7.44949 -2.35684 14.4848 7.44949 -2.35684
124 1 15.3441 9.19002 -0.736454 15.3441 9.19002 -0.736454
125 2 17.1653 9.19498 0.928351 17.1653 9.19498 0.928351
126 2 17.2863 9.08465 -2.27668 17.2863 9.08465 -2.27668
127 1 18.2595 7.63522 -0.509874 18.2595 7.63522 -0.509874
128 2 20.0901 7.66292 1.1572 20.0901 7.66292 1.1572
129 2 20.0902 7.64543 -2.20228 20.0902 7.64543 -2.20228
130 1 21.0197 9.3251 -0.659828 21.0197 9.3251 -0.659828
131 2 22.928 9.40567 0.921464 22.928 9.40567 0.921464
132 2 22.921 9.34942 -2.29159 22.921 9.34942 -2.29159
133 1 23.8713 7.68812 -0.597743 23.8713 7.68812 -0.597743
134 2 25.5738 7.62222 1.08865 25.5738 7.62222 1.08865
135 2 25.8114 7.75923 -2.16394 25.8114 7.75923 -2.16394
136 1 26.6864 9.31611 -0.427139 26.6864 9.31611 -0.427139
137 2 28.5247 9.13492 1.31045 28.5247 9.13492 1.31045
138 2 28.688 9.46761 -1.95859 28.688 9.46761 -1.95859
139 1 29.5769 7.6749 -0.432964 29.5769 7.6749 -0.432964
140 2 31.4196 7.72687 1.2051 31.4196 7.72687 1.2051
141 2 31.5388 7.65192 -2.0516 31.5388 7.65192 -2.0516
142 1 32.3943 9.31014 -0.325678 32.3943 9.31014 -0.325678
143 2 34.3441 9.29881 1.19986 34.3441 9.29881 1.19986
144 2 34.2054 9.29215 -2.06914 34.2054 9.29215 -2.06914
145 1 35.2586 7.61975 -0.407283 35.2586 7.61975 -0.407283
146 2 37.3259 7.80506 1.10054 37.3259 7.80506 1.10054
147 2 37.016 7.50561 -2.13452 37.016 7.50561 -2.13452
148 1 38.1686 9.32915 -0.709938 38.1686 9.32915 -0.709938
149 2 40.079 9.29321 0.874429 40.079 9.29321 0.874429
150 2 39.9635 9.23537 -2.35843 39.9635 9.23537 -2.35843
151 1 40.9162 7.60266 -0.716468 40.9162 7.60266 -0.716468
152 2 42.6971 7.53957 1.02147 42.6971 7.53957 1.02147
153 2 42.905 7.55768 -2.24325 42.905 7.55768 -2.24325
154 1 43.7836 9.18916 -0.591712 43.7836 9.18916 -0.591712
155 2 45.7703 9.33934 0.960264 45.7703 9.33934 0.960264
156 2 45.6043 9.12237 -2.35625 45.6043 9.12237 -2.35625
157 1 46.6728 7.54326 -0.676332 46.6728 7.54326 -0.676332
158 2 48.6052 7.56328 0.799708 48.6052 7.56328 0.799708
159 2 48.4397 7.4644 -2.38593 48.4397 7.4644 -2.38593
160 1 49.4821 9.22334 -0.939653 49.4821 9.22334 -0.939653
161 2 51.3494 9.26654 0.653045 51.3494 9.26654 0.653045
162 2 51.4816 9.08905 -2.4806 51.4816 9.08905 -2.4806
163 1 0.942064 10.9318 -0.98166 0.942064 10.9318 -0.98166
164 2 2.83114 10.9422 0.899764 2.83114 10.9422 0.899764
165 2 3.05628 10.8262 -2.40781 3.05628 10.8262 -2.40781
166 1 3.90456 12.5303 -0.688653 3.90456 12.5303 -0.688653
167 2 5.6726 12.4711 1.04303 5.6726 12.4711 1.04303
168 2 5.91024 12.5148 -2.20169 5.91024 12.5148 -2.20169
169 1 6.63948 10.9066 -0.548832 6.63948 10.9066 -0.548832
170 2 8.7058 10.9067 1.01862 8.7058 10.9067 1.01862
171 2 8.59451 10.8362 -2.26368 8.59451 10.8362 -2.26368
172 1 9.59457 12.4466 -0.709059 9.59457 12.4466 -0.709059
173 2 11.5238 12.4539 0.975433 11.5238 12.4539 0.975433
174 2 11.4659 12.6746 -2.35906 11.4659 12.6746 -2.35906
175 1 12.4577 10.9361 -0.767903 12.4577 10.9361 -0.767903
176 2 14.2743 10.6807 1.01041 14.2743 10.6807 1.01041
177 2 14.4698 11.096 -2.3123 14.4698 11.096 -2.3123
178 1 15.372 12.5185 -0.431404 15.372 12.5185 -0.431404
179 2 17.2867 12.3323 1.15466 17.2867 12.3323 1.15466
180 2 17.3066 12.7752 -2.14907 17.3066 12.7752 -2.14907
181 1 18.1327 10.9329 -0.739271 18.1327 10.9329 -0.739271
182 2 19.9405 10.8134 1.03226 19.9405 10.8134 1.03226
183 2 20.0993 10.9625 -2.29554 20.0993 10.9625 -2.29554
184 1 21.0721 12.6684 -0.492383 21.0721 12.6684 -0.492383
185 2 22.9789 12.4747 1.04589 22.9789 12.4747 1.04589
186 2 22.937 12.9119 -2.09736 22.937 12.9119 -2.09736
187 1 23.8781 11.0684 -0.763309 23.8781 11.0684 -0.763309
188 2 25.4648 10.9233 1.15604 25.4648 10.9233 1.15604
189 2 26.0604 11.1359 -2.06958 26.0604 11.1359 -2.06958
190 1 26.685 12.6442 -0.23051 26.685 12.6442 -0.23051
191 2 28.5236 12.6214 1.49625 28.5236 12.6214 1.49625
192 2 28.7115 12.7693 -1.79773 28.7115 12.7693 -1.79773
193 1 29.519 10.935 -0.052941 29.519 10.935 -0.052941
194 2 31.6372 10.977 1.32838 31.6372 10.977 1.32838
195 2 31.2682 10.9266 -1.81529 31.2682 10.9266 -1.81529
196 1 32.4628 12.662 -0.25552 32.4628 12.662 -0.25552
197 2 34.5517 12.5825 1.2541 34.5517 12.5825 1.2541
198 2 34.1772 12.5356 -2.00526 34.1772 12.5356 -2.00526
199 1 35.3326 10.8496 -0.458237 35.3326 10.8496 -0.458237
200 2 37.3401 10.8577 1.12842 37.3401 10.8577 1.12842
201 2 36.9492 10.9988 -2.19244 36.9492 10.9988 -2.19244
202 1 38.1093 12.6062 -0.630316 38.1093 12.6062 -0.630316
203 2 40.1261 12.6956 0.869265 40.1261 12.6956 0.869265
204 2 39.9235 12.4127 -2.34588 39.9235 12.4127 -2.34588
205 1 40.9939 10.8909 -0.775409 40.9939 10.8909 -0.775409
206 2 42.9312 11.0312 0.823365 42.9312 11.0312 0.823365
207 2 42.9298 10.7654 -2.45454 42.9298 10.7654 -2.45454
208 1 43.7238 12.6161 -1.04241 43.7238 12.6161 -1.04241
209 2 45.6338 12.7336 0.543833 45.6338 12.7336 0.543833
210 2 45.7238 12.4462 -2.72798 45.7238 12.4462 -2.72798
211 1 46.547 10.9174 -0.939047 46.547 10.9174 -0.939047
212 2 48.5094 10.8676 0.780831 48.5094 10.8676 0.780831
213 2 48.5057 11.0382 -2.50701 48.5057 11.0382 -2.50701
214 1 49.4291 12.5496 -0.878969 49.4291 12.5496 -0.878969
215 2 51.3885 12.4559 0.755519 51.3885 12.4559 0.755519
216 2 51.3777 12.6095 -2.47147 51.3777 12.6095 -2.47147
217 1 1.0217 14.1587 -0.889045 1.0217 14.1587 -0.889045
218 2 2.75592 14.0342 0.913271 2.75592 14.0342 0.913271
219 2 3.04236 14.2204 -2.30157 3.04236 14.2204 -2.30157
220 1 3.79941 15.7623 -0.606834 3.79941 15.7623 -0.606834
221 2 5.66898 15.7185 1.11763 5.66898 15.7185 1.11763
222 2 5.86483 15.7656 -2.13944 5.86483 15.7656 -2.13944
223 1 6.76038 14.109 -0.485505 6.76038 14.109 -0.485505
224 2 8.73943 14.0051 1.07329 8.73943 14.0051 1.07329
225 2 8.64003 14.2903 -2.16735 8.64003 14.2903 -2.16735
226 1 9.50945 15.7481 -0.439494 9.50945 15.7481 -0.439494
227 2 11.5375 15.8102 1.21615 11.5375 15.8102 1.21615
228 2 11.5296 15.8476 -2.15602 11.5296 15.8476 -2.15602
229 1 12.4068 14.2249 -0.605533 12.4068 14.2249 -0.605533
230 2 14.2841 14.1677 1.13198 14.2841 14.1677 1.13198
231 2 14.5342 14.2313 -2.11703 14.5342 14.2313 -2.11703
232 1 15.3518 15.8887 -0.363396 15.3518 15.8887 -0.363396
233 2 17.214 15.883 1.25395 17.214 15.883 1.25395
234 2 17.2008 15.8266 -1.9962 17.2008 15.8266 -1.9962
235 1 18.1474 14.24 -0.312077 18.1474 14.24 -0.312077
236 2 20.2063 14.2245 1.22082 20.2063 14.2245 1.22082
237 2 20.0769 14.2428 -2.05112 20.0769 14.2428 -2.05112
238 1 21.0217 15.9296 -0.488738 21.0217 15.9296 -0.488738
239 2 22.7128 15.7977 1.34018 22.7128 15.7977 1.34018
240 2 23.055 16.1029 -1.92818 23.055 16.1029 -1.92818
241 1 23.9099 14.3547 -0.346462 23.9099 14.3547 -0.346462
242 2 25.7149 14.3592 1.40954 25.7149 14.3592 1.40954
243 2 25.9125 14.2845 -1.94653 25.9125 14.2845 -1.94653
244 1 26.7461 15.9023 -0.252824 26.7461 15.9023 -0.252824
245 2 28.5536 16.0067 1.57099 28.5536 16.0067 1.57099
246 2 28.7155 15.7733 -1.74171 28.7155 15.7733 -1.74171
247 1 29.6032 14.3104 0.000591126 29.6032 14.3104 0.000591126
248 2 31.6151 14.3302 1.37711 31.6151 14.3302 1.37711
249 2 31.2949 14.3346 -1.84521 31.2949 14.3346 -1.84521
250 1 32.4419 15.987 -0.246604 32.4419 15.987 -0.246604
251 2 34.3616 15.8895 1.25385 34.3616 15.8895 1.25385
252 2 34.2527 16.0754 -2.00776 34.2527 16.0754 -2.00776
253 1 35.2082 14.2392 -0.489351 35.2082 14.2392 -0.489351
254 2 37.2175 14.2839 0.985981 37.2175 14.2839 0.985981
255 2 36.9789 14.1829 -2.23385 36.9789 14.1829 -2.23385
256 1 38.1023 15.9144 -0.782808 38.1023 15.9144 -0.782808
257 2 39.9929 15.6331 0.985897 39.9929 15.6331 0.985897
258 2 39.9794 16.1195 -2.4283 39.9794 16.1195 -2.4283
259 1 40.9351 14.2144 -0.902718 40.9351 14.2144 -0.902718
260 2 42.7632 14.1953 0.651515 42.7632 14.1953 0.651515
261 2 42.6977 14.2468 -2.56389 42.6977 14.2468 -2.56389
262 1 43.7925 15.873 -1.00939 43.7925 15.873 -1.00939
263 2 45.7094 15.8499 0.550958 45.7094 15.8499 0.550958
264 2 45.7186 15.9731 -2.74227 45.7186 15.9731 -2.74227
265 1 46.63 14.2665 -1.14009 46.63 14.2665 -1.14009
266 2 48.3937 14.1704 0.700666 48.3937 14.1704 0.700666
267 2 48.7074 14.2991 -2.55493 48.7074 14.2991 -2.55493
268 1 49.4496 15.894 -0.768636 49.4496 15.894 -0.768636
269 2 51.4553 15.7048 0.86573 51.4553 15.7048 0.86573
270 2 51.3363 16.0396 -2.41192 51.3363 16.0396 -2.41192
271 1 0.985751 17.5292 -0.610095 0.985751 17.5292 -0.610095
272 2 2.88127 17.4413 0.975612 2.88127 17.4413 0.975612
273 2 2.93332 17.4853 -2.27718 2.93332 17.4853 -2.27718
274 1 3.92406 19.1137 -0.584923 3.92406 19.1137 -0.584923
275 2 5.66542 19.1598 1.13854 5.66542 19.1598 1.13854
276 2 5.91091 19.1365 -1.99141 5.91091 19.1365 -1.99141
277 1 6.74983 17.4693 -0.361428 6.74983 17.4693 -0.361428
278 2 8.61916 17.4316 1.28262 8.61916 17.4316 1.28262
279 2 8.5388 17.5368 -2.04703 8.5388 17.5368 -2.04703
280 1 9.54105 19.1585 -0.351605 9.54105 19.1585 -0.351605
281 2 11.5353 19.0557 1.28179 11.5353 19.0557 1.28179
282 2 11.4702 19.2611 -2.02283 11.4702 19.2611 -2.02283
283 1 12.5126 17.5098 -0.459744 12.5126 17.5098 -0.459744
284 2 14.4299 17.5887 1.24326 14.4299 17.5887 1.24326
285 2 14.5028 17.5101 -2.07573 14.5028 17.5101 -2.07573
286 1 15.3453 19.2059 -0.458937 15.3453 19.2059 -0.458937
287 2 17.2877 19.314 1.11437 17.2877 19.314 1.11437
288 2 17.0439 19.1351 -2.09057 17.0439 19.1351 -2.09057
289 1 18.1113 17.5638 -0.437861 18.1113 17.5638 -0.437861
290 2 20.1445 17.628 1.1885 20.1445 17.628 1.1885
291 2 20.0575 17.4502 -2.09609 20.0575 17.4502 -2.09609
292 1 21.0411 19.2342 -0.563019 21.0411 19.2342 -0.563019
293 2 22.7597 19.1223 1.32036 22.7597 19.1223 1.32036
294 2 23.2355 19.3505 -1.87925 23.2355 19.3505 -1.87925
295 1 23.9151 17.5911 -0.0921788 23.9151 17.5911 -0.0921788
296 2 25.8515 17.6807 1.41413 25.8515 17.6807 1.41413
297 2 25.7312 17.5149 -1.82259 25.7312 17.5149 -1.82259
298 1 26.7358 19.2611 -0.272197 26.7358 19.2611 -0.272197
299 2 28.4916 19.2176 1.4271 28.4916 19.2176 1.4271
300 2 28.6054 19.2159 -1.78698 28.6054 19.2159 -1.78698
301 1 29.532 17.557 -0.153771 29.532 17.557 -0.153771
302 2 31.5238 17.7356 1.44207 31.5238 17.7356 1.44207
303 2 31.2571 17.4304 -1.91276 31.2571 17.4304 -1.91276
304 1 32.4047 19.2257 -0.451242 32.4047 19.2257 -0.451242
305 2 34.2216 19.1377 1.13634 34.2216 19.1377 1.13634
306 2 34.2981 19.2388 -2.0601 34.2981 19.2388 -2.0601
307 1 35.3157 17.6048 -0.44436 35.3157 17.6048 -0.44436
308 2 37.2518 17.4611 1.03125 37.2518 17.4611 1.03125
309 2 37.1151 17.6003 -2.19589 37.1151 17.6003 -2.19589
310 1 38.1338 19.1854 -0.517012 38.1338 19.1854 -0.517012
311 2 40.0145 19.2354 1.14657 40.0145 19.2354 1.14657
312 2 40.036 19.2622 -2.11284 40.036 19.2622 -2.11284
313 1 41.0134 17.5262 -0.534466 41.0134 17.5262 -0.534466
314 2 43.1384 17.4542 0.805485 43.1384 17.4542 0.805485
315 2 42.6282 17.5588 -2.41727 42.6282 17.5588 -2.41727
316 1 43.8517 19.2156 -0.813491 43.8517 19.2156 -0.813491
317 2 45.7837 19.0928 0.854218 45.7837 19.0928 0.854218
318 2 45.7572 19.4112 -2.48234 45.7572 19.4112 -2.48234
319 1 46.6706 17.5401 -1.04408 46.6706 17.5401 -1.04408
320 2 48.5079 17.5224 0.847884 48.5079 17.5224 0.847884
321 2 48.8184 17.4958 -2.44932 48.8184 17.4958 -2.44932
322 1 49.5501 19.1202 -0.7698 49.5501 19.1202 -0.7698
323 2 51.3682 19.1556 1.03711 51.3682 19.1556 1.03711
324 2 51.5718 19.2952 -2.22312 51.5718 19.2952 -2.22312
325 1 1.11844 20.7593 -0.470526 1.11844 20.7593 -0.470526
326 2 3.02632 20.5591 1.1775 3.02632 20.5591 1.1775
327 2 3.05134 20.7718 -2.13255 3.05134 20.7718 -2.13255
328 1 3.89472 22.4217 -0.380462 3.89472 22.4217 -0.380462
329 2 5.62799 22.3023 1.28545 5.62799 22.3023 1.28545
330 2 5.76193 22.5446 -1.99869 5.76193 22.5446 -1.99869
331 1 6.78465 20.7972 -0.356613 6.78465 20.7972 -0.356613
332 2 8.67178 20.8883 1.29396 8.67178 20.8883 1.29396
333 2 8.58539 20.7266 -2.07937 8.58539 20.7266 -2.07937
334 1 9.54867 22.4745 -0.502563 9.54867 22.4745 -0.502563
335 2 11.3476 22.4326 1.32119 11.3476 22.4326 1.32119
336 2 11.5586 22.5505 -2.0065 11.5586 22.5505 -2.0065
337 1 12.3685 20.8073 -0.3172 12.3685 20.8073 -0.3172
338 2 14.4297 20.7745 1.17146 14.4297 20.7745 1.17146
339 2 14.2548 20.748 -2.01948 14.2548 20.748 -2.01948
340 1 15.2918 22.3867 -0.615411 15.2918 22.3867 -0.615411
341 2 17.2809 22.2896 1.08993 17.2809 22.2896 1.08993
342 2 17.2315 22.4806 -2.22825 17.2315 22.4806 -2.22825
343 1 18.2145 20.7834 -0.673643 18.2145 20.7834 -0.673643
344 2 20.0609 20.7865 1.04449 20.0609 20.7865 1.04449
345 2 20.0641 20.8732 -2.3108 20.0641 20.8732 -2.3108
346 1 21.0959 22.489 -0.592366 21.0959 22.489 -0.592366
347 2 22.7355 22.5416 1.19364 22.7355 22.5416 1.19364
348 2 23.2127 22.5829 -1.94388 23.2127 22.5829 -1.94388
349 1 23.892 20.8487 -0.142932 23.892 20.8487 -0.142932
350 2 25.7687 20.8026 1.421 25.7687 20.8026 1.421
351 2 25.7291 20.974 -1.79026 25.7291 20.974 -1.79026
352 1 26.6991 22.5463 -0.111147 26.6991 22.5463 -0.111147
353 2 28.6527 22.4013 1.65331 28.6527 22.4013 1.65331
354 2 28.6832 22.5965 -1.65342 28.6832 22.5965 -1.65342
355 1 29.5182 20.8476 -0.153795 29.5182 20.8476 -0.153795
356 2 31.4339 20.7281 1.35944 31.4339 20.7281 1.35944
357 2 31.3553 20.9514 -1.88151 31.3553 20.9514 -1.88151
358 1 32.4472 22.4695 -0.129209 32.4472 22.4695 -0.129209
359 2 34.2647 22.1332 1.47277 34.2647 22.1332 1.47277
360 2 34.428 22.5851 -1.71921 34.428 22.5851 -1.71921
361 1 35.2729 20.7988 -0.326443 35.2729 20.7988 -0.326443
362 2 37.2774 20.7081 1.3353 37.2774 20.7081 1.3353
363 2 37.0708 20.8189 -1.98835 37.0708 20.8189 -1.98835
364 1 38.1067 22.3813 -0.307514 38.1067 22.3813 -0.307514
365 2 40.0388 22.2572 1.31329 40.0388 22.2572 1.31329
366 2 40.0091 22.7372 -1.9859 40.0091 22.7372 -1.9859
367 1 40.9369 20.8304 -0.458082 40.9369 20.8304 -0.458082
368 2 42.9489 20.5332 1.04943 42.9489 20.5332 1.04943
369 2 42.7863 21.0024 -2.20653 42.7863 21.0024 -2.20653
370 1 43.8544 22.3756 -0.373525 43.8544 22.3756 -0.373525
371 2 45.7939 22.214 1.17882 45.7939 22.214 1.17882
372 2 45.5947 22.5621 -2.07115 45.5947 22.5621 -2.07115
373 1 46.7568 20.8157 -0.743979 46.7568 20.8157 -0.743979
374 2 48.6101 20.7082 1.01878 48.6101 20.7082 1.01878
375 2 48.715 20.9083 -2.29628 48.715 20.9083 -2.29628
376 1 49.5748 22.3764 -0.522428 49.5748 22.3764 -0.522428
377 2 51.5316 22.4448 1.10556 51.5316 22.4448 1.10556
378 2 51.5839 22.3046 -2.2226 51.5839 22.3046 -2.2226
379 1 0.998064 24.0743 -0.622729 0.998064 24.0743 -0.622729
380 2 2.75998 24.0909 1.19132 2.75998 24.0909 1.19132
381 2 3.03835 24.178 -2.06231 3.03835 24.178 -2.06231
382 1 3.82758 25.7597 -0.367626 3.82758 25.7597 -0.367626
383 2 5.66361 25.5742 1.40682 5.66361 25.5742 1.40682
384 2 5.81924 25.7624 -1.83082 5.81924 25.7624 -1.83082
385 1 6.58796 24.063 -0.265728 6.58796 24.063 -0.265728
386 2 8.57883 24.0015 1.26403 8.57883 24.0015 1.26403
387 2 8.42341 24.2614 -1.97381 8.42341 24.2614 -1.97381
388 1 9.5057 25.727 -0.317024 9.5057 25.727 -0.317024
389 2 11.3688 25.784 1.41679 11.3688 25.784 1.41679
390 2 11.5532 25.6738 -1.91235 11.5532 25.6738 -1.91235
391 1 12.4256 24.0407 -0.221219 12.4256 24.0407 -0.221219
392 2 14.4441 23.8787 1.27841 14.4441 23.8787 1.27841
393 2 14.146 24.2823 -1.95117 14.146 24.2823 -1.95117
394 1 15.3293 25.7153 -0.259974 15.3293 25.7153 -0.259974
395 2 17.1898 25.4927 1.34329 17.1898 25.4927 1.34329
396 2 17.1474 26.0073 -1.9466 17.1474 26.0073 -1.9466
397 1 18.2921 24.1307 -0.516562 18.2921 24.1307 -0.516562
398 2 19.9397 23.8715 1.27887 19.9397 23.8715 1.27887
399 2 20.3845 24.3751 -1.95735 20.3845 24.3751 -1.95735
400 1 21.0599 25.7738 -0.0392101 21.0599 25.7738 -0.0392101
401 2 23.0687 25.5738 1.542 23.0687 25.5738 1.542
402 2 22.9403 25.9866 -1.61886 22.9403 25.9866 -1.61886
403 1 23.9329 24.2385 -0.218628 23.9329 24.2385 -0.218628
404 2 25.6921 23.9204 1.63046 25.6921 23.9204 1.63046
405 2 25.9417 24.3916 -1.69963 25.9417 24.3916 -1.69963
406 1 26.8 25.6902 0.187622 26.8 25.6902 0.187622
407 2 28.7011 25.5974 1.85104 28.7011 25.5974 1.85104
408 2 28.6685 25.8535 -1.37465 28.6685 25.8535 -1.37465
409 1 29.5833 24.0291 0.138978 29.5833 24.0291 0.138978
410 2 31.5718 23.8638 1.69125 31.5718 23.8638 1.69125
411 2 31.4322 24.3425 -1.46274 31.4322 24.3425 -1.46274
412 1 32.4072 25.8092 0.341867 32.4072 25.8092 0.341867
413 2 34.4355 25.6546 1.87024 34.4355 25.6546 1.87024
414 2 34.3677 25.7425 -1.44095 34.3677 25.7425 -1.44095
415 1 35.323 23.9993 0.0965359 35.323 23.9993 0.0965359
416 2 37.4574 23.7658 1.52958 37.4574 23.7658 1.52958
417 2 36.9809 24.2783 -1.69167 36.9809 24.2783 -1.69167
418 1 38.1349 25.659 -0.00394719 38.1349 25.659 -0.00394719
419 2 39.9936 25.5606 1.67132 39.9936 25.5606 1.67132
420 2 40.0603 25.7761 -1.58325 40.0603 25.7761 -1.58325
421 1 41.1155 24.0387 -0.0861989 41.1155 24.0387 -0.0861989
422 2 43.0364 23.8941 1.44027 43.0364 23.8941 1.44027
423 2 42.8722 24.2215 -1.76454 42.8722 24.2215 -1.76454
424 1 43.9139 25.6955 -0.0219544 43.9139 25.6955 -0.0219544
425 2 46.0823 25.524 1.45576 46.0823 25.524 1.45576
426 2 45.7105 25.8563 -1.79716 45.7105 25.8563 -1.79716
427 1 46.7719 23.9446 -0.380835 46.7719 23.9446 -0.380835
428 2 48.6784 23.9187 1.38429 48.6784 23.9187 1.38429
429 2 48.5729 24.0395 -2.07125 48.5729 24.0395 -2.07125
430 1 49.516 25.6517 -0.370988 49.516 25.6517 -0.370988
431 2 51.5986 25.6327 1.21808 51.5986 25.6327 1.21808
432 2 51.3812 25.8742 -2.06238 51.3812 25.8742 -2.06238
433 1 1.0101 27.3867 -0.334551 1.0101 27.3867 -0.334551
434 2 2.88674 27.2045 1.33667 2.88674 27.2045 1.33667
435 2 2.97824 27.4844 -1.91034 2.97824 27.4844 -1.91034
436 1 3.92513 28.9726 -0.107582 3.92513 28.9726 -0.107582
437 2 5.86162 29.0569 1.46745 5.86162 29.0569 1.46745
438 2 5.822 28.8691 -1.7614 5.822 28.8691 -1.7614
439 1 6.72736 27.3212 -0.0432758 6.72736 27.3212 -0.0432758
440 2 8.67276 27.2696 1.54439 8.67276 27.2696 1.54439
441 2 8.53479 27.5417 -1.75212 8.53479 27.5417 -1.75212
442 1 9.61052 29.007 0.00482952 9.61052 29.007 0.00482952
443 2 11.6491 28.9202 1.50074 11.6491 28.9202 1.50074
444 2 11.304 28.9775 -1.77945 11.304 28.9775 -1.77945
445 1 12.4194 27.3261 -0.218992 12.4194 27.3261 -0.218992
446 2 14.2882 27.2069 1.48224 14.2882 27.2069 1.48224
447 2 14.365 27.4546 -1.77559 14.365 27.4546 -1.77559
448 1 15.3604 29.0233 -0.017108 15.3604 29.0233 -0.017108
449 2 17.207 28.7715 1.61292 17.207 28.7715 1.61292
450 2 17.2294 29.1731 -1.604 17.2294 29.1731 -1.604
451 1 18.1734 27.3131 -0.0859786 18.1734 27.3131 -0.0859786
452 2 20.0069 27.2867 1.74449 20.0069 27.2867 1.74449
453 2 20.1297 27.5006 -1.60901 20.1297 27.5006 -1.60901
454 1 20.9794 29.0109 0.215959 20.9794 29.0109 0.215959
455 2 22.8726 28.7677 1.84733 22.8726 28.7677 1.84733
456 2 22.9591 29.2528 -1.42952 22.9591 29.2528 -1.42952
457 1 23.8509 27.381 0.0752518 23.8509 27.381 0.0752518
458 2 25.6844 27.1951 1.75524 25.6844 27.1951 1.75524
459 2 25.8837 27.4914 -1.46247 25.8837 27.4914 -1.46247
460 1 26.6817 28.9863 0.378117 26.6817 28.9863 0.378117
461 2 28.479 28.9696 2.09706 28.479 28.9696 2.09706
462 2 28.6585 29.0623 -1.13459 28.6585 29.0623 -1.13459
463 1 29.5551 27.4056 0.425613 29.5551 27.4056 0.425613
464 2 31.4358 27.3147 2.05211 31.4358 27.3147 2.05211
465 2 31.5079 27.4495 -1.27345 31.5079 27.4495 -1.27345
466 1 32.3654 29.0633 0.525364 32.3654 29.0633 0.525364
467 2 34.3572 28.9202 2.04803 34.3572 28.9202 2.04803
468 2 34.3112 29.0496 -1.11264 34.3112 29.0496 -1.11264
469 1 35.2551 27.3261 0.21698 35.2551 27.3261 0.21698
470 2 37.1638 27.3463 1.77279 37.1638 27.3463 1.77279
471 2 37.1005 27.3751 -1.42812 37.1005 27.3751 -1.42812
472 1 38.1907 28.8675 0.171705 38.1907 28.8675 0.171705
473 2 40.0577 28.9323 1.86556 40.0577 28.9323 1.86556
474 2 40.1512 28.9588 -1.42103 40.1512 28.9588 -1.42103
475 1 41.0102 27.2416 0.236265 41.0102 27.2416 0.236265
476 2 42.9989 27.2498 1.7293 42.9989 27.2498 1.7293
477 2 42.7666 27.2691 -1.48732 42.7666 27.2691 -1.48732
478 1 43.8644 28.9432 0.0687867 43.8644 28.9432 0.0687867
479 2 45.8246 28.8862 1.62504 45.8246 28.8862 1.62504
480 2 45.7418 29.1525 -1.58552 45.7418 29.1525 -1.58552
481 1 46.7886 27.3022 -0.140528 46.7886 27.3022 -0.140528
482 2 48.7416 27.0817 1.36686 48.7416 27.0817 1.36686
483 2 48.5063 27.521 -1.88858 48.5063 27.521 -1.88858
484 1 49.5027 28.9614 -0.171284 49.5027 28.9614 -0.171284
485 2 51.3492 28.7484 1.51599 51.3492 28.7484 1.51599
486 2 51.3462 29.1964 -1.77048 51.3462 29.1964 -1.77048
487 1 1.04132 30.5503 0.163427 1.04132 30.5503 0.163427
488 2 3.09764 30.5336 1.60008 3.09764 30.5336 1.60008
489 2 2.86942 30.6393 -1.59592 2.86942 30.6393 -1.59592
490 1 3.8516 32.2473 -0.0430601 3.8516 32.2473 -0.0430601
491 2 5.83723 32.1687 1.46808 5.83723 32.1687 1.46808
492 2 5.7069 32.2901 -1.81977 5.7069 32.2901 -1.81977
493 1 6.72937 30.5751 -0.184576 6.72937 30.5751 -0.184576
494 2 8.61934 30.732 1.50779 8.61934 30.732 1.50779
495 2 8.54876 30.5976 -1.69509 8.54876 30.5976 -1.69509
496 1 9.68093 32.2693 -0.034443 9.68093 32.2693 -0.034443
497 2 11.6247 32.3121 1.54583 11.6247 32.3121 1.54583
498 2 11.5342 32.2862 -1.71241 11.5342 32.2862 -1.71241
499 1 12.4819 30.5939 -0.146425 12.4819 30.5939 -0.146425
500 2 14.3862 30.6989 1.56746 14.3862 30.6989 1.56746
501 2 14.3585 30.6725 -1.73791 14.3585 30.6725 -1.73791
502 1 15.3835 32.3444 -0.0389645 15.3835 32.3444 -0.0389645
503 2 17.0538 32.2247 1.8217 17.0538 32.2247 1.8217
504 2 17.3511 32.4633 -1.42256 17.3511 32.4633 -1.42256
505 1 18.1929 30.7091 0.110078 18.1929 30.7091 0.110078
506 2 20.0016 30.6434 1.85714 20.0016 30.6434 1.85714
507 2 20.2305 30.7644 -1.31652 20.2305 30.7644 -1.31652
508 1 21.0196 32.3402 0.394687 21.0196 32.3402 0.394687
509 2 22.8636 32.2381 2.19718 22.8636 32.2381 2.19718
510 2 23.0126 32.4763 -1.13301 23.0126 32.4763 -1.13301
511 1 23.846 30.7671 0.384693 23.846 30.7671 0.384693
512 2 25.8701 30.6657 1.98163 25.8701 30.6657 1.98163
513 2 25.807 30.6023 -1.28155 25.807 30.6023 -1.28155
514 1 26.6602 32.2869 0.295122 26.6602 32.2869 0.295122
515 2 28.4996 32.2982 1.99181 28.4996 32.2982 1.99181
516 2 28.6399 32.2567 -1.1949 28.6399 32.2567 -1.1949
517 1 29.5179 30.662 0.5687 29.5179 30.662 0.5687
518 2 31.4624 30.8289 2.15575 31.4624 30.8289 2.15575
519 2 31.279 30.6026 -1.15788 31.279 30.6026 -1.15788
520 1 32.4617 32.2455 0.368608 32.4617 32.2455 0.368608
521 2 34.3174 32.3305 1.98263 34.3174 32.3305 1.98263
522 2 34.4852 32.1477 -1.26982 34.4852 32.1477 -1.26982
523 1 35.3734 30.6054 0.52794 35.3734 30.6054 0.52794
524 2 37.3154 30.4559 1.98599 37.3154 30.4559 1.98599
525 2 37.0356 30.7189 -1.32296 37.0356 30.7189 -1.32296
526 1 38.1602 32.2083 0.416306 38.1602 32.2083 0.416306
527 2 40.1713 32.1099 1.95084 40.1713 32.1099 1.95084
528 2 40.0524 32.2252 -1.26678 40.0524 32.2252 -1.26678
529 1 41.0704 30.5019 0.285651 41.0704 30.5019 0.285651
530 2 43.0892 30.5026 1.883 43.0892 30.5026 1.883
531 2 42.8901 30.6236 -1.39521 42.8901 30.6236 -1.39521
532 1 43.9145 32.2355 0.439859 43.9145 32.2355 0.439859
533 2 45.8747 32.2544 2.06127 45.8747 32.2544 2.06127
534 2 45.7364 32.4198 -1.21749 45.7364 32.4198 -1.21749
535 1 46.7186 30.6751 0.144728 46.7186 30.6751 0.144728
536 2 48.5341 30.4144 1.73341 48.5341 30.4144 1.73341
537 2 48.6144 30.9133 -1.50853 48.6144 30.9133 -1.50853