ITEM: TIMESTEP
20100
ITEM: NUMBER OF ATOMS
810
ITEM: BOX BOUNDS pp pp pp
7.7362253290120597e-01 5.2243982467099364e+01
7.7840227736268142e-01 5.0237812722636320e+01
-1.0000000000000000e+01 1.0000000000000000e+01
ITEM: ATOMS id type x y z xu yu zu
1 1 1.03796 0.996006 -0.0142689 1.03796 0.996006 -0.0142689
2 2 2.98891 1.11782 1.56565 2.98891 1.11782 1.56565
3 2 2.78273 0.841366 -1.79726 2.78273 0.841366 -1.79726
4 1 3.86496 2.61702 -0.366482 3.86496 2.61702 -0.366482
5 2 5.7237 2.75786 1.33482 5.7237 2.75786 1.33482
6 2 5.74422 2.47759 -1.93674 5.74422 2.47759 -1.93674
7 1 6.61709 0.92491 -0.111374 6.61709 0.92491 -0.111374
8 2 8.55934 0.991287 1.43454 8.55934 0.991287 1.43454
9 2 8.40902 0.959882 -1.77411 8.40902 0.959882 -1.77411
10 1 9.43658 2.5741 -0.264315 9.43658 2.5741 -0.264315
11 2 11.4976 2.65415 1.22805 11.4976 2.65415 1.22805
12 2 11.3886 2.60933 -1.98857 11.3886 2.60933 -1.98857
13 1 12.3142 1.03813 -0.323275 12.3142 1.03813 -0.323275
14 2 14.2907 1.12709 1.41974 14.2907 1.12709 1.41974
15 2 14.2661 0.761386 -1.78134 14.2661 0.761386 -1.78134
16 1 15.1857 2.58474 -0.390204 15.1857 2.58474 -0.390204
17 2 16.9022 2.67464 1.42206 16.9022 2.67464 1.42206
18 2 17.3078 2.55508 -1.78326 17.3078 2.55508 -1.78326
19 1 18.1552 0.9479 -0.0536271 18.1552 0.9479 -0.0536271
20 2 20.1634 1.00009 1.59666 20.1634 1.00009 1.59666
21 2 20.1108 0.933325 -1.58415 20.1108 0.933325 -1.58415
22 1 21.145 2.58638 0.0190169 21.145 2.58638 0.0190169
23 2 22.8106 2.46837 1.83492 22.8106 2.46837 1.83492
24 2 23.1553 2.62903 -1.36316 23.1553 2.62903 -1.36316
25 1 23.9573 0.900838 0.22933 23.9573 0.900838 0.22933
26 2 25.6693 1.04768 2.02036 25.6693 1.04768 2.02036
27 2 25.872 0.81445 -1.25609 25.872 0.81445 -1.25609
28 1 26.7636 2.6247 0.379294 26.7636 2.6247 0.379294
29 2 28.4745 2.85868 2.13791 28.4745 2.85868 2.13791
30 2 28.7609 2.60496 -1.19371 28.7609 2.60496 -1.19371
31 1 29.5559 1.02566 0.671694 29.5559 1.02566 0.671694
32 2 31.689 1.01187 2.16791 31.689 1.01187 2.16791
33 2 31.4217 1.05013 -1.10585 31.4217 1.05013 -1.10585
34 1 32.444 2.67157 0.395216 32.444 2.67157 0.395216
35 2 34.5041 2.73682 1.90009 34.5041 2.73682 1.90009
36 2 34.2504 2.53274 -1.29292 34.2504 2.53274 -1.29292
37 1 35.3145 0.981884 0.341911 35.3145 0.981884 0.341911
38 2 37.2432 1.1225 1.96742 37.2432 1.1225 1.96742
39 2 37.202 0.852407 -1.21836 37.202 0.852407 -1.21836
40 1 38.2104 2.63241 0.218514 38.2104 2.63241 0.218514
41 2 40.2958 2.8226 1.64352 40.2958 2.8226 1.64352
42 2 39.8309 2.33083 -1.55959 39.8309 2.33083 -1.55959
43 1 41.0508 0.936626 0.212374 41.0508 0.936626 0.212374
44 2 42.9314 1.11303 1.87353 42.9314 1.11303 1.87353
45 2 42.9884 0.837532 -1.34438 42.9884 0.837532 -1.34438
46 1 43.881 2.63364 0.183296 43.881 2.63364 0.183296
47 2 45.939 2.72756 1.59436 45.939 2.72756 1.59436
48 2 45.6215 2.46391 -1.59226 45.6215 2.46391 -1.59226
49 1 46.6715 0.948213 0.00947727 46.6715 0.948213 0.00947727
50 2 48.5985 1.14038 1.71524 48.5985 1.14038 1.71524
51 2 48.6315 0.866035 -1.60556 48.6315 0.866035 -1.60556
52 1 49.5216 2.66751 -0.0709115 49.5216 2.66751 -0.0709115
53 2 51.5587 2.78825 1.57162 51.5587 2.78825 1.57162
54 2 51.4263 2.45123 -1.78668 51.4263 2.45123 -1.78668
55 1 0.879232 4.2395 -0.312501 0.879232 4.2395 -0.312501
56 2 2.75276 4.25364 1.28912 2.75276 4.25364 1.28912
57 2 2.92922 4.19194 -1.89742 2.92922 4.19194 -1.89742
58 1 3.77894 5.97803 -0.121648 3.77894 5.97803 -0.121648
59 2 5.84945 5.88965 1.37435 5.84945 5.88965 1.37435
60 2 5.65296 6.00174 -1.85472 5.65296 6.00174 -1.85472
61 1 6.68151 4.25772 -0.341983 6.68151 4.25772 -0.341983
62 2 8.57793 4.43294 1.24554 8.57793 4.43294 1.24554
63 2 8.53375 4.01558 -2.06707 8.53375 4.01558 -2.06707
64 1 9.45704 5.90043 -0.587222 9.45704 5.90043 -0.587222
65 2 11.3602 6.04752 0.97679 11.3602 6.04752 0.97679
66 2 11.3629 5.87444 -2.23842 11.3629 5.87444 -2.23842
67 1 12.3256 4.32877 -0.415263 12.3256 4.32877 -0.415263
68 2 14.1608 4.12504 1.23123 14.1608 4.12504 1.23123
69 2 14.2422 4.42191 -1.93404 14.2422 4.42191 -1.93404
70 1 15.2883 5.896 -0.243792 15.2883 5.896 -0.243792
71 2 17.0794 5.90539 1.57172 17.0794 5.90539 1.57172
72 2 17.4355 6.00046 -1.68226 17.4355 6.00046 -1.68226
73 1 18.1271 4.24631 -0.0635384 18.1271 4.24631 -0.0635384
74 2 20.025 4.09525 1.70546 20.025 4.09525 1.70546
75 2 20.2569 4.4469 -1.53063 20.2569 4.4469 -1.53063
76 1 21.0827 5.93137 0.309833 21.0827 5.93137 0.309833
77 2 22.9836 6.04965 1.9938 22.9836 6.04965 1.9938
78 2 22.9546 5.88638 -1.36741 22.9546 5.88638 -1.36741
79 1 23.9731 4.28106 0.318606 23.9731 4.28106 0.318606
80 2 25.6148 4.12983 2.11256 25.6148 4.12983 2.11256
81 2 25.9164 4.49427 -1.20211 25.9164 4.49427 -1.20211
82 1 26.7338 5.99075 0.618431 26.7338 5.99075 0.618431
83 2 28.7663 5.89904 2.10555 28.7663 5.89904 2.10555
84 2 28.6063 5.94742 -1.14573 28.6063 5.94742 -1.14573
85 1 29.5675 4.29032 0.4513 29.5675 4.29032 0.4513
86 2 31.5321 4.31128 2.09724 31.5321 4.31128 2.09724
87 2 31.5689 4.34954 -1.19129 31.5689 4.34954 -1.19129
88 1 32.4225 5.96469 0.490771 32.4225 5.96469 0.490771
89 2 34.494 5.96745 1.94392 34.494 5.96745 1.94392
90 2 34.277 6.01941 -1.27272 34.277 6.01941 -1.27272
91 1 35.3289 4.31259 0.238022 35.3289 4.31259 0.238022
92 2 37.4164 4.5569 1.69638 37.4164 4.5569 1.69638
93 2 37.1241 4.17069 -1.52 37.1241 4.17069 -1.52
94 1 38.1368 5.9854 -0.188099 38.1368 5.9854 -0.188099
95 2 40.1554 5.96988 1.40289 40.1554 5.96988 1.40289
96 2 40.1097 5.89273 -1.90194 40.1097 5.89273 -1.90194
97 1 41.0146 4.15541 -0.211678 41.0146 4.15541 -0.211678
98 2 42.9173 4.45873 1.46668 42.9173 4.45873 1.46668
99 2 42.981 3.94753 -1.74511 42.981 3.94753 -1.74511
100 1 43.8856 5.93338 -0.415229 43.8856 5.93338 -0.415229
101 2 45.6541 5.99576 1.2208 45.6541 5.99576 1.2208
102 2 45.9121 5.81597 -2.07984 45.9121 5.81597 -2.07984
103 1 46.6896 4.23691 -0.184679 46.6896 4.23691 -0.184679
104 2 48.4811 4.47665 1.42203 48.4811 4.47665 1.42203
105 2 48.4819 4.24569 -1.82097 48.4819 4.24569 -1.82097
106 1 49.5263 5.89648 -0.318845 49.5263 5.89648 -0.318845
107 2 51.3899 5.76894 1.31358 51.3899 5.76894 1.31358
108 2 51.4456 5.95551 -1.80759 51.4456 5.95551 -1.80759
109 1 0.958947 7.62916 -0.0779217 0.958947 7.62916 -0.0779217
110 2 2.93933 7.76138 1.44873 2.93933 7.76138 1.44873
111 2 2.83608 7.5294 -1.84523 2.83608 7.5294 -1.84523
112 1 3.83779 9.2515 -0.398635 3.83779 9.2515 -0.398635
113 2 5.64109 9.24826 1.31642 5.64109 9.24826 1.31642
114 2 5.80959 9.35503 -2.04696 5.80959 9.35503 -2.04696
115 1 6.68515 7.58112 -0.359592 6.68515 7.58112 -0.359592
116 2 8.65038 7.56332 1.17634 8.65038 7.56332 1.17634
117 2 8.58873 7.56443 -2.11589 8.58873 7.56443 -2.11589
118 1 9.56457 9.23344 -0.425595 9.56457 9.23344 -0.425595
119 2 11.5708 9.12763 1.14228 11.5708 9.12763 1.14228
120 2 11.4799 9.33429 -2.04772 11.4799 9.33429 -2.04772
121 1 12.3176 7.59033 -0.60586 12.3176 7.59033 -0.60586
122 2 13.9854 7.39247 1.2714 13.9854 7.39247 1.2714
123 2 14.4081 7.63031 -1.93286 14.4081 7.63031 -1.93286
124 1 15.2096 9.14723 -0.100333 15.2096 9.14723 -0.100333
125 2 17.0913 9.44322 1.54586 17.0913 9.44322 1.54586
126 2 17.1494 8.92152 -1.71793 17.1494 8.92152 -1.71793
127 1 18.1554 7.56888 0.198817 18.1554 7.56888 0.198817
128 2 20.087 7.7055 1.82902 20.087 7.7055 1.82902
129 2 20.1424 7.47824 -1.42372 20.1424 7.47824 -1.42372
130 1 21.017 9.30395 0.0668787 21.017 9.30395 0.0668787
131 2 22.9962 9.36097 1.72103 22.9962 9.36097 1.72103
132 2 22.9717 9.27897 -1.43441 22.9717 9.27897 -1.43441
133 1 23.8563 7.61722 0.169502 23.8563 7.61722 0.169502
134 2 25.6621 7.88675 1.89685 25.6621 7.88675 1.89685
135 2 25.9631 7.4829 -1.27588 25.9631 7.4829 -1.27588
136 1 26.8024 9.25616 0.19657 26.8024 9.25616 0.19657
137 2 28.6604 9.30665 1.86227 28.6604 9.30665 1.86227
138 2 28.6223 9.07606 -1.33444 28.6223 9.07606 -1.33444
139 1 29.5502 7.53485 0.447728 29.5502 7.53485 0.447728
140 2 31.4917 7.60313 2.01465 31.4917 7.60313 2.01465
141 2 31.3555 7.60722 -1.21975 31.3555 7.60722 -1.21975
142 1 32.4234 9.27243 0.439622 32.4234 9.27243 0.439622
143 2 34.525 9.54164 1.78034 34.525 9.54164 1.78034
144 2 34.2069 9.07259 -1.44677 34.2069 9.07259 -1.44677
145 1 35.3248 7.63948 0.361168 35.3248 7.63948 0.361168
146 2 37.5586 7.53908 1.59726 37.5586 7.53908 1.59726
147 2 36.8348 7.67359 -1.6412 36.8348 7.67359 -1.6412
148 1 38.1612 9.27434 -0.105185 38.1612 9.27434 -0.105185
149 2 40.2807 9.25942 1.28988 40.2807 9.25942 1.28988
150 2 39.9152 9.19841 -1.92987 39.9152 9.19841 -1.92987
151 1 41.0073 7.5639 -0.345552 41.0073 7.5639 -0.345552
152 2 42.9678 7.56642 1.29831 42.9678 7.56642 1.29831
153 2 42.8469 7.52863 -1.9907 42.8469 7.52863 -1.9907
154 1 43.889 9.24452 -0.412774 43.889 9.24452 -0.412774
155 2 45.8959 9.40972 1.0268 45.8959 9.40972 1.0268
156 2 45.5572 9.08684 -2.18519 45.5572 9.08684 -2.18519
157 1 46.6651 7.56327 -0.464969 46.6651 7.56327 -0.464969
158 2 48.5151 7.68902 1.24631 48.5151 7.68902 1.24631
159 2 48.5518 7.69255 -2.00124 48.5518 7.69255 -2.00124
160 1 49.5925 9.23686 -0.344077 49.5925 9.23686 -0.344077
161 2 51.309 9.34243 1.33926 51.309 9.34243 1.33926
162 2 51.5834 9.105 -1.84336 51.5834 9.105 -1.84336
163 1 0.924488 10.8465 -0.332952 0.924488 10.8465 -0.332952
164 2 2.93638 11.0499 1.18434 2.93638 11.0499 1.18434
165 2 2.79822 10.8616 -2.22683 2.79822 10.8616 -2.22683
166 1 3.83456 12.4798 -0.621772 3.83456 12.4798 -0.621772
167 2 5.59613 12.6576 1.23233 5.59613 12.6576 1.23233
168 2 5.83894 12.5739 -2.09129 5.83894 12.5739 -2.09129
169 1 6.68628 10.9523 -0.227595 6.68628 10.9523 -0.227595
170 2 8.70345 10.8738 1.21588 8.70345 10.8738 1.21588
171 2 8.46804 10.9293 -1.90464 8.46804 10.9293 -1.90464
172 1 9.67181 12.5433 -0.448086 9.67181 12.5433 -0.448086
173 2 11.3226 12.4146 1.36207 11.3226 12.4146 1.36207
174 2 11.6801 12.5625 -1.98001 11.6801 12.5625 -1.98001
175 1 12.4701 10.9466 -0.323996 12.4701 10.9466 -0.323996
176 2 14.1104 10.9029 1.42276 14.1104 10.9029 1.42276
177 2 14.4516 10.8718 -1.85552 14.4516 10.8718 -1.85552
178 1 15.3304 12.5555 -0.107444 15.3304 12.5555 -0.107444
179 2 17.2307 12.3291 1.4731 17.2307 12.3291 1.4731
180 2 17.2273 12.5552 -1.74274 17.2273 12.5552 -1.74274
181 1 18.14 10.7908 -0.363694 18.14 10.7908 -0.363694
182 2 19.8953 10.9184 1.47075 19.8953 10.9184 1.47075
183 2 20.2737 10.8138 -1.887 20.2737 10.8138 -1.887
184 1 21.0703 12.4675 -0.0428928 21.0703 12.4675 -0.0428928
185 2 23.0085 12.6924 1.45117 23.0085 12.6924 1.45117
186 2 22.9877 12.3452 -1.72076 22.9877 12.3452 -1.72076
187 1 24.0321 10.9267 0.00454063 24.0321 10.9267 0.00454063
188 2 25.8324 11.1229 1.63484 25.8324 11.1229 1.63484
189 2 25.8235 10.7188 -1.66757 25.8235 10.7188 -1.66757
190 1 26.8091 12.5937 -0.121305 26.8091 12.5937 -0.121305
191 2 28.6404 12.7307 1.53327 28.6404 12.7307 1.53327
192 2 28.6735 12.3504 -1.71673 28.6735 12.3504 -1.71673
193 1 29.5389 10.8453 0.0860304 29.5389 10.8453 0.0860304
194 2 31.4794 11.1899 1.67711 31.4794 11.1899 1.67711
195 2 31.5949 10.5948 -1.42669 31.5949 10.5948 -1.42669
196 1 32.4264 12.5553 -0.163744 32.4264 12.5553 -0.163744
197 2 34.4573 12.8164 1.27879 34.4573 12.8164 1.27879
198 2 34.166 12.2274 -1.92304 34.166 12.2274 -1.92304
199 1 35.3551 10.9744 -0.123521 35.3551 10.9744 -0.123521
200 2 37.3563 11.1036 1.32446 37.3563 11.1036 1.32446
201 2 37.105 10.6044 -1.88739 37.105 10.6044 -1.88739
202 1 38.1388 12.5996 -0.657535 38.1388 12.5996 -0.657535
203 2 40.0552 12.543 1.08611 40.0552 12.543 1.08611
204 2 40.1844 12.41 -2.13257 40.1844 12.41 -2.13257
205 1 41.0473 10.8382 -0.444243 41.0473 10.8382 -0.444243
206 2 43.0196 11.0873 1.11926 43.0196 11.0873 1.11926
207 2 42.8453 10.7222 -2.11101 42.8453 10.7222 -2.11101
208 1 43.8435 12.5211 -0.782199 43.8435 12.5211 -0.782199
209 2 45.8331 12.5364 0.800525 45.8331 12.5364 0.800525
210 2 45.6994 12.564 -2.49546 45.6994 12.564 -2.49546
211 1 46.6393 10.8125 -0.823704 46.6393 10.8125 -0.823704
212 2 48.4667 10.9936 0.976571 48.4667 10.9936 0.976571
213 2 48.8668 10.837 -2.21749 48.8668 10.837 -2.21749
214 1 49.5615 12.6172 -0.651453 49.5615 12.6172 -0.651453
215 2 51.3143 12.7636 1.10668 51.3143 12.7636 1.10668
216 2 51.573 12.3991 -2.10923 51.573 12.3991 -2.10923
217 1 1.02597 14.2198 -0.620322 1.02597 14.2198 -0.620322
218 2 3.02142 14.2631 0.962121 3.02142 14.2631 0.962121
219 2 2.8394 14.1512 -2.28159 2.8394 14.1512 -2.28159
220 1 3.90818 15.9345 -0.791633 3.90818 15.9345 -0.791633
221 2 5.63703 15.977 1.07011 5.63703 15.977 1.07011
222 2 5.88938 15.7762 -2.18737 5.88938 15.7762 -2.18737
223 1 6.66842 14.2131 -0.353564 6.66842 14.2131 -0.353564
224 2 8.66576 14.118 1.23642 8.66576 14.118 1.23642
225 2 8.57401 14.2262 -1.94464 8.57401 14.2262 -1.94464
226 1 9.52917 15.8684 -0.291212 9.52917 15.8684 -0.291212
227 2 11.3989 16.0779 1.29761 11.3989 16.0779 1.29761
228 2 11.258 15.5813 -1.91786 11.258 15.5813 -1.91786
229 1 12.3666 14.3197 -0.171133 12.3666 14.3197 -0.171133
230 2 14.3568 14.3026 1.48715 14.3568 14.3026 1.48715
231 2 14.3429 14.2413 -1.73328 14.3429 14.2413 -1.73328
232 1 15.2495 15.9271 -0.135793 15.2495 15.9271 -0.135793
233 2 17.2793 15.9613 1.38504 17.2793 15.9613 1.38504
234 2 17.1645 15.6324 -1.89586 17.1645 15.6324 -1.89586
235 1 18.1659 14.0886 -0.117344 18.1659 14.0886 -0.117344
236 2 20.1535 14.2132 1.44503 20.1535 14.2132 1.44503
237 2 19.9731 13.9328 -1.70944 19.9731 13.9328 -1.70944
238 1 21.0185 15.7398 -0.258909 21.0185 15.7398 -0.258909
239 2 22.9418 15.8026 1.34016 22.9418 15.8026 1.34016
240 2 22.8106 15.8893 -1.97848 22.8106 15.8893 -1.97848
241 1 23.9584 14.1842 -0.321304 23.9584 14.1842 -0.321304
242 2 25.8633 14.3779 1.30579 25.8633 14.3779 1.30579
243 2 25.7989 14.0047 -1.91653 25.7989 14.0047 -1.91653
244 1 26.7458 15.8818 -0.476996 26.7458 15.8818 -0.476996
245 2 28.6516 16.0228 1.15743 28.6516 16.0228 1.15743
246 2 28.6732 15.6396 -1.97723 28.6732 15.6396 -1.97723
247 1 29.6007 14.1609 -0.17771 29.6007 14.1609 -0.17771
248 2 31.5098 14.3051 1.39799 31.5098 14.3051 1.39799
249 2 31.5039 14.0472 -1.91047 31.5039 14.0472 -1.91047
250 1 32.4093 15.8682 -0.394574 32.4093 15.8682 -0.394574
251 2 34.3275 15.8064 1.22185 34.3275 15.8064 1.22185
252 2 34.3898 15.8863 -1.99957 34.3898 15.8863 -1.99957
253 1 35.2559 14.1351 -0.572986 35.2559 14.1351 -0.572986
254 2 37.1355 14.2134 1.03013 37.1355 14.2134 1.03013
255 2 37.0518 14.2062 -2.23762 37.0518 14.2062 -2.23762
256 1 38.1206 15.7679 -0.596477 38.1206 15.7679 -0.596477
257 2 40.1724 16.1097 0.88571 40.1724 16.1097 0.88571
258 2 39.9163 15.6567 -2.3407 39.9163 15.6567 -2.3407
259 1 41.0095 14.1674 -0.626239 41.0095 14.1674 -0.626239
260 2 42.9455 14.1709 0.816797 42.9455 14.1709 0.816797
261 2 42.7483 14.1949 -2.30499 42.7483 14.1949 -2.30499
262 1 43.8516 15.8554 -0.804171 43.8516 15.8554 -0.804171
263 2 45.7878 16.0297 0.796991 45.7878 16.0297 0.796991
264 2 45.6451 15.6723 -2.63876 45.6451 15.6723 -2.63876
265 1 46.7687 14.1584 -0.807509 46.7687 14.1584 -0.807509
266 2 48.5953 14.2362 0.911694 48.5953 14.2362 0.911694
267 2 48.7165 14.1059 -2.39986 48.7165 14.1059 -2.39986
268 1 49.5928 15.9204 -0.828002 49.5928 15.9204 -0.828002
269 2 51.4886 16.0589 0.851268 51.4886 16.0589 0.851268
270 2 51.5867 15.7485 -2.3819 51.5867 15.7485 -2.3819
271 1 0.95572 17.5852 -0.906673 0.95572 17.5852 -0.906673
272 2 2.82468 17.5821 0.815853 2.82468 17.5821 0.815853
273 2 3.01778 17.5012 -2.41272 3.01778 17.5012 -2.41272
274 1 3.86269 19.1891 -0.761778 3.86269 19.1891 -0.761778
275 2 5.7943 19.2979 0.884123 5.7943 19.2979 0.884123
276 2 5.81792 18.9742 -2.26194 5.81792 18.9742 -2.26194
277 1 6.77609 17.5062 -0.57411 6.77609 17.5062 -0.57411
278 2 8.5184 17.6745 1.21719 8.5184 17.6745 1.21719
279 2 8.77352 17.446 -2.04699 8.77352 17.446 -2.04699
280 1 9.56669 19.1949 -0.443187 9.56669 19.1949 -0.443187
281 2 11.5457 19.0609 1.14559 11.5457 19.0609 1.14559
282 2 11.4257 19.2376 -2.03757 11.4257 19.2376 -2.03757
283 1 12.3514 17.5234 -0.623557 12.3514 17.5234 -0.623557
284 2 13.991 17.6848 1.21084 13.991 17.6848 1.21084
285 2 14.4172 17.4242 -2.00751 14.4172 17.4242 -2.00751
286 1 15.3079 19.1595 -0.461036 15.3079 19.1595 -0.461036
287 2 17.145 19.0334 1.18612 17.145 19.0334 1.18612
288 2 17.1634 19.2534 -2.02513 17.1634 19.2534 -2.02513
289 1 18.1002 17.4694 -0.409744 18.1002 17.4694 -0.409744
290 2 19.9496 17.472 1.31226 19.9496 17.472 1.31226
291 2 20.0694 17.4339 -1.97879 20.0694 17.4339 -1.97879
292 1 20.9462 19.1663 -0.363313 20.9462 19.1663 -0.363313
293 2 22.9213 19.3176 1.15143 22.9213 19.3176 1.15143
294 2 22.8256 18.9635 -2.08089 22.8256 18.9635 -2.08089
295 1 23.7073 17.5295 -0.330402 23.7073 17.5295 -0.330402
296 2 25.762 17.6463 1.1524 25.762 17.6463 1.1524
297 2 25.5288 17.5278 -2.05102 25.5288 17.5278 -2.05102
298 1 26.6312 19.1744 -0.511275 26.6312 19.1744 -0.511275
299 2 28.6247 19.2601 1.04929 28.6247 19.2601 1.04929
300 2 28.4544 19.0961 -2.27137 28.4544 19.0961 -2.27137
301 1 29.537 17.4608 -0.666325 29.537 17.4608 -0.666325
302 2 31.4485 17.6205 1.06226 31.4485 17.6205 1.06226
303 2 31.5374 17.3636 -2.19032 31.5374 17.3636 -2.19032
304 1 32.4332 19.1702 -0.640293 32.4332 19.1702 -0.640293
305 2 34.1678 19.2995 1.15811 34.1678 19.2995 1.15811
306 2 34.4106 19.0866 -2.09948 34.4106 19.0866 -2.09948
307 1 35.3185 17.4956 -0.292557 35.3185 17.4956 -0.292557
308 2 37.4891 17.5308 1.09667 37.4891 17.5308 1.09667
309 2 36.9235 17.3143 -2.10863 36.9235 17.3143 -2.10863
310 1 38.1466 19.124 -0.699445 38.1466 19.124 -0.699445
311 2 40.192 18.9812 0.711772 40.192 18.9812 0.711772
312 2 39.8913 19.2864 -2.55317 39.8913 19.2864 -2.55317
313 1 40.9925 17.5018 -1.07141 40.9925 17.5018 -1.07141
314 2 42.8278 17.6026 0.651 42.8278 17.6026 0.651
315 2 42.9202 17.3802 -2.53779 42.9202 17.3802 -2.53779
316 1 43.8566 19.1357 -1.0518 43.8566 19.1357 -1.0518
317 2 45.8183 19.1484 0.487912 45.8183 19.1484 0.487912
318 2 45.6952 19.0778 -2.70289 45.6952 19.0778 -2.70289
319 1 46.7116 17.4445 -1.09251 46.7116 17.4445 -1.09251
320 2 48.5119 17.7268 0.551382 48.5119 17.7268 0.551382
321 2 48.7263 17.4767 -2.65809 48.7263 17.4767 -2.65809
322 1 49.5691 19.2106 -1.07992 49.5691 19.2106 -1.07992
323 2 51.4262 19.174 0.695299 51.4262 19.174 0.695299
324 2 51.6033 19.2225 -2.56046 51.6033 19.2225 -2.56046
325 1 0.986645 20.8789 -0.815639 0.986645 20.8789 -0.815639
326 2 2.86826 20.7995 0.820682 2.86826 20.7995 0.820682
327 2 2.84387 20.7943 -2.42003 2.84387 20.7943 -2.42003
328 1 3.82439 22.5457 -0.80898 3.82439 22.5457 -0.80898
329 2 5.65412 22.3233 0.863158 5.65412 22.3233 0.863158
330 2 5.81891 22.5291 -2.35851 5.81891 22.5291 -2.35851
331 1 6.71461 20.8426 -0.762593 6.71461 20.8426 -0.762593
332 2 8.44307 20.942 1.00974 8.44307 20.942 1.00974
333 2 8.68963 20.9076 -2.22137 8.68963 20.9076 -2.22137
334 1 9.55476 22.4889 -0.612218 9.55476 22.4889 -0.612218
335 2 11.3576 22.4179 1.17236 11.3576 22.4179 1.17236
336 2 11.5096 22.4754 -2.08072 11.5096 22.4754 -2.08072
337 1 12.4496 20.8581 -0.32639 12.4496 20.8581 -0.32639
338 2 14.3999 20.8663 1.19948 14.3999 20.8663 1.19948
339 2 14.3445 20.7772 -2.04252 14.3445 20.7772 -2.04252
340 1 15.2574 22.4809 -0.539286 15.2574 22.4809 -0.539286
341 2 16.9273 22.2959 1.30867 16.9273 22.2959 1.30867
342 2 17.3903 22.5593 -1.98407 17.3903 22.5593 -1.98407
343 1 18.1443 20.8237 -0.341559 18.1443 20.8237 -0.341559
344 2 19.8739 20.7056 1.33416 19.8739 20.7056 1.33416
345 2 20.1897 20.8472 -1.92525 20.1897 20.8472 -1.92525
346 1 20.961 22.3908 -0.261484 20.961 22.3908 -0.261484
347 2 23.1067 22.4005 1.11741 23.1067 22.4005 1.11741
348 2 22.6195 22.5127 -2.13642 22.6195 22.5127 -2.13642
349 1 23.8038 20.7749 -0.684924 23.8038 20.7749 -0.684924
350 2 25.6248 20.8628 1.05209 25.6248 20.8628 1.05209
351 2 25.8278 20.771 -2.25479 25.8278 20.771 -2.25479
352 1 26.7131 22.3716 -0.583027 26.7131 22.3716 -0.583027
353 2 28.6432 22.3301 1.02916 28.6432 22.3301 1.02916
354 2 28.478 22.5756 -2.24115 28.478 22.5756 -2.24115
355 1 29.5004 20.7745 -0.75585 29.5004 20.7745 -0.75585
356 2 31.2111 20.6714 0.980765 31.2111 20.6714 0.980765
357 2 31.5484 20.857 -2.22903 31.5484 20.857 -2.22903
358 1 32.3799 22.374 -0.455405 32.3799 22.374 -0.455405
359 2 34.3546 22.2659 1.18559 34.3546 22.2659 1.18559
360 2 34.3111 22.3968 -2.04143 34.3111 22.3968 -2.04143
361 1 35.2091 20.7218 -0.528258 35.2091 20.7218 -0.528258
362 2 37.1737 20.7866 0.929071 37.1737 20.7866 0.929071
363 2 37.0016 20.7656 -2.17365 37.0016 20.7656 -2.17365
364 1 38.0384 22.4294 -0.655915 38.0384 22.4294 -0.655915
365 2 40.053 22.2071 0.932777 40.053 22.2071 0.932777
366 2 39.871 22.5612 -2.24413 39.871 22.5612 -2.24413
367 1 41.0669 20.7279 -0.859123 41.0669 20.7279 -0.859123
368 2 43.0726 20.7435 0.660953 43.0726 20.7435 0.660953
369 2 42.891 20.79 -2.58413 42.891 20.79 -2.58413
370 1 43.9308 22.423 -1.05319 43.9308 22.423 -1.05319
371 2 45.7972 22.399 0.473698 45.7972 22.399 0.473698
372 2 45.7781 22.551 -2.69607 45.7781 22.551 -2.69607
373 1 46.7468 20.8012 -1.29603 46.7468 20.8012 -1.29603
374 2 48.5182 20.9623 0.439904 48.5182 20.9623 0.439904
375 2 48.7818 20.8315 -2.76877 48.7818 20.8315 -2.76877
376 1 49.5405 22.5242 -1.13327 49.5405 22.5242 -1.13327
377 2 51.2801 22.5913 0.706102 51.2801 22.5913 0.706102
378 2 51.506 22.4566 -2.66424 51.506 22.4566 -2.66424
379 1 0.974509 24.1381 -0.885628 0.974509 24.1381 -0.885628
380 2 2.78192 24.0807 0.899611 2.78192 24.0807 0.899611
381 2 2.98971 24.3071 -2.35424 2.98971 24.3071 -2.35424
382 1 3.84084 25.8106 -0.518291 3.84084 25.8106 -0.518291
383 2 5.65638 25.6793 1.16316 5.65638 25.6793 1.16316
384 2 5.76308 25.8871 -2.11207 5.76308 25.8871 -2.11207
385 1 6.72467 24.1583 -0.550371 6.72467 24.1583 -0.550371
386 2 8.58637 24.0239 1.09626 8.58637 24.0239 1.09626
387 2 8.55166 24.1167 -2.16197 8.55166 24.1167 -2.16197
388 1 9.55228 25.6918 -0.419404 9.55228 25.6918 -0.419404
389 2 11.3198 25.5989 1.32034 11.3198 25.5989 1.32034
390 2 11.5504 25.7814 -1.97072 11.5504 25.7814 -1.97072
391 1 12.4461 24.0413 -0.339417 12.4461 24.0413 -0.339417
392 2 14.3481 23.953 1.28925 14.3481 23.953 1.28925
393 2 14.3134 24.2391 -1.95396 14.3134 24.2391 -1.95396
394 1 15.3258 25.7379 -0.151623 15.3258 25.7379 -0.151623
395 2 17.2341 25.7067 1.44784 17.2341 25.7067 1.44784
396 2 17.0606 25.6851 -1.79102 17.0606 25.6851 -1.79102
397 1 18.0913 24.0869 -0.150846 18.0913 24.0869 -0.150846
398 2 20.0643 24.0253 1.44076 20.0643 24.0253 1.44076
399 2 19.9406 24.0406 -1.86614 19.9406 24.0406 -1.86614
400 1 20.9443 25.6935 -0.27804 20.9443 25.6935 -0.27804
401 2 22.9332 25.6824 1.18385 22.9332 25.6824 1.18385
402 2 22.7238 25.7695 -2.11286 22.7238 25.7695 -2.11286
403 1 23.8436 24.104 -0.595081 23.8436 24.104 -0.595081
404 2 25.7051 24.0153 1.11568 25.7051 24.0153 1.11568
405 2 25.709 24.1309 -2.19382 25.709 24.1309 -2.19382
406 1 26.7548 25.6459 -0.569055 26.7548 25.6459 -0.569055
407 2 28.6061 25.6144 1.15058 28.6061 25.6144 1.15058
408 2 28.7121 25.7755 -2.13645 28.7121 25.7755 -2.13645
409 1 29.5487 24.0263 -0.526059 29.5487 24.0263 -0.526059
410 2 31.3632 23.8131 1.29141 31.3632 23.8131 1.29141
411 2 31.5818 24.2421 -2.02926 31.5818 24.2421 -2.02926
412 1 32.438 25.715 -0.129606 32.438 25.715 -0.129606
413 2 34.3721 25.6733 1.401 34.3721 25.6733 1.401
414 2 34.2646 25.7953 -1.81951 34.2646 25.7953 -1.81951
415 1 35.2816 24.0349 -0.302101 35.2816 24.0349 -0.302101
416 2 37.3236 23.8529 1.25538 37.3236 23.8529 1.25538
417 2 36.9846 24.2017 -2.05773 36.9846 24.2017 -2.05773
418 1 38.1394 25.5959 -0.338782 38.1394 25.5959 -0.338782
419 2 40.1599 25.5383 1.21419 40.1599 25.5383 1.21419
420 2 40.0593 25.8804 -1.98496 40.0593 25.8804 -1.98496
421 1 41.0186 24.0061 -0.576449 41.0186 24.0061 -0.576449
422 2 43.1139 23.9679 0.667291 43.1139 23.9679 0.667291
423 2 42.6598 24.1884 -2.46143 42.6598 24.1884 -2.46143
424 1 43.8215 25.7291 -0.920526 43.8215 25.7291 -0.920526
425 2 45.791 25.452 0.755268 45.791 25.452 0.755268
426 2 45.8327 25.8835 -2.55296 45.8327 25.8835 -2.55296
427 1 46.7719 24.1272 -1.06559 46.7719 24.1272 -1.06559
428 2 48.63 24.0717 0.647565 48.63 24.0717 0.647565
429 2 48.6569 24.3503 -2.63368 48.6569 24.3503 -2.63368
430 1 49.6477 25.7746 -0.865396 49.6477 25.7746 -0.865396
431 2 51.4002 25.5944 0.88814 51.4002 25.5944 0.88814
432 2 51.6423 26.2155 -2.34061 51.6423 26.2155 -2.34061
433 1 0.996787 27.5402 -0.309748 0.996787 27.5402 -0.309748
434 2 2.79372 27.3315 1.26794 2.79372 27.3315 1.26794
435 2 3.00134 27.5813 -1.98844 3.00134 27.5813 -1.98844
436 1 3.81421 29.149 -0.239369 3.81421 29.149 -0.239369
437 2 5.71775 28.9632 1.44307 5.71775 28.9632 1.44307
438 2 5.78336 29.2817 -1.84987 5.78336 29.2817 -1.84987
439 1 6.59785 27.4717 -0.369723 6.59785 27.4717 -0.369723
440 2 8.57961 27.3582 1.199 8.57961 27.3582 1.199
441 2 8.66348 27.4461 -1.99161 8.66348 27.4461 -1.99161
442 1 9.60227 29.0371 -0.283214 9.60227 29.0371 -0.283214
443 2 11.4795 28.9995 1.43447 11.4795 28.9995 1.43447
444 2 11.5058 28.9542 -1.90349 11.5058 28.9542 -1.90349
445 1 12.4184 27.3476 -0.245611 12.4184 27.3476 -0.245611
446 2 14.2786 27.4009 1.44071 14.2786 27.4009 1.44071
447 2 14.4017 27.4525 -1.81473 14.4017 27.4525 -1.81473
448 1 15.3565 29.0882 -0.130039 15.3565 29.0882 -0.130039
449 2 17.2427 29.132 1.42904 17.2427 29.132 1.42904
450 2 17.2014 29.1342 -1.82725 17.2014 29.1342 -1.82725
451 1 18.1448 27.4474 -0.25449 18.1448 27.4474 -0.25449
452 2 19.9816 27.3852 1.31603 19.9816 27.3852 1.31603
453 2 20.0017 27.2718 -1.94182 20.0017 27.2718 -1.94182
454 1 21.0305 29.0321 -0.380583 21.0305 29.0321 -0.380583
455 2 22.9708 28.9638 1.17912 22.9708 28.9638 1.17912
456 2 22.9012 28.9688 -2.07621 22.9012 28.9688 -2.07621
457 1 23.8876 27.2543 -0.464149 23.8876 27.2543 -0.464149
458 2 25.7741 27.2873 1.06309 25.7741 27.2873 1.06309
459 2 25.7622 27.2367 -2.19048 25.7622 27.2367 -2.19048
460 1 26.7201 28.9562 -0.57765 26.7201 28.9562 -0.57765
461 2 28.5104 29.0074 1.11415 28.5104 29.0074 1.11415
462 2 28.8586 28.9218 -2.08989 28.8586 28.9218 -2.08989
463 1 29.568 27.3973 -0.375636 29.568 27.3973 -0.375636
464 2 31.4003 27.3637 1.46019 31.4003 27.3637 1.46019
465 2 31.6231 27.4855 -1.82692 31.6231 27.4855 -1.82692
466 1 32.434 29.0286 -0.0459247 32.434 29.0286 -0.0459247
467 2 34.3162 28.9715 1.46808 34.3162 28.9715 1.46808
468 2 34.2639 29.1378 -1.78719 34.2639 29.1378 -1.78719
469 1 35.2731 27.3105 -0.23889 35.2731 27.3105 -0.23889
470 2 37.0899 26.9107 1.43224 37.0899 26.9107 1.43224
471 2 37.2653 27.5876 -1.77913 37.2653 27.5876 -1.77913
472 1 38.0132 28.9418 0.195892 38.0132 28.9418 0.195892
473 2 40.0657 28.9688 1.69679 40.0657 28.9688 1.69679
474 2 40.0151 29.1477 -1.60065 40.0151 29.1477 -1.60065
475 1 40.9747 27.3947 -0.242539 40.9747 27.3947 -0.242539
476 2 43.1877 27.0169 1.1013 43.1877 27.0169 1.1013
477 2 42.7964 27.5888 -2.09874 42.7964 27.5888 -2.09874
478 1 43.8472 29.0297 -0.273117 43.8472 29.0297 -0.273117
479 2 45.7289 28.8017 1.23442 45.7289 28.8017 1.23442
480 2 45.7513 29.3087 -2.06602 45.7513 29.3087 -2.06602
481 1 46.7061 27.3768 -0.771865 46.7061 27.3768 -0.771865
482 2 48.5828 27.1842 0.952557 48.5828 27.1842 0.952557
483 2 48.7578 27.6008 -2.25029 48.7578 27.6008 -2.25029
484 1 49.5843 29.0839 -0.425607 49.5843 29.0839 -0.425607
485 2 51.3474 28.9009 1.4078 51.3474 28.9009 1.4078
486 2 51.5517 29.2778 -1.92355 51.5517 29.2778 -1.92355
487 1 0.994435 30.7244 -0.087399 0.994435 30.7244 -0.087399
488 2 2.97533 30.6965 1.5569 2.97533 30.6965 1.5569
489 2 2.85623 30.8653 -1.77593 2.85623 30.8653 -1.77593
490 1 3.87044 32.3696 -0.0328425 3.87044 32.3696 -0.0328425
491 2 5.85247 32.2841 1.60503 5.85247 32.2841 1.60503
492 2 5.70389 32.2684 -1.71308 5.70389 32.2684 -1.71308
493 1 6.73874 30.7009 0.00625236 6.73874 30.7009 0.00625236
494 2 8.77233 30.5308 1.53566 8.77233 30.5308 1.53566
495 2 8.64433 30.8559 -1.67481 8.64433 30.8559 -1.67481
496 1 9.66796 32.3375 0.0160315 9.66796 32.3375 0.0160315
497 2 11.6482 32.1365 1.53929 11.6482 32.1365 1.53929
498 2 11.5458 32.3919 -1.7195 11.5458 32.3919 -1.7195
499 1 12.4332 30.6004 -0.189872 12.4332 30.6004 -0.189872
500 2 14.2301 30.6499 1.52909 14.2301 30.6499 1.52909
501 2 14.3753 30.7165 -1.75833 14.3753 30.7165 -1.75833
502 1 15.2822 32.322 0.0191274 15.2822 32.322 0.0191274
503 2 17.1841 32.2438 1.57492 17.1841 32.2438 1.57492
504 2 17.0857 32.4869 -1.72866 17.0857 32.4869 -1.72866
505 1 18.1917 30.7704 -0.208874 18.1917 30.7704 -0.208874
506 2 20.0813 30.5808 1.34786 20.0813 30.5808 1.34786
507 2 20.0016 30.6631 -1.91202 20.0016 30.6631 -1.91202
508 1 20.9831 32.2475 -0.257264 20.9831 32.2475 -0.257264
509 2 22.9407 32.1604 1.27346 22.9407 32.1604 1.27346
510 2 22.7987 32.2738 -1.95936 22.7987 32.2738 -1.95936
511 1 23.8521 30.6144 -0.515243 23.8521 30.6144 -0.515243
512 2 25.8364 30.5276 1.12702 25.8364 30.5276 1.12702
513 2 25.7865 30.5597 -2.16604 25.7865 30.5597 -2.16604
514 1 26.6657 32.2256 -0.457371 26.6657 32.2256 -0.457371
515 2 28.4952 32.2846 1.14886 28.4952 32.2846 1.14886
516 2 28.5956 32.3927 -2.08437 28.5956 32.3927 -2.08437
517 1 29.5825 30.6841 -0.480976 29.5825 30.6841 -0.480976
518 2 31.387 30.7642 1.34062 31.387 30.7642 1.34062
519 2 31.7344 30.482 -1.94207 31.7344 30.482 -1.94207
520 1 32.4337 32.3694 -0.266356 32.4337 32.3694 -0.266356
521 2 34.2397 32.3174 1.52101 34.2397 32.3174 1.52101
522 2 34.2825 32.4849 -1.82053 34.2825 32.4849 -1.82053
523 1 35.2479 30.7515 -0.110675 35.2479 30.7515 -0.110675
524 2 36.9747 30.6672 1.72473 36.9747 30.6672 1.72473
525 2 37.3473 30.5536 -1.58411 37.3473 30.5536 -1.58411
526 1 38.1098 32.2561 0.1312 38.1098 32.2561 0.1312
527 2 40.0422 32.3761 1.7692 40.0422 32.3761 1.7692
528 2 40.0519 32.353 -1.48944 40.0519 32.353 -1.48944
529 1 40.9347 30.6377 0.108252 40.9347 30.6377 0.108252
530 2 42.9978 30.428 1.53522 42.9978 30.428 1.53522
531 2 42.8106 30.775 -1.68253 42.8106 30.775 -1.68253
532 1 43.8594 32.3202 0.12296 43.8594 32.3202 0.12296
533 2 45.899 32.1685 1.69302 45.899 32.1685 1.69302
534 2 45.7168 32.5113 -1.58216 45.7168 32.5113 -1.58216
535 1 46.7063 30.6433 -0.179147 46.7063 30.6433 -0.179147
536 2 48.6511 30.4433 1.44908 48.6511 30.4433 1.44908
537 2 48.5681 30.8091 -1.85717 48.5681 30.8091 -1.85717