ITEM: TIMESTEP
41100
ITEM: NUMBER OF ATOMS
810
ITEM: BOX BOUNDS pp pp pp
7.9333117298280431e-01 5.2224273827018337e+01
8.0612192010412198e-01 5.0210093079894897e+01
-1.0000000000000000e+01 1.0000000000000000e+01
ITEM: ATOMS id type x y z xu yu zu
1 1 0.997054 1.08733 -0.685037 0.997054 1.08733 -0.685037
2 2 2.92935 1.28273 0.988395 2.92935 1.28273 0.988395
3 2 3.01451 0.795322 -2.25187 3.01451 0.795322 -2.25187
4 1 3.83057 2.7294 -0.875579 3.83057 2.7294 -0.875579
5 2 5.6011 2.72391 0.937796 5.6011 2.72391 0.937796
6 2 5.91821 2.60805 -2.34639 5.91821 2.60805 -2.34639
7 1 6.74846 1.06263 -0.547429 6.74846 1.06263 -0.547429
8 2 8.48839 1.21658 1.17147 8.48839 1.21658 1.17147
9 2 8.71491 0.583344 -2.02898 8.71491 0.583344 -2.02898
10 1 9.60422 2.62982 -0.591904 9.60422 2.62982 -0.591904
11 2 11.2879 2.68242 1.40825 11.2879 2.68242 1.40825
12 2 11.828 2.56104 -1.88623 11.828 2.56104 -1.88623
13 1 12.3816 0.969074 -0.0626812 12.3816 0.969074 -0.0626812
14 2 14.2305 1.33668 1.56561 14.2305 1.33668 1.56561
15 2 14.4572 0.665939 -1.60515 14.4572 0.665939 -1.60515
16 1 15.3135 2.57955 -0.264403 15.3135 2.57955 -0.264403
17 2 17.1006 2.56815 1.50682 17.1006 2.56815 1.50682
18 2 17.2686 2.7796 -1.7883 17.2686 2.7796 -1.7883
19 1 18.0908 1.05471 -0.138269 18.0908 1.05471 -0.138269
20 2 20.0008 0.928158 1.51058 20.0008 0.928158 1.51058
21 2 20.0191 1.1319 -1.78554 20.0191 1.1319 -1.78554
22 1 20.9742 2.69935 -0.128613 20.9742 2.69935 -0.128613
23 2 23.0663 2.81718 1.12401 23.0663 2.81718 1.12401
24 2 22.6004 2.5783 -2.06155 22.6004 2.5783 -2.06155
25 1 23.8385 1.0445 -0.470526 23.8385 1.0445 -0.470526
26 2 25.8225 1.0146 1.15992 25.8225 1.0146 1.15992
27 2 25.8129 1.07748 -2.18498 25.8129 1.07748 -2.18498
28 1 26.7637 2.61874 -0.458665 26.7637 2.61874 -0.458665
29 2 28.7735 2.55912 1.13484 28.7735 2.55912 1.13484
30 2 28.6589 2.70064 -2.13304 28.6589 2.70064 -2.13304
31 1 29.5983 0.998729 -0.556583 29.5983 0.998729 -0.556583
32 2 31.4565 0.975725 1.1383 31.4565 0.975725 1.1383
33 2 31.4811 1.13014 -2.17532 31.4811 1.13014 -2.17532
34 1 32.4373 2.64365 -0.408027 32.4373 2.64365 -0.408027
35 2 34.3608 2.58958 1.18856 34.3608 2.58958 1.18856
36 2 34.4141 2.70737 -2.02343 34.4141 2.70737 -2.02343
37 1 35.3023 0.992046 -0.60443 35.3023 0.992046 -0.60443
38 2 37.1443 0.791746 1.03732 37.1443 0.791746 1.03732
39 2 37.2141 1.21355 -2.2258 37.2141 1.21355 -2.2258
40 1 38.0708 2.62821 -0.458321 38.0708 2.62821 -0.458321
41 2 40.0897 2.68725 1.0425 40.0897 2.68725 1.0425
42 2 39.9056 2.45796 -2.23641 39.9056 2.45796 -2.23641
43 1 40.9774 0.950365 -0.604848 40.9774 0.950365 -0.604848
44 2 42.8112 50.5089 0.991059 42.8112 1.10489 0.991059
45 2 42.8357 0.874577 -2.21835 42.8357 0.874577 -2.21835
46 1 43.8288 2.6032 -0.754383 43.8288 2.6032 -0.754383
47 2 45.5563 2.7097 1.0498 45.5563 2.7097 1.0498
48 2 45.8202 2.73737 -2.17659 45.8202 2.73737 -2.17659
49 1 46.7225 1.13135 -0.549829 46.7225 1.13135 -0.549829
50 2 48.6515 1.06655 0.951838 48.6515 1.06655 0.951838
51 2 48.5496 1.27425 -2.28038 48.5496 1.27425 -2.28038
52 1 49.6351 2.87202 -0.65994 49.6351 2.87202 -0.65994
53 2 51.537 2.71595 1.00237 51.537 2.71595 1.00237
54 2 51.5284 2.59678 -2.39719 51.5284 2.59678 -2.39719
55 1 0.999548 4.26803 -0.840433 0.999548 4.26803 -0.840433
56 2 2.89149 4.39167 0.73448 2.89149 4.39167 0.73448
57 2 2.81256 4.15847 -2.5249 2.81256 4.15847 -2.5249
58 1 3.88654 5.95552 -0.917997 3.88654 5.95552 -0.917997
59 2 5.59844 5.94185 0.89337 5.59844 5.94185 0.89337
60 2 5.89996 6.01729 -2.30845 5.89996 6.01729 -2.30845
61 1 6.61349 4.34249 -0.695919 6.61349 4.34249 -0.695919
62 2 8.54857 4.24907 1.06521 8.54857 4.24907 1.06521
63 2 8.6137 4.40499 -2.23603 8.6137 4.40499 -2.23603
64 1 9.5844 5.89365 -0.572867 9.5844 5.89365 -0.572867
65 2 11.3769 5.95135 1.25901 11.3769 5.95135 1.25901
66 2 11.7406 5.83678 -1.93179 11.7406 5.83678 -1.93179
67 1 12.477 4.24547 -0.170678 12.477 4.24547 -0.170678
68 2 14.5281 4.22529 1.3676 14.5281 4.22529 1.3676
69 2 14.3515 4.23965 -1.86343 14.3515 4.23965 -1.86343
70 1 15.3511 6.00154 -0.206867 15.3511 6.00154 -0.206867
71 2 17.0445 6.07104 1.6231 17.0445 6.07104 1.6231
72 2 17.4524 6.13203 -1.56028 17.4524 6.13203 -1.56028
73 1 18.0422 4.33577 0.0848732 18.0422 4.33577 0.0848732
74 2 20.1159 4.43489 1.50601 20.1159 4.43489 1.50601
75 2 20.008 4.39323 -1.67385 20.008 4.39323 -1.67385
76 1 20.9959 6.05103 -0.159444 20.9959 6.05103 -0.159444
77 2 23.0526 5.75654 1.29978 23.0526 5.75654 1.29978
78 2 22.7978 6.09131 -1.96652 22.7978 6.09131 -1.96652
79 1 23.9065 4.33892 -0.670997 23.9065 4.33892 -0.670997
80 2 25.7571 4.20403 1.13426 25.7571 4.20403 1.13426
81 2 25.9778 4.27838 -2.13393 25.9778 4.27838 -2.13393
82 1 26.7647 5.93578 -0.384868 26.7647 5.93578 -0.384868
83 2 28.777 6.10379 1.14496 28.777 6.10379 1.14496
84 2 28.6527 5.81841 -2.06133 28.6527 5.81841 -2.06133
85 1 29.616 4.27832 -0.437519 29.616 4.27832 -0.437519
86 2 31.4891 4.23669 1.29055 31.4891 4.23669 1.29055
87 2 31.6154 4.37431 -1.98108 31.6154 4.37431 -1.98108
88 1 32.517 6.00844 -0.184805 32.517 6.00844 -0.184805
89 2 34.5561 6.25452 1.2113 34.5561 6.25452 1.2113
90 2 34.1823 5.79606 -2.03413 34.1823 5.79606 -2.03413
91 1 35.2715 4.36849 -0.345445 35.2715 4.36849 -0.345445
92 2 37.3311 4.40125 1.14601 37.3311 4.40125 1.14601
93 2 37.1409 4.33797 -2.14622 37.1409 4.33797 -2.14622
94 1 38.2143 5.93442 -0.652914 38.2143 5.93442 -0.652914
95 2 40.1299 5.92569 0.908807 40.1299 5.92569 0.908807
96 2 40.1034 5.89983 -2.41894 40.1034 5.89983 -2.41894
97 1 40.9953 4.26496 -0.852835 40.9953 4.26496 -0.852835
98 2 42.8099 4.22674 0.82627 42.8099 4.22674 0.82627
99 2 42.9847 4.1789 -2.41836 42.9847 4.1789 -2.41836
100 1 43.7637 5.93853 -0.794374 43.7637 5.93853 -0.794374
101 2 45.6755 6.08394 0.969618 45.6755 6.08394 0.969618
102 2 45.729 5.98046 -2.29564 45.729 5.98046 -2.29564
103 1 46.6691 4.401 -0.562486 46.6691 4.401 -0.562486
104 2 48.7398 4.54531 1.0032 48.7398 4.54531 1.0032
105 2 48.6187 4.46684 -2.38121 48.6187 4.46684 -2.38121
106 1 49.5721 6.12505 -0.727692 49.5721 6.12505 -0.727692
107 2 51.4915 5.95397 0.883714 51.4915 5.95397 0.883714
108 2 51.3886 6.11383 -2.35879 51.3886 6.11383 -2.35879
109 1 1.0496 7.60179 -0.694431 1.0496 7.60179 -0.694431
110 2 2.93048 7.47915 0.822799 2.93048 7.47915 0.822799
111 2 2.82003 7.67227 -2.44155 2.82003 7.67227 -2.44155
112 1 3.89356 9.1952 -0.727421 3.89356 9.1952 -0.727421
113 2 5.81199 9.19204 0.968623 5.81199 9.19204 0.968623
114 2 5.89947 9.24526 -2.33437 5.89947 9.24526 -2.33437
115 1 6.73493 7.60818 -0.681488 6.73493 7.60818 -0.681488
116 2 8.48343 7.56849 1.0632 8.48343 7.56849 1.0632
117 2 8.97974 7.59707 -2.19631 8.97974 7.59707 -2.19631
118 1 9.68669 9.21409 -0.412865 9.68669 9.21409 -0.412865
119 2 11.5287 9.23132 1.30615 11.5287 9.23132 1.30615
120 2 11.578 9.1102 -1.9659 11.578 9.1102 -1.9659
121 1 12.5033 7.51217 -0.319627 12.5033 7.51217 -0.319627
122 2 14.2844 7.59422 1.41575 14.2844 7.59422 1.41575
123 2 14.5262 7.70426 -1.83672 14.5262 7.70426 -1.83672
124 1 15.2859 9.3386 -0.0922273 15.2859 9.3386 -0.0922273
125 2 17.1234 9.49212 1.55123 17.1234 9.49212 1.55123
126 2 17.1487 9.12068 -1.65744 17.1487 9.12068 -1.65744
127 1 18.1758 7.65053 0.10954 18.1758 7.65053 0.10954
128 2 20.1959 7.71296 1.53792 20.1959 7.71296 1.53792
129 2 19.9277 7.68034 -1.72066 19.9277 7.68034 -1.72066
130 1 20.9944 9.28128 -0.119861 20.9944 9.28128 -0.119861
131 2 23.0136 9.25157 1.45094 23.0136 9.25157 1.45094
132 2 22.8932 9.21408 -1.80397 22.8932 9.21408 -1.80397
133 1 23.9122 7.57794 -0.180832 23.9122 7.57794 -0.180832
134 2 25.8839 7.50609 1.37114 25.8839 7.50609 1.37114
135 2 25.605 7.55048 -1.93189 25.605 7.55048 -1.93189
136 1 26.6954 9.23453 -0.390463 26.6954 9.23453 -0.390463
137 2 28.5808 9.22462 1.2048 28.5808 9.22462 1.2048
138 2 28.5762 9.35773 -2.11879 28.5762 9.35773 -2.11879
139 1 29.5917 7.69531 -0.570019 29.5917 7.69531 -0.570019
140 2 31.367 7.68918 1.20084 31.367 7.68918 1.20084
141 2 31.5609 7.5849 -2.03254 31.5609 7.5849 -2.03254
142 1 32.4975 9.26811 -0.373798 32.4975 9.26811 -0.373798
143 2 34.6918 9.2899 1.08149 34.6918 9.2899 1.08149
144 2 34.1237 9.25765 -2.24658 34.1237 9.25765 -2.24658
145 1 35.3161 7.6308 -0.685475 35.3161 7.6308 -0.685475
146 2 37.1996 7.65394 0.951493 37.1996 7.65394 0.951493
147 2 37.267 7.60831 -2.25208 37.267 7.60831 -2.25208
148 1 38.0762 9.30703 -0.686564 38.0762 9.30703 -0.686564
149 2 40.0091 9.28395 0.916276 40.0091 9.28395 0.916276
150 2 39.8848 9.36051 -2.39707 39.8848 9.36051 -2.39707
151 1 40.976 7.64469 -0.796325 40.976 7.64469 -0.796325
152 2 42.9452 7.61162 0.873048 42.9452 7.61162 0.873048
153 2 42.8025 7.63734 -2.45984 42.8025 7.63734 -2.45984
154 1 43.905 9.29274 -0.814991 43.905 9.29274 -0.814991
155 2 45.7838 9.44985 0.851302 45.7838 9.44985 0.851302
156 2 45.8012 9.26779 -2.47339 45.8012 9.26779 -2.47339
157 1 46.7408 7.64442 -0.693267 46.7408 7.64442 -0.693267
158 2 48.5468 7.68561 0.991106 48.5468 7.68561 0.991106
159 2 48.6887 7.77523 -2.29384 48.6887 7.77523 -2.29384
160 1 49.5479 9.34937 -0.606304 49.5479 9.34937 -0.606304
161 2 51.5226 9.34305 0.996045 51.5226 9.34305 0.996045
162 2 51.4881 9.42377 -2.16805 51.4881 9.42377 -2.16805
163 1 1.00599 10.9121 -0.50389 1.00599 10.9121 -0.50389
164 2 3.00365 10.8004 1.08134 3.00365 10.8004 1.08134
165 2 2.87819 10.9526 -2.20888 2.87819 10.9526 -2.20888
166 1 3.96677 12.5108 -0.483588 3.96677 12.5108 -0.483588
167 2 5.89565 12.5054 1.07611 5.89565 12.5054 1.07611
168 2 5.85367 12.5903 -2.2225 5.85367 12.5903 -2.2225
169 1 6.79917 10.8861 -0.641557 6.79917 10.8861 -0.641557
170 2 8.59773 10.9715 1.0345 8.59773 10.9715 1.0345
171 2 8.8618 10.7829 -2.17621 8.8618 10.7829 -2.17621
172 1 9.66004 12.5191 -0.625566 9.66004 12.5191 -0.625566
173 2 11.3443 12.5251 1.19965 11.3443 12.5251 1.19965
174 2 11.6809 12.5927 -2.07628 11.6809 12.5927 -2.07628
175 1 12.4306 10.8607 -0.36515 12.4306 10.8607 -0.36515
176 2 14.3092 11.21 1.28671 14.3092 11.21 1.28671
177 2 14.3065 10.7012 -1.94625 14.3065 10.7012 -1.94625
178 1 15.3348 12.5594 -0.524768 15.3348 12.5594 -0.524768
179 2 17.0918 12.6216 1.31067 17.0918 12.6216 1.31067
180 2 17.3241 12.4719 -1.9926 17.3241 12.4719 -1.9926
181 1 18.1547 10.9528 -0.185797 18.1547 10.9528 -0.185797
182 2 20.0192 10.9676 1.48614 20.0192 10.9676 1.48614
183 2 20.007 10.9161 -1.8071 20.007 10.9161 -1.8071
184 1 20.9352 12.5711 -0.278409 20.9352 12.5711 -0.278409
185 2 22.7394 12.4715 1.53618 22.7394 12.4715 1.53618
186 2 22.9646 12.6463 -1.66997 22.9646 12.6463 -1.66997
187 1 23.8253 10.898 -0.192345 23.8253 10.898 -0.192345
188 2 25.8312 10.7494 1.37439 25.8312 10.7494 1.37439
189 2 25.7207 10.945 -1.92787 25.7207 10.945 -1.92787
190 1 26.7081 12.4945 -0.254418 26.7081 12.4945 -0.254418
191 2 28.6341 12.4125 1.34978 28.6341 12.4125 1.34978
192 2 28.6416 12.7348 -1.93523 28.6416 12.7348 -1.93523
193 1 29.5897 10.9807 -0.435413 29.5897 10.9807 -0.435413
194 2 31.5195 11.0628 1.14232 31.5195 11.0628 1.14232
195 2 31.4273 10.8655 -2.16745 31.4273 10.8655 -2.16745
196 1 32.4654 12.6004 -0.607336 32.4654 12.6004 -0.607336
197 2 34.4019 12.516 0.951911 34.4019 12.516 0.951911
198 2 34.3103 12.7116 -2.26373 34.3103 12.7116 -2.26373
199 1 35.2962 10.894 -0.739807 35.2962 10.894 -0.739807
200 2 37.1668 11.001 0.880401 37.1668 11.001 0.880401
201 2 37.2327 11.0124 -2.37478 37.2327 11.0124 -2.37478
202 1 38.0393 12.5744 -0.696299 38.0393 12.5744 -0.696299
203 2 40.0625 12.5518 0.917739 40.0625 12.5518 0.917739
204 2 39.9844 12.574 -2.36281 39.9844 12.574 -2.36281
205 1 40.9675 10.8901 -0.668589 40.9675 10.8901 -0.668589
206 2 42.8631 10.8482 0.88708 42.8631 10.8482 0.88708
207 2 42.7637 10.9253 -2.45012 42.7637 10.9253 -2.45012
208 1 43.6976 12.5561 -0.807481 43.6976 12.5561 -0.807481
209 2 45.696 12.5505 0.751377 45.696 12.5505 0.751377
210 2 45.5574 12.5347 -2.48793 45.5574 12.5347 -2.48793
211 1 46.7002 11.0215 -0.917461 46.7002 11.0215 -0.917461
212 2 48.5475 11.1259 0.777296 48.5475 11.1259 0.777296
213 2 48.6911 10.7654 -2.43487 48.6911 10.7654 -2.43487
214 1 49.61 12.6498 -0.918853 49.61 12.6498 -0.918853
215 2 51.2143 12.6704 0.972916 51.2143 12.6704 0.972916
216 2 51.7113 12.5864 -2.29052 51.7113 12.5864 -2.29052
217 1 1.03583 14.1643 -0.562245 1.03583 14.1643 -0.562245
218 2 3.00034 14.239 1.03739 3.00034 14.239 1.03739
219 2 2.95491 14.0634 -2.14561 2.95491 14.0634 -2.14561
220 1 3.97536 15.8534 -0.612389 3.97536 15.8534 -0.612389
221 2 5.88413 15.7706 1.06027 5.88413 15.7706 1.06027
222 2 5.91614 15.7813 -2.3087 5.91614 15.7813 -2.3087
223 1 6.6989 14.2089 -0.554413 6.6989 14.2089 -0.554413
224 2 8.6736 14.1519 0.979261 8.6736 14.1519 0.979261
225 2 8.58227 14.2348 -2.11543 8.58227 14.2348 -2.11543
226 1 9.65107 15.8249 -0.632945 9.65107 15.8249 -0.632945
227 2 11.3098 15.999 1.22138 11.3098 15.999 1.22138
228 2 11.6835 15.9789 -2.0995 11.6835 15.9789 -2.0995
229 1 12.4091 14.3188 -0.321188 12.4091 14.3188 -0.321188
230 2 14.4502 14.2154 1.14331 14.4502 14.2154 1.14331
231 2 14.2491 14.2402 -2.10169 14.2491 14.2402 -2.10169
232 1 15.2725 15.843 -0.380898 15.2725 15.843 -0.380898
233 2 17.25 15.9534 1.28512 17.25 15.9534 1.28512
234 2 17.179 15.7666 -2.03521 17.179 15.7666 -2.03521
235 1 18.1678 14.2339 -0.285256 18.1678 14.2339 -0.285256
236 2 20.0343 14.2427 1.27709 20.0343 14.2427 1.27709
237 2 19.9553 14.1799 -1.97393 19.9553 14.1799 -1.97393
238 1 21.0198 15.8148 -0.372914 21.0198 15.8148 -0.372914
239 2 22.8676 15.8347 1.5384 22.8676 15.8347 1.5384
240 2 23.1449 15.807 -1.69169 23.1449 15.807 -1.69169
241 1 23.7969 14.117 0.0291273 23.7969 14.117 0.0291273
242 2 25.8571 13.9636 1.58066 25.8571 13.9636 1.58066
243 2 25.6586 14.2448 -1.68405 25.6586 14.2448 -1.68405
244 1 26.7011 15.7368 0.054453 26.7011 15.7368 0.054453
245 2 28.7207 15.7361 1.55017 28.7207 15.7361 1.55017
246 2 28.5526 15.8459 -1.67993 28.5526 15.8459 -1.67993
247 1 29.5822 14.174 -0.127522 29.5822 14.174 -0.127522
248 2 31.6925 14.0309 1.24899 31.6925 14.0309 1.24899
249 2 31.3177 14.2481 -1.96723 31.3177 14.2481 -1.96723
250 1 32.4411 15.8115 -0.321047 32.4411 15.8115 -0.321047
251 2 34.3936 15.9279 1.15836 34.3936 15.9279 1.15836
252 2 34.3025 15.8888 -2.15097 34.3025 15.8888 -2.15097
253 1 35.2074 14.2514 -0.621784 35.2074 14.2514 -0.621784
254 2 37.1411 14.1748 0.977894 37.1411 14.1748 0.977894
255 2 37.1781 14.2323 -2.26836 37.1781 14.2323 -2.26836
256 1 38.124 15.8208 -0.625141 38.124 15.8208 -0.625141
257 2 40.1002 15.639 0.926964 40.1002 15.639 0.926964
258 2 40.0468 15.9452 -2.31571 40.0468 15.9452 -2.31571
259 1 40.9432 14.2006 -0.834856 40.9432 14.2006 -0.834856
260 2 42.6766 14.129 0.768922 42.6766 14.129 0.768922
261 2 42.8482 14.2444 -2.46665 42.8482 14.2444 -2.46665
262 1 43.8252 15.7596 -0.816823 43.8252 15.7596 -0.816823
263 2 45.7086 15.7584 0.765417 45.7086 15.7584 0.765417
264 2 45.7227 15.8419 -2.56575 45.7227 15.8419 -2.56575
265 1 46.6971 14.251 -0.926395 46.6971 14.251 -0.926395
266 2 48.7063 14.1484 0.892469 48.7063 14.1484 0.892469
267 2 48.6496 14.2871 -2.51442 48.6496 14.2871 -2.51442
268 1 49.5594 15.8949 -0.746425 49.5594 15.8949 -0.746425
269 2 51.541 16.0478 0.923988 51.541 16.0478 0.923988
270 2 51.4823 15.8673 -2.29339 51.4823 15.8673 -2.29339
271 1 1.09708 17.5522 -0.819154 1.09708 17.5522 -0.819154
272 2 3.0482 17.6188 0.840206 3.0482 17.6188 0.840206
273 2 3.12724 17.4663 -2.30069 3.12724 17.4663 -2.30069
274 1 3.99067 19.1421 -0.821238 3.99067 19.1421 -0.821238
275 2 5.74323 19.0079 1.04078 5.74323 19.0079 1.04078
276 2 6.11354 19.2619 -2.31429 6.11354 19.2619 -2.31429
277 1 6.76363 17.4398 -0.620633 6.76363 17.4398 -0.620633
278 2 8.59028 17.2076 1.08217 8.59028 17.2076 1.08217
279 2 8.7102 17.5146 -2.12124 8.7102 17.5146 -2.12124
280 1 9.56594 19.0522 -0.345173 9.56594 19.0522 -0.345173
281 2 11.4026 19.0167 1.36278 11.4026 19.0167 1.36278
282 2 11.6153 19.4481 -1.81371 11.6153 19.4481 -1.81371
283 1 12.4333 17.5396 -0.364239 12.4333 17.5396 -0.364239
284 2 14.1791 17.3332 1.29337 14.1791 17.3332 1.29337
285 2 14.435 17.6095 -1.91143 14.435 17.6095 -1.91143
286 1 15.2518 19.1401 -0.13776 15.2518 19.1401 -0.13776
287 2 17.194 18.9044 1.46186 17.194 18.9044 1.46186
288 2 17.1224 19.4911 -1.67915 17.1224 19.4911 -1.67915
289 1 18.0881 17.5468 -0.454891 18.0881 17.5468 -0.454891
290 2 19.8402 17.2697 1.2981 19.8402 17.2697 1.2981
291 2 20.2884 17.777 -1.83732 20.2884 17.777 -1.83732
292 1 21.0698 19.1181 0.0279955 21.0698 19.1181 0.0279955
293 2 22.8579 18.9147 1.73517 22.8579 18.9147 1.73517
294 2 23.0619 19.2911 -1.49805 23.0619 19.2911 -1.49805
295 1 23.8802 17.4262 0.0404436 23.8802 17.4262 0.0404436
296 2 25.7246 17.3804 1.70187 25.7246 17.3804 1.70187
297 2 25.8984 17.4943 -1.54201 25.8984 17.4943 -1.54201
298 1 26.736 19.0258 0.282148 26.736 19.0258 0.282148
299 2 28.7282 18.869 1.75143 28.7282 18.869 1.75143
300 2 28.5603 19.1084 -1.44783 28.5603 19.1084 -1.44783
301 1 29.6802 17.4362 -0.0348346 29.6802 17.4362 -0.0348346
302 2 31.6429 17.2776 1.56998 31.6429 17.2776 1.56998
303 2 31.3542 17.7116 -1.7406 31.3542 17.7116 -1.7406
304 1 32.4574 19.1097 0.119118 32.4574 19.1097 0.119118
305 2 34.5979 18.9753 1.50953 34.5979 18.9753 1.50953
306 2 34.1713 19.3972 -1.73851 34.1713 19.3972 -1.73851
307 1 35.3245 17.5518 -0.572583 35.3245 17.5518 -0.572583
308 2 37.2161 17.3888 1.19229 37.2161 17.3888 1.19229
309 2 37.2928 17.6069 -2.11316 37.2928 17.6069 -2.11316
310 1 38.1284 19.1569 -0.309976 38.1284 19.1569 -0.309976
311 2 40.1383 18.9551 1.26611 40.1383 18.9551 1.26611
312 2 40.0167 19.2109 -2.06336 40.0167 19.2109 -2.06336
313 1 41.0102 17.5126 -0.547365 41.0102 17.5126 -0.547365
314 2 42.8991 17.2347 1.0123 42.8991 17.2347 1.0123
315 2 42.8916 17.6614 -2.17654 42.8916 17.6614 -2.17654
316 1 43.8728 19.048 -0.434158 43.8728 19.048 -0.434158
317 2 45.8786 18.9944 1.06206 45.8786 18.9944 1.06206
318 2 45.6474 19.1935 -2.10608 45.6474 19.1935 -2.10608
319 1 46.6402 17.4665 -0.772972 46.6402 17.4665 -0.772972
320 2 48.5126 17.5949 0.787936 48.5126 17.5949 0.787936
321 2 48.5414 17.4635 -2.39667 48.5414 17.4635 -2.39667
322 1 49.5261 19.1524 -0.823275 49.5261 19.1524 -0.823275
323 2 51.4926 19.1128 0.823379 51.4926 19.1128 0.823379
324 2 51.5319 19.2165 -2.50573 51.5319 19.2165 -2.50573
325 1 0.995864 20.7228 -0.816086 0.995864 20.7228 -0.816086
326 2 2.85381 20.7943 0.782309 2.85381 20.7943 0.782309
327 2 3.05667 20.7456 -2.48308 3.05667 20.7456 -2.48308
328 1 3.86845 22.4743 -0.819268 3.86845 22.4743 -0.819268
329 2 5.52852 22.4975 1.01027 5.52852 22.4975 1.01027
330 2 5.99596 22.4097 -2.21746 5.99596 22.4097 -2.21746
331 1 6.72338 20.7365 -0.443363 6.72338 20.7365 -0.443363
332 2 8.5347 20.5914 1.28079 8.5347 20.5914 1.28079
333 2 8.71317 20.8304 -1.89697 8.71317 20.8304 -1.89697
334 1 9.6341 22.379 -0.0757877 9.6341 22.379 -0.0757877
335 2 11.5434 22.3782 1.65627 11.5434 22.3782 1.65627
336 2 11.6461 22.5905 -1.65652 11.6461 22.5905 -1.65652
337 1 12.4179 20.7865 0.0411317 12.4179 20.7865 0.0411317
338 2 14.3097 20.6441 1.64202 14.3097 20.6441 1.64202
339 2 14.3273 20.9631 -1.54393 14.3273 20.9631 -1.54393
340 1 15.3314 22.4839 0.247414 15.3314 22.4839 0.247414
341 2 17.0601 22.1395 2.06408 17.0601 22.1395 2.06408
342 2 17.2381 22.6053 -1.22556 17.2381 22.6053 -1.22556
343 1 18.1098 20.7822 0.220196 18.1098 20.7822 0.220196
344 2 20.0358 20.563 1.89572 20.0358 20.563 1.89572
345 2 20.0181 20.8834 -1.38405 20.0181 20.8834 -1.38405
346 1 20.8914 22.3423 0.442636 20.8914 22.3423 0.442636
347 2 22.9352 22.2488 2.01904 22.9352 22.2488 2.01904
348 2 22.8357 22.4909 -1.10643 22.8357 22.4909 -1.10643
349 1 23.9205 20.7004 0.368603 23.9205 20.7004 0.368603
350 2 25.6676 20.6012 2.00525 25.6676 20.6012 2.00525
351 2 25.8724 20.8988 -1.23364 25.8724 20.8988 -1.23364
352 1 26.6595 22.4298 0.608981 26.6595 22.4298 0.608981
353 2 28.6466 22.1322 2.0477 28.6466 22.1322 2.0477
354 2 28.5708 22.6052 -1.14086 28.5708 22.6052 -1.14086
355 1 29.5486 20.7248 0.239718 29.5486 20.7248 0.239718
356 2 31.462 20.6082 1.86566 31.462 20.6082 1.86566
357 2 31.4661 20.9046 -1.39707 31.4661 20.9046 -1.39707
358 1 32.4043 22.4325 0.306473 32.4043 22.4325 0.306473
359 2 34.4258 22.4363 1.79419 34.4258 22.4363 1.79419
360 2 34.1549 22.4458 -1.50031 34.1549 22.4458 -1.50031
361 1 35.3079 20.8424 0.0398212 35.3079 20.8424 0.0398212
362 2 37.2668 20.5119 1.58592 37.2668 20.5119 1.58592
363 2 37.1105 20.9883 -1.70079 37.1105 20.9883 -1.70079
364 1 38.094 22.3684 0.0708465 38.094 22.3684 0.0708465
365 2 40.2547 22.3535 1.53008 40.2547 22.3535 1.53008
366 2 39.9873 22.4913 -1.77577 39.9873 22.4913 -1.77577
367 1 41.0029 20.7694 -0.26742 41.0029 20.7694 -0.26742
368 2 43.068 20.6489 1.35312 43.068 20.6489 1.35312
369 2 42.7976 20.7948 -1.94303 42.7976 20.7948 -1.94303
370 1 43.8507 22.3954 -0.24211 43.8507 22.3954 -0.24211
371 2 45.8903 22.4917 1.2881 45.8903 22.4917 1.2881
372 2 45.7449 22.3615 -1.97479 45.7449 22.3615 -1.97479
373 1 46.6824 20.7759 -0.407814 46.6824 20.7759 -0.407814
374 2 48.7395 20.6414 1.00302 48.7395 20.6414 1.00302
375 2 48.5079 21.0293 -2.27544 48.5079 21.0293 -2.27544
376 1 49.6245 22.3912 -0.505199 49.6245 22.3912 -0.505199
377 2 51.5909 22.209 1.0645 51.5909 22.209 1.0645
378 2 51.4022 22.6187 -2.25462 51.4022 22.6187 -2.25462
379 1 1.02345 24.0574 -0.427333 1.02345 24.0574 -0.427333
380 2 2.98464 23.9618 1.06646 2.98464 23.9618 1.06646
381 2 2.83214 24.3329 -2.12928 2.83214 24.3329 -2.12928
382 1 3.83011 25.8236 -0.409189 3.83011 25.8236 -0.409189
383 2 5.62386 25.4237 1.32253 5.62386 25.4237 1.32253
384 2 5.87778 25.9698 -1.8429 5.87778 25.9698 -1.8429
385 1 6.75834 24.121 -0.486706 6.75834 24.121 -0.486706
386 2 8.44887 23.8752 1.40934 8.44887 23.8752 1.40934
387 2 8.94929 24.2679 -1.77112 8.94929 24.2679 -1.77112
388 1 9.58852 25.716 0.1735 9.58852 25.716 0.1735
389 2 11.5087 25.6377 1.95518 11.5087 25.6377 1.95518
390 2 11.5424 25.9848 -1.39412 11.5424 25.9848 -1.39412
391 1 12.4984 24.088 0.0493947 12.4984 24.088 0.0493947
392 2 14.2394 23.9554 1.78534 14.2394 23.9554 1.78534
393 2 14.4734 24.1622 -1.36932 14.4734 24.1622 -1.36932
394 1 15.3405 25.7329 0.299575 15.3405 25.7329 0.299575
395 2 17.1254 25.7196 2.14645 17.1254 25.7196 2.14645
396 2 17.4044 25.6926 -1.13272 17.4044 25.6926 -1.13272
397 1 18.1447 24.0453 0.684469 18.1447 24.0453 0.684469
398 2 20.0724 23.8942 2.24517 20.0724 23.8942 2.24517
399 2 20.0052 24.0687 -1.11995 20.0052 24.0687 -1.11995
400 1 20.9551 25.7044 0.54973 20.9551 25.7044 0.54973
401 2 22.8009 25.5534 2.26486 22.8009 25.5534 2.26486
402 2 22.9101 25.8371 -0.977666 22.9101 25.8371 -0.977666
403 1 23.8567 24.0955 0.552644 23.8567 24.0955 0.552644
404 2 25.6627 23.845 2.27787 25.6627 23.845 2.27787
405 2 25.8873 24.2389 -0.964143 25.8873 24.2389 -0.964143
406 1 26.6767 25.6881 0.864406 26.6767 25.6881 0.864406
407 2 28.6757 25.6243 2.4287 28.6757 25.6243 2.4287
408 2 28.4634 25.6596 -0.926204 28.4634 25.6596 -0.926204
409 1 29.5261 23.9917 0.6465 29.5261 23.9917 0.6465
410 2 31.4731 23.7599 2.13742 31.4731 23.7599 2.13742
411 2 31.3484 24.27 -1.06677 31.3484 24.27 -1.06677
412 1 32.3059 25.7291 0.671671 32.3059 25.7291 0.671671
413 2 34.4623 25.6515 2.01604 34.4623 25.6515 2.01604
414 2 34.081 25.7189 -1.22426 34.081 25.7189 -1.22426
415 1 35.271 24.0424 0.137273 35.271 24.0424 0.137273
416 2 37.1322 23.9698 1.7555 37.1322 23.9698 1.7555
417 2 37.1924 24.1113 -1.51484 37.1924 24.1113 -1.51484
418 1 38.1811 25.7066 0.195146 38.1811 25.7066 0.195146
419 2 40.2045 25.6196 1.72199 40.2045 25.6196 1.72199
420 2 40.0854 25.9011 -1.55089 40.0854 25.9011 -1.55089
421 1 41.0139 24.1781 -0.100123 41.0139 24.1781 -0.100123
422 2 42.9684 24.093 1.55742 42.9684 24.093 1.55742
423 2 42.9812 24.1852 -1.79467 42.9812 24.1852 -1.79467
424 1 43.8411 25.8059 -0.111097 43.8411 25.8059 -0.111097
425 2 45.8056 25.7443 1.43807 45.8056 25.7443 1.43807
426 2 45.7451 25.9771 -1.81657 45.7451 25.9771 -1.81657
427 1 46.7447 24.091 -0.35305 46.7447 24.091 -0.35305
428 2 48.735 24.0438 1.28636 48.735 24.0438 1.28636
429 2 48.6172 24.1295 -1.96226 48.6172 24.1295 -1.96226
430 1 49.6243 25.738 -0.286514 49.6243 25.738 -0.286514
431 2 51.5064 25.6268 1.24734 51.5064 25.6268 1.24734
432 2 51.4283 25.8685 -1.9748 51.4283 25.8685 -1.9748
433 1 1.04975 27.4311 -0.282396 1.04975 27.4311 -0.282396
434 2 2.90753 27.1452 1.45563 2.90753 27.1452 1.45563
435 2 2.94512 27.6195 -1.89744 2.94512 27.6195 -1.89744
436 1 3.8692 29.047 0.0761776 3.8692 29.047 0.0761776
437 2 5.67085 28.8142 1.81566 5.67085 28.8142 1.81566
438 2 5.8827 29.1593 -1.52165 5.8827 29.1593 -1.52165
439 1 6.64978 27.37 0.0533885 6.64978 27.37 0.0533885
440 2 8.59729 27.3943 1.65912 8.59729 27.3943 1.65912
441 2 8.66714 27.3318 -1.528 8.66714 27.3318 -1.528
442 1 9.54094 29.0041 0.0644445 9.54094 29.0041 0.0644445
443 2 11.3166 28.976 1.95505 11.3166 28.976 1.95505
444 2 11.7331 28.8776 -1.32224 11.7331 28.8776 -1.32224
445 1 12.465 27.3654 0.503991 12.465 27.3654 0.503991
446 2 14.5606 27.3547 2.00217 14.5606 27.3547 2.00217
447 2 14.3565 27.4218 -1.26921 14.3565 27.4218 -1.26921
448 1 15.3138 29.0148 0.297898 15.3138 29.0148 0.297898
449 2 17.136 29.0605 2.02776 17.136 29.0605 2.02776
450 2 17.3297 28.9503 -1.14287 17.3297 28.9503 -1.14287
451 1 18.1409 27.368 0.557703 18.1409 27.368 0.557703
452 2 19.9718 27.1844 2.27624 19.9718 27.1844 2.27624
453 2 20.1454 27.536 -1.06862 20.1454 27.536 -1.06862
454 1 20.9954 28.9516 0.882307 20.9954 28.9516 0.882307
455 2 22.9005 29.0229 2.56891 22.9005 29.0229 2.56891
456 2 22.9172 28.8702 -0.845075 22.9172 28.8702 -0.845075
457 1 23.8716 27.3896 0.984171 23.8716 27.3896 0.984171
458 2 25.8115 27.3919 2.53372 25.8115 27.3919 2.53372
459 2 25.623 27.3012 -0.777978 25.623 27.3012 -0.777978
460 1 26.6852 28.9906 0.827327 26.6852 28.9906 0.827327
461 2 28.5507 28.8931 2.37977 28.5507 28.8931 2.37977
462 2 28.5645 29.011 -0.861664 28.5645 29.011 -0.861664
463 1 29.4894 27.2944 0.755727 29.4894 27.2944 0.755727
464 2 31.4613 27.4034 2.33426 31.4613 27.4034 2.33426
465 2 31.3396 27.3002 -0.951068 31.3396 27.3002 -0.951068
466 1 32.4422 28.9959 0.704355 32.4422 28.9959 0.704355
467 2 34.5865 28.9433 2.1623 34.5865 28.9433 2.1623
468 2 34.1402 28.9135 -1.10864 34.1402 28.9135 -1.10864
469 1 35.2925 27.2938 0.400199 35.2925 27.2938 0.400199
470 2 37.359 27.2694 1.88192 37.359 27.2694 1.88192
471 2 36.9925 27.2721 -1.43171 36.9925 27.2721 -1.43171
472 1 38.0743 28.896 0.207286 38.0743 28.896 0.207286
473 2 40.0439 29.1575 1.71507 40.0439 29.1575 1.71507
474 2 39.9581 28.9044 -1.48814 39.9581 28.9044 -1.48814
475 1 41.0482 27.4537 0.168542 41.0482 27.4537 0.168542
476 2 43.1031 27.3417 1.70155 43.1031 27.3417 1.70155
477 2 42.7876 27.5429 -1.53168 42.7876 27.5429 -1.53168
478 1 43.8851 29.1012 0.0772983 43.8851 29.1012 0.0772983
479 2 45.8188 29.098 1.61138 45.8188 29.098 1.61138
480 2 45.7239 29.0134 -1.62075 45.7239 29.0134 -1.62075
481 1 46.8026 27.4115 -0.0217506 46.8026 27.4115 -0.0217506
482 2 48.7955 27.3933 1.47831 48.7955 27.3933 1.47831
483 2 48.5879 27.3695 -1.73806 48.5879 27.3695 -1.73806
484 1 49.6326 29.0941 -0.122274 49.6326 29.0941 -0.122274
485 2 51.5132 28.963 1.51895 51.5132 28.963 1.51895
486 2 51.5203 29.2492 -1.74919 51.5203 29.2492 -1.74919
487 1 0.99542 30.7304 -0.042648 0.99542 30.7304 -0.042648
488 2 2.82353 30.5911 1.77785 2.82353 30.5911 1.77785
489 2 3.01929 30.7661 -1.52241 3.01929 30.7661 -1.52241
490 1 3.84276 32.2863 0.265344 3.84276 32.2863 0.265344
491 2 5.65241 32.366 1.97469 5.65241 32.366 1.97469
492 2 5.75659 32.4348 -1.19945 5.75659 32.4348 -1.19945
493 1 6.70295 30.6328 0.404024 6.70295 30.6328 0.404024
494 2 8.67294 30.4344 1.88055 8.67294 30.4344 1.88055
495 2 8.44393 30.7503 -1.42274 8.44393 30.7503 -1.42274
496 1 9.57257 32.3393 0.296771 9.57257 32.3393 0.296771
497 2 11.5068 32.2009 2.03237 11.5068 32.2009 2.03237
498 2 11.529 32.4553 -1.22663 11.529 32.4553 -1.22663
499 1 12.3768 30.5803 0.324861 12.3768 30.5803 0.324861
500 2 14.2904 30.5098 2.02162 14.2904 30.5098 2.02162
501 2 14.3519 30.7272 -1.20997 14.3519 30.7272 -1.20997
502 1 15.2412 32.3143 0.532158 15.2412 32.3143 0.532158
503 2 17.0672 32.2535 2.23542 17.0672 32.2535 2.23542
504 2 17.1546 32.3735 -1.05495 17.1546 32.3735 -1.05495
505 1 18.1066 30.7428 0.483329 18.1066 30.7428 0.483329
506 2 19.7588 30.7264 2.34926 19.7588 30.7264 2.34926
507 2 20.2186 30.6784 -0.856467 20.2186 30.6784 -0.856467
508 1 20.9434 32.2795 0.878089 20.9434 32.2795 0.878089
509 2 23.0531 32.3177 2.38548 23.0531 32.3177 2.38548
510 2 22.7424 32.1649 -0.948304 22.7424 32.1649 -0.948304
511 1 23.7741 30.5661 0.74029 23.7741 30.5661 0.74029
512 2 25.6807 30.7496 2.31137 25.6807 30.7496 2.31137
513 2 25.6928 30.5202 -0.89051 25.6928 30.5202 -0.89051
514 1 26.7204 32.3011 0.628823 26.7204 32.3011 0.628823
515 2 28.6477 32.4121 2.28784 28.6477 32.4121 2.28784
516 2 28.6187 32.2237 -0.921909 28.6187 32.2237 -0.921909
517 1 29.5167 30.6895 0.776288 29.5167 30.6895 0.776288
518 2 31.5408 30.83 2.17726 31.5408 30.83 2.17726
519 2 31.2498 30.4893 -1.06424 31.2498 30.4893 -1.06424
520 1 32.4012 32.2651 0.380563 32.4012 32.2651 0.380563
521 2 34.3668 32.5848 1.90214 34.3668 32.5848 1.90214
522 2 34.2507 32.1498 -1.40603 34.2507 32.1498 -1.40603
523 1 35.2573 30.6602 0.415008 35.2573 30.6602 0.415008
524 2 37.2647 30.6535 1.85599 37.2647 30.6535 1.85599
525 2 37.0276 30.5563 -1.41559 37.0276 30.5563 -1.41559
526 1 38.043 32.2643 0.15138 38.043 32.2643 0.15138
527 2 40.1227 32.4545 1.54446 40.1227 32.4545 1.54446
528 2 39.7928 32.2767 -1.64065 39.7928 32.2767 -1.64065
529 1 40.8791 30.6477 -0.0814236 40.8791 30.6477 -0.0814236
530 2 42.8595 30.6609 1.67757 42.8595 30.6609 1.67757
531 2 42.8648 30.6456 -1.58659 42.8648 30.6456 -1.58659
532 1 43.7633 32.3207 0.0189675 43.7633 32.3207 0.0189675
533 2 45.778 32.5655 1.49443 45.778 32.5655 1.49443
534 2 45.628 32.1921 -1.76163 45.628 32.1921 -1.76163
535 1 46.6969 30.6995 -0.0442586 46.6969 30.6995 -0.0442586
536 2 48.5701 30.583 1.63545 48.5701 30.583 1.63545
537 2 48.5582 30.8282 -1.62201 48.5582 30.8282 -1.62201
538 1 49.5095 32.3692 0.0893475 49.5095 32.3692 0.0893475