ITEM: TIMESTEP
6100
ITEM: NUMBER OF ATOMS
810
ITEM: BOX BOUNDS pp pp pp
7.9781325416849969e-01 5.2219791745831898e+01
7.9303425833711083e-01 5.0223180741661970e+01
-1.0000000000000000e+01 1.0000000000000000e+01
ITEM: ATOMS id type x y z xu yu zu
1 1 0.987477 0.986624 -0.281785 0.987477 0.986624 -0.281785
2 2 2.85773 1.04643 1.42353 2.85773 1.04643 1.42353
3 2 3.00824 0.906402 -1.84321 3.00824 0.906402 -1.84321
4 1 3.81153 2.66256 -0.194315 3.81153 2.66256 -0.194315
5 2 5.92735 2.91768 1.27633 5.92735 2.91768 1.27633
6 2 5.61965 2.38587 -1.85138 5.61965 2.38587 -1.85138
7 1 6.72737 1.03613 -0.103983 6.72737 1.03613 -0.103983
8 2 8.57109 1.0521 1.64652 8.57109 1.0521 1.64652
9 2 8.63934 0.966648 -1.68744 8.63934 0.966648 -1.68744
10 1 9.58084 2.58589 -0.0211319 9.58084 2.58589 -0.0211319
11 2 11.4199 2.82343 1.6561 11.4199 2.82343 1.6561
12 2 11.5061 2.36429 -1.6112 11.5061 2.36429 -1.6112
13 1 12.3199 1.01532 0.204602 12.3199 1.01532 0.204602
14 2 14.3872 1.19043 1.7878 14.3872 1.19043 1.7878
15 2 14.2968 0.763851 -1.45388 14.2968 0.763851 -1.45388
16 1 15.2295 2.6921 -0.0331567 15.2295 2.6921 -0.0331567
17 2 17.0846 2.83743 1.61555 17.0846 2.83743 1.61555
18 2 17.2042 2.54317 -1.68796 17.2042 2.54317 -1.68796
19 1 18.0857 1.08046 0.209607 18.0857 1.08046 0.209607
20 2 19.8454 1.45345 2.00373 19.8454 1.45345 2.00373
21 2 20.126 50.1115 -1.26955 20.126 0.681376 -1.26955
22 1 20.9835 2.73166 0.0895874 20.9835 2.73166 0.0895874
23 2 22.6734 3.03791 1.84353 22.6734 3.03791 1.84353
24 2 22.9598 2.36664 -1.44539 22.9598 2.36664 -1.44539
25 1 23.7942 1.08086 0.579067 23.7942 1.08086 0.579067
26 2 25.7692 1.33162 2.22586 25.7692 1.33162 2.22586
27 2 25.7378 0.989905 -1.01117 25.7378 0.989905 -1.01117
28 1 26.7443 2.76533 0.439633 26.7443 2.76533 0.439633
29 2 28.6131 3.20624 2.09916 28.6131 3.20624 2.09916
30 2 28.7703 2.44335 -1.00647 28.7703 2.44335 -1.00647
31 1 29.6678 1.14464 0.979107 29.6678 1.14464 0.979107
32 2 31.7197 1.18161 2.49847 31.7197 1.18161 2.49847
33 2 31.4653 1.00828 -0.714001 31.4653 1.00828 -0.714001
34 1 32.5568 2.82636 0.699292 32.5568 2.82636 0.699292
35 2 34.7971 3.03455 1.8295 34.7971 3.03455 1.8295
36 2 34.0751 2.4336 -1.38932 34.0751 2.4336 -1.38932
37 1 35.2428 1.06164 0.313466 35.2428 1.06164 0.313466
38 2 37.3466 1.14931 1.7852 37.3466 1.14931 1.7852
39 2 36.9809 1.01703 -1.50778 36.9809 1.01703 -1.50778
40 1 38.1712 2.74153 -0.0922752 38.1712 2.74153 -0.0922752
41 2 40.2779 2.93187 1.36009 40.2779 2.93187 1.36009
42 2 39.9843 2.52506 -1.80522 39.9843 2.52506 -1.80522
43 1 40.934 1.07886 -0.147929 40.934 1.07886 -0.147929
44 2 43.0395 1.23511 1.30177 43.0395 1.23511 1.30177
45 2 42.7425 0.916023 -1.87049 42.7425 0.916023 -1.87049
46 1 43.9194 2.62749 -0.57513 43.9194 2.62749 -0.57513
47 2 45.7265 2.68011 1.24234 45.7265 2.68011 1.24234
48 2 45.8938 2.62628 -2.09145 45.8938 2.62628 -2.09145
49 1 46.704 1.05652 -0.39345 46.704 1.05652 -0.39345
50 2 48.5288 0.888743 1.34629 48.5288 0.888743 1.34629
51 2 48.6213 0.996059 -1.95388 48.6213 0.996059 -1.95388
52 1 49.4909 2.63613 -0.17244 49.4909 2.63613 -0.17244
53 2 51.5212 2.59995 1.26412 51.5212 2.59995 1.26412
54 2 51.2609 2.5797 -1.95163 51.2609 2.5797 -1.95163
55 1 0.941889 4.21664 -0.500482 0.941889 4.21664 -0.500482
56 2 2.87404 4.53257 1.07431 2.87404 4.53257 1.07431
57 2 2.81473 4.02224 -2.08647 2.81473 4.02224 -2.08647
58 1 3.85948 5.91125 -0.884072 3.85948 5.91125 -0.884072
59 2 5.60563 5.98573 0.894974 5.60563 5.98573 0.894974
60 2 5.96902 5.84218 -2.33012 5.96902 5.84218 -2.33012
61 1 6.78283 4.25348 -0.547483 6.78283 4.25348 -0.547483
62 2 8.57697 4.54904 1.26237 8.57697 4.54904 1.26237
63 2 8.84588 3.92629 -1.96779 8.84588 3.92629 -1.96779
64 1 9.61586 5.93254 -0.553095 9.61586 5.93254 -0.553095
65 2 11.3467 5.98651 1.24109 11.3467 5.98651 1.24109
66 2 11.6071 5.79777 -2.01641 11.6071 5.79777 -2.01641
67 1 12.4673 4.27229 -0.17948 12.4673 4.27229 -0.17948
68 2 14.2718 4.34433 1.54251 14.2718 4.34433 1.54251
69 2 14.3917 4.28205 -1.66333 14.3917 4.28205 -1.66333
70 1 15.2342 6.02798 -0.125403 15.2342 6.02798 -0.125403
71 2 17.3176 6.10628 1.45553 17.3176 6.10628 1.45553
72 2 17.1535 5.92761 -1.85897 17.1535 5.92761 -1.85897
73 1 18.1009 4.36885 -0.182543 18.1009 4.36885 -0.182543
74 2 19.9538 4.44957 1.58222 19.9538 4.44957 1.58222
75 2 20.0771 4.18329 -1.70372 20.0771 4.18329 -1.70372
76 1 21.0132 5.92849 -0.131886 21.0132 5.92849 -0.131886
77 2 22.8341 6.04996 1.51987 22.8341 6.04996 1.51987
78 2 22.9569 5.868 -1.6633 22.9569 5.868 -1.6633
79 1 23.8701 4.3306 0.0899273 23.8701 4.3306 0.0899273
80 2 25.7595 4.61039 1.75694 25.7595 4.61039 1.75694
81 2 25.8334 4.04887 -1.43441 25.8334 4.04887 -1.43441
82 1 26.7566 5.9079 -0.172367 26.7566 5.9079 -0.172367
83 2 28.5987 6.25158 1.62564 28.5987 6.25158 1.62564
84 2 28.8524 5.70358 -1.67141 28.8524 5.70358 -1.67141
85 1 29.7169 4.39054 0.305085 29.7169 4.39054 0.305085
86 2 31.61 4.99033 1.83165 31.61 4.99033 1.83165
87 2 31.4053 3.97357 -1.29218 31.4053 3.97357 -1.29218
88 1 32.398 6.06114 -0.238738 32.398 6.06114 -0.238738
89 2 34.2949 6.03734 1.32729 34.2949 6.03734 1.32729
90 2 34.2348 5.93679 -1.91721 34.2348 5.93679 -1.91721
91 1 35.274 4.39368 -0.238837 35.274 4.39368 -0.238837
92 2 37.2477 4.61008 1.22188 37.2477 4.61008 1.22188
93 2 37.0996 4.1175 -1.93736 37.0996 4.1175 -1.93736
94 1 38.1722 5.99326 -0.626655 38.1722 5.99326 -0.626655
95 2 40.1493 6.06888 1.0159 40.1493 6.06888 1.0159
96 2 40.1612 5.82669 -2.16148 40.1612 5.82669 -2.16148
97 1 41.1104 4.28933 -0.500522 41.1104 4.28933 -0.500522
98 2 43.1045 4.34232 1.05279 43.1045 4.34232 1.05279
99 2 42.9386 4.22804 -2.21867 42.9386 4.22804 -2.21867
100 1 43.8962 5.90417 -0.666748 43.8962 5.90417 -0.666748
101 2 45.7067 6.049 1.06284 45.7067 6.049 1.06284
102 2 45.8268 5.73669 -2.26416 45.8268 5.73669 -2.26416
103 1 46.712 4.31241 -0.374569 46.712 4.31241 -0.374569
104 2 48.5958 4.61221 1.23706 48.5958 4.61221 1.23706
105 2 48.6094 4.11275 -2.0185 48.6094 4.11275 -2.0185
106 1 49.6114 5.97613 -0.632601 49.6114 5.97613 -0.632601
107 2 51.5278 6.20234 0.885108 51.5278 6.20234 0.885108
108 2 51.4196 5.54292 -2.36969 51.4196 5.54292 -2.36969
109 1 0.942642 7.51543 -1.05173 0.942642 7.51543 -1.05173
110 2 2.71236 7.61608 0.646345 2.71236 7.61608 0.646345
111 2 2.87456 7.57595 -2.6089 2.87456 7.57595 -2.6089
112 1 3.80352 9.19245 -0.940768 3.80352 9.19245 -0.940768
113 2 5.7048 9.40667 0.790495 5.7048 9.40667 0.790495
114 2 5.87746 9.21072 -2.45864 5.87746 9.21072 -2.45864
115 1 6.66228 7.61166 -0.703714 6.66228 7.61166 -0.703714
116 2 8.64594 7.50423 0.999256 8.64594 7.50423 0.999256
117 2 8.67258 7.66925 -2.16502 8.67258 7.66925 -2.16502
118 1 9.6151 9.27895 -0.516479 9.6151 9.27895 -0.516479
119 2 11.3121 9.14866 1.3516 11.3121 9.14866 1.3516
120 2 11.6011 9.33718 -2.02937 11.6011 9.33718 -2.02937
121 1 12.4371 7.65067 -0.361751 12.4371 7.65067 -0.361751
122 2 14.3268 7.76431 1.3674 14.3268 7.76431 1.3674
123 2 14.3685 7.5862 -1.93482 14.3685 7.5862 -1.93482
124 1 15.3177 9.32705 -0.384018 15.3177 9.32705 -0.384018
125 2 17.0901 9.24492 1.28338 17.0901 9.24492 1.28338
126 2 17.4348 9.33083 -1.94316 17.4348 9.33083 -1.94316
127 1 18.1204 7.6136 -0.302416 18.1204 7.6136 -0.302416
128 2 20.0507 7.61678 1.44931 20.0507 7.61678 1.44931
129 2 20.1319 7.64503 -1.81008 20.1319 7.64503 -1.81008
130 1 21.0297 9.26787 -0.276087 21.0297 9.26787 -0.276087
131 2 22.9906 9.29216 1.45076 22.9906 9.29216 1.45076
132 2 22.9968 9.20292 -1.88372 22.9968 9.20292 -1.88372
133 1 23.8696 7.62633 -0.226843 23.8696 7.62633 -0.226843
134 2 25.8068 7.61401 1.41366 25.8068 7.61401 1.41366
135 2 25.7215 7.5578 -1.8143 25.7215 7.5578 -1.8143
136 1 26.7272 9.15855 -0.288076 26.7272 9.15855 -0.288076
137 2 28.6768 9.50002 1.27448 28.6768 9.50002 1.27448
138 2 28.5739 9.02125 -2.01663 28.5739 9.02125 -2.01663
139 1 29.5978 7.59695 -0.176453 29.5978 7.59695 -0.176453
140 2 31.5872 7.96825 1.09993 31.5872 7.96825 1.09993
141 2 31.2845 7.29678 -2.04754 31.2845 7.29678 -2.04754
142 1 32.3861 9.18283 -0.830783 32.3861 9.18283 -0.830783
143 2 34.2066 9.39943 1.01925 34.2066 9.39943 1.01925
144 2 34.3999 9.01632 -2.22649 34.3999 9.01632 -2.22649
145 1 35.2552 7.6345 -0.320163 35.2552 7.6345 -0.320163
146 2 37.3898 7.78122 1.01743 37.3898 7.78122 1.01743
147 2 36.9926 7.45931 -2.30084 36.9926 7.45931 -2.30084
148 1 38.0536 9.30044 -0.897689 38.0536 9.30044 -0.897689
149 2 39.9718 9.4265 0.642353 39.9718 9.4265 0.642353
150 2 39.9137 8.95985 -2.57661 39.9137 8.95985 -2.57661
151 1 40.9531 7.58152 -0.677208 40.9531 7.58152 -0.677208
152 2 42.9107 7.68366 0.888351 42.9107 7.68366 0.888351
153 2 42.9798 7.50178 -2.27529 42.9798 7.50178 -2.27529
154 1 43.8762 9.13291 -0.893897 43.8762 9.13291 -0.893897
155 2 45.8075 9.35216 0.642514 45.8075 9.35216 0.642514
156 2 45.7093 8.82868 -2.57721 45.7093 8.82868 -2.57721
157 1 46.706 7.5035 -0.685778 46.706 7.5035 -0.685778
158 2 48.7199 7.71333 0.851109 48.7199 7.71333 0.851109
159 2 48.5059 7.39284 -2.36305 48.5059 7.39284 -2.36305
160 1 49.5691 9.28442 -1.05193 49.5691 9.28442 -1.05193
161 2 51.4889 9.1794 0.578368 51.4889 9.1794 0.578368
162 2 51.3585 9.09287 -2.70485 51.3585 9.09287 -2.70485
163 1 0.930594 10.8128 -1.13558 0.930594 10.8128 -1.13558
164 2 2.75477 10.8119 0.579812 2.75477 10.8119 0.579812
165 2 3.01198 10.879 -2.64152 3.01198 10.879 -2.64152
166 1 3.78542 12.4629 -0.939822 3.78542 12.4629 -0.939822
167 2 5.65276 12.45 0.717908 5.65276 12.45 0.717908
168 2 5.6382 12.6492 -2.48347 5.6382 12.6492 -2.48347
169 1 6.74563 10.9102 -0.893637 6.74563 10.9102 -0.893637
170 2 8.38382 10.8402 0.923643 8.38382 10.8402 0.923643
171 2 8.77917 10.8223 -2.23329 8.77917 10.8223 -2.23329
172 1 9.53185 12.5184 -0.590454 9.53185 12.5184 -0.590454
173 2 11.3542 12.7177 1.3265 11.3542 12.7177 1.3265
174 2 11.5505 12.3938 -2.04355 11.5505 12.3938 -2.04355
175 1 12.4062 10.9373 -0.0888464 12.4062 10.9373 -0.0888464
176 2 14.4185 10.9028 1.35309 14.4185 10.9028 1.35309
177 2 14.2244 11.0493 -1.86406 14.2244 11.0493 -1.86406
178 1 15.3152 12.5452 -0.193844 15.3152 12.5452 -0.193844
179 2 17.2776 12.5753 1.47827 17.2776 12.5753 1.47827
180 2 17.2169 12.6148 -1.83402 17.2169 12.6148 -1.83402
181 1 18.1948 10.9409 -0.25102 18.1948 10.9409 -0.25102
182 2 19.989 11.0564 1.39444 19.989 11.0564 1.39444
183 2 20.1154 10.8572 -1.87691 20.1154 10.8572 -1.87691
184 1 20.9751 12.5964 -0.265687 20.9751 12.5964 -0.265687
185 2 22.9717 12.598 1.18974 22.9717 12.598 1.18974
186 2 22.8443 12.3417 -2.0711 22.8443 12.3417 -2.0711
187 1 23.865 10.854 -0.307126 23.865 10.854 -0.307126
188 2 25.784 10.8247 1.36473 25.784 10.8247 1.36473
189 2 25.7439 10.7608 -2.03628 25.7439 10.7608 -2.03628
190 1 26.7181 12.4898 -0.501998 26.7181 12.4898 -0.501998
191 2 28.6154 12.6846 1.05905 28.6154 12.6846 1.05905
192 2 28.4737 12.523 -2.28018 28.4737 12.523 -2.28018
193 1 29.5519 10.8946 -0.670967 29.5519 10.8946 -0.670967
194 2 31.5765 10.8593 0.846949 31.5765 10.8593 0.846949
195 2 31.4612 10.9439 -2.414 31.4612 10.9439 -2.414
196 1 32.3594 12.5719 -0.796598 32.3594 12.5719 -0.796598
197 2 34.266 12.6891 0.805318 34.266 12.6891 0.805318
198 2 34.2521 12.4158 -2.43013 34.2521 12.4158 -2.43013
199 1 35.1566 10.8833 -0.726271 35.1566 10.8833 -0.726271
200 2 37.0645 10.8548 0.758657 37.0645 10.8548 0.758657
201 2 36.9559 10.898 -2.45188 36.9559 10.898 -2.45188
202 1 38.0649 12.5093 -0.849291 38.0649 12.5093 -0.849291
203 2 40.1748 12.5266 0.457366 40.1748 12.5266 0.457366
204 2 39.7927 12.3774 -2.775 39.7927 12.3774 -2.775
205 1 40.9282 10.7581 -1.17733 40.9282 10.7581 -1.17733
206 2 42.8605 11.0423 0.461722 42.8605 11.0423 0.461722
207 2 42.7952 10.5495 -2.79072 42.7952 10.5495 -2.79072
208 1 43.8605 12.4544 -1.34926 43.8605 12.4544 -1.34926
209 2 45.7136 12.4174 0.255712 45.7136 12.4174 0.255712
210 2 45.7304 12.4261 -3.00597 45.7304 12.4261 -3.00597
211 1 46.7093 10.8352 -1.29654 46.7093 10.8352 -1.29654
212 2 48.5942 11.0304 0.426619 48.5942 11.0304 0.426619
213 2 48.7168 10.6946 -2.88401 48.7168 10.6946 -2.88401
214 1 49.5915 12.4918 -1.32068 49.5915 12.4918 -1.32068
215 2 51.3073 12.492 0.448441 51.3073 12.492 0.448441
216 2 51.5332 12.3808 -2.88526 51.5332 12.3808 -2.88526
217 1 1.04147 14.1643 -1.20585 1.04147 14.1643 -1.20585
218 2 2.79388 14.2442 0.61639 2.79388 14.2442 0.61639
219 2 2.88946 14.1323 -2.76486 2.88946 14.1323 -2.76486
220 1 3.78348 15.783 -1.11917 3.78348 15.783 -1.11917
221 2 5.39079 15.7175 0.780997 5.39079 15.7175 0.780997
222 2 5.89834 15.9153 -2.40798 5.89834 15.9153 -2.40798
223 1 6.57926 14.1768 -0.771426 6.57926 14.1768 -0.771426
224 2 8.34954 14.166 1.00541 8.34954 14.166 1.00541
225 2 8.67942 14.1969 -2.27344 8.67942 14.1969 -2.27344
226 1 9.5668 15.7313 -0.611782 9.5668 15.7313 -0.611782
227 2 11.2325 15.6624 1.226 11.2325 15.6624 1.226
228 2 11.6617 15.942 -2.07375 11.6617 15.942 -2.07375
229 1 12.4482 14.1679 -0.431651 12.4482 14.1679 -0.431651
230 2 14.1986 14.217 1.37728 14.1986 14.217 1.37728
231 2 14.5426 14.246 -1.88456 14.5426 14.246 -1.88456
232 1 15.3372 15.867 -0.112431 15.3372 15.867 -0.112431
233 2 17.2339 15.6481 1.53945 17.2339 15.6481 1.53945
234 2 17.2449 16.0505 -1.6739 17.2449 16.0505 -1.6739
235 1 18.161 14.2417 -0.192365 18.161 14.2417 -0.192365
236 2 19.9164 14.1943 1.48237 19.9164 14.1943 1.48237
237 2 19.9893 14.2123 -1.84006 19.9893 14.2123 -1.84006
238 1 20.9983 15.8803 -0.109315 20.9983 15.8803 -0.109315
239 2 23.0137 15.672 1.27356 23.0137 15.672 1.27356
240 2 22.6551 15.9984 -2.0112 22.6551 15.9984 -2.0112
241 1 23.8452 14.2108 -0.701295 23.8452 14.2108 -0.701295
242 2 25.6712 14.4308 0.928588 25.6712 14.4308 0.928588
243 2 25.8237 14.0311 -2.27446 25.8237 14.0311 -2.27446
244 1 26.6886 15.8879 -0.827856 26.6886 15.8879 -0.827856
245 2 28.4837 15.8602 0.921922 28.4837 15.8602 0.921922
246 2 28.7106 15.9879 -2.37696 28.7106 15.9879 -2.37696
247 1 29.5208 14.1958 -0.755216 29.5208 14.1958 -0.755216
248 2 31.4469 14.1661 0.81269 31.4469 14.1661 0.81269
249 2 31.4366 14.152 -2.39177 31.4366 14.152 -2.39177
250 1 32.4341 15.8795 -0.780465 32.4341 15.8795 -0.780465
251 2 34.2967 15.8881 0.74517 34.2967 15.8881 0.74517
252 2 34.2522 15.7859 -2.46941 34.2522 15.7859 -2.46941
253 1 35.2597 14.1957 -0.866547 35.2597 14.1957 -0.866547
254 2 37.2125 14.3657 0.652371 37.2125 14.3657 0.652371
255 2 37.1456 14.0917 -2.61848 37.1456 14.0917 -2.61848
256 1 38.1614 15.784 -1.0857 38.1614 15.784 -1.0857
257 2 40.218 15.5312 0.461461 40.218 15.5312 0.461461
258 2 39.9338 15.8864 -2.80506 39.9338 15.8864 -2.80506
259 1 41.0129 14.037 -1.35471 41.0129 14.037 -1.35471
260 2 42.9234 14.1856 0.253507 42.9234 14.1856 0.253507
261 2 42.8991 14.1656 -3.13864 42.8991 14.1656 -3.13864
262 1 43.7933 15.8005 -1.39591 43.7933 15.8005 -1.39591
263 2 45.6072 15.7299 0.358653 45.6072 15.7299 0.358653
264 2 45.7321 15.9293 -2.87386 45.7321 15.9293 -2.87386
265 1 46.573 14.1381 -1.30518 46.573 14.1381 -1.30518
266 2 48.6599 14.2075 0.284473 48.6599 14.2075 0.284473
267 2 48.518 13.9578 -3.03489 48.518 13.9578 -3.03489
268 1 49.545 15.697 -1.47288 49.545 15.697 -1.47288
269 2 51.2481 15.8726 0.380414 51.2481 15.8726 0.380414
270 2 51.5484 15.7424 -2.92888 51.5484 15.7424 -2.92888
271 1 0.981593 17.497 -1.19891 0.981593 17.497 -1.19891
272 2 2.83669 17.5309 0.454027 2.83669 17.5309 0.454027
273 2 3.03108 17.5175 -2.73848 3.03108 17.5175 -2.73848
274 1 3.93613 19.1409 -1.08414 3.93613 19.1409 -1.08414
275 2 5.52676 19.1076 0.898775 5.52676 19.1076 0.898775
276 2 5.95015 19.0334 -2.48238 5.95015 19.0334 -2.48238
277 1 6.65627 17.4383 -0.618832 6.65627 17.4383 -0.618832
278 2 8.54144 17.3742 1.05821 8.54144 17.3742 1.05821
279 2 8.68782 17.5221 -2.25533 8.68782 17.5221 -2.25533
280 1 9.58653 19.1187 -0.444128 9.58653 19.1187 -0.444128
281 2 11.3429 19.1623 1.42177 11.3429 19.1623 1.42177
282 2 11.6704 19.1176 -1.92628 11.6704 19.1176 -1.92628
283 1 12.2993 17.4257 -0.172656 12.2993 17.4257 -0.172656
284 2 14.1611 17.4677 1.5009 14.1611 17.4677 1.5009
285 2 14.3675 17.4984 -1.70226 14.3675 17.4984 -1.70226
286 1 15.2164 19.1481 -0.0467284 15.2164 19.1481 -0.0467284
287 2 17.1014 19.2153 1.66458 17.1014 19.2153 1.66458
288 2 17.316 19.1361 -1.54556 17.316 19.1361 -1.54556
289 1 18.1647 17.5725 0.167686 18.1647 17.5725 0.167686
290 2 20.2232 17.5243 1.68387 20.2232 17.5243 1.68387
291 2 19.936 17.5581 -1.63117 19.936 17.5581 -1.63117
292 1 21.0305 19.1812 -0.0212114 21.0305 19.1812 -0.0212114
293 2 22.957 18.8964 1.51934 22.957 18.8964 1.51934
294 2 22.8501 19.4089 -1.79159 22.8501 19.4089 -1.79159
295 1 23.8641 17.4686 -0.359973 23.8641 17.4686 -0.359973
296 2 25.8411 17.3737 1.10902 25.8411 17.3737 1.10902
297 2 25.5482 17.6489 -2.2215 25.5482 17.6489 -2.2215
298 1 26.587 19.1868 -0.590088 26.587 19.1868 -0.590088
299 2 28.483 18.9873 1.04139 28.483 18.9873 1.04139
300 2 28.5101 19.2801 -2.2007 28.5101 19.2801 -2.2007
301 1 29.5971 17.5603 -0.71435 29.5971 17.5603 -0.71435
302 2 31.4792 17.4685 0.949342 31.4792 17.4685 0.949342
303 2 31.5077 17.6967 -2.30908 31.5077 17.6967 -2.30908
304 1 32.425 19.1945 -0.572515 32.425 19.1945 -0.572515
305 2 34.3337 19.0351 0.987279 34.3337 19.0351 0.987279
306 2 34.3756 19.2421 -2.25455 34.3756 19.2421 -2.25455
307 1 35.3014 17.487 -0.739613 35.3014 17.487 -0.739613
308 2 37.305 17.3988 0.727968 37.305 17.3988 0.727968
309 2 36.9971 17.5416 -2.50418 36.9971 17.5416 -2.50418
310 1 38.0513 19.1751 -0.908009 38.0513 19.1751 -0.908009
311 2 39.9561 18.7472 0.715118 39.9561 18.7472 0.715118
312 2 39.9312 19.2802 -2.61229 39.9312 19.2802 -2.61229
313 1 40.9196 17.3737 -1.06076 40.9196 17.3737 -1.06076
314 2 42.899 17.1494 0.395185 42.899 17.1494 0.395185
315 2 42.7964 17.6087 -2.6757 42.7964 17.6087 -2.6757
316 1 43.9291 19.0361 -0.936712 43.9291 19.0361 -0.936712
317 2 45.7811 19.0419 0.629837 45.7811 19.0419 0.629837
318 2 45.7758 19.1873 -2.62322 45.7758 19.1873 -2.62322
319 1 46.6966 17.4337 -1.0956 46.6966 17.4337 -1.0956
320 2 48.7435 17.3651 0.344896 48.7435 17.3651 0.344896
321 2 48.4371 17.4787 -2.87922 48.4371 17.4787 -2.87922
322 1 49.5782 19.0556 -1.28191 49.5782 19.0556 -1.28191
323 2 51.3188 18.9664 0.551694 51.3188 18.9664 0.551694
324 2 51.5591 19.242 -2.7042 51.5591 19.242 -2.7042
325 1 0.933975 20.7097 -0.879264 0.933975 20.7097 -0.879264
326 2 2.84973 20.5471 0.722849 2.84973 20.5471 0.722849
327 2 2.90217 20.9714 -2.49775 2.90217 20.9714 -2.49775
328 1 3.903 22.379 -0.63625 3.903 22.379 -0.63625
329 2 5.76132 22.3299 0.929921 5.76132 22.3299 0.929921
330 2 5.72108 22.4205 -2.32565 5.72108 22.4205 -2.32565
331 1 6.67941 20.6728 -0.669465 6.67941 20.6728 -0.669465
332 2 8.48863 20.7158 1.12803 8.48863 20.7158 1.12803
333 2 8.67587 20.7472 -2.13723 8.67587 20.7472 -2.13723
334 1 9.52813 22.4377 -0.456567 9.52813 22.4377 -0.456567
335 2 11.2615 22.4575 1.399 11.2615 22.4575 1.399
336 2 11.6296 22.4213 -1.89939 11.6296 22.4213 -1.89939
337 1 12.4686 20.8259 -0.175655 12.4686 20.8259 -0.175655
338 2 14.1838 20.8968 1.50793 14.1838 20.8968 1.50793
339 2 14.3604 20.7684 -1.68929 14.3604 20.7684 -1.68929
340 1 15.268 22.4841 -0.0997798 15.268 22.4841 -0.0997798
341 2 16.9206 22.3817 1.71572 16.9206 22.3817 1.71572
342 2 17.391 22.4555 -1.47864 17.391 22.4555 -1.47864
343 1 18.1072 20.8196 0.108309 18.1072 20.8196 0.108309
344 2 20.0811 20.7402 1.72734 20.0811 20.7402 1.72734
345 2 20.0842 20.9035 -1.55462 20.0842 20.9035 -1.55462
346 1 21.0627 22.4772 0.23204 21.0627 22.4772 0.23204
347 2 23.1098 22.5099 1.72427 23.1098 22.5099 1.72427
348 2 22.8378 22.5601 -1.54429 22.8378 22.5601 -1.54429
349 1 23.8101 20.8264 -0.0223408 23.8101 20.8264 -0.0223408
350 2 25.9935 20.7122 1.24998 25.9935 20.7122 1.24998
351 2 25.3496 20.9361 -2.00314 25.3496 20.9361 -2.00314
352 1 26.5942 22.423 -0.445917 26.5942 22.423 -0.445917
353 2 28.524 22.431 1.26515 28.524 22.431 1.26515
354 2 28.5613 22.4299 -2.01282 28.5613 22.4299 -2.01282
355 1 29.5131 20.868 -0.374851 29.5131 20.868 -0.374851
356 2 31.5608 20.7854 1.13842 31.5608 20.7854 1.13842
357 2 31.2728 20.7727 -2.10528 31.2728 20.7727 -2.10528
358 1 32.2884 22.3846 -0.481192 32.2884 22.3846 -0.481192
359 2 34.1575 22.2628 1.17373 34.1575 22.2628 1.17373
360 2 34.3445 22.6768 -1.96801 34.3445 22.6768 -1.96801
361 1 35.2462 20.7465 -0.592437 35.2462 20.7465 -0.592437
362 2 37.2235 20.5549 0.872492 37.2235 20.5549 0.872492
363 2 37.155 21.0137 -2.31603 37.155 21.0137 -2.31603
364 1 38.1463 22.3963 -0.466807 38.1463 22.3963 -0.466807
365 2 40.1182 22.3107 1.08332 40.1182 22.3107 1.08332
366 2 39.8986 22.5 -2.21858 39.8986 22.5 -2.21858
367 1 40.9013 20.6855 -0.758788 40.9013 20.6855 -0.758788
368 2 42.8402 20.5255 0.952337 42.8402 20.5255 0.952337
369 2 42.893 20.8839 -2.27761 42.893 20.8839 -2.27761
370 1 43.7975 22.3817 -0.411657 43.7975 22.3817 -0.411657
371 2 45.9796 22.2707 0.949611 45.9796 22.2707 0.949611
372 2 45.4729 22.4086 -2.25105 45.4729 22.4086 -2.25105
373 1 46.7019 20.696 -0.901966 46.7019 20.696 -0.901966
374 2 48.7281 20.5045 0.598504 48.7281 20.5045 0.598504
375 2 48.6195 20.931 -2.57616 48.6195 20.931 -2.57616
376 1 49.5781 22.3577 -0.778482 49.5781 22.3577 -0.778482
377 2 51.4419 22.3524 0.803414 51.4419 22.3524 0.803414
378 2 51.3793 22.3714 -2.49922 51.3793 22.3714 -2.49922
379 1 0.92741 24.0359 -0.864978 0.92741 24.0359 -0.864978
380 2 2.73815 23.9945 0.855906 2.73815 23.9945 0.855906
381 2 3.01735 23.9724 -2.27902 3.01735 23.9724 -2.27902
382 1 3.88605 25.6649 -0.625869 3.88605 25.6649 -0.625869
383 2 5.71751 25.4577 1.10717 5.71751 25.4577 1.10717
384 2 5.92406 25.9789 -2.08152 5.92406 25.9789 -2.08152
385 1 6.76529 24.0421 -0.73033 6.76529 24.0421 -0.73033
386 2 8.53576 24.0366 1.07677 8.53576 24.0366 1.07677
387 2 8.86525 24.0962 -2.13228 8.86525 24.0962 -2.13228
388 1 9.66034 25.7147 -0.340188 9.66034 25.7147 -0.340188
389 2 11.3682 25.6937 1.43687 11.3682 25.6937 1.43687
390 2 11.7025 25.8125 -1.82469 11.7025 25.8125 -1.82469
391 1 12.4701 24.0649 -0.227057 12.4701 24.0649 -0.227057
392 2 14.3814 24.1602 1.45711 14.3814 24.1602 1.45711
393 2 14.3726 23.9229 -1.79192 14.3726 23.9229 -1.79192
394 1 15.2948 25.7178 -0.215955 15.2948 25.7178 -0.215955
395 2 16.9317 25.8512 1.68339 16.9317 25.8512 1.68339
396 2 17.4477 25.6118 -1.49051 17.4477 25.6118 -1.49051
397 1 18.1715 24.071 0.295103 18.1715 24.071 0.295103
398 2 20.1038 24.0365 1.87546 20.1038 24.0365 1.87546
399 2 20.072 24.0848 -1.42238 20.072 24.0848 -1.42238
400 1 21.0271 25.7111 0.173369 21.0271 25.7111 0.173369
401 2 22.9688 25.8626 1.65359 22.9688 25.8626 1.65359
402 2 22.7994 25.7893 -1.49496 22.7994 25.7893 -1.49496
403 1 23.9343 24.1821 0.0668931 23.9343 24.1821 0.0668931
404 2 25.9371 23.9387 1.44874 25.9371 23.9387 1.44874
405 2 25.4877 24.2979 -1.79824 25.4877 24.2979 -1.79824
406 1 26.7108 25.7592 -0.162897 26.7108 25.7592 -0.162897
407 2 28.5656 25.4918 1.51182 28.5656 25.4918 1.51182
408 2 28.6756 25.9455 -1.82856 28.6756 25.9455 -1.82856
409 1 29.3894 24.1005 -0.357459 29.3894 24.1005 -0.357459
410 2 31.4334 23.9641 1.2798 31.4334 23.9641 1.2798
411 2 31.3921 24.2383 -1.9793 31.3921 24.2383 -1.9793
412 1 32.3837 25.6823 -0.386109 32.3837 25.6823 -0.386109
413 2 34.1559 25.6962 1.37596 34.1559 25.6962 1.37596
414 2 34.3562 25.8062 -1.80925 34.3562 25.8062 -1.80925
415 1 35.2721 24.0797 -0.158382 35.2721 24.0797 -0.158382
416 2 37.185 23.9427 1.3863 37.185 23.9427 1.3863
417 2 37.07 24.1996 -1.86832 37.07 24.1996 -1.86832
418 1 38.1518 25.7537 -0.165775 38.1518 25.7537 -0.165775
419 2 40.2225 25.7997 1.33811 40.2225 25.7997 1.33811
420 2 39.8307 25.7246 -1.94851 39.8307 25.7246 -1.94851
421 1 40.9179 24.0882 -0.504727 40.9179 24.0882 -0.504727
422 2 42.8498 24.26 1.15134 42.8498 24.26 1.15134
423 2 42.8527 23.9391 -2.14725 42.8527 23.9391 -2.14725
424 1 43.8673 25.7081 -0.713158 43.8673 25.7081 -0.713158
425 2 45.7598 25.5142 0.977275 45.7598 25.5142 0.977275
426 2 45.8012 25.9022 -2.2848 45.8012 25.9022 -2.2848
427 1 46.6939 24.0009 -0.852579 46.6939 24.0009 -0.852579
428 2 48.4093 23.8391 0.948656 48.4093 23.8391 0.948656
429 2 48.6494 24.1139 -2.34419 48.6494 24.1139 -2.34419
430 1 49.5435 25.6908 -0.630387 49.5435 25.6908 -0.630387
431 2 51.4524 25.4707 0.973435 51.4524 25.4707 0.973435
432 2 51.3845 25.828 -2.31619 51.3845 25.828 -2.31619
433 1 0.964434 27.3346 -0.568469 0.964434 27.3346 -0.568469
434 2 2.86144 27.237 1.02704 2.86144 27.237 1.02704
435 2 2.8394 27.3405 -2.17375 2.8394 27.3405 -2.17375
436 1 3.88612 28.9844 -0.493304 3.88612 28.9844 -0.493304
437 2 5.47445 28.9233 1.42908 5.47445 28.9233 1.42908
438 2 6.06614 29.1425 -1.80365 6.06614 29.1425 -1.80365
439 1 6.75669 27.2894 -0.160435 6.75669 27.2894 -0.160435
440 2 8.66444 27.1911 1.43511 8.66444 27.1911 1.43511
441 2 8.68202 27.5298 -1.78368 8.68202 27.5298 -1.78368
442 1 9.56678 28.987 -0.00712025 9.56678 28.987 -0.00712025
443 2 11.3695 28.8397 1.73448 11.3695 28.8397 1.73448
444 2 11.4928 29.2175 -1.51869 11.4928 29.2175 -1.51869
445 1 12.4926 27.4297 -0.0981271 12.4926 27.4297 -0.0981271
446 2 14.3571 27.222 1.56521 14.3571 27.222 1.56521
447 2 14.3462 27.5224 -1.66819 14.3462 27.5224 -1.66819
448 1 15.3247 29.0456 0.156988 15.3247 29.0456 0.156988
449 2 17.154 28.9566 1.81383 17.154 28.9566 1.81383
450 2 17.2146 28.975 -1.46569 17.2146 28.975 -1.46569
451 1 18.1929 27.3516 0.151955 18.1929 27.3516 0.151955
452 2 20.0127 27.2659 1.80267 20.0127 27.2659 1.80267
453 2 20.128 27.4403 -1.44634 20.128 27.4403 -1.44634
454 1 21.0838 29.0714 0.283291 21.0838 29.0714 0.283291
455 2 23.0079 28.8508 1.94744 23.0079 28.8508 1.94744
456 2 22.9742 29.2533 -1.32061 22.9742 29.2533 -1.32061
457 1 23.9216 27.4336 0.120457 23.9216 27.4336 0.120457
458 2 25.7232 27.2029 1.77906 25.7232 27.2029 1.77906
459 2 25.7286 27.5744 -1.51387 25.7286 27.5744 -1.51387
460 1 26.8424 29.0058 0.320414 26.8424 29.0058 0.320414
461 2 28.7546 28.8229 1.88207 28.7546 28.8229 1.88207
462 2 28.7342 29.2106 -1.35346 28.7342 29.2106 -1.35346
463 1 29.6116 27.3907 0.12907 29.6116 27.3907 0.12907
464 2 31.5824 27.2299 1.51167 31.5824 27.2299 1.51167
465 2 31.3594 27.4766 -1.64024 31.3594 27.4766 -1.64024
466 1 32.4298 29.0216 0.0881654 32.4298 29.0216 0.0881654
467 2 34.4109 28.8703 1.67078 34.4109 28.8703 1.67078
468 2 34.2484 28.942 -1.61002 34.2484 28.942 -1.61002
469 1 35.2982 27.3001 -0.0749202 35.2982 27.3001 -0.0749202
470 2 37.2263 27.3156 1.44036 37.2263 27.3156 1.44036
471 2 37.1167 27.2465 -1.8066 37.1167 27.2465 -1.8066
472 1 38.1049 28.9479 -0.189705 38.1049 28.9479 -0.189705
473 2 40.2292 28.9513 1.20573 40.2292 28.9513 1.20573
474 2 39.9338 28.8763 -1.93028 39.9338 28.8763 -1.93028
475 1 41.0767 27.2984 -0.40118 41.0767 27.2984 -0.40118
476 2 43.0056 27.1978 1.19929 43.0056 27.1978 1.19929
477 2 42.8125 27.611 -2.08052 42.8125 27.611 -2.08052
478 1 43.8646 28.9991 -0.281103 43.8646 28.9991 -0.281103
479 2 45.8653 28.9033 1.23911 45.8653 28.9033 1.23911
480 2 45.6142 29.0627 -2.01909 45.6142 29.0627 -2.01909
481 1 46.6888 27.377 -0.521654 46.6888 27.377 -0.521654
482 2 48.6466 27.1146 1.11138 48.6466 27.1146 1.11138
483 2 48.569 27.4837 -2.10347 48.569 27.4837 -2.10347
484 1 49.5988 28.9828 -0.34927 49.5988 28.9828 -0.34927
485 2 51.6038 28.9052 1.21069 51.6038 28.9052 1.21069
486 2 51.4198 29.0786 -2.16642 51.4198 29.0786 -2.16642
487 1 1.0811 30.663 -0.441355 1.0811 30.663 -0.441355
488 2 2.94037 30.5471 1.26637 2.94037 30.5471 1.26637
489 2 3.04503 30.8444 -2.00836 3.04503 30.8444 -2.00836
490 1 3.89483 32.3243 -0.237792 3.89483 32.3243 -0.237792
491 2 5.58638 32.3686 1.58277 5.58638 32.3686 1.58277
492 2 5.86425 32.2467 -1.66984 5.86425 32.2467 -1.66984
493 1 6.77888 30.6997 0.146324 6.77888 30.6997 0.146324
494 2 8.69484 30.5181 1.6738 8.69484 30.5181 1.6738
495 2 8.63351 30.7522 -1.469 8.63351 30.7522 -1.469
496 1 9.64163 32.3393 0.250943 9.64163 32.3393 0.250943
497 2 11.4519 32.26 2.01525 11.4519 32.26 2.01525
498 2 11.6484 32.5054 -1.21344 11.6484 32.5054 -1.21344
499 1 12.4316 30.6494 0.275567 12.4316 30.6494 0.275567
500 2 14.396 30.517 1.97972 14.396 30.517 1.97972
501 2 14.3177 30.7894 -1.28715 14.3177 30.7894 -1.28715
502 1 15.3204 32.3463 0.381914 15.3204 32.3463 0.381914
503 2 17.3132 32.169 1.90426 17.3132 32.169 1.90426
504 2 17.2132 32.3823 -1.32957 17.2132 32.3823 -1.32957
505 1 18.1912 30.6907 0.183848 18.1912 30.6907 0.183848
506 2 19.9044 30.489 1.99806 19.9044 30.489 1.99806
507 2 20.2418 30.9021 -1.27631 20.2418 30.9021 -1.27631
508 1 21.0324 32.3663 0.530419 21.0324 32.3663 0.530419
509 2 22.9132 32.2431 2.18727 22.9132 32.2431 2.18727
510 2 22.9773 32.3215 -1.16597 22.9773 32.3215 -1.16597
511 1 23.9112 30.6977 0.503904 23.9112 30.6977 0.503904
512 2 25.9087 30.5478 2.07948 25.9087 30.5478 2.07948
513 2 25.7674 30.7697 -1.16784 25.7674 30.7697 -1.16784
514 1 26.7687 32.2661 0.488864 26.7687 32.2661 0.488864
515 2 28.7797 32.3273 2.11939 28.7797 32.3273 2.11939
516 2 28.5752 32.3477 -1.22828 28.5752 32.3477 -1.22828
517 1 29.6284 30.6954 0.459028 29.6284 30.6954 0.459028
518 2 31.6539 30.6421 1.93197 31.6539 30.6421 1.93197
519 2 31.3461 30.8117 -1.37314 31.3461 30.8117 -1.37314
520 1 32.4299 32.3452 0.310076 32.4299 32.3452 0.310076
521 2 34.5052 32.1326 1.74024 34.5052 32.1326 1.74024
522 2 34.2086 32.4728 -1.46778 34.2086 32.4728 -1.46778
523 1 35.2895 30.5642 -0.0935222 35.2895 30.5642 -0.0935222
524 2 37.1265 30.5452 1.50227 37.1265 30.5452 1.50227
525 2 37.1475 30.6011 -1.70311 37.1475 30.6011 -1.70311
526 1 38.1108 32.2431 -0.00640715 38.1108 32.2431 -0.00640715
527 2 40.0483 32.1476 1.53962 40.0483 32.1476 1.53962
528 2 39.9551 32.3478 -1.77066 39.9551 32.3478 -1.77066
529 1 40.9778 30.6094 -0.346102 40.9778 30.6094 -0.346102
530 2 42.9082 30.7146 1.331 42.9082 30.7146 1.331
531 2 42.9052 30.6179 -1.94114 42.9052 30.6179 -1.94114
532 1 43.8271 32.35 -0.292355 43.8271 32.35 -0.292355
533 2 45.7414 32.3073 1.31118 45.7414 32.3073 1.31118
534 2 45.7319 32.3096 -2.04999 45.7319 32.3096 -2.04999
535 1 46.7117 30.6855 -0.416792 46.7117 30.6855 -0.416792
536 2 48.6695 30.6554 1.22263 48.6695 30.6554 1.22263
537 2 48.6988 30.7004 -2.05859 48.6988 30.7004 -2.05859