ITEM: TIMESTEP
73300
ITEM: NUMBER OF ATOMS
810
ITEM: BOX BOUNDS pp pp pp
8.4024403791851499e-01 5.2177360962081643e+01
7.9333847486037745e-01 5.0222876525138965e+01
-1.0000000000000000e+01 1.0000000000000000e+01
ITEM: ATOMS id type x y z xu yu zu
1 1 1.0308 1.07143 -0.968133 1.0308 1.07143 -0.968133
2 2 2.97984 1.33013 0.860946 2.97984 1.33013 0.860946
3 2 3.0547 0.84664 -2.35352 3.0547 0.84664 -2.35352
4 1 3.95878 2.68602 -0.938215 3.95878 2.68602 -0.938215
5 2 5.83195 2.85663 0.819003 5.83195 2.85663 0.819003
6 2 5.89753 2.59248 -2.49782 5.89753 2.59248 -2.49782
7 1 6.86493 1.07325 -0.608667 6.86493 1.07325 -0.608667
8 2 8.78963 1.14737 1.11004 8.78963 1.14737 1.11004
9 2 8.70823 0.909634 -2.19928 8.70823 0.909634 -2.19928
10 1 9.74312 2.637 -0.611987 9.74312 2.637 -0.611987
11 2 11.5945 2.67462 1.0761 11.5945 2.67462 1.0761
12 2 11.678 2.76552 -2.23881 11.678 2.76552 -2.23881
13 1 12.4547 0.991848 -0.623569 12.4547 0.991848 -0.623569
14 2 14.1717 0.866998 1.1853 14.1717 0.866998 1.1853
15 2 14.3759 0.971677 -2.14444 14.3759 0.971677 -2.14444
16 1 15.3042 2.65105 -0.301046 15.3042 2.65105 -0.301046
17 2 17.3379 2.60561 1.23064 17.3379 2.60561 1.23064
18 2 17.1979 2.81664 -2.06685 17.1979 2.81664 -2.06685
19 1 18.1097 0.988 -0.600924 18.1097 0.988 -0.600924
20 2 19.9946 1.04636 0.973086 19.9946 1.04636 0.973086
21 2 20.1856 0.967742 -2.19664 20.1856 0.967742 -2.19664
22 1 21.054 2.65262 -0.507782 21.054 2.65262 -0.507782
23 2 22.78 2.60962 1.3 22.78 2.60962 1.3
24 2 23.1138 2.5586 -1.89949 23.1138 2.5586 -1.89949
25 1 23.9328 0.949414 -0.307757 23.9328 0.949414 -0.307757
26 2 25.5881 1.11098 1.50347 25.5881 1.11098 1.50347
27 2 25.8264 0.755249 -1.80944 25.8264 0.755249 -1.80944
28 1 26.6958 2.53244 -0.2705 26.6958 2.53244 -0.2705
29 2 28.6524 2.76128 1.18209 28.6524 2.76128 1.18209
30 2 28.6465 2.30824 -2.03544 28.6465 2.30824 -2.03544
31 1 29.6514 0.912942 -0.206854 29.6514 0.912942 -0.206854
32 2 31.6861 1.23966 1.19441 31.6861 1.23966 1.19441
33 2 31.3965 0.909676 -2.0362 31.3965 0.909676 -2.0362
34 1 32.4272 2.71786 -0.734858 32.4272 2.71786 -0.734858
35 2 34.2986 2.67591 0.91508 34.2986 2.67591 0.91508
36 2 34.3381 2.7498 -2.32549 34.3381 2.7498 -2.32549
37 1 35.2698 0.983251 -0.663715 35.2698 0.983251 -0.663715
38 2 37.0616 1.02031 0.964201 37.0616 1.02031 0.964201
39 2 37.3429 1.04899 -2.31596 37.3429 1.04899 -2.31596
40 1 38.0668 2.63464 -0.67494 38.0668 2.63464 -0.67494
41 2 40.0019 2.70894 0.930223 40.0019 2.70894 0.930223
42 2 39.9793 2.6102 -2.28428 39.9793 2.6102 -2.28428
43 1 40.9178 0.983882 -0.732047 40.9178 0.983882 -0.732047
44 2 43.0454 0.947822 0.785754 43.0454 0.947822 0.785754
45 2 42.6952 0.981928 -2.49115 42.6952 0.981928 -2.49115
46 1 43.758 2.66346 -0.928538 43.758 2.66346 -0.928538
47 2 45.8273 2.62959 0.484369 45.8273 2.62959 0.484369
48 2 45.407 2.85658 -2.71945 45.407 2.85658 -2.71945
49 1 46.6629 1.0104 -1.30514 46.6629 1.0104 -1.30514
50 2 48.3511 1.2495 0.460037 48.3511 1.2495 0.460037
51 2 48.6866 0.812182 -2.8024 48.6866 0.812182 -2.8024
52 1 49.4549 2.72025 -1.26869 49.4549 2.72025 -1.26869
53 2 51.2426 2.79843 0.485166 51.2426 2.79843 0.485166
54 2 51.514 2.73558 -2.81081 51.514 2.73558 -2.81081
55 1 1.04169 4.29065 -1.05871 1.04169 4.29065 -1.05871
56 2 3.02751 4.45248 0.550864 3.02751 4.45248 0.550864
57 2 2.865 4.12431 -2.74154 2.865 4.12431 -2.74154
58 1 3.87399 5.9105 -1.21644 3.87399 5.9105 -1.21644
59 2 5.50369 5.80137 0.622183 5.50369 5.80137 0.622183
60 2 5.91463 5.91404 -2.64184 5.91463 5.91404 -2.64184
61 1 6.72966 4.20991 -1.00184 6.72966 4.20991 -1.00184
62 2 8.55889 4.23368 0.816774 8.55889 4.23368 0.816774
63 2 8.77281 4.17567 -2.39718 8.77281 4.17567 -2.39718
64 1 9.65395 5.98665 -0.759761 9.65395 5.98665 -0.759761
65 2 11.3754 5.98132 1.09396 11.3754 5.98132 1.09396
66 2 11.7601 6.03602 -2.1405 11.7601 6.03602 -2.1405
67 1 12.5284 4.26507 -0.437952 12.5284 4.26507 -0.437952
68 2 14.3137 4.21608 1.35433 14.3137 4.21608 1.35433
69 2 14.395 4.35338 -1.97763 14.395 4.35338 -1.97763
70 1 15.3171 5.94453 -0.278181 15.3171 5.94453 -0.278181
71 2 17.1705 5.73468 1.39044 17.1705 5.73468 1.39044
72 2 17.3947 6.04394 -1.781 17.3947 6.04394 -1.781
73 1 18.1259 4.30205 -0.288052 18.1259 4.30205 -0.288052
74 2 20.0589 4.08774 1.23299 20.0589 4.08774 1.23299
75 2 20.1427 4.41066 -1.95384 20.1427 4.41066 -1.95384
76 1 21.0515 5.90091 -0.137904 21.0515 5.90091 -0.137904
77 2 22.9091 5.90819 1.5507 22.9091 5.90819 1.5507
78 2 22.922 5.94928 -1.74685 22.922 5.94928 -1.74685
79 1 23.8841 4.28624 -0.261198 23.8841 4.28624 -0.261198
80 2 25.8902 4.23981 1.30967 25.8902 4.23981 1.30967
81 2 25.8004 4.1878 -1.85781 25.8004 4.1878 -1.85781
82 1 26.7578 5.86541 -0.381978 26.7578 5.86541 -0.381978
83 2 28.77 5.85423 1.18813 28.77 5.85423 1.18813
84 2 28.5452 5.8439 -2.16479 28.5452 5.8439 -2.16479
85 1 29.5592 4.18826 -0.612835 29.5592 4.18826 -0.612835
86 2 31.5387 4.21302 1.00501 31.5387 4.21302 1.00501
87 2 31.434 4.35786 -2.32896 31.434 4.35786 -2.32896
88 1 32.4135 5.9986 -0.665335 32.4135 5.9986 -0.665335
89 2 34.2287 5.89313 1.09075 34.2287 5.89313 1.09075
90 2 34.4755 6.24396 -2.09744 34.4755 6.24396 -2.09744
91 1 35.2417 4.37563 -0.667584 35.2417 4.37563 -0.667584
92 2 37.1304 4.33259 0.928697 37.1304 4.33259 0.928697
93 2 37.1806 4.37156 -2.32025 37.1806 4.37156 -2.32025
94 1 38.1129 5.97874 -0.587046 38.1129 5.97874 -0.587046
95 2 39.9768 5.7742 1.00207 39.9768 5.7742 1.00207
96 2 39.9715 6.05534 -2.24051 39.9715 6.05534 -2.24051
97 1 40.8323 4.30094 -0.778658 40.8323 4.30094 -0.778658
98 2 42.7868 4.1654 0.816213 42.7868 4.1654 0.816213
99 2 42.8063 4.35435 -2.34887 42.8063 4.35435 -2.34887
100 1 43.7065 5.95947 -0.716958 43.7065 5.95947 -0.716958
101 2 45.7853 5.79833 0.737059 45.7853 5.79833 0.737059
102 2 45.4968 6.09975 -2.40557 45.4968 6.09975 -2.40557
103 1 46.6187 4.36731 -1.10707 46.6187 4.36731 -1.10707
104 2 48.493 4.28854 0.482091 48.493 4.28854 0.482091
105 2 48.5942 4.40249 -2.70013 48.5942 4.40249 -2.70013
106 1 49.5877 5.93958 -0.984901 49.5877 5.93958 -0.984901
107 2 51.4668 5.85038 0.645943 51.4668 5.85038 0.645943
108 2 51.4664 6.11568 -2.53779 51.4664 6.11568 -2.53779
109 1 1.01134 7.60419 -0.868688 1.01134 7.60419 -0.868688
110 2 2.94955 7.37315 0.572843 2.94955 7.37315 0.572843
111 2 2.86908 7.76607 -2.61426 2.86908 7.76607 -2.61426
112 1 3.84036 9.19048 -0.834127 3.84036 9.19048 -0.834127
113 2 5.66697 9.08907 0.896016 5.66697 9.08907 0.896016
114 2 5.7722 9.22882 -2.44889 5.7722 9.22882 -2.44889
115 1 6.73201 7.54207 -0.824577 6.73201 7.54207 -0.824577
116 2 8.48001 7.42917 0.929223 8.48001 7.42917 0.929223
117 2 8.7386 7.71531 -2.38554 8.7386 7.71531 -2.38554
118 1 9.64005 9.20647 -0.558574 9.64005 9.20647 -0.558574
119 2 11.2854 9.12261 1.23829 11.2854 9.12261 1.23829
120 2 11.66 9.30023 -2.03272 11.66 9.30023 -2.03272
121 1 12.4764 7.5908 -0.379721 12.4764 7.5908 -0.379721
122 2 14.2719 7.46963 1.39629 14.2719 7.46963 1.39629
123 2 14.4532 7.72627 -1.89329 14.4532 7.72627 -1.89329
124 1 15.2658 9.25579 -0.164182 15.2658 9.25579 -0.164182
125 2 17.1963 9.18936 1.573 17.1963 9.18936 1.573
126 2 17.3417 9.19886 -1.67466 17.3417 9.19886 -1.67466
127 1 18.1205 7.54335 -0.0437783 18.1205 7.54335 -0.0437783
128 2 19.9725 7.47513 1.58636 19.9725 7.47513 1.58636
129 2 20.0519 7.61815 -1.70092 20.0519 7.61815 -1.70092
130 1 21.0117 9.20678 0.0155506 21.0117 9.20678 0.0155506
131 2 22.9836 9.29558 1.58385 22.9836 9.29558 1.58385
132 2 22.8727 9.13187 -1.68179 22.8727 9.13187 -1.68179
133 1 23.8329 7.55497 0.0142234 23.8329 7.55497 0.0142234
134 2 25.9238 7.48554 1.43871 25.9238 7.48554 1.43871
135 2 25.6226 7.6468 -1.76697 25.6226 7.6468 -1.76697
136 1 26.779 9.15734 -0.196162 26.779 9.15734 -0.196162
137 2 28.7913 9.223 1.19898 28.7913 9.223 1.19898
138 2 28.5311 9.14283 -2.03024 28.5311 9.14283 -2.03024
139 1 29.657 7.53988 -0.469481 29.657 7.53988 -0.469481
140 2 31.653 7.51857 1.14031 31.653 7.51857 1.14031
141 2 31.4469 7.67078 -2.13862 31.4469 7.67078 -2.13862
142 1 32.5005 9.25763 -0.369259 32.5005 9.25763 -0.369259
143 2 34.3066 9.3255 1.31134 34.3066 9.3255 1.31134
144 2 34.4408 9.21966 -2.04766 34.4408 9.21966 -2.04766
145 1 35.27 7.65579 -0.272401 35.27 7.65579 -0.272401
146 2 37.2987 7.54303 1.21493 37.2987 7.54303 1.21493
147 2 37.106 7.79931 -2.07587 37.106 7.79931 -2.07587
148 1 38.0685 9.29428 -0.367035 38.0685 9.29428 -0.367035
149 2 40.0565 9.27469 1.18813 40.0565 9.27469 1.18813
150 2 39.953 9.23956 -2.08672 39.953 9.23956 -2.08672
151 1 40.9187 7.65145 -0.44076 40.9187 7.65145 -0.44076
152 2 43.0753 7.68393 1.0547 43.0753 7.68393 1.0547
153 2 42.6399 7.69889 -2.25312 42.6399 7.69889 -2.25312
154 1 43.7765 9.29043 -0.81282 43.7765 9.29043 -0.81282
155 2 45.5867 9.12989 0.817002 45.5867 9.12989 0.817002
156 2 45.8087 9.26132 -2.35721 45.8087 9.26132 -2.35721
157 1 46.631 7.57857 -0.806948 46.631 7.57857 -0.806948
158 2 48.5954 7.41034 0.794991 48.5954 7.41034 0.794991
159 2 48.565 7.70223 -2.48166 48.565 7.70223 -2.48166
160 1 49.508 9.29174 -0.63958 49.508 9.29174 -0.63958
161 2 51.5118 9.19595 0.848206 51.5118 9.19595 0.848206
162 2 51.2289 9.38454 -2.38082 51.2289 9.38454 -2.38082
163 1 1.00405 10.9115 -0.71882 1.00405 10.9115 -0.71882
164 2 2.92438 10.7724 0.966387 2.92438 10.7724 0.966387
165 2 2.955 10.9207 -2.33935 2.955 10.9207 -2.33935
166 1 3.88942 12.5425 -0.673129 3.88942 12.5425 -0.673129
167 2 5.63073 12.2737 1.13824 5.63073 12.2737 1.13824
168 2 5.95065 12.7198 -2.10072 5.95065 12.7198 -2.10072
169 1 6.74658 10.8016 -0.696076 6.74658 10.8016 -0.696076
170 2 8.49141 10.559 1.22968 8.49141 10.559 1.22968
171 2 8.76168 11.0423 -2.14678 8.76168 11.0423 -2.14678
172 1 9.57814 12.4469 -0.136164 9.57814 12.4469 -0.136164
173 2 11.2969 12.4612 1.58379 11.2969 12.4612 1.58379
174 2 11.6179 12.5633 -1.61484 11.6179 12.5633 -1.61484
175 1 12.4825 10.8866 -0.0859475 12.4825 10.8866 -0.0859475
176 2 14.3793 10.7255 1.57281 14.3793 10.7255 1.57281
177 2 14.4689 11.0363 -1.66923 14.4689 11.0363 -1.66923
178 1 15.3939 12.4867 0.143221 15.3939 12.4867 0.143221
179 2 17.2012 12.4247 1.80143 17.2012 12.4247 1.80143
180 2 17.2763 12.7039 -1.51383 17.2763 12.7039 -1.51383
181 1 18.1457 10.8411 0.127304 18.1457 10.8411 0.127304
182 2 20.0702 10.6523 1.83986 20.0702 10.6523 1.83986
183 2 20.117 10.9419 -1.51397 20.117 10.9419 -1.51397
184 1 21.031 12.438 0.260548 21.031 12.438 0.260548
185 2 23.1433 12.3486 1.76408 23.1433 12.3486 1.76408
186 2 22.7696 12.5278 -1.60329 22.7696 12.5278 -1.60329
187 1 23.8962 10.8353 -0.117274 23.8962 10.8353 -0.117274
188 2 25.7288 10.7528 1.5242 25.7288 10.7528 1.5242
189 2 25.8235 11.0113 -1.73235 25.8235 11.0113 -1.73235
190 1 26.7363 12.4619 0.041643 26.7363 12.4619 0.041643
191 2 28.8022 12.3224 1.40324 28.8022 12.3224 1.40324
192 2 28.5636 12.598 -1.8192 28.5636 12.598 -1.8192
193 1 29.6197 10.8828 -0.43549 29.6197 10.8828 -0.43549
194 2 31.4715 10.9186 1.22091 31.4715 10.9186 1.22091
195 2 31.5276 10.8495 -2.01041 31.5276 10.8495 -2.01041
196 1 32.3917 12.5512 -0.40319 32.3917 12.5512 -0.40319
197 2 34.3307 12.5275 1.29911 34.3307 12.5275 1.29911
198 2 34.4655 12.7613 -2.02766 34.4655 12.7613 -2.02766
199 1 35.3132 10.9165 -0.362195 35.3132 10.9165 -0.362195
200 2 37.1438 10.8176 1.26332 37.1438 10.8176 1.26332
201 2 37.168 10.9427 -2.03101 37.168 10.9427 -2.03101
202 1 38.1429 12.5124 -0.286256 38.1429 12.5124 -0.286256
203 2 40.0485 12.3706 1.27561 40.0485 12.3706 1.27561
204 2 40.0226 12.7296 -1.96425 40.0226 12.7296 -1.96425
205 1 40.9092 10.8997 -0.485206 40.9092 10.8997 -0.485206
206 2 42.9597 10.8479 0.988706 42.9597 10.8479 0.988706
207 2 42.789 11.1372 -2.21545 42.789 11.1372 -2.21545
208 1 43.8285 12.5512 -0.458258 43.8285 12.5512 -0.458258
209 2 45.7607 12.3656 0.983026 45.7607 12.3656 0.983026
210 2 45.6493 12.5868 -2.15688 45.6493 12.5868 -2.15688
211 1 46.6851 10.8616 -0.651779 46.6851 10.8616 -0.651779
212 2 48.5981 10.8461 0.9886 48.5981 10.8461 0.9886
213 2 48.7321 11.0547 -2.2611 48.7321 11.0547 -2.2611
214 1 49.559 12.6044 -0.564752 49.559 12.6044 -0.564752
215 2 51.4092 12.4561 1.13157 51.4092 12.4561 1.13157
216 2 51.3903 12.5654 -2.23541 51.3903 12.5654 -2.23541
217 1 1.02782 14.1254 -0.520071 1.02782 14.1254 -0.520071
218 2 2.78869 13.8814 1.1234 2.78869 13.8814 1.1234
219 2 2.99951 14.4446 -2.13866 2.99951 14.4446 -2.13866
220 1 3.94982 15.7757 -0.21324 3.94982 15.7757 -0.21324
221 2 5.87588 15.7269 1.35276 5.87588 15.7269 1.35276
222 2 5.85298 15.8357 -1.84169 5.85298 15.8357 -1.84169
223 1 6.77064 14.1105 -0.237284 6.77064 14.1105 -0.237284
224 2 8.50982 13.9095 1.45307 8.50982 13.9095 1.45307
225 2 8.72036 14.1617 -1.75104 8.72036 14.1617 -1.75104
226 1 9.61672 15.664 -0.00680164 9.61672 15.664 -0.00680164
227 2 11.3906 15.6724 1.7479 11.3906 15.6724 1.7479
228 2 11.5331 15.8283 -1.51225 11.5331 15.8283 -1.51225
229 1 12.4677 14.1732 0.110116 12.4677 14.1732 0.110116
230 2 14.42 13.9961 1.82809 14.42 13.9961 1.82809
231 2 14.4768 14.1967 -1.46891 14.4768 14.1967 -1.46891
232 1 15.3489 15.773 0.260129 15.3489 15.773 0.260129
233 2 17.216 15.5753 1.87254 17.216 15.5753 1.87254
234 2 17.2069 15.8439 -1.33377 17.2069 15.8439 -1.33377
235 1 18.2738 14.1563 0.164703 18.2738 14.1563 0.164703
236 2 20.0696 14.0442 1.99691 20.0696 14.0442 1.99691
237 2 20.2064 14.1933 -1.3604 20.2064 14.1933 -1.3604
238 1 21.1028 15.6954 0.473036 21.1028 15.6954 0.473036
239 2 23.119 15.738 1.84805 23.119 15.738 1.84805
240 2 22.8075 15.7945 -1.35797 22.8075 15.7945 -1.35797
241 1 23.9289 14.1951 0.15512 23.9289 14.1951 0.15512
242 2 25.8708 14.1284 1.73414 25.8708 14.1284 1.73414
243 2 25.799 14.2825 -1.54144 25.799 14.2825 -1.54144
244 1 26.7616 15.9095 0.149623 26.7616 15.9095 0.149623
245 2 28.82 15.8997 1.57108 28.82 15.8997 1.57108
246 2 28.4829 15.918 -1.72772 28.4829 15.918 -1.72772
247 1 29.538 14.1775 -0.190666 29.538 14.1775 -0.190666
248 2 31.4404 14.1378 1.33229 31.4404 14.1378 1.33229
249 2 31.3681 14.1406 -1.92227 31.3681 14.1406 -1.92227
250 1 32.349 15.8331 -0.391225 32.349 15.8331 -0.391225
251 2 34.1823 15.992 1.26774 34.1823 15.992 1.26774
252 2 34.2582 15.739 -2.00861 34.2582 15.739 -2.00861
253 1 35.1985 14.2892 -0.245449 35.1985 14.2892 -0.245449
254 2 37.1267 14.1792 1.32322 37.1267 14.1792 1.32322
255 2 37.1848 14.1568 -1.95062 37.1848 14.1568 -1.95062
256 1 38.1054 15.8007 -0.404576 38.1054 15.8007 -0.404576
257 2 39.7604 15.8488 1.38961 39.7604 15.8488 1.38961
258 2 40.0628 15.7826 -1.83098 40.0628 15.7826 -1.83098
259 1 40.9063 14.2018 -0.148523 40.9063 14.2018 -0.148523
260 2 42.9531 13.9422 1.48899 42.9531 13.9422 1.48899
261 2 42.8341 14.2931 -1.89078 42.8341 14.2931 -1.89078
262 1 43.8248 15.7756 -0.124171 43.8248 15.7756 -0.124171
263 2 45.7644 15.545 1.37694 45.7644 15.545 1.37694
264 2 45.6256 16.0295 -1.86007 45.6256 16.0295 -1.86007
265 1 46.6793 14.1699 -0.474515 46.6793 14.1699 -0.474515
266 2 48.5656 14.0353 1.2223 48.5656 14.0353 1.2223
267 2 48.6015 14.3498 -2.07779 48.6015 14.3498 -2.07779
268 1 49.5692 15.8119 -0.247821 49.5692 15.8119 -0.247821
269 2 51.5208 15.7083 1.25035 51.5208 15.7083 1.25035
270 2 51.2897 15.779 -1.97364 51.2897 15.779 -1.97364
271 1 1.01123 17.4089 -0.373986 1.01123 17.4089 -0.373986
272 2 2.91306 17.338 1.27714 2.91306 17.338 1.27714
273 2 3.14972 17.4329 -1.86336 3.14972 17.4329 -1.86336
274 1 3.88601 19.1109 -0.100429 3.88601 19.1109 -0.100429
275 2 5.72731 18.7787 1.61634 5.72731 18.7787 1.61634
276 2 5.83441 19.3077 -1.63541 5.83441 19.3077 -1.63541
277 1 6.74731 17.438 -0.223497 6.74731 17.438 -0.223497
278 2 8.40633 17.3965 1.55538 8.40633 17.3965 1.55538
279 2 8.71346 17.3521 -1.72551 8.71346 17.3521 -1.72551
280 1 9.59376 19.0106 0.103639 9.59376 19.0106 0.103639
281 2 11.6537 19.1395 1.73321 11.6537 19.1395 1.73321
282 2 11.5171 19.0506 -1.51195 11.5171 19.0506 -1.51195
283 1 12.4464 17.3931 0.191437 12.4464 17.3931 0.191437
284 2 14.3043 17.3831 1.94644 14.3043 17.3831 1.94644
285 2 14.3984 17.4064 -1.40503 14.3984 17.4064 -1.40503
286 1 15.2662 19.112 0.427549 15.2662 19.112 0.427549
287 2 17.0913 19.0659 2.02459 17.0913 19.0659 2.02459
288 2 17.1916 19.0036 -1.26084 17.1916 19.0036 -1.26084
289 1 18.1211 17.43 0.437141 18.1211 17.43 0.437141
290 2 20.0198 17.3776 2.05116 20.0198 17.3776 2.05116
291 2 20.0298 17.1941 -1.19158 20.0298 17.1941 -1.19158
292 1 21.0107 18.9874 0.472473 21.0107 18.9874 0.472473
293 2 22.9308 19.1088 1.9442 22.9308 19.1088 1.9442
294 2 22.7587 19.019 -1.32255 22.7587 19.019 -1.32255
295 1 23.8625 17.3949 0.27266 23.8625 17.3949 0.27266
296 2 25.9064 17.5184 1.76653 25.9064 17.5184 1.76653
297 2 25.5809 17.4432 -1.51534 25.5809 17.4432 -1.51534
298 1 26.6877 19.1932 -0.00998985 26.6877 19.1932 -0.00998985
299 2 28.7287 19.1725 1.56833 28.7287 19.1725 1.56833
300 2 28.5168 19.18 -1.73636 28.5168 19.18 -1.73636
301 1 29.5255 17.4742 -0.155232 29.5255 17.4742 -0.155232
302 2 31.4983 17.3484 1.36082 31.4983 17.3484 1.36082
303 2 31.3789 17.4975 -1.90719 31.3789 17.4975 -1.90719
304 1 32.392 19.0616 -0.302278 32.392 19.0616 -0.302278
305 2 34.2545 18.8648 1.32179 34.2545 18.8648 1.32179
306 2 34.2644 19.2315 -2.00614 34.2644 19.2315 -2.00614
307 1 35.2371 17.4426 -0.544526 35.2371 17.4426 -0.544526
308 2 37.0564 17.3948 1.21534 37.0564 17.3948 1.21534
309 2 37.1636 17.3662 -2.06109 37.1636 17.3662 -2.06109
310 1 38.0302 19.0599 -0.348611 38.0302 19.0599 -0.348611
311 2 39.8441 19.0215 1.41853 39.8441 19.0215 1.41853
312 2 40.0153 19.2082 -1.80505 40.0153 19.2082 -1.80505
313 1 40.9005 17.4472 -0.26982 40.9005 17.4472 -0.26982
314 2 42.7082 17.4293 1.44266 42.7082 17.4293 1.44266
315 2 42.9454 17.4259 -1.73796 42.9454 17.4259 -1.73796
316 1 43.7659 19.1532 -0.0638396 43.7659 19.1532 -0.0638396
317 2 45.5848 19.1729 1.7266 45.5848 19.1729 1.7266
318 2 45.7936 19.1721 -1.65668 45.7936 19.1721 -1.65668
319 1 46.6716 17.4439 0.035089 46.6716 17.4439 0.035089
320 2 48.632 17.423 1.49462 48.632 17.423 1.49462
321 2 48.4627 17.5718 -1.67308 48.4627 17.5718 -1.67308
322 1 49.5238 19.1292 -0.00377965 49.5238 19.1292 -0.00377965
323 2 51.5497 18.872 1.48689 51.5497 18.872 1.48689
324 2 51.3559 19.3563 -1.74446 51.3559 19.3563 -1.74446
325 1 1.03795 20.8188 0.015587 1.03795 20.8188 0.015587
326 2 2.94639 20.6567 1.67875 2.94639 20.6567 1.67875
327 2 2.96968 20.9081 -1.64146 2.96968 20.9081 -1.64146
328 1 3.86481 22.4845 0.179135 3.86481 22.4845 0.179135
329 2 5.90136 22.405 1.86237 5.90136 22.405 1.86237
330 2 5.83026 22.2972 -1.3203 5.83026 22.2972 -1.3203
331 1 6.73207 20.7103 0.308566 6.73207 20.7103 0.308566
332 2 8.71154 20.5638 1.88486 8.71154 20.5638 1.88486
333 2 8.61848 20.8007 -1.36753 8.61848 20.8007 -1.36753
334 1 9.60519 22.3705 0.293709 9.60519 22.3705 0.293709
335 2 11.5455 22.2399 1.8486 11.5455 22.2399 1.8486
336 2 11.4558 22.5439 -1.38533 11.4558 22.5439 -1.38533
337 1 12.4541 20.8147 0.0393766 12.4541 20.8147 0.0393766
338 2 14.1891 20.8759 1.94304 14.1891 20.8759 1.94304
339 2 14.5645 20.7745 -1.37283 14.5645 20.7745 -1.37283
340 1 15.2603 22.418 0.296753 15.2603 22.418 0.296753
341 2 17.0176 22.1611 2.1638 17.0176 22.1611 2.1638
342 2 17.3886 22.5126 -1.04814 17.3886 22.5126 -1.04814
343 1 18.128 20.7067 0.483715 18.128 20.7067 0.483715
344 2 20.0463 20.5415 2.20547 20.0463 20.5415 2.20547
345 2 20.0416 20.7337 -1.09653 20.0416 20.7337 -1.09653
346 1 20.9736 22.3309 0.595259 20.9736 22.3309 0.595259
347 2 22.9009 22.1655 2.08605 22.9009 22.1655 2.08605
348 2 22.6675 22.574 -1.14362 22.6675 22.574 -1.14362
349 1 23.7337 20.7338 0.218521 23.7337 20.7338 0.218521
350 2 25.6982 20.5671 1.81095 25.6982 20.5671 1.81095
351 2 25.672 21.0411 -1.45312 25.672 21.0411 -1.45312
352 1 26.6052 22.4084 0.3704 26.6052 22.4084 0.3704
353 2 28.7679 22.5002 1.60798 28.7679 22.5002 1.60798
354 2 28.2925 22.4328 -1.53297 28.2925 22.4328 -1.53297
355 1 29.4722 20.8363 -0.0782069 29.4722 20.8363 -0.0782069
356 2 31.5341 20.7074 1.37283 31.5341 20.7074 1.37283
357 2 31.365 20.8132 -1.88272 31.365 20.8132 -1.88272
358 1 32.407 22.4376 -0.307865 32.407 22.4376 -0.307865
359 2 34.2997 22.4088 1.43757 34.2997 22.4088 1.43757
360 2 34.4071 22.4267 -1.82224 34.4071 22.4267 -1.82224
361 1 35.2129 20.7073 -0.183937 35.2129 20.7073 -0.183937
362 2 37.1273 20.5238 1.42903 37.1273 20.5238 1.42903
363 2 37.196 20.9132 -1.808 37.196 20.9132 -1.808
364 1 38.1022 22.3176 0.0698117 38.1022 22.3176 0.0698117
365 2 40.0166 22.3324 1.71212 40.0166 22.3324 1.71212
366 2 39.9482 22.4964 -1.62852 39.9482 22.4964 -1.62852
367 1 40.9584 20.8209 -0.05978 40.9584 20.8209 -0.05978
368 2 42.8513 20.7951 1.5211 42.8513 20.7951 1.5211
369 2 42.8156 20.9556 -1.69271 42.8156 20.9556 -1.69271
370 1 43.8887 22.4717 0.0103439 43.8887 22.4717 0.0103439
371 2 45.7124 22.5911 1.65911 45.7124 22.5911 1.65911
372 2 45.6704 22.2657 -1.63721 45.6704 22.2657 -1.63721
373 1 46.6947 20.8282 0.148042 46.6947 20.8282 0.148042
374 2 48.6758 20.8425 1.6071 48.6758 20.8425 1.6071
375 2 48.5 20.7402 -1.60178 48.5 20.7402 -1.60178
376 1 49.6131 22.4889 0.0164394 49.6131 22.4889 0.0164394
377 2 51.4741 22.6738 1.59982 51.4741 22.6738 1.59982
378 2 51.4153 22.5084 -1.65591 51.4153 22.5084 -1.65591
379 1 1.09326 24.2647 -0.0457475 1.09326 24.2647 -0.0457475
380 2 2.88914 24.2492 1.58942 2.88914 24.2492 1.58942
381 2 2.97445 24.0415 -1.60122 2.97445 24.0415 -1.60122
382 1 3.97243 25.7223 -0.0806592 3.97243 25.7223 -0.0806592
383 2 5.8071 25.7949 1.64161 5.8071 25.7949 1.64161
384 2 5.90684 25.4915 -1.60939 5.90684 25.4915 -1.60939
385 1 6.7885 24.009 0.142345 6.7885 24.009 0.142345
386 2 8.59291 24.0048 1.80936 8.59291 24.0048 1.80936
387 2 8.74976 24.0995 -1.43426 8.74976 24.0995 -1.43426
388 1 9.63017 25.7898 0.292019 9.63017 25.7898 0.292019
389 2 11.387 25.5227 2.00149 11.387 25.5227 2.00149
390 2 11.6516 25.8666 -1.2284 11.6516 25.8666 -1.2284
391 1 12.4407 24.0612 0.292526 12.4407 24.0612 0.292526
392 2 14.2591 23.9646 2.02133 14.2591 23.9646 2.02133
393 2 14.4593 24.202 -1.29481 14.4593 24.202 -1.29481
394 1 15.3654 25.6996 0.47449 15.3654 25.6996 0.47449
395 2 17.1223 25.6748 2.26684 17.1223 25.6748 2.26684
396 2 17.3609 25.508 -0.925326 17.3609 25.508 -0.925326
397 1 18.2282 24.0034 0.77944 18.2282 24.0034 0.77944
398 2 20.0121 23.8206 2.47825 20.0121 23.8206 2.47825
399 2 20.1051 24.2265 -0.833007 20.1051 24.2265 -0.833007
400 1 21.0241 25.6472 1.12501 21.0241 25.6472 1.12501
401 2 23.1593 25.5826 2.4924 23.1593 25.5826 2.4924
402 2 22.734 25.7798 -0.819854 22.734 25.7798 -0.819854
403 1 23.8617 23.9862 0.637557 23.8617 23.9862 0.637557
404 2 25.8488 23.9143 2.13306 25.8488 23.9143 2.13306
405 2 25.6891 24.079 -1.14131 25.6891 24.079 -1.14131
406 1 26.7115 25.645 0.532345 26.7115 25.645 0.532345
407 2 28.8714 25.4453 1.81326 28.8714 25.4453 1.81326
408 2 28.3909 25.9099 -1.48044 28.3909 25.9099 -1.48044
409 1 29.6133 24.0848 -0.163441 29.6133 24.0848 -0.163441
410 2 31.5147 23.8735 1.46815 31.5147 23.8735 1.46815
411 2 31.4632 24.145 -1.7396 31.4632 24.145 -1.7396
412 1 32.4499 25.6732 -0.0266832 32.4499 25.6732 -0.0266832
413 2 34.3533 25.755 1.51229 34.3533 25.755 1.51229
414 2 34.2272 25.7318 -1.83236 34.2272 25.7318 -1.83236
415 1 35.2498 24.0517 -0.151973 35.2498 24.0517 -0.151973
416 2 37.257 24.1597 1.56769 37.257 24.1597 1.56769
417 2 37.1868 23.9756 -1.72356 37.1868 23.9756 -1.72356
418 1 38.129 25.7544 -0.273313 38.129 25.7544 -0.273313
419 2 39.8967 25.8339 1.4526 39.8967 25.8339 1.4526
420 2 40.1622 25.6646 -1.72383 40.1622 25.6646 -1.72383
421 1 40.8891 24.0571 0.0378437 40.8891 24.0571 0.0378437
422 2 42.9722 24.3078 1.5339 42.9722 24.3078 1.5339
423 2 42.7157 23.9988 -1.64407 42.7157 23.9988 -1.64407
424 1 43.78 25.8202 -0.201934 43.78 25.8202 -0.201934
425 2 45.6981 25.8067 1.41578 45.6981 25.8067 1.41578
426 2 45.7166 25.6793 -1.86522 45.7166 25.6793 -1.86522
427 1 46.6616 24.1017 -0.104542 46.6616 24.1017 -0.104542
428 2 48.5499 24.1554 1.55125 48.5499 24.1554 1.55125
429 2 48.6712 24.0711 -1.65464 48.6712 24.0711 -1.65464
430 1 49.5585 25.8511 -0.145868 49.5585 25.8511 -0.145868
431 2 51.3005 25.9158 1.565 51.3005 25.9158 1.565
432 2 51.4573 25.8246 -1.71316 51.4573 25.8246 -1.71316
433 1 1.09276 27.4409 -0.086807 1.09276 27.4409 -0.086807
434 2 3.00449 27.4558 1.49618 3.00449 27.4558 1.49618
435 2 2.96025 27.4315 -1.77023 2.96025 27.4315 -1.77023
436 1 3.96572 29.1726 -0.150578 3.96572 29.1726 -0.150578
437 2 5.76613 28.9995 1.61477 5.76613 28.9995 1.61477
438 2 5.86394 29.3377 -1.66703 5.86394 29.3377 -1.66703
439 1 6.80782 27.4579 -0.13527 6.80782 27.4579 -0.13527
440 2 8.48772 27.4487 1.81409 8.48772 27.4487 1.81409
441 2 8.96653 27.3834 -1.52669 8.96653 27.3834 -1.52669
442 1 9.6708 29.0475 0.276814 9.6708 29.0475 0.276814
443 2 11.3469 28.9865 2.07784 11.3469 28.9865 2.07784
444 2 11.7799 28.9383 -1.07992 11.7799 28.9383 -1.07992
445 1 12.4747 27.3178 0.617328 12.4747 27.3178 0.617328
446 2 14.4206 27.3276 2.12025 14.4206 27.3276 2.12025
447 2 14.3262 27.4755 -1.10193 14.3262 27.4755 -1.10193
448 1 15.2301 28.9965 0.524426 15.2301 28.9965 0.524426
449 2 17.0258 28.9606 2.30225 17.0258 28.9606 2.30225
450 2 17.2814 28.8989 -0.93484 17.2814 28.8989 -0.93484
451 1 18.1304 27.3252 0.751388 18.1304 27.3252 0.751388
452 2 19.941 27.4528 2.54302 19.941 27.4528 2.54302
453 2 20.1334 27.1425 -0.693367 20.1334 27.1425 -0.693367
454 1 20.9445 29.0021 0.736863 20.9445 29.0021 0.736863
455 2 22.9428 29.2368 2.35778 22.9428 29.2368 2.35778
456 2 22.7783 28.9075 -0.847629 22.7783 28.9075 -0.847629
457 1 23.8184 27.3965 0.873235 23.8184 27.3965 0.873235
458 2 26.0031 27.3646 2.23572 26.0031 27.3646 2.23572
459 2 25.5624 27.2939 -0.959044 25.5624 27.2939 -0.959044
460 1 26.6767 28.9917 0.418346 26.6767 28.9917 0.418346
461 2 28.681 28.9815 2.08248 28.681 28.9815 2.08248
462 2 28.7193 29.1951 -1.16373 28.7193 29.1951 -1.16373
463 1 29.5177 27.3867 0.303995 29.5177 27.3867 0.303995
464 2 31.6481 27.2478 1.67695 31.6481 27.2478 1.67695
465 2 31.3306 27.4059 -1.43169 31.3306 27.4059 -1.43169
466 1 32.4408 29.096 0.228618 32.4408 29.096 0.228618
467 2 34.4597 28.9139 1.61964 34.4597 28.9139 1.61964
468 2 34.1451 28.9878 -1.63801 34.1451 28.9878 -1.63801
469 1 35.2845 27.2916 -0.163677 35.2845 27.2916 -0.163677
470 2 37.1591 27.2787 1.45926 37.1591 27.2787 1.45926
471 2 37.1704 27.561 -1.76094 37.1704 27.561 -1.76094
472 1 38.088 29.0133 -0.0575473 38.088 29.0133 -0.0575473
473 2 40.0281 28.9506 1.62946 40.0281 28.9506 1.62946
474 2 40.0368 29.2136 -1.60282 40.0368 29.2136 -1.60282
475 1 40.9086 27.3992 -0.141761 40.9086 27.3992 -0.141761
476 2 42.9003 27.5308 1.35002 42.9003 27.5308 1.35002
477 2 42.8485 27.3243 -1.88976 42.8485 27.3243 -1.88976
478 1 43.7703 29.088 -0.406382 43.7703 29.088 -0.406382
479 2 45.6546 29.124 1.19898 45.6546 29.124 1.19898
480 2 45.7311 29.0485 -2.06092 45.7311 29.0485 -2.06092
481 1 46.7034 27.4397 -0.291848 46.7034 27.4397 -0.291848
482 2 48.6066 27.5201 1.37275 48.6066 27.5201 1.37275
483 2 48.6553 27.419 -1.88298 48.6553 27.419 -1.88298
484 1 49.6618 29.137 -0.29168 49.6618 29.137 -0.29168
485 2 51.4087 29.185 1.42725 51.4087 29.185 1.42725
486 2 51.6111 29.0482 -1.84498 51.6111 29.0482 -1.84498
487 1 1.14107 30.7613 -0.214897 1.14107 30.7613 -0.214897
488 2 2.99283 30.6691 1.52005 2.99283 30.6691 1.52005
489 2 3.04091 30.857 -1.69518 3.04091 30.857 -1.69518
490 1 3.98819 32.4925 0.0152227 3.98819 32.4925 0.0152227
491 2 5.80323 32.4628 1.75887 5.80323 32.4628 1.75887
492 2 5.99214 32.5419 -1.49393 5.99214 32.5419 -1.49393
493 1 6.76289 30.7995 0.125986 6.76289 30.7995 0.125986
494 2 8.54012 30.6347 1.8823 8.54012 30.6347 1.8823
495 2 8.79317 30.9347 -1.28361 8.79317 30.9347 -1.28361
496 1 9.67207 32.4644 0.518401 9.67207 32.4644 0.518401
497 2 11.6778 32.4771 2.11658 11.6778 32.4771 2.11658
498 2 11.4805 32.2031 -1.05176 11.4805 32.2031 -1.05176
499 1 12.447 30.6401 0.676664 12.447 30.6401 0.676664
500 2 14.3616 30.6296 2.14509 14.3616 30.6296 2.14509
501 2 14.1927 30.7598 -1.06046 14.1927 30.7598 -1.06046
502 1 15.2578 32.3098 0.60185 15.2578 32.3098 0.60185
503 2 17.0776 32.5286 2.18755 17.0776 32.5286 2.18755
504 2 17.1274 32.0648 -0.94874 17.1274 32.0648 -0.94874
505 1 18.0425 30.5986 0.800106 18.0425 30.5986 0.800106
506 2 20.0149 30.7651 2.30239 20.0149 30.7651 2.30239
507 2 19.7323 30.3189 -0.9738 19.7323 30.3189 -0.9738
508 1 20.9536 32.234 0.380578 20.9536 32.234 0.380578
509 2 22.8304 32.3492 2.0033 22.8304 32.3492 2.0033
510 2 22.9431 32.1205 -1.23212 22.9431 32.1205 -1.23212
511 1 23.8346 30.6039 0.519631 23.8346 30.6039 0.519631
512 2 25.6692 30.5557 2.18528 25.6692 30.5557 2.18528
513 2 25.7725 30.8359 -1.14965 25.7725 30.8359 -1.14965
514 1 26.7847 32.2848 0.686484 26.7847 32.2848 0.686484
515 2 28.677 32.137 2.34477 28.677 32.137 2.34477
516 2 28.7078 32.4531 -0.976235 28.7078 32.4531 -0.976235
517 1 29.554 30.6898 0.576774 29.554 30.6898 0.576774
518 2 31.6914 30.7572 1.98397 31.6914 30.7572 1.98397
519 2 31.3509 30.8968 -1.25157 31.3509 30.8968 -1.25157
520 1 32.4701 32.4153 0.367189 32.4701 32.4153 0.367189
521 2 34.5289 32.107 1.77107 34.5289 32.107 1.77107
522 2 34.1169 32.5268 -1.47505 34.1169 32.5268 -1.47505
523 1 35.3245 30.6499 -0.155741 35.3245 30.6499 -0.155741
524 2 37.2008 30.6969 1.53626 37.2008 30.6969 1.53626
525 2 37.2049 30.6389 -1.88324 37.2049 30.6389 -1.88324
526 1 38.0771 32.3227 -0.13627 38.0771 32.3227 -0.13627
527 2 40.0477 32.5988 1.44045 40.0477 32.5988 1.44045
528 2 39.9545 32.1791 -1.76602 39.9545 32.1791 -1.76602
529 1 40.9194 30.6741 0.114744 40.9194 30.6741 0.114744
530 2 43.1481 30.6672 1.39721 43.1481 30.6672 1.39721
531 2 42.6109 30.7818 -1.81557 42.6109 30.7818 -1.81557
532 1 43.8047 32.295 -0.268837 43.8047 32.295 -0.268837
533 2 45.9314 32.3111 1.16269 45.9314 32.3111 1.16269
534 2 45.6757 32.3059 -2.00314 45.6757 32.3059 -2.00314
535 1 46.725 30.6855 -0.453465 46.725 30.6855 -0.453465
536 2 48.5093 30.7951 1.26217 48.5093 30.7951 1.26217
537 2 48.8388 30.7095 -2.04899 48.8388 30.7095 -2.04899
538 1 49.5149 32.4221 -0.372874 49.5149 32.4221 -0.372874
539 2 51.492 32.4774 1.32202 51.492 32.4774 1.32202
540 2 51.5008 32.3569 -1.87078 51.5008 32.3569 -1.87078