ITEM: TIMESTEP
32600
ITEM: NUMBER OF ATOMS
810
ITEM: BOX BOUNDS pp pp pp
8.3429043506946488e-01 5.2183314564931194e+01
7.0642921987932239e-01 5.0309785780120173e+01
-1.0000000000000000e+01 1.0000000000000000e+01
ITEM: ATOMS id type x y z xu yu zu
1 1 1.03784 0.879054 0.428457 1.03784 0.879054 0.428457
2 2 3.09165 0.808431 1.92166 3.09165 0.808431 1.92166
3 2 2.87088 0.912468 -1.34779 2.87088 0.912468 -1.34779
4 1 3.90272 2.61531 0.309044 3.90272 2.61531 0.309044
5 2 5.71555 2.53135 2.1249 5.71555 2.53135 2.1249
6 2 5.96171 2.62011 -1.02271 5.96171 2.62011 -1.02271
7 1 6.83921 1.02171 0.480557 6.83921 1.02171 0.480557
8 2 8.749 0.869062 2.05448 8.749 0.869062 2.05448
9 2 8.70872 1.18719 -1.17236 8.70872 1.18719 -1.17236
10 1 9.73516 2.61572 0.63173 9.73516 2.61572 0.63173
11 2 11.8682 2.50065 2.06251 11.8682 2.50065 2.06251
12 2 11.4583 2.61598 -1.13426 11.4583 2.61598 -1.13426
13 1 12.5759 0.896281 0.196554 12.5759 0.896281 0.196554
14 2 14.6099 0.961534 1.61845 14.6099 0.961534 1.61845
15 2 14.3497 0.788706 -1.59591 14.3497 0.788706 -1.59591
16 1 15.4376 2.53175 -0.0431043 15.4376 2.53175 -0.0431043
17 2 17.3625 2.47238 1.54508 17.3625 2.47238 1.54508
18 2 17.2593 2.66983 -1.67279 17.2593 2.66983 -1.67279
19 1 18.2084 0.920391 -0.157275 18.2084 0.920391 -0.157275
20 2 20.15 0.91328 1.2734 20.15 0.91328 1.2734
21 2 19.8799 0.856935 -1.93806 19.8799 0.856935 -1.93806
22 1 20.9377 2.61937 -0.368886 20.9377 2.61937 -0.368886
23 2 22.9782 2.77781 1.16443 22.9782 2.77781 1.16443
24 2 22.7863 2.57911 -2.15546 22.7863 2.57911 -2.15546
25 1 23.8124 50.5957 -0.472448 23.8124 0.992364 -0.472448
26 2 25.6657 50.3325 1.214 25.6657 0.72916 1.214
27 2 25.8673 1.06592 -1.98882 25.8673 1.06592 -1.98882
28 1 26.6321 2.55667 -0.15218 26.6321 2.55667 -0.15218
29 2 28.6285 2.6299 1.39491 28.6285 2.6299 1.39491
30 2 28.5469 2.4441 -1.73291 28.5469 2.4441 -1.73291
31 1 29.5618 0.811515 -0.147835 29.5618 0.811515 -0.147835
32 2 31.567 0.770905 1.44783 31.567 0.770905 1.44783
33 2 31.4915 0.979961 -1.811 31.4915 0.979961 -1.811
34 1 32.3914 2.61333 -0.0992795 32.3914 2.61333 -0.0992795
35 2 34.2119 2.38428 1.71588 34.2119 2.38428 1.71588
36 2 34.3579 2.81983 -1.59544 34.3579 2.81983 -1.59544
37 1 35.2748 0.863004 -0.196191 35.2748 0.863004 -0.196191
38 2 37.0618 0.667548 1.47461 37.0618 0.667548 1.47461
39 2 37.4038 0.890503 -1.72702 37.4038 0.890503 -1.72702
40 1 38.1505 2.55113 -0.0102046 38.1505 2.55113 -0.0102046
41 2 39.8743 2.35012 1.73428 39.8743 2.35012 1.73428
42 2 40.1806 2.97047 -1.41967 40.1806 2.97047 -1.41967
43 1 41.0675 0.989502 0.0155572 41.0675 0.989502 0.0155572
44 2 42.648 0.757633 1.90867 42.648 0.757633 1.90867
45 2 43.1614 1.04159 -1.28961 43.1614 1.04159 -1.28961
46 1 43.8188 2.5595 0.52853 43.8188 2.5595 0.52853
47 2 45.5809 2.44371 2.22415 45.5809 2.44371 2.22415
48 2 45.8361 2.9198 -0.866199 45.8361 2.9198 -0.866199
49 1 46.6078 0.99353 0.555321 46.6078 0.99353 0.555321
50 2 48.3859 0.628893 2.21438 48.3859 0.628893 2.21438
51 2 48.7015 1.26921 -1.02204 48.7015 1.26921 -1.02204
52 1 49.5262 2.55277 0.894871 49.5262 2.55277 0.894871
53 2 51.5291 2.29564 2.365 51.5291 2.29564 2.365
54 2 51.2575 2.7658 -0.866065 51.2575 2.7658 -0.866065
55 1 1.02038 4.20575 0.84635 1.02038 4.20575 0.84635
56 2 3.06308 4.04676 2.21451 3.06308 4.04676 2.21451
57 2 2.75676 4.28517 -1.05207 2.75676 4.28517 -1.05207
58 1 3.86596 5.86264 0.808566 3.86596 5.86264 0.808566
59 2 5.86155 5.89324 2.34511 5.86155 5.89324 2.34511
60 2 5.63851 5.7325 -0.881583 5.63851 5.7325 -0.881583
61 1 6.80541 4.23044 0.740653 6.80541 4.23044 0.740653
62 2 8.78007 4.4177 2.33841 8.78007 4.4177 2.33841
63 2 8.62122 4.27885 -0.948974 8.62122 4.27885 -0.948974
64 1 9.63014 5.88679 0.584058 9.63014 5.88679 0.584058
65 2 11.705 6.02577 2.05651 11.705 6.02577 2.05651
66 2 11.3752 5.84029 -1.131 11.3752 5.84029 -1.131
67 1 12.5231 4.23346 0.42748 12.5231 4.23346 0.42748
68 2 14.6694 4.17477 1.73549 14.6694 4.17477 1.73549
69 2 14.2019 4.21837 -1.42062 14.2019 4.21837 -1.42062
70 1 15.4099 5.89315 0.0615634 15.4099 5.89315 0.0615634
71 2 17.3532 5.90213 1.68061 17.3532 5.90213 1.68061
72 2 17.2517 5.88561 -1.65881 17.2517 5.88561 -1.65881
73 1 18.1454 4.19674 -0.0622806 18.1454 4.19674 -0.0622806
74 2 20.0565 4.1147 1.45962 20.0565 4.1147 1.45962
75 2 19.8381 4.21867 -1.91367 19.8381 4.21867 -1.91367
76 1 20.8652 5.90873 -0.325125 20.8652 5.90873 -0.325125
77 2 23.0468 5.91168 1.04379 23.0468 5.91168 1.04379
78 2 22.6848 5.96257 -2.1543 22.6848 5.96257 -2.1543
79 1 23.8302 4.34336 -0.65351 23.8302 4.34336 -0.65351
80 2 25.6339 4.44049 1.11092 25.6339 4.44049 1.11092
81 2 25.9305 4.10154 -2.13733 25.9305 4.10154 -2.13733
82 1 26.7718 5.81732 -0.520916 26.7718 5.81732 -0.520916
83 2 28.4488 5.77433 1.31329 28.4488 5.77433 1.31329
84 2 28.7754 5.85056 -1.85993 28.7754 5.85056 -1.85993
85 1 29.534 4.1417 -0.231992 29.534 4.1417 -0.231992
86 2 31.3043 4.09367 1.50804 31.3043 4.09367 1.50804
87 2 31.533 4.32545 -1.7962 31.533 4.32545 -1.7962
88 1 32.4429 5.83833 0.0831664 32.4429 5.83833 0.0831664
89 2 34.1274 5.69362 1.96762 34.1274 5.69362 1.96762
90 2 34.4805 5.98363 -1.41736 34.4805 5.98363 -1.41736
91 1 35.2287 4.16637 0.275225 35.2287 4.16637 0.275225
92 2 37.0041 3.9337 1.87186 37.0041 3.9337 1.87186
93 2 37.1411 4.44064 -1.3854 37.1411 4.44064 -1.3854
94 1 38.0536 5.80665 0.609026 38.0536 5.80665 0.609026
95 2 39.7931 5.63945 2.33736 39.7931 5.63945 2.33736
96 2 40.0327 6.16607 -0.913178 40.0327 6.16607 -0.913178
97 1 40.924 4.25268 0.52361 40.924 4.25268 0.52361
98 2 42.7866 4.11398 2.27554 42.7866 4.11398 2.27554
99 2 42.9676 4.47979 -0.973215 42.9676 4.47979 -0.973215
100 1 43.8414 6.03359 0.870993 43.8414 6.03359 0.870993
101 2 45.6245 5.91953 2.69301 45.6245 5.91953 2.69301
102 2 45.837 5.98686 -0.639787 45.837 5.98686 -0.639787
103 1 46.6339 4.30296 0.98054 46.6339 4.30296 0.98054
104 2 48.6388 4.24473 2.55187 48.6388 4.24473 2.55187
105 2 48.5367 4.27349 -0.679471 48.5367 4.27349 -0.679471
106 1 49.5851 5.95097 0.858473 49.5851 5.95097 0.858473
107 2 51.5847 5.96606 2.45933 51.5847 5.96606 2.45933
108 2 51.4392 5.88986 -0.819229 51.4392 5.88986 -0.819229
109 1 1.06662 7.60848 0.639708 1.06662 7.60848 0.639708
110 2 2.96609 7.67821 2.39969 2.96609 7.67821 2.39969
111 2 3.02673 7.52261 -0.889411 3.02673 7.52261 -0.889411
112 1 4.02585 9.25264 0.673934 4.02585 9.25264 0.673934
113 2 6.00124 9.43599 2.13538 6.00124 9.43599 2.13538
114 2 5.74724 9.05501 -1.14691 5.74724 9.05501 -1.14691
115 1 6.73631 7.53173 0.568796 6.73631 7.53173 0.568796
116 2 8.72844 7.63976 2.09516 8.72844 7.63976 2.09516
117 2 8.62451 7.37929 -1.08938 8.62451 7.37929 -1.08938
118 1 9.59878 9.22399 0.365715 9.59878 9.22399 0.365715
119 2 11.4802 9.44311 1.89628 11.4802 9.44311 1.89628
120 2 11.4712 9.08538 -1.41465 11.4712 9.08538 -1.41465
121 1 12.5726 7.57063 0.365436 12.5726 7.57063 0.365436
122 2 14.677 7.56854 1.84333 14.677 7.56854 1.84333
123 2 14.2322 7.65703 -1.37531 14.2322 7.65703 -1.37531
124 1 15.3262 9.23384 0.0517475 15.3262 9.23384 0.0517475
125 2 17.3212 9.16994 1.76987 17.3212 9.16994 1.76987
126 2 17.2478 9.1713 -1.60854 17.2478 9.1713 -1.60854
127 1 18.1922 7.57531 -0.00594683 18.1922 7.57531 -0.00594683
128 2 20.2145 7.3813 1.48657 20.2145 7.3813 1.48657
129 2 19.9401 7.58586 -1.76445 19.9401 7.58586 -1.76445
130 1 21.0286 9.1606 -0.03912 21.0286 9.1606 -0.03912
131 2 23.2061 9.05956 1.28003 23.2061 9.05956 1.28003
132 2 22.6375 9.27624 -1.98021 22.6375 9.27624 -1.98021
133 1 23.864 7.52632 -0.613783 23.864 7.52632 -0.613783
134 2 25.7784 7.41238 1.22354 25.7784 7.41238 1.22354
135 2 25.9735 7.63899 -2.16324 25.9735 7.63899 -2.16324
136 1 26.7318 9.16956 -0.251944 26.7318 9.16956 -0.251944
137 2 28.5328 9.19961 1.39308 28.5328 9.19961 1.39308
138 2 28.6533 9.10262 -1.86081 28.6533 9.10262 -1.86081
139 1 29.5804 7.39699 -0.14988 29.5804 7.39699 -0.14988
140 2 31.3394 7.42984 1.5967 31.3394 7.42984 1.5967
141 2 31.6331 7.46264 -1.63266 31.6331 7.46264 -1.63266
142 1 32.4089 9.08052 0.00201569 32.4089 9.08052 0.00201569
143 2 33.9709 9.06758 1.97235 33.9709 9.06758 1.97235
144 2 34.563 9.08176 -1.28159 34.563 9.08176 -1.28159
145 1 35.1408 7.41121 0.442248 35.1408 7.41121 0.442248
146 2 36.9517 7.39756 2.21314 36.9517 7.39756 2.21314
147 2 37.2133 7.59865 -1.03972 37.2133 7.59865 -1.03972
148 1 38.0245 9.20031 0.782896 38.0245 9.20031 0.782896
149 2 39.7598 9.32227 2.55421 39.7598 9.32227 2.55421
150 2 40.0573 9.3824 -0.598556 40.0573 9.3824 -0.598556
151 1 40.8062 7.56679 1.03267 40.8062 7.56679 1.03267
152 2 42.8161 7.50127 2.55996 42.8161 7.50127 2.55996
153 2 42.7148 7.74391 -0.579534 42.7148 7.74391 -0.579534
154 1 43.7883 9.33777 1.1971 43.7883 9.33777 1.1971
155 2 45.7758 9.16887 2.68322 45.7758 9.16887 2.68322
156 2 45.7255 9.39053 -0.525382 45.7255 9.39053 -0.525382
157 1 46.727 7.58478 1.00179 46.727 7.58478 1.00179
158 2 48.6673 7.6665 2.53183 48.6673 7.6665 2.53183
159 2 48.5424 7.43358 -0.752011 48.5424 7.43358 -0.752011
160 1 49.5262 9.24282 0.788033 49.5262 9.24282 0.788033
161 2 51.5833 9.07637 2.31378 51.5833 9.07637 2.31378
162 2 51.4256 9.32455 -0.955958 51.4256 9.32455 -0.955958
163 1 1.20816 10.8619 0.752417 1.20816 10.8619 0.752417
164 2 3.26181 11.0327 2.25428 3.26181 11.0327 2.25428
165 2 2.86504 10.671 -1.01996 2.86504 10.671 -1.01996
166 1 3.96267 12.5196 0.310312 3.96267 12.5196 0.310312
167 2 5.93914 12.6703 1.84403 5.93914 12.6703 1.84403
168 2 5.68126 12.2769 -1.37893 5.68126 12.2769 -1.37893
169 1 6.86623 10.8655 0.286266 6.86623 10.8655 0.286266
170 2 8.73507 11.1955 1.85335 8.73507 11.1955 1.85335
171 2 8.70999 10.7743 -1.47393 8.70999 10.7743 -1.47393
172 1 9.61309 12.6427 -0.117566 9.61309 12.6427 -0.117566
173 2 11.4244 12.6422 1.54956 11.4244 12.6422 1.54956
174 2 11.4772 12.5872 -1.62864 11.4772 12.5872 -1.62864
175 1 12.4681 10.8789 -0.0629975 12.4681 10.8789 -0.0629975
176 2 14.1933 10.8428 1.741 14.1933 10.8428 1.741
177 2 14.499 10.9087 -1.61092 14.499 10.9087 -1.61092
178 1 15.2932 12.5189 0.182659 15.2932 12.5189 0.182659
179 2 17.2879 12.5138 1.66994 17.2879 12.5138 1.66994
180 2 17.1921 12.5765 -1.48901 17.1921 12.5765 -1.48901
181 1 18.1931 10.837 0.00800248 18.1931 10.837 0.00800248
182 2 20.131 10.8924 1.5002 20.131 10.8924 1.5002
183 2 19.9881 10.7622 -1.68378 19.9881 10.7622 -1.68378
184 1 21.066 12.4366 -0.198677 21.066 12.4366 -0.198677
185 2 22.8313 12.386 1.45071 22.8313 12.386 1.45071
186 2 22.7381 12.6156 -1.87999 22.7381 12.6156 -1.87999
187 1 23.7954 10.8467 -0.369957 23.7954 10.8467 -0.369957
188 2 25.6897 10.9489 1.30309 25.6897 10.9489 1.30309
189 2 25.8129 10.874 -1.90631 25.8129 10.874 -1.90631
190 1 26.6986 12.4816 -0.193374 26.6986 12.4816 -0.193374
191 2 28.5384 12.3619 1.42946 28.5384 12.3619 1.42946
192 2 28.6543 12.4929 -1.80504 28.6543 12.4929 -1.80504
193 1 29.5999 10.6848 -0.244833 29.5999 10.6848 -0.244833
194 2 31.3088 10.8001 1.54162 31.3088 10.8001 1.54162
195 2 31.6103 10.6782 -1.66557 31.6103 10.6782 -1.66557
196 1 32.4452 12.4895 -0.0106861 32.4452 12.4895 -0.0106861
197 2 34.0727 12.5395 1.92668 34.0727 12.5395 1.92668
198 2 34.6131 12.4995 -1.24872 34.6131 12.4995 -1.24872
199 1 35.171 10.7743 0.519673 35.171 10.7743 0.519673
200 2 36.9272 10.8131 2.34389 36.9272 10.8131 2.34389
201 2 37.2936 10.8379 -0.847938 37.2936 10.8379 -0.847938
202 1 38.139 12.5541 0.953291 38.139 12.5541 0.953291
203 2 40.0615 12.8334 2.57317 40.0615 12.8334 2.57317
204 2 40.0281 12.2686 -0.716647 40.0281 12.2686 -0.716647
205 1 40.9474 10.9703 1.2104 40.9474 10.9703 1.2104
206 2 42.8979 11.0269 2.77828 42.8979 11.0269 2.77828
207 2 42.7626 11.0171 -0.44802 42.7626 11.0171 -0.44802
208 1 43.8507 12.628 1.06098 43.8507 12.628 1.06098
209 2 45.9102 12.7368 2.60839 45.9102 12.7368 2.60839
210 2 45.7128 12.3715 -0.719346 45.7128 12.3715 -0.719346
211 1 46.769 10.9125 1.12981 46.769 10.9125 1.12981
212 2 48.7054 10.8367 2.61917 48.7054 10.8367 2.61917
213 2 48.5252 10.8777 -0.668779 48.5252 10.8777 -0.668779
214 1 49.5362 12.5519 0.927461 49.5362 12.5519 0.927461
215 2 51.6386 12.6523 2.32889 51.6386 12.6523 2.32889
216 2 51.3058 12.2766 -0.931471 51.3058 12.2766 -0.931471
217 1 1.12019 14.0977 0.375369 1.12019 14.0977 0.375369
218 2 3.10486 14.3178 1.88962 3.10486 14.3178 1.88962
219 2 2.83004 14.0211 -1.43379 2.83004 14.0211 -1.43379
220 1 3.90008 15.74 -0.0557078 3.90008 15.74 -0.0557078
221 2 5.91421 15.9896 1.41518 5.91421 15.9896 1.41518
222 2 5.81186 15.6442 -1.82147 5.81186 15.6442 -1.82147
223 1 6.7214 14.1525 -0.00978614 6.7214 14.1525 -0.00978614
224 2 8.62239 14.361 1.5624 8.62239 14.361 1.5624
225 2 8.55985 14.2313 -1.70082 8.55985 14.2313 -1.70082
226 1 9.5524 15.9529 -0.0530993 9.5524 15.9529 -0.0530993
227 2 11.5644 16.0409 1.55879 11.5644 16.0409 1.55879
228 2 11.5042 15.6946 -1.67402 11.5042 15.6946 -1.67402
229 1 12.4722 14.2726 0.0797517 12.4722 14.2726 0.0797517
230 2 14.3797 14.4113 1.69926 14.3797 14.4113 1.69926
231 2 14.3305 13.9717 -1.54116 14.3305 13.9717 -1.54116
232 1 15.3581 15.7541 -0.154585 15.3581 15.7541 -0.154585
233 2 17.3054 15.9381 1.43923 17.3054 15.9381 1.43923
234 2 17.4336 15.58 -1.79601 17.4336 15.58 -1.79601
235 1 18.2174 14.1165 0.0232667 18.2174 14.1165 0.0232667
236 2 20.2367 14.1755 1.51763 20.2367 14.1755 1.51763
237 2 19.9873 13.9925 -1.84328 19.9873 13.9925 -1.84328
238 1 21.04 15.8475 -0.328996 21.04 15.8475 -0.328996
239 2 22.9357 16.0054 1.41349 22.9357 16.0054 1.41349
240 2 22.9147 15.7192 -1.84987 22.9147 15.7192 -1.84987
241 1 23.843 14.1837 -0.0975986 23.843 14.1837 -0.0975986
242 2 25.9261 14.3804 1.41198 25.9261 14.3804 1.41198
243 2 25.6642 14.0751 -1.91631 25.6642 14.0751 -1.91631
244 1 26.7838 15.7669 -0.432481 26.7838 15.7669 -0.432481
245 2 28.5725 15.7847 1.41361 28.5725 15.7847 1.41361
246 2 28.7187 15.7446 -1.89583 28.7187 15.7446 -1.89583
247 1 29.6124 14.1179 -0.166263 29.6124 14.1179 -0.166263
248 2 31.3729 14.261 1.58675 31.3729 14.261 1.58675
249 2 31.4986 14.1281 -1.67331 31.4986 14.1281 -1.67331
250 1 32.3871 15.8328 0.00307846 32.3871 15.8328 0.00307846
251 2 34.2048 15.8412 1.73277 34.2048 15.8412 1.73277
252 2 34.5381 15.6651 -1.41339 34.5381 15.6651 -1.41339
253 1 35.3732 14.1329 0.384841 35.3732 14.1329 0.384841
254 2 36.8827 14.2655 2.34559 36.8827 14.2655 2.34559
255 2 37.5066 14.116 -0.84586 37.5066 14.116 -0.84586
256 1 38.1403 15.8726 0.833038 38.1403 15.8726 0.833038
257 2 40.1104 15.8822 2.43497 40.1104 15.8822 2.43497
258 2 40.056 15.9406 -0.90212 40.056 15.9406 -0.90212
259 1 41.009 14.174 0.655097 41.009 14.174 0.655097
260 2 42.7923 14.4175 2.35762 42.7923 14.4175 2.35762
261 2 43.118 14.0217 -0.856878 43.118 14.0217 -0.856878
262 1 43.8112 15.869 0.586813 43.8112 15.869 0.586813
263 2 45.6732 15.9457 2.14492 45.6732 15.9457 2.14492
264 2 45.7824 15.8386 -1.04522 45.7824 15.8386 -1.04522
265 1 46.6503 14.2459 0.709543 46.6503 14.2459 0.709543
266 2 48.5636 14.353 2.30402 48.5636 14.353 2.30402
267 2 48.5346 14.0924 -0.882985 48.5346 14.0924 -0.882985
268 1 49.5351 15.7858 0.494281 49.5351 15.7858 0.494281
269 2 51.5447 16.0283 1.91415 51.5447 16.0283 1.91415
270 2 51.3251 15.5575 -1.31411 51.3251 15.5575 -1.31411
271 1 0.934523 17.4167 -0.0226676 0.934523 17.4167 -0.0226676
272 2 2.95118 17.3536 1.48137 2.95118 17.3536 1.48137
273 2 2.84668 17.4995 -1.71856 2.84668 17.4995 -1.71856
274 1 3.84658 19.1176 -0.108062 3.84658 19.1176 -0.108062
275 2 5.87185 19.1554 1.30076 5.87185 19.1554 1.30076
276 2 5.56658 19.1202 -1.90157 5.56658 19.1202 -1.90157
277 1 6.67986 17.5171 -0.381513 6.67986 17.5171 -0.381513
278 2 8.36807 17.5077 1.45448 8.36807 17.5077 1.45448
279 2 8.73071 17.3577 -1.8457 8.73071 17.3577 -1.8457
280 1 9.61107 19.0895 -0.255322 9.61107 19.0895 -0.255322
281 2 11.5447 19.2531 1.37938 11.5447 19.2531 1.37938
282 2 11.4441 19.0681 -1.9706 11.4441 19.0681 -1.9706
283 1 12.4768 17.5509 -0.208836 12.4768 17.5509 -0.208836
284 2 14.4422 17.6094 1.34401 14.4422 17.6094 1.34401
285 2 14.3159 17.2332 -1.86664 14.3159 17.2332 -1.86664
286 1 15.4377 19.0404 -0.611363 15.4377 19.0404 -0.611363
287 2 17.1822 19.2369 1.09065 17.1822 19.2369 1.09065
288 2 17.4132 18.9456 -2.13658 17.4132 18.9456 -2.13658
289 1 18.2716 17.4681 -0.333603 18.2716 17.4681 -0.333603
290 2 20.0485 17.6017 1.30482 20.0485 17.6017 1.30482
291 2 20.1341 17.4287 -2.01933 20.1341 17.4287 -2.01933
292 1 21.0168 19.183 -0.435386 21.0168 19.183 -0.435386
293 2 22.9503 19.0772 1.2081 22.9503 19.0772 1.2081
294 2 22.84 19.0078 -2.09711 22.84 19.0078 -2.09711
295 1 23.957 17.4199 -0.449273 23.957 17.4199 -0.449273
296 2 25.91 17.5293 1.02801 25.91 17.5293 1.02801
297 2 25.8271 17.1912 -2.32586 25.8271 17.1912 -2.32586
298 1 26.7988 19.0846 -0.768745 26.7988 19.0846 -0.768745
299 2 28.4915 19.1666 1.12593 28.4915 19.1666 1.12593
300 2 28.9444 19.0049 -2.07386 28.9444 19.0049 -2.07386
301 1 29.5963 17.4791 -0.245383 29.5963 17.4791 -0.245383
302 2 31.3473 17.3615 1.61946 31.3473 17.3615 1.61946
303 2 31.6662 17.3886 -1.70817 31.6662 17.3886 -1.70817
304 1 32.3817 19.0393 0.0901455 32.3817 19.0393 0.0901455
305 2 34.3581 19.163 1.62984 34.3581 19.163 1.62984
306 2 34.2937 19.084 -1.64243 34.2937 19.084 -1.64243
307 1 35.3081 17.3719 0.150665 35.3081 17.3719 0.150665
308 2 36.9141 17.637 2.05755 36.9141 17.637 2.05755
309 2 37.494 17.3775 -1.08616 37.494 17.3775 -1.08616
310 1 38.1494 19.1376 0.456792 38.1494 19.1376 0.456792
311 2 39.8834 19.1529 2.27829 39.8834 19.1529 2.27829
312 2 40.0942 19.0413 -1.05879 40.0942 19.0413 -1.05879
313 1 41.0342 17.4481 0.748424 41.0342 17.4481 0.748424
314 2 42.9604 17.5648 2.30998 42.9604 17.5648 2.30998
315 2 42.7957 17.5016 -1.01896 42.7957 17.5016 -1.01896
316 1 43.785 19.1842 0.644932 43.785 19.1842 0.644932
317 2 45.684 19.2262 2.31267 45.684 19.2262 2.31267
318 2 45.5864 19.0756 -0.968651 45.5864 19.0756 -0.968651
319 1 46.6975 17.5207 0.616928 46.6975 17.5207 0.616928
320 2 48.6373 17.4572 2.19671 48.6373 17.4572 2.19671
321 2 48.682 17.4958 -1.08031 48.682 17.4958 -1.08031
322 1 49.5029 19.1406 0.647946 49.5029 19.1406 0.647946
323 2 51.8134 18.9847 1.90333 51.8134 18.9847 1.90333
324 2 51.1884 19.3226 -1.23628 51.1884 19.3226 -1.23628
325 1 1.04783 20.7524 0.299583 1.04783 20.7524 0.299583
326 2 3.06228 20.7264 1.70475 3.06228 20.7264 1.70475
327 2 2.82042 20.9283 -1.42715 2.82042 20.9283 -1.42715
328 1 3.90376 22.4685 0.110367 3.90376 22.4685 0.110367
329 2 6.02714 22.4005 1.4345 6.02714 22.4005 1.4345
330 2 5.48411 22.4013 -1.74509 5.48411 22.4013 -1.74509
331 1 6.69001 20.77 -0.363474 6.69001 20.77 -0.363474
332 2 8.67934 20.8114 1.19714 8.67934 20.8114 1.19714
333 2 8.48495 20.6311 -2.07644 8.48495 20.6311 -2.07644
334 1 9.55853 22.3941 -0.598679 9.55853 22.3941 -0.598679
335 2 11.441 22.3962 1.1972 11.441 22.3962 1.1972
336 2 11.5312 22.4094 -2.1796 11.5312 22.4094 -2.1796
337 1 12.5062 20.7809 -0.436394 12.5062 20.7809 -0.436394
338 2 14.5468 20.8213 1.07112 14.5468 20.8213 1.07112
339 2 14.255 20.7952 -2.17908 14.255 20.7952 -2.17908
340 1 15.3648 22.4077 -0.687554 15.3648 22.4077 -0.687554
341 2 17.2922 22.5091 0.973502 17.2922 22.5091 0.973502
342 2 17.2308 22.3277 -2.36916 17.2308 22.3277 -2.36916
343 1 18.2467 20.7853 -0.636157 18.2467 20.7853 -0.636157
344 2 19.9604 20.8692 1.08226 19.9604 20.8692 1.08226
345 2 20.1312 20.5873 -2.21618 20.1312 20.5873 -2.21618
346 1 21.0313 22.4063 -0.543538 21.0313 22.4063 -0.543538
347 2 22.8601 22.5334 1.09047 22.8601 22.5334 1.09047
348 2 22.9615 22.2303 -2.1093 22.9615 22.2303 -2.1093
349 1 23.8582 20.7829 -0.365465 23.8582 20.7829 -0.365465
350 2 25.9948 20.7718 0.906388 25.9948 20.7718 0.906388
351 2 25.5726 20.7296 -2.21949 25.5726 20.7296 -2.21949
352 1 26.7095 22.4657 -0.825225 26.7095 22.4657 -0.825225
353 2 28.5937 22.4887 1.01856 28.5937 22.4887 1.01856
354 2 28.7824 22.3058 -2.25376 28.7824 22.3058 -2.25376
355 1 29.5777 20.7767 -0.455657 29.5777 20.7767 -0.455657
356 2 31.2596 20.8317 1.52488 31.2596 20.8317 1.52488
357 2 31.6869 20.6278 -1.78017 31.6869 20.6278 -1.78017
358 1 32.459 22.4295 -0.191741 32.459 22.4295 -0.191741
359 2 34.3034 22.3854 1.48752 34.3034 22.3854 1.48752
360 2 34.2852 22.2766 -1.83928 34.2852 22.2766 -1.83928
361 1 35.2517 20.7581 -0.140687 35.2517 20.7581 -0.140687
362 2 36.8946 20.9116 1.73692 36.8946 20.9116 1.73692
363 2 37.3797 20.4962 -1.4698 37.3797 20.4962 -1.4698
364 1 38.1358 22.4907 -0.0182291 38.1358 22.4907 -0.0182291
365 2 39.8767 22.6569 1.75345 39.8767 22.6569 1.75345
366 2 40.1294 22.2618 -1.45171 40.1294 22.2618 -1.45171
367 1 40.9135 20.7941 0.488727 40.9135 20.7941 0.488727
368 2 42.7885 20.956 2.11705 42.7885 20.956 2.11705
369 2 42.7663 20.6064 -1.04993 42.7663 20.6064 -1.04993
370 1 43.7212 22.5463 0.371016 43.7212 22.5463 0.371016
371 2 45.524 22.5514 2.051 45.524 22.5514 2.051
372 2 45.6725 22.5527 -1.17325 45.6725 22.5527 -1.17325
373 1 46.5679 20.8093 0.487212 46.5679 20.8093 0.487212
374 2 48.6175 20.8946 2.0917 48.6175 20.8946 2.0917
375 2 48.5232 20.5787 -1.16282 48.5232 20.5787 -1.16282
376 1 49.494 22.3524 0.21856 49.494 22.3524 0.21856
377 2 51.4309 22.3543 1.89917 51.4309 22.3543 1.89917
378 2 51.2889 22.3687 -1.4258 51.2889 22.3687 -1.4258
379 1 1.01135 24.0177 0.156981 1.01135 24.0177 0.156981
380 2 2.92497 24.1264 1.75143 2.92497 24.1264 1.75143
381 2 2.83288 24.0127 -1.53053 2.83288 24.0127 -1.53053
382 1 3.88706 25.6702 0.00334178 3.88706 25.6702 0.00334178
383 2 6.05221 25.6233 1.43877 6.05221 25.6233 1.43877
384 2 5.57841 25.7693 -1.83396 5.57841 25.7693 -1.83396
385 1 6.78826 24.1033 -0.421289 6.78826 24.1033 -0.421289
386 2 8.72925 23.956 1.21679 8.72925 23.956 1.21679
387 2 8.6111 24.1487 -2.10347 8.6111 24.1487 -2.10347
388 1 9.68713 25.6518 -0.461513 9.68713 25.6518 -0.461513
389 2 11.7373 25.7038 1.12149 11.7373 25.7038 1.12149
390 2 11.4865 25.4773 -2.17814 11.4865 25.4773 -2.17814
391 1 12.5115 23.9749 -0.497726 12.5115 23.9749 -0.497726
392 2 14.5678 24.0654 0.912038 14.5678 24.0654 0.912038
393 2 14.242 23.9799 -2.33829 14.242 23.9799 -2.33829
394 1 15.281 25.6446 -0.84233 15.281 25.6446 -0.84233
395 2 17.1094 25.7007 0.843735 17.1094 25.7007 0.843735
396 2 17.3124 25.7986 -2.39487 17.3124 25.7986 -2.39487
397 1 18.1942 24.1001 -0.81588 18.1942 24.1001 -0.81588
398 2 19.9451 24.0425 0.911552 19.9451 24.0425 0.911552
399 2 20.262 24.0675 -2.30115 20.262 24.0675 -2.30115
400 1 21.0352 25.7442 -0.657616 21.0352 25.7442 -0.657616
401 2 22.9849 25.7447 0.905439 22.9849 25.7447 0.905439
402 2 22.9678 25.7059 -2.24081 22.9678 25.7059 -2.24081
403 1 23.8131 24.0269 -0.623034 23.8131 24.0269 -0.623034
404 2 25.7783 24.0491 0.861293 25.7783 24.0491 0.861293
405 2 25.6334 24.1314 -2.36842 25.6334 24.1314 -2.36842
406 1 26.7582 25.7387 -0.781172 26.7582 25.7387 -0.781172
407 2 28.4197 25.7014 1.06367 28.4197 25.7014 1.06367
408 2 28.7161 25.8277 -2.22302 28.7161 25.8277 -2.22302
409 1 29.5988 24.0696 -0.633609 29.5988 24.0696 -0.633609
410 2 31.2318 24.046 1.26148 31.2318 24.046 1.26148
411 2 31.6989 24.0834 -1.98025 31.6989 24.0834 -1.98025
412 1 32.43 25.7745 -0.165076 32.43 25.7745 -0.165076
413 2 34.2551 25.7177 1.42621 34.2551 25.7177 1.42621
414 2 34.4135 25.6741 -1.79818 34.4135 25.6741 -1.79818
415 1 35.2562 23.9949 -0.182048 35.2562 23.9949 -0.182048
416 2 37.2236 24.3195 1.47171 37.2236 24.3195 1.47171
417 2 37.1456 24.0981 -1.79657 37.1456 24.0981 -1.79657
418 1 38.1987 25.8415 -0.26378 38.1987 25.8415 -0.26378
419 2 39.9526 25.8833 1.41386 39.9526 25.8833 1.41386
420 2 40.1316 25.6246 -1.77751 40.1316 25.6246 -1.77751
421 1 41.0429 24.1159 -0.023649 41.0429 24.1159 -0.023649
422 2 42.6698 24.5 1.75644 42.6698 24.5 1.75644
423 2 43.1168 24.0373 -1.50993 43.1168 24.0373 -1.50993
424 1 43.8859 25.8479 0.109306 43.8859 25.8479 0.109306
425 2 45.5055 25.8926 1.90667 45.5055 25.8926 1.90667
426 2 45.9337 25.6326 -1.23365 45.9337 25.6326 -1.23365
427 1 46.6207 24.0827 0.543951 46.6207 24.0827 0.543951
428 2 48.8318 24.1036 1.87617 48.8318 24.1036 1.87617
429 2 48.3804 23.8374 -1.31105 48.3804 23.8374 -1.31105
430 1 49.4848 25.6643 0.00823126 49.4848 25.6643 0.00823126
431 2 51.4314 25.8091 1.63904 51.4314 25.8091 1.63904
432 2 51.3183 25.5391 -1.59226 51.3183 25.5391 -1.59226
433 1 0.984087 27.3717 -0.126001 0.984087 27.3717 -0.126001
434 2 2.91903 27.5354 1.43211 2.91903 27.5354 1.43211
435 2 2.87422 27.1533 -1.7889 2.87422 27.1533 -1.7889
436 1 3.94015 28.9961 -0.302052 3.94015 28.9961 -0.302052
437 2 5.8252 29.128 1.34691 5.8252 29.128 1.34691
438 2 5.72383 29.0089 -1.86624 5.72383 29.0089 -1.86624
439 1 6.77172 27.4171 -0.182014 6.77172 27.4171 -0.182014
440 2 8.86511 27.4576 1.12852 8.86511 27.4576 1.12852
441 2 8.51263 27.2488 -1.9904 8.51263 27.2488 -1.9904
442 1 9.56728 29.0206 -0.653647 9.56728 29.0206 -0.653647
443 2 11.4468 28.9757 0.909402 11.4468 28.9757 0.909402
444 2 11.4174 28.9236 -2.29197 11.4174 28.9236 -2.29197
445 1 12.4468 27.2561 -0.693562 12.4468 27.2561 -0.693562
446 2 14.4319 27.2631 0.896552 14.4319 27.2631 0.896552
447 2 14.3084 27.2793 -2.41259 14.3084 27.2793 -2.41259
448 1 15.2445 28.931 -0.766142 15.2445 28.931 -0.766142
449 2 17.1855 29.1797 0.929816 17.1855 29.1797 0.929816
450 2 17.1798 28.9895 -2.3601 17.1798 28.9895 -2.3601
451 1 18.1342 27.414 -0.647782 18.1342 27.414 -0.647782
452 2 20.1288 27.3756 0.995945 20.1288 27.3756 0.995945
453 2 19.9549 27.3566 -2.28441 19.9549 27.3566 -2.28441
454 1 20.9757 29.0273 -0.609343 20.9757 29.0273 -0.609343
455 2 22.8719 29.0793 0.952998 22.8719 29.0793 0.952998
456 2 22.9153 28.9599 -2.25576 22.9153 28.9599 -2.25576
457 1 23.8876 27.3693 -0.637889 23.8876 27.3693 -0.637889
458 2 25.86 27.3675 1.01283 25.86 27.3675 1.01283
459 2 25.9071 27.4282 -2.31297 25.9071 27.4282 -2.31297
460 1 26.7534 29.0795 -0.67574 26.7534 29.0795 -0.67574
461 2 28.5414 29.1023 0.94973 28.5414 29.1023 0.94973
462 2 28.5322 28.8373 -2.24914 28.5322 28.8373 -2.24914
463 1 29.5572 27.3788 -0.452875 29.5572 27.3788 -0.452875
464 2 31.3058 27.507 1.30467 31.3058 27.507 1.30467
465 2 31.4334 27.228 -1.96551 31.4334 27.228 -1.96551
466 1 32.5063 29.0812 -0.433472 32.5063 29.0812 -0.433472
467 2 34.3304 29.2642 1.26982 34.3304 29.2642 1.26982
468 2 34.2925 28.8842 -2.02822 34.2925 28.8842 -2.02822
469 1 35.2594 27.3858 -0.167902 35.2594 27.3858 -0.167902
470 2 37.2155 27.4644 1.46177 37.2155 27.4644 1.46177
471 2 37.0659 27.3807 -1.92431 37.0659 27.3807 -1.92431
472 1 38.137 29.1548 -0.353753 38.137 29.1548 -0.353753
473 2 39.9255 29.0779 1.41256 39.9255 29.0779 1.41256
474 2 40.2792 29.1283 -1.91412 40.2792 29.1283 -1.91412
475 1 41.046 27.396 -0.327507 41.046 27.396 -0.327507
476 2 42.7426 27.5712 1.49514 42.7426 27.5712 1.49514
477 2 43.099 27.3911 -1.73027 43.099 27.3911 -1.73027
478 1 43.8261 29.1496 -0.122288 43.8261 29.1496 -0.122288
479 2 45.8164 29.3144 1.59222 45.8164 29.3144 1.59222
480 2 45.8358 28.9465 -1.75059 45.8358 28.9465 -1.75059
481 1 46.698 27.5511 0.204436 46.698 27.5511 0.204436
482 2 48.6696 27.4642 1.70043 48.6696 27.4642 1.70043
483 2 48.3363 27.2286 -1.6893 48.3363 27.2286 -1.6893
484 1 49.5101 28.9915 -0.196635 49.5101 28.9915 -0.196635
485 2 51.4135 29.1209 1.39386 51.4135 29.1209 1.39386
486 2 51.4377 28.9188 -1.7663 51.4377 28.9188 -1.7663
487 1 0.97064 30.6686 -0.307601 0.97064 30.6686 -0.307601
488 2 2.9996 30.8522 1.2214 2.9996 30.8522 1.2214
489 2 2.70788 30.444 -2.03113 2.70788 30.444 -2.03113
490 1 3.82858 32.2679 -0.719116 3.82858 32.2679 -0.719116
491 2 5.60427 32.273 1.10495 5.60427 32.273 1.10495
492 2 5.89623 32.0909 -2.23035 5.89623 32.0909 -2.23035
493 1 6.71333 30.7026 -0.417634 6.71333 30.7026 -0.417634
494 2 8.71557 30.6842 1.03025 8.71557 30.6842 1.03025
495 2 8.48798 30.6831 -2.22548 8.48798 30.6831 -2.22548
496 1 9.6297 32.2505 -0.702835 9.6297 32.2505 -0.702835
497 2 11.5081 32.3833 0.897817 11.5081 32.3833 0.897817
498 2 11.4608 32.1832 -2.41593 11.4608 32.1832 -2.41593
499 1 12.3738 30.606 -0.650704 12.3738 30.606 -0.650704
500 2 14.3774 30.6908 0.885968 14.3774 30.6908 0.885968
501 2 14.1708 30.4724 -2.38075 14.1708 30.4724 -2.38075
502 1 15.2069 32.3214 -0.840544 15.2069 32.3214 -0.840544
503 2 17.1591 32.4531 0.630493 17.1591 32.4531 0.630493
504 2 17.1738 32.1348 -2.53268 17.1738 32.1348 -2.53268
505 1 18.0772 30.7042 -0.797114 18.0772 30.7042 -0.797114
506 2 20.0772 30.7539 0.89578 20.0772 30.7539 0.89578
507 2 20.0527 30.6486 -2.31888 20.0527 30.6486 -2.31888
508 1 20.9385 32.3596 -0.770649 20.9385 32.3596 -0.770649
509 2 22.8019 32.3974 0.873675 22.8019 32.3974 0.873675
510 2 22.8042 32.3222 -2.45798 22.8042 32.3222 -2.45798
511 1 23.79 30.7355 -0.73966 23.79 30.7355 -0.73966
512 2 25.6739 30.8089 0.933619 25.6739 30.8089 0.933619
513 2 25.6636 30.6528 -2.41989 25.6636 30.6528 -2.41989
514 1 26.7833 32.2941 -0.724627 26.7833 32.2941 -0.724627
515 2 28.6749 32.2407 0.86837 28.6749 32.2407 0.86837
516 2 28.6187 32.566 -2.32983 28.6187 32.566 -2.32983
517 1 29.6133 30.7345 -0.839401 29.6133 30.7345 -0.839401
518 2 31.18 30.7569 1.00611 31.18 30.7569 1.00611
519 2 31.7704 30.6388 -2.14128 31.7704 30.6388 -2.14128
520 1 32.347 32.3454 -0.384833 32.347 32.3454 -0.384833
521 2 34.3379 32.3814 1.14004 34.3379 32.3814 1.14004
522 2 34.1905 32.3335 -2.19329 34.1905 32.3335 -2.19329
523 1 35.2993 30.6755 -0.53437 35.2993 30.6755 -0.53437
524 2 37.0731 30.7625 1.20093 37.0731 30.7625 1.20093
525 2 37.283 30.7428 -1.99972 37.283 30.7428 -1.99972
526 1 38.0831 32.3137 -0.323544 38.0831 32.3137 -0.323544
527 2 39.8682 32.5216 1.39967 39.8682 32.5216 1.39967
528 2 40.0292 32.1592 -1.92836 40.0292 32.1592 -1.92836
529 1 40.9678 30.7481 -0.103467 40.9678 30.7481 -0.103467
530 2 42.7931 30.6404 1.5943 42.7931 30.6404 1.5943
531 2 42.9339 30.7607 -1.78062 42.9339 30.7607 -1.78062
532 1 43.7811 32.3868 -0.129249 43.7811 32.3868 -0.129249
533 2 45.7925 32.4683 1.3113 45.7925 32.4683 1.3113
534 2 45.572 32.3893 -1.93609 45.572 32.3893 -1.93609
535 1 46.6658 30.8154 -0.354941 46.6658 30.8154 -0.354941
536 2 48.6485 30.9107 1.23316 48.6485 30.9107 1.23316
537 2 48.5089 30.5848 -2.0076 48.5089 30.5848 -2.0076
538 1 49.5742 32.3829 -0.498502 49.5742 32.3829 -0.498502
539 2 51.4024 32.3827 1.22417 51.4024 32.3827 1.22417