ITEM: TIMESTEP
65800
ITEM: NUMBER OF ATOMS
810
ITEM: BOX BOUNDS pp pp pp
8.3336847954414672e-01 5.2184236520455983e+01
7.1891182380168139e-01 5.0297303176197502e+01
-1.0000000000000000e+01 1.0000000000000000e+01
ITEM: ATOMS id type x y z xu yu zu
1 1 1.01066 0.89632 0.832342 1.01066 0.89632 0.832342
2 2 3.01236 1.28573 2.36643 3.01236 1.28573 2.36643
3 2 2.91433 0.784026 -0.932188 2.91433 0.784026 -0.932188
4 1 3.91409 2.6347 0.552661 3.91409 2.6347 0.552661
5 2 5.90408 2.8908 2.07994 5.90408 2.8908 2.07994
6 2 5.74066 2.35643 -1.09745 5.74066 2.35643 -1.09745
7 1 6.69458 0.921907 0.659636 6.69458 0.921907 0.659636
8 2 8.69543 1.13531 2.21986 8.69543 1.13531 2.21986
9 2 8.51025 0.737934 -1.0778 8.51025 0.737934 -1.0778
10 1 9.67278 2.54806 0.361694 9.67278 2.54806 0.361694
11 2 11.8734 2.53544 1.72567 11.8734 2.53544 1.72567
12 2 11.325 2.56626 -1.43273 11.325 2.56626 -1.43273
13 1 12.4895 0.954045 0.0259376 12.4895 0.954045 0.0259376
14 2 14.4841 0.775236 1.53692 14.4841 0.775236 1.53692
15 2 14.4207 1.13593 -1.67328 14.4207 1.13593 -1.67328
16 1 15.3985 2.54948 0.0215019 15.3985 2.54948 0.0215019
17 2 17.4378 2.58682 1.55644 17.4378 2.58682 1.55644
18 2 17.2641 2.63765 -1.64269 17.2641 2.63765 -1.64269
19 1 18.2393 0.923848 -0.0623261 18.2393 0.923848 -0.0623261
20 2 20.1232 0.774649 1.51876 20.1232 0.774649 1.51876
21 2 19.9496 1.09523 -1.77143 19.9496 1.09523 -1.77143
22 1 20.9588 2.58484 -0.00231721 20.9588 2.58484 -0.00231721
23 2 23.0131 2.60792 1.39507 23.0131 2.60792 1.39507
24 2 22.686 2.57947 -1.82903 22.686 2.57947 -1.82903
25 1 23.8935 0.963918 -0.299615 23.8935 0.963918 -0.299615
26 2 25.878 0.989896 1.35731 25.878 0.989896 1.35731
27 2 25.923 0.92455 -1.89926 25.923 0.92455 -1.89926
28 1 26.8106 2.60594 -0.230933 26.8106 2.60594 -0.230933
29 2 28.4446 2.62716 1.66241 28.4446 2.62716 1.66241
30 2 28.9911 2.59783 -1.52716 28.9911 2.59783 -1.52716
31 1 29.5656 0.904589 0.19349 29.5656 0.904589 0.19349
32 2 31.3776 0.981573 1.96252 31.3776 0.981573 1.96252
33 2 31.6282 0.93064 -1.26532 31.6282 0.93064 -1.26532
34 1 32.5265 2.5723 0.308636 32.5265 2.5723 0.308636
35 2 34.2793 2.79851 2.10699 34.2793 2.79851 2.10699
36 2 34.3649 2.34123 -1.27101 34.3649 2.34123 -1.27101
37 1 35.3222 0.894594 0.627189 35.3222 0.894594 0.627189
38 2 37.2862 0.838295 2.13315 37.2862 0.838295 2.13315
39 2 37.0269 0.962194 -1.13654 37.0269 0.962194 -1.13654
40 1 38.049 2.53121 0.463861 38.049 2.53121 0.463861
41 2 40.0028 2.54373 2.12505 40.0028 2.54373 2.12505
42 2 39.9374 2.60617 -1.14286 39.9374 2.60617 -1.14286
43 1 41.0084 0.980502 0.383417 41.0084 0.980502 0.383417
44 2 42.8234 0.993117 2.13789 42.8234 0.993117 2.13789
45 2 43.0544 1.04763 -1.07372 43.0544 1.04763 -1.07372
46 1 43.8213 2.74176 0.61984 43.8213 2.74176 0.61984
47 2 45.7406 2.55187 2.30215 45.7406 2.55187 2.30215
48 2 45.8847 2.63143 -0.948131 45.8847 2.63143 -0.948131
49 1 46.6741 0.953572 0.676953 46.6741 0.953572 0.676953
50 2 48.5745 0.808297 2.43175 48.5745 0.808297 2.43175
51 2 48.6643 0.958415 -0.863059 48.6643 0.958415 -0.863059
52 1 49.6 2.60019 0.796399 49.6 2.60019 0.796399
53 2 51.6145 2.85261 2.281 51.6145 2.85261 2.281
54 2 51.4464 2.42339 -0.902968 51.4464 2.42339 -0.902968
55 1 1.12534 4.20225 0.370268 1.12534 4.20225 0.370268
56 2 2.95942 4.40757 2.10004 2.95942 4.40757 2.10004
57 2 3 4.06263 -1.24782 3 4.06263 -1.24782
58 1 3.88332 5.85257 0.224418 3.88332 5.85257 0.224418
59 2 5.8339 6.01785 1.76178 5.8339 6.01785 1.76178
60 2 5.68403 5.88848 -1.49456 5.68403 5.88848 -1.49456
61 1 6.77142 4.25343 0.129429 6.77142 4.25343 0.129429
62 2 8.71788 4.4764 1.67286 8.71788 4.4764 1.67286
63 2 8.57156 3.91351 -1.5159 8.57156 3.91351 -1.5159
64 1 9.602 5.83462 -0.256384 9.602 5.83462 -0.256384
65 2 11.5132 6.14426 1.50713 11.5132 6.14426 1.50713
66 2 11.5584 5.67661 -1.80582 11.5584 5.67661 -1.80582
67 1 12.5258 4.28115 0.00700495 12.5258 4.28115 0.00700495
68 2 14.5664 4.49949 1.53663 14.5664 4.49949 1.53663
69 2 14.3098 4.04243 -1.68017 14.3098 4.04243 -1.68017
70 1 15.2781 5.91904 -0.324112 15.2781 5.91904 -0.324112
71 2 17.3934 5.98229 1.37581 17.3934 5.98229 1.37581
72 2 17.2301 5.94506 -1.94996 17.2301 5.94506 -1.94996
73 1 18.2568 4.29791 -0.219621 18.2568 4.29791 -0.219621
74 2 20.1334 4.33659 1.50365 20.1334 4.33659 1.50365
75 2 20.0798 4.20532 -1.83917 20.0798 4.20532 -1.83917
76 1 21.0478 5.8854 -0.252499 21.0478 5.8854 -0.252499
77 2 22.9861 5.97776 1.23001 22.9861 5.97776 1.23001
78 2 22.8415 5.94198 -2.02397 22.8415 5.94198 -2.02397
79 1 23.8673 4.22044 -0.366807 23.8673 4.22044 -0.366807
80 2 25.7629 4.30966 1.28915 25.7629 4.30966 1.28915
81 2 25.7832 4.15965 -1.90508 25.7832 4.15965 -1.90508
82 1 26.7402 5.90913 -0.367252 26.7402 5.90913 -0.367252
83 2 28.4637 6.1585 1.44124 28.4637 6.1585 1.44124
84 2 28.902 5.81988 -1.74896 28.902 5.81988 -1.74896
85 1 29.6393 4.27871 0.186899 29.6393 4.27871 0.186899
86 2 31.4769 4.36894 1.93577 31.4769 4.36894 1.93577
87 2 31.5347 4.01894 -1.43694 31.5347 4.01894 -1.43694
88 1 32.3771 5.97477 0.170041 32.3771 5.97477 0.170041
89 2 34.2357 5.91036 1.86074 34.2357 5.91036 1.86074
90 2 34.3715 5.85248 -1.33563 34.3715 5.85248 -1.33563
91 1 35.2211 4.20312 0.315782 35.2211 4.20312 0.315782
92 2 37.1497 4.26982 1.99904 37.1497 4.26982 1.99904
93 2 37.2381 4.1683 -1.1594 37.2381 4.1683 -1.1594
94 1 38.0818 5.87243 0.344741 38.0818 5.87243 0.344741
95 2 39.9971 6.0118 2.06164 39.9971 6.0118 2.06164
96 2 40.0411 5.72563 -1.17683 40.0411 5.72563 -1.17683
97 1 41.0036 4.25817 0.545824 41.0036 4.25817 0.545824
98 2 42.9211 4.50402 2.16842 42.9211 4.50402 2.16842
99 2 42.838 4.29135 -1.12563 42.838 4.29135 -1.12563
100 1 43.8662 5.95357 0.397468 43.8662 5.95357 0.397468
101 2 45.7439 6.09545 2.23783 45.7439 6.09545 2.23783
102 2 45.8571 5.7113 -1.04778 45.8571 5.7113 -1.04778
103 1 46.6988 4.22987 0.814448 46.6988 4.22987 0.814448
104 2 48.5966 4.27331 2.38999 48.5966 4.27331 2.38999
105 2 48.58 3.96219 -0.890497 48.58 3.96219 -0.890497
106 1 49.4915 5.81284 0.642502 49.4915 5.81284 0.642502
107 2 51.6289 5.86361 2.09799 51.6289 5.86361 2.09799
108 2 51.1209 5.74915 -1.1939 51.1209 5.74915 -1.1939
109 1 0.957249 7.38512 0.298937 0.957249 7.38512 0.298937
110 2 3.04966 7.72256 1.75937 3.04966 7.72256 1.75937
111 2 2.80304 7.23513 -1.55297 2.80304 7.23513 -1.55297
112 1 3.81041 9.07711 -0.22658 3.81041 9.07711 -0.22658
113 2 5.6967 9.36789 1.49794 5.6967 9.36789 1.49794
114 2 5.80731 9.06738 -1.69112 5.80731 9.06738 -1.69112
115 1 6.78319 7.60362 0.00126988 6.78319 7.60362 0.00126988
116 2 8.66358 7.36513 1.5268 8.66358 7.36513 1.5268
117 2 8.61196 7.5906 -1.84039 8.61196 7.5906 -1.84039
118 1 9.61845 9.13779 -0.012193 9.61845 9.13779 -0.012193
119 2 11.6241 9.29277 1.3171 11.6241 9.29277 1.3171
120 2 11.2924 9.19854 -1.90378 11.2924 9.19854 -1.90378
121 1 12.369 7.57674 -0.290308 12.369 7.57674 -0.290308
122 2 14.3166 7.63385 1.27969 14.3166 7.63385 1.27969
123 2 14.2274 7.6647 -1.98355 14.2274 7.6647 -1.98355
124 1 15.3088 9.28385 -0.419549 15.3088 9.28385 -0.419549
125 2 17.2118 9.2581 1.16737 17.2118 9.2581 1.16737
126 2 17.3046 9.21989 -1.95374 17.3046 9.21989 -1.95374
127 1 18.2304 7.61751 -0.341385 18.2304 7.61751 -0.341385
128 2 20.0778 7.53606 1.34188 20.0778 7.53606 1.34188
129 2 20.1361 7.49412 -1.91206 20.1361 7.49412 -1.91206
130 1 20.9563 9.19949 -0.238609 20.9563 9.19949 -0.238609
131 2 23.1121 9.15767 1.216 23.1121 9.15767 1.216
132 2 22.7718 9.25882 -1.95227 22.7718 9.25882 -1.95227
133 1 23.8976 7.62318 -0.428506 23.8976 7.62318 -0.428506
134 2 25.8331 7.70001 1.20508 25.8331 7.70001 1.20508
135 2 25.7865 7.56867 -2.07634 25.7865 7.56867 -2.07634
136 1 26.758 9.25742 -0.473221 26.758 9.25742 -0.473221
137 2 28.6157 9.38812 1.19346 28.6157 9.38812 1.19346
138 2 28.6199 9.0032 -2.03713 28.6199 9.0032 -2.03713
139 1 29.5788 7.60458 -0.236427 29.5788 7.60458 -0.236427
140 2 31.256 7.86269 1.50077 31.256 7.86269 1.50077
141 2 31.6836 7.55944 -1.63861 31.6836 7.55944 -1.63861
142 1 32.4403 9.35241 0.000842066 32.4403 9.35241 0.000842066
143 2 34.1928 9.34958 1.70761 34.1928 9.34958 1.70761
144 2 34.4596 9.05091 -1.52325 34.4596 9.05091 -1.52325
145 1 35.3041 7.49563 0.241845 35.3041 7.49563 0.241845
146 2 37.1208 7.58811 1.88597 37.1208 7.58811 1.88597
147 2 37.1726 7.46691 -1.32181 37.1726 7.46691 -1.32181
148 1 38.0922 9.16645 0.200082 38.0922 9.16645 0.200082
149 2 40.0718 9.29318 1.80588 40.0718 9.29318 1.80588
150 2 40.022 9.08483 -1.44622 40.022 9.08483 -1.44622
151 1 40.9638 7.56827 0.215754 40.9638 7.56827 0.215754
152 2 42.8191 7.63989 1.89426 42.8191 7.63989 1.89426
153 2 42.933 7.41876 -1.37628 42.933 7.41876 -1.37628
154 1 43.8807 9.16753 0.144322 43.8807 9.16753 0.144322
155 2 45.6686 9.38604 1.89322 45.6686 9.38604 1.89322
156 2 45.7947 9.0854 -1.35252 45.7947 9.0854 -1.35252
157 1 46.69 7.56465 0.464988 46.69 7.56465 0.464988
158 2 48.5388 7.72333 2.09964 48.5388 7.72333 2.09964
159 2 48.5762 7.34877 -1.10009 48.5762 7.34877 -1.10009
160 1 49.5127 9.19848 0.279067 49.5127 9.19848 0.279067
161 2 51.5534 9.29971 1.86482 51.5534 9.29971 1.86482
162 2 51.26 8.95552 -1.40126 51.26 8.95552 -1.40126
163 1 0.981192 10.8128 0.0165492 0.981192 10.8128 0.0165492
164 2 3.12418 10.8666 1.36971 3.12418 10.8666 1.36971
165 2 2.64626 10.6846 -1.77822 2.64626 10.6846 -1.77822
166 1 3.93676 12.4205 -0.422319 3.93676 12.4205 -0.422319
167 2 5.73219 12.4567 1.43723 5.73219 12.4567 1.43723
168 2 5.93679 12.462 -1.79177 5.93679 12.462 -1.79177
169 1 6.75174 10.7939 -0.0974185 6.75174 10.7939 -0.0974185
170 2 8.81012 10.9535 1.44399 8.81012 10.9535 1.44399
171 2 8.67089 10.6752 -1.7385 8.67089 10.6752 -1.7385
172 1 9.68465 12.5297 -0.27397 9.68465 12.5297 -0.27397
173 2 11.5855 12.4514 1.2803 11.5855 12.4514 1.2803
174 2 11.5504 12.5677 -1.94364 11.5504 12.5677 -1.94364
175 1 12.4878 10.7583 -0.450922 12.4878 10.7583 -0.450922
176 2 14.3274 10.9873 1.18241 14.3274 10.9873 1.18241
177 2 14.5019 10.8825 -2.08748 14.5019 10.8825 -2.08748
178 1 15.3685 12.6302 -0.53012 15.3685 12.6302 -0.53012
179 2 17.1852 12.6405 1.18218 17.1852 12.6405 1.18218
180 2 17.4039 12.5783 -2.07658 17.4039 12.5783 -2.07658
181 1 18.1455 10.9598 -0.328743 18.1455 10.9598 -0.328743
182 2 20.0903 11.055 1.1764 20.0903 11.055 1.1764
183 2 19.9551 10.6622 -1.91379 19.9551 10.6622 -1.91379
184 1 20.9348 12.5199 -0.581617 20.9348 12.5199 -0.581617
185 2 22.9368 12.5958 1.04082 22.9368 12.5958 1.04082
186 2 22.8606 12.2909 -2.11819 22.8606 12.2909 -2.11819
187 1 23.9255 10.8771 -0.373968 23.9255 10.8771 -0.373968
188 2 25.9191 11.0183 1.16066 25.9191 11.0183 1.16066
189 2 25.6679 10.8477 -2.12999 25.6679 10.8477 -2.12999
190 1 26.7007 12.5558 -0.637859 26.7007 12.5558 -0.637859
191 2 28.4671 12.3728 1.04678 28.4671 12.3728 1.04678
192 2 28.7778 12.5101 -2.21701 28.7778 12.5101 -2.21701
193 1 29.6354 10.8248 -0.625313 29.6354 10.8248 -0.625313
194 2 31.3136 11.1962 1.20551 31.3136 11.1962 1.20551
195 2 31.7373 10.7371 -1.8988 31.7373 10.7371 -1.8988
196 1 32.4484 12.6025 -0.38601 32.4484 12.6025 -0.38601
197 2 34.2431 12.6829 1.47302 34.2431 12.6829 1.47302
198 2 34.412 12.3945 -1.79502 34.412 12.3945 -1.79502
199 1 35.2315 10.8461 0.125227 35.2315 10.8461 0.125227
200 2 37.1934 10.9522 1.74633 37.1934 10.9522 1.74633
201 2 37.1754 10.7227 -1.49564 37.1754 10.7227 -1.49564
202 1 38.0193 12.5149 0.061274 38.0193 12.5149 0.061274
203 2 39.8809 12.4637 1.70676 39.8809 12.4637 1.70676
204 2 39.926 12.5538 -1.51088 39.926 12.5538 -1.51088
205 1 40.9485 10.9336 0.0363643 40.9485 10.9336 0.0363643
206 2 42.8131 10.8678 1.60553 42.8131 10.8678 1.60553
207 2 43.0646 10.8473 -1.55907 43.0646 10.8473 -1.55907
208 1 43.8575 12.6199 0.0950307 43.8575 12.6199 0.0950307
209 2 45.8629 12.5928 1.65751 45.8629 12.5928 1.65751
210 2 45.6187 12.4129 -1.53827 45.6187 12.4129 -1.53827
211 1 46.6752 10.8227 0.11836 46.6752 10.8227 0.11836
212 2 48.4845 10.8946 1.71866 48.4845 10.8946 1.71866
213 2 48.569 10.652 -1.47949 48.569 10.652 -1.47949
214 1 49.4775 12.4255 0.0979669 49.4775 12.4255 0.0979669
215 2 51.4927 12.4279 1.62636 51.4927 12.4279 1.62636
216 2 51.3032 12.2948 -1.65894 51.3032 12.2948 -1.65894
217 1 1.01829 14.0709 -0.256845 1.01829 14.0709 -0.256845
218 2 2.98522 14.0134 1.34745 2.98522 14.0134 1.34745
219 2 2.82611 14.0871 -1.98496 2.82611 14.0871 -1.98496
220 1 3.89062 15.718 -0.361592 3.89062 15.718 -0.361592
221 2 5.82897 15.8687 1.21107 5.82897 15.8687 1.21107
222 2 5.80945 15.6802 -1.96594 5.80945 15.6802 -1.96594
223 1 6.78959 14.1383 -0.19232 6.78959 14.1383 -0.19232
224 2 8.66187 14.275 1.36443 8.66187 14.275 1.36443
225 2 8.5391 14.1991 -1.8281 8.5391 14.1991 -1.8281
226 1 9.60359 15.8611 -0.384344 9.60359 15.8611 -0.384344
227 2 11.5116 15.7839 1.35085 11.5116 15.7839 1.35085
228 2 11.5989 15.725 -1.9823 11.5989 15.725 -1.9823
229 1 12.5221 14.1665 -0.304112 12.5221 14.1665 -0.304112
230 2 14.526 14.0512 1.30316 14.526 14.0512 1.30316
231 2 14.3375 14.1843 -2.03495 14.3375 14.1843 -2.03495
232 1 15.3298 15.8673 -0.315739 15.3298 15.8673 -0.315739
233 2 17.2729 16.0123 1.21982 17.2729 16.0123 1.21982
234 2 17.0351 15.6287 -2.08476 17.0351 15.6287 -2.08476
235 1 18.2058 14.1705 -0.339096 18.2058 14.1705 -0.339096
236 2 20.2529 14.3014 1.1133 20.2529 14.3014 1.1133
237 2 20.004 14.3646 -2.0954 20.004 14.3646 -2.0954
238 1 21.0282 15.8563 -0.631444 21.0282 15.8563 -0.631444
239 2 22.8227 15.7036 1.09602 22.8227 15.7036 1.09602
240 2 22.9617 16.025 -2.30705 22.9617 16.025 -2.30705
241 1 23.8677 14.172 -0.714856 23.8677 14.172 -0.714856
242 2 25.5974 14.0091 1.13174 25.5974 14.0091 1.13174
243 2 25.8321 14.2299 -2.22318 25.8321 14.2299 -2.22318
244 1 26.6938 15.7158 -0.328028 26.6938 15.7158 -0.328028
245 2 28.6563 15.6006 1.23806 28.6563 15.6006 1.23806
246 2 28.4629 15.7027 -2.00614 28.4629 15.7027 -2.00614
247 1 29.5304 14.0875 -0.449527 29.5304 14.0875 -0.449527
248 2 31.4257 14.2173 1.19531 31.4257 14.2173 1.19531
249 2 31.4741 14.1386 -2.10081 31.4741 14.1386 -2.10081
250 1 32.4173 15.8139 -0.528569 32.4173 15.8139 -0.528569
251 2 34.2837 15.8803 1.25233 34.2837 15.8803 1.25233
252 2 34.4504 15.6767 -2.02552 34.4504 15.6767 -2.02552
253 1 35.2795 14.161 -0.210743 35.2795 14.161 -0.210743
254 2 36.9966 14.1919 1.61848 36.9966 14.1919 1.61848
255 2 37.3206 14.1742 -1.64845 37.3206 14.1742 -1.64845
256 1 38.0629 15.8269 0.111888 38.0629 15.8269 0.111888
257 2 39.9277 15.916 1.71497 39.9277 15.916 1.71497
258 2 39.9773 15.6493 -1.47015 39.9773 15.6493 -1.47015
259 1 40.8934 14.1181 0.280848 40.8934 14.1181 0.280848
260 2 42.8774 14.2144 1.78892 42.8774 14.2144 1.78892
261 2 42.7433 14.1715 -1.43875 42.7433 14.1715 -1.43875
262 1 43.7352 15.8221 0.111593 43.7352 15.8221 0.111593
263 2 45.7224 15.661 1.68417 45.7224 15.661 1.68417
264 2 45.673 16.0222 -1.58729 45.673 16.0222 -1.58729
265 1 46.6567 14.2094 -0.101193 46.6567 14.2094 -0.101193
266 2 48.5511 14.1067 1.56106 48.5511 14.1067 1.56106
267 2 48.585 14.0249 -1.66287 48.585 14.0249 -1.66287
268 1 49.5249 15.6908 -0.12504 49.5249 15.6908 -0.12504
269 2 51.5142 15.6795 1.47846 51.5142 15.6795 1.47846
270 2 51.3307 15.7539 -1.8567 51.3307 15.7539 -1.8567
271 1 0.925974 17.365 -0.12688 0.925974 17.365 -0.12688
272 2 2.91452 17.3971 1.29049 2.91452 17.3971 1.29049
273 2 2.84742 17.3574 -1.88603 2.84742 17.3574 -1.88603
274 1 3.89838 19.0732 -0.35682 3.89838 19.0732 -0.35682
275 2 5.95292 19.3025 1.13207 5.95292 19.3025 1.13207
276 2 5.64776 18.9267 -2.09633 5.64776 18.9267 -2.09633
277 1 6.81076 17.4351 -0.434841 6.81076 17.4351 -0.434841
278 2 8.74202 17.6093 1.22631 8.74202 17.6093 1.22631
279 2 8.69555 17.3904 -2.1098 8.69555 17.3904 -2.1098
280 1 9.59 19.1316 -0.546976 9.59 19.1316 -0.546976
281 2 11.6007 19.2776 1.16257 11.6007 19.2776 1.16257
282 2 11.4388 18.9597 -2.21664 11.4388 18.9597 -2.21664
283 1 12.488 17.4944 -0.352822 12.488 17.4944 -0.352822
284 2 14.4716 17.6148 1.1441 14.4716 17.6148 1.1441
285 2 14.2495 17.4691 -2.15455 14.2495 17.4691 -2.15455
286 1 15.3032 19.1855 -0.59089 15.3032 19.1855 -0.59089
287 2 17.2785 19.1884 0.934944 17.2785 19.1884 0.934944
288 2 17.1485 19.1002 -2.26785 17.1485 19.1002 -2.26785
289 1 18.1512 17.4485 -0.612859 18.1512 17.4485 -0.612859
290 2 19.9308 17.4695 1.01489 19.9308 17.4695 1.01489
291 2 20.0565 17.5225 -2.11299 20.0565 17.5225 -2.11299
292 1 20.9643 19.1785 -0.38077 20.9643 19.1785 -0.38077
293 2 22.8592 19.1248 1.21824 22.8592 19.1248 1.21824
294 2 22.9592 19.1013 -2.07536 22.9592 19.1013 -2.07536
295 1 23.8444 17.3851 -0.432013 23.8444 17.3851 -0.432013
296 2 25.7551 17.3552 1.23068 25.7551 17.3552 1.23068
297 2 25.7715 17.2579 -1.99261 25.7715 17.2579 -1.99261
298 1 26.6912 19.1036 -0.300155 26.6912 19.1036 -0.300155
299 2 28.5439 18.9419 1.30335 28.5439 18.9419 1.30335
300 2 28.5028 19.0485 -2.00153 28.5028 19.0485 -2.00153
301 1 29.4939 17.3581 -0.384722 29.4939 17.3581 -0.384722
302 2 31.3725 17.1992 1.26007 31.3725 17.1992 1.26007
303 2 31.4474 17.6197 -1.90454 31.4474 17.6197 -1.90454
304 1 32.4273 19.0401 -0.083906 32.4273 19.0401 -0.083906
305 2 34.5093 19.1363 1.30873 34.5093 19.1363 1.30873
306 2 34.1693 19.163 -1.85362 34.1693 19.163 -1.85362
307 1 35.2784 17.5185 -0.360857 35.2784 17.5185 -0.360857
308 2 36.9627 17.6242 1.39103 36.9627 17.6242 1.39103
309 2 37.3302 17.1802 -1.76455 37.3302 17.1802 -1.76455
310 1 38.0455 19.0403 -0.311012 38.0455 19.0403 -0.311012
311 2 39.8088 19.1208 1.57954 39.8088 19.1208 1.57954
312 2 40.135 19.1202 -1.68763 40.135 19.1202 -1.68763
313 1 40.8991 17.4463 0.0461586 40.8991 17.4463 0.0461586
314 2 42.7487 17.3215 1.79987 42.7487 17.3215 1.79987
315 2 42.8768 17.5879 -1.43586 42.8768 17.5879 -1.43586
316 1 43.7988 19.0893 0.427989 43.7988 19.0893 0.427989
317 2 45.9258 19.0268 1.9724 45.9258 19.0268 1.9724
318 2 45.6073 19.0374 -1.3079 45.6073 19.0374 -1.3079
319 1 46.6465 17.4038 0.246543 46.6465 17.4038 0.246543
320 2 48.7302 17.2592 1.76086 48.7302 17.2592 1.76086
321 2 48.4247 17.4645 -1.46912 48.4247 17.4645 -1.46912
322 1 49.5662 19.0947 0.25884 49.5662 19.0947 0.25884
323 2 51.5457 18.9311 1.73012 51.5457 18.9311 1.73012
324 2 51.3099 19.2131 -1.52578 51.3099 19.2131 -1.52578
325 1 1.02287 20.6852 0.0842174 1.02287 20.6852 0.0842174
326 2 3.20605 20.7602 1.30739 3.20605 20.7602 1.30739
327 2 2.71757 20.776 -1.79812 2.71757 20.776 -1.79812
328 1 3.93809 22.4474 -0.368226 3.93809 22.4474 -0.368226
329 2 5.99692 22.4469 1.05685 5.99692 22.4469 1.05685
330 2 5.63404 22.442 -2.19369 5.63404 22.442 -2.19369
331 1 6.71255 20.7652 -0.609402 6.71255 20.7652 -0.609402
332 2 8.7184 21.0283 0.90814 8.7184 21.0283 0.90814
333 2 8.5375 20.5697 -2.31458 8.5375 20.5697 -2.31458
334 1 9.56012 22.4818 -0.899882 9.56012 22.4818 -0.899882
335 2 11.3549 22.5451 0.763591 11.3549 22.5451 0.763591
336 2 11.6003 22.3495 -2.47447 11.6003 22.3495 -2.47447
337 1 12.4392 20.7669 -0.697737 12.4392 20.7669 -0.697737
338 2 14.2893 20.8484 1.00926 14.2893 20.8484 1.00926
339 2 14.4418 20.8414 -2.2417 14.4418 20.8414 -2.2417
340 1 15.3139 22.4217 -0.588489 15.3139 22.4217 -0.588489
341 2 17.3184 22.3378 0.972577 17.3184 22.3378 0.972577
342 2 17.1873 22.497 -2.24873 17.1873 22.497 -2.24873
343 1 18.2294 20.759 -0.646259 18.2294 20.759 -0.646259
344 2 19.9548 20.9097 1.12615 19.9548 20.9097 1.12615
345 2 20.263 20.6981 -2.14824 20.263 20.6981 -2.14824
346 1 21.017 22.4733 -0.640088 21.017 22.4733 -0.640088
347 2 22.8698 22.4781 1.06748 22.8698 22.4781 1.06748
348 2 22.9172 22.4662 -2.15477 22.9172 22.4662 -2.15477
349 1 23.8351 20.8036 -0.479755 23.8351 20.8036 -0.479755
350 2 25.7884 20.9415 1.18111 25.7884 20.9415 1.18111
351 2 25.8449 20.7965 -2.07578 25.8449 20.7965 -2.07578
352 1 26.7432 22.5312 -0.548212 26.7432 22.5312 -0.548212
353 2 28.5125 22.4429 1.22309 28.5125 22.4429 1.22309
354 2 28.7449 22.3518 -2.07289 28.7449 22.3518 -2.07289
355 1 29.5242 20.6604 -0.299086 29.5242 20.6604 -0.299086
356 2 31.2637 20.9188 1.45136 31.2637 20.9188 1.45136
357 2 31.5082 20.6283 -1.88653 31.5082 20.6283 -1.88653
358 1 32.3855 22.3891 -0.368187 32.3855 22.3891 -0.368187
359 2 34.2523 22.3273 1.25025 34.2523 22.3273 1.25025
360 2 34.3219 22.4081 -1.91705 34.3219 22.4081 -1.91705
361 1 35.2856 20.7636 -0.232074 35.2856 20.7636 -0.232074
362 2 37.2095 20.6545 1.39211 37.2095 20.6545 1.39211
363 2 37.1825 20.8765 -1.89378 37.1825 20.8765 -1.89378
364 1 38.1378 22.4476 -0.132352 38.1378 22.4476 -0.132352
365 2 39.9262 22.625 1.61423 39.9262 22.625 1.61423
366 2 40.0401 22.4887 -1.67902 40.0401 22.4887 -1.67902
367 1 40.9506 20.8851 0.0917454 40.9506 20.8851 0.0917454
368 2 42.684 20.8778 1.81493 42.684 20.8778 1.81493
369 2 43.002 20.6284 -1.36734 43.002 20.6284 -1.36734
370 1 43.7782 22.4096 0.122548 43.7782 22.4096 0.122548
371 2 45.6295 22.4943 1.73548 45.6295 22.4943 1.73548
372 2 45.8914 22.3133 -1.5369 45.8914 22.3133 -1.5369
373 1 46.6411 20.7168 0.234356 46.6411 20.7168 0.234356
374 2 48.5973 20.8963 1.79066 48.5973 20.8963 1.79066
375 2 48.4517 20.5677 -1.42557 48.4517 20.5677 -1.42557
376 1 49.4723 22.3177 -0.016033 49.4723 22.3177 -0.016033
377 2 51.4181 22.4279 1.66286 51.4181 22.4279 1.66286
378 2 51.4415 22.2884 -1.69494 51.4415 22.2884 -1.69494
379 1 1.09907 23.9963 -0.108599 1.09907 23.9963 -0.108599
380 2 3.20307 24.0774 1.35801 3.20307 24.0774 1.35801
381 2 2.84728 24.0291 -1.90405 2.84728 24.0291 -1.90405
382 1 3.87743 25.6798 -0.30191 3.87743 25.6798 -0.30191
383 2 6.00446 25.5703 1.22157 6.00446 25.5703 1.22157
384 2 5.67824 25.8396 -2.06949 5.67824 25.8396 -2.06949
385 1 6.7826 24.1064 -0.664599 6.7826 24.1064 -0.664599
386 2 8.71714 24.0379 0.906347 8.71714 24.0379 0.906347
387 2 8.68535 24.2056 -2.34435 8.68535 24.2056 -2.34435
388 1 9.58612 25.7676 -0.652303 9.58612 25.7676 -0.652303
389 2 11.6066 25.6793 0.847716 11.6066 25.6793 0.847716
390 2 11.434 25.8023 -2.41092 11.434 25.8023 -2.41092
391 1 12.4402 24.0886 -0.918876 12.4402 24.0886 -0.918876
392 2 14.223 24.1058 0.904559 14.223 24.1058 0.904559
393 2 14.6222 24.1404 -2.30782 14.6222 24.1404 -2.30782
394 1 15.4018 25.7722 -0.620006 15.4018 25.7722 -0.620006
395 2 17.3359 25.8718 0.872165 17.3359 25.8718 0.872165
396 2 17.1779 25.7451 -2.33184 17.1779 25.7451 -2.33184
397 1 18.2542 24.0515 -0.651742 18.2542 24.0515 -0.651742
398 2 20.0763 24.1919 0.906551 20.0763 24.1919 0.906551
399 2 20.2176 24.0581 -2.29719 20.2176 24.0581 -2.29719
400 1 21.0087 25.7652 -0.782822 21.0087 25.7652 -0.782822
401 2 22.7781 25.8391 1.00096 22.7781 25.8391 1.00096
402 2 22.972 25.7139 -2.27203 22.972 25.7139 -2.27203
403 1 23.8208 24.106 -0.546357 23.8208 24.106 -0.546357
404 2 25.7749 24.067 1.1565 25.7749 24.067 1.1565
405 2 25.7745 24.225 -2.13252 25.7745 24.225 -2.13252
406 1 26.6887 25.8367 -0.454152 26.6887 25.8367 -0.454152
407 2 28.6057 25.6635 1.15284 28.6057 25.6635 1.15284
408 2 28.6307 25.7315 -2.12595 28.6307 25.7315 -2.12595
409 1 29.5016 24.0235 -0.440405 29.5016 24.0235 -0.440405
410 2 31.4504 24.0941 1.09877 31.4504 24.0941 1.09877
411 2 31.4229 23.9489 -2.04995 31.4229 23.9489 -2.04995
412 1 32.3064 25.6931 -0.535916 32.3064 25.6931 -0.535916
413 2 34.1731 25.7302 1.34822 34.1731 25.7302 1.34822
414 2 34.3751 25.7496 -1.87715 34.3751 25.7496 -1.87715
415 1 35.1706 24.0628 -0.276739 35.1706 24.0628 -0.276739
416 2 37.0986 24.1143 1.37616 37.0986 24.1143 1.37616
417 2 37.186 24.0364 -1.90237 37.186 24.0364 -1.90237
418 1 38.0147 25.7144 -0.219501 38.0147 25.7144 -0.219501
419 2 39.9378 25.7523 1.486 39.9378 25.7523 1.486
420 2 39.9812 25.5933 -1.73844 39.9812 25.5933 -1.73844
421 1 40.9439 24.0771 -0.0796574 40.9439 24.0771 -0.0796574
422 2 42.7606 24.161 1.64005 42.7606 24.161 1.64005
423 2 42.9105 24.051 -1.67104 42.9105 24.051 -1.67104
424 1 43.8452 25.6645 -0.0305553 43.8452 25.6645 -0.0305553
425 2 45.7112 25.8481 1.55677 45.7112 25.8481 1.55677
426 2 45.6404 25.6492 -1.69051 45.6404 25.6492 -1.69051
427 1 46.6208 24.0431 0.0557967 46.6208 24.0431 0.0557967
428 2 48.6404 23.9844 1.68014 48.6404 23.9844 1.68014
429 2 48.4499 24.1349 -1.62174 48.4499 24.1349 -1.62174
430 1 49.5562 25.5925 0.0210691 49.5562 25.5925 0.0210691
431 2 51.6062 25.8854 1.37098 51.6062 25.8854 1.37098
432 2 51.2696 25.4626 -1.79123 51.2696 25.4626 -1.79123
433 1 0.97524 27.3139 -0.431767 0.97524 27.3139 -0.431767
434 2 2.9453 27.3667 1.15796 2.9453 27.3667 1.15796
435 2 2.92838 27.1447 -2.0368 2.92838 27.1447 -2.0368
436 1 3.90863 28.9505 -0.53403 3.90863 28.9505 -0.53403
437 2 5.78944 29.1904 1.07246 5.78944 29.1904 1.07246
438 2 5.71391 28.9636 -2.21147 5.71391 28.9636 -2.21147
439 1 6.68534 27.4 -0.425612 6.68534 27.4 -0.425612
440 2 8.79273 27.5146 0.997104 8.79273 27.5146 0.997104
441 2 8.42393 27.4245 -2.24869 8.42393 27.4245 -2.24869
442 1 9.59739 29.1466 -0.787797 9.59739 29.1466 -0.787797
443 2 11.5833 29.0282 0.855982 11.5833 29.0282 0.855982
444 2 11.5426 29.0831 -2.45775 11.5426 29.0831 -2.45775
445 1 12.4729 27.4619 -0.789454 12.4729 27.4619 -0.789454
446 2 14.3192 27.4977 0.910744 14.3192 27.4977 0.910744
447 2 14.3772 27.3733 -2.4387 14.3772 27.3733 -2.4387
448 1 15.2729 29.095 -0.837148 15.2729 29.095 -0.837148
449 2 17.1943 29.1085 0.735548 17.1943 29.1085 0.735548
450 2 17.0334 28.9256 -2.51559 17.0334 28.9256 -2.51559
451 1 18.171 27.4972 -0.801923 18.171 27.4972 -0.801923
452 2 20.0428 27.6117 0.780183 20.0428 27.6117 0.780183
453 2 19.9785 27.3621 -2.49526 19.9785 27.3621 -2.49526
454 1 21.0246 29.0927 -1.00051 21.0246 29.0927 -1.00051
455 2 22.7681 29.1368 0.870728 22.7681 29.1368 0.870728
456 2 23.0148 29.0216 -2.42467 23.0148 29.0216 -2.42467
457 1 23.8586 27.4376 -0.637752 23.8586 27.4376 -0.637752
458 2 25.6704 27.54 1.07284 25.6704 27.54 1.07284
459 2 25.6713 27.3609 -2.15011 25.6713 27.3609 -2.15011
460 1 26.668 29.0546 -0.672042 26.668 29.0546 -0.672042
461 2 28.5229 29.1373 1.00095 28.5229 29.1373 1.00095
462 2 28.6619 29.0273 -2.24925 28.6619 29.0273 -2.24925
463 1 29.5236 27.3597 -0.464593 29.5236 27.3597 -0.464593
464 2 31.4882 27.3213 1.07766 31.4882 27.3213 1.07766
465 2 31.4189 27.4248 -2.21283 31.4189 27.4248 -2.21283
466 1 32.4485 29.0309 -0.530144 32.4485 29.0309 -0.530144
467 2 34.1541 29.0993 1.22567 34.1541 29.0993 1.22567
468 2 34.45 28.891 -1.98054 34.45 28.891 -1.98054
469 1 35.1742 27.3531 -0.216694 35.1742 27.3531 -0.216694
470 2 37.1133 27.5641 1.39014 37.1133 27.5641 1.39014
471 2 37.053 27.3117 -1.95813 37.053 27.3117 -1.95813
472 1 38.0869 28.9021 -0.391441 38.0869 28.9021 -0.391441
473 2 39.8848 29.0739 1.21737 39.8848 29.0739 1.21737
474 2 40.0505 28.7326 -1.9694 40.0505 28.7326 -1.9694
475 1 41.016 27.2774 -0.193001 41.016 27.2774 -0.193001
476 2 42.9639 27.5817 1.36999 42.9639 27.5817 1.36999
477 2 42.9126 27.03 -1.86233 42.9126 27.03 -1.86233
478 1 43.8098 28.9407 -0.4934 43.8098 28.9407 -0.4934
479 2 45.6035 29.1072 1.28936 45.6035 29.1072 1.28936
480 2 45.8655 28.9359 -1.90883 45.8655 28.9359 -1.90883
481 1 46.7067 27.3644 -0.193209 46.7067 27.3644 -0.193209
482 2 48.5069 27.4632 1.3652 48.5069 27.4632 1.3652
483 2 48.6887 27.189 -1.75247 48.6887 27.189 -1.75247
484 1 49.4876 29.0487 -0.343246 49.4876 29.0487 -0.343246
485 2 51.4025 28.8463 1.35709 51.4025 28.8463 1.35709
486 2 51.4037 29.12 -1.87976 51.4037 29.12 -1.87976
487 1 1.07382 30.7044 -0.161886 1.07382 30.7044 -0.161886
488 2 3.13511 30.5755 1.28069 3.13511 30.5755 1.28069
489 2 2.91353 30.7401 -1.91244 2.91353 30.7401 -1.91244
490 1 3.94959 32.3297 -0.225149 3.94959 32.3297 -0.225149
491 2 6.15172 32.1388 1.23309 6.15172 32.1388 1.23309
492 2 5.71848 32.5763 -1.92955 5.71848 32.5763 -1.92955
493 1 6.73531 30.649 -0.691161 6.73531 30.649 -0.691161
494 2 8.63074 30.62 0.968379 8.63074 30.62 0.968379
495 2 8.54252 30.7757 -2.34332 8.54252 30.7757 -2.34332
496 1 9.63936 32.3834 -0.595306 9.63936 32.3834 -0.595306
497 2 11.5947 32.3168 0.984566 11.5947 32.3168 0.984566
498 2 11.4152 32.4216 -2.362 11.4152 32.4216 -2.362
499 1 12.5208 30.6468 -0.793755 12.5208 30.6468 -0.793755
500 2 14.4979 30.719 0.821448 14.4979 30.719 0.821448
501 2 14.4011 30.7487 -2.55942 14.4011 30.7487 -2.55942
502 1 15.3324 32.377 -0.999086 15.3324 32.377 -0.999086
503 2 17.1801 32.2257 0.670393 17.1801 32.2257 0.670393
504 2 17.2452 32.3394 -2.53557 17.2452 32.3394 -2.53557
505 1 18.0622 30.6918 -0.988312 18.0622 30.6918 -0.988312
506 2 20.1283 30.8304 0.529065 20.1283 30.8304 0.529065
507 2 19.8103 30.6432 -2.67792 19.8103 30.6432 -2.67792
508 1 20.9525 32.3986 -1.28234 20.9525 32.3986 -1.28234
509 2 22.5991 32.4392 0.624329 22.5991 32.4392 0.624329
510 2 23.1393 32.3088 -2.66291 23.1393 32.3088 -2.66291
511 1 23.7529 30.6845 -0.827429 23.7529 30.6845 -0.827429
512 2 25.7453 30.6022 0.899191 25.7453 30.6022 0.899191
513 2 25.8153 30.6543 -2.35169 25.8153 30.6543 -2.35169
514 1 26.7151 32.3574 -0.631377 26.7151 32.3574 -0.631377
515 2 28.588 32.3081 1.07365 28.588 32.3081 1.07365
516 2 28.5584 32.4046 -2.1783 28.5584 32.4046 -2.1783
517 1 29.5477 30.6822 -0.628308 29.5477 30.6822 -0.628308
518 2 31.3591 30.7803 1.04523 31.3591 30.7803 1.04523
519 2 31.5521 30.7372 -2.24417 31.5521 30.7372 -2.24417
520 1 32.3981 32.3544 -0.562106 32.3981 32.3544 -0.562106
521 2 34.2891 32.2943 1.30143 34.2891 32.2943 1.30143
522 2 34.5079 32.2999 -2.08122 34.5079 32.2999 -2.08122
523 1 35.2151 30.6521 -0.39986 35.2151 30.6521 -0.39986
524 2 37.0563 30.5743 1.24453 37.0563 30.5743 1.24453
525 2 37.2137 30.6616 -2.06013 37.2137 30.6616 -2.06013
526 1 38.1212 32.2519 -0.334754 38.1212 32.2519 -0.334754
527 2 40.0971 32.298 1.22403 40.0971 32.298 1.22403
528 2 40.0043 32.2201 -2.05211 40.0043 32.2201 -2.05211
529 1 40.8768 30.5471 -0.512788 40.8768 30.5471 -0.512788
530 2 42.8575 30.4831 1.12596 42.8575 30.4831 1.12596
531 2 42.8279 30.643 -2.12179 42.8279 30.643 -2.12179
532 1 43.7761 32.2999 -0.447183 43.7761 32.2999 -0.447183
533 2 45.6393 32.4448 1.24034 45.6393 32.4448 1.24034
534 2 45.7479 32.1563 -2.00334 45.7479 32.1563 -2.00334
535 1 46.7396 30.6681 -0.306277 46.7396 30.6681 -0.306277
536 2 48.5962 30.6802 1.24948 48.5962 30.6802 1.24948
537 2 48.524 30.6295 -1.97666 48.524 30.6295 -1.97666
538 1 49.5462 32.3062 -0.414883 49.5462 32.3062 -0.414883