ITEM: TIMESTEP
98100
ITEM: NUMBER OF ATOMS
810
ITEM: BOX BOUNDS pp pp pp
8.0169491463138354e-01 5.2215910085369188e+01
7.9063559189035970e-01 5.0225579408108779e+01
-1.0000000000000000e+01 1.0000000000000000e+01
ITEM: ATOMS id type x y z xu yu zu
1 1 1.00472 0.968306 0.20381 1.00472 0.968306 0.20381
2 2 2.80735 50.4465 1.9276 2.80735 1.01156 1.9276
3 2 2.87741 1.00641 -1.35952 2.87741 1.00641 -1.35952
4 1 3.86698 2.63834 0.336011 3.86698 2.63834 0.336011
5 2 5.85149 2.38736 1.97566 5.85149 2.38736 1.97566
6 2 5.72874 2.81337 -1.29719 5.72874 2.81337 -1.29719
7 1 6.75828 0.958026 0.161866 6.75828 0.958026 0.161866
8 2 8.75993 50.3682 1.73211 8.75993 0.933268 1.73211
9 2 8.63405 1.07342 -1.49437 8.63405 1.07342 -1.49437
10 1 9.71024 2.70655 0.22348 9.71024 2.70655 0.22348
11 2 11.7254 2.88289 1.67737 11.7254 2.88289 1.67737
12 2 11.3603 2.61522 -1.66498 11.3603 2.61522 -1.66498
13 1 12.5114 1.01716 -0.127693 12.5114 1.01716 -0.127693
14 2 14.4571 1.02784 1.43986 14.4571 1.02784 1.43986
15 2 14.3363 1.01143 -1.90364 14.3363 1.01143 -1.90364
16 1 15.3205 2.63347 -0.349639 15.3205 2.63347 -0.349639
17 2 17.2216 2.75258 1.39883 17.2216 2.75258 1.39883
18 2 17.3326 2.66596 -1.85378 17.3326 2.66596 -1.85378
19 1 18.1972 1.06982 -0.154561 18.1972 1.06982 -0.154561
20 2 20.1464 1.07898 1.45469 20.1464 1.07898 1.45469
21 2 20.1849 1.14348 -1.68035 20.1849 1.14348 -1.68035
22 1 21.1074 2.81634 -0.0503524 21.1074 2.81634 -0.0503524
23 2 23.0042 2.75543 1.68561 23.0042 2.75543 1.68561
24 2 22.9679 2.647 -1.64979 22.9679 2.647 -1.64979
25 1 23.9017 1.11039 0.108228 23.9017 1.11039 0.108228
26 2 25.7672 0.876398 1.80937 25.7672 0.876398 1.80937
27 2 25.8356 1.43228 -1.57405 25.8356 1.43228 -1.57405
28 1 26.6744 2.75289 0.361189 26.6744 2.75289 0.361189
29 2 28.5611 2.61871 1.98141 28.5611 2.61871 1.98141
30 2 28.5422 2.91578 -1.27437 28.5422 2.91578 -1.27437
31 1 29.4282 1.03102 0.235093 29.4282 1.03102 0.235093
32 2 31.3154 0.915278 1.92641 31.3154 0.915278 1.92641
33 2 31.2638 1.206 -1.39333 31.2638 1.206 -1.39333
34 1 32.2917 2.63944 0.435206 32.2917 2.63944 0.435206
35 2 34.2271 2.8003 1.96534 34.2271 2.8003 1.96534
36 2 34.1181 2.65914 -1.31272 34.1181 2.65914 -1.31272
37 1 35.1385 1.10312 0.317894 35.1385 1.10312 0.317894
38 2 36.9924 50.5368 1.96084 36.9924 1.1019 1.96084
39 2 37.2154 0.805232 -1.19846 37.2154 0.805232 -1.19846
40 1 38.1408 2.59972 0.290515 38.1408 2.59972 0.290515
41 2 39.8831 2.61494 2.18461 39.8831 2.61494 2.18461
42 2 40.2836 2.68471 -1.05235 40.2836 2.68471 -1.05235
43 1 40.9864 1.00825 0.707687 40.9864 1.00825 0.707687
44 2 42.706 0.973839 2.40847 42.706 0.973839 2.40847
45 2 42.9743 1.12884 -0.790352 42.9743 1.12884 -0.790352
46 1 43.8612 2.63764 0.910329 43.8612 2.63764 0.910329
47 2 45.9175 2.61587 2.36474 45.9175 2.61587 2.36474
48 2 45.6391 2.62265 -0.90557 45.6391 2.62265 -0.90557
49 1 46.7424 0.957422 0.685812 46.7424 0.957422 0.685812
50 2 48.7158 0.923632 2.07242 48.7158 0.923632 2.07242
51 2 48.4146 0.920645 -1.17903 48.4146 0.920645 -1.17903
52 1 49.5269 2.55247 0.223598 49.5269 2.55247 0.223598
53 2 51.3086 2.36037 1.92265 51.3086 2.36037 1.92265
54 2 51.5306 2.73361 -1.23827 51.5306 2.73361 -1.23827
55 1 0.97605 4.26676 0.584189 0.97605 4.26676 0.584189
56 2 3.04397 4.33802 1.97223 3.04397 4.33802 1.97223
57 2 2.72399 4.3069 -1.21639 2.72399 4.3069 -1.21639
58 1 3.78053 5.98242 0.301899 3.78053 5.98242 0.301899
59 2 5.70803 6.08315 2.01254 5.70803 6.08315 2.01254
60 2 5.75299 5.96341 -1.32123 5.75299 5.96341 -1.32123
61 1 6.76135 4.3049 0.508847 6.76135 4.3049 0.508847
62 2 8.91342 4.29634 1.95072 8.91342 4.29634 1.95072
63 2 8.39154 4.32666 -1.28005 8.39154 4.32666 -1.28005
64 1 9.55235 5.99322 0.129705 9.55235 5.99322 0.129705
65 2 11.6322 5.98545 1.5495 11.6322 5.98545 1.5495
66 2 11.2078 5.92991 -1.63604 11.2078 5.92991 -1.63604
67 1 12.3997 4.34198 -0.18552 12.3997 4.34198 -0.18552
68 2 14.4245 4.22653 1.44719 14.4245 4.22653 1.44719
69 2 14.2591 4.41249 -1.80928 14.2591 4.41249 -1.80928
70 1 15.3129 5.95225 -0.035692 15.3129 5.95225 -0.035692
71 2 17.2727 5.97361 1.50718 17.2727 5.97361 1.50718
72 2 17.1031 6.00802 -1.7699 17.1031 6.00802 -1.7699
73 1 18.2209 4.35651 -0.246397 18.2209 4.35651 -0.246397
74 2 19.9825 4.38984 1.54304 19.9825 4.38984 1.54304
75 2 20.1674 4.43094 -1.70613 20.1674 4.43094 -1.70613
76 1 21.021 6.04941 -0.0430247 21.021 6.04941 -0.0430247
77 2 22.9363 6.03361 1.58281 22.9363 6.03361 1.58281
78 2 23.0278 5.99222 -1.65422 23.0278 5.99222 -1.65422
79 1 23.9135 4.38433 -0.0697612 23.9135 4.38433 -0.0697612
80 2 25.575 4.47666 1.80062 25.575 4.47666 1.80062
81 2 26.0358 4.41297 -1.36602 26.0358 4.41297 -1.36602
82 1 26.7036 6.1231 0.264884 26.7036 6.1231 0.264884
83 2 28.6111 5.99688 1.96831 28.6111 5.99688 1.96831
84 2 28.6486 5.87886 -1.29809 28.6486 5.87886 -1.29809
85 1 29.5486 4.32222 0.491446 29.5486 4.32222 0.491446
86 2 31.462 4.38091 2.03187 31.462 4.38091 2.03187
87 2 31.4053 4.32589 -1.29548 31.4053 4.32589 -1.29548
88 1 32.4459 5.94138 0.319133 32.4459 5.94138 0.319133
89 2 34.3711 5.83715 1.95607 34.3711 5.83715 1.95607
90 2 34.2989 6.10354 -1.35705 34.2989 6.10354 -1.35705
91 1 35.2508 4.33113 0.241662 35.2508 4.33113 0.241662
92 2 37.1041 4.22733 1.88675 37.1041 4.22733 1.88675
93 2 37.3221 4.35048 -1.29421 37.3221 4.35048 -1.29421
94 1 38.1765 5.95085 0.375744 38.1765 5.95085 0.375744
95 2 39.9573 6.14452 2.14609 39.9573 6.14452 2.14609
96 2 40.2964 5.91274 -1.06795 40.2964 5.91274 -1.06795
97 1 41.0006 4.31171 0.739968 41.0006 4.31171 0.739968
98 2 42.8551 4.41602 2.36203 42.8551 4.41602 2.36203
99 2 42.9641 4.21438 -0.832426 42.9641 4.21438 -0.832426
100 1 43.8687 5.93563 0.684014 43.8687 5.93563 0.684014
101 2 45.7608 5.90489 2.28572 45.7608 5.90489 2.28572
102 2 45.7589 5.85756 -0.953242 45.7589 5.85756 -0.953242
103 1 46.7749 4.27613 0.603562 46.7749 4.27613 0.603562
104 2 48.7553 3.9989 2.10577 48.7553 3.9989 2.10577
105 2 48.5452 4.3752 -1.11999 48.5452 4.3752 -1.11999
106 1 49.6024 5.87073 0.70173 49.6024 5.87073 0.70173
107 2 51.6001 5.89645 2.17749 51.6001 5.89645 2.17749
108 2 51.366 5.94739 -1.05012 51.366 5.94739 -1.05012
109 1 1.02561 7.49141 0.502213 1.02561 7.49141 0.502213
110 2 3.00024 7.68845 2.02524 3.00024 7.68845 2.02524
111 2 2.71104 7.48937 -1.34135 2.71104 7.48937 -1.34135
112 1 3.81312 9.19176 0.1405 3.81312 9.19176 0.1405
113 2 5.78528 9.34294 1.72394 5.78528 9.34294 1.72394
114 2 5.78384 9.02011 -1.46295 5.78384 9.02011 -1.46295
115 1 6.72077 7.52422 0.317687 6.72077 7.52422 0.317687
116 2 8.71189 7.65079 1.77167 8.71189 7.65079 1.77167
117 2 8.4448 7.56297 -1.47633 8.4448 7.56297 -1.47633
118 1 9.66509 9.16941 -0.0148799 9.66509 9.16941 -0.0148799
119 2 11.6603 9.4402 1.43165 11.6603 9.4402 1.43165
120 2 11.3209 8.96351 -1.77579 11.3209 8.96351 -1.77579
121 1 12.4587 7.63171 -0.0675087 12.4587 7.63171 -0.0675087
122 2 14.3272 7.6757 1.61666 14.3272 7.6757 1.61666
123 2 14.3752 7.50163 -1.69021 14.3752 7.50163 -1.69021
124 1 15.4146 9.17259 -0.174426 15.4146 9.17259 -0.174426
125 2 17.4283 9.38432 1.3533 17.4283 9.38432 1.3533
126 2 17.2198 8.99148 -1.90201 17.2198 8.99148 -1.90201
127 1 18.3253 7.61629 -0.133566 18.3253 7.61629 -0.133566
128 2 20.1307 7.62737 1.50789 20.1307 7.62737 1.50789
129 2 20.1946 7.46551 -1.82369 20.1946 7.46551 -1.82369
130 1 21.1696 9.28064 -0.220185 21.1696 9.28064 -0.220185
131 2 22.9893 9.45008 1.49856 22.9893 9.45008 1.49856
132 2 22.9578 9.14506 -1.76616 22.9578 9.14506 -1.76616
133 1 23.9522 7.7173 -0.0362633 23.9522 7.7173 -0.0362633
134 2 25.7948 7.89316 1.76146 25.7948 7.89316 1.76146
135 2 25.9224 7.57307 -1.57707 25.9224 7.57307 -1.57707
136 1 26.7886 9.38356 -0.0488854 26.7886 9.38356 -0.0488854
137 2 28.6554 9.45021 1.62694 28.6554 9.45021 1.62694
138 2 28.7151 9.14442 -1.53217 28.7151 9.14442 -1.53217
139 1 29.6164 7.60659 0.244431 29.6164 7.60659 0.244431
140 2 31.5293 7.61086 1.8347 31.5293 7.61086 1.8347
141 2 31.4576 7.52737 -1.32054 31.4576 7.52737 -1.32054
142 1 32.3794 9.27849 0.213078 32.3794 9.27849 0.213078
143 2 34.3169 9.42067 1.85978 34.3169 9.42067 1.85978
144 2 34.3181 9.17198 -1.39706 34.3181 9.17198 -1.39706
145 1 35.2461 7.60775 0.351855 35.2461 7.60775 0.351855
146 2 37.0639 7.47214 2.01175 37.0639 7.47214 2.01175
147 2 37.0947 7.65731 -1.26015 37.0947 7.65731 -1.26015
148 1 38.0135 9.2212 0.48873 38.0135 9.2212 0.48873
149 2 40.0912 9.47151 1.96976 40.0912 9.47151 1.96976
150 2 39.8284 8.93773 -1.30998 39.8284 8.93773 -1.30998
151 1 41.0398 7.69275 0.464083 41.0398 7.69275 0.464083
152 2 42.8902 7.75792 2.18703 42.8902 7.75792 2.18703
153 2 42.9584 7.60606 -1.09209 42.9584 7.60606 -1.09209
154 1 43.8682 9.24093 0.517841 43.8682 9.24093 0.517841
155 2 45.7121 9.28751 2.18423 45.7121 9.28751 2.18423
156 2 45.8168 9.10637 -1.03869 45.8168 9.10637 -1.03869
157 1 46.6761 7.52899 0.603437 46.6761 7.52899 0.603437
158 2 48.5393 7.60939 2.2657 48.5393 7.60939 2.2657
159 2 48.6232 7.25812 -0.992509 48.6232 7.25812 -0.992509
160 1 49.5473 9.10501 0.490003 49.5473 9.10501 0.490003
161 2 51.5322 9.35119 2.01715 51.5322 9.35119 2.01715
162 2 51.2292 8.98394 -1.30761 51.2292 8.98394 -1.30761
163 1 0.953214 10.7694 0.169274 0.953214 10.7694 0.169274
164 2 2.87164 10.8586 1.83265 2.87164 10.8586 1.83265
165 2 2.91878 10.7761 -1.43746 2.91878 10.7761 -1.43746
166 1 3.8565 12.3779 0.12973 3.8565 12.3779 0.12973
167 2 5.86031 12.3738 1.69198 5.86031 12.3738 1.69198
168 2 5.61316 12.539 -1.57934 5.61316 12.539 -1.57934
169 1 6.72821 10.8606 -0.0130678 6.72821 10.8606 -0.0130678
170 2 8.59192 10.8444 1.65791 8.59192 10.8444 1.65791
171 2 8.60941 10.7638 -1.6527 8.60941 10.7638 -1.6527
172 1 9.60799 12.3647 -0.131639 9.60799 12.3647 -0.131639
173 2 11.743 12.6131 1.14274 11.743 12.6131 1.14274
174 2 11.2914 12.2183 -2.05389 11.2914 12.2183 -2.05389
175 1 12.5027 10.7583 -0.436256 12.5027 10.7583 -0.436256
176 2 14.4653 11.0636 1.24172 14.4653 11.0636 1.24172
177 2 14.5216 10.4919 -2.05804 14.5216 10.4919 -2.05804
178 1 15.3818 12.4246 -0.628338 15.3818 12.4246 -0.628338
179 2 17.3048 12.8014 0.930315 17.3048 12.8014 0.930315
180 2 17.3622 12.1731 -2.30447 17.3622 12.1731 -2.30447
181 1 18.254 10.954 -0.464734 18.254 10.954 -0.464734
182 2 20.126 11.1304 1.17786 20.126 11.1304 1.17786
183 2 20.2555 10.6692 -2.1227 20.2555 10.6692 -2.1227
184 1 21.0342 12.5964 -0.647482 21.0342 12.5964 -0.647482
185 2 22.8612 12.9319 1.01167 22.8612 12.9319 1.01167
186 2 23.0385 12.2849 -2.22925 23.0385 12.2849 -2.22925
187 1 23.9124 10.882 -0.254547 23.9124 10.882 -0.254547
188 2 25.7954 11.228 1.41826 25.7954 11.228 1.41826
189 2 25.8345 10.8623 -1.80779 25.8345 10.8623 -1.80779
190 1 26.7402 12.6743 -0.38895 26.7402 12.6743 -0.38895
191 2 28.4914 12.7005 1.28606 28.4914 12.7005 1.28606
192 2 28.7165 12.4335 -1.92034 28.7165 12.4335 -1.92034
193 1 29.6042 10.9336 -0.109923 29.6042 10.9336 -0.109923
194 2 31.3429 11.0582 1.55075 31.3429 11.0582 1.55075
195 2 31.5472 10.7104 -1.61145 31.5472 10.7104 -1.61145
196 1 32.4191 12.6245 -0.1243 32.4191 12.6245 -0.1243
197 2 34.2543 12.583 1.70566 34.2543 12.583 1.70566
198 2 34.4507 12.5717 -1.68088 34.4507 12.5717 -1.68088
199 1 35.2425 10.9275 0.106446 35.2425 10.9275 0.106446
200 2 37.0536 11.0121 1.87094 37.0536 11.0121 1.87094
201 2 37.292 10.7331 -1.30428 37.292 10.7331 -1.30428
202 1 38.1243 12.4951 0.251797 38.1243 12.4951 0.251797
203 2 40.1468 12.4468 1.753 40.1468 12.4468 1.753
204 2 39.8919 12.4828 -1.53134 39.8919 12.4828 -1.53134
205 1 40.9445 10.9269 0.0042832 40.9445 10.9269 0.0042832
206 2 42.746 10.9837 1.82488 42.746 10.9837 1.82488
207 2 43.0805 10.7729 -1.31587 43.0805 10.7729 -1.31587
208 1 43.8533 12.4797 0.162044 43.8533 12.4797 0.162044
209 2 45.5263 12.4409 1.944 45.5263 12.4409 1.944
210 2 45.8647 12.4788 -1.3851 45.8647 12.4788 -1.3851
211 1 46.676 10.861 0.386446 46.676 10.861 0.386446
212 2 48.5777 10.8101 2.01065 48.5777 10.8101 2.01065
213 2 48.6461 10.667 -1.24201 48.6461 10.667 -1.24201
214 1 49.5429 12.4302 0.314396 49.5429 12.4302 0.314396
215 2 51.6561 12.523 1.71457 51.6561 12.523 1.71457
216 2 51.3606 12.2174 -1.51457 51.3606 12.2174 -1.51457
217 1 1.01623 14.0779 -0.150507 1.01623 14.0779 -0.150507
218 2 2.85881 14.0929 1.62433 2.85881 14.0929 1.62433
219 2 2.91893 14.0694 -1.69874 2.91893 14.0694 -1.69874
220 1 3.76737 15.7356 -0.0422513 3.76737 15.7356 -0.0422513
221 2 5.67151 15.6848 1.66823 5.67151 15.6848 1.66823
222 2 5.74282 15.6754 -1.58631 5.74282 15.6754 -1.58631
223 1 6.72714 14.0483 0.0270579 6.72714 14.0483 0.0270579
224 2 8.94828 14.0916 1.54801 8.94828 14.0916 1.54801
225 2 8.58696 14.0327 -1.741 8.58696 14.0327 -1.741
226 1 9.64201 15.7541 -0.240942 9.64201 15.7541 -0.240942
227 2 11.6576 15.6404 1.09611 11.6576 15.6404 1.09611
228 2 11.2524 15.9487 -2.11284 11.2524 15.9487 -2.11284
229 1 12.4296 14.0925 -0.828296 12.4296 14.0925 -0.828296
230 2 14.5483 14.3271 0.737673 14.5483 14.3271 0.737673
231 2 14.2403 13.917 -2.45523 14.2403 13.917 -2.45523
232 1 15.2607 15.7313 -0.986622 15.2607 15.7313 -0.986622
233 2 17.2223 15.8177 0.564408 17.2223 15.8177 0.564408
234 2 17.1375 15.8881 -2.69246 17.1375 15.8881 -2.69246
235 1 18.1614 14.1661 -1.08907 18.1614 14.1661 -1.08907
236 2 19.9796 14.5436 0.681979 19.9796 14.5436 0.681979
237 2 20.1391 14.0186 -2.56665 20.1391 14.0186 -2.56665
238 1 21.0562 15.9444 -1.17423 21.0562 15.9444 -1.17423
239 2 23.0578 16.0224 0.445869 23.0578 16.0224 0.445869
240 2 22.975 15.6538 -2.7721 22.975 15.6538 -2.7721
241 1 23.9441 14.2576 -0.908853 23.9441 14.2576 -0.908853
242 2 25.5129 14.3784 0.983699 25.5129 14.3784 0.983699
243 2 26.0079 14.1071 -2.33311 26.0079 14.1071 -2.33311
244 1 26.6976 15.883 -0.692902 26.6976 15.883 -0.692902
245 2 28.5297 16.1574 1.02563 28.5297 16.1574 1.02563
246 2 28.6653 15.7466 -2.09504 28.6653 15.7466 -2.09504
247 1 29.5418 14.2928 -0.244693 29.5418 14.2928 -0.244693
248 2 31.5497 14.4091 1.36453 31.5497 14.4091 1.36453
249 2 31.3929 13.9763 -1.92502 31.3929 13.9763 -1.92502
250 1 32.4421 15.7634 -0.529242 32.4421 15.7634 -0.529242
251 2 34.2332 16.043 1.20355 34.2332 16.043 1.20355
252 2 34.5637 15.5193 -1.9062 34.5637 15.5193 -1.9062
253 1 35.373 14.2215 0.00971019 35.373 14.2215 0.00971019
254 2 37.2567 14.3053 1.65984 37.2567 14.3053 1.65984
255 2 37.2486 14.1011 -1.6625 37.2486 14.1011 -1.6625
256 1 38.1985 15.8355 -0.178293 38.1985 15.8355 -0.178293
257 2 40.021 15.8727 1.58718 40.021 15.8727 1.58718
258 2 40.104 15.8568 -1.72858 40.104 15.8568 -1.72858
259 1 41.013 14.1456 -0.0125692 41.013 14.1456 -0.0125692
260 2 42.9832 14.3263 1.50812 42.9832 14.3263 1.50812
261 2 42.9836 13.8823 -1.66648 42.9836 13.8823 -1.66648
262 1 43.8946 15.778 -0.264839 43.8946 15.778 -0.264839
263 2 45.5879 16.0126 1.58892 45.5879 16.0126 1.58892
264 2 45.9904 15.6124 -1.60372 45.9904 15.6124 -1.60372
265 1 46.6825 14.1488 0.285098 46.6825 14.1488 0.285098
266 2 48.6024 14.1607 1.85102 48.6024 14.1607 1.85102
267 2 48.576 14.0069 -1.46643 48.576 14.0069 -1.46643
268 1 49.5605 15.6457 0.11962 49.5605 15.6457 0.11962
269 2 51.5439 15.787 1.59182 51.5439 15.787 1.59182
270 2 51.4184 15.713 -1.66787 51.4184 15.713 -1.66787
271 1 0.955859 17.4419 -0.0899406 0.955859 17.4419 -0.0899406
272 2 2.92783 17.5236 1.53089 2.92783 17.5236 1.53089
273 2 2.80102 17.3839 -1.76063 2.80102 17.3839 -1.76063
274 1 3.78818 19.0328 -0.212186 3.78818 19.0328 -0.212186
275 2 5.676 19.0762 1.59552 5.676 19.0762 1.59552
276 2 5.74102 19.0251 -1.65657 5.74102 19.0251 -1.65657
277 1 6.69367 17.2992 -0.0321956 6.69367 17.2992 -0.0321956
278 2 8.7425 17.3388 1.46436 8.7425 17.3388 1.46436
279 2 8.52078 17.5001 -1.77579 8.52078 17.5001 -1.77579
280 1 9.56279 19.0454 -0.230262 9.56279 19.0454 -0.230262
281 2 11.6898 19.1278 1.17891 11.6898 19.1278 1.17891
282 2 11.2764 19.111 -2.15082 11.2764 19.111 -2.15082
283 1 12.4534 17.4848 -0.528241 12.4534 17.4848 -0.528241
284 2 14.5939 17.4413 0.836307 14.5939 17.4413 0.836307
285 2 14.0612 17.5148 -2.42441 14.0612 17.5148 -2.42441
286 1 15.2645 19.0766 -1.0098 15.2645 19.0766 -1.0098
287 2 17.3662 19.0738 0.518316 17.3662 19.0738 0.518316
288 2 17.0632 19.0057 -2.76271 17.0632 19.0057 -2.76271
289 1 18.2391 17.4588 -1.12624 18.2391 17.4588 -1.12624
290 2 20.1405 17.5057 0.473989 20.1405 17.5057 0.473989
291 2 19.9594 17.4309 -2.82474 19.9594 17.4309 -2.82474
292 1 20.9862 19.1223 -1.27439 20.9862 19.1223 -1.27439
293 2 22.9258 19.1462 0.362466 22.9258 19.1462 0.362466
294 2 22.8922 19.2315 -2.92993 22.8922 19.2315 -2.92993
295 1 23.8962 17.5126 -1.37465 23.8962 17.5126 -1.37465
296 2 25.4886 17.6806 0.564601 25.4886 17.6806 0.564601
297 2 26.034 17.2948 -2.59301 26.034 17.2948 -2.59301
298 1 26.7238 19.2005 -1.02617 26.7238 19.2005 -1.02617
299 2 28.4581 19.3969 0.753898 28.4581 19.3969 0.753898
300 2 28.7447 19.0583 -2.41991 28.7447 19.0583 -2.41991
301 1 29.603 17.5756 -0.677275 29.603 17.5756 -0.677275
302 2 31.4479 17.5146 1.00297 31.4479 17.5146 1.00297
303 2 31.5454 17.3534 -2.2383 31.5454 17.3534 -2.2383
304 1 32.4548 19.0238 -0.736141 32.4548 19.0238 -0.736141
305 2 34.2747 19.1055 0.945698 34.2747 19.1055 0.945698
306 2 34.443 19.1179 -2.33484 34.443 19.1179 -2.33484
307 1 35.242 17.4072 -0.603108 35.242 17.4072 -0.603108
308 2 36.9653 17.4357 1.21138 36.9653 17.4357 1.21138
309 2 37.4613 17.5213 -1.94172 37.4613 17.5213 -1.94172
310 1 38.1178 19.1549 -0.237368 38.1178 19.1549 -0.237368
311 2 39.9208 19.1562 1.49795 39.9208 19.1562 1.49795
312 2 40.0492 19.015 -1.82386 40.0492 19.015 -1.82386
313 1 40.9927 17.4572 -0.0590942 40.9927 17.4572 -0.0590942
314 2 42.9787 17.3371 1.46109 42.9787 17.3371 1.46109
315 2 42.7432 17.3424 -1.79641 42.7432 17.3424 -1.79641
316 1 43.8101 19.0166 -0.259634 43.8101 19.0166 -0.259634
317 2 45.8029 19.1887 1.36565 45.8029 19.1887 1.36565
318 2 45.7804 18.9499 -1.82029 45.7804 18.9499 -1.82029
319 1 46.8319 17.349 -0.0514221 46.8319 17.349 -0.0514221
320 2 48.7234 17.5188 1.49331 48.7234 17.5188 1.49331
321 2 48.6956 17.1611 -1.69507 48.6956 17.1611 -1.69507
322 1 49.4718 19.1128 -0.242542 49.4718 19.1128 -0.242542
323 2 51.5288 19.1119 1.41879 51.5288 19.1119 1.41879
324 2 51.291 19.0103 -1.89382 51.291 19.0103 -1.89382
325 1 1.00165 20.6475 -0.394906 1.00165 20.6475 -0.394906
326 2 2.7592 20.6972 1.37672 2.7592 20.6972 1.37672
327 2 2.87411 20.6653 -1.98725 2.87411 20.6653 -1.98725
328 1 3.81317 22.379 -0.265807 3.81317 22.379 -0.265807
329 2 5.71381 22.6165 1.30195 5.71381 22.6165 1.30195
330 2 5.62738 22.1931 -1.98413 5.62738 22.1931 -1.98413
331 1 6.65899 20.6982 -0.0663091 6.65899 20.6982 -0.0663091
332 2 8.72192 20.7855 1.3537 8.72192 20.7855 1.3537
333 2 8.53794 20.4322 -1.84356 8.53794 20.4322 -1.84356
334 1 9.59205 22.3438 -0.515983 9.59205 22.3438 -0.515983
335 2 11.4098 22.2816 1.04488 11.4098 22.2816 1.04488
336 2 11.586 22.4622 -2.13534 11.586 22.4622 -2.13534
337 1 12.4673 20.7198 -0.583429 12.4673 20.7198 -0.583429
338 2 14.5072 20.6851 0.811136 14.5072 20.6851 0.811136
339 2 14.2291 20.8158 -2.42546 14.2291 20.8158 -2.42546
340 1 15.3044 22.4438 -0.841109 15.3044 22.4438 -0.841109
341 2 17.3413 22.3582 0.664436 17.3413 22.3582 0.664436
342 2 17.09 22.5143 -2.6033 17.09 22.5143 -2.6033
343 1 18.1614 20.7825 -1.24443 18.1614 20.7825 -1.24443
344 2 20.1193 20.8377 0.412817 20.1193 20.8377 0.412817
345 2 20.0887 20.8594 -2.94622 20.0887 20.8594 -2.94622
346 1 21.0178 22.5647 -1.20185 21.0178 22.5647 -1.20185
347 2 22.9154 22.3684 0.437053 22.9154 22.3684 0.437053
348 2 22.8672 22.5169 -2.86392 22.8672 22.5169 -2.86392
349 1 23.8484 20.8552 -1.30524 23.8484 20.8552 -1.30524
350 2 25.5896 20.9074 0.553143 25.5896 20.9074 0.553143
351 2 25.9869 20.7634 -2.70408 25.9869 20.7634 -2.70408
352 1 26.724 22.474 -1.01531 26.724 22.474 -1.01531
353 2 28.5528 22.4907 0.71015 28.5528 22.4907 0.71015
354 2 28.7159 22.4816 -2.68952 28.7159 22.4816 -2.68952
355 1 29.6055 20.8446 -0.924187 29.6055 20.8446 -0.924187
356 2 31.4383 20.8071 0.683722 31.4383 20.8071 0.683722
357 2 31.4875 20.5428 -2.47499 31.4875 20.5428 -2.47499
358 1 32.441 22.3981 -1.13063 32.441 22.3981 -1.13063
359 2 34.0974 22.2796 0.844867 34.0974 22.2796 0.844867
360 2 34.5715 22.6452 -2.37953 34.5715 22.6452 -2.37953
361 1 35.3138 20.8152 -0.753199 35.3138 20.8152 -0.753199
362 2 36.9216 20.7845 1.16548 36.9216 20.7845 1.16548
363 2 37.5338 20.7072 -1.99815 37.5338 20.7072 -1.99815
364 1 38.1523 22.4165 -0.286715 38.1523 22.4165 -0.286715
365 2 40.0324 22.561 1.37984 40.0324 22.561 1.37984
366 2 40.0215 22.4154 -1.91249 40.0215 22.4154 -1.91249
367 1 40.9638 20.7323 -0.17243 40.9638 20.7323 -0.17243
368 2 43.0802 20.8358 1.30228 43.0802 20.8358 1.30228
369 2 42.6929 20.5925 -1.8897 42.6929 20.5925 -1.8897
370 1 43.8053 22.3939 -0.404514 43.8053 22.3939 -0.404514
371 2 45.786 22.5252 1.15723 45.786 22.5252 1.15723
372 2 45.6465 22.2125 -2.0086 45.6465 22.2125 -2.0086
373 1 46.717 20.7766 -0.330257 46.717 20.7766 -0.330257
374 2 48.6566 20.9451 1.30006 48.6566 20.9451 1.30006
375 2 48.5023 20.6765 -1.98276 48.5023 20.6765 -1.98276
376 1 49.518 22.4452 -0.529314 49.518 22.4452 -0.529314
377 2 51.4707 22.4605 1.08659 51.4707 22.4605 1.08659
378 2 51.4867 22.2681 -2.16843 51.4867 22.2681 -2.16843
379 1 1.01274 24.0339 -0.620199 1.01274 24.0339 -0.620199
380 2 2.76958 24.171 1.15051 2.76958 24.171 1.15051
381 2 3.0957 24.031 -2.00941 3.0957 24.031 -2.00941
382 1 3.92298 25.7837 -0.441644 3.92298 25.7837 -0.441644
383 2 5.83026 25.6812 1.07701 5.83026 25.6812 1.07701
384 2 5.72952 25.8004 -2.15025 5.72952 25.8004 -2.15025
385 1 6.62992 24.0628 -0.614221 6.62992 24.0628 -0.614221
386 2 8.5874 24.0388 1.14225 8.5874 24.0388 1.14225
387 2 8.62887 23.9387 -2.14931 8.62887 23.9387 -2.14931
388 1 9.54045 25.6292 -0.606793 9.54045 25.6292 -0.606793
389 2 11.3398 25.6898 1.13081 11.3398 25.6898 1.13081
390 2 11.4461 25.6583 -2.19346 11.4461 25.6583 -2.19346
391 1 12.4411 24.0645 -0.45217 12.4411 24.0645 -0.45217
392 2 14.6051 24.0042 0.880983 14.6051 24.0042 0.880983
393 2 14.1044 24.0901 -2.40227 14.1044 24.0901 -2.40227
394 1 15.3162 25.7354 -0.867431 15.3162 25.7354 -0.867431
395 2 17.1814 25.69 0.722584 17.1814 25.69 0.722584
396 2 17.0815 25.9459 -2.58825 17.0815 25.9459 -2.58825
397 1 18.1474 24.0718 -0.945909 18.1474 24.0718 -0.945909
398 2 20.1054 24.0189 0.599954 20.1054 24.0189 0.599954
399 2 19.9396 24.2128 -2.75645 19.9396 24.2128 -2.75645
400 1 20.9272 25.8642 -1.02915 20.9272 25.8642 -1.02915
401 2 22.8619 25.6703 0.5881 22.8619 25.6703 0.5881
402 2 22.8022 25.9647 -2.64089 22.8022 25.9647 -2.64089
403 1 23.8811 24.1283 -1.18586 23.8811 24.1283 -1.18586
404 2 25.7886 24.1302 0.555801 25.7886 24.1302 0.555801
405 2 25.8068 24.1121 -2.75242 25.8068 24.1121 -2.75242
406 1 26.6903 25.8087 -1.06627 26.6903 25.8087 -1.06627
407 2 28.5907 25.6531 0.479304 28.5907 25.6531 0.479304
408 2 28.5349 25.7036 -2.75948 28.5349 25.7036 -2.75948
409 1 29.5567 24.0511 -1.09368 29.5567 24.0511 -1.09368
410 2 31.4388 23.8398 0.537065 31.4388 23.8398 0.537065
411 2 31.4766 24.326 -2.66672 31.4766 24.326 -2.66672
412 1 32.464 25.7018 -0.890674 32.464 25.7018 -0.890674
413 2 34.0044 25.6614 1.07766 34.0044 25.6614 1.07766
414 2 34.6166 25.7566 -2.18272 34.6166 25.7566 -2.18272
415 1 35.2666 24.0994 -0.440416 35.2666 24.0994 -0.440416
416 2 37.0932 24.2347 1.21031 37.0932 24.2347 1.21031
417 2 37.2552 24.0736 -1.97158 37.2552 24.0736 -1.97158
418 1 38.1934 25.7408 -0.445918 38.1934 25.7408 -0.445918
419 2 40.0114 25.6398 1.36895 40.0114 25.6398 1.36895
420 2 40.2385 25.7228 -1.98938 40.2385 25.7228 -1.98938
421 1 41.0293 24.045 -0.357237 41.0293 24.045 -0.357237
422 2 42.9289 24.1694 1.25058 42.9289 24.1694 1.25058
423 2 42.8514 24.0663 -2.01557 42.8514 24.0663 -2.01557
424 1 43.8223 25.765 -0.558241 43.8223 25.765 -0.558241
425 2 45.5615 25.5881 1.12037 45.5615 25.5881 1.12037
426 2 45.8184 25.7283 -2.14282 45.8184 25.7283 -2.14282
427 1 46.6614 24.1109 -0.624186 46.6614 24.1109 -0.624186
428 2 48.5956 24.0885 0.964267 48.5956 24.0885 0.964267
429 2 48.6082 23.9575 -2.22826 48.6082 23.9575 -2.22826
430 1 49.5306 25.6836 -0.62912 49.5306 25.6836 -0.62912
431 2 51.3597 25.6114 1.04884 51.3597 25.6114 1.04884
432 2 51.5035 25.8853 -2.23129 51.5035 25.8853 -2.23129
433 1 0.986175 27.3562 -0.383846 0.986175 27.3562 -0.383846
434 2 2.98126 27.5058 1.16457 2.98126 27.5058 1.16457
435 2 2.91181 27.3612 -2.08858 2.91181 27.3612 -2.08858
436 1 3.86001 29.0709 -0.540228 3.86001 29.0709 -0.540228
437 2 5.76215 28.9604 1.09787 5.76215 28.9604 1.09787
438 2 5.82626 29.1894 -2.09575 5.82626 29.1894 -2.09575
439 1 6.76816 27.3825 -0.596644 6.76816 27.3825 -0.596644
440 2 8.52204 27.3019 1.08681 8.52204 27.3019 1.08681
441 2 8.64996 27.4145 -2.1896 8.64996 27.4145 -2.1896
442 1 9.56532 29.0217 -0.48797 9.56532 29.0217 -0.48797
443 2 11.3455 28.8909 1.26026 11.3455 28.8909 1.26026
444 2 11.5953 29.2165 -1.91323 11.5953 29.2165 -1.91323
445 1 12.4348 27.383 -0.475013 12.4348 27.383 -0.475013
446 2 14.4078 27.2156 0.972717 14.4078 27.2156 0.972717
447 2 14.1478 27.5725 -2.29703 14.1478 27.5725 -2.29703
448 1 15.2269 29.0895 -0.612987 15.2269 29.0895 -0.612987
449 2 17.2872 28.9364 0.72799 17.2872 28.9364 0.72799
450 2 17.0242 29.0643 -2.35737 17.0242 29.0643 -2.35737
451 1 18.1353 27.389 -0.921044 18.1353 27.389 -0.921044
452 2 20.0867 27.4228 0.600492 20.0867 27.4228 0.600492
453 2 20.0142 27.504 -2.61509 20.0142 27.504 -2.61509
454 1 21.0086 29.1891 -1.0449 21.0086 29.1891 -1.0449
455 2 22.8449 29.0368 0.783233 22.8449 29.0368 0.783233
456 2 22.9634 29.1426 -2.50438 22.9634 29.1426 -2.50438
457 1 23.7802 27.425 -0.806676 23.7802 27.425 -0.806676
458 2 25.7131 27.2923 0.734315 25.7131 27.2923 0.734315
459 2 25.7101 27.6266 -2.5583 25.7101 27.6266 -2.5583
460 1 26.66 28.9836 -0.748838 26.66 28.9836 -0.748838
461 2 28.7183 28.797 0.721611 28.7183 28.797 0.721611
462 2 28.4941 29.1377 -2.56815 28.4941 29.1377 -2.56815
463 1 29.5699 27.3513 -1.13517 29.5699 27.3513 -1.13517
464 2 31.2682 27.2005 0.752622 31.2682 27.2005 0.752622
465 2 31.6356 27.499 -2.45442 31.6356 27.499 -2.45442
466 1 32.4772 29.0435 -0.538365 32.4772 29.0435 -0.538365
467 2 34.2168 29.0239 1.20611 34.2168 29.0239 1.20611
468 2 34.5354 29.0146 -2.01935 34.5354 29.0146 -2.01935
469 1 35.3094 27.3637 -0.328492 35.3094 27.3637 -0.328492
470 2 37.1734 27.313 1.25044 37.1734 27.313 1.25044
471 2 37.1746 27.3837 -2.00596 37.1746 27.3837 -2.00596
472 1 38.0923 28.9834 -0.437508 38.0923 28.9834 -0.437508
473 2 39.914 28.9834 1.28747 39.914 28.9834 1.28747
474 2 40.0972 28.9295 -1.94782 40.0972 28.9295 -1.94782
475 1 41.0155 27.316 -0.173872 41.0155 27.316 -0.173872
476 2 43.0429 27.1932 1.31107 43.0429 27.1932 1.31107
477 2 42.8464 27.4956 -2.01844 42.8464 27.4956 -2.01844
478 1 43.8167 29.0114 -0.333869 43.8167 29.0114 -0.333869
479 2 45.8324 29.105 1.25318 45.8324 29.105 1.25318
480 2 45.7427 28.9186 -2.08638 45.7427 28.9186 -2.08638
481 1 46.6519 27.4144 -0.321353 46.6519 27.4144 -0.321353
482 2 48.6217 27.2903 1.1663 48.6217 27.2903 1.1663
483 2 48.5259 27.4747 -2.02613 48.5259 27.4747 -2.02613
484 1 49.5308 29.0633 -0.377409 49.5308 29.0633 -0.377409
485 2 51.2597 28.9901 1.30825 51.2597 28.9901 1.30825
486 2 51.492 28.9859 -1.96084 51.492 28.9859 -1.96084
487 1 0.911101 30.6381 -0.262257 0.911101 30.6381 -0.262257
488 2 2.9699 30.5362 1.30277 2.9699 30.5362 1.30277
489 2 2.84066 30.8414 -2.01165 2.84066 30.8414 -2.01165
490 1 3.81615 32.3691 -0.204085 3.81615 32.3691 -0.204085
491 2 5.76721 32.3656 1.37186 5.76721 32.3656 1.37186
492 2 5.60869 32.3674 -1.94959 5.60869 32.3674 -1.94959
493 1 6.76298 30.7439 -0.357232 6.76298 30.7439 -0.357232
494 2 8.62022 30.5592 1.35446 8.62022 30.5592 1.35446
495 2 8.698 30.9108 -1.91359 8.698 30.9108 -1.91359
496 1 9.63165 32.3274 -0.154746 9.63165 32.3274 -0.154746
497 2 11.4619 32.3392 1.48176 11.4619 32.3392 1.48176
498 2 11.4907 32.3461 -1.82383 11.4907 32.3461 -1.82383
499 1 12.4383 30.7303 -0.122511 12.4383 30.7303 -0.122511
500 2 14.6046 30.6679 1.19005 14.6046 30.6679 1.19005
501 2 14.1491 30.8665 -2.00979 14.1491 30.8665 -2.00979
502 1 15.3107 32.4697 -0.424131 15.3107 32.4697 -0.424131
503 2 17.394 32.0885 1.01965 17.394 32.0885 1.01965
504 2 17.1465 32.5301 -2.19318 17.1465 32.5301 -2.19318
505 1 18.1653 30.7033 -0.835076 18.1653 30.7033 -0.835076
506 2 20.0309 30.3976 0.799877 20.0309 30.3976 0.799877
507 2 20.0481 31.0805 -2.44787 20.0481 31.0805 -2.44787
508 1 20.9791 32.3089 -0.506313 20.9791 32.3089 -0.506313
509 2 22.8632 32.2044 1.08763 22.8632 32.2044 1.08763
510 2 22.9022 32.6289 -2.15861 22.9022 32.6289 -2.15861
511 1 23.8005 30.7955 -0.780075 23.8005 30.7955 -0.780075
512 2 25.666 30.6514 0.969469 25.666 30.6514 0.969469
513 2 25.8252 30.7884 -2.33786 25.8252 30.7884 -2.33786
514 1 26.8085 32.3464 -0.483141 26.8085 32.3464 -0.483141
515 2 28.5668 32.1179 1.15898 28.5668 32.1179 1.15898
516 2 28.5827 32.4645 -2.09633 28.5827 32.4645 -2.09633
517 1 29.5732 30.6253 -0.802948 29.5732 30.6253 -0.802948
518 2 31.1927 30.5757 1.08476 31.1927 30.5757 1.08476
519 2 31.6128 30.7283 -2.2665 31.6128 30.7283 -2.2665
520 1 32.3642 32.2307 -0.37075 32.3642 32.2307 -0.37075
521 2 34.3149 32.328 1.34598 34.3149 32.328 1.34598
522 2 34.4096 32.3852 -1.98259 34.4096 32.3852 -1.98259
523 1 35.3189 30.6969 -0.349552 35.3189 30.6969 -0.349552
524 2 37.1801 30.5871 1.42821 37.1801 30.5871 1.42821
525 2 37.1366 30.8746 -1.92327 37.1366 30.8746 -1.92327
526 1 38.1391 32.3724 -0.128417 38.1391 32.3724 -0.128417
527 2 40.0949 32.1714 1.37616 40.0949 32.1714 1.37616
528 2 39.988 32.5576 -1.76921 39.988 32.5576 -1.76921
529 1 40.9949 30.6927 -0.407533 40.9949 30.6927 -0.407533
530 2 42.7929 30.4277 1.35159 42.7929 30.4277 1.35159
531 2 43.0215 30.9062 -1.79966 43.0215 30.9062 -1.79966
532 1 43.8748 32.2617 0.00369288 43.8748 32.2617 0.00369288
533 2 45.771 32.0333 1.51939 45.771 32.0333 1.51939
534 2 45.7402 32.5518 -1.7441 45.7402 32.5518 -1.7441
535 1 46.7348 30.6452 -0.462524 46.7348 30.6452 -0.462524
536 2 48.4549 30.5491 1.38893 48.4549 30.5491 1.38893
537 2 48.8191 31.0073 -1.85785 48.8191 31.0073 -1.85785
538 1 49.6075 32.3719 0.160532 49.6075 32.3719 0.160532