ITEM: TIMESTEP
26000
ITEM: NUMBER OF ATOMS
810
ITEM: BOX BOUNDS pp pp pp
7.5889225849176689e-01 5.2258712741509029e+01
7.8896857175665236e-01 5.0227246428242744e+01
-1.0000000000000000e+01 1.0000000000000000e+01
ITEM: ATOMS id type x y z xu yu zu
1 1 0.903503 0.928402 -0.723333 0.903503 0.928402 -0.723333
2 2 2.66339 0.964835 1.0849 2.66339 0.964835 1.0849
3 2 2.92089 0.874385 -2.17836 2.92089 0.874385 -2.17836
4 1 3.80566 2.60765 -0.478645 3.80566 2.60765 -0.478645
5 2 5.56745 2.5893 1.24989 5.56745 2.5893 1.24989
6 2 5.76648 2.62078 -2.01309 5.76648 2.62078 -2.01309
7 1 6.64728 0.968192 -0.375709 6.64728 0.968192 -0.375709
8 2 8.49496 0.964634 1.38309 8.49496 0.964634 1.38309
9 2 8.66949 0.923396 -1.73099 8.66949 0.923396 -1.73099
10 1 9.58853 2.63395 -0.0825965 9.58853 2.63395 -0.0825965
11 2 11.4113 2.6031 1.57137 11.4113 2.6031 1.57137
12 2 11.541 2.56859 -1.71645 11.541 2.56859 -1.71645
13 1 12.4228 0.934284 0.0495087 12.4228 0.934284 0.0495087
14 2 14.4164 0.922737 1.57577 14.4164 0.922737 1.57577
15 2 14.253 1.02072 -1.64036 14.253 1.02072 -1.64036
16 1 15.2726 2.6673 0.015442 15.2726 2.6673 0.015442
17 2 17.348 2.68245 1.37145 17.348 2.68245 1.37145
18 2 16.8909 2.66585 -1.83799 16.8909 2.66585 -1.83799
19 1 18.0807 1.09171 -0.279875 18.0807 1.09171 -0.279875
20 2 19.996 1.12714 1.3436 19.996 1.12714 1.3436
21 2 20.0544 0.956568 -1.88979 20.0544 0.956568 -1.88979
22 1 20.9485 2.7109 -0.378306 20.9485 2.7109 -0.378306
23 2 22.9129 2.77345 1.14277 22.9129 2.77345 1.14277
24 2 22.8452 2.77402 -2.07267 22.8452 2.77402 -2.07267
25 1 23.9012 1.08407 -0.460758 23.9012 1.08407 -0.460758
26 2 25.7892 1.09494 1.1133 25.7892 1.09494 1.1133
27 2 25.823 0.950719 -2.08705 25.823 0.950719 -2.08705
28 1 26.7496 2.73618 -0.385739 26.7496 2.73618 -0.385739
29 2 28.7926 2.85134 1.05445 28.7926 2.85134 1.05445
30 2 28.5189 2.6355 -2.20793 28.5189 2.6355 -2.20793
31 1 29.5593 1.04851 -0.649004 29.5593 1.04851 -0.649004
32 2 31.5477 1.12195 0.848418 31.5477 1.12195 0.848418
33 2 31.2699 0.928937 -2.40734 31.2699 0.928937 -2.40734
34 1 32.4227 2.70311 -0.94236 32.4227 2.70311 -0.94236
35 2 34.4023 2.67957 0.64096 34.4023 2.67957 0.64096
36 2 34.2311 2.719 -2.66724 34.2311 2.719 -2.66724
37 1 35.3264 0.977237 -1.07276 35.3264 0.977237 -1.07276
38 2 37.1924 1.01887 0.643596 37.1924 1.01887 0.643596
39 2 37.3393 0.814095 -2.49964 37.3393 0.814095 -2.49964
40 1 38.242 2.53357 -1.02137 38.242 2.53357 -1.02137
41 2 40.0537 2.68384 0.643909 40.0537 2.68384 0.643909
42 2 40.1201 2.57508 -2.69607 40.1201 2.57508 -2.69607
43 1 40.9729 1.01939 -0.815077 40.9729 1.01939 -0.815077
44 2 42.7552 1.00251 0.855675 42.7552 1.00251 0.855675
45 2 42.9657 1.02841 -2.35827 42.9657 1.02841 -2.35827
46 1 43.8991 2.68023 -0.710389 43.8991 2.68023 -0.710389
47 2 45.9058 2.82811 0.768037 45.9058 2.82811 0.768037
48 2 45.6996 2.41061 -2.34706 45.6996 2.41061 -2.34706
49 1 46.6826 0.998997 -0.714502 46.6826 0.998997 -0.714502
50 2 48.6075 1.16903 0.985709 48.6075 1.16903 0.985709
51 2 48.6177 1.11391 -2.33217 48.6177 1.11391 -2.33217
52 1 49.5896 2.71609 -0.702877 49.5896 2.71609 -0.702877
53 2 51.3929 2.51678 0.936049 51.3929 2.51678 0.936049
54 2 51.4573 2.58095 -2.36971 51.4573 2.58095 -2.36971
55 1 0.96735 4.22447 -0.761226 0.96735 4.22447 -0.761226
56 2 2.72056 4.42628 0.990403 2.72056 4.42628 0.990403
57 2 2.99682 4.09167 -2.29381 2.99682 4.09167 -2.29381
58 1 3.81954 5.91997 -0.781707 3.81954 5.91997 -0.781707
59 2 5.58379 6.03026 1.09773 5.58379 6.03026 1.09773
60 2 5.81328 5.75013 -2.13613 5.81328 5.75013 -2.13613
61 1 6.65264 4.21579 -0.272396 6.65264 4.21579 -0.272396
62 2 8.58958 4.51449 1.37363 8.58958 4.51449 1.37363
63 2 8.58208 4.16192 -1.88466 8.58208 4.16192 -1.88466
64 1 9.57103 5.91597 -0.465432 9.57103 5.91597 -0.465432
65 2 11.2331 5.84176 1.38907 11.2331 5.84176 1.38907
66 2 11.7492 5.91969 -1.88405 11.7492 5.91969 -1.88405
67 1 12.3952 4.26246 -0.102844 12.3952 4.26246 -0.102844
68 2 14.2472 4.34029 1.59801 14.2472 4.34029 1.59801
69 2 14.2949 4.20234 -1.68792 14.2949 4.20234 -1.68792
70 1 15.2673 5.92326 -0.12336 15.2673 5.92326 -0.12336
71 2 17.1707 5.85196 1.41054 17.1707 5.85196 1.41054
72 2 17.0618 6.0004 -1.86358 17.0618 6.0004 -1.86358
73 1 18.0733 4.25197 -0.404076 18.0733 4.25197 -0.404076
74 2 19.9522 4.23137 1.34569 19.9522 4.23137 1.34569
75 2 19.8616 4.36352 -1.93481 19.8616 4.36352 -1.93481
76 1 20.8915 5.89687 -0.190376 20.8915 5.89687 -0.190376
77 2 22.8884 5.90655 1.36002 22.8884 5.90655 1.36002
78 2 22.7005 5.92126 -1.89414 22.7005 5.92126 -1.89414
79 1 23.8479 4.34836 -0.410972 23.8479 4.34836 -0.410972
80 2 25.7274 4.44312 1.20032 25.7274 4.44312 1.20032
81 2 25.7184 4.26657 -2.02261 25.7184 4.26657 -2.02261
82 1 26.8163 5.97272 -0.497541 26.8163 5.97272 -0.497541
83 2 28.8334 5.94025 0.890501 28.8334 5.94025 0.890501
84 2 28.4587 6.07941 -2.37217 28.4587 6.07941 -2.37217
85 1 29.594 4.35296 -0.904932 29.594 4.35296 -0.904932
86 2 31.5634 4.30817 0.743976 31.5634 4.30817 0.743976
87 2 31.5131 4.34772 -2.60802 31.5131 4.34772 -2.60802
88 1 32.4691 5.9927 -1.04223 32.4691 5.9927 -1.04223
89 2 34.1654 5.78775 0.620145 34.1654 5.78775 0.620145
90 2 34.4116 6.09082 -2.6507 34.4116 6.09082 -2.6507
91 1 35.2401 4.23915 -1.05037 35.2401 4.23915 -1.05037
92 2 37.0988 4.06422 0.691625 37.0988 4.06422 0.691625
93 2 37.1659 4.22733 -2.5772 37.1659 4.22733 -2.5772
94 1 38.1055 5.91004 -0.805255 38.1055 5.91004 -0.805255
95 2 40.0487 5.70636 0.766915 40.0487 5.70636 0.766915
96 2 40.0125 6.06729 -2.46892 40.0125 6.06729 -2.46892
97 1 41.0261 4.27209 -1.08347 41.0261 4.27209 -1.08347
98 2 42.7529 4.33563 0.839266 42.7529 4.33563 0.839266
99 2 43.1069 4.29502 -2.49177 43.1069 4.29502 -2.49177
100 1 43.863 5.93805 -0.713346 43.863 5.93805 -0.713346
101 2 45.9355 5.77148 0.748246 45.9355 5.77148 0.748246
102 2 45.5689 6.05214 -2.46896 45.5689 6.05214 -2.46896
103 1 46.7052 4.24922 -1.06118 46.7052 4.24922 -1.06118
104 2 48.4346 4.31498 0.851626 48.4346 4.31498 0.851626
105 2 48.8332 4.30402 -2.4082 48.8332 4.30402 -2.4082
106 1 49.5827 5.94325 -0.623676 49.5827 5.94325 -0.623676
107 2 51.5668 5.96915 0.928967 51.5668 5.96915 0.928967
108 2 51.3626 5.92061 -2.4066 51.3626 5.92061 -2.4066
109 1 1.03035 7.55215 -0.833384 1.03035 7.55215 -0.833384
110 2 2.88122 7.42211 0.910517 2.88122 7.42211 0.910517
111 2 3.03914 7.67008 -2.38318 3.03914 7.67008 -2.38318
112 1 3.8784 9.20752 -0.606647 3.8784 9.20752 -0.606647
113 2 5.73949 9.25603 1.0345 5.73949 9.25603 1.0345
114 2 5.75057 9.15701 -2.25006 5.75057 9.15701 -2.25006
115 1 6.72821 7.56784 -0.62374 6.72821 7.56784 -0.62374
116 2 8.5442 7.49694 1.17688 8.5442 7.49694 1.17688
117 2 8.70304 7.60585 -2.07131 8.70304 7.60585 -2.07131
118 1 9.60674 9.2254 -0.360534 9.60674 9.2254 -0.360534
119 2 11.4605 9.12766 1.329 11.4605 9.12766 1.329
120 2 11.6058 9.10378 -1.92693 11.6058 9.10378 -1.92693
121 1 12.4157 7.53507 -0.191461 12.4157 7.53507 -0.191461
122 2 14.1215 7.51486 1.45696 14.1215 7.51486 1.45696
123 2 14.3924 7.65305 -1.66909 14.3924 7.65305 -1.66909
124 1 15.1869 9.25922 0.120538 15.1869 9.25922 0.120538
125 2 17.2847 9.10127 1.41926 17.2847 9.10127 1.41926
126 2 16.9656 9.06456 -1.7142 16.9656 9.06456 -1.7142
127 1 18.0859 7.52109 -0.190295 18.0859 7.52109 -0.190295
128 2 19.8713 7.46114 1.43731 19.8713 7.46114 1.43731
129 2 19.9482 7.59128 -1.72205 19.9482 7.59128 -1.72205
130 1 20.9768 9.15602 -0.085364 20.9768 9.15602 -0.085364
131 2 22.9978 9.04846 1.45488 22.9978 9.04846 1.45488
132 2 22.8609 9.22291 -1.77355 22.8609 9.22291 -1.77355
133 1 23.8662 7.51432 -0.331013 23.8662 7.51432 -0.331013
134 2 25.8655 7.4781 1.25943 25.8655 7.4781 1.25943
135 2 25.6201 7.59297 -2.02986 25.6201 7.59297 -2.02986
136 1 26.7351 9.25263 -0.498808 26.7351 9.25263 -0.498808
137 2 28.6236 9.04216 1.15872 28.6236 9.04216 1.15872
138 2 28.5939 9.49342 -2.09995 28.5939 9.49342 -2.09995
139 1 29.5567 7.62485 -0.666966 29.5567 7.62485 -0.666966
140 2 31.5206 7.31373 0.8096 31.5206 7.31373 0.8096
141 2 31.4063 7.84601 -2.32715 31.4063 7.84601 -2.32715
142 1 32.4905 9.27747 -0.541246 32.4905 9.27747 -0.541246
143 2 34.4072 9.10418 0.992558 34.4072 9.10418 0.992558
144 2 34.3527 9.48484 -2.30789 34.3527 9.48484 -2.30789
145 1 35.3255 7.58314 -0.809464 35.3255 7.58314 -0.809464
146 2 37.1156 7.42427 0.895741 37.1156 7.42427 0.895741
147 2 37.2703 7.75964 -2.30404 37.2703 7.75964 -2.30404
148 1 38.232 9.28402 -0.503665 38.232 9.28402 -0.503665
149 2 40.1397 9.21095 1.09677 40.1397 9.21095 1.09677
150 2 39.9356 9.29434 -2.25711 39.9356 9.29434 -2.25711
151 1 40.9305 7.63324 -0.687165 40.9305 7.63324 -0.687165
152 2 43.0431 7.5513 0.989825 43.0431 7.5513 0.989825
153 2 42.8435 7.51352 -2.33179 42.8435 7.51352 -2.33179
154 1 43.9516 9.20089 -0.782257 43.9516 9.20089 -0.782257
155 2 45.8095 9.0825 0.921777 45.8095 9.0825 0.921777
156 2 45.8575 9.28588 -2.29814 45.8575 9.28588 -2.29814
157 1 46.7789 7.55475 -0.770511 46.7789 7.55475 -0.770511
158 2 48.5895 7.60347 0.898337 48.5895 7.60347 0.898337
159 2 48.7481 7.50799 -2.27271 48.7481 7.50799 -2.27271
160 1 49.6418 9.17559 -0.600989 49.6418 9.17559 -0.600989
161 2 51.6975 9.11281 0.939947 51.6975 9.11281 0.939947
162 2 51.4142 9.25044 -2.34143 51.4142 9.25044 -2.34143
163 1 0.957907 10.9 -0.749202 0.957907 10.9 -0.749202
164 2 2.81671 10.8895 1.00551 2.81671 10.8895 1.00551
165 2 3.0016 10.8283 -2.29241 3.0016 10.8283 -2.29241
166 1 3.84704 12.5114 -0.604327 3.84704 12.5114 -0.604327
167 2 5.63767 12.4494 1.17417 5.63767 12.4494 1.17417
168 2 5.86498 12.6591 -2.04176 5.86498 12.6591 -2.04176
169 1 6.71088 10.907 -0.570963 6.71088 10.907 -0.570963
170 2 8.43516 10.8361 1.24685 8.43516 10.8361 1.24685
171 2 8.78946 11.0009 -1.97219 8.78946 11.0009 -1.97219
172 1 9.60572 12.5328 -0.215932 9.60572 12.5328 -0.215932
173 2 11.5188 12.6311 1.35008 11.5188 12.6311 1.35008
174 2 11.3887 12.6518 -1.93311 11.3887 12.6518 -1.93311
175 1 12.3395 10.9504 -0.270422 12.3395 10.9504 -0.270422
176 2 14.103 11.0299 1.51949 14.103 11.0299 1.51949
177 2 14.2838 10.7858 -1.69824 14.2838 10.7858 -1.69824
178 1 15.2 12.576 -0.136543 15.2 12.576 -0.136543
179 2 17.1189 12.4329 1.48421 17.1189 12.4329 1.48421
180 2 17.1361 12.5977 -1.78414 17.1361 12.5977 -1.78414
181 1 18.0827 10.8219 -0.271397 18.0827 10.8219 -0.271397
182 2 20.0099 10.8554 1.43963 20.0099 10.8554 1.43963
183 2 20.1781 10.7782 -1.83636 20.1781 10.7782 -1.83636
184 1 21.0912 12.4577 -0.228813 21.0912 12.4577 -0.228813
185 2 22.7539 12.2401 1.52122 22.7539 12.2401 1.52122
186 2 23.1456 12.6753 -1.71837 23.1456 12.6753 -1.71837
187 1 23.9466 10.8564 -0.255857 23.9466 10.8564 -0.255857
188 2 25.8543 10.7216 1.26619 25.8543 10.7216 1.26619
189 2 25.6793 11.0482 -1.93698 25.6793 11.0482 -1.93698
190 1 26.7461 12.558 -0.168056 26.7461 12.558 -0.168056
191 2 28.6368 12.4556 1.45043 28.6368 12.4556 1.45043
192 2 28.6719 12.5868 -1.85627 28.6719 12.5868 -1.85627
193 1 29.6267 10.8776 -0.292618 29.6267 10.8776 -0.292618
194 2 31.6017 10.7923 1.24012 31.6017 10.7923 1.24012
195 2 31.4947 10.9317 -1.97785 31.4947 10.9317 -1.97785
196 1 32.4887 12.5545 -0.245622 32.4887 12.5545 -0.245622
197 2 34.4151 12.3695 1.30655 34.4151 12.3695 1.30655
198 2 34.35 12.6661 -1.88852 34.35 12.6661 -1.88852
199 1 35.3148 10.9108 -0.495844 35.3148 10.9108 -0.495844
200 2 37.146 10.8879 1.24089 37.146 10.8879 1.24089
201 2 37.2289 10.8972 -2.11976 37.2289 10.8972 -2.11976
202 1 38.1951 12.5333 -0.397756 38.1951 12.5333 -0.397756
203 2 40.2512 12.4063 1.14283 40.2512 12.4063 1.14283
204 2 39.9848 12.6095 -2.06093 39.9848 12.6095 -2.06093
205 1 41.1111 10.9398 -0.619915 41.1111 10.9398 -0.619915
206 2 42.8896 10.7465 1.03681 42.8896 10.7465 1.03681
207 2 42.9769 11.0648 -2.22542 42.9769 11.0648 -2.22542
208 1 43.9172 12.5113 -0.321836 43.9172 12.5113 -0.321836
209 2 45.9295 12.4704 1.18394 45.9295 12.4704 1.18394
210 2 45.6774 12.5461 -2.08113 45.6774 12.5461 -2.08113
211 1 46.7334 10.8391 -0.609464 46.7334 10.8391 -0.609464
212 2 48.6339 10.8276 1.02465 48.6339 10.8276 1.02465
213 2 48.6248 10.865 -2.22024 48.6248 10.865 -2.22024
214 1 49.6845 12.498 -0.537655 49.6845 12.498 -0.537655
215 2 51.6503 12.5282 0.998217 51.6503 12.5282 0.998217
216 2 51.4382 12.5746 -2.25854 51.4382 12.5746 -2.25854
217 1 1.14432 14.231 -0.6907 1.14432 14.231 -0.6907
218 2 2.94518 14.0755 1.0595 2.94518 14.0755 1.0595
219 2 3.00512 14.2272 -2.19354 3.00512 14.2272 -2.19354
220 1 3.96433 15.7871 -0.37767 3.96433 15.7871 -0.37767
221 2 5.87744 15.8541 1.30911 5.87744 15.8541 1.30911
222 2 5.79254 15.7484 -1.95235 5.79254 15.7484 -1.95235
223 1 6.74513 14.1039 -0.215621 6.74513 14.1039 -0.215621
224 2 8.67311 14.2223 1.36982 8.67311 14.2223 1.36982
225 2 8.5995 14.1757 -1.94983 8.5995 14.1757 -1.94983
226 1 9.5139 15.8685 -0.262522 9.5139 15.8685 -0.262522
227 2 11.5045 16.1062 1.22479 11.5045 16.1062 1.22479
228 2 11.2949 15.7744 -2.01048 11.2949 15.7744 -2.01048
229 1 12.412 14.2159 -0.34971 12.412 14.2159 -0.34971
230 2 14.2406 14.2947 1.45048 14.2406 14.2947 1.45048
231 2 14.31 14.118 -1.91284 14.31 14.118 -1.91284
232 1 15.3132 15.7908 -0.172307 15.3132 15.7908 -0.172307
233 2 17.1392 15.767 1.54622 17.1392 15.767 1.54622
234 2 17.256 15.7928 -1.71624 17.256 15.7928 -1.71624
235 1 18.2175 14.1342 -0.0648062 18.2175 14.1342 -0.0648062
236 2 19.9628 13.8795 1.71688 19.9628 13.8795 1.71688
237 2 20.0891 14.5141 -1.59044 20.0891 14.5141 -1.59044
238 1 20.9509 15.8114 0.406762 20.9509 15.8114 0.406762
239 2 22.8307 15.7064 1.8757 22.8307 15.7064 1.8757
240 2 22.8551 15.7642 -1.27824 22.8551 15.7642 -1.27824
241 1 23.8943 14.0673 0.215214 23.8943 14.0673 0.215214
242 2 25.9468 13.8984 1.68931 25.9468 13.8984 1.68931
243 2 25.7466 14.4463 -1.50806 25.7466 14.4463 -1.50806
244 1 26.6628 15.841 0.298381 26.6628 15.841 0.298381
245 2 28.6264 15.653 1.92891 28.6264 15.653 1.92891
246 2 28.5949 15.8912 -1.39805 28.5949 15.8912 -1.39805
247 1 29.5707 14.2214 0.0389916 29.5707 14.2214 0.0389916
248 2 31.5036 13.8622 1.65768 31.5036 13.8622 1.65768
249 2 31.5276 14.36 -1.65053 31.5276 14.36 -1.65053
250 1 32.4359 15.7687 0.29501 32.4359 15.7687 0.29501
251 2 34.4569 15.5547 1.7859 34.4569 15.5547 1.7859
252 2 34.347 16.0521 -1.41104 34.347 16.0521 -1.41104
253 1 35.3352 14.2037 -0.157472 35.3352 14.2037 -0.157472
254 2 37.3248 14.1389 1.31747 37.3248 14.1389 1.31747
255 2 37.1908 14.3274 -1.88569 37.1908 14.3274 -1.88569
256 1 38.2149 15.8635 -0.182597 38.2149 15.8635 -0.182597
257 2 40.2664 15.8239 1.21538 40.2664 15.8239 1.21538
258 2 40.0221 15.7403 -2.04014 40.0221 15.7403 -2.04014
259 1 41.0933 14.1438 -0.377785 41.0933 14.1438 -0.377785
260 2 42.9231 14.1284 1.2573 42.9231 14.1284 1.2573
261 2 43.0109 14.1532 -2.03119 43.0109 14.1532 -2.03119
262 1 43.9852 15.7809 -0.433017 43.9852 15.7809 -0.433017
263 2 45.8632 15.7001 1.15994 45.8632 15.7001 1.15994
264 2 45.8747 15.7929 -2.01348 45.8747 15.7929 -2.01348
265 1 46.8131 14.1303 -0.454198 46.8131 14.1303 -0.454198
266 2 48.689 14.1744 1.21427 48.689 14.1744 1.21427
267 2 48.7199 14.2678 -2.06161 48.7199 14.2678 -2.06161
268 1 49.7213 15.8468 -0.293056 49.7213 15.8468 -0.293056
269 2 51.7307 15.6354 1.16338 51.7307 15.6354 1.16338
270 2 51.6331 16.0375 -2.04707 51.6331 16.0375 -2.04707
271 1 1.13613 17.4749 -0.33065 1.13613 17.4749 -0.33065
272 2 3.0871 17.5856 1.23642 3.0871 17.5856 1.23642
273 2 2.93429 17.3701 -2.0571 2.93429 17.3701 -2.0571
274 1 3.90766 19.069 -0.586587 3.90766 19.069 -0.586587
275 2 5.77663 19.1797 1.1458 5.77663 19.1797 1.1458
276 2 5.84089 18.9713 -2.18852 5.84089 18.9713 -2.18852
277 1 6.79903 17.5252 -0.429405 6.79903 17.5252 -0.429405
278 2 8.56026 17.5915 1.24218 8.56026 17.5915 1.24218
279 2 8.69161 17.505 -2.02186 8.69161 17.505 -2.02186
280 1 9.59043 19.1057 -0.400014 9.59043 19.1057 -0.400014
281 2 11.4373 19.1071 1.22699 11.4373 19.1071 1.22699
282 2 11.3701 19.2651 -1.95251 11.3701 19.2651 -1.95251
283 1 12.3962 17.561 -0.556294 12.3962 17.561 -0.556294
284 2 14.0398 17.5056 1.30113 14.0398 17.5056 1.30113
285 2 14.525 17.415 -1.95399 14.525 17.415 -1.95399
286 1 15.2501 19.1146 -0.239991 15.2501 19.1146 -0.239991
287 2 16.9966 19.1131 1.48412 16.9966 19.1131 1.48412
288 2 17.3614 19.1689 -1.63336 17.3614 19.1689 -1.63336
289 1 18.1107 17.487 -0.0202871 18.1107 17.487 -0.0202871
290 2 19.7599 17.5901 1.82878 19.7599 17.5901 1.82878
291 2 20.1899 17.4132 -1.36441 20.1899 17.4132 -1.36441
292 1 20.9252 19.1291 0.219416 20.9252 19.1291 0.219416
293 2 22.6421 18.99 1.98729 22.6421 18.99 1.98729
294 2 22.862 19.1792 -1.2813 22.862 19.1792 -1.2813
295 1 23.7885 17.5346 0.353225 23.7885 17.5346 0.353225
296 2 25.7151 17.2308 2.08395 25.7151 17.2308 2.08395
297 2 25.7308 17.7269 -1.19698 25.7308 17.7269 -1.19698
298 1 26.6568 19.1912 0.682517 26.6568 19.1912 0.682517
299 2 28.6615 19.0754 2.13833 28.6615 19.0754 2.13833
300 2 28.4748 19.16 -1.17114 28.4748 19.16 -1.17114
301 1 29.4667 17.4343 0.398522 29.4667 17.4343 0.398522
302 2 31.4339 17.4074 2.02418 31.4339 17.4074 2.02418
303 2 31.4181 17.5625 -1.14903 31.4181 17.5625 -1.14903
304 1 32.4025 19.165 0.524692 32.4025 19.165 0.524692
305 2 34.5331 19.3315 1.911 34.5331 19.3315 1.911
306 2 34.1838 19.1188 -1.28178 34.1838 19.1188 -1.28178
307 1 35.3176 17.578 0.375011 35.3176 17.578 0.375011
308 2 37.5668 17.5987 1.59343 37.5668 17.5987 1.59343
309 2 36.8987 17.5662 -1.61078 36.8987 17.5662 -1.61078
310 1 38.1768 19.2317 -0.242612 38.1768 19.2317 -0.242612
311 2 40.125 18.947 1.3157 40.125 18.947 1.3157
312 2 40.1131 19.3283 -1.87582 40.1131 19.3283 -1.87582
313 1 41.0804 17.4453 -0.435554 41.0804 17.4453 -0.435554
314 2 43.027 17.3563 1.14003 43.027 17.3563 1.14003
315 2 43.0708 17.4544 -2.06365 43.0708 17.4544 -2.06365
316 1 43.9495 19.1412 -0.41405 43.9495 19.1412 -0.41405
317 2 45.8412 19.0209 1.23076 45.8412 19.0209 1.23076
318 2 45.782 19.0739 -1.9865 45.782 19.0739 -1.9865
319 1 46.8682 17.3591 -0.380722 46.8682 17.3591 -0.380722
320 2 48.7635 17.4847 1.23589 48.7635 17.4847 1.23589
321 2 48.7963 17.3118 -2.02441 48.7963 17.3118 -2.02441
322 1 49.6714 19.1412 -0.495499 49.6714 19.1412 -0.495499
323 2 51.5652 19.1164 1.26663 51.5652 19.1164 1.26663
324 2 51.7669 19.2061 -2.01394 51.7669 19.2061 -2.01394
325 1 1.07097 20.8486 -0.292839 1.07097 20.8486 -0.292839
326 2 2.96779 20.6752 1.19718 2.96779 20.6752 1.19718
327 2 2.79751 20.8452 -1.88697 2.79751 20.8452 -1.88697
328 1 3.86276 22.4133 -0.24957 3.86276 22.4133 -0.24957
329 2 5.84531 22.4011 1.17317 5.84531 22.4011 1.17317
330 2 5.61997 22.4939 -2.08315 5.61997 22.4939 -2.08315
331 1 6.71496 20.7653 -0.487259 6.71496 20.7653 -0.487259
332 2 8.58841 20.7704 1.18094 8.58841 20.7704 1.18094
333 2 8.66078 20.8286 -2.02899 8.66078 20.8286 -2.02899
334 1 9.52121 22.4394 -0.489122 9.52121 22.4394 -0.489122
335 2 11.2698 22.4185 1.28459 11.2698 22.4185 1.28459
336 2 11.4766 22.4461 -1.98929 11.4766 22.4461 -1.98929
337 1 12.3696 20.7883 -0.306453 12.3696 20.7883 -0.306453
338 2 14.1507 20.5859 1.44525 14.1507 20.5859 1.44525
339 2 14.4795 20.9357 -1.67427 14.4795 20.9357 -1.67427
340 1 15.2853 22.4036 0.176627 15.2853 22.4036 0.176627
341 2 17.1747 22.2715 1.80205 17.1747 22.2715 1.80205
342 2 17.3282 22.5647 -1.41679 17.3282 22.5647 -1.41679
343 1 18.1102 20.7392 0.0321416 18.1102 20.7392 0.0321416
344 2 19.7364 20.6212 1.92201 19.7364 20.6212 1.92201
345 2 20.1679 20.9268 -1.39171 20.1679 20.9268 -1.39171
346 1 20.9996 22.4408 0.600444 20.9996 22.4408 0.600444
347 2 22.8999 22.3699 2.10163 22.8999 22.3699 2.10163
348 2 22.9946 22.4261 -1.11941 22.9946 22.4261 -1.11941
349 1 23.801 20.7911 0.469771 23.801 20.7911 0.469771
350 2 25.5541 20.8054 2.33023 25.5541 20.8054 2.33023
351 2 25.8154 20.8285 -0.971297 25.8154 20.8285 -0.971297
352 1 26.6472 22.4135 0.764949 26.6472 22.4135 0.764949
353 2 28.6364 22.201 2.25026 28.6364 22.201 2.25026
354 2 28.5972 22.5283 -0.987948 28.5972 22.5283 -0.987948
355 1 29.5612 20.7502 0.499062 29.5612 20.7502 0.499062
356 2 31.5062 20.9151 2.09951 31.5062 20.9151 2.09951
357 2 31.3985 20.6665 -1.09451 31.3985 20.6665 -1.09451
358 1 32.5069 22.4103 0.40979 32.5069 22.4103 0.40979
359 2 34.5712 22.4424 1.81697 34.5712 22.4424 1.81697
360 2 34.1495 22.4233 -1.43851 34.1495 22.4233 -1.43851
361 1 35.336 20.8244 0.0885575 35.336 20.8244 0.0885575
362 2 37.2849 20.6872 1.57193 37.2849 20.6872 1.57193
363 2 37.0353 20.8332 -1.70937 37.0353 20.8332 -1.70937
364 1 38.113 22.445 -0.0747224 38.113 22.445 -0.0747224
365 2 40.0685 22.4398 1.57324 40.0685 22.4398 1.57324
366 2 40.0645 22.3136 -1.76681 40.0645 22.3136 -1.76681
367 1 41.0125 20.6937 -0.0494699 41.0125 20.6937 -0.0494699
368 2 43.0709 20.7162 1.28168 43.0709 20.7162 1.28168
369 2 42.7377 20.7444 -1.93596 42.7377 20.7444 -1.93596
370 1 43.8726 22.3976 -0.393992 43.8726 22.3976 -0.393992
371 2 45.7639 22.3025 1.32444 45.7639 22.3025 1.32444
372 2 45.8592 22.4775 -1.9431 45.8592 22.4775 -1.9431
373 1 46.8054 20.743 -0.328647 46.8054 20.743 -0.328647
374 2 48.6966 20.6573 1.35355 48.6966 20.6573 1.35355
375 2 48.7045 20.9546 -1.98228 48.7045 20.9546 -1.98228
376 1 49.6985 22.363 -0.185948 49.6985 22.363 -0.185948
377 2 51.594 22.5313 1.4805 51.594 22.5313 1.4805
378 2 51.6115 22.5244 -1.84081 51.6115 22.5244 -1.84081
379 1 1.01394 24.174 -0.202434 1.01394 24.174 -0.202434
380 2 2.79964 24.1381 1.40129 2.79964 24.1381 1.40129
381 2 2.9533 24.0454 -1.81258 2.9533 24.0454 -1.81258
382 1 3.85748 25.7801 -0.192773 3.85748 25.7801 -0.192773
383 2 5.82028 25.5929 1.33111 5.82028 25.5929 1.33111
384 2 5.66337 25.8486 -1.90833 5.66337 25.8486 -1.90833
385 1 6.68677 24.1207 -0.525214 6.68677 24.1207 -0.525214
386 2 8.57705 23.9899 1.1364 8.57705 23.9899 1.1364
387 2 8.72751 24.2655 -2.07918 8.72751 24.2655 -2.07918
388 1 9.53358 25.7188 -0.269196 9.53358 25.7188 -0.269196
389 2 11.3631 25.6661 1.55823 11.3631 25.6661 1.55823
390 2 11.47 25.9187 -1.79059 11.47 25.9187 -1.79059
391 1 12.353 24.0993 -0.148148 12.353 24.0993 -0.148148
392 2 14.0979 23.9624 1.66777 14.0979 23.9624 1.66777
393 2 14.3929 24.1167 -1.62166 14.3929 24.1167 -1.62166
394 1 15.1822 25.7197 0.201609 15.1822 25.7197 0.201609
395 2 17.0513 25.8665 1.82557 17.0513 25.8665 1.82557
396 2 16.954 25.5057 -1.42727 16.954 25.5057 -1.42727
397 1 18.1388 24.1352 0.353015 18.1388 24.1352 0.353015
398 2 19.8884 24.2832 2.0488 19.8884 24.2832 2.0488
399 2 20.1885 23.9839 -1.22825 20.1885 23.9839 -1.22825
400 1 20.9926 25.721 0.361674 20.9926 25.721 0.361674
401 2 22.8139 25.7124 2.1145 22.8139 25.7124 2.1145
402 2 23.0097 25.6742 -1.21922 23.0097 25.6742 -1.21922
403 1 23.785 24.0976 0.444568 23.785 24.0976 0.444568
404 2 25.5891 24.0549 2.16995 25.5891 24.0549 2.16995
405 2 25.8211 23.9956 -1.02701 25.8211 23.9956 -1.02701
406 1 26.6582 25.6894 0.621976 26.6582 25.6894 0.621976
407 2 28.5963 25.8394 2.27887 28.5963 25.8394 2.27887
408 2 28.6112 25.6843 -0.990801 28.6112 25.6843 -0.990801
409 1 29.5958 24.014 0.762685 29.5958 24.014 0.762685
410 2 31.6397 23.9678 2.18878 31.6397 23.9678 2.18878
411 2 31.3654 24.0379 -1.09226 31.3654 24.0379 -1.09226
412 1 32.4659 25.6179 0.501715 32.4659 25.6179 0.501715
413 2 34.5675 25.703 1.87505 34.5675 25.703 1.87505
414 2 34.1026 25.6873 -1.31704 34.1026 25.6873 -1.31704
415 1 35.3517 24.0256 0.120484 35.3517 24.0256 0.120484
416 2 37.2952 24.1685 1.60944 37.2952 24.1685 1.60944
417 2 37.0866 24.0186 -1.68849 37.0866 24.0186 -1.68849
418 1 38.2146 25.746 -0.166218 38.2146 25.746 -0.166218
419 2 40.1084 25.6442 1.46019 40.1084 25.6442 1.46019
420 2 40.0632 25.7121 -1.78142 40.0632 25.7121 -1.78142
421 1 40.9562 23.9585 -0.18291 40.9562 23.9585 -0.18291
422 2 42.8668 23.8566 1.46879 42.8668 23.8566 1.46879
423 2 42.8664 24.2192 -1.81802 42.8664 24.2192 -1.81802
424 1 43.8658 25.6409 -0.00792088 43.8658 25.6409 -0.00792088
425 2 45.829 25.5208 1.62022 45.829 25.5208 1.62022
426 2 45.8196 25.787 -1.77613 45.8196 25.787 -1.77613
427 1 46.8179 24.0511 -0.203515 46.8179 24.0511 -0.203515
428 2 48.638 23.8847 1.46136 48.638 23.8847 1.46136
429 2 48.8033 24.1228 -1.67426 48.8033 24.1228 -1.67426
430 1 49.6597 25.6914 0.0890182 49.6597 25.6914 0.0890182
431 2 51.5738 25.5865 1.63114 51.5738 25.5865 1.63114
432 2 51.3936 25.8547 -1.65978 51.3936 25.8547 -1.65978
433 1 1.02647 27.2945 -0.0580709 1.02647 27.2945 -0.0580709
434 2 2.94489 27.4741 1.44667 2.94489 27.4741 1.44667
435 2 2.88049 27.4258 -1.79653 2.88049 27.4258 -1.79653
436 1 3.85191 29.0877 -0.209173 3.85191 29.0877 -0.209173
437 2 5.79329 28.7578 1.58951 5.79329 28.7578 1.58951
438 2 5.99332 29.3164 -1.57995 5.99332 29.3164 -1.57995
439 1 6.76255 27.3847 -0.171734 6.76255 27.3847 -0.171734
440 2 8.63657 27.3864 1.42529 8.63657 27.3864 1.42529
441 2 8.70067 27.5143 -1.88644 8.70067 27.5143 -1.88644
442 1 9.60264 29.029 -0.150201 9.60264 29.029 -0.150201
443 2 11.376 29.0816 1.61418 11.376 29.0816 1.61418
444 2 11.6009 29.1904 -1.62945 11.6009 29.1904 -1.62945
445 1 12.4632 27.4561 0.0596055 12.4632 27.4561 0.0596055
446 2 14.2537 27.4422 1.67257 14.2537 27.4422 1.67257
447 2 14.2407 27.2694 -1.55884 14.2407 27.2694 -1.55884
448 1 15.2451 29.0777 -0.120315 15.2451 29.0777 -0.120315
449 2 17.0412 28.8958 1.61173 17.0412 28.8958 1.61173
450 2 17.1633 29.0498 -1.62408 17.1633 29.0498 -1.62408
451 1 18.0413 27.2885 0.00502443 18.0413 27.2885 0.00502443
452 2 19.8573 27.4832 1.6923 19.8573 27.4832 1.6923
453 2 20.0736 27.2074 -1.41851 20.0736 27.2074 -1.41851
454 1 20.9724 29.0089 0.0228337 20.9724 29.0089 0.0228337
455 2 22.6922 29.1684 1.88684 22.6922 29.1684 1.88684
456 2 23.1521 28.8912 -1.42334 23.1521 28.8912 -1.42334
457 1 23.872 27.3297 0.418281 23.872 27.3297 0.418281
458 2 25.7295 27.5041 2.15423 25.7295 27.5041 2.15423
459 2 25.8274 27.1544 -1.11357 25.8274 27.1544 -1.11357
460 1 26.6504 29.0543 0.421934 26.6504 29.0543 0.421934
461 2 28.4589 29.2569 2.041 28.4589 29.2569 2.041
462 2 28.5977 28.9456 -1.19167 28.5977 28.9456 -1.19167
463 1 29.5661 27.4282 0.553693 29.5661 27.4282 0.553693
464 2 31.6234 27.3684 2.05678 31.6234 27.3684 2.05678
465 2 31.3557 27.2659 -1.20881 31.3557 27.2659 -1.20881
466 1 32.4507 29.0375 0.191107 32.4507 29.0375 0.191107
467 2 34.4501 28.8847 1.85197 34.4501 28.8847 1.85197
468 2 34.4168 29.0233 -1.50685 34.4168 29.0233 -1.50685
469 1 35.3106 27.3638 0.0910416 35.3106 27.3638 0.0910416
470 2 37.5109 27.4098 1.61607 37.5109 27.4098 1.61607
471 2 36.9899 27.5265 -1.69969 36.9899 27.5265 -1.69969
472 1 38.1756 29.1494 -0.096196 38.1756 29.1494 -0.096196
473 2 40.103 29.1064 1.52605 40.103 29.1064 1.52605
474 2 40.0953 29.1442 -1.67087 40.0953 29.1442 -1.67087
475 1 41.0199 27.387 -0.106145 41.0199 27.387 -0.106145
476 2 42.8348 27.3321 1.65999 42.8348 27.3321 1.65999
477 2 42.953 27.409 -1.70015 42.953 27.409 -1.70015
478 1 43.9016 28.9433 0.0250625 43.9016 28.9433 0.0250625
479 2 45.6749 28.9096 1.68367 45.6749 28.9096 1.68367
480 2 45.8495 29.0053 -1.59422 45.8495 29.0053 -1.59422
481 1 46.7359 27.279 -0.0290089 46.7359 27.279 -0.0290089
482 2 48.4735 27.2432 1.68932 48.4735 27.2432 1.68932
483 2 48.7464 27.5246 -1.45155 48.7464 27.5246 -1.45155
484 1 49.6262 28.9466 0.283012 49.6262 28.9466 0.283012
485 2 51.502 28.7425 1.72143 51.502 28.7425 1.72143
486 2 51.5631 29.0897 -1.4395 51.5631 29.0897 -1.4395
487 1 0.961138 30.6724 0.295429 0.961138 30.6724 0.295429
488 2 2.94642 30.3632 1.72667 2.94642 30.3632 1.72667
489 2 2.69462 30.9031 -1.55811 2.69462 30.9031 -1.55811
490 1 3.77823 32.2332 0.294933 3.77823 32.2332 0.294933
491 2 5.72079 32.3199 2.01885 5.72079 32.3199 2.01885
492 2 5.76344 32.3568 -1.31822 5.76344 32.3568 -1.31822
493 1 6.80152 30.7311 0.339316 6.80152 30.7311 0.339316
494 2 8.83319 30.5228 1.76673 8.83319 30.5228 1.76673
495 2 8.53149 30.7853 -1.55408 8.53149 30.7853 -1.55408
496 1 9.59324 32.3855 0.2154 9.59324 32.3855 0.2154
497 2 11.5493 32.4709 1.79452 11.5493 32.4709 1.79452
498 2 11.4531 32.4667 -1.52618 11.4531 32.4667 -1.52618
499 1 12.4103 30.8125 0.106877 12.4103 30.8125 0.106877
500 2 14.3001 30.6031 1.69765 14.3001 30.6031 1.69765
501 2 14.3714 30.9082 -1.59733 14.3714 30.9082 -1.59733
502 1 15.3472 32.3848 0.211189 15.3472 32.3848 0.211189
503 2 17.1966 32.1863 1.82779 17.1966 32.1863 1.82779
504 2 17.1718 32.4591 -1.3888 17.1718 32.4591 -1.3888
505 1 18.1666 30.5954 0.134465 18.1666 30.5954 0.134465
506 2 19.9912 30.5149 1.82599 19.9912 30.5149 1.82599
507 2 20.055 30.8015 -1.48803 20.055 30.8015 -1.48803
508 1 20.9876 32.2836 0.295802 20.9876 32.2836 0.295802
509 2 22.8954 32.2579 1.87963 22.8954 32.2579 1.87963
510 2 22.8874 32.3597 -1.40794 22.8874 32.3597 -1.40794
511 1 23.7916 30.6525 0.197758 23.7916 30.6525 0.197758
512 2 25.6832 30.819 1.86156 25.6832 30.819 1.86156
513 2 25.7895 30.4562 -1.34468 25.7895 30.4562 -1.34468
514 1 26.73 32.3033 0.0851624 26.73 32.3033 0.0851624
515 2 28.5691 32.4319 1.74138 28.5691 32.4319 1.74138
516 2 28.6189 32.1705 -1.57624 28.6189 32.1705 -1.57624
517 1 29.5487 30.7055 0.234446 29.5487 30.7055 0.234446
518 2 31.458 30.7596 1.76236 31.458 30.7596 1.76236
519 2 31.3809 30.5537 -1.44108 31.3809 30.5537 -1.44108
520 1 32.4363 32.3877 0.0507773 32.4363 32.3877 0.0507773
521 2 34.2739 32.3158 1.75281 34.2739 32.3158 1.75281
522 2 34.3182 32.3656 -1.58015 34.3182 32.3656 -1.58015
523 1 35.233 30.6311 0.1627 35.233 30.6311 0.1627
524 2 37.2197 30.7593 1.59264 37.2197 30.7593 1.59264
525 2 37.0727 30.7712 -1.59939 37.0727 30.7712 -1.59939
526 1 38.1668 32.362 -0.034506 38.1668 32.362 -0.034506
527 2 40.1484 32.2718 1.5814 40.1484 32.2718 1.5814
528 2 40.0042 32.4577 -1.68619 40.0042 32.4577 -1.68619
529 1 41.0094 30.6863 -0.0961916 41.0094 30.6863 -0.0961916
530 2 42.822 30.5678 1.66741 42.822 30.5678 1.66741
531 2 42.9797 30.574 -1.65681 42.9797 30.574 -1.65681
532 1 43.9208 32.2703 -0.023819 43.9208 32.2703 -0.023819
533 2 45.6719 32.4446 1.66941 45.6719 32.4446 1.66941
534 2 45.9141 32.1886 -1.59663 45.9141 32.1886 -1.59663
535 1 46.7373 30.5928 0.184145 46.7373 30.5928 0.184145
536 2 48.6841 30.7819 1.74445 48.6841 30.7819 1.74445
537 2 48.541 30.4089 -1.47359 48.541 30.4089 -1.47359
538 1 49.6387 32.2581 -0.00174458 49.6387 32.2581 -0.00174458