ITEM: TIMESTEP
32400
ITEM: NUMBER OF ATOMS
810
ITEM: BOX BOUNDS pp pp pp
7.4339505631592717e-01 5.2274209943684802e+01
8.1062002127115296e-01 5.0205594978728314e+01
-1.0000000000000000e+01 1.0000000000000000e+01
ITEM: ATOMS id type x y z xu yu zu
1 1 1.07364 1.03915 0.601831 1.07364 1.03915 0.601831
2 2 3.09721 1.00238 2.14221 3.09721 1.00238 2.14221
3 2 2.9598 1.18788 -1.10816 2.9598 1.18788 -1.10816
4 1 3.95244 2.72582 0.581354 3.95244 2.72582 0.581354
5 2 5.79544 2.60687 2.26045 5.79544 2.60687 2.26045
6 2 5.86189 2.71034 -1.04881 5.86189 2.71034 -1.04881
7 1 6.71548 0.911487 0.485761 6.71548 0.911487 0.485761
8 2 8.56531 0.918671 2.1288 8.56531 0.918671 2.1288
9 2 8.61536 0.94619 -1.06271 8.61536 0.94619 -1.06271
10 1 9.54502 2.67763 0.58997 9.54502 2.67763 0.58997
11 2 11.7023 2.62475 1.89541 11.7023 2.62475 1.89541
12 2 11.1948 2.77756 -1.34375 11.1948 2.77756 -1.34375
13 1 12.3627 0.997773 0.0564924 12.3627 0.997773 0.0564924
14 2 14.4128 0.995342 1.61434 14.4128 0.995342 1.61434
15 2 14.2393 1.08044 -1.73739 14.2393 1.08044 -1.73739
16 1 15.2413 2.68231 -0.00334076 15.2413 2.68231 -0.00334076
17 2 17.4262 2.61982 1.40093 17.4262 2.61982 1.40093
18 2 16.8723 2.84374 -1.92498 16.8723 2.84374 -1.92498
19 1 17.9818 1.02538 -0.489259 17.9818 1.02538 -0.489259
20 2 19.8195 0.877188 1.20339 19.8195 0.877188 1.20339
21 2 20.0419 0.962578 -2.02579 20.0419 0.962578 -2.02579
22 1 20.8726 2.5169 -0.297055 20.8726 2.5169 -0.297055
23 2 22.9091 2.43243 1.28117 22.9091 2.43243 1.28117
24 2 22.8134 2.61531 -1.95664 22.8134 2.61531 -1.95664
25 1 23.7047 50.1968 -0.468024 23.7047 0.801858 -0.468024
26 2 25.5679 50.125 1.24483 25.5679 0.729991 1.24483
27 2 25.7618 1.02149 -1.96431 25.7618 1.02149 -1.96431
28 1 26.7155 2.57886 -0.150938 26.7155 2.57886 -0.150938
29 2 28.4746 2.46156 1.55769 28.4746 2.46156 1.55769
30 2 28.6154 2.65839 -1.76771 28.6154 2.65839 -1.76771
31 1 29.5335 1.0011 -0.204196 29.5335 1.0011 -0.204196
32 2 31.5215 0.824432 1.40567 31.5215 0.824432 1.40567
33 2 31.4777 1.10491 -1.86086 31.4777 1.10491 -1.86086
34 1 32.4187 2.59283 -0.0962615 32.4187 2.59283 -0.0962615
35 2 34.1951 2.56815 1.59178 34.1951 2.56815 1.59178
36 2 34.4174 2.89353 -1.58469 34.4174 2.89353 -1.58469
37 1 35.2519 1.08638 -0.070629 35.2519 1.08638 -0.070629
38 2 37.0746 0.823618 1.65625 37.0746 0.823618 1.65625
39 2 37.2839 1.1805 -1.54725 37.2839 1.1805 -1.54725
40 1 38.0938 2.71531 0.244805 38.0938 2.71531 0.244805
41 2 39.8366 2.32629 1.9624 39.8366 2.32629 1.9624
42 2 40.3013 3.02516 -1.16892 40.3013 3.02516 -1.16892
43 1 40.9884 1.07121 0.174365 40.9884 1.07121 0.174365
44 2 42.811 0.974263 1.96474 42.811 0.974263 1.96474
45 2 43.033 1.074 -1.35518 43.033 1.074 -1.35518
46 1 43.929 2.65279 0.418346 43.929 2.65279 0.418346
47 2 45.6725 2.6407 2.33994 45.6725 2.6407 2.33994
48 2 46.1519 2.85914 -0.983625 46.1519 2.85914 -0.983625
49 1 46.7693 1.03074 0.704592 46.7693 1.03074 0.704592
50 2 48.856 0.917798 2.09927 48.856 0.917798 2.09927
51 2 48.7167 1.19881 -1.12488 48.7167 1.19881 -1.12488
52 1 49.6756 2.68049 0.551383 49.6756 2.68049 0.551383
53 2 51.5339 2.6752 2.23818 51.5339 2.6752 2.23818
54 2 51.6311 2.70701 -1.02972 51.6311 2.70701 -1.02972
55 1 1.0775 4.33368 0.698844 1.0775 4.33368 0.698844
56 2 2.91413 4.30148 2.37883 2.91413 4.30148 2.37883
57 2 3.04424 4.43843 -0.973021 3.04424 4.43843 -0.973021
58 1 3.91425 5.96024 0.824618 3.91425 5.96024 0.824618
59 2 6.09137 6.14041 2.32679 6.09137 6.14041 2.32679
60 2 5.68847 5.80594 -0.94921 5.68847 5.80594 -0.94921
61 1 6.77812 4.27786 0.812436 6.77812 4.27786 0.812436
62 2 8.85763 4.34231 2.33384 8.85763 4.34231 2.33384
63 2 8.50387 4.21602 -0.930531 8.50387 4.21602 -0.930531
64 1 9.51239 5.95495 0.570168 9.51239 5.95495 0.570168
65 2 11.4591 5.91328 2.07974 11.4591 5.91328 2.07974
66 2 11.2381 5.95812 -1.24691 11.2381 5.95812 -1.24691
67 1 12.3276 4.31198 0.253063 12.3276 4.31198 0.253063
68 2 14.3723 4.27085 1.73161 14.3723 4.27085 1.73161
69 2 14.1401 4.42895 -1.54821 14.1401 4.42895 -1.54821
70 1 15.2319 5.93376 0.161035 15.2319 5.93376 0.161035
71 2 17.4075 5.82292 1.59502 17.4075 5.82292 1.59502
72 2 17.0034 6.18355 -1.60214 17.0034 6.18355 -1.60214
73 1 18.1125 4.31462 -0.360493 18.1125 4.31462 -0.360493
74 2 19.8155 4.33798 1.30072 19.8155 4.33798 1.30072
75 2 20.0468 4.19716 -1.91292 20.0468 4.19716 -1.91292
76 1 20.9853 5.88836 -0.317772 20.9853 5.88836 -0.317772
77 2 22.7802 5.84225 1.32927 22.7802 5.84225 1.32927
78 2 22.8381 5.84902 -1.9703 22.8381 5.84902 -1.9703
79 1 23.8817 4.15216 -0.236883 23.8817 4.15216 -0.236883
80 2 25.7557 4.26498 1.40615 25.7557 4.26498 1.40615
81 2 25.6989 4.12356 -1.90208 25.6989 4.12356 -1.90208
82 1 26.628 5.852 -0.372737 26.628 5.852 -0.372737
83 2 28.362 5.95258 1.50719 28.362 5.95258 1.50719
84 2 28.7178 5.82002 -1.74377 28.7178 5.82002 -1.74377
85 1 29.4622 4.25711 0.0780008 29.4622 4.25711 0.0780008
86 2 31.472 4.15947 1.77081 31.472 4.15947 1.77081
87 2 31.3354 4.38015 -1.59987 31.3354 4.38015 -1.59987
88 1 32.4267 5.8818 0.0806864 32.4267 5.8818 0.0806864
89 2 34.2774 6.04374 1.77229 34.2774 6.04374 1.77229
90 2 34.4358 6.00322 -1.45794 34.4358 6.00322 -1.45794
91 1 35.2542 4.37508 0.198476 35.2542 4.37508 0.198476
92 2 37.1057 4.22364 1.85621 37.1057 4.22364 1.85621
93 2 37.217 4.49838 -1.35826 37.217 4.49838 -1.35826
94 1 38.2243 5.94908 0.409774 38.2243 5.94908 0.409774
95 2 39.8902 5.81432 2.22805 39.8902 5.81432 2.22805
96 2 40.3166 6.0278 -0.942838 40.3166 6.0278 -0.942838
97 1 41.0694 4.30463 0.696486 41.0694 4.30463 0.696486
98 2 43.0813 4.10811 2.30695 43.0813 4.10811 2.30695
99 2 42.9895 4.53262 -0.933106 42.9895 4.53262 -0.933106
100 1 44.003 5.8907 0.769512 44.003 5.8907 0.769512
101 2 45.8094 5.87303 2.54037 45.8094 5.87303 2.54037
102 2 45.9506 5.97724 -0.784556 45.9506 5.97724 -0.784556
103 1 46.7895 4.3395 0.872354 46.7895 4.3395 0.872354
104 2 48.7696 4.09175 2.42029 48.7696 4.09175 2.42029
105 2 48.6831 4.62949 -0.763166 48.6831 4.62949 -0.763166
106 1 49.751 5.99146 1.05062 49.751 5.99146 1.05062
107 2 51.7913 5.84434 2.47222 51.7913 5.84434 2.47222
108 2 51.3895 6.06141 -0.827745 51.3895 6.06141 -0.827745
109 1 0.949871 7.61305 0.725488 0.949871 7.61305 0.725488
110 2 2.78118 7.72428 2.38693 2.78118 7.72428 2.38693
111 2 2.8044 7.51283 -0.939396 2.8044 7.51283 -0.939396
112 1 3.71639 9.30681 0.724153 3.71639 9.30681 0.724153
113 2 5.82836 9.50408 2.08189 5.82836 9.50408 2.08189
114 2 5.50099 9.12523 -1.09686 5.50099 9.12523 -1.09686
115 1 6.77774 7.65085 0.52273 6.77774 7.65085 0.52273
116 2 8.70902 7.72343 2.08259 8.70902 7.72343 2.08259
117 2 8.61515 7.48775 -1.17144 8.61515 7.48775 -1.17144
118 1 9.57939 9.27214 0.266502 9.57939 9.27214 0.266502
119 2 11.4369 9.36735 1.88825 11.4369 9.36735 1.88825
120 2 11.5814 9.09843 -1.32406 11.5814 9.09843 -1.32406
121 1 12.3454 7.64025 0.443005 12.3454 7.64025 0.443005
122 2 14.5967 7.6466 1.8461 14.5967 7.6466 1.8461
123 2 14.0524 7.55633 -1.36956 14.0524 7.55633 -1.36956
124 1 15.2927 9.2853 -0.00159058 15.2927 9.2853 -0.00159058
125 2 17.143 9.29948 1.70939 17.143 9.29948 1.70939
126 2 17.1755 9.29197 -1.5472 17.1755 9.29197 -1.5472
127 1 18.1596 7.63707 0.0455298 18.1596 7.63707 0.0455298
128 2 20.1296 7.58425 1.4887 20.1296 7.58425 1.4887
129 2 19.8032 7.70817 -1.7671 19.8032 7.70817 -1.7671
130 1 21.0113 9.24053 -0.119983 21.0113 9.24053 -0.119983
131 2 23.0396 9.19533 1.31316 23.0396 9.19533 1.31316
132 2 22.7901 9.17185 -1.83121 22.7901 9.17185 -1.83121
133 1 23.8487 7.5042 -0.346554 23.8487 7.5042 -0.346554
134 2 25.8678 7.59127 1.13399 25.8678 7.59127 1.13399
135 2 25.6346 7.37587 -2.04431 25.6346 7.37587 -2.04431
136 1 26.673 9.18198 -0.570851 26.673 9.18198 -0.570851
137 2 28.3917 9.27425 1.36556 28.3917 9.27425 1.36556
138 2 28.8952 9.14193 -1.8346 28.8952 9.14193 -1.8346
139 1 29.5364 7.60893 -0.0503468 29.5364 7.60893 -0.0503468
140 2 31.4051 7.50696 1.67022 31.4051 7.50696 1.67022
141 2 31.5891 7.59423 -1.5971 31.5891 7.59423 -1.5971
142 1 32.4607 9.20194 0.0875241 32.4607 9.20194 0.0875241
143 2 34.2102 9.21145 1.80932 34.2102 9.21145 1.80932
144 2 34.4589 9.27247 -1.42924 34.4589 9.27247 -1.42924
145 1 35.3967 7.63921 0.247506 35.3967 7.63921 0.247506
146 2 37.0158 7.46487 2.09223 37.0158 7.46487 2.09223
147 2 37.5365 7.79902 -1.13316 37.5365 7.79902 -1.13316
148 1 38.2372 9.24769 0.860431 38.2372 9.24769 0.860431
149 2 40.0676 9.0693 2.74115 40.0676 9.0693 2.74115
150 2 40.2326 9.23239 -0.599716 40.2326 9.23239 -0.599716
151 1 41.0851 7.51528 0.998407 41.0851 7.51528 0.998407
152 2 43.0113 7.38358 2.57567 43.0113 7.38358 2.57567
153 2 43.0528 7.78364 -0.656678 43.0528 7.78364 -0.656678
154 1 43.9563 9.2644 1.21393 43.9563 9.2644 1.21393
155 2 46.0122 9.17945 2.6976 46.0122 9.17945 2.6976
156 2 45.8608 9.44271 -0.53636 45.8608 9.44271 -0.53636
157 1 46.7467 7.57385 0.910349 46.7467 7.57385 0.910349
158 2 48.6218 7.74529 2.60238 48.6218 7.74529 2.60238
159 2 48.7617 7.5426 -0.640981 48.7617 7.5426 -0.640981
160 1 49.5775 9.2961 0.954045 49.5775 9.2961 0.954045
161 2 51.6686 9.37576 2.30146 51.6686 9.37576 2.30146
162 2 51.2692 9.35918 -0.882863 51.2692 9.35918 -0.882863
163 1 0.941174 11.0025 0.604604 0.941174 11.0025 0.604604
164 2 2.94917 11.1414 2.06505 2.94917 11.1414 2.06505
165 2 2.78105 10.6588 -1.12193 2.78105 10.6588 -1.12193
166 1 3.71031 12.535 0.142852 3.71031 12.535 0.142852
167 2 5.67698 12.628 1.7539 5.67698 12.628 1.7539
168 2 5.61834 12.4472 -1.47494 5.61834 12.4472 -1.47494
169 1 6.58334 10.9203 0.131869 6.58334 10.9203 0.131869
170 2 8.54002 10.9719 1.72772 8.54002 10.9719 1.72772
171 2 8.59739 10.7531 -1.47284 8.59739 10.7531 -1.47284
172 1 9.41345 12.5264 0.0735071 9.41345 12.5264 0.0735071
173 2 11.4251 12.5447 1.78233 11.4251 12.5447 1.78233
174 2 11.3502 12.3123 -1.51751 11.3502 12.3123 -1.51751
175 1 12.4593 10.9045 0.139067 12.4593 10.9045 0.139067
176 2 14.3978 10.9777 1.68475 14.3978 10.9777 1.68475
177 2 14.3391 10.7804 -1.57142 14.3391 10.7804 -1.57142
178 1 15.3224 12.5843 -0.170971 15.3224 12.5843 -0.170971
179 2 17.1972 12.7261 1.51004 17.1972 12.7261 1.51004
180 2 17.2757 12.4049 -1.88093 17.2757 12.4049 -1.88093
181 1 18.2263 10.9188 0.0404577 18.2263 10.9188 0.0404577
182 2 20.3087 11.0184 1.46954 20.3087 11.0184 1.46954
183 2 19.9959 10.8428 -1.78704 19.9959 10.8428 -1.78704
184 1 20.9639 12.5366 -0.311804 20.9639 12.5366 -0.311804
185 2 22.8963 12.4082 1.38171 22.8963 12.4082 1.38171
186 2 23.0239 12.4944 -1.90822 23.0239 12.4944 -1.90822
187 1 23.8854 10.8407 -0.323758 23.8854 10.8407 -0.323758
188 2 25.78 10.6858 1.28705 25.78 10.6858 1.28705
189 2 25.8086 11.0509 -2.04034 25.8086 11.0509 -2.04034
190 1 26.7715 12.5763 -0.135546 26.7715 12.5763 -0.135546
191 2 28.7148 12.5436 1.46205 28.7148 12.5436 1.46205
192 2 28.6663 12.5394 -1.84265 28.6663 12.5394 -1.84265
193 1 29.5988 10.932 -0.223475 29.5988 10.932 -0.223475
194 2 31.3328 10.8708 1.63983 31.3328 10.8708 1.63983
195 2 31.6393 10.7804 -1.64099 31.6393 10.7804 -1.64099
196 1 32.3055 12.5651 0.0636764 32.3055 12.5651 0.0636764
197 2 34.125 12.4817 1.92382 34.125 12.4817 1.92382
198 2 34.5135 12.6439 -1.40109 34.5135 12.6439 -1.40109
199 1 35.3453 10.9496 0.293 35.3453 10.9496 0.293
200 2 36.9552 10.9742 2.20359 36.9552 10.9742 2.20359
201 2 37.456 10.8305 -1.06754 37.456 10.8305 -1.06754
202 1 38.1326 12.5621 0.771235 38.1326 12.5621 0.771235
203 2 39.9323 12.5822 2.57292 39.9323 12.5822 2.57292
204 2 40.2162 12.2954 -0.680033 40.2162 12.2954 -0.680033
205 1 41.0566 10.8457 1.17692 41.0566 10.8457 1.17692
206 2 42.9591 10.9385 2.80856 42.9591 10.9385 2.80856
207 2 42.935 10.8867 -0.528709 42.935 10.8867 -0.528709
208 1 43.852 12.5796 0.999878 43.852 12.5796 0.999878
209 2 45.7935 12.6306 2.60493 45.7935 12.6306 2.60493
210 2 45.767 12.5224 -0.610093 45.767 12.5224 -0.610093
211 1 46.8093 10.9684 1.1288 46.8093 10.9684 1.1288
212 2 48.7153 11.1181 2.60052 48.7153 11.1181 2.60052
213 2 48.5873 10.9452 -0.734647 48.5873 10.9452 -0.734647
214 1 49.6341 12.6058 0.812064 49.6341 12.6058 0.812064
215 2 51.7076 12.7529 2.23615 51.7076 12.7529 2.23615
216 2 51.3233 12.5476 -1.03375 51.3233 12.5476 -1.03375
217 1 0.834659 14.3511 0.369182 0.834659 14.3511 0.369182
218 2 2.83831 14.1625 1.81469 2.83831 14.1625 1.81469
219 2 2.72121 14.3178 -1.31154 2.72121 14.3178 -1.31154
220 1 3.80133 15.8602 0.224078 3.80133 15.8602 0.224078
221 2 5.84519 15.8832 1.68752 5.84519 15.8832 1.68752
222 2 5.69099 15.7971 -1.62506 5.69099 15.7971 -1.62506
223 1 6.66403 14.1567 0.0693527 6.66403 14.1567 0.0693527
224 2 8.57396 14.2645 1.68982 8.57396 14.2645 1.68982
225 2 8.51046 14.055 -1.62757 8.51046 14.055 -1.62757
226 1 9.57205 15.6779 -0.0841628 9.57205 15.6779 -0.0841628
227 2 11.5306 15.8158 1.53388 11.5306 15.8158 1.53388
228 2 11.4491 15.6896 -1.71752 11.4491 15.6896 -1.71752
229 1 12.3995 14.0614 0.00520161 12.3995 14.0614 0.00520161
230 2 14.3436 14.2213 1.46419 14.3436 14.2213 1.46419
231 2 14.1777 14.0611 -1.76997 14.1777 14.0611 -1.76997
232 1 15.2439 15.8311 -0.207524 15.2439 15.8311 -0.207524
233 2 17.1517 15.7766 1.4432 17.1517 15.7766 1.4432
234 2 17.2101 15.9864 -1.82764 17.2101 15.9864 -1.82764
235 1 18.1511 14.1491 -0.27617 18.1511 14.1491 -0.27617
236 2 19.9834 14.0793 1.37449 19.9834 14.0793 1.37449
237 2 20.0392 14.1312 -1.88873 20.0392 14.1312 -1.88873
238 1 20.9972 15.7455 -0.236144 20.9972 15.7455 -0.236144
239 2 23.0252 15.8254 1.3567 23.0252 15.8254 1.3567
240 2 22.8849 15.7284 -1.83903 22.8849 15.7284 -1.83903
241 1 23.977 14.1202 -0.221284 23.977 14.1202 -0.221284
242 2 26.0325 14.3889 1.27911 26.0325 14.3889 1.27911
243 2 25.8196 13.9977 -1.93305 25.8196 13.9977 -1.93305
244 1 26.7442 15.8656 -0.514989 26.7442 15.8656 -0.514989
245 2 28.6602 16.0413 1.19542 28.6602 16.0413 1.19542
246 2 28.6592 15.7471 -2.05695 28.6592 15.7471 -2.05695
247 1 29.5684 14.2175 -0.279694 29.5684 14.2175 -0.279694
248 2 31.3373 14.3343 1.57327 31.3373 14.3343 1.57327
249 2 31.6062 14.1817 -1.68949 31.6062 14.1817 -1.68949
250 1 32.4445 15.7963 0.0194387 32.4445 15.7963 0.0194387
251 2 33.9865 15.6353 1.95207 33.9865 15.6353 1.95207
252 2 34.5823 15.9282 -1.25751 34.5823 15.9282 -1.25751
253 1 35.3108 14.1682 0.350911 35.3108 14.1682 0.350911
254 2 36.8975 14.2312 2.22857 36.8975 14.2312 2.22857
255 2 37.3515 14.1071 -1.01074 37.3515 14.1071 -1.01074
256 1 38.0512 15.8325 0.685755 38.0512 15.8325 0.685755
257 2 39.9461 16.0015 2.27866 39.9461 16.0015 2.27866
258 2 40.0886 15.816 -0.869245 40.0886 15.816 -0.869245
259 1 40.981 14.189 0.834219 40.981 14.189 0.834219
260 2 42.7314 14.304 2.50678 42.7314 14.304 2.50678
261 2 42.9573 14.1318 -0.754959 42.9573 14.1318 -0.754959
262 1 43.8002 15.8756 0.918417 43.8002 15.8756 0.918417
263 2 45.7319 15.9386 2.513 45.7319 15.9386 2.513
264 2 45.8229 15.73 -0.813535 45.8229 15.73 -0.813535
265 1 46.7825 14.206 0.947864 46.7825 14.206 0.947864
266 2 48.8219 14.4314 2.43043 48.8219 14.4314 2.43043
267 2 48.4926 14.1694 -0.834925 48.4926 14.1694 -0.834925
268 1 49.5695 15.9745 0.559338 49.5695 15.9745 0.559338
269 2 51.4885 15.9461 2.1096 51.4885 15.9461 2.1096
270 2 51.404 15.9589 -1.21396 51.404 15.9589 -1.21396
271 1 0.952058 17.5739 0.355606 0.952058 17.5739 0.355606
272 2 2.96602 17.4668 1.85397 2.96602 17.4668 1.85397
273 2 2.63731 17.5155 -1.4259 2.63731 17.5155 -1.4259
274 1 3.8335 19.1646 0.103796 3.8335 19.1646 0.103796
275 2 5.98078 19.3039 1.59182 5.98078 19.3039 1.59182
276 2 5.62831 19.044 -1.70886 5.62831 19.044 -1.70886
277 1 6.68477 17.4833 -0.0818713 6.68477 17.4833 -0.0818713
278 2 8.55296 17.435 1.4546 8.55296 17.435 1.4546
279 2 8.57723 17.3096 -1.74264 8.57723 17.3096 -1.74264
280 1 9.56845 19.0266 -0.172175 9.56845 19.0266 -0.172175
281 2 11.5489 19.2906 1.38841 11.5489 19.2906 1.38841
282 2 11.5105 18.9993 -1.85828 11.5105 18.9993 -1.85828
283 1 12.3929 17.43 -0.101647 12.3929 17.43 -0.101647
284 2 14.3209 17.5409 1.42798 14.3209 17.5409 1.42798
285 2 14.0915 17.2924 -1.87477 14.0915 17.2924 -1.87477
286 1 15.1997 19.1003 -0.472185 15.1997 19.1003 -0.472185
287 2 17.0461 19.2674 1.27778 17.0461 19.2674 1.27778
288 2 17.4469 18.9628 -1.95612 17.4469 18.9628 -1.95612
289 1 18.1177 17.5403 -0.0898729 18.1177 17.5403 -0.0898729
290 2 20.1557 17.6642 1.40373 20.1557 17.6642 1.40373
291 2 20.0319 17.4631 -1.82713 20.0319 17.4631 -1.82713
292 1 21.0025 19.1634 -0.349378 21.0025 19.1634 -0.349378
293 2 23.0368 19.3191 1.15496 23.0368 19.3191 1.15496
294 2 22.8159 18.9286 -2.07499 22.8159 18.9286 -2.07499
295 1 23.8771 17.4335 -0.368414 23.8771 17.4335 -0.368414
296 2 25.9571 17.5097 1.08965 25.9571 17.5097 1.08965
297 2 25.7617 17.4216 -2.10922 25.7617 17.4216 -2.10922
298 1 26.7614 19.1449 -0.599779 26.7614 19.1449 -0.599779
299 2 28.588 19.18 1.02671 28.588 19.18 1.02671
300 2 28.6956 19.1805 -2.17548 28.6956 19.1805 -2.17548
301 1 29.6339 17.4723 -0.599628 29.6339 17.4723 -0.599628
302 2 31.2281 17.6042 1.27943 31.2281 17.6042 1.27943
303 2 31.7317 17.3012 -1.84694 31.7317 17.3012 -1.84694
304 1 32.4229 19.1641 -0.235837 32.4229 19.1641 -0.235837
305 2 33.9822 19.3705 1.7358 33.9822 19.3705 1.7358
306 2 34.6394 19.0895 -1.44023 34.6394 19.0895 -1.44023
307 1 35.2096 17.5687 0.649921 35.2096 17.5687 0.649921
308 2 37.1374 17.5581 2.30877 37.1374 17.5581 2.30877
309 2 37.2597 17.5341 -1.03892 37.2597 17.5341 -1.03892
310 1 38.112 19.1623 0.647904 38.112 19.1623 0.647904
311 2 40.0738 19.2801 2.1866 40.0738 19.2801 2.1866
312 2 40.1002 19.1401 -1.03387 40.1002 19.1401 -1.03387
313 1 40.9956 17.6037 0.699704 40.9956 17.6037 0.699704
314 2 42.9035 17.7052 2.38469 42.9035 17.7052 2.38469
315 2 42.9553 17.4253 -0.867933 42.9553 17.4253 -0.867933
316 1 43.855 19.2453 0.628084 43.855 19.2453 0.628084
317 2 45.6251 19.3278 2.3202 45.6251 19.3278 2.3202
318 2 45.7708 19.1557 -0.927355 45.7708 19.1557 -0.927355
319 1 46.6902 17.5764 0.79438 46.6902 17.5764 0.79438
320 2 48.7667 17.7251 2.18224 48.7667 17.7251 2.18224
321 2 48.4438 17.4939 -1.06792 48.4438 17.4939 -1.06792
322 1 49.6058 19.2997 0.345608 49.6058 19.2997 0.345608
323 2 51.4291 19.1607 1.96057 51.4291 19.1607 1.96057
324 2 51.4946 19.3626 -1.2494 51.4946 19.3626 -1.2494
325 1 0.922805 20.8767 0.473818 0.922805 20.8767 0.473818
326 2 3.03271 20.8779 1.81904 3.03271 20.8779 1.81904
327 2 2.51866 20.7274 -1.4686 2.51866 20.7274 -1.4686
328 1 3.76686 22.3914 -0.118988 3.76686 22.3914 -0.118988
329 2 5.80186 22.3088 1.46576 5.80186 22.3088 1.46576
330 2 5.56784 22.5247 -1.84448 5.56784 22.5247 -1.84448
331 1 6.65872 20.7848 -0.275871 6.65872 20.7848 -0.275871
332 2 8.59578 20.6918 1.41853 8.59578 20.6918 1.41853
333 2 8.66891 20.7785 -1.80277 8.66891 20.7785 -1.80277
334 1 9.56452 22.4357 -0.226404 9.56452 22.4357 -0.226404
335 2 11.5729 22.5075 1.21552 11.5729 22.5075 1.21552
336 2 11.3007 22.5261 -1.98831 11.3007 22.5261 -1.98831
337 1 12.3163 20.8294 -0.435857 12.3163 20.8294 -0.435857
338 2 14.2831 20.656 1.19015 14.2831 20.656 1.19015
339 2 14.2713 20.8594 -2.02366 14.2713 20.8594 -2.02366
340 1 15.2366 22.4277 -0.318807 15.2366 22.4277 -0.318807
341 2 17.1949 22.4213 1.1393 17.1949 22.4213 1.1393
342 2 17.0124 22.2987 -1.99238 17.0124 22.2987 -1.99238
343 1 18.1239 20.7174 -0.454257 18.1239 20.7174 -0.454257
344 2 19.9879 20.8738 1.26614 19.9879 20.8738 1.26614
345 2 20.0787 20.7375 -2.02176 20.0787 20.7375 -2.02176
346 1 21.0508 22.4023 -0.408092 21.0508 22.4023 -0.408092
347 2 23.1149 22.6214 0.942791 23.1149 22.6214 0.942791
348 2 22.795 22.3397 -2.27694 22.795 22.3397 -2.27694
349 1 23.8984 20.8243 -0.666088 23.8984 20.8243 -0.666088
350 2 25.8203 20.8446 1.01494 25.8203 20.8446 1.01494
351 2 25.7505 20.7814 -2.39023 25.7505 20.7814 -2.39023
352 1 26.7479 22.379 -0.68315 26.7479 22.379 -0.68315
353 2 28.6656 22.4023 1.01549 28.6656 22.4023 1.01549
354 2 28.6804 22.3177 -2.19315 28.6804 22.3177 -2.19315
355 1 29.6898 20.7353 -0.581728 29.6898 20.7353 -0.581728
356 2 31.3478 20.8291 1.21825 31.3478 20.8291 1.21825
357 2 31.666 20.8197 -2.03259 31.666 20.8197 -2.03259
358 1 32.4356 22.4355 -0.30592 32.4356 22.4355 -0.30592
359 2 34.2717 22.5164 1.54107 34.2717 22.5164 1.54107
360 2 34.4876 22.2678 -1.77365 34.4876 22.2678 -1.77365
361 1 35.3458 20.8095 0.136079 35.3458 20.8095 0.136079
362 2 37.0786 21.0415 1.92109 37.0786 21.0415 1.92109
363 2 37.3692 20.635 -1.27531 37.3692 20.635 -1.27531
364 1 38.1989 22.4599 0.166556 38.1989 22.4599 0.166556
365 2 40.0541 22.6412 1.82785 40.0541 22.6412 1.82785
366 2 40.2612 22.3924 -1.43035 40.2612 22.3924 -1.43035
367 1 41.0331 20.8859 0.452894 41.0331 20.8859 0.452894
368 2 42.8372 20.9289 2.22313 42.8372 20.9289 2.22313
369 2 42.9781 20.8137 -1.02374 42.9781 20.8137 -1.02374
370 1 43.86 22.5775 0.668708 43.86 22.5775 0.668708
371 2 45.9049 22.7751 2.11546 45.9049 22.7751 2.11546
372 2 45.7327 22.3781 -1.1257 45.7327 22.3781 -1.1257
373 1 46.7299 20.9297 0.62455 46.7299 20.9297 0.62455
374 2 48.8586 20.932 2.14234 48.8586 20.932 2.14234
375 2 48.578 21.1061 -1.08716 48.578 21.1061 -1.08716
376 1 49.6882 22.615 0.557579 49.6882 22.615 0.557579
377 2 51.6661 22.6366 2.05714 51.6661 22.6366 2.05714
378 2 51.4244 22.4081 -1.23277 51.4244 22.4081 -1.23277
379 1 0.878334 24.1336 0.24374 0.878334 24.1336 0.24374
380 2 2.96605 24.0437 1.65059 2.96605 24.0437 1.65059
381 2 2.66241 24.0812 -1.57163 2.66241 24.0812 -1.57163
382 1 3.81687 25.7311 0.0370746 3.81687 25.7311 0.0370746
383 2 5.7649 25.6308 1.5731 5.7649 25.6308 1.5731
384 2 5.57059 25.6679 -1.75582 5.57059 25.6679 -1.75582
385 1 6.5931 24.004 -0.238932 6.5931 24.004 -0.238932
386 2 8.70105 24.1742 1.3335 8.70105 24.1742 1.3335
387 2 8.48805 23.9681 -1.91078 8.48805 23.9681 -1.91078
388 1 9.48669 25.7751 -0.506131 9.48669 25.7751 -0.506131
389 2 11.3932 25.675 1.19141 11.3932 25.675 1.19141
390 2 11.4279 25.7133 -1.99444 11.4279 25.7133 -1.99444
391 1 12.3707 24.1107 -0.448779 12.3707 24.1107 -0.448779
392 2 14.3118 24.2031 1.06018 14.3118 24.2031 1.06018
393 2 14.1673 23.821 -2.11619 14.1673 23.821 -2.11619
394 1 15.2447 25.7776 -0.784526 15.2447 25.7776 -0.784526
395 2 16.9856 25.7765 0.968908 16.9856 25.7765 0.968908
396 2 17.2952 25.6712 -2.3059 17.2952 25.6712 -2.3059
397 1 18.076 24.0026 -0.542317 18.076 24.0026 -0.542317
398 2 19.9364 24.0597 1.1227 19.9364 24.0597 1.1227
399 2 20.0629 23.9373 -2.13458 20.0629 23.9373 -2.13458
400 1 20.9843 25.7435 -0.569366 20.9843 25.7435 -0.569366
401 2 22.9657 25.677 1.01626 22.9657 25.677 1.01626
402 2 22.7453 25.732 -2.30262 22.7453 25.732 -2.30262
403 1 23.8941 24.0733 -0.810793 23.8941 24.0733 -0.810793
404 2 25.8179 24.2225 0.820955 25.8179 24.2225 0.820955
405 2 25.7957 24.0155 -2.3895 25.7957 24.0155 -2.3895
406 1 26.7324 25.736 -0.961898 26.7324 25.736 -0.961898
407 2 28.458 25.6928 0.876812 28.458 25.6928 0.876812
408 2 28.8789 25.7317 -2.32839 28.8789 25.7317 -2.32839
409 1 29.5541 24.0328 -0.65713 29.5541 24.0328 -0.65713
410 2 31.2674 24.0441 1.20037 31.2674 24.0441 1.20037
411 2 31.6882 24.1395 -2.04218 31.6882 24.1395 -2.04218
412 1 32.4383 25.7258 -0.255396 32.4383 25.7258 -0.255396
413 2 34.2446 25.7872 1.42492 34.2446 25.7872 1.42492
414 2 34.4811 25.5759 -1.85399 34.4811 25.5759 -1.85399
415 1 35.3338 24.0357 -0.0970073 35.3338 24.0357 -0.0970073
416 2 37.2987 24.3205 1.45753 37.2987 24.3205 1.45753
417 2 37.1802 23.9645 -1.7301 37.1802 23.9645 -1.7301
418 1 38.2175 25.6425 -0.293713 38.2175 25.6425 -0.293713
419 2 39.9403 25.8866 1.4801 39.9403 25.8866 1.4801
420 2 40.2324 25.4528 -1.84243 40.2324 25.4528 -1.84243
421 1 41.0491 24.1145 0.0829769 41.0491 24.1145 0.0829769
422 2 42.6583 24.3472 1.95062 42.6583 24.3472 1.95062
423 2 43.2635 23.9963 -1.22767 43.2635 23.9963 -1.22767
424 1 43.764 25.7904 0.356909 43.764 25.7904 0.356909
425 2 45.7938 26.0325 1.74865 45.7938 26.0325 1.74865
426 2 45.5757 25.5349 -1.51511 45.5757 25.5349 -1.51511
427 1 46.7806 24.2408 0.302687 46.7806 24.2408 0.302687
428 2 48.6662 24.428 2.09428 48.6662 24.428 2.09428
429 2 48.7066 24.0921 -1.29681 48.7066 24.0921 -1.29681
430 1 49.5378 25.8739 0.241955 49.5378 25.8739 0.241955
431 2 51.5541 25.8547 1.77583 51.5541 25.8547 1.77583
432 2 51.4193 25.7409 -1.42669 51.4193 25.7409 -1.42669
433 1 0.998254 27.4237 0.159734 0.998254 27.4237 0.159734
434 2 3.03642 27.5667 1.60992 3.03642 27.5667 1.60992
435 2 2.70116 27.1448 -1.70432 2.70116 27.1448 -1.70432
436 1 3.6513 29.0115 -0.355878 3.6513 29.0115 -0.355878
437 2 5.66086 29.178 1.32874 5.66086 29.178 1.32874
438 2 5.60559 28.8075 -1.94448 5.60559 28.8075 -1.94448
439 1 6.59716 27.3011 -0.053519 6.59716 27.3011 -0.053519
440 2 8.73472 27.302 1.32403 8.73472 27.302 1.32403
441 2 8.28297 27.3874 -1.94477 8.28297 27.3874 -1.94477
442 1 9.44912 28.9578 -0.385188 9.44912 28.9578 -0.385188
443 2 11.4886 29.3072 1.1045 11.4886 29.3072 1.1045
444 2 11.2493 28.8076 -2.15821 11.2493 28.8076 -2.15821
445 1 12.4001 27.4236 -0.366357 12.4001 27.4236 -0.366357
446 2 14.554 27.4503 0.922926 14.554 27.4503 0.922926
447 2 14.0472 27.2835 -2.37269 14.0472 27.2835 -2.37269
448 1 15.2741 28.9786 -0.949125 15.2741 28.9786 -0.949125
449 2 17.0283 29.1985 0.870676 17.0283 29.1985 0.870676
450 2 17.2415 28.9785 -2.30797 17.2415 28.9785 -2.30797
451 1 18.0535 27.4047 -0.587736 18.0535 27.4047 -0.587736
452 2 20.1221 27.4316 1.09566 20.1221 27.4316 1.09566
453 2 19.8848 27.363 -2.31467 19.8848 27.363 -2.31467
454 1 20.9778 28.9792 -0.66261 20.9778 28.9792 -0.66261
455 2 22.9702 29.1867 0.852038 22.9702 29.1867 0.852038
456 2 22.8616 29.0156 -2.33743 22.8616 29.0156 -2.33743
457 1 23.9138 27.3529 -0.69707 23.9138 27.3529 -0.69707
458 2 25.8346 27.2498 0.88633 25.8346 27.2498 0.88633
459 2 25.8082 27.437 -2.44613 25.8082 27.437 -2.44613
460 1 26.735 28.9566 -0.70774 26.735 28.9566 -0.70774
461 2 28.6383 28.8826 1.06214 28.6383 28.8826 1.06214
462 2 28.8028 29.0312 -2.24675 28.8028 29.0312 -2.24675
463 1 29.56 27.3454 -0.565214 29.56 27.3454 -0.565214
464 2 31.4483 27.6363 1.14668 31.4483 27.6363 1.14668
465 2 31.6118 27.2147 -2.09249 31.6118 27.2147 -2.09249
466 1 32.4437 28.9929 -0.563382 32.4437 28.9929 -0.563382
467 2 34.3437 29.1805 1.24845 34.3437 29.1805 1.24845
468 2 34.5331 28.9606 -1.95042 34.5331 28.9606 -1.95042
469 1 35.2816 27.3774 -0.156526 35.2816 27.3774 -0.156526
470 2 37.2713 27.3989 1.37299 37.2713 27.3989 1.37299
471 2 37.1052 27.2948 -1.88213 37.1052 27.2948 -1.88213
472 1 38.1813 29.0603 -0.388826 38.1813 29.0603 -0.388826
473 2 39.9221 29.1543 1.30413 39.9221 29.1543 1.30413
474 2 40.2153 29.0873 -1.82981 40.2153 29.0873 -1.82981
475 1 40.9799 27.366 -0.247816 40.9799 27.366 -0.247816
476 2 42.5516 27.6736 1.61313 42.5516 27.6736 1.61313
477 2 43.0815 27.1909 -1.60699 43.0815 27.1909 -1.60699
478 1 43.8809 29.0468 -0.112724 43.8809 29.0468 -0.112724
479 2 45.8963 29.1091 1.33337 45.8963 29.1091 1.33337
480 2 45.588 28.9984 -1.82874 45.588 28.9984 -1.82874
481 1 46.6412 27.3207 -0.211326 46.6412 27.3207 -0.211326
482 2 48.4243 27.6414 1.5194 48.4243 27.6414 1.5194
483 2 48.7221 27.34 -1.63484 48.7221 27.34 -1.63484
484 1 49.6327 29.0976 -0.122223 49.6327 29.0976 -0.122223
485 2 51.6139 29.3486 1.46863 51.6139 29.3486 1.46863
486 2 51.6057 28.8192 -1.79866 51.6057 28.8192 -1.79866
487 1 0.923844 30.7433 -0.448932 0.923844 30.7433 -0.448932
488 2 2.95932 30.8092 1.11593 2.95932 30.8092 1.11593
489 2 2.78345 30.5645 -2.05676 2.78345 30.5645 -2.05676
490 1 3.9243 32.3016 -0.620903 3.9243 32.3016 -0.620903
491 2 5.7843 32.3293 1.01917 5.7843 32.3293 1.01917
492 2 5.80873 31.9654 -2.2471 5.80873 31.9654 -2.2471
493 1 6.62069 30.4894 -0.495308 6.62069 30.4894 -0.495308
494 2 8.48351 30.7115 1.13023 8.48351 30.7115 1.13023
495 2 8.47983 30.4565 -2.20165 8.47983 30.4565 -2.20165
496 1 9.50868 32.2982 -0.702594 9.50868 32.2982 -0.702594
497 2 11.5327 32.3334 0.755518 11.5327 32.3334 0.755518
498 2 11.3197 32.2097 -2.54397 11.3197 32.2097 -2.54397
499 1 12.3482 30.6248 -0.794028 12.3482 30.6248 -0.794028
500 2 14.3262 30.5958 0.777983 14.3262 30.5958 0.777983
501 2 14.2706 30.6872 -2.45746 14.2706 30.6872 -2.45746
502 1 15.3034 32.334 -0.710737 15.3034 32.334 -0.710737
503 2 17.259 32.4223 0.764796 17.259 32.4223 0.764796
504 2 17.0975 32.0653 -2.51745 17.0975 32.0653 -2.51745
505 1 18.1785 30.7154 -0.755534 18.1785 30.7154 -0.755534
506 2 20.1059 30.8999 0.838987 20.1059 30.8999 0.838987
507 2 19.9614 30.5038 -2.48395 19.9614 30.5038 -2.48395
508 1 20.9936 32.3117 -1.05935 20.9936 32.3117 -1.05935
509 2 22.7425 32.3035 0.735173 22.7425 32.3035 0.735173
510 2 22.9499 32.2843 -2.51651 22.9499 32.2843 -2.51651
511 1 23.8728 30.7108 -0.838542 23.8728 30.7108 -0.838542
512 2 25.7122 30.5786 0.917987 25.7122 30.5786 0.917987
513 2 25.9143 30.6462 -2.36369 25.9143 30.6462 -2.36369
514 1 26.7371 32.2975 -0.547573 26.7371 32.2975 -0.547573
515 2 28.7121 32.3091 0.998287 28.7121 32.3091 0.998287
516 2 28.5805 32.1912 -2.26772 28.5805 32.1912 -2.26772
517 1 29.5827 30.5655 -0.496431 29.5827 30.5655 -0.496431
518 2 31.5703 30.7615 1.11616 31.5703 30.7615 1.11616
519 2 31.595 30.6269 -2.25825 31.595 30.6269 -2.25825
520 1 32.4886 32.3048 -0.607122 32.4886 32.3048 -0.607122
521 2 34.3415 32.3617 0.990499 34.3415 32.3617 0.990499
522 2 34.4199 32.1854 -2.17587 34.4199 32.1854 -2.17587
523 1 35.3098 30.7545 -0.444955 35.3098 30.7545 -0.444955
524 2 37.2317 30.7226 1.27406 37.2317 30.7226 1.27406
525 2 37.2603 30.6788 -2.1067 37.2603 30.6788 -2.1067
526 1 38.1409 32.3523 -0.443574 38.1409 32.3523 -0.443574
527 2 39.9558 32.4434 1.28231 39.9558 32.4434 1.28231
528 2 40.1623 32.2434 -1.88692 40.1623 32.2434 -1.88692
529 1 41.0489 30.7288 -0.206516 41.0489 30.7288 -0.206516
530 2 42.8938 30.821 1.35449 42.8938 30.821 1.35449
531 2 43.0416 30.7318 -1.78926 43.0416 30.7318 -1.78926
532 1 43.9199 32.3785 -0.27244 43.9199 32.3785 -0.27244
533 2 45.9076 32.2745 1.23437 45.9076 32.2745 1.23437
534 2 45.7659 32.3382 -2.02562 45.7659 32.3382 -2.02562
535 1 46.7747 30.6534 -0.443951 46.7747 30.6534 -0.443951
536 2 48.5685 30.826 1.32342 48.5685 30.826 1.32342
537 2 48.6868 30.5177 -1.91253 48.6868 30.5177 -1.91253
538 1 49.5869 32.289 -0.350506 49.5869 32.289 -0.350506
539 2 51.5803 32.3575 1.23007 51.5803 32.3575 1.23007