ITEM: TIMESTEP
81500
ITEM: NUMBER OF ATOMS
810
ITEM: BOX BOUNDS pp pp pp
7.8056760360185051e-01 5.2237037396398428e+01
7.7760090333688181e-01 5.0238614096662232e+01
-1.0000000000000000e+01 1.0000000000000000e+01
ITEM: ATOMS id type x y z xu yu zu
1 1 0.961897 0.990264 0.0902446 0.961897 0.990264 0.0902446
2 2 2.78509 0.951592 1.73227 2.78509 0.951592 1.73227
3 2 2.88147 0.887902 -1.52541 2.88147 0.887902 -1.52541
4 1 3.81554 2.53581 0.112885 3.81554 2.53581 0.112885
5 2 5.64593 2.60037 1.84728 5.64593 2.60037 1.84728
6 2 5.78493 2.69348 -1.49857 5.78493 2.69348 -1.49857
7 1 6.58054 1.00346 0.139982 6.58054 1.00346 0.139982
8 2 8.53326 1.08176 1.60691 8.53326 1.08176 1.60691
9 2 8.42697 1.00905 -1.59714 8.42697 1.00905 -1.59714
10 1 9.48012 2.69311 -0.0556804 9.48012 2.69311 -0.0556804
11 2 11.5241 2.68591 1.44896 11.5241 2.68591 1.44896
12 2 11.4602 2.80577 -1.80869 11.4602 2.80577 -1.80869
13 1 12.3665 0.960839 -0.291346 12.3665 0.960839 -0.291346
14 2 14.1325 1.02233 1.39373 14.1325 1.02233 1.39373
15 2 14.4186 0.867922 -1.8233 14.4186 0.867922 -1.8233
16 1 15.2341 2.68104 -0.300884 15.2341 2.68104 -0.300884
17 2 17.0078 2.59623 1.41711 17.0078 2.59623 1.41711
18 2 17.226 2.74506 -1.81812 17.226 2.74506 -1.81812
19 1 18.0564 1.00341 -0.213255 18.0564 1.00341 -0.213255
20 2 19.9524 0.884749 1.38036 19.9524 0.884749 1.38036
21 2 19.881 0.969214 -1.87033 19.881 0.969214 -1.87033
22 1 20.9551 2.60627 -0.176691 20.9551 2.60627 -0.176691
23 2 22.9677 2.69774 1.52263 22.9677 2.69774 1.52263
24 2 22.8356 2.52016 -1.83596 22.8356 2.52016 -1.83596
25 1 23.8167 0.839616 -0.167531 23.8167 0.839616 -0.167531
26 2 25.8214 1.09408 1.51312 25.8214 1.09408 1.51312
27 2 25.6789 0.742276 -1.82612 25.6789 0.742276 -1.82612
28 1 26.6809 2.53898 -0.378458 26.6809 2.53898 -0.378458
29 2 28.4571 2.47821 1.41355 28.4571 2.47821 1.41355
30 2 28.7589 2.62177 -1.77795 28.7589 2.62177 -1.77795
31 1 29.554 0.871992 -0.141117 29.554 0.871992 -0.141117
32 2 31.3527 0.823874 1.67405 31.3527 0.823874 1.67405
33 2 31.6018 1.1369 -1.59512 31.6018 1.1369 -1.59512
34 1 32.4414 2.59888 0.319011 32.4414 2.59888 0.319011
35 2 34.2175 2.55886 1.99524 34.2175 2.55886 1.99524
36 2 34.4872 2.67926 -1.17992 34.4872 2.67926 -1.17992
37 1 35.3023 1.02125 0.47005 35.3023 1.02125 0.47005
38 2 37.0029 1.06857 2.28317 37.0029 1.06857 2.28317
39 2 37.3085 1.07134 -1.09971 37.3085 1.07134 -1.09971
40 1 38.1199 2.65193 0.596871 38.1199 2.65193 0.596871
41 2 40.064 2.6516 2.27418 40.064 2.6516 2.27418
42 2 40.0306 2.81596 -0.979705 40.0306 2.81596 -0.979705
43 1 40.9776 1.07208 0.639558 40.9776 1.07208 0.639558
44 2 43.0581 0.944668 2.241 43.0581 0.944668 2.241
45 2 42.7435 1.00326 -1.03215 42.7435 1.00326 -1.03215
46 1 43.8978 2.62203 0.554787 43.8978 2.62203 0.554787
47 2 45.8533 2.59354 2.10637 45.8533 2.59354 2.10637
48 2 45.7796 2.647 -1.12104 45.7796 2.647 -1.12104
49 1 46.7864 0.967792 0.513809 46.7864 0.967792 0.513809
50 2 48.8158 0.858218 1.98826 48.8158 0.858218 1.98826
51 2 48.5975 1.11553 -1.24283 48.5975 1.11553 -1.24283
52 1 49.5078 2.6825 0.46449 49.5078 2.6825 0.46449
53 2 51.5355 2.33104 1.9606 51.5355 2.33104 1.9606
54 2 51.3519 2.70152 -1.25867 51.3519 2.70152 -1.25867
55 1 0.983987 4.21228 0.441661 0.983987 4.21228 0.441661
56 2 2.9141 4.19155 1.99656 2.9141 4.19155 1.99656
57 2 2.75049 4.27785 -1.30746 2.75049 4.27785 -1.30746
58 1 3.77737 5.83957 0.32077 3.77737 5.83957 0.32077
59 2 5.76142 5.8988 1.90335 5.76142 5.8988 1.90335
60 2 5.5975 5.85148 -1.47824 5.5975 5.85148 -1.47824
61 1 6.70684 4.29647 0.257231 6.70684 4.29647 0.257231
62 2 8.72325 4.26366 1.74189 8.72325 4.26366 1.74189
63 2 8.45658 4.35707 -1.55498 8.45658 4.35707 -1.55498
64 1 9.55493 5.90509 0.175431 9.55493 5.90509 0.175431
65 2 11.557 5.93026 1.69075 11.557 5.93026 1.69075
66 2 11.3943 6.12795 -1.52031 11.3943 6.12795 -1.52031
67 1 12.4179 4.3472 -0.0840108 12.4179 4.3472 -0.0840108
68 2 14.4022 4.20522 1.47907 14.4022 4.20522 1.47907
69 2 14.3681 4.49018 -1.74258 14.3681 4.49018 -1.74258
70 1 15.23 5.96154 -0.0656884 15.23 5.96154 -0.0656884
71 2 17.2758 6.03858 1.5951 17.2758 6.03858 1.5951
72 2 17.1682 5.80619 -1.66863 17.1682 5.80619 -1.66863
73 1 18.193 4.3282 -0.0207879 18.193 4.3282 -0.0207879
74 2 20.0933 4.23452 1.55725 20.0933 4.23452 1.55725
75 2 20.0639 4.31941 -1.59779 20.0639 4.31941 -1.59779
76 1 21.0997 5.94198 -0.108168 21.0997 5.94198 -0.108168
77 2 22.9711 5.89946 1.49751 22.9711 5.89946 1.49751
78 2 22.9592 6.03526 -1.79351 22.9592 6.03526 -1.79351
79 1 23.8115 4.28226 -0.146752 23.8115 4.28226 -0.146752
80 2 25.8467 4.21457 1.41739 25.8467 4.21457 1.41739
81 2 25.7504 4.32177 -1.88993 25.7504 4.32177 -1.88993
82 1 26.7158 5.9295 -0.0751269 26.7158 5.9295 -0.0751269
83 2 28.6189 5.86904 1.53116 28.6189 5.86904 1.53116
84 2 28.6347 5.86048 -1.69846 28.6347 5.86048 -1.69846
85 1 29.5827 4.23379 -0.0706118 29.5827 4.23379 -0.0706118
86 2 31.376 4.26631 1.70161 31.376 4.26631 1.70161
87 2 31.6634 4.2482 -1.48185 31.6634 4.2482 -1.48185
88 1 32.4551 5.95433 0.221661 32.4551 5.95433 0.221661
89 2 34.3024 6.17946 1.95363 34.3024 6.17946 1.95363
90 2 34.5688 5.85581 -1.25937 34.5688 5.85581 -1.25937
91 1 35.302 4.36606 0.56483 35.302 4.36606 0.56483
92 2 37.1386 4.30503 2.27552 37.1386 4.30503 2.27552
93 2 37.2051 4.38164 -1.11431 37.2051 4.38164 -1.11431
94 1 38.1543 5.96125 0.685286 38.1543 5.96125 0.685286
95 2 40.0955 5.97056 2.38545 40.0955 5.97056 2.38545
96 2 39.9527 5.82621 -0.944924 39.9527 5.82621 -0.944924
97 1 41.1119 4.3406 0.715317 41.1119 4.3406 0.715317
98 2 43.0948 4.28361 2.24625 43.0948 4.28361 2.24625
99 2 42.9109 4.302 -0.960581 42.9109 4.302 -0.960581
100 1 43.9147 5.84343 0.604158 43.9147 5.84343 0.604158
101 2 45.8617 5.83764 2.13335 45.8617 5.83764 2.13335
102 2 45.7612 5.96592 -0.975652 45.7612 5.96592 -0.975652
103 1 46.755 4.27124 0.460257 46.755 4.27124 0.460257
104 2 48.6002 4.24648 2.19644 48.6002 4.24648 2.19644
105 2 48.6804 4.41662 -1.1905 48.6804 4.41662 -1.1905
106 1 49.514 5.96949 0.589886 49.514 5.96949 0.589886
107 2 51.5232 5.77604 2.0688 51.5232 5.77604 2.0688
108 2 51.397 5.93635 -1.15856 51.397 5.93635 -1.15856
109 1 0.91591 7.49133 0.512189 0.91591 7.49133 0.512189
110 2 2.85611 7.36065 2.05735 2.85611 7.36065 2.05735
111 2 2.87398 7.54106 -1.25401 2.87398 7.54106 -1.25401
112 1 3.77406 9.21682 0.369443 3.77406 9.21682 0.369443
113 2 5.79553 9.18618 1.82601 5.79553 9.18618 1.82601
114 2 5.48018 9.01899 -1.48505 5.48018 9.01899 -1.48505
115 1 6.64333 7.48195 0.149168 6.64333 7.48195 0.149168
116 2 8.61181 7.4921 1.79929 8.61181 7.4921 1.79929
117 2 8.62772 7.55891 -1.49907 8.62772 7.55891 -1.49907
118 1 9.60002 9.09346 0.0698845 9.60002 9.09346 0.0698845
119 2 11.493 9.02169 1.75416 11.493 9.02169 1.75416
120 2 11.5194 9.26964 -1.43921 11.5194 9.26964 -1.43921
121 1 12.4852 7.61447 0.0201094 12.4852 7.61447 0.0201094
122 2 14.4656 7.63475 1.57667 14.4656 7.63475 1.57667
123 2 14.2528 7.63149 -1.66326 14.2528 7.63149 -1.66326
124 1 15.2991 9.20836 -0.0878038 15.2991 9.20836 -0.0878038
125 2 17.217 9.12045 1.507 17.217 9.12045 1.507
126 2 17.1613 9.1693 -1.75725 17.1613 9.1693 -1.75725
127 1 18.2044 7.52732 -0.119906 18.2044 7.52732 -0.119906
128 2 20.0151 7.5955 1.54417 20.0151 7.5955 1.54417
129 2 20.1266 7.51826 -1.75437 20.1266 7.51826 -1.75437
130 1 21.0363 9.2401 -0.142799 21.0363 9.2401 -0.142799
131 2 22.9881 9.41456 1.38854 22.9881 9.41456 1.38854
132 2 22.8898 9.11356 -1.83421 22.8898 9.11356 -1.83421
133 1 23.8944 7.58565 -0.142671 23.8944 7.58565 -0.142671
134 2 25.759 7.61545 1.52211 25.759 7.61545 1.52211
135 2 25.8736 7.60094 -1.72567 25.8736 7.60094 -1.72567
136 1 26.7756 9.18919 -0.0613454 26.7756 9.18919 -0.0613454
137 2 28.8148 9.2526 1.4689 28.8148 9.2526 1.4689
138 2 28.6598 9.20975 -1.81606 28.6598 9.20975 -1.81606
139 1 29.6124 7.55004 -0.107248 29.6124 7.55004 -0.107248
140 2 31.4026 7.80235 1.5871 31.4026 7.80235 1.5871
141 2 31.6426 7.30942 -1.58273 31.6426 7.30942 -1.58273
142 1 32.5332 9.12727 -0.169844 32.5332 9.12727 -0.169844
143 2 34.2275 9.28644 1.68203 34.2275 9.28644 1.68203
144 2 34.6947 9.11936 -1.49392 34.6947 9.11936 -1.49392
145 1 35.3937 7.58707 0.296378 35.3937 7.58707 0.296378
146 2 37.2022 7.65587 2.11223 37.2022 7.65587 2.11223
147 2 37.4172 7.4959 -1.14294 37.4172 7.4959 -1.14294
148 1 38.1695 9.24279 0.480836 38.1695 9.24279 0.480836
149 2 40.0023 9.21951 2.22598 40.0023 9.21951 2.22598
150 2 40.1783 9.2052 -1.01459 40.1783 9.2052 -1.01459
151 1 40.9773 7.54452 0.627889 40.9773 7.54452 0.627889
152 2 42.8837 7.45076 2.31594 42.8837 7.45076 2.31594
153 2 43.0698 7.58091 -1.06657 43.0698 7.58091 -1.06657
154 1 43.7776 9.26003 0.714897 43.7776 9.26003 0.714897
155 2 45.8041 9.29782 2.22595 45.8041 9.29782 2.22595
156 2 45.7538 9.37808 -1.10518 45.7538 9.37808 -1.10518
157 1 46.6733 7.59891 0.584768 46.6733 7.59891 0.584768
158 2 48.5165 7.59528 2.29973 48.5165 7.59528 2.29973
159 2 48.6117 7.6835 -1.06515 48.6117 7.6835 -1.06515
160 1 49.539 9.24452 0.69012 49.539 9.24452 0.69012
161 2 51.7262 9.18485 2.11453 51.7262 9.18485 2.11453
162 2 51.3135 9.18062 -1.09511 51.3135 9.18062 -1.09511
163 1 0.962477 10.9192 0.384294 0.962477 10.9192 0.384294
164 2 3.01945 11.012 1.86092 3.01945 11.012 1.86092
165 2 2.6832 10.7386 -1.36724 2.6832 10.7386 -1.36724
166 1 3.76011 12.464 0.0793959 3.76011 12.464 0.0793959
167 2 5.80365 12.4093 1.63589 5.80365 12.4093 1.63589
168 2 5.65449 12.5614 -1.585 5.65449 12.5614 -1.585
169 1 6.69669 10.7026 -0.152468 6.69669 10.7026 -0.152468
170 2 8.54177 10.9069 1.56402 8.54177 10.9069 1.56402
171 2 8.59241 10.6204 -1.80292 8.59241 10.6204 -1.80292
172 1 9.54357 12.3816 -0.239284 9.54357 12.3816 -0.239284
173 2 11.4675 12.8179 1.48769 11.4675 12.8179 1.48769
174 2 11.6669 12.1867 -1.7302 11.6669 12.1867 -1.7302
175 1 12.4322 10.8825 0.281544 12.4322 10.8825 0.281544
176 2 14.5496 11.0557 1.63682 14.5496 11.0557 1.63682
177 2 14.205 10.7611 -1.66344 14.205 10.7611 -1.66344
178 1 15.2619 12.5935 -0.220833 15.2619 12.5935 -0.220833
179 2 17.2238 12.8951 1.35314 17.2238 12.8951 1.35314
180 2 17.0139 12.347 -1.89725 17.0139 12.347 -1.89725
181 1 18.0705 10.8712 -0.156613 18.0705 10.8712 -0.156613
182 2 20.1351 10.9928 1.38213 20.1351 10.9928 1.38213
183 2 19.8871 10.7585 -1.83872 19.8871 10.7585 -1.83872
184 1 20.9322 12.5146 -0.422306 20.9322 12.5146 -0.422306
185 2 22.9122 12.7234 1.08692 22.9122 12.7234 1.08692
186 2 22.7032 12.3018 -2.2001 22.7032 12.3018 -2.2001
187 1 23.8976 10.8011 -0.424219 23.8976 10.8011 -0.424219
188 2 25.7442 11.0836 1.28411 25.7442 11.0836 1.28411
189 2 25.8955 10.6623 -1.93353 25.8955 10.6623 -1.93353
190 1 26.7023 12.5327 -0.531796 26.7023 12.5327 -0.531796
191 2 28.3963 12.5085 1.27824 28.3963 12.5085 1.27824
192 2 28.7367 12.4853 -2.06424 28.7367 12.4853 -2.06424
193 1 29.5569 10.8397 -0.347177 29.5569 10.8397 -0.347177
194 2 31.5662 10.8854 1.29514 31.5662 10.8854 1.29514
195 2 31.4421 10.8239 -1.86433 31.4421 10.8239 -1.86433
196 1 32.4749 12.5978 -0.331766 32.4749 12.5978 -0.331766
197 2 34.1148 12.6275 1.5408 34.1148 12.6275 1.5408
198 2 34.5772 12.3021 -1.6344 34.5772 12.3021 -1.6344
199 1 35.3476 10.9301 0.231372 35.3476 10.9301 0.231372
200 2 37.1113 10.8706 2.0652 37.1113 10.8706 2.0652
201 2 37.4453 10.943 -1.19217 37.4453 10.943 -1.19217
202 1 38.1227 12.5483 0.53428 38.1227 12.5483 0.53428
203 2 39.8936 12.6314 2.19948 39.8936 12.6314 2.19948
204 2 40.0117 12.5602 -1.12289 40.0117 12.5602 -1.12289
205 1 40.9101 10.8702 0.584788 40.9101 10.8702 0.584788
206 2 42.8224 11.0792 2.18419 42.8224 11.0792 2.18419
207 2 42.8953 10.7943 -1.02719 42.8953 10.7943 -1.02719
208 1 43.8263 12.5582 0.491384 43.8263 12.5582 0.491384
209 2 45.8171 12.6024 2.21613 45.8171 12.6024 2.21613
210 2 45.8149 12.4804 -1.09217 45.8149 12.4804 -1.09217
211 1 46.7025 10.9069 0.667457 46.7025 10.9069 0.667457
212 2 48.5221 10.8577 2.38904 48.5221 10.8577 2.38904
213 2 48.7424 11.0024 -0.964215 48.7424 11.0024 -0.964215
214 1 49.6411 12.5552 0.860884 49.6411 12.5552 0.860884
215 2 51.8596 12.5338 2.21234 51.8596 12.5338 2.21234
216 2 51.307 12.5486 -1.03443 51.307 12.5486 -1.03443
217 1 0.93864 14.2321 0.455569 0.93864 14.2321 0.455569
218 2 3.1269 14.121 1.8267 3.1269 14.121 1.8267
219 2 2.70456 14.0312 -1.41753 2.70456 14.0312 -1.41753
220 1 3.89039 15.7745 0.0926275 3.89039 15.7745 0.0926275
221 2 5.90426 15.8402 1.61561 5.90426 15.8402 1.61561
222 2 5.63279 15.5811 -1.66674 5.63279 15.5811 -1.66674
223 1 6.71708 14.095 -0.0281766 6.71708 14.095 -0.0281766
224 2 8.89832 14.1685 1.27445 8.89832 14.1685 1.27445
225 2 8.33805 13.7407 -1.91395 8.33805 13.7407 -1.91395
226 1 9.50591 15.6795 -0.705082 9.50591 15.6795 -0.705082
227 2 11.3366 15.8496 1.00042 11.3366 15.8496 1.00042
228 2 11.5049 15.675 -2.27047 11.5049 15.675 -2.27047
229 1 12.421 14.1474 -0.419443 12.421 14.1474 -0.419443
230 2 14.3423 14.4489 1.20952 14.3423 14.4489 1.20952
231 2 14.2969 13.8573 -1.97844 14.2969 13.8573 -1.97844
232 1 15.2091 15.8573 -0.680223 15.2091 15.8573 -0.680223
233 2 17.1217 15.9458 0.97631 17.1217 15.9458 0.97631
234 2 17.2559 15.7572 -2.29447 17.2559 15.7572 -2.29447
235 1 18.1461 14.1686 -0.555579 18.1461 14.1686 -0.555579
236 2 19.9753 14.2623 1.1206 19.9753 14.2623 1.1206
237 2 20.1454 14.1888 -2.15826 20.1454 14.1888 -2.15826
238 1 20.9815 15.8235 -0.489141 20.9815 15.8235 -0.489141
239 2 22.9301 15.677 0.927741 22.9301 15.677 0.927741
240 2 22.8541 15.8165 -2.26442 22.8541 15.8165 -2.26442
241 1 23.8302 14.1132 -0.78998 23.8302 14.1132 -0.78998
242 2 25.6023 14.3383 0.98728 25.6023 14.3383 0.98728
243 2 25.916 14.1285 -2.35084 25.916 14.1285 -2.35084
244 1 26.7024 15.7681 -0.715734 26.7024 15.7681 -0.715734
245 2 28.5645 16.1466 0.985072 28.5645 16.1466 0.985072
246 2 28.6862 15.6045 -2.21586 28.6862 15.6045 -2.21586
247 1 29.566 14.1889 -0.256941 29.566 14.1889 -0.256941
248 2 31.5674 14.4499 1.27921 31.5674 14.4499 1.27921
249 2 31.3725 14.0903 -1.95465 31.3725 14.0903 -1.95465
250 1 32.4477 15.8641 -0.451355 32.4477 15.8641 -0.451355
251 2 34.3845 15.9329 1.29671 34.3845 15.9329 1.29671
252 2 34.4229 15.6448 -1.82664 34.4229 15.6448 -1.82664
253 1 35.3091 14.1323 -0.0931665 35.3091 14.1323 -0.0931665
254 2 36.9283 14.3066 1.7785 36.9283 14.3066 1.7785
255 2 37.4259 14.1041 -1.40886 37.4259 14.1041 -1.40886
256 1 38.1657 15.8679 0.158724 38.1657 15.8679 0.158724
257 2 39.9416 16.1064 1.85293 39.9416 16.1064 1.85293
258 2 40.1246 15.666 -1.33453 40.1246 15.666 -1.33453
259 1 40.9567 14.189 0.563211 40.9567 14.189 0.563211
260 2 43.0425 14.2339 2.05819 43.0425 14.2339 2.05819
261 2 42.7246 14.1187 -1.19957 42.7246 14.1187 -1.19957
262 1 43.8828 15.9153 0.282577 43.8828 15.9153 0.282577
263 2 45.6705 16.1818 1.96505 45.6705 16.1818 1.96505
264 2 45.7935 15.5954 -1.27934 45.7935 15.5954 -1.27934
265 1 46.6973 14.2214 0.564794 46.6973 14.2214 0.564794
266 2 48.6442 14.4085 2.2531 48.6442 14.4085 2.2531
267 2 48.7032 13.9414 -0.972234 48.7032 13.9414 -0.972234
268 1 49.5711 15.921 0.450255 49.5711 15.921 0.450255
269 2 51.4694 16.0541 1.96139 51.4694 16.0541 1.96139
270 2 51.5485 15.8045 -1.31423 51.5485 15.8045 -1.31423
271 1 1.03296 17.5199 0.143437 1.03296 17.5199 0.143437
272 2 2.89583 17.567 1.65934 2.89583 17.567 1.65934
273 2 2.88043 17.2698 -1.59359 2.88043 17.2698 -1.59359
274 1 3.88468 19.0925 -0.150586 3.88468 19.0925 -0.150586
275 2 6.02107 19.1254 1.29133 6.02107 19.1254 1.29133
276 2 5.63966 18.8766 -1.81254 5.63966 18.8766 -1.81254
277 1 6.74007 17.2642 -0.230212 6.74007 17.2642 -0.230212
278 2 8.80246 17.3607 1.02441 8.80246 17.3607 1.02441
279 2 8.27635 17.2894 -2.13836 8.27635 17.2894 -2.13836
280 1 9.57128 19.0316 -0.752027 9.57128 19.0316 -0.752027
281 2 11.3329 19.1936 0.902064 11.3329 19.1936 0.902064
282 2 11.4104 18.8801 -2.36201 11.4104 18.8801 -2.36201
283 1 12.3834 17.4438 -0.60219 12.3834 17.4438 -0.60219
284 2 14.2637 17.4796 0.963895 14.2637 17.4796 0.963895
285 2 14.2409 17.5418 -2.25706 14.2409 17.5418 -2.25706
286 1 15.1717 19.1165 -0.672631 15.1717 19.1165 -0.672631
287 2 17.1146 19.1453 1.02592 17.1146 19.1453 1.02592
288 2 17.2137 19.2174 -2.26172 17.2137 19.2174 -2.26172
289 1 18.0344 17.5174 -0.650105 18.0344 17.5174 -0.650105
290 2 20.0336 17.4693 1.0685 20.0336 17.4693 1.0685
291 2 19.9493 17.4141 -2.23649 19.9493 17.4141 -2.23649
292 1 20.8984 18.9984 -0.622202 20.8984 18.9984 -0.622202
293 2 22.8023 19.1414 1.04809 22.8023 19.1414 1.04809
294 2 22.8627 19.0524 -2.25994 22.8627 19.0524 -2.25994
295 1 23.8778 17.4267 -0.643215 23.8778 17.4267 -0.643215
296 2 25.8555 17.5604 0.845018 25.8555 17.5604 0.845018
297 2 25.6888 17.3428 -2.33431 25.6888 17.3428 -2.33431
298 1 26.7078 19.1083 -0.863886 26.7078 19.1083 -0.863886
299 2 28.5628 19.2309 0.76508 28.5628 19.2309 0.76508
300 2 28.6082 19.1268 -2.56858 28.6082 19.1268 -2.56858
301 1 29.544 17.5314 -0.909229 29.544 17.5314 -0.909229
302 2 31.3256 17.5857 0.867561 31.3256 17.5857 0.867561
303 2 31.5608 17.3754 -2.39913 31.5608 17.3754 -2.39913
304 1 32.5118 19.0704 -0.885177 32.5118 19.0704 -0.885177
305 2 34.04 19.1872 1.16784 34.04 19.1872 1.16784
306 2 34.7824 19.1366 -2.09121 34.7824 19.1366 -2.09121
307 1 35.3755 17.51 -0.32917 35.3755 17.51 -0.32917
308 2 36.9677 17.6294 1.51453 36.9677 17.6294 1.51453
309 2 37.4281 17.3997 -1.65539 37.4281 17.3997 -1.65539
310 1 38.1932 19.1286 -0.180014 38.1932 19.1286 -0.180014
311 2 39.9298 19.2875 1.55512 39.9298 19.2875 1.55512
312 2 40.2682 18.9368 -1.64393 40.2682 18.9368 -1.64393
313 1 40.9551 17.4769 0.116489 40.9551 17.4769 0.116489
314 2 42.8685 17.6775 1.83418 42.8685 17.6775 1.83418
315 2 42.9335 17.4717 -1.50674 42.9335 17.4717 -1.50674
316 1 43.9705 19.2662 0.0803216 43.9705 19.2662 0.0803216
317 2 45.8036 19.2806 1.73712 45.8036 19.2806 1.73712
318 2 45.8487 19.1252 -1.61317 45.8487 19.1252 -1.61317
319 1 46.7145 17.5085 0.188423 46.7145 17.5085 0.188423
320 2 48.5261 17.7863 1.79414 48.5261 17.7863 1.79414
321 2 48.7511 17.2606 -1.45556 48.7511 17.2606 -1.45556
322 1 49.5764 19.1017 0.0167713 49.5764 19.1017 0.0167713
323 2 51.5292 19.4241 1.61691 51.5292 19.4241 1.61691
324 2 51.2865 18.9372 -1.68749 51.2865 18.9372 -1.68749
325 1 1.0611 20.7719 -0.336984 1.0611 20.7719 -0.336984
326 2 2.94073 20.8704 1.29481 2.94073 20.8704 1.29481
327 2 2.97223 20.611 -1.91263 2.97223 20.611 -1.91263
328 1 3.92554 22.4344 -0.473232 3.92554 22.4344 -0.473232
329 2 5.84293 22.4294 1.18079 5.84293 22.4294 1.18079
330 2 5.85666 22.3747 -2.11703 5.85666 22.3747 -2.11703
331 1 6.79353 20.6833 -0.472556 6.79353 20.6833 -0.472556
332 2 8.87613 20.8119 0.899477 8.87613 20.8119 0.899477
333 2 8.47921 20.6802 -2.40014 8.47921 20.6802 -2.40014
334 1 9.53173 22.4286 -0.950913 9.53173 22.4286 -0.950913
335 2 11.4038 22.3776 0.778078 11.4038 22.3776 0.778078
336 2 11.5043 22.3521 -2.52024 11.5043 22.3521 -2.52024
337 1 12.3144 20.6844 -0.844137 12.3144 20.6844 -0.844137
338 2 14.1478 20.845 0.861371 14.1478 20.845 0.861371
339 2 14.2668 20.7221 -2.35003 14.2668 20.7221 -2.35003
340 1 15.2153 22.3272 -0.784793 15.2153 22.3272 -0.784793
341 2 16.9563 22.5129 0.942543 16.9563 22.5129 0.942543
342 2 17.1933 22.2529 -2.24811 17.1933 22.2529 -2.24811
343 1 18.0884 20.8589 -0.479389 18.0884 20.8589 -0.479389
344 2 19.9559 20.65 1.18225 19.9559 20.65 1.18225
345 2 19.9508 20.6463 -2.18787 19.9508 20.6463 -2.18787
346 1 20.9389 22.3311 -0.450358 20.9389 22.3311 -0.450358
347 2 22.9616 22.5199 1.01078 22.9616 22.5199 1.01078
348 2 22.7633 22.277 -2.11991 22.7633 22.277 -2.11991
349 1 23.7707 20.7539 -0.53499 23.7707 20.7539 -0.53499
350 2 25.7711 20.7915 0.834266 25.7711 20.7915 0.834266
351 2 25.4254 20.6469 -2.35049 25.4254 20.6469 -2.35049
352 1 26.7902 22.3931 -0.875405 26.7902 22.3931 -0.875405
353 2 28.666 22.3615 0.74795 28.666 22.3615 0.74795
354 2 28.6135 22.2196 -2.59613 28.6135 22.2196 -2.59613
355 1 29.5697 20.7433 -0.882693 29.5697 20.7433 -0.882693
356 2 31.4465 20.8051 0.753436 31.4465 20.8051 0.753436
357 2 31.5926 20.7328 -2.51606 31.5926 20.7328 -2.51606
358 1 32.54 22.4383 -0.982426 32.54 22.4383 -0.982426
359 2 34.1413 22.5689 0.91839 34.1413 22.5689 0.91839
360 2 34.6817 22.2896 -2.32652 34.6817 22.2896 -2.32652
361 1 35.344 20.7874 -0.360493 35.344 20.7874 -0.360493
362 2 37.2136 20.8976 1.25403 37.2136 20.8976 1.25403
363 2 37.2379 20.5392 -1.9397 37.2379 20.5392 -1.9397
364 1 38.1646 22.3138 -0.541972 38.1646 22.3138 -0.541972
365 2 39.944 22.6547 1.21351 39.944 22.6547 1.21351
366 2 40.1946 22.3576 -2.02495 40.1946 22.3576 -2.02495
367 1 41.1379 20.8942 -0.111725 41.1379 20.8942 -0.111725
368 2 43.0126 21.0326 1.64692 43.0126 21.0326 1.64692
369 2 43.0547 20.6937 -1.76665 43.0547 20.6937 -1.76665
370 1 43.9114 22.5329 -0.215787 43.9114 22.5329 -0.215787
371 2 45.7296 22.5722 1.56103 45.7296 22.5722 1.56103
372 2 45.8799 22.334 -1.72171 45.8799 22.334 -1.72171
373 1 46.7475 20.8077 0.0196069 46.7475 20.8077 0.0196069
374 2 48.7699 20.8594 1.688 48.7699 20.8594 1.688
375 2 48.5358 20.6876 -1.68867 48.5358 20.6876 -1.68867
376 1 49.5481 22.4737 -0.060022 49.5481 22.4737 -0.060022
377 2 51.6365 22.4365 1.31016 51.6365 22.4365 1.31016
378 2 51.3434 22.4292 -1.81259 51.3434 22.4292 -1.81259
379 1 0.927381 24.0516 -0.318348 0.927381 24.0516 -0.318348
380 2 2.95696 24.0747 1.23527 2.95696 24.0747 1.23527
381 2 2.93293 24.1403 -2.09151 2.93293 24.1403 -2.09151
382 1 3.8788 25.7441 -0.457621 3.8788 25.7441 -0.457621
383 2 5.80296 25.729 1.16079 5.80296 25.729 1.16079
384 2 5.75266 25.6928 -2.07266 5.75266 25.6928 -2.07266
385 1 6.67204 24.0619 -0.480511 6.67204 24.0619 -0.480511
386 2 8.7221 23.9485 0.932923 8.7221 23.9485 0.932923
387 2 8.54202 24.3228 -2.27442 8.54202 24.3228 -2.27442
388 1 9.47242 25.6841 -0.477373 9.47242 25.6841 -0.477373
389 2 11.498 25.6104 0.917991 11.498 25.6104 0.917991
390 2 11.2816 25.7044 -2.21694 11.2816 25.7044 -2.21694
391 1 12.3968 24.0752 -0.788707 12.3968 24.0752 -0.788707
392 2 14.3034 24.0188 0.83113 14.3034 24.0188 0.83113
393 2 14.1804 23.9674 -2.45829 14.1804 23.9674 -2.45829
394 1 15.2758 25.635 -0.916929 15.2758 25.635 -0.916929
395 2 17.1489 25.8265 0.843617 17.1489 25.8265 0.843617
396 2 17.137 25.45 -2.43688 17.137 25.45 -2.43688
397 1 18.0311 24.0021 -0.665126 18.0311 24.0021 -0.665126
398 2 20.047 24.1601 0.939773 20.047 24.1601 0.939773
399 2 19.992 23.8928 -2.24289 19.992 23.8928 -2.24289
400 1 20.9146 25.6355 -0.844332 20.9146 25.6355 -0.844332
401 2 22.8331 25.8324 0.774637 22.8331 25.8324 0.774637
402 2 22.8565 25.4472 -2.45535 22.8565 25.4472 -2.45535
403 1 23.8017 24.0241 -0.681544 23.8017 24.0241 -0.681544
404 2 25.9604 24.2595 0.796135 25.9604 24.2595 0.796135
405 2 25.623 23.8686 -2.38828 25.623 23.8686 -2.38828
406 1 26.636 25.7011 -1.06937 26.636 25.7011 -1.06937
407 2 28.7547 25.7636 0.409409 28.7547 25.7636 0.409409
408 2 28.6626 25.617 -2.81773 28.6626 25.617 -2.81773
409 1 29.6858 23.9961 -1.11096 29.6858 23.9961 -1.11096
410 2 31.4294 24.0217 0.6643 31.4294 24.0217 0.6643
411 2 31.6716 23.9467 -2.65243 31.6716 23.9467 -2.65243
412 1 32.4804 25.7126 -0.91814 32.4804 25.7126 -0.91814
413 2 34.2866 25.7431 0.819981 34.2866 25.7431 0.819981
414 2 34.517 25.6615 -2.40575 34.517 25.6615 -2.40575
415 1 35.3609 24.0349 -0.729601 35.3609 24.0349 -0.729601
416 2 37.0448 24.0958 1.00541 37.0448 24.0958 1.00541
417 2 37.255 23.8828 -2.34369 37.255 23.8828 -2.34369
418 1 38.182 25.6528 -0.746462 38.182 25.6528 -0.746462
419 2 40.1022 25.8823 0.889637 40.1022 25.8823 0.889637
420 2 40.1574 25.5574 -2.35729 40.1574 25.5574 -2.35729
421 1 41.0759 24.1844 -0.511068 41.0759 24.1844 -0.511068
422 2 42.8679 24.322 1.14746 42.8679 24.322 1.14746
423 2 43.0279 23.9979 -2.11049 43.0279 23.9979 -2.11049
424 1 43.8824 25.7814 -0.568574 43.8824 25.7814 -0.568574
425 2 45.6178 25.7969 1.20272 45.6178 25.7969 1.20272
426 2 45.9518 25.6457 -2.01588 45.9518 25.6457 -2.01588
427 1 46.791 24.1533 -0.149408 46.791 24.1533 -0.149408
428 2 48.7729 24.189 1.44214 48.7729 24.189 1.44214
429 2 48.6754 24.0099 -1.80074 48.6754 24.0099 -1.80074
430 1 49.598 25.7938 -0.247833 49.598 25.7938 -0.247833
431 2 51.4389 25.6982 1.40338 51.4389 25.6982 1.40338
432 2 51.5566 25.7184 -1.88209 51.5566 25.7184 -1.88209
433 1 1.06135 27.3822 -0.183008 1.06135 27.3822 -0.183008
434 2 3.06907 27.2261 1.36848 3.06907 27.2261 1.36848
435 2 2.87389 27.5471 -1.94104 2.87389 27.5471 -1.94104
436 1 3.87847 28.9851 -0.194467 3.87847 28.9851 -0.194467
437 2 5.91324 28.9971 1.24592 5.91324 28.9971 1.24592
438 2 5.61103 28.9486 -1.92798 5.61103 28.9486 -1.92798
439 1 6.71476 27.3963 -0.452741 6.71476 27.3963 -0.452741
440 2 8.71143 27.4202 1.09631 8.71143 27.4202 1.09631
441 2 8.57103 27.2477 -2.14955 8.57103 27.2477 -2.14955
442 1 9.53665 28.9812 -0.527537 9.53665 28.9812 -0.527537
443 2 11.5425 29.0058 0.989315 11.5425 29.0058 0.989315
444 2 11.3533 29.026 -2.35659 11.3533 29.026 -2.35659
445 1 12.3738 27.3245 -0.710074 12.3738 27.3245 -0.710074
446 2 14.4168 27.2504 0.866226 14.4168 27.2504 0.866226
447 2 14.1737 27.4232 -2.45946 14.1737 27.4232 -2.45946
448 1 15.1932 29.0968 -0.740662 15.1932 29.0968 -0.740662
449 2 17.1654 28.9726 0.782664 17.1654 28.9726 0.782664
450 2 17.0655 29.0098 -2.47352 17.0655 29.0098 -2.47352
451 1 18.0367 27.306 -0.989663 18.0367 27.306 -0.989663
452 2 19.8507 27.3 0.661916 19.8507 27.3 0.661916
453 2 20.0932 27.2079 -2.53512 20.0932 27.2079 -2.53512
454 1 20.9664 28.9309 -0.788529 20.9664 28.9309 -0.788529
455 2 22.9521 28.9017 0.765134 22.9521 28.9017 0.765134
456 2 22.7723 28.9581 -2.49095 22.7723 28.9581 -2.49095
457 1 23.8404 27.357 -0.945738 23.8404 27.357 -0.945738
458 2 25.9437 27.4941 0.613612 25.9437 27.4941 0.613612
459 2 25.7426 27.3775 -2.63937 25.7426 27.3775 -2.63937
460 1 26.8042 29.035 -1.02936 26.8042 29.035 -1.02936
461 2 28.7733 28.7998 0.591418 28.7733 28.7998 0.591418
462 2 28.6783 29.2316 -2.68859 28.6783 29.2316 -2.68859
463 1 29.637 27.3964 -1.25822 29.637 27.3964 -1.25822
464 2 31.2186 27.2195 0.622228 31.2186 27.2195 0.622228
465 2 31.8253 27.417 -2.496 31.8253 27.417 -2.496
466 1 32.3941 28.9172 -0.699139 32.3941 28.9172 -0.699139
467 2 34.3085 28.8631 0.960523 34.3085 28.8631 0.960523
468 2 34.3767 29.1562 -2.33359 34.3767 29.1562 -2.33359
469 1 35.3698 27.3334 -0.78017 35.3698 27.3334 -0.78017
470 2 37.1247 27.2119 1.01371 37.1247 27.2119 1.01371
471 2 37.3155 27.3511 -2.25614 37.3155 27.3511 -2.25614
472 1 38.2177 28.9546 -0.526689 38.2177 28.9546 -0.526689
473 2 40.1972 28.7635 1.0518 40.1972 28.7635 1.0518
474 2 40.1089 29.3738 -2.20772 40.1089 29.3738 -2.20772
475 1 41.0305 27.4225 -0.862472 41.0305 27.4225 -0.862472
476 2 42.8162 27.5272 0.959374 42.8162 27.5272 0.959374
477 2 43.121 27.4349 -2.26107 43.121 27.4349 -2.26107
478 1 43.9128 29.1748 -0.545089 43.9128 29.1748 -0.545089
479 2 45.7134 28.9222 1.14679 45.7134 28.9222 1.14679
480 2 46.0085 29.2676 -2.06068 46.0085 29.2676 -2.06068
481 1 46.7795 27.4249 -0.480388 46.7795 27.4249 -0.480388
482 2 48.4989 27.4752 1.35886 48.4989 27.4752 1.35886
483 2 48.8679 27.4791 -1.95794 48.8679 27.4791 -1.95794
484 1 49.7093 29.022 -0.216984 49.7093 29.022 -0.216984
485 2 51.4998 28.9831 1.50505 51.4998 28.9831 1.50505
486 2 51.6701 29.1102 -1.8608 51.6701 29.1102 -1.8608
487 1 0.992496 30.6311 -0.115749 0.992496 30.6311 -0.115749
488 2 3.11747 30.7684 1.42896 3.11747 30.7684 1.42896
489 2 2.96303 30.7448 -1.86848 2.96303 30.7448 -1.86848
490 1 3.96609 32.3773 -0.270076 3.96609 32.3773 -0.270076
491 2 5.89385 32.2147 1.36889 5.89385 32.2147 1.36889
492 2 5.73609 32.5258 -1.96156 5.73609 32.5258 -1.96156
493 1 6.75554 30.6919 -0.422606 6.75554 30.6919 -0.422606
494 2 8.72226 30.7771 1.16432 8.72226 30.7771 1.16432
495 2 8.53257 30.6573 -2.13815 8.53257 30.6573 -2.13815
496 1 9.5341 32.2891 -0.572021 9.5341 32.2891 -0.572021
497 2 11.4577 32.2292 0.963034 11.4577 32.2292 0.963034
498 2 11.3532 32.385 -2.29822 11.3532 32.385 -2.29822
499 1 12.3207 30.737 -0.768082 12.3207 30.737 -0.768082
500 2 14.1284 30.5618 1.06052 14.1284 30.5618 1.06052
501 2 14.3302 30.9134 -2.24957 14.3302 30.9134 -2.24957
502 1 15.2053 32.3283 -0.355631 15.2053 32.3283 -0.355631
503 2 17.2063 32.2015 1.07667 17.2063 32.2015 1.07667
504 2 16.9726 32.4467 -2.14313 16.9726 32.4467 -2.14313
505 1 18.0617 30.6677 -0.78333 18.0617 30.6677 -0.78333
506 2 19.9219 30.5489 0.845589 19.9219 30.5489 0.845589
507 2 19.9936 30.5492 -2.34272 19.9936 30.5492 -2.34272
508 1 20.9219 32.1964 -0.772385 20.9219 32.1964 -0.772385
509 2 22.9361 32.1395 0.874065 22.9361 32.1395 0.874065
510 2 22.8276 32.2174 -2.42005 22.8276 32.2174 -2.42005
511 1 23.8772 30.5592 -0.921158 23.8772 30.5592 -0.921158
512 2 25.6351 30.3939 0.772873 25.6351 30.3939 0.772873
513 2 25.8285 30.8025 -2.44108 25.8285 30.8025 -2.44108
514 1 26.6813 32.2204 -0.623321 26.6813 32.2204 -0.623321
515 2 28.5238 31.9841 1.02463 28.5238 31.9841 1.02463
516 2 28.5726 32.7134 -2.18261 28.5726 32.7134 -2.18261
517 1 29.6123 30.7151 -0.869656 29.6123 30.7151 -0.869656
518 2 31.5178 30.5769 0.846836 31.5178 30.5769 0.846836
519 2 31.5165 30.6017 -2.38175 31.5165 30.6017 -2.38175
520 1 32.473 32.2148 -0.735408 32.473 32.2148 -0.735408
521 2 34.2385 32.1875 1.05405 34.2385 32.1875 1.05405
522 2 34.5837 32.4596 -2.15105 34.5837 32.4596 -2.15105
523 1 35.2973 30.6283 -0.552276 35.2973 30.6283 -0.552276
524 2 37.1144 30.5687 1.10919 37.1144 30.5687 1.10919
525 2 37.1906 30.6047 -2.17243 37.1906 30.6047 -2.17243
526 1 38.1555 32.2437 -0.499904 38.1555 32.2437 -0.499904
527 2 39.9261 32.3995 1.14715 39.9261 32.3995 1.14715
528 2 40.117 32.2723 -2.04835 40.117 32.2723 -2.04835
529 1 41.0881 30.6309 -0.356767 41.0881 30.6309 -0.356767
530 2 42.9618 30.6407 1.22867 42.9618 30.6407 1.22867
531 2 42.9234 30.7811 -1.99247 42.9234 30.7811 -1.99247
532 1 43.8706 32.4037 -0.352326 43.8706 32.4037 -0.352326
533 2 45.7164 32.2477 1.42262 45.7164 32.2477 1.42262
534 2 46.0311 32.46 -1.77245 46.0311 32.46 -1.77245
535 1 46.8116 30.685 -0.1858 46.8116 30.685 -0.1858
536 2 48.6875 30.6098 1.52668 48.6875 30.6098 1.52668
537 2 48.8255 30.7633 -1.71713 48.8255 30.7633 -1.71713
538 1 49.6155 32.303 0.0166541 49.6155 32.303 0.0166541