ITEM: TIMESTEP
63100
ITEM: NUMBER OF ATOMS
810
ITEM: BOX BOUNDS pp pp pp
7.9421245842996779e-01 5.2223392541570355e+01
7.9910512787802113e-01 5.0217109872121171e+01
-1.0000000000000000e+01 1.0000000000000000e+01
ITEM: ATOMS id type x y z xu yu zu
1 1 1.01361 1.05817 -0.0283577 1.01361 1.05817 -0.0283577
2 2 2.9909 0.951542 1.45521 2.9909 0.951542 1.45521
3 2 2.89432 1.27157 -1.73458 2.89432 1.27157 -1.73458
4 1 3.88249 2.72535 0.0131139 3.88249 2.72535 0.0131139
5 2 5.72542 2.49845 1.72167 5.72542 2.49845 1.72167
6 2 5.88895 2.7495 -1.49529 5.88895 2.7495 -1.49529
7 1 6.76299 0.971644 0.0588184 6.76299 0.971644 0.0588184
8 2 8.83131 0.743731 1.52636 8.83131 0.743731 1.52636
9 2 8.4811 1.26473 -1.70397 8.4811 1.26473 -1.70397
10 1 9.54393 2.69994 0.195089 9.54393 2.69994 0.195089
11 2 11.6512 2.66594 1.70851 11.6512 2.66594 1.70851
12 2 11.2777 2.66072 -1.55602 11.2777 2.66072 -1.55602
13 1 12.3632 0.925426 -0.0534706 12.3632 0.925426 -0.0534706
14 2 14.3315 1.04373 1.33616 14.3315 1.04373 1.33616
15 2 14.1833 1.04254 -1.87724 14.1833 1.04254 -1.87724
16 1 15.1957 2.62044 -0.233127 15.1957 2.62044 -0.233127
17 2 16.9375 2.44099 1.61115 16.9375 2.44099 1.61115
18 2 17.2024 2.61377 -1.66578 17.2024 2.61377 -1.66578
19 1 18.0382 0.857366 -0.0690776 18.0382 0.857366 -0.0690776
20 2 19.9203 50.2181 1.5653 19.9203 0.800069 1.5653
21 2 19.9513 1.12603 -1.71407 19.9513 1.12603 -1.71407
22 1 20.9141 2.58854 0.062735 20.9141 2.58854 0.062735
23 2 22.8641 2.64677 1.65036 22.8641 2.64677 1.65036
24 2 22.7669 2.53817 -1.6182 22.7669 2.53817 -1.6182
25 1 23.8292 0.889608 0.0668506 23.8292 0.889608 0.0668506
26 2 25.9618 0.787816 1.47299 25.9618 0.787816 1.47299
27 2 25.5661 1.15328 -1.83684 25.5661 1.15328 -1.83684
28 1 26.7391 2.60261 -0.22931 26.7391 2.60261 -0.22931
29 2 28.5237 2.59597 1.56509 28.5237 2.59597 1.56509
30 2 28.6503 2.67978 -1.75117 28.6503 2.67978 -1.75117
31 1 29.6399 0.977213 -0.121233 29.6399 0.977213 -0.121233
32 2 31.3634 0.861833 1.64357 31.3634 0.861833 1.64357
33 2 31.577 1.03858 -1.74032 31.577 1.03858 -1.74032
34 1 32.3522 2.59327 0.126373 32.3522 2.59327 0.126373
35 2 34.1969 2.59696 1.90921 34.1969 2.59696 1.90921
36 2 34.3107 2.77799 -1.34604 34.3107 2.77799 -1.34604
37 1 35.3362 1.13399 0.252572 35.3362 1.13399 0.252572
38 2 37.2767 0.953081 1.94396 37.2767 0.953081 1.94396
39 2 37.1963 1.06458 -1.39381 37.1963 1.06458 -1.39381
40 1 38.1688 2.65392 0.425566 38.1688 2.65392 0.425566
41 2 40.0908 2.76738 2.1107 40.0908 2.76738 2.1107
42 2 40.1002 2.63135 -1.09221 40.1002 2.63135 -1.09221
43 1 41.0226 1.04923 0.470929 41.0226 1.04923 0.470929
44 2 42.9692 0.929827 2.14199 42.9692 0.929827 2.14199
45 2 42.8349 1.03245 -1.22127 42.8349 1.03245 -1.22127
46 1 43.8301 2.63694 0.518661 43.8301 2.63694 0.518661
47 2 45.7821 2.74599 2.07731 45.7821 2.74599 2.07731
48 2 45.5015 2.52638 -1.1602 45.5015 2.52638 -1.1602
49 1 46.7194 1.0502 0.398523 46.7194 1.0502 0.398523
50 2 48.8271 0.770905 1.67662 48.8271 0.770905 1.67662
51 2 48.3697 1.30941 -1.51421 48.3697 1.30941 -1.51421
52 1 49.566 2.70596 0.158427 49.566 2.70596 0.158427
53 2 51.4102 2.43629 1.78505 51.4102 2.43629 1.78505
54 2 51.4349 2.86764 -1.51094 51.4349 2.86764 -1.51094
55 1 1.0261 4.32364 0.287717 1.0261 4.32364 0.287717
56 2 3.00733 4.02417 1.8476 3.00733 4.02417 1.8476
57 2 2.85826 4.4768 -1.4082 2.85826 4.4768 -1.4082
58 1 3.89462 6.05424 0.475393 3.89462 6.05424 0.475393
59 2 5.85103 5.92245 2.11208 5.85103 5.92245 2.11208
60 2 5.83246 6.17055 -1.19663 5.83246 6.17055 -1.19663
61 1 6.72529 4.23996 0.337519 6.72529 4.23996 0.337519
62 2 8.58959 3.98512 1.99742 8.58959 3.98512 1.99742
63 2 8.66554 4.43227 -1.18401 8.66554 4.43227 -1.18401
64 1 9.49728 5.92448 0.694175 9.49728 5.92448 0.694175
65 2 11.7063 5.81717 1.96912 11.7063 5.81717 1.96912
66 2 11.069 6.05694 -1.1751 11.069 6.05694 -1.1751
67 1 12.3638 4.34756 0.0613094 12.3638 4.34756 0.0613094
68 2 14.3675 4.15556 1.65924 14.3675 4.15556 1.65924
69 2 14.1775 4.45431 -1.67825 14.1775 4.45431 -1.67825
70 1 15.3139 5.85067 0.0893956 15.3139 5.85067 0.0893956
71 2 17.3088 5.83954 1.79168 17.3088 5.83954 1.79168
72 2 17.1935 5.98641 -1.46717 17.1935 5.98641 -1.46717
73 1 18.0506 4.21691 0.0698599 18.0506 4.21691 0.0698599
74 2 19.966 4.30492 1.7471 19.966 4.30492 1.7471
75 2 19.9794 4.24871 -1.5936 19.9794 4.24871 -1.5936
76 1 20.9614 5.84911 0.107573 20.9614 5.84911 0.107573
77 2 22.9855 5.79122 1.53924 22.9855 5.79122 1.53924
78 2 22.8084 5.84278 -1.6428 22.8084 5.84278 -1.6428
79 1 23.8877 4.18238 -0.126319 23.8877 4.18238 -0.126319
80 2 25.848 4.27819 1.43329 25.848 4.27819 1.43329
81 2 25.7685 4.26484 -1.80711 25.7685 4.26484 -1.80711
82 1 26.6514 5.89062 -0.170204 26.6514 5.89062 -0.170204
83 2 28.6191 5.8285 1.55108 28.6191 5.8285 1.55108
84 2 28.6744 5.73943 -1.80524 28.6744 5.73943 -1.80524
85 1 29.5946 4.23173 -0.048256 29.5946 4.23173 -0.048256
86 2 31.3887 4.23917 1.73382 31.3887 4.23917 1.73382
87 2 31.5429 4.23668 -1.56519 31.5429 4.23668 -1.56519
88 1 32.3584 5.87668 0.122043 32.3584 5.87668 0.122043
89 2 34.0232 5.82904 2.08406 34.0232 5.82904 2.08406
90 2 34.5553 6.00771 -1.17389 34.5553 6.00771 -1.17389
91 1 35.2275 4.39457 0.501579 35.2275 4.39457 0.501579
92 2 37.2864 4.18931 2.15518 37.2864 4.18931 2.15518
93 2 37.1746 4.40145 -1.15679 37.1746 4.40145 -1.15679
94 1 38.0385 5.92762 0.702386 38.0385 5.92762 0.702386
95 2 39.9202 5.7755 2.31843 39.9202 5.7755 2.31843
96 2 39.97 6.09457 -0.941332 39.97 6.09457 -0.941332
97 1 40.9966 4.3545 0.533871 40.9966 4.3545 0.533871
98 2 42.8375 4.24373 2.21222 42.8375 4.24373 2.21222
99 2 42.957 4.5585 -1.00194 42.957 4.5585 -1.00194
100 1 43.8556 6.07019 0.786056 43.8556 6.07019 0.786056
101 2 45.7675 5.80575 2.29158 45.7675 5.80575 2.29158
102 2 45.5897 6.15567 -0.920334 45.5897 6.15567 -0.920334
103 1 46.6315 4.36351 0.335114 46.6315 4.36351 0.335114
104 2 48.5257 4.16838 1.94193 48.5257 4.16838 1.94193
105 2 48.668 4.66761 -1.23003 48.668 4.66761 -1.23003
106 1 49.6224 6.02054 0.759707 49.6224 6.02054 0.759707
107 2 51.7734 5.82433 2.15636 51.7734 5.82433 2.15636
108 2 51.3414 6.04954 -1.07919 51.3414 6.04954 -1.07919
109 1 1.04631 7.5779 0.478343 1.04631 7.5779 0.478343
110 2 3.07446 7.74655 2.06575 3.07446 7.74655 2.06575
111 2 2.96879 7.54532 -1.16949 2.96879 7.54532 -1.16949
112 1 3.75218 9.34849 0.384797 3.75218 9.34849 0.384797
113 2 5.62319 9.39392 2.16381 5.62319 9.39392 2.16381
114 2 5.76853 9.35792 -1.1047 5.76853 9.35792 -1.1047
115 1 6.67367 7.75998 0.633109 6.67367 7.75998 0.633109
116 2 8.62484 7.76337 2.1601 8.62484 7.76337 2.1601
117 2 8.46329 7.54406 -1.14297 8.46329 7.54406 -1.14297
118 1 9.5259 9.25657 0.294156 9.5259 9.25657 0.294156
119 2 11.3149 9.19737 2.08522 11.3149 9.19737 2.08522
120 2 11.5751 9.10393 -1.27001 11.5751 9.10393 -1.27001
121 1 12.3944 7.56814 0.421039 12.3944 7.56814 0.421039
122 2 14.6291 7.48168 1.84366 14.6291 7.48168 1.84366
123 2 14.0936 7.37363 -1.37189 14.0936 7.37363 -1.37189
124 1 15.2051 9.22812 0.125829 15.2051 9.22812 0.125829
125 2 17.0264 9.21851 1.77031 17.0264 9.21851 1.77031
126 2 17.1566 9.11347 -1.44669 17.1566 9.11347 -1.44669
127 1 18.1414 7.50182 0.256885 18.1414 7.50182 0.256885
128 2 20.2132 7.59129 1.71823 20.2132 7.59129 1.71823
129 2 19.9151 7.42863 -1.54172 19.9151 7.42863 -1.54172
130 1 20.9358 9.14588 -0.0878387 20.9358 9.14588 -0.0878387
131 2 22.7433 9.04143 1.53351 22.7433 9.04143 1.53351
132 2 22.8231 9.15164 -1.70395 22.8231 9.15164 -1.70395
133 1 23.8399 7.54362 -0.140851 23.8399 7.54362 -0.140851
134 2 25.6703 7.65555 1.40888 25.6703 7.65555 1.40888
135 2 25.5901 7.44885 -1.83721 25.5901 7.44885 -1.83721
136 1 26.6858 9.15717 -0.290819 26.6858 9.15717 -0.290819
137 2 28.4346 9.04934 1.44648 28.4346 9.04934 1.44648
138 2 28.698 9.28269 -1.74128 28.698 9.28269 -1.74128
139 1 29.4983 7.51798 -0.166919 29.4983 7.51798 -0.166919
140 2 31.2056 7.43402 1.67587 31.2056 7.43402 1.67587
141 2 31.5919 7.61513 -1.45402 31.5919 7.61513 -1.45402
142 1 32.4072 9.17379 0.336906 32.4072 9.17379 0.336906
143 2 34.091 9.39701 2.14015 34.091 9.39701 2.14015
144 2 34.4068 9.02805 -1.2072 34.4068 9.02805 -1.2072
145 1 35.2205 7.60836 0.678274 35.2205 7.60836 0.678274
146 2 37.1413 7.6088 2.42669 37.1413 7.6088 2.42669
147 2 37.1246 7.73712 -0.909016 37.1246 7.73712 -0.909016
148 1 38.0235 9.26208 0.686453 38.0235 9.26208 0.686453
149 2 39.936 9.24558 2.35952 39.936 9.24558 2.35952
150 2 39.9479 9.21262 -0.794707 39.9479 9.21262 -0.794707
151 1 40.8826 7.54041 0.836045 40.8826 7.54041 0.836045
152 2 42.8533 7.54518 2.46767 42.8533 7.54518 2.46767
153 2 42.9045 7.77684 -0.778274 42.9045 7.77684 -0.778274
154 1 43.7685 9.26699 0.997917 43.7685 9.26699 0.997917
155 2 45.7527 9.2596 2.54242 45.7527 9.2596 2.54242
156 2 45.6703 9.32439 -0.698687 45.6703 9.32439 -0.698687
157 1 46.7171 7.60241 0.809176 46.7171 7.60241 0.809176
158 2 48.6886 7.67296 2.32977 48.6886 7.67296 2.32977
159 2 48.5172 7.62077 -0.919555 48.5172 7.62077 -0.919555
160 1 49.554 9.23992 0.64907 49.554 9.23992 0.64907
161 2 51.6709 9.19909 2.1268 51.6709 9.19909 2.1268
162 2 51.3884 9.33167 -1.0185 51.3884 9.33167 -1.0185
163 1 0.952352 11.0072 0.602341 0.952352 11.0072 0.602341
164 2 2.91345 10.9753 2.15249 2.91345 10.9753 2.15249
165 2 2.70762 11.0634 -1.07379 2.70762 11.0634 -1.07379
166 1 3.82732 12.6859 0.607833 3.82732 12.6859 0.607833
167 2 5.80382 12.6062 2.14108 5.80382 12.6062 2.14108
168 2 5.57039 12.7257 -1.07056 5.57039 12.7257 -1.07056
169 1 6.63203 11.0182 0.501415 6.63203 11.0182 0.501415
170 2 8.65715 10.8541 2.02587 8.65715 10.8541 2.02587
171 2 8.43375 10.9827 -1.22342 8.43375 10.9827 -1.22342
172 1 9.51252 12.5726 0.327234 9.51252 12.5726 0.327234
173 2 11.4211 12.4577 2.05862 11.4211 12.4577 2.05862
174 2 11.6723 12.5734 -1.17393 11.6723 12.5734 -1.17393
175 1 12.4072 10.8711 0.411136 12.4072 10.8711 0.411136
176 2 14.2838 10.6443 1.93356 14.2838 10.6443 1.93356
177 2 14.2114 11.1132 -1.3032 14.2114 11.1132 -1.3032
178 1 15.2081 12.4198 0.341507 15.2081 12.4198 0.341507
179 2 17.2995 12.4201 1.83896 17.2995 12.4201 1.83896
180 2 16.9041 12.3961 -1.48814 16.9041 12.3961 -1.48814
181 1 18.0629 10.7804 0.12978 18.0629 10.7804 0.12978
182 2 20.052 10.7164 1.61676 20.052 10.7164 1.61676
183 2 19.8185 10.814 -1.6167 19.8185 10.814 -1.6167
184 1 20.8624 12.4745 -0.0449112 20.8624 12.4745 -0.0449112
185 2 23.0108 12.5337 1.51048 23.0108 12.5337 1.51048
186 2 22.6717 12.2961 -1.73559 22.6717 12.2961 -1.73559
187 1 23.7386 10.7658 -0.037998 23.7386 10.7658 -0.037998
188 2 25.6924 10.6726 1.48308 25.6924 10.6726 1.48308
189 2 25.498 10.9577 -1.75146 25.498 10.9577 -1.75146
190 1 26.7619 12.4525 0.0116936 26.7619 12.4525 0.0116936
191 2 28.5379 12.6243 1.70175 28.5379 12.6243 1.70175
192 2 28.5414 12.3854 -1.75649 28.5414 12.3854 -1.75649
193 1 29.569 10.7882 0.0150338 29.569 10.7882 0.0150338
194 2 31.4495 11.0104 1.67198 31.4495 11.0104 1.67198
195 2 31.6748 10.6331 -1.48402 31.6748 10.6331 -1.48402
196 1 32.3726 12.5279 0.0241501 32.3726 12.5279 0.0241501
197 2 34.1605 12.6121 1.81046 34.1605 12.6121 1.81046
198 2 34.3668 12.4159 -1.40022 34.3668 12.4159 -1.40022
199 1 35.2647 10.8835 0.431851 35.2647 10.8835 0.431851
200 2 37.1244 11.0288 2.18374 37.1244 11.0288 2.18374
201 2 37.2723 10.8496 -1.04166 37.2723 10.8496 -1.04166
202 1 38.2107 12.5909 0.612626 38.2107 12.5909 0.612626
203 2 39.9704 12.6795 2.26912 39.9704 12.6795 2.26912
204 2 40.2099 12.4407 -0.875839 40.2099 12.4407 -0.875839
205 1 40.9283 10.8797 0.837437 40.9283 10.8797 0.837437
206 2 42.6997 10.9231 2.48672 42.6997 10.9231 2.48672
207 2 42.9036 10.8296 -0.741712 42.9036 10.8296 -0.741712
208 1 43.7924 12.5399 0.767881 43.7924 12.5399 0.767881
209 2 45.5126 12.4545 2.54702 45.5126 12.4545 2.54702
210 2 45.7697 12.6191 -0.786839 45.7697 12.6191 -0.786839
211 1 46.6692 10.9522 0.937209 46.6692 10.9522 0.937209
212 2 48.7163 10.7209 2.48023 48.7163 10.7209 2.48023
213 2 48.6093 11.0584 -0.714936 48.6093 11.0584 -0.714936
214 1 49.6231 12.6338 0.984675 49.6231 12.6338 0.984675
215 2 51.6145 12.4239 2.50785 51.6145 12.4239 2.50785
216 2 51.51 12.9224 -0.625987 51.51 12.9224 -0.625987
217 1 1.06386 14.3172 1.15852 1.06386 14.3172 1.15852
218 2 3.19496 14.1473 2.45647 3.19496 14.1473 2.45647
219 2 2.7197 14.4836 -0.769444 2.7197 14.4836 -0.769444
220 1 3.85986 15.9444 0.763367 3.85986 15.9444 0.763367
221 2 5.88428 15.7984 2.28555 5.88428 15.7984 2.28555
222 2 5.7003 16.0231 -0.964248 5.7003 16.0231 -0.964248
223 1 6.70788 14.2116 0.5187 6.70788 14.2116 0.5187
224 2 8.61525 14.161 2.14249 8.61525 14.161 2.14249
225 2 8.54768 14.3121 -1.14325 8.54768 14.3121 -1.14325
226 1 9.568 15.9207 0.566126 9.568 15.9207 0.566126
227 2 11.542 15.9237 2.11909 11.542 15.9237 2.11909
228 2 11.3681 15.8665 -1.19309 11.3681 15.8665 -1.19309
229 1 12.4135 14.1625 0.583068 12.4135 14.1625 0.583068
230 2 14.3812 14.1383 2.02908 14.3812 14.1383 2.02908
231 2 14.1366 14.0082 -1.24825 14.1366 14.0082 -1.24825
232 1 15.1942 15.7548 0.260098 15.1942 15.7548 0.260098
233 2 17.3235 15.7885 1.60346 17.3235 15.7885 1.60346
234 2 16.8384 15.7128 -1.57941 16.8384 15.7128 -1.57941
235 1 18.031 14.0661 -0.0132008 18.031 14.0661 -0.0132008
236 2 19.8484 14.2698 1.55446 19.8484 14.2698 1.55446
237 2 19.9529 14.0987 -1.64712 19.9529 14.0987 -1.64712
238 1 20.9138 15.7943 -0.134015 20.9138 15.7943 -0.134015
239 2 23.0003 15.9571 1.29033 23.0003 15.9571 1.29033
240 2 22.7993 15.6319 -1.85597 22.7993 15.6319 -1.85597
241 1 23.7849 14.0647 -0.151195 23.7849 14.0647 -0.151195
242 2 25.7965 14.2443 1.44558 25.7965 14.2443 1.44558
243 2 25.833 13.8932 -1.78833 25.833 13.8932 -1.78833
244 1 26.7001 15.754 -0.368429 26.7001 15.754 -0.368429
245 2 28.643 16.1429 1.29099 28.643 16.1429 1.29099
246 2 28.6941 15.5695 -1.97533 28.6941 15.5695 -1.97533
247 1 29.5155 14.1572 -0.0933759 29.5155 14.1572 -0.0933759
248 2 31.4526 14.265 1.51682 31.4526 14.265 1.51682
249 2 31.4429 14.07 -1.73912 31.4429 14.07 -1.73912
250 1 32.4489 15.8205 -0.19119 32.4489 15.8205 -0.19119
251 2 34.4339 16.0589 1.41591 34.4339 16.0589 1.41591
252 2 34.3841 15.5336 -1.78326 34.3841 15.5336 -1.78326
253 1 35.285 14.0991 0.140487 35.285 14.0991 0.140487
254 2 37.0166 14.2442 1.92224 37.0166 14.2442 1.92224
255 2 37.3747 13.9746 -1.24364 37.3747 13.9746 -1.24364
256 1 38.1191 15.8211 0.299355 38.1191 15.8211 0.299355
257 2 39.9617 16.0662 1.94841 39.9617 16.0662 1.94841
258 2 40.0203 15.6383 -1.24601 40.0203 15.6383 -1.24601
259 1 40.99 14.202 0.62839 40.99 14.202 0.62839
260 2 42.7954 14.2845 2.33981 42.7954 14.2845 2.33981
261 2 43.0162 14.1567 -0.965695 43.0162 14.1567 -0.965695
262 1 43.8594 15.845 0.646038 43.8594 15.845 0.646038
263 2 45.7723 15.7905 2.49294 45.7723 15.7905 2.49294
264 2 45.8408 15.7538 -0.866692 45.8408 15.7538 -0.866692
265 1 46.7081 14.1343 0.96699 46.7081 14.1343 0.96699
266 2 48.612 14.2208 2.66872 48.612 14.2208 2.66872
267 2 48.6636 14.3082 -0.57261 48.6636 14.3082 -0.57261
268 1 49.5561 15.9116 1.11558 49.5561 15.9116 1.11558
269 2 51.4062 15.9324 2.74226 51.4062 15.9324 2.74226
270 2 51.4363 15.9014 -0.508474 51.4363 15.9014 -0.508474
271 1 0.959409 17.6353 1.02554 0.959409 17.6353 1.02554
272 2 2.92674 17.6186 2.44775 2.92674 17.6186 2.44775
273 2 2.72631 17.4465 -0.784669 2.72631 17.4465 -0.784669
274 1 3.76553 19.1912 0.683168 3.76553 19.1912 0.683168
275 2 5.66996 19.348 2.29719 5.66996 19.348 2.29719
276 2 5.62349 19.065 -1.07462 5.62349 19.065 -1.07462
277 1 6.72676 17.5728 0.760449 6.72676 17.5728 0.760449
278 2 8.8104 17.7242 2.11845 8.8104 17.7242 2.11845
279 2 8.3653 17.3962 -1.12671 8.3653 17.3962 -1.12671
280 1 9.55711 19.2245 0.190432 9.55711 19.2245 0.190432
281 2 11.6284 19.3404 1.81524 11.6284 19.3404 1.81524
282 2 11.3633 18.9115 -1.40318 11.3633 18.9115 -1.40318
283 1 12.3894 17.4912 0.454966 12.3894 17.4912 0.454966
284 2 14.5796 17.6513 1.72234 14.5796 17.6513 1.72234
285 2 14.1054 17.2153 -1.38238 14.1054 17.2153 -1.38238
286 1 15.3144 19.0453 -0.182387 15.3144 19.0453 -0.182387
287 2 17.3109 19.278 1.2832 17.3109 19.278 1.2832
288 2 17.1716 18.7054 -1.99755 17.1716 18.7054 -1.99755
289 1 18.1235 17.3935 -0.0984384 18.1235 17.3935 -0.0984384
290 2 20.1973 17.6249 1.41857 20.1973 17.6249 1.41857
291 2 19.8178 17.2217 -1.93129 19.8178 17.2217 -1.93129
292 1 21.0384 18.9704 -0.596546 21.0384 18.9704 -0.596546
293 2 23.0568 19.2319 0.965781 23.0568 19.2319 0.965781
294 2 22.8752 18.8595 -2.38421 22.8752 18.8595 -2.38421
295 1 23.9411 17.3582 -0.549825 23.9411 17.3582 -0.549825
296 2 25.8953 17.6969 1.00162 25.8953 17.6969 1.00162
297 2 25.7366 17.1315 -2.28702 25.7366 17.1315 -2.28702
298 1 26.7738 19.0198 -0.995467 26.7738 19.0198 -0.995467
299 2 28.6448 19.3339 0.785338 28.6448 19.3339 0.785338
300 2 28.7694 18.7885 -2.54861 28.7694 18.7885 -2.54861
301 1 29.621 17.4427 -0.559163 29.621 17.4427 -0.559163
302 2 31.4601 17.73 1.12262 31.4601 17.73 1.12262
303 2 31.6191 17.2692 -2.06926 31.6191 17.2692 -2.06926
304 1 32.5401 19.0859 -0.650745 32.5401 19.0859 -0.650745
305 2 34.2874 19.2599 1.01846 34.2874 19.2599 1.01846
306 2 34.4678 18.925 -2.17417 34.4678 18.925 -2.17417
307 1 35.323 17.4022 -0.420963 35.323 17.4022 -0.420963
308 2 36.9489 17.7503 1.45191 36.9489 17.7503 1.45191
309 2 37.4586 17.2198 -1.70043 37.4586 17.2198 -1.70043
310 1 38.1707 19.1471 -0.237219 38.1707 19.1471 -0.237219
311 2 39.6897 19.1606 1.70129 39.6897 19.1606 1.70129
312 2 40.2922 19.1411 -1.63897 40.2922 19.1411 -1.63897
313 1 40.9654 17.4696 0.268596 40.9654 17.4696 0.268596
314 2 42.8225 17.7492 2.07692 42.8225 17.7492 2.07692
315 2 42.9578 17.3808 -1.139 42.9578 17.3808 -1.139
316 1 43.9216 19.1574 0.367872 43.9216 19.1574 0.367872
317 2 45.698 19.3978 2.16239 45.698 19.3978 2.16239
318 2 45.8214 18.8961 -1.1596 45.8214 18.8961 -1.1596
319 1 46.7153 17.4688 0.815019 46.7153 17.4688 0.815019
320 2 48.4939 17.7811 2.50632 48.4939 17.7811 2.50632
321 2 48.6677 17.3265 -0.749599 48.6677 17.3265 -0.749599
322 1 49.4698 19.1509 0.662232 49.4698 19.1509 0.662232
323 2 51.1818 19.3906 2.42187 51.1818 19.3906 2.42187
324 2 51.5683 19.0953 -0.809313 51.5683 19.0953 -0.809313
325 1 0.978535 20.8382 0.738447 0.978535 20.8382 0.738447
326 2 2.86849 20.7747 2.34484 2.86849 20.7747 2.34484
327 2 2.81037 20.8725 -0.881771 2.81037 20.8725 -0.881771
328 1 3.82554 22.4598 0.712245 3.82554 22.4598 0.712245
329 2 5.90649 22.4706 2.13346 5.90649 22.4706 2.13346
330 2 5.68606 22.4002 -1.07351 5.68606 22.4002 -1.07351
331 1 6.71218 20.7459 0.497854 6.71218 20.7459 0.497854
332 2 8.77845 20.8228 1.8999 8.77845 20.8228 1.8999
333 2 8.33344 20.7742 -1.37921 8.33344 20.7742 -1.37921
334 1 9.56902 22.3983 0.101355 9.56902 22.3983 0.101355
335 2 11.646 22.3904 1.48552 11.646 22.3904 1.48552
336 2 11.3 22.2366 -1.60054 11.3 22.2366 -1.60054
337 1 12.4641 20.7156 -0.0763233 12.4641 20.7156 -0.0763233
338 2 14.3928 20.7912 1.42501 14.3928 20.7912 1.42501
339 2 14.2674 20.6697 -1.87509 14.2674 20.6697 -1.87509
340 1 15.3244 22.3754 -0.34046 15.3244 22.3754 -0.34046
341 2 17.4077 22.4019 1.11896 17.4077 22.4019 1.11896
342 2 17.0887 22.3369 -2.18286 17.0887 22.3369 -2.18286
343 1 18.2018 20.6845 -0.681396 18.2018 20.6845 -0.681396
344 2 20.0146 20.6512 0.96445 20.0146 20.6512 0.96445
345 2 20.1699 20.7381 -2.25639 20.1699 20.7381 -2.25639
346 1 21.0262 22.3823 -0.608432 21.0262 22.3823 -0.608432
347 2 22.906 22.1308 0.895928 22.906 22.1308 0.895928
348 2 22.8821 22.4165 -2.35999 22.8821 22.4165 -2.35999
349 1 23.8616 20.6372 -0.909649 23.8616 20.6372 -0.909649
350 2 25.9345 20.7449 0.53992 25.9345 20.7449 0.53992
351 2 25.7298 20.6662 -2.64097 25.7298 20.6662 -2.64097
352 1 26.7628 22.3309 -1.04393 26.7628 22.3309 -1.04393
353 2 28.6173 22.2739 0.600908 28.6173 22.2739 0.600908
354 2 28.7154 22.4829 -2.68835 28.7154 22.4829 -2.68835
355 1 29.6224 20.7497 -1.21785 29.6224 20.7497 -1.21785
356 2 31.33 20.9035 0.616969 31.33 20.9035 0.616969
357 2 31.8223 20.443 -2.52804 31.8223 20.443 -2.52804
358 1 32.4697 22.4183 -1.06625 32.4697 22.4183 -1.06625
359 2 34.3421 22.5154 0.706247 34.3421 22.5154 0.706247
360 2 34.5544 22.3006 -2.4232 34.5544 22.3006 -2.4232
361 1 35.2954 20.7219 -0.715926 35.2954 20.7219 -0.715926
362 2 36.9104 20.946 1.18874 36.9104 20.946 1.18874
363 2 37.4236 20.6704 -2.00612 37.4236 20.6704 -2.00612
364 1 38.1511 22.4698 -0.336234 38.1511 22.4698 -0.336234
365 2 40.0366 22.7686 1.38178 40.0366 22.7686 1.38178
366 2 40.2052 22.1797 -1.87358 40.2052 22.1797 -1.87358
367 1 40.9011 20.7939 0.116069 40.9011 20.7939 0.116069
368 2 42.7803 20.8348 1.81459 42.7803 20.8348 1.81459
369 2 43.0049 20.7277 -1.32365 43.0049 20.7277 -1.32365
370 1 43.808 22.4646 0.222607 43.808 22.4646 0.222607
371 2 45.5372 22.4036 1.93932 45.5372 22.4036 1.93932
372 2 45.8435 22.5134 -1.30696 45.8435 22.5134 -1.30696
373 1 46.7057 20.7738 0.309327 46.7057 20.7738 0.309327
374 2 48.4561 20.9073 2.15556 48.4561 20.9073 2.15556
375 2 48.7522 20.7978 -1.12661 48.7522 20.7978 -1.12661
376 1 49.5661 22.4574 0.589557 49.5661 22.4574 0.589557
377 2 51.4803 22.5627 2.23345 51.4803 22.5627 2.23345
378 2 51.4634 22.4631 -1.07204 51.4634 22.4631 -1.07204
379 1 1.01834 24.0469 0.613915 1.01834 24.0469 0.613915
380 2 2.87362 24.1494 2.25163 2.87362 24.1494 2.25163
381 2 2.93895 24.0261 -0.943358 2.93895 24.0261 -0.943358
382 1 3.89892 25.8041 0.584105 3.89892 25.8041 0.584105
383 2 5.89802 25.9964 1.99016 5.89802 25.9964 1.99016
384 2 5.70467 25.61 -1.23009 5.70467 25.61 -1.23009
385 1 6.79831 24.1244 0.448775 6.79831 24.1244 0.448775
386 2 8.90103 24.1019 1.80049 8.90103 24.1019 1.80049
387 2 8.43002 23.9119 -1.44024 8.43002 23.9119 -1.44024
388 1 9.55632 25.7194 -0.0108816 9.55632 25.7194 -0.0108816
389 2 11.5684 25.6729 1.47136 11.5684 25.6729 1.47136
390 2 11.4046 25.6582 -1.76803 11.4046 25.6582 -1.76803
391 1 12.4591 23.9365 -0.236972 12.4591 23.9365 -0.236972
392 2 14.4545 24.1494 1.2597 14.4545 24.1494 1.2597
393 2 14.2267 23.8863 -1.99472 14.2267 23.8863 -1.99472
394 1 15.2158 25.6898 -0.661268 15.2158 25.6898 -0.661268
395 2 17.1561 25.7954 0.902562 17.1561 25.7954 0.902562
396 2 17.1228 25.7356 -2.34827 17.1228 25.7356 -2.34827
397 1 18.0513 24.0593 -0.693909 18.0513 24.0593 -0.693909
398 2 19.9029 23.9782 1.05458 19.9029 23.9782 1.05458
399 2 20.0928 24.0502 -2.16669 20.0928 24.0502 -2.16669
400 1 20.9249 25.6813 -0.504553 20.9249 25.6813 -0.504553
401 2 22.97 25.7211 0.961529 22.97 25.7211 0.961529
402 2 22.8035 25.6188 -2.19768 22.8035 25.6188 -2.19768
403 1 23.8675 23.9714 -0.627697 23.8675 23.9714 -0.627697
404 2 26.0507 23.9945 0.811615 26.0507 23.9945 0.811615
405 2 25.6073 23.9443 -2.40945 25.6073 23.9443 -2.40945
406 1 26.7863 25.692 -0.861242 26.7863 25.692 -0.861242
407 2 28.6062 25.6432 0.828545 28.6062 25.6432 0.828545
408 2 28.717 25.9061 -2.4299 28.717 25.9061 -2.4299
409 1 29.6362 24.1194 -0.89635 29.6362 24.1194 -0.89635
410 2 31.5584 24.0677 0.674002 31.5584 24.0677 0.674002
411 2 31.3735 24.1525 -2.66862 31.3735 24.1525 -2.66862
412 1 32.4751 25.7968 -1.06098 32.4751 25.7968 -1.06098
413 2 34.3159 25.7538 0.744116 34.3159 25.7538 0.744116
414 2 34.587 25.8032 -2.45643 34.587 25.8032 -2.45643
415 1 35.3159 24.0783 -0.863189 35.3159 24.0783 -0.863189
416 2 37.1397 24.3772 0.919951 37.1397 24.3772 0.919951
417 2 37.3293 23.8506 -2.30407 37.3293 23.8506 -2.30407
418 1 38.1899 25.7486 -0.863681 38.1899 25.7486 -0.863681
419 2 40.0293 25.8273 0.868028 40.0293 25.8273 0.868028
420 2 40.3386 25.564 -2.34847 40.3386 25.564 -2.34847
421 1 41.051 24.0649 -0.511307 41.051 24.0649 -0.511307
422 2 42.6807 24.3925 1.41394 42.6807 24.3925 1.41394
423 2 43.2194 23.8384 -1.83627 43.2194 23.8384 -1.83627
424 1 43.8923 25.7138 -0.346483 43.8923 25.7138 -0.346483
425 2 45.5258 25.946 1.65659 45.5258 25.946 1.65659
426 2 46.0677 25.5422 -1.65176 46.0677 25.5422 -1.65176
427 1 46.6839 24.0607 0.388634 46.6839 24.0607 0.388634
428 2 48.5356 24.0754 2.05024 48.5356 24.0754 2.05024
429 2 48.5922 23.9303 -1.18586 48.5922 23.9303 -1.18586
430 1 49.5244 25.6808 0.309294 49.5244 25.6808 0.309294
431 2 51.2908 25.7916 2.0409 51.2908 25.7916 2.0409
432 2 51.4736 25.7702 -1.18797 51.4736 25.7702 -1.18797
433 1 0.992652 27.4139 0.386514 0.992652 27.4139 0.386514
434 2 2.84847 27.8436 1.88321 2.84847 27.8436 1.88321
435 2 2.84227 27.162 -1.25969 2.84227 27.162 -1.25969
436 1 3.86266 29.1083 -0.0138696 3.86266 29.1083 -0.0138696
437 2 5.81745 29.2675 1.53871 5.81745 29.2675 1.53871
438 2 5.64656 28.9565 -1.78806 5.64656 28.9565 -1.78806
439 1 6.73553 27.5014 0.0334876 6.73553 27.5014 0.0334876
440 2 8.67922 27.5578 1.55331 8.67922 27.5578 1.55331
441 2 8.521 27.1566 -1.68424 8.521 27.1566 -1.68424
442 1 9.54572 29.0553 -0.239461 9.54572 29.0553 -0.239461
443 2 11.5264 29.2157 1.24983 11.5264 29.2157 1.24983
444 2 11.2736 28.8418 -1.94007 11.2736 28.8418 -1.94007
445 1 12.435 27.3103 -0.29433 12.435 27.3103 -0.29433
446 2 14.4477 27.1882 1.10777 14.4477 27.1882 1.10777
447 2 14.1546 27.3931 -2.13056 14.1546 27.3931 -2.13056
448 1 15.3252 28.9681 -0.487536 15.3252 28.9681 -0.487536
449 2 17.3256 28.913 0.997898 17.3256 28.913 0.997898
450 2 16.9844 29.0746 -2.18889 16.9844 29.0746 -2.18889
451 1 18.0521 27.3121 -0.783592 18.0521 27.3121 -0.783592
452 2 19.9613 27.3758 0.932539 19.9613 27.3758 0.932539
453 2 20.0784 27.131 -2.29918 20.0784 27.131 -2.29918
454 1 20.9689 28.9395 -0.724502 20.9689 28.9395 -0.724502
455 2 22.9871 28.9053 0.880062 22.9871 28.9053 0.880062
456 2 22.866 28.9837 -2.40581 22.866 28.9837 -2.40581
457 1 23.9141 27.3636 -0.753977 23.9141 27.3636 -0.753977
458 2 25.7907 27.2346 0.85888 25.7907 27.2346 0.85888
459 2 25.743 27.4678 -2.39864 25.743 27.4678 -2.39864
460 1 26.755 28.9198 -0.633844 26.755 28.9198 -0.633844
461 2 28.6772 28.9028 0.989072 28.6772 28.9028 0.989072
462 2 28.6252 29.0818 -2.20741 28.6252 29.0818 -2.20741
463 1 29.6403 27.3465 -0.710506 29.6403 27.3465 -0.710506
464 2 31.7324 27.354 0.715748 31.7324 27.354 0.715748
465 2 31.4591 27.5731 -2.48682 31.4591 27.5731 -2.48682
466 1 32.5247 29.1046 -0.84089 32.5247 29.1046 -0.84089
467 2 34.4737 28.9533 0.839302 34.4737 28.9533 0.839302
468 2 34.5324 29.0464 -2.3888 34.5324 29.0464 -2.3888
469 1 35.3821 27.32 -0.756223 35.3821 27.32 -0.756223
470 2 37.2297 27.3598 0.744118 37.2297 27.3598 0.744118
471 2 37.1859 27.3211 -2.40497 37.1859 27.3211 -2.40497
472 1 38.1605 29.0894 -0.864174 38.1605 29.0894 -0.864174
473 2 39.958 29.0395 0.849826 39.958 29.0395 0.849826
474 2 40.2494 29.0715 -2.36563 40.2494 29.0715 -2.36563
475 1 41.0566 27.3918 -0.72696 41.0566 27.3918 -0.72696
476 2 42.8373 27.365 1.07552 42.8373 27.365 1.07552
477 2 43.1153 27.3783 -2.12359 43.1153 27.3783 -2.12359
478 1 43.882 29.0175 -0.517836 43.882 29.0175 -0.517836
479 2 45.664 29.229 1.28355 45.664 29.229 1.28355
480 2 45.8773 28.964 -1.99369 45.8773 28.964 -1.99369
481 1 46.7256 27.3662 -0.0643164 46.7256 27.3662 -0.0643164
482 2 48.3668 27.46 1.75857 48.3668 27.46 1.75857
483 2 48.7865 27.3466 -1.42158 48.7865 27.3466 -1.42158
484 1 49.6258 29.0392 0.209882 49.6258 29.0392 0.209882
485 2 51.6453 29.3121 1.71177 51.6453 29.3121 1.71177
486 2 51.3402 28.845 -1.44653 51.3402 28.845 -1.44653
487 1 0.923262 30.6958 -0.232481 0.923262 30.6958 -0.232481
488 2 2.88241 30.9404 1.39987 2.88241 30.9404 1.39987
489 2 2.88292 30.5269 -1.91642 2.88292 30.5269 -1.91642
490 1 3.76347 32.3309 -0.474624 3.76347 32.3309 -0.474624
491 2 5.6005 32.3358 1.19959 5.6005 32.3358 1.19959
492 2 5.73828 32.3826 -1.97696 5.73828 32.3826 -1.97696
493 1 6.628 30.7602 -0.31596 6.628 30.7602 -0.31596
494 2 8.65482 30.8138 1.25527 8.65482 30.8138 1.25527
495 2 8.49175 30.6117 -1.95224 8.49175 30.6117 -1.95224
496 1 9.50206 32.3337 -0.462023 9.50206 32.3337 -0.462023
497 2 11.4261 32.3342 1.13278 11.4261 32.3342 1.13278
498 2 11.3463 32.3773 -2.17396 11.3463 32.3773 -2.17396
499 1 12.395 30.6018 -0.570297 12.395 30.6018 -0.570297
500 2 14.2559 30.5224 1.07138 14.2559 30.5224 1.07138
501 2 14.3865 30.5672 -2.20466 14.3865 30.5672 -2.20466
502 1 15.2642 32.3223 -0.468731 15.2642 32.3223 -0.468731
503 2 17.3661 32.4263 0.956189 17.3661 32.4263 0.956189
504 2 17.1298 32.3008 -2.17085 17.1298 32.3008 -2.17085
505 1 18.2197 30.6774 -0.589793 18.2197 30.6774 -0.589793
506 2 20.1854 30.7207 0.852148 20.1854 30.7207 0.852148
507 2 19.8754 30.536 -2.40177 19.8754 30.536 -2.40177
508 1 21.0262 32.2559 -0.895433 21.0262 32.2559 -0.895433
509 2 22.9239 32.3218 0.853676 22.9239 32.3218 0.853676
510 2 22.923 32.2929 -2.40094 22.923 32.2929 -2.40094
511 1 23.8187 30.602 -0.716143 23.8187 30.602 -0.716143
512 2 25.6761 30.4954 0.975032 25.6761 30.4954 0.975032
513 2 25.8202 30.5915 -2.27227 25.8202 30.5915 -2.27227
514 1 26.741 32.1932 -0.478468 26.741 32.1932 -0.478468
515 2 28.7307 32.3898 1.05801 28.7307 32.3898 1.05801
516 2 28.6122 32.1041 -2.21585 28.6122 32.1041 -2.21585
517 1 29.6852 30.6792 -0.51081 29.6852 30.6792 -0.51081
518 2 31.6842 30.6588 0.948005 31.6842 30.6588 0.948005
519 2 31.4666 30.821 -2.32378 31.4666 30.821 -2.32378
520 1 32.4665 32.4074 -0.729168 32.4665 32.4074 -0.729168
521 2 34.4391 32.2636 0.89794 34.4391 32.2636 0.89794
522 2 34.3998 32.4293 -2.31771 34.3998 32.4293 -2.31771
523 1 35.3698 30.6124 -0.788806 35.3698 30.6124 -0.788806
524 2 37.2904 30.5261 0.945715 37.2904 30.5261 0.945715
525 2 37.2947 30.8269 -2.35235 37.2947 30.8269 -2.35235
526 1 38.1422 32.3693 -0.53305 38.1422 32.3693 -0.53305
527 2 40.0709 32.4128 1.08232 40.0709 32.4128 1.08232
528 2 40.1263 32.5023 -2.05856 40.1263 32.5023 -2.05856
529 1 41.0251 30.7223 -0.608894 41.0251 30.7223 -0.608894
530 2 42.841 30.6772 1.12789 42.841 30.6772 1.12789
531 2 43.0116 30.8925 -2.09311 43.0116 30.8925 -2.09311
532 1 43.9372 32.4076 -0.311301 43.9372 32.4076 -0.311301
533 2 45.7899 32.255 1.3651 45.7899 32.255 1.3651
534 2 45.8618 32.4525 -1.84921 45.8618 32.4525 -1.84921
535 1 46.7436 30.7394 -0.324471 46.7436 30.7394 -0.324471
536 2 48.3643 30.6819 1.5614 48.3643 30.6819 1.5614
537 2 48.7846 30.3994 -1.7161 48.7846 30.3994 -1.7161
538 1 49.5139 32.2978 -0.174928 49.5139 32.2978 -0.174928
539 2 51.4366 32.3839 1.43193 51.4366 32.3839 1.43193