ITEM: TIMESTEP
71200
ITEM: NUMBER OF ATOMS
810
ITEM: BOX BOUNDS pp pp pp
8.1348900828559645e-01 5.2204115991714851e+01
8.1750082940885593e-01 5.0198714170590634e+01
-1.0000000000000000e+01 1.0000000000000000e+01
ITEM: ATOMS id type x y z xu yu zu
1 1 1.06192 1.02007 -0.968752 1.06192 1.02007 -0.968752
2 2 3.06427 0.892822 0.75571 3.06427 0.892822 0.75571
3 2 3.04127 1.02553 -2.55524 3.04127 1.02553 -2.55524
4 1 3.9971 2.52945 -0.862141 3.9971 2.52945 -0.862141
5 2 5.84308 2.52787 0.862932 5.84308 2.52787 0.862932
6 2 5.80218 2.68476 -2.46633 5.80218 2.68476 -2.46633
7 1 6.81899 1.01918 -0.897761 6.81899 1.01918 -0.897761
8 2 8.76026 0.962326 0.7864 8.76026 0.962326 0.7864
9 2 8.85547 0.99228 -2.46143 8.85547 0.99228 -2.46143
10 1 9.65216 2.71689 -0.749993 9.65216 2.71689 -0.749993
11 2 11.3592 2.73313 1.17447 11.3592 2.73313 1.17447
12 2 11.6455 2.59502 -2.17608 11.6455 2.59502 -2.17608
13 1 12.47 0.938073 -0.398595 12.47 0.938073 -0.398595
14 2 14.2184 0.896473 1.44587 14.2184 0.896473 1.44587
15 2 14.4546 0.949819 -1.84383 14.4546 0.949819 -1.84383
16 1 15.2293 2.68727 -0.139355 15.2293 2.68727 -0.139355
17 2 16.9902 2.82546 1.54839 16.9902 2.82546 1.54839
18 2 17.2918 2.59777 -1.76614 17.2918 2.59777 -1.76614
19 1 18.146 1.05578 0.0417528 18.146 1.05578 0.0417528
20 2 19.884 1.28197 1.74294 19.884 1.28197 1.74294
21 2 20.1513 0.804827 -1.43391 20.1513 0.804827 -1.43391
22 1 20.9733 2.64203 -0.0448699 20.9733 2.64203 -0.0448699
23 2 22.8684 2.88123 1.5356 22.8684 2.88123 1.5356
24 2 22.9538 2.48738 -1.68804 22.9538 2.48738 -1.68804
25 1 23.8608 1.05343 0.104908 23.8608 1.05343 0.104908
26 2 25.6691 1.36643 1.74306 25.6691 1.36643 1.74306
27 2 25.8945 0.815074 -1.51525 25.8945 0.815074 -1.51525
28 1 26.6625 2.70389 -0.169296 26.6625 2.70389 -0.169296
29 2 28.4092 2.8695 1.53198 28.4092 2.8695 1.53198
30 2 28.6887 2.47129 -1.75895 28.6887 2.47129 -1.75895
31 1 29.5599 1.01627 0.180478 29.5599 1.01627 0.180478
32 2 31.4447 1.10106 1.70407 31.4447 1.10106 1.70407
33 2 31.3193 0.962045 -1.61403 31.3193 0.962045 -1.61403
34 1 32.3371 2.66958 -0.117193 32.3371 2.66958 -0.117193
35 2 34.2816 2.63537 1.48647 34.2816 2.63537 1.48647
36 2 34.1309 2.61248 -1.84234 34.1309 2.61248 -1.84234
37 1 35.2237 1.04315 -0.168658 35.2237 1.04315 -0.168658
38 2 37.1232 1.15586 1.38803 37.1232 1.15586 1.38803
39 2 37.1577 0.877427 -1.872 37.1577 0.877427 -1.872
40 1 38.0974 2.71477 -0.342653 38.0974 2.71477 -0.342653
41 2 40.0333 2.92562 1.33191 40.0333 2.92562 1.33191
42 2 39.9703 2.54725 -1.93653 39.9703 2.54725 -1.93653
43 1 40.9594 1.15538 -0.110379 40.9594 1.15538 -0.110379
44 2 42.9459 1.05306 1.35454 42.9459 1.05306 1.35454
45 2 42.7756 50.4374 -1.83258 42.7756 1.05623 -1.83258
46 1 43.8727 2.66308 -0.29307 43.8727 2.66308 -0.29307
47 2 45.886 2.79216 1.08765 45.886 2.79216 1.08765
48 2 45.4884 2.76351 -2.13462 45.4884 2.76351 -2.13462
49 1 46.7182 1.12379 -0.674252 46.7182 1.12379 -0.674252
50 2 48.8857 0.944381 0.734795 48.8857 0.944381 0.734795
51 2 48.5272 0.983145 -2.49524 48.5272 0.983145 -2.49524
52 1 49.6106 2.63363 -0.921227 49.6106 2.63363 -0.921227
53 2 51.614 2.71439 0.628799 51.614 2.71439 0.628799
54 2 51.4068 2.54901 -2.60476 51.4068 2.54901 -2.60476
55 1 1.03881 4.26321 -1.17619 1.03881 4.26321 -1.17619
56 2 2.70348 4.22315 0.662103 2.70348 4.22315 0.662103
57 2 3.12834 4.20749 -2.5919 3.12834 4.20749 -2.5919
58 1 3.85853 5.90419 -0.866141 3.85853 5.90419 -0.866141
59 2 5.58746 5.85534 0.928231 5.58746 5.85534 0.928231
60 2 5.8581 6.0273 -2.32847 5.8581 6.0273 -2.32847
61 1 6.67693 4.23384 -0.72198 6.67693 4.23384 -0.72198
62 2 8.60128 4.14767 0.88478 8.60128 4.14767 0.88478
63 2 8.54841 4.32915 -2.36092 8.54841 4.32915 -2.36092
64 1 9.41748 5.92821 -0.567132 9.41748 5.92821 -0.567132
65 2 11.3699 5.97477 1.13384 11.3699 5.97477 1.13384
66 2 11.3285 5.89412 -2.15597 11.3285 5.89412 -2.15597
67 1 12.4518 4.30514 -0.505469 12.4518 4.30514 -0.505469
68 2 14.2046 4.51999 1.22263 14.2046 4.51999 1.22263
69 2 14.4372 4.0997 -2.01405 14.4372 4.0997 -2.01405
70 1 15.2004 5.93825 -0.565362 15.2004 5.93825 -0.565362
71 2 17.0604 6.07523 1.1583 17.0604 6.07523 1.1583
72 2 17.1863 5.61124 -2.17039 17.1863 5.61124 -2.17039
73 1 18.0928 4.32873 -0.201871 18.0928 4.32873 -0.201871
74 2 20.0689 4.37204 1.51817 20.0689 4.37204 1.51817
75 2 20.1085 4.19921 -1.71371 20.1085 4.19921 -1.71371
76 1 20.9983 5.97476 -0.179978 20.9983 5.97476 -0.179978
77 2 23.1271 6.1307 1.30197 23.1271 6.1307 1.30197
78 2 22.8464 5.87458 -1.78325 22.8464 5.87458 -1.78325
79 1 23.7982 4.38883 -0.272721 23.7982 4.38883 -0.272721
80 2 25.6979 4.4021 1.3574 25.6979 4.4021 1.3574
81 2 25.6172 4.26872 -1.93414 25.6172 4.26872 -1.93414
82 1 26.7033 5.9014 -0.380101 26.7033 5.9014 -0.380101
83 2 28.5253 5.98548 1.23578 28.5253 5.98548 1.23578
84 2 28.6489 5.80593 -2.05032 28.6489 5.80593 -2.05032
85 1 29.4869 4.34857 -0.287091 29.4869 4.34857 -0.287091
86 2 31.2861 4.41284 1.39585 31.2861 4.41284 1.39585
87 2 31.3485 4.21547 -1.8635 31.3485 4.21547 -1.8635
88 1 32.4184 5.91704 -0.293353 32.4184 5.91704 -0.293353
89 2 34.286 6.19055 1.19723 34.286 6.19055 1.19723
90 2 34.1737 5.73822 -1.9511 34.1737 5.73822 -1.9511
91 1 35.1563 4.28653 -0.212895 35.1563 4.28653 -0.212895
92 2 37.1714 4.38133 1.26713 37.1714 4.38133 1.26713
93 2 37.0136 4.21321 -1.92789 37.0136 4.21321 -1.92789
94 1 38.0841 5.9579 -0.478479 38.0841 5.9579 -0.478479
95 2 39.9818 6.07873 0.990154 39.9818 6.07873 0.990154
96 2 39.7701 5.80084 -2.29774 39.7701 5.80084 -2.29774
97 1 41.0118 4.34214 -0.499179 41.0118 4.34214 -0.499179
98 2 42.907 4.521 1.15189 42.907 4.521 1.15189
99 2 42.8303 4.14074 -2.02279 42.8303 4.14074 -2.02279
100 1 43.7456 6.09367 -0.6131 43.7456 6.09367 -0.6131
101 2 45.7134 6.19359 0.912966 45.7134 6.19359 0.912966
102 2 45.6269 5.83798 -2.36577 45.6269 5.83798 -2.36577
103 1 46.6706 4.39525 -0.635753 46.6706 4.39525 -0.635753
104 2 48.8523 4.47915 0.684886 48.8523 4.47915 0.684886
105 2 48.3699 4.24316 -2.5199 48.3699 4.24316 -2.5199
106 1 49.5044 6.01594 -1.16591 49.5044 6.01594 -1.16591
107 2 51.3593 5.91917 0.484068 51.3593 5.91917 0.484068
108 2 51.3917 6.07716 -2.77427 51.3917 6.07716 -2.77427
109 1 0.946105 7.5716 -1.07484 0.946105 7.5716 -1.07484
110 2 2.77217 7.51763 0.757043 2.77217 7.51763 0.757043
111 2 2.96417 7.74691 -2.46115 2.96417 7.74691 -2.46115
112 1 3.89036 9.28674 -0.675418 3.89036 9.28674 -0.675418
113 2 5.54926 9.07394 1.07578 5.54926 9.07394 1.07578
114 2 5.84237 9.28964 -2.24118 5.84237 9.28964 -2.24118
115 1 6.68812 7.54936 -0.604794 6.68812 7.54936 -0.604794
116 2 8.43222 7.56366 1.12546 8.43222 7.56366 1.12546
117 2 8.6259 7.54715 -2.1937 8.6259 7.54715 -2.1937
118 1 9.57133 9.242 -0.468883 9.57133 9.242 -0.468883
119 2 11.4593 9.12378 1.19356 11.4593 9.12378 1.19356
120 2 11.292 9.26055 -2.17379 11.292 9.26055 -2.17379
121 1 12.3601 7.57443 -0.573936 12.3601 7.57443 -0.573936
122 2 14.2317 7.60179 1.01312 14.2317 7.60179 1.01312
123 2 14.0825 7.45943 -2.26203 14.0825 7.45943 -2.26203
124 1 15.2477 9.13452 -0.703887 15.2477 9.13452 -0.703887
125 2 17.0724 9.25052 0.893179 17.0724 9.25052 0.893179
126 2 17.1647 9.16256 -2.33773 17.1647 9.16256 -2.33773
127 1 18.0405 7.50283 -0.68246 18.0405 7.50283 -0.68246
128 2 19.8963 7.91575 0.99506 19.8963 7.91575 0.99506
129 2 20.1777 7.32403 -2.06107 20.1777 7.32403 -2.06107
130 1 20.9183 9.27424 -0.793433 20.9183 9.27424 -0.793433
131 2 22.609 9.28201 1.09005 22.609 9.28201 1.09005
132 2 23.0746 9.28278 -2.19765 23.0746 9.28278 -2.19765
133 1 23.8378 7.66643 -0.469084 23.8378 7.66643 -0.469084
134 2 25.8868 7.64639 1.14369 25.8868 7.64639 1.14369
135 2 25.7072 7.49558 -2.15211 25.7072 7.49558 -2.15211
136 1 26.7582 9.24643 -0.585617 26.7582 9.24643 -0.585617
137 2 28.5776 9.24629 1.08983 28.5776 9.24629 1.08983
138 2 28.7876 9.26164 -2.14448 28.7876 9.26164 -2.14448
139 1 29.6019 7.57329 -0.52119 29.6019 7.57329 -0.52119
140 2 31.3346 7.59506 1.25496 31.3346 7.59506 1.25496
141 2 31.4734 7.51681 -2.09181 31.4734 7.51681 -2.09181
142 1 32.4147 9.19603 -0.337323 32.4147 9.19603 -0.337323
143 2 34.5106 9.3458 1.15243 34.5106 9.3458 1.15243
144 2 34.2949 9.35241 -2.14434 34.2949 9.35241 -2.14434
145 1 35.2472 7.57239 -0.58077 35.2472 7.57239 -0.58077
146 2 37.1404 7.76153 1.00198 37.1404 7.76153 1.00198
147 2 37.087 7.57527 -2.16795 37.087 7.57527 -2.16795
148 1 38.064 9.30328 -0.743407 38.064 9.30328 -0.743407
149 2 40.1269 9.25999 0.729936 40.1269 9.25999 0.729936
150 2 39.9754 9.24094 -2.44654 39.9754 9.24094 -2.44654
151 1 40.9069 7.55958 -0.985705 40.9069 7.55958 -0.985705
152 2 42.6892 7.86234 0.810605 42.6892 7.86234 0.810605
153 2 42.9003 7.51015 -2.37136 42.9003 7.51015 -2.37136
154 1 43.761 9.30728 -0.846226 43.761 9.30728 -0.846226
155 2 45.6972 9.14821 0.673183 45.6972 9.14821 0.673183
156 2 45.6295 9.47178 -2.58413 45.6295 9.47178 -2.58413
157 1 46.6058 7.62585 -1.01892 46.6058 7.62585 -1.01892
158 2 48.5804 7.56501 0.60327 48.5804 7.56501 0.60327
159 2 48.5591 7.72147 -2.62796 48.5591 7.72147 -2.62796
160 1 49.4364 9.21843 -0.918007 49.4364 9.21843 -0.918007
161 2 51.3165 9.08042 0.758746 51.3165 9.08042 0.758746
162 2 51.4196 9.32462 -2.49519 51.4196 9.32462 -2.49519
163 1 0.938815 10.8205 -0.762255 0.938815 10.8205 -0.762255
164 2 2.68805 10.8811 0.981083 2.68805 10.8811 0.981083
165 2 2.97447 11.0535 -2.24962 2.97447 11.0535 -2.24962
166 1 3.86657 12.5302 -0.514249 3.86657 12.5302 -0.514249
167 2 5.7094 12.4124 1.27687 5.7094 12.4124 1.27687
168 2 5.88329 12.698 -1.98911 5.88329 12.698 -1.98911
169 1 6.82296 10.8545 -0.42696 6.82296 10.8545 -0.42696
170 2 8.72659 10.8869 1.15285 8.72659 10.8869 1.15285
171 2 8.64669 10.861 -2.11684 8.64669 10.861 -2.11684
172 1 9.62383 12.5221 -0.48574 9.62383 12.5221 -0.48574
173 2 11.5066 12.5144 1.13637 11.5066 12.5144 1.13637
174 2 11.6217 12.553 -2.13809 11.6217 12.553 -2.13809
175 1 12.4738 10.8687 -0.618995 12.4738 10.8687 -0.618995
176 2 14.327 10.6492 0.994878 14.327 10.6492 0.994878
177 2 14.3231 10.997 -2.25161 14.3231 10.997 -2.25161
178 1 15.3035 12.5003 -0.490265 15.3035 12.5003 -0.490265
179 2 17.405 12.404 0.979968 17.405 12.404 0.979968
180 2 16.9941 12.5635 -2.35578 16.9941 12.5635 -2.35578
181 1 18.1011 10.8626 -0.762082 18.1011 10.8626 -0.762082
182 2 19.9608 10.7895 0.923989 19.9608 10.7895 0.923989
183 2 20.0616 11.0605 -2.27237 20.0616 11.0605 -2.27237
184 1 21.0059 12.5345 -0.499641 21.0059 12.5345 -0.499641
185 2 22.9384 12.5187 1.15647 22.9384 12.5187 1.15647
186 2 22.8593 12.4036 -2.13613 22.8593 12.4036 -2.13613
187 1 23.7944 10.8704 -0.421105 23.7944 10.8704 -0.421105
188 2 25.7751 10.7407 1.10116 25.7751 10.7407 1.10116
189 2 25.7988 10.9654 -2.1025 25.7988 10.9654 -2.1025
190 1 26.7024 12.5103 -0.360477 26.7024 12.5103 -0.360477
191 2 28.5788 12.5877 1.18875 28.5788 12.5877 1.18875
192 2 28.4879 12.4178 -2.11143 28.4879 12.4178 -2.11143
193 1 29.596 10.9205 -0.450127 29.596 10.9205 -0.450127
194 2 31.3908 10.8607 1.22908 31.3908 10.8607 1.22908
195 2 31.478 10.773 -2.01541 31.478 10.773 -2.01541
196 1 32.5373 12.4783 -0.421513 32.5373 12.4783 -0.421513
197 2 34.5294 12.4382 1.11844 34.5294 12.4382 1.11844
198 2 34.4271 12.6401 -2.17723 34.4271 12.6401 -2.17723
199 1 35.3731 10.8547 -0.57528 35.3731 10.8547 -0.57528
200 2 37.3216 10.9436 0.986727 37.3216 10.9436 0.986727
201 2 37.1394 10.9008 -2.28366 37.1394 10.9008 -2.28366
202 1 38.1329 12.6058 -0.703869 38.1329 12.6058 -0.703869
203 2 40.1279 12.6599 0.735512 40.1279 12.6599 0.735512
204 2 39.8854 12.5006 -2.53355 39.8854 12.5006 -2.53355
205 1 40.9526 10.9687 -0.945644 40.9526 10.9687 -0.945644
206 2 42.7648 10.9805 0.762824 42.7648 10.9805 0.762824
207 2 42.8209 10.9329 -2.50041 42.8209 10.9329 -2.50041
208 1 43.7044 12.559 -0.928724 43.7044 12.559 -0.928724
209 2 45.5863 12.5324 0.784911 45.5863 12.5324 0.784911
210 2 45.6643 12.6854 -2.44099 45.6643 12.6854 -2.44099
211 1 46.5934 10.8925 -0.852481 46.5934 10.8925 -0.852481
212 2 48.4951 10.8381 0.683735 48.4951 10.8381 0.683735
213 2 48.4552 10.8845 -2.59125 48.4552 10.8845 -2.59125
214 1 49.4059 12.4421 -0.975456 49.4059 12.4421 -0.975456
215 2 51.1886 12.5023 0.822758 51.1886 12.5023 0.822758
216 2 51.5329 12.4912 -2.42211 51.5329 12.4912 -2.42211
217 1 0.933508 14.1305 -0.837369 0.933508 14.1305 -0.837369
218 2 2.65951 13.9891 1.05149 2.65951 13.9891 1.05149
219 2 3.15414 14.2955 -2.18856 3.15414 14.2955 -2.18856
220 1 3.86002 15.7235 -0.275713 3.86002 15.7235 -0.275713
221 2 5.71626 15.8669 1.41607 5.71626 15.8669 1.41607
222 2 5.80195 15.6983 -1.8901 5.80195 15.6983 -1.8901
223 1 6.74197 14.2083 -0.163612 6.74197 14.2083 -0.163612
224 2 8.89528 14.1195 1.29637 8.89528 14.1195 1.29637
225 2 8.59206 14.3309 -1.97912 8.59206 14.3309 -1.97912
226 1 9.63741 15.7889 -0.397097 9.63741 15.7889 -0.397097
227 2 11.5315 15.9551 1.25883 11.5315 15.9551 1.25883
228 2 11.5928 15.8167 -1.99433 11.5928 15.8167 -1.99433
229 1 12.4686 14.197 -0.353254 12.4686 14.197 -0.353254
230 2 14.4769 14.1371 1.16078 14.4769 14.1371 1.16078
231 2 14.2996 14.1395 -2.12462 14.2996 14.1395 -2.12462
232 1 15.2852 15.819 -0.634804 15.2852 15.819 -0.634804
233 2 17.0961 15.6555 1.06307 17.0961 15.6555 1.06307
234 2 17.195 15.9817 -2.25508 17.195 15.9817 -2.25508
235 1 18.1264 14.13 -0.705337 18.1264 14.13 -0.705337
236 2 19.8968 14.2234 1.06535 19.8968 14.2234 1.06535
237 2 20.0746 14.1343 -2.25414 20.0746 14.1343 -2.25414
238 1 20.9353 15.7828 -0.539251 20.9353 15.7828 -0.539251
239 2 22.9388 15.6439 1.18363 22.9388 15.6439 1.18363
240 2 23.0972 15.8913 -2.09722 23.0972 15.8913 -2.09722
241 1 23.8675 14.069 -0.631851 23.8675 14.069 -0.631851
242 2 25.6854 14.2672 1.09608 25.6854 14.2672 1.09608
243 2 25.9517 13.9654 -2.14929 25.9517 13.9654 -2.14929
244 1 26.7483 15.7519 -0.656729 26.7483 15.7519 -0.656729
245 2 28.5474 15.7998 1.05475 28.5474 15.7998 1.05475
246 2 28.6592 15.8478 -2.27912 28.6592 15.8478 -2.27912
247 1 29.5482 14.1939 -0.560222 29.5482 14.1939 -0.560222
248 2 31.5261 14.2117 1.15164 31.5261 14.2117 1.15164
249 2 31.4881 14.0692 -2.17319 31.4881 14.0692 -2.17319
250 1 32.4161 15.8759 -0.597399 32.4161 15.8759 -0.597399
251 2 34.3373 15.9294 1.04727 34.3373 15.9294 1.04727
252 2 34.3259 15.7707 -2.29246 34.3259 15.7707 -2.29246
253 1 35.2985 14.2406 -0.450787 35.2985 14.2406 -0.450787
254 2 37.4761 14.3873 0.865548 37.4761 14.3873 0.865548
255 2 37.0609 14.208 -2.31851 37.0609 14.208 -2.31851
256 1 38.1665 15.9659 -0.965124 38.1665 15.9659 -0.965124
257 2 40.03 15.923 0.690358 40.03 15.923 0.690358
258 2 40.0594 15.9394 -2.58227 40.0594 15.9394 -2.58227
259 1 40.9501 14.2568 -1.0157 40.9501 14.2568 -1.0157
260 2 42.7759 14.1809 0.727445 42.7759 14.1809 0.727445
261 2 42.9058 14.1662 -2.58529 42.9058 14.1662 -2.58529
262 1 43.7558 15.8655 -0.919032 43.7558 15.8655 -0.919032
263 2 45.6817 15.8116 0.757094 45.6817 15.8116 0.757094
264 2 45.7749 15.8043 -2.46055 45.7749 15.8043 -2.46055
265 1 46.6551 14.2421 -0.760909 46.6551 14.2421 -0.760909
266 2 48.5699 13.9659 0.886018 48.5699 13.9659 0.886018
267 2 48.5977 14.3404 -2.31292 48.5977 14.3404 -2.31292
268 1 49.52 15.7774 -0.580126 49.52 15.7774 -0.580126
269 2 51.3866 15.5421 0.962408 51.3866 15.5421 0.962408
270 2 51.3814 16.0706 -2.28065 51.3814 16.0706 -2.28065
271 1 0.99426 17.3991 -0.462411 0.99426 17.3991 -0.462411
272 2 2.74879 17.2681 1.32987 2.74879 17.2681 1.32987
273 2 3.14935 17.4888 -1.90865 3.14935 17.4888 -1.90865
274 1 3.91969 19.0781 -0.0303543 3.91969 19.0781 -0.0303543
275 2 5.84451 18.8912 1.54279 5.84451 18.8912 1.54279
276 2 5.7027 19.1806 -1.72753 5.7027 19.1806 -1.72753
277 1 6.79623 17.4586 -0.240323 6.79623 17.4586 -0.240323
278 2 8.68014 17.1913 1.44023 8.68014 17.1913 1.44023
279 2 8.7388 17.5891 -1.93764 8.7388 17.5891 -1.93764
280 1 9.54382 19.0262 -0.138134 9.54382 19.0262 -0.138134
281 2 11.5437 18.9668 1.39629 11.5437 18.9668 1.39629
282 2 11.3971 19.1567 -1.83905 11.3971 19.1567 -1.83905
283 1 12.4728 17.4659 -0.406987 12.4728 17.4659 -0.406987
284 2 14.4501 17.3954 1.10379 14.4501 17.3954 1.10379
285 2 14.2104 17.6341 -2.2326 14.2104 17.6341 -2.2326
286 1 15.2529 19.0918 -0.456582 15.2529 19.0918 -0.456582
287 2 17.1874 19.1742 1.25151 17.1874 19.1742 1.25151
288 2 17.2062 19.1333 -2.06574 17.2062 19.1333 -2.06574
289 1 18.184 17.4679 -0.369996 18.184 17.4679 -0.369996
290 2 20.2508 17.3612 1.2033 20.2508 17.3612 1.2033
291 2 19.956 17.398 -2.14546 19.956 17.398 -2.14546
292 1 21.0209 19.1248 -0.480252 21.0209 19.1248 -0.480252
293 2 22.825 19.107 1.25871 22.825 19.107 1.25871
294 2 22.9924 19.0243 -2.05614 22.9924 19.0243 -2.05614
295 1 23.8708 17.4598 -0.329799 23.8708 17.4598 -0.329799
296 2 25.8595 17.1981 1.27928 25.8595 17.1981 1.27928
297 2 25.7158 17.5952 -2.07066 25.7158 17.5952 -2.07066
298 1 26.7296 19.0257 -0.266099 26.7296 19.0257 -0.266099
299 2 28.6638 18.8479 1.30461 28.6638 18.8479 1.30461
300 2 28.5146 19.3292 -2.05009 28.5146 19.3292 -2.05009
301 1 29.5246 17.4673 -0.552604 29.5246 17.4673 -0.552604
302 2 31.3672 17.431 1.0366 31.3672 17.431 1.0366
303 2 31.4499 17.4312 -2.21109 31.4499 17.4312 -2.21109
304 1 32.3692 19.0908 -0.525055 32.3692 19.0908 -0.525055
305 2 34.3901 19.175 0.987359 34.3901 19.175 0.987359
306 2 34.3415 19.1564 -2.26532 34.3415 19.1564 -2.26532
307 1 35.3285 17.5536 -0.674562 35.3285 17.5536 -0.674562
308 2 37.3165 17.4438 0.864321 37.3165 17.4438 0.864321
309 2 37.082 17.7587 -2.48916 37.082 17.7587 -2.48916
310 1 38.1304 19.1789 -0.731136 38.1304 19.1789 -0.731136
311 2 40.0991 19.2523 0.822525 40.0991 19.2523 0.822525
312 2 40.0096 19.1608 -2.50507 40.0096 19.1608 -2.50507
313 1 41.0004 17.5869 -0.876701 41.0004 17.5869 -0.876701
314 2 42.925 17.5624 0.740473 42.925 17.5624 0.740473
315 2 42.7785 17.4691 -2.59838 42.7785 17.4691 -2.59838
316 1 43.8916 19.1339 -1.0593 43.8916 19.1339 -1.0593
317 2 45.6768 19.1262 0.688383 45.6768 19.1262 0.688383
318 2 45.9721 19.0728 -2.55474 45.9721 19.0728 -2.55474
319 1 46.7185 17.4995 -0.861206 46.7185 17.4995 -0.861206
320 2 48.4014 17.4624 0.917554 48.4014 17.4624 0.917554
321 2 48.6308 17.4526 -2.31423 48.6308 17.4526 -2.31423
322 1 49.475 19.0713 -0.576893 49.475 19.0713 -0.576893
323 2 51.2462 18.8273 1.31053 51.2462 18.8273 1.31053
324 2 51.5724 19.2723 -2.00388 51.5724 19.2723 -2.00388
325 1 1.09485 20.6776 -0.0268735 1.09485 20.6776 -0.0268735
326 2 3.03117 20.5645 1.65609 3.03117 20.5645 1.65609
327 2 3.05142 20.7343 -1.67289 3.05142 20.7343 -1.67289
328 1 3.86999 22.3123 0.0486769 3.86999 22.3123 0.0486769
329 2 5.80418 22.3985 1.72625 5.80418 22.3985 1.72625
330 2 5.75371 22.6099 -1.52145 5.75371 22.6099 -1.52145
331 1 6.66242 20.6843 0.0592915 6.66242 20.6843 0.0592915
332 2 8.65866 20.6103 1.64648 8.65866 20.6103 1.64648
333 2 8.59833 20.8925 -1.52556 8.59833 20.8925 -1.52556
334 1 9.54616 22.3618 0.207592 9.54616 22.3618 0.207592
335 2 11.6118 22.2159 1.73818 11.6118 22.2159 1.73818
336 2 11.4884 22.7694 -1.4271 11.4884 22.7694 -1.4271
337 1 12.4255 20.7318 -0.211015 12.4255 20.7318 -0.211015
338 2 14.3079 20.55 1.32662 14.3079 20.55 1.32662
339 2 14.2683 20.8019 -1.94724 14.2683 20.8019 -1.94724
340 1 15.2953 22.3633 -0.171101 15.2953 22.3633 -0.171101
341 2 17.2489 22.25 1.44236 17.2489 22.25 1.44236
342 2 17.2139 22.7408 -1.74128 17.2139 22.7408 -1.74128
343 1 18.1707 20.7843 -0.417668 18.1707 20.7843 -0.417668
344 2 19.9263 20.6534 1.26515 19.9263 20.6534 1.26515
345 2 20.0995 20.914 -1.9482 20.0995 20.914 -1.9482
346 1 20.9807 22.4281 -0.206375 20.9807 22.4281 -0.206375
347 2 22.7498 22.0673 1.5697 22.7498 22.0673 1.5697
348 2 23.1417 22.6879 -1.64951 23.1417 22.6879 -1.64951
349 1 23.8489 20.7626 -0.27085 23.8489 20.7626 -0.27085
350 2 25.6848 20.7025 1.37551 25.6848 20.7025 1.37551
351 2 25.7055 20.8155 -1.86269 25.7055 20.8155 -1.86269
352 1 26.7047 22.4586 -0.17068 26.7047 22.4586 -0.17068
353 2 28.5051 22.2429 1.52282 28.5051 22.2429 1.52282
354 2 28.6386 22.6049 -1.73168 28.6386 22.6049 -1.73168
355 1 29.533 20.7179 -0.139744 29.533 20.7179 -0.139744
356 2 31.6224 20.6586 1.32067 31.6224 20.6586 1.32067
357 2 31.3553 20.8314 -1.83638 31.3553 20.8314 -1.83638
358 1 32.4756 22.4093 -0.250624 32.4756 22.4093 -0.250624
359 2 34.4472 22.202 1.24209 34.4472 22.202 1.24209
360 2 34.2738 22.683 -1.96842 34.2738 22.683 -1.96842
361 1 35.2457 20.839 -0.624969 35.2457 20.839 -0.624969
362 2 37.3063 20.7578 0.926795 37.3063 20.7578 0.926795
363 2 37.1113 20.9841 -2.32053 37.1113 20.9841 -2.32053
364 1 38.0971 22.5225 -0.627251 38.0971 22.5225 -0.627251
365 2 40.0612 22.2359 0.942629 40.0612 22.2359 0.942629
366 2 39.9477 22.831 -2.25335 39.9477 22.831 -2.25335
367 1 40.9476 20.8593 -0.939626 40.9476 20.8593 -0.939626
368 2 42.7753 20.7467 0.649446 42.7753 20.7467 0.649446
369 2 42.8676 20.7517 -2.716 42.8676 20.7517 -2.716
370 1 43.7431 22.4977 -0.977748 43.7431 22.4977 -0.977748
371 2 45.466 22.409 0.754311 45.466 22.409 0.754311
372 2 45.7691 22.5133 -2.44448 45.7691 22.5133 -2.44448
373 1 46.6429 20.8603 -0.865986 46.6429 20.8603 -0.865986
374 2 48.3369 20.6517 0.983437 48.3369 20.6517 0.983437
375 2 48.7549 20.775 -2.21013 48.7549 20.775 -2.21013
376 1 49.5975 22.424 -0.330707 49.5975 22.424 -0.330707
377 2 51.4131 22.4408 1.50657 51.4131 22.4408 1.50657
378 2 51.6035 22.3528 -1.76867 51.6035 22.3528 -1.76867
379 1 1.06973 24.0377 -0.0405758 1.06973 24.0377 -0.0405758
380 2 2.84205 24.0006 1.71731 2.84205 24.0006 1.71731
381 2 3.10627 24.0724 -1.54158 3.10627 24.0724 -1.54158
382 1 3.88016 25.7917 0.0956506 3.88016 25.7917 0.0956506
383 2 5.5133 25.7638 1.83964 5.5133 25.7638 1.83964
384 2 5.79521 25.763 -1.43141 5.79521 25.763 -1.43141
385 1 6.62576 24.0969 0.24601 6.62576 24.0969 0.24601
386 2 8.54699 23.8772 1.97015 8.54699 23.8772 1.97015
387 2 8.68901 24.2375 -1.33154 8.68901 24.2375 -1.33154
388 1 9.59468 25.7188 0.496421 9.59468 25.7188 0.496421
389 2 11.4633 25.6263 2.12624 11.4633 25.6263 2.12624
390 2 11.5815 25.9236 -1.21967 11.5815 25.9236 -1.21967
391 1 12.4396 24.0926 0.378765 12.4396 24.0926 0.378765
392 2 14.6239 23.8269 1.79111 14.6239 23.8269 1.79111
393 2 14.2627 24.2596 -1.45794 14.2627 24.2596 -1.45794
394 1 15.3257 25.7192 0.215289 15.3257 25.7192 0.215289
395 2 17.1631 25.5854 1.92003 17.1631 25.5854 1.92003
396 2 17.3177 25.9026 -1.30884 17.3177 25.9026 -1.30884
397 1 18.1973 24.0273 0.117393 18.1973 24.0273 0.117393
398 2 20.188 23.7835 1.71653 20.188 23.7835 1.71653
399 2 19.9664 24.2099 -1.57009 19.9664 24.2099 -1.57009
400 1 21.0825 25.7119 0.230712 21.0825 25.7119 0.230712
401 2 22.8951 25.5922 2.01788 22.8951 25.5922 2.01788
402 2 23.0967 25.7703 -1.19596 23.0967 25.7703 -1.19596
403 1 23.9626 23.9528 0.375533 23.9626 23.9528 0.375533
404 2 25.9698 23.8531 1.85571 25.9698 23.8531 1.85571
405 2 25.699 24.3486 -1.46176 25.699 24.3486 -1.46176
406 1 26.7814 25.6861 0.412584 26.7814 25.6861 0.412584
407 2 28.7443 25.6715 1.89885 28.7443 25.6715 1.89885
408 2 28.482 25.8453 -1.33831 28.482 25.8453 -1.33831
409 1 29.6524 24.0794 0.00731968 29.6524 24.0794 0.00731968
410 2 31.6137 23.8644 1.5603 31.6137 23.8644 1.5603
411 2 31.4304 24.2556 -1.66233 31.4304 24.2556 -1.66233
412 1 32.439 25.8215 0.117186 32.439 25.8215 0.117186
413 2 34.5585 25.704 1.58533 34.5585 25.704 1.58533
414 2 34.12 25.7117 -1.69442 34.12 25.7117 -1.69442
415 1 35.2344 24.0864 -0.123389 35.2344 24.0864 -0.123389
416 2 37.3275 23.7818 1.28668 37.3275 23.7818 1.28668
417 2 36.9712 24.3556 -1.82285 36.9712 24.3556 -1.82285
418 1 38.1545 25.7223 -0.0284776 38.1545 25.7223 -0.0284776
419 2 40.0687 25.5397 1.61388 40.0687 25.5397 1.61388
420 2 40.0813 26.041 -1.60481 40.0813 26.041 -1.60481
421 1 40.9665 24.1488 -0.408324 40.9665 24.1488 -0.408324
422 2 42.9783 23.9179 1.03255 42.9783 23.9179 1.03255
423 2 42.7933 24.3933 -2.27619 42.7933 24.3933 -2.27619
424 1 43.7513 25.8068 -0.381906 43.7513 25.8068 -0.381906
425 2 45.6661 25.4821 1.22878 45.6661 25.4821 1.22878
426 2 45.6878 25.9962 -1.96116 45.6878 25.9962 -1.96116
427 1 46.5298 24.0907 -0.679821 46.5298 24.0907 -0.679821
428 2 48.2307 23.9114 1.16465 48.2307 23.9114 1.16465
429 2 48.7809 24.2435 -1.98083 48.7809 24.2435 -1.98083
430 1 49.5008 25.7225 -0.114224 49.5008 25.7225 -0.114224
431 2 51.3734 25.5696 1.67693 51.3734 25.5696 1.67693
432 2 51.6325 25.7785 -1.55198 51.6325 25.7785 -1.55198
433 1 1.04104 27.3745 0.249455 1.04104 27.3745 0.249455
434 2 2.98248 27.4097 1.80539 2.98248 27.4097 1.80539
435 2 2.89747 27.5756 -1.36013 2.89747 27.5756 -1.36013
436 1 3.92743 29.0909 0.364516 3.92743 29.0909 0.364516
437 2 5.90116 29.1299 1.8421 5.90116 29.1299 1.8421
438 2 5.75849 28.9644 -1.40772 5.75849 28.9644 -1.40772
439 1 6.73422 27.3865 0.302139 6.73422 27.3865 0.302139
440 2 8.61721 27.3864 2.02707 8.61721 27.3864 2.02707
441 2 8.65236 27.2273 -1.2176 8.65236 27.2273 -1.2176
442 1 9.50995 28.9729 0.354354 9.50995 28.9729 0.354354
443 2 11.2613 28.9438 2.18889 11.2613 28.9438 2.18889
444 2 11.5878 29.056 -1.06587 11.5878 29.056 -1.06587
445 1 12.4462 27.3763 0.610802 12.4462 27.3763 0.610802
446 2 14.4235 27.1573 2.17256 14.4235 27.1573 2.17256
447 2 14.2581 27.6506 -1.1262 14.2581 27.6506 -1.1262
448 1 15.3636 28.9113 0.681004 15.3636 28.9113 0.681004
449 2 17.2016 28.8391 2.37122 17.2016 28.8391 2.37122
450 2 17.3014 29.1884 -0.780942 17.3014 29.1884 -0.780942
451 1 18.2768 27.4076 0.526415 18.2768 27.4076 0.526415
452 2 20.1898 27.1729 2.11329 20.1898 27.1729 2.11329
453 2 20.0545 27.4822 -1.15955 20.0545 27.4822 -1.15955
454 1 21.0254 29.0328 0.658111 21.0254 29.0328 0.658111
455 2 23.0384 28.7871 2.21781 23.0384 28.7871 2.21781
456 2 22.9607 29.032 -0.949575 22.9607 29.032 -0.949575
457 1 23.9136 27.2469 0.580345 23.9136 27.2469 0.580345
458 2 25.8988 27.1874 2.21747 25.8988 27.1874 2.21747
459 2 25.7788 27.4889 -0.996498 25.7788 27.4889 -0.996498
460 1 26.6942 29.1515 0.701072 26.6942 29.1515 0.701072
461 2 28.7482 28.9105 2.16449 28.7482 28.9105 2.16449
462 2 28.4404 29.1305 -1.17221 28.4404 29.1305 -1.17221
463 1 29.5432 27.3996 0.270288 29.5432 27.3996 0.270288
464 2 31.5673 27.435 1.79833 31.5673 27.435 1.79833
465 2 31.2794 27.3487 -1.50116 31.2794 27.3487 -1.50116
466 1 32.4094 28.964 0.0700847 32.4094 28.964 0.0700847
467 2 34.416 28.8769 1.56331 34.416 28.8769 1.56331
468 2 34.1492 29.0149 -1.70716 34.1492 29.0149 -1.70716
469 1 35.3189 27.3507 -0.153229 35.3189 27.3507 -0.153229
470 2 37.0694 27.1627 1.55799 37.0694 27.1627 1.55799
471 2 37.3255 27.6054 -1.5262 37.3255 27.6054 -1.5262
472 1 38.1535 28.9915 0.219719 38.1535 28.9915 0.219719
473 2 39.9785 29.0473 1.77534 39.9785 29.0473 1.77534
474 2 40.0501 29.0111 -1.37303 40.0501 29.0111 -1.37303
475 1 40.9726 27.3783 0.28067 40.9726 27.3783 0.28067
476 2 43.1991 27.2584 1.55183 43.1991 27.2584 1.55183
477 2 42.6982 27.7169 -1.65324 42.6982 27.7169 -1.65324
478 1 43.866 29.0882 -0.0212792 43.866 29.0882 -0.0212792
479 2 45.746 29.0134 1.63875 45.746 29.0134 1.63875
480 2 45.7127 29.161 -1.68534 45.7127 29.161 -1.68534
481 1 46.6161 27.3989 -0.129834 46.6161 27.3989 -0.129834
482 2 48.4063 27.2322 1.61858 48.4063 27.2322 1.61858
483 2 48.6007 27.4556 -1.61391 48.6007 27.4556 -1.61391
484 1 49.5369 29.0082 0.150927 49.5369 29.0082 0.150927
485 2 51.417 29.1605 1.82778 51.417 29.1605 1.82778
486 2 51.3994 29.0257 -1.51385 51.3994 29.0257 -1.51385
487 1 1.01318 30.6727 0.126328 1.01318 30.6727 0.126328
488 2 2.82889 30.7622 1.87637 2.82889 30.7622 1.87637
489 2 2.97289 30.6519 -1.29231 2.97289 30.6519 -1.29231
490 1 3.88353 32.4531 0.227652 3.88353 32.4531 0.227652
491 2 5.93181 32.413 1.85746 5.93181 32.413 1.85746
492 2 5.835 32.3868 -1.52701 5.835 32.3868 -1.52701
493 1 6.73922 30.7313 0.0711181 6.73922 30.7313 0.0711181
494 2 8.59225 30.6287 1.92069 8.59225 30.6287 1.92069
495 2 8.7161 30.5196 -1.35411 8.7161 30.5196 -1.35411
496 1 9.64902 32.2706 0.381125 9.64902 32.2706 0.381125
497 2 11.4476 32.4292 2.07243 11.4476 32.4292 2.07243
498 2 11.6191 32.1305 -1.13528 11.6191 32.1305 -1.13528
499 1 12.4676 30.6387 0.642192 12.4676 30.6387 0.642192
500 2 14.3072 30.5603 2.3713 14.3072 30.5603 2.3713
501 2 14.5188 30.7015 -0.964152 14.5188 30.7015 -0.964152
502 1 15.3726 32.2272 0.821233 15.3726 32.2272 0.821233
503 2 17.2105 32.506 2.59011 17.2105 32.506 2.59011
504 2 17.3463 32.1962 -0.866732 17.3463 32.1962 -0.866732
505 1 18.2236 30.7134 1.0879 18.2236 30.7134 1.0879
506 2 20.3116 30.6976 2.53186 20.3116 30.6976 2.53186
507 2 19.9532 30.7706 -0.739745 19.9532 30.7706 -0.739745
508 1 21.0299 32.3539 0.868534 21.0299 32.3539 0.868534
509 2 23.039 32.4041 2.42037 23.039 32.4041 2.42037
510 2 22.8876 32.2881 -0.841912 22.8876 32.2881 -0.841912
511 1 23.8182 30.5849 0.75307 23.8182 30.5849 0.75307
512 2 25.7625 30.7865 2.35693 25.7625 30.7865 2.35693
513 2 25.6481 30.6663 -0.994937 25.6481 30.6663 -0.994937
514 1 26.7364 32.3231 0.594857 26.7364 32.3231 0.594857
515 2 28.6328 32.1904 2.24251 28.6328 32.1904 2.24251
516 2 28.6785 32.4606 -1.07136 28.6785 32.4606 -1.07136
517 1 29.5516 30.6354 0.549495 29.5516 30.6354 0.549495
518 2 31.5736 30.5431 2.0569 31.5736 30.5431 2.0569
519 2 31.3058 30.8561 -1.27039 31.3058 30.8561 -1.27039
520 1 32.4674 32.3334 0.378388 32.4674 32.3334 0.378388
521 2 34.5062 32.0215 1.74841 34.5062 32.0215 1.74841
522 2 34.1515 32.3774 -1.45347 34.1515 32.3774 -1.45347
523 1 35.3665 30.5905 -0.173423 35.3665 30.5905 -0.173423
524 2 37.0167 30.6675 1.63633 37.0167 30.6675 1.63633
525 2 37.4671 30.6434 -1.53735 37.4671 30.6434 -1.53735
526 1 38.1932 32.339 0.131881 38.1932 32.339 0.131881
527 2 40.1419 32.4446 1.76603 40.1419 32.4446 1.76603
528 2 40.0875 32.3972 -1.51042 40.0875 32.3972 -1.51042
529 1 40.9687 30.6871 0.122767 40.9687 30.6871 0.122767
530 2 42.9587 30.565 1.65725 42.9587 30.565 1.65725
531 2 42.8766 30.7602 -1.4828 42.8766 30.7602 -1.4828
532 1 43.8112 32.4395 0.114555 43.8112 32.4395 0.114555
533 2 45.7753 32.407 1.66282 45.7753 32.407 1.66282
534 2 45.6671 32.3064 -1.58902 45.6671 32.3064 -1.58902
535 1 46.5986 30.7701 0.0573905 46.5986 30.7701 0.0573905
536 2 48.5199 30.6985 1.63646 48.5199 30.6985 1.63646
537 2 48.5259 30.7048 -1.52794 48.5259 30.7048 -1.52794