ITEM: TIMESTEP
70600
ITEM: NUMBER OF ATOMS
810
ITEM: BOX BOUNDS pp pp pp
8.1120086474110242e-01 5.2206404135259227e+01
8.2186684594723969e-01 5.0194348154052392e+01
-1.0000000000000000e+01 1.0000000000000000e+01
ITEM: ATOMS id type x y z xu yu zu
1 1 1.01358 1.02129 -0.972769 1.01358 1.02129 -0.972769
2 2 2.88268 1.14033 0.599402 2.88268 1.14033 0.599402
3 2 2.99653 50.3137 -2.57341 2.99653 0.9412 -2.57341
4 1 3.89658 2.69388 -0.999054 3.89658 2.69388 -0.999054
5 2 5.55812 2.90051 0.888941 5.55812 2.90051 0.888941
6 2 5.9329 2.71024 -2.47324 5.9329 2.71024 -2.47324
7 1 6.75468 1.13807 -0.525796 6.75468 1.13807 -0.525796
8 2 8.60175 1.3215 1.20276 8.60175 1.3215 1.20276
9 2 8.77664 50.3788 -2.00296 8.77664 1.00634 -2.00296
10 1 9.62428 2.69524 -0.44856 9.62428 2.69524 -0.44856
11 2 11.3747 2.76355 1.31854 11.3747 2.76355 1.31854
12 2 11.6247 2.43912 -1.91058 11.6247 2.43912 -1.91058
13 1 12.4583 0.960008 -0.0731021 12.4583 0.960008 -0.0731021
14 2 14.3013 1.24036 1.55382 14.3013 1.24036 1.55382
15 2 14.4181 1.06577 -1.7176 14.4181 1.06577 -1.7176
16 1 15.3121 2.75997 -0.178842 15.3121 2.75997 -0.178842
17 2 17.1552 2.70161 1.58539 17.1552 2.70161 1.58539
18 2 17.2405 2.73604 -1.71163 17.2405 2.73604 -1.71163
19 1 18.1518 1.09715 0.0100071 18.1518 1.09715 0.0100071
20 2 19.9716 1.28012 1.51365 19.9716 1.28012 1.51365
21 2 20.1231 50.2291 -1.61357 20.1231 0.856667 -1.61357
22 1 20.9731 2.68603 -0.240889 20.9731 2.68603 -0.240889
23 2 22.6536 2.98737 1.48391 22.6536 2.98737 1.48391
24 2 23.0898 2.56953 -1.71524 23.0898 2.56953 -1.71524
25 1 23.8015 1.09346 0.216012 23.8015 1.09346 0.216012
26 2 25.6754 1.29911 1.96957 25.6754 1.29911 1.96957
27 2 25.9907 0.973937 -1.27062 25.9907 0.973937 -1.27062
28 1 26.6975 2.77153 0.214891 26.6975 2.77153 0.214891
29 2 28.7159 3.05707 1.80474 28.7159 3.05707 1.80474
30 2 28.6844 2.59847 -1.46947 28.6844 2.59847 -1.46947
31 1 29.6033 1.09896 0.273489 29.6033 1.09896 0.273489
32 2 31.5588 1.22087 1.72767 31.5588 1.22087 1.72767
33 2 31.3528 0.856408 -1.52404 31.3528 0.856408 -1.52404
34 1 32.5145 2.68065 -0.15139 32.5145 2.68065 -0.15139
35 2 34.3726 2.81353 1.42566 34.3726 2.81353 1.42566
36 2 34.4627 2.46433 -1.79728 34.4627 2.46433 -1.79728
37 1 35.2956 0.967241 -0.0924411 35.2956 0.967241 -0.0924411
38 2 37.2169 1.19961 1.44581 37.2169 1.19961 1.44581
39 2 37.2185 50.1148 -1.663 37.2185 0.74236 -1.663
40 1 38.0972 2.60168 -0.280318 38.0972 2.60168 -0.280318
41 2 40.205 2.80327 1.13494 40.205 2.80327 1.13494
42 2 39.872 2.54861 -2.11512 39.872 2.54861 -2.11512
43 1 41.0085 1.05186 -0.429677 41.0085 1.05186 -0.429677
44 2 43.0478 1.26278 0.924181 43.0478 1.26278 0.924181
45 2 42.8127 0.847737 -2.2605 42.8127 0.847737 -2.2605
46 1 43.8291 2.60851 -0.975857 43.8291 2.60851 -0.975857
47 2 45.6761 2.61507 0.792567 45.6761 2.61507 0.792567
48 2 45.8734 2.63052 -2.50263 45.8734 2.63052 -2.50263
49 1 46.7516 1.02587 -0.803658 46.7516 1.02587 -0.803658
50 2 48.7749 1.01096 0.899591 48.7749 1.01096 0.899591
51 2 48.6527 0.980394 -2.39765 48.6527 0.980394 -2.39765
52 1 49.5761 2.57195 -0.841822 49.5761 2.57195 -0.841822
53 2 51.6009 2.66908 0.694062 51.6009 2.66908 0.694062
54 2 51.4431 2.71523 -2.60316 51.4431 2.71523 -2.60316
55 1 0.966102 4.36254 -1.0896 0.966102 4.36254 -1.0896
56 2 2.81832 4.20097 0.650639 2.81832 4.20097 0.650639
57 2 3.08059 4.4688 -2.60345 3.08059 4.4688 -2.60345
58 1 3.8577 6.02444 -0.760035 3.8577 6.02444 -0.760035
59 2 5.78385 6.07946 0.914765 5.78385 6.07946 0.914765
60 2 5.79316 5.93597 -2.41614 5.79316 5.93597 -2.41614
61 1 6.72929 4.39909 -0.707655 6.72929 4.39909 -0.707655
62 2 8.63983 4.42677 1.09426 8.63983 4.42677 1.09426
63 2 8.75625 4.33549 -2.20581 8.75625 4.33549 -2.20581
64 1 9.64994 6.01642 -0.527692 9.64994 6.01642 -0.527692
65 2 11.4789 6.0248 1.19552 11.4789 6.0248 1.19552
66 2 11.6385 6.00233 -1.99304 11.6385 6.00233 -1.99304
67 1 12.4203 4.30148 -0.376033 12.4203 4.30148 -0.376033
68 2 14.0998 4.43786 1.34401 14.0998 4.43786 1.34401
69 2 14.4834 4.30832 -1.96631 14.4834 4.30832 -1.96631
70 1 15.3003 5.96032 -0.235443 15.3003 5.96032 -0.235443
71 2 17.1603 6.14485 1.34959 17.1603 6.14485 1.34959
72 2 17.0725 5.78845 -1.99736 17.0725 5.78845 -1.99736
73 1 18.0817 4.42735 -0.0372711 18.0817 4.42735 -0.0372711
74 2 20.0751 4.36381 1.55167 20.0751 4.36381 1.55167
75 2 19.8956 4.52433 -1.70907 19.8956 4.52433 -1.70907
76 1 20.9875 6.07568 -0.112926 20.9875 6.07568 -0.112926
77 2 23.0985 6.25654 1.29741 23.0985 6.25654 1.29741
78 2 22.7955 5.83732 -1.82284 22.7955 5.83732 -1.82284
79 1 23.8573 4.36538 -0.189326 23.8573 4.36538 -0.189326
80 2 25.6756 4.66886 1.55214 25.6756 4.66886 1.55214
81 2 25.8045 4.22723 -1.71266 25.8045 4.22723 -1.71266
82 1 26.7412 6.07676 -0.265217 26.7412 6.07676 -0.265217
83 2 28.6413 6.3768 1.32759 28.6413 6.3768 1.32759
84 2 28.6214 5.90068 -1.92251 28.6214 5.90068 -1.92251
85 1 29.627 4.41612 -0.124809 29.627 4.41612 -0.124809
86 2 31.6402 4.47494 1.42112 31.6402 4.47494 1.42112
87 2 31.4875 4.26496 -1.85993 31.4875 4.26496 -1.85993
88 1 32.4483 6.00889 -0.42672 32.4483 6.00889 -0.42672
89 2 34.4271 6.18493 1.13693 34.4271 6.18493 1.13693
90 2 34.3385 5.8246 -2.06047 34.3385 5.8246 -2.06047
91 1 35.3242 4.376 -0.302627 35.3242 4.376 -0.302627
92 2 37.1636 4.26045 1.40445 37.1636 4.26045 1.40445
93 2 37.2294 4.38932 -1.89743 37.2294 4.38932 -1.89743
94 1 38.1502 5.92443 -0.206347 38.1502 5.92443 -0.206347
95 2 40.3229 5.8123 1.03987 40.3229 5.8123 1.03987
96 2 39.9125 6.07468 -2.15379 39.9125 6.07468 -2.15379
97 1 40.9618 4.32902 -0.72986 40.9618 4.32902 -0.72986
98 2 42.9502 4.18448 0.808954 42.9502 4.18448 0.808954
99 2 42.7022 4.22799 -2.48792 42.7022 4.22799 -2.48792
100 1 43.8147 5.9236 -0.892289 43.8147 5.9236 -0.892289
101 2 45.6945 6.11418 0.710228 45.6945 6.11418 0.710228
102 2 45.6724 5.76034 -2.4793 45.6724 5.76034 -2.4793
103 1 46.6854 4.27628 -0.846854 46.6854 4.27628 -0.846854
104 2 48.7442 4.33309 0.763104 48.7442 4.33309 0.763104
105 2 48.5075 4.22459 -2.46645 48.5075 4.22459 -2.46645
106 1 49.4824 6.01255 -0.942755 49.4824 6.01255 -0.942755
107 2 51.5067 5.98932 0.577218 51.5067 5.98932 0.577218
108 2 51.4724 6.02557 -2.6227 51.4724 6.02557 -2.6227
109 1 1.03936 7.67451 -0.943065 1.03936 7.67451 -0.943065
110 2 2.85802 7.77192 0.77211 2.85802 7.77192 0.77211
111 2 3.05036 7.64625 -2.53906 3.05036 7.64625 -2.53906
112 1 3.9046 9.31491 -0.909726 3.9046 9.31491 -0.909726
113 2 5.75409 9.33514 0.685205 5.75409 9.33514 0.685205
114 2 5.7943 9.24091 -2.5365 5.7943 9.24091 -2.5365
115 1 6.74785 7.609 -0.778859 6.74785 7.609 -0.778859
116 2 8.5652 7.8024 0.88706 8.5652 7.8024 0.88706
117 2 8.77188 7.4387 -2.35657 8.77188 7.4387 -2.35657
118 1 9.62047 9.30105 -0.823167 9.62047 9.30105 -0.823167
119 2 11.4676 9.33527 1.06832 11.4676 9.33527 1.06832
120 2 11.6492 9.21997 -2.21427 11.6492 9.21997 -2.21427
121 1 12.4893 7.5922 -0.398241 12.4893 7.5922 -0.398241
122 2 14.3039 7.74385 1.29791 14.3039 7.74385 1.29791
123 2 14.3859 7.5407 -1.97021 14.3859 7.5407 -1.97021
124 1 15.2341 9.22383 -0.480976 15.2341 9.22383 -0.480976
125 2 17.0744 9.32192 1.1509 17.0744 9.32192 1.1509
126 2 17.0971 9.26041 -2.0339 17.0971 9.26041 -2.0339
127 1 18.0535 7.61435 -0.452362 18.0535 7.61435 -0.452362
128 2 19.8881 7.85803 1.19839 19.8881 7.85803 1.19839
129 2 20.1457 7.46318 -1.93138 20.1457 7.46318 -1.93138
130 1 20.9476 9.28517 -0.602608 20.9476 9.28517 -0.602608
131 2 22.8921 9.38459 0.988415 22.8921 9.38459 0.988415
132 2 22.8407 9.18219 -2.28002 22.8407 9.18219 -2.28002
133 1 23.8873 7.66642 -0.520254 23.8873 7.66642 -0.520254
134 2 25.819 7.97156 1.07956 25.819 7.97156 1.07956
135 2 25.7561 7.36744 -2.16477 25.7561 7.36744 -2.16477
136 1 26.725 9.33375 -0.826257 26.725 9.33375 -0.826257
137 2 28.5363 9.54424 0.964477 28.5363 9.54424 0.964477
138 2 28.8559 9.35747 -2.34924 28.8559 9.35747 -2.34924
139 1 29.6044 7.71687 -0.528101 29.6044 7.71687 -0.528101
140 2 31.4324 7.78926 1.12102 31.4324 7.78926 1.12102
141 2 31.5039 7.52367 -2.16773 31.5039 7.52367 -2.16773
142 1 32.5789 9.3126 -0.663728 32.5789 9.3126 -0.663728
143 2 34.4313 9.34273 1.01378 34.4313 9.34273 1.01378
144 2 34.4534 9.3362 -2.33935 34.4534 9.3362 -2.33935
145 1 35.2322 7.67847 -0.603973 35.2322 7.67847 -0.603973
146 2 37.0344 7.62654 1.25303 37.0344 7.62654 1.25303
147 2 37.3354 7.52349 -1.9754 37.3354 7.52349 -1.9754
148 1 38.1656 9.26735 -0.372253 38.1656 9.26735 -0.372253
149 2 40.0365 9.29758 1.19054 40.0365 9.29758 1.19054
150 2 39.8707 9.26837 -2.08575 39.8707 9.26837 -2.08575
151 1 40.9445 7.55925 -0.515803 40.9445 7.55925 -0.515803
152 2 42.8928 7.51575 0.952513 42.8928 7.51575 0.952513
153 2 42.7169 7.48907 -2.32816 42.7169 7.48907 -2.32816
154 1 43.7866 9.21222 -0.739846 43.7866 9.21222 -0.739846
155 2 45.8392 9.26599 0.619457 45.8392 9.26599 0.619457
156 2 45.4635 9.36504 -2.65638 45.4635 9.36504 -2.65638
157 1 46.6576 7.64728 -1.05338 46.6576 7.64728 -1.05338
158 2 48.5443 7.62112 0.653963 48.5443 7.62112 0.653963
159 2 48.7381 7.58393 -2.58992 48.7381 7.58393 -2.58992
160 1 49.6043 9.25916 -0.987141 49.6043 9.25916 -0.987141
161 2 51.4946 9.29102 0.718977 51.4946 9.29102 0.718977
162 2 51.5181 9.39219 -2.60788 51.5181 9.39219 -2.60788
163 1 1.04144 11.0096 -0.985163 1.04144 11.0096 -0.985163
164 2 2.94471 10.9379 0.744567 2.94471 10.9379 0.744567
165 2 3.02433 10.8847 -2.53835 3.02433 10.8847 -2.53835
166 1 3.9514 12.5879 -0.952347 3.9514 12.5879 -0.952347
167 2 5.70926 12.4374 0.795722 5.70926 12.4374 0.795722
168 2 5.86531 12.8106 -2.46357 5.86531 12.8106 -2.46357
169 1 6.74919 10.9221 -0.96396 6.74919 10.9221 -0.96396
170 2 8.64804 10.7675 0.832039 8.64804 10.7675 0.832039
171 2 8.84195 10.9187 -2.51485 8.84195 10.9187 -2.51485
172 1 9.56185 12.5151 -0.79103 9.56185 12.5151 -0.79103
173 2 11.4255 12.729 0.794485 11.4255 12.729 0.794485
174 2 11.4869 12.4816 -2.40196 11.4869 12.4816 -2.40196
175 1 12.3877 10.9606 -0.633103 12.3877 10.9606 -0.633103
176 2 14.3035 10.9821 1.06786 14.3035 10.9821 1.06786
177 2 14.3475 10.8165 -2.23241 14.3475 10.8165 -2.23241
178 1 15.2008 12.5552 -0.704577 15.2008 12.5552 -0.704577
179 2 17.1126 12.7149 0.963749 17.1126 12.7149 0.963749
180 2 17.126 12.5052 -2.33327 17.126 12.5052 -2.33327
181 1 18.0188 10.8768 -0.527725 18.0188 10.8768 -0.527725
182 2 19.9948 10.9154 1.02086 19.9948 10.9154 1.02086
183 2 19.9293 10.7714 -2.20519 19.9293 10.7714 -2.20519
184 1 20.8739 12.575 -0.660789 20.8739 12.575 -0.660789
185 2 22.9217 12.6379 0.875151 22.9217 12.6379 0.875151
186 2 22.8067 12.5175 -2.45403 22.8067 12.5175 -2.45403
187 1 23.7849 10.9509 -0.74381 23.7849 10.9509 -0.74381
188 2 25.7346 10.8946 0.850744 25.7346 10.8946 0.850744
189 2 25.7158 11.0641 -2.46603 25.7158 11.0641 -2.46603
190 1 26.7189 12.5835 -0.697153 26.7189 12.5835 -0.697153
191 2 28.6059 12.6672 0.859658 28.6059 12.6672 0.859658
192 2 28.5961 12.6283 -2.37987 28.5961 12.6283 -2.37987
193 1 29.5517 11.0155 -0.737945 29.5517 11.0155 -0.737945
194 2 31.4422 11.021 0.84717 31.4422 11.021 0.84717
195 2 31.4196 10.8576 -2.42322 31.4196 10.8576 -2.42322
196 1 32.4797 12.5796 -0.922502 32.4797 12.5796 -0.922502
197 2 34.341 12.6337 0.848161 34.341 12.6337 0.848161
198 2 34.5059 12.5222 -2.37015 34.5059 12.5222 -2.37015
199 1 35.2962 10.9318 -0.582412 35.2962 10.9318 -0.582412
200 2 37.0666 11.073 1.11911 37.0666 11.073 1.11911
201 2 37.132 10.7599 -2.19839 37.132 10.7599 -2.19839
202 1 38.1355 12.5384 -0.614906 38.1355 12.5384 -0.614906
203 2 40.0928 12.846 0.902416 40.0928 12.846 0.902416
204 2 39.9922 12.3647 -2.3515 39.9922 12.3647 -2.3515
205 1 41.0856 10.877 -0.490579 41.0856 10.877 -0.490579
206 2 43.1438 11.0691 0.881571 43.1438 11.0691 0.881571
207 2 42.6973 10.6811 -2.36161 42.6973 10.6811 -2.36161
208 1 43.8487 12.5176 -1.00958 43.8487 12.5176 -1.00958
209 2 45.8241 12.5384 0.497734 45.8241 12.5384 0.497734
210 2 45.7143 12.5693 -2.7137 45.7143 12.5693 -2.7137
211 1 46.7145 10.9264 -1.17924 46.7145 10.9264 -1.17924
212 2 48.532 10.8143 0.589302 48.532 10.8143 0.589302
213 2 48.8064 10.9039 -2.72 48.8064 10.9039 -2.72
214 1 49.6032 12.5597 -1.01896 49.6032 12.5597 -1.01896
215 2 51.3903 12.4409 0.698443 51.3903 12.4409 0.698443
216 2 51.5978 12.6499 -2.61167 51.5978 12.6499 -2.61167
217 1 1.03682 14.2415 -0.861027 1.03682 14.2415 -0.861027
218 2 2.94703 14.0814 0.862986 2.94703 14.0814 0.862986
219 2 2.99649 14.3528 -2.44306 2.99649 14.3528 -2.44306
220 1 3.94246 15.9054 -0.641563 3.94246 15.9054 -0.641563
221 2 5.68237 15.8551 1.06071 5.68237 15.8551 1.06071
222 2 5.82172 15.9578 -2.14799 5.82172 15.9578 -2.14799
223 1 6.76798 14.2814 -0.588798 6.76798 14.2814 -0.588798
224 2 8.6364 14.06 0.94306 8.6364 14.06 0.94306
225 2 8.61901 14.2802 -2.22238 8.61901 14.2802 -2.22238
226 1 9.66522 15.9484 -0.551906 9.66522 15.9484 -0.551906
227 2 11.6152 15.8392 0.891582 11.6152 15.8392 0.891582
228 2 11.4236 15.9114 -2.23328 11.4236 15.9114 -2.23328
229 1 12.4551 14.1846 -0.830017 12.4551 14.1846 -0.830017
230 2 14.2352 14.1586 0.863 14.2352 14.1586 0.863
231 2 14.3443 14.1512 -2.40007 14.3443 14.1512 -2.40007
232 1 15.3129 15.9113 -0.832056 15.3129 15.9113 -0.832056
233 2 17.0746 15.6882 0.947231 17.0746 15.6882 0.947231
234 2 17.353 16.0149 -2.24412 17.353 16.0149 -2.24412
235 1 18.1354 14.1958 -0.743114 18.1354 14.1958 -0.743114
236 2 20.0248 14.205 0.912195 20.0248 14.205 0.912195
237 2 20.0607 14.2338 -2.3327 20.0607 14.2338 -2.3327
238 1 21.0243 15.8491 -0.743627 21.0243 15.8491 -0.743627
239 2 22.8458 15.8195 1.00582 22.8458 15.8195 1.00582
240 2 22.8806 16.1648 -2.29669 22.8806 16.1648 -2.29669
241 1 23.8017 14.2273 -0.843008 23.8017 14.2273 -0.843008
242 2 25.5965 14.2143 0.895475 25.5965 14.2143 0.895475
243 2 25.9099 14.292 -2.33293 25.9099 14.292 -2.33293
244 1 26.871 15.919 -0.647919 26.871 15.919 -0.647919
245 2 28.6285 15.8121 0.982539 28.6285 15.8121 0.982539
246 2 28.7555 16.0255 -2.32877 28.7555 16.0255 -2.32877
247 1 29.5744 14.2751 -0.727516 29.5744 14.2751 -0.727516
248 2 31.6691 14.2055 0.838335 31.6691 14.2055 0.838335
249 2 31.4754 14.3312 -2.41975 31.4754 14.3312 -2.41975
250 1 32.5074 15.78 -0.715982 32.5074 15.78 -0.715982
251 2 34.479 15.8137 1.02188 34.479 15.8137 1.02188
252 2 34.2879 15.8279 -2.34988 34.2879 15.8279 -2.34988
253 1 35.3864 14.1478 -0.799246 35.3864 14.1478 -0.799246
254 2 37.1738 14.2761 0.933025 37.1738 14.2761 0.933025
255 2 37.2786 14.0722 -2.37095 37.2786 14.0722 -2.37095
256 1 38.1354 15.8623 -0.84546 38.1354 15.8623 -0.84546
257 2 40.0326 15.8145 0.791377 40.0326 15.8145 0.791377
258 2 40.0225 15.9798 -2.56419 40.0225 15.9798 -2.56419
259 1 40.9502 14.1771 -1.00793 40.9502 14.1771 -1.00793
260 2 42.8532 14.0212 0.60972 42.8532 14.0212 0.60972
261 2 42.7502 14.1534 -2.70372 42.7502 14.1534 -2.70372
262 1 43.7911 15.7756 -1.13831 43.7911 15.7756 -1.13831
263 2 45.7026 15.6489 0.547627 45.7026 15.6489 0.547627
264 2 45.7505 15.9321 -2.68638 45.7505 15.9321 -2.68638
265 1 46.7446 14.1279 -1.11541 46.7446 14.1279 -1.11541
266 2 48.4241 14.069 0.730849 48.4241 14.069 0.730849
267 2 48.7172 14.321 -2.55599 48.7172 14.321 -2.55599
268 1 49.559 15.8028 -0.771824 49.559 15.8028 -0.771824
269 2 51.4138 15.6322 0.882605 51.4138 15.6322 0.882605
270 2 51.5283 16.0387 -2.33975 51.5283 16.0387 -2.33975
271 1 0.991549 17.512 -0.511726 0.991549 17.512 -0.511726
272 2 2.89411 17.2771 1.15133 2.89411 17.2771 1.15133
273 2 3.04741 17.7181 -2.048 3.04741 17.7181 -2.048
274 1 3.93661 19.134 -0.199062 3.93661 19.134 -0.199062
275 2 5.87622 19.0782 1.43685 5.87622 19.0782 1.43685
276 2 5.78219 19.2255 -1.86391 5.78219 19.2255 -1.86391
277 1 6.80472 17.561 -0.404767 6.80472 17.561 -0.404767
278 2 8.70545 17.5139 1.13502 8.70545 17.5139 1.13502
279 2 8.67634 17.5887 -2.18315 8.67634 17.5887 -2.18315
280 1 9.57054 19.222 -0.497822 9.57054 19.222 -0.497822
281 2 11.4367 18.9788 1.17436 11.4367 18.9788 1.17436
282 2 11.5415 19.4178 -2.01134 11.5415 19.4178 -2.01134
283 1 12.4254 17.5437 -0.619608 12.4254 17.5437 -0.619608
284 2 14.3242 17.3489 0.951155 14.3242 17.3489 0.951155
285 2 14.2533 17.7274 -2.22082 14.2533 17.7274 -2.22082
286 1 15.2811 19.2208 -0.37997 15.2811 19.2208 -0.37997
287 2 17.1181 19.0786 1.40649 17.1181 19.0786 1.40649
288 2 17.1875 19.4229 -1.94221 17.1875 19.4229 -1.94221
289 1 18.1725 17.516 -0.406087 18.1725 17.516 -0.406087
290 2 20.2038 17.3134 1.0882 20.2038 17.3134 1.0882
291 2 19.9202 17.7126 -2.08581 19.9202 17.7126 -2.08581
292 1 20.9399 19.1357 -0.409848 20.9399 19.1357 -0.409848
293 2 22.9803 19.0131 1.23965 22.9803 19.0131 1.23965
294 2 22.8915 19.1717 -2.05099 22.8915 19.1717 -2.05099
295 1 23.9572 17.5358 -0.479758 23.9572 17.5358 -0.479758
296 2 25.7437 17.2162 1.16774 25.7437 17.2162 1.16774
297 2 25.8172 17.7306 -2.06291 25.8172 17.7306 -2.06291
298 1 26.7121 19.1702 -0.219001 26.7121 19.1702 -0.219001
299 2 28.6909 18.9206 1.14593 28.6909 18.9206 1.14593
300 2 28.5881 19.3478 -1.94407 28.5881 19.3478 -1.94407
301 1 29.6316 17.6011 -0.599698 29.6316 17.6011 -0.599698
302 2 31.5349 17.3402 0.989788 31.5349 17.3402 0.989788
303 2 31.5133 17.5566 -2.22404 31.5133 17.5566 -2.22404
304 1 32.4615 19.1576 -0.472887 32.4615 19.1576 -0.472887
305 2 34.4933 19.1035 1.01109 34.4933 19.1035 1.01109
306 2 34.2776 19.2745 -2.16471 34.2776 19.2745 -2.16471
307 1 35.2766 17.5428 -0.748344 35.2766 17.5428 -0.748344
308 2 37.2832 17.4855 0.876711 37.2832 17.4855 0.876711
309 2 37.148 17.4899 -2.41169 37.148 17.4899 -2.41169
310 1 38.1516 19.1762 -0.796738 38.1516 19.1762 -0.796738
311 2 39.9736 19.2269 0.904303 39.9736 19.2269 0.904303
312 2 40.1331 19.2235 -2.39591 40.1331 19.2235 -2.39591
313 1 40.9512 17.4865 -0.732912 40.9512 17.4865 -0.732912
314 2 42.9993 17.3344 0.741635 42.9993 17.3344 0.741635
315 2 42.721 17.707 -2.51135 42.721 17.707 -2.51135
316 1 43.8274 19.102 -0.737487 43.8274 19.102 -0.737487
317 2 45.612 18.7508 0.914953 45.612 18.7508 0.914953
318 2 45.842 19.3331 -2.16732 45.842 19.3331 -2.16732
319 1 46.6456 17.3974 -0.901966 46.6456 17.3974 -0.901966
320 2 48.3581 17.2598 0.90705 48.3581 17.2598 0.90705
321 2 48.7553 17.612 -2.36655 48.7553 17.612 -2.36655
322 1 49.5325 19.077 -0.334174 49.5325 19.077 -0.334174
323 2 51.4123 18.9347 1.36816 51.4123 18.9347 1.36816
324 2 51.3869 19.2924 -2.03179 51.3869 19.2924 -2.03179
325 1 0.970246 20.7417 -0.186458 0.970246 20.7417 -0.186458
326 2 2.79333 20.4966 1.56022 2.79333 20.4966 1.56022
327 2 2.9623 20.9588 -1.68435 2.9623 20.9588 -1.68435
328 1 3.85012 22.3303 0.271613 3.85012 22.3303 0.271613
329 2 5.92613 22.1796 1.6944 5.92613 22.1796 1.6944
330 2 5.56356 22.6151 -1.48415 5.56356 22.6151 -1.48415
331 1 6.69406 20.8345 -0.174921 6.69406 20.8345 -0.174921
332 2 8.76818 20.7532 1.28832 8.76818 20.7532 1.28832
333 2 8.59208 21.0188 -1.83183 8.59208 21.0188 -1.83183
334 1 9.61864 22.5169 -0.182541 9.61864 22.5169 -0.182541
335 2 11.4365 22.3568 1.45427 11.4365 22.3568 1.45427
336 2 11.512 22.4973 -1.78805 11.512 22.4973 -1.78805
337 1 12.3958 20.7929 -0.207459 12.3958 20.7929 -0.207459
338 2 14.2486 20.6093 1.39486 14.2486 20.6093 1.39486
339 2 14.2636 20.9545 -1.89917 14.2636 20.9545 -1.89917
340 1 15.2648 22.3992 -0.0885988 15.2648 22.3992 -0.0885988
341 2 17.062 22.2637 1.54243 17.062 22.2637 1.54243
342 2 17.2905 22.6393 -1.54385 17.2905 22.6393 -1.54385
343 1 18.2048 20.8396 -0.11208 18.2048 20.8396 -0.11208
344 2 20.0733 20.5273 1.45814 20.0733 20.5273 1.45814
345 2 20.0972 21.0051 -1.67997 20.0972 21.0051 -1.67997
346 1 21.0024 22.3987 0.117471 21.0024 22.3987 0.117471
347 2 22.951 22.0561 1.67914 22.951 22.0561 1.67914
348 2 22.8857 22.72 -1.43267 22.8857 22.72 -1.43267
349 1 23.7884 20.7561 -0.235196 23.7884 20.7561 -0.235196
350 2 25.6669 20.6802 1.51648 25.6669 20.6802 1.51648
351 2 25.7778 20.963 -1.70302 25.7778 20.963 -1.70302
352 1 26.698 22.4666 0.00591997 26.698 22.4666 0.00591997
353 2 28.6269 22.3226 1.57026 28.6269 22.3226 1.57026
354 2 28.6875 22.5777 -1.71122 28.6875 22.5777 -1.71122
355 1 29.6057 20.7519 -0.196556 29.6057 20.7519 -0.196556
356 2 31.6487 20.6607 1.24881 31.6487 20.6607 1.24881
357 2 31.3701 20.9683 -1.91539 31.3701 20.9683 -1.91539
358 1 32.4312 22.4491 -0.15873 32.4312 22.4491 -0.15873
359 2 34.4119 22.3956 1.31941 34.4119 22.3956 1.31941
360 2 34.0706 22.6351 -1.89095 34.0706 22.6351 -1.89095
361 1 35.2632 20.9309 -0.507183 35.2632 20.9309 -0.507183
362 2 37.3211 20.798 1.00554 37.3211 20.798 1.00554
363 2 37.0934 20.9206 -2.25735 37.0934 20.9206 -2.25735
364 1 38.1287 22.4915 -0.625191 38.1287 22.4915 -0.625191
365 2 40.1067 22.4532 0.991068 40.1067 22.4532 0.991068
366 2 40.023 22.4837 -2.32452 40.023 22.4837 -2.32452
367 1 40.997 20.8376 -0.685427 40.997 20.8376 -0.685427
368 2 42.7681 20.6578 1.01563 42.7681 20.6578 1.01563
369 2 42.8521 20.9086 -2.32151 42.8521 20.9086 -2.32151
370 1 43.8019 22.378 -0.432473 43.8019 22.378 -0.432473
371 2 45.4648 22.2486 1.47297 45.4648 22.2486 1.47297
372 2 45.914 22.4727 -1.80722 45.914 22.4727 -1.80722
373 1 46.6089 20.6799 -0.202883 46.6089 20.6799 -0.202883
374 2 48.4298 20.5214 1.4838 48.4298 20.5214 1.4838
375 2 48.6185 20.9658 -1.71431 48.6185 20.9658 -1.71431
376 1 49.5322 22.3129 0.130862 49.5322 22.3129 0.130862
377 2 51.5793 22.2537 1.66109 51.5793 22.2537 1.66109
378 2 51.2588 22.4026 -1.66074 51.2588 22.4026 -1.66074
379 1 0.938239 23.9902 0.140785 0.938239 23.9902 0.140785
380 2 2.70324 24.0814 1.86602 2.70324 24.0814 1.86602
381 2 2.84839 24.0725 -1.3441 2.84839 24.0725 -1.3441
382 1 3.82032 25.653 0.278245 3.82032 25.653 0.278245
383 2 5.70419 25.575 1.96275 5.70419 25.575 1.96275
384 2 5.77374 25.6731 -1.33793 5.77374 25.6731 -1.33793
385 1 6.68504 24.059 0.283424 6.68504 24.059 0.283424
386 2 8.75194 23.9633 1.71848 8.75194 23.9633 1.71848
387 2 8.49055 24.2393 -1.60689 8.49055 24.2393 -1.60689
388 1 9.53005 25.8061 0.0562341 9.53005 25.8061 0.0562341
389 2 11.3593 25.6717 1.68861 11.3593 25.6717 1.68861
390 2 11.4712 25.8312 -1.67721 11.4712 25.8312 -1.67721
391 1 12.4306 24.1601 -0.0453673 12.4306 24.1601 -0.0453673
392 2 14.2627 23.926 1.64668 14.2627 23.926 1.64668
393 2 14.368 24.2291 -1.63635 14.368 24.2291 -1.63635
394 1 15.274 25.6794 0.0871648 15.274 25.6794 0.0871648
395 2 16.9221 25.6271 1.89873 16.9221 25.6271 1.89873
396 2 17.3196 25.692 -1.30163 17.3196 25.692 -1.30163
397 1 18.0748 24.1636 0.380591 18.0748 24.1636 0.380591
398 2 20.028 23.9744 1.99167 20.028 23.9744 1.99167
399 2 19.8549 24.1833 -1.34324 19.8549 24.1833 -1.34324
400 1 20.9732 25.7451 0.438679 20.9732 25.7451 0.438679
401 2 22.94 25.8088 2.0982 22.94 25.8088 2.0982
402 2 22.9381 25.8991 -1.15535 22.9381 25.8991 -1.15535
403 1 23.8759 24.1491 0.416826 23.8759 24.1491 0.416826
404 2 26.0051 23.9456 1.84683 26.0051 23.9456 1.84683
405 2 25.6918 24.3287 -1.35331 25.6918 24.3287 -1.35331
406 1 26.7198 25.8298 0.314253 26.7198 25.8298 0.314253
407 2 28.7074 25.5968 1.86272 28.7074 25.5968 1.86272
408 2 28.5532 25.9521 -1.31598 28.5532 25.9521 -1.31598
409 1 29.562 24.1471 0.123104 29.562 24.1471 0.123104
410 2 31.5424 23.9638 1.64921 31.5424 23.9638 1.64921
411 2 31.4628 24.2549 -1.58276 31.4628 24.2549 -1.58276
412 1 32.4257 25.7386 0.157598 32.4257 25.7386 0.157598
413 2 34.5004 25.5531 1.53557 34.5004 25.5531 1.53557
414 2 34.1904 25.9125 -1.63713 34.1904 25.9125 -1.63713
415 1 35.2784 24.1008 -0.259491 35.2784 24.1008 -0.259491
416 2 37.3653 24.0849 1.12279 37.3653 24.0849 1.12279
417 2 36.9701 24.157 -2.08244 36.9701 24.157 -2.08244
418 1 38.192 25.7616 -0.633946 38.192 25.7616 -0.633946
419 2 40.0328 25.6482 1.10475 40.0328 25.6482 1.10475
420 2 40.1026 25.7871 -2.19187 40.1026 25.7871 -2.19187
421 1 41.0592 24.1418 -0.68775 41.0592 24.1418 -0.68775
422 2 42.78 24.1183 1.06494 42.78 24.1183 1.06494
423 2 43.0706 24.0108 -2.20452 43.0706 24.0108 -2.20452
424 1 43.8542 25.6602 -0.47141 43.8542 25.6602 -0.47141
425 2 45.5127 25.7784 1.37063 45.5127 25.7784 1.37063
426 2 45.95 25.5199 -1.81106 45.95 25.5199 -1.81106
427 1 46.6618 23.9624 0.0275318 46.6618 23.9624 0.0275318
428 2 48.4259 24.033 1.67665 48.4259 24.033 1.67665
429 2 48.6187 23.919 -1.61361 48.6187 23.919 -1.61361
430 1 49.601 25.6179 0.0328016 49.601 25.6179 0.0328016
431 2 51.292 25.5291 1.81796 51.292 25.5291 1.81796
432 2 51.5164 25.6165 -1.55026 51.5164 25.6165 -1.55026
433 1 0.902016 27.2314 0.292537 0.902016 27.2314 0.292537
434 2 2.81523 27.3836 1.86827 2.81523 27.3836 1.86827
435 2 2.74178 27.2249 -1.41032 2.74178 27.2249 -1.41032
436 1 3.80251 28.9895 0.178743 3.80251 28.9895 0.178743
437 2 5.64398 28.957 1.86189 5.64398 28.957 1.86189
438 2 5.68928 28.9203 -1.44967 5.68928 28.9203 -1.44967
439 1 6.64831 27.2518 0.325834 6.64831 27.2518 0.325834
440 2 8.7152 27.2665 1.92417 8.7152 27.2665 1.92417
441 2 8.44588 27.5373 -1.36451 8.44588 27.5373 -1.36451
442 1 9.54083 29.0942 0.305004 9.54083 29.0942 0.305004
443 2 11.5401 29.0492 1.84604 11.5401 29.0492 1.84604
444 2 11.3275 29.2044 -1.37218 11.3275 29.2044 -1.37218
445 1 12.3358 27.4213 0.0998705 12.3358 27.4213 0.0998705
446 2 14.3051 27.3272 1.76635 14.3051 27.3272 1.76635
447 2 14.2835 27.5072 -1.50394 14.2835 27.5072 -1.50394
448 1 15.2456 29.0795 0.192629 15.2456 29.0795 0.192629
449 2 17.0756 29.0226 1.9525 17.0756 29.0226 1.9525
450 2 17.3131 29.013 -1.23107 17.3131 29.013 -1.23107
451 1 18.1114 27.3703 0.472815 18.1114 27.3703 0.472815
452 2 19.981 27.4404 2.06207 19.981 27.4404 2.06207
453 2 19.9085 27.3239 -1.20901 19.9085 27.3239 -1.20901
454 1 20.8837 29.0713 0.434059 20.8837 29.0713 0.434059
455 2 22.7383 29.0881 2.10824 22.7383 29.0881 2.10824
456 2 22.8895 29.2522 -1.13466 22.8895 29.2522 -1.13466
457 1 23.7432 27.5239 0.52078 23.7432 27.5239 0.52078
458 2 25.819 27.3312 2.02943 25.819 27.3312 2.02943
459 2 25.6466 27.5914 -1.11946 25.6466 27.5914 -1.11946
460 1 26.742 29.0658 0.506023 26.742 29.0658 0.506023
461 2 28.7594 28.9682 2.0396 28.7594 28.9682 2.0396
462 2 28.6273 29.1621 -1.27434 28.6273 29.1621 -1.27434
463 1 29.6518 27.3598 0.351036 29.6518 27.3598 0.351036
464 2 31.5429 27.1447 1.97176 31.5429 27.1447 1.97176
465 2 31.385 27.6353 -1.34265 31.385 27.6353 -1.34265
466 1 32.4738 29.0022 0.522145 32.4738 29.0022 0.522145
467 2 34.6489 28.8652 1.84264 34.6489 28.8652 1.84264
468 2 34.2307 29.1912 -1.378 34.2307 29.1912 -1.378
469 1 35.3289 27.3476 -0.0072772 35.3289 27.3476 -0.0072772
470 2 37.4641 27.2414 1.30018 37.4641 27.2414 1.30018
471 2 36.9715 27.5827 -1.86792 36.9715 27.5827 -1.86792
472 1 38.0934 29.0151 -0.225927 38.0934 29.0151 -0.225927
473 2 39.9748 28.868 1.36097 39.9748 28.868 1.36097
474 2 39.9691 29.0511 -1.90843 39.9691 29.0511 -1.90843
475 1 41.0137 27.4453 -0.419839 41.0137 27.4453 -0.419839
476 2 42.893 27.3235 1.25072 42.893 27.3235 1.25072
477 2 42.9039 27.454 -2.06144 42.9039 27.454 -2.06144
478 1 43.88 28.939 -0.361088 43.88 28.939 -0.361088
479 2 45.6678 28.9265 1.4733 45.6678 28.9265 1.4733
480 2 45.9098 29.0055 -1.86697 45.9098 29.0055 -1.86697
481 1 46.7737 27.3175 -0.142961 46.7737 27.3175 -0.142961
482 2 48.5801 27.2882 1.60367 48.5801 27.2882 1.60367
483 2 48.7792 27.1493 -1.69147 48.7792 27.1493 -1.69147
484 1 49.6126 28.9432 -0.0646286 49.6126 28.9432 -0.0646286
485 2 51.4096 29.0734 1.75282 51.4096 29.0734 1.75282
486 2 51.6419 28.7228 -1.60094 51.6419 28.7228 -1.60094
487 1 1.03358 30.5258 0.076048 1.03358 30.5258 0.076048
488 2 2.84238 30.6235 1.75672 2.84238 30.6235 1.75672
489 2 2.84656 30.4562 -1.56432 2.84656 30.4562 -1.56432
490 1 3.92495 32.1944 -0.0180862 3.92495 32.1944 -0.0180862
491 2 5.69195 32.3032 1.80992 5.69195 32.3032 1.80992
492 2 5.80759 32.2276 -1.50853 5.80759 32.2276 -1.50853
493 1 6.70882 30.6303 0.2387 6.70882 30.6303 0.2387
494 2 8.55846 30.7379 1.86666 8.55846 30.7379 1.86666
495 2 8.55034 30.6479 -1.42068 8.55034 30.6479 -1.42068
496 1 9.55135 32.372 0.205845 9.55135 32.372 0.205845
497 2 11.6199 32.4555 1.80439 11.6199 32.4555 1.80439
498 2 11.454 32.3209 -1.33722 11.454 32.3209 -1.33722
499 1 12.396 30.6793 0.257875 12.396 30.6793 0.257875
500 2 14.3514 30.6846 1.83629 14.3514 30.6846 1.83629
501 2 14.2511 30.6371 -1.46392 14.2511 30.6371 -1.46392
502 1 15.322 32.3945 0.140405 15.322 32.3945 0.140405
503 2 17.0678 32.2578 1.90561 17.0678 32.2578 1.90561
504 2 17.3259 32.345 -1.35702 17.3259 32.345 -1.35702
505 1 18.1341 30.6395 0.404302 18.1341 30.6395 0.404302
506 2 19.9187 30.62 2.14087 19.9187 30.62 2.14087
507 2 19.9815 30.7962 -1.15503 19.9815 30.7962 -1.15503
508 1 20.9734 32.2572 0.607357 20.9734 32.2572 0.607357
509 2 22.8109 32.2508 2.27063 22.8109 32.2508 2.27063
510 2 22.9123 32.4901 -0.962318 22.9123 32.4901 -0.962318
511 1 23.9354 30.7922 0.564606 23.9354 30.7922 0.564606
512 2 25.8074 30.7816 2.20646 25.8074 30.7816 2.20646
513 2 25.7112 30.8221 -1.09536 25.7112 30.8221 -1.09536
514 1 26.7062 32.4121 0.555654 26.7062 32.4121 0.555654
515 2 28.7421 32.3545 2.16747 28.7421 32.3545 2.16747
516 2 28.5908 32.2397 -1.1421 28.5908 32.2397 -1.1421
517 1 29.6103 30.6478 0.516076 29.6103 30.6478 0.516076
518 2 31.487 30.6131 2.16276 31.487 30.6131 2.16276
519 2 31.5303 30.6193 -1.07276 31.5303 30.6193 -1.07276
520 1 32.4483 32.2403 0.511888 32.4483 32.2403 0.511888
521 2 34.5112 32.2316 2.00321 34.5112 32.2316 2.00321
522 2 34.2661 32.2372 -1.21253 34.2661 32.2372 -1.21253
523 1 35.4416 30.5353 0.245143 35.4416 30.5353 0.245143
524 2 37.3983 30.3461 1.7052 37.3983 30.3461 1.7052
525 2 37.1532 30.8661 -1.5045 37.1532 30.8661 -1.5045
526 1 38.1426 32.233 0.339508 38.1426 32.233 0.339508
527 2 40.2502 32.0461 1.73048 40.2502 32.0461 1.73048
528 2 39.8325 32.3799 -1.52078 39.8325 32.3799 -1.52078
529 1 40.983 30.6037 -0.133351 40.983 30.6037 -0.133351
530 2 42.9508 30.3616 1.45259 42.9508 30.3616 1.45259
531 2 42.9862 30.7858 -1.75575 42.9862 30.7858 -1.75575
532 1 43.8391 32.2097 -0.0394415 43.8391 32.2097 -0.0394415
533 2 45.8323 32.31 1.64095 45.8323 32.31 1.64095
534 2 45.7286 32.2077 -1.64934 45.7286 32.2077 -1.64934
535 1 46.6781 30.5911 -0.0141045 46.6781 30.5911 -0.0141045
536 2 48.5481 30.5073 1.68149 48.5481 30.5073 1.68149
537 2 48.6325 30.5742 -1.678 48.6325 30.5742 -1.678
538 1 49.5387 32.2665 -0.0208691 49.5387 32.2665 -0.0208691