ITEM: TIMESTEP
9900
ITEM: NUMBER OF ATOMS
810
ITEM: BOX BOUNDS pp pp pp
8.0449378624166834e-01 5.2213111213758857e+01
7.4182373881322983e-01 5.0274391261185862e+01
-1.0000000000000000e+01 1.0000000000000000e+01
ITEM: ATOMS id type x y z xu yu zu
1 1 1.07862 0.986529 -0.747724 1.07862 0.986529 -0.747724
2 2 2.83494 1.04516 1.15878 2.83494 1.04516 1.15878
3 2 3.15847 50.4197 -2.2595 3.15847 0.887146 -2.2595
4 1 3.909 2.60332 -0.606573 3.909 2.60332 -0.606573
5 2 5.66714 2.77881 1.1851 5.66714 2.77881 1.1851
6 2 5.99963 2.35522 -1.97568 5.99963 2.35522 -1.97568
7 1 6.73801 1.02031 -0.0630011 6.73801 1.02031 -0.0630011
8 2 8.58743 1.23665 1.49154 8.58743 1.23665 1.49154
9 2 8.65634 0.851801 -1.72023 8.65634 0.851801 -1.72023
10 1 9.56279 2.59676 -0.270101 9.56279 2.59676 -0.270101
11 2 11.3794 2.85241 1.45531 11.3794 2.85241 1.45531
12 2 11.5376 2.4329 -1.66605 11.5376 2.4329 -1.66605
13 1 12.2967 0.953202 0.178164 12.2967 0.953202 0.178164
14 2 14.2857 1.0507 1.80748 14.2857 1.0507 1.80748
15 2 14.2947 0.729236 -1.33706 14.2947 0.729236 -1.33706
16 1 15.2772 2.58473 -0.00755643 15.2772 2.58473 -0.00755643
17 2 17.1663 2.65721 1.53509 17.1663 2.65721 1.53509
18 2 17.0827 2.4029 -1.77344 17.0827 2.4029 -1.77344
19 1 18.0174 0.895442 -0.0368016 18.0174 0.895442 -0.0368016
20 2 19.8506 0.963753 1.67498 19.8506 0.963753 1.67498
21 2 20.0141 50.4846 -1.53211 20.0141 0.952032 -1.53211
22 1 20.9794 2.55135 0.130033 20.9794 2.55135 0.130033
23 2 23.1013 2.76089 1.4321 23.1013 2.76089 1.4321
24 2 22.6534 2.48011 -1.75376 22.6534 2.48011 -1.75376
25 1 23.723 0.923316 -0.171486 23.723 0.923316 -0.171486
26 2 25.6847 1.16213 1.31332 25.6847 1.16213 1.31332
27 2 25.6271 0.5954 -1.8549 25.6271 0.5954 -1.8549
28 1 26.656 2.54198 -0.542721 26.656 2.54198 -0.542721
29 2 28.4962 2.80771 1.23782 28.4962 2.80771 1.23782
30 2 28.6568 2.42932 -1.99923 28.6568 2.42932 -1.99923
31 1 29.5733 0.955718 -0.151091 29.5733 0.955718 -0.151091
32 2 31.592 1.15773 1.25104 31.592 1.15773 1.25104
33 2 31.2594 0.763282 -1.98478 31.2594 0.763282 -1.98478
34 1 32.4388 2.60885 -0.651919 32.4388 2.60885 -0.651919
35 2 34.3281 2.77979 1.00793 34.3281 2.77979 1.00793
36 2 34.3929 2.50358 -2.23037 34.3929 2.50358 -2.23037
37 1 35.2018 0.904755 -0.467094 35.2018 0.904755 -0.467094
38 2 37.351 0.945415 1.09087 37.351 0.945415 1.09087
39 2 37.0187 0.891451 -2.13646 37.0187 0.891451 -2.13646
40 1 38.2209 2.54191 -0.622524 38.2209 2.54191 -0.622524
41 2 40.231 2.67902 0.99473 40.231 2.67902 0.99473
42 2 40.1435 2.64656 -2.22929 40.1435 2.64656 -2.22929
43 1 41.0838 0.986564 -0.577424 41.0838 0.986564 -0.577424
44 2 43.0187 1.04164 0.938041 43.0187 1.04164 0.938041
45 2 42.8741 0.839477 -2.24944 42.8741 0.839477 -2.24944
46 1 43.8995 2.61612 -0.791312 43.8995 2.61612 -0.791312
47 2 45.7001 2.61423 0.873517 45.7001 2.61423 0.873517
48 2 45.8769 2.63953 -2.28186 45.8769 2.63953 -2.28186
49 1 46.713 0.893177 -0.55563 46.713 0.893177 -0.55563
50 2 48.71 0.901532 0.987113 48.71 0.901532 0.987113
51 2 48.5533 1.04196 -2.2892 48.5533 1.04196 -2.2892
52 1 49.564 2.63499 -0.631173 49.564 2.63499 -0.631173
53 2 51.5542 2.65665 0.903519 51.5542 2.65665 0.903519
54 2 51.4372 2.53093 -2.42685 51.4372 2.53093 -2.42685
55 1 1.13724 4.2129 -0.839434 1.13724 4.2129 -0.839434
56 2 2.95597 4.46575 0.911025 2.95597 4.46575 0.911025
57 2 3.06501 4.18074 -2.41363 3.06501 4.18074 -2.41363
58 1 3.97576 5.96266 -0.858461 3.97576 5.96266 -0.858461
59 2 5.74761 5.9307 0.917176 5.74761 5.9307 0.917176
60 2 5.98775 5.88703 -2.36094 5.98775 5.88703 -2.36094
61 1 6.85347 4.26533 -0.544973 6.85347 4.26533 -0.544973
62 2 8.51566 4.48917 1.24445 8.51566 4.48917 1.24445
63 2 8.7179 4.21824 -2.04163 8.7179 4.21824 -2.04163
64 1 9.6147 5.96755 -0.403513 9.6147 5.96755 -0.403513
65 2 11.429 5.98216 1.23802 11.429 5.98216 1.23802
66 2 11.52 6.00125 -1.91408 11.52 6.00125 -1.91408
67 1 12.4058 4.26758 -0.354207 12.4058 4.26758 -0.354207
68 2 14.2647 4.43346 1.39567 14.2647 4.43346 1.39567
69 2 14.3815 4.1052 -1.82049 14.3815 4.1052 -1.82049
70 1 15.2778 5.90888 -0.374255 15.2778 5.90888 -0.374255
71 2 17.2214 5.93808 1.21882 17.2214 5.93808 1.21882
72 2 17.1929 5.87899 -1.98232 17.1929 5.87899 -1.98232
73 1 18.0898 4.22991 -0.286019 18.0898 4.22991 -0.286019
74 2 19.9401 4.46339 1.47339 19.9401 4.46339 1.47339
75 2 20.1389 3.99781 -1.81604 20.1389 3.99781 -1.81604
76 1 21.0148 5.89465 -0.301003 21.0148 5.89465 -0.301003
77 2 22.8713 6.04168 1.28889 22.8713 6.04168 1.28889
78 2 22.7787 5.80998 -2.00959 22.7787 5.80998 -2.00959
79 1 23.8804 4.30161 -0.377818 23.8804 4.30161 -0.377818
80 2 25.902 4.24601 1.21318 25.902 4.24601 1.21318
81 2 25.5926 4.24964 -2.14134 25.5926 4.24964 -2.14134
82 1 26.7154 5.81613 -0.53586 26.7154 5.81613 -0.53586
83 2 28.7031 5.77621 1.13847 28.7031 5.77621 1.13847
84 2 28.5925 5.86102 -2.10746 28.5925 5.86102 -2.10746
85 1 29.6022 4.16852 -0.565263 29.6022 4.16852 -0.565263
86 2 31.4061 4.21268 1.09559 31.4061 4.21268 1.09559
87 2 31.5319 4.25499 -2.19649 31.5319 4.25499 -2.19649
88 1 32.4888 5.90652 -0.505468 32.4888 5.90652 -0.505468
89 2 34.4008 5.73776 1.03458 34.4008 5.73776 1.03458
90 2 34.3193 5.93448 -2.21731 34.3193 5.93448 -2.21731
91 1 35.3776 4.26041 -0.725438 35.3776 4.26041 -0.725438
92 2 37.3199 4.29102 0.922761 37.3199 4.29102 0.922761
93 2 37.3133 4.22268 -2.34859 37.3133 4.22268 -2.34859
94 1 38.2241 5.92596 -0.720175 38.2241 5.92596 -0.720175
95 2 40.0324 6.04557 0.822668 40.0324 6.04557 0.822668
96 2 40.0693 5.85797 -2.45493 40.0693 5.85797 -2.45493
97 1 41.1146 4.33642 -0.735825 41.1146 4.33642 -0.735825
98 2 43.077 4.40601 0.699659 43.077 4.40601 0.699659
99 2 42.8392 4.09004 -2.52205 42.8392 4.09004 -2.52205
100 1 43.9164 5.9659 -1.13569 43.9164 5.9659 -1.13569
101 2 45.6717 5.9773 0.66672 45.6717 5.9773 0.66672
102 2 46.0343 5.83278 -2.568 46.0343 5.83278 -2.568
103 1 46.78 4.24644 -0.753597 46.78 4.24644 -0.753597
104 2 48.6214 4.48702 0.853944 48.6214 4.48702 0.853944
105 2 48.676 4.10075 -2.40639 48.676 4.10075 -2.40639
106 1 49.6806 5.88876 -0.928381 49.6806 5.88876 -0.928381
107 2 51.4149 5.78957 0.870296 51.4149 5.78957 0.870296
108 2 51.7123 6.03131 -2.31237 51.7123 6.03131 -2.31237
109 1 1.01739 7.6138 -0.528548 1.01739 7.6138 -0.528548
110 2 3.05267 7.52147 0.902801 3.05267 7.52147 0.902801
111 2 2.89278 7.58716 -2.37954 2.89278 7.58716 -2.37954
112 1 3.89962 9.31936 -0.782129 3.89962 9.31936 -0.782129
113 2 5.72938 9.15177 1.02722 5.72938 9.15177 1.02722
114 2 5.85753 9.29738 -2.40647 5.85753 9.29738 -2.40647
115 1 6.72136 7.56308 -0.709472 6.72136 7.56308 -0.709472
116 2 8.50794 7.86644 1.00508 8.50794 7.86644 1.00508
117 2 8.71957 7.48221 -2.20577 8.71957 7.48221 -2.20577
118 1 9.62069 9.28595 -0.628717 9.62069 9.28595 -0.628717
119 2 11.4261 9.48311 1.15401 11.4261 9.48311 1.15401
120 2 11.5566 9.03274 -2.11589 11.5566 9.03274 -2.11589
121 1 12.3947 7.6158 -0.277632 12.3947 7.6158 -0.277632
122 2 14.4556 7.5949 1.26464 14.4556 7.5949 1.26464
123 2 14.1677 7.62931 -1.94648 14.1677 7.62931 -1.94648
124 1 15.3397 9.22947 -0.472861 15.3397 9.22947 -0.472861
125 2 17.006 9.21524 1.31554 17.006 9.21524 1.31554
126 2 17.3139 9.4112 -1.89139 17.3139 9.4112 -1.89139
127 1 18.189 7.60066 -0.344406 18.189 7.60066 -0.344406
128 2 20.0341 7.48448 1.35001 20.0341 7.48448 1.35001
129 2 20.2096 7.59578 -1.93716 20.2096 7.59578 -1.93716
130 1 20.997 9.18238 -0.236091 20.997 9.18238 -0.236091
131 2 22.9562 9.14623 1.2736 22.9562 9.14623 1.2736
132 2 22.922 9.31946 -2.00906 22.922 9.31946 -2.00906
133 1 23.8129 7.5492 -0.499589 23.8129 7.5492 -0.499589
134 2 25.6764 7.58659 1.13157 25.6764 7.58659 1.13157
135 2 25.6429 7.41368 -2.15194 25.6429 7.41368 -2.15194
136 1 26.71 9.17304 -0.607132 26.71 9.17304 -0.607132
137 2 28.7249 9.25367 1.16708 28.7249 9.25367 1.16708
138 2 28.6885 9.11721 -2.13054 28.6885 9.11721 -2.13054
139 1 29.5619 7.51653 -0.459005 29.5619 7.51653 -0.459005
140 2 31.4682 7.59238 1.1461 31.4682 7.59238 1.1461
141 2 31.365 7.39532 -2.07866 31.365 7.39532 -2.07866
142 1 32.478 9.19853 -0.604192 32.478 9.19853 -0.604192
143 2 34.4118 9.25382 1.01781 34.4118 9.25382 1.01781
144 2 34.3909 9.17729 -2.28392 34.3909 9.17729 -2.28392
145 1 35.316 7.59225 -0.554905 35.316 7.59225 -0.554905
146 2 37.2961 7.56995 0.978782 37.2961 7.56995 0.978782
147 2 37.2149 7.448 -2.27048 37.2149 7.448 -2.27048
148 1 38.1591 9.18682 -0.701503 38.1591 9.18682 -0.701503
149 2 40.2031 9.29879 0.767947 40.2031 9.29879 0.767947
150 2 39.8569 9.2167 -2.49231 39.8569 9.2167 -2.49231
151 1 41.016 7.60762 -0.869201 41.016 7.60762 -0.869201
152 2 43.0351 7.57972 0.699886 43.0351 7.57972 0.699886
153 2 42.8782 7.73695 -2.59509 42.8782 7.73695 -2.59509
154 1 43.8819 9.27999 -0.928258 43.8819 9.27999 -0.928258
155 2 45.9134 9.37363 0.707089 45.9134 9.37363 0.707089
156 2 45.7127 9.08643 -2.61639 45.7127 9.08643 -2.61639
157 1 46.8098 7.53982 -0.928741 46.8098 7.53982 -0.928741
158 2 48.6681 7.51634 0.684226 48.6681 7.51634 0.684226
159 2 48.6823 7.48373 -2.61402 48.6823 7.48373 -2.61402
160 1 49.6347 9.19147 -0.977758 49.6347 9.19147 -0.977758
161 2 51.2693 9.42191 0.762638 51.2693 9.42191 0.762638
162 2 51.6878 9.1591 -2.46545 51.6878 9.1591 -2.46545
163 1 1.0354 10.9108 -0.890727 1.0354 10.9108 -0.890727
164 2 2.81387 10.8754 0.884497 2.81387 10.8754 0.884497
165 2 2.99858 11.0376 -2.40649 2.99858 11.0376 -2.40649
166 1 3.8525 12.6452 -0.627107 3.8525 12.6452 -0.627107
167 2 5.72098 12.5431 1.01765 5.72098 12.5431 1.01765
168 2 5.69853 12.5809 -2.2563 5.69853 12.5809 -2.2563
169 1 6.63401 10.9138 -0.613491 6.63401 10.9138 -0.613491
170 2 8.62072 11.0269 0.966786 8.62072 11.0269 0.966786
171 2 8.58494 10.8899 -2.32888 8.58494 10.8899 -2.32888
172 1 9.60721 12.5995 -0.817716 9.60721 12.5995 -0.817716
173 2 11.26 12.5152 1.06007 11.26 12.5152 1.06007
174 2 11.7427 12.8221 -2.21839 11.7427 12.8221 -2.21839
175 1 12.4902 10.9496 -0.656288 12.4902 10.9496 -0.656288
176 2 14.2293 10.8926 1.08098 14.2293 10.8926 1.08098
177 2 14.5283 11.0881 -2.06444 14.5283 11.0881 -2.06444
178 1 15.3595 12.5883 -0.360353 15.3595 12.5883 -0.360353
179 2 17.0957 12.5095 1.49503 17.0957 12.5095 1.49503
180 2 17.3319 12.5537 -1.72315 17.3319 12.5537 -1.72315
181 1 18.1702 10.8986 -0.0817198 18.1702 10.8986 -0.0817198
182 2 20.0328 10.6558 1.49625 20.0328 10.6558 1.49625
183 2 19.948 11.0099 -1.78203 19.948 11.0099 -1.78203
184 1 20.9798 12.4676 0.065007 20.9798 12.4676 0.065007
185 2 23.0134 12.3544 1.41881 23.0134 12.3544 1.41881
186 2 22.6316 12.5563 -1.76682 22.6316 12.5563 -1.76682
187 1 23.8314 10.7901 -0.314174 23.8314 10.7901 -0.314174
188 2 25.8327 10.701 1.12313 25.8327 10.701 1.12313
189 2 25.7471 10.872 -2.14128 25.7471 10.872 -2.14128
190 1 26.7691 12.4875 -0.474829 26.7691 12.4875 -0.474829
191 2 28.6909 12.5422 1.16643 28.6909 12.5422 1.16643
192 2 28.6932 12.5048 -2.13325 28.6932 12.5048 -2.13325
193 1 29.6363 10.855 -0.533331 29.6363 10.855 -0.533331
194 2 31.6885 10.9625 0.920796 31.6885 10.9625 0.920796
195 2 31.4561 10.7593 -2.34591 31.4561 10.7593 -2.34591
196 1 32.4379 12.5032 -0.771926 32.4379 12.5032 -0.771926
197 2 34.2471 12.5184 0.877565 34.2471 12.5184 0.877565
198 2 34.4423 12.4718 -2.33174 34.4423 12.4718 -2.33174
199 1 35.3558 10.8685 -0.600128 35.3558 10.8685 -0.600128
200 2 37.1712 11.0152 0.887123 37.1712 11.0152 0.887123
201 2 37.1116 10.8478 -2.37397 37.1116 10.8478 -2.37397
202 1 38.1689 12.549 -0.78115 38.1689 12.549 -0.78115
203 2 40.0675 12.3905 0.873356 40.0675 12.3905 0.873356
204 2 40.057 12.8037 -2.37256 40.057 12.8037 -2.37256
205 1 41.0267 10.9337 -1.01507 41.0267 10.9337 -1.01507
206 2 42.9444 10.9963 0.683166 42.9444 10.9963 0.683166
207 2 42.9441 10.9369 -2.61074 42.9441 10.9369 -2.61074
208 1 43.8397 12.5916 -0.957656 43.8397 12.5916 -0.957656
209 2 45.7493 12.4284 0.614478 45.7493 12.4284 0.614478
210 2 45.7753 12.6591 -2.5682 45.7753 12.6591 -2.5682
211 1 46.6793 10.8567 -1.08312 46.6793 10.8567 -1.08312
212 2 48.6163 10.8931 0.659996 48.6163 10.8931 0.659996
213 2 48.7643 10.9257 -2.61977 48.7643 10.9257 -2.61977
214 1 49.5393 12.612 -0.805847 49.5393 12.612 -0.805847
215 2 51.573 12.5003 0.788678 51.573 12.5003 0.788678
216 2 51.4125 12.6 -2.39891 51.4125 12.6 -2.39891
217 1 1.02127 14.1533 -0.789691 1.02127 14.1533 -0.789691
218 2 2.82706 14.2062 0.916296 2.82706 14.2062 0.916296
219 2 3.03929 14.3054 -2.28944 3.03929 14.3054 -2.28944
220 1 3.87058 15.9102 -0.571492 3.87058 15.9102 -0.571492
221 2 5.7199 15.8545 1.04903 5.7199 15.8545 1.04903
222 2 5.76723 15.7812 -2.31582 5.76723 15.7812 -2.31582
223 1 6.71619 14.2142 -0.65737 6.71619 14.2142 -0.65737
224 2 8.56273 13.9993 0.940207 8.56273 13.9993 0.940207
225 2 8.69781 14.4154 -2.24661 8.69781 14.4154 -2.24661
226 1 9.59875 15.8894 -0.330004 9.59875 15.8894 -0.330004
227 2 11.4079 15.7677 1.32945 11.4079 15.7677 1.32945
228 2 11.557 15.8864 -1.91605 11.557 15.8864 -1.91605
229 1 12.4416 14.1865 -0.294477 12.4416 14.1865 -0.294477
230 2 14.3378 13.9199 1.43168 14.3378 13.9199 1.43168
231 2 14.4793 14.4239 -1.87308 14.4793 14.4239 -1.87308
232 1 15.2955 15.8232 0.0699491 15.2955 15.8232 0.0699491
233 2 17.2578 15.9122 1.6912 17.2578 15.9122 1.6912
234 2 17.3037 15.7472 -1.5636 17.3037 15.7472 -1.5636
235 1 18.219 14.2046 0.134248 18.219 14.2046 0.134248
236 2 20.1744 14.1581 1.79337 20.1744 14.1581 1.79337
237 2 20.1278 14.2443 -1.50843 20.1278 14.2443 -1.50843
238 1 21.0836 15.8728 0.0907824 21.0836 15.8728 0.0907824
239 2 23.0142 15.4583 1.58998 23.0142 15.4583 1.58998
240 2 22.9588 15.965 -1.5857 22.9588 15.965 -1.5857
241 1 23.8922 14.0446 -0.315453 23.8922 14.0446 -0.315453
242 2 25.753 13.9721 1.26746 25.753 13.9721 1.26746
243 2 25.7978 14.2511 -1.88294 25.7978 14.2511 -1.88294
244 1 26.7518 15.7727 -0.227713 26.7518 15.7727 -0.227713
245 2 28.7127 15.7645 1.25485 28.7127 15.7645 1.25485
246 2 28.544 15.9554 -2.05484 28.544 15.9554 -2.05484
247 1 29.6471 14.2155 -0.509317 29.6471 14.2155 -0.509317
248 2 31.498 13.9822 1.06476 31.498 13.9822 1.06476
249 2 31.4448 14.364 -2.29501 31.4448 14.364 -2.29501
250 1 32.4783 15.7844 -0.483657 32.4783 15.7844 -0.483657
251 2 34.3625 15.6265 1.11649 34.3625 15.6265 1.11649
252 2 34.3267 16.1089 -2.11703 34.3267 16.1089 -2.11703
253 1 35.3032 14.2704 -0.708047 35.3032 14.2704 -0.708047
254 2 37.13 14.0007 0.947149 37.13 14.0007 0.947149
255 2 37.1895 14.4044 -2.26457 37.1895 14.4044 -2.26457
256 1 38.1961 15.8064 -0.405012 38.1961 15.8064 -0.405012
257 2 40.1976 15.8292 1.03146 40.1976 15.8292 1.03146
258 2 39.9787 15.9306 -2.21528 39.9787 15.9306 -2.21528
259 1 41.0021 14.2093 -0.604808 41.0021 14.2093 -0.604808
260 2 43.0262 14.2668 0.818348 43.0262 14.2668 0.818348
261 2 42.858 14.3637 -2.25753 42.858 14.3637 -2.25753
262 1 43.8942 15.9181 -0.694302 43.8942 15.9181 -0.694302
263 2 45.6547 15.8239 1.0079 45.6547 15.8239 1.0079
264 2 45.8801 15.9753 -2.2494 45.8801 15.9753 -2.2494
265 1 46.7126 14.24 -0.734075 46.7126 14.24 -0.734075
266 2 48.6986 14.0771 0.829884 48.6986 14.0771 0.829884
267 2 48.5884 14.2431 -2.33749 48.5884 14.2431 -2.33749
268 1 49.6905 15.7687 -0.634411 49.6905 15.7687 -0.634411
269 2 51.6832 15.8085 0.966969 51.6832 15.8085 0.966969
270 2 51.442 15.8982 -2.4388 51.442 15.8982 -2.4388
271 1 1.09311 17.4472 -0.640049 1.09311 17.4472 -0.640049
272 2 2.90065 17.4738 1.03823 2.90065 17.4738 1.03823
273 2 3.04989 17.5779 -2.26068 3.04989 17.5779 -2.26068
274 1 3.97885 19.1547 -0.544673 3.97885 19.1547 -0.544673
275 2 5.84615 18.7973 1.17811 5.84615 18.7973 1.17811
276 2 5.97006 19.3345 -2.08202 5.97006 19.3345 -2.08202
277 1 6.82776 17.4551 -0.59521 6.82776 17.4551 -0.59521
278 2 8.47017 17.4216 1.28493 8.47017 17.4216 1.28493
279 2 8.96382 17.6609 -1.98342 8.96382 17.6609 -1.98342
280 1 9.61934 19.24 -0.0783111 9.61934 19.24 -0.0783111
281 2 11.3896 18.965 1.57466 11.3896 18.965 1.57466
282 2 11.5282 19.2946 -1.63149 11.5282 19.2946 -1.63149
283 1 12.4865 17.5591 -0.1522 12.4865 17.5591 -0.1522
284 2 14.2679 17.5917 1.5462 14.2679 17.5917 1.5462
285 2 14.4925 17.4343 -1.72135 14.4925 17.4343 -1.72135
286 1 15.2859 19.0841 -0.0540152 15.2859 19.0841 -0.0540152
287 2 17.1073 19.1052 1.552 17.1073 19.1052 1.552
288 2 17.3232 19.1111 -1.72447 17.3232 19.1111 -1.72447
289 1 18.2008 17.5563 -0.00536622 18.2008 17.5563 -0.00536622
290 2 20.0859 17.5167 1.69306 20.0859 17.5167 1.69306
291 2 20.2032 17.5156 -1.56549 20.2032 17.5156 -1.56549
292 1 21.064 19.1473 0.153345 21.064 19.1473 0.153345
293 2 22.772 19.1679 1.8621 22.772 19.1679 1.8621
294 2 23.0171 19.1244 -1.352 23.0171 19.1244 -1.352
295 1 23.9284 17.3232 0.203255 23.9284 17.3232 0.203255
296 2 26.0351 17.3093 1.64255 26.0351 17.3093 1.64255
297 2 25.6414 17.5181 -1.63205 25.6414 17.5181 -1.63205
298 1 26.7805 19.0998 0.0360363 26.7805 19.0998 0.0360363
299 2 28.7336 19.0115 1.45056 28.7336 19.0115 1.45056
300 2 28.6143 19.3203 -1.75921 28.6143 19.3203 -1.75921
301 1 29.5986 17.5185 -0.450488 29.5986 17.5185 -0.450488
302 2 31.469 17.2634 1.25005 31.469 17.2634 1.25005
303 2 31.5151 17.643 -1.97395 31.5151 17.643 -1.97395
304 1 32.4716 19.1113 -0.14583 32.4716 19.1113 -0.14583
305 2 34.3445 18.9738 1.51624 34.3445 18.9738 1.51624
306 2 34.3903 19.2848 -1.73875 34.3903 19.2848 -1.73875
307 1 35.2593 17.505 -0.269451 35.2593 17.505 -0.269451
308 2 37.284 17.3832 1.33055 37.284 17.3832 1.33055
309 2 37.1199 17.5048 -1.93364 37.1199 17.5048 -1.93364
310 1 38.1958 19.2202 -0.290208 38.1958 19.2202 -0.290208
311 2 40.0501 18.9374 1.24274 40.0501 18.9374 1.24274
312 2 40.1713 19.4706 -1.87517 40.1713 19.4706 -1.87517
313 1 41.0344 17.5393 -0.607313 41.0344 17.5393 -0.607313
314 2 42.7795 17.3339 1.04075 42.7795 17.3339 1.04075
315 2 42.9784 17.8105 -2.18828 42.9784 17.8105 -2.18828
316 1 43.895 19.1564 -0.282638 43.895 19.1564 -0.282638
317 2 45.915 19.0433 1.29084 45.915 19.0433 1.29084
318 2 45.8326 19.2412 -1.95489 45.8326 19.2412 -1.95489
319 1 46.7391 17.4189 -0.487581 46.7391 17.4189 -0.487581
320 2 48.7726 17.1848 1.06185 48.7726 17.1848 1.06185
321 2 48.6163 17.415 -2.17075 48.6163 17.415 -2.17075
322 1 49.5402 19.0182 -0.535811 49.5402 19.0182 -0.535811
323 2 51.4241 19.1367 1.03151 51.4241 19.1367 1.03151
324 2 51.4684 19.1569 -2.23214 51.4684 19.1569 -2.23214
325 1 1.0228 20.7728 -0.663143 1.0228 20.7728 -0.663143
326 2 2.74334 20.5383 1.13205 2.74334 20.5383 1.13205
327 2 3.07961 20.8622 -2.13406 3.07961 20.8622 -2.13406
328 1 3.86409 22.3421 -0.287021 3.86409 22.3421 -0.287021
329 2 5.71985 22.5186 1.46208 5.71985 22.5186 1.46208
330 2 5.93809 22.3781 -1.86969 5.93809 22.3781 -1.86969
331 1 6.79263 20.7901 -0.154313 6.79263 20.7901 -0.154313
332 2 8.50999 20.7839 1.60124 8.50999 20.7839 1.60124
333 2 8.82807 20.8253 -1.6624 8.82807 20.8253 -1.6624
334 1 9.55023 22.5399 -0.0222876 9.55023 22.5399 -0.0222876
335 2 11.4195 22.4483 1.80346 11.4195 22.4483 1.80346
336 2 11.6675 22.4385 -1.49731 11.6675 22.4385 -1.49731
337 1 12.4138 20.8267 0.17513 12.4138 20.8267 0.17513
338 2 14.4218 20.8151 1.65243 14.4218 20.8151 1.65243
339 2 14.2874 20.8761 -1.62058 14.2874 20.8761 -1.62058
340 1 15.3005 22.4191 -0.0492019 15.3005 22.4191 -0.0492019
341 2 17.1231 22.3535 1.7539 17.1231 22.3535 1.7539
342 2 17.403 22.6498 -1.48902 17.403 22.6498 -1.48902
343 1 18.0988 20.7703 0.0357979 18.0988 20.7703 0.0357979
344 2 19.916 20.6482 1.80174 19.916 20.6482 1.80174
345 2 20.0688 20.9112 -1.40285 20.0688 20.9112 -1.40285
346 1 21.0553 22.4135 0.295214 21.0553 22.4135 0.295214
347 2 22.9621 22.5024 1.85605 22.9621 22.5024 1.85605
348 2 22.9574 22.335 -1.36241 22.9574 22.335 -1.36241
349 1 23.9554 20.6592 0.298736 23.9554 20.6592 0.298736
350 2 25.845 20.4945 1.8986 25.845 20.4945 1.8986
351 2 25.8825 20.8689 -1.34357 25.8825 20.8689 -1.34357
352 1 26.7462 22.3602 0.545172 26.7462 22.3602 0.545172
353 2 28.8771 22.2676 1.80688 28.8771 22.2676 1.80688
354 2 28.3715 22.5395 -1.35928 28.3715 22.5395 -1.35928
355 1 29.6045 20.8311 -0.0703084 29.6045 20.8311 -0.0703084
356 2 31.4508 20.6044 1.60342 31.4508 20.6044 1.60342
357 2 31.5483 20.8401 -1.64377 31.5483 20.8401 -1.64377
358 1 32.4639 22.47 0.140964 32.4639 22.47 0.140964
359 2 34.3666 22.1584 1.80331 34.3666 22.1584 1.80331
360 2 34.4124 22.5021 -1.46006 34.4124 22.5021 -1.46006
361 1 35.3565 20.7641 0.0205655 35.3565 20.7641 0.0205655
362 2 37.3794 20.6332 1.57276 37.3794 20.6332 1.57276
363 2 37.2512 21.0239 -1.64158 37.2512 21.0239 -1.64158
364 1 38.217 22.5225 0.214988 38.217 22.5225 0.214988
365 2 40.0821 22.3456 1.75272 40.0821 22.3456 1.75272
366 2 40.0367 22.5535 -1.51251 40.0367 22.5535 -1.51251
367 1 41.023 20.7996 -0.022362 41.023 20.7996 -0.022362
368 2 42.923 20.5663 1.60482 42.923 20.5663 1.60482
369 2 42.8817 21.0565 -1.62354 42.8817 21.0565 -1.62354
370 1 43.9286 22.4603 0.192926 43.9286 22.4603 0.192926
371 2 46.0618 22.2808 1.63315 46.0618 22.2808 1.63315
372 2 45.5844 22.56 -1.69181 45.5844 22.56 -1.69181
373 1 46.7757 20.8013 -0.258619 46.7757 20.8013 -0.258619
374 2 48.7668 20.5246 1.26016 48.7668 20.5246 1.26016
375 2 48.6191 20.857 -1.96191 48.6191 20.857 -1.96191
376 1 49.5669 22.4358 -0.274238 49.5669 22.4358 -0.274238
377 2 51.5444 22.3203 1.19183 51.5444 22.3203 1.19183
378 2 51.3291 22.4768 -2.14283 51.3291 22.4768 -2.14283
379 1 0.901078 24.0387 -0.437836 0.901078 24.0387 -0.437836
380 2 2.82653 24.131 1.20048 2.82653 24.131 1.20048
381 2 2.895 23.9239 -1.99527 2.895 23.9239 -1.99527
382 1 3.85274 25.7296 -0.349524 3.85274 25.7296 -0.349524
383 2 5.58654 25.7798 1.46859 5.58654 25.7798 1.46859
384 2 5.97393 25.8442 -1.91326 5.97393 25.8442 -1.91326
385 1 6.68938 24.1207 -0.16202 6.68938 24.1207 -0.16202
386 2 8.57542 24.0748 1.61872 8.57542 24.0748 1.61872
387 2 8.78714 24.1594 -1.70997 8.78714 24.1594 -1.70997
388 1 9.65819 25.7913 0.170385 9.65819 25.7913 0.170385
389 2 11.5753 25.7124 1.81569 11.5753 25.7124 1.81569
390 2 11.5679 25.8201 -1.38132 11.5679 25.8201 -1.38132
391 1 12.4953 24.1282 0.122514 12.4953 24.1282 0.122514
392 2 14.4128 23.954 1.69089 14.4128 23.954 1.69089
393 2 14.3014 24.0942 -1.50097 14.3014 24.0942 -1.50097
394 1 15.3676 25.7124 0.123836 15.3676 25.7124 0.123836
395 2 17.0334 25.6341 2.00864 17.0334 25.6341 2.00864
396 2 17.5381 25.8224 -1.19656 17.5381 25.8224 -1.19656
397 1 18.1957 24.1121 0.357872 18.1957 24.1121 0.357872
398 2 20.1139 23.9798 2.06463 20.1139 23.9798 2.06463
399 2 20.3209 24.265 -1.19994 20.3209 24.265 -1.19994
400 1 21.0383 25.749 0.653292 21.0383 25.749 0.653292
401 2 23.2447 25.5987 2.06045 23.2447 25.5987 2.06045
402 2 22.7964 25.9054 -1.19039 22.7964 25.9054 -1.19039
403 1 23.8772 24.132 0.17754 23.8772 24.132 0.17754
404 2 25.7692 24.0869 1.94579 25.7692 24.0869 1.94579
405 2 25.9269 23.9921 -1.27219 25.9269 23.9921 -1.27219
406 1 26.7513 25.7554 0.357644 26.7513 25.7554 0.357644
407 2 28.6029 25.6857 2.10948 28.6029 25.6857 2.10948
408 2 28.5193 25.7381 -1.34731 28.5193 25.7381 -1.34731
409 1 29.5795 24.0979 0.316692 29.5795 24.0979 0.316692
410 2 31.4196 24.0492 1.86266 31.4196 24.0492 1.86266
411 2 31.3759 24.2382 -1.40975 31.3759 24.2382 -1.40975
412 1 32.4127 25.7334 0.304264 32.4127 25.7334 0.304264
413 2 34.333 25.7818 1.84362 34.333 25.7818 1.84362
414 2 34.2651 25.6221 -1.32409 34.2651 25.6221 -1.32409
415 1 35.3069 24.0574 0.349929 35.3069 24.0574 0.349929
416 2 37.3311 23.9906 1.89817 37.3311 23.9906 1.89817
417 2 37.2059 24.1278 -1.30191 37.2059 24.1278 -1.30191
418 1 38.1121 25.7422 0.39333 38.1121 25.7422 0.39333
419 2 40.2666 25.8817 1.92541 40.2666 25.8817 1.92541
420 2 39.9828 25.7949 -1.2405 39.9828 25.7949 -1.2405
421 1 41.0538 24.0977 0.266678 41.0538 24.0977 0.266678
422 2 43.053 24.0961 1.84638 43.053 24.0961 1.84638
423 2 42.9397 24.1154 -1.45273 42.9397 24.1154 -1.45273
424 1 43.9277 25.7344 0.193459 43.9277 25.7344 0.193459
425 2 45.9346 25.6284 1.80539 45.9346 25.6284 1.80539
426 2 45.837 25.7691 -1.55146 45.837 25.7691 -1.55146
427 1 46.7422 24.1067 0.04273 46.7422 24.1067 0.04273
428 2 48.7929 24.024 1.50239 48.7929 24.024 1.50239
429 2 48.5257 24.1434 -1.74557 48.5257 24.1434 -1.74557
430 1 49.5238 25.716 -0.177483 49.5238 25.716 -0.177483
431 2 51.4902 25.6133 1.27523 51.4902 25.6133 1.27523
432 2 51.2 25.8081 -1.92899 51.2 25.8081 -1.92899
433 1 0.976724 27.3855 -0.358063 0.976724 27.3855 -0.358063
434 2 2.87109 27.3207 1.28756 2.87109 27.3207 1.28756
435 2 2.78417 27.2508 -1.96796 2.78417 27.2508 -1.96796
436 1 3.85223 29.1075 -0.277557 3.85223 29.1075 -0.277557
437 2 5.68148 29.1252 1.48973 5.68148 29.1252 1.48973
438 2 5.72152 29.0442 -1.86269 5.72152 29.0442 -1.86269
439 1 6.7013 27.4346 -0.108952 6.7013 27.4346 -0.108952
440 2 8.48763 27.3548 1.70779 8.48763 27.3548 1.70779
441 2 8.75253 27.4542 -1.57749 8.75253 27.4542 -1.57749
442 1 9.52786 29.0427 0.187078 9.52786 29.0427 0.187078
443 2 11.3833 28.9226 1.86077 11.3833 28.9226 1.86077
444 2 11.4502 29.0093 -1.34659 11.4502 29.0093 -1.34659
445 1 12.4501 27.3652 0.245948 12.4501 27.3652 0.245948
446 2 14.3148 27.1666 1.95602 14.3148 27.1666 1.95602
447 2 14.3767 27.5279 -1.3324 14.3767 27.5279 -1.3324
448 1 15.2185 28.9618 0.558788 15.2185 28.9618 0.558788
449 2 17.0788 28.9385 2.25758 17.0788 28.9385 2.25758
450 2 17.2201 29.0741 -0.995504 17.2201 29.0741 -0.995504
451 1 18.1725 27.3787 0.641598 18.1725 27.3787 0.641598
452 2 20.0918 27.2885 2.32388 20.0918 27.2885 2.32388
453 2 20.0605 27.2588 -1.01098 20.0605 27.2588 -1.01098
454 1 20.9798 28.9681 0.770119 20.9798 28.9681 0.770119
455 2 23.0268 28.868 2.28005 23.0268 28.868 2.28005
456 2 22.7433 29.183 -0.908275 22.7433 29.183 -0.908275
457 1 23.8465 27.3781 0.448039 23.8465 27.3781 0.448039
458 2 25.7281 27.2849 2.1023 25.7281 27.2849 2.1023
459 2 25.8161 27.5622 -1.10191 25.8161 27.5622 -1.10191
460 1 26.7527 29.1014 0.648075 26.7527 29.1014 0.648075
461 2 28.6435 29.0884 2.16825 28.6435 29.0884 2.16825
462 2 28.4895 28.9483 -1.11324 28.4895 28.9483 -1.11324
463 1 29.4506 27.3828 0.462239 29.4506 27.3828 0.462239
464 2 31.588 27.3736 1.98466 31.588 27.3736 1.98466
465 2 31.3039 27.2458 -1.34229 31.3039 27.2458 -1.34229
466 1 32.3198 28.9859 0.214141 32.3198 28.9859 0.214141
467 2 34.2408 29.1005 1.80181 34.2408 29.1005 1.80181
468 2 34.1775 28.9589 -1.44653 34.1775 28.9589 -1.44653
469 1 35.2281 27.3537 0.161183 35.2281 27.3537 0.161183
470 2 37.0257 27.414 2.06752 37.0257 27.414 2.06752
471 2 37.2476 27.3646 -1.27817 37.2476 27.3646 -1.27817
472 1 38.1604 29.1044 0.528615 38.1604 29.1044 0.528615
473 2 40.253 29.141 2.0505 40.253 29.141 2.0505
474 2 39.9269 29.0136 -1.35827 39.9269 29.0136 -1.35827
475 1 41.0791 27.4294 0.258525 41.0791 27.4294 0.258525
476 2 42.9629 27.3764 1.81411 42.9629 27.3764 1.81411
477 2 42.9073 27.3347 -1.49339 42.9073 27.3347 -1.49339
478 1 43.8264 29.0954 0.0779591 43.8264 29.0954 0.0779591
479 2 45.7855 29.1645 1.62312 45.7855 29.1645 1.62312
480 2 45.6172 29.0478 -1.56373 45.6172 29.0478 -1.56373
481 1 46.7462 27.4995 0.128472 46.7462 27.4995 0.128472
482 2 48.6924 27.3953 1.57282 48.6924 27.3953 1.57282
483 2 48.4899 27.3534 -1.63826 48.4899 27.3534 -1.63826
484 1 49.5831 29.0165 -0.265634 49.5831 29.0165 -0.265634
485 2 51.4765 28.8569 1.34886 51.4765 28.8569 1.34886
486 2 51.4126 29.0013 -1.90396 51.4126 29.0013 -1.90396
487 1 1.00832 30.6441 -0.202996 1.00832 30.6441 -0.202996
488 2 2.79784 30.5685 1.45616 2.79784 30.5685 1.45616
489 2 2.91652 30.8618 -1.76336 2.91652 30.8618 -1.76336
490 1 3.88584 32.341 -0.00741207 3.88584 32.341 -0.00741207
491 2 5.82558 32.3508 1.55564 5.82558 32.3508 1.55564
492 2 5.72347 32.4304 -1.75412 5.72347 32.4304 -1.75412
493 1 6.72098 30.7328 -0.167257 6.72098 30.7328 -0.167257
494 2 8.38705 30.7063 1.70399 8.38705 30.7063 1.70399
495 2 8.85718 30.7469 -1.51696 8.85718 30.7469 -1.51696
496 1 9.55959 32.3248 0.154618 9.55959 32.3248 0.154618
497 2 11.2933 32.4886 1.79629 11.2933 32.4886 1.79629
498 2 11.6016 32.1446 -1.4353 11.6016 32.1446 -1.4353
499 1 12.3548 30.6634 0.38681 12.3548 30.6634 0.38681
500 2 14.1455 30.6234 2.13871 14.1455 30.6234 2.13871
501 2 14.3534 30.7462 -1.06142 14.3534 30.7462 -1.06142
502 1 15.2188 32.3153 0.57281 15.2188 32.3153 0.57281
503 2 17.0678 32.423 2.28015 17.0678 32.423 2.28015
504 2 17.1813 32.1613 -0.965083 17.1813 32.1613 -0.965083
505 1 18.0952 30.623 0.797498 18.0952 30.623 0.797498
506 2 20.0563 30.7599 2.32737 20.0563 30.7599 2.32737
507 2 19.9633 30.68 -0.992868 19.9633 30.68 -0.992868
508 1 20.9465 32.2621 0.591269 20.9465 32.2621 0.591269
509 2 22.8206 32.3218 2.26168 22.8206 32.3218 2.26168
510 2 22.7795 32.1565 -0.928467 22.7795 32.1565 -0.928467
511 1 23.811 30.6532 0.759794 23.811 30.6532 0.759794
512 2 26.0052 30.8714 2.23516 26.0052 30.8714 2.23516
513 2 25.6394 30.52 -1.03805 25.6394 30.52 -1.03805
514 1 26.6927 32.3996 0.391331 26.6927 32.3996 0.391331
515 2 28.7314 32.464 1.90737 28.7314 32.464 1.90737
516 2 28.595 32.16 -1.42606 28.595 32.16 -1.42606
517 1 29.5439 30.6898 0.356379 29.5439 30.6898 0.356379
518 2 31.5533 30.8163 1.83992 31.5533 30.8163 1.83992
519 2 31.285 30.5745 -1.46312 31.285 30.5745 -1.46312
520 1 32.3695 32.235 -0.0481892 32.3695 32.235 -0.0481892
521 2 34.2441 32.1812 1.65035 34.2441 32.1812 1.65035
522 2 34.3754 32.3324 -1.53057 34.3754 32.3324 -1.53057
523 1 35.2631 30.6097 0.112278 35.2631 30.6097 0.112278
524 2 36.9906 30.7984 1.81949 36.9906 30.7984 1.81949
525 2 37.2923 30.5382 -1.33134 37.2923 30.5382 -1.33134
526 1 38.1597 32.4229 0.242349 38.1597 32.4229 0.242349
527 2 40.2291 32.5009 1.68419 40.2291 32.5009 1.68419
528 2 39.8845 32.119 -1.55949 39.8845 32.119 -1.55949
529 1 40.999 30.7037 0.191457 40.999 30.7037 0.191457
530 2 43.0379 30.8657 1.75953 43.0379 30.8657 1.75953
531 2 42.6574 30.6665 -1.6081 42.6574 30.6665 -1.6081
532 1 43.7587 32.4212 0.0183077 43.7587 32.4212 0.0183077
533 2 45.7549 32.2772 1.47706 45.7549 32.2772 1.47706
534 2 45.5253 32.3924 -1.7237 45.5253 32.3924 -1.7237
535 1 46.7034 30.7525 -0.173402 46.7034 30.7525 -0.173402
536 2 48.6269 30.6405 1.51075 48.6269 30.6405 1.51075
537 2 48.6089 30.9056 -1.73957 48.6089 30.9056 -1.73957
538 1 49.4845 32.3574 -0.0626762 49.4845 32.3574 -0.0626762
539 2 51.4698 32.2224 1.52419 51.4698 32.2224 1.52419