ITEM: TIMESTEP
42900
ITEM: NUMBER OF ATOMS
810
ITEM: BOX BOUNDS pp pp pp
7.5077104316956633e-01 5.2266833956831725e+01
7.9598762997656980e-01 5.0220227370022599e+01
-1.0000000000000000e+01 1.0000000000000000e+01
ITEM: ATOMS id type x y z xu yu zu
1 1 0.986306 1.04593 -0.247044 0.986306 1.04593 -0.247044
2 2 2.88868 0.900318 1.42244 2.88868 0.900318 1.42244
3 2 2.84425 50.4912 -1.83632 2.84425 1.06697 -1.83632
4 1 3.82919 2.56722 -0.229136 3.82919 2.56722 -0.229136
5 2 5.62153 2.66336 1.47848 5.62153 2.66336 1.47848
6 2 5.70282 2.58864 -1.86061 5.70282 2.58864 -1.86061
7 1 6.67767 0.968025 -0.209766 6.67767 0.968025 -0.209766
8 2 8.69721 0.952876 1.43033 8.69721 0.952876 1.43033
9 2 8.59494 1.08883 -1.87712 8.59494 1.08883 -1.87712
10 1 9.50399 2.67621 -0.179184 9.50399 2.67621 -0.179184
11 2 11.4063 2.70914 1.38722 11.4063 2.70914 1.38722
12 2 11.2966 2.48719 -1.88933 11.2966 2.48719 -1.88933
13 1 12.3112 1.04207 -0.141446 12.3112 1.04207 -0.141446
14 2 14.262 0.818822 1.44106 14.262 0.818822 1.44106
15 2 14.3019 50.6703 -1.74621 14.3019 1.24604 -1.74621
16 1 15.2661 2.6459 0.0311262 15.2661 2.6459 0.0311262
17 2 17.4645 2.54889 1.37388 17.4645 2.54889 1.37388
18 2 16.9193 2.75889 -1.86208 16.9193 2.75889 -1.86208
19 1 18.0596 0.966085 -0.504914 18.0596 0.966085 -0.504914
20 2 20.0105 50.3814 1.07529 20.0105 0.957155 1.07529
21 2 20.0192 1.05399 -2.2325 20.0192 1.05399 -2.2325
22 1 20.9043 2.64778 -0.472409 20.9043 2.64778 -0.472409
23 2 22.7309 2.32986 1.20249 22.7309 2.32986 1.20249
24 2 22.9014 2.85984 -2.01565 22.9014 2.85984 -2.01565
25 1 23.8108 0.985122 -0.632057 23.8108 0.985122 -0.632057
26 2 25.7009 0.935362 1.04618 25.7009 0.935362 1.04618
27 2 25.6654 1.00572 -2.31402 25.6654 1.00572 -2.31402
28 1 26.6106 2.60807 -0.57297 26.6106 2.60807 -0.57297
29 2 28.6237 2.59993 1.06732 28.6237 2.59993 1.06732
30 2 28.3871 2.60738 -2.26948 28.3871 2.60738 -2.26948
31 1 29.5517 1.02709 -0.733715 29.5517 1.02709 -0.733715
32 2 31.5716 50.4191 0.764511 31.5716 0.994863 0.764511
33 2 31.3559 0.966701 -2.48874 31.3559 0.966701 -2.48874
34 1 32.3618 2.60615 -0.897699 32.3618 2.60615 -0.897699
35 2 34.392 2.51259 0.656806 34.392 2.51259 0.656806
36 2 34.2654 2.9013 -2.46462 34.2654 2.9013 -2.46462
37 1 35.3374 1.02472 -1.14489 35.3374 1.02472 -1.14489
38 2 37.2397 50.445 0.554369 37.2397 1.02076 0.554369
39 2 37.0867 1.08536 -2.71662 37.0867 1.08536 -2.71662
40 1 38.2191 2.60203 -1.04717 38.2191 2.60203 -1.04717
41 2 40.0625 2.53965 0.712312 40.0625 2.53965 0.712312
42 2 40.265 2.69571 -2.60163 40.265 2.69571 -2.60163
43 1 41.0724 1.00991 -0.951228 41.0724 1.00991 -0.951228
44 2 43.0679 0.899548 0.716451 43.0679 0.899548 0.716451
45 2 42.9072 1.03151 -2.58762 42.9072 1.03151 -2.58762
46 1 43.9349 2.65497 -0.884615 43.9349 2.65497 -0.884615
47 2 45.7735 2.68472 0.786955 45.7735 2.68472 0.786955
48 2 45.8683 2.79217 -2.43774 45.8683 2.79217 -2.43774
49 1 46.8055 1.00484 -0.872362 46.8055 1.00484 -0.872362
50 2 48.5568 1.11019 1.04733 48.5568 1.11019 1.04733
51 2 48.8864 0.989602 -2.32622 48.8864 0.989602 -2.32622
52 1 49.7028 2.72962 -0.526487 49.7028 2.72962 -0.526487
53 2 51.5101 2.70195 1.19225 51.5101 2.70195 1.19225
54 2 51.6243 2.57699 -2.07764 51.6243 2.57699 -2.07764
55 1 0.96393 4.35946 -0.377645 0.96393 4.35946 -0.377645
56 2 2.90708 4.31043 1.35812 2.90708 4.31043 1.35812
57 2 2.90893 4.22263 -1.96801 2.90893 4.22263 -1.96801
58 1 3.90251 5.88428 -0.353173 3.90251 5.88428 -0.353173
59 2 5.79466 5.85467 1.42697 5.79466 5.85467 1.42697
60 2 5.81029 5.92638 -1.87116 5.81029 5.92638 -1.87116
61 1 6.62841 4.25057 -0.217228 6.62841 4.25057 -0.217228
62 2 8.57889 4.3364 1.45944 8.57889 4.3364 1.45944
63 2 8.50387 4.39269 -1.78437 8.50387 4.39269 -1.78437
64 1 9.53818 5.931 -0.117872 9.53818 5.931 -0.117872
65 2 11.441 6.00085 1.4687 11.441 6.00085 1.4687
66 2 11.4646 5.86352 -1.83285 11.4646 5.86352 -1.83285
67 1 12.4054 4.27909 -0.317388 12.4054 4.27909 -0.317388
68 2 14.2092 4.43965 1.40347 14.2092 4.43965 1.40347
69 2 14.4787 4.2383 -1.77432 14.4787 4.2383 -1.77432
70 1 15.3279 5.98438 -0.233558 15.3279 5.98438 -0.233558
71 2 17.0597 5.90831 1.46276 17.0597 5.90831 1.46276
72 2 17.1477 6.06361 -1.84828 17.1477 6.06361 -1.84828
73 1 18.1096 4.30037 -0.23855 18.1096 4.30037 -0.23855
74 2 20.0476 4.07677 1.42182 20.0476 4.07677 1.42182
75 2 20.0806 4.57198 -1.87694 20.0806 4.57198 -1.87694
76 1 21.0152 5.91747 0.00803434 21.0152 5.91747 0.00803434
77 2 22.9987 5.93593 1.61061 22.9987 5.93593 1.61061
78 2 22.9025 6.06129 -1.61039 22.9025 6.06129 -1.61039
79 1 23.89 4.26162 -0.0919172 23.89 4.26162 -0.0919172
80 2 25.8435 4.12439 1.30857 25.8435 4.12439 1.30857
81 2 25.5806 4.50553 -1.94247 25.5806 4.50553 -1.94247
82 1 26.7056 5.88562 -0.252201 26.7056 5.88562 -0.252201
83 2 28.8252 5.73214 1.18052 28.8252 5.73214 1.18052
84 2 28.4329 5.93372 -2.02781 28.4329 5.93372 -2.02781
85 1 29.5634 4.20303 -0.639507 29.5634 4.20303 -0.639507
86 2 31.632 4.12503 0.848869 31.632 4.12503 0.848869
87 2 31.4804 4.39455 -2.38118 31.4804 4.39455 -2.38118
88 1 32.4933 5.87809 -0.640906 32.4933 5.87809 -0.640906
89 2 34.3715 5.75469 1.08036 34.3715 5.75469 1.08036
90 2 34.4704 6.15725 -2.21465 34.4704 6.15725 -2.21465
91 1 35.3145 4.28371 -0.63905 35.3145 4.28371 -0.63905
92 2 37.4494 4.32157 0.75204 37.4494 4.32157 0.75204
93 2 37.0122 4.35919 -2.50938 37.0122 4.35919 -2.50938
94 1 38.2505 5.97937 -0.910336 38.2505 5.97937 -0.910336
95 2 40.098 5.85412 0.815764 40.098 5.85412 0.815764
96 2 40.2987 5.97143 -2.34962 40.2987 5.97143 -2.34962
97 1 41.0822 4.29022 -0.785577 41.0822 4.29022 -0.785577
98 2 43.0535 4.16113 0.823652 43.0535 4.16113 0.823652
99 2 43.0277 4.39674 -2.4382 43.0277 4.39674 -2.4382
100 1 43.9393 5.95057 -0.769484 43.9393 5.95057 -0.769484
101 2 45.7871 5.97478 0.936225 45.7871 5.97478 0.936225
102 2 45.8619 6.0555 -2.32509 45.8619 6.0555 -2.32509
103 1 46.8531 4.34984 -0.735452 46.8531 4.34984 -0.735452
104 2 48.6719 4.31566 1.09708 48.6719 4.31566 1.09708
105 2 48.8142 4.34987 -2.2705 48.8142 4.34987 -2.2705
106 1 49.6818 6.00695 -0.45312 49.6818 6.00695 -0.45312
107 2 51.6381 6.04442 1.15787 51.6381 6.04442 1.15787
108 2 51.554 5.96137 -2.0765 51.554 5.96137 -2.0765
109 1 0.997182 7.61329 -0.573401 0.997182 7.61329 -0.573401
110 2 2.95077 7.74099 1.05451 2.95077 7.74099 1.05451
111 2 2.91753 7.42608 -2.20344 2.91753 7.42608 -2.20344
112 1 3.85569 9.25324 -0.673608 3.85569 9.25324 -0.673608
113 2 5.54005 9.15754 1.21765 5.54005 9.15754 1.21765
114 2 6.01183 9.30253 -1.97823 6.01183 9.30253 -1.97823
115 1 6.68393 7.51853 -0.1912 6.68393 7.51853 -0.1912
116 2 8.56101 7.63026 1.45328 8.56101 7.63026 1.45328
117 2 8.52576 7.46024 -1.83605 8.52576 7.46024 -1.83605
118 1 9.50193 9.17864 -0.284425 9.50193 9.17864 -0.284425
119 2 11.4508 9.01912 1.48079 11.4508 9.01912 1.48079
120 2 11.6457 9.33327 -1.75442 11.6457 9.33327 -1.75442
121 1 12.3966 7.50869 -0.185654 12.3966 7.50869 -0.185654
122 2 14.2516 7.54641 1.43551 14.2516 7.54641 1.43551
123 2 14.2718 7.61486 -1.90391 14.2718 7.61486 -1.90391
124 1 15.1816 9.22332 -0.22778 15.1816 9.22332 -0.22778
125 2 16.9611 9.08225 1.5259 16.9611 9.08225 1.5259
126 2 17.235 9.38531 -1.65552 17.235 9.38531 -1.65552
127 1 18.1652 7.59178 -0.183574 18.1652 7.59178 -0.183574
128 2 20.0374 7.58843 1.6253 20.0374 7.58843 1.6253
129 2 20.2474 7.68061 -1.66079 20.2474 7.68061 -1.66079
130 1 21.0467 9.24482 0.149952 21.0467 9.24482 0.149952
131 2 22.9119 9.10948 1.74145 22.9119 9.10948 1.74145
132 2 22.8416 9.26624 -1.44817 22.8416 9.26624 -1.44817
133 1 23.8578 7.56851 0.0905788 23.8578 7.56851 0.0905788
134 2 25.8962 7.5815 1.48358 25.8962 7.5815 1.48358
135 2 25.5921 7.60204 -1.71268 25.5921 7.60204 -1.71268
136 1 26.7493 9.30553 -0.112414 26.7493 9.30553 -0.112414
137 2 28.5544 9.05869 1.56235 28.5544 9.05869 1.56235
138 2 28.5848 9.39821 -1.73253 28.5848 9.39821 -1.73253
139 1 29.6193 7.48858 -0.292258 29.6193 7.48858 -0.292258
140 2 31.5062 7.18018 1.24779 31.5062 7.18018 1.24779
141 2 31.4812 7.96316 -1.93449 31.4812 7.96316 -1.93449
142 1 32.4514 9.21718 -0.0359192 32.4514 9.21718 -0.0359192
143 2 34.3902 8.98635 1.51557 34.3902 8.98635 1.51557
144 2 34.3341 9.5374 -1.70945 34.3341 9.5374 -1.70945
145 1 35.3571 7.60039 -0.470417 35.3571 7.60039 -0.470417
146 2 37.323 7.38684 0.996195 37.323 7.38684 0.996195
147 2 37.2173 7.75286 -2.22563 37.2173 7.75286 -2.22563
148 1 38.2598 9.34166 -0.398704 38.2598 9.34166 -0.398704
149 2 40.2214 9.16304 1.12524 40.2214 9.16304 1.12524
150 2 40.1079 9.44247 -2.10793 40.1079 9.44247 -2.10793
151 1 41.1336 7.59705 -0.717254 41.1336 7.59705 -0.717254
152 2 42.9657 7.52485 0.895318 42.9657 7.52485 0.895318
153 2 42.9837 7.69561 -2.41986 42.9837 7.69561 -2.41986
154 1 43.8995 9.29745 -0.625632 43.8995 9.29745 -0.625632
155 2 45.8456 9.42661 0.937931 45.8456 9.42661 0.937931
156 2 45.7082 9.30991 -2.32654 45.7082 9.30991 -2.32654
157 1 46.7015 7.74992 -0.668544 46.7015 7.74992 -0.668544
158 2 48.4283 7.64541 1.05644 48.4283 7.64541 1.05644
159 2 48.8804 7.82843 -2.12462 48.8804 7.82843 -2.12462
160 1 49.5902 9.3206 -0.440162 49.5902 9.3206 -0.440162
161 2 51.5119 9.04329 1.1592 51.5119 9.04329 1.1592
162 2 51.6132 9.53803 -2.00129 51.6132 9.53803 -2.00129
163 1 1.01604 10.9096 -0.177309 1.01604 10.9096 -0.177309
164 2 3.03726 10.8517 1.27548 3.03726 10.8517 1.27548
165 2 2.75906 11.1961 -1.94875 2.75906 11.1961 -1.94875
166 1 3.89385 12.6191 -0.295869 3.89385 12.6191 -0.295869
167 2 5.56957 12.4151 1.5206 5.56957 12.4151 1.5206
168 2 5.8902 12.6306 -1.74747 5.8902 12.6306 -1.74747
169 1 6.75326 10.8723 -0.0972154 6.75326 10.8723 -0.0972154
170 2 8.71319 10.733 1.42434 8.71319 10.733 1.42434
171 2 8.55716 10.8571 -1.86774 8.55716 10.8571 -1.86774
172 1 9.52261 12.5227 -0.179635 9.52261 12.5227 -0.179635
173 2 11.3046 12.6158 1.59711 11.3046 12.6158 1.59711
174 2 11.5142 12.5515 -1.63665 11.5142 12.5515 -1.63665
175 1 12.3159 10.875 0.0730059 12.3159 10.875 0.0730059
176 2 14.349 10.689 1.6316 14.349 10.689 1.6316
177 2 14.1293 11.0314 -1.63704 14.1293 11.0314 -1.63704
178 1 15.201 12.5453 0.217442 15.201 12.5453 0.217442
179 2 17.1068 12.5425 1.78626 17.1068 12.5425 1.78626
180 2 17.2056 12.5346 -1.47134 17.2056 12.5346 -1.47134
181 1 18.0982 10.9371 0.171623 18.0982 10.9371 0.171623
182 2 20.0342 10.8654 1.83317 20.0342 10.8654 1.83317
183 2 20.1141 11.0134 -1.35072 20.1141 11.0134 -1.35072
184 1 20.9874 12.5757 0.3541 20.9874 12.5757 0.3541
185 2 22.9579 12.4827 1.93708 22.9579 12.4827 1.93708
186 2 22.8457 12.4426 -1.32867 22.8457 12.4426 -1.32867
187 1 23.8604 10.8186 0.232203 23.8604 10.8186 0.232203
188 2 25.8817 10.6949 1.71936 25.8817 10.6949 1.71936
189 2 25.6867 11.0209 -1.52653 25.6867 11.0209 -1.52653
190 1 26.6857 12.5332 0.268714 26.6857 12.5332 0.268714
191 2 28.7065 12.6192 1.82746 28.7065 12.6192 1.82746
192 2 28.5151 12.5951 -1.42014 28.5151 12.5951 -1.42014
193 1 29.6007 10.8896 0.148979 29.6007 10.8896 0.148979
194 2 31.4799 10.6675 1.82792 31.4799 10.6675 1.82792
195 2 31.5887 11.0999 -1.41317 31.5887 11.0999 -1.41317
196 1 32.4793 12.4886 0.520776 32.4793 12.4886 0.520776
197 2 34.5915 12.3826 1.97692 34.5915 12.3826 1.97692
198 2 34.1929 12.7054 -1.272 34.1929 12.7054 -1.272
199 1 35.3185 10.8495 0.081013 35.3185 10.8495 0.081013
200 2 37.3668 10.7253 1.47433 37.3668 10.7253 1.47433
201 2 37.0954 11.0046 -1.72466 37.0954 11.0046 -1.72466
202 1 38.2166 12.6113 -0.126089 38.2166 12.6113 -0.126089
203 2 40.2478 12.4142 1.46531 40.2478 12.4142 1.46531
204 2 39.9872 12.7614 -1.79742 39.9872 12.7614 -1.79742
205 1 40.9931 10.935 -0.381614 40.9931 10.935 -0.381614
206 2 42.9607 10.6892 1.22384 42.9607 10.6892 1.22384
207 2 42.985 11.1068 -1.98639 42.985 11.1068 -1.98639
208 1 43.884 12.5932 -0.206581 43.884 12.5932 -0.206581
209 2 46.0678 12.6144 1.16687 46.0678 12.6144 1.16687
210 2 45.504 12.804 -2.05903 45.504 12.804 -2.05903
211 1 46.713 11.0687 -0.710071 46.713 11.0687 -0.710071
212 2 48.5109 11.0689 1.10223 48.5109 11.0689 1.10223
213 2 48.8172 11.0595 -2.11657 48.8172 11.0595 -2.11657
214 1 49.6345 12.6883 -0.412823 49.6345 12.6883 -0.412823
215 2 51.5337 12.7427 1.30331 51.5337 12.7427 1.30331
216 2 51.7059 12.5993 -2.02777 51.7059 12.5993 -2.02777
217 1 0.946501 14.234 -0.431274 0.946501 14.234 -0.431274
218 2 2.67473 14.1766 1.33286 2.67473 14.1766 1.33286
219 2 2.99699 14.3344 -1.9278 2.99699 14.3344 -1.9278
220 1 3.73641 15.8607 -0.1363 3.73641 15.8607 -0.1363
221 2 5.59211 15.723 1.64516 5.59211 15.723 1.64516
222 2 5.69083 15.8117 -1.61663 5.69083 15.8117 -1.61663
223 1 6.63452 14.1521 0.0552221 6.63452 14.1521 0.0552221
224 2 8.61037 14.0774 1.49607 8.61037 14.0774 1.49607
225 2 8.44375 14.1692 -1.6286 8.44375 14.1692 -1.6286
226 1 9.52302 15.8233 0.0184111 9.52302 15.8233 0.0184111
227 2 11.3497 15.8092 1.756 11.3497 15.8092 1.756
228 2 11.4564 15.8115 -1.47637 11.4564 15.8115 -1.47637
229 1 12.3119 14.2434 0.0718143 12.3119 14.2434 0.0718143
230 2 14.2754 14.2207 1.74523 14.2754 14.2207 1.74523
231 2 14.2735 14.2002 -1.45548 14.2735 14.2002 -1.45548
232 1 15.2456 15.8165 0.162887 15.2456 15.8165 0.162887
233 2 17.1582 15.8358 1.87207 17.1582 15.8358 1.87207
234 2 17.1665 15.9092 -1.4076 17.1665 15.9092 -1.4076
235 1 18.0543 14.2132 0.185796 18.0543 14.2132 0.185796
236 2 19.9386 14.3028 1.8325 19.9386 14.3028 1.8325
237 2 20.1111 14.1799 -1.32537 20.1111 14.1799 -1.32537
238 1 20.9891 15.8618 0.263921 20.9891 15.8618 0.263921
239 2 22.7762 15.743 1.96811 22.7762 15.743 1.96811
240 2 22.83 15.8577 -1.33531 22.83 15.8577 -1.33531
241 1 23.7737 14.1722 0.194222 23.7737 14.1722 0.194222
242 2 25.7171 14.2293 1.85066 25.7171 14.2293 1.85066
243 2 25.7803 14.209 -1.38008 25.7803 14.209 -1.38008
244 1 26.7297 15.8631 0.297253 26.7297 15.8631 0.297253
245 2 28.6057 15.6705 1.89078 28.6057 15.6705 1.89078
246 2 28.6443 16.0536 -1.36275 28.6443 16.0536 -1.36275
247 1 29.6123 14.3105 0.136388 29.6123 14.3105 0.136388
248 2 31.3009 14.1781 1.98045 31.3009 14.1781 1.98045
249 2 31.668 14.0808 -1.22621 31.668 14.0808 -1.22621
250 1 32.4417 15.8504 0.447818 32.4417 15.8504 0.447818
251 2 34.3494 15.6791 2.11986 34.3494 15.6791 2.11986
252 2 34.3894 15.952 -1.22261 34.3894 15.952 -1.22261
253 1 35.3189 14.2585 0.394753 35.3189 14.2585 0.394753
254 2 37.4647 13.9185 1.81017 37.4647 13.9185 1.81017
255 2 37.1214 14.4253 -1.4662 37.1214 14.4253 -1.4662
256 1 38.2057 15.8319 0.302034 38.2057 15.8319 0.302034
257 2 40.2851 15.8164 1.65059 40.2851 15.8164 1.65059
258 2 39.9238 15.9022 -1.56046 39.9238 15.9022 -1.56046
259 1 41.0871 14.1875 -0.100329 41.0871 14.1875 -0.100329
260 2 42.9683 14.1144 1.48936 42.9683 14.1144 1.48936
261 2 42.9603 14.1924 -1.77888 42.9603 14.1924 -1.77888
262 1 43.9176 15.876 -0.0688037 43.9176 15.876 -0.0688037
263 2 45.8636 15.7023 1.52125 45.8636 15.7023 1.52125
264 2 45.787 16.119 -1.8086 45.787 16.119 -1.8086
265 1 46.8215 14.3259 -0.421528 46.8215 14.3259 -0.421528
266 2 48.6303 14.1716 1.22463 48.6303 14.1716 1.22463
267 2 48.6743 14.4349 -2.06894 48.6743 14.4349 -2.06894
268 1 49.5822 15.9977 -0.307892 49.5822 15.9977 -0.307892
269 2 51.4611 15.7534 1.27838 51.4611 15.7534 1.27838
270 2 51.4834 15.9651 -1.92111 51.4834 15.9651 -1.92111
271 1 0.835345 17.5289 -0.147265 0.835345 17.5289 -0.147265
272 2 2.72734 17.5015 1.49495 2.72734 17.5015 1.49495
273 2 2.67713 17.5171 -1.82601 2.67713 17.5171 -1.82601
274 1 3.7688 19.107 -0.15586 3.7688 19.107 -0.15586
275 2 5.55083 19.3419 1.6449 5.55083 19.3419 1.6449
276 2 5.73969 19.0462 -1.6463 5.73969 19.0462 -1.6463
277 1 6.56462 17.5034 0.25329 6.56462 17.5034 0.25329
278 2 8.66526 17.5869 1.68478 8.66526 17.5869 1.68478
279 2 8.43711 17.4802 -1.48077 8.43711 17.4802 -1.48077
280 1 9.47674 19.1219 0.0557753 9.47674 19.1219 0.0557753
281 2 11.361 19.2773 1.6789 11.361 19.2773 1.6789
282 2 11.4979 18.9875 -1.61585 11.4979 18.9875 -1.61585
283 1 12.342 17.4966 0.170624 12.342 17.4966 0.170624
284 2 14.4162 17.5756 1.70799 14.4162 17.5756 1.70799
285 2 14.2667 17.2549 -1.48433 14.2667 17.2549 -1.48433
286 1 15.3288 19.0992 -0.138537 15.3288 19.0992 -0.138537
287 2 16.9407 19.0572 1.78278 16.9407 19.0572 1.78278
288 2 17.4197 19.1266 -1.426 17.4197 19.1266 -1.426
289 1 18.1544 17.4881 0.297517 18.1544 17.4881 0.297517
290 2 20.1379 17.4186 2.00557 20.1379 17.4186 2.00557
291 2 20.2613 17.598 -1.3113 20.2613 17.598 -1.3113
292 1 20.9684 19.2797 0.485062 20.9684 19.2797 0.485062
293 2 22.9875 19.0379 2.12868 22.9875 19.0379 2.12868
294 2 22.9431 19.2557 -1.1676 22.9431 19.2557 -1.1676
295 1 23.8628 17.4181 0.315976 23.8628 17.4181 0.315976
296 2 25.8139 17.4419 2.01529 25.8139 17.4419 2.01529
297 2 25.8852 17.6105 -1.23189 25.8852 17.6105 -1.23189
298 1 26.7305 19.1405 0.478857 26.7305 19.1405 0.478857
299 2 28.5924 19.0612 2.17275 28.5924 19.0612 2.17275
300 2 28.6328 19.2841 -1.14717 28.6328 19.2841 -1.14717
301 1 29.6494 17.54 0.373489 29.6494 17.54 0.373489
302 2 31.4544 17.5446 1.99396 31.4544 17.5446 1.99396
303 2 31.574 17.4088 -1.26065 31.574 17.4088 -1.26065
304 1 32.4693 19.1451 0.332324 32.4693 19.1451 0.332324
305 2 34.2561 19.1002 2.11613 34.2561 19.1002 2.11613
306 2 34.4062 19.1336 -1.21131 34.4062 19.1336 -1.21131
307 1 35.3168 17.416 0.49195 35.3168 17.416 0.49195
308 2 37.2948 17.463 2.00296 37.2948 17.463 2.00296
309 2 37.2066 17.4213 -1.26625 37.2066 17.4213 -1.26625
310 1 38.1546 19.1263 0.381133 38.1546 19.1263 0.381133
311 2 40.1405 19.0149 1.83763 40.1405 19.0149 1.83763
312 2 39.9398 19.3861 -1.40859 39.9398 19.3861 -1.40859
313 1 41.0036 17.4976 -0.0493405 41.0036 17.4976 -0.0493405
314 2 42.87 17.4284 1.68137 42.87 17.4284 1.68137
315 2 43.1055 17.7082 -1.57201 43.1055 17.7082 -1.57201
316 1 43.8363 19.1301 0.226645 43.8363 19.1301 0.226645
317 2 45.8671 19.0152 1.72517 45.8671 19.0152 1.72517
318 2 45.6622 19.3137 -1.42929 45.6622 19.3137 -1.42929
319 1 46.7318 17.5369 -0.032899 46.7318 17.5369 -0.032899
320 2 48.7518 17.6115 1.41844 48.7518 17.6115 1.41844
321 2 48.5228 17.7374 -1.79809 48.5228 17.7374 -1.79809
322 1 49.5846 19.2935 -0.155108 49.5846 19.2935 -0.155108
323 2 51.5129 19.2439 1.43096 51.5129 19.2439 1.43096
324 2 51.4284 19.1089 -1.7623 51.4284 19.1089 -1.7623
325 1 1.00168 20.8735 -0.205776 1.00168 20.8735 -0.205776
326 2 2.81049 20.879 1.48727 2.81049 20.879 1.48727
327 2 2.9535 20.8006 -1.79867 2.9535 20.8006 -1.79867
328 1 3.85548 22.337 -0.173655 3.85548 22.337 -0.173655
329 2 5.63012 22.3866 1.59453 5.63012 22.3866 1.59453
330 2 5.82888 22.5856 -1.62645 5.82888 22.5856 -1.62645
331 1 6.61776 20.8264 -0.0645866 6.61776 20.8264 -0.0645866
332 2 8.42831 20.7765 1.63938 8.42831 20.7765 1.63938
333 2 8.66621 20.7377 -1.63219 8.66621 20.7377 -1.63219
334 1 9.48479 22.3595 0.0355355 9.48479 22.3595 0.0355355
335 2 11.3364 22.2189 1.66383 11.3364 22.2189 1.66383
336 2 11.4647 22.6302 -1.62272 11.4647 22.6302 -1.62272
337 1 12.365 20.729 -0.182088 12.365 20.729 -0.182088
338 2 14.2913 20.6796 1.50373 14.2913 20.6796 1.50373
339 2 14.3867 20.7591 -1.75602 14.3867 20.7591 -1.75602
340 1 15.2308 22.4027 0.0832351 15.2308 22.4027 0.0832351
341 2 16.9918 22.2916 1.87553 16.9918 22.2916 1.87553
342 2 17.333 22.4828 -1.35979 17.333 22.4828 -1.35979
343 1 18.1979 20.8184 0.326216 18.1979 20.8184 0.326216
344 2 20.074 20.8687 2.04415 20.074 20.8687 2.04415
345 2 20.1058 20.8498 -1.22036 20.1058 20.8498 -1.22036
346 1 21.0654 22.4718 0.431258 21.0654 22.4718 0.431258
347 2 23.0137 22.5029 2.07985 23.0137 22.5029 2.07985
348 2 22.9347 22.2268 -1.12534 22.9347 22.2268 -1.12534
349 1 23.9246 20.7579 0.625322 23.9246 20.7579 0.625322
350 2 25.7517 20.549 2.21363 25.7517 20.549 2.21363
351 2 25.7666 20.8379 -1.05166 25.7666 20.8379 -1.05166
352 1 26.7609 22.3914 0.680654 26.7609 22.3914 0.680654
353 2 28.6263 22.3415 2.31721 28.6263 22.3415 2.31721
354 2 28.6164 22.467 -0.999045 28.6164 22.467 -0.999045
355 1 29.5535 20.7867 0.616061 29.5535 20.7867 0.616061
356 2 31.6013 20.5292 2.16531 31.6013 20.5292 2.16531
357 2 31.4805 20.9602 -1.15616 31.4805 20.9602 -1.15616
358 1 32.4051 22.4573 0.623323 32.4051 22.4573 0.623323
359 2 34.4251 22.4291 2.14105 34.4251 22.4291 2.14105
360 2 34.3803 22.3761 -1.03559 34.3803 22.3761 -1.03559
361 1 35.2921 20.7484 0.552151 35.2921 20.7484 0.552151
362 2 37.3906 20.5956 2.12735 37.3906 20.5956 2.12735
363 2 37.1393 20.796 -1.19236 37.1393 20.796 -1.19236
364 1 38.2076 22.3463 0.447427 38.2076 22.3463 0.447427
365 2 40.2513 22.4828 1.97715 40.2513 22.4828 1.97715
366 2 40.0407 22.4578 -1.31626 40.0407 22.4578 -1.31626
367 1 41.0728 20.819 0.279614 41.0728 20.819 0.279614
368 2 43.0352 20.7845 1.85781 43.0352 20.7845 1.85781
369 2 42.8924 20.8628 -1.41301 42.8924 20.8628 -1.41301
370 1 43.8956 22.4659 0.238965 43.8956 22.4659 0.238965
371 2 45.8557 22.4875 1.80171 45.8557 22.4875 1.80171
372 2 45.6335 22.3797 -1.5137 45.6335 22.3797 -1.5137
373 1 46.7351 20.8208 0.180224 46.7351 20.8208 0.180224
374 2 48.8595 20.9867 1.60721 48.8595 20.9867 1.60721
375 2 48.3722 20.9368 -1.70765 48.3722 20.9368 -1.70765
376 1 49.5605 22.5347 -0.299197 49.5605 22.5347 -0.299197
377 2 51.6378 22.6413 1.35646 51.6378 22.6413 1.35646
378 2 51.4515 22.3548 -1.94221 51.4515 22.3548 -1.94221
379 1 1.01996 24.1766 -0.474698 1.01996 24.1766 -0.474698
380 2 2.88713 24.0824 1.3572 2.88713 24.0824 1.3572
381 2 2.94547 23.9608 -1.91736 2.94547 23.9608 -1.91736
382 1 3.84104 25.7223 -0.337959 3.84104 25.7223 -0.337959
383 2 5.5075 25.8973 1.45124 5.5075 25.8973 1.45124
384 2 5.9151 25.5923 -1.77754 5.9151 25.5923 -1.77754
385 1 6.56273 24.0879 0.11816 6.56273 24.0879 0.11816
386 2 8.5885 23.9691 1.69663 8.5885 23.9691 1.69663
387 2 8.52744 24.1562 -1.53256 8.52744 24.1562 -1.53256
388 1 9.52413 25.6134 0.17342 9.52413 25.6134 0.17342
389 2 11.3538 25.6128 1.92434 11.3538 25.6128 1.92434
390 2 11.5147 25.657 -1.42042 11.5147 25.657 -1.42042
391 1 12.3812 23.9761 0.252898 12.3812 23.9761 0.252898
392 2 14.2111 23.9988 1.80581 14.2111 23.9988 1.80581
393 2 14.1993 24.1776 -1.44799 14.1993 24.1776 -1.44799
394 1 15.1642 25.7538 0.242454 15.1642 25.7538 0.242454
395 2 17.0514 25.8011 1.99804 17.0514 25.8011 1.99804
396 2 17.1313 25.6064 -1.22835 17.1313 25.6064 -1.22835
397 1 18.0742 24.0701 0.507573 18.0742 24.0701 0.507573
398 2 20.0172 24.0814 2.14617 20.0172 24.0814 2.14617
399 2 20.07 24.0972 -1.13139 20.07 24.0972 -1.13139
400 1 20.9931 25.7487 0.464634 20.9931 25.7487 0.464634
401 2 22.9638 25.6792 2.0078 22.9638 25.6792 2.0078
402 2 22.7044 25.7752 -1.22951 22.7044 25.7752 -1.22951
403 1 23.8602 24.0761 0.249948 23.8602 24.0761 0.249948
404 2 25.6933 24.1826 2.01785 25.6933 24.1826 2.01785
405 2 25.9743 23.9595 -1.19788 25.9743 23.9595 -1.19788
406 1 26.7752 25.8008 0.361775 26.7752 25.8008 0.361775
407 2 28.6133 26.0708 2.05298 28.6133 26.0708 2.05298
408 2 28.6268 25.5188 -1.29678 28.6268 25.5188 -1.29678
409 1 29.4636 24.1062 0.759057 29.4636 24.1062 0.759057
410 2 31.6029 24.3759 2.13622 31.6029 24.3759 2.13622
411 2 31.2135 23.9155 -1.05337 31.2135 23.9155 -1.05337
412 1 32.4484 25.7239 0.122454 32.4484 25.7239 0.122454
413 2 34.3682 25.8378 1.78056 34.3682 25.8378 1.78056
414 2 34.4641 25.4449 -1.37497 34.4641 25.4449 -1.37497
415 1 35.3428 24.067 0.436447 35.3428 24.067 0.436447
416 2 37.367 24.053 2.03101 37.367 24.053 2.03101
417 2 37.2197 23.9687 -1.24856 37.2197 23.9687 -1.24856
418 1 38.2686 25.7359 0.299986 38.2686 25.7359 0.299986
419 2 40.1967 26.0478 1.81305 40.1967 26.0478 1.81305
420 2 40.0074 25.5367 -1.38888 40.0074 25.5367 -1.38888
421 1 41.0602 24.0727 0.295543 41.0602 24.0727 0.295543
422 2 43.132 24.3052 1.78578 43.132 24.3052 1.78578
423 2 42.8109 23.9752 -1.43248 42.8109 23.9752 -1.43248
424 1 43.8143 25.8444 -0.0120182 43.8143 25.8444 -0.0120182
425 2 45.7675 25.7302 1.59349 45.7675 25.7302 1.59349
426 2 45.6997 25.691 -1.6276 45.6997 25.691 -1.6276
427 1 46.7146 24.0274 -0.0974013 46.7146 24.0274 -0.0974013
428 2 48.8019 24.1335 1.4964 48.8019 24.1335 1.4964
429 2 48.5566 24.2003 -1.89273 48.5566 24.2003 -1.89273
430 1 49.5607 25.7906 -0.216089 49.5607 25.7906 -0.216089
431 2 51.5759 25.6625 1.31397 51.5759 25.6625 1.31397
432 2 51.5268 25.9137 -1.97182 51.5268 25.9137 -1.97182
433 1 0.948349 27.4239 -0.293124 0.948349 27.4239 -0.293124
434 2 2.79886 27.4286 1.40944 2.79886 27.4286 1.40944
435 2 2.85072 27.4735 -1.93133 2.85072 27.4735 -1.93133
436 1 3.74951 29.0731 -0.203633 3.74951 29.0731 -0.203633
437 2 5.62416 29.1075 1.46206 5.62416 29.1075 1.46206
438 2 5.70521 28.916 -1.81598 5.70521 28.916 -1.81598
439 1 6.65743 27.3218 -0.10068 6.65743 27.3218 -0.10068
440 2 8.34786 27.2519 1.72813 8.34786 27.2519 1.72813
441 2 8.69481 27.2656 -1.51643 8.69481 27.2656 -1.51643
442 1 9.46171 28.8831 0.207104 9.46171 28.8831 0.207104
443 2 11.2467 28.9628 1.90113 11.2467 28.9628 1.90113
444 2 11.3713 28.7561 -1.40431 11.3713 28.7561 -1.40431
445 1 12.3792 27.2285 0.305585 12.3792 27.2285 0.305585
446 2 14.1908 27.4318 1.83902 14.1908 27.4318 1.83902
447 2 14.1985 27.3509 -1.41637 14.1985 27.3509 -1.41637
448 1 15.1539 28.9985 0.178049 15.1539 28.9985 0.178049
449 2 17.1759 29.0564 1.87256 17.1759 29.0564 1.87256
450 2 17.1417 28.9344 -1.33102 17.1417 28.9344 -1.33102
451 1 18.0976 27.2975 0.325015 18.0976 27.2975 0.325015
452 2 20.0116 27.5885 1.84939 20.0116 27.5885 1.84939
453 2 19.9503 27.2462 -1.30542 19.9503 27.2462 -1.30542
454 1 20.9029 29.008 0.137366 20.9029 29.008 0.137366
455 2 22.816 29.2362 1.79199 22.816 29.2362 1.79199
456 2 22.7969 28.8149 -1.40788 22.7969 28.8149 -1.40788
457 1 23.9116 27.4407 0.347479 23.9116 27.4407 0.347479
458 2 25.8141 27.6134 1.88458 25.8141 27.6134 1.88458
459 2 25.742 27.2338 -1.47275 25.742 27.2338 -1.47275
460 1 26.8149 28.9562 0.0392797 26.8149 28.9562 0.0392797
461 2 28.7165 29.1041 1.63213 28.7165 29.1041 1.63213
462 2 28.6468 28.766 -1.59926 28.6468 28.766 -1.59926
463 1 29.6921 27.2689 0.0878198 29.6921 27.2689 0.0878198
464 2 31.6703 27.6043 1.67294 31.6703 27.6043 1.67294
465 2 31.6094 27.3049 -1.60568 31.6094 27.3049 -1.60568
466 1 32.5322 29.0194 -0.179892 32.5322 29.0194 -0.179892
467 2 34.3297 29.103 1.58365 34.3297 29.103 1.58365
468 2 34.513 29.1199 -1.81781 34.513 29.1199 -1.81781
469 1 35.4002 27.2991 -0.0109315 35.4002 27.2991 -0.0109315
470 2 37.1775 27.3388 1.79083 37.1775 27.3388 1.79083
471 2 37.4069 27.228 -1.49775 37.4069 27.228 -1.49775
472 1 38.1511 28.8857 0.184415 38.1511 28.8857 0.184415
473 2 40.1782 28.9989 1.6639 40.1782 28.9989 1.6639
474 2 39.9488 28.9588 -1.61961 39.9488 28.9588 -1.61961
475 1 41.0364 27.3769 -0.0547628 41.0364 27.3769 -0.0547628
476 2 42.877 27.5637 1.55395 42.877 27.5637 1.55395
477 2 42.8938 27.3532 -1.7624 42.8938 27.3532 -1.7624
478 1 43.8495 29.1147 -0.0864895 43.8495 29.1147 -0.0864895
479 2 45.7801 29.1077 1.53289 45.7801 29.1077 1.53289
480 2 45.8142 29.1193 -1.77267 45.8142 29.1193 -1.77267
481 1 46.7519 27.4276 -0.119241 46.7519 27.4276 -0.119241
482 2 48.6314 27.5717 1.32796 48.6314 27.5717 1.32796
483 2 48.5556 27.4234 -1.82321 48.5556 27.4234 -1.82321
484 1 49.6315 29.1458 -0.258397 49.6315 29.1458 -0.258397
485 2 51.497 28.9352 1.48313 51.497 28.9352 1.48313
486 2 51.5833 29.2099 -1.80353 51.5833 29.2099 -1.80353
487 1 0.957555 30.6862 -0.106077 0.957555 30.6862 -0.106077
488 2 2.85218 30.6912 1.49085 2.85218 30.6912 1.49085
489 2 2.89624 30.8029 -1.67192 2.89624 30.8029 -1.67192
490 1 3.86529 32.3386 -0.0486935 3.86529 32.3386 -0.0486935
491 2 5.86117 32.1366 1.44209 5.86117 32.1366 1.44209
492 2 5.7391 32.2654 -1.82574 5.7391 32.2654 -1.82574
493 1 6.72138 30.5914 -0.303525 6.72138 30.5914 -0.303525
494 2 8.42771 30.688 1.59758 8.42771 30.688 1.59758
495 2 8.88989 30.4289 -1.54302 8.88989 30.4289 -1.54302
496 1 9.55726 32.2129 0.0426004 9.55726 32.2129 0.0426004
497 2 11.3935 32.3841 1.70565 11.3935 32.3841 1.70565
498 2 11.332 32.0817 -1.61881 11.332 32.0817 -1.61881
499 1 12.3082 30.5073 0.144118 12.3082 30.5073 0.144118
500 2 14.2375 30.7953 1.72541 14.2375 30.7953 1.72541
501 2 14.2402 30.6188 -1.52746 14.2402 30.6188 -1.52746
502 1 15.1799 32.3115 0.0754509 15.1799 32.3115 0.0754509
503 2 17.2199 32.5166 1.644 17.2199 32.5166 1.644
504 2 17.052 32.0052 -1.58525 17.052 32.0052 -1.58525
505 1 18.0643 30.705 0.149888 18.0643 30.705 0.149888
506 2 19.9883 30.6692 1.7613 19.9883 30.6692 1.7613
507 2 19.8952 30.5081 -1.608 19.8952 30.5081 -1.608
508 1 20.9791 32.3363 -0.0774242 20.9791 32.3363 -0.0774242
509 2 22.7651 32.297 1.54851 22.7651 32.297 1.54851
510 2 22.853 32.3204 -1.69129 22.853 32.3204 -1.69129
511 1 23.8304 30.6434 -0.0273126 23.8304 30.6434 -0.0273126
512 2 25.8137 30.6503 1.51337 25.8137 30.6503 1.51337
513 2 25.8566 30.5098 -1.70385 25.8566 30.5098 -1.70385
514 1 26.7198 32.257 -0.173194 26.7198 32.257 -0.173194
515 2 28.5743 32.3185 1.48819 28.5743 32.3185 1.48819
516 2 28.6214 32.2012 -1.73637 28.6214 32.2012 -1.73637
517 1 29.5351 30.6788 -0.0439394 29.5351 30.6788 -0.0439394
518 2 31.5919 30.596 1.597 31.5919 30.596 1.597
519 2 31.5278 30.7056 -1.68568 31.5278 30.7056 -1.68568
520 1 32.4846 32.3409 0.0773926 32.4846 32.3409 0.0773926
521 2 34.445 32.3021 1.60758 34.445 32.3021 1.60758
522 2 34.4589 32.3248 -1.61885 34.4589 32.3248 -1.61885
523 1 35.377 30.6734 -0.0346767 35.377 30.6734 -0.0346767
524 2 37.178 30.5571 1.7359 37.178 30.5571 1.7359
525 2 37.2737 30.515 -1.52183 37.2737 30.515 -1.52183
526 1 38.1745 32.1538 0.0897174 38.1745 32.1538 0.0897174
527 2 40.1346 32.2022 1.65947 40.1346 32.2022 1.65947
528 2 39.9658 32.2673 -1.60888 39.9658 32.2673 -1.60888
529 1 40.9955 30.6272 -0.137156 40.9955 30.6272 -0.137156
530 2 42.8476 30.7913 1.47062 42.8476 30.7913 1.47062
531 2 42.8599 30.5761 -1.79067 42.8599 30.5761 -1.79067
532 1 43.954 32.2929 -0.210893 43.954 32.2929 -0.210893
533 2 45.725 32.2235 1.55996 45.725 32.2235 1.55996
534 2 45.8708 32.3102 -1.77409 45.8708 32.3102 -1.77409
535 1 46.7201 30.6911 -0.115207 46.7201 30.6911 -0.115207
536 2 48.5912 30.6991 1.47886 48.5912 30.6991 1.47886
537 2 48.5509 30.7287 -1.85933 48.5509 30.7287 -1.85933
538 1 49.5285 32.2695 -0.100124 49.5285 32.2695 -0.100124
539 2 51.3796 32.2885 1.59776 51.3796 32.2885 1.59776