ITEM: TIMESTEP
9800
ITEM: NUMBER OF ATOMS
810
ITEM: BOX BOUNDS pp pp pp
7.9877132219503955e-01 5.2218833677805449e+01
7.7063458616521352e-01 5.0245580413833856e+01
-1.0000000000000000e+01 1.0000000000000000e+01
ITEM: ATOMS id type x y z xu yu zu
1 1 0.990918 0.914932 -0.712775 0.990918 0.914932 -0.712775
2 2 2.73141 1.09337 1.01282 2.73141 1.09337 1.01282
3 2 3.06324 50.3623 -2.25123 3.06324 0.88738 -2.25123
4 1 3.91172 2.52614 -0.617531 3.91172 2.52614 -0.617531
5 2 5.81156 2.75247 1.12636 5.81156 2.75247 1.12636
6 2 5.83806 2.66429 -2.15855 5.83806 2.66429 -2.15855
7 1 6.6884 1.03606 -0.344629 6.6884 1.03606 -0.344629
8 2 8.44493 1.28263 1.40896 8.44493 1.28263 1.40896
9 2 8.81839 0.82141 -1.79225 8.81839 0.82141 -1.79225
10 1 9.59372 2.70476 -0.377034 9.59372 2.70476 -0.377034
11 2 11.275 3.01522 1.38245 11.275 3.01522 1.38245
12 2 11.5246 2.42269 -1.77884 11.5246 2.42269 -1.77884
13 1 12.3415 1.03454 0.140926 12.3415 1.03454 0.140926
14 2 14.2556 1.2741 1.72834 14.2556 1.2741 1.72834
15 2 14.1186 0.789772 -1.58502 14.1186 0.789772 -1.58502
16 1 15.1503 2.52689 -0.168218 15.1503 2.52689 -0.168218
17 2 17.1398 2.69839 1.46481 17.1398 2.69839 1.46481
18 2 17.0874 2.45023 -1.76263 17.0874 2.45023 -1.76263
19 1 18.1169 0.880755 0.0622803 18.1169 0.880755 0.0622803
20 2 19.9086 1.08986 1.74434 19.9086 1.08986 1.74434
21 2 20.1031 50.2372 -1.47517 20.1031 0.76222 -1.47517
22 1 20.9958 2.54237 0.0396261 20.9958 2.54237 0.0396261
23 2 22.9323 2.61663 1.52342 22.9323 2.61663 1.52342
24 2 22.7153 2.65567 -1.87241 22.7153 2.65567 -1.87241
25 1 23.8436 1.09085 -0.240047 23.8436 1.09085 -0.240047
26 2 25.7789 1.30088 1.40313 25.7789 1.30088 1.40313
27 2 25.7018 0.86761 -1.84906 25.7018 0.86761 -1.84906
28 1 26.7202 2.66874 -0.477519 26.7202 2.66874 -0.477519
29 2 28.517 2.75525 1.17023 28.517 2.75525 1.17023
30 2 28.6901 2.50924 -2.09807 28.6901 2.50924 -2.09807
31 1 29.6184 0.949133 -0.255754 29.6184 0.949133 -0.255754
32 2 31.5755 1.07725 1.28875 31.5755 1.07725 1.28875
33 2 31.478 0.796316 -2.00012 31.478 0.796316 -2.00012
34 1 32.5116 2.5142 -0.586474 32.5116 2.5142 -0.586474
35 2 34.519 2.6857 1.03523 34.519 2.6857 1.03523
36 2 34.3885 2.58803 -2.32113 34.3885 2.58803 -2.32113
37 1 35.3044 1.02019 -0.653143 35.3044 1.02019 -0.653143
38 2 37.2205 1.00249 1.01109 37.2205 1.00249 1.01109
39 2 37.2789 1.12083 -2.25994 37.2789 1.12083 -2.25994
40 1 38.1621 2.62829 -0.577596 38.1621 2.62829 -0.577596
41 2 40.0587 2.68457 0.962277 40.0587 2.68457 0.962277
42 2 39.9789 2.51979 -2.33079 39.9789 2.51979 -2.33079
43 1 40.9703 0.966863 -0.74957 40.9703 0.966863 -0.74957
44 2 42.9254 0.949663 0.904321 42.9254 0.949663 0.904321
45 2 42.8384 0.861447 -2.3918 42.8384 0.861447 -2.3918
46 1 43.8413 2.5974 -0.789836 43.8413 2.5974 -0.789836
47 2 45.6902 2.74841 0.940742 45.6902 2.74841 0.940742
48 2 45.8637 2.39554 -2.29733 45.8637 2.39554 -2.29733
49 1 46.746 1.00601 -0.479032 46.746 1.00601 -0.479032
50 2 48.7496 0.873498 0.92614 48.7496 0.873498 0.92614
51 2 48.5877 1.11317 -2.26519 48.5877 1.11317 -2.26519
52 1 49.6615 2.62642 -0.563061 49.6615 2.62642 -0.563061
53 2 51.6674 2.62823 0.959178 51.6674 2.62823 0.959178
54 2 51.423 2.73113 -2.2084 51.423 2.73113 -2.2084
55 1 1.05146 4.25689 -0.71189 1.05146 4.25689 -0.71189
56 2 2.93607 4.37954 0.888625 2.93607 4.37954 0.888625
57 2 2.96587 4.04013 -2.29822 2.96587 4.04013 -2.29822
58 1 3.88134 5.95069 -0.84752 3.88134 5.95069 -0.84752
59 2 5.55608 6.07576 0.938646 5.55608 6.07576 0.938646
60 2 5.90951 5.96502 -2.18764 5.90951 5.96502 -2.18764
61 1 6.73422 4.32179 -0.524609 6.73422 4.32179 -0.524609
62 2 8.46171 4.40983 1.21569 8.46171 4.40983 1.21569
63 2 8.78234 4.53087 -1.99774 8.78234 4.53087 -1.99774
64 1 9.62131 6.08451 -0.299945 9.62131 6.08451 -0.299945
65 2 11.4761 5.91675 1.39684 11.4761 5.91675 1.39684
66 2 11.5353 6.14727 -1.91088 11.5353 6.14727 -1.91088
67 1 12.3779 4.3688 -0.469114 12.3779 4.3688 -0.469114
68 2 14.2142 4.44696 1.35983 14.2142 4.44696 1.35983
69 2 14.3827 4.1436 -2.01235 14.3827 4.1436 -2.01235
70 1 15.2707 5.87353 -0.434946 15.2707 5.87353 -0.434946
71 2 17.1423 5.91746 1.32023 17.1423 5.91746 1.32023
72 2 17.2965 5.7897 -2.07305 17.2965 5.7897 -2.07305
73 1 18.0202 4.19516 -0.221511 18.0202 4.19516 -0.221511
74 2 19.906 4.37808 1.52954 19.906 4.37808 1.52954
75 2 20.0066 4.03163 -1.83288 20.0066 4.03163 -1.83288
76 1 20.9225 5.91952 -0.355339 20.9225 5.91952 -0.355339
77 2 22.8613 5.89651 1.27544 22.8613 5.89651 1.27544
78 2 22.8655 5.81605 -1.99498 22.8655 5.81605 -1.99498
79 1 23.8115 4.2673 -0.296275 23.8115 4.2673 -0.296275
80 2 25.7287 4.23108 1.26159 25.7287 4.23108 1.26159
81 2 25.644 4.384 -1.95606 25.644 4.384 -1.95606
82 1 26.7735 5.93817 -0.436843 26.7735 5.93817 -0.436843
83 2 28.6127 5.8596 1.17763 28.6127 5.8596 1.17763
84 2 28.6143 5.96746 -2.08798 28.6143 5.96746 -2.08798
85 1 29.543 4.21639 -0.549259 29.543 4.21639 -0.549259
86 2 31.6895 4.22252 0.966259 31.6895 4.22252 0.966259
87 2 31.4558 4.12334 -2.18858 31.4558 4.12334 -2.18858
88 1 32.4929 5.78747 -0.727939 32.4929 5.78747 -0.727939
89 2 34.3983 5.90666 0.962422 34.3983 5.90666 0.962422
90 2 34.3651 6.00671 -2.26818 34.3651 6.00671 -2.26818
91 1 35.3134 4.31441 -0.73467 35.3134 4.31441 -0.73467
92 2 37.2328 4.45515 0.925077 37.2328 4.45515 0.925077
93 2 37.2781 4.18823 -2.33044 37.2781 4.18823 -2.33044
94 1 38.2809 5.98528 -0.845289 38.2809 5.98528 -0.845289
95 2 40.2078 5.97244 0.78634 40.2078 5.97244 0.78634
96 2 40.1944 5.92392 -2.40807 40.1944 5.92392 -2.40807
97 1 41.0861 4.27391 -0.791503 41.0861 4.27391 -0.791503
98 2 43.1193 4.41377 0.781129 43.1193 4.41377 0.781129
99 2 42.8622 4.22174 -2.51411 42.8622 4.22174 -2.51411
100 1 43.9426 5.89724 -1.04488 43.9426 5.89724 -1.04488
101 2 45.6945 6.02385 0.82963 45.6945 6.02385 0.82963
102 2 45.9547 5.81972 -2.49364 45.9547 5.81972 -2.49364
103 1 46.7205 4.19754 -0.739864 46.7205 4.19754 -0.739864
104 2 48.7038 4.38987 0.830082 48.7038 4.38987 0.830082
105 2 48.5932 4.06631 -2.41653 48.5932 4.06631 -2.41653
106 1 49.6218 5.91446 -1.02763 49.6218 5.91446 -1.02763
107 2 51.3576 5.92717 0.784079 51.3576 5.92717 0.784079
108 2 51.691 5.9319 -2.44081 51.691 5.9319 -2.44081
109 1 1.02678 7.54469 -0.678513 1.02678 7.54469 -0.678513
110 2 2.97158 7.442 0.964361 2.97158 7.442 0.964361
111 2 2.86144 7.69362 -2.37975 2.86144 7.69362 -2.37975
112 1 3.87663 9.27414 -0.616416 3.87663 9.27414 -0.616416
113 2 5.70075 9.33476 0.998413 5.70075 9.33476 0.998413
114 2 5.7695 9.22019 -2.18865 5.7695 9.22019 -2.18865
115 1 6.71534 7.63061 -0.532883 6.71534 7.63061 -0.532883
116 2 8.60168 7.79129 1.15489 8.60168 7.79129 1.15489
117 2 8.67558 7.61864 -2.17013 8.67558 7.61864 -2.17013
118 1 9.55545 9.26858 -0.647508 9.55545 9.26858 -0.647508
119 2 11.3454 9.50319 1.04353 11.3454 9.50319 1.04353
120 2 11.6749 9.30459 -2.07568 11.6749 9.30459 -2.07568
121 1 12.4424 7.72135 -0.285554 12.4424 7.72135 -0.285554
122 2 14.5186 7.71194 1.16194 14.5186 7.71194 1.16194
123 2 14.2911 7.40965 -2.07854 14.2911 7.40965 -2.07854
124 1 15.3464 9.2226 -0.600247 15.3464 9.2226 -0.600247
125 2 17.0168 8.95806 1.27707 17.0168 8.95806 1.27707
126 2 17.4097 9.3765 -1.95645 17.4097 9.3765 -1.95645
127 1 18.129 7.53647 -0.399281 18.129 7.53647 -0.399281
128 2 20.0173 7.6415 1.1472 20.0173 7.6415 1.1472
129 2 19.9258 7.46094 -2.05644 19.9258 7.46094 -2.05644
130 1 21.0139 9.15935 -0.421684 21.0139 9.15935 -0.421684
131 2 22.88 9.13845 1.16197 22.88 9.13845 1.16197
132 2 22.8794 9.2299 -2.02299 22.8794 9.2299 -2.02299
133 1 23.8531 7.54238 -0.493925 23.8531 7.54238 -0.493925
134 2 25.8709 7.663 1.12223 25.8709 7.663 1.12223
135 2 25.8134 7.56112 -2.12446 25.8134 7.56112 -2.12446
136 1 26.7775 9.25043 -0.615462 26.7775 9.25043 -0.615462
137 2 28.4759 9.23145 1.09562 28.4759 9.23145 1.09562
138 2 28.7158 9.17606 -2.18718 28.7158 9.17606 -2.18718
139 1 29.6849 7.57099 -0.480892 29.6849 7.57099 -0.480892
140 2 31.7445 7.51455 0.948599 31.7445 7.51455 0.948599
141 2 31.3672 7.48052 -2.2874 31.3672 7.48052 -2.2874
142 1 32.3922 9.18355 -0.818536 32.3922 9.18355 -0.818536
143 2 34.1184 9.21948 0.865248 34.1184 9.21948 0.865248
144 2 34.3565 9.19864 -2.27236 34.3565 9.19864 -2.27236
145 1 35.28 7.56341 -0.578652 35.28 7.56341 -0.578652
146 2 37.3567 7.53425 0.927489 37.3567 7.53425 0.927489
147 2 37.0184 7.79559 -2.36401 37.0184 7.79559 -2.36401
148 1 38.1504 9.17073 -0.782737 38.1504 9.17073 -0.782737
149 2 40.1546 9.31292 0.7509 40.1546 9.31292 0.7509
150 2 40.0158 9.06843 -2.45112 40.0158 9.06843 -2.45112
151 1 41.06 7.66083 -0.783495 41.06 7.66083 -0.783495
152 2 43.1256 7.4456 0.707571 43.1256 7.4456 0.707571
153 2 42.9539 7.7103 -2.54492 42.9539 7.7103 -2.54492
154 1 43.8924 9.30093 -0.926193 43.8924 9.30093 -0.926193
155 2 45.8977 9.28863 0.666623 45.8977 9.28863 0.666623
156 2 45.8219 9.12198 -2.55428 45.8219 9.12198 -2.55428
157 1 46.7855 7.54211 -0.843143 46.7855 7.54211 -0.843143
158 2 48.7749 7.53672 0.697147 48.7749 7.53672 0.697147
159 2 48.5733 7.61515 -2.46306 48.5733 7.61515 -2.46306
160 1 49.6017 9.29569 -0.892568 49.6017 9.29569 -0.892568
161 2 51.4607 9.24931 0.795369 51.4607 9.24931 0.795369
162 2 51.5146 9.10227 -2.42534 51.5146 9.10227 -2.42534
163 1 1.04667 10.8623 -0.792929 1.04667 10.8623 -0.792929
164 2 2.79404 10.8459 0.972105 2.79404 10.8459 0.972105
165 2 3.008 10.7977 -2.30802 3.008 10.7977 -2.30802
166 1 3.86678 12.455 -0.683168 3.86678 12.455 -0.683168
167 2 5.77584 12.6212 0.930367 5.77584 12.6212 0.930367
168 2 5.80421 12.3532 -2.31609 5.80421 12.3532 -2.31609
169 1 6.6932 10.903 -0.578317 6.6932 10.903 -0.578317
170 2 8.77737 11.0569 0.96764 8.77737 11.0569 0.96764
171 2 8.49851 10.8361 -2.32761 8.49851 10.8361 -2.32761
172 1 9.58556 12.6593 -0.826431 9.58556 12.6593 -0.826431
173 2 11.3621 12.5219 1.0847 11.3621 12.5219 1.0847
174 2 11.7228 12.7278 -2.21366 11.7228 12.7278 -2.21366
175 1 12.4779 10.967 -0.559394 12.4779 10.967 -0.559394
176 2 14.2999 10.7223 1.20084 14.2999 10.7223 1.20084
177 2 14.4286 11.0454 -2.1318 14.4286 11.0454 -2.1318
178 1 15.2929 12.5189 -0.283388 15.2929 12.5189 -0.283388
179 2 17.0202 12.5183 1.48207 17.0202 12.5183 1.48207
180 2 17.3937 12.6822 -1.73596 17.3937 12.6822 -1.73596
181 1 18.1455 10.8237 -0.0492612 18.1455 10.8237 -0.0492612
182 2 20.085 10.606 1.44773 20.085 10.606 1.44773
183 2 20.0736 11.0904 -1.6715 20.0736 11.0904 -1.6715
184 1 21.0793 12.4872 0.103487 21.0793 12.4872 0.103487
185 2 23.1801 12.5166 1.4566 23.1801 12.5166 1.4566
186 2 22.8028 12.5524 -1.72016 22.8028 12.5524 -1.72016
187 1 23.9205 10.8296 -0.238178 23.9205 10.8296 -0.238178
188 2 25.9436 10.9162 1.19017 25.9436 10.9162 1.19017
189 2 25.5556 10.975 -2.1242 25.5556 10.975 -2.1242
190 1 26.754 12.5977 -0.569385 26.754 12.5977 -0.569385
191 2 28.697 12.5831 1.00903 28.697 12.5831 1.00903
192 2 28.5256 12.476 -2.2498 28.5256 12.476 -2.2498
193 1 29.5356 10.8808 -0.588064 29.5356 10.8808 -0.588064
194 2 31.506 10.7474 0.879465 31.506 10.7474 0.879465
195 2 31.2714 10.8893 -2.34983 31.2714 10.8893 -2.34983
196 1 32.4534 12.5469 -0.703839 32.4534 12.5469 -0.703839
197 2 34.2565 12.5944 0.957013 34.2565 12.5944 0.957013
198 2 34.3556 12.5785 -2.38264 34.3556 12.5785 -2.38264
199 1 35.2426 10.8944 -0.598274 35.2426 10.8944 -0.598274
200 2 37.2409 10.7979 0.854106 37.2409 10.7979 0.854106
201 2 37.1325 10.9597 -2.33424 37.1325 10.9597 -2.33424
202 1 38.1086 12.5451 -0.699307 38.1086 12.5451 -0.699307
203 2 40.091 12.374 0.780625 40.091 12.374 0.780625
204 2 39.9687 12.6743 -2.46952 39.9687 12.6743 -2.46952
205 1 40.9796 10.8873 -1.07422 40.9796 10.8873 -1.07422
206 2 42.7865 10.8927 0.688886 42.7865 10.8927 0.688886
207 2 43.0158 10.8495 -2.58669 43.0158 10.8495 -2.58669
208 1 43.8625 12.5577 -0.972661 43.8625 12.5577 -0.972661
209 2 45.8424 12.3599 0.691816 45.8424 12.3599 0.691816
210 2 45.81 12.761 -2.53564 45.81 12.761 -2.53564
211 1 46.7232 10.881 -1.11132 46.7232 10.881 -1.11132
212 2 48.4725 10.7766 0.596393 48.4725 10.7766 0.596393
213 2 48.8024 10.8645 -2.67028 48.8024 10.8645 -2.67028
214 1 49.5992 12.5664 -0.960189 49.5992 12.5664 -0.960189
215 2 51.3583 12.6018 0.809902 51.3583 12.6018 0.809902
216 2 51.6475 12.5734 -2.48783 51.6475 12.5734 -2.48783
217 1 1.00768 14.1617 -0.770712 1.00768 14.1617 -0.770712
218 2 2.81645 14.1224 0.925802 2.81645 14.1224 0.925802
219 2 3.05713 14.1895 -2.29977 3.05713 14.1895 -2.29977
220 1 3.87326 15.8447 -0.510035 3.87326 15.8447 -0.510035
221 2 5.94883 15.7566 0.935525 5.94883 15.7566 0.935525
222 2 5.6583 15.9095 -2.24996 5.6583 15.9095 -2.24996
223 1 6.77858 14.1653 -0.808211 6.77858 14.1653 -0.808211
224 2 8.61159 13.9909 0.997853 8.61159 13.9909 0.997853
225 2 8.65482 14.5023 -2.29255 8.65482 14.5023 -2.29255
226 1 9.55954 15.8588 -0.386369 9.55954 15.8588 -0.386369
227 2 11.4322 15.8426 1.33714 11.4322 15.8426 1.33714
228 2 11.5437 15.9973 -1.95285 11.5437 15.9973 -1.95285
229 1 12.4024 14.2932 -0.346798 12.4024 14.2932 -0.346798
230 2 14.1645 14.1043 1.41473 14.1645 14.1043 1.41473
231 2 14.5767 14.3608 -1.78173 14.5767 14.3608 -1.78173
232 1 15.3016 15.8798 0.146879 15.3016 15.8798 0.146879
233 2 17.2846 15.8124 1.71764 17.2846 15.8124 1.71764
234 2 17.074 15.9066 -1.59513 17.074 15.9066 -1.59513
235 1 18.1773 14.215 0.000423952 18.1773 14.215 0.000423952
236 2 19.9511 14.181 1.65582 19.9511 14.181 1.65582
237 2 20.0941 14.0826 -1.63 20.0941 14.0826 -1.63
238 1 21.0231 15.7941 -0.0326458 21.0231 15.7941 -0.0326458
239 2 22.8605 15.6107 1.76411 22.8605 15.6107 1.76411
240 2 22.973 16.1302 -1.52144 22.973 16.1302 -1.52144
241 1 23.885 14.2248 -0.166707 23.885 14.2248 -0.166707
242 2 25.9659 14.0683 1.33924 25.9659 14.0683 1.33924
243 2 25.6575 14.3484 -1.89065 25.6575 14.3484 -1.89065
244 1 26.748 15.8443 -0.163467 26.748 15.8443 -0.163467
245 2 28.9325 15.6554 1.20539 28.9325 15.6554 1.20539
246 2 28.4733 16.0047 -1.95545 28.4733 16.0047 -1.95545
247 1 29.5973 14.1963 -0.661219 29.5973 14.1963 -0.661219
248 2 31.5069 14.0598 0.981069 31.5069 14.0598 0.981069
249 2 31.556 14.3859 -2.20351 31.556 14.3859 -2.20351
250 1 32.4521 15.8544 -0.392645 32.4521 15.8544 -0.392645
251 2 34.4192 15.725 1.17385 34.4192 15.725 1.17385
252 2 34.3694 15.9838 -2.02822 34.3694 15.9838 -2.02822
253 1 35.2995 14.1686 -0.636486 35.2995 14.1686 -0.636486
254 2 37.157 14.1753 1.00126 37.157 14.1753 1.00126
255 2 37.2346 14.2478 -2.26555 37.2346 14.2478 -2.26555
256 1 38.1695 15.8683 -0.559839 38.1695 15.8683 -0.559839
257 2 40.0634 15.838 1.04239 40.0634 15.838 1.04239
258 2 40.0402 15.8427 -2.23485 40.0402 15.8427 -2.23485
259 1 41.0061 14.1616 -0.677924 41.0061 14.1616 -0.677924
260 2 43.1105 13.9593 0.787744 43.1105 13.9593 0.787744
261 2 42.8135 14.3018 -2.44951 42.8135 14.3018 -2.44951
262 1 43.9171 15.7893 -0.76288 43.9171 15.7893 -0.76288
263 2 45.8741 15.6373 0.878059 45.8741 15.6373 0.878059
264 2 45.8616 16.0434 -2.34578 45.8616 16.0434 -2.34578
265 1 46.7826 14.2018 -0.856385 46.7826 14.2018 -0.856385
266 2 48.5505 14.0623 0.793194 48.5505 14.0623 0.793194
267 2 48.7321 14.2375 -2.4665 48.7321 14.2375 -2.4665
268 1 49.5112 15.8073 -0.68192 49.5112 15.8073 -0.68192
269 2 51.4191 15.7794 0.840307 51.4191 15.7794 0.840307
270 2 51.471 15.8951 -2.31711 51.471 15.8951 -2.31711
271 1 1.03583 17.4521 -0.686691 1.03583 17.4521 -0.686691
272 2 2.86247 17.5212 1.06714 2.86247 17.5212 1.06714
273 2 3.03923 17.5233 -2.20403 3.03923 17.5233 -2.20403
274 1 3.88 19.2202 -0.519963 3.88 19.2202 -0.519963
275 2 5.74046 19.086 1.10843 5.74046 19.086 1.10843
276 2 5.89595 19.4701 -2.05216 5.89595 19.4701 -2.05216
277 1 6.69196 17.5573 -0.638548 6.69196 17.5573 -0.638548
278 2 8.33376 17.2865 1.18691 8.33376 17.2865 1.18691
279 2 8.81476 17.6492 -1.99899 8.81476 17.6492 -1.99899
280 1 9.58825 19.1945 -0.131435 9.58825 19.1945 -0.131435
281 2 11.5396 19.0331 1.54607 11.5396 19.0331 1.54607
282 2 11.5149 19.2911 -1.66584 11.5149 19.2911 -1.66584
283 1 12.424 17.5383 -0.166277 12.424 17.5383 -0.166277
284 2 14.2228 17.6122 1.54337 14.2228 17.6122 1.54337
285 2 14.3902 17.3366 -1.67901 14.3902 17.3366 -1.67901
286 1 15.4053 19.0687 -0.0798239 15.4053 19.0687 -0.0798239
287 2 17.257 19.0949 1.59913 17.257 19.0949 1.59913
288 2 17.3788 19.1779 -1.58315 17.3788 19.1779 -1.58315
289 1 18.25 17.4996 0.0388368 18.25 17.4996 0.0388368
290 2 20.0902 17.4329 1.62356 20.0902 17.4329 1.62356
291 2 20.1077 17.5406 -1.58652 20.1077 17.5406 -1.58652
292 1 21.1219 19.1374 0.094061 21.1219 19.1374 0.094061
293 2 22.9234 19.2685 1.81013 22.9234 19.2685 1.81013
294 2 23.0542 19.032 -1.4146 23.0542 19.032 -1.4146
295 1 23.9028 17.5427 0.37301 23.9028 17.5427 0.37301
296 2 26.1105 17.4295 1.68388 26.1105 17.4295 1.68388
297 2 25.5474 17.5749 -1.49057 25.5474 17.5749 -1.49057
298 1 26.7872 19.1878 0.0453573 26.7872 19.1878 0.0453573
299 2 28.7753 18.9243 1.65961 28.7753 18.9243 1.65961
300 2 28.5394 19.3199 -1.68251 28.5394 19.3199 -1.68251
301 1 29.6446 17.5255 -0.343479 29.6446 17.5255 -0.343479
302 2 31.5377 17.4077 1.40814 31.5377 17.4077 1.40814
303 2 31.6019 17.6842 -1.89548 31.6019 17.6842 -1.89548
304 1 32.5462 19.1717 -0.0665882 32.5462 19.1717 -0.0665882
305 2 34.4926 18.9863 1.47471 34.4926 18.9863 1.47471
306 2 34.3616 19.2263 -1.73514 34.3616 19.2263 -1.73514
307 1 35.3213 17.4602 -0.369275 35.3213 17.4602 -0.369275
308 2 37.3059 17.394 1.23257 37.3059 17.394 1.23257
309 2 37.2553 17.7403 -2.08776 37.2553 17.7403 -2.08776
310 1 38.2066 19.1415 -0.234879 38.2066 19.1415 -0.234879
311 2 40.2024 18.832 1.3291 40.2024 18.832 1.3291
312 2 39.97 19.4165 -1.85722 39.97 19.4165 -1.85722
313 1 41.0411 17.4778 -0.534961 41.0411 17.4778 -0.534961
314 2 43.0657 17.3091 1.00991 43.0657 17.3091 1.00991
315 2 43.0002 17.6677 -2.19825 43.0002 17.6677 -2.19825
316 1 43.9494 19.105 -0.38939 43.9494 19.105 -0.38939
317 2 45.8047 19.0321 1.23691 45.8047 19.0321 1.23691
318 2 45.7877 19.2291 -1.9978 45.7877 19.2291 -1.9978
319 1 46.7844 17.5375 -0.55323 46.7844 17.5375 -0.55323
320 2 48.8257 17.6612 0.974809 48.8257 17.6612 0.974809
321 2 48.6219 17.5206 -2.27737 48.6219 17.5206 -2.27737
322 1 49.6907 19.1035 -0.746288 49.6907 19.1035 -0.746288
323 2 51.5922 19.0338 0.901257 51.5922 19.0338 0.901257
324 2 51.5594 19.1422 -2.33516 51.5594 19.1422 -2.33516
325 1 1.10054 20.7258 -0.642373 1.10054 20.7258 -0.642373
326 2 2.92771 20.784 1.18572 2.92771 20.784 1.18572
327 2 3.00845 20.9332 -2.06795 3.00845 20.9332 -2.06795
328 1 3.89737 22.4588 -0.298395 3.89737 22.4588 -0.298395
329 2 5.77881 22.5283 1.30972 5.77881 22.5283 1.30972
330 2 5.74178 22.4891 -1.90418 5.74178 22.4891 -1.90418
331 1 6.78667 20.8776 -0.249995 6.78667 20.8776 -0.249995
332 2 8.71266 20.7349 1.59645 8.71266 20.7349 1.59645
333 2 8.70898 20.9188 -1.70024 8.70898 20.9188 -1.70024
334 1 9.65358 22.441 -0.00423614 9.65358 22.441 -0.00423614
335 2 11.613 22.2926 1.73997 11.613 22.2926 1.73997
336 2 11.6263 22.4721 -1.54852 11.6263 22.4721 -1.54852
337 1 12.5252 20.763 0.00470226 12.5252 20.763 0.00470226
338 2 14.6287 20.7419 1.49441 14.6287 20.7419 1.49441
339 2 14.3144 20.6942 -1.79368 14.3144 20.6942 -1.79368
340 1 15.4271 22.4853 -0.270942 15.4271 22.4853 -0.270942
341 2 17.0516 22.2387 1.69835 17.0516 22.2387 1.69835
342 2 17.5379 22.6618 -1.49212 17.5379 22.6618 -1.49212
343 1 18.2684 20.7448 0.00763158 18.2684 20.7448 0.00763158
344 2 20.0752 20.8144 1.6986 20.0752 20.8144 1.6986
345 2 20.2375 20.8499 -1.59256 20.2375 20.8499 -1.59256
346 1 21.0189 22.4503 0.143667 21.0189 22.4503 0.143667
347 2 22.9375 22.3256 1.84123 22.9375 22.3256 1.84123
348 2 22.8379 22.5645 -1.49267 22.8379 22.5645 -1.49267
349 1 23.8708 20.8818 0.0461782 23.8708 20.8818 0.0461782
350 2 25.6846 20.5839 1.70261 25.6846 20.5839 1.70261
351 2 25.8202 21.1916 -1.35255 25.8202 21.1916 -1.35255
352 1 26.7912 22.4402 0.530783 26.7912 22.4402 0.530783
353 2 28.8395 22.4586 1.88041 28.8395 22.4586 1.88041
354 2 28.4902 22.5295 -1.43728 28.4902 22.5295 -1.43728
355 1 29.6753 20.8565 0.100232 29.6753 20.8565 0.100232
356 2 31.5575 20.5979 1.75979 31.5575 20.5979 1.75979
357 2 31.4998 20.9626 -1.54245 31.4998 20.9626 -1.54245
358 1 32.4646 22.4564 0.231944 32.4646 22.4564 0.231944
359 2 34.3511 22.2615 1.737 34.3511 22.2615 1.737
360 2 34.266 22.6182 -1.44274 34.266 22.6182 -1.44274
361 1 35.3297 20.7532 -0.0525638 35.3297 20.7532 -0.0525638
362 2 37.169 20.5579 1.58442 37.169 20.5579 1.58442
363 2 37.1248 20.9023 -1.71744 37.1248 20.9023 -1.71744
364 1 38.1598 22.4328 0.137406 38.1598 22.4328 0.137406
365 2 40.0902 22.2561 1.69487 40.0902 22.2561 1.69487
366 2 40.1791 22.6136 -1.50437 40.1791 22.6136 -1.50437
367 1 41.0801 20.7351 -0.0507934 41.0801 20.7351 -0.0507934
368 2 43.0752 20.5191 1.53282 43.0752 20.5191 1.53282
369 2 42.9545 21.0048 -1.69978 42.9545 21.0048 -1.69978
370 1 43.8982 22.4519 0.121113 43.8982 22.4519 0.121113
371 2 45.8409 22.2205 1.59309 45.8409 22.2205 1.59309
372 2 45.654 22.6223 -1.66159 45.654 22.6223 -1.66159
373 1 46.7937 20.7482 -0.333541 46.7937 20.7482 -0.333541
374 2 48.7856 20.6636 1.16648 48.7856 20.6636 1.16648
375 2 48.4896 20.9345 -2.15413 48.4896 20.9345 -2.15413
376 1 49.566 22.4431 -0.393832 49.566 22.4431 -0.393832
377 2 51.6606 22.3673 1.0664 51.6606 22.3673 1.0664
378 2 51.3917 22.4637 -2.06979 51.3917 22.4637 -2.06979
379 1 1.09636 24.0372 -0.453753 1.09636 24.0372 -0.453753
380 2 2.79148 24.0912 1.26008 2.79148 24.0912 1.26008
381 2 3.0083 24.1295 -2.05314 3.0083 24.1295 -2.05314
382 1 3.83128 25.7287 -0.327842 3.83128 25.7287 -0.327842
383 2 5.72037 25.5543 1.375 5.72037 25.5543 1.375
384 2 5.80287 25.9072 -1.865 5.80287 25.9072 -1.865
385 1 6.76397 24.0536 -0.352747 6.76397 24.0536 -0.352747
386 2 8.37452 23.9777 1.62163 8.37452 23.9777 1.62163
387 2 9.00756 24.135 -1.69396 9.00756 24.135 -1.69396
388 1 9.57822 25.6983 0.161803 9.57822 25.6983 0.161803
389 2 11.358 25.6683 1.82996 11.358 25.6683 1.82996
390 2 11.5089 25.7102 -1.44271 11.5089 25.7102 -1.44271
391 1 12.4549 24.0339 0.116221 12.4549 24.0339 0.116221
392 2 14.4817 23.9141 1.67602 14.4817 23.9141 1.67602
393 2 14.3092 24.4264 -1.4961 14.3092 24.4264 -1.4961
394 1 15.1933 25.7806 0.266683 15.1933 25.7806 0.266683
395 2 17.0295 25.6399 2.10054 17.0295 25.6399 2.10054
396 2 17.197 25.8841 -1.17395 17.197 25.8841 -1.17395
397 1 18.0758 24.1064 0.4505 18.0758 24.1064 0.4505
398 2 20.0474 23.8226 2.02855 20.0474 23.8226 2.02855
399 2 19.936 24.3722 -1.12663 19.936 24.3722 -1.12663
400 1 20.9891 25.777 0.664286 20.9891 25.777 0.664286
401 2 23.03 25.6354 2.14937 23.03 25.6354 2.14937
402 2 22.7974 25.8353 -1.1132 22.7974 25.8353 -1.1132
403 1 23.8389 24.1245 0.28577 23.8389 24.1245 0.28577
404 2 25.5738 24.1724 2.02428 25.5738 24.1724 2.02428
405 2 25.89 24.114 -1.25485 25.89 24.114 -1.25485
406 1 26.6494 25.7411 0.412544 26.6494 25.7411 0.412544
407 2 28.6396 25.6147 1.97141 28.6396 25.6147 1.97141
408 2 28.5474 26.0041 -1.25065 28.5474 26.0041 -1.25065
409 1 29.6534 24.0447 0.183093 29.6534 24.0447 0.183093
410 2 31.4628 23.9494 1.81134 31.4628 23.9494 1.81134
411 2 31.524 24.0074 -1.37194 31.524 24.0074 -1.37194
412 1 32.4542 25.6752 0.305727 32.4542 25.6752 0.305727
413 2 34.3624 25.6529 1.96537 34.3624 25.6529 1.96537
414 2 34.3633 25.5903 -1.35836 34.3633 25.5903 -1.35836
415 1 35.3056 24.0689 0.345367 35.3056 24.0689 0.345367
416 2 37.1866 23.7746 1.93526 37.1866 23.7746 1.93526
417 2 37.1691 24.3534 -1.25434 37.1691 24.3534 -1.25434
418 1 38.1848 25.6858 0.50687 38.1848 25.6858 0.50687
419 2 40.2127 25.6681 2.00695 40.2127 25.6681 2.00695
420 2 39.9865 25.6146 -1.26678 39.9865 25.6146 -1.26678
421 1 41.0148 24.0423 0.333147 41.0148 24.0423 0.333147
422 2 43.0336 24.1606 1.80752 43.0336 24.1606 1.80752
423 2 42.8324 24.0955 -1.41656 42.8324 24.0955 -1.41656
424 1 43.7626 25.7733 0.132609 43.7626 25.7733 0.132609
425 2 45.7006 25.7638 1.7142 45.7006 25.7638 1.7142
426 2 45.7349 25.7898 -1.50774 45.7349 25.7898 -1.50774
427 1 46.6747 24.0995 0.133142 46.6747 24.0995 0.133142
428 2 48.7972 23.8722 1.45326 48.7972 23.8722 1.45326
429 2 48.3733 24.0698 -1.74872 48.3733 24.0698 -1.74872
430 1 49.5699 25.6309 -0.251766 49.5699 25.6309 -0.251766
431 2 51.6244 25.6919 1.22645 51.6244 25.6919 1.22645
432 2 51.3026 25.7191 -1.96848 51.3026 25.7191 -1.96848
433 1 0.95937 27.3593 -0.392355 0.95937 27.3593 -0.392355
434 2 2.83885 27.3605 1.2083 2.83885 27.3605 1.2083
435 2 2.91516 27.4602 -2.06811 2.91516 27.4602 -2.06811
436 1 3.80071 29.0052 -0.448388 3.80071 29.0052 -0.448388
437 2 5.58098 29.0753 1.42434 5.58098 29.0753 1.42434
438 2 6.02738 28.9683 -1.85565 6.02738 28.9683 -1.85565
439 1 6.71903 27.3231 -0.0428481 6.71903 27.3231 -0.0428481
440 2 8.50958 27.395 1.71994 8.50958 27.395 1.71994
441 2 8.79756 27.3506 -1.61078 8.79756 27.3506 -1.61078
442 1 9.66011 29.0549 0.103346 9.66011 29.0549 0.103346
443 2 11.4023 29.0167 1.91554 11.4023 29.0167 1.91554
444 2 11.6389 29.1994 -1.36335 11.6389 29.1994 -1.36335
445 1 12.3478 27.392 0.234419 12.3478 27.392 0.234419
446 2 14.1541 27.2508 1.95802 14.1541 27.2508 1.95802
447 2 14.4461 27.6163 -1.2236 14.4461 27.6163 -1.2236
448 1 15.1993 29.0223 0.625739 15.1993 29.0223 0.625739
449 2 17.0737 28.9263 2.2424 17.0737 28.9263 2.2424
450 2 17.1858 29.0236 -0.95929 17.1858 29.0236 -0.95929
451 1 18.1284 27.3124 0.649702 18.1284 27.3124 0.649702
452 2 19.9565 27.3989 2.35152 19.9565 27.3989 2.35152
453 2 20.0978 27.5444 -0.912431 20.0978 27.5444 -0.912431
454 1 21.0088 29.034 0.788677 21.0088 29.034 0.788677
455 2 22.9444 28.9934 2.22751 22.9444 28.9934 2.22751
456 2 22.8762 29.0766 -1.05437 22.8762 29.0766 -1.05437
457 1 23.8219 27.3715 0.535485 23.8219 27.3715 0.535485
458 2 25.7563 27.301 2.27202 25.7563 27.301 2.27202
459 2 25.717 27.4902 -1.11986 25.717 27.4902 -1.11986
460 1 26.6755 29.0189 0.638827 26.6755 29.0189 0.638827
461 2 28.8495 29.0843 2.01423 28.8495 29.0843 2.01423
462 2 28.3389 28.9926 -1.16957 28.3389 28.9926 -1.16957
463 1 29.515 27.4391 0.40512 29.515 27.4391 0.40512
464 2 31.4875 27.3396 1.98936 31.4875 27.3396 1.98936
465 2 31.4413 27.39 -1.29243 31.4413 27.39 -1.29243
466 1 32.4809 28.9764 0.335637 32.4809 28.9764 0.335637
467 2 34.4566 29.007 1.89604 34.4566 29.007 1.89604
468 2 34.2422 28.9016 -1.3823 34.2422 28.9016 -1.3823
469 1 35.3391 27.264 0.188243 35.3391 27.264 0.188243
470 2 37.038 27.2117 2.12553 37.038 27.2117 2.12553
471 2 37.4032 27.3149 -1.21642 37.4032 27.3149 -1.21642
472 1 37.9945 29.0712 0.498506 37.9945 29.0712 0.498506
473 2 40.075 28.9318 1.89297 40.075 28.9318 1.89297
474 2 39.8545 29.0281 -1.36382 39.8545 29.0281 -1.36382
475 1 40.9617 27.3158 0.219717 40.9617 27.3158 0.219717
476 2 43.051 27.4925 1.77667 43.051 27.4925 1.77667
477 2 42.8081 27.447 -1.48614 42.8081 27.447 -1.48614
478 1 43.8845 29.0455 0.075427 43.8845 29.0455 0.075427
479 2 45.809 29.237 1.61679 45.809 29.237 1.61679
480 2 45.8113 28.7871 -1.63242 45.8113 28.7871 -1.63242
481 1 46.7885 27.4298 0.177489 46.7885 27.4298 0.177489
482 2 48.9569 27.4473 1.51668 48.9569 27.4473 1.51668
483 2 48.3588 27.3608 -1.75061 48.3588 27.3608 -1.75061
484 1 49.5042 29.0273 -0.284706 49.5042 29.0273 -0.284706
485 2 51.48 29.1225 1.32026 51.48 29.1225 1.32026
486 2 51.3709 29.1784 -1.88083 51.3709 29.1784 -1.88083
487 1 0.988469 30.7402 -0.266161 0.988469 30.7402 -0.266161
488 2 2.8644 30.5321 1.33487 2.8644 30.5321 1.33487
489 2 2.87427 30.8085 -1.87337 2.87427 30.8085 -1.87337
490 1 3.87044 32.3235 -0.0725663 3.87044 32.3235 -0.0725663
491 2 5.72675 32.3281 1.48602 5.72675 32.3281 1.48602
492 2 5.54242 32.2673 -1.7745 5.54242 32.2673 -1.7745
493 1 6.64386 30.6507 -0.19403 6.64386 30.6507 -0.19403
494 2 8.4981 30.7189 1.67633 8.4981 30.7189 1.67633
495 2 8.70349 30.5546 -1.66427 8.70349 30.5546 -1.66427
496 1 9.61123 32.2865 0.171281 9.61123 32.2865 0.171281
497 2 11.4209 32.3651 1.91985 11.4209 32.3651 1.91985
498 2 11.5451 32.4085 -1.34163 11.5451 32.4085 -1.34163
499 1 12.4939 30.7191 0.368745 12.4939 30.7191 0.368745
500 2 14.186 30.7432 2.17216 14.186 30.7432 2.17216
501 2 14.4375 30.6445 -1.15551 14.4375 30.6445 -1.15551
502 1 15.2141 32.2798 0.587276 15.2141 32.2798 0.587276
503 2 17.1402 32.3523 2.30858 17.1402 32.3523 2.30858
504 2 17.1684 32.1889 -0.953301 17.1684 32.1889 -0.953301
505 1 18.0855 30.5414 0.768485 18.0855 30.5414 0.768485
506 2 20.0037 30.6914 2.27192 20.0037 30.6914 2.27192
507 2 19.8957 30.4955 -0.939745 19.8957 30.4955 -0.939745
508 1 20.9202 32.2847 0.542922 20.9202 32.2847 0.542922
509 2 22.8064 32.3463 2.22104 22.8064 32.3463 2.22104
510 2 22.9931 32.3375 -1.07927 22.9931 32.3375 -1.07927
511 1 23.7727 30.7091 0.558591 23.7727 30.7091 0.558591
512 2 25.6696 30.888 2.14117 25.6696 30.888 2.14117
513 2 25.6512 30.6032 -1.09736 25.6512 30.6032 -1.09736
514 1 26.6666 32.3139 0.398748 26.6666 32.3139 0.398748
515 2 28.6436 32.4579 1.81797 28.6436 32.4579 1.81797
516 2 28.3671 32.2533 -1.41133 28.3671 32.2533 -1.41133
517 1 29.5432 30.6777 0.239059 29.5432 30.6777 0.239059
518 2 31.4482 30.819 1.79286 31.4482 30.819 1.79286
519 2 31.2806 30.4079 -1.43018 31.2806 30.4079 -1.43018
520 1 32.3169 32.3069 -0.133348 32.3169 32.3069 -0.133348
521 2 34.0652 32.2801 1.74443 34.0652 32.2801 1.74443
522 2 34.4587 32.4294 -1.52653 34.4587 32.4294 -1.52653
523 1 35.2137 30.6915 0.177632 35.2137 30.6915 0.177632
524 2 36.9211 30.6772 1.96209 36.9211 30.6772 1.96209
525 2 37.2782 30.5774 -1.32837 37.2782 30.5774 -1.32837
526 1 38.0529 32.2961 0.417692 38.0529 32.2961 0.417692
527 2 40.1543 32.6587 1.72257 40.1543 32.6587 1.72257
528 2 39.7422 32.1032 -1.44025 39.7422 32.1032 -1.44025
529 1 40.95 30.7006 0.221335 40.95 30.7006 0.221335
530 2 42.8392 30.6054 1.80757 42.8392 30.6054 1.80757
531 2 42.8071 30.644 -1.44521 42.8071 30.644 -1.44521
532 1 43.9028 32.3735 0.0282635 43.9028 32.3735 0.0282635
533 2 45.8174 32.4424 1.56391 45.8174 32.4424 1.56391
534 2 45.6727 32.2298 -1.80066 45.6727 32.2298 -1.80066
535 1 46.6696 30.685 -0.176109 46.6696 30.685 -0.176109
536 2 48.5651 30.5716 1.5377 48.5651 30.5716 1.5377
537 2 48.621 30.7887 -1.70306 48.621 30.7887 -1.70306
538 1 49.445 32.3498 0.0612572 49.445 32.3498 0.0612572
539 2 51.6237 32.2925 1.50338 51.6237 32.2925 1.50338