ITEM: TIMESTEP
18700
ITEM: NUMBER OF ATOMS
810
ITEM: BOX BOUNDS pp pp pp
8.4106879873820839e-01 5.2176536201262415e+01
7.2595097135431019e-01 5.0290264028644657e+01
-1.0000000000000000e+01 1.0000000000000000e+01
ITEM: ATOMS id type x y z xu yu zu
1 1 1.06871 0.946373 0.376677 1.06871 0.946373 0.376677
2 2 3.03069 0.949971 1.92468 3.03069 0.949971 1.92468
3 2 2.82097 1.04513 -1.35629 2.82097 1.04513 -1.35629
4 1 3.83281 2.70179 0.282122 3.83281 2.70179 0.282122
5 2 5.81912 2.87839 1.88944 5.81912 2.87839 1.88944
6 2 5.85266 2.55688 -1.42826 5.85266 2.55688 -1.42826
7 1 6.69259 1.02725 0.419782 6.69259 1.02725 0.419782
8 2 8.72092 1.00783 1.94 8.72092 1.00783 1.94
9 2 8.49837 0.977456 -1.40845 8.49837 0.977456 -1.40845
10 1 9.53028 2.55125 0.166456 9.53028 2.55125 0.166456
11 2 11.404 2.57799 1.88591 11.404 2.57799 1.88591
12 2 11.5088 2.43348 -1.33829 11.5088 2.43348 -1.33829
13 1 12.4629 0.855073 0.343765 12.4629 0.855073 0.343765
14 2 14.3134 1.03604 1.97181 14.3134 1.03604 1.97181
15 2 14.4279 0.932447 -1.1949 14.4279 0.932447 -1.1949
16 1 15.3181 2.65873 0.42225 15.3181 2.65873 0.42225
17 2 17.2875 2.58705 2.02537 17.2875 2.58705 2.02537
18 2 17.1751 2.65794 -1.25853 17.1751 2.65794 -1.25853
19 1 18.1763 0.903515 0.393208 18.1763 0.903515 0.393208
20 2 20.1178 0.960925 1.95024 20.1178 0.960925 1.95024
21 2 19.9511 0.8513 -1.302 19.9511 0.8513 -1.302
22 1 21.0964 2.55116 0.230915 21.0964 2.55116 0.230915
23 2 23.0893 2.54108 1.63965 23.0893 2.54108 1.63965
24 2 22.8796 2.62594 -1.67543 22.8796 2.62594 -1.67543
25 1 23.7922 0.855032 -0.0258046 23.7922 0.855032 -0.0258046
26 2 25.7352 0.752535 1.59417 25.7352 0.752535 1.59417
27 2 25.7391 0.996533 -1.66391 25.7391 0.996533 -1.66391
28 1 26.5937 2.53441 0.115774 26.5937 2.53441 0.115774
29 2 28.539 2.35489 1.67748 28.539 2.35489 1.67748
30 2 28.5195 2.58391 -1.49187 28.5195 2.58391 -1.49187
31 1 29.5015 0.829048 -0.0208587 29.5015 0.829048 -0.0208587
32 2 31.4503 50.2426 1.64823 31.4503 0.678336 1.64823
33 2 31.6336 1.04738 -1.57229 31.6336 1.04738 -1.57229
34 1 32.4816 2.55751 0.248289 32.4816 2.55751 0.248289
35 2 34.4183 2.65047 1.8653 34.4183 2.65047 1.8653
36 2 34.3489 2.61154 -1.46422 34.3489 2.61154 -1.46422
37 1 35.2765 0.949168 0.285588 35.2765 0.949168 0.285588
38 2 37.1458 0.830552 2.04933 37.1458 0.830552 2.04933
39 2 37.2831 1.05263 -1.19967 37.2831 1.05263 -1.19967
40 1 38.107 2.63283 0.571565 38.107 2.63283 0.571565
41 2 40.0575 2.4321 2.16169 40.0575 2.4321 2.16169
42 2 40.0102 2.63469 -1.02438 40.0102 2.63469 -1.02438
43 1 41.0755 1.05146 0.439111 41.0755 1.05146 0.439111
44 2 42.8671 0.895723 2.14928 42.8671 0.895723 2.14928
45 2 42.8976 1.15213 -1.1104 42.8976 1.15213 -1.1104
46 1 43.8005 2.65933 0.628991 43.8005 2.65933 0.628991
47 2 45.8377 2.69576 2.11718 45.8377 2.69576 2.11718
48 2 45.5968 2.59369 -1.23064 45.5968 2.59369 -1.23064
49 1 46.6993 0.979577 0.400067 46.6993 0.979577 0.400067
50 2 48.5562 0.89921 1.96706 48.5562 0.89921 1.96706
51 2 48.4939 0.882716 -1.31315 48.4939 0.882716 -1.31315
52 1 49.487 2.53769 0.30501 49.487 2.53769 0.30501
53 2 51.2037 2.56497 2.03826 51.2037 2.56497 2.03826
54 2 51.3615 2.63699 -1.34817 51.3615 2.63699 -1.34817
55 1 0.926512 4.29413 0.376423 0.926512 4.29413 0.376423
56 2 2.94665 4.31676 1.90926 2.94665 4.31676 1.90926
57 2 2.73099 4.24197 -1.38983 2.73099 4.24197 -1.38983
58 1 3.89119 5.90819 0.279749 3.89119 5.90819 0.279749
59 2 5.88144 5.84757 1.73695 5.88144 5.84757 1.73695
60 2 5.53883 5.97444 -1.54074 5.53883 5.97444 -1.54074
61 1 6.80124 4.26045 0.0473147 6.80124 4.26045 0.0473147
62 2 8.62048 4.2819 1.79495 8.62048 4.2819 1.79495
63 2 8.79546 4.16269 -1.6193 8.79546 4.16269 -1.6193
64 1 9.54319 5.86543 0.0850803 9.54319 5.86543 0.0850803
65 2 11.3196 5.97604 1.73049 11.3196 5.97604 1.73049
66 2 11.4399 5.82261 -1.44775 11.4399 5.82261 -1.44775
67 1 12.4127 4.23192 0.233422 12.4127 4.23192 0.233422
68 2 14.3055 4.30528 1.96688 14.3055 4.30528 1.96688
69 2 14.3303 4.23858 -1.29108 14.3303 4.23858 -1.29108
70 1 15.3056 5.97035 0.302371 15.3056 5.97035 0.302371
71 2 17.2189 6.08342 1.86143 17.2189 6.08342 1.86143
72 2 17.2595 5.73971 -1.34997 17.2595 5.73971 -1.34997
73 1 18.2828 4.24811 0.439278 18.2828 4.24811 0.439278
74 2 20.2451 4.35857 1.87386 20.2451 4.35857 1.87386
75 2 20.0267 4.22636 -1.34558 20.0267 4.22636 -1.34558
76 1 21.0586 5.83338 0.110125 21.0586 5.83338 0.110125
77 2 23.0854 5.90695 1.56265 23.0854 5.90695 1.56265
78 2 22.832 5.71851 -1.72588 22.832 5.71851 -1.72588
79 1 23.8796 4.20617 -0.0319292 23.8796 4.20617 -0.0319292
80 2 25.7841 4.38338 1.54401 25.7841 4.38338 1.54401
81 2 25.7265 4.25994 -1.63698 25.7265 4.25994 -1.63698
82 1 26.7467 5.89083 -0.0226681 26.7467 5.89083 -0.0226681
83 2 28.5501 5.99771 1.6989 28.5501 5.99771 1.6989
84 2 28.6213 5.65553 -1.54937 28.6213 5.65553 -1.54937
85 1 29.5153 4.15121 0.167828 29.5153 4.15121 0.167828
86 2 31.3991 4.27899 1.71143 31.3991 4.27899 1.71143
87 2 31.5442 4.06335 -1.5571 31.5442 4.06335 -1.5571
88 1 32.3007 5.91194 -0.0594358 32.3007 5.91194 -0.0594358
89 2 34.1365 5.81312 1.64311 34.1365 5.81312 1.64311
90 2 34.3051 6.02973 -1.56646 34.3051 6.02973 -1.56646
91 1 35.2928 4.32445 0.0368558 35.2928 4.32445 0.0368558
92 2 37.0562 4.52312 1.82071 37.0562 4.52312 1.82071
93 2 37.3873 4.10144 -1.3664 37.3873 4.10144 -1.3664
94 1 38.0656 5.9218 0.152418 38.0656 5.9218 0.152418
95 2 39.901 6.07049 1.98464 39.901 6.07049 1.98464
96 2 40.0992 5.6318 -1.26151 40.0992 5.6318 -1.26151
97 1 40.9359 4.24169 0.65472 40.9359 4.24169 0.65472
98 2 42.9861 4.43993 2.17707 42.9861 4.43993 2.17707
99 2 42.6687 4.27612 -1.17411 42.6687 4.27612 -1.17411
100 1 43.7297 5.92279 0.329848 43.7297 5.92279 0.329848
101 2 45.764 5.94941 1.94483 45.764 5.94941 1.94483
102 2 45.7241 5.81361 -1.34312 45.7241 5.81361 -1.34312
103 1 46.6087 4.22802 0.251759 46.6087 4.22802 0.251759
104 2 48.4482 4.37988 1.80283 48.4482 4.37988 1.80283
105 2 48.5923 4.21285 -1.44232 48.5923 4.21285 -1.44232
106 1 49.4309 5.90032 0.122822 49.4309 5.90032 0.122822
107 2 51.2528 5.98936 1.85425 51.2528 5.98936 1.85425
108 2 51.2892 5.81789 -1.50183 51.2892 5.81789 -1.50183
109 1 0.932287 7.5174 0.060932 0.932287 7.5174 0.060932
110 2 2.93739 7.84308 1.57338 2.93739 7.84308 1.57338
111 2 2.90895 7.13167 -1.66228 2.90895 7.13167 -1.66228
112 1 3.8757 9.15972 -0.400152 3.8757 9.15972 -0.400152
113 2 5.51579 9.31209 1.43361 5.51579 9.31209 1.43361
114 2 5.99313 8.8895 -1.80694 5.99313 8.8895 -1.80694
115 1 6.71034 7.48075 0.105969 6.71034 7.48075 0.105969
116 2 8.7379 7.54124 1.64303 8.7379 7.54124 1.64303
117 2 8.52075 7.27109 -1.60745 8.52075 7.27109 -1.60745
118 1 9.48551 9.13898 -0.119047 9.48551 9.13898 -0.119047
119 2 11.2447 9.35825 1.72958 11.2447 9.35825 1.72958
120 2 11.4972 9.05982 -1.67279 11.4972 9.05982 -1.67279
121 1 12.3493 7.53705 0.138415 12.3493 7.53705 0.138415
122 2 14.1585 7.71694 1.7881 14.1585 7.71694 1.7881
123 2 14.3548 7.46962 -1.48386 14.3548 7.46962 -1.48386
124 1 15.262 9.15034 0.0292761 15.262 9.15034 0.0292761
125 2 17.1857 9.47444 1.50623 17.1857 9.47444 1.50623
126 2 17.0317 9.0022 -1.66817 17.0317 9.0022 -1.66817
127 1 18.1292 7.5565 0.0732868 18.1292 7.5565 0.0732868
128 2 20.1751 7.64873 1.55192 20.1751 7.64873 1.55192
129 2 19.9999 7.28462 -1.66168 19.9999 7.28462 -1.66168
130 1 21.0002 9.21816 -0.225908 21.0002 9.21816 -0.225908
131 2 22.8999 9.05664 1.45469 22.8999 9.05664 1.45469
132 2 22.9428 9.27048 -1.89754 22.9428 9.27048 -1.89754
133 1 23.9413 7.54268 -0.204663 23.9413 7.54268 -0.204663
134 2 25.726 7.70797 1.47309 25.726 7.70797 1.47309
135 2 25.8381 7.39647 -1.86279 25.8381 7.39647 -1.86279
136 1 26.7307 9.13604 -0.325417 26.7307 9.13604 -0.325417
137 2 28.4577 9.04713 1.47539 28.4577 9.04713 1.47539
138 2 28.707 9.16229 -1.76084 28.707 9.16229 -1.76084
139 1 29.5971 7.49163 -0.0572413 29.5971 7.49163 -0.0572413
140 2 31.4732 7.50225 1.60449 31.4732 7.50225 1.60449
141 2 31.5835 7.54998 -1.76672 31.5835 7.54998 -1.76672
142 1 32.3205 9.12065 -0.00538016 32.3205 9.12065 -0.00538016
143 2 34.0636 9.29762 1.80828 34.0636 9.29762 1.80828
144 2 34.391 9.17658 -1.47036 34.391 9.17658 -1.47036
145 1 35.1855 7.61343 0.2768 35.1855 7.61343 0.2768
146 2 37.2792 7.61074 1.82618 37.2792 7.61074 1.82618
147 2 37.0237 7.65188 -1.39244 37.0237 7.65188 -1.39244
148 1 37.9451 9.32169 0.103059 37.9451 9.32169 0.103059
149 2 39.98 9.33743 1.676 39.98 9.33743 1.676
150 2 39.8881 8.90788 -1.46433 39.8881 8.90788 -1.46433
151 1 40.9199 7.52216 0.276949 40.9199 7.52216 0.276949
152 2 42.8175 7.68588 1.9223 42.8175 7.68588 1.9223
153 2 42.8265 7.4472 -1.45389 42.8265 7.4472 -1.45389
154 1 43.8066 9.13335 0.12063 43.8066 9.13335 0.12063
155 2 45.7531 9.251 1.76738 45.7531 9.251 1.76738
156 2 45.6207 9.07459 -1.58256 45.6207 9.07459 -1.58256
157 1 46.7172 7.59046 0.189436 46.7172 7.59046 0.189436
158 2 48.7155 7.75758 1.69089 48.7155 7.75758 1.69089
159 2 48.4967 7.57963 -1.63741 48.4967 7.57963 -1.63741
160 1 49.5773 9.26378 -0.158688 49.5773 9.26378 -0.158688
161 2 51.4869 9.44326 1.49873 51.4869 9.44326 1.49873
162 2 51.4485 8.98007 -1.71732 51.4485 8.98007 -1.71732
163 1 1.06248 10.7931 -0.382899 1.06248 10.7931 -0.382899
164 2 3.04562 10.9772 1.04549 3.04562 10.9772 1.04549
165 2 2.93935 10.7052 -2.12947 2.93935 10.7052 -2.12947
166 1 3.92264 12.5084 -0.745017 3.92264 12.5084 -0.745017
167 2 5.55529 12.6217 1.16685 5.55529 12.6217 1.16685
168 2 5.91093 12.3447 -2.12473 5.91093 12.3447 -2.12473
169 1 6.71368 10.8291 -0.257273 6.71368 10.8291 -0.257273
170 2 8.63329 10.8373 1.37143 8.63329 10.8373 1.37143
171 2 8.59047 10.7043 -1.88459 8.59047 10.7043 -1.88459
172 1 9.53274 12.4122 -0.354958 9.53274 12.4122 -0.354958
173 2 11.4266 12.6695 1.33885 11.4266 12.6695 1.33885
174 2 11.4768 12.2106 -1.92363 11.4768 12.2106 -1.92363
175 1 12.3694 10.7531 -0.0742858 12.3694 10.7531 -0.0742858
176 2 14.3815 10.989 1.38451 14.3815 10.989 1.38451
177 2 14.2506 10.5815 -1.7742 14.2506 10.5815 -1.7742
178 1 15.3027 12.4491 -0.528645 15.3027 12.4491 -0.528645
179 2 17.1644 12.4401 1.29598 17.1644 12.4401 1.29598
180 2 17.3595 12.4128 -1.95361 17.3595 12.4128 -1.95361
181 1 18.2412 10.7593 -0.299788 18.2412 10.7593 -0.299788
182 2 20.0265 10.7786 1.51752 20.0265 10.7786 1.51752
183 2 20.1541 10.9163 -1.83142 20.1541 10.9163 -1.83142
184 1 20.9769 12.5306 -0.0505733 20.9769 12.5306 -0.0505733
185 2 22.909 12.4325 1.52417 22.909 12.4325 1.52417
186 2 22.9273 12.459 -1.7361 22.9273 12.459 -1.7361
187 1 23.8249 10.78 -0.131213 23.8249 10.78 -0.131213
188 2 25.7956 10.8494 1.46397 25.7956 10.8494 1.46397
189 2 25.7303 10.8447 -1.78172 25.7303 10.8447 -1.78172
190 1 26.6455 12.4905 -0.17668 26.6455 12.4905 -0.17668
191 2 28.3883 12.5096 1.52555 28.3883 12.5096 1.52555
192 2 28.5388 12.4293 -1.70228 28.5388 12.4293 -1.70228
193 1 29.4476 10.8297 -0.00654722 29.4476 10.8297 -0.00654722
194 2 31.3381 10.8342 1.61572 31.3381 10.8342 1.61572
195 2 31.4408 10.7123 -1.68956 31.4408 10.7123 -1.68956
196 1 32.3227 12.4259 -0.129328 32.3227 12.4259 -0.129328
197 2 34.1317 12.6033 1.61983 34.1317 12.6033 1.61983
198 2 34.2854 12.4469 -1.57596 34.2854 12.4469 -1.57596
199 1 35.1876 10.875 0.120406 35.1876 10.875 0.120406
200 2 37.0048 10.923 1.76469 37.0048 10.923 1.76469
201 2 37.0627 10.9216 -1.55151 37.0627 10.9216 -1.55151
202 1 38.1171 12.4491 0.0632767 38.1171 12.4491 0.0632767
203 2 40.1562 12.3721 1.64738 40.1562 12.3721 1.64738
204 2 39.9888 12.5368 -1.59896 39.9888 12.5368 -1.59896
205 1 40.9226 10.7424 -0.151372 40.9226 10.7424 -0.151372
206 2 42.7429 10.7848 1.6648 42.7429 10.7848 1.6648
207 2 42.9546 10.8147 -1.66483 42.9546 10.8147 -1.66483
208 1 43.7752 12.4068 0.0297408 43.7752 12.4068 0.0297408
209 2 45.6765 12.4695 1.62501 45.6765 12.4695 1.62501
210 2 45.6656 12.5804 -1.61233 45.6656 12.5804 -1.61233
211 1 46.5776 10.8333 -0.0616388 46.5776 10.8333 -0.0616388
212 2 48.6985 10.9622 1.47032 48.6985 10.9622 1.47032
213 2 48.4958 10.9403 -1.89979 48.4958 10.9403 -1.89979
214 1 49.4387 12.612 -0.298561 49.4387 12.612 -0.298561
215 2 51.5052 12.6951 1.14005 51.5052 12.6951 1.14005
216 2 51.2396 12.3565 -2.08293 51.2396 12.3565 -2.08293
217 1 1.04481 14.138 -0.663429 1.04481 14.138 -0.663429
218 2 3.03597 14.0251 1.00537 3.03597 14.0251 1.00537
219 2 2.93995 14.3046 -2.32058 2.93995 14.3046 -2.32058
220 1 3.82153 15.8403 -0.54639 3.82153 15.8403 -0.54639
221 2 5.72668 15.9101 1.09323 5.72668 15.9101 1.09323
222 2 5.69768 15.7613 -2.19228 5.69768 15.7613 -2.19228
223 1 6.70092 14.2149 -0.449765 6.70092 14.2149 -0.449765
224 2 8.59507 14.1456 1.15191 8.59507 14.1456 1.15191
225 2 8.67849 14.0311 -2.04321 8.67849 14.0311 -2.04321
226 1 9.5402 15.7349 -0.50419 9.5402 15.7349 -0.50419
227 2 11.4859 15.9183 0.93387 11.4859 15.9183 0.93387
228 2 11.3924 15.5504 -2.26302 11.3924 15.5504 -2.26302
229 1 12.4612 14.0388 -0.458562 12.4612 14.0388 -0.458562
230 2 14.2852 14.064 1.16887 14.2852 14.064 1.16887
231 2 14.3422 14.0619 -2.12421 14.3422 14.0619 -2.12421
232 1 15.3294 15.7279 -0.370305 15.3294 15.7279 -0.370305
233 2 17.2276 15.8344 1.28391 17.2276 15.8344 1.28391
234 2 17.2872 15.6104 -1.91112 17.2872 15.6104 -1.91112
235 1 18.2458 14.0908 -0.239663 18.2458 14.0908 -0.239663
236 2 20.185 14.4277 1.45529 20.185 14.4277 1.45529
237 2 20.0671 13.9761 -1.83335 20.0671 13.9761 -1.83335
238 1 21.0397 15.8064 -0.429015 21.0397 15.8064 -0.429015
239 2 22.873 15.8325 1.43108 22.873 15.8325 1.43108
240 2 22.9971 15.7331 -1.81162 22.9971 15.7331 -1.81162
241 1 23.8337 14.1063 -0.124321 23.8337 14.1063 -0.124321
242 2 25.6905 14.2851 1.488 25.6905 14.2851 1.488
243 2 25.7128 14.1108 -1.78805 25.7128 14.1108 -1.78805
244 1 26.5988 15.9338 -0.251526 26.5988 15.9338 -0.251526
245 2 28.4135 15.7292 1.51017 28.4135 15.7292 1.51017
246 2 28.6588 15.9112 -1.65724 28.6588 15.9112 -1.65724
247 1 29.4127 14.085 -0.0197916 29.4127 14.085 -0.0197916
248 2 31.2901 13.9563 1.6187 31.2901 13.9563 1.6187
249 2 31.2973 14.0091 -1.67592 31.2973 14.0091 -1.67592
250 1 32.3268 15.6454 -0.0829428 32.3268 15.6454 -0.0829428
251 2 34.149 15.8603 1.58458 34.149 15.8603 1.58458
252 2 34.2932 15.6906 -1.5811 34.2932 15.6906 -1.5811
253 1 35.2436 14.2392 0.0988221 35.2436 14.2392 0.0988221
254 2 37.2249 14.2899 1.55805 37.2249 14.2899 1.55805
255 2 37.0845 13.988 -1.59549 37.0845 13.988 -1.59549
256 1 38.1735 15.7979 -0.0243136 38.1735 15.7979 -0.0243136
257 2 39.9635 15.7642 1.6327 39.9635 15.7642 1.6327
258 2 40.1556 15.6025 -1.70752 40.1556 15.6025 -1.70752
259 1 40.9911 14.0953 0.0549631 40.9911 14.0953 0.0549631
260 2 42.9721 14.1872 1.70116 42.9721 14.1872 1.70116
261 2 42.889 14.2113 -1.58818 42.889 14.2113 -1.58818
262 1 43.8155 15.8578 0.0197508 43.8155 15.8578 0.0197508
263 2 45.758 16.0462 1.55435 45.758 16.0462 1.55435
264 2 45.7227 15.6983 -1.64951 45.7227 15.6983 -1.64951
265 1 46.6704 14.1345 0.0261049 46.6704 14.1345 0.0261049
266 2 48.6952 14.175 1.42233 48.6952 14.175 1.42233
267 2 48.3086 14.1941 -1.78513 48.3086 14.1941 -1.78513
268 1 49.484 15.7549 -0.355301 49.484 15.7549 -0.355301
269 2 51.4209 15.7178 1.14104 51.4209 15.7178 1.14104
270 2 51.2065 15.7788 -2.06415 51.2065 15.7788 -2.06415
271 1 0.965978 17.4177 -0.558615 0.965978 17.4177 -0.558615
272 2 2.81711 17.4531 1.06886 2.81711 17.4531 1.06886
273 2 2.83285 17.4778 -2.16564 2.83285 17.4778 -2.16564
274 1 3.85321 19.041 -0.460031 3.85321 19.041 -0.460031
275 2 5.80265 19.0351 1.13876 5.80265 19.0351 1.13876
276 2 5.69475 19.0221 -2.17418 5.69475 19.0221 -2.17418
277 1 6.65223 17.3427 -0.604883 6.65223 17.3427 -0.604883
278 2 8.51154 17.4043 1.0439 8.51154 17.4043 1.0439
279 2 8.66944 17.2575 -2.24674 8.66944 17.2575 -2.24674
280 1 9.57006 19.0367 -0.653172 9.57006 19.0367 -0.653172
281 2 11.5041 18.9524 0.877096 11.5041 18.9524 0.877096
282 2 11.4322 19.2262 -2.30263 11.4322 19.2262 -2.30263
283 1 12.4483 17.3922 -0.893475 12.4483 17.3922 -0.893475
284 2 14.1223 17.5792 0.929891 14.1223 17.5792 0.929891
285 2 14.5275 17.2148 -2.28906 14.5275 17.2148 -2.28906
286 1 15.3097 19.0889 -0.732367 15.3097 19.0889 -0.732367
287 2 16.8646 18.9757 1.16287 16.8646 18.9757 1.16287
288 2 17.3433 19.0981 -2.12734 17.3433 19.0981 -2.12734
289 1 18.175 17.4234 -0.403514 18.175 17.4234 -0.403514
290 2 20.0074 17.5147 1.2468 20.0074 17.5147 1.2468
291 2 20.265 17.4611 -2.06004 20.265 17.4611 -2.06004
292 1 21.0558 19.1589 -0.366715 21.0558 19.1589 -0.366715
293 2 22.8864 19.0794 1.35259 22.8864 19.0794 1.35259
294 2 23.024 19.2359 -1.83646 23.024 19.2359 -1.83646
295 1 23.8653 17.4643 -0.275351 23.8653 17.4643 -0.275351
296 2 25.664 17.4384 1.46926 25.664 17.4384 1.46926
297 2 25.8857 17.6473 -1.8219 25.8857 17.6473 -1.8219
298 1 26.7054 19.1699 0.0203242 26.7054 19.1699 0.0203242
299 2 28.5559 19.1361 1.73516 28.5559 19.1361 1.73516
300 2 28.6152 19.163 -1.55088 28.6152 19.163 -1.55088
301 1 29.5411 17.457 0.0996345 29.5411 17.457 0.0996345
302 2 31.5829 17.4028 1.61623 31.5829 17.4028 1.61623
303 2 31.2463 17.4215 -1.70574 31.2463 17.4215 -1.70574
304 1 32.2876 19.0442 -0.0477479 32.2876 19.0442 -0.0477479
305 2 34.3074 19.0635 1.58706 34.3074 19.0635 1.58706
306 2 34.3284 19.0571 -1.69511 34.3284 19.0571 -1.69511
307 1 35.2117 17.377 -0.0238267 35.2117 17.377 -0.0238267
308 2 37.2196 17.4367 1.62504 37.2196 17.4367 1.62504
309 2 37.1107 17.3367 -1.68539 37.1107 17.3367 -1.68539
310 1 38.081 19.0764 -0.135743 38.081 19.0764 -0.135743
311 2 39.9314 19.1163 1.55487 39.9314 19.1163 1.55487
312 2 40.0481 18.9559 -1.70606 40.0481 18.9559 -1.70606
313 1 40.9928 17.4248 0.0360354 40.9928 17.4248 0.0360354
314 2 42.9141 17.4976 1.63407 42.9141 17.4976 1.63407
315 2 42.8495 17.4768 -1.68133 42.8495 17.4768 -1.68133
316 1 43.892 19.1652 -0.08654 43.892 19.1652 -0.08654
317 2 45.928 19.3727 1.29401 45.928 19.3727 1.29401
318 2 45.6117 18.9873 -1.92026 45.6117 18.9873 -1.92026
319 1 46.7066 17.5478 -0.169376 46.7066 17.5478 -0.169376
320 2 48.639 17.4824 1.29461 48.639 17.4824 1.29461
321 2 48.5467 17.4179 -1.98366 48.5467 17.4179 -1.98366
322 1 49.507 19.1243 -0.451662 49.507 19.1243 -0.451662
323 2 51.398 19.0217 1.21597 51.398 19.0217 1.21597
324 2 51.4265 19.3507 -2.04779 51.4265 19.3507 -2.04779
325 1 1.00725 20.8395 -0.246813 1.00725 20.8395 -0.246813
326 2 3.08058 20.6462 1.35673 3.08058 20.6462 1.35673
327 2 2.98524 20.9378 -1.94036 2.98524 20.9378 -1.94036
328 1 4.02758 22.4354 -0.238157 4.02758 22.4354 -0.238157
329 2 6.01166 22.3231 1.33513 6.01166 22.3231 1.33513
330 2 5.79495 22.5356 -1.91813 5.79495 22.5356 -1.91813
331 1 6.77882 20.7507 -0.483482 6.77882 20.7507 -0.483482
332 2 8.87349 20.728 0.974884 8.87349 20.728 0.974884
333 2 8.50157 20.679 -2.3439 8.50157 20.679 -2.3439
334 1 9.62638 22.4483 -0.844356 9.62638 22.4483 -0.844356
335 2 11.4878 22.4159 0.855501 11.4878 22.4159 0.855501
336 2 11.7055 22.3583 -2.30449 11.7055 22.3583 -2.30449
337 1 12.4661 20.7138 -0.667035 12.4661 20.7138 -0.667035
338 2 14.3486 20.7398 0.947188 14.3486 20.7398 0.947188
339 2 14.3217 20.6676 -2.36426 14.3217 20.6676 -2.36426
340 1 15.2491 22.4436 -0.664804 15.2491 22.4436 -0.664804
341 2 16.962 22.4808 1.13673 16.962 22.4808 1.13673
342 2 17.2779 22.2831 -2.16506 17.2779 22.2831 -2.16506
343 1 18.0782 20.7203 -0.27628 18.0782 20.7203 -0.27628
344 2 20.066 20.9531 1.21986 20.066 20.9531 1.21986
345 2 20.0773 20.6753 -2.02491 20.0773 20.6753 -2.02491
346 1 20.9467 22.4291 -0.558963 20.9467 22.4291 -0.558963
347 2 22.6755 22.4746 1.28484 22.6755 22.4746 1.28484
348 2 23.089 22.3294 -1.95454 23.089 22.3294 -1.95454
349 1 23.8858 20.8615 -0.138486 23.8858 20.8615 -0.138486
350 2 25.6861 20.7851 1.58698 25.6861 20.7851 1.58698
351 2 25.8522 20.7003 -1.72616 25.8522 20.7003 -1.72616
352 1 26.6411 22.3796 0.0034707 26.6411 22.3796 0.0034707
353 2 28.5765 22.5378 1.6586 28.5765 22.5378 1.6586
354 2 28.5109 22.2868 -1.57298 28.5109 22.2868 -1.57298
355 1 29.5336 20.8138 0.114252 29.5336 20.8138 0.114252
356 2 31.5113 20.7271 1.71155 31.5113 20.7271 1.71155
357 2 31.3429 20.6883 -1.60913 31.3429 20.6883 -1.60913
358 1 32.4846 22.2525 0.0279207 32.4846 22.2525 0.0279207
359 2 34.4517 22.4655 1.53361 34.4517 22.4655 1.53361
360 2 34.2823 22.3083 -1.72861 34.2823 22.3083 -1.72861
361 1 35.2597 20.679 -0.0224901 35.2597 20.679 -0.0224901
362 2 37.1377 20.7414 1.53364 37.1377 20.7414 1.53364
363 2 37.0584 20.7616 -1.71897 37.0584 20.7616 -1.71897
364 1 38.0798 22.4389 -0.181885 38.0798 22.4389 -0.181885
365 2 39.9537 22.3147 1.49193 39.9537 22.3147 1.49193
366 2 39.9465 22.3115 -1.7109 39.9465 22.3115 -1.7109
367 1 40.9867 20.7068 -0.15352 40.9867 20.7068 -0.15352
368 2 42.7154 20.7988 1.48767 42.7154 20.7988 1.48767
369 2 42.9289 20.8034 -1.82897 42.9289 20.8034 -1.82897
370 1 43.8792 22.4848 -0.283208 43.8792 22.4848 -0.283208
371 2 45.8921 22.5338 1.1973 45.8921 22.5338 1.1973
372 2 45.6632 22.4233 -2.06185 45.6632 22.4233 -2.06185
373 1 46.7464 20.8284 -0.568549 46.7464 20.8284 -0.568549
374 2 48.4907 20.6612 1.17882 48.4907 20.6612 1.17882
375 2 48.6266 20.9899 -2.09689 48.6266 20.9899 -2.09689
376 1 49.5016 22.4906 -0.202463 49.5016 22.4906 -0.202463
377 2 51.371 22.4891 1.43654 51.371 22.4891 1.43654
378 2 51.3554 22.5554 -1.8834 51.3554 22.5554 -1.8834
379 1 1.13342 24.0766 -0.18891 1.13342 24.0766 -0.18891
380 2 3.04716 24.0439 1.48643 3.04716 24.0439 1.48643
381 2 2.8666 24.0403 -1.8769 2.8666 24.0403 -1.8769
382 1 3.93416 25.7142 -0.182996 3.93416 25.7142 -0.182996
383 2 5.91974 25.8013 1.46001 5.91974 25.8013 1.46001
384 2 5.70619 25.64 -1.87568 5.70619 25.64 -1.87568
385 1 6.8163 24.0702 -0.184512 6.8163 24.0702 -0.184512
386 2 8.92775 23.9248 0.956275 8.92775 23.9248 0.956275
387 2 8.48581 24.2884 -2.18912 8.48581 24.2884 -2.18912
388 1 9.62857 25.7636 -0.585714 9.62857 25.7636 -0.585714
389 2 11.5441 25.5772 1.05942 11.5441 25.5772 1.05942
390 2 11.5317 25.9804 -2.14186 11.5317 25.9804 -2.14186
391 1 12.5234 24.0569 -0.692785 12.5234 24.0569 -0.692785
392 2 14.3547 24.0015 1.04488 14.3547 24.0015 1.04488
393 2 14.3575 24.0882 -2.22278 14.3575 24.0882 -2.22278
394 1 15.2969 25.7242 -0.537491 15.2969 25.7242 -0.537491
395 2 17.2751 25.7661 0.903408 17.2751 25.7661 0.903408
396 2 17.0426 25.701 -2.27079 17.0426 25.701 -2.27079
397 1 18.1354 24.0692 -0.605748 18.1354 24.0692 -0.605748
398 2 19.9159 24.0018 1.09994 19.9159 24.0018 1.09994
399 2 20.0124 24.0749 -2.17435 20.0124 24.0749 -2.17435
400 1 20.8586 25.6818 -0.561249 20.8586 25.6818 -0.561249
401 2 22.7035 25.7514 1.14468 22.7035 25.7514 1.14468
402 2 22.8363 25.7136 -2.0512 22.8363 25.7136 -2.0512
403 1 23.8163 24.0344 -0.337347 23.8163 24.0344 -0.337347
404 2 25.5555 24.0666 1.43664 25.5555 24.0666 1.43664
405 2 25.8065 23.9854 -1.89213 25.8065 23.9854 -1.89213
406 1 26.6773 25.6472 -0.325506 26.6773 25.6472 -0.325506
407 2 28.7019 25.8837 1.19023 28.7019 25.8837 1.19023
408 2 28.4888 25.3376 -2.02887 28.4888 25.3376 -2.02887
409 1 29.5166 24.0213 -0.152622 29.5166 24.0213 -0.152622
410 2 31.4686 24.0979 1.42587 31.4686 24.0979 1.42587
411 2 31.3701 23.7625 -1.89485 31.3701 23.7625 -1.89485
412 1 32.424 25.5758 -0.435497 32.424 25.5758 -0.435497
413 2 34.3448 25.7091 1.32408 34.3448 25.7091 1.32408
414 2 34.485 25.5192 -1.95828 34.485 25.5192 -1.95828
415 1 35.2648 24.014 -0.192528 35.2648 24.014 -0.192528
416 2 37.2246 24.2617 1.43319 37.2246 24.2617 1.43319
417 2 37.0778 24.0368 -1.91115 37.0778 24.0368 -1.91115
418 1 38.1428 25.7205 -0.37474 38.1428 25.7205 -0.37474
419 2 39.9605 25.7312 1.4023 39.9605 25.7312 1.4023
420 2 40.2165 25.6881 -1.86324 40.2165 25.6881 -1.86324
421 1 40.9638 24.0265 -0.130284 40.9638 24.0265 -0.130284
422 2 42.9223 24.1819 1.39321 42.9223 24.1819 1.39321
423 2 42.7187 23.9819 -1.92068 42.7187 23.9819 -1.92068
424 1 43.7644 25.8283 -0.428958 43.7644 25.8283 -0.428958
425 2 45.5773 25.6636 1.23943 45.5773 25.6636 1.23943
426 2 45.677 26.0646 -1.95934 45.677 26.0646 -1.95934
427 1 46.6562 24.229 -0.538397 46.6562 24.229 -0.538397
428 2 48.4801 24.2178 1.36421 48.4801 24.2178 1.36421
429 2 48.744 24.1498 -1.96626 48.744 24.1498 -1.96626
430 1 49.5557 25.8066 -0.284407 49.5557 25.8066 -0.284407
431 2 51.564 25.8162 1.28887 51.564 25.8162 1.28887
432 2 51.6303 25.7185 -1.87549 51.6303 25.7185 -1.87549
433 1 1.09238 27.471 -0.348032 1.09238 27.471 -0.348032
434 2 2.95757 27.4512 1.38387 2.95757 27.4512 1.38387
435 2 3.06542 27.2792 -1.87252 3.06542 27.2792 -1.87252
436 1 3.88805 29.0704 -0.289232 3.88805 29.0704 -0.289232
437 2 5.95117 29.0407 1.30596 5.95117 29.0407 1.30596
438 2 5.7281 28.9112 -2.01413 5.7281 28.9112 -2.01413
439 1 6.67434 27.3531 -0.365826 6.67434 27.3531 -0.365826
440 2 8.83338 27.3479 1.17211 8.83338 27.3479 1.17211
441 2 8.45546 27.3431 -2.04482 8.45546 27.3431 -2.04482
442 1 9.66114 29.0716 -0.644221 9.66114 29.0716 -0.644221
443 2 11.5333 29.079 1.07027 11.5333 29.079 1.07027
444 2 11.5787 29.1015 -2.18533 11.5787 29.1015 -2.18533
445 1 12.5405 27.3698 -0.446727 12.5405 27.3698 -0.446727
446 2 14.4625 27.4446 1.13048 14.4625 27.4446 1.13048
447 2 14.3401 27.3936 -2.14876 14.3401 27.3936 -2.14876
448 1 15.3132 29.0477 -0.609976 15.3132 29.0477 -0.609976
449 2 17.183 28.931 0.985884 17.183 28.931 0.985884
450 2 17.0318 29.0395 -2.3545 17.0318 29.0395 -2.3545
451 1 18.1014 27.4298 -0.752474 18.1014 27.4298 -0.752474
452 2 19.917 27.3811 1.00796 19.917 27.3811 1.00796
453 2 20.1029 27.3326 -2.324 20.1029 27.3326 -2.324
454 1 20.9341 28.9975 -0.69096 20.9341 28.9975 -0.69096
455 2 22.8056 29.2113 1.0255 22.8056 29.2113 1.0255
456 2 22.9663 28.8666 -2.33504 22.9663 28.8666 -2.33504
457 1 23.8285 27.3373 -0.447033 23.8285 27.3373 -0.447033
458 2 25.6487 27.3327 1.16857 25.6487 27.3327 1.16857
459 2 25.6689 27.1159 -2.0782 25.6689 27.1159 -2.0782
460 1 26.613 28.9946 -0.70175 26.613 28.9946 -0.70175
461 2 28.5132 28.8422 0.939656 28.5132 28.8422 0.939656
462 2 28.5248 28.9719 -2.35848 28.5248 28.9719 -2.35848
463 1 29.5373 27.2507 -0.68317 29.5373 27.2507 -0.68317
464 2 31.5022 27.2492 1.07263 31.5022 27.2492 1.07263
465 2 31.4689 27.1465 -2.21273 31.4689 27.1465 -2.21273
466 1 32.3585 28.9234 -0.659234 32.3585 28.9234 -0.659234
467 2 34.3166 28.9904 1.05341 34.3166 28.9904 1.05341
468 2 34.3616 28.8147 -2.22727 34.3616 28.8147 -2.22727
469 1 35.3029 27.3089 -0.44008 35.3029 27.3089 -0.44008
470 2 37.1888 27.2297 1.28814 37.1888 27.2297 1.28814
471 2 37.3364 27.4756 -1.91499 37.3364 27.4756 -1.91499
472 1 38.1357 29.0055 -0.176648 38.1357 29.0055 -0.176648
473 2 39.9943 29.0741 1.4006 39.9943 29.0741 1.4006
474 2 40.0861 28.968 -1.93538 40.0861 28.968 -1.93538
475 1 40.9122 27.3884 -0.192868 40.9122 27.3884 -0.192868
476 2 42.9 27.1838 1.41397 42.9 27.1838 1.41397
477 2 42.7101 27.6254 -1.84938 42.7101 27.6254 -1.84938
478 1 43.7703 29.076 -0.103124 43.7703 29.076 -0.103124
479 2 45.7701 29.1703 1.52517 45.7701 29.1703 1.52517
480 2 45.6859 29.1317 -1.74141 45.6859 29.1317 -1.74141
481 1 46.6618 27.5057 -0.150848 46.6618 27.5057 -0.150848
482 2 48.569 27.3718 1.42428 48.569 27.3718 1.42428
483 2 48.6276 27.4472 -1.83221 48.6276 27.4472 -1.83221
484 1 49.5693 29.0469 -0.069321 49.5693 29.0469 -0.069321
485 2 51.6438 29.0203 1.41123 51.6438 29.0203 1.41123
486 2 51.3297 29.1632 -1.83269 51.3297 29.1632 -1.83269
487 1 1.09982 30.7653 -0.292899 1.09982 30.7653 -0.292899
488 2 3.10259 30.9535 1.29579 3.10259 30.9535 1.29579
489 2 2.86443 30.6596 -2.06409 2.86443 30.6596 -2.06409
490 1 3.87914 32.3439 -0.54441 3.87914 32.3439 -0.54441
491 2 5.89152 32.1769 1.21822 5.89152 32.1769 1.21822
492 2 5.85294 32.4804 -2.10156 5.85294 32.4804 -2.10156
493 1 6.93466 30.6838 -0.54784 6.93466 30.6838 -0.54784
494 2 8.70084 30.5581 1.1068 8.70084 30.5581 1.1068
495 2 8.84459 30.9385 -2.14709 8.84459 30.9385 -2.14709
496 1 9.73132 32.4091 -0.274775 9.73132 32.4091 -0.274775
497 2 11.7581 32.4016 1.1921 11.7581 32.4016 1.1921
498 2 11.4359 32.3323 -2.10681 11.4359 32.3323 -2.10681
499 1 12.4998 30.786 -0.509439 12.4998 30.786 -0.509439
500 2 14.4917 30.9552 0.932837 14.4917 30.9552 0.932837
501 2 14.1409 30.5421 -2.32533 14.1409 30.5421 -2.32533
502 1 15.3521 32.3537 -1.02044 15.3521 32.3537 -1.02044
503 2 17.16 32.2648 0.787286 17.16 32.2648 0.787286
504 2 17.2684 32.1641 -2.4702 17.2684 32.1641 -2.4702
505 1 18.1006 30.5813 -0.704404 18.1006 30.5813 -0.704404
506 2 20.043 30.7016 0.95809 20.043 30.7016 0.95809
507 2 20.0101 30.6092 -2.3002 20.0101 30.6092 -2.3002
508 1 20.942 32.3356 -0.752403 20.942 32.3356 -0.752403
509 2 22.8531 32.2745 0.981734 22.8531 32.2745 0.981734
510 2 22.8986 32.481 -2.34799 22.8986 32.481 -2.34799
511 1 23.744 30.6581 -0.759329 23.744 30.6581 -0.759329
512 2 25.5321 30.5916 0.914465 25.5321 30.5916 0.914465
513 2 25.6667 30.7057 -2.34561 25.6667 30.7057 -2.34561
514 1 26.6758 32.2439 -0.42789 26.6758 32.2439 -0.42789
515 2 28.6613 32.1689 0.974621 28.6613 32.1689 0.974621
516 2 28.5825 32.2564 -2.28378 28.5825 32.2564 -2.28378
517 1 29.5526 30.551 -0.746489 29.5526 30.551 -0.746489
518 2 31.4197 30.5856 1.01019 31.4197 30.5856 1.01019
519 2 31.5473 30.5217 -2.25965 31.5473 30.5217 -2.25965
520 1 32.4472 32.2364 -0.549873 32.4472 32.2364 -0.549873
521 2 34.3574 32.1966 1.05825 34.3574 32.1966 1.05825
522 2 34.3746 32.5838 -2.11313 34.3746 32.5838 -2.11313
523 1 35.2922 30.5899 -0.631986 35.2922 30.5899 -0.631986
524 2 36.9897 30.8077 1.20851 36.9897 30.8077 1.20851
525 2 37.2575 30.5893 -2.02901 37.2575 30.5893 -2.02901
526 1 38.1738 32.3297 -0.414192 38.1738 32.3297 -0.414192
527 2 39.8893 32.4725 1.33316 39.8893 32.4725 1.33316
528 2 40.1579 32.4216 -1.95301 40.1579 32.4216 -1.95301
529 1 40.9126 30.7673 -0.189643 40.9126 30.7673 -0.189643
530 2 42.6993 30.5521 1.60139 42.6993 30.5521 1.60139
531 2 42.8576 30.8713 -1.69347 42.8576 30.8713 -1.69347
532 1 43.8493 32.3784 0.0853064 43.8493 32.3784 0.0853064
533 2 45.8007 32.2655 1.55693 45.8007 32.2655 1.55693
534 2 45.6431 32.4876 -1.65242 45.6431 32.4876 -1.65242
535 1 46.6421 30.7827 -0.11835 46.6421 30.7827 -0.11835
536 2 48.7286 30.8057 1.47444 48.7286 30.8057 1.47444
537 2 48.4164 30.6928 -1.79713 48.4164 30.6928 -1.79713
538 1 49.5249 32.3918 -0.405651 49.5249 32.3918 -0.405651