ITEM: TIMESTEP
63600
ITEM: NUMBER OF ATOMS
810
ITEM: BOX BOUNDS pp pp pp
7.8401456471459763e-01 5.2233590435285699e+01
7.7346465196600378e-01 5.0242750348033169e+01
-1.0000000000000000e+01 1.0000000000000000e+01
ITEM: ATOMS id type x y z xu yu zu
1 1 0.975376 0.957389 0.0283217 0.975376 0.957389 0.0283217
2 2 3.04061 50.0859 1.51924 3.04061 0.616647 1.51924
3 2 2.74788 1.26095 -1.67583 2.74788 1.26095 -1.67583
4 1 3.83776 2.62399 0.155836 3.83776 2.62399 0.155836
5 2 5.78411 2.39637 1.58207 5.78411 2.39637 1.58207
6 2 5.57919 2.97901 -1.56883 5.57919 2.97901 -1.56883
7 1 6.6788 1.03309 -0.357211 6.6788 1.03309 -0.357211
8 2 8.56451 0.828418 1.33863 8.56451 0.828418 1.33863
9 2 8.75145 1.16728 -1.84283 8.75145 1.16728 -1.84283
10 1 9.5934 2.68209 -0.0699059 9.5934 2.68209 -0.0699059
11 2 11.3821 2.36837 1.65508 11.3821 2.36837 1.65508
12 2 11.6613 2.8342 -1.58839 11.6613 2.8342 -1.58839
13 1 12.4144 0.95947 -0.0609163 12.4144 0.95947 -0.0609163
14 2 14.3629 50.0861 1.50079 14.3629 0.616814 1.50079
15 2 14.35 1.38622 -1.71111 14.35 1.38622 -1.71111
16 1 15.3216 2.64025 0.209331 15.3216 2.64025 0.209331
17 2 17.4379 2.51853 1.69468 17.4379 2.51853 1.69468
18 2 17.1186 2.66013 -1.60391 17.1186 2.66013 -1.60391
19 1 18.1324 0.916063 -0.153135 18.1324 0.916063 -0.153135
20 2 20.102 0.762936 1.37364 20.102 0.762936 1.37364
21 2 19.8625 0.997173 -1.81509 19.8625 0.997173 -1.81509
22 1 20.9606 2.69724 -0.142729 20.9606 2.69724 -0.142729
23 2 22.9049 2.59458 1.45203 22.9049 2.59458 1.45203
24 2 22.7809 2.9252 -1.84262 22.7809 2.9252 -1.84262
25 1 23.8306 1.03819 -0.379448 23.8306 1.03819 -0.379448
26 2 25.7918 0.911207 1.26845 25.7918 0.911207 1.26845
27 2 25.7842 1.13899 -1.87839 25.7842 1.13899 -1.87839
28 1 26.7605 2.71834 -0.179748 26.7605 2.71834 -0.179748
29 2 28.6162 2.4481 1.43085 28.6162 2.4481 1.43085
30 2 28.6857 2.81641 -1.74559 28.6857 2.81641 -1.74559
31 1 29.5759 0.973763 -0.33657 29.5759 0.973763 -0.33657
32 2 31.417 0.878937 1.45284 31.417 0.878937 1.45284
33 2 31.5691 1.13515 -1.84385 31.5691 1.13515 -1.84385
34 1 32.4376 2.68825 -0.0499619 32.4376 2.68825 -0.0499619
35 2 34.1441 2.55869 1.70154 34.1441 2.55869 1.70154
36 2 34.6906 2.78047 -1.37249 34.6906 2.78047 -1.37249
37 1 35.3543 1.01684 0.171938 35.3543 1.01684 0.171938
38 2 37.1377 0.81245 1.88823 37.1377 0.81245 1.88823
39 2 37.3167 1.26165 -1.3598 37.3167 1.26165 -1.3598
40 1 38.1425 2.59545 0.525694 38.1425 2.59545 0.525694
41 2 39.864 2.40518 2.24724 39.864 2.40518 2.24724
42 2 40.2423 2.86889 -0.971626 40.2423 2.86889 -0.971626
43 1 40.9416 1.00215 0.540976 40.9416 1.00215 0.540976
44 2 42.8871 0.723283 2.03212 42.8871 0.723283 2.03212
45 2 42.7944 1.23271 -1.22871 42.7944 1.23271 -1.22871
46 1 43.8041 2.64557 0.611785 43.8041 2.64557 0.611785
47 2 45.7424 2.18109 2.18693 45.7424 2.18109 2.18693
48 2 45.7069 2.86123 -1.01024 45.7069 2.86123 -1.01024
49 1 46.6231 0.912603 0.357382 46.6231 0.912603 0.357382
50 2 48.573 50.2166 2.08384 48.573 0.747327 2.08384
51 2 48.7449 1.01976 -1.20003 48.7449 1.01976 -1.20003
52 1 49.5958 2.50456 0.688569 49.5958 2.50456 0.688569
53 2 51.7764 2.30771 2.01319 51.7764 2.30771 2.01319
54 2 51.2278 2.81335 -1.20924 51.2278 2.81335 -1.20924
55 1 0.91425 4.24311 0.528329 0.91425 4.24311 0.528329
56 2 2.96642 4.24283 2.00916 2.96642 4.24283 2.00916
57 2 2.68044 4.43411 -1.1759 2.68044 4.43411 -1.1759
58 1 3.82391 5.96075 0.33495 3.82391 5.96075 0.33495
59 2 5.73673 5.80483 1.93502 5.73673 5.80483 1.93502
60 2 5.67538 5.99358 -1.36032 5.67538 5.99358 -1.36032
61 1 6.6582 4.34069 0.195059 6.6582 4.34069 0.195059
62 2 8.66661 4.22281 1.75797 8.66661 4.22281 1.75797
63 2 8.48606 4.42516 -1.64014 8.48606 4.42516 -1.64014
64 1 9.49614 5.95092 0.0459054 9.49614 5.95092 0.0459054
65 2 11.3498 5.92522 1.80762 11.3498 5.92522 1.80762
66 2 11.6687 5.99305 -1.42754 11.6687 5.99305 -1.42754
67 1 12.4672 4.28498 0.225031 12.4672 4.28498 0.225031
68 2 14.2433 4.18947 1.90363 14.2433 4.18947 1.90363
69 2 14.3536 4.38097 -1.40791 14.3536 4.38097 -1.40791
70 1 15.3701 5.89143 0.349716 15.3701 5.89143 0.349716
71 2 17.4245 5.98742 1.71059 17.4245 5.98742 1.71059
72 2 17.1301 5.9162 -1.52469 17.1301 5.9162 -1.52469
73 1 18.174 4.29934 -0.00113958 18.174 4.29934 -0.00113958
74 2 20.1359 4.24508 1.59842 20.1359 4.24508 1.59842
75 2 19.9023 4.3651 -1.72824 19.9023 4.3651 -1.72824
76 1 21.0548 5.97605 -0.0946203 21.0548 5.97605 -0.0946203
77 2 22.9756 5.97902 1.63907 22.9756 5.97902 1.63907
78 2 22.9182 5.92707 -1.69632 22.9182 5.92707 -1.69632
79 1 23.9012 4.35444 -0.047205 23.9012 4.35444 -0.047205
80 2 25.8839 4.28381 1.50261 25.8839 4.28381 1.50261
81 2 25.7998 4.39562 -1.65739 25.7998 4.39562 -1.65739
82 1 26.7352 5.98911 -0.0749177 26.7352 5.98911 -0.0749177
83 2 28.4912 5.78832 1.72947 28.4912 5.78832 1.72947
84 2 28.7714 6.07735 -1.54797 28.7714 6.07735 -1.54797
85 1 29.6029 4.31381 0.0234333 29.6029 4.31381 0.0234333
86 2 31.5273 4.21569 1.73166 31.5273 4.21569 1.73166
87 2 31.7056 4.52566 -1.47953 31.7056 4.52566 -1.47953
88 1 32.4737 6.09727 0.30619 32.4737 6.09727 0.30619
89 2 34.337 5.83835 2.06489 34.337 5.83835 2.06489
90 2 34.5045 6.01828 -1.20789 34.5045 6.01828 -1.20789
91 1 35.3211 4.32613 0.445523 35.3211 4.32613 0.445523
92 2 37.0202 4.13764 2.20833 37.0202 4.13764 2.20833
93 2 37.3375 4.40766 -0.98684 37.3375 4.40766 -0.98684
94 1 38.1151 6.01624 0.802969 38.1151 6.01624 0.802969
95 2 39.9453 6.0304 2.47408 39.9453 6.0304 2.47408
96 2 40.0598 5.88278 -0.784342 40.0598 5.88278 -0.784342
97 1 40.8786 4.32051 0.918012 40.8786 4.32051 0.918012
98 2 42.8999 4.26894 2.36887 42.8999 4.26894 2.36887
99 2 42.7443 4.31113 -0.850088 42.7443 4.31113 -0.850088
100 1 43.8006 5.98369 0.776593 43.8006 5.98369 0.776593
101 2 45.7478 5.89443 2.42346 45.7478 5.89443 2.42346
102 2 45.6953 5.84116 -0.832448 45.6953 5.84116 -0.832448
103 1 46.6598 4.23969 0.828192 46.6598 4.23969 0.828192
104 2 48.6796 4.2374 2.32392 48.6796 4.2374 2.32392
105 2 48.5563 4.25211 -0.928951 48.5563 4.25211 -0.928951
106 1 49.5064 5.9209 0.616248 49.5064 5.9209 0.616248
107 2 51.447 5.7672 2.26316 51.447 5.7672 2.26316
108 2 51.5534 6.07881 -0.9274 51.5534 6.07881 -0.9274
109 1 1.05549 7.54008 0.940381 1.05549 7.54008 0.940381
110 2 3.16358 7.24115 2.29012 3.16358 7.24115 2.29012
111 2 2.80523 7.74723 -0.862721 2.80523 7.74723 -0.862721
112 1 3.89947 9.22813 0.792091 3.89947 9.22813 0.792091
113 2 5.90339 9.00038 2.27719 5.90339 9.00038 2.27719
114 2 5.79994 9.38458 -1.02266 5.79994 9.38458 -1.02266
115 1 6.71617 7.53242 0.348763 6.71617 7.53242 0.348763
116 2 8.70838 7.4563 1.97452 8.70838 7.4563 1.97452
117 2 8.66102 7.8037 -1.21504 8.66102 7.8037 -1.21504
118 1 9.6976 9.23239 0.570645 9.6976 9.23239 0.570645
119 2 11.7652 9.17909 2.00471 11.7652 9.17909 2.00471
120 2 11.3397 9.2844 -1.24456 11.3397 9.2844 -1.24456
121 1 12.5231 7.59677 0.265396 12.5231 7.59677 0.265396
122 2 14.3241 7.54282 1.96136 14.3241 7.54282 1.96136
123 2 14.4923 7.50219 -1.33629 14.4923 7.50219 -1.33629
124 1 15.2749 9.24992 0.343741 15.2749 9.24992 0.343741
125 2 17.3046 9.21597 1.72843 17.3046 9.21597 1.72843
126 2 16.93 9.23443 -1.51983 16.93 9.23443 -1.51983
127 1 18.1321 7.61387 0.0243063 18.1321 7.61387 0.0243063
128 2 20.0541 7.63289 1.55214 20.0541 7.63289 1.55214
129 2 20.0748 7.61824 -1.70815 20.0748 7.61824 -1.70815
130 1 21.0331 9.24987 -0.0824701 21.0331 9.24987 -0.0824701
131 2 23.0576 9.30977 1.5944 23.0576 9.30977 1.5944
132 2 22.8665 9.23409 -1.71943 22.8665 9.23409 -1.71943
133 1 23.9147 7.61991 -0.00958979 23.9147 7.61991 -0.00958979
134 2 25.81 7.63566 1.66571 25.81 7.63566 1.66571
135 2 25.7945 7.76716 -1.67319 25.7945 7.76716 -1.67319
136 1 26.7827 9.2449 0.0047005 26.7827 9.2449 0.0047005
137 2 28.4823 9.43222 1.71188 28.4823 9.43222 1.71188
138 2 28.6531 9.13509 -1.53251 28.6531 9.13509 -1.53251
139 1 29.4965 7.56051 0.313352 29.4965 7.56051 0.313352
140 2 31.3506 7.69602 1.86922 31.3506 7.69602 1.86922
141 2 31.4688 7.71805 -1.31378 31.4688 7.71805 -1.31378
142 1 32.4586 9.3572 0.317957 32.4586 9.3572 0.317957
143 2 34.1475 9.21629 2.08418 34.1475 9.21629 2.08418
144 2 34.4573 9.27781 -1.13718 34.4573 9.27781 -1.13718
145 1 35.2186 7.62127 0.493439 35.2186 7.62127 0.493439
146 2 37.0449 7.63233 2.30641 37.0449 7.63233 2.30641
147 2 37.3011 7.75922 -0.942893 37.3011 7.75922 -0.942893
148 1 38.1445 9.36025 0.761251 38.1445 9.36025 0.761251
149 2 39.979 9.22369 2.39532 39.979 9.22369 2.39532
150 2 40.0389 9.23849 -0.873997 40.0389 9.23849 -0.873997
151 1 40.9614 7.62559 0.817323 40.9614 7.62559 0.817323
152 2 42.8599 7.74522 2.51615 42.8599 7.74522 2.51615
153 2 42.8515 7.57699 -0.891134 42.8515 7.57699 -0.891134
154 1 43.8361 9.27755 0.851942 43.8361 9.27755 0.851942
155 2 45.6964 9.16109 2.45524 45.6964 9.16109 2.45524
156 2 45.7018 9.41748 -0.812858 45.7018 9.41748 -0.812858
157 1 46.6487 7.53576 0.764192 46.6487 7.53576 0.764192
158 2 48.4645 7.47602 2.44933 48.4645 7.47602 2.44933
159 2 48.5333 7.63646 -0.837797 48.5333 7.63646 -0.837797
160 1 49.4921 9.1836 0.886932 49.4921 9.1836 0.886932
161 2 51.4551 9.20795 2.56622 51.4551 9.20795 2.56622
162 2 51.5836 9.18835 -0.698504 51.5836 9.18835 -0.698504
163 1 1.05747 10.8221 0.978893 1.05747 10.8221 0.978893
164 2 3.0732 10.795 2.52675 3.0732 10.795 2.52675
165 2 2.90809 10.9206 -0.844103 2.90809 10.9206 -0.844103
166 1 3.90788 12.5308 0.832503 3.90788 12.5308 0.832503
167 2 5.78355 12.5793 2.44078 5.78355 12.5793 2.44078
168 2 5.8763 12.4524 -0.868636 5.8763 12.4524 -0.868636
169 1 6.76608 10.824 0.803546 6.76608 10.824 0.803546
170 2 8.76385 10.9914 2.27296 8.76385 10.9914 2.27296
171 2 8.52119 10.8031 -0.940885 8.52119 10.8031 -0.940885
172 1 9.57717 12.5294 0.456565 9.57717 12.5294 0.456565
173 2 11.5449 12.524 1.94333 11.5449 12.524 1.94333
174 2 11.3115 12.4841 -1.33564 11.3115 12.4841 -1.33564
175 1 12.4015 10.9447 0.315829 12.4015 10.9447 0.315829
176 2 14.4664 11.0661 1.91062 14.4664 11.0661 1.91062
177 2 14.2639 10.6189 -1.4332 14.2639 10.6189 -1.4332
178 1 15.3504 12.5951 0.0220871 15.3504 12.5951 0.0220871
179 2 17.2821 12.6628 1.56897 17.2821 12.6628 1.56897
180 2 17.1671 12.4255 -1.69004 17.1671 12.4255 -1.69004
181 1 18.1501 10.8905 -0.00788951 18.1501 10.8905 -0.00788951
182 2 20.1189 11.0543 1.42307 20.1189 11.0543 1.42307
183 2 19.9852 10.7796 -1.73618 19.9852 10.7796 -1.73618
184 1 21.0157 12.5558 -0.457605 21.0157 12.5558 -0.457605
185 2 22.8123 12.8821 1.25579 22.8123 12.8821 1.25579
186 2 22.9358 12.4591 -2.07623 22.9358 12.4591 -2.07623
187 1 23.7773 11.0272 -0.161709 23.7773 11.0272 -0.161709
188 2 25.7767 11.1376 1.40652 25.7767 11.1376 1.40652
189 2 25.7293 10.6726 -1.808 25.7293 10.6726 -1.808
190 1 26.6957 12.5935 -0.443707 26.6957 12.5935 -0.443707
191 2 28.4132 12.6422 1.32834 28.4132 12.6422 1.32834
192 2 28.8012 12.3159 -1.83588 28.8012 12.3159 -1.83588
193 1 29.5901 10.9001 -0.0305779 29.5901 10.9001 -0.0305779
194 2 31.4818 11.0487 1.66426 31.4818 11.0487 1.66426
195 2 31.5959 11.0121 -1.54504 31.5959 11.0121 -1.54504
196 1 32.537 12.5946 0.00573693 32.537 12.5946 0.00573693
197 2 34.186 12.655 1.91367 34.186 12.655 1.91367
198 2 34.6764 12.3653 -1.34433 34.6764 12.3653 -1.34433
199 1 35.309 10.9053 0.563792 35.309 10.9053 0.563792
200 2 37.0149 11.0816 2.36692 37.0149 11.0816 2.36692
201 2 37.3794 10.8135 -0.904234 37.3794 10.8135 -0.904234
202 1 38.136 12.6346 0.679001 38.136 12.6346 0.679001
203 2 40.0089 12.4572 2.35352 40.0089 12.4572 2.35352
204 2 40.0969 12.5732 -0.924985 40.0969 12.5732 -0.924985
205 1 40.994 10.9151 0.757573 40.994 10.9151 0.757573
206 2 42.8197 10.911 2.49342 42.8197 10.911 2.49342
207 2 42.8179 10.9181 -0.867681 42.8179 10.9181 -0.867681
208 1 43.8482 12.5692 0.793271 43.8482 12.5692 0.793271
209 2 45.8415 12.698 2.40275 45.8415 12.698 2.40275
210 2 45.725 12.4292 -0.780487 45.725 12.4292 -0.780487
211 1 46.7282 10.9266 0.868852 46.7282 10.9266 0.868852
212 2 48.6253 10.9176 2.49501 48.6253 10.9176 2.49501
213 2 48.5128 10.7154 -0.757686 48.5128 10.7154 -0.757686
214 1 49.6183 12.4394 0.773958 49.6183 12.4394 0.773958
215 2 51.4322 12.5511 2.47188 51.4322 12.5511 2.47188
216 2 51.462 12.3448 -0.889454 51.462 12.3448 -0.889454
217 1 1.0217 14.1057 0.661674 1.0217 14.1057 0.661674
218 2 2.90538 14.3511 2.3859 2.90538 14.3511 2.3859
219 2 2.9363 14.1552 -0.893257 2.9363 14.1552 -0.893257
220 1 3.82895 15.9155 0.725688 3.82895 15.9155 0.725688
221 2 5.71628 15.9805 2.33772 5.71628 15.9805 2.33772
222 2 5.72896 15.8584 -0.902344 5.72896 15.8584 -0.902344
223 1 6.72081 14.2767 0.736746 6.72081 14.2767 0.736746
224 2 8.88249 14.2339 2.1274 8.88249 14.2339 2.1274
225 2 8.47608 14.2063 -1.11694 8.47608 14.2063 -1.11694
226 1 9.62676 15.7764 0.339552 9.62676 15.7764 0.339552
227 2 11.6339 16.0565 1.80822 11.6339 16.0565 1.80822
228 2 11.3623 15.6403 -1.41395 11.3623 15.6403 -1.41395
229 1 12.43 14.1984 0.214214 12.43 14.1984 0.214214
230 2 14.4206 14.3265 1.62272 14.4206 14.3265 1.62272
231 2 14.2063 14.0957 -1.62115 14.2063 14.0957 -1.62115
232 1 15.2823 15.882 -0.26671 15.2823 15.882 -0.26671
233 2 17.1344 16.0306 1.39138 17.1344 16.0306 1.39138
234 2 17.1314 15.7182 -1.89788 17.1314 15.7182 -1.89788
235 1 18.1125 14.2158 -0.174207 18.1125 14.2158 -0.174207
236 2 20.3094 14.3678 1.21785 20.3094 14.3678 1.21785
237 2 19.7785 14.1358 -2.02597 19.7785 14.1358 -2.02597
238 1 20.9176 15.8966 -0.545969 20.9176 15.8966 -0.545969
239 2 22.8876 15.9219 1.01986 22.8876 15.9219 1.01986
240 2 22.8033 15.9158 -2.12707 22.8033 15.9158 -2.12707
241 1 23.7991 14.2269 -0.575055 23.7991 14.2269 -0.575055
242 2 25.7804 14.3742 1.07638 25.7804 14.3742 1.07638
243 2 25.8767 14.2696 -2.20798 25.8767 14.2696 -2.20798
244 1 26.7777 15.9226 -0.646073 26.7777 15.9226 -0.646073
245 2 28.6149 15.8829 1.16086 28.6149 15.8829 1.16086
246 2 28.8163 15.7659 -2.05059 28.8163 15.7659 -2.05059
247 1 29.6517 14.09 -0.352086 29.6517 14.09 -0.352086
248 2 31.4113 14.4093 1.36046 31.4113 14.4093 1.36046
249 2 31.672 14.1048 -1.81551 31.672 14.1048 -1.81551
250 1 32.5443 15.8773 -0.231624 32.5443 15.8773 -0.231624
251 2 34.1672 16.0756 1.64575 34.1672 16.0756 1.64575
252 2 34.6176 15.5723 -1.59286 34.6176 15.5723 -1.59286
253 1 35.3227 14.1926 0.326042 35.3227 14.1926 0.326042
254 2 37.1543 14.5075 2.07183 37.1543 14.5075 2.07183
255 2 37.1823 13.9921 -1.29666 37.1823 13.9921 -1.29666
256 1 38.1075 15.7958 0.13077 38.1075 15.7958 0.13077
257 2 39.7716 16.002 1.97076 39.7716 16.002 1.97076
258 2 40.3791 15.6169 -1.22497 40.3791 15.6169 -1.22497
259 1 40.9805 14.1086 0.747342 40.9805 14.1086 0.747342
260 2 42.9059 14.2029 2.44608 42.9059 14.2029 2.44608
261 2 42.9724 14.245 -0.822885 42.9724 14.245 -0.822885
262 1 43.7923 15.8557 0.833045 43.7923 15.8557 0.833045
263 2 45.7127 15.8276 2.31115 45.7127 15.8276 2.31115
264 2 45.7462 15.8074 -0.83048 45.7462 15.8074 -0.83048
265 1 46.7945 14.1711 0.684471 46.7945 14.1711 0.684471
266 2 48.56 14.1261 2.41109 48.56 14.1261 2.41109
267 2 48.6651 14.1235 -0.926815 48.6651 14.1235 -0.926815
268 1 49.6113 15.7924 0.78455 49.6113 15.7924 0.78455
269 2 51.5463 15.8374 2.31837 51.5463 15.8374 2.31837
270 2 51.4766 15.7691 -0.928378 51.4766 15.7691 -0.928378
271 1 0.959509 17.4447 0.644806 0.959509 17.4447 0.644806
272 2 2.77473 17.4267 2.40217 2.77473 17.4267 2.40217
273 2 2.92236 17.5966 -0.818558 2.92236 17.5966 -0.818558
274 1 3.96802 19.1659 0.95668 3.96802 19.1659 0.95668
275 2 5.94127 19.1692 2.41793 5.94127 19.1692 2.41793
276 2 5.70049 19.214 -0.858256 5.70049 19.214 -0.858256
277 1 6.76384 17.4976 0.671077 6.76384 17.4976 0.671077
278 2 8.79206 17.4891 2.05443 8.79206 17.4891 2.05443
279 2 8.4538 17.4754 -1.15496 8.4538 17.4754 -1.15496
280 1 9.59827 19.1005 0.322619 9.59827 19.1005 0.322619
281 2 11.7099 19.0388 1.80521 11.7099 19.0388 1.80521
282 2 11.3269 19.1337 -1.5307 11.3269 19.1337 -1.5307
283 1 12.401 17.4922 -0.0920275 12.401 17.4922 -0.0920275
284 2 14.4056 17.6 1.42794 14.4056 17.6 1.42794
285 2 14.3751 17.5114 -1.83182 14.3751 17.5114 -1.83182
286 1 15.3354 19.2262 -0.254679 15.3354 19.2262 -0.254679
287 2 17.3636 19.2402 1.19661 17.3636 19.2402 1.19661
288 2 17.0182 19.2381 -2.05484 17.0182 19.2381 -2.05484
289 1 18.1642 17.5663 -0.460561 18.1642 17.5663 -0.460561
290 2 20.142 17.7163 1.09399 20.142 17.7163 1.09399
291 2 19.9969 17.5928 -2.20868 19.9969 17.5928 -2.20868
292 1 21.0157 19.207 -0.664135 21.0157 19.207 -0.664135
293 2 22.9175 19.2747 0.866199 22.9175 19.2747 0.866199
294 2 22.9207 19.1324 -2.37651 22.9207 19.1324 -2.37651
295 1 23.8465 17.5638 -0.608693 23.8465 17.5638 -0.608693
296 2 25.8739 17.6218 1.01306 25.8739 17.6218 1.01306
297 2 25.8003 17.549 -2.30131 25.8003 17.549 -2.30131
298 1 26.7341 19.1087 -0.71304 26.7341 19.1087 -0.71304
299 2 28.6085 19.0422 1.10558 28.6085 19.0422 1.10558
300 2 28.7383 19.0397 -2.22826 28.7383 19.0397 -2.22826
301 1 29.6702 17.481 -0.531216 29.6702 17.481 -0.531216
302 2 31.4286 17.5889 1.22641 31.4286 17.5889 1.22641
303 2 31.5894 17.2385 -2.09164 31.5894 17.2385 -2.09164
304 1 32.3766 19.1148 -0.585908 32.3766 19.1148 -0.585908
305 2 34.138 19.245 1.20858 34.138 19.245 1.20858
306 2 34.4441 18.9392 -1.99828 34.4441 18.9392 -1.99828
307 1 35.3495 17.4633 -0.152125 35.3495 17.4633 -0.152125
308 2 37.191 17.549 1.54956 37.191 17.549 1.54956
309 2 37.3055 17.2473 -1.68587 37.3055 17.2473 -1.68587
310 1 38.0822 19.1301 -0.222088 38.0822 19.1301 -0.222088
311 2 39.9929 19.4809 1.48619 39.9929 19.4809 1.48619
312 2 40.0283 18.7034 -1.78546 40.0283 18.7034 -1.78546
313 1 41.031 17.4273 0.228909 41.031 17.4273 0.228909
314 2 42.5921 17.7429 2.06896 42.5921 17.7429 2.06896
315 2 43.1938 17.3226 -1.07688 43.1938 17.3226 -1.07688
316 1 43.8555 19.1869 0.440702 43.8555 19.1869 0.440702
317 2 45.6054 19.3577 2.16363 45.6054 19.3577 2.16363
318 2 45.9748 19.0459 -1.04949 45.9748 19.0459 -1.04949
319 1 46.6772 17.5031 0.753964 46.6772 17.5031 0.753964
320 2 48.5641 17.3625 2.45707 48.5641 17.3625 2.45707
321 2 48.5785 17.5025 -0.800162 48.5785 17.5025 -0.800162
322 1 49.5384 19.1219 0.930296 49.5384 19.1219 0.930296
323 2 51.4823 18.8861 2.49639 51.4823 18.8861 2.49639
324 2 51.4263 19.2927 -0.680388 51.4263 19.2927 -0.680388
325 1 0.980453 20.7828 1.09314 0.980453 20.7828 1.09314
326 2 3.14479 21.0899 2.56356 3.14479 21.0899 2.56356
327 2 2.73794 20.5341 -0.765709 2.73794 20.5341 -0.765709
328 1 3.9221 22.4169 0.427546 3.9221 22.4169 0.427546
329 2 5.83134 22.589 2.14157 5.83134 22.589 2.14157
330 2 5.83258 22.2069 -1.04791 5.83258 22.2069 -1.04791
331 1 6.81718 20.8358 0.741998 6.81718 20.8358 0.741998
332 2 8.90975 20.7567 2.11047 8.90975 20.7567 2.11047
333 2 8.54742 20.7259 -1.13748 8.54742 20.7259 -1.13748
334 1 9.64364 22.4455 0.342649 9.64364 22.4455 0.342649
335 2 11.8395 22.5791 1.65645 11.8395 22.5791 1.65645
336 2 11.2407 22.2333 -1.54825 11.2407 22.2333 -1.54825
337 1 12.4137 20.7531 0.0767256 12.4137 20.7531 0.0767256
338 2 14.5835 20.8802 1.50921 14.5835 20.8802 1.50921
339 2 14.1248 20.7138 -1.75698 14.1248 20.7138 -1.75698
340 1 15.2766 22.4409 -0.303259 15.2766 22.4409 -0.303259
341 2 17.3062 22.5294 1.14151 17.3062 22.5294 1.14151
342 2 17.0227 22.426 -2.10959 17.0227 22.426 -2.10959
343 1 18.141 20.8736 -0.488659 18.141 20.8736 -0.488659
344 2 20.305 21.1108 0.796132 20.305 21.1108 0.796132
345 2 19.8056 20.6578 -2.35809 19.8056 20.6578 -2.35809
346 1 20.9623 22.5029 -1.14598 20.9623 22.5029 -1.14598
347 2 22.9159 22.5837 0.586653 22.9159 22.5837 0.586653
348 2 22.9222 22.3029 -2.71737 22.9222 22.3029 -2.71737
349 1 23.8353 20.8186 -0.90577 23.8353 20.8186 -0.90577
350 2 25.7015 20.8476 0.796871 25.7015 20.8476 0.796871
351 2 25.8983 20.7968 -2.40657 25.8983 20.7968 -2.40657
352 1 26.67 22.5701 -0.795734 26.67 22.5701 -0.795734
353 2 28.4918 22.5966 0.927266 28.4918 22.5966 0.927266
354 2 28.5905 22.2772 -2.3003 28.5905 22.2772 -2.3003
355 1 29.5559 20.8085 -0.475103 29.5559 20.8085 -0.475103
356 2 31.4894 20.7885 0.956428 31.4894 20.7885 0.956428
357 2 31.243 20.7735 -2.26269 31.243 20.7735 -2.26269
358 1 32.3648 22.4519 -0.743025 32.3648 22.4519 -0.743025
359 2 34.2454 22.6882 0.93368 34.2454 22.6882 0.93368
360 2 34.3652 22.1909 -2.33446 34.3652 22.1909 -2.33446
361 1 35.2297 20.7963 -0.383336 35.2297 20.7963 -0.383336
362 2 37.2074 20.9401 1.17386 37.2074 20.9401 1.17386
363 2 37.1879 20.593 -2.04959 37.1879 20.593 -2.04959
364 1 38.055 22.415 -0.784057 38.055 22.415 -0.784057
365 2 39.8053 22.3294 1.00082 39.8053 22.3294 1.00082
366 2 40.0977 22.3395 -2.21912 40.0977 22.3395 -2.21912
367 1 40.9971 20.7192 -0.496789 40.9971 20.7192 -0.496789
368 2 42.5916 21.1873 1.49995 42.5916 21.1873 1.49995
369 2 43.1782 20.4435 -1.62868 43.1782 20.4435 -1.62868
370 1 43.9106 22.46 -0.232022 43.9106 22.46 -0.232022
371 2 45.6119 22.7469 1.57974 45.6119 22.7469 1.57974
372 2 46.0047 22.06 -1.56453 46.0047 22.06 -1.56453
373 1 46.6921 20.8086 0.447469 46.6921 20.8086 0.447469
374 2 48.3737 20.9865 2.2128 48.3737 20.9865 2.2128
375 2 48.7333 20.6758 -1.03796 48.7333 20.6758 -1.03796
376 1 49.6382 22.3622 0.511976 49.6382 22.3622 0.511976
377 2 51.372 22.7281 2.29117 51.372 22.7281 2.29117
378 2 51.6842 22.1439 -0.92409 51.6842 22.1439 -0.92409
379 1 1.11408 24.0244 0.454684 1.11408 24.0244 0.454684
380 2 3.16838 24.2436 1.97962 3.16838 24.2436 1.97962
381 2 2.87624 23.8679 -1.28098 2.87624 23.8679 -1.28098
382 1 3.91025 25.6823 0.0836908 3.91025 25.6823 0.0836908
383 2 5.83155 25.8667 1.71306 5.83155 25.8667 1.71306
384 2 5.79766 25.566 -1.49145 5.79766 25.566 -1.49145
385 1 6.75907 24.0853 0.265666 6.75907 24.0853 0.265666
386 2 8.78801 24.4114 1.68412 8.78801 24.4114 1.68412
387 2 8.47837 23.7433 -1.59663 8.47837 23.7433 -1.59663
388 1 9.5413 25.6536 -0.3033 9.5413 25.6536 -0.3033
389 2 11.5943 25.8585 1.29616 11.5943 25.8585 1.29616
390 2 11.3823 25.622 -1.98965 11.3823 25.622 -1.98965
391 1 12.4001 24.1355 -0.343673 12.4001 24.1355 -0.343673
392 2 14.3618 24.1186 1.18309 14.3618 24.1186 1.18309
393 2 14.2513 23.975 -1.97381 14.2513 23.975 -1.97381
394 1 15.2614 25.7136 -0.447196 15.2614 25.7136 -0.447196
395 2 17.3501 25.6397 1.13119 17.3501 25.6397 1.13119
396 2 17.1216 25.7807 -2.1706 17.1216 25.7807 -2.1706
397 1 18.1094 24.0721 -0.62375 18.1094 24.0721 -0.62375
398 2 20.1708 24.0672 0.769901 20.1708 24.0672 0.769901
399 2 19.7659 24.1986 -2.59094 19.7659 24.1986 -2.59094
400 1 20.9292 25.8092 -0.938217 20.9292 25.8092 -0.938217
401 2 22.8479 25.6897 0.702548 22.8479 25.6897 0.702548
402 2 22.8155 25.7548 -2.62673 22.8155 25.7548 -2.62673
403 1 23.7667 24.1488 -1.1295 23.7667 24.1488 -1.1295
404 2 25.5694 24.1969 0.725164 25.5694 24.1969 0.725164
405 2 25.8211 24.0491 -2.62867 25.8211 24.0491 -2.62867
406 1 26.6403 25.6963 -1.04107 26.6403 25.6963 -1.04107
407 2 28.5375 25.8861 0.56029 28.5375 25.8861 0.56029
408 2 28.6243 25.43 -2.5979 28.6243 25.43 -2.5979
409 1 29.5523 24.1068 -0.810616 29.5523 24.1068 -0.810616
410 2 31.4297 24.318 0.776967 31.4297 24.318 0.776967
411 2 31.5238 23.9496 -2.54636 31.5238 23.9496 -2.54636
412 1 32.4115 25.7359 -0.924904 32.4115 25.7359 -0.924904
413 2 34.3765 25.7722 0.684524 34.3765 25.7722 0.684524
414 2 34.2251 25.6838 -2.62081 34.2251 25.6838 -2.62081
415 1 35.2565 23.9715 -0.921561 35.2565 23.9715 -0.921561
416 2 36.9958 23.9465 0.818981 36.9958 23.9465 0.818981
417 2 37.3242 23.9623 -2.48322 37.3242 23.9623 -2.48322
418 1 38.0725 25.6344 -0.744346 38.0725 25.6344 -0.744346
419 2 39.8243 25.6352 1.01726 39.8243 25.6352 1.01726
420 2 40.1208 25.6892 -2.25325 40.1208 25.6892 -2.25325
421 1 40.929 24.0686 -0.536045 40.929 24.0686 -0.536045
422 2 42.815 24.0459 1.40008 42.815 24.0459 1.40008
423 2 43.0016 24.0406 -1.94038 43.0016 24.0406 -1.94038
424 1 43.905 25.6209 -0.251038 43.905 25.6209 -0.251038
425 2 45.7619 25.7012 1.4637 45.7619 25.7012 1.4637
426 2 45.8863 25.5986 -1.83964 45.8863 25.5986 -1.83964
427 1 46.7727 23.9514 -0.147105 46.7727 23.9514 -0.147105
428 2 48.4076 24.2652 1.74282 48.4076 24.2652 1.74282
429 2 48.9239 23.7394 -1.46963 48.9239 23.7394 -1.46963
430 1 49.6482 25.6742 0.0330766 49.6482 25.6742 0.0330766
431 2 51.4954 25.9861 1.7353 51.4954 25.9861 1.7353
432 2 51.4845 25.3093 -1.50035 51.4845 25.3093 -1.50035
433 1 1.0861 27.2794 -0.135288 1.0861 27.2794 -0.135288
434 2 2.95811 27.3811 1.60396 2.95811 27.3811 1.60396
435 2 2.99493 27.4019 -1.73204 2.99493 27.4019 -1.73204
436 1 3.87277 28.9169 -0.115689 3.87277 28.9169 -0.115689
437 2 5.78953 29.204 1.38846 5.78953 29.204 1.38846
438 2 5.71307 28.8137 -1.84911 5.71307 28.8137 -1.84911
439 1 6.75183 27.4153 -0.121882 6.75183 27.4153 -0.121882
440 2 8.81862 27.3466 1.34952 8.81862 27.3466 1.34952
441 2 8.44685 27.4312 -1.83193 8.44685 27.4312 -1.83193
442 1 9.6149 29.0878 -0.319792 9.6149 29.0878 -0.319792
443 2 11.5308 29.0607 1.23858 11.5308 29.0607 1.23858
444 2 11.4111 29.1643 -2.10014 11.4111 29.1643 -2.10014
445 1 12.4436 27.3381 -0.488313 12.4436 27.3381 -0.488313
446 2 14.3315 27.4132 1.10324 14.3315 27.4132 1.10324
447 2 14.2649 27.2883 -2.17232 14.2649 27.2883 -2.17232
448 1 15.2687 29.0194 -0.619717 15.2687 29.0194 -0.619717
449 2 17.1451 29.0933 1.00172 17.1451 29.0933 1.00172
450 2 17.2052 28.9945 -2.19014 17.2052 28.9945 -2.19014
451 1 18.1725 27.3989 -0.539759 18.1725 27.3989 -0.539759
452 2 20.1283 27.2806 0.961373 20.1283 27.2806 0.961373
453 2 19.9827 27.676 -2.36066 19.9827 27.676 -2.36066
454 1 20.983 29.0262 -0.634794 20.983 29.0262 -0.634794
455 2 22.9526 28.9448 0.814919 22.9526 28.9448 0.814919
456 2 22.8029 29.1558 -2.3809 22.8029 29.1558 -2.3809
457 1 23.8087 27.3312 -0.884378 23.8087 27.3312 -0.884378
458 2 25.7273 27.2334 0.728061 25.7273 27.2334 0.728061
459 2 25.6952 27.3588 -2.56292 25.6952 27.3588 -2.56292
460 1 26.6884 28.9999 -0.90949 26.6884 28.9999 -0.90949
461 2 28.67 28.8729 0.509787 28.67 28.8729 0.509787
462 2 28.4903 28.8226 -2.69917 28.4903 28.8226 -2.69917
463 1 29.529 27.336 -1.15179 29.529 27.336 -1.15179
464 2 31.2917 27.3315 0.581344 31.2917 27.3315 0.581344
465 2 31.5081 27.3063 -2.61948 31.5081 27.3063 -2.61948
466 1 32.3632 29.0068 -0.992956 32.3632 29.0068 -0.992956
467 2 34.3065 29.0126 0.677222 34.3065 29.0126 0.677222
468 2 34.2538 28.9534 -2.60946 34.2538 28.9534 -2.60946
469 1 35.2271 27.3642 -0.972895 35.2271 27.3642 -0.972895
470 2 37.1242 27.2472 0.80499 37.1242 27.2472 0.80499
471 2 37.3359 27.2625 -2.42685 37.3359 27.2625 -2.42685
472 1 38.1192 28.9377 -0.694536 38.1192 28.9377 -0.694536
473 2 39.9658 28.973 0.953342 39.9658 28.973 0.953342
474 2 40.0674 28.8289 -2.37274 40.0674 28.8289 -2.37274
475 1 40.9642 27.2693 -0.600623 40.9642 27.2693 -0.600623
476 2 42.8607 27.3976 1.27533 42.8607 27.3976 1.27533
477 2 43.0333 27.2172 -1.96533 43.0333 27.2172 -1.96533
478 1 43.878 28.9708 -0.419297 43.878 28.9708 -0.419297
479 2 45.5919 28.9167 1.40631 45.5919 28.9167 1.40631
480 2 45.8809 29.0683 -1.82316 45.8809 29.0683 -1.82316
481 1 46.8492 27.3388 -0.253557 46.8492 27.3388 -0.253557
482 2 48.5044 27.5257 1.45834 48.5044 27.5257 1.45834
483 2 48.753 27.1495 -1.87856 48.753 27.1495 -1.87856
484 1 49.6915 29.0324 -0.323551 49.6915 29.0324 -0.323551
485 2 51.4437 29.0422 1.4281 51.4437 29.0422 1.4281
486 2 51.7586 29.0012 -1.80089 51.7586 29.0012 -1.80089
487 1 0.936414 30.6187 -0.155945 0.936414 30.6187 -0.155945
488 2 2.92927 30.6734 1.48248 2.92927 30.6734 1.48248
489 2 2.80986 30.5532 -1.81945 2.80986 30.5532 -1.81945
490 1 3.8444 32.2903 -0.297463 3.8444 32.2903 -0.297463
491 2 5.8307 32.5405 1.18935 5.8307 32.5405 1.18935
492 2 5.51764 32.1307 -2.05604 5.51764 32.1307 -2.05604
493 1 6.65917 30.7013 -0.461148 6.65917 30.7013 -0.461148
494 2 8.47962 30.8242 1.18264 8.47962 30.8242 1.18264
495 2 8.80516 30.7025 -2.13114 8.80516 30.7025 -2.13114
496 1 9.58938 32.4202 -0.543642 9.58938 32.4202 -0.543642
497 2 11.4278 32.3506 1.05199 11.4278 32.3506 1.05199
498 2 11.5196 32.3734 -2.10434 11.5196 32.3734 -2.10434
499 1 12.4934 30.6674 -0.517306 12.4934 30.6674 -0.517306
500 2 14.3737 30.7655 1.13746 14.3737 30.7655 1.13746
501 2 14.2318 30.6158 -2.14962 14.2318 30.6158 -2.14962
502 1 15.2695 32.2282 -0.598546 15.2695 32.2282 -0.598546
503 2 17.1998 32.4142 1.01615 17.1998 32.4142 1.01615
504 2 17.1263 32.1764 -2.25945 17.1263 32.1764 -2.25945
505 1 18.1091 30.6873 -0.553995 18.1091 30.6873 -0.553995
506 2 19.9978 30.6121 1.02717 19.9978 30.6121 1.02717
507 2 20.1034 30.7503 -2.18329 20.1034 30.7503 -2.18329
508 1 21.0196 32.3718 -0.564734 21.0196 32.3718 -0.564734
509 2 23.0037 32.4348 0.939195 23.0037 32.4348 0.939195
510 2 22.8816 32.2905 -2.30917 22.8816 32.2905 -2.30917
511 1 23.889 30.7002 -0.733319 23.889 30.7002 -0.733319
512 2 25.9598 30.7814 0.68744 25.9598 30.7814 0.68744
513 2 25.5705 30.6562 -2.58739 25.5705 30.6562 -2.58739
514 1 26.7019 32.2527 -1.10994 26.7019 32.2527 -1.10994
515 2 28.6042 32.1161 0.585796 28.6042 32.1161 0.585796
516 2 28.7103 32.3388 -2.6947 28.7103 32.3388 -2.6947
517 1 29.4893 30.5567 -1.17231 29.4893 30.5567 -1.17231
518 2 31.2397 30.4722 0.643468 31.2397 30.4722 0.643468
519 2 31.4838 30.5871 -2.61273 31.4838 30.5871 -2.61273
520 1 32.383 32.1586 -0.760588 32.383 32.1586 -0.760588
521 2 34.3574 32.1466 0.793096 34.3574 32.1466 0.793096
522 2 34.2593 32.3407 -2.40066 34.2593 32.3407 -2.40066
523 1 35.2637 30.5689 -0.911633 35.2637 30.5689 -0.911633
524 2 37.0967 30.5621 0.904832 37.0967 30.5621 0.904832
525 2 37.3473 30.6644 -2.30665 37.3473 30.6644 -2.30665
526 1 38.1426 32.2404 -0.624228 38.1426 32.2404 -0.624228
527 2 40.0605 32.0824 1.05309 40.0605 32.0824 1.05309
528 2 40.0957 32.3851 -2.1814 40.0957 32.3851 -2.1814
529 1 41.028 30.5403 -0.785406 41.028 30.5403 -0.785406
530 2 42.6349 30.4963 1.22276 42.6349 30.4963 1.22276
531 2 43.1515 30.6347 -2.09032 43.1515 30.6347 -2.09032
532 1 43.8231 32.2208 -0.243213 43.8231 32.2208 -0.243213
533 2 45.7665 32.5192 1.32326 45.7665 32.5192 1.32326
534 2 45.7641 32.1764 -1.95049 45.7641 32.1764 -1.95049
535 1 46.7143 30.6462 -0.0267192 46.7143 30.6462 -0.0267192
536 2 48.8003 30.5662 1.46835 48.8003 30.5662 1.46835
537 2 48.6124 30.6831 -1.85421 48.6124 30.6831 -1.85421
538 1 49.5923 32.3568 -0.114069 49.5923 32.3568 -0.114069