ITEM: TIMESTEP
200
ITEM: NUMBER OF ATOMS
810
ITEM: BOX BOUNDS pp pp pp
8.1074664407022468e-01 5.2206858355929754e+01
7.9369016545290116e-01 5.0222524834546491e+01
-1.0000000000000000e+01 1.0000000000000000e+01
ITEM: ATOMS id type x y z xu yu zu
1 1 1.02204 1.13992 0.100111 1.02204 1.13992 0.100111
2 2 2.81971 0.873733 1.68601 2.81971 0.873733 1.68601
3 2 3.08522 1.25897 -1.56309 3.08522 1.25897 -1.56309
4 1 3.96212 2.72737 0.336007 3.96212 2.72737 0.336007
5 2 5.87646 2.65241 1.88247 5.87646 2.65241 1.88247
6 2 5.7676 2.65026 -1.34509 5.7676 2.65026 -1.34509
7 1 6.7017 0.98467 0.257399 6.7017 0.98467 0.257399
8 2 8.54203 0.73315 1.93412 8.54203 0.73315 1.93412
9 2 8.68586 0.986412 -1.29001 8.68586 0.986412 -1.29001
10 1 9.56807 2.5886 0.510991 9.56807 2.5886 0.510991
11 2 11.5651 2.4917 1.91866 11.5651 2.4917 1.91866
12 2 11.2501 2.79328 -1.3276 11.2501 2.79328 -1.3276
13 1 12.3534 0.948533 0.11895 12.3534 0.948533 0.11895
14 2 14.3547 50.2302 1.58456 14.3547 0.801352 1.58456
15 2 14.23 1.06639 -1.73256 14.23 1.06639 -1.73256
16 1 15.225 2.7082 0.106083 15.225 2.7082 0.106083
17 2 17.1417 2.3818 1.70852 17.1417 2.3818 1.70852
18 2 17.1942 2.89364 -1.56012 17.1942 2.89364 -1.56012
19 1 18.1304 0.975909 -0.270324 18.1304 0.975909 -0.270324
20 2 20.1522 50.2168 1.15459 20.1522 0.787976 1.15459
21 2 19.8709 1.23334 -2.0421 19.8709 1.23334 -2.0421
22 1 21.0257 2.66016 -0.356389 21.0257 2.66016 -0.356389
23 2 23.0313 2.55615 1.10181 23.0313 2.55615 1.10181
24 2 22.7669 2.72598 -2.14103 22.7669 2.72598 -2.14103
25 1 23.7652 1.12745 -0.653677 23.7652 1.12745 -0.653677
26 2 25.6442 0.83031 0.898628 25.6442 0.83031 0.898628
27 2 25.5654 1.27954 -2.31801 25.5654 1.27954 -2.31801
28 1 26.763 2.65654 -0.644404 26.763 2.65654 -0.644404
29 2 28.6643 2.41952 1.02772 28.6643 2.41952 1.02772
30 2 28.7506 2.82186 -2.3042 28.7506 2.82186 -2.3042
31 1 29.6424 1.0169 -0.801002 29.6424 1.0169 -0.801002
32 2 31.3839 0.936687 0.968063 31.3839 0.936687 0.968063
33 2 31.5292 1.17581 -2.34933 31.5292 1.17581 -2.34933
34 1 32.4654 2.77115 -0.447813 32.4654 2.77115 -0.447813
35 2 34.2954 2.61538 1.40696 34.2954 2.61538 1.40696
36 2 34.5024 2.85911 -1.86615 34.5024 2.85911 -1.86615
37 1 35.2956 1.03076 -0.383827 35.2956 1.03076 -0.383827
38 2 37.0736 0.730463 1.47626 37.0736 0.730463 1.47626
39 2 37.3335 1.06378 -1.80128 37.3335 1.06378 -1.80128
40 1 38.189 2.62737 0.0175926 38.189 2.62737 0.0175926
41 2 39.7923 2.44656 1.80984 39.7923 2.44656 1.80984
42 2 40.1279 2.80702 -1.43864 40.1279 2.80702 -1.43864
43 1 40.9408 1.0516 0.0124322 40.9408 1.0516 0.0124322
44 2 42.7751 0.751492 1.73708 42.7751 0.751492 1.73708
45 2 42.9687 1.36998 -1.41322 42.9687 1.36998 -1.41322
46 1 43.7702 2.68471 0.510782 43.7702 2.68471 0.510782
47 2 45.6697 2.50369 2.17905 45.6697 2.50369 2.17905
48 2 45.6767 3.02256 -1.05028 45.6767 3.02256 -1.05028
49 1 46.664 1.0137 0.40145 46.664 1.0137 0.40145
50 2 48.6752 0.933426 1.88451 48.6752 0.933426 1.88451
51 2 48.466 1.19953 -1.31613 48.466 1.19953 -1.31613
52 1 49.5816 2.7518 0.354676 49.5816 2.7518 0.354676
53 2 51.5359 2.46054 1.95948 51.5359 2.46054 1.95948
54 2 51.4761 2.98048 -1.29493 51.4761 2.98048 -1.29493
55 1 1.14988 4.39731 0.599288 1.14988 4.39731 0.599288
56 2 3.10894 4.31167 2.12262 3.10894 4.31167 2.12262
57 2 2.93199 4.45076 -1.13993 2.93199 4.45076 -1.13993
58 1 3.96524 5.99078 0.476247 3.96524 5.99078 0.476247
59 2 5.99162 5.93896 1.89209 5.99162 5.93896 1.89209
60 2 5.62105 5.91515 -1.31827 5.62105 5.91515 -1.31827
61 1 6.76704 4.32857 0.192789 6.76704 4.32857 0.192789
62 2 8.50144 4.42445 2.01338 8.50144 4.42445 2.01338
63 2 8.68286 4.22238 -1.33655 8.68286 4.22238 -1.33655
64 1 9.61931 5.86992 0.275661 9.61931 5.86992 0.275661
65 2 11.488 6.01065 1.98061 11.488 6.01065 1.98061
66 2 11.4277 5.85847 -1.30831 11.4277 5.85847 -1.30831
67 1 12.416 4.25564 0.319893 12.416 4.25564 0.319893
68 2 14.447 4.26574 1.87834 14.447 4.26574 1.87834
69 2 14.367 4.37943 -1.46697 14.367 4.37943 -1.46697
70 1 15.3092 6.02021 0.257872 15.3092 6.02021 0.257872
71 2 17.2337 6.01973 1.8813 17.2337 6.01973 1.8813
72 2 16.9965 5.88039 -1.42882 16.9965 5.88039 -1.42882
73 1 18.1366 4.24896 0.339223 18.1366 4.24896 0.339223
74 2 20.3034 4.18689 1.59902 20.3034 4.18689 1.59902
75 2 19.6545 4.33473 -1.56475 19.6545 4.33473 -1.56475
76 1 20.9264 5.92025 -0.138051 20.9264 5.92025 -0.138051
77 2 22.8984 5.7142 1.33864 22.8984 5.7142 1.33864
78 2 22.744 6.14219 -1.88262 22.744 6.14219 -1.88262
79 1 23.7923 4.30569 -0.460828 23.7923 4.30569 -0.460828
80 2 25.863 4.15254 1.10694 25.863 4.15254 1.10694
81 2 25.653 4.2568 -2.29411 25.653 4.2568 -2.29411
82 1 26.7341 5.87856 -0.486037 26.7341 5.87856 -0.486037
83 2 28.5903 5.74539 1.25249 28.5903 5.74539 1.25249
84 2 28.6979 6.01555 -1.93606 28.6979 6.01555 -1.93606
85 1 29.6847 4.35279 -0.400731 29.6847 4.35279 -0.400731
86 2 31.5254 4.22649 1.28226 31.5254 4.22649 1.28226
87 2 31.6376 4.46952 -1.93526 31.6376 4.46952 -1.93526
88 1 32.5397 6.0517 -0.139795 32.5397 6.0517 -0.139795
89 2 34.216 5.64793 1.66522 34.216 5.64793 1.66522
90 2 34.569 6.30489 -1.4471 34.569 6.30489 -1.4471
91 1 35.3629 4.35317 -0.049186 35.3629 4.35317 -0.049186
92 2 37.1412 4.16672 1.72581 37.1412 4.16672 1.72581
93 2 37.3413 4.35258 -1.53071 37.3413 4.35258 -1.53071
94 1 38.2656 5.9665 0.334744 38.2656 5.9665 0.334744
95 2 40.0359 5.9786 2.14056 40.0359 5.9786 2.14056
96 2 40.2262 5.93035 -1.1859 40.2262 5.93035 -1.1859
97 1 40.9497 4.29007 0.515089 40.9497 4.29007 0.515089
98 2 42.7793 4.25734 2.29938 42.7793 4.25734 2.29938
99 2 42.8828 4.43413 -1.01822 42.8828 4.43413 -1.01822
100 1 43.904 5.9062 0.746093 43.904 5.9062 0.746093
101 2 45.8143 5.94168 2.3414 45.8143 5.94168 2.3414
102 2 45.9123 5.94623 -0.887067 45.9123 5.94623 -0.887067
103 1 46.8065 4.32449 0.782706 46.8065 4.32449 0.782706
104 2 48.9814 4.18119 2.29188 48.9814 4.18119 2.29188
105 2 48.4784 4.57953 -1.04227 48.4784 4.57953 -1.04227
106 1 49.6428 5.98862 0.654475 49.6428 5.98862 0.654475
107 2 51.6848 5.93887 2.3877 51.6848 5.93887 2.3877
108 2 51.6191 6.06759 -0.95727 51.6191 6.06759 -0.95727
109 1 1.09784 7.58979 0.73656 1.09784 7.58979 0.73656
110 2 3.10922 7.5188 2.34822 3.10922 7.5188 2.34822
111 2 2.87029 7.56617 -1.06921 2.87029 7.56617 -1.06921
112 1 3.83247 9.26346 0.597388 3.83247 9.26346 0.597388
113 2 5.97921 9.03444 2.03088 5.97921 9.03444 2.03088
114 2 5.68786 9.30381 -1.20414 5.68786 9.30381 -1.20414
115 1 6.75223 7.57012 0.191431 6.75223 7.57012 0.191431
116 2 8.68262 7.50427 1.82133 8.68262 7.50427 1.82133
117 2 8.71407 7.60596 -1.36434 8.71407 7.60596 -1.36434
118 1 9.7051 9.17857 0.278334 9.7051 9.17857 0.278334
119 2 11.587 9.30767 1.91792 11.587 9.30767 1.91792
120 2 11.4382 9.24196 -1.40153 11.4382 9.24196 -1.40153
121 1 12.4716 7.55042 0.246301 12.4716 7.55042 0.246301
122 2 14.4264 7.56937 1.84653 14.4264 7.56937 1.84653
123 2 14.221 7.59553 -1.4085 14.221 7.59553 -1.4085
124 1 15.3092 9.24089 0.193431 15.3092 9.24089 0.193431
125 2 17.3437 9.18507 1.74608 17.3437 9.18507 1.74608
126 2 17.2767 9.10466 -1.45301 17.2767 9.10466 -1.45301
127 1 18.207 7.53399 0.137783 18.207 7.53399 0.137783
128 2 20.2371 7.60548 1.56251 20.2371 7.60548 1.56251
129 2 19.9129 7.5203 -1.68654 19.9129 7.5203 -1.68654
130 1 21.0836 9.19657 -0.166159 21.0836 9.19657 -0.166159
131 2 22.9685 9.02555 1.51649 22.9685 9.02555 1.51649
132 2 23.0622 9.29508 -1.72598 23.0622 9.29508 -1.72598
133 1 23.7664 7.50224 -0.263368 23.7664 7.50224 -0.263368
134 2 25.772 7.40666 1.29497 25.772 7.40666 1.29497
135 2 25.5698 7.48152 -1.9882 25.5698 7.48152 -1.9882
136 1 26.6599 9.14165 -0.335619 26.6599 9.14165 -0.335619
137 2 28.4634 9.07578 1.46045 28.4634 9.07578 1.46045
138 2 28.7201 9.34455 -1.7811 28.7201 9.34455 -1.7811
139 1 29.6471 7.62599 -0.158211 29.6471 7.62599 -0.158211
140 2 31.4026 7.33827 1.59972 31.4026 7.33827 1.59972
141 2 31.641 7.88432 -1.56136 31.641 7.88432 -1.56136
142 1 32.4779 9.293 0.361943 32.4779 9.293 0.361943
143 2 34.3442 9.30281 2.17145 34.3442 9.30281 2.17145
144 2 34.4158 9.37519 -1.09914 34.4158 9.37519 -1.09914
145 1 35.3661 7.59434 0.512252 35.3661 7.59434 0.512252
146 2 37.246 7.39794 2.22638 37.246 7.39794 2.22638
147 2 37.3909 7.80234 -1.10595 37.3909 7.80234 -1.10595
148 1 38.1113 9.27972 0.796578 38.1113 9.27972 0.796578
149 2 40.2069 9.08825 2.3623 40.2069 9.08825 2.3623
150 2 39.9749 9.31835 -0.898923 39.9749 9.31835 -0.898923
151 1 41.0235 7.5856 0.489934 41.0235 7.5856 0.489934
152 2 42.7624 7.54229 2.35156 42.7624 7.54229 2.35156
153 2 43.0875 7.58969 -0.95685 43.0875 7.58969 -0.95685
154 1 43.8636 9.28721 0.800084 43.8636 9.28721 0.800084
155 2 45.7618 9.20677 2.44574 45.7618 9.20677 2.44574
156 2 45.7478 9.32944 -0.78103 45.7478 9.32944 -0.78103
157 1 46.6893 7.60888 0.769924 46.6893 7.60888 0.769924
158 2 48.6514 7.40072 2.42572 48.6514 7.40072 2.42572
159 2 48.7145 7.76957 -0.858842 48.7145 7.76957 -0.858842
160 1 49.6308 9.21942 1.01112 49.6308 9.21942 1.01112
161 2 51.4349 8.99636 2.61144 51.4349 8.99636 2.61144
162 2 51.4524 9.55084 -0.72559 51.4524 9.55084 -0.72559
163 1 1.00957 10.8791 1.11703 1.00957 10.8791 1.11703
164 2 3.23827 10.9102 2.42917 3.23827 10.9102 2.42917
165 2 2.63316 10.8923 -0.752844 2.63316 10.8923 -0.752844
166 1 3.84288 12.5643 0.672738 3.84288 12.5643 0.672738
167 2 5.95852 12.5756 2.01164 5.95852 12.5756 2.01164
168 2 5.71962 12.4859 -1.10268 5.71962 12.4859 -1.10268
169 1 6.73527 10.8181 0.496286 6.73527 10.8181 0.496286
170 2 8.77941 10.7771 1.97792 8.77941 10.7771 1.97792
171 2 8.53594 10.7232 -1.3532 8.53594 10.7232 -1.3532
172 1 9.5578 12.4779 0.210119 9.5578 12.4779 0.210119
173 2 11.465 12.4918 1.71665 11.465 12.4918 1.71665
174 2 11.2911 12.3004 -1.49936 11.2911 12.3004 -1.49936
175 1 12.4703 10.832 0.222619 12.4703 10.832 0.222619
176 2 14.3936 10.9056 1.86142 14.3936 10.9056 1.86142
177 2 14.2995 10.8267 -1.41312 14.2995 10.8267 -1.41312
178 1 15.2602 12.5116 0.0841577 15.2602 12.5116 0.0841577
179 2 17.1989 12.6493 1.56441 17.1989 12.6493 1.56441
180 2 17.137 12.2783 -1.70498 17.137 12.2783 -1.70498
181 1 18.1537 10.8482 0.0630503 18.1537 10.8482 0.0630503
182 2 20.2205 10.7907 1.67793 20.2205 10.7907 1.67793
183 2 20.0127 10.897 -1.69393 20.0127 10.897 -1.69393
184 1 21.0456 12.4471 0.0127315 21.0456 12.4471 0.0127315
185 2 22.8197 12.5354 1.74524 22.8197 12.5354 1.74524
186 2 22.9613 12.471 -1.65776 22.9613 12.471 -1.65776
187 1 23.9576 10.831 0.0899524 23.9576 10.831 0.0899524
188 2 25.8893 10.5065 1.5533 25.8893 10.5065 1.5533
189 2 25.7178 10.9283 -1.71708 25.7178 10.9283 -1.71708
190 1 26.7892 12.4067 0.0537971 26.7892 12.4067 0.0537971
191 2 28.6116 12.4505 1.70942 28.6116 12.4505 1.70942
192 2 28.7402 12.5076 -1.6354 28.7402 12.5076 -1.6354
193 1 29.5407 10.8265 0.0785078 29.5407 10.8265 0.0785078
194 2 31.3424 10.9142 1.93383 31.3424 10.9142 1.93383
195 2 31.5862 11.0256 -1.30283 31.5862 11.0256 -1.30283
196 1 32.4717 12.5819 0.45448 32.4717 12.5819 0.45448
197 2 34.2056 12.489 2.18677 34.2056 12.489 2.18677
198 2 34.4982 12.5905 -1.04694 34.4982 12.5905 -1.04694
199 1 35.2748 10.8924 0.559464 35.2748 10.8924 0.559464
200 2 37.0588 10.9067 2.42643 37.0588 10.9067 2.42643
201 2 37.237 10.9361 -0.894685 37.237 10.9361 -0.894685
202 1 38.0799 12.51 0.820116 38.0799 12.51 0.820116
203 2 40.0705 12.514 2.46308 40.0705 12.514 2.46308
204 2 39.9717 12.5409 -0.732614 39.9717 12.5409 -0.732614
205 1 40.9989 10.8724 0.868741 40.9989 10.8724 0.868741
206 2 42.8845 10.8442 2.39068 42.8845 10.8442 2.39068
207 2 42.9783 10.9948 -0.812253 42.9783 10.9948 -0.812253
208 1 43.9242 12.5969 0.811514 43.9242 12.5969 0.811514
209 2 45.5872 12.3539 2.62378 45.5872 12.3539 2.62378
210 2 46.0409 12.729 -0.618891 46.0409 12.729 -0.618891
211 1 46.7754 10.9041 0.914919 46.7754 10.9041 0.914919
212 2 48.5378 10.8084 2.6837 48.5378 10.8084 2.6837
213 2 48.8424 11.0787 -0.514522 48.8424 11.0787 -0.514522
214 1 49.6817 12.7007 1.2606 49.6817 12.7007 1.2606
215 2 51.6693 12.3999 2.83472 51.6693 12.3999 2.83472
216 2 51.4729 12.6864 -0.426137 51.4729 12.6864 -0.426137
217 1 1.13812 14.2607 1.20368 1.13812 14.2607 1.20368
218 2 3.29677 14.1956 2.42162 3.29677 14.1956 2.42162
219 2 2.73221 14.2459 -0.83855 2.73221 14.2459 -0.83855
220 1 3.95144 15.8194 0.62853 3.95144 15.8194 0.62853
221 2 5.93428 15.8017 2.06282 5.93428 15.8017 2.06282
222 2 5.75204 15.8375 -1.21661 5.75204 15.8375 -1.21661
223 1 6.81039 14.1495 0.320036 6.81039 14.1495 0.320036
224 2 8.79497 14.1263 1.94007 8.79497 14.1263 1.94007
225 2 8.6087 14.0788 -1.40295 8.6087 14.0788 -1.40295
226 1 9.57465 15.8263 0.130588 9.57465 15.8263 0.130588
227 2 11.5598 15.9946 1.55773 11.5598 15.9946 1.55773
228 2 11.3396 15.7098 -1.76978 11.3396 15.7098 -1.76978
229 1 12.2449 14.1071 -0.011532 12.2449 14.1071 -0.011532
230 2 14.2632 14.1877 1.57824 14.2632 14.1877 1.57824
231 2 14.1673 13.9183 -1.61935 14.1673 13.9183 -1.61935
232 1 15.145 15.7209 -0.173633 15.145 15.7209 -0.173633
233 2 17.1608 15.8136 1.35724 17.1608 15.8136 1.35724
234 2 17.1671 15.7102 -1.92237 17.1671 15.7102 -1.92237
235 1 18.1403 14.0729 -0.240616 18.1403 14.0729 -0.240616
236 2 19.9178 14.1643 1.50301 19.9178 14.1643 1.50301
237 2 20.1945 13.9274 -1.83484 20.1945 13.9274 -1.83484
238 1 21.041 15.6908 -0.162014 21.041 15.6908 -0.162014
239 2 22.8785 15.729 1.63327 22.8785 15.729 1.63327
240 2 23.0456 15.8028 -1.80875 23.0456 15.8028 -1.80875
241 1 23.9385 14.0768 -0.0399452 23.9385 14.0768 -0.0399452
242 2 25.8716 14.2221 1.70061 25.8716 14.2221 1.70061
243 2 26.0107 14.1136 -1.64334 26.0107 14.1136 -1.64334
244 1 26.7614 15.8706 -0.0222242 26.7614 15.8706 -0.0222242
245 2 28.7042 15.7186 1.6735 28.7042 15.7186 1.6735
246 2 28.7328 15.9387 -1.49762 28.7328 15.9387 -1.49762
247 1 29.6944 14.1673 -0.0296208 29.6944 14.1673 -0.0296208
248 2 31.2006 14.2177 1.87802 31.2006 14.2177 1.87802
249 2 31.8065 14.2584 -1.40141 31.8065 14.2584 -1.40141
250 1 32.3923 15.9006 0.439892 32.3923 15.9006 0.439892
251 2 34.2599 15.9181 2.25262 34.2599 15.9181 2.25262
252 2 34.4694 15.7959 -1.04197 34.4694 15.7959 -1.04197
253 1 35.2957 14.1745 0.750814 35.2957 14.1745 0.750814
254 2 37.138 14.191 2.36674 37.138 14.191 2.36674
255 2 37.2426 14.1788 -0.975823 37.2426 14.1788 -0.975823
256 1 38.1215 15.8019 0.710384 38.1215 15.8019 0.710384
257 2 40.0091 15.7889 2.54591 40.0091 15.7889 2.54591
258 2 40.1809 15.9614 -0.707763 40.1809 15.9614 -0.707763
259 1 41.0218 14.2874 0.898369 41.0218 14.2874 0.898369
260 2 42.8075 14.0861 2.63229 42.8075 14.0861 2.63229
261 2 43.0401 14.4997 -0.599284 43.0401 14.4997 -0.599284
262 1 43.9817 15.9299 1.26503 43.9817 15.9299 1.26503
263 2 45.899 15.8833 2.94358 45.899 15.8833 2.94358
264 2 45.8844 15.6538 -0.382944 45.8844 15.6538 -0.382944
265 1 46.7859 14.2234 1.39598 46.7859 14.2234 1.39598
266 2 48.7635 14.3169 2.8998 48.7635 14.3169 2.8998
267 2 48.6512 14.2695 -0.486347 48.6512 14.2695 -0.486347
268 1 49.6837 15.9302 1.05446 49.6837 15.9302 1.05446
269 2 51.5698 16.0844 2.73124 51.5698 16.0844 2.73124
270 2 51.6158 15.7274 -0.565419 51.6158 15.7274 -0.565419
271 1 1.06512 17.6119 0.98191 1.06512 17.6119 0.98191
272 2 3.07524 17.431 2.31045 3.07524 17.431 2.31045
273 2 2.67058 17.5019 -0.848556 2.67058 17.5019 -0.848556
274 1 3.91313 19.172 0.717077 3.91313 19.172 0.717077
275 2 6.07603 19.1536 2.05593 6.07603 19.1536 2.05593
276 2 5.51037 19.1507 -1.19918 5.51037 19.1507 -1.19918
277 1 6.76266 17.5008 0.295556 6.76266 17.5008 0.295556
278 2 8.87682 17.6809 1.68589 8.87682 17.6809 1.68589
279 2 8.38391 17.3831 -1.54665 8.38391 17.3831 -1.54665
280 1 9.58692 19.1111 -0.273803 9.58692 19.1111 -0.273803
281 2 11.5901 19.1627 1.20933 11.5901 19.1627 1.20933
282 2 11.519 18.8838 -1.92648 11.519 18.8838 -1.92648
283 1 12.4808 17.3925 -0.318786 12.4808 17.3925 -0.318786
284 2 14.4167 17.646 1.22448 14.4167 17.646 1.22448
285 2 14.2479 17.1338 -2.06347 14.2479 17.1338 -2.06347
286 1 15.3229 18.9917 -0.725024 15.3229 18.9917 -0.725024
287 2 17.018 19.2412 1.04752 17.018 19.2412 1.04752
288 2 17.1913 18.8063 -2.21171 17.1913 18.8063 -2.21171
289 1 18.1774 17.4271 -0.381229 18.1774 17.4271 -0.381229
290 2 19.9529 17.4764 1.34767 19.9529 17.4764 1.34767
291 2 20.1583 17.218 -1.95406 20.1583 17.218 -1.95406
292 1 21.037 18.9964 -0.316716 21.037 18.9964 -0.316716
293 2 22.8131 19.1804 1.40087 22.8131 19.1804 1.40087
294 2 23.0547 18.8849 -1.93919 23.0547 18.8849 -1.93919
295 1 23.8605 17.3787 -0.00602415 23.8605 17.3787 -0.00602415
296 2 25.8258 17.3217 1.67294 25.8258 17.3217 1.67294
297 2 25.8576 17.4641 -1.63035 25.8576 17.4641 -1.63035
298 1 26.7632 19.0598 0.146949 26.7632 19.0598 0.146949
299 2 28.5734 19.0976 1.81662 28.5734 19.0976 1.81662
300 2 28.6139 19.0636 -1.40803 28.6139 19.0636 -1.40803
301 1 29.5887 17.515 0.267711 29.5887 17.515 0.267711
302 2 31.4751 17.6213 2.03472 31.4751 17.6213 2.03472
303 2 31.6225 17.5075 -1.24739 31.6225 17.5075 -1.24739
304 1 32.4572 19.1959 0.396131 32.4572 19.1959 0.396131
305 2 34.2952 19.499 2.06412 34.2952 19.499 2.06412
306 2 34.3039 19.0649 -1.1794 34.3039 19.0649 -1.1794
307 1 35.2644 17.5255 0.652509 35.2644 17.5255 0.652509
308 2 37.2161 17.5374 2.35446 37.2161 17.5374 2.35446
309 2 37.217 17.5455 -0.920558 37.217 17.5455 -0.920558
310 1 38.2071 19.2465 0.728787 38.2071 19.2465 0.728787
311 2 39.955 19.2179 2.54137 39.955 19.2179 2.54137
312 2 40.3285 19.2282 -0.704534 40.3285 19.2282 -0.704534
313 1 40.9593 17.5206 1.02592 40.9593 17.5206 1.02592
314 2 42.7206 17.5171 2.80708 42.7206 17.5171 2.80708
315 2 43.0475 17.5463 -0.434512 43.0475 17.5463 -0.434512
316 1 43.8144 19.1217 1.2085 43.8144 19.1217 1.2085
317 2 45.8153 19.1657 2.64204 45.8153 19.1657 2.64204
318 2 45.7142 19.1096 -0.503139 45.7142 19.1096 -0.503139
319 1 46.7942 17.5327 1.09808 46.7942 17.5327 1.09808
320 2 48.6151 17.5659 2.67379 48.6151 17.5659 2.67379
321 2 48.6558 17.5027 -0.548568 48.6558 17.5027 -0.548568
322 1 49.5291 19.2028 1.06625 49.5291 19.2028 1.06625
323 2 51.5035 19.2959 2.55029 51.5035 19.2959 2.55029
324 2 51.4308 19.1896 -0.646294 51.4308 19.1896 -0.646294
325 1 1.03829 20.9791 0.896834 1.03829 20.9791 0.896834
326 2 3.1564 21.0132 2.32086 3.1564 21.0132 2.32086
327 2 2.76159 20.7322 -0.8972 2.76159 20.7322 -0.8972
328 1 3.96428 22.5288 0.469787 3.96428 22.5288 0.469787
329 2 6.13443 22.8101 1.65489 6.13443 22.8101 1.65489
330 2 5.44059 22.2272 -1.45408 5.44059 22.2272 -1.45408
331 1 6.7169 20.7956 0.283469 6.7169 20.7956 0.283469
332 2 9.08353 20.8789 1.42243 9.08353 20.8789 1.42243
333 2 8.26515 20.6637 -1.77984 8.26515 20.6637 -1.77984
334 1 9.65683 22.4308 -0.549024 9.65683 22.4308 -0.549024
335 2 11.5238 22.4952 0.985404 11.5238 22.4952 0.985404
336 2 11.4556 22.2687 -2.23723 11.4556 22.2687 -2.23723
337 1 12.46 20.7205 -0.548882 12.46 20.7205 -0.548882
338 2 14.4845 20.7942 0.905251 14.4845 20.7942 0.905251
339 2 14.2883 20.6644 -2.3641 14.2883 20.6644 -2.3641
340 1 15.3807 22.3421 -0.849063 15.3807 22.3421 -0.849063
341 2 17.0954 22.3092 0.888503 17.0954 22.3092 0.888503
342 2 17.2853 22.4682 -2.36782 17.2853 22.4682 -2.36782
343 1 18.1254 20.6517 -0.717561 18.1254 20.6517 -0.717561
344 2 19.9897 20.8248 1.11924 19.9897 20.8248 1.11924
345 2 20.1622 20.4457 -2.1863 20.1622 20.4457 -2.1863
346 1 20.9808 22.2945 -0.698379 20.9808 22.2945 -0.698379
347 2 22.7561 22.4626 1.12731 22.7561 22.4626 1.12731
348 2 23.0116 22.2342 -2.21615 23.0116 22.2342 -2.21615
349 1 23.8265 20.6319 -0.35465 23.8265 20.6319 -0.35465
350 2 25.6325 20.8264 1.44435 25.6325 20.8264 1.44435
351 2 25.9065 20.5122 -1.81415 25.9065 20.5122 -1.81415
352 1 26.6844 22.3608 -0.253724 26.6844 22.3608 -0.253724
353 2 28.4558 22.7428 1.43332 28.4558 22.7428 1.43332
354 2 28.7284 22.1262 -1.6974 28.7284 22.1262 -1.6974
355 1 29.4861 20.7772 0.220834 29.4861 20.7772 0.220834
356 2 31.3853 20.9728 1.85001 31.3853 20.9728 1.85001
357 2 31.4346 20.6814 -1.35218 31.4346 20.6814 -1.35218
358 1 32.3858 22.487 0.0791288 32.3858 22.487 0.0791288
359 2 34.3865 22.6013 1.74346 34.3865 22.6013 1.74346
360 2 34.2327 22.2979 -1.53184 34.2327 22.2979 -1.53184
361 1 35.2703 20.8084 0.239399 35.2703 20.8084 0.239399
362 2 37.124 21.0447 2.10696 37.124 21.0447 2.10696
363 2 37.2825 20.652 -1.16312 37.2825 20.652 -1.16312
364 1 38.1495 22.5482 0.365457 38.1495 22.5482 0.365457
365 2 39.7864 22.6569 2.23506 39.7864 22.6569 2.23506
366 2 40.148 22.1368 -1.03621 40.148 22.1368 -1.03621
367 1 41.0216 20.8431 0.991258 41.0216 20.8431 0.991258
368 2 42.8788 21.0588 2.55249 42.8788 21.0588 2.55249
369 2 42.9397 20.5033 -0.682769 42.9397 20.5033 -0.682769
370 1 43.8914 22.3249 0.622532 43.8914 22.3249 0.622532
371 2 45.7574 22.6846 2.31279 45.7574 22.6846 2.31279
372 2 45.9 22.2474 -0.996858 45.9 22.2474 -0.996858
373 1 46.6813 20.8586 0.904009 46.6813 20.8586 0.904009
374 2 48.6329 20.9115 2.54783 48.6329 20.9115 2.54783
375 2 48.669 20.6612 -0.687471 48.669 20.6612 -0.687471
376 1 49.588 22.4338 0.819734 49.588 22.4338 0.819734
377 2 51.6393 22.9002 2.24621 51.6393 22.9002 2.24621
378 2 51.2623 22.0609 -0.953221 51.2623 22.0609 -0.953221
379 1 1.06376 24.0674 0.202683 1.06376 24.0674 0.202683
380 2 3.10777 24.5453 1.67128 3.10777 24.5453 1.67128
381 2 2.93018 23.6124 -1.52066 2.93018 23.6124 -1.52066
382 1 3.84316 25.7027 -0.467556 3.84316 25.7027 -0.467556
383 2 5.86988 26.0533 0.975374 5.86988 26.0533 0.975374
384 2 5.70444 25.4705 -2.1091 5.70444 25.4705 -2.1091
385 1 6.81794 24.1224 -0.409247 6.81794 24.1224 -0.409247
386 2 8.85562 24.2012 1.13423 8.85562 24.2012 1.13423
387 2 8.54829 23.9824 -2.2489 8.54829 23.9824 -2.2489
388 1 9.61591 25.7317 -0.692094 9.61591 25.7317 -0.692094
389 2 11.7121 25.8451 0.740819 11.7121 25.8451 0.740819
390 2 11.3665 25.5863 -2.46274 11.3665 25.5863 -2.46274
391 1 12.4583 23.9916 -0.829977 12.4583 23.9916 -0.829977
392 2 14.2841 24.0718 0.827739 14.2841 24.0718 0.827739
393 2 14.3826 24.0411 -2.46651 14.3826 24.0411 -2.46651
394 1 15.2519 25.6945 -0.790403 15.2519 25.6945 -0.790403
395 2 17.0604 25.7433 0.973818 17.0604 25.7433 0.973818
396 2 17.1324 25.6768 -2.34218 17.1324 25.6768 -2.34218
397 1 18.1104 24.0669 -0.606277 18.1104 24.0669 -0.606277
398 2 20.145 24.0424 0.904196 20.145 24.0424 0.904196
399 2 19.9392 23.8031 -2.33354 19.9392 23.8031 -2.33354
400 1 20.9614 25.6787 -0.836988 20.9614 25.6787 -0.836988
401 2 22.8096 25.7068 0.916116 22.8096 25.7068 0.916116
402 2 22.8271 25.576 -2.40819 22.8271 25.576 -2.40819
403 1 23.8226 23.9589 -0.595386 23.8226 23.9589 -0.595386
404 2 25.6349 24.2056 1.24334 25.6349 24.2056 1.24334
405 2 25.9424 23.9189 -2.07009 25.9424 23.9189 -2.07009
406 1 26.6906 25.6375 -0.528629 26.6906 25.6375 -0.528629
407 2 28.4717 25.7703 1.16962 28.4717 25.7703 1.16962
408 2 28.7729 25.5501 -2.1362 28.7729 25.5501 -2.1362
409 1 29.5509 23.935 -0.28683 29.5509 23.935 -0.28683
410 2 31.3924 24.2699 1.41793 31.3924 24.2699 1.41793
411 2 31.5448 23.7223 -1.8536 31.5448 23.7223 -1.8536
412 1 32.3911 25.7561 -0.501569 32.3911 25.7561 -0.501569
413 2 34.085 25.792 1.32326 34.085 25.792 1.32326
414 2 34.5303 25.6252 -1.86447 34.5303 25.6252 -1.86447
415 1 35.2356 24.1144 -0.0168534 35.2356 24.1144 -0.0168534
416 2 37.0886 24.3509 1.79113 37.0886 24.3509 1.79113
417 2 37.2995 24.0903 -1.48989 37.2995 24.0903 -1.48989
418 1 38.1107 25.7981 0.104148 38.1107 25.7981 0.104148
419 2 39.9568 25.9441 1.88088 39.9568 25.9441 1.88088
420 2 40.2174 25.4637 -1.37129 40.2174 25.4637 -1.37129
421 1 40.9646 24.0523 0.483389 40.9646 24.0523 0.483389
422 2 42.9196 24.3156 2.05593 42.9196 24.3156 2.05593
423 2 42.8979 23.7653 -1.24171 42.8979 23.7653 -1.24171
424 1 43.8137 25.6212 0.260821 43.8137 25.6212 0.260821
425 2 45.7696 25.9749 1.83226 45.7696 25.9749 1.83226
426 2 45.7905 25.387 -1.39477 45.7905 25.387 -1.39477
427 1 46.7495 24.0389 0.443546 46.7495 24.0389 0.443546
428 2 48.5902 24.3053 2.1436 48.5902 24.3053 2.1436
429 2 48.793 23.903 -1.11437 48.793 23.903 -1.11437
430 1 49.5797 25.801 0.22896 49.5797 25.801 0.22896
431 2 51.629 26.0589 1.64195 51.629 26.0589 1.64195
432 2 51.3014 25.5133 -1.62206 51.3014 25.5133 -1.62206
433 1 1.04103 27.3257 -0.443291 1.04103 27.3257 -0.443291
434 2 3.09826 27.5107 1.08469 3.09826 27.5107 1.08469
435 2 2.74736 27.1828 -2.22946 2.74736 27.1828 -2.22946
436 1 3.89584 29.0198 -0.745573 3.89584 29.0198 -0.745573
437 2 5.85322 28.8829 0.81242 5.85322 28.8829 0.81242
438 2 5.70537 29.1026 -2.42761 5.70537 29.1026 -2.42761
439 1 6.65211 27.3536 -0.915629 6.65211 27.3536 -0.915629
440 2 8.57642 27.5984 0.734164 8.57642 27.5984 0.734164
441 2 8.61973 27.3064 -2.53001 8.61973 27.3064 -2.53001
442 1 9.61274 29.0645 -0.978592 9.61274 29.0645 -0.978592
443 2 11.6479 29.0976 0.664858 11.6479 29.0976 0.664858
444 2 11.485 29.0015 -2.6408 11.485 29.0015 -2.6408
445 1 12.4683 27.4246 -0.967712 12.4683 27.4246 -0.967712
446 2 14.2485 27.5102 0.673171 14.2485 27.5102 0.673171
447 2 14.4057 27.2189 -2.58521 14.4057 27.2189 -2.58521
448 1 15.2719 28.9964 -1.07214 15.2719 28.9964 -1.07214
449 2 17.0121 28.9665 0.766459 17.0121 28.9665 0.766459
450 2 17.3435 28.8354 -2.50446 17.3435 28.8354 -2.50446
451 1 18.0671 27.2942 -0.716789 18.0671 27.2942 -0.716789
452 2 19.9547 27.1981 0.853533 19.9547 27.1981 0.853533
453 2 20.0047 27.3774 -2.37225 20.0047 27.3774 -2.37225
454 1 20.9296 28.9561 -0.653882 20.9296 28.9561 -0.653882
455 2 22.9223 28.9593 0.942658 22.9223 28.9593 0.942658
456 2 22.8592 28.9294 -2.34741 22.8592 28.9294 -2.34741
457 1 23.8081 27.2439 -0.822549 23.8081 27.2439 -0.822549
458 2 25.694 27.3003 0.990829 25.694 27.3003 0.990829
459 2 25.8303 27.2352 -2.23879 25.8303 27.2352 -2.23879
460 1 26.7409 28.9548 -0.586328 26.7409 28.9548 -0.586328
461 2 28.5975 28.9172 1.11831 28.5975 28.9172 1.11831
462 2 28.706 29.0057 -2.22647 28.706 29.0057 -2.22647
463 1 29.5578 27.2338 -0.597793 29.5578 27.2338 -0.597793
464 2 31.4379 27.411 1.14773 31.4379 27.411 1.14773
465 2 31.5071 27.2779 -2.19524 31.5071 27.2779 -2.19524
466 1 32.4389 29.0327 -0.667695 32.4389 29.0327 -0.667695
467 2 34.0747 29.0514 1.24233 34.0747 29.0514 1.24233
468 2 34.498 28.9527 -1.99213 34.498 28.9527 -1.99213
469 1 35.2666 27.3791 -0.24232 35.2666 27.3791 -0.24232
470 2 37.0475 27.5231 1.59699 37.0475 27.5231 1.59699
471 2 37.3005 27.3014 -1.71255 37.3005 27.3014 -1.71255
472 1 38.1364 29.0655 -0.147983 38.1364 29.0655 -0.147983
473 2 39.987 29.1212 1.51031 39.987 29.1212 1.51031
474 2 40.1099 29.0202 -1.67261 40.1099 29.0202 -1.67261
475 1 40.9461 27.3625 0.00902599 40.9461 27.3625 0.00902599
476 2 42.8172 27.464 1.68936 42.8172 27.464 1.68936
477 2 42.8378 27.062 -1.59916 42.8378 27.062 -1.59916
478 1 43.8928 28.946 -0.227796 43.8928 28.946 -0.227796
479 2 45.6837 29.1514 1.41071 45.6837 29.1514 1.41071
480 2 45.8018 28.8728 -1.80426 45.8018 28.8728 -1.80426
481 1 46.6963 27.3668 0.0142888 46.6963 27.3668 0.0142888
482 2 48.5278 27.6328 1.58346 48.5278 27.6328 1.58346
483 2 48.659 27.2873 -1.61719 48.659 27.2873 -1.61719
484 1 49.5432 29.0446 -0.0704559 49.5432 29.0446 -0.0704559
485 2 51.7794 29.1788 1.24709 51.7794 29.1788 1.24709
486 2 51.1882 28.9371 -1.96869 51.1882 28.9371 -1.96869
487 1 1.0284 30.6292 -0.650425 1.0284 30.6292 -0.650425
488 2 3.00446 30.7374 0.893529 3.00446 30.7374 0.893529
489 2 2.91613 30.6044 -2.30643 2.91613 30.6044 -2.30643
490 1 3.91754 32.3326 -0.793105 3.91754 32.3326 -0.793105
491 2 5.76029 32.4126 0.836498 5.76029 32.4126 0.836498
492 2 5.78459 32.1766 -2.38893 5.78459 32.1766 -2.38893
493 1 6.70296 30.6545 -0.714018 6.70296 30.6545 -0.714018
494 2 8.66154 30.5857 0.790166 8.66154 30.5857 0.790166
495 2 8.49654 30.7654 -2.45889 8.49654 30.7654 -2.45889
496 1 9.5964 32.4392 -0.863951 9.5964 32.4392 -0.863951
497 2 11.6584 32.4313 0.530881 11.6584 32.4313 0.530881
498 2 11.2192 32.1457 -2.75492 11.2192 32.1457 -2.75492
499 1 12.449 30.7135 -1.13456 12.449 30.7135 -1.13456
500 2 14.3383 30.6689 0.510467 14.3383 30.6689 0.510467
501 2 14.3566 30.6371 -2.71639 14.3566 30.6371 -2.71639
502 1 15.331 32.2875 -1.15939 15.331 32.2875 -1.15939
503 2 17.1025 32.3077 0.686345 17.1025 32.3077 0.686345
504 2 17.4373 32.0905 -2.5986 17.4373 32.0905 -2.5986
505 1 18.1659 30.5827 -0.78247 18.1659 30.5827 -0.78247
506 2 20.0422 30.7794 0.82711 20.0422 30.7794 0.82711
507 2 20.0767 30.4768 -2.38925 20.0767 30.4768 -2.38925
508 1 20.9422 32.2519 -0.936117 20.9422 32.2519 -0.936117
509 2 22.6819 32.3124 0.864096 22.6819 32.3124 0.864096
510 2 23.1661 32.3055 -2.30073 23.1661 32.3055 -2.30073
511 1 23.8201 30.616 -0.652043 23.8201 30.616 -0.652043
512 2 25.7241 30.4573 1.05423 25.7241 30.4573 1.05423
513 2 25.817 30.5759 -2.20346 25.817 30.5759 -2.20346
514 1 26.6838 32.2096 -0.632697 26.6838 32.2096 -0.632697
515 2 28.4883 32.1297 1.10734 28.4883 32.1297 1.10734
516 2 28.6223 32.2651 -2.23121 28.6223 32.2651 -2.23121
517 1 29.5563 30.5559 -0.58586 29.5563 30.5559 -0.58586
518 2 31.5686 30.6949 0.963234 31.5686 30.6949 0.963234
519 2 31.4689 30.6653 -2.2596 31.4689 30.6653 -2.2596
520 1 32.3554 32.3356 -0.685869 32.3554 32.3356 -0.685869
521 2 34.1863 32.4005 1.13156 34.1863 32.4005 1.13156
522 2 34.3576 32.1438 -2.13102 34.3576 32.1438 -2.13102
523 1 35.3274 30.5759 -0.300097 35.3274 30.5759 -0.300097
524 2 37.0874 30.7232 1.37559 37.0874 30.7232 1.37559
525 2 37.2922 30.5766 -1.92759 37.2922 30.5766 -1.92759
526 1 38.0519 32.304 -0.236473 38.0519 32.304 -0.236473
527 2 40.1271 32.4432 1.40648 40.1271 32.4432 1.40648
528 2 39.9736 32.257 -1.81202 39.9736 32.257 -1.81202
529 1 41.0704 30.7287 -0.0361704 41.0704 30.7287 -0.0361704
530 2 43.1544 30.6461 1.4802 43.1544 30.6461 1.4802
531 2 42.9789 30.6073 -1.73558 42.9789 30.6073 -1.73558
532 1 43.8576 32.2817 -0.104121 43.8576 32.2817 -0.104121
533 2 45.8767 32.3053 1.32805 45.8767 32.3053 1.32805
534 2 45.5725 32.2452 -1.9922 45.5725 32.2452 -1.9922
535 1 46.7463 30.6683 -0.387229 46.7463 30.6683 -0.387229
536 2 48.4712 30.8025 1.41443 48.4712 30.8025 1.41443
537 2 48.631 30.5638 -1.92659 48.631 30.5638 -1.92659
538 1 49.5525 32.291 -0.395104 49.5525 32.291 -0.395104
539 2 51.5315 32.1964 1.14745 51.5315 32.1964 1.14745
540 2 51.4124 32.4322 -2.03657 51.4124 32.4322 -2.03657