ITEM: TIMESTEP
41500
ITEM: NUMBER OF ATOMS
810
ITEM: BOX BOUNDS pp pp pp
8.1414576378459436e-01 5.2203459236216659e+01
7.8441751163224593e-01 5.0231797488366738e+01
-1.0000000000000000e+01 1.0000000000000000e+01
ITEM: ATOMS id type x y z xu yu zu
1 1 0.99393 0.87837 -0.557769 0.99393 0.87837 -0.557769
2 2 2.90427 0.872634 1.01216 2.90427 0.872634 1.01216
3 2 2.75601 1.01238 -2.29305 2.75601 1.01238 -2.29305
4 1 3.88404 2.52667 -0.529252 3.88404 2.52667 -0.529252
5 2 5.70508 2.77395 1.13267 5.70508 2.77395 1.13267
6 2 5.82385 2.72862 -2.16571 5.82385 2.72862 -2.16571
7 1 6.67676 1.05812 -0.512257 6.67676 1.05812 -0.512257
8 2 8.46707 0.942493 1.25656 8.46707 0.942493 1.25656
9 2 8.78352 1.14182 -1.87443 8.78352 1.14182 -1.87443
10 1 9.56273 2.73705 -0.0535353 9.56273 2.73705 -0.0535353
11 2 11.688 2.79104 1.4522 11.688 2.79104 1.4522
12 2 11.5252 2.48198 -1.80399 11.5252 2.48198 -1.80399
13 1 12.5186 0.996831 -0.0436048 12.5186 0.996831 -0.0436048
14 2 14.2464 1.10002 1.72488 14.2464 1.10002 1.72488
15 2 14.4721 1.0496 -1.51126 14.4721 1.0496 -1.51126
16 1 15.2804 2.72347 0.158134 15.2804 2.72347 0.158134
17 2 17.5092 2.68907 1.56764 17.5092 2.68907 1.56764
18 2 17.0493 2.68757 -1.62437 17.0493 2.68757 -1.62437
19 1 18.1839 1.03924 -0.0972405 18.1839 1.03924 -0.0972405
20 2 20.01 1.09929 1.47352 20.01 1.09929 1.47352
21 2 19.9433 1.03677 -1.83268 19.9433 1.03677 -1.83268
22 1 20.9426 2.68248 -0.293506 20.9426 2.68248 -0.293506
23 2 22.8537 2.705 1.40295 22.8537 2.705 1.40295
24 2 22.8772 2.74373 -1.91319 22.8772 2.74373 -1.91319
25 1 23.8067 0.99874 -0.271825 23.8067 0.99874 -0.271825
26 2 25.9594 1.04153 1.06971 25.9594 1.04153 1.06971
27 2 25.4982 0.996844 -2.12376 25.4982 0.996844 -2.12376
28 1 26.6201 2.59953 -0.660799 26.6201 2.59953 -0.660799
29 2 28.5562 2.49646 1.09746 28.5562 2.49646 1.09746
30 2 28.5627 2.73863 -2.26193 28.5627 2.73863 -2.26193
31 1 29.5659 1.03714 -0.709462 29.5659 1.03714 -0.709462
32 2 31.5372 0.948685 0.954126 31.5372 0.948685 0.954126
33 2 31.4518 1.04812 -2.34631 31.4518 1.04812 -2.34631
34 1 32.3236 2.67538 -0.642122 32.3236 2.67538 -0.642122
35 2 34.2991 2.83138 0.94424 34.2991 2.83138 0.94424
36 2 34.1931 2.65445 -2.31114 34.1931 2.65445 -2.31114
37 1 35.1668 1.09761 -0.772084 35.1668 1.09761 -0.772084
38 2 37.0664 1.22254 0.801546 37.0664 1.22254 0.801546
39 2 36.9806 0.818703 -2.44445 36.9806 0.818703 -2.44445
40 1 38.1045 2.61601 -1.0962 38.1045 2.61601 -1.0962
41 2 39.8608 2.75605 0.484142 39.8608 2.75605 0.484142
42 2 40.0894 2.59313 -2.70591 40.0894 2.59313 -2.70591
43 1 40.8865 1.07227 -1.02034 40.8865 1.07227 -1.02034
44 2 42.7581 50.5793 0.692601 42.7581 1.13194 0.692601
45 2 42.9474 0.934689 -2.57874 42.9474 0.934689 -2.57874
46 1 43.7758 2.63057 -0.919257 43.7758 2.63057 -0.919257
47 2 45.699 2.68157 0.679026 45.699 2.68157 0.679026
48 2 45.7641 2.52697 -2.59194 45.7641 2.52697 -2.59194
49 1 46.7535 0.98381 -0.823634 46.7535 0.98381 -0.823634
50 2 48.429 0.98895 1.07116 48.429 0.98895 1.07116
51 2 48.8198 0.762586 -2.31359 48.8198 0.762586 -2.31359
52 1 49.4857 2.50716 -0.659976 49.4857 2.50716 -0.659976
53 2 51.4435 2.52564 0.969803 51.4435 2.52564 0.969803
54 2 51.562 2.4999 -2.27366 51.562 2.4999 -2.27366
55 1 1.04236 4.1995 -0.695438 1.04236 4.1995 -0.695438
56 2 2.86794 4.20266 1.06348 2.86794 4.20266 1.06348
57 2 3.05867 4.18054 -2.28993 3.05867 4.18054 -2.28993
58 1 3.83088 5.91008 -0.590974 3.83088 5.91008 -0.590974
59 2 5.70868 5.80547 1.02126 5.70868 5.80547 1.02126
60 2 5.68812 5.97453 -2.22622 5.68812 5.97453 -2.22622
61 1 6.72881 4.30858 -0.581749 6.72881 4.30858 -0.581749
62 2 8.53187 4.60365 1.24656 8.53187 4.60365 1.24656
63 2 8.76289 4.18045 -1.97917 8.76289 4.18045 -1.97917
64 1 9.59024 6.01744 -0.519441 9.59024 6.01744 -0.519441
65 2 11.3314 5.9576 1.23705 11.3314 5.9576 1.23705
66 2 11.6292 5.99711 -2.09916 11.6292 5.99711 -2.09916
67 1 12.416 4.32887 -0.351509 12.416 4.32887 -0.351509
68 2 14.1336 4.44962 1.53295 14.1336 4.44962 1.53295
69 2 14.5471 4.17478 -1.72372 14.5471 4.17478 -1.72372
70 1 15.2472 5.93121 -0.169111 15.2472 5.93121 -0.169111
71 2 17.2602 6.11151 1.32073 17.2602 6.11151 1.32073
72 2 17.1704 5.96558 -1.9028 17.1704 5.96558 -1.9028
73 1 18.2235 4.35968 -0.206818 18.2235 4.35968 -0.206818
74 2 20.191 4.33748 1.3686 20.191 4.33748 1.3686
75 2 20.0627 4.35106 -1.85324 20.0627 4.35106 -1.85324
76 1 20.985 5.96287 -0.274385 20.985 5.96287 -0.274385
77 2 22.7705 6.10354 1.44518 22.7705 6.10354 1.44518
78 2 22.8455 5.90112 -1.87863 22.8455 5.90112 -1.87863
79 1 23.8258 4.33699 -0.229346 23.8258 4.33699 -0.229346
80 2 25.8417 4.06069 1.20691 25.8417 4.06069 1.20691
81 2 25.5389 4.53827 -2.0417 25.5389 4.53827 -2.0417
82 1 26.7178 5.94741 -0.356266 26.7178 5.94741 -0.356266
83 2 28.5435 5.71491 1.33388 28.5435 5.71491 1.33388
84 2 28.641 6.06443 -1.84386 28.641 6.06443 -1.84386
85 1 29.5297 4.26586 -0.444709 29.5297 4.26586 -0.444709
86 2 31.4881 4.35188 1.14528 31.4881 4.35188 1.14528
87 2 31.3372 4.34359 -2.1986 31.3372 4.34359 -2.1986
88 1 32.3738 5.96145 -0.54799 32.3738 5.96145 -0.54799
89 2 34.3239 5.7961 1.07147 34.3239 5.7961 1.07147
90 2 34.2903 6.30208 -2.12083 34.2903 6.30208 -2.12083
91 1 35.2386 4.39923 -0.803343 35.2386 4.39923 -0.803343
92 2 37.277 4.15342 0.732863 37.277 4.15342 0.732863
93 2 37.1587 4.50224 -2.50255 37.1587 4.50224 -2.50255
94 1 38.1042 5.9816 -0.793304 38.1042 5.9816 -0.793304
95 2 40.0794 5.97717 0.681725 40.0794 5.97717 0.681725
96 2 39.9367 6.04837 -2.52394 39.9367 6.04837 -2.52394
97 1 40.9825 4.35709 -1.03026 40.9825 4.35709 -1.03026
98 2 42.7854 4.33032 0.716282 42.7854 4.33032 0.716282
99 2 43.0971 4.32747 -2.65253 43.0971 4.32747 -2.65253
100 1 43.8628 6.00288 -0.887962 43.8628 6.00288 -0.887962
101 2 45.7616 5.75493 0.71459 45.7616 5.75493 0.71459
102 2 45.7469 6.09191 -2.54504 45.7469 6.09191 -2.54504
103 1 46.6517 4.25659 -1.04912 46.6517 4.25659 -1.04912
104 2 48.367 4.12791 0.875768 48.367 4.12791 0.875768
105 2 48.8117 4.17174 -2.4274 48.8117 4.17174 -2.4274
106 1 49.5634 5.77658 -0.649331 49.5634 5.77658 -0.649331
107 2 51.4499 5.82531 0.907711 51.4499 5.82531 0.907711
108 2 51.3552 5.74823 -2.32812 51.3552 5.74823 -2.32812
109 1 0.999658 7.43201 -0.78178 0.999658 7.43201 -0.78178
110 2 2.76657 7.5454 0.98336 2.76657 7.5454 0.98336
111 2 3.02405 7.36772 -2.28895 3.02405 7.36772 -2.28895
112 1 3.79721 9.25102 -0.641125 3.79721 9.25102 -0.641125
113 2 5.5708 9.15161 1.08979 5.5708 9.15161 1.08979
114 2 5.87774 9.24532 -2.13646 5.87774 9.24532 -2.13646
115 1 6.69455 7.56375 -0.531855 6.69455 7.56375 -0.531855
116 2 8.57603 7.69211 1.10006 8.57603 7.69211 1.10006
117 2 8.58217 7.56959 -2.15782 8.58217 7.56959 -2.15782
118 1 9.47843 9.26535 -0.570252 9.47843 9.26535 -0.570252
119 2 11.294 9.40918 1.15764 11.294 9.40918 1.15764
120 2 11.598 9.21998 -2.06753 11.598 9.21998 -2.06753
121 1 12.3777 7.56687 -0.374627 12.3777 7.56687 -0.374627
122 2 14.1551 7.68058 1.36867 14.1551 7.68058 1.36867
123 2 14.3931 7.448 -1.89188 14.3931 7.448 -1.89188
124 1 15.2776 9.19626 -0.252397 15.2776 9.19626 -0.252397
125 2 17.1839 9.16192 1.44326 17.1839 9.16192 1.44326
126 2 17.1895 9.21399 -1.91995 17.1895 9.21399 -1.91995
127 1 18.1025 7.68322 -0.28733 18.1025 7.68322 -0.28733
128 2 19.9793 7.52873 1.39056 19.9793 7.52873 1.39056
129 2 20.147 7.774 -1.79907 20.147 7.774 -1.79907
130 1 21.0371 9.20292 -0.0160783 21.0371 9.20292 -0.0160783
131 2 23.0631 9.11383 1.57545 23.0631 9.11383 1.57545
132 2 22.8268 9.25984 -1.72822 22.8268 9.25984 -1.72822
133 1 23.8653 7.59968 -0.19451 23.8653 7.59968 -0.19451
134 2 25.7744 7.44183 1.4148 25.7744 7.44183 1.4148
135 2 25.856 7.8713 -1.88793 25.856 7.8713 -1.88793
136 1 26.7691 9.2847 0.0986407 26.7691 9.2847 0.0986407
137 2 28.5428 9.17128 1.7399 28.5428 9.17128 1.7399
138 2 28.6671 9.04917 -1.55707 28.6671 9.04917 -1.55707
139 1 29.5596 7.49004 0.0801888 29.5596 7.49004 0.0801888
140 2 31.7103 7.387 1.35444 31.7103 7.387 1.35444
141 2 31.1467 7.63652 -1.8041 31.1467 7.63652 -1.8041
142 1 32.3744 9.25107 -0.300873 32.3744 9.25107 -0.300873
143 2 34.3089 9.34148 1.38405 34.3089 9.34148 1.38405
144 2 34.3536 9.17204 -1.91104 34.3536 9.17204 -1.91104
145 1 35.3387 7.59405 -0.201703 35.3387 7.59405 -0.201703
146 2 37.416 7.53249 1.13549 37.416 7.53249 1.13549
147 2 36.8488 7.68642 -2.16176 36.8488 7.68642 -2.16176
148 1 38.1348 9.1908 -0.581986 38.1348 9.1908 -0.581986
149 2 40.2708 9.11389 0.771402 40.2708 9.11389 0.771402
150 2 39.9006 9.34462 -2.38321 39.9006 9.34462 -2.38321
151 1 41.0312 7.64333 -0.988472 41.0312 7.64333 -0.988472
152 2 42.9233 7.47955 0.763594 42.9233 7.47955 0.763594
153 2 42.9334 7.71197 -2.50756 42.9334 7.71197 -2.50756
154 1 43.837 9.26342 -0.808602 43.837 9.26342 -0.808602
155 2 45.5654 9.09452 0.901431 45.5654 9.09452 0.901431
156 2 45.7593 9.19855 -2.37591 45.7593 9.19855 -2.37591
157 1 46.6504 7.50248 -0.707316 46.6504 7.50248 -0.707316
158 2 48.4733 7.4683 0.968658 48.4733 7.4683 0.968658
159 2 48.6802 7.48517 -2.23838 48.6802 7.48517 -2.23838
160 1 49.5341 9.19107 -0.545413 49.5341 9.19107 -0.545413
161 2 51.5097 9.19067 1.07651 51.5097 9.19067 1.07651
162 2 51.3829 9.26044 -2.27617 51.3829 9.26044 -2.27617
163 1 1.02662 10.8123 -0.594855 1.02662 10.8123 -0.594855
164 2 2.93686 10.7447 1.11899 2.93686 10.7447 1.11899
165 2 2.96973 10.8716 -2.24064 2.96973 10.8716 -2.24064
166 1 3.80491 12.5401 -0.510028 3.80491 12.5401 -0.510028
167 2 5.61334 12.5338 1.19557 5.61334 12.5338 1.19557
168 2 5.77662 12.5575 -2.07566 5.77662 12.5575 -2.07566
169 1 6.611 10.8831 -0.401511 6.611 10.8831 -0.401511
170 2 8.49995 10.743 1.12649 8.49995 10.743 1.12649
171 2 8.62781 11.0603 -2.04645 8.62781 11.0603 -2.04645
172 1 9.5225 12.5973 -0.305021 9.5225 12.5973 -0.305021
173 2 11.6263 12.5496 1.176 11.6263 12.5496 1.176
174 2 11.4596 12.4138 -2.00869 11.4596 12.4138 -2.00869
175 1 12.503 10.8394 -0.430396 12.503 10.8394 -0.430396
176 2 14.2263 10.8102 1.35549 14.2263 10.8102 1.35549
177 2 14.4236 10.934 -1.86234 14.4236 10.934 -1.86234
178 1 15.2944 12.5575 0.00273503 15.2944 12.5575 0.00273503
179 2 17.3043 12.5138 1.55788 17.3043 12.5138 1.55788
180 2 17.1369 12.5688 -1.78782 17.1369 12.5688 -1.78782
181 1 18.0881 10.7996 -0.279811 18.0881 10.7996 -0.279811
182 2 19.9457 10.8564 1.49462 19.9457 10.8564 1.49462
183 2 20.131 10.9674 -1.67593 20.131 10.9674 -1.67593
184 1 21.0031 12.4764 0.0490205 21.0031 12.4764 0.0490205
185 2 23.026 12.662 1.49585 23.026 12.662 1.49585
186 2 22.8498 12.3614 -1.72061 22.8498 12.3614 -1.72061
187 1 23.8739 10.7918 0.0264644 23.8739 10.7918 0.0264644
188 2 25.7248 10.8829 1.68929 25.7248 10.8829 1.68929
189 2 25.8731 10.8529 -1.58448 25.8731 10.8529 -1.58448
190 1 26.7058 12.5784 0.028986 26.7058 12.5784 0.028986
191 2 28.6241 12.5604 1.63423 28.6241 12.5604 1.63423
192 2 28.607 12.4969 -1.65181 28.607 12.4969 -1.65181
193 1 29.571 10.8989 0.0371739 29.571 10.8989 0.0371739
194 2 31.5547 10.8096 1.52403 31.5547 10.8096 1.52403
195 2 31.3206 11.0254 -1.72146 31.3206 11.0254 -1.72146
196 1 32.4116 12.5617 -0.0679653 32.4116 12.5617 -0.0679653
197 2 34.4484 12.7087 1.43237 34.4484 12.7087 1.43237
198 2 34.1041 12.5323 -1.9221 34.1041 12.5323 -1.9221
199 1 35.2086 10.9443 -0.296815 35.2086 10.9443 -0.296815
200 2 37.4216 10.8975 1.12534 37.4216 10.8975 1.12534
201 2 36.9951 10.8844 -2.13397 36.9951 10.8844 -2.13397
202 1 38.1036 12.5311 -0.720755 38.1036 12.5311 -0.720755
203 2 40.0332 12.3461 0.902688 40.0332 12.3461 0.902688
204 2 39.9624 12.8336 -2.34578 39.9624 12.8336 -2.34578
205 1 40.9265 10.9226 -0.895534 40.9265 10.9226 -0.895534
206 2 42.7942 10.7734 0.841542 42.7942 10.7734 0.841542
207 2 42.987 11.1504 -2.31964 42.987 11.1504 -2.31964
208 1 43.8532 12.5283 -0.571147 43.8532 12.5283 -0.571147
209 2 45.8653 12.4511 1.15363 45.8653 12.4511 1.15363
210 2 45.7771 12.4409 -2.15946 45.7771 12.4409 -2.15946
211 1 46.777 10.8238 -0.585564 46.777 10.8238 -0.585564
212 2 48.6317 10.8173 1.1089 48.6317 10.8173 1.1089
213 2 48.7603 11.0011 -2.0992 48.7603 11.0011 -2.0992
214 1 49.6385 12.5642 -0.340154 49.6385 12.5642 -0.340154
215 2 51.7446 12.6273 1.00422 51.7446 12.6273 1.00422
216 2 51.3045 12.4808 -2.1568 51.3045 12.4808 -2.1568
217 1 1.02902 14.1699 -0.734863 1.02902 14.1699 -0.734863
218 2 2.92665 14.3891 0.934463 2.92665 14.3891 0.934463
219 2 3.00287 14.0101 -2.28985 3.00287 14.0101 -2.28985
220 1 3.83641 15.8839 -0.766463 3.83641 15.8839 -0.766463
221 2 5.69598 15.842 1.0433 5.69598 15.842 1.0433
222 2 5.89829 15.722 -2.09346 5.89829 15.722 -2.09346
223 1 6.73107 14.1376 -0.371721 6.73107 14.1376 -0.371721
224 2 8.4494 14.131 1.39854 8.4494 14.131 1.39854
225 2 8.68636 14.3368 -1.95506 8.68636 14.3368 -1.95506
226 1 9.50425 15.8293 -0.274476 9.50425 15.8293 -0.274476
227 2 11.5537 15.637 1.29919 11.5537 15.637 1.29919
228 2 11.4229 15.9464 -1.87349 11.4229 15.9464 -1.87349
229 1 12.4911 14.1207 -0.445779 12.4911 14.1207 -0.445779
230 2 14.2169 14.3243 1.44149 14.2169 14.3243 1.44149
231 2 14.5504 13.9908 -1.8032 14.5504 13.9908 -1.8032
232 1 15.3034 15.7604 -0.207986 15.3034 15.7604 -0.207986
233 2 17.1246 15.7111 1.49684 17.1246 15.7111 1.49684
234 2 17.361 15.803 -1.7518 17.361 15.803 -1.7518
235 1 18.1363 14.0882 -0.103467 18.1363 14.0882 -0.103467
236 2 20.0276 14.2363 1.62106 20.0276 14.2363 1.62106
237 2 20.103 14.0673 -1.58312 20.103 14.0673 -1.58312
238 1 20.9971 15.8827 0.0107898 20.9971 15.8827 0.0107898
239 2 23.0627 15.7054 1.44616 23.0627 15.7054 1.44616
240 2 22.837 15.9152 -1.7533 22.837 15.9152 -1.7533
241 1 23.8826 14.1374 -0.36526 23.8826 14.1374 -0.36526
242 2 25.6663 14.2752 1.50495 25.6663 14.2752 1.50495
243 2 25.8992 14.1432 -1.73844 25.8992 14.1432 -1.73844
244 1 26.6454 15.8517 -0.101767 26.6454 15.8517 -0.101767
245 2 28.5062 15.6557 1.6483 28.5062 15.6557 1.6483
246 2 28.6392 15.953 -1.5922 28.6392 15.953 -1.5922
247 1 29.5571 14.2405 -0.116278 29.5571 14.2405 -0.116278
248 2 31.3634 14.1402 1.543 31.3634 14.1402 1.543
249 2 31.5064 14.2943 -1.77466 31.5064 14.2943 -1.77466
250 1 32.4381 15.8203 0.0188406 32.4381 15.8203 0.0188406
251 2 34.5751 15.7159 1.50238 34.5751 15.7159 1.50238
252 2 34.2743 16.0193 -1.76421 34.2743 16.0193 -1.76421
253 1 35.2871 14.2021 -0.383694 35.2871 14.2021 -0.383694
254 2 37.2014 14.1839 1.13607 37.2014 14.1839 1.13607
255 2 37.1389 14.3949 -2.14268 37.1389 14.3949 -2.14268
256 1 38.1523 15.84 -0.514769 38.1523 15.84 -0.514769
257 2 40.0597 15.78 1.08244 40.0597 15.78 1.08244
258 2 40.0629 15.9349 -2.21303 40.0629 15.9349 -2.21303
259 1 40.8943 14.2184 -0.614621 40.8943 14.2184 -0.614621
260 2 42.8012 14.112 1.08257 42.8012 14.112 1.08257
261 2 42.9705 14.2286 -2.15774 42.9705 14.2286 -2.15774
262 1 43.7508 15.8188 -0.500494 43.7508 15.8188 -0.500494
263 2 45.7315 15.8616 1.07252 45.7315 15.8616 1.07252
264 2 45.8008 15.7843 -2.10532 45.8008 15.7843 -2.10532
265 1 46.7235 14.1443 -0.458121 46.7235 14.1443 -0.458121
266 2 48.6086 14.3474 1.0913 48.6086 14.3474 1.0913
267 2 48.5953 13.9916 -2.05738 48.5953 13.9916 -2.05738
268 1 49.5672 15.8184 -0.709561 49.5672 15.8184 -0.709561
269 2 51.4793 15.7882 0.891336 51.4793 15.7882 0.891336
270 2 51.2893 15.9187 -2.36288 51.2893 15.9187 -2.36288
271 1 0.926728 17.4262 -0.770682 0.926728 17.4262 -0.770682
272 2 2.96881 17.5251 0.862547 2.96881 17.5251 0.862547
273 2 2.76514 17.5259 -2.38822 2.76514 17.5259 -2.38822
274 1 3.80923 19.1543 -0.821131 3.80923 19.1543 -0.821131
275 2 5.67136 19.1236 0.980355 5.67136 19.1236 0.980355
276 2 5.89917 19.1003 -2.18733 5.89917 19.1003 -2.18733
277 1 6.75929 17.5086 -0.564747 6.75929 17.5086 -0.564747
278 2 8.42153 17.5807 1.23638 8.42153 17.5807 1.23638
279 2 8.78279 17.4971 -1.97515 8.78279 17.4971 -1.97515
280 1 9.5812 19.1522 -0.321089 9.5812 19.1522 -0.321089
281 2 11.3593 18.9876 1.40569 11.3593 18.9876 1.40569
282 2 11.6582 19.0723 -1.83652 11.6582 19.0723 -1.83652
283 1 12.4109 17.459 -0.204403 12.4109 17.459 -0.204403
284 2 14.3612 17.4492 1.45214 14.3612 17.4492 1.45214
285 2 14.2847 17.3318 -1.84607 14.2847 17.3318 -1.84607
286 1 15.3011 19.047 -0.193225 15.3011 19.047 -0.193225
287 2 17.1419 19.1696 1.49663 17.1419 19.1696 1.49663
288 2 17.3506 18.8519 -1.70836 17.3506 18.8519 -1.70836
289 1 18.1939 17.461 0.0107296 18.1939 17.461 0.0107296
290 2 20.1214 17.5321 1.59787 20.1214 17.5321 1.59787
291 2 20.0583 17.5597 -1.65681 20.0583 17.5597 -1.65681
292 1 21.0326 19.2439 -0.100125 21.0326 19.2439 -0.100125
293 2 22.6538 18.9233 1.69262 22.6538 18.9233 1.69262
294 2 23.0898 19.4037 -1.56751 23.0898 19.4037 -1.56751
295 1 23.9162 17.5408 -0.0526927 23.9162 17.5408 -0.0526927
296 2 25.7032 17.4752 1.60072 25.7032 17.4752 1.60072
297 2 25.7653 17.6445 -1.65236 25.7653 17.6445 -1.65236
298 1 26.7209 19.1604 0.0742671 26.7209 19.1604 0.0742671
299 2 28.4317 18.9711 1.92621 28.4317 18.9711 1.92621
300 2 28.7142 19.2622 -1.3608 28.7142 19.2622 -1.3608
301 1 29.5331 17.4624 0.20258 29.5331 17.4624 0.20258
302 2 31.5598 17.4137 1.6461 31.5598 17.4137 1.6461
303 2 31.391 17.3851 -1.52535 31.391 17.3851 -1.52535
304 1 32.4676 19.1003 0.0731742 32.4676 19.1003 0.0731742
305 2 34.3436 19.1471 1.70425 34.3436 19.1471 1.70425
306 2 34.2309 19.0679 -1.62548 34.2309 19.0679 -1.62548
307 1 35.303 17.4674 0.0126882 35.303 17.4674 0.0126882
308 2 37.382 17.4287 1.37298 37.382 17.4287 1.37298
309 2 37.0234 17.582 -1.93061 37.0234 17.582 -1.93061
310 1 38.1441 19.0462 -0.31801 38.1441 19.0462 -0.31801
311 2 40.1032 18.9429 1.37584 40.1032 18.9429 1.37584
312 2 39.8946 19.125 -1.97171 39.8946 19.125 -1.97171
313 1 40.9504 17.5149 -0.441012 40.9504 17.5149 -0.441012
314 2 42.8446 17.4289 1.16681 42.8446 17.4289 1.16681
315 2 42.9587 17.5278 -2.12973 42.9587 17.5278 -2.12973
316 1 43.8243 19.0794 -0.469325 43.8243 19.0794 -0.469325
317 2 45.7832 19.1349 1.12395 45.7832 19.1349 1.12395
318 2 45.6463 18.9408 -2.16711 45.6463 18.9408 -2.16711
319 1 46.7166 17.4657 -0.515072 46.7166 17.4657 -0.515072
320 2 48.6208 17.5229 0.980631 48.6208 17.5229 0.980631
321 2 48.5631 17.3456 -2.30886 48.5631 17.3456 -2.30886
322 1 49.5419 19.0957 -0.734041 49.5419 19.0957 -0.734041
323 2 51.4724 19.1356 0.916707 51.4724 19.1356 0.916707
324 2 51.4841 19.1926 -2.46446 51.4841 19.1926 -2.46446
325 1 1.03772 20.8239 -0.804793 1.03772 20.8239 -0.804793
326 2 2.75531 20.6824 0.894871 2.75531 20.6824 0.894871
327 2 3.08746 20.9188 -2.32585 3.08746 20.9188 -2.32585
328 1 3.96595 22.3435 -0.507259 3.96595 22.3435 -0.507259
329 2 5.68097 22.0938 1.24211 5.68097 22.0938 1.24211
330 2 6.01114 22.6797 -1.90072 6.01114 22.6797 -1.90072
331 1 6.76853 20.8197 -0.571779 6.76853 20.8197 -0.571779
332 2 8.29994 20.6873 1.26435 8.29994 20.6873 1.26435
333 2 8.85773 20.9132 -2.01919 8.85773 20.9132 -2.01919
334 1 9.54352 22.454 -0.112889 9.54352 22.454 -0.112889
335 2 11.4042 22.2186 1.63864 11.4042 22.2186 1.63864
336 2 11.5861 22.6781 -1.52256 11.5861 22.6781 -1.52256
337 1 12.4036 20.6867 -0.0843977 12.4036 20.6867 -0.0843977
338 2 14.2899 20.6159 1.53199 14.2899 20.6159 1.53199
339 2 14.1871 20.766 -1.74326 14.1871 20.766 -1.74326
340 1 15.2544 22.3852 -0.0668105 15.2544 22.3852 -0.0668105
341 2 17.1791 22.1848 1.47805 17.1791 22.1848 1.47805
342 2 17.0794 22.5313 -1.74071 17.0794 22.5313 -1.74071
343 1 18.0994 20.7528 -0.219873 18.0994 20.7528 -0.219873
344 2 19.8484 20.6746 1.55525 19.8484 20.6746 1.55525
345 2 20.0543 21.0294 -1.65154 20.0543 21.0294 -1.65154
346 1 20.9322 22.4862 0.19059 20.9322 22.4862 0.19059
347 2 22.6479 22.2243 2.10698 22.6479 22.2243 2.10698
348 2 22.9477 22.6096 -1.21425 22.9477 22.6096 -1.21425
349 1 23.7744 20.854 0.389096 23.7744 20.854 0.389096
350 2 25.5857 20.6593 1.92528 25.5857 20.6593 1.92528
351 2 25.6671 21.101 -1.27352 25.6671 21.101 -1.27352
352 1 26.6714 22.4853 0.536628 26.6714 22.4853 0.536628
353 2 28.515 22.2781 2.19061 28.515 22.2781 2.19061
354 2 28.5798 22.5729 -1.02089 28.5798 22.5729 -1.02089
355 1 29.534 20.7924 0.355973 29.534 20.7924 0.355973
356 2 31.6098 20.5031 1.95702 31.6098 20.5031 1.95702
357 2 31.4466 20.936 -1.32682 31.4466 20.936 -1.32682
358 1 32.4967 22.3959 0.474093 32.4967 22.3959 0.474093
359 2 34.4807 22.2359 1.88904 34.4807 22.2359 1.88904
360 2 34.2962 22.5845 -1.318 34.2962 22.5845 -1.318
361 1 35.229 20.7249 -0.0501514 35.229 20.7249 -0.0501514
362 2 37.2963 20.6702 1.48263 37.2963 20.6702 1.48263
363 2 37.0397 20.8085 -1.81273 37.0397 20.8085 -1.81273
364 1 38.1495 22.3967 -0.0816178 38.1495 22.3967 -0.0816178
365 2 40.0802 22.2139 1.55148 40.0802 22.2139 1.55148
366 2 40.1179 22.4705 -1.68414 40.1179 22.4705 -1.68414
367 1 40.9588 20.7148 -0.226303 40.9588 20.7148 -0.226303
368 2 42.9875 20.7096 1.29551 42.9875 20.7096 1.29551
369 2 42.7366 20.8836 -1.95233 42.7366 20.8836 -1.95233
370 1 43.7715 22.4611 -0.238874 43.7715 22.4611 -0.238874
371 2 45.7998 22.3163 1.19231 45.7998 22.3163 1.19231
372 2 45.5651 22.4925 -1.93924 45.5651 22.4925 -1.93924
373 1 46.63 20.7394 -0.645914 46.63 20.7394 -0.645914
374 2 48.6613 20.7823 0.982385 48.6613 20.7823 0.982385
375 2 48.5096 20.685 -2.34569 48.5096 20.685 -2.34569
376 1 49.5323 22.3747 -0.836326 49.5323 22.3747 -0.836326
377 2 51.4015 22.3382 0.845918 51.4015 22.3382 0.845918
378 2 51.4585 22.5289 -2.41621 51.4585 22.5289 -2.41621
379 1 1.01503 24.1104 -0.684062 1.01503 24.1104 -0.684062
380 2 2.7276 24.0088 1.15656 2.7276 24.0088 1.15656
381 2 3.12129 24.1947 -2.10154 3.12129 24.1947 -2.10154
382 1 3.85837 25.7869 -0.225799 3.85837 25.7869 -0.225799
383 2 5.47985 25.6835 1.61121 5.47985 25.6835 1.61121
384 2 5.86417 25.737 -1.69103 5.86417 25.737 -1.69103
385 1 6.68477 24.0639 0.0338313 6.68477 24.0639 0.0338313
386 2 8.65359 23.9414 1.6184 8.65359 23.9414 1.6184
387 2 8.496 24.221 -1.65515 8.496 24.221 -1.65515
388 1 9.59853 25.7169 0.122801 9.59853 25.7169 0.122801
389 2 11.436 25.7958 1.82225 11.436 25.7958 1.82225
390 2 11.5771 25.73 -1.35935 11.5771 25.73 -1.35935
391 1 12.4834 24.0202 0.315494 12.4834 24.0202 0.315494
392 2 14.4736 23.835 1.86256 14.4736 23.835 1.86256
393 2 14.3693 24.3025 -1.45756 14.3693 24.3025 -1.45756
394 1 15.2989 25.7702 0.34635 15.2989 25.7702 0.34635
395 2 17.2507 25.4993 1.99318 17.2507 25.4993 1.99318
396 2 17.2537 25.921 -1.30498 17.2537 25.921 -1.30498
397 1 18.1504 24.0728 0.141716 18.1504 24.0728 0.141716
398 2 19.8262 23.8337 1.98396 19.8262 23.8337 1.98396
399 2 20.1687 24.2956 -1.23671 20.1687 24.2956 -1.23671
400 1 20.9864 25.7514 0.759009 20.9864 25.7514 0.759009
401 2 22.8687 25.6457 2.43785 22.8687 25.6457 2.43785
402 2 22.8861 25.7789 -0.843955 22.8861 25.7789 -0.843955
403 1 23.7117 24.0595 0.667926 23.7117 24.0595 0.667926
404 2 25.9079 23.9951 2.25223 25.9079 23.9951 2.25223
405 2 25.6929 24.1557 -1.01346 25.6929 24.1557 -1.01346
406 1 26.6469 25.8422 0.565698 26.6469 25.8422 0.565698
407 2 28.5148 25.8138 2.29574 28.5148 25.8138 2.29574
408 2 28.6384 25.7661 -0.946624 28.6384 25.7661 -0.946624
409 1 29.5241 24.0624 0.730855 29.5241 24.0624 0.730855
410 2 31.6254 23.9275 2.19597 31.6254 23.9275 2.19597
411 2 31.3809 24.1294 -1.0913 31.3809 24.1294 -1.0913
412 1 32.4689 25.7252 0.440247 32.4689 25.7252 0.440247
413 2 34.2687 25.7084 2.21394 34.2687 25.7084 2.21394
414 2 34.5013 25.8162 -1.12973 34.5013 25.8162 -1.12973
415 1 35.2355 24.1377 0.458825 35.2355 24.1377 0.458825
416 2 37.3801 23.7454 1.83803 37.3801 23.7454 1.83803
417 2 37.0297 24.2475 -1.45498 37.0297 24.2475 -1.45498
418 1 38.1223 25.6757 0.318874 38.1223 25.6757 0.318874
419 2 40.2597 25.6944 1.72194 40.2597 25.6944 1.72194
420 2 39.9457 25.5621 -1.50415 39.9457 25.5621 -1.50415
421 1 40.926 23.9885 -0.000895629 40.926 23.9885 -0.000895629
422 2 43.0233 24.0898 1.4701 43.0233 24.0898 1.4701
423 2 42.8166 24.1699 -1.78422 42.8166 24.1699 -1.78422
424 1 43.8429 25.7236 -0.0645693 43.8429 25.7236 -0.0645693
425 2 45.7984 25.7571 1.39247 45.7984 25.7571 1.39247
426 2 45.6198 25.7195 -1.79845 45.6198 25.7195 -1.79845
427 1 46.7073 24.0623 -0.295611 46.7073 24.0623 -0.295611
428 2 48.8967 23.9711 1.13565 48.8967 23.9711 1.13565
429 2 48.4108 24.2279 -2.17737 48.4108 24.2279 -2.17737
430 1 49.524 25.7207 -0.419898 49.524 25.7207 -0.419898
431 2 51.3415 25.5212 1.25526 51.3415 25.5212 1.25526
432 2 51.3979 25.9924 -2.0314 51.3979 25.9924 -2.0314
433 1 0.954746 27.3936 -0.175508 0.954746 27.3936 -0.175508
434 2 2.81525 27.2997 1.50459 2.81525 27.2997 1.50459
435 2 2.95182 27.4931 -1.77844 2.95182 27.4931 -1.77844
436 1 3.81221 29.1112 0.0148805 3.81221 29.1112 0.0148805
437 2 5.78832 28.9633 1.76414 5.78832 28.9633 1.76414
438 2 5.85673 29.0191 -1.53298 5.85673 29.0191 -1.53298
439 1 6.64188 27.2819 0.0952413 6.64188 27.2819 0.0952413
440 2 8.49847 27.0685 1.9273 8.49847 27.0685 1.9273
441 2 8.68016 27.6217 -1.35166 8.68016 27.6217 -1.35166
442 1 9.50928 28.9659 0.537699 9.50928 28.9659 0.537699
443 2 11.6128 28.9296 2.01032 11.6128 28.9296 2.01032
444 2 11.4835 29.2392 -1.19499 11.4835 29.2392 -1.19499
445 1 12.4057 27.3939 0.216702 12.4057 27.3939 0.216702
446 2 14.1389 27.2557 2.00958 14.1389 27.2557 2.00958
447 2 14.4474 27.6058 -1.14179 14.4474 27.6058 -1.14179
448 1 15.3153 29.0833 0.658796 15.3153 29.0833 0.658796
449 2 17.1938 28.9309 2.32485 17.1938 28.9309 2.32485
450 2 17.2418 29.1656 -0.96697 17.2418 29.1656 -0.96697
451 1 18.21 27.3819 0.618573 18.21 27.3819 0.618573
452 2 20.0752 27.5003 2.26226 20.0752 27.5003 2.26226
453 2 20.1125 27.3797 -0.991895 20.1125 27.3797 -0.991895
454 1 21.1013 29.0486 0.515643 21.1013 29.0486 0.515643
455 2 22.8162 29.1357 2.30879 22.8162 29.1357 2.30879
456 2 23.1048 28.9529 -0.96067 23.1048 28.9529 -0.96067
457 1 23.9169 27.3771 0.848344 23.9169 27.3771 0.848344
458 2 25.8757 27.3659 2.29408 25.8757 27.3659 2.29408
459 2 25.6173 27.4749 -0.904919 25.6173 27.4749 -0.904919
460 1 26.7974 29.045 0.625183 26.7974 29.045 0.625183
461 2 28.7902 29.1934 2.23349 28.7902 29.1934 2.23349
462 2 28.631 29.0012 -1.07077 28.631 29.0012 -1.07077
463 1 29.6572 27.447 0.693722 29.6572 27.447 0.693722
464 2 31.6571 27.3785 2.18936 31.6571 27.3785 2.18936
465 2 31.4294 27.4399 -1.04306 31.4294 27.4399 -1.04306
466 1 32.4574 29.0195 0.540839 32.4574 29.0195 0.540839
467 2 34.3581 29.1753 2.26791 34.3581 29.1753 2.26791
468 2 34.3146 28.9682 -1.13337 34.3146 28.9682 -1.13337
469 1 35.2812 27.3943 0.666685 35.2812 27.3943 0.666685
470 2 37.4733 27.3507 2.02476 37.4733 27.3507 2.02476
471 2 37.0362 27.47 -1.12947 37.0362 27.47 -1.12947
472 1 38.1403 29.0815 0.472007 38.1403 29.0815 0.472007
473 2 40.2468 28.8556 1.88621 40.2468 28.8556 1.88621
474 2 39.8995 29.1077 -1.37315 39.8995 29.1077 -1.37315
475 1 41.0019 27.356 0.0280356 41.0019 27.356 0.0280356
476 2 42.8767 27.3249 1.62247 42.8767 27.3249 1.62247
477 2 42.822 27.4104 -1.68208 42.822 27.4104 -1.68208
478 1 43.8781 28.9873 0.0245259 43.8781 28.9873 0.0245259
479 2 45.8316 28.969 1.565 45.8316 28.969 1.565
480 2 45.7012 29.0509 -1.72033 45.7012 29.0509 -1.72033
481 1 46.6814 27.3667 -0.17153 46.6814 27.3667 -0.17153
482 2 48.5653 27.3643 1.34694 48.5653 27.3643 1.34694
483 2 48.5412 27.5688 -1.87665 48.5412 27.5688 -1.87665
484 1 49.622 29.0216 -0.0999409 49.622 29.0216 -0.0999409
485 2 51.6093 28.9365 1.57155 51.6093 28.9365 1.57155
486 2 51.4831 29.187 -1.71097 51.4831 29.187 -1.71097
487 1 1.05547 30.6852 -0.0260752 1.05547 30.6852 -0.0260752
488 2 2.95223 30.7709 1.62252 2.95223 30.7709 1.62252
489 2 2.92961 30.6092 -1.65781 2.92961 30.6092 -1.65781
490 1 3.8779 32.2742 -0.10646 3.8779 32.2742 -0.10646
491 2 5.73078 32.4162 1.59072 5.73078 32.4162 1.59072
492 2 5.82768 32.2011 -1.7362 5.82768 32.2011 -1.7362
493 1 6.75279 30.7098 0.153853 6.75279 30.7098 0.153853
494 2 8.57614 30.7399 1.88982 8.57614 30.7399 1.88982
495 2 8.81736 30.6102 -1.21784 8.81736 30.6102 -1.21784
496 1 9.57805 32.3633 0.364351 9.57805 32.3633 0.364351
497 2 11.4627 32.3887 2.06345 11.4627 32.3887 2.06345
498 2 11.5361 32.3475 -1.17396 11.5361 32.3475 -1.17396
499 1 12.4357 30.6912 0.521837 12.4357 30.6912 0.521837
500 2 14.4136 30.7065 2.17163 14.4136 30.7065 2.17163
501 2 14.4072 30.6868 -1.06501 14.4072 30.6868 -1.06501
502 1 15.2548 32.3694 0.528453 15.2548 32.3694 0.528453
503 2 17.1023 32.5682 2.22902 17.1023 32.5682 2.22902
504 2 17.1803 32.229 -0.991954 17.1803 32.229 -0.991954
505 1 18.1403 30.6666 0.772087 18.1403 30.6666 0.772087
506 2 20.2127 30.763 2.31154 20.2127 30.763 2.31154
507 2 19.9514 30.6787 -1.0491 19.9514 30.6787 -1.0491
508 1 20.9858 32.357 0.536761 20.9858 32.357 0.536761
509 2 22.8694 32.3671 2.27578 22.8694 32.3671 2.27578
510 2 22.9877 32.2657 -0.882541 22.9877 32.2657 -0.882541
511 1 23.883 30.6553 0.726598 23.883 30.6553 0.726598
512 2 25.7731 30.7532 2.29965 25.7731 30.7532 2.29965
513 2 25.7159 30.5256 -0.994335 25.7159 30.5256 -0.994335
514 1 26.7398 32.2901 0.452721 26.7398 32.2901 0.452721
515 2 28.7948 32.4042 2.02636 28.7948 32.4042 2.02636
516 2 28.5944 32.2851 -1.23104 28.5944 32.2851 -1.23104
517 1 29.6584 30.7451 0.454599 29.6584 30.7451 0.454599
518 2 31.5908 30.7694 2.16615 31.5908 30.7694 2.16615
519 2 31.5997 30.6379 -1.13767 31.5997 30.6379 -1.13767
520 1 32.5084 32.3521 0.516574 32.5084 32.3521 0.516574
521 2 34.3795 32.5077 2.09712 34.3795 32.5077 2.09712
522 2 34.3439 32.166 -1.1856 34.3439 32.166 -1.1856
523 1 35.3325 30.6813 0.53797 35.3325 30.6813 0.53797
524 2 37.3348 30.9448 2.0044 37.3348 30.9448 2.0044
525 2 37.0715 30.6421 -1.20766 37.0715 30.6421 -1.20766
526 1 38.0716 32.3724 0.202327 38.0716 32.3724 0.202327
527 2 40.017 32.3496 1.83043 40.017 32.3496 1.83043
528 2 39.9544 32.2553 -1.4006 39.9544 32.2553 -1.4006
529 1 40.9529 30.7156 0.270906 40.9529 30.7156 0.270906
530 2 42.9931 30.6805 1.70136 42.9931 30.6805 1.70136
531 2 42.7274 30.6378 -1.54216 42.7274 30.6378 -1.54216
532 1 43.9312 32.3344 -0.0644375 43.9312 32.3344 -0.0644375
533 2 45.7661 32.2144 1.63787 45.7661 32.2144 1.63787
534 2 45.8749 32.3069 -1.62919 45.8749 32.3069 -1.62919
535 1 46.7785 30.6135 1.38493e-05 46.7785 30.6135 1.38493e-05
536 2 48.7002 30.692 1.48616 48.7002 30.692 1.48616
537 2 48.6286 30.5182 -1.77217 48.6286 30.5182 -1.77217
538 1 49.5593 32.2642 -0.252791 49.5593 32.2642 -0.252791