ITEM: TIMESTEP
31700
ITEM: NUMBER OF ATOMS
810
ITEM: BOX BOUNDS pp pp pp
7.5681207530088701e-01 5.2260792924699992e+01
8.1275381754609544e-01 5.0203461182453296e+01
-1.0000000000000000e+01 1.0000000000000000e+01
ITEM: ATOMS id type x y z xu yu zu
1 1 1.02659 0.928782 0.812014 1.02659 0.928782 0.812014
2 2 3.16716 0.887779 2.27801 3.16716 0.887779 2.27801
3 2 2.75808 0.863781 -1.06323 2.75808 0.863781 -1.06323
4 1 3.85836 2.57749 0.542663 3.85836 2.57749 0.542663
5 2 5.91379 2.57721 2.16132 5.91379 2.57721 2.16132
6 2 5.6507 2.65391 -1.15441 5.6507 2.65391 -1.15441
7 1 6.72003 1.0134 0.411828 6.72003 1.0134 0.411828
8 2 8.73789 0.885076 1.82369 8.73789 0.885076 1.82369
9 2 8.45759 1.1372 -1.50645 8.45759 1.1372 -1.50645
10 1 9.51199 2.64527 0.147461 9.51199 2.64527 0.147461
11 2 11.5663 2.47708 1.60963 11.5663 2.47708 1.60963
12 2 11.1884 2.87234 -1.6375 11.1884 2.87234 -1.6375
13 1 12.3771 1.07036 -0.384086 12.3771 1.07036 -0.384086
14 2 14.3086 0.897307 1.25052 14.3086 0.897307 1.25052
15 2 14.3333 1.35351 -1.95144 14.3333 1.35351 -1.95144
16 1 15.3569 2.703 -0.106953 15.3569 2.703 -0.106953
17 2 17.3206 2.71755 1.39546 17.3206 2.71755 1.39546
18 2 17.2003 2.84464 -1.81774 17.2003 2.84464 -1.81774
19 1 18.2433 1.12903 -0.36957 18.2433 1.12903 -0.36957
20 2 20.1092 0.85541 1.28833 20.1092 0.85541 1.28833
21 2 20.0981 1.32598 -1.92221 20.0981 1.32598 -1.92221
22 1 21.0279 2.65358 -0.0959495 21.0279 2.65358 -0.0959495
23 2 23.0181 2.4049 1.40969 23.0181 2.4049 1.40969
24 2 22.7929 2.86193 -1.85344 22.7929 2.86193 -1.85344
25 1 23.8965 1.12952 -0.491365 23.8965 1.12952 -0.491365
26 2 25.8126 0.959999 1.30465 25.8126 0.959999 1.30465
27 2 25.8502 1.16866 -2.09222 25.8502 1.16866 -2.09222
28 1 26.7796 2.71144 -0.164026 26.7796 2.71144 -0.164026
29 2 28.6791 2.44136 1.50322 28.6791 2.44136 1.50322
30 2 28.6316 2.88559 -1.70526 28.6316 2.88559 -1.70526
31 1 29.5648 0.944963 -0.266555 29.5648 0.944963 -0.266555
32 2 31.4652 50.2711 1.37421 31.4652 0.880412 1.37421
33 2 31.3407 1.22681 -1.95354 31.3407 1.22681 -1.95354
34 1 32.3627 2.75192 -0.134004 32.3627 2.75192 -0.134004
35 2 34.1228 2.52546 1.74328 34.1228 2.52546 1.74328
36 2 34.3048 2.95163 -1.55594 34.3048 2.95163 -1.55594
37 1 35.1412 1.12661 0.060682 35.1412 1.12661 0.060682
38 2 36.9933 50.36 1.76312 36.9933 0.96931 1.76312
39 2 37.2676 1.24481 -1.36673 37.2676 1.24481 -1.36673
40 1 38.1451 2.69495 0.438875 38.1451 2.69495 0.438875
41 2 40.0665 2.47778 2.15002 40.0665 2.47778 2.15002
42 2 39.9703 2.83471 -1.22353 39.9703 2.83471 -1.22353
43 1 41.044 1.01797 0.368831 41.044 1.01797 0.368831
44 2 42.8845 0.939891 1.95788 42.8845 0.939891 1.95788
45 2 42.9582 1.08982 -1.2645 42.9582 1.08982 -1.2645
46 1 43.917 2.67337 0.462244 43.917 2.67337 0.462244
47 2 45.6278 2.50366 2.32231 45.6278 2.50366 2.32231
48 2 45.9458 2.67363 -0.905811 45.9458 2.67363 -0.905811
49 1 46.7756 0.932468 0.751718 46.7756 0.932468 0.751718
50 2 48.6797 0.797383 2.41326 48.6797 0.797383 2.41326
51 2 48.6488 1.07133 -0.916113 48.6488 1.07133 -0.916113
52 1 49.6841 2.62842 0.814557 49.6841 2.62842 0.814557
53 2 51.5791 2.73127 2.38364 51.5791 2.73127 2.38364
54 2 51.5139 2.49221 -0.917217 51.5139 2.49221 -0.917217
55 1 0.962158 4.2653 0.524778 0.962158 4.2653 0.524778
56 2 2.87436 4.18158 2.11005 2.87436 4.18158 2.11005
57 2 2.82188 4.27974 -1.11 2.82188 4.27974 -1.11
58 1 3.74077 5.92447 0.594618 3.74077 5.92447 0.594618
59 2 5.80152 6.01485 2.22104 5.80152 6.01485 2.22104
60 2 5.66991 5.92277 -1.15678 5.66991 5.92277 -1.15678
61 1 6.63033 4.33123 0.504101 6.63033 4.33123 0.504101
62 2 8.60019 4.23373 1.97772 8.60019 4.23373 1.97772
63 2 8.45054 4.38939 -1.30361 8.45054 4.38939 -1.30361
64 1 9.52515 5.95282 0.342384 9.52515 5.95282 0.342384
65 2 11.6048 5.8907 1.61827 11.6048 5.8907 1.61827
66 2 11.3362 6.03071 -1.53603 11.3362 6.03071 -1.53603
67 1 12.3515 4.27773 0.0155757 12.3515 4.27773 0.0155757
68 2 14.4074 4.43787 1.48369 14.4074 4.43787 1.48369
69 2 14.1331 4.2841 -1.74505 14.1331 4.2841 -1.74505
70 1 15.2461 5.96335 -0.315338 15.2461 5.96335 -0.315338
71 2 17.0447 5.97783 1.48396 17.0447 5.97783 1.48396
72 2 17.1618 6.17972 -1.8497 17.1618 6.17972 -1.8497
73 1 18.1494 4.38644 -0.156687 18.1494 4.38644 -0.156687
74 2 20.0883 4.23175 1.55829 20.0883 4.23175 1.55829
75 2 20.0915 4.37434 -1.7191 20.0915 4.37434 -1.7191
76 1 20.968 6.00818 -0.0210304 20.968 6.00818 -0.0210304
77 2 22.9064 5.96546 1.60586 22.9064 5.96546 1.60586
78 2 22.9919 5.98604 -1.60258 22.9919 5.98604 -1.60258
79 1 23.833 4.35373 -0.0377994 23.833 4.35373 -0.0377994
80 2 25.7917 4.30177 1.44477 25.7917 4.30177 1.44477
81 2 25.6761 4.29574 -1.72787 25.6761 4.29574 -1.72787
82 1 26.6837 5.96246 -0.0864968 26.6837 5.96246 -0.0864968
83 2 28.4371 5.8209 1.70637 28.4371 5.8209 1.70637
84 2 28.6595 5.80295 -1.56748 28.6595 5.80295 -1.56748
85 1 29.5349 4.20123 0.1302 29.5349 4.20123 0.1302
86 2 31.4178 4.29628 1.69041 31.4178 4.29628 1.69041
87 2 31.3166 4.45564 -1.60488 31.3166 4.45564 -1.60488
88 1 32.4539 6.02467 0.118343 32.4539 6.02467 0.118343
89 2 34.1196 6.1026 1.86746 34.1196 6.1026 1.86746
90 2 34.4916 6.12333 -1.4381 34.4916 6.12333 -1.4381
91 1 35.2433 4.32311 0.328218 35.2433 4.32311 0.328218
92 2 37.0622 4.32817 1.97739 37.0622 4.32817 1.97739
93 2 37.2062 4.3585 -1.23175 37.2062 4.3585 -1.23175
94 1 38.0898 5.98807 0.360632 38.0898 5.98807 0.360632
95 2 39.9682 5.95875 2.15499 39.9682 5.95875 2.15499
96 2 40.12 5.90743 -1.05557 40.12 5.90743 -1.05557
97 1 41.032 4.27131 0.635875 41.032 4.27131 0.635875
98 2 43.0298 4.31313 2.17624 43.0298 4.31313 2.17624
99 2 42.7528 4.29882 -1.15284 42.7528 4.29882 -1.15284
100 1 43.8384 6.02203 0.629993 43.8384 6.02203 0.629993
101 2 45.766 6.19695 2.30552 45.766 6.19695 2.30552
102 2 45.8357 5.82816 -0.906931 45.8357 5.82816 -0.906931
103 1 46.7677 4.29862 0.913486 46.7677 4.29862 0.913486
104 2 48.6741 4.24505 2.53495 48.6741 4.24505 2.53495
105 2 48.6832 4.29095 -0.773252 48.6832 4.29095 -0.773252
106 1 49.6058 5.96429 0.781976 49.6058 5.96429 0.781976
107 2 51.7054 6.02894 2.25353 51.7054 6.02894 2.25353
108 2 51.3392 5.82594 -0.957704 51.3392 5.82594 -0.957704
109 1 0.858095 7.57543 0.451083 0.858095 7.57543 0.451083
110 2 2.65123 7.44316 2.245 2.65123 7.44316 2.245
111 2 2.93742 7.60797 -1.04941 2.93742 7.60797 -1.04941
112 1 3.76071 9.23793 0.784727 3.76071 9.23793 0.784727
113 2 5.91774 9.16184 2.18283 5.91774 9.16184 2.18283
114 2 5.48306 9.41222 -1.05295 5.48306 9.41222 -1.05295
115 1 6.6939 7.64867 0.373273 6.6939 7.64867 0.373273
116 2 8.70868 7.71918 1.91999 8.70868 7.71918 1.91999
117 2 8.45527 7.42088 -1.38353 8.45527 7.42088 -1.38353
118 1 9.6054 9.20314 0.0754801 9.6054 9.20314 0.0754801
119 2 11.6243 9.29755 1.63755 11.6243 9.29755 1.63755
120 2 11.4541 9.03176 -1.61082 11.4541 9.03176 -1.61082
121 1 12.4581 7.56726 -0.0357344 12.4581 7.56726 -0.0357344
122 2 14.4163 7.60039 1.47529 14.4163 7.60039 1.47529
123 2 14.1361 7.51418 -1.8513 14.1361 7.51418 -1.8513
124 1 15.2344 9.21278 -0.401339 15.2344 9.21278 -0.401339
125 2 17.131 9.35608 1.41284 17.131 9.35608 1.41284
126 2 17.2347 9.20574 -1.92135 17.2347 9.20574 -1.92135
127 1 18.1035 7.70395 -0.0865967 18.1035 7.70395 -0.0865967
128 2 20.0272 7.63418 1.53958 20.0272 7.63418 1.53958
129 2 20.039 7.66219 -1.62863 20.039 7.66219 -1.62863
130 1 20.8543 9.3408 -0.116405 20.8543 9.3408 -0.116405
131 2 22.7444 9.4769 1.64471 22.7444 9.4769 1.64471
132 2 22.7957 9.1472 -1.71156 22.7957 9.1472 -1.71156
133 1 23.8229 7.63115 0.0477331 23.8229 7.63115 0.0477331
134 2 25.7955 7.67823 1.61308 25.7955 7.67823 1.61308
135 2 25.7429 7.66624 -1.6824 25.7429 7.66624 -1.6824
136 1 26.7628 9.25392 -0.0700763 26.7628 9.25392 -0.0700763
137 2 28.6133 9.36463 1.65069 28.6133 9.36463 1.65069
138 2 28.7751 9.24815 -1.5591 28.7751 9.24815 -1.5591
139 1 29.5292 7.51281 0.191721 29.5292 7.51281 0.191721
140 2 31.381 7.73776 1.85146 31.381 7.73776 1.85146
141 2 31.446 7.6131 -1.43112 31.446 7.6131 -1.43112
142 1 32.4354 9.25891 0.163183 32.4354 9.25891 0.163183
143 2 34.3377 9.34032 1.8632 34.3377 9.34032 1.8632
144 2 34.4368 9.30426 -1.48935 34.4368 9.30426 -1.48935
145 1 35.2643 7.68613 0.249288 35.2643 7.68613 0.249288
146 2 37.0332 7.50951 2.0299 37.0332 7.50951 2.0299
147 2 37.2863 7.84409 -1.18736 37.2863 7.84409 -1.18736
148 1 38.1163 9.24281 0.713579 38.1163 9.24281 0.713579
149 2 40.0137 9.12725 2.26395 40.0137 9.12725 2.26395
150 2 39.9535 9.26833 -0.999171 39.9535 9.26833 -0.999171
151 1 40.9851 7.61747 0.581992 40.9851 7.61747 0.581992
152 2 42.9669 7.60352 2.29036 42.9669 7.60352 2.29036
153 2 42.9573 7.6992 -0.962008 42.9573 7.6992 -0.962008
154 1 43.9465 9.24472 0.749766 43.9465 9.24472 0.749766
155 2 45.7908 9.11094 2.32908 45.7908 9.11094 2.32908
156 2 45.7519 9.48659 -0.969341 45.7519 9.48659 -0.969341
157 1 46.7298 7.71607 0.531069 46.7298 7.71607 0.531069
158 2 48.475 7.64294 2.29474 48.475 7.64294 2.29474
159 2 48.6765 7.49687 -0.970141 48.6765 7.49687 -0.970141
160 1 49.5913 9.22281 0.606812 49.5913 9.22281 0.606812
161 2 51.4539 9.09155 2.28076 51.4539 9.09155 2.28076
162 2 51.5314 9.38783 -0.968566 51.5314 9.38783 -0.968566
163 1 0.989702 10.7958 0.858206 0.989702 10.7958 0.858206
164 2 2.94554 10.9627 2.44804 2.94554 10.9627 2.44804
165 2 2.77562 10.8741 -0.765077 2.77562 10.8741 -0.765077
166 1 3.7938 12.5364 0.814081 3.7938 12.5364 0.814081
167 2 5.76374 12.3712 2.27328 5.76374 12.3712 2.27328
168 2 5.58325 12.5729 -1.03805 5.58325 12.5729 -1.03805
169 1 6.74703 10.934 0.513488 6.74703 10.934 0.513488
170 2 8.84632 10.8471 1.86394 8.84632 10.8471 1.86394
171 2 8.40804 11.024 -1.29633 8.40804 11.024 -1.29633
172 1 9.6593 12.5247 0.196698 9.6593 12.5247 0.196698
173 2 11.5749 12.3725 1.63405 11.5749 12.3725 1.63405
174 2 11.4033 12.6181 -1.59715 11.4033 12.6181 -1.59715
175 1 12.5303 10.8448 -0.165244 12.5303 10.8448 -0.165244
176 2 14.4886 10.7817 1.33269 14.4886 10.7817 1.33269
177 2 14.2094 11.0243 -1.95076 14.2094 11.0243 -1.95076
178 1 15.2367 12.5638 -0.214182 15.2367 12.5638 -0.214182
179 2 17.2113 12.5775 1.34834 17.2113 12.5775 1.34834
180 2 17.0754 12.6343 -1.91103 17.0754 12.6343 -1.91103
181 1 18.0277 10.9878 -0.338873 18.0277 10.9878 -0.338873
182 2 19.9566 11.1178 1.27525 19.9566 11.1178 1.27525
183 2 19.9319 10.7712 -1.94253 19.9319 10.7712 -1.94253
184 1 20.9511 12.5544 -0.483705 20.9511 12.5544 -0.483705
185 2 22.8427 12.7476 1.26043 22.8427 12.7476 1.26043
186 2 22.9272 12.3149 -2.06556 22.9272 12.3149 -2.06556
187 1 23.9436 10.8722 -0.153727 23.9436 10.8722 -0.153727
188 2 25.6744 11.023 1.55136 25.6744 11.023 1.55136
189 2 25.8778 10.9421 -1.67296 25.8778 10.9421 -1.67296
190 1 26.7267 12.5978 0.0325914 26.7267 12.5978 0.0325914
191 2 28.7025 12.7007 1.55723 28.7025 12.7007 1.55723
192 2 28.5812 12.5052 -1.63696 28.5812 12.5052 -1.63696
193 1 29.6816 10.9437 0.0130581 29.6816 10.9437 0.0130581
194 2 31.4885 10.9744 1.62126 31.4885 10.9744 1.62126
195 2 31.5014 10.9925 -1.59222 31.5014 10.9925 -1.59222
196 1 32.4747 12.5185 -0.0755482 32.4747 12.5185 -0.0755482
197 2 34.4055 12.5974 1.66453 34.4055 12.5974 1.66453
198 2 34.5224 12.45 -1.60158 34.5224 12.45 -1.60158
199 1 35.3538 10.9206 0.191004 35.3538 10.9206 0.191004
200 2 36.9784 11.0456 2.08582 36.9784 11.0456 2.08582
201 2 37.4983 10.8803 -1.13319 37.4983 10.8803 -1.13319
202 1 38.1818 12.595 0.516417 38.1818 12.595 0.516417
203 2 39.9837 12.5591 2.33905 39.9837 12.5591 2.33905
204 2 40.1536 12.6551 -0.97571 40.1536 12.6551 -0.97571
205 1 41.0017 10.9393 0.73198 41.0017 10.9393 0.73198
206 2 42.7961 10.8635 2.43631 42.7961 10.8635 2.43631
207 2 42.9484 10.9124 -0.786799 42.9484 10.9124 -0.786799
208 1 43.8517 12.5202 0.979878 43.8517 12.5202 0.979878
209 2 45.7002 12.4998 2.6956 45.7002 12.4998 2.6956
210 2 45.8853 12.7518 -0.637675 45.8853 12.7518 -0.637675
211 1 46.778 10.9386 0.887294 46.778 10.9386 0.887294
212 2 48.832 10.6187 2.40402 48.832 10.6187 2.40402
213 2 48.634 11.1117 -0.763617 48.634 11.1117 -0.763617
214 1 49.6021 12.5633 1.04335 49.6021 12.5633 1.04335
215 2 51.672 12.4589 2.58269 51.672 12.4589 2.58269
216 2 51.4321 12.5328 -0.696925 51.4321 12.5328 -0.696925
217 1 0.985066 14.2053 0.978463 0.985066 14.2053 0.978463
218 2 3.02705 14.3849 2.47003 3.02705 14.3849 2.47003
219 2 2.62719 14.0529 -0.853137 2.62719 14.0529 -0.853137
220 1 3.75014 15.8511 0.589412 3.75014 15.8511 0.589412
221 2 5.81059 16.0211 2.1318 5.81059 16.0211 2.1318
222 2 5.65293 15.4917 -1.14716 5.65293 15.4917 -1.14716
223 1 6.61644 14.068 0.627066 6.61644 14.068 0.627066
224 2 8.81448 14.114 1.91524 8.81448 14.114 1.91524
225 2 8.36946 14.1786 -1.25461 8.36946 14.1786 -1.25461
226 1 9.56546 15.8918 0.339618 9.56546 15.8918 0.339618
227 2 11.5227 15.6849 1.80885 11.5227 15.6849 1.80885
228 2 11.4041 15.8247 -1.42979 11.4041 15.8247 -1.42979
229 1 12.4493 14.1384 0.0486707 12.4493 14.1384 0.0486707
230 2 14.4122 14.1038 1.61446 14.4122 14.1038 1.61446
231 2 14.2381 14.2205 -1.70536 14.2381 14.2205 -1.70536
232 1 15.3137 15.8548 -0.0589988 15.3137 15.8548 -0.0589988
233 2 17.2662 16.005 1.39323 17.2662 16.005 1.39323
234 2 17.0949 15.9489 -1.85701 17.0949 15.9489 -1.85701
235 1 18.0241 14.2385 -0.33626 18.0241 14.2385 -0.33626
236 2 20.0282 14.2784 1.12974 20.0282 14.2784 1.12974
237 2 19.8128 14.1925 -2.15668 19.8128 14.1925 -2.15668
238 1 20.9677 15.9123 -0.672564 20.9677 15.9123 -0.672564
239 2 22.8585 15.9873 1.06454 22.8585 15.9873 1.06454
240 2 22.855 15.7596 -2.24126 22.855 15.7596 -2.24126
241 1 23.768 14.2225 -0.549619 23.768 14.2225 -0.549619
242 2 25.4616 14.4552 1.34377 25.4616 14.4552 1.34377
243 2 25.9505 13.9614 -1.89166 25.9505 13.9614 -1.89166
244 1 26.6709 15.8163 -0.463638 26.6709 15.8163 -0.463638
245 2 28.4361 15.9813 1.31591 28.4361 15.9813 1.31591
246 2 28.7591 15.7435 -1.99634 28.7591 15.7435 -1.99634
247 1 29.582 14.222 -0.17342 29.582 14.222 -0.17342
248 2 31.4501 14.1774 1.46619 31.4501 14.1774 1.46619
249 2 31.5534 14.204 -1.77206 31.5534 14.204 -1.77206
250 1 32.4121 15.9114 -0.119398 32.4121 15.9114 -0.119398
251 2 34.2321 15.8111 1.67093 34.2321 15.8111 1.67093
252 2 34.4406 16.0431 -1.55574 34.4406 16.0431 -1.55574
253 1 35.3365 14.2264 0.0112712 35.3365 14.2264 0.0112712
254 2 36.9797 14.3038 1.94501 36.9797 14.3038 1.94501
255 2 37.4923 14.2799 -1.34202 37.4923 14.2799 -1.34202
256 1 38.2466 15.8404 0.45969 38.2466 15.8404 0.45969
257 2 39.8702 15.7568 2.37836 39.8702 15.7568 2.37836
258 2 40.3509 16.1222 -0.982655 40.3509 16.1222 -0.982655
259 1 41.0472 14.3043 0.752812 41.0472 14.3043 0.752812
260 2 42.8447 14.1666 2.56651 42.8447 14.1666 2.56651
261 2 43.0242 14.2543 -0.725789 43.0242 14.2543 -0.725789
262 1 43.8006 15.8486 1.02806 43.8006 15.8486 1.02806
263 2 45.6163 16.0033 2.77675 45.6163 16.0033 2.77675
264 2 45.6856 15.9485 -0.502416 45.6856 15.9485 -0.502416
265 1 46.6483 14.2967 1.22117 46.6483 14.2967 1.22117
266 2 48.611 14.2507 2.75648 48.611 14.2507 2.75648
267 2 48.5265 14.2456 -0.482999 48.5265 14.2456 -0.482999
268 1 49.5533 15.898 1.04965 49.5533 15.898 1.04965
269 2 51.5741 15.919 2.59831 51.5741 15.919 2.59831
270 2 51.3229 15.9764 -0.659904 51.3229 15.9764 -0.659904
271 1 0.861041 17.599 0.989475 0.861041 17.599 0.989475
272 2 2.93353 17.4289 2.38823 2.93353 17.4289 2.38823
273 2 2.76951 17.5396 -0.856682 2.76951 17.5396 -0.856682
274 1 3.79758 19.1245 0.724 3.79758 19.1245 0.724
275 2 5.93907 19.0371 2.03965 5.93907 19.0371 2.03965
276 2 5.48205 19.0132 -1.08525 5.48205 19.0132 -1.08525
277 1 6.75415 17.3613 0.350034 6.75415 17.3613 0.350034
278 2 8.63277 17.4378 2.08199 8.63277 17.4378 2.08199
279 2 8.69729 17.472 -1.35636 8.69729 17.472 -1.35636
280 1 9.52278 19.0767 0.416845 9.52278 19.0767 0.416845
281 2 11.4834 19.1184 1.94124 11.4834 19.1184 1.94124
282 2 11.278 19.2122 -1.27756 11.278 19.2122 -1.27756
283 1 12.426 17.4945 0.157893 12.426 17.4945 0.157893
284 2 14.5069 17.5108 1.65782 14.5069 17.5108 1.65782
285 2 14.1898 17.5479 -1.60797 14.1898 17.5479 -1.60797
286 1 15.3087 19.1381 -0.092218 15.3087 19.1381 -0.092218
287 2 17.3214 19.2913 1.41544 17.3214 19.2913 1.41544
288 2 17.0085 19.1965 -1.73918 17.0085 19.1965 -1.73918
289 1 18.2188 17.5908 -0.254717 18.2188 17.5908 -0.254717
290 2 20.2033 17.4137 1.27492 20.2033 17.4137 1.27492
291 2 19.992 17.704 -1.9838 19.992 17.704 -1.9838
292 1 20.9784 19.2101 -0.35395 20.9784 19.2101 -0.35395
293 2 23.0923 19.1684 0.939353 23.0923 19.1684 0.939353
294 2 22.6314 19.0713 -2.32276 22.6314 19.0713 -2.32276
295 1 23.8525 17.433 -0.669757 23.8525 17.433 -0.669757
296 2 25.6462 17.5626 1.13718 25.6462 17.5626 1.13718
297 2 25.86 17.5637 -2.20033 25.86 17.5637 -2.20033
298 1 26.7095 19.1961 -0.454525 26.7095 19.1961 -0.454525
299 2 28.5138 19.025 1.22264 28.5138 19.025 1.22264
300 2 28.5835 19.2124 -2.00794 28.5835 19.2124 -2.00794
301 1 29.53 17.4808 -0.381032 29.53 17.4808 -0.381032
302 2 31.3533 17.6072 1.36795 31.3533 17.6072 1.36795
303 2 31.6007 17.3921 -1.90182 31.6007 17.3921 -1.90182
304 1 32.3837 19.1054 -0.32461 32.3837 19.1054 -0.32461
305 2 34.0996 19.3872 1.58118 34.0996 19.3872 1.58118
306 2 34.53 18.955 -1.64015 34.53 18.955 -1.64015
307 1 35.2866 17.5692 0.267789 35.2866 17.5692 0.267789
308 2 37.0878 17.4532 2.01331 37.0878 17.4532 2.01331
309 2 37.3442 17.5686 -1.07572 37.3442 17.5686 -1.07572
310 1 38.098 19.2293 0.614465 38.098 19.2293 0.614465
311 2 39.8871 19.3525 2.51601 39.8871 19.3525 2.51601
312 2 40.2219 19.1292 -0.754198 40.2219 19.1292 -0.754198
313 1 40.9409 17.5429 1.07955 40.9409 17.5429 1.07955
314 2 42.7927 17.4634 2.60548 42.7927 17.4634 2.60548
315 2 42.8702 17.6192 -0.647046 42.8702 17.6192 -0.647046
316 1 43.7756 19.1685 1.05507 43.7756 19.1685 1.05507
317 2 45.7735 19.3589 2.6586 45.7735 19.3589 2.6586
318 2 45.6064 18.9975 -0.605443 45.6064 18.9975 -0.605443
319 1 46.7002 17.5293 1.16138 46.7002 17.5293 1.16138
320 2 48.6859 17.7077 2.52164 48.6859 17.7077 2.52164
321 2 48.443 17.3019 -0.737536 48.443 17.3019 -0.737536
322 1 49.4409 19.2118 0.602132 49.4409 19.2118 0.602132
323 2 51.2083 19.3465 2.4503 51.2083 19.3465 2.4503
324 2 51.5877 19.1215 -0.750391 51.5877 19.1215 -0.750391
325 1 0.893462 20.8385 0.794371 0.893462 20.8385 0.794371
326 2 2.97302 20.9126 2.2956 2.97302 20.9126 2.2956
327 2 2.77051 20.6717 -0.86901 2.77051 20.6717 -0.86901
328 1 3.89117 22.3811 0.462826 3.89117 22.3811 0.462826
329 2 5.89053 22.4562 1.96217 5.89053 22.4562 1.96217
330 2 5.52014 22.1037 -1.33278 5.52014 22.1037 -1.33278
331 1 6.72353 20.6927 0.352032 6.72353 20.6927 0.352032
332 2 8.60863 20.7184 2.05617 8.60863 20.7184 2.05617
333 2 8.658 20.712 -1.23853 8.658 20.712 -1.23853
334 1 9.47332 22.3576 0.512101 9.47332 22.3576 0.512101
335 2 11.5697 22.3931 1.97214 11.5697 22.3931 1.97214
336 2 11.2447 22.3809 -1.30034 11.2447 22.3809 -1.30034
337 1 12.372 20.7914 0.29469 12.372 20.7914 0.29469
338 2 14.4363 20.6731 1.71689 14.4363 20.6731 1.71689
339 2 14.0944 20.887 -1.43609 14.0944 20.887 -1.43609
340 1 15.3155 22.4293 0.188168 15.3155 22.4293 0.188168
341 2 17.4873 22.5314 1.39537 17.4873 22.5314 1.39537
342 2 16.8843 22.3928 -1.77376 16.8843 22.3928 -1.77376
343 1 18.2328 20.8659 -0.301604 18.2328 20.8659 -0.301604
344 2 20.1174 20.7727 1.32298 20.1174 20.7727 1.32298
345 2 20.1968 20.943 -1.89501 20.1968 20.943 -1.89501
346 1 21.0322 22.5285 -0.192138 21.0322 22.5285 -0.192138
347 2 23.2342 22.4232 1.1031 23.2342 22.4232 1.1031
348 2 22.717 22.6995 -2.14457 22.717 22.6995 -2.14457
349 1 23.8041 20.8903 -0.74243 23.8041 20.8903 -0.74243
350 2 25.6255 20.8899 1.0864 25.6255 20.8899 1.0864
351 2 25.9129 20.8389 -2.17015 25.9129 20.8389 -2.17015
352 1 26.692 22.5213 -0.373967 26.692 22.5213 -0.373967
353 2 28.5997 22.5302 1.14199 28.5997 22.5302 1.14199
354 2 28.6153 22.2894 -2.10878 28.6153 22.2894 -2.10878
355 1 29.5786 20.8191 -0.30933 29.5786 20.8191 -0.30933
356 2 31.4791 20.8079 1.33157 31.4791 20.8079 1.33157
357 2 31.4412 20.7102 -1.98444 31.4412 20.7102 -1.98444
358 1 32.4564 22.383 -0.376441 32.4564 22.383 -0.376441
359 2 34.0081 22.4098 1.41564 34.0081 22.4098 1.41564
360 2 34.4934 22.4503 -1.77015 34.4934 22.4503 -1.77015
361 1 35.2966 20.8352 -0.0707218 35.2966 20.8352 -0.0707218
362 2 36.9293 21.0461 1.81682 36.9293 21.0461 1.81682
363 2 37.4135 20.608 -1.42285 37.4135 20.608 -1.42285
364 1 38.1126 22.4638 0.110391 38.1126 22.4638 0.110391
365 2 39.7294 22.736 2.05855 39.7294 22.736 2.05855
366 2 40.2829 22.1721 -1.06792 40.2829 22.1721 -1.06792
367 1 40.993 20.8812 0.917386 40.993 20.8812 0.917386
368 2 42.8672 20.8933 2.57822 42.8672 20.8933 2.57822
369 2 42.9546 20.7906 -0.767719 42.9546 20.7906 -0.767719
370 1 43.9192 22.409 0.795419 43.9192 22.409 0.795419
371 2 45.9254 22.7151 2.2743 45.9254 22.7151 2.2743
372 2 45.5325 22.2468 -0.949486 45.5325 22.2468 -0.949486
373 1 46.7088 20.8825 0.807115 46.7088 20.8825 0.807115
374 2 48.6895 20.8484 2.33277 48.6895 20.8484 2.33277
375 2 48.4095 20.7881 -1.051 48.4095 20.7881 -1.051
376 1 49.6833 22.4374 0.485407 49.6833 22.4374 0.485407
377 2 51.4771 22.8872 2.05655 51.4771 22.8872 2.05655
378 2 51.5301 22.1474 -1.15104 51.5301 22.1474 -1.15104
379 1 1.04765 24.1005 0.14165 1.04765 24.1005 0.14165
380 2 2.891 24.2678 1.89877 2.891 24.2678 1.89877
381 2 3.01692 23.9657 -1.41657 3.01692 23.9657 -1.41657
382 1 3.8551 25.7516 0.0836894 3.8551 25.7516 0.0836894
383 2 5.96133 25.8353 1.62212 5.96133 25.8353 1.62212
384 2 5.63123 25.4667 -1.656 5.63123 25.4667 -1.656
385 1 6.60297 23.9897 0.091199 6.60297 23.9897 0.091199
386 2 8.65979 24.4442 1.6457 8.65979 24.4442 1.6457
387 2 8.49537 23.6604 -1.56682 8.49537 23.6604 -1.56682
388 1 9.57751 25.6691 -0.32218 9.57751 25.6691 -0.32218
389 2 11.343 25.9805 1.52632 11.343 25.9805 1.52632
390 2 11.709 25.6355 -1.69097 11.709 25.6355 -1.69097
391 1 12.3448 24.0455 0.200619 12.3448 24.0455 0.200619
392 2 14.4228 24.3382 1.5493 14.4228 24.3382 1.5493
393 2 14.188 23.8661 -1.56142 14.188 23.8661 -1.56142
394 1 15.2404 25.7679 -0.276808 15.2404 25.7679 -0.276808
395 2 17.3026 25.8192 1.17515 17.3026 25.8192 1.17515
396 2 16.9276 25.7283 -2.00152 16.9276 25.7283 -2.00152
397 1 18.0983 24.1493 -0.453558 18.0983 24.1493 -0.453558
398 2 20.0269 24.3353 1.20127 20.0269 24.3353 1.20127
399 2 20.0792 23.8314 -2.10656 20.0792 23.8314 -2.10656
400 1 21.0038 25.8503 -0.651253 21.0038 25.8503 -0.651253
401 2 22.8435 25.7396 1.00002 22.8435 25.7396 1.00002
402 2 22.9732 25.7383 -2.23434 22.9732 25.7383 -2.23434
403 1 23.9203 24.1302 -0.571184 23.9203 24.1302 -0.571184
404 2 25.7745 24.1597 1.12353 25.7745 24.1597 1.12353
405 2 25.828 23.7673 -2.18606 25.828 23.7673 -2.18606
406 1 26.8104 25.7456 -0.721277 26.8104 25.7456 -0.721277
407 2 28.7984 25.8055 0.929508 28.7984 25.8055 0.929508
408 2 28.695 25.5943 -2.35021 28.695 25.5943 -2.35021
409 1 29.6819 24.0878 -0.62019 29.6819 24.0878 -0.62019
410 2 31.3725 24.0562 1.17262 31.3725 24.0562 1.17262
411 2 31.6219 23.9498 -2.12455 31.6219 23.9498 -2.12455
412 1 32.4705 25.6766 -0.405517 32.4705 25.6766 -0.405517
413 2 34.0702 25.8039 1.46971 34.0702 25.8039 1.46971
414 2 34.4229 25.7606 -1.79019 34.4229 25.7606 -1.79019
415 1 35.2316 24.0819 -0.0855976 35.2316 24.0819 -0.0855976
416 2 36.9579 24.1256 1.65148 36.9579 24.1256 1.65148
417 2 37.2023 24.0088 -1.64159 37.2023 24.0088 -1.64159
418 1 38.1248 25.6355 0.0338119 38.1248 25.6355 0.0338119
419 2 39.9477 25.8495 1.72347 39.9477 25.8495 1.72347
420 2 40.0791 25.4362 -1.50669 40.0791 25.4362 -1.50669
421 1 41.0286 24.039 0.427688 41.0286 24.039 0.427688
422 2 42.8499 24.1109 2.23812 42.8499 24.1109 2.23812
423 2 42.9893 23.8688 -1.077 42.9893 23.8688 -1.077
424 1 43.9112 25.7343 0.500073 43.9112 25.7343 0.500073
425 2 46.0159 25.8944 1.87747 46.0159 25.8944 1.87747
426 2 45.5385 25.383 -1.35607 45.5385 25.383 -1.35607
427 1 46.7132 24.0919 0.355829 46.7132 24.0919 0.355829
428 2 48.6783 24.2964 1.8548 48.6783 24.2964 1.8548
429 2 48.6181 23.8926 -1.29235 48.6181 23.8926 -1.29235
430 1 49.6286 25.6978 0.0298927 49.6286 25.6978 0.0298927
431 2 51.5022 25.9266 1.68922 51.5022 25.9266 1.68922
432 2 51.5193 25.5012 -1.64185 51.5193 25.5012 -1.64185
433 1 0.936912 27.3191 -0.218584 0.936912 27.3191 -0.218584
434 2 2.78777 27.5621 1.41675 2.78777 27.5621 1.41675
435 2 2.82189 27.1121 -1.82174 2.82189 27.1121 -1.82174
436 1 3.82419 28.9806 -0.415631 3.82419 28.9806 -0.415631
437 2 5.62618 29.0481 1.21498 5.62618 29.0481 1.21498
438 2 5.74086 28.8682 -2.06361 5.74086 28.8682 -2.06361
439 1 6.69836 27.3245 -0.353028 6.69836 27.3245 -0.353028
440 2 8.55877 27.3857 1.25169 8.55877 27.3857 1.25169
441 2 8.53683 27.1448 -2.01916 8.53683 27.1448 -2.01916
442 1 9.53372 28.9233 -0.507858 9.53372 28.9233 -0.507858
443 2 11.3384 29.2011 1.16319 11.3384 29.2011 1.16319
444 2 11.5201 28.6526 -2.08908 11.5201 28.6526 -2.08908
445 1 12.4643 27.3764 -0.175425 12.4643 27.3764 -0.175425
446 2 14.5027 27.6398 1.23 14.5027 27.6398 1.23
447 2 14.1494 27.1719 -2.00412 14.1494 27.1719 -2.00412
448 1 15.2973 29.0306 -0.688894 15.2973 29.0306 -0.688894
449 2 17.2337 29.2124 0.962702 17.2337 29.2124 0.962702
450 2 17.2446 28.892 -2.36539 17.2446 28.892 -2.36539
451 1 18.0279 27.4684 -0.593287 18.0279 27.4684 -0.593287
452 2 20.0009 27.5731 0.952557 20.0009 27.5731 0.952557
453 2 20.0597 27.4862 -2.32724 20.0597 27.4862 -2.32724
454 1 20.9945 29.0894 -0.801327 20.9945 29.0894 -0.801327
455 2 22.7816 29.1481 0.857106 22.7816 29.1481 0.857106
456 2 22.8479 28.8638 -2.48076 22.8479 28.8638 -2.48076
457 1 23.8237 27.437 -0.615094 23.8237 27.437 -0.615094
458 2 25.889 27.4641 0.858266 25.889 27.4641 0.858266
459 2 25.7114 27.4174 -2.35435 25.7114 27.4174 -2.35435
460 1 26.7686 29.0494 -0.918982 26.7686 29.0494 -0.918982
461 2 28.6132 29.0149 0.747912 28.6132 29.0149 0.747912
462 2 28.6447 29.1027 -2.51519 28.6447 29.1027 -2.51519
463 1 29.5701 27.3841 -0.86096 29.5701 27.3841 -0.86096
464 2 31.3544 27.4298 0.93627 31.3544 27.4298 0.93627
465 2 31.6136 27.1126 -2.30051 31.6136 27.1126 -2.30051
466 1 32.4518 28.9739 -0.813282 32.4518 28.9739 -0.813282
467 2 34.0632 29.2535 1.13753 34.0632 29.2535 1.13753
468 2 34.5684 28.5774 -2.05708 34.5684 28.5774 -2.05708
469 1 35.204 27.3791 -0.0237948 35.204 27.3791 -0.0237948
470 2 37.2802 27.5966 1.4451 37.2802 27.5966 1.4451
471 2 37.0281 27.1161 -1.78747 37.0281 27.1161 -1.78747
472 1 38.1542 28.9091 -0.449248 38.1542 28.9091 -0.449248
473 2 39.9617 29.069 1.26158 39.9617 29.069 1.26158
474 2 40.0733 28.7987 -1.96753 40.0733 28.7987 -1.96753
475 1 40.9686 27.2947 -0.179022 40.9686 27.2947 -0.179022
476 2 42.6897 27.6162 1.63665 42.6897 27.6162 1.63665
477 2 43.1412 27.1955 -1.42023 43.1412 27.1955 -1.42023
478 1 43.8887 29.0088 -0.0256543 43.8887 29.0088 -0.0256543
479 2 45.9257 29.0386 1.39972 45.9257 29.0386 1.39972
480 2 45.7018 28.8252 -1.83225 45.7018 28.8252 -1.83225
481 1 46.7575 27.2507 -0.158109 46.7575 27.2507 -0.158109
482 2 48.5936 27.3303 1.54649 48.5936 27.3303 1.54649
483 2 48.5781 27.2298 -1.75913 48.5781 27.2298 -1.75913
484 1 49.5699 28.8768 -0.127533 49.5699 28.8768 -0.127533
485 2 51.6012 29.0161 1.40977 51.6012 29.0161 1.40977
486 2 51.419 28.928 -1.7877 51.419 28.928 -1.7877
487 1 0.953498 30.5936 -0.289539 0.953498 30.5936 -0.289539
488 2 2.89945 30.6703 1.22198 2.89945 30.6703 1.22198
489 2 2.72212 30.6758 -2.06135 2.72212 30.6758 -2.06135
490 1 3.73552 32.305 -0.491309 3.73552 32.305 -0.491309
491 2 5.73318 32.3668 1.06286 5.73318 32.3668 1.06286
492 2 5.58308 32.2014 -2.18841 5.58308 32.2014 -2.18841
493 1 6.60933 30.627 -0.526279 6.60933 30.627 -0.526279
494 2 8.61927 30.7674 1.03246 8.61927 30.7674 1.03246
495 2 8.66151 30.5445 -2.18645 8.66151 30.5445 -2.18645
496 1 9.63301 32.2999 -0.658511 9.63301 32.2999 -0.658511
497 2 11.6703 32.4656 0.755957 11.6703 32.4656 0.755957
498 2 11.3169 31.9789 -2.50189 11.3169 31.9789 -2.50189
499 1 12.4654 30.5888 -0.710182 12.4654 30.5888 -0.710182
500 2 14.3042 30.7669 0.946459 14.3042 30.7669 0.946459
501 2 14.4202 30.7586 -2.40016 14.4202 30.7586 -2.40016
502 1 15.3223 32.4455 -0.683206 15.3223 32.4455 -0.683206
503 2 17.293 32.5767 0.758267 17.293 32.5767 0.758267
504 2 17.0233 32.1605 -2.42533 17.0233 32.1605 -2.42533
505 1 18.0972 30.7229 -0.805685 18.0972 30.7229 -0.805685
506 2 20.032 30.762 0.726917 20.032 30.762 0.726917
507 2 19.933 30.5731 -2.52106 19.933 30.5731 -2.52106
508 1 21.0586 32.3028 -1.03575 21.0586 32.3028 -1.03575
509 2 22.9152 32.376 0.56664 22.9152 32.376 0.56664
510 2 23.0013 32.4484 -2.72363 23.0013 32.4484 -2.72363
511 1 23.9448 30.6203 -1.05601 23.9448 30.6203 -1.05601
512 2 25.7331 30.6274 0.693755 25.7331 30.6274 0.693755
513 2 25.8625 30.576 -2.6442 25.8625 30.576 -2.6442
514 1 26.7444 32.1736 -0.937272 26.7444 32.1736 -0.937272
515 2 28.4696 32.3535 0.828801 28.4696 32.3535 0.828801
516 2 28.7626 32.3944 -2.52491 28.7626 32.3944 -2.52491
517 1 29.6008 30.7198 -0.842773 29.6008 30.7198 -0.842773
518 2 31.4658 30.6286 0.825726 31.4658 30.6286 0.825726
519 2 31.4205 30.7606 -2.45588 31.4205 30.7606 -2.45588
520 1 32.4891 32.2923 -0.776971 32.4891 32.2923 -0.776971
521 2 34.3239 32.3295 0.967846 34.3239 32.3295 0.967846
522 2 34.4891 32.2206 -2.33357 34.4891 32.2206 -2.33357
523 1 35.2997 30.6034 -0.64507 35.2997 30.6034 -0.64507
524 2 37.1579 30.5782 1.0239 37.1579 30.5782 1.0239
525 2 37.3075 30.3679 -2.17629 37.3075 30.3679 -2.17629
526 1 38.1701 32.179 -0.627166 38.1701 32.179 -0.627166
527 2 40.006 32.2142 1.01538 40.006 32.2142 1.01538
528 2 40.0931 32.3399 -2.22912 40.0931 32.3399 -2.22912
529 1 41.035 30.626 -0.509289 41.035 30.626 -0.509289
530 2 42.8093 30.7985 1.29758 42.8093 30.7985 1.29758
531 2 43.0108 30.2687 -1.96581 43.0108 30.2687 -1.96581
532 1 43.8827 32.2412 -0.508018 43.8827 32.2412 -0.508018
533 2 45.807 32.37 1.05716 45.807 32.37 1.05716
534 2 45.7071 32.1931 -2.08345 45.7071 32.1931 -2.08345
535 1 46.7414 30.5564 -0.396038 46.7414 30.5564 -0.396038
536 2 48.4551 30.5506 1.43756 48.4551 30.5506 1.43756
537 2 48.855 30.5817 -1.89889 48.855 30.5817 -1.89889
538 1 49.5633 32.2117 -0.123114 49.5633 32.2117 -0.123114
539 2 51.5344 32.4111 1.35442 51.5344 32.4111 1.35442
540 2 51.4167 32.2558 -1.86397 51.4167 32.2558 -1.86397