ITEM: TIMESTEP
50700
ITEM: NUMBER OF ATOMS
810
ITEM: BOX BOUNDS pp pp pp
7.7210545011608700e-01 5.2245499549884855e+01
7.8285021836530255e-01 5.0233364781634130e+01
-1.0000000000000000e+01 1.0000000000000000e+01
ITEM: ATOMS id type x y z xu yu zu
1 1 0.888284 1.06036 0.475141 0.888284 1.06036 0.475141
2 2 2.85471 1.04129 2.16599 2.85471 1.04129 2.16599
3 2 2.79342 0.872451 -1.15907 2.79342 0.872451 -1.15907
4 1 3.91205 2.56906 0.429527 3.91205 2.56906 0.429527
5 2 6.03778 2.76105 1.93966 6.03778 2.76105 1.93966
6 2 5.6755 2.61872 -1.37541 5.6755 2.61872 -1.37541
7 1 6.70572 1.00152 0.291496 6.70572 1.00152 0.291496
8 2 8.55619 1.06521 2.08527 8.55619 1.06521 2.08527
9 2 8.68693 0.807549 -1.23411 8.68693 0.807549 -1.23411
10 1 9.58697 2.55389 0.367586 9.58697 2.55389 0.367586
11 2 11.6074 2.60156 1.83597 11.6074 2.60156 1.83597
12 2 11.3009 2.61213 -1.39941 11.3009 2.61213 -1.39941
13 1 12.4159 0.978465 0.170938 12.4159 0.978465 0.170938
14 2 14.3551 1.00591 1.69177 14.3551 1.00591 1.69177
15 2 14.219 0.96593 -1.55929 14.219 0.96593 -1.55929
16 1 15.317 2.64237 0.00843955 15.317 2.64237 0.00843955
17 2 17.1918 2.56477 1.67722 17.1918 2.56477 1.67722
18 2 17.1703 2.69036 -1.66779 17.1703 2.69036 -1.66779
19 1 18.176 0.964781 -0.116165 18.176 0.964781 -0.116165
20 2 20.0464 0.940525 1.4048 20.0464 0.940525 1.4048
21 2 19.9669 1.00021 -1.87028 19.9669 1.00021 -1.87028
22 1 21.0269 2.58694 -0.178731 21.0269 2.58694 -0.178731
23 2 22.9699 2.40695 1.43717 22.9699 2.40695 1.43717
24 2 22.9554 2.94321 -1.74507 22.9554 2.94321 -1.74507
25 1 23.8956 1.05282 -0.327384 23.8956 1.05282 -0.327384
26 2 25.8697 0.809227 1.27998 25.8697 0.809227 1.27998
27 2 25.8225 1.27241 -1.96251 25.8225 1.27241 -1.96251
28 1 26.7406 2.67737 -0.114833 26.7406 2.67737 -0.114833
29 2 28.5441 2.6515 1.6183 28.5441 2.6515 1.6183
30 2 28.6687 2.88638 -1.64328 28.6687 2.88638 -1.64328
31 1 29.5393 1.00447 -0.0124991 29.5393 1.00447 -0.0124991
32 2 31.5179 0.988534 1.6159 31.5179 0.988534 1.6159
33 2 31.3983 0.892255 -1.74325 31.3983 0.892255 -1.74325
34 1 32.4482 2.52568 -0.185878 32.4482 2.52568 -0.185878
35 2 34.2066 2.63541 1.73335 34.2066 2.63541 1.73335
36 2 34.5288 2.64032 -1.57477 34.5288 2.64032 -1.57477
37 1 35.2797 1.00877 0.201024 35.2797 1.00877 0.201024
38 2 37.226 0.959199 1.87912 37.226 0.959199 1.87912
39 2 37.1603 0.958666 -1.5171 37.1603 0.958666 -1.5171
40 1 38.0296 2.62541 0.146031 38.0296 2.62541 0.146031
41 2 39.784 2.74401 1.90633 39.784 2.74401 1.90633
42 2 40.015 2.73417 -1.41738 40.015 2.73417 -1.41738
43 1 40.979 0.965983 0.376472 40.979 0.965983 0.376472
44 2 42.831 0.766759 2.07262 42.831 0.766759 2.07262
45 2 42.9585 1.0306 -1.18577 42.9585 1.0306 -1.18577
46 1 43.8695 2.57964 0.5805 43.8695 2.57964 0.5805
47 2 45.8905 2.66106 2.06183 45.8905 2.66106 2.06183
48 2 45.6771 2.58329 -1.21928 45.6771 2.58329 -1.21928
49 1 46.7399 0.943346 0.420803 46.7399 0.943346 0.420803
50 2 48.6194 0.96229 2.02522 48.6194 0.96229 2.02522
51 2 48.5883 0.904287 -1.22765 48.5883 0.904287 -1.22765
52 1 49.4737 2.63709 0.38348 49.4737 2.63709 0.38348
53 2 51.2945 2.66292 2.12019 51.2945 2.66292 2.12019
54 2 51.3842 2.76719 -1.11875 51.3842 2.76719 -1.11875
55 1 0.882325 4.2948 0.537437 0.882325 4.2948 0.537437
56 2 2.88565 4.24304 2.17637 2.88565 4.24304 2.17637
57 2 2.83848 4.24288 -1.21568 2.83848 4.24288 -1.21568
58 1 3.83639 5.88344 0.414512 3.83639 5.88344 0.414512
59 2 5.81792 5.91353 1.8809 5.81792 5.91353 1.8809
60 2 5.53969 5.90424 -1.34073 5.53969 5.90424 -1.34073
61 1 6.72963 4.30365 0.22735 6.72963 4.30365 0.22735
62 2 8.64163 4.40788 1.87524 8.64163 4.40788 1.87524
63 2 8.63267 4.20551 -1.40837 8.63267 4.20551 -1.40837
64 1 9.61987 5.97334 0.148734 9.61987 5.97334 0.148734
65 2 11.6259 6.15473 1.58174 11.6259 6.15473 1.58174
66 2 11.3809 5.57883 -1.5927 11.3809 5.57883 -1.5927
67 1 12.4124 4.22915 0.215382 12.4124 4.22915 0.215382
68 2 14.5393 4.17762 1.76659 14.5393 4.17762 1.76659
69 2 14.2773 4.32341 -1.52257 14.2773 4.32341 -1.52257
70 1 15.3233 5.8594 0.0947399 15.3233 5.8594 0.0947399
71 2 17.3739 5.92035 1.65109 17.3739 5.92035 1.65109
72 2 17.1516 5.8672 -1.57533 17.1516 5.8672 -1.57533
73 1 18.2675 4.19038 0.0410699 18.2675 4.19038 0.0410699
74 2 20.2058 4.20229 1.59058 20.2058 4.20229 1.59058
75 2 20.0677 4.43281 -1.76705 20.0677 4.43281 -1.76705
76 1 21.0798 5.96741 -0.033179 21.0798 5.96741 -0.033179
77 2 23.0231 6.06041 1.63639 23.0231 6.06041 1.63639
78 2 22.879 5.87378 -1.64627 22.879 5.87378 -1.64627
79 1 23.8253 4.29084 0.111856 23.8253 4.29084 0.111856
80 2 25.9066 4.22429 1.66483 25.9066 4.22429 1.66483
81 2 25.6839 4.29844 -1.73759 25.6839 4.29844 -1.73759
82 1 26.6386 5.98122 -0.139638 26.6386 5.98122 -0.139638
83 2 28.5772 6.19277 1.54423 28.5772 6.19277 1.54423
84 2 28.5913 5.73106 -1.72246 28.5913 5.73106 -1.72246
85 1 29.585 4.30962 0.171199 29.585 4.30962 0.171199
86 2 31.6373 4.10766 1.60619 31.6373 4.10766 1.60619
87 2 31.4089 4.22824 -1.71545 31.4089 4.22824 -1.71545
88 1 32.3967 5.81318 -0.066099 32.3967 5.81318 -0.066099
89 2 34.2722 6.08957 1.62198 34.2722 6.08957 1.62198
90 2 34.1979 5.75787 -1.73495 34.1979 5.75787 -1.73495
91 1 35.3375 4.29901 0.0511008 35.3375 4.29901 0.0511008
92 2 37.1442 4.24994 1.68049 37.1442 4.24994 1.68049
93 2 37.1894 4.35458 -1.44012 37.1894 4.35458 -1.44012
94 1 38.1006 5.9287 0.177843 38.1006 5.9287 0.177843
95 2 40.0709 5.96383 1.88138 40.0709 5.96383 1.88138
96 2 40.1298 5.97706 -1.45097 40.1298 5.97706 -1.45097
97 1 40.9603 4.31064 0.243621 40.9603 4.31064 0.243621
98 2 42.8586 4.42983 1.97698 42.8586 4.42983 1.97698
99 2 42.9576 4.23702 -1.22834 42.9576 4.23702 -1.22834
100 1 43.7937 5.988 0.237321 43.7937 5.988 0.237321
101 2 45.5963 5.83029 1.99286 45.5963 5.83029 1.99286
102 2 45.7288 6.01909 -1.31341 45.7288 6.01909 -1.31341
103 1 46.5938 4.31551 0.338653 46.5938 4.31551 0.338653
104 2 48.4799 4.23525 2.03403 48.4799 4.23525 2.03403
105 2 48.4037 4.25217 -1.263 48.4037 4.25217 -1.263
106 1 49.5465 5.90736 0.337225 49.5465 5.90736 0.337225
107 2 51.2892 5.98941 2.09657 51.2892 5.98941 2.09657
108 2 51.4848 5.86675 -1.23798 51.4848 5.86675 -1.23798
109 1 0.975411 7.57503 0.394476 0.975411 7.57503 0.394476
110 2 2.95425 7.66378 1.91166 2.95425 7.66378 1.91166
111 2 2.84272 7.32447 -1.38275 2.84272 7.32447 -1.38275
112 1 3.87431 9.18217 0.157766 3.87431 9.18217 0.157766
113 2 5.74706 9.35369 1.69956 5.74706 9.35369 1.69956
114 2 5.74285 9.13614 -1.57059 5.74285 9.13614 -1.57059
115 1 6.68097 7.5521 0.232395 6.68097 7.5521 0.232395
116 2 8.75867 7.75555 1.71782 8.75867 7.75555 1.71782
117 2 8.37461 7.37268 -1.52055 8.37461 7.37268 -1.52055
118 1 9.5731 9.23413 -0.200374 9.5731 9.23413 -0.200374
119 2 11.57 9.17381 1.34108 11.57 9.17381 1.34108
120 2 11.4034 9.19583 -1.94081 11.4034 9.19583 -1.94081
121 1 12.4413 7.56344 -0.333701 12.4413 7.56344 -0.333701
122 2 14.3002 7.6837 1.43112 14.3002 7.6837 1.43112
123 2 14.4699 7.4039 -1.73649 14.4699 7.4039 -1.73649
124 1 15.3727 9.12161 -0.236797 15.3727 9.12161 -0.236797
125 2 17.2302 9.22766 1.53573 17.2302 9.22766 1.53573
126 2 17.3884 9.19885 -1.73438 17.3884 9.19885 -1.73438
127 1 18.2282 7.54167 -0.0933526 18.2282 7.54167 -0.0933526
128 2 19.9711 7.52604 1.67563 19.9711 7.52604 1.67563
129 2 20.0989 7.60463 -1.68003 20.0989 7.60463 -1.68003
130 1 20.9582 9.29429 -0.0667512 20.9582 9.29429 -0.0667512
131 2 22.8738 9.20602 1.43685 22.8738 9.20602 1.43685
132 2 22.7564 9.34976 -1.76218 22.7564 9.34976 -1.76218
133 1 23.8099 7.60217 -0.266985 23.8099 7.60217 -0.266985
134 2 25.6388 7.47184 1.48141 25.6388 7.47184 1.48141
135 2 25.7623 7.69152 -1.83997 25.7623 7.69152 -1.83997
136 1 26.7113 9.2975 -0.0785975 26.7113 9.2975 -0.0785975
137 2 28.6792 9.23745 1.47955 28.6792 9.23745 1.47955
138 2 28.5337 9.28663 -1.80978 28.5337 9.28663 -1.80978
139 1 29.5836 7.58584 -0.248004 29.5836 7.58584 -0.248004
140 2 31.3721 7.44103 1.55023 31.3721 7.44103 1.55023
141 2 31.6064 7.43721 -1.73385 31.6064 7.43721 -1.73385
142 1 32.4124 9.10794 -0.0259617 32.4124 9.10794 -0.0259617
143 2 34.4477 9.08913 1.49664 34.4477 9.08913 1.49664
144 2 34.3085 9.30962 -1.71058 34.3085 9.30962 -1.71058
145 1 35.3228 7.53226 -0.180976 35.3228 7.53226 -0.180976
146 2 37.0731 7.67586 1.57558 37.0731 7.67586 1.57558
147 2 37.3002 7.41854 -1.66968 37.3002 7.41854 -1.66968
148 1 38.1777 9.19717 -0.0485514 38.1777 9.19717 -0.0485514
149 2 40.0233 9.32308 1.79546 40.0233 9.32308 1.79546
150 2 40.2228 9.30302 -1.47498 40.2228 9.30302 -1.47498
151 1 40.9974 7.64693 0.26835 40.9974 7.64693 0.26835
152 2 43.0417 7.77763 1.88979 43.0417 7.77763 1.88979
153 2 42.7692 7.55004 -1.44325 42.7692 7.55004 -1.44325
154 1 43.8548 9.25003 0.0742282 43.8548 9.25003 0.0742282
155 2 45.6791 9.3094 1.83668 45.6791 9.3094 1.83668
156 2 45.935 9.20818 -1.40378 45.935 9.20818 -1.40378
157 1 46.6922 7.58921 0.430361 46.6922 7.58921 0.430361
158 2 48.6756 7.66567 1.88039 48.6756 7.66567 1.88039
159 2 48.4999 7.48548 -1.26435 48.4999 7.48548 -1.26435
160 1 49.6788 9.16142 0.169536 49.6788 9.16142 0.169536
161 2 51.5849 9.48897 1.73114 51.5849 9.48897 1.73114
162 2 51.4892 8.95739 -1.49035 51.4892 8.95739 -1.49035
163 1 1.05118 10.8735 -0.189203 1.05118 10.8735 -0.189203
164 2 2.9586 11.1827 1.53931 2.9586 11.1827 1.53931
165 2 3.07692 10.5648 -1.74604 3.07692 10.5648 -1.74604
166 1 3.91468 12.4876 -0.390769 3.91468 12.4876 -0.390769
167 2 5.79498 12.7275 1.35854 5.79498 12.7275 1.35854
168 2 5.89262 12.5559 -1.94327 5.89262 12.5559 -1.94327
169 1 6.71742 10.9003 -0.18747 6.71742 10.9003 -0.18747
170 2 8.66544 11.0984 1.28211 8.66544 11.0984 1.28211
171 2 8.49389 10.7368 -1.89264 8.49389 10.7368 -1.89264
172 1 9.56964 12.5362 -0.552056 9.56964 12.5362 -0.552056
173 2 11.4752 12.6667 1.16462 11.4752 12.6667 1.16462
174 2 11.5363 12.3133 -2.13337 11.5363 12.3133 -2.13337
175 1 12.5149 10.8872 -0.339738 12.5149 10.8872 -0.339738
176 2 14.4798 10.877 1.24111 14.4798 10.877 1.24111
177 2 14.4515 10.7871 -1.91445 14.4515 10.7871 -1.91445
178 1 15.3269 12.5666 -0.339419 15.3269 12.5666 -0.339419
179 2 17.061 12.569 1.44498 17.061 12.569 1.44498
180 2 17.3616 12.5546 -1.86586 17.3616 12.5546 -1.86586
181 1 18.1602 10.8791 -0.0998488 18.1602 10.8791 -0.0998488
182 2 20.0712 10.9315 1.54349 20.0712 10.9315 1.54349
183 2 20.0265 10.8508 -1.75635 20.0265 10.8508 -1.75635
184 1 20.9331 12.5606 -0.205427 20.9331 12.5606 -0.205427
185 2 22.7724 12.6703 1.41695 22.7724 12.6703 1.41695
186 2 22.8177 12.4075 -1.78642 22.8177 12.4075 -1.78642
187 1 23.7987 10.9087 -0.133521 23.7987 10.9087 -0.133521
188 2 25.7995 10.9141 1.52616 25.7995 10.9141 1.52616
189 2 25.8546 10.9338 -1.76236 25.8546 10.9338 -1.76236
190 1 26.691 12.6399 -0.0471301 26.691 12.6399 -0.0471301
191 2 28.7131 12.6487 1.50161 28.7131 12.6487 1.50161
192 2 28.4939 12.4967 -1.78841 28.4939 12.4967 -1.78841
193 1 29.47 10.9165 -0.107702 29.47 10.9165 -0.107702
194 2 31.3606 10.7372 1.61449 31.3606 10.7372 1.61449
195 2 31.5697 10.8288 -1.622 31.5697 10.8288 -1.622
196 1 32.4203 12.4708 0.0633252 32.4203 12.4708 0.0633252
197 2 34.3468 12.477 1.57614 34.3468 12.477 1.57614
198 2 34.3468 12.3496 -1.56952 34.3468 12.3496 -1.56952
199 1 35.3119 10.7308 0.0334819 35.3119 10.7308 0.0334819
200 2 37.1712 10.744 1.70353 37.1712 10.744 1.70353
201 2 37.1967 10.7702 -1.67105 37.1967 10.7702 -1.67105
202 1 38.0133 12.4704 -0.0602692 38.0133 12.4704 -0.0602692
203 2 39.9002 12.6543 1.6851 39.9002 12.6543 1.6851
204 2 40.183 12.4029 -1.58822 40.183 12.4029 -1.58822
205 1 40.9874 10.9199 0.238817 40.9874 10.9199 0.238817
206 2 42.9909 10.8445 1.80581 42.9909 10.8445 1.80581
207 2 42.9309 11.0454 -1.47697 42.9309 11.0454 -1.47697
208 1 43.9733 12.5561 0.243104 43.9733 12.5561 0.243104
209 2 46.0459 12.7596 1.73277 46.0459 12.7596 1.73277
210 2 45.7232 12.2979 -1.55234 45.7232 12.2979 -1.55234
211 1 46.7908 10.864 0.263435 46.7908 10.864 0.263435
212 2 48.9603 10.9723 1.71907 48.9603 10.9723 1.71907
213 2 48.7067 10.683 -1.51832 48.7067 10.683 -1.51832
214 1 49.7061 12.5199 -0.140857 49.7061 12.5199 -0.140857
215 2 51.6683 12.5702 1.48175 51.6683 12.5702 1.48175
216 2 51.4565 12.378 -1.83507 51.4565 12.378 -1.83507
217 1 0.998098 14.1341 -0.270294 0.998098 14.1341 -0.270294
218 2 3.0198 14.1954 1.28262 3.0198 14.1954 1.28262
219 2 2.81807 14.105 -1.97871 2.81807 14.105 -1.97871
220 1 3.87714 15.8779 -0.565248 3.87714 15.8779 -0.565248
221 2 5.81623 16.1268 0.99283 5.81623 16.1268 0.99283
222 2 5.65748 15.426 -2.20369 5.65748 15.426 -2.20369
223 1 6.69581 14.2645 -0.347736 6.69581 14.2645 -0.347736
224 2 8.89544 14.3263 0.966527 8.89544 14.3263 0.966527
225 2 8.42282 13.9544 -2.2699 8.42282 13.9544 -2.2699
226 1 9.60207 15.7084 -0.908181 9.60207 15.7084 -0.908181
227 2 11.2815 15.9416 0.835462 11.2815 15.9416 0.835462
228 2 11.6172 15.7715 -2.4335 11.6172 15.7715 -2.4335
229 1 12.4353 14.1795 -0.565087 12.4353 14.1795 -0.565087
230 2 14.2772 14.2771 1.24804 14.2772 14.2771 1.24804
231 2 14.3969 14.108 -2.13858 14.3969 14.108 -2.13858
232 1 15.2073 15.8447 -0.411049 15.2073 15.8447 -0.411049
233 2 17.1302 15.9654 1.3672 17.1302 15.9654 1.3672
234 2 17.2229 15.7976 -1.94785 17.2229 15.7976 -1.94785
235 1 18.1241 14.1847 -0.177732 18.1241 14.1847 -0.177732
236 2 19.9667 14.1819 1.44764 19.9667 14.1819 1.44764
237 2 19.9927 14.2393 -1.79895 19.9927 14.2393 -1.79895
238 1 21.0686 15.8218 -0.141025 21.0686 15.8218 -0.141025
239 2 23.1127 15.7789 1.34157 23.1127 15.7789 1.34157
240 2 22.8636 15.7129 -1.93642 22.8636 15.7129 -1.93642
241 1 23.8098 14.2204 -0.37315 23.8098 14.2204 -0.37315
242 2 25.7261 14.5677 1.26515 25.7261 14.5677 1.26515
243 2 25.8175 14.0362 -1.93813 25.8175 14.0362 -1.93813
244 1 26.697 15.8716 -0.532028 26.697 15.8716 -0.532028
245 2 28.6102 15.893 1.16891 28.6102 15.893 1.16891
246 2 28.6735 15.7311 -2.15671 28.6735 15.7311 -2.15671
247 1 29.6034 14.1809 -0.316549 29.6034 14.1809 -0.316549
248 2 31.4243 14.2884 1.39714 31.4243 14.2884 1.39714
249 2 31.6263 13.7769 -1.82316 31.6263 13.7769 -1.82316
250 1 32.5052 15.7201 -0.437122 32.5052 15.7201 -0.437122
251 2 34.1707 15.8502 1.42038 34.1707 15.8502 1.42038
252 2 34.5248 15.9026 -1.77291 34.5248 15.9026 -1.77291
253 1 35.2551 14.1931 -0.130153 35.2551 14.1931 -0.130153
254 2 37.0057 14.1518 1.59304 37.0057 14.1518 1.59304
255 2 37.3017 14.1971 -1.69455 37.3017 14.1971 -1.69455
256 1 38.2385 15.8155 0.0897397 38.2385 15.8155 0.0897397
257 2 40.232 15.8526 1.53172 40.232 15.8526 1.53172
258 2 40.1527 15.5825 -1.63847 40.1527 15.5825 -1.63847
259 1 41.0934 14.1379 0.059899 41.0934 14.1379 0.059899
260 2 42.9897 14.4266 1.63084 42.9897 14.4266 1.63084
261 2 42.9992 14.1571 -1.58329 42.9992 14.1571 -1.58329
262 1 43.924 15.9046 -0.199282 43.924 15.9046 -0.199282
263 2 45.8228 15.8349 1.48276 45.8228 15.8349 1.48276
264 2 45.7254 15.7446 -1.87094 45.7254 15.7446 -1.87094
265 1 46.7437 14.1664 -0.177795 46.7437 14.1664 -0.177795
266 2 48.616 14.2495 1.44669 48.616 14.2495 1.44669
267 2 48.6647 14.1312 -1.81373 48.6647 14.1312 -1.81373
268 1 49.5907 15.7949 -0.321974 49.5907 15.7949 -0.321974
269 2 51.598 15.9827 1.14204 51.598 15.9827 1.14204
270 2 51.405 15.5834 -2.01744 51.405 15.5834 -2.01744
271 1 0.982976 17.5011 -0.725506 0.982976 17.5011 -0.725506
272 2 2.86289 17.7325 0.775815 2.86289 17.7325 0.775815
273 2 2.89677 17.2288 -2.39056 2.89677 17.2288 -2.39056
274 1 3.8138 19.0749 -0.988395 3.8138 19.0749 -0.988395
275 2 5.77054 19.394 0.427196 5.77054 19.394 0.427196
276 2 5.51639 18.9547 -2.82809 5.51639 18.9547 -2.82809
277 1 6.67405 17.4642 -1.02851 6.67405 17.4642 -1.02851
278 2 8.50747 17.6719 0.542985 8.50747 17.6719 0.542985
279 2 8.71069 17.2637 -2.77384 8.71069 17.2637 -2.77384
280 1 9.54935 19.0631 -1.19198 9.54935 19.0631 -1.19198
281 2 11.3468 19.2749 0.620449 11.3468 19.2749 0.620449
282 2 11.5848 18.9316 -2.74823 11.5848 18.9316 -2.74823
283 1 12.3831 17.5187 -0.82553 12.3831 17.5187 -0.82553
284 2 14.1307 17.6218 0.997331 14.1307 17.6218 0.997331
285 2 14.5681 17.3492 -2.26028 14.5681 17.3492 -2.26028
286 1 15.3111 19.1264 -0.712312 15.3111 19.1264 -0.712312
287 2 17.1346 19.0984 1.1176 17.1346 19.0984 1.1176
288 2 17.3601 19.0675 -2.13803 17.3601 19.0675 -2.13803
289 1 18.2429 17.4641 -0.366441 18.2429 17.4641 -0.366441
290 2 20.0019 17.6482 1.31451 20.0019 17.6482 1.31451
291 2 20.1127 17.3009 -1.89208 20.1127 17.3009 -1.89208
292 1 21.0407 19.1486 -0.353315 21.0407 19.1486 -0.353315
293 2 22.9286 18.9959 1.22984 22.9286 18.9959 1.22984
294 2 22.807 19.1391 -2.13182 22.807 19.1391 -2.13182
295 1 23.8509 17.469 -0.465184 23.8509 17.469 -0.465184
296 2 25.7099 17.4691 1.15317 25.7099 17.4691 1.15317
297 2 25.7328 17.5297 -2.1526 25.7328 17.5297 -2.1526
298 1 26.7252 19.1362 -0.572313 26.7252 19.1362 -0.572313
299 2 28.5255 18.8989 1.09014 28.5255 18.8989 1.09014
300 2 28.6631 19.2502 -2.12152 28.6631 19.2502 -2.12152
301 1 29.6673 17.4141 -0.646205 29.6673 17.4141 -0.646205
302 2 31.4359 17.3173 1.22608 31.4359 17.3173 1.22608
303 2 31.7312 17.4399 -2.09415 31.7312 17.4399 -2.09415
304 1 32.4157 19.0931 -0.135828 32.4157 19.0931 -0.135828
305 2 34.2482 19.0496 1.60545 34.2482 19.0496 1.60545
306 2 34.3939 19.1852 -1.77275 34.3939 19.1852 -1.77275
307 1 35.3225 17.4864 -0.150367 35.3225 17.4864 -0.150367
308 2 37.1409 17.4918 1.66217 37.1409 17.4918 1.66217
309 2 37.42 17.5319 -1.52387 37.42 17.5319 -1.52387
310 1 38.1634 19.1927 0.221055 38.1634 19.1927 0.221055
311 2 40.2416 19.0392 1.5499 40.2416 19.0392 1.5499
312 2 39.9451 19.3364 -1.66541 39.9451 19.3364 -1.66541
313 1 41.1145 17.4642 -0.28784 41.1145 17.4642 -0.28784
314 2 42.973 17.4611 1.41194 42.973 17.4611 1.41194
315 2 43.0979 17.5345 -1.88809 43.0979 17.5345 -1.88809
316 1 44.0217 19.0783 -0.213219 44.0217 19.0783 -0.213219
317 2 45.916 19.1396 1.3541 45.916 19.1396 1.3541
318 2 45.8007 19.1422 -1.92278 45.8007 19.1422 -1.92278
319 1 46.8385 17.4923 -0.269078 46.8385 17.4923 -0.269078
320 2 48.6851 17.4092 1.36672 48.6851 17.4092 1.36672
321 2 48.7161 17.5044 -1.9204 48.7161 17.5044 -1.9204
322 1 49.6529 19.0863 -0.2125 49.6529 19.0863 -0.2125
323 2 51.7801 19.1353 1.06959 51.7801 19.1353 1.06959
324 2 51.1405 19.0859 -2.19056 51.1405 19.0859 -2.19056
325 1 1.01707 20.821 -0.720953 1.01707 20.821 -0.720953
326 2 3.26012 20.7532 0.664362 3.26012 20.7532 0.664362
327 2 2.68146 20.7421 -2.57273 2.68146 20.7421 -2.57273
328 1 3.90601 22.3927 -1.17909 3.90601 22.3927 -1.17909
329 2 5.86937 22.4159 0.280542 5.86937 22.4159 0.280542
330 2 5.66217 22.5604 -2.95626 5.66217 22.5604 -2.95626
331 1 6.65973 20.7493 -1.51278 6.65973 20.7493 -1.51278
332 2 8.42781 20.8506 0.283186 8.42781 20.8506 0.283186
333 2 8.67916 20.7539 -2.99649 8.67916 20.7539 -2.99649
334 1 9.49024 22.435 -1.28997 9.49024 22.435 -1.28997
335 2 11.3763 22.3554 0.507453 11.3763 22.3554 0.507453
336 2 11.5775 22.433 -2.7197 11.5775 22.433 -2.7197
337 1 12.3822 20.7432 -1.0795 12.3822 20.7432 -1.0795
338 2 14.2064 20.8513 0.775328 14.2064 20.8513 0.775328
339 2 14.4941 20.7256 -2.44657 14.4941 20.7256 -2.44657
340 1 15.3508 22.4428 -0.816341 15.3508 22.4428 -0.816341
341 2 17.1578 22.513 0.991906 17.1578 22.513 0.991906
342 2 17.3252 22.2501 -2.29238 17.3252 22.2501 -2.29238
343 1 18.1788 20.7663 -0.539352 18.1788 20.7663 -0.539352
344 2 19.9672 20.7987 1.24217 19.9672 20.7987 1.24217
345 2 20.1877 20.7201 -2.05269 20.1877 20.7201 -2.05269
346 1 20.9701 22.3818 -0.394548 20.9701 22.3818 -0.394548
347 2 22.8336 22.5012 1.14181 22.8336 22.5012 1.14181
348 2 22.693 22.2262 -2.12132 22.693 22.2262 -2.12132
349 1 23.8351 20.7938 -0.396726 23.8351 20.7938 -0.396726
350 2 25.8734 20.7743 1.10999 25.8734 20.7743 1.10999
351 2 25.6069 20.8282 -2.19094 25.6069 20.8282 -2.19094
352 1 26.6966 22.4329 -0.627156 26.6966 22.4329 -0.627156
353 2 28.377 22.3679 1.10782 28.377 22.3679 1.10782
354 2 28.5762 22.239 -2.15813 28.5762 22.239 -2.15813
355 1 29.4643 20.7284 -0.36921 29.4643 20.7284 -0.36921
356 2 31.3062 20.7668 1.40649 31.3062 20.7668 1.40649
357 2 31.5772 20.7218 -1.80186 31.5772 20.7218 -1.80186
358 1 32.3174 22.3795 -0.1852 32.3174 22.3795 -0.1852
359 2 34.0659 22.4696 1.57118 34.0659 22.4696 1.57118
360 2 34.2634 22.4051 -1.70815 34.2634 22.4051 -1.70815
361 1 35.258 20.7536 0.0357058 35.258 20.7536 0.0357058
362 2 37.1818 20.9044 1.77445 37.1818 20.9044 1.77445
363 2 37.1953 20.6738 -1.53369 37.1953 20.6738 -1.53369
364 1 38.0946 22.4423 0.0356782 38.0946 22.4423 0.0356782
365 2 40.1572 22.3999 1.59737 40.1572 22.3999 1.59737
366 2 40.1885 22.4698 -1.66193 40.1885 22.4698 -1.66193
367 1 41.058 20.7879 -0.0333104 41.058 20.7879 -0.0333104
368 2 43.2051 20.8521 1.38734 43.2051 20.8521 1.38734
369 2 42.8107 20.6569 -1.81419 42.8107 20.6569 -1.81419
370 1 43.9478 22.4368 -0.323511 43.9478 22.4368 -0.323511
371 2 45.9625 22.5407 1.17879 45.9625 22.5407 1.17879
372 2 45.9149 22.2671 -2.15541 45.9149 22.2671 -2.15541
373 1 46.83 20.8148 -0.351979 46.83 20.8148 -0.351979
374 2 48.7191 20.9363 1.21548 48.7191 20.9363 1.21548
375 2 48.668 20.5906 -2.0252 48.668 20.5906 -2.0252
376 1 49.6292 22.4357 -0.580329 49.6292 22.4357 -0.580329
377 2 51.7035 22.4716 0.866498 51.7035 22.4716 0.866498
378 2 51.3328 22.3662 -2.39897 51.3328 22.3662 -2.39897
379 1 0.962575 24.0248 -0.999975 0.962575 24.0248 -0.999975
380 2 2.88977 23.9474 0.560622 2.88977 23.9474 0.560622
381 2 2.80703 24.1099 -2.67895 2.80703 24.1099 -2.67895
382 1 3.87114 25.6787 -1.05733 3.87114 25.6787 -1.05733
383 2 5.79402 25.6607 0.497254 5.79402 25.6607 0.497254
384 2 5.73829 25.8282 -2.82622 5.73829 25.8282 -2.82622
385 1 6.75096 24.109 -1.3636 6.75096 24.109 -1.3636
386 2 8.53138 24.0223 0.373384 8.53138 24.0223 0.373384
387 2 8.70603 24.1098 -2.95572 8.70603 24.1098 -2.95572
388 1 9.54584 25.7625 -1.16405 9.54584 25.7625 -1.16405
389 2 11.2653 25.5729 0.571855 11.2653 25.5729 0.571855
390 2 11.594 25.8489 -2.60024 11.594 25.8489 -2.60024
391 1 12.4668 24.0502 -1.0534 12.4668 24.0502 -1.0534
392 2 14.3192 24.0609 0.787678 14.3192 24.0609 0.787678
393 2 14.4854 24.1173 -2.48308 14.4854 24.1173 -2.48308
394 1 15.2887 25.7368 -0.766841 15.2887 25.7368 -0.766841
395 2 17.1462 25.5992 0.990064 17.1462 25.5992 0.990064
396 2 17.1884 25.8076 -2.33669 17.1884 25.8076 -2.33669
397 1 18.1457 24.1193 -0.700182 18.1457 24.1193 -0.700182
398 2 20.0465 24.2574 0.974957 20.0465 24.2574 0.974957
399 2 20.0467 23.9683 -2.20897 20.0467 23.9683 -2.20897
400 1 21.0203 25.7664 -0.725793 21.0203 25.7664 -0.725793
401 2 22.923 25.918 0.775236 22.923 25.918 0.775236
402 2 22.7659 25.5566 -2.45859 22.7659 25.5566 -2.45859
403 1 23.7229 24.0406 -0.660753 23.7229 24.0406 -0.660753
404 2 25.6126 24.0765 1.05185 25.6126 24.0765 1.05185
405 2 25.6486 24.0667 -2.29438 25.6486 24.0667 -2.29438
406 1 26.6875 25.7146 -0.556026 26.6875 25.7146 -0.556026
407 2 28.5163 25.5479 1.1651 28.5163 25.5479 1.1651
408 2 28.6686 25.7799 -2.07208 28.6686 25.7799 -2.07208
409 1 29.4272 23.9824 -0.508428 29.4272 23.9824 -0.508428
410 2 31.2344 23.9275 1.39793 31.2344 23.9275 1.39793
411 2 31.4977 24.0874 -1.82592 31.4977 24.0874 -1.82592
412 1 32.3131 25.7124 -0.144698 32.3131 25.7124 -0.144698
413 2 34.1715 25.7217 1.53179 34.1715 25.7217 1.53179
414 2 34.3282 25.682 -1.65351 34.3282 25.682 -1.65351
415 1 35.167 24.0781 -0.0428742 35.167 24.0781 -0.0428742
416 2 37.0219 24.1966 1.64405 37.0219 24.1966 1.64405
417 2 37.1358 24.0712 -1.65094 37.1358 24.0712 -1.65094
418 1 38.1702 25.6895 -0.0353555 38.1702 25.6895 -0.0353555
419 2 40.1737 25.7591 1.52133 40.1737 25.7591 1.52133
420 2 40.0468 25.7044 -1.70823 40.0468 25.7044 -1.70823
421 1 41.1222 24.0896 -0.0786452 41.1222 24.0896 -0.0786452
422 2 43.0773 24.1865 1.4334 43.0773 24.1865 1.4334
423 2 42.7699 24.1531 -1.92307 42.7699 24.1531 -1.92307
424 1 43.9479 25.7652 -0.285452 43.9479 25.7652 -0.285452
425 2 46.043 25.6033 1.19082 46.043 25.6033 1.19082
426 2 45.6944 25.9637 -2.11195 45.6944 25.9637 -2.11195
427 1 46.7684 24.0601 -0.684484 46.7684 24.0601 -0.684484
428 2 48.6332 24.0313 0.98739 48.6332 24.0313 0.98739
429 2 48.8369 24.1081 -2.20855 48.8369 24.1081 -2.20855
430 1 49.522 25.6836 -0.515174 49.522 25.6836 -0.515174
431 2 51.6655 25.6303 0.696971 51.6655 25.6303 0.696971
432 2 51.3137 25.7245 -2.37617 51.3137 25.7245 -2.37617
433 1 0.958401 27.4368 -0.870221 0.958401 27.4368 -0.870221
434 2 2.71161 27.1526 0.847748 2.71161 27.1526 0.847748
435 2 2.96224 27.6285 -2.42124 2.96224 27.6285 -2.42124
436 1 3.8887 29.0308 -0.423561 3.8887 29.0308 -0.423561
437 2 6.02191 28.7823 0.930629 6.02191 28.7823 0.930629
438 2 5.62346 29.3264 -2.33477 5.62346 29.3264 -2.33477
439 1 6.70433 27.4162 -1.01396 6.70433 27.4162 -1.01396
440 2 8.54542 27.2226 0.621937 8.54542 27.2226 0.621937
441 2 8.68726 27.5564 -2.60771 8.68726 27.5564 -2.60771
442 1 9.53464 29.0807 -0.723099 9.53464 29.0807 -0.723099
443 2 11.3721 28.848 0.957144 11.3721 28.848 0.957144
444 2 11.5074 29.1109 -2.31372 11.5074 29.1109 -2.31372
445 1 12.412 27.3734 -0.789412 12.412 27.3734 -0.789412
446 2 14.2791 27.3673 0.853985 14.2791 27.3673 0.853985
447 2 14.2826 27.3361 -2.39087 14.2826 27.3361 -2.39087
448 1 15.2415 28.9814 -0.76242 15.2415 28.9814 -0.76242
449 2 17.0781 29.0393 1.01373 17.0781 29.0393 1.01373
450 2 17.313 28.9966 -2.21492 17.313 28.9966 -2.21492
451 1 18.13 27.3924 -0.484955 18.13 27.3924 -0.484955
452 2 20.15 27.49 0.972096 20.15 27.49 0.972096
453 2 19.8162 27.3409 -2.2589 19.8162 27.3409 -2.2589
454 1 20.9672 29.0357 -0.865635 20.9672 29.0357 -0.865635
455 2 22.8147 28.9356 0.716667 22.8147 28.9356 0.716667
456 2 22.696 29.1642 -2.61895 22.696 29.1642 -2.61895
457 1 23.7536 27.4035 -0.966878 23.7536 27.4035 -0.966878
458 2 25.5961 27.3642 0.959459 25.5961 27.3642 0.959459
459 2 26.0058 27.3491 -2.2893 26.0058 27.3491 -2.2893
460 1 26.7058 29.0622 -0.572208 26.7058 29.0622 -0.572208
461 2 28.4618 28.992 1.28395 28.4618 28.992 1.28395
462 2 28.7474 29.0807 -2.0201 28.7474 29.0807 -2.0201
463 1 29.4845 27.3486 -0.331892 29.4845 27.3486 -0.331892
464 2 31.3162 27.3332 1.40984 31.3162 27.3332 1.40984
465 2 31.3952 27.3417 -1.88787 31.3952 27.3417 -1.88787
466 1 32.3232 28.9573 -0.148093 32.3232 28.9573 -0.148093
467 2 34.2575 29.1507 1.48353 34.2575 29.1507 1.48353
468 2 34.1667 28.7098 -1.78613 34.1667 28.7098 -1.78613
469 1 35.2755 27.3311 -0.00661823 35.2755 27.3311 -0.00661823
470 2 37.3154 27.3316 1.55771 37.3154 27.3316 1.55771
471 2 37.0565 27.158 -1.7039 37.0565 27.158 -1.7039
472 1 38.1401 29.0237 -0.176443 38.1401 29.0237 -0.176443
473 2 40.0255 28.9764 1.40099 40.0255 28.9764 1.40099
474 2 39.95 29.0398 -1.81736 39.95 29.0398 -1.81736
475 1 40.9745 27.3715 -0.284915 40.9745 27.3715 -0.284915
476 2 42.7935 27.3702 1.4705 42.7935 27.3702 1.4705
477 2 42.9776 27.437 -1.83306 42.9776 27.437 -1.83306
478 1 43.9059 29.0329 -0.117718 43.9059 29.0329 -0.117718
479 2 45.7548 28.7511 1.56763 45.7548 28.7511 1.56763
480 2 45.8248 29.3859 -1.61639 45.8248 29.3859 -1.61639
481 1 46.7459 27.4276 -0.291391 46.7459 27.4276 -0.291391
482 2 48.6683 27.2107 1.22105 48.6683 27.2107 1.22105
483 2 48.6386 27.476 -2.00829 48.6386 27.476 -2.00829
484 1 49.5979 29.0057 -0.219752 49.5979 29.0057 -0.219752
485 2 51.6535 28.7756 1.19729 51.6535 28.7756 1.19729
486 2 51.3544 29.5228 -1.91054 51.3544 29.5228 -1.91054
487 1 1.04457 30.7576 -0.0640523 1.04457 30.7576 -0.0640523
488 2 2.97366 30.4995 1.39493 2.97366 30.4995 1.39493
489 2 2.82978 30.8149 -1.83674 2.82978 30.8149 -1.83674
490 1 3.90385 32.3712 -0.100814 3.90385 32.3712 -0.100814
491 2 5.82627 31.9808 1.45954 5.82627 31.9808 1.45954
492 2 5.77669 32.7344 -1.62744 5.77669 32.7344 -1.62744
493 1 6.76141 30.6999 -0.492257 6.76141 30.6999 -0.492257
494 2 8.675 30.4679 1.12411 8.675 30.4679 1.12411
495 2 8.5823 30.8513 -2.11474 8.5823 30.8513 -2.11474
496 1 9.55771 32.277 -0.318423 9.55771 32.277 -0.318423
497 2 11.557 32.2392 1.21445 11.557 32.2392 1.21445
498 2 11.2854 32.3595 -2.12205 11.2854 32.3595 -2.12205
499 1 12.3902 30.6349 -0.527592 12.3902 30.6349 -0.527592
500 2 14.4784 30.5977 0.932451 14.4784 30.5977 0.932451
501 2 14.2263 30.6368 -2.30352 14.2263 30.6368 -2.30352
502 1 15.3149 32.2842 -0.695946 15.3149 32.2842 -0.695946
503 2 17.1168 32.2233 1.02035 17.1168 32.2233 1.02035
504 2 17.2088 32.3183 -2.2952 17.2088 32.3183 -2.2952
505 1 18.0565 30.6589 -0.574016 18.0565 30.6589 -0.574016
506 2 20.0568 30.5827 0.869989 20.0568 30.5827 0.869989
507 2 19.8909 30.7841 -2.3724 19.8909 30.7841 -2.3724
508 1 21.0113 32.2949 -0.695046 21.0113 32.2949 -0.695046
509 2 22.8946 32.2413 0.932891 22.8946 32.2413 0.932891
510 2 22.8874 32.3615 -2.39665 22.8874 32.3615 -2.39665
511 1 23.8275 30.6558 -0.834905 23.8275 30.6558 -0.834905
512 2 25.5968 30.6725 1.02824 25.5968 30.6725 1.02824
513 2 26.006 30.8029 -2.24559 26.006 30.8029 -2.24559
514 1 26.6939 32.3851 -0.406598 26.6939 32.3851 -0.406598
515 2 28.5509 32.3962 1.30361 28.5509 32.3962 1.30361
516 2 28.6264 32.3199 -2.0127 28.6264 32.3199 -2.0127
517 1 29.5069 30.7091 -0.269898 29.5069 30.7091 -0.269898
518 2 31.3053 30.7485 1.37427 31.3053 30.7485 1.37427
519 2 31.4516 30.4347 -1.96403 31.4516 30.4347 -1.96403
520 1 32.315 32.3709 -0.390222 32.315 32.3709 -0.390222
521 2 34.1205 32.1373 1.29543 34.1205 32.1373 1.29543
522 2 34.2413 32.385 -1.97373 34.2413 32.385 -1.97373
523 1 35.146 30.5854 -0.379708 35.146 30.5854 -0.379708
524 2 37.0185 30.5321 1.45204 37.0185 30.5321 1.45204
525 2 37.3304 30.756 -1.81455 37.3304 30.756 -1.81455
526 1 38.038 32.3595 0.0968175 38.038 32.3595 0.0968175
527 2 40.1096 32.207 1.63619 40.1096 32.207 1.63619
528 2 39.7723 32.5785 -1.57364 39.7723 32.5785 -1.57364
529 1 40.8959 30.7607 -0.221958 40.8959 30.7607 -0.221958
530 2 42.6685 30.574 1.56288 42.6685 30.574 1.56288
531 2 43.0163 30.8127 -1.67432 43.0163 30.8127 -1.67432
532 1 43.7739 32.3188 0.124506 43.7739 32.3188 0.124506
533 2 45.6972 32.3065 1.81488 45.6972 32.3065 1.81488
534 2 45.8502 32.3647 -1.35752 45.8502 32.3647 -1.35752
535 1 46.7179 30.7001 0.306554 46.7179 30.7001 0.306554
536 2 48.8076 30.3319 1.74106 48.8076 30.3319 1.74106
537 2 48.6195 30.9167 -1.45386 48.6195 30.9167 -1.45386
538 1 49.6608 32.3253 0.350706 49.6608 32.3253 0.350706