ITEM: TIMESTEP
37900
ITEM: NUMBER OF ATOMS
810
ITEM: BOX BOUNDS pp pp pp
7.5145993232341224e-01 5.2266145067677542e+01
8.5563224806700822e-01 5.0160582751932154e+01
-1.0000000000000000e+01 1.0000000000000000e+01
ITEM: ATOMS id type x y z xu yu zu
1 1 0.908641 1.05898 -0.677299 0.908641 1.05898 -0.677299
2 2 2.90325 0.954306 0.902443 2.90325 0.954306 0.902443
3 2 2.65762 0.885712 -2.32228 2.65762 0.885712 -2.32228
4 1 3.8529 2.67895 -0.815879 3.8529 2.67895 -0.815879
5 2 5.83124 2.64107 0.76824 5.83124 2.64107 0.76824
6 2 5.7387 2.70413 -2.39253 5.7387 2.70413 -2.39253
7 1 6.70471 0.988407 -0.842385 6.70471 0.988407 -0.842385
8 2 8.37502 1.08275 0.968306 8.37502 1.08275 0.968306
9 2 8.7022 1.08161 -2.32646 8.7022 1.08161 -2.32646
10 1 9.5579 2.79252 -0.506666 9.5579 2.79252 -0.506666
11 2 11.4265 2.59997 1.28477 11.4265 2.59997 1.28477
12 2 11.6194 2.63667 -2.06982 11.6194 2.63667 -2.06982
13 1 12.5708 1.03508 -0.389151 12.5708 1.03508 -0.389151
14 2 14.2908 1.03657 1.38628 14.2908 1.03657 1.38628
15 2 14.6042 1.12869 -1.84499 14.6042 1.12869 -1.84499
16 1 15.3983 2.67749 -0.0655886 15.3983 2.67749 -0.0655886
17 2 17.1801 2.81488 1.66539 17.1801 2.81488 1.66539
18 2 17.3514 2.50878 -1.63162 17.3514 2.50878 -1.63162
19 1 18.1807 1.06029 0.199079 18.1807 1.06029 0.199079
20 2 19.9125 1.21241 1.94101 19.9125 1.21241 1.94101
21 2 20.2002 1.09388 -1.32628 20.2002 1.09388 -1.32628
22 1 21.0561 2.79242 0.346867 21.0561 2.79242 0.346867
23 2 22.7759 2.91891 2.12199 22.7759 2.91891 2.12199
24 2 23.074 2.67432 -1.18784 23.074 2.67432 -1.18784
25 1 23.8557 1.08228 0.620617 23.8557 1.08228 0.620617
26 2 25.8381 1.28403 2.23131 25.8381 1.28403 2.23131
27 2 25.7679 1.09793 -0.917676 25.7679 1.09793 -0.917676
28 1 26.8399 2.74806 0.505227 26.8399 2.74806 0.505227
29 2 28.703 2.96181 2.12132 28.703 2.96181 2.12132
30 2 28.6924 2.58118 -1.18166 28.6924 2.58118 -1.18166
31 1 29.7081 1.13759 0.657227 29.7081 1.13759 0.657227
32 2 31.6752 1.0839 2.12289 31.6752 1.0839 2.12289
33 2 31.4317 1.11215 -1.13706 31.4317 1.11215 -1.13706
34 1 32.4923 2.75927 0.391389 32.4923 2.75927 0.391389
35 2 34.6022 2.8977 1.75486 34.6022 2.8977 1.75486
36 2 34.1697 2.64438 -1.47387 34.1697 2.64438 -1.47387
37 1 35.3559 1.04847 0.210066 35.3559 1.04847 0.210066
38 2 37.2446 1.19491 1.69839 37.2446 1.19491 1.69839
39 2 37.1904 0.943371 -1.48069 37.1904 0.943371 -1.48069
40 1 38.181 2.71513 0.0264601 38.181 2.71513 0.0264601
41 2 40.283 3.02162 1.48903 40.283 3.02162 1.48903
42 2 39.9926 2.54991 -1.69162 39.9926 2.54991 -1.69162
43 1 41.0611 1.10553 0.0827608 41.0611 1.10553 0.0827608
44 2 43.1127 1.18753 1.48541 43.1127 1.18753 1.48541
45 2 42.8839 0.978685 -1.77784 42.8839 0.978685 -1.77784
46 1 43.8248 2.80659 -0.288807 43.8248 2.80659 -0.288807
47 2 45.8982 2.81993 1.07189 45.8982 2.81993 1.07189
48 2 45.5699 2.58263 -2.1263 45.5699 2.58263 -2.1263
49 1 46.6366 1.00422 -0.509959 46.6366 1.00422 -0.509959
50 2 48.675 1.22884 0.986456 48.675 1.22884 0.986456
51 2 48.6279 50.1221 -2.26298 48.6279 0.817152 -2.26298
52 1 49.5463 2.69141 -0.857615 49.5463 2.69141 -0.857615
53 2 51.5316 2.94821 0.674967 51.5316 2.94821 0.674967
54 2 51.4611 2.50543 -2.51181 51.4611 2.50543 -2.51181
55 1 0.935058 4.37057 -1.17134 0.935058 4.37057 -1.17134
56 2 2.7504 4.42046 0.708578 2.7504 4.42046 0.708578
57 2 2.98371 4.20359 -2.56072 2.98371 4.20359 -2.56072
58 1 3.9191 6.03281 -0.834658 3.9191 6.03281 -0.834658
59 2 5.82686 6.10874 0.870136 5.82686 6.10874 0.870136
60 2 5.81837 6.02429 -2.46193 5.81837 6.02429 -2.46193
61 1 6.74574 4.36593 -0.828418 6.74574 4.36593 -0.828418
62 2 8.40843 4.29164 1.01559 8.40843 4.29164 1.01559
63 2 8.74677 4.30743 -2.26956 8.74677 4.30743 -2.26956
64 1 9.5625 5.90927 -0.570685 9.5625 5.90927 -0.570685
65 2 11.3222 5.93862 1.21289 11.3222 5.93862 1.21289
66 2 11.5472 5.8825 -1.97818 11.5472 5.8825 -1.97818
67 1 12.3992 4.27719 -0.35234 12.3992 4.27719 -0.35234
68 2 14.1861 4.50572 1.30355 14.1861 4.50572 1.30355
69 2 14.464 4.26155 -1.83012 14.464 4.26155 -1.83012
70 1 15.2574 6.05002 -0.374129 15.2574 6.05002 -0.374129
71 2 17.0255 6.19412 1.3713 17.0255 6.19412 1.3713
72 2 17.2958 5.95243 -1.86558 17.2958 5.95243 -1.86558
73 1 18.1622 4.42793 -0.0580204 18.1622 4.42793 -0.0580204
74 2 19.8871 4.57456 1.82452 19.8871 4.57456 1.82452
75 2 20.171 4.36134 -1.53827 20.171 4.36134 -1.53827
76 1 21.0457 6.05753 0.135056 21.0457 6.05753 0.135056
77 2 22.9699 6.28186 1.88781 22.9699 6.28186 1.88781
78 2 23.0076 5.90163 -1.42317 23.0076 5.90163 -1.42317
79 1 23.9745 4.35849 0.495389 23.9745 4.35849 0.495389
80 2 26.0411 4.63841 1.97155 26.0411 4.63841 1.97155
81 2 25.7157 4.03663 -1.21883 25.7157 4.03663 -1.21883
82 1 26.7358 5.92762 0.0248091 26.7358 5.92762 0.0248091
83 2 28.7409 6.35785 1.53021 28.7409 6.35785 1.53021
84 2 28.5117 5.72165 -1.65618 28.5117 5.72165 -1.65618
85 1 29.6551 4.34388 0.246188 29.6551 4.34388 0.246188
86 2 31.7386 4.71829 1.74492 31.7386 4.71829 1.74492
87 2 31.4389 4.15587 -1.44217 31.4389 4.15587 -1.44217
88 1 32.4524 6.05774 -0.170311 32.4524 6.05774 -0.170311
89 2 34.3599 6.13888 1.48389 34.3599 6.13888 1.48389
90 2 34.4134 5.92345 -1.72157 34.4134 5.92345 -1.72157
91 1 35.3233 4.36737 -0.0706202 35.3233 4.36737 -0.0706202
92 2 37.2219 4.62842 1.49214 37.2219 4.62842 1.49214
93 2 37.2339 4.10304 -1.78194 37.2339 4.10304 -1.78194
94 1 38.1717 6.01458 -0.423756 38.1717 6.01458 -0.423756
95 2 40.0215 6.07866 1.2718 40.0215 6.07866 1.2718
96 2 39.9889 6.04682 -2.07821 39.9889 6.04682 -2.07821
97 1 41.0024 4.41695 -0.442151 41.0024 4.41695 -0.442151
98 2 42.8831 4.6781 1.14617 42.8831 4.6781 1.14617
99 2 42.8062 4.33062 -2.09513 42.8062 4.33062 -2.09513
100 1 43.7848 6.16786 -0.70754 43.7848 6.16786 -0.70754
101 2 45.576 6.12306 0.948442 45.576 6.12306 0.948442
102 2 45.7943 6.1556 -2.35337 45.7943 6.1556 -2.35337
103 1 46.71 4.35854 -0.731752 46.71 4.35854 -0.731752
104 2 48.5957 4.37372 0.800423 48.5957 4.37372 0.800423
105 2 48.4649 4.21381 -2.48387 48.4649 4.21381 -2.48387
106 1 49.6178 5.93227 -0.976672 49.6178 5.93227 -0.976672
107 2 51.5587 5.89285 0.5448 51.5587 5.89285 0.5448
108 2 51.4308 6.13077 -2.776 51.4308 6.13077 -2.776
109 1 1.03985 7.54701 -1.02634 1.03985 7.54701 -1.02634
110 2 2.76449 7.61614 0.701972 2.76449 7.61614 0.701972
111 2 3.0588 7.71575 -2.45455 3.0588 7.71575 -2.45455
112 1 3.85724 9.28648 -0.759091 3.85724 9.28648 -0.759091
113 2 5.74894 9.24735 0.858664 5.74894 9.24735 0.858664
114 2 5.76179 9.30111 -2.38793 5.76179 9.30111 -2.38793
115 1 6.74023 7.70488 -0.763279 6.74023 7.70488 -0.763279
116 2 8.67463 7.73179 0.977479 8.67463 7.73179 0.977479
117 2 8.69562 7.66303 -2.35694 8.69562 7.66303 -2.35694
118 1 9.68637 9.22363 -0.729373 9.68637 9.22363 -0.729373
119 2 11.4001 9.43395 1.14914 11.4001 9.43395 1.14914
120 2 11.574 9.2693 -2.18266 11.574 9.2693 -2.18266
121 1 12.5063 7.62485 -0.337871 12.5063 7.62485 -0.337871
122 2 14.3444 7.70926 1.20866 14.3444 7.70926 1.20866
123 2 14.4078 7.69497 -2.0488 14.4078 7.69497 -2.0488
124 1 15.2766 9.30752 -0.39282 15.2766 9.30752 -0.39282
125 2 17.1446 9.33679 1.28288 17.1446 9.33679 1.28288
126 2 17.2098 9.19902 -1.94549 17.2098 9.19902 -1.94549
127 1 18.1387 7.67953 -0.246265 18.1387 7.67953 -0.246265
128 2 19.8381 7.7381 1.52609 19.8381 7.7381 1.52609
129 2 20.1911 7.56827 -1.74148 20.1911 7.56827 -1.74148
130 1 21.0232 9.27444 0.0144119 21.0232 9.27444 0.0144119
131 2 23.1295 9.48595 1.59269 23.1295 9.48595 1.59269
132 2 22.836 9.17237 -1.70415 22.836 9.17237 -1.70415
133 1 23.9168 7.70889 0.0093326 23.9168 7.70889 0.0093326
134 2 25.9086 7.72359 1.50321 25.9086 7.72359 1.50321
135 2 25.7441 7.481 -1.69842 25.7441 7.481 -1.69842
136 1 26.676 9.24444 -0.27962 26.676 9.24444 -0.27962
137 2 28.6774 9.33708 1.22944 28.6774 9.33708 1.22944
138 2 28.3874 9.38132 -2.00906 28.3874 9.38132 -2.00906
139 1 29.5513 7.72076 -0.496509 29.5513 7.72076 -0.496509
140 2 31.3459 7.78023 1.21247 31.3459 7.78023 1.21247
141 2 31.6224 7.45359 -1.89575 31.6224 7.45359 -1.89575
142 1 32.429 9.2878 -0.384602 32.429 9.2878 -0.384602
143 2 34.2511 9.49788 1.21774 34.2511 9.49788 1.21774
144 2 34.4987 9.13138 -1.9665 34.4987 9.13138 -1.9665
145 1 35.3174 7.69689 -0.151004 35.3174 7.69689 -0.151004
146 2 37.4847 7.72615 1.26265 37.4847 7.72615 1.26265
147 2 37.0659 7.65617 -2.01 37.0659 7.65617 -2.01
148 1 38.1579 9.28393 -0.540574 38.1579 9.28393 -0.540574
149 2 40.0985 9.56657 1.02597 40.0985 9.56657 1.02597
150 2 40.0989 9.16156 -2.25747 40.0989 9.16156 -2.25747
151 1 40.9962 7.73488 -0.466173 40.9962 7.73488 -0.466173
152 2 43.0991 7.89663 0.853927 43.0991 7.89663 0.853927
153 2 42.6402 7.71518 -2.3173 42.6402 7.71518 -2.3173
154 1 43.905 9.42492 -1.02682 43.905 9.42492 -1.02682
155 2 45.8365 9.57117 0.665292 45.8365 9.57117 0.665292
156 2 45.8146 9.07612 -2.5436 45.8146 9.07612 -2.5436
157 1 46.7623 7.60949 -0.624103 46.7623 7.60949 -0.624103
158 2 48.8904 7.52797 0.713852 48.8904 7.52797 0.713852
159 2 48.4891 7.55189 -2.53306 48.4891 7.55189 -2.53306
160 1 49.6836 9.27398 -1.14251 49.6836 9.27398 -1.14251
161 2 51.5344 9.31092 0.541516 51.5344 9.31092 0.541516
162 2 51.5681 9.08978 -2.69941 51.5681 9.08978 -2.69941
163 1 0.973993 10.8834 -1.19113 0.973993 10.8834 -1.19113
164 2 2.48962 10.6317 0.776059 2.48962 10.6317 0.776059
165 2 3.17708 11.2398 -2.31764 3.17708 11.2398 -2.31764
166 1 3.76339 12.6382 -0.356053 3.76339 12.6382 -0.356053
167 2 5.94373 12.4547 1.08561 5.94373 12.4547 1.08561
168 2 5.68102 12.8013 -2.11541 5.68102 12.8013 -2.11541
169 1 6.70506 10.9537 -0.735554 6.70506 10.9537 -0.735554
170 2 8.49004 10.8332 0.903179 8.49004 10.8332 0.903179
171 2 8.78767 10.8688 -2.3503 8.78767 10.8688 -2.3503
172 1 9.50701 12.5208 -0.570158 9.50701 12.5208 -0.570158
173 2 11.46 12.5729 1.05708 11.46 12.5729 1.05708
174 2 11.519 12.4358 -2.19541 11.519 12.4358 -2.19541
175 1 12.4071 10.9249 -0.459931 12.4071 10.9249 -0.459931
176 2 14.3877 11.1116 1.07729 14.3877 11.1116 1.07729
177 2 14.2581 10.7727 -2.11814 14.2581 10.7727 -2.11814
178 1 15.1906 12.611 -0.71717 15.1906 12.611 -0.71717
179 2 17.0201 12.7226 1.0534 17.0201 12.7226 1.0534
180 2 17.1336 12.3738 -2.15044 17.1336 12.3738 -2.15044
181 1 18.1279 10.9088 -0.341044 18.1279 10.9088 -0.341044
182 2 19.9803 11.2164 1.33434 19.9803 11.2164 1.33434
183 2 19.9839 10.6738 -1.86812 19.9839 10.6738 -1.86812
184 1 20.9586 12.5611 -0.47571 20.9586 12.5611 -0.47571
185 2 22.7565 12.5817 1.21535 22.7565 12.5817 1.21535
186 2 22.8684 12.3856 -2.09687 22.8684 12.3856 -2.09687
187 1 23.8479 10.9218 -0.33241 23.8479 10.9218 -0.33241
188 2 25.7058 10.9391 1.31156 25.7058 10.9391 1.31156
189 2 25.7063 10.9146 -1.92785 25.7063 10.9146 -1.92785
190 1 26.6536 12.5707 -0.29325 26.6536 12.5707 -0.29325
191 2 28.5659 12.5762 1.31154 28.5659 12.5762 1.31154
192 2 28.602 12.8611 -1.90998 28.602 12.8611 -1.90998
193 1 29.53 10.9728 -0.445775 29.53 10.9728 -0.445775
194 2 31.377 11.0138 1.22704 31.377 11.0138 1.22704
195 2 31.5218 11.1052 -2.07813 31.5218 11.1052 -2.07813
196 1 32.391 12.6572 -0.25959 32.391 12.6572 -0.25959
197 2 34.5089 12.8599 1.16504 34.5089 12.8599 1.16504
198 2 34.1329 12.4916 -2.11539 34.1329 12.4916 -2.11539
199 1 35.2984 11.0306 -0.504766 35.2984 11.0306 -0.504766
200 2 37.2193 11.0841 1.00855 37.2193 11.0841 1.00855
201 2 37.0343 10.7083 -2.30535 37.0343 10.7083 -2.30535
202 1 38.2315 12.5435 -0.860872 38.2315 12.5435 -0.860872
203 2 40.2033 12.6298 0.647148 40.2033 12.6298 0.647148
204 2 40.0215 12.4528 -2.61062 40.0215 12.4528 -2.61062
205 1 41.0208 10.9789 -0.870282 41.0208 10.9789 -0.870282
206 2 43.064 11.2082 0.47507 43.064 11.2082 0.47507
207 2 42.7421 10.9118 -2.72956 42.7421 10.9118 -2.72956
208 1 43.9201 12.5786 -1.35129 43.9201 12.5786 -1.35129
209 2 45.8281 12.5163 0.422691 45.8281 12.5163 0.422691
210 2 45.945 12.5497 -2.93147 45.945 12.5497 -2.93147
211 1 46.8294 10.889 -1.26091 46.8294 10.889 -1.26091
212 2 48.6845 10.9219 0.411257 48.6845 10.9219 0.411257
213 2 48.9121 10.9109 -2.85149 48.9121 10.9109 -2.85149
214 1 49.6747 12.5749 -1.10487 49.6747 12.5749 -1.10487
215 2 51.5132 12.4049 0.592172 51.5132 12.4049 0.592172
216 2 51.6157 12.7069 -2.69929 51.6157 12.7069 -2.69929
217 1 0.965705 14.295 -0.900819 0.965705 14.295 -0.900819
218 2 2.48408 14.1817 1.06793 2.48408 14.1817 1.06793
219 2 3.14834 14.3322 -2.05666 3.14834 14.3322 -2.05666
220 1 3.85407 15.8797 -0.185932 3.85407 15.8797 -0.185932
221 2 5.77569 15.7561 1.40785 5.77569 15.7561 1.40785
222 2 5.64655 15.9283 -1.90845 5.64655 15.9283 -1.90845
223 1 6.67868 14.2275 -0.398321 6.67868 14.2275 -0.398321
224 2 8.51056 14.0026 1.23083 8.51056 14.0026 1.23083
225 2 8.62711 14.4451 -2.11297 8.62711 14.4451 -2.11297
226 1 9.49877 15.8066 -0.252166 9.49877 15.8066 -0.252166
227 2 11.5377 15.6959 1.13816 11.5377 15.6959 1.13816
228 2 11.3511 15.9272 -2.00678 11.3511 15.9272 -2.00678
229 1 12.3743 14.2177 -0.659329 12.3743 14.2177 -0.659329
230 2 14.2296 14.1165 1.08092 14.2296 14.1165 1.08092
231 2 14.2429 14.3443 -2.20948 14.2429 14.3443 -2.20948
232 1 15.2206 15.8756 -0.471646 15.2206 15.8756 -0.471646
233 2 17.2267 15.8363 1.08212 17.2267 15.8363 1.08212
234 2 17.0076 15.8574 -2.17544 17.0076 15.8574 -2.17544
235 1 18.0181 14.1666 -0.665765 18.0181 14.1666 -0.665765
236 2 19.8926 14.4136 1.01589 19.8926 14.4136 1.01589
237 2 20.0215 14.1449 -2.27529 20.0215 14.1449 -2.27529
238 1 20.9598 15.9461 -0.61355 20.9598 15.9461 -0.61355
239 2 22.8537 15.9009 1.13668 22.8537 15.9009 1.13668
240 2 22.9317 15.8492 -2.17489 22.9317 15.8492 -2.17489
241 1 23.7547 14.1978 -0.439387 23.7547 14.1978 -0.439387
242 2 25.582 14.1181 1.24674 25.582 14.1181 1.24674
243 2 25.8025 14.1283 -1.99444 25.8025 14.1283 -1.99444
244 1 26.6536 15.8156 -0.37945 26.6536 15.8156 -0.37945
245 2 28.5538 15.9875 1.28891 28.5538 15.9875 1.28891
246 2 28.5911 15.6771 -2.05725 28.5911 15.6771 -2.05725
247 1 29.5315 14.3193 -0.187322 29.5315 14.3193 -0.187322
248 2 31.6294 14.5168 1.23343 31.6294 14.5168 1.23343
249 2 31.3124 14.0389 -2.0174 31.3124 14.0389 -2.0174
250 1 32.475 15.8459 -0.749347 32.475 15.8459 -0.749347
251 2 34.3073 15.9546 0.86245 34.3073 15.9546 0.86245
252 2 34.2562 15.8704 -2.42486 34.2562 15.8704 -2.42486
253 1 35.2744 14.2751 -0.720103 35.2744 14.2751 -0.720103
254 2 37.4511 14.3258 0.756653 37.4511 14.3258 0.756653
255 2 37.0093 14.0984 -2.45198 37.0093 14.0984 -2.45198
256 1 38.1697 15.8726 -1.14961 38.1697 15.8726 -1.14961
257 2 40.1136 15.8567 0.379022 40.1136 15.8567 0.379022
258 2 39.8935 15.924 -2.78344 39.8935 15.924 -2.78344
259 1 41.0453 14.2166 -1.20899 41.0453 14.2166 -1.20899
260 2 43.1617 14.3993 0.308882 43.1617 14.3993 0.308882
261 2 42.8556 13.9452 -2.96898 42.8556 13.9452 -2.96898
262 1 43.9047 15.7766 -1.53292 43.9047 15.7766 -1.53292
263 2 45.7613 15.8641 0.253848 45.7613 15.8641 0.253848
264 2 46.0193 15.8088 -2.92816 46.0193 15.8088 -2.92816
265 1 46.7667 14.2214 -1.21705 46.7667 14.2214 -1.21705
266 2 48.5764 14.1235 0.623279 48.5764 14.1235 0.623279
267 2 48.7173 14.133 -2.7765 48.7173 14.133 -2.7765
268 1 49.6499 15.8319 -1.00933 49.6499 15.8319 -1.00933
269 2 51.487 15.8792 0.756807 51.487 15.8792 0.756807
270 2 51.6805 15.8945 -2.51515 51.6805 15.8945 -2.51515
271 1 0.978815 17.5114 -0.7708 0.978815 17.5114 -0.7708
272 2 2.59805 17.633 1.13377 2.59805 17.633 1.13377
273 2 3.15649 17.4113 -2.16014 3.15649 17.4113 -2.16014
274 1 3.81822 19.1358 -0.447076 3.81822 19.1358 -0.447076
275 2 5.65575 19.2137 1.27301 5.65575 19.2137 1.27301
276 2 5.69699 19.1948 -2.01253 5.69699 19.1948 -2.01253
277 1 6.69935 17.5011 -0.321733 6.69935 17.5011 -0.321733
278 2 8.52454 17.4659 1.33571 8.52454 17.4659 1.33571
279 2 8.61604 17.5048 -1.9018 8.61604 17.5048 -1.9018
280 1 9.5666 19.2323 -0.232519 9.5666 19.2323 -0.232519
281 2 11.5285 19.2326 1.29292 11.5285 19.2326 1.29292
282 2 11.3725 19.1421 -2.09442 11.3725 19.1421 -2.09442
283 1 12.3589 17.5363 -0.407387 12.3589 17.5363 -0.407387
284 2 14.3216 17.5828 1.10496 14.3216 17.5828 1.10496
285 2 14.1993 17.4318 -2.10089 14.1993 17.4318 -2.10089
286 1 15.3387 19.0844 -0.545994 15.3387 19.0844 -0.545994
287 2 17.0483 18.999 1.22732 17.0483 18.999 1.22732
288 2 17.3678 19.2185 -2.05681 17.3678 19.2185 -2.05681
289 1 18.0729 17.3954 -0.576516 18.0729 17.3954 -0.576516
290 2 19.8636 17.5866 1.0407 19.8636 17.5866 1.0407
291 2 20.0674 17.5316 -2.20034 20.0674 17.5316 -2.20034
292 1 20.9355 19.1844 -0.515864 20.9355 19.1844 -0.515864
293 2 22.8685 19.0065 1.0348 22.8685 19.0065 1.0348
294 2 22.8013 19.2136 -2.13833 22.8013 19.2136 -2.13833
295 1 23.8171 17.5891 -0.578263 23.8171 17.5891 -0.578263
296 2 25.6747 17.465 1.1665 25.6747 17.465 1.1665
297 2 25.8383 17.5193 -2.07886 25.8383 17.5193 -2.07886
298 1 26.684 19.1048 -0.442841 26.684 19.1048 -0.442841
299 2 28.6058 19.0452 1.15848 28.6058 19.0452 1.15848
300 2 28.5468 19.337 -2.146 28.5468 19.337 -2.146
301 1 29.4952 17.5178 -0.569203 29.4952 17.5178 -0.569203
302 2 31.4542 17.5758 0.942109 31.4542 17.5758 0.942109
303 2 31.3171 17.4239 -2.38568 31.3171 17.4239 -2.38568
304 1 32.4192 19.1885 -0.83509 32.4192 19.1885 -0.83509
305 2 34.3372 19.0936 0.751785 34.3372 19.0936 0.751785
306 2 34.2739 19.3104 -2.39638 34.2739 19.3104 -2.39638
307 1 35.2121 17.4709 -0.856627 35.2121 17.4709 -0.856627
308 2 37.315 17.4827 0.58459 37.315 17.4827 0.58459
309 2 36.9648 17.5238 -2.59571 36.9648 17.5238 -2.59571
310 1 38.106 19.1714 -1.06078 38.106 19.1714 -1.06078
311 2 40.1211 19.1167 0.34612 40.1211 19.1167 0.34612
312 2 40.0462 19.2738 -2.8276 40.0462 19.2738 -2.8276
313 1 40.9702 17.5076 -1.3112 40.9702 17.5076 -1.3112
314 2 42.9375 17.4048 0.232181 42.9375 17.4048 0.232181
315 2 42.8851 17.5713 -2.99686 42.8851 17.5713 -2.99686
316 1 43.8986 19.2227 -1.33113 43.8986 19.2227 -1.33113
317 2 45.602 19.0655 0.428151 45.602 19.0655 0.428151
318 2 45.9177 19.3514 -2.86897 45.9177 19.3514 -2.86897
319 1 46.7195 17.5179 -1.29049 46.7195 17.5179 -1.29049
320 2 48.4277 17.5852 0.475025 48.4277 17.5852 0.475025
321 2 48.8191 17.5653 -2.78939 48.8191 17.5653 -2.78939
322 1 49.6431 19.173 -1.06606 49.6431 19.173 -1.06606
323 2 51.3806 19.1298 0.772185 51.3806 19.1298 0.772185
324 2 51.6615 19.029 -2.53811 51.6615 19.029 -2.53811
325 1 1.024 20.7086 -0.771232 1.024 20.7086 -0.771232
326 2 2.88001 20.9075 0.919142 2.88001 20.9075 0.919142
327 2 2.95472 20.6047 -2.30978 2.95472 20.6047 -2.30978
328 1 3.94299 22.3975 -0.802667 3.94299 22.3975 -0.802667
329 2 5.51066 22.43 1.10724 5.51066 22.43 1.10724
330 2 6.0161 22.5256 -2.11859 6.0161 22.5256 -2.11859
331 1 6.69268 20.8157 -0.417385 6.69268 20.8157 -0.417385
332 2 8.48987 20.9327 1.29138 8.48987 20.9327 1.29138
333 2 8.62269 20.7488 -1.97963 8.62269 20.7488 -1.97963
334 1 9.5788 22.5091 -0.328579 9.5788 22.5091 -0.328579
335 2 11.3936 22.2711 1.37802 11.3936 22.2711 1.37802
336 2 11.5294 22.7118 -1.84584 11.5294 22.7118 -1.84584
337 1 12.4454 20.8167 -0.425594 12.4454 20.8167 -0.425594
338 2 14.2737 20.5082 1.19623 14.2737 20.5082 1.19623
339 2 14.2363 20.8035 -2.0476 14.2363 20.8035 -2.0476
340 1 15.2494 22.4035 -0.235457 15.2494 22.4035 -0.235457
341 2 17.2529 22.4637 1.29796 17.2529 22.4637 1.29796
342 2 17.0693 22.356 -1.80843 17.0693 22.356 -1.80843
343 1 18.1748 20.7659 -0.223599 18.1748 20.7659 -0.223599
344 2 20.2143 20.8099 1.18094 20.2143 20.8099 1.18094
345 2 19.9658 20.8044 -2.05606 19.9658 20.8044 -2.05606
346 1 21.0289 22.4196 -0.581548 21.0289 22.4196 -0.581548
347 2 22.772 22.2501 1.30295 22.772 22.2501 1.30295
348 2 23.0941 22.5778 -1.98206 23.0941 22.5778 -1.98206
349 1 23.8649 20.8215 -0.437302 23.8649 20.8215 -0.437302
350 2 25.7717 20.8039 1.18238 25.7717 20.8039 1.18238
351 2 25.7522 20.768 -2.12772 25.7522 20.768 -2.12772
352 1 26.6752 22.385 -0.447943 26.6752 22.385 -0.447943
353 2 28.6235 22.5272 1.15743 28.6235 22.5272 1.15743
354 2 28.6049 22.2703 -2.04218 28.6049 22.2703 -2.04218
355 1 29.6019 20.7866 -0.378178 29.6019 20.7866 -0.378178
356 2 31.5955 20.7976 1.02152 31.5955 20.7976 1.02152
357 2 31.4512 20.9301 -2.31541 31.4512 20.9301 -2.31541
358 1 32.4188 22.4467 -0.596804 32.4188 22.4467 -0.596804
359 2 34.4856 22.4207 0.886179 34.4856 22.4207 0.886179
360 2 34.2296 22.445 -2.30216 34.2296 22.445 -2.30216
361 1 35.3915 20.8199 -0.835774 35.3915 20.8199 -0.835774
362 2 37.2807 20.8958 0.655866 37.2807 20.8958 0.655866
363 2 37.1792 20.8557 -2.59823 37.1792 20.8557 -2.59823
364 1 38.1848 22.507 -0.975639 38.1848 22.507 -0.975639
365 2 40.2395 22.3828 0.610234 40.2395 22.3828 0.610234
366 2 39.9641 22.7093 -2.66446 39.9641 22.7093 -2.66446
367 1 41.096 20.8708 -1.17663 41.096 20.8708 -1.17663
368 2 43.0681 20.7571 0.470631 43.0681 20.7571 0.470631
369 2 42.9794 20.9973 -2.84221 42.9794 20.9973 -2.84221
370 1 43.9985 22.5234 -1.01776 43.9985 22.5234 -1.01776
371 2 45.8376 22.3928 0.69709 45.8376 22.3928 0.69709
372 2 45.8976 22.401 -2.5533 45.8976 22.401 -2.5533
373 1 46.7586 20.7464 -0.978628 46.7586 20.7464 -0.978628
374 2 48.6518 20.7847 0.675971 48.6518 20.7847 0.675971
375 2 48.6769 20.8352 -2.60794 48.6769 20.8352 -2.60794
376 1 49.6997 22.4551 -0.943938 49.6997 22.4551 -0.943938
377 2 51.3935 22.3984 0.830473 51.3935 22.3984 0.830473
378 2 51.7344 22.4856 -2.39276 51.7344 22.4856 -2.39276
379 1 1.06191 24.044 -0.576051 1.06191 24.044 -0.576051
380 2 3.00965 23.8617 0.910212 3.00965 23.8617 0.910212
381 2 2.96647 24.169 -2.17215 2.96647 24.169 -2.17215
382 1 3.90065 25.6926 -0.455526 3.90065 25.6926 -0.455526
383 2 5.73001 25.5455 1.28789 5.73001 25.5455 1.28789
384 2 5.83267 25.8364 -1.93496 5.83267 25.8364 -1.93496
385 1 6.75312 24.0811 -0.43025 6.75312 24.0811 -0.43025
386 2 8.4553 23.9143 1.32222 8.4553 23.9143 1.32222
387 2 8.76752 24.2205 -1.92427 8.76752 24.2205 -1.92427
388 1 9.61004 25.7723 0.0469477 9.61004 25.7723 0.0469477
389 2 11.4614 25.7107 1.56827 11.4614 25.7107 1.56827
390 2 11.4021 25.7675 -1.65233 11.4021 25.7675 -1.65233
391 1 12.4221 24.0925 -0.117591 12.4221 24.0925 -0.117591
392 2 14.1846 23.9217 1.53403 14.1846 23.9217 1.53403
393 2 14.3014 24.1021 -1.72279 14.3014 24.1021 -1.72279
394 1 15.2879 25.7134 0.0784143 15.2879 25.7134 0.0784143
395 2 17.3631 25.5333 1.60423 17.3631 25.5333 1.60423
396 2 17.0007 25.8853 -1.64247 17.0007 25.8853 -1.64247
397 1 18.0901 24.0289 -0.298218 18.0901 24.0289 -0.298218
398 2 20.0144 23.9769 1.26852 20.0144 23.9769 1.26852
399 2 19.9686 24.3055 -1.89377 19.9686 24.3055 -1.89377
400 1 20.9711 25.7021 -0.0893606 20.9711 25.7021 -0.0893606
401 2 22.7985 25.7662 1.61418 22.7985 25.7662 1.61418
402 2 22.8463 25.8009 -1.82385 22.8463 25.8009 -1.82385
403 1 23.8234 24.063 -0.132946 23.8234 24.063 -0.132946
404 2 25.8502 23.8963 1.38853 25.8502 23.8963 1.38853
405 2 25.6922 24.2647 -1.87359 25.6922 24.2647 -1.87359
406 1 26.6576 25.726 -0.112716 26.6576 25.726 -0.112716
407 2 28.7203 25.5896 1.34063 28.7203 25.5896 1.34063
408 2 28.4073 25.8126 -1.87254 28.4073 25.8126 -1.87254
409 1 29.5131 24.0022 -0.513838 29.5131 24.0022 -0.513838
410 2 31.4752 24.0819 1.04486 31.4752 24.0819 1.04486
411 2 31.4315 24.1633 -2.186 31.4315 24.1633 -2.186
412 1 32.3784 25.7718 -0.610436 32.3784 25.7718 -0.610436
413 2 34.2737 25.5178 1.10895 34.2737 25.5178 1.10895
414 2 34.3216 25.8349 -2.17784 34.3216 25.8349 -2.17784
415 1 35.3217 24.1155 -0.685929 35.3217 24.1155 -0.685929
416 2 37.2083 23.8998 0.88682 37.2083 23.8998 0.88682
417 2 37.0698 24.2245 -2.44336 37.0698 24.2245 -2.44336
418 1 38.1031 25.7745 -0.726827 38.1031 25.7745 -0.726827
419 2 40.028 25.6832 0.822577 40.028 25.6832 0.822577
420 2 39.9714 25.9163 -2.41081 39.9714 25.9163 -2.41081
421 1 41.0185 24.1943 -0.916885 41.0185 24.1943 -0.916885
422 2 42.8892 24.1676 0.787246 42.8892 24.1676 0.787246
423 2 42.8617 24.2585 -2.56092 42.8617 24.2585 -2.56092
424 1 43.8616 25.7502 -0.778968 43.8616 25.7502 -0.778968
425 2 45.7737 25.538 0.818643 45.7737 25.538 0.818643
426 2 45.7489 25.8 -2.45209 45.7489 25.8 -2.45209
427 1 46.8107 24.0026 -0.872378 46.8107 24.0026 -0.872378
428 2 48.6285 23.7892 0.797073 48.6285 23.7892 0.797073
429 2 48.749 24.2366 -2.42178 48.749 24.2366 -2.42178
430 1 49.6027 25.6727 -0.630859 49.6027 25.6727 -0.630859
431 2 51.3501 25.5012 1.11563 51.3501 25.5012 1.11563
432 2 51.7665 25.7586 -2.14583 51.7665 25.7586 -2.14583
433 1 1.00702 27.2491 -0.159008 1.00702 27.2491 -0.159008
434 2 2.84785 27.0778 1.33749 2.84785 27.0778 1.33749
435 2 2.85616 27.3724 -1.9515 2.85616 27.3724 -1.9515
436 1 3.80122 28.8955 -0.179068 3.80122 28.8955 -0.179068
437 2 5.59203 28.9936 1.53718 5.59203 28.9936 1.53718
438 2 5.78212 28.978 -1.7045 5.78212 28.978 -1.7045
439 1 6.71053 27.386 -0.0573858 6.71053 27.386 -0.0573858
440 2 8.50048 27.3928 1.73107 8.50048 27.3928 1.73107
441 2 8.6067 27.4413 -1.59365 8.6067 27.4413 -1.59365
442 1 9.46053 29.007 0.0560838 9.46053 29.007 0.0560838
443 2 11.3489 28.76 1.83699 11.3489 28.76 1.83699
444 2 11.3718 29.2304 -1.49506 11.3718 29.2304 -1.49506
445 1 12.3804 27.3731 -0.0264897 12.3804 27.3731 -0.0264897
446 2 14.175 27.3353 1.73806 14.175 27.3353 1.73806
447 2 14.2968 27.3863 -1.61027 14.2968 27.3863 -1.61027
448 1 15.2222 29.0268 0.246721 15.2222 29.0268 0.246721
449 2 17.0967 28.6696 1.91384 17.0967 28.6696 1.91384
450 2 17.1749 29.5204 -1.29764 17.1749 29.5204 -1.29764
451 1 18.0889 27.3704 0.0375813 18.0889 27.3704 0.0375813
452 2 19.9955 27.2095 1.69143 19.9955 27.2095 1.69143
453 2 20.0464 27.614 -1.52632 20.0464 27.614 -1.52632
454 1 20.9567 28.9815 0.359334 20.9567 28.9815 0.359334
455 2 23.0405 28.9916 1.76898 23.0405 28.9916 1.76898
456 2 22.7212 29.1779 -1.44388 22.7212 29.1779 -1.44388
457 1 23.6965 27.4116 -0.0585986 23.6965 27.4116 -0.0585986
458 2 25.6725 27.3272 1.6347 25.6725 27.3272 1.6347
459 2 25.6375 27.522 -1.68485 25.6375 27.522 -1.68485
460 1 26.6368 29.0186 0.0820675 26.6368 29.0186 0.0820675
461 2 28.7436 28.7669 1.68486 28.7436 28.7669 1.68486
462 2 28.4106 29.1362 -1.5168 28.4106 29.1362 -1.5168
463 1 29.5405 27.3679 -0.242592 29.5405 27.3679 -0.242592
464 2 31.5172 27.1029 1.30496 31.5172 27.1029 1.30496
465 2 31.3453 27.6126 -1.86874 31.3453 27.6126 -1.86874
466 1 32.4884 28.9785 -0.091271 32.4884 28.9785 -0.091271
467 2 34.2849 28.6645 1.58111 34.2849 28.6645 1.58111
468 2 34.3563 29.2867 -1.63109 34.3563 29.2867 -1.63109
469 1 35.2585 27.3919 -0.330503 35.2585 27.3919 -0.330503
470 2 37.2238 27.1749 1.19025 37.2238 27.1749 1.19025
471 2 37.1733 27.64 -2.08203 37.1733 27.64 -2.08203
472 1 38.1734 28.9376 -0.23629 38.1734 28.9376 -0.23629
473 2 40.2403 28.783 1.23394 40.2403 28.783 1.23394
474 2 39.9268 29.2839 -1.92374 39.9268 29.2839 -1.92374
475 1 41.0037 27.4237 -0.637683 41.0037 27.4237 -0.637683
476 2 42.9682 27.3188 0.960612 42.9682 27.3188 0.960612
477 2 42.8707 27.5983 -2.23124 42.8707 27.5983 -2.23124
478 1 43.9187 29.1983 -0.414853 43.9187 29.1983 -0.414853
479 2 45.8001 28.7432 1.26655 45.8001 28.7432 1.26655
480 2 45.7933 29.2811 -2.02028 45.7933 29.2811 -2.02028
481 1 46.6663 27.3104 -0.656821 46.6663 27.3104 -0.656821
482 2 48.4072 27.1224 1.09597 48.4072 27.1224 1.09597
483 2 48.7176 27.4476 -2.14966 48.7176 27.4476 -2.14966
484 1 49.5377 28.9585 -0.242164 49.5377 28.9585 -0.242164
485 2 51.5622 28.9821 1.36336 51.5622 28.9821 1.36336
486 2 51.4899 28.7477 -1.86375 51.4899 28.7477 -1.86375
487 1 0.950021 30.5632 -0.360668 0.950021 30.5632 -0.360668
488 2 2.89558 30.4297 1.4749 2.89558 30.4297 1.4749
489 2 3.00644 30.7509 -1.78596 3.00644 30.7509 -1.78596
490 1 3.88541 32.234 -0.0350488 3.88541 32.234 -0.0350488
491 2 5.71095 32.2001 1.68121 5.71095 32.2001 1.68121
492 2 5.79051 32.3928 -1.56681 5.79051 32.3928 -1.56681
493 1 6.69392 30.6538 0.00478811 6.69392 30.6538 0.00478811
494 2 8.50711 30.6167 1.65728 8.50711 30.6167 1.65728
495 2 8.58778 30.8187 -1.50166 8.58778 30.8187 -1.50166
496 1 9.62499 32.3368 0.235362 9.62499 32.3368 0.235362
497 2 11.2543 32.2057 2.01784 11.2543 32.2057 2.01784
498 2 11.6215 32.4712 -1.21946 11.6215 32.4712 -1.21946
499 1 12.3771 30.685 0.333633 12.3771 30.685 0.333633
500 2 14.2854 30.4067 2.06481 14.2854 30.4067 2.06481
501 2 14.3798 30.9072 -1.21507 14.3798 30.9072 -1.21507
502 1 15.3408 32.2478 0.623024 15.3408 32.2478 0.623024
503 2 17.0407 32.2472 2.3273 17.0407 32.2472 2.3273
504 2 17.2671 32.3977 -0.943793 17.2671 32.3977 -0.943793
505 1 18.1445 30.6349 0.750928 18.1445 30.6349 0.750928
506 2 20.1209 30.4409 2.2299 20.1209 30.4409 2.2299
507 2 19.8585 30.771 -0.940569 19.8585 30.771 -0.940569
508 1 20.9475 32.2682 0.675909 20.9475 32.2682 0.675909
509 2 23.0349 32.1049 2.10848 23.0349 32.1049 2.10848
510 2 22.7147 32.5527 -1.14933 22.7147 32.5527 -1.14933
511 1 23.8622 30.7357 0.165652 23.8622 30.7357 0.165652
512 2 25.6904 30.6902 1.8354 25.6904 30.6902 1.8354
513 2 25.7703 30.804 -1.43544 25.7703 30.804 -1.43544
514 1 26.793 32.3958 0.360219 26.793 32.3958 0.360219
515 2 28.6297 32.0889 1.95549 28.6297 32.0889 1.95549
516 2 28.6451 32.404 -1.25312 28.6451 32.404 -1.25312
517 1 29.5756 30.5357 0.233956 29.5756 30.5357 0.233956
518 2 31.4865 30.1672 1.84003 31.4865 30.1672 1.84003
519 2 31.4594 30.9555 -1.36465 31.4594 30.9555 -1.36465
520 1 32.4716 32.2602 0.679009 32.4716 32.2602 0.679009
521 2 34.5781 32.1212 2.11548 34.5781 32.1212 2.11548
522 2 34.1906 32.3995 -1.06561 34.1906 32.3995 -1.06561
523 1 35.2731 30.5935 0.340189 35.2731 30.5935 0.340189
524 2 37.2837 30.1737 1.75761 37.2837 30.1737 1.75761
525 2 37.2156 30.891 -1.4232 37.2156 30.891 -1.4232
526 1 38.177 32.2673 0.525537 38.177 32.2673 0.525537
527 2 40.2176 31.9251 1.92091 40.2176 31.9251 1.92091
528 2 39.8649 32.5161 -1.25747 39.8649 32.5161 -1.25747
529 1 41.0013 30.6488 -0.157402 41.0013 30.6488 -0.157402
530 2 42.8793 30.6184 1.48074 42.8793 30.6184 1.48074
531 2 42.9 31.0034 -1.86744 42.9 31.0034 -1.86744
532 1 43.9087 32.4044 0.00864054 43.9087 32.4044 0.00864054
533 2 45.8583 32.3739 1.52223 45.8583 32.3739 1.52223
534 2 45.6692 32.3723 -1.63736 45.6692 32.3723 -1.63736
535 1 46.75 30.6666 -0.127599 46.75 30.6666 -0.127599
536 2 48.5985 30.4389 1.48013 48.5985 30.4389 1.48013
537 2 48.5681 30.6783 -1.7644 48.5681 30.6783 -1.7644
538 1 49.5965 32.2863 -0.0513186 49.5965 32.2863 -0.0513186