ITEM: TIMESTEP
57800
ITEM: NUMBER OF ATOMS
810
ITEM: BOX BOUNDS pp pp pp
8.2014156412037464e-01 5.2197463435879889e+01
7.2460468128639488e-01 5.0291610318712813e+01
-1.0000000000000000e+01 1.0000000000000000e+01
ITEM: ATOMS id type x y z xu yu zu
1 1 0.994026 0.895211 -0.251111 0.994026 0.895211 -0.251111
2 2 2.93813 0.814842 1.39445 2.93813 0.814842 1.39445
3 2 2.9971 1.06868 -1.869 2.9971 1.06868 -1.869
4 1 3.80099 2.56518 -0.0503836 3.80099 2.56518 -0.0503836
5 2 5.87404 2.68165 1.34899 5.87404 2.68165 1.34899
6 2 5.54281 2.64285 -1.86388 5.54281 2.64285 -1.86388
7 1 6.66463 1.02361 -0.267325 6.66463 1.02361 -0.267325
8 2 8.63735 1.08483 1.25763 8.63735 1.08483 1.25763
9 2 8.62583 1.02416 -1.9121 8.62583 1.02416 -1.9121
10 1 9.49814 2.68557 -0.293587 9.49814 2.68557 -0.293587
11 2 11.6438 2.63757 1.37498 11.6438 2.63757 1.37498
12 2 11.2337 2.52497 -2.03977 11.2337 2.52497 -2.03977
13 1 12.4134 0.849139 -0.399017 12.4134 0.849139 -0.399017
14 2 14.3374 0.873346 1.21064 14.3374 0.873346 1.21064
15 2 14.3561 50.2709 -1.97651 14.3561 0.703848 -1.97651
16 1 15.3078 2.47541 -0.434999 15.3078 2.47541 -0.434999
17 2 17.0527 2.63376 1.42104 17.0527 2.63376 1.42104
18 2 17.2083 2.35675 -1.88092 17.2083 2.35675 -1.88092
19 1 18.1849 0.849848 -0.116882 18.1849 0.849848 -0.116882
20 2 20.1131 1.04524 1.38552 20.1131 1.04524 1.38552
21 2 20.0494 0.839136 -1.86257 20.0494 0.839136 -1.86257
22 1 20.9979 2.60482 -0.418726 20.9979 2.60482 -0.418726
23 2 22.8202 2.67565 1.29223 22.8202 2.67565 1.29223
24 2 23.0435 2.58001 -1.99451 23.0435 2.58001 -1.99451
25 1 23.8094 0.948961 -0.148642 23.8094 0.948961 -0.148642
26 2 25.7473 1.0322 1.39485 25.7473 1.0322 1.39485
27 2 25.5962 0.849899 -1.86761 25.5962 0.849899 -1.86761
28 1 26.7008 2.56708 -0.341037 26.7008 2.56708 -0.341037
29 2 28.6365 2.57388 1.229 28.6365 2.57388 1.229
30 2 28.5738 2.37094 -1.98078 28.5738 2.37094 -1.98078
31 1 29.53 0.882733 -0.283197 29.53 0.882733 -0.283197
32 2 31.5729 1.13302 1.28857 31.5729 1.13302 1.28857
33 2 31.3375 0.78415 -1.97485 31.3375 0.78415 -1.97485
34 1 32.3917 2.57944 -0.623765 32.3917 2.57944 -0.623765
35 2 34.2755 2.53392 1.11869 34.2755 2.53392 1.11869
36 2 34.3923 2.64713 -2.25897 34.3923 2.64713 -2.25897
37 1 35.2547 0.923853 -0.603095 35.2547 0.923853 -0.603095
38 2 37.3615 1.13691 0.963088 37.3615 1.13691 0.963088
39 2 37.1429 50.3901 -2.25847 37.1429 0.823072 -2.25847
40 1 38.1182 2.63788 -0.780254 38.1182 2.63788 -0.780254
41 2 40.1232 2.48005 0.836137 40.1232 2.48005 0.836137
42 2 39.9324 2.64129 -2.45262 39.9324 2.64129 -2.45262
43 1 40.9696 0.975514 -0.973734 40.9696 0.975514 -0.973734
44 2 42.9509 0.93047 0.665966 42.9509 0.93047 0.665966
45 2 42.9348 1.22736 -2.5794 42.9348 1.22736 -2.5794
46 1 43.8093 2.67576 -0.693569 43.8093 2.67576 -0.693569
47 2 45.6524 2.58018 0.890337 45.6524 2.58018 0.890337
48 2 45.7616 2.72135 -2.27225 45.7616 2.72135 -2.27225
49 1 46.7569 1.03271 -0.739998 46.7569 1.03271 -0.739998
50 2 48.5112 0.914923 0.973666 48.5112 0.914923 0.973666
51 2 48.6685 50.4111 -2.31014 48.6685 0.844084 -2.31014
52 1 49.5378 2.60548 -0.685319 49.5378 2.60548 -0.685319
53 2 51.1146 2.69883 1.17518 51.1146 2.69883 1.17518
54 2 51.6844 2.48475 -2.06093 51.6844 2.48475 -2.06093
55 1 0.969265 4.18711 -0.409228 0.969265 4.18711 -0.409228
56 2 2.74277 4.39412 1.42448 2.74277 4.39412 1.42448
57 2 2.97444 4.07317 -1.85839 2.97444 4.07317 -1.85839
58 1 3.89905 5.83952 -0.266993 3.89905 5.83952 -0.266993
59 2 5.88028 5.96194 1.33562 5.88028 5.96194 1.33562
60 2 5.66434 5.87281 -2.02697 5.66434 5.87281 -2.02697
61 1 6.6677 4.28087 -0.283618 6.6677 4.28087 -0.283618
62 2 8.57153 4.41841 1.31349 8.57153 4.41841 1.31349
63 2 8.51501 4.17518 -1.91394 8.51501 4.17518 -1.91394
64 1 9.55912 5.84731 -0.455617 9.55912 5.84731 -0.455617
65 2 11.404 5.77598 1.22888 11.404 5.77598 1.22888
66 2 11.4976 5.8985 -2.02217 11.4976 5.8985 -2.02217
67 1 12.3271 4.20444 -0.462061 12.3271 4.20444 -0.462061
68 2 14.3484 4.26529 1.16225 14.3484 4.26529 1.16225
69 2 14.2698 4.21816 -2.12604 14.2698 4.21816 -2.12604
70 1 15.3193 5.78599 -0.536434 15.3193 5.78599 -0.536434
71 2 17.0519 5.87873 1.26812 17.0519 5.87873 1.26812
72 2 17.344 5.72709 -2.09724 17.344 5.72709 -2.09724
73 1 18.2033 4.21499 -0.338286 18.2033 4.21499 -0.338286
74 2 20.1361 4.05305 1.33753 20.1361 4.05305 1.33753
75 2 20.0932 4.40163 -1.93376 20.0932 4.40163 -1.93376
76 1 21.0528 5.82696 -0.104334 21.0528 5.82696 -0.104334
77 2 22.9835 5.76374 1.40067 22.9835 5.76374 1.40067
78 2 22.8772 6.04013 -1.77323 22.8772 6.04013 -1.77323
79 1 23.8536 4.20102 -0.399449 23.8536 4.20102 -0.399449
80 2 25.7571 4.18011 1.30885 25.7571 4.18011 1.30885
81 2 25.8284 4.15867 -2.04659 25.8284 4.15867 -2.04659
82 1 26.7377 5.77561 -0.27532 26.7377 5.77561 -0.27532
83 2 28.661 5.78215 1.29836 28.661 5.78215 1.29836
84 2 28.6809 5.93132 -2.01524 28.6809 5.93132 -2.01524
85 1 29.586 4.20356 -0.441813 29.586 4.20356 -0.441813
86 2 31.4825 4.14762 1.08598 31.4825 4.14762 1.08598
87 2 31.4083 4.20838 -2.15447 31.4083 4.20838 -2.15447
88 1 32.477 5.9086 -0.455106 32.477 5.9086 -0.455106
89 2 34.4676 5.98506 1.11156 34.4676 5.98506 1.11156
90 2 34.3139 5.84284 -2.12995 34.3139 5.84284 -2.12995
91 1 35.2204 4.1891 -0.459514 35.2204 4.1891 -0.459514
92 2 37.3162 4.29274 0.949258 37.3162 4.29274 0.949258
93 2 37.0082 4.38135 -2.27571 37.0082 4.38135 -2.27571
94 1 38.1251 5.97299 -0.807721 38.1251 5.97299 -0.807721
95 2 40.1031 5.9223 0.874023 40.1031 5.9223 0.874023
96 2 40.0063 5.8446 -2.48715 40.0063 5.8446 -2.48715
97 1 40.9415 4.28003 -0.81159 40.9415 4.28003 -0.81159
98 2 42.7493 4.26028 0.978143 42.7493 4.26028 0.978143
99 2 43.001 4.40726 -2.2282 43.001 4.40726 -2.2282
100 1 43.836 5.97558 -0.479385 43.836 5.97558 -0.479385
101 2 45.8242 5.89845 0.964807 45.8242 5.89845 0.964807
102 2 45.6617 5.92414 -2.32135 45.6617 5.92414 -2.32135
103 1 46.7187 4.2834 -0.589904 46.7187 4.2834 -0.589904
104 2 48.4455 4.05777 1.13902 48.4455 4.05777 1.13902
105 2 48.582 4.38095 -2.28037 48.582 4.38095 -2.28037
106 1 49.455 5.88586 -0.392419 49.455 5.88586 -0.392419
107 2 51.4787 5.94524 1.20637 51.4787 5.94524 1.20637
108 2 51.4645 5.88829 -2.04376 51.4645 5.88829 -2.04376
109 1 1.11715 7.45763 -0.566602 1.11715 7.45763 -0.566602
110 2 2.8683 7.70985 1.19997 2.8683 7.70985 1.19997
111 2 3.03299 7.37273 -2.0968 3.03299 7.37273 -2.0968
112 1 3.94565 9.2281 -0.606122 3.94565 9.2281 -0.606122
113 2 5.90634 9.33416 1.14567 5.90634 9.33416 1.14567
114 2 5.83189 9.05521 -2.15327 5.83189 9.05521 -2.15327
115 1 6.74817 7.52202 -0.353179 6.74817 7.52202 -0.353179
116 2 8.88889 7.47975 1.09746 8.88889 7.47975 1.09746
117 2 8.57547 7.41143 -2.06709 8.57547 7.41143 -2.06709
118 1 9.53802 9.16394 -0.560013 9.53802 9.16394 -0.560013
119 2 11.3534 9.04318 1.21414 11.3534 9.04318 1.21414
120 2 11.5294 9.22025 -2.01133 11.5294 9.22025 -2.01133
121 1 12.4285 7.56718 -0.421172 12.4285 7.56718 -0.421172
122 2 14.3234 7.38676 1.1731 14.3234 7.38676 1.1731
123 2 14.3274 7.42235 -2.04052 14.3274 7.42235 -2.04052
124 1 15.2361 9.06098 -0.474962 15.2361 9.06098 -0.474962
125 2 16.995 8.95608 1.23238 16.995 8.95608 1.23238
126 2 17.1512 9.10957 -1.93011 17.1512 9.10957 -1.93011
127 1 18.0995 7.44107 -0.359645 18.0995 7.44107 -0.359645
128 2 19.8051 7.45407 1.48967 19.8051 7.45407 1.48967
129 2 20.1837 7.49967 -1.74124 20.1837 7.49967 -1.74124
130 1 21.043 9.18036 0.0030781 21.043 9.18036 0.0030781
131 2 22.976 9.05875 1.59097 22.976 9.05875 1.59097
132 2 22.9871 9.23299 -1.6756 22.9871 9.23299 -1.6756
133 1 23.8281 7.52504 -0.0588659 23.8281 7.52504 -0.0588659
134 2 25.7624 7.2678 1.49324 25.7624 7.2678 1.49324
135 2 25.6567 7.5783 -1.69774 25.6567 7.5783 -1.69774
136 1 26.8124 9.09969 0.0947358 26.8124 9.09969 0.0947358
137 2 28.7998 9.10231 1.53632 28.7998 9.10231 1.53632
138 2 28.5473 9.11107 -1.76382 28.5473 9.11107 -1.76382
139 1 29.5887 7.44213 -0.228173 29.5887 7.44213 -0.228173
140 2 31.6992 7.53023 1.25029 31.6992 7.53023 1.25029
141 2 31.4216 7.63118 -1.98557 31.4216 7.63118 -1.98557
142 1 32.3912 9.35623 -0.370587 32.3912 9.35623 -0.370587
143 2 34.494 9.29182 1.07632 34.494 9.29182 1.07632
144 2 34.1546 9.35827 -2.17433 34.1546 9.35827 -2.17433
145 1 35.3216 7.58458 -0.65037 35.3216 7.58458 -0.65037
146 2 37.2292 7.47599 0.947527 37.2292 7.47599 0.947527
147 2 36.9866 7.61734 -2.34291 36.9866 7.61734 -2.34291
148 1 38.1088 9.2616 -0.637479 38.1088 9.2616 -0.637479
149 2 40.1027 9.20489 0.844521 40.1027 9.20489 0.844521
150 2 39.871 9.16587 -2.36327 39.871 9.16587 -2.36327
151 1 40.9956 7.53612 -0.816259 40.9956 7.53612 -0.816259
152 2 42.7184 7.73162 1.0111 42.7184 7.73162 1.0111
153 2 42.9577 7.50269 -2.23996 42.9577 7.50269 -2.23996
154 1 43.7509 9.25653 -0.718898 43.7509 9.25653 -0.718898
155 2 45.5502 9.11377 0.928292 45.5502 9.11377 0.928292
156 2 45.8959 9.49169 -2.32864 45.8959 9.49169 -2.32864
157 1 46.6266 7.66651 -0.725744 46.6266 7.66651 -0.725744
158 2 48.453 7.70928 0.973277 48.453 7.70928 0.973277
159 2 48.6934 7.53611 -2.16575 48.6934 7.53611 -2.16575
160 1 49.7162 9.22712 -0.571088 49.7162 9.22712 -0.571088
161 2 51.5854 9.18678 1.02875 51.5854 9.18678 1.02875
162 2 51.6252 9.22812 -2.10966 51.6252 9.22812 -2.10966
163 1 1.12733 10.8399 -0.572484 1.12733 10.8399 -0.572484
164 2 2.97197 10.9106 1.10646 2.97197 10.9106 1.10646
165 2 3.06468 10.8527 -2.2741 3.06468 10.8527 -2.2741
166 1 3.87493 12.6078 -0.560849 3.87493 12.6078 -0.560849
167 2 5.71701 12.4657 1.08061 5.71701 12.4657 1.08061
168 2 5.82976 12.6506 -2.07205 5.82976 12.6506 -2.07205
169 1 6.74959 10.9108 -0.542584 6.74959 10.9108 -0.542584
170 2 8.59267 10.824 1.10056 8.59267 10.824 1.10056
171 2 8.61165 10.846 -2.14196 8.61165 10.846 -2.14196
172 1 9.52733 12.5173 -0.510856 9.52733 12.5173 -0.510856
173 2 11.4084 12.4017 1.31981 11.4084 12.4017 1.31981
174 2 11.6298 12.3694 -1.94971 11.6298 12.3694 -1.94971
175 1 12.4195 10.7427 -0.250861 12.4195 10.7427 -0.250861
176 2 14.383 10.6491 1.35448 14.383 10.6491 1.35448
177 2 14.2777 10.9402 -1.87683 14.2777 10.9402 -1.87683
178 1 15.2597 12.3476 -0.139757 15.2597 12.3476 -0.139757
179 2 17.1823 12.086 1.59592 17.1823 12.086 1.59592
180 2 17.1519 12.4439 -1.66077 17.1519 12.4439 -1.66077
181 1 18.2101 10.6197 -0.130277 18.2101 10.6197 -0.130277
182 2 20.0147 10.5332 1.61344 20.0147 10.5332 1.61344
183 2 20.1437 10.7572 -1.61438 20.1437 10.7572 -1.61438
184 1 20.9223 12.3814 0.0665588 20.9223 12.3814 0.0665588
185 2 22.7597 12.3147 1.74907 22.7597 12.3147 1.74907
186 2 22.9018 12.6238 -1.45882 22.9018 12.6238 -1.45882
187 1 23.8411 10.807 0.0273575 23.8411 10.807 0.0273575
188 2 25.7108 10.8215 1.67056 25.7108 10.8215 1.67056
189 2 25.8096 10.7956 -1.611 25.8096 10.7956 -1.611
190 1 26.7849 12.5366 -0.014067 26.7849 12.5366 -0.014067
191 2 28.6734 12.2951 1.59333 28.6734 12.2951 1.59333
192 2 28.5862 12.6445 -1.66457 28.5862 12.6445 -1.66457
193 1 29.5175 10.7911 -0.212975 29.5175 10.7911 -0.212975
194 2 31.5769 10.9068 1.24847 31.5769 10.9068 1.24847
195 2 31.3277 10.9474 -1.94146 31.3277 10.9474 -1.94146
196 1 32.4191 12.5148 -0.395863 32.4191 12.5148 -0.395863
197 2 34.404 12.4277 1.21738 34.404 12.4277 1.21738
198 2 34.3358 12.7255 -2.06951 34.3358 12.7255 -2.06951
199 1 35.3349 10.9065 -0.602798 35.3349 10.9065 -0.602798
200 2 37.2162 10.9685 0.988003 37.2162 10.9685 0.988003
201 2 37.1411 10.9647 -2.25539 37.1411 10.9647 -2.25539
202 1 38.1242 12.6309 -0.687366 38.1242 12.6309 -0.687366
203 2 40.044 12.3357 0.891671 40.044 12.3357 0.891671
204 2 39.9842 12.8659 -2.33096 39.9842 12.8659 -2.33096
205 1 40.9134 10.8642 -0.918677 40.9134 10.8642 -0.918677
206 2 42.8049 10.8927 0.817849 42.8049 10.8927 0.817849
207 2 42.9282 10.9597 -2.47736 42.9282 10.9597 -2.47736
208 1 43.7875 12.5937 -0.770499 43.7875 12.5937 -0.770499
209 2 45.6245 12.6304 1.05511 45.6245 12.6304 1.05511
210 2 45.8405 12.4784 -2.2991 45.8405 12.4784 -2.2991
211 1 46.7014 10.8867 -0.466689 46.7014 10.8867 -0.466689
212 2 48.7503 10.8095 1.10857 48.7503 10.8095 1.10857
213 2 48.7285 10.9812 -2.18475 48.7285 10.9812 -2.18475
214 1 49.5545 12.4816 -0.504466 49.5545 12.4816 -0.504466
215 2 51.6137 12.5684 1.00661 51.6137 12.5684 1.00661
216 2 51.4336 12.2914 -2.22252 51.4336 12.2914 -2.22252
217 1 0.997703 14.1377 -0.768273 0.997703 14.1377 -0.768273
218 2 2.84549 14.2733 0.940098 2.84549 14.2733 0.940098
219 2 2.90942 14.2971 -2.28232 2.90942 14.2971 -2.28232
220 1 3.83569 15.9103 -0.599345 3.83569 15.9103 -0.599345
221 2 5.61467 15.7395 1.24283 5.61467 15.7395 1.24283
222 2 5.86168 15.874 -2.08041 5.86168 15.874 -2.08041
223 1 6.72332 14.2283 -0.430405 6.72332 14.2283 -0.430405
224 2 8.50352 13.9451 1.25004 8.50352 13.9451 1.25004
225 2 8.59583 14.316 -2.08453 8.59583 14.316 -2.08453
226 1 9.60369 15.798 -0.0671991 9.60369 15.798 -0.0671991
227 2 11.5263 15.7449 1.47036 11.5263 15.7449 1.47036
228 2 11.4907 15.8878 -1.75038 11.4907 15.8878 -1.75038
229 1 12.4347 14.0431 -0.259643 12.4347 14.0431 -0.259643
230 2 14.2156 13.7615 1.573 14.2156 13.7615 1.573
231 2 14.5077 14.1311 -1.71765 14.5077 14.1311 -1.71765
232 1 15.2323 15.7265 0.135176 15.2323 15.7265 0.135176
233 2 17.0838 15.4742 1.85111 17.0838 15.4742 1.85111
234 2 17.1369 15.7879 -1.35709 17.1369 15.7879 -1.35709
235 1 18.0847 13.9524 0.118349 18.0847 13.9524 0.118349
236 2 19.9112 13.8822 1.86339 19.9112 13.8822 1.86339
237 2 20.0704 14.1653 -1.47425 20.0704 14.1653 -1.47425
238 1 20.9886 15.6051 0.394038 20.9886 15.6051 0.394038
239 2 22.9093 15.5727 2.09447 22.9093 15.5727 2.09447
240 2 22.9009 15.8864 -1.24664 22.9009 15.8864 -1.24664
241 1 23.8124 14.1578 0.334406 23.8124 14.1578 0.334406
242 2 25.8776 13.9968 1.85607 25.8776 13.9968 1.85607
243 2 25.6772 14.3254 -1.42574 25.6772 14.3254 -1.42574
244 1 26.6835 15.7526 0.421419 26.6835 15.7526 0.421419
245 2 28.7506 15.7663 1.90459 28.7506 15.7663 1.90459
246 2 28.5609 15.7921 -1.37655 28.5609 15.7921 -1.37655
247 1 29.5842 14.0758 0.0935286 29.5842 14.0758 0.0935286
248 2 31.5964 14.0255 1.47454 31.5964 14.0255 1.47454
249 2 31.2845 14.2412 -1.76162 31.2845 14.2412 -1.76162
250 1 32.4101 15.825 -0.136839 32.4101 15.825 -0.136839
251 2 34.3524 15.5403 1.60287 34.3524 15.5403 1.60287
252 2 34.3683 16.1007 -1.624 34.3683 16.1007 -1.624
253 1 35.2748 14.1623 -0.291976 35.2748 14.1623 -0.291976
254 2 37.2757 14.0855 1.11213 37.2757 14.0855 1.11213
255 2 37.0622 14.3171 -2.08559 37.0622 14.3171 -2.08559
256 1 38.1129 15.9199 -0.412989 38.1129 15.9199 -0.412989
257 2 40.1124 15.7286 1.26559 40.1124 15.7286 1.26559
258 2 39.983 15.9919 -2.05352 39.983 15.9919 -2.05352
259 1 40.964 14.1936 -0.547794 40.964 14.1936 -0.547794
260 2 42.9784 14.0132 1.02942 42.9784 14.0132 1.02942
261 2 42.7121 14.1847 -2.26585 42.7121 14.1847 -2.26585
262 1 43.8162 15.8534 -0.543339 43.8162 15.8534 -0.543339
263 2 45.742 15.773 1.08946 45.742 15.773 1.08946
264 2 45.7801 15.8319 -2.12319 45.7801 15.8319 -2.12319
265 1 46.7385 14.2379 -0.589571 46.7385 14.2379 -0.589571
266 2 48.5787 14.1692 1.18142 48.5787 14.1692 1.18142
267 2 48.7749 14.186 -2.18795 48.7749 14.186 -2.18795
268 1 49.573 15.8079 -0.435214 49.573 15.8079 -0.435214
269 2 51.6411 15.7857 0.975113 51.6411 15.7857 0.975113
270 2 51.2475 15.8509 -2.30616 51.2475 15.8509 -2.30616
271 1 0.986289 17.5104 -0.753478 0.986289 17.5104 -0.753478
272 2 2.8835 17.5764 0.956926 2.8835 17.5764 0.956926
273 2 2.92791 17.4989 -2.29081 2.92791 17.4989 -2.29081
274 1 3.87477 19.2239 -0.670332 3.87477 19.2239 -0.670332
275 2 5.62988 19.1517 1.2234 5.62988 19.1517 1.2234
276 2 5.91892 19.1917 -2.1282 5.91892 19.1917 -2.1282
277 1 6.68661 17.4946 -0.412746 6.68661 17.4946 -0.412746
278 2 8.31832 17.3383 1.42502 8.31832 17.3383 1.42502
279 2 8.7636 17.4653 -1.72466 8.7636 17.4653 -1.72466
280 1 9.53925 19.066 -0.0361359 9.53925 19.066 -0.0361359
281 2 11.2904 18.632 1.7459 11.2904 18.632 1.7459
282 2 11.5178 19.2762 -1.45696 11.5178 19.2762 -1.45696
283 1 12.4346 17.3907 -0.0903785 12.4346 17.3907 -0.0903785
284 2 14.1121 17.3658 1.70552 14.1121 17.3658 1.70552
285 2 14.4794 17.4577 -1.468 14.4794 17.4577 -1.468
286 1 15.2784 19.0151 0.236518 15.2784 19.0151 0.236518
287 2 17.1019 19.1039 1.90508 17.1019 19.1039 1.90508
288 2 17.2391 18.9715 -1.30841 17.2391 18.9715 -1.30841
289 1 18.1092 17.2883 0.435156 18.1092 17.2883 0.435156
290 2 19.9476 17.2281 2.03974 19.9476 17.2281 2.03974
291 2 20.2208 17.3373 -1.1993 20.2208 17.3373 -1.1993
292 1 20.8993 18.9641 0.622585 20.8993 18.9641 0.622585
293 2 22.9047 19.0197 2.17803 22.9047 19.0197 2.17803
294 2 22.8786 18.9712 -1.08492 22.8786 18.9712 -1.08492
295 1 23.8396 17.3153 0.605548 23.8396 17.3153 0.605548
296 2 25.9142 17.5115 2.05163 25.9142 17.5115 2.05163
297 2 25.618 17.3972 -1.20616 25.618 17.3972 -1.20616
298 1 26.7207 19.0229 0.268054 26.7207 19.0229 0.268054
299 2 28.6908 18.9191 1.89754 28.6908 18.9191 1.89754
300 2 28.664 19.2417 -1.39689 28.664 19.2417 -1.39689
301 1 29.5969 17.4929 0.136468 29.5969 17.4929 0.136468
302 2 31.546 17.4791 1.56606 31.546 17.4791 1.56606
303 2 31.2979 17.4251 -1.69688 31.2979 17.4251 -1.69688
304 1 32.4468 19.0865 -0.0666764 32.4468 19.0865 -0.0666764
305 2 34.1536 19.0483 1.75536 34.1536 19.0483 1.75536
306 2 34.491 19.0113 -1.49577 34.491 19.0113 -1.49577
307 1 35.3189 17.3811 0.218471 35.3189 17.3811 0.218471
308 2 37.3881 17.1883 1.6294 37.3881 17.1883 1.6294
309 2 37.0428 17.7652 -1.59289 37.0428 17.7652 -1.59289
310 1 38.161 19.1909 0.271236 38.161 19.1909 0.271236
311 2 40.3784 18.9764 1.59983 40.3784 18.9764 1.59983
312 2 39.8021 19.3912 -1.58843 39.8021 19.3912 -1.58843
313 1 40.9851 17.4946 -0.274389 40.9851 17.4946 -0.274389
314 2 42.9696 17.3922 1.22419 42.9696 17.3922 1.22419
315 2 42.7054 17.61 -1.95668 42.7054 17.61 -1.95668
316 1 43.7642 19.1737 -0.274163 43.7642 19.1737 -0.274163
317 2 45.8305 18.9656 1.24297 45.8305 18.9656 1.24297
318 2 45.7876 19.2766 -1.90591 45.7876 19.2766 -1.90591
319 1 46.7334 17.4667 -0.533417 46.7334 17.4667 -0.533417
320 2 48.6193 17.5223 1.12921 48.6193 17.5223 1.12921
321 2 48.6663 17.4349 -2.11131 48.6663 17.4349 -2.11131
322 1 49.4859 19.1034 -0.469301 49.4859 19.1034 -0.469301
323 2 51.4884 19.106 0.998449 51.4884 19.106 0.998449
324 2 51.2704 19.185 -2.23264 51.2704 19.185 -2.23264
325 1 1.02799 20.7729 -0.683049 1.02799 20.7729 -0.683049
326 2 2.79074 20.7292 1.079 2.79074 20.7292 1.079
327 2 2.93513 20.8638 -2.30734 2.93513 20.8638 -2.30734
328 1 3.79495 22.4629 -0.424784 3.79495 22.4629 -0.424784
329 2 5.57691 22.4726 1.34794 5.57691 22.4726 1.34794
330 2 5.86205 22.4281 -1.93831 5.86205 22.4281 -1.93831
331 1 6.77058 20.8 -0.214779 6.77058 20.8 -0.214779
332 2 8.38507 20.7391 1.69233 8.38507 20.7391 1.69233
333 2 8.82385 20.973 -1.6517 8.82385 20.973 -1.6517
334 1 9.61623 22.4293 0.221693 9.61623 22.4293 0.221693
335 2 11.2557 22.3626 2.02812 11.2557 22.3626 2.02812
336 2 11.5975 22.4317 -1.13516 11.5975 22.4317 -1.13516
337 1 12.3452 20.6937 0.466502 12.3452 20.6937 0.466502
338 2 14.4105 20.5858 1.9466 14.4105 20.5858 1.9466
339 2 14.3053 20.6731 -1.26391 14.3053 20.6731 -1.26391
340 1 15.2098 22.3232 0.419888 15.2098 22.3232 0.419888
341 2 17.1522 22.1933 2.0746 17.1522 22.1933 2.0746
342 2 17.0969 22.456 -1.17089 17.0969 22.456 -1.17089
343 1 18.1375 20.647 0.23854 18.1375 20.647 0.23854
344 2 19.8225 20.7452 2.07744 19.8225 20.7452 2.07744
345 2 20.1979 20.6125 -1.16841 20.1979 20.6125 -1.16841
346 1 21.0363 22.3735 0.437894 21.0363 22.3735 0.437894
347 2 22.8251 22.2549 2.18922 22.8251 22.2549 2.18922
348 2 23.0558 22.5278 -0.980935 23.0558 22.5278 -0.980935
349 1 23.8386 20.6853 0.498471 23.8386 20.6853 0.498471
350 2 25.8095 20.6165 1.98097 25.8095 20.6165 1.98097
351 2 25.714 20.8228 -1.18679 25.714 20.8228 -1.18679
352 1 26.692 22.4484 0.397739 26.692 22.4484 0.397739
353 2 28.6038 22.3005 2.03014 28.6038 22.3005 2.03014
354 2 28.5803 22.6179 -1.17787 28.5803 22.6179 -1.17787
355 1 29.5102 20.7568 0.382079 29.5102 20.7568 0.382079
356 2 31.5546 20.6679 1.75965 31.5546 20.6679 1.75965
357 2 31.187 20.8832 -1.45991 31.187 20.8832 -1.45991
358 1 32.3546 22.3922 0.198609 32.3546 22.3922 0.198609
359 2 34.2255 22.3942 1.88873 34.2255 22.3942 1.88873
360 2 34.1633 22.5142 -1.39849 34.1633 22.5142 -1.39849
361 1 35.1772 20.782 0.209635 35.1772 20.782 0.209635
362 2 37.0729 20.5994 1.92421 37.0729 20.5994 1.92421
363 2 37.2514 20.8651 -1.33496 37.2514 20.8651 -1.33496
364 1 38.1234 22.4513 0.380204 38.1234 22.4513 0.380204
365 2 40.1273 22.386 1.82263 40.1273 22.386 1.82263
366 2 39.9654 22.6372 -1.43209 39.9654 22.6372 -1.43209
367 1 41.0575 20.7997 0.0677056 41.0575 20.7997 0.0677056
368 2 43.1146 20.5189 1.66117 43.1146 20.5189 1.66117
369 2 42.8535 20.9689 -1.67948 42.8535 20.9689 -1.67948
370 1 43.9225 22.397 0.22991 43.9225 22.397 0.22991
371 2 46.0867 22.4206 1.58373 46.0867 22.4206 1.58373
372 2 45.6333 22.4616 -1.71357 45.6333 22.4616 -1.71357
373 1 46.7118 20.8097 -0.238135 46.7118 20.8097 -0.238135
374 2 48.8238 20.8376 1.18648 48.8238 20.8376 1.18648
375 2 48.4825 20.7974 -2.07497 48.4825 20.7974 -2.07497
376 1 49.6075 22.4539 -0.530366 49.6075 22.4539 -0.530366
377 2 51.4827 22.3302 1.15464 51.4827 22.3302 1.15464
378 2 51.5157 22.6009 -2.1535 51.5157 22.6009 -2.1535
379 1 1.01472 24.0643 -0.47285 1.01472 24.0643 -0.47285
380 2 2.81997 23.9653 1.3006 2.81997 23.9653 1.3006
381 2 3.03918 24.1412 -1.992 3.03918 24.1412 -1.992
382 1 3.9107 25.7191 -0.0775967 3.9107 25.7191 -0.0775967
383 2 5.6981 25.5378 1.49226 5.6981 25.5378 1.49226
384 2 5.79948 25.8992 -1.74997 5.79948 25.8992 -1.74997
385 1 6.71289 24.0955 -0.276495 6.71289 24.0955 -0.276495
386 2 8.29307 24.094 1.70211 8.29307 24.094 1.70211
387 2 8.85906 24.151 -1.57433 8.85906 24.151 -1.57433
388 1 9.53609 25.8233 0.213376 9.53609 25.8233 0.213376
389 2 11.2573 25.8087 1.97697 11.2573 25.8087 1.97697
390 2 11.6436 25.6464 -1.24455 11.6436 25.6464 -1.24455
391 1 12.3588 24.0962 0.516064 12.3588 24.0962 0.516064
392 2 14.2723 23.8583 2.12789 14.2723 23.8583 2.12789
393 2 14.2846 24.1118 -1.04823 14.2846 24.1118 -1.04823
394 1 15.2217 25.7001 0.554165 15.2217 25.7001 0.554165
395 2 17.1091 25.5025 2.20783 17.1091 25.5025 2.20783
396 2 17.1976 25.705 -1.01212 17.1976 25.705 -1.01212
397 1 18.1332 23.9877 0.558311 18.1332 23.9877 0.558311
398 2 20.1518 23.943 2.12787 20.1518 23.943 2.12787
399 2 19.9529 24.0133 -1.06655 19.9529 24.0133 -1.06655
400 1 20.9704 25.7424 0.551463 20.9704 25.7424 0.551463
401 2 22.7409 25.7183 2.30878 22.7409 25.7183 2.30878
402 2 22.9754 25.5992 -0.869436 22.9754 25.5992 -0.869436
403 1 23.8792 24.0355 0.811033 23.8792 24.0355 0.811033
404 2 25.9778 23.9464 2.27372 25.9778 23.9464 2.27372
405 2 25.5285 24.235 -1.05906 25.5285 24.235 -1.05906
406 1 26.6615 25.7329 0.664726 26.6615 25.7329 0.664726
407 2 28.623 25.7712 2.198 28.623 25.7712 2.198
408 2 28.5361 25.5964 -1.06705 28.5361 25.5964 -1.06705
409 1 29.6496 24.0654 0.60701 29.6496 24.0654 0.60701
410 2 31.6623 24.003 2.07455 31.6623 24.003 2.07455
411 2 31.3835 24.0842 -1.18484 31.3835 24.0842 -1.18484
412 1 32.4565 25.7093 0.449446 32.4565 25.7093 0.449446
413 2 34.4659 25.6493 1.93304 34.4659 25.6493 1.93304
414 2 34.3976 25.7386 -1.25648 34.3976 25.7386 -1.25648
415 1 35.3706 24.0319 0.348736 35.3706 24.0319 0.348736
416 2 37.236 24.1081 2.05244 37.236 24.1081 2.05244
417 2 37.3013 24.1749 -1.31048 37.3013 24.1749 -1.31048
418 1 38.152 25.7487 0.359616 38.152 25.7487 0.359616
419 2 40.1737 25.8902 1.96631 40.1737 25.8902 1.96631
420 2 40.0882 25.6663 -1.2865 40.0882 25.6663 -1.2865
421 1 41.1159 24.1193 0.332482 41.1159 24.1193 0.332482
422 2 43.1077 24.099 1.88613 43.1077 24.099 1.88613
423 2 42.8518 24.0902 -1.39155 42.8518 24.0902 -1.39155
424 1 43.9994 25.6827 0.183925 43.9994 25.6827 0.183925
425 2 46.0998 25.672 1.58334 46.0998 25.672 1.58334
426 2 45.6768 25.8022 -1.63539 45.6768 25.8022 -1.63539
427 1 46.7575 24.063 -0.133328 46.7575 24.063 -0.133328
428 2 48.9052 24.0492 1.23195 48.9052 24.0492 1.23195
429 2 48.419 24.1008 -1.9519 48.419 24.1008 -1.9519
430 1 49.5812 25.7095 -0.445346 49.5812 25.7095 -0.445346
431 2 51.3985 25.6817 1.2789 51.3985 25.6817 1.2789
432 2 51.5006 25.8077 -2.06955 51.5006 25.8077 -2.06955
433 1 0.980562 27.3741 -0.262509 0.980562 27.3741 -0.262509
434 2 2.83158 27.3831 1.43881 2.83158 27.3831 1.43881
435 2 2.98947 27.2625 -1.82791 2.98947 27.2625 -1.82791
436 1 3.86223 29.0463 -0.220935 3.86223 29.0463 -0.220935
437 2 5.48059 29.03 1.63628 5.48059 29.03 1.63628
438 2 5.89289 29.1393 -1.69473 5.89289 29.1393 -1.69473
439 1 6.64597 27.4084 0.0696824 6.64597 27.4084 0.0696824
440 2 8.56379 27.445 1.8988 8.56379 27.445 1.8988
441 2 8.6676 27.4112 -1.53838 8.6676 27.4112 -1.53838
442 1 9.53484 29.0193 0.176552 9.53484 29.0193 0.176552
443 2 11.384 29.1427 1.87085 11.384 29.1427 1.87085
444 2 11.552 28.9886 -1.41842 11.552 28.9886 -1.41842
445 1 12.4025 27.3653 0.385027 12.4025 27.3653 0.385027
446 2 14.0946 27.1759 2.13009 14.0946 27.1759 2.13009
447 2 14.4736 27.4137 -1.17078 14.4736 27.4137 -1.17078
448 1 15.2323 29.1004 0.537317 15.2323 29.1004 0.537317
449 2 17.1904 29.0643 2.10622 17.1904 29.0643 2.10622
450 2 17.0991 28.8598 -1.07578 17.0991 28.8598 -1.07578
451 1 18.0778 27.3259 0.636714 18.0778 27.3259 0.636714
452 2 19.9875 27.4332 2.20833 19.9875 27.4332 2.20833
453 2 19.849 27.2857 -1.09428 19.849 27.2857 -1.09428
454 1 20.9287 29 0.410906 20.9287 29 0.410906
455 2 22.8434 29.1301 2.13248 22.8434 29.1301 2.13248
456 2 23.0334 28.7074 -1.06925 23.0334 28.7074 -1.06925
457 1 23.8048 27.3532 0.814567 23.8048 27.3532 0.814567
458 2 25.8102 27.3711 2.32415 25.8102 27.3711 2.32415
459 2 25.6722 27.2412 -0.990792 25.6722 27.2412 -0.990792
460 1 26.6955 29.0269 0.574828 26.6955 29.0269 0.574828
461 2 28.6113 29.0728 2.1647 28.6113 29.0728 2.1647
462 2 28.6129 29.0829 -1.13755 28.6129 29.0829 -1.13755
463 1 29.5144 27.3304 0.567958 29.5144 27.3304 0.567958
464 2 31.6438 27.4457 2.07258 31.6438 27.4457 2.07258
465 2 31.5117 27.3669 -1.16039 31.5117 27.3669 -1.16039
466 1 32.5363 29.0057 0.418837 32.5363 29.0057 0.418837
467 2 34.492 29.1076 1.95029 34.492 29.1076 1.95029
468 2 34.419 28.9471 -1.25208 34.419 28.9471 -1.25208
469 1 35.3696 27.4139 0.350613 35.3696 27.4139 0.350613
470 2 37.1985 27.4466 1.97267 37.1985 27.4466 1.97267
471 2 37.1919 27.4379 -1.28884 37.1919 27.4379 -1.28884
472 1 38.197 29.0186 0.300535 38.197 29.0186 0.300535
473 2 40.2451 29.1119 1.86037 40.2451 29.1119 1.86037
474 2 40.0002 29.0448 -1.48244 40.0002 29.0448 -1.48244
475 1 41.012 27.3365 0.178094 41.012 27.3365 0.178094
476 2 43.0702 27.4004 1.66984 43.0702 27.4004 1.66984
477 2 42.9002 27.3173 -1.52484 42.9002 27.3173 -1.52484
478 1 43.8992 29.0483 -0.0478115 43.8992 29.0483 -0.0478115
479 2 45.8433 29.2453 1.45606 45.8433 29.2453 1.45606
480 2 45.6812 28.9646 -1.79572 45.6812 28.9646 -1.79572
481 1 46.7487 27.4079 -0.177601 46.7487 27.4079 -0.177601
482 2 48.7 27.426 1.33697 48.7 27.426 1.33697
483 2 48.5076 27.328 -1.98478 48.5076 27.328 -1.98478
484 1 49.5773 29.0435 -0.418157 49.5773 29.0435 -0.418157
485 2 51.3229 29.0042 1.37672 51.3229 29.0042 1.37672
486 2 51.5045 29.0736 -1.90877 51.5045 29.0736 -1.90877
487 1 0.993858 30.7409 -0.131521 0.993858 30.7409 -0.131521
488 2 2.77806 30.4734 1.59076 2.77806 30.4734 1.59076
489 2 3.03261 30.9748 -1.67213 3.03261 30.9748 -1.67213
490 1 3.81558 32.389 0.293208 3.81558 32.389 0.293208
491 2 5.73109 32.493 1.8143 5.73109 32.493 1.8143
492 2 5.73072 32.3257 -1.40586 5.73072 32.3257 -1.40586
493 1 6.69447 30.7452 0.193897 6.69447 30.7452 0.193897
494 2 8.65637 30.6727 1.83034 8.65637 30.6727 1.83034
495 2 8.69416 30.7562 -1.40343 8.69416 30.7562 -1.40343
496 1 9.58357 32.4669 0.17528 9.58357 32.4669 0.17528
497 2 11.4685 32.393 1.81391 11.4685 32.393 1.81391
498 2 11.5659 32.3428 -1.42565 11.5659 32.3428 -1.42565
499 1 12.4502 30.7175 0.220202 12.4502 30.7175 0.220202
500 2 14.1839 30.9204 1.91305 14.1839 30.9204 1.91305
501 2 14.3755 30.6143 -1.28765 14.3755 30.6143 -1.28765
502 1 15.3169 32.3439 0.263504 15.3169 32.3439 0.263504
503 2 17.1481 32.4459 1.98943 17.1481 32.4459 1.98943
504 2 17.293 32.17 -1.26104 17.293 32.17 -1.26104
505 1 18.1515 30.5943 0.395571 18.1515 30.5943 0.395571
506 2 20.0744 30.7009 2.00006 20.0744 30.7009 2.00006
507 2 20.0456 30.5285 -1.30968 20.0456 30.5285 -1.30968
508 1 20.9265 32.3424 0.23418 20.9265 32.3424 0.23418
509 2 22.939 32.3438 1.90833 22.939 32.3438 1.90833
510 2 22.9675 32.228 -1.25225 22.9675 32.228 -1.25225
511 1 23.8676 30.6151 0.415992 23.8676 30.6151 0.415992
512 2 25.7753 30.7822 2.06586 25.7753 30.7822 2.06586
513 2 25.7964 30.4438 -1.26639 25.7964 30.4438 -1.26639
514 1 26.8133 32.2767 0.120695 26.8133 32.2767 0.120695
515 2 28.599 32.3938 1.84727 28.599 32.3938 1.84727
516 2 28.7225 32.11 -1.45391 28.7225 32.11 -1.45391
517 1 29.6373 30.5891 0.415015 29.6373 30.5891 0.415015
518 2 31.668 30.7266 1.92632 31.668 30.7266 1.92632
519 2 31.3829 30.4698 -1.2848 31.3829 30.4698 -1.2848
520 1 32.445 32.2926 0.0783317 32.445 32.2926 0.0783317
521 2 34.377 32.5556 1.71494 34.377 32.5556 1.71494
522 2 34.2565 32.1266 -1.5857 34.2565 32.1266 -1.5857
523 1 35.3409 30.7669 0.185621 35.3409 30.7669 0.185621
524 2 37.3361 30.8376 1.76972 37.3361 30.8376 1.76972
525 2 37.2271 30.5534 -1.46438 37.2271 30.5534 -1.46438
526 1 38.2442 32.3494 -0.131274 38.2442 32.3494 -0.131274
527 2 40.1516 32.5796 1.60682 40.1516 32.5796 1.60682
528 2 40.1102 32.1207 -1.67405 40.1102 32.1207 -1.67405
529 1 41.0395 30.6595 0.133983 41.0395 30.6595 0.133983
530 2 43.0935 30.8413 1.50311 43.0935 30.8413 1.50311
531 2 42.699 30.5661 -1.68556 42.699 30.5661 -1.68556
532 1 43.9243 32.353 -0.273349 43.9243 32.353 -0.273349
533 2 45.9797 32.4901 1.30241 45.9797 32.4901 1.30241
534 2 45.736 32.2084 -2.04476 45.736 32.2084 -2.04476
535 1 46.7769 30.7572 -0.404468 46.7769 30.7572 -0.404468
536 2 48.7233 30.6688 1.21091 48.7233 30.6688 1.21091
537 2 48.6023 30.7137 -2.10641 48.6023 30.7137 -2.10641
538 1 49.5474 32.3753 -0.441135 49.5474 32.3753 -0.441135
539 2 51.2585 32.4191 1.39976 51.2585 32.4191 1.39976
540 2 51.7006 32.4098 -1.86363 51.7006 32.4098 -1.86363