ITEM: TIMESTEP
21100
ITEM: NUMBER OF ATOMS
810
ITEM: BOX BOUNDS pp pp pp
7.6993510201457060e-01 5.2247669897985993e+01
7.6340684103290635e-01 5.0252808158966324e+01
-1.0000000000000000e+01 1.0000000000000000e+01
ITEM: ATOMS id type x y z xu yu zu
1 1 0.888579 0.865828 -0.477895 0.888579 0.865828 -0.477895
2 2 2.78556 1.00418 1.16515 2.78556 1.00418 1.16515
3 2 2.83872 50.151 -2.0302 2.83872 0.661594 -2.0302
4 1 3.79643 2.55008 -0.458881 3.79643 2.55008 -0.458881
5 2 5.73901 2.68023 1.2095 5.73901 2.68023 1.2095
6 2 5.79302 2.28283 -2.16773 5.79302 2.28283 -2.16773
7 1 6.71058 0.89045 -0.256575 6.71058 0.89045 -0.256575
8 2 8.57291 1.10551 1.31192 8.57291 1.10551 1.31192
9 2 8.72474 0.888619 -1.8103 8.72474 0.888619 -1.8103
10 1 9.64118 2.59021 -0.345735 9.64118 2.59021 -0.345735
11 2 11.4732 2.68849 1.34759 11.4732 2.68849 1.34759
12 2 11.569 2.51306 -1.96577 11.569 2.51306 -1.96577
13 1 12.5141 1.01777 -0.18851 12.5141 1.01777 -0.18851
14 2 14.4906 0.896587 1.42952 14.4906 0.896587 1.42952
15 2 14.4196 0.98636 -1.8108 14.4196 0.98636 -1.8108
16 1 15.2568 2.65066 -0.19257 15.2568 2.65066 -0.19257
17 2 17.059 2.49258 1.56861 17.059 2.49258 1.56861
18 2 17.2019 2.74218 -1.632 17.2019 2.74218 -1.632
19 1 18.1061 0.926588 -0.125675 18.1061 0.926588 -0.125675
20 2 19.7517 0.882848 1.67729 19.7517 0.882848 1.67729
21 2 20.2383 1.05517 -1.52745 20.2383 1.05517 -1.52745
22 1 20.9166 2.61125 0.217168 20.9166 2.61125 0.217168
23 2 22.7642 2.60161 1.89228 22.7642 2.60161 1.89228
24 2 22.9412 2.70985 -1.40713 22.9412 2.70985 -1.40713
25 1 23.7942 1.02797 0.297734 23.7942 1.02797 0.297734
26 2 25.4116 1.07585 2.27632 25.4116 1.07585 2.27632
27 2 25.8496 0.900246 -1.01401 25.8496 0.900246 -1.01401
28 1 26.6821 2.71009 0.661766 26.6821 2.71009 0.661766
29 2 28.705 2.82555 2.11526 28.705 2.82555 2.11526
30 2 28.4159 2.60519 -1.09351 28.4159 2.60519 -1.09351
31 1 29.5467 1.04989 0.567808 29.5467 1.04989 0.567808
32 2 31.559 1.19446 2.10101 31.559 1.19446 2.10101
33 2 31.4276 0.830008 -1.15467 31.4276 0.830008 -1.15467
34 1 32.3914 2.65556 0.304846 32.3914 2.65556 0.304846
35 2 34.3241 2.82092 2.03748 34.3241 2.82092 2.03748
36 2 34.2137 2.50968 -1.36938 34.2137 2.50968 -1.36938
37 1 35.2347 0.99529 0.362148 35.2347 0.99529 0.362148
38 2 37.2209 1.15156 1.89488 37.2209 1.15156 1.89488
39 2 37.0773 0.98464 -1.34899 37.0773 0.98464 -1.34899
40 1 38.0608 2.68233 0.111612 38.0608 2.68233 0.111612
41 2 40.1271 2.73885 1.57841 40.1271 2.73885 1.57841
42 2 39.8257 2.55762 -1.5833 39.8257 2.55762 -1.5833
43 1 41.0251 1.05297 0.00592405 41.0251 1.05297 0.00592405
44 2 43.1658 1.04891 1.35551 43.1658 1.04891 1.35551
45 2 42.6382 0.815556 -1.90856 42.6382 0.815556 -1.90856
46 1 43.8853 2.49779 -0.597037 43.8853 2.49779 -0.597037
47 2 45.7072 2.70186 1.21109 45.7072 2.70186 1.21109
48 2 45.8183 2.23543 -2.02383 45.8183 2.23543 -2.02383
49 1 46.708 0.883377 -0.164964 46.708 0.883377 -0.164964
50 2 48.7079 1.07095 1.29837 48.7079 1.07095 1.29837
51 2 48.457 0.755204 -1.90271 48.457 0.755204 -1.90271
52 1 49.6047 2.55072 -0.693441 49.6047 2.55072 -0.693441
53 2 51.4376 2.75692 1.0044 51.4376 2.75692 1.0044
54 2 51.6124 2.4492 -2.31031 51.6124 2.4492 -2.31031
55 1 1.02196 4.19021 -0.772033 1.02196 4.19021 -0.772033
56 2 2.79834 4.34836 0.945283 2.79834 4.34836 0.945283
57 2 3.00213 3.94128 -2.35444 3.00213 3.94128 -2.35444
58 1 3.84057 5.73207 -0.937494 3.84057 5.73207 -0.937494
59 2 5.61417 5.69905 0.824198 5.61417 5.69905 0.824198
60 2 5.77305 5.9411 -2.45695 5.77305 5.9411 -2.45695
61 1 6.69062 4.15087 -0.743556 6.69062 4.15087 -0.743556
62 2 8.36052 4.31049 1.08085 8.36052 4.31049 1.08085
63 2 8.80196 4.17024 -2.08299 8.80196 4.17024 -2.08299
64 1 9.51475 5.95846 -0.404389 9.51475 5.95846 -0.404389
65 2 11.4466 5.85257 1.19912 11.4466 5.85257 1.19912
66 2 11.4697 5.93363 -2.03204 11.4697 5.93363 -2.03204
67 1 12.4516 4.2182 -0.397295 12.4516 4.2182 -0.397295
68 2 14.2164 4.18399 1.38304 14.2164 4.18399 1.38304
69 2 14.4743 4.21643 -1.92748 14.4743 4.21643 -1.92748
70 1 15.3085 5.90554 -0.226156 15.3085 5.90554 -0.226156
71 2 17.0999 6.06661 1.53475 17.0999 6.06661 1.53475
72 2 17.264 5.80826 -1.70474 17.264 5.80826 -1.70474
73 1 18.099 4.31312 0.118196 18.099 4.31312 0.118196
74 2 19.7932 4.13599 1.86463 19.7932 4.13599 1.86463
75 2 20.1095 4.45296 -1.39489 20.1095 4.45296 -1.39489
76 1 20.9847 5.90156 0.382987 20.9847 5.90156 0.382987
77 2 22.9659 6.00736 1.95622 22.9659 6.00736 1.95622
78 2 22.8861 5.83953 -1.31558 22.8861 5.83953 -1.31558
79 1 23.8065 4.24648 0.299042 23.8065 4.24648 0.299042
80 2 25.6545 4.59283 2.03069 25.6545 4.59283 2.03069
81 2 25.8553 4.10539 -1.24286 25.8553 4.10539 -1.24286
82 1 26.6829 5.91316 0.0809592 26.6829 5.91316 0.0809592
83 2 28.5259 6.09471 1.79629 28.5259 6.09471 1.79629
84 2 28.7869 5.85811 -1.52013 28.7869 5.85811 -1.52013
85 1 29.5924 4.33172 0.37111 29.5924 4.33172 0.37111
86 2 31.6248 4.38522 1.88666 31.6248 4.38522 1.88666
87 2 31.4173 4.1919 -1.4648 31.4173 4.1919 -1.4648
88 1 32.4385 5.99853 0.0603598 32.4385 5.99853 0.0603598
89 2 34.3035 6.23093 1.65983 34.3035 6.23093 1.65983
90 2 34.3419 5.89527 -1.54642 34.3419 5.89527 -1.54642
91 1 35.2504 4.40627 0.189866 35.2504 4.40627 0.189866
92 2 37.2775 4.24942 1.76612 37.2775 4.24942 1.76612
93 2 37.177 4.28745 -1.54179 37.177 4.28745 -1.54179
94 1 38.2038 5.94013 0.0497745 38.2038 5.94013 0.0497745
95 2 40.2715 6.05653 1.52884 40.2715 6.05653 1.52884
96 2 39.9264 5.83949 -1.74269 39.9264 5.83949 -1.74269
97 1 41.0362 4.30638 -0.153124 41.0362 4.30638 -0.153124
98 2 43.0634 4.03111 1.30744 43.0634 4.03111 1.30744
99 2 42.7582 4.34201 -1.93376 42.7582 4.34201 -1.93376
100 1 43.8681 5.76755 -0.268887 43.8681 5.76755 -0.268887
101 2 45.9552 5.79576 1.06361 45.9552 5.79576 1.06361
102 2 45.5623 5.81049 -2.12849 45.5623 5.81049 -2.12849
103 1 46.7021 4.11783 -0.594078 46.7021 4.11783 -0.594078
104 2 48.8062 4.3063 0.931392 48.8062 4.3063 0.931392
105 2 48.5048 4.1125 -2.26438 48.5048 4.1125 -2.26438
106 1 49.6682 5.84589 -0.795635 49.6682 5.84589 -0.795635
107 2 51.5539 6.00831 0.808119 51.5539 6.00831 0.808119
108 2 51.5286 5.72995 -2.59795 51.5286 5.72995 -2.59795
109 1 1.0478 7.44048 -1.02694 1.0478 7.44048 -1.02694
110 2 2.80887 7.49405 0.708023 2.80887 7.49405 0.708023
111 2 2.94164 7.54451 -2.60421 2.94164 7.54451 -2.60421
112 1 3.82781 9.11767 -0.778715 3.82781 9.11767 -0.778715
113 2 5.7346 9.13215 0.836436 5.7346 9.13215 0.836436
114 2 5.72022 9.18596 -2.42325 5.72022 9.18596 -2.42325
115 1 6.62318 7.49196 -0.715302 6.62318 7.49196 -0.715302
116 2 8.52352 7.68504 0.992831 8.52352 7.68504 0.992831
117 2 8.59758 7.27738 -2.2769 8.59758 7.27738 -2.2769
118 1 9.54991 9.18153 -0.776703 9.54991 9.18153 -0.776703
119 2 11.2961 9.35337 1.02925 11.2961 9.35337 1.02925
120 2 11.6029 9.10078 -2.20547 11.6029 9.10078 -2.20547
121 1 12.4314 7.54552 -0.370283 12.4314 7.54552 -0.370283
122 2 14.3211 7.51529 1.41045 14.3211 7.51529 1.41045
123 2 14.3185 7.5065 -1.90709 14.3185 7.5065 -1.90709
124 1 15.2471 9.30505 -0.263228 15.2471 9.30505 -0.263228
125 2 17.0702 9.2575 1.52142 17.0702 9.2575 1.52142
126 2 17.2301 9.17004 -1.75875 17.2301 9.17004 -1.75875
127 1 18.1272 7.60529 -0.078879 18.1272 7.60529 -0.078879
128 2 19.8431 7.74029 1.70102 19.8431 7.74029 1.70102
129 2 20.176 7.42371 -1.52672 20.176 7.42371 -1.52672
130 1 21.123 9.26982 -0.000958904 21.123 9.26982 -0.000958904
131 2 23.0076 9.47887 1.68626 23.0076 9.47887 1.68626
132 2 22.9841 9.10767 -1.58077 22.9841 9.10767 -1.58077
133 1 23.9218 7.64761 0.261626 23.9218 7.64761 0.261626
134 2 25.9391 7.66386 1.83006 25.9391 7.66386 1.83006
135 2 25.7724 7.68415 -1.46204 25.7724 7.68415 -1.46204
136 1 26.8221 9.30055 0.129559 26.8221 9.30055 0.129559
137 2 28.7858 9.34172 1.62237 28.7858 9.34172 1.62237
138 2 28.6473 9.23422 -1.55635 28.6473 9.23422 -1.55635
139 1 29.6466 7.5937 0.0996651 29.6466 7.5937 0.0996651
140 2 31.6399 7.69519 1.60569 31.6399 7.69519 1.60569
141 2 31.4889 7.65091 -1.59143 31.4889 7.65091 -1.59143
142 1 32.473 9.34351 -0.0458631 32.473 9.34351 -0.0458631
143 2 34.4153 9.49875 1.47348 34.4153 9.49875 1.47348
144 2 34.2619 9.054 -1.82266 34.2619 9.054 -1.82266
145 1 35.3295 7.68532 0.00154772 35.3295 7.68532 0.00154772
146 2 37.333 7.87973 1.4081 37.333 7.87973 1.4081
147 2 36.945 7.27944 -1.80233 36.945 7.27944 -1.80233
148 1 38.1184 9.21237 -0.479654 38.1184 9.21237 -0.479654
149 2 40.0443 9.35114 1.21677 40.0443 9.35114 1.21677
150 2 40.027 9.12689 -2.08081 40.027 9.12689 -2.08081
151 1 41.0736 7.6605 -0.333648 41.0736 7.6605 -0.333648
152 2 43.0137 7.7575 1.1889 43.0137 7.7575 1.1889
153 2 42.7619 7.36495 -2.07688 42.7619 7.36495 -2.07688
154 1 43.8799 9.17718 -0.685778 43.8799 9.17718 -0.685778
155 2 45.7969 9.17372 0.846826 45.7969 9.17372 0.846826
156 2 45.7334 9.10848 -2.36179 45.7334 9.10848 -2.36179
157 1 46.7849 7.48941 -0.743001 46.7849 7.48941 -0.743001
158 2 48.8145 7.5259 0.743064 48.8145 7.5259 0.743064
159 2 48.6465 7.43234 -2.43167 48.6465 7.43234 -2.43167
160 1 49.7301 9.15258 -0.932603 49.7301 9.15258 -0.932603
161 2 51.6533 9.15746 0.627926 51.6533 9.15746 0.627926
162 2 51.5435 9.13266 -2.54904 51.5435 9.13266 -2.54904
163 1 1.02753 10.8489 -1.03437 1.02753 10.8489 -1.03437
164 2 2.81289 10.7778 0.659269 2.81289 10.7778 0.659269
165 2 3.00927 10.8131 -2.54648 3.00927 10.8131 -2.54648
166 1 3.84982 12.4527 -0.890939 3.84982 12.4527 -0.890939
167 2 5.61873 12.4448 0.889609 5.61873 12.4448 0.889609
168 2 5.80155 12.5125 -2.46001 5.80155 12.5125 -2.46001
169 1 6.63394 10.8538 -0.818631 6.63394 10.8538 -0.818631
170 2 8.43097 10.7614 0.932907 8.43097 10.7614 0.932907
171 2 8.65977 10.9756 -2.3742 8.65977 10.9756 -2.3742
172 1 9.58954 12.4778 -0.547881 9.58954 12.4778 -0.547881
173 2 11.454 12.3822 1.17793 11.454 12.3822 1.17793
174 2 11.5394 12.5504 -2.18354 11.5394 12.5504 -2.18354
175 1 12.4911 10.8704 -0.554721 12.4911 10.8704 -0.554721
176 2 14.1441 10.8762 1.30649 14.1441 10.8762 1.30649
177 2 14.5184 11.0031 -1.92047 14.5184 11.0031 -1.92047
178 1 15.3789 12.6189 -0.1437 15.3789 12.6189 -0.1437
179 2 17.2439 12.5371 1.52131 17.2439 12.5371 1.52131
180 2 17.3228 12.4766 -1.8157 17.3228 12.4766 -1.8157
181 1 18.2195 10.8825 -0.0671054 18.2195 10.8825 -0.0671054
182 2 20.0884 11.1386 1.55618 20.0884 11.1386 1.55618
183 2 20.0715 10.8673 -1.76551 20.0715 10.8673 -1.76551
184 1 21.1096 12.5862 -0.278705 21.1096 12.5862 -0.278705
185 2 22.8307 12.4711 1.41915 22.8307 12.4711 1.41915
186 2 23.192 12.6257 -1.7606 23.192 12.6257 -1.7606
187 1 23.9414 10.8818 -0.164028 23.9414 10.8818 -0.164028
188 2 25.7767 10.9805 1.53699 25.7767 10.9805 1.53699
189 2 25.9851 10.7954 -1.73445 25.9851 10.7954 -1.73445
190 1 26.7583 12.5604 -0.106691 26.7583 12.5604 -0.106691
191 2 28.6798 12.7372 1.45805 28.6798 12.7372 1.45805
192 2 28.6157 12.5414 -1.86736 28.6157 12.5414 -1.86736
193 1 29.6464 10.977 -0.092199 29.6464 10.977 -0.092199
194 2 31.5583 11.2445 1.40349 31.5583 11.2445 1.40349
195 2 31.513 10.7506 -1.76017 31.513 10.7506 -1.76017
196 1 32.4559 12.6714 -0.386354 32.4559 12.6714 -0.386354
197 2 34.5688 12.7841 1.03501 34.5688 12.7841 1.03501
198 2 34.1122 12.4174 -2.19691 34.1122 12.4174 -2.19691
199 1 35.1893 10.8723 -0.422102 35.1893 10.8723 -0.422102
200 2 37.1954 10.903 1.17537 37.1954 10.903 1.17537
201 2 36.9921 10.9383 -2.17547 36.9921 10.9383 -2.17547
202 1 38.1332 12.5671 -0.596129 38.1332 12.5671 -0.596129
203 2 40.2701 12.6968 0.95612 40.2701 12.6968 0.95612
204 2 40.0214 12.4749 -2.32359 40.0214 12.4749 -2.32359
205 1 40.9743 10.8833 -0.586659 40.9743 10.8833 -0.586659
206 2 42.953 11.0333 0.878162 42.953 11.0333 0.878162
207 2 42.7226 10.6042 -2.42112 42.7226 10.6042 -2.42112
208 1 43.8719 12.5223 -0.940986 43.8719 12.5223 -0.940986
209 2 45.7324 12.5695 0.696681 45.7324 12.5695 0.696681
210 2 45.7534 12.3137 -2.5605 45.7534 12.3137 -2.5605
211 1 46.7666 10.7817 -0.811402 46.7666 10.7817 -0.811402
212 2 48.6784 10.8892 0.763059 48.6784 10.8892 0.763059
213 2 48.4911 10.5969 -2.62365 48.4911 10.5969 -2.62365
214 1 49.5731 12.4159 -1.15347 49.5731 12.4159 -1.15347
215 2 51.4103 12.4718 0.531596 51.4103 12.4718 0.531596
216 2 51.5072 12.4367 -2.77549 51.5072 12.4367 -2.77549
217 1 0.941088 14.1424 -1.1776 0.941088 14.1424 -1.1776
218 2 2.64741 14.1342 0.755124 2.64741 14.1342 0.755124
219 2 3.02154 14.2961 -2.55423 3.02154 14.2961 -2.55423
220 1 3.75406 15.7637 -0.650693 3.75406 15.7637 -0.650693
221 2 5.70356 15.7494 0.898774 5.70356 15.7494 0.898774
222 2 5.73536 15.7458 -2.32972 5.73536 15.7458 -2.32972
223 1 6.73408 14.0472 -0.782377 6.73408 14.0472 -0.782377
224 2 8.39422 14.1016 1.08437 8.39422 14.1016 1.08437
225 2 8.71532 14.1694 -2.19315 8.71532 14.1694 -2.19315
226 1 9.54663 15.7564 -0.347753 9.54663 15.7564 -0.347753
227 2 11.5807 15.7729 1.28007 11.5807 15.7729 1.28007
228 2 11.4498 15.8084 -2.06255 11.4498 15.8084 -2.06255
229 1 12.5069 14.1753 -0.387172 12.5069 14.1753 -0.387172
230 2 14.3044 14.2311 1.33192 14.3044 14.2311 1.33192
231 2 14.5343 14.2239 -1.9608 14.5343 14.2239 -1.9608
232 1 15.4584 15.8561 -0.184963 15.4584 15.8561 -0.184963
233 2 17.4204 15.7722 1.42721 17.4204 15.7722 1.42721
234 2 17.2929 15.7317 -1.85909 17.2929 15.7317 -1.85909
235 1 18.2252 14.1631 -0.215297 18.2252 14.1631 -0.215297
236 2 20.0535 14.0943 1.4395 20.0535 14.0943 1.4395
237 2 20.1739 14.2844 -1.75553 20.1739 14.2844 -1.75553
238 1 21.0293 15.8804 -0.0621724 21.0293 15.8804 -0.0621724
239 2 23.0177 16.052 1.48082 23.0177 16.052 1.48082
240 2 22.8591 15.8902 -1.77675 22.8591 15.8902 -1.77675
241 1 23.9141 14.2392 -0.111645 23.9141 14.2392 -0.111645
242 2 25.9251 14.1537 1.51575 25.9251 14.1537 1.51575
243 2 25.7942 14.2128 -1.81342 25.7942 14.2128 -1.81342
244 1 26.7725 15.8999 -0.138654 26.7725 15.8999 -0.138654
245 2 28.7401 15.9955 1.31626 28.7401 15.9955 1.31626
246 2 28.4323 15.7647 -1.93499 28.4323 15.7647 -1.93499
247 1 29.6687 14.287 -0.280501 29.6687 14.287 -0.280501
248 2 31.6668 14.4199 1.23023 31.6668 14.4199 1.23023
249 2 31.3936 14.1753 -2.10171 31.3936 14.1753 -2.10171
250 1 32.4544 15.9037 -0.648956 32.4544 15.9037 -0.648956
251 2 34.4965 15.945 0.685696 34.4965 15.945 0.685696
252 2 34.255 15.6814 -2.42896 34.255 15.6814 -2.42896
253 1 35.2821 14.2298 -0.790871 35.2821 14.2298 -0.790871
254 2 37.2876 14.4651 0.815396 37.2876 14.4651 0.815396
255 2 37.1768 14.0253 -2.43572 37.1768 14.0253 -2.43572
256 1 38.1822 15.8297 -1.06501 38.1822 15.8297 -1.06501
257 2 39.8492 15.8273 0.759972 39.8492 15.8273 0.759972
258 2 40.2672 15.9818 -2.45821 40.2672 15.9818 -2.45821
259 1 41.0552 14.3016 -0.861701 41.0552 14.3016 -0.861701
260 2 42.9741 14.279 0.689517 42.9741 14.279 0.689517
261 2 42.9419 14.209 -2.59561 42.9419 14.209 -2.59561
262 1 43.9076 15.9298 -0.998696 43.9076 15.9298 -0.998696
263 2 45.7727 15.6923 0.708419 45.7727 15.6923 0.708419
264 2 45.8648 15.9425 -2.51374 45.8648 15.9425 -2.51374
265 1 46.8064 14.13 -1.05796 46.8064 14.13 -1.05796
266 2 48.7399 14.1606 0.376579 48.7399 14.1606 0.376579
267 2 48.6305 14.1063 -2.73421 48.6305 14.1063 -2.73421
268 1 49.6024 15.7993 -1.17031 49.6024 15.7993 -1.17031
269 2 51.417 15.6774 0.549147 51.417 15.6774 0.549147
270 2 51.6845 16.0642 -2.63116 51.6845 16.0642 -2.63116
271 1 1.02514 17.4135 -0.762225 1.02514 17.4135 -0.762225
272 2 2.83265 17.419 0.967938 2.83265 17.419 0.967938
273 2 2.9928 17.4563 -2.32133 2.9928 17.4563 -2.32133
274 1 3.82633 19.1569 -0.589015 3.82633 19.1569 -0.589015
275 2 5.79701 19.0484 1.04621 5.79701 19.0484 1.04621
276 2 5.71987 19.2577 -2.19109 5.71987 19.2577 -2.19109
277 1 6.60696 17.4433 -0.66946 6.60696 17.4433 -0.66946
278 2 8.40204 17.4061 1.16139 8.40204 17.4061 1.16139
279 2 8.69885 17.2501 -2.05295 8.69885 17.2501 -2.05295
280 1 9.57707 19.1057 -0.439457 9.57707 19.1057 -0.439457
281 2 11.5127 19.0398 1.23279 11.5127 19.0398 1.23279
282 2 11.4951 18.965 -1.98581 11.4951 18.965 -1.98581
283 1 12.4469 17.3583 -0.373601 12.4469 17.3583 -0.373601
284 2 14.4662 17.6102 1.20793 14.4662 17.6102 1.20793
285 2 14.3603 17.2379 -2.08608 14.3603 17.2379 -2.08608
286 1 15.3089 19.0996 -0.640075 15.3089 19.0996 -0.640075
287 2 17.0421 19.121 1.18439 17.0421 19.121 1.18439
288 2 17.3386 19.1865 -2.03629 17.3386 19.1865 -2.03629
289 1 18.1782 17.514 -0.223071 18.1782 17.514 -0.223071
290 2 20.0847 17.6809 1.43945 20.0847 17.6809 1.43945
291 2 20.1516 17.4685 -1.85256 20.1516 17.4685 -1.85256
292 1 21.0345 19.263 -0.308753 21.0345 19.263 -0.308753
293 2 22.8885 19.2334 1.30125 22.8885 19.2334 1.30125
294 2 22.8743 19.2251 -1.91462 22.8743 19.2251 -1.91462
295 1 23.9206 17.5987 -0.298066 23.9206 17.5987 -0.298066
296 2 25.7516 17.8094 1.30668 25.7516 17.8094 1.30668
297 2 25.7901 17.348 -1.91985 25.7901 17.348 -1.91985
298 1 26.7776 19.2052 -0.473469 26.7776 19.2052 -0.473469
299 2 28.7077 19.3351 1.1403 28.7077 19.3351 1.1403
300 2 28.6104 19.0252 -2.16008 28.6104 19.0252 -2.16008
301 1 29.5923 17.5038 -0.459266 29.5923 17.5038 -0.459266
302 2 31.6453 17.7827 1.03221 31.6453 17.7827 1.03221
303 2 31.3657 17.559 -2.25501 31.3657 17.559 -2.25501
304 1 32.4249 19.3152 -0.708757 32.4249 19.3152 -0.708757
305 2 34.5282 19.1802 0.626022 34.5282 19.1802 0.626022
306 2 34.1541 19.2499 -2.62016 34.1541 19.2499 -2.62016
307 1 35.3079 17.4842 -1.1046 35.3079 17.4842 -1.1046
308 2 37.3184 17.3848 0.616801 37.3184 17.3848 0.616801
309 2 37.1958 17.4384 -2.65632 37.1958 17.4384 -2.65632
310 1 38.0788 19.1011 -0.967711 38.0788 19.1011 -0.967711
311 2 39.8808 19.1598 0.763212 39.8808 19.1598 0.763212
312 2 40.1663 19.0806 -2.45906 40.1663 19.0806 -2.45906
313 1 41.0784 17.5484 -0.729108 41.0784 17.5484 -0.729108
314 2 43.0555 17.5818 0.788435 43.0555 17.5818 0.788435
315 2 42.8912 17.7132 -2.42309 42.8912 17.7132 -2.42309
316 1 43.9557 19.1459 -0.806556 43.9557 19.1459 -0.806556
317 2 45.8257 19.0962 0.92365 45.8257 19.0962 0.92365
318 2 45.8039 19.0802 -2.36565 45.8039 19.0802 -2.36565
319 1 46.7481 17.5092 -0.692705 46.7481 17.5092 -0.692705
320 2 48.8787 17.3922 0.673694 48.8787 17.3922 0.673694
321 2 48.4976 17.5655 -2.60891 48.4976 17.5655 -2.60891
322 1 49.6077 19.1544 -0.90619 49.6077 19.1544 -0.90619
323 2 51.3784 19.0434 0.845745 51.3784 19.0434 0.845745
324 2 51.6619 19.2262 -2.40451 51.6619 19.2262 -2.40451
325 1 1.01422 20.7737 -0.621089 1.01422 20.7737 -0.621089
326 2 2.95493 20.7237 1.04454 2.95493 20.7237 1.04454
327 2 2.83448 20.7894 -2.2824 2.83448 20.7894 -2.2824
328 1 3.84242 22.4041 -0.630513 3.84242 22.4041 -0.630513
329 2 5.67078 22.4637 1.1204 5.67078 22.4637 1.1204
330 2 5.80239 22.4242 -2.21876 5.80239 22.4242 -2.21876
331 1 6.74649 20.8503 -0.398084 6.74649 20.8503 -0.398084
332 2 8.59826 20.7875 1.1999 8.59826 20.7875 1.1999
333 2 8.63907 20.7873 -1.95231 8.63907 20.7873 -1.95231
334 1 9.60929 22.4006 -0.309255 9.60929 22.4006 -0.309255
335 2 11.483 22.3522 1.37427 11.483 22.3522 1.37427
336 2 11.5919 22.5802 -1.91634 11.5919 22.5802 -1.91634
337 1 12.4131 20.7067 -0.376942 12.4131 20.7067 -0.376942
338 2 14.3328 20.5049 1.31999 14.3328 20.5049 1.31999
339 2 14.3348 20.9111 -2.01299 14.3348 20.9111 -2.01299
340 1 15.2328 22.4061 -0.0809305 15.2328 22.4061 -0.0809305
341 2 17.108 22.5691 1.41371 17.108 22.5691 1.41371
342 2 17.0245 22.4273 -1.81267 17.0245 22.4273 -1.81267
343 1 18.169 20.801 -0.306086 18.169 20.801 -0.306086
344 2 20.0912 20.9711 1.27333 20.0912 20.9711 1.27333
345 2 19.9745 20.7082 -2.12779 19.9745 20.7082 -2.12779
346 1 20.9326 22.5137 -0.560376 20.9326 22.5137 -0.560376
347 2 22.7569 22.5437 1.20337 22.7569 22.5437 1.20337
348 2 22.8613 22.4936 -2.10662 22.8613 22.4936 -2.10662
349 1 23.8665 20.9228 -0.436118 23.8665 20.9228 -0.436118
350 2 25.872 21.0048 1.07601 25.872 21.0048 1.07601
351 2 25.6568 20.7561 -2.17465 25.6568 20.7561 -2.17465
352 1 26.7058 22.5243 -0.780915 26.7058 22.5243 -0.780915
353 2 28.7097 22.4598 0.920686 28.7097 22.4598 0.920686
354 2 28.6899 22.5469 -2.35397 28.6899 22.5469 -2.35397
355 1 29.5352 20.8884 -0.697398 29.5352 20.8884 -0.697398
356 2 31.4875 20.9852 0.795174 31.4875 20.9852 0.795174
357 2 31.4258 20.76 -2.45942 31.4258 20.76 -2.45942
358 1 32.3893 22.4911 -1.11425 32.3893 22.4911 -1.11425
359 2 34.3664 22.449 0.515713 34.3664 22.449 0.515713
360 2 34.2192 22.2405 -2.79195 34.2192 22.2405 -2.79195
361 1 35.3003 20.8173 -1.1084 35.3003 20.8173 -1.1084
362 2 37.0527 20.8919 0.646491 37.0527 20.8919 0.646491
363 2 37.2194 20.7161 -2.7117 37.2194 20.7161 -2.7117
364 1 38.1315 22.4379 -1.13851 38.1315 22.4379 -1.13851
365 2 39.8748 22.3977 0.551141 39.8748 22.3977 0.551141
366 2 40.0508 22.5816 -2.62971 40.0508 22.5816 -2.62971
367 1 40.8801 20.7943 -0.935871 40.8801 20.7943 -0.935871
368 2 42.7721 20.7647 0.788115 42.7721 20.7647 0.788115
369 2 43.0126 20.8941 -2.38864 43.0126 20.8941 -2.38864
370 1 43.7509 22.4611 -0.537886 43.7509 22.4611 -0.537886
371 2 45.896 22.3932 0.927706 45.896 22.3932 0.927706
372 2 45.6519 22.4161 -2.27324 45.6519 22.4161 -2.27324
373 1 46.8271 20.7424 -0.767267 46.8271 20.7424 -0.767267
374 2 48.5933 20.5916 0.905283 48.5933 20.5916 0.905283
375 2 48.8846 20.9621 -2.38096 48.8846 20.9621 -2.38096
376 1 49.5747 22.4106 -0.51393 49.5747 22.4106 -0.51393
377 2 51.4664 22.3896 1.01367 51.4664 22.3896 1.01367
378 2 51.4153 22.3704 -2.21482 51.4153 22.3704 -2.21482
379 1 0.921263 24.1012 -0.629539 0.921263 24.1012 -0.629539
380 2 2.81237 24.0551 0.955704 2.81237 24.0551 0.955704
381 2 2.75652 24.002 -2.28211 2.75652 24.002 -2.28211
382 1 3.73 25.6998 -0.674532 3.73 25.6998 -0.674532
383 2 5.4319 25.5728 1.07403 5.4319 25.5728 1.07403
384 2 5.72568 25.8607 -2.19229 5.72568 25.8607 -2.19229
385 1 6.63212 24.0736 -0.583833 6.63212 24.0736 -0.583833
386 2 8.52325 24.0665 1.15271 8.52325 24.0665 1.15271
387 2 8.59259 24.0097 -2.13492 8.59259 24.0097 -2.13492
388 1 9.5481 25.6893 -0.391758 9.5481 25.6893 -0.391758
389 2 11.282 25.7125 1.44224 11.282 25.7125 1.44224
390 2 11.7378 25.7764 -1.77628 11.7378 25.7764 -1.77628
391 1 12.5133 24.0126 -0.100336 12.5133 24.0126 -0.100336
392 2 14.3332 24.064 1.57873 14.3332 24.064 1.57873
393 2 14.3424 23.9848 -1.70602 14.3424 23.9848 -1.70602
394 1 15.2106 25.7698 -0.0919296 15.2106 25.7698 -0.0919296
395 2 17.295 25.7322 1.40966 17.295 25.7322 1.40966
396 2 17.1122 25.8593 -1.82902 17.1122 25.8593 -1.82902
397 1 18.0625 24.1385 -0.266732 18.0625 24.1385 -0.266732
398 2 20.0032 24.0087 1.30577 20.0032 24.0087 1.30577
399 2 19.8347 24.3738 -1.91124 19.8347 24.3738 -1.91124
400 1 20.9402 25.7664 -0.205881 20.9402 25.7664 -0.205881
401 2 22.811 25.6549 1.44859 22.811 25.6549 1.44859
402 2 22.8882 25.9729 -1.80702 22.8882 25.9729 -1.80702
403 1 23.736 24.2215 -0.394055 23.736 24.2215 -0.394055
404 2 25.6943 23.8516 1.13281 25.6943 23.8516 1.13281
405 2 25.5698 24.5029 -2.12025 25.5698 24.5029 -2.12025
406 1 26.6497 25.6897 -0.202201 26.6497 25.6897 -0.202201
407 2 28.7443 25.4931 1.27667 28.7443 25.4931 1.27667
408 2 28.5048 25.9928 -1.91182 28.5048 25.9928 -1.91182
409 1 29.619 24.1784 -0.672049 29.619 24.1784 -0.672049
410 2 31.7096 24.0091 0.757859 31.7096 24.0091 0.757859
411 2 31.3588 24.2426 -2.51841 31.3588 24.2426 -2.51841
412 1 32.5197 25.7632 -0.86545 32.5197 25.7632 -0.86545
413 2 34.5595 25.6059 0.590638 34.5595 25.6059 0.590638
414 2 34.2908 25.8084 -2.7002 34.2908 25.8084 -2.7002
415 1 35.3216 24.1245 -1.28814 35.3216 24.1245 -1.28814
416 2 37.1428 24.089 0.447378 37.1428 24.089 0.447378
417 2 37.306 24.0993 -2.85895 37.306 24.0993 -2.85895
418 1 38.0953 25.8054 -1.14817 38.0953 25.8054 -1.14817
419 2 39.7851 25.552 0.724404 39.7851 25.552 0.724404
420 2 40.11 25.8081 -2.57066 40.11 25.8081 -2.57066
421 1 40.8915 24.096 -0.820258 40.8915 24.096 -0.820258
422 2 42.6537 24.2022 0.885007 42.6537 24.2022 0.885007
423 2 42.9825 23.9699 -2.34094 42.9825 23.9699 -2.34094
424 1 43.8306 25.7102 -0.762784 43.8306 25.7102 -0.762784
425 2 45.7121 25.4951 0.796054 45.7121 25.4951 0.796054
426 2 45.7441 25.6371 -2.38473 45.7441 25.6371 -2.38473
427 1 46.7723 24.0469 -0.814862 46.7723 24.0469 -0.814862
428 2 48.5967 24.2878 0.922716 48.5967 24.2878 0.922716
429 2 48.7021 23.999 -2.43875 48.7021 23.999 -2.43875
430 1 49.6229 25.8174 -0.830923 49.6229 25.8174 -0.830923
431 2 51.5049 25.8866 0.856618 51.5049 25.8866 0.856618
432 2 51.4523 25.6647 -2.46998 51.4523 25.6647 -2.46998
433 1 0.953457 27.4089 -0.919132 0.953457 27.4089 -0.919132
434 2 2.64809 27.2674 0.880733 2.64809 27.2674 0.880733
435 2 3.08992 27.419 -2.31228 3.08992 27.419 -2.31228
436 1 3.87297 28.9762 -0.442436 3.87297 28.9762 -0.442436
437 2 5.71222 29.0023 1.26385 5.71222 29.0023 1.26385
438 2 5.87436 29.2165 -2.00853 5.87436 29.2165 -2.00853
439 1 6.70342 27.3756 -0.41789 6.70342 27.3756 -0.41789
440 2 8.47128 27.3008 1.26992 8.47128 27.3008 1.26992
441 2 8.81283 27.5223 -1.93063 8.81283 27.5223 -1.93063
442 1 9.55516 29.0522 -0.125282 9.55516 29.0522 -0.125282
443 2 11.3519 28.9486 1.55756 11.3519 28.9486 1.55756
444 2 11.5605 29.1104 -1.73349 11.5605 29.1104 -1.73349
445 1 12.434 27.41 -0.124891 12.434 27.41 -0.124891
446 2 14.2738 27.308 1.57832 14.2738 27.308 1.57832
447 2 14.4269 27.5669 -1.68803 14.4269 27.5669 -1.68803
448 1 15.2312 29.1449 0.00487843 15.2312 29.1449 0.00487843
449 2 17.1402 28.9306 1.55689 17.1402 28.9306 1.55689
450 2 17.1433 29.3143 -1.65498 17.1433 29.3143 -1.65498
451 1 18.1137 27.4445 -0.278151 18.1137 27.4445 -0.278151
452 2 19.8709 27.2974 1.46243 19.8709 27.2974 1.46243
453 2 20.2667 27.4463 -1.84395 20.2667 27.4463 -1.84395
454 1 20.9626 29.1011 0.05252 20.9626 29.1011 0.05252
455 2 22.8008 29.0009 1.71136 22.8008 29.0009 1.71136
456 2 22.9199 29.1048 -1.54643 22.9199 29.1048 -1.54643
457 1 23.8381 27.376 0.017695 23.8381 27.376 0.017695
458 2 25.8776 27.3618 1.55936 25.8776 27.3618 1.55936
459 2 25.6562 27.4505 -1.7062 25.6562 27.4505 -1.7062
460 1 26.6699 29.0169 -0.00419973 26.6699 29.0169 -0.00419973
461 2 28.4865 28.8018 1.58812 28.4865 28.8018 1.58812
462 2 28.6618 29.1439 -1.62633 28.6618 29.1439 -1.62633
463 1 29.6251 27.3245 -0.138649 29.6251 27.3245 -0.138649
464 2 31.7593 27.2462 1.10579 31.7593 27.2462 1.10579
465 2 31.1098 27.6515 -2.01194 31.1098 27.6515 -2.01194
466 1 32.3886 29.057 -0.416933 32.3886 29.057 -0.416933
467 2 34.4337 28.6756 0.997872 34.4337 28.6756 0.997872
468 2 34.2348 29.349 -2.2712 34.2348 29.349 -2.2712
469 1 35.2707 27.5118 -0.934768 35.2707 27.5118 -0.934768
470 2 37.1697 27.237 0.712574 37.1697 27.237 0.712574
471 2 37.1999 27.7185 -2.53761 37.1999 27.7185 -2.53761
472 1 38.1863 29.1003 -0.71343 38.1863 29.1003 -0.71343
473 2 39.9278 29.0045 1.02828 39.9278 29.0045 1.02828
474 2 40.1514 29.1862 -2.25259 40.1514 29.1862 -2.25259
475 1 40.9623 27.3925 -0.630083 40.9623 27.3925 -0.630083
476 2 42.8484 27.3029 0.966774 42.8484 27.3029 0.966774
477 2 42.8982 27.4296 -2.29614 42.8982 27.4296 -2.29614
478 1 43.8536 29.0197 -0.685339 43.8536 29.0197 -0.685339
479 2 45.6057 28.7974 1.01024 45.6057 28.7974 1.01024
480 2 45.901 29.1904 -2.23775 45.901 29.1904 -2.23775
481 1 46.6721 27.3109 -0.79086 46.6721 27.3109 -0.79086
482 2 48.5042 27.4296 0.933094 48.5042 27.4296 0.933094
483 2 48.7246 27.5123 -2.3713 48.7246 27.5123 -2.3713
484 1 49.602 29.0816 -0.528431 49.602 29.0816 -0.528431
485 2 51.4894 28.8463 0.994786 51.4894 28.8463 0.994786
486 2 51.4229 29.2446 -2.20599 51.4229 29.2446 -2.20599
487 1 1.05486 30.7521 -0.428231 1.05486 30.7521 -0.428231
488 2 2.96349 30.5709 1.24298 2.96349 30.5709 1.24298
489 2 3.01038 30.7395 -2.14021 3.01038 30.7395 -2.14021
490 1 3.79745 32.3448 -0.244002 3.79745 32.3448 -0.244002
491 2 5.65322 32.0634 1.47939 5.65322 32.0634 1.47939
492 2 5.87456 32.4553 -1.70743 5.87456 32.4553 -1.70743
493 1 6.74203 30.6415 -0.222956 6.74203 30.6415 -0.222956
494 2 8.45625 30.5847 1.48485 8.45625 30.5847 1.48485
495 2 8.74334 30.8018 -1.72038 8.74334 30.8018 -1.72038
496 1 9.54641 32.3786 0.07956 9.54641 32.3786 0.07956
497 2 11.4511 32.3087 1.7915 11.4511 32.3087 1.7915
498 2 11.5976 32.4603 -1.54545 11.5976 32.4603 -1.54545
499 1 12.3605 30.7217 0.109251 12.3605 30.7217 0.109251
500 2 14.3104 30.6638 1.76254 14.3104 30.6638 1.76254
501 2 14.2454 30.8454 -1.58231 14.2454 30.8454 -1.58231
502 1 15.2991 32.4508 0.155167 15.2991 32.4508 0.155167
503 2 17.0905 32.2571 1.86637 17.0905 32.2571 1.86637
504 2 17.2118 32.5109 -1.39377 17.2118 32.5109 -1.39377
505 1 18.1101 30.7302 0.152333 18.1101 30.7302 0.152333
506 2 20.0158 30.6061 1.80312 20.0158 30.6061 1.80312
507 2 19.9524 30.8999 -1.45046 19.9524 30.8999 -1.45046
508 1 21.0103 32.4669 0.431789 21.0103 32.4669 0.431789
509 2 22.9298 32.0869 2.07138 22.9298 32.0869 2.07138
510 2 22.8924 32.5725 -1.17004 22.8924 32.5725 -1.17004
511 1 23.8747 30.6981 0.203947 23.8747 30.6981 0.203947
512 2 25.716 30.3394 1.90278 25.716 30.3394 1.90278
513 2 25.7893 30.8448 -1.38115 25.7893 30.8448 -1.38115
514 1 26.7675 32.272 0.59525 26.7675 32.272 0.59525
515 2 28.7209 31.9871 2.02157 28.7209 31.9871 2.02157
516 2 28.5921 32.4116 -1.1671 28.5921 32.4116 -1.1671
517 1 29.6308 30.4925 0.251872 29.6308 30.4925 0.251872
518 2 31.7825 30.3743 1.56832 31.7825 30.3743 1.56832
519 2 31.2322 30.8448 -1.60233 31.2322 30.8448 -1.60233
520 1 32.4719 32.2433 0.0858964 32.4719 32.2433 0.0858964
521 2 34.3916 31.9697 1.67276 34.3916 31.9697 1.67276
522 2 34.2562 32.7201 -1.53559 34.2562 32.7201 -1.53559
523 1 35.2305 30.7231 -0.282739 35.2305 30.7231 -0.282739
524 2 37.1817 30.5103 1.22864 37.1817 30.5103 1.22864
525 2 37.0704 31.0149 -2.06182 37.0704 31.0149 -2.06182
526 1 38.15 32.4124 -0.118757 38.15 32.4124 -0.118757
527 2 40.2206 32.2336 1.43804 40.2206 32.2336 1.43804
528 2 39.9339 32.5979 -1.83233 39.9339 32.5979 -1.83233
529 1 40.9996 30.7659 -0.453167 40.9996 30.7659 -0.453167
530 2 42.975 30.3963 1.21147 42.975 30.3963 1.21147
531 2 42.9221 30.8388 -2.06512 42.9221 30.8388 -2.06512
532 1 43.8405 32.2875 -0.15954 43.8405 32.2875 -0.15954
533 2 45.8414 32.0809 1.40691 45.8414 32.0809 1.40691
534 2 45.6947 32.4627 -1.80067 45.6947 32.4627 -1.80067
535 1 46.7016 30.6328 -0.457785 46.7016 30.6328 -0.457785
536 2 48.6174 30.5932 1.23324 48.6174 30.5932 1.23324