ITEM: TIMESTEP
4500
ITEM: NUMBER OF ATOMS
810
ITEM: BOX BOUNDS pp pp pp
7.9388825848544953e-01 5.2223716741514984e+01
7.7993238412603616e-01 5.0236282615873087e+01
-1.0000000000000000e+01 1.0000000000000000e+01
ITEM: ATOMS id type x y z xu yu zu
1 1 0.991152 0.963541 -0.248313 0.991152 0.963541 -0.248313
2 2 2.9985 1.14828 1.19343 2.9985 1.14828 1.19343
3 2 2.78171 0.940399 -2.02269 2.78171 0.940399 -2.02269
4 1 3.82839 2.65645 -0.52965 3.82839 2.65645 -0.52965
5 2 5.66504 2.57218 1.24673 5.66504 2.57218 1.24673
6 2 5.76907 2.76737 -2.0226 5.76907 2.76737 -2.0226
7 1 6.58904 1.00086 -0.390235 6.58904 1.00086 -0.390235
8 2 8.56951 1.08235 1.19627 8.56951 1.08235 1.19627
9 2 8.44725 0.88709 -2.07089 8.44725 0.88709 -2.07089
10 1 9.46287 2.57644 -0.508244 9.46287 2.57644 -0.508244
11 2 11.1239 2.78004 1.34211 11.1239 2.78004 1.34211
12 2 11.6221 2.55367 -1.89579 11.6221 2.55367 -1.89579
13 1 12.3308 1.06334 0.0573519 12.3308 1.06334 0.0573519
14 2 14.241 0.812236 1.68207 14.241 0.812236 1.68207
15 2 14.3503 1.21906 -1.40183 14.3503 1.21906 -1.40183
16 1 15.2534 2.70093 0.292953 15.2534 2.70093 0.292953
17 2 17.1521 2.68587 2.00871 17.1521 2.68587 2.00871
18 2 17.2025 2.64449 -1.36012 17.2025 2.64449 -1.36012
19 1 18.1964 0.991296 0.320469 18.1964 0.991296 0.320469
20 2 19.9168 0.917008 1.99864 19.9168 0.917008 1.99864
21 2 20.08 1.00704 -1.31864 20.08 1.00704 -1.31864
22 1 21.0003 2.60187 0.456496 21.0003 2.60187 0.456496
23 2 22.8674 2.53258 2.07256 22.8674 2.53258 2.07256
24 2 22.8135 2.64145 -1.15581 22.8135 2.64145 -1.15581
25 1 23.8228 1.00244 0.421253 23.8228 1.00244 0.421253
26 2 25.8402 1.14564 2.03562 25.8402 1.14564 2.03562
27 2 25.693 0.958135 -1.23771 25.693 0.958135 -1.23771
28 1 26.8139 2.64088 0.2669 26.8139 2.64088 0.2669
29 2 28.5977 2.78084 1.84027 28.5977 2.78084 1.84027
30 2 28.695 2.573 -1.35179 28.695 2.573 -1.35179
31 1 29.6915 1.07659 0.357377 29.6915 1.07659 0.357377
32 2 31.4453 1.03616 2.01577 31.4453 1.03616 2.01577
33 2 31.5441 1.08717 -1.29115 31.5441 1.08717 -1.29115
34 1 32.476 2.74633 0.283919 32.476 2.74633 0.283919
35 2 34.4642 2.70049 1.72428 34.4642 2.70049 1.72428
36 2 34.1709 2.65934 -1.51444 34.1709 2.65934 -1.51444
37 1 35.315 1.01214 0.0656444 35.315 1.01214 0.0656444
38 2 37.2874 0.938536 1.65632 37.2874 0.938536 1.65632
39 2 37.2087 0.943884 -1.65488 37.2087 0.943884 -1.65488
40 1 38.2187 2.59563 -0.0769387 38.2187 2.59563 -0.0769387
41 2 40.1826 2.52762 1.6026 40.1826 2.52762 1.6026
42 2 40.0837 2.58155 -1.71558 40.0837 2.58155 -1.71558
43 1 40.9583 0.941082 -0.153792 40.9583 0.941082 -0.153792
44 2 42.868 1.05197 1.53443 42.868 1.05197 1.53443
45 2 43.0213 0.840933 -1.73111 43.0213 0.840933 -1.73111
46 1 43.8821 2.53684 -0.186693 43.8821 2.53684 -0.186693
47 2 45.5797 2.61194 1.61769 45.5797 2.61194 1.61769
48 2 45.8941 2.52941 -1.63973 45.8941 2.52941 -1.63973
49 1 46.7551 0.991981 0.125921 46.7551 0.991981 0.125921
50 2 48.7445 1.12813 1.64536 48.7445 1.12813 1.64536
51 2 48.5958 0.823707 -1.62114 48.5958 0.823707 -1.62114
52 1 49.5142 2.62549 -0.249337 49.5142 2.62549 -0.249337
53 2 51.6124 2.82472 1.28117 51.6124 2.82472 1.28117
54 2 51.3223 2.55189 -1.96715 51.3223 2.55189 -1.96715
55 1 0.989865 4.29384 -0.469957 0.989865 4.29384 -0.469957
56 2 2.95734 4.2685 1.15038 2.95734 4.2685 1.15038
57 2 2.8862 4.29956 -2.21802 2.8862 4.29956 -2.21802
58 1 3.9073 5.92678 -0.549946 3.9073 5.92678 -0.549946
59 2 5.80037 6.09899 1.1692 5.80037 6.09899 1.1692
60 2 5.78412 5.83831 -2.11987 5.78412 5.83831 -2.11987
61 1 6.66667 4.30433 -0.294317 6.66667 4.30433 -0.294317
62 2 8.63144 4.35874 1.10236 8.63144 4.35874 1.10236
63 2 8.53974 4.24456 -2.18006 8.53974 4.24456 -2.18006
64 1 9.57032 5.97044 -0.600759 9.57032 5.97044 -0.600759
65 2 11.3466 6.03272 1.33008 11.3466 6.03272 1.33008
66 2 11.7093 5.87281 -1.97085 11.7093 5.87281 -1.97085
67 1 12.3899 4.32878 -0.168943 12.3899 4.32878 -0.168943
68 2 14.1229 4.35412 1.72404 14.1229 4.35412 1.72404
69 2 14.5633 4.32083 -1.51493 14.5633 4.32083 -1.51493
70 1 15.2983 5.96558 0.162713 15.2983 5.96558 0.162713
71 2 17.0712 6.1578 1.87217 17.0712 6.1578 1.87217
72 2 17.2813 5.92387 -1.35518 17.2813 5.92387 -1.35518
73 1 18.0907 4.3186 0.33852 18.0907 4.3186 0.33852
74 2 20.0206 4.25051 2.03507 20.0206 4.25051 2.03507
75 2 20.0982 4.31417 -1.29858 20.0982 4.31417 -1.29858
76 1 20.9802 5.87882 0.340894 20.9802 5.87882 0.340894
77 2 22.9912 6.02808 1.9175 22.9912 6.02808 1.9175
78 2 22.8796 5.78932 -1.33287 22.8796 5.78932 -1.33287
79 1 23.814 4.23515 0.437012 23.814 4.23515 0.437012
80 2 25.9169 4.26048 1.92333 25.9169 4.26048 1.92333
81 2 25.6645 4.23434 -1.26914 25.6645 4.23434 -1.26914
82 1 26.6849 5.92665 0.310024 26.6849 5.92665 0.310024
83 2 28.6759 5.89051 1.89773 28.6759 5.89051 1.89773
84 2 28.5803 6.04887 -1.34086 28.5803 6.04887 -1.34086
85 1 29.6089 4.31851 0.129474 29.6089 4.31851 0.129474
86 2 31.3612 4.30317 1.89252 31.3612 4.30317 1.89252
87 2 31.6327 4.42515 -1.43073 31.6327 4.42515 -1.43073
88 1 32.4351 6.09397 0.26062 32.4351 6.09397 0.26062
89 2 34.5073 6.09103 1.69559 34.5073 6.09103 1.69559
90 2 34.2844 6.05638 -1.5854 34.2844 6.05638 -1.5854
91 1 35.3249 4.39059 0.0800886 35.3249 4.39059 0.0800886
92 2 37.3409 4.25153 1.60117 37.3409 4.25153 1.60117
93 2 37.11 4.2442 -1.64255 37.11 4.2442 -1.64255
94 1 38.1633 5.90975 -0.113372 38.1633 5.90975 -0.113372
95 2 40 5.95269 1.55419 40 5.95269 1.55419
96 2 39.9661 5.80132 -1.73955 39.9661 5.80132 -1.73955
97 1 41.0017 4.21678 0.00653528 41.0017 4.21678 0.00653528
98 2 42.9269 4.14885 1.55417 42.9269 4.14885 1.55417
99 2 42.9248 4.35743 -1.73192 42.9248 4.35743 -1.73192
100 1 43.8988 5.87869 0.0141149 43.8988 5.87869 0.0141149
101 2 45.8166 5.95872 1.56449 45.8166 5.95872 1.56449
102 2 45.6432 5.79659 -1.66303 45.6432 5.79659 -1.66303
103 1 46.586 4.18464 0.0167258 46.586 4.18464 0.0167258
104 2 48.6478 4.21285 1.38788 48.6478 4.21285 1.38788
105 2 48.3568 4.11187 -1.84473 48.3568 4.11187 -1.84473
106 1 49.543 5.85865 -0.404215 49.543 5.85865 -0.404215
107 2 51.5608 6.04739 1.18066 51.5608 6.04739 1.18066
108 2 51.3634 5.71141 -2.22148 51.3634 5.71141 -2.22148
109 1 0.999811 7.47799 -0.640321 0.999811 7.47799 -0.640321
110 2 2.88658 7.50434 1.10771 2.88658 7.50434 1.10771
111 2 3.00967 7.58719 -2.20549 3.00967 7.58719 -2.20549
112 1 3.88674 9.21458 -0.42219 3.88674 9.21458 -0.42219
113 2 5.8322 9.23068 1.06283 5.8322 9.23068 1.06283
114 2 5.68092 9.28939 -2.20347 5.68092 9.28939 -2.20347
115 1 6.70452 7.55073 -0.622009 6.70452 7.55073 -0.622009
116 2 8.57428 7.48303 1.07722 8.57428 7.48303 1.07722
117 2 8.70798 7.6634 -2.18045 8.70798 7.6634 -2.18045
118 1 9.55299 9.12873 -0.394236 9.55299 9.12873 -0.394236
119 2 11.3666 9.2787 1.28944 11.3666 9.2787 1.28944
120 2 11.5312 9.11784 -1.92696 11.5312 9.11784 -1.92696
121 1 12.4753 7.58327 -0.176099 12.4753 7.58327 -0.176099
122 2 14.1689 7.71705 1.606 14.1689 7.71705 1.606
123 2 14.51 7.50993 -1.69945 14.51 7.50993 -1.69945
124 1 15.2746 9.24304 -0.201405 15.2746 9.24304 -0.201405
125 2 16.9401 9.3328 1.56615 16.9401 9.3328 1.56615
126 2 17.3545 9.10201 -1.66553 17.3545 9.10201 -1.66553
127 1 18.1343 7.62816 0.195093 18.1343 7.62816 0.195093
128 2 20.0022 7.70695 1.81713 20.0022 7.70695 1.81713
129 2 19.9986 7.36765 -1.4604 19.9986 7.36765 -1.4604
130 1 20.9954 9.23378 -0.0483615 20.9954 9.23378 -0.0483615
131 2 22.9281 9.36978 1.65503 22.9281 9.36978 1.65503
132 2 22.9969 9.19158 -1.57792 22.9969 9.19158 -1.57792
133 1 23.8316 7.50098 0.236423 23.8316 7.50098 0.236423
134 2 25.734 7.68668 1.87668 25.734 7.68668 1.87668
135 2 25.7922 7.45877 -1.45786 25.7922 7.45877 -1.45786
136 1 26.7086 9.26918 0.120833 26.7086 9.26918 0.120833
137 2 28.4988 9.34298 1.88808 28.4988 9.34298 1.88808
138 2 28.6685 9.33748 -1.42555 28.6685 9.33748 -1.42555
139 1 29.519 7.66339 0.331867 29.519 7.66339 0.331867
140 2 31.5731 7.81957 1.75323 31.5731 7.81957 1.75323
141 2 31.4178 7.43329 -1.46937 31.4178 7.43329 -1.46937
142 1 32.3413 9.27026 -0.0170994 32.3413 9.27026 -0.0170994
143 2 34.449 9.26973 1.59225 34.449 9.26973 1.59225
144 2 34.2161 9.26781 -1.75373 34.2161 9.26781 -1.75373
145 1 35.298 7.63219 -0.0625665 35.298 7.63219 -0.0625665
146 2 37.254 7.71817 1.44778 37.254 7.71817 1.44778
147 2 37.1346 7.46201 -1.81805 37.1346 7.46201 -1.81805
148 1 38.1085 9.26081 -0.360328 38.1085 9.26081 -0.360328
149 2 40.0762 9.43495 1.24576 40.0762 9.43495 1.24576
150 2 40.0361 8.94133 -2.0009 40.0361 8.94133 -2.0009
151 1 41.0039 7.55213 -0.113896 41.0039 7.55213 -0.113896
152 2 42.9449 7.77833 1.46922 42.9449 7.77833 1.46922
153 2 42.8508 7.31647 -1.84499 42.8508 7.31647 -1.84499
154 1 43.8596 9.19655 -0.399929 43.8596 9.19655 -0.399929
155 2 45.7668 9.41345 1.14822 45.7668 9.41345 1.14822
156 2 45.7502 8.91914 -2.04432 45.7502 8.91914 -2.04432
157 1 46.7512 7.41044 -0.282344 46.7512 7.41044 -0.282344
158 2 48.8174 7.52747 1.33598 48.8174 7.52747 1.33598
159 2 48.5476 7.48616 -2.04211 48.5476 7.48616 -2.04211
160 1 49.5608 9.09759 -0.48361 49.5608 9.09759 -0.48361
161 2 51.5424 9.16646 0.936859 51.5424 9.16646 0.936859
162 2 51.3983 9.10702 -2.23829 51.3983 9.10702 -2.23829
163 1 0.976716 10.7444 -0.817262 0.976716 10.7444 -0.817262
164 2 2.79984 10.9331 0.947376 2.79984 10.9331 0.947376
165 2 3.06089 10.7125 -2.26348 3.06089 10.7125 -2.26348
166 1 3.79205 12.4602 -0.71189 3.79205 12.4602 -0.71189
167 2 5.53984 12.4989 1.01755 5.53984 12.4989 1.01755
168 2 5.76392 12.5765 -2.21844 5.76392 12.5765 -2.21844
169 1 6.76621 10.8749 -0.611835 6.76621 10.8749 -0.611835
170 2 8.47078 10.8325 1.15134 8.47078 10.8325 1.15134
171 2 8.87579 10.8802 -2.08904 8.87579 10.8802 -2.08904
172 1 9.61284 12.5384 -0.343656 9.61284 12.5384 -0.343656
173 2 11.5482 12.5674 1.26586 11.5482 12.5674 1.26586
174 2 11.4978 12.5072 -2.02756 11.4978 12.5072 -2.02756
175 1 12.4034 10.9242 -0.354959 12.4034 10.9242 -0.354959
176 2 14.3154 11.0234 1.21309 14.3154 11.0234 1.21309
177 2 14.2657 10.6892 -2.0697 14.2657 10.6892 -2.0697
178 1 15.3161 12.5028 -0.529869 15.3161 12.5028 -0.529869
179 2 16.9705 12.5997 1.34298 16.9705 12.5997 1.34298
180 2 17.4754 12.7044 -1.83989 17.4754 12.7044 -1.83989
181 1 18.1633 10.9588 -0.0221563 18.1633 10.9588 -0.0221563
182 2 20.08 10.8853 1.58076 20.08 10.8853 1.58076
183 2 20.1026 11.0462 -1.52446 20.1026 11.0462 -1.52446
184 1 20.9788 12.5882 0.132417 20.9788 12.5882 0.132417
185 2 23.0351 12.4305 1.62515 23.0351 12.4305 1.62515
186 2 22.7851 12.6741 -1.67238 22.7851 12.6741 -1.67238
187 1 23.9029 10.851 -0.0819398 23.9029 10.851 -0.0819398
188 2 25.7268 10.8991 1.72215 25.7268 10.8991 1.72215
189 2 25.9356 10.9437 -1.56972 25.9356 10.9437 -1.56972
190 1 26.7464 12.6438 0.247291 26.7464 12.6438 0.247291
191 2 28.7253 12.848 1.82816 28.7253 12.848 1.82816
192 2 28.4503 12.4493 -1.43226 28.4503 12.4493 -1.43226
193 1 29.4695 11.0284 0.256065 29.4695 11.0284 0.256065
194 2 31.4982 10.9944 1.62821 31.4982 10.9944 1.62821
195 2 31.175 10.9573 -1.54603 31.175 10.9573 -1.54603
196 1 32.4147 12.6145 -0.0772383 32.4147 12.6145 -0.0772383
197 2 34.5098 12.6589 1.52694 34.5098 12.6589 1.52694
198 2 34.2822 12.6974 -1.70346 34.2822 12.6974 -1.70346
199 1 35.2506 10.9845 -0.16822 35.2506 10.9845 -0.16822
200 2 37.1906 10.8169 1.30877 37.1906 10.8169 1.30877
201 2 37.0255 10.9555 -1.95227 37.0255 10.9555 -1.95227
202 1 38.1882 12.5311 -0.2446 38.1882 12.5311 -0.2446
203 2 40.4002 12.6512 1.09421 40.4002 12.6512 1.09421
204 2 39.8034 12.4379 -2.12936 39.8034 12.4379 -2.12936
205 1 40.976 10.8956 -0.546656 40.976 10.8956 -0.546656
206 2 42.873 11.1178 0.984546 42.873 11.1178 0.984546
207 2 42.8411 10.6213 -2.18955 42.8411 10.6213 -2.18955
208 1 43.8582 12.4713 -0.685063 43.8582 12.4713 -0.685063
209 2 45.776 12.4154 0.977026 45.776 12.4154 0.977026
210 2 45.7201 12.3693 -2.3191 45.7201 12.3693 -2.3191
211 1 46.7163 10.7802 -0.645444 46.7163 10.7802 -0.645444
212 2 48.4758 10.8091 1.03922 48.4758 10.8091 1.03922
213 2 48.658 10.673 -2.24453 48.658 10.673 -2.24453
214 1 49.556 12.4114 -0.563069 49.556 12.4114 -0.563069
215 2 51.5355 12.4273 0.965336 51.5355 12.4273 0.965336
216 2 51.3266 12.4242 -2.35321 51.3266 12.4242 -2.35321
217 1 0.923696 14.061 -0.675249 0.923696 14.061 -0.675249
218 2 2.82207 14.0391 0.962252 2.82207 14.0391 0.962252
219 2 2.89209 14.1534 -2.3294 2.89209 14.1534 -2.3294
220 1 3.83797 15.7635 -0.498758 3.83797 15.7635 -0.498758
221 2 5.7185 15.7864 1.16095 5.7185 15.7864 1.16095
222 2 5.7599 15.6403 -2.16925 5.7599 15.6403 -2.16925
223 1 6.65158 14.0899 -0.455888 6.65158 14.0899 -0.455888
224 2 8.67544 14.2747 1.23851 8.67544 14.2747 1.23851
225 2 8.619 13.9482 -2.1664 8.619 13.9482 -2.1664
226 1 9.56699 15.8298 -0.521321 9.56699 15.8298 -0.521321
227 2 11.4734 15.7946 1.19149 11.4734 15.7946 1.19149
228 2 11.5259 15.9343 -2.0362 11.5259 15.9343 -2.0362
229 1 12.4124 14.258 -0.437761 12.4124 14.258 -0.437761
230 2 14.2488 14.0586 1.30383 14.2488 14.0586 1.30383
231 2 14.4565 14.4551 -1.95219 14.4565 14.4551 -1.95219
232 1 15.2909 15.8121 -0.122459 15.2909 15.8121 -0.122459
233 2 17.1824 15.7861 1.55571 17.1824 15.7861 1.55571
234 2 17.2454 15.8962 -1.74193 17.2454 15.8962 -1.74193
235 1 18.1405 14.2487 -0.0866928 18.1405 14.2487 -0.0866928
236 2 20.0141 14.3985 1.6957 20.0141 14.3985 1.6957
237 2 20.1097 14.1988 -1.6347 20.1097 14.1988 -1.6347
238 1 21.0142 15.8492 0.110708 21.0142 15.8492 0.110708
239 2 23.0659 15.985 1.56755 23.0659 15.985 1.56755
240 2 22.8228 15.7055 -1.6666 22.8228 15.7055 -1.6666
241 1 23.8649 14.2162 0.0183312 23.8649 14.2162 0.0183312
242 2 25.7905 14.5197 1.72982 25.7905 14.5197 1.72982
243 2 25.8304 14.0246 -1.53818 25.8304 14.0246 -1.53818
244 1 26.6669 15.9549 -0.037803 26.6669 15.9549 -0.037803
245 2 28.6042 16.0062 1.53495 28.6042 16.0062 1.53495
246 2 28.4525 15.8046 -1.70236 28.4525 15.8046 -1.70236
247 1 29.5325 14.2912 0.058482 29.5325 14.2912 0.058482
248 2 31.6122 14.3058 1.49995 31.6122 14.3058 1.49995
249 2 31.3449 14.2537 -1.66609 31.3449 14.2537 -1.66609
250 1 32.4007 15.8909 -0.21669 32.4007 15.8909 -0.21669
251 2 34.4257 16.0793 1.38425 34.4257 16.0793 1.38425
252 2 34.1647 15.7191 -1.94349 34.1647 15.7191 -1.94349
253 1 35.2706 14.2577 -0.153132 35.2706 14.2577 -0.153132
254 2 37.3614 14.1612 1.38995 37.3614 14.1612 1.38995
255 2 36.9832 14.0588 -1.94268 36.9832 14.0588 -1.94268
256 1 38.081 15.76 -0.476705 38.081 15.76 -0.476705
257 2 40.1829 15.8158 0.864551 40.1829 15.8158 0.864551
258 2 39.7625 15.8628 -2.3671 39.7625 15.8628 -2.3671
259 1 40.9651 14.176 -0.858917 40.9651 14.176 -0.858917
260 2 42.8154 14.3835 0.798015 42.8154 14.3835 0.798015
261 2 42.87 13.8645 -2.52269 42.87 13.8645 -2.52269
262 1 43.8355 15.6949 -1.07499 43.8355 15.6949 -1.07499
263 2 45.7195 15.9208 0.668789 45.7195 15.9208 0.668789
264 2 45.9999 15.5904 -2.45719 45.9999 15.5904 -2.45719
265 1 46.7749 14.088 -0.606786 46.7749 14.088 -0.606786
266 2 48.7361 14.1239 1.07361 48.7361 14.1239 1.07361
267 2 48.5918 14.0603 -2.20055 48.5918 14.0603 -2.20055
268 1 49.6479 15.8062 -0.698025 49.6479 15.8062 -0.698025
269 2 51.393 15.6075 1.01414 51.393 15.6075 1.01414
270 2 51.6154 15.9537 -2.19978 51.6154 15.9537 -2.19978
271 1 1.01951 17.4378 -0.351934 1.01951 17.4378 -0.351934
272 2 3.0221 17.2783 1.29235 3.0221 17.2783 1.29235
273 2 2.90892 17.4417 -1.9647 2.90892 17.4417 -1.9647
274 1 3.7433 19.0582 -0.248119 3.7433 19.0582 -0.248119
275 2 5.8131 19.0773 1.2497 5.8131 19.0773 1.2497
276 2 5.63472 19.0275 -1.96308 5.63472 19.0275 -1.96308
277 1 6.67385 17.3568 -0.451209 6.67385 17.3568 -0.451209
278 2 8.54944 17.3676 1.15763 8.54944 17.3676 1.15763
279 2 8.55133 17.4578 -2.13652 8.55133 17.4578 -2.13652
280 1 9.5237 19.0925 -0.41317 9.5237 19.0925 -0.41317
281 2 11.4143 19.2368 1.33529 11.4143 19.2368 1.33529
282 2 11.5234 19.061 -1.93412 11.5234 19.061 -1.93412
283 1 12.3912 17.4787 -0.216453 12.3912 17.4787 -0.216453
284 2 14.3672 17.5009 1.40127 14.3672 17.5009 1.40127
285 2 14.368 17.3945 -1.84974 14.368 17.3945 -1.84974
286 1 15.2783 19.0892 -0.356304 15.2783 19.0892 -0.356304
287 2 17.0514 19.2102 1.35025 17.0514 19.2102 1.35025
288 2 17.185 18.9884 -1.85255 17.185 18.9884 -1.85255
289 1 18.077 17.423 -0.0323185 18.077 17.423 -0.0323185
290 2 20.0204 17.5378 1.65202 20.0204 17.5378 1.65202
291 2 19.9587 17.3594 -1.68634 19.9587 17.3594 -1.68634
292 1 20.8738 19.1035 -0.204188 20.8738 19.1035 -0.204188
293 2 22.8469 19.2163 1.36917 22.8469 19.2163 1.36917
294 2 22.7551 19.2962 -1.82349 22.7551 19.2962 -1.82349
295 1 23.7886 17.5756 -0.284263 23.7886 17.5756 -0.284263
296 2 25.666 17.7539 1.43239 25.666 17.7539 1.43239
297 2 25.8157 17.4613 -1.86219 25.8157 17.4613 -1.86219
298 1 26.6509 19.2839 -0.270266 26.6509 19.2839 -0.270266
299 2 28.6077 19.4077 1.32024 28.6077 19.4077 1.32024
300 2 28.5573 19.039 -1.91373 28.5573 19.039 -1.91373
301 1 29.5217 17.5929 -0.222993 29.5217 17.5929 -0.222993
302 2 31.4216 17.5837 1.33 31.4216 17.5837 1.33
303 2 31.3545 17.447 -1.93836 31.3545 17.447 -1.93836
304 1 32.3787 19.135 -0.453414 32.3787 19.135 -0.453414
305 2 34.4036 19.2259 1.0846 34.4036 19.2259 1.0846
306 2 34.2064 18.9875 -2.22215 34.2064 18.9875 -2.22215
307 1 35.3114 17.5276 -0.51027 35.3114 17.5276 -0.51027
308 2 37.3516 17.7788 0.897481 37.3516 17.7788 0.897481
309 2 36.9789 17.1773 -2.28682 36.9789 17.1773 -2.28682
310 1 38.1253 19.2052 -1.11381 38.1253 19.2052 -1.11381
311 2 40.0645 19.2348 0.574854 40.0645 19.2348 0.574854
312 2 40.111 19.0075 -2.7385 40.111 19.0075 -2.7385
313 1 40.9228 17.4413 -0.895939 40.9228 17.4413 -0.895939
314 2 43.0063 17.3838 0.663201 43.0063 17.3838 0.663201
315 2 42.8815 17.3686 -2.67781 42.8815 17.3686 -2.67781
316 1 43.8932 18.9832 -1.06253 43.8932 18.9832 -1.06253
317 2 45.6966 19.087 0.666597 45.6966 19.087 0.666597
318 2 45.958 19.2002 -2.55481 45.958 19.2002 -2.55481
319 1 46.7775 17.4555 -0.990443 46.7775 17.4555 -0.990443
320 2 48.5333 17.4019 0.829639 48.5333 17.4019 0.829639
321 2 48.9489 17.5658 -2.40383 48.9489 17.5658 -2.40383
322 1 49.637 19.1567 -0.643086 49.637 19.1567 -0.643086
323 2 51.5014 19.1407 1.10429 51.5014 19.1407 1.10429
324 2 51.6387 19.0018 -2.14108 51.6387 19.0018 -2.14108
325 1 0.997801 20.7163 -0.64697 0.997801 20.7163 -0.64697
326 2 2.57189 20.7006 1.22511 2.57189 20.7006 1.22511
327 2 3.13269 20.6781 -2.0212 3.13269 20.6781 -2.0212
328 1 3.85594 22.3656 -0.350254 3.85594 22.3656 -0.350254
329 2 5.7557 22.5164 1.14553 5.7557 22.5164 1.14553
330 2 5.77589 22.3546 -2.0575 5.77589 22.3546 -2.0575
331 1 6.70188 20.7643 -0.441539 6.70188 20.7643 -0.441539
332 2 8.45991 20.5568 1.34348 8.45991 20.5568 1.34348
333 2 8.63996 20.914 -1.98599 8.63996 20.914 -1.98599
334 1 9.52382 22.4028 -0.0762981 9.52382 22.4028 -0.0762981
335 2 11.5592 22.45 1.44684 11.5592 22.45 1.44684
336 2 11.4513 22.7007 -1.87539 11.4513 22.7007 -1.87539
337 1 12.3866 20.8142 -0.325067 12.3866 20.8142 -0.325067
338 2 14.1721 20.6946 1.27978 14.1721 20.6946 1.27978
339 2 14.3287 20.9315 -1.94755 14.3287 20.9315 -1.94755
340 1 15.2673 22.4701 -0.168727 15.2673 22.4701 -0.168727
341 2 17.2671 22.5863 1.39878 17.2671 22.5863 1.39878
342 2 17.0455 22.4912 -1.97733 17.0455 22.4912 -1.97733
343 1 18.1064 20.7801 -0.286277 18.1064 20.7801 -0.286277
344 2 19.8732 20.7242 1.42911 19.8732 20.7242 1.42911
345 2 19.8839 20.7593 -1.91442 19.8839 20.7593 -1.91442
346 1 20.9472 22.4134 -0.205982 20.9472 22.4134 -0.205982
347 2 22.8667 22.5638 1.38712 22.8667 22.5638 1.38712
348 2 22.805 22.3783 -1.8414 22.805 22.3783 -1.8414
349 1 23.7505 20.8228 -0.201142 23.7505 20.8228 -0.201142
350 2 25.7134 20.9458 1.33509 25.7134 20.9458 1.33509
351 2 25.6336 20.7747 -1.9079 25.6336 20.7747 -1.9079
352 1 26.6537 22.4795 -0.369589 26.6537 22.4795 -0.369589
353 2 28.7234 22.6799 1.14937 28.7234 22.6799 1.14937
354 2 28.4484 22.3614 -2.13565 28.4484 22.3614 -2.13565
355 1 29.5648 20.9301 -0.381943 29.5648 20.9301 -0.381943
356 2 31.5347 20.9391 1.08273 31.5347 20.9391 1.08273
357 2 31.3552 20.5951 -2.14576 31.3552 20.5951 -2.14576
358 1 32.3789 22.3937 -0.76555 32.3789 22.3937 -0.76555
359 2 34.3287 22.475 0.836454 34.3287 22.475 0.836454
360 2 34.268 22.2496 -2.48442 34.268 22.2496 -2.48442
361 1 35.2573 20.7513 -0.735901 35.2573 20.7513 -0.735901
362 2 37.2126 20.8555 0.764588 37.2126 20.8555 0.764588
363 2 36.9499 20.8574 -2.65057 36.9499 20.8574 -2.65057
364 1 38.1356 22.3954 -0.939559 38.1356 22.3954 -0.939559
365 2 40.075 22.3619 0.720586 40.075 22.3619 0.720586
366 2 40.0822 22.4464 -2.57545 40.0822 22.4464 -2.57545
367 1 41.0109 20.6958 -1.0719 41.0109 20.6958 -1.0719
368 2 42.8727 20.6272 0.603842 42.8727 20.6272 0.603842
369 2 42.8813 20.6361 -2.79712 42.8813 20.6361 -2.79712
370 1 43.9319 22.4164 -1.10354 43.9319 22.4164 -1.10354
371 2 45.7755 22.5803 0.600531 45.7755 22.5803 0.600531
372 2 45.8493 22.3611 -2.59775 45.8493 22.3611 -2.59775
373 1 46.6829 20.8017 -0.828317 46.6829 20.8017 -0.828317
374 2 48.5391 20.7469 0.959335 48.5391 20.7469 0.959335
375 2 48.6338 20.7837 -2.30041 48.6338 20.7837 -2.30041
376 1 49.5333 22.3789 -0.621711 49.5333 22.3789 -0.621711
377 2 51.3933 22.3151 0.971818 51.3933 22.3151 0.971818
378 2 51.4359 22.3498 -2.18893 51.4359 22.3498 -2.18893
379 1 0.908809 24.0204 -0.528875 0.908809 24.0204 -0.528875
380 2 2.76973 24.1918 1.21641 2.76973 24.1918 1.21641
381 2 2.91909 23.894 -2.02277 2.91909 23.894 -2.02277
382 1 3.8959 25.7518 -0.416332 3.8959 25.7518 -0.416332
383 2 5.83203 25.8168 1.10576 5.83203 25.8168 1.10576
384 2 5.69401 25.8667 -2.12277 5.69401 25.8667 -2.12277
385 1 6.72685 24.1414 -0.591662 6.72685 24.1414 -0.591662
386 2 8.39528 24.1558 1.32681 8.39528 24.1558 1.32681
387 2 8.85368 24.0535 -1.93412 8.85368 24.0535 -1.93412
388 1 9.60264 25.7932 -0.272483 9.60264 25.7932 -0.272483
389 2 11.3678 25.6391 1.49147 11.3678 25.6391 1.49147
390 2 11.4732 25.7857 -1.75749 11.4732 25.7857 -1.75749
391 1 12.3972 24.0968 -0.115045 12.3972 24.0968 -0.115045
392 2 14.4107 24.1408 1.48378 14.4107 24.1408 1.48378
393 2 14.2001 24.072 -1.86184 14.2001 24.072 -1.86184
394 1 15.1795 25.7006 -0.290197 15.1795 25.7006 -0.290197
395 2 17.1028 25.675 1.4077 17.1028 25.675 1.4077
396 2 17.2095 25.8829 -1.8358 17.2095 25.8829 -1.8358
397 1 18.1509 24.1472 -0.298032 18.1509 24.1472 -0.298032
398 2 19.8306 23.927 1.45838 19.8306 23.927 1.45838
399 2 20.0897 24.1236 -1.81352 20.0897 24.1236 -1.81352
400 1 20.9775 25.747 0.109632 20.9775 25.747 0.109632
401 2 23.078 25.9531 1.47749 23.078 25.9531 1.47749
402 2 22.7357 25.769 -1.77913 22.7357 25.769 -1.77913
403 1 23.8071 24.1873 -0.265515 23.8071 24.1873 -0.265515
404 2 25.7428 24.2189 1.31843 25.7428 24.2189 1.31843
405 2 25.5679 24.2336 -2.04615 25.5679 24.2336 -2.04615
406 1 26.7101 25.7003 -0.405744 26.7101 25.7003 -0.405744
407 2 28.7101 25.8751 0.987098 28.7101 25.8751 0.987098
408 2 28.4713 25.7651 -2.31067 28.4713 25.7651 -2.31067
409 1 29.5032 24.0547 -0.719374 29.5032 24.0547 -0.719374
410 2 31.4745 24.1232 0.826378 31.4745 24.1232 0.826378
411 2 31.3485 24.0399 -2.35764 31.3485 24.0399 -2.35764
412 1 32.3688 25.7428 -0.781134 32.3688 25.7428 -0.781134
413 2 34.339 25.7456 0.751147 34.339 25.7456 0.751147
414 2 34.1668 25.6938 -2.44987 34.1668 25.6938 -2.44987
415 1 35.273 24.1003 -0.902383 35.273 24.1003 -0.902383
416 2 37.1619 24.0598 0.690601 37.1619 24.0598 0.690601
417 2 37.1008 24.0746 -2.55424 37.1008 24.0746 -2.55424
418 1 38.2142 25.7509 -1.05042 38.2142 25.7509 -1.05042
419 2 39.9605 25.5464 0.839962 39.9605 25.5464 0.839962
420 2 40.2308 25.9332 -2.57015 40.2308 25.9332 -2.57015
421 1 41.0545 24.0427 -0.95518 41.0545 24.0427 -0.95518
422 2 43.0477 23.7974 0.786987 43.0477 23.7974 0.786987
423 2 43.1046 24.1508 -2.62357 43.1046 24.1508 -2.62357
424 1 43.904 25.679 -0.764865 43.904 25.679 -0.764865
425 2 45.8731 25.6112 0.900717 45.8731 25.6112 0.900717
426 2 45.798 25.9588 -2.43632 45.798 25.9588 -2.43632
427 1 46.7431 24.1474 -1.01344 46.7431 24.1474 -1.01344
428 2 48.4491 24.0629 0.878566 48.4491 24.0629 0.878566
429 2 48.8037 24.1297 -2.37473 48.8037 24.1297 -2.37473
430 1 49.6628 25.7838 -0.645566 49.6628 25.7838 -0.645566
431 2 51.46 25.619 1.16322 51.46 25.619 1.16322
432 2 51.5404 25.7602 -2.18044 51.5404 25.7602 -2.18044
433 1 1.05384 27.335 -0.395238 1.05384 27.335 -0.395238
434 2 3.02397 27.4253 1.29916 3.02397 27.4253 1.29916
435 2 2.93676 27.4472 -2.05455 2.93676 27.4472 -2.05455
436 1 3.88323 29.0699 -0.414905 3.88323 29.0699 -0.414905
437 2 5.71001 28.8161 1.2181 5.71001 28.8161 1.2181
438 2 5.86971 29.2584 -1.94872 5.86971 29.2584 -1.94872
439 1 6.85128 27.4036 -0.574493 6.85128 27.4036 -0.574493
440 2 8.51158 27.2279 1.26191 8.51158 27.2279 1.26191
441 2 8.88495 27.5832 -1.96667 8.88495 27.5832 -1.96667
442 1 9.57785 29.0513 -0.054391 9.57785 29.0513 -0.054391
443 2 11.4214 28.9669 1.64032 11.4214 28.9669 1.64032
444 2 11.5419 29.0815 -1.65355 11.5419 29.0815 -1.65355
445 1 12.4344 27.4153 0.0294602 12.4344 27.4153 0.0294602
446 2 14.5126 27.3838 1.51609 14.5126 27.3838 1.51609
447 2 14.2596 27.3821 -1.78456 14.2596 27.3821 -1.78456
448 1 15.2653 29.0126 -0.12712 15.2653 29.0126 -0.12712
449 2 17.176 29.1345 1.4456 17.176 29.1345 1.4456
450 2 17.0987 28.9996 -1.80656 17.0987 28.9996 -1.80656
451 1 18.0137 27.3828 -0.0984646 18.0137 27.3828 -0.0984646
452 2 19.917 27.45 1.59342 19.917 27.45 1.59342
453 2 20.1192 27.3222 -1.69761 20.1192 27.3222 -1.69761
454 1 20.9336 29.0074 -0.165983 20.9336 29.0074 -0.165983
455 2 22.941 29.0292 1.45336 22.941 29.0292 1.45336
456 2 22.7666 29.2635 -1.81861 22.7666 29.2635 -1.81861
457 1 23.8192 27.4569 -0.329135 23.8192 27.4569 -0.329135
458 2 25.7857 27.5557 1.1979 25.7857 27.5557 1.1979
459 2 25.7505 27.3801 -1.98401 25.7505 27.3801 -1.98401
460 1 26.6364 29.1185 -0.507655 26.6364 29.1185 -0.507655
461 2 28.6012 28.8934 1.08314 28.6012 28.8934 1.08314
462 2 28.4934 29.3107 -2.30616 28.4934 29.3107 -2.30616
463 1 29.5264 27.4727 -0.773755 29.5264 27.4727 -0.773755
464 2 31.3353 27.2909 0.936584 31.3353 27.2909 0.936584
465 2 31.3816 27.6551 -2.35221 31.3816 27.6551 -2.35221
466 1 32.3878 28.9752 -0.526747 32.3878 28.9752 -0.526747
467 2 34.3904 28.7555 0.914569 34.3904 28.7555 0.914569
468 2 34.1929 29.228 -2.24109 34.1929 29.228 -2.24109
469 1 35.2946 27.318 -0.970907 35.2946 27.318 -0.970907
470 2 37.2399 27.2108 0.735733 37.2399 27.2108 0.735733
471 2 37.2591 27.3942 -2.51606 37.2591 27.3942 -2.51606
472 1 38.1264 29.0302 -0.752483 38.1264 29.0302 -0.752483
473 2 40.1708 28.9716 0.97127 40.1708 28.9716 0.97127
474 2 40.0587 28.9845 -2.28917 40.0587 28.9845 -2.28917
475 1 41.0437 27.3323 -0.681895 41.0437 27.3323 -0.681895
476 2 43.1079 27.2911 0.861839 43.1079 27.2911 0.861839
477 2 42.9064 27.413 -2.34837 42.9064 27.413 -2.34837
478 1 43.8794 29.0467 -0.786899 43.8794 29.0467 -0.786899
479 2 45.63 29.0581 0.96136 45.63 29.0581 0.96136
480 2 45.952 29.0386 -2.23558 45.952 29.0386 -2.23558
481 1 46.7384 27.355 -0.578245 46.7384 27.355 -0.578245
482 2 48.6507 27.309 1.08691 48.6507 27.309 1.08691
483 2 48.7029 27.4827 -2.23534 48.7029 27.4827 -2.23534
484 1 49.5708 29.0005 -0.477382 49.5708 29.0005 -0.477382
485 2 51.5227 28.987 1.20699 51.5227 28.987 1.20699
486 2 51.4926 29.0451 -2.01341 51.4926 29.0451 -2.01341
487 1 1.01318 30.6687 -0.345021 1.01318 30.6687 -0.345021
488 2 2.89454 30.5261 1.25685 2.89454 30.5261 1.25685
489 2 3.07337 30.8448 -1.96125 3.07337 30.8448 -1.96125
490 1 3.87138 32.3182 -0.157191 3.87138 32.3182 -0.157191
491 2 5.80035 32.3907 1.4702 5.80035 32.3907 1.4702
492 2 5.8944 32.353 -1.78202 5.8944 32.353 -1.78202
493 1 6.7793 30.6525 -0.0894312 6.7793 30.6525 -0.0894312
494 2 8.66942 30.7245 1.55223 8.66942 30.7245 1.55223
495 2 8.61087 30.6302 -1.72437 8.61087 30.6302 -1.72437
496 1 9.50765 32.272 -0.182102 9.50765 32.272 -0.182102
497 2 11.3159 32.2571 1.66755 11.3159 32.2571 1.66755
498 2 11.6074 32.3973 -1.59959 11.6074 32.3973 -1.59959
499 1 12.4035 30.571 -0.00184622 12.4035 30.571 -0.00184622
500 2 14.4075 30.4926 1.61049 14.4075 30.4926 1.61049
501 2 14.2783 30.6992 -1.64109 14.2783 30.6992 -1.64109
502 1 15.2436 32.29 0.0484645 15.2436 32.29 0.0484645
503 2 17.0752 32.2736 1.69004 17.0752 32.2736 1.69004
504 2 17.1789 32.5281 -1.54451 17.1789 32.5281 -1.54451
505 1 18.1641 30.724 -0.204252 18.1641 30.724 -0.204252
506 2 20.0862 30.7236 1.43924 20.0862 30.7236 1.43924
507 2 20.0257 30.6829 -1.79543 20.0257 30.6829 -1.79543
508 1 21.0194 32.3873 -0.218589 21.0194 32.3873 -0.218589
509 2 22.7514 32.1958 1.57114 22.7514 32.1958 1.57114
510 2 22.9811 32.4308 -1.65062 22.9811 32.4308 -1.65062
511 1 23.8153 30.7452 -0.137154 23.8153 30.7452 -0.137154
512 2 25.8753 30.5965 1.32788 25.8753 30.5965 1.32788
513 2 25.6099 30.9879 -1.97313 25.6099 30.9879 -1.97313
514 1 26.731 32.2987 -0.28618 26.731 32.2987 -0.28618
515 2 28.643 32.0758 1.3845 28.643 32.0758 1.3845
516 2 28.6675 32.4972 -1.91936 28.6675 32.4972 -1.91936
517 1 29.6323 30.662 -0.484884 29.6323 30.662 -0.484884
518 2 31.4072 30.3903 1.21381 31.4072 30.3903 1.21381
519 2 31.6811 30.7965 -1.98092 31.6811 30.7965 -1.98092
520 1 32.4974 32.2038 -0.0112093 32.4974 32.2038 -0.0112093
521 2 34.5024 31.8923 1.46492 34.5024 31.8923 1.46492
522 2 34.2482 32.5101 -1.76654 34.2482 32.5101 -1.76654
523 1 35.2922 30.6502 -0.480673 35.2922 30.6502 -0.480673
524 2 37.2484 30.4467 1.06392 37.2484 30.4467 1.06392
525 2 37.2162 30.8834 -2.1585 37.2162 30.8834 -2.1585
526 1 38.1322 32.388 -0.34418 38.1322 32.388 -0.34418
527 2 39.9831 31.9556 1.12374 39.9831 31.9556 1.12374
528 2 40.0242 32.7183 -1.95226 40.0242 32.7183 -1.95226
529 1 41.0548 30.7294 -0.750901 41.0548 30.7294 -0.750901
530 2 42.9115 30.5135 0.873842 42.9115 30.5135 0.873842
531 2 43.0907 30.8973 -2.2203 43.0907 30.8973 -2.2203
532 1 43.9213 32.4126 -0.365961 43.9213 32.4126 -0.365961
533 2 45.678 32.1684 1.27936 45.678 32.1684 1.27936
534 2 45.8435 32.4452 -2.05191 45.8435 32.4452 -2.05191
535 1 46.781 30.7023 -0.557405 46.781 30.7023 -0.557405
536 2 48.6638 30.7178 1.19768 48.6638 30.7178 1.19768
537 2 48.7858 30.7989 -2.10452 48.7858 30.7989 -2.10452
538 1 49.6382 32.3734 -0.328051 49.6382 32.3734 -0.328051