ITEM: TIMESTEP
62800
ITEM: NUMBER OF ATOMS
810
ITEM: BOX BOUNDS pp pp pp
8.0284377006106800e-01 5.2214761229939221e+01
7.9042180058698908e-01 5.0225793199412173e+01
-1.0000000000000000e+01 1.0000000000000000e+01
ITEM: ATOMS id type x y z xu yu zu
1 1 0.962638 1.13112 -0.231339 0.962638 1.13112 -0.231339
2 2 2.79935 0.852145 1.49317 2.79935 0.852145 1.49317
3 2 2.95222 1.32283 -1.71577 2.95222 1.32283 -1.71577
4 1 3.80957 2.72213 0.198793 3.80957 2.72213 0.198793
5 2 5.64564 2.55673 1.82972 5.64564 2.55673 1.82972
6 2 5.74946 2.90223 -1.39272 5.74946 2.90223 -1.39272
7 1 6.72674 1.07718 -0.0190102 6.72674 1.07718 -0.0190102
8 2 8.48269 0.785247 1.55519 8.48269 0.785247 1.55519
9 2 8.60187 1.15801 -1.70189 8.60187 1.15801 -1.70189
10 1 9.56164 2.55163 0.110845 9.56164 2.55163 0.110845
11 2 11.5721 2.43927 1.5229 11.5721 2.43927 1.5229
12 2 11.3307 2.91797 -1.59947 11.3307 2.91797 -1.59947
13 1 12.4017 0.989354 -0.366729 12.4017 0.989354 -0.366729
14 2 14.3372 0.679206 1.3207 14.3372 0.679206 1.3207
15 2 14.3129 1.10061 -1.93585 14.3129 1.10061 -1.93585
16 1 15.2281 2.64671 -0.0926028 15.2281 2.64671 -0.0926028
17 2 17.2359 2.4878 1.54035 17.2359 2.4878 1.54035
18 2 17.1291 2.7068 -1.74876 17.1291 2.7068 -1.74876
19 1 18.0823 0.958496 -0.328166 18.0823 0.958496 -0.328166
20 2 20.0268 50.1216 1.31465 20.0268 0.686184 1.31465
21 2 19.9516 1.19045 -1.9932 19.9516 1.19045 -1.9932
22 1 20.968 2.64694 -0.0751878 20.968 2.64694 -0.0751878
23 2 22.9731 2.48624 1.40648 22.9731 2.48624 1.40648
24 2 22.7892 2.81237 -1.82832 22.7892 2.81237 -1.82832
25 1 23.8808 0.962356 -0.445605 23.8808 0.962356 -0.445605
26 2 25.6134 0.967191 1.35372 25.6134 0.967191 1.35372
27 2 25.978 1.04327 -1.93089 25.978 1.04327 -1.93089
28 1 26.7033 2.59809 -0.135203 26.7033 2.59809 -0.135203
29 2 28.6468 2.59565 1.59407 28.6468 2.59565 1.59407
30 2 28.7109 2.68266 -1.65087 28.7109 2.68266 -1.65087
31 1 29.5209 0.963156 0.00337961 29.5209 0.963156 0.00337961
32 2 31.3143 0.889985 1.75161 31.3143 0.889985 1.75161
33 2 31.5277 1.1377 -1.60895 31.5277 1.1377 -1.60895
34 1 32.3142 2.66766 0.168593 32.3142 2.66766 0.168593
35 2 34.2145 2.75137 1.81823 34.2145 2.75137 1.81823
36 2 34.3834 2.74233 -1.42066 34.3834 2.74233 -1.42066
37 1 35.2198 1.01603 0.23462 35.2198 1.01603 0.23462
38 2 36.9442 1.05654 2.06842 36.9442 1.05654 2.06842
39 2 37.2748 0.991338 -1.23336 37.2748 0.991338 -1.23336
40 1 38.0999 2.61739 0.406533 38.0999 2.61739 0.406533
41 2 39.8849 2.56175 2.25325 39.8849 2.56175 2.25325
42 2 40.2926 2.73636 -0.954578 40.2926 2.73636 -0.954578
43 1 41.0263 1.00788 0.598242 41.0263 1.00788 0.598242
44 2 43.0665 0.929388 2.04479 43.0665 0.929388 2.04479
45 2 42.8103 1.05152 -1.24327 42.8103 1.05152 -1.24327
46 1 43.8154 2.65974 0.36804 43.8154 2.65974 0.36804
47 2 45.8752 2.20785 1.89036 45.8752 2.20785 1.89036
48 2 45.6304 2.90398 -1.32967 45.6304 2.90398 -1.32967
49 1 46.6236 0.984265 -0.0860024 46.6236 0.984265 -0.0860024
50 2 48.5219 1.11151 1.55268 48.5219 1.11151 1.55268
51 2 48.715 1.01513 -1.6905 48.715 1.01513 -1.6905
52 1 49.4543 2.70977 -0.0559041 49.4543 2.70977 -0.0559041
53 2 51.46 2.61132 1.57708 51.46 2.61132 1.57708
54 2 51.252 2.86118 -1.74595 51.252 2.86118 -1.74595
55 1 0.958181 4.34901 0.0523877 0.958181 4.34901 0.0523877
56 2 2.7711 4.45558 1.82564 2.7711 4.45558 1.82564
57 2 2.96147 4.42704 -1.48397 2.96147 4.42704 -1.48397
58 1 3.85332 6.03212 0.151566 3.85332 6.03212 0.151566
59 2 5.68728 5.95674 1.93929 5.68728 5.95674 1.93929
60 2 5.85014 5.92865 -1.32823 5.85014 5.92865 -1.32823
61 1 6.6948 4.37614 0.394842 6.6948 4.37614 0.394842
62 2 8.66455 4.18386 1.87594 8.66455 4.18386 1.87594
63 2 8.52556 4.30956 -1.38737 8.52556 4.30956 -1.38737
64 1 9.48663 5.89476 0.196431 9.48663 5.89476 0.196431
65 2 11.3645 5.76072 1.69335 11.3645 5.76072 1.69335
66 2 11.4518 6.08727 -1.52769 11.4518 6.08727 -1.52769
67 1 12.4649 4.29164 0.0305494 12.4649 4.29164 0.0305494
68 2 14.3249 4.10581 1.62742 14.3249 4.10581 1.62742
69 2 14.3475 4.45966 -1.58638 14.3475 4.45966 -1.58638
70 1 15.3958 5.97739 0.0784028 15.3958 5.97739 0.0784028
71 2 17.3003 5.89506 1.71312 17.3003 5.89506 1.71312
72 2 17.2949 6.01829 -1.58494 17.2949 6.01829 -1.58494
73 1 18.1456 4.27789 -0.0310821 18.1456 4.27789 -0.0310821
74 2 20.0174 4.19429 1.62244 20.0174 4.19429 1.62244
75 2 20.0437 4.42934 -1.61366 20.0437 4.42934 -1.61366
76 1 20.9882 5.96176 0.15868 20.9882 5.96176 0.15868
77 2 22.9995 5.94459 1.54795 22.9995 5.94459 1.54795
78 2 22.8048 5.9009 -1.60449 22.8048 5.9009 -1.60449
79 1 23.8437 4.23544 -0.110018 23.8437 4.23544 -0.110018
80 2 25.7416 4.26163 1.44999 25.7416 4.26163 1.44999
81 2 25.7769 4.28912 -1.81512 25.7769 4.28912 -1.81512
82 1 26.7395 5.94571 -0.199459 26.7395 5.94571 -0.199459
83 2 28.493 5.9168 1.64171 28.493 5.9168 1.64171
84 2 28.7025 5.96327 -1.65169 28.7025 5.96327 -1.65169
85 1 29.5249 4.30433 0.0393499 29.5249 4.30433 0.0393499
86 2 31.2628 4.33588 1.83758 31.2628 4.33588 1.83758
87 2 31.5873 4.39119 -1.42878 31.5873 4.39119 -1.42878
88 1 32.4647 5.92928 0.365159 32.4647 5.92928 0.365159
89 2 34.309 6.03709 1.92296 34.309 6.03709 1.92296
90 2 34.2614 6.05471 -1.46767 34.2614 6.05471 -1.46767
91 1 35.3103 4.34055 0.200622 35.3103 4.34055 0.200622
92 2 37.0263 4.27947 1.98484 37.0263 4.27947 1.98484
93 2 37.3477 4.38294 -1.32006 37.3477 4.38294 -1.32006
94 1 38.1813 5.98069 0.542159 38.1813 5.98069 0.542159
95 2 39.9317 5.93401 2.31135 39.9317 5.93401 2.31135
96 2 40.1828 5.97553 -0.967766 40.1828 5.97553 -0.967766
97 1 40.9513 4.36937 0.766103 40.9513 4.36937 0.766103
98 2 42.9929 4.25257 2.19058 42.9929 4.25257 2.19058
99 2 42.8781 4.47706 -0.983927 42.8781 4.47706 -0.983927
100 1 43.8667 5.97951 0.686335 43.8667 5.97951 0.686335
101 2 45.885 5.74898 2.23634 45.885 5.74898 2.23634
102 2 45.6842 6.15427 -0.93266 45.6842 6.15427 -0.93266
103 1 46.6519 4.2949 0.462478 46.6519 4.2949 0.462478
104 2 48.7152 4.2246 1.74525 48.7152 4.2246 1.74525
105 2 48.3098 4.39508 -1.45991 48.3098 4.39508 -1.45991
106 1 49.5112 5.94907 0.176495 49.5112 5.94907 0.176495
107 2 51.3133 5.89701 1.9304 51.3133 5.89701 1.9304
108 2 51.509 6.1531 -1.39562 51.509 6.1531 -1.39562
109 1 0.985105 7.58026 0.411783 0.985105 7.58026 0.411783
110 2 2.93162 7.48663 2.00704 2.93162 7.48663 2.00704
111 2 2.75798 7.89225 -1.25578 2.75798 7.89225 -1.25578
112 1 3.76984 9.30513 0.437639 3.76984 9.30513 0.437639
113 2 5.66568 9.21362 2.05612 5.66568 9.21362 2.05612
114 2 5.65993 9.32017 -1.19427 5.65993 9.32017 -1.19427
115 1 6.69624 7.54891 0.399963 6.69624 7.54891 0.399963
116 2 8.53134 7.33596 2.03232 8.53134 7.33596 2.03232
117 2 8.66755 7.71207 -1.20643 8.66755 7.71207 -1.20643
118 1 9.66815 9.16407 0.708954 9.66815 9.16407 0.708954
119 2 11.8336 9.04743 2.04494 11.8336 9.04743 2.04494
120 2 11.2372 9.32376 -1.20655 11.2372 9.32376 -1.20655
121 1 12.4462 7.51856 0.176106 12.4462 7.51856 0.176106
122 2 14.2525 7.50769 1.85337 14.2525 7.50769 1.85337
123 2 14.5063 7.8075 -1.34667 14.5063 7.8075 -1.34667
124 1 15.2386 9.28113 0.517978 15.2386 9.28113 0.517978
125 2 17.3031 9.15896 1.91209 17.3031 9.15896 1.91209
126 2 17.0622 9.33108 -1.29967 17.0622 9.33108 -1.29967
127 1 18.1683 7.61695 0.210162 18.1683 7.61695 0.210162
128 2 20.0852 7.53309 1.79584 20.0852 7.53309 1.79584
129 2 20.1187 7.632 -1.46309 20.1187 7.632 -1.46309
130 1 21.0394 9.23688 0.22234 21.0394 9.23688 0.22234
131 2 23.1646 9.17419 1.71876 23.1646 9.17419 1.71876
132 2 22.8284 9.20491 -1.57203 22.8284 9.20491 -1.57203
133 1 23.8609 7.52284 -0.0909067 23.8609 7.52284 -0.0909067
134 2 25.8107 7.51464 1.55736 25.8107 7.51464 1.55736
135 2 25.7534 7.72212 -1.70586 25.7534 7.72212 -1.70586
136 1 26.7316 9.26849 0.0532181 26.7316 9.26849 0.0532181
137 2 28.6812 9.3163 1.78909 28.6812 9.3163 1.78909
138 2 28.6594 9.12151 -1.55692 28.6594 9.12151 -1.55692
139 1 29.5114 7.53873 0.124744 29.5114 7.53873 0.124744
140 2 31.4221 7.73773 1.74408 31.4221 7.73773 1.74408
141 2 31.4632 7.43571 -1.36965 31.4632 7.43571 -1.36965
142 1 32.5259 9.24864 0.0241365 32.5259 9.24864 0.0241365
143 2 34.2618 9.17945 1.81858 34.2618 9.17945 1.81858
144 2 34.542 9.32656 -1.51977 34.542 9.32656 -1.51977
145 1 35.283 7.61667 0.186752 35.283 7.61667 0.186752
146 2 37.0351 7.48533 2.1318 37.0351 7.48533 2.1318
147 2 37.4352 7.68355 -1.13343 37.4352 7.68355 -1.13343
148 1 38.1429 9.22617 0.67767 38.1429 9.22617 0.67767
149 2 40.009 9.10269 2.27873 40.009 9.10269 2.27873
150 2 40.0871 9.15473 -0.894664 40.0871 9.15473 -0.894664
151 1 40.9747 7.57616 0.658796 40.9747 7.57616 0.658796
152 2 42.7352 7.54301 2.35268 42.7352 7.54301 2.35268
153 2 42.8414 7.74928 -0.907779 42.8414 7.74928 -0.907779
154 1 43.7703 9.302 0.893043 43.7703 9.302 0.893043
155 2 45.6642 9.16893 2.50734 45.6642 9.16893 2.50734
156 2 45.5432 9.5011 -0.747506 45.5432 9.5011 -0.747506
157 1 46.6228 7.70136 0.695593 46.6228 7.70136 0.695593
158 2 48.5299 7.2105 2.15783 48.5299 7.2105 2.15783
159 2 48.4024 8.11623 -1.02303 48.4024 8.11623 -1.02303
160 1 49.4534 9.25307 0.938132 49.4534 9.25307 0.938132
161 2 51.5119 9.04138 2.313 51.5119 9.04138 2.313
162 2 51.2692 9.42192 -0.902805 51.2692 9.42192 -0.902805
163 1 0.951619 10.8138 0.762968 0.951619 10.8138 0.762968
164 2 2.91932 10.6916 2.25448 2.91932 10.6916 2.25448
165 2 2.66494 11.0268 -0.9851 2.66494 11.0268 -0.9851
166 1 3.8202 12.4932 0.714728 3.8202 12.4932 0.714728
167 2 5.62715 12.4187 2.31592 5.62715 12.4187 2.31592
168 2 5.73737 12.5404 -1.01417 5.73737 12.5404 -1.01417
169 1 6.71291 10.8139 0.521862 6.71291 10.8139 0.521862
170 2 8.50492 10.9339 2.23669 8.50492 10.9339 2.23669
171 2 8.68347 10.78 -1.03557 8.68347 10.78 -1.03557
172 1 9.59157 12.4649 0.631883 9.59157 12.4649 0.631883
173 2 11.6659 12.5229 2.07376 11.6659 12.5229 2.07376
174 2 11.2751 12.5722 -1.1564 11.2751 12.5722 -1.1564
175 1 12.4108 10.8916 0.377037 12.4108 10.8916 0.377037
176 2 14.4697 11.0524 2.03919 14.4697 11.0524 2.03919
177 2 14.2534 10.7017 -1.33665 14.2534 10.7017 -1.33665
178 1 15.3571 12.5518 0.25362 15.3571 12.5518 0.25362
179 2 17.314 12.5959 1.92004 17.314 12.5959 1.92004
180 2 17.185 12.4016 -1.34648 17.185 12.4016 -1.34648
181 1 18.1835 10.8994 0.356562 18.1835 10.8994 0.356562
182 2 20.2402 10.9451 1.88976 20.2402 10.9451 1.88976
183 2 20.0596 10.8353 -1.46592 20.0596 10.8353 -1.46592
184 1 21.1072 12.4577 0.0720758 21.1072 12.4577 0.0720758
185 2 23.0075 12.5897 1.59287 23.0075 12.5897 1.59287
186 2 22.9178 12.4193 -1.72586 22.9178 12.4193 -1.72586
187 1 23.8661 10.8889 -0.0478015 23.8661 10.8889 -0.0478015
188 2 25.8159 10.9901 1.57008 25.8159 10.9901 1.57008
189 2 25.7622 10.7604 -1.6483 25.7622 10.7604 -1.6483
190 1 26.7931 12.5007 -0.200426 26.7931 12.5007 -0.200426
191 2 28.7296 12.4873 1.61025 28.7296 12.4873 1.61025
192 2 28.787 12.3636 -1.77995 28.787 12.3636 -1.77995
193 1 29.6221 10.9203 0.00734744 29.6221 10.9203 0.00734744
194 2 31.66 10.8828 1.64569 31.66 10.8828 1.64569
195 2 31.5428 10.9806 -1.62036 31.5428 10.9806 -1.62036
196 1 32.4444 12.6099 0.0491765 32.4444 12.6099 0.0491765
197 2 34.2981 12.6818 1.76825 34.2981 12.6818 1.76825
198 2 34.5048 12.3695 -1.42354 34.5048 12.3695 -1.42354
199 1 35.2601 10.9095 0.309798 35.2601 10.9095 0.309798
200 2 37.0106 11.0563 2.09051 37.0106 11.0563 2.09051
201 2 37.4144 10.7341 -1.13398 37.4144 10.7341 -1.13398
202 1 38.1333 12.478 0.475958 38.1333 12.478 0.475958
203 2 39.9557 12.5163 2.31702 39.9557 12.5163 2.31702
204 2 40.2012 12.4261 -0.950786 40.2012 12.4261 -0.950786
205 1 40.9621 10.8407 0.782837 40.9621 10.8407 0.782837
206 2 42.6605 10.9792 2.50246 42.6605 10.9792 2.50246
207 2 42.7425 10.8494 -0.785567 42.7425 10.8494 -0.785567
208 1 43.752 12.652 0.871864 43.752 12.652 0.871864
209 2 45.6244 12.655 2.59015 45.6244 12.655 2.59015
210 2 45.6221 12.4238 -0.703506 45.6221 12.4238 -0.703506
211 1 46.6023 11.0467 1.05668 46.6023 11.0467 1.05668
212 2 48.5576 10.8989 2.61821 48.5576 10.8989 2.61821
213 2 48.554 10.9799 -0.629276 48.554 10.9799 -0.629276
214 1 49.5821 12.5503 1.01885 49.5821 12.5503 1.01885
215 2 51.5572 12.5948 2.46513 51.5572 12.5948 2.46513
216 2 51.2841 12.5683 -0.709922 51.2841 12.5683 -0.709922
217 1 1.07044 14.197 0.814144 1.07044 14.197 0.814144
218 2 2.95832 14.0583 2.41669 2.95832 14.0583 2.41669
219 2 2.89524 14.1861 -0.831346 2.89524 14.1861 -0.831346
220 1 3.89121 15.8179 0.862878 3.89121 15.8179 0.862878
221 2 5.98302 15.9458 2.28622 5.98302 15.9458 2.28622
222 2 5.5843 15.6401 -0.914396 5.5843 15.6401 -0.914396
223 1 6.7129 14.201 0.684482 6.7129 14.201 0.684482
224 2 8.80255 14.1826 2.26503 8.80255 14.1826 2.26503
225 2 8.53844 14.0749 -1.00299 8.53844 14.0749 -1.00299
226 1 9.5988 15.7502 0.491866 9.5988 15.7502 0.491866
227 2 11.5376 15.9521 2.03704 11.5376 15.9521 2.03704
228 2 11.4134 15.6717 -1.27067 11.4134 15.6717 -1.27067
229 1 12.497 14.2156 0.37622 12.497 14.2156 0.37622
230 2 14.4958 14.1978 1.93743 14.4958 14.1978 1.93743
231 2 14.3165 14.1291 -1.35735 14.3165 14.1291 -1.35735
232 1 15.3127 15.8135 0.218268 15.3127 15.8135 0.218268
233 2 17.205 15.8515 1.77158 17.205 15.8515 1.77158
234 2 17.0786 15.5065 -1.53235 17.0786 15.5065 -1.53235
235 1 18.1685 14.1256 0.228117 18.1685 14.1256 0.228117
236 2 20.3545 14.3238 1.71408 20.3545 14.3238 1.71408
237 2 19.8849 14.0942 -1.53493 19.8849 14.0942 -1.53493
238 1 21.0868 15.8102 -0.10923 21.0868 15.8102 -0.10923
239 2 23.1427 15.8567 1.40898 23.1427 15.8567 1.40898
240 2 22.9033 15.6891 -1.87026 22.9033 15.6891 -1.87026
241 1 23.9746 14.1534 -0.227108 23.9746 14.1534 -0.227108
242 2 25.8815 14.2467 1.30926 25.8815 14.2467 1.30926
243 2 25.7648 14.0756 -1.88172 25.7648 14.0756 -1.88172
244 1 26.7408 15.8546 -0.486163 26.7408 15.8546 -0.486163
245 2 28.5967 16.0383 1.15567 28.5967 16.0383 1.15567
246 2 28.5934 15.6199 -2.12813 28.5934 15.6199 -2.12813
247 1 29.5358 14.1528 -0.235532 29.5358 14.1528 -0.235532
248 2 31.3808 14.4179 1.48423 31.3808 14.4179 1.48423
249 2 31.4725 14.1517 -1.7832 31.4725 14.1517 -1.7832
250 1 32.3829 15.846 -0.294223 32.3829 15.846 -0.294223
251 2 34.0735 15.8421 1.51604 34.0735 15.8421 1.51604
252 2 34.3829 15.6681 -1.77869 34.3829 15.6681 -1.77869
253 1 35.2494 14.1882 0.0859185 35.2494 14.1882 0.0859185
254 2 37.0761 14.2867 1.79102 37.0761 14.2867 1.79102
255 2 37.2205 13.961 -1.43921 37.2205 13.961 -1.43921
256 1 38.0344 15.8282 -0.0376926 38.0344 15.8282 -0.0376926
257 2 39.656 15.9008 1.90989 39.656 15.9008 1.90989
258 2 40.2213 15.6605 -1.32058 40.2213 15.6605 -1.32058
259 1 40.9848 14.2202 0.681126 40.9848 14.2202 0.681126
260 2 42.791 14.3613 2.42649 42.791 14.3613 2.42649
261 2 42.8979 14.1743 -0.888817 42.8979 14.1743 -0.888817
262 1 43.8142 15.9093 0.634137 43.8142 15.9093 0.634137
263 2 45.6314 16.0819 2.39829 45.6314 16.0819 2.39829
264 2 45.8566 15.6602 -0.899241 45.8566 15.6602 -0.899241
265 1 46.6852 14.2199 0.914517 46.6852 14.2199 0.914517
266 2 48.5572 14.1698 2.62568 48.5572 14.1698 2.62568
267 2 48.6704 14.169 -0.701029 48.6704 14.169 -0.701029
268 1 49.5784 15.8999 0.984509 49.5784 15.8999 0.984509
269 2 51.5626 15.8625 2.47337 51.5626 15.8625 2.47337
270 2 51.3906 15.8298 -0.794656 51.3906 15.8298 -0.794656
271 1 0.929284 17.4352 0.847123 0.929284 17.4352 0.847123
272 2 2.89243 17.4202 2.47948 2.89243 17.4202 2.47948
273 2 2.67681 17.3732 -0.80647 2.67681 17.3732 -0.80647
274 1 3.87336 19.0196 0.764416 3.87336 19.0196 0.764416
275 2 5.85109 19.0253 2.238 5.85109 19.0253 2.238
276 2 5.4744 19.1188 -1.06985 5.4744 19.1188 -1.06985
277 1 6.69966 17.4717 0.430909 6.69966 17.4717 0.430909
278 2 8.51142 17.5732 2.16423 8.51142 17.5732 2.16423
279 2 8.607 17.5588 -1.17171 8.607 17.5588 -1.17171
280 1 9.51856 19.1118 0.405709 9.51856 19.1118 0.405709
281 2 11.5451 19.1998 1.91595 11.5451 19.1998 1.91595
282 2 11.3981 19.0763 -1.30728 11.3981 19.0763 -1.30728
283 1 12.3824 17.4693 0.261081 12.3824 17.4693 0.261081
284 2 14.4029 17.4916 1.82766 14.4029 17.4916 1.82766
285 2 14.3494 17.3443 -1.43117 14.3494 17.3443 -1.43117
286 1 15.3864 19.1513 0.00479584 15.3864 19.1513 0.00479584
287 2 17.3423 19.1031 1.50589 17.3423 19.1031 1.50589
288 2 17.1173 19.0629 -1.74571 17.1173 19.0629 -1.74571
289 1 18.1591 17.3956 -0.126903 18.1591 17.3956 -0.126903
290 2 20.0404 17.5971 1.54 20.0404 17.5971 1.54
291 2 20.0531 17.4 -1.82348 20.0531 17.4 -1.82348
292 1 21.019 19.118 -0.276881 21.019 19.118 -0.276881
293 2 22.948 19.0896 1.284 22.948 19.0896 1.284
294 2 22.7909 19.0502 -2.02275 22.7909 19.0502 -2.02275
295 1 23.8839 17.54 -0.43891 23.8839 17.54 -0.43891
296 2 25.8297 17.5844 1.0897 25.8297 17.5844 1.0897
297 2 25.6942 17.2503 -2.24703 25.6942 17.2503 -2.24703
298 1 26.7123 19.0496 -0.689401 26.7123 19.0496 -0.689401
299 2 28.6867 19.1883 0.906209 28.6867 19.1883 0.906209
300 2 28.5446 18.9296 -2.38668 28.5446 18.9296 -2.38668
301 1 29.524 17.4723 -0.687245 29.524 17.4723 -0.687245
302 2 31.3449 17.6857 0.981862 31.3449 17.6857 0.981862
303 2 31.6299 17.1747 -2.20845 31.6299 17.1747 -2.20845
304 1 32.4031 19.0763 -0.786 32.4031 19.0763 -0.786
305 2 34.1576 19.2167 1.12831 34.1576 19.2167 1.12831
306 2 34.5835 18.9448 -2.02191 34.5835 18.9448 -2.02191
307 1 35.2302 17.43 -0.174359 35.2302 17.43 -0.174359
308 2 36.9552 17.4863 1.57342 36.9552 17.4863 1.57342
309 2 37.1737 17.3958 -1.73715 37.1737 17.3958 -1.73715
310 1 38.0651 19.1912 -0.0833279 38.0651 19.1912 -0.0833279
311 2 39.9562 19.4026 1.61916 39.9562 19.4026 1.61916
312 2 40.0408 18.8395 -1.66027 40.0408 18.8395 -1.66027
313 1 40.9243 17.5523 0.303863 40.9243 17.5523 0.303863
314 2 42.6623 17.5974 2.14189 42.6623 17.5974 2.14189
315 2 43.0182 17.5376 -1.08845 43.0182 17.5376 -1.08845
316 1 43.8611 19.2115 0.48249 43.8611 19.2115 0.48249
317 2 45.7424 19.1429 2.20798 45.7424 19.1429 2.20798
318 2 45.958 19.2145 -1.07068 45.958 19.2145 -1.07068
319 1 46.6974 17.5212 0.646592 46.6974 17.5212 0.646592
320 2 48.5052 17.55 2.48893 48.5052 17.55 2.48893
321 2 48.7907 17.5037 -0.832137 48.7907 17.5037 -0.832137
322 1 49.5287 19.2024 0.883513 49.5287 19.2024 0.883513
323 2 51.4248 19.139 2.50637 51.4248 19.139 2.50637
324 2 51.3005 19.0774 -0.773331 51.3005 19.0774 -0.773331
325 1 0.910002 20.7783 0.863287 0.910002 20.7783 0.863287
326 2 3.02817 20.9499 2.28021 3.02817 20.9499 2.28021
327 2 2.7032 20.4891 -1.00491 2.7032 20.4891 -1.00491
328 1 3.8561 22.3732 0.410483 3.8561 22.3732 0.410483
329 2 5.85761 22.4842 1.90221 5.85761 22.4842 1.90221
330 2 5.7698 22.3291 -1.27191 5.7698 22.3291 -1.27191
331 1 6.68924 20.7124 0.407957 6.68924 20.7124 0.407957
332 2 8.63034 20.8535 2.00722 8.63034 20.8535 2.00722
333 2 8.65761 20.605 -1.26612 8.65761 20.605 -1.26612
334 1 9.55226 22.3888 0.257227 9.55226 22.3888 0.257227
335 2 11.6735 22.732 1.61298 11.6735 22.732 1.61298
336 2 11.3519 22.2902 -1.57764 11.3519 22.2902 -1.57764
337 1 12.4625 20.734 0.138484 12.4625 20.734 0.138484
338 2 14.6079 20.9428 1.53581 14.6079 20.9428 1.53581
339 2 14.1462 20.5634 -1.74143 14.1462 20.5634 -1.74143
340 1 15.309 22.4237 -0.337163 15.309 22.4237 -0.337163
341 2 17.267 22.574 1.2895 17.267 22.574 1.2895
342 2 17.1762 22.2407 -2.01639 17.1762 22.2407 -2.01639
343 1 18.113 20.7269 -0.225637 18.113 20.7269 -0.225637
344 2 20.1802 20.9472 1.25175 20.1802 20.9472 1.25175
345 2 19.8786 20.5766 -1.98873 19.8786 20.5766 -1.98873
346 1 20.9084 22.355 -0.560791 20.9084 22.355 -0.560791
347 2 22.9124 22.4906 0.999287 22.9124 22.4906 0.999287
348 2 22.7589 22.2501 -2.25519 22.7589 22.2501 -2.25519
349 1 23.8041 20.7196 -0.428803 23.8041 20.7196 -0.428803
350 2 25.8372 20.8164 0.976777 25.8372 20.8164 0.976777
351 2 25.5551 20.6134 -2.25979 25.5551 20.6134 -2.25979
352 1 26.6801 22.3803 -0.82617 26.6801 22.3803 -0.82617
353 2 28.7221 22.4367 0.590566 28.7221 22.4367 0.590566
354 2 28.4876 22.1612 -2.57152 28.4876 22.1612 -2.57152
355 1 29.5636 20.6239 -0.908812 29.5636 20.6239 -0.908812
356 2 31.5113 20.7445 0.626361 31.5113 20.7445 0.626361
357 2 31.432 20.6329 -2.52428 31.432 20.6329 -2.52428
358 1 32.3292 22.4132 -1.00797 32.3292 22.4132 -1.00797
359 2 34.0162 22.5346 0.794001 34.0162 22.5346 0.794001
360 2 34.3804 22.2751 -2.41417 34.3804 22.2751 -2.41417
361 1 35.2535 20.7501 -0.45204 35.2535 20.7501 -0.45204
362 2 37.0437 20.9595 1.29407 37.0437 20.9595 1.29407
363 2 37.1761 20.5968 -1.93027 37.1761 20.5968 -1.93027
364 1 38.1298 22.4768 -0.472081 38.1298 22.4768 -0.472081
365 2 39.7277 22.421 1.44677 39.7277 22.421 1.44677
366 2 40.2267 22.3326 -1.91989 40.2267 22.3326 -1.91989
367 1 40.947 20.7207 -0.167814 40.947 20.7207 -0.167814
368 2 42.6238 21.0037 1.7242 42.6238 21.0037 1.7242
369 2 43.0789 20.7055 -1.42342 43.0789 20.7055 -1.42342
370 1 43.8347 22.489 0.161722 43.8347 22.489 0.161722
371 2 45.6324 22.6029 1.96502 45.6324 22.6029 1.96502
372 2 45.7968 22.1974 -1.25135 45.7968 22.1974 -1.25135
373 1 46.6896 20.8198 0.650344 46.6896 20.8198 0.650344
374 2 48.6148 21.0107 2.41189 48.6148 21.0107 2.41189
375 2 48.6776 20.7462 -0.908556 48.6776 20.7462 -0.908556
376 1 49.5743 22.4389 0.620476 49.5743 22.4389 0.620476
377 2 51.3836 22.5843 2.31552 51.3836 22.5843 2.31552
378 2 51.5966 22.2618 -0.982709 51.5966 22.2618 -0.982709
379 1 0.938182 24.143 0.618259 0.938182 24.143 0.618259
380 2 3.05978 24.1433 2.00245 3.05978 24.1433 2.00245
381 2 2.79538 24.0373 -1.21963 2.79538 24.0373 -1.21963
382 1 3.81253 25.7648 0.21807 3.81253 25.7648 0.21807
383 2 5.78065 25.6856 1.89052 5.78065 25.6856 1.89052
384 2 5.71816 25.7378 -1.33189 5.71816 25.7378 -1.33189
385 1 6.72101 24.1139 0.173682 6.72101 24.1139 0.173682
386 2 8.72661 24.2594 1.81577 8.72661 24.2594 1.81577
387 2 8.65367 24.0502 -1.4569 8.65367 24.0502 -1.4569
388 1 9.62884 25.7952 -0.0127131 9.62884 25.7952 -0.0127131
389 2 11.8145 25.8078 1.38383 11.8145 25.8078 1.38383
390 2 11.3759 25.6957 -1.77846 11.3759 25.6957 -1.77846
391 1 12.4849 24.1467 -0.229212 12.4849 24.1467 -0.229212
392 2 14.483 24.1412 1.27174 14.483 24.1412 1.27174
393 2 14.2931 24.0637 -1.93855 14.2931 24.0637 -1.93855
394 1 15.3294 25.7309 -0.484157 15.3294 25.7309 -0.484157
395 2 17.351 25.7195 1.1258 17.351 25.7195 1.1258
396 2 17.0863 25.6828 -2.19974 17.0863 25.6828 -2.19974
397 1 18.0782 24.0105 -0.53273 18.0782 24.0105 -0.53273
398 2 20.0772 24.1276 0.955079 20.0772 24.1276 0.955079
399 2 19.8948 23.9233 -2.21276 19.8948 23.9233 -2.21276
400 1 21.0595 25.6615 -0.789769 21.0595 25.6615 -0.789769
401 2 22.9499 25.5851 0.89844 22.9499 25.5851 0.89844
402 2 23.045 25.7251 -2.33055 23.045 25.7251 -2.33055
403 1 23.7998 23.956 -0.752733 23.7998 23.956 -0.752733
404 2 25.6463 23.7749 0.922035 25.6463 23.7749 0.922035
405 2 25.6266 24.1314 -2.3859 25.6266 24.1314 -2.3859
406 1 26.65 25.5462 -0.654542 26.65 25.5462 -0.654542
407 2 28.844 25.4215 0.778385 28.844 25.4215 0.778385
408 2 28.4399 25.6943 -2.55343 28.4399 25.6943 -2.55343
409 1 29.5458 23.949 -1.18553 29.5458 23.949 -1.18553
410 2 31.4041 24.0125 0.612883 31.4041 24.0125 0.612883
411 2 31.7257 23.9887 -2.74242 31.7257 23.9887 -2.74242
412 1 32.3563 25.6221 -1.02729 32.3563 25.6221 -1.02729
413 2 34.2493 25.6648 0.713772 34.2493 25.6648 0.713772
414 2 34.2802 25.6659 -2.51679 34.2802 25.6659 -2.51679
415 1 35.3217 23.9661 -0.880468 35.3217 23.9661 -0.880468
416 2 36.9726 24.1244 0.930209 36.9726 24.1244 0.930209
417 2 37.3902 24.1011 -2.19751 37.3902 24.1011 -2.19751
418 1 38.1994 25.6947 -0.550549 38.1994 25.6947 -0.550549
419 2 39.9243 25.8558 1.16712 39.9243 25.8558 1.16712
420 2 40.1609 25.4834 -2.03992 40.1609 25.4834 -2.03992
421 1 41.0061 24.0124 -0.104155 41.0061 24.0124 -0.104155
422 2 42.8098 24.1937 1.64931 42.8098 24.1937 1.64931
423 2 42.9862 23.9268 -1.55306 42.9862 23.9268 -1.55306
424 1 43.9744 25.6933 0.0138628 43.9744 25.6933 0.0138628
425 2 45.6741 25.8509 1.81289 45.6741 25.8509 1.81289
426 2 46.0749 25.7945 -1.48317 46.0749 25.7945 -1.48317
427 1 46.6829 24.1011 0.200302 46.6829 24.1011 0.200302
428 2 48.4305 24.1639 2.07163 48.4305 24.1639 2.07163
429 2 48.817 24.0977 -1.11344 48.817 24.0977 -1.11344
430 1 49.501 25.8716 0.54979 49.501 25.8716 0.54979
431 2 51.4902 26.0868 2.07965 51.4902 26.0868 2.07965
432 2 51.3065 25.6399 -1.07498 51.3065 25.6399 -1.07498
433 1 0.905634 27.5097 0.295119 0.905634 27.5097 0.295119
434 2 2.85759 27.3767 1.93895 2.85759 27.3767 1.93895
435 2 2.85525 27.5527 -1.36307 2.85525 27.5527 -1.36307
436 1 3.80526 29.1133 0.308336 3.80526 29.1133 0.308336
437 2 5.84614 29.3661 1.8717 5.84614 29.3661 1.8717
438 2 5.62452 28.8736 -1.45758 5.62452 28.8736 -1.45758
439 1 6.72332 27.4537 0.405698 6.72332 27.4537 0.405698
440 2 8.97454 27.457 1.77056 8.97454 27.457 1.77056
441 2 8.38381 27.5424 -1.49722 8.38381 27.5424 -1.49722
442 1 9.58999 29.093 -0.0596671 9.58999 29.093 -0.0596671
443 2 11.6502 28.989 1.4139 11.6502 28.989 1.4139
444 2 11.3757 29.0251 -1.81401 11.3757 29.0251 -1.81401
445 1 12.489 27.3874 -0.379776 12.489 27.3874 -0.379776
446 2 14.4553 27.3776 1.13586 14.4553 27.3776 1.13586
447 2 14.3358 27.32 -2.1175 14.3358 27.32 -2.1175
448 1 15.3307 28.9385 -0.548499 15.3307 28.9385 -0.548499
449 2 17.3728 29.0773 0.989715 17.3728 29.0773 0.989715
450 2 17.2097 28.7826 -2.22097 17.2097 28.7826 -2.22097
451 1 18.2502 27.3006 -0.573002 18.2502 27.3006 -0.573002
452 2 20.2161 27.3135 0.883896 20.2161 27.3135 0.883896
453 2 19.9529 27.227 -2.3592 19.9529 27.227 -2.3592
454 1 21.0845 28.9311 -0.799384 21.0845 28.9311 -0.799384
455 2 22.8447 29.078 0.976033 22.8447 29.078 0.976033
456 2 23.1835 28.9379 -2.2866 23.1835 28.9379 -2.2866
457 1 23.9513 27.3124 -0.634057 23.9513 27.3124 -0.634057
458 2 25.8787 27.1139 1.01322 25.8787 27.1139 1.01322
459 2 25.8682 27.382 -2.2502 25.8682 27.382 -2.2502
460 1 26.7635 28.9172 -0.485793 26.7635 28.9172 -0.485793
461 2 28.7006 28.7341 1.01178 28.7006 28.7341 1.01178
462 2 28.5015 29.0248 -2.18716 28.5015 29.0248 -2.18716
463 1 29.5651 27.2882 -0.847932 29.5651 27.2882 -0.847932
464 2 31.414 27.1295 0.827735 31.414 27.1295 0.827735
465 2 31.5079 27.5253 -2.42201 31.5079 27.5253 -2.42201
466 1 32.3669 29.0095 -0.500141 32.3669 29.0095 -0.500141
467 2 34.3492 28.9281 0.95252 34.3492 28.9281 0.95252
468 2 34.1841 29.1515 -2.24708 34.1841 29.1515 -2.24708
469 1 35.1792 27.3586 -0.815241 35.1792 27.3586 -0.815241
470 2 37.0344 27.315 0.925464 37.0344 27.315 0.925464
471 2 37.303 27.2596 -2.30572 37.303 27.2596 -2.30572
472 1 38.0679 28.9671 -0.645423 38.0679 28.9671 -0.645423
473 2 39.8599 29.0484 1.01296 39.8599 29.0484 1.01296
474 2 39.9599 28.9535 -2.26415 39.9599 28.9535 -2.26415
475 1 40.9926 27.277 -0.550469 40.9926 27.277 -0.550469
476 2 42.6949 27.519 1.29986 42.6949 27.519 1.29986
477 2 43.1123 27.0098 -1.90837 43.1123 27.0098 -1.90837
478 1 43.8144 29.005 -0.395409 43.8144 29.005 -0.395409
479 2 45.3829 29.2132 1.49901 45.3829 29.2132 1.49901
480 2 46.0543 28.9998 -1.60206 46.0543 28.9998 -1.60206
481 1 46.7864 27.4795 0.236501 46.7864 27.4795 0.236501
482 2 48.7396 27.8434 1.84276 48.7396 27.8434 1.84276
483 2 48.6784 27.2548 -1.35331 48.6784 27.2548 -1.35331
484 1 49.5967 29.1995 -0.0989243 49.5967 29.1995 -0.0989243
485 2 51.279 29.3096 1.714 51.279 29.3096 1.714
486 2 51.6757 29.0701 -1.52034 51.6757 29.0701 -1.52034
487 1 1.02387 30.8714 0.151531 1.02387 30.8714 0.151531
488 2 2.91006 31.0028 1.74165 2.91006 31.0028 1.74165
489 2 2.9292 30.5782 -1.47214 2.9292 30.5782 -1.47214
490 1 3.95253 32.4336 -0.0720373 3.95253 32.4336 -0.0720373
491 2 6.07872 32.7484 1.26188 6.07872 32.7484 1.26188
492 2 5.61817 31.9455 -1.82406 5.61817 31.9455 -1.82406
493 1 6.68375 30.6761 -0.0708458 6.68375 30.6761 -0.0708458
494 2 8.68826 31.0939 1.35167 8.68826 31.0939 1.35167
495 2 8.43998 30.5051 -1.88014 8.43998 30.5051 -1.88014
496 1 9.60403 32.3706 -0.716117 9.60403 32.3706 -0.716117
497 2 11.4818 32.5971 0.943337 11.4818 32.5971 0.943337
498 2 11.4729 32.064 -2.2304 11.4729 32.064 -2.2304
499 1 12.5292 30.696 -0.323123 12.5292 30.696 -0.323123
500 2 14.5673 30.7367 1.05039 14.5673 30.7367 1.05039
501 2 14.2238 30.4407 -2.2822 14.2238 30.4407 -2.2822
502 1 15.3194 32.1753 -0.7581 15.3194 32.1753 -0.7581
503 2 17.247 32.1835 0.854656 17.247 32.1835 0.854656
504 2 17.1207 32.2129 -2.42283 17.1207 32.2129 -2.42283
505 1 18.1721 30.5644 -0.860893 18.1721 30.5644 -0.860893
506 2 20.0759 30.6559 0.824269 20.0759 30.6559 0.824269
507 2 20.1174 30.6065 -2.57484 20.1174 30.6065 -2.57484
508 1 21.0551 32.3062 -0.963265 21.0551 32.3062 -0.963265
509 2 22.774 32.4672 0.891723 22.774 32.4672 0.891723
510 2 23.183 32.3212 -2.41155 23.183 32.3212 -2.41155
511 1 23.9016 30.7266 -0.621022 23.9016 30.7266 -0.621022
512 2 25.8002 30.7304 1.01257 25.8002 30.7304 1.01257
513 2 25.8936 30.516 -2.22567 25.8936 30.516 -2.22567
514 1 26.7106 32.2338 -0.750703 26.7106 32.2338 -0.750703
515 2 28.5615 32.1554 1.06855 28.5615 32.1554 1.06855
516 2 28.7439 32.2615 -2.13861 28.7439 32.2615 -2.13861
517 1 29.5611 30.6167 -0.460409 29.5611 30.6167 -0.460409
518 2 31.4832 30.5405 1.11964 31.4832 30.5405 1.11964
519 2 31.4874 30.6976 -2.12303 31.4874 30.6976 -2.12303
520 1 32.416 32.2784 -0.435668 32.416 32.2784 -0.435668
521 2 34.4255 32.3883 0.967363 34.4255 32.3883 0.967363
522 2 34.1117 32.1888 -2.21766 34.1117 32.1888 -2.21766
523 1 35.2819 30.6309 -0.581779 35.2819 30.6309 -0.581779
524 2 37.1685 30.6216 1.00147 37.1685 30.6216 1.00147
525 2 37.0956 30.5675 -2.25688 37.0956 30.5675 -2.25688
526 1 38.0457 32.2691 -0.697356 38.0457 32.2691 -0.697356
527 2 39.9219 32.2712 1.00551 39.9219 32.2712 1.00551
528 2 40.0411 32.3714 -2.16895 40.0411 32.3714 -2.16895
529 1 40.9468 30.6492 -0.664345 40.9468 30.6492 -0.664345
530 2 42.6614 30.7563 1.06232 42.6614 30.7563 1.06232
531 2 42.9606 30.5834 -2.09055 42.9606 30.5834 -2.09055
532 1 43.8801 32.3065 -0.4788 43.8801 32.3065 -0.4788
533 2 45.7335 32.7231 1.36586 45.7335 32.7231 1.36586
534 2 45.9277 32.135 -1.85817 45.9277 32.135 -1.85817
535 1 46.7338 30.7634 0.0876799 46.7338 30.7634 0.0876799
536 2 48.7828 31.0063 1.54064 48.7828 31.0063 1.54064
537 2 48.6332 30.6763 -1.67415 48.6332 30.6763 -1.67415
538 1 49.737 32.43 -0.265054 49.737 32.43 -0.265054
539 2 51.4908 32.7599 1.59596 51.4908 32.7599 1.59596
540 2 51.591 32.1704 -1.75911 51.591 32.1704 -1.75911