ITEM: TIMESTEP
28500
ITEM: NUMBER OF ATOMS
810
ITEM: BOX BOUNDS pp pp pp
8.6189381882472194e-01 5.2155711181176237e+01
7.5295038598633601e-01 5.0263264614012947e+01
-1.0000000000000000e+01 1.0000000000000000e+01
ITEM: ATOMS id type x y z xu yu zu
1 1 0.98554 0.932498 -0.292125 0.98554 0.932498 -0.292125
2 2 2.88449 1.01548 1.243 2.88449 1.01548 1.243
3 2 2.95095 0.948574 -1.96211 2.95095 0.948574 -1.96211
4 1 3.98545 2.68163 -0.491949 3.98545 2.68163 -0.491949
5 2 5.83243 2.70489 1.1733 5.83243 2.70489 1.1733
6 2 5.84943 2.70103 -2.16319 5.84943 2.70103 -2.16319
7 1 6.69054 0.987539 -0.536971 6.69054 0.987539 -0.536971
8 2 8.50134 1.0049 1.11927 8.50134 1.0049 1.11927
9 2 8.68356 0.891027 -2.08764 8.68356 0.891027 -2.08764
10 1 9.62748 2.64358 -0.487481 9.62748 2.64358 -0.487481
11 2 11.384 2.36841 1.15959 11.384 2.36841 1.15959
12 2 11.6181 2.66928 -2.14241 11.6181 2.66928 -2.14241
13 1 12.4608 0.961227 -0.523131 12.4608 0.961227 -0.523131
14 2 14.5357 0.959934 1.10891 14.5357 0.959934 1.10891
15 2 14.3335 1.08409 -2.10861 14.3335 1.08409 -2.10861
16 1 15.3703 2.64371 -0.577518 15.3703 2.64371 -0.577518
17 2 17.1536 2.18959 1.11695 17.1536 2.18959 1.11695
18 2 17.341 3.00277 -2.02358 17.341 3.00277 -2.02358
19 1 18.1478 1.00494 -0.756137 18.1478 1.00494 -0.756137
20 2 19.969 0.6446 0.900159 19.969 0.6446 0.900159
21 2 20.1677 1.09952 -2.30664 20.1677 1.09952 -2.30664
22 1 21.0262 2.53448 -0.414824 21.0262 2.53448 -0.414824
23 2 22.8939 2.66703 1.20202 22.8939 2.66703 1.20202
24 2 22.8041 2.63735 -2.12376 22.8041 2.63735 -2.12376
25 1 23.8475 0.97618 -0.506779 23.8475 0.97618 -0.506779
26 2 25.67 0.898959 1.05144 25.67 0.898959 1.05144
27 2 25.8996 0.981365 -2.08756 25.8996 0.981365 -2.08756
28 1 26.7322 2.59549 -0.493422 26.7322 2.59549 -0.493422
29 2 28.5633 2.58039 1.15573 28.5633 2.58039 1.15573
30 2 28.6421 2.69953 -2.08725 28.6421 2.69953 -2.08725
31 1 29.6527 1.02382 -0.48343 29.6527 1.02382 -0.48343
32 2 31.3698 50.409 1.24042 31.3698 0.898644 1.24042
33 2 31.5912 1.09723 -2.05249 31.5912 1.09723 -2.05249
34 1 32.3879 2.64777 -0.274469 32.3879 2.64777 -0.274469
35 2 34.3452 2.52551 1.2691 34.3452 2.52551 1.2691
36 2 34.2992 2.83629 -1.85176 34.2992 2.83629 -1.85176
37 1 35.2681 0.995204 -0.542001 35.2681 0.995204 -0.542001
38 2 37.0313 0.757505 1.26873 37.0313 0.757505 1.26873
39 2 37.2461 1.21629 -1.94179 37.2461 1.21629 -1.94179
40 1 38.1151 2.52148 0.0245175 38.1151 2.52148 0.0245175
41 2 40.1565 2.58375 1.55733 40.1565 2.58375 1.55733
42 2 39.9206 2.66536 -1.75193 39.9206 2.66536 -1.75193
43 1 40.952 0.993912 -0.179336 40.952 0.993912 -0.179336
44 2 42.9616 0.832272 1.35305 42.9616 0.832272 1.35305
45 2 42.7355 1.03492 -1.92952 42.7355 1.03492 -1.92952
46 1 43.8035 2.64896 -0.215052 43.8035 2.64896 -0.215052
47 2 45.8456 2.4773 1.30974 45.8456 2.4773 1.30974
48 2 45.6151 2.59511 -1.96107 45.6151 2.59511 -1.96107
49 1 46.6495 0.960647 -0.436688 46.6495 0.960647 -0.436688
50 2 48.5103 0.944817 1.24453 48.5103 0.944817 1.24453
51 2 48.7851 0.998917 -1.96631 48.7851 0.998917 -1.96631
52 1 49.5691 2.65112 -0.209057 49.5691 2.65112 -0.209057
53 2 51.5703 2.76008 1.26664 51.5703 2.76008 1.26664
54 2 51.3022 2.50961 -1.97763 51.3022 2.50961 -1.97763
55 1 1.0442 4.30503 -0.428142 1.0442 4.30503 -0.428142
56 2 2.96113 4.2382 1.1964 2.96113 4.2382 1.1964
57 2 2.85394 4.37977 -2.15715 2.85394 4.37977 -2.15715
58 1 3.88058 6.01228 -0.472446 3.88058 6.01228 -0.472446
59 2 5.77773 5.72621 1.25392 5.77773 5.72621 1.25392
60 2 5.81487 6.22047 -1.96688 5.81487 6.22047 -1.96688
61 1 6.76852 4.25713 -0.527665 6.76852 4.25713 -0.527665
62 2 8.45986 4.00299 1.36949 8.45986 4.00299 1.36949
63 2 8.85359 4.64664 -1.86401 8.85359 4.64664 -1.86401
64 1 9.51302 5.98941 0.136318 9.51302 5.98941 0.136318
65 2 11.5118 5.55488 1.62172 11.5118 5.55488 1.62172
66 2 11.4844 6.08213 -1.55326 11.4844 6.08213 -1.55326
67 1 12.4189 4.21902 -0.234791 12.4189 4.21902 -0.234791
68 2 14.333 3.94833 1.35324 14.333 3.94833 1.35324
69 2 14.2925 4.48168 -1.94924 14.2925 4.48168 -1.94924
70 1 15.2733 5.85908 0.0647503 15.2733 5.85908 0.0647503
71 2 17.1514 5.72935 1.7223 17.1514 5.72935 1.7223
72 2 17.3661 6.03391 -1.50031 17.3661 6.03391 -1.50031
73 1 18.1773 4.21276 0.0360888 18.1773 4.21276 0.0360888
74 2 20.147 4.04072 1.45427 20.147 4.04072 1.45427
75 2 19.9488 4.46908 -1.78671 19.9488 4.46908 -1.78671
76 1 21.0058 5.92417 -0.0756937 21.0058 5.92417 -0.0756937
77 2 23.0824 5.89493 1.37322 23.0824 5.89493 1.37322
78 2 22.7955 6.00082 -1.89308 22.7955 6.00082 -1.89308
79 1 23.8486 4.28882 -0.453049 23.8486 4.28882 -0.453049
80 2 25.7106 4.19718 1.1596 25.7106 4.19718 1.1596
81 2 25.752 4.20737 -2.08804 25.752 4.20737 -2.08804
82 1 26.7681 5.90345 -0.436487 26.7681 5.90345 -0.436487
83 2 28.5318 5.68728 1.52974 28.5318 5.68728 1.52974
84 2 28.8996 6.25024 -1.78709 28.8996 6.25024 -1.78709
85 1 29.5581 4.28489 -0.353863 29.5581 4.28489 -0.353863
86 2 31.3142 4.28896 1.36142 31.3142 4.28896 1.36142
87 2 31.4991 4.26346 -1.93095 31.4991 4.26346 -1.93095
88 1 32.4038 5.90649 -0.187944 32.4038 5.90649 -0.187944
89 2 34.2559 5.82275 1.53763 34.2559 5.82275 1.53763
90 2 34.354 5.93134 -1.77386 34.354 5.93134 -1.77386
91 1 35.2284 4.31374 -0.191423 35.2284 4.31374 -0.191423
92 2 37.0139 4.24387 1.66533 37.0139 4.24387 1.66533
93 2 37.2864 4.31246 -1.56234 37.2864 4.31246 -1.56234
94 1 38.1416 5.85187 0.189664 38.1416 5.85187 0.189664
95 2 40.2068 5.78812 1.58722 40.2068 5.78812 1.58722
96 2 39.9025 5.97289 -1.65151 39.9025 5.97289 -1.65151
97 1 40.9722 4.33898 -0.189578 40.9722 4.33898 -0.189578
98 2 42.8348 4.40092 1.48893 42.8348 4.40092 1.48893
99 2 42.9469 4.42071 -1.78379 42.9469 4.42071 -1.78379
100 1 43.8064 5.9993 -0.0414901 43.8064 5.9993 -0.0414901
101 2 45.7114 5.87714 1.56871 45.7114 5.87714 1.56871
102 2 45.7119 6.1369 -1.66546 45.7119 6.1369 -1.66546
103 1 46.6597 4.19651 -0.292186 46.6597 4.19651 -0.292186
104 2 48.4818 4.09997 1.4502 48.4818 4.09997 1.4502
105 2 48.5729 4.19413 -1.80858 48.5729 4.19413 -1.80858
106 1 49.534 5.85602 -0.0740575 49.534 5.85602 -0.0740575
107 2 51.5297 5.82506 1.42398 51.5297 5.82506 1.42398
108 2 51.3387 6.17167 -1.80148 51.3387 6.17167 -1.80148
109 1 1.05761 7.58896 -0.0457722 1.05761 7.58896 -0.0457722
110 2 3.01497 7.35584 1.39827 3.01497 7.35584 1.39827
111 2 2.75253 7.82137 -1.72989 2.75253 7.82137 -1.72989
112 1 3.79705 9.23236 0.0169132 3.79705 9.23236 0.0169132
113 2 5.6792 9.19123 1.68396 5.6792 9.19123 1.68396
114 2 5.76187 9.32145 -1.57355 5.76187 9.32145 -1.57355
115 1 6.66381 7.6349 -0.112531 6.66381 7.6349 -0.112531
116 2 8.49753 7.66164 1.6506 8.49753 7.66164 1.6506
117 2 8.74229 7.59069 -1.60918 8.74229 7.59069 -1.60918
118 1 9.58853 9.24449 0.0288877 9.58853 9.24449 0.0288877
119 2 11.3852 9.03344 1.85554 11.3852 9.03344 1.85554
120 2 11.5897 9.31711 -1.3851 11.5897 9.31711 -1.3851
121 1 12.4897 7.50005 0.250831 12.4897 7.50005 0.250831
122 2 14.4488 7.46434 1.81818 14.4488 7.46434 1.81818
123 2 14.3272 7.52814 -1.40901 14.3272 7.52814 -1.40901
124 1 15.3765 9.09457 0.17405 15.3765 9.09457 0.17405
125 2 17.0991 9.21167 1.87324 17.0991 9.21167 1.87324
126 2 17.3477 9.174 -1.30631 17.3477 9.174 -1.30631
127 1 18.2288 7.52042 0.266484 18.2288 7.52042 0.266484
128 2 20.249 7.49526 1.76829 20.249 7.49526 1.76829
129 2 19.9898 7.62778 -1.57039 19.9898 7.62778 -1.57039
130 1 21.0396 9.18129 0.111079 21.0396 9.18129 0.111079
131 2 23.1377 8.97471 1.65618 23.1377 8.97471 1.65618
132 2 22.8738 9.43148 -1.67917 22.8738 9.43148 -1.67917
133 1 23.8092 7.54538 -0.230183 23.8092 7.54538 -0.230183
134 2 25.8728 7.39902 1.38637 25.8728 7.39902 1.38637
135 2 25.6877 7.79052 -1.8869 25.6877 7.79052 -1.8869
136 1 26.741 9.24352 -0.0129067 26.741 9.24352 -0.0129067
137 2 28.5809 9.20683 1.84962 28.5809 9.20683 1.84962
138 2 28.7421 9.12441 -1.43449 28.7421 9.12441 -1.43449
139 1 29.5628 7.51803 0.219011 29.5628 7.51803 0.219011
140 2 31.5086 7.34535 1.72334 31.5086 7.34535 1.72334
141 2 31.3023 7.76828 -1.51277 31.3023 7.76828 -1.51277
142 1 32.4154 9.19184 0.319016 32.4154 9.19184 0.319016
143 2 34.3825 9.01904 1.78392 34.3825 9.01904 1.78392
144 2 34.3088 9.44803 -1.27536 34.3088 9.44803 -1.27536
145 1 35.2465 7.55308 -0.0449174 35.2465 7.55308 -0.0449174
146 2 37.0416 7.52483 1.75875 37.0416 7.52483 1.75875
147 2 37.2117 7.49098 -1.50965 37.2117 7.49098 -1.50965
148 1 38.0734 9.16861 0.213322 38.0734 9.16861 0.213322
149 2 39.8704 8.99745 1.78601 39.8704 8.99745 1.78601
150 2 39.8629 9.4073 -1.45007 39.8629 9.4073 -1.45007
151 1 40.8649 7.57827 -0.0342658 40.8649 7.57827 -0.0342658
152 2 42.7707 7.43795 1.61456 42.7707 7.43795 1.61456
153 2 42.8457 7.68482 -1.70642 42.8457 7.68482 -1.70642
154 1 43.8078 9.21733 0.00572853 43.8078 9.21733 0.00572853
155 2 45.7035 9.24029 1.77533 45.7035 9.24029 1.77533
156 2 45.644 9.2204 -1.57167 45.644 9.2204 -1.57167
157 1 46.6931 7.55454 0.0862127 46.6931 7.55454 0.0862127
158 2 48.6089 7.54978 1.71666 48.6089 7.54978 1.71666
159 2 48.5523 7.54858 -1.56645 48.5523 7.54858 -1.56645
160 1 49.5121 9.27756 0.141503 49.5121 9.27756 0.141503
161 2 51.5305 9.14541 1.70581 51.5305 9.14541 1.70581
162 2 51.1234 9.25467 -1.60793 51.1234 9.25467 -1.60793
163 1 0.975018 10.8935 -0.0282533 0.975018 10.8935 -0.0282533
164 2 2.94816 10.8316 1.69675 2.94816 10.8316 1.69675
165 2 2.99938 10.9748 -1.59454 2.99938 10.9748 -1.59454
166 1 3.88341 12.5336 0.171116 3.88341 12.5336 0.171116
167 2 5.79782 12.4931 1.8211 5.79782 12.4931 1.8211
168 2 5.80557 12.6057 -1.45924 5.80557 12.6057 -1.45924
169 1 6.6798 10.8842 0.112463 6.6798 10.8842 0.112463
170 2 8.58399 10.7809 1.81016 8.58399 10.7809 1.81016
171 2 8.68642 11.0439 -1.4395 8.68642 11.0439 -1.4395
172 1 9.63749 12.5087 0.41352 9.63749 12.5087 0.41352
173 2 11.5334 12.4726 2.15813 11.5334 12.4726 2.15813
174 2 11.5883 12.5649 -1.06877 11.5883 12.5649 -1.06877
175 1 12.5029 10.8299 0.467335 12.5029 10.8299 0.467335
176 2 14.433 10.526 1.96162 14.433 10.526 1.96162
177 2 14.2727 10.9114 -1.32722 14.2727 10.9114 -1.32722
178 1 15.2731 12.5193 0.401757 15.2731 12.5193 0.401757
179 2 17.1896 12.5777 1.95983 17.1896 12.5777 1.95983
180 2 17.0333 12.4644 -1.3065 17.0333 12.4644 -1.3065
181 1 18.1537 10.8427 0.353138 18.1537 10.8427 0.353138
182 2 20.1101 10.7708 1.97924 20.1101 10.7708 1.97924
183 2 20.0314 10.9882 -1.34667 20.0314 10.9882 -1.34667
184 1 21.0328 12.5064 0.368638 21.0328 12.5064 0.368638
185 2 23.087 12.3915 1.78862 23.087 12.3915 1.78862
186 2 22.8748 12.635 -1.34716 22.8748 12.635 -1.34716
187 1 23.8961 10.8685 0.0333491 23.8961 10.8685 0.0333491
188 2 25.7561 10.73 1.70882 25.7561 10.73 1.70882
189 2 25.7156 11.0272 -1.57622 25.7156 11.0272 -1.57622
190 1 26.6993 12.6101 0.167189 26.6993 12.6101 0.167189
191 2 28.5462 12.626 1.88831 28.5462 12.626 1.88831
192 2 28.5308 12.4273 -1.39335 28.5308 12.4273 -1.39335
193 1 29.5611 10.8583 0.281981 29.5611 10.8583 0.281981
194 2 31.3917 10.8852 1.90819 31.3917 10.8852 1.90819
195 2 31.5195 10.8495 -1.31007 31.5195 10.8495 -1.31007
196 1 32.3289 12.5486 0.374487 32.3289 12.5486 0.374487
197 2 34.1191 12.5537 2.01017 34.1191 12.5537 2.01017
198 2 34.361 12.5562 -1.15783 34.361 12.5562 -1.15783
199 1 35.2026 10.9387 0.384655 35.2026 10.9387 0.384655
200 2 37.2007 10.8761 1.83418 37.2007 10.8761 1.83418
201 2 36.9214 10.7155 -1.36968 36.9214 10.7155 -1.36968
202 1 38.0786 12.4854 0.143709 38.0786 12.4854 0.143709
203 2 39.9612 12.5042 1.87494 39.9612 12.5042 1.87494
204 2 40.1393 12.6466 -1.36479 40.1393 12.6466 -1.36479
205 1 40.9419 10.8911 0.317271 40.9419 10.8911 0.317271
206 2 42.968 10.7631 1.79832 42.968 10.7631 1.79832
207 2 42.7222 10.9738 -1.48518 42.7222 10.9738 -1.48518
208 1 43.7266 12.5184 0.198982 43.7266 12.5184 0.198982
209 2 45.6527 12.4232 1.81377 45.6527 12.4232 1.81377
210 2 45.6792 12.6098 -1.47812 45.6792 12.6098 -1.47812
211 1 46.6355 10.9048 0.137574 46.6355 10.9048 0.137574
212 2 48.503 10.9146 1.81207 48.503 10.9146 1.81207
213 2 48.447 10.869 -1.44811 48.447 10.869 -1.44811
214 1 49.5312 12.5658 0.0360677 49.5312 12.5658 0.0360677
215 2 51.4142 12.4046 1.69974 51.4142 12.4046 1.69974
216 2 51.3481 12.5763 -1.6162 51.3481 12.5763 -1.6162
217 1 1.11553 14.1363 0.06938 1.11553 14.1363 0.06938
218 2 2.95886 14.1979 1.80223 2.95886 14.1979 1.80223
219 2 3.06899 14.2206 -1.51608 3.06899 14.2206 -1.51608
220 1 3.91166 15.9483 0.279218 3.91166 15.9483 0.279218
221 2 5.85888 15.7669 1.90062 5.85888 15.7669 1.90062
222 2 5.72502 15.7847 -1.33758 5.72502 15.7847 -1.33758
223 1 6.69834 14.1677 0.266837 6.69834 14.1677 0.266837
224 2 8.58099 14.1582 2.0162 8.58099 14.1582 2.0162
225 2 8.6519 14.1897 -1.28849 8.6519 14.1897 -1.28849
226 1 9.57244 15.839 0.417094 9.57244 15.839 0.417094
227 2 11.5068 15.8182 2.04574 11.5068 15.8182 2.04574
228 2 11.4515 15.7607 -1.22696 11.4515 15.7607 -1.22696
229 1 12.4462 14.1824 0.576185 12.4462 14.1824 0.576185
230 2 14.3553 14.0954 2.06892 14.3553 14.0954 2.06892
231 2 14.253 14.1141 -1.0966 14.253 14.1141 -1.0966
232 1 15.3077 15.8125 0.483294 15.3077 15.8125 0.483294
233 2 17.3665 15.7502 1.91655 17.3665 15.7502 1.91655
234 2 17.0497 16.0254 -1.24797 17.0497 16.0254 -1.24797
235 1 18.0954 14.1638 0.182519 18.0954 14.1638 0.182519
236 2 19.9058 14.1536 1.93537 19.9058 14.1536 1.93537
237 2 20.2446 14.1951 -1.26302 20.2446 14.1951 -1.26302
238 1 21.0113 15.89 0.464897 21.0113 15.89 0.464897
239 2 23.0978 15.8668 1.91848 23.0978 15.8668 1.91848
240 2 22.7428 15.9107 -1.27818 22.7428 15.9107 -1.27818
241 1 23.8672 14.2374 0.261058 23.8672 14.2374 0.261058
242 2 25.8088 14.3427 1.81907 25.8088 14.3427 1.81907
243 2 25.7693 14.271 -1.46974 25.7693 14.271 -1.46974
244 1 26.7243 15.8883 0.0359649 26.7243 15.8883 0.0359649
245 2 28.7145 16.0731 1.59508 28.7145 16.0731 1.59508
246 2 28.4845 15.6522 -1.61512 28.4845 15.6522 -1.61512
247 1 29.5058 14.2284 0.174944 29.5058 14.2284 0.174944
248 2 31.2566 14.4419 1.87243 31.2566 14.4419 1.87243
249 2 31.4589 14.0248 -1.47604 31.4589 14.0248 -1.47604
250 1 32.345 15.8749 0.0305611 32.345 15.8749 0.0305611
251 2 34.1144 15.8677 1.86286 34.1144 15.8677 1.86286
252 2 34.384 15.8101 -1.44762 34.384 15.8101 -1.44762
253 1 35.2603 14.1384 0.441822 35.2603 14.1384 0.441822
254 2 37.3328 14.2494 1.91128 37.3328 14.2494 1.91128
255 2 37.0168 14.2433 -1.34665 37.0168 14.2433 -1.34665
256 1 38.1308 15.8768 0.252116 38.1308 15.8768 0.252116
257 2 39.9455 15.8812 1.81982 39.9455 15.8812 1.81982
258 2 40.012 15.7263 -1.4259 40.012 15.7263 -1.4259
259 1 40.8895 14.1545 0.29378 40.8895 14.1545 0.29378
260 2 42.7048 14.2092 1.8673 42.7048 14.2092 1.8673
261 2 42.7414 14.2459 -1.41139 42.7414 14.2459 -1.41139
262 1 43.8017 15.8641 0.362984 43.8017 15.8641 0.362984
263 2 45.7102 15.8788 1.97278 45.7102 15.8788 1.97278
264 2 45.5191 15.8449 -1.31822 45.5191 15.8449 -1.31822
265 1 46.5945 14.2202 0.26583 46.5945 14.2202 0.26583
266 2 48.6977 14.0866 1.8453 48.6977 14.0866 1.8453
267 2 48.4407 14.2431 -1.38097 48.4407 14.2431 -1.38097
268 1 49.4654 15.8734 0.312551 49.4654 15.8734 0.312551
269 2 51.5936 15.7128 1.869 51.5936 15.7128 1.869
270 2 51.3512 15.9719 -1.4259 51.3512 15.9719 -1.4259
271 1 1.0272 17.4807 0.411211 1.0272 17.4807 0.411211
272 2 3.002 17.4948 1.94491 3.002 17.4948 1.94491
273 2 2.94583 17.489 -1.33205 2.94583 17.489 -1.33205
274 1 3.83429 19.2421 0.370417 3.83429 19.2421 0.370417
275 2 5.72511 18.9037 1.96371 5.72511 18.9037 1.96371
276 2 5.81287 19.449 -1.12064 5.81287 19.449 -1.12064
277 1 6.78004 17.578 0.252156 6.78004 17.578 0.252156
278 2 8.55171 17.4615 2.00591 8.55171 17.4615 2.00591
279 2 8.84206 17.6244 -1.24296 8.84206 17.6244 -1.24296
280 1 9.58334 19.1538 0.531154 9.58334 19.1538 0.531154
281 2 11.594 19.1185 2.00944 11.594 19.1185 2.00944
282 2 11.455 19.1888 -1.23804 11.455 19.1888 -1.23804
283 1 12.4447 17.5056 0.340804 12.4447 17.5056 0.340804
284 2 14.3973 17.5575 1.93299 14.3973 17.5575 1.93299
285 2 14.3859 17.2761 -1.33044 14.3859 17.2761 -1.33044
286 1 15.3861 19.0937 0.177582 15.3861 19.0937 0.177582
287 2 17.1667 19.1428 1.97349 17.1667 19.1428 1.97349
288 2 17.3796 19.0389 -1.41054 17.3796 19.0389 -1.41054
289 1 18.1799 17.5155 0.398376 18.1799 17.5155 0.398376
290 2 20.1998 17.6384 1.99293 20.1998 17.6384 1.99293
291 2 20.1015 17.4662 -1.28434 20.1015 17.4662 -1.28434
292 1 21.0945 19.1092 0.222022 21.0945 19.1092 0.222022
293 2 23.0674 19.3244 1.80441 23.0674 19.3244 1.80441
294 2 22.7797 19.0344 -1.50941 22.7797 19.0344 -1.50941
295 1 23.8439 17.5737 0.189787 23.8439 17.5737 0.189787
296 2 25.9558 17.6054 1.63717 25.9558 17.6054 1.63717
297 2 25.5937 17.3937 -1.60143 25.5937 17.3937 -1.60143
298 1 26.6768 19.1234 -0.215666 26.6768 19.1234 -0.215666
299 2 28.5706 19.2328 1.33044 28.5706 19.2328 1.33044
300 2 28.4551 19.1152 -1.98012 28.4551 19.1152 -1.98012
301 1 29.5539 17.4869 -0.32263 29.5539 17.4869 -0.32263
302 2 31.3551 17.7372 1.53349 31.3551 17.7372 1.53349
303 2 31.6706 17.4811 -1.78211 31.6706 17.4811 -1.78211
304 1 32.3873 19.1968 -0.0867462 32.3873 19.1968 -0.0867462
305 2 34.0528 19.2307 1.67317 34.0528 19.2307 1.67317
306 2 34.4251 19.113 -1.55378 34.4251 19.113 -1.55378
307 1 35.1811 17.4594 0.209686 35.1811 17.4594 0.209686
308 2 37.1877 17.4911 1.77405 37.1877 17.4911 1.77405
309 2 37.1605 17.4151 -1.51654 37.1605 17.4151 -1.51654
310 1 38.0062 19.1574 0.0329943 38.0062 19.1574 0.0329943
311 2 39.8618 19.1584 1.66863 39.8618 19.1584 1.66863
312 2 39.9472 19.0296 -1.57716 39.9472 19.0296 -1.57716
313 1 40.9125 17.4917 0.174053 40.9125 17.4917 0.174053
314 2 42.7689 17.5526 1.93997 42.7689 17.5526 1.93997
315 2 42.8865 17.4891 -1.36803 42.8865 17.4891 -1.36803
316 1 43.8297 19.1641 0.175955 43.8297 19.1641 0.175955
317 2 45.7461 19.2261 1.81598 45.7461 19.2261 1.81598
318 2 45.7748 19.2236 -1.45047 45.7748 19.2236 -1.45047
319 1 46.6819 17.4967 0.235122 46.6819 17.4967 0.235122
320 2 48.5028 17.4593 1.88661 48.5028 17.4593 1.88661
321 2 48.6473 17.567 -1.29903 48.6473 17.567 -1.29903
322 1 49.493 19.1549 0.44574 49.493 19.1549 0.44574
323 2 51.3856 19.0987 2.03059 51.3856 19.0987 2.03059
324 2 51.3637 19.2257 -1.19794 51.3637 19.2257 -1.19794
325 1 1.04557 20.7848 0.50044 1.04557 20.7848 0.50044
326 2 3.07177 20.8758 2.08266 3.07177 20.8758 2.08266
327 2 2.91086 20.8094 -1.2516 2.91086 20.8094 -1.2516
328 1 3.86916 22.4796 0.349964 3.86916 22.4796 0.349964
329 2 5.59096 22.5861 2.14976 5.59096 22.5861 2.14976
330 2 5.92238 22.4185 -1.12923 5.92238 22.4185 -1.12923
331 1 6.71441 20.8871 0.69374 6.71441 20.8871 0.69374
332 2 8.69829 20.7667 2.21952 8.69829 20.7667 2.21952
333 2 8.59048 20.9376 -0.997333 8.59048 20.9376 -0.997333
334 1 9.63483 22.5057 0.559872 9.63483 22.5057 0.559872
335 2 11.5108 22.5847 2.11885 11.5108 22.5847 2.11885
336 2 11.4723 22.4501 -1.13578 11.4723 22.4501 -1.13578
337 1 12.5481 20.8838 0.444537 12.5481 20.8838 0.444537
338 2 14.3794 20.5339 2.04476 14.3794 20.5339 2.04476
339 2 14.4907 20.9405 -1.23848 14.4907 20.9405 -1.23848
340 1 15.3431 22.3414 0.501002 15.3431 22.3414 0.501002
341 2 17.3281 22.1759 1.99115 17.3281 22.1759 1.99115
342 2 17.1654 22.5828 -1.16099 17.1654 22.5828 -1.16099
343 1 18.2284 20.6555 0.2471 18.2284 20.6555 0.2471
344 2 20.149 20.895 1.82324 20.149 20.895 1.82324
345 2 20.1879 20.7291 -1.47444 20.1879 20.7291 -1.47444
346 1 21.0213 22.404 0.0296446 21.0213 22.404 0.0296446
347 2 22.9785 22.6042 1.50823 22.9785 22.6042 1.50823
348 2 22.7069 22.3333 -1.78181 22.7069 22.3333 -1.78181
349 1 23.856 20.8183 -0.0856453 23.856 20.8183 -0.0856453
350 2 25.7841 21.031 1.39366 25.7841 21.031 1.39366
351 2 25.6621 20.6703 -1.93327 25.6621 20.6703 -1.93327
352 1 26.6288 22.4629 -0.500997 26.6288 22.4629 -0.500997
353 2 28.3737 22.3577 1.21333 28.3737 22.3577 1.21333
354 2 28.7009 22.5546 -2.0201 28.7009 22.5546 -2.0201
355 1 29.5214 20.7594 -0.379335 29.5214 20.7594 -0.379335
356 2 31.3424 20.9273 1.40542 31.3424 20.9273 1.40542
357 2 31.4858 20.6947 -1.88376 31.4858 20.6947 -1.88376
358 1 32.455 22.4044 -0.344058 32.455 22.4044 -0.344058
359 2 34.1434 22.6222 1.4995 34.1434 22.6222 1.4995
360 2 34.4424 22.2361 -1.81691 34.4424 22.2361 -1.81691
361 1 35.2316 20.7786 0.103966 35.2316 20.7786 0.103966
362 2 37.174 20.8222 1.72944 37.174 20.8222 1.72944
363 2 37.1056 20.786 -1.58027 37.1056 20.786 -1.58027
364 1 37.9903 22.3938 0.0685501 37.9903 22.3938 0.0685501
365 2 39.9631 22.3092 1.69689 39.9631 22.3092 1.69689
366 2 40.029 22.3406 -1.5963 40.029 22.3406 -1.5963
367 1 40.9755 20.5947 -0.00976348 40.9755 20.5947 -0.00976348
368 2 42.775 20.8126 1.80776 42.775 20.8126 1.80776
369 2 42.996 20.806 -1.42588 42.996 20.806 -1.42588
370 1 43.8339 22.4273 0.192588 43.8339 22.4273 0.192588
371 2 45.6477 22.3514 1.90991 45.6477 22.3514 1.90991
372 2 45.7301 22.6993 -1.40917 45.7301 22.6993 -1.40917
373 1 46.7396 20.8755 0.131333 46.7396 20.8755 0.131333
374 2 48.5436 20.9048 1.89312 48.5436 20.9048 1.89312
375 2 48.7553 20.8095 -1.33236 48.7553 20.8095 -1.33236
376 1 49.5113 22.5545 0.403209 49.5113 22.5545 0.403209
377 2 51.3028 22.4322 2.12866 51.3028 22.4322 2.12866
378 2 51.4469 22.7151 -1.1288 51.4469 22.7151 -1.1288
379 1 1.10327 24.157 0.655595 1.10327 24.157 0.655595
380 2 3.08366 24.1223 2.0881 3.08366 24.1223 2.0881
381 2 2.85185 24.2112 -1.1595 2.85185 24.2112 -1.1595
382 1 4.00209 25.7249 0.422562 4.00209 25.7249 0.422562
383 2 5.84218 25.9023 2.16281 5.84218 25.9023 2.16281
384 2 6.06405 25.6751 -1.16122 6.06405 25.6751 -1.16122
385 1 6.7799 24.1062 0.601929 6.7799 24.1062 0.601929
386 2 8.70285 24.068 2.12586 8.70285 24.068 2.12586
387 2 8.72733 24.0347 -1.11469 8.72733 24.0347 -1.11469
388 1 9.59196 25.7728 0.432724 9.59196 25.7728 0.432724
389 2 11.5548 25.9893 2.07127 11.5548 25.9893 2.07127
390 2 11.5207 25.6154 -1.21419 11.5207 25.6154 -1.21419
391 1 12.3713 24.1403 0.538998 12.3713 24.1403 0.538998
392 2 14.3555 23.9798 2.18105 14.3555 23.9798 2.18105
393 2 14.3262 24.058 -1.11031 14.3262 24.058 -1.11031
394 1 15.3897 25.7146 0.569864 15.3897 25.7146 0.569864
395 2 17.4232 25.9171 2.09996 17.4232 25.9171 2.09996
396 2 17.1051 25.5348 -1.23968 17.1051 25.5348 -1.23968
397 1 18.2627 24.0246 0.499652 18.2627 24.0246 0.499652
398 2 20.3416 23.9328 1.87021 20.3416 23.9328 1.87021
399 2 19.883 24.2073 -1.39908 19.883 24.2073 -1.39908
400 1 21.1325 25.7706 0.228834 21.1325 25.7706 0.228834
401 2 23.2886 25.7004 1.52878 23.2886 25.7004 1.52878
402 2 22.6535 25.7731 -1.7391 22.6535 25.7731 -1.7391
403 1 23.8662 24.0331 -0.276447 23.8662 24.0331 -0.276447
404 2 25.849 24.0563 1.28866 25.849 24.0563 1.28866
405 2 25.5701 24.1686 -1.98645 25.5701 24.1686 -1.98645
406 1 26.723 25.6668 -0.409232 26.723 25.6668 -0.409232
407 2 28.5886 25.7355 1.18397 28.5886 25.7355 1.18397
408 2 28.6499 25.5514 -2.02394 28.6499 25.5514 -2.02394
409 1 29.5955 24.0726 -0.281563 29.5955 24.0726 -0.281563
410 2 31.5313 24.1212 1.24055 31.5313 24.1212 1.24055
411 2 31.3341 23.9729 -2.02584 31.3341 23.9729 -2.02584
412 1 32.4088 25.6013 -0.499549 32.4088 25.6013 -0.499549
413 2 34.1895 25.6791 1.33477 34.1895 25.6791 1.33477
414 2 34.4344 25.6969 -2.04016 34.4344 25.6969 -2.04016
415 1 35.2634 24.1087 -0.226418 35.2634 24.1087 -0.226418
416 2 37.0745 24.0917 1.52706 37.0745 24.0917 1.52706
417 2 37.245 24.0205 -1.71697 37.245 24.0205 -1.71697
418 1 38.1303 25.6681 -0.0754323 38.1303 25.6681 -0.0754323
419 2 39.921 25.6304 1.65119 39.921 25.6304 1.65119
420 2 40.0493 25.6306 -1.5989 40.0493 25.6306 -1.5989
421 1 40.8899 23.9887 0.0462814 40.8899 23.9887 0.0462814
422 2 42.6473 23.9422 1.77966 42.6473 23.9422 1.77966
423 2 42.9228 24.2083 -1.46107 42.9228 24.2083 -1.46107
424 1 43.7466 25.7216 0.322148 43.7466 25.7216 0.322148
425 2 45.5427 25.9441 1.97011 45.5427 25.9441 1.97011
426 2 45.7278 25.6442 -1.30015 45.7278 25.6442 -1.30015
427 1 46.6552 24.1733 0.472831 46.6552 24.1733 0.472831
428 2 48.4723 24.1263 2.11987 48.4723 24.1263 2.11987
429 2 48.5371 24.2036 -1.12695 48.5371 24.2036 -1.12695
430 1 49.5016 25.7414 0.515047 49.5016 25.7414 0.515047
431 2 51.3652 25.9664 2.22634 51.3652 25.9664 2.22634
432 2 51.4113 25.5984 -1.11444 51.4113 25.5984 -1.11444
433 1 1.11509 27.3527 0.357856 1.11509 27.3527 0.357856
434 2 3.01269 27.4028 2.0398 3.01269 27.4028 2.0398
435 2 3.11068 27.3125 -1.18055 3.11068 27.3125 -1.18055
436 1 3.94528 29.0441 0.553179 3.94528 29.0441 0.553179
437 2 5.9679 29.291 1.96754 5.9679 29.291 1.96754
438 2 5.66968 28.8827 -1.21314 5.66968 28.8827 -1.21314
439 1 6.77733 27.4212 0.473527 6.77733 27.4212 0.473527
440 2 8.79458 27.4731 2.02764 8.79458 27.4731 2.02764
441 2 8.60584 27.4504 -1.19794 8.60584 27.4504 -1.19794
442 1 9.56804 29.1363 0.327895 9.56804 29.1363 0.327895
443 2 11.5429 29.1545 1.83148 11.5429 29.1545 1.83148
444 2 11.3808 29.0548 -1.37586 11.3808 29.0548 -1.37586
445 1 12.4671 27.5005 0.218509 12.4671 27.5005 0.218509
446 2 14.3435 27.5894 1.98759 14.3435 27.5894 1.98759
447 2 14.5163 27.2178 -1.23473 14.5163 27.2178 -1.23473
448 1 15.2806 29.0589 0.248311 15.2806 29.0589 0.248311
449 2 17.284 29.1794 1.77022 17.284 29.1794 1.77022
450 2 17.0932 29.0837 -1.48528 17.0932 29.0837 -1.48528
451 1 18.2087 27.3875 0.193859 18.2087 27.3875 0.193859
452 2 20.1968 27.5664 1.72917 20.1968 27.5664 1.72917
453 2 20.0673 27.1562 -1.49467 20.0673 27.1562 -1.49467
454 1 21.0079 29.0193 -0.124416 21.0079 29.0193 -0.124416
455 2 22.9311 29.0614 1.42284 22.9311 29.0614 1.42284
456 2 22.8819 28.9576 -1.83476 22.8819 28.9576 -1.83476
457 1 23.8967 27.347 -0.248941 23.8967 27.347 -0.248941
458 2 25.9702 27.3577 1.34012 25.9702 27.3577 1.34012
459 2 25.6283 27.3038 -1.98295 25.6283 27.3038 -1.98295
460 1 26.6537 28.9946 -0.431334 26.6537 28.9946 -0.431334
461 2 28.574 29.042 1.21246 28.574 29.042 1.21246
462 2 28.605 28.9488 -2.10775 28.605 28.9488 -2.10775
463 1 29.4357 27.3217 -0.467188 29.4357 27.3217 -0.467188
464 2 31.4231 27.326 1.09108 31.4231 27.326 1.09108
465 2 31.4216 27.2435 -2.25594 31.4216 27.2435 -2.25594
466 1 32.3917 28.9255 -0.607563 32.3917 28.9255 -0.607563
467 2 34.1607 28.8983 1.19894 34.1607 28.8983 1.19894
468 2 34.483 28.9681 -1.98795 34.483 28.9681 -1.98795
469 1 35.1998 27.3631 -0.288996 35.1998 27.3631 -0.288996
470 2 36.9345 27.3977 1.49634 36.9345 27.3977 1.49634
471 2 37.2794 27.2251 -1.85902 37.2794 27.2251 -1.85902
472 1 38.1557 28.9627 -0.125373 38.1557 28.9627 -0.125373
473 2 39.8567 28.8868 1.64382 39.8567 28.8868 1.64382
474 2 40.1061 29.0266 -1.63877 40.1061 29.0266 -1.63877
475 1 40.9454 27.3024 0.0688599 40.9454 27.3024 0.0688599
476 2 42.7494 27.4999 1.8497 42.7494 27.4999 1.8497
477 2 42.8707 27.2388 -1.44966 42.8707 27.2388 -1.44966
478 1 43.7727 29.0688 0.0732114 43.7727 29.0688 0.0732114
479 2 45.7 29.2032 1.74493 45.7 29.2032 1.74493
480 2 45.6818 28.8765 -1.52741 45.6818 28.8765 -1.52741
481 1 46.5914 27.3912 0.228287 46.5914 27.3912 0.228287
482 2 48.4068 27.4063 1.96786 48.4068 27.4063 1.96786
483 2 48.5789 27.2539 -1.37756 48.5789 27.2539 -1.37756
484 1 49.4716 29.1057 0.170712 49.4716 29.1057 0.170712
485 2 51.2878 29.0837 1.90998 51.2878 29.0837 1.90998
486 2 51.4639 29.0275 -1.38648 51.4639 29.0275 -1.38648
487 1 1.10777 30.7268 0.26499 1.10777 30.7268 0.26499
488 2 3.07023 30.9297 1.77659 3.07023 30.9297 1.77659
489 2 2.98922 30.3034 -1.38319 2.98922 30.3034 -1.38319
490 1 4.04009 32.2266 -0.210693 4.04009 32.2266 -0.210693
491 2 5.70132 32.5103 1.56384 5.70132 32.5103 1.56384
492 2 5.97993 32.1776 -1.6933 5.97993 32.1776 -1.6933
493 1 6.80865 30.7015 0.207444 6.80865 30.7015 0.207444
494 2 8.6999 30.9253 1.82994 8.6999 30.9253 1.82994
495 2 8.72817 30.527 -1.46715 8.72817 30.527 -1.46715
496 1 9.68536 32.4189 0.0473525 9.68536 32.4189 0.0473525
497 2 11.5874 32.6546 1.63071 11.5874 32.6546 1.63071
498 2 11.7083 32.2376 -1.7004 11.7083 32.2376 -1.7004
499 1 12.4009 30.7762 0.135042 12.4009 30.7762 0.135042
500 2 14.4457 30.9189 1.5542 14.4457 30.9189 1.5542
501 2 14.1233 30.2684 -1.57878 14.1233 30.2684 -1.57878
502 1 15.393 32.2825 -0.474359 15.393 32.2825 -0.474359
503 2 17.1879 32.5079 1.2578 17.1879 32.5079 1.2578
504 2 17.3924 31.9188 -1.93861 17.3924 31.9188 -1.93861
505 1 18.2121 30.6854 -0.00221371 18.2121 30.6854 -0.00221371
506 2 20.3099 30.8616 1.39329 20.3099 30.8616 1.39329
507 2 19.9753 30.5704 -1.82042 19.9753 30.5704 -1.82042
508 1 20.9754 32.3814 -0.461478 20.9754 32.3814 -0.461478
509 2 22.7818 32.3594 1.18685 22.7818 32.3594 1.18685
510 2 22.9496 32.2502 -1.98995 22.9496 32.2502 -1.98995
511 1 23.8314 30.6679 -0.279294 23.8314 30.6679 -0.279294
512 2 25.7725 30.8179 1.22076 25.7725 30.8179 1.22076
513 2 25.5625 30.569 -2.02945 25.5625 30.569 -2.02945
514 1 26.6949 32.2854 -0.528538 26.6949 32.2854 -0.528538
515 2 28.5631 32.3423 1.15445 28.5631 32.3423 1.15445
516 2 28.5706 32.2563 -2.12926 28.5706 32.2563 -2.12926
517 1 29.5477 30.6263 -0.432875 29.5477 30.6263 -0.432875
518 2 31.4589 30.4257 1.20442 31.4589 30.4257 1.20442
519 2 31.4342 30.8481 -2.1204 31.4342 30.8481 -2.1204
520 1 32.385 32.2725 -0.17546 32.385 32.2725 -0.17546
521 2 34.321 32.2318 1.39579 34.321 32.2318 1.39579
522 2 34.2303 32.2162 -1.83339 34.2303 32.2162 -1.83339
523 1 35.2772 30.6133 -0.260591 35.2772 30.6133 -0.260591
524 2 37.1444 30.7713 1.35131 37.1444 30.7713 1.35131
525 2 37.1677 30.5246 -1.91153 37.1677 30.5246 -1.91153
526 1 38.0761 32.2474 -0.299459 38.0761 32.2474 -0.299459
527 2 39.7824 32.4128 1.51098 39.7824 32.4128 1.51098
528 2 40.1808 32.1473 -1.72629 40.1808 32.1473 -1.72629
529 1 40.899 30.6997 0.0864986 40.899 30.6997 0.0864986
530 2 42.7337 30.7477 1.69438 42.7337 30.7477 1.69438
531 2 42.7927 30.5804 -1.60317 42.7927 30.5804 -1.60317
532 1 43.7113 32.3501 0.0150941 43.7113 32.3501 0.0150941
533 2 45.7968 32.5843 1.53684 45.7968 32.5843 1.53684
534 2 45.5315 32.1125 -1.73368 45.5315 32.1125 -1.73368
535 1 46.649 30.6875 0.0433615 46.649 30.6875 0.0433615
536 2 48.4552 30.8068 1.68866 48.4552 30.8068 1.68866
537 2 48.6049 30.5377 -1.55315 48.6049 30.5377 -1.55315
538 1 49.4575 32.3031 -0.0128774 49.4575 32.3031 -0.0128774
539 2 51.3283 32.494 1.69465 51.3283 32.494 1.69465
540 2 51.4084 32.0975 -1.59526 51.4084 32.0975 -1.59526