ITEM: TIMESTEP
83800
ITEM: NUMBER OF ATOMS
810
ITEM: BOX BOUNDS pp pp pp
7.6151432199801838e-01 5.2256090678002408e+01
8.3092062248954646e-01 5.0185294377509621e+01
-1.0000000000000000e+01 1.0000000000000000e+01
ITEM: ATOMS id type x y z xu yu zu
1 1 0.924037 1.13445 0.609481 0.924037 1.13445 0.609481
2 2 2.78539 1.28631 2.19595 2.78539 1.28631 2.19595
3 2 2.73922 0.870268 -1.09003 2.73922 0.870268 -1.09003
4 1 3.75177 2.71116 0.253894 3.75177 2.71116 0.253894
5 2 5.72961 2.78515 1.83936 5.72961 2.78515 1.83936
6 2 5.58071 2.61201 -1.40698 5.58071 2.61201 -1.40698
7 1 6.69061 1.11649 0.338515 6.69061 1.11649 0.338515
8 2 8.71434 1.1467 1.95135 8.71434 1.1467 1.95135
9 2 8.68106 50.5957 -1.36674 8.68106 1.24137 -1.36674
10 1 9.58434 2.73122 0.224336 9.58434 2.73122 0.224336
11 2 11.6623 2.85993 1.58912 11.6623 2.85993 1.58912
12 2 11.3671 2.6643 -1.61123 11.3671 2.6643 -1.61123
13 1 12.4764 1.13248 0.0549566 12.4764 1.13248 0.0549566
14 2 14.4135 1.17001 1.59026 14.4135 1.17001 1.59026
15 2 14.3301 50.4365 -1.67821 14.3301 1.08214 -1.67821
16 1 15.2544 2.74416 -0.0556363 15.2544 2.74416 -0.0556363
17 2 17.1313 2.86855 1.55234 17.1313 2.86855 1.55234
18 2 17.266 2.60345 -1.65503 17.266 2.60345 -1.65503
19 1 18.1594 1.0265 0.115996 18.1594 1.0265 0.115996
20 2 20.1497 0.996141 1.52873 20.1497 0.996141 1.52873
21 2 19.8375 0.974067 -1.63718 19.8375 0.974067 -1.63718
22 1 20.9093 2.64766 -0.116483 20.9093 2.64766 -0.116483
23 2 22.8783 2.7729 1.58916 22.8783 2.7729 1.58916
24 2 22.912 2.60307 -1.6156 22.912 2.60307 -1.6156
25 1 23.9074 1.04139 0.130529 23.9074 1.04139 0.130529
26 2 25.8881 50.4416 1.63726 25.8881 1.08722 1.63726
27 2 25.7673 0.87836 -1.60387 25.7673 0.87836 -1.60387
28 1 26.749 2.55883 -0.114371 26.749 2.55883 -0.114371
29 2 28.5799 2.65703 1.49288 28.5799 2.65703 1.49288
30 2 28.7381 2.6612 -1.64502 28.7381 2.6612 -1.64502
31 1 29.5895 0.997537 -0.0143369 29.5895 0.997537 -0.0143369
32 2 31.5561 1.01026 1.75014 31.5561 1.01026 1.75014
33 2 31.451 1.25724 -1.54937 31.451 1.25724 -1.54937
34 1 32.4672 2.70585 0.26298 32.4672 2.70585 0.26298
35 2 34.399 2.80226 1.82254 34.399 2.80226 1.82254
36 2 34.3515 2.57 -1.37966 34.3515 2.57 -1.37966
37 1 35.3916 1.07373 0.31851 35.3916 1.07373 0.31851
38 2 37.4702 1.07108 1.79307 37.4702 1.07108 1.79307
39 2 37.2395 0.977671 -1.47692 37.2395 0.977671 -1.47692
40 1 38.1794 2.74709 0.17764 38.1794 2.74709 0.17764
41 2 40.2322 2.89297 1.75821 40.2322 2.89297 1.75821
42 2 40.0105 2.60509 -1.50561 40.0105 2.60509 -1.50561
43 1 41.007 1.09823 0.165314 41.007 1.09823 0.165314
44 2 42.9248 1.29639 1.74177 42.9248 1.29639 1.74177
45 2 42.8908 0.884583 -1.49252 42.8908 0.884583 -1.49252
46 1 43.9265 2.71406 -0.066321 43.9265 2.71406 -0.066321
47 2 45.7891 2.87477 1.66755 45.7891 2.87477 1.66755
48 2 45.8921 2.48429 -1.53155 45.8921 2.48429 -1.53155
49 1 46.8122 1.06745 0.27477 46.8122 1.06745 0.27477
50 2 48.5051 1.24831 2.12678 48.5051 1.24831 2.12678
51 2 48.854 0.803198 -1.08922 48.854 0.803198 -1.08922
52 1 49.5916 2.79691 0.294156 49.5916 2.79691 0.294156
53 2 51.4408 2.93045 1.95125 51.4408 2.93045 1.95125
54 2 51.5277 2.56092 -1.33721 51.5277 2.56092 -1.33721
55 1 0.955262 4.30753 0.154793 0.955262 4.30753 0.154793
56 2 2.90314 4.51019 1.80779 2.90314 4.51019 1.80779
57 2 2.87956 4.26348 -1.52197 2.87956 4.26348 -1.52197
58 1 3.76858 6.04279 -0.0151374 3.76858 6.04279 -0.0151374
59 2 5.83144 6.2791 1.3793 5.83144 6.2791 1.3793
60 2 5.61625 5.69849 -1.76408 5.61625 5.69849 -1.76408
61 1 6.62483 4.38196 0.0383966 6.62483 4.38196 0.0383966
62 2 8.59892 4.62579 1.71475 8.59892 4.62579 1.71475
63 2 8.48267 4.18375 -1.57553 8.48267 4.18375 -1.57553
64 1 9.47968 5.9386 -0.129289 9.47968 5.9386 -0.129289
65 2 11.5837 6.16765 1.29034 11.5837 6.16765 1.29034
66 2 11.2344 5.73844 -1.9341 11.2344 5.73844 -1.9341
67 1 12.3574 4.38999 -0.185717 12.3574 4.38999 -0.185717
68 2 14.3438 4.5843 1.39627 14.3438 4.5843 1.39627
69 2 14.2349 4.19744 -1.83977 14.2349 4.19744 -1.83977
70 1 15.2368 6.08932 -0.451917 15.2368 6.08932 -0.451917
71 2 17.0887 6.1971 1.19747 17.0887 6.1971 1.19747
72 2 17.206 5.94993 -1.95816 17.206 5.94993 -1.95816
73 1 18.0409 4.34927 -0.275421 18.0409 4.34927 -0.275421
74 2 19.8819 4.33802 1.49993 19.8819 4.33802 1.49993
75 2 20.0795 4.32729 -1.75073 20.0795 4.32729 -1.75073
76 1 21.0619 5.92331 -0.130403 21.0619 5.92331 -0.130403
77 2 22.7963 6.13826 1.58563 22.7963 6.13826 1.58563
78 2 23.0742 6.00573 -1.73799 23.0742 6.00573 -1.73799
79 1 23.8763 4.3797 -0.075478 23.8763 4.3797 -0.075478
80 2 25.8871 4.1899 1.61806 25.8871 4.1899 1.61806
81 2 25.8624 4.38252 -1.62707 25.8624 4.38252 -1.62707
82 1 26.8033 6.01522 0.00485561 26.8033 6.01522 0.00485561
83 2 28.8112 5.99702 1.62506 28.8112 5.99702 1.62506
84 2 28.5403 5.90431 -1.68793 28.5403 5.90431 -1.68793
85 1 29.6326 4.34583 -0.0482062 29.6326 4.34583 -0.0482062
86 2 31.3917 4.41709 1.78631 31.3917 4.41709 1.78631
87 2 31.6141 4.29673 -1.49575 31.6141 4.29673 -1.49575
88 1 32.5146 5.99468 0.0754774 32.5146 5.99468 0.0754774
89 2 34.4964 6.10323 1.66881 34.4964 6.10323 1.66881
90 2 34.2063 5.8943 -1.71333 34.2063 5.8943 -1.71333
91 1 35.3008 4.32765 0.102884 35.3008 4.32765 0.102884
92 2 37.2767 4.42822 1.69461 37.2767 4.42822 1.69461
93 2 37.1631 4.12545 -1.62967 37.1631 4.12545 -1.62967
94 1 38.0712 5.9865 -0.211581 38.0712 5.9865 -0.211581
95 2 40.0347 6.12088 1.49718 40.0347 6.12088 1.49718
96 2 40.065 5.86774 -1.81878 40.065 5.86774 -1.81878
97 1 41.0158 4.33736 0.00639119 41.0158 4.33736 0.00639119
98 2 43.0127 4.35334 1.52241 43.0127 4.35334 1.52241
99 2 42.9078 4.33016 -1.74825 42.9078 4.33016 -1.74825
100 1 43.9543 5.93568 -0.123232 43.9543 5.93568 -0.123232
101 2 45.8445 6.02945 1.44645 45.8445 6.02945 1.44645
102 2 45.8838 5.96704 -1.7877 45.8838 5.96704 -1.7877
103 1 46.7983 4.33739 -0.099569 46.7983 4.33739 -0.099569
104 2 48.5385 4.66469 1.60109 48.5385 4.66469 1.60109
105 2 48.7747 4.08408 -1.66273 48.7747 4.08408 -1.66273
106 1 49.6366 5.94664 -0.221085 49.6366 5.94664 -0.221085
107 2 51.3597 6.08135 1.55653 51.3597 6.08135 1.55653
108 2 51.7156 5.75238 -1.66234 51.7156 5.75238 -1.66234
109 1 0.910154 7.55789 -0.124067 0.910154 7.55789 -0.124067
110 2 2.78488 7.73523 1.51921 2.78488 7.73523 1.51921
111 2 2.80334 7.58616 -1.71971 2.80334 7.58616 -1.71971
112 1 3.80128 9.27172 -0.161899 3.80128 9.27172 -0.161899
113 2 5.8716 9.33314 1.11461 5.8716 9.33314 1.11461
114 2 5.47267 9.00857 -2.18594 5.47267 9.00857 -2.18594
115 1 6.6343 7.56336 -0.520963 6.6343 7.56336 -0.520963
116 2 8.55598 7.92039 1.10573 8.55598 7.92039 1.10573
117 2 8.53309 7.21122 -2.09745 8.53309 7.21122 -2.09745
118 1 9.52215 9.13052 -0.829564 9.52215 9.13052 -0.829564
119 2 11.4131 9.32154 0.795015 11.4131 9.32154 0.795015
120 2 11.4558 9.04353 -2.41688 11.4558 9.04353 -2.41688
121 1 12.3741 7.56345 -0.644044 12.3741 7.56345 -0.644044
122 2 14.3093 7.72195 1.07113 14.3093 7.72195 1.07113
123 2 14.3542 7.44585 -2.20949 14.3542 7.44585 -2.20949
124 1 15.2668 9.32111 -0.677972 15.2668 9.32111 -0.677972
125 2 17.1073 9.43162 0.947415 17.1073 9.43162 0.947415
126 2 17.2726 9.15993 -2.18747 17.2726 9.15993 -2.18747
127 1 18.2252 7.61443 -0.520143 18.2252 7.61443 -0.520143
128 2 19.8902 7.67275 1.24046 19.8902 7.67275 1.24046
129 2 20.1915 7.5243 -1.97899 20.1915 7.5243 -1.97899
130 1 20.9853 9.30539 -0.383776 20.9853 9.30539 -0.383776
131 2 22.6447 9.29704 1.50838 22.6447 9.29704 1.50838
132 2 23.0156 9.32605 -1.70467 23.0156 9.32605 -1.70467
133 1 23.9086 7.65536 0.0408357 23.9086 7.65536 0.0408357
134 2 25.8598 7.72001 1.5824 25.8598 7.72001 1.5824
135 2 25.7789 7.6301 -1.76172 25.7789 7.6301 -1.76172
136 1 26.7115 9.31981 -0.199883 26.7115 9.31981 -0.199883
137 2 28.5586 9.29126 1.50127 28.5586 9.29126 1.50127
138 2 28.6454 9.33218 -1.78509 28.6454 9.33218 -1.78509
139 1 29.5891 7.68038 -0.189516 29.5891 7.68038 -0.189516
140 2 31.4787 7.7719 1.48788 31.4787 7.7719 1.48788
141 2 31.5545 7.43301 -1.7566 31.5545 7.43301 -1.7566
142 1 32.4456 9.31052 -0.348506 32.4456 9.31052 -0.348506
143 2 34.2693 9.35566 1.35808 34.2693 9.35566 1.35808
144 2 34.4558 9.16847 -1.93294 34.4558 9.16847 -1.93294
145 1 35.2902 7.67715 -0.160338 35.2902 7.67715 -0.160338
146 2 37.2197 7.68779 1.38558 37.2197 7.68779 1.38558
147 2 37.1708 7.51044 -1.87517 37.1708 7.51044 -1.87517
148 1 38.1767 9.29236 -0.264715 38.1767 9.29236 -0.264715
149 2 40.0287 9.30411 1.38352 40.0287 9.30411 1.38352
150 2 40.2054 9.09212 -1.86006 40.2054 9.09212 -1.86006
151 1 41.0442 7.56874 -0.211556 41.0442 7.56874 -0.211556
152 2 42.967 7.73228 1.38538 42.967 7.73228 1.38538
153 2 42.9991 7.45103 -1.93256 42.9991 7.45103 -1.93256
154 1 43.9129 9.28458 -0.328894 43.9129 9.28458 -0.328894
155 2 45.8826 9.49432 1.31889 45.8826 9.49432 1.31889
156 2 45.7994 9.03896 -1.87263 45.7994 9.03896 -1.87263
157 1 46.7562 7.61262 -0.103938 46.7562 7.61262 -0.103938
158 2 48.7247 7.6341 1.40748 48.7247 7.6341 1.40748
159 2 48.6715 7.41328 -1.85423 48.6715 7.41328 -1.85423
160 1 49.5819 9.22278 -0.3111 49.5819 9.22278 -0.3111
161 2 51.5478 9.44575 1.22263 51.5478 9.44575 1.22263
162 2 51.4417 9.03464 -1.93517 51.4417 9.03464 -1.93517
163 1 1.00541 10.8847 -0.539422 1.00541 10.8847 -0.539422
164 2 2.83618 11.1268 1.16787 2.83618 11.1268 1.16787
165 2 2.93774 10.5792 -2.05468 2.93774 10.5792 -2.05468
166 1 3.9062 12.4499 -0.619618 3.9062 12.4499 -0.619618
167 2 5.99789 12.4459 0.775058 5.99789 12.4459 0.775058
168 2 5.55034 12.3183 -2.44925 5.55034 12.3183 -2.44925
169 1 6.74677 10.8428 -0.862379 6.74677 10.8428 -0.862379
170 2 8.79308 11.0363 0.642346 8.79308 11.0363 0.642346
171 2 8.53744 10.6312 -2.60178 8.53744 10.6312 -2.60178
172 1 9.52385 12.4804 -1.28091 9.52385 12.4804 -1.28091
173 2 11.3881 12.6035 0.55787 11.3881 12.6035 0.55787
174 2 11.6512 12.4151 -2.69711 11.6512 12.4151 -2.69711
175 1 12.3895 10.865 -0.9266 12.3895 10.865 -0.9266
176 2 14.2296 11.1212 0.795808 14.2296 11.1212 0.795808
177 2 14.4725 10.83 -2.45202 14.4725 10.83 -2.45202
178 1 15.2787 12.5715 -0.940368 15.2787 12.5715 -0.940368
179 2 17.0221 12.5963 0.832207 17.0221 12.5963 0.832207
180 2 17.3611 12.5135 -2.36874 17.3611 12.5135 -2.36874
181 1 18.1758 10.9085 -0.652152 18.1758 10.9085 -0.652152
182 2 19.8688 10.8267 1.13429 19.8688 10.8267 1.13429
183 2 20.2072 10.9093 -2.09755 20.2072 10.9093 -2.09755
184 1 20.9749 12.5096 -0.247851 20.9749 12.5096 -0.247851
185 2 22.7324 12.6544 1.40739 22.7324 12.6544 1.40739
186 2 22.9006 12.3104 -1.77769 22.9006 12.3104 -1.77769
187 1 23.8544 10.8687 0.0318931 23.8544 10.8687 0.0318931
188 2 25.8244 11.1037 1.53725 25.8244 11.1037 1.53725
189 2 25.5862 10.8753 -1.70628 25.5862 10.8753 -1.70628
190 1 26.7197 12.6024 -0.17651 26.7197 12.6024 -0.17651
191 2 28.7454 12.7226 1.41475 28.7454 12.7226 1.41475
192 2 28.634 12.4735 -1.80856 28.634 12.4735 -1.80856
193 1 29.6296 10.9676 -0.116789 29.6296 10.9676 -0.116789
194 2 31.6687 11.0367 1.34163 31.6687 11.0367 1.34163
195 2 31.397 10.9528 -1.90573 31.397 10.9528 -1.90573
196 1 32.4884 12.69 -0.414094 32.4884 12.69 -0.414094
197 2 34.221 12.6704 1.33471 34.221 12.6704 1.33471
198 2 34.3432 12.5202 -2.044 34.3432 12.5202 -2.044
199 1 35.2448 10.9469 -0.326734 35.2448 10.9469 -0.326734
200 2 37.2225 10.8678 1.31935 37.2225 10.8678 1.31935
201 2 37.1986 10.7969 -1.99715 37.1986 10.7969 -1.99715
202 1 38.2251 12.4768 -0.499442 38.2251 12.4768 -0.499442
203 2 40.0295 12.5106 1.27806 40.0295 12.5106 1.27806
204 2 40.1543 12.4611 -1.99469 40.1543 12.4611 -1.99469
205 1 41.0717 10.8913 -0.301321 41.0717 10.8913 -0.301321
206 2 43.1348 11.0444 1.20563 43.1348 11.0444 1.20563
207 2 42.8589 10.8414 -2.15417 42.8589 10.8414 -2.15417
208 1 43.8145 12.5365 -0.680662 43.8145 12.5365 -0.680662
209 2 45.6712 12.7541 0.931267 45.6712 12.7541 0.931267
210 2 45.7481 12.3764 -2.28721 45.7481 12.3764 -2.28721
211 1 46.7386 10.9676 -0.484179 46.7386 10.9676 -0.484179
212 2 48.7761 11.1634 1.07062 48.7761 11.1634 1.07062
213 2 48.5281 10.5711 -2.25409 48.5281 10.5711 -2.25409
214 1 49.6045 12.4663 -0.87991 49.6045 12.4663 -0.87991
215 2 51.4109 12.5829 0.842499 51.4109 12.5829 0.842499
216 2 51.5746 12.3627 -2.39254 51.5746 12.3627 -2.39254
217 1 0.932801 14.108 -0.808374 0.932801 14.108 -0.808374
218 2 2.86981 14.2903 0.805152 2.86981 14.2903 0.805152
219 2 2.97994 13.9028 -2.41898 2.97994 13.9028 -2.41898
220 1 3.69457 15.7267 -0.980929 3.69457 15.7267 -0.980929
221 2 5.86804 15.7926 0.562498 5.86804 15.7926 0.562498
222 2 5.69775 15.814 -2.63376 5.69775 15.814 -2.63376
223 1 6.68956 14.1564 -1.00289 6.68956 14.1564 -1.00289
224 2 8.65767 14.061 0.460119 8.65767 14.061 0.460119
225 2 8.41719 14.0757 -2.76443 8.41719 14.0757 -2.76443
226 1 9.58202 15.7244 -1.304 9.58202 15.7244 -1.304
227 2 11.3795 15.7333 0.446224 11.3795 15.7333 0.446224
228 2 11.4621 15.6752 -2.84658 11.4621 15.6752 -2.84658
229 1 12.4013 14.2031 -1.06915 12.4013 14.2031 -1.06915
230 2 14.141 14.1081 0.693825 14.141 14.1081 0.693825
231 2 14.3171 14.2393 -2.5621 14.3171 14.2393 -2.5621
232 1 15.277 15.8952 -0.85802 15.277 15.8952 -0.85802
233 2 17.1467 16.0042 0.836379 17.1467 16.0042 0.836379
234 2 17.156 15.8468 -2.53105 17.156 15.8468 -2.53105
235 1 18.1224 14.1964 -0.707471 18.1224 14.1964 -0.707471
236 2 19.8518 14.4978 1.10883 19.8518 14.4978 1.10883
237 2 20.1527 13.9276 -2.19682 20.1527 13.9276 -2.19682
238 1 20.9066 15.791 -0.628639 20.9066 15.791 -0.628639
239 2 22.824 15.9592 1.03213 22.824 15.9592 1.03213
240 2 22.9286 15.5924 -2.09042 22.9286 15.5924 -2.09042
241 1 23.8502 14.1643 -0.311647 23.8502 14.1643 -0.311647
242 2 25.712 14.3546 1.41587 25.712 14.3546 1.41587
243 2 25.7491 14.1654 -1.89452 25.7491 14.1654 -1.89452
244 1 26.7886 15.9559 -0.278157 26.7886 15.9559 -0.278157
245 2 28.5602 15.8425 1.3803 28.5602 15.8425 1.3803
246 2 28.7555 15.8945 -1.92947 28.7555 15.8945 -1.92947
247 1 29.6601 14.2943 -0.329342 29.6601 14.2943 -0.329342
248 2 31.5656 14.0943 1.31389 31.5656 14.0943 1.31389
249 2 31.6018 14.4912 -1.84675 31.6018 14.4912 -1.84675
250 1 32.5552 15.8222 0.0493381 32.5552 15.8222 0.0493381
251 2 34.6323 15.7124 1.36872 34.6323 15.7124 1.36872
252 2 34.2359 15.8027 -1.93982 34.2359 15.8027 -1.93982
253 1 35.3286 14.1434 -0.443563 35.3286 14.1434 -0.443563
254 2 37.3343 14.0222 1.13649 37.3343 14.0222 1.13649
255 2 37.3058 14.2216 -1.98472 37.3058 14.2216 -1.98472
256 1 38.1811 15.835 -0.315975 38.1811 15.835 -0.315975
257 2 40.0095 15.7772 1.35645 40.0095 15.7772 1.35645
258 2 40.1827 15.9737 -1.86661 40.1827 15.9737 -1.86661
259 1 40.9896 14.1925 -0.367954 40.9896 14.1925 -0.367954
260 2 42.9899 14.125 1.09209 42.9899 14.125 1.09209
261 2 42.651 14.1697 -2.12074 42.651 14.1697 -2.12074
262 1 43.8498 15.7925 -0.464791 43.8498 15.7925 -0.464791
263 2 45.9094 15.812 0.913572 45.9094 15.812 0.913572
264 2 45.4727 15.8689 -2.36738 45.4727 15.8689 -2.36738
265 1 46.7209 14.1822 -0.940153 46.7209 14.1822 -0.940153
266 2 48.6365 14.1837 0.634267 48.6365 14.1837 0.634267
267 2 48.6825 14.2683 -2.57097 48.6825 14.2683 -2.57097
268 1 49.5794 15.9233 -0.921138 49.5794 15.9233 -0.921138
269 2 51.3223 15.7516 0.720488 51.3223 15.7516 0.720488
270 2 51.5137 15.8311 -2.4216 51.5137 15.8311 -2.4216
271 1 0.933167 17.513 -0.763131 0.933167 17.513 -0.763131
272 2 2.8878 17.4902 0.725945 2.8878 17.4902 0.725945
273 2 2.80911 17.5733 -2.49536 2.80911 17.5733 -2.49536
274 1 3.72089 19.1032 -0.881142 3.72089 19.1032 -0.881142
275 2 5.86858 19.0196 0.608123 5.86858 19.0196 0.608123
276 2 5.66885 19.1118 -2.60115 5.66885 19.1118 -2.60115
277 1 6.70787 17.4429 -1.07995 6.70787 17.4429 -1.07995
278 2 8.5812 17.1536 0.507051 8.5812 17.1536 0.507051
279 2 8.4865 17.5032 -2.78393 8.4865 17.5032 -2.78393
280 1 9.48391 19.0765 -1.00576 9.48391 19.0765 -1.00576
281 2 11.409 19.1007 0.590619 11.409 19.1007 0.590619
282 2 11.4785 19.225 -2.62154 11.4785 19.225 -2.62154
283 1 12.347 17.3706 -1.18312 12.347 17.3706 -1.18312
284 2 13.9801 17.3801 0.758175 13.9801 17.3801 0.758175
285 2 14.438 17.508 -2.53949 14.438 17.508 -2.53949
286 1 15.1904 19.1243 -0.732668 15.1904 19.1243 -0.732668
287 2 17.1833 19.1541 0.841628 17.1833 19.1541 0.841628
288 2 17.092 19.11 -2.42358 17.092 19.11 -2.42358
289 1 18.0859 17.5675 -0.897314 18.0859 17.5675 -0.897314
290 2 19.8563 17.5393 0.868143 19.8563 17.5393 0.868143
291 2 20.0608 17.4146 -2.43607 20.0608 17.4146 -2.43607
292 1 20.9228 19.1288 -0.764094 20.9228 19.1288 -0.764094
293 2 22.7754 19.2793 0.826493 22.7754 19.2793 0.826493
294 2 22.9032 18.8998 -2.32708 22.9032 18.8998 -2.32708
295 1 23.8435 17.4666 -0.614141 23.8435 17.4666 -0.614141
296 2 25.7019 17.6462 1.20332 25.7019 17.6462 1.20332
297 2 25.7827 17.3381 -2.26925 25.7827 17.3381 -2.26925
298 1 26.6641 19.1306 -0.754101 26.6641 19.1306 -0.754101
299 2 28.3359 19.1045 1.14045 28.3359 19.1045 1.14045
300 2 28.8155 19.1271 -2.03655 28.8155 19.1271 -2.03655
301 1 29.6675 17.5164 -0.204352 29.6675 17.5164 -0.204352
302 2 31.4138 17.5295 1.56075 31.4138 17.5295 1.56075
303 2 31.5851 17.3863 -1.75719 31.5851 17.3863 -1.75719
304 1 32.3379 19.1292 -0.0957889 32.3379 19.1292 -0.0957889
305 2 34.3373 18.8872 1.45166 34.3373 18.8872 1.45166
306 2 34.3409 19.4023 -1.70558 34.3409 19.4023 -1.70558
307 1 35.2543 17.4394 -0.269743 35.2543 17.4394 -0.269743
308 2 37.1786 17.2119 1.44504 37.1786 17.2119 1.44504
309 2 37.2049 17.5374 -1.83338 37.2049 17.5374 -1.83338
310 1 38.1472 19.0462 -0.0200843 38.1472 19.0462 -0.0200843
311 2 39.9817 18.9801 1.55894 39.9817 18.9801 1.55894
312 2 39.8876 19.0506 -1.69343 39.8876 19.0506 -1.69343
313 1 41.0429 17.4557 -0.132387 41.0429 17.4557 -0.132387
314 2 43.1531 17.4757 1.23304 43.1531 17.4757 1.23304
315 2 42.6841 17.483 -1.96834 42.6841 17.483 -1.96834
316 1 43.8348 19.1727 -0.536643 43.8348 19.1727 -0.536643
317 2 45.8485 19.1925 1.03245 45.8485 19.1925 1.03245
318 2 45.7572 19.304 -2.21516 45.7572 19.304 -2.21516
319 1 46.7062 17.4386 -0.735585 46.7062 17.4386 -0.735585
320 2 48.707 17.5331 0.778732 48.707 17.5331 0.778732
321 2 48.5553 17.5242 -2.46427 48.5553 17.5242 -2.46427
322 1 49.6123 19.1645 -0.867614 49.6123 19.1645 -0.867614
323 2 51.5192 19.2995 0.626048 51.5192 19.2995 0.626048
324 2 51.392 18.8884 -2.55035 51.392 18.8884 -2.55035
325 1 0.970438 20.817 -1.09067 0.970438 20.817 -1.09067
326 2 2.90016 20.9838 0.628647 2.90016 20.9838 0.628647
327 2 3.00678 20.6994 -2.67586 3.00678 20.6994 -2.67586
328 1 3.82601 22.4364 -1.1268 3.82601 22.4364 -1.1268
329 2 5.70612 22.3508 0.612639 5.70612 22.3508 0.612639
330 2 5.86951 22.4516 -2.58484 5.86951 22.4516 -2.58484
331 1 6.70263 20.6818 -0.986249 6.70263 20.6818 -0.986249
332 2 8.54862 20.7203 0.621701 8.54862 20.7203 0.621701
333 2 8.61091 20.7883 -2.57361 8.61091 20.7883 -2.57361
334 1 9.49181 22.4254 -0.911634 9.49181 22.4254 -0.911634
335 2 11.3605 22.387 0.76394 11.3605 22.387 0.76394
336 2 11.3597 22.4067 -2.56939 11.3597 22.4067 -2.56939
337 1 12.3553 20.7777 -0.863346 12.3553 20.7777 -0.863346
338 2 14.1998 20.8685 0.838717 14.1998 20.8685 0.838717
339 2 14.285 20.671 -2.49113 14.285 20.671 -2.49113
340 1 15.178 22.4236 -0.84605 15.178 22.4236 -0.84605
341 2 17.0265 22.4032 0.985976 17.0265 22.4032 0.985976
342 2 17.2165 22.5232 -2.20816 17.2165 22.5232 -2.20816
343 1 18.0769 20.7863 -0.712794 18.0769 20.7863 -0.712794
344 2 19.8991 20.7471 0.892607 19.8991 20.7471 0.892607
345 2 19.9753 20.8904 -2.27543 19.9753 20.8904 -2.27543
346 1 20.9305 22.466 -0.713952 20.9305 22.466 -0.713952
347 2 22.9688 22.4123 0.859605 22.9688 22.4123 0.859605
348 2 22.8639 22.3355 -2.39204 22.8639 22.3355 -2.39204
349 1 23.7945 20.7815 -0.841836 23.7945 20.7815 -0.841836
350 2 25.6787 20.7881 0.818453 25.6787 20.7881 0.818453
351 2 25.7758 20.7562 -2.3906 25.7758 20.7562 -2.3906
352 1 26.7179 22.4734 -0.7755 26.7179 22.4734 -0.7755
353 2 28.2361 22.2876 1.19846 28.2361 22.2876 1.19846
354 2 28.9062 22.5401 -2.01004 28.9062 22.5401 -2.01004
355 1 29.5344 20.8202 -0.36192 29.5344 20.8202 -0.36192
356 2 31.1458 20.6772 1.46656 31.1458 20.6772 1.46656
357 2 31.75 20.9285 -1.81846 31.75 20.9285 -1.81846
358 1 32.4723 22.4431 0.0463138 32.4723 22.4431 0.0463138
359 2 34.2513 22.3956 1.74978 34.2513 22.3956 1.74978
360 2 34.5038 22.3945 -1.42478 34.5038 22.3945 -1.42478
361 1 35.321 20.7086 0.133487 35.321 20.7086 0.133487
362 2 37.1901 20.6406 1.66174 37.1901 20.6406 1.66174
363 2 37.1665 20.892 -1.57195 37.1665 20.892 -1.57195
364 1 38.1008 22.4361 0.138624 38.1008 22.4361 0.138624
365 2 39.9845 22.1975 1.75799 39.9845 22.1975 1.75799
366 2 40.041 22.5357 -1.66655 40.041 22.5357 -1.66655
367 1 40.9488 20.7226 -0.0904158 40.9488 20.7226 -0.0904158
368 2 43.0735 20.826 1.19456 43.0735 20.826 1.19456
369 2 42.6453 20.752 -1.96761 42.6453 20.752 -1.96761
370 1 43.8823 22.4569 -0.437409 43.8823 22.4569 -0.437409
371 2 45.8945 22.2039 1.16314 45.8945 22.2039 1.16314
372 2 45.8618 22.6329 -2.03563 45.8618 22.6329 -2.03563
373 1 46.821 20.8341 -0.68479 46.821 20.8341 -0.68479
374 2 48.8182 20.7324 0.935746 48.8182 20.7324 0.935746
375 2 48.6785 20.9135 -2.41224 48.6785 20.9135 -2.41224
376 1 49.6278 22.5661 -0.677775 49.6278 22.5661 -0.677775
377 2 51.7304 22.3483 0.687341 51.7304 22.3483 0.687341
378 2 51.3411 22.5884 -2.53566 51.3411 22.5884 -2.53566
379 1 1.08022 24.0725 -0.919693 1.08022 24.0725 -0.919693
380 2 2.98179 23.9338 0.722259 2.98179 23.9338 0.722259
381 2 3.0212 24.3686 -2.51286 3.0212 24.3686 -2.51286
382 1 3.88908 25.7602 -0.660461 3.88908 25.7602 -0.660461
383 2 5.74832 25.5056 0.938566 5.74832 25.5056 0.938566
384 2 5.69567 25.9175 -2.31456 5.69567 25.9175 -2.31456
385 1 6.68295 24.1159 -0.87168 6.68295 24.1159 -0.87168
386 2 8.48412 23.976 0.800662 8.48412 23.976 0.800662
387 2 8.66937 24.191 -2.40848 8.66937 24.191 -2.40848
388 1 9.54171 25.7059 -0.604715 9.54171 25.7059 -0.604715
389 2 11.5143 25.7712 0.774636 11.5143 25.7712 0.774636
390 2 11.3348 25.7893 -2.40499 11.3348 25.7893 -2.40499
391 1 12.373 24.0654 -0.786203 12.373 24.0654 -0.786203
392 2 14.1949 23.9764 0.898918 14.1949 23.9764 0.898918
393 2 14.2431 24.0971 -2.41268 14.2431 24.0971 -2.41268
394 1 15.1842 25.7057 -0.719842 15.1842 25.7057 -0.719842
395 2 16.9081 25.7072 1.16969 16.9081 25.7072 1.16969
396 2 17.2574 25.9063 -2.11983 17.2574 25.9063 -2.11983
397 1 18.0711 24.1679 -0.474372 18.0711 24.1679 -0.474372
398 2 20.1706 24.1085 1.07587 20.1706 24.1085 1.07587
399 2 19.9463 24.2278 -2.14808 19.9463 24.2278 -2.14808
400 1 21.0093 25.6906 -0.586638 21.0093 25.6906 -0.586638
401 2 22.8506 25.5813 1.04957 22.8506 25.5813 1.04957
402 2 22.8996 25.728 -2.12207 22.8996 25.728 -2.12207
403 1 23.9016 24.0277 -0.716562 23.9016 24.0277 -0.716562
404 2 25.5959 23.92 1.08716 25.5959 23.92 1.08716
405 2 25.8188 24.2056 -2.25256 25.8188 24.2056 -2.25256
406 1 26.6992 25.7314 -0.378566 26.6992 25.7314 -0.378566
407 2 28.4086 25.7527 1.50658 28.4086 25.7527 1.50658
408 2 28.7693 25.8392 -1.78421 28.7693 25.8392 -1.78421
409 1 29.5311 24.0751 -0.165018 29.5311 24.0751 -0.165018
410 2 31.2763 24.059 1.62421 31.2763 24.059 1.62421
411 2 31.6011 24.3286 -1.58751 31.6011 24.3286 -1.58751
412 1 32.4224 25.7284 0.202466 32.4224 25.7284 0.202466
413 2 34.3404 25.8186 1.89053 34.3404 25.8186 1.89053
414 2 34.395 25.6689 -1.40427 34.395 25.6689 -1.40427
415 1 35.2585 24.0648 0.26405 35.2585 24.0648 0.26405
416 2 37.2551 24.0679 1.9704 37.2551 24.0679 1.9704
417 2 37.0831 24.1139 -1.44263 37.0831 24.1139 -1.44263
418 1 38.1315 25.7421 0.225702 38.1315 25.7421 0.225702
419 2 40.0913 25.7661 1.81717 40.0913 25.7661 1.81717
420 2 40.0111 25.7527 -1.40895 40.0111 25.7527 -1.40895
421 1 41.0508 24.0029 0.134772 41.0508 24.0029 0.134772
422 2 43.1273 23.8826 1.48129 43.1273 23.8826 1.48129
423 2 42.7072 24.3419 -1.72976 42.7072 24.3419 -1.72976
424 1 43.8848 25.7128 -0.102042 43.8848 25.7128 -0.102042
425 2 45.863 25.591 1.51979 45.863 25.591 1.51979
426 2 45.8587 25.8996 -1.75428 45.8587 25.8996 -1.75428
427 1 46.826 24.1115 -0.245646 46.826 24.1115 -0.245646
428 2 48.8304 23.98 1.25743 48.8304 23.98 1.25743
429 2 48.5547 24.3765 -2.03291 48.5547 24.3765 -2.03291
430 1 49.6603 25.7849 -0.268008 49.6603 25.7849 -0.268008
431 2 51.8754 25.5835 0.94291 51.8754 25.5835 0.94291
432 2 51.3093 25.8785 -2.21397 51.3093 25.8785 -2.21397
433 1 0.97729 27.4602 -0.552525 0.97729 27.4602 -0.552525
434 2 2.88265 27.1623 1.08389 2.88265 27.1623 1.08389
435 2 2.97635 27.6317 -2.17977 2.97635 27.6317 -2.17977
436 1 3.85176 29.0718 -0.340471 3.85176 29.0718 -0.340471
437 2 5.89981 29.0725 1.19203 5.89981 29.0725 1.19203
438 2 5.63898 29.1008 -2.09124 5.63898 29.1008 -2.09124
439 1 6.71117 27.3894 -0.497236 6.71117 27.3894 -0.497236
440 2 8.54555 27.3008 1.14434 8.54555 27.3008 1.14434
441 2 8.63488 27.5041 -2.13284 8.63488 27.5041 -2.13284
442 1 9.5389 29.0421 -0.383997 9.5389 29.0421 -0.383997
443 2 11.5133 28.7274 1.12668 11.5133 28.7274 1.12668
444 2 11.457 29.2153 -2.10576 11.457 29.2153 -2.10576
445 1 12.3947 27.3825 -0.808978 12.3947 27.3825 -0.808978
446 2 14.1445 27.1989 1.00065 14.1445 27.1989 1.00065
447 2 14.3449 27.5492 -2.27562 14.3449 27.5492 -2.27562
448 1 15.1857 28.9997 -0.428446 15.1857 28.9997 -0.428446
449 2 16.9194 29.2022 1.18121 16.9194 29.2022 1.18121
450 2 17.2239 28.8996 -2.03885 17.2239 28.8996 -2.03885
451 1 18.0236 27.38 -0.199642 18.0236 27.38 -0.199642
452 2 20.1757 27.3083 1.17861 20.1757 27.3083 1.17861
453 2 19.8439 27.3914 -2.16438 19.8439 27.3914 -2.16438
454 1 20.9808 29.0009 -0.501535 20.9808 29.0009 -0.501535
455 2 22.7976 29.0288 1.30669 22.7976 29.0288 1.30669
456 2 22.9849 28.9628 -1.95918 22.9849 28.9628 -1.95918
457 1 23.8512 27.3233 -0.363869 23.8512 27.3233 -0.363869
458 2 25.7308 27.4035 1.29349 25.7308 27.4035 1.29349
459 2 25.6887 27.3462 -2.04605 25.6887 27.3462 -2.04605
460 1 26.6565 29.0232 -0.339301 26.6565 29.0232 -0.339301
461 2 28.3615 28.9701 1.50191 28.3615 28.9701 1.50191
462 2 28.7376 28.8547 -1.74102 28.7376 28.8547 -1.74102
463 1 29.5755 27.3418 0.0856744 29.5755 27.3418 0.0856744
464 2 31.3437 27.3738 1.93753 31.3437 27.3738 1.93753
465 2 31.5431 27.4425 -1.43762 31.5431 27.4425 -1.43762
466 1 32.5643 28.9725 0.301625 32.5643 28.9725 0.301625
467 2 34.4579 28.8564 1.90103 34.4579 28.8564 1.90103
468 2 34.3945 29.097 -1.39741 34.3945 29.097 -1.39741
469 1 35.2658 27.3181 0.140632 35.2658 27.3181 0.140632
470 2 37.1244 27.3266 1.6796 37.1244 27.3266 1.6796
471 2 37.2126 27.3065 -1.42713 37.2126 27.3065 -1.42713
472 1 38.1232 29.0628 0.179439 38.1232 29.0628 0.179439
473 2 40.096 29.0354 1.76693 40.096 29.0354 1.76693
474 2 40.05 29.0512 -1.51461 40.05 29.0512 -1.51461
475 1 41.0381 27.365 0.134803 41.0381 27.365 0.134803
476 2 42.996 27.3234 1.65905 42.996 27.3234 1.65905
477 2 42.8997 27.5336 -1.59457 42.8997 27.5336 -1.59457
478 1 43.9907 29.0044 0.171405 43.9907 29.0044 0.171405
479 2 45.9812 29.0413 1.61272 45.9812 29.0413 1.61272
480 2 45.8357 29.0228 -1.60416 45.8357 29.0228 -1.60416
481 1 46.8101 27.3777 -0.101063 46.8101 27.3777 -0.101063
482 2 48.7963 27.5588 1.34095 48.7963 27.5588 1.34095
483 2 48.6162 27.4097 -1.8899 48.6162 27.4097 -1.8899
484 1 49.5933 29.1041 -0.353378 49.5933 29.1041 -0.353378
485 2 51.5171 28.9364 1.18378 51.5171 28.9364 1.18378
486 2 51.5104 29.2105 -1.99995 51.5104 29.2105 -1.99995
487 1 1.01335 30.7211 -0.258562 1.01335 30.7211 -0.258562
488 2 2.96951 30.6265 1.34377 2.96951 30.6265 1.34377
489 2 2.90016 30.8101 -1.93156 2.90016 30.8101 -1.93156
490 1 3.80115 32.3239 -0.264217 3.80115 32.3239 -0.264217
491 2 5.66205 32.1954 1.4482 5.66205 32.1954 1.4482
492 2 5.62536 32.4426 -1.86587 5.62536 32.4426 -1.86587
493 1 6.59113 30.6635 -0.4054 6.59113 30.6635 -0.4054
494 2 8.58879 30.7629 1.31654 8.58879 30.7629 1.31654
495 2 8.63077 30.7131 -1.98206 8.63077 30.7131 -1.98206
496 1 9.52969 32.4301 -0.332587 9.52969 32.4301 -0.332587
497 2 11.3188 32.2512 1.30146 11.3188 32.2512 1.30146
498 2 11.4841 32.3246 -1.96687 11.4841 32.3246 -1.96687
499 1 12.3914 30.6835 -0.335305 12.3914 30.6835 -0.335305
500 2 14.3013 30.659 1.26225 14.3013 30.659 1.26225
501 2 14.3074 30.7172 -2.05046 14.3074 30.7172 -2.05046
502 1 15.2729 32.2713 -0.40201 15.2729 32.2713 -0.40201
503 2 17.1789 32.2634 1.26846 17.1789 32.2634 1.26846
504 2 17.1261 32.3596 -1.94424 17.1261 32.3596 -1.94424
505 1 18.1163 30.6886 -0.441998 18.1163 30.6886 -0.441998
506 2 19.9562 30.587 1.239 19.9562 30.587 1.239
507 2 19.9953 30.7077 -1.97732 19.9953 30.7077 -1.97732
508 1 20.9214 32.2692 -0.304753 20.9214 32.2692 -0.304753
509 2 22.8409 32.3079 1.38798 22.8409 32.3079 1.38798
510 2 22.8372 32.3227 -1.85884 22.8372 32.3227 -1.85884
511 1 23.81 30.6474 -0.257336 23.81 30.6474 -0.257336
512 2 25.7172 30.5609 1.39587 25.7172 30.5609 1.39587
513 2 25.6413 30.648 -1.88296 25.6413 30.648 -1.88296
514 1 26.7142 32.2134 -0.24392 26.7142 32.2134 -0.24392
515 2 28.5406 32.4496 1.41137 28.5406 32.4496 1.41137
516 2 28.7609 32.0741 -1.79031 28.7609 32.0741 -1.79031
517 1 29.5789 30.6375 0.0616003 29.5789 30.6375 0.0616003
518 2 31.5454 30.6722 1.8336 31.5454 30.6722 1.8336
519 2 31.6213 30.5992 -1.46161 31.6213 30.5992 -1.46161
520 1 32.4488 32.3646 0.142177 32.4488 32.3646 0.142177
521 2 34.2855 32.2129 1.94138 34.2855 32.2129 1.94138
522 2 34.5071 32.3643 -1.28708 34.5071 32.3643 -1.28708
523 1 35.3365 30.7036 0.323048 35.3365 30.7036 0.323048
524 2 37.3167 30.6942 1.87084 37.3167 30.6942 1.87084
525 2 37.0597 30.6009 -1.39266 37.0597 30.6009 -1.39266
526 1 38.1834 32.3208 0.184707 38.1834 32.3208 0.184707
527 2 39.9941 32.2957 1.8103 39.9941 32.2957 1.8103
528 2 40.1278 32.2782 -1.46416 40.1278 32.2782 -1.46416
529 1 41.0427 30.5853 0.139406 41.0427 30.5853 0.139406
530 2 43.0916 30.7061 1.68556 43.0916 30.7061 1.68556
531 2 43.0153 30.5653 -1.51809 43.0153 30.5653 -1.51809
532 1 43.8864 32.3494 0.0257769 43.8864 32.3494 0.0257769
533 2 45.7312 32.3256 1.64723 45.7312 32.3256 1.64723
534 2 45.8081 32.5016 -1.60495 45.8081 32.5016 -1.60495
535 1 46.6661 30.7734 -0.0835749 46.6661 30.7734 -0.0835749
536 2 48.6693 30.6643 1.44354 48.6693 30.6643 1.44354
537 2 48.6027 30.7171 -1.72951 48.6027 30.7171 -1.72951