ITEM: TIMESTEP
17400
ITEM: NUMBER OF ATOMS
810
ITEM: BOX BOUNDS pp pp pp
8.4980756619604081e-01 5.2167797433804544e+01
7.4496404556318740e-01 5.0271250954435878e+01
-1.0000000000000000e+01 1.0000000000000000e+01
ITEM: ATOMS id type x y z xu yu zu
1 1 1.13708 1.01254 0.363629 1.13708 1.01254 0.363629
2 2 2.89004 0.960316 2.09809 2.89004 0.960316 2.09809
3 2 3.00434 0.791606 -1.16926 3.00434 0.791606 -1.16926
4 1 3.88864 2.57241 0.475352 3.88864 2.57241 0.475352
5 2 5.8906 2.80101 2.11535 5.8906 2.80101 2.11535
6 2 5.78462 2.54932 -1.09547 5.78462 2.54932 -1.09547
7 1 6.81499 1.05155 0.610059 6.81499 1.05155 0.610059
8 2 8.93278 1.00553 1.92058 8.93278 1.00553 1.92058
9 2 8.4737 1.11024 -1.31226 8.4737 1.11024 -1.31226
10 1 9.71613 2.75699 0.221503 9.71613 2.75699 0.221503
11 2 11.6324 2.57605 1.79026 11.6324 2.57605 1.79026
12 2 11.4814 2.66665 -1.4991 11.4814 2.66665 -1.4991
13 1 12.3974 0.913924 0.0541237 12.3974 0.913924 0.0541237
14 2 14.3463 0.764489 1.62553 14.3463 0.764489 1.62553
15 2 14.2708 0.97535 -1.61013 14.2708 0.97535 -1.61013
16 1 15.2659 2.58352 0.0611347 15.2659 2.58352 0.0611347
17 2 17.3777 2.62639 1.49571 17.3777 2.62639 1.49571
18 2 17.0098 2.56808 -1.77303 17.0098 2.56808 -1.77303
19 1 18.1463 0.939082 -0.165078 18.1463 0.939082 -0.165078
20 2 20.0577 0.937789 1.53283 20.0577 0.937789 1.53283
21 2 20.0148 1.06491 -1.79667 20.0148 1.06491 -1.79667
22 1 21.0147 2.54417 -0.0580178 21.0147 2.54417 -0.0580178
23 2 23.0007 2.44947 1.53705 23.0007 2.44947 1.53705
24 2 22.8235 2.73093 -1.81626 22.8235 2.73093 -1.81626
25 1 23.8645 0.969692 -0.314189 23.8645 0.969692 -0.314189
26 2 25.8046 50.5072 1.3209 25.8046 0.980868 1.3209
27 2 25.7333 1.0576 -1.88261 25.7333 1.0576 -1.88261
28 1 26.7128 2.60577 -0.184613 26.7128 2.60577 -0.184613
29 2 28.6889 2.57886 1.40442 28.6889 2.57886 1.40442
30 2 28.5457 2.7442 -1.84085 28.5457 2.7442 -1.84085
31 1 29.4963 0.988964 -0.265312 29.4963 0.988964 -0.265312
32 2 31.2911 50.416 1.43607 31.2911 0.889748 1.43607
33 2 31.4961 1.00337 -1.82306 31.4961 1.00337 -1.82306
34 1 32.3491 2.67974 -0.202591 32.3491 2.67974 -0.202591
35 2 34.1382 2.508 1.54814 34.1382 2.508 1.54814
36 2 34.2525 2.66828 -1.76009 34.2525 2.66828 -1.76009
37 1 35.1959 0.926069 -0.115878 35.1959 0.926069 -0.115878
38 2 37.1032 0.811261 1.55958 37.1032 0.811261 1.55958
39 2 37.1855 0.990505 -1.68364 37.1855 0.990505 -1.68364
40 1 38.0731 2.63225 0.057643 38.0731 2.63225 0.057643
41 2 39.9764 2.60707 1.8054 39.9764 2.60707 1.8054
42 2 40.134 2.83714 -1.48282 40.134 2.83714 -1.48282
43 1 41.0155 1.02457 0.039409 41.0155 1.02457 0.039409
44 2 42.8009 1.06593 1.7835 42.8009 1.06593 1.7835
45 2 42.8689 0.95192 -1.54118 42.8689 0.95192 -1.54118
46 1 43.9104 2.65405 0.170269 43.9104 2.65405 0.170269
47 2 45.7352 2.49902 1.84899 45.7352 2.49902 1.84899
48 2 45.8604 2.76963 -1.34192 45.8604 2.76963 -1.34192
49 1 46.7342 0.907799 0.0827201 46.7342 0.907799 0.0827201
50 2 48.4936 0.859719 1.77235 48.4936 0.859719 1.77235
51 2 48.6746 0.837853 -1.35983 48.6746 0.837853 -1.35983
52 1 49.6446 2.50546 0.365684 49.6446 2.50546 0.365684
53 2 51.4393 2.57594 2.06938 51.4393 2.57594 2.06938
54 2 51.4138 2.60354 -1.25479 51.4138 2.60354 -1.25479
55 1 1.04095 4.21931 0.458834 1.04095 4.21931 0.458834
56 2 2.85767 4.09842 2.16158 2.85767 4.09842 2.16158
57 2 2.99344 4.27973 -1.09238 2.99344 4.27973 -1.09238
58 1 3.8846 5.98279 0.658762 3.8846 5.98279 0.658762
59 2 5.85329 6.00678 2.10949 5.85329 6.00678 2.10949
60 2 5.65639 5.93267 -1.13022 5.65639 5.93267 -1.13022
61 1 6.76431 4.2958 0.431391 6.76431 4.2958 0.431391
62 2 8.80296 4.41935 1.92492 8.80296 4.41935 1.92492
63 2 8.48447 4.2467 -1.36562 8.48447 4.2467 -1.36562
64 1 9.62776 5.96588 0.166208 9.62776 5.96588 0.166208
65 2 11.6002 6.0586 1.74794 11.6002 6.0586 1.74794
66 2 11.509 5.89607 -1.47231 11.509 5.89607 -1.47231
67 1 12.5144 4.33045 0.15111 12.5144 4.33045 0.15111
68 2 14.56 4.27646 1.6627 14.56 4.27646 1.6627
69 2 14.4488 4.1923 -1.62304 14.4488 4.1923 -1.62304
70 1 15.2792 5.86607 -0.0623752 15.2792 5.86607 -0.0623752
71 2 17.1573 5.9211 1.42942 17.1573 5.9211 1.42942
72 2 16.9819 5.80853 -1.79429 16.9819 5.80853 -1.79429
73 1 18.0663 4.2269 -0.238973 18.0663 4.2269 -0.238973
74 2 19.991 4.38282 1.51987 19.991 4.38282 1.51987
75 2 20.0457 4.15763 -1.83354 20.0457 4.15763 -1.83354
76 1 20.9678 5.84731 -0.267996 20.9678 5.84731 -0.267996
77 2 22.7477 5.78534 1.60503 22.7477 5.78534 1.60503
78 2 23.0356 5.90265 -1.7778 23.0356 5.90265 -1.7778
79 1 23.8569 4.196 -0.12165 23.8569 4.196 -0.12165
80 2 25.7586 4.23062 1.58961 25.7586 4.23062 1.58961
81 2 25.7362 4.30882 -1.71854 25.7362 4.30882 -1.71854
82 1 26.6587 5.91802 0.0110781 26.6587 5.91802 0.0110781
83 2 28.5425 5.78849 1.59921 28.5425 5.78849 1.59921
84 2 28.5173 6.21354 -1.54175 28.5173 6.21354 -1.54175
85 1 29.5269 4.2939 -0.168967 29.5269 4.2939 -0.168967
86 2 31.4472 4.18033 1.46782 31.4472 4.18033 1.46782
87 2 31.4864 4.49671 -1.73295 31.4864 4.49671 -1.73295
88 1 32.4554 5.93133 0.0606977 32.4554 5.93133 0.0606977
89 2 34.274 5.70043 1.77766 34.274 5.70043 1.77766
90 2 34.4766 5.98349 -1.49094 34.4766 5.98349 -1.49094
91 1 35.1866 4.19188 0.0249245 35.1866 4.19188 0.0249245
92 2 37.1049 4.02542 1.70143 37.1049 4.02542 1.70143
93 2 37.0909 4.37076 -1.46744 37.0909 4.37076 -1.46744
94 1 38.0209 5.87014 0.287777 38.0209 5.87014 0.287777
95 2 39.9662 5.91545 1.85302 39.9662 5.91545 1.85302
96 2 40.0253 5.91998 -1.30155 40.0253 5.91998 -1.30155
97 1 40.9921 4.32688 0.277201 40.9921 4.32688 0.277201
98 2 42.9698 4.15735 1.9474 42.9698 4.15735 1.9474
99 2 42.9897 4.49823 -1.28241 42.9897 4.49823 -1.28241
100 1 43.8785 5.94231 0.508677 43.8785 5.94231 0.508677
101 2 45.8115 5.9314 2.18666 45.8115 5.9314 2.18666
102 2 45.8489 6.00051 -1.20336 45.8489 6.00051 -1.20336
103 1 46.6992 4.28166 0.415224 46.6992 4.28166 0.415224
104 2 48.6824 3.99872 2.15251 48.6824 3.99872 2.15251
105 2 48.7547 4.29894 -1.11498 48.7547 4.29894 -1.11498
106 1 49.561 5.83275 0.671067 49.561 5.83275 0.671067
107 2 51.6291 5.90328 2.14643 51.6291 5.90328 2.14643
108 2 51.3773 5.88164 -1.09173 51.3773 5.88164 -1.09173
109 1 1.01883 7.58084 0.48349 1.01883 7.58084 0.48349
110 2 2.87199 7.83166 2.00183 2.87199 7.83166 2.00183
111 2 2.89544 7.44695 -1.18239 2.89544 7.44695 -1.18239
112 1 3.91639 9.19738 0.310267 3.91639 9.19738 0.310267
113 2 5.6559 9.20389 2.05065 5.6559 9.20389 2.05065
114 2 5.85722 9.2223 -1.17981 5.85722 9.2223 -1.17981
115 1 6.82673 7.59966 0.477155 6.82673 7.59966 0.477155
116 2 8.91421 7.65003 1.82338 8.91421 7.65003 1.82338
117 2 8.43199 7.59838 -1.38093 8.43199 7.59838 -1.38093
118 1 9.6015 9.2688 0.0965137 9.6015 9.2688 0.0965137
119 2 11.6206 9.24823 1.65833 11.6206 9.24823 1.65833
120 2 11.3965 9.36216 -1.54209 11.3965 9.36216 -1.54209
121 1 12.3902 7.60067 0.00322696 12.3902 7.60067 0.00322696
122 2 14.4347 7.52141 1.62972 14.4347 7.52141 1.62972
123 2 14.3046 7.58724 -1.61475 14.3046 7.58724 -1.61475
124 1 15.232 9.22172 -0.0190856 15.232 9.22172 -0.0190856
125 2 17.2103 9.13297 1.42971 17.2103 9.13297 1.42971
126 2 17.0474 9.16514 -1.88947 17.0474 9.16514 -1.88947
127 1 18.1018 7.56512 -0.257015 18.1018 7.56512 -0.257015
128 2 19.9613 7.45555 1.42473 19.9613 7.45555 1.42473
129 2 20.0671 7.56548 -1.80625 20.0671 7.56548 -1.80625
130 1 21.0255 9.19655 -0.164301 21.0255 9.19655 -0.164301
131 2 22.7476 9.20667 1.66852 22.7476 9.20667 1.66852
132 2 22.9836 9.16734 -1.67531 22.9836 9.16734 -1.67531
133 1 23.8013 7.53705 0.103293 23.8013 7.53705 0.103293
134 2 25.6859 7.4786 1.71612 25.6859 7.4786 1.71612
135 2 25.6051 7.7008 -1.58055 25.6051 7.7008 -1.58055
136 1 26.6045 9.26079 0.236411 26.6045 9.26079 0.236411
137 2 28.4477 9.09846 1.97575 28.4477 9.09846 1.97575
138 2 28.5665 9.45952 -1.20631 28.5665 9.45952 -1.20631
139 1 29.4983 7.61823 0.253964 29.4983 7.61823 0.253964
140 2 31.5177 7.52536 1.8525 31.5177 7.52536 1.8525
141 2 31.463 7.78869 -1.47705 31.463 7.78869 -1.47705
142 1 32.365 9.305 0.302782 32.365 9.305 0.302782
143 2 34.216 9.12443 2.01366 34.216 9.12443 2.01366
144 2 34.3987 9.29953 -1.33571 34.3987 9.29953 -1.33571
145 1 35.1792 7.52331 0.314133 35.1792 7.52331 0.314133
146 2 37.1065 7.57914 1.98226 37.1065 7.57914 1.98226
147 2 37.1389 7.52915 -1.29247 37.1389 7.52915 -1.29247
148 1 38.0964 9.15696 0.373251 38.0964 9.15696 0.373251
149 2 40.0018 9.15809 2.00003 40.0018 9.15809 2.00003
150 2 40.021 9.45749 -1.17198 40.021 9.45749 -1.17198
151 1 40.9156 7.5812 0.335839 40.9156 7.5812 0.335839
152 2 42.7727 7.56315 2.12193 42.7727 7.56315 2.12193
153 2 42.9376 7.53258 -1.14408 42.9376 7.53258 -1.14408
154 1 43.7946 9.17834 0.531956 43.7946 9.17834 0.531956
155 2 45.6897 9.00971 2.24715 45.6897 9.00971 2.24715
156 2 45.7167 9.43745 -1.04106 45.7167 9.43745 -1.04106
157 1 46.7562 7.60039 0.521379 46.7562 7.60039 0.521379
158 2 48.5574 7.61398 2.18321 48.5574 7.61398 2.18321
159 2 48.7245 7.52356 -1.03723 48.7245 7.52356 -1.03723
160 1 49.467 9.21374 0.546992 49.467 9.21374 0.546992
161 2 51.4164 9.21766 2.1302 51.4164 9.21766 2.1302
162 2 51.4841 9.21522 -1.13226 51.4841 9.21522 -1.13226
163 1 0.956519 10.8996 0.558819 0.956519 10.8996 0.558819
164 2 2.9739 10.8824 2.01723 2.9739 10.8824 2.01723
165 2 2.73949 10.7717 -1.31131 2.73949 10.7717 -1.31131
166 1 3.81064 12.4569 0.261522 3.81064 12.4569 0.261522
167 2 5.66674 12.6781 1.91798 5.66674 12.6781 1.91798
168 2 5.68565 12.2569 -1.33946 5.68565 12.2569 -1.33946
169 1 6.72056 10.9009 0.457096 6.72056 10.9009 0.457096
170 2 8.78564 10.8777 1.89154 8.78564 10.8777 1.89154
171 2 8.50282 11.0533 -1.34015 8.50282 11.0533 -1.34015
172 1 9.58881 12.6216 0.180256 9.58881 12.6216 0.180256
173 2 11.5133 12.5302 1.72234 11.5133 12.5302 1.72234
174 2 11.3744 12.5969 -1.64982 11.3744 12.5969 -1.64982
175 1 12.4097 10.8572 0.107301 12.4097 10.8572 0.107301
176 2 14.4155 10.9041 1.696 14.4155 10.9041 1.696
177 2 14.2379 10.8426 -1.74627 14.2379 10.8426 -1.74627
178 1 15.3017 12.4149 -0.0747931 15.3017 12.4149 -0.0747931
179 2 17.1221 12.3568 1.50765 17.1221 12.3568 1.50765
180 2 17.1197 12.6155 -1.72825 17.1197 12.6155 -1.72825
181 1 18.0592 10.8497 -0.281972 18.0592 10.8497 -0.281972
182 2 19.8901 10.8806 1.47995 19.8901 10.8806 1.47995
183 2 20.176 10.9189 -1.81775 20.176 10.9189 -1.81775
184 1 20.998 12.5746 -0.0479614 20.998 12.5746 -0.0479614
185 2 22.9994 12.49 1.65223 22.9994 12.49 1.65223
186 2 22.8275 12.5001 -1.62673 22.8275 12.5001 -1.62673
187 1 23.8523 10.8816 -0.0165572 23.8523 10.8816 -0.0165572
188 2 25.7209 11.033 1.72076 25.7209 11.033 1.72076
189 2 25.7879 10.7587 -1.58981 25.7879 10.7587 -1.58981
190 1 26.6937 12.5024 -0.0669903 26.6937 12.5024 -0.0669903
191 2 28.5085 12.7138 1.83515 28.5085 12.7138 1.83515
192 2 28.7834 12.38 -1.42196 28.7834 12.38 -1.42196
193 1 29.5303 10.8809 0.561865 29.5303 10.8809 0.561865
194 2 31.5991 10.9877 1.99944 31.5991 10.9877 1.99944
195 2 31.3726 10.8982 -1.24035 31.3726 10.8982 -1.24035
196 1 32.3811 12.5722 0.238873 32.3811 12.5722 0.238873
197 2 34.1466 12.6151 1.98128 34.1466 12.6151 1.98128
198 2 34.393 12.5214 -1.32521 34.393 12.5214 -1.32521
199 1 35.206 10.9124 0.413662 35.206 10.9124 0.413662
200 2 37.096 10.8367 2.04729 37.096 10.8367 2.04729
201 2 37.1817 10.9766 -1.16405 37.1817 10.9766 -1.16405
202 1 38.142 12.6684 0.464927 38.142 12.6684 0.464927
203 2 39.9187 12.5023 2.20789 39.9187 12.5023 2.20789
204 2 40.0275 12.7279 -1.07711 40.0275 12.7279 -1.07711
205 1 40.9332 10.9575 0.578121 40.9332 10.9575 0.578121
206 2 42.7045 10.7149 2.41358 42.7045 10.7149 2.41358
207 2 43.0275 11.177 -0.914119 43.0275 11.177 -0.914119
208 1 43.7325 12.5203 1.11357 43.7325 12.5203 1.11357
209 2 45.7088 12.6347 2.59808 45.7088 12.6347 2.59808
210 2 45.5562 12.5791 -0.727607 45.5562 12.5791 -0.727607
211 1 46.6306 10.8378 0.875253 46.6306 10.8378 0.875253
212 2 48.7748 10.8706 2.23063 48.7748 10.8706 2.23063
213 2 48.3608 10.8225 -0.965189 48.3608 10.8225 -0.965189
214 1 49.4438 12.4359 0.502432 49.4438 12.4359 0.502432
215 2 51.2868 12.6743 2.0936 51.2868 12.6743 2.0936
216 2 51.3199 12.3303 -1.12035 51.3199 12.3303 -1.12035
217 1 0.976712 14.1986 0.219898 0.976712 14.1986 0.219898
218 2 2.86867 14.2653 1.84109 2.86867 14.2653 1.84109
219 2 2.87615 14.0528 -1.38541 2.87615 14.0528 -1.38541
220 1 3.88483 15.702 0.121119 3.88483 15.702 0.121119
221 2 5.85883 15.8194 1.67811 5.85883 15.8194 1.67811
222 2 5.68743 15.7688 -1.6424 5.68743 15.7688 -1.6424
223 1 6.62968 14.1248 0.0483441 6.62968 14.1248 0.0483441
224 2 8.52757 14.4552 1.58801 8.52757 14.4552 1.58801
225 2 8.54211 14.0136 -1.64074 8.54211 14.0136 -1.64074
226 1 9.59824 15.8117 -0.305175 9.59824 15.8117 -0.305175
227 2 11.3566 15.9895 1.34562 11.3566 15.9895 1.34562
228 2 11.5818 15.6657 -1.88938 11.5818 15.6657 -1.88938
229 1 12.4335 14.1982 -0.052852 12.4335 14.1982 -0.052852
230 2 14.353 14.086 1.59225 14.353 14.086 1.59225
231 2 14.3715 14.1653 -1.67196 14.3715 14.1653 -1.67196
232 1 15.3404 15.7503 -0.0524505 15.3404 15.7503 -0.0524505
233 2 17.2059 16.1362 1.462 17.2059 16.1362 1.462
234 2 17.0397 15.5426 -1.77629 17.0397 15.5426 -1.77629
235 1 18.0986 14.1418 0.0703312 18.0986 14.1418 0.0703312
236 2 20.1298 14.3353 1.55252 20.1298 14.3353 1.55252
237 2 19.9335 14.1179 -1.67924 19.9335 14.1179 -1.67924
238 1 20.9689 15.7844 -0.248523 20.9689 15.7844 -0.248523
239 2 22.7945 16.0631 1.47876 22.7945 16.0631 1.47876
240 2 22.9353 15.6608 -1.77868 22.9353 15.6608 -1.77868
241 1 23.7928 14.1205 0.0523122 23.7928 14.1205 0.0523122
242 2 25.798 14.2586 1.60128 25.798 14.2586 1.60128
243 2 25.5628 14.2108 -1.58619 25.5628 14.2108 -1.58619
244 1 26.633 15.8153 -0.0487912 26.633 15.8153 -0.0487912
245 2 28.5694 15.8727 1.60323 28.5694 15.8727 1.60323
246 2 28.6506 15.7069 -1.69987 28.6506 15.7069 -1.69987
247 1 29.4747 14.2534 0.054076 29.4747 14.2534 0.054076
248 2 31.2426 14.334 1.72113 31.2426 14.334 1.72113
249 2 31.4199 14.1732 -1.52344 31.4199 14.1732 -1.52344
250 1 32.3808 15.9567 0.0310536 32.3808 15.9567 0.0310536
251 2 34.1499 15.9653 1.82022 34.1499 15.9653 1.82022
252 2 34.3637 15.7128 -1.4303 34.3637 15.7128 -1.4303
253 1 35.2849 14.257 0.344033 35.2849 14.257 0.344033
254 2 37.1426 14.353 2.03841 37.1426 14.353 2.03841
255 2 37.2662 14.1786 -1.23718 37.2662 14.1786 -1.23718
256 1 38.1248 15.957 0.317812 38.1248 15.957 0.317812
257 2 39.7761 15.7948 2.27404 39.7761 15.7948 2.27404
258 2 40.0878 15.8778 -1.12089 40.0878 15.8778 -1.12089
259 1 40.9371 14.244 0.718041 40.9371 14.244 0.718041
260 2 42.6789 14.2306 2.55526 42.6789 14.2306 2.55526
261 2 42.9161 14.2803 -0.692698 42.9161 14.2803 -0.692698
262 1 43.8602 15.8291 1.0261 43.8602 15.8291 1.0261
263 2 45.8307 15.7535 2.6619 45.8307 15.7535 2.6619
264 2 45.6397 15.9087 -0.714439 45.6397 15.9087 -0.714439
265 1 46.577 14.1902 0.835037 46.577 14.1902 0.835037
266 2 48.707 14.2406 2.22471 48.707 14.2406 2.22471
267 2 48.2694 14.1527 -1.00219 48.2694 14.1527 -1.00219
268 1 49.4471 15.8453 0.451529 49.4471 15.8453 0.451529
269 2 51.5172 15.8415 1.95547 51.5172 15.8415 1.95547
270 2 51.2735 15.8916 -1.32382 51.2735 15.8916 -1.32382
271 1 1.02725 17.497 0.250813 1.02725 17.497 0.250813
272 2 3.01367 17.4037 1.76306 3.01367 17.4037 1.76306
273 2 2.91023 17.3373 -1.5747 2.91023 17.3373 -1.5747
274 1 3.83536 19.04 0.109016 3.83536 19.04 0.109016
275 2 6.05762 19.1659 1.48656 6.05762 19.1659 1.48656
276 2 5.59309 18.8866 -1.77489 5.59309 18.8866 -1.77489
277 1 6.75573 17.4393 -0.0527194 6.75573 17.4393 -0.0527194
278 2 8.83733 17.4803 1.37273 8.83733 17.4803 1.37273
279 2 8.44878 17.3701 -1.84028 8.44878 17.3701 -1.84028
280 1 9.55914 19.0803 -0.393813 9.55914 19.0803 -0.393813
281 2 11.5404 19.162 1.15212 11.5404 19.162 1.15212
282 2 11.4959 19.097 -2.03806 11.4959 19.097 -2.03806
283 1 12.4829 17.4345 -0.388995 12.4829 17.4345 -0.388995
284 2 14.3074 17.6206 1.27655 14.3074 17.6206 1.27655
285 2 14.3742 16.9679 -1.91317 14.3742 16.9679 -1.91317
286 1 15.247 19.0126 -0.672122 15.247 19.0126 -0.672122
287 2 17.0492 19.0114 1.07336 17.0492 19.0114 1.07336
288 2 17.2084 19.0209 -2.31606 17.2084 19.0209 -2.31606
289 1 18.1531 17.3421 -0.568885 18.1531 17.3421 -0.568885
290 2 19.9919 17.5425 1.27501 19.9919 17.5425 1.27501
291 2 20.0787 17.2309 -2.03257 20.0787 17.2309 -2.03257
292 1 20.9559 19.0599 -0.486047 20.9559 19.0599 -0.486047
293 2 22.6984 19.2641 1.21544 22.6984 19.2641 1.21544
294 2 22.9729 18.9543 -2.07515 22.9729 18.9543 -2.07515
295 1 23.8176 17.5433 -0.192998 23.8176 17.5433 -0.192998
296 2 25.7221 17.7651 1.28018 25.7221 17.7651 1.28018
297 2 25.6324 17.3121 -1.85067 25.6324 17.3121 -1.85067
298 1 26.7129 19.2002 -0.501523 26.7129 19.2002 -0.501523
299 2 28.4081 19.2875 1.3293 28.4081 19.2875 1.3293
300 2 28.7256 19.0419 -1.9588 28.7256 19.0419 -1.9588
301 1 29.5404 17.4732 -0.176587 29.5404 17.4732 -0.176587
302 2 31.2835 17.526 1.59297 31.2835 17.526 1.59297
303 2 31.5671 17.5275 -1.65613 31.5671 17.5275 -1.65613
304 1 32.3452 19.0944 0.0559849 32.3452 19.0944 0.0559849
305 2 34.2746 19.1117 1.72479 34.2746 19.1117 1.72479
306 2 34.3522 19.1601 -1.48273 34.3522 19.1601 -1.48273
307 1 35.2094 17.5459 0.154424 35.2094 17.5459 0.154424
308 2 36.9772 17.4426 1.97546 36.9772 17.4426 1.97546
309 2 37.213 17.6028 -1.23255 37.213 17.6028 -1.23255
310 1 38.08 19.1959 0.488173 38.08 19.1959 0.488173
311 2 39.9371 19.2293 2.21816 39.9371 19.2293 2.21816
312 2 40.0511 19.1097 -1.0418 40.0511 19.1097 -1.0418
313 1 40.8829 17.4934 0.754905 40.8829 17.4934 0.754905
314 2 42.7922 17.6543 2.53132 42.7922 17.6543 2.53132
315 2 42.8283 17.3679 -0.755408 42.8283 17.3679 -0.755408
316 1 43.8481 19.0963 0.705799 43.8481 19.0963 0.705799
317 2 45.6906 19.279 2.39325 45.6906 19.279 2.39325
318 2 45.7383 18.8817 -0.86648 45.7383 18.8817 -0.86648
319 1 46.6727 17.4147 1.02981 46.6727 17.4147 1.02981
320 2 48.8233 17.419 2.26776 48.8233 17.419 2.26776
321 2 48.2872 17.45 -0.950787 48.2872 17.45 -0.950787
322 1 49.4988 19.0832 0.531447 49.4988 19.0832 0.531447
323 2 51.5928 19.3215 1.86015 51.5928 19.3215 1.86015
324 2 51.1613 19.0481 -1.38488 51.1613 19.0481 -1.38488
325 1 1.02001 20.7702 0.0109685 1.02001 20.7702 0.0109685
326 2 2.89676 20.8989 1.63453 2.89676 20.8989 1.63453
327 2 2.83772 20.5953 -1.60136 2.83772 20.5953 -1.60136
328 1 3.92859 22.3935 -0.126458 3.92859 22.3935 -0.126458
329 2 5.9719 22.5821 1.12697 5.9719 22.5821 1.12697
330 2 5.46709 22.1533 -2.0401 5.46709 22.1533 -2.0401
331 1 6.70321 20.6923 -0.491197 6.70321 20.6923 -0.491197
332 2 8.70443 20.9933 0.972379 8.70443 20.9933 0.972379
333 2 8.54818 20.6051 -2.16629 8.54818 20.6051 -2.16629
334 1 9.5387 22.4151 -0.876849 9.5387 22.4151 -0.876849
335 2 11.2459 22.5931 0.890779 11.2459 22.5931 0.890779
336 2 11.464 22.2439 -2.31289 11.464 22.2439 -2.31289
337 1 12.405 20.802 -0.44683 12.405 20.802 -0.44683
338 2 14.384 20.6228 1.12985 14.384 20.6228 1.12985
339 2 14.2227 20.8032 -2.16954 14.2227 20.8032 -2.16954
340 1 15.2878 22.3539 -0.543971 15.2878 22.3539 -0.543971
341 2 17.1338 22.4051 1.033 17.1338 22.4051 1.033
342 2 17.0555 22.187 -2.31238 17.0555 22.187 -2.31238
343 1 18.0674 20.6698 -0.612715 18.0674 20.6698 -0.612715
344 2 20.0853 20.9799 0.844905 20.0853 20.9799 0.844905
345 2 20.053 20.4798 -2.37032 20.053 20.4798 -2.37032
346 1 21.0297 22.4943 -0.949412 21.0297 22.4943 -0.949412
347 2 22.7924 22.6529 0.872666 22.7924 22.6529 0.872666
348 2 23.1158 22.2924 -2.41953 23.1158 22.2924 -2.41953
349 1 23.7922 20.7708 -0.551785 23.7922 20.7708 -0.551785
350 2 25.8059 20.9406 0.946043 25.8059 20.9406 0.946043
351 2 25.6743 20.7296 -2.28223 25.6743 20.7296 -2.28223
352 1 26.7844 22.4695 -0.849086 26.7844 22.4695 -0.849086
353 2 28.3731 22.5123 1.15477 28.3731 22.5123 1.15477
354 2 28.9425 22.3106 -2.09754 28.9425 22.3106 -2.09754
355 1 29.5764 20.8058 -0.260222 29.5764 20.8058 -0.260222
356 2 31.4923 20.8411 1.53184 31.4923 20.8411 1.53184
357 2 31.544 20.5727 -1.83354 31.544 20.5727 -1.83354
358 1 32.3819 22.3621 -0.264615 32.3819 22.3621 -0.264615
359 2 34.0356 22.4807 1.57988 34.0356 22.4807 1.57988
360 2 34.4678 22.3974 -1.59352 34.4678 22.3974 -1.59352
361 1 35.2621 20.7231 0.203626 35.2621 20.7231 0.203626
362 2 36.9482 20.9375 2.01809 36.9482 20.9375 2.01809
363 2 37.2224 20.804 -1.29816 37.2224 20.804 -1.29816
364 1 38.1436 22.5122 0.362185 38.1436 22.5122 0.362185
365 2 40.1794 22.6443 2.01473 40.1794 22.6443 2.01473
366 2 39.9039 22.2867 -1.25877 39.9039 22.2867 -1.25877
367 1 40.9806 20.8066 0.463067 40.9806 20.8066 0.463067
368 2 42.87 20.7972 2.16699 42.87 20.7972 2.16699
369 2 42.84 20.5568 -1.02376 42.84 20.5568 -1.02376
370 1 43.8674 22.3296 0.439455 43.8674 22.3296 0.439455
371 2 45.9601 22.5315 2.10356 45.9601 22.5315 2.10356
372 2 45.5978 22.2905 -1.26305 45.5978 22.2905 -1.26305
373 1 46.7055 20.7633 0.481291 46.7055 20.7633 0.481291
374 2 48.5799 20.9062 2.09078 48.5799 20.9062 2.09078
375 2 48.6692 20.835 -1.15592 48.6692 20.835 -1.15592
376 1 49.5579 22.4737 0.448081 49.5579 22.4737 0.448081
377 2 51.736 22.3608 1.81303 51.736 22.3608 1.81303
378 2 51.2189 22.4382 -1.50854 51.2189 22.4382 -1.50854
379 1 1.10568 24.0929 0.0892209 1.10568 24.0929 0.0892209
380 2 3.28143 24.3314 1.41689 3.28143 24.3314 1.41689
381 2 2.7855 23.8411 -1.80116 2.7855 23.8411 -1.80116
382 1 3.94059 25.7307 -0.592869 3.94059 25.7307 -0.592869
383 2 6.00688 25.6515 0.814086 6.00688 25.6515 0.814086
384 2 5.68945 25.6021 -2.45976 5.68945 25.6021 -2.45976
385 1 6.72176 24.0678 -0.868318 6.72176 24.0678 -0.868318
386 2 8.73223 24.1378 0.714484 8.73223 24.1378 0.714484
387 2 8.59632 23.9702 -2.57762 8.59632 23.9702 -2.57762
388 1 9.52163 25.7343 -1.03318 9.52163 25.7343 -1.03318
389 2 11.4101 25.7761 0.704178 11.4101 25.7761 0.704178
390 2 11.4968 25.7186 -2.56185 11.4968 25.7186 -2.56185
391 1 12.3584 24.0606 -0.842627 12.3584 24.0606 -0.842627
392 2 14.2454 24.1437 0.82623 14.2454 24.1437 0.82623
393 2 14.3396 23.8472 -2.39472 14.3396 23.8472 -2.39472
394 1 15.3256 25.5953 -0.852733 15.3256 25.5953 -0.852733
395 2 17.3047 25.6467 0.73249 17.3047 25.6467 0.73249
396 2 17.1098 25.6867 -2.49685 17.1098 25.6867 -2.49685
397 1 18.098 23.9341 -0.853366 18.098 23.9341 -0.853366
398 2 20.0917 23.9755 0.766058 20.0917 23.9755 0.766058
399 2 20.0045 24.1006 -2.51079 20.0045 24.1006 -2.51079
400 1 21.036 25.6976 -0.856962 21.036 25.6976 -0.856962
401 2 22.7899 25.5339 0.834569 22.7899 25.5339 0.834569
402 2 22.9565 25.8327 -2.4133 22.9565 25.8327 -2.4133
403 1 23.8867 24.0208 -0.850924 23.8867 24.0208 -0.850924
404 2 25.6352 23.8364 0.833357 25.6352 23.8364 0.833357
405 2 25.9162 24.3481 -2.22863 25.9162 24.3481 -2.22863
406 1 26.73 25.7399 -0.320775 26.73 25.7399 -0.320775
407 2 28.7763 25.7504 1.25263 28.7763 25.7504 1.25263
408 2 28.5866 25.6653 -2.01699 28.5866 25.6653 -2.01699
409 1 29.6452 24.0277 -0.396988 29.6452 24.0277 -0.396988
410 2 31.448 24.0963 1.30971 31.448 24.0963 1.30971
411 2 31.5488 24.0281 -1.99474 31.5488 24.0281 -1.99474
412 1 32.4415 25.6856 -0.360232 32.4415 25.6856 -0.360232
413 2 34.1815 25.9486 1.39633 34.1815 25.9486 1.39633
414 2 34.4572 25.566 -1.90496 34.4572 25.566 -1.90496
415 1 35.2569 24.096 0.0356897 35.2569 24.096 0.0356897
416 2 37.1737 24.395 1.63608 37.1737 24.395 1.63608
417 2 37.2142 23.7274 -1.51625 37.2142 23.7274 -1.51625
418 1 38.0984 25.6889 -0.259362 38.0984 25.6889 -0.259362
419 2 39.9322 25.9251 1.51117 39.9322 25.9251 1.51117
420 2 40.1113 25.5294 -1.69168 40.1113 25.5294 -1.69168
421 1 40.9879 24.065 0.19117 40.9879 24.065 0.19117
422 2 42.7997 24.1473 1.89142 42.7997 24.1473 1.89142
423 2 42.9857 23.9737 -1.42174 42.9857 23.9737 -1.42174
424 1 43.8364 25.7199 0.147549 43.8364 25.7199 0.147549
425 2 45.8482 25.8028 1.67033 45.8482 25.8028 1.67033
426 2 45.6325 25.6427 -1.55944 45.6325 25.6427 -1.55944
427 1 46.6926 24.0409 0.0811129 46.6926 24.0409 0.0811129
428 2 48.3829 24.2474 1.79201 48.3829 24.2474 1.79201
429 2 48.5493 23.8376 -1.5518 48.5493 23.8376 -1.5518
430 1 49.4588 25.6608 -0.0843279 49.4588 25.6608 -0.0843279
431 2 51.5707 25.9388 1.40715 51.5707 25.9388 1.40715
432 2 51.2697 25.4116 -1.77154 51.2697 25.4116 -1.77154
433 1 1.00253 27.3277 -0.536428 1.00253 27.3277 -0.536428
434 2 3.0235 27.5413 0.936766 3.0235 27.5413 0.936766
435 2 2.87779 27.271 -2.27765 2.87779 27.271 -2.27765
436 1 3.91719 29.0549 -0.869215 3.91719 29.0549 -0.869215
437 2 5.93931 29.1737 0.732864 5.93931 29.1737 0.732864
438 2 5.77266 28.8963 -2.5285 5.77266 28.8963 -2.5285
439 1 6.7188 27.3135 -0.891356 6.7188 27.3135 -0.891356
440 2 8.70612 27.4355 0.558869 8.70612 27.4355 0.558869
441 2 8.52838 27.4069 -2.56936 8.52838 27.4069 -2.56936
442 1 9.5432 29.1361 -1.03606 9.5432 29.1361 -1.03606
443 2 11.4127 29.0073 0.733546 11.4127 29.0073 0.733546
444 2 11.5324 29.1056 -2.5101 11.5324 29.1056 -2.5101
445 1 12.4556 27.3203 -0.901489 12.4556 27.3203 -0.901489
446 2 14.3526 27.3646 0.65092 14.3526 27.3646 0.65092
447 2 14.3508 27.2738 -2.57172 14.3508 27.2738 -2.57172
448 1 15.3937 28.9629 -1.01431 15.3937 28.9629 -1.01431
449 2 17.1046 28.946 0.761532 17.1046 28.946 0.761532
450 2 17.3725 29.0651 -2.4838 17.3725 29.0651 -2.4838
451 1 18.1534 27.3881 -0.83371 18.1534 27.3881 -0.83371
452 2 20.1086 27.4833 0.770457 20.1086 27.4833 0.770457
453 2 20.0407 27.302 -2.53235 20.0407 27.302 -2.53235
454 1 21.017 28.9448 -1.02357 21.017 28.9448 -1.02357
455 2 22.7593 28.9539 0.804891 22.7593 28.9539 0.804891
456 2 23.0655 28.9611 -2.4013 23.0655 28.9611 -2.4013
457 1 23.8502 27.3695 -0.705861 23.8502 27.3695 -0.705861
458 2 25.5464 27.4134 1.14348 25.5464 27.4134 1.14348
459 2 25.9091 27.3148 -2.07226 25.9091 27.3148 -2.07226
460 1 26.7859 28.9982 -0.332 26.7859 28.9982 -0.332
461 2 28.6871 28.9932 1.26425 28.6871 28.9932 1.26425
462 2 28.6097 28.9905 -2.00568 28.6097 28.9905 -2.00568
463 1 29.5784 27.3871 -0.503574 29.5784 27.3871 -0.503574
464 2 31.3935 27.4029 1.15905 31.3935 27.4029 1.15905
465 2 31.6269 27.3043 -2.05395 31.6269 27.3043 -2.05395
466 1 32.401 29.0161 -0.438823 32.401 29.0161 -0.438823
467 2 34.3648 29.0729 1.16875 34.3648 29.0729 1.16875
468 2 34.3553 28.8898 -2.06705 34.3553 28.8898 -2.06705
469 1 35.2203 27.347 -0.323308 35.2203 27.347 -0.323308
470 2 37.1816 27.4564 1.28162 37.1816 27.4564 1.28162
471 2 37.1192 27.2042 -1.94681 37.1192 27.2042 -1.94681
472 1 38.1898 29.0657 -0.553654 38.1898 29.0657 -0.553654
473 2 39.923 29.0392 1.2732 39.923 29.0392 1.2732
474 2 40.1798 29.0646 -1.94643 40.1798 29.0646 -1.94643
475 1 40.9641 27.3536 -0.29182 40.9641 27.3536 -0.29182
476 2 42.8752 27.6284 1.35572 42.8752 27.6284 1.35572
477 2 42.9837 26.9903 -1.80492 42.9837 26.9903 -1.80492
478 1 43.8966 29.0372 -0.367583 43.8966 29.0372 -0.367583
479 2 45.69 29.0774 1.46105 45.69 29.0774 1.46105
480 2 45.9827 29.0074 -1.83199 45.9827 29.0074 -1.83199
481 1 46.7521 27.3948 -0.0583013 46.7521 27.3948 -0.0583013
482 2 48.7423 27.4341 1.45461 48.7423 27.4341 1.45461
483 2 48.515 27.2469 -1.7233 48.515 27.2469 -1.7233
484 1 49.5915 29.0568 -0.36186 49.5915 29.0568 -0.36186
485 2 51.5498 29.0703 1.12732 51.5498 29.0703 1.12732
486 2 51.3579 29.013 -2.10237 51.3579 29.013 -2.10237
487 1 1.10067 30.6887 -0.618716 1.10067 30.6887 -0.618716
488 2 3.19758 30.6397 0.863689 3.19758 30.6397 0.863689
489 2 2.87571 30.6477 -2.3928 2.87571 30.6477 -2.3928
490 1 3.9245 32.3142 -0.900642 3.9245 32.3142 -0.900642
491 2 5.76545 32.081 0.804579 5.76545 32.081 0.804579
492 2 5.88997 32.5791 -2.44614 5.88997 32.5791 -2.44614
493 1 6.68411 30.6804 -1.01666 6.68411 30.6804 -1.01666
494 2 8.61232 30.7152 0.619673 8.61232 30.7152 0.619673
495 2 8.57734 30.6775 -2.78221 8.57734 30.6775 -2.78221
496 1 9.57661 32.2798 -1.04134 9.57661 32.2798 -1.04134
497 2 11.4342 32.3993 0.637551 11.4342 32.3993 0.637551
498 2 11.5464 32.2694 -2.59312 11.5464 32.2694 -2.59312
499 1 12.5127 30.7348 -0.866456 12.5127 30.7348 -0.866456
500 2 14.4968 30.5765 0.666988 14.4968 30.5765 0.666988
501 2 14.3524 30.6835 -2.60051 14.3524 30.6835 -2.60051
502 1 15.4368 32.2493 -0.956062 15.4368 32.2493 -0.956062
503 2 17.0706 32.3891 0.820462 17.0706 32.3891 0.820462
504 2 17.3086 32.0743 -2.56275 17.3086 32.0743 -2.56275
505 1 18.2357 30.6951 -0.67387 18.2357 30.6951 -0.67387
506 2 20.1864 30.5854 0.792175 20.1864 30.5854 0.792175
507 2 19.9921 30.7182 -2.40483 19.9921 30.7182 -2.40483
508 1 21.0465 32.3116 -0.762646 21.0465 32.3116 -0.762646
509 2 22.9509 32.1896 0.841305 22.9509 32.1896 0.841305
510 2 23.0348 32.345 -2.40884 23.0348 32.345 -2.40884
511 1 23.9017 30.6141 -0.842539 23.9017 30.6141 -0.842539
512 2 25.4361 30.6042 1.09348 25.4361 30.6042 1.09348
513 2 26.1166 30.5767 -2.11045 26.1166 30.5767 -2.11045
514 1 26.6438 32.3291 -0.436194 26.6438 32.3291 -0.436194
515 2 28.5595 32.1783 1.25242 28.5595 32.1783 1.25242
516 2 28.6917 32.3334 -1.91426 28.6917 32.3334 -1.91426
517 1 29.5356 30.6619 -0.397694 29.5356 30.6619 -0.397694
518 2 31.4503 30.588 1.27759 31.4503 30.588 1.27759
519 2 31.4736 30.6717 -1.93662 31.4736 30.6717 -1.93662
520 1 32.4156 32.2783 -0.31953 32.4156 32.2783 -0.31953
521 2 34.4213 32.4891 1.16092 34.4213 32.4891 1.16092
522 2 34.2991 32.4025 -2.04053 34.2991 32.4025 -2.04053
523 1 35.3339 30.6589 -0.484877 35.3339 30.6589 -0.484877
524 2 37.1028 30.6054 1.16367 37.1028 30.6054 1.16367
525 2 37.2411 30.7825 -2.07775 37.2411 30.7825 -2.07775
526 1 38.0971 32.316 -0.37925 38.0971 32.316 -0.37925
527 2 40.1298 32.5322 1.13395 40.1298 32.5322 1.13395
528 2 40.0228 32.1273 -2.0656 40.0228 32.1273 -2.0656
529 1 41.0582 30.664 -0.239808 41.0582 30.664 -0.239808
530 2 43.0134 30.8169 1.27493 43.0134 30.8169 1.27493
531 2 42.8579 30.6288 -2.0017 42.8579 30.6288 -2.0017
532 1 43.8649 32.3807 -0.441119 43.8649 32.3807 -0.441119
533 2 45.6825 32.3093 1.36086 45.6825 32.3093 1.36086
534 2 45.8767 32.3071 -1.95155 45.8767 32.3071 -1.95155
535 1 46.737 30.6629 -0.196372 46.737 30.6629 -0.196372
536 2 48.618 30.5563 1.38414 48.618 30.5563 1.38414
537 2 48.5033 30.7989 -1.85665 48.5033 30.7989 -1.85665
538 1 49.5097 32.3325 -0.248268 49.5097 32.3325 -0.248268
539 2 51.6827 32.2838 1.08968 51.6827 32.2838 1.08968
540 2 51.1866 32.1873 -2.16438 51.1866 32.1873 -2.16438