ITEM: TIMESTEP
2400
ITEM: NUMBER OF ATOMS
810
ITEM: BOX BOUNDS pp pp pp
7.6986786957606756e-01 5.2247737130424149e+01
7.8660485248579437e-01 5.0229610147513448e+01
-1.0000000000000000e+01 1.0000000000000000e+01
ITEM: ATOMS id type x y z xu yu zu
1 1 0.983794 0.958256 0.305917 0.983794 0.958256 0.305917
2 2 2.94065 0.967728 1.89385 2.94065 0.967728 1.89385
3 2 2.78301 0.947117 -1.42919 2.78301 0.947117 -1.42919
4 1 3.85136 2.54129 0.186109 3.85136 2.54129 0.186109
5 2 5.78906 2.4913 1.71386 5.78906 2.4913 1.71386
6 2 5.64137 2.5837 -1.55607 5.64137 2.5837 -1.55607
7 1 6.63545 0.898619 -0.0891673 6.63545 0.898619 -0.0891673
8 2 8.45807 50.1981 1.69445 8.45807 0.75512 1.69445
9 2 8.64666 1.17416 -1.61742 8.64666 1.17416 -1.61742
10 1 9.44088 2.66502 0.331025 9.44088 2.66502 0.331025
11 2 11.4744 2.57067 1.8684 11.4744 2.57067 1.8684
12 2 11.3129 2.73706 -1.42391 11.3129 2.73706 -1.42391
13 1 12.4077 0.983272 0.11474 12.4077 0.983272 0.11474
14 2 14.4637 1.11492 1.53388 14.4637 1.11492 1.53388
15 2 14.2983 0.993797 -1.68242 14.2983 0.993797 -1.68242
16 1 15.3223 2.67592 -0.134038 15.3223 2.67592 -0.134038
17 2 17.1989 2.69266 1.56371 17.1989 2.69266 1.56371
18 2 17.1753 2.60581 -1.71452 17.1753 2.60581 -1.71452
19 1 18.1528 1.00314 -0.0475959 18.1528 1.00314 -0.0475959
20 2 20.0779 0.935442 1.56516 20.0779 0.935442 1.56516
21 2 19.9196 1.12915 -1.65586 19.9196 1.12915 -1.65586
22 1 20.8536 2.75076 0.00372194 20.8536 2.75076 0.00372194
23 2 22.8413 2.7132 1.62678 22.8413 2.7132 1.62678
24 2 22.8071 2.61651 -1.60679 22.8071 2.61651 -1.60679
25 1 23.8315 1.06594 -0.0715264 23.8315 1.06594 -0.0715264
26 2 25.5179 0.83535 1.63232 25.5179 0.83535 1.63232
27 2 25.8561 1.04077 -1.578 25.8561 1.04077 -1.578
28 1 26.7239 2.63183 0.253164 26.7239 2.63183 0.253164
29 2 28.5092 2.64389 1.88936 28.5092 2.64389 1.88936
30 2 28.5573 2.79423 -1.41608 28.5573 2.79423 -1.41608
31 1 29.6194 1.03219 0.113779 29.6194 1.03219 0.113779
32 2 31.3277 0.97077 1.88415 31.3277 0.97077 1.88415
33 2 31.6607 1.02415 -1.38135 31.6607 1.02415 -1.38135
34 1 32.3723 2.70046 0.342511 32.3723 2.70046 0.342511
35 2 34.2247 2.60946 2.10836 34.2247 2.60946 2.10836
36 2 34.4294 2.77424 -1.0552 34.4294 2.77424 -1.0552
37 1 35.3887 1.02767 0.442191 35.3887 1.02767 0.442191
38 2 37.2535 0.852365 2.08647 37.2535 0.852365 2.08647
39 2 37.2341 1.21445 -1.23329 37.2341 1.21445 -1.23329
40 1 38.2042 2.68218 0.584663 38.2042 2.68218 0.584663
41 2 40.013 2.47105 2.27041 40.013 2.47105 2.27041
42 2 40.0367 2.62967 -1.06793 40.0367 2.62967 -1.06793
43 1 41.0681 0.997195 0.501927 41.0681 0.997195 0.501927
44 2 43.1367 0.813417 2.1231 43.1367 0.813417 2.1231
45 2 43.0028 1.14195 -1.15723 43.0028 1.14195 -1.15723
46 1 43.886 2.60768 0.626927 43.886 2.60768 0.626927
47 2 45.9411 2.43097 2.1443 45.9411 2.43097 2.1443
48 2 45.7191 2.8421 -1.14394 45.7191 2.8421 -1.14394
49 1 46.8608 1.00283 0.254327 46.8608 1.00283 0.254327
50 2 48.7282 50.2381 1.90524 48.7282 0.795122 1.90524
51 2 48.5767 1.04242 -1.41546 48.5767 1.04242 -1.41546
52 1 49.5846 2.55668 0.361058 49.5846 2.55668 0.361058
53 2 51.4974 2.43675 2.00914 51.4974 2.43675 2.00914
54 2 51.4826 2.66955 -1.19186 51.4826 2.66955 -1.19186
55 1 0.952707 4.17859 0.521203 0.952707 4.17859 0.521203
56 2 2.99451 4.09859 1.93455 2.99451 4.09859 1.93455
57 2 2.63392 4.25808 -1.34977 2.63392 4.25808 -1.34977
58 1 3.78633 5.85417 0.21272 3.78633 5.85417 0.21272
59 2 5.67169 5.85629 1.86338 5.67169 5.85629 1.86338
60 2 5.69734 5.99151 -1.39431 5.69734 5.99151 -1.39431
61 1 6.60519 4.24377 0.17188 6.60519 4.24377 0.17188
62 2 8.43258 4.32457 1.92886 8.43258 4.32457 1.92886
63 2 8.61728 4.18447 -1.33861 8.61728 4.18447 -1.33861
64 1 9.5563 5.8487 0.239554 9.5563 5.8487 0.239554
65 2 11.4014 6.14572 1.84329 11.4014 6.14572 1.84329
66 2 11.3271 5.67882 -1.43279 11.3271 5.67882 -1.43279
67 1 12.4354 4.30477 0.286441 12.4354 4.30477 0.286441
68 2 14.4651 4.18329 1.83846 14.4651 4.18329 1.83846
69 2 14.1338 4.37995 -1.60658 14.1338 4.37995 -1.60658
70 1 15.1883 5.95238 0.125897 15.1883 5.95238 0.125897
71 2 17.2692 6.17159 1.51076 17.2692 6.17159 1.51076
72 2 16.9664 5.8179 -1.68503 16.9664 5.8179 -1.68503
73 1 18.0947 4.34854 -0.111149 18.0947 4.34854 -0.111149
74 2 19.941 4.43601 1.47916 19.941 4.43601 1.47916
75 2 19.9524 4.18895 -1.7451 19.9524 4.18895 -1.7451
76 1 20.8927 6.01779 -0.254814 20.8927 6.01779 -0.254814
77 2 22.6508 6.02795 1.38011 22.6508 6.02795 1.38011
78 2 22.8559 5.9162 -1.86975 22.8559 5.9162 -1.86975
79 1 23.7392 4.36073 -0.0530101 23.7392 4.36073 -0.0530101
80 2 25.5345 4.37281 1.79921 25.5345 4.37281 1.79921
81 2 25.8798 4.45635 -1.42399 25.8798 4.45635 -1.42399
82 1 26.717 6.03642 0.324486 26.717 6.03642 0.324486
83 2 28.6761 5.9461 1.85745 28.6761 5.9461 1.85745
84 2 28.538 5.92232 -1.3794 28.538 5.92232 -1.3794
85 1 29.5678 4.27666 0.232568 29.5678 4.27666 0.232568
86 2 31.419 4.33516 1.95381 31.419 4.33516 1.95381
87 2 31.5292 4.25678 -1.36622 31.5292 4.25678 -1.36622
88 1 32.418 5.8952 0.349979 32.418 5.8952 0.349979
89 2 34.2182 5.95554 2.15045 34.2182 5.95554 2.15045
90 2 34.4708 5.98412 -1.11434 34.4708 5.98412 -1.11434
91 1 35.3643 4.3497 0.682575 35.3643 4.3497 0.682575
92 2 37.1656 4.28096 2.22777 37.1656 4.28096 2.22777
93 2 37.2473 4.37076 -0.973745 37.2473 4.37076 -0.973745
94 1 38.1037 6.00741 0.580395 38.1037 6.00741 0.580395
95 2 39.992 5.98548 2.24428 39.992 5.98548 2.24428
96 2 39.9943 5.76965 -0.979228 39.9943 5.76965 -0.979228
97 1 41.0034 4.27997 0.770077 41.0034 4.27997 0.770077
98 2 43.0042 4.40661 2.32426 43.0042 4.40661 2.32426
99 2 42.8271 4.18832 -0.959885 42.8271 4.18832 -0.959885
100 1 43.7973 5.96007 0.602717 43.7973 5.96007 0.602717
101 2 45.8334 6.09786 2.1181 45.8334 6.09786 2.1181
102 2 45.6327 5.8162 -1.16664 45.6327 5.8162 -1.16664
103 1 46.7417 4.28192 0.553488 46.7417 4.28192 0.553488
104 2 48.6908 4.24684 2.05984 48.6908 4.24684 2.05984
105 2 48.52 4.27267 -1.19189 48.52 4.27267 -1.19189
106 1 49.5196 5.84699 0.438383 49.5196 5.84699 0.438383
107 2 51.5492 5.97109 2.11682 51.5492 5.97109 2.11682
108 2 51.4432 5.8187 -1.12928 51.4432 5.8187 -1.12928
109 1 0.979215 7.57237 0.317273 0.979215 7.57237 0.317273
110 2 2.90883 7.39228 1.79634 2.90883 7.39228 1.79634
111 2 2.80859 7.48922 -1.47567 2.80859 7.48922 -1.47567
112 1 3.90579 9.09342 0.064401 3.90579 9.09342 0.064401
113 2 5.71136 9.0908 1.80615 5.71136 9.0908 1.80615
114 2 5.92418 9.02269 -1.51509 5.92418 9.02269 -1.51509
115 1 6.6901 7.51422 0.283316 6.6901 7.51422 0.283316
116 2 8.50665 7.3557 1.90743 8.50665 7.3557 1.90743
117 2 8.48715 7.46618 -1.33531 8.48715 7.46618 -1.33531
118 1 9.44334 9.13264 0.316194 9.44334 9.13264 0.316194
119 2 11.4775 9.23281 1.76241 11.4775 9.23281 1.76241
120 2 11.251 9.17768 -1.48764 11.251 9.17768 -1.48764
121 1 12.4175 7.56096 0.00309401 12.4175 7.56096 0.00309401
122 2 14.1577 7.7098 1.66247 14.1577 7.7098 1.66247
123 2 14.2126 7.44191 -1.56596 14.2126 7.44191 -1.56596
124 1 15.1413 9.31398 -0.167812 15.1413 9.31398 -0.167812
125 2 16.9907 9.15418 1.4567 16.9907 9.15418 1.4567
126 2 17.031 9.53966 -1.86715 17.031 9.53966 -1.86715
127 1 17.9632 7.73621 -0.31355 17.9632 7.73621 -0.31355
128 2 19.8459 7.70999 1.34821 19.8459 7.70999 1.34821
129 2 20.0369 7.68159 -1.89837 20.0369 7.68159 -1.89837
130 1 20.9566 9.3177 -0.159176 20.9566 9.3177 -0.159176
131 2 22.8879 9.18102 1.49479 22.8879 9.18102 1.49479
132 2 22.9061 9.51612 -1.81095 22.9061 9.51612 -1.81095
133 1 23.7957 7.60117 -0.235356 23.7957 7.60117 -0.235356
134 2 25.5289 7.75477 1.60509 25.5289 7.75477 1.60509
135 2 25.9343 7.47612 -1.64338 25.9343 7.47612 -1.64338
136 1 26.6822 9.30581 -0.055954 26.6822 9.30581 -0.055954
137 2 28.5003 9.42575 1.74392 28.5003 9.42575 1.74392
138 2 28.7401 9.16106 -1.46665 28.7401 9.16106 -1.46665
139 1 29.5771 7.59506 0.249893 29.5771 7.59506 0.249893
140 2 31.5236 7.67844 1.79041 31.5236 7.67844 1.79041
141 2 31.5296 7.51073 -1.37107 31.5296 7.51073 -1.37107
142 1 32.3882 9.31066 0.0866413 32.3882 9.31066 0.0866413
143 2 34.0859 9.47255 1.84633 34.0859 9.47255 1.84633
144 2 34.4922 9.09194 -1.34021 34.4922 9.09194 -1.34021
145 1 35.2736 7.60022 0.542535 35.2736 7.60022 0.542535
146 2 37.1009 7.62 2.15857 37.1009 7.62 2.15857
147 2 37.1312 7.56715 -1.05213 37.1312 7.56715 -1.05213
148 1 38.0903 9.23496 0.550056 38.0903 9.23496 0.550056
149 2 40.2293 9.52409 1.87892 40.2293 9.52409 1.87892
150 2 39.8204 8.99731 -1.23044 39.8204 8.99731 -1.23044
151 1 40.9529 7.62196 0.481997 40.9529 7.62196 0.481997
152 2 42.8927 7.75377 2.08824 42.8927 7.75377 2.08824
153 2 42.7702 7.2775 -1.22698 42.7702 7.2775 -1.22698
154 1 43.7899 9.15436 0.0969954 43.7899 9.15436 0.0969954
155 2 45.7089 9.32603 1.85968 45.7089 9.32603 1.85968
156 2 45.6905 9.10892 -1.43437 45.6905 9.10892 -1.43437
157 1 46.6674 7.58613 0.241535 46.6674 7.58613 0.241535
158 2 48.5125 7.47878 1.99188 48.5125 7.47878 1.99188
159 2 48.7581 7.50639 -1.17087 48.7581 7.50639 -1.17087
160 1 49.5973 9.18602 0.43902 49.5973 9.18602 0.43902
161 2 51.5982 9.37718 1.86384 51.5982 9.37718 1.86384
162 2 51.4223 8.9203 -1.399 51.4223 8.9203 -1.399
163 1 0.997924 10.8285 -0.0880726 0.997924 10.8285 -0.0880726
164 2 2.96029 10.8442 1.62379 2.96029 10.8442 1.62379
165 2 3.03944 10.6334 -1.71631 3.03944 10.6334 -1.71631
166 1 3.82455 12.4218 -0.0589576 3.82455 12.4218 -0.0589576
167 2 5.78296 12.692 1.61139 5.78296 12.692 1.61139
168 2 5.78548 12.2943 -1.63652 5.78548 12.2943 -1.63652
169 1 6.76982 10.8026 0.206551 6.76982 10.8026 0.206551
170 2 8.72744 11.0096 1.7082 8.72744 11.0096 1.7082
171 2 8.58555 10.5683 -1.52254 8.58555 10.5683 -1.52254
172 1 9.56242 12.5147 -0.109368 9.56242 12.5147 -0.109368
173 2 11.47 12.6492 1.61779 11.47 12.6492 1.61779
174 2 11.4906 12.5362 -1.69529 11.4906 12.5362 -1.69529
175 1 12.2666 10.9257 -0.0231943 12.2666 10.9257 -0.0231943
176 2 14.171 10.7909 1.62856 14.171 10.7909 1.62856
177 2 14.2327 11.1315 -1.68077 14.2327 11.1315 -1.68077
178 1 15.1894 12.4964 0.117359 15.1894 12.4964 0.117359
179 2 17.2854 12.5862 1.65338 17.2854 12.5862 1.65338
180 2 17.0374 12.5429 -1.60837 17.0374 12.5429 -1.60837
181 1 18.05 10.9071 -0.0333762 18.05 10.9071 -0.0333762
182 2 19.9952 10.9045 1.50338 19.9952 10.9045 1.50338
183 2 19.8803 10.9087 -1.75318 19.8803 10.9087 -1.75318
184 1 20.9478 12.5632 -0.179785 20.9478 12.5632 -0.179785
185 2 22.7771 12.5717 1.52329 22.7771 12.5717 1.52329
186 2 22.9378 12.5617 -1.74722 22.9378 12.5617 -1.74722
187 1 23.8313 10.9386 0.0150437 23.8313 10.9386 0.0150437
188 2 25.6424 10.8809 1.67174 25.6424 10.8809 1.67174
189 2 25.6016 10.9062 -1.58854 25.6016 10.9062 -1.58854
190 1 26.5962 12.5894 0.175546 26.5962 12.5894 0.175546
191 2 28.6241 12.5262 1.6841 28.6241 12.5262 1.6841
192 2 28.5835 12.4763 -1.49418 28.5835 12.4763 -1.49418
193 1 29.6039 10.9878 0.0444674 29.6039 10.9878 0.0444674
194 2 31.5427 11.0085 1.65698 31.5427 11.0085 1.65698
195 2 31.4898 10.9788 -1.57243 31.4898 10.9788 -1.57243
196 1 32.4885 12.5927 -0.00645966 32.4885 12.5927 -0.00645966
197 2 34.2904 12.6111 1.77107 34.2904 12.6111 1.77107
198 2 34.3923 12.5709 -1.60607 34.3923 12.5709 -1.60607
199 1 35.2357 10.9258 0.165478 35.2357 10.9258 0.165478
200 2 37.0966 11.0502 1.90469 37.0966 11.0502 1.90469
201 2 37.2078 10.7291 -1.31932 37.2078 10.7291 -1.31932
202 1 38.0934 12.4698 0.106042 38.0934 12.4698 0.106042
203 2 40.032 12.3997 1.72939 40.032 12.3997 1.72939
204 2 40.0453 12.6064 -1.50022 40.0453 12.6064 -1.50022
205 1 40.9501 10.8703 -0.0668537 40.9501 10.8703 -0.0668537
206 2 42.7922 10.8778 1.66439 42.7922 10.8778 1.66439
207 2 42.8724 10.6676 -1.55562 42.8724 10.6676 -1.55562
208 1 43.8046 12.5286 0.0663749 43.8046 12.5286 0.0663749
209 2 45.6349 12.4545 1.76813 45.6349 12.4545 1.76813
210 2 45.7185 12.3402 -1.49409 45.7185 12.3402 -1.49409
211 1 46.6034 10.8347 0.170181 46.6034 10.8347 0.170181
212 2 48.5147 10.884 1.81721 48.5147 10.884 1.81721
213 2 48.6708 10.6615 -1.37634 48.6708 10.6615 -1.37634
214 1 49.5169 12.4506 0.136462 49.5169 12.4506 0.136462
215 2 51.3561 12.289 1.72309 51.3561 12.289 1.72309
216 2 51.2345 12.4937 -1.55228 51.2345 12.4937 -1.55228
217 1 0.841667 14.0571 0.234071 0.841667 14.0571 0.234071
218 2 2.87494 14.0734 1.73782 2.87494 14.0734 1.73782
219 2 2.67046 14.1292 -1.50569 2.67046 14.1292 -1.50569
220 1 3.82453 15.6873 0.10043 3.82453 15.6873 0.10043
221 2 5.96217 15.7037 1.47735 5.96217 15.7037 1.47735
222 2 5.42436 15.6667 -1.77562 5.42436 15.6667 -1.77562
223 1 6.72467 14.1394 -0.322726 6.72467 14.1394 -0.322726
224 2 8.50501 14.1675 1.49582 8.50501 14.1675 1.49582
225 2 8.64909 14.2272 -1.82098 8.64909 14.2272 -1.82098
226 1 9.59365 15.7476 -0.0883199 9.59365 15.7476 -0.0883199
227 2 11.4876 15.7435 1.62048 11.4876 15.7435 1.62048
228 2 11.4759 15.8532 -1.62134 11.4759 15.8532 -1.62134
229 1 12.4297 14.2232 -0.0270485 12.4297 14.2232 -0.0270485
230 2 14.2945 14.218 1.66508 14.2945 14.218 1.66508
231 2 14.3839 14.1738 -1.72354 14.3839 14.1738 -1.72354
232 1 15.1831 15.8175 0.0283665 15.1831 15.8175 0.0283665
233 2 17.1206 15.8355 1.69258 17.1206 15.8355 1.69258
234 2 17.1556 15.9849 -1.54793 17.1556 15.9849 -1.54793
235 1 18.0935 14.1803 -0.024325 18.0935 14.1803 -0.024325
236 2 20.1275 14.149 1.49824 20.1275 14.149 1.49824
237 2 19.9062 14.179 -1.72107 19.9062 14.179 -1.72107
238 1 20.8723 15.8455 -0.174494 20.8723 15.8455 -0.174494
239 2 22.8723 16.093 1.30537 22.8723 16.093 1.30537
240 2 22.8273 15.652 -1.88231 22.8273 15.652 -1.88231
241 1 23.7898 14.2705 -0.114741 23.7898 14.2705 -0.114741
242 2 25.6892 14.4902 1.61723 25.6892 14.4902 1.61723
243 2 25.5863 14.0408 -1.70846 25.5863 14.0408 -1.70846
244 1 26.725 15.8203 -0.240672 26.725 15.8203 -0.240672
245 2 28.4039 15.7625 1.61626 28.4039 15.7625 1.61626
246 2 28.7855 15.7393 -1.66444 28.7855 15.7393 -1.66444
247 1 29.5312 14.1742 0.149432 29.5312 14.1742 0.149432
248 2 31.5163 14.1477 1.7562 31.5163 14.1477 1.7562
249 2 31.5238 14.3223 -1.46696 31.5238 14.3223 -1.46696
250 1 32.3797 15.8299 0.247527 32.3797 15.8299 0.247527
251 2 34.427 15.9265 1.81382 34.427 15.9265 1.81382
252 2 34.1688 15.8649 -1.48917 34.1688 15.8649 -1.48917
253 1 35.344 14.2975 0.0609518 35.344 14.2975 0.0609518
254 2 37.1414 14.2367 1.71896 37.1414 14.2367 1.71896
255 2 37.2497 14.2286 -1.54396 37.2497 14.2286 -1.54396
256 1 38.15 15.8596 0.131118 38.15 15.8596 0.131118
257 2 40.1251 15.9 1.78085 40.1251 15.9 1.78085
258 2 40.1079 15.9134 -1.47025 40.1079 15.9134 -1.47025
259 1 41.0312 14.1652 0.22414 41.0312 14.1652 0.22414
260 2 43.0355 14.2058 1.88041 43.0355 14.2058 1.88041
261 2 42.8811 14.2295 -1.50334 42.8811 14.2295 -1.50334
262 1 43.8733 15.8152 0.159139 43.8733 15.8152 0.159139
263 2 45.8702 15.8995 1.71373 45.8702 15.8995 1.71373
264 2 45.6905 15.7685 -1.60175 45.6905 15.7685 -1.60175
265 1 46.7227 14.0663 0.0745354 46.7227 14.0663 0.0745354
266 2 48.5451 14.2646 1.6769 48.5451 14.2646 1.6769
267 2 48.5842 14.0862 -1.59053 48.5842 14.0862 -1.59053
268 1 49.5201 15.8386 -0.0786557 49.5201 15.8386 -0.0786557
269 2 51.4312 15.8172 1.61535 51.4312 15.8172 1.61535
270 2 51.496 15.5321 -1.54635 51.496 15.5321 -1.54635
271 1 0.995662 17.4705 -0.166439 0.995662 17.4705 -0.166439
272 2 2.87708 17.5557 1.45047 2.87708 17.5557 1.45047
273 2 2.88935 17.2647 -1.79235 2.88935 17.2647 -1.79235
274 1 3.87682 19.0628 -0.293795 3.87682 19.0628 -0.293795
275 2 5.77269 19.0905 1.3092 5.77269 19.0905 1.3092
276 2 5.8695 19.045 -1.89433 5.8695 19.045 -1.89433
277 1 6.71327 17.3463 -0.263361 6.71327 17.3463 -0.263361
278 2 8.58707 17.5625 1.38042 8.58707 17.5625 1.38042
279 2 8.6062 17.1654 -1.87544 8.6062 17.1654 -1.87544
280 1 9.52571 19.0522 -0.368116 9.52571 19.0522 -0.368116
281 2 11.3787 19.364 1.34138 11.3787 19.364 1.34138
282 2 11.5039 18.8569 -1.93572 11.5039 18.8569 -1.93572
283 1 12.3849 17.5615 0.0113545 12.3849 17.5615 0.0113545
284 2 14.4331 17.6529 1.51128 14.4331 17.6529 1.51128
285 2 14.0985 17.4454 -1.71734 14.0985 17.4454 -1.71734
286 1 15.1767 19.1792 -0.376307 15.1767 19.1792 -0.376307
287 2 16.8981 19.3263 1.485 16.8981 19.3263 1.485
288 2 17.2766 19.029 -1.81749 17.2766 19.029 -1.81749
289 1 18.0683 17.5243 0.168163 18.0683 17.5243 0.168163
290 2 20.0924 17.4888 1.57384 20.0924 17.4888 1.57384
291 2 19.81 17.5324 -1.69592 19.81 17.5324 -1.69592
292 1 20.8292 19.1813 -0.168881 20.8292 19.1813 -0.168881
293 2 22.964 19.1053 1.24146 22.964 19.1053 1.24146
294 2 22.6458 19.2428 -2.03626 22.6458 19.2428 -2.03626
295 1 23.754 17.5233 -0.548857 23.754 17.5233 -0.548857
296 2 25.6204 17.6124 1.24693 25.6204 17.6124 1.24693
297 2 25.8581 17.4516 -2.00757 25.8581 17.4516 -2.00757
298 1 26.7725 19.0969 -0.342263 26.7725 19.0969 -0.342263
299 2 28.4148 19.1741 1.50517 28.4148 19.1741 1.50517
300 2 28.8089 19.0289 -1.74939 28.8089 19.0289 -1.74939
301 1 29.5187 17.5277 0.0341244 29.5187 17.5277 0.0341244
302 2 31.3583 17.5957 1.68973 31.3583 17.5957 1.68973
303 2 31.4547 17.4989 -1.58998 31.4547 17.4989 -1.58998
304 1 32.3755 19.1362 -0.0517388 32.3755 19.1362 -0.0517388
305 2 34.1757 19.1758 1.74734 34.1757 19.1758 1.74734
306 2 34.3752 19.1222 -1.59682 34.3752 19.1222 -1.59682
307 1 35.2053 17.5636 0.192359 35.2053 17.5636 0.192359
308 2 37.341 17.5802 1.67643 37.341 17.5802 1.67643
309 2 37.0181 17.3815 -1.56114 37.0181 17.3815 -1.56114
310 1 38.1633 19.2065 -0.0602103 38.1633 19.2065 -0.0602103
311 2 39.9575 19.1911 1.62349 39.9575 19.1911 1.62349
312 2 40.0825 19.1149 -1.65638 40.0825 19.1149 -1.65638
313 1 41.0474 17.576 0.0932053 41.0474 17.576 0.0932053
314 2 43.0131 17.6917 1.64531 43.0131 17.6917 1.64531
315 2 42.8009 17.2109 -1.60205 42.8009 17.2109 -1.60205
316 1 43.8767 19.102 -0.253582 43.8767 19.102 -0.253582
317 2 45.8402 19.1967 1.42119 45.8402 19.1967 1.42119
318 2 45.8663 18.9744 -1.87366 45.8663 18.9744 -1.87366
319 1 46.8599 17.4045 -0.0689751 46.8599 17.4045 -0.0689751
320 2 48.7591 17.4817 1.53813 48.7591 17.4817 1.53813
321 2 48.7352 17.4471 -1.77387 48.7352 17.4471 -1.77387
322 1 49.5988 19.1218 -0.113118 49.5988 19.1218 -0.113118
323 2 51.594 19.25 1.44437 51.594 19.25 1.44437
324 2 51.4843 19.1515 -1.78181 51.4843 19.1515 -1.78181
325 1 1.05005 20.7585 -0.256733 1.05005 20.7585 -0.256733
326 2 2.88225 20.7286 1.39864 2.88225 20.7286 1.39864
327 2 3.08967 20.8219 -1.77626 3.08967 20.8219 -1.77626
328 1 3.84819 22.4514 -0.131297 3.84819 22.4514 -0.131297
329 2 5.91726 22.5368 1.24968 5.91726 22.5368 1.24968
330 2 5.64364 22.3347 -2.01171 5.64364 22.3347 -2.01171
331 1 6.68998 20.7807 -0.361872 6.68998 20.7807 -0.361872
332 2 8.57848 20.66 1.24759 8.57848 20.66 1.24759
333 2 8.64151 20.6459 -2.10686 8.64151 20.6459 -2.10686
334 1 9.57252 22.4249 -0.333256 9.57252 22.4249 -0.333256
335 2 11.6079 22.3963 1.15866 11.6079 22.3963 1.15866
336 2 11.3393 22.516 -2.15029 11.3393 22.516 -2.15029
337 1 12.3393 20.8032 -0.526406 12.3393 20.8032 -0.526406
338 2 14.1353 20.849 1.18508 14.1353 20.849 1.18508
339 2 14.1459 20.7774 -2.03229 14.1459 20.7774 -2.03229
340 1 15.2152 22.4532 -0.443663 15.2152 22.4532 -0.443663
341 2 16.9798 22.587 1.20463 16.9798 22.587 1.20463
342 2 17.0997 22.3999 -2.01966 17.0997 22.3999 -2.01966
343 1 18.1003 20.9272 -0.209406 18.1003 20.9272 -0.209406
344 2 19.9524 20.9718 1.42758 19.9524 20.9718 1.42758
345 2 19.8862 20.7885 -1.82252 19.8862 20.7885 -1.82252
346 1 20.9712 22.5374 -0.281781 20.9712 22.5374 -0.281781
347 2 22.9746 22.5444 1.17749 22.9746 22.5444 1.17749
348 2 22.7978 22.4036 -2.05977 22.7978 22.4036 -2.05977
349 1 23.8486 20.775 -0.45337 23.8486 20.775 -0.45337
350 2 25.6577 20.7936 1.28364 25.6577 20.7936 1.28364
351 2 25.7991 20.6173 -1.97768 25.7991 20.6173 -1.97768
352 1 26.6459 22.3345 -0.383753 26.6459 22.3345 -0.383753
353 2 28.4546 22.4566 1.38565 28.4546 22.4566 1.38565
354 2 28.6233 22.2599 -1.9427 28.6233 22.2599 -1.9427
355 1 29.5567 20.8266 -0.0986155 29.5567 20.8266 -0.0986155
356 2 31.2797 20.7237 1.69903 31.2797 20.7237 1.69903
357 2 31.4557 20.7655 -1.6783 31.4557 20.7655 -1.6783
358 1 32.3508 22.4279 0.162522 32.3508 22.4279 0.162522
359 2 34.2779 22.4861 1.73546 34.2779 22.4861 1.73546
360 2 34.2618 22.599 -1.47997 34.2618 22.599 -1.47997
361 1 35.2296 20.8681 0.070609 35.2296 20.8681 0.070609
362 2 37.1563 20.7399 1.66318 37.1563 20.7399 1.66318
363 2 37.1908 20.8825 -1.60995 37.1908 20.8825 -1.60995
364 1 38.1584 22.4649 0.0697489 38.1584 22.4649 0.0697489
365 2 40.0413 22.3565 1.7389 40.0413 22.3565 1.7389
366 2 40.1502 22.6365 -1.52083 40.1502 22.6365 -1.52083
367 1 41.0182 20.8754 -0.0374004 41.0182 20.8754 -0.0374004
368 2 43.0313 20.7481 1.47849 43.0313 20.7481 1.47849
369 2 42.7944 20.8147 -1.71083 42.7944 20.8147 -1.71083
370 1 43.8068 22.4267 -0.116205 43.8068 22.4267 -0.116205
371 2 45.9255 22.2949 1.40517 45.9255 22.2949 1.40517
372 2 45.6434 22.4566 -1.91793 45.6434 22.4566 -1.91793
373 1 46.7103 20.7298 -0.359215 46.7103 20.7298 -0.359215
374 2 48.5794 20.8503 1.28951 48.5794 20.8503 1.28951
375 2 48.6251 20.6299 -1.83615 48.6251 20.6299 -1.83615
376 1 49.5718 22.3412 -0.303749 49.5718 22.3412 -0.303749
377 2 51.5032 22.2841 1.32269 51.5032 22.2841 1.32269
378 2 51.4305 22.2833 -1.92652 51.4305 22.2833 -1.92652
379 1 1.04448 24.0347 -0.290152 1.04448 24.0347 -0.290152
380 2 2.80477 24.1575 1.37249 2.80477 24.1575 1.37249
381 2 2.97823 23.9947 -1.83685 2.97823 23.9947 -1.83685
382 1 3.84426 25.7707 -0.268264 3.84426 25.7707 -0.268264
383 2 5.89221 25.7886 1.11842 5.89221 25.7886 1.11842
384 2 5.55348 25.6755 -2.09638 5.55348 25.6755 -2.09638
385 1 6.6825 24.1406 -0.531339 6.6825 24.1406 -0.531339
386 2 8.54489 24.2551 1.12692 8.54489 24.2551 1.12692
387 2 8.49751 23.9559 -2.1058 8.49751 23.9559 -2.1058
388 1 9.58684 25.7602 -0.653803 9.58684 25.7602 -0.653803
389 2 11.457 25.8752 0.978992 11.457 25.8752 0.978992
390 2 11.456 25.6506 -2.25846 11.456 25.6506 -2.25846
391 1 12.3873 24.0823 -0.501862 12.3873 24.0823 -0.501862
392 2 14.3658 24.298 1.12285 14.3658 24.298 1.12285
393 2 14.1778 24.065 -2.17309 14.1778 24.065 -2.17309
394 1 15.1955 25.7024 -0.67005 15.1955 25.7024 -0.67005
395 2 17.1348 25.9298 0.942869 17.1348 25.9298 0.942869
396 2 17.1205 25.6614 -2.32005 17.1205 25.6614 -2.32005
397 1 18.0868 24.144 -0.564589 18.0868 24.144 -0.564589
398 2 19.835 24.2807 1.21874 19.835 24.2807 1.21874
399 2 20.1946 24.1153 -2.13447 20.1946 24.1153 -2.13447
400 1 20.97 25.7959 -0.39943 20.97 25.7959 -0.39943
401 2 23.0396 25.845 1.08291 23.0396 25.845 1.08291
402 2 22.7533 25.5974 -2.22601 22.7533 25.5974 -2.22601
403 1 23.8519 24.0986 -0.60177 23.8519 24.0986 -0.60177
404 2 25.6697 24.2693 1.01867 25.6697 24.2693 1.01867
405 2 25.7108 23.9223 -2.1728 25.7108 23.9223 -2.1728
406 1 26.7401 25.6909 -0.709341 26.7401 25.6909 -0.709341
407 2 28.5469 26.0064 1.01202 28.5469 26.0064 1.01202
408 2 28.7155 25.4633 -2.25174 28.7155 25.4633 -2.25174
409 1 29.4334 24.0978 -0.243354 29.4334 24.0978 -0.243354
410 2 31.2105 24.2135 1.60183 31.2105 24.2135 1.60183
411 2 31.5033 24.0169 -1.61331 31.5033 24.0169 -1.61331
412 1 32.3873 25.7397 0.0547812 32.3873 25.7397 0.0547812
413 2 34.4112 25.8967 1.70119 34.4112 25.8967 1.70119
414 2 34.3061 25.5512 -1.57901 34.3061 25.5512 -1.57901
415 1 35.2622 24.1086 0.209571 35.2622 24.1086 0.209571
416 2 37.2535 24.1979 1.64203 37.2535 24.1979 1.64203
417 2 37.1116 24.09 -1.55711 37.1116 24.09 -1.55711
418 1 38.1227 25.7605 0.0043576 38.1227 25.7605 0.0043576
419 2 39.9477 25.7753 1.84022 39.9477 25.7753 1.84022
420 2 40.0568 25.7226 -1.48888 40.0568 25.7226 -1.48888
421 1 41.0098 24.136 0.229817 41.0098 24.136 0.229817
422 2 42.9803 24.0412 1.76539 42.9803 24.0412 1.76539
423 2 42.7823 24.2382 -1.62601 42.7823 24.2382 -1.62601
424 1 43.8851 25.718 0.126266 43.8851 25.718 0.126266
425 2 46.0318 25.5861 1.52498 46.0318 25.5861 1.52498
426 2 45.669 25.7421 -1.70031 45.669 25.7421 -1.70031
427 1 46.7356 24.065 -0.284133 46.7356 24.065 -0.284133
428 2 48.6987 23.9741 1.30318 48.6987 23.9741 1.30318
429 2 48.5533 24.0041 -1.98343 48.5533 24.0041 -1.98343
430 1 49.5792 25.6528 -0.235434 49.5792 25.6528 -0.235434
431 2 51.5324 25.6619 1.40449 51.5324 25.6619 1.40449
432 2 51.4745 25.6821 -1.88533 51.4745 25.6821 -1.88533
433 1 1.01324 27.3453 -0.362061 1.01324 27.3453 -0.362061
434 2 2.9 27.6077 1.21984 2.9 27.6077 1.21984
435 2 2.84508 27.1486 -2.01764 2.84508 27.1486 -2.01764
436 1 3.84402 28.9426 -0.603707 3.84402 28.9426 -0.603707
437 2 5.74887 28.8663 1.05651 5.74887 28.8663 1.05651
438 2 5.74205 29.1485 -2.15784 5.74205 29.1485 -2.15784
439 1 6.70165 27.4106 -0.6719 6.70165 27.4106 -0.6719
440 2 8.63198 27.3398 1.05085 8.63198 27.3398 1.05085
441 2 8.65735 27.4801 -2.22859 8.65735 27.4801 -2.22859
442 1 9.57287 29.0504 -0.546008 9.57287 29.0504 -0.546008
443 2 11.5859 29.0528 0.976194 11.5859 29.0528 0.976194
444 2 11.398 29.2389 -2.25907 11.398 29.2389 -2.25907
445 1 12.4808 27.358 -0.78429 12.4808 27.358 -0.78429
446 2 14.3021 27.3897 0.878297 14.3021 27.3897 0.878297
447 2 14.3819 27.2734 -2.34743 14.3819 27.2734 -2.34743
448 1 15.2669 29.0111 -0.76282 15.2669 29.0111 -0.76282
449 2 17.1486 29.1102 0.83169 17.1486 29.1102 0.83169
450 2 17.1622 29.0366 -2.44435 17.1622 29.0366 -2.44435
451 1 18.065 27.3579 -0.768981 18.065 27.3579 -0.768981
452 2 19.9676 27.5153 0.974806 19.9676 27.5153 0.974806
453 2 20.1586 27.4141 -2.30214 20.1586 27.4141 -2.30214
454 1 20.9951 29.0576 -0.734494 20.9951 29.0576 -0.734494
455 2 22.866 29.0417 0.900847 22.866 29.0417 0.900847
456 2 22.8599 29.1072 -2.37332 22.8599 29.1072 -2.37332
457 1 23.9211 27.3699 -0.793954 23.9211 27.3699 -0.793954
458 2 25.798 27.4855 0.882721 25.798 27.4855 0.882721
459 2 25.9465 27.2974 -2.39635 25.9465 27.2974 -2.39635
460 1 26.6984 29.0566 -0.811906 26.6984 29.0566 -0.811906
461 2 28.6386 29.1114 0.717958 28.6386 29.1114 0.717958
462 2 28.5518 28.8743 -2.53741 28.5518 28.8743 -2.53741
463 1 29.5768 27.2544 -0.831411 29.5768 27.2544 -0.831411
464 2 31.2029 27.5723 1.14376 31.2029 27.5723 1.14376
465 2 31.7568 27.096 -2.04073 31.7568 27.096 -2.04073
466 1 32.4238 28.9595 -0.493614 32.4238 28.9595 -0.493614
467 2 34.2092 29.1693 1.19418 34.2092 29.1693 1.19418
468 2 34.4132 28.7947 -1.98254 34.4132 28.7947 -1.98254
469 1 35.2587 27.3933 -0.0425028 35.2587 27.3933 -0.0425028
470 2 37.2104 27.4991 1.51673 37.2104 27.4991 1.51673
471 2 37.0853 27.2368 -1.7729 37.0853 27.2368 -1.7729
472 1 38.1831 29.0346 -0.330543 38.1831 29.0346 -0.330543
473 2 39.9413 29.1814 1.57092 39.9413 29.1814 1.57092
474 2 40.316 28.8427 -1.72225 40.316 28.8427 -1.72225
475 1 41.1061 27.394 0.245101 41.1061 27.394 0.245101
476 2 43.1937 27.4196 1.60803 43.1937 27.4196 1.60803
477 2 42.8565 27.2417 -1.54725 42.8565 27.2417 -1.54725
478 1 43.9652 29.0315 -0.222972 43.9652 29.0315 -0.222972
479 2 45.752 29.0496 1.474 45.752 29.0496 1.474
480 2 45.8936 28.9192 -1.86175 45.8936 28.9192 -1.86175
481 1 46.6999 27.3015 -0.105327 46.6999 27.3015 -0.105327
482 2 48.725 27.5291 1.34323 48.725 27.5291 1.34323
483 2 48.5599 27.2563 -1.91957 48.5599 27.2563 -1.91957
484 1 49.6189 28.9816 -0.45983 49.6189 28.9816 -0.45983
485 2 51.4686 29.0343 1.20429 51.4686 29.0343 1.20429
486 2 51.647 28.9373 -1.97282 51.647 28.9373 -1.97282
487 1 1.02633 30.6264 -0.291423 1.02633 30.6264 -0.291423
488 2 3.11801 30.595 1.09971 3.11801 30.595 1.09971
489 2 2.66711 30.5905 -2.16528 2.66711 30.5905 -2.16528
490 1 3.85715 32.2916 -0.653655 3.85715 32.2916 -0.653655
491 2 5.54988 32.2361 1.18628 5.54988 32.2361 1.18628
492 2 5.94151 32.4101 -2.07764 5.94151 32.4101 -2.07764
493 1 6.70124 30.707 -0.442192 6.70124 30.707 -0.442192
494 2 8.66751 30.4819 1.298 8.66751 30.4819 1.298
495 2 8.66317 30.8995 -2.02789 8.66317 30.8995 -2.02789
496 1 9.59399 32.405 -0.192691 9.59399 32.405 -0.192691
497 2 11.7509 32.4364 1.04719 11.7509 32.4364 1.04719
498 2 11.2354 32.2736 -2.11166 11.2354 32.2736 -2.11166
499 1 12.4051 30.759 -0.604448 12.4051 30.759 -0.604448
500 2 14.318 30.6692 0.889294 14.318 30.6692 0.889294
501 2 14.3373 30.7014 -2.29394 14.3373 30.7014 -2.29394
502 1 15.3404 32.3209 -0.604913 15.3404 32.3209 -0.604913
503 2 17.3019 32.4158 0.914428 17.3019 32.4158 0.914428
504 2 17.0302 32.2536 -2.37554 17.0302 32.2536 -2.37554
505 1 18.0759 30.6715 -0.755395 18.0759 30.6715 -0.755395
506 2 20.0196 30.8261 0.896845 20.0196 30.8261 0.896845
507 2 19.9767 30.5347 -2.42246 19.9767 30.5347 -2.42246
508 1 21.0126 32.3015 -0.933775 21.0126 32.3015 -0.933775
509 2 22.9048 32.3733 0.851133 22.9048 32.3733 0.851133
510 2 22.9983 32.3697 -2.47634 22.9983 32.3697 -2.47634
511 1 23.8421 30.7086 -0.774409 23.8421 30.7086 -0.774409
512 2 25.8555 30.8508 0.775743 25.8555 30.8508 0.775743
513 2 25.6784 30.6531 -2.47084 25.6784 30.6531 -2.47084
514 1 26.7564 32.4006 -0.921484 26.7564 32.4006 -0.921484
515 2 28.5425 32.1257 0.787972 28.5425 32.1257 0.787972
516 2 28.7508 32.4544 -2.45403 28.7508 32.4544 -2.45403
517 1 29.5231 30.6474 -0.970935 29.5231 30.6474 -0.970935
518 2 31.2672 30.6592 0.905015 31.2672 30.6592 0.905015
519 2 31.7147 30.5211 -2.2969 31.7147 30.5211 -2.2969
520 1 32.4442 32.1882 -0.584193 32.4442 32.1882 -0.584193
521 2 34.4332 32.2951 1.12067 34.4332 32.2951 1.12067
522 2 34.3762 32.2869 -2.18008 34.3762 32.2869 -2.18008
523 1 35.2675 30.6609 -0.558889 35.2675 30.6609 -0.558889
524 2 37.0649 30.641 1.2497 37.0649 30.641 1.2497
525 2 37.3158 30.6471 -2.0593 37.3158 30.6471 -2.0593
526 1 38.1657 32.2967 -0.260505 38.1657 32.2967 -0.260505
527 2 39.9674 32.4125 1.39163 39.9674 32.4125 1.39163
528 2 40.0379 32.2232 -1.77837 40.0379 32.2232 -1.77837
529 1 41.0882 30.6687 -0.0963441 41.0882 30.6687 -0.0963441
530 2 43.06 30.7075 1.40162 43.06 30.7075 1.40162
531 2 42.8492 30.6348 -1.8327 42.8492 30.6348 -1.8327
532 1 43.9297 32.3313 -0.353604 43.9297 32.3313 -0.353604
533 2 45.7371 32.2706 1.35611 45.7371 32.2706 1.35611
534 2 45.8576 32.258 -1.92773 45.8576 32.258 -1.92773
535 1 46.8602 30.6312 -0.271212 46.8602 30.6312 -0.271212
536 2 48.7636 30.6395 1.3518 48.7636 30.6395 1.3518
537 2 48.7339 30.6835 -1.97813 48.7339 30.6835 -1.97813
538 1 49.6643 32.3178 -0.282646 49.6643 32.3178 -0.282646
539 2 51.6072 32.3681 1.2792 51.6072 32.3681 1.2792