ITEM: TIMESTEP
10400
ITEM: NUMBER OF ATOMS
810
ITEM: BOX BOUNDS pp pp pp
8.3685706191231812e-01 5.2180747938088210e+01
7.5299623811399086e-01 5.0263218761885156e+01
-1.0000000000000000e+01 1.0000000000000000e+01
ITEM: ATOMS id type x y z xu yu zu
1 1 0.956346 0.950501 -0.360012 0.956346 0.950501 -0.360012
2 2 2.85124 1.09503 1.27136 2.85124 1.09503 1.27136
3 2 2.91841 1.0242 -2.03139 2.91841 1.0242 -2.03139
4 1 3.86277 2.69597 -0.337258 3.86277 2.69597 -0.337258
5 2 5.73982 2.69865 1.35756 5.73982 2.69865 1.35756
6 2 5.72112 2.88316 -1.93825 5.72112 2.88316 -1.93825
7 1 6.7266 1.09105 -0.371968 6.7266 1.09105 -0.371968
8 2 8.38539 1.24702 1.52096 8.38539 1.24702 1.52096
9 2 8.91099 0.8836 -1.6582 8.91099 0.8836 -1.6582
10 1 9.64613 2.65828 -0.123935 9.64613 2.65828 -0.123935
11 2 11.3469 2.86016 1.62517 11.3469 2.86016 1.62517
12 2 11.6269 2.46629 -1.59527 11.6269 2.46629 -1.59527
13 1 12.4348 0.956027 0.239657 12.4348 0.956027 0.239657
14 2 14.5732 0.858331 1.73348 14.5732 0.858331 1.73348
15 2 14.1609 1.00275 -1.47626 14.1609 1.00275 -1.47626
16 1 15.2862 2.56397 0.0947948 15.2862 2.56397 0.0947948
17 2 17.3954 2.36589 1.62464 17.3954 2.36589 1.62464
18 2 17.2383 2.69157 -1.60925 17.2383 2.69157 -1.60925
19 1 18.1118 0.886437 -0.185167 18.1118 0.886437 -0.185167
20 2 20.1913 0.873583 1.27883 20.1913 0.873583 1.27883
21 2 20.0217 0.957744 -1.95261 20.0217 0.957744 -1.95261
22 1 21.0578 2.53103 -0.413622 21.0578 2.53103 -0.413622
23 2 23.0458 2.2784 1.19475 23.0458 2.2784 1.19475
24 2 22.9363 2.78795 -2.04652 22.9363 2.78795 -2.04652
25 1 23.9214 0.911986 -0.582602 23.9214 0.911986 -0.582602
26 2 25.6772 0.930195 1.24171 25.6772 0.930195 1.24171
27 2 25.9266 50.5333 -1.93734 25.9266 1.0231 -1.93734
28 1 26.7913 2.66397 -0.192725 26.7913 2.66397 -0.192725
29 2 28.6736 2.60042 1.38564 28.6736 2.60042 1.38564
30 2 28.5602 2.75695 -1.86762 28.5602 2.75695 -1.86762
31 1 29.6191 0.977751 -0.368596 29.6191 0.977751 -0.368596
32 2 31.3906 0.733526 1.38871 31.3906 0.733526 1.38871
33 2 31.5583 1.03702 -1.90341 31.5583 1.03702 -1.90341
34 1 32.384 2.58451 -0.106103 32.384 2.58451 -0.106103
35 2 34.3748 2.55616 1.43246 34.3748 2.55616 1.43246
36 2 34.1352 2.73692 -1.88172 34.1352 2.73692 -1.88172
37 1 35.2618 0.963353 -0.363126 35.2618 0.963353 -0.363126
38 2 37.1381 0.995031 1.3326 37.1381 0.995031 1.3326
39 2 37.1854 1.10772 -1.98988 37.1854 1.10772 -1.98988
40 1 38.1419 2.68219 -0.308512 38.1419 2.68219 -0.308512
41 2 40.1179 2.77946 1.09148 40.1179 2.77946 1.09148
42 2 39.8231 2.69876 -2.18119 39.8231 2.69876 -2.18119
43 1 40.9987 1.0587 -0.706757 40.9987 1.0587 -0.706757
44 2 42.9224 1.13596 0.907705 42.9224 1.13596 0.907705
45 2 42.8504 0.967983 -2.3415 42.8504 0.967983 -2.3415
46 1 43.8621 2.73954 -0.835634 43.8621 2.73954 -0.835634
47 2 45.7405 2.92285 0.792081 45.7405 2.92285 0.792081
48 2 45.7442 2.32695 -2.41311 45.7442 2.32695 -2.41311
49 1 46.6426 0.963792 -0.624624 46.6426 0.963792 -0.624624
50 2 48.6217 1.16119 0.898219 48.6217 1.16119 0.898219
51 2 48.4842 0.797874 -2.38331 48.4842 0.797874 -2.38331
52 1 49.4762 2.58532 -0.941293 49.4762 2.58532 -0.941293
53 2 51.1668 2.77093 0.965902 51.1668 2.77093 0.965902
54 2 51.58 2.54755 -2.25812 51.58 2.54755 -2.25812
55 1 0.994588 4.23164 -0.652788 0.994588 4.23164 -0.652788
56 2 2.84603 4.53266 0.981279 2.84603 4.53266 0.981279
57 2 2.91541 4.02232 -2.21045 2.91541 4.02232 -2.21045
58 1 3.87641 5.91064 -0.896388 3.87641 5.91064 -0.896388
59 2 5.54895 6.22374 0.95182 5.54895 6.22374 0.95182
60 2 5.99209 5.62878 -2.17497 5.99209 5.62878 -2.17497
61 1 6.80272 4.31327 -0.220725 6.80272 4.31327 -0.220725
62 2 8.62135 4.3836 1.33347 8.62135 4.3836 1.33347
63 2 8.73049 4.22532 -2.0081 8.73049 4.22532 -2.0081
64 1 9.61287 5.92856 -0.410895 9.61287 5.92856 -0.410895
65 2 11.2279 6.00885 1.39632 11.2279 6.00885 1.39632
66 2 11.5908 5.95844 -1.8662 11.5908 5.95844 -1.8662
67 1 12.4748 4.26815 -0.0540439 12.4748 4.26815 -0.0540439
68 2 14.2976 4.18926 1.73132 14.2976 4.18926 1.73132
69 2 14.5855 4.37625 -1.5591 14.5855 4.37625 -1.5591
70 1 15.3254 5.96227 0.238203 15.3254 5.96227 0.238203
71 2 17.2767 5.95279 1.77607 17.2767 5.95279 1.77607
72 2 17.2774 5.89673 -1.53832 17.2774 5.89673 -1.53832
73 1 18.2601 4.24029 0.21926 18.2601 4.24029 0.21926
74 2 20.2634 4.07951 1.5114 20.2634 4.07951 1.5114
75 2 19.8083 4.22568 -1.69812 19.8083 4.22568 -1.69812
76 1 21.0141 5.85117 -0.20847 21.0141 5.85117 -0.20847
77 2 22.9843 5.8696 1.40537 22.9843 5.8696 1.40537
78 2 22.832 5.8811 -1.7861 22.832 5.8811 -1.7861
79 1 23.8958 4.20397 -0.241891 23.8958 4.20397 -0.241891
80 2 25.7482 4.30629 1.41204 25.7482 4.30629 1.41204
81 2 25.8547 4.29982 -1.83602 25.8547 4.29982 -1.83602
82 1 26.7894 5.86909 -0.170108 26.7894 5.86909 -0.170108
83 2 28.6943 6.04816 1.36167 28.6943 6.04816 1.36167
84 2 28.7006 5.89468 -1.87926 28.7006 5.89468 -1.87926
85 1 29.6928 4.32162 -0.0836101 29.6928 4.32162 -0.0836101
86 2 31.6136 4.42765 1.34866 31.6136 4.42765 1.34866
87 2 31.3942 4.12427 -1.85398 31.3942 4.12427 -1.85398
88 1 32.4579 5.98437 -0.523828 32.4579 5.98437 -0.523828
89 2 34.1726 6.10467 1.27241 34.1726 6.10467 1.27241
90 2 34.348 5.81946 -2.04981 34.348 5.81946 -2.04981
91 1 35.2071 4.3002 -0.138748 35.2071 4.3002 -0.138748
92 2 37.4052 4.33918 1.23242 37.4052 4.33918 1.23242
93 2 36.9645 3.99302 -2.01545 36.9645 3.99302 -2.01545
94 1 38.0751 5.8837 -0.636931 38.0751 5.8837 -0.636931
95 2 40.1034 6.01383 0.923437 40.1034 6.01383 0.923437
96 2 39.9454 6.02556 -2.29621 39.9454 6.02556 -2.29621
97 1 40.9516 4.35249 -0.681029 40.9516 4.35249 -0.681029
98 2 42.9335 4.44856 0.930983 42.9335 4.44856 0.930983
99 2 42.7095 4.43535 -2.48745 42.7095 4.43535 -2.48745
100 1 43.7317 5.99206 -0.793641 43.7317 5.99206 -0.793641
101 2 45.7202 5.98174 0.732027 45.7202 5.98174 0.732027
102 2 45.5433 6.00186 -2.51633 45.5433 6.00186 -2.51633
103 1 46.6551 4.27079 -1.09422 46.6551 4.27079 -1.09422
104 2 48.6226 4.30359 0.524918 48.6226 4.30359 0.524918
105 2 48.4943 4.07136 -2.76451 48.4943 4.07136 -2.76451
106 1 49.472 5.77989 -1.21473 49.472 5.77989 -1.21473
107 2 51.2329 6.14628 0.599812 51.2329 6.14628 0.599812
108 2 51.5162 5.61854 -2.6329 51.5162 5.61854 -2.6329
109 1 0.958776 7.61301 -1.17851 0.958776 7.61301 -1.17851
110 2 2.80879 7.63373 0.536478 2.80879 7.63373 0.536478
111 2 2.95885 7.49855 -2.68579 2.95885 7.49855 -2.68579
112 1 3.87668 9.31212 -1.01494 3.87668 9.31212 -1.01494
113 2 5.64105 9.32432 0.752851 5.64105 9.32432 0.752851
114 2 5.88109 9.2189 -2.50334 5.88109 9.2189 -2.50334
115 1 6.7786 7.62849 -0.794664 6.7786 7.62849 -0.794664
116 2 8.46827 7.74395 0.98301 8.46827 7.74395 0.98301
117 2 8.74281 7.4604 -2.29543 8.74281 7.4604 -2.29543
118 1 9.57246 9.19974 -0.721081 9.57246 9.19974 -0.721081
119 2 11.0374 9.26444 1.21817 11.0374 9.26444 1.21817
120 2 11.7121 9.14382 -2.05262 11.7121 9.14382 -2.05262
121 1 12.4199 7.53864 -0.157445 12.4199 7.53864 -0.157445
122 2 14.2358 7.83847 1.49705 14.2358 7.83847 1.49705
123 2 14.4199 7.32639 -1.69557 14.4199 7.32639 -1.69557
124 1 15.2978 9.1598 -0.256367 15.2978 9.1598 -0.256367
125 2 17.1244 9.22971 1.62602 17.1244 9.22971 1.62602
126 2 17.3869 9.16398 -1.76578 17.3869 9.16398 -1.76578
127 1 18.2204 7.63232 0.0496645 18.2204 7.63232 0.0496645
128 2 20.3099 7.64801 1.42173 20.3099 7.64801 1.42173
129 2 19.9506 7.41276 -1.76631 19.9506 7.41276 -1.76631
130 1 21.1503 9.1392 -0.336395 21.1503 9.1392 -0.336395
131 2 23.1137 9.17772 1.31912 23.1137 9.17772 1.31912
132 2 23.037 9.16244 -1.91082 23.037 9.16244 -1.91082
133 1 23.9058 7.50354 -0.290555 23.9058 7.50354 -0.290555
134 2 25.7816 7.54704 1.27721 25.7816 7.54704 1.27721
135 2 25.7306 7.3736 -1.97943 25.7306 7.3736 -1.97943
136 1 26.6632 9.2224 -0.467899 26.6632 9.2224 -0.467899
137 2 28.5495 9.31925 1.26835 28.5495 9.31925 1.26835
138 2 28.5729 9.28684 -2.09939 28.5729 9.28684 -2.09939
139 1 29.4969 7.64678 -0.376425 29.4969 7.64678 -0.376425
140 2 31.6063 7.64496 1.11982 31.6063 7.64496 1.11982
141 2 31.4057 7.57704 -2.17925 31.4057 7.57704 -2.17925
142 1 32.3471 9.29184 -0.642015 32.3471 9.29184 -0.642015
143 2 34.1111 9.23398 1.14278 34.1111 9.23398 1.14278
144 2 34.305 9.04595 -2.19388 34.305 9.04595 -2.19388
145 1 35.2432 7.61524 -0.479705 35.2432 7.61524 -0.479705
146 2 37.2564 7.5165 1.00358 37.2564 7.5165 1.00358
147 2 36.837 7.52356 -2.28532 36.837 7.52356 -2.28532
148 1 38.1681 9.10929 -0.832359 38.1681 9.10929 -0.832359
149 2 39.969 9.32278 0.874348 39.969 9.32278 0.874348
150 2 40.1119 9.0946 -2.29076 40.1119 9.0946 -2.29076
151 1 40.936 7.62539 -0.605816 40.936 7.62539 -0.605816
152 2 42.9373 7.72213 0.851595 42.9373 7.72213 0.851595
153 2 42.6759 7.68439 -2.42058 42.6759 7.68439 -2.42058
154 1 43.7792 9.35071 -0.880868 43.7792 9.35071 -0.880868
155 2 45.6672 9.13641 0.792086 45.6672 9.13641 0.792086
156 2 45.8329 9.40868 -2.47457 45.8329 9.40868 -2.47457
157 1 46.6314 7.62964 -0.916221 46.6314 7.62964 -0.916221
158 2 48.5736 7.43046 0.653204 48.5736 7.43046 0.653204
159 2 48.4268 7.73814 -2.58913 48.4268 7.73814 -2.58913
160 1 49.4877 9.21708 -0.796692 49.4877 9.21708 -0.796692
161 2 51.5694 9.07671 0.664311 51.5694 9.07671 0.664311
162 2 51.2176 9.26795 -2.65787 51.2176 9.26795 -2.65787
163 1 0.94915 10.8661 -0.995414 0.94915 10.8661 -0.995414
164 2 2.99091 10.9105 0.676937 2.99091 10.9105 0.676937
165 2 2.96768 10.9451 -2.71211 2.96768 10.9451 -2.71211
166 1 3.88168 12.5782 -1.06709 3.88168 12.5782 -1.06709
167 2 5.60848 12.5502 0.799333 5.60848 12.5502 0.799333
168 2 5.95348 12.6503 -2.43053 5.95348 12.6503 -2.43053
169 1 6.64529 10.8652 -0.823779 6.64529 10.8652 -0.823779
170 2 8.43145 10.7793 0.974123 8.43145 10.7793 0.974123
171 2 8.68622 10.9463 -2.24349 8.68622 10.9463 -2.24349
172 1 9.56794 12.4639 -0.430956 9.56794 12.4639 -0.430956
173 2 11.4459 12.42 1.39175 11.4459 12.42 1.39175
174 2 11.5652 12.4138 -1.95823 11.5652 12.4138 -1.95823
175 1 12.4556 10.7098 -0.156333 12.4556 10.7098 -0.156333
176 2 14.2918 10.7915 1.43171 14.2918 10.7915 1.43171
177 2 14.3015 10.7779 -1.80279 14.3015 10.7779 -1.80279
178 1 15.3783 12.3893 -0.212516 15.3783 12.3893 -0.212516
179 2 17.2831 12.3716 1.35666 17.2831 12.3716 1.35666
180 2 17.2907 12.3985 -1.90687 17.2907 12.3985 -1.90687
181 1 18.3191 10.7546 -0.152922 18.3191 10.7546 -0.152922
182 2 20.4272 10.8215 1.36992 20.4272 10.8215 1.36992
183 2 20.1477 10.837 -1.87754 20.1477 10.837 -1.87754
184 1 21.1034 12.5836 -0.27589 21.1034 12.5836 -0.27589
185 2 22.9542 12.4694 1.38253 22.9542 12.4694 1.38253
186 2 23.0078 12.4127 -1.85865 23.0078 12.4127 -1.85865
187 1 23.919 10.8281 -0.189855 23.919 10.8281 -0.189855
188 2 26.0843 10.8879 1.34694 26.0843 10.8879 1.34694
189 2 25.7114 10.7729 -2.02643 25.7114 10.7729 -2.02643
190 1 26.6781 12.5636 -0.354538 26.6781 12.5636 -0.354538
191 2 28.5396 12.5244 1.27554 28.5396 12.5244 1.27554
192 2 28.474 12.4345 -2.02827 28.474 12.4345 -2.02827
193 1 29.4917 10.8838 -0.398628 29.4917 10.8838 -0.398628
194 2 31.4797 10.7088 1.23775 31.4797 10.7088 1.23775
195 2 31.3853 11.0217 -2.00755 31.3853 11.0217 -2.00755
196 1 32.3612 12.5332 -0.219625 32.3612 12.5332 -0.219625
197 2 34.4222 12.4607 1.20983 34.4222 12.4607 1.20983
198 2 34.0265 12.4558 -2.04731 34.0265 12.4558 -2.04731
199 1 35.2575 10.845 -0.565254 35.2575 10.845 -0.565254
200 2 37.3501 10.6301 0.946824 37.3501 10.6301 0.946824
201 2 36.9965 10.8543 -2.24159 36.9965 10.8543 -2.24159
202 1 38.1103 12.4612 -0.624992 38.1103 12.4612 -0.624992
203 2 40.0732 12.3868 1.03332 40.0732 12.3868 1.03332
204 2 39.9462 12.5838 -2.35165 39.9462 12.5838 -2.35165
205 1 40.9403 10.8742 -0.861784 40.9403 10.8742 -0.861784
206 2 42.7191 10.7748 0.86341 42.7191 10.7748 0.86341
207 2 42.8651 11.0512 -2.39724 42.8651 11.0512 -2.39724
208 1 43.8233 12.4703 -0.638041 43.8233 12.4703 -0.638041
209 2 45.7221 12.3359 1.01338 45.7221 12.3359 1.01338
210 2 45.7221 12.5253 -2.29895 45.7221 12.5253 -2.29895
211 1 46.7546 10.8436 -0.736524 46.7546 10.8436 -0.736524
212 2 48.6368 10.7852 0.864389 48.6368 10.7852 0.864389
213 2 48.4986 10.9519 -2.47957 48.4986 10.9519 -2.47957
214 1 49.4985 12.538 -0.789114 49.4985 12.538 -0.789114
215 2 51.403 12.411 0.829524 51.403 12.411 0.829524
216 2 51.4642 12.5388 -2.43492 51.4642 12.5388 -2.43492
217 1 0.967368 14.139 -0.800328 0.967368 14.139 -0.800328
218 2 2.81132 14.0656 0.921013 2.81132 14.0656 0.921013
219 2 2.85257 14.4507 -2.36223 2.85257 14.4507 -2.36223
220 1 3.82717 15.9011 -0.449408 3.82717 15.9011 -0.449408
221 2 5.80476 15.6656 1.18513 5.80476 15.6656 1.18513
222 2 5.7094 16.0605 -2.1049 5.7094 16.0605 -2.1049
223 1 6.73676 14.2628 -0.641833 6.73676 14.2628 -0.641833
224 2 8.39908 14.0169 1.26214 8.39908 14.0169 1.26214
225 2 8.77682 14.266 -2.08739 8.77682 14.266 -2.08739
226 1 9.58416 15.7734 -0.209283 9.58416 15.7734 -0.209283
227 2 11.4837 15.6618 1.50441 11.4837 15.6618 1.50441
228 2 11.5255 15.8175 -1.72917 11.5255 15.8175 -1.72917
229 1 12.4535 14.0985 -0.260674 12.4535 14.0985 -0.260674
230 2 14.3091 14.0985 1.48252 14.3091 14.0985 1.48252
231 2 14.4277 14.1957 -1.80832 14.4277 14.1957 -1.80832
232 1 15.2397 15.7613 -0.044714 15.2397 15.7613 -0.044714
233 2 17.2409 15.4236 1.5614 17.2409 15.4236 1.5614
234 2 17.1082 16.1728 -1.62093 17.1082 16.1728 -1.62093
235 1 18.2034 14.2205 -0.442405 18.2034 14.2205 -0.442405
236 2 19.943 14.2126 1.30931 19.943 14.2126 1.30931
237 2 20.169 14.204 -2.02197 20.169 14.204 -2.02197
238 1 20.9936 15.8361 -0.345105 20.9936 15.8361 -0.345105
239 2 22.79 15.7131 1.48499 22.79 15.7131 1.48499
240 2 23.0139 15.988 -1.86461 23.0139 15.988 -1.86461
241 1 23.8354 14.1837 -0.223707 23.8354 14.1837 -0.223707
242 2 25.8764 14.1604 1.30843 25.8764 14.1604 1.30843
243 2 25.6256 14.3012 -1.93177 25.6256 14.3012 -1.93177
244 1 26.7439 15.8982 -0.255722 26.7439 15.8982 -0.255722
245 2 28.6901 15.7772 1.29469 28.6901 15.7772 1.29469
246 2 28.485 15.9296 -1.89076 28.485 15.9296 -1.89076
247 1 29.505 14.1737 -0.397642 29.505 14.1737 -0.397642
248 2 31.2821 14.1902 1.28685 31.2821 14.1902 1.28685
249 2 31.3591 14.0248 -1.97446 31.3591 14.0248 -1.97446
250 1 32.2996 15.7609 -0.438009 32.2996 15.7609 -0.438009
251 2 34.2419 15.7223 1.1332 34.2419 15.7223 1.1332
252 2 34.1254 15.7423 -2.13748 34.1254 15.7423 -2.13748
253 1 35.1524 14.0988 -0.509283 35.1524 14.0988 -0.509283
254 2 37.0728 14.0769 1.10236 37.0728 14.0769 1.10236
255 2 36.9477 14.0549 -2.21549 36.9477 14.0549 -2.21549
256 1 38.1195 15.7682 -0.590088 38.1195 15.7682 -0.590088
257 2 39.8007 15.5267 1.27973 39.8007 15.5267 1.27973
258 2 40.0436 15.8663 -2.03542 40.0436 15.8663 -2.03542
259 1 40.9713 14.1624 -0.493926 40.9713 14.1624 -0.493926
260 2 42.8112 13.8984 1.07565 42.8112 13.8984 1.07565
261 2 42.9018 14.3144 -2.09565 42.9018 14.3144 -2.09565
262 1 43.8604 15.6979 -0.245372 43.8604 15.6979 -0.245372
263 2 45.8736 15.5234 1.31288 45.8736 15.5234 1.31288
264 2 45.6464 15.989 -1.97376 45.6464 15.989 -1.97376
265 1 46.6679 14.0801 -0.636883 46.6679 14.0801 -0.636883
266 2 48.469 13.9337 1.03633 48.469 13.9337 1.03633
267 2 48.5779 14.3397 -2.30056 48.5779 14.3397 -2.30056
268 1 49.5327 15.8811 -0.407248 49.5327 15.8811 -0.407248
269 2 51.4965 15.6077 1.06346 51.4965 15.6077 1.06346
270 2 51.4263 15.9702 -2.17132 51.4263 15.9702 -2.17132
271 1 1.00011 17.4824 -0.506298 1.00011 17.4824 -0.506298
272 2 2.85955 17.3888 1.27075 2.85955 17.3888 1.27075
273 2 3.00978 17.6243 -2.06048 3.00978 17.6243 -2.06048
274 1 3.93577 19.1045 -0.277074 3.93577 19.1045 -0.277074
275 2 5.82636 19.088 1.3395 5.82636 19.088 1.3395
276 2 5.91922 19.1399 -1.78382 5.91922 19.1399 -1.78382
277 1 6.78768 17.4592 -0.240113 6.78768 17.4592 -0.240113
278 2 8.53579 17.3736 1.45969 8.53579 17.3736 1.45969
279 2 8.69726 17.4275 -1.82899 8.69726 17.4275 -1.82899
280 1 9.5897 19.0849 -0.0366725 9.5897 19.0849 -0.0366725
281 2 11.4422 18.9981 1.68002 11.4422 18.9981 1.68002
282 2 11.4479 19.0454 -1.53202 11.4479 19.0454 -1.53202
283 1 12.4264 17.3945 0.0252566 12.4264 17.3945 0.0252566
284 2 14.3011 17.1964 1.81386 14.3011 17.1964 1.81386
285 2 14.4372 17.5439 -1.5307 14.4372 17.5439 -1.5307
286 1 15.3242 19.0411 0.318057 15.3242 19.0411 0.318057
287 2 17.1225 18.765 2.06362 17.1225 18.765 2.06362
288 2 17.2202 19.2024 -1.15693 17.2202 19.2024 -1.15693
289 1 18.1915 17.3955 0.328672 18.1915 17.3955 0.328672
290 2 20.1944 17.1279 1.70375 20.1944 17.1279 1.70375
291 2 19.9072 17.724 -1.45176 19.9072 17.724 -1.45176
292 1 21.0148 19.1131 0.384763 21.0148 19.1131 0.384763
293 2 23.2027 19.1737 1.72777 23.2027 19.1737 1.72777
294 2 22.7061 19.0893 -1.53592 22.7061 19.0893 -1.53592
295 1 23.8814 17.4614 0.0208513 23.8814 17.4614 0.0208513
296 2 25.8835 17.478 1.51236 25.8835 17.478 1.51236
297 2 25.5878 17.547 -1.79406 25.5878 17.547 -1.79406
298 1 26.6855 19.1562 -0.196529 26.6855 19.1562 -0.196529
299 2 28.5778 18.9951 1.55065 28.5778 18.9951 1.55065
300 2 28.5841 19.1726 -1.82489 28.5841 19.1726 -1.82489
301 1 29.4931 17.4765 -0.296651 29.4931 17.4765 -0.296651
302 2 31.4114 17.3599 1.23861 31.4114 17.3599 1.23861
303 2 31.3621 17.5572 -2.01177 31.3621 17.5572 -2.01177
304 1 32.4408 19.127 -0.274063 32.4408 19.127 -0.274063
305 2 34.4295 18.9991 1.35602 34.4295 18.9991 1.35602
306 2 34.2365 19.1374 -1.94409 34.2365 19.1374 -1.94409
307 1 35.3213 17.4509 -0.511765 35.3213 17.4509 -0.511765
308 2 37.0762 17.2 1.28023 37.0762 17.2 1.28023
309 2 37.3668 17.6956 -1.93697 37.3668 17.6956 -1.93697
310 1 38.1875 19.0696 0.0995076 38.1875 19.0696 0.0995076
311 2 40.0798 18.9267 1.66696 40.0798 18.9267 1.66696
312 2 40.0581 19.234 -1.59306 40.0581 19.234 -1.59306
313 1 40.9128 17.3458 -0.120351 40.9128 17.3458 -0.120351
314 2 42.9117 17.3049 1.52783 42.9117 17.3049 1.52783
315 2 42.8583 17.4784 -1.79778 42.8583 17.4784 -1.79778
316 1 43.8259 19.0123 -0.0298708 43.8259 19.0123 -0.0298708
317 2 45.762 19.0876 1.56792 45.762 19.0876 1.56792
318 2 45.759 19.233 -1.61339 45.759 19.233 -1.61339
319 1 46.6538 17.411 -0.12331 46.6538 17.411 -0.12331
320 2 48.707 17.4777 1.43633 48.707 17.4777 1.43633
321 2 48.4714 17.5436 -1.85638 48.4714 17.5436 -1.85638
322 1 49.4931 19.1395 -0.199173 49.4931 19.1395 -0.199173
323 2 51.4864 18.9263 1.31439 51.4864 18.9263 1.31439
324 2 51.2749 19.335 -1.86594 51.2749 19.335 -1.86594
325 1 1.09648 20.7757 -0.130042 1.09648 20.7757 -0.130042
326 2 3.05095 20.7293 1.49371 3.05095 20.7293 1.49371
327 2 2.9016 20.7311 -1.79955 2.9016 20.7311 -1.79955
328 1 3.85339 22.4252 -0.167403 3.85339 22.4252 -0.167403
329 2 5.9778 22.431 1.36539 5.9778 22.431 1.36539
330 2 5.74337 22.3507 -1.84087 5.74337 22.3507 -1.84087
331 1 6.81758 20.8014 -0.243717 6.81758 20.8014 -0.243717
332 2 8.64132 20.6245 1.5911 8.64132 20.6245 1.5911
333 2 8.72998 20.8671 -1.69413 8.72998 20.8671 -1.69413
334 1 9.63235 22.3712 0.126191 9.63235 22.3712 0.126191
335 2 11.4557 22.1851 1.8412 11.4557 22.1851 1.8412
336 2 11.5377 22.4386 -1.45188 11.5377 22.4386 -1.45188
337 1 12.3952 20.7545 0.0583409 12.3952 20.7545 0.0583409
338 2 14.349 20.7428 1.80983 14.349 20.7428 1.80983
339 2 14.412 20.7874 -1.42375 14.412 20.7874 -1.42375
340 1 15.304 22.3921 0.324922 15.304 22.3921 0.324922
341 2 17.0192 22.393 2.20831 17.0192 22.393 2.20831
342 2 17.3729 22.3678 -1.11627 17.3729 22.3678 -1.11627
343 1 18.1263 20.7066 0.653543 18.1263 20.7066 0.653543
344 2 20.2454 20.798 2.14291 20.2454 20.798 2.14291
345 2 19.9552 20.7252 -1.18784 19.9552 20.7252 -1.18784
346 1 20.9911 22.3798 0.354564 20.9911 22.3798 0.354564
347 2 22.9574 22.1622 1.95055 22.9574 22.1622 1.95055
348 2 22.6362 22.8303 -1.32095 22.6362 22.8303 -1.32095
349 1 23.8287 20.7861 -0.0258671 23.8287 20.7861 -0.0258671
350 2 25.6796 20.481 1.682 25.6796 20.481 1.682
351 2 25.7681 21.1049 -1.51297 25.7681 21.1049 -1.51297
352 1 26.6174 22.4621 0.394876 26.6174 22.4621 0.394876
353 2 28.7536 22.4479 1.78314 28.7536 22.4479 1.78314
354 2 28.4371 22.294 -1.51357 28.4371 22.294 -1.51357
355 1 29.5328 20.7192 0.0443767 29.5328 20.7192 0.0443767
356 2 31.5561 20.5633 1.67617 31.5561 20.5633 1.67617
357 2 31.4249 20.8893 -1.61782 31.4249 20.8893 -1.61782
358 1 32.309 22.3709 0.159633 32.309 22.3709 0.159633
359 2 34.3605 22.2662 1.58704 34.3605 22.2662 1.58704
360 2 34.2687 22.5106 -1.62911 34.2687 22.5106 -1.62911
361 1 35.2964 20.7687 -0.187468 35.2964 20.7687 -0.187468
362 2 37.0344 20.672 1.61398 37.0344 20.672 1.61398
363 2 37.4161 20.7474 -1.67422 37.4161 20.7474 -1.67422
364 1 38.1456 22.3657 0.08529 38.1456 22.3657 0.08529
365 2 39.9741 22.4009 1.81887 39.9741 22.4009 1.81887
366 2 40.1937 22.4814 -1.557 40.1937 22.4814 -1.557
367 1 40.9707 20.7331 0.0928713 40.9707 20.7331 0.0928713
368 2 42.9458 20.6591 1.61623 42.9458 20.6591 1.61623
369 2 42.7485 20.6344 -1.66709 42.7485 20.6344 -1.66709
370 1 43.7584 22.3628 -0.0988497 43.7584 22.3628 -0.0988497
371 2 45.6485 22.4231 1.65247 45.6485 22.4231 1.65247
372 2 45.784 22.411 -1.65898 45.784 22.411 -1.65898
373 1 46.7117 20.7766 0.0611054 46.7117 20.7766 0.0611054
374 2 48.7876 20.7841 1.56441 48.7876 20.7841 1.56441
375 2 48.4611 20.7929 -1.80651 48.4611 20.7929 -1.80651
376 1 49.5724 22.4311 -0.093198 49.5724 22.4311 -0.093198
377 2 51.4351 22.4112 1.57401 51.4351 22.4112 1.57401
378 2 51.5255 22.5557 -1.73877 51.5255 22.5557 -1.73877
379 1 1.03434 24.2272 0.0137457 1.03434 24.2272 0.0137457
380 2 2.93553 23.9156 1.64733 2.93553 23.9156 1.64733
381 2 2.97959 24.2734 -1.5826 2.97959 24.2734 -1.5826
382 1 3.8141 25.7533 0.188598 3.8141 25.7533 0.188598
383 2 5.93396 25.5457 1.60147 5.93396 25.5457 1.60147
384 2 5.63574 25.9243 -1.5367 5.63574 25.9243 -1.5367
385 1 6.76172 24.119 -0.307587 6.76172 24.119 -0.307587
386 2 8.33625 23.9615 1.50659 8.33625 23.9615 1.50659
387 2 8.93604 24.0463 -1.72066 8.93604 24.0463 -1.72066
388 1 9.57898 25.627 0.0642877 9.57898 25.627 0.0642877
389 2 11.3722 25.782 1.72871 11.3722 25.782 1.72871
390 2 11.5679 25.5965 -1.44421 11.5679 25.5965 -1.44421
391 1 12.418 24.0407 0.363765 12.418 24.0407 0.363765
392 2 14.2786 23.8841 2.0646 14.2786 23.8841 2.0646
393 2 14.3475 24.1264 -1.22375 14.3475 24.1264 -1.22375
394 1 15.3009 25.6939 0.540314 15.3009 25.6939 0.540314
395 2 17.2946 25.774 2.08541 17.2946 25.774 2.08541
396 2 17.0905 25.4858 -1.1579 17.0905 25.4858 -1.1579
397 1 18.1379 23.9502 0.592277 18.1379 23.9502 0.592277
398 2 20.2552 23.8329 2.11773 20.2552 23.8329 2.11773
399 2 19.9587 24.1108 -1.08541 19.9587 24.1108 -1.08541
400 1 21.0049 25.6761 0.594332 21.0049 25.6761 0.594332
401 2 22.896 25.615 2.35199 22.896 25.615 2.35199
402 2 22.9496 25.7271 -1.11377 22.9496 25.7271 -1.11377
403 1 23.7732 24.0291 0.533523 23.7732 24.0291 0.533523
404 2 25.7488 24.0383 2.10807 25.7488 24.0383 2.10807
405 2 25.6543 24.1593 -1.16962 25.6543 24.1593 -1.16962
406 1 26.5953 25.7326 0.463645 26.5953 25.7326 0.463645
407 2 28.7392 25.5245 1.845 28.7392 25.5245 1.845
408 2 28.3811 26.041 -1.39887 28.3811 26.041 -1.39887
409 1 29.5246 24.1054 -0.0370188 29.5246 24.1054 -0.0370188
410 2 31.3702 24.0142 1.69485 31.3702 24.0142 1.69485
411 2 31.6083 24.1342 -1.45591 31.6083 24.1342 -1.45591
412 1 32.4569 25.6495 0.266494 32.4569 25.6495 0.266494
413 2 34.4309 25.543 1.7539 34.4309 25.543 1.7539
414 2 34.2692 25.6727 -1.46371 34.2692 25.6727 -1.46371
415 1 35.3016 23.9849 -0.0123 35.3016 23.9849 -0.0123
416 2 37.1532 23.9258 1.76309 37.1532 23.9258 1.76309
417 2 37.3094 24.1192 -1.53696 37.3094 24.1192 -1.53696
418 1 38.184 25.611 0.210688 38.184 25.611 0.210688
419 2 40.0821 25.6979 1.748 40.0821 25.6979 1.748
420 2 40.0801 25.5874 -1.4791 40.0801 25.5874 -1.4791
421 1 41.0187 23.994 0.198778 41.0187 23.994 0.198778
422 2 43.0135 24.044 1.67906 43.0135 24.044 1.67906
423 2 42.7672 24.0768 -1.54227 42.7672 24.0768 -1.54227
424 1 43.7975 25.767 0.06248 43.7975 25.767 0.06248
425 2 45.7599 25.7734 1.61505 45.7599 25.7734 1.61505
426 2 45.6913 25.7467 -1.53711 45.6913 25.7467 -1.53711
427 1 46.7261 24.1062 0.0899648 46.7261 24.1062 0.0899648
428 2 48.679 24.0237 1.60356 48.679 24.0237 1.60356
429 2 48.513 24.1094 -1.72854 48.513 24.1094 -1.72854
430 1 49.5241 25.7425 -0.0923069 49.5241 25.7425 -0.0923069
431 2 51.3262 25.763 1.6016 51.3262 25.763 1.6016
432 2 51.5335 25.7451 -1.70314 51.5335 25.7451 -1.70314
433 1 1.01172 27.4391 -0.0632192 1.01172 27.4391 -0.0632192
434 2 2.72376 27.3287 1.76334 2.72376 27.3287 1.76334
435 2 2.91744 27.4683 -1.53954 2.91744 27.4683 -1.53954
436 1 3.93034 29.0323 0.210384 3.93034 29.0323 0.210384
437 2 5.67959 28.9067 1.91405 5.67959 28.9067 1.91405
438 2 5.8818 29.1511 -1.29357 5.8818 29.1511 -1.29357
439 1 6.7532 27.3783 0.104477 6.7532 27.3783 0.104477
440 2 8.67908 27.3844 1.65444 8.67908 27.3844 1.65444
441 2 8.72542 27.372 -1.56833 8.72542 27.372 -1.56833
442 1 9.71821 29.0719 0.00598972 9.71821 29.0719 0.00598972
443 2 11.4667 29.1107 1.70109 11.4667 29.1107 1.70109
444 2 11.5465 29.0932 -1.56128 11.5465 29.0932 -1.56128
445 1 12.4834 27.4464 0.138547 12.4834 27.4464 0.138547
446 2 14.3105 27.4742 1.93531 14.3105 27.4742 1.93531
447 2 14.5624 27.209 -1.31031 14.5624 27.209 -1.31031
448 1 15.3079 28.9987 0.173153 15.3079 28.9987 0.173153
449 2 17.1878 29.0383 1.85633 17.1878 29.0383 1.85633
450 2 17.3528 28.9745 -1.34565 17.3528 28.9745 -1.34565
451 1 18.2286 27.372 0.322865 18.2286 27.372 0.322865
452 2 19.9177 27.4439 2.05374 19.9177 27.4439 2.05374
453 2 20.2923 27.3342 -1.12555 20.2923 27.3342 -1.12555
454 1 20.9617 29.013 0.498246 20.9617 29.013 0.498246
455 2 22.6904 29.1756 2.21229 22.6904 29.1756 2.21229
456 2 22.9332 28.8734 -1.02413 22.9332 28.8734 -1.02413
457 1 23.7065 27.3552 0.733941 23.7065 27.3552 0.733941
458 2 25.7794 27.2121 2.27391 25.7794 27.2121 2.27391
459 2 25.5459 27.3365 -1.00831 25.5459 27.3365 -1.00831
460 1 26.6846 29.0161 0.585951 26.6846 29.0161 0.585951
461 2 28.8231 28.8444 1.99117 28.8231 28.8444 1.99117
462 2 28.4922 29.0916 -1.18772 28.4922 29.0916 -1.18772
463 1 29.6121 27.329 0.235511 29.6121 27.329 0.235511
464 2 31.4116 27.2675 1.95037 31.4116 27.2675 1.95037
465 2 31.5115 27.4665 -1.2355 31.5115 27.4665 -1.2355
466 1 32.4712 29.0228 0.543168 32.4712 29.0228 0.543168
467 2 34.5658 28.9812 1.9 34.5658 28.9812 1.9
468 2 34.0478 28.8207 -1.33758 34.0478 28.8207 -1.33758
469 1 35.3124 27.3151 0.236097 35.3124 27.3151 0.236097
470 2 37.2947 27.2822 1.83227 37.2947 27.2822 1.83227
471 2 37.1982 27.1163 -1.53715 37.1982 27.1163 -1.53715
472 1 38.0548 28.8912 -0.160979 38.0548 28.8912 -0.160979
473 2 39.8424 29.024 1.51627 39.8424 29.024 1.51627
474 2 40.0372 29.0857 -1.70269 40.0372 29.0857 -1.70269
475 1 40.9189 27.4094 0.0428795 40.9189 27.4094 0.0428795
476 2 42.8611 27.4899 1.66841 42.8611 27.4899 1.66841
477 2 42.815 27.5125 -1.58432 42.815 27.5125 -1.58432
478 1 43.8544 29.1869 0.0227558 43.8544 29.1869 0.0227558
479 2 45.7626 29.2418 1.56252 45.7626 29.2418 1.56252
480 2 45.5929 28.9144 -1.73268 45.5929 28.9144 -1.73268
481 1 46.7218 27.4967 0.0361801 46.7218 27.4967 0.0361801
482 2 48.6994 27.3943 1.63235 48.6994 27.3943 1.63235
483 2 48.4602 27.329 -1.73002 48.4602 27.329 -1.73002
484 1 49.534 29.0776 -0.148996 49.534 29.0776 -0.148996
485 2 51.2853 29.116 1.55666 51.2853 29.116 1.55666
486 2 51.5059 29.0675 -1.67245 51.5059 29.0675 -1.67245
487 1 1.02787 30.7505 -0.0160226 1.02787 30.7505 -0.0160226
488 2 2.82043 30.683 1.75987 2.82043 30.683 1.75987
489 2 3.03321 30.6758 -1.51353 3.03321 30.6758 -1.51353
490 1 3.90782 32.3365 0.317341 3.90782 32.3365 0.317341
491 2 5.84394 32.3355 1.98956 5.84394 32.3355 1.98956
492 2 5.8763 32.2734 -1.27365 5.8763 32.2734 -1.27365
493 1 6.81237 30.729 0.407442 6.81237 30.729 0.407442
494 2 8.80728 30.5277 1.89838 8.80728 30.5277 1.89838
495 2 8.5142 30.7524 -1.33195 8.5142 30.7524 -1.33195
496 1 9.65403 32.3477 0.406132 9.65403 32.3477 0.406132
497 2 11.6757 32.2006 1.83441 11.6757 32.2006 1.83441
498 2 11.3441 32.4786 -1.37317 11.3441 32.4786 -1.37317
499 1 12.4987 30.653 -0.000452556 12.4987 30.653 -0.000452556
500 2 14.3805 30.6589 1.73171 14.3805 30.6589 1.73171
501 2 14.4142 30.4116 -1.61029 14.4142 30.4116 -1.61029
502 1 15.1932 32.2348 -0.0113862 15.1932 32.2348 -0.0113862
503 2 16.9838 32.0896 1.83731 16.9838 32.0896 1.83731
504 2 17.2836 32.3098 -1.39397 17.2836 32.3098 -1.39397
505 1 18.1583 30.6576 0.207888 18.1583 30.6576 0.207888
506 2 19.8921 30.6668 1.97949 19.8921 30.6668 1.97949
507 2 20.1736 30.7215 -1.24871 20.1736 30.7215 -1.24871
508 1 20.9549 32.3424 0.490943 20.9549 32.3424 0.490943
509 2 22.8547 32.3094 2.13241 22.8547 32.3094 2.13241
510 2 22.8054 32.2677 -1.24446 22.8054 32.2677 -1.24446
511 1 23.8032 30.604 0.465813 23.8032 30.604 0.465813
512 2 25.6436 30.5636 2.14628 25.6436 30.5636 2.14628
513 2 25.8398 30.5892 -1.08791 25.8398 30.5892 -1.08791
514 1 26.6719 32.2949 0.605908 26.6719 32.2949 0.605908
515 2 28.8131 32.3377 2.05638 28.8131 32.3377 2.05638
516 2 28.6653 32.2221 -1.09614 28.6653 32.2221 -1.09614
517 1 29.6312 30.5976 0.438765 29.6312 30.5976 0.438765
518 2 31.567 30.7506 2.06061 31.567 30.7506 2.06061
519 2 31.4358 30.5075 -1.21624 31.4358 30.5075 -1.21624
520 1 32.4399 32.286 0.231315 32.4399 32.286 0.231315
521 2 34.5065 32.3642 1.67965 34.5065 32.3642 1.67965
522 2 34.1181 32.2598 -1.61985 34.1181 32.2598 -1.61985
523 1 35.2709 30.6262 0.00718813 35.2709 30.6262 0.00718813
524 2 37.2285 30.7414 1.54538 37.2285 30.7414 1.54538
525 2 37.0654 30.6334 -1.77851 37.0654 30.6334 -1.77851
526 1 38.0625 32.3015 -0.245725 38.0625 32.3015 -0.245725
527 2 39.8904 32.5311 1.41843 39.8904 32.5311 1.41843
528 2 40.0305 32.1085 -1.80572 40.0305 32.1085 -1.80572
529 1 40.8695 30.6837 -0.0352034 40.8695 30.6837 -0.0352034
530 2 42.7075 30.77 1.65178 42.7075 30.77 1.65178
531 2 42.8967 30.7819 -1.57675 42.8967 30.7819 -1.57675
532 1 43.7198 32.4648 -0.0521016 43.7198 32.4648 -0.0521016
533 2 45.6428 32.4834 1.45064 45.6428 32.4834 1.45064
534 2 45.5386 32.3572 -1.79657 45.5386 32.3572 -1.79657
535 1 46.6553 30.8207 -0.217318 46.6553 30.8207 -0.217318
536 2 48.5086 30.7114 1.53002 48.5086 30.7114 1.53002
537 2 48.6193 30.7151 -1.82745 48.6193 30.7151 -1.82745
538 1 49.5638 32.4117 -0.0691654 49.5638 32.4117 -0.0691654