ITEM: TIMESTEP
34700
ITEM: NUMBER OF ATOMS
810
ITEM: BOX BOUNDS pp pp pp
8.1649246342515325e-01 5.2201112536575728e+01
7.6394909007148060e-01 5.0252265909927878e+01
-1.0000000000000000e+01 1.0000000000000000e+01
ITEM: ATOMS id type x y z xu yu zu
1 1 1.09545 1.02174 0.619496 1.09545 1.02174 0.619496
2 2 3.20524 0.870575 2.08312 3.20524 0.870575 2.08312
3 2 2.82298 0.994461 -1.14321 2.82298 0.994461 -1.14321
4 1 3.97884 2.60466 0.383537 3.97884 2.60466 0.383537
5 2 5.87937 2.82925 1.96364 5.87937 2.82925 1.96364
6 2 5.79459 2.38268 -1.22766 5.79459 2.38268 -1.22766
7 1 6.76567 1.03137 0.519739 6.76567 1.03137 0.519739
8 2 8.75398 1.28064 1.84137 8.75398 1.28064 1.84137
9 2 8.42918 0.832776 -1.3785 8.42918 0.832776 -1.3785
10 1 9.60298 2.65552 -0.0576822 9.60298 2.65552 -0.0576822
11 2 11.5186 2.85607 1.64352 11.5186 2.85607 1.64352
12 2 11.4923 2.62479 -1.60665 11.4923 2.62479 -1.60665
13 1 12.5141 1.09506 0.243941 12.5141 1.09506 0.243941
14 2 14.5589 1.01925 1.8032 14.5589 1.01925 1.8032
15 2 14.3246 0.946591 -1.51924 14.3246 0.946591 -1.51924
16 1 15.3129 2.64354 0.0470671 15.3129 2.64354 0.0470671
17 2 17.2854 2.63877 1.50148 17.2854 2.63877 1.50148
18 2 17.0436 2.71322 -1.67447 17.0436 2.71322 -1.67447
19 1 18.1459 1.00992 -0.133926 18.1459 1.00992 -0.133926
20 2 20.0446 1.08586 1.46714 20.0446 1.08586 1.46714
21 2 19.9987 0.742971 -1.76033 19.9987 0.742971 -1.76033
22 1 21.0288 2.56995 -0.326478 21.0288 2.56995 -0.326478
23 2 22.7236 2.8075 1.51765 22.7236 2.8075 1.51765
24 2 23.0489 2.52 -1.68144 23.0489 2.52 -1.68144
25 1 23.8224 1.06787 0.253099 23.8224 1.06787 0.253099
26 2 25.8089 0.926635 1.83048 25.8089 0.926635 1.83048
27 2 25.7132 1.01202 -1.40476 25.7132 1.01202 -1.40476
28 1 26.672 2.61349 0.225432 26.672 2.61349 0.225432
29 2 28.5778 2.54374 1.89127 28.5778 2.54374 1.89127
30 2 28.6595 2.73482 -1.44257 28.6595 2.73482 -1.44257
31 1 29.4654 0.99394 0.135274 29.4654 0.99394 0.135274
32 2 31.5725 1.00708 1.66764 31.5725 1.00708 1.66764
33 2 31.2723 0.996961 -1.58757 31.2723 0.996961 -1.58757
34 1 32.3483 2.75632 0.010879 32.3483 2.75632 0.010879
35 2 34.3449 2.56865 1.51424 34.3449 2.56865 1.51424
36 2 34.1626 2.79656 -1.70217 34.1626 2.79656 -1.70217
37 1 35.2323 1.04442 -0.234912 35.2323 1.04442 -0.234912
38 2 37.0718 1.17898 1.38102 37.0718 1.17898 1.38102
39 2 37.2964 0.925814 -1.79994 37.2964 0.925814 -1.79994
40 1 38.1016 2.70859 -0.273119 38.1016 2.70859 -0.273119
41 2 40.0378 2.65908 1.45769 40.0378 2.65908 1.45769
42 2 40.1577 2.52903 -1.89522 40.1577 2.52903 -1.89522
43 1 40.9994 0.853799 -0.0845993 40.9994 0.853799 -0.0845993
44 2 42.675 0.986562 1.62677 42.675 0.986562 1.62677
45 2 42.991 0.650569 -1.54306 42.991 0.650569 -1.54306
46 1 43.842 2.5285 -0.039903 43.842 2.5285 -0.039903
47 2 45.6522 2.46942 1.69524 45.6522 2.46942 1.69524
48 2 45.8508 2.52643 -1.52125 45.8508 2.52643 -1.52125
49 1 46.7844 0.862956 0.119066 46.7844 0.862956 0.119066
50 2 48.5481 0.940434 1.91392 48.5481 0.940434 1.91392
51 2 48.8312 0.951885 -1.30532 48.8312 0.951885 -1.30532
52 1 49.6461 2.62506 0.431737 49.6461 2.62506 0.431737
53 2 51.5015 2.84845 2.09811 51.5015 2.84845 2.09811
54 2 51.4742 2.56018 -1.14835 51.4742 2.56018 -1.14835
55 1 1.19075 4.32251 0.303682 1.19075 4.32251 0.303682
56 2 3.10366 4.34155 1.94135 3.10366 4.34155 1.94135
57 2 3.03742 4.23865 -1.33323 3.03742 4.23865 -1.33323
58 1 3.9148 6.00151 0.130795 3.9148 6.00151 0.130795
59 2 5.74889 6.0243 1.83871 5.74889 6.0243 1.83871
60 2 5.85842 5.88171 -1.48276 5.85842 5.88171 -1.48276
61 1 6.75607 4.29474 0.207001 6.75607 4.29474 0.207001
62 2 8.85512 4.41918 1.56035 8.85512 4.41918 1.56035
63 2 8.44778 4.14071 -1.66809 8.44778 4.14071 -1.66809
64 1 9.64015 5.96853 -0.276785 9.64015 5.96853 -0.276785
65 2 11.4953 6.10286 1.45472 11.4953 6.10286 1.45472
66 2 11.5693 5.89297 -1.76645 11.5693 5.89297 -1.76645
67 1 12.3963 4.35164 -0.0120208 12.3963 4.35164 -0.0120208
68 2 14.4547 4.47106 1.57227 14.4547 4.47106 1.57227
69 2 14.2662 4.24398 -1.74007 14.2662 4.24398 -1.74007
70 1 15.2826 5.95964 -0.272013 15.2826 5.95964 -0.272013
71 2 17.1946 5.97427 1.55791 17.1946 5.97427 1.55791
72 2 17.3435 5.91563 -1.71597 17.3435 5.91563 -1.71597
73 1 18.1667 4.29627 -0.0876361 18.1667 4.29627 -0.0876361
74 2 20.1444 4.15813 1.39689 20.1444 4.15813 1.39689
75 2 19.9766 4.28396 -1.79727 19.9766 4.28396 -1.79727
76 1 21.0109 5.95753 -0.183307 21.0109 5.95753 -0.183307
77 2 22.8353 5.83496 1.5195 22.8353 5.83496 1.5195
78 2 22.9918 6.04751 -1.73691 22.9918 6.04751 -1.73691
79 1 23.7693 4.27153 -0.154358 23.7693 4.27153 -0.154358
80 2 25.6038 4.29321 1.64479 25.6038 4.29321 1.64479
81 2 25.9471 4.22347 -1.51212 25.9471 4.22347 -1.51212
82 1 26.6469 5.95108 -0.0100394 26.6469 5.95108 -0.0100394
83 2 28.3831 6.00941 1.80866 28.3831 6.00941 1.80866
84 2 28.6758 6.02588 -1.52885 28.6758 6.02588 -1.52885
85 1 29.4435 4.34472 0.297416 29.4435 4.34472 0.297416
86 2 31.4124 4.31426 1.75372 31.4124 4.31426 1.75372
87 2 31.3246 4.34668 -1.51035 31.3246 4.34668 -1.51035
88 1 32.474 6.02226 0.0569 32.474 6.02226 0.0569
89 2 34.5653 5.95169 1.61178 34.5653 5.95169 1.61178
90 2 34.2813 6.05717 -1.64632 34.2813 6.05717 -1.64632
91 1 35.3135 4.30269 -0.0462198 35.3135 4.30269 -0.0462198
92 2 37.225 4.16948 1.50411 37.225 4.16948 1.50411
93 2 37.13 4.4743 -1.71272 37.13 4.4743 -1.71272
94 1 38.1365 5.98896 -0.00225091 38.1365 5.98896 -0.00225091
95 2 40.0438 5.80435 1.52453 40.0438 5.80435 1.52453
96 2 40.0013 5.95284 -1.68244 40.0013 5.95284 -1.68244
97 1 41.0885 4.20137 -0.25612 41.0885 4.20137 -0.25612
98 2 42.8587 4.29222 1.40427 42.8587 4.29222 1.40427
99 2 43.0713 4.25045 -1.74762 43.0713 4.25045 -1.74762
100 1 43.8753 5.90377 -0.1623 43.8753 5.90377 -0.1623
101 2 45.6224 6.05048 1.61689 45.6224 6.05048 1.61689
102 2 45.8716 5.73395 -1.5779 45.8716 5.73395 -1.5779
103 1 46.762 4.2427 0.201662 46.762 4.2427 0.201662
104 2 48.5432 4.24424 1.93938 48.5432 4.24424 1.93938
105 2 48.7426 4.2034 -1.33454 48.7426 4.2034 -1.33454
106 1 49.6613 5.92161 0.371087 49.6613 5.92161 0.371087
107 2 51.7655 6.08776 1.84206 51.7655 6.08776 1.84206
108 2 51.4934 5.74873 -1.4382 51.4934 5.74873 -1.4382
109 1 1.04613 7.62246 -0.0501721 1.04613 7.62246 -0.0501721
110 2 2.81583 7.62294 1.75247 2.81583 7.62294 1.75247
111 2 3.03838 7.60978 -1.58606 3.03838 7.60978 -1.58606
112 1 3.97104 9.25842 0.0701691 3.97104 9.25842 0.0701691
113 2 5.84519 9.41536 1.60217 5.84519 9.41536 1.60217
114 2 5.78728 9.11838 -1.5859 5.78728 9.11838 -1.5859
115 1 6.74748 7.57554 0.158779 6.74748 7.57554 0.158779
116 2 8.90064 7.67437 1.48501 8.90064 7.67437 1.48501
117 2 8.4731 7.55561 -1.84429 8.4731 7.55561 -1.84429
118 1 9.63003 9.27005 -0.376163 9.63003 9.27005 -0.376163
119 2 11.4913 9.31512 1.294 11.4913 9.31512 1.294
120 2 11.5846 9.28797 -1.87531 11.5846 9.28797 -1.87531
121 1 12.494 7.68523 -0.248409 12.494 7.68523 -0.248409
122 2 14.3713 7.60053 1.29701 14.3713 7.60053 1.29701
123 2 14.237 7.68458 -1.9053 14.237 7.68458 -1.9053
124 1 15.2875 9.31056 -0.134991 15.2875 9.31056 -0.134991
125 2 17.1104 9.3375 1.53072 17.1104 9.3375 1.53072
126 2 17.0402 9.02939 -1.78473 17.0402 9.02939 -1.78473
127 1 18.0967 7.5614 -0.0903491 18.0967 7.5614 -0.0903491
128 2 20.1285 7.52269 1.48081 20.1285 7.52269 1.48081
129 2 20.0115 7.76315 -1.70583 20.0115 7.76315 -1.70583
130 1 21.0011 9.33047 -0.0885673 21.0011 9.33047 -0.0885673
131 2 22.7531 9.36601 1.65866 22.7531 9.36601 1.65866
132 2 22.9444 9.15809 -1.64885 22.9444 9.15809 -1.64885
133 1 23.8695 7.63065 0.0521228 23.8695 7.63065 0.0521228
134 2 25.803 7.57904 1.6583 25.803 7.57904 1.6583
135 2 25.7786 7.65803 -1.57085 25.7786 7.65803 -1.57085
136 1 26.7073 9.20613 0.0484528 26.7073 9.20613 0.0484528
137 2 28.5498 9.2363 1.84413 28.5498 9.2363 1.84413
138 2 28.7945 9.30002 -1.45528 28.7945 9.30002 -1.45528
139 1 29.5332 7.61785 0.180962 29.5332 7.61785 0.180962
140 2 31.5061 7.62171 1.78895 31.5061 7.62171 1.78895
141 2 31.3836 7.70287 -1.38705 31.3836 7.70287 -1.38705
142 1 32.323 9.33344 0.182379 32.323 9.33344 0.182379
143 2 34.2924 9.21382 1.78741 34.2924 9.21382 1.78741
144 2 34.1537 9.33644 -1.541 34.1537 9.33644 -1.541
145 1 35.2703 7.63109 0.0458465 35.2703 7.63109 0.0458465
146 2 37.1584 7.66952 1.67928 37.1584 7.66952 1.67928
147 2 37.1938 7.60181 -1.57821 37.1938 7.60181 -1.57821
148 1 38.1538 9.30342 -0.0279618 38.1538 9.30342 -0.0279618
149 2 40.0452 9.29478 1.61089 40.0452 9.29478 1.61089
150 2 39.9106 8.98421 -1.6823 39.9106 8.98421 -1.6823
151 1 40.9566 7.54339 0.0140174 40.9566 7.54339 0.0140174
152 2 43.1097 7.62296 1.3965 43.1097 7.62296 1.3965
153 2 42.7084 7.51224 -1.83213 42.7084 7.51224 -1.83213
154 1 43.8819 9.21052 -0.345006 43.8819 9.21052 -0.345006
155 2 45.5815 9.33884 1.5934 45.5815 9.33884 1.5934
156 2 45.8848 9.10182 -1.73361 45.8848 9.10182 -1.73361
157 1 46.7017 7.58479 0.0280249 46.7017 7.58479 0.0280249
158 2 48.3702 7.59169 1.83853 48.3702 7.59169 1.83853
159 2 48.7388 7.47419 -1.41254 48.7388 7.47419 -1.41254
160 1 49.5034 9.26129 0.133056 49.5034 9.26129 0.133056
161 2 51.5577 9.11881 1.67523 51.5577 9.11881 1.67523
162 2 51.4129 9.43788 -1.53212 51.4129 9.43788 -1.53212
163 1 1.07624 10.9221 0.138157 1.07624 10.9221 0.138157
164 2 3.07674 11.0119 1.62659 3.07674 11.0119 1.62659
165 2 2.9646 10.7329 -1.55785 2.9646 10.7329 -1.55785
166 1 3.85334 12.5493 -0.190732 3.85334 12.5493 -0.190732
167 2 5.78988 12.6368 1.39935 5.78988 12.6368 1.39935
168 2 5.71492 12.3402 -1.77921 5.71492 12.3402 -1.77921
169 1 6.8092 10.8891 -0.0885273 6.8092 10.8891 -0.0885273
170 2 8.76478 10.8152 1.38456 8.76478 10.8152 1.38456
171 2 8.56053 10.8942 -1.89123 8.56053 10.8942 -1.89123
172 1 9.5784 12.5517 -0.218828 9.5784 12.5517 -0.218828
173 2 11.6003 12.7443 1.28105 11.6003 12.7443 1.28105
174 2 11.341 12.4192 -2.00266 11.341 12.4192 -2.00266
175 1 12.4743 10.9927 -0.278862 12.4743 10.9927 -0.278862
176 2 14.3314 11.094 1.35428 14.3314 11.094 1.35428
177 2 14.4493 10.7762 -1.86854 14.4493 10.7762 -1.86854
178 1 15.3318 12.5612 -0.402148 15.3318 12.5612 -0.402148
179 2 17.1628 12.5284 1.30034 17.1628 12.5284 1.30034
180 2 17.2167 12.4927 -2.15768 17.2167 12.4927 -2.15768
181 1 18.1878 10.8356 -0.334539 18.1878 10.8356 -0.334539
182 2 19.806 10.8404 1.57249 19.806 10.8404 1.57249
183 2 20.1818 10.9649 -1.71888 20.1818 10.9649 -1.71888
184 1 20.9167 12.5938 0.0618599 20.9167 12.5938 0.0618599
185 2 22.8685 12.7243 1.59824 22.8685 12.7243 1.59824
186 2 22.7627 12.4924 -1.65088 22.7627 12.4924 -1.65088
187 1 23.8217 10.9078 -0.0295061 23.8217 10.9078 -0.0295061
188 2 25.644 10.9231 1.68392 25.644 10.9231 1.68392
189 2 25.7934 10.8827 -1.61825 25.7934 10.8827 -1.61825
190 1 26.645 12.5066 0.0703159 26.645 12.5066 0.0703159
191 2 28.5013 12.6062 1.81787 28.5013 12.6062 1.81787
192 2 28.6586 12.4479 -1.3425 28.6586 12.4479 -1.3425
193 1 29.5783 10.884 0.346411 29.5783 10.884 0.346411
194 2 31.4068 10.9521 1.84266 31.4068 10.9521 1.84266
195 2 31.4705 11.0656 -1.37099 31.4705 11.0656 -1.37099
196 1 32.4519 12.6502 0.296263 32.4519 12.6502 0.296263
197 2 34.4912 12.5733 1.80742 34.4912 12.5733 1.80742
198 2 34.4063 12.613 -1.42231 34.4063 12.613 -1.42231
199 1 35.316 10.901 0.105648 35.316 10.901 0.105648
200 2 37.3786 10.8898 1.65244 37.3786 10.8898 1.65244
201 2 37.0867 11.0379 -1.59491 37.0867 11.0379 -1.59491
202 1 38.1683 12.64 0.027135 38.1683 12.64 0.027135
203 2 40.2534 12.56 1.47877 40.2534 12.56 1.47877
204 2 39.9963 12.4308 -1.71047 39.9963 12.4308 -1.71047
205 1 40.9924 10.7996 -0.106283 40.9924 10.7996 -0.106283
206 2 42.9328 10.695 1.44454 42.9328 10.695 1.44454
207 2 42.726 10.8871 -1.83738 42.726 10.8871 -1.83738
208 1 43.8516 12.4013 -0.127743 43.8516 12.4013 -0.127743
209 2 45.7302 12.5121 1.59202 45.7302 12.5121 1.59202
210 2 45.8224 12.4011 -1.66131 45.8224 12.4011 -1.66131
211 1 46.696 10.807 0.0269462 46.696 10.807 0.0269462
212 2 48.5101 11.0244 1.64983 48.5101 11.0244 1.64983
213 2 48.5616 10.8097 -1.63801 48.5616 10.8097 -1.63801
214 1 49.5781 12.4455 -0.149386 49.5781 12.4455 -0.149386
215 2 51.2812 12.5365 1.60664 51.2812 12.5365 1.60664
216 2 51.5987 12.5056 -1.58943 51.5987 12.5056 -1.58943
217 1 0.97327 14.2082 -0.00410924 0.97327 14.2082 -0.00410924
218 2 2.94195 14.2687 1.48548 2.94195 14.2687 1.48548
219 2 2.77171 14.1488 -1.83579 2.77171 14.1488 -1.83579
220 1 3.8291 15.7288 -0.350392 3.8291 15.7288 -0.350392
221 2 5.77506 15.9783 1.18179 5.77506 15.9783 1.18179
222 2 5.75957 15.8713 -2.04275 5.75957 15.8713 -2.04275
223 1 6.71746 14.2073 -0.361904 6.71746 14.2073 -0.361904
224 2 8.57541 14.2663 1.32597 8.57541 14.2663 1.32597
225 2 8.74814 14.1769 -1.98984 8.74814 14.1769 -1.98984
226 1 9.70875 15.8665 -0.370728 9.70875 15.8665 -0.370728
227 2 11.7372 15.8681 1.07946 11.7372 15.8681 1.07946
228 2 11.4394 15.6959 -2.20775 11.4394 15.6959 -2.20775
229 1 12.5065 14.1779 -0.555031 12.5065 14.1779 -0.555031
230 2 14.4023 14.4196 1.04188 14.4023 14.4196 1.04188
231 2 14.3716 14.0711 -2.23045 14.3716 14.0711 -2.23045
232 1 15.3707 15.897 -0.761178 15.3707 15.897 -0.761178
233 2 17.0661 15.929 1.111 17.0661 15.929 1.111
234 2 17.2716 15.775 -2.20652 17.2716 15.775 -2.20652
235 1 18.1098 14.1852 -0.377196 18.1098 14.1852 -0.377196
236 2 19.8112 14.4043 1.46744 19.8112 14.4043 1.46744
237 2 20.2587 14.0202 -1.77082 20.2587 14.0202 -1.77082
238 1 21.0141 15.8627 -0.200529 21.0141 15.8627 -0.200529
239 2 22.9317 16.0779 1.36023 22.9317 16.0779 1.36023
240 2 22.8921 15.8239 -1.83833 22.8921 15.8239 -1.83833
241 1 23.8076 14.2434 -0.133098 23.8076 14.2434 -0.133098
242 2 25.6372 14.1748 1.61418 25.6372 14.1748 1.61418
243 2 25.8207 14.1533 -1.58291 25.8207 14.1533 -1.58291
244 1 26.7271 15.8846 0.0571207 26.7271 15.8846 0.0571207
245 2 28.5212 15.9449 1.7882 28.5212 15.9449 1.7882
246 2 28.7768 15.7877 -1.4331 28.7768 15.7877 -1.4331
247 1 29.499 14.1604 0.290465 29.499 14.1604 0.290465
248 2 31.4914 14.2125 1.9805 31.4914 14.2125 1.9805
249 2 31.4581 14.3666 -1.36524 31.4581 14.3666 -1.36524
250 1 32.4266 15.957 0.272918 32.4266 15.957 0.272918
251 2 34.3668 15.7948 1.7992 34.3668 15.7948 1.7992
252 2 34.3338 15.8047 -1.38003 34.3338 15.8047 -1.38003
253 1 35.3326 14.2248 0.20243 35.3326 14.2248 0.20243
254 2 37.2697 14.1465 1.73907 37.2697 14.1465 1.73907
255 2 37.0886 14.1929 -1.54147 37.0886 14.1929 -1.54147
256 1 38.2183 15.7696 0.119253 38.2183 15.7696 0.119253
257 2 40.2516 15.7403 1.52476 40.2516 15.7403 1.52476
258 2 40.0153 15.8505 -1.6868 40.0153 15.8505 -1.6868
259 1 41.0069 14.0793 -0.233964 41.0069 14.0793 -0.233964
260 2 43.0033 14.2335 1.40901 43.0033 14.2335 1.40901
261 2 42.9081 14.0257 -1.7931 42.9081 14.0257 -1.7931
262 1 43.9006 15.8524 -0.342116 43.9006 15.8524 -0.342116
263 2 45.647 15.8818 1.35041 45.647 15.8818 1.35041
264 2 45.7635 15.8359 -1.93911 45.7635 15.8359 -1.93911
265 1 46.5905 14.0764 -0.205392 46.5905 14.0764 -0.205392
266 2 48.4739 14.2336 1.37177 48.4739 14.2336 1.37177
267 2 48.5833 14.0455 -1.81262 48.5833 14.0455 -1.81262
268 1 49.4514 15.7826 -0.289929 49.4514 15.7826 -0.289929
269 2 51.3279 16.0166 1.3482 51.3279 16.0166 1.3482
270 2 51.4433 15.6655 -1.88427 51.4433 15.6655 -1.88427
271 1 0.964787 17.4006 -0.378557 0.964787 17.4006 -0.378557
272 2 3.00748 17.6166 1.1351 3.00748 17.6166 1.1351
273 2 2.94653 17.3108 -2.07221 2.94653 17.3108 -2.07221
274 1 3.85404 19.1333 -0.599122 3.85404 19.1333 -0.599122
275 2 5.67373 19.0874 1.12407 5.67373 19.0874 1.12407
276 2 5.79251 19.1217 -2.21441 5.79251 19.1217 -2.21441
277 1 6.65797 17.4833 -0.524154 6.65797 17.4833 -0.524154
278 2 8.62279 17.6405 1.0593 8.62279 17.6405 1.0593
279 2 8.55895 17.2697 -2.08924 8.55895 17.2697 -2.08924
280 1 9.53092 19.1255 -0.707618 9.53092 19.1255 -0.707618
281 2 11.3274 18.9329 1.00269 11.3274 18.9329 1.00269
282 2 11.5868 19.2907 -2.20382 11.5868 19.2907 -2.20382
283 1 12.5002 17.442 -0.691553 12.5002 17.442 -0.691553
284 2 14.4542 17.4944 0.828098 14.4542 17.4944 0.828098
285 2 14.3556 17.4608 -2.43237 14.3556 17.4608 -2.43237
286 1 15.3794 19.1036 -0.842996 15.3794 19.1036 -0.842996
287 2 17.1758 19.2343 1.014 17.1758 19.2343 1.014
288 2 17.2501 18.9853 -2.28253 17.2501 18.9853 -2.28253
289 1 18.2196 17.4738 -0.507133 18.2196 17.4738 -0.507133
290 2 20.0475 17.7971 1.15639 20.0475 17.7971 1.15639
291 2 20.0892 17.3322 -2.08653 20.0892 17.3322 -2.08653
292 1 21.031 19.1094 -0.743505 21.031 19.1094 -0.743505
293 2 22.8097 19.3109 1.00668 22.8097 19.3109 1.00668
294 2 23.1521 19.0466 -2.24084 23.1521 19.0466 -2.24084
295 1 23.872 17.5078 -0.379291 23.872 17.5078 -0.379291
296 2 25.6275 17.7861 1.35564 25.6275 17.7861 1.35564
297 2 25.9 17.3511 -1.85132 25.9 17.3511 -1.85132
298 1 26.6728 19.1228 -0.351981 26.6728 19.1228 -0.351981
299 2 28.5749 19.4391 1.45009 28.5749 19.4391 1.45009
300 2 28.7528 18.9201 -1.67492 28.7528 18.9201 -1.67492
301 1 29.6079 17.5775 0.231454 29.6079 17.5775 0.231454
302 2 31.6105 17.8614 1.71267 31.6105 17.8614 1.71267
303 2 31.4823 17.2758 -1.53938 31.4823 17.2758 -1.53938
304 1 32.4323 19.1975 -0.19259 32.4323 19.1975 -0.19259
305 2 34.1747 19.2879 1.66239 34.1747 19.2879 1.66239
306 2 34.4507 19.1347 -1.62354 34.4507 19.1347 -1.62354
307 1 35.2527 17.5067 0.124813 35.2527 17.5067 0.124813
308 2 37.3423 17.4616 1.64622 37.3423 17.4616 1.64622
309 2 37.0837 17.3639 -1.5855 37.0837 17.3639 -1.5855
310 1 38.0999 19.0633 -0.0713472 38.0999 19.0633 -0.0713472
311 2 40.0166 18.9799 1.54455 40.0166 18.9799 1.54455
312 2 39.8941 19.0663 -1.77202 39.8941 19.0663 -1.77202
313 1 41.0045 17.4438 -0.0803721 41.0045 17.4438 -0.0803721
314 2 42.9941 17.5157 1.37059 42.9941 17.5157 1.37059
315 2 42.7033 17.561 -1.92729 42.7033 17.561 -1.92729
316 1 43.7442 19.1411 -0.372148 43.7442 19.1411 -0.372148
317 2 45.6028 19.328 1.26498 45.6028 19.328 1.26498
318 2 45.6426 19.0683 -1.97305 45.6426 19.0683 -1.97305
319 1 46.6907 17.5001 -0.27213 46.6907 17.5001 -0.27213
320 2 48.7047 17.6568 1.24715 48.7047 17.6568 1.24715
321 2 48.4506 17.2839 -1.97318 48.4506 17.2839 -1.97318
322 1 49.5218 19.1073 -0.622092 49.5218 19.1073 -0.622092
323 2 51.3455 19.1005 1.20518 51.3455 19.1005 1.20518
324 2 51.5228 19.0688 -2.10871 51.5228 19.0688 -2.10871
325 1 1.00006 20.7789 -0.53682 1.00006 20.7789 -0.53682
326 2 2.94234 20.7996 1.07016 2.94234 20.7996 1.07016
327 2 2.85002 20.6897 -2.22861 2.85002 20.6897 -2.22861
328 1 3.8902 22.432 -0.662656 3.8902 22.432 -0.662656
329 2 5.7428 22.4422 1.05482 5.7428 22.4422 1.05482
330 2 5.70374 22.2463 -2.20367 5.70374 22.2463 -2.20367
331 1 6.6699 20.7528 -0.579077 6.6699 20.7528 -0.579077
332 2 8.55454 20.6652 1.02173 8.55454 20.6652 1.02173
333 2 8.6415 20.7542 -2.22342 8.6415 20.7542 -2.22342
334 1 9.57523 22.3615 -0.429949 9.57523 22.3615 -0.429949
335 2 11.6073 22.7089 1.07333 11.6073 22.7089 1.07333
336 2 11.321 22.0707 -2.15377 11.321 22.0707 -2.15377
337 1 12.4665 20.7204 -0.40854 12.4665 20.7204 -0.40854
338 2 14.6448 20.854 0.84743 14.6448 20.854 0.84743
339 2 14.1868 20.7936 -2.30412 14.1868 20.7936 -2.30412
340 1 15.2264 22.4639 -0.944133 15.2264 22.4639 -0.944133
341 2 17.1309 22.5644 0.685394 17.1309 22.5644 0.685394
342 2 17.2498 22.3759 -2.42942 17.2498 22.3759 -2.42942
343 1 18.1619 20.8161 -0.774461 18.1619 20.8161 -0.774461
344 2 19.9734 20.7516 1.00815 19.9734 20.7516 1.00815
345 2 20.0705 20.7198 -2.36264 20.0705 20.7198 -2.36264
346 1 21.019 22.3955 -0.65455 21.019 22.3955 -0.65455
347 2 22.985 22.5786 0.953326 22.985 22.5786 0.953326
348 2 22.8878 22.345 -2.24616 22.8878 22.345 -2.24616
349 1 23.9232 20.8929 -0.641341 23.9232 20.8929 -0.641341
350 2 25.5993 20.8194 1.15245 25.5993 20.8194 1.15245
351 2 26.0181 20.8138 -2.05092 26.0181 20.8138 -2.05092
352 1 26.7818 22.3908 -0.382524 26.7818 22.3908 -0.382524
353 2 28.6662 22.3767 1.21068 28.6662 22.3767 1.21068
354 2 28.6136 22.4758 -2.08356 28.6136 22.4758 -2.08356
355 1 29.649 20.8666 -0.41787 29.649 20.8666 -0.41787
356 2 31.3383 20.81 1.3061 31.3383 20.81 1.3061
357 2 31.587 20.811 -1.91337 31.587 20.811 -1.91337
358 1 32.3441 22.4295 -0.164101 32.3441 22.4295 -0.164101
359 2 34.2748 22.5988 1.50553 34.2748 22.5988 1.50553
360 2 34.3361 22.5102 -1.71334 34.3361 22.5102 -1.71334
361 1 35.2934 20.7446 0.0641008 35.2934 20.7446 0.0641008
362 2 37.1167 20.6499 1.56117 37.1167 20.6499 1.56117
363 2 37.0211 20.8698 -1.71734 37.0211 20.8698 -1.71734
364 1 38.0826 22.4096 -0.0482776 38.0826 22.4096 -0.0482776
365 2 39.9696 22.4376 1.56753 39.9696 22.4376 1.56753
366 2 40.0063 22.4985 -1.74065 40.0063 22.4985 -1.74065
367 1 40.9157 20.7856 -0.161318 40.9157 20.7856 -0.161318
368 2 42.8796 20.6432 1.36643 42.8796 20.6432 1.36643
369 2 42.7529 20.8601 -1.92051 42.7529 20.8601 -1.92051
370 1 43.781 22.4211 -0.161497 43.781 22.4211 -0.161497
371 2 45.7685 22.3248 1.33353 45.7685 22.3248 1.33353
372 2 45.561 22.4487 -1.88616 45.561 22.4487 -1.88616
373 1 46.6165 20.7882 -0.471798 46.6165 20.7882 -0.471798
374 2 48.5859 20.7397 1.11535 48.5859 20.7397 1.11535
375 2 48.4622 20.8949 -2.14255 48.4622 20.8949 -2.14255
376 1 49.5529 22.4599 -0.501048 49.5529 22.4599 -0.501048
377 2 51.5219 22.3899 1.09427 51.5219 22.3899 1.09427
378 2 51.4234 22.5327 -2.13009 51.4234 22.5327 -2.13009
379 1 1.03575 24.1324 -0.551863 1.03575 24.1324 -0.551863
380 2 3.12636 24.2059 0.888861 3.12636 24.2059 0.888861
381 2 2.83159 23.9638 -2.35398 2.83159 23.9638 -2.35398
382 1 3.82873 25.7379 -0.802812 3.82873 25.7379 -0.802812
383 2 5.76361 25.8008 0.838193 5.76361 25.8008 0.838193
384 2 5.70129 25.3981 -2.41268 5.70129 25.3981 -2.41268
385 1 6.69521 24.0264 -0.663952 6.69521 24.0264 -0.663952
386 2 8.50615 24.1995 1.01389 8.50615 24.1995 1.01389
387 2 8.70118 23.7779 -2.23247 8.70118 23.7779 -2.23247
388 1 9.58497 25.6547 -0.773959 9.58497 25.6547 -0.773959
389 2 11.6041 25.6528 0.759406 11.6041 25.6528 0.759406
390 2 11.3485 25.5964 -2.40685 11.3485 25.5964 -2.40685
391 1 12.4325 23.9951 -0.859226 12.4325 23.9951 -0.859226
392 2 14.4797 24.0779 0.718115 14.4797 24.0779 0.718115
393 2 14.3279 24.1401 -2.56815 14.3279 24.1401 -2.56815
394 1 15.2596 25.7635 -0.844608 15.2596 25.7635 -0.844608
395 2 17.2802 25.8072 0.750642 17.2802 25.8072 0.750642
396 2 17.1386 25.7829 -2.53158 17.1386 25.7829 -2.53158
397 1 18.1933 24.1213 -0.932716 18.1933 24.1213 -0.932716
398 2 20.0526 24.1991 0.777489 20.0526 24.1991 0.777489
399 2 20.1716 23.9987 -2.48369 20.1716 23.9987 -2.48369
400 1 21.0668 25.7053 -0.969848 21.0668 25.7053 -0.969848
401 2 22.802 25.6265 0.716081 22.802 25.6265 0.716081
402 2 23.0637 25.7659 -2.4669 23.0637 25.7659 -2.4669
403 1 23.9357 24.1459 -0.835712 23.9357 24.1459 -0.835712
404 2 25.5879 24.0073 1.09705 25.5879 24.0073 1.09705
405 2 25.9814 24.0962 -2.09743 25.9814 24.0962 -2.09743
406 1 26.7205 25.8108 -0.341565 26.7205 25.8108 -0.341565
407 2 28.665 25.7146 1.32508 28.665 25.7146 1.32508
408 2 28.7152 25.9083 -1.96754 28.7152 25.9083 -1.96754
409 1 29.6594 24.1577 -0.418112 29.6594 24.1577 -0.418112
410 2 31.3948 24.1985 1.37245 31.3948 24.1985 1.37245
411 2 31.7716 24.1491 -1.88875 31.7716 24.1491 -1.88875
412 1 32.539 25.7362 -0.172299 32.539 25.7362 -0.172299
413 2 34.254 25.6906 1.54694 34.254 25.6906 1.54694
414 2 34.3214 25.9635 -1.76627 34.3214 25.9635 -1.76627
415 1 35.298 24.1978 -0.117108 35.298 24.1978 -0.117108
416 2 37.1495 24.1846 1.47973 37.1495 24.1846 1.47973
417 2 37.0808 23.9689 -1.82698 37.0808 23.9689 -1.82698
418 1 38.1314 25.6764 -0.244595 38.1314 25.6764 -0.244595
419 2 39.8965 25.984 1.45407 39.8965 25.984 1.45407
420 2 40.048 25.6631 -1.84316 40.048 25.6631 -1.84316
421 1 40.9512 24.0842 -0.0236802 40.9512 24.0842 -0.0236802
422 2 42.8495 23.9755 1.499 42.8495 23.9755 1.499
423 2 42.7455 24.0324 -1.73415 42.7455 24.0324 -1.73415
424 1 43.7839 25.6121 -0.235964 43.7839 25.6121 -0.235964
425 2 45.7873 25.8031 1.27519 45.7873 25.8031 1.27519
426 2 45.7154 25.4796 -1.96661 45.7154 25.4796 -1.96661
427 1 46.7246 24.0606 -0.202564 46.7246 24.0606 -0.202564
428 2 48.7086 24.1422 1.17854 48.7086 24.1422 1.17854
429 2 48.4127 24.025 -2.01559 48.4127 24.025 -2.01559
430 1 49.4744 25.6894 -0.520536 49.4744 25.6894 -0.520536
431 2 51.425 25.7129 1.10139 51.425 25.7129 1.10139
432 2 51.3835 25.9003 -2.08985 51.3835 25.9003 -2.08985
433 1 1.00625 27.4123 -0.448842 1.00625 27.4123 -0.448842
434 2 3.07652 27.3835 0.895345 3.07652 27.3835 0.895345
435 2 2.75873 27.4607 -2.26986 2.75873 27.4607 -2.26986
436 1 3.88406 29.0371 -0.715637 3.88406 29.0371 -0.715637
437 2 5.89108 28.8784 0.852257 5.89108 28.8784 0.852257
438 2 5.67968 29.132 -2.44101 5.67968 29.132 -2.44101
439 1 6.79254 27.4008 -0.947181 6.79254 27.4008 -0.947181
440 2 8.60366 27.2969 0.76217 8.60366 27.2969 0.76217
441 2 8.75712 27.3084 -2.50647 8.75712 27.3084 -2.50647
442 1 9.54711 29.0202 -0.996683 9.54711 29.0202 -0.996683
443 2 11.2214 28.7209 0.756261 11.2214 28.7209 0.756261
444 2 11.5964 29.2245 -2.47896 11.5964 29.2245 -2.47896
445 1 12.4121 27.3093 -0.936662 12.4121 27.3093 -0.936662
446 2 14.2291 27.3615 0.786481 14.2291 27.3615 0.786481
447 2 14.4297 27.4514 -2.57613 14.4297 27.4514 -2.57613
448 1 15.2696 29.0353 -0.816299 15.2696 29.0353 -0.816299
449 2 17.2508 28.9069 0.792413 17.2508 28.9069 0.792413
450 2 17.1538 29.0402 -2.51963 17.1538 29.0402 -2.51963
451 1 18.1195 27.4128 -0.937304 18.1195 27.4128 -0.937304
452 2 20.0856 27.2716 0.7161 20.0856 27.2716 0.7161
453 2 20.0727 27.2267 -2.65155 20.0727 27.2267 -2.65155
454 1 20.9647 29.0599 -1.00311 20.9647 29.0599 -1.00311
455 2 22.7884 28.9935 0.878078 22.7884 28.9935 0.878078
456 2 23.0919 29.1586 -2.39607 23.0919 29.1586 -2.39607
457 1 23.8761 27.4223 -0.756348 23.8761 27.4223 -0.756348
458 2 25.3954 27.4998 1.16222 25.3954 27.4998 1.16222
459 2 26.0182 27.4676 -2.13107 26.0182 27.4676 -2.13107
460 1 26.6501 29.121 -0.358346 26.6501 29.121 -0.358346
461 2 28.6386 29.2413 1.30143 28.6386 29.2413 1.30143
462 2 28.6096 28.933 -1.9634 28.6096 28.933 -1.9634
463 1 29.608 27.4533 -0.207364 29.608 27.4533 -0.207364
464 2 31.3491 27.274 1.44237 31.3491 27.274 1.44237
465 2 31.5976 27.495 -1.71243 31.5976 27.495 -1.71243
466 1 32.3727 29.0972 -0.00475819 32.3727 29.0972 -0.00475819
467 2 34.5337 29.1134 1.60928 34.5337 29.1134 1.60928
468 2 34.236 28.8918 -1.72121 34.236 28.8918 -1.72121
469 1 35.2414 27.4065 -0.0477695 35.2414 27.4065 -0.0477695
470 2 37.2257 27.3474 1.45149 37.2257 27.3474 1.45149
471 2 37.0814 27.363 -1.84473 37.0814 27.363 -1.84473
472 1 38.1546 28.9452 -0.2078 38.1546 28.9452 -0.2078
473 2 40.103 28.96 1.34789 40.103 28.96 1.34789
474 2 39.9848 29.0633 -1.88461 39.9848 29.0633 -1.88461
475 1 41.0066 27.3537 -0.380582 41.0066 27.3537 -0.380582
476 2 42.9615 27.4533 1.28095 42.9615 27.4533 1.28095
477 2 42.9686 27.2001 -1.90231 42.9686 27.2001 -1.90231
478 1 43.8863 29.0245 -0.454544 43.8863 29.0245 -0.454544
479 2 45.7422 28.8911 1.09412 45.7422 28.8911 1.09412
480 2 45.6479 29.0519 -2.20178 45.6479 29.0519 -2.20178
481 1 46.6153 27.3312 -0.601159 46.6153 27.3312 -0.601159
482 2 48.5628 27.3921 1.04959 48.5628 27.3921 1.04959
483 2 48.5342 27.22 -2.23462 48.5342 27.22 -2.23462
484 1 49.4833 29.0411 -0.743491 49.4833 29.0411 -0.743491
485 2 51.2432 29.0045 1.035 51.2432 29.0045 1.035
486 2 51.5259 28.9849 -2.27175 51.5259 28.9849 -2.27175
487 1 1.0703 30.6524 -0.603078 1.0703 30.6524 -0.603078
488 2 2.93706 30.5644 1.07288 2.93706 30.5644 1.07288
489 2 2.9266 30.7728 -2.22909 2.9266 30.7728 -2.22909
490 1 3.91999 32.3192 -0.520048 3.91999 32.3192 -0.520048
491 2 5.90007 32.2722 0.931473 5.90007 32.2722 0.931473
492 2 5.74552 32.4756 -2.29386 5.74552 32.4756 -2.29386
493 1 6.72865 30.6677 -0.737859 6.72865 30.6677 -0.737859
494 2 8.4907 30.326 0.907919 8.4907 30.326 0.907919
495 2 8.54598 31.0374 -2.30883 8.54598 31.0374 -2.30883
496 1 9.55291 32.3591 -0.375703 9.55291 32.3591 -0.375703
497 2 11.5197 32.3568 1.1435 11.5197 32.3568 1.1435
498 2 11.3335 32.2413 -2.08323 11.3335 32.2413 -2.08323
499 1 12.3688 30.6328 -0.509841 12.3688 30.6328 -0.509841
500 2 14.3418 30.4194 1.08008 14.3418 30.4194 1.08008
501 2 14.2586 30.9926 -2.17144 14.2586 30.9926 -2.17144
502 1 15.3044 32.3662 -0.254768 15.3044 32.3662 -0.254768
503 2 17.4563 32.3007 1.01021 17.4563 32.3007 1.01021
504 2 16.9445 32.4137 -2.19958 16.9445 32.4137 -2.19958
505 1 18.1295 30.7036 -0.763169 18.1295 30.7036 -0.763169
506 2 19.9745 30.4409 0.764112 19.9745 30.4409 0.764112
507 2 19.9738 30.907 -2.45726 19.9738 30.907 -2.45726
508 1 20.9394 32.3732 -0.603696 20.9394 32.3732 -0.603696
509 2 22.8021 32.2241 1.14081 22.8021 32.2241 1.14081
510 2 23.0265 32.5144 -2.06494 23.0265 32.5144 -2.06494
511 1 23.9169 30.6723 -0.578152 23.9169 30.6723 -0.578152
512 2 25.716 30.8471 1.21725 25.716 30.8471 1.21725
513 2 25.8525 30.7827 -2.00657 25.8525 30.7827 -2.00657
514 1 26.7114 32.4018 -0.388834 26.7114 32.4018 -0.388834
515 2 28.7022 32.4953 1.05271 28.7022 32.4953 1.05271
516 2 28.4134 32.2589 -2.13728 28.4134 32.2589 -2.13728
517 1 29.5607 30.6729 -0.506286 29.5607 30.6729 -0.506286
518 2 31.3905 30.9927 1.34004 31.3905 30.9927 1.34004
519 2 31.5906 30.5339 -1.92627 31.5906 30.5339 -1.92627
520 1 32.385 32.3143 -0.402714 32.385 32.3143 -0.402714
521 2 34.2095 32.4219 1.35175 34.2095 32.4219 1.35175
522 2 34.4563 32.3652 -1.90172 34.4563 32.3652 -1.90172
523 1 35.3558 30.6811 -0.184316 35.3558 30.6811 -0.184316
524 2 37.2022 30.6618 1.53598 37.2022 30.6618 1.53598
525 2 37.2833 30.658 -1.78154 37.2833 30.658 -1.78154
526 1 38.1517 32.3474 -0.000689333 38.1517 32.3474 -0.000689333
527 2 40.1355 32.2886 1.42389 40.1355 32.2886 1.42389
528 2 39.8307 32.2667 -1.77061 39.8307 32.2667 -1.77061
529 1 40.9801 30.6151 -0.183922 40.9801 30.6151 -0.183922
530 2 43.0176 30.5283 1.35384 43.0176 30.5283 1.35384
531 2 42.8474 30.7598 -1.87047 42.8474 30.7598 -1.87047
532 1 43.8327 32.27 -0.199274 43.8327 32.27 -0.199274
533 2 45.691 31.9131 1.43139 45.691 31.9131 1.43139
534 2 45.7821 32.5763 -1.84083 45.7821 32.5763 -1.84083
535 1 46.687 30.6282 -0.583278 46.687 30.6282 -0.583278
536 2 48.5917 30.5177 1.10048 48.5917 30.5177 1.10048
537 2 48.4721 30.831 -2.26656 48.4721 30.831 -2.26656
538 1 49.4962 32.2459 -0.541388 49.4962 32.2459 -0.541388