ITEM: TIMESTEP
91200
ITEM: NUMBER OF ATOMS
810
ITEM: BOX BOUNDS pp pp pp
8.1341557954370403e-01 5.2204189420456892e+01
7.5027265657492104e-01 5.0265942343424292e+01
-1.0000000000000000e+01 1.0000000000000000e+01
ITEM: ATOMS id type x y z xu yu zu
1 1 1.00714 0.959773 -0.659183 1.00714 0.959773 -0.659183
2 2 2.67141 0.929757 1.16527 2.67141 0.929757 1.16527
3 2 3.14478 0.922059 -2.07765 3.14478 0.922059 -2.07765
4 1 3.86303 2.60151 -0.408172 3.86303 2.60151 -0.408172
5 2 5.54993 2.67348 1.39555 5.54993 2.67348 1.39555
6 2 5.84536 2.65339 -1.84633 5.84536 2.65339 -1.84633
7 1 6.67766 0.951609 -0.17831 6.67766 0.951609 -0.17831
8 2 8.55591 0.863366 1.48599 8.55591 0.863366 1.48599
9 2 8.58632 1.00476 -1.77432 8.58632 1.00476 -1.77432
10 1 9.52443 2.5774 -0.00115179 9.52443 2.5774 -0.00115179
11 2 11.616 2.66316 1.47069 11.616 2.66316 1.47069
12 2 11.3953 2.4812 -1.74508 11.3953 2.4812 -1.74508
13 1 12.4534 0.954675 -0.118561 12.4534 0.954675 -0.118561
14 2 14.4795 1.01906 1.3624 14.4795 1.01906 1.3624
15 2 14.2432 0.995487 -1.94944 14.2432 0.995487 -1.94944
16 1 15.2331 2.71463 -0.364752 15.2331 2.71463 -0.364752
17 2 17.1062 2.72445 1.33595 17.1062 2.72445 1.33595
18 2 17.1832 2.68366 -1.87105 17.1832 2.68366 -1.87105
19 1 18.1925 1.09096 -0.193512 18.1925 1.09096 -0.193512
20 2 20.1752 0.848429 1.41629 20.1752 0.848429 1.41629
21 2 19.9966 1.09959 -1.84913 19.9966 1.09959 -1.84913
22 1 21.1184 2.76833 -0.101041 21.1184 2.76833 -0.101041
23 2 22.9778 2.54737 1.49574 22.9778 2.54737 1.49574
24 2 22.9082 2.73897 -1.78633 22.9082 2.73897 -1.78633
25 1 23.8872 0.971083 -0.304747 23.8872 0.971083 -0.304747
26 2 26.0007 0.892852 1.13327 26.0007 0.892852 1.13327
27 2 25.6756 1.35669 -2.0546 25.6756 1.35669 -2.0546
28 1 26.7924 2.68544 -0.379814 26.7924 2.68544 -0.379814
29 2 28.6191 2.55992 1.3067 28.6191 2.55992 1.3067
30 2 28.7698 2.77931 -1.96265 28.7698 2.77931 -1.96265
31 1 29.5679 0.974079 -0.495698 29.5679 0.974079 -0.495698
32 2 31.6114 0.958809 0.789516 31.6114 0.958809 0.789516
33 2 31.3191 1.13364 -2.30459 31.3191 1.13364 -2.30459
34 1 32.3806 2.72519 -0.735491 32.3806 2.72519 -0.735491
35 2 34.4768 2.75235 0.757111 34.4768 2.75235 0.757111
36 2 34.2871 2.79099 -2.53861 34.2871 2.79099 -2.53861
37 1 35.2726 1.0738 -0.995046 35.2726 1.0738 -0.995046
38 2 37.1475 1.13082 0.690447 37.1475 1.13082 0.690447
39 2 37.1952 50.3288 -2.55611 37.1952 0.813178 -2.55611
40 1 38.1438 2.61357 -1.03011 38.1438 2.61357 -1.03011
41 2 40.114 2.64057 0.622696 40.114 2.64057 0.622696
42 2 40.0886 2.51077 -2.59166 40.0886 2.51077 -2.59166
43 1 40.9966 0.897833 -0.920395 40.9966 0.897833 -0.920395
44 2 42.8108 0.921816 0.802589 42.8108 0.921816 0.802589
45 2 43.017 0.816148 -2.43614 43.017 0.816148 -2.43614
46 1 43.9157 2.53034 -0.920654 43.9157 2.53034 -0.920654
47 2 45.5943 2.55772 0.895992 45.5943 2.55772 0.895992
48 2 45.844 2.54984 -2.51445 45.844 2.54984 -2.51445
49 1 46.6554 0.909971 -0.69084 46.6554 0.909971 -0.69084
50 2 48.4744 1.03238 0.927271 48.4744 1.03238 0.927271
51 2 48.6913 0.749218 -2.24842 48.6913 0.749218 -2.24842
52 1 49.5592 2.64083 -0.720445 49.5592 2.64083 -0.720445
53 2 51.4155 2.67366 0.964409 51.4155 2.67366 0.964409
54 2 51.5124 2.55501 -2.33072 51.5124 2.55501 -2.33072
55 1 1.02834 4.27525 -0.678945 1.02834 4.27525 -0.678945
56 2 2.75016 4.20903 1.19963 2.75016 4.20903 1.19963
57 2 3.05339 4.27927 -2.04437 3.05339 4.27927 -2.04437
58 1 3.78609 5.94168 -0.228396 3.78609 5.94168 -0.228396
59 2 5.67547 5.81226 1.49489 5.67547 5.81226 1.49489
60 2 5.66887 5.93529 -1.79384 5.66887 5.93529 -1.79384
61 1 6.64261 4.32193 -0.218608 6.64261 4.32193 -0.218608
62 2 8.48826 4.4029 1.558 8.48826 4.4029 1.558
63 2 8.63616 4.26344 -1.80726 8.63616 4.26344 -1.80726
64 1 9.55025 5.94529 -0.143804 9.55025 5.94529 -0.143804
65 2 11.4429 5.91898 1.41556 11.4429 5.91898 1.41556
66 2 11.4755 6.0214 -1.79961 11.4755 6.0214 -1.79961
67 1 12.4743 4.37821 -0.269666 12.4743 4.37821 -0.269666
68 2 14.3739 4.42365 1.32943 14.3739 4.42365 1.32943
69 2 14.2859 4.28601 -1.95669 14.2859 4.28601 -1.95669
70 1 15.2572 6.01041 -0.351809 15.2572 6.01041 -0.351809
71 2 17.0825 5.89285 1.38665 17.0825 5.89285 1.38665
72 2 17.2713 6.1518 -1.83614 17.2713 6.1518 -1.83614
73 1 18.1091 4.36648 -0.267928 18.1091 4.36648 -0.267928
74 2 19.9755 4.25583 1.55297 19.9755 4.25583 1.55297
75 2 20.1942 4.46735 -1.69823 20.1942 4.46735 -1.69823
76 1 20.9669 6.06145 0.0759386 20.9669 6.06145 0.0759386
77 2 22.9701 5.85217 1.53721 22.9701 5.85217 1.53721
78 2 22.8138 6.15252 -1.78851 22.8138 6.15252 -1.78851
79 1 23.9343 4.26773 -0.195548 23.9343 4.26773 -0.195548
80 2 25.8069 4.08315 1.45432 25.8069 4.08315 1.45432
81 2 25.7288 4.53847 -1.80486 25.7288 4.53847 -1.80486
82 1 26.7047 5.99867 0.0643749 26.7047 5.99867 0.0643749
83 2 28.6531 5.8242 1.64269 28.6531 5.8242 1.64269
84 2 28.4226 6.17666 -1.67599 28.4226 6.17666 -1.67599
85 1 29.5409 4.34564 -0.225636 29.5409 4.34564 -0.225636
86 2 31.5842 4.09709 1.16195 31.5842 4.09709 1.16195
87 2 31.3302 4.6063 -2.0705 31.3302 4.6063 -2.0705
88 1 32.4046 5.9537 -0.328372 32.4046 5.9537 -0.328372
89 2 34.5258 5.77757 1.08518 34.5258 5.77757 1.08518
90 2 34.057 6.17526 -2.12977 34.057 6.17526 -2.12977
91 1 35.263 4.3662 -0.83014 35.263 4.3662 -0.83014
92 2 37.3947 4.38499 0.686024 37.3947 4.38499 0.686024
93 2 37.0735 4.40824 -2.54655 37.0735 4.40824 -2.54655
94 1 38.1801 5.92774 -0.989165 38.1801 5.92774 -0.989165
95 2 40.0923 5.84606 0.603507 40.0923 5.84606 0.603507
96 2 40.1917 5.94599 -2.66775 40.1917 5.94599 -2.66775
97 1 40.9939 4.20289 -1.07558 40.9939 4.20289 -1.07558
98 2 42.7596 4.14344 0.606492 42.7596 4.14344 0.606492
99 2 43.0069 4.14566 -2.59629 43.0069 4.14566 -2.59629
100 1 43.8054 5.90649 -0.932061 43.8054 5.90649 -0.932061
101 2 45.5674 5.58404 0.91683 45.5674 5.58404 0.91683
102 2 45.9394 6.08106 -2.25618 45.9394 6.08106 -2.25618
103 1 46.6677 4.2589 -0.824372 46.6677 4.2589 -0.824372
104 2 48.4457 4.14939 0.934006 48.4457 4.14939 0.934006
105 2 48.7451 4.33503 -2.29768 48.7451 4.33503 -2.29768
106 1 49.5462 5.76415 -0.432471 49.5462 5.76415 -0.432471
107 2 51.5017 5.64197 1.10438 51.5017 5.64197 1.10438
108 2 51.3938 6.04196 -2.18711 51.3938 6.04196 -2.18711
109 1 0.887125 7.49037 -0.30309 0.887125 7.49037 -0.30309
110 2 2.7556 7.54388 1.31754 2.7556 7.54388 1.31754
111 2 2.96638 7.66016 -1.83981 2.96638 7.66016 -1.83981
112 1 3.79702 9.22065 -0.160254 3.79702 9.22065 -0.160254
113 2 5.64772 9.23671 1.48838 5.64772 9.23671 1.48838
114 2 5.75814 9.06592 -1.85 5.75814 9.06592 -1.85
115 1 6.62321 7.5668 -0.0662267 6.62321 7.5668 -0.0662267
116 2 8.68938 7.44972 1.53436 8.68938 7.44972 1.53436
117 2 8.51209 7.62061 -1.7676 8.51209 7.62061 -1.7676
118 1 9.58132 9.19359 -0.121791 9.58132 9.19359 -0.121791
119 2 11.5451 9.1869 1.51063 11.5451 9.1869 1.51063
120 2 11.5284 9.22977 -1.73495 11.5284 9.22977 -1.73495
121 1 12.4855 7.60629 -0.159706 12.4855 7.60629 -0.159706
122 2 14.4446 7.53972 1.40933 14.4446 7.53972 1.40933
123 2 14.2045 7.6346 -1.95209 14.2045 7.6346 -1.95209
124 1 15.2457 9.25906 -0.252751 15.2457 9.25906 -0.252751
125 2 17.0243 9.24789 1.57639 17.0243 9.24789 1.57639
126 2 17.4025 9.42527 -1.64995 17.4025 9.42527 -1.64995
127 1 18.1048 7.66261 -0.0061985 18.1048 7.66261 -0.0061985
128 2 19.9529 7.64048 1.6836 19.9529 7.64048 1.6836
129 2 20.1251 7.7657 -1.57874 20.1251 7.7657 -1.57874
130 1 21.0091 9.35448 0.183877 21.0091 9.35448 0.183877
131 2 22.8518 9.17159 1.72011 22.8518 9.17159 1.72011
132 2 22.8703 9.4406 -1.4704 22.8703 9.4406 -1.4704
133 1 23.8462 7.59794 0.0431464 23.8462 7.59794 0.0431464
134 2 25.8001 7.60954 1.73528 25.8001 7.60954 1.73528
135 2 25.8033 7.70191 -1.53208 25.8033 7.70191 -1.53208
136 1 26.6699 9.22831 0.204775 26.6699 9.22831 0.204775
137 2 28.5674 9.09146 1.82213 28.5674 9.09146 1.82213
138 2 28.7206 9.28379 -1.48724 28.7206 9.28379 -1.48724
139 1 29.5818 7.65649 0.064261 29.5818 7.65649 0.064261
140 2 31.6669 7.51526 1.48794 31.6669 7.51526 1.48794
141 2 31.2738 7.66839 -1.7724 31.2738 7.66839 -1.7724
142 1 32.4915 9.25204 -0.115241 32.4915 9.25204 -0.115241
143 2 34.4761 9.12572 1.27461 34.4761 9.12572 1.27461
144 2 34.173 9.18659 -1.87434 34.173 9.18659 -1.87434
145 1 35.2593 7.58855 -0.409105 35.2593 7.58855 -0.409105
146 2 37.3693 7.34692 0.948459 37.3693 7.34692 0.948459
147 2 36.9116 7.75014 -2.18004 36.9116 7.75014 -2.18004
148 1 38.0931 9.27273 -0.538391 38.0931 9.27273 -0.538391
149 2 40.1964 9.0868 0.899334 40.1964 9.0868 0.899334
150 2 39.8968 9.41513 -2.36761 39.8968 9.41513 -2.36761
151 1 40.9763 7.5763 -0.922728 40.9763 7.5763 -0.922728
152 2 42.8095 7.28177 0.802176 42.8095 7.28177 0.802176
153 2 42.9694 7.74517 -2.41908 42.9694 7.74517 -2.41908
154 1 43.8432 9.0937 -0.534618 43.8432 9.0937 -0.534618
155 2 45.5042 9.08878 1.31474 45.5042 9.08878 1.31474
156 2 45.9904 9.24139 -1.92684 45.9904 9.24139 -1.92684
157 1 46.7094 7.48496 -0.271414 46.7094 7.48496 -0.271414
158 2 48.7433 7.44099 1.23023 48.7433 7.44099 1.23023
159 2 48.5456 7.48171 -2.02153 48.5456 7.48171 -2.02153
160 1 49.5211 9.1612 -0.462613 49.5211 9.1612 -0.462613
161 2 51.3959 9.15491 1.27719 51.3959 9.15491 1.27719
162 2 51.5531 9.16883 -2.0295 51.5531 9.16883 -2.0295
163 1 0.924331 10.8267 -0.261806 0.924331 10.8267 -0.261806
164 2 2.74564 10.8805 1.48537 2.74564 10.8805 1.48537
165 2 2.82126 10.7541 -1.858 2.82126 10.7541 -1.858
166 1 3.8671 12.4559 -0.300411 3.8671 12.4559 -0.300411
167 2 5.70831 12.3775 1.47816 5.70831 12.3775 1.47816
168 2 5.83225 12.6409 -1.8028 5.83225 12.6409 -1.8028
169 1 6.62934 10.8642 -0.191697 6.62934 10.8642 -0.191697
170 2 8.55467 10.8265 1.59615 8.55467 10.8265 1.59615
171 2 8.65885 11.0432 -1.66099 8.65885 11.0432 -1.66099
172 1 9.5738 12.5497 0.101656 9.5738 12.5497 0.101656
173 2 11.4101 12.4237 1.67258 11.4101 12.4237 1.67258
174 2 11.3946 12.68 -1.66503 11.3946 12.68 -1.66503
175 1 12.3857 10.9454 -0.0387811 12.3857 10.9454 -0.0387811
176 2 14.3059 10.6252 1.58133 14.3059 10.6252 1.58133
177 2 14.3578 11.129 -1.68811 14.3578 11.129 -1.68811
178 1 15.2471 12.4796 0.209467 15.2471 12.4796 0.209467
179 2 17.0736 12.4333 1.91726 17.0736 12.4333 1.91726
180 2 17.2638 12.8426 -1.31041 17.2638 12.8426 -1.31041
181 1 18.1936 11.005 0.16837 18.1936 11.005 0.16837
182 2 20.0828 10.8862 1.89636 20.0828 10.8862 1.89636
183 2 20.1201 11.1203 -1.3751 20.1201 11.1203 -1.3751
184 1 21.0019 12.613 0.380327 21.0019 12.613 0.380327
185 2 22.7932 12.3544 1.98444 22.7932 12.3544 1.98444
186 2 22.9766 12.8559 -1.21445 22.9766 12.8559 -1.21445
187 1 23.8345 10.909 0.218303 23.8345 10.909 0.218303
188 2 25.5512 10.6653 2.00623 25.5512 10.6653 2.00623
189 2 25.9024 11.112 -1.22747 25.9024 11.112 -1.22747
190 1 26.6297 12.5918 0.724396 26.6297 12.5918 0.724396
191 2 28.6598 12.4015 2.10932 28.6598 12.4015 2.10932
192 2 28.4825 12.5875 -1.05824 28.4825 12.5875 -1.05824
193 1 29.6038 10.8762 0.314627 29.6038 10.8762 0.314627
194 2 31.8635 10.95 1.61775 31.8635 10.95 1.61775
195 2 31.2452 10.8618 -1.56076 31.2452 10.8618 -1.56076
196 1 32.317 12.5757 -0.173415 32.317 12.5757 -0.173415
197 2 34.3293 12.3533 1.41264 34.3293 12.3533 1.41264
198 2 34.4152 12.7719 -1.78546 34.4152 12.7719 -1.78546
199 1 35.2341 10.8756 -0.425784 35.2341 10.8756 -0.425784
200 2 37.1056 10.7164 1.25459 37.1056 10.7164 1.25459
201 2 37.1672 11.2302 -1.91363 37.1672 11.2302 -1.91363
202 1 38.0956 12.4663 -0.0622702 38.0956 12.4663 -0.0622702
203 2 40.1735 12.2581 1.22621 40.1735 12.2581 1.22621
204 2 39.8549 12.7318 -1.94139 39.8549 12.7318 -1.94139
205 1 41.0465 10.8545 -0.584361 41.0465 10.8545 -0.584361
206 2 42.8603 10.7876 1.0915 42.8603 10.7876 1.0915
207 2 42.9032 10.8738 -2.09033 42.9032 10.8738 -2.09033
208 1 43.8196 12.4882 -0.342661 43.8196 12.4882 -0.342661
209 2 45.5889 12.5726 1.41194 45.5889 12.5726 1.41194
210 2 45.8684 12.4024 -1.88477 45.8684 12.4024 -1.88477
211 1 46.6629 10.7867 -0.104701 46.6629 10.7867 -0.104701
212 2 48.6699 10.6921 1.35643 48.6699 10.6921 1.35643
213 2 48.4373 10.9029 -1.89854 48.4373 10.9029 -1.89854
214 1 49.513 12.4439 -0.218559 49.513 12.4439 -0.218559
215 2 51.3822 12.4695 1.50577 51.3822 12.4695 1.50577
216 2 51.4784 12.5687 -1.74235 51.4784 12.5687 -1.74235
217 1 1.02686 14.1392 0.0284018 1.02686 14.1392 0.0284018
218 2 2.98767 13.929 1.55672 2.98767 13.929 1.55672
219 2 2.87729 14.2704 -1.70338 2.87729 14.2704 -1.70338
220 1 3.82809 15.764 0.0330229 3.82809 15.764 0.0330229
221 2 5.68101 15.8911 1.67343 5.68101 15.8911 1.67343
222 2 5.79056 15.8156 -1.62186 5.79056 15.8156 -1.62186
223 1 6.69629 14.1371 0.0515939 6.69629 14.1371 0.0515939
224 2 8.629 14.1989 1.74635 8.629 14.1989 1.74635
225 2 8.6511 14.1742 -1.55213 8.6511 14.1742 -1.55213
226 1 9.52527 15.8977 0.099826 9.52527 15.8977 0.099826
227 2 11.4101 15.641 1.86482 11.4101 15.641 1.86482
228 2 11.5123 15.868 -1.4473 11.5123 15.868 -1.4473
229 1 12.405 14.2503 0.0766582 12.405 14.2503 0.0766582
230 2 14.137 13.9873 1.8765 14.137 13.9873 1.8765
231 2 14.4824 14.315 -1.34242 14.4824 14.315 -1.34242
232 1 15.194 15.761 0.597057 15.194 15.761 0.597057
233 2 17.0333 15.7029 2.28428 17.0333 15.7029 2.28428
234 2 17.1587 15.8408 -0.95466 17.1587 15.8408 -0.95466
235 1 18.1622 14.2297 0.521567 18.1622 14.2297 0.521567
236 2 20.0253 14.1032 2.17514 20.0253 14.1032 2.17514
237 2 20.0542 14.4247 -1.11802 20.0542 14.4247 -1.11802
238 1 20.9477 15.9232 0.71708 20.9477 15.9232 0.71708
239 2 22.8419 15.8947 2.33926 22.8419 15.8947 2.33926
240 2 22.7953 15.9952 -1.0415 22.7953 15.9952 -1.0415
241 1 23.8987 14.3495 0.61852 23.8987 14.3495 0.61852
242 2 25.7298 14.1819 2.32365 25.7298 14.1819 2.32365
243 2 25.7357 14.2422 -0.95306 25.7357 14.2422 -0.95306
244 1 26.7673 15.8795 0.744106 26.7673 15.8795 0.744106
245 2 28.7742 15.9406 2.23171 28.7742 15.9406 2.23171
246 2 28.6099 15.7754 -0.971113 28.6099 15.7754 -0.971113
247 1 29.5553 14.1539 0.575488 29.5553 14.1539 0.575488
248 2 31.8211 13.9211 1.77009 31.8211 13.9211 1.77009
249 2 31.2076 14.4516 -1.38936 31.2076 14.4516 -1.38936
250 1 32.3987 15.9123 0.300349 32.3987 15.9123 0.300349
251 2 34.2661 15.5605 1.92948 34.2661 15.5605 1.92948
252 2 34.3408 16.114 -1.31525 34.3408 16.114 -1.31525
253 1 35.2609 14.2234 -0.0237043 35.2609 14.2234 -0.0237043
254 2 37.1099 14.0181 1.56854 37.1099 14.0181 1.56854
255 2 37.1994 14.2492 -1.52906 37.1994 14.2492 -1.52906
256 1 38.1828 15.7833 0.147783 38.1828 15.7833 0.147783
257 2 40.1076 15.4596 1.66945 40.1076 15.4596 1.66945
258 2 40.1068 15.9846 -1.55179 40.1068 15.9846 -1.55179
259 1 41.0188 14.0928 -0.160178 41.0188 14.0928 -0.160178
260 2 42.8403 14.1201 1.44053 42.8403 14.1201 1.44053
261 2 42.8144 14.1935 -1.79308 42.8144 14.1935 -1.79308
262 1 43.8679 15.785 -0.0389229 43.8679 15.785 -0.0389229
263 2 45.8692 15.6101 1.53781 45.8692 15.6101 1.53781
264 2 45.719 16.0616 -1.66428 45.719 16.0616 -1.66428
265 1 46.7141 14.101 -0.251334 46.7141 14.101 -0.251334
266 2 48.493 13.9949 1.4644 48.493 13.9949 1.4644
267 2 48.7246 14.1823 -1.771 48.7246 14.1823 -1.771
268 1 49.5923 15.7235 0.0128232 49.5923 15.7235 0.0128232
269 2 51.3931 15.7409 1.64421 51.3931 15.7409 1.64421
270 2 51.4234 15.7701 -1.70303 51.4234 15.7701 -1.70303
271 1 1.02401 17.4894 -0.0376486 1.02401 17.4894 -0.0376486
272 2 2.94791 17.4912 1.61865 2.94791 17.4912 1.61865
273 2 2.97399 17.3752 -1.66228 2.97399 17.3752 -1.66228
274 1 3.87257 19.0698 -0.0127684 3.87257 19.0698 -0.0127684
275 2 5.85517 18.9315 1.59491 5.85517 18.9315 1.59491
276 2 5.77075 19.1468 -1.60598 5.77075 19.1468 -1.60598
277 1 6.7388 17.4125 -0.0562589 6.7388 17.4125 -0.0562589
278 2 8.42182 17.3633 1.76074 8.42182 17.3633 1.76074
279 2 8.86854 17.7134 -1.45386 8.86854 17.7134 -1.45386
280 1 9.60204 19.1476 0.467002 9.60204 19.1476 0.467002
281 2 11.3921 18.9647 2.24718 11.3921 18.9647 2.24718
282 2 11.4743 19.3797 -1.09615 11.4743 19.3797 -1.09615
283 1 12.336 17.4878 0.393072 12.336 17.4878 0.393072
284 2 14.0995 17.4204 2.21321 14.0995 17.4204 2.21321
285 2 14.5215 17.4993 -1.03691 14.5215 17.4993 -1.03691
286 1 15.2654 19.1624 0.846999 15.2654 19.1624 0.846999
287 2 17.1642 19.1318 2.4097 17.1642 19.1318 2.4097
288 2 17.1925 19.127 -0.85267 17.1925 19.127 -0.85267
289 1 18.0905 17.4368 0.745298 18.0905 17.4368 0.745298
290 2 19.9217 17.6291 2.39601 19.9217 17.6291 2.39601
291 2 19.9577 17.5082 -0.836638 19.9577 17.5082 -0.836638
292 1 20.8943 19.1833 0.770673 20.8943 19.1833 0.770673
293 2 22.8408 19.2581 2.39218 22.8408 19.2581 2.39218
294 2 22.7462 19.1973 -0.928173 22.7462 19.1973 -0.928173
295 1 23.8341 17.5587 0.560908 23.8341 17.5587 0.560908
296 2 25.7211 17.6111 2.21905 25.7211 17.6111 2.21905
297 2 25.783 17.4412 -1.07987 25.783 17.4412 -1.07987
298 1 26.7178 19.1075 0.513094 26.7178 19.1075 0.513094
299 2 28.759 19.3458 2.08394 28.759 19.3458 2.08394
300 2 28.5986 19.0964 -1.23418 28.5986 19.0964 -1.23418
301 1 29.5956 17.5779 0.487593 29.5956 17.5779 0.487593
302 2 31.5684 17.4844 2.06886 31.5684 17.4844 2.06886
303 2 31.4646 17.6876 -1.21454 31.4646 17.6876 -1.21454
304 1 32.4901 19.1461 0.557621 32.4901 19.1461 0.557621
305 2 34.2072 18.9544 2.32759 34.2072 18.9544 2.32759
306 2 34.5473 19.2804 -0.875604 34.5473 19.2804 -0.875604
307 1 35.3207 17.4701 0.637698 35.3207 17.4701 0.637698
308 2 37.303 17.0193 2.13805 37.303 17.0193 2.13805
309 2 37.1775 17.7067 -1.02091 37.1775 17.7067 -1.02091
310 1 38.1653 19.0971 0.812668 38.1653 19.0971 0.812668
311 2 40.2708 19.0973 2.14914 40.2708 19.0973 2.14914
312 2 39.8246 19.1536 -1.05382 39.8246 19.1536 -1.05382
313 1 41.0486 17.4265 0.329879 41.0486 17.4265 0.329879
314 2 43.1094 17.2371 1.80006 43.1094 17.2371 1.80006
315 2 42.8939 17.5705 -1.44221 42.8939 17.5705 -1.44221
316 1 43.8712 19.0998 0.251336 43.8712 19.0998 0.251336
317 2 45.9903 19.0456 1.69129 45.9903 19.0456 1.69129
318 2 45.72 19.1012 -1.56775 45.72 19.1012 -1.56775
319 1 46.7837 17.426 0.108068 46.7837 17.426 0.108068
320 2 48.5737 17.277 1.70091 48.5737 17.277 1.70091
321 2 48.7142 17.5014 -1.51627 48.7142 17.5014 -1.51627
322 1 49.6126 19.0571 0.247884 49.6126 19.0571 0.247884
323 2 51.7214 19.0257 1.63814 51.7214 19.0257 1.63814
324 2 51.3297 18.9795 -1.56578 51.3297 18.9795 -1.56578
325 1 1.02862 20.7511 -0.0737758 1.02862 20.7511 -0.0737758
326 2 3.05324 20.7475 1.63099 3.05324 20.7475 1.63099
327 2 2.92778 20.7771 -1.70121 2.92778 20.7771 -1.70121
328 1 3.89108 22.4127 0.0125516 3.89108 22.4127 0.0125516
329 2 5.68474 22.4816 1.80386 5.68474 22.4816 1.80386
330 2 5.93569 22.5176 -1.46611 5.93569 22.5176 -1.46611
331 1 6.74053 20.7152 0.125616 6.74053 20.7152 0.125616
332 2 8.35318 20.7839 2.05144 8.35318 20.7839 2.05144
333 2 8.93318 20.8612 -1.15451 8.93318 20.8612 -1.15451
334 1 9.60775 22.4528 0.655866 9.60775 22.4528 0.655866
335 2 11.4628 22.5941 2.24306 11.4628 22.5941 2.24306
336 2 11.5862 22.3918 -1.03603 11.5862 22.3918 -1.03603
337 1 12.4519 20.794 0.827612 12.4519 20.794 0.827612
338 2 14.4487 20.8868 2.34899 14.4487 20.8868 2.34899
339 2 14.2736 20.6722 -0.821191 14.2736 20.6722 -0.821191
340 1 15.3075 22.4775 0.564004 15.3075 22.4775 0.564004
341 2 17.2667 22.6016 2.23031 17.2667 22.6016 2.23031
342 2 17.1499 22.2926 -1.12837 17.1499 22.2926 -1.12837
343 1 18.098 20.8421 0.71462 18.098 20.8421 0.71462
344 2 19.97 20.9738 2.29611 19.97 20.9738 2.29611
345 2 19.9007 20.7333 -0.969271 19.9007 20.7333 -0.969271
346 1 20.9218 22.4832 0.510308 20.9218 22.4832 0.510308
347 2 22.8463 22.5532 2.20149 22.8463 22.5532 2.20149
348 2 22.8802 22.4458 -0.983365 22.8802 22.4458 -0.983365
349 1 23.7218 20.8353 0.737622 23.7218 20.8353 0.737622
350 2 25.7156 20.8414 2.24157 25.7156 20.8414 2.24157
351 2 25.4905 20.8272 -0.974834 25.4905 20.8272 -0.974834
352 1 26.6985 22.4337 0.500958 26.6985 22.4337 0.500958
353 2 28.8185 22.3973 2.00319 28.8185 22.3973 2.00319
354 2 28.4933 22.4741 -1.24032 28.4933 22.4741 -1.24032
355 1 29.6117 20.8106 0.288465 29.6117 20.8106 0.288465
356 2 31.4072 20.8416 2.02734 31.4072 20.8416 2.02734
357 2 31.5804 20.794 -1.23187 31.5804 20.794 -1.23187
358 1 32.4313 22.4623 0.445628 32.4313 22.4623 0.445628
359 2 34.1179 22.6419 2.25187 34.1179 22.6419 2.25187
360 2 34.5741 22.3031 -1.02318 34.5741 22.3031 -1.02318
361 1 35.3349 20.8008 0.937199 35.3349 20.8008 0.937199
362 2 37.3006 20.8921 2.45693 37.3006 20.8921 2.45693
363 2 37.1526 20.7774 -0.822145 37.1526 20.7774 -0.822145
364 1 38.2379 22.4661 0.720612 38.2379 22.4661 0.720612
365 2 40.366 22.5918 2.05517 40.366 22.5918 2.05517
366 2 39.8818 22.305 -1.14222 39.8818 22.305 -1.14222
367 1 41.0735 20.7617 0.371449 41.0735 20.7617 0.371449
368 2 43.0363 20.7463 1.93296 43.0363 20.7463 1.93296
369 2 43.0145 20.7345 -1.35488 43.0145 20.7345 -1.35488
370 1 43.9242 22.4524 0.238141 43.9242 22.4524 0.238141
371 2 46.0136 22.3597 1.70386 46.0136 22.3597 1.70386
372 2 45.6683 22.3595 -1.62057 45.6683 22.3595 -1.62057
373 1 46.7885 20.7368 -0.0674524 46.7885 20.7368 -0.0674524
374 2 48.5046 20.9003 1.70606 48.5046 20.9003 1.70606
375 2 48.7354 20.6205 -1.5266 48.7354 20.6205 -1.5266
376 1 49.477 22.4348 -0.0340082 49.477 22.4348 -0.0340082
377 2 51.4551 22.6024 1.5398 51.4551 22.6024 1.5398
378 2 51.3264 22.2375 -1.82884 51.3264 22.2375 -1.82884
379 1 1.00699 24.0633 -0.300951 1.00699 24.0633 -0.300951
380 2 2.82835 24.0754 1.45828 2.82835 24.0754 1.45828
381 2 3.02942 23.9575 -1.78556 3.02942 23.9575 -1.78556
382 1 3.86514 25.7022 -0.169303 3.86514 25.7022 -0.169303
383 2 5.69162 25.7804 1.67281 5.69162 25.7804 1.67281
384 2 5.87657 25.7299 -1.5978 5.87657 25.7299 -1.5978
385 1 6.7798 24.0748 0.272866 6.7798 24.0748 0.272866
386 2 8.41505 24.1004 2.13479 8.41505 24.1004 2.13479
387 2 8.93586 24.1235 -1.09965 8.93586 24.1235 -1.09965
388 1 9.57571 25.8072 0.606777 9.57571 25.8072 0.606777
389 2 11.544 25.7227 2.1553 11.544 25.7227 2.1553
390 2 11.4298 25.6517 -1.01666 11.4298 25.6517 -1.01666
391 1 12.4336 24.1411 0.537577 12.4336 24.1411 0.537577
392 2 14.3452 24.2033 2.14349 14.3452 24.2033 2.14349
393 2 14.3241 23.9845 -1.15285 14.3241 23.9845 -1.15285
394 1 15.2868 25.7441 0.369049 15.2868 25.7441 0.369049
395 2 17.1295 25.747 1.98229 17.1295 25.747 1.98229
396 2 17.1265 25.6069 -1.34394 17.1265 25.6069 -1.34394
397 1 18.0562 24.1115 0.345821 18.0562 24.1115 0.345821
398 2 19.9642 24.2636 2.13184 19.9642 24.2636 2.13184
399 2 20.0246 24.2207 -1.20058 20.0246 24.2207 -1.20058
400 1 21.0179 25.7998 0.481768 21.0179 25.7998 0.481768
401 2 22.9034 25.8645 2.12516 22.9034 25.8645 2.12516
402 2 22.8896 25.7312 -1.16816 22.8896 25.7312 -1.16816
403 1 23.8561 24.1674 0.570284 23.8561 24.1674 0.570284
404 2 25.8638 24.3463 1.97095 25.8638 24.3463 1.97095
405 2 25.5717 23.9267 -1.19544 25.5717 23.9267 -1.19544
406 1 26.7438 25.6747 0.219065 26.7438 25.6747 0.219065
407 2 28.5804 25.7245 1.87361 28.5804 25.7245 1.87361
408 2 28.5933 25.5568 -1.37286 28.5933 25.5568 -1.37286
409 1 29.6472 24.0607 0.294859 29.6472 24.0607 0.294859
410 2 31.5106 24.2167 2.00445 31.5106 24.2167 2.00445
411 2 31.5143 24.0082 -1.33164 31.5143 24.0082 -1.33164
412 1 32.4288 25.7209 0.197235 32.4288 25.7209 0.197235
413 2 34.3778 25.9726 1.74452 34.3778 25.9726 1.74452
414 2 34.3085 25.4973 -1.38555 34.3085 25.4973 -1.38555
415 1 35.3334 24.0531 0.512043 35.3334 24.0531 0.512043
416 2 37.2368 24.3688 2.09674 37.2368 24.3688 2.09674
417 2 37.3087 23.8997 -1.15288 37.3087 23.8997 -1.15288
418 1 38.1351 25.7639 0.149138 38.1351 25.7639 0.149138
419 2 40.1887 25.8035 1.68249 40.1887 25.8035 1.68249
420 2 39.9349 25.5749 -1.56169 39.9349 25.5749 -1.56169
421 1 41.0571 24.1008 0.153468 41.0571 24.1008 0.153468
422 2 43.0481 24.2927 1.69835 43.0481 24.2927 1.69835
423 2 42.8414 23.792 -1.59765 42.8414 23.792 -1.59765
424 1 43.8516 25.6923 -0.267146 43.8516 25.6923 -0.267146
425 2 45.8248 25.8906 1.42218 45.8248 25.8906 1.42218
426 2 45.8711 25.6217 -1.82069 45.8711 25.6217 -1.82069
427 1 46.7544 24.0832 -0.0344634 46.7544 24.0832 -0.0344634
428 2 48.8722 24.3543 1.45772 48.8722 24.3543 1.45772
429 2 48.4755 23.8088 -1.8467 48.4755 23.8088 -1.8467
430 1 49.5845 25.5854 -0.542431 49.5845 25.5854 -0.542431
431 2 51.4056 25.8698 1.1412 51.4056 25.8698 1.1412
432 2 51.5929 25.613 -2.11532 51.5929 25.613 -2.11532
433 1 1.12311 27.3616 -0.466245 1.12311 27.3616 -0.466245
434 2 2.79132 27.3599 1.35067 2.79132 27.3599 1.35067
435 2 3.22813 27.4014 -1.84821 3.22813 27.4014 -1.84821
436 1 3.9433 29.0372 -0.168331 3.9433 29.0372 -0.168331
437 2 5.75931 29.0581 1.53107 5.75931 29.0581 1.53107
438 2 5.80135 28.856 -1.75946 5.80135 28.856 -1.75946
439 1 6.76211 27.3713 0.0564411 6.76211 27.3713 0.0564411
440 2 8.50774 27.6317 1.96332 8.50774 27.6317 1.96332
441 2 8.89605 27.2652 -1.28799 8.89605 27.2652 -1.28799
442 1 9.62446 29.0607 0.289064 9.62446 29.0607 0.289064
443 2 11.4717 29.283 2.06135 11.4717 29.283 2.06135
444 2 11.5541 28.8835 -1.28539 11.5541 28.8835 -1.28539
445 1 12.437 27.4364 0.530391 12.437 27.4364 0.530391
446 2 14.5054 27.4418 2.05361 14.5054 27.4418 2.05361
447 2 14.1763 27.3673 -1.27523 14.1763 27.3673 -1.27523
448 1 15.276 29.0204 0.256885 15.276 29.0204 0.256885
449 2 17.1855 29.0976 1.9406 17.1855 29.0976 1.9406
450 2 17.092 28.871 -1.38867 17.092 28.871 -1.38867
451 1 18.0668 27.3512 0.315756 18.0668 27.3512 0.315756
452 2 20.0225 27.6352 1.94912 20.0225 27.6352 1.94912
453 2 19.9899 27.2008 -1.28372 19.9899 27.2008 -1.28372
454 1 20.9698 29.129 0.232103 20.9698 29.129 0.232103
455 2 22.8721 29.1749 1.95842 22.8721 29.1749 1.95842
456 2 22.879 28.9333 -1.33073 22.879 28.9333 -1.33073
457 1 23.8597 27.4453 0.467935 23.8597 27.4453 0.467935
458 2 25.793 27.3495 1.94762 25.793 27.3495 1.94762
459 2 25.6964 27.4154 -1.31914 25.6964 27.4154 -1.31914
460 1 26.7178 29.0784 0.236817 26.7178 29.0784 0.236817
461 2 28.7752 29.2022 1.61705 28.7752 29.2022 1.61705
462 2 28.503 28.8829 -1.5849 28.503 28.8829 -1.5849
463 1 29.5691 27.3165 0.187853 29.5691 27.3165 0.187853
464 2 31.573 27.4816 1.77967 31.573 27.4816 1.77967
465 2 31.2904 27.1019 -1.52744 31.2904 27.1019 -1.52744
466 1 32.3765 28.9503 -0.233094 32.3765 28.9503 -0.233094
467 2 34.2375 29.1716 1.39109 34.2375 29.1716 1.39109
468 2 34.3609 28.8259 -1.78414 34.3609 28.8259 -1.78414
469 1 35.3034 27.3722 -0.12247 35.3034 27.3722 -0.12247
470 2 37.1356 27.6076 1.44378 37.1356 27.6076 1.44378
471 2 37.2931 27.1758 -1.69564 37.2931 27.1758 -1.69564
472 1 38.1211 29.0402 -0.388821 38.1211 29.0402 -0.388821
473 2 40.0115 29.1079 1.2913 40.0115 29.1079 1.2913
474 2 40.1304 28.8351 -1.91256 40.1304 28.8351 -1.91256
475 1 40.9946 27.2844 -0.110162 40.9946 27.2844 -0.110162
476 2 42.939 27.2536 1.4553 42.939 27.2536 1.4553
477 2 42.761 27.4344 -1.88956 42.761 27.4344 -1.88956
478 1 43.7823 28.9369 -0.204903 43.7823 28.9369 -0.204903
479 2 45.8881 29.1633 1.22354 45.8881 29.1633 1.22354
480 2 45.6677 28.9691 -1.97789 45.6677 28.9691 -1.97789
481 1 46.7587 27.425 -0.293243 46.7587 27.425 -0.293243
482 2 48.7904 27.422 1.13099 48.7904 27.422 1.13099
483 2 48.6334 27.305 -2.05501 48.6334 27.305 -2.05501
484 1 49.5879 29.0573 -0.544444 49.5879 29.0573 -0.544444
485 2 51.4453 28.9569 1.2191 51.4453 28.9569 1.2191
486 2 51.7051 29.0849 -2.07144 51.7051 29.0849 -2.07144
487 1 1.09204 30.6456 -0.220776 1.09204 30.6456 -0.220776
488 2 2.86345 30.6381 1.47138 2.86345 30.6381 1.47138
489 2 2.98114 30.614 -1.85626 2.98114 30.614 -1.85626
490 1 3.87433 32.3372 -0.136397 3.87433 32.3372 -0.136397
491 2 5.80112 32.431 1.40464 5.80112 32.431 1.40464
492 2 5.67696 32.2425 -1.86596 5.67696 32.2425 -1.86596
493 1 6.75546 30.6769 -0.16321 6.75546 30.6769 -0.16321
494 2 8.63869 30.883 1.54612 8.63869 30.883 1.54612
495 2 8.64904 30.4522 -1.69148 8.64904 30.4522 -1.69148
496 1 9.57046 32.3638 -0.296033 9.57046 32.3638 -0.296033
497 2 11.3555 32.5791 1.56687 11.3555 32.5791 1.56687
498 2 11.6814 32.1987 -1.64088 11.6814 32.1987 -1.64088
499 1 12.4583 30.6801 0.279643 12.4583 30.6801 0.279643
500 2 14.4697 30.6643 1.88671 14.4697 30.6643 1.88671
501 2 14.2304 30.6642 -1.43599 14.2304 30.6642 -1.43599
502 1 15.2166 32.2952 0.15621 15.2166 32.2952 0.15621
503 2 17.2526 32.335 1.72035 17.2526 32.335 1.72035
504 2 17.0164 32.1225 -1.52505 17.0164 32.1225 -1.52505
505 1 18.0891 30.601 0.157985 18.0891 30.601 0.157985
506 2 20.0041 30.8631 1.7524 20.0041 30.8631 1.7524
507 2 20.0014 30.5511 -1.53419 20.0014 30.5511 -1.53419
508 1 20.9297 32.3162 0.00337373 20.9297 32.3162 0.00337373
509 2 22.8306 32.5574 1.61076 22.8306 32.5574 1.61076
510 2 22.9278 32.2333 -1.52255 22.9278 32.2333 -1.52255
511 1 23.8564 30.7201 0.24648 23.8564 30.7201 0.24648
512 2 25.8391 30.7921 1.77077 25.8391 30.7921 1.77077
513 2 25.7179 30.7144 -1.47554 25.7179 30.7144 -1.47554
514 1 26.8399 32.3673 -0.0605435 26.8399 32.3673 -0.0605435
515 2 28.8136 32.2873 1.44779 28.8136 32.2873 1.44779
516 2 28.5226 32.2362 -1.77386 28.5226 32.2362 -1.77386
517 1 29.5697 30.6385 -0.239863 29.5697 30.6385 -0.239863
518 2 31.5391 30.7141 1.44638 31.5391 30.7141 1.44638
519 2 31.4146 30.652 -1.81866 31.4146 30.652 -1.81866
520 1 32.4716 32.2997 -0.342452 32.4716 32.2997 -0.342452
521 2 34.4201 32.4209 1.18885 34.4201 32.4209 1.18885
522 2 34.2152 32.1464 -2.0837 34.2152 32.1464 -2.0837
523 1 35.2013 30.6649 -0.329114 35.2013 30.6649 -0.329114
524 2 37.1733 30.7304 1.2416 37.1733 30.7304 1.2416
525 2 37.177 30.6495 -1.96901 37.177 30.6495 -1.96901
526 1 38.14 32.3484 -0.474308 38.14 32.3484 -0.474308
527 2 39.9875 32.3387 1.17386 39.9875 32.3387 1.17386
528 2 40.081 32.141 -2.07504 40.081 32.141 -2.07504
529 1 40.9998 30.6346 -0.34583 40.9998 30.6346 -0.34583
530 2 42.9141 30.8399 1.20166 42.9141 30.8399 1.20166
531 2 42.9007 30.5405 -1.98061 42.9007 30.5405 -1.98061
532 1 43.9084 32.3885 -0.546843 43.9084 32.3885 -0.546843
533 2 45.8422 32.4373 1.06762 45.8422 32.4373 1.06762
534 2 45.8196 32.5009 -2.15487 45.8196 32.5009 -2.15487
535 1 46.649 30.7053 -0.536675 46.649 30.7053 -0.536675
536 2 48.488 30.7285 1.18176 48.488 30.7285 1.18176
537 2 48.7381 30.8522 -2.05938 48.7381 30.8522 -2.05938
538 1 49.6637 32.2931 -0.34184 49.6637 32.2931 -0.34184
539 2 51.4402 32.3054 1.39763 51.4402 32.3054 1.39763