ITEM: TIMESTEP
10600
ITEM: NUMBER OF ATOMS
810
ITEM: BOX BOUNDS pp pp pp
8.4600673504253820e-01 5.2171598264957922e+01
7.7800903499449914e-01 5.0238205965004660e+01
-1.0000000000000000e+01 1.0000000000000000e+01
ITEM: ATOMS id type x y z xu yu zu
1 1 0.965614 1.05634 -0.445761 0.965614 1.05634 -0.445761
2 2 2.86916 1.13113 1.14422 2.86916 1.13113 1.14422
3 2 2.95451 0.953355 -1.94293 2.95451 0.953355 -1.94293
4 1 3.84357 2.68577 -0.440458 3.84357 2.68577 -0.440458
5 2 5.61747 2.83411 1.27728 5.61747 2.83411 1.27728
6 2 5.76331 2.32496 -2.02631 5.76331 2.32496 -2.02631
7 1 6.65817 1.0097 -0.0335247 6.65817 1.0097 -0.0335247
8 2 8.67625 0.998751 1.53888 8.67625 0.998751 1.53888
9 2 8.58375 0.9103 -1.73532 8.58375 0.9103 -1.73532
10 1 9.50541 2.6612 -0.117125 9.50541 2.6612 -0.117125
11 2 11.2793 2.59837 1.55508 11.2793 2.59837 1.55508
12 2 11.4385 2.47845 -1.69003 11.4385 2.47845 -1.69003
13 1 12.4043 1.00818 -0.0705274 12.4043 1.00818 -0.0705274
14 2 14.3714 1.03698 1.62654 14.3714 1.03698 1.62654
15 2 14.2855 1.01594 -1.68852 14.2855 1.01594 -1.68852
16 1 15.2982 2.60282 -0.0341887 15.2982 2.60282 -0.0341887
17 2 17.303 2.49732 1.42148 17.303 2.49732 1.42148
18 2 17.0903 2.79029 -1.6933 17.0903 2.79029 -1.6933
19 1 18.179 0.947919 -0.335211 18.179 0.947919 -0.335211
20 2 20.0057 0.857417 1.32976 20.0057 0.857417 1.32976
21 2 20.0896 1.0564 -1.90465 20.0896 1.0564 -1.90465
22 1 20.9553 2.64383 -0.184392 20.9553 2.64383 -0.184392
23 2 23.0341 2.19838 1.23922 23.0341 2.19838 1.23922
24 2 22.7674 2.86217 -1.93329 22.7674 2.86217 -1.93329
25 1 23.8004 0.980189 -0.677167 23.8004 0.980189 -0.677167
26 2 25.7689 0.746851 1.08917 25.7689 0.746851 1.08917
27 2 25.791 50.4937 -2.24371 25.791 1.03354 -2.24371
28 1 26.6557 2.55757 -0.431528 26.6557 2.55757 -0.431528
29 2 28.518 2.50665 1.35481 28.518 2.50665 1.35481
30 2 28.7228 2.67878 -1.88929 28.7228 2.67878 -1.88929
31 1 29.5814 1.00386 -0.394816 29.5814 1.00386 -0.394816
32 2 31.4668 1.00391 1.30215 31.4668 1.00391 1.30215
33 2 31.5337 1.06807 -1.91354 31.5337 1.06807 -1.91354
34 1 32.4534 2.70618 -0.222957 32.4534 2.70618 -0.222957
35 2 34.4368 2.79813 1.3005 34.4368 2.79813 1.3005
36 2 34.275 2.62344 -1.86673 34.275 2.62344 -1.86673
37 1 35.3098 1.07123 -0.275831 35.3098 1.07123 -0.275831
38 2 37.2568 0.960131 1.33005 37.2568 0.960131 1.33005
39 2 37.2056 1.221 -1.9727 37.2056 1.221 -1.9727
40 1 38.2049 2.67266 -0.237064 38.2049 2.67266 -0.237064
41 2 40.1471 2.67885 1.10651 40.1471 2.67885 1.10651
42 2 39.804 2.68685 -2.12012 39.804 2.68685 -2.12012
43 1 40.8599 0.986796 -0.704427 40.8599 0.986796 -0.704427
44 2 42.8738 0.957644 0.861757 42.8738 0.957644 0.861757
45 2 42.7373 0.95635 -2.36603 42.7373 0.95635 -2.36603
46 1 43.7795 2.56487 -0.859658 43.7795 2.56487 -0.859658
47 2 45.7285 2.704 0.815968 45.7285 2.704 0.815968
48 2 45.7873 2.37686 -2.41465 45.7873 2.37686 -2.41465
49 1 46.7035 0.986851 -0.695724 46.7035 0.986851 -0.695724
50 2 48.4833 1.07815 1.01109 48.4833 1.07815 1.01109
51 2 48.6464 0.873019 -2.29016 48.6464 0.873019 -2.29016
52 1 49.4998 2.69461 -0.629943 49.4998 2.69461 -0.629943
53 2 51.3856 2.88866 0.914598 51.3856 2.88866 0.914598
54 2 51.2924 2.50114 -2.28748 51.2924 2.50114 -2.28748
55 1 0.98179 4.34997 -0.947915 0.98179 4.34997 -0.947915
56 2 2.72571 4.47336 0.981663 2.72571 4.47336 0.981663
57 2 3.07298 4.08777 -2.36656 3.07298 4.08777 -2.36656
58 1 3.83517 5.95581 -0.815443 3.83517 5.95581 -0.815443
59 2 5.56538 5.90172 1.0069 5.56538 5.90172 1.0069
60 2 5.96559 5.93395 -2.27386 5.96559 5.93395 -2.27386
61 1 6.64454 4.22894 -0.642694 6.64454 4.22894 -0.642694
62 2 8.25678 4.21748 1.26495 8.25678 4.21748 1.26495
63 2 8.85322 4.25502 -1.90075 8.85322 4.25502 -1.90075
64 1 9.52615 5.93395 -0.209811 9.52615 5.93395 -0.209811
65 2 11.3286 5.83528 1.5204 11.3286 5.83528 1.5204
66 2 11.6455 5.99426 -1.68145 11.6455 5.99426 -1.68145
67 1 12.363 4.2547 -0.113822 12.363 4.2547 -0.113822
68 2 14.1996 4.12447 1.66126 14.1996 4.12447 1.66126
69 2 14.3985 4.30925 -1.58224 14.3985 4.30925 -1.58224
70 1 15.2544 5.81182 0.214622 15.2544 5.81182 0.214622
71 2 17.1833 5.84204 1.66498 17.1833 5.84204 1.66498
72 2 17.125 5.85122 -1.5785 17.125 5.85122 -1.5785
73 1 18.1454 4.28954 0.0334807 18.1454 4.28954 0.0334807
74 2 20.1275 4.31691 1.64615 20.1275 4.31691 1.64615
75 2 19.9505 4.40707 -1.77406 19.9505 4.40707 -1.77406
76 1 20.9961 5.96223 -0.149568 20.9961 5.96223 -0.149568
77 2 23.061 5.98643 1.43923 23.061 5.98643 1.43923
78 2 22.9319 6.03299 -1.85329 22.9319 6.03299 -1.85329
79 1 23.8767 4.24625 -0.227967 23.8767 4.24625 -0.227967
80 2 25.7133 4.00339 1.39299 25.7133 4.00339 1.39299
81 2 25.7849 4.49497 -1.80233 25.7849 4.49497 -1.80233
82 1 26.6541 5.96833 0.166545 26.6541 5.96833 0.166545
83 2 28.6386 5.9187 1.60987 28.6386 5.9187 1.60987
84 2 28.4329 5.83209 -1.75202 28.4329 5.83209 -1.75202
85 1 29.4402 4.25861 -0.0344366 29.4402 4.25861 -0.0344366
86 2 31.5924 4.37508 1.45534 31.5924 4.37508 1.45534
87 2 31.3459 4.298 -1.87318 31.3459 4.298 -1.87318
88 1 32.4121 5.90004 -0.322711 32.4121 5.90004 -0.322711
89 2 34.4111 6.06023 1.20057 34.4111 6.06023 1.20057
90 2 34.2859 5.96385 -2.00673 34.2859 5.96385 -2.00673
91 1 35.3302 4.36961 -0.41735 35.3302 4.36961 -0.41735
92 2 37.2999 4.41612 1.24888 37.2999 4.41612 1.24888
93 2 37.2638 4.07398 -2.02328 37.2638 4.07398 -2.02328
94 1 38.1633 6.05516 -0.520316 38.1633 6.05516 -0.520316
95 2 40.1611 5.96673 1.03772 40.1611 5.96673 1.03772
96 2 39.9156 5.84506 -2.24477 39.9156 5.84506 -2.24477
97 1 40.9264 4.26017 -0.619052 40.9264 4.26017 -0.619052
98 2 43.0127 4.23984 0.799958 43.0127 4.23984 0.799958
99 2 42.6679 4.10881 -2.36956 42.6679 4.10881 -2.36956
100 1 43.835 5.79305 -0.926689 43.835 5.79305 -0.926689
101 2 45.6523 5.9617 0.785244 45.6523 5.9617 0.785244
102 2 45.7631 5.77372 -2.50237 45.7631 5.77372 -2.50237
103 1 46.6717 4.23341 -0.894654 46.6717 4.23341 -0.894654
104 2 48.6512 4.4671 0.814191 48.6512 4.4671 0.814191
105 2 48.502 4.01019 -2.52963 48.502 4.01019 -2.52963
106 1 49.5587 5.94887 -1.13061 49.5587 5.94887 -1.13061
107 2 51.3513 6.00605 0.631712 51.3513 6.00605 0.631712
108 2 51.578 5.96099 -2.72713 51.578 5.96099 -2.72713
109 1 1.00176 7.56882 -0.940189 1.00176 7.56882 -0.940189
110 2 2.99609 7.7052 0.709327 2.99609 7.7052 0.709327
111 2 2.85652 7.51403 -2.62072 2.85652 7.51403 -2.62072
112 1 3.88973 9.20584 -0.976519 3.88973 9.20584 -0.976519
113 2 5.52673 9.34688 0.784769 5.52673 9.34688 0.784769
114 2 6.00508 9.13774 -2.37058 6.00508 9.13774 -2.37058
115 1 6.70033 7.57937 -0.552788 6.70033 7.57937 -0.552788
116 2 8.55198 7.63994 1.26934 8.55198 7.63994 1.26934
117 2 8.78765 7.48074 -2.00643 8.78765 7.48074 -2.00643
118 1 9.63167 9.19153 -0.384102 9.63167 9.19153 -0.384102
119 2 11.3912 9.41671 1.45281 11.3912 9.41671 1.45281
120 2 11.736 9.08736 -1.76022 11.736 9.08736 -1.76022
121 1 12.4258 7.62329 0.122026 12.4258 7.62329 0.122026
122 2 14.4073 7.62099 1.65483 14.4073 7.62099 1.65483
123 2 14.3776 7.3608 -1.56435 14.3776 7.3608 -1.56435
124 1 15.2972 9.18513 -0.138391 15.2972 9.18513 -0.138391
125 2 17.1445 9.17337 1.46767 17.1445 9.17337 1.46767
126 2 17.0454 9.06998 -1.8189 17.0454 9.06998 -1.8189
127 1 18.0443 7.50401 -0.0461688 18.0443 7.50401 -0.0461688
128 2 20.0481 7.67104 1.48801 20.0481 7.67104 1.48801
129 2 19.8771 7.37924 -1.69153 19.8771 7.37924 -1.69153
130 1 20.9282 9.23109 -0.271813 20.9282 9.23109 -0.271813
131 2 22.7919 9.33406 1.42635 22.7919 9.33406 1.42635
132 2 22.738 9.17068 -1.95476 22.738 9.17068 -1.95476
133 1 23.766 7.67596 -0.20937 23.766 7.67596 -0.20937
134 2 25.7009 7.81038 1.50851 25.7009 7.81038 1.50851
135 2 25.7949 7.47105 -1.78065 25.7949 7.47105 -1.78065
136 1 26.7108 9.23857 -0.283472 26.7108 9.23857 -0.283472
137 2 28.601 9.4271 1.29226 28.601 9.4271 1.29226
138 2 28.5217 9.16815 -1.88268 28.5217 9.16815 -1.88268
139 1 29.5302 7.59941 -0.183953 29.5302 7.59941 -0.183953
140 2 31.5247 7.67009 1.28042 31.5247 7.67009 1.28042
141 2 31.3241 7.50539 -1.99995 31.3241 7.50539 -1.99995
142 1 32.4306 9.16328 -0.562396 32.4306 9.16328 -0.562396
143 2 34.2422 9.28402 1.08615 34.2422 9.28402 1.08615
144 2 34.3036 9.22162 -2.11383 34.3036 9.22162 -2.11383
145 1 35.2256 7.62341 -0.515473 35.2256 7.62341 -0.515473
146 2 37.2075 7.68595 1.06662 37.2075 7.68595 1.06662
147 2 37.0371 7.79306 -2.19144 37.0371 7.79306 -2.19144
148 1 38.0675 9.32137 -0.623657 38.0675 9.32137 -0.623657
149 2 40.1611 9.29341 0.964197 40.1611 9.29341 0.964197
150 2 39.9814 9.09729 -2.3303 39.9814 9.09729 -2.3303
151 1 40.9238 7.56343 -0.703762 40.9238 7.56343 -0.703762
152 2 42.8302 7.19356 0.841403 42.8302 7.19356 0.841403
153 2 42.7655 7.66919 -2.35111 42.7655 7.66919 -2.35111
154 1 43.7334 9.17684 -0.46719 43.7334 9.17684 -0.46719
155 2 45.8366 9.09373 0.923309 45.8366 9.09373 0.923309
156 2 45.4786 9.19819 -2.33324 45.4786 9.19819 -2.33324
157 1 46.6024 7.4937 -0.908203 46.6024 7.4937 -0.908203
158 2 48.6811 7.57179 0.538893 48.6811 7.57179 0.538893
159 2 48.4265 7.53406 -2.61819 48.4265 7.53406 -2.61819
160 1 49.4669 9.2389 -1.04781 49.4669 9.2389 -1.04781
161 2 51.38 9.38536 0.529648 51.38 9.38536 0.529648
162 2 51.3195 9.12787 -2.65793 51.3195 9.12787 -2.65793
163 1 1.05232 10.8892 -1.1967 1.05232 10.8892 -1.1967
164 2 2.77098 10.7732 0.52358 2.77098 10.7732 0.52358
165 2 3.01485 10.8751 -2.59429 3.01485 10.8751 -2.59429
166 1 3.88186 12.4755 -0.903518 3.88186 12.4755 -0.903518
167 2 5.64668 12.5627 0.852044 5.64668 12.5627 0.852044
168 2 5.94034 12.4249 -2.39929 5.94034 12.4249 -2.39929
169 1 6.70873 10.9125 -0.723932 6.70873 10.9125 -0.723932
170 2 8.56727 11.0246 1.03443 8.56727 11.0246 1.03443
171 2 8.68442 10.5184 -2.25851 8.68442 10.5184 -2.25851
172 1 9.59288 12.5505 -0.666706 9.59288 12.5505 -0.666706
173 2 11.2687 12.4948 1.24605 11.2687 12.4948 1.24605
174 2 11.7573 12.5848 -1.85365 11.7573 12.5848 -1.85365
175 1 12.438 10.8839 -0.148037 12.438 10.8839 -0.148037
176 2 14.3053 10.8955 1.48392 14.3053 10.8955 1.48392
177 2 14.3834 10.7425 -1.79085 14.3834 10.7425 -1.79085
178 1 15.2284 12.5506 -0.174266 15.2284 12.5506 -0.174266
179 2 17.2387 12.3394 1.44865 17.2387 12.3394 1.44865
180 2 17.2293 12.757 -1.87089 17.2293 12.757 -1.87089
181 1 18.0248 10.7983 -0.299835 18.0248 10.7983 -0.299835
182 2 19.9762 10.8611 1.33759 19.9762 10.8611 1.33759
183 2 19.904 10.9028 -1.88694 19.904 10.9028 -1.88694
184 1 20.9425 12.4776 -0.274367 20.9425 12.4776 -0.274367
185 2 22.9183 12.6148 1.30262 22.9183 12.6148 1.30262
186 2 22.8141 12.4395 -1.90932 22.8141 12.4395 -1.90932
187 1 23.8456 10.8382 -0.248999 23.8456 10.8382 -0.248999
188 2 25.7781 10.969 1.31854 25.7781 10.969 1.31854
189 2 25.6532 10.8629 -1.873 25.6532 10.8629 -1.873
190 1 26.6746 12.5195 -0.286239 26.6746 12.5195 -0.286239
191 2 28.7394 12.492 1.24632 28.7394 12.492 1.24632
192 2 28.4967 12.4211 -1.95077 28.4967 12.4211 -1.95077
193 1 29.6461 10.8615 -0.412336 29.6461 10.8615 -0.412336
194 2 31.6187 10.9559 1.24689 31.6187 10.9559 1.24689
195 2 31.5092 10.976 -2.06155 31.5092 10.976 -2.06155
196 1 32.4388 12.6406 -0.448837 32.4388 12.6406 -0.448837
197 2 34.3077 12.6713 1.23037 34.3077 12.6713 1.23037
198 2 34.1823 12.6956 -2.11636 34.1823 12.6956 -2.11636
199 1 35.1544 10.9906 -0.480326 35.1544 10.9906 -0.480326
200 2 37.3006 11.0455 1.08827 37.3006 11.0455 1.08827
201 2 36.9628 11.0784 -2.17936 36.9628 11.0784 -2.17936
202 1 38.0955 12.6199 -0.566172 38.0955 12.6199 -0.566172
203 2 40.0221 12.3989 1.07732 40.0221 12.3989 1.07732
204 2 40.0886 12.8011 -2.07303 40.0886 12.8011 -2.07303
205 1 40.9525 10.8723 -0.731904 40.9525 10.8723 -0.731904
206 2 42.5886 10.9139 1.06565 42.5886 10.9139 1.06565
207 2 42.9175 10.8224 -2.16865 42.9175 10.8224 -2.16865
208 1 43.7094 12.5325 -0.53646 43.7094 12.5325 -0.53646
209 2 45.6838 12.2666 0.994807 45.6838 12.2666 0.994807
210 2 45.6012 12.7058 -2.21696 45.6012 12.7058 -2.21696
211 1 46.5676 10.8466 -0.839504 46.5676 10.8466 -0.839504
212 2 48.521 10.6813 0.728634 48.521 10.6813 0.728634
213 2 48.3863 11.0963 -2.54955 48.3863 11.0963 -2.54955
214 1 49.4735 12.5047 -0.786941 49.4735 12.5047 -0.786941
215 2 51.4149 12.4154 0.661303 51.4149 12.4154 0.661303
216 2 51.3093 12.7979 -2.54351 51.3093 12.7979 -2.54351
217 1 1.03862 14.1313 -0.775424 1.03862 14.1313 -0.775424
218 2 2.88009 13.9263 1.0674 2.88009 13.9263 1.0674
219 2 3.0024 14.3464 -2.28737 3.0024 14.3464 -2.28737
220 1 3.9488 15.713 -0.326115 3.9488 15.713 -0.326115
221 2 5.99404 15.6668 1.03586 5.99404 15.6668 1.03586
222 2 5.679 15.965 -2.17826 5.679 15.965 -2.17826
223 1 6.73922 14.124 -0.709815 6.73922 14.124 -0.709815
224 2 8.53544 13.9549 1.10276 8.53544 13.9549 1.10276
225 2 8.80765 14.411 -2.05285 8.80765 14.411 -2.05285
226 1 9.59916 15.8375 -0.163193 9.59916 15.8375 -0.163193
227 2 11.4418 15.7699 1.57931 11.4418 15.7699 1.57931
228 2 11.5796 15.9114 -1.63995 11.5796 15.9114 -1.63995
229 1 12.4602 14.2566 -0.0862559 12.4602 14.2566 -0.0862559
230 2 14.2851 14.038 1.57649 14.2851 14.038 1.57649
231 2 14.4011 14.3926 -1.67555 14.4011 14.3926 -1.67555
232 1 15.3772 15.8004 0.176828 15.3772 15.8004 0.176828
233 2 17.376 15.7436 1.63826 17.376 15.7436 1.63826
234 2 17.0133 15.9397 -1.612 17.0133 15.9397 -1.612
235 1 18.0965 14.1294 -0.117274 18.0965 14.1294 -0.117274
236 2 20.0296 14.1004 1.46001 20.0296 14.1004 1.46001
237 2 20.066 14.2849 -1.82303 20.066 14.2849 -1.82303
238 1 20.9544 15.7648 -0.0482869 20.9544 15.7648 -0.0482869
239 2 22.8864 15.5804 1.45081 22.8864 15.5804 1.45081
240 2 22.6782 15.9794 -1.73602 22.6782 15.9794 -1.73602
241 1 23.8573 14.1989 -0.372807 23.8573 14.1989 -0.372807
242 2 25.7437 14.2437 1.36487 25.7437 14.2437 1.36487
243 2 25.826 14.1913 -2.02117 25.826 14.1913 -2.02117
244 1 26.7087 15.7882 -0.300068 26.7087 15.7882 -0.300068
245 2 28.73 15.7064 1.31034 28.73 15.7064 1.31034
246 2 28.6232 15.9713 -1.92781 28.6232 15.9713 -1.92781
247 1 29.5216 14.1711 -0.456135 29.5216 14.1711 -0.456135
248 2 31.4273 14.1658 1.2402 31.4273 14.1658 1.2402
249 2 31.5396 14.3643 -2.04806 31.5396 14.3643 -2.04806
250 1 32.3598 15.9355 -0.174766 32.3598 15.9355 -0.174766
251 2 34.4745 15.7487 1.3074 34.4745 15.7487 1.3074
252 2 34.1993 15.9071 -1.94283 34.1993 15.9071 -1.94283
253 1 35.2424 14.131 -0.383325 35.2424 14.131 -0.383325
254 2 37.1634 14.1129 1.21128 37.1634 14.1129 1.21128
255 2 37.145 14.412 -2.03239 37.145 14.412 -2.03239
256 1 38.0745 15.8591 -0.233533 38.0745 15.8591 -0.233533
257 2 40.0005 15.8381 1.37305 40.0005 15.8381 1.37305
258 2 39.9669 15.8911 -1.83219 39.9669 15.8911 -1.83219
259 1 40.9544 14.2079 -0.224768 40.9544 14.2079 -0.224768
260 2 42.8559 14.0009 1.30054 42.8559 14.0009 1.30054
261 2 42.7471 14.3338 -2.03429 42.7471 14.3338 -2.03429
262 1 43.7937 15.8127 -0.165882 43.7937 15.8127 -0.165882
263 2 45.7581 15.6233 1.34002 45.7581 15.6233 1.34002
264 2 45.6671 15.9203 -1.85387 45.6671 15.9203 -1.85387
265 1 46.5479 14.1438 -0.431759 46.5479 14.1438 -0.431759
266 2 48.4851 14.0034 1.06154 48.4851 14.0034 1.06154
267 2 48.4952 14.4172 -2.0755 48.4952 14.4172 -2.0755
268 1 49.5147 15.7829 -0.323487 49.5147 15.7829 -0.323487
269 2 51.4391 15.4047 1.17472 51.4391 15.4047 1.17472
270 2 51.4196 16.0223 -1.99237 51.4196 16.0223 -1.99237
271 1 1.06756 17.3487 -0.184367 1.06756 17.3487 -0.184367
272 2 2.95542 17.2839 1.41658 2.95542 17.2839 1.41658
273 2 2.91618 17.5031 -1.83825 2.91618 17.5031 -1.83825
274 1 3.85044 19.1075 -0.118744 3.85044 19.1075 -0.118744
275 2 5.78587 19.0045 1.44591 5.78587 19.0045 1.44591
276 2 5.70142 19.2592 -1.89429 5.70142 19.2592 -1.89429
277 1 6.66814 17.4341 -0.416676 6.66814 17.4341 -0.416676
278 2 8.39054 17.4779 1.45528 8.39054 17.4779 1.45528
279 2 8.76721 17.56 -1.85544 8.76721 17.56 -1.85544
280 1 9.55166 19.0962 0.0274924 9.55166 19.0962 0.0274924
281 2 11.4519 19.0458 1.81291 11.4519 19.0458 1.81291
282 2 11.5044 19.1655 -1.48702 11.5044 19.1655 -1.48702
283 1 12.5132 17.393 0.0598948 12.5132 17.393 0.0598948
284 2 14.3378 17.3827 1.80135 14.3378 17.3827 1.80135
285 2 14.5153 17.4298 -1.42191 14.5153 17.4298 -1.42191
286 1 15.27 19.0895 0.368345 15.27 19.0895 0.368345
287 2 17.2616 18.8604 1.91317 17.2616 18.8604 1.91317
288 2 17.1602 19.3205 -1.27029 17.1602 19.3205 -1.27029
289 1 18.1008 17.4547 0.0655188 18.1008 17.4547 0.0655188
290 2 20.0984 17.4421 1.66949 20.0984 17.4421 1.66949
291 2 19.9611 17.4023 -1.62108 19.9611 17.4023 -1.62108
292 1 20.9615 19.0876 -0.0158192 20.9615 19.0876 -0.0158192
293 2 22.873 19.0079 1.64551 22.873 19.0079 1.64551
294 2 22.9979 19.2013 -1.60031 22.9979 19.2013 -1.60031
295 1 23.7885 17.5036 -0.00122911 23.7885 17.5036 -0.00122911
296 2 25.7634 17.3683 1.49413 25.7634 17.3683 1.49413
297 2 25.6045 17.5515 -1.65038 25.6045 17.5515 -1.65038
298 1 26.6079 19.1009 -0.0467506 26.6079 19.1009 -0.0467506
299 2 28.5566 19.1228 1.61269 28.5566 19.1228 1.61269
300 2 28.4442 19.1491 -1.69669 28.4442 19.1491 -1.69669
301 1 29.5039 17.485 -0.149955 29.5039 17.485 -0.149955
302 2 31.369 17.5631 1.4822 31.369 17.5631 1.4822
303 2 31.3615 17.5673 -1.79782 31.3615 17.5673 -1.79782
304 1 32.3415 19.1817 -0.2074 32.3415 19.1817 -0.2074
305 2 34.2846 19.1518 1.39061 34.2846 19.1518 1.39061
306 2 34.179 19.1272 -1.8551 34.179 19.1272 -1.8551
307 1 35.1894 17.4492 -0.291741 35.1894 17.4492 -0.291741
308 2 37.1286 17.5127 1.35354 37.1286 17.5127 1.35354
309 2 37.2114 17.3919 -1.87785 37.2114 17.3919 -1.87785
310 1 38.1033 19.0937 -0.255259 38.1033 19.0937 -0.255259
311 2 39.8358 19.0373 1.45822 39.8358 19.0373 1.45822
312 2 40.2045 19.3949 -1.74193 40.2045 19.3949 -1.74193
313 1 40.9428 17.5234 -0.21417 40.9428 17.5234 -0.21417
314 2 42.7707 17.3001 1.49174 42.7707 17.3001 1.49174
315 2 42.9313 17.5999 -1.69042 42.9313 17.5999 -1.69042
316 1 43.8451 19.1192 0.0895654 43.8451 19.1192 0.0895654
317 2 45.8746 19.0643 1.62129 45.8746 19.0643 1.62129
318 2 45.6538 19.0598 -1.63205 45.6538 19.0598 -1.63205
319 1 46.6954 17.4416 -0.109354 46.6954 17.4416 -0.109354
320 2 48.6599 17.489 1.41647 48.6599 17.489 1.41647
321 2 48.4496 17.4994 -1.83907 48.4496 17.4994 -1.83907
322 1 49.5088 19.024 -0.210288 49.5088 19.024 -0.210288
323 2 51.397 18.8751 1.47151 51.397 18.8751 1.47151
324 2 51.3858 19.1025 -1.84619 51.3858 19.1025 -1.84619
325 1 0.9573 20.7619 -0.0684377 0.9573 20.7619 -0.0684377
326 2 2.89431 20.6517 1.60093 2.89431 20.6517 1.60093
327 2 2.84681 20.7992 -1.63818 2.84681 20.7992 -1.63818
328 1 3.92705 22.3955 0.0854659 3.92705 22.3955 0.0854659
329 2 5.92611 22.3238 1.6226 5.92611 22.3238 1.6226
330 2 5.72274 22.5651 -1.62006 5.72274 22.5651 -1.62006
331 1 6.75869 20.7569 -0.176412 6.75869 20.7569 -0.176412
332 2 8.72377 20.8511 1.53124 8.72377 20.8511 1.53124
333 2 8.63092 20.7919 -1.78599 8.63092 20.7919 -1.78599
334 1 9.62034 22.396 -0.15106 9.62034 22.396 -0.15106
335 2 11.222 22.3945 1.75405 11.222 22.3945 1.75405
336 2 11.6961 22.4528 -1.48175 11.6961 22.4528 -1.48175
337 1 12.4002 20.754 0.259714 12.4002 20.754 0.259714
338 2 14.3732 20.6832 2.01752 14.3732 20.6832 2.01752
339 2 14.269 20.8407 -1.26338 14.269 20.8407 -1.26338
340 1 15.3036 22.3836 0.40325 15.3036 22.3836 0.40325
341 2 16.9995 22.1616 2.20713 16.9995 22.1616 2.20713
342 2 17.2702 22.5175 -1.08137 17.2702 22.5175 -1.08137
343 1 18.1699 20.7373 0.484906 18.1699 20.7373 0.484906
344 2 20.26 20.5695 1.91073 20.26 20.5695 1.91073
345 2 19.9589 21.0406 -1.30598 19.9589 21.0406 -1.30598
346 1 21.0325 22.4013 0.501821 21.0325 22.4013 0.501821
347 2 23.0855 22.414 1.93696 23.0855 22.414 1.93696
348 2 22.5728 22.4358 -1.29752 22.5728 22.4358 -1.29752
349 1 23.8334 20.8375 0.161466 23.8334 20.8375 0.161466
350 2 25.8528 20.6365 1.72205 25.8528 20.6365 1.72205
351 2 25.6524 20.907 -1.49841 25.6524 20.907 -1.49841
352 1 26.7564 22.3872 0.166959 26.7564 22.3872 0.166959
353 2 28.5451 22.2751 1.80396 28.5451 22.2751 1.80396
354 2 28.6045 22.463 -1.41696 28.6045 22.463 -1.41696
355 1 29.5469 20.7926 -0.0117241 29.5469 20.7926 -0.0117241
356 2 31.4882 20.8349 1.50263 31.4882 20.8349 1.50263
357 2 31.3073 20.8492 -1.74086 31.3073 20.8492 -1.74086
358 1 32.4281 22.4449 -0.1853 32.4281 22.4449 -0.1853
359 2 34.2468 22.2873 1.49859 34.2468 22.2873 1.49859
360 2 34.3626 22.5606 -1.72679 34.3626 22.5606 -1.72679
361 1 35.2298 20.7435 -0.204815 35.2298 20.7435 -0.204815
362 2 37.0113 20.5256 1.45131 37.0113 20.5256 1.45131
363 2 37.2155 20.8917 -1.79148 37.2155 20.8917 -1.79148
364 1 38.0579 22.3852 0.0613063 38.0579 22.3852 0.0613063
365 2 39.9065 22.4356 1.67148 39.9065 22.4356 1.67148
366 2 40.0089 22.3255 -1.5535 40.0089 22.3255 -1.5535
367 1 40.9936 20.8355 0.103235 40.9936 20.8355 0.103235
368 2 42.9372 20.7723 1.71883 42.9372 20.7723 1.71883
369 2 42.9753 20.7856 -1.57797 42.9753 20.7856 -1.57797
370 1 43.882 22.4211 0.0757936 43.882 22.4211 0.0757936
371 2 45.8997 22.2781 1.6967 45.8997 22.2781 1.6967
372 2 45.753 22.4598 -1.51633 45.753 22.4598 -1.51633
373 1 46.7234 20.703 -0.0582912 46.7234 20.703 -0.0582912
374 2 48.6125 20.6077 1.53563 48.6125 20.6077 1.53563
375 2 48.5376 20.7512 -1.75218 48.5376 20.7512 -1.75218
376 1 49.4582 22.4677 0.0291544 49.4582 22.4677 0.0291544
377 2 51.3307 22.3954 1.56686 51.3307 22.3954 1.56686
378 2 51.3216 22.4833 -1.67327 51.3216 22.4833 -1.67327
379 1 0.988953 24.0909 0.0831671 0.988953 24.0909 0.0831671
380 2 2.84353 24.0391 1.72199 2.84353 24.0391 1.72199
381 2 2.96351 24.1232 -1.58241 2.96351 24.1232 -1.58241
382 1 3.92378 25.7771 0.137802 3.92378 25.7771 0.137802
383 2 5.79162 25.6449 1.81289 5.79162 25.6449 1.81289
384 2 5.81518 25.8757 -1.4556 5.81518 25.8757 -1.4556
385 1 6.72479 24.0472 0.078465 6.72479 24.0472 0.078465
386 2 8.57657 23.8831 1.56754 8.57657 23.8831 1.56754
387 2 8.60728 24.2387 -1.67593 8.60728 24.2387 -1.67593
388 1 9.58541 25.7721 0.0826006 9.58541 25.7721 0.0826006
389 2 11.3407 25.786 1.80366 11.3407 25.786 1.80366
390 2 11.5335 25.6076 -1.49753 11.5335 25.6076 -1.49753
391 1 12.3833 24.0091 0.339668 12.3833 24.0091 0.339668
392 2 14.2876 23.9823 2.00673 14.2876 23.9823 2.00673
393 2 14.3669 24.0251 -1.26397 14.3669 24.0251 -1.26397
394 1 15.2354 25.6427 0.407503 15.2354 25.6427 0.407503
395 2 17.0341 25.9148 2.24103 17.0341 25.9148 2.24103
396 2 17.2121 25.5548 -1.02495 17.2121 25.5548 -1.02495
397 1 18.0814 24.0939 0.855664 18.0814 24.0939 0.855664
398 2 20.2051 23.8746 2.34454 20.2051 23.8746 2.34454
399 2 19.8443 24.0568 -0.886329 19.8443 24.0568 -0.886329
400 1 21.0175 25.7724 0.722078 21.0175 25.7724 0.722078
401 2 23.1127 25.4952 2.07962 23.1127 25.4952 2.07962
402 2 22.7893 25.8662 -1.00021 22.7893 25.8662 -1.00021
403 1 23.8799 24.0922 0.212194 23.8799 24.0922 0.212194
404 2 25.6793 23.956 1.89196 25.6793 23.956 1.89196
405 2 25.8322 24.3174 -1.33322 25.8322 24.3174 -1.33322
406 1 26.783 25.7424 0.447914 26.783 25.7424 0.447914
407 2 28.7379 25.5226 1.98909 28.7379 25.5226 1.98909
408 2 28.6397 25.8738 -1.26603 28.6397 25.8738 -1.26603
409 1 29.6144 23.9645 0.25225 29.6144 23.9645 0.25225
410 2 31.6077 23.8471 1.69811 31.6077 23.8471 1.69811
411 2 31.3013 24.1312 -1.57563 31.3013 24.1312 -1.57563
412 1 32.3629 25.7024 0.17603 32.3629 25.7024 0.17603
413 2 34.3143 25.7095 1.80402 34.3143 25.7095 1.80402
414 2 34.1582 25.7376 -1.51697 34.1582 25.7376 -1.51697
415 1 35.2443 24.1226 0.0312011 35.2443 24.1226 0.0312011
416 2 37.1166 24.053 1.68049 37.1166 24.053 1.68049
417 2 37.196 24.1237 -1.51668 37.196 24.1237 -1.51668
418 1 38.1706 25.6542 0.0535227 38.1706 25.6542 0.0535227
419 2 40.0793 25.6665 1.55808 40.0793 25.6665 1.55808
420 2 39.9337 25.5147 -1.76713 39.9337 25.5147 -1.76713
421 1 40.913 24.0069 -0.0573044 40.913 24.0069 -0.0573044
422 2 42.7864 24.1529 1.62292 42.7864 24.1529 1.62292
423 2 42.7998 23.9344 -1.64898 42.7998 23.9344 -1.64898
424 1 43.8122 25.6592 -0.101916 43.8122 25.6592 -0.101916
425 2 45.7116 25.7078 1.63468 45.7116 25.7078 1.63468
426 2 45.8099 25.6939 -1.63092 45.8099 25.6939 -1.63092
427 1 46.6768 24.0578 0.120454 46.6768 24.0578 0.120454
428 2 48.6057 24.0809 1.65538 48.6057 24.0809 1.65538
429 2 48.5857 24.1771 -1.53128 48.5857 24.1771 -1.53128
430 1 49.5813 25.7497 0.0977537 49.5813 25.7497 0.0977537
431 2 51.3787 25.8309 1.7971 51.3787 25.8309 1.7971
432 2 51.4954 25.8625 -1.54034 51.4954 25.8625 -1.54034
433 1 1.06899 27.4236 0.153521 1.06899 27.4236 0.153521
434 2 2.94383 27.2959 1.85622 2.94383 27.2959 1.85622
435 2 3.07387 27.5438 -1.41093 3.07387 27.5438 -1.41093
436 1 3.88403 29.109 0.33847 3.88403 29.109 0.33847
437 2 5.81958 29.0682 1.99397 5.81958 29.0682 1.99397
438 2 5.98068 29.1367 -1.23219 5.98068 29.1367 -1.23219
439 1 6.78463 27.4412 0.290913 6.78463 27.4412 0.290913
440 2 8.74171 27.3631 1.87208 8.74171 27.3631 1.87208
441 2 8.62347 27.513 -1.43726 8.62347 27.513 -1.43726
442 1 9.57012 29.0843 0.176023 9.57012 29.0843 0.176023
443 2 11.4827 29.0362 1.69415 11.4827 29.0362 1.69415
444 2 11.3729 29.0305 -1.53338 11.3729 29.0305 -1.53338
445 1 12.4287 27.362 0.111877 12.4287 27.362 0.111877
446 2 14.3391 27.4813 1.8559 14.3391 27.4813 1.8559
447 2 14.5049 27.3077 -1.36785 14.5049 27.3077 -1.36785
448 1 15.2621 29.0442 0.14129 15.2621 29.0442 0.14129
449 2 17.0362 29.2616 1.83665 17.0362 29.2616 1.83665
450 2 17.1962 28.9642 -1.46693 17.1962 28.9642 -1.46693
451 1 18.0802 27.3726 0.444856 18.0802 27.3726 0.444856
452 2 19.8721 27.5506 2.1025 19.8721 27.5506 2.1025
453 2 20.1627 27.2234 -1.08509 20.1627 27.2234 -1.08509
454 1 21.0377 29.0238 0.366349 21.0377 29.0238 0.366349
455 2 22.7632 29.0577 2.09506 22.7632 29.0577 2.09506
456 2 23.0992 28.9297 -1.1548 23.0992 28.9297 -1.1548
457 1 23.984 27.3281 0.627114 23.984 27.3281 0.627114
458 2 25.9029 27.2562 2.24821 25.9029 27.2562 2.24821
459 2 25.8209 27.4772 -0.99925 25.8209 27.4772 -0.99925
460 1 26.7418 29.0075 0.730308 26.7418 29.0075 0.730308
461 2 28.8842 28.9627 2.18539 28.8842 28.9627 2.18539
462 2 28.5289 29.0907 -1.11743 28.5289 29.0907 -1.11743
463 1 29.5531 27.4088 0.436728 29.5531 27.4088 0.436728
464 2 31.5314 27.3418 1.92835 31.5314 27.3418 1.92835
465 2 31.2851 27.4134 -1.36813 31.2851 27.4134 -1.36813
466 1 32.3262 28.9801 0.311649 32.3262 28.9801 0.311649
467 2 34.3916 29.0735 1.78127 34.3916 29.0735 1.78127
468 2 34.0546 29.0496 -1.442 34.0546 29.0496 -1.442
469 1 35.2378 27.2962 0.135611 35.2378 27.2962 0.135611
470 2 37.2002 27.3183 1.6115 37.2002 27.3183 1.6115
471 2 37.2 27.4006 -1.52868 37.2 27.4006 -1.52868
472 1 38.1165 29.09 0.0268018 38.1165 29.09 0.0268018
473 2 40.23 28.9565 1.47977 40.23 28.9565 1.47977
474 2 39.9543 29.0909 -1.76645 39.9543 29.0909 -1.76645
475 1 41.0006 27.2259 -0.187178 41.0006 27.2259 -0.187178
476 2 42.8383 27.3617 1.51018 42.8383 27.3617 1.51018
477 2 42.9158 27.2361 -1.8528 42.9158 27.2361 -1.8528
478 1 43.813 28.8745 -0.19565 43.813 28.8745 -0.19565
479 2 45.618 29.0912 1.54824 45.618 29.0912 1.54824
480 2 45.8007 28.8594 -1.69621 45.8007 28.8594 -1.69621
481 1 46.7223 27.3143 0.0647008 46.7223 27.3143 0.0647008
482 2 48.6499 27.4707 1.61808 48.6499 27.4707 1.61808
483 2 48.5529 27.3559 -1.63273 48.5529 27.3559 -1.63273
484 1 49.4906 29.035 -0.0979395 49.4906 29.035 -0.0979395
485 2 51.3425 29.1453 1.66058 51.3425 29.1453 1.66058
486 2 51.5903 29.0625 -1.58641 51.5903 29.0625 -1.58641
487 1 1.11851 30.7177 0.0440122 1.11851 30.7177 0.0440122
488 2 2.83094 30.7206 1.89529 2.83094 30.7206 1.89529
489 2 3.13958 30.7321 -1.35757 3.13958 30.7321 -1.35757
490 1 3.93639 32.4327 0.457421 3.93639 32.4327 0.457421
491 2 5.93188 32.5198 2.05984 5.93188 32.5198 2.05984
492 2 5.74562 32.243 -1.18606 5.74562 32.243 -1.18606
493 1 6.68102 30.7333 0.432255 6.68102 30.7333 0.432255
494 2 8.84174 30.6878 2.02909 8.84174 30.6878 2.02909
495 2 8.56748 30.7988 -1.33039 8.56748 30.7988 -1.33039
496 1 9.65772 32.3124 0.353923 9.65772 32.3124 0.353923
497 2 11.7606 32.2503 1.7958 11.7606 32.2503 1.7958
498 2 11.3695 32.3302 -1.42144 11.3695 32.3302 -1.42144
499 1 12.4549 30.6556 0.0773112 12.4549 30.6556 0.0773112
500 2 14.3338 30.7214 1.7745 14.3338 30.7214 1.7745
501 2 14.3876 30.6439 -1.52476 14.3876 30.6439 -1.52476
502 1 15.4138 32.2926 0.0822356 15.4138 32.2926 0.0822356
503 2 17.2456 32.2117 1.72305 17.2456 32.2117 1.72305
504 2 17.322 32.3924 -1.61698 17.322 32.3924 -1.61698
505 1 18.2359 30.658 0.00604898 18.2359 30.658 0.00604898
506 2 20.0613 30.8142 1.74479 20.0613 30.8142 1.74479
507 2 20.1003 30.3551 -1.53345 20.1003 30.3551 -1.53345
508 1 21.0856 32.2472 -0.0687602 21.0856 32.2472 -0.0687602
509 2 22.7019 32.4741 1.75851 22.7019 32.4741 1.75851
510 2 23.1821 32.1826 -1.40883 23.1821 32.1826 -1.40883
511 1 23.8872 30.7707 0.515131 23.8872 30.7707 0.515131
512 2 25.712 30.8779 2.19751 25.712 30.8779 2.19751
513 2 25.7472 30.5868 -1.10407 25.7472 30.5868 -1.10407
514 1 26.7536 32.3452 0.512384 26.7536 32.3452 0.512384
515 2 28.6076 32.4449 2.08663 28.6076 32.4449 2.08663
516 2 28.688 32.2058 -1.18999 28.688 32.2058 -1.18999
517 1 29.6208 30.6835 0.53681 29.6208 30.6835 0.53681
518 2 31.7202 30.7647 1.87082 31.7202 30.7647 1.87082
519 2 31.2379 30.4733 -1.36189 31.2379 30.4733 -1.36189
520 1 32.4055 32.3048 -0.0381462 32.4055 32.3048 -0.0381462
521 2 34.297 32.3114 1.59453 34.297 32.3114 1.59453
522 2 34.2849 32.2252 -1.66707 34.2849 32.2252 -1.66707
523 1 35.2361 30.6644 -0.0057865 35.2361 30.6644 -0.0057865
524 2 37.2564 30.8286 1.55763 37.2564 30.8286 1.55763
525 2 37.1889 30.6159 -1.65124 37.1889 30.6159 -1.65124
526 1 38.1462 32.3644 -0.192582 38.1462 32.3644 -0.192582
527 2 40.0278 32.3929 1.46077 40.0278 32.3929 1.46077
528 2 40.0141 32.3035 -1.90376 40.0141 32.3035 -1.90376
529 1 41.0538 30.7166 -0.292911 41.0538 30.7166 -0.292911
530 2 42.7763 30.4419 1.45939 42.7763 30.4419 1.45939
531 2 43.123 30.7166 -1.75973 43.123 30.7166 -1.75973
532 1 43.8825 32.3069 -0.053929 43.8825 32.3069 -0.053929
533 2 45.7338 32.3888 1.54256 45.7338 32.3888 1.54256
534 2 45.7496 32.3491 -1.68518 45.7496 32.3491 -1.68518
535 1 46.5991 30.6373 -0.116109 46.5991 30.6373 -0.116109
536 2 48.4614 30.5731 1.51992 48.4614 30.5731 1.51992
537 2 48.6308 30.7317 -1.60477 48.6308 30.7317 -1.60477
538 1 49.4794 32.2862 0.152542 49.4794 32.2862 0.152542