ITEM: TIMESTEP
11700
ITEM: NUMBER OF ATOMS
810
ITEM: BOX BOUNDS pp pp pp
8.1135425775597758e-01 5.2206250742244450e+01
7.3001146658811400e-01 5.0286203533410934e+01
-1.0000000000000000e+01 1.0000000000000000e+01
ITEM: ATOMS id type x y z xu yu zu
1 1 0.963477 0.987333 -0.708724 0.963477 0.987333 -0.708724
2 2 2.80668 0.961085 0.89495 2.80668 0.961085 0.89495
3 2 2.87951 1.03982 -2.34783 2.87951 1.03982 -2.34783
4 1 3.79293 2.61585 -0.768034 3.79293 2.61585 -0.768034
5 2 5.59601 2.3497 1.03972 5.59601 2.3497 1.03972
6 2 5.93218 2.88646 -2.18308 5.93218 2.88646 -2.18308
7 1 6.77218 0.937514 -0.796996 6.77218 0.937514 -0.796996
8 2 8.63191 0.946888 0.968322 8.63191 0.946888 0.968322
9 2 8.81484 0.666534 -2.27173 8.81484 0.666534 -2.27173
10 1 9.66144 2.53965 -0.788614 9.66144 2.53965 -0.788614
11 2 11.4798 2.38721 0.959594 11.4798 2.38721 0.959594
12 2 11.6474 2.75591 -2.25426 11.6474 2.75591 -2.25426
13 1 12.5185 0.831096 -0.658239 12.5185 0.831096 -0.658239
14 2 14.3462 0.815981 1.00914 14.3462 0.815981 1.00914
15 2 14.4449 0.903945 -2.25048 14.4449 0.903945 -2.25048
16 1 15.3139 2.65 -0.580903 15.3139 2.65 -0.580903
17 2 17.2501 2.45119 1.11084 17.2501 2.45119 1.11084
18 2 17.3513 2.77484 -2.15398 17.3513 2.77484 -2.15398
19 1 18.1832 0.931253 -0.652976 18.1832 0.931253 -0.652976
20 2 20.1672 0.889834 0.978085 20.1672 0.889834 0.978085
21 2 20.182 0.956295 -2.26933 20.182 0.956295 -2.26933
22 1 21.0761 2.57548 -0.586828 21.0761 2.57548 -0.586828
23 2 22.8743 2.75735 1.05546 22.8743 2.75735 1.05546
24 2 23.0147 2.60766 -2.17099 23.0147 2.60766 -2.17099
25 1 23.9436 0.935761 -0.444492 23.9436 0.935761 -0.444492
26 2 25.8588 1.19857 1.14495 25.8588 1.19857 1.14495
27 2 25.7858 0.695278 -2.10692 25.7858 0.695278 -2.10692
28 1 26.8568 2.53701 -0.692901 26.8568 2.53701 -0.692901
29 2 28.6721 2.54199 0.964136 28.6721 2.54199 0.964136
30 2 28.6952 2.58356 -2.33895 28.6952 2.58356 -2.33895
31 1 29.6389 0.886235 -0.755596 29.6389 0.886235 -0.755596
32 2 31.4671 0.936299 0.983883 31.4671 0.936299 0.983883
33 2 31.4907 0.895848 -2.29801 31.4907 0.895848 -2.29801
34 1 32.4149 2.52135 -0.687017 32.4149 2.52135 -0.687017
35 2 34.2384 2.4677 1.02193 34.2384 2.4677 1.02193
36 2 34.4363 2.56675 -2.24699 34.4363 2.56675 -2.24699
37 1 35.219 0.834741 -0.563116 35.219 0.834741 -0.563116
38 2 37.0862 0.772999 1.01428 37.0862 0.772999 1.01428
39 2 37.2066 0.85378 -2.17363 37.2066 0.85378 -2.17363
40 1 38.0138 2.59547 -0.446662 38.0138 2.59547 -0.446662
41 2 39.8572 2.54277 1.37476 39.8572 2.54277 1.37476
42 2 39.9877 2.67988 -1.92773 39.9877 2.67988 -1.92773
43 1 40.9076 0.986448 -0.245079 40.9076 0.986448 -0.245079
44 2 42.8723 0.985967 1.24308 42.8723 0.985967 1.24308
45 2 42.7538 1.02954 -1.95205 42.7538 1.02954 -1.95205
46 1 43.8039 2.66215 -0.405953 43.8039 2.66215 -0.405953
47 2 45.6517 2.45361 1.18931 45.6517 2.45361 1.18931
48 2 45.7519 2.66091 -2.04979 45.7519 2.66091 -2.04979
49 1 46.6405 0.8842 -0.503097 46.6405 0.8842 -0.503097
50 2 48.6266 0.963159 1.10429 48.6266 0.963159 1.10429
51 2 48.5321 0.948791 -2.06103 48.5321 0.948791 -2.06103
52 1 49.5072 2.5484 -0.539799 49.5072 2.5484 -0.539799
53 2 51.4151 2.37144 1.13057 51.4151 2.37144 1.13057
54 2 51.4583 2.87816 -2.06035 51.4583 2.87816 -2.06035
55 1 0.986592 4.26706 -0.198567 0.986592 4.26706 -0.198567
56 2 3.13464 3.92548 1.14732 3.13464 3.92548 1.14732
57 2 2.66144 4.3764 -2.02097 2.66144 4.3764 -2.02097
58 1 3.88888 5.90667 -0.256934 3.88888 5.90667 -0.256934
59 2 5.70959 5.84619 1.42393 5.70959 5.84619 1.42393
60 2 5.94303 5.95497 -1.75789 5.94303 5.95497 -1.75789
61 1 6.67878 4.25744 -0.201959 6.67878 4.25744 -0.201959
62 2 8.81066 4.07556 1.21217 8.81066 4.07556 1.21217
63 2 8.44204 4.44163 -1.94064 8.44204 4.44163 -1.94064
64 1 9.64225 5.89679 -0.352105 9.64225 5.89679 -0.352105
65 2 11.555 5.77999 1.31779 11.555 5.77999 1.31779
66 2 11.5377 5.92665 -2.01525 11.5377 5.92665 -2.01525
67 1 12.4932 4.18203 -0.442424 12.4932 4.18203 -0.442424
68 2 14.3348 4.11548 1.25343 14.3348 4.11548 1.25343
69 2 14.3175 4.37749 -2.04982 14.3175 4.37749 -2.04982
70 1 15.3001 5.84739 -0.213841 15.3001 5.84739 -0.213841
71 2 17.1364 5.63093 1.4593 17.1364 5.63093 1.4593
72 2 17.186 5.95199 -1.76815 17.186 5.95199 -1.76815
73 1 18.2135 4.20465 -0.407971 18.2135 4.20465 -0.407971
74 2 20.0854 4.04074 1.16421 20.0854 4.04074 1.16421
75 2 20.1024 4.34494 -2.05948 20.1024 4.34494 -2.05948
76 1 21.0958 5.83117 -0.247564 21.0958 5.83117 -0.247564
77 2 23.0702 5.5925 1.27684 23.0702 5.5925 1.27684
78 2 22.8819 6.00276 -1.9084 22.8819 6.00276 -1.9084
79 1 23.9649 4.25049 -0.539902 23.9649 4.25049 -0.539902
80 2 25.8394 4.0969 1.06233 25.8394 4.0969 1.06233
81 2 25.824 4.31694 -2.16764 25.824 4.31694 -2.16764
82 1 26.6881 5.8929 -0.474622 26.6881 5.8929 -0.474622
83 2 28.4828 5.71364 1.18974 28.4828 5.71364 1.18974
84 2 28.5901 6.15866 -2.037 28.5901 6.15866 -2.037
85 1 29.6009 4.23366 -0.585234 29.6009 4.23366 -0.585234
86 2 31.4171 3.99263 1.07026 31.4171 3.99263 1.07026
87 2 31.58 4.42768 -2.08073 31.58 4.42768 -2.08073
88 1 32.4425 5.91759 -0.212476 32.4425 5.91759 -0.212476
89 2 34.4185 5.6814 1.36275 34.4185 5.6814 1.36275
90 2 34.2847 5.95507 -1.90996 34.2847 5.95507 -1.90996
91 1 35.2479 4.14675 -0.468896 35.2479 4.14675 -0.468896
92 2 37.0634 3.96097 1.21691 37.0634 3.96097 1.21691
93 2 37.2913 4.43014 -2.05034 37.2913 4.43014 -2.05034
94 1 38.058 5.8969 -0.132994 38.058 5.8969 -0.132994
95 2 39.9673 5.86643 1.50087 39.9673 5.86643 1.50087
96 2 39.9763 6.0766 -1.71577 39.9763 6.0766 -1.71577
97 1 40.8549 4.30154 -0.213575 40.8549 4.30154 -0.213575
98 2 42.888 4.15264 1.43079 42.888 4.15264 1.43079
99 2 42.7074 4.43265 -1.88308 42.7074 4.43265 -1.88308
100 1 43.7097 5.9191 -0.176159 43.7097 5.9191 -0.176159
101 2 45.8021 5.94621 1.24145 45.8021 5.94621 1.24145
102 2 45.436 5.89115 -2.0612 45.436 5.89115 -2.0612
103 1 46.7337 4.23798 -0.439906 46.7337 4.23798 -0.439906
104 2 48.6394 4.07046 1.25286 48.6394 4.07046 1.25286
105 2 48.6207 4.37992 -2.03688 48.6207 4.37992 -2.03688
106 1 49.5397 5.94383 -0.234616 49.5397 5.94383 -0.234616
107 2 51.5228 5.98616 1.4089 51.5228 5.98616 1.4089
108 2 51.3232 5.92213 -1.82978 51.3232 5.92213 -1.82978
109 1 1.02657 7.65854 -0.286605 1.02657 7.65854 -0.286605
110 2 2.81808 7.40202 1.43376 2.81808 7.40202 1.43376
111 2 3.01078 7.67909 -1.77454 3.01078 7.67909 -1.77454
112 1 3.88826 9.19867 0.052201 3.88826 9.19867 0.052201
113 2 5.9878 9.12069 1.55925 5.9878 9.12069 1.55925
114 2 5.71484 9.01392 -1.63897 5.71484 9.01392 -1.63897
115 1 6.81817 7.48968 -0.0977986 6.81817 7.48968 -0.0977986
116 2 8.76314 7.41002 1.40322 8.76314 7.41002 1.40322
117 2 8.65005 7.63885 -1.87478 8.65005 7.63885 -1.87478
118 1 9.64461 9.21248 -0.195572 9.64461 9.21248 -0.195572
119 2 11.5349 9.19431 1.3465 11.5349 9.19431 1.3465
120 2 11.539 9.17962 -1.86947 11.539 9.17962 -1.86947
121 1 12.4494 7.43153 -0.276007 12.4494 7.43153 -0.276007
122 2 14.3257 7.40952 1.45863 14.3257 7.40952 1.45863
123 2 14.4714 7.66146 -1.83145 14.4714 7.66146 -1.83145
124 1 15.3123 9.15717 -0.0201503 15.3123 9.15717 -0.0201503
125 2 17.1792 9.07778 1.68784 17.1792 9.07778 1.68784
126 2 17.2758 9.21892 -1.6102 17.2758 9.21892 -1.6102
127 1 18.1319 7.43029 0.0235583 18.1319 7.43029 0.0235583
128 2 20.0863 7.33685 1.5454 20.0863 7.33685 1.5454
129 2 19.8859 7.53945 -1.71157 19.8859 7.53945 -1.71157
130 1 20.9707 9.07724 0.111179 20.9707 9.07724 0.111179
131 2 22.9432 9.01806 1.73126 22.9432 9.01806 1.73126
132 2 22.7178 9.2026 -1.54808 22.7178 9.2026 -1.54808
133 1 23.8477 7.5283 -0.0538161 23.8477 7.5283 -0.0538161
134 2 25.8672 7.33907 1.38092 25.8672 7.33907 1.38092
135 2 25.6216 7.77822 -1.82953 25.6216 7.77822 -1.82953
136 1 26.7354 9.13257 -0.0853965 26.7354 9.13257 -0.0853965
137 2 28.7311 9.0923 1.5448 28.7311 9.0923 1.5448
138 2 28.7031 9.20174 -1.79119 28.7031 9.20174 -1.79119
139 1 29.6683 7.47435 -0.201901 29.6683 7.47435 -0.201901
140 2 31.4803 7.39177 1.53459 31.4803 7.39177 1.53459
141 2 31.5338 7.61792 -1.87387 31.5338 7.61792 -1.87387
142 1 32.4589 9.24949 -0.0573804 32.4589 9.24949 -0.0573804
143 2 34.4192 9.0614 1.56765 34.4192 9.0614 1.56765
144 2 34.4358 9.32555 -1.63081 34.4358 9.32555 -1.63081
145 1 35.3025 7.51393 -0.115742 35.3025 7.51393 -0.115742
146 2 37.1209 7.50888 1.50225 37.1209 7.50888 1.50225
147 2 37.2295 7.55003 -1.67666 37.2295 7.55003 -1.67666
148 1 38.149 9.22662 0.0611532 38.149 9.22662 0.0611532
149 2 40.1799 9.29097 1.49988 40.1799 9.29097 1.49988
150 2 39.9737 9.27711 -1.71599 39.9737 9.27711 -1.71599
151 1 40.93 7.59642 -0.075221 40.93 7.59642 -0.075221
152 2 42.9422 7.78608 1.33888 42.9422 7.78608 1.33888
153 2 42.6685 7.40996 -1.88641 42.6685 7.40996 -1.88641
154 1 43.905 9.25832 -0.533222 43.905 9.25832 -0.533222
155 2 45.7096 9.15083 1.23282 45.7096 9.15083 1.23282
156 2 45.9672 9.45101 -2.01535 45.9672 9.45101 -2.01535
157 1 46.6802 7.60354 -0.475296 46.6802 7.60354 -0.475296
158 2 48.5208 7.78028 1.26445 48.5208 7.78028 1.26445
159 2 48.6605 7.63936 -1.96228 48.6605 7.63936 -1.96228
160 1 49.5852 9.31413 -0.355019 49.5852 9.31413 -0.355019
161 2 51.3901 9.14988 1.37877 51.3901 9.14988 1.37877
162 2 51.5072 9.28465 -1.91738 51.5072 9.28465 -1.91738
163 1 0.998698 10.9027 -0.0598142 0.998698 10.9027 -0.0598142
164 2 2.81401 10.9309 1.7147 2.81401 10.9309 1.7147
165 2 3.10855 10.9067 -1.53913 3.10855 10.9067 -1.53913
166 1 3.87768 12.5414 0.125545 3.87768 12.5414 0.125545
167 2 5.8551 12.3679 1.72013 5.8551 12.3679 1.72013
168 2 5.71351 12.6295 -1.56496 5.71351 12.6295 -1.56496
169 1 6.72485 10.8153 -0.165954 6.72485 10.8153 -0.165954
170 2 8.60686 10.6444 1.50802 8.60686 10.6444 1.50802
171 2 8.65139 10.9907 -1.70032 8.65139 10.9907 -1.70032
172 1 9.55206 12.4176 0.0565144 9.55206 12.4176 0.0565144
173 2 11.5927 12.2619 1.57525 11.5927 12.2619 1.57525
174 2 11.4246 12.7256 -1.69165 11.4246 12.7256 -1.69165
175 1 12.5109 10.8546 -0.313362 12.5109 10.8546 -0.313362
176 2 14.2616 10.8146 1.51486 14.2616 10.8146 1.51486
177 2 14.7819 10.8882 -1.70336 14.7819 10.8882 -1.70336
178 1 15.2898 12.495 0.0546681 15.2898 12.495 0.0546681
179 2 16.9816 12.519 1.83041 16.9816 12.519 1.83041
180 2 17.3015 12.4243 -1.44631 17.3015 12.4243 -1.44631
181 1 18.0682 10.8069 0.204098 18.0682 10.8069 0.204098
182 2 20.1248 10.831 1.82607 20.1248 10.831 1.82607
183 2 19.9708 10.8765 -1.4831 19.9708 10.8765 -1.4831
184 1 20.9681 12.5012 0.105766 20.9681 12.5012 0.105766
185 2 22.8698 12.174 1.80127 22.8698 12.174 1.80127
186 2 22.9743 12.6079 -1.46183 22.9743 12.6079 -1.46183
187 1 23.856 10.7539 0.106908 23.856 10.7539 0.106908
188 2 25.8196 10.7364 1.69499 25.8196 10.7364 1.69499
189 2 25.7626 10.8069 -1.58225 25.7626 10.8069 -1.58225
190 1 26.8317 12.429 0.0406619 26.8317 12.429 0.0406619
191 2 28.6838 12.0647 1.67098 28.6838 12.0647 1.67098
192 2 28.7077 12.7065 -1.47695 28.7077 12.7065 -1.47695
193 1 29.6708 10.867 -0.142592 29.6708 10.867 -0.142592
194 2 31.4431 10.699 1.60234 31.4431 10.699 1.60234
195 2 31.7659 10.9629 -1.62781 31.7659 10.9629 -1.62781
196 1 32.4468 12.4667 0.0970775 32.4468 12.4667 0.0970775
197 2 34.3461 12.4088 1.71507 34.3461 12.4088 1.71507
198 2 34.5448 12.5203 -1.5437 34.5448 12.5203 -1.5437
199 1 35.3508 10.8418 0.0826039 35.3508 10.8418 0.0826039
200 2 37.2468 10.9352 1.6026 37.2468 10.9352 1.6026
201 2 37.3371 10.8924 -1.59892 37.3371 10.8924 -1.59892
202 1 38.2857 12.5543 -0.0151945 38.2857 12.5543 -0.0151945
203 2 40.3199 12.5994 1.46788 40.3199 12.5994 1.46788
204 2 39.9792 12.4554 -1.80581 39.9792 12.4554 -1.80581
205 1 41.0189 10.8834 -0.241123 41.0189 10.8834 -0.241123
206 2 43.0707 10.7315 1.26889 43.0707 10.7315 1.26889
207 2 43.0281 11.2238 -1.89742 43.0281 11.2238 -1.89742
208 1 43.8674 12.5957 -0.162234 43.8674 12.5957 -0.162234
209 2 45.7352 12.5681 1.37345 45.7352 12.5681 1.37345
210 2 45.7595 12.485 -1.85398 45.7595 12.485 -1.85398
211 1 46.7922 10.928 -0.140711 46.7922 10.928 -0.140711
212 2 48.7186 10.8629 1.45311 48.7186 10.8629 1.45311
213 2 48.6017 10.973 -1.92194 48.6017 10.973 -1.92194
214 1 49.6855 12.5563 -0.352065 49.6855 12.5563 -0.352065
215 2 51.4066 12.4787 1.49046 51.4066 12.4787 1.49046
216 2 51.7229 12.6845 -1.78544 51.7229 12.6845 -1.78544
217 1 1.19827 14.2881 0.0575131 1.19827 14.2881 0.0575131
218 2 3.0091 14.226 1.70522 3.0091 14.226 1.70522
219 2 3.16748 14.3761 -1.49276 3.16748 14.3761 -1.49276
220 1 4.05028 15.8537 0.157159 4.05028 15.8537 0.157159
221 2 5.819 15.7904 1.83707 5.819 15.7904 1.83707
222 2 5.91321 15.8479 -1.3993 5.91321 15.8479 -1.3993
223 1 6.73487 14.1256 0.183043 6.73487 14.1256 0.183043
224 2 8.69571 14.0668 1.74843 8.69571 14.0668 1.74843
225 2 8.57176 14.1701 -1.50911 8.57176 14.1701 -1.50911
226 1 9.53615 15.8141 0.142823 9.53615 15.8141 0.142823
227 2 11.3974 15.5861 1.92529 11.3974 15.5861 1.92529
228 2 11.5676 15.9288 -1.36343 11.5676 15.9288 -1.36343
229 1 12.3583 14.1148 0.164794 12.3583 14.1148 0.164794
230 2 14.4075 14.1008 1.65009 14.4075 14.1008 1.65009
231 2 14.2881 14.1072 -1.55063 14.2881 14.1072 -1.55063
232 1 15.2749 15.8326 -0.0776634 15.2749 15.8326 -0.0776634
233 2 17.0927 15.7996 1.65549 17.0927 15.7996 1.65549
234 2 17.335 15.9058 -1.61053 17.335 15.9058 -1.61053
235 1 18.1097 14.1029 0.164839 18.1097 14.1029 0.164839
236 2 20.0022 14.0929 1.71101 20.0022 14.0929 1.71101
237 2 19.9187 14.1814 -1.4919 19.9187 14.1814 -1.4919
238 1 20.9148 15.7854 0.129933 20.9148 15.7854 0.129933
239 2 22.7087 15.68 2.01918 22.7087 15.68 2.01918
240 2 23.0227 15.6321 -1.25928 23.0227 15.6321 -1.25928
241 1 23.9707 14.0113 0.544413 23.9707 14.0113 0.544413
242 2 26.0453 13.6753 2.06903 26.0453 13.6753 2.06903
243 2 25.703 14.365 -1.15548 25.703 14.365 -1.15548
244 1 26.7854 15.6945 0.680325 26.7854 15.6945 0.680325
245 2 28.7978 15.7796 2.07332 28.7978 15.7796 2.07332
246 2 28.5206 15.7914 -1.16365 28.5206 15.7914 -1.16365
247 1 29.5934 14.1119 0.428884 29.5934 14.1119 0.428884
248 2 31.6458 14.1204 1.83687 31.6458 14.1204 1.83687
249 2 31.315 14.3601 -1.31093 31.315 14.3601 -1.31093
250 1 32.4698 15.813 0.316925 32.4698 15.813 0.316925
251 2 34.4093 15.8574 1.81591 34.4093 15.8574 1.81591
252 2 34.2682 15.7336 -1.41905 34.2682 15.7336 -1.41905
253 1 35.291 14.1436 0.184624 35.291 14.1436 0.184624
254 2 37.376 14.2927 1.59746 37.376 14.2927 1.59746
255 2 37.0862 14.0551 -1.63463 37.0862 14.0551 -1.63463
256 1 38.0837 15.8354 -0.133309 38.0837 15.8354 -0.133309
257 2 40.2076 15.8211 1.32073 40.2076 15.8211 1.32073
258 2 39.8285 15.8056 -1.97442 39.8285 15.8056 -1.97442
259 1 40.9848 14.167 -0.294071 40.9848 14.167 -0.294071
260 2 42.8528 14.212 1.41957 42.8528 14.212 1.41957
261 2 42.9237 14.2511 -1.78891 42.9237 14.2511 -1.78891
262 1 43.8673 15.9151 -0.260012 43.8673 15.9151 -0.260012
263 2 45.8065 15.8517 1.3082 45.8065 15.8517 1.3082
264 2 45.7961 15.8641 -1.92403 45.7961 15.8641 -1.92403
265 1 46.7526 14.1824 -0.310341 46.7526 14.1824 -0.310341
266 2 48.6142 14.2106 1.36805 48.6142 14.2106 1.36805
267 2 48.5962 14.2396 -1.90676 48.5962 14.2396 -1.90676
268 1 49.5904 15.8346 -0.185992 49.5904 15.8346 -0.185992
269 2 51.4108 15.9594 1.61616 51.4108 15.9594 1.61616
270 2 51.6361 15.786 -1.6804 51.6361 15.786 -1.6804
271 1 1.10893 17.4808 -0.0232902 1.10893 17.4808 -0.0232902
272 2 2.86725 17.4306 1.79482 2.86725 17.4306 1.79482
273 2 3.12333 17.647 -1.41899 3.12333 17.647 -1.41899
274 1 3.88459 19.0962 0.376279 3.88459 19.0962 0.376279
275 2 5.7823 19.2051 1.99149 5.7823 19.2051 1.99149
276 2 5.71465 19.2828 -1.35911 5.71465 19.2828 -1.35911
277 1 6.81371 17.6547 0.359222 6.81371 17.6547 0.359222
278 2 8.75495 17.3944 1.85077 8.75495 17.3944 1.85077
279 2 8.57463 17.5874 -1.28774 8.57463 17.5874 -1.28774
280 1 9.64241 19.0802 0.224318 9.64241 19.0802 0.224318
281 2 11.3821 19.1287 1.92692 11.3821 19.1287 1.92692
282 2 11.5691 19.0555 -1.31209 11.5691 19.0555 -1.31209
283 1 12.4043 17.3998 0.481185 12.4043 17.3998 0.481185
284 2 14.5864 17.2076 1.76261 14.5864 17.2076 1.76261
285 2 14.0824 17.5464 -1.44495 14.0824 17.5464 -1.44495
286 1 15.1397 19.0272 0.243266 15.1397 19.0272 0.243266
287 2 17.1602 19.0672 1.73779 17.1602 19.0672 1.73779
288 2 17.0954 19.0972 -1.46046 17.0954 19.0972 -1.46046
289 1 18.1614 17.4067 0.0541884 18.1614 17.4067 0.0541884
290 2 20.0277 17.4332 1.73795 20.0277 17.4332 1.73795
291 2 20.1026 17.5188 -1.61642 20.1026 17.5188 -1.61642
292 1 20.9556 19.0693 0.1625 20.9556 19.0693 0.1625
293 2 22.8568 19.1823 1.79724 22.8568 19.1823 1.79724
294 2 22.9457 18.911 -1.45887 22.9457 18.911 -1.45887
295 1 23.7913 17.3103 0.408382 23.7913 17.3103 0.408382
296 2 25.6986 17.5155 2.02118 25.6986 17.5155 2.02118
297 2 25.7174 17.2553 -1.13581 25.7174 17.2553 -1.13581
298 1 26.7278 19.0403 0.349313 26.7278 19.0403 0.349313
299 2 28.7605 19.1991 1.83185 28.7605 19.1991 1.83185
300 2 28.5593 18.923 -1.39853 28.5593 18.923 -1.39853
301 1 29.599 17.4241 0.296695 29.599 17.4241 0.296695
302 2 31.6217 17.4945 1.91829 31.6217 17.4945 1.91829
303 2 31.4157 17.4137 -1.30685 31.4157 17.4137 -1.30685
304 1 32.4464 19.0946 0.246975 32.4464 19.0946 0.246975
305 2 34.5105 19.3456 1.64333 34.5105 19.3456 1.64333
306 2 34.1088 18.9622 -1.57283 34.1088 18.9622 -1.57283
307 1 35.3498 17.5711 0.109481 35.3498 17.5711 0.109481
308 2 37.3821 17.4841 1.5983 37.3821 17.4841 1.5983
309 2 36.999 17.6086 -1.7312 36.999 17.6086 -1.7312
310 1 38.2064 19.1724 -0.149739 38.2064 19.1724 -0.149739
311 2 40.192 19.0675 1.37268 40.192 19.0675 1.37268
312 2 39.9648 19.1588 -1.95182 39.9648 19.1588 -1.95182
313 1 41.0275 17.5089 -0.392468 41.0275 17.5089 -0.392468
314 2 42.9254 17.5839 1.25901 42.9254 17.5839 1.25901
315 2 42.8721 17.4906 -1.96874 42.8721 17.4906 -1.96874
316 1 43.79 19.169 -0.446267 43.79 19.169 -0.446267
317 2 45.6724 19.1597 1.25676 45.6724 19.1597 1.25676
318 2 45.721 19.2042 -2.03181 45.721 19.2042 -2.03181
319 1 46.7038 17.5106 -0.415386 46.7038 17.5106 -0.415386
320 2 48.4913 17.4629 1.32293 48.4913 17.4629 1.32293
321 2 48.7033 17.4324 -1.98016 48.7033 17.4324 -1.98016
322 1 49.5575 19.1042 -0.263667 49.5575 19.1042 -0.263667
323 2 51.1843 18.9092 1.60865 51.1843 18.9092 1.60865
324 2 51.6436 19.2268 -1.64897 51.6436 19.2268 -1.64897
325 1 0.936781 20.7399 0.219178 0.936781 20.7399 0.219178
326 2 2.71152 20.6123 1.99705 2.71152 20.6123 1.99705
327 2 2.99016 20.9453 -1.30591 2.99016 20.9453 -1.30591
328 1 3.75517 22.4816 0.5593 3.75517 22.4816 0.5593
329 2 5.83602 22.3754 2.11376 5.83602 22.3754 2.11376
330 2 5.70818 22.5938 -1.13194 5.70818 22.5938 -1.13194
331 1 6.73296 20.8428 0.309482 6.73296 20.8428 0.309482
332 2 8.61666 20.6562 1.92616 8.61666 20.6562 1.92616
333 2 8.62007 20.8794 -1.27195 8.62007 20.8794 -1.27195
334 1 9.60271 22.3911 0.558468 9.60271 22.3911 0.558468
335 2 11.672 22.3557 1.9143 11.672 22.3557 1.9143
336 2 11.1978 22.3538 -1.35363 11.1978 22.3538 -1.35363
337 1 12.408 20.6785 0.245891 12.408 20.6785 0.245891
338 2 14.2825 20.7724 1.89939 14.2825 20.7724 1.89939
339 2 14.2761 20.7174 -1.40157 14.2761 20.7174 -1.40157
340 1 15.2336 22.4086 0.200686 15.2336 22.4086 0.200686
341 2 17.2532 22.2855 1.76484 17.2532 22.2855 1.76484
342 2 17.1745 22.4868 -1.49267 17.1745 22.4868 -1.49267
343 1 18.0177 20.7432 0.0687847 18.0177 20.7432 0.0687847
344 2 20.0591 20.832 1.61871 20.0591 20.832 1.61871
345 2 19.8871 20.5894 -1.54877 19.8871 20.5894 -1.54877
346 1 20.9738 22.3386 -0.190293 20.9738 22.3386 -0.190293
347 2 22.8489 22.3718 1.572 22.8489 22.3718 1.572
348 2 23.0681 22.3681 -1.71114 23.0681 22.3681 -1.71114
349 1 23.885 20.7385 -0.0186425 23.885 20.7385 -0.0186425
350 2 25.6512 20.7528 1.76269 25.6512 20.7528 1.76269
351 2 25.8203 20.5348 -1.532 25.8203 20.5348 -1.532
352 1 26.6342 22.31 0.0276324 26.6342 22.31 0.0276324
353 2 28.7376 22.4459 1.43651 28.7376 22.4459 1.43651
354 2 28.4775 22.2993 -1.7032 28.4775 22.2993 -1.7032
355 1 29.5549 20.6928 -0.100806 29.5549 20.6928 -0.100806
356 2 31.455 20.8607 1.70382 31.455 20.8607 1.70382
357 2 31.6286 20.5626 -1.55808 31.6286 20.5626 -1.55808
358 1 32.4954 22.3507 0.0126303 32.4954 22.3507 0.0126303
359 2 34.5147 22.3652 1.37116 34.5147 22.3652 1.37116
360 2 34.2249 22.3337 -1.8348 34.2249 22.3337 -1.8348
361 1 35.326 20.798 -0.269938 35.326 20.798 -0.269938
362 2 37.2211 20.7829 1.3606 37.2211 20.7829 1.3606
363 2 37.2246 20.6531 -1.95407 37.2246 20.6531 -1.95407
364 1 38.1042 22.4336 -0.413775 38.1042 22.4336 -0.413775
365 2 39.8815 22.309 1.32235 39.8815 22.309 1.32235
366 2 40.1159 22.4868 -1.8046 40.1159 22.4868 -1.8046
367 1 41.0318 20.8006 -0.293829 41.0318 20.8006 -0.293829
368 2 43.0607 20.7437 1.30591 43.0607 20.7437 1.30591
369 2 42.956 20.9953 -1.85471 42.956 20.9953 -1.85471
370 1 43.9093 22.4653 -0.155323 43.9093 22.4653 -0.155323
371 2 45.7899 22.3548 1.56123 45.7899 22.3548 1.56123
372 2 45.8076 22.6507 -1.69324 45.8076 22.6507 -1.69324
373 1 46.7247 20.8872 -0.338636 46.7247 20.8872 -0.338636
374 2 48.5873 20.657 1.49152 48.5873 20.657 1.49152
375 2 48.7493 20.8892 -1.72772 48.7493 20.8892 -1.72772
376 1 49.6594 22.4067 0.154681 49.6594 22.4067 0.154681
377 2 51.432 22.4091 1.87161 51.432 22.4091 1.87161
378 2 51.6073 22.4676 -1.40231 51.6073 22.4676 -1.40231
379 1 0.984864 24.1714 0.368473 0.984864 24.1714 0.368473
380 2 2.74606 24.1433 2.1663 2.74606 24.1433 2.1663
381 2 3.0891 24.2091 -1.05994 3.0891 24.2091 -1.05994
382 1 3.886 25.8195 0.632114 3.886 25.8195 0.632114
383 2 5.81411 25.6428 2.2783 5.81411 25.6428 2.2783
384 2 5.84099 25.9569 -1.01368 5.84099 25.9569 -1.01368
385 1 6.70341 24.1677 0.56728 6.70341 24.1677 0.56728
386 2 8.69208 24.1459 2.2362 8.69208 24.1459 2.2362
387 2 8.59377 24.0673 -1.02947 8.59377 24.0673 -1.02947
388 1 9.58298 25.77 0.463626 9.58298 25.77 0.463626
389 2 11.7057 25.7322 1.87791 11.7057 25.7322 1.87791
390 2 11.2796 25.7568 -1.34275 11.2796 25.7568 -1.34275
391 1 12.4139 24.0442 0.180097 12.4139 24.0442 0.180097
392 2 14.3495 24.1038 1.8452 14.3495 24.1038 1.8452
393 2 14.3319 24.0476 -1.41292 14.3319 24.0476 -1.41292
394 1 15.2466 25.7647 0.222419 15.2466 25.7647 0.222419
395 2 17.1291 25.5864 1.97988 17.1291 25.5864 1.97988
396 2 17.2108 25.7975 -1.2999 17.2108 25.7975 -1.2999
397 1 18.1285 24.0114 0.283482 18.1285 24.0114 0.283482
398 2 20.2566 24.0076 1.65133 20.2566 24.0076 1.65133
399 2 19.8273 24.1077 -1.54279 19.8273 24.1077 -1.54279
400 1 21.106 25.6105 0.0393392 21.106 25.6105 0.0393392
401 2 23.0176 25.7391 1.57146 23.0176 25.7391 1.57146
402 2 22.9532 25.5877 -1.78667 22.9532 25.5877 -1.78667
403 1 23.7855 24.0452 -0.0731455 23.7855 24.0452 -0.0731455
404 2 25.6848 24.232 1.6499 25.6848 24.232 1.6499
405 2 25.8154 23.9858 -1.60371 25.8154 23.9858 -1.60371
406 1 26.6692 25.6897 -0.0791942 26.6692 25.6897 -0.0791942
407 2 28.71 25.5447 1.49249 28.71 25.5447 1.49249
408 2 28.6126 25.7585 -1.76278 28.6126 25.7585 -1.76278
409 1 29.5631 24.0656 -0.273942 29.5631 24.0656 -0.273942
410 2 31.4367 24.0286 1.48435 31.4367 24.0286 1.48435
411 2 31.7432 24.0019 -1.74362 31.7432 24.0019 -1.74362
412 1 32.5241 25.6833 -0.0618192 32.5241 25.6833 -0.0618192
413 2 34.5059 25.5406 1.47703 34.5059 25.5406 1.47703
414 2 34.3339 25.6971 -1.73658 34.3339 25.6971 -1.73658
415 1 35.2564 24.0381 -0.293398 35.2564 24.0381 -0.293398
416 2 37.1625 24.0265 1.37324 37.1625 24.0265 1.37324
417 2 37.1191 24.3085 -1.89465 37.1191 24.3085 -1.89465
418 1 38.1073 25.7804 -0.111656 38.1073 25.7804 -0.111656
419 2 40.1609 25.8878 1.56145 40.1609 25.8878 1.56145
420 2 40.0221 25.5426 -1.70422 40.0221 25.5426 -1.70422
421 1 40.9629 24.1018 0.00498353 40.9629 24.1018 0.00498353
422 2 42.9102 24.0005 1.58499 42.9102 24.0005 1.58499
423 2 42.7969 24.0887 -1.67643 42.7969 24.0887 -1.67643
424 1 43.9117 25.8087 -0.0540447 43.9117 25.8087 -0.0540447
425 2 45.7031 25.8594 1.74354 45.7031 25.8594 1.74354
426 2 45.8949 25.8132 -1.51662 45.8949 25.8132 -1.51662
427 1 46.7591 24.1528 0.190771 46.7591 24.1528 0.190771
428 2 48.6231 23.9089 1.91378 48.6231 23.9089 1.91378
429 2 48.7674 24.138 -1.39771 48.7674 24.138 -1.39771
430 1 49.5563 25.7965 0.402111 49.5563 25.7965 0.402111
431 2 51.4696 25.7336 1.98132 51.4696 25.7336 1.98132
432 2 51.4569 25.6626 -1.30382 51.4569 25.6626 -1.30382
433 1 1.01983 27.4196 0.312829 1.01983 27.4196 0.312829
434 2 2.80095 27.3897 2.12239 2.80095 27.3897 2.12239
435 2 3.22874 27.4482 -1.03551 3.22874 27.4482 -1.03551
436 1 3.90386 29.0423 0.695629 3.90386 29.0423 0.695629
437 2 5.81615 29.2328 2.36319 5.81615 29.2328 2.36319
438 2 5.76255 28.9639 -0.979309 5.76255 28.9639 -0.979309
439 1 6.78434 27.4438 0.779581 6.78434 27.4438 0.779581
440 2 8.85247 27.4785 2.16217 8.85247 27.4785 2.16217
441 2 8.51907 27.4214 -1.00641 8.51907 27.4214 -1.00641
442 1 9.57221 29.1097 0.414739 9.57221 29.1097 0.414739
443 2 11.641 29.0953 1.86111 11.641 29.0953 1.86111
444 2 11.3631 29.1393 -1.42033 11.3631 29.1393 -1.42033
445 1 12.4325 27.4228 0.130852 12.4325 27.4228 0.130852
446 2 14.2311 27.3583 1.83582 14.2311 27.3583 1.83582
447 2 14.3365 27.3291 -1.35866 14.3365 27.3291 -1.35866
448 1 15.2681 29.0271 0.301385 15.2681 29.0271 0.301385
449 2 17.2303 29.1211 1.87686 17.2303 29.1211 1.87686
450 2 17.1737 28.9338 -1.40105 17.1737 28.9338 -1.40105
451 1 18.1941 27.3474 0.329219 18.1941 27.3474 0.329219
452 2 20.3564 27.3036 1.72414 20.3564 27.3036 1.72414
453 2 19.9276 27.2262 -1.51846 19.9276 27.2262 -1.51846
454 1 21.029 29.0076 -0.0146283 21.029 29.0076 -0.0146283
455 2 23.0004 29.0223 1.39322 23.0004 29.0223 1.39322
456 2 22.8229 28.982 -1.79898 22.8229 28.982 -1.79898
457 1 23.7831 27.3918 -0.246389 23.7831 27.3918 -0.246389
458 2 25.6478 27.4553 1.56369 25.6478 27.4553 1.56369
459 2 25.8272 27.2832 -1.77935 25.8272 27.2832 -1.77935
460 1 26.673 29.0507 -0.107994 26.673 29.0507 -0.107994
461 2 28.5116 29.1827 1.49863 28.5116 29.1827 1.49863
462 2 28.6093 28.8162 -1.74357 28.6093 28.8162 -1.74357
463 1 29.5559 27.3111 0.0116156 29.5559 27.3111 0.0116156
464 2 31.6016 27.3132 1.54316 31.6016 27.3132 1.54316
465 2 31.3245 27.2686 -1.64209 31.3245 27.2686 -1.64209
466 1 32.4674 28.9052 -0.237022 32.4674 28.9052 -0.237022
467 2 34.3311 29.0408 1.42318 34.3311 29.0408 1.42318
468 2 34.3538 28.9446 -1.90465 34.3538 28.9446 -1.90465
469 1 35.2874 27.3328 -0.121618 35.2874 27.3328 -0.121618
470 2 37.1441 27.4687 1.47315 37.1441 27.4687 1.47315
471 2 37.2064 27.4105 -1.80205 37.2064 27.4105 -1.80205
472 1 38.1614 29.0747 -0.160878 38.1614 29.0747 -0.160878
473 2 40.0501 28.9948 1.48304 40.0501 28.9948 1.48304
474 2 40.0086 29.1809 -1.84631 40.0086 29.1809 -1.84631
475 1 41.0171 27.4008 -0.321356 41.0171 27.4008 -0.321356
476 2 42.7574 27.468 1.36771 42.7574 27.468 1.36771
477 2 43.0119 27.2828 -1.77167 43.0119 27.2828 -1.77167
478 1 43.8931 29.0441 -0.235583 43.8931 29.0441 -0.235583
479 2 45.551 29.0873 1.5806 45.551 29.0873 1.5806
480 2 45.9093 28.993 -1.66142 45.9093 28.993 -1.66142
481 1 46.757 27.4539 0.14749 46.757 27.4539 0.14749
482 2 48.4818 27.4327 1.94147 48.4818 27.4327 1.94147
483 2 48.6923 27.3853 -1.32324 48.6923 27.3853 -1.32324
484 1 49.5388 29.0763 0.406805 49.5388 29.0763 0.406805
485 2 51.4327 29.0788 2.06218 51.4327 29.0788 2.06218
486 2 51.284 28.9374 -1.32779 51.284 28.9374 -1.32779
487 1 0.976419 30.675 0.295457 0.976419 30.675 0.295457
488 2 2.82405 30.8425 2.13306 2.82405 30.8425 2.13306
489 2 3.14302 30.5647 -1.14082 3.14302 30.5647 -1.14082
490 1 3.84003 32.3434 0.401216 3.84003 32.3434 0.401216
491 2 5.72416 32.4766 1.99208 5.72416 32.4766 1.99208
492 2 5.79116 32.3946 -1.13519 5.79116 32.3946 -1.13519
493 1 6.74411 30.7756 0.499622 6.74411 30.7756 0.499622
494 2 8.56966 30.9469 1.89097 8.56966 30.9469 1.89097
495 2 8.41803 30.6054 -1.26582 8.41803 30.6054 -1.26582
496 1 9.49199 32.3794 0.139783 9.49199 32.3794 0.139783
497 2 11.5744 32.5071 1.77502 11.5744 32.5071 1.77502
498 2 11.469 32.2789 -1.49446 11.469 32.2789 -1.49446
499 1 12.4316 30.7346 0.174349 12.4316 30.7346 0.174349
500 2 14.3964 30.8239 1.83375 14.3964 30.8239 1.83375
501 2 14.3125 30.7621 -1.44398 14.3125 30.7621 -1.44398
502 1 15.2564 32.3171 0.197363 15.2564 32.3171 0.197363
503 2 17.3959 32.3751 1.71684 17.3959 32.3751 1.71684
504 2 17.1117 32.1701 -1.51066 17.1117 32.1701 -1.51066
505 1 18.1519 30.62 0.0743606 18.1519 30.62 0.0743606
506 2 20.1317 30.7849 1.63437 20.1317 30.7849 1.63437
507 2 20.0291 30.5605 -1.72243 20.0291 30.5605 -1.72243
508 1 20.9975 32.2623 -0.139612 20.9975 32.2623 -0.139612
509 2 22.9848 32.4058 1.36016 22.9848 32.4058 1.36016
510 2 22.8472 32.3462 -1.88359 22.8472 32.3462 -1.88359
511 1 23.859 30.6339 -0.246453 23.859 30.6339 -0.246453
512 2 25.7765 30.8125 1.37807 25.7765 30.8125 1.37807
513 2 25.8951 30.6236 -1.87306 25.8951 30.6236 -1.87306
514 1 26.6883 32.3522 -0.285186 26.6883 32.3522 -0.285186
515 2 28.7354 32.3415 1.33228 28.7354 32.3415 1.33228
516 2 28.6423 32.068 -1.99282 28.6423 32.068 -1.99282
517 1 29.5554 30.6069 -0.249359 29.5554 30.6069 -0.249359
518 2 31.5281 30.5678 1.3786 31.5281 30.5678 1.3786
519 2 31.5286 30.5919 -1.91006 31.5286 30.5919 -1.91006
520 1 32.4454 32.195 -0.26708 32.4454 32.195 -0.26708
521 2 34.2821 32.1873 1.43763 34.2821 32.1873 1.43763
522 2 34.3337 32.3162 -1.89392 34.3337 32.3162 -1.89392
523 1 35.2703 30.6593 -0.203666 35.2703 30.6593 -0.203666
524 2 37.1212 30.62 1.5209 37.1212 30.62 1.5209
525 2 37.2622 30.8315 -1.80467 37.2622 30.8315 -1.80467
526 1 38.1881 32.323 0.000182855 38.1881 32.323 0.000182855
527 2 40.2011 32.4204 1.58296 40.2011 32.4204 1.58296
528 2 40.0506 32.2871 -1.65376 40.0506 32.2871 -1.65376
529 1 41.0327 30.7086 -0.0183115 41.0327 30.7086 -0.0183115
530 2 42.9386 30.6848 1.43191 42.9386 30.6848 1.43191
531 2 42.8919 30.756 -1.68617 42.8919 30.756 -1.68617
532 1 43.9216 32.4202 0.0222929 43.9216 32.4202 0.0222929
533 2 45.7887 32.3102 1.73666 45.7887 32.3102 1.73666
534 2 45.797 32.428 -1.64016 45.797 32.428 -1.64016
535 1 46.7284 30.6852 0.0761376 46.7284 30.6852 0.0761376
536 2 48.4529 30.902 1.84899 48.4529 30.902 1.84899
537 2 48.5996 30.4854 -1.46962 48.5996 30.4854 -1.46962
538 1 49.4842 32.4221 0.053248 49.4842 32.4221 0.053248
539 2 51.2698 32.4976 1.78678 51.2698 32.4976 1.78678