ITEM: TIMESTEP
37400
ITEM: NUMBER OF ATOMS
810
ITEM: BOX BOUNDS pp pp pp
7.4458775203216410e-01 5.2273017247968781e+01
8.5963120927023340e-01 5.0156583790728831e+01
-1.0000000000000000e+01 1.0000000000000000e+01
ITEM: ATOMS id type x y z xu yu zu
1 1 0.884684 1.1236 -0.748899 0.884684 1.1236 -0.748899
2 2 2.71312 1.3087 0.975107 2.71312 1.3087 0.975107
3 2 2.75744 0.863642 -2.32559 2.75744 0.863642 -2.32559
4 1 3.7929 2.73269 -0.8921 3.7929 2.73269 -0.8921
5 2 5.6063 2.6879 0.82123 5.6063 2.6879 0.82123
6 2 5.78476 2.82576 -2.39809 5.78476 2.82576 -2.39809
7 1 6.76213 1.07383 -0.757761 6.76213 1.07383 -0.757761
8 2 8.49071 1.27176 1.01048 8.49071 1.27176 1.01048
9 2 8.85528 0.762725 -2.20018 8.85528 0.762725 -2.20018
10 1 9.61283 2.65407 -0.72348 9.61283 2.65407 -0.72348
11 2 11.2311 2.87709 1.16167 11.2311 2.87709 1.16167
12 2 11.6274 2.53545 -2.06396 11.6274 2.53545 -2.06396
13 1 12.2485 1.04292 -0.201413 12.2485 1.04292 -0.201413
14 2 14.0095 1.23152 1.51468 14.0095 1.23152 1.51468
15 2 14.4008 0.932064 -1.62925 14.4008 0.932064 -1.62925
16 1 15.261 2.69227 -0.00756321 15.261 2.69227 -0.00756321
17 2 17.0949 2.67834 1.77981 17.0949 2.67834 1.77981
18 2 17.2235 2.70822 -1.48078 17.2235 2.70822 -1.48078
19 1 18.0063 1.02047 0.138231 18.0063 1.02047 0.138231
20 2 19.889 1.19067 1.89044 19.889 1.19067 1.89044
21 2 20.0895 50.1844 -1.35436 20.0895 0.887476 -1.35436
22 1 20.9873 2.60524 0.213889 20.9873 2.60524 0.213889
23 2 22.979 2.97856 1.72332 22.979 2.97856 1.72332
24 2 22.8228 2.54976 -1.5044 22.8228 2.54976 -1.5044
25 1 23.8846 0.98149 0.177908 23.8846 0.98149 0.177908
26 2 25.712 1.28493 1.82094 25.712 1.28493 1.82094
27 2 25.8937 0.781007 -1.29223 25.8937 0.781007 -1.29223
28 1 26.7342 2.72493 0.152109 26.7342 2.72493 0.152109
29 2 28.6029 2.76025 1.88124 28.6029 2.76025 1.88124
30 2 28.8141 2.60927 -1.31628 28.8141 2.60927 -1.31628
31 1 29.6392 0.986666 0.435728 29.6392 0.986666 0.435728
32 2 31.5212 1.07084 2.12163 31.5212 1.07084 2.12163
33 2 31.457 0.988869 -1.1824 31.457 0.988869 -1.1824
34 1 32.5517 2.65375 0.471705 32.5517 2.65375 0.471705
35 2 34.4425 2.87687 2.06732 34.4425 2.87687 2.06732
36 2 34.4327 2.49048 -1.20003 34.4327 2.49048 -1.20003
37 1 35.3728 1.03493 0.591956 35.3728 1.03493 0.591956
38 2 37.468 1.24052 2.03457 37.468 1.24052 2.03457
39 2 37.0752 1.02475 -1.25801 37.0752 1.02475 -1.25801
40 1 38.259 2.8284 0.0425776 38.259 2.8284 0.0425776
41 2 40.1475 2.874 1.56467 40.1475 2.874 1.56467
42 2 39.986 2.60124 -1.67753 39.986 2.60124 -1.67753
43 1 41.0295 1.05547 0.0882159 41.0295 1.05547 0.0882159
44 2 43.1441 1.26211 1.52051 43.1441 1.26211 1.52051
45 2 42.627 0.861963 -1.72765 42.627 0.861963 -1.72765
46 1 43.9279 2.70242 -0.378561 43.9279 2.70242 -0.378561
47 2 45.7686 2.87648 1.26262 45.7686 2.87648 1.26262
48 2 45.8318 2.49923 -1.90431 45.8318 2.49923 -1.90431
49 1 46.783 1.10618 -0.184104 46.783 1.10618 -0.184104
50 2 48.8744 1.06608 1.25119 48.8744 1.06608 1.25119
51 2 48.4559 0.958141 -2.0749 48.4559 0.958141 -2.0749
52 1 49.5868 2.671 -0.628877 49.5868 2.671 -0.628877
53 2 51.4846 2.82874 0.895944 51.4846 2.82874 0.895944
54 2 51.2486 2.6931 -2.32445 51.2486 2.6931 -2.32445
55 1 0.878148 4.37801 -0.819254 0.878148 4.37801 -0.819254
56 2 2.89246 4.29811 0.703858 2.89246 4.29811 0.703858
57 2 2.84113 4.30454 -2.53234 2.84113 4.30454 -2.53234
58 1 3.78108 5.97009 -1.00535 3.78108 5.97009 -1.00535
59 2 5.52081 5.97134 0.776809 5.52081 5.97134 0.776809
60 2 5.91922 5.89618 -2.48076 5.91922 5.89618 -2.48076
61 1 6.68191 4.4046 -0.587873 6.68191 4.4046 -0.587873
62 2 8.73072 4.3641 0.884243 8.73072 4.3641 0.884243
63 2 8.53377 4.27903 -2.29955 8.53377 4.27903 -2.29955
64 1 9.5526 5.98537 -0.736194 9.5526 5.98537 -0.736194
65 2 11.3759 5.96409 1.10169 11.3759 5.96409 1.10169
66 2 11.5416 6.09499 -2.16962 11.5416 6.09499 -2.16962
67 1 12.4667 4.32547 -0.438368 12.4667 4.32547 -0.438368
68 2 14.1706 4.39035 1.51481 14.1706 4.39035 1.51481
69 2 14.5402 4.3332 -1.72073 14.5402 4.3332 -1.72073
70 1 15.2719 5.93589 -0.0142831 15.2719 5.93589 -0.0142831
71 2 17.246 6.03127 1.66941 17.246 6.03127 1.66941
72 2 17.2619 5.85626 -1.55089 17.2619 5.85626 -1.55089
73 1 18.1573 4.32103 0.179487 18.1573 4.32103 0.179487
74 2 20.0185 4.40311 1.75376 20.0185 4.40311 1.75376
75 2 20.0311 4.21254 -1.51046 20.0311 4.21254 -1.51046
76 1 21.0602 5.96448 0.0219659 21.0602 5.96448 0.0219659
77 2 23.0492 6.05096 1.50007 23.0492 6.05096 1.50007
78 2 22.9172 6.06303 -1.67223 22.9172 6.06303 -1.67223
79 1 23.899 4.41076 -0.102578 23.899 4.41076 -0.102578
80 2 25.5975 4.45553 1.65188 25.5975 4.45553 1.65188
81 2 25.9098 4.57353 -1.6346 25.9098 4.57353 -1.6346
82 1 26.7614 6.0051 0.118676 26.7614 6.0051 0.118676
83 2 28.5307 6.08922 1.79343 28.5307 6.08922 1.79343
84 2 28.7982 5.92593 -1.485 28.7982 5.92593 -1.485
85 1 29.6234 4.35172 0.24596 29.6234 4.35172 0.24596
86 2 31.4025 4.3008 1.98271 31.4025 4.3008 1.98271
87 2 31.5879 4.05961 -1.30023 31.5879 4.05961 -1.30023
88 1 32.4548 5.93766 0.151585 32.4548 5.93766 0.151585
89 2 34.6013 6.11574 1.69654 34.6013 6.11574 1.69654
90 2 34.4045 5.74877 -1.56001 34.4045 5.74877 -1.56001
91 1 35.4034 4.35016 0.264328 35.4034 4.35016 0.264328
92 2 37.4662 4.54225 1.69654 37.4662 4.54225 1.69654
93 2 37.1718 4.32911 -1.57037 37.1718 4.32911 -1.57037
94 1 38.2389 6.07479 -0.0936028 38.2389 6.07479 -0.0936028
95 2 40.2328 6.21135 1.35231 40.2328 6.21135 1.35231
96 2 39.9164 5.88636 -1.83099 39.9164 5.88636 -1.83099
97 1 41.044 4.31859 -0.205894 41.044 4.31859 -0.205894
98 2 43.0439 4.45493 1.27678 43.0439 4.45493 1.27678
99 2 42.7214 4.30729 -1.95199 42.7214 4.30729 -1.95199
100 1 43.8862 6.00771 -0.487396 43.8862 6.00771 -0.487396
101 2 46.1651 6.19501 1.08704 46.1651 6.19501 1.08704
102 2 45.6226 5.76849 -2.22855 45.6226 5.76849 -2.22855
103 1 46.76 4.33616 -0.546282 46.76 4.33616 -0.546282
104 2 48.7872 4.49895 0.977418 48.7872 4.49895 0.977418
105 2 48.5764 4.24025 -2.33266 48.5764 4.24025 -2.33266
106 1 49.631 6.11614 -0.843943 49.631 6.11614 -0.843943
107 2 51.4869 6.10001 0.792946 51.4869 6.10001 0.792946
108 2 51.5139 6.06915 -2.41497 51.5139 6.06915 -2.41497
109 1 0.98147 7.77441 -0.814409 0.98147 7.77441 -0.814409
110 2 3.01541 7.68087 0.731191 3.01541 7.68087 0.731191
111 2 2.80356 7.76684 -2.50771 2.80356 7.76684 -2.50771
112 1 3.88465 9.37475 -0.851231 3.88465 9.37475 -0.851231
113 2 5.70629 9.27971 0.955372 5.70629 9.27971 0.955372
114 2 5.90877 9.44354 -2.31644 5.90877 9.44354 -2.31644
115 1 6.74109 7.66955 -0.810981 6.74109 7.66955 -0.810981
116 2 8.36249 7.47133 1.01318 8.36249 7.47133 1.01318
117 2 8.81639 7.84561 -2.13514 8.81639 7.84561 -2.13514
118 1 9.56804 9.2842 -0.278309 9.56804 9.2842 -0.278309
119 2 11.5384 9.14061 1.33162 11.5384 9.14061 1.33162
120 2 11.5201 9.3104 -1.9561 11.5201 9.3104 -1.9561
121 1 12.4914 7.59749 -0.425713 12.4914 7.59749 -0.425713
122 2 14.1623 7.69528 1.44816 14.1623 7.69528 1.44816
123 2 14.5362 7.55472 -1.84881 14.5362 7.55472 -1.84881
124 1 15.2943 9.24563 -0.0872793 15.2943 9.24563 -0.0872793
125 2 17.1435 9.30426 1.58857 17.1435 9.30426 1.58857
126 2 17.2942 9.28027 -1.74767 17.2942 9.28027 -1.74767
127 1 18.1682 7.67955 -0.0166478 18.1682 7.67955 -0.0166478
128 2 20.1966 7.74465 1.60089 20.1966 7.74465 1.60089
129 2 20.0549 7.40909 -1.67217 20.0549 7.40909 -1.67217
130 1 21.0436 9.17639 -0.311704 21.0436 9.17639 -0.311704
131 2 22.8363 9.26542 1.40047 22.8363 9.26542 1.40047
132 2 23.0376 9.08176 -1.85219 23.0376 9.08176 -1.85219
133 1 23.9834 7.67705 -0.103283 23.9834 7.67705 -0.103283
134 2 25.7107 7.72655 1.60849 25.7107 7.72655 1.60849
135 2 25.8639 7.57289 -1.67309 25.8639 7.57289 -1.67309
136 1 26.8012 9.19326 -0.066001 26.8012 9.19326 -0.066001
137 2 28.7306 9.59094 1.47981 28.7306 9.59094 1.47981
138 2 28.6569 8.95993 -1.78298 28.6569 8.95993 -1.78298
139 1 29.6147 7.62015 0.164816 29.6147 7.62015 0.164816
140 2 31.7098 7.78005 1.79297 31.7098 7.78005 1.79297
141 2 31.3643 7.55938 -1.52561 31.3643 7.55938 -1.52561
142 1 32.5232 9.30038 -0.124863 32.5232 9.30038 -0.124863
143 2 34.566 9.37194 1.28432 34.566 9.37194 1.28432
144 2 34.1194 9.14045 -1.99331 34.1194 9.14045 -1.99331
145 1 35.3354 7.58572 -0.282809 35.3354 7.58572 -0.282809
146 2 37.2461 7.95106 1.39247 37.2461 7.95106 1.39247
147 2 37.2336 7.45908 -1.85071 37.2336 7.45908 -1.85071
148 1 38.1083 9.33581 -0.491892 38.1083 9.33581 -0.491892
149 2 40.1624 9.33211 1.08856 40.1624 9.33211 1.08856
150 2 39.9636 9.13051 -2.20457 39.9636 9.13051 -2.20457
151 1 41.0762 7.61466 -0.500019 41.0762 7.61466 -0.500019
152 2 43.0153 7.82142 1.05411 43.0153 7.82142 1.05411
153 2 42.9142 7.51204 -2.30996 42.9142 7.51204 -2.30996
154 1 43.9069 9.28738 -0.747407 43.9069 9.28738 -0.747407
155 2 45.8651 9.38482 0.789434 45.8651 9.38482 0.789434
156 2 45.6708 9.37673 -2.60517 45.6708 9.37673 -2.60517
157 1 46.7286 7.68746 -0.886696 46.7286 7.68746 -0.886696
158 2 48.5996 7.77297 0.745645 48.5996 7.77297 0.745645
159 2 48.7032 7.71548 -2.47188 48.7032 7.71548 -2.47188
160 1 49.7238 9.41155 -0.872378 49.7238 9.41155 -0.872378
161 2 51.521 9.43335 0.842135 51.521 9.43335 0.842135
162 2 51.5333 9.35554 -2.54102 51.5333 9.35554 -2.54102
163 1 1.09444 10.9287 -0.918767 1.09444 10.9287 -0.918767
164 2 2.92052 11.0262 0.826969 2.92052 11.0262 0.826969
165 2 2.97116 11.086 -2.46669 2.97116 11.086 -2.46669
166 1 3.79947 12.63 -0.793106 3.79947 12.63 -0.793106
167 2 5.56969 12.6806 1.02909 5.56969 12.6806 1.02909
168 2 5.77282 12.529 -2.28124 5.77282 12.529 -2.28124
169 1 6.69463 11.0211 -0.526417 6.69463 11.0211 -0.526417
170 2 8.41244 11.1339 1.27944 8.41244 11.1339 1.27944
171 2 8.65726 10.9858 -2.00909 8.65726 10.9858 -2.00909
172 1 9.49997 12.6687 -0.329935 9.49997 12.6687 -0.329935
173 2 11.2534 12.5463 1.41139 11.2534 12.5463 1.41139
174 2 11.5482 12.5839 -1.83029 11.5482 12.5839 -1.83029
175 1 12.4232 10.9321 -0.187383 12.4232 10.9321 -0.187383
176 2 14.2412 10.8418 1.52006 14.2412 10.8418 1.52006
177 2 14.3619 10.8 -1.78169 14.3619 10.8 -1.78169
178 1 15.2872 12.5402 -0.198832 15.2872 12.5402 -0.198832
179 2 17.0246 12.5953 1.47519 17.0246 12.5953 1.47519
180 2 17.2128 12.497 -1.82162 17.2128 12.497 -1.82162
181 1 18.1244 10.9647 -0.095645 18.1244 10.9647 -0.095645
182 2 20.0805 10.7496 1.44169 20.0805 10.7496 1.44169
183 2 20.033 10.8997 -1.78941 20.033 10.8997 -1.78941
184 1 20.9583 12.4519 -0.212839 20.9583 12.4519 -0.212839
185 2 23.0153 12.5793 1.3677 23.0153 12.5793 1.3677
186 2 22.769 12.4194 -1.95066 22.769 12.4194 -1.95066
187 1 23.8577 10.8499 -0.270823 23.8577 10.8499 -0.270823
188 2 25.8071 11.0405 1.3102 25.8071 11.0405 1.3102
189 2 25.8015 10.5397 -1.9141 25.8015 10.5397 -1.9141
190 1 26.7247 12.491 -0.581887 26.7247 12.491 -0.581887
191 2 28.6494 12.7951 0.984774 28.6494 12.7951 0.984774
192 2 28.5121 12.3817 -2.26315 28.5121 12.3817 -2.26315
193 1 29.5437 10.8942 -0.4284 29.5437 10.8942 -0.4284
194 2 31.5135 11.2266 1.17518 31.5135 11.2266 1.17518
195 2 31.454 10.6 -2.01341 31.454 10.6 -2.01341
196 1 32.4309 12.5036 -0.778901 32.4309 12.5036 -0.778901
197 2 34.3019 12.7093 0.844599 34.3019 12.7093 0.844599
198 2 34.4236 12.608 -2.36555 34.4236 12.608 -2.36555
199 1 35.2171 10.9343 -0.57464 35.2171 10.9343 -0.57464
200 2 37.2573 11.1666 0.970259 37.2573 11.1666 0.970259
201 2 36.9584 10.6878 -2.33508 36.9584 10.6878 -2.33508
202 1 38.1192 12.5821 -0.940486 38.1192 12.5821 -0.940486
203 2 39.918 12.7916 0.755753 39.918 12.7916 0.755753
204 2 40.2098 12.4943 -2.446 40.2098 12.4943 -2.446
205 1 40.9853 10.9137 -0.670565 40.9853 10.9137 -0.670565
206 2 42.9403 10.9935 0.825283 42.9403 10.9935 0.825283
207 2 42.8436 10.7986 -2.34283 42.8436 10.7986 -2.34283
208 1 43.8411 12.5458 -0.964859 43.8411 12.5458 -0.964859
209 2 45.8722 12.6593 0.638246 45.8722 12.6593 0.638246
210 2 45.7145 12.4392 -2.58685 45.7145 12.4392 -2.58685
211 1 46.7937 10.9572 -0.933705 46.7937 10.9572 -0.933705
212 2 48.6762 10.8782 0.745919 48.6762 10.8782 0.745919
213 2 48.7974 10.9941 -2.53181 48.7974 10.9941 -2.53181
214 1 49.5761 12.6352 -0.798163 49.5761 12.6352 -0.798163
215 2 51.6889 12.6612 0.75689 51.6889 12.6612 0.75689
216 2 51.5103 12.5333 -2.53728 51.5103 12.5333 -2.53728
217 1 1.02544 14.208 -1.05076 1.02544 14.208 -1.05076
218 2 2.7498 14.314 0.667693 2.7498 14.314 0.667693
219 2 2.953 14.1118 -2.63757 2.953 14.1118 -2.63757
220 1 3.77707 15.9205 -1.04116 3.77707 15.9205 -1.04116
221 2 5.5386 16.1105 0.724565 5.5386 16.1105 0.724565
222 2 5.6885 15.7993 -2.45413 5.6885 15.7993 -2.45413
223 1 6.60098 14.2777 -0.641021 6.60098 14.2777 -0.641021
224 2 8.49056 14.5064 1.09672 8.49056 14.5064 1.09672
225 2 8.58884 14.1119 -2.14514 8.58884 14.1119 -2.14514
226 1 9.51092 15.8788 -0.659836 9.51092 15.8788 -0.659836
227 2 11.2663 15.8982 1.12762 11.2663 15.8982 1.12762
228 2 11.5559 15.5682 -2.12711 11.5559 15.5682 -2.12711
229 1 12.4586 14.1648 -0.159713 12.4586 14.1648 -0.159713
230 2 14.4987 14.301 1.47237 14.4987 14.301 1.47237
231 2 14.33 14.1848 -1.88709 14.33 14.1848 -1.88709
232 1 15.3617 15.8833 -0.350764 15.3617 15.8833 -0.350764
233 2 17.2704 16.0698 1.18687 17.2704 16.0698 1.18687
234 2 17.1118 15.5943 -2.05338 17.1118 15.5943 -2.05338
235 1 18.0966 14.1574 -0.21146 18.0966 14.1574 -0.21146
236 2 20.1364 14.2836 1.27543 20.1364 14.2836 1.27543
237 2 19.9513 14.1219 -1.96767 19.9513 14.1219 -1.96767
238 1 21.0284 15.8226 -0.520149 21.0284 15.8226 -0.520149
239 2 22.86 15.9268 1.19734 22.86 15.9268 1.19734
240 2 23.0134 15.733 -2.11716 23.0134 15.733 -2.11716
241 1 23.8399 14.2006 -0.365182 23.8399 14.2006 -0.365182
242 2 25.8714 14.3163 1.15234 25.8714 14.3163 1.15234
243 2 25.6618 14.0945 -2.1488 25.6618 14.0945 -2.1488
244 1 26.7408 15.776 -0.565616 26.7408 15.776 -0.565616
245 2 28.7602 15.8753 1.03646 28.7602 15.8753 1.03646
246 2 28.549 15.9332 -2.26147 28.549 15.9332 -2.26147
247 1 29.5718 14.223 -0.835457 29.5718 14.223 -0.835457
248 2 31.4986 14.3039 0.755124 31.4986 14.3039 0.755124
249 2 31.5005 14.1747 -2.42019 31.5005 14.1747 -2.42019
250 1 32.4715 15.8742 -0.866211 32.4715 15.8742 -0.866211
251 2 34.4811 16.0514 0.758094 34.4811 16.0514 0.758094
252 2 34.2958 15.6249 -2.53623 34.2958 15.6249 -2.53623
253 1 35.3876 14.2813 -0.75748 35.3876 14.2813 -0.75748
254 2 37.2967 14.318 0.669287 37.2967 14.318 0.669287
255 2 37.1001 14.0806 -2.52456 37.1001 14.0806 -2.52456
256 1 38.217 15.8768 -1.21636 38.217 15.8768 -1.21636
257 2 39.9088 16.1513 0.568352 39.9088 16.1513 0.568352
258 2 40.2561 15.5514 -2.72673 40.2561 15.5514 -2.72673
259 1 41.008 14.301 -0.874415 41.008 14.301 -0.874415
260 2 43.122 14.3796 0.609233 43.122 14.3796 0.609233
261 2 42.8536 14.1994 -2.58278 42.8536 14.1994 -2.58278
262 1 43.8692 15.8717 -1.20201 43.8692 15.8717 -1.20201
263 2 45.7075 15.9482 0.533376 45.7075 15.9482 0.533376
264 2 45.9782 15.8542 -2.69251 45.9782 15.8542 -2.69251
265 1 46.7392 14.2307 -0.961024 46.7392 14.2307 -0.961024
266 2 48.6196 14.2653 0.71063 48.6196 14.2653 0.71063
267 2 48.7738 14.1944 -2.56456 48.7738 14.1944 -2.56456
268 1 49.6757 15.8026 -0.961466 49.6757 15.8026 -0.961466
269 2 51.5271 15.8332 0.602773 51.5271 15.8332 0.602773
270 2 51.4487 15.7954 -2.69258 51.4487 15.7954 -2.69258
271 1 0.906904 17.5032 -1.15773 0.906904 17.5032 -1.15773
272 2 2.74092 17.6364 0.546787 2.74092 17.6364 0.546787
273 2 2.96406 17.5682 -2.71152 2.96406 17.5682 -2.71152
274 1 3.79306 19.2192 -0.922702 3.79306 19.2192 -0.922702
275 2 5.58751 19.1112 0.733424 5.58751 19.1112 0.733424
276 2 5.76613 19.1666 -2.56272 5.76613 19.1666 -2.56272
277 1 6.65312 17.5227 -0.97356 6.65312 17.5227 -0.97356
278 2 8.3724 17.4945 0.876137 8.3724 17.4945 0.876137
279 2 8.76305 17.6248 -2.31675 8.76305 17.6248 -2.31675
280 1 9.61825 19.226 -0.565257 9.61825 19.226 -0.565257
281 2 11.3718 18.9659 1.16988 11.3718 18.9659 1.16988
282 2 11.4445 19.0969 -2.17137 11.4445 19.0969 -2.17137
283 1 12.3541 17.4314 -0.491523 12.3541 17.4314 -0.491523
284 2 14.3119 17.5845 1.12168 14.3119 17.5845 1.12168
285 2 14.257 17.344 -2.09809 14.257 17.344 -2.09809
286 1 15.2634 19.2268 -0.632855 15.2634 19.2268 -0.632855
287 2 17.2031 19.0625 0.933645 17.2031 19.0625 0.933645
288 2 17.0906 19.3018 -2.31522 17.0906 19.3018 -2.31522
289 1 18.1889 17.5016 -0.756419 18.1889 17.5016 -0.756419
290 2 19.9545 17.3421 0.996256 19.9545 17.3421 0.996256
291 2 20.1934 17.5747 -2.13764 20.1934 17.5747 -2.13764
292 1 21.0318 19.1016 -0.391017 21.0318 19.1016 -0.391017
293 2 23.031 19.0254 1.21285 23.031 19.0254 1.21285
294 2 22.9598 19.0473 -2.06122 22.9598 19.0473 -2.06122
295 1 23.9529 17.465 -0.451376 23.9529 17.465 -0.451376
296 2 25.9218 17.3557 1.13704 25.9218 17.3557 1.13704
297 2 25.8804 17.4917 -2.04231 25.8804 17.4917 -2.04231
298 1 26.7773 19.1102 -0.420718 26.7773 19.1102 -0.420718
299 2 28.7358 18.9943 1.10323 28.7358 18.9943 1.10323
300 2 28.6083 19.1365 -2.04473 28.6083 19.1365 -2.04473
301 1 29.6351 17.4362 -0.635835 29.6351 17.4362 -0.635835
302 2 31.5772 17.3593 0.866558 31.5772 17.3593 0.866558
303 2 31.4304 17.6447 -2.33355 31.4304 17.6447 -2.33355
304 1 32.5703 19.1899 -0.698182 32.5703 19.1899 -0.698182
305 2 34.6461 19.1115 0.697503 34.6461 19.1115 0.697503
306 2 34.1839 19.2278 -2.6378 34.1839 19.2278 -2.6378
307 1 35.309 17.4592 -1.22534 35.309 17.4592 -1.22534
308 2 37.2743 17.5009 0.375065 37.2743 17.5009 0.375065
309 2 37.1902 17.4816 -2.91389 37.1902 17.4816 -2.91389
310 1 38.1777 19.1634 -1.36792 38.1777 19.1634 -1.36792
311 2 40.1369 19.2174 0.28843 40.1369 19.2174 0.28843
312 2 40.0969 19.0838 -3.03321 40.0969 19.0838 -3.03321
313 1 41.0691 17.4337 -1.23547 41.0691 17.4337 -1.23547
314 2 42.9724 17.489 0.411604 42.9724 17.489 0.411604
315 2 42.9026 17.4444 -2.9398 42.9026 17.4444 -2.9398
316 1 43.8426 19.1005 -1.32779 43.8426 19.1005 -1.32779
317 2 45.6798 19.2063 0.465696 45.6798 19.2063 0.465696
318 2 45.7578 19.0749 -2.83263 45.7578 19.0749 -2.83263
319 1 46.7633 17.5231 -1.07687 46.7633 17.5231 -1.07687
320 2 48.7067 17.4617 0.527111 48.7067 17.4617 0.527111
321 2 48.6547 17.3892 -2.67319 48.6547 17.3892 -2.67319
322 1 49.6004 19.1474 -1.15389 49.6004 19.1474 -1.15389
323 2 51.4884 18.9573 0.533909 51.4884 18.9573 0.533909
324 2 51.5859 19.2871 -2.66105 51.5859 19.2871 -2.66105
325 1 0.972945 20.8102 -0.877243 0.972945 20.8102 -0.877243
326 2 2.7773 20.6281 0.881476 2.7773 20.6281 0.881476
327 2 2.90408 21.1587 -2.40026 2.90408 21.1587 -2.40026
328 1 3.8534 22.4583 -0.527216 3.8534 22.4583 -0.527216
329 2 5.82899 22.3249 1.09179 5.82899 22.3249 1.09179
330 2 5.75224 22.6748 -2.18723 5.75224 22.6748 -2.18723
331 1 6.74573 20.8438 -0.834131 6.74573 20.8438 -0.834131
332 2 8.49534 20.7798 0.988737 8.49534 20.7798 0.988737
333 2 8.83127 20.902 -2.21872 8.83127 20.902 -2.21872
334 1 9.60825 22.535 -0.44187 9.60825 22.535 -0.44187
335 2 11.4275 22.5557 1.18534 11.4275 22.5557 1.18534
336 2 11.4477 22.4528 -2.01405 11.4477 22.4528 -2.01405
337 1 12.3758 20.7188 -0.460662 12.3758 20.7188 -0.460662
338 2 14.2827 20.69 1.10193 14.2827 20.69 1.10193
339 2 14.204 20.8518 -2.19634 14.204 20.8518 -2.19634
340 1 15.2381 22.4304 -0.65273 15.2381 22.4304 -0.65273
341 2 16.9127 22.0836 1.08853 16.9127 22.0836 1.08853
342 2 17.251 22.6223 -2.08325 17.251 22.6223 -2.08325
343 1 18.2014 20.7621 -0.610746 18.2014 20.7621 -0.610746
344 2 19.9275 20.7293 1.18859 19.9275 20.7293 1.18859
345 2 20.2907 20.756 -2.03404 20.2907 20.756 -2.03404
346 1 20.9856 22.3515 -0.291513 20.9856 22.3515 -0.291513
347 2 22.8664 22.1022 1.32653 22.8664 22.1022 1.32653
348 2 22.9768 22.6939 -1.80261 22.9768 22.6939 -1.80261
349 1 23.8883 20.7089 -0.522199 23.8883 20.7089 -0.522199
350 2 25.8132 20.7129 1.21069 25.8132 20.7129 1.21069
351 2 25.8527 20.741 -2.08179 25.8527 20.741 -2.08179
352 1 26.681 22.3769 -0.368951 26.681 22.3769 -0.368951
353 2 28.5013 22.2571 1.29806 28.5013 22.2571 1.29806
354 2 28.6421 22.5847 -1.94545 28.6421 22.5847 -1.94545
355 1 29.6104 20.7248 -0.423302 29.6104 20.7248 -0.423302
356 2 31.7582 20.5832 1.15468 31.7582 20.5832 1.15468
357 2 31.3186 20.8363 -2.25696 31.3186 20.8363 -2.25696
358 1 32.4602 22.447 -0.493996 32.4602 22.447 -0.493996
359 2 34.5791 22.3077 0.898921 34.5791 22.3077 0.898921
360 2 34.162 22.6512 -2.29852 34.162 22.6512 -2.29852
361 1 35.3834 20.8005 -0.982659 35.3834 20.8005 -0.982659
362 2 37.4246 20.6226 0.466886 37.4246 20.6226 0.466886
363 2 37.0393 20.9674 -2.74534 37.0393 20.9674 -2.74534
364 1 38.1754 22.4586 -1.12417 38.1754 22.4586 -1.12417
365 2 40.0121 22.4251 0.449834 40.0121 22.4251 0.449834
366 2 40.0251 22.5705 -2.75643 40.0251 22.5705 -2.75643
367 1 41.0667 20.8376 -1.40572 41.0667 20.8376 -1.40572
368 2 42.8646 20.8371 0.23663 42.8646 20.8371 0.23663
369 2 43.017 20.9073 -2.97589 43.017 20.9073 -2.97589
370 1 43.9059 22.4764 -1.35891 43.9059 22.4764 -1.35891
371 2 45.5977 22.3419 0.417506 45.5977 22.3419 0.417506
372 2 45.9267 22.637 -2.75109 45.9267 22.637 -2.75109
373 1 46.6824 20.7271 -1.23928 46.6824 20.7271 -1.23928
374 2 48.5177 20.5263 0.489743 48.5177 20.5263 0.489743
375 2 48.7059 20.8068 -2.67426 48.7059 20.8068 -2.67426
376 1 49.6171 22.4124 -0.906796 49.6171 22.4124 -0.906796
377 2 51.5046 22.3463 0.809721 51.5046 22.3463 0.809721
378 2 51.4674 22.4663 -2.55275 51.4674 22.4663 -2.55275
379 1 0.990279 24.0529 -0.922383 0.990279 24.0529 -0.922383
380 2 2.60567 23.9898 1.11184 2.60567 23.9898 1.11184
381 2 3.13309 24.2216 -2.15915 3.13309 24.2216 -2.15915
382 1 3.77479 25.8038 -0.281412 3.77479 25.8038 -0.281412
383 2 5.60154 25.6182 1.40798 5.60154 25.6182 1.40798
384 2 5.8404 26.0281 -1.78214 5.8404 26.0281 -1.78214
385 1 6.70869 24.2142 -0.384628 6.70869 24.2142 -0.384628
386 2 8.71129 24.067 1.2165 8.71129 24.067 1.2165
387 2 8.60238 24.2058 -2.00276 8.60238 24.2058 -2.00276
388 1 9.55744 25.7566 -0.307079 9.55744 25.7566 -0.307079
389 2 11.3469 25.6264 1.39938 11.3469 25.6264 1.39938
390 2 11.468 25.9644 -1.7638 11.468 25.9644 -1.7638
391 1 12.4327 24.1002 -0.358042 12.4327 24.1002 -0.358042
392 2 14.2919 23.8441 1.24162 14.2919 23.8441 1.24162
393 2 14.2039 24.3162 -2.0095 14.2039 24.3162 -2.0095
394 1 15.3036 25.7111 -0.250449 15.3036 25.7111 -0.250449
395 2 17.0808 25.641 1.4918 17.0808 25.641 1.4918
396 2 17.2692 25.7324 -1.79333 17.2692 25.7324 -1.79333
397 1 18.1138 24.0081 -0.16441 18.1138 24.0081 -0.16441
398 2 20.1532 23.913 1.40395 20.1532 23.913 1.40395
399 2 20.065 24.1323 -1.76064 20.065 24.1323 -1.76064
400 1 20.9713 25.7318 -0.131478 20.9713 25.7318 -0.131478
401 2 22.7408 25.6302 1.60176 22.7408 25.6302 1.60176
402 2 23.0666 25.6816 -1.59513 23.0666 25.6816 -1.59513
403 1 23.8317 24.0491 0.167243 23.8317 24.0491 0.167243
404 2 25.9541 23.9265 1.4719 25.9541 23.9265 1.4719
405 2 25.4928 24.1733 -1.73895 25.4928 24.1733 -1.73895
406 1 26.6764 25.7328 -0.130611 26.6764 25.7328 -0.130611
407 2 28.5245 25.6643 1.5848 28.5245 25.6643 1.5848
408 2 28.5891 25.9658 -1.71479 28.5891 25.9658 -1.71479
409 1 29.5214 24.098 -0.211881 29.5214 24.098 -0.211881
410 2 31.43 23.8843 1.35173 31.43 23.8843 1.35173
411 2 31.43 24.3022 -1.88589 31.43 24.3022 -1.88589
412 1 32.4607 25.7122 -0.0132514 32.4607 25.7122 -0.0132514
413 2 34.7093 25.5642 1.28426 34.7093 25.5642 1.28426
414 2 34.0774 25.9356 -1.93215 34.0774 25.9356 -1.93215
415 1 35.2854 24.1635 -0.656134 35.2854 24.1635 -0.656134
416 2 37.2037 23.9127 0.899527 37.2037 23.9127 0.899527
417 2 37.1461 24.4586 -2.33281 37.1461 24.4586 -2.33281
418 1 38.1279 25.8018 -0.497326 38.1279 25.8018 -0.497326
419 2 40.1897 25.4078 0.948285 40.1897 25.4078 0.948285
420 2 39.7899 26.1327 -2.24761 39.7899 26.1327 -2.24761
421 1 40.9962 24.1154 -1.11864 40.9962 24.1154 -1.11864
422 2 42.8038 23.7117 0.509068 42.8038 23.7117 0.509068
423 2 43.0741 24.4986 -2.51904 43.0741 24.4986 -2.51904
424 1 43.8301 25.7629 -0.534233 43.8301 25.7629 -0.534233
425 2 45.6761 25.3421 1.08785 45.6761 25.3421 1.08785
426 2 45.7916 26.1548 -2.21527 45.7916 26.1548 -2.21527
427 1 46.7139 24.1205 -0.92589 46.7139 24.1205 -0.92589
428 2 48.4049 23.9294 0.90649 48.4049 23.9294 0.90649
429 2 48.7485 24.2317 -2.44396 48.7485 24.2317 -2.44396
430 1 49.5952 25.679 -0.533632 49.5952 25.679 -0.533632
431 2 51.5775 25.4493 0.972069 51.5775 25.4493 0.972069
432 2 51.2899 25.8634 -2.2089 51.2899 25.8634 -2.2089
433 1 0.89689 27.3758 -0.454547 0.89689 27.3758 -0.454547
434 2 2.71279 27.304 1.40426 2.71279 27.304 1.40426
435 2 2.99743 27.5696 -1.89709 2.99743 27.5696 -1.89709
436 1 3.74978 29.0311 0.0721726 3.74978 29.0311 0.0721726
437 2 5.58952 28.8605 1.65323 5.58952 28.8605 1.65323
438 2 5.6636 29.1246 -1.57291 5.6636 29.1246 -1.57291
439 1 6.71711 27.4117 -0.0488622 6.71711 27.4117 -0.0488622
440 2 8.61129 27.1525 1.56921 8.61129 27.1525 1.56921
441 2 8.58289 27.6197 -1.73387 8.58289 27.6197 -1.73387
442 1 9.56712 28.9953 0.0967785 9.56712 28.9953 0.0967785
443 2 11.5186 28.9227 1.75378 11.5186 28.9227 1.75378
444 2 11.5825 29.0291 -1.48021 11.5825 29.0291 -1.48021
445 1 12.4482 27.3633 0.0344708 12.4482 27.3633 0.0344708
446 2 14.3232 27.1764 1.50002 14.3232 27.1764 1.50002
447 2 14.2833 27.5189 -1.69188 14.2833 27.5189 -1.69188
448 1 15.1882 28.9879 0.0723505 15.1882 28.9879 0.0723505
449 2 17.0762 28.9542 1.72753 17.0762 28.9542 1.72753
450 2 17.177 29.0337 -1.54029 17.177 29.0337 -1.54029
451 1 18.1555 27.2841 0.0427481 18.1555 27.2841 0.0427481
452 2 19.9909 27.2546 1.6743 19.9909 27.2546 1.6743
453 2 20.0105 27.4881 -1.60323 20.0105 27.4881 -1.60323
454 1 20.9342 29.0292 0.0631888 20.9342 29.0292 0.0631888
455 2 22.7407 28.9486 1.78831 22.7407 28.9486 1.78831
456 2 22.9548 29.094 -1.51618 22.9548 29.094 -1.51618
457 1 23.8118 27.3156 0.0388689 23.8118 27.3156 0.0388689
458 2 25.7616 27.2058 1.5823 25.7616 27.2058 1.5823
459 2 25.5947 27.4621 -1.65178 25.5947 27.4621 -1.65178
460 1 26.7555 28.8977 0.0251558 26.7555 28.8977 0.0251558
461 2 28.6303 29.0924 1.63985 28.6303 29.0924 1.63985
462 2 28.7119 28.8885 -1.67535 28.7119 28.8885 -1.67535
463 1 29.6067 27.3265 0.0899585 29.6067 27.3265 0.0899585
464 2 31.5503 27.3689 1.6545 31.5503 27.3689 1.6545
465 2 31.4069 27.3564 -1.60306 31.4069 27.3564 -1.60306
466 1 32.4524 28.9438 0.0356965 32.4524 28.9438 0.0356965
467 2 34.3971 28.6674 1.52929 34.3971 28.6674 1.52929
468 2 34.3087 29.2034 -1.74226 34.3087 29.2034 -1.74226
469 1 35.2844 27.4066 -0.352289 35.2844 27.4066 -0.352289
470 2 37.1076 27.2245 1.29081 37.1076 27.2245 1.29081
471 2 37.2196 27.6986 -1.90344 37.2196 27.6986 -1.90344
472 1 38.1918 29.0854 -0.118216 38.1918 29.0854 -0.118216
473 2 40.1036 28.8364 1.52248 40.1036 28.8364 1.52248
474 2 40.091 29.3413 -1.79791 40.091 29.3413 -1.79791
475 1 41.0397 27.4025 -0.39373 41.0397 27.4025 -0.39373
476 2 42.8584 27.1827 1.26166 42.8584 27.1827 1.26166
477 2 43.0173 27.7385 -1.90334 43.0173 27.7385 -1.90334
478 1 43.8613 29.057 -0.00907548 43.8613 29.057 -0.00907548
479 2 45.8452 28.9978 1.52386 45.8452 28.9978 1.52386
480 2 45.8625 29.1305 -1.77097 45.8625 29.1305 -1.77097
481 1 46.7174 27.4129 -0.176961 46.7174 27.4129 -0.176961
482 2 48.8563 27.1009 1.2741 48.8563 27.1009 1.2741
483 2 48.561 27.5813 -1.88812 48.561 27.5813 -1.88812
484 1 49.6347 29.0332 -0.173641 49.6347 29.0332 -0.173641
485 2 51.5165 28.6609 1.47745 51.5165 28.6609 1.47745
486 2 51.5256 29.4095 -1.68352 51.5256 29.4095 -1.68352
487 1 0.945241 30.6585 0.242783 0.945241 30.6585 0.242783
488 2 2.76958 30.7104 1.8157 2.76958 30.7104 1.8157
489 2 2.89896 30.7065 -1.48005 2.89896 30.7065 -1.48005
490 1 3.85747 32.3227 0.275285 3.85747 32.3227 0.275285
491 2 5.68658 32.2215 1.89879 5.68658 32.2215 1.89879
492 2 5.7518 32.4356 -1.447 5.7518 32.4356 -1.447
493 1 6.64203 30.6855 0.224871 6.64203 30.6855 0.224871
494 2 8.48187 30.6286 1.82952 8.48187 30.6286 1.82952
495 2 8.59988 30.7859 -1.3751 8.59988 30.7859 -1.3751
496 1 9.58552 32.325 0.313454 9.58552 32.325 0.313454
497 2 11.5127 32.2314 1.92761 11.5127 32.2314 1.92761
498 2 11.399 32.3954 -1.32046 11.399 32.3954 -1.32046
499 1 12.3929 30.6771 0.233934 12.3929 30.6771 0.233934
500 2 14.3053 30.6209 1.718 14.3053 30.6209 1.718
501 2 14.2646 30.6329 -1.37757 14.2646 30.6329 -1.37757
502 1 15.23 32.2701 0.15372 15.23 32.2701 0.15372
503 2 17.0126 32.0819 1.86073 17.0126 32.0819 1.86073
504 2 17.1247 32.3581 -1.43027 17.1247 32.3581 -1.43027
505 1 18.0766 30.6451 0.0817432 18.0766 30.6451 0.0817432
506 2 19.8854 30.558 1.84023 19.8854 30.558 1.84023
507 2 19.9507 30.768 -1.51777 19.9507 30.768 -1.51777
508 1 20.9042 32.2928 0.350802 20.9042 32.2928 0.350802
509 2 22.7483 32.2588 1.97901 22.7483 32.2588 1.97901
510 2 22.8376 32.287 -1.19917 22.8376 32.287 -1.19917
511 1 23.8234 30.6212 0.333208 23.8234 30.6212 0.333208
512 2 25.8651 30.4321 1.78244 25.8651 30.4321 1.78244
513 2 25.6785 30.6452 -1.44239 25.6785 30.6452 -1.44239
514 1 26.7552 32.2504 0.269367 26.7552 32.2504 0.269367
515 2 28.7422 32.0527 1.76335 28.7422 32.0527 1.76335
516 2 28.5053 32.5454 -1.49438 28.5053 32.5454 -1.49438
517 1 29.575 30.6624 -0.182847 29.575 30.6624 -0.182847
518 2 31.3508 30.6298 1.57697 31.3508 30.6298 1.57697
519 2 31.5908 30.6391 -1.67743 31.5908 30.6391 -1.67743
520 1 32.4528 32.3107 -0.0314886 32.4528 32.3107 -0.0314886
521 2 34.2641 32.1944 1.63155 34.2641 32.1944 1.63155
522 2 34.4769 32.3627 -1.52438 34.4769 32.3627 -1.52438
523 1 35.322 30.5647 0.0963099 35.322 30.5647 0.0963099
524 2 37.2403 30.67 1.66801 37.2403 30.67 1.66801
525 2 37.1139 30.6908 -1.59581 37.1139 30.6908 -1.59581
526 1 38.1065 32.3781 0.0735522 38.1065 32.3781 0.0735522
527 2 39.7843 32.2346 1.87715 39.7843 32.2346 1.87715
528 2 40.1029 32.6593 -1.35568 40.1029 32.6593 -1.35568
529 1 40.9134 30.699 0.144846 40.9134 30.699 0.144846
530 2 42.9113 30.4512 1.69955 42.9113 30.4512 1.69955
531 2 42.8066 30.8608 -1.47906 42.8066 30.8608 -1.47906
532 1 43.8019 32.333 0.251061 43.8019 32.333 0.251061
533 2 45.8882 32.2013 1.71143 45.8882 32.2013 1.71143
534 2 45.6169 32.3829 -1.49453 45.6169 32.3829 -1.49453
535 1 46.818 30.7275 -0.0507802 46.818 30.7275 -0.0507802
536 2 48.6486 30.5162 1.5835 48.6486 30.5162 1.5835
537 2 48.7262 30.8655 -1.61489 48.7262 30.8655 -1.61489
538 1 49.594 32.3279 0.206937 49.594 32.3279 0.206937