ITEM: TIMESTEP
58000
ITEM: NUMBER OF ATOMS
810
ITEM: BOX BOUNDS pp pp pp
7.9442292923781188e-01 5.2223182070762441e+01
7.2677850594986093e-01 5.0289436494049333e+01
-1.0000000000000000e+01 1.0000000000000000e+01
ITEM: ATOMS id type x y z xu yu zu
1 1 0.945228 1.05797 -0.511701 0.945228 1.05797 -0.511701
2 2 2.78602 0.960109 1.17952 2.78602 0.960109 1.17952
3 2 2.9418 0.850654 -2.04449 2.9418 0.850654 -2.04449
4 1 3.88129 2.64204 -0.417089 3.88129 2.64204 -0.417089
5 2 5.65544 2.79755 1.34741 5.65544 2.79755 1.34741
6 2 5.77908 2.42774 -2.02244 5.77908 2.42774 -2.02244
7 1 6.72275 0.926897 0.0212025 6.72275 0.926897 0.0212025
8 2 8.69732 1.13984 1.62086 8.69732 1.13984 1.62086
9 2 8.5694 0.70803 -1.68775 8.5694 0.70803 -1.68775
10 1 9.6369 2.59256 -0.305518 9.6369 2.59256 -0.305518
11 2 11.6186 2.73021 1.14362 11.6186 2.73021 1.14362
12 2 11.2375 2.38545 -2.01342 11.2375 2.38545 -2.01342
13 1 12.4345 1.04946 -0.293936 12.4345 1.04946 -0.293936
14 2 14.4103 0.916262 1.30137 14.4103 0.916262 1.30137
15 2 14.2645 50.5866 -2.04192 14.2645 1.02394 -2.04192
16 1 15.2321 2.67126 -0.356161 15.2321 2.67126 -0.356161
17 2 17.2904 2.67552 1.20705 17.2904 2.67552 1.20705
18 2 17.204 2.37814 -1.99666 17.204 2.37814 -1.99666
19 1 18.1595 0.888992 -0.32928 18.1595 0.888992 -0.32928
20 2 20.0167 0.744946 1.28088 20.0167 0.744946 1.28088
21 2 20.0703 0.993875 -1.94985 20.0703 0.993875 -1.94985
22 1 21.0198 2.52192 -0.164864 21.0198 2.52192 -0.164864
23 2 22.8758 2.43602 1.44533 22.8758 2.43602 1.44533
24 2 22.8577 2.48609 -1.81605 22.8577 2.48609 -1.81605
25 1 23.9057 0.838316 -0.217742 23.9057 0.838316 -0.217742
26 2 25.9486 0.916434 1.20865 25.9486 0.916434 1.20865
27 2 25.6573 0.848235 -2.02162 25.6573 0.848235 -2.02162
28 1 26.6519 2.54697 -0.48039 26.6519 2.54697 -0.48039
29 2 28.6681 2.55177 1.17754 28.6681 2.55177 1.17754
30 2 28.6436 2.61375 -2.19215 28.6436 2.61375 -2.19215
31 1 29.6164 0.931881 -0.552407 29.6164 0.931881 -0.552407
32 2 31.4695 0.942655 1.06141 31.4695 0.942655 1.06141
33 2 31.4141 0.949468 -2.14739 31.4141 0.949468 -2.14739
34 1 32.4061 2.60277 -0.567598 32.4061 2.60277 -0.567598
35 2 34.2185 2.67524 1.04211 34.2185 2.67524 1.04211
36 2 34.1767 2.42127 -2.28934 34.1767 2.42127 -2.28934
37 1 35.2566 1.01748 -0.547738 35.2566 1.01748 -0.547738
38 2 37.1541 0.902643 1.05707 37.1541 0.902643 1.05707
39 2 37.0793 50.6348 -2.17082 37.0793 1.07212 -2.17082
40 1 38.0781 2.60164 -0.45093 38.0781 2.60164 -0.45093
41 2 40.1515 2.56726 1.02979 40.1515 2.56726 1.02979
42 2 39.8193 2.70042 -2.17925 39.8193 2.70042 -2.17925
43 1 40.9749 0.927631 -0.761161 40.9749 0.927631 -0.761161
44 2 43.0348 0.880703 0.762344 43.0348 0.880703 0.762344
45 2 42.7585 0.945391 -2.52373 42.7585 0.945391 -2.52373
46 1 43.8549 2.68503 -0.882763 43.8549 2.68503 -0.882763
47 2 45.5665 2.51904 0.944836 45.5665 2.51904 0.944836
48 2 45.9795 2.74873 -2.35036 45.9795 2.74873 -2.35036
49 1 46.6203 0.925992 -0.731686 46.6203 0.925992 -0.731686
50 2 48.5375 0.800034 1.00051 48.5375 0.800034 1.00051
51 2 48.5949 50.6689 -2.25859 48.5949 1.10621 -2.25859
52 1 49.4752 2.64241 -0.538514 49.4752 2.64241 -0.538514
53 2 51.2954 2.67325 1.11877 51.2954 2.67325 1.11877
54 2 51.5411 2.6886 -2.15162 51.5411 2.6886 -2.15162
55 1 1.03312 4.35239 -0.563458 1.03312 4.35239 -0.563458
56 2 2.88014 4.22719 1.25032 2.88014 4.22719 1.25032
57 2 3.06273 4.31134 -2.02382 3.06273 4.31134 -2.02382
58 1 3.783 5.96359 -0.192848 3.783 5.96359 -0.192848
59 2 6.0095 5.94342 1.34393 6.0095 5.94342 1.34393
60 2 5.55106 5.88466 -1.91625 5.55106 5.88466 -1.91625
61 1 6.74755 4.23389 -0.390316 6.74755 4.23389 -0.390316
62 2 8.56663 4.28022 1.30996 8.56663 4.28022 1.30996
63 2 8.69917 4.25944 -1.98984 8.69917 4.25944 -1.98984
64 1 9.49529 5.87251 -0.332887 9.49529 5.87251 -0.332887
65 2 11.4946 5.77267 1.22604 11.4946 5.77267 1.22604
66 2 11.2742 6.11956 -2.0258 11.2742 6.11956 -2.0258
67 1 12.3725 4.17998 -0.700444 12.3725 4.17998 -0.700444
68 2 14.1356 4.30206 1.12453 14.1356 4.30206 1.12453
69 2 14.387 4.26342 -2.1178 14.387 4.26342 -2.1178
70 1 15.2952 5.92485 -0.357237 15.2952 5.92485 -0.357237
71 2 17.0223 5.81318 1.2994 17.0223 5.81318 1.2994
72 2 17.2225 6.05784 -1.96269 17.2225 6.05784 -1.96269
73 1 18.1609 4.13891 -0.476247 18.1609 4.13891 -0.476247
74 2 19.9063 4.12626 1.37221 19.9063 4.12626 1.37221
75 2 20.2421 4.17418 -1.89297 20.2421 4.17418 -1.89297
76 1 20.9248 5.79429 -0.164162 20.9248 5.79429 -0.164162
77 2 22.8428 5.72058 1.57398 22.8428 5.72058 1.57398
78 2 22.8638 5.92516 -1.7326 22.8638 5.92516 -1.7326
79 1 23.7638 4.15075 -0.147725 23.7638 4.15075 -0.147725
80 2 25.6374 3.97065 1.36423 25.6374 3.97065 1.36423
81 2 25.6231 4.40878 -1.87902 25.6231 4.40878 -1.87902
82 1 26.6291 5.86485 0.0114665 26.6291 5.86485 0.0114665
83 2 28.671 5.83249 1.31239 28.671 5.83249 1.31239
84 2 28.2886 5.95451 -1.82255 28.2886 5.95451 -1.82255
85 1 29.4928 4.21238 -0.436528 29.4928 4.21238 -0.436528
86 2 31.5036 4.28461 1.1114 31.5036 4.28461 1.1114
87 2 31.385 4.22295 -2.13079 31.385 4.22295 -2.13079
88 1 32.3301 5.90335 -0.528526 32.3301 5.90335 -0.528526
89 2 34.4392 5.78374 1.0101 34.4392 5.78374 1.0101
90 2 34.3132 5.90426 -2.26671 34.3132 5.90426 -2.26671
91 1 35.2417 4.24803 -0.750223 35.2417 4.24803 -0.750223
92 2 37.0531 4.51338 0.917538 37.0531 4.51338 0.917538
93 2 37.2332 4.10969 -2.31066 37.2332 4.10969 -2.31066
94 1 38.1716 5.94721 -0.82291 38.1716 5.94721 -0.82291
95 2 39.9839 6.01538 1.03907 39.9839 6.01538 1.03907
96 2 40.1638 5.90316 -2.26396 40.1638 5.90316 -2.26396
97 1 41.0478 4.28637 -0.592354 41.0478 4.28637 -0.592354
98 2 42.9446 4.13141 0.920015 42.9446 4.13141 0.920015
99 2 42.8038 4.33838 -2.34359 42.8038 4.33838 -2.34359
100 1 43.813 5.80842 -0.667912 43.813 5.80842 -0.667912
101 2 45.6658 5.76709 0.985456 45.6658 5.76709 0.985456
102 2 45.8806 5.8684 -2.13075 45.8806 5.8684 -2.13075
103 1 46.7371 4.19486 -0.555302 46.7371 4.19486 -0.555302
104 2 48.5712 4.21812 1.11748 48.5712 4.21812 1.11748
105 2 48.6976 4.37328 -2.09285 48.6976 4.37328 -2.09285
106 1 49.5647 5.93538 -0.378479 49.5647 5.93538 -0.378479
107 2 51.5029 5.84675 1.21376 51.5029 5.84675 1.21376
108 2 51.5468 6.11623 -1.99177 51.5468 6.11623 -1.99177
109 1 0.879881 7.71983 -0.288348 0.879881 7.71983 -0.288348
110 2 2.87259 7.89789 1.27116 2.87259 7.89789 1.27116
111 2 2.7331 7.42546 -1.88168 2.7331 7.42546 -1.88168
112 1 3.76473 9.23641 -0.653853 3.76473 9.23641 -0.653853
113 2 5.59401 9.30641 1.15913 5.59401 9.30641 1.15913
114 2 5.69166 9.11843 -2.1797 5.69166 9.11843 -2.1797
115 1 6.66623 7.56956 -0.369269 6.66623 7.56956 -0.369269
116 2 8.60849 7.59361 1.26943 8.60849 7.59361 1.26943
117 2 8.48603 7.45789 -2.05065 8.48603 7.45789 -2.05065
118 1 9.54217 9.16003 -0.479379 9.54217 9.16003 -0.479379
119 2 11.2991 9.09008 1.31607 11.2991 9.09008 1.31607
120 2 11.4254 9.23422 -1.98915 11.4254 9.23422 -1.98915
121 1 12.4447 7.51369 -0.333698 12.4447 7.51369 -0.333698
122 2 14.3686 7.42639 1.34275 14.3686 7.42639 1.34275
123 2 14.3834 7.48681 -1.99757 14.3834 7.48681 -1.99757
124 1 15.219 9.19075 -0.261652 15.219 9.19075 -0.261652
125 2 17.0002 9.06286 1.52608 17.0002 9.06286 1.52608
126 2 17.3007 9.29742 -1.76582 17.3007 9.29742 -1.76582
127 1 18.0701 7.52995 -0.150831 18.0701 7.52995 -0.150831
128 2 19.9359 7.48688 1.45008 19.9359 7.48688 1.45008
129 2 20.0413 7.50814 -1.76603 20.0413 7.50814 -1.76603
130 1 20.9602 9.05286 -0.0761976 20.9602 9.05286 -0.0761976
131 2 22.7992 9.00299 1.65674 22.7992 9.00299 1.65674
132 2 22.8614 9.0751 -1.70615 22.8614 9.0751 -1.70615
133 1 23.7797 7.43698 -0.0341845 23.7797 7.43698 -0.0341845
134 2 25.7094 7.62033 1.55731 25.7094 7.62033 1.55731
135 2 25.6175 7.41306 -1.72818 25.6175 7.41306 -1.72818
136 1 26.7321 9.19782 -0.168116 26.7321 9.19782 -0.168116
137 2 28.5767 9.03916 1.54883 28.5767 9.03916 1.54883
138 2 28.7445 9.35178 -1.75227 28.7445 9.35178 -1.75227
139 1 29.5094 7.55954 -0.256465 29.5094 7.55954 -0.256465
140 2 31.433 7.36862 1.30755 31.433 7.36862 1.30755
141 2 31.1777 7.70888 -2.01517 31.1777 7.70888 -2.01517
142 1 32.3286 9.13933 -0.265298 32.3286 9.13933 -0.265298
143 2 34.4334 9.13301 1.09565 34.4334 9.13301 1.09565
144 2 33.9582 9.14458 -2.12976 33.9582 9.14458 -2.12976
145 1 35.3087 7.47431 -0.594867 35.3087 7.47431 -0.594867
146 2 37.3726 7.49444 0.886313 37.3726 7.49444 0.886313
147 2 37.0538 7.59302 -2.32727 37.0538 7.59302 -2.32727
148 1 38.1095 9.23117 -0.741635 38.1095 9.23117 -0.741635
149 2 39.9964 9.07128 0.995046 39.9964 9.07128 0.995046
150 2 40.1994 9.30861 -2.2581 40.1994 9.30861 -2.2581
151 1 40.9692 7.58695 -0.686982 40.9692 7.58695 -0.686982
152 2 42.8408 7.50503 0.976234 42.8408 7.50503 0.976234
153 2 42.9692 7.59553 -2.20143 42.9692 7.59553 -2.20143
154 1 43.8676 9.21698 -0.573848 43.8676 9.21698 -0.573848
155 2 45.646 9.19492 1.07598 45.646 9.19492 1.07598
156 2 45.7767 9.15414 -2.2608 45.7767 9.15414 -2.2608
157 1 46.7355 7.49698 -0.498457 46.7355 7.49698 -0.498457
158 2 48.6109 7.75509 1.12338 48.6109 7.75509 1.12338
159 2 48.5613 7.47583 -2.20584 48.5613 7.47583 -2.20584
160 1 49.3906 9.31598 -0.702629 49.3906 9.31598 -0.702629
161 2 51.3131 9.40615 1.16872 51.3131 9.40615 1.16872
162 2 51.5953 9.2855 -2.15471 51.5953 9.2855 -2.15471
163 1 0.910255 10.9763 -0.52004 0.910255 10.9763 -0.52004
164 2 2.81454 10.9181 0.994627 2.81454 10.9181 0.994627
165 2 2.72608 10.8961 -2.25147 2.72608 10.8961 -2.25147
166 1 3.87179 12.4841 -0.648359 3.87179 12.4841 -0.648359
167 2 5.73105 12.3873 1.0183 5.73105 12.3873 1.0183
168 2 5.9731 12.4729 -2.24352 5.9731 12.4729 -2.24352
169 1 6.65722 10.7307 -0.593519 6.65722 10.7307 -0.593519
170 2 8.40786 10.7171 1.24838 8.40786 10.7171 1.24838
171 2 8.6279 10.9721 -2.01741 8.6279 10.9721 -2.01741
172 1 9.51916 12.4514 -0.151872 9.51916 12.4514 -0.151872
173 2 11.2913 12.1783 1.54628 11.2913 12.1783 1.54628
174 2 11.3849 12.6224 -1.72405 11.3849 12.6224 -1.72405
175 1 12.365 10.7797 -0.285798 12.365 10.7797 -0.285798
176 2 14.2453 10.5652 1.46731 14.2453 10.5652 1.46731
177 2 14.3975 11.0661 -1.71312 14.3975 11.0661 -1.71312
178 1 15.2535 12.5183 0.223472 15.2535 12.5183 0.223472
179 2 17.2081 12.3455 1.81545 17.2081 12.3455 1.81545
180 2 17.0512 12.7044 -1.42739 17.0512 12.7044 -1.42739
181 1 18.0966 10.8157 0.0802959 18.0966 10.8157 0.0802959
182 2 20.1184 10.6154 1.70147 20.1184 10.6154 1.70147
183 2 20.0136 11.0391 -1.54808 20.0136 11.0391 -1.54808
184 1 21.0292 12.3907 0.191361 21.0292 12.3907 0.191361
185 2 22.9499 12.1986 1.73351 22.9499 12.1986 1.73351
186 2 22.7923 12.5177 -1.45302 22.7923 12.5177 -1.45302
187 1 23.7834 10.7019 -0.0750433 23.7834 10.7019 -0.0750433
188 2 25.6478 10.6104 1.6869 25.6478 10.6104 1.6869
189 2 25.7966 11.0167 -1.57663 25.7966 11.0167 -1.57663
190 1 26.6726 12.4032 0.331755 26.6726 12.4032 0.331755
191 2 28.8172 12.5518 1.6926 28.8172 12.5518 1.6926
192 2 28.4544 12.2745 -1.48448 28.4544 12.2745 -1.48448
193 1 29.6089 10.8635 0.10585 29.6089 10.8635 0.10585
194 2 31.6712 10.7161 1.50123 31.6712 10.7161 1.50123
195 2 31.2326 10.9137 -1.75028 31.2326 10.9137 -1.75028
196 1 32.3996 12.4389 -0.141688 32.3996 12.4389 -0.141688
197 2 34.529 12.3778 1.15417 34.529 12.3778 1.15417
198 2 34.083 12.4381 -2.03536 34.083 12.4381 -2.03536
199 1 35.1829 10.8234 -0.633914 35.1829 10.8234 -0.633914
200 2 37.1243 10.7411 0.94886 37.1243 10.7411 0.94886
201 2 37.09 11.087 -2.26832 37.09 11.087 -2.26832
202 1 38.1233 12.5301 -0.516988 38.1233 12.5301 -0.516988
203 2 40.1248 12.6275 1.07682 40.1248 12.6275 1.07682
204 2 39.9794 12.4925 -2.20255 39.9794 12.4925 -2.20255
205 1 41.0405 10.8958 -0.453135 41.0405 10.8958 -0.453135
206 2 43.0912 10.9593 1.06081 43.0912 10.9593 1.06081
207 2 42.877 10.929 -2.17174 42.877 10.929 -2.17174
208 1 43.9407 12.5532 -0.682508 43.9407 12.5532 -0.682508
209 2 45.7081 12.4853 1.04344 45.7081 12.4853 1.04344
210 2 45.8372 12.6329 -2.20469 45.8372 12.6329 -2.20469
211 1 46.6921 10.8951 -0.653714 46.6921 10.8951 -0.653714
212 2 48.4037 10.8265 0.9898 48.4037 10.8265 0.9898
213 2 48.5861 11.1245 -2.21684 48.5861 11.1245 -2.21684
214 1 49.5987 12.5763 -0.419837 49.5987 12.5763 -0.419837
215 2 51.4988 12.6322 1.07652 51.4988 12.6322 1.07652
216 2 51.2851 12.4168 -2.20221 51.2851 12.4168 -2.20221
217 1 1.0503 14.1821 -0.654907 1.0503 14.1821 -0.654907
218 2 3.06095 14.1446 0.939063 3.06095 14.1446 0.939063
219 2 2.9199 14.1902 -2.30148 2.9199 14.1902 -2.30148
220 1 3.97706 15.7733 -0.612098 3.97706 15.7733 -0.612098
221 2 5.78297 15.769 1.10122 5.78297 15.769 1.10122
222 2 5.96723 15.6939 -2.14479 5.96723 15.6939 -2.14479
223 1 6.69907 14.0752 -0.475436 6.69907 14.0752 -0.475436
224 2 8.4085 14.1926 1.37792 8.4085 14.1926 1.37792
225 2 8.72652 14.1746 -1.83956 8.72652 14.1746 -1.83956
226 1 9.52954 15.7945 -0.132249 9.52954 15.7945 -0.132249
227 2 11.2027 15.8582 1.75835 11.2027 15.8582 1.75835
228 2 11.7364 15.8838 -1.54297 11.7364 15.8838 -1.54297
229 1 12.3542 14.0887 0.221609 12.3542 14.0887 0.221609
230 2 14.3431 14.189 1.86622 14.3431 14.189 1.86622
231 2 14.2069 14.0512 -1.38041 14.2069 14.0512 -1.38041
232 1 15.1666 15.7003 0.0721752 15.1666 15.7003 0.0721752
233 2 16.9654 15.7339 1.90987 16.9654 15.7339 1.90987
234 2 17.2846 15.7232 -1.40012 17.2846 15.7232 -1.40012
235 1 18.1556 14.1525 0.365658 18.1556 14.1525 0.365658
236 2 20.0696 14.0754 2.03612 20.0696 14.0754 2.03612
237 2 20.0676 14.1909 -1.22565 20.0676 14.1909 -1.22565
238 1 20.9748 15.818 0.492368 20.9748 15.818 0.492368
239 2 22.8537 15.4446 1.98968 22.8537 15.4446 1.98968
240 2 22.8011 15.8512 -1.22363 22.8011 15.8512 -1.22363
241 1 23.8527 14.0283 0.255912 23.8527 14.0283 0.255912
242 2 25.7053 14.0969 1.98188 25.7053 14.0969 1.98188
243 2 25.7286 14.075 -1.34555 25.7286 14.075 -1.34555
244 1 26.6861 15.755 0.336882 26.6861 15.755 0.336882
245 2 28.6895 15.5456 1.6643 28.6895 15.5456 1.6643
246 2 28.4172 15.9979 -1.59021 28.4172 15.9979 -1.59021
247 1 29.5175 14.0901 -0.246693 29.5175 14.0901 -0.246693
248 2 31.3556 14.0514 1.54917 31.3556 14.0514 1.54917
249 2 31.5645 14.1026 -1.74051 31.5645 14.1026 -1.74051
250 1 32.3986 15.8078 -0.00488178 32.3986 15.8078 -0.00488178
251 2 34.4978 15.6222 1.40589 34.4978 15.6222 1.40589
252 2 34.156 16.0631 -1.7909 34.156 16.0631 -1.7909
253 1 35.3102 14.2116 -0.514312 35.3102 14.2116 -0.514312
254 2 37.0002 14.0822 1.24917 37.0002 14.0822 1.24917
255 2 37.256 14.3057 -2.01699 37.256 14.3057 -2.01699
256 1 38.1432 15.7467 -0.222161 38.1432 15.7467 -0.222161
257 2 40.2325 15.4701 1.28678 40.2325 15.4701 1.28678
258 2 39.9569 16.1384 -1.89528 39.9569 16.1384 -1.89528
259 1 41.0188 14.1847 -0.724726 41.0188 14.1847 -0.724726
260 2 42.8624 13.9516 1.09238 42.8624 13.9516 1.09238
261 2 43.0325 14.3744 -2.11371 43.0325 14.3744 -2.11371
262 1 43.9293 15.7908 -0.198812 43.9293 15.7908 -0.198812
263 2 45.9649 15.9164 1.31231 45.9649 15.9164 1.31231
264 2 45.7814 15.8228 -1.99942 45.7814 15.8228 -1.99942
265 1 46.7769 14.1697 -0.447047 46.7769 14.1697 -0.447047
266 2 48.671 14.3107 1.16735 48.671 14.3107 1.16735
267 2 48.6712 14.1868 -2.03412 48.6712 14.1868 -2.03412
268 1 49.6413 15.9108 -0.471575 49.6413 15.9108 -0.471575
269 2 51.7079 15.8066 1.00883 51.7079 15.8066 1.00883
270 2 51.4744 15.8517 -2.26422 51.4744 15.8517 -2.26422
271 1 1.1164 17.4756 -0.662789 1.1164 17.4756 -0.662789
272 2 3.0542 17.4898 1.00287 3.0542 17.4898 1.00287
273 2 3.00772 17.4993 -2.30675 3.00772 17.4993 -2.30675
274 1 3.89112 19.1433 -0.592428 3.89112 19.1433 -0.592428
275 2 5.83804 19.1183 1.02399 5.83804 19.1183 1.02399
276 2 5.81641 19.103 -2.1821 5.81641 19.103 -2.1821
277 1 6.76089 17.4099 -0.595116 6.76089 17.4099 -0.595116
278 2 8.31547 17.4407 1.33319 8.31547 17.4407 1.33319
279 2 8.88948 17.4422 -1.92611 8.88948 17.4422 -1.92611
280 1 9.56087 19.1609 -0.203017 9.56087 19.1609 -0.203017
281 2 11.3034 18.9976 1.66026 11.3034 18.9976 1.66026
282 2 11.6954 18.905 -1.58324 11.6954 18.905 -1.58324
283 1 12.4146 17.4656 0.290702 12.4146 17.4656 0.290702
284 2 14.3106 17.2514 1.92954 14.3106 17.2514 1.92954
285 2 14.2782 17.6361 -1.38986 14.2782 17.6361 -1.38986
286 1 15.2034 19.0769 0.370339 15.2034 19.0769 0.370339
287 2 16.9705 18.9657 2.05774 16.9705 18.9657 2.05774
288 2 17.0986 19.1382 -1.27671 17.0986 19.1382 -1.27671
289 1 18.05 17.4438 0.33248 18.05 17.4438 0.33248
290 2 19.8461 17.4818 1.9584 19.8461 17.4818 1.9584
291 2 20.0461 17.2923 -1.29948 20.0461 17.2923 -1.29948
292 1 20.9646 19.0195 0.393111 20.9646 19.0195 0.393111
293 2 22.6999 18.8076 2.1905 22.6999 18.8076 2.1905
294 2 23.0416 19.0549 -1.08617 23.0416 19.0549 -1.08617
295 1 23.8179 17.3066 0.621355 23.8179 17.3066 0.621355
296 2 25.7864 17.2367 2.16275 25.7864 17.2367 2.16275
297 2 25.5804 17.4306 -1.10771 25.5804 17.4306 -1.10771
298 1 26.6946 19.0979 0.554616 26.6946 19.0979 0.554616
299 2 28.8148 19.0919 1.82638 28.8148 19.0919 1.82638
300 2 28.348 19.0178 -1.37546 28.348 19.0178 -1.37546
301 1 29.5022 17.3744 0.161512 29.5022 17.3744 0.161512
302 2 31.506 17.5189 1.74666 31.506 17.5189 1.74666
303 2 31.3121 17.5519 -1.4727 31.3121 17.5519 -1.4727
304 1 32.3679 19.2394 0.107898 32.3679 19.2394 0.107898
305 2 34.4008 18.932 1.67904 34.4008 18.932 1.67904
306 2 34.4491 19.298 -1.52767 34.4491 19.298 -1.52767
307 1 35.2909 17.5322 -0.11374 35.2909 17.5322 -0.11374
308 2 37.1852 17.479 1.55128 37.1852 17.479 1.55128
309 2 37.1234 17.5977 -1.75473 37.1234 17.5977 -1.75473
310 1 38.1948 19.1078 -0.115961 38.1948 19.1078 -0.115961
311 2 40.1719 18.9451 1.60143 40.1719 18.9451 1.60143
312 2 40.1324 19.1342 -1.64033 40.1324 19.1342 -1.64033
313 1 41.0724 17.4321 0.00368601 41.0724 17.4321 0.00368601
314 2 43.117 17.4915 1.52513 43.117 17.4915 1.52513
315 2 42.7859 17.5058 -1.74385 42.7859 17.5058 -1.74385
316 1 43.9208 19.0737 -0.184228 43.9208 19.0737 -0.184228
317 2 45.9144 19.0553 1.34146 45.9144 19.0553 1.34146
318 2 45.5882 19.3072 -1.95664 45.5882 19.3072 -1.95664
319 1 46.7654 17.4486 -0.445334 46.7654 17.4486 -0.445334
320 2 48.6808 17.4864 1.16065 48.6808 17.4864 1.16065
321 2 48.6455 17.3657 -2.10601 48.6455 17.3657 -2.10601
322 1 49.6482 19.1603 -0.468275 49.6482 19.1603 -0.468275
323 2 51.54 19.1133 1.03742 51.54 19.1133 1.03742
324 2 51.4703 19.2434 -2.21769 51.4703 19.2434 -2.21769
325 1 1.00368 20.8595 -0.573458 1.00368 20.8595 -0.573458
326 2 2.88869 20.7616 0.998108 2.88869 20.7616 0.998108
327 2 2.92736 20.8315 -2.21823 2.92736 20.8315 -2.21823
328 1 3.85796 22.4025 -0.481628 3.85796 22.4025 -0.481628
329 2 5.58024 22.2173 1.17413 5.58024 22.2173 1.17413
330 2 5.85792 22.6496 -2.0311 5.85792 22.6496 -2.0311
331 1 6.69295 20.7872 -0.543475 6.69295 20.7872 -0.543475
332 2 8.40033 20.6651 1.37346 8.40033 20.6651 1.37346
333 2 8.85674 20.8352 -1.79547 8.85674 20.8352 -1.79547
334 1 9.4389 22.3841 -0.0263022 9.4389 22.3841 -0.0263022
335 2 11.2835 22.4235 1.74424 11.2835 22.4235 1.74424
336 2 11.4601 22.4611 -1.63264 11.4601 22.4611 -1.63264
337 1 12.366 20.7057 -0.00328029 12.366 20.7057 -0.00328029
338 2 14.1733 20.8395 1.82358 14.1733 20.8395 1.82358
339 2 14.4622 20.6454 -1.46714 14.4622 20.6454 -1.46714
340 1 15.208 22.3496 0.252998 15.208 22.3496 0.252998
341 2 16.9306 22.2593 2.13857 16.9306 22.2593 2.13857
342 2 17.3625 22.3243 -1.17225 17.3625 22.3243 -1.17225
343 1 18.023 20.6638 0.551397 18.023 20.6638 0.551397
344 2 19.9932 20.5666 2.11961 19.9932 20.5666 2.11961
345 2 19.9375 20.7023 -1.15628 19.9375 20.7023 -1.15628
346 1 20.8807 22.3266 0.491406 20.8807 22.3266 0.491406
347 2 22.7364 22.5302 2.24316 22.7364 22.5302 2.24316
348 2 22.9434 22.2997 -1.00421 22.9434 22.2997 -1.00421
349 1 23.7557 20.6891 0.759612 23.7557 20.6891 0.759612
350 2 25.7389 20.5779 2.28053 25.7389 20.5779 2.28053
351 2 25.6579 20.8237 -0.947818 25.6579 20.8237 -0.947818
352 1 26.6885 22.3444 0.702603 26.6885 22.3444 0.702603
353 2 28.9441 22.1435 1.92907 28.9441 22.1435 1.92907
354 2 28.2837 22.5709 -1.25699 28.2837 22.5709 -1.25699
355 1 29.5808 20.7711 0.0152588 29.5808 20.7711 0.0152588
356 2 31.5209 20.9159 1.76027 31.5209 20.9159 1.76027
357 2 31.5486 20.8792 -1.591 31.5486 20.8792 -1.591
358 1 32.4849 22.5204 0.110603 32.4849 22.5204 0.110603
359 2 34.2796 22.4443 1.92379 34.2796 22.4443 1.92379
360 2 34.519 22.6672 -1.30312 34.519 22.6672 -1.30312
361 1 35.3882 20.7915 0.234388 35.3882 20.7915 0.234388
362 2 37.4057 20.5862 1.73238 37.4057 20.5862 1.73238
363 2 37.1737 20.9481 -1.54412 37.1737 20.9481 -1.54412
364 1 38.2355 22.4168 0.198063 38.2355 22.4168 0.198063
365 2 40.0509 22.1791 1.9237 40.0509 22.1791 1.9237
366 2 40.1931 22.5142 -1.24429 40.1931 22.5142 -1.24429
367 1 41.1141 20.7508 0.174537 41.1141 20.7508 0.174537
368 2 43.075 20.6412 1.63237 43.075 20.6412 1.63237
369 2 42.8606 20.8349 -1.6018 42.8606 20.8349 -1.6018
370 1 43.8979 22.4093 0.176073 43.8979 22.4093 0.176073
371 2 45.9917 22.3654 1.52967 45.9917 22.3654 1.52967
372 2 45.568 22.4915 -1.70011 45.568 22.4915 -1.70011
373 1 46.8082 20.8353 -0.278871 46.8082 20.8353 -0.278871
374 2 48.782 20.7648 1.25025 48.782 20.7648 1.25025
375 2 48.518 20.8215 -2.11201 48.518 20.8215 -2.11201
376 1 49.5961 22.4704 -0.496952 49.5961 22.4704 -0.496952
377 2 51.5508 22.4833 1.087 51.5508 22.4833 1.087
378 2 51.5293 22.58 -2.10848 51.5293 22.58 -2.10848
379 1 0.986201 24.2458 -0.439423 0.986201 24.2458 -0.439423
380 2 2.82556 24.1797 1.21091 2.82556 24.1797 1.21091
381 2 3.01721 24.2219 -1.93868 3.01721 24.2219 -1.93868
382 1 3.88046 25.8529 -0.246991 3.88046 25.8529 -0.246991
383 2 5.59547 25.673 1.50987 5.59547 25.673 1.50987
384 2 5.9388 25.8639 -1.7666 5.9388 25.8639 -1.7666
385 1 6.61594 24.0563 -0.125063 6.61594 24.0563 -0.125063
386 2 8.53591 23.9964 1.58841 8.53591 23.9964 1.58841
387 2 8.62343 24.1194 -1.63484 8.62343 24.1194 -1.63484
388 1 9.53848 25.6826 0.0442807 9.53848 25.6826 0.0442807
389 2 11.2643 25.6997 1.80163 11.2643 25.6997 1.80163
390 2 11.5556 25.8138 -1.48966 11.5556 25.8138 -1.48966
391 1 12.355 23.9992 0.155819 12.355 23.9992 0.155819
392 2 14.045 23.8396 2.00234 14.045 23.8396 2.00234
393 2 14.4318 24.3265 -1.21834 14.4318 24.3265 -1.21834
394 1 15.2578 25.6906 0.606173 15.2578 25.6906 0.606173
395 2 17.1514 25.7812 2.28532 17.1514 25.7812 2.28532
396 2 17.1743 25.7636 -1.01898 17.1743 25.7636 -1.01898
397 1 18.0598 24.0155 0.64786 18.0598 24.0155 0.64786
398 2 20.09 23.9486 2.22399 20.09 23.9486 2.22399
399 2 19.8841 24.0919 -0.997136 19.8841 24.0919 -0.997136
400 1 20.9545 25.6171 0.63907 20.9545 25.6171 0.63907
401 2 22.9042 25.6421 2.30761 22.9042 25.6421 2.30761
402 2 22.9202 25.7059 -1.00086 22.9202 25.7059 -1.00086
403 1 23.7964 24.0309 0.611772 23.7964 24.0309 0.611772
404 2 25.6808 23.9933 2.34864 25.6808 23.9933 2.34864
405 2 25.7118 24.0917 -0.946514 25.7118 24.0917 -0.946514
406 1 26.7101 25.6454 0.766714 26.7101 25.6454 0.766714
407 2 28.7128 25.5563 2.16063 28.7128 25.5563 2.16063
408 2 28.4252 25.6126 -0.993247 28.4252 25.6126 -0.993247
409 1 29.6284 23.9825 0.372606 29.6284 23.9825 0.372606
410 2 31.5514 23.9438 1.99972 31.5514 23.9438 1.99972
411 2 31.5711 24.2264 -1.23948 31.5711 24.2264 -1.23948
412 1 32.445 25.7626 0.605573 32.445 25.7626 0.605573
413 2 34.5006 25.8934 2.11903 34.5006 25.8934 2.11903
414 2 34.2718 25.609 -1.13074 34.2718 25.609 -1.13074
415 1 35.3579 24.1466 0.563349 35.3579 24.1466 0.563349
416 2 37.4438 23.8979 1.9722 37.4438 23.8979 1.9722
417 2 37.1771 24.2618 -1.24441 37.1771 24.2618 -1.24441
418 1 38.2182 25.7545 0.445093 38.2182 25.7545 0.445093
419 2 40.0554 25.9013 2.13288 40.0554 25.9013 2.13288
420 2 40.0665 25.5968 -1.17145 40.0665 25.5968 -1.17145
421 1 41.0273 24.1322 0.555475 41.0273 24.1322 0.555475
422 2 43.169 24.0756 1.90263 43.169 24.0756 1.90263
423 2 42.7401 24.131 -1.28196 42.7401 24.131 -1.28196
424 1 43.9231 25.8104 0.249376 43.9231 25.8104 0.249376
425 2 46.0356 25.7149 1.66847 46.0356 25.7149 1.66847
426 2 45.593 25.8894 -1.62519 45.593 25.8894 -1.62519
427 1 46.7073 24.1286 -0.157981 46.7073 24.1286 -0.157981
428 2 48.7965 24.1599 1.22022 48.7965 24.1599 1.22022
429 2 48.2823 24.0482 -1.99925 48.2823 24.0482 -1.99925
430 1 49.5291 25.759 -0.47461 49.5291 25.759 -0.47461
431 2 51.3508 25.6859 1.28337 51.3508 25.6859 1.28337
432 2 51.4944 25.9195 -1.94324 51.4944 25.9195 -1.94324
433 1 0.985495 27.5457 -0.240299 0.985495 27.5457 -0.240299
434 2 2.77566 27.4025 1.43651 2.77566 27.4025 1.43651
435 2 2.95837 27.6375 -1.78772 2.95837 27.6375 -1.78772
436 1 3.85635 29.1252 0.00503639 3.85635 29.1252 0.00503639
437 2 5.66689 28.9064 1.72598 5.66689 28.9064 1.72598
438 2 5.81768 29.2461 -1.4704 5.81768 29.2461 -1.4704
439 1 6.73804 27.4107 0.0614898 6.73804 27.4107 0.0614898
440 2 8.52051 27.2159 1.71957 8.52051 27.2159 1.71957
441 2 8.71004 27.4879 -1.42592 8.71004 27.4879 -1.42592
442 1 9.52407 29.0098 0.288736 9.52407 29.0098 0.288736
443 2 11.3255 28.8596 1.94076 11.3255 28.8596 1.94076
444 2 11.4266 29.0384 -1.30912 11.4266 29.0384 -1.30912
445 1 12.3858 27.367 0.275634 12.3858 27.367 0.275634
446 2 14.0983 27.3745 2.00425 14.0983 27.3745 2.00425
447 2 14.51 27.365 -1.19656 14.51 27.365 -1.19656
448 1 15.2304 28.9739 0.496431 15.2304 28.9739 0.496431
449 2 17.3429 29.1925 2.04759 17.3429 29.1925 2.04759
450 2 17.1783 28.82 -1.20736 17.1783 28.82 -1.20736
451 1 18.1248 27.334 0.602441 18.1248 27.334 0.602441
452 2 19.9876 27.3624 2.16694 19.9876 27.3624 2.16694
453 2 20.056 27.342 -0.991476 20.056 27.342 -0.991476
454 1 21.0215 28.9467 0.618288 21.0215 28.9467 0.618288
455 2 22.9144 29.0723 2.18747 22.9144 29.0723 2.18747
456 2 22.9268 28.7672 -1.05405 22.9268 28.7672 -1.05405
457 1 23.911 27.249 0.737457 23.911 27.249 0.737457
458 2 25.7846 27.3538 2.34125 25.7846 27.3538 2.34125
459 2 25.7827 27.2864 -0.885696 25.7827 27.2864 -0.885696
460 1 26.7342 29.0142 0.657815 26.7342 29.0142 0.657815
461 2 28.7047 29.1492 2.13126 28.7047 29.1492 2.13126
462 2 28.5619 29.0752 -1.10123 28.5619 29.0752 -1.10123
463 1 29.5817 27.4548 0.571471 29.5817 27.4548 0.571471
464 2 31.5372 27.6317 2.09533 31.5372 27.6317 2.09533
465 2 31.3865 27.2698 -1.1835 31.3865 27.2698 -1.1835
466 1 32.5028 29.0549 0.302144 32.5028 29.0549 0.302144
467 2 34.4197 29.0516 1.97044 34.4197 29.0516 1.97044
468 2 34.3886 29.058 -1.37704 34.3886 29.058 -1.37704
469 1 35.2852 27.41 0.27249 35.2852 27.41 0.27249
470 2 37.0686 27.5175 1.9273 37.0686 27.5175 1.9273
471 2 37.2724 27.3013 -1.31868 37.2724 27.3013 -1.31868
472 1 38.2476 29.039 0.13336 38.2476 29.039 0.13336
473 2 40.2533 29.3562 1.68274 40.2533 29.3562 1.68274
474 2 40.096 28.9099 -1.53611 40.096 28.9099 -1.53611
475 1 41.0864 27.521 0.289176 41.0864 27.521 0.289176
476 2 43.0875 27.505 1.8025 43.0875 27.505 1.8025
477 2 42.8385 27.4162 -1.42493 42.8385 27.4162 -1.42493
478 1 43.8734 29.1529 0.0633908 43.8734 29.1529 0.0633908
479 2 45.8221 29.1307 1.63519 45.8221 29.1307 1.63519
480 2 45.7423 29.0135 -1.64776 45.7423 29.0135 -1.64776
481 1 46.7345 27.4757 -0.0975712 46.7345 27.4757 -0.0975712
482 2 48.8556 27.5143 1.2361 48.8556 27.5143 1.2361
483 2 48.5292 27.4759 -1.92024 48.5292 27.4759 -1.92024
484 1 49.5914 29.1489 -0.443823 49.5914 29.1489 -0.443823
485 2 51.4484 29.2081 1.32969 51.4484 29.2081 1.32969
486 2 51.5953 29.173 -1.92929 51.5953 29.173 -1.92929
487 1 1.12528 30.7296 -0.229067 1.12528 30.7296 -0.229067
488 2 2.87317 30.763 1.58465 2.87317 30.763 1.58465
489 2 3.26275 30.8955 -1.61422 3.26275 30.8955 -1.61422
490 1 3.97682 32.4754 0.154648 3.97682 32.4754 0.154648
491 2 5.66957 32.5069 1.84089 5.66957 32.5069 1.84089
492 2 5.92166 32.3376 -1.40158 5.92166 32.3376 -1.40158
493 1 6.70758 30.745 0.274369 6.70758 30.745 0.274369
494 2 8.6686 30.7459 1.8894 8.6686 30.7459 1.8894
495 2 8.48944 30.5616 -1.4505 8.48944 30.5616 -1.4505
496 1 9.5666 32.2994 0.068907 9.5666 32.2994 0.068907
497 2 11.3432 32.5374 1.77742 11.3432 32.5374 1.77742
498 2 11.5927 32.0451 -1.54714 11.5927 32.0451 -1.54714
499 1 12.3195 30.6104 0.427997 12.3195 30.6104 0.427997
500 2 14.3618 30.8743 1.97742 14.3618 30.8743 1.97742
501 2 14.147 30.4014 -1.34058 14.147 30.4014 -1.34058
502 1 15.2541 32.2679 0.0440406 15.2541 32.2679 0.0440406
503 2 17.0678 32.4063 1.74571 17.0678 32.4063 1.74571
504 2 17.2674 32.1865 -1.53663 17.2674 32.1865 -1.53663
505 1 18.0995 30.6034 0.134277 18.0995 30.6034 0.134277
506 2 19.8164 30.7078 1.95216 19.8164 30.7078 1.95216
507 2 20.1072 30.4077 -1.21911 20.1072 30.4077 -1.21911
508 1 20.9624 32.2417 0.354177 20.9624 32.2417 0.354177
509 2 22.9631 32.5065 1.86722 22.9631 32.5065 1.86722
510 2 22.7042 32.0061 -1.40873 22.7042 32.0061 -1.40873
511 1 23.8649 30.5902 0.449512 23.8649 30.5902 0.449512
512 2 25.7282 30.9548 2.08214 25.7282 30.9548 2.08214
513 2 25.8033 30.5372 -1.15081 25.8033 30.5372 -1.15081
514 1 26.6855 32.3616 0.251673 26.6855 32.3616 0.251673
515 2 28.6093 32.5131 1.89749 28.6093 32.5131 1.89749
516 2 28.6239 32.2643 -1.35714 28.6239 32.2643 -1.35714
517 1 29.5742 30.7778 0.380652 29.5742 30.7778 0.380652
518 2 31.6448 30.7073 1.94339 31.6448 30.7073 1.94339
519 2 31.4645 30.774 -1.27034 31.4645 30.774 -1.27034
520 1 32.4786 32.3742 0.309133 32.4786 32.3742 0.309133
521 2 34.5078 32.6117 1.79942 34.5078 32.6117 1.79942
522 2 34.2238 32.2546 -1.51948 34.2238 32.2546 -1.51948
523 1 35.3321 30.625 0.214861 35.3321 30.625 0.214861
524 2 37.3888 30.704 1.72035 37.3888 30.704 1.72035
525 2 37.1691 30.5862 -1.48304 37.1691 30.5862 -1.48304
526 1 38.1734 32.3296 -0.0580295 38.1734 32.3296 -0.0580295
527 2 40.2566 32.5548 1.44854 40.2566 32.5548 1.44854
528 2 39.8518 32.1629 -1.80565 39.8518 32.1629 -1.80565
529 1 41.0391 30.8006 -0.16738 41.0391 30.8006 -0.16738
530 2 42.8774 30.9156 1.59002 42.8774 30.9156 1.59002
531 2 42.9167 30.6808 -1.71152 42.9167 30.6808 -1.71152
532 1 43.929 32.3721 -0.175584 43.929 32.3721 -0.175584
533 2 45.8426 32.5146 1.39181 45.8426 32.5146 1.39181
534 2 45.7836 32.2506 -1.80176 45.7836 32.2506 -1.80176
535 1 46.7686 30.6738 -0.185055 46.7686 30.6738 -0.185055
536 2 48.703 30.589 1.37299 48.703 30.589 1.37299
537 2 48.5269 30.8936 -1.86454 48.5269 30.8936 -1.86454
538 1 49.6473 32.4329 -0.100516 49.6473 32.4329 -0.100516
539 2 51.4269 32.2738 1.52369 51.4269 32.2738 1.52369