ITEM: TIMESTEP
34600
ITEM: NUMBER OF ATOMS
810
ITEM: BOX BOUNDS pp pp pp
7.8426369978270205e-01 5.2233341300218235e+01
7.5210839172361310e-01 5.0264106608275718e+01
-1.0000000000000000e+01 1.0000000000000000e+01
ITEM: ATOMS id type x y z xu yu zu
1 1 1.07699 0.919613 0.641309 1.07699 0.919613 0.641309
2 2 3.14143 1.01931 2.0435 3.14143 1.01931 2.0435
3 2 2.7213 0.891096 -1.25673 2.7213 0.891096 -1.25673
4 1 3.90648 2.60585 0.237213 3.90648 2.60585 0.237213
5 2 5.66852 2.67547 1.92138 5.66852 2.67547 1.92138
6 2 5.84696 2.63258 -1.29423 5.84696 2.63258 -1.29423
7 1 6.75967 0.956182 0.415314 6.75967 0.956182 0.415314
8 2 8.80873 0.976926 1.9199 8.80873 0.976926 1.9199
9 2 8.51211 0.815569 -1.33516 8.51211 0.815569 -1.33516
10 1 9.60849 2.68447 0.102578 9.60849 2.68447 0.102578
11 2 11.4536 2.65671 1.72969 11.4536 2.65671 1.72969
12 2 11.5539 2.44794 -1.51148 11.5539 2.44794 -1.51148
13 1 12.4602 1.01006 0.18366 12.4602 1.01006 0.18366
14 2 14.3861 1.04007 1.67757 14.3861 1.04007 1.67757
15 2 14.247 0.969272 -1.52951 14.247 0.969272 -1.52951
16 1 15.2719 2.65666 0.00246668 15.2719 2.65666 0.00246668
17 2 17.1916 2.7763 1.53352 17.1916 2.7763 1.53352
18 2 17.1426 2.64234 -1.71857 17.1426 2.64234 -1.71857
19 1 18.0981 1.01397 -0.140583 18.0981 1.01397 -0.140583
20 2 20.076 1.0581 1.49282 20.076 1.0581 1.49282
21 2 19.964 0.96776 -1.75517 19.964 0.96776 -1.75517
22 1 20.9696 2.66722 -0.266967 20.9696 2.66722 -0.266967
23 2 22.8082 2.70794 1.44707 22.8082 2.70794 1.44707
24 2 23.0396 2.41467 -1.76082 23.0396 2.41467 -1.76082
25 1 23.8258 0.838922 0.0283388 23.8258 0.838922 0.0283388
26 2 25.6084 0.808008 1.72837 25.6084 0.808008 1.72837
27 2 25.8058 1.05567 -1.45423 25.8058 1.05567 -1.45423
28 1 26.5748 2.68721 0.343182 26.5748 2.68721 0.343182
29 2 28.6607 2.62373 1.78522 28.6607 2.62373 1.78522
30 2 28.3973 2.6457 -1.41513 28.3973 2.6457 -1.41513
31 1 29.4431 0.984816 -0.0347494 29.4431 0.984816 -0.0347494
32 2 31.3683 0.998513 1.60214 31.3683 0.998513 1.60214
33 2 31.4343 1.09087 -1.66472 31.4343 1.09087 -1.66472
34 1 32.4501 2.72367 0.0122172 32.4501 2.72367 0.0122172
35 2 34.4173 2.57962 1.54449 34.4173 2.57962 1.54449
36 2 34.1437 2.91596 -1.78146 34.1437 2.91596 -1.78146
37 1 35.2985 1.01115 -0.283337 35.2985 1.01115 -0.283337
38 2 37.0771 1.04131 1.47422 37.0771 1.04131 1.47422
39 2 37.3344 0.873349 -1.86654 37.3344 0.873349 -1.86654
40 1 38.1242 2.62703 -0.153825 38.1242 2.62703 -0.153825
41 2 40.0584 2.71242 1.57527 40.0584 2.71242 1.57527
42 2 40.171 2.49517 -1.63524 40.171 2.49517 -1.63524
43 1 41.0979 0.941487 0.181758 41.0979 0.941487 0.181758
44 2 43.0794 1.18833 1.67263 43.0794 1.18833 1.67263
45 2 42.9775 0.90671 -1.53538 42.9775 0.90671 -1.53538
46 1 43.9413 2.5694 -0.0782614 43.9413 2.5694 -0.0782614
47 2 45.8043 2.56636 1.70601 45.8043 2.56636 1.70601
48 2 46.0299 2.61658 -1.59103 46.0299 2.61658 -1.59103
49 1 46.8456 0.887579 0.0834584 46.8456 0.887579 0.0834584
50 2 48.5645 0.877238 1.98875 48.5645 0.877238 1.98875
51 2 49.0046 0.888042 -1.32895 49.0046 0.888042 -1.32895
52 1 49.6904 2.58904 0.464826 49.6904 2.58904 0.464826
53 2 51.5299 2.76372 2.13769 51.5299 2.76372 2.13769
54 2 51.6899 2.42648 -1.14895 51.6899 2.42648 -1.14895
55 1 1.00578 4.33875 0.336185 1.00578 4.33875 0.336185
56 2 2.89748 4.29785 1.95901 2.89748 4.29785 1.95901
57 2 2.82018 4.26606 -1.32858 2.82018 4.26606 -1.32858
58 1 3.86556 5.99297 0.256212 3.86556 5.99297 0.256212
59 2 5.90978 5.93228 1.88894 5.90978 5.93228 1.88894
60 2 5.79333 5.97265 -1.35305 5.79333 5.97265 -1.35305
61 1 6.81742 4.29591 0.330141 6.81742 4.29591 0.330141
62 2 8.78071 4.40116 1.74453 8.78071 4.40116 1.74453
63 2 8.49907 4.18697 -1.5244 8.49907 4.18697 -1.5244
64 1 9.56751 5.91887 -0.180768 9.56751 5.91887 -0.180768
65 2 11.4489 6.01715 1.44157 11.4489 6.01715 1.44157
66 2 11.5064 5.77029 -1.75611 11.5064 5.77029 -1.75611
67 1 12.3897 4.28924 0.00133145 12.3897 4.28924 0.00133145
68 2 14.3494 4.42945 1.54208 14.3494 4.42945 1.54208
69 2 14.2871 4.13042 -1.772 14.2871 4.13042 -1.772
70 1 15.3115 5.89718 -0.254431 15.3115 5.89718 -0.254431
71 2 16.997 5.85962 1.49391 16.997 5.85962 1.49391
72 2 17.2136 6.0801 -1.83572 17.2136 6.0801 -1.83572
73 1 18.1229 4.34352 -0.225847 18.1229 4.34352 -0.225847
74 2 20.0696 4.36014 1.41153 20.0696 4.36014 1.41153
75 2 20.0435 4.36648 -1.88723 20.0435 4.36648 -1.88723
76 1 21.0254 5.89552 -0.225637 21.0254 5.89552 -0.225637
77 2 22.7901 5.86587 1.49004 22.7901 5.86587 1.49004
78 2 23.0544 6.13808 -1.7085 23.0544 6.13808 -1.7085
79 1 23.8436 4.29971 -0.205949 23.8436 4.29971 -0.205949
80 2 25.5063 4.54379 1.73879 25.5063 4.54379 1.73879
81 2 25.8748 4.23078 -1.57259 25.8748 4.23078 -1.57259
82 1 26.7446 6.0391 0.135338 26.7446 6.0391 0.135338
83 2 28.6337 5.98 1.81539 28.6337 5.98 1.81539
84 2 28.6475 5.91011 -1.45182 28.6475 5.91011 -1.45182
85 1 29.562 4.30502 0.245337 29.562 4.30502 0.245337
86 2 31.5482 4.14017 1.80817 31.5482 4.14017 1.80817
87 2 31.367 4.47105 -1.44956 31.367 4.47105 -1.44956
88 1 32.4093 5.93746 0.249216 32.4093 5.93746 0.249216
89 2 34.3571 6.06016 1.69009 34.3571 6.06016 1.69009
90 2 34.0774 5.96062 -1.55711 34.0774 5.96062 -1.55711
91 1 35.3235 4.32279 -0.00179474 35.3235 4.32279 -0.00179474
92 2 37.2532 4.23636 1.52654 37.2532 4.23636 1.52654
93 2 37.2328 4.32253 -1.64108 37.2328 4.32253 -1.64108
94 1 38.2074 5.93429 -0.0469443 38.2074 5.93429 -0.0469443
95 2 40.229 5.797 1.68267 40.229 5.797 1.68267
96 2 40.0487 5.99421 -1.7385 40.0487 5.99421 -1.7385
97 1 41.0691 4.25192 -0.107292 41.0691 4.25192 -0.107292
98 2 42.9801 4.23458 1.49938 42.9801 4.23458 1.49938
99 2 42.9474 4.09887 -1.67194 42.9474 4.09887 -1.67194
100 1 43.8794 5.78124 -0.0943658 43.8794 5.78124 -0.0943658
101 2 45.7139 5.79174 1.62722 45.7139 5.79174 1.62722
102 2 45.9729 5.85555 -1.61304 45.9729 5.85555 -1.61304
103 1 46.7945 4.17968 0.180972 46.7945 4.17968 0.180972
104 2 48.4842 4.29254 2.01174 48.4842 4.29254 2.01174
105 2 48.828 4.19461 -1.18978 48.828 4.19461 -1.18978
106 1 49.5959 5.93602 0.398507 49.5959 5.93602 0.398507
107 2 51.5093 6.20921 1.86693 51.5093 6.20921 1.86693
108 2 51.3549 5.91143 -1.38823 51.3549 5.91143 -1.38823
109 1 1.08405 7.64222 0.0961711 1.08405 7.64222 0.0961711
110 2 2.9231 7.62001 1.84518 2.9231 7.62001 1.84518
111 2 3.13812 7.56693 -1.39921 3.13812 7.56693 -1.39921
112 1 3.96986 9.31559 0.252724 3.96986 9.31559 0.252724
113 2 5.95657 9.23391 1.83213 5.95657 9.23391 1.83213
114 2 5.75155 9.06397 -1.46276 5.75155 9.06397 -1.46276
115 1 6.75844 7.60349 0.269168 6.75844 7.60349 0.269168
116 2 8.97789 7.5718 1.52985 8.97789 7.5718 1.52985
117 2 8.41425 7.53628 -1.65766 8.41425 7.53628 -1.65766
118 1 9.61245 9.28139 -0.231692 9.61245 9.28139 -0.231692
119 2 11.5166 9.22928 1.34321 11.5166 9.22928 1.34321
120 2 11.4463 9.17136 -1.85006 11.4463 9.17136 -1.85006
121 1 12.4185 7.52964 -0.293352 12.4185 7.52964 -0.293352
122 2 14.2033 7.49237 1.43456 14.2033 7.49237 1.43456
123 2 14.3779 7.57635 -1.8747 14.3779 7.57635 -1.8747
124 1 15.2754 9.16096 -0.207623 15.2754 9.16096 -0.207623
125 2 17.1574 9.29355 1.42463 17.1574 9.29355 1.42463
126 2 17.2674 9.12903 -1.82816 17.2674 9.12903 -1.82816
127 1 18.1599 7.49753 -0.152597 18.1599 7.49753 -0.152597
128 2 20.1017 7.50359 1.52163 20.1017 7.50359 1.52163
129 2 20.0026 7.61371 -1.78443 20.0026 7.61371 -1.78443
130 1 21.0051 9.17871 -0.0997437 21.0051 9.17871 -0.0997437
131 2 22.9552 9.26341 1.66329 22.9552 9.26341 1.66329
132 2 22.9917 9.19814 -1.59536 22.9917 9.19814 -1.59536
133 1 23.8753 7.63804 0.0987941 23.8753 7.63804 0.0987941
134 2 25.7422 7.68482 1.76466 25.7422 7.68482 1.76466
135 2 25.7539 7.63 -1.47743 25.7539 7.63 -1.47743
136 1 26.6525 9.24934 0.0915147 26.6525 9.24934 0.0915147
137 2 28.5478 9.26649 1.76874 28.5478 9.26649 1.76874
138 2 28.5894 9.33177 -1.46317 28.5894 9.33177 -1.46317
139 1 29.6222 7.65218 0.0983078 29.6222 7.65218 0.0983078
140 2 31.4242 7.65742 1.84219 31.4242 7.65742 1.84219
141 2 31.56 7.48287 -1.42545 31.56 7.48287 -1.42545
142 1 32.4746 9.26929 0.0862966 32.4746 9.26929 0.0862966
143 2 34.4021 9.14838 1.70138 34.4021 9.14838 1.70138
144 2 34.3662 9.50681 -1.51385 34.3662 9.50681 -1.51385
145 1 35.29 7.58303 -0.0860913 35.29 7.58303 -0.0860913
146 2 37.1463 7.54818 1.58882 37.1463 7.54818 1.58882
147 2 37.1594 7.62176 -1.77582 37.1594 7.62176 -1.77582
148 1 38.142 9.21747 -0.010612 38.142 9.21747 -0.010612
149 2 40.052 9.19829 1.59002 40.052 9.19829 1.59002
150 2 40.0506 9.21488 -1.65416 40.0506 9.21488 -1.65416
151 1 41.04 7.49238 -0.0185498 41.04 7.49238 -0.0185498
152 2 42.9228 7.50736 1.57849 42.9228 7.50736 1.57849
153 2 42.9166 7.43293 -1.72975 42.9166 7.43293 -1.72975
154 1 43.9053 9.15452 -0.119134 43.9053 9.15452 -0.119134
155 2 45.7083 9.02775 1.55714 45.7083 9.02775 1.55714
156 2 45.9626 9.23929 -1.57238 45.9626 9.23929 -1.57238
157 1 46.7813 7.48013 0.00806955 46.7813 7.48013 0.00806955
158 2 48.5873 7.72507 1.83026 48.5873 7.72507 1.83026
159 2 48.7992 7.40708 -1.44188 48.7992 7.40708 -1.44188
160 1 49.6878 9.24932 0.151659 49.6878 9.24932 0.151659
161 2 51.561 9.30119 1.77967 51.561 9.30119 1.77967
162 2 51.4411 9.23486 -1.49911 51.4411 9.23486 -1.49911
163 1 0.918551 10.9852 0.1483 0.918551 10.9852 0.1483
164 2 2.94932 11.1341 1.77618 2.94932 11.1341 1.77618
165 2 2.76929 10.733 -1.53887 2.76929 10.733 -1.53887
166 1 3.86821 12.5385 -0.16148 3.86821 12.5385 -0.16148
167 2 5.86355 12.7353 1.40365 5.86355 12.7353 1.40365
168 2 5.71489 12.3476 -1.82707 5.71489 12.3476 -1.82707
169 1 6.75244 10.8819 0.045657 6.75244 10.8819 0.045657
170 2 8.7041 10.8816 1.51156 8.7041 10.8816 1.51156
171 2 8.47628 10.9539 -1.74548 8.47628 10.9539 -1.74548
172 1 9.58351 12.5262 -0.194313 9.58351 12.5262 -0.194313
173 2 11.6527 12.6675 1.20565 11.6527 12.6675 1.20565
174 2 11.3871 12.3308 -2.02255 11.3871 12.3308 -2.02255
175 1 12.3954 10.9165 -0.264853 12.3954 10.9165 -0.264853
176 2 14.383 10.8967 1.29802 14.383 10.8967 1.29802
177 2 14.2297 10.7605 -1.9566 14.2297 10.7605 -1.9566
178 1 15.2253 12.4884 -0.408758 15.2253 12.4884 -0.408758
179 2 17.1138 12.6777 1.25882 17.1138 12.6777 1.25882
180 2 17.2728 12.4837 -1.94794 17.2728 12.4837 -1.94794
181 1 18.0948 10.8592 -0.219827 18.0948 10.8592 -0.219827
182 2 19.8449 10.8009 1.49379 19.8449 10.8009 1.49379
183 2 20.0462 10.7944 -1.7135 20.0462 10.7944 -1.7135
184 1 20.964 12.5525 -0.177885 20.964 12.5525 -0.177885
185 2 22.8178 12.566 1.49191 22.8178 12.566 1.49191
186 2 22.7718 12.4563 -1.74145 22.7718 12.4563 -1.74145
187 1 23.7841 10.9293 -0.0186511 23.7841 10.9293 -0.0186511
188 2 25.6475 10.8596 1.66705 25.6475 10.8596 1.66705
189 2 25.7823 10.9481 -1.55316 25.7823 10.9481 -1.55316
190 1 26.7582 12.5706 0.109142 26.7582 12.5706 0.109142
191 2 28.5947 12.4342 1.80934 28.5947 12.4342 1.80934
192 2 28.8068 12.6989 -1.37252 28.8068 12.6989 -1.37252
193 1 29.6437 10.9404 0.261144 29.6437 10.9404 0.261144
194 2 31.6659 10.7827 1.84625 31.6659 10.7827 1.84625
195 2 31.4775 10.9718 -1.40832 31.4775 10.9718 -1.40832
196 1 32.419 12.5872 0.35752 32.419 12.5872 0.35752
197 2 34.3749 12.6828 1.87449 34.3749 12.6828 1.87449
198 2 34.161 12.5669 -1.43452 34.161 12.5669 -1.43452
199 1 35.2935 11.0041 0.184371 35.2935 11.0041 0.184371
200 2 37.1513 10.9179 1.79177 37.1513 10.9179 1.79177
201 2 37.0574 10.8423 -1.53097 37.0574 10.8423 -1.53097
202 1 38.1563 12.5503 0.0367552 38.1563 12.5503 0.0367552
203 2 40.1096 12.3958 1.52857 40.1096 12.3958 1.52857
204 2 39.9968 12.5705 -1.64694 39.9968 12.5705 -1.64694
205 1 41.0411 10.8821 -0.116674 41.0411 10.8821 -0.116674
206 2 42.8816 10.7774 1.44147 42.8816 10.7774 1.44147
207 2 43.0167 10.7997 -1.75035 43.0167 10.7997 -1.75035
208 1 43.8689 12.5285 -0.151986 43.8689 12.5285 -0.151986
209 2 45.7602 12.7938 1.50346 45.7602 12.7938 1.50346
210 2 45.6692 12.3465 -1.78513 45.6692 12.3465 -1.78513
211 1 46.7036 10.8686 0.0751323 46.7036 10.8686 0.0751323
212 2 48.673 10.9275 1.69528 48.673 10.9275 1.69528
213 2 48.7017 10.7609 -1.50363 48.7017 10.7609 -1.50363
214 1 49.4846 12.5452 0.0123862 49.4846 12.5452 0.0123862
215 2 51.4233 12.6621 1.66882 51.4233 12.6621 1.66882
216 2 51.3375 12.4554 -1.56176 51.3375 12.4554 -1.56176
217 1 1.01473 14.1798 0.0609618 1.01473 14.1798 0.0609618
218 2 3.0811 14.3045 1.4571 3.0811 14.3045 1.4571
219 2 2.74001 14.1148 -1.70339 2.74001 14.1148 -1.70339
220 1 3.78869 15.851 -0.279361 3.78869 15.851 -0.279361
221 2 5.8958 15.7428 1.21634 5.8958 15.7428 1.21634
222 2 5.55202 15.6442 -1.98198 5.55202 15.6442 -1.98198
223 1 6.6297 14.0795 -0.409231 6.6297 14.0795 -0.409231
224 2 8.50546 14.2024 1.30631 8.50546 14.2024 1.30631
225 2 8.67276 14.0694 -1.96329 8.67276 14.0694 -1.96329
226 1 9.52703 15.7745 -0.31748 9.52703 15.7745 -0.31748
227 2 11.5939 15.8423 1.1055 11.5939 15.8423 1.1055
228 2 11.1905 15.8986 -2.15077 11.1905 15.8986 -2.15077
229 1 12.4585 14.2141 -0.624857 12.4585 14.2141 -0.624857
230 2 14.3359 14.2676 1.04258 14.3359 14.2676 1.04258
231 2 14.4154 13.985 -2.23122 14.4154 13.985 -2.23122
232 1 15.3569 15.8459 -0.774106 15.3569 15.8459 -0.774106
233 2 17.0216 15.9358 1.02712 17.0216 15.9358 1.02712
234 2 17.5232 15.9132 -2.15492 17.5232 15.9132 -2.15492
235 1 18.1716 14.2388 -0.391781 18.1716 14.2388 -0.391781
236 2 19.7908 14.2366 1.33974 19.7908 14.2366 1.33974
237 2 20.1072 14.3091 -1.87137 20.1072 14.3091 -1.87137
238 1 21.011 15.8465 -0.0837888 21.011 15.8465 -0.0837888
239 2 22.9903 15.7468 1.41996 22.9903 15.7468 1.41996
240 2 22.8238 15.7884 -1.81905 22.8238 15.7884 -1.81905
241 1 23.8666 14.1194 -0.26167 23.8666 14.1194 -0.26167
242 2 25.6378 14.2115 1.59183 25.6378 14.2115 1.59183
243 2 26.0207 14.106 -1.61607 26.0207 14.106 -1.61607
244 1 26.716 15.8003 0.063703 26.716 15.8003 0.063703
245 2 28.5897 15.9741 1.74994 28.5897 15.9741 1.74994
246 2 28.7074 15.7611 -1.48125 28.7074 15.7611 -1.48125
247 1 29.5522 14.2218 0.311695 29.5522 14.2218 0.311695
248 2 31.4482 14.2125 2.00897 31.4482 14.2125 2.00897
249 2 31.5599 14.1695 -1.29913 31.5599 14.1695 -1.29913
250 1 32.4935 15.8773 0.358099 32.4935 15.8773 0.358099
251 2 34.5152 15.908 1.93057 34.5152 15.908 1.93057
252 2 34.135 16.0406 -1.314 34.135 16.0406 -1.314
253 1 35.2945 14.2247 0.0930728 35.2945 14.2247 0.0930728
254 2 37.3178 14.2279 1.6367 37.3178 14.2279 1.6367
255 2 37.3 14.2337 -1.60352 37.3 14.2337 -1.60352
256 1 38.2597 15.9477 0.112808 38.2597 15.9477 0.112808
257 2 40.1712 15.8375 1.6135 40.1712 15.8375 1.6135
258 2 40.0697 15.8466 -1.5999 40.0697 15.8466 -1.5999
259 1 40.9928 14.0921 -0.0660952 40.9928 14.0921 -0.0660952
260 2 43.0224 14.258 1.53854 43.0224 14.258 1.53854
261 2 42.8613 13.9889 -1.8721 42.8613 13.9889 -1.8721
262 1 43.9164 15.7663 -0.316566 43.9164 15.7663 -0.316566
263 2 45.6357 15.8503 1.37485 45.6357 15.8503 1.37485
264 2 45.715 15.915 -1.91303 45.715 15.915 -1.91303
265 1 46.6354 14.1935 -0.307569 46.6354 14.1935 -0.307569
266 2 48.5097 14.3935 1.55447 48.5097 14.3935 1.55447
267 2 48.6132 14.101 -1.86273 48.6132 14.101 -1.86273
268 1 49.4965 15.8253 -0.216654 49.4965 15.8253 -0.216654
269 2 51.3697 15.9196 1.45864 51.3697 15.9196 1.45864
270 2 51.491 15.6247 -1.7595 51.491 15.6247 -1.7595
271 1 0.953332 17.5023 -0.297684 0.953332 17.5023 -0.297684
272 2 2.90385 17.654 1.22215 2.90385 17.654 1.22215
273 2 2.74031 17.3718 -2.08015 2.74031 17.3718 -2.08015
274 1 3.86101 19.104 -0.601857 3.86101 19.104 -0.601857
275 2 5.75848 19.1019 1.10129 5.75848 19.1019 1.10129
276 2 5.87929 18.9951 -2.14185 5.87929 18.9951 -2.14185
277 1 6.7568 17.3247 -0.465882 6.7568 17.3247 -0.465882
278 2 8.55521 17.6137 1.23791 8.55521 17.6137 1.23791
279 2 8.61889 17.3037 -2.13873 8.61889 17.3037 -2.13873
280 1 9.56675 19.01 -0.633041 9.56675 19.01 -0.633041
281 2 11.5303 19.0899 1.01966 11.5303 19.0899 1.01966
282 2 11.4843 19.106 -2.26793 11.4843 19.106 -2.26793
283 1 12.4256 17.4823 -0.603871 12.4256 17.4823 -0.603871
284 2 14.3552 17.5153 0.867777 14.3552 17.5153 0.867777
285 2 14.2519 17.509 -2.3594 14.2519 17.509 -2.3594
286 1 15.2736 19.1417 -0.78125 15.2736 19.1417 -0.78125
287 2 17.0635 19.3475 1.00503 17.0635 19.3475 1.00503
288 2 17.3701 19.0738 -2.24694 17.3701 19.0738 -2.24694
289 1 18.2227 17.6101 -0.415488 18.2227 17.6101 -0.415488
290 2 20.0598 17.8453 1.25009 20.0598 17.8453 1.25009
291 2 20.1599 17.2642 -1.99399 20.1599 17.2642 -1.99399
292 1 21.0289 19.1426 -0.709648 21.0289 19.1426 -0.709648
293 2 22.8195 19.347 1.10659 22.8195 19.347 1.10659
294 2 23.0116 18.937 -2.09288 23.0116 18.937 -2.09288
295 1 23.8712 17.4857 -0.1947 23.8712 17.4857 -0.1947
296 2 25.7771 17.5563 1.52313 25.7771 17.5563 1.52313
297 2 25.8823 17.3614 -1.72219 25.8823 17.3614 -1.72219
298 1 26.7779 19.0911 -0.270294 26.7779 19.0911 -0.270294
299 2 28.499 19.4345 1.41624 28.499 19.4345 1.41624
300 2 28.6472 18.8683 -1.90424 28.6472 18.8683 -1.90424
301 1 29.4983 17.5114 0.0683876 29.4983 17.5114 0.0683876
302 2 31.3644 17.6504 1.76876 31.3644 17.6504 1.76876
303 2 31.445 17.3475 -1.50627 31.445 17.3475 -1.50627
304 1 32.4764 19.2084 -0.0309395 32.4764 19.2084 -0.0309395
305 2 34.2211 19.2597 1.67018 34.2211 19.2597 1.67018
306 2 34.4831 19.1177 -1.51496 34.4831 19.1177 -1.51496
307 1 35.3078 17.473 0.182668 35.3078 17.473 0.182668
308 2 37.3526 17.7025 1.69778 37.3526 17.7025 1.69778
309 2 37.0968 17.4033 -1.53563 37.0968 17.4033 -1.53563
310 1 38.1316 19.16 -0.110408 38.1316 19.16 -0.110408
311 2 39.9967 19.3429 1.48596 39.9967 19.3429 1.48596
312 2 40.2111 19.1661 -1.76407 40.2111 19.1661 -1.76407
313 1 41.0601 17.5024 0.0162538 41.0601 17.5024 0.0162538
314 2 43.1323 17.4806 1.33869 43.1323 17.4806 1.33869
315 2 42.6933 17.356 -1.85373 42.6933 17.356 -1.85373
316 1 43.8323 19.1872 -0.390888 43.8323 19.1872 -0.390888
317 2 45.7196 19.1639 1.2861 45.7196 19.1639 1.2861
318 2 45.8256 19.005 -2.01846 45.8256 19.005 -2.01846
319 1 46.6391 17.4384 -0.236469 46.6391 17.4384 -0.236469
320 2 48.6459 17.6628 1.29504 48.6459 17.6628 1.29504
321 2 48.4452 17.3415 -1.99131 48.4452 17.3415 -1.99131
322 1 49.6121 19.1036 -0.637129 49.6121 19.1036 -0.637129
323 2 51.332 19.2353 1.13196 51.332 19.2353 1.13196
324 2 51.6862 19.1207 -2.01926 51.6862 19.1207 -2.01926
325 1 1.02223 20.8352 -0.35191 1.02223 20.8352 -0.35191
326 2 3.12586 20.7645 1.07944 3.12586 20.7645 1.07944
327 2 2.77938 20.8011 -2.15739 2.77938 20.8011 -2.15739
328 1 3.9121 22.425 -0.670368 3.9121 22.425 -0.670368
329 2 5.82767 22.4374 0.976467 5.82767 22.4374 0.976467
330 2 5.85651 22.2732 -2.30882 5.85651 22.2732 -2.30882
331 1 6.76115 20.6943 -0.522022 6.76115 20.6943 -0.522022
332 2 8.76789 20.5691 1.17279 8.76789 20.5691 1.17279
333 2 8.63513 20.9384 -2.15943 8.63513 20.9384 -2.15943
334 1 9.56232 22.3957 -0.382544 9.56232 22.3957 -0.382544
335 2 11.6371 22.4493 1.04693 11.6371 22.4493 1.04693
336 2 11.3407 22.3726 -2.192 11.3407 22.3726 -2.192
337 1 12.3498 20.7691 -0.61336 12.3498 20.7691 -0.61336
338 2 14.4169 20.8253 0.947011 14.4169 20.8253 0.947011
339 2 14.1022 20.6507 -2.27743 14.1022 20.6507 -2.27743
340 1 15.2447 22.3714 -0.826858 15.2447 22.3714 -0.826858
341 2 17.1946 22.4952 0.854585 17.1946 22.4952 0.854585
342 2 17.1448 22.2793 -2.51559 17.1448 22.2793 -2.51559
343 1 18.1651 20.8716 -0.800576 18.1651 20.8716 -0.800576
344 2 20.0905 20.9081 0.838131 20.0905 20.9081 0.838131
345 2 20.1034 20.9025 -2.39387 20.1034 20.9025 -2.39387
346 1 21.0774 22.5259 -0.786616 21.0774 22.5259 -0.786616
347 2 22.8972 22.498 0.933967 22.8972 22.498 0.933967
348 2 22.9545 22.4475 -2.41838 22.9545 22.4475 -2.41838
349 1 23.8482 20.7585 -0.620923 23.8482 20.7585 -0.620923
350 2 25.5865 20.921 1.22709 25.5865 20.921 1.22709
351 2 25.897 20.8165 -2.00744 25.897 20.8165 -2.00744
352 1 26.6688 22.5634 -0.338596 26.6688 22.5634 -0.338596
353 2 28.7122 22.613 1.21805 28.7122 22.613 1.21805
354 2 28.5652 22.4948 -2.0798 28.5652 22.4948 -2.0798
355 1 29.5939 20.7995 -0.440264 29.5939 20.7995 -0.440264
356 2 31.3222 20.8669 1.35582 31.3222 20.8669 1.35582
357 2 31.7252 20.854 -1.76409 31.7252 20.854 -1.76409
358 1 32.4496 22.4839 -0.0704525 32.4496 22.4839 -0.0704525
359 2 34.3592 22.6057 1.59345 34.3592 22.6057 1.59345
360 2 34.4161 22.292 -1.74757 34.4161 22.292 -1.74757
361 1 35.3822 20.747 0.108421 35.3822 20.747 0.108421
362 2 37.3566 20.8725 1.6082 37.3566 20.8725 1.6082
363 2 37.1696 20.7555 -1.71199 37.1696 20.7555 -1.71199
364 1 38.1568 22.3907 -0.038676 38.1568 22.3907 -0.038676
365 2 39.9915 22.3536 1.62075 39.9915 22.3536 1.62075
366 2 39.9683 22.4853 -1.62737 39.9683 22.4853 -1.62737
367 1 41.029 20.8331 -0.131143 41.029 20.8331 -0.131143
368 2 42.884 20.5665 1.4439 42.884 20.5665 1.4439
369 2 42.7657 20.8906 -1.80487 42.7657 20.8906 -1.80487
370 1 43.8277 22.442 -0.0288865 43.8277 22.442 -0.0288865
371 2 45.9618 22.3545 1.31543 45.9618 22.3545 1.31543
372 2 45.5234 22.3852 -1.95168 45.5234 22.3852 -1.95168
373 1 46.7244 20.7118 -0.46023 46.7244 20.7118 -0.46023
374 2 48.7192 20.6622 1.11159 48.7192 20.6622 1.11159
375 2 48.5648 20.7683 -2.16167 48.5648 20.7683 -2.16167
376 1 49.5486 22.4381 -0.540378 49.5486 22.4381 -0.540378
377 2 51.4157 22.7049 1.14104 51.4157 22.7049 1.14104
378 2 51.5044 22.3047 -2.05336 51.5044 22.3047 -2.05336
379 1 1.01763 24.1697 -0.563301 1.01763 24.1697 -0.563301
380 2 2.98422 24.1436 0.951891 2.98422 24.1436 0.951891
381 2 2.87863 24.0542 -2.21395 2.87863 24.0542 -2.21395
382 1 3.90312 25.7349 -0.738889 3.90312 25.7349 -0.738889
383 2 5.8197 25.7687 0.788621 5.8197 25.7687 0.788621
384 2 5.84149 25.7445 -2.48671 5.84149 25.7445 -2.48671
385 1 6.75326 24.0551 -0.754445 6.75326 24.0551 -0.754445
386 2 8.60615 24.3258 0.877321 8.60615 24.3258 0.877321
387 2 8.58112 23.8369 -2.33785 8.58112 23.8369 -2.33785
388 1 9.54863 25.7326 -1.03285 9.54863 25.7326 -1.03285
389 2 11.3709 25.7941 0.727672 11.3709 25.7941 0.727672
390 2 11.5626 25.6665 -2.62428 11.5626 25.6665 -2.62428
391 1 12.3982 24.1065 -0.807933 12.3982 24.1065 -0.807933
392 2 14.2436 24.1106 0.719905 14.2436 24.1106 0.719905
393 2 14.2819 24.0335 -2.55795 14.2819 24.0335 -2.55795
394 1 15.23 25.7441 -0.96878 15.23 25.7441 -0.96878
395 2 17.2061 25.7382 0.601229 17.2061 25.7382 0.601229
396 2 17.1817 25.5606 -2.62084 17.1817 25.5606 -2.62084
397 1 18.1064 23.9966 -0.957642 18.1064 23.9966 -0.957642
398 2 19.9703 24.2539 0.631777 19.9703 24.2539 0.631777
399 2 20.0091 23.8439 -2.52413 20.0091 23.8439 -2.52413
400 1 21.0355 25.6919 -1.11406 21.0355 25.6919 -1.11406
401 2 22.8004 25.8704 0.691464 22.8004 25.8704 0.691464
402 2 23.0505 25.7624 -2.55574 23.0505 25.7624 -2.55574
403 1 23.9422 24.1694 -0.86757 23.9422 24.1694 -0.86757
404 2 25.4837 24.3123 1.08628 25.4837 24.3123 1.08628
405 2 26.1086 24.1976 -2.08351 26.1086 24.1976 -2.08351
406 1 26.6729 25.7978 -0.38893 26.6729 25.7978 -0.38893
407 2 28.5436 25.6089 1.31248 28.5436 25.6089 1.31248
408 2 28.6749 25.8924 -1.93468 28.6749 25.8924 -1.93468
409 1 29.6103 24.1274 -0.413349 29.6103 24.1274 -0.413349
410 2 31.3054 24.0668 1.45245 31.3054 24.0668 1.45245
411 2 31.6142 24.1378 -1.75116 31.6142 24.1378 -1.75116
412 1 32.3964 25.7468 -0.08202 32.3964 25.7468 -0.08202
413 2 34.4407 25.7924 1.48313 34.4407 25.7924 1.48313
414 2 34.3713 25.635 -1.77817 34.3713 25.635 -1.77817
415 1 35.3078 24.0673 -0.110192 35.3078 24.0673 -0.110192
416 2 37.2309 24.1597 1.44185 37.2309 24.1597 1.44185
417 2 37.2537 24.0252 -1.75238 37.2537 24.0252 -1.75238
418 1 38.1883 25.7528 -0.253679 38.1883 25.7528 -0.253679
419 2 40.0449 25.8571 1.42597 40.0449 25.8571 1.42597
420 2 40.082 25.4831 -1.82741 40.082 25.4831 -1.82741
421 1 41.0142 24.0488 0.039791 41.0142 24.0488 0.039791
422 2 43.052 24.1045 1.57528 43.052 24.1045 1.57528
423 2 42.8134 23.938 -1.71392 42.8134 23.938 -1.71392
424 1 43.824 25.6294 -0.182598 43.824 25.6294 -0.182598
425 2 46.0124 25.7451 1.20795 46.0124 25.7451 1.20795
426 2 45.4529 25.5464 -2.05961 45.4529 25.5464 -2.05961
427 1 46.6686 24.0137 -0.40054 46.6686 24.0137 -0.40054
428 2 48.6925 24.0964 1.07602 48.6925 24.0964 1.07602
429 2 48.5491 24.0901 -2.10441 48.5491 24.0901 -2.10441
430 1 49.5714 25.7633 -0.591841 49.5714 25.7633 -0.591841
431 2 51.4758 25.7864 1.09419 51.4758 25.7864 1.09419
432 2 51.6047 25.7862 -2.20798 51.6047 25.7862 -2.20798
433 1 1.02595 27.502 -0.45832 1.02595 27.502 -0.45832
434 2 3.03336 27.3042 0.964361 3.03336 27.3042 0.964361
435 2 2.71592 27.493 -2.27836 2.71592 27.493 -2.27836
436 1 3.77895 29.0218 -0.720661 3.77895 29.0218 -0.720661
437 2 5.81818 29.108 0.802038 5.81818 29.108 0.802038
438 2 5.58781 29.0005 -2.47874 5.58781 29.0005 -2.47874
439 1 6.71409 27.4255 -0.90582 6.71409 27.4255 -0.90582
440 2 8.60354 27.5083 0.653078 8.60354 27.5083 0.653078
441 2 8.46283 27.2785 -2.66286 8.46283 27.2785 -2.66286
442 1 9.56056 28.9779 -1.04013 9.56056 28.9779 -1.04013
443 2 11.4014 28.8779 0.804338 11.4014 28.8779 0.804338
444 2 11.6552 29.2177 -2.38191 11.6552 29.2177 -2.38191
445 1 12.3816 27.3398 -0.903956 12.3816 27.3398 -0.903956
446 2 14.2595 27.323 0.674411 14.2595 27.323 0.674411
447 2 14.3208 27.4225 -2.54083 14.3208 27.4225 -2.54083
448 1 15.232 29.0195 -0.843017 15.232 29.0195 -0.843017
449 2 17.193 28.9057 0.694242 17.193 28.9057 0.694242
450 2 17.0138 29.1147 -2.54533 17.0138 29.1147 -2.54533
451 1 18.0698 27.3239 -1.11971 18.0698 27.3239 -1.11971
452 2 20.0398 27.3999 0.523211 20.0398 27.3999 0.523211
453 2 20.0745 27.4854 -2.68801 20.0745 27.4854 -2.68801
454 1 20.9823 29.0115 -1.05626 20.9823 29.0115 -1.05626
455 2 22.6804 28.943 0.734268 22.6804 28.943 0.734268
456 2 23.1554 29.2806 -2.43089 23.1554 29.2806 -2.43089
457 1 23.8721 27.4828 -0.837699 23.8721 27.4828 -0.837699
458 2 25.5941 27.4112 1.05079 25.5941 27.4112 1.05079
459 2 25.9609 27.4277 -2.09923 25.9609 27.4277 -2.09923
460 1 26.631 29.0916 -0.430212 26.631 29.0916 -0.430212
461 2 28.5391 29.1493 1.30171 28.5391 29.1493 1.30171
462 2 28.7066 29.018 -1.99253 28.7066 29.018 -1.99253
463 1 29.5271 27.4653 -0.139928 29.5271 27.4653 -0.139928
464 2 31.478 27.5014 1.59998 31.478 27.5014 1.59998
465 2 31.4939 27.5037 -1.69636 31.4939 27.5037 -1.69636
466 1 32.3761 29.0866 -0.0306962 32.3761 29.0866 -0.0306962
467 2 34.3559 29.0565 1.58027 34.3559 29.0565 1.58027
468 2 34.2704 29.1345 -1.72286 34.2704 29.1345 -1.72286
469 1 35.3093 27.3695 -0.195512 35.3093 27.3695 -0.195512
470 2 37.2827 27.287 1.50134 37.2827 27.287 1.50134
471 2 37.17 27.5218 -1.88591 37.17 27.5218 -1.88591
472 1 38.152 28.9924 -0.108518 38.152 28.9924 -0.108518
473 2 40.094 28.9029 1.41324 40.094 28.9029 1.41324
474 2 39.9258 29.0492 -1.83829 39.9258 29.0492 -1.83829
475 1 40.9887 27.266 -0.431611 40.9887 27.266 -0.431611
476 2 42.7877 27.3749 1.33269 42.7877 27.3749 1.33269
477 2 42.9273 27.1688 -1.97713 42.9273 27.1688 -1.97713
478 1 43.8025 28.9547 -0.411688 43.8025 28.9547 -0.411688
479 2 45.7371 28.9201 1.13776 45.7371 28.9201 1.13776
480 2 45.5972 28.9962 -2.1453 45.5972 28.9962 -2.1453
481 1 46.6541 27.3498 -0.614671 46.6541 27.3498 -0.614671
482 2 48.5969 27.4793 1.0072 48.5969 27.4793 1.0072
483 2 48.5536 27.3651 -2.30084 48.5536 27.3651 -2.30084
484 1 49.5474 29.0256 -0.654281 49.5474 29.0256 -0.654281
485 2 51.3415 29.1591 1.07751 51.3415 29.1591 1.07751
486 2 51.5251 29.1184 -2.1015 51.5251 29.1184 -2.1015
487 1 0.857675 30.7633 -0.47679 0.857675 30.7633 -0.47679
488 2 2.9345 30.6978 1.01416 2.9345 30.6978 1.01416
489 2 2.71453 30.7298 -2.25287 2.71453 30.7298 -2.25287
490 1 3.76498 32.3766 -0.597983 3.76498 32.3766 -0.597983
491 2 5.75571 32.1753 0.948169 5.75571 32.1753 0.948169
492 2 5.64955 32.6056 -2.25528 5.64955 32.6056 -2.25528
493 1 6.69211 30.743 -0.872162 6.69211 30.743 -0.872162
494 2 8.52004 30.4605 0.822091 8.52004 30.4605 0.822091
495 2 8.79514 31.0206 -2.36871 8.79514 31.0206 -2.36871
496 1 9.63465 32.3551 -0.400394 9.63465 32.3551 -0.400394
497 2 11.6425 32.3058 1.17908 11.6425 32.3058 1.17908
498 2 11.4017 32.3562 -2.06653 11.4017 32.3562 -2.06653
499 1 12.4718 30.6821 -0.487828 12.4718 30.6821 -0.487828
500 2 14.3194 30.4655 1.07684 14.3194 30.4655 1.07684
501 2 14.2226 30.8413 -2.19935 14.2226 30.8413 -2.19935
502 1 15.2797 32.2961 -0.351176 15.2797 32.2961 -0.351176
503 2 17.3191 32.0452 0.999839 17.3191 32.0452 0.999839
504 2 16.9846 32.441 -2.22623 16.9846 32.441 -2.22623
505 1 18.1455 30.6131 -0.831443 18.1455 30.6131 -0.831443
506 2 20 30.3669 0.802039 20 30.3669 0.802039
507 2 20.0965 30.796 -2.4201 20.0965 30.796 -2.4201
508 1 20.9753 32.245 -0.568826 20.9753 32.245 -0.568826
509 2 22.7626 32.2832 1.23238 22.7626 32.2832 1.23238
510 2 22.8554 32.4821 -2.13559 22.8554 32.4821 -2.13559
511 1 23.888 30.7205 -0.610476 23.888 30.7205 -0.610476
512 2 25.6577 30.8176 1.11959 25.6577 30.8176 1.11959
513 2 25.8041 30.6374 -2.10595 25.8041 30.6374 -2.10595
514 1 26.7303 32.3473 -0.549811 26.7303 32.3473 -0.549811
515 2 28.5844 32.5221 1.15883 28.5844 32.5221 1.15883
516 2 28.6572 32.1488 -2.16953 28.6572 32.1488 -2.16953
517 1 29.5193 30.6849 -0.385387 29.5193 30.6849 -0.385387
518 2 31.4272 30.9398 1.25444 31.4272 30.9398 1.25444
519 2 31.5741 30.4017 -1.88723 31.5741 30.4017 -1.88723
520 1 32.4409 32.3066 -0.582684 32.4409 32.3066 -0.582684
521 2 34.1456 32.3611 1.2662 34.1456 32.3611 1.2662
522 2 34.6408 32.2748 -1.97556 34.6408 32.2748 -1.97556
523 1 35.2393 30.6312 -0.123629 35.2393 30.6312 -0.123629
524 2 37.0335 30.5861 1.55262 37.0335 30.5861 1.55262
525 2 37.1195 30.7535 -1.71902 37.1195 30.7535 -1.71902
526 1 38.1443 32.3439 -0.0734478 38.1443 32.3439 -0.0734478
527 2 40.0599 32.3335 1.41396 40.0599 32.3335 1.41396
528 2 39.9867 32.287 -1.82905 39.9867 32.287 -1.82905
529 1 40.9755 30.6893 -0.172832 40.9755 30.6893 -0.172832
530 2 42.8597 30.5994 1.27957 42.8597 30.5994 1.27957
531 2 42.6566 30.6946 -1.96796 42.6566 30.6946 -1.96796
532 1 43.7944 32.2662 -0.37547 43.7944 32.2662 -0.37547
533 2 45.6791 32.1181 1.3834 45.6791 32.1181 1.3834
534 2 45.7758 32.4926 -1.83586 45.7758 32.4926 -1.83586
535 1 46.6905 30.6333 -0.493493 46.6905 30.6333 -0.493493
536 2 48.5619 30.5839 1.03541 48.5619 30.5839 1.03541
537 2 48.5056 30.7135 -2.13167 48.5056 30.7135 -2.13167
538 1 49.5072 32.3212 -0.420257 49.5072 32.3212 -0.420257