ITEM: TIMESTEP
53100
ITEM: NUMBER OF ATOMS
810
ITEM: BOX BOUNDS pp pp pp
8.3725609619210040e-01 5.2180348903808643e+01
7.7030267636400185e-01 5.0245912323635302e+01
-1.0000000000000000e+01 1.0000000000000000e+01
ITEM: ATOMS id type x y z xu yu zu
1 1 1.04069 1.02113 -0.241736 1.04069 1.02113 -0.241736
2 2 2.77073 0.751532 1.53004 2.77073 0.751532 1.53004
3 2 3.20178 1.08783 -1.67472 3.20178 1.08783 -1.67472
4 1 3.96951 2.56379 0.105632 3.96951 2.56379 0.105632
5 2 5.96957 2.61965 1.55067 5.96957 2.61965 1.55067
6 2 5.80884 2.6929 -1.66109 5.80884 2.6929 -1.66109
7 1 6.81245 0.97482 -0.128327 6.81245 0.97482 -0.128327
8 2 8.69964 0.95888 1.45495 8.69964 0.95888 1.45495
9 2 8.62911 0.943254 -1.83105 8.62911 0.943254 -1.83105
10 1 9.65201 2.55454 -0.198067 9.65201 2.55454 -0.198067
11 2 11.5066 2.69029 1.43612 11.5066 2.69029 1.43612
12 2 11.5552 2.53761 -1.82553 11.5552 2.53761 -1.82553
13 1 12.472 0.945442 -0.152888 12.472 0.945442 -0.152888
14 2 14.1277 0.936998 1.64798 14.1277 0.936998 1.64798
15 2 14.4981 0.714319 -1.59877 14.4981 0.714319 -1.59877
16 1 15.2448 2.61565 0.116709 15.2448 2.61565 0.116709
17 2 17.1218 2.74144 1.77856 17.1218 2.74144 1.77856
18 2 17.2027 2.59096 -1.48965 17.2027 2.59096 -1.48965
19 1 18.1324 0.9672 0.251279 18.1324 0.9672 0.251279
20 2 19.905 0.942811 2.00258 19.905 0.942811 2.00258
21 2 20.2129 1.00336 -1.19765 20.2129 1.00336 -1.19765
22 1 20.9857 2.71467 0.459049 20.9857 2.71467 0.459049
23 2 22.981 2.79067 2.09544 22.981 2.79067 2.09544
24 2 22.8897 2.76835 -1.20834 22.8897 2.76835 -1.20834
25 1 23.8567 1.09129 0.399905 23.8567 1.09129 0.399905
26 2 25.6374 1.095 2.06875 25.6374 1.095 2.06875
27 2 25.6718 0.98518 -1.29233 25.6718 0.98518 -1.29233
28 1 26.6381 2.68787 0.416255 26.6381 2.68787 0.416255
29 2 28.5026 2.67796 2.03311 28.5026 2.67796 2.03311
30 2 28.5052 2.75504 -1.31072 28.5052 2.75504 -1.31072
31 1 29.5584 1.0629 0.347217 29.5584 1.0629 0.347217
32 2 31.6541 1.08802 1.79938 31.6541 1.08802 1.79938
33 2 31.2887 50.4925 -1.47635 31.2887 1.01685 -1.47635
34 1 32.4529 2.70767 -0.000711609 32.4529 2.70767 -0.000711609
35 2 34.377 2.62812 1.58267 34.377 2.62812 1.58267
36 2 34.2764 2.64628 -1.66108 34.2764 2.64628 -1.66108
37 1 35.2195 0.914114 0.0246077 35.2195 0.914114 0.0246077
38 2 37.151 1.07376 1.64088 37.151 1.07376 1.64088
39 2 37.2499 0.70115 -1.62712 37.2499 0.70115 -1.62712
40 1 38.0479 2.5806 -0.0846559 38.0479 2.5806 -0.0846559
41 2 40.1985 2.61083 1.24499 40.1985 2.61083 1.24499
42 2 39.7728 2.50392 -1.91932 39.7728 2.50392 -1.91932
43 1 40.9392 0.929147 -0.381434 40.9392 0.929147 -0.381434
44 2 42.7165 1.19204 1.31318 42.7165 1.19204 1.31318
45 2 42.9169 0.729646 -1.94208 42.9169 0.729646 -1.94208
46 1 43.6919 2.7301 -0.455187 43.6919 2.7301 -0.455187
47 2 45.7289 3.00652 1.19336 45.7289 3.00652 1.19336
48 2 45.6646 2.30212 -2.09306 45.6646 2.30212 -2.09306
49 1 46.6705 1.0104 -0.218048 46.6705 1.0104 -0.218048
50 2 48.5239 1.30165 1.3403 48.5239 1.30165 1.3403
51 2 48.6542 0.731054 -1.83966 48.6542 0.731054 -1.83966
52 1 49.558 2.68673 -0.515378 49.558 2.68673 -0.515378
53 2 51.2706 2.55875 1.32522 51.2706 2.55875 1.32522
54 2 51.5973 2.59641 -1.95426 51.5973 2.59641 -1.95426
55 1 0.952155 4.25457 -0.218382 0.952155 4.25457 -0.218382
56 2 2.95842 4.61268 1.38429 2.95842 4.61268 1.38429
57 2 2.95405 4.0619 -1.80934 2.95405 4.0619 -1.80934
58 1 3.8679 5.95821 -0.412485 3.8679 5.95821 -0.412485
59 2 5.68115 6.19285 1.22306 5.68115 6.19285 1.22306
60 2 5.84056 5.58226 -1.94552 5.84056 5.58226 -1.94552
61 1 6.7343 4.31932 -0.0976739 6.7343 4.31932 -0.0976739
62 2 8.77161 4.41843 1.28413 8.77161 4.41843 1.28413
63 2 8.51167 4.15554 -1.843 8.51167 4.15554 -1.843
64 1 9.65891 5.86899 -0.474233 9.65891 5.86899 -0.474233
65 2 11.5087 6.17183 1.0961 11.5087 6.17183 1.0961
66 2 11.6291 5.68551 -2.07625 11.6291 5.68551 -2.07625
67 1 12.4635 4.24074 -0.267371 12.4635 4.24074 -0.267371
68 2 14.2925 4.42986 1.49655 14.2925 4.42986 1.49655
69 2 14.5069 4.12402 -1.70633 14.5069 4.12402 -1.70633
70 1 15.2845 5.89255 -0.163668 15.2845 5.89255 -0.163668
71 2 17.0615 6.07699 1.48775 17.0615 6.07699 1.48775
72 2 17.2376 5.6696 -1.65695 17.2376 5.6696 -1.65695
73 1 18.1553 4.29344 0.18006 18.1553 4.29344 0.18006
74 2 20.0199 4.4642 1.91801 20.0199 4.4642 1.91801
75 2 20.1279 4.22591 -1.3344 20.1279 4.22591 -1.3344
76 1 21.0377 6.05407 0.229785 21.0377 6.05407 0.229785
77 2 22.9713 6.40088 1.77293 22.9713 6.40088 1.77293
78 2 22.9587 5.75825 -1.42553 22.9587 5.75825 -1.42553
79 1 23.8476 4.39484 0.446426 23.8476 4.39484 0.446426
80 2 25.6999 4.45931 1.91905 25.6999 4.45931 1.91905
81 2 25.6826 4.29585 -1.28894 25.6826 4.29585 -1.28894
82 1 26.7016 5.93288 0.110391 26.7016 5.93288 0.110391
83 2 28.7016 6.11073 1.72548 28.7016 6.11073 1.72548
84 2 28.6269 5.78011 -1.46549 28.6269 5.78011 -1.46549
85 1 29.6418 4.31441 0.383164 29.6418 4.31441 0.383164
86 2 31.7255 4.49439 1.63724 31.7255 4.49439 1.63724
87 2 31.2367 4.26782 -1.51099 31.2367 4.26782 -1.51099
88 1 32.4066 6.02563 -0.202943 32.4066 6.02563 -0.202943
89 2 34.2095 6.13031 1.48228 34.2095 6.13031 1.48228
90 2 34.4778 5.83452 -1.8732 34.4778 5.83452 -1.8732
91 1 35.2731 4.28958 -0.0977299 35.2731 4.28958 -0.0977299
92 2 37.2838 4.45406 1.41454 37.2838 4.45406 1.41454
93 2 37.0328 4.12105 -1.75763 37.0328 4.12105 -1.75763
94 1 38.0114 5.96701 -0.401329 38.0114 5.96701 -0.401329
95 2 40.0304 6.12166 1.08272 40.0304 6.12166 1.08272
96 2 39.9194 5.83017 -2.27858 39.9194 5.83017 -2.27858
97 1 40.9398 4.35023 -0.505733 40.9398 4.35023 -0.505733
98 2 42.9618 4.60104 1.01946 42.9618 4.60104 1.01946
99 2 42.6919 4.10225 -2.20249 42.6919 4.10225 -2.20249
100 1 43.6865 5.91194 -0.836908 43.6865 5.91194 -0.836908
101 2 45.6225 6.04742 0.690072 45.6225 6.04742 0.690072
102 2 45.5018 5.79418 -2.57147 45.5018 5.79418 -2.57147
103 1 46.5936 4.21295 -0.80374 46.5936 4.21295 -0.80374
104 2 48.3794 4.48428 0.911132 48.3794 4.48428 0.911132
105 2 48.5976 4.07443 -2.32932 48.5976 4.07443 -2.32932
106 1 49.3438 5.95572 -0.766942 49.3438 5.95572 -0.766942
107 2 51.0953 6.13638 1.04478 51.0953 6.13638 1.04478
108 2 51.5135 5.71394 -2.09658 51.5135 5.71394 -2.09658
109 1 0.832442 7.5221 -0.603476 0.832442 7.5221 -0.603476
110 2 2.83694 7.72029 1.15698 2.83694 7.72029 1.15698
111 2 2.8881 7.59853 -2.12866 2.8881 7.59853 -2.12866
112 1 3.78744 9.28517 -0.566729 3.78744 9.28517 -0.566729
113 2 5.76412 9.3648 0.936849 5.76412 9.3648 0.936849
114 2 5.58829 9.07844 -2.34826 5.58829 9.07844 -2.34826
115 1 6.73877 7.55525 -0.616281 6.73877 7.55525 -0.616281
116 2 8.67425 7.69426 0.983648 8.67425 7.69426 0.983648
117 2 8.67453 7.37013 -2.26113 8.67453 7.37013 -2.26113
118 1 9.57652 9.1384 -0.925571 9.57652 9.1384 -0.925571
119 2 11.4297 9.33175 0.669173 11.4297 9.33175 0.669173
120 2 11.6242 9.0424 -2.53524 11.6242 9.0424 -2.53524
121 1 12.4864 7.54583 -0.731089 12.4864 7.54583 -0.731089
122 2 14.1545 7.78933 1.11319 14.1545 7.78933 1.11319
123 2 14.5493 7.40807 -2.09983 14.5493 7.40807 -2.09983
124 1 15.2378 9.24336 -0.593118 15.2378 9.24336 -0.593118
125 2 17.1003 9.50076 1.05216 17.1003 9.50076 1.05216
126 2 17.2188 8.97895 -2.10665 17.2188 8.97895 -2.10665
127 1 18.1167 7.63115 -0.198295 18.1167 7.63115 -0.198295
128 2 19.9515 7.86956 1.52294 19.9515 7.86956 1.52294
129 2 20.2151 7.5382 -1.66826 20.2151 7.5382 -1.66826
130 1 21.0908 9.32059 -0.204599 21.0908 9.32059 -0.204599
131 2 22.9992 9.54175 1.3281 22.9992 9.54175 1.3281
132 2 22.9526 9.07291 -1.90785 22.9526 9.07291 -1.90785
133 1 23.9062 7.62963 -0.100303 23.9062 7.62963 -0.100303
134 2 25.8252 7.734 1.52514 25.8252 7.734 1.52514
135 2 25.8673 7.33386 -1.7272 25.8673 7.33386 -1.7272
136 1 26.79 9.30482 -0.14383 26.79 9.30482 -0.14383
137 2 28.4505 9.24017 1.62374 28.4505 9.24017 1.62374
138 2 28.6457 9.17795 -1.66587 28.6457 9.17795 -1.66587
139 1 29.6055 7.55102 -0.0433168 29.6055 7.55102 -0.0433168
140 2 31.5466 7.64519 1.48461 31.5466 7.64519 1.48461
141 2 31.3198 7.6513 -1.83133 31.3198 7.6513 -1.83133
142 1 32.4277 9.20402 -0.191874 32.4277 9.20402 -0.191874
143 2 34.5091 9.43038 1.30997 34.5091 9.43038 1.30997
144 2 34.1563 9.01319 -2.00444 34.1563 9.01319 -2.00444
145 1 35.3618 7.66727 -0.355526 35.3618 7.66727 -0.355526
146 2 37.3583 7.84042 1.07984 37.3583 7.84042 1.07984
147 2 37.063 7.36383 -2.21838 37.063 7.36383 -2.21838
148 1 38.1223 9.25796 -0.84054 38.1223 9.25796 -0.84054
149 2 40.1809 9.33884 0.749469 40.1809 9.33884 0.749469
150 2 39.9225 9.04791 -2.46044 39.9225 9.04791 -2.46044
151 1 40.9091 7.59756 -0.739908 40.9091 7.59756 -0.739908
152 2 42.769 7.66981 0.830932 42.769 7.66981 0.830932
153 2 42.7291 7.57037 -2.46601 42.7291 7.57037 -2.46601
154 1 43.7369 9.34344 -0.818536 43.7369 9.34344 -0.818536
155 2 45.6506 9.23175 0.673717 45.6506 9.23175 0.673717
156 2 45.472 9.3695 -2.60137 45.472 9.3695 -2.60137
157 1 46.5418 7.57963 -1.149 46.5418 7.57963 -1.149
158 2 48.2258 7.65988 0.716326 48.2258 7.65988 0.716326
159 2 48.7037 7.62286 -2.469 48.7037 7.62286 -2.469
160 1 49.4961 9.22165 -0.753913 49.4961 9.22165 -0.753913
161 2 51.3902 9.31357 0.871528 51.3902 9.31357 0.871528
162 2 51.4235 9.14628 -2.34306 51.4235 9.14628 -2.34306
163 1 0.958621 10.8937 -0.827315 0.958621 10.8937 -0.827315
164 2 2.89758 11.0712 0.872183 2.89758 11.0712 0.872183
165 2 2.92786 10.8491 -2.48316 2.92786 10.8491 -2.48316
166 1 3.90853 12.531 -0.9127 3.90853 12.531 -0.9127
167 2 5.87223 12.518 0.683282 5.87223 12.518 0.683282
168 2 5.8175 12.4289 -2.49327 5.8175 12.4289 -2.49327
169 1 6.79722 10.8115 -0.899957 6.79722 10.8115 -0.899957
170 2 8.6184 10.8722 0.708969 8.6184 10.8722 0.708969
171 2 8.57827 10.7842 -2.61133 8.57827 10.7842 -2.61133
172 1 9.59271 12.4279 -1.05512 9.59271 12.4279 -1.05512
173 2 11.6636 12.5017 0.551794 11.6636 12.5017 0.551794
174 2 11.6093 12.4571 -2.73016 11.6093 12.4571 -2.73016
175 1 12.5134 10.7803 -1.04533 12.5134 10.7803 -1.04533
176 2 14.1038 10.9968 0.789428 14.1038 10.9968 0.789428
177 2 14.5986 10.7498 -2.49433 14.5986 10.7498 -2.49433
178 1 15.3158 12.5424 -0.922639 15.3158 12.5424 -0.922639
179 2 17.0864 12.6248 0.813587 17.0864 12.6248 0.813587
180 2 17.3647 12.4464 -2.53307 17.3647 12.4464 -2.53307
181 1 18.1729 10.8596 -0.785683 18.1729 10.8596 -0.785683
182 2 19.8246 11.0712 1.03019 19.8246 11.0712 1.03019
183 2 20.1192 10.6239 -2.22161 20.1192 10.6239 -2.22161
184 1 21.0268 12.4749 -0.706803 21.0268 12.4749 -0.706803
185 2 22.8205 12.6252 0.985763 22.8205 12.6252 0.985763
186 2 22.9003 12.5876 -2.2454 22.9003 12.5876 -2.2454
187 1 23.8983 10.8846 -0.50334 23.8983 10.8846 -0.50334
188 2 25.6954 11.0693 1.21461 25.6954 11.0693 1.21461
189 2 25.9653 10.8624 -1.966 25.9653 10.8624 -1.966
190 1 26.7733 12.5369 -0.386207 26.7733 12.5369 -0.386207
191 2 28.4807 12.5945 1.43574 28.4807 12.5945 1.43574
192 2 28.8725 12.5327 -1.80737 28.8725 12.5327 -1.80737
193 1 29.4974 10.875 0.0339902 29.4974 10.875 0.0339902
194 2 31.6984 10.961 1.49703 31.6984 10.961 1.49703
195 2 31.3404 10.7219 -1.775 31.3404 10.7219 -1.775
196 1 32.4414 12.5476 -0.471775 32.4414 12.5476 -0.471775
197 2 34.439 12.6581 0.951511 34.439 12.6581 0.951511
198 2 34.1402 12.5054 -2.20323 34.1402 12.5054 -2.20323
199 1 35.2935 10.8696 -0.708272 35.2935 10.8696 -0.708272
200 2 37.3092 10.9831 0.753332 37.3092 10.9831 0.753332
201 2 36.9955 10.8039 -2.54519 36.9955 10.8039 -2.54519
202 1 37.9859 12.5651 -1.05401 37.9859 12.5651 -1.05401
203 2 39.982 12.5149 0.556645 39.982 12.5149 0.556645
204 2 39.8866 12.5412 -2.66092 39.8866 12.5412 -2.66092
205 1 40.8915 10.8957 -1.09199 40.8915 10.8957 -1.09199
206 2 42.7011 11.1296 0.642707 42.7011 11.1296 0.642707
207 2 42.7563 10.7829 -2.60213 42.7563 10.7829 -2.60213
208 1 43.737 12.5713 -1.14949 43.737 12.5713 -1.14949
209 2 45.5535 12.7208 0.548165 45.5535 12.7208 0.548165
210 2 45.698 12.3368 -2.59408 45.698 12.3368 -2.59408
211 1 46.5785 10.9296 -0.8434 46.5785 10.9296 -0.8434
212 2 48.4738 10.9449 0.792229 48.4738 10.9449 0.792229
213 2 48.6176 10.8618 -2.47787 48.6176 10.8618 -2.47787
214 1 49.5345 12.5452 -0.76234 49.5345 12.5452 -0.76234
215 2 51.428 12.6002 0.709531 51.428 12.6002 0.709531
216 2 51.2741 12.5798 -2.5176 51.2741 12.5798 -2.5176
217 1 1.00606 14.1861 -0.941525 1.00606 14.1861 -0.941525
218 2 2.80962 14.2679 0.879142 2.80962 14.2679 0.879142
219 2 3.03417 14.2117 -2.54346 3.03417 14.2117 -2.54346
220 1 3.93644 15.8538 -0.751838 3.93644 15.8538 -0.751838
221 2 5.75107 15.7486 0.917278 5.75107 15.7486 0.917278
222 2 5.76504 15.9131 -2.39213 5.76504 15.9131 -2.39213
223 1 6.75484 14.1621 -0.901613 6.75484 14.1621 -0.901613
224 2 8.72195 14.026 0.752608 8.72195 14.026 0.752608
225 2 8.69191 14.128 -2.51354 8.69191 14.128 -2.51354
226 1 9.65794 15.7348 -0.751038 9.65794 15.7348 -0.751038
227 2 11.6414 15.57 0.82045 11.6414 15.57 0.82045
228 2 11.5157 16.0132 -2.41958 11.5157 16.0132 -2.41958
229 1 12.5452 14.1716 -1.14551 12.5452 14.1716 -1.14551
230 2 14.2663 14.2254 0.632597 14.2663 14.2254 0.632597
231 2 14.4728 14.1987 -2.50531 14.4728 14.1987 -2.50531
232 1 15.3866 15.8926 -0.799908 15.3866 15.8926 -0.799908
233 2 17.0656 15.6886 0.874198 17.0656 15.6886 0.874198
234 2 17.2588 15.8086 -2.44065 17.2588 15.8086 -2.44065
235 1 18.1281 14.141 -0.811774 18.1281 14.141 -0.811774
236 2 19.9679 14.1102 0.907555 19.9679 14.1102 0.907555
237 2 19.9505 14.164 -2.41557 19.9505 14.164 -2.41557
238 1 20.9847 15.7207 -0.707238 20.9847 15.7207 -0.707238
239 2 22.8028 15.789 1.12898 22.8028 15.789 1.12898
240 2 22.9655 15.9573 -2.20605 22.9655 15.9573 -2.20605
241 1 23.9103 14.2044 -0.621301 23.9103 14.2044 -0.621301
242 2 25.7734 14.1353 1.17143 25.7734 14.1353 1.17143
243 2 25.8115 14.1642 -2.05627 25.8115 14.1642 -2.05627
244 1 26.7337 15.8036 -0.378944 26.7337 15.8036 -0.378944
245 2 28.5327 15.9016 1.33757 28.5327 15.9016 1.33757
246 2 28.6566 15.7322 -1.98307 28.6566 15.7322 -1.98307
247 1 29.6293 14.218 -0.190515 29.6293 14.218 -0.190515
248 2 31.648 14.2693 1.24804 31.648 14.2693 1.24804
249 2 31.3593 14.2494 -2.03355 31.3593 14.2494 -2.03355
250 1 32.4436 15.9511 -0.512865 32.4436 15.9511 -0.512865
251 2 34.4671 15.8822 1.04833 34.4671 15.8822 1.04833
252 2 34.2905 15.9902 -2.13604 34.2905 15.9902 -2.13604
253 1 35.2258 14.2059 -0.652111 35.2258 14.2059 -0.652111
254 2 37.2218 13.9503 0.822347 37.2218 13.9503 0.822347
255 2 36.956 14.4489 -2.41779 36.956 14.4489 -2.41779
256 1 38.091 15.9008 -0.604252 38.091 15.9008 -0.604252
257 2 40.2356 15.866 0.726563 40.2356 15.866 0.726563
258 2 39.7727 16.0094 -2.4448 39.7727 16.0094 -2.4448
259 1 40.8992 14.2199 -1.07553 40.8992 14.2199 -1.07553
260 2 42.8934 14.1717 0.492575 42.8934 14.1717 0.492575
261 2 42.8755 14.282 -2.76641 42.8755 14.282 -2.76641
262 1 43.7865 15.9161 -1.14778 43.7865 15.9161 -1.14778
263 2 45.7599 15.8862 0.503726 45.7599 15.8862 0.503726
264 2 45.7419 15.8328 -2.78832 45.7419 15.8328 -2.78832
265 1 46.6808 14.183 -1.12295 46.6808 14.183 -1.12295
266 2 48.443 14.3621 0.580656 48.443 14.3621 0.580656
267 2 48.5551 14.1361 -2.66526 48.5551 14.1361 -2.66526
268 1 49.4976 15.817 -1.16127 49.4976 15.817 -1.16127
269 2 51.1903 15.7245 0.643686 51.1903 15.7245 0.643686
270 2 51.695 15.9196 -2.59426 51.695 15.9196 -2.59426
271 1 1.00425 17.4095 -0.745464 1.00425 17.4095 -0.745464
272 2 2.86909 17.3605 0.92901 2.86909 17.3605 0.92901
273 2 2.91432 17.6016 -2.34212 2.91432 17.6016 -2.34212
274 1 3.85278 19.1403 -0.517453 3.85278 19.1403 -0.517453
275 2 5.79822 18.8824 1.08898 5.79822 18.8824 1.08898
276 2 5.82296 19.2986 -2.14775 5.82296 19.2986 -2.14775
277 1 6.67329 17.493 -0.680764 6.67329 17.493 -0.680764
278 2 8.47842 17.0881 1.06911 8.47842 17.0881 1.06911
279 2 8.84133 17.6598 -2.10701 8.84133 17.6598 -2.10701
280 1 9.67221 19.1022 -0.135476 9.67221 19.1022 -0.135476
281 2 11.774 18.9078 1.22905 11.774 18.9078 1.22905
282 2 11.408 19.2282 -1.97405 11.408 19.2282 -1.97405
283 1 12.442 17.4698 -0.677825 12.442 17.4698 -0.677825
284 2 14.3607 17.2938 1.02904 14.3607 17.2938 1.02904
285 2 14.4253 17.6575 -2.16999 14.4253 17.6575 -2.16999
286 1 15.221 19.2403 -0.213552 15.221 19.2403 -0.213552
287 2 17.2908 19.0132 1.12812 17.2908 19.0132 1.12812
288 2 17.0569 19.3875 -2.00986 17.0569 19.3875 -2.00986
289 1 18.0913 17.4787 -0.734391 18.0913 17.4787 -0.734391
290 2 19.9108 17.4106 0.957232 19.9108 17.4106 0.957232
291 2 20.1775 17.612 -2.25933 20.1775 17.612 -2.25933
292 1 21.0373 19.1435 -0.426148 21.0373 19.1435 -0.426148
293 2 22.9962 19.1364 1.22198 22.9962 19.1364 1.22198
294 2 22.8696 19.1818 -2.05011 22.8696 19.1818 -2.05011
295 1 23.8471 17.508 -0.448161 23.8471 17.508 -0.448161
296 2 25.7098 17.5364 1.16616 25.7098 17.5364 1.16616
297 2 25.7718 17.3944 -2.05518 25.7718 17.3944 -2.05518
298 1 26.6492 19.1758 -0.394451 26.6492 19.1758 -0.394451
299 2 28.6891 19.2787 1.25103 28.6891 19.2787 1.25103
300 2 28.4431 19.0468 -2.0256 28.4431 19.0468 -2.0256
301 1 29.5452 17.4851 -0.521863 29.5452 17.4851 -0.521863
302 2 31.3412 17.364 1.2554 31.3412 17.364 1.2554
303 2 31.6293 17.608 -2.07563 31.6293 17.608 -2.07563
304 1 32.4137 19.1694 -0.197151 32.4137 19.1694 -0.197151
305 2 34.4034 19.135 1.26369 34.4034 19.135 1.26369
306 2 34.2198 19.2808 -1.90811 34.2198 19.2808 -1.90811
307 1 35.3118 17.6103 -0.422071 35.3118 17.6103 -0.422071
308 2 37.2129 17.4653 1.14131 37.2129 17.4653 1.14131
309 2 37.0556 17.5747 -2.16287 37.0556 17.5747 -2.16287
310 1 38.1048 19.2313 -0.420063 38.1048 19.2313 -0.420063
311 2 40.162 19.0143 1.03577 40.162 19.0143 1.03577
312 2 40.0057 19.4663 -2.24369 40.0057 19.4663 -2.24369
313 1 40.9816 17.544 -0.925229 40.9816 17.544 -0.925229
314 2 42.8779 17.2955 0.713163 42.8779 17.2955 0.713163
315 2 42.7379 17.6726 -2.6251 42.7379 17.6726 -2.6251
316 1 43.8213 19.1064 -0.899136 43.8213 19.1064 -0.899136
317 2 45.8405 18.8949 0.561625 45.8405 18.8949 0.561625
318 2 45.7036 19.1012 -2.67551 45.7036 19.1012 -2.67551
319 1 46.695 17.4234 -1.12953 46.695 17.4234 -1.12953
320 2 48.5482 17.4139 0.536622 48.5482 17.4139 0.536622
321 2 48.6089 17.5373 -2.74827 48.6089 17.5373 -2.74827
322 1 49.4695 19.152 -1.06601 49.4695 19.152 -1.06601
323 2 51.197 19.0479 0.752063 51.197 19.0479 0.752063
324 2 51.6921 19.0923 -2.39457 51.6921 19.0923 -2.39457
325 1 1.06255 20.706 -0.545566 1.06255 20.706 -0.545566
326 2 2.85186 20.6521 1.18627 2.85186 20.6521 1.18627
327 2 2.96619 20.8669 -2.14711 2.96619 20.8669 -2.14711
328 1 3.88517 22.3945 -0.373767 3.88517 22.3945 -0.373767
329 2 5.77676 22.2864 1.38368 5.77676 22.2864 1.38368
330 2 5.85596 22.5438 -1.90969 5.85596 22.5438 -1.90969
331 1 6.84235 20.8065 -0.347965 6.84235 20.8065 -0.347965
332 2 8.68206 20.7767 1.33143 8.68206 20.7767 1.33143
333 2 8.71782 20.7242 -1.94034 8.71782 20.7242 -1.94034
334 1 9.65764 22.4188 -0.397605 9.65764 22.4188 -0.397605
335 2 11.3781 22.3676 1.4446 11.3781 22.3676 1.4446
336 2 11.6915 22.5852 -1.90175 11.6915 22.5852 -1.90175
337 1 12.4706 20.7749 -0.215401 12.4706 20.7749 -0.215401
338 2 14.3016 20.8958 1.39658 14.3016 20.8958 1.39658
339 2 14.3583 20.9724 -1.82335 14.3583 20.9724 -1.82335
340 1 15.2929 22.5211 -0.115341 15.2929 22.5211 -0.115341
341 2 17.3148 22.2788 1.41356 17.3148 22.2788 1.41356
342 2 17.1929 22.4667 -1.84167 17.1929 22.4667 -1.84167
343 1 18.2128 20.7868 -0.385029 18.2128 20.7868 -0.385029
344 2 20.0657 20.6056 1.25228 20.0657 20.6056 1.25228
345 2 20.1617 20.8453 -2.04233 20.1617 20.8453 -2.04233
346 1 20.9892 22.3907 -0.202825 20.9892 22.3907 -0.202825
347 2 22.9405 22.3317 1.27713 22.9405 22.3317 1.27713
348 2 22.886 22.4435 -1.96416 22.886 22.4435 -1.96416
349 1 23.8171 20.7876 -0.440386 23.8171 20.7876 -0.440386
350 2 25.7124 20.7797 1.21592 25.7124 20.7797 1.21592
351 2 25.7167 20.7371 -2.09091 25.7167 20.7371 -2.09091
352 1 26.6264 22.4595 -0.537415 26.6264 22.4595 -0.537415
353 2 28.3328 22.4417 1.18487 28.3328 22.4417 1.18487
354 2 28.5532 22.4092 -2.07884 28.5532 22.4092 -2.07884
355 1 29.5038 20.7938 -0.416986 29.5038 20.7938 -0.416986
356 2 31.3995 20.8216 1.26734 31.3995 20.8216 1.26734
357 2 31.4495 20.6844 -1.87932 31.4495 20.6844 -1.87932
358 1 32.3507 22.4257 -0.383818 32.3507 22.4257 -0.383818
359 2 34.1439 22.4469 1.26977 34.1439 22.4469 1.26977
360 2 34.3834 22.4733 -1.90124 34.3834 22.4733 -1.90124
361 1 35.253 20.8772 -0.331319 35.253 20.8772 -0.331319
362 2 36.9662 20.6306 1.37888 36.9662 20.6306 1.37888
363 2 37.1706 20.9499 -1.94767 37.1706 20.9499 -1.94767
364 1 38.149 22.4207 -0.175122 38.149 22.4207 -0.175122
365 2 40.2101 22.5136 1.31424 40.2101 22.5136 1.31424
366 2 39.9444 22.3896 -1.89255 39.9444 22.3896 -1.89255
367 1 41.0698 20.8163 -0.3142 41.0698 20.8163 -0.3142
368 2 43.2101 20.5121 1.0989 43.2101 20.5121 1.0989
369 2 42.7622 20.9409 -2.14326 42.7622 20.9409 -2.14326
370 1 43.8406 22.4296 -0.354874 43.8406 22.4296 -0.354874
371 2 45.9724 22.1117 1.06586 45.9724 22.1117 1.06586
372 2 45.5235 22.5129 -2.22168 45.5235 22.5129 -2.22168
373 1 46.6971 20.7278 -0.902411 46.6971 20.7278 -0.902411
374 2 48.566 20.5425 0.720988 48.566 20.5425 0.720988
375 2 48.5944 20.8916 -2.5467 48.5944 20.8916 -2.5467
376 1 49.5068 22.4108 -0.605458 49.5068 22.4108 -0.605458
377 2 51.3447 22.451 1.02683 51.3447 22.451 1.02683
378 2 51.3811 22.2467 -2.26318 51.3811 22.2467 -2.26318
379 1 0.964755 24.0298 -0.676704 0.964755 24.0298 -0.676704
380 2 2.7981 24.1009 1.17358 2.7981 24.1009 1.17358
381 2 3.08957 24.1327 -2.0218 3.08957 24.1327 -2.0218
382 1 3.85971 25.7767 -0.283145 3.85971 25.7767 -0.283145
383 2 5.71913 25.7652 1.44145 5.71913 25.7652 1.44145
384 2 5.86206 25.552 -1.86513 5.86206 25.552 -1.86513
385 1 6.68466 24.0542 -0.0633792 6.68466 24.0542 -0.0633792
386 2 8.74964 23.9923 1.35656 8.74964 23.9923 1.35656
387 2 8.50333 24.1844 -1.78584 8.50333 24.1844 -1.78584
388 1 9.53562 25.736 -0.183691 9.53562 25.736 -0.183691
389 2 11.4008 25.728 1.52522 11.4008 25.728 1.52522
390 2 11.5546 25.7366 -1.72988 11.5546 25.7366 -1.72988
391 1 12.4165 24.101 -0.039475 12.4165 24.101 -0.039475
392 2 14.3292 24.1096 1.58496 14.3292 24.1096 1.58496
393 2 14.3435 24.2148 -1.67015 14.3435 24.2148 -1.67015
394 1 15.355 25.7141 -0.0808098 15.355 25.7141 -0.0808098
395 2 17.238 25.6409 1.56646 17.238 25.6409 1.56646
396 2 17.2901 25.8099 -1.74384 17.2901 25.8099 -1.74384
397 1 18.2129 24.0829 -0.227806 18.2129 24.0829 -0.227806
398 2 20.028 24.1065 1.30483 20.028 24.1065 1.30483
399 2 19.9877 24.0081 -1.87682 19.9877 24.0081 -1.87682
400 1 20.9618 25.8198 -0.306473 20.9618 25.8198 -0.306473
401 2 22.8908 25.6177 1.33142 22.8908 25.6177 1.33142
402 2 22.8777 25.7713 -1.927 22.8777 25.7713 -1.927
403 1 23.8124 24.067 -0.303424 23.8124 24.067 -0.303424
404 2 25.7504 24.0248 1.22328 25.7504 24.0248 1.22328
405 2 25.6711 24.2561 -2.03822 25.6711 24.2561 -2.03822
406 1 26.7022 25.7467 -0.293474 26.7022 25.7467 -0.293474
407 2 28.5428 25.512 1.34 28.5428 25.512 1.34
408 2 28.6847 25.8659 -1.91517 28.6847 25.8659 -1.91517
409 1 29.3916 24.0108 -0.390243 29.3916 24.0108 -0.390243
410 2 31.214 23.9536 1.34659 31.214 23.9536 1.34659
411 2 31.4615 24.2534 -1.95339 31.4615 24.2534 -1.95339
412 1 32.3318 25.6443 -0.124246 32.3318 25.6443 -0.124246
413 2 34.3222 25.6773 1.41862 34.3222 25.6773 1.41862
414 2 34.2438 25.7202 -1.77387 34.2438 25.7202 -1.77387
415 1 35.2571 24.0473 -0.273653 35.2571 24.0473 -0.273653
416 2 37.1539 24.1527 1.43498 37.1539 24.1527 1.43498
417 2 37.2686 24.0696 -1.79892 37.2686 24.0696 -1.79892
418 1 38.0243 25.7768 -0.129119 38.0243 25.7768 -0.129119
419 2 40.1776 25.8605 1.33088 40.1776 25.8605 1.33088
420 2 39.828 25.5931 -2.0239 39.828 25.5931 -2.0239
421 1 41.0121 24.1756 -0.347324 41.0121 24.1756 -0.347324
422 2 42.9083 24.1429 1.29378 42.9083 24.1429 1.29378
423 2 42.8007 24.075 -2.12329 42.8007 24.075 -2.12329
424 1 43.7918 25.767 -0.538847 43.7918 25.767 -0.538847
425 2 45.7606 25.7566 1.03556 45.7606 25.7566 1.03556
426 2 45.6758 25.6321 -2.183 45.6758 25.6321 -2.183
427 1 46.6167 23.9811 -0.571943 46.6167 23.9811 -0.571943
428 2 48.6832 24.3089 0.947828 48.6832 24.3089 0.947828
429 2 48.3867 24.0208 -2.21722 48.3867 24.0208 -2.21722
430 1 49.5709 25.7425 -0.911019 49.5709 25.7425 -0.911019
431 2 51.2426 25.6851 0.97073 51.2426 25.6851 0.97073
432 2 51.5715 25.954 -2.27941 51.5715 25.954 -2.27941
433 1 0.99874 27.3794 -0.31426 0.99874 27.3794 -0.31426
434 2 2.94567 27.3292 1.35585 2.94567 27.3292 1.35585
435 2 2.9416 27.3668 -1.90028 2.9416 27.3668 -1.90028
436 1 3.92799 29.0541 -0.257181 3.92799 29.0541 -0.257181
437 2 5.8287 28.8643 1.45473 5.8287 28.8643 1.45473
438 2 5.90283 29.2386 -1.83561 5.90283 29.2386 -1.83561
439 1 6.75817 27.3883 -0.290399 6.75817 27.3883 -0.290399
440 2 8.56055 27.3815 1.44726 8.56055 27.3815 1.44726
441 2 8.72312 27.4656 -1.84008 8.72312 27.4656 -1.84008
442 1 9.61245 29.0603 -0.0171059 9.61245 29.0603 -0.0171059
443 2 11.5507 28.9607 1.68004 11.5507 28.9607 1.68004
444 2 11.5707 29.005 -1.6227 11.5707 29.005 -1.6227
445 1 12.5395 27.3337 -0.0517487 12.5395 27.3337 -0.0517487
446 2 14.3967 27.3481 1.57465 14.3967 27.3481 1.57465
447 2 14.4522 27.4555 -1.70817 14.4522 27.4555 -1.70817
448 1 15.3207 29.0223 0.003155 15.3207 29.0223 0.003155
449 2 17.2348 29.1273 1.6631 17.2348 29.1273 1.6631
450 2 17.1834 28.956 -1.58826 17.1834 28.956 -1.58826
451 1 18.0925 27.3487 0.044624 18.0925 27.3487 0.044624
452 2 20.144 27.3346 1.53506 20.144 27.3346 1.53506
453 2 19.8557 27.6443 -1.7442 19.8557 27.6443 -1.7442
454 1 20.9978 29.0375 -0.0702548 20.9978 29.0375 -0.0702548
455 2 22.9485 28.8389 1.52955 22.9485 28.8389 1.52955
456 2 22.8031 29.088 -1.75576 22.8031 29.088 -1.75576
457 1 23.8508 27.365 -0.226848 23.8508 27.365 -0.226848
458 2 25.7287 27.275 1.41913 25.7287 27.275 1.41913
459 2 25.8669 27.5101 -1.81827 25.8669 27.5101 -1.81827
460 1 26.797 28.9608 0.00407981 26.797 28.9608 0.00407981
461 2 28.6403 29.0223 1.61946 28.6403 29.0223 1.61946
462 2 28.5881 29.078 -1.71848 28.5881 29.078 -1.71848
463 1 29.5116 27.283 -0.0383989 29.5116 27.283 -0.0383989
464 2 31.4342 27.2003 1.60434 31.4342 27.2003 1.60434
465 2 31.3788 27.3275 -1.75738 31.3788 27.3275 -1.75738
466 1 32.3687 28.8438 -0.0882543 32.3687 28.8438 -0.0882543
467 2 34.3083 28.8367 1.61688 34.3083 28.8367 1.61688
468 2 34.3547 28.9804 -1.68113 34.3547 28.9804 -1.68113
469 1 35.2625 27.2448 -0.103206 35.2625 27.2448 -0.103206
470 2 37.1146 27.3185 1.51527 37.1146 27.3185 1.51527
471 2 37.1406 27.508 -1.82785 37.1406 27.508 -1.82785
472 1 38.0329 29.0523 -0.0701472 38.0329 29.0523 -0.0701472
473 2 40.1347 28.9178 1.31079 40.1347 28.9178 1.31079
474 2 39.6546 29.1365 -1.98692 39.6546 29.1365 -1.98692
475 1 40.8857 27.4075 -0.551412 40.8857 27.4075 -0.551412
476 2 42.7606 27.3149 1.20394 42.7606 27.3149 1.20394
477 2 43.0273 27.6622 -1.98947 43.0273 27.6622 -1.98947
478 1 43.7792 29.1762 -0.0723866 43.7792 29.1762 -0.0723866
479 2 45.8991 28.8344 1.31923 45.8991 28.8344 1.31923
480 2 45.5301 29.275 -1.83022 45.5301 29.275 -1.83022
481 1 46.7011 27.4126 -0.566497 46.7011 27.4126 -0.566497
482 2 48.7382 27.227 0.96031 48.7382 27.227 0.96031
483 2 48.5598 27.6044 -2.27207 48.5598 27.6044 -2.27207
484 1 49.5376 29.0249 -0.418557 49.5376 29.0249 -0.418557
485 2 51.3173 28.8863 1.38818 51.3173 28.8863 1.38818
486 2 51.6891 29.0763 -2.01014 51.6891 29.0763 -2.01014
487 1 1.06707 30.6417 -0.151408 1.06707 30.6417 -0.151408
488 2 3.02773 30.5762 1.44613 3.02773 30.5762 1.44613
489 2 3.02733 30.8518 -1.7365 3.02733 30.8518 -1.7365
490 1 3.94455 32.3646 -0.0764996 3.94455 32.3646 -0.0764996
491 2 5.77572 32.3428 1.62835 5.77572 32.3428 1.62835
492 2 5.9102 32.3167 -1.63865 5.9102 32.3167 -1.63865
493 1 6.85254 30.6894 0.0906792 6.85254 30.6894 0.0906792
494 2 8.77356 30.8144 1.71707 8.77356 30.8144 1.71707
495 2 8.66906 30.843 -1.5624 8.66906 30.843 -1.5624
496 1 9.65365 32.4201 0.0191506 9.65365 32.4201 0.0191506
497 2 11.5954 32.2172 1.66347 11.5954 32.2172 1.66347
498 2 11.6096 32.2458 -1.67837 11.6096 32.2458 -1.67837
499 1 12.5512 30.6004 0.0315659 12.5512 30.6004 0.0315659
500 2 14.4658 30.6276 1.6805 14.4658 30.6276 1.6805
501 2 14.3827 30.72 -1.63535 14.3827 30.72 -1.63535
502 1 15.3265 32.3477 0.11361 15.3265 32.3477 0.11361
503 2 17.271 32.2521 1.66966 17.271 32.2521 1.66966
504 2 17.1318 32.3711 -1.58009 17.1318 32.3711 -1.58009
505 1 18.1701 30.6246 -0.0629461 18.1701 30.6246 -0.0629461
506 2 20.0463 30.5813 1.63852 20.0463 30.5813 1.63852
507 2 20.0668 30.8157 -1.55111 20.0668 30.8157 -1.55111
508 1 20.9996 32.3223 0.174462 20.9996 32.3223 0.174462
509 2 22.9244 31.9538 1.78406 22.9244 31.9538 1.78406
510 2 22.9332 32.3928 -1.51839 22.9332 32.3928 -1.51839
511 1 23.8802 30.586 -0.119003 23.8802 30.586 -0.119003
512 2 25.6337 30.5342 1.56901 25.6337 30.5342 1.56901
513 2 25.7892 30.6947 -1.73345 25.7892 30.6947 -1.73345
514 1 26.6941 32.2694 0.0314297 26.6941 32.2694 0.0314297
515 2 28.5152 32.0453 1.77306 28.5152 32.0453 1.77306
516 2 28.7777 32.5827 -1.42641 28.7777 32.5827 -1.42641
517 1 29.6088 30.6339 -0.0606388 29.6088 30.6339 -0.0606388
518 2 31.385 30.4044 1.64842 31.385 30.4044 1.64842
519 2 31.5635 30.728 -1.54392 31.5635 30.728 -1.54392
520 1 32.3881 32.3127 0.248515 32.3881 32.3127 0.248515
521 2 34.3211 32.0259 1.82414 34.3211 32.0259 1.82414
522 2 34.192 32.4155 -1.47818 34.192 32.4155 -1.47818
523 1 35.1747 30.5859 0.014387 35.1747 30.5859 0.014387
524 2 36.98 30.4994 1.74958 36.98 30.4994 1.74958
525 2 37.0586 30.8489 -1.59671 37.0586 30.8489 -1.59671
526 1 38.0671 32.3027 0.230888 38.0671 32.3027 0.230888
527 2 40.0631 32.1252 1.73646 40.0631 32.1252 1.73646
528 2 39.8686 32.6363 -1.58003 39.8686 32.6363 -1.58003
529 1 40.9587 30.7223 -0.318855 40.9587 30.7223 -0.318855
530 2 42.7413 30.916 1.51548 42.7413 30.916 1.51548
531 2 42.9676 30.8874 -1.75976 42.9676 30.8874 -1.75976
532 1 43.8706 32.4101 -0.0661313 43.8706 32.4101 -0.0661313
533 2 45.5922 32.1306 1.6591 45.5922 32.1306 1.6591
534 2 45.8479 32.4836 -1.59674 45.8479 32.4836 -1.59674
535 1 46.7028 30.6897 -0.11446 46.7028 30.6897 -0.11446
536 2 48.6974 30.6156 1.40275 48.6974 30.6156 1.40275
537 2 48.4995 30.8104 -1.91345 48.4995 30.8104 -1.91345