ITEM: TIMESTEP
30300
ITEM: NUMBER OF ATOMS
810
ITEM: BOX BOUNDS pp pp pp
8.2961436070449723e-01 5.2187990639296373e+01
7.8864362957180589e-01 5.0227571370427562e+01
-1.0000000000000000e+01 1.0000000000000000e+01
ITEM: ATOMS id type x y z xu yu zu
1 1 0.989533 0.979495 -0.085636 0.989533 0.979495 -0.085636
2 2 3.07367 0.924405 1.33452 3.07367 0.924405 1.33452
3 2 2.72747 1.18917 -1.91819 2.72747 1.18917 -1.91819
4 1 3.84452 2.67991 -0.254309 3.84452 2.67991 -0.254309
5 2 5.93538 2.65533 1.25966 5.93538 2.65533 1.25966
6 2 5.732 3.01273 -1.88929 5.732 3.01273 -1.88929
7 1 6.78693 1.11588 -0.529365 6.78693 1.11588 -0.529365
8 2 8.80374 50.2829 1.04257 8.80374 0.843979 1.04257
9 2 8.63565 1.04857 -2.28791 8.63565 1.04857 -2.28791
10 1 9.67653 2.77595 -0.540175 9.67653 2.77595 -0.540175
11 2 11.5559 2.48973 1.03721 11.5559 2.48973 1.03721
12 2 11.5659 2.8957 -2.22104 11.5659 2.8957 -2.22104
13 1 12.4793 0.993875 -0.831428 12.4793 0.993875 -0.831428
14 2 14.4395 50.2586 0.798464 14.4395 0.819681 0.798464
15 2 14.3164 0.973422 -2.48786 14.3164 0.973422 -2.48786
16 1 15.2631 2.5976 -0.80899 15.2631 2.5976 -0.80899
17 2 17.1228 2.50288 0.884686 17.1228 2.50288 0.884686
18 2 17.252 2.78926 -2.41906 17.252 2.78926 -2.41906
19 1 18.2294 1.04717 -0.949393 18.2294 1.04717 -0.949393
20 2 19.9352 0.962205 0.814679 19.9352 0.962205 0.814679
21 2 20.0757 1.07841 -2.51618 20.0757 1.07841 -2.51618
22 1 20.9802 2.63739 -0.798993 20.9802 2.63739 -0.798993
23 2 22.6204 2.76815 1.09886 22.6204 2.76815 1.09886
24 2 22.9562 2.60989 -2.15762 22.9562 2.60989 -2.15762
25 1 23.8105 0.94953 -0.332569 23.8105 0.94953 -0.332569
26 2 25.8352 1.0137 1.26627 25.8352 1.0137 1.26627
27 2 25.6646 0.93241 -1.98466 25.6646 0.93241 -1.98466
28 1 26.6346 2.6964 -0.438434 26.6346 2.6964 -0.438434
29 2 28.4096 2.59202 1.34633 28.4096 2.59202 1.34633
30 2 28.663 2.60621 -1.96749 28.663 2.60621 -1.96749
31 1 29.5392 0.927128 -0.258353 29.5392 0.927128 -0.258353
32 2 31.399 1.00549 1.47162 31.399 1.00549 1.47162
33 2 31.4527 0.988968 -1.79521 31.4527 0.988968 -1.79521
34 1 32.3401 2.62422 -0.0861983 32.3401 2.62422 -0.0861983
35 2 34.1668 2.67306 1.60933 34.1668 2.67306 1.60933
36 2 34.2109 2.71681 -1.62587 34.2109 2.71681 -1.62587
37 1 35.1926 0.98849 0.0335866 35.1926 0.98849 0.0335866
38 2 37.1662 0.856713 1.60057 37.1662 0.856713 1.60057
39 2 37.2057 1.11607 -1.60531 37.2057 1.11607 -1.60531
40 1 38.0807 2.62922 0.163283 38.0807 2.62922 0.163283
41 2 39.8193 2.31689 1.83054 39.8193 2.31689 1.83054
42 2 39.9944 2.93261 -1.3742 39.9944 2.93261 -1.3742
43 1 40.9941 1.00367 0.0668981 40.9941 1.00367 0.0668981
44 2 42.7553 1.1306 1.77264 42.7553 1.1306 1.77264
45 2 43.0027 0.96026 -1.38666 43.0027 0.96026 -1.38666
46 1 43.8334 2.70693 0.176147 43.8334 2.70693 0.176147
47 2 45.6527 2.44475 1.86121 45.6527 2.44475 1.86121
48 2 45.8216 3.01911 -1.31809 45.8216 3.01911 -1.31809
49 1 46.6381 1.00437 0.0534881 46.6381 1.00437 0.0534881
50 2 48.6221 0.965809 1.68493 48.6221 0.965809 1.68493
51 2 48.5912 1.02813 -1.56449 48.5912 1.02813 -1.56449
52 1 49.5997 2.72301 0.0641712 49.5997 2.72301 0.0641712
53 2 51.4145 2.54031 1.65589 51.4145 2.54031 1.65589
54 2 51.4017 2.84283 -1.64981 51.4017 2.84283 -1.64981
55 1 1.08189 4.34645 0.19455 1.08189 4.34645 0.19455
56 2 3.03477 4.16059 1.67506 3.03477 4.16059 1.67506
57 2 2.86404 4.5096 -1.58028 2.86404 4.5096 -1.58028
58 1 3.93467 5.94002 0.232716 3.93467 5.94002 0.232716
59 2 5.86198 5.74544 1.76278 5.86198 5.74544 1.76278
60 2 5.85651 6.28747 -1.4141 5.85651 6.28747 -1.4141
61 1 6.80022 4.42395 -0.113717 6.80022 4.42395 -0.113717
62 2 8.74976 4.07035 1.41015 8.74976 4.07035 1.41015
63 2 8.62939 4.71129 -1.71666 8.62939 4.71129 -1.71666
64 1 9.63658 6.0103 0.196534 9.63658 6.0103 0.196534
65 2 11.7153 5.58172 1.6235 11.7153 5.58172 1.6235
66 2 11.3417 6.26067 -1.56698 11.3417 6.26067 -1.56698
67 1 12.4256 4.30919 -0.332564 12.4256 4.30919 -0.332564
68 2 14.4918 4.24995 1.01238 14.4918 4.24995 1.01238
69 2 14.1785 4.40887 -2.23243 14.1785 4.40887 -2.23243
70 1 15.1368 5.96013 -0.575895 15.1368 5.96013 -0.575895
71 2 16.9416 5.66078 1.13457 16.9416 5.66078 1.13457
72 2 17.1426 6.15596 -2.02212 17.1426 6.15596 -2.02212
73 1 18.1469 4.28034 -0.615397 18.1469 4.28034 -0.615397
74 2 19.9775 4.12769 0.977542 19.9775 4.12769 0.977542
75 2 20.0897 4.49414 -2.19908 20.0897 4.49414 -2.19908
76 1 20.9713 5.98203 -0.35794 20.9713 5.98203 -0.35794
77 2 22.8763 5.97701 1.27556 22.8763 5.97701 1.27556
78 2 22.8197 5.94743 -2.00671 22.8197 5.94743 -2.00671
79 1 23.79 4.27841 -0.497494 23.79 4.27841 -0.497494
80 2 25.6398 4.30009 1.15976 25.6398 4.30009 1.15976
81 2 25.7557 4.41859 -1.97604 25.7557 4.41859 -1.97604
82 1 26.6611 5.92997 -0.366888 26.6611 5.92997 -0.366888
83 2 28.4529 5.87601 1.41487 28.4529 5.87601 1.41487
84 2 28.6339 5.94525 -1.87966 28.6339 5.94525 -1.87966
85 1 29.4987 4.17891 -0.26804 29.4987 4.17891 -0.26804
86 2 31.245 4.30477 1.46737 31.245 4.30477 1.46737
87 2 31.4718 4.26586 -1.77378 31.4718 4.26586 -1.77378
88 1 32.3756 5.89933 -0.0699531 32.3756 5.89933 -0.0699531
89 2 34.2139 5.88527 1.59852 34.2139 5.88527 1.59852
90 2 34.4343 5.75979 -1.71563 34.4343 5.75979 -1.71563
91 1 35.2781 4.23292 -0.00160134 35.2781 4.23292 -0.00160134
92 2 37.1408 4.26854 1.71626 37.1408 4.26854 1.71626
93 2 37.2264 4.20301 -1.56975 37.2264 4.20301 -1.56975
94 1 38.0944 5.92154 0.0914992 38.0944 5.92154 0.0914992
95 2 39.7342 5.85235 1.92705 39.7342 5.85235 1.92705
96 2 40.2448 5.88066 -1.2691 40.2448 5.88066 -1.2691
97 1 40.966 4.22694 0.444298 40.966 4.22694 0.444298
98 2 42.855 4.02144 2.01858 42.855 4.02144 2.01858
99 2 42.8749 4.52411 -1.09711 42.8749 4.52411 -1.09711
100 1 43.8364 5.8954 0.81114 43.8364 5.8954 0.81114
101 2 45.7165 5.79852 2.34798 45.7165 5.79852 2.34798
102 2 45.661 6.10563 -0.923518 45.661 6.10563 -0.923518
103 1 46.6663 4.29272 0.553337 46.6663 4.29272 0.553337
104 2 48.6605 3.96397 2.02949 48.6605 3.96397 2.02949
105 2 48.49 4.63171 -1.13384 48.49 4.63171 -1.13384
106 1 49.5772 5.90893 0.753328 49.5772 5.90893 0.753328
107 2 51.6792 5.7082 2.23807 51.6792 5.7082 2.23807
108 2 51.2921 6.08372 -1.09175 51.2921 6.08372 -1.09175
109 1 1.11397 7.64922 0.655181 1.11397 7.64922 0.655181
110 2 3.0217 7.23514 2.12262 3.0217 7.23514 2.12262
111 2 3.09393 7.98092 -1.01955 3.09393 7.98092 -1.01955
112 1 3.97667 9.22461 0.891599 3.97667 9.22461 0.891599
113 2 5.96037 9.1137 2.29712 5.96037 9.1137 2.29712
114 2 5.68866 9.46197 -0.865304 5.68866 9.46197 -0.865304
115 1 6.74224 7.68267 0.473926 6.74224 7.68267 0.473926
116 2 8.73918 7.42611 2.05536 8.73918 7.42611 2.05536
117 2 8.5231 7.71472 -1.28735 8.5231 7.71472 -1.28735
118 1 9.51093 9.31423 0.515428 9.51093 9.31423 0.515428
119 2 11.6315 9.10815 1.9953 11.6315 9.10815 1.9953
120 2 11.3394 9.26561 -1.26174 11.3394 9.26561 -1.26174
121 1 12.3804 7.67321 0.171205 12.3804 7.67321 0.171205
122 2 14.488 7.33088 1.56545 14.488 7.33088 1.56545
123 2 14.056 7.89625 -1.69909 14.056 7.89625 -1.69909
124 1 15.2765 9.24027 0.123561 15.2765 9.24027 0.123561
125 2 17.2069 9.1803 1.62003 17.2069 9.1803 1.62003
126 2 16.8362 9.21404 -1.66406 16.8362 9.21404 -1.66406
127 1 18.0012 7.5173 -0.109387 18.0012 7.5173 -0.109387
128 2 20.1094 7.48931 1.45451 20.1094 7.48931 1.45451
129 2 19.8183 7.63633 -1.85726 19.8183 7.63633 -1.85726
130 1 20.9261 9.1828 -0.119112 20.9261 9.1828 -0.119112
131 2 22.9046 9.09392 1.397 22.9046 9.09392 1.397
132 2 22.705 9.27427 -1.90542 22.705 9.27427 -1.90542
133 1 23.8165 7.4962 -0.411902 23.8165 7.4962 -0.411902
134 2 25.6372 7.52394 1.30896 25.6372 7.52394 1.30896
135 2 25.7875 7.71183 -1.91937 25.7875 7.71183 -1.91937
136 1 26.7919 9.21665 -0.170166 26.7919 9.21665 -0.170166
137 2 28.6585 9.12507 1.4931 28.6585 9.12507 1.4931
138 2 28.8298 9.37971 -1.72244 28.8298 9.37971 -1.72244
139 1 29.5045 7.57585 -0.182146 29.5045 7.57585 -0.182146
140 2 31.3526 7.60667 1.52681 31.3526 7.60667 1.52681
141 2 31.6071 7.5709 -1.69569 31.6071 7.5709 -1.69569
142 1 32.4531 9.23196 -0.0291674 32.4531 9.23196 -0.0291674
143 2 34.3233 9.13705 1.65273 34.3233 9.13705 1.65273
144 2 34.3312 9.37417 -1.55574 34.3312 9.37417 -1.55574
145 1 35.26 7.48686 -0.0079569 35.26 7.48686 -0.0079569
146 2 36.9542 7.3077 1.87959 36.9542 7.3077 1.87959
147 2 37.2557 7.72199 -1.40965 37.2557 7.72199 -1.40965
148 1 38.1007 9.16046 0.463884 38.1007 9.16046 0.463884
149 2 39.9796 9.06442 2.11353 39.9796 9.06442 2.11353
150 2 40.0512 9.19362 -1.06545 40.0512 9.19362 -1.06545
151 1 40.9347 7.47286 0.490051 40.9347 7.47286 0.490051
152 2 42.6191 7.37588 2.30895 42.6191 7.37588 2.30895
153 2 43.086 7.64234 -0.871487 43.086 7.64234 -0.871487
154 1 43.7123 9.2057 1.04614 43.7123 9.2057 1.04614
155 2 45.7268 9.26032 2.51566 45.7268 9.26032 2.51566
156 2 45.5395 9.3354 -0.682987 45.5395 9.3354 -0.682987
157 1 46.5885 7.60214 0.890955 46.5885 7.60214 0.890955
158 2 48.4941 7.63914 2.47918 48.4941 7.63914 2.47918
159 2 48.5906 7.64886 -0.834655 48.5906 7.64886 -0.834655
160 1 49.5797 9.15392 0.869524 49.5797 9.15392 0.869524
161 2 51.4024 8.92538 2.53132 51.4024 8.92538 2.53132
162 2 51.4816 9.48146 -0.720441 51.4816 9.48146 -0.720441
163 1 1.08352 10.8433 1.17749 1.08352 10.8433 1.17749
164 2 2.98655 10.7081 2.70666 2.98655 10.7081 2.70666
165 2 2.85196 11.0233 -0.550415 2.85196 11.0233 -0.550415
166 1 3.8548 12.5327 1.22888 3.8548 12.5327 1.22888
167 2 6.01392 12.4152 2.63335 6.01392 12.4152 2.63335
168 2 5.66896 12.6578 -0.499714 5.66896 12.6578 -0.499714
169 1 6.75245 10.9221 0.84208 6.75245 10.9221 0.84208
170 2 8.6441 10.8458 2.35866 8.6441 10.8458 2.35866
171 2 8.54042 10.9479 -0.904223 8.54042 10.9479 -0.904223
172 1 9.5524 12.5889 0.669235 9.5524 12.5889 0.669235
173 2 11.541 12.4715 2.29013 11.541 12.4715 2.29013
174 2 11.4553 12.7308 -0.933586 11.4553 12.7308 -0.933586
175 1 12.4453 10.899 0.430733 12.4453 10.899 0.430733
176 2 14.4512 10.8359 1.85029 14.4512 10.8359 1.85029
177 2 14.2421 11.0032 -1.39395 14.2421 11.0032 -1.39395
178 1 15.3098 12.5484 0.253645 15.3098 12.5484 0.253645
179 2 17.2924 12.4061 1.68555 17.2924 12.4061 1.68555
180 2 17.0534 12.541 -1.48804 17.0534 12.541 -1.48804
181 1 18.0892 10.7392 -0.0549601 18.0892 10.7392 -0.0549601
182 2 20.2102 10.8554 1.43457 20.2102 10.8554 1.43457
183 2 19.7765 10.724 -1.86306 19.7765 10.724 -1.86306
184 1 20.9063 12.4185 -0.289189 20.9063 12.4185 -0.289189
185 2 22.7743 12.2688 1.46426 22.7743 12.2688 1.46426
186 2 22.8481 12.5825 -1.75719 22.8481 12.5825 -1.75719
187 1 23.7378 10.7682 -0.308072 23.7378 10.7682 -0.308072
188 2 25.5507 10.6939 1.50817 25.5507 10.6939 1.50817
189 2 25.8295 10.8262 -1.67283 25.8295 10.8262 -1.67283
190 1 26.6099 12.4564 0.115534 26.6099 12.4564 0.115534
191 2 28.4933 12.4282 1.71057 28.4933 12.4282 1.71057
192 2 28.5711 12.4477 -1.53766 28.5711 12.4477 -1.53766
193 1 29.6052 10.8241 0.100359 29.6052 10.8241 0.100359
194 2 31.4571 10.6836 1.68899 31.4571 10.6836 1.68899
195 2 31.5329 11.0031 -1.59752 31.5329 11.0031 -1.59752
196 1 32.4258 12.5453 0.215596 32.4258 12.5453 0.215596
197 2 34.3228 12.5188 1.74079 34.3228 12.5188 1.74079
198 2 34.3287 12.6772 -1.40634 34.3287 12.6772 -1.40634
199 1 35.2897 10.8429 0.131854 35.2897 10.8429 0.131854
200 2 36.8967 10.8448 1.97051 36.8967 10.8448 1.97051
201 2 37.3435 10.9466 -1.34225 37.3435 10.9466 -1.34225
202 1 38.0705 12.575 0.481609 38.0705 12.575 0.481609
203 2 40.0204 12.6911 2.03614 40.0204 12.6911 2.03614
204 2 39.884 12.4908 -1.17983 39.884 12.4908 -1.17983
205 1 40.8821 10.8414 0.517055 40.8821 10.8414 0.517055
206 2 42.5442 10.8849 2.44347 42.5442 10.8849 2.44347
207 2 43.0437 10.7107 -0.82642 43.0437 10.7107 -0.82642
208 1 43.7564 12.4826 0.901058 43.7564 12.4826 0.901058
209 2 45.7127 12.5278 2.57327 45.7127 12.5278 2.57327
210 2 45.6141 12.5809 -0.765193 45.6141 12.5809 -0.765193
211 1 46.6696 10.8429 0.889126 46.6696 10.8429 0.889126
212 2 48.4586 10.6872 2.5042 48.4586 10.6872 2.5042
213 2 48.6235 10.9619 -0.723456 48.6235 10.9619 -0.723456
214 1 49.5501 12.5029 1.00097 49.5501 12.5029 1.00097
215 2 51.2112 12.3296 2.77985 51.2112 12.3296 2.77985
216 2 51.709 12.5592 -0.429706 51.709 12.5592 -0.429706
217 1 1.00782 14.2188 1.41011 1.00782 14.2188 1.41011
218 2 2.92316 14.1342 3.01955 2.92316 14.1342 3.01955
219 2 2.94543 14.2632 -0.233871 2.94543 14.2632 -0.233871
220 1 3.95858 15.7771 1.42748 3.95858 15.7771 1.42748
221 2 5.94122 15.8936 2.80706 5.94122 15.8936 2.80706
222 2 5.62258 15.9468 -0.482487 5.62258 15.9468 -0.482487
223 1 6.70692 14.247 1.11816 6.70692 14.247 1.11816
224 2 8.84491 14.267 2.4935 8.84491 14.267 2.4935
225 2 8.33934 14.2104 -0.775459 8.33934 14.2104 -0.775459
226 1 9.61417 15.8788 0.673164 9.61417 15.8788 0.673164
227 2 11.6158 15.9291 2.30902 11.6158 15.9291 2.30902
228 2 11.4103 15.9309 -0.95541 11.4103 15.9309 -0.95541
229 1 12.4664 14.2964 0.707073 12.4664 14.2964 0.707073
230 2 14.4373 14.2043 2.12071 14.4373 14.2043 2.12071
231 2 14.2219 14.1852 -1.11721 14.2219 14.1852 -1.11721
232 1 15.3293 15.8903 0.395299 15.3293 15.8903 0.395299
233 2 17.3093 15.8258 1.79992 17.3093 15.8258 1.79992
234 2 17.0287 15.8446 -1.40912 17.0287 15.8446 -1.40912
235 1 18.1443 14.1714 0.0541333 18.1443 14.1714 0.0541333
236 2 20.0976 14.0977 1.57966 20.0976 14.0977 1.57966
237 2 19.9297 14.2161 -1.75989 19.9297 14.2161 -1.75989
238 1 20.9394 15.8165 -0.032924 20.9394 15.8165 -0.032924
239 2 22.8493 15.8211 1.66998 22.8493 15.8211 1.66998
240 2 22.9583 15.7961 -1.59115 22.9583 15.7961 -1.59115
241 1 23.7089 14.1436 0.101927 23.7089 14.1436 0.101927
242 2 25.6347 14.0346 1.80346 25.6347 14.0346 1.80346
243 2 25.7591 14.2489 -1.51016 25.7591 14.2489 -1.51016
244 1 26.6832 15.8274 0.2245 26.6832 15.8274 0.2245
245 2 28.5717 15.6996 1.83535 28.5717 15.6996 1.83535
246 2 28.5857 15.86 -1.39005 28.5857 15.86 -1.39005
247 1 29.5139 14.1078 0.123851 29.5139 14.1078 0.123851
248 2 31.4742 14.1905 1.90257 31.4742 14.1905 1.90257
249 2 31.5915 14.2677 -1.47542 31.5915 14.2677 -1.47542
250 1 32.353 15.8854 0.339722 32.353 15.8854 0.339722
251 2 34.3649 15.9442 1.87732 34.3649 15.9442 1.87732
252 2 34.2321 15.9732 -1.36193 34.2321 15.9732 -1.36193
253 1 35.1854 14.2501 0.181061 35.1854 14.2501 0.181061
254 2 37.0387 14.3559 1.93599 37.0387 14.3559 1.93599
255 2 37.2915 14.0867 -1.29939 37.2915 14.0867 -1.29939
256 1 38.1085 15.8952 0.315947 38.1085 15.8952 0.315947
257 2 40.0334 15.9085 1.93205 40.0334 15.9085 1.93205
258 2 40.0768 15.8588 -1.28563 40.0768 15.8588 -1.28563
259 1 40.981 14.1845 0.290175 40.981 14.1845 0.290175
260 2 42.6584 14.3722 2.12303 42.6584 14.3722 2.12303
261 2 42.9589 13.9197 -1.10284 42.9589 13.9197 -1.10284
262 1 43.8584 15.7967 0.444539 43.8584 15.7967 0.444539
263 2 45.6185 15.8026 2.34804 45.6185 15.8026 2.34804
264 2 45.8582 15.892 -0.956532 45.8582 15.892 -0.956532
265 1 46.6722 14.2442 0.811062 46.6722 14.2442 0.811062
266 2 48.4426 14.2583 2.55621 48.4426 14.2583 2.55621
267 2 48.6933 14.2373 -0.731309 48.6933 14.2373 -0.731309
268 1 49.4991 15.8833 0.979253 49.4991 15.8833 0.979253
269 2 51.182 15.7927 2.86007 51.182 15.7927 2.86007
270 2 51.7133 15.9274 -0.316089 51.7133 15.9274 -0.316089
271 1 1.02622 17.5531 1.43314 1.02622 17.5531 1.43314
272 2 3.12415 17.6362 2.87406 3.12415 17.6362 2.87406
273 2 2.91685 17.3008 -0.277946 2.91685 17.3008 -0.277946
274 1 3.99277 19.1914 0.910119 3.99277 19.1914 0.910119
275 2 5.98478 19.3428 2.4952 5.98478 19.3428 2.4952
276 2 5.85864 18.925 -0.823228 5.85864 18.925 -0.823228
277 1 6.80379 17.474 1.01584 6.80379 17.474 1.01584
278 2 8.84825 17.6028 2.33677 8.84825 17.6028 2.33677
279 2 8.53261 17.4668 -0.781374 8.53261 17.4668 -0.781374
280 1 9.53058 19.1799 0.681995 9.53058 19.1799 0.681995
281 2 11.594 19.2445 2.13311 11.594 19.2445 2.13311
282 2 11.2834 18.9472 -1.04271 11.2834 18.9472 -1.04271
283 1 12.4059 17.579 0.627871 12.4059 17.579 0.627871
284 2 14.584 17.5775 2.01951 14.584 17.5775 2.01951
285 2 14.1377 17.4265 -1.16462 14.1377 17.4265 -1.16462
286 1 15.3419 19.1787 0.22382 15.3419 19.1787 0.22382
287 2 17.4147 19.216 1.73511 17.4147 19.216 1.73511
288 2 17.1748 18.9418 -1.54025 17.1748 18.9418 -1.54025
289 1 18.186 17.4373 0.0972719 18.186 17.4373 0.0972719
290 2 20.0265 17.4654 1.67982 20.0265 17.4654 1.67982
291 2 19.9853 17.5195 -1.55001 19.9853 17.5195 -1.55001
292 1 21.0051 19.154 0.161297 21.0051 19.154 0.161297
293 2 22.9973 19.3318 1.62078 22.9973 19.3318 1.62078
294 2 22.9096 19.0009 -1.56921 22.9096 19.0009 -1.56921
295 1 23.8885 17.47 0.106976 23.8885 17.47 0.106976
296 2 25.8557 17.6243 1.67541 25.8557 17.6243 1.67541
297 2 25.6344 17.3529 -1.57407 25.6344 17.3529 -1.57407
298 1 26.7058 19.1507 -0.0674007 26.7058 19.1507 -0.0674007
299 2 28.5516 19.1456 1.63913 28.5516 19.1456 1.63913
300 2 28.7844 19.0884 -1.52764 28.7844 19.0884 -1.52764
301 1 29.5287 17.4029 0.198072 29.5287 17.4029 0.198072
302 2 31.3702 17.5465 1.88655 31.3702 17.5465 1.88655
303 2 31.4212 17.3991 -1.36324 31.4212 17.3991 -1.36324
304 1 32.347 19.1301 0.22684 32.347 19.1301 0.22684
305 2 34.3874 19.3579 1.72489 34.3874 19.3579 1.72489
306 2 34.226 19.0205 -1.45441 34.226 19.0205 -1.45441
307 1 35.3219 17.5025 0.258073 35.3219 17.5025 0.258073
308 2 37.173 17.5353 1.93699 37.173 17.5353 1.93699
309 2 37.3449 17.5689 -1.42639 37.3449 17.5689 -1.42639
310 1 38.1782 19.1563 0.303635 38.1782 19.1563 0.303635
311 2 40.1484 19.3865 1.96761 40.1484 19.3865 1.96761
312 2 40.041 19.2344 -1.36563 40.041 19.2344 -1.36563
313 1 41.0284 17.5407 0.345205 41.0284 17.5407 0.345205
314 2 42.826 17.611 2.00214 42.826 17.611 2.00214
315 2 42.8581 17.4147 -1.35646 42.8581 17.4147 -1.35646
316 1 43.8517 19.1399 0.20838 43.8517 19.1399 0.20838
317 2 45.4434 19.2334 2.2061 45.4434 19.2334 2.2061
318 2 46.1423 19.1138 -0.995454 46.1423 19.1138 -0.995454
319 1 46.6465 17.5171 0.794302 46.6465 17.5171 0.794302
320 2 48.4087 17.6728 2.42331 48.4087 17.6728 2.42331
321 2 48.5785 17.4234 -0.773067 48.5785 17.4234 -0.773067
322 1 49.527 19.1404 0.83113 49.527 19.1404 0.83113
323 2 51.3147 19.4681 2.58488 51.3147 19.4681 2.58488
324 2 51.6316 18.9017 -0.549826 51.6316 18.9017 -0.549826
325 1 1.03757 20.7571 0.756916 1.03757 20.7571 0.756916
326 2 2.81473 20.8533 2.46049 2.81473 20.8533 2.46049
327 2 2.87516 20.7363 -0.824311 2.87516 20.7363 -0.824311
328 1 3.87495 22.4482 0.765374 3.87495 22.4482 0.765374
329 2 5.96759 22.5527 2.18206 5.96759 22.5527 2.18206
330 2 5.64109 22.4077 -1.0105 5.64109 22.4077 -1.0105
331 1 6.81373 20.8343 0.641201 6.81373 20.8343 0.641201
332 2 8.73257 20.9806 2.10056 8.73257 20.9806 2.10056
333 2 8.61399 20.6906 -1.05638 8.61399 20.6906 -1.05638
334 1 9.59387 22.4554 0.28788 9.59387 22.4554 0.28788
335 2 11.6306 22.6155 1.79418 11.6306 22.6155 1.79418
336 2 11.4256 22.1443 -1.52143 11.4256 22.1443 -1.52143
337 1 12.3885 20.7209 0.295849 12.3885 20.7209 0.295849
338 2 14.3922 20.8437 1.87351 14.3922 20.8437 1.87351
339 2 14.1574 20.7288 -1.44643 14.1574 20.7288 -1.44643
340 1 15.2333 22.3956 0.0877088 15.2333 22.3956 0.0877088
341 2 17.2657 22.3331 1.61459 17.2657 22.3331 1.61459
342 2 17.0986 22.4129 -1.59371 17.0986 22.4129 -1.59371
343 1 18.2022 20.7651 -0.0890556 18.2022 20.7651 -0.0890556
344 2 19.9574 20.9238 1.60836 19.9574 20.9238 1.60836
345 2 20.0447 20.7582 -1.5902 20.0447 20.7582 -1.5902
346 1 21.0094 22.4453 0.029884 21.0094 22.4453 0.029884
347 2 23.1313 22.6866 1.3193 23.1313 22.6866 1.3193
348 2 22.7504 22.2481 -1.87729 22.7504 22.2481 -1.87729
349 1 23.9149 20.79 -0.195166 23.9149 20.79 -0.195166
350 2 25.6463 20.9626 1.61706 25.6463 20.9626 1.61706
351 2 25.7947 20.7606 -1.77545 25.7947 20.7606 -1.77545
352 1 26.76 22.3997 -0.111727 26.76 22.3997 -0.111727
353 2 28.6095 22.5153 1.4984 28.6095 22.5153 1.4984
354 2 28.7595 22.2801 -1.79549 28.7595 22.2801 -1.79549
355 1 29.5207 20.8142 0.000451312 29.5207 20.8142 0.000451312
356 2 31.4872 21.027 1.64294 31.4872 21.027 1.64294
357 2 31.3469 20.5334 -1.6224 31.3469 20.5334 -1.6224
358 1 32.449 22.4329 -0.227265 32.449 22.4329 -0.227265
359 2 34.3295 22.5543 1.48946 34.3295 22.5543 1.48946
360 2 34.3434 22.3166 -1.83071 34.3434 22.3166 -1.83071
361 1 35.2726 20.8555 -0.0837111 35.2726 20.8555 -0.0837111
362 2 37.0361 20.8628 1.70998 37.0361 20.8628 1.70998
363 2 37.3205 20.6761 -1.51166 37.3205 20.6761 -1.51166
364 1 38.1976 22.4114 -0.0576906 38.1976 22.4114 -0.0576906
365 2 39.9992 22.5791 1.64077 39.9992 22.5791 1.64077
366 2 40.1128 22.3122 -1.54941 40.1128 22.3122 -1.54941
367 1 41.0388 20.8127 0.212123 41.0388 20.8127 0.212123
368 2 42.8975 20.8927 1.89303 42.8975 20.8927 1.89303
369 2 42.9283 20.7995 -1.40675 42.9283 20.7995 -1.40675
370 1 43.9892 22.4388 0.184415 43.9892 22.4388 0.184415
371 2 45.7022 22.6785 2.09024 45.7022 22.6785 2.09024
372 2 45.9828 22.0344 -1.12323 45.9828 22.0344 -1.12323
373 1 46.6567 20.7671 0.759394 46.6567 20.7671 0.759394
374 2 48.5663 20.854 2.43985 48.5663 20.854 2.43985
375 2 48.4826 20.7613 -0.802413 48.4826 20.7613 -0.802413
376 1 49.5272 22.4112 0.757641 49.5272 22.4112 0.757641
377 2 51.5921 22.6044 2.30352 51.5921 22.6044 2.30352
378 2 51.3081 22.2287 -0.985341 51.3081 22.2287 -0.985341
379 1 1.07338 24.0484 0.48964 1.07338 24.0484 0.48964
380 2 2.89944 24.2045 2.3282 2.89944 24.2045 2.3282
381 2 3.14019 24.1774 -1.03167 3.14019 24.1774 -1.03167
382 1 3.85586 25.8646 0.664112 3.85586 25.8646 0.664112
383 2 5.87514 25.7004 2.15734 5.87514 25.7004 2.15734
384 2 5.64736 25.8532 -1.09522 5.64736 25.8532 -1.09522
385 1 6.73965 24.1485 0.391876 6.73965 24.1485 0.391876
386 2 8.82151 24.3077 1.86175 8.82151 24.3077 1.86175
387 2 8.35834 24.1041 -1.44276 8.35834 24.1041 -1.44276
388 1 9.6168 25.7609 -0.0244596 9.6168 25.7609 -0.0244596
389 2 11.6826 25.6954 1.4833 11.6826 25.6954 1.4833
390 2 11.3643 25.5871 -1.87251 11.3643 25.5871 -1.87251
391 1 12.5095 24.0393 -0.121242 12.5095 24.0393 -0.121242
392 2 14.4468 24.3615 1.38195 14.4468 24.3615 1.38195
393 2 14.2911 23.7822 -1.79176 14.2911 23.7822 -1.79176
394 1 15.2584 25.6765 -0.532053 15.2584 25.6765 -0.532053
395 2 17.1177 25.9003 1.29835 17.1177 25.9003 1.29835
396 2 17.3554 25.4891 -1.93732 17.3554 25.4891 -1.93732
397 1 18.1659 24.0148 -0.0339858 18.1659 24.0148 -0.0339858
398 2 20.1514 24.3933 1.37459 20.1514 24.3933 1.37459
399 2 19.8931 23.7465 -1.80342 19.8931 23.7465 -1.80342
400 1 20.9681 25.6933 -0.644094 20.9681 25.6933 -0.644094
401 2 22.8612 25.7234 0.937905 22.8612 25.7234 0.937905
402 2 22.9412 25.7636 -2.24542 22.9412 25.7636 -2.24542
403 1 23.8715 24.0752 -0.596475 23.8715 24.0752 -0.596475
404 2 25.6509 24.2445 1.22275 25.6509 24.2445 1.22275
405 2 25.8047 23.801 -2.03049 25.8047 23.801 -2.03049
406 1 26.6756 25.7772 -0.592734 26.6756 25.7772 -0.592734
407 2 28.5114 26.0346 1.07549 28.5114 26.0346 1.07549
408 2 28.6498 25.6205 -2.16982 28.6498 25.6205 -2.16982
409 1 29.6473 24.1369 -0.204764 29.6473 24.1369 -0.204764
410 2 31.6195 24.303 1.22783 31.6195 24.303 1.22783
411 2 31.4007 23.9386 -2.054 31.4007 23.9386 -2.054
412 1 32.5183 25.6671 -0.620878 32.5183 25.6671 -0.620878
413 2 34.2305 25.8938 1.07274 34.2305 25.8938 1.07274
414 2 34.4873 25.6857 -2.10832 34.4873 25.6857 -2.10832
415 1 35.316 24.0731 -0.216435 35.316 24.0731 -0.216435
416 2 37.0817 24.0788 1.39245 37.0817 24.0788 1.39245
417 2 37.2302 23.9198 -1.81417 37.2302 23.9198 -1.81417
418 1 38.1257 25.6456 -0.247513 38.1257 25.6456 -0.247513
419 2 39.9478 25.8467 1.40399 39.9478 25.8467 1.40399
420 2 40.075 25.5791 -1.81444 40.075 25.5791 -1.81444
421 1 41.0366 24.043 -0.0393804 41.0366 24.043 -0.0393804
422 2 42.9039 24.1219 1.64329 42.9039 24.1219 1.64329
423 2 42.9671 23.8958 -1.64738 42.9671 23.8958 -1.64738
424 1 43.7357 25.7333 -0.147203 43.7357 25.7333 -0.147203
425 2 45.5389 25.8787 1.72119 45.5389 25.8787 1.72119
426 2 45.8869 25.5139 -1.61035 45.8869 25.5139 -1.61035
427 1 46.7019 24.0588 0.347327 46.7019 24.0588 0.347327
428 2 48.3905 24.1522 2.1421 48.3905 24.1522 2.1421
429 2 48.8308 23.9533 -1.1134 48.8308 23.9533 -1.1134
430 1 49.5383 25.736 0.551704 49.5383 25.736 0.551704
431 2 51.5111 25.7313 2.07938 51.5111 25.7313 2.07938
432 2 51.3747 25.6344 -1.13613 51.3747 25.6344 -1.13613
433 1 1.00567 27.3994 0.425008 1.00567 27.3994 0.425008
434 2 2.79353 27.5438 2.11003 2.79353 27.5438 2.11003
435 2 2.97047 27.2377 -1.20507 2.97047 27.2377 -1.20507
436 1 3.88341 29.0698 0.340577 3.88341 29.0698 0.340577
437 2 5.8 29.3587 1.93465 5.8 29.3587 1.93465
438 2 5.70529 28.8078 -1.36753 5.70529 28.8078 -1.36753
439 1 6.71024 27.4606 0.504914 6.71024 27.4606 0.504914
440 2 9.03882 27.4953 1.63465 9.03882 27.4953 1.63465
441 2 8.30207 27.2408 -1.44604 8.30207 27.2408 -1.44604
442 1 9.53081 29.0801 -0.322099 9.53081 29.0801 -0.322099
443 2 11.534 29.0778 1.23318 11.534 29.0778 1.23318
444 2 11.4703 29.0279 -2.00631 11.4703 29.0279 -2.00631
445 1 12.4389 27.3511 -0.351218 12.4389 27.3511 -0.351218
446 2 14.4652 27.4402 1.05879 14.4652 27.4402 1.05879
447 2 14.0932 27.1634 -2.16938 14.0932 27.1634 -2.16938
448 1 15.2337 28.8582 -0.73987 15.2337 28.8582 -0.73987
449 2 17.1527 29.1329 0.910427 17.1527 29.1329 0.910427
450 2 17.1968 28.5879 -2.3373 17.1968 28.5879 -2.3373
451 1 18.1777 27.308 -0.403974 18.1777 27.308 -0.403974
452 2 20.2912 27.4272 1.01951 20.2912 27.4272 1.01951
453 2 19.8557 27.2657 -2.22668 19.8557 27.2657 -2.22668
454 1 21.022 28.991 -0.854841 21.022 28.991 -0.854841
455 2 22.9149 29.366 0.720506 22.9149 29.366 0.720506
456 2 23.0251 28.8046 -2.52239 23.0251 28.8046 -2.52239
457 1 23.838 27.4861 -0.582317 23.838 27.4861 -0.582317
458 2 25.8942 27.576 0.944101 25.8942 27.576 0.944101
459 2 25.6257 27.338 -2.32392 25.6257 27.338 -2.32392
460 1 26.6946 29.0672 -0.92466 26.6946 29.0672 -0.92466
461 2 28.4815 29.1323 0.835206 28.4815 29.1323 0.835206
462 2 28.7173 28.9724 -2.364 28.7173 28.9724 -2.364
463 1 29.5648 27.3735 -0.69881 29.5648 27.3735 -0.69881
464 2 31.5682 27.4194 0.829999 31.5682 27.4194 0.829999
465 2 31.5092 27.2331 -2.43499 31.5092 27.2331 -2.43499
466 1 32.4782 28.9303 -0.867982 32.4782 28.9303 -0.867982
467 2 34.2101 29.137 0.903422 34.2101 29.137 0.903422
468 2 34.6589 28.8629 -2.22647 34.6589 28.8629 -2.22647
469 1 35.3272 27.4474 -0.428816 35.3272 27.4474 -0.428816
470 2 37.2498 27.5468 1.1864 37.2498 27.5468 1.1864
471 2 37.2196 27.0818 -2.06624 37.2196 27.0818 -2.06624
472 1 38.1953 28.9728 -0.617298 38.1953 28.9728 -0.617298
473 2 39.9421 29.112 1.1489 39.9421 29.112 1.1489
474 2 40.2596 28.889 -2.15607 40.2596 28.889 -2.15607
475 1 40.9992 27.406 -0.350804 40.9992 27.406 -0.350804
476 2 42.7115 27.3788 1.44424 42.7115 27.3788 1.44424
477 2 42.9267 27.3454 -1.74286 42.9267 27.3454 -1.74286
478 1 43.8222 29.0349 -0.0892899 43.8222 29.0349 -0.0892899
479 2 45.6758 29.0421 1.52024 45.6758 29.0421 1.52024
480 2 45.6295 28.9474 -1.71413 45.6295 28.9474 -1.71413
481 1 46.6581 27.3971 -0.0568933 46.6581 27.3971 -0.0568933
482 2 48.473 27.5303 1.77011 48.473 27.5303 1.77011
483 2 48.6637 27.145 -1.40532 48.6637 27.145 -1.40532
484 1 49.5228 28.9869 0.094239 49.5228 28.9869 0.094239
485 2 51.3661 29.139 1.85891 51.3661 29.139 1.85891
486 2 51.5733 28.7992 -1.39636 51.5733 28.7992 -1.39636
487 1 1.01494 30.6989 0.109962 1.01494 30.6989 0.109962
488 2 3.06769 31.0383 1.58877 3.06769 31.0383 1.58877
489 2 2.89904 30.3331 -1.57091 2.89904 30.3331 -1.57091
490 1 3.95642 32.3407 -0.380123 3.95642 32.3407 -0.380123
491 2 5.78459 32.5651 1.24231 5.78459 32.5651 1.24231
492 2 5.85858 32.1027 -2.00921 5.85858 32.1027 -2.00921
493 1 6.72908 30.7188 -0.167198 6.72908 30.7188 -0.167198
494 2 8.71757 30.7267 1.34503 8.71757 30.7267 1.34503
495 2 8.59116 30.7147 -1.9051 8.59116 30.7147 -1.9051
496 1 9.58365 32.3481 -0.260315 9.58365 32.3481 -0.260315
497 2 11.7108 32.297 1.19529 11.7108 32.297 1.19529
498 2 11.2932 32.3117 -2.07942 11.2932 32.3117 -2.07942
499 1 12.4047 30.6579 -0.484657 12.4047 30.6579 -0.484657
500 2 14.4331 30.5346 0.958522 14.4331 30.5346 0.958522
501 2 14.2219 30.6374 -2.28033 14.2219 30.6374 -2.28033
502 1 15.269 32.2461 -0.722795 15.269 32.2461 -0.722795
503 2 17.3262 32.3139 0.680926 17.3262 32.3139 0.680926
504 2 16.9645 32.1116 -2.51456 16.9645 32.1116 -2.51456
505 1 18.1132 30.5814 -0.956783 18.1132 30.5814 -0.956783
506 2 20.0599 30.6945 0.619242 20.0599 30.6945 0.619242
507 2 19.9565 30.5235 -2.68845 19.9565 30.5235 -2.68845
508 1 21.0257 32.1789 -1.17151 21.0257 32.1789 -1.17151
509 2 22.9784 32.3621 0.524226 22.9784 32.3621 0.524226
510 2 22.8726 32.3016 -2.78979 22.8726 32.3016 -2.78979
511 1 23.9341 30.713 -1.20979 23.9341 30.713 -1.20979
512 2 25.7773 30.9564 0.477665 25.7773 30.9564 0.477665
513 2 25.8994 30.5025 -2.80746 25.8994 30.5025 -2.80746
514 1 26.6927 32.4059 -1.33757 26.6927 32.4059 -1.33757
515 2 28.4135 32.5308 0.590408 28.4135 32.5308 0.590408
516 2 28.7408 32.2335 -2.65922 28.7408 32.2335 -2.65922
517 1 29.5519 30.6694 -0.784729 29.5519 30.6694 -0.784729
518 2 31.475 30.5496 0.901684 31.475 30.5496 0.901684
519 2 31.4814 30.6914 -2.42643 31.4814 30.6914 -2.42643
520 1 32.4265 32.1948 -0.715079 32.4265 32.1948 -0.715079
521 2 34.349 32.4275 0.880749 34.349 32.4275 0.880749
522 2 34.3505 32.2174 -2.37851 34.3505 32.2174 -2.37851
523 1 35.3716 30.6785 -0.654288 35.3716 30.6785 -0.654288
524 2 37.248 30.7625 1.02501 37.248 30.7625 1.02501
525 2 37.2965 30.593 -2.29004 37.2965 30.593 -2.29004
526 1 38.1958 32.3299 -0.664397 38.1958 32.3299 -0.664397
527 2 39.8968 32.1749 1.09694 39.8968 32.1749 1.09694
528 2 40.274 32.5279 -2.04492 40.274 32.5279 -2.04492
529 1 41.0443 30.7048 -0.581184 41.0443 30.7048 -0.581184
530 2 42.6596 30.8316 1.18899 42.6596 30.8316 1.18899
531 2 43.1226 30.6195 -1.96346 43.1226 30.6195 -1.96346
532 1 43.9096 32.3311 -0.323603 43.9096 32.3311 -0.323603
533 2 45.722 32.2507 1.34287 45.722 32.2507 1.34287
534 2 45.8041 32.4664 -1.84002 45.8041 32.4664 -1.84002
535 1 46.7265 30.6515 -0.22716 46.7265 30.6515 -0.22716
536 2 48.4405 30.7334 1.57817 48.4405 30.7334 1.57817
537 2 48.7082 30.5919 -1.69461 48.7082 30.5919 -1.69461
538 1 49.5895 32.3075 0.0122425 49.5895 32.3075 0.0122425
539 2 51.6246 32.5477 1.58121 51.6246 32.5477 1.58121