ITEM: TIMESTEP
85900
ITEM: NUMBER OF ATOMS
810
ITEM: BOX BOUNDS pp pp pp
7.4640273819848424e-01 5.2271202261801967e+01
7.7067242766869171e-01 5.0245542572330550e+01
-1.0000000000000000e+01 1.0000000000000000e+01
ITEM: ATOMS id type x y z xu yu zu
1 1 0.900136 0.917666 -0.838961 0.900136 0.917666 -0.838961
2 2 2.60557 1.12317 1.06017 2.60557 1.12317 1.06017
3 2 2.95363 0.847832 -2.26216 2.95363 0.847832 -2.26216
4 1 3.67707 2.73151 -0.614783 3.67707 2.73151 -0.614783
5 2 5.61611 2.70129 0.991557 5.61611 2.70129 0.991557
6 2 5.68479 2.53732 -2.3164 5.68479 2.53732 -2.3164
7 1 6.58596 0.988155 -0.525062 6.58596 0.988155 -0.525062
8 2 8.50654 1.08292 1.07622 8.50654 1.08292 1.07622
9 2 8.59646 0.953111 -2.0935 8.59646 0.953111 -2.0935
10 1 9.45181 2.63336 -0.561196 9.45181 2.63336 -0.561196
11 2 11.1925 2.9289 1.28349 11.1925 2.9289 1.28349
12 2 11.4606 2.517 -1.91455 11.4606 2.517 -1.91455
13 1 12.2796 1.08129 -0.0609979 12.2796 1.08129 -0.0609979
14 2 14.1083 1.21698 1.66907 14.1083 1.21698 1.66907
15 2 14.2048 0.863927 -1.56848 14.2048 0.863927 -1.56848
16 1 15.1511 2.6843 -0.0713173 15.1511 2.6843 -0.0713173
17 2 17.0654 2.78531 1.58186 17.0654 2.78531 1.58186
18 2 17.0968 2.60732 -1.63404 17.0968 2.60732 -1.63404
19 1 18.0706 1.00382 -0.0110788 18.0706 1.00382 -0.0110788
20 2 20.0427 1.05289 1.43461 20.0427 1.05289 1.43461
21 2 19.8897 1.03908 -1.72029 19.8897 1.03908 -1.72029
22 1 20.8736 2.71145 -0.26417 20.8736 2.71145 -0.26417
23 2 22.8781 2.68321 1.24221 22.8781 2.68321 1.24221
24 2 22.7549 2.71405 -1.90041 22.7549 2.71405 -1.90041
25 1 23.8289 1.04139 -0.315542 23.8289 1.04139 -0.315542
26 2 25.7879 1.07991 1.29278 25.7879 1.07991 1.29278
27 2 25.6874 0.862195 -2.01136 25.6874 0.862195 -2.01136
28 1 26.713 2.70851 -0.430999 26.713 2.70851 -0.430999
29 2 28.5697 2.82668 1.2418 28.5697 2.82668 1.2418
30 2 28.6498 2.29691 -1.93983 28.6498 2.29691 -1.93983
31 1 29.637 0.990572 -0.0761347 29.637 0.990572 -0.0761347
32 2 31.7043 1.10528 1.45608 31.7043 1.10528 1.45608
33 2 31.4596 0.830317 -1.76268 31.4596 0.830317 -1.76268
34 1 32.4319 2.66848 -0.355022 32.4319 2.66848 -0.355022
35 2 34.449 2.47674 1.38708 34.449 2.47674 1.38708
36 2 34.358 2.78027 -1.93809 34.358 2.78027 -1.93809
37 1 35.3776 0.928389 -0.3236 35.3776 0.928389 -0.3236
38 2 37.1816 1.15468 1.38763 37.1816 1.15468 1.38763
39 2 37.2986 0.923602 -1.78775 37.2986 0.923602 -1.78775
40 1 38.1502 2.63447 -0.370706 38.1502 2.63447 -0.370706
41 2 40.0992 2.67555 1.22247 40.0992 2.67555 1.22247
42 2 40.0233 2.40347 -2.00127 40.0233 2.40347 -2.00127
43 1 41.0292 0.913023 -0.345467 41.0292 0.913023 -0.345467
44 2 43.0246 0.999158 1.25605 43.0246 0.999158 1.25605
45 2 42.8204 0.924069 -2.01801 42.8204 0.924069 -2.01801
46 1 43.8985 2.52244 -0.470486 43.8985 2.52244 -0.470486
47 2 45.8234 2.60718 1.20634 45.8234 2.60718 1.20634
48 2 45.661 2.51093 -2.12556 45.661 2.51093 -2.12556
49 1 46.6919 0.904459 -0.434407 46.6919 0.904459 -0.434407
50 2 48.8546 1.00087 0.891511 48.8546 1.00087 0.891511
51 2 48.3661 0.890883 -2.33938 48.3661 0.890883 -2.33938
52 1 49.5707 2.5787 -0.929917 49.5707 2.5787 -0.929917
53 2 51.3372 2.46563 0.763265 51.3372 2.46563 0.763265
54 2 51.5638 2.67346 -2.47301 51.5638 2.67346 -2.47301
55 1 0.923041 4.24142 -0.698134 0.923041 4.24142 -0.698134
56 2 2.62832 4.30085 0.999814 2.62832 4.30085 0.999814
57 2 2.86693 4.31237 -2.28912 2.86693 4.31237 -2.28912
58 1 3.75808 5.93353 -0.591798 3.75808 5.93353 -0.591798
59 2 5.79046 5.78866 0.912204 5.79046 5.78866 0.912204
60 2 5.65207 5.93758 -2.35747 5.65207 5.93758 -2.35747
61 1 6.60319 4.27918 -0.774552 6.60319 4.27918 -0.774552
62 2 8.36027 4.35379 1.0145 8.36027 4.35379 1.0145
63 2 8.70198 4.24705 -2.29473 8.70198 4.24705 -2.29473
64 1 9.49458 5.84789 -0.509418 9.49458 5.84789 -0.509418
65 2 11.44 6.08357 1.10752 11.44 6.08357 1.10752
66 2 11.386 5.90459 -2.13852 11.386 5.90459 -2.13852
67 1 12.403 4.38153 -0.469152 12.403 4.38153 -0.469152
68 2 14.1898 4.61483 1.24682 14.1898 4.61483 1.24682
69 2 14.4406 4.24924 -1.94043 14.4406 4.24924 -1.94043
70 1 15.2751 6.0734 -0.556017 15.2751 6.0734 -0.556017
71 2 17.0296 6.07095 1.25555 17.0296 6.07095 1.25555
72 2 17.2337 5.85531 -1.92273 17.2337 5.85531 -1.92273
73 1 17.9871 4.37098 -0.172878 17.9871 4.37098 -0.172878
74 2 19.999 4.45512 1.38404 19.999 4.45512 1.38404
75 2 19.9701 4.24146 -1.88828 19.9701 4.24146 -1.88828
76 1 20.9299 5.94873 -0.347082 20.9299 5.94873 -0.347082
77 2 22.9373 6.03569 1.16054 22.9373 6.03569 1.16054
78 2 22.7833 5.86593 -1.99011 22.7833 5.86593 -1.99011
79 1 23.8284 4.27862 -0.353755 23.8284 4.27862 -0.353755
80 2 25.8 4.39953 1.12752 25.8 4.39953 1.12752
81 2 25.6507 4.40832 -2.06941 25.6507 4.40832 -2.06941
82 1 26.6734 6.00678 -0.497842 26.6734 6.00678 -0.497842
83 2 28.7066 6.04019 1.14734 28.7066 6.04019 1.14734
84 2 28.5745 5.91573 -2.12728 28.5745 5.91573 -2.12728
85 1 29.6131 4.26386 -0.558351 29.6131 4.26386 -0.558351
86 2 31.3534 4.28119 1.21465 31.3534 4.28119 1.21465
87 2 31.6397 4.39687 -2.01938 31.6397 4.39687 -2.01938
88 1 32.4583 5.91611 -0.306029 32.4583 5.91611 -0.306029
89 2 34.293 5.93988 1.34324 34.293 5.93988 1.34324
90 2 34.3698 5.87984 -1.95002 34.3698 5.87984 -1.95002
91 1 35.2828 4.28476 -0.206634 35.2828 4.28476 -0.206634
92 2 37.2972 4.21296 1.38537 37.2972 4.21296 1.38537
93 2 37.1236 4.27525 -1.92365 37.1236 4.27525 -1.92365
94 1 38.1765 5.94254 -0.361643 38.1765 5.94254 -0.361643
95 2 40.0623 5.86259 1.25646 40.0623 5.86259 1.25646
96 2 40.0266 6.00341 -2.01427 40.0266 6.00341 -2.01427
97 1 40.982 4.21005 -0.531045 40.982 4.21005 -0.531045
98 2 42.861 4.16812 1.21971 42.861 4.16812 1.21971
99 2 42.9715 4.23451 -2.11374 42.9715 4.23451 -2.11374
100 1 43.8224 5.81388 -0.379018 43.8224 5.81388 -0.379018
101 2 45.77 5.95585 1.13644 45.77 5.95585 1.13644
102 2 45.6503 5.79179 -2.13811 45.6503 5.79179 -2.13811
103 1 46.7086 4.2265 -0.531782 46.7086 4.2265 -0.531782
104 2 48.7401 4.13243 0.92422 48.7401 4.13243 0.92422
105 2 48.5551 4.21098 -2.41265 48.5551 4.21098 -2.41265
106 1 49.522 5.93995 -0.725537 49.522 5.93995 -0.725537
107 2 51.5011 5.86121 0.836508 51.5011 5.86121 0.836508
108 2 51.3388 5.88219 -2.37653 51.3388 5.88219 -2.37653
109 1 0.981622 7.45794 -0.870897 0.981622 7.45794 -0.870897
110 2 2.70615 7.63548 0.909858 2.70615 7.63548 0.909858
111 2 2.98486 7.55058 -2.36059 2.98486 7.55058 -2.36059
112 1 3.80176 9.22181 -0.664048 3.80176 9.22181 -0.664048
113 2 5.73743 9.29415 0.953779 5.73743 9.29415 0.953779
114 2 5.69221 9.23278 -2.28881 5.69221 9.23278 -2.28881
115 1 6.65558 7.60218 -0.674253 6.65558 7.60218 -0.674253
116 2 8.53245 7.62957 1.03393 8.53245 7.62957 1.03393
117 2 8.57664 7.53496 -2.27707 8.57664 7.53496 -2.27707
118 1 9.45277 9.14432 -0.723389 9.45277 9.14432 -0.723389
119 2 11.4247 9.39345 0.902602 11.4247 9.39345 0.902602
120 2 11.4237 9.26723 -2.32194 11.4237 9.26723 -2.32194
121 1 12.3282 7.65039 -0.574893 12.3282 7.65039 -0.574893
122 2 14.2598 7.67207 1.06618 14.2598 7.67207 1.06618
123 2 14.3028 7.65674 -2.14548 14.3028 7.65674 -2.14548
124 1 15.1589 9.32751 -0.45749 15.1589 9.32751 -0.45749
125 2 17.0189 9.26623 1.24313 17.0189 9.26623 1.24313
126 2 17.1503 9.35324 -1.98512 17.1503 9.35324 -1.98512
127 1 18.0843 7.62855 -0.3211 18.0843 7.62855 -0.3211
128 2 20.0025 7.64173 1.3204 20.0025 7.64173 1.3204
129 2 20.0352 7.63012 -1.96259 20.0352 7.63012 -1.96259
130 1 20.9235 9.33902 -0.409752 20.9235 9.33902 -0.409752
131 2 22.8751 9.18294 1.20115 22.8751 9.18294 1.20115
132 2 22.8341 9.42518 -1.97447 22.8341 9.42518 -1.97447
133 1 23.7638 7.6412 -0.534081 23.7638 7.6412 -0.534081
134 2 25.8335 7.75131 1.02923 25.8335 7.75131 1.02923
135 2 25.6184 7.50618 -2.23927 25.6184 7.50618 -2.23927
136 1 26.639 9.25604 -0.726529 26.639 9.25604 -0.726529
137 2 28.5729 9.16455 1.0155 28.5729 9.16455 1.0155
138 2 28.6522 9.29266 -2.28257 28.6522 9.29266 -2.28257
139 1 29.5712 7.63393 -0.660756 29.5712 7.63393 -0.660756
140 2 31.3174 7.62053 1.12502 31.3174 7.62053 1.12502
141 2 31.627 7.6014 -2.06356 31.627 7.6014 -2.06356
142 1 32.4445 9.21769 -0.44973 32.4445 9.21769 -0.44973
143 2 34.2395 9.18193 1.19114 34.2395 9.18193 1.19114
144 2 34.4361 9.06987 -1.99223 34.4361 9.06987 -1.99223
145 1 35.2872 7.56426 -0.340052 35.2872 7.56426 -0.340052
146 2 37.1465 7.55941 1.26716 37.1465 7.55941 1.26716
147 2 37.1677 7.54121 -1.91245 37.1677 7.54121 -1.91245
148 1 38.1059 9.28661 -0.355757 38.1059 9.28661 -0.355757
149 2 40.0133 9.37456 1.26799 40.0133 9.37456 1.26799
150 2 40.1577 9.18769 -2.04556 40.1577 9.18769 -2.04556
151 1 41.0496 7.53668 -0.23645 41.0496 7.53668 -0.23645
152 2 43.1925 7.54891 1.28683 43.1925 7.54891 1.28683
153 2 42.8084 7.49361 -1.98468 42.8084 7.49361 -1.98468
154 1 43.8857 9.12578 -0.508702 43.8857 9.12578 -0.508702
155 2 45.9294 9.26767 0.978083 45.9294 9.26767 0.978083
156 2 45.6987 9.04482 -2.27822 45.6987 9.04482 -2.27822
157 1 46.6404 7.53163 -0.624432 46.6404 7.53163 -0.624432
158 2 48.7719 7.67358 0.9548 48.7719 7.67358 0.9548
159 2 48.4894 7.50908 -2.32241 48.4894 7.50908 -2.32241
160 1 49.611 9.20644 -0.783923 49.611 9.20644 -0.783923
161 2 51.4785 9.17415 0.742487 51.4785 9.17415 0.742487
162 2 51.4513 9.25271 -2.50852 51.4513 9.25271 -2.50852
163 1 1.0456 10.8386 -0.787281 1.0456 10.8386 -0.787281
164 2 2.8231 10.86 0.892224 2.8231 10.86 0.892224
165 2 2.97318 10.9514 -2.34019 2.97318 10.9514 -2.34019
166 1 3.91948 12.5104 -0.64523 3.91948 12.5104 -0.64523
167 2 5.76308 12.4171 1.0633 5.76308 12.4171 1.0633
168 2 5.86635 12.5804 -2.29243 5.86635 12.5804 -2.29243
169 1 6.77845 10.8023 -0.652767 6.77845 10.8023 -0.652767
170 2 8.59579 10.7148 1.01703 8.59579 10.7148 1.01703
171 2 8.64659 10.9278 -2.25063 8.64659 10.9278 -2.25063
172 1 9.584 12.5107 -0.57936 9.584 12.5107 -0.57936
173 2 11.5607 12.4731 0.98737 11.5607 12.4731 0.98737
174 2 11.3945 12.5166 -2.23011 11.3945 12.5166 -2.23011
175 1 12.4352 10.9343 -0.692893 12.4352 10.9343 -0.692893
176 2 14.2863 11.1095 0.977142 14.2863 11.1095 0.977142
177 2 14.3534 10.7633 -2.21286 14.3534 10.7633 -2.21286
178 1 15.2283 12.6008 -0.738546 15.2283 12.6008 -0.738546
179 2 17.0389 12.8824 1.07033 17.0389 12.8824 1.07033
180 2 17.25 12.3927 -2.20175 17.25 12.3927 -2.20175
181 1 18.0809 10.9014 -0.321059 18.0809 10.9014 -0.321059
182 2 19.9666 10.8906 1.25645 19.9666 10.8906 1.25645
183 2 19.9747 10.9864 -2.00137 19.9747 10.9864 -2.00137
184 1 20.9304 12.6207 -0.27716 20.9304 12.6207 -0.27716
185 2 22.8763 12.7565 1.39962 22.8763 12.7565 1.39962
186 2 22.8363 12.5076 -1.86777 22.8363 12.5076 -1.86777
187 1 23.8487 10.9745 -0.13461 23.8487 10.9745 -0.13461
188 2 26.0104 10.8192 1.11823 26.0104 10.8192 1.11823
189 2 25.4286 11.0042 -2.06873 25.4286 11.0042 -2.06873
190 1 26.6797 12.5871 -0.60644 26.6797 12.5871 -0.60644
191 2 28.5855 12.4091 1.06524 28.5855 12.4091 1.06524
192 2 28.7038 12.5621 -2.17837 28.7038 12.5621 -2.17837
193 1 29.5039 10.8804 -0.561036 29.5039 10.8804 -0.561036
194 2 31.2715 10.8405 1.17697 31.2715 10.8405 1.17697
195 2 31.6267 10.9627 -2.02238 31.6267 10.9627 -2.02238
196 1 32.4144 12.4251 -0.29864 32.4144 12.4251 -0.29864
197 2 34.2295 12.4984 1.32171 34.2295 12.4984 1.32171
198 2 34.3653 12.3947 -1.93195 34.3653 12.3947 -1.93195
199 1 35.311 10.8495 -0.357001 35.311 10.8495 -0.357001
200 2 37.3273 11.0282 1.25094 37.3273 11.0282 1.25094
201 2 37.23 10.7421 -2.07417 37.23 10.7421 -2.07417
202 1 38.1196 12.5177 -0.55855 38.1196 12.5177 -0.55855
203 2 40.0512 12.6533 0.97219 40.0512 12.6533 0.97219
204 2 39.9455 12.2623 -2.28522 39.9455 12.2623 -2.28522
205 1 41.0502 10.9047 -0.484382 41.0502 10.9047 -0.484382
206 2 43.1136 11.02 0.940005 43.1136 11.02 0.940005
207 2 42.8028 10.5959 -2.30727 42.8028 10.5959 -2.30727
208 1 43.9416 12.4655 -0.80499 43.9416 12.4655 -0.80499
209 2 45.9059 12.5441 0.687869 45.9059 12.5441 0.687869
210 2 45.7424 12.3745 -2.56386 45.7424 12.3745 -2.56386
211 1 46.6882 10.7291 -0.85018 46.6882 10.7291 -0.85018
212 2 48.7162 10.8482 0.786622 48.7162 10.8482 0.786622
213 2 48.5912 10.6123 -2.50142 48.5912 10.6123 -2.50142
214 1 49.6293 12.4355 -0.98364 49.6293 12.4355 -0.98364
215 2 51.4423 12.4626 0.824347 51.4423 12.4626 0.824347
216 2 51.7436 12.4529 -2.43618 51.7436 12.4529 -2.43618
217 1 0.943747 14.0922 -0.617992 0.943747 14.0922 -0.617992
218 2 2.94133 14.1557 0.952788 2.94133 14.1557 0.952788
219 2 2.81578 14.0647 -2.31692 2.81578 14.0647 -2.31692
220 1 3.73668 15.8013 -0.762709 3.73668 15.8013 -0.762709
221 2 5.56407 15.9037 0.890109 5.56407 15.9037 0.890109
222 2 5.75976 15.7978 -2.32102 5.75976 15.7978 -2.32102
223 1 6.64225 14.1633 -0.521595 6.64225 14.1633 -0.521595
224 2 8.58447 14.2737 1.12063 8.58447 14.2737 1.12063
225 2 8.49301 14.0297 -2.20804 8.49301 14.0297 -2.20804
226 1 9.54329 15.9047 -0.673764 9.54329 15.9047 -0.673764
227 2 11.4318 15.7916 0.991091 11.4318 15.7916 0.991091
228 2 11.4138 15.9934 -2.22086 11.4138 15.9934 -2.22086
229 1 12.3439 14.1995 -0.690045 12.3439 14.1995 -0.690045
230 2 14.3122 14.2344 0.876585 14.3122 14.2344 0.876585
231 2 14.2258 14.2812 -2.35132 14.2258 14.2812 -2.35132
232 1 15.2966 15.8906 -0.711895 15.2966 15.8906 -0.711895
233 2 17.1942 15.9825 0.885955 17.1942 15.9825 0.885955
234 2 17.2092 15.9122 -2.34825 17.2092 15.9122 -2.34825
235 1 18.1211 14.1968 -0.678397 18.1211 14.1968 -0.678397
236 2 19.8229 14.2391 1.18354 19.8229 14.2391 1.18354
237 2 20.2593 14.1883 -2.07862 20.2593 14.1883 -2.07862
238 1 20.9453 15.912 -0.415209 20.9453 15.912 -0.415209
239 2 22.9423 15.9526 1.23922 22.9423 15.9526 1.23922
240 2 22.8874 15.8333 -1.99552 22.8874 15.8333 -1.99552
241 1 23.8786 14.287 -0.360218 23.8786 14.287 -0.360218
242 2 25.7196 13.9641 1.3517 25.7196 13.9641 1.3517
243 2 25.7532 14.4877 -1.97948 25.7532 14.4877 -1.97948
244 1 26.7779 15.7731 -0.0985995 26.7779 15.7731 -0.0985995
245 2 28.6736 15.6022 1.45796 28.6736 15.6022 1.45796
246 2 28.5501 15.9789 -1.81463 28.5501 15.9789 -1.81463
247 1 29.6283 14.173 -0.46423 29.6283 14.173 -0.46423
248 2 31.4902 13.998 1.31551 31.4902 13.998 1.31551
249 2 31.6242 14.2348 -1.8832 31.6242 14.2348 -1.8832
250 1 32.4212 15.8591 -0.033202 32.4212 15.8591 -0.033202
251 2 34.5912 15.7916 1.39171 34.5912 15.7916 1.39171
252 2 34.1937 15.8688 -1.85347 34.1937 15.8688 -1.85347
253 1 35.2534 14.167 -0.384483 35.2534 14.167 -0.384483
254 2 37.1699 14.027 1.13877 37.1699 14.027 1.13877
255 2 37.12 14.2865 -2.12668 37.12 14.2865 -2.12668
256 1 38.1363 15.7982 -0.421206 38.1363 15.7982 -0.421206
257 2 40.3521 15.7963 0.777698 40.3521 15.7963 0.777698
258 2 39.6732 15.6859 -2.47768 39.6732 15.6859 -2.47768
259 1 40.906 14.1363 -0.887456 40.906 14.1363 -0.887456
260 2 42.9975 14.2304 0.721359 42.9975 14.2304 0.721359
261 2 42.8888 13.8488 -2.59812 42.8888 13.8488 -2.59812
262 1 43.9746 15.7451 -1.16385 43.9746 15.7451 -1.16385
263 2 45.732 15.7851 0.658081 45.732 15.7851 0.658081
264 2 45.8933 15.7938 -2.71519 45.8933 15.7938 -2.71519
265 1 46.8119 14.0727 -1.0221 46.8119 14.0727 -1.0221
266 2 48.7225 14.0957 0.615016 48.7225 14.0957 0.615016
267 2 48.7511 13.9803 -2.65458 48.7511 13.9803 -2.65458
268 1 49.672 15.7433 -1.04146 49.672 15.7433 -1.04146
269 2 51.3242 15.9092 0.699588 51.3242 15.9092 0.699588
270 2 51.7799 15.7028 -2.42388 51.7799 15.7028 -2.42388
271 1 0.884098 17.4952 -0.818814 0.884098 17.4952 -0.818814
272 2 2.71268 17.435 0.774619 2.71268 17.435 0.774619
273 2 2.83767 17.4449 -2.4202 2.83767 17.4449 -2.4202
274 1 3.81471 19.0967 -0.708287 3.81471 19.0967 -0.708287
275 2 5.82719 19.2245 0.894029 5.82719 19.2245 0.894029
276 2 5.75047 19.0989 -2.35176 5.75047 19.0989 -2.35176
277 1 6.6489 17.4439 -0.772082 6.6489 17.4439 -0.772082
278 2 8.46869 17.4409 0.960755 8.46869 17.4409 0.960755
279 2 8.56709 17.4468 -2.29539 8.56709 17.4468 -2.29539
280 1 9.55012 19.0672 -0.601473 9.55012 19.0672 -0.601473
281 2 11.4669 19.1051 1.02224 11.4669 19.1051 1.02224
282 2 11.565 18.9875 -2.33382 11.565 18.9875 -2.33382
283 1 12.3933 17.4691 -0.545838 12.3933 17.4691 -0.545838
284 2 14.4624 17.471 0.897566 14.4624 17.471 0.897566
285 2 14.2593 17.529 -2.34293 14.2593 17.529 -2.34293
286 1 15.2173 19.1724 -0.696943 15.2173 19.1724 -0.696943
287 2 17.0653 19.2164 0.941675 17.0653 19.2164 0.941675
288 2 17.111 19.2592 -2.321 17.111 19.2592 -2.321
289 1 18.0944 17.5973 -0.750147 18.0944 17.5973 -0.750147
290 2 19.6952 17.5136 1.14691 19.6952 17.5136 1.14691
291 2 20.0986 17.595 -2.14785 20.0986 17.595 -2.14785
292 1 20.9395 19.1313 -0.31114 20.9395 19.1313 -0.31114
293 2 22.8405 19.1337 1.2806 22.8405 19.1337 1.2806
294 2 22.881 19.0993 -1.97421 22.881 19.0993 -1.97421
295 1 23.8486 17.4616 -0.40482 23.8486 17.4616 -0.40482
296 2 25.5683 17.4412 1.45549 25.5683 17.4412 1.45549
297 2 25.9882 17.5341 -1.8141 25.9882 17.5341 -1.8141
298 1 26.628 19.0894 -0.0495016 26.628 19.0894 -0.0495016
299 2 28.6036 19.1809 1.51715 28.6036 19.1809 1.51715
300 2 28.5159 19.0425 -1.75633 28.5159 19.0425 -1.75633
301 1 29.5552 17.4828 -0.113173 29.5552 17.4828 -0.113173
302 2 31.4016 17.4357 1.55376 31.4016 17.4357 1.55376
303 2 31.4381 17.5878 -1.68854 31.4381 17.5878 -1.68854
304 1 32.3672 19.0857 -0.0733318 32.3672 19.0857 -0.0733318
305 2 34.48 19.0599 1.35583 34.48 19.0599 1.35583
306 2 34.2198 19.1655 -1.9372 34.2198 19.1655 -1.9372
307 1 35.3325 17.4388 -0.356262 35.3325 17.4388 -0.356262
308 2 37.3342 17.4901 1.2362 37.3342 17.4901 1.2362
309 2 37.1133 17.4086 -2.09751 37.1133 17.4086 -2.09751
310 1 38.2121 19.107 -0.473843 38.2121 19.107 -0.473843
311 2 40.3052 18.8382 0.893986 40.3052 18.8382 0.893986
312 2 39.8941 19.3673 -2.30178 39.8941 19.3673 -2.30178
313 1 40.9847 17.3416 -1.16751 40.9847 17.3416 -1.16751
314 2 42.9068 17.2502 0.531377 42.9068 17.2502 0.531377
315 2 43.0319 17.5532 -2.72718 43.0319 17.5532 -2.72718
316 1 43.8776 19.0542 -0.837792 43.8776 19.0542 -0.837792
317 2 45.7769 18.9036 0.836753 45.7769 18.9036 0.836753
318 2 45.8626 19.3231 -2.45718 45.8626 19.3231 -2.45718
319 1 46.7684 17.461 -0.969897 46.7684 17.461 -0.969897
320 2 48.545 17.2384 0.780161 48.545 17.2384 0.780161
321 2 48.6972 17.6172 -2.56083 48.6972 17.6172 -2.56083
322 1 49.5967 19.1672 -0.67447 49.5967 19.1672 -0.67447
323 2 51.4849 19.0704 0.899301 51.4849 19.0704 0.899301
324 2 51.4465 19.1864 -2.32308 51.4465 19.1864 -2.32308
325 1 1.01905 20.8175 -0.662844 1.01905 20.8175 -0.662844
326 2 2.93383 20.8465 0.922288 2.93383 20.8465 0.922288
327 2 2.9578 20.8214 -2.3085 2.9578 20.8214 -2.3085
328 1 3.85011 22.4125 -0.709544 3.85011 22.4125 -0.709544
329 2 5.88021 22.5095 0.857029 5.88021 22.5095 0.857029
330 2 5.68705 22.4243 -2.41365 5.68705 22.4243 -2.41365
331 1 6.80371 20.8433 -0.821816 6.80371 20.8433 -0.821816
332 2 8.51292 20.7984 1.02452 8.51292 20.7984 1.02452
333 2 8.78602 20.813 -2.34792 8.78602 20.813 -2.34792
334 1 9.61952 22.4796 -0.621537 9.61952 22.4796 -0.621537
335 2 11.4863 22.4613 0.96997 11.4863 22.4613 0.96997
336 2 11.5648 22.4757 -2.26399 11.5648 22.4757 -2.26399
337 1 12.3821 20.7291 -0.666154 12.3821 20.7291 -0.666154
338 2 14.2334 20.8496 0.900761 14.2334 20.8496 0.900761
339 2 14.2957 20.9204 -2.21425 14.2957 20.9204 -2.21425
340 1 15.3003 22.5465 -0.506493 15.3003 22.5465 -0.506493
341 2 17.1425 22.4724 1.16398 17.1425 22.4724 1.16398
342 2 17.1322 22.6561 -2.06894 17.1322 22.6561 -2.06894
343 1 18.1088 20.9331 -0.538177 18.1088 20.9331 -0.538177
344 2 19.7414 20.7663 1.28276 19.7414 20.7663 1.28276
345 2 20.2586 20.8432 -1.98821 20.2586 20.8432 -1.98821
346 1 20.876 22.4582 -0.226055 20.876 22.4582 -0.226055
347 2 22.8655 22.4569 1.40453 22.8655 22.4569 1.40453
348 2 22.8624 22.5096 -1.75256 22.8624 22.5096 -1.75256
349 1 23.8386 20.8065 -0.203256 23.8386 20.8065 -0.203256
350 2 25.6616 20.9059 1.50529 25.6616 20.9059 1.50529
351 2 25.8303 20.8157 -1.75392 25.8303 20.8157 -1.75392
352 1 26.6819 22.5222 -0.0993327 26.6819 22.5222 -0.0993327
353 2 28.5941 22.3 1.47813 28.5941 22.3 1.47813
354 2 28.6397 22.5743 -1.74628 28.6397 22.5743 -1.74628
355 1 29.5293 20.7593 -0.236901 29.5293 20.7593 -0.236901
356 2 31.5072 20.8194 1.4454 31.5072 20.8194 1.4454
357 2 31.5243 20.7319 -1.79144 31.5243 20.7319 -1.79144
358 1 32.497 22.42 -0.149194 32.497 22.42 -0.149194
359 2 34.3709 22.361 1.41119 34.3709 22.361 1.41119
360 2 34.3392 22.4731 -1.89123 34.3392 22.4731 -1.89123
361 1 35.3638 20.7016 -0.330488 35.3638 20.7016 -0.330488
362 2 37.2449 20.6298 1.33882 37.2449 20.6298 1.33882
363 2 37.2011 20.8398 -1.93128 37.2011 20.8398 -1.93128
364 1 38.3001 22.4607 -0.178629 38.3001 22.4607 -0.178629
365 2 40.1832 22.3364 1.36356 40.1832 22.3364 1.36356
366 2 40.2411 22.6164 -1.9417 40.2411 22.6164 -1.9417
367 1 41.0779 20.7205 -0.437846 41.0779 20.7205 -0.437846
368 2 43.0021 20.5669 0.99617 43.0021 20.5669 0.99617
369 2 42.822 20.7996 -2.27748 42.822 20.7996 -2.27748
370 1 43.8701 22.4271 -0.590401 43.8701 22.4271 -0.590401
371 2 45.6389 22.2662 1.05867 45.6389 22.2662 1.05867
372 2 45.7832 22.4632 -2.18184 45.7832 22.4632 -2.18184
373 1 46.6834 20.7059 -0.662212 46.6834 20.7059 -0.662212
374 2 48.5932 20.5228 1.03342 48.5932 20.5228 1.03342
375 2 48.6573 20.8965 -2.19914 48.6573 20.8965 -2.19914
376 1 49.6485 22.3742 -0.362214 49.6485 22.3742 -0.362214
377 2 51.6669 22.1175 1.21111 51.6669 22.1175 1.21111
378 2 51.5007 22.7477 -2.03658 51.5007 22.7477 -2.03658
379 1 1.02669 23.992 -0.0450788 1.02669 23.992 -0.0450788
380 2 3.18609 23.958 1.22834 3.18609 23.958 1.22834
381 2 2.65835 24.2431 -1.9464 2.65835 24.2431 -1.9464
382 1 3.90824 25.6843 -0.435451 3.90824 25.6843 -0.435451
383 2 5.94664 25.6808 0.993081 5.94664 25.6808 0.993081
384 2 5.65225 25.8099 -2.25474 5.65225 25.8099 -2.25474
385 1 6.80438 24.1169 -0.815158 6.80438 24.1169 -0.815158
386 2 8.5828 24.1273 0.959997 8.5828 24.1273 0.959997
387 2 8.83773 24.1589 -2.30897 8.83773 24.1589 -2.30897
388 1 9.6106 25.7786 -0.57468 9.6106 25.7786 -0.57468
389 2 11.4398 25.5497 1.10905 11.4398 25.5497 1.10905
390 2 11.4888 26.0478 -2.07066 11.4888 26.0478 -2.07066
391 1 12.4476 24.1594 -0.618993 12.4476 24.1594 -0.618993
392 2 14.2346 24.0651 1.08538 14.2346 24.0651 1.08538
393 2 14.5542 24.1091 -2.11641 14.5542 24.1091 -2.11641
394 1 15.2565 25.7618 -0.321615 15.2565 25.7618 -0.321615
395 2 17.1056 25.6619 1.34722 17.1056 25.6619 1.34722
396 2 17.1848 25.9125 -1.94105 17.1848 25.9125 -1.94105
397 1 18.0549 24.1943 -0.292088 18.0549 24.1943 -0.292088
398 2 20.0715 24.2354 1.37162 20.0715 24.2354 1.37162
399 2 19.9914 24.1051 -1.91738 19.9914 24.1051 -1.91738
400 1 20.9552 25.776 -0.315821 20.9552 25.776 -0.315821
401 2 22.7206 25.9385 1.57016 22.7206 25.9385 1.57016
402 2 23.0625 25.7883 -1.68108 23.0625 25.7883 -1.68108
403 1 23.8678 24.1763 -0.00947014 23.8678 24.1763 -0.00947014
404 2 25.715 24.0834 1.69668 25.715 24.0834 1.69668
405 2 25.7927 24.1769 -1.62512 25.7927 24.1769 -1.62512
406 1 26.7204 25.7651 0.134166 26.7204 25.7651 0.134166
407 2 28.6244 25.546 1.7252 28.6244 25.546 1.7252
408 2 28.7355 26.0785 -1.47574 28.7355 26.0785 -1.47574
409 1 29.6093 24.1167 -0.0434852 29.6093 24.1167 -0.0434852
410 2 31.4842 23.914 1.58059 31.4842 23.914 1.58059
411 2 31.5795 24.2445 -1.61073 31.5795 24.2445 -1.61073
412 1 32.5002 25.6648 0.145607 32.5002 25.6648 0.145607
413 2 34.52 25.5062 1.65895 34.52 25.5062 1.65895
414 2 34.2855 25.748 -1.56017 34.2855 25.748 -1.56017
415 1 35.3899 24.0536 -0.199122 35.3899 24.0536 -0.199122
416 2 37.2395 23.9068 1.5332 37.2395 23.9068 1.5332
417 2 37.3877 24.1424 -1.77774 37.3877 24.1424 -1.77774
418 1 38.1891 25.7133 0.0743514 38.1891 25.7133 0.0743514
419 2 40.1649 25.5828 1.5808 40.1649 25.5828 1.5808
420 2 39.9147 25.8965 -1.63295 39.9147 25.8965 -1.63295
421 1 41.0076 24.1196 -0.17229 41.0076 24.1196 -0.17229
422 2 43.094 23.966 1.26559 43.094 23.966 1.26559
423 2 42.8305 24.2524 -1.99614 42.8305 24.2524 -1.99614
424 1 43.9209 25.7415 -0.355506 43.9209 25.7415 -0.355506
425 2 45.7016 25.7087 1.27792 45.7016 25.7087 1.27792
426 2 45.8523 25.6981 -1.94522 45.8523 25.6981 -1.94522
427 1 46.7138 24.017 -0.292464 46.7138 24.017 -0.292464
428 2 48.5431 23.8898 1.40664 48.5431 23.8898 1.40664
429 2 48.6236 23.9871 -1.98591 48.6236 23.9871 -1.98591
430 1 49.6341 25.6011 -0.176648 49.6341 25.6011 -0.176648
431 2 51.447 25.7208 1.43646 51.447 25.7208 1.43646
432 2 51.6393 25.6919 -1.74389 51.6393 25.6919 -1.74389
433 1 0.996522 27.3006 -0.122518 0.996522 27.3006 -0.122518
434 2 3.03429 27.325 1.42489 3.03429 27.325 1.42489
435 2 2.91181 27.4362 -1.89506 2.91181 27.4362 -1.89506
436 1 3.96729 28.96 -0.188325 3.96729 28.96 -0.188325
437 2 5.86326 28.5775 1.27847 5.86326 28.5775 1.27847
438 2 5.77883 29.311 -1.85404 5.77883 29.311 -1.85404
439 1 6.77899 27.3606 -0.671461 6.77899 27.3606 -0.671461
440 2 8.52277 27.2581 1.10369 8.52277 27.2581 1.10369
441 2 8.777 27.5863 -2.12855 8.777 27.5863 -2.12855
442 1 9.55143 29.1029 -0.313942 9.55143 29.1029 -0.313942
443 2 11.1913 28.8741 1.46292 11.1913 28.8741 1.46292
444 2 11.5555 29.229 -1.79974 11.5555 29.229 -1.79974
445 1 12.3784 27.4343 -0.2493 12.3784 27.4343 -0.2493
446 2 14.2398 27.3586 1.42147 14.2398 27.3586 1.42147
447 2 14.341 27.5492 -1.71706 14.341 27.5492 -1.71706
448 1 15.186 29.0906 -0.0560787 15.186 29.0906 -0.0560787
449 2 17.1066 29.1237 1.53927 17.1066 29.1237 1.53927
450 2 17.2244 29.0859 -1.6753 17.2244 29.0859 -1.6753
451 1 18.0915 27.4703 -0.108244 18.0915 27.4703 -0.108244
452 2 20.0978 27.3386 1.45196 20.0978 27.3386 1.45196
453 2 20.0663 27.563 -1.88858 20.0663 27.563 -1.88858
454 1 20.9624 29.0901 -0.077675 20.9624 29.0901 -0.077675
455 2 22.8289 29.0604 1.70249 22.8289 29.0604 1.70249
456 2 23.0019 29.1914 -1.50821 23.0019 29.1914 -1.50821
457 1 23.8666 27.5073 0.0397575 23.8666 27.5073 0.0397575
458 2 25.6963 27.3922 1.70472 25.6963 27.3922 1.70472
459 2 25.8482 27.4035 -1.40185 25.8482 27.4035 -1.40185
460 1 26.6887 29.0776 0.263329 26.6887 29.0776 0.263329
461 2 28.4867 29.0195 2.05867 28.4867 29.0195 2.05867
462 2 28.6837 29.2225 -1.18589 28.6837 29.2225 -1.18589
463 1 29.6258 27.4785 0.377675 29.6258 27.4785 0.377675
464 2 31.5907 27.3132 1.95318 31.5907 27.3132 1.95318
465 2 31.3831 27.5733 -1.43749 31.3831 27.5733 -1.43749
466 1 32.4256 29.029 0.368406 32.4256 29.029 0.368406
467 2 34.4843 28.989 1.91672 34.4843 28.989 1.91672
468 2 34.1905 29.1467 -1.30705 34.1905 29.1467 -1.30705
469 1 35.2428 27.3266 0.173212 35.2428 27.3266 0.173212
470 2 37.2028 27.0504 1.92382 37.2028 27.0504 1.92382
471 2 37.2018 27.5561 -1.29439 37.2018 27.5561 -1.29439
472 1 38.2213 29.0408 0.523505 38.2213 29.0408 0.523505
473 2 40.2121 28.6768 2.02477 40.2121 28.6768 2.02477
474 2 39.9939 29.2638 -1.26073 39.9939 29.2638 -1.26073
475 1 41.0166 27.4324 0.0331098 41.0166 27.4324 0.0331098
476 2 42.9509 27.0159 1.53829 42.9509 27.0159 1.53829
477 2 42.9245 27.5662 -1.62918 42.9245 27.5662 -1.62918
478 1 43.8606 29.0068 0.111644 43.8606 29.0068 0.111644
479 2 45.8416 28.803 1.60069 45.8416 28.803 1.60069
480 2 45.6228 29.2107 -1.60159 45.6228 29.2107 -1.60159
481 1 46.7246 27.3761 -0.280217 46.7246 27.3761 -0.280217
482 2 48.5313 27.3002 1.41903 48.5313 27.3002 1.41903
483 2 48.8604 27.4273 -1.8095 48.8604 27.4273 -1.8095
484 1 49.607 28.9689 0.0395255 49.607 28.9689 0.0395255
485 2 51.6565 28.8674 1.68889 51.6565 28.8674 1.68889
486 2 51.5453 29.0445 -1.65907 51.5453 29.0445 -1.65907
487 1 1.03596 30.5709 0.12856 1.03596 30.5709 0.12856
488 2 3.04397 30.4845 1.71336 3.04397 30.4845 1.71336
489 2 2.90318 30.697 -1.57973 2.90318 30.697 -1.57973
490 1 3.86833 32.2892 0.0824221 3.86833 32.2892 0.0824221
491 2 5.78013 32.3593 1.59267 5.78013 32.3593 1.59267
492 2 5.75037 32.2735 -1.57794 5.75037 32.2735 -1.57794
493 1 6.71116 30.6145 0.00850761 6.71116 30.6145 0.00850761
494 2 8.70427 30.5977 1.51289 8.70427 30.5977 1.51289
495 2 8.63157 30.8238 -1.77236 8.63157 30.8238 -1.77236
496 1 9.56144 32.3675 -0.0924745 9.56144 32.3675 -0.0924745
497 2 11.2514 32.1576 1.70685 11.2514 32.1576 1.70685
498 2 11.5672 32.3715 -1.58173 11.5672 32.3715 -1.58173
499 1 12.3194 30.6296 0.0559151 12.3194 30.6296 0.0559151
500 2 14.1865 30.526 1.69004 14.1865 30.526 1.69004
501 2 14.3321 30.7684 -1.6113 14.3321 30.7684 -1.6113
502 1 15.1744 32.2832 0.119975 15.1744 32.2832 0.119975
503 2 17.157 32.1951 1.84201 17.157 32.1951 1.84201
504 2 17.1382 32.3648 -1.45135 17.1382 32.3648 -1.45135
505 1 18.1037 30.7301 0.081128 18.1037 30.7301 0.081128
506 2 19.9363 30.4243 1.69847 19.9363 30.4243 1.69847
507 2 20.0605 31.0669 -1.4363 20.0605 31.0669 -1.4363
508 1 21.07 32.354 0.417738 21.07 32.354 0.417738
509 2 22.9719 32.2797 2.0135 22.9719 32.2797 2.0135
510 2 22.897 32.4367 -1.2482 22.897 32.4367 -1.2482
511 1 23.8418 30.6828 0.247216 23.8418 30.6828 0.247216
512 2 25.6695 30.5054 2.05055 25.6695 30.5054 2.05055
513 2 25.7686 30.8757 -1.23011 25.7686 30.8757 -1.23011
514 1 26.7507 32.3137 0.591894 26.7507 32.3137 0.591894
515 2 28.6379 32.4108 2.13691 28.6379 32.4108 2.13691
516 2 28.6302 32.3683 -1.01319 28.6302 32.3683 -1.01319
517 1 29.6052 30.7393 0.494327 29.6052 30.7393 0.494327
518 2 31.6029 30.6048 2.11216 31.6029 30.6048 2.11216
519 2 31.4948 30.765 -1.28069 31.4948 30.765 -1.28069
520 1 32.4416 32.2499 0.455459 32.4416 32.2499 0.455459
521 2 34.4304 32.1519 1.97059 34.4304 32.1519 1.97059
522 2 34.3137 32.4159 -1.30528 34.3137 32.4159 -1.30528
523 1 35.3975 30.6489 0.230703 35.3975 30.6489 0.230703
524 2 37.1726 30.6262 2.0096 37.1726 30.6262 2.0096
525 2 37.3603 30.621 -1.23693 37.3603 30.621 -1.23693
526 1 38.1161 32.2689 0.44162 38.1161 32.2689 0.44162
527 2 39.9226 32.3055 2.10471 39.9226 32.3055 2.10471
528 2 40.0558 32.332 -1.1214 40.0558 32.332 -1.1214
529 1 41.0049 30.6928 0.479571 41.0049 30.6928 0.479571
530 2 42.9886 30.469 1.90471 42.9886 30.469 1.90471
531 2 42.736 30.8048 -1.37412 42.736 30.8048 -1.37412
532 1 43.8069 32.2902 0.342974 43.8069 32.2902 0.342974
533 2 45.7336 32.132 1.96013 45.7336 32.132 1.96013
534 2 45.7963 32.4985 -1.29131 45.7963 32.4985 -1.29131
535 1 46.7442 30.6936 0.194265 46.7442 30.6936 0.194265
536 2 48.6386 30.5065 1.81582 48.6386 30.5065 1.81582
537 2 48.6288 30.8115 -1.43065 48.6288 30.8115 -1.43065