ITEM: TIMESTEP
97600
ITEM: NUMBER OF ATOMS
810
ITEM: BOX BOUNDS pp pp pp
7.9731904569058065e-01 5.2220285954310022e+01
7.6627545050165247e-01 5.0249939549497519e+01
-1.0000000000000000e+01 1.0000000000000000e+01
ITEM: ATOMS id type x y z xu yu zu
1 1 0.990054 1.01662 0.378482 0.990054 1.01662 0.378482
2 2 2.97436 0.844911 1.88913 2.97436 0.844911 1.88913
3 2 2.75784 1.22155 -1.32088 2.75784 1.22155 -1.32088
4 1 3.86443 2.69192 0.348502 3.86443 2.69192 0.348502
5 2 5.77879 2.76717 1.93059 5.77879 2.76717 1.93059
6 2 5.74709 2.64867 -1.47778 5.74709 2.64867 -1.47778
7 1 6.61154 0.992436 0.257253 6.61154 0.992436 0.257253
8 2 8.54085 0.750955 1.74979 8.54085 0.750955 1.74979
9 2 8.44711 1.20739 -1.52356 8.44711 1.20739 -1.52356
10 1 9.44632 2.66541 0.355955 9.44632 2.66541 0.355955
11 2 11.3629 2.5364 1.89621 11.3629 2.5364 1.89621
12 2 11.3633 2.88145 -1.37051 11.3633 2.88145 -1.37051
13 1 12.2923 0.985657 0.123799 12.2923 0.985657 0.123799
14 2 14.2717 0.910672 1.717 14.2717 0.910672 1.717
15 2 14.229 1.19773 -1.42174 14.229 1.19773 -1.42174
16 1 15.2353 2.69999 0.275743 15.2353 2.69999 0.275743
17 2 17.3447 2.6973 1.71982 17.3447 2.6973 1.71982
18 2 16.9697 2.7251 -1.56492 16.9697 2.7251 -1.56492
19 1 18.1191 0.954516 -0.0578943 18.1191 0.954516 -0.0578943
20 2 20.0152 1.11602 1.66437 20.0152 1.11602 1.66437
21 2 20.0185 0.854129 -1.65533 20.0185 0.854129 -1.65533
22 1 20.9329 2.60421 -0.110348 20.9329 2.60421 -0.110348
23 2 22.6277 2.66535 1.67075 22.6277 2.66535 1.67075
24 2 23.0411 2.6036 -1.56513 23.0411 2.6036 -1.56513
25 1 23.7701 0.962744 0.206147 23.7701 0.962744 0.206147
26 2 25.6041 1.09449 1.80594 25.6041 1.09449 1.80594
27 2 25.7175 0.837923 -1.39919 25.7175 0.837923 -1.39919
28 1 26.6217 2.64114 0.0542659 26.6217 2.64114 0.0542659
29 2 28.5471 2.71466 1.75393 28.5471 2.71466 1.75393
30 2 28.6273 2.64024 -1.49397 28.6273 2.64024 -1.49397
31 1 29.4778 0.987549 0.157487 29.4778 0.987549 0.157487
32 2 31.2935 0.919686 1.87492 31.2935 0.919686 1.87492
33 2 31.4562 0.875891 -1.37987 31.4562 0.875891 -1.37987
34 1 32.4275 2.59032 0.276478 32.4275 2.59032 0.276478
35 2 34.1079 2.40683 2.15067 34.1079 2.40683 2.15067
36 2 34.5103 2.68952 -1.10162 34.5103 2.68952 -1.10162
37 1 35.3646 1.02389 0.481813 35.3646 1.02389 0.481813
38 2 37.205 0.894245 2.30601 37.205 0.894245 2.30601
39 2 37.3956 1.1202 -0.928199 37.3956 1.1202 -0.928199
40 1 38.2382 2.65585 0.959285 38.2382 2.65585 0.959285
41 2 40.0766 2.60562 2.55801 40.0766 2.60562 2.55801
42 2 40.0517 2.82894 -0.758676 40.0517 2.82894 -0.758676
43 1 41.0876 1.0225 0.803492 41.0876 1.0225 0.803492
44 2 42.9982 1.10594 2.60333 42.9982 1.10594 2.60333
45 2 43.1557 0.990415 -0.747638 43.1557 0.990415 -0.747638
46 1 43.9805 2.62662 0.93423 43.9805 2.62662 0.93423
47 2 46.0171 2.73133 2.49158 46.0171 2.73133 2.49158
48 2 45.8885 2.66273 -0.867067 45.8885 2.66273 -0.867067
49 1 46.7636 0.937116 0.810715 46.7636 0.937116 0.810715
50 2 48.78 0.9159 2.34521 48.78 0.9159 2.34521
51 2 48.6337 0.879917 -0.871485 48.6337 0.879917 -0.871485
52 1 49.6075 2.67846 0.730895 49.6075 2.67846 0.730895
53 2 51.7394 2.68275 2.04935 51.7394 2.68275 2.04935
54 2 51.1872 2.6144 -1.13995 51.1872 2.6144 -1.13995
55 1 0.88352 4.25733 0.36009 0.88352 4.25733 0.36009
56 2 2.81034 4.33716 1.93288 2.81034 4.33716 1.93288
57 2 2.75503 4.35195 -1.33419 2.75503 4.35195 -1.33419
58 1 3.73779 6.01392 0.198231 3.73779 6.01392 0.198231
59 2 5.64984 5.9395 1.87738 5.64984 5.9395 1.87738
60 2 5.72086 6.09013 -1.34565 5.72086 6.09013 -1.34565
61 1 6.64571 4.32777 0.138831 6.64571 4.32777 0.138831
62 2 8.43221 4.31957 1.9086 8.43221 4.31957 1.9086
63 2 8.72012 4.32008 -1.32668 8.72012 4.32008 -1.32668
64 1 9.57118 5.9834 0.355362 9.57118 5.9834 0.355362
65 2 11.2886 5.92488 1.93976 11.2886 5.92488 1.93976
66 2 11.4319 5.89474 -1.39821 11.4319 5.89474 -1.39821
67 1 12.39 4.35795 0.396907 12.39 4.35795 0.396907
68 2 14.3241 4.49321 1.86631 14.3241 4.49321 1.86631
69 2 14.2293 4.17499 -1.42024 14.2293 4.17499 -1.42024
70 1 15.1917 5.94959 -0.0477594 15.1917 5.94959 -0.0477594
71 2 17.208 6.19609 1.46522 17.208 6.19609 1.46522
72 2 16.9554 5.80331 -1.82178 16.9554 5.80331 -1.82178
73 1 18.08 4.31485 -0.00304798 18.08 4.31485 -0.00304798
74 2 20.0198 4.36828 1.55655 20.0198 4.36828 1.55655
75 2 19.8679 4.21102 -1.75111 19.8679 4.21102 -1.75111
76 1 20.9536 5.87673 -0.218908 20.9536 5.87673 -0.218908
77 2 22.7176 5.94936 1.58515 22.7176 5.94936 1.58515
78 2 22.8975 5.81922 -1.72178 22.8975 5.81922 -1.72178
79 1 23.768 4.32443 0.126783 23.768 4.32443 0.126783
80 2 25.6563 4.36441 1.64529 25.6563 4.36441 1.64529
81 2 25.5662 4.17115 -1.64422 25.5662 4.17115 -1.64422
82 1 26.6391 5.91252 -0.142928 26.6391 5.91252 -0.142928
83 2 28.3237 5.93914 1.65983 28.3237 5.93914 1.65983
84 2 28.6467 5.88097 -1.67771 28.6467 5.88097 -1.67771
85 1 29.5166 4.28855 0.128494 29.5166 4.28855 0.128494
86 2 31.3605 4.21432 1.93328 31.3605 4.21432 1.93328
87 2 31.5172 4.34689 -1.33517 31.5172 4.34689 -1.33517
88 1 32.384 6.02073 0.309957 32.384 6.02073 0.309957
89 2 34.0598 6.05337 2.1133 34.0598 6.05337 2.1133
90 2 34.4057 5.74862 -1.07688 34.4057 5.74862 -1.07688
91 1 35.2186 4.18458 0.798703 35.2186 4.18458 0.798703
92 2 36.9964 4.28388 2.54672 36.9964 4.28388 2.54672
93 2 37.1953 4.21214 -0.776164 37.1953 4.21214 -0.776164
94 1 38.0777 5.9093 0.844274 38.0777 5.9093 0.844274
95 2 39.9804 6.07918 2.44422 39.9804 6.07918 2.44422
96 2 39.9684 5.84394 -0.781005 39.9684 5.84394 -0.781005
97 1 40.9634 4.30616 0.987367 40.9634 4.30616 0.987367
98 2 42.9282 4.48225 2.57675 42.9282 4.48225 2.57675
99 2 42.8767 4.34788 -0.740683 42.8767 4.34788 -0.740683
100 1 43.8105 5.98985 0.838798 43.8105 5.98985 0.838798
101 2 45.8233 5.98715 2.42386 45.8233 5.98715 2.42386
102 2 45.6528 5.96555 -0.974317 45.6528 5.96555 -0.974317
103 1 46.811 4.36832 0.667632 46.811 4.36832 0.667632
104 2 48.7695 4.3628 2.26279 48.7695 4.3628 2.26279
105 2 48.5658 4.27072 -0.999713 48.5658 4.27072 -0.999713
106 1 49.6339 5.99433 0.549626 49.6339 5.99433 0.549626
107 2 51.6064 6.00698 1.96705 51.6064 6.00698 1.96705
108 2 51.2913 5.86693 -1.28732 51.2913 5.86693 -1.28732
109 1 0.939556 7.59204 0.25878 0.939556 7.59204 0.25878
110 2 2.84711 7.48439 1.97891 2.84711 7.48439 1.97891
111 2 2.82449 7.75334 -1.30556 2.82449 7.75334 -1.30556
112 1 3.78369 9.19452 0.475041 3.78369 9.19452 0.475041
113 2 5.80092 9.47699 1.96253 5.80092 9.47699 1.96253
114 2 5.53722 9.26986 -1.34 5.53722 9.26986 -1.34
115 1 6.64802 7.7603 0.283384 6.64802 7.7603 0.283384
116 2 8.65616 7.72459 1.9321 8.65616 7.72459 1.9321
117 2 8.50343 7.58977 -1.29423 8.50343 7.58977 -1.29423
118 1 9.58866 9.25001 0.229022 9.58866 9.25001 0.229022
119 2 11.6049 9.4533 1.6571 11.6049 9.4533 1.6571
120 2 11.4059 9.09666 -1.58221 11.4059 9.09666 -1.58221
121 1 12.4079 7.56249 0.211222 12.4079 7.56249 0.211222
122 2 14.5925 7.7579 1.50545 14.5925 7.7579 1.50545
123 2 13.9811 7.43832 -1.674 13.9811 7.43832 -1.674
124 1 15.1703 9.20859 -0.40409 15.1703 9.20859 -0.40409
125 2 17.1509 9.20485 1.04693 17.1509 9.20485 1.04693
126 2 16.9915 9.02666 -2.08501 16.9915 9.02666 -2.08501
127 1 18.1457 7.60714 -0.503987 18.1457 7.60714 -0.503987
128 2 19.8832 7.71327 1.22294 19.8832 7.71327 1.22294
129 2 20.0605 7.50096 -2.10707 20.0605 7.50096 -2.10707
130 1 20.9704 9.13988 -0.452013 20.9704 9.13988 -0.452013
131 2 22.7873 9.30786 1.17789 22.7873 9.30786 1.17789
132 2 22.928 9.02783 -1.92441 22.928 9.02783 -1.92441
133 1 23.7781 7.55995 -0.12334 23.7781 7.55995 -0.12334
134 2 25.6379 7.61987 1.48934 25.6379 7.61987 1.48934
135 2 25.6468 7.60385 -1.7099 25.6468 7.60385 -1.7099
136 1 26.6327 9.22415 -0.0745549 26.6327 9.22415 -0.0745549
137 2 28.389 9.3223 1.66005 28.389 9.3223 1.66005
138 2 28.5542 9.07781 -1.68499 28.5542 9.07781 -1.68499
139 1 29.4819 7.55555 0.0834961 29.4819 7.55555 0.0834961
140 2 31.2228 7.62525 1.95121 31.2228 7.62525 1.95121
141 2 31.515 7.49404 -1.49927 31.515 7.49404 -1.49927
142 1 32.3166 9.22535 0.195623 32.3166 9.22535 0.195623
143 2 34.1566 9.37169 1.85367 34.1566 9.37169 1.85367
144 2 34.3102 8.89702 -1.32754 34.3102 8.89702 -1.32754
145 1 35.2313 7.47042 0.515302 35.2313 7.47042 0.515302
146 2 37.0601 7.81569 2.20735 37.0601 7.81569 2.20735
147 2 37.3053 7.23579 -1.14792 37.3053 7.23579 -1.14792
148 1 38.2097 9.16843 0.35865 38.2097 9.16843 0.35865
149 2 39.933 9.48665 2.1297 39.933 9.48665 2.1297
150 2 40.1838 9.15314 -1.15495 40.1838 9.15314 -1.15495
151 1 41.0082 7.65877 0.70669 41.0082 7.65877 0.70669
152 2 42.8994 7.84465 2.37261 42.8994 7.84465 2.37261
153 2 42.8182 7.50605 -0.964543 42.8182 7.50605 -0.964543
154 1 43.8016 9.35792 0.635854 43.8016 9.35792 0.635854
155 2 45.8672 9.47396 2.28618 45.8672 9.47396 2.28618
156 2 45.6935 9.14191 -1.02329 45.6935 9.14191 -1.02329
157 1 46.7278 7.67646 0.742242 46.7278 7.67646 0.742242
158 2 48.7312 7.64542 2.21815 48.7312 7.64542 2.21815
159 2 48.5114 7.68171 -1.0258 48.5114 7.68171 -1.0258
160 1 49.5971 9.3072 0.531886 49.5971 9.3072 0.531886
161 2 51.5144 9.21854 2.08076 51.5144 9.21854 2.08076
162 2 51.5588 9.35524 -1.17103 51.5588 9.35524 -1.17103
163 1 1.04883 10.9054 0.464024 1.04883 10.9054 0.464024
164 2 3.01658 10.8616 2.07193 3.01658 10.8616 2.07193
165 2 2.86125 10.7678 -1.1833 2.86125 10.7678 -1.1833
166 1 3.89656 12.5256 0.319393 3.89656 12.5256 0.319393
167 2 5.8258 12.7476 1.81213 5.8258 12.7476 1.81213
168 2 5.7033 12.5204 -1.4737 5.7033 12.5204 -1.4737
169 1 6.69149 10.9627 0.205851 6.69149 10.9627 0.205851
170 2 8.64341 11.0738 1.78852 8.64341 11.0738 1.78852
171 2 8.56976 10.8611 -1.44267 8.56976 10.8611 -1.44267
172 1 9.53594 12.5597 0.0703796 9.53594 12.5597 0.0703796
173 2 11.767 12.5382 1.51213 11.767 12.5382 1.51213
174 2 11.3921 12.7198 -1.67305 11.3921 12.7198 -1.67305
175 1 12.3934 10.9749 -0.270989 12.3934 10.9749 -0.270989
176 2 14.3629 10.9195 1.25074 14.3629 10.9195 1.25074
177 2 14.1402 10.9221 -1.99492 14.1402 10.9221 -1.99492
178 1 15.2492 12.5463 -0.451345 15.2492 12.5463 -0.451345
179 2 17.3856 12.4574 1.03305 17.3856 12.4574 1.03305
180 2 17.0202 12.5602 -2.24141 17.0202 12.5602 -2.24141
181 1 18.0902 10.827 -0.741885 18.0902 10.827 -0.741885
182 2 20.0131 10.955 0.953383 20.0131 10.955 0.953383
183 2 20.0075 10.6315 -2.20568 20.0075 10.6315 -2.20568
184 1 20.9472 12.4644 -0.76695 20.9472 12.4644 -0.76695
185 2 22.7251 12.5194 1.10176 22.7251 12.5194 1.10176
186 2 22.8257 12.4701 -2.23026 22.8257 12.4701 -2.23026
187 1 23.7563 10.9628 -0.451632 23.7563 10.9628 -0.451632
188 2 25.5246 11.1154 1.33583 25.5246 11.1154 1.33583
189 2 25.7347 10.7428 -1.87978 25.7347 10.7428 -1.87978
190 1 26.664 12.4974 -0.422867 26.664 12.4974 -0.422867
191 2 28.5752 12.8297 1.20753 28.5752 12.8297 1.20753
192 2 28.5884 12.2664 -1.98241 28.5884 12.2664 -1.98241
193 1 29.4166 10.8667 -0.0399835 29.4166 10.8667 -0.0399835
194 2 31.3304 11.0121 1.6654 31.3304 11.0121 1.6654
195 2 31.5042 10.7487 -1.50693 31.5042 10.7487 -1.50693
196 1 32.326 12.5653 0.00878003 32.326 12.5653 0.00878003
197 2 34.4486 12.6736 1.59776 34.4486 12.6736 1.59776
198 2 34.2866 12.2557 -1.6104 34.2866 12.2557 -1.6104
199 1 35.24 10.7832 0.0629426 35.24 10.7832 0.0629426
200 2 37.0477 10.9762 1.79203 37.0477 10.9762 1.79203
201 2 37.2812 10.7043 -1.42037 37.2812 10.7043 -1.42037
202 1 38.114 12.5596 0.17717 38.114 12.5596 0.17717
203 2 40.0487 12.8879 1.83783 40.0487 12.8879 1.83783
204 2 40.1379 12.3182 -1.40598 40.1379 12.3182 -1.40598
205 1 41.0179 10.9987 0.48573 41.0179 10.9987 0.48573
206 2 43.0249 11.1043 2.08605 43.0249 11.1043 2.08605
207 2 42.882 10.7419 -1.19121 42.882 10.7419 -1.19121
208 1 43.9376 12.5641 0.247622 43.9376 12.5641 0.247622
209 2 46.0729 12.7862 1.84022 46.0729 12.7862 1.84022
210 2 45.8811 12.3101 -1.37339 45.8811 12.3101 -1.37339
211 1 46.7701 10.8969 0.428924 46.7701 10.8969 0.428924
212 2 48.7112 11.0905 1.96557 48.7112 11.0905 1.96557
213 2 48.6504 10.7781 -1.19665 48.6504 10.7781 -1.19665
214 1 49.5501 12.5451 0.190462 49.5501 12.5451 0.190462
215 2 51.4223 12.6081 2.01565 51.4223 12.6081 2.01565
216 2 51.6146 12.643 -1.24397 51.6146 12.643 -1.24397
217 1 0.969695 14.2793 0.452343 0.969695 14.2793 0.452343
218 2 3.06042 14.2572 1.9269 3.06042 14.2572 1.9269
219 2 2.95464 14.2071 -1.2941 2.95464 14.2071 -1.2941
220 1 3.92824 15.88 0.18934 3.92824 15.88 0.18934
221 2 5.89504 15.8399 1.65133 5.89504 15.8399 1.65133
222 2 5.66089 16.0042 -1.55893 5.66089 16.0042 -1.55893
223 1 6.74719 14.263 -0.00021052 6.74719 14.263 -0.00021052
224 2 8.63375 14.3487 1.61784 8.63375 14.3487 1.61784
225 2 8.69409 14.1236 -1.69113 8.69409 14.1236 -1.69113
226 1 9.60394 15.8496 -0.122929 9.60394 15.8496 -0.122929
227 2 11.6068 16.0803 1.39237 11.6068 16.0803 1.39237
228 2 11.3551 15.7482 -1.83654 11.3551 15.7482 -1.83654
229 1 12.4884 14.2422 -0.0476035 12.4884 14.2422 -0.0476035
230 2 14.6022 14.2849 1.27533 14.6022 14.2849 1.27533
231 2 14.1336 14.2607 -1.963 14.1336 14.2607 -1.963
232 1 15.3031 15.8729 -0.6058 15.3031 15.8729 -0.6058
233 2 17.3025 16.1051 0.782633 17.3025 16.1051 0.782633
234 2 17.0395 15.638 -2.42899 17.0395 15.638 -2.42899
235 1 18.1595 14.1861 -0.557246 18.1595 14.1861 -0.557246
236 2 20.0793 14.1279 0.989828 20.0793 14.1279 0.989828
237 2 19.9663 14.2542 -2.22056 19.9663 14.2542 -2.22056
238 1 20.949 15.7154 -0.630743 20.949 15.7154 -0.630743
239 2 22.9182 16.1534 0.845585 22.9182 16.1534 0.845585
240 2 22.8516 15.6233 -2.34635 22.8516 15.6233 -2.34635
241 1 23.8122 14.1711 -0.574436 23.8122 14.1711 -0.574436
242 2 25.7731 14.3471 0.971977 25.7731 14.3471 0.971977
243 2 25.6766 13.9389 -2.2937 25.6766 13.9389 -2.2937
244 1 26.7875 15.7278 -0.905815 26.7875 15.7278 -0.905815
245 2 28.5702 15.9108 0.753758 28.5702 15.9108 0.753758
246 2 28.6786 15.6435 -2.48024 28.6786 15.6435 -2.48024
247 1 29.62 14.1704 -0.675202 29.62 14.1704 -0.675202
248 2 31.1337 14.295 1.29929 31.1337 14.295 1.29929
249 2 31.6235 13.9528 -1.97313 31.6235 13.9528 -1.97313
250 1 32.4339 15.7511 -0.413174 32.4339 15.7511 -0.413174
251 2 34.32 15.8522 1.28266 34.32 15.8522 1.28266
252 2 34.421 15.7456 -1.95218 34.421 15.7456 -1.95218
253 1 35.2738 14.0824 -0.254805 35.2738 14.0824 -0.254805
254 2 37.1113 14.3719 1.58686 37.1113 14.3719 1.58686
255 2 37.3333 13.9793 -1.72868 37.3333 13.9793 -1.72868
256 1 38.1707 15.8261 -0.207734 38.1707 15.8261 -0.207734
257 2 40.1052 15.9859 1.33307 40.1052 15.9859 1.33307
258 2 40.0472 15.5382 -1.89221 40.0472 15.5382 -1.89221
259 1 41.0045 14.1559 -0.0813935 41.0045 14.1559 -0.0813935
260 2 42.8966 14.3643 1.62116 42.8966 14.3643 1.62116
261 2 42.9719 13.9359 -1.62669 42.9719 13.9359 -1.62669
262 1 43.9657 15.8121 -0.186037 43.9657 15.8121 -0.186037
263 2 45.8141 15.8841 1.41675 45.8141 15.8841 1.41675
264 2 45.9373 15.7893 -1.84241 45.9373 15.7893 -1.84241
265 1 46.7083 14.1912 -0.0592663 46.7083 14.1912 -0.0592663
266 2 48.5205 14.2851 1.67243 48.5205 14.2851 1.67243
267 2 48.6537 14.061 -1.61513 48.6537 14.061 -1.61513
268 1 49.6936 15.8457 -0.084909 49.6936 15.8457 -0.084909
269 2 51.332 15.8742 1.90794 51.332 15.8742 1.90794
270 2 51.6645 15.7518 -1.38944 51.6645 15.7518 -1.38944
271 1 0.958141 17.4786 0.300755 0.958141 17.4786 0.300755
272 2 2.74677 17.4241 1.93508 2.74677 17.4241 1.93508
273 2 2.92861 17.6025 -1.30293 2.92861 17.6025 -1.30293
274 1 3.83723 19.1643 0.435093 3.83723 19.1643 0.435093
275 2 5.90063 19.3244 1.81019 5.90063 19.3244 1.81019
276 2 5.52008 19.039 -1.45768 5.52008 19.039 -1.45768
277 1 6.72308 17.5391 0.0914006 6.72308 17.5391 0.0914006
278 2 8.76738 17.6956 1.55439 8.76738 17.6956 1.55439
279 2 8.40595 17.3314 -1.73996 8.40595 17.3314 -1.73996
280 1 9.55149 19.0917 -0.348435 9.55149 19.0917 -0.348435
281 2 11.6519 19.3064 1.1085 11.6519 19.3064 1.1085
282 2 11.4051 18.9536 -2.16132 11.4051 18.9536 -2.16132
283 1 12.4756 17.4927 -0.413737 12.4756 17.4927 -0.413737
284 2 14.6165 17.6997 0.890303 14.6165 17.6997 0.890303
285 2 13.9867 17.2989 -2.31469 13.9867 17.2989 -2.31469
286 1 15.1991 19.1371 -1.09367 15.1991 19.1371 -1.09367
287 2 17.1515 19.2647 0.411529 17.1515 19.2647 0.411529
288 2 16.9786 19.0423 -2.85741 16.9786 19.0423 -2.85741
289 1 18.1848 17.5251 -1.19274 18.1848 17.5251 -1.19274
290 2 19.9257 17.7293 0.527135 19.9257 17.7293 0.527135
291 2 20.3085 17.2847 -2.62997 20.3085 17.2847 -2.62997
292 1 21.0845 19.1847 -1.10703 21.0845 19.1847 -1.10703
293 2 22.8576 19.2089 0.581304 22.8576 19.2089 0.581304
294 2 22.8622 19.1967 -2.73017 22.8622 19.1967 -2.73017
295 1 23.8885 17.5836 -1.0532 23.8885 17.5836 -1.0532
296 2 25.7429 17.5241 0.615949 25.7429 17.5241 0.615949
297 2 25.8087 17.1942 -2.67162 25.8087 17.1942 -2.67162
298 1 26.7559 19.0115 -1.18023 26.7559 19.0115 -1.18023
299 2 28.5682 19.1031 0.525024 28.5682 19.1031 0.525024
300 2 28.7298 18.9659 -2.71998 28.7298 18.9659 -2.71998
301 1 29.6072 17.3786 -0.914667 29.6072 17.3786 -0.914667
302 2 31.3673 17.5432 0.928763 31.3673 17.5432 0.928763
303 2 31.6703 17.2031 -2.28328 31.6703 17.2031 -2.28328
304 1 32.4592 19.165 -0.656691 32.4592 19.165 -0.656691
305 2 34.2277 19.2883 1.09522 34.2277 19.2883 1.09522
306 2 34.4421 18.9731 -2.15247 34.4421 18.9731 -2.15247
307 1 35.3189 17.4712 -0.347092 35.3189 17.4712 -0.347092
308 2 37.2414 17.5815 1.27835 37.2414 17.5815 1.27835
309 2 37.122 17.2095 -2.03561 37.122 17.2095 -2.03561
310 1 38.1134 19.0959 -0.497536 38.1134 19.0959 -0.497536
311 2 40.1553 19.1462 1.07837 40.1553 19.1462 1.07837
312 2 40.0673 19.0927 -2.10437 40.0673 19.0927 -2.10437
313 1 41.0276 17.3965 -0.486509 41.0276 17.3965 -0.486509
314 2 42.8826 17.6297 1.23302 42.8826 17.6297 1.23302
315 2 43.0704 17.2664 -1.99305 43.0704 17.2664 -1.99305
316 1 43.9423 19.0594 -0.442456 43.9423 19.0594 -0.442456
317 2 45.6809 19.156 1.26693 45.6809 19.156 1.26693
318 2 45.934 18.9029 -2.03437 45.934 18.9029 -2.03437
319 1 46.7576 17.4564 -0.286127 46.7576 17.4564 -0.286127
320 2 48.6484 17.5042 1.52609 48.6484 17.5042 1.52609
321 2 48.8108 17.3877 -1.80987 48.8108 17.3877 -1.80987
322 1 49.5898 19.0281 -0.181426 49.5898 19.0281 -0.181426
323 2 51.1442 19.2524 1.65235 51.1442 19.2524 1.65235
324 2 51.7148 18.8679 -1.51013 51.7148 18.8679 -1.51013
325 1 0.915853 20.6712 -0.048415 0.915853 20.6712 -0.048415
326 2 2.65091 21.0182 1.79767 2.65091 21.0182 1.79767
327 2 2.94135 20.5837 -1.5054 2.94135 20.5837 -1.5054
328 1 3.85456 22.3948 0.0474687 3.85456 22.3948 0.0474687
329 2 5.77335 22.4174 1.66155 5.77335 22.4174 1.66155
330 2 5.70369 22.5626 -1.58673 5.70369 22.5626 -1.58673
331 1 6.69395 20.8546 -0.060426 6.69395 20.8546 -0.060426
332 2 8.73425 20.7698 1.34136 8.73425 20.7698 1.34136
333 2 8.44222 20.8453 -1.88559 8.44222 20.8453 -1.88559
334 1 9.5483 22.4869 -0.202239 9.5483 22.4869 -0.202239
335 2 11.7288 22.4811 1.12996 11.7288 22.4811 1.12996
336 2 11.1445 22.426 -2.19111 11.1445 22.426 -2.19111
337 1 12.3873 20.8514 -0.680454 12.3873 20.8514 -0.680454
338 2 14.5546 20.69 0.792672 14.5546 20.69 0.792672
339 2 13.9888 20.9012 -2.48324 13.9888 20.9012 -2.48324
340 1 15.2758 22.4441 -0.941027 15.2758 22.4441 -0.941027
341 2 17.4122 22.4075 0.375985 17.4122 22.4075 0.375985
342 2 16.965 22.4568 -2.79124 16.965 22.4568 -2.79124
343 1 18.0493 20.7803 -1.42657 18.0493 20.7803 -1.42657
344 2 19.9191 20.9032 0.262794 19.9191 20.9032 0.262794
345 2 20.0335 20.6309 -2.92601 20.0335 20.6309 -2.92601
346 1 21.0952 22.419 -1.42317 21.0952 22.419 -1.42317
347 2 22.8989 22.6552 0.273711 22.8989 22.6552 0.273711
348 2 23.1509 22.3208 -2.88772 23.1509 22.3208 -2.88772
349 1 23.8565 20.8147 -0.989068 23.8565 20.8147 -0.989068
350 2 25.9231 20.693 0.499394 25.9231 20.693 0.499394
351 2 25.691 20.7492 -2.63452 25.691 20.7492 -2.63452
352 1 26.8027 22.4238 -1.13928 26.8027 22.4238 -1.13928
353 2 28.5636 22.3508 0.600881 28.5636 22.3508 0.600881
354 2 28.7425 22.3986 -2.72392 28.7425 22.3986 -2.72392
355 1 29.5452 20.7035 -1.01542 29.5452 20.7035 -1.01542
356 2 31.2469 20.8514 0.805339 31.2469 20.8514 0.805339
357 2 31.696 20.7761 -2.4313 31.696 20.7761 -2.4313
358 1 32.4096 22.4222 -0.686631 32.4096 22.4222 -0.686631
359 2 34.2542 22.5379 0.951406 34.2542 22.5379 0.951406
360 2 34.3449 22.2532 -2.19941 34.3449 22.2532 -2.19941
361 1 35.2777 20.7265 -0.500925 35.2777 20.7265 -0.500925
362 2 37.2629 20.7828 1.10782 37.2629 20.7828 1.10782
363 2 37.1465 20.7057 -2.15522 37.1465 20.7057 -2.15522
364 1 38.1513 22.4087 -0.600112 38.1513 22.4087 -0.600112
365 2 39.96 22.4313 1.1057 39.96 22.4313 1.1057
366 2 40.0457 22.3384 -2.21315 40.0457 22.3384 -2.21315
367 1 41.0731 20.7592 -0.564043 41.0731 20.7592 -0.564043
368 2 42.8184 20.7107 1.21202 42.8184 20.7107 1.21202
369 2 43.0925 20.8497 -2.13501 43.0925 20.8497 -2.13501
370 1 43.92 22.3935 -0.364315 43.92 22.3935 -0.364315
371 2 45.7036 22.3338 1.33328 45.7036 22.3338 1.33328
372 2 45.8771 22.5312 -1.94763 45.8771 22.5312 -1.94763
373 1 46.7395 20.7114 -0.375278 46.7395 20.7114 -0.375278
374 2 48.4339 20.542 1.47232 48.4339 20.542 1.47232
375 2 48.8654 20.8044 -1.83206 48.8654 20.8044 -1.83206
376 1 49.5656 22.4171 -0.0151862 49.5656 22.4171 -0.0151862
377 2 51.4333 22.3803 1.62947 51.4333 22.3803 1.62947
378 2 51.4911 22.4579 -1.58465 51.4911 22.4579 -1.58465
379 1 0.998267 24.1317 0.0979527 0.998267 24.1317 0.0979527
380 2 2.95659 24.2241 1.5803 2.95659 24.2241 1.5803
381 2 2.75351 23.9348 -1.66691 2.75351 23.9348 -1.66691
382 1 3.84139 25.7302 -0.280456 3.84139 25.7302 -0.280456
383 2 5.70088 25.9494 1.50876 5.70088 25.9494 1.50876
384 2 5.78714 25.555 -1.8228 5.78714 25.555 -1.8228
385 1 6.73187 24.1618 0.0839956 6.73187 24.1618 0.0839956
386 2 8.88245 24.1533 1.44217 8.88245 24.1533 1.44217
387 2 8.45794 24.2519 -1.72763 8.45794 24.2519 -1.72763
388 1 9.68926 25.857 -0.363823 9.68926 25.857 -0.363823
389 2 11.7336 25.8503 0.997628 11.7336 25.8503 0.997628
390 2 11.4747 25.7354 -2.23254 11.4747 25.7354 -2.23254
391 1 12.4675 24.0991 -0.643883 12.4675 24.0991 -0.643883
392 2 14.6082 24.236 0.681554 14.6082 24.236 0.681554
393 2 14.1038 23.9145 -2.50942 14.1038 23.9145 -2.50942
394 1 15.3761 25.7439 -1.14498 15.3761 25.7439 -1.14498
395 2 17.3013 25.6708 0.503597 17.3013 25.6708 0.503597
396 2 17.2836 25.9753 -2.72483 17.2836 25.9753 -2.72483
397 1 18.216 24.1433 -1.31771 18.216 24.1433 -1.31771
398 2 19.9654 24.0202 0.302693 19.9654 24.0202 0.302693
399 2 20.1436 24.2573 -2.8976 20.1436 24.2573 -2.8976
400 1 20.9902 25.8757 -1.10395 20.9902 25.8757 -1.10395
401 2 23.0347 25.6372 0.426314 23.0347 25.6372 0.426314
402 2 22.889 25.9018 -2.87437 22.889 25.9018 -2.87437
403 1 23.8941 24.1938 -1.46192 23.8941 24.1938 -1.46192
404 2 25.5879 23.9802 0.427237 25.5879 23.9802 0.427237
405 2 26.0543 24.238 -2.71687 26.0543 24.238 -2.71687
406 1 26.7674 25.7771 -0.98567 26.7674 25.7771 -0.98567
407 2 28.4634 25.5454 0.776429 28.4634 25.5454 0.776429
408 2 28.7688 25.8504 -2.4536 28.7688 25.8504 -2.4536
409 1 29.5886 24.0341 -0.931399 29.5886 24.0341 -0.931399
410 2 31.3414 24.2146 0.827305 31.3414 24.2146 0.827305
411 2 31.5716 24.0408 -2.4543 31.5716 24.0408 -2.4543
412 1 32.4776 25.708 -0.734519 32.4776 25.708 -0.734519
413 2 34.4438 25.7803 0.936451 34.4438 25.7803 0.936451
414 2 34.2422 25.7316 -2.43193 34.2422 25.7316 -2.43193
415 1 35.2558 24.0428 -0.689117 35.2558 24.0428 -0.689117
416 2 37.0509 24.0062 1.06024 37.0509 24.0062 1.06024
417 2 37.2921 24.1771 -2.2662 37.2921 24.1771 -2.2662
418 1 38.1799 25.6665 -0.452835 38.1799 25.6665 -0.452835
419 2 40.089 25.5948 1.12271 40.089 25.5948 1.12271
420 2 40.1162 25.7843 -2.13064 40.1162 25.7843 -2.13064
421 1 41.0193 24.0075 -0.50751 41.0193 24.0075 -0.50751
422 2 42.8327 24.0413 1.25122 42.8327 24.0413 1.25122
423 2 43.0795 24.0281 -2.05657 43.0795 24.0281 -2.05657
424 1 43.9347 25.68 -0.328391 43.9347 25.68 -0.328391
425 2 45.9107 25.6563 1.28203 45.9107 25.6563 1.28203
426 2 45.8612 25.698 -1.96859 45.8612 25.698 -1.96859
427 1 46.7874 24.0801 -0.26483 46.7874 24.0801 -0.26483
428 2 48.6337 24.0772 1.53025 48.6337 24.0772 1.53025
429 2 48.7686 24.0405 -1.80321 48.7686 24.0405 -1.80321
430 1 49.6286 25.7024 -0.16631 49.6286 25.7024 -0.16631
431 2 51.4457 25.9024 1.54753 51.4457 25.9024 1.54753
432 2 51.5681 25.5788 -1.81438 51.5681 25.5788 -1.81438
433 1 0.984541 27.3497 -0.283908 0.984541 27.3497 -0.283908
434 2 2.93557 27.3559 1.38708 2.93557 27.3559 1.38708
435 2 2.87586 27.4581 -1.88249 2.87586 27.4581 -1.88249
436 1 3.80443 29.0044 -0.235892 3.80443 29.0044 -0.235892
437 2 5.80455 29.082 1.32154 5.80455 29.082 1.32154
438 2 5.71066 28.8543 -2.06467 5.71066 28.8543 -2.06467
439 1 6.7511 27.3923 -0.311428 6.7511 27.3923 -0.311428
440 2 8.67 27.4708 1.2521 8.67 27.4708 1.2521
441 2 8.52039 27.3704 -1.99047 8.52039 27.3704 -1.99047
442 1 9.53697 28.991 -0.463278 9.53697 28.991 -0.463278
443 2 11.5237 28.8951 1.00033 11.5237 28.8951 1.00033
444 2 11.2633 29.0398 -2.29641 11.2633 29.0398 -2.29641
445 1 12.5651 27.3907 -0.818465 12.5651 27.3907 -0.818465
446 2 14.5791 27.2327 0.756807 14.5791 27.2327 0.756807
447 2 14.3998 27.5581 -2.49661 14.3998 27.5581 -2.49661
448 1 15.3726 29.0992 -0.712961 15.3726 29.0992 -0.712961
449 2 17.1814 28.8974 0.920195 17.1814 28.8974 0.920195
450 2 17.1819 29.3398 -2.27914 17.1819 29.3398 -2.27914
451 1 18.1833 27.4979 -0.975454 18.1833 27.4979 -0.975454
452 2 20.0785 27.3348 0.657638 20.0785 27.3348 0.657638
453 2 20.0313 27.5936 -2.58318 20.0313 27.5936 -2.58318
454 1 20.9032 29.1163 -0.818599 20.9032 29.1163 -0.818599
455 2 22.865 28.881 0.802862 22.865 28.881 0.802862
456 2 22.8855 29.3257 -2.45749 22.8855 29.3257 -2.45749
457 1 23.9459 27.4987 -1.13226 23.9459 27.4987 -1.13226
458 2 25.6562 27.384 0.650908 25.6562 27.384 0.650908
459 2 25.9301 27.5802 -2.58554 25.9301 27.5802 -2.58554
460 1 26.78 29.1121 -0.746568 26.78 29.1121 -0.746568
461 2 28.7256 29.0787 0.96733 28.7256 29.0787 0.96733
462 2 28.7845 29.071 -2.3315 28.7845 29.071 -2.3315
463 1 29.665 27.3696 -0.712595 29.665 27.3696 -0.712595
464 2 31.5458 27.4246 0.881016 31.5458 27.4246 0.881016
465 2 31.4306 27.3443 -2.38464 31.4306 27.3443 -2.38464
466 1 32.3966 28.9997 -0.835155 32.3966 28.9997 -0.835155
467 2 34.216 28.9169 0.769777 34.216 28.9169 0.769777
468 2 34.2691 29.1454 -2.4465 34.2691 29.1454 -2.4465
469 1 35.3252 27.3679 -0.796946 35.3252 27.3679 -0.796946
470 2 37.0853 27.3954 1.02881 37.0853 27.3954 1.02881
471 2 37.4889 27.4266 -2.20191 37.4889 27.4266 -2.20191
472 1 38.1829 29.0829 -0.450596 38.1829 29.0829 -0.450596
473 2 39.9785 28.8763 1.23581 39.9785 28.8763 1.23581
474 2 40.1694 29.1006 -1.98074 40.1694 29.1006 -1.98074
475 1 41.001 27.3362 -0.434888 41.001 27.3362 -0.434888
476 2 42.8122 27.2251 1.22993 42.8122 27.2251 1.22993
477 2 42.9676 27.276 -1.93049 42.9676 27.276 -1.93049
478 1 43.8705 28.9282 -0.217115 43.8705 28.9282 -0.217115
479 2 45.7601 28.66 1.41042 45.7601 28.66 1.41042
480 2 45.7812 29.1265 -1.80492 45.7812 29.1265 -1.80492
481 1 46.7833 27.3076 -0.408686 46.7833 27.3076 -0.408686
482 2 48.627 27.4238 1.32744 48.627 27.4238 1.32744
483 2 48.6825 27.3352 -1.92657 48.6825 27.3352 -1.92657
484 1 49.6117 28.9425 -0.224652 49.6117 28.9425 -0.224652
485 2 51.5721 29.0036 1.37768 51.5721 29.0036 1.37768
486 2 51.4463 29.0325 -1.87972 51.4463 29.0325 -1.87972
487 1 1.01222 30.6427 -0.303188 1.01222 30.6427 -0.303188
488 2 2.90684 30.7139 1.34482 2.90684 30.7139 1.34482
489 2 3.01459 30.6865 -1.89077 3.01459 30.6865 -1.89077
490 1 3.818 32.3454 -0.257197 3.818 32.3454 -0.257197
491 2 5.81583 32.2028 1.2439 5.81583 32.2028 1.2439
492 2 5.69742 32.3275 -1.97471 5.69742 32.3275 -1.97471
493 1 6.63786 30.6524 -0.429563 6.63786 30.6524 -0.429563
494 2 8.47151 30.673 1.22479 8.47151 30.673 1.22479
495 2 8.499 30.7068 -2.09471 8.499 30.7068 -2.09471
496 1 9.56793 32.338 -0.411078 9.56793 32.338 -0.411078
497 2 11.5023 32.2768 1.09853 11.5023 32.2768 1.09853
498 2 11.3752 32.4499 -2.16349 11.3752 32.4499 -2.16349
499 1 12.4299 30.6471 -0.593361 12.4299 30.6471 -0.593361
500 2 14.2606 30.5544 1.0806 14.2606 30.5544 1.0806
501 2 14.3845 30.9233 -2.15238 14.3845 30.9233 -2.15238
502 1 15.3188 32.3558 -0.354508 15.3188 32.3558 -0.354508
503 2 17.2113 32.2067 1.31717 17.2113 32.2067 1.31717
504 2 17.2836 32.4215 -1.95824 17.2836 32.4215 -1.95824
505 1 18.0954 30.7403 -0.462116 18.0954 30.7403 -0.462116
506 2 20.1525 30.7742 0.941613 20.1525 30.7742 0.941613
507 2 19.8895 30.7278 -2.2927 19.8895 30.7278 -2.2927
508 1 20.9746 32.3488 -0.752661 20.9746 32.3488 -0.752661
509 2 22.8966 32.2957 0.949319 22.8966 32.2957 0.949319
510 2 22.8879 32.4279 -2.32849 22.8879 32.4279 -2.32849
511 1 23.8837 30.7106 -0.651142 23.8837 30.7106 -0.651142
512 2 25.7995 30.5917 0.9768 25.7995 30.5917 0.9768
513 2 25.7161 30.7749 -2.26957 25.7161 30.7749 -2.26957
514 1 26.7413 32.306 -0.575237 26.7413 32.306 -0.575237
515 2 28.6514 32.2375 1.08639 28.6514 32.2375 1.08639
516 2 28.5789 32.3709 -2.27136 28.5789 32.3709 -2.27136
517 1 29.6341 30.7268 -0.664897 29.6341 30.7268 -0.664897
518 2 31.6201 30.6045 0.928109 31.6201 30.6045 0.928109
519 2 31.475 30.8733 -2.27742 31.475 30.8733 -2.27742
520 1 32.491 32.4302 -0.591569 32.491 32.4302 -0.591569
521 2 34.2569 32.2756 1.00457 34.2569 32.2756 1.00457
522 2 34.344 32.5097 -2.23674 34.344 32.5097 -2.23674
523 1 35.2665 30.7118 -0.673771 35.2665 30.7118 -0.673771
524 2 36.9344 30.6473 1.16353 36.9344 30.6473 1.16353
525 2 37.4694 30.8561 -2.02585 37.4694 30.8561 -2.02585
526 1 38.1241 32.2555 -0.23367 38.1241 32.2555 -0.23367
527 2 39.9215 32.1446 1.51498 39.9215 32.1446 1.51498
528 2 40.1843 32.2122 -1.78832 40.1843 32.2122 -1.78832
529 1 41.0724 30.6169 -0.126947 41.0724 30.6169 -0.126947
530 2 43.009 30.6272 1.45631 43.009 30.6272 1.45631
531 2 43.0112 30.5736 -1.80131 43.0112 30.5736 -1.80131
532 1 43.9225 32.2508 -0.144989 43.9225 32.2508 -0.144989
533 2 45.8181 32.2254 1.6391 45.8181 32.2254 1.6391
534 2 45.7665 32.2162 -1.70009 45.7665 32.2162 -1.70009
535 1 46.6866 30.5268 0.0742558 46.6866 30.5268 0.0742558
536 2 48.7595 30.6129 1.50615 48.7595 30.6129 1.50615
537 2 48.512 30.6362 -1.76364 48.512 30.6362 -1.76364
538 1 49.5567 32.2238 -0.243282 49.5567 32.2238 -0.243282