ITEM: TIMESTEP
12500
ITEM: NUMBER OF ATOMS
810
ITEM: BOX BOUNDS pp pp pp
8.1260190739480875e-01 5.2205003092605850e+01
7.7066469155974648e-01 5.0245550308439370e+01
-1.0000000000000000e+01 1.0000000000000000e+01
ITEM: ATOMS id type x y z xu yu zu
1 1 1.05938 1.05289 -0.423587 1.05938 1.05289 -0.423587
2 2 3.04378 0.915291 1.0926 3.04378 0.915291 1.0926
3 2 2.95382 1.02809 -2.17293 2.95382 1.02809 -2.17293
4 1 3.85534 2.68844 -0.502876 3.85534 2.68844 -0.502876
5 2 5.752 2.40874 1.03437 5.752 2.40874 1.03437
6 2 5.76205 2.79729 -2.11623 5.76205 2.79729 -2.11623
7 1 6.77557 0.989124 -0.76748 6.77557 0.989124 -0.76748
8 2 8.77141 0.832541 0.723876 8.77141 0.832541 0.723876
9 2 8.53301 1.12164 -2.5209 8.53301 1.12164 -2.5209
10 1 9.68346 2.72298 -0.913189 9.68346 2.72298 -0.913189
11 2 11.5659 2.46609 0.695716 11.5659 2.46609 0.695716
12 2 11.5908 3.0961 -2.44512 11.5908 3.0961 -2.44512
13 1 12.4528 1.07715 -1.21207 12.4528 1.07715 -1.21207
14 2 14.1692 0.99406 0.646334 14.1692 0.99406 0.646334
15 2 14.4167 1.05163 -2.62011 14.4167 1.05163 -2.62011
16 1 15.3002 2.69653 -0.844089 15.3002 2.69653 -0.844089
17 2 17.166 2.83668 0.973702 17.166 2.83668 0.973702
18 2 17.3909 2.69726 -2.31331 17.3909 2.69726 -2.31331
19 1 18.2644 1.02535 -0.620263 18.2644 1.02535 -0.620263
20 2 20.2641 1.05596 0.939763 20.2641 1.05596 0.939763
21 2 20.0768 1.1531 -2.32062 20.0768 1.1531 -2.32062
22 1 21.0943 2.6773 -0.732021 21.0943 2.6773 -0.732021
23 2 22.8491 2.43777 0.993437 22.8491 2.43777 0.993437
24 2 23.1282 2.86061 -2.21092 23.1282 2.86061 -2.21092
25 1 23.9742 1.04554 -0.672521 23.9742 1.04554 -0.672521
26 2 25.7671 1.0155 1.0232 25.7671 1.0155 1.0232
27 2 25.8886 0.928952 -2.21808 25.8886 0.928952 -2.21808
28 1 26.8226 2.67516 -0.495952 26.8226 2.67516 -0.495952
29 2 28.5517 2.50916 1.33109 28.5517 2.50916 1.33109
30 2 28.6628 2.83495 -1.98 28.6628 2.83495 -1.98
31 1 29.5363 1.03554 -0.432488 29.5363 1.03554 -0.432488
32 2 31.3906 1.06191 1.17555 31.3906 1.06191 1.17555
33 2 31.3699 0.925827 -2.10762 31.3699 0.925827 -2.10762
34 1 32.3461 2.58636 -0.447995 32.3461 2.58636 -0.447995
35 2 34.2692 2.78602 1.29153 34.2692 2.78602 1.29153
36 2 34.2498 2.61132 -2.03392 34.2498 2.61132 -2.03392
37 1 35.1966 0.981821 -0.315442 35.1966 0.981821 -0.315442
38 2 37.1246 0.91739 1.21588 37.1246 0.91739 1.21588
39 2 37.1271 0.999359 -1.98972 37.1271 0.999359 -1.98972
40 1 38.0416 2.68762 -0.404904 38.0416 2.68762 -0.404904
41 2 39.7861 2.69017 1.3564 39.7861 2.69017 1.3564
42 2 39.9792 2.58626 -1.90113 39.9792 2.58626 -1.90113
43 1 40.9697 0.990257 -0.20471 40.9697 0.990257 -0.20471
44 2 42.9665 0.935459 1.45391 42.9665 0.935459 1.45391
45 2 43.0182 0.902909 -1.83535 43.0182 0.902909 -1.83535
46 1 43.9428 2.62367 -0.0727441 43.9428 2.62367 -0.0727441
47 2 45.8458 2.40061 1.47787 45.8458 2.40061 1.47787
48 2 45.7956 2.64397 -1.77429 45.7956 2.64397 -1.77429
49 1 46.7029 0.98712 -0.231125 46.7029 0.98712 -0.231125
50 2 48.5719 0.998187 1.48954 48.5719 0.998187 1.48954
51 2 48.723 1.08566 -1.78976 48.723 1.08566 -1.78976
52 1 49.5597 2.57075 -0.0198108 49.5597 2.57075 -0.0198108
53 2 51.5544 2.41137 1.5209 51.5544 2.41137 1.5209
54 2 51.467 2.90531 -1.72519 51.467 2.90531 -1.72519
55 1 0.998566 4.24582 0.0765627 0.998566 4.24582 0.0765627
56 2 3.13927 3.92792 1.46075 3.13927 3.92792 1.46075
57 2 2.59129 4.50628 -1.7468 2.59129 4.50628 -1.7468
58 1 3.84794 5.92985 -0.0502575 3.84794 5.92985 -0.0502575
59 2 5.78282 5.63307 1.47729 5.78282 5.63307 1.47729
60 2 5.67321 6.00598 -1.81786 5.67321 6.00598 -1.81786
61 1 6.76676 4.1862 -0.353755 6.76676 4.1862 -0.353755
62 2 8.82294 4.08481 1.08083 8.82294 4.08481 1.08083
63 2 8.43885 4.57396 -2.19983 8.43885 4.57396 -2.19983
64 1 9.55994 5.87798 -0.389969 9.55994 5.87798 -0.389969
65 2 11.5091 6.00352 1.17982 11.5091 6.00352 1.17982
66 2 11.565 5.98223 -2.07603 11.565 5.98223 -2.07603
67 1 12.4775 4.37521 -0.534545 12.4775 4.37521 -0.534545
68 2 14.4374 4.187 1.02232 14.4374 4.187 1.02232
69 2 14.3363 4.53129 -2.18165 14.3363 4.53129 -2.18165
70 1 15.33 5.98667 -0.423847 15.33 5.98667 -0.423847
71 2 17.2965 5.84834 1.12634 17.2965 5.84834 1.12634
72 2 17.1424 6.11517 -2.0804 17.1424 6.11517 -2.0804
73 1 18.2037 4.33866 -0.681864 18.2037 4.33866 -0.681864
74 2 20.0135 4.27789 1.01597 20.0135 4.27789 1.01597
75 2 20.1955 4.37407 -2.34358 20.1955 4.37407 -2.34358
76 1 21.0834 5.99781 -0.526687 21.0834 5.99781 -0.526687
77 2 22.7782 5.83424 1.22142 22.7782 5.83424 1.22142
78 2 23.0945 6.21532 -1.96113 23.0945 6.21532 -1.96113
79 1 23.8914 4.39511 -0.332404 23.8914 4.39511 -0.332404
80 2 25.7282 4.04566 1.39723 25.7282 4.04566 1.39723
81 2 25.932 4.63593 -1.82162 25.932 4.63593 -1.82162
82 1 26.7334 5.9307 0.129467 26.7334 5.9307 0.129467
83 2 28.5741 5.75018 1.74401 28.5741 5.75018 1.74401
84 2 28.6579 6.06227 -1.47351 28.6579 6.06227 -1.47351
85 1 29.5732 4.27117 -0.0333878 29.5732 4.27117 -0.0333878
86 2 31.554 4.08648 1.33283 31.554 4.08648 1.33283
87 2 31.3845 4.49538 -1.73652 31.3845 4.49538 -1.73652
88 1 32.3678 5.93551 0.00396528 32.3678 5.93551 0.00396528
89 2 34.4065 5.71844 1.42029 34.4065 5.71844 1.42029
90 2 34.0929 6.10951 -1.81348 34.0929 6.10951 -1.81348
91 1 35.2253 4.28524 -0.476413 35.2253 4.28524 -0.476413
92 2 37.0848 4.3075 1.22246 37.0848 4.3075 1.22246
93 2 37.2481 4.3519 -2.08918 37.2481 4.3519 -2.08918
94 1 38.1482 5.94927 -0.35452 38.1482 5.94927 -0.35452
95 2 39.9293 5.9154 1.28918 39.9293 5.9154 1.28918
96 2 40.0786 5.91366 -1.89575 40.0786 5.91366 -1.89575
97 1 40.9948 4.21008 -0.257244 40.9948 4.21008 -0.257244
98 2 42.8623 4.20317 1.5292 42.8623 4.20317 1.5292
99 2 42.9153 4.18765 -1.74831 42.9153 4.18765 -1.74831
100 1 43.7266 5.8486 -0.0534217 43.7266 5.8486 -0.0534217
101 2 45.656 5.82945 1.56689 45.656 5.82945 1.56689
102 2 45.6491 5.80681 -1.60702 45.6491 5.80681 -1.60702
103 1 46.7214 4.21429 -0.0602052 46.7214 4.21429 -0.0602052
104 2 48.4958 4.04704 1.67749 48.4958 4.04704 1.67749
105 2 48.6373 4.33009 -1.54814 48.6373 4.33009 -1.54814
106 1 49.4882 5.87442 0.267406 49.4882 5.87442 0.267406
107 2 51.5667 6.01696 1.71206 51.5667 6.01696 1.71206
108 2 51.2738 5.97061 -1.44036 51.2738 5.97061 -1.44036
109 1 0.931519 7.6603 0.0367789 0.931519 7.6603 0.0367789
110 2 2.7922 7.56381 1.67166 2.7922 7.56381 1.67166
111 2 2.78158 7.71073 -1.60677 2.78158 7.71073 -1.60677
112 1 3.84356 9.18704 0.220676 3.84356 9.18704 0.220676
113 2 5.92453 9.21454 1.67348 5.92453 9.21454 1.67348
114 2 5.59285 9.08548 -1.50191 5.59285 9.08548 -1.50191
115 1 6.68894 7.46649 -0.0607381 6.68894 7.46649 -0.0607381
116 2 8.66045 7.2716 1.4762 8.66045 7.2716 1.4762
117 2 8.48438 7.72264 -1.76939 8.48438 7.72264 -1.76939
118 1 9.58025 9.15648 -0.00855037 9.58025 9.15648 -0.00855037
119 2 11.5138 9.08501 1.38259 11.5138 9.08501 1.38259
120 2 11.3463 9.31564 -1.737 11.3463 9.31564 -1.737
121 1 12.471 7.54294 -0.401266 12.471 7.54294 -0.401266
122 2 14.251 7.49738 1.32197 14.251 7.49738 1.32197
123 2 14.4447 7.65869 -1.96676 14.4447 7.65869 -1.96676
124 1 15.3208 9.29295 -0.223342 15.3208 9.29295 -0.223342
125 2 17.289 9.09 1.32669 17.289 9.09 1.32669
126 2 17.1271 9.42204 -1.88321 17.1271 9.42204 -1.88321
127 1 18.1932 7.60156 -0.396185 18.1932 7.60156 -0.396185
128 2 20.0701 7.50296 1.26234 20.0701 7.50296 1.26234
129 2 20.0573 7.79962 -1.97981 20.0573 7.79962 -1.97981
130 1 21.0534 9.26709 -0.065464 21.0534 9.26709 -0.065464
131 2 22.8153 9.26265 1.62767 22.8153 9.26265 1.62767
132 2 22.8597 9.42473 -1.60672 22.8597 9.42473 -1.60672
133 1 23.8093 7.73019 -0.0801676 23.8093 7.73019 -0.0801676
134 2 25.7242 7.629 1.72468 25.7242 7.629 1.72468
135 2 25.7726 7.6736 -1.48945 25.7726 7.6736 -1.48945
136 1 26.6584 9.26478 0.148205 26.6584 9.26478 0.148205
137 2 28.5687 9.44275 1.81509 28.5687 9.44275 1.81509
138 2 28.6994 9.06775 -1.40168 28.6994 9.06775 -1.40168
139 1 29.5653 7.55026 0.366263 29.5653 7.55026 0.366263
140 2 31.5956 7.53714 1.7842 31.5956 7.53714 1.7842
141 2 31.3121 7.59052 -1.42693 31.3121 7.59052 -1.42693
142 1 32.4328 9.2603 0.125018 32.4328 9.2603 0.125018
143 2 34.4245 9.02747 1.60348 34.4245 9.02747 1.60348
144 2 34.3154 9.21252 -1.6182 34.3154 9.21252 -1.6182
145 1 35.2372 7.5132 -0.141427 35.2372 7.5132 -0.141427
146 2 37.2432 7.47572 1.40374 37.2432 7.47572 1.40374
147 2 36.9007 7.56555 -1.8721 36.9007 7.56555 -1.8721
148 1 38.1237 9.13855 -0.250487 38.1237 9.13855 -0.250487
149 2 40.0612 9.16368 1.31419 40.0612 9.16368 1.31419
150 2 39.9956 9.16808 -1.96757 39.9956 9.16808 -1.96757
151 1 40.9779 7.49765 -0.291044 40.9779 7.49765 -0.291044
152 2 42.7675 7.549 1.5636 42.7675 7.549 1.5636
153 2 42.9559 7.67693 -1.65898 42.9559 7.67693 -1.65898
154 1 43.794 9.22311 0.117036 43.794 9.22311 0.117036
155 2 45.6755 8.89867 1.78708 45.6755 8.89867 1.78708
156 2 45.7631 9.41455 -1.38879 45.7631 9.41455 -1.38879
157 1 46.6098 7.51091 0.00683786 46.6098 7.51091 0.00683786
158 2 48.3398 7.49899 1.81129 48.3398 7.49899 1.81129
159 2 48.7079 7.58436 -1.41871 48.7079 7.58436 -1.41871
160 1 49.4747 9.21546 0.373314 49.4747 9.21546 0.373314
161 2 51.6316 9.14125 1.82181 51.6316 9.14125 1.82181
162 2 51.3104 9.45672 -1.3762 51.3104 9.45672 -1.3762
163 1 1.01833 10.8816 0.283498 1.01833 10.8816 0.283498
164 2 2.97137 10.7629 1.92629 2.97137 10.7629 1.92629
165 2 2.88631 10.9049 -1.39055 2.88631 10.9049 -1.39055
166 1 3.8291 12.433 0.367756 3.8291 12.433 0.367756
167 2 5.84515 12.263 2.01788 5.84515 12.263 2.01788
168 2 5.68317 12.7677 -1.29123 5.68317 12.7677 -1.29123
169 1 6.71122 10.8826 0.0518501 6.71122 10.8826 0.0518501
170 2 8.48778 10.5464 1.8269 8.48778 10.5464 1.8269
171 2 8.74124 11.1875 -1.35665 8.74124 11.1875 -1.35665
172 1 9.56557 12.4598 0.563817 9.56557 12.4598 0.563817
173 2 11.649 12.278 1.9283 11.649 12.278 1.9283
174 2 11.2807 12.8823 -1.34627 11.2807 12.8823 -1.34627
175 1 12.4843 10.9572 -0.17868 12.4843 10.9572 -0.17868
176 2 14.1854 10.5841 1.55705 14.1854 10.5841 1.55705
177 2 14.5192 11.1259 -1.71001 14.5192 11.1259 -1.71001
178 1 15.3039 12.419 0.188913 15.3039 12.419 0.188913
179 2 17.3252 12.3001 1.66547 17.3252 12.3001 1.66547
180 2 17.0326 12.6221 -1.64796 17.0326 12.6221 -1.64796
181 1 18.135 10.845 -0.152586 18.135 10.845 -0.152586
182 2 20.1392 10.8199 1.51241 20.1392 10.8199 1.51241
183 2 20.1663 11.0403 -1.7658 20.1663 11.0403 -1.7658
184 1 20.9541 12.5847 -0.00646491 20.9541 12.5847 -0.00646491
185 2 22.7575 12.5154 1.8185 22.7575 12.5154 1.8185
186 2 22.9765 12.6031 -1.48619 22.9765 12.6031 -1.48619
187 1 23.8234 10.915 0.157032 23.8234 10.915 0.157032
188 2 25.6541 10.9497 1.84787 25.6541 10.9497 1.84787
189 2 25.6992 10.9982 -1.43164 25.6992 10.9982 -1.43164
190 1 26.687 12.5753 0.296726 26.687 12.5753 0.296726
191 2 28.6433 12.4738 1.83022 28.6433 12.4738 1.83022
192 2 28.4319 12.5952 -1.39609 28.4319 12.5952 -1.39609
193 1 29.5813 10.8993 0.111226 29.5813 10.8993 0.111226
194 2 31.4887 10.7783 1.74247 31.4887 10.7783 1.74247
195 2 31.5407 10.8491 -1.44584 31.5407 10.8491 -1.44584
196 1 32.4061 12.4537 0.143375 32.4061 12.4537 0.143375
197 2 34.2414 12.4504 1.77308 34.2414 12.4504 1.77308
198 2 34.2729 12.5809 -1.5443 34.2729 12.5809 -1.5443
199 1 35.238 10.8667 0.10798 35.238 10.8667 0.10798
200 2 37.2506 10.7442 1.55483 37.2506 10.7442 1.55483
201 2 37.0011 10.9746 -1.67232 37.0011 10.9746 -1.67232
202 1 38.179 12.4854 -0.0789102 38.179 12.4854 -0.0789102
203 2 40.1459 12.4735 1.43705 40.1459 12.4735 1.43705
204 2 39.9271 12.5789 -1.90929 39.9271 12.5789 -1.90929
205 1 40.9743 10.8324 -0.298457 40.9743 10.8324 -0.298457
206 2 42.5334 10.795 1.60754 42.5334 10.795 1.60754
207 2 43.1674 10.8653 -1.68951 43.1674 10.8653 -1.68951
208 1 43.7231 12.4786 0.13708 43.7231 12.4786 0.13708
209 2 45.3832 12.4717 1.94494 45.3832 12.4717 1.94494
210 2 45.8156 12.3872 -1.37459 45.8156 12.3872 -1.37459
211 1 46.6144 10.8474 0.428235 46.6144 10.8474 0.428235
212 2 48.5781 10.7928 2.05694 48.5781 10.7928 2.05694
213 2 48.5467 10.8636 -1.19317 48.5467 10.8636 -1.19317
214 1 49.4869 12.4875 0.478534 49.4869 12.4875 0.478534
215 2 51.4852 12.3244 2.06536 51.4852 12.3244 2.06536
216 2 51.4538 12.5661 -1.18752 51.4538 12.5661 -1.18752
217 1 1.03345 14.1892 0.548554 1.03345 14.1892 0.548554
218 2 2.84147 13.9685 2.14848 2.84147 13.9685 2.14848
219 2 2.89837 14.2025 -1.06921 2.89837 14.2025 -1.06921
220 1 3.83808 15.7762 0.66531 3.83808 15.7762 0.66531
221 2 5.64601 15.7517 2.33326 5.64601 15.7517 2.33326
222 2 5.7133 15.818 -0.929483 5.7133 15.818 -0.929483
223 1 6.67693 14.1674 0.682486 6.67693 14.1674 0.682486
224 2 8.66204 14.062 2.32492 8.66204 14.062 2.32492
225 2 8.53969 14.2312 -0.971145 8.53969 14.2312 -0.971145
226 1 9.56601 15.8137 0.781335 9.56601 15.8137 0.781335
227 2 11.5713 15.6987 2.23084 11.5713 15.6987 2.23084
228 2 11.4051 15.7734 -0.986275 11.4051 15.7734 -0.986275
229 1 12.3916 14.094 0.477896 12.3916 14.094 0.477896
230 2 14.4384 14.106 1.90264 14.4384 14.106 1.90264
231 2 14.1889 14.2785 -1.22951 14.1889 14.2785 -1.22951
232 1 15.2809 15.8838 0.343489 15.2809 15.8838 0.343489
233 2 17.2646 15.716 1.86216 17.2646 15.716 1.86216
234 2 16.9626 16.1076 -1.40704 16.9626 16.1076 -1.40704
235 1 18.0573 14.172 0.0591696 18.0573 14.172 0.0591696
236 2 19.8384 13.8796 1.74259 19.8384 13.8796 1.74259
237 2 20.0815 14.4598 -1.41511 20.0815 14.4598 -1.41511
238 1 20.95 15.7926 0.494731 20.95 15.7926 0.494731
239 2 23.0176 15.6538 2.07019 23.0176 15.6538 2.07019
240 2 22.8832 15.9271 -1.14304 22.8832 15.9271 -1.14304
241 1 23.8228 14.1569 0.291509 23.8228 14.1569 0.291509
242 2 25.7993 14.1691 1.83831 25.7993 14.1691 1.83831
243 2 25.663 14.1738 -1.40642 25.663 14.1738 -1.40642
244 1 26.7092 15.8365 0.155737 26.7092 15.8365 0.155737
245 2 28.6133 15.8415 1.83358 28.6133 15.8415 1.83358
246 2 28.6201 15.7926 -1.50935 28.6201 15.7926 -1.50935
247 1 29.5727 14.2099 0.236464 29.5727 14.2099 0.236464
248 2 31.5285 14.1093 1.76009 31.5285 14.1093 1.76009
249 2 31.3339 14.215 -1.52136 31.3339 14.215 -1.52136
250 1 32.4102 15.7924 0.162631 32.4102 15.7924 0.162631
251 2 34.279 15.797 1.8495 34.279 15.797 1.8495
252 2 34.2513 15.7506 -1.42023 34.2513 15.7506 -1.42023
253 1 35.1996 14.197 0.231921 35.1996 14.197 0.231921
254 2 37.2732 14.1769 1.58357 37.2732 14.1769 1.58357
255 2 36.9103 14.047 -1.6288 36.9103 14.047 -1.6288
256 1 38.0147 15.7014 -0.190463 38.0147 15.7014 -0.190463
257 2 40.0938 15.7944 1.42014 40.0938 15.7944 1.42014
258 2 39.8983 15.7864 -1.76033 39.8983 15.7864 -1.76033
259 1 40.9222 14.1409 -0.232855 40.9222 14.1409 -0.232855
260 2 42.6286 14.0308 1.68712 42.6286 14.0308 1.68712
261 2 42.9235 14.1954 -1.59859 42.9235 14.1954 -1.59859
262 1 43.7854 15.8105 0.230118 43.7854 15.8105 0.230118
263 2 45.7175 15.9094 1.80137 45.7175 15.9094 1.80137
264 2 45.651 15.6165 -1.46405 45.651 15.6165 -1.46405
265 1 46.5277 14.1304 0.321117 46.5277 14.1304 0.321117
266 2 48.377 14.2419 2.03712 48.377 14.2419 2.03712
267 2 48.508 14.0342 -1.28176 48.508 14.0342 -1.28176
268 1 49.4266 15.7307 0.403585 49.4266 15.7307 0.403585
269 2 51.2529 15.6441 2.10588 51.2529 15.6441 2.10588
270 2 51.5313 15.6462 -1.16125 51.5313 15.6462 -1.16125
271 1 0.930624 17.393 0.473962 0.930624 17.393 0.473962
272 2 2.78134 17.4146 2.2104 2.78134 17.4146 2.2104
273 2 2.91115 17.4602 -1.06272 2.91115 17.4602 -1.06272
274 1 3.73602 19.0144 0.638785 3.73602 19.0144 0.638785
275 2 5.66729 19.2717 2.24637 5.66729 19.2717 2.24637
276 2 5.63404 19.0146 -1.02707 5.63404 19.0146 -1.02707
277 1 6.64303 17.5403 0.765718 6.64303 17.5403 0.765718
278 2 8.63579 17.475 2.3149 8.63579 17.475 2.3149
279 2 8.51515 17.4138 -0.847225 8.51515 17.4138 -0.847225
280 1 9.58137 19.1154 0.692786 9.58137 19.1154 0.692786
281 2 11.5876 19.1219 2.24558 11.5876 19.1219 2.24558
282 2 11.4459 19.0016 -1.01206 11.4459 19.0016 -1.01206
283 1 12.4572 17.3718 0.672466 12.4572 17.3718 0.672466
284 2 14.5294 17.4622 2.12733 14.5294 17.4622 2.12733
285 2 14.1254 17.5828 -1.08683 14.1254 17.5828 -1.08683
286 1 15.2608 19.1122 0.491217 15.2608 19.1122 0.491217
287 2 17.1832 19.0702 2.01635 17.1832 19.0702 2.01635
288 2 17.1603 19.1634 -1.22211 17.1603 19.1634 -1.22211
289 1 18.186 17.4571 0.349808 18.186 17.4571 0.349808
290 2 20.0299 17.5376 2.07142 20.0299 17.5376 2.07142
291 2 20.1524 17.5111 -1.26044 20.1524 17.5111 -1.26044
292 1 21.0107 19.1607 0.409212 21.0107 19.1607 0.409212
293 2 22.9821 19.2205 2.0532 22.9821 19.2205 2.0532
294 2 22.8842 18.986 -1.27226 22.8842 18.986 -1.27226
295 1 23.8367 17.4388 0.534454 23.8367 17.4388 0.534454
296 2 25.9427 17.4183 2.0311 25.9427 17.4183 2.0311
297 2 25.5889 17.4836 -1.24076 25.5889 17.4836 -1.24076
298 1 26.7191 19.1017 0.201016 26.7191 19.1017 0.201016
299 2 28.7559 19.2154 1.71987 28.7559 19.2154 1.71987
300 2 28.4021 18.952 -1.55931 28.4021 18.952 -1.55931
301 1 29.5492 17.4877 0.122049 29.5492 17.4877 0.122049
302 2 31.4686 17.4226 1.85656 31.4686 17.4226 1.85656
303 2 31.5007 17.4481 -1.41919 31.5007 17.4481 -1.41919
304 1 32.403 19.1718 0.256986 32.403 19.1718 0.256986
305 2 34.3225 19.0656 1.77782 34.3225 19.0656 1.77782
306 2 34.1502 19.0251 -1.41353 34.1502 19.0251 -1.41353
307 1 35.2385 17.5 0.11976 35.2385 17.5 0.11976
308 2 37.3208 17.3046 1.58848 37.3208 17.3046 1.58848
309 2 37.0985 17.5564 -1.57706 37.0985 17.5564 -1.57706
310 1 38.1261 19.0478 0.0464072 38.1261 19.0478 0.0464072
311 2 39.9634 18.9131 1.64108 39.9634 18.9131 1.64108
312 2 39.9443 19.1928 -1.58819 39.9443 19.1928 -1.58819
313 1 41.0406 17.4434 -0.178418 41.0406 17.4434 -0.178418
314 2 42.8418 17.7263 1.56973 42.8418 17.7263 1.56973
315 2 42.9821 17.2385 -1.65469 42.9821 17.2385 -1.65469
316 1 43.7899 19.1204 -0.26671 43.7899 19.1204 -0.26671
317 2 45.688 19.143 1.56951 45.688 19.143 1.56951
318 2 45.7964 18.9669 -1.72631 45.7964 18.9669 -1.72631
319 1 46.6613 17.3881 0.0297588 46.6613 17.3881 0.0297588
320 2 48.4417 17.5506 1.83867 48.4417 17.5506 1.83867
321 2 48.7559 17.256 -1.41881 48.7559 17.256 -1.41881
322 1 49.5082 19.0645 0.080783 49.5082 19.0645 0.080783
323 2 51.1313 18.9787 1.92839 51.1313 18.9787 1.92839
324 2 51.5812 19.0736 -1.23506 51.5812 19.0736 -1.23506
325 1 0.920009 20.7168 0.410272 0.920009 20.7168 0.410272
326 2 2.89512 20.7443 2.14533 2.89512 20.7443 2.14533
327 2 2.94416 20.6354 -1.05399 2.94416 20.6354 -1.05399
328 1 3.81611 22.3953 0.512152 3.81611 22.3953 0.512152
329 2 5.85568 22.387 2.01447 5.85568 22.387 2.01447
330 2 5.76517 22.373 -1.23888 5.76517 22.373 -1.23888
331 1 6.70444 20.7696 0.427363 6.70444 20.7696 0.427363
332 2 8.60173 20.7536 2.16352 8.60173 20.7536 2.16352
333 2 8.74874 20.7229 -1.03009 8.74874 20.7229 -1.03009
334 1 9.57231 22.438 0.503191 9.57231 22.438 0.503191
335 2 11.6744 22.4631 2.06916 11.6744 22.4631 2.06916
336 2 11.2704 22.4081 -1.21238 11.2704 22.4081 -1.21238
337 1 12.399 20.7453 0.441208 12.399 20.7453 0.441208
338 2 14.435 20.9012 2.09221 14.435 20.9012 2.09221
339 2 14.3358 20.7851 -1.18762 14.3358 20.7851 -1.18762
340 1 15.3458 22.4411 0.418996 15.3458 22.4411 0.418996
341 2 17.2783 22.4281 2.1476 17.2783 22.4281 2.1476
342 2 17.1421 22.5265 -1.19764 17.1421 22.5265 -1.19764
343 1 18.1371 20.8255 0.340582 18.1371 20.8255 0.340582
344 2 20.0928 20.9202 1.93258 20.0928 20.9202 1.93258
345 2 19.9103 20.5962 -1.33552 19.9103 20.5962 -1.33552
346 1 20.9953 22.3862 0.149325 20.9953 22.3862 0.149325
347 2 22.9744 22.6307 1.65979 22.9744 22.6307 1.65979
348 2 22.8607 22.2762 -1.59382 22.8607 22.2762 -1.59382
349 1 23.908 20.7905 0.238147 23.908 20.7905 0.238147
350 2 25.8299 20.7302 1.81678 25.8299 20.7302 1.81678
351 2 25.681 20.686 -1.43986 25.681 20.686 -1.43986
352 1 26.7259 22.4116 0.129634 26.7259 22.4116 0.129634
353 2 28.7068 22.5985 1.46416 28.7068 22.5985 1.46416
354 2 28.4178 22.3652 -1.74168 28.4178 22.3652 -1.74168
355 1 29.5142 20.8421 -0.0657966 29.5142 20.8421 -0.0657966
356 2 31.256 21.0004 1.69599 31.256 21.0004 1.69599
357 2 31.6436 20.7152 -1.6025 31.6436 20.7152 -1.6025
358 1 32.4553 22.4577 0.0445343 32.4553 22.4577 0.0445343
359 2 34.4583 22.404 1.67019 34.4583 22.404 1.67019
360 2 34.3514 22.3306 -1.62163 34.3514 22.3306 -1.62163
361 1 35.2332 20.6832 0.0389347 35.2332 20.6832 0.0389347
362 2 37.1148 20.6712 1.60304 37.1148 20.6712 1.60304
363 2 37.0791 20.6816 -1.57212 37.0791 20.6816 -1.57212
364 1 38.0631 22.3996 0.00682854 38.0631 22.3996 0.00682854
365 2 39.8489 22.4124 1.70525 39.8489 22.4124 1.70525
366 2 40.0425 22.3478 -1.55965 40.0425 22.3478 -1.55965
367 1 40.9005 20.7866 0.123246 40.9005 20.7866 0.123246
368 2 43.0839 20.8536 1.44132 43.0839 20.8536 1.44132
369 2 42.5548 20.7663 -1.77435 42.5548 20.7663 -1.77435
370 1 43.8424 22.371 -0.374951 43.8424 22.371 -0.374951
371 2 45.5811 22.3653 1.46289 45.5811 22.3653 1.46289
372 2 45.9486 22.5551 -1.77964 45.9486 22.5551 -1.77964
373 1 46.6876 20.7533 -0.152792 46.6876 20.7533 -0.152792
374 2 48.4685 20.7873 1.5894 48.4685 20.7873 1.5894
375 2 48.6575 20.6716 -1.65619 48.6575 20.6716 -1.65619
376 1 49.5562 22.3398 0.0413 49.5562 22.3398 0.0413
377 2 51.367 22.631 1.86645 51.367 22.631 1.86645
378 2 51.5306 22.2509 -1.36173 51.5306 22.2509 -1.36173
379 1 1.02224 24.068 0.180463 1.02224 24.068 0.180463
380 2 2.74461 24.2194 1.89626 2.74461 24.2194 1.89626
381 2 3.07474 23.9255 -1.36686 3.07474 23.9255 -1.36686
382 1 3.88137 25.5754 0.187031 3.88137 25.5754 0.187031
383 2 5.60685 25.5701 1.97465 5.60685 25.5701 1.97465
384 2 6.00074 25.7952 -1.22392 6.00074 25.7952 -1.22392
385 1 6.75634 24.0624 0.356357 6.75634 24.0624 0.356357
386 2 8.53811 24.0508 2.11172 8.53811 24.0508 2.11172
387 2 8.7945 24.0647 -1.12802 8.7945 24.0647 -1.12802
388 1 9.53115 25.6882 0.590442 9.53115 25.6882 0.590442
389 2 11.6353 25.7351 1.99995 11.6353 25.7351 1.99995
390 2 11.2833 25.707 -1.25342 11.2833 25.707 -1.25342
391 1 12.4644 24.1373 0.338086 12.4644 24.1373 0.338086
392 2 14.3977 24.226 1.88557 14.3977 24.226 1.88557
393 2 14.3177 23.9414 -1.34283 14.3177 23.9414 -1.34283
394 1 15.2558 25.7843 0.17889 15.2558 25.7843 0.17889
395 2 17.1641 26.1056 1.71897 17.1641 26.1056 1.71897
396 2 17.1742 25.5479 -1.55072 17.1742 25.5479 -1.55072
397 1 18.1747 24.1312 0.384064 18.1747 24.1312 0.384064
398 2 20.4383 24.4027 1.54971 20.4383 24.4027 1.54971
399 2 19.7216 23.8564 -1.56201 19.7216 23.8564 -1.56201
400 1 21.1051 25.6426 -0.457366 21.1051 25.6426 -0.457366
401 2 22.8974 25.7618 1.34186 22.8974 25.7618 1.34186
402 2 23.0965 25.5506 -1.87215 23.0965 25.5506 -1.87215
403 1 23.8806 23.9848 -0.17478 23.8806 23.9848 -0.17478
404 2 25.7824 24.3997 1.48252 25.7824 24.3997 1.48252
405 2 25.8748 23.7726 -1.73921 25.8748 23.7726 -1.73921
406 1 26.7677 25.7238 -0.388766 26.7677 25.7238 -0.388766
407 2 28.7177 25.9585 1.16511 28.7177 25.9585 1.16511
408 2 28.6173 25.5749 -2.06625 28.6173 25.5749 -2.06625
409 1 29.5491 24.1368 -0.340739 29.5491 24.1368 -0.340739
410 2 31.3276 24.3175 1.43404 31.3276 24.3175 1.43404
411 2 31.6622 23.9121 -1.81118 31.6622 23.9121 -1.81118
412 1 32.4736 25.7193 -0.326597 32.4736 25.7193 -0.326597
413 2 34.3018 25.8075 1.47829 34.3018 25.8075 1.47829
414 2 34.5414 25.6712 -1.66189 34.5414 25.6712 -1.66189
415 1 35.319 24.1138 0.0559241 35.319 24.1138 0.0559241
416 2 37.1739 24.0871 1.66877 37.1739 24.0871 1.66877
417 2 37.1907 24.0608 -1.64287 37.1907 24.0608 -1.64287
418 1 38.1257 25.713 -0.00257316 38.1257 25.713 -0.00257316
419 2 40.0602 25.7384 1.64987 40.0602 25.7384 1.64987
420 2 40.014 25.5619 -1.69925 40.014 25.5619 -1.69925
421 1 41.0274 24.0462 0.117127 41.0274 24.0462 0.117127
422 2 43.1355 23.9724 1.48294 43.1355 23.9724 1.48294
423 2 42.6569 24.022 -1.81004 42.6569 24.022 -1.81004
424 1 43.8754 25.6822 -0.225669 43.8754 25.6822 -0.225669
425 2 45.6444 25.7101 1.60803 45.6444 25.7101 1.60803
426 2 45.9866 25.587 -1.66245 45.9866 25.587 -1.66245
427 1 46.727 24.0293 0.107783 46.727 24.0293 0.107783
428 2 48.6018 24.0534 1.73612 48.6018 24.0534 1.73612
429 2 48.7074 24.1241 -1.51228 48.7074 24.1241 -1.51228
430 1 49.5379 25.7143 0.225152 49.5379 25.7143 0.225152
431 2 51.4392 25.7935 1.72289 51.4392 25.7935 1.72289
432 2 51.4412 25.7533 -1.53165 51.4412 25.7533 -1.53165
433 1 1.0534 27.3345 0.0461655 1.0534 27.3345 0.0461655
434 2 2.79381 27.2612 1.8075 2.79381 27.2612 1.8075
435 2 3.05449 27.4505 -1.43502 3.05449 27.4505 -1.43502
436 1 3.83262 29.0162 0.346327 3.83262 29.0162 0.346327
437 2 5.5501 29.0426 2.01774 5.5501 29.0426 2.01774
438 2 5.89994 28.9221 -1.32406 5.89994 28.9221 -1.32406
439 1 6.64228 27.3251 0.53035 6.64228 27.3251 0.53035
440 2 8.58213 27.5 2.19772 8.58213 27.5 2.19772
441 2 8.6571 27.2786 -1.11284 8.6571 27.2786 -1.11284
442 1 9.67919 29.0003 0.487896 9.67919 29.0003 0.487896
443 2 11.7092 29.2071 1.89956 11.7092 29.2071 1.89956
444 2 11.3382 28.9845 -1.38437 11.3382 28.9845 -1.38437
445 1 12.3763 27.4034 0.239396 12.3763 27.4034 0.239396
446 2 14.3227 27.4833 1.76238 14.3227 27.4833 1.76238
447 2 14.2423 27.2582 -1.50818 14.2423 27.2582 -1.50818
448 1 15.29 29.0367 -0.0508439 15.29 29.0367 -0.0508439
449 2 17.4069 29.2225 1.2794 17.4069 29.2225 1.2794
450 2 16.9588 28.9055 -1.95573 16.9588 28.9055 -1.95573
451 1 18.1451 27.4488 -0.245349 18.1451 27.4488 -0.245349
452 2 20.2389 27.5669 1.19387 20.2389 27.5669 1.19387
453 2 19.9597 27.2101 -2.07197 19.9597 27.2101 -2.07197
454 1 21.0358 29.0191 -0.620398 21.0358 29.0191 -0.620398
455 2 22.8885 29.2577 1.01121 22.8885 29.2577 1.01121
456 2 22.9847 28.7227 -2.12786 22.9847 28.7227 -2.12786
457 1 23.9491 27.3951 -0.273613 23.9491 27.3951 -0.273613
458 2 26.1019 27.6056 1.03095 26.1019 27.6056 1.03095
459 2 25.6852 27.0276 -2.12839 25.6852 27.0276 -2.12839
460 1 26.6774 29.0032 -0.915615 26.6774 29.0032 -0.915615
461 2 28.4985 29.1852 0.764589 28.4985 29.1852 0.764589
462 2 28.7111 28.8463 -2.40568 28.7111 28.8463 -2.40568
463 1 29.7005 27.4023 -0.635607 29.7005 27.4023 -0.635607
464 2 31.5753 27.5966 1.02943 31.5753 27.5966 1.02943
465 2 31.6136 27.229 -2.22525 31.6136 27.229 -2.22525
466 1 32.5018 29.0784 -0.77719 32.5018 29.0784 -0.77719
467 2 34.1569 29.3928 1.16386 34.1569 29.3928 1.16386
468 2 34.6563 29.0443 -1.99899 34.6563 29.0443 -1.99899
469 1 35.2583 27.5623 -0.178682 35.2583 27.5623 -0.178682
470 2 37.0733 27.501 1.55991 37.0733 27.501 1.55991
471 2 37.2706 27.4284 -1.6517 37.2706 27.4284 -1.6517
472 1 38.1709 29.1451 -0.0791661 38.1709 29.1451 -0.0791661
473 2 39.8781 28.881 1.62492 39.8781 28.881 1.62492
474 2 40.0884 29.1808 -1.65139 40.0884 29.1808 -1.65139
475 1 40.9179 27.3297 -0.183144 40.9179 27.3297 -0.183144
476 2 42.8074 27.1937 1.46558 42.8074 27.1937 1.46558
477 2 42.842 27.4104 -1.79484 42.842 27.4104 -1.79484
478 1 43.7519 28.9423 0.00253646 43.7519 28.9423 0.00253646
479 2 45.535 28.7363 1.7856 45.535 28.7363 1.7856
480 2 45.8913 29.0868 -1.44529 45.8913 29.0868 -1.44529
481 1 46.6627 27.2858 0.0126818 46.6627 27.2858 0.0126818
482 2 48.4932 27.2639 1.89085 48.4932 27.2639 1.89085
483 2 48.7195 27.3803 -1.46051 48.7195 27.3803 -1.46051
484 1 49.5303 29.0121 0.332796 49.5303 29.0121 0.332796
485 2 51.5233 29.1064 1.7622 51.5233 29.1064 1.7622
486 2 51.2331 29.0141 -1.44866 51.2331 29.0141 -1.44866
487 1 1.04365 30.6862 0.137232 1.04365 30.6862 0.137232
488 2 2.82449 30.7712 1.90093 2.82449 30.7712 1.90093
489 2 2.96307 30.6029 -1.403 2.96307 30.6029 -1.403
490 1 3.82986 32.3432 0.207783 3.82986 32.3432 0.207783
491 2 5.72788 32.2659 1.85024 5.72788 32.2659 1.85024
492 2 5.8766 32.1129 -1.42319 5.8766 32.1129 -1.42319
493 1 6.79004 30.5781 0.363767 6.79004 30.5781 0.363767
494 2 8.74033 30.8228 2.02512 8.74033 30.8228 2.02512
495 2 8.66133 30.4798 -1.25318 8.66133 30.4798 -1.25318
496 1 9.54898 32.362 0.221971 9.54898 32.362 0.221971
497 2 11.7018 32.3815 1.70412 11.7018 32.3815 1.70412
498 2 11.4014 32.2551 -1.52804 11.4014 32.2551 -1.52804
499 1 12.4898 30.6515 0.00890646 12.4898 30.6515 0.00890646
500 2 14.5948 30.8975 1.47365 14.5948 30.8975 1.47365
501 2 14.1838 30.4936 -1.71228 14.1838 30.4936 -1.71228
502 1 15.2744 32.313 -0.402641 15.2744 32.313 -0.402641
503 2 17.334 32.2258 1.00946 17.334 32.2258 1.00946
504 2 17.0885 32.4391 -2.19672 17.0885 32.4391 -2.19672
505 1 18.1196 30.7108 -0.752167 18.1196 30.7108 -0.752167
506 2 20.0079 30.7977 0.995884 20.0079 30.7977 0.995884
507 2 20.1147 30.5515 -2.33465 20.1147 30.5515 -2.33465
508 1 21.0448 32.3214 -0.784944 21.0448 32.3214 -0.784944
509 2 22.8682 32.2396 0.954941 22.8682 32.2396 0.954941
510 2 22.9891 32.6023 -2.26 22.9891 32.6023 -2.26
511 1 23.897 30.7215 -0.80948 23.897 30.7215 -0.80948
512 2 25.7288 30.5251 0.876085 25.7288 30.5251 0.876085
513 2 25.8117 30.7799 -2.42275 25.8117 30.7799 -2.42275
514 1 26.7144 32.3205 -0.613277 26.7144 32.3205 -0.613277
515 2 28.6384 32.2817 0.870016 28.6384 32.2817 0.870016
516 2 28.4628 32.3556 -2.38143 28.4628 32.3556 -2.38143
517 1 29.5572 30.6613 -0.88736 29.5572 30.6613 -0.88736
518 2 31.4731 30.7327 0.787449 31.4731 30.7327 0.787449
519 2 31.5793 30.6858 -2.48272 31.5793 30.6858 -2.48272
520 1 32.5107 32.336 -0.800909 32.5107 32.336 -0.800909
521 2 34.2353 32.5314 0.987966 34.2353 32.5314 0.987966
522 2 34.5235 32.3453 -2.24023 34.5235 32.3453 -2.24023
523 1 35.322 30.8653 -0.441923 35.322 30.8653 -0.441923
524 2 36.9896 30.6969 1.35785 36.9896 30.6969 1.35785
525 2 37.4123 30.8561 -1.80586 37.4123 30.8561 -1.80586
526 1 38.2051 32.4115 -0.0469387 38.2051 32.4115 -0.0469387
527 2 39.927 32.4538 1.72022 39.927 32.4538 1.72022
528 2 40.176 32.2727 -1.59198 40.176 32.2727 -1.59198
529 1 40.9518 30.7234 0.1646 40.9518 30.7234 0.1646
530 2 42.7421 30.3749 1.9013 42.7421 30.3749 1.9013
531 2 42.909 30.9112 -1.39332 42.909 30.9112 -1.39332
532 1 43.8655 32.3011 0.598598 43.8655 32.3011 0.598598
533 2 45.8651 32.1257 2.16471 45.8651 32.1257 2.16471
534 2 45.7346 32.1813 -1.16932 45.7346 32.1813 -1.16932
535 1 46.6632 30.513 0.452922 46.6632 30.513 0.452922
536 2 48.6742 30.6578 2.00988 48.6742 30.6578 2.00988
537 2 48.5618 30.6248 -1.1676 48.5618 30.6248 -1.1676
538 1 49.5109 32.3838 0.381963 49.5109 32.3838 0.381963
539 2 51.497 32.3496 1.76134 51.497 32.3496 1.76134
540 2 51.2345 32.2947 -1.36534 51.2345 32.2947 -1.36534
541 1 1.01158 33.9078 0.160346 1.01158 33.9078 0.160346