ITEM: TIMESTEP
3536000
ITEM: NUMBER OF ATOMS
810
ITEM: BOX BOUNDS xy xz yz pp pp pp
8.6298438867990135e-01 6.9618331466116103e+01 1.7463710854796943e+01
8.1394622342039402e-01 5.0202268776579182e+01 0.0000000000000000e+00
-1.0000000000000000e+01 1.0000000000000000e+01 0.0000000000000000e+00
ITEM: ATOMS id type x y z xu yu zu
1 1 37.483 1.27045 3.6237 -13.8086 1.27045 3.6237
2 2 39.3814 1.22305 5.39581 -11.9102 1.22305 5.39581
3 2 39.6532 1.11589 2.21901 -11.6384 1.11589 2.21901
4 1 40.9944 2.84321 3.83396 -10.2972 2.84321 3.83396
5 2 42.998 2.65141 5.47487 -8.29366 2.65141 5.47487
6 2 43.0849 2.80472 2.2908 -8.20673 2.80472 2.2908
7 1 43.6059 0.822187 3.80713 -7.68569 0.822187 3.80713
8 2 63.3672 49.5807 4.80373 -5.38811 0.192421 4.80373
9 2 45.3041 1.31779 1.8693 -5.98754 1.31779 1.8693
10 1 47.1083 2.3927 3.60383 -4.18337 2.3927 3.60383
11 2 49.4468 1.69765 4.43325 -1.84488 1.69765 4.43325
12 2 48.7 3.02134 1.6121 -2.59163 3.02134 1.6121
13 1 66.8772 50.0371 2.10824 -1.87816 0.648792 2.10824
14 2 17.9986 49.2508 2.40168 0.534863 -0.137502 2.40168
15 2 50.6234 1.70655 0.0457381 -0.668253 1.70655 0.0457381
16 1 1.50179 2.33865 1.61255 1.50179 2.33865 1.61255
17 2 3.91845 1.566 1.84103 3.91845 1.566 1.84103
18 2 2.64501 3.45857 -0.441814 2.64501 3.45857 -0.441814
19 1 3.39257 1.07063 -0.608738 3.39257 1.07063 -0.608738
20 2 23.2753 49.813 -0.223366 5.81156 0.424718 -0.223366
21 2 4.54177 2.09535 -2.67031 4.54177 2.09535 -2.67031
22 1 6.74152 2.82731 -1.17063 6.74152 2.82731 -1.17063
23 2 9.15657 2.21521 -0.681212 9.15657 2.21521 -0.681212
24 2 7.95884 3.74686 -3.24658 7.95884 3.74686 -3.24658
25 1 8.88324 1.3946 -3.11519 8.88324 1.3946 -3.11519
26 2 11.1999 0.995756 -2.07912 11.1999 0.995756 -2.07912
27 2 10.504 1.74739 -5.10943 10.504 1.74739 -5.10943
28 1 12.3464 3.02566 -3.49295 12.3464 3.02566 -3.49295
29 2 14.6121 2.71109 -2.30512 14.6121 2.71109 -2.30512
30 2 14.0816 3.21718 -5.41442 14.0816 3.21718 -5.41442
31 1 14.901 1.09579 -4.27429 14.901 1.09579 -4.27429
32 2 16.8576 1.23735 -2.55422 16.8576 1.23735 -2.55422
33 2 34.497 50.0996 -5.69678 17.0333 0.711253 -5.69678
34 1 18.4248 2.6391 -4.27168 18.4248 2.6391 -4.27168
35 2 20.2811 2.91544 -2.45029 20.2811 2.91544 -2.45029
36 2 20.6318 2.14167 -5.52908 20.6318 2.14167 -5.52908
37 1 38.4011 50.0695 -3.45947 20.9374 0.681216 -3.45947
38 2 22.3722 1.48182 -1.41233 22.3722 1.48182 -1.41233
39 2 40.7804 49.3092 -4.05658 23.3167 -0.0790962 -4.05658
40 1 24.3825 2.29377 -3.07772 24.3825 2.29377 -3.07772
41 2 25.7175 3.20755 -1.01175 25.7175 3.20755 -1.01175
42 2 26.7804 1.50899 -3.52985 26.7804 1.50899 -3.52985
43 1 43.896 50.1874 -1.10912 26.4323 0.799035 -1.10912
44 2 27.5197 1.93864 0.9408 27.5197 1.93864 0.9408
45 2 46.3136 49.4562 -1.32939 28.8499 0.0679075 -1.32939
46 1 29.764 2.53844 -0.536919 29.764 2.53844 -0.536919
47 2 30.8539 3.65291 1.51451 30.8539 3.65291 1.51451
48 2 32.1829 1.84157 -0.8028 32.1829 1.84157 -0.8028
49 1 31.704 1.28491 1.66687 31.704 1.28491 1.66687
50 2 33.0595 2.00071 3.74629 33.0595 2.00071 3.74629
51 2 51.5608 50.12 0.984715 34.097 0.73171 0.984715
52 1 35.1045 2.98189 2.17057 35.1045 2.98189 2.17057
53 2 36.5625 3.55585 4.23148 36.5625 3.55585 4.23148
54 2 37.4748 2.48297 1.35152 37.4748 2.48297 1.35152
55 1 38.5319 4.6529 2.6331 -12.7597 4.6529 2.6331
56 2 40.102 5.07614 4.65308 -11.1897 5.07614 4.65308
57 2 40.8674 4.21885 1.66587 -10.4243 4.21885 1.66587
58 1 41.9865 6.29584 3.03909 -9.30517 6.29584 3.03909
59 2 43.6703 6.56257 4.99661 -7.62132 6.56257 4.99661
60 2 44.2768 5.94261 1.91994 -7.01483 5.94261 1.91994
61 1 44.5179 4.40258 3.95744 -6.77374 4.40258 3.95744
62 2 46.6126 4.07702 5.45304 -4.67908 4.07702 5.45304
63 2 46.5215 4.49285 2.29188 -4.77017 4.49285 2.29188
64 1 48.0455 5.95567 3.99974 -3.24616 5.95567 3.99974
65 2 50.2218 5.51215 5.33467 -1.06984 5.51215 5.33467
66 2 49.9512 6.17674 2.2249 -1.34046 6.17674 2.2249
67 1 50.5915 3.98025 3.32834 -0.700087 3.98025 3.32834
68 2 1.67076 3.23763 3.9923 1.67076 3.23763 3.9923
69 2 52.0746 4.73539 1.29592 0.782981 4.73539 1.29592
70 1 2.75967 5.59054 2.98004 2.75967 5.59054 2.98004
71 2 5.15199 4.81804 3.49533 5.15199 4.81804 3.49533
72 2 4.14092 6.46152 0.923841 4.14092 6.46152 0.923841
73 1 4.85856 4.05373 1.08264 4.85856 4.05373 1.08264
74 2 7.27762 3.3083 1.2891 7.27762 3.3083 1.2891
75 2 5.95519 5.20329 -0.965144 5.95519 5.20329 -0.965144
76 1 8.19716 5.79243 0.523171 8.19716 5.79243 0.523171
77 2 10.618 5.08156 0.751683 10.618 5.08156 0.751683
78 2 9.27619 6.93684 -1.52354 9.27619 6.93684 -1.52354
79 1 10.1077 4.56857 -1.71739 10.1077 4.56857 -1.71739
80 2 12.511 3.99168 -1.1058 12.511 3.99168 -1.1058
81 2 11.4144 5.3621 -3.79768 11.4144 5.3621 -3.79768
82 1 13.4979 6.28328 -2.2342 13.4979 6.28328 -2.2342
83 2 15.8813 5.75244 -1.4864 15.8813 5.75244 -1.4864
84 2 14.9054 6.93542 -4.30433 14.9054 6.93542 -4.30433
85 1 15.8319 4.62761 -3.80456 15.8319 4.62761 -3.80456
86 2 18.0353 4.41067 -2.46822 18.0353 4.41067 -2.46822
87 2 17.6786 4.65909 -5.63023 17.6786 4.65909 -5.63023
88 1 19.3356 6.20369 -4.04364 19.3356 6.20369 -4.04364
89 2 21.4645 6.09654 -2.56515 21.4645 6.09654 -2.56515
90 2 21.2891 6.0828 -5.75023 21.2891 6.0828 -5.75023
91 1 21.9441 4.1825 -4.18429 21.9441 4.1825 -4.18429
92 2 23.6933 4.59604 -2.27752 23.6933 4.59604 -2.27752
93 2 24.2145 3.59138 -5.26811 24.2145 3.59138 -5.26811
94 1 25.4524 5.73439 -4.01057 25.4524 5.73439 -4.01057
95 2 27.0927 6.28544 -2.03791 27.0927 6.28544 -2.03791
96 2 27.7718 5.06732 -4.92057 27.7718 5.06732 -4.92057
97 1 27.8011 3.93295 -2.63595 27.8011 3.93295 -2.63595
98 2 29.0474 4.94304 -0.565847 29.0474 4.94304 -0.565847
99 2 30.2095 3.14008 -2.97111 30.2095 3.14008 -2.97111
100 1 31.1924 5.59907 -2.14739 31.1924 5.59907 -2.14739
101 2 32.362 6.68372 -0.082094 32.362 6.68372 -0.082094
102 2 33.6074 4.81567 -2.39887 33.6074 4.81567 -2.39887
103 1 33.0959 4.28986 0.043912 33.0959 4.28986 0.043912
104 2 34.2172 5.34593 2.10481 34.2172 5.34593 2.10481
105 2 35.5153 3.62699 -0.295623 35.5153 3.62699 -0.295623
106 1 36.4363 6.04399 0.622216 36.4363 6.04399 0.622216
107 2 37.6174 7.01062 2.69535 37.6174 7.01062 2.69535
108 2 38.8531 5.41457 0.185074 38.8531 5.41457 0.185074
109 1 39.7931 7.78981 1.18393 -11.4986 7.78981 1.18393
110 2 41.0579 8.641 3.26396 -10.2337 8.641 3.26396
111 2 42.2018 7.19539 0.628612 -9.0898 7.19539 0.628612
112 1 43.1729 9.51617 1.71598 -8.11871 9.51617 1.71598
113 2 44.5335 10.2353 3.79196 -6.75818 10.2353 3.79196
114 2 45.5663 8.96495 1.02976 -5.72531 8.96495 1.02976
115 1 45.4643 7.91349 3.38209 -5.82737 7.91349 3.38209
116 2 47.2592 8.02433 5.25613 -4.03247 8.02433 5.25613
117 2 47.6991 7.65469 2.11546 -3.59251 7.65469 2.11546
118 1 48.9619 9.50926 3.65727 -2.32969 9.50926 3.65727
119 2 50.868 9.46673 5.42207 -0.423656 9.46673 5.42207
120 2 51.128 9.35436 2.24456 -0.163634 9.35436 2.24456
121 1 51.5712 7.50758 3.95404 0.279589 7.50758 3.95404
122 2 53.817 6.96338 5.1181 2.52537 6.96338 5.1181
123 2 53.3716 7.86316 2.08493 2.07993 7.86316 2.08493
124 1 3.79632 9.06574 3.81944 3.79632 9.06574 3.81944
125 2 6.09694 8.43986 4.81169 6.09694 8.43986 4.81169
126 2 5.48818 9.55639 1.87585 5.48818 9.55639 1.87585
127 1 6.1941 7.22665 2.56893 6.1941 7.22665 2.56893
128 2 8.60142 6.44075 2.95267 8.60142 6.44075 2.95267
129 2 7.47889 8.19934 0.499873 7.47889 8.19934 0.499873
130 1 9.59915 8.89057 2.10042 9.59915 8.89057 2.10042
131 2 12.014 8.10508 2.38366 12.014 8.10508 2.38366
132 2 10.8013 9.94811 0.0322507 10.8013 9.94811 0.0322507
133 1 11.5277 7.54928 -0.055405 11.5277 7.54928 -0.055405
134 2 13.9487 6.87188 0.237444 13.9487 6.87188 0.237444
135 2 12.6258 8.6482 -2.10844 12.6258 8.6482 -2.10844
136 1 14.8624 9.31027 -0.636092 14.8624 9.31027 -0.636092
137 2 17.2817 8.66434 -0.252007 17.2817 8.66434 -0.252007
138 2 16.0101 10.3283 -2.7019 16.0101 10.3283 -2.7019
139 1 16.9137 7.96717 -2.71248 16.9137 7.96717 -2.71248
140 2 19.2668 7.49375 -1.81855 19.2668 7.49375 -1.81855
141 2 18.4299 8.46713 -4.75339 18.4299 8.46713 -4.75339
142 1 20.3551 9.61839 -3.14175 20.3551 9.61839 -3.14175
143 2 22.6667 9.21679 -2.09527 22.6667 9.21679 -2.09527
144 2 21.985 9.96067 -5.13072 21.985 9.96067 -5.13072
145 1 22.853 7.76001 -4.20184 22.853 7.76001 -4.20184
146 2 24.8967 7.7752 -2.59111 24.8967 7.7752 -2.59111
147 2 24.9051 7.49754 -5.76878 24.9051 7.49754 -5.76878
148 1 26.3776 9.30502 -4.27452 26.3776 9.30502 -4.27452
149 2 28.3263 9.44961 -2.54564 28.3263 9.44961 -2.54564
150 2 28.5166 8.91592 -5.68607 28.5166 8.91592 -5.68607
151 1 28.9431 7.30152 -3.75769 28.9431 7.30152 -3.75769
152 2 30.473 7.98331 -1.7362 30.473 7.98331 -1.7362
153 2 31.2999 6.5794 -4.49892 31.2999 6.5794 -4.49892
154 1 32.4103 8.89058 -3.42922 32.4103 8.89058 -3.42922
155 2 33.8373 9.69702 -1.37873 33.8373 9.69702 -1.37873
156 2 34.792 8.12935 -4.01561 34.792 8.12935 -4.01561
157 1 34.5567 7.29421 -1.61977 34.5567 7.29421 -1.61977
158 2 35.6702 8.42563 0.436027 35.6702 8.42563 0.436027
159 2 36.9741 6.53296 -1.83055 36.9741 6.53296 -1.83055
160 1 37.8997 9.01606 -1.06421 37.8997 9.01606 -1.06421
161 2 38.9827 10.1613 0.985454 38.9827 10.1613 0.985454
162 2 40.3193 8.28916 -1.2797 40.3193 8.28916 -1.2797
163 1 41.2306 10.7628 -0.488743 -10.0611 10.7628 -0.488743
164 2 42.3188 11.8826 1.56105 -8.97288 11.8826 1.56105
165 2 43.6512 10.0717 -0.754482 -7.6404 10.0717 -0.754482
166 1 44.5621 12.5229 0.0904628 -6.72958 12.5229 0.0904628
167 2 45.6876 13.5811 2.14797 -5.60408 13.5811 2.14797
168 2 46.9818 11.8639 -0.255416 -4.30979 11.8639 -0.255416
169 1 46.5773 11.2178 2.21161 -4.7143 11.2178 2.21161
170 2 48.0435 11.7951 4.26619 -3.24816 11.7951 4.26619
171 2 48.9453 10.719 1.38428 -2.34635 10.719 1.38428
172 1 50.0083 12.8918 2.65975 -1.2833 12.8918 2.65975
173 2 51.5854 13.3177 4.6735 0.293796 13.3177 4.6735
174 2 52.3412 12.4602 1.68377 1.04961 12.4602 1.68377
175 1 52.4762 11.0854 3.85165 1.18453 11.0854 3.85165
176 2 54.4847 10.897 5.48657 3.19303 10.897 5.48657
177 2 54.5623 11.0466 2.30191 3.27067 11.0466 2.30191
178 1 55.9995 12.6478 3.96209 4.70785 12.6478 3.96209
179 2 6.8092 12.3265 5.44898 6.8092 12.3265 5.44898
180 2 6.70283 12.7332 2.28707 6.70283 12.7332 2.28707
181 1 7.29719 10.6368 3.60192 7.29719 10.6368 3.60192
182 2 9.64018 9.94531 4.42267 9.64018 9.94531 4.42267
183 2 8.87906 11.2605 1.60144 8.87906 11.2605 1.60144
184 1 10.7764 12.2253 3.30711 10.7764 12.2253 3.30711
185 2 13.1492 11.486 3.96678 13.1492 11.486 3.96678
186 2 12.2525 12.9757 1.26884 12.2525 12.9757 1.26884
187 1 12.9758 10.5807 1.58971 12.9758 10.5807 1.58971
188 2 15.3935 9.80951 1.81193 15.3935 9.80951 1.81193
189 2 14.112 11.6971 -0.47026 14.112 11.6971 -0.47026
190 1 16.327 12.2945 1.04668 16.327 12.2945 1.04668
191 2 18.7456 11.5497 1.25274 18.7456 11.5497 1.25274
192 2 17.4204 13.4381 -1.00528 17.4204 13.4381 -1.00528
193 1 18.2094 11.0624 -1.20599 18.2094 11.0624 -1.20599
194 2 20.6221 10.4467 -0.709951 20.6221 10.4467 -0.709951
195 2 19.4329 11.9714 -3.28293 19.4329 11.9714 -3.28293
196 1 21.5762 12.794 -1.75096 21.5762 12.794 -1.75096
197 2 23.9765 12.2165 -1.12758 23.9765 12.2165 -1.12758
198 2 22.8912 13.5752 -3.83012 22.8912 13.5752 -3.83012
199 1 23.8207 11.2399 -3.5106 23.8207 11.2399 -3.5106
200 2 26.0809 10.9265 -2.31198 26.0809 10.9265 -2.31198
201 2 25.564 11.4227 -5.42541 25.564 11.4227 -5.42541
202 1 27.3073 12.8365 -3.81278 27.3073 12.8365 -3.81278
203 2 29.5024 12.6217 -2.4632 29.5024 12.6217 -2.4632
204 2 29.1639 12.8617 -5.62807 29.1639 12.8617 -5.62807
205 1 29.9017 10.8457 -4.25928 29.9017 10.8457 -4.25928
206 2 31.7483 11.1266 -2.42876 31.7483 11.1266 -2.42876
207 2 32.1149 10.345 -5.50417 32.1149 10.345 -5.50417
208 1 33.4187 12.389 -4.15837 33.4187 12.389 -4.15837
209 2 35.1612 12.8093 -2.24753 35.1612 12.8093 -2.24753
210 2 35.6914 11.7955 -5.23395 35.6914 11.7955 -5.23395
211 1 35.8533 10.505 -3.0392 35.8533 10.505 -3.0392
212 2 37.1825 11.424 -0.972419 37.1825 11.424 -0.972419
213 2 38.2526 9.72195 -3.48532 38.2526 9.72195 -3.48532
214 1 39.2694 12.1485 -2.59348 39.2694 12.1485 -2.59348
215 2 40.5096 13.1657 -0.523195 40.5096 13.1657 -0.523195
216 2 41.6803 11.3607 -2.92301 41.6803 11.3607 -2.92301
217 1 42.6571 13.8236 -2.10226 -8.6345 13.8236 -2.10226
218 2 43.8251 14.9155 -0.0402402 -7.46658 14.9155 -0.0402402
219 2 45.0727 13.0444 -2.35357 -6.21894 13.0444 -2.35357
220 1 46.0189 15.5263 -1.58014 -5.27271 15.5263 -1.58014
221 2 47.1333 16.6631 0.471235 -4.15836 16.6631 0.471235
222 2 48.4367 14.7696 -1.79517 -2.85494 14.7696 -1.79517
223 1 47.9036 14.2827 0.659585 -3.388 14.2827 0.659585
224 2 49.0928 15.2488 2.72823 -2.19882 15.2488 2.72823
225 2 50.3199 13.6558 0.21187 -0.971742 13.6558 0.21187
226 1 51.262 16.0323 1.20757 -0.0296332 16.0323 1.20757
227 2 52.5356 16.8846 3.28149 1.24401 16.8846 3.28149
228 2 53.6689 15.4393 0.641324 2.37728 15.4393 0.641324
229 1 53.464 14.5395 3.05228 2.17238 14.5395 3.05228
230 2 55.1556 14.8093 5.00224 3.86401 14.8093 5.00224
231 2 55.7498 14.1862 1.92398 4.45818 14.1862 1.92398
232 1 56.9419 16.1604 3.37812 5.65026 16.1604 3.37812
233 2 7.4544 16.273 5.24222 7.4544 16.273 5.24222
234 2 7.87771 15.8986 2.09963 7.87771 15.8986 2.09963
235 1 8.23321 14.202 3.98426 8.23321 14.202 3.98426
236 2 10.4139 13.7616 5.31146 10.4139 13.7616 5.31146
237 2 10.1301 14.4187 2.20068 10.1301 14.4187 2.20068
238 1 11.7543 15.7539 3.92118 11.7543 15.7539 3.92118
239 2 14.0017 15.2123 5.081 14.0017 15.2123 5.081
240 2 13.5481 16.1052 2.04658 13.5481 16.1052 2.04658
241 1 14.2313 13.8352 2.94522 14.2313 13.8352 2.94522
242 2 16.6245 13.0646 3.45689 16.6245 13.0646 3.45689
243 2 15.6061 14.7006 0.883142 15.6061 14.7006 0.883142
244 1 17.6589 15.4687 2.52228 17.6589 15.4687 2.52228
245 2 20.0649 14.6832 2.90708 20.0649 14.6832 2.90708
246 2 18.9405 16.4352 0.449678 18.9405 16.4352 0.449678
247 1 19.6603 14.0294 0.479432 19.6603 14.0294 0.479432
248 2 22.0793 13.3179 0.717301 22.0793 13.3179 0.717301
249 2 20.7432 15.1628 -1.56978 20.7432 15.1628 -1.56978
250 1 22.9881 15.7795 -0.0984737 22.9881 15.7795 -0.0984737
251 2 25.4057 15.0996 0.209125 25.4057 15.0996 0.209125
252 2 24.0961 16.8675 -2.15083 24.0961 16.8675 -2.15083
253 1 24.9667 14.5011 -2.26199 24.9667 14.5011 -2.26199
254 2 27.3445 13.9694 -1.49888 27.3445 13.9694 -1.49888
255 2 26.3858 15.1432 -4.32677 26.3858 15.1432 -4.32677
256 1 28.3842 16.1786 -2.72714 28.3842 16.1786 -2.72714
257 2 30.732 15.7096 -1.81843 30.732 15.7096 -1.81843
258 2 29.9093 16.669 -4.76237 29.9093 16.669 -4.76237
259 1 30.8111 14.4095 -4.03679 30.8111 14.4095 -4.03679
260 2 32.933 14.3089 -2.54859 32.933 14.3089 -2.54859
261 2 32.77 14.282 -5.73492 32.77 14.282 -5.73492
262 1 34.3252 15.9659 -4.18717 34.3252 15.9659 -4.18717
263 2 36.3624 15.9885 -2.56989 36.3624 15.9885 -2.56989
264 2 36.3806 15.6982 -5.74677 36.3806 15.6982 -5.74677
265 1 36.9235 13.9427 -3.97961 36.9235 13.9427 -3.97961
266 2 38.556 14.5009 -2.00335 38.556 14.5009 -2.00335
267 2 39.2459 13.2764 -4.88113 39.2459 13.2764 -4.88113
268 1 40.4095 15.5153 -3.7213 40.4095 15.5153 -3.7213
269 2 41.9356 16.2087 -1.70091 41.9356 16.2087 -1.70091
270 2 42.7673 14.7939 -4.4573 42.7673 14.7939 -4.4573
271 1 43.8733 17.1114 -3.39629 -7.41832 17.1114 -3.39629
272 2 45.2974 17.929 -1.34843 -5.99423 17.929 -1.34843
273 2 46.2559 16.352 -3.97888 -5.03573 16.352 -3.97888
274 1 47.3129 18.734 -3.01215 -3.97869 18.734 -3.01215
275 2 48.6423 19.6633 -0.950536 -2.64935 19.6633 -0.950536
276 2 49.7119 17.9522 -3.45789 -1.5797 17.9522 -3.45789
277 1 49.3602 17.2553 -1.03391 -1.93147 17.2553 -1.03391
278 2 50.4481 18.4032 1.01036 -0.843551 18.4032 1.01036
279 2 51.7794 16.5314 -1.25842 0.487718 16.5314 -1.25842
280 1 52.6907 19.0071 -0.473134 1.3991 19.0071 -0.473134
281 2 53.7898 20.1299 1.56836 2.49813 20.1299 1.56836
282 2 55.1089 18.3141 -0.751197 3.81726 18.3141 -0.751197
283 1 54.6429 17.7623 1.72271 3.35127 17.7623 1.72271
284 2 56.0145 18.4838 3.7901 4.72291 18.4838 3.7901
285 2 57.0319 17.2093 1.02403 5.74028 17.2093 1.02403
286 1 58.0491 19.4648 2.19616 6.75743 19.4648 2.19616
287 2 8.23173 20.0434 4.2432 8.23173 20.0434 4.2432
288 2 9.12072 18.9646 1.35804 9.12072 18.9646 1.35804
289 1 9.14629 17.7563 3.63193 9.14629 17.7563 3.63193
290 2 11.0572 17.715 5.38941 11.0572 17.715 5.38941
291 2 11.3051 17.5978 2.21045 11.3051 17.5978 2.21045
292 1 12.6557 19.3306 3.8106 12.6557 19.3306 3.8106
293 2 14.6659 19.1432 5.44119 14.6659 19.1432 5.44119
294 2 14.7361 19.2885 2.25544 14.7361 19.2885 2.25544
295 1 15.2652 17.3103 3.77473 15.2652 17.3103 3.77473
296 2 17.5659 16.6843 4.76359 17.5659 16.6843 4.76359
297 2 16.9519 17.7967 1.8266 16.9519 17.7967 1.8266
298 1 18.7594 18.8771 3.54904 18.7594 18.8771 3.54904
299 2 21.1004 18.1844 4.36961 21.1004 18.1844 4.36961
300 2 20.3385 19.497 1.54637 20.3385 19.497 1.54637
301 1 21.0573 17.1281 2.04872 21.0573 17.1281 2.04872
302 2 23.469 16.3409 2.34012 23.469 16.3409 2.34012
303 2 22.2621 18.1785 -0.0192791 22.2621 18.1785 -0.0192791
304 1 24.4304 18.8121 1.54228 24.4304 18.8121 1.54228
305 2 26.8455 18.0415 1.77856 26.8455 18.0415 1.77856
306 2 25.5728 19.9199 -0.516948 25.5728 19.9199 -0.516948
307 1 26.3237 17.5326 -0.669643 26.3237 17.5326 -0.669643
308 2 28.7398 16.8876 -0.26853 28.7398 16.8876 -0.26853
309 2 27.4817 18.5398 -2.73388 27.4817 18.5398 -2.73388
310 1 29.6714 19.2807 -1.22907 29.6714 19.2807 -1.22907
311 2 32.082 18.6705 -0.718453 32.082 18.6705 -0.718453
312 2 30.9015 20.1793 -3.30538 30.9015 20.1793 -3.30538
313 1 31.8245 17.828 -3.14639 31.8245 17.828 -3.14639
314 2 34.1316 17.4337 -2.08903 34.1316 17.4337 -2.08903
315 2 33.4592 18.1608 -5.13118 33.4592 18.1608 -5.13118
316 1 35.286 19.4499 -3.51103 35.286 19.4499 -3.51103
317 2 37.5408 19.1439 -2.30266 37.5408 19.1439 -2.30266
318 2 37.0339 19.6231 -5.42097 37.0339 19.6231 -5.42097
319 1 37.845 17.5126 -4.25551 37.845 17.5126 -4.25551
320 2 39.7887 17.6691 -2.52229 39.7887 17.6691 -2.52229
321 2 39.9866 17.1176 -5.65975 39.9866 17.1176 -5.65975
322 1 41.3645 19.0572 -4.2406 41.3645 19.0572 -4.2406
323 2 43.2077 19.3513 -2.40844 43.2077 19.3513 -2.40844
324 2 43.5801 18.554 -5.47939 43.5801 18.554 -5.47939
325 1 44.878 20.6075 -4.14244 -6.41359 20.6075 -4.14244
326 2 46.6186 21.0413 -2.23239 -4.67305 21.0413 -2.23239
327 2 47.152 20.0127 -5.21352 -4.13959 20.0127 -5.21352
328 1 48.3801 22.1695 -3.96969 -2.91152 22.1695 -3.96969
329 2 50.0136 22.7396 -1.99743 -1.27808 22.7396 -1.99743
330 2 50.7021 21.5026 -4.87041 -0.589578 21.5026 -4.87041
331 1 50.7268 20.3846 -2.57783 -0.564797 20.3846 -2.57783
332 2 51.9708 21.4106 -0.515051 0.679161 21.4106 -0.515051
333 2 53.1361 19.5962 -2.9107 1.84443 19.5962 -2.9107
334 1 54.1143 22.0642 -2.10363 2.82271 22.0642 -2.10363
335 2 55.2899 23.1611 -0.0497808 3.99824 23.1611 -0.0497808
336 2 56.5279 21.2845 -2.36409 5.23629 21.2845 -2.36409
337 1 56.0255 20.7678 0.0834063 4.73391 20.7678 0.0834063
338 2 57.1611 21.8292 2.13288 5.86949 21.8292 2.13288
339 2 58.4424 20.1068 -0.274183 7.15081 20.1068 -0.274183
340 1 59.3693 22.5277 0.630843 8.07766 22.5277 0.630843
341 2 9.27462 23.4972 2.69224 9.27462 23.4972 2.69224
342 2 10.4901 21.8969 0.174377 10.4901 21.8969 0.174377
343 1 10.187 21.1384 2.62565 10.187 21.1384 2.62565
344 2 11.7698 21.5647 4.63317 11.7698 21.5647 4.63317
345 2 12.5143 20.7023 1.64144 12.5143 20.7023 1.64144
346 1 13.6388 22.7821 3.00259 13.6388 22.7821 3.00259
347 2 15.332 23.053 4.9491 15.332 23.053 4.9491
348 2 15.9198 22.4235 1.87025 15.9198 22.4235 1.87025
349 1 16.173 20.8896 3.91091 16.173 20.8896 3.91091
350 2 18.2742 20.5677 5.39554 18.2742 20.5677 5.39554
351 2 18.1642 20.9717 2.23275 18.1642 20.9717 2.23275
352 1 19.6924 22.4396 3.92739 19.6924 22.4396 3.92739
353 2 21.8702 21.9977 5.25578 21.8702 21.9977 5.25578
354 2 21.5884 22.6536 2.14381 21.5884 22.6536 2.14381
355 1 22.2322 20.4611 3.25208 22.2322 20.4611 3.25208
356 2 24.6011 19.721 3.91769 24.6011 19.721 3.91769
357 2 23.7094 21.2063 1.21467 23.7094 21.2063 1.21467
358 1 25.6825 22.0675 2.89485 25.6825 22.0675 2.89485
359 2 28.0718 21.2967 3.41648 28.0718 21.2967 3.41648
360 2 27.062 22.9285 0.835847 27.062 22.9285 0.835847
361 1 27.7802 20.5226 1.00721 27.7802 20.5226 1.00721
362 2 30.197 19.7803 1.22962 30.197 19.7803 1.22962
363 2 28.881 21.6569 -1.04439 28.881 21.6569 -1.04439
364 1 31.1125 22.2558 0.448456 31.1125 22.2558 0.448456
365 2 33.5295 21.5462 0.699679 33.5295 21.5462 0.699679
366 2 32.2017 23.3817 -1.60045 32.2017 23.3817 -1.60045
367 1 33.0358 21.0122 -1.76841 33.0358 21.0122 -1.76841
368 2 35.4331 20.4397 -1.13281 35.4331 20.4397 -1.13281
369 2 34.3564 21.7829 -3.84678 34.3564 21.7829 -3.84678
370 1 36.4229 22.7185 -2.27535 36.4229 22.7185 -2.27535
371 2 38.7984 22.1926 -1.50253 38.7984 22.1926 -1.50253
372 2 37.8457 23.3497 -4.33961 37.8457 23.3497 -4.33961
373 1 38.7679 21.0469 -3.80998 38.7679 21.0469 -3.80998
374 2 40.9589 20.8409 -2.45409 40.9589 20.8409 -2.45409
375 2 40.6271 21.065 -5.62123 40.6271 21.065 -5.62123
376 1 42.2674 22.6229 -4.03391 42.2674 22.6229 -4.03391
377 2 44.3868 22.5335 -2.54197 44.3868 22.5335 -2.54197
378 2 44.2286 22.4919 -5.72849 44.2286 22.4919 -5.72849
379 1 45.779 24.1859 -4.1857 -5.51266 24.1859 -4.1857
380 2 47.8157 24.2195 -2.5675 -3.47598 24.2195 -2.5675
381 2 47.836 23.9179 -5.74314 -3.4556 23.9179 -5.74314
382 1 49.2979 25.7417 -4.25681 -1.99376 25.7417 -4.25681
383 2 51.243 25.9051 -2.52564 -0.0486084 25.9051 -2.52564
384 2 51.4393 25.35 -5.66228 0.147702 25.35 -5.66228
385 1 51.8648 23.7502 -3.7221 0.573138 23.7502 -3.7221
386 2 53.3947 24.4509 -1.70737 2.10303 24.4509 -1.70737
387 2 54.2207 23.0286 -4.46162 2.92906 23.0286 -4.46162
388 1 55.3281 25.3531 -3.41078 4.03644 25.3531 -3.41078
389 2 56.7589 26.1734 -1.3693 5.46724 26.1734 -1.3693
390 2 57.7082 24.5947 -4.00192 6.41654 24.5947 -4.00192
391 1 57.4781 23.7698 -1.6016 6.18649 23.7698 -1.6016
392 2 58.6019 24.9094 0.442484 7.31027 24.9094 0.442484
393 2 8.6019 23.0112 -1.82704 8.6019 23.0112 -1.82704
394 1 9.52999 25.4987 -1.07525 9.52999 25.4987 -1.07525
395 2 10.6263 26.6472 0.963695 10.6263 26.6472 0.963695
396 2 11.9464 24.7705 -1.30817 11.9464 24.7705 -1.30817
397 1 11.4361 24.2747 1.1602 11.4361 24.2747 1.1602
398 2 12.7129 25.1284 3.22994 12.7129 25.1284 3.22994
399 2 13.8396 23.6781 0.589127 13.8396 23.6781 0.589127
400 1 14.8141 26.0008 1.66436 14.8141 26.0008 1.66436
401 2 16.1855 26.7218 3.73057 16.1855 26.7218 3.73057
402 2 17.2007 25.4447 0.964167 17.2007 25.4447 0.964167
403 1 17.1115 24.3981 3.31917 17.1115 24.3981 3.31917
404 2 18.9133 24.511 5.18366 18.9133 24.511 5.18366
405 2 19.3372 24.1337 2.04082 19.3372 24.1337 2.04082
406 1 20.6021 25.9908 3.57234 20.6021 25.9908 3.57234
407 2 22.5086 25.9486 5.33275 22.5086 25.9486 5.33275
408 2 22.7613 25.8313 2.15358 22.7613 25.8313 2.15358
409 1 23.2077 23.9879 3.86544 23.2077 23.9879 3.86544
410 2 25.4504 23.4446 5.02993 25.4504 23.4446 5.02993
411 2 25.0033 24.3375 1.99383 25.0033 24.3375 1.99383
412 1 26.7138 25.5422 3.72637 26.7138 25.5422 3.72637
413 2 29.0107 24.9166 4.72142 29.0107 24.9166 4.72142
414 2 28.4031 26.0261 1.78162 28.4031 26.0261 1.78162
415 1 29.1076 23.6989 2.48159 29.1076 23.6989 2.48159
416 2 31.5112 22.9139 2.87574 31.5112 22.9139 2.87574
417 2 30.3941 24.6617 0.411499 30.3941 24.6617 0.411499
418 1 32.504 25.3569 2.01635 32.504 25.3569 2.01635
419 2 34.9152 24.5733 2.31515 34.9152 24.5733 2.31515
420 2 33.7101 26.4019 -0.0525432 33.7101 26.4019 -0.0525432
421 1 34.4387 24.0039 -0.122633 34.4387 24.0039 -0.122633
422 2 36.8561 23.33 0.193996 36.8561 23.33 0.193996
423 2 35.5478 25.0837 -2.17764 35.5478 25.0837 -2.17764
424 1 37.7696 25.7589 -0.694589 37.7696 25.7589 -0.694589
425 2 40.1839 25.1155 -0.282619 40.1839 25.1155 -0.282619
426 2 38.9335 26.7573 -2.75906 38.9335 26.7573 -2.75906
427 1 39.8365 24.3961 -2.73934 39.8365 24.3961 -2.73934
428 2 42.1805 23.9308 -1.82097 42.1805 23.9308 -1.82097
429 2 41.3669 24.8789 -4.77156 41.3669 24.8789 -4.77156
430 1 43.2749 26.0459 -3.15324 43.2749 26.0459 -3.15324
431 2 45.5785 25.6551 -2.08935 45.5785 25.6551 -2.08935
432 2 44.9137 26.3788 -5.13434 44.9137 26.3788 -5.13434
433 1 46.736 27.6722 -3.51089 -4.5556 27.6722 -3.51089
434 2 48.9904 27.3703 -2.3018 -2.30121 27.3703 -2.3018
435 2 48.4846 27.8525 -5.4198 -2.80703 27.8525 -5.4198
436 1 50.2178 29.2785 -3.80611 -1.07379 29.2785 -3.80611
437 2 52.4127 29.0773 -2.45576 1.12109 29.0773 -2.45576
438 2 52.0731 29.3058 -5.6215 0.781477 29.3058 -5.6215
439 1 52.8164 27.2963 -4.24661 1.5248 27.2963 -4.24661
440 2 54.6644 27.5931 -2.42041 3.37274 27.5931 -2.42041
441 2 55.0283 26.7972 -5.49246 3.73665 26.7972 -5.49246
442 1 56.3282 28.8548 -4.15889 5.03657 28.8548 -4.15889
443 2 58.0746 29.2856 -2.2543 6.78297 29.2856 -2.2543
444 2 58.5986 28.2656 -5.23986 7.30692 28.2656 -5.23986
445 1 58.7676 26.9803 -3.04236 7.47598 26.9803 -3.04236
446 2 60.1059 27.9077 -0.986603 8.81424 27.9077 -0.986603
447 2 9.87214 26.1988 -3.50021 9.87214 26.1988 -3.50021
448 1 10.8905 28.6317 -2.6231 10.8905 28.6317 -2.6231
449 2 12.1408 29.6501 -0.561197 12.1408 29.6501 -0.561197
450 2 13.2986 27.8451 -2.96722 13.2986 27.8451 -2.96722
451 1 12.8616 27.2466 -0.530018 12.8616 27.2466 -0.530018
452 2 13.9618 28.3684 1.5106 13.9618 28.3684 1.5106
453 2 15.2784 26.5521 -0.810345 15.2784 26.5521 -0.810345
454 1 16.1933 29.0048 0.022756 16.1933 29.0048 0.022756
455 2 17.3283 30.0632 2.0734 17.3283 30.0632 2.0734
456 2 18.6091 28.3425 -0.335575 18.6091 28.3425 -0.335575
457 1 18.2157 27.699 2.13433 18.2157 27.699 2.13433
458 2 19.6866 28.2773 4.18282 19.6866 28.2773 4.18282
459 2 20.5784 27.1982 1.29795 20.5784 27.1982 1.29795
460 1 21.6406 29.3707 2.5672 21.6406 29.3707 2.5672
461 2 23.2159 29.795 4.57983 23.2159 29.795 4.57983
462 2 23.9704 28.9386 1.58843 23.9704 28.9386 1.58843
463 1 24.1062 27.5633 3.75611 24.1062 27.5633 3.75611
464 2 26.1109 27.375 5.39172 26.1109 27.375 5.39172
465 2 26.1887 27.5205 2.20571 26.1887 27.5205 2.20571
466 1 27.6191 29.1213 3.86546 27.6191 29.1213 3.86546
467 2 29.7147 28.7964 5.35553 29.7147 28.7964 5.35553
468 2 29.6134 29.2044 2.19227 29.6134 29.2044 2.19227
469 1 30.2041 27.1081 3.50814 30.2041 27.1081 3.50814
470 2 32.5416 26.4159 4.33617 32.5416 26.4159 4.33617
471 2 31.7867 27.7253 1.5091 31.7867 27.7253 1.5091
472 1 33.6739 28.6901 3.21911 33.6739 28.6901 3.21911
473 2 36.0409 27.9483 3.88739 36.0409 27.9483 3.88739
474 2 35.1528 29.4354 1.18368 35.1528 29.4354 1.18368
475 1 35.8726 27.0412 1.51152 35.8726 27.0412 1.51152
476 2 38.2864 26.2715 1.75393 38.2864 26.2715 1.75393
477 2 37.017 28.146 -0.547056 37.017 28.146 -0.547056
478 1 39.2194 28.7498 0.980962 39.2194 28.7498 0.980962
479 2 41.633 28.0032 1.2129 41.633 28.0032 1.2129
480 2 40.3287 29.883 -1.06555 40.3287 29.883 -1.06555
481 1 41.1163 27.5049 -1.24808 41.1163 27.5049 -1.24808
482 2 43.523 26.8912 -0.725767 43.523 26.8912 -0.725767
483 2 42.3561 28.3983 -3.32026 42.3561 28.3983 -3.32026
484 1 44.4831 29.2325 -1.7727 44.4831 29.2325 -1.7727
485 2 46.8773 28.6568 -1.13039 46.8773 28.6568 -1.13039
486 2 45.8099 30.0066 -3.84529 45.8099 30.0066 -3.84529
487 1 47.8727 30.9398 -2.26516 -3.41894 30.9398 -2.26516
488 2 50.2482 30.415 -1.49362 -1.04348 30.415 -1.49362
489 2 49.2942 31.5824 -4.32653 -1.99741 31.5824 -4.32653
490 1 51.2862 32.6262 -2.72252 -0.00547432 32.6262 -2.72252
491 2 53.6344 32.164 -1.81408 2.3428 32.164 -1.81408
492 2 52.8089 33.125 -4.75681 1.5173 33.125 -4.75681
493 1 53.7159 30.8664 -4.03451 2.42427 30.8664 -4.03451
494 2 55.8399 30.7748 -2.54956 4.54829 30.7748 -2.54956
495 2 55.6724 30.746 -5.73539 4.38079 30.746 -5.73539
496 1 57.2255 32.4384 -4.19024 5.93383 32.4384 -4.19024
497 2 59.2681 32.4656 -2.5801 7.97647 32.4656 -2.5801
498 2 59.2758 32.1808 -5.75733 7.98421 32.1808 -5.75733
499 1 59.8281 30.4225 -3.99524 8.53651 30.4225 -3.99524
500 2 61.4688 30.9834 -2.02782 10.1772 30.9834 -2.02782
501 2 10.8545 29.7625 -4.91 10.8545 29.7625 -4.91
502 1 12.0198 32.0054 -3.75517 12.0198 32.0054 -3.75517
503 2 13.5571 32.6949 -1.7429 13.5571 32.6949 -1.7429
504 2 14.3729 31.2886 -4.50813 14.3729 31.2886 -4.50813
505 1 14.277 30.3105 -2.15499 14.277 30.3105 -2.15499
506 2 15.4575 31.3986 -0.0993682 15.4575 31.3986 -0.0993682
507 2 16.6897 29.5307 -2.42375 16.6897 29.5307 -2.42375
508 1 17.6402 32.0125 -1.65405 17.6402 32.0125 -1.65405
509 2 18.7651 33.1427 0.39491 18.7651 33.1427 0.39491
510 2 20.0561 31.2551 -1.88388 20.0561 31.2551 -1.88388
511 1 19.5339 30.7613 0.571803 19.5339 30.7613 0.571803
512 2 20.7248 31.7273 2.6377 20.7248 31.7273 2.6377
513 2 21.9477 30.1346 0.118121 21.9477 30.1346 0.118121
514 1 22.8873 32.5095 1.11252 22.8873 32.5095 1.11252
515 2 24.158 33.3597 3.1874 24.158 33.3597 3.1874
516 2 25.2922 31.9164 0.545702 25.2922 31.9164 0.545702
517 1 25.0873 31.0154 2.95671 25.0873 31.0154 2.95671
518 2 26.7743 31.2806 4.90869 26.7743 31.2806 4.90869
519 2 27.3717 30.6621 1.82923 27.3717 30.6621 1.82923
520 1 28.5558 32.6312 3.28761 28.5558 32.6312 3.28761
521 2 30.3545 32.7371 5.1551 30.3545 32.7371 5.1551
522 2 30.7832 32.3684 2.01183 30.7832 32.3684 2.01183
523 1 31.1348 30.669 3.89377 31.1348 30.669 3.89377
524 2 33.3096 30.2235 5.22477 33.3096 30.2235 5.22477
525 2 33.0323 30.8842 2.11303 33.0323 30.8842 2.11303
526 1 34.6477 32.2137 3.83967 34.6477 32.2137 3.83967
527 2 36.8872 31.6642 5.00604 36.8872 31.6642 5.00604
528 2 36.4452 32.5658 1.97116 36.4452 32.5658 1.97116
529 1 37.1212 30.2933 2.86753 37.1212 30.2933 2.86753
530 2 39.5077 29.5178 3.39218 39.5077 29.5178 3.39218
531 2 38.5047 31.1568 0.812852 38.5047 31.1568 0.812852
532 1 40.5459 31.9202 2.46585 40.5459 31.9202 2.46585
533 2 42.9448 31.1277 2.86845 42.9448 31.1277 2.86845
534 2 41.8428 32.8863 0.40484 41.8428 32.8863 0.40484
535 1 42.5544 30.4778 0.437429 42.5544 30.4778 0.437429
536 2 44.9688 29.7633 0.697878 44.9688 29.7633 0.697878
537 2 43.6531 31.6039 -1.60546 43.6531 31.6039 -1.60546
538 1 45.8854 32.2224 -0.115687 45.8854 32.2224 -0.115687
539 2 48.3004 31.5425 0.206939 48.3004 31.5425 0.206939
540 2 47.0031 33.3069 -2.16314 47.0031 33.3069 -2.16314
541 1 49.2221 33.9759 -0.668935 -2.06953 33.9759 -0.668935