ITEM: TIMESTEP
2321000
ITEM: NUMBER OF ATOMS
810
ITEM: BOX BOUNDS xy xz yz pp pp pp
8.6298438867990135e-01 6.3617650275907316e+01 1.1463029664588149e+01
8.1394622342039402e-01 5.0202268776579182e+01 0.0000000000000000e+00
-1.0000000000000000e+01 1.0000000000000000e+01 0.0000000000000000e+00
ITEM: ATOMS id type x y z xu yu zu
1 1 42.9209 1.18627 2.73866 -8.37072 1.18627 2.73866
2 2 44.7501 1.25383 4.53433 -6.54156 1.25383 4.53433
3 2 45.057 1.03746 1.33404 -6.23461 1.03746 1.33404
4 1 46.194 2.79165 2.92876 -5.09768 2.79165 2.92876
5 2 48.1085 2.75059 4.63406 -3.18313 2.75059 4.63406
6 2 48.2643 2.72891 1.41634 -3.02731 2.72891 1.41634
7 1 48.8762 0.917181 3.07579 -2.41544 0.917181 3.07579
8 2 62.5363 49.8975 4.32407 -0.218402 0.509211 4.32407
9 2 50.6329 1.25428 1.21855 -0.65873 1.25428 1.21855
10 1 52.1556 2.51019 2.95699 0.863921 2.51019 2.95699
11 2 3.11146 2.03677 4.08097 3.11146 2.03677 4.08097
12 2 2.53592 2.9514 1.04181 2.53592 2.9514 1.04181
13 1 14.8711 50.1506 1.92067 3.40803 0.762237 1.92067
14 2 17.2447 49.5253 2.59546 5.78163 0.136978 2.59546
15 2 4.76508 1.5673 -0.120775 4.76508 1.5673 -0.120775
16 1 6.6189 2.42544 1.54771 6.6189 2.42544 1.54771
17 2 9.00645 1.79176 2.14668 9.00645 1.79176 2.14668
18 2 7.91414 3.29372 -0.502402 7.91414 3.29372 -0.502402
19 1 8.8662 0.997952 -0.24477 8.8662 0.997952 -0.24477
20 2 22.7176 49.8384 0.378174 11.2546 0.450094 0.378174
21 2 10.1095 1.84638 -2.30589 10.1095 1.84638 -2.30589
22 1 12.0327 2.72216 -0.713551 12.0327 2.72216 -0.713551
23 2 14.4064 2.20144 -0.006748 14.4064 2.20144 -0.006748
24 2 13.3336 3.49741 -2.76813 13.3336 3.49741 -2.76813
25 1 14.377 1.24505 -2.36718 14.377 1.24505 -2.36718
26 2 16.6412 0.90428 -1.24669 16.6412 0.90428 -1.24669
27 2 15.9873 1.61303 -4.32486 15.9873 1.61303 -4.32486
28 1 17.6189 2.89001 -2.67239 17.6189 2.89001 -2.67239
29 2 19.8367 2.61475 -1.43782 19.8367 2.61475 -1.43782
30 2 19.3159 3.1443 -4.57531 19.3159 3.1443 -4.57531
31 1 20.2417 1.09459 -3.43186 20.2417 1.09459 -3.43186
32 2 22.2029 1.16014 -1.77224 22.2029 1.16014 -1.77224
33 2 22.2738 0.911615 -4.98335 22.2738 0.911615 -4.98335
34 1 23.529 2.68077 -3.45719 23.529 2.68077 -3.45719
35 2 25.4106 2.84498 -1.70934 25.4106 2.84498 -1.70934
36 2 25.6321 2.40489 -4.89371 25.6321 2.40489 -4.89371
37 1 26.1808 0.820241 -3.00404 26.1808 0.820241 -3.00404
38 2 27.7266 1.39386 -1.01761 27.7266 1.39386 -1.01761
39 2 39.9526 49.6632 -3.94837 28.4895 0.274906 -3.94837
40 1 29.4314 2.43589 -2.73114 29.4314 2.43589 -2.73114
41 2 30.9 3.10172 -0.714946 30.9 3.10172 -0.714946
42 2 31.7695 1.85143 -3.56437 31.7695 1.85143 -3.56437
43 1 31.8211 0.835035 -1.25656 31.8211 0.835035 -1.25656
44 2 33.0539 1.74063 0.802867 33.0539 1.74063 0.802867
45 2 45.6797 49.6014 -1.80267 34.2167 0.213054 -1.80267
46 1 34.9953 2.53161 -0.800792 34.9953 2.53161 -0.800792
47 2 36.2108 3.43267 1.26212 36.2108 3.43267 1.26212
48 2 37.3917 1.93689 -1.35374 37.3917 1.93689 -1.35374
49 1 37.2221 1.15083 1.05263 37.2221 1.15083 1.05263
50 2 38.6198 1.77912 3.09793 38.6198 1.77912 3.09793
51 2 51.0331 50.079 0.208179 39.5701 0.690726 0.208179
52 1 40.4221 2.83826 1.47358 40.4221 2.83826 1.47358
53 2 41.9014 3.36191 3.49413 41.9014 3.36191 3.49413
54 2 42.7425 2.4228 0.521676 42.7425 2.4228 0.521676
55 1 43.6387 4.50806 1.85677 -7.65294 4.50806 1.85677
56 2 45.2024 4.9217 3.84148 -6.08925 4.9217 3.84148
57 2 45.9242 4.14666 0.79346 -5.3674 4.14666 0.79346
58 1 46.8708 6.16123 2.1989 -4.42083 6.16123 2.1989
59 2 48.5224 6.46064 4.13426 -2.76926 6.46064 4.13426
60 2 49.1138 5.86303 1.02074 -2.17786 5.86303 1.02074
61 1 49.4746 4.38792 3.05797 -1.81699 4.38792 3.05797
62 2 51.4687 4.24288 4.66233 0.177063 4.24288 4.66233
63 2 51.4739 4.4198 1.44573 0.182313 4.4198 1.44573
64 1 52.7594 5.97925 3.12739 1.46774 5.97925 3.12739
65 2 3.53619 5.73882 4.62055 3.53619 5.73882 4.62055
66 2 3.39002 6.10924 1.42345 3.39002 6.10924 1.42345
67 1 4.13331 4.1132 2.78055 4.13331 4.1132 2.78055
68 2 6.42363 3.5861 3.78156 6.42363 3.5861 3.78156
69 2 5.72088 4.6551 0.818499 5.72088 4.6551 0.818499
70 1 7.39018 5.72931 2.54832 7.39018 5.72931 2.54832
71 2 9.71471 5.15902 3.43253 9.71471 5.15902 3.43253
72 2 8.89699 6.36673 0.551067 8.89699 6.36673 0.551067
73 1 9.81232 4.10684 1.14069 9.81232 4.10684 1.14069
74 2 12.2071 3.47741 1.69304 12.2071 3.47741 1.69304
75 2 11.0604 5.01679 -0.912151 11.0604 5.01679 -0.912151
76 1 12.9909 5.80469 0.707741 12.9909 5.80469 0.707741
77 2 15.386 5.19282 1.25615 15.386 5.19282 1.25615
78 2 14.2169 6.72316 -1.34487 14.2169 6.72316 -1.34487
79 1 15.2127 4.43377 -1.15594 15.2127 4.43377 -1.15594
80 2 17.5684 3.94714 -0.355883 17.5684 3.94714 -0.355883
81 2 16.5805 5.1203 -3.20061 16.5805 5.1203 -3.20061
82 1 18.4063 6.13087 -1.57074 18.4063 6.13087 -1.57074
83 2 20.7376 5.68235 -0.669442 20.7376 5.68235 -0.669442
84 2 19.8501 6.71991 -3.59654 19.8501 6.71991 -3.59654
85 1 20.8739 4.51822 -2.9293 20.8739 4.51822 -2.9293
86 2 23.0373 4.31542 -1.58054 23.0373 4.31542 -1.58054
87 2 22.6595 4.65828 -4.76288 22.6595 4.65828 -4.76288
88 1 24.1407 6.13042 -3.13093 24.1407 6.13042 -3.13093
89 2 26.2431 6.00907 -1.67239 26.2431 6.00907 -1.67239
90 2 26.0117 6.15805 -4.88288 26.0117 6.15805 -4.88288
91 1 26.815 4.26461 -3.41837 26.815 4.26461 -3.41837
92 2 28.615 4.53154 -1.59467 28.615 4.53154 -1.59467
93 2 28.9802 3.90517 -4.73565 28.9802 3.90517 -4.73565
94 1 30.0961 5.85066 -3.31978 30.0961 5.85066 -3.31978
95 2 31.8146 6.22175 -1.43359 31.8146 6.22175 -1.43359
96 2 32.3143 5.41779 -4.51675 32.3143 5.41779 -4.51675
97 1 32.6672 4.0663 -2.41287 32.6672 4.0663 -2.41287
98 2 34.0646 4.81485 -0.376491 34.0646 4.81485 -0.376491
99 2 35.0279 3.45468 -3.14682 35.0279 3.45468 -3.14682
100 1 35.8871 5.71326 -2.05455 35.8871 5.71326 -2.05455
101 2 37.2178 6.53532 -0.00506466 37.2178 6.53532 -0.00506466
102 2 38.2656 5.08519 -2.70018 38.2656 5.08519 -2.70018
103 1 38.1599 4.24355 -0.325474 38.1599 4.24355 -0.325474
104 2 39.3891 5.10955 1.73825 39.3891 5.10955 1.73825
105 2 40.5508 3.68036 -0.922356 40.5508 3.68036 -0.922356
106 1 41.3243 5.96168 0.152081 41.3243 5.96168 0.152081
107 2 42.5946 6.76506 2.21415 42.5946 6.76506 2.21415
108 2 43.7047 5.43058 -0.51541 43.7047 5.43058 -0.51541
109 1 44.496 7.67604 0.617006 -6.79561 7.67604 0.617006
110 2 45.8252 8.39865 2.67312 -5.46642 8.39865 2.67312
111 2 46.8621 7.17909 -0.135821 -4.42949 7.17909 -0.135821
112 1 47.6795 9.38094 1.06021 -3.61209 9.38094 1.06021
113 2 49.0795 10.0096 3.10314 -2.2121 10.0096 3.10314
114 2 50.026 8.92297 0.211306 -1.26561 8.92297 0.211306
115 1 50.1172 7.79879 2.49441 -1.1744 7.79879 2.49441
116 2 51.8571 7.98394 4.36694 0.565464 7.98394 4.36694
117 2 52.3102 7.57147 1.2022 1.01853 7.57147 1.2022
118 1 53.3764 9.42212 2.73846 2.08475 9.42212 2.73846
119 2 3.91376 9.49549 4.53313 3.91376 9.49549 4.53313
120 2 4.21913 9.27184 1.33308 4.21913 9.27184 1.33308
121 1 4.75332 7.5688 3.13372 4.75332 7.5688 3.13372
122 2 6.88873 7.24217 4.50902 6.88873 7.24217 4.50902
123 2 6.59485 7.80046 1.34866 6.59485 7.80046 1.34866
124 1 8.03643 9.16018 3.07768 8.03643 9.16018 3.07768
125 2 10.2304 8.75744 4.33179 10.2304 8.75744 4.33179
126 2 9.79567 9.49425 1.22327 9.79567 9.49425 1.22327
127 1 10.6329 7.36003 2.26591 10.6329 7.36003 2.26591
128 2 12.9835 6.75637 3.04359 12.9835 6.75637 3.04359
129 2 12.0656 8.08517 0.24415 12.0656 8.08517 0.24415
130 1 13.8606 9.00583 1.94087 13.8606 9.00583 1.94087
131 2 16.2305 8.38104 2.62726 16.2305 8.38104 2.62726
132 2 15.2259 9.80621 -0.0963294 15.2259 9.80621 -0.0963294
133 1 16.1606 7.51449 0.259982 16.1606 7.51449 0.259982
134 2 18.5519 6.92912 0.836863 18.5519 6.92912 0.836863
135 2 17.3878 8.41186 -1.79351 17.3878 8.41186 -1.79351
136 1 19.3269 9.2317 -0.195104 19.3269 9.2317 -0.195104
137 2 21.7098 8.67682 0.439699 21.7098 8.67682 0.439699
138 2 20.5815 10.0787 -2.24911 20.5815 10.0787 -2.24911
139 1 21.6156 7.80971 -1.95107 21.6156 7.80971 -1.95107
140 2 23.916 7.40926 -0.942863 23.916 7.40926 -0.942863
141 2 23.139 8.29297 -3.94882 23.139 8.29297 -3.94882
142 1 24.8397 9.47046 -2.29536 24.8397 9.47046 -2.29536
143 2 27.103 9.12854 -1.17677 27.103 9.12854 -1.17677
144 2 26.4458 9.84097 -4.25418 26.4458 9.84097 -4.25418
145 1 27.4162 7.7297 -3.27623 27.4162 7.7297 -3.27623
146 2 29.4526 7.69863 -1.7159 29.4526 7.69863 -1.7159
147 2 29.3669 7.64862 -4.93639 29.3669 7.64862 -4.93639
148 1 30.697 9.31996 -3.36732 30.697 9.31996 -3.36732
149 2 32.6619 9.38513 -1.7135 32.6619 9.38513 -1.7135
150 2 32.7224 9.13661 -4.92548 32.7224 9.13661 -4.92548
151 1 33.3694 7.44285 -3.16698 33.3694 7.44285 -3.16698
152 2 35.005 7.91688 -1.22896 35.005 7.91688 -1.22896
153 2 35.6338 6.94802 -4.24207 35.6338 6.94802 -4.24207
154 1 36.6323 9.04504 -2.96053 36.6323 9.04504 -2.96053
155 2 38.1862 9.61945 -0.981332 38.1862 9.61945 -0.981332
156 2 38.9356 8.49891 -3.91532 38.9356 8.49891 -3.91532
157 1 39.0896 7.37831 -1.65953 39.0896 7.37831 -1.65953
158 2 40.3666 8.25625 0.393991 40.3666 8.25625 0.393991
159 2 41.4782 6.74554 -2.24303 41.4782 6.74554 -2.24303
160 1 42.277 9.06008 -1.23782 42.277 9.06008 -1.23782
161 2 43.5119 9.9659 0.820073 43.5119 9.9659 0.820073
162 2 44.6722 8.44178 -1.78868 44.6722 8.44178 -1.78868
163 1 45.4491 10.7612 -0.787275 -5.84252 10.7612 -0.787275
164 2 46.6691 11.6634 1.27214 -4.62255 11.6634 1.27214
165 2 47.8438 10.1677 -1.34661 -3.44781 10.1677 -1.34661
166 1 48.6131 12.4759 -0.32156 -2.67855 12.4759 -0.32156
167 2 49.845 13.3447 1.73879 -1.44667 13.3447 1.73879
168 2 51.0027 11.9132 -0.922199 -0.288903 11.9132 -0.922199
169 1 50.8774 11.0726 1.47488 -0.414244 11.0726 1.47488
170 2 52.3589 11.6 3.4921 1.06725 11.6 3.4921
171 2 53.1957 10.6561 0.519837 1.90402 10.6561 0.519837
172 1 54.0925 12.746 1.84912 2.80086 12.746 1.84912
173 2 4.36588 13.1663 3.83039 4.36588 13.1663 3.83039
174 2 5.08412 12.3815 0.78379 5.08412 12.3815 0.78379
175 1 5.35512 11.0325 2.92306 5.35512 11.0325 2.92306
176 2 7.26771 10.9987 4.62966 7.26771 10.9987 4.62966
177 2 7.4253 10.9669 1.41189 7.4253 10.9669 1.41189
178 1 8.63323 12.6332 3.04897 8.63323 12.6332 3.04897
179 2 10.6232 12.4965 4.65835 10.6232 12.4965 4.65835
180 2 10.6348 12.6596 1.44075 10.6348 12.6596 1.44075
181 1 11.3136 10.7565 2.96189 11.3136 10.7565 2.96189
182 2 13.5566 10.2878 4.09582 13.5566 10.2878 4.09582
183 2 12.9915 11.1921 1.0514 12.9915 11.1921 1.0514
184 1 14.5819 12.3604 2.79213 14.5819 12.3604 2.79213
185 2 16.8665 11.8367 3.807 16.8665 11.8367 3.807
186 2 16.1789 12.8945 0.836106 16.1789 12.8945 0.836106
187 1 17.072 10.6673 1.57886 17.072 10.6673 1.57886
188 2 19.4543 10.032 2.19464 19.4543 10.032 2.19464
189 2 18.3801 11.5283 -0.465357 18.3801 11.5283 -0.465357
190 1 20.2683 12.3434 1.18758 20.2683 12.3434 1.18758
191 2 22.6582 11.7124 1.75793 22.6582 11.7124 1.75793
192 2 21.5299 13.243 -0.860942 21.5299 13.243 -0.860942
193 1 22.4965 10.948 -0.645961 22.4965 10.948 -0.645961
194 2 24.8675 10.4261 0.0650544 24.8675 10.4261 0.0650544
195 2 23.7988 11.7226 -2.69853 23.7988 11.7226 -2.69853
196 1 25.6748 12.6565 -1.08417 25.6748 12.6565 -1.08417
197 2 28.0298 12.1705 -0.285484 28.0298 12.1705 -0.285484
198 2 27.0387 13.3431 -3.13016 27.0387 13.3431 -3.13016
199 1 28.0777 11.1139 -2.60195 28.0777 11.1139 -2.60195
200 2 30.2969 10.8392 -1.37201 30.2969 10.8392 -1.37201
201 2 29.7684 11.3685 -4.50899 29.7684 11.3685 -4.50899
202 1 31.3283 12.741 -2.86673 31.3283 12.741 -2.86673
203 2 33.4961 12.5411 -1.5263 33.4961 12.5411 -1.5263
204 2 33.1047 12.8793 -4.70804 33.1047 12.8793 -4.70804
205 1 33.9804 10.9048 -3.40316 33.9804 10.9048 -3.40316
206 2 35.8682 11.0703 -1.66337 35.8682 11.0703 -1.66337
207 2 36.076 10.6279 -4.84884 36.076 10.6279 -4.84884
208 1 37.2637 12.4881 -3.37986 37.2637 12.4881 -3.37986
209 2 39.0712 12.7573 -1.56488 39.0712 12.7573 -1.56488
210 2 39.4221 12.1277 -4.7071 39.4221 12.1277 -4.7071
211 1 39.8826 10.6605 -2.70325 39.8826 10.6605 -2.70325
212 2 41.3577 11.3268 -0.692519 41.3577 11.3268 -0.692519
213 2 42.2176 10.0774 -3.54531 42.2176 10.0774 -3.54531
214 1 43.1181 12.2926 -2.39679 43.1181 12.2926 -2.39679
215 2 44.5204 13.0457 -0.365112 44.5204 13.0457 -0.365112
216 2 45.477 11.68 -3.13507 45.477 11.68 -3.13507
217 1 46.3378 13.9418 -2.04978 -4.95384 13.9418 -2.04978
218 2 47.6714 14.7685 -0.0042354 -3.62024 14.7685 -0.0042354
219 2 48.7155 13.3136 -2.69816 -2.57618 13.3136 -2.69816
220 1 49.5396 15.6101 -1.66421 -1.75204 15.6101 -1.66421
221 2 50.8192 16.4934 0.384902 -0.472408 16.4934 0.384902
222 2 51.9272 14.9768 -2.2503 0.635568 14.9768 -2.2503
223 1 51.7763 14.1976 0.147009 0.484691 14.1976 0.147009
224 2 53.0511 15.0052 2.20408 1.75942 15.0052 2.20408
225 2 54.1548 13.6645 -0.525037 2.86312 13.6645 -0.525037
226 1 54.9483 15.9143 0.599053 3.65665 15.9143 0.599053
227 2 4.99156 16.6445 2.6482 4.99156 16.6445 2.6482
228 2 6.01955 15.4105 -0.157878 6.01955 15.4105 -0.157878
229 1 6.03152 14.4025 2.18119 6.03152 14.4025 2.18119
230 2 7.68187 14.7116 4.11513 7.68187 14.7116 4.11513
231 2 8.27346 14.0989 1.00432 8.27346 14.0989 1.00432
232 1 9.27635 16.0429 2.46854 9.27635 16.0429 2.46854
233 2 11.0119 16.2404 4.34326 11.0119 16.2404 4.34326
234 2 11.4708 15.8073 1.18187 11.4708 15.8073 1.18187
235 1 11.9157 14.2274 3.11848 11.9157 14.2274 3.11848
236 2 13.9781 13.996 4.6209 13.9781 13.996 4.6209
237 2 13.8434 14.3488 1.42102 13.8434 14.3488 1.42102
238 1 15.1997 15.8179 3.12842 15.1997 15.8179 3.12842
239 2 17.3266 15.5001 4.51835 17.3266 15.5001 4.51835
240 2 17.0508 16.0384 1.35266 17.0508 16.0384 1.35266
241 1 17.839 13.9749 2.57033 17.839 13.9749 2.57033
242 2 20.1569 13.4078 3.47293 20.1569 13.4078 3.47293
243 2 19.3583 14.6006 0.579668 19.3583 14.6006 0.579668
244 1 21.083 15.6017 2.30032 21.083 15.6017 2.30032
245 2 23.4288 15.0037 3.09654 23.4288 15.0037 3.09654
246 2 22.5267 16.3112 0.28193 22.5267 16.3112 0.28193
247 1 23.45 14.0345 0.768028 23.45 14.0345 0.768028
248 2 25.8433 13.4233 1.32478 25.8433 13.4233 1.32478
249 2 24.6814 14.9448 -1.28506 24.6814 14.9448 -1.28506
250 1 26.6198 15.7406 0.321924 26.6198 15.7406 0.321924
251 2 29.0111 15.1575 0.900998 29.0111 15.1575 0.900998
252 2 27.8467 16.6309 -1.73497 27.8467 16.6309 -1.73497
253 1 28.8651 14.3521 -1.50313 28.8651 14.3521 -1.50313
254 2 31.1989 13.9088 -0.60847 31.1989 13.9088 -0.60847
255 2 30.2993 14.939 -3.53514 30.2993 14.939 -3.53514
256 1 32.0692 16.0322 -1.89895 32.0692 16.0322 -1.89895
257 2 34.3742 15.6377 -0.899414 34.3742 15.6377 -0.899414
258 2 33.5825 16.5108 -3.90501 33.5825 16.5108 -3.90501
259 1 34.5908 14.353 -3.08438 34.5908 14.353 -3.08438
260 2 36.6993 14.2361 -1.63516 36.6993 14.2361 -1.63516
261 2 36.4527 14.3771 -4.84517 36.4527 14.3771 -4.84517
262 1 37.8632 15.9525 -3.24895 37.8632 15.9525 -3.24895
263 2 39.9057 15.9269 -1.69707 39.9057 15.9269 -1.69707
264 2 39.8067 15.8671 -4.91713 39.8067 15.8671 -4.91713
265 1 40.5436 14.0746 -3.29832 40.5436 14.0746 -3.29832
266 2 42.2681 14.4498 -1.41871 42.2681 14.4498 -1.41871
267 2 42.7579 13.6401 -4.502 42.7579 13.6401 -4.502
268 1 43.8168 15.668 -3.15966 43.8168 15.668 -3.15966
269 2 45.4574 16.1476 -1.22734 45.4574 16.1476 -1.22734
270 2 46.0786 15.1715 -4.23961 46.0786 15.1715 -4.23961
271 1 47.0801 17.2723 -2.96597 -4.21153 17.2723 -2.96597
272 2 48.6382 17.8541 -0.992015 -2.65346 17.8541 -0.992015
273 2 49.3816 16.7234 -3.92354 -1.91002 16.7234 -3.92354
274 1 50.3312 18.8901 -2.72129 -0.960448 18.8901 -2.72129
275 2 51.8111 19.566 -0.717132 0.519483 19.566 -0.717132
276 2 52.6639 18.3017 -3.56544 1.37228 18.3017 -3.56544
277 1 52.7265 17.2951 -1.25312 1.43483 17.2951 -1.25312
278 2 53.9693 18.2078 0.796418 2.67764 18.2078 0.796418
279 2 55.1185 16.6716 -1.81012 3.82683 16.6716 -1.81012
280 1 55.9018 18.9958 -0.821939 4.61013 18.9958 -0.821939
281 2 5.83859 19.9057 1.22859 5.83859 19.9057 1.22859
282 2 7.00163 18.3939 -1.38603 7.00163 18.3939 -1.38603
283 1 6.84198 17.6188 1.02486 6.84198 17.6188 1.02486
284 2 8.24228 18.2596 3.06301 8.24228 18.2596 3.06301
285 2 9.1868 17.1526 0.177987 9.1868 17.1526 0.177987
286 1 10.0405 19.3104 1.42709 10.0405 19.3104 1.42709
287 2 11.5148 19.8505 3.44544 11.5148 19.8505 3.44544
288 2 12.3612 18.8885 0.481462 12.3612 18.8885 0.481462
289 1 12.534 17.6679 2.70838 12.534 17.6679 2.70838
290 2 14.354 17.7538 4.51106 14.354 17.7538 4.51106
291 2 14.6741 17.5088 1.31364 14.6741 17.5088 1.31364
292 1 15.8025 19.2794 2.89756 15.8025 19.2794 2.89756
293 2 17.7032 19.2562 4.61701 17.7032 19.2562 4.61701
294 2 17.8821 19.2051 1.40032 17.8821 19.2051 1.40032
295 1 18.482 17.4085 3.08142 18.482 17.4085 3.08142
296 2 20.667 17.0141 4.35326 20.667 17.0141 4.35326
297 2 20.2529 17.7286 1.23663 20.2529 17.7286 1.23663
298 1 21.7597 19.0021 2.976 21.7597 19.0021 2.976
299 2 23.9965 18.5407 4.12532 23.9965 18.5407 4.12532
300 2 23.4476 19.4235 1.07156 23.4476 19.4235 1.07156
301 1 24.312 17.2437 1.98147 24.312 17.2437 1.98147
302 2 26.6786 16.6231 2.68312 26.6786 16.6231 2.68312
303 2 25.6866 18.0297 -0.0548341 25.6866 18.0297 -0.0548341
304 1 27.5258 18.9009 1.62162 27.5258 18.9009 1.62162
305 2 29.9081 18.2704 2.24436 29.9081 18.2704 2.24436
306 2 28.837 19.7491 -0.426683 28.837 19.7491 -0.426683
307 1 29.7846 17.4555 -0.139947 29.7846 17.4555 -0.139947
308 2 32.1704 16.9065 0.488337 32.1704 16.9065 0.488337
309 2 31.0304 18.2976 -2.20149 31.0304 18.2976 -2.20149
310 1 32.9501 19.1732 -0.60924 32.9501 19.1732 -0.60924
311 2 35.3246 18.6567 0.0936223 35.3246 18.6567 0.0936223
312 2 34.2428 19.9424 -2.67013 34.2428 19.9424 -2.67013
313 1 35.289 17.694 -2.26337 35.289 17.694 -2.26337
314 2 37.5579 17.3593 -1.15387 37.5579 17.3593 -1.15387
315 2 36.8855 18.058 -4.23123 36.8855 18.058 -4.23123
316 1 38.5239 19.3385 -2.59208 38.5239 19.3385 -2.59208
317 2 40.7484 19.0704 -1.36897 40.7484 19.0704 -1.36897
318 2 40.2085 19.5856 -4.50621 40.2085 19.5856 -4.50621
319 1 41.1428 17.5431 -3.35871 41.1428 17.5431 -3.35871
320 2 43.113 17.6151 -1.71096 43.113 17.6151 -1.71096
321 2 43.1638 17.3551 -4.92228 43.1638 17.3551 -4.92228
322 1 44.4266 19.1289 -3.41013 44.4266 19.1289 -3.41013
323 2 46.3194 19.3035 -1.67606 46.3194 19.3035 -1.67606
324 2 46.5189 18.8465 -4.85996 46.5189 18.8465 -4.85996
325 1 47.7112 20.7141 -3.4025 -3.58045 20.7141 -3.4025
326 2 49.5236 20.9939 -1.59308 -1.76804 20.9939 -1.59308
327 2 49.8672 20.3464 -4.73229 -1.42447 20.3464 -4.73229
328 1 50.9932 22.3019 -3.33708 -0.298451 22.3019 -3.33708
329 2 52.7227 22.6873 -1.46302 1.43103 22.6873 -1.46302
330 2 53.2054 21.8603 -4.54259 1.91381 21.8603 -4.54259
331 1 53.5684 20.5235 -2.43075 2.27679 20.5235 -2.43075
332 2 54.9776 21.2845 -0.407462 3.68601 21.2845 -0.407462
333 2 55.9243 19.9052 -3.17392 4.63266 19.9052 -3.17392
334 1 5.50015 22.1724 -2.10217 5.50015 22.1724 -2.10217
335 2 6.8397 23.003 -0.0626506 6.8397 23.003 -0.0626506
336 2 7.87614 21.5408 -2.75524 7.87614 21.5408 -2.75524
337 1 7.77869 20.7078 -0.376283 7.77869 20.7078 -0.376283
338 2 9.01086 21.5851 1.68025 9.01086 21.5851 1.68025
339 2 10.1684 20.14 -0.973476 10.1684 20.14 -0.973476
340 1 10.9435 22.4299 0.0850833 10.9435 22.4299 0.0850833
341 2 12.2107 23.2462 2.14362 12.2107 23.2462 2.14362
342 2 13.3252 21.895 -0.575956 13.3252 21.895 -0.575956
343 1 13.254 20.9861 1.80137 13.254 20.9861 1.80137
344 2 14.808 21.4171 3.78883 14.808 21.4171 3.78883
345 2 15.5431 20.6173 0.749954 15.5431 20.6173 0.749954
346 1 16.4825 22.6448 2.1429 16.4825 22.6448 2.1429
347 2 18.1208 22.9633 4.08576 18.1208 22.9633 4.08576
348 2 18.7319 22.3362 0.981535 18.7319 22.3362 0.981535
349 1 19.0793 20.8802 3.03539 19.0793 20.8802 3.03539
350 2 21.0601 20.753 4.65712 21.0601 20.753 4.65712
351 2 21.0899 20.8953 1.43856 21.0899 20.8953 1.43856
352 1 22.3623 22.4723 3.11355 22.3623 22.4723 3.11355
353 2 24.417 22.2485 4.62791 24.417 22.2485 4.62791
354 2 24.2985 22.5831 1.42538 24.2985 22.5831 1.42538
355 1 25.0297 20.6026 2.81192 25.0297 20.6026 2.81192
356 2 27.3102 20.0858 3.84029 27.3102 20.0858 3.84029
357 2 26.6349 21.1224 0.859202 26.6349 21.1224 0.859202
358 1 28.2893 22.2133 2.5915 28.2893 22.2133 2.5915
359 2 30.607 21.6526 3.50062 30.607 21.6526 3.50062
360 2 29.8116 22.8267 0.599027 29.8116 22.8267 0.599027
361 1 30.7228 20.5743 1.22233 30.7228 20.5743 1.22233
362 2 33.1149 19.9471 1.79054 33.1149 19.9471 1.79054
363 2 31.9814 21.4657 -0.832952 31.9814 21.4657 -0.832952
364 1 33.9039 22.2642 0.788064 33.9039 22.2642 0.788064
365 2 36.3004 21.6564 1.3377 36.3004 21.6564 1.3377
366 2 35.1282 23.1683 -1.273 35.1282 23.1683 -1.273
367 1 36.1248 20.8825 -1.06791 36.1248 20.8825 -1.06791
368 2 38.4844 20.4027 -0.2789 38.4844 20.4027 -0.2789
369 2 37.4785 21.5638 -3.12301 37.4785 21.5638 -3.12301
370 1 39.3123 22.5796 -1.50904 39.3123 22.5796 -1.50904
371 2 41.6505 22.1415 -0.621408 41.6505 22.1415 -0.621408
372 2 40.7399 23.1599 -3.5486 40.7399 23.1599 -3.5486
373 1 41.7739 20.9659 -2.87562 41.7739 20.9659 -2.87562
374 2 43.9463 20.7735 -1.53993 43.9463 20.7735 -1.53993
375 2 43.5465 21.0966 -4.72207 43.5465 21.0966 -4.72207
376 1 45.0372 22.5785 -3.10942 45.0372 22.5785 -3.10942
377 2 47.1509 22.4712 -1.66567 47.1509 22.4712 -1.66567
378 2 46.8952 22.5948 -4.8755 46.8952 22.5948 -4.8755
379 1 48.3113 24.1796 -3.29175 -2.98037 24.1796 -3.29175
380 2 50.3587 24.1624 -1.74409 -0.932941 24.1624 -1.74409
381 2 50.2529 24.0868 -4.96326 -1.0387 24.0868 -4.96326
382 1 51.5938 25.7715 -3.41578 0.302163 25.7715 -3.41578
383 2 53.569 25.8504 -1.77244 2.27736 25.8504 -1.77244
384 2 53.6132 25.577 -4.98228 2.3216 25.577 -4.98228
385 1 54.2693 23.8964 -3.21387 2.97762 23.8964 -3.21387
386 2 55.9156 24.3833 -1.28736 4.62395 24.3833 -1.28736
387 2 56.5291 23.3943 -4.29661 5.23746 23.3943 -4.29661
388 1 6.24497 25.5013 -3.03404 6.24497 25.5013 -3.03404
389 2 7.8051 26.0867 -1.0619 7.8051 26.0867 -1.0619
390 2 8.54748 24.9501 -3.99086 8.54748 24.9501 -3.99086
391 1 8.70606 23.8403 -1.72905 8.70606 23.8403 -1.72905
392 2 9.98591 24.7264 0.319153 9.98591 24.7264 0.319153
393 2 11.0951 23.2063 -2.31306 11.0951 23.2063 -2.31306
394 1 11.8956 25.5266 -1.31834 11.8956 25.5266 -1.31834
395 2 13.132 26.4418 0.735005 13.132 26.4418 0.735005
396 2 14.2917 24.9046 -1.86591 14.2917 24.9046 -1.86591
397 1 14.1144 24.1493 0.542891 14.1144 24.1493 0.542891
398 2 15.4371 24.8863 2.59807 15.4371 24.8863 2.59807
399 2 16.4832 23.6466 -0.198642 16.4832 23.6466 -0.198642
400 1 17.2973 25.8577 0.98427 17.2973 25.8577 0.98427
401 2 18.6878 26.5028 3.02858 18.6878 26.5028 3.02858
402 2 19.6477 25.3909 0.150793 19.6477 25.3909 0.150793
403 1 19.7262 24.2859 2.44352 19.7262 24.2859 2.44352
404 2 21.4527 24.4895 4.32647 21.4527 24.4895 4.32647
405 2 21.9276 24.045 1.1689 21.9276 24.045 1.1689
406 1 22.9844 25.9096 2.69469 22.9844 25.9096 2.69469
407 2 24.7969 25.9989 4.50523 24.7969 25.9989 4.50523
408 2 25.1309 25.7462 1.30982 25.1309 25.7462 1.30982
409 1 25.648 24.0599 3.13117 25.648 24.0599 3.13117
410 2 27.7704 23.7478 4.53001 27.7704 23.7478 4.53001
411 2 27.5055 24.2708 1.36094 27.5055 24.2708 1.36094
412 1 28.9335 25.6468 3.08749 28.9335 25.6468 3.08749
413 2 31.1168 25.2532 4.36353 31.1168 25.2532 4.36353
414 2 30.7087 25.9625 1.24497 30.7087 25.9625 1.24497
415 1 31.5355 23.8373 2.31434 31.5355 23.8373 2.31434
416 2 33.8818 23.242 3.11253 33.8818 23.242 3.11253
417 2 32.9797 24.5385 0.292935 32.9797 24.5385 0.292935
418 1 34.7668 25.4756 1.98732 34.7668 25.4756 1.98732
419 2 37.1358 24.8556 2.68299 37.1358 24.8556 2.68299
420 2 36.137 26.2576 -0.0545312 36.137 26.2576 -0.0545312
421 1 37.072 23.9698 0.32348 37.072 23.9698 0.32348
422 2 39.4674 23.3914 0.89227 39.4674 23.3914 0.89227
423 2 38.2887 24.8557 -1.74218 38.2887 24.8557 -1.74218
424 1 40.2344 25.6861 -0.159691 40.2344 25.6861 -0.159691
425 2 42.6227 25.1379 0.462149 42.6227 25.1379 0.462149
426 2 41.4754 26.5246 -2.22659 41.4754 26.5246 -2.22659
427 1 42.516 24.2602 -1.92342 42.516 24.2602 -1.92342
428 2 44.8253 23.8717 -0.929232 44.8253 23.8717 -0.929232
429 2 44.0247 24.7318 -3.93593 44.0247 24.7318 -3.93593
430 1 45.7368 25.9228 -2.30441 45.7368 25.9228 -2.30441
431 2 48.0106 25.5932 -1.20075 48.0106 25.5932 -1.20075
432 2 47.3294 26.2814 -4.27806 47.3294 26.2814 -4.27806
433 1 48.9739 27.5686 -2.64817 -2.31777 27.5686 -2.64817
434 2 51.2029 27.3048 -1.42974 -0.0887317 27.3048 -1.42974
435 2 50.656 27.8109 -4.56672 -0.635599 27.8109 -4.56672
436 1 52.2267 29.1973 -2.94366 0.935086 29.1973 -2.94366
437 2 54.4029 29.0064 -1.61147 3.11122 29.0064 -1.61147
438 2 53.9985 29.3259 -4.79273 2.70682 29.3259 -4.79273
439 1 54.881 27.3587 -3.48002 3.58933 27.3587 -3.48002
440 2 56.7769 27.5361 -1.74819 5.48528 27.5361 -1.74819
441 2 56.9738 27.0733 -4.93066 5.68215 27.0733 -4.93066
442 1 58.1696 28.9451 -3.47772 6.87793 28.9451 -3.47772
443 2 8.68967 29.2244 -1.66607 8.68967 29.2244 -1.66607
444 2 9.03782 28.5785 -4.80427 9.03782 28.5785 -4.80427
445 1 9.49998 27.1203 -2.79306 9.49998 27.1203 -2.79306
446 2 10.9769 27.7973 -0.785924 10.9769 27.7973 -0.785924
447 2 11.8365 26.5327 -3.63139 11.8365 26.5327 -3.63139
448 1 12.7402 28.7557 -2.4948 12.7402 28.7557 -2.4948
449 2 14.1416 29.5169 -0.464583 14.1416 29.5169 -0.464583
450 2 15.1017 28.1407 -3.22739 15.1017 28.1407 -3.22739
451 1 15.0712 27.2299 -0.875891 15.0712 27.2299 -0.875891
452 2 16.2882 28.1425 1.18154 16.2882 28.1425 1.18154
453 2 17.4684 26.6319 -1.42573 17.4684 26.6319 -1.42573
454 1 18.2382 28.9462 -0.411367 18.2382 28.9462 -0.411367
455 2 19.4642 29.8247 1.64956 19.4642 29.8247 1.64956
456 2 20.6313 28.3783 -0.999074 20.6313 28.3783 -0.999074
457 1 20.4952 27.5504 1.40109 20.4952 27.5504 1.40109
458 2 21.9617 28.0923 3.42547 21.9617 28.0923 3.42547
459 2 22.8209 27.1277 0.466133 22.8209 27.1277 0.466133
460 1 23.7093 29.2254 1.78872 23.7093 29.2254 1.78872
461 2 25.2585 29.6577 3.78061 25.2585 29.6577 3.78061
462 2 26.002 28.854 0.745023 26.002 28.854 0.745023
463 1 26.2546 27.5188 2.89473 26.2546 27.5188 2.89473
464 2 28.1521 27.4963 4.61882 28.1521 27.4963 4.61882
465 2 28.3385 27.441 1.40276 28.3385 27.441 1.40276
466 1 29.5346 29.116 3.03882 29.5346 29.116 3.03882
467 2 31.5132 28.9868 4.66405 31.5132 28.9868 4.66405
468 2 31.5491 29.1303 1.44594 31.5491 29.1303 1.44594
469 1 32.2152 27.2363 2.98374 32.2152 27.2363 2.98374
470 2 34.4533 26.7727 4.1311 34.4533 26.7727 4.1311
471 2 33.9034 27.6554 1.07772 33.9034 27.6554 1.07772
472 1 35.4889 28.8318 2.81597 35.4889 28.8318 2.81597
473 2 37.7733 28.3107 3.83558 37.7733 28.3107 3.83558
474 2 37.0896 29.3525 0.858484 37.0896 29.3525 0.858484
475 1 37.9817 27.1298 1.61435 37.9817 27.1298 1.61435
476 2 40.367 26.4968 2.22522 40.367 26.4968 2.22522
477 2 39.2858 27.98 -0.438966 39.2858 27.98 -0.438966
478 1 41.1802 28.8007 1.20211 41.1802 28.8007 1.20211
479 2 43.5759 28.173 1.75785 43.5759 28.173 1.75785
480 2 42.4301 29.6945 -0.858278 42.4301 29.6945 -0.858278
481 1 43.4011 27.4023 -0.642347 43.4011 27.4023 -0.642347
482 2 45.7804 26.8898 0.0509001 45.7804 26.8898 0.0509001
483 2 44.6858 28.1692 -2.71026 44.6858 28.1692 -2.71026
484 1 46.5759 29.114 -1.11842 46.5759 29.114 -1.11842
485 2 48.9396 28.6357 -0.33638 48.9396 28.6357 -0.33638
486 2 47.9257 29.793 -3.17855 47.9257 29.793 -3.17855
487 1 49.7655 30.8119 -1.57128 -1.5261 30.8119 -1.57128
488 2 52.1079 30.3746 -0.689928 0.816279 30.3746 -0.689928
489 2 51.1902 31.3916 -3.6147 -0.101445 31.3916 -3.6147
490 1 52.9715 32.4941 -1.99422 1.6799 32.4941 -1.99422
491 2 55.2824 32.1025 -1.00201 3.99075 32.1025 -1.00201
492 2 54.4817 32.9676 -4.00656 3.19002 32.9676 -4.00656
493 1 55.4934 30.8113 -3.1839 4.2018 30.8113 -3.1839
494 2 57.6076 30.7009 -1.73922 6.31593 30.7009 -1.73922
495 2 57.3548 30.8297 -4.94835 6.06319 30.8297 -4.94835
496 1 58.772 32.4133 -3.36108 7.48038 32.4133 -3.36108
497 2 9.52602 32.3921 -1.81028 9.52602 32.3921 -1.81028
498 2 9.4266 32.3251 -5.02921 9.4266 32.3251 -5.02921
499 1 10.1641 30.5348 -3.4066 10.1641 30.5348 -3.4066
500 2 11.8898 30.918 -1.52705 11.8898 30.918 -1.52705
501 2 12.3821 30.0962 -4.60581 12.3821 30.0962 -4.60581
502 1 13.4439 32.1312 -3.27038 13.4439 32.1312 -3.27038
503 2 15.083 32.6163 -1.33561 15.083 32.6163 -1.33561
504 2 15.7108 31.6324 -4.34321 15.7108 31.6324 -4.34321
505 1 15.9648 30.4076 -2.14949 15.9648 30.4076 -2.14949
506 2 17.2976 31.2415 -0.104869 17.2976 31.2415 -0.104869
507 2 18.3448 29.7755 -2.79086 18.3448 29.7755 -2.79086
508 1 19.173 32.0759 -1.76296 19.173 32.0759 -1.76296
509 2 20.4455 32.9636 0.290719 20.4455 32.9636 0.290719
510 2 21.5659 31.442 -2.33556 21.5659 31.442 -2.33556
511 1 21.4043 30.6677 0.0622691 21.4043 30.6677 0.0622691
512 2 22.6655 31.4861 2.12462 22.6655 31.4861 2.12462
513 2 23.7889 30.1312 -0.589215 23.7889 30.1312 -0.589215
514 1 24.5768 32.3852 0.531077 24.5768 32.3852 0.531077
515 2 25.8928 33.122 2.59127 25.8928 33.122 2.59127
516 2 26.9488 31.8831 -0.202014 26.9488 31.8831 -0.202014
517 1 26.94 30.8811 2.13925 26.94 30.8811 2.13925
518 2 28.5734 31.1984 4.08725 28.5734 31.1984 4.08725
519 2 29.1937 30.5727 0.984646 29.1937 30.5727 0.984646
520 1 30.1857 32.5197 2.45122 30.1857 32.5197 2.45122
521 2 31.9102 32.7197 4.33748 31.9102 32.7197 4.33748
522 2 32.3901 32.2794 1.18046 32.3901 32.2794 1.18046
523 1 32.8215 30.704 3.12353 32.8215 30.704 3.12353
524 2 34.8784 30.4745 4.63559 34.8784 30.4745 4.63559
525 2 34.7581 30.8156 1.43427 34.7581 30.8156 1.43427
526 1 36.1117 32.2861 3.14132 36.1117 32.2861 3.14132
527 2 38.2397 31.9662 4.53168 38.2397 31.9662 4.53168
528 2 37.9653 32.4993 1.36539 37.9653 32.4993 1.36539
529 1 38.7516 30.4378 2.58657 38.7516 30.4378 2.58657
530 2 41.0732 29.8718 3.48412 41.0732 29.8718 3.48412
531 2 40.268 31.0553 0.589452 40.268 31.0553 0.589452
532 1 42.0008 32.0582 2.30008 42.0008 32.0582 2.30008
533 2 44.3522 31.4575 3.08233 44.3522 31.4575 3.08233
534 2 43.4366 32.7673 0.273731 43.4366 32.7673 0.273731
535 1 44.3622 30.4905 0.753455 44.3622 30.4905 0.753455
536 2 46.7622 29.8816 1.28875 46.7622 29.8816 1.28875
537 2 45.5771 31.4003 -1.31167 45.5771 31.4003 -1.31167
538 1 47.531 32.1972 0.275726 47.531 32.1972 0.275726
539 2 49.931 31.621 0.830865 49.931 31.621 0.830865
540 2 48.7372 33.0874 -1.79502 48.7372 33.0874 -1.79502