ITEM: TIMESTEP
5920000
ITEM: NUMBER OF ATOMS
810
ITEM: BOX BOUNDS xy xz yz pp pp pp
-2.1190764882489365e+01 5.2154620611319167e+01 -2.2053749271169266e+01
8.1394622342039402e-01 5.0202268776579182e+01 0.0000000000000000e+00
-1.0000000000000000e+01 1.0000000000000000e+01 0.0000000000000000e+00
ITEM: ATOMS id type x y z xu yu zu
1 1 3.88704 47.3206 6.73186 -25.3508 -2.0677 6.73186
2 2 6.26583 47.2476 7.45688 -22.9721 -2.14076 7.45688
3 2 5.16049 48.7539 5.1325 -24.0774 -0.634467 5.1325
4 1 36.3856 5.61664 -2.86835 -14.9061 5.61664 -2.86835
5 2 35.6044 5.66814 -0.47867 -15.6872 5.66814 -0.47867
6 2 38.2616 4.4193 -1.74428 -13.03 4.4193 -1.74428
7 1 36.3223 3.2556 -0.631755 -14.9693 3.2556 -0.631755
8 2 35.8825 2.95851 1.83367 -15.4091 2.95851 1.83367
9 2 38.4038 2.09015 0.08271 -12.8878 2.09015 0.08271
10 1 38.2636 3.55563 2.07675 -13.028 3.55563 2.07675
11 2 37.9966 2.84263 4.46414 -13.2951 2.84263 4.46414
12 2 40.5289 2.58195 2.44014 -10.7627 2.58195 2.44014
13 1 17.1319 50.1773 3.62237 -12.106 0.789008 3.62237
14 2 17.4261 49.0709 5.87052 -11.8118 -0.317471 5.87052
15 2 19.5995 49.64 3.52185 -9.6384 0.251634 3.52185
16 1 41.634 1.00862 5.92192 -9.65764 1.00862 5.92192
17 2 20.0856 49.1381 8.05026 -9.15227 -0.250181 8.05026
18 2 22.0718 50.0697 5.65308 -7.16612 0.681404 5.65308
19 1 21.5471 47.7762 6.52924 -7.69078 -1.61208 6.52924
20 2 22.5608 46.2825 8.29723 -6.6771 -3.10578 8.29723
21 2 24.0029 47.9853 5.93272 -5.23499 -1.40302 5.93272
22 1 24.2876 48.1067 8.41765 -4.95027 -1.28159 8.41765
23 2 25.4508 46.574 -9.95114 -3.78707 -2.81437 10.0489
24 2 26.6934 48.4932 7.73456 -2.54446 -0.895084 7.73456
25 1 26.8663 46.0101 8.05042 -2.37162 -3.37819 8.05042
26 2 28.406 44.4563 9.30016 -0.831893 -4.93203 9.30016
27 2 29.0963 46.88 7.23884 -0.14163 -2.5083 7.23884
28 1 29.7304 46.5618 9.6418 0.492466 -2.82654 9.6418
29 2 31.3707 45.0417 -9.20277 2.13284 -4.34659 10.7972
30 2 -19.4015 47.5552 8.79239 2.6522 -1.83317 8.79239
31 1 -18.7416 45.1459 8.58381 3.31213 -4.2424 8.58381
32 2 -16.8685 43.7122 9.45453 5.18523 -5.67612 9.45453
33 2 -16.7789 46.4692 7.72012 5.27486 -2.91911 7.72012
34 1 -15.8414 45.9394 9.98535 6.21231 -3.44893 9.98535
35 2 -13.8818 44.6011 -9.18715 8.17194 -4.78719 10.8128
36 2 -13.9701 47.3442 9.05424 8.08363 -2.04407 9.05424
37 1 -12.9937 45.1028 8.52512 9.06002 -4.28548 8.52512
38 2 -10.9381 43.8553 9.24328 11.1156 -5.53307 9.24328
39 2 -11.2483 46.6437 7.57983 10.8055 -2.7446 7.57983
40 1 -10.1074 46.162 9.75957 11.9464 -3.22632 9.75957
41 2 -7.98731 45.0258 -9.52909 14.0664 -4.3625 10.4709
42 2 -8.45257 47.7418 8.72422 13.6012 -1.64656 8.72422
43 1 -7.29772 45.6077 8.13636 14.756 -3.78065 8.13636
44 2 -5.15707 44.5592 8.91081 16.8967 -4.82916 8.91081
45 2 -5.6792 47.1487 6.99422 16.3746 -2.23965 6.99422
46 1 -4.46585 46.9513 9.1746 17.5879 -2.43699 9.1746
47 2 -2.30306 45.9386 -10.0413 19.7507 -3.44973 9.95874
48 2 -2.87365 48.5031 7.99417 19.1801 -0.885203 7.99417
49 1 -1.66093 46.3511 7.56227 20.3928 -3.03724 7.56227
50 2 0.554774 45.497 8.38162 22.6085 -3.89133 8.38162
51 2 -0.161249 47.8521 6.21654 21.8925 -1.53617 6.21654
52 1 1.09018 47.9393 8.37462 23.1439 -1.44904 8.37462
53 2 3.22689 46.883 9.10362 25.2806 -2.50531 9.10362
54 2 2.97328 49.433 7.66497 25.027 0.0446353 7.66497
55 1 36.7082 7.79228 -5.23844 -14.5835 7.79228 -5.23844
56 2 35.8034 8.05386 -2.90851 -15.4882 8.05386 -2.90851
57 2 38.4507 6.58032 -3.92978 -12.8409 6.58032 -3.92978
58 1 38.1652 8.40515 -2.29076 -13.1265 8.40515 -2.29076
59 2 37.2592 8.51505 0.0353066 -14.0325 8.51505 0.0353066
60 2 39.9574 7.10937 -1.14557 -11.3342 7.10937 -1.14557
61 1 37.9733 6.11553 0.0330132 -13.3183 6.11553 0.0330132
62 2 37.298 5.84695 2.4276 -13.9936 5.84695 2.4276
63 2 39.9999 4.92262 0.856928 -11.2917 4.92262 0.856928
64 1 39.704 6.46695 2.8131 -11.5877 6.46695 2.8131
65 2 39.2571 5.97368 5.23254 -12.0346 5.97368 5.23254
66 2 41.866 5.34748 3.39256 -9.42568 5.34748 3.39256
67 1 40.3328 3.77485 4.64498 -10.9588 3.77485 4.64498
68 2 40.3209 2.86748 6.98851 -10.9707 2.86748 6.98851
69 2 42.7099 2.98599 4.78663 -8.58171 2.98599 4.78663
70 1 42.5787 3.98261 7.08687 -8.7129 3.98261 7.08687
71 2 42.7812 2.91294 9.35706 -8.5104 2.91294 9.35706
72 2 45.0171 3.36004 7.03898 -6.27454 3.36004 7.03898
73 1 44.1705 1.23885 8.09783 -7.12117 1.23885 8.09783
74 2 22.8127 49.2555 -9.90256 -6.42519 -0.132777 10.0974
75 2 46.6589 1.09935 7.68073 -4.63273 1.09935 7.68073
76 1 46.7842 1.49257 -9.8488 -4.50742 1.49257 10.1512
77 2 25.6004 49.4338 -7.97734 -3.63751 0.045502 12.0227
78 2 49.2518 1.5394 9.61467 -2.03984 1.5394 9.61467
79 1 27.0662 48.4912 -9.7893 -2.17165 -0.897165 10.2107
80 2 28.3671 46.9463 -8.28287 -0.870747 -2.44202 11.7171
81 2 29.4149 49.044 9.45971 0.176989 -0.344358 9.45971
82 1 29.8779 48.9416 -8.08095 0.63998 -0.446676 11.9191
83 2 31.3204 47.4167 -6.69209 2.08255 -1.97157 13.3079
84 2 -19.1368 49.6575 -8.90251 2.917 0.269167 11.0975
85 1 -18.6806 47.1928 -8.83465 3.37318 -2.19548 11.1653
86 2 -16.9304 45.7383 -7.76375 5.12336 -3.64999 12.2363
87 2 -16.6077 48.3083 -9.73984 5.44607 -1.08006 10.2602
88 1 -15.7834 47.9408 -7.40121 6.27031 -1.44755 12.5988
89 2 -13.9124 46.5833 -6.41856 8.14138 -2.80501 13.5814
90 2 -13.823 49.1899 -8.37363 8.23076 -0.198386 11.6264
91 1 -12.9383 46.8755 -8.70841 9.11547 -2.51282 11.2916
92 2 -10.8787 45.6837 -7.90891 11.1751 -3.70466 12.0911
93 2 -11.1911 48.3597 -9.74744 10.8627 -1.02863 10.2526
94 1 -10.0549 48.0221 -7.54129 11.9989 -1.36622 12.4587
95 2 -7.94539 46.9168 -6.74639 14.1084 -2.47149 13.2536
96 2 -8.38887 49.5595 -8.63704 13.6649 0.171142 11.363
97 1 -7.24158 47.3812 -9.11031 14.8122 -2.00716 10.8897
98 2 -5.02737 46.3916 -8.44389 17.0264 -2.99674 11.5561
99 2 -5.72825 49.0398 -10.2475 16.3255 -0.348477 9.75253
100 1 -4.43524 48.7951 -8.12816 17.6185 -0.593259 11.8718
101 2 -2.07448 48.5254 -7.39045 19.9793 -0.862959 12.6095
102 2 -3.08029 50.3598 -9.52485 18.9735 0.971523 10.4751
103 1 -1.66128 48.3339 -9.83747 20.3925 -1.05444 10.1625
104 2 0.550793 47.326 -9.26162 22.6045 -2.06234 10.7384
105 2 0.130478 49.9418 -10.4589 22.1842 0.553487 9.54111
106 1 37.116 9.89471 -7.64956 37.116 9.89471 -7.64956
107 2 36.2746 10.2505 -5.30993 36.2746 10.2505 -5.30993
108 2 38.8099 8.60458 -6.35312 38.8099 8.60458 -6.35312
109 1 38.6653 10.4715 -4.74843 -12.6263 10.4715 -4.74843
110 2 37.6819 10.8478 -2.48495 -13.6097 10.8478 -2.48495
111 2 40.281 9.11194 -3.4367 -11.0106 9.11194 -3.4367
112 1 40.0999 11.0507 -1.85898 -11.1917 11.0507 -1.85898
113 2 39.1638 11.3532 0.438574 -12.1278 11.3532 0.438574
114 2 41.7567 9.67253 -0.608586 -9.53489 9.67253 -0.608586
115 1 39.677 8.90369 0.585556 -11.6146 8.90369 0.585556
116 2 38.9158 8.84774 2.97129 -12.3759 8.84774 2.97129
117 2 41.5756 7.60515 1.55835 -9.71603 7.60515 1.55835
118 1 41.3508 9.30093 3.39123 -9.94085 9.30093 3.39123
119 2 40.7513 9.06072 5.81513 -10.5403 9.06072 5.81513
120 2 43.3693 8.04238 4.16903 -7.92238 8.04238 4.16903
121 1 41.6445 6.73346 5.47211 -9.64717 6.73346 5.47211
122 2 41.3995 6.05889 7.88014 -9.89215 6.05889 7.88014
123 2 43.912 5.72674 5.8409 -7.37964 5.72674 5.8409
124 1 43.745 6.95716 8.01898 -7.54659 6.95716 8.01898
125 2 43.6792 6.11518 -9.6123 -7.61248 6.11518 10.3877
126 2 46.0926 6.08357 8.20631 -5.199 6.08357 8.20631
127 1 44.9534 4.18166 9.40612 -6.33822 4.18166 9.40612
128 2 45.3464 2.97737 -8.41682 -5.94522 2.97737 11.5832
129 2 47.4237 3.73073 9.19652 -3.86795 3.73073 9.19652
130 1 47.4247 4.39005 -8.38723 -3.86698 4.39005 11.6128
131 2 48.0048 3.08594 -6.31328 -3.28687 3.08594 13.6867
132 2 49.9039 4.11669 -8.74578 -1.38778 4.11669 11.2542
133 1 49.4601 1.78984 -7.9026 -1.83149 1.78984 12.0974
134 2 28.4443 49.6905 -6.15646 -0.793573 0.302182 13.8435
135 2 0.598108 2.02039 -8.54463 0.598108 2.02039 11.4554
136 1 0.900535 2.15229 -6.06294 0.900535 2.15229 13.9371
137 2 -19.9496 50.038 -4.44607 2.10414 0.649657 15.5539
138 2 3.27437 2.5749 -6.79746 3.27437 2.5749 13.2025
139 1 -18.5684 49.4858 -6.46948 3.48536 0.0974713 13.5305
140 2 -16.969 48.0273 -5.19249 5.08474 -1.36101 14.8075
141 2 5.66382 0.982445 -7.38141 5.66382 0.982445 12.6186
142 1 -15.6917 50.176 -4.9863 6.36204 0.78768 15.0137
143 2 -13.9567 48.7995 -3.80479 8.09705 -0.588827 16.1952
144 2 8.42925 1.85085 -5.96876 8.42925 1.85085 14.0312
145 1 -12.8817 48.8454 -6.07632 9.17209 -0.542895 13.9237
146 2 -10.8613 47.63 -5.20081 11.1925 -1.75831 14.7992
147 2 -11.0838 50.2668 -7.13958 10.9699 0.878496 12.8604
148 1 -10.0151 49.9597 -4.90781 12.0387 0.57141 15.0922
149 2 -7.75024 49.4414 -4.03721 14.3035 0.0530733 15.9628
150 2 13.5869 2.03108 -6.20283 13.5869 2.03108 13.7972
151 1 -7.21571 49.283 -6.456 14.838 -0.105359 13.544
152 2 -5.14993 48.0201 -5.86868 16.9038 -1.36822 14.1313
153 2 16.7462 1.41239 -6.94905 16.7462 1.41239 13.051
154 1 37.6248 14.2694 7.67311 37.6248 14.2694 -12.3269
155 2 37.0927 14.4806 -9.88738 37.0927 14.4806 -9.88738
156 2 39.4453 12.872 8.66222 39.4453 12.872 -11.3378
157 1 37.4714 12.0233 -10.0361 37.4714 12.0233 -10.0361
158 2 36.7835 12.3659 -7.6488 36.7835 12.3659 -7.6488
159 2 39.1864 10.6417 -8.86461 39.1864 10.6417 -8.86461
160 1 39.2109 12.4838 -7.22729 39.2109 12.4838 -7.22729
161 2 38.3102 12.9305 -4.94072 38.3102 12.9305 -4.94072
162 2 40.7853 11.0465 -5.94701 40.7853 11.0465 -5.94701
163 1 40.7514 13.0074 -4.38986 -10.5402 13.0074 -4.38986
164 2 39.7823 13.5149 -2.14383 -11.5093 13.5149 -2.14383
165 2 42.2617 11.5791 -3.02143 -9.02997 11.5791 -3.02143
166 1 42.2063 13.5821 -1.52031 -9.08538 13.5821 -1.52031
167 2 41.2463 14.0459 0.739986 -10.0453 14.0459 0.739986
168 2 43.7413 12.1526 -0.175628 -7.55033 12.1526 -0.175628
169 1 41.5954 11.5773 1.01083 -9.6962 11.5773 1.01083
170 2 40.7581 11.7425 3.36402 -10.5335 11.7425 3.36402
171 2 43.3467 10.1929 2.12946 -7.94497 10.1929 2.12946
172 1 43.2072 12.0234 3.83379 -8.08441 12.0234 3.83379
173 2 42.4813 12.0283 6.23137 -8.81034 12.0283 6.23137
174 2 45.0711 10.6658 4.79908 -6.22049 10.6658 4.79908
175 1 43.1842 9.61758 6.10965 -8.10747 9.61758 6.10965
176 2 42.7369 9.20114 8.54438 -8.5547 9.20114 8.54438
177 2 45.3124 8.43768 6.70511 -5.97923 8.43768 6.70511
178 1 45.1466 9.88228 8.74545 -6.14503 9.88228 8.74545
179 2 44.8518 9.29957 -8.82968 -6.43985 9.29957 11.1703
180 2 47.3686 8.80096 9.16596 -3.92301 8.80096 9.16596
181 1 45.9647 7.15761 -9.53383 -5.32697 7.15761 10.4662
182 2 46.0788 6.16737 -7.22415 -5.2128 6.16737 12.7758
183 2 48.3713 6.43155 -9.51812 -2.9203 6.43155 10.4819
184 1 48.2927 7.35298 -7.19125 -2.99892 7.35298 12.8088
185 2 48.6076 6.25033 -4.95403 -2.68403 6.25033 15.046
186 2 -0.554032 6.78658 -7.35602 -0.554032 6.78658 12.644
187 1 49.9837 4.63211 -6.29657 -1.30797 4.63211 13.7034
188 2 50.7505 3.26472 -4.33101 -0.541136 3.26472 15.669
189 2 1.15775 4.54235 -6.79637 1.15775 4.54235 13.2036
190 1 1.33392 4.93395 -4.33227 1.33392 4.93395 15.6677
191 2 2.2267 3.49227 -2.47735 2.2267 3.49227 17.5226
192 2 3.78501 5.04911 -4.90491 3.78501 5.04911 15.0951
193 1 3.6789 2.59928 -4.3298 3.6789 2.59928 15.6702
194 2 5.07796 1.11849 -2.85311 5.07796 1.11849 17.1469
195 2 5.9705 3.25571 -5.1717 5.9705 3.25571 14.8283
196 1 6.49097 3.17166 -2.73568 6.49097 3.17166 17.2643
197 2 8.35064 2.24566 -1.38264 8.35064 2.24566 18.6174
198 2 8.54297 4.00621 -3.87555 8.54297 4.00621 16.1245
199 1 9.22915 1.62765 -3.6185 9.22915 1.62765 16.3815
200 2 -11.0956 49.4664 -2.71863 10.9581 0.0780866 17.2814
201 2 11.4353 2.74825 -3.87749 11.4353 2.74825 16.1225
202 1 36.7278 19.3053 3.83294 36.7278 19.3053 -16.1671
203 2 36.6496 18.9559 6.30945 36.6496 18.9559 -13.6906
204 2 38.9299 18.1613 4.21257 38.9299 18.1613 -15.7874
205 1 37.4172 16.7 5.58531 37.4172 16.7 -14.4147
206 2 37.082 16.6668 8.06705 37.082 16.6668 -11.9329
207 2 39.4174 15.3749 6.30421 39.4174 15.3749 -13.6958
208 1 39.5295 16.9944 8.15347 39.5295 16.9944 -11.8465
209 2 39.0327 17.0666 -9.39846 39.0327 17.0666 -9.39846
210 2 41.3801 15.5235 8.93473 41.3801 15.5235 -11.0653
211 1 39.5428 14.6362 -9.62307 39.5428 14.6362 -9.62307
212 2 38.8212 14.9459 -7.2529 38.8212 14.9459 -7.2529
213 2 41.2245 13.1493 -8.54996 41.2245 13.1493 -8.54996
214 1 41.2991 15.0269 -6.89169 41.2991 15.0269 -6.89169
215 2 40.4484 15.4792 -4.58282 40.4484 15.4792 -4.58282
216 2 42.8572 13.5415 -5.63632 42.8572 13.5415 -5.63632
217 1 42.9012 15.5067 -4.0831 -8.39046 15.5067 -4.0831
218 2 41.9621 16.0536 -1.8282 -9.32949 16.0536 -1.8282
219 2 44.371 14.0341 -2.70798 -6.92067 14.0341 -2.70798
220 1 44.3926 16.0549 -1.22902 -6.89901 16.0549 -1.22902
221 2 43.4176 16.6094 1.00686 -7.87404 16.6094 1.00686
222 2 45.8536 14.6032 0.176736 -5.43802 14.6032 0.176736
223 1 43.6758 14.1391 1.34694 -7.61587 14.1391 1.34694
224 2 42.7795 14.491 3.6552 -8.5121 14.491 3.6552
225 2 45.2942 12.7057 2.59353 -5.99746 12.7057 2.59353
226 1 45.2252 14.6355 4.18734 -6.06642 14.6355 4.18734
227 2 44.4156 14.8571 6.54356 -6.87602 14.8571 6.54356
228 2 -4.34797 13.2112 5.30757 -4.34797 13.2112 5.30757
229 1 44.9356 12.4006 6.60131 -6.35599 12.4006 6.60131
230 2 44.3322 12.243 9.02952 -6.95941 12.243 9.02952
231 2 46.91 11.091 7.40345 -4.38159 11.091 7.40345
232 1 46.7814 12.7177 9.30314 -4.51026 12.7177 9.30314
233 2 46.3163 12.4073 -8.25325 -4.97536 12.4073 11.7467
234 2 -2.43628 11.4682 9.93169 -2.43628 11.4682 9.93169
235 1 47.2246 10.1102 -8.70444 -4.06709 10.1102 11.2956
236 2 47.0838 9.37082 -6.30889 -4.20782 9.37082 13.6911
237 2 -1.76437 9.1522 -8.45043 -1.76437 9.1522 11.5496
238 1 -1.88508 10.3182 -6.24108 -1.88508 10.3182 13.7589
239 2 -1.85818 9.41696 -3.89016 -1.85818 9.41696 16.1098
240 2 0.507679 9.53721 -6.15494 0.507679 9.53721 13.8451
241 1 -0.548606 7.5716 -4.98138 -0.548606 7.5716 15.0186
242 2 -0.0683758 6.37494 -2.82627 -0.0683758 6.37494 17.1737
243 2 1.92121 7.18727 -5.29601 1.92121 7.18727 14.704
244 1 1.97263 7.82108 -2.88344 1.97263 7.82108 17.1166
245 2 3.03566 6.88341 -0.820846 3.03566 6.88341 19.1792
246 2 4.40139 7.52206 -3.38483 4.40139 7.52206 16.6152
247 1 3.98928 5.26104 -2.43203 3.98928 5.26104 17.568
248 2 4.8947 3.55179 -0.856621 4.8947 3.55179 19.1434
249 2 6.45125 5.60116 -2.20861 6.45125 5.60116 17.7914
250 1 33.7394 24.5999 1.8327 33.7394 24.5999 -18.1673
251 2 34.3442 23.6248 4.04796 34.3442 23.6248 -15.952
252 2 36.1978 24.1614 1.49916 36.1978 24.1614 -18.5008
253 1 35.4971 21.9908 2.54946 35.4971 21.9908 -17.4505
254 2 35.738 21.3083 4.94115 35.738 21.3083 -15.0589
255 2 37.8669 21.1471 2.56092 37.8669 21.1471 -17.4391
256 1 38.0095 22.2646 4.74632 38.0095 22.2646 -15.2537
257 2 38.1155 21.6775 7.17552 38.1155 21.6775 -12.8245
258 2 40.2584 21.1813 4.7636 40.2584 21.1813 -15.2364
259 1 39.0441 19.5634 6.23006 39.0441 19.5634 -13.7699
260 2 38.8218 19.3206 8.70914 38.8218 19.3206 -11.2909
261 2 41.1026 18.2204 6.64692 41.1026 18.2204 -13.3531
262 1 41.2888 19.7643 8.61788 41.2888 19.7643 -11.3821
263 2 40.8784 19.6572 -8.90871 40.8784 19.6572 -8.90871
264 2 43.2499 18.357 9.27036 43.2499 18.357 -10.7296
265 1 41.5291 17.2652 -9.26616 41.5291 17.2652 -9.26616
266 2 40.8596 17.4883 -6.86136 40.8596 17.4883 -6.86136
267 2 43.2593 15.776 -8.25748 43.2593 15.776 -8.25748
268 1 43.3428 17.6201 -6.56018 43.3428 17.6201 -6.56018
269 2 42.5423 17.9815 -4.21153 42.5423 17.9815 -4.21153
270 2 44.9585 16.1258 -5.37817 44.9585 16.1258 -5.37817
271 1 -6.28463 18.0516 -3.77355 -6.28463 18.0516 -3.77355
272 2 44.1132 18.5312 -1.48036 -7.17844 18.5312 -1.48036
273 2 -4.76991 16.5608 -2.45965 -4.76991 16.5608 -2.45965
274 1 -4.73352 18.5506 -0.936301 -4.73352 18.5506 -0.936301
275 2 -5.70323 19.1028 1.30795 -5.70323 19.1028 1.30795
276 2 -3.27731 17.0882 0.471556 -3.27731 17.0882 0.471556
277 1 -5.45189 16.6327 1.64295 -5.45189 16.6327 1.64295
278 2 44.9008 17.1071 3.91144 -6.39086 17.1071 3.91144
279 2 -3.9254 15.1829 2.98196 -3.9254 15.1829 2.98196
280 1 -3.95681 17.1716 4.50327 -3.95681 17.1716 4.50327
281 2 -4.79416 17.5398 6.82939 -4.79416 17.5398 6.82939
282 2 -2.34251 15.6983 5.7131 -2.34251 15.6983 5.7131
283 1 -4.41757 15.0665 6.98819 -4.41757 15.0665 6.98819
284 2 -5.13614 15.1466 9.38278 -5.13614 15.1466 9.38278
285 2 -2.59328 13.6746 7.97267 -2.59328 13.6746 7.97267
286 1 -2.67231 15.4408 9.74597 -2.67231 15.4408 9.74597
287 2 -3.27463 15.3645 -7.81736 -3.27463 15.3645 12.1826
288 2 -0.72393 14.0917 -9.43667 -0.72393 14.0917 10.5633
289 1 -2.53977 12.98 -8.0785 -2.53977 12.98 11.9215
290 2 -2.91015 12.5333 -5.63631 -2.91015 12.5333 14.3637
291 2 -0.37158 11.8298 -7.58899 -0.37158 11.8298 12.411
292 1 -0.51117 13.213 -5.51707 -0.51117 13.213 14.4829
293 2 -1.02259 12.4686 -3.19168 -1.02259 12.4686 16.8083
294 2 1.62523 12.6239 -4.39796 1.62523 12.6239 15.602
295 1 0.379004 10.524 -3.87449 0.379004 10.524 16.1255
296 2 1.25407 9.8715 -1.64577 1.25407 9.8715 18.3542
297 2 2.74535 9.82255 -4.18315 2.74535 9.82255 15.8168
298 1 29.0264 28.9515 2.14145 29.0264 28.9515 -17.8585
299 2 30.3434 27.6501 3.80699 30.3434 27.6501 -16.193
300 2 31.3783 29.4425 1.37024 31.3783 29.4425 -18.6298
301 1 31.5399 26.9631 1.71199 31.5399 26.9631 -18.288
302 2 32.5168 25.7775 3.67378 32.5168 25.7775 -16.3262
303 2 33.9883 26.9899 1.10773 33.9883 26.9899 -18.8923
304 1 34.3433 27.4371 3.49913 34.3433 27.4371 -16.5009
305 2 35.2057 26.2863 5.54272 35.2057 26.2863 -14.4573
306 2 36.739 27.2121 2.81497 36.739 27.2121 -17.185
307 1 36.4201 24.9491 3.81729 36.4201 24.9491 -16.1827
308 2 36.8971 24.0436 6.09887 36.8971 24.0436 -13.9011
309 2 38.7916 24.2504 3.44985 38.7916 24.2504 -16.5501
310 1 39.0837 25.2213 5.7476 39.0837 25.2213 -14.2524
311 2 39.377 24.3808 8.09711 39.377 24.3808 -11.9029
312 2 41.4354 24.363 5.57437 41.4354 24.363 -14.4256
313 1 40.4822 22.4643 6.91081 40.4822 22.4643 -13.0892
314 2 40.3979 21.9834 9.37457 40.3979 21.9834 -10.6254
315 2 42.668 21.2641 7.15159 42.668 21.2641 -12.8484
316 1 -8.48189 22.6515 9.2428 42.8097 22.6515 -10.7572
317 2 42.542 22.3152 -8.27754 42.542 22.3152 -8.27754
318 2 -6.38584 21.3508 9.70235 44.9058 21.3508 -10.2977
319 1 43.3589 20.0069 -8.83894 43.3589 20.0069 -8.83894
320 2 42.7809 20.0579 -6.39344 42.7809 20.0579 -6.39344
321 2 -6.0915 18.5504 -7.97036 45.2001 18.5504 -7.97036
322 1 -6.02602 20.3066 -6.17704 45.2656 20.3066 -6.17704
323 2 -6.74903 20.5158 -3.77863 44.5426 20.5158 -3.77863
324 2 -4.30857 18.8237 -5.11815 46.9831 18.8237 -5.11815
325 1 -4.27216 20.6757 -3.42584 -4.27216 20.6757 -3.42584
326 2 -5.12777 21.0216 -1.08846 -5.12777 21.0216 -1.08846
327 2 -2.66197 19.2022 -2.20128 -2.66197 19.2022 -2.20128
328 1 -2.67289 21.1309 -0.598414 -2.67289 21.1309 -0.598414
329 2 -3.61101 21.586 1.68533 -3.61101 21.586 1.68533
330 2 -1.14635 19.6699 0.741316 -1.14635 19.6699 0.741316
331 1 -3.2802 19.1171 1.94082 -3.2802 19.1171 1.94082
332 2 -4.26815 19.6371 4.18034 -4.26815 19.6371 4.18034
333 2 -1.79018 17.6866 3.3425 -1.79018 17.6866 3.3425
334 1 -1.8497 19.7004 4.83186 -1.8497 19.7004 4.83186
335 2 -2.73449 20.089 7.14602 -2.73449 20.089 7.14602
336 2 -0.237358 18.2455 6.08342 -0.237358 18.2455 6.08342
337 1 -2.3368 17.6194 7.3169 -2.3368 17.6194 7.3169
338 2 -3.13502 17.9093 9.67131 -3.13502 17.9093 9.67131
339 2 -0.635447 16.1744 8.44653 -0.635447 16.1744 8.44653
340 1 -0.682879 18.0297 -9.89122 -0.682879 18.0297 10.1088
341 2 -1.68482 18.0698 -7.61313 -1.68482 18.0698 12.3869
342 2 1.04369 17.2114 -8.30424 1.04369 17.2114 11.6958
343 1 -0.82032 15.735 -7.56825 -0.82032 15.735 12.4318
344 2 -0.80484 15.6376 -5.09007 -0.80484 15.6376 14.9099
345 2 1.143 14.3072 -7.02564 1.143 14.3072 12.9744
346 1 23.5543 31.6726 4.22721 23.5543 31.6726 -15.7728
347 2 25.3445 30.3255 5.32349 25.3445 30.3255 -14.6765
348 2 25.6182 32.8797 3.42025 25.6182 32.8797 -16.5798
349 1 26.3305 30.5128 3.01995 26.3305 30.5128 -16.9801
350 2 27.924 29.1716 4.38703 27.924 29.1716 -15.613
351 2 28.5378 31.4088 2.18696 28.5378 31.4088 -17.813
352 1 29.2339 31.264 4.54211 29.2339 31.264 -15.4579
353 2 30.7704 29.9128 5.97247 30.7704 29.9128 -14.0275
354 2 31.4083 32.0044 3.54731 31.4083 32.0044 -16.4527
355 1 31.9013 29.5721 3.76967 31.9013 29.5721 -16.2303
356 2 33.1279 28.2749 5.51596 33.1279 28.2749 -14.484
357 2 34.2219 29.848 2.87347 34.2219 29.848 -17.1265
358 1 34.7814 30.1518 5.30262 34.7814 30.1518 -14.6974
359 2 35.8644 28.8261 7.1381 35.8644 28.8261 -12.8619
360 2 37.1659 30.2527 4.516 37.1659 30.2527 -15.484
361 1 37.1443 27.8449 5.2114 37.1443 27.8449 -14.7886
362 2 37.8388 26.7105 7.34179 37.8388 26.7105 -12.6582
363 2 39.5658 27.4395 4.67999 39.5658 27.4395 -15.32
364 1 39.8742 28.148 7.07197 39.8742 28.148 -12.928
365 2 40.3936 27.0707 9.28779 40.3936 27.0707 -10.7122
366 2 -8.99516 27.5694 6.69755 42.2965 27.5694 -13.3025
367 1 -9.65296 25.429 7.84194 41.6387 25.429 -12.1581
368 2 -9.54371 24.6975 -9.75048 41.7479 24.6975 -9.75048
369 2 -7.3476 24.4245 7.86493 43.944 24.4245 -12.1351
370 1 -7.21323 25.6068 -9.91786 44.0784 25.6068 -9.91786
371 2 -7.26726 25.0297 -7.46402 44.0244 25.0297 -7.46402
372 2 -4.98293 24.4617 -9.70743 46.3087 24.4617 -9.70743
373 1 -6.30119 22.8554 -8.28407 44.9904 22.8554 -8.28407
374 2 -6.73564 22.6884 -5.80955 44.556 22.6884 -5.80955
375 2 -4.31901 21.4685 -7.61741 46.9726 21.4685 -7.61741
376 1 -4.26212 23.0955 -5.70026 47.0295 23.0955 -5.70026
377 2 -4.88477 23.104 -3.25982 46.4069 23.104 -3.25982
378 2 -2.41067 21.6589 -4.80753 48.881 21.6589 -4.80753
379 1 -2.40735 23.4028 -2.9995 -2.40735 23.4028 -2.9995
380 2 -3.23409 23.5751 -0.625994 -3.23409 23.5751 -0.625994
381 2 -0.678846 21.9815 -1.87197 -0.678846 21.9815 -1.87197
382 1 -0.784704 23.8252 -0.175516 -0.784704 23.8252 -0.175516
383 2 -1.68683 24.112 2.15841 -1.68683 24.112 2.15841
384 2 0.883916 22.409 1.04666 0.883916 22.409 1.04666
385 1 -1.17741 21.6527 2.27569 -1.17741 21.6527 2.27569
386 2 -2.16479 22.173 4.52802 -2.16479 22.173 4.52802
387 2 0.324396 20.2132 3.6784 0.324396 20.2132 3.6784
388 1 0.243777 22.2112 5.16554 0.243777 22.2112 5.16554
389 2 -0.929488 22.5566 7.33476 -0.929488 22.5566 7.33476
390 2 1.76795 21.3351 6.91957 1.76795 21.3351 6.91957
391 1 -0.295457 20.1698 7.66987 -0.295457 20.1698 7.66987
392 2 -0.506919 20.5034 -9.88038 -0.506919 20.5034 10.1196
393 2 1.29134 18.5412 8.68417 1.29134 18.5412 8.68417
394 1 17.9699 33.0414 7.24545 17.9699 33.0414 -12.7545
395 2 19.9753 31.6958 7.90842 19.9753 31.6958 -12.0916
396 2 19.8303 34.6181 6.62148 19.8303 34.6181 -13.3785
397 1 20.7582 32.4962 5.66022 20.7582 32.4962 -14.3398
398 2 22.6731 31.1413 6.52023 22.6731 31.1413 -13.4798
399 2 22.711 33.9201 4.94008 22.711 33.9201 -15.0599
400 1 23.6633 33.3201 7.12996 23.6633 33.3201 -12.87
401 2 25.6053 32.0179 7.99997 25.6053 32.0179 -12
402 2 25.4993 34.7401 6.19418 25.4993 34.7401 -13.8058
403 1 26.4608 32.4978 5.70105 26.4608 32.4978 -14.299
404 2 28.2359 31.1555 6.83075 28.2359 31.1555 -13.1692
405 2 28.4605 33.6255 4.70411 28.4605 33.6255 -15.2959
406 1 29.3601 33.389 7.03281 29.3601 33.389 -12.9672
407 2 31.0723 31.9976 8.21858 31.0723 31.9976 -11.7814
408 2 31.4331 34.4108 6.05534 31.4331 34.4108 -13.9447
409 1 32.1411 32.0158 5.94795 32.1411 32.0158 -14.0521
410 2 33.5711 30.6114 7.45508 33.5711 30.6114 -12.5449
411 2 34.3976 32.609 5.01729 34.3976 32.609 -14.9827
412 1 35.0419 32.6419 7.44542 35.0419 32.6419 -12.5546
413 2 36.3288 31.1876 9.04245 36.3288 31.1876 -10.9575
414 2 37.3769 33.0762 6.60758 37.3769 33.0762 -13.3924
415 1 37.6241 30.6032 6.96223 37.6241 30.6032 -13.0378
416 2 38.5438 29.2743 8.89024 38.5438 29.2743 -11.1098
417 2 -11.2386 30.532 6.29713 40.0531 30.532 -13.7029
418 1 -10.8848 30.947 8.7513 40.4068 30.947 -11.2487
419 2 -10.1034 29.6675 -9.22723 41.1882 29.6675 -9.22723
420 2 -8.43906 30.7081 8.18047 42.8526 30.7081 -11.8195
421 1 -8.77003 28.3783 9.0686 42.5216 28.3783 -10.9314
422 2 -8.40144 27.4148 -8.62958 42.8902 27.4148 -8.62958
423 2 -6.37387 27.6278 8.83869 44.9178 27.6278 -11.1613
424 1 -6.18551 28.5741 -8.83412 45.1061 28.5741 -8.83412
425 2 -5.94649 27.7739 -6.45026 45.3451 27.7739 -6.45026
426 2 -3.84262 27.6425 -8.91997 47.449 27.6425 -8.91997
427 1 -4.87541 25.7842 -7.56531 46.4162 25.7842 -7.56531
428 2 -5.11302 25.3822 -5.08719 46.1786 25.3822 -5.08719
429 2 -2.75085 24.5091 -7.14323 48.5408 24.5091 -7.14323
430 1 -2.67142 25.98 -5.09789 48.6202 25.98 -5.09789
431 2 -3.1689 25.7669 -2.6328 48.1227 25.7669 -2.6328
432 2 -0.688088 24.6132 -4.39413 50.6035 24.6132 -4.39413
433 1 -0.709225 26.228 -2.46856 -0.709225 26.228 -2.46856
434 2 -1.47025 26.2367 -0.0508744 -1.47025 26.2367 -0.0508744
435 2 1.12815 24.8315 -1.46958 1.12815 24.8315 -1.46958
436 1 0.971981 26.5752 0.306215 0.971981 26.5752 0.306215
437 2 -0.0569022 26.657 2.57875 -0.0569022 26.657 2.57875
438 2 2.68702 25.5872 1.81048 2.68702 25.5872 1.81048
439 1 0.744216 24.2957 2.67632 0.744216 24.2957 2.67632
440 2 0.564563 24.6766 5.13012 0.564563 24.6766 5.13012
441 2 2.26416 22.6481 3.7724 2.26416 22.6481 3.7724
442 1 12.4584 33.6135 -9.31503 12.4584 33.6135 -9.31503
443 2 14.6816 32.5606 -8.76086 14.6816 32.5606 -8.76086
444 2 14.0401 35.388 9.8962 14.0401 35.388 -10.1038
445 1 15.2002 33.374 8.92947 15.2002 33.374 -11.0705
446 2 17.312 32.1305 9.48665 17.312 32.1305 -10.5134
447 2 16.9376 35.0741 8.30088 16.9376 35.0741 -11.6991
448 1 18.1001 34.3132 -9.66142 18.1001 34.3132 -9.66142
449 2 20.1632 33.0538 -9.03007 20.1632 33.0538 -9.03007
450 2 19.7931 35.9509 9.50492 19.7931 35.9509 -10.4951
451 1 20.8782 33.8506 8.71465 20.8782 33.8506 -11.2854
452 2 22.9182 32.5873 9.39977 22.9182 32.5873 -10.6002
453 2 22.6001 35.4502 7.85565 22.6001 35.4502 -12.1443
454 1 23.7408 34.8736 10.008 23.7408 34.8736 -9.99199
455 2 25.7839 33.6213 -9.28503 25.7839 33.6213 -9.28503
456 2 25.4678 36.4472 9.10886 25.4678 36.4472 -10.8911
457 1 26.5418 34.3024 8.42912 26.5418 34.3024 -11.5709
458 2 28.4603 32.9787 9.33623 28.4603 32.9787 -10.6638
459 2 28.4204 35.659 7.4744 28.4204 35.659 -12.5256
460 1 29.4373 35.2511 9.72914 29.4373 35.2511 -10.2709
461 2 31.28 33.8509 -9.30579 31.28 33.8509 -9.30579
462 2 31.4068 36.5044 8.80403 31.4068 36.5044 -11.196
463 1 32.2731 34.189 8.41016 32.2731 34.189 -11.5898
464 2 33.8746 32.7241 9.67389 33.8746 32.7241 -10.3261
465 2 34.4407 35.0754 7.49198 34.4407 35.0754 -12.508
466 1 35.1757 34.8549 9.883 35.1757 34.8549 -10.117
467 2 36.654 33.3405 -8.7589 36.654 33.3405 -8.7589
468 2 -13.8667 35.599 9.02685 37.425 35.599 -10.9731
469 1 -13.385 33.1357 9.06375 37.9066 33.1357 -10.9362
470 2 -12.2432 31.6614 -9.24731 39.0484 31.6614 -9.24731
471 2 -10.9934 33.4196 8.31675 40.2982 33.4196 -11.6832
472 1 -10.5659 33.5265 -9.20882 40.7257 33.5265 -9.20882
473 2 -9.54166 32.0567 -7.44858 41.75 32.0567 -7.44858
474 2 -8.14201 33.691 -9.88875 43.1496 33.691 -9.88875
475 1 -8.14238 31.2298 -9.37668 43.1493 31.2298 -9.37668
476 2 -7.45686 30.0642 -7.24965 43.8348 30.0642 -7.24965
477 2 -5.70109 30.8096 -9.87934 45.5905 30.8096 -9.87934
478 1 -5.39958 31.4889 -7.47074 45.8921 31.4889 -7.47074
479 2 -4.77716 30.4956 -5.22595 46.5145 30.4956 -5.22595
480 2 -2.98006 30.8654 -7.89374 48.3116 30.8654 -7.89374
481 1 -3.64345 28.7633 -6.66252 47.6482 28.7633 -6.66252
482 2 -3.63723 28.1302 -4.21101 47.6544 28.1302 -4.21101
483 2 -1.38832 27.6521 -6.49926 49.9033 27.6521 -6.49926
484 1 -1.25626 28.9531 -4.3294 50.0354 28.9531 -4.3294
485 2 -1.58643 28.5084 -1.85144 49.7052 28.5084 -1.85144
486 2 0.847759 27.6627 -3.86833 52.1394 27.6627 -3.86833
487 1 0.825313 29.1157 -1.83734 0.825313 29.1157 -1.83734
488 2 1.08836 29.0412 0.657416 1.08836 29.0412 0.657416
489 2 2.6733 27.5214 -1.27259 2.6733 27.5214 -1.27259
490 1 7.02351 34.2706 -5.74758 7.02351 34.2706 -5.74758
491 2 9.37159 33.6632 -5.04975 9.37159 33.6632 -5.04975
492 2 8.35972 35.9418 -7.04814 8.35972 35.9418 -7.04814
493 1 9.7425 33.8868 -7.51801 9.7425 33.8868 -7.51801
494 2 12.0465 33.0551 -6.91077 12.0465 33.0551 -6.91077
495 2 11.1778 35.65 -8.56002 11.1778 35.65 -8.56002
496 1 12.5339 35.4415 -6.50538 12.5339 35.4415 -6.50538
497 2 14.6232 34.3082 -5.72859 14.6232 34.3082 -5.72859
498 2 14.1864 37.0058 -7.52263 14.1864 37.0058 -7.52263
499 1 15.3189 34.8421 -8.06367 15.3189 34.8421 -8.06367
500 2 17.3792 33.6038 -7.37971 17.3792 33.6038 -7.37971
501 2 17.0105 36.4467 -8.94818 17.0105 36.4467 -8.94818
502 1 18.1579 35.9103 -6.78868 18.1579 35.9103 -6.78868
503 2 20.1966 34.6489 -6.08594 20.1966 34.6489 -6.08594
504 2 19.8828 37.4837 -7.67925 19.8828 37.4837 -7.67925
505 1 20.9542 35.3356 -8.36303 20.9542 35.3356 -8.36303
506 2 23.0283 34.0947 -7.72865 23.0283 34.0947 -7.72865
507 2 22.6392 36.973 -9.22385 22.6392 36.973 -9.22385
508 1 23.8095 36.3861 -7.09158 23.8095 36.3861 -7.09158
509 2 25.8754 35.1205 -6.47157 25.8754 35.1205 -6.47157
510 2 25.5131 38.0154 -7.93761 25.5131 38.0154 -7.93761
511 1 26.6107 35.9172 -8.72708 26.6107 35.9172 -8.72708
512 2 28.6121 34.6068 -7.99083 28.6121 34.6068 -7.99083
513 2 28.4022 37.4295 -9.61432 28.4022 37.4295 -9.61432
514 1 29.4916 36.8805 -7.42642 29.4916 36.8805 -7.42642
515 2 31.4315 35.5048 -6.63517 31.4315 35.5048 -6.63517
516 2 31.361 38.3083 -8.29954 31.361 38.3083 -8.29954
517 1 32.339 36.0837 -8.90618 32.339 36.0837 -8.90618
518 2 34.088 34.6175 -7.85938 34.088 34.6175 -7.85938
519 2 34.3973 37.2172 -9.79988 34.3973 37.2172 -9.79988
520 1 35.2327 36.8081 -7.47106 35.2327 36.8081 -7.47106
521 2 -14.4057 35.3036 -6.32221 36.8859 35.3036 -6.32221
522 2 -13.9266 37.8121 -8.34575 37.3651 37.8121 -8.34575
523 1 -13.2364 35.408 -8.54902 38.0552 35.408 -8.54902
524 2 -11.9053 33.8424 -7.09486 39.3863 33.8424 -7.09486
525 2 -10.9069 36.0102 -9.3071 40.3847 36.0102 -9.3071
526 1 -10.398 35.8306 -6.852 40.8937 35.8306 -6.852
527 2 -9.25052 34.1445 -5.35104 42.0411 34.1445 -5.35104
528 2 -7.99817 36.345 -7.41799 43.2935 36.345 -7.41799
529 1 -7.77919 33.8513 -7.40562 43.5124 33.8513 -7.40562
530 2 -6.71666 32.5196 -5.58566 44.575 32.5196 -5.58566
531 2 -5.37591 33.8859 -8.21147 45.9157 33.8859 -8.21147
532 1 -4.88194 34.2557 -5.77359 46.4097 34.2557 -5.77359
533 2 -3.88414 33.0136 -3.7725 47.4075 33.0136 -3.7725
534 2 -2.42698 34.1334 -6.425 48.8647 34.1334 -6.425
535 1 -2.61089 31.7657 -5.54313 48.6807 31.7657 -5.54313
536 2 -2.23991 30.9481 -3.14248 49.0517 30.9481 -3.14248