ITEM: TIMESTEP
4203000
ITEM: NUMBER OF ATOMS
810
ITEM: BOX BOUNDS xy xz yz pp pp pp
8.6298438867990135e-01 7.2912532580411806e+01 2.0757911969092635e+01
8.1394622342039402e-01 5.0202268776579182e+01 0.0000000000000000e+00
-1.0000000000000000e+01 1.0000000000000000e+01 0.0000000000000000e+00
ITEM: ATOMS id type x y z xu yu zu
1 1 34.4229 1.32478 4.00587 -16.8688 1.32478 4.00587
2 2 36.3427 1.23142 5.7772 -14.9489 1.23142 5.7772
3 2 36.6208 1.14877 2.62238 -14.6709 1.14877 2.62238
4 1 38.0647 2.88121 4.22842 -13.2269 2.88121 4.22842
5 2 40.0951 2.6183 5.85062 -11.1965 2.6183 5.85062
6 2 40.1813 2.83681 2.69351 -11.1103 2.83681 2.69351
7 1 40.6392 0.779497 4.15075 -10.6524 0.779497 4.15075
8 2 63.7174 49.4193 5.02182 -8.33213 0.0309794 5.02182
9 2 42.3206 1.32414 2.18396 -8.97102 1.32414 2.18396
10 1 44.261 2.33396 3.90548 -7.03066 2.33396 3.90548
11 2 46.6162 1.52266 4.58248 -4.67542 1.52266 4.58248
12 2 45.8199 3.02735 1.88256 -5.47176 3.02735 1.88256
13 1 67.1801 49.9726 2.20137 -4.86945 0.584272 2.20137
14 2 69.5819 49.1096 2.30651 -2.46764 -0.278756 2.30651
15 2 47.5635 1.74057 0.136994 -3.72812 1.74057 0.136994
16 1 49.8919 2.29021 1.65006 -1.39971 2.29021 1.65006
17 2 52.2976 1.45755 1.7042 1.00593 1.45755 1.7042
18 2 50.9653 3.50787 -0.39844 -0.326344 3.50787 -0.39844
19 1 51.5964 1.09888 -0.746062 0.304807 1.09888 -0.746062
20 2 23.485 49.79 -0.487061 2.72714 0.401699 -0.487061
21 2 1.40777 2.21106 -2.79854 1.40777 2.21106 -2.79854
22 1 3.75627 2.87866 -1.3478 3.75627 2.87866 -1.3478
23 2 6.17673 2.20766 -0.969445 6.17673 2.20766 -0.969445
24 2 4.93888 3.87223 -3.42216 4.93888 3.87223 -3.42216
25 1 5.79128 1.47942 -3.43759 5.79128 1.47942 -3.43759
26 2 8.1298 1.03019 -2.45891 8.1298 1.03019 -2.45891
27 2 7.41303 1.84327 -5.45054 7.41303 1.84327 -5.45054
28 1 9.37726 3.10512 -3.84013 9.37726 3.10512 -3.84013
29 2 11.6697 2.7552 -2.69574 11.6697 2.7552 -2.69574
30 2 11.121 3.28377 -5.77802 11.121 3.28377 -5.77802
31 1 11.8987 1.11601 -4.67094 11.8987 1.11601 -4.67094
32 2 13.8654 1.27309 -2.93366 13.8654 1.27309 -2.93366
33 2 34.8223 50.0161 -6.03082 14.0643 0.627822 -6.03082
34 1 15.5498 2.63471 -4.6498 15.5498 2.63471 -4.6498
35 2 17.4035 2.94077 -2.80113 17.4035 2.94077 -2.80113
36 2 17.789 2.02251 -5.8155 17.789 2.02251 -5.8155
37 1 38.7326 50.0045 -3.67598 17.9747 0.616165 -3.67598
38 2 19.3588 1.49469 -1.60432 19.3588 1.49469 -1.60432
39 2 41.1135 49.1363 -4.09949 20.3556 -0.252006 -4.09949
40 1 21.5179 2.22379 -3.23817 21.5179 2.22379 -3.23817
41 2 22.7958 3.22274 -1.15754 22.7958 3.22274 -1.15754
42 2 23.9098 1.34316 -3.51193 23.9098 1.34316 -3.51193
43 1 44.1371 50.1589 -1.07197 23.3792 0.770539 -1.07197
44 2 24.4137 2.00269 0.961051 24.4137 2.00269 0.961051
45 2 46.5443 49.3716 -1.1486 25.7864 -0.0167685 -1.1486
46 1 26.8032 2.52547 -0.460616 26.8032 2.52547 -0.460616
47 2 27.8437 3.73366 1.57256 27.8437 3.73366 1.57256
48 2 29.2165 1.77551 -0.591192 29.2165 1.77551 -0.591192
49 1 28.5986 1.3419 1.89375 28.5986 1.3419 1.89375
50 2 29.9293 2.11848 3.98348 29.9293 2.11848 3.98348
51 2 51.762 50.116 1.30735 31.0041 0.727646 1.30735
52 1 32.1108 3.04589 2.42943 32.1108 3.04589 2.42943
53 2 33.552 3.66545 4.50674 33.552 3.66545 4.50674
54 2 34.4975 2.48839 1.69231 34.4975 2.48839 1.69231
55 1 35.6536 4.71984 2.92301 -15.6381 4.71984 2.92301
56 2 37.2139 5.16977 4.96484 -14.0778 5.16977 4.96484
57 2 38.0112 4.23413 2.02587 -13.2804 4.23413 2.02587
58 1 39.2266 6.36276 3.3621 -12.065 6.36276 3.3621
59 2 40.9101 6.63375 5.34205 -10.3816 6.63375 5.34205
60 2 41.5442 5.967 2.3001 -9.74743 5.967 2.3001
61 1 41.7207 4.42151 4.35795 -9.57098 4.42151 4.35795
62 2 43.848 4.00395 5.80803 -7.44367 4.00395 5.80803
63 2 43.7431 4.52105 2.68583 -7.54854 4.52105 2.68583
64 1 45.3811 5.95551 4.39173 -5.91049 5.95551 4.39173
65 2 47.5912 5.4042 5.65091 -3.70043 5.4042 5.65091
66 2 47.294 6.20157 2.5971 -3.99763 6.20157 2.5971
67 1 47.8559 3.91384 3.57763 -3.43574 3.91384 3.57763
68 2 50.2341 3.06218 4.07205 -1.0575 3.06218 4.07205
69 2 49.2938 4.74608 1.51862 -1.99787 4.74608 1.51862
70 1 51.4202 5.52457 3.17382 0.12859 5.52457 3.17382
71 2 2.52098 4.65357 3.50471 2.52098 4.65357 3.50471
72 2 52.743 6.48268 1.09637 1.45135 6.48268 1.09637
73 1 53.3337 4.02773 1.06568 2.04208 4.02773 1.06568
74 2 4.45092 3.23055 1.11584 4.45092 3.23055 1.11584
75 2 3.07547 5.2737 -0.968249 3.07547 5.2737 -0.968249
76 1 5.4669 5.78922 0.459276 5.4669 5.78922 0.459276
77 2 7.87921 5.02572 0.552002 7.87921 5.02572 0.552002
78 2 6.49511 7.02279 -1.56986 6.49511 7.02279 -1.56986
79 1 7.22812 4.63254 -1.92773 7.22812 4.63254 -1.92773
80 2 9.6414 3.9981 -1.41453 9.6414 3.9981 -1.41453
81 2 8.5064 5.48782 -4.0156 8.5064 5.48782 -4.0156
82 1 10.7268 6.35802 -2.47948 10.7268 6.35802 -2.47948
83 2 13.125 5.77154 -1.81907 13.125 5.77154 -1.81907
84 2 12.1133 7.05946 -4.56468 12.1133 7.05946 -4.56468
85 1 12.988 4.69946 -4.17713 12.988 4.69946 -4.17713
86 2 15.2161 4.45463 -2.86541 15.2161 4.45463 -2.86541
87 2 14.8551 4.69023 -6.00614 14.8551 4.69023 -6.00614
88 1 16.6196 6.25819 -4.42977 16.6196 6.25819 -4.42977
89 2 18.7709 6.13792 -2.95988 18.7709 6.13792 -2.95988
90 2 18.5999 6.07091 -6.12239 18.5999 6.07091 -6.12239
91 1 19.1916 4.15396 -4.52976 19.1916 4.15396 -4.52976
92 2 20.9259 4.61112 -2.59179 20.9259 4.61112 -2.59179
93 2 21.4873 3.44284 -5.49723 21.4873 3.44284 -5.49723
94 1 22.8161 5.68495 -4.31566 22.8161 5.68495 -4.31566
95 2 24.4282 6.29214 -2.31065 24.4282 6.29214 -2.31065
96 2 25.1545 4.90188 -5.08754 25.1545 4.90188 -5.08754
97 1 25.0308 3.86509 -2.74311 25.0308 3.86509 -2.74311
98 2 26.2144 4.96374 -0.666838 26.2144 4.96374 -0.666838
99 2 27.4295 2.99217 -2.90183 27.4295 2.99217 -2.90183
100 1 28.5112 5.54194 -2.2019 28.5112 5.54194 -2.2019
101 2 29.6202 6.71662 -0.140798 29.6202 6.71662 -0.140798
102 2 30.9126 4.68938 -2.2884 30.9126 4.68938 -2.2884
103 1 30.2312 4.29588 0.156411 30.2312 4.29588 0.156411
104 2 31.3096 5.43935 2.20288 31.3096 5.43935 2.20288
105 2 32.6493 3.57876 -0.0600741 32.6493 3.57876 -0.0600741
106 1 33.6721 6.0672 0.767425 33.6721 6.0672 0.767425
107 2 34.8163 7.11407 2.83309 34.8163 7.11407 2.83309
108 2 36.0919 5.37977 0.444008 36.0919 5.37977 0.444008
109 1 37.1334 7.82705 1.36055 -14.1583 7.82705 1.36055
110 2 38.3624 8.75092 3.44407 -12.9292 8.75092 3.44407
111 2 39.5509 7.17565 0.913375 -11.7408 7.17565 0.913375
112 1 40.6193 9.56871 1.92975 -10.6723 9.56871 1.92975
113 2 41.9503 10.3498 4.01895 -9.34133 10.3498 4.01895
114 2 43.0275 8.96243 1.34274 -8.26416 8.96243 1.34274
115 1 42.8282 7.97836 3.73734 -8.46344 7.97836 3.73734
116 2 44.6353 8.06716 5.62548 -6.65631 8.06716 5.62548
117 2 45.0921 7.68819 2.50993 -6.19953 7.68819 2.50993
118 1 46.4534 9.56704 4.03669 -4.8382 9.56704 4.03669
119 2 48.3821 9.47548 5.8001 -2.90958 9.47548 5.8001
120 2 48.6473 9.39401 2.64504 -2.64431 9.39401 2.64504
121 1 49.035 7.48891 4.323 -2.25665 7.48891 4.323
122 2 51.3118 6.83006 5.38242 0.0201868 6.83006 5.38242
123 2 50.8288 7.88543 2.42608 -0.462824 7.88543 2.42608
124 1 52.6748 9.03297 4.15274 1.38318 9.03297 4.15274
125 2 54.9994 8.28765 5.01354 3.70775 8.28765 5.01354
126 2 54.3461 9.5797 2.17752 3.05442 9.5797 2.17752
127 1 3.65888 7.16848 2.70318 3.65888 7.16848 2.70318
128 2 6.05759 6.29395 2.90144 6.05759 6.29395 2.90144
129 2 4.88037 8.23392 0.62383 4.88037 8.23392 0.62383
130 1 7.1546 8.84206 2.18064 7.1546 8.84206 2.18064
131 2 9.55814 7.98447 2.28532 9.55814 7.98447 2.28532
132 2 8.2872 9.99058 0.109297 8.2872 9.99058 0.109297
133 1 8.8908 7.5636 -0.156587 8.8908 7.5636 -0.156587
134 2 11.3095 6.83645 0.0095246 11.3095 6.83645 0.0095246
135 2 9.94188 8.7485 -2.19523 9.94188 8.7485 -2.19523
136 1 12.3225 9.34527 -0.776118 12.3225 9.34527 -0.776118
137 2 14.7445 8.64877 -0.508819 14.7445 8.64877 -0.508819
138 2 13.4282 10.4407 -2.83553 13.4282 10.4407 -2.83553
139 1 14.2547 8.04795 -2.99381 14.2547 8.04795 -2.99381
140 2 16.6276 7.52484 -2.17226 16.6276 7.52484 -2.17226
141 2 15.7586 8.57454 -5.05578 15.7586 8.57454 -5.05578
142 1 17.8116 9.70068 -3.45966 17.8116 9.70068 -3.45966
143 2 20.1458 9.25501 -2.46819 20.1458 9.25501 -2.46819
144 2 19.4414 10.045 -5.46884 19.4414 10.045 -5.46884
145 1 20.2653 7.7933 -4.59356 20.2653 7.7933 -4.59356
146 2 22.3254 7.80961 -2.97663 22.3254 7.80961 -2.97663
147 2 22.3486 7.44234 -6.12307 22.3486 7.44234 -6.12307
148 1 23.9182 9.31413 -4.66006 23.9182 9.31413 -4.66006
149 2 25.8766 9.47893 -2.91448 25.8766 9.47893 -2.91448
150 2 26.0891 8.81845 -6.00834 26.0891 8.81845 -6.00834
151 1 26.4171 7.2388 -4.01403 26.4171 7.2388 -4.01403
152 2 27.9121 7.9921 -1.96774 27.9121 7.9921 -1.96774
153 2 28.7819 6.40284 -4.60257 28.7819 6.40284 -4.60257
154 1 29.9908 8.81887 -3.64176 29.9908 8.81887 -3.64176
155 2 31.3735 9.70689 -1.57251 31.3735 9.70689 -1.57251
156 2 32.3724 7.94973 -4.05988 32.3724 7.94973 -4.05988
157 1 31.9628 7.24914 -1.62899 31.9628 7.24914 -1.62899
158 2 33.0194 8.47134 0.414418 33.0194 8.47134 0.414418
159 2 34.3672 6.42836 -1.68796 34.3672 6.42836 -1.68796
160 1 35.395 8.98594 -1.03334 35.395 8.98594 -1.03334
161 2 36.4285 10.221 0.998161 36.4285 10.221 0.998161
162 2 37.804 8.2024 -1.11049 37.804 8.2024 -1.11049
163 1 38.82 10.7473 -0.424037 -12.4716 10.7473 -0.424037
164 2 39.8605 11.9592 1.60716 -11.4311 11.9592 1.60716
165 2 41.2347 10.0012 -0.555927 -10.0569 10.0012 -0.555927
166 1 42.2486 12.5259 0.189044 -9.043 12.5259 0.189044
167 2 43.3253 13.676 2.23366 -7.96636 13.676 2.23366
168 2 44.6695 11.8162 -0.0265977 -6.62217 11.8162 -0.0265977
169 1 44.1335 11.2849 2.46434 -7.1581 11.2849 2.46434
170 2 45.58 11.9073 4.53874 -5.71162 11.9073 4.53874
171 2 46.521 10.7321 1.7232 -4.77065 10.7321 1.7232
172 1 47.6791 12.9678 2.95012 -3.61256 12.9678 2.95012
173 2 49.2456 13.4171 4.98796 -2.04604 13.4171 4.98796
174 2 50.0362 12.4889 2.04553 -1.25544 12.4889 2.04553
175 1 50.0982 11.131 4.245 -1.19343 11.131 4.245
176 2 52.1354 10.868 5.85841 0.843794 10.868 5.85841
177 2 52.2104 11.0934 2.70183 0.918743 11.0934 2.70183
178 1 53.7543 12.679 4.36258 2.4627 12.679 4.36258
179 2 55.8896 12.2598 5.79936 4.59795 12.2598 5.79936
180 2 55.7675 12.7801 2.67801 4.47584 12.7801 2.67801
181 1 4.99994 10.592 3.89181 4.99994 10.592 3.89181
182 2 7.35835 9.78447 4.5595 7.35835 9.78447 4.5595
183 2 6.54681 11.283 1.8599 6.54681 11.283 1.8599
184 1 8.58783 12.1737 3.54567 8.58783 12.1737 3.54567
185 2 10.9669 11.3232 4.03262 10.9669 11.3232 4.03262
186 2 10.0149 13.0023 1.47908 10.0149 13.0023 1.47908
187 1 10.6154 10.5477 1.61353 10.6154 10.5477 1.61353
188 2 13.0211 9.71746 1.67231 13.0211 9.71746 1.67231
189 2 11.6847 11.7545 -0.441014 11.6847 11.7545 -0.441014
190 1 14.0498 12.2798 1.01751 14.0498 12.2798 1.01751
191 2 16.457 11.4813 1.07713 16.457 11.4813 1.07713
192 2 15.0852 13.5132 -1.02091 15.0852 13.5132 -1.02091
193 1 15.7693 11.1164 -1.38599 15.7693 11.1164 -1.38599
194 2 18.1883 10.4464 -0.995886 18.1883 10.4464 -0.995886
195 2 16.9587 12.0933 -3.46422 16.9587 12.0933 -3.46422
196 1 19.2402 12.8618 -1.9678 19.2402 12.8618 -1.9678
197 2 21.6492 12.225 -1.4382 21.6492 12.225 -1.4382
198 2 20.5308 13.6992 -4.0549 20.5308 13.6992 -4.0549
199 1 21.3973 11.316 -3.85898 21.3973 11.316 -3.85898
200 2 23.6796 10.9641 -2.69667 23.6796 10.9641 -2.69667
201 2 23.153 11.4764 -5.7865 23.153 11.4764 -5.7865
202 1 25.0069 12.8969 -4.1815 25.0069 12.8969 -4.1815
203 2 27.2277 12.6586 -2.85744 27.2277 12.6586 -2.85744
204 2 26.8806 12.877 -6.00209 26.8806 12.877 -6.00209
205 1 27.5688 10.8302 -4.63081 27.5688 10.8302 -4.63081
206 2 29.4171 11.1465 -2.7784 29.4171 11.1465 -2.7784
207 2 29.8109 10.2137 -5.78818 29.8109 10.2137 -5.78818
208 1 31.2096 12.3513 -4.50859 31.2096 12.3513 -4.50859
209 2 32.9397 12.8184 -2.56929 32.9397 12.8184 -2.56929
210 2 33.5084 11.6407 -5.46978 33.5084 11.6407 -5.46978
211 1 33.5361 10.4299 -3.20638 33.5361 10.4299 -3.20638
212 2 34.8106 11.4374 -1.12735 34.8106 11.4374 -1.12735
213 2 35.9296 9.55101 -3.47419 35.9296 9.55101 -3.47419
214 1 37.0482 12.0775 -2.71232 37.0482 12.0775 -2.71232
215 2 38.2291 13.1844 -0.638854 38.2291 13.1844 -0.638854
216 2 39.4479 11.2066 -2.86653 39.4479 11.2066 -2.86653
217 1 40.5281 13.7618 -2.17506 -10.7635 13.7618 -2.17506
218 2 41.631 14.944 -0.115424 -9.66061 14.944 -0.115424
219 2 42.9322 12.9157 -2.25663 -8.35945 12.9157 -2.25663
220 1 43.9772 15.4815 -1.60311 -7.31439 15.4815 -1.60311
221 2 45.0315 16.7124 0.436605 -6.26016 16.7124 0.436605
222 2 46.3833 14.6663 -1.66015 -4.90836 14.6663 -1.66015
223 1 45.6896 14.3105 0.797252 -5.60208 14.3105 0.797252
224 2 46.8356 15.3602 2.86159 -4.45603 15.3602 2.86159
225 2 48.1116 13.6305 0.470044 -3.18002 13.6305 0.470044
226 1 49.151 16.0813 1.38488 -2.14067 16.0813 1.38488
227 2 50.3852 17.0069 3.4654 -0.906483 17.0069 3.4654
228 2 51.5694 15.4357 0.931266 0.277796 15.4357 0.931266
229 1 51.2537 14.6199 3.38057 -0.0378938 14.6199 3.38057
230 2 52.946 14.8902 5.35315 1.65441 14.8902 5.35315
231 2 53.5676 14.2278 2.30831 2.27601 14.2278 2.30831
232 1 54.8552 16.2396 3.74083 3.56352 16.2396 3.74083
233 2 56.6737 16.3258 5.61741 5.38204 16.3258 5.61741
234 2 57.1113 15.9489 2.49902 5.81968 15.9489 2.49902
235 1 57.4116 14.2148 4.37673 6.12001 14.2148 4.37673
236 2 8.33622 13.6621 5.62218 8.33622 13.6621 5.62218
237 2 8.02145 14.4615 2.5698 8.02145 14.4615 2.5698
238 1 9.76781 15.7466 4.2881 9.76781 15.7466 4.2881
239 2 12.0465 15.0837 5.33686 12.0465 15.0837 5.33686
240 2 11.5515 16.1419 2.38211 11.5515 16.1419 2.38211
241 1 12.1435 13.7809 3.12639 12.1435 13.7809 3.12639
242 2 14.5345 12.9085 3.454 14.5345 12.9085 3.454
243 2 13.4598 14.7345 1.04435 13.4598 14.7345 1.04435
244 1 15.6661 15.4179 2.6471 15.6661 15.4179 2.6471
245 2 18.063 14.5427 2.8476 18.063 14.5427 2.8476
246 2 16.8842 16.4771 0.565176 16.8842 16.4771 0.565176
247 1 17.4713 14.0327 0.406913 17.4713 14.0327 0.406913
248 2 19.8819 13.268 0.512254 19.8819 13.268 0.512254
249 2 18.5055 15.2542 -1.62486 18.5055 15.2542 -1.62486
250 1 20.8933 15.7983 -0.206299 20.8933 15.7983 -0.206299
251 2 23.3078 15.0652 -0.0214965 23.3078 15.0652 -0.0214965
252 2 21.9575 16.9679 -2.24539 21.9575 16.9679 -2.24539
253 1 22.7394 14.5738 -2.51124 22.7394 14.5738 -2.51124
254 2 25.1312 13.9849 -1.83096 25.1312 13.9849 -1.83096
255 2 24.139 15.2551 -4.59283 24.139 15.2551 -4.59283
256 1 26.2667 16.251 -3.01294 26.2667 16.251 -3.01294
257 2 28.6331 15.7278 -2.17504 28.6331 15.7278 -2.17504
258 2 27.7814 16.7669 -5.06844 27.7814 16.7669 -5.06844
259 1 28.6365 14.4528 -4.42662 28.6365 14.4528 -4.42662
260 2 30.7824 14.341 -2.94845 30.7824 14.341 -2.94845
261 2 30.6219 14.2602 -6.11168 30.6219 14.2602 -6.11168
262 1 32.2809 15.9904 -4.58471 32.2809 15.9904 -4.58471
263 2 34.3384 16.0177 -2.96397 34.3384 16.0177 -2.96397
264 2 34.3673 15.6374 -6.10909 34.3673 15.6374 -6.10909
265 1 34.8334 13.8884 -4.29375 34.8334 13.8884 -4.29375
266 2 36.4444 14.5067 -2.29083 36.4444 14.5067 -2.29083
267 2 37.1725 13.1042 -5.06114 37.1725 13.1042 -5.06114
268 1 38.4343 15.4495 -3.99719 38.4343 15.4495 -3.99719
269 2 39.9262 16.2125 -1.95126 39.9262 16.2125 -1.95126
270 2 40.8015 14.6153 -4.57867 40.8015 14.6153 -4.57867
271 1 42.0068 17.0406 -3.62587 -9.28488 17.0406 -3.62587
272 2 43.3846 17.9386 -1.55646 -7.90702 17.9386 -1.55646
273 2 44.391 16.175 -4.03592 -6.90063 16.175 -4.03592
274 1 45.5492 18.6636 -3.19078 -5.74243 18.6636 -3.19078
275 2 46.822 19.68 -1.11485 -4.46969 19.68 -1.11485
276 2 47.9435 17.7875 -3.45544 -3.34816 17.7875 -3.45544
277 1 47.4083 17.2292 -1.01254 -3.88331 17.2292 -1.01254
278 2 48.4395 18.4724 1.01533 -2.85215 18.4724 1.01533
279 2 49.8189 16.4519 -1.08877 -1.47271 16.4519 -1.08877
280 1 50.8309 19.0017 -0.409809 -0.460769 19.0017 -0.409809
281 2 51.8748 20.2205 1.61546 0.583198 20.2205 1.61546
282 2 53.2456 18.2588 -0.546004 1.95399 18.2588 -0.546004
283 1 52.637 17.8311 1.94352 1.34538 17.8311 1.94352
284 2 53.9795 18.6123 4.02542 2.68786 18.6123 4.02542
285 2 55.0412 17.2221 1.34498 3.74959 17.2221 1.34498
286 1 56.1524 19.5457 2.45733 4.86077 19.5457 2.45733
287 2 57.6073 20.1664 4.52516 6.31563 20.1664 4.52516
288 2 58.5355 18.9929 1.70461 7.24389 18.9929 1.70461
289 1 58.4788 17.8266 4.01802 7.18719 17.8266 4.01802
290 2 9.12273 17.7314 5.77144 9.12273 17.7314 5.77144
291 2 9.37317 17.6535 2.61465 9.37317 17.6535 2.61465
292 1 10.8269 19.3872 4.20947 10.8269 19.3872 4.20947
293 2 12.8702 19.1208 5.81221 12.8702 19.1208 5.81221
294 2 12.9284 19.3432 2.65404 12.9284 19.3432 2.65404
295 1 13.399 17.2846 4.10387 13.399 17.2846 4.10387
296 2 15.7241 16.5369 4.95718 15.7241 16.5369 4.95718
297 2 15.0622 17.8288 2.12226 15.0622 17.8288 2.12226
298 1 17.0066 18.838 3.83252 17.0066 18.838 3.83252
299 2 19.3612 18.0257 4.50017 19.3612 18.0257 4.50017
300 2 18.5516 19.5264 1.7999 18.5516 19.5264 1.7999
301 1 19.1543 17.0848 2.12157 19.1543 17.0848 2.12157
302 2 21.5536 16.2227 2.23698 21.5536 16.2227 2.23698
303 2 20.2928 18.2268 0.0521055 20.2928 18.2268 0.0521055
304 1 22.6112 18.7784 1.56358 22.6112 18.7784 1.56358
305 2 25.0127 17.9423 1.63729 25.0127 17.9423 1.63729
306 2 23.6905 19.9764 -0.488378 23.6905 19.9764 -0.488378
307 1 24.3251 17.5648 -0.813709 24.3251 17.5648 -0.813709
308 2 26.7414 16.8601 -0.527664 26.7414 16.8601 -0.527664
309 2 25.4455 18.6469 -2.87051 25.4455 18.6469 -2.87051
310 1 27.7734 19.3212 -1.40617 27.7734 19.3212 -1.40617
311 2 30.1888 18.6503 -1.00172 30.1888 18.6503 -1.00172
312 2 28.9716 20.2906 -3.48132 28.9716 20.2906 -3.48132
313 1 29.8228 17.8976 -3.46485 29.8228 17.8976 -3.46485
314 2 32.1525 17.456 -2.46331 32.1525 17.456 -2.46331
315 2 31.4582 18.2387 -5.46899 31.4582 18.2387 -5.46899
316 1 33.407 19.5157 -3.85556 33.407 19.5157 -3.85556
317 2 35.6878 19.1712 -2.68922 35.6878 19.1712 -2.68922
318 2 35.1646 19.6785 -5.78051 35.1646 19.6785 -5.78051
319 1 35.9322 17.5188 -4.65036 35.9322 17.5188 -4.65036
320 2 37.8879 17.6909 -2.90306 37.8879 17.6909 -2.90306
321 2 38.106 17.0256 -5.99507 38.106 17.0256 -5.99507
322 1 39.5807 19.045 -4.61969 39.5807 19.045 -4.61969
323 2 41.4275 19.3693 -2.76772 41.4275 19.3693 -2.76772
324 2 41.8249 18.4326 -5.77504 41.8249 18.4326 -5.77504
325 1 43.2202 20.5773 -4.49846 -8.07146 20.5773 -4.49846
326 2 44.9514 21.0543 -2.56156 -6.34023 21.0543 -2.56156
327 2 45.5197 19.8677 -5.45792 -5.7719 19.8677 -5.45792
328 1 46.8426 22.1245 -4.28971 -4.44899 22.1245 -4.28971
329 2 48.4538 22.7511 -2.28893 -2.83787 22.7511 -2.28893
330 2 49.1831 21.3427 -5.05516 -2.10857 21.3427 -5.05516
331 1 49.0594 20.3212 -2.70338 -2.23223 20.3212 -2.70338
332 2 50.2379 21.4373 -0.633028 -1.05378 21.4373 -0.633028
333 2 51.46 19.454 -2.85407 0.168355 19.454 -2.85407
334 1 52.5351 22.0147 -2.17384 1.24343 22.0147 -2.17384
335 2 53.6447 23.2045 -0.122392 2.35307 23.2045 -0.122392
336 2 54.9368 21.1669 -2.26068 3.64516 21.1669 -2.26068
337 1 54.2594 20.7862 0.188906 2.96781 20.7862 0.188906
338 2 55.3457 21.9377 2.22682 4.05405 21.9377 2.22682
339 2 56.6772 20.0731 -0.0375059 5.38561 20.0731 -0.0375059
340 1 57.7006 22.5677 0.776129 6.40897 22.5677 0.776129
341 2 58.8541 23.621 2.83314 7.56249 23.621 2.83314
342 2 60.1188 21.8833 0.44119 8.82715 21.8833 0.44119
343 1 59.6958 21.2275 2.92535 8.40413 21.2275 2.92535
344 2 9.98032 21.6755 4.95479 9.98032 21.6755 4.95479
345 2 10.755 20.7433 2.00954 10.755 20.7433 2.00954
346 1 11.9758 22.8732 3.33485 11.9758 22.8732 3.33485
347 2 13.6729 23.1396 5.30128 13.6729 23.1396 5.30128
348 2 14.2836 22.4761 2.25365 14.2836 22.4761 2.25365
349 1 14.475 20.9276 4.30746 14.475 20.9276 4.30746
350 2 16.6098 20.5061 5.7405 16.6098 20.5061 5.7405
351 2 16.4814 21.0246 2.61763 16.4814 21.0246 2.61763
352 1 18.1223 22.4567 4.31456 18.1223 22.4567 4.31456
353 2 20.3349 21.9033 5.56176 20.3349 21.9033 5.56176
354 2 20.0196 22.6951 2.50608 20.0196 22.6951 2.50608
355 1 20.5854 20.4106 3.48818 20.5854 20.4106 3.48818
356 2 22.9603 19.5574 3.98169 22.9603 19.5574 3.98169
357 2 22.0147 21.233 1.42288 22.0147 21.233 1.42288
358 1 24.1337 22.0098 3.07555 24.1337 22.0098 3.07555
359 2 26.5197 21.1342 3.41848 26.5197 21.1342 3.41848
360 2 25.459 22.9541 0.997494 25.459 22.9541 0.997494
361 1 26.0448 20.4985 0.981809 26.0448 20.4985 0.981809
362 2 28.4489 19.6953 1.05908 28.4489 19.6953 1.05908
363 2 27.0917 21.7206 -1.05539 27.0917 21.7206 -1.05539
364 1 29.4669 22.2416 0.385776 29.4669 22.2416 0.385776
365 2 31.8751 21.4741 0.505807 31.8751 21.4741 0.505807
366 2 30.5114 23.4562 -1.64399 30.5114 23.4562 -1.64399
367 1 31.2446 21.0623 -1.97565 31.2446 21.0623 -1.97565
368 2 33.6521 20.43 -1.43614 33.6521 20.43 -1.43614
369 2 32.5396 21.8975 -4.05982 32.5396 21.8975 -4.05982
370 1 34.7429 22.7784 -2.51055 34.7429 22.7784 -2.51055
371 2 37.1342 22.1959 -1.82436 37.1342 22.1959 -1.82436
372 2 36.1452 23.463 -4.58883 36.1452 23.463 -4.58883
373 1 37.0152 21.1063 -4.17473 37.0152 21.1063 -4.17473
374 2 39.2347 20.8749 -2.84818 39.2347 20.8749 -2.84818
375 2 38.8901 21.0896 -5.99336 38.8901 21.0896 -5.99336
376 1 40.6425 22.6719 -4.41743 40.6425 22.6719 -4.41743
377 2 42.7891 22.5678 -2.93989 42.7891 22.5678 -2.93989
378 2 42.6282 22.4837 -6.10273 42.6282 22.4837 -6.10273
379 1 44.2844 24.2201 -4.57715 -7.00721 24.2201 -4.57715
380 2 46.3436 24.253 -2.95965 -4.94805 24.253 -2.95965
381 2 46.3703 23.8732 -6.10412 -4.9213 23.8732 -6.10412
382 1 47.9317 25.7575 -4.64711 -3.3599 25.7575 -4.64711
383 2 49.8932 25.9374 -2.90681 -1.39843 25.9374 -2.90681
384 2 50.1024 25.2673 -5.9978 -1.18928 25.2673 -5.9978
385 1 50.44 23.6947 -3.99882 -0.851685 23.6947 -3.99882
386 2 51.9354 24.4666 -1.95791 0.643802 24.4666 -1.95791
387 2 52.8057 22.8593 -4.58105 1.51405 22.8593 -4.58105
388 1 54.0087 25.2901 -3.64133 2.7171 25.2901 -3.64133
389 2 55.3929 26.1927 -1.57886 4.1013 26.1927 -1.57886
390 2 56.3906 24.4233 -4.05762 5.09898 24.4233 -4.05762
391 1 55.9837 23.7349 -1.62166 4.69211 23.7349 -1.62166
392 2 57.0445 24.9697 0.411166 5.75286 24.9697 0.411166
393 2 58.3878 22.9173 -1.68487 7.09619 22.9173 -1.68487
394 1 59.4142 25.4817 -1.04965 8.12254 25.4817 -1.04965
395 2 60.4518 26.7271 0.972798 9.16016 26.7271 0.972798
396 2 61.8229 24.7024 -1.13263 10.5313 24.7024 -1.13263
397 1 61.1615 24.3356 1.34416 9.86986 24.3356 1.34416
398 2 11.1111 25.262 3.41868 11.1111 25.262 3.41868
399 2 12.2836 23.684 0.882526 12.2836 23.684 0.882526
400 1 13.353 26.0778 1.8864 13.353 26.0778 1.8864
401 2 14.6958 26.8577 3.96654 14.6958 26.8577 3.96654
402 2 15.7545 25.4669 1.28439 15.7545 25.4669 1.28439
403 1 15.5706 24.4851 3.68105 15.5706 24.4851 3.68105
404 2 17.388 24.5688 5.55589 17.388 24.5688 5.55589
405 2 17.8234 24.1907 2.43646 17.8234 24.1907 2.43646
406 1 19.1868 26.0659 3.95414 19.1868 26.0659 3.95414
407 2 21.119 25.9671 5.70813 21.119 25.9671 5.70813
408 2 21.371 25.8886 2.55009 21.371 25.8886 2.55009
409 1 21.7605 23.9817 4.22428 21.7605 23.9817 4.22428
410 2 24.032 23.3182 5.28239 24.032 23.3182 5.28239
411 2 23.5455 24.3687 2.32167 23.5455 24.3687 2.32167
412 1 25.3836 25.5115 4.04853 25.3836 25.5115 4.04853
413 2 27.7008 24.7631 4.91721 27.7008 24.7631 4.91721
414 2 27.0535 26.0469 2.07396 27.0535 26.0469 2.07396
415 1 27.6533 23.6373 2.6104 27.6533 23.6373 2.6104
416 2 30.0467 22.759 2.82772 30.0467 22.759 2.82772
417 2 28.8826 24.6875 0.532444 28.8826 24.6875 0.532444
418 1 31.141 25.2965 2.10084 31.141 25.2965 2.10084
419 2 33.5386 24.4328 2.23181 33.5386 24.4328 2.23181
420 2 32.2907 26.4321 0.0350586 32.2907 26.4321 0.0350586
421 1 32.8899 24.0021 -0.213263 32.8899 24.0021 -0.213263
422 2 35.3028 23.2687 -0.018945 35.3028 23.2687 -0.018945
423 2 33.9612 25.1722 -2.24812 33.9612 25.1722 -2.24812
424 1 36.3237 25.7699 -0.806687 36.3237 25.7699 -0.806687
425 2 38.7398 25.0685 -0.516435 38.7398 25.0685 -0.516435
426 2 37.4467 26.859 -2.85846 37.4467 26.859 -2.85846
427 1 38.2694 24.4641 -3.00448 38.2694 24.4641 -3.00448
428 2 40.6352 23.9447 -2.16439 40.6352 23.9447 -2.16439
429 2 39.7849 24.9853 -5.05776 39.7849 24.9853 -5.05776
430 1 41.8236 26.119 -3.45065 41.8236 26.119 -3.45065
431 2 44.1543 25.681 -2.45183 44.1543 25.681 -2.45183
432 2 43.4565 26.4687 -5.45535 43.4565 26.4687 -5.45535
433 1 45.4038 27.7461 -3.84044 -5.88785 27.7461 -3.84044
434 2 47.6882 27.4053 -2.68153 -3.60341 27.4053 -2.68153
435 2 47.1554 27.9169 -5.77034 -4.13624 27.9169 -5.77034
436 1 49.007 29.3456 -4.16652 -2.2846 29.3456 -4.16652
437 2 51.2324 29.1144 -2.85018 -0.0592085 29.1144 -2.85018
438 2 50.8762 29.3395 -5.99257 -0.415483 29.3395 -5.99257
439 1 51.5767 27.2914 -4.62928 0.28511 27.2914 -4.62928
440 2 53.4309 27.6197 -2.78435 2.13931 27.6197 -2.78435
441 2 53.8178 26.6802 -5.79116 2.52621 26.6802 -5.79116
442 1 55.2146 28.83 -4.52131 3.92292 28.83 -4.52131
443 2 56.954 29.3063 -2.59097 5.66237 29.3063 -2.59097
444 2 57.5113 28.123 -5.48963 6.21964 28.123 -5.48963
445 1 57.5498 26.9157 -3.22351 6.25821 26.9157 -3.22351
446 2 58.8286 27.9327 -1.15195 7.53693 27.9327 -1.15195
447 2 59.9425 26.039 -3.49487 8.65082 26.039 -3.49487
448 1 61.0593 28.5748 -2.74917 9.76771 28.5748 -2.74917
449 2 62.2429 29.6877 -0.680282 10.9513 29.6877 -0.680282
450 2 12.1674 27.7076 -2.90745 12.1674 27.7076 -2.90745
451 1 62.8359 27.2518 -0.461953 11.5442 27.2518 -0.461953
452 2 12.5923 28.4678 1.56165 12.5923 28.4678 1.56165
453 2 13.9569 26.5059 -0.604326 13.9569 26.5059 -0.604326
454 1 14.9697 29.0305 0.129517 14.9697 29.0305 0.129517
455 2 16.0552 30.1791 2.16849 16.0552 30.1791 2.16849
456 2 17.3868 28.3177 -0.0987349 17.3868 28.3177 -0.0987349
457 1 16.8625 27.7874 2.39558 16.8625 27.7874 2.39558
458 2 18.3164 28.4054 4.4634 18.3164 28.4054 4.4634
459 2 19.2441 27.233 1.64159 19.2441 27.233 1.64159
460 1 20.4012 29.4636 2.86424 20.4012 29.4636 2.86424
461 2 21.9733 29.9059 4.89622 21.9733 29.9059 4.89622
462 2 22.7523 28.9796 1.94943 22.7523 28.9796 1.94943
463 1 22.819 27.6189 4.14663 22.819 27.6189 4.14663
464 2 24.8545 27.3493 5.7548 24.8545 27.3493 5.7548
465 2 24.9202 27.5685 2.59449 24.9202 27.5685 2.59449
466 1 26.4583 29.1507 4.25308 26.4583 29.1507 4.25308
467 2 28.5831 28.7274 5.69677 28.5831 28.7274 5.69677
468 2 28.468 29.2415 2.571 28.468 29.2415 2.571
469 1 28.9858 27.0567 3.79262 28.9858 27.0567 3.79262
470 2 31.3346 26.2447 4.47755 31.3346 26.2447 4.47755
471 2 30.5406 27.7374 1.7676 30.5406 27.7374 1.7676
472 1 32.5638 28.6243 3.46596 32.5638 28.6243 3.46596
473 2 34.9331 27.7682 3.97863 34.9331 27.7682 3.97863
474 2 34.0079 29.4429 1.41114 34.0079 29.4429 1.41114
475 1 34.6002 26.9871 1.55923 34.6002 26.9871 1.55923
476 2 37 26.1478 1.64692 37 26.1478 1.64692
477 2 35.6928 28.1832 -0.48716 35.6928 28.1832 -0.48716
478 1 38.0398 28.7047 0.997172 38.0398 28.7047 0.997172
479 2 40.4432 27.8994 1.07948 40.4432 27.8994 1.07948
480 2 39.0956 29.9329 -1.03337 39.0956 29.9329 -1.03337
481 1 39.7733 27.5332 -1.38831 39.7733 27.5332 -1.38831
482 2 42.1878 26.8622 -0.983887 42.1878 26.8622 -0.983887
483 2 40.9721 28.5119 -3.4586 40.9721 28.5119 -3.4586
484 1 43.2445 29.2802 -1.94788 43.2445 29.2802 -1.94788
485 2 45.6525 28.6484 -1.41579 45.6525 28.6484 -1.41579
486 2 44.5335 30.1281 -4.03045 44.5335 30.1281 -4.03045
487 1 46.7395 31.0043 -2.48139 -4.55213 31.0043 -2.48139
488 2 49.1324 30.419 -1.80838 -2.1592 30.419 -1.80838
489 2 48.1328 31.7044 -4.56084 -3.15888 31.7044 -4.56084
490 1 50.2634 32.6979 -2.97867 -1.02821 32.6979 -2.97867
491 2 52.6346 32.1789 -2.15545 1.34298 32.1789 -2.15545
492 2 51.7665 33.2358 -5.03735 0.474835 33.2358 -5.03735
493 1 52.6323 30.9199 -4.41745 1.34061 30.9199 -4.41745
494 2 54.7869 30.8136 -2.95235 3.49527 30.8136 -2.95235
495 2 54.6103 30.7429 -6.11395 3.3187 30.7429 -6.11395
496 1 56.2729 32.4761 -4.58937 4.98123 32.4761 -4.58937
497 2 58.3426 32.5067 -2.98469 7.051 32.5067 -2.98469
498 2 58.3514 32.1379 -6.12927 7.0598 32.1379 -6.12927
499 1 58.8367 30.382 -4.3245 7.54505 30.382 -4.3245
500 2 60.4541 31.0035 -2.32704 9.16243 31.0035 -2.32704
501 2 61.1751 29.6033 -5.09907 9.88345 29.6033 -5.09907
502 1 62.4335 31.9541 -4.04059 11.1418 31.9541 -4.04059
503 2 63.9328 32.7174 -1.99987 12.6412 32.7174 -1.99987
504 2 64.7979 31.1214 -4.63145 13.5063 31.1214 -4.63145
505 1 13.2418 30.2666 -2.22667 13.2418 30.2666 -2.22667
506 2 14.3534 31.4492 -0.172756 14.3534 31.4492 -0.172756
507 2 15.6435 29.4194 -2.31963 15.6435 29.4194 -2.31963
508 1 16.6888 31.9847 -1.67332 16.6888 31.9847 -1.67332
509 2 17.7492 33.2117 0.364504 17.7492 33.2117 0.364504
510 2 19.0935 31.1689 -1.74051 19.0935 31.1689 -1.74051
511 1 18.4073 30.8093 0.718832 18.4073 30.8093 0.718832
512 2 19.5594 31.8568 2.77892 19.5594 31.8568 2.77892
513 2 20.8253 30.1255 0.382514 20.8253 30.1255 0.382514
514 1 21.865 32.5731 1.29333 21.865 32.5731 1.29333
515 2 23.1041 33.4923 3.37169 23.1041 33.4923 3.37169
516 2 24.2789 31.9217 0.831708 24.2789 31.9217 0.831708
517 1 23.9674 31.1035 3.28082 23.9674 31.1035 3.28082
518 2 25.6586 31.3614 5.25115 25.6586 31.3614 5.25115
519 2 26.2754 30.7038 2.20214 26.2754 30.7038 2.20214
520 1 27.5573 32.7068 3.63708 27.5573 32.7068 3.63708
521 2 29.367 32.7838 5.51781 29.367 32.7838 5.51781
522 2 29.8106 32.407 2.39749 29.8106 32.407 2.39749
523 1 30.1 30.6724 4.27572 30.1 30.6724 4.27572
524 2 32.3022 30.1158 5.53804 32.3022 30.1158 5.53804
525 2 32.0082 30.9105 2.48015 32.0082 30.9105 2.48015
526 1 33.7388 32.1917 4.21078 33.7388 32.1917 4.21078
527 2 36.0023 31.5249 5.28469 36.0023 31.5249 5.28469
528 2 35.5382 32.5789 2.32215 35.5382 32.5789 2.32215
529 1 36.117 30.2178 3.07834 36.117 30.2178 3.07834
530 2 38.4998 29.3394 3.43694 38.4998 29.3394 3.43694
531 2 37.457 31.1617 1.01022 37.457 31.1617 1.01022
532 1 39.6451 31.8435 2.63674 39.6451 31.8435 2.63674
533 2 42.0375 30.9631 2.86334 42.0375 30.9631 2.86334
534 2 40.8865 32.8966 0.566295 40.8865 32.8966 0.566295
535 1 41.4679 30.4496 0.418094 41.4679 30.4496 0.418094
536 2 43.8764 29.6815 0.535423 43.8764 29.6815 0.535423
537 2 42.5142 31.6733 -1.60644 42.5142 31.6733 -1.60644
538 1 44.8939 32.2148 -0.171669 44.8939 32.2148 -0.171669
539 2 47.3078 31.4819 0.0115029 47.3078 31.4819 0.0115029
540 2 45.9589 33.3968 -2.20347 45.9589 33.3968 -2.20347
541 1 48.3273 33.9898 -0.765126 -2.96433 33.9898 -0.765126