ITEM: TIMESTEP
5080000
ITEM: NUMBER OF ATOMS
810
ITEM: BOX BOUNDS xy xz yz pp pp pp
8.6298438867990135e-01 7.7243888468323831e+01 2.5089267857004661e+01
8.1394622342039402e-01 5.0202268776579182e+01 0.0000000000000000e+00
-1.0000000000000000e+01 1.0000000000000000e+01 0.0000000000000000e+00
ITEM: ATOMS id type x y z xu yu zu
1 1 52.288 49.5901 4.4576 -24.0929 0.201732 4.4576
2 2 54.1649 49.4912 6.16287 -22.216 0.102912 6.16287
3 2 54.5384 49.5059 3.3138 -21.8425 0.117627 3.3138
4 1 34.8778 4.87852 4.1155 -16.4138 4.87852 4.1155
5 2 36.5761 4.52121 5.98331 -14.7155 4.52121 5.98331
6 2 36.956 4.52454 2.83925 -14.3357 4.52454 2.83925
7 1 37.2135 2.6338 4.4454 -14.0782 2.6338 4.4454
8 2 39.2719 1.63261 5.51953 -12.0197 1.63261 5.51953
9 2 38.9162 2.85221 2.60934 -12.3754 2.85221 2.60934
10 1 40.4711 3.49556 4.42125 -10.8205 3.49556 4.42125
11 2 42.5579 2.30017 5.13605 -8.73372 2.30017 5.13605
12 2 41.9494 3.86151 2.37722 -9.3422 3.86151 2.37722
13 1 42.5013 1.47957 2.74992 -8.79029 1.47957 2.74992
14 2 69.7612 49.6646 2.67978 -6.61972 0.276301 2.67978
15 2 43.4591 2.47736 0.601906 -7.83258 2.47736 0.601906
16 1 45.5378 2.56796 2.02277 -5.75382 2.56796 2.02277
17 2 47.725 1.43745 1.7153 -3.56661 1.43745 1.7153
18 2 46.3364 3.76861 -0.0864069 -4.95527 3.76861 -0.0864069
19 1 46.9268 1.45718 -0.679026 -4.36479 1.45718 -0.679026
20 2 74.2627 49.8533 -0.739708 -2.11817 0.464975 -0.739708
21 2 47.7287 2.49995 -2.82269 -3.56294 2.49995 -2.82269
22 1 49.9191 2.74547 -1.5456 -1.37257 2.74547 -1.5456
23 2 52.187 1.77581 -1.37462 0.895405 1.77581 -1.37462
24 2 50.8856 3.58647 -3.72231 -0.406025 3.58647 -3.72231
25 1 51.7401 1.20924 -3.86201 0.448499 1.20924 -3.86201
26 2 27.7545 49.8692 -2.92421 2.66524 0.480869 -2.92421
27 2 1.93056 1.26707 -5.93898 1.93056 1.26707 -5.93898
28 1 3.69245 2.32584 -4.36736 3.69245 2.32584 -4.36736
29 2 5.87188 1.8052 -3.20453 5.87188 1.8052 -3.20453
30 2 5.33093 2.19897 -6.32638 5.33093 2.19897 -6.32638
31 1 31.2435 49.494 -5.09258 6.1542 0.105727 -5.09258
32 2 33.0878 49.6617 -3.2874 7.99856 0.273425 -3.2874
33 2 33.3548 48.7293 -6.32637 8.26554 -0.658982 -6.32637
34 1 9.49123 1.30611 -5.11411 9.49123 1.30611 -5.11411
35 2 11.2063 1.66947 -3.22 11.2063 1.66947 -3.22
36 2 36.7679 49.8983 -6.16846 11.6786 0.510018 -6.16846
37 1 37.027 48.78 -3.90896 11.9378 -0.608351 -3.90896
38 2 38.2625 49.8404 -1.86582 13.1732 0.452063 -1.86582
39 2 39.3799 47.8435 -4.15459 14.2906 -1.5448 -4.15459
40 1 40.2222 50.1633 -3.45387 15.1329 0.774982 -3.45387
41 2 16.1764 1.9506 -1.3886 16.1764 1.9506 -1.3886
42 2 42.5647 49.2223 -3.48599 17.4754 -0.165988 -3.48599
43 1 42.1191 49.0742 -1.03271 17.0298 -0.314078 -1.03271
44 2 17.809 1.12804 0.916121 17.809 1.12804 0.916121
45 2 44.4576 48.244 -0.828808 19.3683 -1.14435 -0.828808
46 1 19.9839 1.23977 -0.356324 19.9839 1.23977 -0.356324
47 2 20.6506 2.57683 1.68573 20.6506 2.57683 1.68573
48 2 47.4552 49.9453 -0.255819 22.3659 0.556987 -0.255819
49 1 46.8724 49.8287 2.23956 21.7831 0.440413 2.23956
50 2 22.9457 1.20424 4.36591 22.9457 1.20424 4.36591
51 2 49.2069 49.0845 1.71405 24.1176 -0.303815 1.71405
52 1 24.7843 1.84167 2.78681 24.7843 1.84167 2.78681
53 2 26.4182 2.5758 4.57333 26.4182 2.5758 4.57333
54 2 27.1221 1.23308 2.14529 27.1221 1.23308 2.14529
55 1 32.8121 6.74972 2.43558 -18.4796 6.74972 2.43558
56 2 34.0631 7.19792 4.61194 -17.2285 7.19792 4.61194
57 2 35.0477 5.99892 1.83176 -16.244 5.99892 1.83176
58 1 35.9179 7.91861 3.15738 -15.3738 7.91861 3.15738
59 2 37.1369 8.04421 5.36573 -14.1547 8.04421 5.36573
60 2 38.1679 7.20126 2.42435 -13.1238 7.20126 2.42435
61 1 38.1001 5.8661 4.58038 -13.1915 5.8661 4.58038
62 2 39.862 5.13659 6.24055 -11.4296 5.13659 6.24055
63 2 40.0886 5.56451 3.06963 -11.203 5.56451 3.06963
64 1 41.3407 6.70848 4.89973 -9.95092 6.70848 4.89973
65 2 43.3316 5.79515 6.18741 -7.96006 5.79515 6.18741
66 2 43.1203 6.56526 3.08632 -8.17138 6.56526 3.08632
67 1 43.6761 4.34569 4.12567 -7.61553 4.34569 4.12567
68 2 45.8631 3.15289 4.46243 -5.42852 3.15289 4.46243
69 2 44.9102 4.96701 1.96446 -6.38146 4.96701 1.96446
70 1 46.8228 5.32988 3.55747 -4.46885 5.32988 3.55747
71 2 49.0232 4.13523 3.64798 -2.26844 4.13523 3.64798
72 2 47.9195 6.18579 1.39525 -3.37212 6.18579 1.39525
73 1 48.5168 3.79113 1.19456 -2.77484 3.79113 1.19456
74 2 50.7204 2.72344 0.883573 -0.571251 2.72344 0.883573
75 2 49.2687 5.04774 -0.872304 -2.02294 5.04774 -0.872304
76 1 51.4806 5.09208 0.3768 0.188974 5.09208 0.3768
77 2 53.7171 4.09715 0.169238 2.42547 4.09715 0.169238
78 2 52.2348 6.32351 -1.68515 0.943147 6.32351 -1.68515
79 1 52.9759 4.01073 -2.30416 1.68423 4.01073 -2.30416
80 2 3.9709 3.13296 -1.92348 3.9709 3.13296 -1.92348
81 2 54.0703 4.69225 -4.48646 2.77868 4.69225 -4.48646
82 1 4.77459 5.30336 -2.99335 4.77459 5.30336 -2.99335
83 2 7.06396 4.52525 -2.41735 7.06396 4.52525 -2.41735
84 2 5.99201 5.82619 -5.1621 5.99201 5.82619 -5.1621
85 1 6.94977 3.50471 -4.7835 6.94977 3.50471 -4.7835
86 2 9.06229 3.15482 -3.43219 9.06229 3.15482 -3.43219
87 2 8.72318 3.22925 -6.60567 8.72318 3.22925 -6.60567
88 1 10.2103 4.69622 -5.09793 10.2103 4.69622 -5.09793
89 2 12.2146 4.49687 -3.55493 12.2146 4.49687 -3.55493
90 2 12.1166 4.26979 -6.74248 12.1166 4.26979 -6.74248
91 1 12.7869 2.53543 -5.01691 12.7869 2.53543 -5.01691
92 2 14.3366 3.08012 -3.01237 14.3366 3.08012 -3.01237
93 2 15.0395 1.6599 -5.81307 15.0395 1.6599 -5.81307
94 1 16.0007 3.77214 -4.75479 16.0007 3.77214 -4.75479
95 2 17.3732 4.50801 -2.69029 17.3732 4.50801 -2.69029
96 2 18.2596 2.7944 -5.31801 18.2596 2.7944 -5.31801
97 1 18.1943 2.18614 -2.87562 18.1943 2.18614 -2.87562
98 2 19.0807 3.46461 -0.810513 19.0807 3.46461 -0.810513
99 2 20.5337 1.29382 -2.8021 20.5337 1.29382 -2.8021
100 1 21.0975 3.66988 -2.26436 21.0975 3.66988 -2.26436
101 2 22.4544 5.10068 -0.740377 22.4544 5.10068 -0.740377
102 2 23.3754 2.73516 -2.01618 23.3754 2.73516 -2.01618
103 1 22.7728 2.92664 0.405094 22.7728 2.92664 0.405094
104 2 24.2902 4.14694 1.98819 24.2902 4.14694 1.98819
105 2 25.0843 2.02498 0.283327 25.0843 2.02498 0.283327
106 1 31.1992 8.11977 0.0222341 31.1992 8.11977 0.0222341
107 2 32.1674 9.12846 2.13148 32.1674 9.12846 2.13148
108 2 33.4187 7.1449 -0.0359783 33.4187 7.1449 -0.0359783
109 1 34.2316 9.33458 0.795801 -17.0601 9.33458 0.795801
110 2 35.0039 10.2251 3.00597 -16.2878 10.2251 3.00597
111 2 36.5011 8.43408 0.723554 -14.7905 8.43408 0.723554
112 1 37.1461 10.6471 1.73667 -14.1456 10.6471 1.73667
113 2 38.0882 11.3465 3.96954 -13.2035 11.3465 3.96954
114 2 39.4176 9.71597 1.50384 -11.8741 9.71597 1.50384
115 1 39.006 9.00587 3.94795 -12.2857 9.00587 3.94795
116 2 40.5047 8.84291 5.99484 -10.7869 8.84291 5.99484
117 2 41.1692 8.29556 2.90598 -10.1225 8.29556 2.90598
118 1 42.2073 9.94635 4.46623 -9.08433 9.94635 4.46623
119 2 43.9149 9.50891 6.2994 -7.37677 9.50891 6.2994
120 2 44.2545 9.36835 3.11809 -7.03714 9.36835 3.11809
121 1 44.6073 7.53887 4.84325 -6.68437 7.53887 4.84325
122 2 46.6987 6.49261 5.81479 -4.5929 6.49261 5.81479
123 2 46.2166 7.6538 2.86001 -5.075 7.6538 2.86001
124 1 47.8475 8.41803 4.60534 -3.44411 8.41803 4.60534
125 2 49.989 7.28285 5.30184 -1.30266 7.28285 5.30184
126 2 49.3168 8.79467 2.5405 -1.97483 8.79467 2.5405
127 1 49.9259 6.40575 2.91549 -1.36575 6.40575 2.91549
128 2 52.1276 5.23372 2.81677 0.836001 5.23372 2.81677
129 2 50.9115 7.4598 0.789368 -0.380088 7.4598 0.789368
130 1 52.9825 7.56744 2.24543 1.69082 7.56744 2.24543
131 2 3.89446 6.44413 2.00184 3.89446 6.44413 2.00184
132 2 53.8557 8.78144 0.171049 2.56403 8.78144 0.171049
133 1 54.4395 6.45886 -0.418484 3.14788 6.45886 -0.418484
134 2 5.41829 5.53053 -0.491465 5.41829 5.53053 -0.491465
135 2 55.2341 7.62292 -2.50015 3.94248 7.62292 -2.50015
136 1 6.11083 7.86671 -1.1905 6.11083 7.86671 -1.1905
137 2 8.40222 6.98147 -1.11444 8.40222 6.98147 -1.11444
138 2 6.98395 8.92765 -3.29868 6.98395 8.92765 -3.29868
139 1 7.8881 6.60562 -3.62558 7.8881 6.60562 -3.62558
140 2 10.1433 5.90144 -2.83528 10.1433 5.90144 -2.83528
141 2 9.25696 6.95315 -5.74208 9.25696 6.95315 -5.74208
142 1 11.0317 7.8603 -4.15475 11.0317 7.8603 -4.15475
143 2 13.2437 7.25394 -3.13901 13.2437 7.25394 -3.13901
144 2 12.5209 8.00108 -6.21534 12.5209 8.00108 -6.21534
145 1 13.459 5.86163 -5.26606 13.459 5.86163 -5.26606
146 2 15.4332 5.95884 -3.63898 15.4332 5.95884 -3.63898
147 2 15.3928 5.1766 -6.76967 15.3928 5.1766 -6.76967
148 1 16.6497 6.97848 -5.52697 16.6497 6.97848 -5.52697
149 2 18.9344 7.48782 -4.50645 18.9344 7.48782 -4.50645
150 2 18.5592 5.86445 -6.72878 18.5592 5.86445 -6.72878
151 1 19.0746 4.993 -4.4334 19.0746 4.993 -4.4334
152 2 19.9532 5.87251 -2.25977 19.9532 5.87251 -2.25977
153 2 21.5348 4.66231 -4.49139 21.5348 4.66231 -4.49139
154 1 27.9573 11.2741 -4.36763 27.9573 11.2741 -4.36763
155 2 29.3812 11.8505 -2.34288 29.3812 11.8505 -2.34288
156 2 30.0987 10.0825 -4.89533 30.0987 10.0825 -4.89533
157 1 29.7626 9.4461 -2.47717 29.7626 9.4461 -2.47717
158 2 30.8371 10.4951 -0.418049 30.8371 10.4951 -0.418049
159 2 31.9135 8.25058 -2.41393 31.9135 8.25058 -2.41393
160 1 32.8591 10.474 -1.85031 32.8591 10.474 -1.85031
161 2 33.5997 11.6443 0.269244 33.5997 11.6443 0.269244
162 2 35.0416 9.37561 -1.59636 35.0416 9.37561 -1.59636
163 1 35.7756 11.7092 -0.993122 -15.516 11.7092 -0.993122
164 2 36.4115 12.9322 1.11095 -14.8801 12.9322 1.11095
165 2 37.986 10.7031 -0.682222 -13.3057 10.7031 -0.682222
166 1 38.6462 13.0442 -0.0502457 -12.6454 13.0442 -0.0502457
167 2 39.3719 14.1711 2.06722 -11.9197 14.1711 2.06722
168 2 40.8672 12.0323 0.113116 -10.4244 12.0323 0.113116
169 1 40.1538 11.8518 2.59261 -11.1379 11.8518 2.59261
170 2 41.3136 12.2896 4.79919 -9.97809 12.2896 4.79919
171 2 42.3903 10.9127 2.08459 -8.90134 10.9127 2.08459
172 1 43.2498 12.9349 3.29521 -8.04183 12.9349 3.29521
173 2 44.5687 13.1046 5.45058 -6.72296 13.1046 5.45058
174 2 45.4564 12.0883 2.52639 -5.83521 12.0883 2.52639
175 1 45.4492 10.8285 4.76111 -5.84239 10.8285 4.76111
176 2 47.2863 10.1582 6.37871 -4.00533 10.1582 6.37871
177 2 47.3964 10.4626 3.19321 -3.89526 10.4626 3.19321
178 1 48.6944 11.7071 4.93462 -2.59721 11.7071 4.93462
179 2 50.6447 10.8455 6.30231 -0.646929 10.8455 6.30231
180 2 50.5228 11.5634 3.18366 -0.768884 11.5634 3.18366
181 1 51.051 9.35763 4.27164 -0.240643 9.35763 4.27164
182 2 53.2319 8.18567 4.69881 1.94027 8.18567 4.69881
183 2 52.3631 9.97607 2.15829 1.07145 9.97607 2.15829
184 1 54.2026 10.3723 3.83111 2.91093 10.3723 3.83111
185 2 56.4225 9.23272 4.00667 5.13086 9.23272 4.00667
186 2 55.3098 11.1836 1.67438 4.01821 11.1836 1.67438
187 1 55.9853 8.8114 1.544 4.69367 8.8114 1.544
188 2 6.93683 7.83067 1.21823 6.93683 7.83067 1.21823
189 2 56.7016 10.1329 -0.512293 5.40994 10.1329 -0.512293
190 1 7.59655 10.2234 0.745895 7.59655 10.2234 0.745895
191 2 9.87548 9.33261 0.518632 9.87548 9.33261 0.518632
192 2 8.24576 11.5252 -1.31722 8.24576 11.5252 -1.31722
193 1 9.08803 9.27086 -1.92447 9.08803 9.27086 -1.92447
194 2 11.3965 8.42751 -1.65648 11.3965 8.42751 -1.65648
195 2 10.0516 10.1714 -4.07493 10.0516 10.1714 -4.07493
196 1 12.0655 10.6251 -2.64153 12.0655 10.6251 -2.64153
197 2 14.3879 9.83037 -2.24257 14.3879 9.83037 -2.24257
198 2 13.62 11.4602 -4.42842 13.62 11.4602 -4.42842
199 1 14.1711 9.03293 -4.62265 14.1711 9.03293 -4.62265
200 2 16.5025 8.70796 -3.70926 16.5025 8.70796 -3.70926
201 2 15.8922 9.17301 -6.46469 15.8922 9.17301 -6.46469
202 1 23.438 15.6501 -4.04719 23.438 15.6501 -4.04719
203 2 25.5911 15.094 -3.02248 25.5911 15.094 -3.02248
204 2 24.9716 15.6468 -6.08305 24.9716 15.6468 -6.08305
205 1 25.7091 13.5147 -4.97361 25.7091 13.5147 -4.97361
206 2 27.5747 13.4703 -3.32003 27.5747 13.4703 -3.32003
207 2 27.6526 12.731 -6.40026 27.6526 12.731 -6.40026
208 1 28.9543 14.4123 -5.14032 28.9543 14.4123 -5.14032
209 2 30.6548 14.4599 -3.26228 30.6548 14.4599 -3.26228
210 2 30.9317 13.3498 -6.26945 30.9317 13.3498 -6.26945
211 1 31.1532 12.1548 -4.04975 31.1532 12.1548 -4.04975
212 2 32.3147 12.8803 -1.90538 32.3147 12.8803 -1.90538
213 2 33.2926 10.9077 -4.29287 33.2926 10.9077 -4.29287
214 1 34.2476 13.1179 -3.4935 34.2476 13.1179 -3.4935
215 2 35.1884 14.0785 -1.31456 35.1884 14.0785 -1.31456
216 2 36.4328 11.9263 -3.41203 36.4328 11.9263 -3.41203
217 1 37.2629 14.2237 -2.73102 -14.0287 14.2237 -2.73102
218 2 38.0877 15.3731 -0.600096 -13.2039 15.3731 -0.600096
219 2 39.4325 13.0502 -2.44654 -11.8592 13.0502 -2.44654
220 1 40.2363 15.3922 -1.91907 -11.0554 15.3922 -1.91907
221 2 40.9797 16.6362 0.164955 -10.312 16.6362 0.164955
222 2 42.4058 14.2698 -1.56754 -8.88586 14.2698 -1.56754
223 1 41.5717 14.3357 0.833795 -9.71993 14.3357 0.833795
224 2 42.4175 15.2862 2.99789 -8.87411 15.2862 2.99789
225 2 43.81 13.3312 0.801019 -7.48168 13.3312 0.801019
226 1 44.547 15.577 1.66286 -6.74465 15.577 1.66286
227 2 45.5064 16.3288 3.86632 -5.78525 16.3288 3.86632
228 2 46.8002 14.61 1.43846 -4.49142 14.61 1.43846
229 1 46.3852 13.9675 3.9049 -4.90639 13.9675 3.9049
230 2 47.8546 13.875 5.96667 -3.43703 13.875 5.96667
231 2 48.5447 13.2374 2.89536 -2.74692 13.2374 2.89536
232 1 49.551 14.952 4.4207 -1.74062 14.952 4.4207
233 2 51.1795 14.6157 6.33204 -0.112088 14.6157 6.33204
234 2 51.632 14.3584 3.16899 0.34041 14.3584 3.16899
235 1 51.9317 12.5913 4.97742 0.640113 12.5913 4.97742
236 2 53.9878 11.5919 6.05667 2.69615 11.5919 6.05667
237 2 53.6072 12.6847 3.06558 2.31552 12.6847 3.06558
238 1 55.1387 13.5062 4.85333 3.84704 13.5062 4.85333
239 2 57.3737 12.5705 5.53125 6.08204 12.5705 5.53125
240 2 56.4259 13.7523 2.65489 5.13431 13.7523 2.65489
241 1 57.2706 11.4921 3.23452 5.97901 11.4921 3.23452
242 2 8.22184 10.3873 3.18059 8.22184 10.3873 3.18059
243 2 6.95039 12.5765 1.1077 6.95039 12.5765 1.1077
244 1 8.95726 12.7197 2.58399 8.95726 12.7197 2.58399
245 2 11.3527 12.4055 2.09372 11.3527 12.4055 2.09372
246 2 9.44097 13.885 0.414139 9.44097 13.885 0.414139
247 1 10.4079 11.686 -0.0865089 10.4079 11.686 -0.0865089
248 2 12.6306 10.6613 -0.179505 12.6306 10.6613 -0.179505
249 2 11.7718 12.9211 -1.73763 11.7718 12.9211 -1.73763
250 1 20.072 18.4017 0.584928 20.072 18.4017 0.584928
251 2 22.2581 17.3592 0.488469 22.2581 17.3592 0.488469
252 2 21.0248 19.6001 -1.42395 21.0248 19.6001 -1.42395
253 1 21.5484 17.2543 -1.97961 21.5484 17.2543 -1.97961
254 2 23.7867 16.3954 -1.61874 23.7867 16.3954 -1.61874
255 2 22.6728 18.0289 -4.12064 22.6728 18.0289 -4.12064
256 1 24.6143 18.4897 -2.67256 24.6143 18.4897 -2.67256
257 2 26.8947 17.6791 -2.2421 26.8947 17.6791 -2.2421
258 2 25.6263 19.0023 -4.91822 25.6263 19.0023 -4.91822
259 1 26.6084 16.728 -4.58765 26.6084 16.728 -4.58765
260 2 28.7318 16.2052 -3.38759 28.7318 16.2052 -3.38759
261 2 28.1562 16.3496 -6.54463 28.1562 16.3496 -6.54463
262 1 29.782 17.6708 -5.11169 29.782 17.6708 -5.11169
263 2 31.7466 17.2251 -3.59243 31.7466 17.2251 -3.59243
264 2 31.5858 17.0401 -6.78318 31.5858 17.0401 -6.78318
265 1 32.1734 15.2256 -5.09107 32.1734 15.2256 -5.09107
266 2 33.6314 15.4892 -3.01502 33.6314 15.4892 -3.01502
267 2 34.2971 14.0947 -5.83861 34.2971 14.0947 -5.83861
268 1 35.3624 16.1097 -4.71537 35.3624 16.1097 -4.71537
269 2 36.6447 16.6274 -2.56503 36.6447 16.6274 -2.56503
270 2 37.5307 14.9184 -5.15583 37.5307 14.9184 -5.15583
271 1 38.5126 17.054 -4.18875 -12.779 17.054 -4.18875
272 2 39.6512 17.7986 -2.01721 -11.6404 17.7986 -2.01721
273 2 40.6911 15.8333 -4.37081 -10.6006 15.8333 -4.37081
274 1 41.6189 18.0556 -3.56304 -9.67275 18.0556 -3.56304
275 2 42.6105 19.0018 -1.3926 -8.68116 19.0018 -1.3926
276 2 43.8004 16.8462 -3.51321 -7.49126 16.8462 -3.51321
277 1 43.1744 16.6228 -1.07879 -8.11721 16.6228 -1.07879
278 2 43.8635 17.8707 0.997348 -7.42818 17.8707 0.997348
279 2 45.3689 15.574 -0.767132 -5.92269 15.574 -0.767132
280 1 46.0818 17.9177 -0.198609 -5.20981 17.9177 -0.198609
281 2 46.8058 19.0933 1.89291 -4.48583 19.0933 1.89291
282 2 48.2987 16.9065 -0.0152002 -2.99295 16.9065 -0.0152002
283 1 47.5608 16.7798 2.4572 -3.73088 16.7798 2.4572
284 2 48.6822 17.3129 4.65493 -2.60947 17.3129 4.65493
285 2 49.7895 15.8216 2.00584 -1.50211 15.8216 2.00584
286 1 50.6421 17.8809 3.16066 -0.649504 17.8809 3.16066
287 2 51.9093 18.1953 5.33775 0.617695 18.1953 5.33775
288 2 52.853 16.9841 2.46187 1.56139 16.9841 2.46187
289 1 52.7496 15.8818 4.79891 1.45794 15.8818 4.79891
290 2 54.4002 15.2237 6.60003 3.10859 15.2237 6.60003
291 2 54.8521 15.6145 3.45504 3.56049 15.6145 3.45504
292 1 55.9237 16.8131 5.33711 4.63207 16.8131 5.33711
293 2 57.6088 15.3715 6.56384 6.31719 15.3715 6.56384
294 2 58.3128 17.0842 4.51404 7.02119 17.0842 4.51404
295 1 58.1529 14.5854 4.24633 6.86131 14.5854 4.24633
296 2 8.88972 13.3749 5.01518 8.88972 13.3749 5.01518
297 2 8.88263 15.2099 2.91349 8.88263 15.2099 2.91349
298 1 16.5413 21.582 4.61266 16.5413 21.582 4.61266
299 2 18.7118 20.5626 5.37909 18.7118 20.5626 5.37909
300 2 18.0627 22.081 2.66244 18.0627 22.081 2.66244
301 1 18.5736 19.7218 3.01447 18.5736 19.7218 3.01447
302 2 20.7526 18.5503 3.01365 20.7526 18.5503 3.01365
303 2 19.7028 20.7735 0.982077 19.7028 20.7735 0.982077
304 1 21.6744 20.7994 2.49204 21.6744 20.7994 2.49204
305 2 23.8632 19.669 2.30004 23.8632 19.669 2.30004
306 2 22.5183 21.943 0.380337 22.5183 21.943 0.380337
307 1 23.1074 19.616 -0.0928671 23.1074 19.616 -0.0928671
308 2 25.3568 18.697 -0.233905 25.3568 18.697 -0.233905
309 2 23.7748 20.773 -2.20942 23.7748 20.773 -2.20942
310 1 25.974 21.0175 -0.997975 25.974 21.0175 -0.997975
311 2 28.239 20.0808 -1.04014 28.239 20.0808 -1.04014
312 2 26.7327 22.036 -3.16192 26.7327 22.036 -3.16192
313 1 27.6127 19.7178 -3.5196 27.6127 19.7178 -3.5196
314 2 29.8486 18.873 -2.83957 29.8486 18.873 -2.83957
315 2 28.8659 19.9576 -5.70768 28.8659 19.9576 -5.70768
316 1 30.7278 20.7847 -4.19299 30.7278 20.7847 -4.19299
317 2 32.8778 19.9865 -3.20306 32.8778 19.9865 -3.20306
318 2 32.2095 20.7352 -6.25297 32.2095 20.7352 -6.25297
319 1 33.0255 18.5202 -5.30009 33.0255 18.5202 -5.30009
320 2 34.8271 18.274 -3.53667 34.8271 18.274 -3.53667
321 2 34.9823 17.6857 -6.68121 34.9823 17.6857 -6.68121
322 1 36.2782 19.3537 -5.26459 36.2782 19.3537 -5.26459
323 2 37.9405 19.3434 -3.34082 37.9405 19.3434 -3.34082
324 2 38.3228 18.3533 -6.36856 38.3228 18.3533 -6.36856
325 1 39.5207 20.1929 -5.08611 -11.7709 20.1929 -5.08611
326 2 41.025 20.4204 -3.03585 -10.2666 20.4204 -3.03585
327 2 41.6321 19.0729 -5.8929 -9.65952 19.0729 -5.8929
328 1 42.7331 21.0536 -4.75075 -8.55856 21.0536 -4.75075
329 2 44.0751 21.5334 -2.62354 -7.21656 21.5334 -2.62354
330 2 44.8805 19.8512 -5.2585 -6.41109 19.8512 -5.2585
331 1 44.6645 19.1301 -2.83841 -6.6271 19.1301 -2.83841
332 2 45.5118 20.2501 -0.696244 -5.77986 20.2501 -0.696244
333 2 46.8427 17.9606 -2.59852 -4.44896 17.9606 -2.59852
334 1 47.6385 20.2852 -2.03254 -3.65316 20.2852 -2.03254
335 2 48.4 21.5265 0.065717 -2.89162 21.5265 0.065717
336 2 49.8231 19.1715 -1.72733 -1.46852 19.1715 -1.72733
337 1 49.009 19.2154 0.672847 -2.28268 19.2154 0.672847
338 2 49.8882 20.2452 2.79118 -1.40345 20.2452 2.79118
339 2 51.2218 18.1447 0.64729 -0.0698641 18.1447 0.64729
340 1 51.9934 20.3574 1.46264 0.70179 20.3574 1.46264
341 2 52.8712 21.2029 3.63465 1.57956 21.2029 3.63465
342 2 54.4428 19.9642 1.6263 3.1512 19.9642 1.6263
343 1 53.7658 18.8708 3.79213 2.47421 18.8708 3.79213
344 2 55.3834 19.2621 5.6636 4.09173 19.2621 5.6636
345 2 56.0603 18.0765 3.12582 4.76869 18.0765 3.12582
346 1 63.0821 25.5661 3.49721 11.7904 25.5661 3.49721
347 2 64.5809 25.9557 5.52209 13.2893 25.9557 5.52209
348 2 13.9664 24.9611 2.58522 13.9664 24.9611 2.58522
349 1 14.1145 23.7086 4.78136 14.1145 23.7086 4.78136
350 2 16.0306 23.2744 6.39668 16.0306 23.2744 6.39668
351 2 16.0517 23.594 3.25132 16.0517 23.594 3.25132
352 1 17.3206 24.8456 4.97745 17.3206 24.8456 4.97745
353 2 19.2442 24.0798 6.41544 19.2442 24.0798 6.41544
354 2 19.1921 24.7683 3.2847 19.1921 24.7683 3.2847
355 1 19.7308 22.609 4.41845 19.7308 22.609 4.41845
356 2 21.8859 21.4527 4.92349 21.8859 21.4527 4.92349
357 2 21.0589 23.1915 2.32728 21.0589 23.1915 2.32728
358 1 22.8652 23.6282 4.02088 22.8652 23.6282 4.02088
359 2 25.0911 22.494 4.19668 25.0911 22.494 4.19668
360 2 23.965 24.4088 1.84537 23.965 24.4088 1.84537
361 1 24.635 22.0222 1.75279 24.635 22.0222 1.75279
362 2 26.836 20.9681 1.38187 26.836 20.9681 1.38187
363 2 25.3269 23.2971 -0.331685 25.3269 23.2971 -0.331685
364 1 27.5367 23.3473 0.888708 27.5367 23.3473 0.888708
365 2 29.7387 22.3155 0.533828 29.7387 22.3155 0.533828
366 2 28.2095 24.633 -1.17352 28.2095 24.633 -1.17352
367 1 28.8997 22.3536 -1.88926 28.8997 22.3536 -1.88926
368 2 31.1514 21.3618 -1.70686 31.1514 21.3618 -1.70686
369 2 29.8582 23.15 -4.08118 29.8582 23.15 -4.08118
370 1 31.9255 23.5518 -2.66848 31.9255 23.5518 -2.66848
371 2 34.1621 22.5835 -2.23936 34.1621 22.5835 -2.23936
372 2 33.0438 24.0987 -4.86784 33.0438 24.0987 -4.86784
373 1 33.9187 21.7351 -4.66276 33.9187 21.7351 -4.66276
374 2 35.9909 21.0808 -3.41408 35.9909 21.0808 -3.41408
375 2 35.5582 21.4152 -6.57336 35.5582 21.4152 -6.57336
376 1 37.1459 22.6299 -5.0064 37.1459 22.6299 -5.0064
377 2 39.1175 22.142 -3.52032 39.1175 22.142 -3.52032
378 2 38.9319 22.0585 -6.71666 38.9319 22.0585 -6.71666
379 1 40.3996 23.4733 -5.20461 -10.892 23.4733 -5.20461
380 2 42.2384 23.1806 -3.49474 -9.05322 23.1806 -3.49474
381 2 42.3188 22.683 -6.65963 -8.9728 22.683 -6.65963
382 1 43.6608 24.2765 -5.21759 -7.63086 24.2765 -5.21759
383 2 45.4556 24.2732 -3.42253 -5.83605 24.2732 -3.42253
384 2 45.5844 23.2105 -6.46481 -5.70726 23.2105 -6.46481
385 1 45.8931 21.9498 -4.27596 -5.39855 21.9498 -4.27596
386 2 47.0296 22.6787 -2.07878 -4.26204 22.6787 -2.07878
387 2 48.069 20.7252 -4.48714 -3.22266 20.7252 -4.48714
388 1 48.9331 22.9174 -3.65752 -2.35858 22.9174 -3.65752
389 2 49.7037 23.8316 -1.47174 -1.58795 23.8316 -1.47174
390 2 51.3241 22.3249 -3.42365 0.0324502 22.3249 -3.42365
391 1 50.5431 21.5023 -1.19934 -0.748557 21.5023 -1.19934
392 2 51.46 22.6734 0.790277 0.168367 22.6734 0.790277
393 2 52.865 20.7272 -0.845235 1.5734 20.7272 -0.845235
394 1 59.5597 27.7131 -1.27158 8.26805 27.7131 -1.27158
395 2 60.6203 29.1215 0.542332 9.32868 29.1215 0.542332
396 2 61.775 26.7085 -1.19983 10.4834 26.7085 -1.19983
397 1 61.1682 26.8451 1.27979 9.87656 26.8451 1.27979
398 2 62.3193 27.924 3.25799 11.0277 27.924 3.25799
399 2 63.4052 25.9726 0.97947 12.1136 25.9726 0.97947
400 1 64.2468 28.2033 1.72954 12.9551 28.2033 1.72954
401 2 65.1847 29.1193 3.87524 13.8931 29.1193 3.87524
402 2 15.2794 27.4605 1.44387 15.2794 27.4605 1.44387
403 1 14.927 26.8566 3.90008 14.927 26.8566 3.90008
404 2 16.3529 26.9328 5.98301 16.3529 26.9328 5.98301
405 2 17.1475 26.3195 2.92505 17.1475 26.3195 2.92505
406 1 18.0537 28.0946 4.46138 18.0537 28.0946 4.46138
407 2 19.7323 27.9043 6.36799 19.7323 27.9043 6.36799
408 2 20.1764 27.5539 3.22283 20.1764 27.5539 3.22283
409 1 20.5394 25.8487 5.09634 20.5394 25.8487 5.09634
410 2 22.6426 24.9485 6.18936 22.6426 24.9485 6.18936
411 2 22.1992 25.8977 3.16499 22.1992 25.8977 3.16499
412 1 23.7741 26.8413 4.88202 23.7741 26.8413 4.88202
413 2 25.9458 25.8183 5.68482 25.9458 25.8183 5.68482
414 2 25.2677 27.1011 2.82147 25.2677 27.1011 2.82147
415 1 25.9427 24.7542 3.37253 25.9427 24.7542 3.37253
416 2 28.1588 23.5988 3.32303 28.1588 23.5988 3.32303
417 2 26.9199 25.7195 1.20365 26.9199 25.7195 1.20365
418 1 28.9895 25.9104 2.64102 28.9895 25.9104 2.64102
419 2 31.1817 24.7444 2.42364 31.1817 24.7444 2.42364
420 2 29.8766 27.0251 0.507769 29.8766 27.0251 0.507769
421 1 30.4433 24.6803 0.011014 30.4433 24.6803 0.011014
422 2 32.6619 23.6595 -0.195597 32.6619 23.6595 -0.195597
423 2 31.1725 25.8649 -2.07701 31.1725 25.8649 -2.07701
424 1 33.3819 25.9836 -0.85055 33.3819 25.9836 -0.85055
425 2 35.6178 24.9718 -0.877585 35.6178 24.9718 -0.877585
426 2 34.2045 27.0062 -2.9905 34.2045 27.0062 -2.9905
427 1 35.0119 24.6612 -3.37165 35.0119 24.6612 -3.37165
428 2 37.222 23.7582 -2.6978 37.222 23.7582 -2.6978
429 2 36.2813 24.9497 -5.54342 36.2813 24.9497 -5.54342
430 1 38.1504 25.693 -4.00192 38.1504 25.693 -4.00192
431 2 40.2989 24.8621 -3.05687 40.2989 24.8621 -3.05687
432 2 39.6053 25.7154 -6.08008 39.6053 25.7154 -6.08008
433 1 41.3551 26.6181 -4.48949 -9.93655 26.6181 -4.48949
434 2 43.4617 25.9443 -3.28455 -7.82993 25.9443 -3.28455
435 2 42.943 26.3595 -6.45737 -8.34863 26.3595 -6.45737
436 1 44.5822 27.4473 -4.8877 -6.70942 27.4473 -4.8877
437 2 46.6681 26.8387 -3.57546 -4.62356 26.8387 -3.57546
438 2 46.5549 27.2296 -6.44565 -4.73673 27.2296 -6.44565
439 1 46.9024 25.0115 -5.29055 -4.38926 25.0115 -5.29055
440 2 49.0912 25.3831 -4.04925 -2.20048 25.3831 -4.04925
441 2 48.7371 23.4826 -6.09888 -2.55458 23.4826 -6.09888
442 1 55.3222 30.5375 -4.8931 4.03058 30.5375 -4.8931
443 2 56.9423 31.1046 -3.05988 5.65062 31.1046 -3.05988
444 2 57.5419 29.7805 -5.88263 6.25024 29.7805 -5.88263
445 1 57.7295 28.8481 -3.56473 6.43787 28.8481 -3.56473
446 2 58.9618 30.0294 -1.6684 7.67012 30.0294 -1.6684
447 2 60.0082 27.8386 -3.73565 8.7166 27.8386 -3.73565
448 1 60.8568 30.1324 -3.28596 9.56518 30.1324 -3.28596
449 2 61.9126 31.3275 -1.28364 10.621 31.3275 -1.28364
450 2 63.1391 29.1178 -3.33222 11.8475 29.1178 -3.33222
451 1 62.6529 29.0266 -0.881392 11.3612 29.0266 -0.881392
452 2 63.3912 30.4206 1.08983 12.0995 30.4206 1.08983
453 2 64.9526 28.1848 -0.712299 13.661 28.1848 -0.712299
454 1 65.5935 30.5982 -0.185069 14.3019 30.5982 -0.185069
455 2 66.324 31.9413 1.82377 15.0324 31.9413 1.82377
456 2 16.6324 29.7997 -0.0254707 16.6324 29.7997 -0.0254707
457 1 15.9363 29.7022 2.45018 15.9363 29.7022 2.45018
458 2 17.0568 30.4076 4.61599 17.0568 30.4076 4.61599
459 2 18.257 28.9182 2.01994 18.257 28.9182 2.01994
460 1 19.0384 31.0797 3.10764 19.0384 31.0797 3.10764
461 2 20.3776 31.5183 5.23304 20.3776 31.5183 5.23304
462 2 21.3005 30.2649 2.42397 21.3005 30.2649 2.42397
463 1 21.2931 29.1901 4.77738 21.2931 29.1901 4.77738
464 2 23.154 28.7459 6.4663 23.154 28.7459 6.4663
465 2 23.2823 28.7551 3.27578 23.2823 28.7551 3.27578
466 1 24.5766 30.2012 4.89112 24.5766 30.2012 4.89112
467 2 26.5413 29.5202 6.3668 26.5413 29.5202 6.3668
468 2 26.4519 29.9376 3.19972 26.4519 29.9376 3.19972
469 1 26.9932 27.8362 4.50407 26.9932 27.8362 4.50407
470 2 29.1839 26.7067 5.04737 29.1839 26.7067 5.04737
471 2 28.3518 28.3064 2.3797 28.3518 28.3064 2.3797
472 1 30.1883 28.8215 4.02595 30.1883 28.8215 4.02595
473 2 32.3872 27.6341 4.3139 32.3872 27.6341 4.3139
474 2 31.3998 29.4908 1.86061 31.3998 29.4908 1.86061
475 1 32.0066 27.0827 1.8676 32.0066 27.0827 1.8676
476 2 34.1889 25.9474 1.55081 34.1889 25.9474 1.55081
477 2 32.8008 28.2966 -0.228877 32.8008 28.2966 -0.228877
478 1 34.9822 28.2929 1.04113 34.9822 28.2929 1.04113
479 2 37.1777 27.2233 0.728045 37.1777 27.2233 0.728045
480 2 35.7018 29.5327 -1.04152 35.7018 29.5327 -1.04152
481 1 36.3607 27.2354 -1.69001 36.3607 27.2354 -1.69001
482 2 38.5916 26.2096 -1.5111 38.5916 26.2096 -1.5111
483 2 37.3269 28.0627 -3.86198 37.3269 28.0627 -3.86198
484 1 39.4025 28.3814 -2.46358 39.4025 28.3814 -2.46358
485 2 41.6368 27.3948 -2.048 41.6368 27.3948 -2.048
486 2 40.4867 28.9733 -4.66857 40.4867 28.9733 -4.66857
487 1 42.4723 29.4352 -3.21321 -8.81931 29.4352 -3.21321
488 2 44.8653 28.8558 -2.79523 -6.42638 28.8558 -2.79523
489 2 43.9224 29.8528 -5.23209 -7.3692 29.8528 -5.23209
490 1 50.2513 34.1641 -3.31326 -1.04031 34.1641 -3.31326
491 2 52.4606 33.5375 -2.46924 1.16892 33.5375 -2.46924
492 2 51.7265 34.7398 -5.32515 0.434871 34.7398 -5.32515
493 1 52.6692 32.4762 -4.77364 1.37755 32.4762 -4.77364
494 2 54.6673 32.3658 -3.32814 3.37563 32.3658 -3.32814
495 2 54.5661 32.3201 -6.49572 3.27448 32.3201 -6.49572
496 1 55.8244 33.8205 -5.00065 4.53273 33.8205 -5.00065
497 2 57.8474 33.7834 -3.4917 6.55577 33.7834 -3.4917
498 2 57.6805 33.3627 -6.67485 6.38884 33.3627 -6.67485
499 1 58.4987 31.8235 -4.87162 7.20707 31.8235 -4.87162
500 2 60.0534 32.4351 -2.93581 8.76173 32.4351 -2.93581
501 2 60.692 30.869 -5.68153 9.40041 30.869 -5.68153
502 1 61.7078 33.0202 -4.75124 10.4162 33.0202 -4.75124
503 2 63.0523 33.7937 -2.68167 11.7606 33.7937 -2.68167
504 2 64.0414 32.1105 -5.24177 12.7498 32.1105 -5.24177
505 1 63.9481 31.4918 -2.80226 12.6565 31.4918 -2.80226
506 2 64.833 32.8538 -0.788155 13.5414 32.8538 -0.788155
507 2 66.2848 30.5823 -2.59752 14.9932 30.5823 -2.59752
508 1 67.0193 33.0227 -2.13119 15.7277 33.0227 -2.13119
509 2 67.8416 34.4622 -0.153494 16.55 34.4622 -0.153494
510 2 18.0635 32.1407 -1.83111 18.0635 32.1407 -1.83111
511 1 17.2779 32.2103 0.579561 17.2779 32.2103 0.579561
512 2 18.1576 33.393 2.64004 18.1576 33.393 2.64004
513 2 19.6042 31.3481 0.58971 19.6042 31.3481 0.58971
514 1 20.3534 33.7215 1.28365 20.3534 33.7215 1.28365
515 2 21.3818 34.6841 3.39925 21.3818 34.6841 3.39925
516 2 22.6617 32.8035 1.10741 22.6617 32.8035 1.10741
517 1 22.2389 32.3112 3.62308 22.2389 32.3112 3.62308
518 2 23.7364 32.4716 5.68661 23.7364 32.4716 5.68661
519 2 24.4417 31.5494 2.69825 24.4417 31.5494 2.69825
520 1 25.4901 33.4284 4.05554 25.4901 33.4284 4.05554
521 2 27.1089 33.294 6.03054 27.1089 33.294 6.03054
522 2 27.6272 32.7581 2.91633 27.6272 32.7581 2.91633
523 1 27.8728 31.1446 4.89348 27.8728 31.1446 4.89348
524 2 29.9152 30.2468 6.12006 29.9152 30.2468 6.12006
525 2 29.6201 31.0638 3.0391 29.6201 31.0638 3.0391
526 1 31.1669 32.0154 4.77198 31.1669 32.0154 4.77198
527 2 33.2741 30.9519 5.70166 33.2741 30.9519 5.70166
528 2 32.7653 32.1588 2.76912 32.7653 32.1588 2.76912
529 1 33.341 29.8206 3.42865 33.341 29.8206 3.42865
530 2 35.5441 28.632 3.47811 35.5441 28.632 3.47811
531 2 34.3879 30.6801 1.24076 34.3879 30.6801 1.24076
532 1 36.4191 30.8779 2.70189 36.4191 30.8779 2.70189
533 2 38.5928 29.6707 2.58151 38.5928 29.6707 2.58151
534 2 37.3713 31.9336 0.544913 37.3713 31.9336 0.544913
535 1 37.9145 29.5593 0.15922 37.9145 29.5593 0.15922
536 2 40.1403 28.527 -0.00091512 40.1403 28.527 -0.00091512
537 2 38.6392 30.6989 -1.96223 38.6392 30.6989 -1.96223
538 1 40.8111 30.7944 -0.74797 40.8111 30.7944 -0.74797
539 2 42.9936 29.6435 -0.756097 42.9936 29.6435 -0.756097