ITEM: TIMESTEP
1644000
ITEM: NUMBER OF ATOMS
810
ITEM: BOX BOUNDS xy xz yz pp pp pp
8.6298438867990135e-01 6.0274060839058471e+01 8.1194402277393039e+00
8.1394622342039402e-01 5.0202268776579182e+01 0.0000000000000000e+00
-1.0000000000000000e+01 1.0000000000000000e+01 0.0000000000000000e+00
ITEM: ATOMS id type x y z xu yu zu
1 1 46.3213 1.15529 2.09544 -4.9703 1.15529 2.09544
2 2 48.0925 1.29252 3.91788 -3.19913 1.29252 3.91788
3 2 48.4506 0.993635 0.715601 -2.84099 0.993635 0.715601
4 1 49.4649 2.77883 2.28773 -1.82674 2.77883 2.28773
5 2 51.3115 2.8236 4.03899 0.0198157 2.8236 4.03899
6 2 51.5383 2.68686 0.814219 0.246623 2.68686 0.814219
7 1 0.893415 0.986466 2.56125 0.893415 0.986466 2.56125
8 2 11.1193 50.1045 3.96103 2.99988 0.71621 3.96103
9 2 2.70653 1.20688 0.775784 2.70653 1.20688 0.775784
10 1 4.05066 2.59049 2.49832 4.05066 2.59049 2.49832
11 2 6.21005 2.25717 3.79814 6.21005 2.25717 3.79814
12 2 5.79148 2.89533 0.652598 5.79148 2.89533 0.652598
13 1 6.71002 0.847269 1.77699 6.71002 0.847269 1.77699
14 2 17.1356 49.7348 2.70492 9.01619 0.346499 2.70492
15 2 8.18104 1.45419 -0.223769 8.18104 1.45419 -0.223769
16 1 9.82544 2.49344 1.48512 9.82544 2.49344 1.48512
17 2 12.153 1.97254 2.33954 12.153 1.97254 2.33954
18 2 11.24 3.16101 -0.534749 11.24 3.16101 -0.534749
19 1 12.2787 0.964343 0.0424417 12.2787 0.964343 0.0424417
20 2 22.747 49.8683 0.829421 14.6276 0.480026 0.829421
21 2 13.6026 1.67535 -2.00484 13.6026 1.67535 -2.00484
22 1 15.3513 2.66274 -0.363064 15.3513 2.66274 -0.363064
23 2 17.6876 2.20545 0.475469 17.6876 2.20545 0.475469
24 2 16.7068 3.32908 -2.40284 16.7068 3.32908 -2.40284
25 1 17.8131 1.15688 -1.82164 17.8131 1.15688 -1.82164
26 2 20.052 0.851658 -0.672618 20.052 0.851658 -0.672618
27 2 19.4019 1.52396 -3.7725 19.4019 1.52396 -3.7725
28 1 20.9306 2.81427 -2.11363 20.9306 2.81427 -2.11363
29 2 23.1269 2.55815 -0.868342 23.1269 2.55815 -0.868342
30 2 22.596 3.09419 -4.01615 22.596 3.09419 -4.01615
31 1 23.5944 1.09128 -2.87279 23.5944 1.09128 -2.87279
32 2 25.5768 1.10495 -1.27094 25.5768 1.10495 -1.27094
33 2 25.5465 1.01757 -4.50466 25.5465 1.01757 -4.50466
34 1 26.7518 2.70217 -2.93276 26.7518 2.70217 -2.93276
35 2 28.6688 2.79433 -1.25232 28.6688 2.79433 -1.25232
36 2 28.7689 2.54826 -4.47665 28.7689 2.54826 -4.47665
37 1 29.4707 0.903284 -2.70763 29.4707 0.903284 -2.70763
38 2 31.1074 1.32435 -0.789076 31.1074 1.32435 -0.789076
39 2 39.8156 49.8847 -3.86339 31.6962 0.496371 -3.86339
40 1 32.6122 2.52492 -2.51919 32.6122 2.52492 -2.51919
41 2 34.1815 3.02342 -0.563102 34.1815 3.02342 -0.563102
42 2 34.8736 2.07392 -3.5813 34.8736 2.07392 -3.5813
43 1 35.1739 0.878333 -1.39153 35.1739 0.878333 -1.39153
44 2 36.5239 1.60608 0.64586 36.5239 1.60608 0.64586
45 2 45.6407 49.7328 -2.1695 37.5212 0.344432 -2.1695
46 1 38.2625 2.55276 -1.02565 38.2625 2.55276 -1.02565
47 2 39.5845 3.29404 1.01937 39.5845 3.29404 1.01937
48 2 40.616 2.0296 -1.78263 40.616 2.0296 -1.78263
49 1 40.6657 1.08958 0.553994 40.6657 1.08958 0.553994
50 2 42.0908 1.65952 2.5768 42.0908 1.65952 2.5768
51 2 51.0962 50.0652 -0.381468 42.9768 0.676879 -0.381468
52 1 43.756 2.77054 0.925138 43.756 2.77054 0.925138
53 2 45.2401 3.26127 2.92774 45.2401 3.26127 2.92774
54 2 46.0437 2.39841 -0.0897534 46.0437 2.39841 -0.0897534
55 1 46.8561 4.44171 1.27401 -4.43557 4.44171 1.27401
56 2 48.4096 4.84607 3.24505 -2.88206 4.84607 3.24505
57 2 49.1123 4.11409 0.169492 -2.17939 4.11409 0.169492
58 1 49.9682 6.10003 1.58942 -1.32346 6.10003 1.58942
59 2 51.5951 6.41444 3.51866 0.303502 6.41444 3.51866
60 2 52.1862 5.82276 0.390856 0.894561 5.82276 0.390856
61 1 1.32409 4.3934 2.43071 1.32409 4.3934 2.43071
62 2 3.24309 4.35128 4.10219 3.24309 4.35128 4.10219
63 2 3.33627 4.3748 0.868225 3.33627 4.3748 0.868225
64 1 4.47971 6.00167 2.52108 4.47971 6.00167 2.52108
65 2 6.46578 5.87705 4.1071 6.46578 5.87705 4.1071
66 2 6.42768 6.06191 0.877163 6.42768 6.06191 0.877163
67 1 7.20273 4.19946 2.38422 7.20273 4.19946 2.38422
68 2 9.40795 3.81093 3.58508 9.40795 3.81093 3.58508
69 2 8.87236 4.58808 0.488044 8.87236 4.58808 0.488044
70 1 10.3475 5.81585 2.22319 10.3475 5.81585 2.22319
71 2 12.5916 5.37905 3.32798 12.5916 5.37905 3.32798
72 2 11.9486 6.28672 0.286378 11.9486 6.28672 0.286378
73 1 12.9286 4.15296 1.16033 12.9286 4.15296 1.16033
74 2 15.2699 3.61989 1.95983 15.2699 3.61989 1.95983
75 2 14.2981 4.86934 -0.869805 14.2981 4.86934 -0.869805
76 1 16.021 5.82432 0.813186 16.021 5.82432 0.813186
77 2 18.3693 5.29103 1.58169 18.3693 5.29103 1.58169
78 2 17.3594 6.56981 -1.22169 17.3594 6.56981 -1.22169
79 1 18.428 4.35976 -0.75641 18.428 4.35976 -0.75641
80 2 20.7452 3.92752 0.150416 20.7452 3.92752 0.150416
81 2 19.8339 4.96917 -2.78024 19.8339 4.96917 -2.78024
82 1 21.5148 6.04774 -1.1215 21.5148 6.04774 -1.1215
83 2 23.8103 5.64955 -0.139523 23.8103 5.64955 -0.139523
84 2 22.9764 6.58665 -3.127 22.9764 6.58665 -3.127
85 1 24.06 4.45808 -2.35751 24.06 4.45808 -2.35751
86 2 26.2108 4.2603 -1.01978 26.2108 4.2603 -1.01978
87 2 25.7979 4.64853 -4.20613 25.7979 4.64853 -4.20613
88 1 27.1983 6.09102 -2.55862 27.1983 6.09102 -2.55862
89 2 29.2977 5.95599 -1.12949 29.2977 5.95599 -1.12949
90 2 29.0093 6.19273 -4.34371 29.0093 6.19273 -4.34371
91 1 29.9104 4.30969 -2.94183 29.9104 4.30969 -2.94183
92 2 31.7595 4.48246 -1.19045 31.7595 4.48246 -1.19045
93 2 31.9873 4.0821 -4.39312 31.9873 4.0821 -4.39312
94 1 33.0677 5.91657 -2.90033 33.0677 5.91657 -2.90033
95 2 34.8484 6.1708 -1.08683 34.8484 6.1708 -1.08683
96 2 35.1982 5.62244 -4.257 35.1982 5.62244 -4.257
97 1 35.7446 4.1549 -2.28886 35.7446 4.1549 -2.28886
98 2 37.2496 4.72257 -0.301779 37.2496 4.72257 -0.301779
99 2 38.0362 3.67128 -3.26367 38.0362 3.67128 -3.26367
100 1 38.866 5.79542 -2.01653 38.866 5.79542 -2.01653
101 2 40.3114 6.42586 -0.00526523 40.3114 6.42586 -0.00526523
102 2 41.1821 5.28708 -2.912 41.1821 5.28708 -2.912
103 1 41.3412 4.23842 -0.635353 41.3412 4.23842 -0.635353
104 2 42.6565 4.96363 1.4144 42.6565 4.96363 1.4144
105 2 43.6939 3.74033 -1.40366 43.6939 3.74033 -1.40366
106 1 44.4135 5.93269 -0.226971 44.4135 5.93269 -0.226971
107 2 45.7481 6.62015 1.82014 45.7481 6.62015 1.82014
108 2 46.7573 5.46244 -1.03535 46.7573 5.46244 -1.03535
109 1 47.4869 7.62807 0.181287 -3.80475 7.62807 0.181287
110 2 48.8613 8.25848 2.2197 -2.43031 8.25848 2.2197
111 2 49.8161 7.18909 -0.687797 -1.47553 7.18909 -0.687797
112 1 50.5665 9.31911 0.576693 -0.725156 9.31911 0.576693
113 2 51.9991 9.8814 2.59607 0.707483 9.8814 2.59607
114 2 52.8736 8.90989 -0.369491 1.58201 8.90989 -0.369491
115 1 1.80019 7.74558 1.86525 1.80019 7.74558 1.86525
116 2 3.50312 7.96885 3.74202 3.50312 7.96885 3.74202
117 2 3.97316 7.52449 0.570361 3.97316 7.52449 0.570361
118 1 4.93433 9.3792 2.0956 4.93433 9.3792 2.0956
119 2 6.71021 9.51263 3.91289 6.71021 9.51263 3.91289
120 2 7.0584 9.22084 0.708594 7.0584 9.22084 0.708594
121 1 7.63744 7.60692 2.56127 7.63744 7.60692 2.56127
122 2 9.68566 7.40519 4.05659 9.68566 7.40519 4.05659
123 2 9.51891 7.74943 0.843598 9.51891 7.74943 0.843598
124 1 10.795 9.2118 2.55269 10.795 9.2118 2.55269
125 2 12.8984 8.93827 3.95531 12.8984 8.93827 3.95531
126 2 12.61 9.43931 0.771218 12.61 9.43931 0.771218
127 1 13.4836 7.44144 2.02096 13.4836 7.44144 2.02096
128 2 15.7591 6.96455 3.03651 15.7591 6.96455 3.03651
129 2 15.021 7.98912 0.0531531 15.021 7.98912 0.0531531
130 1 16.6101 9.07717 1.78343 16.6101 9.07717 1.78343
131 2 18.9116 8.56997 2.71748 18.9116 8.56997 2.71748
132 2 18.0883 9.69349 -0.208487 18.0883 9.69349 -0.208487
133 1 19.1046 7.50637 0.450077 19.1046 7.50637 0.450077
134 2 21.4535 6.98779 1.21785 21.4535 6.98779 1.21785
135 2 20.4303 8.25288 -1.58697 20.4303 8.25288 -1.58697
136 1 22.1821 9.19742 0.0749682 22.1821 9.19742 0.0749682
137 2 24.5264 8.70314 0.86648 24.5264 8.70314 0.86648
138 2 23.5132 9.92051 -1.96274 23.5132 9.92051 -1.96274
139 1 24.6109 7.72656 -1.46154 24.6109 7.72656 -1.46154
140 2 26.8792 7.36666 -0.397532 26.8792 7.36666 -0.397532
141 2 26.1352 8.1874 -3.44134 26.1352 8.1874 -3.44134
142 1 27.7176 9.39359 -1.77162 27.7176 9.39359 -1.77162
143 2 29.9538 9.08066 -0.621298 29.9538 9.08066 -0.621298
144 2 29.3079 9.76868 -3.71894 29.3079 9.76868 -3.71894
145 1 30.3443 7.71381 -2.71275 30.3443 7.71381 -2.71275
146 2 32.3892 7.64897 -1.19781 32.3892 7.64897 -1.19781
147 2 32.2241 7.72753 -4.42809 32.2241 7.72753 -4.42809
148 1 33.4956 9.32924 -2.82341 33.4956 9.32924 -2.82341
149 2 35.4804 9.3382 -1.22531 35.4804 9.3382 -1.22531
150 2 35.4436 9.25864 -4.45935 35.4436 9.25864 -4.45935
151 1 36.2216 7.52545 -2.81069 36.2216 7.52545 -2.81069
152 2 37.9318 7.86169 -0.941551 37.9318 7.86169 -0.941551
153 2 38.4013 7.17165 -4.06909 38.4013 7.17165 -4.06909
154 1 39.3699 9.13876 -2.67198 39.3699 9.13876 -2.67198
155 2 41.0087 9.55516 -0.754575 41.0087 9.55516 -0.754575
156 2 41.5935 8.73385 -3.83152 41.5935 8.73385 -3.83152
157 1 41.9755 7.44717 -1.70612 41.9755 7.44717 -1.70612
158 2 43.3669 8.1315 0.322846 43.3669 8.1315 0.322846
159 2 44.3108 6.92284 -2.53348 44.3108 6.92284 -2.53348
160 1 45.0729 9.11074 -1.36183 45.0729 9.11074 -1.36183
161 2 46.4232 9.83162 0.677357 46.4232 9.83162 0.677357
162 2 47.4198 8.58272 -2.14428 47.4198 8.58272 -2.14428
163 1 48.1595 10.7857 -0.99158 -3.13215 10.7857 -0.99158
164 2 49.4861 11.5216 1.05203 -1.80558 11.5216 1.05203
165 2 50.5104 10.2659 -1.75692 -0.78124 10.2659 -1.75692
166 1 51.2383 12.4705 -0.604567 -0.05337 12.4705 -0.604567
167 2 52.5642 13.1932 1.43876 1.27257 13.1932 1.43876
168 2 2.29393 11.9706 -1.38587 2.29393 11.9706 -1.38587
169 1 2.3661 10.9988 0.941747 2.3661 10.9988 0.941747
170 2 3.86024 11.4849 2.93764 3.86024 11.4849 2.93764
171 2 4.64783 10.6268 -0.0856881 4.64783 10.6268 -0.0856881
172 1 5.46808 12.6677 1.2774 5.46808 12.6677 1.2774
173 2 7.02721 13.0712 3.24338 7.02721 13.0712 3.24338
174 2 7.71968 12.3395 0.165061 7.71968 12.3395 0.165061
175 1 8.07673 11.0033 2.28176 8.07673 11.0033 2.28176
176 2 9.92222 11.047 4.03305 9.92222 11.047 4.03305
177 2 10.1488 10.915 0.807832 10.1488 10.915 0.807832
178 1 11.2252 12.6203 2.42685 11.2252 12.6203 2.42685
179 2 13.1384 12.5777 4.1041 13.1384 12.5777 4.1041
180 2 13.2411 12.6054 0.870429 13.2411 12.6054 0.870429
181 1 13.9503 10.8187 2.50063 13.9503 10.8187 2.50063
182 2 16.1042 10.4815 3.80731 16.1042 10.4815 3.80731
183 2 15.6972 11.13 0.662475 15.6972 11.13 0.662475
184 1 17.1013 12.4298 2.40374 17.1013 12.4298 2.40374
185 2 19.3001 12.0375 3.61419 19.3001 12.0375 3.61419
186 2 18.7799 12.823 0.516888 18.7799 12.823 0.516888
187 1 19.7261 10.7243 1.51276 19.7261 10.7243 1.51276
188 2 22.0483 10.1967 2.376 22.0483 10.1967 2.376
189 2 21.1504 11.3992 -0.497176 21.1504 11.3992 -0.497176
190 1 22.8312 12.3832 1.21116 22.8312 12.3832 1.21116
191 2 25.1687 11.8454 2.01791 25.1687 11.8454 2.01791
192 2 24.2088 13.1038 -0.811709 24.2088 13.1038 -0.811709
193 1 25.2568 10.894 -0.307366 25.2568 10.894 -0.307366
194 2 27.5903 10.4282 0.532157 27.5903 10.4282 0.532157
195 2 26.6154 11.5711 -2.34085 26.6154 11.5711 -2.34085
196 1 28.3345 12.5894 -0.685176 28.3345 12.5894 -0.685176
197 2 30.6528 12.155 0.216472 30.6528 12.155 0.216472
198 2 29.7356 13.2054 -2.70954 29.7356 13.2054 -2.70954
199 1 30.8342 11.0492 -2.05176 30.8342 11.0492 -2.05176
200 2 33.0323 10.7884 -0.812126 33.0323 10.7884 -0.812126
201 2 32.4941 11.3358 -3.95708 32.4941 11.3358 -3.95708
202 1 33.9609 12.693 -2.29665 33.9609 12.693 -2.29665
203 2 36.1141 12.4897 -0.965115 36.1141 12.4897 -0.965115
204 2 35.6934 12.8898 -4.14912 35.6934 12.8898 -4.14912
205 1 36.6508 10.9389 -2.88559 36.6508 10.9389 -2.88559
206 2 38.5708 11.0253 -1.20925 38.5708 11.0253 -1.20925
207 2 38.6639 10.7888 -4.43455 38.6639 10.7888 -4.43455
208 1 39.8078 12.545 -2.8969 39.8078 12.545 -2.8969
209 2 41.6593 12.7118 -1.14797 41.6593 12.7118 -1.14797
210 2 41.882 12.3213 -4.35229 41.882 12.3213 -4.35229
211 1 42.5105 10.7589 -2.48403 42.5105 10.7589 -2.48403
212 2 44.0805 11.2526 -0.527252 44.0805 11.2526 -0.527252
213 2 44.771 10.311 -3.54848 44.771 10.311 -3.54848
214 1 45.6415 12.388 -2.25103 45.6415 12.388 -2.25103
215 2 47.1485 12.9544 -0.264795 47.1485 12.9544 -0.264795
216 2 47.9314 11.9046 -3.22857 47.9314 11.9046 -3.22857
217 1 48.7623 14.027 -1.9809 -2.5293 14.027 -1.9809
218 2 50.2134 14.6594 0.0256895 -1.0782 14.6594 0.0256895
219 2 51.0748 13.5152 -2.88214 -0.216858 13.5152 -2.88214
220 1 51.8731 15.676 -1.6817 0.581506 15.676 -1.6817
221 2 53.274 16.3627 0.339679 1.9824 16.3627 0.339679
222 2 2.91177 15.1474 -2.51897 2.91177 15.1474 -2.51897
223 1 3.02214 14.1613 -0.211279 3.02214 14.1613 -0.211279
224 2 4.36813 14.849 1.82785 4.36813 14.849 1.82785
225 2 5.36017 13.6868 -1.03219 5.36017 13.6868 -1.03219
226 1 6.09932 15.853 0.178302 6.09932 15.853 0.178302
227 2 7.48002 16.4876 2.21066 7.48002 16.4876 2.21066
228 2 8.42457 15.4086 -0.697002 8.42457 15.4086 -0.697002
229 1 8.58037 14.3254 1.58269 8.58037 14.3254 1.58269
230 2 10.2054 14.6427 3.51224 10.2054 14.6427 3.51224
231 2 10.7978 14.0478 0.385039 10.7978 14.0478 0.385039
232 1 11.702 15.9729 1.85779 11.702 15.9729 1.85779
233 2 13.3964 16.2018 3.74103 13.3964 16.2018 3.74103
234 2 13.8796 15.751 0.572251 13.8796 15.751 0.572251
235 1 14.3783 14.2318 2.52859 14.3783 14.2318 2.52859
236 2 16.3568 14.1076 4.12367 16.3568 14.1076 4.12367
237 2 16.3335 14.2935 0.893871 16.3335 14.2935 0.893871
238 1 17.5342 15.84 2.58377 17.5342 15.84 2.58377
239 2 19.5747 15.6411 4.08998 19.5747 15.6411 4.08998
240 2 19.4244 15.9799 0.875975 19.4244 15.9799 0.875975
241 1 20.2461 14.0476 2.26269 20.2461 14.0476 2.26269
242 2 22.4846 13.6095 3.37797 22.4846 13.6095 3.37797
243 2 21.8566 14.5188 0.334087 21.8566 14.5188 0.334087
244 1 23.3829 15.6741 2.07675 23.3829 15.6741 2.07675
245 2 25.6552 15.1993 3.10133 25.6552 15.1993 3.10133
246 2 24.9277 16.2176 0.113582 24.9277 16.2176 0.113582
247 1 25.9254 14.0538 0.881034 25.9254 14.0538 0.881034
248 2 28.2725 13.5195 1.65322 28.2725 13.5195 1.65322
249 2 27.2676 14.7997 -1.15125 27.2676 14.7997 -1.15125
250 1 29.0094 15.7359 0.524351 29.0094 15.7359 0.524351
251 2 31.3587 15.2155 1.29008 31.3587 15.2155 1.29008
252 2 30.3346 16.4846 -1.51261 30.3346 16.4846 -1.51261
253 1 31.4187 14.2789 -1.05037 31.4187 14.2789 -1.05037
254 2 33.7153 13.8766 -0.0739642 33.7153 13.8766 -0.0739642
255 2 32.8761 14.8241 -3.05684 32.8761 14.8241 -3.05684
256 1 34.5133 15.9573 -1.39059 34.5133 15.9573 -1.39059
257 2 36.7839 15.5946 -0.333953 36.7839 15.5946 -0.333953
258 2 36.0312 16.4235 -3.37358 36.0312 16.4235 -3.37358
259 1 37.0971 14.3253 -2.49971 37.0971 14.3253 -2.49971
260 2 39.1997 14.1848 -1.07702 39.1997 14.1848 -1.07702
261 2 38.9024 14.4325 -4.28968 38.9024 14.4325 -4.28968
262 1 40.2415 15.9469 -2.65735 40.2415 15.9469 -2.65735
263 2 42.2888 15.8772 -1.14668 42.2888 15.8772 -1.14668
264 2 42.1174 15.9648 -4.37655 42.1174 15.9648 -4.37655
265 1 42.9641 14.1501 -2.85556 42.9641 14.1501 -2.85556
266 2 44.7472 14.4012 -1.04421 44.7472 14.4012 -1.04421
267 2 45.092 13.8577 -4.21601 45.092 13.8577 -4.21601
268 1 46.1173 15.757 -2.76806 46.1173 15.757 -2.76806
269 2 47.832 16.0928 -0.903254 47.832 16.0928 -0.903254
270 2 48.293 15.4022 -4.03226 48.293 15.4022 -4.03226
271 1 49.2657 17.3678 -2.63767 -2.02592 17.3678 -2.63767
272 2 50.9123 17.785 -0.727435 -0.379302 17.785 -0.727435
273 2 51.4836 16.9606 -3.80641 0.19193 16.9606 -3.80641
274 1 52.4073 18.9854 -2.4643 1.11569 18.9854 -2.4643
275 2 53.9885 19.4807 -0.517238 2.69688 19.4807 -0.517238
276 2 3.3692 18.534 -3.54123 3.3692 18.534 -3.54123
277 1 3.6817 17.3365 -1.35483 3.6817 17.3365 -1.35483
278 2 5.04344 18.0599 0.675631 5.04344 18.0599 0.675631
279 2 6.02318 16.8032 -2.14869 6.02318 16.8032 -2.14869
280 1 6.77218 19.008 -1.0047 6.77218 19.008 -1.0047
281 2 8.10471 19.7461 1.03424 8.10471 19.7461 1.03424
282 2 9.12088 18.4851 -1.7754 9.12088 18.4851 -1.7754
283 1 9.18095 17.5418 0.559264 9.18095 17.5418 0.559264
284 2 10.6088 18.1115 2.57927 10.6088 18.1115 2.57927
285 2 11.4892 17.1301 -0.38155 11.4892 17.1301 -0.38155
286 1 12.2701 19.2239 0.924192 12.2701 19.2239 0.924192
287 2 13.7541 19.7194 2.9249 13.7541 19.7194 2.9249
288 2 14.5562 18.8492 -0.091094 14.5562 18.8492 -0.091094
289 1 14.833 17.6103 2.09713 14.833 17.6103 2.09713
290 2 16.5989 17.7508 3.92358 16.5989 17.7508 3.92358
291 2 16.9643 17.4485 0.722466 16.9643 17.4485 0.722466
292 1 17.9727 19.2381 2.29446 17.9727 19.2381 2.29446
293 2 19.8106 19.2926 4.05379 19.8106 19.2926 4.05379
294 2 20.0513 19.1409 0.83091 20.0513 19.1409 0.83091
295 1 20.6907 17.4473 2.58893 20.6907 17.4473 2.58893
296 2 22.7885 17.1807 4.00172 22.7885 17.1807 4.00172
297 2 22.5133 17.6669 0.81465 22.5133 17.6669 0.81465
298 1 23.8455 19.0563 2.54307 23.8455 19.0563 2.54307
299 2 25.9955 18.7293 3.85971 25.9955 18.7293 3.85971
300 2 25.5988 19.3558 0.709479 25.5988 19.3558 0.709479
301 1 26.5101 17.3107 1.84729 26.5101 17.3107 1.84729
302 2 28.8106 16.8079 2.78762 28.8106 16.8079 2.78762
303 2 27.9926 17.9202 -0.14382 27.9926 17.9202 -0.14382
304 1 29.6263 18.9586 1.57688 29.6263 18.9586 1.57688
305 2 31.9471 18.4344 2.44694 31.9471 18.4344 2.44694
306 2 31.0555 19.6261 -0.432575 31.0555 19.6261 -0.432575
307 1 32.0866 17.4268 0.150033 32.0866 17.4268 0.150033
308 2 34.4313 16.9301 0.938753 34.4313 16.9301 0.938753
309 2 33.4164 18.152 -1.88803 33.4164 18.152 -1.88803
310 1 35.1612 19.1221 -0.232713 35.1612 19.1221 -0.232713
311 2 37.4964 18.6553 0.600542 37.4964 18.6553 0.600542
312 2 36.5146 19.8024 -2.26858 36.5146 19.8024 -2.26858
313 1 37.6179 17.6245 -1.70516 37.6179 17.6245 -1.70516
314 2 39.8561 17.3073 -0.560892 39.8561 17.3073 -0.560892
315 2 39.2033 18.0046 -3.6552 39.2033 18.0046 -3.6552
316 1 40.7337 19.2785 -1.98811 40.7337 19.2785 -1.98811
317 2 42.9343 19.0149 -0.754526 42.9343 19.0149 -0.754526
318 2 42.3881 19.5683 -3.89735 42.3881 19.5683 -3.89735
319 1 43.392 17.5603 -2.77004 43.392 17.5603 -2.77004
320 2 45.3808 17.5669 -1.17774 45.3808 17.5669 -1.17774
321 2 45.3345 17.4915 -4.41204 45.3345 17.4915 -4.41204
322 1 46.5468 19.1676 -2.83961 46.5468 19.1676 -2.83961
323 2 48.4734 19.2537 -1.17116 48.4734 19.2537 -1.17116
324 2 48.5528 19.0172 -4.39711 48.5528 19.0172 -4.39711
325 1 49.7038 20.7713 -2.86401 -1.58782 20.7713 -2.86401
326 2 51.5651 20.9401 -1.12577 0.273494 20.9401 -1.12577
327 2 51.7692 20.5448 -4.33098 0.477532 20.5448 -4.33098
328 1 52.8607 22.3743 -2.84282 1.56904 22.3743 -2.84282
329 2 54.6542 22.6269 -1.04205 3.36258 22.6269 -1.04205
330 2 54.9806 22.0792 -4.21512 3.68892 22.0792 -4.21512
331 1 4.24902 20.6118 -2.25153 4.24902 20.6118 -2.25153
332 2 5.76631 21.178 -0.273522 5.76631 21.178 -0.273522
333 2 6.5335 20.1267 -3.24089 6.5335 20.1267 -3.24089
334 1 7.37209 22.2491 -1.99814 7.37209 22.2491 -1.99814
335 2 8.82881 22.8811 0.00442093 8.82881 22.8811 0.00442093
336 2 9.68244 21.7376 -2.90582 9.68244 21.7376 -2.90582
337 1 9.85261 20.6919 -0.628881 9.85261 20.6919 -0.628881
338 2 11.1767 21.42 1.41401 11.1767 21.42 1.41401
339 2 12.2011 20.1894 -1.40595 12.2011 20.1894 -1.40595
340 1 12.927 22.3845 -0.237412 12.927 22.3845 -0.237412
341 2 14.2651 23.0804 1.80431 14.2651 23.0804 1.80431
342 2 15.2687 21.9077 -1.04711 15.2687 21.9077 -1.04711
343 1 15.3684 20.8971 1.26682 15.3684 20.8971 1.26682
344 2 16.9176 21.3123 3.23823 16.9176 21.3123 3.23823
345 2 17.6255 20.5631 0.16799 17.6255 20.5631 0.16799
346 1 18.4778 22.5588 1.5775 18.4778 22.5588 1.5775
347 2 20.0956 22.8887 3.51105 20.0956 22.8887 3.51105
348 2 20.6998 22.2725 0.390521 20.6998 22.2725 0.390521
349 1 21.1197 20.8578 2.44373 21.1197 20.8578 2.44373
350 2 23.0261 20.8287 4.12909 23.0261 20.8287 4.12909
351 2 23.1416 20.8312 0.896062 23.1416 20.8312 0.896062
352 1 24.2717 22.4718 2.54575 24.2717 22.4718 2.54575
353 2 26.2445 22.3617 4.14913 26.2445 22.3617 4.14913
354 2 26.2325 22.5204 0.917968 26.2325 22.5204 0.917968
355 1 26.9962 20.6693 2.44638 26.9962 20.6693 2.44638
356 2 29.1917 20.2873 3.66706 29.1917 20.2873 3.66706
357 2 28.6809 21.0495 0.562529 28.6809 21.0495 0.562529
358 1 30.1412 22.2878 2.30379 30.1412 22.2878 2.30379
359 2 32.3758 21.8598 3.4313 32.3758 21.8598 3.4313
360 2 31.7589 22.7449 0.378109 31.7589 22.7449 0.378109
361 1 32.7322 20.6168 1.27557 32.7322 20.6168 1.27557
362 2 35.0689 20.0823 2.08836 35.0689 20.0823 2.08836
363 2 34.1142 21.3294 -0.747975 34.1142 21.3294 -0.747975
364 1 35.8276 22.2861 0.943808 35.8276 22.2861 0.943808
365 2 38.1739 21.7521 1.7198 38.1739 21.7521 1.7198
366 2 37.1735 23.0268 -1.08889 37.1735 23.0268 -1.08889
367 1 38.2378 20.8173 -0.615906 38.2378 20.8173 -0.615906
368 2 40.5565 20.3804 0.282021 40.5565 20.3804 0.282021
369 2 39.6361 21.4357 -2.64142 39.6361 21.4357 -2.64142
370 1 41.3226 22.5043 -0.983753 41.3226 22.5043 -0.983753
371 2 43.6214 22.1012 -0.0141863 43.6214 22.1012 -0.0141863
372 2 42.7735 23.0512 -2.99417 42.7735 23.0512 -2.99417
373 1 43.8598 20.9202 -2.2386 43.8598 20.9202 -2.2386
374 2 46.0177 20.7158 -0.915444 46.0177 20.7158 -0.915444
375 2 45.5847 21.1186 -4.09777 45.5847 21.1186 -4.09777
376 1 46.9954 22.5503 -2.45299 46.9954 22.5503 -2.45299
377 2 49.106 22.4123 -1.04218 49.106 22.4123 -1.04218
378 2 48.7898 22.656 -4.25365 48.7898 22.656 -4.25365
379 1 50.1388 24.1707 -2.63103 -1.15286 24.1707 -2.63103
380 2 52.1958 24.1045 -1.13319 0.904125 24.1045 -1.13319
381 2 52.0038 24.1851 -4.36216 0.712185 24.1851 -4.36216
382 1 53.2888 25.7831 -2.76712 1.99716 25.7831 -2.76712
383 2 55.2865 25.7934 -1.18556 3.99487 25.7934 -1.18556
384 2 55.2229 25.7101 -4.41926 3.93121 25.7101 -4.41926
385 1 4.72338 23.9796 -2.77534 4.72338 23.9796 -2.77534
386 2 6.44591 24.316 -0.917851 6.44591 24.316 -0.917851
387 2 6.89412 23.6239 -4.04823 6.89412 23.6239 -4.04823
388 1 7.87269 25.5901 -2.6586 7.87269 25.5901 -2.6586
389 2 9.52418 26.0092 -0.753029 9.52418 26.0092 -0.753029
390 2 10.088 25.1816 -3.83232 10.088 25.1816 -3.83232
391 1 10.4836 23.8986 -1.70723 10.4836 23.8986 -1.70723
392 2 11.8862 24.5864 0.312735 11.8862 24.5864 0.312735
393 2 12.814 23.3698 -2.54559 12.814 23.3698 -2.54559
394 1 13.5835 25.5608 -1.38378 13.5835 25.5608 -1.38378
395 2 14.9436 26.2893 0.646323 14.9436 26.2893 0.646323
396 2 15.9265 25.0249 -2.17305 15.9265 25.0249 -2.17305
397 1 16.0009 24.0804 0.156616 16.0009 24.0804 0.156616
398 2 17.3753 24.7252 2.19019 17.3753 24.7252 2.19019
399 2 18.3291 23.631 -0.708382 18.3291 23.631 -0.708382
400 1 19.0804 25.7723 0.537929 19.0804 25.7723 0.537929
401 2 20.5031 26.353 2.55853 20.5031 26.353 2.55853
402 2 21.3911 25.3541 -0.393839 21.3911 25.3541 -0.393839
403 1 21.5978 24.2091 1.85286 21.5978 24.2091 1.85286
404 2 23.2858 24.4514 3.74008 23.2858 24.4514 3.74008
405 2 23.7794 23.9773 0.576512 23.7794 23.9773 0.576512
406 1 24.7278 25.8487 2.09058 24.7278 25.8487 2.09058
407 2 26.4876 26.0024 3.92173 26.4876 26.0024 3.92173
408 2 26.8635 25.6769 0.72412 26.8635 25.6769 0.72412
409 1 27.4271 24.0817 2.59903 27.4271 24.0817 2.59903
410 2 29.4617 23.896 4.11506 29.4617 23.896 4.11506
411 2 29.3239 24.2085 0.897841 29.3239 24.2085 0.897841
412 1 30.5839 25.6898 2.6037 30.5839 25.6898 2.6037
413 2 32.6765 25.4358 4.02707 32.6765 25.4358 4.02707
414 2 32.4134 25.8956 0.83497 32.4134 25.8956 0.83497
415 1 33.279 23.9138 2.11712 33.279 23.9138 2.11712
416 2 35.548 23.4483 3.15398 35.548 23.4483 3.15398
417 2 34.8309 24.4432 0.155866 34.8309 24.4432 0.155866
418 1 36.408 25.5491 1.88624 36.408 25.5491 1.88624
419 2 38.7043 25.0529 2.84091 38.7043 25.0529 2.84091
420 2 37.9001 26.1451 -0.101928 37.9001 26.1451 -0.101928
421 1 38.9138 23.9654 0.586358 38.9138 23.9654 0.586358
422 2 41.2633 23.4463 1.35366 41.2633 23.4463 1.35366
423 2 40.2402 24.7083 -1.45275 40.2402 24.7083 -1.45275
424 1 41.9926 25.6536 0.207101 41.9926 25.6536 0.207101
425 2 44.3395 25.1599 0.992785 44.3395 25.1599 0.992785
426 2 43.3188 26.3725 -1.83615 43.3188 26.3725 -1.83615
427 1 44.4166 24.1808 -1.33306 44.4166 24.1808 -1.33306
428 2 46.6923 23.8209 -0.286942 46.6923 23.8209 -0.286942
429 2 45.9241 24.6458 -3.32411 45.9241 24.6458 -3.32411
430 1 47.5194 25.8472 -1.66597 47.5194 25.8472 -1.66597
431 2 49.7653 25.5353 -0.535427 49.7653 25.5353 -0.535427
432 2 49.0917 26.2238 -3.62741 49.0917 26.2238 -3.62741
433 1 50.6327 27.5015 -1.97438 -0.658904 27.5015 -1.97438
434 2 52.8426 27.2456 -0.754926 1.55095 27.2456 -0.754926
435 2 52.2741 27.7844 -3.89626 0.98246 27.7844 -3.89626
436 1 53.7565 29.1442 -2.25402 2.46482 29.1442 -2.25402
437 2 55.9216 28.9482 -0.939916 4.62996 28.9482 -0.939916
438 2 55.4735 29.3327 -4.12214 4.1819 29.3327 -4.12214
439 1 5.15201 27.3897 -2.85745 5.15201 27.3897 -2.85745
440 2 7.08463 27.4809 -1.19564 7.08463 27.4809 -1.19564
441 2 7.15342 27.2341 -4.42089 7.15342 27.2341 -4.42089
442 1 8.3098 28.9934 -2.89732 8.3098 28.9934 -2.89732
443 2 10.174 29.1682 -1.16231 10.174 29.1682 -1.16231
444 2 10.3739 28.7615 -4.36608 10.3739 28.7615 -4.36608
445 1 11.015 27.2082 -2.49473 11.015 27.2082 -2.49473
446 2 12.598 27.7073 -0.550171 12.598 27.7073 -0.550171
447 2 13.2682 26.7546 -3.57243 13.2682 26.7546 -3.57243
448 1 14.1491 28.8357 -2.28792 14.1491 28.8357 -2.28792
449 2 15.6677 29.4086 -0.312615 15.6677 29.4086 -0.312615
450 2 16.4337 28.3458 -3.27581 16.4337 28.3458 -3.27581
451 1 16.6732 27.2345 -1.03542 16.6732 27.2345 -1.03542
452 2 18.0051 27.9806 1.00137 18.0051 27.9806 1.00137
453 2 19.0226 26.7058 -1.80112 19.0226 26.7058 -1.80112
454 1 19.7544 28.9191 -0.665277 19.7544 28.9191 -0.665277
455 2 21.0751 29.6568 1.37669 21.0751 29.6568 1.37669
456 2 22.1048 28.4112 -1.43435 22.1048 28.4112 -1.43435
457 1 22.1684 27.4568 0.900879 22.1684 27.4568 0.900879
458 2 23.6478 27.9641 2.9022 23.6478 27.9641 2.9022
459 2 24.457 27.0745 -0.106033 24.457 27.0745 -0.106033
460 1 25.2668 29.1314 1.24079 25.2668 29.1314 1.24079
461 2 26.809 29.5572 3.21541 26.809 29.5572 3.21541
462 2 27.5279 28.7917 0.151776 27.5279 28.7917 0.151776
463 1 27.8672 27.478 2.28646 27.8672 27.478 2.28646
464 2 29.6983 27.5447 4.05259 29.6983 27.5447 4.05259
465 2 29.9516 27.3713 0.831684 29.9516 27.3713 0.831684
466 1 31.0149 29.0984 2.43737 31.0149 29.0984 2.43737
467 2 32.9149 29.0784 4.13044 32.9149 29.0784 4.13044
468 2 33.0433 29.0638 0.897727 33.0433 29.0638 0.897727
469 1 33.7401 27.2983 2.55706 33.7401 27.2983 2.55706
470 2 35.8836 26.9802 3.88655 35.8836 26.9802 3.88655
471 2 35.5025 27.5865 0.730261 35.5025 27.5865 0.730261
472 1 36.8935 28.9095 2.46521 36.8935 28.9095 2.46521
473 2 39.0841 28.535 3.69782 39.0841 28.535 3.69782
474 2 38.5868 29.2783 0.586531 38.5868 29.2783 0.586531
475 1 39.5277 27.1939 1.61796 39.5277 27.1939 1.61796
476 2 41.8471 26.6752 2.49695 41.8471 26.6752 2.49695
477 2 40.9628 27.8488 -0.392212 40.9628 27.8488 -0.392212
478 1 42.6368 28.8489 1.31262 42.6368 28.8489 1.31262
479 2 44.9751 28.3198 2.12694 44.9751 28.3198 2.12694
480 2 44.0185 29.5501 -0.716075 44.0185 29.5501 -0.716075
481 1 45.0672 27.347 -0.188239 45.0672 27.347 -0.188239
482 2 47.407 26.8851 0.636092 47.407 26.8851 0.636092
483 2 46.4114 28.0209 -2.2329 46.4114 28.0209 -2.2329
484 1 48.1417 29.0418 -0.592781 48.1417 29.0418 -0.592781
485 2 50.4682 28.6145 0.2908 50.4682 28.6145 0.2908
486 2 49.5248 29.6515 -2.63184 49.5248 29.6515 -2.63184
487 1 51.2215 30.7313 -0.992984 -0.0701202 30.7313 -0.992984
488 2 53.5289 30.3397 -0.0365662 2.23724 30.3397 -0.0365662
489 2 52.6589 31.2666 -3.01713 1.36727 31.2666 -3.01713
490 1 54.3116 32.4106 -1.37552 3.01996 32.4106 -1.37552
491 2 56.5926 32.0596 -0.334637 5.30095 32.0596 -0.334637
492 2 55.8142 32.8626 -3.37459 4.52255 32.8626 -3.37459
493 1 5.59989 30.7745 -2.49223 5.59989 30.7745 -2.49223
494 2 7.71395 30.6445 -1.08419 7.71395 30.6445 -1.08419
495 2 7.3927 30.8702 -4.29611 7.3927 30.8702 -4.29611
496 1 8.74485 32.3946 -2.68442 8.74485 32.3946 -2.68442
497 2 10.8029 32.3367 -1.18629 10.8029 32.3367 -1.18629
498 2 10.6111 32.3997 -4.41532 10.6111 32.3997 -4.41532
499 1 11.4682 30.5968 -2.88613 11.4682 30.5968 -2.88613
500 2 13.2629 30.8568 -1.08706 13.2629 30.8568 -1.08706
501 2 13.5884 30.2956 -4.25752 13.5884 30.2956 -4.25752
502 1 14.6249 32.2028 -2.8263 14.6249 32.2028 -2.8263
503 2 16.3473 32.5455 -0.969431 16.3473 32.5455 -0.969431
504 2 16.7972 31.8425 -4.09672 16.7972 31.8425 -4.09672
505 1 17.274 30.4738 -2.04166 17.274 30.4738 -2.04166
506 2 18.7306 31.1119 -0.0406918 18.7306 31.1119 -0.0406918
507 2 19.5855 29.9583 -2.94601 19.5855 29.9583 -2.94601
508 1 20.3878 32.1245 -1.75466 20.3878 32.1245 -1.75466
509 2 21.7889 32.8182 0.264925 21.7889 32.8182 0.264925
510 2 22.7199 31.5922 -2.58783 22.7199 31.5922 -2.58783
511 1 22.8294 30.6133 -0.276317 22.8294 30.6133 -0.276317
512 2 24.1628 31.3175 1.76603 24.1628 31.3175 1.76603
513 2 25.1737 30.1326 -1.07754 25.1737 30.1326 -1.07754
514 1 25.9039 32.3108 0.118991 25.9039 32.3108 0.118991
515 2 27.2709 32.9628 2.15565 27.2709 32.9628 2.15565
516 2 28.2361 31.8596 -0.735609 28.2361 31.8596 -0.735609
517 1 28.3762 30.7948 1.55408 28.3762 30.7948 1.55408
518 2 29.9871 31.1334 3.49223 29.9871 31.1334 3.49223
519 2 30.603 30.5039 0.376628 30.603 30.5039 0.376628
520 1 31.497 32.4458 1.83468 31.497 32.4458 1.83468
521 2 33.1775 32.6941 3.72821 33.1775 32.6941 3.72821
522 2 33.6847 32.211 0.568051 33.6847 32.211 0.568051
523 1 34.1685 30.7118 2.54359 34.1685 30.7118 2.54359
524 2 36.1346 30.6097 4.15629 36.1346 30.6097 4.15629
525 2 36.1369 30.7528 0.924248 36.1369 30.7528 0.924248
526 1 37.3263 32.3204 2.60317 37.3263 32.3204 2.60317
527 2 39.3559 32.141 4.12744 39.3559 32.141 4.12744
528 2 39.2298 32.44 0.908448 39.2298 32.44 0.908448
529 1 40.042 30.5255 2.32567 40.042 30.5255 2.32567
530 2 42.2751 30.1035 3.46044 42.2751 30.1035 3.46044
531 2 41.6649 30.9717 0.40113 41.6649 30.9717 0.40113
532 1 43.1832 32.1486 2.13595 43.1832 32.1486 2.13595
533 2 45.4538 31.6874 3.17324 45.4538 31.6874 3.17324
534 2 44.735 32.6689 0.171262 44.735 32.6689 0.171262
535 1 45.7335 30.5159 0.968145 45.7335 30.5159 0.968145
536 2 48.084 29.9876 1.73799 48.084 29.9876 1.73799
537 2 47.0725 31.2467 -1.07377 47.0725 31.2467 -1.07377
538 1 48.8184 32.1944 0.589185 48.8184 32.1944 0.589185