ITEM: TIMESTEP
1570000
ITEM: NUMBER OF ATOMS
810
ITEM: BOX BOUNDS xy xz yz pp pp pp
8.6298438867990135e-01 5.9908587252165098e+01 7.7539666408459311e+00
8.1394622342039402e-01 5.0202268776579182e+01 0.0000000000000000e+00
-1.0000000000000000e+01 1.0000000000000000e+01 0.0000000000000000e+00
ITEM: ATOMS id type x y z xu yu zu
1 1 46.7301 1.14894 1.96448 -4.56157 1.14894 1.96448
2 2 48.4912 1.29844 3.79108 -2.80042 1.29844 3.79108
3 2 48.8583 0.982579 0.589531 -2.4333 0.982579 0.589531
4 1 49.8557 2.77576 2.1554 -1.43595 2.77576 2.1554
5 2 51.688 2.83695 3.91644 0.396405 2.83695 3.91644
6 2 51.9318 2.6754 0.692203 0.640136 2.6754 0.692203
7 1 1.28512 0.994314 2.45706 1.28512 0.994314 2.45706
8 2 11.1273 50.1345 3.88298 3.37331 0.746165 3.88298
9 2 3.11042 1.19578 0.68747 3.11042 1.19578 0.68747
10 1 4.42597 2.60083 2.40729 4.42597 2.60083 2.40729
11 2 6.56659 2.28922 3.73815 6.56659 2.28922 3.73815
12 2 6.18253 2.88417 0.578241 6.18253 2.88417 0.578241
13 1 7.09867 0.857943 1.7422 7.09867 0.857943 1.7422
14 2 17.1438 49.7632 2.7105 9.38979 0.374844 2.7105
15 2 8.5917 1.43837 -0.246055 8.5917 1.43837 -0.246055
16 1 10.2028 2.50226 1.47155 10.2028 2.50226 1.47155
17 2 12.5139 1.99382 2.37114 12.5139 1.99382 2.37114
18 2 11.645 3.14473 -0.53323 11.645 3.14473 -0.53323
19 1 12.6831 0.960456 0.0895161 12.6831 0.960456 0.0895161
20 2 22.7739 49.8665 0.90743 15.02 0.478137 0.90743
21 2 14.0281 1.65904 -1.94603 14.0281 1.65904 -1.94603
22 1 15.7483 2.65266 -0.286624 15.7483 2.65266 -0.286624
23 2 18.0734 2.19576 0.577229 18.0734 2.19576 0.577229
24 2 17.1205 3.31146 -2.31501 17.1205 3.31146 -2.31501
25 1 18.2249 1.14465 -1.71532 18.2249 1.14465 -1.71532
26 2 20.4548 0.838412 -0.555028 20.4548 0.838412 -0.555028
27 2 19.818 1.51473 -3.65859 19.818 1.51473 -3.65859
28 1 21.329 2.80104 -1.98963 21.329 2.80104 -1.98963
29 2 23.5215 2.54424 -0.743598 23.5215 2.54424 -0.743598
30 2 22.9889 3.08794 -3.89173 22.9889 3.08794 -3.89173
31 1 23.9949 1.08807 -2.75284 23.9949 1.08807 -2.75284
32 2 25.9815 1.09587 -1.16108 25.9815 1.09587 -1.16108
33 2 25.9333 1.02705 -4.39688 25.9333 1.02705 -4.39688
34 1 27.1347 2.70226 -2.82158 27.1347 2.70226 -2.82158
35 2 29.0618 2.78328 -1.1576 29.0618 2.78328 -1.1576
36 2 29.1333 2.56586 -4.38642 29.1333 2.56586 -4.38642
37 1 29.8595 0.911014 -2.63829 29.8595 0.911014 -2.63829
38 2 31.5172 1.31401 -0.738921 31.5172 1.31401 -0.738921
39 2 39.8196 49.9091 -3.83116 32.0657 0.520806 -3.83116
40 1 32.9877 2.53372 -2.47819 32.9877 2.53372 -2.47819
41 2 34.5817 3.00903 -0.54082 34.5817 3.00903 -0.54082
42 2 35.2301 2.10121 -3.58266 35.2301 2.10121 -3.58266
43 1 35.5726 0.880901 -1.41361 35.5726 0.880901 -1.41361
44 2 36.9487 1.58571 0.611345 36.9487 1.58571 0.611345
45 2 45.6606 49.7468 -2.23389 37.9066 0.358447 -2.23389
46 1 38.6524 2.55244 -1.07695 38.6524 2.55244 -1.07695
47 2 40.0002 3.27217 0.95659 40.0002 3.27217 0.95659
48 2 40.9934 2.03775 -1.87381 40.9934 2.03775 -1.87381
49 1 41.0817 1.07757 0.451365 41.0817 1.07757 0.451365
50 2 42.514 1.64371 2.46657 42.514 1.64371 2.46657
51 2 51.1381 50.0567 -0.500502 43.3841 0.668416 -0.500502
52 1 44.1587 2.75818 0.805359 44.1587 2.75818 0.805359
53 2 45.6448 3.24896 2.80291 45.6448 3.24896 2.80291
54 2 46.4396 2.38843 -0.219305 46.4396 2.38843 -0.219305
55 1 47.2441 4.43001 1.14232 -4.04752 4.43001 1.14232
56 2 48.7938 4.83871 3.11163 -2.49779 4.83871 3.11163
57 2 49.4962 4.10292 0.0350725 -1.79539 4.10292 0.0350725
58 1 50.3403 6.09008 1.45145 -0.951309 6.09008 1.45145
59 2 51.9595 6.41321 3.38199 0.667845 6.41321 3.38199
60 2 52.5563 5.8103 0.255552 1.26468 5.8103 0.255552
61 1 1.69689 4.39378 2.30205 1.69689 4.39378 2.30205
62 2 3.59861 4.37021 3.98907 3.59861 4.37021 3.98907
63 2 3.71568 4.36407 0.753972 3.71568 4.36407 0.753972
64 1 4.83515 6.00519 2.40151 4.83515 6.00519 2.40151
65 2 6.80234 5.90077 4.00813 6.80234 5.90077 4.00813
66 2 6.79327 6.05094 0.774384 6.79327 6.05094 0.774384
67 1 7.56297 4.21099 2.30998 7.56297 4.21099 2.30998
68 2 9.7484 3.84216 3.54766 9.7484 3.84216 3.54766
69 2 9.25301 4.5771 0.432192 9.25301 4.5771 0.432192
70 1 10.6945 5.82713 2.17235 10.6945 5.82713 2.17235
71 2 12.9173 5.40916 3.32154 12.9173 5.40916 3.32154
72 2 12.3219 6.2727 0.256163 12.3219 6.2727 0.256163
73 1 13.2976 4.15712 1.17736 13.2976 4.15712 1.17736
74 2 15.6233 3.63367 2.0227 15.6233 3.63367 2.0227
75 2 14.6968 4.84877 -0.838086 14.6968 4.84877 -0.838086
76 1 16.3833 5.82269 0.863195 16.3833 5.82269 0.863195
77 2 18.7186 5.2984 1.67286 18.7186 5.2984 1.67286
78 2 17.7483 6.54416 -1.16042 17.7483 6.54416 -1.16042
79 1 18.8165 4.34438 -0.6527 18.8165 4.34438 -0.6527
80 2 21.1256 3.9155 0.270367 21.1256 3.9155 0.270367
81 2 20.2297 4.94881 -2.66962 20.2297 4.94881 -2.66962
82 1 21.891 6.03086 -1.002 21.891 6.03086 -1.002
83 2 24.1809 5.63505 -0.0119376 24.1809 5.63505 -0.0119376
84 2 23.3533 6.5692 -3.00374 23.3533 6.5692 -3.00374
85 1 24.442 4.44683 -2.22845 24.442 4.44683 -2.22845
86 2 26.5933 4.2453 -0.897907 26.5933 4.2453 -0.897907
87 2 26.1684 4.64888 -4.08255 26.1684 4.64888 -4.08255
88 1 27.563 6.08277 -2.43183 27.563 6.08277 -2.43183
89 2 29.6681 5.94149 -1.01721 29.6681 5.94149 -1.01721
90 2 29.3567 6.19994 -4.2293 29.3567 6.19994 -4.2293
91 1 30.276 4.31341 -2.84641 30.276 4.31341 -2.84641
92 2 32.1412 4.47039 -1.11587 32.1412 4.47039 -1.11587
93 2 32.3313 4.10641 -4.32684 32.3313 4.10641 -4.32684
94 1 33.4174 5.92365 -2.82679 33.4174 5.92365 -2.82679
95 2 35.2177 6.15784 -1.03487 35.2177 6.15784 -1.03487
96 2 35.5261 5.65182 -4.21769 35.5261 5.65182 -4.21769
97 1 36.1083 4.16388 -2.27662 36.1083 4.16388 -2.27662
98 2 37.64 4.70641 -0.306661 37.64 4.70641 -0.306661
99 2 38.3822 3.69736 -3.29571 38.3822 3.69736 -3.29571
100 1 39.2196 5.80308 -2.03327 39.2196 5.80308 -2.03327
101 2 40.692 6.40582 -0.0365427 40.692 6.40582 -0.0365427
102 2 41.52 5.31176 -2.9738 41.52 5.31176 -2.9738
103 1 41.7234 4.23365 -0.715493 41.7234 4.23365 -0.715493
104 2 43.0587 4.94287 1.32496 43.0587 4.94287 1.32496
105 2 44.0658 3.74093 -1.51459 44.0658 3.74093 -1.51459
106 1 44.7872 5.92371 -0.331282 44.7872 5.92371 -0.331282
107 2 46.133 6.6 1.71003 46.133 6.6 1.71003
108 2 47.1237 5.45899 -1.16006 47.1237 5.45899 -1.16006
109 1 47.8495 7.61725 0.0616967 -3.44214 7.61725 0.0616967
110 2 49.2313 8.24259 2.09405 -2.06031 8.24259 2.09405
111 2 50.1715 7.17978 -0.822119 -1.12017 7.17978 -0.822119
112 1 50.9178 9.30561 0.44204 -0.373884 9.30561 0.44204
113 2 52.3496 9.86795 2.45879 1.05801 9.86795 2.45879
114 2 53.2203 8.8974 -0.509832 1.9287 8.8974 -0.509832
115 1 2.1561 7.73745 1.72442 2.1561 7.73745 1.72442
116 2 3.84613 7.9737 3.60739 3.84613 7.9737 3.60739
117 2 4.3305 7.51098 0.438675 4.3305 7.51098 0.438675
118 1 5.27372 9.37308 1.95769 5.27372 9.37308 1.95769
119 2 7.03214 9.52117 3.78701 7.03214 9.52117 3.78701
120 2 7.40359 9.20796 0.585473 7.40359 9.20796 0.585473
121 1 7.97652 7.61268 2.45439 7.97652 7.61268 2.45439
122 2 10.0021 7.43203 3.97853 10.0021 7.43203 3.97853
123 2 9.87401 7.73815 0.758137 9.87401 7.73815 0.758137
124 1 11.1186 9.21931 2.467 11.1186 9.21931 2.467
125 2 13.1976 8.96802 3.90556 13.1976 8.96802 3.90556
126 2 12.9547 9.42625 0.70966 12.9547 9.42625 0.70966
127 1 13.8195 7.45105 2.00029 13.8195 7.45105 2.00029
128 2 16.0749 6.99281 3.06396 16.0749 6.99281 3.06396
129 2 15.386 7.97033 0.0520099 15.386 7.97033 0.0520099
130 1 16.9364 9.08437 1.79362 16.9364 9.08437 1.79362
131 2 19.2211 8.59586 2.77441 19.2211 8.59586 2.77441
132 2 18.4424 9.67015 -0.183108 18.4424 9.67015 -0.183108
133 1 19.4596 7.49954 0.527866 19.4596 7.49954 0.527866
134 2 21.799 6.98854 1.32675 21.799 6.98854 1.32675
135 2 20.8047 8.22635 -1.50184 20.8047 8.22635 -1.50184
136 1 22.5282 9.18661 0.172587 22.5282 9.18661 0.172587
137 2 24.8656 8.69838 0.986181 24.8656 8.69838 0.986181
138 2 23.8722 9.89448 -1.8604 23.8722 9.89448 -1.8604
139 1 24.973 7.70963 -1.3331 24.973 7.70963 -1.3331
140 2 27.239 7.35114 -0.269028 27.239 7.35114 -0.269028
141 2 26.4916 8.17395 -3.31314 26.4916 8.17395 -3.31314
142 1 28.0643 9.37818 -1.64171 28.0643 9.37818 -1.64171
143 2 30.3016 9.06422 -0.498629 30.3016 9.06422 -0.498629
144 2 29.6435 9.76174 -3.59324 29.6435 9.76174 -3.59324
145 1 30.6914 7.70957 -2.59651 30.6914 7.70957 -2.59651
146 2 32.746 7.63415 -1.10037 32.746 7.63415 -1.10037
147 2 32.5512 7.74305 -4.32968 32.5512 7.74305 -4.32968
148 1 33.826 9.32898 -2.72117 33.826 9.32898 -2.72117
149 2 35.8241 9.32354 -1.14477 35.8241 9.32354 -1.14477
150 2 35.7519 9.28127 -4.38045 35.7519 9.28127 -4.38045
151 1 36.557 7.53504 -2.76065 36.557 7.53504 -2.76065
152 2 38.2895 7.84658 -0.912324 38.2895 7.84658 -0.912324
153 2 38.7157 7.20533 -4.05759 38.7157 7.20533 -4.05759
154 1 39.6926 9.14994 -2.64503 39.6926 9.14994 -2.64503
155 2 41.3564 9.539 -0.747809 41.3564 9.539 -0.747809
156 2 41.8956 8.76872 -3.84735 41.8956 8.76872 -3.84735
157 1 42.3203 7.45276 -1.74926 42.3203 7.45276 -1.74926
158 2 43.7386 8.10854 0.267691 43.7386 8.10854 0.267691
159 2 44.6416 6.94397 -2.621 44.6416 6.94397 -2.621
160 1 45.4096 9.11334 -1.42948 45.4096 9.11334 -1.42948
161 2 46.7849 9.81005 0.599447 46.7849 9.81005 0.599447
162 2 47.7443 8.59526 -2.25086 47.7443 8.59526 -2.25086
163 1 48.4889 10.7836 -1.08366 -2.80273 10.7836 -1.08366
164 2 49.8363 11.4987 0.952173 -1.45532 11.4987 0.952173
165 2 50.8301 10.2705 -1.88089 -0.461515 10.2705 -1.88089
166 1 51.5601 12.4631 -0.717217 0.268478 12.4631 -0.717217
167 2 52.8995 13.1708 1.32138 1.60785 13.1708 1.32138
168 2 2.60902 11.9671 -1.51971 2.60902 11.9671 -1.51971
169 1 2.70378 10.9845 0.799983 2.70378 10.9845 0.799983
170 2 4.19099 11.4738 2.79718 4.19099 11.4738 2.79718
171 2 4.98393 10.613 -0.225688 4.98393 10.613 -0.225688
172 1 5.79083 12.6535 1.1363 5.79083 12.6535 1.1363
173 2 7.33633 13.0621 3.10896 7.33633 13.0621 3.10896
174 2 8.04523 12.3266 0.0335974 8.04523 12.3266 0.0335974
175 1 8.39933 10.9994 2.15459 8.39933 10.9994 2.15459
176 2 10.2234 11.0601 3.92415 10.2234 11.0601 3.92415
177 2 10.4819 10.9021 0.700654 10.4819 10.9021 0.700654
178 1 11.5312 12.6189 2.31746 11.5312 12.6189 2.31746
179 2 13.42 12.5949 4.019 13.42 12.5949 4.019
180 2 13.5618 12.5934 0.78493 13.5618 12.5934 0.78493
181 1 14.2598 10.8275 2.4415 14.2598 10.8275 2.4415
182 2 16.3901 10.513 3.78841 16.3901 10.513 3.78841
183 2 16.0307 11.115 0.627195 16.0307 11.115 0.627195
184 1 17.3984 12.4394 2.37232 17.3984 12.4394 2.37232
185 2 19.5767 12.0693 3.62298 19.5767 12.0693 3.62298
186 2 19.1007 12.8065 0.5056 19.1007 12.8065 0.5056
187 1 20.0434 10.729 1.5485 20.0434 10.729 1.5485
188 2 22.3518 10.2184 2.45518 22.3518 10.2184 2.45518
189 2 21.4933 11.3733 -0.450318 21.4933 11.3733 -0.450318
190 1 23.14 12.3849 1.26766 23.14 12.3849 1.26766
191 2 25.4671 11.8626 2.11241 25.4671 11.8626 2.11241
192 2 24.5395 13.0757 -0.748438 24.5395 13.0757 -0.748438
193 1 25.593 10.88 -0.196498 25.593 10.88 -0.196498
194 2 27.9222 10.4197 0.655488 27.9222 10.4197 0.655488
195 2 26.9566 11.5469 -2.22807 26.9566 11.5469 -2.22807
196 1 28.6589 12.5738 -0.568802 28.6589 12.5738 -0.568802
197 2 30.9748 12.1442 0.337957 30.9748 12.1442 0.337957
198 2 30.0588 13.1841 -2.5935 30.0588 13.1841 -2.5935
199 1 31.1651 11.0362 -1.92601 31.1651 11.0362 -1.92601
200 2 33.3675 10.7729 -0.699303 33.3675 10.7729 -0.699303
201 2 32.8093 11.3347 -3.83986 32.8093 11.3347 -3.83986
202 1 34.2756 12.6834 -2.18081 34.2756 12.6834 -2.18081
203 2 36.4361 12.4759 -0.86592 36.4361 12.4759 -0.86592
204 2 35.9898 12.8942 -4.04568 35.9898 12.8942 -4.04568
205 1 36.9655 10.9424 -2.80058 36.9655 10.9424 -2.80058
206 2 38.902 11.0119 -1.1471 38.902 11.0119 -1.1471
207 2 38.9557 10.8163 -4.37755 38.9557 10.8163 -4.37755
208 1 40.1078 12.5518 -2.83205 40.1078 12.5518 -2.83205
209 2 41.9791 12.6998 -1.10704 41.9791 12.6998 -1.10704
210 2 42.1585 12.3517 -4.32038 42.1585 12.3517 -4.32038
211 1 42.8218 10.7705 -2.48196 42.8218 10.7705 -2.48196
212 2 44.4187 11.2359 -0.544125 44.4187 11.2359 -0.544125
213 2 45.063 10.3439 -3.59156 45.063 10.3439 -3.59156
214 1 45.9431 12.3984 -2.27553 45.9431 12.3984 -2.27553
215 2 47.4774 12.9349 -0.305625 47.4774 12.9349 -0.305625
216 2 48.2158 11.9343 -3.29861 48.2158 11.9343 -3.29861
217 1 49.0556 14.0349 -2.03055 -2.23607 14.0349 -2.03055
218 2 50.5318 14.6359 -0.0358615 -0.759842 14.6359 -0.0358615
219 2 51.354 13.5414 -2.97477 0.0623918 13.5414 -2.97477
220 1 52.1586 15.6809 -1.75075 0.867007 15.6809 -1.75075
221 2 53.5801 16.3338 0.264945 2.28846 16.3338 0.264945
222 2 3.18726 15.1713 -2.62589 3.18726 15.1713 -2.62589
223 1 3.33527 14.1489 -0.337396 3.33527 14.1489 -0.337396
224 2 4.68232 14.8247 1.7035 4.68232 14.8247 1.7035
225 2 5.67142 13.6814 -1.1663 5.67142 13.6814 -1.1663
226 1 6.39989 15.8393 0.054958 6.39989 15.8393 0.054958
227 2 7.77393 16.4635 2.09327 7.77393 16.4635 2.09327
228 2 8.7262 15.4045 -0.820391 8.7262 15.4045 -0.820391
229 1 8.88693 14.3129 1.45254 8.88693 14.3129 1.45254
230 2 10.4942 14.6361 3.3931 10.4942 14.6361 3.3931
231 2 11.1106 14.037 0.269632 11.1106 14.037 0.269632
232 1 11.9922 15.9631 1.74626 11.9922 15.9631 1.74626
233 2 13.6667 16.199 3.64363 13.6667 16.199 3.64363
234 2 14.1783 15.7424 0.478547 14.1783 15.7424 0.478547
235 1 14.6685 14.2334 2.44316 14.6685 14.2334 2.44316
236 2 16.6233 14.1287 4.06561 16.6233 14.1287 4.06561
237 2 16.6404 14.2821 0.832507 16.6404 14.2821 0.832507
238 1 17.8103 15.8441 2.52314 17.8103 15.8441 2.52314
239 2 19.8301 15.665 4.0569 19.8301 15.665 4.0569
240 2 19.7173 15.9687 0.83648 19.7173 15.9687 0.83648
241 1 20.5321 14.0571 2.25525 20.5321 14.0571 2.25525
242 2 22.7538 13.6414 3.40948 22.7538 13.6414 3.40948
243 2 22.1646 14.4999 0.342156 22.1646 14.4999 0.342156
244 1 23.6589 15.683 2.08742 23.6589 15.683 2.08742
245 2 25.9171 15.2294 3.1499 25.9171 15.2294 3.1499
246 2 25.2246 16.1974 0.136298 25.2246 16.1974 0.136298
247 1 26.2259 14.0524 0.95205 26.2259 14.0524 0.95205
248 2 28.5651 13.5301 1.75572 28.5651 13.5301 1.75572
249 2 27.5866 14.772 -1.0761 27.5866 14.772 -1.0761
250 1 29.3022 15.7307 0.606179 29.3022 15.7307 0.606179
251 2 31.6473 15.222 1.39358 31.6473 15.222 1.39358
252 2 30.6384 16.4564 -1.43103 30.6384 16.4564 -1.43103
253 1 31.7301 14.2629 -0.934429 31.7301 14.2629 -0.934429
254 2 34.0273 13.8663 0.0396298 34.0273 13.8663 0.0396298
255 2 33.1797 14.8059 -2.94477 33.1797 14.8059 -2.94477
256 1 34.8103 15.943 -1.2832 34.8103 15.943 -1.2832
257 2 37.0834 15.5856 -0.232887 37.0834 15.5856 -0.232887
258 2 36.3175 16.4094 -3.27204 36.3175 16.4094 -3.27204
259 1 37.396 14.3193 -2.39819 37.396 14.3193 -2.39819
260 2 39.5087 14.174 -0.994899 39.5087 14.174 -0.994899
261 2 39.1809 14.4416 -4.20456 39.1809 14.4416 -4.20456
262 1 40.5252 15.9449 -2.57464 40.5252 15.9449 -2.57464
263 2 42.5852 15.8683 -1.08524 42.5852 15.8683 -1.08524
264 2 42.3796 15.9789 -4.3139 42.3796 15.9789 -4.3139
265 1 43.2507 14.1595 -2.81484 43.2507 14.1595 -2.81484
266 2 45.0555 14.3888 -1.02652 45.0555 14.3888 -1.02652
267 2 45.3562 13.8903 -4.21142 45.3562 13.8903 -4.21142
268 1 46.3921 15.7679 -2.75205 46.3921 15.7679 -2.75205
269 2 48.1287 16.0784 -0.907241 48.1287 16.0784 -0.907241
270 2 48.5479 15.4368 -4.05355 48.5479 15.4368 -4.05355
271 1 49.5301 17.3795 -2.64267 -1.76155 17.3795 -2.64267
272 2 51.1976 17.7681 -0.748359 -0.0940311 17.7681 -0.748359
273 2 51.731 16.9961 -3.84853 0.439385 16.9961 -3.84853
274 1 52.6623 18.9969 -2.48505 1.37071 18.9969 -2.48505
275 2 54.2606 19.4618 -0.547745 2.96896 19.4618 -0.547745
276 2 3.6119 18.5686 -3.59513 3.6119 18.5686 -3.59513
277 1 3.95896 17.3386 -1.4329 3.95896 17.3386 -1.4329
278 2 5.3345 18.0305 0.597771 5.3345 18.0305 0.597771
279 2 6.2946 16.8225 -2.25511 6.2946 16.8225 -2.25511
280 1 7.04025 19.0076 -1.08182 7.04025 19.0076 -1.08182
281 2 8.38007 19.719 0.961083 8.38007 19.719 0.961083
282 2 9.38644 18.499 -1.87086 9.38644 18.499 -1.87086
283 1 9.46696 17.5289 0.449689 9.46696 17.5289 0.449689
284 2 10.8846 18.0895 2.47768 10.8846 18.0895 2.47768
285 2 11.778 17.1275 -0.486786 11.778 17.1275 -0.486786
286 1 12.5413 19.2126 0.833698 12.5413 19.2126 0.833698
287 2 14.0138 19.7011 2.84304 14.0138 19.7011 2.84304
288 2 14.8313 18.8474 -0.17471 14.8313 18.8474 -0.17471
289 1 15.1075 17.6036 2.00848 15.1075 17.6036 2.00848
290 2 16.8545 17.7523 3.84994 16.8545 17.7523 3.84994
291 2 17.2483 17.4415 0.651531 17.2483 17.4415 0.651531
292 1 18.2333 19.2343 2.228 18.2333 19.2343 2.228
293 2 20.0551 19.2977 4.00168 20.0551 19.2977 4.00168
294 2 20.3211 19.1351 0.779935 20.3211 19.1351 0.779935
295 1 20.9548 17.4533 2.54958 20.9548 17.4533 2.54958
296 2 23.0355 17.2061 3.98875 23.0355 17.2061 3.98875
297 2 22.7929 17.6558 0.792381 22.7929 17.6558 0.792381
298 1 24.0992 19.0634 2.52028 24.0992 19.0634 2.52028
299 2 26.2349 18.7561 3.86251 26.2349 18.7561 3.86251
300 2 25.8665 19.3437 0.700174 25.8665 19.3437 0.700174
301 1 26.7776 17.3183 1.87254 26.7776 17.3183 1.87254
302 2 29.0669 16.8363 2.84884 29.0669 16.8363 2.84884
303 2 28.2789 17.8972 -0.110569 28.2789 17.8972 -0.110569
304 1 29.8859 18.9646 1.61111 29.8859 18.9646 1.61111
305 2 32.1991 18.4601 2.51203 32.1991 18.4601 2.51203
306 2 31.3299 19.602 -0.395194 31.3299 19.602 -0.395194
307 1 32.3702 17.4193 0.233348 32.3702 17.4193 0.233348
308 2 34.7131 16.9335 1.0352 34.7131 16.9335 1.0352
309 2 33.7045 18.1257 -1.80758 33.7045 18.1257 -1.80758
310 1 35.4343 19.1134 -0.154632 35.4343 19.1134 -0.154632
311 2 37.7689 18.6567 0.685986 37.7689 18.6567 0.685986
312 2 36.7878 19.7785 -2.19442 36.7878 19.7785 -2.19442
313 1 37.9007 17.6124 -1.61013 37.9007 17.6124 -1.61013
314 2 40.1438 17.3008 -0.476725 40.1438 17.3008 -0.476725
315 2 39.4717 17.9946 -3.56911 39.4717 17.9946 -3.56911
316 1 41.0019 19.2699 -1.91083 41.0019 19.2699 -1.91083
317 2 43.209 19.0107 -0.690272 43.209 19.0107 -0.690272
318 2 42.6408 19.5632 -3.83065 42.6408 19.5632 -3.83065
319 1 43.6615 17.5619 -2.70908 43.6615 17.5619 -2.70908
320 2 45.6638 17.5582 -1.13711 45.6638 17.5582 -1.13711
321 2 45.5838 17.5109 -4.37267 45.5838 17.5109 -4.37267
322 1 46.8033 19.1723 -2.79831 46.8033 19.1723 -2.79831
323 2 48.7434 19.2452 -1.14824 48.7434 19.2452 -1.14824
324 2 48.791 19.0409 -4.37832 48.791 19.0409 -4.37832
325 1 49.9485 20.7786 -2.83946 -1.34309 20.7786 -2.83946
326 2 51.8216 20.9306 -1.11567 0.529915 20.9306 -1.11567
327 2 51.999 20.5725 -4.328 0.707408 20.5725 -4.328
328 1 53.0948 22.3835 -2.8284 1.80312 22.3835 -2.8284
329 2 54.8968 22.6157 -1.03669 3.60513 22.6157 -1.03669
330 2 55.2041 22.1101 -4.21971 3.91242 22.1101 -4.21971
331 1 4.49513 20.6224 -2.27928 4.49513 20.6224 -2.27928
332 2 6.02449 21.1574 -0.304706 6.02449 21.1574 -0.304706
333 2 6.77188 20.1601 -3.29642 6.77188 20.1601 -3.29642
334 1 7.60911 22.2587 -2.02332 7.60911 22.2587 -2.02332
335 2 9.07597 22.8602 -0.0212102 9.07597 22.8602 -0.0212102
336 2 9.9136 21.7674 -2.95618 9.9136 21.7674 -2.95618
337 1 10.1109 20.6889 -0.697989 10.1109 20.6889 -0.697989
338 2 11.4365 21.3955 1.35104 11.4365 21.3955 1.35104
339 2 12.4592 20.1986 -1.48482 12.4592 20.1986 -1.48482
340 1 13.1746 22.3794 -0.29357 13.1746 22.3794 -0.29357
341 2 14.5097 23.0579 1.75537 14.5097 23.0579 1.75537
342 2 15.5175 21.9143 -1.10718 15.5175 21.9143 -1.10718
343 1 15.6256 20.8874 1.19676 15.6256 20.8874 1.19676
344 2 17.164 21.2978 3.17622 17.164 21.2978 3.17622
345 2 17.8867 20.5615 0.105141 17.8867 20.5615 0.105141
346 1 18.7223 22.5506 1.52614 18.7223 22.5506 1.52614
347 2 20.3313 22.8777 3.46628 20.3313 22.8777 3.46628
348 2 20.9478 22.2711 0.345165 20.9478 22.2711 0.345165
349 1 21.3683 20.8563 2.39599 21.3683 20.8563 2.39599
350 2 23.2624 20.8373 4.09365 23.2624 20.8373 4.09365
351 2 23.3978 20.8252 0.860067 23.3978 20.8252 0.860067
352 1 24.5098 22.4718 2.51026 24.5098 22.4718 2.51026
353 2 26.4732 22.3745 4.12427 26.4732 22.3745 4.12427
354 2 26.476 22.5131 0.890833 26.476 22.5131 0.890833
355 1 27.2405 20.677 2.43524 27.2405 20.677 2.43524
356 2 29.425 20.3157 3.6799 29.425 20.3157 3.6799
357 2 28.9369 21.0358 0.56063 28.9369 21.0358 0.56063
358 1 30.3763 22.2962 2.29777 30.3763 22.2962 2.29777
359 2 32.6025 21.8888 3.4478 32.6025 21.8888 3.4478
360 2 32.0036 22.7306 0.37779 32.0036 22.7306 0.37779
361 1 32.9837 20.6215 1.3118 32.9837 20.6215 1.3118
362 2 35.3153 20.1049 2.15034 35.3153 20.1049 2.15034
363 2 34.3767 21.3053 -0.71222 34.3767 21.3053 -0.71222
364 1 36.0702 22.2894 0.977047 36.0702 22.2894 0.977047
365 2 38.4137 21.7731 1.77367 38.4137 21.7731 1.77367
366 2 37.4231 23.0021 -1.0596 37.4231 23.0021 -1.0596
367 1 38.4995 20.8079 -0.546823 38.4995 20.8079 -0.546823
368 2 40.8205 20.3838 0.350555 40.8205 20.3838 0.350555
369 2 39.8902 21.4138 -2.57983 39.8902 21.4138 -2.57983
370 1 41.5701 22.4974 -0.933053 41.5701 22.4974 -0.933053
371 2 43.8714 22.1069 0.0350676 43.8714 22.1069 0.0350676
372 2 43.0134 23.0328 -2.95056 43.0134 23.0328 -2.95056
373 1 44.1138 20.9152 -2.1808 44.1138 20.9152 -2.1808
374 2 46.2779 20.7133 -0.869389 46.2779 20.7133 -0.869389
375 2 45.825 21.118 -4.04996 45.825 21.118 -4.04996
376 1 47.2364 22.5485 -2.41187 47.2364 22.5485 -2.41187
377 2 49.3516 22.4097 -1.01019 49.3516 22.4097 -1.01019
378 2 49.02 22.6611 -4.22072 49.02 22.6611 -4.22072
379 1 50.368 24.1713 -2.60028 -0.923652 24.1713 -2.60028
380 2 52.4273 24.1007 -1.10816 1.13564 24.1007 -1.10816
381 2 52.2256 24.1957 -4.33739 0.933927 24.1957 -4.33739
382 1 53.5074 25.7854 -2.73883 2.21576 25.7854 -2.73883
383 2 55.505 25.7885 -1.15942 4.21335 25.7885 -1.15942
384 2 55.437 25.7245 -4.3948 4.14537 25.7245 -4.3948
385 1 4.94756 23.9898 -2.76203 4.94756 23.9898 -2.76203
386 2 6.6768 24.3051 -0.910096 6.6768 24.3051 -0.910096
387 2 7.11007 23.6545 -4.05261 7.11007 23.6545 -4.05261
388 1 8.08743 25.6004 -2.64263 8.08743 25.6004 -2.64263
389 2 9.74382 25.9969 -0.739298 9.74382 25.9969 -0.739298
390 2 10.2968 25.212 -3.83274 10.2968 25.212 -3.83274
391 1 10.7121 23.9061 -1.72685 10.7121 23.9061 -1.72685
392 2 12.1216 24.5651 0.296106 12.1216 24.5651 0.296106
393 2 13.0389 23.3954 -2.5857 13.0389 23.3954 -2.5857
394 1 13.8029 25.5661 -1.39356 13.8029 25.5661 -1.39356
395 2 15.1666 26.268 0.642116 15.1666 26.268 0.642116
396 2 16.1442 25.0467 -2.19875 16.1442 25.0467 -2.19875
397 1 16.237 24.0743 0.11688 16.237 24.0743 0.11688
398 2 17.6066 24.7036 2.1576 17.6066 24.7036 2.1576
399 2 18.5668 23.6374 -0.750075 18.5668 23.6374 -0.750075
400 1 19.3044 25.7665 0.515652 19.3044 25.7665 0.515652
401 2 20.7247 26.3329 2.54082 20.7247 26.3329 2.54082
402 2 21.6153 25.3605 -0.420361 21.6153 25.3605 -0.420361
403 1 21.8309 24.2023 1.81647 21.8309 24.2023 1.81647
404 2 23.5137 24.4436 3.70706 23.5137 24.4436 3.70706
405 2 24.0138 23.9752 0.542496 24.0138 23.9752 0.542496
406 1 24.9505 25.8427 2.06188 24.9505 25.8427 2.06188
407 2 26.7076 25.9971 3.89384 26.7076 25.9971 3.89384
408 2 27.0853 25.6746 0.694895 27.0853 25.6746 0.694895
409 1 27.6551 24.0833 2.56902 27.6551 24.0833 2.56902
410 2 29.6819 23.9117 4.09513 29.6819 23.9117 4.09513
411 2 29.5558 24.2013 0.873938 29.5558 24.2013 0.873938
412 1 30.8016 25.6933 2.57542 30.8016 25.6933 2.57542
413 2 32.8879 25.4539 4.00811 32.8879 25.4539 4.00811
414 2 32.6334 25.8891 0.810589 32.6334 25.8891 0.810589
415 1 33.5046 23.9229 2.11158 33.5046 23.9229 2.11158
416 2 35.7672 23.4773 3.16937 35.7672 23.4773 3.16937
417 2 35.0641 24.4287 0.152914 35.0641 24.4287 0.152914
418 1 36.6235 25.5587 1.87743 36.6235 25.5587 1.87743
419 2 38.9165 25.0828 2.84894 38.9165 25.0828 2.84894
420 2 38.1187 26.1302 -0.112796 38.1187 26.1302 -0.112796
421 1 39.1459 23.9682 0.610693 39.1459 23.9682 0.610693
422 2 41.4952 23.4658 1.39078 41.4952 23.4658 1.39078
423 2 40.4737 24.6864 -1.43527 40.4737 24.6864 -1.43527
424 1 42.2124 25.6569 0.21664 42.2124 25.6569 0.21664
425 2 44.5598 25.18 1.01211 44.5598 25.18 1.01211
426 2 43.538 26.3529 -1.83388 43.538 26.3529 -1.83388
427 1 44.6505 24.1764 -1.30052 44.6505 24.1764 -1.30052
428 2 46.9276 23.8273 -0.253982 46.9276 23.8273 -0.253982
429 2 46.1531 24.6314 -3.29611 46.1531 24.6314 -3.29611
430 1 47.741 25.8447 -1.64653 47.741 25.8447 -1.64653
431 2 49.985 25.5396 -0.511162 49.985 25.5396 -0.511162
432 2 49.3137 26.2144 -3.60762 49.3137 26.2144 -3.60762
433 1 50.8441 27.4991 -1.95721 -0.447502 27.4991 -1.95721
434 2 53.0493 27.246 -0.730086 1.75762 27.246 -0.730086
435 2 52.4889 27.78 -3.87481 1.1973 27.78 -3.87481
436 1 53.9588 29.1412 -2.22961 2.66712 29.1412 -2.22961
437 2 56.1175 28.9453 -0.907288 4.82585 28.9453 -0.907288
438 2 55.6796 29.3321 -4.09193 4.38796 29.3321 -4.09193
439 1 5.36058 27.3933 -2.82461 5.36058 27.3933 -2.82461
440 2 7.29162 27.4738 -1.16314 7.29162 27.4738 -1.16314
441 2 7.35877 27.2525 -4.39162 7.35877 27.2525 -4.39162
442 1 8.50798 28.9979 -2.85503 8.50798 28.9979 -2.85503
443 2 10.37 29.1596 -1.11951 10.37 29.1596 -1.11951
444 2 10.569 28.7826 -4.3284 10.569 28.7826 -4.3284
445 1 11.2201 27.2181 -2.4717 11.2201 27.2181 -2.4717
446 2 12.8064 27.6938 -0.526623 12.8064 27.6938 -0.526623
447 2 13.469 26.7841 -3.56473 13.469 26.7841 -3.56473
448 1 14.3437 28.8453 -2.25474 14.3437 28.8453 -2.25474
449 2 15.8632 29.3942 -0.275959 15.8632 29.3942 -0.275959
450 2 16.6256 28.375 -3.25638 16.6256 28.375 -3.25638
451 1 16.8821 27.2382 -1.0321 16.8821 27.2382 -1.0321
452 2 18.2153 27.9601 1.01134 18.2153 27.9601 1.01134
453 2 19.2309 26.7256 -1.81061 19.2309 26.7256 -1.81061
454 1 19.9514 28.9225 -0.647636 19.9514 28.9225 -0.647636
455 2 21.275 29.6369 1.39941 21.275 29.6369 1.39941
456 2 22.3002 28.4303 -1.4311 22.3002 28.4303 -1.4311
457 1 22.3809 27.4514 0.891366 22.3809 27.4514 0.891366
458 2 23.8623 27.9451 2.89331 23.8623 27.9451 2.89331
459 2 24.6673 27.0803 -0.124183 24.6673 27.0803 -0.124183
460 1 25.4687 29.1257 1.23664 25.4687 29.1257 1.23664
461 2 27.0154 29.5393 3.20868 27.0154 29.5393 3.20868
462 2 27.7254 28.7971 0.13618 27.7254 28.7971 0.13618
463 1 28.0795 27.4733 2.25988 28.0795 27.4733 2.25988
464 2 29.909 27.5425 4.02537 29.909 27.5425 4.02537
465 2 30.1613 27.3694 0.803069 30.1613 27.3694 0.803069
466 1 31.216 29.0956 2.40914 31.216 29.0956 2.40914
467 2 33.1162 29.0809 4.09979 33.1162 29.0809 4.09979
468 2 33.2396 29.0617 0.865618 33.2396 29.0617 0.865618
469 1 33.9467 27.304 2.52721 33.9467 27.304 2.52721
470 2 36.0865 27.002 3.86423 36.0865 27.002 3.86423
471 2 35.7087 27.5797 0.70102 35.7087 27.5797 0.70102
472 1 37.0883 28.9176 2.42765 37.0883 28.9176 2.42765
473 2 39.2773 28.5601 3.66544 39.2773 28.5601 3.66544
474 2 38.778 29.2722 0.546029 38.778 29.2722 0.546029
475 1 39.7315 27.2046 1.59846 39.7315 27.2046 1.59846
476 2 42.049 26.7058 2.49175 42.049 26.7058 2.49175
477 2 41.1669 27.8352 -0.416521 41.1669 27.8352 -0.416521
478 1 42.8274 28.8612 1.27882 42.8274 28.8612 1.27882
479 2 45.1631 28.3484 2.108 45.1631 28.3484 2.108
480 2 44.2108 29.5403 -0.75356 44.2108 29.5403 -0.75356
481 1 45.2739 27.3517 -0.19483 45.2739 27.3517 -0.19483
482 2 47.6108 26.9011 0.643818 47.6108 26.9011 0.643818
483 2 46.6239 28.0059 -2.24093 46.6239 28.0059 -2.24093
484 1 48.3384 29.0445 -0.602912 48.3384 29.0445 -0.602912
485 2 50.6597 28.6254 0.297605 50.6597 28.6254 0.297605
486 2 49.7308 29.6384 -2.63882 49.7308 29.6384 -2.63882
487 1 51.4098 30.7312 -0.997643 0.118157 30.7312 -0.997643
488 2 53.7091 30.3453 -0.0213613 2.4175 30.3453 -0.0213613
489 2 52.8596 31.2542 -3.01432 1.56798 31.2542 -3.01432
490 1 54.492 32.4071 -1.36605 3.20039 32.4071 -1.36605
491 2 56.7634 32.06 -0.305409 5.47176 32.06 -0.305409
492 2 56.0072 32.8514 -3.35525 4.71556 32.8514 -3.35525
493 1 5.79257 30.7714 -2.45558 5.79257 30.7714 -2.45558
494 2 7.89901 30.639 -1.03911 7.89901 30.639 -1.03911
495 2 7.58913 30.8729 -4.25299 7.58913 30.8729 -4.25299
496 1 8.92667 32.3917 -2.63197 8.92667 32.3917 -2.63197
497 2 10.9766 32.3292 -1.12624 10.9766 32.3292 -1.12624
498 2 10.7956 32.4059 -4.3572 10.7956 32.4059 -4.3572
499 1 11.6549 30.6024 -2.83226 11.6549 30.6024 -2.83226
500 2 13.4469 30.8475 -1.03168 13.4469 30.8475 -1.03168
501 2 13.7724 30.3191 -4.20919 13.7724 30.3191 -4.20919
502 1 14.7988 32.2099 -2.75917 14.7988 32.2099 -2.75917
503 2 16.5188 32.5383 -0.900763 16.5188 32.5383 -0.900763
504 2 16.9677 31.8659 -4.03638 16.9677 31.8659 -4.03638
505 1 17.4562 30.4838 -1.99476 17.4562 30.4838 -1.99476
506 2 18.9135 31.0984 0.0102342 18.9135 31.0984 0.0102342
507 2 19.7648 29.9872 -2.91378 19.7648 29.9872 -2.91378
508 1 20.5562 32.1353 -1.69546 20.5562 32.1353 -1.69546
509 2 21.9603 32.8062 0.326761 21.9603 32.8062 0.326761
510 2 22.8844 31.6205 -2.54633 22.8844 31.6205 -2.54633
511 1 23.0142 30.6166 -0.247984 23.0142 30.6166 -0.247984
512 2 24.3547 31.2974 1.79611 24.3547 31.2974 1.79611
513 2 25.3548 30.1512 -1.06798 25.3548 30.1512 -1.06798
514 1 26.0772 32.3135 0.151228 26.0772 32.3135 0.151228
515 2 27.4558 32.9436 2.18522 27.4558 32.9436 2.18522
516 2 28.403 31.8755 -0.725949 28.403 31.8755 -0.725949
517 1 28.5674 30.7893 1.54981 28.5674 30.7893 1.54981
518 2 30.1852 31.1187 3.48187 30.1852 31.1187 3.48187
519 2 30.7873 30.5079 0.358681 30.7873 30.5079 0.358681
520 1 31.6775 32.4409 1.82359 31.6775 32.4409 1.82359
521 2 33.3664 32.6835 3.70797 33.3664 32.6835 3.70797
522 2 33.8556 32.2138 0.541777 33.8556 32.2138 0.541777
523 1 34.358 30.7115 2.50838 34.358 30.7115 2.50838
524 2 36.3259 30.617 4.11658 36.3259 30.617 4.11658
525 2 36.319 30.751 0.882858 36.319 30.751 0.882858
526 1 37.5033 32.3228 2.55533 37.5033 32.3228 2.55533
527 2 39.5356 32.1516 4.07395 39.5356 32.1516 4.07395
528 2 39.3976 32.44 0.853087 39.3976 32.44 0.853087
529 1 40.2236 30.5361 2.27463 40.2236 30.5361 2.27463
530 2 42.4549 30.1297 3.41515 42.4549 30.1297 3.41515
531 2 41.8425 30.9684 0.346817 41.8425 30.9684 0.346817
532 1 43.3508 32.1611 2.0726 43.3508 32.1611 2.0726
533 2 45.6179 31.7136 3.11941 45.6179 31.7136 3.11941
534 2 44.9016 32.6674 0.106696 44.9016 32.6674 0.106696
535 1 45.9114 30.5284 0.92484 45.9114 30.5284 0.92484
536 2 48.2575 30.0152 1.71552 48.2575 30.0152 1.71552
537 2 47.2573 31.2359 -1.11793 47.2573 31.2359 -1.11793
538 1 48.9849 32.2058 0.544005 48.9849 32.2058 0.544005
539 2 51.3343 31.7052 1.32416 51.3343 31.7052 1.32416
540 2 50.3112 32.9185 -1.50443 50.3112 32.9185 -1.50443