ITEM: TIMESTEP
2885000
ITEM: NUMBER OF ATOMS
810
ITEM: BOX BOUNDS xy xz yz pp pp pp
8.6298438867990135e-01 6.6403151667905476e+01 1.4248531056586309e+01
8.1394622342039402e-01 5.0202268776579182e+01 0.0000000000000000e+00
-1.0000000000000000e+01 1.0000000000000000e+01 0.0000000000000000e+00
ITEM: ATOMS id type x y z xu yu zu
1 1 40.3571 1.22731 3.19296 -10.9346 1.22731 3.19296
2 2 42.2285 1.24507 4.9679 -9.06314 1.24507 4.9679
3 2 42.5006 1.07996 1.77466 -8.79104 1.07996 1.77466
4 1 43.7385 2.82184 3.3754 -7.5531 2.82184 3.3754
5 2 45.7022 2.71537 5.04423 -5.58947 2.71537 5.04423
6 2 45.8108 2.77377 1.83842 -5.48088 2.77377 1.83842
7 1 46.3878 0.881584 3.43204 -4.9038 0.881584 3.43204
8 2 62.8898 49.7609 4.56021 -2.65036 0.372592 4.56021
9 2 48.1091 1.29634 1.52888 -3.18253 1.29634 1.52888
10 1 49.7677 2.46621 3.26488 -1.52396 2.46621 3.26488
11 2 52.0676 1.89138 4.2503 0.775971 1.89138 4.2503
12 2 51.3949 2.99685 1.30572 0.103274 2.99685 1.30572
13 1 15.1617 50.1047 2.00677 0.913205 0.71642 2.00677
14 2 17.5633 49.4011 2.50253 3.31473 0.0128229 2.50253
15 2 2.19832 1.64448 -0.0505971 2.19832 1.64448 -0.0505971
16 1 4.20209 2.39013 1.57175 4.20209 2.39013 1.57175
17 2 6.61168 1.68741 1.99649 6.61168 1.68741 1.99649
18 2 5.42406 3.37971 -0.48645 5.42406 3.37971 -0.48645
19 1 6.28623 1.03165 -0.43169 6.28623 1.03165 -0.43169
20 2 22.9408 49.8267 0.0834 8.69231 0.43842 0.0834
21 2 7.48501 1.95924 -2.49721 7.48501 1.95924 -2.49721
22 1 9.53424 2.76743 -0.946713 9.53424 2.76743 -0.946713
23 2 11.9283 2.20277 -0.335023 11.9283 2.20277 -0.335023
24 2 10.799 3.60554 -3.01276 10.799 3.60554 -3.01276
25 1 11.7864 1.30225 -2.73071 11.7864 1.30225 -2.73071
26 2 14.0721 0.938383 -1.64009 14.0721 0.938383 -1.64009
27 2 13.4073 1.65663 -4.70169 13.4073 1.65663 -4.70169
28 1 15.1283 2.93715 -3.0653 15.1283 2.93715 -3.0653
29 2 17.3633 2.64869 -1.84119 17.3633 2.64869 -1.84119
30 2 16.8505 3.15552 -4.97092 16.8505 3.15552 -4.97092
31 1 17.7203 1.07565 -3.81702 17.7203 1.07565 -3.81702
32 2 19.6682 1.18528 -2.11659 19.6682 1.18528 -2.11659
33 2 19.8102 0.79306 -5.29798 19.8102 0.79306 -5.29798
34 1 21.1136 2.64069 -3.81929 21.1136 2.64069 -3.81929
35 2 22.973 2.86964 -2.02732 22.973 2.86964 -2.02732
36 2 23.2749 2.256 -5.1639 23.2749 2.256 -5.1639
37 1 37.95 50.1257 -3.17667 23.7015 0.737387 -3.17667
38 2 25.1846 1.43433 -1.15496 25.1846 1.43433 -1.15496
39 2 40.3037 49.4739 -3.94768 26.0552 0.0855903 -3.94768
40 1 27.0391 2.35429 -2.84904 27.0391 2.35429 -2.84904
41 2 28.4373 3.15523 -0.805627 28.4373 3.15523 -0.805627
42 2 29.4163 1.66998 -3.49549 29.4163 1.66998 -3.49549
43 1 29.2719 0.810288 -1.11769 29.2719 0.810288 -1.11769
44 2 30.43 1.84055 0.938918 30.43 1.84055 0.938918
45 2 45.934 49.5254 -1.50412 31.6855 0.137035 -1.50412
46 1 32.5166 2.53321 -0.608696 32.5166 2.53321 -0.608696
47 2 33.672 3.54543 1.44785 33.672 3.54543 1.44785
48 2 34.9286 1.89198 -1.02827 34.9286 1.89198 -1.02827
49 1 34.6139 1.21646 1.41626 34.6139 1.21646 1.41626
50 2 36.0039 1.88468 3.47076 36.0039 1.88468 3.47076
51 2 51.2308 50.1033 0.632738 36.9823 0.71502 0.632738
52 1 37.9089 2.90997 1.85795 37.9089 2.90997 1.85795
53 2 39.3906 3.45692 3.88836 39.3906 3.45692 3.88836
54 2 40.2494 2.45723 0.951968 40.2494 2.45723 0.951968
55 1 41.2239 4.58185 2.2578 -10.0678 4.58185 2.2578
56 2 42.7997 5.00204 4.25039 -8.49192 5.00204 4.25039
57 2 43.5289 4.1888 1.22598 -7.76275 4.1888 1.22598
58 1 44.5575 6.23302 2.61223 -6.73416 6.23302 2.61223
59 2 46.2317 6.52193 4.54986 -5.05993 6.52193 4.54986
60 2 46.8179 5.90998 1.45069 -4.47372 5.90998 1.45069
61 1 47.1285 4.40521 3.48915 -4.16318 4.40521 3.48915
62 2 49.1771 4.18203 5.03799 -2.11455 4.18203 5.03799
63 2 49.1214 4.46402 1.8426 -2.17028 4.46402 1.8426
64 1 50.5216 5.98137 3.53246 -0.769987 5.98137 3.53246
65 2 52.6471 5.65327 4.95024 1.35544 5.65327 4.95024
66 2 52.4286 6.15123 1.78742 1.13692 6.15123 1.78742
67 1 1.84148 4.06283 3.03353 1.84148 4.06283 3.03353
68 2 4.17886 3.43741 3.88037 4.17886 3.43741 3.88037
69 2 3.37525 4.70389 1.03169 3.37525 4.70389 1.03169
70 1 5.18907 5.67583 2.74089 5.18907 5.67583 2.74089
71 2 7.55389 5.01232 3.45982 7.55389 5.01232 3.45982
72 2 6.63524 6.42043 0.710349 6.63524 6.42043 0.710349
73 1 7.47002 4.08422 1.10362 7.47002 4.08422 1.10362
74 2 9.88313 3.39695 1.49252 9.88313 3.39695 1.49252
75 2 8.64445 5.10849 -0.953169 8.64445 5.10849 -0.953169
76 1 10.7198 5.79798 0.608069 10.7198 5.79798 0.608069
77 2 13.1324 5.13867 1.00853 13.1324 5.13867 1.00853
78 2 11.8745 6.82018 -1.44852 11.8745 6.82018 -1.44852
79 1 12.7981 4.48706 -1.43556 12.7981 4.48706 -1.43556
80 2 15.1768 3.96075 -0.716545 15.1768 3.96075 -0.716545
81 2 14.1392 5.21898 -3.49746 14.1392 5.21898 -3.49746
82 1 16.0791 6.18935 -1.89674 16.0791 6.18935 -1.89674
83 2 18.4341 5.70726 -1.05762 18.4341 5.70726 -1.05762
84 2 17.5097 6.80086 -3.94228 17.5097 6.80086 -3.94228
85 1 18.4871 4.55021 -3.34096 18.4871 4.55021 -3.34096
86 2 20.6625 4.34893 -1.98584 20.6625 4.34893 -1.98584
87 2 20.3089 4.63194 -5.16383 20.3089 4.63194 -5.16383
88 1 21.8599 6.14418 -3.55447 21.8599 6.14418 -3.55447
89 2 23.9687 6.04193 -2.07737 23.9687 6.04193 -2.07737
90 2 23.7751 6.09479 -5.28001 23.7751 6.09479 -5.28001
91 1 24.5036 4.2069 -3.7532 24.5036 4.2069 -3.7532
92 2 26.2718 4.55823 -1.88455 26.2718 4.55823 -1.88455
93 2 26.7265 3.73271 -4.95565 26.7265 3.73271 -4.95565
94 1 27.8862 5.77963 -3.62209 27.8862 5.77963 -3.62209
95 2 29.5603 6.2518 -1.69021 29.5603 6.2518 -1.69021
96 2 30.1616 5.23178 -4.6793 30.1616 5.23178 -4.6793
97 1 30.3574 3.99254 -2.47485 30.3574 3.99254 -2.47485
98 2 31.6773 4.88483 -0.420341 31.6773 4.88483 -0.420341
99 2 32.7517 3.29048 -3.01337 32.7517 3.29048 -3.01337
100 1 33.6547 5.65428 -2.06036 33.6547 5.65428 -2.06036
101 2 34.907 6.62088 -0.00453108 34.907 6.62088 -0.00453108
102 2 36.0594 4.94694 -2.51558 36.0594 4.94694 -2.51558
103 1 35.7573 4.26979 -0.0922662 35.7573 4.26979 -0.0922662
104 2 36.9417 5.23159 1.96645 36.9417 5.23159 1.96645
105 2 38.164 3.6601 -0.577594 38.164 3.6601 -0.577594
106 1 39.0038 6.008 0.41654 39.0038 6.008 0.41654
107 2 40.2394 6.8916 2.47974 40.2394 6.8916 2.47974
108 2 41.4034 5.43194 -0.153947 41.4034 5.43194 -0.153947
109 1 42.2611 7.74002 0.910593 -9.03052 7.74002 0.910593
110 2 43.5702 8.52721 2.97102 -7.72147 8.52721 2.97102
111 2 44.6469 7.19439 0.238397 -6.64477 7.19439 0.238397
112 1 45.5362 9.4546 1.37435 -5.7554 9.4546 1.37435
113 2 46.9245 10.133 3.42572 -4.3671 10.133 3.42572
114 2 47.9037 8.95027 0.59305 -3.3879 8.95027 0.59305
115 1 47.9086 7.86417 2.91295 -3.383 7.86417 2.91295
116 2 49.681 8.02076 4.77884 -1.61066 8.02076 4.77884
117 2 50.1156 7.62007 1.62305 -1.17603 7.62007 1.62305
118 1 51.2746 9.47611 3.1547 -0.017055 9.47611 3.1547
119 2 53.1433 9.50243 4.93138 1.85169 9.50243 4.93138
120 2 53.4187 9.32057 1.73914 2.12707 9.32057 1.73914
121 1 53.9134 7.55493 3.50307 2.62175 7.55493 3.50307
122 2 4.81325 7.13306 4.78379 4.81325 7.13306 4.78379
123 2 4.4396 7.84142 1.67409 4.4396 7.84142 1.67409
124 1 6.0078 9.13082 3.40565 6.0078 9.13082 3.40565
125 2 8.25524 8.62729 4.54597 8.25524 8.62729 4.54597
126 2 7.73503 9.53559 1.50755 7.73503 9.53559 1.50755
127 1 8.51766 7.30695 2.39562 8.51766 7.30695 2.39562
128 2 10.9026 6.61626 2.99768 10.9026 6.61626 2.99768
129 2 9.88246 8.14644 0.346797 9.88246 8.14644 0.346797
130 1 11.8259 8.95688 2.00471 11.8259 8.95688 2.00471
131 2 14.2238 8.24984 2.50863 14.2238 8.24984 2.50863
132 2 13.1183 9.87965 -0.0506441 13.1183 9.87965 -0.0506441
133 1 13.9596 7.52681 0.0958318 13.9596 7.52681 0.0958318
134 2 16.3674 6.89673 0.544993 16.3674 6.89673 0.544993
135 2 15.127 8.51605 -1.96138 15.127 8.51605 -1.96138
136 1 17.201 9.2598 -0.416832 17.201 9.2598 -0.416832
137 2 19.6031 8.66278 0.105705 19.6031 8.66278 0.105705
138 2 18.4058 10.1851 -2.47909 18.4058 10.1851 -2.47909
139 1 19.3807 7.8681 -2.32056 19.3807 7.8681 -2.32056
140 2 21.7041 7.43998 -1.3554 21.7041 7.43998 -1.3554
141 2 20.9056 8.35109 -4.33612 20.9056 8.35109 -4.33612
142 1 22.7022 9.52288 -2.70239 22.7022 9.52288 -2.70239
143 2 24.987 9.16247 -1.6104 24.987 9.16247 -1.6104
144 2 24.3216 9.87386 -4.6739 24.3216 9.87386 -4.6739
145 1 25.2428 7.72504 -3.70627 25.2428 7.72504 -3.70627
146 2 27.2768 7.72848 -2.1153 27.2768 7.72848 -2.1153
147 2 27.2464 7.55295 -5.31874 27.2464 7.55295 -5.31874
148 1 28.6319 9.29711 -3.79145 28.6319 9.29711 -3.79145
149 2 30.5845 9.41443 -2.09768 30.5845 9.41443 -2.09768
150 2 30.7156 9.01107 -5.27857 30.7156 9.01107 -5.27857
151 1 31.2566 7.36447 -3.42608 31.2566 7.36447 -3.42608
152 2 32.8391 7.95582 -1.4478 32.8391 7.95582 -1.4478
153 2 33.5733 6.75652 -4.3424 33.5733 6.75652 -4.3424
154 1 34.6127 8.96538 -3.17366 34.6127 8.96538 -3.17366
155 2 36.1052 9.66831 -1.16094 36.1052 9.66831 -1.16094
156 2 36.9624 8.3123 -3.95435 36.9624 8.3123 -3.95435
157 1 36.9317 7.33825 -1.61469 36.9317 7.33825 -1.61469
158 2 38.1292 8.35293 0.43898 38.1292 8.35293 0.43898
159 2 39.3423 6.64178 -2.01964 39.3423 6.64178 -2.01964
160 1 40.1902 9.04448 -1.14078 40.1902 9.04448 -1.14078
161 2 41.3548 10.0778 0.90995 41.3548 10.0778 0.90995
162 2 42.6022 8.37019 -1.53439 42.6022 8.37019 -1.53439
163 1 43.4362 10.7696 -0.647248 -7.85541 10.7696 -0.647248
164 2 44.5982 11.7855 1.40334 -6.69339 11.7855 1.40334
165 2 45.8462 10.1244 -1.07225 -5.44543 10.1244 -1.07225
166 1 46.6788 12.5058 -0.146142 -4.61287 12.5058 -0.146142
167 2 47.8627 13.4744 1.9092 -3.42891 13.4744 1.9092
168 2 49.0853 11.8946 -0.629698 -2.20631 11.8946 -0.629698
169 1 48.8289 11.1519 1.80809 -2.46276 11.1519 1.80809
170 2 50.3074 11.7099 3.83697 -0.984274 11.7099 3.83697
171 2 51.1693 10.6943 0.906669 -0.122385 10.6943 0.906669
172 1 52.1416 12.8261 2.20221 0.849935 12.8261 2.20221
173 2 53.7126 13.2551 4.19566 2.42101 13.2551 4.19566
174 2 54.4473 12.4284 1.17574 3.15571 12.4284 1.17574
175 1 54.6524 11.071 3.33207 3.36081 11.071 3.33207
176 2 5.31795 10.9721 5.00707 5.31795 10.9721 5.00707
177 2 5.43554 11.0149 1.80084 5.43554 11.0149 1.80084
178 1 6.74627 12.6533 3.44804 6.74627 12.6533 3.44804
179 2 8.78662 12.4365 5.00707 8.78662 12.4365 5.00707
180 2 8.74464 12.7039 1.80983 8.74464 12.7039 1.80983
181 1 9.38463 10.713 3.24464 9.38463 10.713 3.24464
182 2 11.6788 10.1404 4.24297 11.6788 10.1404 4.24297
183 2 11.0197 11.2348 1.29112 11.0197 11.2348 1.29112
184 1 12.749 12.3052 3.02265 12.749 12.3052 3.02265
185 2 15.0806 11.6797 3.88337 15.0806 11.6797 3.88337
186 2 14.2927 12.938 1.0267 14.2927 12.938 1.0267
187 1 15.1146 10.625 1.57822 15.1146 10.625 1.57822
188 2 17.5214 9.91993 2.01102 17.5214 9.91993 2.01102
189 2 16.3427 11.6087 -0.478838 16.3427 11.6087 -0.478838
190 1 18.383 12.3139 1.11664 18.383 12.3139 1.11664
191 2 20.794 11.6261 1.51501 20.794 11.6261 1.51501
192 2 19.5635 13.3313 -0.939749 19.5635 13.3313 -0.939749
193 1 20.4504 10.9899 -0.922987 20.4504 10.9899 -0.922987
194 2 22.8432 10.427 -0.307825 22.8432 10.427 -0.307825
195 2 21.7153 11.8252 -2.98913 21.7153 11.8252 -2.98913
196 1 23.7131 12.7084 -1.41247 23.7131 12.7084 -1.41247
197 2 26.0916 12.1844 -0.693293 26.0916 12.1844 -0.693293
198 2 25.052 13.438 -3.47607 25.052 13.438 -3.47607
199 1 26.0415 11.1577 -3.0404 26.0415 11.1577 -3.0404
200 2 28.2787 10.8757 -1.81955 28.2787 10.8757 -1.81955
201 2 27.7585 11.3723 -4.95008 27.7585 11.3723 -4.95008
202 1 29.3973 12.7733 -3.32766 29.3973 12.7733 -3.32766
203 2 31.5774 12.5777 -1.97962 31.5774 12.5777 -1.97962
204 2 31.2123 12.8531 -5.15695 31.2123 12.8531 -5.15695
205 1 32.0228 10.8654 -3.81067 32.0228 10.8654 -3.81067
206 2 33.8891 11.1008 -2.02705 33.8891 11.1008 -2.02705
207 2 34.1782 10.4788 -5.16324 34.1782 10.4788 -5.16324
208 1 35.4121 12.4354 -3.76299 35.4121 12.4354 -3.76299
209 2 37.1875 12.7909 -1.90205 37.1875 12.7909 -1.90205
210 2 37.6309 11.9622 -4.97369 37.6309 11.9622 -4.97369
211 1 37.952 10.5856 -2.86652 37.952 10.5856 -2.86652
212 2 39.3574 11.3907 -0.829698 39.3574 11.3907 -0.829698
213 2 40.3273 9.90162 -3.52048 40.3273 9.90162 -3.52048
214 1 41.2717 12.2276 -2.50765 41.2717 12.2276 -2.50765
215 2 42.6006 13.1235 -0.460639 42.6006 13.1235 -0.460639
216 2 43.6631 11.5227 -3.05446 43.6631 11.5227 -3.05446
217 1 44.5722 13.8896 -2.11083 -6.71944 13.8896 -2.11083
218 2 45.8297 14.8579 -0.059092 -5.46194 14.8579 -0.059092
219 2 46.9762 13.1814 -2.5709 -4.31543 13.1814 -2.5709
220 1 47.8512 15.5751 -1.67526 -3.44039 15.5751 -1.67526
221 2 49.0543 16.594 0.373631 -2.23734 16.594 0.373631
222 2 50.2604 14.8745 -2.08243 -1.03119 14.8745 -2.08243
223 1 49.9244 14.247 0.355689 -1.36721 14.247 0.355689
224 2 51.1604 15.138 2.41514 -0.131225 15.138 2.41514
225 2 52.3227 13.6661 -0.212806 1.03107 13.6661 -0.212806
226 1 53.182 15.9783 0.842048 1.89034 15.9783 0.842048
227 2 54.4845 16.7736 2.90261 3.19284 16.7736 2.90261
228 2 55.5688 15.4307 0.177568 4.27714 15.4307 0.177568
229 1 55.4721 14.4781 2.55496 4.18051 14.4781 2.55496
230 2 5.84735 14.7747 4.49663 5.84735 14.7747 4.49663
231 2 6.44312 14.1483 1.40164 6.44312 14.1483 1.40164
232 1 7.52831 16.1073 2.85919 7.52831 16.1073 2.85919
233 2 9.29097 16.271 4.73275 9.29097 16.271 4.73275
234 2 9.73973 15.8563 1.58024 9.73973 15.8563 1.58024
235 1 10.1365 14.2267 3.49918 10.1365 14.2267 3.49918
236 2 12.2529 13.9025 4.93037 12.2529 13.9025 4.93037
237 2 12.0521 14.3888 1.76428 12.0521 14.3888 1.76428
238 1 13.5276 15.7957 3.48279 13.5276 15.7957 3.48279
239 2 15.7118 15.3764 4.77694 15.7118 15.3764 4.77694
240 2 15.3552 16.0741 1.66282 15.3552 16.0741 1.66282
241 1 16.098 13.9122 2.74129 16.098 13.9122 2.74129
242 2 18.4595 13.2484 3.47037 18.4595 13.2484 3.47037
243 2 17.5522 14.6494 0.713421 17.5522 14.6494 0.713421
244 1 19.4286 15.5381 2.40271 19.4286 15.5381 2.40271
245 2 21.8108 14.8461 3.01365 21.8108 14.8461 3.01365
246 2 20.8008 16.3721 0.356354 20.8008 16.3721 0.356354
247 1 21.6343 14.0234 0.625511 21.6343 14.0234 0.625511
248 2 24.0453 13.3626 1.03068 24.0453 13.3626 1.03068
249 2 22.7928 15.0421 -1.43088 22.7928 15.0421 -1.43088
250 1 24.876 15.7485 0.115046 24.876 15.7485 0.115046
251 2 27.2857 15.1221 0.561078 27.2857 15.1221 0.561078
252 2 26.0389 16.7358 -1.94597 26.0389 16.7358 -1.94597
253 1 26.9926 14.4107 -1.87858 26.9926 14.4107 -1.87858
254 2 29.3502 13.9326 -1.04534 29.3502 13.9326 -1.04534
255 2 28.4163 15.0221 -3.92873 28.4163 15.0221 -3.92873
256 1 30.2918 16.0926 -2.3144 30.2918 16.0926 -2.3144
257 2 32.6201 15.6702 -1.35827 32.6201 15.6702 -1.35827
258 2 31.8075 16.5756 -4.33689 31.8075 16.5756 -4.33689
259 1 32.768 14.3709 -3.55629 32.768 14.3709 -3.55629
260 2 34.8825 14.2722 -2.0872 34.8825 14.2722 -2.0872
261 2 34.6767 14.3218 -5.28896 34.6767 14.3218 -5.28896
262 1 36.1504 15.9552 -3.72262 36.1504 15.9552 -3.72262
263 2 38.1916 15.9635 -2.14036 38.1916 15.9635 -2.14036
264 2 38.1478 15.7832 -5.34336 38.1478 15.7832 -5.34336
265 1 38.7956 14.0125 -3.64714 38.7956 14.0125 -3.64714
266 2 40.479 14.4895 -1.72401 40.479 14.4895 -1.72401
267 2 41.0668 13.4634 -4.71358 41.0668 13.4634 -4.71358
268 1 42.1689 15.5999 -3.46928 42.1689 15.5999 -3.46928
269 2 43.7586 16.1922 -1.49696 43.7586 16.1922 -1.49696
270 2 44.4833 14.9922 -4.39321 44.4833 14.9922 -4.39321
271 1 45.5278 17.2027 -3.22881 -5.76379 17.2027 -3.22881
272 2 47.0257 17.9059 -1.2201 -4.26597 17.9059 -1.2201
273 2 47.8765 16.5498 -4.01504 -3.41518 16.5498 -4.01504
274 1 48.8698 18.8245 -2.92994 -2.42182 18.8245 -2.92994
275 2 50.2804 19.6268 -0.895993 -1.01124 19.6268 -0.895993
276 2 51.2442 18.142 -3.59092 -0.0474275 18.142 -3.59092
277 1 51.1129 17.2804 -1.21204 -0.178708 17.2804 -1.21204
278 2 52.2779 18.3165 0.837707 0.986224 18.3165 0.837707
279 2 53.5255 16.6045 -1.60347 2.23383 16.6045 -1.60347
280 1 54.3597 19.0058 -0.720283 3.06804 19.0058 -0.720283
281 2 55.5193 20.0258 1.33027 4.22767 20.0258 1.33027
282 2 56.7701 18.3576 -1.13911 5.47845 18.3576 -1.13911
283 1 56.4546 17.694 1.30802 5.16295 17.694 1.30802
284 2 6.54546 18.3787 3.36072 6.54546 18.3787 3.36072
285 2 7.53136 17.1834 0.53508 7.53136 17.1834 0.53508
286 1 8.45448 19.3872 1.7453 8.45448 19.3872 1.7453
287 2 9.92053 19.9503 3.7812 9.92053 19.9503 3.7812
288 2 10.7994 18.9273 0.857923 10.7994 18.9273 0.857923
289 1 10.8918 17.716 3.11011 10.8918 17.716 3.11011
290 2 12.7483 17.7475 4.89913 12.7483 17.7475 4.89913
291 2 13.0442 17.5548 1.70909 13.0442 17.5548 1.70909
292 1 14.2688 19.3072 3.30468 14.2688 19.3072 3.30468
293 2 16.2167 19.21 4.99137 16.2167 19.21 4.99137
294 2 16.3528 19.2468 1.78581 16.3528 19.2468 1.78581
295 1 16.9154 17.3662 3.39778 16.9154 17.3662 3.39778
296 2 19.1576 16.8624 4.54903 19.1576 16.8624 4.54903
297 2 18.652 17.7655 1.50664 18.652 17.7655 1.50664
298 1 20.2958 18.943 3.24813 20.2958 18.943 3.24813
299 2 22.5871 18.3697 4.25397 22.5871 18.3697 4.25397
300 2 21.9379 19.4605 1.29879 21.9379 19.4605 1.29879
301 1 22.7402 17.183 2.01799 22.7402 17.183 2.01799
302 2 25.1382 16.4775 2.52601 25.1382 16.4775 2.52601
303 2 24.0349 18.1006 -0.0385378 24.0349 18.1006 -0.0385378
304 1 26.0309 18.8495 1.58935 26.0309 18.8495 1.58935
305 2 28.4395 18.1469 2.0189 28.4395 18.1469 2.0189
306 2 27.2556 19.8314 -0.471371 27.2556 19.8314 -0.471371
307 1 28.1158 17.4837 -0.407301 28.1158 17.4837 -0.407301
308 2 30.5214 16.893 0.108905 30.5214 16.893 0.108905
309 2 29.3127 18.4071 -2.47542 29.3127 18.4071 -2.47542
310 1 31.3624 19.2187 -0.928532 31.3624 19.2187 -0.928532
311 2 33.7589 18.66 -0.320609 33.7589 18.66 -0.320609
312 2 32.6208 20.0528 -3.00007 32.6208 20.0528 -3.00007
313 1 33.6113 17.7522 -2.71304 33.6113 17.7522 -2.71304
314 2 35.901 17.396 -1.62838 35.901 17.396 -1.62838
315 2 35.2245 18.1018 -4.69067 35.2245 18.1018 -4.69067
316 1 36.9509 19.3902 -3.06554 36.9509 19.3902 -3.06554
317 2 39.1936 19.1107 -1.85243 39.1936 19.1107 -1.85243
318 2 38.6625 19.6053 -4.98121 38.6625 19.6053 -4.98121
319 1 39.5408 17.5311 -3.82448 39.5408 17.5311 -3.82448
320 2 41.5015 17.6513 -2.13935 41.5015 17.6513 -2.13935
321 2 41.6196 17.2462 -5.32018 41.6196 17.2462 -5.32018
322 1 42.9346 19.1028 -3.85845 42.9346 19.1028 -3.85845
323 2 44.8063 19.3379 -2.07943 44.8063 19.3379 -2.07943
324 2 45.0886 18.7183 -5.21624 45.0886 18.7183 -5.21624
325 1 46.3268 20.6757 -3.81749 -4.9648 20.6757 -3.81749
326 2 48.1071 21.0288 -1.96027 -3.18452 21.0288 -1.96027
327 2 48.544 20.2054 -5.03394 -2.74762 20.2054 -5.03394
328 1 49.7133 22.2551 -3.70651 -1.57835 22.2551 -3.70651
329 2 51.3995 22.7267 -1.78445 0.107845 22.7267 -1.78445
330 2 51.9844 21.7113 -4.77775 0.692775 21.7113 -4.77775
331 1 52.1926 20.4674 -2.57639 0.900966 20.4674 -2.57639
332 2 53.5234 21.3595 -0.528556 2.23178 21.3595 -0.528556
333 2 54.5849 19.7645 -3.12599 3.29327 19.7645 -3.12599
334 1 55.4957 22.1298 -2.17711 4.20402 22.1298 -2.17711
335 2 56.7546 23.0923 -0.122931 5.463 23.0923 -0.122931
336 2 57.9003 21.4221 -2.63917 6.60862 21.4221 -2.63917
337 1 57.603 20.7401 -0.216597 6.31137 20.7401 -0.216597
338 2 7.49062 21.7101 1.84115 7.49062 21.7101 1.84115
339 2 8.71896 20.1253 -0.692176 8.71896 20.1253 -0.692176
340 1 9.5573 22.477 0.293961 9.5573 22.477 0.293961
341 2 10.7808 23.3705 2.36 10.7808 23.3705 2.36
342 2 11.9592 21.8961 -0.259562 11.9592 21.8961 -0.259562
343 1 11.7644 21.0596 2.15525 11.7644 21.0596 2.15525
344 2 13.323 21.4917 4.15831 13.323 21.4917 4.15831
345 2 14.0767 20.6595 1.14444 14.0767 20.6595 1.14444
346 1 15.0943 22.7088 2.52794 15.0943 22.7088 2.52794
347 2 16.7505 23.0057 4.47992 16.7505 23.0057 4.47992
348 2 17.3646 22.3785 1.3888 17.3646 22.3785 1.3888
349 1 17.6563 20.8849 3.43759 17.6563 20.8849 3.43759
350 2 19.6899 20.6672 5.00664 19.6899 20.6672 5.00664
351 2 19.6638 20.9334 1.80937 19.6638 20.9334 1.80937
352 1 21.0503 22.4541 3.50446 21.0503 22.4541 3.50446
353 2 23.1639 22.1266 4.94085 23.1639 22.1266 4.94085
354 2 22.9722 22.6161 1.77504 22.9722 22.6161 1.77504
355 1 23.6642 20.5309 3.03311 23.6642 20.5309 3.03311
356 2 25.9962 19.9041 3.89438 25.9962 19.9041 3.89438
357 2 25.2103 21.1626 1.03742 25.2103 21.1626 1.03742
358 1 27.0168 22.1353 2.75191 27.0168 22.1353 2.75191
359 2 29.3797 21.4672 3.47501 29.3797 21.4672 3.47501
360 2 28.47 22.8767 0.723307 28.47 22.8767 0.723307
361 1 29.2993 20.5395 1.11903 29.2993 20.5395 1.11903
362 2 31.7118 19.8514 1.50928 31.7118 19.8514 1.50928
363 2 30.4749 21.5599 -0.939694 30.4749 21.5599 -0.939694
364 1 32.5514 22.2494 0.619598 32.5514 22.2494 0.619598
365 2 34.9653 21.5888 1.01196 34.9653 21.5888 1.01196
366 2 33.7017 23.2738 -1.4397 33.7017 23.2738 -1.4397
367 1 34.6244 20.9406 -1.43165 34.6244 20.9406 -1.43165
368 2 37.0073 20.4189 -0.719973 37.0073 20.4189 -0.719973
369 2 35.9585 21.6695 -3.50008 35.9585 21.6695 -3.50008
370 1 37.9048 22.6454 -1.90933 37.9048 22.6454 -1.90933
371 2 40.2673 22.1692 -1.08381 40.2673 22.1692 -1.08381
372 2 39.3238 23.2575 -3.96397 39.3238 23.2575 -3.96397
373 1 40.3082 21.0091 -3.36555 40.3082 21.0091 -3.36555
374 2 42.4934 20.8138 -2.02455 42.4934 20.8138 -2.02455
375 2 42.1192 21.0922 -5.2001 42.1192 21.0922 -5.2001
376 1 43.6814 22.6103 -3.6028 43.6814 22.6103 -3.6028
377 2 45.8003 22.5109 -2.13828 45.8003 22.5109 -2.13828
378 2 45.5882 22.5646 -5.33923 45.5882 22.5646 -5.33923
379 1 47.0669 24.1981 -3.77364 -4.2247 24.1981 -3.77364
380 2 49.1111 24.2025 -2.1937 -2.18057 24.2025 -2.1937
381 2 49.0641 24.0316 -5.39677 -2.22752 24.0316 -5.39677
382 1 50.461 25.7766 -3.87415 -0.830638 25.7766 -3.87415
383 2 52.4226 25.8905 -2.18855 1.13099 25.8905 -2.18855
384 2 52.5414 25.4993 -5.3708 1.24973 25.4993 -5.3708
385 1 53.0899 23.8445 -3.52707 1.79824 23.8445 -3.52707
386 2 54.6811 24.4297 -1.55334 3.3895 24.4297 -1.55334
387 2 55.4052 23.242 -4.45462 4.11353 23.242 -4.45462
388 1 56.4524 25.4473 -3.28047 5.16075 25.4473 -3.28047
389 2 57.9508 26.1403 -1.26808 6.65915 26.1403 -1.26808
390 2 58.8022 24.7995 -4.06999 7.51059 24.7995 -4.06999
391 1 7.48625 23.8124 -1.73554 7.48625 23.8124 -1.73554
392 2 8.68678 24.8232 0.31977 8.68678 24.8232 0.31977
393 2 9.89766 23.1133 -2.14034 9.89766 23.1133 -2.14034
394 1 10.7496 25.5145 -1.25762 10.7496 25.5145 -1.25762
395 2 11.9102 26.5453 0.798869 11.9102 26.5453 0.798869
396 2 13.1641 24.837 -1.64148 13.1641 24.837 -1.64148
397 1 12.8128 24.2072 0.800639 12.8128 24.2072 0.800639
398 2 14.1026 25.0025 2.87001 14.1026 25.0025 2.87001
399 2 15.2045 23.661 0.151297 15.2045 23.661 0.151297
400 1 16.0842 25.9218 1.29037 16.0842 25.9218 1.29037
401 2 17.4553 26.6042 3.35275 17.4553 26.6042 3.35275
402 2 18.4588 25.4146 0.531236 18.4588 25.4146 0.531236
403 1 18.4434 24.3354 2.85341 18.4434 24.3354 2.85341
404 2 20.1988 24.497 4.73555 20.1988 24.497 4.73555
405 2 20.662 24.0851 1.5851 20.662 24.0851 1.5851
406 1 21.8098 25.9415 3.12242 21.8098 25.9415 3.12242
407 2 23.6645 25.9696 4.91517 23.6645 25.9696 4.91517
408 2 23.9659 25.781 1.72587 23.9659 25.781 1.72587
409 1 24.4461 24.0194 3.49801 24.4461 24.0194 3.49801
410 2 26.6314 23.5951 4.79078 26.6314 23.5951 4.79078
411 2 26.2756 24.3002 1.6787 26.2756 24.3002 1.6787
412 1 27.8384 25.5866 3.41574 27.8384 25.5866 3.41574
413 2 30.0834 25.0778 4.56157 30.0834 25.0778 4.56157
414 2 29.5734 25.989 1.52284 29.5734 25.989 1.52284
415 1 30.3509 23.7588 2.41125 30.3509 23.7588 2.41125
416 2 32.7361 23.0631 3.01023 32.7361 23.0631 3.01023
417 2 31.7178 24.5991 0.36232 31.7178 24.5991 0.36232
418 1 33.6647 25.4033 2.01897 33.6647 25.4033 2.01897
419 2 36.0667 24.6961 2.51051 36.0667 24.6961 2.51051
420 2 34.9499 26.3288 -0.0415028 34.9499 26.3288 -0.0415028
421 1 35.7932 23.9769 0.097658 35.7932 23.9769 0.097658
422 2 38.2067 23.3525 0.530756 38.2067 23.3525 0.530756
423 2 36.9469 24.9696 -1.96697 36.9469 24.9696 -1.96697
424 1 39.0323 25.7168 -0.4371 39.0323 25.7168 -0.4371
425 2 41.4401 25.1238 0.0701907 41.4401 25.1238 0.0701907
426 2 40.2256 26.6465 -2.50568 40.2256 26.6465 -2.50568
427 1 41.2055 24.3309 -2.35522 41.2055 24.3309 -2.35522
428 2 43.5368 23.9071 -1.40347 43.5368 23.9071 -1.40347
429 2 42.7205 24.8166 -4.37925 42.7205 24.8166 -4.37925
430 1 44.5282 25.9927 -2.75597 44.5282 25.9927 -2.75597
431 2 46.8203 25.6336 -1.67542 46.8203 25.6336 -1.67542
432 2 46.1405 26.3482 -4.73442 46.1405 26.3482 -4.73442
433 1 47.8707 27.6334 -3.10752 -3.42095 27.6334 -3.10752
434 2 50.1144 27.3488 -1.89585 -1.17725 27.3488 -1.89585
435 2 49.5838 27.8567 -5.02209 -1.7078 27.8567 -5.02209
436 1 51.2322 29.2542 -3.40067 -0.0593969 29.2542 -3.40067
437 2 53.4189 29.0547 -2.06074 2.12724 29.0547 -2.06074
438 2 53.0441 29.3447 -5.23491 1.75244 29.3447 -5.23491
439 1 53.8588 27.3501 -3.90082 2.56712 27.3501 -3.90082
440 2 55.7317 27.5774 -2.12105 4.44002 27.5774 -2.12105
441 2 56.0134 26.9725 -5.26062 4.7218 26.9725 -5.26062
442 1 57.2551 28.9221 -3.85238 5.9635 28.9221 -3.85238
443 2 59.0344 29.266 -1.99157 7.74281 29.266 -1.99157
444 2 59.4746 28.457 -5.0685 8.18298 28.457 -5.0685
445 1 8.5063 27.0665 -2.97099 8.5063 27.0665 -2.97099
446 2 9.91636 27.8594 -0.93223 9.91636 27.8594 -0.93223
447 2 10.8821 26.3858 -3.63235 10.8821 26.3858 -3.63235
448 1 11.8328 28.704 -2.60459 11.8328 28.704 -2.60459
449 2 13.158 29.5856 -0.547725 13.158 29.5856 -0.547725
450 2 14.2285 28.0046 -3.14967 14.2285 28.0046 -3.14967
451 1 13.9981 27.2346 -0.748635 13.9981 27.2346 -0.748635
452 2 15.1456 28.2512 1.31193 15.1456 28.2512 1.31193
453 2 16.4129 26.5894 -1.15309 16.4129 26.5894 -1.15309
454 1 17.2388 28.9689 -0.218553 17.2388 28.9689 -0.218553
455 2 18.4065 29.9352 1.8486 18.4065 29.9352 1.8486
456 2 19.6508 28.3593 -0.682106 19.6508 28.3593 -0.682106
457 1 19.3753 27.615 1.75194 19.3753 27.615 1.75194
458 2 20.8356 28.1741 3.79452 20.8356 28.1741 3.79452
459 2 21.7247 27.1573 0.872651 21.7247 27.1573 0.872651
460 1 22.6871 29.2855 2.17852 22.6871 29.2855 2.17852
461 2 24.2443 29.7112 4.18522 24.2443 29.7112 4.18522
462 2 25.0019 28.8884 1.17005 25.0019 28.8884 1.17005
463 1 25.1911 27.5295 3.3262 25.1911 27.5295 3.3262
464 2 27.1394 27.4268 5.01358 27.1394 27.4268 5.01358
465 2 27.2769 27.4722 1.80853 27.2769 27.4722 1.80853
466 1 28.5828 29.1042 3.46491 28.5828 29.1042 3.46491
467 2 30.6203 28.8792 5.02948 30.6203 28.8792 5.02948
468 2 30.5887 29.1566 1.83352 30.5887 29.1566 1.83352
469 1 31.2226 27.1605 3.26389 31.2226 27.1605 3.26389
470 2 33.5181 26.5825 4.25969 33.5181 26.5825 4.25969
471 2 32.8598 27.6835 1.31079 32.8598 27.6835 1.31079
472 1 34.5937 28.7472 3.04222 34.5937 28.7472 3.04222
473 2 36.9311 28.1163 3.88836 36.9311 28.1163 3.88836
474 2 36.1311 29.3874 1.0412 36.1311 29.3874 1.0412
475 1 36.9552 27.072 1.57828 36.9552 27.072 1.57828
476 2 39.3669 26.3674 1.99117 39.3669 26.3674 1.99117
477 2 38.1706 28.0646 -0.483971 38.1706 28.0646 -0.483971
478 1 40.2231 28.7652 1.0994 40.2231 28.7652 1.0994
479 2 42.6386 28.0779 1.47745 42.6386 28.0779 1.47745
480 2 41.3905 29.7941 -0.960118 41.3905 29.7941 -0.960118
481 1 42.281 27.4537 -0.96175 42.281 27.4537 -0.96175
482 2 44.6801 26.8939 -0.361038 44.6801 26.8939 -0.361038
483 2 43.5363 28.2944 -3.03347 43.5363 28.2944 -3.03347
484 1 45.5446 29.1792 -1.46645 45.5446 29.1792 -1.46645
485 2 47.9281 28.6528 -0.757929 47.9281 28.6528 -0.757929
486 2 46.8799 29.9158 -3.53229 46.8799 29.9158 -3.53229
487 1 48.8289 30.8849 -1.93829 -2.46278 30.8849 -1.93829
488 2 51.1923 30.4069 -1.11488 -0.099364 30.4069 -1.11488
489 2 50.2481 31.5049 -3.991 -1.04354 31.5049 -3.991
490 1 52.1327 32.5731 -2.3798 0.841038 32.5731 -2.3798
491 2 54.4642 32.1455 -1.42855 3.17257 32.1455 -1.42855
492 2 53.6501 33.0666 -4.40107 2.35847 33.0666 -4.40107
493 1 54.6095 30.8567 -3.63246 3.31788 30.8567 -3.63246
494 2 56.7273 30.7494 -2.16552 5.43563 30.7494 -2.16552
495 2 56.5201 30.8185 -5.36636 5.22843 30.8185 -5.36636
496 1 57.9994 32.4426 -3.7914 6.70777 32.4426 -3.7914
497 2 60.0414 32.4383 -2.20825 8.74977 32.4383 -2.20825
498 2 59.9994 32.2822 -5.41229 8.70778 32.2822 -5.41229
499 1 9.35362 30.498 -3.7293 9.35362 30.498 -3.7293
500 2 11.0372 30.9585 -1.80188 11.0372 30.9585 -1.80188
501 2 11.6274 29.9593 -4.79938 11.6274 29.9593 -4.79938
502 1 12.7324 32.0831 -3.53427 12.7324 32.0831 -3.53427
503 2 14.3174 32.6588 -1.5523 14.3174 32.6588 -1.5523
504 2 15.0517 31.4848 -4.45644 15.0517 31.4848 -4.45644
505 1 15.1363 30.3631 -2.18382 15.1363 30.3631 -2.18382
506 2 16.3853 31.3181 -0.118861 16.3853 31.3181 -0.118861
507 2 17.545 29.6602 -2.63659 17.545 29.6602 -2.63659
508 1 18.4157 32.0455 -1.7174 18.4157 32.0455 -1.7174
509 2 19.6096 33.0525 0.344383 19.6096 33.0525 0.344383
510 2 20.8286 31.3475 -2.11533 20.8286 31.3475 -2.11533
511 1 20.4819 30.7074 0.316455 20.4819 30.7074 0.316455
512 2 21.7019 31.595 2.3881 21.7019 31.595 2.3881
513 2 22.8858 30.1286 -0.233194 22.8858 30.1286 -0.233194
514 1 23.738 32.4353 0.836485 23.738 32.4353 0.836485
515 2 25.0277 33.2249 2.90894 25.0277 33.2249 2.90894
516 2 26.1303 31.8896 0.18769 26.1303 31.8896 0.18769
517 1 26.0196 30.9321 2.56182 26.0196 30.9321 2.56182
518 2 27.677 31.2213 4.51501 27.677 31.2213 4.51501
519 2 28.291 30.6059 1.42193 28.291 30.6059 1.42193
520 1 29.3714 32.5562 2.8937 29.3714 32.5562 2.8937
521 2 31.1312 32.7076 4.77367 31.1312 32.7076 4.77367
522 2 31.5893 32.3111 1.62102 31.5893 32.3111 1.62102
523 1 31.9805 30.6702 3.53122 31.9805 30.6702 3.53122
524 2 34.1002 30.3357 4.95832 34.1002 30.3357 4.95832
525 2 33.8973 30.8379 1.7956 33.8973 30.8379 1.7956
526 1 35.3788 32.2339 3.51892 35.3788 32.2339 3.51892
527 2 37.5693 31.8006 4.80028 37.5693 31.8006 4.80028
528 2 37.2024 32.525 1.69409 37.2024 32.525 1.69409
529 1 37.9468 30.353 2.75097 37.9468 30.353 2.75097
530 2 40.3134 29.6816 3.4598 40.3134 29.6816 3.4598
531 2 39.3915 31.1043 0.719162 39.3915 31.1043 0.719162
532 1 41.2804 31.9794 2.40329 41.2804 31.9794 2.40329
533 2 43.6694 31.2831 2.98718 43.6694 31.2831 2.98718
534 2 42.6367 32.8303 0.351573 42.6367 32.8303 0.351573
535 1 43.474 30.4802 0.593506 43.474 30.4802 0.593506
536 2 45.8898 29.8204 0.978684 45.8898 29.8204 0.978684
537 2 44.6199 31.5123 -1.4645 44.6199 31.5123 -1.4645
538 1 46.7161 32.2124 0.0703243 46.7161 32.2124 0.0703243
539 2 49.1301 31.5864 0.503276 49.1301 31.5864 0.503276
540 2 47.8719 33.2098 -1.99097 47.8719 33.2098 -1.99097