ITEM: TIMESTEP
5886000
ITEM: NUMBER OF ATOMS
810
ITEM: BOX BOUNDS xy xz yz pp pp pp
-2.1358685179170113e+01 5.2154620611319167e+01 -2.2221669567850014e+01
8.1394622342039402e-01 5.0202268776579182e+01 0.0000000000000000e+00
-1.0000000000000000e+01 1.0000000000000000e+01 0.0000000000000000e+00
ITEM: ATOMS id type x y z xu yu zu
1 1 3.60653 46.992 7.12876 -25.4634 -2.39635 7.12876
2 2 5.99343 46.8785 7.82653 -23.0765 -2.50983 7.82653
3 2 4.86325 48.5153 5.59891 -24.2067 -0.87304 5.59891
4 1 36.4354 5.62555 -3.02723 -14.8562 5.62555 -3.02723
5 2 35.6348 5.7428 -0.64594 -15.6569 5.7428 -0.64594
6 2 38.2763 4.41341 -1.86056 -13.0154 4.41341 -1.86056
7 1 36.3046 3.31198 -0.737473 -14.9871 3.31198 -0.737473
8 2 35.8514 3.08122 1.73412 -15.4402 3.08122 1.73412
9 2 38.3544 2.11199 0.0104723 -12.9372 2.11199 0.0104723
10 1 38.2454 3.62539 1.97031 -13.0463 3.62539 1.97031
11 2 37.9547 2.96276 4.36993 -13.337 2.96276 4.36993
12 2 40.4908 2.61793 2.36323 -10.8009 2.61793 2.36323
13 1 16.8896 50.2601 3.57528 -12.1804 0.871779 3.57528
14 2 17.1552 49.1913 5.84672 -11.9148 -0.197065 5.84672
15 2 19.3485 49.6804 3.49881 -9.72145 0.292048 3.49881
16 1 41.5529 1.09263 5.88408 -9.73869 1.09263 5.88408
17 2 19.8069 49.2514 8.03734 -9.26304 -0.136944 8.03734
18 2 21.819 50.1075 5.63419 -7.25101 0.719216 5.63419
19 1 21.2558 47.8375 6.55041 -7.81418 -1.55078 6.55041
20 2 22.242 46.356 8.34475 -6.82799 -3.03233 8.34475
21 2 23.7173 48.0021 5.96136 -5.3527 -1.38623 5.96136
22 1 23.9922 48.1593 8.44522 -5.07774 -1.22905 8.44522
23 2 25.1248 46.638 -9.89106 -3.94518 -2.75031 10.1089
24 2 26.4073 48.4984 7.7689 -2.66262 -0.889955 7.7689
25 1 26.543 46.0179 8.12814 -2.52697 -3.37042 8.12814
26 2 28.052 44.4608 9.41226 -1.01793 -4.9275 9.41226
27 2 28.7922 46.8439 7.32174 -0.277776 -2.54446 7.32174
28 1 29.4036 46.5528 9.7345 0.333607 -2.83556 9.7345
29 2 31.0065 45.0238 -9.06895 1.93654 -4.3645 10.931
30 2 -19.7026 47.4956 8.89262 2.51911 -1.89275 8.89262
31 1 -19.0807 45.0721 8.72865 3.14099 -4.31621 8.72865
32 2 -17.245 43.6139 9.64024 4.9767 -5.77442 9.64024
33 2 -17.0812 46.3474 7.87532 5.14049 -3.04088 7.87532
34 1 -16.1827 45.8278 10.1591 6.03901 -3.56051 10.1591
35 2 -14.2655 44.456 -8.96729 7.95616 -4.93235 11.0327
36 2 -14.2649 47.1782 9.24077 7.95672 -2.21015 9.24077
37 1 -13.3281 44.909 8.75338 8.89359 -4.47932 8.75338
38 2 -11.307 43.6218 9.50476 10.9146 -5.76649 9.50476
39 2 -11.5353 46.4091 7.82778 10.6864 -2.97924 7.82778
40 1 -10.4366 45.9134 10.0263 11.785 -3.4749 10.0263
41 2 -8.35141 44.7298 -9.2327 13.8703 -4.65853 10.7673
42 2 -8.72964 47.4574 9.01905 13.492 -1.93093 9.01905
43 1 -7.60977 45.2994 8.44519 14.6119 -4.08893 8.44519
44 2 -5.48731 44.2102 9.21859 16.7344 -5.17817 9.21859
45 2 -5.9593 46.8394 7.34493 16.2624 -2.54897 7.34493
46 1 -4.76643 46.5883 9.53114 17.4552 -2.79998 9.53114
47 2 -2.62608 45.5211 10.3049 19.5956 -3.86723 10.3049
48 2 -3.13938 48.1499 8.41112 19.0823 -1.23844 8.41112
49 1 -1.95208 45.9942 7.92844 20.2696 -3.3941 7.92844
50 2 0.265684 45.1038 8.70645 22.4874 -4.28452 8.70645
51 2 -0.45039 47.548 6.64308 21.7713 -1.84037 6.64308
52 1 0.808549 47.543 8.79857 23.0302 -1.84528 8.79857
53 2 2.94026 46.443 9.47721 25.1619 -2.94531 9.47721
54 2 2.70261 49.0595 8.16804 24.9243 -0.328787 8.16804
55 1 36.7971 7.76506 -5.42973 -14.4946 7.76506 -5.42973
56 2 35.881 8.06806 -3.1086 -15.4107 8.06806 -3.1086
57 2 38.5177 6.55128 -4.09235 -12.774 6.55128 -4.09235
58 1 38.2443 8.40375 -2.48335 -13.0473 8.40375 -2.48335
59 2 37.3371 8.56537 -0.160417 -13.9545 8.56537 -0.160417
60 2 40.0108 7.09279 -1.31502 -11.2808 7.09279 -1.31502
61 1 38.0082 6.15316 -0.122783 -13.2835 6.15316 -0.122783
62 2 37.3196 5.94004 2.27399 -13.972 5.94004 2.27399
63 2 40.0098 4.93835 0.730888 -11.2818 4.93835 0.730888
64 1 39.7346 6.5229 2.65678 -11.557 6.5229 2.65678
65 2 39.2637 6.08275 5.08183 -12.028 6.08275 5.08183
66 2 41.8732 5.37786 3.27107 -9.41848 5.37786 3.27107
67 1 40.3063 3.85558 4.54395 -10.9853 3.85558 4.54395
68 2 40.2645 2.99402 6.90471 -11.0271 2.99402 6.90471
69 2 42.6683 3.02891 4.71592 -8.6233 3.02891 4.71592
70 1 42.5404 4.07128 6.99541 -8.75123 4.07128 6.99541
71 2 42.7135 3.04128 9.28649 -8.57809 3.04128 9.28649
72 2 44.9683 3.40735 6.97249 -6.32333 3.40735 6.97249
73 1 44.0826 1.32048 8.06799 -7.20905 1.32048 8.06799
74 2 22.5269 49.3633 -9.90424 -6.54302 -0.0250563 10.0958
75 2 46.5706 1.13349 7.66505 -4.72104 1.13349 7.66505
76 1 46.6903 1.57211 -9.87222 -4.60136 1.57211 10.1278
77 2 25.3052 49.5365 -7.96826 -3.7648 0.148184 12.0317
78 2 49.161 1.56981 9.60463 -2.1306 1.56981 9.60463
79 1 26.7662 48.5353 -9.75308 -2.30375 -0.853037 10.2469
80 2 28.0308 46.9983 -8.20808 -1.03914 -2.39001 11.7919
81 2 29.129 49.0365 9.50452 0.0590478 -0.351778 9.50452
82 1 29.5708 48.9739 -8.03065 0.500844 -0.414446 11.9693
83 2 30.9714 47.4521 -6.59624 1.90139 -1.93625 13.4038
84 2 -19.4235 49.6313 -8.84325 2.79819 0.243003 11.1567
85 1 -19.0127 47.1599 -8.7209 3.20898 -2.2284 11.2791
86 2 -17.3065 45.689 -7.60164 4.91519 -3.69929 12.3984
87 2 -16.9055 48.2167 -9.61698 5.31617 -1.1716 10.383
88 1 -16.1209 47.8746 -7.26062 6.10075 -1.51368 12.7394
89 2 -14.3001 46.4905 -6.22158 7.92157 -2.89781 13.7784
90 2 -14.1147 49.0568 -8.22228 8.10693 -0.33155 11.7777
91 1 -13.2795 46.7149 -8.49971 8.94217 -2.67341 11.5003
92 2 -11.2646 45.4791 -7.652 10.9571 -3.90927 12.348
93 2 -11.4758 48.1429 -9.52139 10.7458 -1.2454 10.4786
94 1 -10.39 47.8001 -7.29077 11.8317 -1.58819 12.7092
95 2 -8.33028 46.6394 -6.44577 13.8914 -2.74888 13.5542
96 2 -8.65826 49.2815 -8.36074 13.5634 -0.106812 11.6393
97 1 -7.56186 47.0682 -8.79675 14.6598 -2.32011 11.2032
98 2 -5.3821 46.0199 -8.10343 16.8396 -3.36837 11.8966
99 2 -5.98896 48.7009 10.1079 16.2327 -0.687387 10.1079
100 1 -4.7396 48.4052 -7.75386 17.4821 -0.983118 12.2461
101 2 -2.40349 48.0578 -6.9748 19.8182 -1.33049 13.0252
102 2 18.8999 0.567753 -9.10022 18.8999 0.567753 10.8998
103 1 -1.94806 47.8998 -9.41575 20.2736 -1.4885 10.5842
104 2 0.248805 46.842 -8.8678 22.4705 -2.54628 11.1322
105 2 -0.13059 49.5077 10.0431 22.0911 0.119403 10.0431
106 1 37.2001 9.86097 -7.8519 37.2001 9.86097 -7.8519
107 2 36.3795 10.2256 -5.50563 36.3795 10.2256 -5.50563
108 2 38.8957 8.56133 -6.56581 38.8957 8.56133 -6.56581
109 1 38.7773 10.4343 -4.96691 -12.5144 10.4343 -4.96691
110 2 37.8041 10.8529 -2.7058 -13.4876 10.8529 -2.7058
111 2 40.3704 9.06103 -3.6425 -10.9213 9.06103 -3.6425
112 1 40.2265 11.0215 -2.08926 -11.0651 11.0215 -2.08926
113 2 39.2862 11.3736 0.19907 -12.0055 11.3736 0.19907
114 2 41.8566 9.63691 -0.812545 -9.43502 9.63691 -0.812545
115 1 39.7608 8.91923 0.385898 -11.5308 8.91923 0.385898
116 2 38.9849 8.91846 2.76729 -12.3067 8.91846 2.76729
117 2 41.6316 7.60676 1.39187 -9.66 7.60676 1.39187
118 1 41.4243 9.33816 3.19228 -9.86731 9.33816 3.19228
119 2 40.7996 9.15159 5.61404 -10.4921 9.15159 5.61404
120 2 43.4166 8.06474 4.01009 -7.87505 8.06474 4.01009
121 1 41.6617 6.80598 5.32228 -9.62997 6.80598 5.32228
122 2 41.3885 6.18058 7.74028 -9.90313 6.18058 7.74028
123 2 43.9097 5.76992 5.72583 -7.38196 5.76992 5.72583
124 1 43.7467 7.04346 7.87853 -7.54496 7.04346 7.87853
125 2 43.6529 6.24435 -9.73925 -7.63873 6.24435 10.2608
126 2 46.0796 6.13861 8.0961 -5.21199 6.13861 8.0961
127 1 44.9053 4.27538 9.3224 -6.38634 4.27538 9.3224
128 2 45.2678 3.10602 -8.47666 -6.02381 3.10602 11.5233
129 2 47.3691 3.78205 9.13433 -3.92257 3.78205 9.13433
130 1 47.3666 4.48761 -8.46293 -3.92502 4.48761 11.5371
131 2 47.9136 3.21467 -6.36147 -3.37809 3.21467 13.6385
132 2 49.8431 4.17011 -8.801 -1.44853 4.17011 11.199
133 1 49.3585 1.86647 -7.91687 -1.93318 1.86647 12.0831
134 2 28.1368 49.7874 -6.13246 -0.933145 0.399109 13.8675
135 2 0.503852 2.04343 -8.54578 0.503852 2.04343 11.4542
136 1 0.78988 2.22362 -6.06493 0.78988 2.22362 13.9351
137 2 -20.2703 50.1268 -4.40257 1.95139 0.738448 15.5974
138 2 3.17623 2.58559 -6.78873 3.17623 2.58559 13.2113
139 1 -18.8835 49.5007 -6.40089 3.33821 0.112349 13.5991
140 2 -17.3321 48.0392 -5.06962 4.88957 -1.34916 14.9304
141 2 5.54552 0.929487 -7.30472 5.54552 0.929487 12.6953
142 1 6.20832 0.777298 -4.89636 6.20832 0.777298 15.1036
143 2 -14.3372 48.7739 -3.65017 7.8845 -0.614439 16.3498
144 2 8.31786 1.76065 -5.86801 8.31786 1.76065 14.132
145 1 -13.2219 48.7339 -5.90255 8.99974 -0.65446 14.0974
146 2 -11.2583 47.475 -4.96169 10.9634 -1.91334 15.0383
147 2 10.8615 0.693824 -6.94951 10.8615 0.693824 13.0505
148 1 -10.3504 49.7834 -4.69005 11.8713 0.395034 15.3099
149 2 -8.12935 49.2008 -3.75186 14.0923 -0.187565 16.2481
150 2 13.4994 1.7799 -5.96741 13.4994 1.7799 14.0326
151 1 -7.53989 48.9865 -6.15248 14.6818 -0.401849 13.8475
152 2 -5.53478 47.6529 -5.51481 16.6869 -1.73547 14.4852
153 2 16.6537 1.04871 -6.58907 16.6537 1.04871 13.4109
154 1 37.6049 14.2826 7.50358 37.6049 14.2826 -12.4964
155 2 37.1397 14.4631 -10.0417 37.1397 14.4631 -10.0417
156 2 39.4539 12.8748 8.42488 39.4539 12.8748 -11.5751
157 1 37.516 12.0076 -10.2305 37.516 12.0076 -10.2305
158 2 36.8766 12.3333 -7.82745 36.8766 12.3333 -7.82745
159 2 39.2494 10.611 -9.10381 39.2494 10.611 -9.10381
160 1 39.3133 12.4423 -7.45549 39.3133 12.4423 -7.45549
161 2 38.443 12.8968 -5.15746 38.443 12.8968 -5.15746
162 2 40.8884 10.99 -6.19151 40.8884 10.99 -6.19151
163 1 40.8916 12.9537 -4.63774 -10.4001 12.9537 -4.63774
164 2 39.9335 13.4865 -2.39152 -11.3581 13.4865 -2.39152
165 2 42.3898 11.5185 -3.26207 -8.9018 11.5185 -3.26207
166 1 42.3599 13.5343 -1.77748 -8.93176 13.5343 -1.77748
167 2 41.3939 14.036 0.472303 -9.89773 14.036 0.472303
168 2 43.8748 12.1074 -0.408094 -7.41688 12.1074 -0.408094
169 1 41.7186 11.5686 0.775877 -9.57302 11.5686 0.775877
170 2 40.8627 11.7855 3.11757 -10.429 11.7855 3.11757
171 2 43.442 10.1821 1.93233 -7.8496 10.1821 1.93233
172 1 43.3106 12.0431 3.60342 -7.98108 12.0431 3.60342
173 2 42.5614 12.0979 5.99324 -8.73027 12.0979 5.99324
174 2 45.1486 10.6805 4.60866 -6.14299 10.6805 4.60866
175 1 43.2373 9.67771 5.9193 -8.05438 9.67771 5.9193
176 2 42.7648 9.30944 8.35657 -8.52687 9.30944 8.35657
177 2 45.344 8.47921 6.55145 -5.94759 8.47921 6.55145
178 1 45.1814 9.96108 8.56432 -6.11022 9.96108 8.56432
179 2 44.8595 9.42093 -9.00497 -6.4321 9.42093 10.995
180 2 47.3863 8.85969 9.01946 -3.90531 8.85969 9.01946
181 1 45.9523 7.25488 -9.6653 -5.33932 7.25488 10.3347
182 2 46.0374 6.30233 -7.33916 -5.25422 6.30233 12.6608
183 2 48.3485 6.49629 -9.622 -2.94318 6.49629 10.378
184 1 48.2662 7.459 -7.31252 -3.02544 7.459 12.6875
185 2 48.5511 6.39016 -5.05571 -2.74051 6.39016 14.9443
186 2 -0.587459 6.85793 -7.45189 -0.587459 6.85793 12.5481
187 1 49.9147 4.73188 -6.36185 -1.37696 4.73188 13.6381
188 2 50.6483 3.39399 -4.36433 -0.643383 3.39399 15.6357
189 2 1.08961 4.59402 -6.84525 1.08961 4.59402 13.1548
190 1 1.25646 5.03482 -4.38867 1.25646 5.03482 15.6113
191 2 2.1158 3.62518 -2.49465 2.1158 3.62518 17.5053
192 2 3.71104 5.09485 -4.95318 3.71104 5.09485 15.0468
193 1 3.55981 2.66221 -4.31828 3.55981 2.66221 15.6817
194 2 4.91075 1.19365 -2.78646 4.91075 1.19365 17.2135
195 2 5.87256 3.24845 -5.15174 5.87256 3.24845 14.8483
196 1 6.36524 3.21917 -2.70917 6.36524 3.21917 17.2908
197 2 8.17961 2.29164 -1.29784 8.17961 2.29164 18.7022
198 2 8.4568 3.96349 -3.8383 8.4568 3.96349 16.1617
199 1 9.07136 1.57618 -3.4983 9.07136 1.57618 16.5017
200 2 -11.4958 49.3849 -2.51585 10.7259 -0.00340955 17.4842
201 2 11.3169 2.61813 -3.73389 11.3169 2.61813 16.2661
202 1 36.553 19.3614 3.76208 36.553 19.3614 -16.2379
203 2 36.5356 18.9751 6.23271 36.5356 18.9751 -13.7673
204 2 38.7799 18.2434 4.07467 38.7799 18.2434 -15.9253
205 1 37.3199 16.7404 5.45765 37.3199 16.7404 -14.5423
206 2 37.0519 16.6703 7.94549 37.0519 16.6703 -12.0545
207 2 39.3508 15.4227 6.10423 39.3508 15.4227 -13.8958
208 1 39.4986 17.0175 7.97261 39.4986 17.0175 -12.0274
209 2 39.0597 17.0408 -9.56765 39.0597 17.0408 -9.56765
210 2 41.3873 15.5575 8.68561 41.3873 15.5575 -11.3144
211 1 39.5967 14.6192 -9.84252 39.5967 14.6192 -9.84252
212 2 38.916 14.9044 -7.45577 38.916 14.9044 -7.45577
213 2 41.3005 13.127 -8.80944 41.3005 13.127 -8.80944
214 1 41.4 14.9927 -7.13824 41.4 14.9927 -7.13824
215 2 40.5734 15.4259 -4.81539 40.5734 15.4259 -4.81539
216 2 42.9793 13.5072 -5.90725 42.9793 13.5072 -5.90725
217 1 43.0316 15.4651 -4.34411 -8.26001 15.4651 -4.34411
218 2 42.1084 16.0056 -2.0797 -9.18319 16.0056 -2.0797
219 2 44.514 13.9921 -2.98089 -6.77767 13.9921 -2.98089
220 1 44.5435 16.0116 -1.49925 -6.74814 16.0116 -1.49925
221 2 43.5693 16.5818 0.734434 -7.72232 16.5818 0.734434
222 2 45.9997 14.5637 -0.0832855 -5.29194 14.5637 -0.0832855
223 1 43.821 14.1137 1.08844 -7.47067 14.1137 1.08844
224 2 42.906 14.5107 3.38175 -8.38562 14.5107 3.38175
225 2 45.4148 12.687 2.37189 -5.87685 12.687 2.37189
226 1 45.3473 14.6416 3.93517 -5.94434 14.6416 3.93517
227 2 44.5173 14.9061 6.28045 -6.77432 14.9061 6.28045
228 2 -4.24871 13.22 5.0921 -4.24871 13.22 5.0921
229 1 45.0163 12.447 6.37939 -6.2753 12.447 6.37939
230 2 44.39 12.3342 8.80347 -6.90161 12.3342 8.80347
231 2 46.9692 11.129 7.21892 -4.32243 11.129 7.21892
232 1 46.8411 12.7867 9.09116 -4.45052 12.7867 9.09116
233 2 46.3504 12.5171 -8.46574 -4.94124 12.5171 11.5343
234 2 -2.39499 11.5265 9.75662 -2.39499 11.5265 9.75662
235 1 47.2405 10.205 -8.87434 -4.05117 10.205 11.1257
236 2 47.0713 9.50206 -6.4701 -4.22038 9.50206 13.5299
237 2 -1.76125 9.226 -8.58733 -1.76125 9.226 11.4127
238 1 -1.88882 10.4264 -6.39747 -1.88882 10.4264 13.6025
239 2 -1.88781 9.55719 -4.03488 -1.88781 9.55719 15.9651
240 2 0.495082 9.62153 -6.28447 0.495082 9.62153 13.7155
241 1 -0.588671 7.68386 -5.09129 -0.588671 7.68386 14.9087
242 2 -0.134946 6.51852 -2.91417 -0.134946 6.51852 17.0858
243 2 1.87814 7.26366 -5.38649 1.87814 7.26366 14.6135
244 1 1.92322 7.9397 -2.9854 1.92322 7.9397 17.0146
245 2 2.98714 7.03955 -0.907524 2.98714 7.03955 19.0925
246 2 4.34653 7.59874 -3.48807 4.34653 7.59874 16.5119
247 1 3.90672 5.36532 -2.48496 3.90672 5.36532 17.515
248 2 4.77016 3.69086 -0.851658 4.77016 3.69086 19.1483
249 2 6.37278 5.66576 -2.26909 6.37278 5.66576 17.7309
250 1 33.4696 24.6439 1.87006 33.4696 24.6439 -18.1299
251 2 34.1045 23.6505 4.06813 34.1045 23.6505 -15.9319
252 2 35.9289 24.2345 1.5084 35.9289 24.2345 -18.4916
253 1 35.2609 22.0458 2.53918 35.2609 22.0458 -17.4608
254 2 35.5517 21.3348 4.91559 35.5517 21.3348 -15.0844
255 2 37.6428 21.2369 2.49848 37.6428 21.2369 -17.5015
256 1 37.807 22.3242 4.69769 37.807 22.3242 -15.3023
257 2 37.9738 21.6967 7.11272 37.9738 21.6967 -12.8873
258 2 40.0747 21.2805 4.64914 40.0747 21.2805 -15.3509
259 1 38.92 19.6158 6.11089 38.92 19.6158 -13.8891
260 2 38.7638 19.3218 8.5887 38.7638 19.3218 -11.4113
261 2 41.0116 18.3008 6.4516 41.0116 18.3008 -13.5484
262 1 41.2206 19.8093 8.44805 41.2206 19.8093 -11.5519
263 2 40.8658 19.6448 -9.07306 40.8658 19.6448 -9.07306
264 2 43.2226 18.4276 9.03256 43.2226 18.4276 -10.9674
265 1 41.556 17.2711 -9.48878 41.556 17.2711 -9.48878
266 2 40.9266 17.4489 -7.06811 40.9266 17.4489 -7.06811
267 2 43.3242 15.7912 -8.52968 43.3242 15.7912 -8.52968
268 1 43.4126 17.6131 -6.80766 43.4126 17.6131 -6.80766
269 2 42.639 17.9373 -4.4431 42.639 17.9373 -4.4431
270 2 45.0622 16.1264 -5.6606 45.0622 16.1264 -5.6606
271 1 -6.18353 18.0359 -4.03617 -6.18353 18.0359 -4.03617
272 2 44.2349 18.4871 -1.72832 -7.05678 18.4871 -1.72832
273 2 -4.63856 16.5508 -2.74972 -4.63856 16.5508 -2.74972
274 1 -4.60643 18.5286 -1.20987 -4.60643 18.5286 -1.20987
275 2 -5.5663 19.0712 1.04259 -5.5663 19.0712 1.04259
276 2 -3.13541 17.0703 0.188504 -3.13541 17.0703 0.188504
277 1 -5.30064 16.6024 1.37061 -5.30064 16.6024 1.37061
278 2 45.0395 17.1109 3.62684 -6.25212 17.1109 3.62684
279 2 -3.79224 15.1606 2.73748 -3.79224 15.1606 2.73748
280 1 -3.82219 17.1675 4.23496 -3.82219 17.1675 4.23496
281 2 -4.67331 17.5743 6.54954 -4.67331 17.5743 6.54954
282 2 -2.22846 15.6985 5.47607 -2.22846 15.6985 5.47607
283 1 -4.31789 15.1007 6.74405 -4.31789 15.1007 6.74405
284 2 -5.0543 15.2221 9.13122 -5.0543 15.2221 9.13122
285 2 -2.5144 13.7061 7.76254 -2.5144 13.7061 7.76254
286 1 -2.59092 15.4977 9.50972 -2.59092 15.4977 9.50972
287 2 -3.22082 15.4621 -8.06047 -3.22082 15.4621 11.9395
288 2 -0.662554 14.1464 -9.63148 -0.662554 14.1464 10.3685
289 1 -2.50196 13.0685 -8.27761 -2.50196 13.0685 11.7224
290 2 -2.90519 12.6567 -5.83468 -2.90519 12.6567 14.1653
291 2 -0.348602 11.9092 -7.74683 -0.348602 11.9092 12.2532
292 1 -0.502927 13.3214 -5.69575 -0.502927 13.3214 14.3043
293 2 -1.04226 12.5992 -3.36914 -1.04226 12.5992 16.6309
294 2 1.61959 12.7327 -4.54863 1.61959 12.7327 15.4514
295 1 0.359425 10.6432 -4.01947 0.359425 10.6432 15.9805
296 2 1.21096 10.0099 -1.77692 1.21096 10.0099 18.2231
297 2 2.72115 9.91754 -4.30445 2.72115 9.91754 15.6955
298 1 28.7562 28.9971 2.19983 28.7562 28.9971 -17.8002
299 2 30.0596 27.681 3.86562 30.0596 27.681 -16.1344
300 2 31.113 29.4815 1.44259 31.113 29.4815 -18.5574
301 1 31.2626 27.0002 1.77273 31.2626 27.0002 -18.2273
302 2 32.2454 25.8009 3.72347 32.2454 25.8009 -16.2765
303 2 33.7094 27.04 1.1656 33.7094 27.04 -18.8344
304 1 34.0654 27.4685 3.56037 34.0654 27.4685 -16.4396
305 2 34.9507 26.3018 5.58401 34.9507 26.3018 -14.416
306 2 36.4576 27.2746 2.8569 36.4576 27.2746 -17.1431
307 1 36.1653 24.9975 3.83365 36.1653 24.9975 -16.1664
308 2 36.6874 24.0652 6.09363 36.6874 24.0652 -13.9064
309 2 38.5412 24.3404 3.42145 38.5412 24.3404 -16.5786
310 1 38.8521 25.2793 5.72953 38.8521 25.2793 -14.2705
311 2 39.2029 24.4021 8.0564 39.2029 24.4021 -11.9436
312 2 41.2153 24.4682 5.49699 41.2153 24.4682 -14.503
313 1 40.3215 22.5281 6.81459 40.3215 22.5281 -13.1854
314 2 40.3004 21.9953 9.26829 40.3004 21.9953 -10.7317
315 2 42.5362 21.3681 6.98389 42.5362 21.3681 -13.0161
316 1 -8.59622 22.7147 9.10044 42.6954 22.7147 -10.8996
317 2 42.4845 22.322 -8.42305 42.4845 22.322 -8.42305
318 2 -6.46387 21.45 9.49242 44.8278 21.45 -10.5076
319 1 43.3401 20.0421 -9.04642 43.3401 20.0421 -9.04642
320 2 42.8063 20.038 -6.58993 42.8063 20.038 -6.58993
321 2 -6.06648 18.6064 -8.23599 45.2252 18.6064 -8.23599
322 1 -6.00269 20.3317 -6.41206 45.2889 20.3317 -6.41206
323 2 -6.68846 20.4927 -3.99829 44.6032 20.4927 -3.99829
324 2 -4.24369 18.8614 -5.40277 47.0479 18.8614 -5.40277
325 1 -4.20913 20.6886 -3.68296 -4.20913 20.6886 -3.68296
326 2 -5.03593 20.9959 -1.32908 -5.03593 20.9959 -1.32908
327 2 -2.56209 19.223 -2.49688 -2.56209 19.223 -2.49688
328 1 -2.57625 21.1326 -0.87083 -2.57625 21.1326 -0.87083
329 2 -3.49872 21.5632 1.42542 -3.49872 21.5632 1.42542
330 2 -1.02287 19.6793 0.447281 -1.02287 19.6793 0.447281
331 1 -3.13995 19.0966 1.66217 -3.13995 19.0966 1.66217
332 2 -4.1312 19.6308 3.89813 -4.1312 19.6308 3.89813
333 2 -1.65375 17.673 3.07562 -1.65375 17.673 3.07562
334 1 -1.71425 19.6956 4.55368 -1.71425 19.6956 4.55368
335 2 -2.60364 20.1099 6.8618 -2.60364 20.1099 6.8618
336 2 -0.112933 18.2444 5.82263 -0.112933 18.2444 5.82263
337 1 -2.21921 17.6402 7.05508 -2.21921 17.6402 7.05508
338 2 -3.03629 17.9675 9.39857 -3.03629 17.9675 9.39857
339 2 -0.537985 16.1988 8.21877 -0.537985 16.1988 8.21877
340 1 -0.586901 18.0764 -10.144 -0.586901 18.0764 9.85601
341 2 -1.61163 18.1584 -7.87697 -1.61163 18.1584 12.123
342 2 1.11676 17.2661 -8.52821 1.11676 17.2661 11.4718
343 1 -0.767196 15.8171 -7.78795 -0.767196 15.8171 12.212
344 2 -0.788764 15.754 -5.30814 -0.788764 15.754 14.6919
345 2 1.17793 14.3825 -7.19908 1.17793 14.3825 12.8009
346 1 23.2959 31.7797 4.23266 23.2959 31.7797 -15.7673
347 2 25.0595 30.4145 5.35065 25.0595 30.4145 -14.6494
348 2 25.381 32.9604 3.44366 25.381 32.9604 -16.5563
349 1 26.0693 30.5839 3.05683 26.0693 30.5839 -16.9432
350 2 27.6387 29.2256 4.43622 27.6387 29.2256 -15.5638
351 2 28.2911 31.4589 2.24323 28.2911 31.4589 -17.7568
352 1 28.9646 31.3066 4.60465 28.9646 31.3066 -15.3954
353 2 30.4816 29.9401 6.04148 30.4816 29.9401 -13.9585
354 2 31.1498 32.0346 3.62643 31.1498 32.0346 -16.3736
355 1 31.6234 29.5981 3.84547 31.6234 29.5981 -16.1545
356 2 32.8489 28.2889 5.58309 32.8489 28.2889 -14.4169
357 2 33.9432 29.8836 2.95267 33.9432 29.8836 -17.0473
358 1 34.4989 30.1706 5.38411 34.4989 30.1706 -14.6159
359 2 35.596 28.8328 7.20067 35.596 28.8328 -12.7993
360 2 36.8775 30.2963 4.58774 36.8775 30.2963 -15.4123
361 1 36.8727 27.8819 5.25754 36.8727 27.8819 -14.7425
362 2 37.6063 26.7262 7.36154 37.6063 26.7262 -12.6385
363 2 39.2918 27.519 4.69024 39.2918 27.519 -15.3098
364 1 39.6185 28.1955 7.08828 39.6185 28.1955 -12.9117
365 2 40.1897 27.089 9.27495 40.1897 27.089 -10.7251
366 2 -9.24838 27.6671 6.66464 42.0433 27.6671 -13.3354
367 1 -9.85095 25.4957 7.77992 41.4407 25.4957 -12.2201
368 2 -9.68109 24.7185 -9.83152 41.6105 24.7185 -9.83152
369 2 -7.52562 24.539 7.73817 43.766 24.539 -12.2618
370 1 -7.37332 25.6791 -10.024 43.9183 25.6791 -10.024
371 2 -7.36654 25.0524 -7.58277 43.9251 25.0524 -7.58277
372 2 -5.11614 24.5771 -9.88145 46.1755 24.5771 -9.88145
373 1 -6.37135 22.9149 -8.46515 44.9203 22.9149 -8.46515
374 2 -6.7531 22.6923 -5.9866 44.5385 22.6923 -5.9866
375 2 -4.34881 21.5559 -7.86347 46.9428 21.5559 -7.86347
376 1 -4.28671 23.147 -5.91667 47.0049 23.147 -5.91667
377 2 -4.86097 23.1031 -3.46481 46.4307 23.1031 -3.46481
378 2 -2.39322 21.7283 -5.08433 48.8984 21.7283 -5.08433
379 1 -2.38474 23.4407 -3.24647 -2.38474 23.4407 -3.24647
380 2 -3.17135 23.5689 -0.856005 -3.17135 23.5689 -0.856005
381 2 -0.617244 22.0281 -2.1683 -0.617244 22.0281 -2.1683
382 1 -0.718143 23.8463 -0.444123 -0.718143 23.8463 -0.444123
383 2 -1.59771 24.1058 1.90276 -1.59771 24.1058 1.90276
384 2 0.978531 22.4389 0.750032 0.978531 22.4389 0.750032
385 1 -1.06113 21.6514 1.99555 -1.06113 21.6514 1.99555
386 2 -2.03877 22.1669 4.25475 -2.03877 22.1669 4.25475
387 2 0.451816 20.2152 3.39048 0.451816 20.2152 3.39048
388 1 0.372839 22.2122 4.87935 0.372839 22.2122 4.87935
389 2 -0.794103 22.5694 7.0499 -0.794103 22.5694 7.0499
390 2 1.89968 21.3355 6.63046 1.89968 21.3355 6.63046
391 1 -0.165948 20.1823 7.39259 -0.165948 20.1823 7.39259
392 2 -0.385048 20.5483 -10.1628 -0.385048 20.5483 9.83721
393 2 1.40066 18.5535 8.4375 1.40066 18.5535 8.4375
394 1 17.6957 33.2229 7.18412 17.6957 33.2229 -12.8159
395 2 19.6812 31.8612 7.87475 19.6812 31.8612 -12.1253
396 2 19.5781 34.7784 6.57221 19.5781 34.7784 -13.4278
397 1 20.495 32.6424 5.63128 20.495 32.6424 -14.3687
398 2 22.385 31.2692 6.51808 22.385 31.2692 -13.4819
399 2 22.4716 34.0404 4.92642 22.4716 34.0404 -15.0736
400 1 23.3933 33.4395 7.12916 23.3933 33.4395 -12.8708
401 2 25.3075 32.1131 8.02424 25.3075 32.1131 -11.9758
402 2 25.259 34.8322 6.21178 25.259 34.8322 -13.7882
403 1 26.1956 32.5755 5.73437 26.1956 32.5755 -14.2656
404 2 27.943 31.2121 6.88272 27.943 31.2121 -13.1173
405 2 28.2184 33.6779 4.7572 28.2184 33.6779 -15.2428
406 1 29.0892 33.4337 7.09623 29.0892 33.4337 -12.9038
407 2 30.7769 32.022 8.29318 30.7769 32.022 -11.7068
408 2 31.1798 34.4377 6.13971 31.1798 34.4377 -13.8603
409 1 31.864 32.0357 6.03234 31.864 32.0357 -13.9677
410 2 33.2849 30.619 7.53558 33.2849 30.619 -12.4644
411 2 34.1231 32.63 5.11185 34.1231 32.63 -14.8882
412 1 34.7579 32.6482 7.54209 34.7579 32.6482 -12.4579
413 2 36.05 31.1827 9.12307 36.05 31.1827 -10.8769
414 2 37.0883 33.099 6.70457 37.0883 33.099 -13.2954
415 1 37.3424 30.6241 7.03506 37.3424 30.6241 -12.9649
416 2 38.2927 29.2794 8.93513 38.2927 29.2794 -11.0649
417 2 -11.5277 30.5914 6.34582 39.7639 30.5914 -13.6542
418 1 -11.1578 30.9766 8.80171 40.1339 30.9766 -11.1983
419 2 -10.332 29.6758 -9.2105 40.9597 29.6758 -9.2105
420 2 -8.71789 30.7871 8.1938 42.5737 30.7871 -11.8062
421 1 -9.00093 28.4379 9.04557 42.2907 28.4379 -10.9544
422 2 -8.57382 27.4385 -8.67985 42.7178 27.4385 -8.67985
423 2 -6.596 27.7396 8.75752 44.6956 27.7396 -11.2425
424 1 -6.38512 28.6451 -8.90168 44.9065 28.6451 -8.90168
425 2 -6.08291 27.8039 -6.54062 45.2087 27.8039 -6.54062
426 2 -4.0267 27.7636 -9.05369 47.2649 27.7636 -9.05369
427 1 -4.99347 25.8586 -7.71572 46.2982 25.8586 -7.71572
428 2 -5.16956 25.4049 -5.24209 46.1221 25.4049 -5.24209
429 2 -2.83576 24.6179 -7.36423 48.4559 24.6179 -7.36423
430 1 -2.74107 26.0504 -5.29268 48.5506 26.0504 -5.29268
431 2 -3.18018 25.7843 -2.82192 48.1115 25.7843 -2.82192
432 2 -0.718864 24.7065 -4.65668 50.5728 24.7065 -4.65668
433 1 -0.726171 26.2852 -2.70138 -0.726171 26.2852 -2.70138
434 2 -1.43918 26.2438 -0.268727 -1.43918 26.2438 -0.268727
435 2 1.15251 24.903 -1.75986 1.15251 24.903 -1.75986
436 1 1.00396 26.6157 0.0467592 1.00396 26.6157 0.0467592
437 2 0.00799001 26.6641 2.33469 0.00799001 26.6641 2.33469
438 2 2.75276 25.6297 1.51247 2.75276 25.6297 1.51247
439 1 0.836548 24.3114 2.39598 0.836548 24.3114 2.39598
440 2 0.682695 24.6792 4.85373 0.682695 24.6792 4.85373
441 2 2.37753 22.669 3.46993 2.37753 22.669 3.46993
442 1 12.1603 33.831 -9.4197 12.1603 33.831 -9.4197
443 2 14.3773 32.7731 -8.85148 14.3773 32.7731 -8.85148
444 2 13.7512 35.6005 9.79845 13.7512 35.6005 -10.2015
445 1 14.9125 33.5816 8.84137 14.9125 33.5816 -11.1586
446 2 17.0104 32.3247 9.42177 17.0104 32.3247 -10.5782
447 2 16.6683 35.2671 8.22316 16.6683 35.2671 -11.7768
448 1 17.8071 34.5047 -9.72702 17.8071 34.5047 -9.72702
449 2 19.8508 33.2263 -9.07139 19.8508 33.2263 -9.07139
450 2 19.5248 36.124 9.4541 19.5248 36.124 -10.5459
451 1 20.597 34.0112 8.67947 20.597 34.0112 -11.3205
452 2 22.6123 32.7234 9.39212 22.6123 32.7234 -10.6079
453 2 22.3495 35.5858 7.83674 22.3495 35.5858 -12.1633
454 1 23.4571 35.0012 10.0045 23.4571 35.0012 -9.99551
455 2 25.4701 33.714 -9.26463 25.4701 33.714 -9.26463
456 2 25.2215 36.548 9.13215 25.2215 36.548 -10.8679
457 1 26.2686 34.3866 8.4607 26.2686 34.3866 -11.5393
458 2 28.1569 33.0334 9.38807 28.1569 33.0334 -10.6119
459 2 28.1779 35.7171 7.53119 28.1779 35.7171 -12.4688
460 1 29.1599 35.2919 9.79858 29.1599 35.2919 -10.2014
461 2 30.9757 33.8644 -9.22583 30.9757 33.8644 -9.22583
462 2 31.153 36.5267 8.90057 31.153 36.5267 -11.0994
463 1 31.9946 34.2028 8.50206 31.9946 34.2028 -11.4979
464 2 33.5812 32.7216 9.76481 33.5812 32.7216 -10.2352
465 2 34.1702 35.0844 7.60082 34.1702 35.0844 -12.3992
466 1 34.8897 34.8461 9.99462 34.8897 34.8461 -10.0054
467 2 36.3664 33.3183 -8.66159 36.3664 33.3183 -8.66159
468 2 -14.1535 35.6007 9.14838 37.1382 35.6007 -10.8516
469 1 -13.672 33.1374 9.16022 37.6196 33.1374 -10.8398
470 2 -12.5097 31.6496 -9.17869 38.782 31.6496 -9.17869
471 2 -11.2891 33.4537 8.40313 40.0026 33.4537 -11.5969
472 1 -10.8503 33.5301 -9.12394 40.4413 33.5301 -9.12394
473 2 -9.78911 32.0437 -7.40193 41.5025 32.0437 -7.40193
474 2 -8.43801 33.7421 -9.82653 42.8536 33.7421 -9.82653
475 1 -8.39885 31.2726 -9.35944 42.8928 31.2726 -9.35944
476 2 -7.65854 30.08 -7.26813 43.6331 30.08 -7.26813
477 2 -5.96014 30.9085 -9.91144 45.3315 30.9085 -9.91144
478 1 -5.6328 31.5483 -7.49621 45.6588 31.5483 -7.49621
479 2 -4.9525 30.5188 -5.28665 46.3391 30.5188 -5.28665
480 2 -3.20929 30.9859 -7.97548 48.0823 30.9859 -7.97548
481 1 -3.80508 28.8438 -6.77938 47.4866 28.8438 -6.77938
482 2 -3.7346 28.1614 -4.34297 47.557 28.1614 -4.34297
483 2 -1.52419 27.7775 -6.68585 49.7674 27.7775 -6.68585
484 1 -1.37465 29.0354 -4.49254 49.917 29.0354 -4.49254
485 2 -1.63702 28.5334 -2.01857 49.6546 28.5334 -2.01857
486 2 0.766707 27.7809 -4.10681 52.0583 27.7809 -4.10681
487 1 0.762505 29.1896 -2.04457 0.762505 29.1896 -2.04457
488 2 1.09096 29.0759 0.440977 1.09096 29.0759 0.440977
489 2 2.65186 27.6204 -1.5521 2.65186 27.6204 -1.5521
490 1 6.73024 34.4451 -5.84124 6.73024 34.4451 -5.84124
491 2 9.08457 33.8559 -5.1559 9.08457 33.8559 -5.1559
492 2 8.0448 36.1346 -7.13984 8.0448 36.1346 -7.13984
493 1 9.4424 34.0929 -7.62457 9.4424 34.0929 -7.62457
494 2 11.7478 33.2688 -7.01689 11.7478 33.2688 -7.01689
495 2 10.8715 35.8629 -8.66325 10.8715 35.8629 -8.66325
496 1 12.226 35.6569 -6.60829 12.226 35.6569 -6.60829
497 2 14.3096 34.5193 -5.8231 14.3096 34.5193 -5.8231
498 2 13.8852 37.2195 -7.61657 13.8852 37.2195 -7.61657
499 1 15.0165 35.0542 -8.15409 15.0165 35.0542 -8.15409
500 2 17.0621 33.802 -7.45146 17.0621 33.802 -7.45146
501 2 16.7265 36.6464 -9.02501 16.7265 36.6464 -9.02501
502 1 17.8521 36.1035 -6.85633 17.8521 36.1035 -6.85633
503 2 19.866 34.8126 -6.13662 19.866 34.8126 -6.13662
504 2 19.6067 37.6599 -7.71787 19.6067 37.6599 -7.71787
505 1 20.6579 35.5017 -8.40102 20.6579 35.5017 -8.40102
506 2 22.7038 34.2269 -7.74358 22.7038 34.2269 -7.74358
507 2 22.3789 37.1155 -9.23394 22.3789 37.1155 -9.23394
508 1 23.512 36.5042 -7.08806 23.512 36.5042 -7.08806
509 2 25.5434 35.1923 -6.45095 25.5434 35.1923 -6.45095
510 2 25.2592 38.1079 -7.89244 25.2592 38.1079 -7.89244
511 1 26.3258 35.9957 -8.68881 26.3258 35.9957 -8.68881
512 2 28.2948 34.6458 -7.93649 28.2948 34.6458 -7.93649
513 2 28.1545 37.4835 -9.54071 28.1545 37.4835 -9.54071
514 1 29.2039 36.9005 -7.34159 29.2039 36.9005 -7.34159
515 2 31.1175 35.491 -6.54619 31.1175 35.491 -6.54619
516 2 31.1002 38.3138 -8.17886 31.1002 38.3138 -8.17886
517 1 32.0552 36.0833 -8.80165 32.0552 36.0833 -8.80165
518 2 33.7867 34.595 -7.75734 33.7867 34.595 -7.75734
519 2 34.1266 37.211 -9.67077 34.1266 37.211 -9.67077
520 1 34.9421 36.7749 -7.33974 34.9421 36.7749 -7.33974
521 2 -14.7014 35.2533 -6.20656 36.5902 35.2533 -6.20656
522 2 -14.2144 37.7881 -8.19561 37.0772 37.7881 -8.19561
523 1 -13.5272 35.3858 -8.42871 37.7645 35.3858 -8.42871
524 2 -12.1839 33.8067 -7.00145 39.1077 33.8067 -7.00145
525 2 -11.2044 36.013 -9.18443 40.0872 36.013 -9.18443
526 1 -10.689 35.8013 -6.73349 40.6026 35.8013 -6.73349
527 2 -9.51331 34.0987 -5.2744 41.7783 34.0987 -5.2744
528 2 -8.30071 36.3548 -7.30474 42.9909 36.3548 -7.30474
529 1 -8.05355 33.8639 -7.3449 43.2381 33.8639 -7.3449
530 2 -6.94214 32.5129 -5.57088 44.3495 32.5129 -5.57088
531 2 -5.66446 33.9608 -8.18493 45.6272 33.9608 -8.18493
532 1 -5.14436 34.2888 -5.74715 46.1473 34.2888 -5.74715
533 2 -4.09505 33.0161 -3.79403 47.1966 33.0161 -3.79403
534 2 -2.69862 34.2341 -6.43688 48.593 34.2341 -6.43688
535 1 -2.81965 31.842 -5.61307 48.472 31.842 -5.61307
536 2 -2.38966 30.9751 -3.24143 48.902 30.9751 -3.24143