ITEM: TIMESTEP
1363000
ITEM: NUMBER OF ATOMS
810
ITEM: BOX BOUNDS xy xz yz pp pp pp
8.6298438867990135e-01 5.8886248975314707e+01 6.7316283639955401e+00
8.1394622342039402e-01 5.0202268776579182e+01 0.0000000000000000e+00
-1.0000000000000000e+01 1.0000000000000000e+01 0.0000000000000000e+00
ITEM: ATOMS id type x y z xu yu zu
1 1 47.8993 1.13648 1.73717 -3.39238 1.13648 1.73717
2 2 49.6429 1.31686 3.56933 -1.64871 1.31686 3.56933
3 2 50.0242 0.956219 0.370367 -1.26743 0.956219 0.370367
4 1 50.9849 2.77041 1.91568 -0.306767 2.77041 1.91568
5 2 1.50011 2.87004 3.69239 1.50011 2.87004 3.69239
6 2 1.77223 2.65044 0.469895 1.77223 2.65044 0.469895
7 1 2.42398 1.01704 2.2734 2.42398 1.01704 2.2734
8 2 4.47462 0.822949 3.75175 4.47462 0.822949 3.75175
9 2 4.27356 1.17216 0.535559 4.27356 1.17216 0.535559
10 1 5.52558 2.62991 2.24101 5.52558 2.62991 2.24101
11 2 7.62589 2.37229 3.63632 7.62589 2.37229 3.63632
12 2 7.31427 2.8606 0.446694 7.31427 2.8606 0.446694
13 1 8.23096 0.891013 1.70203 8.23096 0.891013 1.70203
14 2 17.2181 49.8442 2.76223 10.4864 0.455917 2.76223
15 2 9.77296 1.39919 -0.258972 9.77296 1.39919 -0.258972
16 1 11.3052 2.53067 1.46826 11.3052 2.53067 1.46826
17 2 13.5846 2.06894 2.46026 13.5846 2.06894 2.46026
18 2 12.7963 3.09665 -0.515229 12.7963 3.09665 -0.515229
19 1 13.8492 0.957362 0.227735 13.8492 0.957362 0.227735
20 2 22.8967 49.8885 1.11135 16.1651 0.500218 1.11135
21 2 15.231 1.6007 -1.79626 15.231 1.6007 -1.79626
22 1 16.8866 2.63963 -0.12111 16.8866 2.63963 -0.12111
23 2 19.1937 2.20621 0.794754 19.1937 2.20621 0.794754
24 2 18.2852 3.25219 -2.14066 18.2852 3.25219 -2.14066
25 1 19.4039 1.11715 -1.46894 19.4039 1.11715 -1.46894
26 2 28.355 50.2103 -0.296551 21.6233 0.822008 -0.296551
27 2 20.9929 1.4801 -3.40915 20.9929 1.4801 -3.40915
28 1 22.4704 2.77338 -1.73907 22.4704 2.77338 -1.73907
29 2 24.6568 2.52549 -0.491042 24.6568 2.52549 -0.491042
30 2 24.1184 3.06003 -3.64363 24.1184 3.06003 -3.64363
31 1 25.1491 1.08031 -2.49876 25.1491 1.08031 -2.49876
32 2 27.1454 1.07324 -0.930481 27.1454 1.07324 -0.930481
33 2 27.057 1.04804 -4.16995 27.057 1.04804 -4.16995
34 1 28.2484 2.69933 -2.58638 28.2484 2.69933 -2.58638
35 2 30.1902 2.76053 -0.949292 30.1902 2.76053 -0.949292
36 2 30.2142 2.59495 -4.18565 30.2142 2.59495 -4.18565
37 1 30.9906 0.928416 -2.47482 30.9906 0.928416 -2.47482
38 2 32.6814 1.28517 -0.60583 32.6814 1.28517 -0.60583
39 2 39.8927 49.9684 -3.73391 33.1611 0.580037 -3.73391
40 1 34.0832 2.55245 -2.34938 34.0832 2.55245 -2.34938
41 2 35.7153 2.97606 -0.442117 35.7153 2.97606 -0.442117
42 2 36.2901 2.16269 -3.52828 36.2901 2.16269 -3.52828
43 1 36.7147 0.891953 -1.40588 36.7147 0.891953 -1.40588
44 2 38.1427 1.53491 0.595887 38.1427 1.53491 0.595887
45 2 45.7506 49.7907 -2.31676 39.019 0.402353 -2.31676
46 1 39.7684 2.55688 -1.11753 39.7684 2.55688 -1.11753
47 2 41.1679 3.21858 0.894327 41.1679 3.21858 0.894327
48 2 42.082 2.06979 -2.00061 42.082 2.06979 -2.00061
49 1 42.2599 1.05472 0.291389 42.2599 1.05472 0.291389
50 2 43.7109 1.60382 2.29133 43.7109 1.60382 2.29133
51 2 51.276 50.0448 -0.698377 44.5444 0.656511 -0.698377
52 1 45.3049 2.73376 0.611963 45.3049 2.73376 0.611963
53 2 46.802 3.21996 2.59523 46.802 3.21996 2.59523
54 2 47.5693 2.36916 -0.440158 47.5693 2.36916 -0.440158
55 1 48.3569 4.40545 0.916704 -2.93478 4.40545 0.916704
56 2 49.908 4.8207 2.87586 -1.38367 4.8207 2.87586
57 2 50.5956 4.07931 -0.206256 -0.696064 4.07931 -0.206256
58 1 51.4172 6.06763 1.19982 0.12554 6.06763 1.19982
59 2 1.73359 6.40649 3.12875 1.73359 6.40649 3.12875
60 2 2.33435 5.78638 0.00265346 2.33435 5.78638 0.00265346
61 1 2.78498 4.39656 2.05918 2.78498 4.39656 2.05918
62 2 4.65377 4.41689 3.77369 4.65377 4.41689 3.77369
63 2 4.81433 4.34118 0.537351 4.81433 4.34118 0.537351
64 1 5.88176 6.01621 2.16653 5.88176 6.01621 2.16653
65 2 7.8104 5.95934 3.81258 7.8104 5.95934 3.81258
66 2 7.85821 6.0296 0.572568 7.85821 6.0296 0.572568
67 1 8.62505 4.24412 2.17006 8.62505 4.24412 2.17006
68 2 10.7699 3.93022 3.48198 10.7699 3.93022 3.48198
69 2 10.353 4.54932 0.326716 10.353 4.54932 0.326716
70 1 11.721 5.86176 2.06181 11.721 5.86176 2.06181
71 2 13.906 5.4979 3.28988 13.906 5.4979 3.28988
72 2 13.3884 6.24028 0.175768 13.3884 6.24028 0.175768
73 1 14.371 4.17943 1.20589 14.371 4.17943 1.20589
74 2 16.6681 3.69974 2.14224 16.6681 3.69974 2.14224
75 2 15.8185 4.79324 -0.793285 15.8185 4.79324 -0.793285
76 1 17.4288 5.83711 0.919788 17.4288 5.83711 0.919788
77 2 19.739 5.35129 1.81491 19.739 5.35129 1.81491
78 2 18.8401 6.48382 -1.09133 18.8401 6.48382 -1.09133
79 1 19.9247 4.32332 -0.468574 19.9247 4.32332 -0.468574
80 2 22.2181 3.9171 0.495045 22.2181 3.9171 0.495045
81 2 21.3552 4.88966 -2.47863 21.3552 4.88966 -2.47863
82 1 22.967 6.004 -0.806667 22.967 6.004 -0.806667
83 2 25.2436 5.62893 0.212956 25.2436 5.62893 0.212956
84 2 24.4382 6.5136 -2.80327 24.4382 6.5136 -2.80327
85 1 25.5446 4.42123 -1.98211 25.5446 4.42123 -1.98211
86 2 27.6935 4.22514 -0.65738 27.6935 4.22514 -0.65738
87 2 27.2536 4.62978 -3.84369 27.2536 4.62978 -3.84369
88 1 28.6262 6.06099 -2.19509 28.6262 6.06099 -2.19509
89 2 30.7323 5.92021 -0.792259 30.7323 5.92021 -0.792259
90 2 30.3983 6.19152 -4.00486 30.3983 6.19152 -4.00486
91 1 31.35 4.31567 -2.63472 31.35 4.31567 -2.63472
92 2 33.2338 4.44639 -0.93276 33.2338 4.44639 -0.93276
93 2 33.3713 4.14473 -4.15655 33.3713 4.14473 -4.15655
94 1 34.4523 5.93123 -2.64063 34.4523 5.93123 -2.64063
95 2 36.2765 6.13257 -0.87953 36.2765 6.13257 -0.87953
96 2 36.5252 5.69911 -4.08191 36.5252 5.69911 -4.08191
97 1 37.1697 4.18321 -2.18617 37.1697 4.18321 -2.18617
98 2 38.7461 4.66828 -0.247183 38.7461 4.66828 -0.247183
99 2 39.4075 3.75984 -3.28995 39.4075 3.75984 -3.28995
100 1 40.2492 5.82161 -1.98715 40.2492 5.82161 -1.98715
101 2 41.772 6.3626 -0.0206752 41.772 6.3626 -0.0206752
102 2 42.5144 5.37178 -3.01953 42.5144 5.37178 -3.01953
103 1 42.8144 4.2305 -0.80563 42.8144 4.2305 -0.80563
104 2 44.1976 4.89226 1.21347 44.1976 4.89226 1.21347
105 2 45.1316 3.75673 -1.68047 45.1316 3.75673 -1.68047
106 1 45.8541 5.91169 -0.472821 45.8541 5.91169 -0.472821
107 2 47.2393 6.55225 1.54849 47.2393 6.55225 1.54849
108 2 48.168 5.45991 -1.36367 48.168 5.45991 -1.36367
109 1 48.891 7.59683 -0.127766 -2.4006 7.59683 -0.127766
110 2 50.2964 8.19637 1.8905 -0.995269 8.19637 1.8905
111 2 51.1956 7.1734 -1.05562 -0.096004 7.1734 -1.05562
112 1 51.9291 9.28167 0.220526 0.637512 9.28167 0.220526
113 2 2.07988 9.82763 2.2279 2.07988 9.82763 2.2279
114 2 2.92643 8.88711 -0.760495 2.92643 8.88711 -0.760495
115 1 3.19403 7.72029 1.46016 3.19403 7.72029 1.46016
116 2 4.86329 7.97942 3.3503 4.86329 7.97942 3.3503
117 2 5.36738 7.48863 0.185009 5.36738 7.48863 0.185009
118 1 6.27104 9.36282 1.69244 6.27104 9.36282 1.69244
119 2 8.00184 9.54052 3.53704 8.00184 9.54052 3.53704
120 2 8.40513 9.18677 0.339738 8.40513 9.18677 0.339738
121 1 8.98218 7.63114 2.23716 8.98218 7.63114 2.23716
122 2 10.9686 7.50108 3.80843 10.9686 7.50108 3.80843
123 2 10.9023 7.71593 0.575093 10.9023 7.71593 0.575093
124 1 12.0848 9.24329 2.26895 12.0848 9.24329 2.26895
125 2 14.126 9.04554 3.76036 14.126 9.04554 3.76036
126 2 13.9459 9.40125 0.543682 13.9459 9.40125 0.543682
127 1 14.8121 7.48479 1.91701 14.8121 7.48479 1.91701
128 2 17.0332 7.08039 3.06284 17.0332 7.08039 3.06284
129 2 16.4195 7.93144 -0.0063185 16.4195 7.93144 -0.0063185
130 1 17.8967 9.1153 1.73363 17.8967 9.1153 1.73363
131 2 20.1488 8.67857 2.80181 20.1488 8.67857 2.80181
132 2 19.4468 9.6247 -0.220915 19.4468 9.6247 -0.220915
133 1 20.4787 7.5043 0.609892 20.4787 7.5043 0.609892
134 2 22.7962 7.02558 1.48442 22.7962 7.02558 1.48442
135 2 21.8657 8.1634 -1.40989 21.8657 8.1634 -1.40989
136 1 23.5215 9.18063 0.277611 23.5215 9.18063 0.277611
137 2 25.8404 8.72076 1.15369 25.8404 8.72076 1.15369
138 2 24.899 9.83009 -1.74799 24.899 9.83009 -1.74799
139 1 26.0152 7.67942 -1.13206 26.0152 7.67942 -1.13206
140 2 28.2705 7.34002 -0.0488287 28.2705 7.34002 -0.0488287
141 2 27.5345 8.12393 -3.10942 27.5345 8.12393 -3.10942
142 1 29.0707 9.34786 -1.44042 29.0707 9.34786 -1.44042
143 2 31.2986 9.04848 -0.285022 31.2986 9.04848 -0.285022
144 2 30.6462 9.72078 -3.38994 30.6462 9.72078 -3.38994
145 1 31.7149 7.69299 -2.37231 31.7149 7.69299 -2.37231
146 2 33.7734 7.61189 -0.891989 33.7734 7.61189 -0.891989
147 2 33.5504 7.74673 -4.12239 33.5504 7.74673 -4.12239
148 1 34.8097 9.31849 -2.51022 34.8097 9.31849 -2.51022
149 2 36.8163 9.30057 -0.954949 36.8163 9.30057 -0.954949
150 2 36.7072 9.29831 -4.1938 36.7072 9.29831 -4.1938
151 1 37.5536 7.54792 -2.60414 37.5536 7.54792 -2.60414
152 2 39.3166 7.8191 -0.789342 39.3166 7.8191 -0.789342
153 2 39.6743 7.26139 -3.9625 39.6743 7.26139 -3.9625
154 1 40.6522 9.16761 -2.52381 40.6522 9.16761 -2.52381
155 2 42.3536 9.50811 -0.661431 42.3536 9.50811 -0.661431
156 2 42.8162 8.83226 -3.79849 42.8162 8.83226 -3.79849
157 1 43.3208 7.46865 -1.75185 43.3208 7.46865 -1.75185
158 2 44.7942 8.05902 0.236679 44.7942 8.05902 0.236679
159 2 45.6083 6.9988 -2.72032 45.6083 6.9988 -2.72032
160 1 46.3838 9.12437 -1.48335 46.3838 9.12437 -1.48335
161 2 47.8138 9.75296 0.522564 47.8138 9.75296 0.522564
162 2 48.6888 8.64407 -2.39962 48.6888 8.64407 -2.39962
163 1 49.438 10.7891 -1.18331 -1.85366 10.7891 -1.18331
164 2 50.8355 11.441 0.834204 -0.456098 11.441 0.834204
165 2 51.7536 10.3079 -2.06576 0.462013 10.3079 -2.06576
166 1 52.4846 12.4616 -0.857506 1.19295 12.4616 -0.857506
167 2 2.57188 13.1144 1.16838 2.57188 13.1144 1.16838
168 2 3.51331 11.9932 -1.72883 3.51331 11.9932 -1.72883
169 1 3.68154 10.9603 0.55861 3.68154 10.9603 0.55861
170 2 5.16793 11.4419 2.55131 5.16793 11.4419 2.55131
171 2 5.95187 10.6008 -0.482797 5.95187 10.6008 -0.482797
172 1 6.73213 12.6318 0.885496 6.73213 12.6318 0.885496
173 2 8.27063 13.0419 2.85608 8.27063 13.0419 2.85608
174 2 8.97867 12.3113 -0.224109 8.97867 12.3113 -0.224109
175 1 9.35565 10.9965 1.89594 9.35565 10.9965 1.89594
176 2 11.1503 11.0924 3.6857 11.1503 11.0924 3.6857
177 2 11.4451 10.8806 0.464594 11.4451 10.8806 0.464594
178 1 12.4475 12.6221 2.06537 12.4475 12.6221 2.06537
179 2 14.3063 12.6382 3.79152 14.3063 12.6382 3.79152
180 2 14.487 12.5706 0.556166 14.487 12.5706 0.556166
181 1 15.1881 10.855 2.25998 15.1881 10.855 2.25998
182 2 17.2815 10.5953 3.66621 17.2815 10.5953 3.66621
183 2 16.987 11.0872 0.475711 16.987 11.0872 0.475711
184 1 18.2902 12.4687 2.20721 18.2902 12.4687 2.20721
185 2 20.432 12.1542 3.52541 20.432 12.1542 3.52541
186 2 20.0248 12.7746 0.369491 20.0248 12.7746 0.369491
187 1 20.9737 10.7548 1.51281 20.9737 10.7548 1.51281
188 2 23.2522 10.294 2.50907 23.2522 10.294 2.50907
189 2 22.469 11.32 -0.468001 22.469 11.32 -0.468001
190 1 24.0418 12.4044 1.25487 24.0418 12.4044 1.25487
191 2 26.3415 11.9271 2.18866 26.3415 11.9271 2.18866
192 2 25.4876 13.0174 -0.746392 25.4876 13.0174 -0.746392
193 1 26.5587 10.8647 -0.0738694 26.5587 10.8647 -0.0738694
194 2 28.8716 10.4293 0.827933 28.8716 10.4293 0.827933
195 2 27.947 11.4847 -2.09885 27.947 11.4847 -2.09885
196 1 29.595 12.5515 -0.432088 29.595 12.5515 -0.432088
197 2 31.8963 12.1458 0.514416 31.8963 12.1458 0.514416
198 2 31.0116 13.1242 -2.45067 31.0116 13.1242 -2.45067
199 1 32.1349 11.0074 -1.72407 32.1349 11.0074 -1.72407
200 2 34.3301 10.7539 -0.491991 34.3301 10.7539 -0.491991
201 2 33.7707 11.3042 -3.63804 33.7707 11.3042 -3.63804
202 1 35.2079 12.6579 -1.97921 35.2079 12.6579 -1.97921
203 2 37.3643 12.4556 -0.666783 37.3643 12.4556 -0.666783
204 2 36.9076 12.8762 -3.84859 36.9076 12.8762 -3.84859
205 1 37.9091 10.9391 -2.60628 37.9091 10.9391 -2.60628
206 2 39.86 10.9881 -0.979573 39.86 10.9881 -0.979573
207 2 39.8665 10.8478 -4.21721 39.8665 10.8478 -4.21721
208 1 41.0116 12.5565 -2.65921 41.0116 12.5565 -2.65921
209 2 42.9032 12.6745 -0.964938 42.9032 12.6745 -0.964938
210 2 43.0264 12.3983 -4.19165 43.0264 12.3983 -4.19165
211 1 43.7466 10.7918 -2.40056 43.7466 10.7918 -2.40056
212 2 45.3866 11.1991 -0.496402 45.3866 11.1991 -0.496402
213 2 45.9495 10.4142 -3.59211 45.9495 10.4142 -3.59211
214 1 46.8352 12.4219 -2.23444 46.8352 12.4219 -2.23444
215 2 48.4157 12.8928 -0.294566 48.4157 12.8928 -0.294566
216 2 49.0722 12.0083 -3.3454 49.0722 12.0083 -3.3454
217 1 49.9171 14.059 -2.02722 -1.37455 14.059 -2.02722
218 2 51.4416 14.5877 -0.057891 0.149926 14.5877 -0.057891
219 2 52.1827 13.6166 -3.0635 0.891058 13.6166 -3.0635
220 1 52.991 15.7039 -1.78154 1.69938 15.7039 -1.78154
221 2 3.17146 16.284 0.211904 3.17146 16.284 0.211904
222 2 3.98887 15.2396 -2.74979 3.98887 15.2396 -2.74979
223 1 4.23308 14.1414 -0.508067 4.23308 14.1414 -0.508067
224 2 5.61008 14.7741 1.52217 5.61008 14.7741 1.52217
225 2 6.55193 13.695 -1.39072 6.55193 13.695 -1.39072
226 1 7.26943 15.8256 -0.141511 7.26943 15.8256 -0.141511
227 2 8.66373 16.4184 1.88719 8.66373 16.4184 1.88719
228 2 9.58038 15.4074 -1.05763 9.58038 15.4074 -1.05763
229 1 9.79105 14.2941 1.19462 9.79105 14.2941 1.19462
230 2 11.387 14.6269 3.13538 11.387 14.6269 3.13538
231 2 12.0086 14.0188 0.0110936 12.0086 14.0188 0.0110936
232 1 12.8588 15.9469 1.48167 12.8588 15.9469 1.48167
233 2 14.5193 16.1998 3.38143 14.5193 16.1998 3.38143
234 2 15.04 15.7205 0.217325 15.04 15.7205 0.217325
235 1 15.5455 14.2413 2.19605 15.5455 14.2413 2.19605
236 2 17.4686 14.1811 3.8497 17.4686 14.1811 3.8497
237 2 17.5295 14.2577 0.610331 17.5295 14.2577 0.610331
238 1 18.6484 15.8561 2.28243 18.6484 15.8561 2.28243
239 2 20.6333 15.7237 3.85683 20.6333 15.7237 3.85683
240 2 20.5728 15.9439 0.624113 20.5728 15.9439 0.624113
241 1 21.3891 14.0867 2.1089 21.3891 14.0867 2.1089
242 2 23.5748 13.7242 3.33807 23.5748 13.7242 3.33807
243 2 23.0586 14.4652 0.223827 23.0586 14.4652 0.223827
244 1 24.4827 15.7111 1.96483 24.4827 15.7111 1.96483
245 2 26.7069 15.3081 3.10694 26.7069 15.3081 3.10694
246 2 26.0881 16.1587 0.0391253 26.0881 16.1587 0.0391253
247 1 27.1004 14.0643 0.963358 27.1004 14.0643 0.963358
248 2 29.4153 13.5818 1.85083 29.4153 13.5818 1.85083
249 2 28.5054 14.7105 -1.0531 28.5054 14.7105 -1.0531
250 1 30.1496 15.7347 0.641196 30.1496 15.7347 0.641196
251 2 32.4732 15.26 1.50366 32.4732 15.26 1.50366
252 2 31.5262 16.3946 -1.38619 31.5262 16.3946 -1.38619
253 1 32.6343 14.237 -0.787476 32.6343 14.237 -0.787476
254 2 34.9176 13.8625 0.218963 34.9176 13.8625 0.218963
255 2 34.0949 14.7508 -2.79127 34.0949 14.7508 -2.79127
256 1 35.6809 15.9161 -1.1272 35.6809 15.9161 -1.1272
257 2 37.941 15.5768 -0.0520529 37.941 15.5768 -0.0520529
258 2 37.1941 16.3632 -3.10917 37.1941 16.3632 -3.10917
259 1 38.2895 14.2996 -2.20025 38.2895 14.2996 -2.20025
260 2 40.4016 14.1523 -0.806447 40.4016 14.1523 -0.806447
261 2 40.0548 14.4393 -4.01635 40.0548 14.4393 -4.01635
262 1 41.3791 15.9327 -2.38203 41.3791 15.9327 -2.38203
263 2 43.4416 15.8441 -0.907373 43.4416 15.8441 -0.907373
264 2 43.2105 15.9955 -4.13656 43.2105 15.9955 -4.13656
265 1 44.1155 14.1723 -2.66643 44.1155 14.1723 -2.66643
266 2 45.9453 14.3607 -0.909655 45.9453 14.3607 -0.909655
267 2 46.1845 13.9522 -4.11608 46.1845 13.9522 -4.11608
268 1 47.2191 15.7883 -2.62684 47.2191 15.7883 -2.62684
269 2 48.9865 16.0484 -0.814368 48.9865 16.0484 -0.814368
270 2 49.3375 15.5108 -3.99183 49.3375 15.5108 -3.99183
271 1 50.3207 17.4061 -2.54263 -0.97096 17.4061 -2.54263
272 2 52.0247 17.7378 -0.680385 0.733079 17.7378 -0.680385
273 2 52.4841 17.0764 -3.82101 1.19247 17.0764 -3.82101
274 1 53.4182 19.0275 -2.41415 2.12658 19.0275 -2.41415
275 2 3.76561 19.4279 -0.506719 3.76561 19.4279 -0.506719
276 2 4.33158 18.6534 -3.60438 4.33158 18.6534 -3.60438
277 1 4.76434 17.3571 -1.49966 4.76434 17.3571 -1.49966
278 2 6.18826 17.9778 0.513929 6.18826 17.9778 0.513929
279 2 7.07339 16.881 -2.40962 7.07339 16.881 -2.40962
280 1 7.81904 19.0199 -1.18126 7.81904 19.0199 -1.18126
281 2 9.20527 19.6648 0.847132 9.20527 19.6648 0.847132
282 2 10.1411 18.5441 -2.05175 10.1411 18.5441 -2.05175
283 1 10.3061 17.51 0.231525 10.3061 17.51 0.231525
284 2 11.7354 18.0488 2.25099 11.7354 18.0488 2.25099
285 2 12.6029 17.1225 -0.735598 12.6029 17.1225 -0.735598
286 1 13.3478 19.19 0.597903 13.3478 19.19 0.597903
287 2 14.827 19.6639 2.59891 14.827 19.6639 2.59891
288 2 15.6239 18.836 -0.435073 15.6239 18.836 -0.435073
289 1 15.9363 17.5894 1.73613 15.9363 17.5894 1.73613
290 2 17.6636 17.761 3.586 17.6636 17.761 3.586
291 2 18.0755 17.4181 0.388964 18.0755 17.4181 0.388964
292 1 19.0229 19.2231 1.95376 19.0229 19.2231 1.95376
293 2 20.8184 19.3138 3.74432 20.8184 19.3138 3.74432
294 2 21.1143 19.112 0.523092 21.1143 19.112 0.523092
295 1 21.754 17.4688 2.32229 21.754 17.4688 2.32229
296 2 23.7979 17.2691 3.81137 23.7979 17.2691 3.81137
297 2 23.615 17.6302 0.595847 23.615 17.6302 0.595847
298 1 24.8601 19.0817 2.31325 24.8601 19.0817 2.31325
299 2 26.9589 18.8209 3.71273 26.9589 18.8209 3.71273
300 2 26.655 19.3175 0.524269 26.655 19.3175 0.524269
301 1 27.5691 17.3435 1.77611 27.5691 17.3435 1.77611
302 2 29.8269 16.9086 2.83473 29.8269 16.9086 2.83473
303 2 29.112 17.8548 -0.184562 29.112 17.8548 -0.184562
304 1 30.6463 18.9859 1.54272 30.6463 18.9859 1.54272
305 2 32.9312 18.5261 2.52602 32.9312 18.5261 2.52602
306 2 32.1316 19.555 -0.445378 32.1316 19.555 -0.445378
307 1 33.19 17.4155 0.291786 33.19 17.4155 0.291786
308 2 35.514 16.9595 1.15819 35.514 16.9595 1.15819
309 2 34.5588 18.0651 -1.74014 34.5588 18.0651 -1.74014
310 1 36.2253 19.1034 -0.07416 36.2253 19.1034 -0.07416
311 2 38.5407 18.6693 0.823543 38.5407 18.6693 0.823543
312 2 37.6105 19.7233 -2.10167 37.6105 19.7233 -2.10167
313 1 38.7362 17.5868 -1.44446 38.7362 17.5868 -1.44446
314 2 40.9665 17.2854 -0.292714 40.9665 17.2854 -0.292714
315 2 40.3097 17.9623 -3.39558 40.3097 17.9623 -3.39558
316 1 41.8018 19.2466 -1.73022 41.8018 19.2466 -1.73022
317 2 43.9972 18.9887 -0.498549 43.9972 18.9887 -0.498549
318 2 43.4384 19.5472 -3.64326 43.4384 19.5472 -3.64326
319 1 44.4756 17.5581 -2.51992 44.4756 17.5581 -2.51992
320 2 46.485 17.533 -0.968133 46.485 17.533 -0.968133
321 2 46.3706 17.5456 -4.20692 46.3706 17.5456 -4.20692
322 1 47.5773 19.1776 -2.61411 47.5773 19.1776 -2.61411
323 2 49.5311 19.2206 -0.990359 49.5311 19.2206 -0.990359
324 2 49.5325 19.0918 -4.22858 49.5325 19.0918 -4.22858
325 1 50.6824 20.7931 -2.6662 -0.609238 20.7931 -2.6662
326 2 52.5763 20.9066 -0.973422 1.28466 20.9066 -0.973422
327 2 52.6965 20.6376 -4.20082 1.40489 20.6376 -4.20082
328 1 53.7891 22.4062 -2.67234 2.49751 22.4062 -2.67234
329 2 4.32661 22.5924 -0.913446 4.32661 22.5924 -0.913446
330 2 4.56881 22.1856 -4.11973 4.56881 22.1856 -4.11973
331 1 5.21785 20.6546 -2.23829 5.21785 20.6546 -2.23829
332 2 6.79267 21.121 -0.291696 6.79267 21.121 -0.291696
333 2 7.45938 20.2429 -3.34203 7.45938 20.2429 -3.34203
334 1 8.3009 22.2893 -2.01602 8.3009 22.2893 -2.01602
335 2 9.81403 22.817 -0.0366353 9.81403 22.817 -0.0366353
336 2 10.5737 21.8471 -3.0378 10.5737 21.8471 -3.0378
337 1 10.8639 20.6924 -0.830279 10.8639 20.6924 -0.830279
338 2 12.2305 21.3408 1.20604 12.2305 21.3408 1.20604
339 2 13.1906 20.2281 -1.68801 13.1906 20.2281 -1.68801
340 1 13.9017 22.3727 -0.456817 13.9017 22.3727 -0.456817
341 2 15.2693 23.0007 1.58175 15.2693 23.0007 1.58175
342 2 16.2259 21.9308 -1.32942 16.2259 21.9308 -1.32942
343 1 16.3982 20.8616 0.944828 16.3982 20.8616 0.944828
344 2 17.9346 21.2644 2.91979 17.9346 21.2644 2.91979
345 2 18.6483 20.546 -0.161535 18.6483 20.546 -0.161535
346 1 19.4584 22.524 1.26616 19.4584 22.524 1.26616
347 2 21.0568 22.8502 3.20718 21.0568 22.8502 3.20718
348 2 21.6767 22.2535 0.0807611 21.6767 22.2535 0.0807611
349 1 22.1175 20.8492 2.12939 22.1175 20.8492 2.12939
350 2 23.981 20.8606 3.85186 23.981 20.8606 3.85186
351 2 24.1556 20.803 0.616411 24.1556 20.803 0.616411
352 1 25.2183 22.4695 2.25914 25.2183 22.4695 2.25914
353 2 27.1491 22.405 3.90469 27.1491 22.405 3.90469
354 2 27.1972 22.4915 0.66576 27.1972 22.4915 0.66576
355 1 27.9643 20.6972 2.25375 27.9643 20.6972 2.25375
356 2 30.1137 20.3817 3.56058 30.1137 20.3817 3.56058
357 2 29.6908 21.0077 0.408172 29.6908 21.0077 0.408172
358 1 31.064 22.3176 2.14311 31.064 22.3176 2.14311
359 2 33.2573 21.9536 3.35909 33.2573 21.9536 3.35909
360 2 32.7234 22.7018 0.249764 32.7234 22.7018 0.249764
361 1 33.7133 20.6388 1.27017 33.7133 20.6388 1.27017
362 2 36.0181 20.161 2.19176 36.0181 20.161 2.19176
363 2 35.1498 21.2572 -0.736605 35.1498 21.2572 -0.736605
364 1 36.7708 22.3014 0.967632 36.7708 22.3014 0.967632
365 2 39.0876 21.8153 1.84839 39.0876 21.8153 1.84839
366 2 38.1718 22.9536 -1.04972 38.1718 22.9536 -1.04972
367 1 39.2619 20.7917 -0.438207 39.2619 20.7917 -0.438207
368 2 41.5623 20.3816 0.509676 41.5623 20.3816 0.509676
369 2 40.6818 21.3664 -2.45431 40.6818 21.3664 -2.45431
370 1 42.3044 22.4747 -0.78753 42.3044 22.4747 -0.78753
371 2 44.5868 22.0949 0.219488 44.5868 22.0949 0.219488
372 2 43.7673 22.9917 -2.78903 43.7673 22.9917 -2.78903
373 1 44.8772 20.8956 -1.98125 44.8772 20.8956 -1.98125
374 2 47.0344 20.6886 -0.670363 47.0344 20.6886 -0.670363
375 2 46.5764 21.118 -3.8509 46.5764 21.118 -3.8509
376 1 47.9608 22.5352 -2.19974 47.9608 22.5352 -2.19974
377 2 50.0753 22.3849 -0.809474 50.0753 22.3849 -0.809474
378 2 49.7238 22.6779 -4.01838 49.7238 22.6779 -4.01838
379 1 51.052 24.1664 -2.38358 -0.239655 24.1664 -2.38358
380 2 53.1173 24.0775 -0.912192 1.82563 24.0775 -0.912192
381 2 52.8812 24.2288 -4.14094 1.58961 24.2288 -4.14094
382 1 54.1501 25.79 -2.52629 2.85843 25.79 -2.52629
383 2 4.86766 25.7666 -0.973226 4.86766 25.7666 -0.973226
384 2 4.75536 25.7734 -4.21187 4.75536 25.7734 -4.21187
385 1 5.60362 24.0191 -2.62812 5.60362 24.0191 -2.62812
386 2 7.36484 24.279 -0.808518 7.36484 24.279 -0.808518
387 2 7.72821 23.7393 -3.98398 7.72821 23.7393 -3.98398
388 1 8.70669 25.6341 -2.53195 8.70669 25.6341 -2.53195
389 2 10.3995 25.9682 -0.659008 10.3995 25.9682 -0.659008
390 2 10.879 25.301 -3.79523 10.879 25.301 -3.79523
391 1 11.3741 23.933 -1.74985 11.3741 23.933 -1.74985
392 2 12.8323 24.5142 0.254085 12.8323 24.5142 0.254085
393 2 13.6712 23.4687 -2.70099 13.6712 23.4687 -2.70099
394 1 14.4369 25.5864 -1.44637 14.4369 25.5864 -1.44637
395 2 15.849 26.2103 0.574819 15.849 26.2103 0.574819
396 2 16.7517 25.1097 -2.34173 16.7517 25.1097 -2.34173
397 1 16.9363 24.058 -0.07074 16.9363 24.058 -0.07074
398 2 18.3274 24.6457 1.96228 18.3274 24.6457 1.96228
399 2 19.25 23.6436 -0.983384 19.25 23.6436 -0.983384
400 1 19.9729 25.7432 0.3129 19.9729 25.7432 0.3129
401 2 21.4035 26.2764 2.33358 21.4035 26.2764 2.33358
402 2 22.2705 25.36 -0.655887 22.2705 25.36 -0.655887
403 1 22.5282 24.1773 1.55759 22.5282 24.1773 1.55759
404 2 24.194 24.4234 3.45455 24.194 24.4234 3.45455
405 2 24.7079 23.957 0.287823 24.7079 23.957 0.287823
406 1 25.6078 25.8212 1.81174 25.6078 25.8212 1.81174
407 2 27.345 25.9862 3.6537 27.345 25.9862 3.6537
408 2 27.7417 25.6557 0.453868 27.7417 25.6557 0.453868
409 1 28.3234 24.0858 2.33805 28.3234 24.0858 2.33805
410 2 30.3181 23.9492 3.90049 30.3181 23.9492 3.90049
411 2 30.2392 24.1796 0.669177 30.2392 24.1796 0.669177
412 1 31.4304 25.7002 2.36537 31.4304 25.7002 2.36537
413 2 33.4835 25.4965 3.8415 33.4835 25.4965 3.8415
414 2 33.2818 25.8683 0.628494 33.2818 25.8683 0.628494
415 1 34.1573 23.9445 1.98579 34.1573 23.9445 1.98579
416 2 36.387 23.539 3.11651 36.387 23.539 3.11651
417 2 35.7541 24.3984 0.0541899 35.7541 24.3984 0.0541899
418 1 37.2433 25.5789 1.78798 37.2433 25.5789 1.78798
419 2 39.5034 25.142 2.84065 39.5034 25.142 2.84065
420 2 38.7815 26.0942 -0.174902 38.7815 26.0942 -0.174902
421 1 39.8207 23.972 0.644111 39.8207 23.972 0.644111
422 2 42.1439 23.4931 1.50586 42.1439 23.4931 1.50586
423 2 41.1984 24.6351 -1.38135 41.1984 24.6351 -1.38135
424 1 42.8634 25.6508 0.298949 42.8634 25.6508 0.298949
425 2 45.1871 25.1912 1.16529 45.1871 25.1912 1.16529
426 2 44.2336 26.3015 -1.73172 44.2336 26.3015 -1.73172
427 1 45.3537 24.1507 -1.12125 45.3537 24.1507 -1.12125
428 2 47.6146 23.8079 -0.0487696 47.6146 23.8079 -0.0487696
429 2 46.8656 24.6006 -3.10378 46.8656 24.6006 -3.10378
430 1 48.4103 25.8191 -1.43864 48.4103 25.8191 -1.43864
431 2 50.6443 25.5189 -0.293279 50.6443 25.5189 -0.293279
432 2 49.9782 26.1945 -3.39449 49.9782 26.1945 -3.39449
433 1 51.4755 27.4786 -1.73447 0.183844 27.4786 -1.73447
434 2 53.6745 27.2253 -0.50758 2.38283 27.2253 -0.50758
435 2 53.1078 27.7747 -3.65234 1.81616 27.7747 -3.65234
436 1 54.5507 29.1274 -1.99791 3.25906 29.1274 -1.99791
437 2 5.41568 28.9254 -0.684256 5.41568 28.9254 -0.684256
438 2 4.9611 29.3419 -3.86671 4.9611 29.3419 -3.86671
439 1 5.96217 27.4069 -2.62117 5.96217 27.4069 -2.62117
440 2 7.90992 27.4531 -0.989023 7.90992 27.4531 -0.989023
441 2 7.92531 27.3145 -4.22654 7.92531 27.3145 -4.22654
442 1 9.06938 29.0193 -2.66439 9.06938 29.0193 -2.66439
443 2 10.9521 29.1378 -0.958573 10.9521 29.1378 -0.958573
444 2 11.0949 28.8566 -4.18384 11.0949 28.8566 -4.18384
445 1 11.8045 27.2537 -2.38589 11.8045 27.2537 -2.38589
446 2 13.4299 27.6594 -0.46728 13.4299 27.6594 -0.46728
447 2 14.0187 26.8755 -3.55823 14.0187 26.8755 -3.55823
448 1 14.8948 28.8803 -2.19175 14.8948 28.8803 -2.19175
449 2 16.4569 29.3535 -0.236359 16.4569 29.3535 -0.236359
450 2 17.1436 28.4651 -3.27923 17.1436 28.4651 -3.27923
451 1 17.4898 27.2501 -1.1119 17.4898 27.2501 -1.1119
452 2 18.8671 27.8978 0.921554 18.8671 27.8978 0.921554
453 2 19.8158 26.7753 -1.97231 19.8158 26.7753 -1.97231
454 1 20.5327 28.9249 -0.749601 20.5327 28.9249 -0.749601
455 2 21.8945 29.5747 1.28914 21.8945 29.5747 1.28914
456 2 22.8614 28.4633 -1.60301 22.8614 28.4633 -1.60301
457 1 23.0153 27.4245 0.683473 23.0153 27.4245 0.683473
458 2 24.4997 27.8938 2.6823 24.4997 27.8938 2.6823
459 2 25.2899 27.0742 -0.35532 25.2899 27.0742 -0.35532
460 1 26.0673 29.0975 1.02774 26.0673 29.0975 1.02774
461 2 27.6125 29.4947 2.99736 27.6125 29.4947 2.99736
462 2 28.3135 28.7862 -0.0888352 28.3135 28.7862 -0.0888352
463 1 28.6969 27.4559 2.02056 28.6969 27.4559 2.02056
464 2 30.5041 27.5404 3.80013 30.5041 27.5404 3.80013
465 2 30.7805 27.3506 0.57675 30.7805 27.3506 0.57675
466 1 31.7937 29.083 2.18312 31.7937 29.083 2.18312
467 2 33.6688 29.0897 3.89326 33.6688 29.0897 3.89326
468 2 33.8227 29.0419 0.656797 33.8227 29.0419 0.656797
469 1 34.5372 27.315 2.34338 34.5372 27.315 2.34338
470 2 36.6433 27.0516 3.73142 36.6433 27.0516 3.73142
471 2 36.3232 27.5563 0.545924 36.3232 27.5563 0.545924
472 1 37.6415 28.9324 2.2724 37.6415 28.9324 2.2724
473 2 39.7951 28.6162 3.57192 39.7951 28.6162 3.57192
474 2 39.3617 29.2453 0.421625 39.3617 29.2453 0.421625
475 1 40.3206 27.222 1.55106 40.3206 27.222 1.55106
476 2 42.6063 26.7623 2.53309 42.6063 26.7623 2.53309
477 2 41.8045 27.7907 -0.437667 41.8045 27.7907 -0.437667
478 1 43.3884 28.8746 1.27628 43.3884 28.8746 1.27628
479 2 45.6948 28.4018 2.19765 45.6948 28.4018 2.19765
480 2 44.8226 29.4865 -0.733703 44.8226 29.4865 -0.733703
481 1 45.901 27.3359 -0.0644927 45.901 27.3359 -0.0644927
482 2 48.2193 26.9042 0.82817 48.2193 26.9042 0.82817
483 2 47.2813 27.9533 -2.09626 47.2813 27.9533 -2.09626
484 1 48.9366 29.0243 -0.439178 48.9366 29.0243 -0.439178
485 2 51.2415 28.6211 0.501908 51.2415 28.6211 0.501908
486 2 50.3489 29.5931 -2.46265 50.3489 29.5931 -2.46265
487 1 51.9766 30.709 -0.806756 0.684962 30.709 -0.806756
488 2 54.2614 30.3358 0.198019 2.96979 30.3358 0.198019
489 2 53.4364 31.2183 -2.81304 2.14476 31.2183 -2.81304
490 1 55.0248 32.3855 -1.15329 3.73319 32.3855 -1.15329
491 2 5.99216 32.0462 -0.0748599 5.99216 32.0462 -0.0748599
492 2 5.25009 32.8269 -3.13444 5.25009 32.8269 -3.13444
493 1 6.34427 30.7652 -2.21996 6.34427 30.7652 -2.21996
494 2 8.4523 30.6192 -0.818284 8.4523 30.6192 -0.818284
495 2 8.1176 30.8982 -4.02997 8.1176 30.8982 -4.02997
496 1 9.43814 32.393 -2.39497 9.43814 32.393 -2.39497
497 2 11.4937 32.3106 -0.908706 11.4937 32.3106 -0.908706
498 2 11.2801 32.4442 -4.1397 11.2801 32.4442 -4.1397
499 1 12.1774 30.63 -2.65455 12.1774 30.63 -2.65455
500 2 13.9944 30.8245 -0.883448 13.9944 30.8245 -0.883448
501 2 14.259 30.401 -4.08577 14.259 30.401 -4.08577
502 1 15.2837 32.2416 -2.59652 15.2837 32.2416 -2.59652
503 2 17.0328 32.5128 -0.766472 17.0328 32.5128 -0.766472
504 2 17.4172 31.9528 -3.93602 17.4172 31.9528 -3.93602
505 1 17.9761 30.5159 -1.95495 17.9761 30.5159 -1.95495
506 2 19.4788 31.0525 0.0298246 19.4788 31.0525 0.0298246
507 2 20.2538 30.0701 -2.96343 20.2538 30.0701 -2.96343
508 1 21.0472 32.1616 -1.6804 21.0472 32.1616 -1.6804
509 2 22.4979 32.754 0.325416 22.4979 32.754 0.325416
510 2 23.347 31.6927 -2.6212 23.347 31.6927 -2.6212
511 1 23.5689 30.6084 -0.3703 23.5689 30.6084 -0.3703
512 2 24.9382 31.2364 1.66677 24.9382 31.2364 1.66677
513 2 25.892 30.1686 -1.24601 25.892 30.1686 -1.24601
514 1 26.6034 32.2958 0.012902 26.6034 32.2958 0.012902
515 2 27.9991 32.8814 2.04322 27.9991 32.8814 2.04322
516 2 28.9152 31.885 -0.906244 28.9152 31.885 -0.906244
517 1 29.1296 30.7609 1.34107 29.1296 30.7609 1.34107
518 2 30.7399 31.0812 3.27354 30.7399 31.0812 3.27354
519 2 31.3417 30.4944 0.141978 31.3417 30.4944 0.141978
520 1 32.202 32.4146 1.6195 32.202 32.4146 1.6195
521 2 33.88 32.6546 3.5065 33.88 32.6546 3.5065
522 2 34.3744 32.1992 0.335236 34.3744 32.1992 0.335236
523 1 34.8962 30.7044 2.29771 34.8962 30.7044 2.29771
524 2 36.8359 30.6361 3.93239 36.8359 30.6361 3.93239
525 2 36.8668 30.7313 0.693568 36.8668 30.7313 0.693568
526 1 38.002 32.3221 2.36408 38.002 32.3221 2.36408
527 2 40.0046 32.1846 3.91608 40.0046 32.1846 3.91608
528 2 39.9095 32.4177 0.685471 39.9095 32.4177 0.685471
529 1 40.741 30.554 2.1534 40.741 30.554 2.1534
530 2 42.9376 30.193 3.36427 42.9376 30.193 3.36427
531 2 42.3951 30.9359 0.25529 42.3951 30.9359 0.25529
532 1 43.8339 32.1818 1.98534 43.8339 32.1818 1.98534
533 2 46.0678 31.7821 3.11018 46.0678 31.7821 3.11018
534 2 45.4236 32.6302 0.0470344 45.4236 32.6302 0.0470344
535 1 46.4456 30.5374 0.964412 46.4456 30.5374 0.964412
536 2 48.7654 30.0586 1.84248 48.7654 30.0586 1.84248
537 2 47.8415 31.181 -1.05921 47.8415 31.181 -1.05921
538 1 49.4937 32.2089 0.624944 49.4937 32.2089 0.624944