ITEM: TIMESTEP
5064000
ITEM: NUMBER OF ATOMS
810
ITEM: BOX BOUNDS xy xz yz pp pp pp
8.6298438867990135e-01 7.7164867152238770e+01 2.5010246540919606e+01
8.1394622342039402e-01 5.0202268776579182e+01 0.0000000000000000e+00
-1.0000000000000000e+01 1.0000000000000000e+01 0.0000000000000000e+00
ITEM: ATOMS id type x y z xu yu zu
1 1 29.302 1.39014 4.34128 -21.9896 1.39014 4.34128
2 2 31.2154 1.29031 6.15078 -20.0762 1.29031 6.15078
3 2 31.5623 1.18576 3.03721 -19.7293 1.18576 3.03721
4 1 33.1004 2.94753 4.61575 -18.1912 2.94753 4.61575
5 2 35.1341 2.63039 6.25572 -16.1575 2.63039 6.25572
6 2 35.2927 2.90005 3.14456 -15.999 2.90005 3.14456
7 1 60.6637 50.1544 4.55534 -15.6381 0.766042 4.55534
8 2 62.9742 49.2526 5.29733 -13.3277 -0.1357 5.29733
9 2 37.3344 1.32863 2.56827 -13.9572 1.32863 2.56827
10 1 39.4252 2.3106 4.28176 -11.8664 2.3106 4.28176
11 2 41.7605 1.35422 4.80868 -9.53115 1.35422 4.80868
12 2 40.9527 3.02893 2.23079 -10.3389 3.02893 2.23079
13 1 66.4084 49.9081 2.38384 -9.89345 0.519785 2.38384
14 2 68.7603 48.937 2.29417 -7.54156 -0.451371 2.29417
15 2 42.4639 1.73618 0.312302 -8.82773 1.73618 0.312302
16 1 44.9756 2.2322 1.79053 -6.31605 2.2322 1.79053
17 2 47.3405 1.31192 1.66396 -3.95115 1.31192 1.66396
18 2 45.982 3.52413 -0.251351 -5.30964 3.52413 -0.251351
19 1 46.4691 1.10197 -0.769177 -4.82249 1.10197 -0.769177
20 2 73.8903 49.7208 -0.667343 -2.41158 0.332477 -0.667343
21 2 47.5166 2.31976 -2.7982 -3.77499 2.31976 -2.7982
22 1 50.0465 2.90645 -1.40033 -1.24509 2.90645 -1.40033
23 2 1.17168 2.16305 -1.17531 1.17168 2.16305 -1.17531
24 2 51.1705 4.00453 -3.46313 -0.121145 4.00453 -3.46313
25 1 51.9396 1.58334 -3.67911 0.647981 1.58334 -3.67911
26 2 3.01296 1.05414 -2.81115 3.01296 1.05414 -2.81115
27 2 2.24325 2.01782 -5.72606 2.24325 2.01782 -5.72606
28 1 4.38222 3.22172 -4.12288 4.38222 3.22172 -4.12288
29 2 6.71363 2.80579 -3.07364 6.71363 2.80579 -3.07364
30 2 6.10819 3.44015 -6.10074 6.10819 3.44015 -6.10074
31 1 6.87175 1.20329 -5.10369 6.87175 1.20329 -5.10369
32 2 8.88317 1.35852 -3.37533 8.88317 1.35852 -3.37533
33 2 34.06 49.9782 -6.4112 9.04973 0.58988 -6.4112
34 1 10.6764 2.69143 -5.0784 10.6764 2.69143 -5.0784
35 2 12.5613 2.99749 -3.2277 12.5613 2.99749 -3.2277
36 2 12.9164 1.93686 -6.16735 12.9164 1.93686 -6.16735
37 1 37.9967 49.9638 -3.96804 12.9864 0.575483 -3.96804
38 2 14.3285 1.48916 -1.87655 14.3285 1.48916 -1.87655
39 2 40.3399 48.9574 -4.22672 15.3297 -0.430885 -4.22672
40 1 16.6518 2.16715 -3.50134 16.6518 2.16715 -3.50134
41 2 17.8784 3.2041 -1.40531 17.8784 3.2041 -1.40531
42 2 18.9959 1.15282 -3.60005 18.9959 1.15282 -3.60005
43 1 43.298 50.1014 -1.15573 18.2877 0.713072 -1.15573
44 2 19.2744 2.02413 0.857878 19.2744 2.02413 0.857878
45 2 45.673 49.2309 -1.07501 20.6628 -0.157385 -1.07501
46 1 21.824 2.4678 -0.52189 21.824 2.4678 -0.52189
47 2 22.8218 3.77025 1.48254 22.8218 3.77025 1.48254
48 2 24.2115 1.63554 -0.497252 24.2115 1.63554 -0.497252
49 1 23.4494 1.3651 1.99089 23.4494 1.3651 1.99089
50 2 24.7297 2.23433 4.0874 24.7297 2.23433 4.0874
51 2 50.8687 50.054 1.54215 25.8584 0.665665 1.54215
52 1 27.0874 3.08131 2.56417 27.0874 3.08131 2.56417
53 2 28.481 3.78736 4.66324 28.481 3.78736 4.66324
54 2 29.4849 2.43007 1.96064 29.4849 2.43007 1.96064
55 1 30.7605 4.76661 3.10212 -20.5311 4.76661 3.10212
56 2 32.2788 5.30247 5.17852 -19.0129 5.30247 5.17852
57 2 33.1393 4.18544 2.33416 -18.1524 4.18544 2.33416
58 1 34.4729 6.42097 3.59155 -16.8187 6.42097 3.59155
59 2 36.1206 6.76868 5.61901 -15.1711 6.76868 5.61901
60 2 36.8255 5.93804 2.65113 -14.4662 5.93804 2.65113
61 1 36.9245 4.48265 4.79188 -14.3672 4.48265 4.79188
62 2 39.064 3.96938 6.22422 -12.2276 3.96938 6.22422
63 2 39.027 4.60172 3.16513 -12.2647 4.60172 3.16513
64 1 40.761 6.01076 4.85679 -10.5306 6.01076 4.85679
65 2 42.9815 5.32234 6.05141 -8.31018 5.32234 6.05141
66 2 42.7365 6.27383 3.07932 -8.55512 6.27383 3.07932
67 1 43.1475 3.87377 3.91589 -8.14415 3.87377 3.91589
68 2 45.4919 2.87777 4.24122 -5.79978 2.87777 4.24122
69 2 44.5393 4.74029 1.83148 -6.75232 4.74029 1.83148
70 1 46.8444 5.47714 3.47559 -4.44726 5.47714 3.47559
71 2 49.1927 4.46824 3.61854 -2.09893 4.46824 3.61854
72 2 48.1058 6.47821 1.37649 -3.18581 6.47821 1.37649
73 1 48.526 3.98228 1.1701 -2.76567 3.98228 1.1701
74 2 50.9 3.10438 1.05076 -0.391648 3.10438 1.05076
75 2 49.5026 5.3115 -0.846092 -1.78905 5.3115 -0.846092
76 1 52.0643 5.75411 0.532466 0.772686 5.75411 0.532466
77 2 3.16222 4.92242 0.45837 3.16222 4.92242 0.45837
78 2 53.0374 7.08714 -1.4707 1.74581 7.08714 -1.4707
79 1 2.3566 4.69006 -2.01774 2.3566 4.69006 -2.01774
80 2 4.77391 3.97934 -1.64929 4.77391 3.97934 -1.64929
81 2 3.58023 5.64354 -4.10769 3.58023 5.64354 -4.10769
82 1 5.98806 6.44306 -2.6104 5.98806 6.44306 -2.6104
83 2 8.3941 5.76629 -2.0858 8.3941 5.76629 -2.0858
84 2 7.32726 7.22991 -4.71143 7.32726 7.22991 -4.71143
85 1 8.1423 4.81828 -4.50335 8.1423 4.81828 -4.50335
86 2 10.4232 4.52626 -3.27177 10.4232 4.52626 -3.27177
87 2 9.99883 4.80731 -6.3713 9.99883 4.80731 -6.3713
88 1 11.9281 6.3698 -4.80313 11.9281 6.3698 -4.80313
89 2 14.1469 6.22517 -3.40118 14.1469 6.22517 -3.40118
90 2 13.9047 6.14042 -6.52286 13.9047 6.14042 -6.52286
91 1 14.4705 4.18194 -4.94947 14.4705 4.18194 -4.94947
92 2 16.2158 4.64068 -2.99715 16.2158 4.64068 -2.99715
93 2 16.757 3.32248 -5.81646 16.757 3.32248 -5.81646
94 1 18.2355 5.6795 -4.71834 18.2355 5.6795 -4.71834
95 2 19.8396 6.29025 -2.69369 19.8396 6.29025 -2.69369
96 2 20.5495 4.74003 -5.36858 20.5495 4.74003 -5.36858
97 1 20.2769 3.78772 -2.97601 20.2769 3.78772 -2.97601
98 2 21.4088 4.93623 -0.893966 21.4088 4.93623 -0.893966
99 2 22.6245 2.79139 -2.95595 22.6245 2.79139 -2.95595
100 1 23.8768 5.45345 -2.41046 23.8768 5.45345 -2.41046
101 2 24.9273 6.68586 -0.34817 24.9273 6.68586 -0.34817
102 2 26.2303 4.49296 -2.3172 26.2303 4.49296 -2.3172
103 1 25.3749 4.24257 0.112452 25.3749 4.24257 0.112452
104 2 26.3988 5.49168 2.13244 26.3988 5.49168 2.13244
105 2 27.7755 3.44646 0.0592889 27.7755 3.44646 0.0592889
106 1 28.9414 6.03142 0.75068 28.9414 6.03142 0.75068
107 2 30.021 7.18662 2.80013 30.021 7.18662 2.80013
108 2 31.3515 5.26454 0.594047 31.3515 5.26454 0.594047
109 1 32.5282 7.81436 1.38359 -18.7634 7.81436 1.38359
110 2 33.6907 8.84534 3.46347 -17.6009 8.84534 3.46347
111 2 34.945 7.08059 1.09963 -16.3466 7.08059 1.09963
112 1 36.1436 9.58062 2.00008 -15.148 9.58062 2.00008
113 2 37.4104 10.4674 4.09913 -13.8813 10.4674 4.09913
114 2 38.5582 8.8844 1.57071 -12.7335 8.8844 1.57071
115 1 38.2232 8.04962 4.02411 -13.0685 8.04962 4.02411
116 2 40.0058 8.19653 5.9674 -11.2859 8.19653 5.9674
117 2 40.5421 7.69912 2.90839 -10.7495 7.69912 2.90839
118 1 42.0069 9.64945 4.38766 -9.28475 9.64945 4.38766
119 2 43.9229 9.56702 6.20378 -7.36869 9.56702 6.20378
120 2 44.2805 9.45596 3.09682 -7.01112 9.45596 3.09682
121 1 44.5881 7.52556 4.79073 -6.70352 7.52556 4.79073
122 2 46.8657 6.71354 5.7501 -4.42595 6.71354 5.7501
123 2 46.4165 7.94003 2.88969 -4.8751 7.94003 2.88969
124 1 48.3913 9.05246 4.60677 -2.90038 9.05246 4.60677
125 2 50.7034 8.14597 5.33378 -0.588278 8.14597 5.33378
126 2 50.0545 9.60945 2.60579 -1.23709 9.60945 2.60579
127 1 50.4937 7.11296 2.96575 -0.797943 7.11296 2.96575
128 2 52.8422 6.11197 2.96892 1.55061 6.11197 2.96892
129 2 51.6466 8.22941 0.872111 0.354975 8.22941 0.872111
130 1 54.1124 8.79086 2.40396 2.82081 8.79086 2.40396
131 2 5.17433 7.82133 2.31412 5.17433 7.82133 2.31412
132 2 55.1771 10.0045 0.329218 3.88546 10.0045 0.329218
133 1 4.32275 7.55482 -0.112974 4.32275 7.55482 -0.112974
134 2 6.72341 6.75435 -0.112474 6.72341 6.75435 -0.112474
135 2 5.32039 8.84638 -2.12256 5.32039 8.84638 -2.12256
136 1 7.88975 9.3616 -0.758846 7.88975 9.3616 -0.758846
137 2 10.2961 8.57939 -0.657969 10.2961 8.57939 -0.657969
138 2 8.93839 10.5641 -2.79552 8.93839 10.5641 -2.79552
139 1 9.65255 8.14672 -3.166 9.65255 8.14672 -3.166
140 2 12.04 7.52258 -2.47428 12.04 7.52258 -2.47428
141 2 11.1145 8.75131 -5.25656 11.1145 8.75131 -5.25656
142 1 13.352 9.80404 -3.67696 13.352 9.80404 -3.67696
143 2 15.7139 9.26259 -2.80918 15.7139 9.26259 -2.80918
144 2 14.9441 10.222 -5.72752 14.9441 10.222 -5.72752
145 1 15.739 7.89467 -5.01387 15.739 7.89467 -5.01387
146 2 17.8696 7.89515 -3.44651 17.8696 7.89515 -3.44651
147 2 17.8225 7.45475 -6.54499 17.8225 7.45475 -6.54499
148 1 19.5581 9.38965 -5.1165 19.5581 9.38965 -5.1165
149 2 21.5803 9.54199 -3.4001 21.5803 9.54199 -3.4001
150 2 21.7289 8.77269 -6.43518 21.7289 8.77269 -6.43518
151 1 21.9758 7.20103 -4.39839 21.9758 7.20103 -4.39839
152 2 23.446 7.9654 -2.32947 23.446 7.9654 -2.32947
153 2 24.308 6.21399 -4.84606 24.308 6.21399 -4.84606
154 1 25.6826 8.75282 -4.00128 25.6826 8.75282 -4.00128
155 2 27.0218 9.66412 -1.90769 27.0218 9.66412 -1.90769
156 2 28.0246 7.74229 -4.2564 28.0246 7.74229 -4.2564
157 1 27.4427 7.15786 -1.80659 27.4427 7.15786 -1.80659
158 2 28.4399 8.45162 0.229156 28.4399 8.45162 0.229156
159 2 29.8065 6.24455 -1.68866 29.8065 6.24455 -1.68866
160 1 30.9867 8.89705 -1.17572 30.9867 8.89705 -1.17572
161 2 31.9604 10.2192 0.839108 31.9604 10.2192 0.839108
162 2 33.3651 8.03285 -1.07625 33.3651 8.03285 -1.07625
163 1 34.5276 10.6678 -0.526727 -16.7641 10.6678 -0.526727
164 2 35.5128 11.9821 1.47809 -15.7789 11.9821 1.47809
165 2 36.9204 9.84416 -0.48483 -14.3713 9.84416 -0.48483
166 1 38.0884 12.465 0.118975 -13.2032 12.465 0.118975
167 2 39.0998 13.7254 2.13991 -12.1919 13.7254 2.13991
168 2 40.4926 11.6736 0.0846946 -10.799 11.6736 0.0846946
169 1 39.7909 11.3183 2.58704 -11.5008 11.3183 2.58704
170 2 41.1773 12.045 4.68829 -10.1144 12.045 4.68829
171 2 42.1955 10.671 2.00078 -9.09614 10.671 2.00078
172 1 43.4803 13.0237 3.13724 -7.81138 13.0237 3.13724
173 2 44.9955 13.5814 5.21512 -6.29613 13.5814 5.21512
174 2 45.8652 12.4461 2.38095 -5.4264 12.4461 2.38095
175 1 45.8272 11.2269 4.67045 -5.46444 11.2269 4.67045
176 2 47.8682 10.9149 6.30853 -3.42342 10.9149 6.30853
177 2 48.033 11.1978 3.20654 -3.2586 11.1978 3.20654
178 1 49.6713 12.7791 4.84549 -1.62037 12.7791 4.84549
179 2 51.8158 12.2495 6.26159 0.524132 12.2495 6.26159
180 2 51.7669 12.8898 3.20585 0.475272 12.8898 3.20585
181 1 52.1547 10.5901 4.31197 0.863105 10.5901 4.31197
182 2 54.4877 9.62523 4.82712 3.19606 9.62523 4.82712
183 2 53.6716 11.3011 2.25227 2.37997 11.3011 2.25227
184 1 55.8863 12.1558 3.93129 4.59469 12.1558 3.93129
185 2 6.93793 11.1558 4.24835 6.93793 11.1558 4.24835
186 2 57.2684 13.0153 1.83898 5.97679 13.0153 1.83898
187 1 6.40665 10.5064 1.80163 6.40665 10.5064 1.80163
188 2 8.76638 9.57594 1.67256 8.76638 9.57594 1.67256
189 2 7.41197 11.7877 -0.245947 7.41197 11.7877 -0.245947
190 1 9.95718 12.2393 1.1696 9.95718 12.2393 1.1696
191 2 12.3291 11.355 1.04803 12.3291 11.355 1.04803
192 2 10.9302 13.5559 -0.854517 10.9302 13.5559 -0.854517
193 1 11.4679 11.1465 -1.40071 11.4679 11.1465 -1.40071
194 2 13.8816 10.3928 -1.1764 13.8816 10.3928 -1.1764
195 2 12.5923 12.2298 -3.46997 12.5923 12.2298 -3.46997
196 1 15.0718 12.9134 -2.02741 15.0718 12.9134 -2.02741
197 2 17.4841 12.1881 -1.65776 17.4841 12.1881 -1.65776
198 2 16.2964 13.8487 -4.12235 16.2964 13.8487 -4.12235
199 1 17.0836 11.4207 -4.12812 17.0836 11.4207 -4.12812
200 2 19.4088 10.9843 -3.08104 19.4088 10.9843 -3.08104
201 2 18.8048 11.6323 -6.10917 18.8048 11.6323 -6.10917
202 1 20.8441 12.9996 -4.513 20.8441 12.9996 -4.513
203 2 23.1273 12.7016 -3.29312 23.1273 12.7016 -3.29312
204 2 22.6882 12.9907 -6.39185 22.6882 12.9907 -6.39185
205 1 23.3719 10.8722 -5.10772 23.3719 10.8722 -5.10772
206 2 25.2712 11.1819 -3.26793 25.2712 11.1819 -3.26793
207 2 25.6088 10.1122 -6.20204 25.6088 10.1122 -6.20204
208 1 27.1811 12.3659 -4.99131 27.1811 12.3659 -4.99131
209 2 28.9286 12.8256 -3.03877 28.9286 12.8256 -3.03877
210 2 29.4675 11.4958 -5.84976 29.4675 11.4958 -5.84976
211 1 29.3548 10.3459 -3.53106 29.3548 10.3459 -3.53106
212 2 30.5758 11.3874 -1.4332 30.5758 11.3874 -1.4332
213 2 31.6992 9.32975 -3.61973 31.6992 9.32975 -3.61973
214 1 32.9926 11.977 -2.99827 32.9926 11.977 -2.99827
215 2 34.1109 13.1343 -0.911708 34.1109 13.1343 -0.911708
216 2 35.3405 10.981 -2.95808 35.3405 10.981 -2.95808
217 1 36.609 13.6676 -2.42158 -14.6826 13.6676 -2.42158
218 2 37.6433 14.9069 -0.355487 -13.6483 14.9069 -0.355487
219 2 38.9613 12.7064 -2.30662 -12.3304 12.7064 -2.30662
220 1 40.179 15.3824 -1.8013 -11.1126 15.3824 -1.8013
221 2 41.1593 16.6869 0.236841 -10.1324 16.6869 0.236841
222 2 42.5445 14.4748 -1.66216 -8.74717 14.4748 -1.66216
223 1 41.6641 14.2706 0.772717 -9.62755 14.2706 0.772717
224 2 42.7335 15.4388 2.82232 -8.55815 15.4388 2.82232
225 2 44.0802 13.5129 0.63063 -7.2114 13.5129 0.63063
226 1 45.2612 16.076 1.41728 -6.03048 16.076 1.41728
227 2 46.4219 17.1208 3.49465 -4.86977 17.1208 3.49465
228 2 47.6813 15.3466 1.14044 -3.61033 15.3466 1.14044
229 1 47.2085 14.6998 3.63338 -4.08309 14.6998 3.63338
230 2 48.8573 15.0657 5.66131 -2.43432 15.0657 5.66131
231 2 49.5705 14.2329 2.7014 -1.72113 14.2329 2.7014
232 1 50.9764 16.3496 4.06817 -0.315283 16.3496 4.06817
233 2 52.7649 16.4865 6.00714 1.47325 16.4865 6.00714
234 2 53.2972 16.003 2.94864 2.00553 16.003 2.94864
235 1 53.5148 14.301 4.88821 2.22318 14.301 4.88821
236 2 55.737 13.6034 6.06993 4.44541 13.6034 6.06993
237 2 55.4781 14.5562 3.09743 4.18646 14.5562 3.09743
238 1 57.3394 15.8077 4.80395 6.04779 15.8077 4.80395
239 2 8.32478 14.9839 5.74874 8.32478 14.9839 5.74874
240 2 59.1502 16.2064 2.88699 7.85861 16.2064 2.88699
241 1 8.28296 13.7443 3.47437 8.28296 13.7443 3.47437
242 2 10.6296 12.7309 3.61543 10.6296 12.7309 3.61543
243 2 9.54043 14.7362 1.36923 9.54043 14.7362 1.36923
244 1 11.9337 15.3669 2.94995 11.9337 15.3669 2.94995
245 2 14.2798 14.3597 2.95149 14.2798 14.3597 2.95149
246 2 13.0878 16.4766 0.853101 13.0878 16.4766 0.853101
247 1 13.4958 13.9985 0.51773 13.4958 13.9985 0.51773
248 2 15.8799 13.1537 0.446777 15.8799 13.1537 0.446777
249 2 14.4726 15.3172 -1.49065 14.4726 15.3172 -1.49065
250 1 17.0444 15.7762 -0.133679 17.0444 15.7762 -0.133679
251 2 19.4409 14.9643 -0.130675 19.4409 14.9643 -0.130675
252 2 18.0436 17.0499 -2.15174 18.0436 17.0499 -2.15174
253 1 18.7026 14.6413 -2.62546 18.7026 14.6413 -2.62546
254 2 21.1075 13.9581 -2.10079 21.1075 13.9581 -2.10079
255 2 20.0393 15.4139 -4.7312 20.0393 15.4139 -4.7312
256 1 22.3657 16.3307 -3.192 22.3657 16.3307 -3.192
257 2 24.7532 15.7044 -2.50293 24.7532 15.7044 -2.50293
258 2 23.8242 16.9344 -5.28451 23.8242 16.9344 -5.28451
259 1 24.6349 14.5516 -4.83127 24.6349 14.5516 -4.83127
260 2 26.8591 14.4081 -3.43863 26.8591 14.4081 -3.43863
261 2 26.609 14.3283 -6.55823 26.609 14.3283 -6.55823
262 1 28.4555 16.0792 -5.05266 28.4555 16.0792 -5.05266
263 2 30.5926 16.086 -3.49042 30.5926 16.086 -3.49042
264 2 30.5413 15.639 -6.58465 30.5413 15.639 -6.58465
265 1 30.9582 13.8654 -4.75713 30.9582 13.8654 -4.75713
266 2 32.5609 14.4839 -2.7299 32.5609 14.4839 -2.7299
267 2 33.2757 12.9224 -5.39402 33.2757 12.9224 -5.39402
268 1 34.7211 15.4092 -4.42869 34.7211 15.4092 -4.42869
269 2 36.1788 16.1806 -2.35303 36.1788 16.1806 -2.35303
270 2 37.0556 14.4192 -4.85826 37.0556 14.4192 -4.85826
271 1 38.4328 16.9694 -4.01637 -12.8588 16.9694 -4.01637
272 2 39.7621 17.8895 -1.91968 -11.5296 17.8895 -1.91968
273 2 40.7746 15.9536 -4.25162 -10.517 15.9536 -4.25162
274 1 42.1109 18.5691 -3.53402 -9.18077 18.5691 -3.53402
275 2 43.3177 19.6268 -1.43336 -7.9739 19.6268 -1.43336
276 2 44.4552 17.5513 -3.59465 -6.8364 17.5513 -3.59465
277 1 43.7224 17.1371 -1.15283 -7.56925 17.1371 -1.15283
278 2 44.6883 18.4756 0.8572 -6.60337 18.4756 0.8572
279 2 46.1038 16.2809 -1.04147 -5.18785 16.2809 -1.04147
280 1 47.2751 18.9314 -0.502902 -4.01657 18.9314 -0.502902
281 2 48.2499 20.2575 1.50072 -3.04176 20.2575 1.50072
282 2 49.6725 18.118 -0.44975 -1.61914 18.118 -0.44975
283 1 48.8897 17.8618 2.03459 -2.40198 17.8618 2.03459
284 2 50.157 18.7653 4.13073 -1.13464 18.7653 4.13073
285 2 51.3093 17.175 1.61123 0.0176197 17.175 1.61123
286 1 52.5515 19.6212 2.62238 1.25982 19.6212 2.62238
287 2 53.9401 20.3469 4.72359 2.64842 20.3469 4.72359
288 2 54.9551 18.9717 2.03655 3.66344 18.9717 2.03655
289 1 54.768 17.9493 4.42444 3.4764 17.9493 4.42444
290 2 56.6914 17.8492 6.22934 5.39978 17.8492 6.22934
291 2 57.0384 17.7527 3.12346 5.74677 17.7527 3.12346
292 1 58.5937 19.5139 4.69056 7.30204 19.5139 4.69056
293 2 60.6428 19.1795 6.30989 9.3512 19.1795 6.30989
294 2 60.7853 19.4682 3.20538 9.49371 19.4682 3.20538
295 1 9.84644 17.317 4.59674 9.84644 17.317 4.59674
296 2 12.157 16.4031 5.31524 12.157 16.4031 5.31524
297 2 11.4994 17.8635 2.58709 11.4994 17.8635 2.58709
298 1 13.6109 18.844 4.28656 13.6109 18.844 4.28656
299 2 15.941 17.8747 4.79924 15.941 17.8747 4.79924
300 2 15.1177 19.5422 2.2193 15.1177 19.5422 2.2193
301 1 15.554 17.032 2.37998 15.554 17.032 2.37998
302 2 17.9024 16.0528 2.29074 17.9024 16.0528 2.29074
303 2 16.6158 18.2297 0.297975 16.6158 18.2297 0.297975
304 1 19.1256 18.7192 1.76331 19.1256 18.7192 1.76331
305 2 21.4828 17.7819 1.63873 21.4828 17.7819 1.63873
306 2 20.1341 19.989 -0.288693 20.1341 19.989 -0.288693
307 1 20.6054 17.559 -0.791174 20.6054 17.559 -0.791174
308 2 23.0106 16.7719 -0.68731 23.0106 16.7719 -0.68731
309 2 21.6566 18.7509 -2.83217 21.6566 18.7509 -2.83217
310 1 24.1909 19.3373 -1.43841 24.1909 19.3373 -1.43841
311 2 26.6023 18.5775 -1.21223 26.6023 18.5775 -1.21223
312 2 25.3174 20.4148 -3.50944 25.3174 20.4148 -3.50944
313 1 26.0705 17.9868 -3.71073 26.0705 17.9868 -3.71073
314 2 28.4358 17.4499 -2.84855 28.4358 17.4499 -2.84855
315 2 27.6578 18.4054 -5.76555 27.6578 18.4054 -5.76555
316 1 29.8122 19.6116 -4.1726 29.8122 19.6116 -4.1726
317 2 32.1445 19.19 -3.1269 32.1445 19.19 -3.1269
318 2 31.5374 19.8264 -6.15422 31.5374 19.8264 -6.15422
319 1 32.2969 17.589 -5.15763 32.2969 17.589 -5.15763
320 2 34.3234 17.7566 -3.44223 34.3234 17.7566 -3.44223
321 2 34.4743 16.9742 -6.47075 34.4743 16.9742 -6.47075
322 1 36.1282 19.0868 -5.14656 36.1282 19.0868 -5.14656
323 2 38.0199 19.4031 -3.29684 38.0199 19.4031 -3.29684
324 2 38.3731 18.3212 -6.22369 38.3731 18.3212 -6.22369
325 1 39.9413 20.5816 -5.0147 -11.3503 20.5816 -5.0147
326 2 41.6822 21.053 -3.05806 -9.60943 21.053 -3.05806
327 2 42.2337 19.71 -5.85801 -9.05795 19.71 -5.85801
328 1 43.7326 22.1034 -4.7713 -7.55908 22.1034 -4.7713
329 2 45.3267 22.7369 -2.74136 -5.96491 22.7369 -2.74136
330 2 46.0545 21.161 -5.39386 -5.23715 21.161 -5.39386
331 1 45.7608 20.2283 -2.99371 -5.53084 20.2283 -2.99371
332 2 46.8628 21.3966 -0.905502 -4.42881 21.3966 -0.905502
333 2 48.1062 19.2315 -2.93142 -3.18539 19.2315 -2.93142
334 1 49.3764 21.9326 -2.4068 -1.91521 21.9326 -2.4068
335 2 50.3962 23.1902 -0.343251 -0.895466 23.1902 -0.343251
336 2 51.7315 20.9815 -2.27483 0.439827 20.9815 -2.27483
337 1 50.8488 20.7547 0.1489 -0.442804 20.7547 0.1489
338 2 51.8561 22.0255 2.16716 0.564418 22.0255 2.16716
339 2 53.2574 19.9731 0.119698 1.96577 19.9731 0.119698
340 1 54.4268 22.5741 0.804249 3.13519 22.5741 0.804249
341 2 55.499 23.7427 2.85241 4.20737 23.7427 2.85241
342 2 56.843 21.8164 0.660982 5.5514 21.8164 0.660982
343 1 56.2448 21.3261 3.16959 4.95318 21.3261 3.16959
344 2 57.7712 21.8718 5.24261 6.47956 21.8718 5.24261
345 2 58.6246 20.7402 2.40396 7.33295 20.7402 2.40396
346 1 59.9752 22.9859 3.65133 8.68356 22.9859 3.65133
347 2 61.6356 23.3305 5.67193 10.3439 23.3305 5.67193
348 2 62.33 22.5107 2.70347 11.0383 22.5107 2.70347
349 1 11.1439 21.0437 4.83803 11.1439 21.0437 4.83803
350 2 13.2924 20.5037 6.2404 13.2924 20.5037 6.2404
351 2 13.2267 21.1446 3.18292 13.2267 21.1446 3.18292
352 1 14.9813 22.5499 4.86038 14.9813 22.5499 4.86038
353 2 17.2021 21.84 6.02964 17.2021 21.84 6.02964
354 2 16.9243 22.7854 3.0533 16.9243 22.7854 3.0533
355 1 17.327 20.3852 3.89155 17.327 20.3852 3.89155
356 2 19.6652 19.3764 4.20666 19.6652 19.3764 4.20666
357 2 18.7036 21.2302 1.79338 18.7036 21.2302 1.79338
358 1 21.0127 21.9599 3.42556 21.0127 21.9599 3.42556
359 2 23.3544 20.9397 3.56991 23.3544 20.9397 3.56991
360 2 22.2715 22.9411 1.31835 22.2715 22.9411 1.31835
361 1 22.6797 20.4412 1.12608 22.6797 20.4412 1.12608
362 2 25.05 19.5522 1.00941 25.05 19.5522 1.00941
363 2 23.6562 21.7494 -0.901457 23.6562 21.7494 -0.901457
364 1 26.2203 22.1926 0.472209 26.2203 22.1926 0.472209
365 2 28.6044 21.3454 0.405262 28.6044 21.3454 0.405262
366 2 27.199 23.5026 -1.54093 27.199 23.5026 -1.54093
367 1 27.7964 21.0961 -2.06813 27.7964 21.0961 -2.06813
368 2 30.2095 20.3736 -1.70063 30.2095 20.3736 -1.70063
369 2 29.02 22.0376 -4.16242 29.02 22.0376 -4.16242
370 1 31.4391 22.8375 -2.66861 31.4391 22.8375 -2.66861
371 2 33.8435 22.1549 -2.14457 33.8435 22.1549 -2.14457
372 2 32.7782 23.6186 -4.77193 32.7782 23.6186 -4.77193
373 1 33.5874 21.2055 -4.56117 33.5874 21.2055 -4.56117
374 2 35.8736 20.9186 -3.33731 35.8736 20.9186 -3.33731
375 2 35.4435 21.2027 -6.43417 35.4435 21.2027 -6.43417
376 1 37.3887 22.7642 -4.87085 37.3887 22.7642 -4.87085
377 2 39.615 22.6339 -3.47422 39.615 22.6339 -3.47422
378 2 39.3707 22.5368 -6.59083 39.3707 22.5368 -6.59083
379 1 41.2207 24.3036 -5.08594 -10.071 24.3036 -5.08594
380 2 43.3575 24.3295 -3.51807 -7.93413 24.3295 -3.51807
381 2 43.3159 23.8655 -6.60873 -7.97571 23.8655 -6.60873
382 1 45.0578 25.8194 -5.18522 -6.23388 25.8194 -5.18522
383 2 47.0841 26.0047 -3.46522 -4.2075 26.0047 -3.46522
384 2 47.2452 25.2053 -6.48617 -4.04639 25.2053 -6.48617
385 1 47.4916 23.6531 -4.43563 -3.80006 23.6531 -4.43563
386 2 48.9401 24.4446 -2.35824 -2.35153 24.4446 -2.35824
387 2 49.8322 22.6679 -4.84665 -1.45944 22.6679 -4.84665
388 1 51.2029 25.2305 -4.01421 -0.0887447 25.2305 -4.01421
389 2 52.5176 26.1695 -1.9142 1.22592 26.1695 -1.9142
390 2 53.5502 24.2225 -4.22904 2.25858 24.2225 -4.22904
391 1 52.9417 23.6654 -1.77887 1.65002 23.6654 -1.77887
392 2 53.9141 24.9848 0.254028 2.62242 24.9848 0.254028
393 2 55.3101 22.767 -1.63109 4.01851 22.767 -1.63109
394 1 56.4853 25.4357 -1.12978 5.19364 25.4357 -1.12978
395 2 57.4464 26.7739 0.880813 6.15477 26.7739 0.880813
396 2 58.866 24.581 -1.01609 7.57434 24.581 -1.01609
397 1 58.022 24.375 1.44406 6.73039 24.375 1.44406
398 2 59.1871 25.4079 3.52419 7.89549 25.4079 3.52419
399 2 60.4428 23.6471 1.15981 9.15117 23.6471 1.15981
400 1 61.6484 26.1533 2.06032 10.3568 26.1533 2.06032
401 2 62.9305 27.0346 4.15639 11.6389 27.0346 4.15639
402 2 64.0622 25.456 1.61973 12.7706 25.456 1.61973
403 1 12.4501 24.6163 4.07142 12.4501 24.6163 4.07142
404 2 14.2507 24.734 5.9976 14.2507 24.734 5.9976
405 2 14.7637 24.2684 2.93398 14.7637 24.2684 2.93398
406 1 16.2442 26.2017 4.40799 16.2442 26.2017 4.40799
407 2 18.1749 26.0765 6.19678 18.1749 26.0765 6.19678
408 2 18.496 25.9889 3.0833 18.496 25.9889 3.0833
409 1 18.7946 24.0357 4.75462 18.7946 24.0357 4.75462
410 2 21.0674 23.2067 5.69684 21.0674 23.2067 5.69684
411 2 20.5915 24.4203 2.82973 20.5915 24.4203 2.82973
412 1 22.5813 25.5305 4.5382 22.5813 25.5305 4.5382
413 2 24.8862 24.614 5.2626 24.8862 24.614 5.2626
414 2 24.2342 26.0702 2.52933 24.2342 26.0702 2.52933
415 1 24.6625 23.5732 2.89928 24.6625 23.5732 2.89928
416 2 27.0045 22.5602 2.90568 27.0045 22.5602 2.90568
417 2 25.8186 24.6735 0.799392 25.8186 24.6735 0.799392
418 1 28.2889 25.2357 2.33083 28.2889 25.2357 2.33083
419 2 30.6353 24.2529 2.24567 30.6353 24.2529 2.24567
420 2 29.355 26.4295 0.2486 29.355 26.4295 0.2486
421 1 29.7788 23.9733 -0.179428 29.7788 23.9733 -0.179428
422 2 32.1745 23.1594 -0.173382 32.1745 23.1594 -0.173382
423 2 30.7815 25.2472 -2.19629 30.7815 25.2472 -2.19629
424 1 33.3492 25.7619 -0.830302 33.3492 25.7619 -0.830302
425 2 35.7548 24.9769 -0.725341 35.7548 24.9769 -0.725341
426 2 34.3995 26.9541 -2.8712 34.3995 26.9541 -2.8712
427 1 35.1111 24.5352 -3.23107 35.1111 24.5352 -3.23107
428 2 37.4993 23.9128 -2.54039 37.4993 23.9128 -2.54039
429 2 36.5734 25.1444 -5.32206 36.5734 25.1444 -5.32206
430 1 38.8217 26.1998 -3.7464 38.8217 26.1998 -3.7464
431 2 41.1854 25.6665 -2.87861 41.1854 25.6665 -2.87861
432 2 40.4171 26.6278 -5.79592 40.4171 26.6278 -5.79592
433 1 42.564 27.8328 -4.19662 -8.72764 27.8328 -4.19662
434 2 44.8914 27.4094 -3.14834 -6.40028 27.4094 -3.14834
435 2 44.2911 28.0567 -6.17588 -7.00057 28.0567 -6.17588
436 1 46.3322 29.4319 -4.57746 -4.95943 29.4319 -4.57746
437 2 48.618 29.1543 -3.3516 -2.67361 29.1543 -3.3516
438 2 48.1945 29.4437 -6.44754 -3.0971 29.4437 -6.44754
439 1 48.8896 27.3297 -5.16447 -2.40201 27.3297 -5.16447
440 2 50.7809 27.6677 -3.31156 -0.510756 27.6677 -3.31156
441 2 51.1448 26.5698 -6.22799 -0.146869 26.5698 -6.22799
442 1 52.7075 28.8472 -5.02107 1.41588 28.8472 -5.02107
443 2 54.4418 29.3364 -3.05783 3.15016 29.3364 -3.05783
444 2 55.0068 27.9797 -5.84948 3.71517 27.9797 -5.84948
445 1 54.8793 26.8535 -3.52014 3.58764 26.8535 -3.52014
446 2 56.0753 27.9225 -1.41824 4.78366 27.9225 -1.41824
447 2 57.2274 25.8444 -3.56998 5.93575 25.8444 -3.56998
448 1 58.5129 28.5127 -2.96809 7.22123 28.5127 -2.96809
449 2 59.6079 29.689 -0.880887 8.31629 29.689 -0.880887
450 2 60.8631 27.5259 -2.90254 9.57143 27.5259 -2.90254
451 1 60.0308 27.2279 -0.474568 8.73912 27.2279 -0.474568
452 2 61.0087 28.5509 1.52805 9.7171 28.5509 1.52805
453 2 62.4261 26.4128 -0.426748 11.1344 26.4128 -0.426748
454 1 63.5929 29.038 0.175792 12.3013 29.038 0.175792
455 2 64.6112 30.2972 2.19498 13.3196 30.2972 2.19498
456 2 14.7087 28.2544 0.129716 14.7087 28.2544 0.129716
457 1 65.3098 27.8908 2.63484 14.0181 27.8908 2.63484
458 2 15.4228 28.5994 4.73057 15.4228 28.5994 4.73057
459 2 16.4199 27.2468 2.02771 16.4199 27.2468 2.02771
460 1 17.715 29.5867 3.16616 17.715 29.5867 3.16616
461 2 19.251 30.1008 5.23586 19.251 30.1008 5.23586
462 2 20.0926 29.0106 2.37984 20.0926 29.0106 2.37984
463 1 20.0607 27.7451 4.64905 20.0607 27.7451 4.64905
464 2 22.1071 27.3927 6.25871 22.1071 27.3927 6.25871
465 2 22.2323 27.6811 3.14736 22.2323 27.6811 3.14736
466 1 23.8914 29.2593 4.78198 23.8914 29.2593 4.78198
467 2 26.0375 28.7184 6.18077 26.0375 28.7184 6.18077
468 2 25.9497 29.3384 3.11154 25.9497 29.3384 3.11154
469 1 26.344 27.0512 4.23054 26.344 27.0512 4.23054
470 2 28.6727 26.0818 4.74883 28.6727 26.0818 4.74883
471 2 27.8572 27.7463 2.16584 27.8572 27.7463 2.16584
472 1 30.0615 28.5894 3.83905 30.0615 28.5894 3.83905
473 2 32.4024 27.5869 4.16474 32.4024 27.5869 4.16474
474 2 31.4484 29.4385 1.7467 31.4484 29.4385 1.7467
475 1 31.8716 26.9285 1.72105 31.8716 26.9285 1.72105
476 2 34.2265 25.9885 1.60015 34.2265 25.9885 1.60015
477 2 32.881 28.1941 -0.331419 32.881 28.1941 -0.331419
478 1 35.4187 28.6429 1.08675 35.4187 28.6429 1.08675
479 2 37.7884 27.754 0.974687 37.7884 27.754 0.974687
480 2 36.4004 29.9548 -0.936236 36.4004 29.9548 -0.936236
481 1 36.9345 27.5431 -1.47542 36.9345 27.5431 -1.47542
482 2 39.3454 26.785 -1.24515 39.3454 26.785 -1.24515
483 2 38.0649 28.6264 -3.5416 38.0649 28.6264 -3.5416
484 1 40.5427 29.3086 -2.09391 40.5427 29.3086 -2.09391
485 2 42.9577 28.5934 -1.72249 42.9577 28.5934 -1.72249
486 2 41.7683 30.2573 -4.18371 41.7683 30.2573 -4.18371
487 1 44.1762 31.0528 -2.68564 -7.11545 31.0528 -2.68564
488 2 46.5801 30.3737 -2.15811 -4.71157 30.3737 -2.15811
489 2 45.5179 31.8433 -4.7838 -5.77374 31.8433 -4.7838
490 1 47.8439 32.7577 -3.23813 -3.44779 32.7577 -3.23813
491 2 50.2322 32.1413 -2.54453 -1.05946 32.1413 -2.54453
492 2 49.3098 33.3832 -5.32361 -1.98185 33.3832 -5.32361
493 1 50.1341 31.0066 -4.8799 -1.15752 31.0066 -4.8799
494 2 52.3648 30.8983 -3.48359 1.07319 30.8983 -3.48359
495 2 52.1237 30.7962 -6.59738 0.832036 30.7962 -6.59738
496 1 53.9638 32.5627 -5.0915 2.67215 32.5627 -5.0915
497 2 56.1021 32.6031 -3.51908 4.8105 32.6031 -3.51908
498 2 56.0696 32.1329 -6.60601 4.77801 32.1329 -6.60601
499 1 56.4892 30.3752 -4.76535 5.19754 30.3752 -4.76535
500 2 58.0709 31.0193 -2.72705 6.7793 31.0193 -2.72705
501 2 58.8167 29.4353 -5.3702 7.52509 29.4353 -5.3702
502 1 60.2344 31.927 -4.41328 8.94273 31.927 -4.41328
503 2 61.6754 32.7264 -2.3313 10.3837 32.7264 -2.3313
504 2 62.5793 30.9473 -4.81336 11.2877 30.9473 -4.81336
505 1 62.114 30.2164 -2.37446 10.8224 30.2164 -2.37446
506 2 63.1358 31.4736 -0.312701 11.8442 31.4736 -0.312701
507 2 64.4697 29.2682 -2.24998 13.178 29.2682 -2.24998
508 1 65.6774 31.9497 -1.7498 14.3857 31.9497 -1.7498
509 2 66.6573 33.2636 0.281305 15.3657 33.2636 0.281305
510 2 16.7551 31.0535 -1.61746 16.7551 31.0535 -1.61746
511 1 15.8835 30.852 0.821441 15.8835 30.852 0.821441
512 2 16.9694 32.0057 2.87094 16.9694 32.0057 2.87094
513 2 18.2972 30.0924 0.657931 18.2972 30.0924 0.657931
514 1 19.4731 32.6385 1.45337 19.4731 32.6385 1.45337
515 2 20.6537 33.6566 3.53219 20.6537 33.6566 3.53219
516 2 21.8899 31.9087 1.14869 21.8899 31.9087 1.14869
517 1 21.4402 31.2326 3.63984 21.4402 31.2326 3.63984
518 2 23.1126 31.5428 5.65026 23.1126 31.5428 5.65026
519 2 23.7855 30.7582 2.66745 23.7855 30.7582 2.66745
520 1 25.1915 32.8376 4.0424 25.1915 32.8376 4.0424
521 2 26.9975 32.9209 5.95758 26.9975 32.9209 5.95758
522 2 27.4902 32.4806 2.88223 27.4902 32.4806 2.88223
523 1 27.7062 30.7446 4.79161 27.7062 30.7446 4.79161
524 2 29.9236 30.0456 5.97212 29.9236 30.0456 5.97212
525 2 29.6411 30.9768 2.9853 29.6411 30.9768 2.9853
526 1 31.502 32.2191 4.69503 31.502 32.2191 4.69503
527 2 33.7733 31.398 5.65066 33.7733 31.398 5.65066
528 2 33.3076 32.6097 2.77985 33.3076 32.6097 2.77985
529 1 33.7378 30.1535 3.38091 33.7378 30.1535 3.38091
530 2 36.0812 29.1355 3.53398 36.0812 29.1355 3.53398
531 2 35.0097 31.1422 1.28239 35.0097 31.1422 1.28239
532 1 37.3901 31.7661 2.87058 37.3901 31.7661 2.87058
533 2 39.7379 30.7619 2.87998 39.7379 30.7619 2.87998
534 2 38.5488 32.8732 0.774763 38.5488 32.8732 0.774763
535 1 38.9586 30.3951 0.444897 38.9586 30.3951 0.444897
536 2 41.3424 29.5494 0.381389 41.3424 29.5494 0.381389
537 2 39.9412 31.7122 -1.56186 39.9412 31.7122 -1.56186
538 1 42.5109 32.1766 -0.196377 42.5109 32.1766 -0.196377
539 2 44.9067 31.3669 -0.187863 44.9067 31.3669 -0.187863
540 2 43.515 33.4594 -2.20703 43.515 33.4594 -2.20703
541 1 46.0729 33.9676 -0.837071 -5.21878 33.9676 -0.837071