ITEM: TIMESTEP
1255000
ITEM: NUMBER OF ATOMS
810
ITEM: BOX BOUNDS xy xz yz pp pp pp
8.6298438867990135e-01 5.8352855091740594e+01 6.1982344804214264e+00
8.1394622342039402e-01 5.0202268776579182e+01 0.0000000000000000e+00
-1.0000000000000000e+01 1.0000000000000000e+01 0.0000000000000000e+00
ITEM: ATOMS id type x y z xu yu zu
1 1 48.5078 1.12021 1.64144 -2.78385 1.12021 1.64144
2 2 50.2375 1.29806 3.48353 -1.05411 1.29806 3.48353
3 2 50.6364 0.948586 0.283703 -0.655265 0.948586 0.283703
4 1 51.5718 2.75891 1.84001 0.280155 2.75891 1.84001
5 2 2.07236 2.86345 3.62791 2.07236 2.86345 3.62791
6 2 2.36415 2.64133 0.4057 2.36415 2.64133 0.4057
7 1 3.01762 1.01662 2.21555 3.01762 1.01662 2.21555
8 2 5.04618 0.840811 3.72254 5.04618 0.840811 3.72254
9 2 4.88374 1.15939 0.499614 4.88374 1.15939 0.499614
10 1 6.09913 2.63545 2.20847 6.09913 2.63545 2.20847
11 2 8.17802 2.40138 3.63593 8.17802 2.40138 3.63593
12 2 7.90597 2.84692 0.435204 7.90597 2.84692 0.435204
13 1 8.8218 0.901184 1.72907 8.8218 0.901184 1.72907
14 2 17.2553 49.8796 2.83751 11.0571 0.491325 2.83751
15 2 10.3918 1.3775 -0.212652 10.3918 1.3775 -0.212652
16 1 11.8801 2.54341 1.52233 11.8801 2.54341 1.52233
17 2 14.1396 2.10616 2.56601 14.1396 2.10616 2.56601
18 2 13.4015 3.07413 -0.44298 13.4015 3.07413 -0.44298
19 1 14.4591 0.957093 0.360141 14.4591 0.957093 0.360141
20 2 22.9611 49.8973 1.27836 16.7628 0.50893 1.27836
21 2 15.8637 1.57899 -1.65253 15.8637 1.57899 -1.65253
22 1 17.483 2.63679 0.0366613 17.483 2.63679 0.0366613
23 2 19.7807 2.208 0.976202 19.7807 2.208 0.976202
24 2 18.8965 3.2355 -1.97428 18.8965 3.2355 -1.97428
25 1 20.0201 1.11146 -1.27804 20.0201 1.11146 -1.27804
26 2 22.2388 0.810644 -0.111534 22.2388 0.810644 -0.111534
27 2 21.599 1.4874 -3.22009 21.599 1.4874 -3.22009
28 1 23.0658 2.77008 -1.54357 23.0658 2.77008 -1.54357
29 2 25.2548 2.51459 -0.307498 25.2548 2.51459 -0.307498
30 2 24.6985 3.07256 -3.4549 24.6985 3.07256 -3.4549
31 1 25.7476 1.09268 -2.32977 25.7476 1.09268 -2.32977
32 2 27.7575 1.06102 -0.785045 27.7575 1.06102 -0.785045
33 2 27.6303 1.09189 -4.02529 27.6303 1.09189 -4.02529
34 1 28.8256 2.71379 -2.42698 28.8256 2.71379 -2.42698
35 2 30.7836 2.74924 -0.813992 30.7836 2.74924 -0.813992
36 2 30.7658 2.63954 -4.05486 30.7658 2.63954 -4.05486
37 1 31.5776 0.95272 -2.38313 31.5776 0.95272 -2.38313
38 2 33.2943 1.26642 -0.534911 33.2943 1.26642 -0.534911
39 2 39.9217 50.0274 -3.68859 33.7235 0.639068 -3.68859
40 1 34.653 2.57443 -2.272 34.653 2.57443 -2.272
41 2 36.3114 2.95504 -0.382937 36.3114 2.95504 -0.382937
42 2 36.8373 2.21624 -3.4981 36.8373 2.21624 -3.4981
43 1 37.3119 0.903851 -1.41343 37.3119 0.903851 -1.41343
44 2 38.7658 1.49545 0.582408 38.7658 1.49545 0.582408
45 2 45.7994 49.8318 -2.37357 39.6011 0.443435 -2.37357
46 1 40.3508 2.56361 -1.13 40.3508 2.56361 -1.13
47 2 41.77 3.17954 0.880076 41.77 3.17954 0.880076
48 2 42.6532 2.10234 -2.0531 42.6532 2.10234 -2.0531
49 1 42.8736 1.04119 0.211937 42.8736 1.04119 0.211937
50 2 44.3282 1.56197 2.21443 44.3282 1.56197 2.21443
51 2 51.3514 50.0508 -0.793943 45.1532 0.662465 -0.793943
52 1 45.8997 2.71944 0.54346 45.8997 2.71944 0.54346
53 2 47.3971 3.18308 2.52932 47.3971 3.18308 2.52932
54 2 48.1604 2.37227 -0.519543 48.1604 2.37227 -0.519543
55 1 48.9322 4.39197 0.859566 -2.35944 4.39197 0.859566
56 2 50.4816 4.79207 2.8205 -0.810023 4.79207 2.8205
57 2 51.168 4.07914 -0.270038 -0.123624 4.07914 -0.270038
58 1 51.9732 6.05633 1.15108 0.68157 6.05633 1.15108
59 2 2.28744 6.38799 3.08036 2.28744 6.38799 3.08036
60 2 2.88742 5.78309 -0.050247 2.88742 5.78309 -0.050247
61 1 3.35095 4.3906 1.99979 3.35095 4.3906 1.99979
62 2 5.20437 4.42242 3.72738 5.20437 4.42242 3.72738
63 2 5.38666 4.33193 0.491076 5.38666 4.33193 0.491076
64 1 6.4273 6.01654 2.12028 6.4273 6.01654 2.12028
65 2 8.3402 5.97707 3.78177 8.3402 5.97707 3.78177
66 2 8.41144 6.02088 0.540312 8.41144 6.02088 0.540312
67 1 9.17948 4.25551 2.15903 9.17948 4.25551 2.15903
68 2 11.3034 3.96735 3.50679 11.3034 3.96735 3.50679
69 2 10.9276 4.53664 0.335869 10.9276 4.53664 0.335869
70 1 12.2574 5.87817 2.07125 12.2574 5.87817 2.07125
71 2 14.4211 5.54158 3.34058 14.4211 5.54158 3.34058
72 2 13.9483 6.22735 0.205435 13.9483 6.22735 0.205435
73 1 14.9317 4.19265 1.28742 14.9317 4.19265 1.28742
74 2 17.2107 3.73509 2.27493 17.2107 3.73509 2.27493
75 2 16.4099 4.76964 -0.696155 16.4099 4.76964 -0.696155
76 1 17.9766 5.84888 1.02706 17.9766 5.84888 1.02706
77 2 20.271 5.38184 1.96966 20.271 5.38184 1.96966
78 2 19.417 6.45893 -0.971723 19.417 6.45893 -0.971723
79 1 20.5064 4.31765 -0.290907 20.5064 4.31765 -0.290907
80 2 22.7941 3.91532 0.684789 22.7941 3.91532 0.684789
81 2 21.9416 4.87575 -2.29718 21.9416 4.87575 -2.29718
82 1 23.5317 5.99687 -0.619803 23.5317 5.99687 -0.619803
83 2 25.8063 5.62787 0.402079 25.8063 5.62787 0.402079
84 2 24.998 6.50033 -2.61846 24.998 6.50033 -2.61846
85 1 26.1186 4.42013 -1.78884 26.1186 4.42013 -1.78884
86 2 28.2737 4.2163 -0.480839 28.2737 4.2163 -0.480839
87 2 27.808 4.64465 -3.66243 27.808 4.64465 -3.66243
88 1 29.1786 6.06181 -2.01223 29.1786 6.06181 -2.01223
89 2 31.2938 5.91404 -0.62866 31.2938 5.91404 -0.62866
90 2 30.9291 6.20641 -3.83811 30.9291 6.20641 -3.83811
91 1 31.9069 4.33087 -2.48897 31.9069 4.33087 -2.48897
92 2 33.8094 4.43596 -0.811123 33.8094 4.43596 -0.811123
93 2 33.9026 4.18704 -4.04298 33.9026 4.18704 -4.04298
94 1 34.99 5.94587 -2.51305 34.99 5.94587 -2.51305
95 2 36.8322 6.12072 -0.772651 36.8322 6.12072 -0.772651
96 2 37.0405 5.73907 -3.98624 37.0405 5.73907 -3.98624
97 1 37.7234 4.20158 -2.12342 37.7234 4.20158 -2.12342
98 2 39.3222 4.64474 -0.196735 39.3222 4.64474 -0.196735
99 2 39.9435 3.80739 -3.26965 39.9435 3.80739 -3.26965
100 1 40.7871 5.83639 -1.93278 40.7871 5.83639 -1.93278
101 2 42.3295 6.33863 0.024882 42.3295 6.33863 0.024882
102 2 43.0374 5.41205 -3.00402 43.0374 5.41205 -3.00402
103 1 43.3812 4.23308 -0.817603 43.3812 4.23308 -0.817603
104 2 44.78 4.85461 1.20134 44.78 4.85461 1.20134
105 2 45.6898 3.78192 -1.72541 45.6898 3.78192 -1.72541
106 1 46.4048 5.91106 -0.482557 46.4048 5.91106 -0.482557
107 2 47.8032 6.51835 1.53787 47.8032 6.51835 1.53787
108 2 48.7111 5.47762 -1.40077 48.7111 5.47762 -1.40077
109 1 49.4257 7.59371 -0.137605 -1.86593 7.59371 -0.137605
110 2 50.8441 8.1692 1.87656 -0.44753 8.1692 1.87656
111 2 51.7221 7.18199 -1.08916 0.430512 7.18199 -1.08916
112 1 52.4489 9.27575 0.20298 1.15725 9.27575 0.20298
113 2 2.60872 9.80612 2.20581 2.60872 9.80612 2.20581
114 2 3.43914 8.88963 -0.795615 3.43914 8.88963 -0.795615
115 1 3.73128 7.7119 1.41427 3.73128 7.7119 1.41427
116 2 5.39631 7.97235 3.30514 5.39631 7.97235 3.30514
117 2 5.90256 7.483 0.138584 5.90256 7.483 0.138584
118 1 6.78963 9.35844 1.64611 6.78963 9.35844 1.64611
119 2 8.51313 9.54425 3.49378 8.51313 9.54425 3.49378
120 2 8.92359 9.18103 0.297047 8.92359 9.18103 0.297047
121 1 9.50793 7.63797 2.20109 9.50793 7.63797 2.20109
122 2 11.4763 7.52951 3.79303 11.4763 7.52951 3.79303
123 2 11.4391 7.70879 0.555689 11.4391 7.70879 0.555689
124 1 12.5914 9.25648 2.24495 12.5914 9.25648 2.24495
125 2 14.6132 9.08382 3.76218 14.6132 9.08382 3.76218
126 2 14.4667 9.39467 0.537901 14.4667 9.39467 0.537901
127 1 15.3318 7.50464 1.94792 15.3318 7.50464 1.94792
128 2 17.5318 7.12706 3.13938 17.5318 7.12706 3.13938
129 2 16.9657 7.91769 0.0441492 16.9657 7.91769 0.0441492
130 1 18.4017 9.13634 1.78697 18.4017 9.13634 1.78697
131 2 20.635 8.72667 2.9013 20.635 8.72667 2.9013
132 2 19.9779 9.60726 -0.151892 19.9779 9.60726 -0.151892
133 1 21.0144 7.51251 0.739568 21.0144 7.51251 0.739568
134 2 23.3206 7.04997 1.65118 23.3206 7.04997 1.65118
135 2 22.4234 8.13773 -1.27361 22.4234 8.13773 -1.27361
136 1 24.0443 9.18467 0.419877 24.0443 9.18467 0.419877
137 2 26.357 8.73966 1.31937 26.357 8.73966 1.31937
138 2 25.4332 9.80475 -1.6055 25.4332 9.80475 -1.6055
139 1 26.5604 7.67263 -0.949254 26.5604 7.67263 -0.949254
140 2 28.8166 7.3407 0.130393 28.8166 7.3407 0.130393
141 2 28.0696 8.11117 -2.93262 28.0696 8.11117 -2.93262
142 1 29.5955 9.34169 -1.27066 29.5955 9.34169 -1.27066
143 2 31.8261 9.04956 -0.122328 31.8261 9.04956 -0.122328
144 2 31.1584 9.70888 -3.22846 31.1584 9.70888 -3.22846
145 1 32.2463 7.69505 -2.20674 32.2463 7.69505 -2.20674
146 2 34.3149 7.60623 -0.745669 34.3149 7.60623 -0.745669
147 2 34.0606 7.76174 -3.97472 34.0606 7.76174 -3.97472
148 1 35.3211 9.32065 -2.36372 35.3211 9.32065 -2.36372
149 2 37.3372 9.295 -0.825258 37.3372 9.295 -0.825258
150 2 37.2 9.31145 -4.06477 37.2 9.31145 -4.06477
151 1 38.0735 7.56089 -2.49239 38.0735 7.56089 -2.49239
152 2 39.8529 7.80747 -0.694395 39.8529 7.80747 -0.694395
153 2 40.1751 7.29579 -3.88072 40.1751 7.29579 -3.88072
154 1 41.1553 9.17807 -2.42644 41.1553 9.17807 -2.42644
155 2 42.8714 9.4967 -0.577685 42.8714 9.4967 -0.577685
156 2 43.3032 8.86022 -3.72883 43.3032 8.86022 -3.72883
157 1 43.843 7.47974 -1.70412 43.843 7.47974 -1.70412
158 2 45.3344 8.03626 0.27727 45.3344 8.03626 0.27727
159 2 46.1178 7.03054 -2.70809 46.1178 7.03054 -2.70809
160 1 46.891 9.13176 -1.44375 46.891 9.13176 -1.44375
161 2 48.3386 9.73248 0.5548 48.3386 9.73248 0.5548
162 2 49.1842 8.66623 -2.3928 49.1842 8.66623 -2.3928
163 1 49.931 10.7925 -1.15658 -1.3606 10.7925 -1.15658
164 2 51.3455 11.4198 0.854022 0.0538443 11.4198 0.854022
165 2 52.2364 10.3235 -2.06936 0.944763 10.3235 -2.06936
166 1 52.9636 12.4619 -0.845139 1.67199 12.4619 -0.845139
167 2 3.06774 13.0952 1.17284 3.06774 13.0952 1.17284
168 2 3.9826 12.0018 -1.74427 3.9826 12.0018 -1.74427
169 1 4.1856 10.9537 0.532121 4.1856 10.9537 0.532121
170 2 5.67889 11.4276 2.51916 5.67889 11.4276 2.51916
171 2 6.44916 10.5986 -0.522879 6.44916 10.5986 -0.522879
172 1 7.22057 12.6254 0.846882 7.22057 12.6254 0.846882
173 2 8.76101 13.0358 2.81334 8.76101 13.0358 2.81334
174 2 9.4623 12.3063 -0.269853 9.4623 12.3063 -0.269853
175 1 9.85537 10.9973 1.84922 9.85537 10.9973 1.84922
176 2 11.6394 11.1084 3.64567 11.6394 11.1084 3.64567
177 2 11.9473 10.8745 0.425954 11.9473 10.8745 0.425954
178 1 12.9283 12.6286 2.01866 12.9283 12.6286 2.01866
179 2 14.773 12.6657 3.75661 14.773 12.6657 3.75661
180 2 14.9737 12.5648 0.522002 14.9737 12.5648 0.522002
181 1 15.6763 10.8737 2.24884 15.6763 10.8737 2.24884
182 2 17.7495 10.6425 3.68646 17.7495 10.6425 3.68646
183 2 17.4926 11.0793 0.483642 17.4926 11.0793 0.483642
184 1 18.7611 12.4915 2.20887 18.7611 12.4915 2.20887
185 2 20.8843 12.208 3.56086 20.8843 12.208 3.56086
186 2 20.5137 12.7638 0.387481 20.5137 12.7638 0.387481
187 1 21.4649 10.7751 1.58339 21.4649 10.7751 1.58339
188 2 23.7288 10.3417 2.62234 23.7288 10.3417 2.62234
189 2 22.983 11.298 -0.388024 22.983 11.298 -0.388024
190 1 24.5193 12.4227 1.33302 24.5193 12.4227 1.33302
191 2 26.8081 11.9712 2.30398 26.8081 11.9712 2.30398
192 2 25.9835 12.9926 -0.66484 25.9835 12.9926 -0.66484
193 1 27.0664 10.8652 0.0679544 27.0664 10.8652 0.0679544
194 2 29.3769 10.4451 0.982364 29.3769 10.4451 0.982364
195 2 28.457 11.4591 -1.96164 28.457 11.4591 -1.96164
196 1 30.0854 12.5496 -0.301925 30.0854 12.5496 -0.301925
197 2 32.3838 12.1551 0.653904 32.3838 12.1551 0.653904
198 2 31.5028 13.1009 -2.3241 31.5028 13.1009 -2.3241
199 1 32.6395 11.0013 -1.57207 32.6395 11.0013 -1.57207
200 2 34.8368 10.7527 -0.34679 34.8368 10.7527 -0.34679
201 2 34.2639 11.2938 -3.49365 34.2639 11.2938 -3.49365
202 1 35.6936 12.6504 -1.84263 35.6936 12.6504 -1.84263
203 2 37.8524 12.4513 -0.537612 37.8524 12.4513 -0.537612
204 2 37.382 12.866 -3.71984 37.382 12.866 -3.71984
205 1 38.4019 10.9403 -2.47765 38.4019 10.9403 -2.47765
206 2 40.3615 10.9815 -0.865197 40.3615 10.9815 -0.865197
207 2 40.3434 10.8584 -4.10514 40.3434 10.8584 -4.10514
208 1 41.4869 12.556 -2.54661 41.4869 12.556 -2.54661
209 2 43.3871 12.6669 -0.865318 43.3871 12.6669 -0.865318
210 2 43.4873 12.4059 -4.09562 43.4873 12.4059 -4.09562
211 1 44.2335 10.7994 -2.31698 44.2335 10.7994 -2.31698
212 2 45.8879 11.1878 -0.425031 45.8879 11.1878 -0.425031
213 2 46.4221 10.4356 -3.53522 46.4221 10.4356 -3.53522
214 1 47.3067 12.4267 -2.16654 47.3067 12.4267 -2.16654
215 2 48.9015 12.8799 -0.237988 48.9015 12.8799 -0.237988
216 2 49.5305 12.025 -3.30418 49.5305 12.025 -3.30418
217 1 50.3731 14.0615 -1.97634 -0.918503 14.0615 -1.97634
218 2 51.9112 14.5729 -0.0168543 0.619558 14.5729 -0.0168543
219 2 52.6272 13.6304 -3.03853 1.3356 13.6304 -3.03853
220 1 53.4315 15.7051 -1.74706 2.1399 15.7051 -1.74706
221 2 3.62663 16.2665 0.236946 3.62663 16.2665 0.236946
222 2 4.41841 15.2529 -2.74314 4.41841 15.2529 -2.74314
223 1 4.69887 14.1387 -0.513896 4.69887 14.1387 -0.513896
224 2 6.09106 14.7567 1.50829 6.09106 14.7567 1.50829
225 2 7.0091 13.6981 -1.42053 7.0091 13.6981 -1.42053
226 1 7.72198 15.8209 -0.166551 7.72198 15.8209 -0.166551
227 2 9.12834 16.4052 1.85426 9.12834 16.4052 1.85426
228 2 10.0254 15.4058 -1.10134 10.0254 15.4058 -1.10134
229 1 10.2629 14.29 1.14526 10.2629 14.29 1.14526
230 2 11.8569 14.6299 3.08376 11.8569 14.6299 3.08376
231 2 12.4775 14.0125 -0.0401481 12.4775 14.0125 -0.0401481
232 1 13.3133 15.9465 1.42237 13.3133 15.9465 1.42237
233 2 14.9674 16.2131 3.32303 14.9674 16.2131 3.32303
234 2 15.4938 15.7138 0.161758 15.4938 15.7138 0.161758
235 1 16.0073 14.2538 2.15149 16.0073 14.2538 2.15149
236 2 17.9145 14.2197 3.82124 17.9145 14.2197 3.82124
237 2 17.9996 14.2512 0.580455 17.9996 14.2512 0.580455
238 1 19.0914 15.874 2.23937 19.0914 15.874 2.23937
239 2 21.0613 15.7719 3.83189 21.0613 15.7719 3.83189
240 2 21.0244 15.9356 0.594289 21.0244 15.9356 0.594289
241 1 21.8435 14.1118 2.11831 21.8435 14.1118 2.11831
242 2 24.0136 13.7815 3.38129 24.0136 13.7815 3.38129
243 2 23.5297 14.4513 0.244836 23.5297 14.4513 0.244836
244 1 24.9211 15.7367 1.97506 24.9211 15.7367 1.97506
245 2 27.1317 15.3648 3.15114 27.1317 15.3648 3.15114
246 2 26.5423 16.1425 0.0572748 26.5423 16.1425 0.0572748
247 1 27.5639 14.0793 1.04061 27.5639 14.0793 1.04061
248 2 29.8703 13.6169 1.95895 29.8703 13.6169 1.95895
249 2 28.984 14.6865 -0.975478 28.984 14.6865 -0.975478
250 1 30.5994 15.7444 0.715495 30.5994 15.7444 0.715495
251 2 32.9158 15.2856 1.60471 32.9158 15.2856 1.60471
252 2 31.9891 16.3681 -1.31272 31.9891 16.3681 -1.31272
253 1 33.1083 14.2306 -0.667088 33.1083 14.2306 -0.667088
254 2 35.389 13.8656 0.345249 35.389 13.8656 0.345249
255 2 34.5672 14.7269 -2.67444 34.5672 14.7269 -2.67444
256 1 36.1382 15.905 -1.01707 36.1382 15.905 -1.01707
257 2 38.3964 15.5746 0.0611291 38.3964 15.5746 0.0611291
258 2 37.6475 16.3375 -3.00298 37.6475 16.3375 -3.00298
259 1 38.7571 14.29 -2.0783 38.7571 14.29 -2.0783
260 2 40.8721 14.1457 -0.692375 40.8721 14.1457 -0.692375
261 2 40.5111 14.428 -3.90274 40.5111 14.428 -3.90274
262 1 41.8289 15.9213 -2.27505 41.8289 15.9213 -2.27505
263 2 43.8956 15.8367 -0.809577 43.8956 15.8367 -0.809577
264 2 43.6482 15.9822 -4.03934 43.6482 15.9822 -4.03934
265 1 44.5738 14.1702 -2.57017 44.5738 14.1702 -2.57017
266 2 46.4129 14.352 -0.826098 46.4129 14.352 -0.826098
267 2 46.6289 13.9571 -4.03725 46.6289 13.9571 -4.03725
268 1 47.6605 15.7852 -2.54842 47.6605 15.7852 -2.54842
269 2 49.4362 16.0373 -0.746797 49.4362 16.0373 -0.746797
270 2 49.7667 15.5157 -3.93029 49.7667 15.5157 -3.93029
271 1 50.7449 17.403 -2.47932 -0.546727 17.403 -2.47932
272 2 52.4569 17.7245 -0.626567 1.16522 17.7245 -0.626567
273 2 52.8973 17.0835 -3.77519 1.60568 17.0835 -3.77519
274 1 53.8251 19.0256 -2.36364 2.53346 19.0256 -2.36364
275 2 4.18136 19.4129 -0.465423 4.18136 19.4129 -0.465423
276 2 4.72764 18.6643 -3.57398 4.72764 18.6643 -3.57398
277 1 5.1897 17.3579 -1.48207 5.1897 17.3579 -1.48207
278 2 6.63068 17.9591 0.521712 6.63068 17.9591 0.521712
279 2 7.48784 16.8936 -2.42242 7.48784 16.8936 -2.42242
280 1 8.23035 19.0203 -1.18298 8.23035 19.0203 -1.18298
281 2 9.63602 19.6468 0.834833 9.63602 19.6468 0.834833
282 2 10.5416 18.5539 -2.08493 10.5416 18.5539 -2.08493
283 1 10.745 17.5046 0.187226 10.745 17.5046 0.187226
284 2 12.1819 18.0412 2.19965 12.1819 18.0412 2.19965
285 2 13.0356 17.118 -0.792797 13.0356 17.118 -0.792797
286 1 13.7718 19.1854 0.535717 13.7718 19.1854 0.535717
287 2 15.2543 19.664 2.53057 15.2543 19.664 2.53057
288 2 16.0426 18.8294 -0.504797 16.0426 18.8294 -0.504797
289 1 16.3726 17.5938 1.66877 16.3726 17.5938 1.66877
290 2 18.0919 17.7859 3.52111 18.0919 17.7859 3.52111
291 2 18.5119 17.41 0.327637 18.5119 17.41 0.327637
292 1 19.4409 19.2319 1.87533 19.4409 19.2319 1.87533
293 2 21.2275 19.348 3.67016 21.2275 19.348 3.67016
294 2 21.5327 19.1026 0.45148 21.5327 19.1026 0.45148
295 1 22.1788 17.4906 2.27563 22.1788 17.4906 2.27563
296 2 24.2082 17.3234 3.78536 24.2082 17.3234 3.78536
297 2 24.0489 17.6205 0.560787 24.0489 17.6205 0.560787
298 1 25.2672 19.1057 2.26011 25.2672 19.1057 2.26011
299 2 27.3514 18.8777 3.68377 27.3514 18.8777 3.68377
300 2 27.0726 19.3063 0.481818 27.0726 19.3063 0.481818
301 1 27.992 17.3676 1.78363 27.992 17.3676 1.78363
302 2 30.2366 16.9612 2.87825 30.2366 16.9612 2.87825
303 2 29.5519 17.8354 -0.170661 29.5519 17.8354 -0.170661
304 1 31.0547 19.0061 1.54835 31.0547 19.0061 1.54835
305 2 33.3278 18.573 2.5681 33.3278 18.573 2.5681
306 2 32.5571 19.53 -0.435945 32.5571 19.53 -0.435945
307 1 33.6265 17.4179 0.36272 33.6265 17.4179 0.36272
308 2 35.9446 16.9757 1.25089 35.9446 16.9757 1.25089
309 2 35.0052 18.0349 -1.6711 35.0052 18.0349 -1.6711
310 1 36.6481 19.0981 -0.00865278 36.6481 19.0981 -0.00865278
311 2 38.9599 18.6803 0.904571 38.9599 18.6803 0.904571
312 2 38.0372 19.687 -2.04105 38.0372 19.687 -2.04105
313 1 39.1767 17.5714 -1.34594 39.1767 17.5714 -1.34594
314 2 41.407 17.2818 -0.194793 41.407 17.2818 -0.194793
315 2 40.7429 17.9329 -3.30316 40.7429 17.9329 -3.30316
316 1 42.2242 19.2293 -1.64914 42.2242 19.2293 -1.64914
317 2 44.4202 18.9846 -0.419164 44.4202 18.9846 -0.419164
318 2 43.853 19.5163 -3.56845 43.853 19.5163 -3.56845
319 1 44.9076 17.546 -2.43078 44.9076 17.546 -2.43078
320 2 46.9208 17.5241 -0.887426 46.9208 17.5241 -0.887426
321 2 46.7917 17.5328 -4.12703 46.7917 17.5328 -4.12703
322 1 47.9915 19.1657 -2.54097 47.9915 19.1657 -2.54097
323 2 49.9472 19.2098 -0.923204 49.9472 19.2098 -0.923204
324 2 49.9382 19.0818 -4.16271 49.9382 19.0818 -4.16271
325 1 51.0786 20.7826 -2.60362 -0.213068 20.7826 -2.60362
326 2 52.9731 20.8939 -0.915396 1.68149 20.8939 -0.915396
327 2 53.0854 20.6329 -4.14498 1.7938 20.6329 -4.14498
328 1 54.1669 22.3985 -2.61553 2.87527 22.3985 -2.61553
329 2 4.70588 22.5786 -0.861914 4.70588 22.5786 -0.861914
330 2 4.93859 22.1881 -4.07218 4.93859 22.1881 -4.07218
331 1 5.60732 20.6549 -2.20006 5.60732 20.6549 -2.20006
332 2 7.19408 21.1047 -0.26385 7.19408 21.1047 -0.26385
333 2 7.83712 20.2581 -3.32912 7.83712 20.2581 -3.32912
334 1 8.67337 22.292 -1.99253 8.67337 22.292 -1.99253
335 2 10.2029 22.7991 -0.0251085 10.2029 22.7991 -0.0251085
336 2 10.933 21.8666 -3.04631 10.933 21.8666 -3.04631
337 1 11.2623 20.6917 -0.8551 11.2623 20.6917 -0.8551
338 2 12.6468 21.3247 1.17155 12.6468 21.3247 1.17155
339 2 13.5796 20.2348 -1.74081 13.5796 20.2348 -1.74081
340 1 14.2868 22.3714 -0.504604 14.2868 22.3714 -0.504604
341 2 15.6726 22.9901 1.52228 15.6726 22.9901 1.52228
342 2 16.6007 21.9313 -1.403 16.6007 21.9313 -1.403
343 1 16.806 20.8592 0.865287 16.806 20.8592 0.865287
344 2 18.3448 21.2728 2.83327 18.3448 21.2728 2.83327
345 2 19.0501 20.5368 -0.247024 19.0501 20.5368 -0.247024
346 1 19.8499 22.5231 1.165 19.8499 22.5231 1.165
347 2 21.4484 22.8658 3.09977 21.4484 22.8658 3.09977
348 2 22.0622 22.2413 -0.0238437 22.0622 22.2413 -0.0238437
349 1 22.5171 20.8615 2.03707 22.5171 20.8615 2.03707
350 2 24.3704 20.902 3.76683 24.3704 20.902 3.76683
351 2 24.5566 20.7921 0.531867 24.5566 20.7921 0.531867
352 1 25.5993 22.4841 2.15209 25.5993 22.4841 2.15209
353 2 27.517 22.4507 3.81032 27.517 22.4507 3.81032
354 2 27.5826 22.4794 0.568998 27.5826 22.4794 0.568998
355 1 28.354 20.7216 2.19432 28.354 20.7216 2.19432
356 2 30.4883 20.4385 3.5298 30.4883 20.4385 3.5298
357 2 30.0934 20.9932 0.35905 30.0934 20.9932 0.35905
358 1 31.4368 22.3405 2.07894 31.4368 22.3405 2.07894
359 2 33.6157 22.0084 3.32612 33.6157 22.0084 3.32612
360 2 33.1101 22.6825 0.193758 33.1101 22.6825 0.193758
361 1 34.1075 20.6534 1.27246 34.1075 20.6534 1.27246
362 2 36.4024 20.2025 2.22939 36.4024 20.2025 2.22939
363 2 35.5595 21.2246 -0.734263 35.5595 21.2246 -0.734263
364 1 37.1501 22.3103 0.961935 37.1501 22.3103 0.961935
365 2 39.4599 21.8525 1.87347 39.4599 21.8525 1.87347
366 2 38.5618 22.915 -1.06015 38.5618 22.915 -1.06015
367 1 39.6684 20.781 -0.386099 39.6684 20.781 -0.386099
368 2 41.9672 20.3913 0.572295 41.9672 20.3913 0.572295
369 2 41.087 21.3257 -2.4095 41.087 21.3257 -2.4095
370 1 42.6922 22.4622 -0.756203 42.6922 22.4622 -0.756203
371 2 44.9709 22.1012 0.263494 44.9709 22.1012 0.263494
372 2 44.1569 22.9519 -2.76119 44.1569 22.9519 -2.76119
373 1 45.2811 20.8781 -1.91908 45.2811 20.8781 -1.91908
374 2 47.4365 20.6826 -0.606843 47.4365 20.6826 -0.606843
375 2 46.976 21.089 -3.79136 46.976 21.089 -3.79136
376 1 48.3468 22.5182 -2.14929 48.3468 22.5182 -2.14929
377 2 50.4566 22.3758 -0.754456 50.4566 22.3758 -0.754456
378 2 50.109 22.6536 -3.96642 50.109 22.6536 -3.96642
379 1 51.4205 24.1506 -2.33531 0.128858 24.1506 -2.33531
380 2 53.4793 24.0653 -0.858549 2.18771 24.0653 -0.858549
381 2 53.25 24.2119 -4.08933 1.95838 24.2119 -4.08933
382 1 54.5005 25.7765 -2.47329 3.20887 25.7765 -2.47329
383 2 5.2129 25.753 -0.917738 5.2129 25.753 -0.917738
384 2 5.10351 25.7652 -4.15791 5.10351 25.7652 -4.15791
385 1 5.96244 24.0154 -2.57581 5.96244 24.0154 -2.57581
386 2 7.72887 24.2652 -0.764457 7.72887 24.2652 -0.764457
387 2 8.07632 23.7496 -3.94702 8.07632 23.7496 -3.94702
388 1 9.04616 25.6352 -2.48768 9.04616 25.6352 -2.48768
389 2 10.7489 25.9548 -0.626058 10.7489 25.9548 -0.626058
390 2 11.2051 25.3189 -3.77352 11.2051 25.3189 -3.77352
391 1 11.7303 23.9379 -1.74492 11.7303 23.9379 -1.74492
392 2 13.2092 24.4969 0.245771 13.2092 24.4969 0.245771
393 2 14.0133 23.4891 -2.73291 14.0133 23.4891 -2.73291
394 1 14.7781 25.5922 -1.4653 14.7781 25.5922 -1.4653
395 2 16.2152 26.1918 0.541553 16.2152 26.1918 0.541553
396 2 17.0778 25.1296 -2.40227 17.0778 25.1296 -2.40227
397 1 17.3087 24.0547 -0.147161 17.3087 24.0547 -0.147161
398 2 18.7148 24.6383 1.87409 18.7148 24.6383 1.87409
399 2 19.6125 23.6395 -1.08142 19.6125 23.6395 -1.08142
400 1 20.3318 25.738 0.207568 20.3318 25.738 0.207568
401 2 21.775 26.2718 2.2161 21.775 26.2718 2.2161
402 2 22.619 25.3512 -0.779988 22.619 25.3512 -0.779988
403 1 22.9028 24.1774 1.43304 22.9028 24.1774 1.43304
404 2 24.5647 24.444 3.32699 24.5647 24.444 3.32699
405 2 25.0782 23.9433 0.163737 25.0782 23.9433 0.163737
406 1 25.9644 25.8225 1.66686 25.9644 25.8225 1.66686
407 2 27.6927 26.0103 3.51102 27.6927 26.0103 3.51102
408 2 28.0968 25.6414 0.314412 28.0968 25.6414 0.314412
409 1 28.6856 24.1018 2.22002 28.6856 24.1018 2.22002
410 2 30.6651 23.9967 3.80028 30.6651 23.9967 3.80028
411 2 30.6085 24.1661 0.562967 30.6085 24.1661 0.562967
412 1 31.7735 25.7166 2.2401 31.7735 25.7166 2.2401
413 2 33.8121 25.5443 3.73628 33.8121 25.5443 3.73628
414 2 33.6325 25.8523 0.51342 33.6325 25.8523 0.51342
415 1 34.5133 23.9645 1.91598 34.5133 23.9645 1.91598
416 2 36.7311 23.5914 3.07733 36.7311 23.5914 3.07733
417 2 36.1218 24.3739 -0.0118749 36.1218 24.3739 -0.0118749
418 1 37.5814 25.5959 1.70744 37.5814 25.5959 1.70744
419 2 39.8308 25.1878 2.79015 39.8308 25.1878 2.79015
420 2 39.1305 26.069 -0.253722 39.1305 26.069 -0.253722
421 1 40.1828 23.977 0.622774 40.1828 23.977 0.622774
422 2 42.4991 23.5222 1.51335 42.4991 23.5222 1.51335
423 2 41.5712 24.5977 -1.40646 41.5712 24.5977 -1.40646
424 1 43.2084 25.6517 0.266546 43.2084 25.6517 0.266546
425 2 45.5231 25.2101 1.16286 45.5231 25.2101 1.16286
426 2 44.5931 26.267 -1.76303 44.5931 26.267 -1.76303
427 1 45.7237 24.1368 -1.10355 45.7237 24.1368 -1.10355
428 2 47.9773 23.8082 -0.0145584 47.9773 23.8082 -0.0145584
429 2 47.2424 24.5647 -3.08341 47.2424 24.5647 -3.08341
430 1 48.764 25.8033 -1.42168 48.764 25.8033 -1.42168
431 2 50.9874 25.5119 -0.257546 50.9874 25.5119 -0.257546
432 2 50.3421 26.1642 -3.3694 50.3421 26.1642 -3.3694
433 1 51.8135 27.4611 -1.70577 0.521894 27.4611 -1.70577
434 2 54.0013 27.2125 -0.462276 2.70963 27.2125 -0.462276
435 2 53.4548 27.7506 -3.61396 2.16313 27.7506 -3.61396
436 1 54.8718 29.1102 -1.95227 3.5802 29.1102 -1.95227
437 2 5.72753 28.9102 -0.627907 5.72753 28.9102 -0.627907
438 2 5.28603 29.3255 -3.81389 5.28603 29.3255 -3.81389
439 1 6.29307 27.3977 -2.56281 6.29307 27.3977 -2.56281
440 2 8.2393 27.4393 -0.933454 8.2393 27.4393 -0.933454
441 2 8.24927 27.3167 -4.17318 8.24927 27.3167 -4.17318
442 1 9.37936 29.016 -2.60467 9.37936 29.016 -2.60467
443 2 11.2652 29.1244 -0.906833 11.2652 29.1244 -0.906833
444 2 11.3935 28.87 -4.13651 11.3935 28.87 -4.13651
445 1 12.1246 27.2595 -2.35464 12.1246 27.2595 -2.35464
446 2 13.7658 27.646 -0.450469 13.7658 27.646 -0.450469
447 2 14.3227 26.8996 -3.55783 14.3227 26.8996 -3.55783
448 1 15.1963 28.8897 -2.17973 15.1963 28.8897 -2.17973
449 2 16.7794 29.3385 -0.240554 16.7794 29.3385 -0.240554
450 2 17.4275 28.4939 -3.30553 17.4275 28.4939 -3.30553
451 1 17.8171 27.2551 -1.15951 17.8171 27.2551 -1.15951
452 2 19.2234 27.8798 0.857904 19.2234 27.8798 0.857904
453 2 20.1271 26.7894 -2.06355 20.1271 26.7894 -2.06355
454 1 20.8483 28.9259 -0.832379 20.8483 28.9259 -0.832379
455 2 22.2377 29.5551 1.19143 22.2377 29.5551 1.19143
456 2 23.1622 28.47 -1.72574 23.1622 28.47 -1.72574
457 1 23.3601 27.4167 0.548443 23.3601 27.4167 0.548443
458 2 24.8506 27.8906 2.53815 24.8506 27.8906 2.53815
459 2 25.626 27.0624 -0.502609 25.626 27.0624 -0.502609
460 1 26.3955 29.0882 0.869176 26.3955 29.0882 0.869176
461 2 27.9401 29.4932 2.83379 27.9401 29.4932 2.83379
462 2 28.6353 28.7729 -0.252872 28.6353 28.7729 -0.252872
463 1 29.0339 27.4584 1.86178 29.0339 27.4584 1.86178
464 2 30.8293 27.567 3.64786 30.8293 27.567 3.64786
465 2 31.1181 27.3357 0.426275 31.1181 27.3357 0.426275
466 1 32.1101 29.0866 2.01474 32.1101 29.0866 2.01474
467 2 33.9727 29.1162 3.73392 33.9727 29.1162 3.73392
468 2 34.1405 29.0273 0.496913 34.1405 29.0273 0.496913
469 1 34.8608 27.3307 2.21014 34.8608 27.3307 2.21014
470 2 36.9536 27.096 3.619 36.9536 27.096 3.619
471 2 36.6538 27.5397 0.420475 36.6538 27.5397 0.420475
472 1 37.945 28.9463 2.13166 37.945 28.9463 2.13166
473 2 40.0849 28.6548 3.45441 40.0849 28.6548 3.45441
474 2 39.6736 29.2292 0.288615 39.6736 29.2292 0.288615
475 1 40.6403 27.2355 1.46115 40.6403 27.2355 1.46115
476 2 42.9137 26.7989 2.47638 42.9137 26.7989 2.47638
477 2 42.1383 27.7666 -0.523459 42.1383 27.7666 -0.523459
478 1 43.6903 28.8836 1.18716 43.6903 28.8836 1.18716
479 2 45.9816 28.4258 2.14715 45.9816 28.4258 2.14715
480 2 45.1456 29.4635 -0.813306 45.1456 29.4635 -0.813306
481 1 46.2304 27.3318 -0.0958402 46.2304 27.3318 -0.0958402
482 2 48.5363 26.91 0.829391 48.5363 26.91 0.829391
483 2 47.6307 27.9223 -2.11954 47.6307 27.9223 -2.11954
484 1 49.2528 29.0134 -0.453157 49.2528 29.0134 -0.453157
485 2 51.5442 28.6162 0.518574 51.5442 28.6162 0.518574
486 2 50.6849 29.5634 -2.46513 50.6849 29.5634 -2.46513
487 1 52.2793 30.6929 -0.796051 0.987614 30.6929 -0.796051
488 2 54.5513 30.3247 0.234437 3.25964 30.3247 0.234437
489 2 53.7547 31.1901 -2.79068 2.46308 31.1901 -2.79068
490 1 55.312 32.3673 -1.11818 4.02032 32.3673 -1.11818
491 2 6.26787 32.0321 -0.0200404 6.26787 32.0321 -0.0200404
492 2 5.54791 32.8036 -3.08874 5.54791 32.8036 -3.08874
493 1 6.64634 30.7511 -2.15937 6.64634 30.7511 -2.15937
494 2 8.74789 30.6032 -0.753412 8.74789 30.6032 -0.753412
495 2 8.4181 30.8924 -3.96632 8.4181 30.8924 -3.96632
496 1 9.71935 32.3842 -2.32248 9.71935 32.3842 -2.32248
497 2 11.7713 32.2931 -0.837467 11.7713 32.2931 -0.837467
498 2 11.5552 32.4524 -4.06883 11.5552 32.4524 -4.06883
499 1 12.4657 30.6332 -2.59833 12.4657 30.6332 -2.59833
500 2 14.2907 30.8097 -0.839209 14.2907 30.8097 -0.839209
501 2 14.5324 30.4271 -4.05003 14.5324 30.4271 -4.05003
502 1 15.5501 32.2512 -2.54646 15.5501 32.2512 -2.54646
503 2 17.3144 32.4965 -0.733222 17.3144 32.4965 -0.733222
504 2 17.6641 31.99 -3.91732 17.6641 31.99 -3.91732
505 1 18.2602 30.5273 -1.96657 18.2602 30.5273 -1.96657
506 2 19.79 31.0322 0.00071758 19.79 31.0322 0.00071758
507 2 20.5186 30.1029 -3.02215 20.5186 30.1029 -3.02215
508 1 21.3155 32.1729 -1.71908 21.3155 32.1729 -1.71908
509 2 22.7964 32.7265 0.271076 22.7964 32.7265 0.271076
510 2 23.5965 31.728 -2.71212 23.5965 31.728 -2.71212
511 1 23.873 30.604 -0.487514 23.873 30.604 -0.487514
512 2 25.2623 31.2147 1.5387 25.2623 31.2147 1.5387
513 2 26.1844 30.1699 -1.3939 26.1844 30.1699 -1.3939
514 1 26.8935 32.2873 -0.129799 26.8935 32.2873 -0.129799
515 2 28.3023 32.8599 1.89219 28.3023 32.8599 1.89219
516 2 29.195 31.8816 -1.07213 29.195 31.8816 -1.07213
517 1 29.4387 30.7516 1.1666 29.4387 30.7516 1.1666
518 2 31.0445 31.0813 3.0971 31.0445 31.0813 3.0971
519 2 31.6459 30.4805 -0.033933 31.6459 30.4805 -0.033933
520 1 32.4907 32.4055 1.434 32.4907 32.4055 1.434
521 2 34.1626 32.6563 3.32075 34.1626 32.6563 3.32075
522 2 34.6587 32.1839 0.150066 34.6587 32.1839 0.150066
523 1 35.1914 30.7082 2.12225 35.1914 30.7082 2.12225
524 2 37.1191 30.6613 3.76742 37.1191 30.6613 3.76742
525 2 37.1636 30.7162 0.525593 37.1636 30.7162 0.525593
526 1 38.2758 32.325 2.18275 38.2758 32.325 2.18275
527 2 40.2633 32.2064 3.75059 40.2633 32.2064 3.75059
528 2 40.1882 32.4031 0.514672 40.1882 32.4031 0.514672
529 1 41.0243 30.5654 2.0106 41.0243 30.5654 2.0106
530 2 43.2041 30.2239 3.25127 43.2041 30.2239 3.25127
531 2 42.6921 30.9203 0.124281 42.6921 30.9203 0.124281
532 1 44.0976 32.1898 1.85346 44.0976 32.1898 1.85346
533 2 46.3117 31.806 3.0163 46.3117 31.806 3.0163
534 2 45.7081 32.612 -0.0683049 45.7081 32.612 -0.0683049
535 1 46.7323 30.5399 0.892297 46.7323 30.5399 0.892297
536 2 49.0359 30.072 1.81232 49.0359 30.072 1.81232
537 2 48.1537 31.1547 -1.11875 48.1537 31.1547 -1.11875
538 1 49.7666 32.2046 0.57961 49.7666 32.2046 0.57961