ITEM: TIMESTEP
1598000
ITEM: NUMBER OF ATOMS
810
ITEM: BOX BOUNDS xy xz yz pp pp pp
8.6298438867990135e-01 6.0046874555313941e+01 7.8922539439947741e+00
8.1394622342039402e-01 5.0202268776579182e+01 0.0000000000000000e+00
-1.0000000000000000e+01 1.0000000000000000e+01 0.0000000000000000e+00
ITEM: ATOMS id type x y z xu yu zu
1 1 46.5753 1.14585 1.99118 -4.71635 1.14585 1.99118
2 2 48.3365 1.29526 3.81921 -2.9551 1.29526 3.81921
3 2 48.7057 0.979252 0.618416 -2.58595 0.979252 0.618416
4 1 49.7063 2.77292 2.18475 -1.5853 2.77292 2.18475
5 2 51.5398 2.83298 3.94626 0.248136 2.83298 3.94626
6 2 51.7839 2.6735 0.722463 0.492303 2.6735 0.722463
7 1 1.13489 0.989194 2.48629 1.13489 0.989194 2.48629
8 2 11.1204 50.1218 3.90529 3.22813 0.733514 3.90529
9 2 2.95762 1.19829 0.713148 2.95762 1.19829 0.713148
10 1 4.2809 2.59625 2.43568 4.2809 2.59625 2.43568
11 2 6.42479 2.27641 3.76059 6.42479 2.27641 3.76059
12 2 6.03609 2.88889 0.605061 6.03609 2.88889 0.605061
13 1 6.94973 0.853622 1.75586 6.94973 0.853622 1.75586
14 2 17.1367 49.7502 2.71208 9.24441 0.361873 2.71208
15 2 8.43748 1.44754 -0.23371 8.43748 1.44754 -0.23371
16 1 10.0576 2.49975 1.48593 10.0576 2.49975 1.48593
17 2 12.3727 1.98464 2.37213 12.3727 1.98464 2.37213
18 2 11.4929 3.15462 -0.521109 11.4929 3.15462 -0.521109
19 1 12.5285 0.964178 0.0831424 12.5285 0.964178 0.0831424
20 2 22.7591 49.8681 0.895817 14.8669 0.479816 0.895817
21 2 13.8705 1.66863 -1.95262 13.8705 1.66863 -1.95262
22 1 15.5971 2.65821 -0.294026 15.5971 2.65821 -0.294026
23 2 17.9239 2.19942 0.56564 17.9239 2.19942 0.56564
24 2 16.9674 3.3203 -2.3232 16.9674 3.3203 -2.3232
25 1 18.0698 1.15062 -1.72883 18.0698 1.15062 -1.72883
26 2 20.3 0.842292 -0.568005 20.3 0.842292 -0.568005
27 2 19.6648 1.51938 -3.67145 19.6648 1.51938 -3.67145
28 1 21.179 2.80501 -2.0023 21.179 2.80501 -2.0023
29 2 23.3729 2.54612 -0.757371 23.3729 2.54612 -0.757371
30 2 22.8393 3.09041 -3.90497 22.8393 3.09041 -3.90497
31 1 23.8419 1.08834 -2.76656 23.8419 1.08834 -2.76656
32 2 25.8307 1.09432 -1.1771 25.8307 1.09432 -1.1771
33 2 25.7791 1.02584 -4.41259 25.7791 1.02584 -4.41259
34 1 26.9866 2.70054 -2.83853 26.9866 2.70054 -2.83853
35 2 28.9164 2.77915 -1.1768 28.9164 2.77915 -1.1768
36 2 28.9843 2.56348 -4.40544 28.9843 2.56348 -4.40544
37 1 29.709 0.905344 -2.65924 29.709 0.905344 -2.65924
38 2 31.3688 1.30717 -0.760508 31.3688 1.30717 -0.760508
39 2 39.8078 49.9015 -3.85244 31.9155 0.51313 -3.85244
40 1 32.8428 2.5265 -2.49959 32.8428 2.5265 -2.49959
41 2 34.4358 3.00176 -0.560127 34.4358 3.00176 -0.560127
42 2 35.0876 2.09221 -3.60033 35.0876 2.09221 -3.60033
43 1 35.4243 0.871212 -1.4304 35.4243 0.871212 -1.4304
44 2 36.7957 1.57898 0.598075 36.7957 1.57898 0.598075
45 2 45.654 49.7352 -2.24214 37.7617 0.346843 -2.24214
46 1 38.5077 2.54346 -1.08579 38.5077 2.54346 -1.08579
47 2 39.8478 3.26824 0.952347 39.8478 3.26824 0.952347
48 2 40.853 2.02719 -1.87067 40.853 2.02719 -1.87067
49 1 40.9287 1.07129 0.456961 40.9287 1.07129 0.456961
50 2 42.3528 1.64316 2.47734 42.3528 1.64316 2.47734
51 2 51.1283 50.0492 -0.483234 43.236 0.66083 -0.483234
52 1 44.0085 2.75444 0.821503 44.0085 2.75444 0.821503
53 2 45.4911 3.24986 2.82159 45.4911 3.24986 2.82159
54 2 46.2924 2.38184 -0.196422 46.2924 2.38184 -0.196422
55 1 47.0986 4.42703 1.16272 -4.19308 4.42703 1.16272
56 2 48.6456 4.83968 3.13441 -2.64605 4.83968 3.13441
57 2 49.3535 4.09778 0.0609459 -1.93818 4.09778 0.0609459
58 1 50.1995 6.0879 1.47563 -1.09213 6.0879 1.47563
59 2 51.8152 6.41233 3.40994 0.523531 6.41233 3.40994
60 2 52.4192 5.80895 0.28534 1.1276 5.80895 0.28534
61 1 1.55306 4.39127 2.33332 1.55306 4.39127 2.33332
62 2 3.45512 4.36357 4.0212 3.45512 4.36357 4.0212
63 2 3.57416 4.36581 0.78666 3.57416 4.36581 0.78666
64 1 4.69626 6.00367 2.43859 4.69626 6.00367 2.43859
65 2 6.66417 5.89293 4.04529 6.66417 5.89293 4.04529
66 2 6.65666 6.05569 0.812779 6.65666 6.05569 0.812779
67 1 7.4228 4.20736 2.34114 7.4228 4.20736 2.34114
68 2 9.61224 3.83063 3.57066 9.61224 3.83063 3.57066
69 2 9.10986 4.58299 0.460958 9.10986 4.58299 0.460958
70 1 10.5588 5.82476 2.20396 10.5588 5.82476 2.20396
71 2 12.787 5.39968 3.34139 12.787 5.39968 3.34139
72 2 12.1802 6.27968 0.283369 12.1802 6.27968 0.283369
73 1 13.1555 4.15696 1.189 13.1555 4.15696 1.189
74 2 15.4855 3.62953 2.02071 15.4855 3.62953 2.02071
75 2 14.5463 4.8585 -0.829778 14.5463 4.8585 -0.829778
76 1 16.2435 5.82512 0.868036 16.2435 5.82512 0.868036
77 2 18.5825 5.29821 1.66686 18.5825 5.29821 1.66686
78 2 17.6016 6.55338 -1.15839 17.6016 6.55338 -1.15839
79 1 18.6695 4.35043 -0.662269 18.6695 4.35043 -0.662269
80 2 20.9804 3.91988 0.258102 20.9804 3.91988 0.258102
81 2 20.0823 4.95496 -2.68032 20.0823 4.95496 -2.68032
82 1 21.7488 6.03596 -1.01441 21.7488 6.03596 -1.01441
83 2 24.0404 5.63793 -0.0262317 24.0404 5.63793 -0.0262317
84 2 23.2117 6.57336 -3.01701 23.2117 6.57336 -3.01701
85 1 24.2971 4.44867 -2.24268 24.2971 4.44867 -2.24268
86 2 26.4501 4.24448 -0.913855 26.4501 4.24448 -0.913855
87 2 26.0235 4.65019 -4.09771 26.0235 4.65019 -4.09771
88 1 27.4233 6.08262 -2.44754 27.4233 6.08262 -2.44754
89 2 29.5305 5.93959 -1.03532 29.5305 5.93959 -1.03532
90 2 29.2161 6.19931 -4.24673 29.2161 6.19931 -4.24673
91 1 30.1332 4.31004 -2.86565 30.1332 4.31004 -2.86565
92 2 32 4.46459 -1.13589 32 4.46459 -1.13589
93 2 32.1889 4.10265 -4.34675 32.1889 4.10265 -4.34675
94 1 33.2799 5.91885 -2.84576 33.2799 5.91885 -2.84576
95 2 35.08 6.15202 -1.05265 35.08 6.15202 -1.05265
96 2 35.3905 5.64585 -4.23491 35.3905 5.64585 -4.23491
97 1 35.9683 4.15594 -2.29362 35.9683 4.15594 -2.29362
98 2 37.4967 4.69998 -0.320248 37.4967 4.69998 -0.320248
99 2 38.2457 3.68766 -3.30619 38.2457 3.68766 -3.30619
100 1 39.0839 5.79517 -2.0433 39.0839 5.79517 -2.0433
101 2 40.5517 6.40229 -0.0430563 40.5517 6.40229 -0.0430563
102 2 41.3881 5.30082 -2.97495 41.3881 5.30082 -2.97495
103 1 41.5812 4.22668 -0.713707 41.5812 4.22668 -0.713707
104 2 42.91 4.94268 1.32971 42.91 4.94268 1.32971
105 2 43.9271 3.73113 -1.50193 43.9271 3.73113 -1.50193
106 1 44.6484 5.91836 -0.322372 44.6484 5.91836 -0.322372
107 2 45.9896 6.60066 1.72085 45.9896 6.60066 1.72085
108 2 46.9875 5.45085 -1.14298 46.9875 5.45085 -1.14298
109 1 47.7146 7.61309 0.0752596 -3.57703 7.61309 0.0752596
110 2 49.0908 8.24272 2.11097 -2.2008 8.24272 2.11097
111 2 50.0402 7.17527 -0.800275 -1.25143 7.17527 -0.800275
112 1 50.7861 9.30386 0.463698 -0.505506 9.30386 0.463698
113 2 52.2105 9.86781 2.48626 0.9189 9.86781 2.48626
114 2 53.0938 8.89867 -0.478807 1.80214 8.89867 -0.478807
115 1 2.01928 7.73702 1.75622 2.01928 7.73702 1.75622
116 2 3.70492 7.9714 3.64451 3.70492 7.9714 3.64451
117 2 4.1987 7.51456 0.476864 4.1987 7.51456 0.476864
118 1 5.14041 9.3753 2.00183 5.14041 9.3753 2.00183
119 2 6.89731 9.51906 3.83448 6.89731 9.51906 3.83448
120 2 7.27423 9.21494 0.633414 7.27423 9.21494 0.633414
121 1 7.84253 7.61235 2.49864 7.84253 7.61235 2.49864
122 2 9.8717 7.4236 4.01865 9.8717 7.4236 4.01865
123 2 9.7397 7.74507 0.80062 9.7397 7.74507 0.80062
124 1 10.9899 9.21977 2.51409 10.9899 9.21977 2.51409
125 2 13.0769 8.96158 3.94174 13.0769 8.96158 3.94174
126 2 12.8204 9.43266 0.74948 12.8204 9.43266 0.74948
127 1 13.6876 7.45005 2.02746 13.6876 7.45005 2.02746
128 2 15.9498 6.98638 3.07596 15.9498 6.98638 3.07596
129 2 15.2451 7.9781 0.0727096 15.2451 7.9781 0.0727096
130 1 16.8079 9.0851 1.81071 16.8079 9.0851 1.81071
131 2 19.0981 8.59202 2.77766 19.0981 8.59202 2.77766
132 2 18.3054 9.6785 -0.171379 18.3054 9.6785 -0.171379
133 1 19.323 7.5035 0.525578 19.323 7.5035 0.525578
134 2 21.6655 6.99118 1.3162 21.6655 6.99118 1.3162
135 2 20.6628 8.2336 -1.50705 20.6628 8.2336 -1.50705
136 1 22.3952 9.19127 0.162612 22.3952 9.19127 0.162612
137 2 24.7349 8.7028 0.971684 24.7349 8.7028 0.971684
138 2 23.7364 9.89919 -1.87273 23.7364 9.89919 -1.87273
139 1 24.8362 7.7129 -1.34772 24.8362 7.7129 -1.34772
140 2 27.1041 7.35367 -0.285522 27.1041 7.35367 -0.285522
141 2 26.3547 8.17524 -3.32917 26.3547 8.17524 -3.32917
142 1 27.9322 9.38043 -1.66011 27.9322 9.38043 -1.66011
143 2 30.1704 9.06534 -0.517806 30.1704 9.06534 -0.517806
144 2 29.512 9.76229 -3.61215 29.512 9.76229 -3.61215
145 1 30.5565 7.70823 -2.61505 30.5565 7.70823 -2.61505
146 2 32.6119 7.63146 -1.11939 32.6119 7.63146 -1.11939
147 2 32.4169 7.74042 -4.34838 32.4169 7.74042 -4.34838
148 1 33.696 9.32624 -2.74025 33.696 9.32624 -2.74025
149 2 35.6941 9.32084 -1.16299 35.6941 9.32084 -1.16299
150 2 35.6236 9.2759 -4.39834 35.6236 9.2759 -4.39834
151 1 36.4246 7.52905 -2.77688 36.4246 7.52905 -2.77688
152 2 38.1558 7.84238 -0.926687 38.1558 7.84238 -0.926687
153 2 38.5858 7.19625 -4.07015 38.5858 7.19625 -4.07015
154 1 39.5652 9.14305 -2.65879 39.5652 9.14305 -2.65879
155 2 41.2272 9.537 -0.759504 41.2272 9.537 -0.759504
156 2 41.7711 8.75661 -3.85538 41.7711 8.75661 -3.85538
157 1 42.1885 7.44541 -1.75264 42.1885 7.44541 -1.75264
158 2 43.6026 8.10733 0.266509 43.6026 8.10733 0.266509
159 2 44.5127 6.93254 -2.61562 44.5127 6.93254 -2.61562
160 1 45.2821 9.10649 -1.42861 45.2821 9.10649 -1.42861
161 2 46.6504 9.80804 0.60445 46.6504 9.80804 0.60445
162 2 47.621 8.58788 -2.23951 47.621 8.58788 -2.23951
163 1 48.3643 10.7795 -1.07309 -2.9273 10.7795 -1.07309
164 2 49.7046 11.4985 0.966999 -1.58707 11.4985 0.966999
165 2 50.7096 10.2673 -1.86054 -0.582038 10.2673 -1.86054
166 1 51.4384 12.4622 -0.695698 0.146721 12.4622 -0.695698
167 2 52.7675 13.1736 1.34912 1.47591 13.1736 1.34912
168 2 2.49277 11.969 -1.48559 2.49277 11.969 -1.48559
169 1 2.57434 10.9867 0.835217 2.57434 10.9867 0.835217
170 2 4.05559 11.4767 2.83785 4.05559 11.4767 2.83785
171 2 4.8594 10.6177 -0.182111 4.8594 10.6177 -0.182111
172 1 5.66436 12.6591 1.18386 5.66436 12.6591 1.18386
173 2 7.20623 13.0679 3.16058 7.20623 13.0679 3.16058
174 2 7.92264 12.3342 0.0872459 7.92264 12.3342 0.0872459
175 1 8.27051 11.0038 2.20859 8.27051 11.0038 2.20859
176 2 10.0983 11.0597 3.97632 10.0983 11.0597 3.97632
177 2 10.3534 10.9095 0.753095 10.3534 10.9095 0.753095
178 1 11.4083 12.6242 2.37218 11.4083 12.6242 2.37218
179 2 13.3056 12.5945 4.06592 13.3056 12.5945 4.06592
180 2 13.435 12.6011 0.832111 13.435 12.6011 0.832111
181 1 14.1363 10.8285 2.48062 14.1363 10.8285 2.48062
182 2 16.2752 10.5081 3.81394 16.2752 10.5081 3.81394
183 2 15.8991 11.1219 0.657458 15.8991 11.1219 0.657458
184 1 17.2796 12.4408 2.39961 17.2796 12.4408 2.39961
185 2 19.4661 12.0671 3.6365 19.4661 12.0671 3.6365
186 2 18.9728 12.8126 0.524119 18.9728 12.8126 0.524119
187 1 19.9185 10.7307 1.55583 19.9185 10.7307 1.55583
188 2 22.2324 10.2177 2.44896 22.2324 10.2177 2.44896
189 2 21.3594 11.3807 -0.44873 21.3594 11.3807 -0.44873
190 1 23.0182 12.388 1.26301 23.0182 12.388 1.26301
191 2 25.3486 11.8633 2.0986 25.3486 11.8633 2.0986
192 2 24.4119 13.0834 -0.756214 24.4119 13.0834 -0.756214
193 1 25.464 10.8847 -0.212855 25.464 10.8847 -0.212855
194 2 27.7941 10.4223 0.637484 27.7941 10.4223 0.637484
195 2 26.8281 11.5519 -2.24477 26.8281 11.5519 -2.24477
196 1 28.5351 12.5772 -0.586514 28.5351 12.5772 -0.586514
197 2 30.8511 12.1437 0.31944 30.8511 12.1437 0.31944
198 2 29.9366 13.1892 -2.61024 29.9366 13.1892 -2.61024
199 1 31.0378 11.0373 -1.94606 31.0378 11.0373 -1.94606
200 2 33.24 10.7716 -0.718568 33.24 10.7716 -0.718568
201 2 32.6842 11.3347 -3.85898 32.6842 11.3347 -3.85898
202 1 34.1535 12.6825 -2.19917 34.1535 12.6825 -2.19917
203 2 36.3144 12.4736 -0.884689 36.3144 12.4736 -0.884689
204 2 35.8684 12.8922 -4.06416 35.8684 12.8922 -4.06416
205 1 36.8406 10.9382 -2.81929 36.8406 10.9382 -2.81929
206 2 38.7771 11.0095 -1.16482 38.7771 11.0095 -1.16482
207 2 38.8327 10.8083 -4.39452 38.8327 10.8083 -4.39452
208 1 39.9882 12.5465 -2.85125 39.9882 12.5465 -2.85125
209 2 41.8596 12.6981 -1.12532 41.8596 12.6981 -1.12532
210 2 42.0411 12.3414 -4.33715 42.0411 12.3414 -4.33715
211 1 42.6997 10.7631 -2.49413 42.6997 10.7631 -2.49413
212 2 44.2924 11.2334 -0.552436 44.2924 11.2334 -0.552436
213 2 44.9453 10.3326 -3.59511 44.9453 10.3326 -3.59511
214 1 45.8258 12.3916 -2.2818 45.8258 12.3916 -2.2818
215 2 47.3529 12.9347 -0.306412 47.3529 12.9347 -0.306412
216 2 48.1042 11.9245 -3.29268 48.1042 11.9245 -3.29268
217 1 48.9422 14.03 -2.02712 -2.34943 14.03 -2.02712
218 2 50.4084 14.6375 -0.0256493 -0.883203 14.6375 -0.0256493
219 2 51.2472 13.5359 -2.95696 -0.0444759 13.5359 -2.95696
220 1 52.0477 15.6795 -1.73354 0.756109 15.6795 -1.73354
221 2 53.4603 16.3425 0.286345 2.1687 16.3425 0.286345
222 2 3.08117 15.1659 -2.59428 3.08117 15.1659 -2.59428
223 1 3.21482 14.153 -0.30041 3.21482 14.153 -0.30041
224 2 4.55455 14.8315 1.74533 4.55455 14.8315 1.74533
225 2 5.55532 13.6875 -1.11972 5.55532 13.6875 -1.11972
226 1 6.28127 15.8476 0.103517 6.28127 15.8476 0.103517
227 2 7.65194 16.4751 2.14408 7.65194 16.4751 2.14408
228 2 8.6104 15.4124 -0.765652 8.6104 15.4124 -0.765652
229 1 8.76423 14.3217 1.50907 8.76423 14.3217 1.50907
230 2 10.374 14.6432 3.44923 10.374 14.6432 3.44923
231 2 10.9888 14.0464 0.325817 10.9888 14.0464 0.325817
232 1 11.875 15.9731 1.80296 11.875 15.9731 1.80296
233 2 13.5578 16.206 3.69486 13.5578 16.206 3.69486
234 2 14.0584 15.7515 0.528467 14.0584 15.7515 0.528467
235 1 14.552 14.2383 2.48963 14.552 14.2383 2.48963
236 2 16.5168 14.1286 4.10089 16.5168 14.1286 4.10089
237 2 16.517 14.2892 0.868655 16.517 14.2892 0.868655
238 1 17.6997 15.8483 2.5561 17.6997 15.8483 2.5561
239 2 19.729 15.6645 4.07777 19.729 15.6645 4.07777
240 2 19.5986 15.9758 0.859055 19.5986 15.9758 0.859055
241 1 20.4176 14.0591 2.26847 20.4176 14.0591 2.26847
242 2 22.6457 13.6396 3.41011 22.6457 13.6396 3.41011
243 2 22.0418 14.5071 0.348298 22.0418 14.5071 0.348298
244 1 23.5483 15.6853 2.08903 23.5483 15.6853 2.08903
245 2 25.8107 15.2282 3.14199 25.8107 15.2282 3.14199
246 2 25.1079 16.2048 0.133512 25.1079 16.2048 0.133512
247 1 26.1078 14.0559 0.940089 26.1078 14.0559 0.940089
248 2 28.4483 13.5312 1.73953 28.4483 13.5312 1.73953
249 2 27.4664 14.7786 -1.08867 27.4664 14.7786 -1.08867
250 1 29.1885 15.7339 0.592031 29.1885 15.7339 0.592031
251 2 31.5326 15.2206 1.37951 31.5326 15.2206 1.37951
252 2 30.5269 16.4622 -1.44306 30.5269 16.4622 -1.44306
253 1 31.612 14.2644 -0.950101 31.612 14.2644 -0.950101
254 2 33.9095 13.8648 0.0226708 33.9095 13.8648 0.0226708
255 2 33.0619 14.8085 -2.9603 33.0619 14.8085 -2.9603
256 1 34.6969 15.9431 -1.29842 34.6969 15.9431 -1.29842
257 2 36.971 15.5832 -0.250505 36.971 15.5832 -0.250505
258 2 36.2034 16.4101 -3.28819 36.2034 16.4101 -3.28819
259 1 37.2787 14.317 -2.4171 37.2787 14.317 -2.4171
260 2 39.3931 14.1725 -1.01546 39.3931 14.1725 -1.01546
261 2 39.0632 14.4368 -4.22484 39.0632 14.4368 -4.22484
262 1 40.4125 15.942 -2.59763 40.4125 15.942 -2.59763
263 2 42.4735 15.8669 -1.10852 42.4735 15.8669 -1.10852
264 2 42.2683 15.9729 -4.33682 42.2683 15.9729 -4.33682
265 1 43.1368 14.1536 -2.83533 43.1368 14.1536 -2.83533
266 2 44.9383 14.3879 -1.04228 44.9383 14.3879 -1.04228
267 2 45.2478 13.879 -4.22421 45.2478 13.879 -4.22421
268 1 46.2837 15.762 -2.76758 46.2837 15.762 -2.76758
269 2 48.0142 16.0795 -0.916223 48.0142 16.0795 -0.916223
270 2 48.4464 15.4255 -4.05781 48.4464 15.4255 -4.05781
271 1 49.4264 17.3744 -2.65015 -1.86527 17.3744 -2.65015
272 2 51.0862 17.7747 -0.749405 -0.20539 17.7747 -0.749405
273 2 51.6344 16.9826 -3.84165 0.34277 16.9826 -3.84165
274 1 52.5629 18.9929 -2.48611 1.27122 18.9929 -2.48611
275 2 54.1512 19.4702 -0.542053 2.85955 19.4702 -0.542053
276 2 3.51995 18.5573 -3.57949 3.51995 18.5573 -3.57949
277 1 3.85092 17.3397 -1.40733 3.85092 17.3397 -1.40733
278 2 5.21482 18.043 0.628198 5.21482 18.043 0.628198
279 2 6.19234 16.8206 -2.21231 6.19234 16.8206 -2.21231
280 1 6.93343 19.013 -1.04567 6.93343 19.013 -1.04567
281 2 8.26596 19.7354 0.998565 8.26596 19.7354 0.998565
282 2 9.28266 18.5005 -1.82292 9.28266 18.5005 -1.82292
283 1 9.35163 17.5402 0.50322 9.35163 17.5402 0.50322
284 2 10.7706 18.1035 2.53055 10.7706 18.1035 2.53055
285 2 11.6634 17.1368 -0.431894 11.6634 17.1368 -0.431894
286 1 12.4308 19.2254 0.88507 12.4308 19.2254 0.88507
287 2 13.9109 19.7159 2.88936 13.9109 19.7159 2.88936
288 2 14.7183 18.8551 -0.128487 14.7183 18.8551 -0.128487
289 1 14.997 17.6129 2.05618 14.997 17.6129 2.05618
290 2 16.7549 17.7586 3.88878 16.7549 17.7586 3.88878
291 2 17.1322 17.4492 0.68878 17.1322 17.4492 0.68878
292 1 18.1294 19.2416 2.26096 18.1294 19.2416 2.26096
293 2 19.9595 19.3011 4.02688 19.9595 19.3011 4.02688
294 2 20.2121 19.1429 0.804118 20.2121 19.1429 0.804118
295 1 20.8493 17.4567 2.5684 20.8493 17.4567 2.5684
296 2 22.937 17.2047 3.99723 22.937 17.2047 3.99723
297 2 22.6806 17.6631 0.803295 22.6806 17.6631 0.803295
298 1 23.998 19.0659 2.52895 23.998 19.0659 2.52895
299 2 26.1369 18.7508 3.86458 26.1369 18.7508 3.86458
300 2 25.7622 19.3535 0.705757 25.7622 19.3535 0.705757
301 1 26.6705 17.3207 1.86695 26.6705 17.3207 1.86695
302 2 28.9601 16.8319 2.83911 28.9601 16.8319 2.83911
303 2 28.1712 17.9064 -0.115202 28.1712 17.9064 -0.115202
304 1 29.7839 18.9652 1.60914 29.7839 18.9652 1.60914
305 2 32.0978 18.4551 2.50569 32.0978 18.4551 2.50569
306 2 31.227 19.6079 -0.396594 31.227 19.6079 -0.396594
307 1 32.2621 17.4201 0.22346 32.2621 17.4201 0.22346
308 2 34.6054 16.9303 1.02211 34.6054 16.9303 1.02211
309 2 33.5958 18.1298 -1.81707 33.5958 18.1298 -1.81707
310 1 35.3306 19.1129 -0.164054 35.3306 19.1129 -0.164054
311 2 37.6675 18.6548 0.670385 37.6675 18.6548 0.670385
312 2 36.68 19.7797 -2.20644 36.68 19.7797 -2.20644
313 1 37.7915 17.6113 -1.62709 37.7915 17.6113 -1.62709
314 2 40.0373 17.2994 -0.498624 40.0373 17.2994 -0.498624
315 2 39.3592 17.9936 -3.58928 39.3592 17.9936 -3.58928
316 1 40.896 19.2692 -1.93438 40.896 19.2692 -1.93438
317 2 43.105 19.0106 -0.716221 43.105 19.0106 -0.716221
318 2 42.5343 19.5607 -3.85611 42.5343 19.5607 -3.85611
319 1 43.554 17.5586 -2.73432 43.554 17.5586 -2.73432
320 2 45.5554 17.559 -1.15952 45.5554 17.559 -1.15952
321 2 45.4804 17.5021 -4.3945 45.4804 17.5021 -4.3945
322 1 46.7012 19.1687 -2.82317 46.7012 19.1687 -2.82317
323 2 48.6381 19.249 -1.16767 48.6381 19.249 -1.16767
324 2 48.6952 19.029 -4.39609 48.6952 19.029 -4.39609
325 1 49.8519 20.7749 -2.86218 -1.43977 20.7749 -2.86218
326 2 51.7203 20.937 -1.13241 0.428694 20.937 -1.13241
327 2 51.9092 20.5589 -4.34129 0.61759 20.5589 -4.34129
328 1 53.0034 22.3799 -2.8488 1.71179 22.3799 -2.8488
329 2 54.799 22.6257 -1.05006 3.50738 22.6257 -1.05006
330 2 55.1206 22.0943 -4.227 3.829 22.0943 -4.227
331 1 4.39884 20.6205 -2.27173 4.39884 20.6205 -2.27173
332 2 5.91894 21.1719 -0.292867 5.91894 21.1719 -0.292867
333 2 6.68147 20.148 -3.2715 6.68147 20.148 -3.2715
334 1 7.51617 22.2588 -2.01207 7.51617 22.2588 -2.01207
335 2 8.97399 22.8779 -0.00744405 8.97399 22.8779 -0.00744405
336 2 9.8256 21.7573 -2.92765 9.8256 21.7573 -2.92765
337 1 10.0063 20.6976 -0.658601 10.0063 20.6976 -0.658601
338 2 11.3289 21.414 1.3891 11.3289 21.414 1.3891
339 2 12.3557 20.2028 -1.43872 12.3557 20.2028 -1.43872
340 1 13.0739 22.3903 -0.256812 13.0739 22.3903 -0.256812
341 2 14.4106 23.0735 1.78962 14.4106 23.0735 1.78962
342 2 15.4164 21.9222 -1.07024 15.4164 21.9222 -1.07024
343 1 15.522 20.8987 1.23637 15.522 20.8987 1.23637
344 2 17.0673 21.3085 3.21104 17.0673 21.3085 3.21104
345 2 17.7804 20.57 0.138629 17.7804 20.57 0.138629
346 1 18.6249 22.5603 1.55623 18.6249 22.5603 1.55623
347 2 20.2394 22.8844 3.4927 20.2394 22.8844 3.4927
348 2 20.848 22.2803 0.369829 20.848 22.2803 0.369829
349 1 21.2699 20.8618 2.4181 21.2699 20.8618 2.4181
350 2 23.1693 20.8364 4.11021 23.1693 20.8364 4.11021
351 2 23.2959 20.8343 0.876393 23.2959 20.8343 0.876393
352 1 24.4163 22.4757 2.52871 24.4163 22.4757 2.52871
353 2 26.3817 22.3706 4.14027 26.3817 22.3706 4.14027
354 2 26.382 22.5223 0.907631 26.382 22.5223 0.907631
355 1 27.1438 20.6781 2.4437 27.1438 20.6781 2.4437
356 2 29.3294 20.3087 3.68454 29.3294 20.3087 3.68454
357 2 28.8398 21.044 0.569174 28.8398 21.044 0.569174
358 1 30.2848 22.2955 2.31056 30.2848 22.2955 2.31056
359 2 32.5137 21.8805 3.45396 32.5137 21.8805 3.45396
360 2 31.9101 22.7365 0.389038 31.9101 22.7365 0.389038
361 1 32.8864 20.6205 1.3117 32.8864 20.6205 1.3117
362 2 35.2199 20.1001 2.14368 35.2199 20.1001 2.14368
363 2 34.2762 21.3087 -0.713564 34.2762 21.3087 -0.713564
364 1 35.9768 22.288 0.974138 35.9768 22.288 0.974138
365 2 38.3235 21.769 1.76078 38.3235 21.769 1.76078
366 2 37.3233 23.0052 -1.06576 37.3233 23.0052 -1.06576
367 1 38.3984 20.8079 -0.562403 38.3984 20.8079 -0.562403
368 2 40.7223 20.3831 0.328318 40.7223 20.3831 0.328318
369 2 39.7847 21.4151 -2.59876 39.7847 21.4151 -2.59876
370 1 41.4719 22.4983 -0.956221 41.4719 22.4983 -0.956221
371 2 43.7763 22.1093 0.00656285 43.7763 22.1093 0.00656285
372 2 42.9115 23.0328 -2.97753 42.9115 23.0328 -2.97753
373 1 44.0122 20.9146 -2.20914 44.0122 20.9146 -2.20914
374 2 46.1774 20.7158 -0.897921 46.1774 20.7158 -0.897921
375 2 45.7245 21.113 -4.07895 45.7245 21.113 -4.07895
376 1 47.1396 22.5481 -2.4447 47.1396 22.5481 -2.4447
377 2 49.2543 22.4142 -1.03995 49.2543 22.4142 -1.03995
378 2 48.9275 22.654 -4.25133 48.9275 22.654 -4.25133
379 1 50.277 24.1708 -2.63458 -1.01463 24.1708 -2.63458
380 2 52.3348 24.1068 -1.13834 1.0432 24.1068 -1.13834
381 2 52.1398 24.1871 -4.36779 0.848125 24.1871 -4.36779
382 1 53.4225 25.7847 -2.77407 2.13084 25.7847 -2.77407
383 2 55.4177 25.7964 -1.1897 4.12604 25.7964 -1.1897
384 2 55.3582 25.714 -4.42423 4.06652 25.714 -4.42423
385 1 4.86141 23.9866 -2.77959 4.86141 23.9866 -2.77959
386 2 6.58415 24.3177 -0.922267 6.58415 24.3177 -0.922267
387 2 7.03085 23.6383 -4.05635 7.03085 23.6383 -4.05635
388 1 8.00646 25.5978 -2.65952 8.00646 25.5978 -2.65952
389 2 9.65677 26.0121 -0.752449 9.65677 26.0121 -0.752449
390 2 10.2217 25.1952 -3.83507 10.2217 25.1952 -3.83507
391 1 10.6224 23.9084 -1.7141 10.6224 23.9084 -1.7141
392 2 12.0255 24.5848 0.308548 12.0255 24.5848 0.308548
393 2 12.9521 23.3876 -2.5588 12.9521 23.3876 -2.5588
394 1 13.7174 25.5698 -1.38349 13.7174 25.5698 -1.38349
395 2 15.0758 26.288 0.650669 15.0758 26.288 0.650669
396 2 16.0607 25.041 -2.17625 16.0607 25.041 -2.17625
397 1 16.1412 24.0861 0.148186 16.1412 24.0861 0.148186
398 2 17.5157 24.7178 2.18541 17.5157 24.7178 2.18541
399 2 18.4696 23.6449 -0.721627 18.4696 23.6449 -0.721627
400 1 19.2153 25.7766 0.539138 19.2153 25.7766 0.539138
401 2 20.6382 26.3446 2.56283 20.6382 26.3446 2.56283
402 2 21.5261 25.3669 -0.397182 21.5261 25.3669 -0.397182
403 1 21.7392 24.2101 1.84099 21.7392 24.2101 1.84099
404 2 23.4251 24.4472 3.73005 23.4251 24.4472 3.73005
405 2 23.9216 23.984 0.564414 23.9216 23.984 0.564414
406 1 24.8642 25.8488 2.08618 24.8642 25.8488 2.08618
407 2 26.6221 25.9991 3.91869 26.6221 25.9991 3.91869
408 2 27.0003 25.6819 0.71964 27.0003 25.6819 0.71964
409 1 27.5667 24.0855 2.59089 27.5667 24.0855 2.59089
410 2 29.5958 23.9069 4.11425 29.5958 23.9069 4.11425
411 2 29.4672 24.2079 0.894587 29.4672 24.2079 0.894587
412 1 30.7187 25.6936 2.59973 30.7187 25.6936 2.59973
413 2 32.8078 25.446 4.02838 32.8078 25.446 4.02838
414 2 32.55 25.8949 0.833432 32.55 25.8949 0.833432
415 1 33.4183 23.9207 2.12465 33.4183 23.9207 2.12465
416 2 35.6846 23.4678 3.17275 35.6846 23.4678 3.17275
417 2 34.9736 24.4335 0.163022 34.9736 24.4335 0.163022
418 1 36.5421 25.5552 1.88729 36.5421 25.5552 1.88729
419 2 38.8401 25.0723 2.84495 38.8401 25.0723 2.84495
420 2 38.0299 26.1353 -0.107495 38.0299 26.1353 -0.107495
421 1 39.0554 23.9674 0.600144 39.0554 23.9674 0.600144
422 2 41.4078 23.4629 1.37025 41.4078 23.4629 1.37025
423 2 40.3765 24.6904 -1.44908 40.3765 24.6904 -1.44908
424 1 42.1248 25.6572 0.197864 42.1248 25.6572 0.197864
425 2 44.4745 25.1762 0.984217 44.4745 25.1762 0.984217
426 2 43.4454 26.36 -1.8543 43.4454 26.36 -1.8543
427 1 44.5555 24.179 -1.33246 44.5555 24.179 -1.33246
428 2 46.8335 23.8285 -0.286736 46.8335 23.8285 -0.286736
429 2 46.0597 24.6334 -3.3284 46.0597 24.6334 -3.3284
430 1 47.6519 25.8464 -1.67948 47.6519 25.8464 -1.67948
431 2 49.8978 25.5428 -0.546271 49.8978 25.5428 -0.546271
432 2 49.2239 26.2147 -3.64239 49.2239 26.2147 -3.64239
433 1 50.7601 27.5016 -1.99518 -0.531574 27.5016 -1.99518
434 2 52.9658 27.2495 -0.767389 1.67412 27.2495 -0.767389
435 2 52.4073 27.7799 -3.91255 1.11569 27.7799 -3.91255
436 1 53.8809 29.1432 -2.26889 2.58922 29.1432 -2.26889
437 2 56.0414 28.9511 -0.94712 4.74973 28.9511 -0.94712
438 2 55.6028 29.3294 -4.13218 4.31115 29.3294 -4.13218
439 1 5.28185 27.3923 -2.86038 5.28185 27.3923 -2.86038
440 2 7.21118 27.4838 -1.19542 7.21118 27.4838 -1.19542
441 2 7.28498 27.24 -4.42156 7.28498 27.24 -4.42156
442 1 8.43538 28.9969 -2.89457 8.43538 28.9969 -2.89457
443 2 10.2941 29.1689 -1.15432 10.2941 29.1689 -1.15432
444 2 10.5027 28.7711 -4.35941 10.5027 28.7711 -4.35941
445 1 11.1444 27.2161 -2.49043 11.1444 27.2161 -2.49043
446 2 12.7231 27.7083 -0.541408 12.7231 27.7083 -0.541408
447 2 13.3995 26.7701 -3.56747 13.3995 26.7701 -3.56747
448 1 14.2728 28.8442 -2.27216 14.2728 28.8442 -2.27216
449 2 15.7857 29.4073 -0.290901 15.7857 29.4073 -0.290901
450 2 16.5593 28.364 -3.25974 16.5593 28.364 -3.25974
451 1 16.8016 27.2426 -1.02548 16.8016 27.2426 -1.02548
452 2 18.1297 27.9761 1.01763 18.1297 27.9761 1.01763
453 2 19.1526 26.7235 -1.79346 19.1526 26.7235 -1.79346
454 1 19.8754 28.9274 -0.640893 19.8754 28.9274 -0.640893
455 2 21.1944 29.6494 1.40698 21.1944 29.6494 1.40698
456 2 22.2265 28.4304 -1.41539 22.2265 28.4304 -1.41539
457 1 22.2979 27.4595 0.911586 22.2979 27.4595 0.911586
458 2 23.7784 27.9536 2.91496 23.7784 27.9536 2.91496
459 2 24.5862 27.0865 -0.100833 24.5862 27.0865 -0.100833
460 1 25.3905 29.1327 1.25991 25.3905 29.1327 1.25991
461 2 26.9363 29.5465 3.23373 26.9363 29.5465 3.23373
462 2 27.6493 28.8017 0.162969 27.6493 28.8017 0.162969
463 1 27.9984 27.4777 2.28785 27.9984 27.4777 2.28785
464 2 29.829 27.5416 4.05367 29.829 27.5416 4.05367
465 2 30.0816 27.3757 0.831435 30.0816 27.3757 0.831435
466 1 31.1405 29.0983 2.44132 31.1405 29.0983 2.44132
467 2 33.0436 29.0787 4.13012 33.0436 29.0787 4.13012
468 2 33.1642 29.0652 0.896396 33.1642 29.0652 0.896396
469 1 33.8698 27.3023 2.55373 33.8698 27.3023 2.55373
470 2 36.0153 26.9926 3.88175 36.0153 26.9926 3.88175
471 2 35.6277 27.5832 0.722586 35.6277 27.5832 0.722586
472 1 37.017 28.9139 2.44934 37.017 28.9139 2.44934
473 2 39.2115 28.5477 3.67654 39.2115 28.5477 3.67654
474 2 38.7018 29.276 0.562933 38.7018 29.276 0.562933
475 1 39.6542 27.2007 1.60111 39.6542 27.2007 1.60111
476 2 41.9765 26.6948 2.47951 41.9765 26.6948 2.47951
477 2 41.0816 27.8413 -0.417853 41.0816 27.8413 -0.417853
478 1 42.7542 28.8571 1.27453 42.7542 28.8571 1.27453
479 2 45.0935 28.3376 2.09072 45.0935 28.3376 2.09072
480 2 44.1308 29.5464 -0.760146 44.1308 29.5464 -0.760146
481 1 45.1907 27.3522 -0.21806 45.1907 27.3522 -0.21806
482 2 47.5303 26.9001 0.613475 47.5303 26.9001 0.613475
483 2 46.5364 28.0105 -2.26649 46.5364 28.0105 -2.26649
484 1 48.2592 29.0462 -0.631845 48.2592 29.0462 -0.631845
485 2 50.5823 28.6231 0.263386 50.5823 28.6231 0.263386
486 2 49.65 29.6455 -2.66849 49.65 29.6455 -2.66849
487 1 51.3364 30.7325 -1.02779 0.0447287 30.7325 -1.02779
488 2 53.6384 30.3448 -0.0575513 2.3468 30.3448 -0.0575513
489 2 52.7831 31.2595 -3.04683 1.49143 31.2595 -3.04683
490 1 54.4236 32.4092 -1.40086 3.13193 32.4092 -1.40086
491 2 56.6986 32.0612 -0.347248 5.40701 32.0612 -0.347248
492 2 55.9347 32.8567 -3.3936 4.64309 32.8567 -3.3936
493 1 5.72034 30.7737 -2.50028 5.72034 30.7737 -2.50028
494 2 7.82826 30.6451 -1.08362 7.82826 30.6451 -1.08362
495 2 7.51917 30.8703 -4.29751 7.51917 30.8703 -4.29751
496 1 8.86066 32.3943 -2.68047 8.86066 32.3943 -2.68047
497 2 10.911 32.3365 -1.17277 10.911 32.3365 -1.17277
498 2 10.7333 32.4023 -4.40342 10.7333 32.4023 -4.40342
499 1 11.5884 30.6015 -2.87159 11.5884 30.6015 -2.87159
500 2 13.3757 30.8565 -1.06553 13.3757 30.8565 -1.06553
501 2 13.7125 30.3083 -4.23798 13.7125 30.3083 -4.23798
502 1 14.7379 32.2091 -2.79575 14.7379 32.2091 -2.79575
503 2 16.4518 32.5454 -0.931458 16.4518 32.5454 -0.931458
504 2 16.9135 31.8578 -4.06145 16.9135 31.8578 -4.06145
505 1 17.39 30.4833 -2.01096 17.39 30.4833 -2.01096
506 2 18.8402 31.1103 -0.0031358 18.8402 31.1103 -0.0031358
507 2 19.7034 29.978 -2.91522 19.7034 29.978 -2.91522
508 1 20.4946 32.135 -1.70778 20.4946 32.135 -1.70778
509 2 21.8899 32.8159 0.318408 21.8899 32.8159 0.318408
510 2 22.8279 31.6138 -2.54306 22.8279 31.6138 -2.54306
511 1 22.9426 30.6213 -0.238542 22.9426 30.6213 -0.238542
512 2 24.2789 31.3092 1.80671 24.2789 31.3092 1.80671
513 2 25.2856 30.1501 -1.04945 25.2856 30.1501 -1.04945
514 1 26.0104 32.317 0.163674 26.0104 32.317 0.163674
515 2 27.3825 32.9523 2.20128 27.3825 32.9523 2.20128
516 2 28.3401 31.8762 -0.703176 28.3401 31.8762 -0.703176
517 1 28.4943 30.7948 1.57644 28.4943 30.7948 1.57644
518 2 30.1103 31.1238 3.51115 30.1103 31.1238 3.51115
519 2 30.7171 30.5117 0.389717 30.7171 30.5117 0.389717
520 1 31.6093 32.4454 1.85525 31.6093 32.4454 1.85525
521 2 33.301 32.6874 3.73886 33.301 32.6874 3.73886
522 2 33.788 32.2148 0.573313 33.788 32.2148 0.573313
523 1 34.2885 30.7119 2.54064 34.2885 30.7119 2.54064
524 2 36.2612 30.6109 4.1443 36.2612 30.6109 4.1443
525 2 36.2479 30.7537 0.911514 36.2479 30.7537 0.911514
526 1 37.4401 32.3209 2.58525 37.4401 32.3209 2.58525
527 2 39.4783 32.1438 4.09718 39.4783 32.1438 4.09718
528 2 39.3313 32.4402 0.877998 39.3313 32.4402 0.877998
529 1 40.1579 30.5306 2.29187 40.1579 30.5306 2.29187
530 2 42.395 30.1153 3.41953 42.395 30.1153 3.41953
531 2 41.7706 30.9719 0.358939 41.7706 30.9719 0.358939
532 1 43.2905 32.1544 2.08423 43.2905 32.1544 2.08423
533 2 45.5627 31.6987 3.11819 45.5627 31.6987 3.11819
534 2 44.835 32.6702 0.114165 44.835 32.6702 0.114165
535 1 45.8427 30.5242 0.915861 45.8427 30.5242 0.915861
536 2 48.1921 30.0042 1.69295 48.1921 30.0042 1.69295
537 2 47.1815 31.2434 -1.12857 47.1815 31.2434 -1.12857
538 1 48.9209 32.2019 0.531014 48.9209 32.2019 0.531014
539 2 51.2729 31.6954 1.29973 51.2729 31.6954 1.29973