ITEM: TIMESTEP
5338000
ITEM: NUMBER OF ATOMS
810
ITEM: BOX BOUNDS xy xz yz pp pp pp
-2.4065165255083205e+01 5.2154620611319167e+01 -2.4928149643763106e+01
8.1394622342039402e-01 5.0202268776579182e+01 0.0000000000000000e+00
-1.0000000000000000e+01 1.0000000000000000e+01 0.0000000000000000e+00
ITEM: ATOMS id type x y z xu yu zu
1 1 25.5488 0.956597 1.27606 -25.7428 0.956597 1.27606
2 2 27.7994 1.56872 2.16557 -23.4922 1.56872 2.16557
3 2 27.1403 1.0398 -0.649924 -24.1513 1.0398 -0.649924
4 1 35.5157 4.03076 -6.72508 -15.7759 4.03076 -6.72508
5 2 35.7063 4.72637 -4.30332 -15.5853 4.72637 -4.30332
6 2 37.7037 2.98967 -6.0958 -13.588 2.98967 -6.0958
7 1 36.3667 2.32205 -4.04279 -14.9249 2.32205 -4.04279
8 2 36.2989 3.00369 -1.60715 -14.9927 3.00369 -1.60715
9 2 38.5906 1.49357 -3.23305 -12.701 1.49357 -3.23305
10 1 38.668 3.63949 -1.99946 -12.6236 3.63949 -1.99946
11 2 38.6495 4.21829 0.441811 -12.6421 4.21829 0.441811
12 2 40.9139 2.7612 -1.37911 -10.3778 2.7612 -1.37911
13 1 39.6396 1.90392 0.649668 -11.6521 1.90392 0.649668
14 2 39.9683 2.15073 3.13918 -11.3233 2.15073 3.13918
15 2 42.0836 1.30535 0.821848 -9.20806 1.30535 0.821848
16 1 42.1853 3.21975 2.48258 -9.10635 3.21975 2.48258
17 2 42.633 3.3274 4.96706 -8.65866 3.3274 4.96706
18 2 44.6653 2.7454 2.49934 -6.62631 2.7454 2.49934
19 1 44.0137 1.31507 4.43911 -7.27794 1.31507 4.43911
20 2 44.9618 1.0041 6.76917 -6.32986 1.0041 6.76917
21 2 46.4987 1.12456 3.90319 -4.7929 1.12456 3.90319
22 1 46.8079 2.51894 5.96896 -4.48374 2.51894 5.96896
23 2 47.9612 2.02193 8.16566 -3.33046 2.02193 8.16566
24 2 49.2313 2.42255 5.19575 -2.06031 2.42255 5.19575
25 1 24.3988 49.8718 6.74481 -1.96466 0.48343 6.74481
26 2 25.9654 49.1266 8.57257 -0.398096 -0.26174 8.57257
27 2 26.6106 50.0878 5.52116 0.247117 0.699497 5.52116
28 1 1.00764 1.61633 7.7159 1.00764 1.61633 7.7159
29 2 2.73817 0.78308 9.34584 2.73817 0.78308 9.34584
30 2 3.09589 1.95477 6.32376 3.09589 1.95477 6.32376
31 1 -21.177 49.1418 7.2948 3.75111 -0.246495 7.2948
32 2 -19.2117 48.253 8.57936 5.71646 -1.13528 8.57936
33 2 -19.3483 49.7033 5.65894 5.57989 0.31495 5.65894
34 1 6.7443 0.985775 7.76402 6.7443 0.985775 7.76402
35 2 -16.0838 49.53 8.84741 8.84439 0.141631 8.84741
36 2 8.40134 1.66129 5.99695 8.40134 1.66129 5.99695
37 1 -15.5198 48.8052 6.50206 9.40837 -0.583096 6.50206
38 2 -13.2911 48.0578 7.35762 11.6371 -1.33054 7.35762
39 2 -14.0953 49.5892 4.59381 10.8329 0.200904 4.59381
40 1 12.2941 0.927623 6.49533 12.2941 0.927623 6.49533
41 2 -10.3029 49.7072 7.14722 14.6253 0.318851 7.14722
42 2 13.4906 1.83601 4.49059 13.4906 1.83601 4.49059
43 1 -10.1601 49.0815 4.71686 14.7681 -0.306801 4.71686
44 2 -7.79175 48.6864 5.38123 17.1364 -0.701922 5.38123
45 2 -9.05207 49.9301 2.64018 15.8761 0.54177 2.64018
46 1 17.4619 1.54216 4.30847 17.4619 1.54216 4.30847
47 2 19.842 1.25475 5.03153 19.842 1.25475 5.03153
48 2 18.5712 2.35138 2.2083 18.5712 2.35138 2.2083
49 1 -4.9016 49.7646 2.68259 20.0265 0.376273 2.68259
50 2 -2.5976 49.5727 3.67164 22.3305 0.184336 3.67164
51 2 21.358 1.01032 0.650444 21.358 1.01032 0.650444
52 1 22.7297 2.25506 2.33049 22.7297 2.25506 2.33049
53 2 24.9373 1.99151 3.45311 24.9373 1.99151 3.45311
54 2 24.465 3.11783 0.752086 24.465 3.11783 0.752086
55 1 34.5413 5.90598 -9.22207 -16.7504 5.90598 -9.22207
56 2 35.0662 6.48795 -6.82739 -16.2255 6.48795 -6.82739
57 2 36.6857 4.6585 -8.88753 -14.606 4.6585 -8.88753
58 1 37.3816 6.68804 -7.67337 -13.9101 6.68804 -7.67337
59 2 37.5479 7.51357 -5.31209 -13.7438 7.51357 -5.31209
60 2 39.4225 5.43404 -6.99167 -11.8691 5.43404 -6.99167
61 1 38.0778 5.10788 -4.88847 -13.2139 5.10788 -4.88847
62 2 37.9591 5.98915 -2.54635 -13.3325 5.98915 -2.54635
63 2 40.1536 4.06726 -4.00571 -11.1381 4.06726 -4.00571
64 1 40.4096 6.33612 -2.96471 -10.882 6.33612 -2.96471
65 2 40.2035 7.22269 -0.634889 -11.0881 7.22269 -0.634889
66 2 42.526 5.42418 -2.04944 -8.76559 5.42418 -2.04944
67 1 41.0258 4.91872 -0.0690735 -10.2658 4.91872 -0.0690735
68 2 41.0445 5.44975 2.38461 -10.2471 5.44975 2.38461
69 2 43.3505 4.19466 0.464235 -7.9411 4.19466 0.464235
70 1 43.3764 6.28423 1.87682 -7.9152 6.28423 1.87682
71 2 43.5101 6.68512 4.36058 -7.78158 6.68512 4.36058
72 2 45.7646 5.63043 2.27022 -5.52704 5.63043 2.27022
73 1 44.7607 4.51805 4.29037 -6.53097 4.51805 4.29037
74 2 45.3938 4.43284 6.73893 -5.89789 4.43284 6.73893
75 2 47.2526 4.10725 4.0947 -4.03901 4.10725 4.0947
76 1 47.4205 5.7364 5.99659 -3.87116 5.7364 5.99659
77 2 48.2747 5.46263 8.36324 -3.0169 5.46263 8.36324
78 2 -1.39558 5.39645 5.54902 -1.39558 5.39645 5.54902
79 1 49.6738 3.65666 7.3288 -1.6178 3.65666 7.3288
80 2 -0.260413 3.01829 9.36318 -0.260413 3.01829 9.36318
81 2 0.719743 3.66555 6.32782 0.719743 3.66555 6.32782
82 1 1.31187 4.76743 8.4934 1.31187 4.76743 8.4934
83 2 2.86681 4.04357 -9.65437 2.86681 4.04357 10.3456
84 2 3.53541 4.89066 7.27527 3.53541 4.89066 7.27527
85 1 4.0061 2.76562 8.50492 4.0061 2.76562 8.50492
86 2 5.89277 1.91811 9.93938 5.89277 1.91811 9.93938
87 2 5.94762 3.21594 6.95086 5.94762 3.21594 6.95086
88 1 7.01483 3.98341 9.07996 7.01483 3.98341 9.07996
89 2 9.0625 3.18537 -9.70257 9.0625 3.18537 10.2974
90 2 8.76607 4.56022 7.35844 8.76607 4.56022 7.35844
91 1 9.71253 2.33687 8.0198 9.71253 2.33687 8.0198
92 2 11.9501 1.62287 8.88751 11.9501 1.62287 8.88751
93 2 11.1415 3.12144 6.10599 11.1415 3.12144 6.10599
94 1 12.6087 3.86806 7.99113 12.6087 3.86806 7.99113
95 2 14.9279 3.24311 8.68885 14.9279 3.24311 8.68885
96 2 13.8457 4.78258 6.0012 13.8457 4.78258 6.0012
97 1 15.0845 2.61783 6.25896 15.0845 2.61783 6.25896
98 2 17.4855 2.14769 6.75027 17.4855 2.14769 6.75027
99 2 16.0655 3.61489 4.17523 16.0655 3.61489 4.17523
100 1 17.7485 4.44622 5.81622 17.7485 4.44622 5.81622
101 2 20.1968 4.68329 5.9896 20.1968 4.68329 5.9896
102 2 18.5128 5.31346 3.62133 18.5128 5.31346 3.62133
103 1 20.1052 3.4293 3.85164 20.1052 3.4293 3.85164
104 2 22.3824 2.93909 4.70852 22.3824 2.93909 4.70852
105 2 21.7499 4.54395 2.37383 21.7499 4.54395 2.37383
106 1 33.3286 8.03264 8.63298 33.3286 8.03264 -11.367
107 2 34.165 8.36168 -9.01501 34.165 8.36168 -9.01501
108 2 35.4677 6.72486 8.56797 35.4677 6.72486 -11.432
109 1 36.363 8.61045 9.87447 -14.9286 8.61045 -10.1255
110 2 36.9132 9.14508 -7.74191 -14.3785 9.14508 -7.74191
111 2 38.4189 7.21874 10.0981 -12.8728 7.21874 -9.90191
112 1 39.2258 9.27489 -8.70875 -12.0658 9.27489 -8.70875
113 2 39.4869 10.0677 -6.33837 -11.8048 10.0677 -6.33837
114 2 41.2536 7.9579 -8.0871 -10.038 7.9579 -8.0871
115 1 39.9714 7.64229 -5.9434 -11.3202 7.64229 -5.9434
116 2 39.8759 8.67893 -3.66193 -11.4157 8.67893 -3.66193
117 2 41.9542 6.51551 -4.94792 -9.33745 6.51551 -4.94792
118 1 42.3459 8.82453 -4.05556 -8.94571 8.82453 -4.05556
119 2 42.0443 9.97259 -1.84914 -9.24731 9.97259 -1.84914
120 2 44.3125 7.8658 -2.88484 -6.97915 7.8658 -2.88484
121 1 42.6474 7.70091 -0.991774 -8.64422 7.70091 -0.991774
122 2 42.4371 8.54789 1.35765 -8.8545 8.54789 1.35765
123 2 44.8228 6.88387 -0.110491 -6.46885 6.88387 -0.110491
124 1 44.8609 9.13 1.01149 -6.43077 9.13 1.01149
125 2 44.7227 9.8603 3.41332 -6.56892 9.8603 3.41332
126 2 47.1086 8.36462 1.78189 -4.18299 8.36462 1.78189
127 1 45.7845 7.62419 3.80095 -5.50718 7.62419 3.80095
128 2 46.0948 7.84303 6.29808 -5.19685 7.84303 6.29808
129 2 48.2222 7.01433 3.98817 -3.06945 7.01433 3.98817
130 1 -3.00327 8.89458 5.64411 -3.00327 8.89458 5.64411
131 2 -2.4741 8.91955 8.11527 -2.4741 8.91955 8.11527
132 2 -0.539523 8.33721 5.57378 -0.539523 8.33721 5.57378
133 1 -1.11299 6.88641 7.54109 -1.11299 6.88641 7.54109
134 2 -0.0315748 6.45494 9.78541 -0.0315748 6.45494 9.78541
135 2 1.31254 6.63952 6.83319 1.31254 6.63952 6.83319
136 1 1.73262 8.00187 8.88863 1.73262 8.00187 8.88863
137 2 3.0438 7.45293 -9.02635 3.0438 7.45293 10.9737
138 2 4.07193 7.87689 7.91939 4.07193 7.87689 7.91939
139 1 4.28983 5.8964 9.43732 4.28983 5.8964 9.43732
140 2 6.04842 5.1591 -8.91653 6.04842 5.1591 11.0835
141 2 6.35716 6.14285 7.99558 6.35716 6.14285 7.99558
142 1 7.29712 7.1005 10.1059 7.29712 7.1005 10.1059
143 2 9.23783 6.40344 -8.45772 9.23783 6.40344 11.5423
144 2 9.17776 7.50378 8.45943 9.17776 7.50378 8.45943
145 1 10.0062 5.32608 9.39646 10.0062 5.32608 9.39646
146 2 12.2208 4.62522 -9.64423 12.2208 4.62522 10.3558
147 2 11.501 6.05931 7.49512 11.501 6.05931 7.49512
148 1 12.914 6.82599 9.40412 12.914 6.82599 9.40412
149 2 15.3293 6.74166 9.94256 15.3293 6.74166 9.94256
150 2 14.0602 7.54729 7.31772 14.0602 7.54729 7.31772
151 1 15.4157 5.51691 7.78878 15.4157 5.51691 7.78878
152 2 17.7185 4.73924 8.28241 17.7185 4.73924 8.28241
153 2 16.9186 6.73665 6.23938 16.9186 6.73665 6.23938
154 1 30.0047 13.0613 6.37608 30.0047 13.0613 -13.6239
155 2 31.5248 12.5873 8.31815 31.5248 12.5873 -11.6818
156 2 32.0249 12.1248 5.1981 32.0249 12.1248 -14.8019
157 1 31.8078 10.4486 7.07974 31.8078 10.4486 -12.9203
158 2 32.9732 10.4 9.30993 32.9732 10.4 -10.6901
159 2 33.9304 9.23711 6.49113 33.9304 9.23711 -13.5089
160 1 34.9896 10.8982 7.96381 34.9896 10.8982 -12.0362
161 2 35.9309 11.0421 -9.71912 35.9309 11.0421 -9.71912
162 2 37.0341 9.50983 7.62391 37.0341 9.50983 -12.3761
163 1 38.0591 11.3556 8.98767 -13.2326 11.3556 -11.0123
164 2 38.7281 11.7366 -8.619 -12.5635 11.7366 -8.619
165 2 40.1389 9.96505 9.04284 -11.1528 9.96505 -10.9572
166 1 40.9883 11.955 -9.67838 -10.3033 11.955 -9.67838
167 2 41.3818 12.5947 -7.27444 -9.90988 12.5947 -7.27444
168 2 43.0474 10.5993 -9.23443 -8.24425 10.5993 -9.23443
169 1 41.8912 10.1472 -7.03845 -9.40047 10.1472 -7.03845
170 2 41.8797 11.1803 -4.74291 -9.41193 11.1803 -4.74291
171 2 43.8511 8.94443 -6.06706 -7.44052 8.94443 -6.06706
172 1 44.3444 11.2373 -5.17882 -6.94719 11.2373 -5.17882
173 2 44.0912 12.4847 -3.0069 -7.2004 12.4847 -3.0069
174 2 46.2212 10.1855 -3.91991 -5.07041 10.1855 -3.91991
175 1 44.5275 10.2218 -2.06231 -6.76416 10.2218 -2.06231
176 2 44.15 11.3621 0.134274 -7.14164 11.3621 0.134274
177 2 46.5303 9.37097 -0.875162 -4.76134 9.37097 -0.875162
178 1 -4.66539 11.7251 -0.0270049 -4.66539 11.7251 -0.0270049
179 2 -5.01657 12.7743 2.22393 -5.01657 12.7743 2.22393
180 2 -2.5898 10.9213 1.08167 -2.5898 10.9213 1.08167
181 1 47.1091 10.5491 3.01239 -4.18258 10.5491 3.01239
182 2 -4.17733 11.1056 5.47006 -4.17733 11.1056 5.47006
183 2 -1.85723 9.81477 3.59443 -1.85723 9.81477 3.59443
184 1 -1.85028 11.9118 4.96099 -1.85028 11.9118 4.96099
185 2 -1.62874 12.279 7.44545 -1.62874 12.279 7.44545
186 2 0.540647 11.2004 5.28207 0.540647 11.2004 5.28207
187 1 -0.386805 10.0958 7.34829 -0.386805 10.0958 7.34829
188 2 0.389553 9.95131 9.74553 0.389553 9.95131 9.74553
189 2 2.06681 9.60738 6.98674 2.06681 9.60738 6.98674
190 1 2.34923 11.2466 8.85214 2.34923 11.2466 8.85214
191 2 3.31842 10.9307 -8.84227 3.31842 10.9307 11.1577
192 2 4.77789 10.9053 8.23325 4.77789 10.9053 8.23325
193 1 4.6495 9.12125 10.0063 4.6495 9.12125 10.0063
194 2 6.20988 8.50674 -8.10961 6.20988 8.50674 11.8904
195 2 6.85624 9.15967 8.75059 6.85624 9.15967 8.75059
196 1 7.6068 10.2892 -9.15972 7.6068 10.2892 10.8403
197 2 9.62514 10.0415 -7.73676 9.62514 10.0415 12.2632
198 2 9.48997 10.4025 9.208 9.48997 10.4025 9.208
199 1 10.2769 8.41961 -9.50216 10.2769 8.41961 10.4978
200 2 12.2059 7.42099 -8.28141 12.2059 7.42099 11.7186
201 2 12.3694 9.25005 9.43067 12.3694 9.25005 9.43067
202 1 26.1436 17.8854 8.0678 26.1436 17.8854 -11.9322
203 2 28.2467 16.8388 8.89027 28.2467 16.8388 -11.1097
204 2 27.5856 18.0184 6.00004 27.5856 18.0184 -14
205 1 28.0496 15.6396 6.70319 28.0496 15.6396 -13.2968
206 2 29.9047 14.8023 8.15725 29.9047 14.8023 -11.8427
207 2 29.8383 15.1673 4.9878 29.8383 15.1673 -15.0122
208 1 31.3571 16.1314 6.66153 31.3571 16.1314 -13.3385
209 2 33.0504 15.4209 8.36837 33.0504 15.4209 -11.6316
210 2 33.1448 15.3096 5.11835 33.1448 15.3096 -14.8816
211 1 33.2876 13.4688 6.82304 33.2876 13.4688 -13.177
212 2 34.6151 13.1746 8.93004 34.6151 13.1746 -11.07
213 2 35.2566 12.2641 5.86997 35.2566 12.2641 -14.13
214 1 36.4904 13.8318 7.40042 36.4904 13.8318 -12.5996
215 2 37.5741 13.7315 9.66913 37.5741 13.7315 -10.3309
216 2 38.5547 12.5373 6.80942 38.5547 12.5373 -13.1906
217 1 39.6139 14.253 8.31297 -11.6777 14.253 -11.687
218 2 40.4459 14.3899 -9.31348 -10.8458 14.3899 -9.31348
219 2 41.7188 12.9016 8.09322 -9.5728 12.9016 -11.9068
220 1 42.6274 14.7648 9.51638 -8.66421 14.7648 -10.4836
221 2 43.2034 15.1758 -8.06404 -8.08825 15.1758 -8.06404
222 2 44.7237 13.3914 9.68417 -6.56796 13.3914 -10.3158
223 1 43.748 12.7198 -8.08487 -7.54368 12.7198 -8.08487
224 2 43.8718 13.6311 -5.73673 -7.41985 13.6311 -5.73673
225 2 45.7399 11.4431 -7.26457 -5.55172 11.4431 -7.26457
226 1 -4.97717 13.6795 -6.28123 -4.97717 13.6795 -6.28123
227 2 -5.1119 14.8561 -4.04957 -5.1119 14.8561 -4.04957
228 2 -3.08724 12.5311 -5.11367 -3.08724 12.5311 -5.11367
229 1 -4.70643 12.554 -3.19505 -4.70643 12.554 -3.19505
230 2 -5.14598 13.9095 -1.12798 -5.14598 13.9095 -1.12798
231 2 -2.86044 11.6716 -1.7886 -2.86044 11.6716 -1.7886
232 1 -2.65029 14.079 -1.1473 -2.65029 14.079 -1.1473
233 2 -3.14927 15.4066 0.914516 -3.14927 15.4066 0.914516
234 2 -0.756286 13.2899 0.237745 -0.756286 13.2899 0.237745
235 1 -2.55986 13.2432 2.01411 -2.55986 13.2432 2.01411
236 2 -2.83023 14.1362 4.34619 -2.83023 14.1362 4.34619
237 2 -0.391789 12.4718 2.97309 -0.391789 12.4718 2.97309
238 1 -0.411568 14.7315 4.03762 -0.411568 14.7315 4.03762
239 2 -0.527221 15.409 6.46394 -0.527221 15.409 6.46394
240 2 1.88336 14.0087 4.75244 1.88336 14.0087 4.75244
241 1 0.617662 13.1951 6.78458 0.617662 13.1951 6.78458
242 2 1.08769 13.3878 9.2511 1.08769 13.3878 9.2511
243 2 3.0494 12.5195 6.7882 3.0494 12.5195 6.7882
244 1 3.2249 14.3935 8.41956 3.2249 14.3935 8.41956
245 2 4.29012 14.6565 -9.32449 4.29012 14.6565 10.6755
246 2 5.62752 13.7215 8.18175 5.62752 13.7215 8.18175
247 1 5.13232 12.3682 10.2127 5.13232 12.3682 10.2127
248 2 6.13676 11.6102 -7.62598 6.13676 11.6102 12.374
249 2 7.6192 12.6809 10.147 7.6192 12.6809 10.147
250 1 23.1585 20.5948 -6.98699 23.1585 20.5948 -6.98699
251 2 25.3835 19.596 -7.37134 25.3835 19.596 -7.37134
252 2 23.8862 21.8899 -9.0197 23.8862 21.8899 -9.0197
253 1 24.48 19.5608 -9.72459 24.48 19.5608 -9.72459
254 2 26.7028 18.48 -9.55565 26.7028 18.48 -9.55565
255 2 25.5343 20.326 8.1149 25.5343 20.326 -11.8851
256 1 27.5709 20.5769 9.46637 27.5709 20.5769 -10.5336
257 2 29.7529 19.4551 -10.0954 29.7529 19.4551 -10.0954
258 2 28.6524 20.9724 7.2441 28.6524 20.9724 -12.7559
259 1 29.3791 18.5992 7.57575 29.3791 18.5992 -12.4243
260 2 31.3744 17.5895 8.69704 31.3744 17.5895 -11.303
261 2 30.8599 18.3385 5.57479 30.8599 18.3385 -14.4252
262 1 32.5982 19.1698 7.19033 32.5982 19.1698 -12.8097
263 2 34.4276 18.2088 8.62847 34.4276 18.2088 -11.3715
264 2 34.3011 18.6489 5.41554 34.3011 18.6489 -14.5845
265 1 34.6148 16.5275 6.75513 34.6148 16.5275 -13.2449
266 2 36.0961 15.9516 8.70861 36.0961 15.9516 -11.2914
267 2 36.5604 15.5253 5.52318 36.5604 15.5253 -14.4768
268 1 37.8524 16.8913 7.19451 37.8524 16.8913 -12.8055
269 2 39.1131 16.5068 9.34175 39.1131 16.5068 -10.6583
270 2 39.8981 15.7446 6.28551 39.8981 15.7446 -13.7145
271 1 41.0348 17.2694 7.9318 -10.2568 17.2694 -12.0682
272 2 42.0738 17.1255 -9.77797 -9.21786 17.1255 -9.77797
273 2 43.1341 16.0023 7.36703 -8.15756 16.0023 -12.633
274 1 -7.14936 17.6924 8.93224 -7.14936 17.6924 -11.0678
275 2 -6.36244 17.8266 -8.67661 -6.36244 17.8266 -8.67661
276 2 -5.02862 16.3467 8.76052 -5.02862 16.3467 -11.2395
277 1 -5.78658 15.3989 -9.02219 -5.78658 15.3989 -9.02219
278 2 -5.48431 16.1098 -6.61811 -5.48431 16.1098 -6.61811
279 2 -3.74259 14.059 -8.44582 -3.74259 14.059 -8.44582
280 1 -3.08343 16.2044 -7.31909 -3.08343 16.2044 -7.31909
281 2 -3.06901 17.221 -5.0015 -3.06901 17.221 -5.0015
282 2 -1.1291 14.9742 -6.33964 -1.1291 14.9742 -6.33964
283 1 -2.62363 14.8652 -4.32178 -2.62363 14.8652 -4.32178
284 2 -3.00672 16.2677 -2.25427 -3.00672 16.2677 -2.25427
285 2 -0.836467 13.9064 -2.87003 -0.836467 13.9064 -2.87003
286 1 -0.50529 16.3161 -2.26914 -0.50529 16.3161 -2.26914
287 2 -1.04469 17.8231 -0.322424 -1.04469 17.8231 -0.322424
288 2 1.26608 15.526 -0.7156 1.26608 15.526 -0.7156
289 1 -0.659551 15.6959 0.911475 -0.659551 15.6959 0.911475
290 2 -1.16607 16.9089 3.04808 -1.16607 16.9089 3.04808
291 2 1.32888 14.9514 2.19727 1.32888 14.9514 2.19727
292 1 1.29567 17.3173 2.9862 1.29567 17.3173 2.9862
293 2 0.599324 18.1902 5.22014 0.599324 18.1902 5.22014
294 2 3.28616 17.4676 4.46017 3.28616 17.4676 4.46017
295 1 1.81325 16.1563 6.00588 1.81325 16.1563 6.00588
296 2 2.65168 16.8253 8.24734 2.65168 16.8253 8.24734
297 2 4.11921 15.2434 6.22905 4.11921 15.2434 6.22905
298 1 21.2158 21.4899 -1.00201 21.2158 21.4899 -1.00201
299 2 23.3529 20.5844 -1.88303 23.3529 20.5844 -1.88303
300 2 21.7489 23.2114 -2.74551 21.7489 23.2114 -2.74551
301 1 22.1412 21.1228 -4.01442 22.1412 21.1228 -4.01442
302 2 24.3022 20.2093 -4.77261 24.3022 20.2093 -4.77261
303 2 22.6866 22.7551 -5.83977 22.6866 22.7551 -5.83977
304 1 24.9918 22.5674 -5.00131 24.9918 22.5674 -5.00131
305 2 27.1817 21.653 -5.68827 27.1817 21.653 -5.68827
306 2 25.3676 24.0547 -6.96858 25.3676 24.0547 -6.96858
307 1 26.0976 21.8893 -7.9467 26.0976 21.8893 -7.9467
308 2 28.3327 20.8311 -8.15117 28.3327 20.8311 -8.15117
309 2 26.7751 22.907 -10.1271 26.7751 22.907 -10.1271
310 1 28.993 23.1041 -8.96579 28.993 23.1041 -8.96579
311 2 31.1998 21.9297 -8.89255 31.1998 21.9297 -8.89255
312 2 29.9115 23.8457 8.81825 29.9115 23.8457 -11.1818
313 1 30.656 21.4458 8.6861 30.656 21.4458 -11.3139
314 2 32.7385 20.273 9.45887 32.7385 20.273 -10.5411
315 2 31.9996 21.5407 6.56302 31.9996 21.5407 -13.437
316 1 33.8459 22.1077 8.17371 33.8459 22.1077 -11.8263
317 2 35.7932 20.962 9.28099 35.7932 20.962 -10.719
318 2 35.4049 21.9233 6.2059 35.4049 21.9233 -13.7941
319 1 35.8612 19.6126 7.13751 35.8612 19.6126 -12.8625
320 2 37.5057 18.7733 8.85154 37.5057 18.7733 -11.1485
321 2 37.7239 18.8697 5.61568 37.7239 18.8697 -14.3843
322 1 39.1196 19.9928 7.38123 39.1196 19.9928 -12.6188
323 2 40.581 19.336 9.32223 40.581 19.336 -10.6778
324 2 41.092 19.0513 6.13082 41.092 19.0513 -13.8692
325 1 42.3519 20.3516 7.87588 -8.9397 20.3516 -12.1241
326 2 -7.68607 19.9152 10.0132 -7.68607 19.9152 -9.98678
327 2 -6.8801 19.2385 6.94487 -6.8801 19.2385 -13.0551
328 1 -5.75527 20.7165 8.63864 -5.75527 20.7165 -11.3614
329 2 -4.75371 20.5403 -9.0588 -4.75371 20.5403 -9.0588
330 2 -3.62973 19.4761 8.09172 -3.62973 19.4761 -11.9083
331 1 -4.15236 18.202 10.2117 -4.15236 18.202 -9.78827
332 2 -3.66778 18.6439 -7.34863 -3.66778 18.6439 -7.34863
333 2 -2.04008 16.8595 -9.51995 -2.04008 16.8595 -9.51995
334 1 -1.33185 18.8781 -8.20453 -1.33185 18.8781 -8.20453
335 2 -1.13763 19.6593 -5.79847 -1.13763 19.6593 -5.79847
336 2 0.727178 17.6066 -7.52487 0.727178 17.6066 -7.52487
337 1 -0.601167 17.2459 -5.4107 -0.601167 17.2459 -5.4107
338 2 -0.874113 18.5644 -3.24922 -0.874113 18.5644 -3.24922
339 2 1.23502 16.1867 -4.07079 1.23502 16.1867 -4.07079
340 1 1.61551 18.5602 -3.39217 1.61551 18.5602 -3.39217
341 2 0.979928 20.0264 -1.48402 0.979928 20.0264 -1.48402
342 2 3.39294 18.2323 -1.70615 3.39294 18.2323 -1.70615
343 1 1.43665 17.9533 -0.202197 1.43665 17.9533 -0.202197
344 2 1.34661 19.4663 1.76409 1.34661 19.4663 1.76409
345 2 3.16299 17.089 1.35487 3.16299 17.089 1.35487
346 1 18.3728 23.3011 4.40383 18.3728 23.3011 4.40383
347 2 20.7664 22.4948 4.25377 20.7664 22.4948 4.25377
348 2 19.1307 24.4246 2.30246 19.1307 24.4246 2.30246
349 1 20.0301 22.1458 1.8861 20.0301 22.1458 1.8861
350 2 22.2938 21.2672 1.24333 22.2938 21.2672 1.24333
351 2 20.6092 23.6739 -0.0168021 20.6092 23.6739 -0.0168021
352 1 22.8889 23.6409 0.957392 22.8889 23.6409 0.957392
353 2 25.0897 22.6679 0.305098 25.0897 22.6679 0.305098
354 2 23.383 25.1282 -0.999372 23.383 25.1282 -0.999372
355 1 24.0739 22.9467 -1.95598 24.0739 22.9467 -1.95598
356 2 26.2045 22.0705 -2.86997 26.2045 22.0705 -2.86997
357 2 24.3808 24.6298 -3.78333 24.3808 24.6298 -3.78333
358 1 26.7698 24.5072 -3.02906 26.7698 24.5072 -3.02906
359 2 28.9254 23.6682 -3.92456 28.9254 23.6682 -3.92456
360 2 27.0268 26.1372 -4.91049 27.0268 26.1372 -4.91049
361 1 27.7189 24.0635 -6.09817 27.7189 24.0635 -6.09817
362 2 29.9299 23.0498 -6.61833 29.9299 23.0498 -6.61833
363 2 28.2364 25.3573 -8.17863 28.2364 25.3573 -8.17863
364 1 30.5364 25.4134 -7.17059 30.5364 25.4134 -7.17059
365 2 32.7432 24.2689 -7.41106 32.7432 24.2689 -7.41106
366 2 31.2784 26.449 -9.3322 31.2784 26.449 -9.3322
367 1 32.0191 24.0952 -9.83472 32.0191 24.0952 -9.83472
368 2 34.1562 22.8481 -9.42138 34.1562 22.8481 -9.42138
369 2 33.1837 24.5396 7.98157 33.1837 24.5396 -12.0184
370 1 35.1462 24.8822 9.51482 35.1462 24.8822 -10.4852
371 2 37.1941 23.6412 -9.73686 37.1941 23.6412 -9.73686
372 2 36.5139 25.037 7.41025 36.5139 25.037 -12.5898
373 1 37.0855 22.628 7.9386 37.0855 22.628 -12.0614
374 2 38.8929 21.586 9.34096 38.8929 21.586 -10.659
375 2 38.8045 22.1871 6.15301 38.8045 22.1871 -13.847
376 1 40.3417 23.0651 7.93794 40.3417 23.0651 -12.0621
377 2 -9.30308 22.167 9.60835 41.9886 22.167 -10.3916
378 2 -9.09101 22.3896 6.37823 42.2006 22.3896 -13.6218
379 1 -7.69245 23.4437 8.18086 -7.69245 23.4437 -11.8191
380 2 -6.25843 22.7172 10.1101 -6.25843 22.7172 -9.88994
381 2 -5.69202 22.572 6.91902 -5.69202 22.572 -13.081
382 1 -4.46422 23.7899 8.74065 -4.46422 23.7899 -11.2594
383 2 -3.26662 23.2949 -9.1095 -3.26662 23.2949 -9.1095
384 2 -2.35634 22.7695 7.80535 -2.35634 22.7695 -12.1946
385 1 -2.66019 21.1337 9.7117 -2.66019 21.1337 -10.2883
386 2 -1.97555 21.2805 -7.85821 -1.97555 21.2805 -7.85821
387 2 -0.491914 19.8414 9.6204 -0.491914 19.8414 -10.3796
388 1 0.261539 21.6895 -8.87364 0.261539 21.6895 -8.87364
389 2 0.418804 22.1226 -6.42092 0.418804 22.1226 -6.42092
390 2 2.50935 20.8016 -8.30375 2.50935 20.8016 -8.30375
391 1 1.27164 19.7758 -6.40815 1.27164 19.7758 -6.40815
392 2 2.13459 20.8123 -4.30562 2.13459 20.8123 -4.30562
393 2 3.02531 18.2943 -5.43469 3.02531 18.2943 -5.43469
394 1 13.8051 26.7909 7.35844 13.8051 26.7909 7.35844
395 2 16.1488 26.4583 8.26266 16.1488 26.4583 8.26266
396 2 15.1468 26.9262 5.26689 15.1468 26.9262 5.26689
397 1 16.2542 24.9116 6.28335 16.2542 24.9116 6.28335
398 2 18.6794 24.2876 6.69107 18.6794 24.2876 6.69107
399 2 17.2877 25.5352 4.10215 17.2877 25.5352 4.10215
400 1 19.1804 26.3611 5.47361 19.1804 26.3611 5.47361
401 2 21.4989 25.5097 5.89616 21.4989 25.5097 5.89616
402 2 20.2382 27.0486 3.31165 20.2382 27.0486 3.31165
403 1 21.2611 24.789 3.52049 21.2611 24.789 3.52049
404 2 23.5539 23.8023 3.35778 23.5539 23.8023 3.35778
405 2 22.0164 25.9227 1.41386 22.0164 25.9227 1.41386
406 1 24.1689 26.1487 2.69123 24.1689 26.1487 2.69123
407 2 26.4834 25.2352 2.3558 26.4834 25.2352 2.3558
408 2 24.7706 27.3332 0.549829 24.7706 27.3332 0.549829
409 1 25.6963 25.0873 -0.0184274 25.6963 25.0873 -0.0184274
410 2 27.8955 24.2103 -0.81909 27.8955 24.2103 -0.81909
411 2 26.0406 26.6307 -1.98134 26.0406 26.6307 -1.98134
412 1 28.4013 26.6547 -1.12161 28.4013 26.6547 -1.12161
413 2 30.5906 25.8022 -1.97525 30.5906 25.8022 -1.97525
414 2 28.6926 28.216 -3.07752 28.6926 28.216 -3.07752
415 1 29.4233 26.1104 -4.16929 29.4233 26.1104 -4.16929
416 2 31.6121 25.1814 -4.89253 31.6121 25.1814 -4.89253
417 2 29.8036 27.5826 -6.15707 29.8036 27.5826 -6.15707
418 1 32.1594 27.5982 -5.27915 32.1594 27.5982 -5.27915
419 2 34.3663 26.5393 -5.74321 34.3663 26.5393 -5.74321
420 2 32.7395 28.8415 -7.37413 32.7395 28.8415 -7.37413
421 1 33.4786 26.5545 -8.11974 33.4786 26.5545 -8.11974
422 2 35.6518 25.3201 -8.03596 35.6518 25.3201 -8.03596
423 2 34.4412 27.3018 9.68661 34.4412 27.3018 -10.3134
424 1 36.5176 27.4988 -8.91163 36.5176 27.4988 -8.91163
425 2 38.6361 26.2318 -8.50556 38.6361 26.2318 -8.50556
426 2 37.6821 27.9607 8.91124 37.6821 27.9607 -11.0888
427 1 38.3337 25.5228 9.07384 38.3337 25.5228 -10.9262
428 2 40.2734 24.3393 -9.86671 40.2734 24.3393 -9.86671
429 2 39.8788 25.407 7.09173 39.8788 25.407 -12.9083
430 1 -9.72732 26.0503 8.84048 41.5643 26.0503 -11.1595
431 2 -7.93927 24.9495 -9.78999 43.3524 24.9495 -9.78999
432 2 -7.99519 25.687 7.04891 43.2964 25.687 -12.9511
433 1 -6.46521 26.4714 8.88068 -6.46521 26.4714 -11.1193
434 2 -4.87337 25.5084 -9.43314 -4.87337 25.5084 -9.43314
435 2 -4.54841 25.8893 7.3424 -4.54841 25.8893 -12.6576
436 1 -3.21323 26.8071 9.2455 -3.21323 26.8071 -10.7545
437 2 -2.00038 25.9164 -8.763 -2.00038 25.9164 -8.763
438 2 -0.985866 26.2371 8.30032 -0.985866 26.2371 -11.6997
439 1 -1.31125 24.1501 9.60974 -1.31125 24.1501 -10.3903
440 2 0.497415 24.1697 -8.66614 0.497415 24.1697 -8.66614
441 2 0.580293 22.6955 8.85851 0.580293 22.6955 -11.1415
442 1 8.54235 30.5021 7.10858 8.54235 30.5021 7.10858
443 2 10.4789 30.886 8.65967 10.4789 30.886 8.65967
444 2 10.4374 30.0157 5.58405 10.4374 30.0157 5.58405
445 1 11.1879 28.7168 7.6044 11.1879 28.7168 7.6044
446 2 13.3599 28.7375 8.88933 13.3599 28.7375 8.88933
447 2 12.8248 28.4629 5.75171 12.8248 28.4629 5.75171
448 1 14.1575 30.1149 7.01984 14.1575 30.1149 7.01984
449 2 16.2276 29.8885 8.40027 16.2276 29.8885 8.40027
450 2 15.8024 29.9734 5.16088 15.8024 29.9734 5.16088
451 1 16.7596 28.2015 6.64562 16.7596 28.2015 6.64562
452 2 18.9966 27.6257 7.61301 18.9966 27.6257 7.61301
453 2 18.1263 28.4367 4.57296 18.1263 28.4367 4.57296
454 1 19.7408 29.5214 6.1545 19.7408 29.5214 6.1545
455 2 22.0284 28.9063 6.99726 22.0284 28.9063 6.99726
456 2 21.0355 29.7938 4.0262 21.0355 29.7938 4.0262
457 1 22.1473 27.6814 4.81522 22.1473 27.6814 4.81522
458 2 24.5058 26.8449 5.07681 24.5058 26.8449 5.07681
459 2 23.0916 28.4112 2.60199 23.0916 28.4112 2.60199
460 1 25.075 29.0451 3.99866 25.075 29.0451 3.99866
461 2 27.4686 28.2507 4.07263 27.4686 28.2507 4.07263
462 2 25.8653 29.8505 1.74027 25.8653 29.8505 1.74027
463 1 26.9906 27.611 1.69385 26.9906 27.611 1.69385
464 2 29.3056 26.7555 1.21234 29.3056 26.7555 1.21234
465 2 27.4641 28.8646 -0.448978 27.4641 28.8646 -0.448978
466 1 29.7404 29.1573 0.583695 29.7404 29.1573 0.583695
467 2 32.047 28.3245 0.037978 32.047 28.3245 0.037978
468 2 30.1595 30.4539 -1.54657 30.1595 30.4539 -1.54657
469 1 31.0751 28.2529 -2.26865 31.0751 28.2529 -2.26865
470 2 33.2717 27.3492 -3.0334 33.2717 27.3492 -3.0334
471 2 31.4369 29.7544 -4.2479 31.4369 29.7544 -4.2479
472 1 33.8038 29.7883 -3.37653 33.8038 29.7883 -3.37653
473 2 36.0149 28.8045 -3.96676 36.0149 28.8045 -3.96676
474 2 34.2879 31.1496 -5.41954 34.2879 31.1496 -5.41954
475 1 35.0134 28.9025 -6.29348 35.0134 28.9025 -6.29348
476 2 37.1994 27.7127 -6.47442 37.1994 27.7127 -6.47442
477 2 35.7968 29.8755 -8.46398 35.7968 29.8755 -8.46398
478 1 -13.3298 29.9848 -7.19599 37.9619 29.9848 -7.19599
479 2 -11.1705 28.7368 -7.09377 40.1211 28.7368 -7.09377
480 2 -12.359 30.7031 -9.39671 38.9326 30.7031 -9.39671
481 1 -11.6564 28.2797 -9.54233 39.6353 28.2797 -9.54233
482 2 -9.64384 26.9848 -8.79938 41.6478 26.9848 -8.79938
483 2 -10.2553 28.4811 8.37988 41.0363 28.4811 -11.6201
484 1 -8.45166 28.8783 -9.91968 42.84 28.8783 -9.91968
485 2 -6.56665 27.6248 -8.84886 44.725 27.6248 -8.84886
486 2 -6.85336 28.8552 8.13569 44.4383 28.8552 -11.8643
487 1 -5.2059 29.3323 9.95377 -5.2059 29.3323 -10.0462
488 2 -2.89382 28.799 -9.27519 -2.89382 28.799 -9.27519
489 2 -3.76202 28.8807 7.96097 -3.76202 28.8807 -12.039
490 1 3.45055 33.313 4.60401 3.45055 33.313 4.60401
491 2 4.90821 34.269 6.39083 4.90821 34.269 6.39083
492 2 5.67862 32.7891 3.66077 5.67862 32.7891 3.66077
493 1 5.95825 32.0355 6.03543 5.95825 32.0355 6.03543
494 2 7.63199 32.7473 7.75124 7.63199 32.7473 7.75124
495 2 8.05639 31.4803 4.84521 8.05639 31.4803 4.84521
496 1 8.88666 33.5972 5.81139 8.88666 33.5972 5.81139
497 2 10.5215 34.0374 7.63197 10.5215 34.0374 7.63197
498 2 10.9482 33.0818 4.53239 10.9482 33.0818 4.53239
499 1 11.5067 31.9464 6.69559 11.5067 31.9464 6.69559
500 2 13.3664 32.0702 8.34829 13.3664 32.0702 8.34829
501 2 13.3824 31.5508 5.11911 13.3824 31.5508 5.11911
502 1 14.4355 33.3583 6.48988 14.4355 33.3583 6.48988
503 2 16.3561 33.3841 8.08769 16.3561 33.3841 8.08769
504 2 16.27 32.9701 4.84897 16.27 32.9701 4.84897
505 1 17.1206 31.4654 6.67686 17.1206 31.4654 6.67686
506 2 19.2446 31.1647 7.97478 19.2446 31.1647 7.97478
507 2 18.7185 31.3506 4.76093 18.7185 31.3506 4.76093
508 1 20.1028 32.7766 6.26698 20.1028 32.7766 6.26698
509 2 22.3098 32.4394 7.43036 22.3098 32.4394 7.43036
510 2 21.6014 32.6911 4.25881 21.6014 32.6911 4.25881
511 1 22.7222 30.834 5.55047 22.7222 30.834 5.55047
512 2 25.0786 30.221 6.21507 25.0786 30.221 6.21507
513 2 23.881 31.1628 3.3409 23.881 31.1628 3.3409
514 1 25.6656 32.1835 4.76416 25.6656 32.1835 4.76416
515 2 28.0684 31.5815 5.26338 28.0684 31.5815 5.26338
516 2 26.6937 32.6124 2.50065 26.6937 32.6124 2.50065
517 1 27.9339 30.488 3.01356 27.9339 30.488 3.01356
518 2 30.3399 29.7289 2.94859 30.3399 29.7289 2.94859
519 2 28.6105 31.3827 0.745674 28.6105 31.3827 0.745674
520 1 30.7412 32.0043 1.93275 30.7412 32.0043 1.93275
521 2 33.1475 31.2663 1.78913 33.1475 31.2663 1.78913
522 2 31.3555 32.9701 -0.326391 31.3555 32.9701 -0.326391
523 1 32.4631 30.7428 -0.560784 32.4631 30.7428 -0.560784
524 2 34.7522 29.8512 -1.05102 34.7522 29.8512 -1.05102
525 2 32.9549 32.0268 -2.67488 32.9549 32.0268 -2.67488
526 1 35.2554 32.2737 -1.62913 35.2554 32.2737 -1.62913
527 2 -13.8245 31.1332 -2.02169 37.4671 31.1332 -2.02169
528 2 -15.2843 33.547 -3.6549 36.0074 33.547 -3.6549
529 1 36.6068 31.2192 -4.41546 36.6068 31.2192 -4.41546
530 2 -12.4968 30.1178 -4.79884 38.7948 30.1178 -4.79884
531 2 -14.1118 32.303 -6.60144 37.1799 32.303 -6.60144
532 1 -11.8685 32.4486 -5.48945 39.4232 32.4486 -5.48945
533 2 -9.75531 31.0416 -5.53475 41.5363 31.0416 -5.53475
534 2 -10.822 33.3534 -7.58597 40.4696 33.3534 -7.58597
535 1 -10.2807 30.9077 -8.00023 41.011 30.9077 -8.00023
536 2 -8.23345 29.5339 -7.47766 43.0582 29.5339 -7.47766
537 2 -8.96077 31.3417 9.89479 42.3309 31.3417 -10.1052
538 1 -7.09169 31.5143 -8.45803 44.1999 31.5143 -8.45803
539 2 -5.2712 30.0151 -7.64473 46.0204 30.0151 -7.64473
540 2 -5.31837 31.8125 9.82574 45.9733 31.8125 -10.1743