ITEM: TIMESTEP
5306000
ITEM: NUMBER OF ATOMS
810
ITEM: BOX BOUNDS xy xz yz pp pp pp
-2.4223207887253313e+01 5.2154620611319167e+01 -2.5086192275933215e+01
8.1394622342039402e-01 5.0202268776579182e+01 0.0000000000000000e+00
-1.0000000000000000e+01 1.0000000000000000e+01 0.0000000000000000e+00
ITEM: ATOMS id type x y z xu yu zu
1 1 0.720512 50.2348 0.747706 -25.4849 0.846516 0.747706
2 2 28.069 1.53759 1.54337 -23.2226 1.53759 1.54337
3 2 2.27961 50.1724 -1.20429 -23.9258 0.784089 -1.20429
4 1 34.9248 3.74188 -6.9993 -16.3669 3.74188 -6.9993
5 2 35.5373 4.47711 -4.66427 -15.7544 4.47711 -4.66427
6 2 37.1311 2.5985 -6.70082 -14.1605 2.5985 -6.70082
7 1 36.1015 2.04649 -4.44387 -15.1902 2.04649 -4.44387
8 2 36.3884 2.82065 -2.05277 -14.9032 2.82065 -2.05277
9 2 38.3783 1.14932 -3.90447 -12.9134 1.14932 -3.90447
10 1 38.7012 3.33689 -2.79385 -12.5904 3.33689 -2.79385
11 2 38.8982 4.12814 -0.424856 -12.3934 4.12814 -0.424856
12 2 40.9495 2.41539 -2.27995 -10.3422 2.41539 -2.27995
13 1 39.8119 1.79798 -0.0880909 -11.4798 1.79798 -0.0880909
14 2 40.2767 2.28474 2.34264 -11.0149 2.28474 2.34264
15 2 42.2468 1.15872 0.0152804 -9.04488 1.15872 0.0152804
16 1 42.4729 3.23001 1.46557 -8.81873 3.23001 1.46557
17 2 42.9807 3.62472 3.90688 -8.31098 3.62472 3.90688
18 2 44.9386 2.71409 1.47609 -6.35305 2.71409 1.47609
19 1 44.3081 1.53593 3.5879 -6.98357 1.53593 3.5879
20 2 45.2684 1.48475 5.93336 -6.02328 1.48475 5.93336
21 2 46.7857 1.26925 3.06247 -4.50595 1.26925 3.06247
22 1 47.1225 2.88562 4.95889 -4.1691 2.88562 4.95889
23 2 48.254 2.64722 7.20991 -3.03762 2.64722 7.20991
24 2 49.5489 2.6782 4.2243 -1.74272 2.6782 4.2243
25 1 49.6117 0.937043 5.9944 -1.67994 0.937043 5.9944
26 2 26.0619 49.7699 7.91425 -0.143591 0.381616 7.91425
27 2 51.8438 1.01448 4.78928 0.552181 1.01448 4.78928
28 1 1.29003 2.15176 6.88834 1.29003 2.15176 6.88834
29 2 2.97671 1.48301 8.63714 2.97671 1.48301 8.63714
30 2 3.4141 2.32568 5.5178 3.4141 2.32568 5.5178
31 1 -21.0622 49.6246 6.73003 4.02401 0.236263 6.73003
32 2 -19.1372 48.8371 8.13677 5.949 -0.551256 8.13677
33 2 -19.1883 50.0201 5.09544 5.89788 0.631797 5.09544
34 1 7.02074 1.47739 7.16002 7.02074 1.47739 7.16002
35 2 -16.0107 50.0921 8.37634 9.07551 0.703766 8.37634
36 2 8.73982 1.97042 5.39108 8.73982 1.97042 5.39108
37 1 -15.3893 49.1551 6.12185 9.69694 -0.233188 6.12185
38 2 -13.1937 48.4406 7.08505 11.8925 -0.947683 7.08505
39 2 -13.9089 49.7665 4.19362 11.1773 0.378163 4.19362
40 1 12.6048 1.22871 6.0697 12.6048 1.22871 6.0697
41 2 -10.1699 50.0238 6.80258 14.9163 0.635514 6.80258
42 2 13.8474 1.9702 4.02371 13.8474 1.9702 4.02371
43 1 -9.9984 49.22 4.42695 15.0878 -0.168342 4.42695
44 2 -7.63155 48.849 5.10562 17.4546 -0.539329 5.10562
45 2 -8.89435 49.9265 2.29562 16.1918 0.53814 2.29562
46 1 17.7904 1.63024 3.89184 17.7904 1.63024 3.89184
47 2 20.1777 1.38504 4.59664 20.1777 1.38504 4.59664
48 2 18.8663 2.30355 1.7283 18.8663 2.30355 1.7283
49 1 -4.76449 49.7459 2.30503 20.3217 0.357594 2.30503
50 2 -2.4445 49.619 3.26078 22.6417 0.230681 3.26078
51 2 -3.47473 50.2462 0.210573 21.6115 0.857834 0.210573
52 1 23.0143 2.20873 1.77876 23.0143 2.20873 1.77876
53 2 25.2491 2.03365 2.85968 25.2491 2.03365 2.85968
54 2 24.6986 2.95747 0.0924731 24.6986 2.95747 0.0924731
55 1 33.5946 5.64808 -9.28916 -17.6971 5.64808 -9.28916
56 2 34.5254 6.20687 -7.01649 -16.7662 6.20687 -7.01649
57 2 35.7397 4.35445 -9.32089 -15.5519 4.35445 -9.32089
58 1 36.6705 6.36414 -8.24009 -14.6211 6.36414 -8.24009
59 2 37.2773 7.15005 -5.93953 -14.0144 7.15005 -5.93953
60 2 38.7608 5.0415 -7.94029 -12.5309 5.0415 -7.94029
61 1 37.7982 4.72139 -5.63637 -13.4934 4.72139 -5.63637
62 2 38.0485 5.69805 -3.34147 -13.2432 5.69805 -3.34147
63 2 39.9231 3.59981 -4.99294 -11.3685 3.59981 -4.99294
64 1 40.4285 5.89542 -4.11687 -10.8631 5.89542 -4.11687
65 2 40.4831 6.97103 -1.85922 -10.8086 6.97103 -1.85922
66 2 42.5768 4.94371 -3.3253 -8.71486 4.94371 -3.3253
67 1 41.2442 4.67663 -1.19018 -10.0475 4.67663 -1.19018
68 2 41.4019 5.47549 1.18031 -9.88975 5.47549 1.18031
69 2 43.5657 3.93321 -0.70238 -7.72598 3.93321 -0.70238
70 1 43.7247 6.16439 0.463877 -7.56691 6.16439 0.463877
71 2 43.929 6.88051 2.86651 -7.36261 6.88051 2.86651
72 2 46.0973 5.49534 0.874471 -5.19434 5.49534 0.874471
73 1 45.1104 4.68423 3.04424 -6.18126 4.68423 3.04424
74 2 45.7519 4.90983 5.47984 -5.53969 4.90983 5.47984
75 2 47.5882 4.21006 2.89152 -3.70344 4.21006 2.89152
76 1 47.7981 6.06815 4.56801 -3.49357 6.06815 4.56801
77 2 48.622 6.11101 6.95967 -2.66961 6.11101 6.95967
78 2 -1.02539 5.62963 4.19918 -1.02539 5.62963 4.19918
79 1 49.9918 4.15437 6.19976 -1.29984 4.15437 6.19976
80 2 0.0118245 3.75988 8.32471 0.0118245 3.75988 8.32471
81 2 1.05539 4.01693 5.25321 1.05539 4.01693 5.25321
82 1 1.62413 5.37139 7.27789 1.62413 5.37139 7.27789
83 2 3.11331 4.86679 9.25344 3.11331 4.86679 9.25344
84 2 3.88476 5.31666 6.12461 3.88476 5.31666 6.12461
85 1 4.28513 3.3554 7.6221 4.28513 3.3554 7.6221
86 2 6.11582 2.64308 9.19713 6.11582 2.64308 9.19713
87 2 6.28141 3.61751 6.0926 6.28141 3.61751 6.0926
88 1 7.29288 4.59487 8.16241 7.29288 4.59487 8.16241
89 2 9.27907 3.89875 9.53576 9.27907 3.89875 9.53576
90 2 9.11929 4.96186 6.46087 9.11929 4.96186 6.46087
91 1 10.0012 2.80633 7.38598 10.0012 2.80633 7.38598
92 2 12.1991 2.13444 8.38178 12.1991 2.13444 8.38178
93 2 11.5027 3.39836 5.4577 11.5027 3.39836 5.4577
94 1 12.9239 4.2846 7.31814 12.9239 4.2846 7.31814
95 2 15.2157 3.68741 8.12354 15.2157 3.68741 8.12354
96 2 14.2247 5.01119 5.29019 14.2247 5.01119 5.29019
97 1 15.4226 2.85842 5.75856 15.4226 2.85842 5.75856
98 2 17.8165 2.39217 6.28802 17.8165 2.39217 6.28802
99 2 16.4238 3.70603 3.61638 16.4238 3.70603 3.61638
100 1 18.1077 4.62288 5.2097 18.1077 4.62288 5.2097
101 2 20.5586 4.83369 5.34959 20.5586 4.83369 5.34959
102 2 18.8563 5.36829 2.96626 18.8563 5.36829 2.96626
103 1 20.4269 3.47897 3.27689 20.4269 3.47897 3.27689
104 2 22.7193 3.03778 4.11725 22.7193 3.03778 4.11725
105 2 22.0471 4.50077 1.70801 22.0471 4.50077 1.70801
106 1 32.0337 7.85131 8.89896 32.0337 7.85131 -11.101
107 2 33.2732 8.08968 -8.92203 33.2732 8.08968 -8.92203
108 2 34.1262 6.55342 8.40768 34.1262 6.55342 -11.5923
109 1 35.2429 8.38835 9.60891 -16.0487 8.38835 -10.3911
110 2 36.2383 8.82786 -8.13538 -15.0533 8.82786 -8.13538
111 2 37.283 6.97047 9.39647 -14.0086 6.97047 -10.6035
112 1 38.3315 8.97696 -9.51373 -12.9601 8.97696 -9.51373
113 2 39.0499 9.67328 -7.20804 -12.2417 9.67328 -7.20804
114 2 40.4176 7.61299 -9.32854 -10.8741 7.61299 -9.32854
115 1 39.5551 7.22436 -6.99132 -11.7365 7.22436 -6.99132
116 2 39.8795 8.25884 -4.72596 -11.4122 8.25884 -4.72596
117 2 41.6329 6.02062 -6.32486 -9.65871 6.02062 -6.32486
118 1 42.2544 8.31929 -5.52946 -9.03728 8.31929 -5.52946
119 2 42.3107 9.5599 -3.34546 -8.98089 9.5599 -3.34546
120 2 44.307 7.28746 -4.57151 -6.98461 7.28746 -4.57151
121 1 42.8952 7.29083 -2.48641 -8.39639 7.29083 -2.48641
122 2 42.8488 8.39817 -0.24259 -8.44281 8.39817 -0.24259
123 2 45.081 6.47903 -1.64825 -6.21068 6.47903 -1.64825
124 1 45.2652 8.82989 -0.784897 -6.02647 8.82989 -0.784897
125 2 45.2315 9.87696 1.49554 -6.06015 9.87696 1.49554
126 2 47.5025 8.07811 0.00353556 -3.78915 8.07811 0.00353556
127 1 46.2119 7.66706 2.13725 -5.07977 7.66706 2.13725
128 2 46.541 8.23435 4.57324 -4.75063 8.23435 4.57324
129 2 48.6265 7.02352 2.39363 -2.66509 7.02352 2.39363
130 1 -2.5327 9.11553 3.76905 -2.5327 9.11553 3.76905
131 2 -2.03238 9.50614 6.21296 -2.03238 9.50614 6.21296
132 2 -0.0911317 8.49213 3.81366 -0.0911317 8.49213 3.81366
133 1 -0.729946 7.37305 5.97239 -0.729946 7.37305 5.97239
134 2 0.288442 7.24843 8.28267 0.288442 7.24843 8.28267
135 2 1.70261 6.98964 5.36905 1.70261 6.98964 5.36905
136 1 2.10457 8.62141 7.22109 2.10457 8.62141 7.22109
137 2 3.32383 8.35662 9.41424 3.32383 8.35662 9.41424
138 2 4.47352 8.32494 6.3746 4.47352 8.32494 6.3746
139 1 4.59118 6.57579 8.16641 4.59118 6.57579 8.16641
140 2 6.26823 6.02327 9.96363 6.26823 6.02327 9.96363
141 2 6.71976 6.61457 6.79528 6.71976 6.61457 6.79528
142 1 7.58918 7.81457 8.80888 7.58918 7.81457 8.80888
143 2 9.44238 7.26459 10.4149 9.44238 7.26459 10.4149
144 2 9.555 7.98344 7.22394 9.555 7.98344 7.22394
145 1 10.2928 5.92187 8.45588 10.2928 5.92187 8.45588
146 2 12.4533 5.28968 9.57435 12.4533 5.28968 9.57435
147 2 11.8793 6.42986 6.5541 11.8793 6.42986 6.5541
148 1 13.2251 7.37059 8.43308 13.2251 7.37059 8.43308
149 2 15.6142 7.29308 9.07809 15.6142 7.29308 9.07809
150 2 14.4597 7.86702 6.33184 14.4597 7.86702 6.33184
151 1 15.7603 5.87305 7.05156 15.7603 5.87305 7.05156
152 2 18.0382 5.09275 7.64718 18.0382 5.09275 7.64718
153 2 17.3266 6.95494 5.46181 17.3266 6.95494 5.46181
154 1 28.3295 12.9745 7.72986 28.3295 12.9745 -12.2701
155 2 30.202 12.3643 9.28217 30.202 12.3643 -10.7178
156 2 30.081 12.1834 6.09759 30.081 12.1834 -13.9024
157 1 30.2438 10.3451 7.82728 30.2438 10.3451 -12.1727
158 2 31.8061 10.1616 9.79026 31.8061 10.1616 -10.2097
159 2 32.2233 9.20555 6.77046 32.2233 9.20555 -13.2295
160 1 33.537 10.7756 8.13203 33.537 10.7756 -11.868
161 2 34.9072 10.7886 -9.76883 34.9072 10.7886 -9.76883
162 2 35.4742 9.42279 7.32817 35.4742 9.42279 -12.6718
163 1 36.7499 11.193 8.57712 -14.5418 11.193 -11.4229
164 2 37.8765 11.4307 -9.18696 -13.4151 11.4307 -9.18696
165 2 38.7929 9.80933 8.14646 -12.4988 9.80933 -11.8535
166 1 39.8893 11.7257 9.35042 -11.4023 11.7257 -10.6496
167 2 40.7599 12.2194 -8.33861 -10.5318 12.2194 -8.33861
168 2 41.9838 10.3474 9.30049 -9.30781 10.3474 -10.6995
169 1 41.2827 9.75721 -8.34502 -10.009 9.75721 -8.34502
170 2 41.7187 10.7099 -6.05557 -9.57296 10.7099 -6.05557
171 2 43.3651 8.49214 -7.78401 -7.92656 8.49214 -7.78401
172 1 44.0638 10.7497 -6.93454 -7.2278 10.7497 -6.93454
173 2 44.2341 11.9581 -4.72737 -7.05752 11.9581 -4.72737
174 2 46.0957 9.61589 -6.02595 -5.19593 9.61589 -6.02595
175 1 44.7506 9.66281 -3.90453 -6.54109 9.66281 -3.90453
176 2 44.6103 11.0145 -1.79664 -6.68131 11.0145 -1.79664
177 2 46.7945 8.80093 -2.7923 -4.49712 8.80093 -2.7923
178 1 -4.21538 11.2129 -2.18545 -4.21538 11.2129 -2.18545
179 2 -4.42446 12.5518 -0.078893 -4.42446 12.5518 -0.078893
180 2 -2.13503 10.4491 -1.07536 -2.13503 10.4491 -1.07536
181 1 -3.66497 10.401 0.938922 -3.66497 10.401 0.938922
182 2 -3.61564 11.3212 3.27998 -3.61564 11.3212 3.27998
183 2 -1.36721 9.67381 1.59935 -1.36721 9.67381 1.59935
184 1 -1.26469 11.9462 2.64556 -1.26469 11.9462 2.64556
185 2 -1.05869 12.7049 5.03764 -1.05869 12.7049 5.03764
186 2 1.09033 11.2184 3.10215 1.09033 11.2184 3.10215
187 1 0.0959833 10.4927 5.30572 0.0959833 10.4927 5.30572
188 2 0.794334 10.7103 7.71963 0.794334 10.7103 7.71963
189 2 2.53869 9.90193 5.10145 2.53869 9.90193 5.10145
190 1 2.81409 11.8028 6.69965 2.81409 11.8028 6.69965
191 2 3.66319 11.8332 9.07263 3.66319 11.8332 9.07263
192 2 5.25659 11.3318 6.26279 5.25659 11.3318 6.26279
193 1 4.99935 9.84444 8.28364 4.99935 9.84444 8.28364
194 2 6.44264 9.47395 -9.68129 6.44264 9.47395 10.3187
195 2 7.26825 9.67712 7.16125 7.26825 9.67712 7.16125
196 1 7.9328 11.073 9.11244 7.9328 11.073 9.11244
197 2 9.85535 10.9811 -9.31911 9.85535 10.9811 10.6809
198 2 9.91015 10.9276 7.59722 9.91015 10.9276 7.59722
199 1 10.5717 9.12614 9.19034 10.5717 9.12614 9.19034
200 2 12.4076 8.23683 -9.37711 12.4076 8.23683 10.6229
201 2 12.7427 9.7949 8.1669 12.7427 9.7949 8.1669
202 1 24.8903 17.5174 -9.35273 24.8903 17.5174 -9.35273
203 2 27.1122 16.4454 -9.07583 27.1122 16.4454 -9.07583
204 2 25.8819 17.8878 8.35635 25.8819 17.8878 -11.6436
205 1 26.4775 15.4631 8.7061 26.4775 15.4631 -11.2939
206 2 28.5865 14.5333 9.6631 28.5865 14.5333 -10.3369
207 2 27.881 15.2021 6.62445 27.881 15.2021 -13.3756
208 1 29.7087 16.0264 8.04422 29.7087 16.0264 -11.9558
209 2 31.7115 15.1963 9.29863 31.7115 15.1963 -10.7014
210 2 31.1502 15.3893 6.10113 31.1502 15.3893 -13.8989
211 1 31.6384 13.4013 7.55687 31.6384 13.4013 -12.4431
212 2 33.3553 12.9623 9.33167 33.3553 12.9623 -10.6683
213 2 33.3846 12.3065 6.14379 33.3846 12.3065 -13.8562
214 1 34.8958 13.7657 7.52568 34.8958 13.7657 -12.4743
215 2 36.4072 13.5048 9.52189 36.4072 13.5048 -10.4781
216 2 36.8041 12.5482 6.44275 36.8041 12.5482 -13.5573
217 1 38.1407 14.1587 7.83846 -13.151 14.1587 -12.1615
218 2 39.4341 14.123 -10.0003 -11.8576 14.123 -10.0003
219 2 40.1567 12.8529 7.09939 -11.135 12.8529 -12.9006
220 1 41.3371 14.6164 8.44981 -9.95451 14.6164 -11.5502
221 2 42.4029 14.8477 -9.27901 -8.88879 14.8477 -9.27901
222 2 43.4166 13.2525 8.07988 -7.87499 13.2525 -11.9201
223 1 42.9211 12.3999 -9.59121 -8.37053 12.3999 -9.59121
224 2 43.5281 13.1778 -7.27086 -7.76352 13.1778 -7.27086
225 2 45.0168 11.0657 -9.2482 -6.27488 11.0657 -9.2482
226 1 45.8163 13.2441 -8.2858 -5.47536 13.2441 -8.2858
227 2 -5.14912 14.3123 -6.0202 -5.14912 14.3123 -6.0202
228 2 -3.418 12.0161 -7.54874 -3.418 12.0161 -7.54874
229 1 -4.6316 11.9637 -5.34617 -4.6316 11.9637 -5.34617
230 2 -4.70534 13.3925 -3.26893 -4.70534 13.3925 -3.26893
231 2 -2.66752 10.9987 -4.15072 -2.66752 10.9987 -4.15072
232 1 -2.23035 13.4108 -3.64112 -2.23035 13.4108 -3.64112
233 2 -2.49986 14.9502 -1.67335 -2.49986 14.9502 -1.67335
234 2 -0.288372 12.6303 -2.30604 -0.288372 12.6303 -2.30604
235 1 -1.96178 12.8622 -0.435055 -1.96178 12.8622 -0.435055
236 2 -2.14718 14.1028 1.73625 -2.14718 14.1028 1.73625
237 2 0.187689 12.1403 0.582852 0.187689 12.1403 0.582852
238 1 0.290699 14.5273 1.31746 0.290699 14.5273 1.31746
239 2 0.190737 15.6004 3.59373 0.190737 15.6004 3.59373
240 2 2.54729 13.8382 2.15356 2.54729 13.8382 2.15356
241 1 1.22735 13.4207 4.27518 1.22735 13.4207 4.27518
242 2 1.61781 14.0143 6.6902 1.61781 14.0143 6.6902
243 2 3.62569 12.69 4.47704 3.62569 12.69 4.47704
244 1 3.81626 14.8009 5.78972 3.81626 14.8009 5.78972
245 2 4.7079 15.4037 8.05562 4.7079 15.4037 8.05562
246 2 6.21309 14.0877 5.83016 6.21309 14.0877 5.83016
247 1 5.55723 13.0733 8.01013 5.55723 13.0733 8.01013
248 2 6.40085 12.6366 -9.67441 6.40085 12.6366 10.3256
249 2 8.04991 13.3361 8.07284 8.04991 13.3361 8.07284
250 1 22.8865 19.8161 -3.76392 22.8865 19.8161 -3.76392
251 2 25.0078 18.8628 -4.5784 25.0078 18.8628 -4.5784
252 2 23.2483 21.2351 -5.80519 23.2483 21.2351 -5.80519
253 1 23.6961 18.9598 -6.73206 23.6961 18.9598 -6.73206
254 2 25.906 17.911 -7.08246 25.906 17.911 -7.08246
255 2 24.3088 19.9311 -8.97458 24.3088 19.9311 -8.97458
256 1 26.5696 20.0953 -8.0268 26.5696 20.0953 -8.0268
257 2 28.7924 18.986 -8.13169 28.7924 18.986 -8.13169
258 2 27.1816 20.7202 9.62988 27.1816 20.7202 -10.3701
259 1 27.9583 18.3437 9.58731 27.9583 18.3437 -10.4127
260 2 30.1385 17.2773 -9.82635 30.1385 17.2773 -9.82635
261 2 28.9978 18.3165 7.31042 28.9978 18.3165 -12.6896
262 1 31.0314 19.0162 8.61171 31.0314 19.0162 -11.3883
263 2 33.1145 17.9629 9.54879 33.1145 17.9629 -10.4512
264 2 32.3388 18.7058 6.48612 32.3388 18.7058 -13.5139
265 1 32.9217 16.4739 7.518 32.9217 16.4739 -12.482
266 2 34.7649 15.7529 9.07525 34.7649 15.7529 -10.9247
267 2 34.5845 15.6228 5.83684 34.5845 15.6228 -14.1632
268 1 36.1841 16.8555 7.33659 36.1841 16.8555 -12.6634
269 2 37.8501 16.3058 9.14485 37.8501 16.3058 -10.8552
270 2 38.0083 15.8307 5.93854 38.0083 15.8307 -14.0615
271 1 39.4497 17.2262 7.4559 -11.8419 17.2262 -12.5441
272 2 40.9345 16.8992 9.46253 -10.3572 16.8992 -10.5375
273 2 41.3902 16.0522 6.36343 -9.90141 16.0522 -13.6366
274 1 42.6951 17.6183 7.8362 -8.59654 17.6183 -12.1638
275 2 -7.32307 17.5503 -9.99269 -7.32307 17.5503 -9.99269
276 2 -6.56139 16.3295 7.09956 -6.56139 16.3295 -12.9004
277 1 44.4598 15.1677 9.33097 -6.8318 15.1677 -10.669
278 2 -6.02457 15.6959 -8.33823 -6.02457 15.6959 -8.33823
279 2 -4.72316 13.798 9.3688 -4.72316 13.798 -10.6312
280 1 -3.82154 15.8597 -9.51331 -3.82154 15.8597 -9.51331
281 2 -3.30702 16.7067 -7.18652 -3.30702 16.7067 -7.18652
282 2 -1.72371 14.5581 -9.04307 -1.72371 14.5581 -9.04307
283 1 -2.75774 14.3064 -6.76105 -2.75774 14.3064 -6.76105
284 2 -2.72388 15.6429 -4.60953 -2.72388 15.6429 -4.60953
285 2 -0.764549 13.2601 -5.66898 -0.764549 13.2601 -5.66898
286 1 -0.265017 15.645 -5.06993 -0.265017 15.645 -5.06993
287 2 -0.458025 17.2052 -3.0755 -0.458025 17.2052 -3.0755
288 2 1.66089 14.7879 -3.73336 1.66089 14.7879 -3.73336
289 1 -0.00816244 15.0788 -1.88115 -0.00816244 15.0788 -1.88115
290 2 -0.39392 16.5913 0.0823402 -0.39392 16.5913 0.0823402
291 2 1.98801 14.4206 -0.569189 1.98801 14.4206 -0.569189
292 1 2.07815 16.8664 -0.0966926 2.07815 16.8664 -0.0966926
293 2 1.48238 18.1216 1.97296 1.48238 18.1216 1.97296
294 2 4.10778 17.0627 1.30629 4.10778 17.0627 1.30629
295 1 2.56587 16.1565 3.05427 2.56587 16.1565 3.05427
296 2 3.39049 17.1843 5.16185 3.39049 17.1843 5.16185
297 2 4.81828 15.2036 3.51987 4.81828 15.2036 3.51987
298 1 21.59 20.9815 2.33188 21.59 20.9815 2.33188
299 2 23.6964 20.0485 1.36843 23.6964 20.0485 1.36843
300 2 21.935 22.5282 0.383818 21.935 22.5282 0.383818
301 1 22.3024 20.3372 -0.691217 22.3024 20.3372 -0.691217
302 2 24.3341 19.4097 -1.74504 24.3341 19.4097 -1.74504
303 2 22.6048 21.9709 -2.56788 22.6048 21.9709 -2.56788
304 1 25.0029 21.7675 -2.0415 25.0029 21.7675 -2.0415
305 2 27.0491 20.8762 -3.09438 27.0491 20.8762 -3.09438
306 2 25.0687 23.323 -3.99215 25.0687 23.323 -3.99215
307 1 25.6137 21.1896 -5.13388 25.6137 21.1896 -5.13388
308 2 27.7686 20.1805 -5.81628 27.7686 20.1805 -5.81628
309 2 25.8723 22.3784 -7.3136 25.8723 22.3784 -7.3136
310 1 28.2664 22.5129 -6.57473 28.2664 22.5129 -6.57473
311 2 30.4469 21.3899 -7.02286 30.4469 21.3899 -7.02286
312 2 28.7186 23.4533 -8.8544 28.7186 23.4533 -8.8544
313 1 29.4335 21.0919 -9.32112 29.4335 21.0919 -9.32112
314 2 31.6292 19.9035 -9.09798 31.6292 19.9035 -9.09798
315 2 30.3126 21.418 8.34745 30.3126 21.418 -11.6525
316 1 32.4481 21.868 9.59415 32.4481 21.868 -10.4059
317 2 34.5794 20.6708 -9.82373 34.5794 20.6708 -9.82373
318 2 33.5759 21.9022 7.34482 33.5759 21.9022 -12.6552
319 1 34.2166 19.528 7.94289 34.2166 19.528 -12.0571
320 2 36.1717 18.566 9.20473 36.1717 18.566 -10.7953
321 2 35.7371 18.971 6.01491 35.7371 18.971 -13.9851
322 1 37.457 19.9497 7.56666 37.457 19.9497 -12.4333
323 2 39.2776 19.1438 9.10404 39.2776 19.1438 -10.896
324 2 39.1401 19.1728 5.86232 39.1401 19.1728 -14.1377
325 1 40.7203 20.3293 7.43938 -10.5713 20.3293 -12.5606
326 2 42.384 19.7168 9.2211 -8.90766 19.7168 -10.7789
327 2 42.5468 19.3583 6.00104 -8.74485 19.3583 -13.999
328 1 -7.30198 20.692 7.56861 -7.30198 20.692 -12.4314
329 2 -5.83684 20.31 9.57377 -5.83684 20.31 -10.4262
330 2 -5.3403 19.5624 6.458 -5.3403 19.5624 -13.542
331 1 -5.39679 18.0651 8.49595 -5.39679 18.0651 -11.504
332 2 -4.39308 18.2903 -9.20156 -4.39308 18.2903 -9.20156
333 2 -3.28278 16.7314 8.17836 -3.28278 16.7314 -11.8216
334 1 -2.29609 18.6366 9.48467 -2.29609 18.6366 -10.5153
335 2 -1.58096 19.1975 -8.15436 -1.58096 19.1975 -8.15436
336 2 -0.146006 17.3309 9.58851 -0.146006 17.3309 -10.4115
337 1 -0.977867 16.7606 -8.09504 -0.977867 16.7606 -8.09504
338 2 -0.792598 17.9457 -5.8499 -0.792598 17.9457 -5.8499
339 2 1.07157 15.6129 -7.19822 1.07157 15.6129 -7.19822
340 1 1.62106 17.9422 -6.48124 1.62106 17.9422 -6.48124
341 2 1.34762 19.3433 -4.44102 1.34762 19.3433 -4.44102
342 2 3.66904 17.5297 -5.15442 3.66904 17.5297 -5.15442
343 1 2.01484 17.2224 -3.32636 2.01484 17.2224 -3.32636
344 2 2.20266 18.8963 -1.49687 2.20266 18.8963 -1.49687
345 2 3.80867 16.4027 -1.8218 3.80867 16.4027 -1.8218
346 1 18.6704 23.6442 7.34528 18.6704 23.6442 7.34528
347 2 21.0914 22.8905 7.37735 21.0914 22.8905 7.37735
348 2 19.4336 24.3622 5.07899 19.4336 24.3622 5.07899
349 1 20.4122 22.0705 5.1069 20.4122 22.0705 5.1069
350 2 22.7054 21.1729 4.56393 22.7054 21.1729 4.56393
351 2 20.9044 23.2738 2.96409 20.9044 23.2738 2.96409
352 1 23.2038 23.4802 3.86875 23.2038 23.4802 3.86875
353 2 25.3987 22.4446 3.27711 25.3987 22.4446 3.27711
354 2 23.6275 24.6924 1.71047 23.6275 24.6924 1.71047
355 1 24.3225 22.4096 1.02433 24.3225 22.4096 1.02433
356 2 26.3756 21.4363 0.0139813 26.3756 21.4363 0.0139813
357 2 24.5018 23.9326 -0.960864 24.5018 23.9326 -0.960864
358 1 26.9392 23.8557 -0.361075 26.9392 23.8557 -0.361075
359 2 28.9733 22.9614 -1.48503 28.9733 22.9614 -1.48503
360 2 26.9954 25.4198 -2.32837 26.9954 25.4198 -2.32837
361 1 27.525 23.3007 -3.49947 27.525 23.3007 -3.49947
362 2 29.614 22.357 -4.44276 29.614 22.357 -4.44276
363 2 27.6457 24.7093 -5.56029 27.6457 24.7093 -5.56029
364 1 30.0868 24.755 -4.97964 30.0868 24.755 -4.97964
365 2 32.2207 23.683 -5.69084 32.2207 23.683 -5.69084
366 2 30.3895 25.9363 -7.16834 30.3895 25.9363 -7.16834
367 1 31.0494 23.637 -7.93729 31.0494 23.637 -7.93729
368 2 33.2313 22.4157 -8.05712 33.2313 22.4157 -8.05712
369 2 31.7455 24.2875 9.73835 31.7455 24.2875 -10.2616
370 1 33.9735 24.5475 -9.13067 33.9735 24.5475 -9.13067
371 2 36.1329 23.2965 -8.90245 36.1329 23.2965 -8.90245
372 2 34.8957 24.9058 8.55919 34.8957 24.9058 -11.4408
373 1 35.5707 22.477 8.76204 35.5707 22.477 -11.238
374 2 37.6203 21.349 9.67663 37.6203 21.349 -10.3234
375 2 36.9012 22.2405 6.63888 36.9012 22.2405 -13.3611
376 1 38.7596 22.9798 8.1609 38.7596 22.9798 -11.8391
377 2 40.7032 21.9633 9.38101 40.7032 21.9633 -10.619
378 2 40.2738 22.4976 6.20801 40.2738 22.4976 -13.792
379 1 -9.29463 23.4047 7.79624 -9.29463 23.4047 -12.2038
380 2 -7.50208 22.5244 9.31322 -7.50208 22.5244 -10.6868
381 2 -7.59092 22.7131 6.07394 -7.59092 22.7131 -13.9261
382 1 -6.0253 23.7712 7.72821 -6.0253 23.7712 -12.2718
383 2 -4.4057 23.0848 9.51192 -4.4057 23.0848 -10.4881
384 2 -4.16157 22.9116 6.26404 -4.16157 22.9116 -13.736
385 1 -4.05246 21.0732 7.99825 -4.05246 21.0732 -12.0018
386 2 -2.85328 20.9844 -9.78473 -2.85328 20.9844 -9.78473
387 2 -1.95602 19.8481 7.2965 -1.95602 19.8481 -12.7035
388 1 -0.889125 21.5438 8.7927 -0.889125 21.5438 -11.2073
389 2 -0.187516 21.7154 -8.81744 -0.187516 21.7154 -8.81744
390 2 1.4235 20.6372 8.74126 1.4235 20.6372 -11.2587
391 1 0.64393 19.3991 -9.24911 0.64393 19.3991 -9.24911
392 2 1.98955 20.2557 -7.32519 1.98955 20.2557 -7.32519
393 2 2.53627 17.8332 -8.80307 2.53627 17.8332 -8.80307
394 1 13.9304 27.5486 9.40085 13.9304 27.5486 9.40085
395 2 16.2344 27.4404 -9.54994 16.2344 27.4404 10.4501
396 2 15.363 27.3128 7.3804 15.363 27.3128 7.3804
397 1 16.4517 25.5472 8.80699 16.4517 25.5472 8.80699
398 2 18.8737 25.0708 9.40373 18.8737 25.0708 9.40373
399 2 17.5489 25.7535 6.58057 17.5489 25.7535 6.58057
400 1 19.382 26.8731 7.81571 19.382 26.8731 7.81571
401 2 21.7063 26.1539 8.42725 21.7063 26.1539 8.42725
402 2 20.4754 27.1746 5.58637 20.4754 27.1746 5.58637
403 1 21.5392 25.0102 6.21738 21.5392 25.0102 6.21738
404 2 23.8533 24.0486 6.21119 23.8533 24.0486 6.21119
405 2 22.2792 25.7873 3.94856 22.2792 25.7873 3.94856
406 1 24.4302 26.2584 5.1573 24.4302 26.2584 5.1573
407 2 26.7595 25.3303 4.93902 26.7595 25.3303 4.93902
408 2 25.0075 27.1038 2.85223 25.0075 27.1038 2.85223
409 1 25.9688 24.8055 2.6161 25.9688 24.8055 2.6161
410 2 28.1505 23.8549 1.83005 28.1505 23.8549 1.83005
411 2 26.2189 26.0917 0.459064 26.2189 26.0917 0.459064
412 1 28.6122 26.251 1.20808 28.6122 26.251 1.20808
413 2 30.763 25.339 0.297167 30.763 25.339 0.297167
414 2 28.7627 27.6034 -0.923145 28.7627 27.6034 -0.923145
415 1 29.4569 25.3983 -1.83874 29.4569 25.3983 -1.83874
416 2 31.5128 24.5029 -2.91643 31.5128 24.5029 -2.91643
417 2 29.5055 26.9013 -3.84489 29.5055 26.9013 -3.84489
418 1 31.9668 26.9343 -3.34075 31.9668 26.9343 -3.34075
419 2 34.0779 25.9574 -4.21963 34.0779 25.9574 -4.21963
420 2 32.1301 28.2589 -5.45718 32.1301 28.2589 -5.45718
421 1 32.7776 26.0203 -6.39265 32.7776 26.0203 -6.39265
422 2 34.9401 24.8417 -6.80302 34.9401 24.8417 -6.80302
423 2 33.2847 26.9299 -8.67313 33.2847 26.9299 -8.67313
424 1 35.5909 27.0889 -7.69201 35.5909 27.0889 -7.69201
425 2 37.7581 25.8464 -7.77341 37.7581 25.8464 -7.77341
426 2 36.3157 27.7167 9.98854 36.3157 27.7167 -10.0115
427 1 37.0062 25.2902 9.86613 37.0062 25.2902 -10.1339
428 2 39.115 24.0609 -9.56878 39.115 24.0609 -9.56878
429 2 38.1394 25.3742 7.62344 38.1394 25.3742 -12.3766
430 1 -11.1634 25.8983 9.06558 40.1283 25.8983 -10.9344
431 2 -9.146 24.717 9.966 42.1456 24.717 -10.034
432 2 -9.80834 25.7328 6.95184 41.4833 25.7328 -13.0482
433 1 -7.95804 26.3797 8.52284 -7.95804 26.3797 -11.4772
434 2 -6.06543 25.297 9.76302 -6.06543 25.297 -10.237
435 2 -6.38564 25.992 6.58756 -6.38564 25.992 -13.4124
436 1 -4.70314 26.7505 8.27203 -4.70314 26.7505 -11.728
437 2 -3.09831 25.6901 9.86138 -3.09831 25.6901 -10.1386
438 2 -2.71771 26.3354 6.83507 -2.71771 26.3354 -13.1649
439 1 -2.76295 24.1161 7.95104 -2.76295 24.1161 -12.049
440 2 -0.621939 23.9925 9.23092 -0.621939 23.9925 -10.7691
441 2 -1.07831 22.8076 6.64271 -1.07831 22.8076 -13.3573
442 1 8.65104 31.0729 8.2807 8.65104 31.0729 8.2807
443 2 10.4917 31.7266 -10.146 10.4917 31.7266 9.85403
444 2 10.6328 30.4022 6.94746 10.6328 30.4022 6.94746
445 1 11.2846 29.4379 9.17831 11.2846 29.4379 9.17831
446 2 13.385 29.7239 -9.4555 13.385 29.7239 10.5445
447 2 13.017 28.8979 7.47989 13.017 28.8979 7.47989
448 1 14.2651 30.7692 8.50491 14.2651 30.7692 8.50491
449 2 16.2802 30.8064 -10.0189 16.2802 30.8064 9.9811
450 2 15.982 30.3403 6.75998 15.982 30.3403 6.75998
451 1 16.8973 28.8562 8.5579 16.8973 28.8562 8.5579
452 2 19.1071 28.5 9.68329 19.1071 28.5 9.68329
453 2 18.3289 28.7351 6.52197 18.3289 28.7351 6.52197
454 1 19.8829 30.1087 7.92795 19.8829 30.1087 7.92795
455 2 22.1581 29.6776 8.91295 22.1581 29.6776 8.91295
456 2 21.225 30.0276 5.8134 21.225 30.0276 5.8134
457 1 22.3485 28.0996 6.97706 22.3485 28.0996 6.97706
458 2 24.7179 27.3501 7.39746 24.7179 27.3501 7.39746
459 2 23.315 28.4583 4.6826 23.315 28.4583 4.6826
460 1 25.2766 29.3412 5.96656 25.2766 29.3412 5.96656
461 2 27.6834 28.5927 6.16541 27.6834 28.5927 6.16541
462 2 26.0714 29.7886 3.6112 26.0714 29.7886 3.6112
463 1 27.2332 27.581 3.91105 27.2332 27.581 3.91105
464 2 29.5545 26.6902 3.49257 29.5545 26.6902 3.49257
465 2 27.6516 28.5252 1.60016 27.6516 28.5252 1.60016
466 1 29.9463 28.9864 2.52341 29.9463 28.9864 2.52341
467 2 32.2467 28.1182 1.97306 32.2467 28.1182 1.97306
468 2 30.2654 30.0216 0.232807 30.2654 30.0216 0.232807
469 1 31.1888 27.7571 -0.273247 31.1888 27.7571 -0.273247
470 2 33.3129 26.8335 -1.22486 33.3129 26.8335 -1.22486
471 2 31.3235 29.1401 -2.38066 31.3235 29.1401 -2.38066
472 1 33.7638 29.2606 -1.75464 33.7638 29.2606 -1.75464
473 2 35.8884 28.3079 -2.65703 35.8884 28.3079 -2.65703
474 2 33.9222 30.5967 -3.87631 33.9222 30.5967 -3.87631
475 1 34.5582 28.3529 -4.80315 34.5582 28.3529 -4.80315
476 2 36.7006 27.2368 -5.41561 36.7006 27.2368 -5.41561
477 2 34.9104 29.4241 -7.03678 34.9104 29.4241 -7.03678
478 1 37.2679 29.5512 -6.18343 37.2679 29.5512 -6.18343
479 2 -11.8617 28.3435 -6.50873 39.43 28.3435 -6.50873
480 2 -13.4612 30.376 -8.48458 37.8305 30.376 -8.48458
481 1 -12.7671 27.9755 -8.84643 38.5245 27.9755 -8.84643
482 2 -10.6481 26.6669 -8.57062 40.6435 26.6669 -8.57062
483 2 -11.7703 28.3445 8.87778 39.5213 28.3445 -11.1222
484 1 -9.68821 28.6511 -9.75465 41.6034 28.6511 -9.75465
485 2 -7.63013 27.36 -9.1482 43.6615 27.36 -9.1482
486 2 -8.48531 28.8024 8.04199 42.8063 28.8024 -11.958
487 1 -6.5295 29.1753 9.5514 -6.5295 29.1753 -10.4486
488 2 -4.12013 28.6021 9.84785 -4.12013 28.6021 -10.1521
489 2 -5.47781 28.9179 7.29677 -5.47781 28.9179 -12.7032
490 1 3.62637 33.4939 5.27675 3.62637 33.4939 5.27675
491 2 5.00553 34.6387 7.01343 5.00553 34.6387 7.01343
492 2 5.89823 32.9264 4.46242 5.89823 32.9264 4.46242
493 1 6.10349 32.4044 6.90339 6.10349 32.4044 6.90339
494 2 7.67284 33.3579 8.59735 7.67284 33.3579 8.59735
495 2 8.27011 31.7561 5.89373 8.27011 31.7561 5.89373
496 1 9.01467 33.9923 6.63269 9.01467 33.9923 6.63269
497 2 10.579 34.6795 8.43785 10.579 34.6795 8.43785
498 2 11.1257 33.3437 5.50218 11.1257 33.3437 5.50218
499 1 11.6154 32.4988 7.80961 11.6154 32.4988 7.80961
500 2 13.4058 32.8897 9.49589 13.4058 32.8897 9.49589
501 2 13.5554 31.8973 6.38301 13.5554 31.8973 6.38301
502 1 14.5414 33.9008 7.51001 14.5414 33.9008 7.51001
503 2 16.4153 34.1821 9.13794 16.4153 34.1821 9.13794
504 2 16.4239 33.287 5.99676 16.4239 33.287 5.99676
505 1 17.2309 32.0815 8.05167 17.2309 32.0815 8.05167
506 2 19.3198 32.0224 9.43782 19.3198 32.0224 9.43782
507 2 18.8824 31.6691 6.22438 18.8824 31.6691 6.22438
508 1 20.2157 33.3374 7.51069 20.2157 33.3374 7.51069
509 2 22.399 33.212 8.75885 22.399 33.212 8.75885
510 2 21.7576 32.9441 5.57374 21.7576 32.9441 5.57374
511 1 22.8689 31.3326 7.1695 22.8689 31.3326 7.1695
512 2 25.2212 30.8615 7.96226 25.2212 30.8615 7.96226
513 2 24.0642 31.3081 4.95533 24.0642 31.3081 4.95533
514 1 25.8168 32.5634 6.21826 25.8168 32.5634 6.21826
515 2 28.2218 32.0654 6.82532 28.2218 32.0654 6.82532
516 2 26.8663 32.6473 3.92659 26.8663 32.6473 3.92659
517 1 28.1302 30.6389 4.76667 28.1302 30.6389 4.76667
518 2 30.5486 29.8982 4.78192 30.5486 29.8982 4.78192
519 2 28.7833 31.2033 2.38687 28.7833 31.2033 2.38687
520 1 30.9191 32.0076 3.44511 30.9191 32.0076 3.44511
521 2 33.3335 31.2731 3.32529 33.3335 31.2731 3.32529
522 2 31.4723 32.6861 1.06573 31.4723 32.6861 1.06573
523 1 32.605 30.4537 1.0712 32.605 30.4537 1.0712
524 2 34.8768 29.5574 0.481739 34.8768 29.5574 0.481739
525 2 32.9209 31.5456 -1.18994 32.9209 31.5456 -1.18994
526 1 35.2852 31.925 -0.352901 35.2852 31.925 -0.352901
527 2 -13.8166 30.8186 -0.930415 37.4751 30.8186 -0.930415
528 2 35.7727 33.0856 -2.5371 35.7727 33.0856 -2.5371
529 1 36.3553 30.7301 -3.21176 36.3553 30.7301 -3.21176
530 2 -12.8117 29.6934 -3.96242 38.48 29.6934 -3.96242
531 2 -14.7611 31.8419 -5.45209 36.5305 31.8419 -5.45209
532 1 -12.3691 32.0457 -4.72927 38.9225 32.0457 -4.72927
533 2 -10.258 30.6944 -5.12029 41.0336 30.6944 -5.12029
534 2 -11.6922 32.9912 -6.95428 39.5994 32.9912 -6.95428
535 1 -11.1725 30.5636 -7.46744 40.1191 30.5636 -7.46744
536 2 -9.05277 29.2065 -7.36406 42.2389 29.2065 -7.36406
537 2 -10.2468 31.1085 -9.74651 41.0449 31.1085 -9.74651
538 1 -8.1221 31.2477 -8.44176 43.1695 31.2477 -8.44176
539 2 -6.17488 29.7396 -8.04198 45.1168 29.7396 -8.04198
540 2 -6.66516 31.6581 9.58565 44.6265 31.6581 -10.4143