ITEM: TIMESTEP
4240000
ITEM: NUMBER OF ATOMS
810
ITEM: BOX BOUNDS xy xz yz pp pp pp
8.6298438867990135e-01 7.3095269373858486e+01 2.0940648762539325e+01
8.1394622342039402e-01 5.0202268776579182e+01 0.0000000000000000e+00
-1.0000000000000000e+01 1.0000000000000000e+01 0.0000000000000000e+00
ITEM: ATOMS id type x y z xu yu zu
1 1 34.2478 1.38332 3.99162 -17.0438 1.38332 3.99162
2 2 36.1699 1.28551 5.75948 -15.1217 1.28551 5.75948
3 2 36.4437 1.20025 2.6049 -14.848 1.20025 2.6049
4 1 37.8933 2.93503 4.20651 -13.3983 2.93503 4.20651
5 2 39.9235 2.66549 5.82602 -11.3682 2.66549 5.82602
6 2 40.0068 2.87972 2.66859 -11.2849 2.87972 2.66859
7 1 40.4583 0.821536 4.12688 -10.8334 0.821536 4.12688
8 2 63.7159 49.4547 4.99648 -8.51635 0.0663587 4.99648
9 2 42.1366 1.35465 2.15567 -9.15507 1.35465 2.15567
10 1 44.0779 2.36368 3.87538 -7.21376 2.36368 3.87538
11 2 46.4266 1.54278 4.55601 -4.86503 1.54278 4.55601
12 2 45.638 3.04448 1.85133 -5.65361 3.04448 1.85133
13 1 67.1685 49.9871 2.17708 -5.06377 0.598811 2.17708
14 2 69.5649 49.1148 2.29476 -2.66735 -0.273482 2.29476
15 2 47.376 1.73833 0.110407 -3.9156 1.73833 0.110407
16 1 49.6988 2.28597 1.62884 -1.59282 2.28597 1.62884
17 2 52.0985 1.44062 1.69418 0.806846 1.44062 1.69418
18 2 50.7811 3.48742 -0.421892 -0.510509 3.48742 -0.421892
19 1 51.4023 1.07315 -0.75619 0.110627 1.07315 -0.75619
20 2 23.469 49.7545 -0.490816 2.52837 0.366195 -0.490816
21 2 1.21876 2.17217 -2.81154 1.21876 2.17217 -2.81154
22 1 3.56398 2.83699 -1.358 3.56398 2.83699 -1.358
23 2 5.98313 2.16399 -0.98062 5.98313 2.16399 -0.98062
24 2 4.74367 3.82342 -3.43631 4.74367 3.82342 -3.43631
25 1 5.59229 1.42906 -3.44684 5.59229 1.42906 -3.44684
26 2 7.93207 0.982442 -2.47241 7.93207 0.982442 -2.47241
27 2 7.20868 1.78786 -5.46479 7.20868 1.78786 -5.46479
28 1 9.17881 3.05467 -3.8624 9.17881 3.05467 -3.8624
29 2 11.4738 2.70638 -2.72471 11.4738 2.70638 -2.72471
30 2 10.9174 3.23184 -5.80588 10.9174 3.23184 -5.80588
31 1 11.6986 1.06503 -4.6993 11.6986 1.06503 -4.6993
32 2 13.6739 1.23602 -2.97124 13.6739 1.23602 -2.97124
33 2 34.8036 49.9611 -6.06261 13.863 0.572731 -6.06261
34 1 15.36 2.5944 -4.6962 15.36 2.5944 -4.6962
35 2 17.2229 2.91689 -2.85536 17.2229 2.91689 -2.85536
36 2 17.6007 1.97891 -5.86167 17.6007 1.97891 -5.86167
37 1 38.731 49.9719 -3.71374 17.7904 0.583583 -3.71374
38 2 19.1748 1.48182 -1.64741 19.1748 1.48182 -1.64741
39 2 41.1138 49.1003 -4.1242 20.1731 -0.287994 -4.1242
40 1 21.3456 2.20855 -3.28632 21.3456 2.20855 -3.28632
41 2 22.6195 3.22803 -1.21008 22.6195 3.22803 -1.21008
42 2 23.7398 1.32697 -3.5432 23.7398 1.32697 -3.5432
43 1 44.1384 50.163 -1.09915 23.1978 0.774725 -1.09915
44 2 24.2235 2.02869 0.927105 24.2235 2.02869 0.927105
45 2 46.5488 49.3831 -1.16012 25.6081 -0.00521706 -1.16012
46 1 26.6274 2.55195 -0.491354 26.6274 2.55195 -0.491354
47 2 27.6618 3.77923 1.5352 27.6618 3.77923 1.5352
48 2 29.0429 1.80652 -0.609521 29.0429 1.80652 -0.609521
49 1 28.417 1.38992 1.8787 28.417 1.38992 1.8787
50 2 29.7475 2.17818 3.96597 29.7475 2.17818 3.96597
51 2 51.7655 50.1651 1.29825 30.8248 0.776752 1.29825
52 1 31.9367 3.10415 2.40942 31.9367 3.10415 2.40942
53 2 33.3796 3.7276 4.48575 33.3796 3.7276 4.48575
54 2 34.3254 2.54464 1.67566 34.3254 2.54464 1.67566
55 1 35.4865 4.78075 2.89914 -15.8051 4.78075 2.89914
56 2 37.0479 5.2276 4.9413 -14.2437 5.2276 4.9413
57 2 37.8456 4.29056 2.00422 -13.446 4.29056 2.00422
58 1 39.0648 6.41954 3.3374 -12.2269 6.41954 3.3374
59 2 40.7501 6.6808 5.31636 -10.5415 6.6808 5.31636
60 2 41.381 6.01454 2.27398 -9.91066 6.01454 2.27398
61 1 41.5507 4.46487 4.32959 -9.74098 4.46487 4.32959
62 2 43.6752 4.03737 5.77771 -7.61648 4.03737 5.77771
63 2 43.5692 4.55161 2.65394 -7.7224 4.55161 2.65394
64 1 45.2097 5.98193 4.35957 -6.08193 5.98193 4.35957
65 2 47.4138 5.41992 5.62109 -3.87785 5.41992 5.62109
66 2 47.1232 6.21702 2.56568 -4.16842 6.21702 2.56568
67 1 47.672 3.92669 3.54854 -3.61959 3.92669 3.54854
68 2 50.0429 3.06305 4.0493 -1.2487 3.06305 4.0493
69 2 49.1143 4.7453 1.48989 -2.1773 4.7453 1.48989
70 1 51.2382 5.51746 3.14937 -0.0534 5.51746 3.14937
71 2 2.3323 4.63374 3.48691 2.3323 4.63374 3.48691
72 2 52.5671 6.46229 1.07226 1.27545 6.46229 1.07226
73 1 53.145 4.00344 1.04862 1.85341 4.00344 1.04862
74 2 4.25806 3.19571 1.10484 4.25806 3.19571 1.10484
75 2 2.89278 5.2366 -0.98865 2.89278 5.2366 -0.98865
76 1 5.28352 5.75017 0.441981 5.28352 5.75017 0.441981
77 2 7.69389 4.98118 0.53205 7.69389 4.98118 0.53205
78 2 6.31133 6.97921 -1.59021 6.31133 6.97921 -1.59021
79 1 7.03708 4.58645 -1.94628 7.03708 4.58645 -1.94628
80 2 9.45049 3.95031 -1.43793 9.45049 3.95031 -1.43793
81 2 8.31118 5.43894 -4.0376 8.31118 5.43894 -4.0376
82 1 10.5387 6.31007 -2.50687 10.5387 6.31007 -2.50687
83 2 12.9389 5.72395 -1.85399 12.9389 5.72395 -1.85399
84 2 11.9192 7.01297 -4.59596 11.9192 7.01297 -4.59596
85 1 12.7936 4.65248 -4.21253 12.7936 4.65248 -4.21253
86 2 15.0294 4.41668 -2.91204 15.0294 4.41668 -2.91204
87 2 14.6551 4.64832 -6.04979 14.6551 4.64832 -6.04979
88 1 16.434 6.22467 -4.48275 16.434 6.22467 -4.48275
89 2 18.5964 6.11701 -3.02467 18.5964 6.11701 -3.02467
90 2 18.4124 6.04363 -6.18299 18.4124 6.04363 -6.18299
91 1 19.0155 4.12865 -4.59157 19.0155 4.12865 -4.59157
92 2 20.7576 4.60407 -2.66 20.7576 4.60407 -2.66
93 2 21.3145 3.41446 -5.55446 21.3145 3.41446 -5.55446
94 1 22.655 5.67694 -4.39019 22.655 5.67694 -4.39019
95 2 24.2723 6.30359 -2.39013 24.2723 6.30359 -2.39013
96 2 24.9964 4.88821 -5.15182 24.9964 4.88821 -5.15182
97 1 24.8686 3.869 -2.79774 24.8686 3.869 -2.79774
98 2 26.0449 4.98978 -0.725788 26.0449 4.98978 -0.725788
99 2 27.2685 2.99525 -2.93512 27.2685 2.99525 -2.93512
100 1 28.3568 5.56251 -2.26 28.3568 5.56251 -2.26
101 2 29.4559 6.75757 -0.203111 29.4559 6.75757 -0.203111
102 2 30.7595 4.71092 -2.32449 30.7595 4.71092 -2.32449
103 1 30.0622 4.33875 0.121485 30.0622 4.33875 0.121485
104 2 31.1372 5.49722 2.16281 31.1372 5.49722 2.16281
105 2 32.4813 3.62077 -0.0836914 32.4813 3.62077 -0.0836914
106 1 33.5109 6.1191 0.729394 33.5109 6.1191 0.729394
107 2 34.6501 7.17583 2.79415 34.6501 7.17583 2.79415
108 2 35.9325 5.43137 0.417281 35.9325 5.43137 0.417281
109 1 36.9771 7.88461 1.32611 -14.3145 7.88461 1.32611
110 2 38.2044 8.81062 3.41088 -13.0873 8.81062 3.41088
111 2 39.3953 7.22872 0.887013 -11.8964 7.22872 0.887013
112 1 40.4672 9.62223 1.89887 -10.8245 9.62223 1.89887
113 2 41.7995 10.3967 3.98982 -9.49218 10.3967 3.98982
114 2 42.8738 9.00518 1.31569 -8.41781 9.00518 1.31569
115 1 42.6688 8.02086 3.70987 -8.62284 8.02086 3.70987
116 2 44.4761 8.09685 5.59657 -6.81551 8.09685 5.59657
117 2 44.9298 7.71765 2.48006 -6.36184 7.71765 2.48006
118 1 46.2968 9.59017 4.00749 -4.99488 9.59017 4.00749
119 2 48.2204 9.4858 5.77339 -3.07122 9.4858 5.77339
120 2 48.4905 9.4069 2.6181 -2.80111 9.4069 2.6181
121 1 48.8652 7.49742 4.29432 -2.42642 7.49742 4.29432
122 2 51.1347 6.82506 5.35771 -0.156918 6.82506 5.35771
123 2 50.6622 7.88234 2.3995 -0.629396 7.88234 2.3995
124 1 52.5081 9.02064 4.13035 1.21648 9.02064 4.13035
125 2 54.8279 8.26372 4.99278 3.53624 8.26372 4.99278
126 2 54.1815 9.55643 2.15542 2.88985 9.55643 2.15542
127 1 3.48202 7.14191 2.68308 3.48202 7.14191 2.68308
128 2 5.8769 6.25812 2.88337 5.8769 6.25812 2.88337
129 2 4.70644 8.19788 0.602065 4.70644 8.19788 0.602065
130 1 6.9834 8.80191 2.15912 6.9834 8.80191 2.15912
131 2 9.38327 7.93451 2.26206 9.38327 7.93451 2.26206
132 2 8.12013 9.94824 0.0882933 8.12013 9.94824 0.0882933
133 1 8.71166 7.51801 -0.179598 8.71166 7.51801 -0.179598
134 2 11.1282 6.7841 -0.0180043 11.1282 6.7841 -0.0180043
135 2 9.76255 8.70293 -2.21869 9.76255 8.70293 -2.21869
136 1 12.1505 9.29522 -0.800523 12.1505 9.29522 -0.800523
137 2 14.5715 8.59351 -0.543123 14.5715 8.59351 -0.543123
138 2 13.253 10.4007 -2.85698 13.253 10.4007 -2.85698
139 1 14.0719 8.00566 -3.03046 14.0719 8.00566 -3.03046
140 2 16.4485 7.48253 -2.21994 16.4485 7.48253 -2.21994
141 2 15.5701 8.54342 -5.09587 15.5701 8.54342 -5.09587
142 1 17.6381 9.66986 -3.50399 17.6381 9.66986 -3.50399
143 2 19.9817 9.23144 -2.52968 19.9817 9.23144 -2.52968
144 2 19.2584 10.0317 -5.52144 19.2584 10.0317 -5.52144
145 1 20.0936 7.7779 -4.66303 20.0936 7.7779 -4.66303
146 2 22.1669 7.80886 -3.05855 22.1669 7.80886 -3.05855
147 2 22.1761 7.43032 -6.19972 22.1761 7.43032 -6.19972
148 1 23.7619 9.31763 -4.74761 23.7619 9.31763 -4.74761
149 2 25.7303 9.49358 -3.00865 25.7303 9.49358 -3.00865
150 2 25.9374 8.82415 -6.09602 25.9374 8.82415 -6.09602
151 1 26.2704 7.24661 -4.09834 26.2704 7.24661 -4.09834
152 2 27.7613 8.01649 -2.05064 27.7613 8.01649 -2.05064
153 2 28.6401 6.40671 -4.66737 28.6401 6.40671 -4.66737
154 1 29.8541 8.84251 -3.72278 29.8541 8.84251 -3.72278
155 2 31.2285 9.74349 -1.65028 31.2285 9.74349 -1.65028
156 2 32.2387 7.97023 -4.1202 32.2387 7.97023 -4.1202
157 1 31.8138 7.28394 -1.68596 31.8138 7.28394 -1.68596
158 2 32.8614 8.52121 0.354376 32.8614 8.52121 0.354376
159 2 34.2191 6.46371 -1.72658 34.2191 6.46371 -1.72658
160 1 35.2511 9.03056 -1.08569 35.2511 9.03056 -1.08569
161 2 36.2761 10.2773 0.944149 36.2761 10.2773 0.944149
162 2 37.66 8.24571 -1.14563 37.66 8.24571 -1.14563
163 1 38.6795 10.7964 -0.46891 -12.6121 10.7964 -0.46891
164 2 39.7131 12.0132 1.56331 -11.5785 12.0132 1.56331
165 2 41.0936 10.0469 -0.587385 -10.198 10.0469 -0.587385
166 1 42.1116 12.5725 0.154317 -9.18007 12.5725 0.154317
167 2 43.1863 13.7179 2.20245 -8.1053 13.7179 2.20245
168 2 44.5304 11.8538 -0.0540267 -6.76123 11.8538 -0.0540267
169 1 43.9865 11.3237 2.43621 -7.30513 11.3237 2.43621
170 2 45.4326 11.9333 4.51408 -5.85905 11.9333 4.51408
171 2 46.3732 10.7613 1.69723 -4.91846 10.7613 1.69723
172 1 47.5365 12.9904 2.92898 -3.75515 12.9904 2.92898
173 2 49.1028 13.4258 4.96926 -2.18883 13.4258 4.96926
174 2 49.8918 12.4992 2.0259 -1.39983 12.4992 2.0259
175 1 49.9443 11.1357 4.2225 -1.34736 11.1357 4.2225
176 2 51.9786 10.8596 5.83621 0.686945 10.8596 5.83621
177 2 52.0542 11.0831 2.67899 0.762529 11.0831 2.67899
178 1 53.6027 12.6612 4.341 2.31108 12.6612 4.341
179 2 55.7332 12.2288 5.77972 4.44154 12.2288 5.77972
180 2 55.6156 12.7533 2.65828 4.32394 12.7533 2.65828
181 1 4.83736 10.5612 3.87068 4.83736 10.5612 3.87068
182 2 7.19093 9.74116 4.53895 7.19093 9.74116 4.53895
183 2 6.38794 11.2468 1.84069 6.38794 11.2468 1.84069
184 1 8.43169 12.1276 3.52938 8.43169 12.1276 3.52938
185 2 10.8074 11.2666 4.01497 10.8074 11.2666 4.01497
186 2 9.86306 12.9557 1.46557 9.86306 12.9557 1.46557
187 1 10.4525 10.4975 1.59416 10.4525 10.4975 1.59416
188 2 12.8556 9.65879 1.64788 12.8556 9.65879 1.64788
189 2 11.5248 11.7071 -0.458055 11.5248 11.7071 -0.458055
190 1 13.8982 12.2257 1.00228 13.8982 12.2257 1.00228
191 2 16.3048 11.422 1.05237 16.3048 11.422 1.05237
192 2 14.9336 13.4673 -1.03277 14.9336 13.4673 -1.03277
193 1 15.607 11.0693 -1.41039 15.607 11.0693 -1.41039
194 2 18.0279 10.3986 -1.0359 18.0279 10.3986 -1.0359
195 2 16.7874 12.0634 -3.4868 16.7874 12.0634 -3.4868
196 1 19.0869 12.8274 -1.99749 19.0869 12.8274 -1.99749
197 2 21.5023 12.196 -1.49067 21.5023 12.196 -1.49067
198 2 20.3628 13.6903 -4.0856 20.3628 13.6903 -4.0856
199 1 21.2344 11.3062 -3.91904 21.2344 11.3062 -3.91904
200 2 23.5281 10.9597 -2.77483 23.5281 10.9597 -2.77483
201 2 22.9837 11.4856 -5.85597 22.9837 11.4856 -5.85597
202 1 24.8586 12.91 -4.25489 24.8586 12.91 -4.25489
203 2 27.0893 12.675 -2.94316 27.0893 12.675 -2.94316
204 2 26.7318 12.9066 -6.08178 26.7318 12.9066 -6.08178
205 1 27.4295 10.852 -4.72451 27.4295 10.852 -4.72451
206 2 29.2823 11.1768 -2.87169 29.2823 11.1768 -2.87169
207 2 29.6781 10.2347 -5.87409 29.6781 10.2347 -5.87409
208 1 31.086 12.3877 -4.59791 31.086 12.3877 -4.59791
209 2 32.8154 12.8603 -2.65436 32.8154 12.8603 -2.65436
210 2 33.3902 11.6734 -5.547 33.3902 11.6734 -5.547
211 1 33.4074 10.4663 -3.27909 33.4074 10.4663 -3.27909
212 2 34.673 11.4834 -1.19689 34.673 11.4834 -1.19689
213 2 35.8019 9.58378 -3.5273 35.8019 9.58378 -3.5273
214 1 36.9253 12.1213 -2.77513 36.9253 12.1213 -2.77513
215 2 38.0967 13.2345 -0.697847 38.0967 13.2345 -0.697847
216 2 39.3244 11.2458 -2.91025 39.3244 11.2458 -2.91025
217 1 40.4083 13.8068 -2.22458 -10.8833 13.8068 -2.22458
218 2 41.5024 14.9918 -0.160776 -9.78927 14.9918 -0.160776
219 2 42.8107 12.9554 -2.28934 -8.48091 12.9554 -2.28934
220 1 43.8585 15.5228 -1.63762 -7.4331 15.5228 -1.63762
221 2 44.904 16.7491 0.40862 -6.38763 16.7491 0.40862
222 2 46.2632 14.7032 -1.68285 -5.02843 14.7032 -1.68285
223 1 45.557 14.3458 0.771844 -5.73463 14.3458 0.771844
224 2 46.6999 15.3863 2.84201 -4.59171 15.3863 2.84201
225 2 47.9779 13.658 0.451104 -3.31371 13.658 0.451104
226 1 49.0203 16.1035 1.37215 -2.27137 16.1035 1.37215
227 2 50.2566 17.013 3.45807 -1.03507 17.013 3.45807
228 2 51.4354 15.4453 0.919441 0.143779 15.4453 0.919441
229 1 51.1142 14.6214 3.36518 -0.177422 14.6214 3.36518
230 2 52.806 14.8733 5.33943 1.51439 14.8733 5.33943
231 2 53.4257 14.2186 2.29183 2.13405 14.2186 2.29183
232 1 54.719 16.2191 3.73185 3.42736 16.2191 3.73185
233 2 56.5338 16.2865 5.61181 5.24214 16.2865 5.61181
234 2 56.9752 15.9233 2.49177 5.68359 15.9233 2.49177
235 1 57.2636 14.1781 4.36172 5.97193 14.1781 4.36172
236 2 8.18348 13.612 5.60922 8.18348 13.612 5.60922
237 2 7.87663 14.4214 2.55874 7.87663 14.4214 2.55874
238 1 9.6287 15.6972 4.28342 9.6287 15.6972 4.28342
239 2 11.905 15.0228 5.33127 11.905 15.0228 5.33127
240 2 11.4157 16.0943 2.38065 11.4157 16.0943 2.38065
241 1 11.9976 13.7267 3.11619 11.9976 13.7267 3.11619
242 2 14.3867 12.8462 3.44071 14.3867 12.8462 3.44071
243 2 13.3172 14.6833 1.03758 13.3172 14.6833 1.03758
244 1 15.5326 15.3608 2.64261 15.5326 15.3608 2.64261
245 2 17.9295 14.4807 2.8358 17.9295 14.4807 2.8358
246 2 16.7519 16.4278 0.564072 16.7519 16.4278 0.564072
247 1 17.3316 13.9814 0.393813 17.3316 13.9814 0.393813
248 2 19.7438 13.2159 0.482119 19.7438 13.2159 0.482119
249 2 18.3591 15.2186 -1.63414 18.3591 15.2186 -1.63414
250 1 20.7637 15.7592 -0.22208 20.7637 15.7592 -0.22208
251 2 23.1818 15.0304 -0.0605616 23.1818 15.0304 -0.0605616
252 2 21.8151 16.9539 -2.25609 21.8151 16.9539 -2.25609
253 1 22.5953 14.5631 -2.55241 22.5953 14.5631 -2.55241
254 2 24.9955 13.9796 -1.89424 24.9955 13.9796 -1.89424
255 2 23.9833 15.271 -4.63659 23.9833 15.271 -4.63659
256 1 26.1347 16.2658 -3.06313 26.1347 16.2658 -3.06313
257 2 28.5088 15.7435 -2.24221 28.5088 15.7435 -2.24221
258 2 27.6437 16.8048 -5.12122 27.6437 16.8048 -5.12122
259 1 28.5049 14.4855 -4.50486 28.5049 14.4855 -4.50486
260 2 30.6594 14.3767 -3.034 30.6594 14.3767 -3.034
261 2 30.493 14.3035 -6.19312 30.493 14.3035 -6.19312
262 1 32.1647 16.0375 -4.66316 32.1647 16.0375 -4.66316
263 2 34.2272 16.0651 -3.04394 34.2272 16.0651 -3.04394
264 2 34.2561 15.6887 -6.18593 34.2561 15.6887 -6.18593
265 1 34.7212 13.9339 -4.37364 34.7212 13.9339 -4.37364
266 2 36.3263 14.554 -2.36367 36.3263 14.554 -2.36367
267 2 37.0642 13.1452 -5.12647 37.0642 13.1452 -5.12647
268 1 38.328 15.4978 -4.06255 38.328 15.4978 -4.06255
269 2 39.8108 16.2596 -2.00804 39.8108 16.2596 -2.00804
270 2 40.6976 14.6588 -4.62839 40.6976 14.6588 -4.62839
271 1 41.9031 17.0879 -3.67279 -9.38854 17.0879 -3.67279
272 2 43.2702 17.9812 -1.59403 -8.02146 17.9812 -1.59403
273 2 44.2878 16.2175 -4.06862 -7.00385 16.2175 -4.06862
274 1 45.4442 18.7059 -3.21768 -5.8474 18.7059 -3.21768
275 2 46.7063 19.7157 -1.13236 -4.5853 19.7157 -1.13236
276 2 47.8377 17.8245 -3.46921 -3.45394 17.8245 -3.46921
277 1 47.2879 17.2636 -1.02942 -4.0037 17.2636 -1.02942
278 2 48.317 18.4984 1.0037 -2.9746 18.4984 1.0037
279 2 49.6955 16.4774 -1.09975 -1.59615 16.4774 -1.09975
280 1 50.7131 19.022 -0.413377 -0.578495 19.022 -0.413377
281 2 51.756 20.2257 1.6205 0.464327 20.2257 1.6205
282 2 53.1252 18.2697 -0.546917 1.83359 18.2697 -0.546917
283 1 52.5103 17.832 1.93992 1.21864 17.832 1.93992
284 2 53.8515 18.5935 4.02935 2.55984 18.5935 4.02935
285 2 54.9136 17.2168 1.34245 3.62198 17.2168 1.34245
286 1 56.0299 19.53 2.4696 4.73823 19.53 2.4696
287 2 57.4876 20.1313 4.54167 6.19595 20.1313 4.54167
288 2 58.4106 18.9671 1.71551 7.11898 18.9671 1.71551
289 1 58.3482 17.7893 4.02238 7.05656 17.7893 4.02238
290 2 8.99126 17.6773 5.77653 8.99126 17.6773 5.77653
291 2 9.24408 17.6158 2.62017 9.24408 17.6158 2.62017
292 1 10.706 19.3378 4.22438 10.706 19.3378 4.22438
293 2 12.7484 19.056 5.82674 12.7484 19.056 5.82674
294 2 12.8103 19.2985 2.67093 12.8103 19.2985 2.67093
295 1 13.2714 17.2277 4.1078 13.2714 17.2277 4.1078
296 2 15.5946 16.4695 4.95803 15.5946 16.4695 4.95803
297 2 14.9377 17.7777 2.12982 14.9377 17.7777 2.12982
298 1 16.8918 18.7788 3.84494 16.8918 18.7788 3.84494
299 2 19.2477 17.9599 4.50422 19.2477 17.9599 4.50422
300 2 18.4372 19.4777 1.81482 18.4372 19.4777 1.81482
301 1 19.0346 17.0318 2.12052 19.0346 17.0318 2.12052
302 2 21.4357 16.1684 2.2213 21.4357 16.1684 2.2213
303 2 20.1699 18.1883 0.0547617 20.1699 18.1883 0.0547617
304 1 22.5049 18.7382 1.56357 22.5049 18.7382 1.56357
305 2 24.9087 17.9036 1.6159 24.9087 17.9036 1.6159
306 2 23.5757 19.957 -0.483966 23.5757 19.957 -0.483966
307 1 24.2047 17.5474 -0.834714 24.2047 17.5474 -0.834714
308 2 26.6266 16.8501 -0.572773 26.6266 16.8501 -0.572773
309 2 25.3112 18.6592 -2.88622 25.3112 18.6592 -2.88622
310 1 27.6622 19.3292 -1.43268 27.6622 19.3292 -1.43268
311 2 30.0821 18.6603 -1.04847 30.0821 18.6603 -1.04847
312 2 28.8507 20.3248 -3.50371 28.8507 20.3248 -3.50371
313 1 29.7035 17.9316 -3.51869 29.7035 17.9316 -3.51869
314 2 32.04 17.489 -2.53033 32.04 17.489 -2.53033
315 2 31.3359 18.2925 -5.52587 31.3359 18.2925 -5.52587
316 1 33.2981 19.5639 -3.91027 33.2981 19.5639 -3.91027
317 2 35.5848 19.2168 -2.75265 35.5848 19.2168 -2.75265
318 2 35.0558 19.7401 -5.83747 35.0558 19.7401 -5.83747
319 1 35.8278 17.573 -4.72251 35.8278 17.573 -4.72251
320 2 37.7831 17.7414 -2.97039 37.7831 17.7414 -2.97039
321 2 38.0075 17.0788 -6.06006 38.0075 17.0788 -6.06006
322 1 39.4846 19.1004 -4.67829 39.4846 19.1004 -4.67829
323 2 41.3274 19.4197 -2.81844 41.3274 19.4197 -2.81844
324 2 41.733 18.4825 -5.82302 41.733 18.4825 -5.82302
325 1 43.1292 20.6301 -4.54108 -8.16247 20.6301 -4.54108
326 2 44.8492 21.0978 -2.59077 -6.44245 21.0978 -2.59077
327 2 45.4331 19.9141 -5.48473 -5.85853 19.9141 -5.48473
328 1 46.7531 22.1697 -4.30733 -4.53851 22.1697 -4.30733
329 2 48.3539 22.7868 -2.29503 -2.93775 22.7868 -2.29503
330 2 49.0943 21.38 -5.05967 -2.19733 21.38 -5.05967
331 1 48.9534 20.3552 -2.70931 -2.33826 20.3552 -2.70931
332 2 50.1282 21.4607 -0.632521 -1.16348 21.4607 -0.632521
333 2 51.3507 19.4794 -2.85505 0.0590407 19.4794 -2.85505
334 1 52.4329 22.0348 -2.16448 1.14124 22.0348 -2.16448
335 2 53.5362 23.2114 -0.103511 2.24459 23.2114 -0.103511
336 2 54.8325 21.1797 -2.24441 3.5409 21.1797 -2.24441
337 1 54.1451 20.7903 0.201622 2.85347 20.7903 0.201622
338 2 55.2304 21.9264 2.24863 3.93879 21.9264 2.24863
339 2 56.5616 20.0699 -0.0216827 5.26997 20.0699 -0.0216827
340 1 57.592 22.5578 0.806335 6.30035 22.5578 0.806335
341 2 58.7478 23.5904 2.87268 7.45612 23.5904 2.87268
342 2 60.009 21.8666 0.469115 8.71732 21.8666 0.469115
343 1 59.5813 21.1929 2.94782 8.28969 21.1929 2.94782
344 2 9.86563 21.6245 4.98153 9.86563 21.6245 4.98153
345 2 10.6401 20.7065 2.03155 10.6401 20.7065 2.03155
346 1 11.8687 22.8275 3.37046 11.8687 22.8275 3.37046
347 2 13.5677 23.0801 5.33861 13.5677 23.0801 5.33861
348 2 14.1762 22.4307 2.28781 14.1762 22.4307 2.28781
349 1 14.3644 20.871 4.33397 14.3644 20.871 4.33397
350 2 16.5008 20.4371 5.76324 16.5008 20.4371 5.76324
351 2 16.3732 20.9766 2.64541 16.3732 20.9766 2.64541
352 1 18.024 22.3985 4.34923 18.024 22.3985 4.34923
353 2 20.2382 21.833 5.59108 20.2382 21.833 5.59108
354 2 19.9261 22.6539 2.54432 19.9261 22.6539 2.54432
355 1 20.4846 20.3571 3.5051 20.4846 20.3571 3.5051
356 2 22.8608 19.498 3.98764 22.8608 19.498 3.98764
357 2 21.9148 21.1969 1.44531 21.9148 21.1969 1.44531
358 1 24.048 21.9649 3.1003 24.048 21.9649 3.1003
359 2 26.4364 21.0844 3.42188 26.4364 21.0844 3.42188
360 2 25.3681 22.9326 1.02665 25.3681 22.9326 1.02665
361 1 25.9479 20.4751 0.980312 25.9479 20.4751 0.980312
362 2 28.3541 19.6745 1.03367 28.3541 19.6745 1.03367
363 2 26.9853 21.7251 -1.04824 26.9853 21.7251 -1.04824
364 1 29.3779 22.2363 0.385829 29.3779 22.2363 0.385829
365 2 31.7894 21.4738 0.480597 31.7894 21.4738 0.480597
366 2 30.4084 23.4783 -1.63669 30.4084 23.4783 -1.63669
367 1 31.141 21.0889 -2.00284 31.141 21.0889 -2.00284
368 2 33.5535 20.4573 -1.48256 33.5535 20.4573 -1.48256
369 2 32.4267 21.9474 -4.08568 32.4267 21.9474 -4.08568
370 1 34.6457 22.8216 -2.54018 34.6457 22.8216 -2.54018
371 2 37.0417 22.2373 -1.86876 37.0417 22.2373 -1.86876
372 2 36.0429 23.524 -4.61875 36.0429 23.524 -4.61875
373 1 36.9164 21.1637 -4.22718 36.9164 21.1637 -4.22718
374 2 39.1398 20.9285 -2.90334 39.1398 20.9285 -2.90334
375 2 38.7946 21.1514 -6.04527 38.7946 21.1514 -6.04527
376 1 40.5533 22.7332 -4.46404 40.5533 22.7332 -4.46404
377 2 42.6999 22.623 -2.98347 42.6999 22.623 -2.98347
378 2 42.5445 22.5429 -6.14408 42.5445 22.5429 -6.14408
379 1 44.2044 24.2786 -4.61171 -7.0872 24.2786 -4.61171
380 2 46.2589 24.3036 -2.98379 -5.03274 24.3036 -2.98379
381 2 46.2973 23.9203 -6.12641 -4.99439 23.9203 -6.12641
382 1 47.8604 25.8054 -4.66313 -3.43127 25.8054 -4.66313
383 2 49.8137 25.9767 -2.90944 -1.47796 25.9767 -2.90944
384 2 50.0374 25.3027 -5.99823 -1.25425 25.3027 -5.99823
385 1 50.3535 23.7291 -3.99509 -0.938156 23.7291 -3.99509
386 2 51.8391 24.4883 -1.94426 0.547426 24.4883 -1.94426
387 2 52.7185 22.887 -4.56831 1.42687 22.887 -4.56831
388 1 53.9253 25.3117 -3.61624 2.63367 25.3117 -3.61624
389 2 55.3005 26.2024 -1.54414 4.00886 26.2024 -1.54414
390 2 56.3052 24.4369 -4.02334 5.01356 24.4369 -4.02334
391 1 55.8838 23.7426 -1.5911 4.59216 23.7426 -1.5911
392 2 56.9419 24.9635 0.450329 5.65022 24.9635 0.450329
393 2 58.2854 22.9179 -1.6521 6.99376 22.9179 -1.6521
394 1 59.3172 25.476 -1.00209 8.02561 25.476 -1.00209
395 2 60.3572 26.7071 1.02669 9.06558 26.7071 1.02669
396 2 61.7225 24.6868 -1.08672 10.4308 24.6868 -1.08672
397 1 61.0585 24.3105 1.38854 9.76689 24.3105 1.38854
398 2 11.0125 25.2194 3.4685 11.0125 25.2194 3.4685
399 2 12.1786 23.6522 0.923224 12.1786 23.6522 0.923224
400 1 13.2585 26.0398 1.93907 13.2585 26.0398 1.93907
401 2 14.6055 26.8064 4.02195 14.6055 26.8064 4.02195
402 2 15.6581 25.424 1.33325 15.6581 25.424 1.33325
403 1 15.4727 24.4319 3.72563 15.4727 24.4319 3.72563
404 2 17.2923 24.505 5.60115 17.2923 24.505 5.60115
405 2 17.7265 24.143 2.48037 17.7265 24.143 2.48037
406 1 19.0992 26.0109 4.00806 19.0992 26.0109 4.00806
407 2 21.0321 25.9045 5.76388 21.0321 25.9045 5.76388
408 2 21.2865 25.8434 2.60713 21.2865 25.8434 2.60713
409 1 21.6758 23.9266 4.27124 21.6758 23.9266 4.27124
410 2 23.9513 23.2533 5.31969 23.9513 23.2533 5.31969
411 2 23.4648 24.3345 2.37265 23.4648 24.3345 2.37265
412 1 25.3127 25.4649 4.10563 25.3127 25.4649 4.10563
413 2 27.6351 24.7076 4.95782 27.6351 24.7076 4.95782
414 2 26.9826 26.0234 2.13285 26.9826 26.0234 2.13285
415 1 27.5786 23.6052 2.63876 27.5786 23.6052 2.63876
416 2 29.9744 22.7252 2.83083 29.9744 22.7252 2.83083
417 2 28.7993 24.682 0.56602 28.7993 24.682 0.56602
418 1 31.076 25.2814 2.13014 31.076 25.2814 2.13014
419 2 33.477 24.4205 2.22893 33.477 24.4205 2.22893
420 2 32.2086 26.4438 0.0667478 32.2086 26.4438 0.0667478
421 1 32.8053 24.017 -0.216296 32.8053 24.017 -0.216296
422 2 35.2222 23.2893 -0.0456904 35.2222 23.2893 -0.0456904
423 2 33.862 25.2119 -2.24617 33.862 25.2119 -2.24617
424 1 36.2434 25.8051 -0.815676 36.2434 25.8051 -0.815676
425 2 38.6636 25.1079 -0.54401 38.6636 25.1079 -0.54401
426 2 37.3554 26.9131 -2.86511 37.3554 26.9131 -2.86511
427 1 38.1801 24.5196 -3.0354 38.1801 24.5196 -3.0354
428 2 40.5499 23.9979 -2.20493 40.5499 23.9979 -2.20493
429 2 39.6938 25.0514 -5.08964 39.6938 25.0514 -5.08964
430 1 41.7431 26.1815 -3.4819 41.7431 26.1815 -3.4819
431 2 44.0751 25.738 -2.48455 44.0751 25.738 -2.48455
432 2 43.3807 26.5325 -5.48468 43.3807 26.5325 -5.48468
433 1 45.3342 27.8057 -3.86574 -5.95746 27.8057 -3.86574
434 2 47.6152 27.455 -2.69942 -3.67642 27.455 -2.69942
435 2 47.0961 27.97 -5.78837 -4.19555 27.97 -5.78837
436 1 48.9486 29.394 -4.17675 -2.34299 29.394 -4.17675
437 2 51.1692 29.1565 -2.85059 -0.122485 29.1565 -2.85059
438 2 50.8261 29.3756 -5.99388 -0.465515 29.3756 -5.99388
439 1 51.5123 27.3261 -4.62273 0.22069 27.3261 -4.62273
440 2 53.3549 27.6446 -2.76365 2.06322 27.6446 -2.76365
441 2 53.7573 26.7026 -5.76854 2.46563 26.7026 -5.76854
442 1 55.1518 28.8482 -4.49192 3.86021 28.8482 -4.49192
443 2 56.8789 29.316 -2.54973 5.58731 29.316 -2.54973
444 2 57.449 28.1287 -5.44607 6.15733 28.1287 -5.44607
445 1 57.4671 26.9227 -3.17849 6.17546 26.9227 -3.17849
446 2 58.7418 27.9302 -1.10133 7.45017 27.9302 -1.10133
447 2 59.8561 26.0364 -3.44456 8.56444 26.0364 -3.44456
448 1 60.9794 28.5658 -2.69212 9.68777 28.5658 -2.69212
449 2 62.1654 29.6708 -0.621896 10.8737 29.6708 -0.621896
450 2 12.0822 27.6863 -2.84948 12.0822 27.6863 -2.84948
451 1 62.7456 27.2308 -0.404784 11.454 27.2308 -0.404784
452 2 12.5062 28.4346 1.62363 12.5062 28.4346 1.62363
453 2 13.8643 26.4772 -0.550251 13.8643 26.4772 -0.550251
454 1 14.8888 28.9984 0.192265 14.8888 28.9984 0.192265
455 2 15.9782 30.1366 2.23505 15.9782 30.1366 2.23505
456 2 17.3043 28.2792 -0.0387776 17.3043 28.2792 -0.0387776
457 1 16.7778 27.7408 2.45361 16.7778 27.7408 2.45361
458 2 18.2322 28.3502 4.52453 18.2322 28.3502 4.52453
459 2 19.1594 27.1866 1.69905 19.1594 27.1866 1.69905
460 1 20.3238 29.415 2.93035 20.3238 29.415 2.93035
461 2 21.8947 29.8534 4.96585 21.8947 29.8534 4.96585
462 2 22.6764 28.9337 2.01817 22.6764 28.9337 2.01817
463 1 22.7412 27.5679 4.21319 22.7412 27.5679 4.21319
464 2 24.7792 27.2927 5.8217 24.7792 27.2927 5.8217
465 2 24.8483 27.5332 2.66598 24.8483 27.5332 2.66598
466 1 26.3935 29.1103 4.33234 26.3935 29.1103 4.33234
467 2 28.5257 28.6826 5.76964 28.5257 28.6826 5.76964
468 2 28.4074 29.2188 2.65147 28.4074 29.2188 2.65147
469 1 28.9285 27.0231 3.85455 28.9285 27.0231 3.85455
470 2 31.2843 26.2066 4.51642 31.2843 26.2066 4.51642
471 2 30.4769 27.7275 1.82863 30.4769 27.7275 1.82863
472 1 32.5167 28.6067 3.52364 32.5167 28.6067 3.52364
473 2 34.8925 27.7474 4.00539 34.8925 27.7474 4.00539
474 2 33.9482 29.4504 1.4654 33.9482 29.4504 1.4654
475 1 34.5387 26.992 1.57965 34.5387 26.992 1.57965
476 2 36.9412 26.1575 1.63786 36.9412 26.1575 1.63786
477 2 35.6142 28.2144 -0.462623 35.6142 28.2144 -0.462623
478 1 37.9808 28.7296 1.00895 37.9808 28.7296 1.00895
479 2 40.3874 27.9317 1.06471 40.3874 27.9317 1.06471
480 2 39.0179 29.9797 -1.01924 39.0179 29.9797 -1.01924
481 1 39.6977 27.5846 -1.40303 39.6977 27.5846 -1.40303
482 2 42.1157 26.915 -1.01193 42.1157 26.915 -1.01193
483 2 40.8905 28.5751 -3.47315 40.8905 28.5751 -3.47315
484 1 43.1748 29.3402 -1.96747 43.1748 29.3402 -1.96747
485 2 45.5834 28.7031 -1.4389 45.5834 28.7031 -1.4389
486 2 44.4679 30.1911 -4.0483 44.4679 30.1911 -4.0483
487 1 46.6801 31.0617 -2.49718 -4.61155 31.0617 -2.49718
488 2 49.0726 30.4727 -1.82056 -2.21899 30.4727 -1.82056
489 2 48.0798 31.7549 -4.57549 -3.21183 31.7549 -4.57549
490 1 50.2126 32.7488 -2.99061 -1.07901 32.7488 -2.99061
491 2 52.5793 32.2219 -2.15721 1.28771 32.2219 -2.15721
492 2 51.7268 33.2728 -5.04502 0.435143 33.2728 -5.04502
493 1 52.5814 30.9546 -4.4143 1.28978 30.9546 -4.4143
494 2 54.7268 30.8411 -2.9344 3.43516 30.8411 -2.9344
495 2 54.5686 30.7591 -6.09644 3.27699 30.7591 -6.09644
496 1 56.227 32.492 -4.56751 4.93539 32.492 -4.56751
497 2 58.2849 32.5143 -2.94774 6.99327 32.5143 -2.94774
498 2 58.3111 32.1339 -6.09214 7.01949 32.1339 -6.09214
499 1 58.7737 30.3824 -4.27649 7.48208 30.3824 -4.27649
500 2 60.3857 30.9988 -2.2746 9.09407 30.9988 -2.2746
501 2 61.1087 29.5901 -5.04314 9.81707 29.5901 -5.04314
502 1 62.3737 31.9376 -3.98606 11.0821 31.9376 -3.98606
503 2 63.8695 32.6954 -1.94268 12.5779 32.6954 -1.94268
504 2 64.7357 31.0956 -4.57165 13.4441 31.0956 -4.57165
505 1 13.17 30.242 -2.16691 13.17 30.242 -2.16691
506 2 14.2811 31.4198 -0.110372 14.2811 31.4198 -0.110372
507 2 15.5692 29.3876 -2.25601 15.5692 29.3876 -2.25601
508 1 16.6232 31.9519 -1.60793 16.6232 31.9519 -1.60793
509 2 17.6855 33.1746 0.430546 17.6855 33.1746 0.430546
510 2 19.0251 31.1284 -1.67403 19.0251 31.1284 -1.67403
511 1 18.3349 30.769 0.785263 18.3349 30.769 0.785263
512 2 19.4877 31.811 2.84805 19.4877 31.811 2.84805
513 2 20.7521 30.0813 0.449684 20.7521 30.0813 0.449684
514 1 21.7991 32.5295 1.36359 21.7991 32.5295 1.36359
515 2 23.0375 33.45 3.44252 23.0375 33.45 3.44252
516 2 24.2126 31.8751 0.905631 24.2126 31.8751 0.905631
517 1 23.8974 31.059 3.35601 23.8974 31.059 3.35601
518 2 25.5889 31.3202 5.32891 25.5889 31.3202 5.32891
519 2 26.2082 30.6648 2.28149 26.2082 30.6648 2.28149
520 1 27.4963 32.6733 3.71804 27.4963 32.6733 3.71804
521 2 29.3085 32.7561 5.60018 29.3085 32.7561 5.60018
522 2 29.7544 32.3842 2.4826 29.7544 32.3842 2.4826
523 1 30.0489 30.646 4.35869 30.0489 30.646 4.35869
524 2 32.2608 30.0852 5.60727 32.2608 30.0852 5.60727
525 2 31.9561 30.902 2.55977 31.9561 30.902 2.55977
526 1 33.6988 32.1812 4.28897 33.6988 32.1812 4.28897
527 2 35.9731 31.5112 5.34263 35.9731 31.5112 5.34263
528 2 35.4933 32.588 2.39408 35.4933 32.588 2.39408
529 1 36.0764 30.219 3.12513 36.0764 30.219 3.12513
530 2 38.4649 29.3414 3.45135 38.4649 29.3414 3.45135
531 2 37.3992 31.1866 1.05313 37.3992 31.1866 1.05313
532 1 39.6075 31.8641 2.66798 39.6075 31.8641 2.66798
533 2 42.0035 30.9847 2.86169 42.0035 30.9847 2.86169
534 2 40.8296 32.9387 0.593942 40.8296 32.9387 0.593942
535 1 41.4082 30.4929 0.416722 41.4082 30.4929 0.416722
536 2 43.8179 29.7272 0.517308 43.8179 29.7272 0.517308
537 2 42.444 31.7312 -1.60492 42.444 31.7312 -1.60492
538 1 44.8374 32.2671 -0.180346 44.8374 32.2671 -0.180346
539 2 47.2526 31.5353 -0.00277538 47.2526 31.5353 -0.00277538
540 2 45.9001 33.4542 -2.2112 45.9001 33.4542 -2.2112
541 1 48.2768 34.0457 -0.777118 -3.01481 34.0457 -0.777118