ITEM: TIMESTEP
4353000
ITEM: NUMBER OF ATOMS
810
ITEM: BOX BOUNDS xy xz yz pp pp pp
8.6298438867990135e-01 7.3653357418709192e+01 2.1498736807390021e+01
8.1394622342039402e-01 5.0202268776579182e+01 0.0000000000000000e+00
-1.0000000000000000e+01 1.0000000000000000e+01 0.0000000000000000e+00
ITEM: ATOMS id type x y z xu yu zu
1 1 33.7161 1.34459 4.04894 -17.5755 1.34459 4.04894
2 2 35.6492 1.2294 5.80606 -15.6424 1.2294 5.80606
3 2 35.9066 1.15869 2.65276 -15.385 1.15869 2.65276
4 1 37.38 2.88653 4.25203 -13.9116 2.88653 4.25203
5 2 39.4176 2.59804 5.86044 -11.874 2.59804 5.86044
6 2 39.4907 2.83807 2.70723 -11.8009 2.83807 2.70723
7 1 61.4362 50.1506 4.14548 -11.3542 0.762252 4.14548
8 2 63.7568 49.3739 4.9868 -9.03358 -0.0144146 4.9868
9 2 41.6086 1.31202 2.16894 -9.68299 1.31202 2.16894
10 1 43.575 2.30749 3.8864 -7.71663 2.30749 3.8864
11 2 45.9289 1.47119 4.53249 -5.36274 1.47119 4.53249
12 2 45.1219 3.00756 1.85567 -6.16973 3.00756 1.85567
13 1 67.1986 49.9408 2.14296 -5.59175 0.552443 2.14296
14 2 69.5945 49.0621 2.21856 -3.19585 -0.326222 2.21856
15 2 46.8286 1.71875 0.0775097 -4.46303 1.71875 0.0775097
16 1 49.1836 2.25789 1.58377 -2.108 2.25789 1.58377
17 2 51.5832 1.41101 1.61152 0.291548 1.41101 1.61152
18 2 50.2477 3.48892 -0.461841 -1.04396 3.48892 -0.461841
19 1 50.8562 1.07643 -0.838657 -0.43541 1.07643 -0.838657
20 2 23.4837 49.7568 -0.59784 1.98496 0.368495 -0.59784
21 2 51.9559 2.2042 -2.88661 0.664222 2.2042 -2.88661
22 1 3.03744 2.86184 -1.43852 3.03744 2.86184 -1.43852
23 2 5.45833 2.18602 -1.07599 5.45833 2.18602 -1.07599
24 2 4.21651 3.87437 -3.50836 4.21651 3.87437 -3.50836
25 1 5.06047 1.47674 -3.55295 5.06047 1.47674 -3.55295
26 2 7.40064 1.02546 -2.57716 7.40064 1.02546 -2.57716
27 2 6.6914 1.84435 -5.56379 6.6914 1.84435 -5.56379
28 1 8.67423 3.11131 -3.94789 8.67423 3.11131 -3.94789
29 2 10.9655 2.75798 -2.79899 10.9655 2.75798 -2.79899
30 2 10.4327 3.28805 -5.87855 10.4327 3.28805 -5.87855
31 1 11.2003 1.11344 -4.77218 11.2003 1.11344 -4.77218
32 2 13.1603 1.28821 -3.02061 13.1603 1.28821 -3.02061
33 2 34.8815 49.989 -6.10058 13.3827 0.600706 -6.10058
34 1 14.8781 2.63918 -4.7296 14.8781 2.63918 -4.7296
35 2 16.7214 2.96256 -2.8668 16.7214 2.96256 -2.8668
36 2 17.1299 2.00219 -5.85966 17.1299 2.00219 -5.85966
37 1 38.7794 50.0053 -3.69872 17.2807 0.616935 -3.69872
38 2 18.6419 1.52399 -1.61947 18.6419 1.52399 -1.61947
39 2 41.1597 49.1143 -4.06689 19.661 -0.274063 -4.06689
40 1 20.8383 2.23539 -3.24369 20.8383 2.23539 -3.24369
41 2 22.0974 3.2573 -1.16137 22.0974 3.2573 -1.16137
42 2 23.2259 1.33604 -3.47402 23.2259 1.33604 -3.47402
43 1 44.1512 50.1872 -1.0317 22.6524 0.798841 -1.0317
44 2 23.681 2.04965 0.993105 23.681 2.04965 0.993105
45 2 46.5548 49.3908 -1.08802 25.0561 0.00251592 -1.08802
46 1 26.097 2.55962 -0.425063 26.097 2.55962 -0.425063
47 2 27.1375 3.77972 1.60131 27.1375 3.77972 1.60131
48 2 28.5066 1.79861 -0.543616 28.5066 1.79861 -0.543616
49 1 27.8747 1.38359 1.94621 27.8747 1.38359 1.94621
50 2 29.213 2.16078 4.03281 29.213 2.16078 4.03281
51 2 51.776 50.1445 1.36211 30.2772 0.756225 1.36211
52 1 31.4115 3.08279 2.47188 31.4115 3.08279 2.47188
53 2 32.863 3.69554 4.54591 32.863 3.69554 4.54591
54 2 33.7943 2.51016 1.73304 33.7943 2.51016 1.73304
55 1 34.9775 4.7465 2.95341 -16.3141 4.7465 2.95341
56 2 36.5462 5.18257 4.99283 -14.7454 5.18257 4.99283
57 2 37.3321 4.24978 2.05255 -13.9596 4.24978 2.05255
58 1 38.5706 6.37943 3.38505 -12.721 6.37943 3.38505
59 2 40.2622 6.63388 5.36095 -11.0294 6.63388 5.36095
60 2 40.8834 5.97067 2.31792 -10.4083 5.97067 2.31792
61 1 41.0539 4.41438 4.37076 -10.2377 4.41438 4.37076
62 2 43.1867 3.97041 5.80453 -8.10492 3.97041 5.80453
63 2 43.0714 4.5138 2.69046 -8.22027 4.5138 2.69046
64 1 44.7319 5.93741 4.39573 -6.55973 5.93741 4.39573
65 2 46.9445 5.35822 5.63685 -4.3471 5.35822 5.63685
66 2 46.6422 6.18909 2.5958 -4.64945 6.18909 2.5958
67 1 47.1843 3.88144 3.54714 -4.10739 3.88144 3.54714
68 2 49.5578 3.00541 4.01231 -1.73387 3.00541 4.01231
69 2 48.6124 4.72402 1.48535 -2.67925 4.72402 1.48535
70 1 50.7627 5.48661 3.14022 -0.528919 5.48661 3.14022
71 2 53.1478 4.59097 3.44225 1.85621 4.59097 3.44225
72 2 52.0794 6.4594 1.06499 0.787767 6.4594 1.06499
73 1 52.6401 3.99585 0.998109 1.34845 3.99585 0.998109
74 2 3.75301 3.18855 1.027 3.75301 3.18855 1.027
75 2 53.6671 5.25874 -1.02944 2.37547 5.25874 -1.02944
76 1 4.79141 5.76385 0.396895 4.79141 5.76385 0.396895
77 2 7.2008 4.99282 0.469989 7.2008 4.99282 0.469989
78 2 5.81547 7.02091 -1.6215 5.81547 7.02091 -1.6215
79 1 6.5317 4.62941 -2.01461 6.5317 4.62941 -2.01461
80 2 8.944 3.98564 -1.5118 8.944 3.98564 -1.5118
81 2 7.8132 5.50192 -4.09665 7.8132 5.50192 -4.09665
82 1 10.0549 6.3633 -2.5541 10.0549 6.3633 -2.5541
83 2 12.4538 5.77101 -1.90147 12.4538 5.77101 -1.90147
84 2 11.4443 7.07773 -4.63621 11.4443 7.07773 -4.63621
85 1 12.3128 4.71085 -4.26873 12.3128 4.71085 -4.26873
86 2 14.5425 4.47187 -2.95394 14.5425 4.47187 -2.95394
87 2 14.1917 4.69748 -6.09075 14.1917 4.69748 -6.09075
88 1 15.9701 6.28026 -4.511 15.9701 6.28026 -4.511
89 2 18.1234 6.1676 -3.03585 18.1234 6.1676 -3.03585
90 2 17.9629 6.0822 -6.19228 17.9629 6.0822 -6.19228
91 1 18.5413 4.16622 -4.58881 18.5413 4.16622 -4.58881
92 2 20.2655 4.64154 -2.64043 20.2655 4.64154 -2.64043
93 2 20.8437 3.43011 -5.52071 20.8437 3.43011 -5.52071
94 1 22.1853 5.70487 -4.36104 22.1853 5.70487 -4.36104
95 2 23.7906 6.32968 -2.3514 23.7906 6.32968 -2.3514
96 2 24.5233 4.89464 -5.10063 24.5233 4.89464 -5.10063
97 1 24.3654 3.88578 -2.74167 24.3654 3.88578 -2.74167
98 2 25.5368 5.00298 -0.66828 25.5368 5.00298 -0.66828
99 2 26.7568 2.99491 -2.86792 26.7568 2.99491 -2.86792
100 1 27.8616 5.56631 -2.20257 27.8616 5.56631 -2.20257
101 2 28.9604 6.7558 -0.144934 28.9604 6.7558 -0.144934
102 2 30.2565 4.69942 -2.26231 30.2565 4.69942 -2.26231
103 1 29.5469 4.33117 0.183778 29.5469 4.33117 0.183778
104 2 30.628 5.48273 2.22499 30.628 5.48273 2.22499
105 2 31.961 3.60023 -0.0229974 31.961 3.60023 -0.0229974
106 1 33.0093 6.09962 0.786377 33.0093 6.09962 0.786377
107 2 34.1563 7.14824 2.85032 34.1563 7.14824 2.85032
108 2 35.4256 5.39913 0.469886 35.4256 5.39913 0.469886
109 1 36.49 7.85477 1.37465 -14.8016 7.85477 1.37465
110 2 37.7242 8.77728 3.45654 -13.5675 8.77728 3.45654
111 2 38.9033 7.18789 0.932011 -12.3883 7.18789 0.932011
112 1 39.9954 9.58704 1.93709 -11.2962 9.58704 1.93709
113 2 41.3312 10.363 4.02523 -9.96046 10.363 4.02523
114 2 42.3982 8.9624 1.35313 -8.89346 8.9624 1.35313
115 1 42.1902 7.98122 3.75168 -9.10143 7.98122 3.75168
116 2 44.0023 8.05334 5.63644 -7.28938 8.05334 5.63644
117 2 44.451 7.68234 2.5213 -6.84067 7.68234 2.5213
118 1 45.8331 9.5585 4.04743 -5.45857 9.5585 4.04743
119 2 47.763 9.44942 5.80969 -3.52861 9.44942 5.80969
120 2 48.029 9.38369 2.6579 -3.26267 9.38369 2.6579
121 1 48.4034 7.46216 4.32412 -2.88826 7.46216 4.32412
122 2 50.6785 6.77258 5.36494 -0.613109 6.77258 5.36494
123 2 50.1965 7.86692 2.42568 -1.09509 7.86692 2.42568
124 1 52.0611 8.99786 4.15848 0.76945 8.99786 4.15848
125 2 54.3829 8.22471 4.99996 3.09125 8.22471 4.99996
126 2 53.7338 9.55716 2.18539 2.44218 9.55716 2.18539
127 1 54.3114 7.1288 2.67508 3.01978 7.1288 2.67508
128 2 5.41195 6.23469 2.84233 5.41195 6.23469 2.84233
129 2 4.23416 8.21432 0.600382 4.23416 8.21432 0.600382
130 1 6.53441 8.80725 2.16099 6.53441 8.80725 2.16099
131 2 8.92987 7.93042 2.23805 8.92987 7.93042 2.23805
132 2 7.66476 9.98036 0.0998716 7.66476 9.98036 0.0998716
133 1 8.23647 7.54865 -0.207517 8.23647 7.54865 -0.207517
134 2 10.6511 6.80922 -0.0570356 10.6511 6.80922 -0.0570356
135 2 9.28815 8.75689 -2.23362 9.28815 8.75689 -2.23362
136 1 11.6917 9.33714 -0.808457 11.6917 9.33714 -0.808457
137 2 14.11 8.62742 -0.560797 14.11 8.62742 -0.560797
138 2 12.7962 10.4633 -2.85367 12.7962 10.4633 -2.85367
139 1 13.606 8.06558 -3.05756 13.606 8.06558 -3.05756
140 2 15.9793 7.53282 -2.24304 15.9793 7.53282 -2.24304
141 2 15.1164 8.6073 -5.11536 15.1164 8.6073 -5.11536
142 1 17.1887 9.72795 -3.5085 17.1887 9.72795 -3.5085
143 2 19.5256 9.27326 -2.52655 19.5256 9.27326 -2.52655
144 2 18.822 10.0878 -5.51677 18.822 10.0878 -5.51677
145 1 19.6417 7.82389 -4.66329 19.6417 7.82389 -4.66329
146 2 21.7055 7.8485 -3.04343 21.7055 7.8485 -3.04343
147 2 21.7333 7.45776 -6.18134 21.7333 7.45776 -6.18134
148 1 23.3171 9.35056 -4.72443 23.3171 9.35056 -4.72443
149 2 25.2808 9.52074 -2.97931 25.2808 9.52074 -2.97931
150 2 25.4917 8.83716 -6.06238 25.4917 8.83716 -6.06238
151 1 25.8042 7.26221 -4.05643 25.8042 7.26221 -4.05643
152 2 27.2912 8.02891 -2.00597 27.2912 8.02891 -2.00597
153 2 28.1665 6.40173 -4.61286 28.1665 6.40173 -4.61286
154 1 29.3944 8.8449 -3.68062 29.3944 8.8449 -3.68062
155 2 30.7663 9.74214 -1.6061 30.7663 9.74214 -1.6061
156 2 31.7715 7.95403 -4.06685 31.7715 7.95403 -4.06685
157 1 31.3277 7.27552 -1.63131 31.3277 7.27552 -1.63131
158 2 32.3778 8.50777 0.408662 32.3778 8.50777 0.408662
159 2 33.7259 6.44159 -1.67083 33.7259 6.44159 -1.67083
160 1 34.7745 9.01082 -1.03694 34.7745 9.01082 -1.03694
161 2 35.8054 10.2534 0.991062 35.8054 10.2534 0.991062
162 2 37.1777 8.21355 -1.09915 37.1777 8.21355 -1.09915
163 1 38.2167 10.7682 -0.430687 -13.0749 10.7682 -0.430687
164 2 39.2594 11.9843 1.59656 -12.0322 11.9843 1.59656
165 2 40.625 10.0047 -0.55236 -10.6667 10.0047 -0.55236
166 1 41.6649 12.5365 0.175516 -9.6267 12.5365 0.175516
167 2 42.7454 13.69 2.21573 -8.5462 13.69 2.21573
168 2 44.0783 11.8051 -0.0307327 -7.21335 11.8051 -0.0307327
169 1 43.5282 11.29 2.46497 -7.76349 11.29 2.46497
170 2 44.9756 11.9085 4.54014 -6.31608 11.9085 4.54014
171 2 45.9116 10.7202 1.72954 -5.38008 10.7202 1.72954
172 1 47.0911 12.9617 2.94888 -4.20055 12.9617 2.94888
173 2 48.6556 13.4115 4.98937 -2.63607 13.4115 4.98937
174 2 49.4464 12.4652 2.05454 -1.84524 12.4652 2.05454
175 1 49.4958 11.114 4.26125 -1.7958 11.114 4.26125
176 2 51.5338 10.8321 5.87272 0.242139 10.8321 5.87272
177 2 51.6122 11.075 2.72182 0.320585 11.075 2.72182
178 1 53.1711 12.655 4.38571 1.87947 12.655 4.38571
179 2 55.3035 12.2175 5.82353 4.01183 12.2175 5.82353
180 2 55.1934 12.7598 2.71021 3.90179 12.7598 2.71021
181 1 55.6983 10.5545 3.90677 4.40669 10.5545 3.90677
182 2 6.76027 9.71905 4.55352 6.76027 9.71905 4.55352
183 2 5.95809 11.2633 1.88026 5.95809 11.2633 1.88026
184 1 8.01716 12.1357 3.57661 8.01716 12.1357 3.57661
185 2 10.39 11.2588 4.04211 10.39 11.2588 4.04211
186 2 9.44986 12.9838 1.51801 9.44986 12.9838 1.51801
187 1 10.0169 10.5167 1.61164 10.0169 10.5167 1.61164
188 2 12.4156 9.67016 1.64359 12.4156 9.67016 1.64359
189 2 11.0833 11.7493 -0.430959 11.0833 11.7493 -0.430959
190 1 13.4736 12.2548 1.03418 13.4736 12.2548 1.03418
191 2 15.8752 11.4422 1.068 15.8752 11.4422 1.068
192 2 14.5063 13.5166 -0.990204 14.5063 13.5166 -0.990204
193 1 15.1638 11.1183 -1.39935 15.1638 11.1183 -1.39935
194 2 17.581 10.4357 -1.03088 17.581 10.4357 -1.03088
195 2 16.3493 12.1273 -3.46651 16.3493 12.1273 -3.46651
196 1 18.6587 12.875 -1.96713 18.6587 12.875 -1.96713
197 2 21.0697 12.2282 -1.46343 21.0697 12.2282 -1.46343
198 2 19.9399 13.7442 -4.04956 19.9399 13.7442 -4.04956
199 1 20.7979 11.3528 -3.89885 20.7979 11.3528 -3.89885
200 2 23.0892 10.9969 -2.75225 23.0892 10.9969 -2.75225
201 2 22.5509 11.5247 -5.8323 22.5509 11.5247 -5.8323
202 1 24.4318 12.9472 -4.22593 24.4318 12.9472 -4.22593
203 2 26.6633 12.7027 -2.91653 26.6633 12.7027 -2.91653
204 2 26.3041 12.9322 -6.05287 26.3041 12.9322 -6.05287
205 1 26.9906 10.8717 -4.69503 26.9906 10.8717 -4.69503
206 2 28.8417 11.1893 -2.84028 28.8417 11.1893 -2.84028
207 2 29.2351 10.235 -5.8377 29.2351 10.235 -5.8377
208 1 30.6538 12.3947 -4.56846 30.6538 12.3947 -4.56846
209 2 32.3832 12.8605 -2.62394 32.3832 12.8605 -2.62394
210 2 32.9522 11.6605 -5.51115 32.9522 11.6605 -5.51115
211 1 32.9537 10.4569 -3.23848 32.9537 10.4569 -3.23848
212 2 34.2195 11.47 -1.15626 34.2195 11.47 -1.15626
213 2 35.3397 9.55678 -3.47943 35.3397 9.55678 -3.47943
214 1 36.4805 12.1016 -2.741 36.4805 12.1016 -2.741
215 2 37.6568 13.2125 -0.666706 37.6568 13.2125 -0.666706
216 2 38.8713 11.2096 -2.87366 38.8713 11.2096 -2.87366
217 1 39.9757 13.778 -2.20483 -11.3159 13.778 -2.20483
218 2 41.0807 14.9626 -0.147816 -10.2109 14.9626 -0.147816
219 2 42.3693 12.9079 -2.2713 -8.92237 12.9079 -2.2713
220 1 43.4442 15.4832 -1.64055 -7.84743 15.4832 -1.64055
221 2 44.5 16.7158 0.397053 -6.79166 16.7158 0.397053
222 2 45.8409 14.645 -1.6826 -5.45071 14.645 -1.6826
223 1 45.1264 14.3065 0.775346 -6.16527 14.3065 0.775346
224 2 46.271 15.3635 2.8361 -5.02066 15.3635 2.8361
225 2 47.5421 13.6054 0.46278 -3.74954 13.6054 0.46278
226 1 48.6068 16.0658 1.35891 -2.68479 16.0658 1.35891
227 2 49.836 17.0018 3.43756 -1.45566 17.0018 3.43756
228 2 51.0201 15.3982 0.923347 -0.271507 15.3982 0.923347
229 1 50.6832 14.6045 3.38086 -0.608469 14.6045 3.38086
230 2 52.3682 14.8761 5.36158 1.07661 14.8761 5.36158
231 2 53.0014 14.2017 2.32448 1.70977 14.2017 2.32448
232 1 54.3031 16.2207 3.75383 3.01141 16.2207 3.75383
233 2 56.111 16.3071 5.64422 4.81933 16.3071 5.64422
234 2 56.5702 15.923 2.53346 5.27853 15.923 2.53346
235 1 56.8495 14.1873 4.41663 5.55785 14.1873 4.41663
236 2 7.76897 13.6135 5.66453 7.76897 13.6135 5.66453
237 2 7.47553 14.4428 2.62355 7.47553 14.4428 2.62355
238 1 9.23249 15.7191 4.35397 9.23249 15.7191 4.35397
239 2 11.5071 15.0332 5.40086 11.5071 15.0332 5.40086
240 2 11.0339 16.1251 2.46079 11.0339 16.1251 2.46079
241 1 11.5981 13.7449 3.17735 11.5981 13.7449 3.17735
242 2 13.9825 12.8476 3.479 13.9825 12.8476 3.479
243 2 12.917 14.7189 1.10279 12.917 14.7189 1.10279
244 1 15.1465 15.3852 2.71549 15.1465 15.3852 2.71549
245 2 17.5374 14.4886 2.88654 17.5374 14.4886 2.88654
246 2 16.3642 16.4662 0.640624 16.3642 16.4662 0.640624
247 1 16.9186 14.0147 0.441136 16.9186 14.0147 0.441136
248 2 19.3261 13.2387 0.517595 19.3261 13.2387 0.517595
249 2 17.9466 15.2678 -1.57718 17.9466 15.2678 -1.57718
250 1 20.3663 15.7925 -0.160863 20.3663 15.7925 -0.160863
251 2 22.7797 15.0492 -0.0112586 22.7797 15.0492 -0.0112586
252 2 21.4184 16.998 -2.18801 21.4184 16.998 -2.18801
253 1 22.1809 14.6029 -2.50734 22.1809 14.6029 -2.50734
254 2 24.5778 14.0033 -1.8575 24.5778 14.0033 -1.8575
255 2 23.5685 15.317 -4.58982 23.5685 15.317 -4.58982
256 1 25.731 16.2974 -3.01217 25.731 16.2974 -3.01217
257 2 28.1042 15.76 -2.20468 28.1042 15.76 -2.20468
258 2 27.234 16.8407 -5.07355 27.234 16.8407 -5.07355
259 1 28.0866 14.5115 -4.47569 28.0866 14.5115 -4.47569
260 2 30.2434 14.3924 -3.00833 30.2434 14.3924 -3.00833
261 2 30.0722 14.3159 -6.16478 30.0722 14.3159 -6.16478
262 1 31.7558 16.0523 -4.63648 31.7558 16.0523 -4.63648
263 2 33.8229 16.0693 -3.02247 33.8229 16.0693 -3.02247
264 2 33.8412 15.687 -6.16175 33.8412 15.687 -6.16175
265 1 34.2962 13.9283 -4.34734 34.2962 13.9283 -4.34734
266 2 35.9058 14.5436 -2.33971 35.9058 14.5436 -2.33971
267 2 36.6313 13.1199 -5.09682 36.6313 13.1199 -5.09682
268 1 37.9142 15.4814 -4.04734 37.9142 15.4814 -4.04734
269 2 39.4078 16.2409 -1.99997 39.4078 16.2409 -1.99997
270 2 40.273 14.6194 -4.61391 40.273 14.6194 -4.61391
271 1 41.5055 17.0586 -3.67968 -9.78617 17.0586 -3.67968
272 2 42.8862 17.9511 -1.61001 -8.40545 17.9511 -1.61001
273 2 43.8794 16.1648 -4.07679 -7.4122 16.1648 -4.07679
274 1 45.067 18.6651 -3.25026 -6.22468 18.6651 -3.25026
275 2 46.3443 19.677 -1.17461 -4.94731 19.677 -1.17461
276 2 47.4501 17.76 -3.50081 -3.84154 17.76 -3.50081
277 1 46.8941 17.2159 -1.05577 -4.39755 17.2159 -1.05577
278 2 47.9281 18.4644 0.967882 -3.36356 18.4644 0.967882
279 2 49.2958 16.4147 -1.116 -1.99588 16.4147 -1.116
280 1 50.3391 18.9729 -0.459494 -0.952573 18.9729 -0.459494
281 2 51.3801 20.2009 1.56242 0.0885104 20.2009 1.56242
282 2 52.7468 18.2069 -0.57276 1.45515 18.2069 -0.57276
283 1 52.1118 17.8051 1.91802 0.820142 17.8051 1.91802
284 2 53.4402 18.6031 4.00362 2.14858 18.6031 4.00362
285 2 54.5164 17.1804 1.34682 3.2248 17.1804 1.34682
286 1 55.6463 19.5194 2.44553 4.35471 19.5194 2.44553
287 2 57.0825 20.1586 4.52367 5.79086 20.1586 4.52367
288 2 58.0354 18.9516 1.72706 6.74375 18.9516 1.72706
289 1 57.9479 17.8074 4.05453 6.65625 17.8074 4.05453
290 2 8.58056 17.7122 5.82587 8.58056 17.7122 5.82587
291 2 8.86001 17.6313 2.67684 8.86001 17.6313 2.67684
292 1 10.3214 19.3713 4.27642 10.3214 19.3713 4.27642
293 2 12.3564 19.1013 5.89627 12.3564 19.1013 5.89627
294 2 12.4452 19.3267 2.74586 12.4452 19.3267 2.74586
295 1 12.8937 17.258 4.19449 12.8937 17.258 4.19449
296 2 15.2165 16.487 5.03808 15.2165 16.487 5.03808
297 2 14.5701 17.8124 2.22043 14.5701 17.8124 2.22043
298 1 16.5328 18.8147 3.93983 16.5328 18.8147 3.93983
299 2 18.8862 17.9815 4.59206 18.8862 17.9815 4.59206
300 2 18.0868 19.5152 1.91225 18.0868 19.5152 1.91225
301 1 18.6634 17.06 2.20266 18.6634 17.06 2.20266
302 2 21.059 16.1825 2.28351 21.059 16.1825 2.28351
303 2 19.7951 18.2254 0.138314 19.7951 18.2254 0.138314
304 1 22.1461 18.766 1.64974 22.1461 18.766 1.64974
305 2 24.5442 17.9169 1.687 24.5442 17.9169 1.687
306 2 23.2158 19.9898 -0.396058 23.2158 19.9898 -0.396058
307 1 23.8224 17.5754 -0.763787 23.8224 17.5754 -0.763787
308 2 26.24 16.8624 -0.517216 26.24 16.8624 -0.517216
309 2 24.9253 18.6966 -2.8117 24.9253 18.6966 -2.8117
310 1 27.2923 19.3506 -1.35953 27.2923 19.3506 -1.35953
311 2 29.7098 18.6679 -0.994625 29.7098 18.6679 -0.994625
312 2 28.4727 20.357 -3.4299 28.4727 20.357 -3.4299
313 1 29.3103 17.957 -3.47058 29.3103 17.957 -3.47058
314 2 31.6483 17.4988 -2.49628 31.6483 17.4988 -2.49628
315 2 30.9359 18.3186 -5.48354 30.9359 18.3186 -5.48354
316 1 32.9166 19.5798 -3.8692 32.9166 19.5798 -3.8692
317 2 35.2064 19.2149 -2.72668 35.2064 19.2149 -2.72668
318 2 34.6649 19.7529 -5.80563 34.6649 19.7529 -5.80563
319 1 35.4292 17.5745 -4.70426 35.4292 17.5745 -4.70426
320 2 37.3965 17.738 -2.9632 37.3965 17.738 -2.9632
321 2 37.5992 17.0614 -6.04881 37.5992 17.0614 -6.04881
322 1 39.1003 19.0892 -4.68043 39.1003 19.0892 -4.68043
323 2 40.9574 19.4017 -2.83196 40.9574 19.4017 -2.83196
324 2 41.3398 18.4531 -5.833 41.3398 18.4531 -5.833
325 1 42.7619 20.6068 -4.56463 -8.52972 20.6068 -4.56463
326 2 44.5021 21.0692 -2.62993 -6.78955 21.0692 -2.62993
327 2 45.0542 19.8714 -5.52113 -6.23741 19.8714 -5.52113
328 1 46.4065 22.1354 -4.36182 -4.88516 22.1354 -4.36182
329 2 48.0285 22.7481 -2.36421 -3.26318 22.7481 -2.36421
330 2 48.7372 21.3249 -5.12536 -2.55448 21.3249 -5.12536
331 1 48.5997 20.3051 -2.76936 -2.69196 20.3051 -2.76936
332 2 49.7853 21.4188 -0.700577 -1.50632 21.4188 -0.700577
333 2 50.9888 19.4075 -2.90489 -0.302862 19.4075 -2.90489
334 1 52.1029 21.9796 -2.24625 0.81125 21.9796 -2.24625
335 2 53.2092 23.1711 -0.19149 1.91753 23.1711 -0.19149
336 2 54.498 21.1091 -2.3068 3.20637 21.1091 -2.3068
337 1 53.7911 20.7457 0.140348 2.49949 20.7457 0.140348
338 2 54.865 21.917 2.17519 3.57335 21.917 2.17519
339 2 56.2059 20.0147 -0.0520658 4.91424 20.0147 -0.0520658
340 1 57.2547 22.5256 0.739622 5.96302 22.5256 0.739622
341 2 58.3852 23.6037 2.79819 7.09361 23.6037 2.79819
342 2 59.6742 21.8292 0.447006 8.38259 21.8292 0.447006
343 1 59.2099 21.2049 2.93676 7.91823 21.2049 2.93676
344 2 60.7648 21.6727 4.98265 9.4732 21.6727 4.98265
345 2 10.2804 20.7073 2.05951 10.2804 20.7073 2.05951
346 1 11.5112 22.8575 3.37704 11.5112 22.8575 3.37704
347 2 13.1906 23.1429 5.3626 13.1906 23.1429 5.3626
348 2 13.8345 22.4484 2.33285 13.8345 22.4484 2.33285
349 1 14 20.9162 4.40467 14 20.9162 4.40467
350 2 16.1316 20.4856 5.84842 16.1316 20.4856 5.84842
351 2 16.0295 21.0157 2.73388 16.0295 21.0157 2.73388
352 1 17.682 22.4508 4.43616 17.682 22.4508 4.43616
353 2 19.8935 21.883 5.68775 19.8935 21.883 5.68775
354 2 19.6024 22.697 2.64308 19.6024 22.697 2.64308
355 1 20.144 20.3943 3.60696 20.144 20.3943 3.60696
356 2 22.5174 19.52 4.07689 22.5174 19.52 4.07689
357 2 21.5765 21.2319 1.54413 21.5765 21.2319 1.54413
358 1 23.7228 22.0005 3.20083 23.7228 22.0005 3.20083
359 2 26.1066 21.1048 3.51181 26.1066 21.1048 3.51181
360 2 25.044 22.9623 1.12332 25.044 22.9623 1.12332
361 1 25.6031 20.4981 1.0694 25.6031 20.4981 1.0694
362 2 28.0055 19.6857 1.10531 28.0055 19.6857 1.10531
363 2 26.6349 21.7505 -0.961261 26.6349 21.7505 -0.961261
364 1 29.0459 22.2557 0.468248 29.0459 22.2557 0.468248
365 2 31.4525 21.4769 0.547367 31.4525 21.4769 0.547367
366 2 30.0755 23.5016 -1.55362 30.0755 23.5016 -1.55362
367 1 30.7844 21.1062 -1.93544 30.7844 21.1062 -1.93544
368 2 33.1946 20.4572 -1.43431 33.1946 20.4572 -1.43431
369 2 32.0617 21.9725 -4.02013 32.0617 21.9725 -4.02013
370 1 34.3028 22.8289 -2.4807 34.3028 22.8289 -2.4807
371 2 36.6986 22.2254 -1.83196 36.6986 22.2254 -1.83196
372 2 35.6876 23.5372 -4.56537 35.6876 23.5372 -4.56537
373 1 36.5466 21.1664 -4.19899 36.5466 21.1664 -4.19899
374 2 38.7778 20.9141 -2.89476 38.7778 20.9141 -2.89476
375 2 38.4124 21.1534 -6.03125 38.4124 21.1534 -6.03125
376 1 40.1977 22.7247 -4.45523 40.1977 22.7247 -4.45523
377 2 42.3584 22.6003 -2.99691 42.3584 22.6003 -2.99691
378 2 42.1741 22.5312 -6.15413 42.1741 22.5312 -6.15413
379 1 43.8644 24.2604 -4.63044 -7.42721 24.2604 -4.63044
380 2 45.9407 24.2748 -3.02984 -5.35097 24.2748 -3.02984
381 2 45.9403 23.8972 -6.16972 -5.35135 23.8972 -6.16972
382 1 47.54 25.7801 -4.71902 -3.75159 25.7801 -4.71902
383 2 49.5172 25.9398 -2.98991 -1.77448 25.9398 -2.98991
384 2 49.7032 25.2686 -6.07729 -1.58845 25.2686 -6.07729
385 1 50.0303 23.6845 -4.08072 -1.26131 23.6845 -4.08072
386 2 51.5339 24.4428 -2.03984 0.242308 24.4428 -2.03984
387 2 52.3886 22.8226 -4.65672 1.09694 22.8226 -4.65672
388 1 53.6295 25.2623 -3.72482 2.33784 25.2623 -3.72482
389 2 55.0172 26.159 -1.65918 3.7256 26.159 -1.65918
390 2 56.0051 24.3691 -4.12428 4.71347 24.3691 -4.12428
391 1 55.5767 23.6907 -1.68564 4.28507 23.6907 -1.68564
392 2 56.6289 24.933 0.350335 5.33728 24.933 0.350335
393 2 57.9761 22.8548 -1.71714 6.68447 22.8548 -1.71714
394 1 59.03 25.4333 -1.09928 7.73835 25.4333 -1.09928
395 2 60.0522 26.6951 0.924278 8.76057 26.6951 0.924278
396 2 61.4349 24.6373 -1.14113 10.1433 24.6373 -1.14113
397 1 60.7332 24.3 1.33173 9.44161 24.3 1.33173
398 2 61.9494 25.2534 3.41152 10.6578 25.2534 3.41152
399 2 11.8602 23.6368 0.915459 11.8602 23.6368 0.915459
400 1 12.9463 26.0538 1.90163 12.9463 26.0538 1.90163
401 2 14.2661 26.8615 3.9901 14.2661 26.8615 3.9901
402 2 15.3557 25.43 1.34402 15.3557 25.43 1.34402
403 1 15.1332 24.4789 3.7539 15.1332 24.4789 3.7539
404 2 16.937 24.5772 5.64928 16.937 24.5772 5.64928
405 2 17.4055 24.1764 2.54286 17.4055 24.1764 2.54286
406 1 18.7816 26.0707 4.05774 18.7816 26.0707 4.05774
407 2 20.7036 25.9805 5.83275 20.7036 25.9805 5.83275
408 2 20.9902 25.8918 2.68551 20.9902 25.8918 2.68551
409 1 21.3581 23.9825 4.368 21.3581 23.9825 4.368
410 2 23.6313 23.2988 5.41884 23.6313 23.2988 5.41884
411 2 23.1598 24.3776 2.47304 23.1598 24.3776 2.47304
412 1 25.0192 25.5177 4.20449 25.0192 25.5177 4.20449
413 2 27.3383 24.745 5.05429 27.3383 24.745 5.05429
414 2 26.6976 26.063 2.23137 26.6976 26.063 2.23137
415 1 27.2707 23.6362 2.73494 27.2707 23.6362 2.73494
416 2 29.6608 22.7388 2.91243 29.6608 22.7388 2.91243
417 2 28.4906 24.7079 0.657159 28.4906 24.7079 0.657159
418 1 30.7859 25.3037 2.21954 30.7859 25.3037 2.21954
419 2 33.1794 24.422 2.30701 33.1794 24.422 2.30701
420 2 31.9223 26.4611 0.154129 31.9223 26.4611 0.154129
421 1 32.4909 24.0264 -0.137043 32.4909 24.0264 -0.137043
422 2 34.9024 23.2786 0.0141194 34.9024 23.2786 0.0141194
423 2 33.5445 25.2261 -2.1662 33.5445 25.2261 -2.1662
424 1 35.946 25.8006 -0.742235 35.946 25.8006 -0.742235
425 2 38.3629 25.0849 -0.496617 38.3629 25.0849 -0.496617
426 2 37.0478 26.9163 -2.79315 37.0478 26.9163 -2.79315
427 1 37.8503 24.5158 -2.98966 37.8503 24.5158 -2.98966
428 2 40.2231 23.9736 -2.18506 40.2231 23.9736 -2.18506
429 2 39.3493 25.0551 -5.05359 39.3493 25.0551 -5.05359
430 1 41.4274 26.1671 -3.45481 41.4274 26.1671 -3.45481
431 2 43.7675 25.7049 -2.48858 43.7675 25.7049 -2.48858
432 2 43.0444 26.5275 -5.47386 43.0444 26.5275 -5.47386
433 1 45.0323 27.7841 -3.86785 -6.25938 27.7841 -3.86785
434 2 47.329 27.4197 -2.7385 -3.9626 27.4197 -2.7385
435 2 46.77 27.9592 -5.81418 -4.52166 27.9592 -5.81418
436 1 48.6639 29.3699 -4.21847 -2.62773 29.3699 -4.21847
437 2 50.9024 29.1171 -2.92565 -0.389252 29.1171 -2.92565
438 2 50.522 29.3577 -6.06022 -0.769655 29.3577 -6.06022
439 1 51.2162 27.293 -4.71391 -0.0754061 27.293 -4.71391
440 2 53.0842 27.6065 -2.87558 1.79258 27.6065 -2.87558
441 2 53.452 26.6569 -5.877 2.16036 26.6569 -5.877
442 1 54.8868 28.8111 -4.61442 3.59518 28.8111 -4.61442
443 2 56.6358 29.2797 -2.68596 5.34416 29.2797 -2.68596
444 2 57.1808 28.0769 -5.57447 5.88918 28.0769 -5.57447
445 1 57.2011 26.874 -3.30202 5.90949 26.874 -3.30202
446 2 58.4779 27.894 -1.22707 7.18625 27.894 -1.22707
447 2 59.5878 25.9714 -3.54561 8.29619 25.9714 -3.54561
448 1 60.7417 28.5239 -2.81804 9.45008 28.5239 -2.81804
449 2 61.9162 29.648 -0.745781 10.6245 29.648 -0.745781
450 2 63.1353 27.6319 -2.93652 11.8437 27.6319 -2.93652
451 1 62.4741 27.2043 -0.492491 11.1824 27.2043 -0.492491
452 2 63.5018 28.446 1.52963 12.2102 28.446 1.52963
453 2 13.5944 26.4463 -0.587941 13.5944 26.4463 -0.587941
454 1 14.6329 28.9927 0.120705 14.6329 28.9927 0.120705
455 2 15.6969 30.1718 2.15725 15.6969 30.1718 2.15725
456 2 17.0511 28.267 -0.0588456 17.0511 28.267 -0.0588456
457 1 16.4818 27.7764 2.43795 16.4818 27.7764 2.43795
458 2 17.9142 28.4229 4.51789 17.9142 28.4229 4.51789
459 2 18.8744 27.208 1.72776 18.8744 27.208 1.72776
460 1 20.0494 29.4663 2.9351 20.0494 29.4663 2.9351
461 2 21.6016 29.9388 4.98325 21.6016 29.9388 4.98325
462 2 22.4152 28.9696 2.06384 22.4152 28.9696 2.06384
463 1 22.4511 27.6361 4.28245 22.4511 27.6361 4.28245
464 2 24.4844 27.3641 5.90414 24.4844 27.3641 5.90414
465 2 24.5774 27.5869 2.75376 24.5774 27.5869 2.75376
466 1 26.1325 29.177 4.41258 26.1325 29.177 4.41258
467 2 28.2609 28.7423 5.85836 28.2609 28.7423 5.85836
468 2 28.1621 29.2688 2.74291 28.1621 29.2688 2.74291
469 1 28.6585 27.0673 3.95163 28.6585 27.0673 3.95163
470 2 31.0094 26.2306 4.60663 31.0094 26.2306 4.60663
471 2 30.213 27.7588 1.92224 30.213 27.7588 1.92224
472 1 32.2705 28.6393 3.61708 32.2705 28.6393 3.61708
473 2 34.64 27.76 4.09327 34.64 27.76 4.09327
474 2 33.7072 29.4688 1.55522 33.7072 29.4688 1.55522
475 1 34.2707 27.0012 1.66729 34.2707 27.0012 1.66729
476 2 36.6668 26.1469 1.70772 36.6668 26.1469 1.70772
477 2 35.3432 28.217 -0.38147 35.3432 28.217 -0.38147
478 1 37.7297 28.7239 1.08375 37.7297 28.7239 1.08375
479 2 40.13 27.9045 1.11918 40.13 27.9045 1.11918
480 2 38.7643 29.9712 -0.94875 38.7643 29.9712 -0.94875
481 1 39.416 27.5691 -1.34442 39.416 27.5691 -1.34442
482 2 41.8329 26.8811 -0.981729 41.8329 26.8811 -0.981729
483 2 40.5953 28.5687 -3.41822 40.5953 28.5687 -3.41822
484 1 42.9082 29.3139 -1.92872 42.9082 29.3139 -1.92872
485 2 45.3201 28.6618 -1.43558 45.3201 28.6618 -1.43558
486 2 44.1795 30.1769 -4.01862 44.1795 30.1769 -4.01862
487 1 46.427 31.031 -2.48962 -4.86467 31.031 -2.48962
488 2 48.8269 30.4287 -1.8525 -2.46471 30.4287 -1.8525
489 2 47.8024 31.7402 -4.58092 -3.48923 31.7402 -4.58092
490 1 49.9749 32.7174 -3.01861 -1.3167 32.7174 -3.01861
491 2 52.3525 32.1769 -2.22365 1.06083 32.1769 -2.22365
492 2 51.4667 33.256 -5.08906 0.175041 33.256 -5.08906
493 1 52.3183 30.9265 -4.49317 1.02666 30.9265 -4.49317
494 2 54.4858 30.8033 -3.04416 3.19412 30.8033 -3.04416
495 2 54.291 30.7356 -6.19997 2.99941 30.7356 -6.19997
496 1 55.993 32.4649 -4.68232 4.7014 32.4649 -4.68232
497 2 58.0745 32.484 -3.08734 6.78287 32.484 -3.08734
498 2 58.0698 32.1065 -6.22606 6.77817 32.1065 -6.22606
499 1 58.5438 30.3458 -4.41975 7.2522 30.3458 -4.41975
500 2 60.1683 30.9684 -2.42241 8.87667 30.9684 -2.42241
501 2 60.8805 29.5378 -5.17674 9.58882 29.5378 -5.17674
502 1 62.1779 31.9048 -4.13442 10.8863 31.9048 -4.13442
503 2 63.6751 32.6761 -2.08876 12.3834 32.6761 -2.08876
504 2 64.5431 31.0454 -4.69344 13.2515 31.0454 -4.69344
505 1 64.2464 30.2125 -2.28085 12.9547 30.2125 -2.28085
506 2 14.0494 31.4158 -0.224744 14.0494 31.4158 -0.224744
507 2 15.3525 29.347 -2.32442 15.3525 29.347 -2.32442
508 1 16.4295 31.9353 -1.70657 16.4295 31.9353 -1.70657
509 2 17.4694 33.1874 0.331152 17.4694 33.1874 0.331152
510 2 18.8315 31.1052 -1.72252 18.8315 31.1052 -1.72252
511 1 18.0976 30.7827 0.732047 18.0976 30.7827 0.732047
512 2 19.2241 31.8644 2.79228 19.2241 31.8644 2.79228
513 2 20.52 30.0885 0.446779 20.52 30.0885 0.446779
514 1 21.5808 32.5621 1.33288 21.5808 32.5621 1.33288
515 2 22.7947 33.5166 3.41481 22.7947 33.5166 3.41481
516 2 24.0012 31.899 0.921558 24.0012 31.899 0.921558
517 1 23.6474 31.121 3.38184 23.6474 31.121 3.38184
518 2 25.3241 31.4043 5.37057 25.3241 31.4043 5.37057
519 2 25.9748 30.7138 2.34236 25.9748 30.7138 2.34236
520 1 27.2741 32.7408 3.76717 27.2741 32.7408 3.76717
521 2 29.0774 32.8307 5.66331 29.0774 32.8307 5.66331
522 2 29.5479 32.4369 2.55673 29.5479 32.4369 2.55673
523 1 29.817 30.7045 4.44538 29.817 30.7045 4.44538
524 2 32.0253 30.1296 5.69733 32.0253 30.1296 5.69733
525 2 31.7361 30.9427 2.65101 31.7361 30.9427 2.65101
526 1 33.4941 32.2257 4.37736 33.4941 32.2257 4.37736
527 2 35.7654 31.5381 5.42907 35.7654 31.5381 5.42907
528 2 35.2945 32.6131 2.48142 35.2945 32.6131 2.48142
529 1 35.853 30.2355 3.21317 35.853 30.2355 3.21317
530 2 38.2343 29.3334 3.52524 38.2343 29.3334 3.52524
531 2 37.1761 31.1898 1.13429 37.1761 31.1898 1.13429
532 1 39.4053 31.8604 2.74385 39.4053 31.8604 2.74385
533 2 41.7942 30.9578 2.9206 41.7942 30.9578 2.9206
534 2 40.626 32.9243 0.662646 40.626 32.9243 0.662646
535 1 41.1767 30.4704 0.478123 41.1767 30.4704 0.478123
536 2 43.5828 29.687 0.550926 43.5828 29.687 0.550926
537 2 42.2028 31.7103 -1.54909 42.2028 31.7103 -1.54909
538 1 44.6229 32.2329 -0.141479 44.6229 32.2329 -0.141479
539 2 47.0368 31.487 0.000580025 47.0368 31.487 0.000580025
540 2 45.6678 33.4276 -2.17862 45.6678 33.4276 -2.17862
541 1 48.0765 34.0059 -0.768115 -3.21515 34.0059 -0.768115
542 2 50.4948 33.2889 -0.529377 -0.796879 33.2889 -0.529377