ITEM: TIMESTEP
2766000
ITEM: NUMBER OF ATOMS
810
ITEM: BOX BOUNDS xy xz yz pp pp pp
8.6298438867990135e-01 6.5815430629522893e+01 1.3660810018203719e+01
8.1394622342039402e-01 5.0202268776579182e+01 0.0000000000000000e+00
-1.0000000000000000e+01 1.0000000000000000e+01 0.0000000000000000e+00
ITEM: ATOMS id type x y z xu yu zu
1 1 40.878 1.2264 3.13053 -10.4136 1.2264 3.13053
2 2 42.7399 1.25636 4.91211 -8.5517 1.25636 4.91211
3 2 43.023 1.07653 1.71804 -8.26862 1.07653 1.71804
4 1 44.2398 2.8225 3.31708 -7.05188 2.8225 3.31708
5 2 46.1932 2.73062 4.99495 -5.0984 2.73062 4.99495
6 2 46.3135 2.7699 1.78656 -4.97815 2.7699 1.78656
7 1 46.8963 0.89505 3.3957 -4.39532 0.89505 3.3957
8 2 62.8005 49.7957 4.54942 -2.15192 0.40737 4.54942
9 2 48.6254 1.29149 1.50103 -2.66619 1.29149 1.50103
10 1 50.2585 2.47947 3.23624 -1.03315 2.47947 3.23624
11 2 1.25952 1.92582 4.24744 1.25952 1.92582 4.24744
12 2 51.8926 2.98977 1.28257 0.600983 2.98977 1.28257
13 1 15.087 50.1161 2.02083 1.4262 0.727735 2.02083
14 2 17.4854 49.4257 2.54736 3.82455 0.0374101 2.54736
15 2 2.72293 1.63175 -0.0366619 2.72293 1.63175 -0.0366619
16 1 4.70104 2.39681 1.59145 4.70104 2.39681 1.59145
17 2 7.10909 1.70733 2.04622 7.10909 1.70733 2.04622
18 2 5.93368 3.36099 -0.469451 5.93368 3.36099 -0.469451
19 1 6.81492 1.02251 -0.374718 6.81492 1.02251 -0.374718
20 2 22.8796 49.8233 0.155231 9.21876 0.435017 0.155231
21 2 8.01884 1.93815 -2.44073 8.01884 1.93815 -2.44073
22 1 10.0485 2.75271 -0.886816 10.0485 2.75271 -0.886816
23 2 12.4429 2.20056 -0.266616 12.4429 2.20056 -0.266616
24 2 11.3103 3.58075 -2.95651 11.3103 3.58075 -2.95651
25 1 12.3137 1.28954 -2.65533 12.3137 1.28954 -2.65533
26 2 14.6002 0.931935 -1.56692 14.6002 0.931935 -1.56692
27 2 13.926 1.64741 -4.62976 13.926 1.64741 -4.62976
28 1 15.6369 2.92504 -2.99798 15.6369 2.92504 -2.99798
29 2 17.8736 2.64243 -1.77753 17.8736 2.64243 -1.77753
30 2 17.3501 3.14823 -4.90853 17.3501 3.14823 -4.90853
31 1 18.2352 1.07772 -3.75546 18.2352 1.07772 -3.75546
32 2 20.1921 1.18285 -2.06893 20.1921 1.18285 -2.06893
33 2 33.9712 50.2007 -5.25674 20.3104 0.812378 -5.25674
34 1 21.6109 2.64591 -3.77566 21.6109 2.64591 -3.77566
35 2 23.4771 2.86493 -1.99366 23.4771 2.86493 -1.99366
36 2 23.762 2.28089 -5.13969 23.762 2.28089 -5.13969
37 1 37.8753 50.1401 -3.16914 24.2145 0.751773 -3.16914
38 2 25.7088 1.42754 -1.15257 25.7088 1.42754 -1.15257
39 2 40.2237 49.5085 -3.97148 26.5629 0.120194 -3.97148
40 1 27.5372 2.36884 -2.8498 27.5372 2.36884 -2.8498
41 2 28.9452 3.1464 -0.808572 28.9452 3.1464 -0.808572
42 2 29.9106 1.70382 -3.52756 29.9106 1.70382 -3.52756
43 1 29.8009 0.815222 -1.16075 29.8009 0.815222 -1.16075
44 2 30.965 1.82311 0.901582 30.965 1.82311 0.901582
45 2 45.8759 49.5415 -1.5683 32.2151 0.153221 -1.5683
46 1 33.0287 2.53511 -0.649754 33.0287 2.53511 -0.649754
47 2 34.1878 3.52951 1.41173 34.1878 3.52951 1.41173
48 2 35.4404 1.90118 -1.08398 35.4404 1.90118 -1.08398
49 1 35.1457 1.20886 1.35415 35.1457 1.20886 1.35415
50 2 36.5315 1.87259 3.41066 36.5315 1.87259 3.41066
51 2 51.1742 50.1017 0.567645 37.5134 0.713373 0.567645
52 1 38.4212 2.90071 1.80003 38.4212 2.90071 1.80003
53 2 39.898 3.44636 3.83169 39.898 3.44636 3.83169
54 2 40.7611 2.45405 0.891922 40.7611 2.45405 0.891922
55 1 41.717 4.57226 2.20329 -9.5746 4.57226 2.20329
56 2 43.2884 4.99311 4.19654 -8.00326 4.99311 4.19654
57 2 44.0211 4.18556 1.16912 -7.27052 4.18556 1.16912
58 1 45.0319 6.2241 2.55974 -6.25979 6.2241 2.55974
59 2 46.7033 6.51729 4.4963 -4.58836 6.51729 4.4963
60 2 47.2894 5.90307 1.39512 -4.00219 5.90307 1.39512
61 1 47.61 4.40727 3.43526 -3.6816 4.40727 3.43526
62 2 49.6506 4.2019 4.99379 -1.64101 4.2019 4.99379
63 2 49.6033 4.45742 1.79338 -1.68834 4.45742 1.79338
64 1 50.9845 5.98433 3.47809 -0.307177 5.98433 3.47809
65 2 53.1015 5.67545 4.90899 1.80985 5.67545 4.90899
66 2 52.8929 6.14401 1.73823 1.60129 6.14401 1.73823
67 1 2.31532 4.07548 3.00877 2.31532 4.07548 3.00877
68 2 4.64609 3.47052 3.8848 4.64609 3.47052 3.8848
69 2 3.85759 4.69384 1.01132 3.85759 4.69384 1.01132
70 1 5.64671 5.68655 2.72051 5.64671 5.68655 2.72051
71 2 8.0057 5.0403 3.47001 8.0057 5.0403 3.47001
72 2 7.10323 6.4082 0.693245 7.10323 6.4082 0.693245
73 1 7.955 4.08627 1.12611 7.955 4.08627 1.12611
74 2 10.3666 3.40993 1.5451 10.3666 3.40993 1.5451
75 2 9.14178 5.08502 -0.933863 9.14178 5.08502 -0.933863
76 1 11.1921 5.79353 0.633954 11.1921 5.79353 0.633954
77 2 13.6042 5.14254 1.05423 13.6042 5.14254 1.05423
78 2 12.3547 6.79701 -1.42631 12.3547 6.79701 -1.42631
79 1 13.2941 4.4724 -1.38347 13.2941 4.4724 -1.38347
80 2 15.6717 3.95401 -0.655756 15.6717 3.95401 -0.655756
81 2 14.6355 5.19574 -3.44651 14.6355 5.19574 -3.44651
82 1 16.5588 6.17136 -1.84761 16.5588 6.17136 -1.84761
83 2 18.9148 5.70072 -1.00549 18.9148 5.70072 -1.00549
84 2 17.9837 6.77793 -3.89629 17.9837 6.77793 -3.89629
85 1 18.977 4.53994 -3.28309 18.977 4.53994 -3.28309
86 2 21.1554 4.34265 -1.93532 21.1554 4.34265 -1.93532
87 2 20.7879 4.63153 -5.11361 20.7879 4.63153 -5.11361
88 1 22.3309 6.1381 -3.50714 22.3309 6.1381 -3.50714
89 2 24.4401 6.03545 -2.03357 24.4401 6.03545 -2.03357
90 2 24.2393 6.10062 -5.23803 24.2393 6.10062 -5.23803
91 1 24.9837 4.21498 -3.71928 24.9837 4.21498 -3.71928
92 2 26.7572 4.55421 -1.85703 26.7572 4.55421 -1.85703
93 2 27.1992 3.76096 -4.94068 27.1992 3.76096 -4.94068
94 1 28.349 5.79032 -3.59292 28.349 5.79032 -3.59292
95 2 30.0277 6.24843 -1.66582 30.0277 6.24843 -1.66582
96 2 30.6185 5.26206 -4.67031 30.6185 5.26206 -4.67031
97 1 30.8399 4.00618 -2.48028 30.8399 4.00618 -2.48028
98 2 32.1675 4.87527 -0.424779 32.1675 4.87527 -0.424779
99 2 33.232 3.31945 -3.04617 33.232 3.31945 -3.04617
100 1 34.1212 5.66466 -2.06698 34.1212 5.66466 -2.06698
101 2 35.3788 6.607 -0.00688145 35.3788 6.607 -0.00688145
102 2 36.5252 4.97185 -2.54705 36.5252 4.97185 -2.54705
103 1 36.2521 4.26672 -0.131123 36.2521 4.26672 -0.131123
104 2 37.4379 5.21263 1.93226 37.4379 5.21263 1.93226
105 2 38.6588 3.66559 -0.628623 38.6588 3.66559 -0.628623
106 1 39.4806 6.00152 0.38162 39.4806 6.00152 0.38162
107 2 40.7192 6.87224 2.44657 40.7192 6.87224 2.44657
108 2 41.8785 5.43298 -0.201855 41.8785 5.43298 -0.201855
109 1 42.7211 7.72968 0.875516 -8.57056 7.72968 0.875516
110 2 44.0312 8.50779 2.93627 -7.26046 8.50779 2.93627
111 2 45.1049 7.19336 0.191962 -6.1867 7.19336 0.191962
112 1 45.9787 9.44275 1.33882 -5.31296 9.44275 1.33882
113 2 47.3713 10.1128 3.38738 -3.92035 10.1128 3.38738
114 2 48.3424 8.94544 0.543538 -2.94928 8.94544 0.543538
115 1 48.365 7.85431 2.85701 -2.92664 7.85431 2.85701
116 2 50.1343 8.01866 4.72165 -1.15732 8.01866 4.72165
117 2 50.5681 7.61067 1.56382 -0.723577 7.61067 1.56382
118 1 51.7124 9.46601 3.09312 0.420813 9.46601 3.09312
119 2 53.5747 9.50241 4.87224 2.28306 9.50241 4.87224
120 2 53.8539 9.31163 1.67785 2.56231 9.31163 1.67785
121 1 3.06583 7.55904 3.44946 3.06583 7.55904 3.44946
122 2 5.24888 7.15654 4.74683 5.24888 7.15654 4.74683
123 2 4.88627 7.83254 1.62589 4.88627 7.83254 1.62589
124 1 6.43313 9.13508 3.35416 6.43313 9.13508 3.35416
125 2 8.67378 8.65337 4.51353 8.67378 8.65337 4.51353
126 2 8.16208 9.52199 1.4597 8.16208 9.52199 1.4597
127 1 8.96017 7.31377 2.3811 8.96017 7.31377 2.3811
128 2 11.342 6.64043 3.013 11.342 6.64043 3.013
129 2 10.3337 8.12865 0.332593 10.3337 8.12865 0.332593
130 1 12.2534 8.96048 1.99153 12.2534 8.96048 1.99153
131 2 14.6504 8.27209 2.52474 14.6504 8.27209 2.52474
132 2 13.5528 9.85629 -0.0675135 13.5528 9.85629 -0.0675135
133 1 14.4184 7.51653 0.121576 14.4184 7.51653 0.121576
134 2 16.828 6.89975 0.585557 16.828 6.89975 0.585557
135 2 15.5875 8.48653 -1.94262 15.5875 8.48653 -1.94262
136 1 17.6421 9.24863 -0.399458 17.6421 9.24863 -0.399458
137 2 20.0452 8.66573 0.136542 20.0452 8.66573 0.136542
138 2 18.8478 10.157 -2.46736 18.8478 10.157 -2.46736
139 1 19.8412 7.85225 -2.28072 19.8412 7.85225 -2.28072
140 2 22.1649 7.43548 -1.31267 22.1649 7.43548 -1.31267
141 2 21.3615 8.33309 -4.29809 21.3615 8.33309 -4.29809
142 1 23.1443 9.51059 -2.66872 23.1443 9.51059 -2.66872
143 2 25.4257 9.15686 -1.56905 25.4257 9.15686 -1.56905
144 2 24.7646 9.86069 -4.63742 24.7646 9.86069 -4.63742
145 1 25.6957 7.72199 -3.66147 25.6957 7.72199 -3.66147
146 2 27.7285 7.72312 -2.07272 27.7285 7.72312 -2.07272
147 2 27.6935 7.56418 -5.27967 27.6935 7.56418 -5.27967
148 1 29.0664 9.29706 -3.74598 29.0664 9.29706 -3.74598
149 2 31.0169 9.40836 -2.05338 31.0169 9.40836 -2.05338
150 2 31.1457 9.02852 -5.23972 31.1457 9.02852 -5.23972
151 1 31.7024 7.37638 -3.39971 31.7024 7.37638 -3.39971
152 2 33.2866 7.94923 -1.42191 33.2866 7.94923 -1.42191
153 2 34.0155 6.78823 -4.33525 34.0155 6.78823 -4.33525
154 1 35.0399 8.97735 -3.14349 35.0399 8.97735 -3.14349
155 2 36.5338 9.65969 -1.12963 36.5338 9.65969 -1.12963
156 2 37.3865 8.34334 -3.94513 37.3865 8.34334 -3.94513
157 1 37.3812 7.34548 -1.61807 37.3812 7.34548 -1.61807
158 2 38.5861 8.33734 0.439385 38.5861 8.33734 0.439385
159 2 39.7907 6.6607 -2.04809 39.7907 6.6607 -2.04809
160 1 40.6238 9.04742 -1.14435 40.6238 9.04742 -1.14435
161 2 41.7979 10.0591 0.909547 41.7979 10.0591 0.909547
162 2 43.0345 8.38294 -1.5631 43.0345 8.38294 -1.5631
163 1 43.8546 10.7676 -0.654042 -7.43704 10.7676 -0.654042
164 2 45.0236 11.7642 1.40008 -6.26808 11.7642 1.40008
165 2 46.2637 10.1339 -1.10089 -5.02794 10.1339 -1.10089
166 1 47.0801 12.5012 -0.154517 -4.21153 12.5012 -0.154517
167 2 48.2744 13.4492 1.90232 -3.01726 13.4492 1.90232
168 2 49.4838 11.9001 -0.663266 -1.80786 11.9001 -0.663266
169 1 49.2547 11.1366 1.76646 -2.03693 11.1366 1.76646
170 2 50.7352 11.6873 3.79259 -0.556485 11.6873 3.79259
171 2 51.5912 10.689 0.852154 0.299527 10.689 0.852154
172 1 52.5487 12.81 2.15677 1.2571 12.81 2.15677
173 2 54.1221 13.2356 4.14582 2.83047 13.2356 4.14582
174 2 54.8494 12.4198 1.11865 3.55773 12.4198 1.11865
175 1 3.77894 11.0626 3.26975 3.77894 11.0626 3.26975
176 2 5.73186 10.9767 4.94659 5.73186 10.9767 4.94659
177 2 5.84955 11.0027 1.73725 5.84955 11.0027 1.73725
178 1 7.1448 12.6459 3.37899 7.1448 12.6459 3.37899
179 2 9.18069 12.4454 4.9417 9.18069 12.4454 4.9417
180 2 9.13812 12.6895 1.73941 9.13812 12.6895 1.73941
181 1 9.79109 10.7175 3.19131 9.79109 10.7175 3.19131
182 2 12.0792 10.1677 4.21231 12.0792 10.1677 4.21231
183 2 11.4291 11.2188 1.24059 11.4291 11.2188 1.24059
184 1 13.1365 12.3104 2.96725 13.1365 12.3104 2.96725
185 2 15.4638 11.7066 3.8515 15.4638 11.7066 3.8515
186 2 14.6834 12.9222 0.972351 14.6834 12.9222 0.972351
187 1 15.5256 10.627 1.56137 15.5256 10.627 1.56137
188 2 17.9325 9.93859 2.02031 17.9325 9.93859 2.02031
189 2 16.7598 11.5859 -0.501033 16.7598 11.5859 -0.501033
190 1 18.7766 12.3149 1.09583 18.7766 12.3149 1.09583
191 2 21.187 11.6402 1.519 21.187 11.6402 1.519
192 2 19.9647 13.311 -0.964245 19.9647 13.311 -0.964245
193 1 20.8729 10.9795 -0.912716 20.8729 10.9795 -0.912716
194 2 23.264 10.4277 -0.281803 23.264 10.4277 -0.281803
195 2 22.1428 11.8018 -2.9795 22.1428 11.8018 -2.9795
196 1 24.119 12.6971 -1.39991 24.119 12.6971 -1.39991
197 2 26.4936 12.1821 -0.662457 26.4936 12.1821 -0.662457
198 2 25.4658 13.4155 -3.4602 25.4658 13.4155 -3.4602
199 1 26.4664 11.1461 -3.00222 26.4664 11.1461 -3.00222
200 2 28.6977 10.8668 -1.77321 28.6977 10.8668 -1.77321
201 2 28.1849 11.3651 -4.90722 28.1849 11.3651 -4.90722
202 1 29.804 12.7622 -3.2791 29.804 12.7622 -3.2791
203 2 31.9773 12.5685 -1.92438 31.9773 12.5685 -1.92438
204 2 31.6188 12.851 -5.10452 31.6188 12.851 -5.10452
205 1 32.4384 10.8683 -3.76014 32.4384 10.8683 -3.76014
206 2 34.3009 11.094 -1.9756 34.3009 11.094 -1.9756
207 2 34.5906 10.5002 -5.11973 34.5906 10.5002 -5.11973
208 1 35.807 12.4405 -3.70375 35.807 12.4405 -3.70375
209 2 37.5788 12.7834 -1.84214 37.5788 12.7834 -1.84214
210 2 38.0214 11.9863 -4.92499 38.0214 11.9863 -4.92499
211 1 38.3595 10.5969 -2.83206 38.3595 10.5969 -2.83206
212 2 39.7699 11.3797 -0.795467 39.7699 11.3797 -0.795467
213 2 40.7308 9.93087 -3.5131 40.7308 9.93087 -3.5131
214 1 41.6601 12.2374 -2.47407 41.6601 12.2374 -2.47407
215 2 42.9944 13.1077 -0.424723 42.9944 13.1077 -0.424723
216 2 44.0495 11.553 -3.05097 44.0495 11.553 -3.05097
217 1 44.9408 13.8998 -2.07587 -6.35088 13.8998 -2.07587
218 2 46.2105 14.8428 -0.0243602 -5.08117 14.8428 -0.0243602
219 2 47.3406 13.2069 -2.57169 -3.95099 13.2069 -2.57169
220 1 48.2029 15.5815 -1.64834 -3.08874 15.5815 -1.64834
221 2 49.4168 16.5734 0.403649 -1.87485 16.5734 0.403649
222 2 50.6101 14.897 -2.08952 -0.681516 14.897 -2.08952
223 1 50.3093 14.2372 0.341193 -0.982318 14.2372 0.341193
224 2 51.5522 15.1102 2.40157 0.260573 15.1102 2.40157
225 2 52.7051 13.6692 -0.249165 1.41343 13.6692 -0.249165
226 1 53.5485 15.967 0.823523 2.25687 15.967 0.823523
227 2 54.863 16.746 2.88012 3.5714 16.746 2.88012
228 2 55.9296 15.4287 0.13385 4.63794 15.4287 0.13385
229 1 4.56919 14.4616 2.50225 4.56919 14.4616 2.50225
230 2 6.23993 14.7577 4.43696 6.23993 14.7577 4.43696
231 2 6.82429 14.1371 1.33585 6.82429 14.1371 1.33585
232 1 7.89818 16.0906 2.79349 7.89818 16.0906 2.79349
233 2 9.66345 16.2581 4.65975 9.66345 16.2581 4.65975
234 2 10.1006 15.8424 1.50262 10.1006 15.8424 1.50262
235 1 10.5141 14.2211 3.42172 10.5141 14.2211 3.42172
236 2 12.625 13.9162 4.86045 12.625 13.9162 4.86045
237 2 12.4253 14.3742 1.68699 12.4253 14.3742 1.68699
238 1 13.8829 15.7933 3.39826 13.8829 15.7933 3.39826
239 2 16.0606 15.394 4.70424 16.0606 15.394 4.70424
240 2 15.7075 16.0607 1.58006 15.7075 16.0607 1.58006
241 1 16.4657 13.9182 2.68365 16.4657 13.9182 2.68365
242 2 18.8235 13.2739 3.43762 18.8235 13.2739 3.43762
243 2 17.924 14.6347 0.656233 17.924 14.6347 0.656233
244 1 19.7759 15.5446 2.34537 19.7759 15.5446 2.34537
245 2 22.1539 14.8697 2.9855 22.1539 14.8697 2.9855
246 2 21.1557 16.3579 0.300789 21.1557 16.3579 0.300789
247 1 22.011 14.0225 0.606323 22.011 14.0225 0.606323
248 2 24.4205 13.3726 1.03763 24.4205 13.3726 1.03763
249 2 23.1802 15.0217 -1.45153 23.1802 15.0217 -1.45153
250 1 25.2367 15.7447 0.103866 25.2367 15.7447 0.103866
251 2 27.6432 15.1272 0.577571 27.6432 15.1272 0.577571
252 2 26.413 16.7135 -1.95615 26.413 16.7135 -1.95615
253 1 27.3822 14.3973 -1.85643 27.3822 14.3973 -1.85643
254 2 29.7335 13.9267 -1.00367 29.7335 13.9267 -1.00367
255 2 28.8147 15 -3.90009 28.8147 15 -3.90009
256 1 30.664 16.0772 -2.2774 30.664 16.0772 -2.2774
257 2 32.984 15.6609 -1.30288 32.984 15.6609 -1.30288
258 2 32.1878 16.557 -4.29112 32.1878 16.557 -4.29112
259 1 33.1547 14.3623 -3.49631 33.1547 14.3623 -3.49631
260 2 35.2612 14.2627 -2.02024 35.2612 14.2627 -2.02024
261 2 35.0636 14.3245 -5.22517 35.0636 14.3245 -5.22517
262 1 36.5154 15.9493 -3.6485 36.5154 15.9493 -3.6485
263 2 38.5483 15.953 -2.06097 38.5483 15.953 -2.06097
264 2 38.5108 15.792 -5.26815 38.5108 15.792 -5.26815
265 1 39.1679 14.0195 -3.58068 39.1679 14.0195 -3.58068
266 2 40.8489 14.4792 -1.65756 40.8489 14.4792 -1.65756
267 2 41.4338 13.4931 -4.66367 41.4338 13.4931 -4.66367
268 1 42.5175 15.6097 -3.39643 42.5175 15.6097 -3.39643
269 2 44.1093 16.1845 -1.42646 44.1093 16.1845 -1.42646
270 2 44.8254 15.0233 -4.34332 44.8254 15.0233 -4.34332
271 1 45.8536 17.2145 -3.15695 -5.43807 17.2145 -3.15695
272 2 47.3575 17.895 -1.15133 -3.93417 17.895 -1.15133
273 2 48.1954 16.5838 -3.9737 -3.09624 16.5838 -3.9737
274 1 49.1732 18.837 -2.8625 -2.11839 18.837 -2.8625
275 2 50.5932 19.6161 -0.831659 -0.698416 19.6161 -0.831659
276 2 51.5414 18.1739 -3.55721 0.249772 18.1739 -3.55721
277 1 51.4462 17.2845 -1.18992 0.154593 17.2845 -1.18992
278 2 52.6277 18.2971 0.859419 1.33602 18.2971 0.859419
279 2 53.8548 16.6185 -1.61641 2.56313 16.6185 -1.61641
280 1 54.6781 19.0041 -0.712515 3.38643 19.0041 -0.712515
281 2 55.8528 20.0013 1.33802 4.5612 20.0013 1.33802
282 2 5.7935 18.3674 -1.16479 5.7935 18.3674 -1.16479
283 1 5.51332 17.6787 1.27599 5.51332 17.6787 1.27599
284 2 6.90729 18.3506 3.32181 6.90729 18.3506 3.32181
285 2 7.87463 17.1776 0.478374 7.87463 17.1776 0.478374
286 1 8.78741 19.3699 1.69649 8.78741 19.3699 1.69649
287 2 10.2642 19.9235 3.72307 10.2642 19.9235 3.72307
288 2 11.123 18.9181 0.785197 11.123 18.9181 0.785197
289 1 11.2409 17.7003 3.02926 11.2409 17.7003 3.02926
290 2 13.0964 17.7402 4.81366 13.0964 17.7402 4.81366
291 2 13.3841 17.5407 1.61996 13.3841 17.5407 1.61996
292 1 14.5944 19.2945 3.21098 14.5944 19.2945 3.21098
293 2 16.5392 19.2102 4.89638 16.5392 19.2102 4.89638
294 2 16.6698 19.2322 1.68715 16.6698 19.2322 1.68715
295 1 17.2473 17.3671 3.30944 17.2473 17.3671 3.30944
296 2 19.4823 16.8829 4.47706 19.4823 16.8829 4.47706
297 2 18.9832 17.7535 1.42147 18.9832 17.7535 1.42147
298 1 20.6038 18.9468 3.16013 20.6038 18.9468 3.16013
299 2 22.8871 18.3937 4.18865 22.8871 18.3937 4.18865
300 2 22.249 19.4485 1.21557 22.249 19.4485 1.21557
301 1 23.0681 17.189 1.96715 23.0681 17.189 1.96715
302 2 25.4618 16.4985 2.5083 25.4618 16.4985 2.5083
303 2 24.3744 18.0854 -0.0868638 24.3744 18.0854 -0.0868638
304 1 26.3405 18.854 1.55051 26.3405 18.854 1.55051
305 2 28.7447 18.1639 2.01685 28.7447 18.1639 2.01685
306 2 27.5812 19.8142 -0.506911 27.5812 19.8142 -0.506911
307 1 28.4609 17.4759 -0.404535 28.4609 17.4759 -0.404535
308 2 30.8613 16.8923 0.140155 30.8613 16.8923 0.140155
309 2 29.6728 18.3828 -2.46862 29.6728 18.3828 -2.46862
310 1 31.6915 19.2062 -0.906425 31.6915 19.2062 -0.906425
311 2 34.0816 18.6561 -0.271166 34.0816 18.6561 -0.271166
312 2 32.963 20.0268 -2.97205 32.963 20.0268 -2.97205
313 1 33.9646 17.7364 -2.6573 33.9646 17.7364 -2.6573
314 2 36.2448 17.385 -1.55652 36.2448 17.385 -1.55652
315 2 35.5836 18.087 -4.62565 35.5836 18.087 -4.62565
316 1 37.2827 19.3753 -2.9902 37.2827 19.3753 -2.9902
317 2 39.5143 19.0974 -1.76273 39.5143 19.0974 -1.76273
318 2 38.9984 19.5963 -4.89643 38.9984 19.5963 -4.89643
319 1 39.8817 17.5282 -3.73646 39.8817 17.5282 -3.73646
320 2 41.8343 17.6408 -2.04767 41.8343 17.6408 -2.04767
321 2 41.9568 17.262 -5.23485 41.9568 17.262 -5.23485
322 1 43.2496 19.1039 -3.75768 43.2496 19.1039 -3.75768
323 2 45.1185 19.329 -1.98147 45.1185 19.329 -1.98147
324 2 45.3949 18.741 -5.12817 45.3949 18.741 -5.12817
325 1 46.6157 20.6812 -3.71423 -4.67594 20.6812 -3.71423
326 2 48.396 21.0202 -1.86145 -2.89562 21.0202 -1.86145
327 2 48.8237 20.2334 -4.94901 -2.46798 20.2334 -4.94901
328 1 49.9761 22.2639 -3.60407 -1.3155 22.2639 -3.60407
329 2 51.6667 22.7178 -1.68845 0.375018 22.7178 -1.68845
330 2 52.2369 21.7433 -4.70109 0.945246 21.7433 -4.70109
331 1 52.4749 20.479 -2.51767 1.18324 20.479 -2.51767
332 2 53.8198 21.3444 -0.473429 2.5282 21.3444 -0.473429
333 2 54.8611 19.7956 -3.1085 3.56949 19.7956 -3.1085
334 1 55.7583 22.1405 -2.13222 4.46663 22.1405 -2.13222
335 2 57.037 23.0772 -0.0829511 5.74532 23.0772 -0.0829511
336 2 6.86481 21.4481 -2.63919 6.86481 21.4481 -2.63919
337 1 6.61319 20.7354 -0.223212 6.61319 20.7354 -0.223212
338 2 7.80992 21.6835 1.8318 7.80992 21.6835 1.8318
339 2 9.01552 20.1311 -0.733892 9.01552 20.1311 -0.733892
340 1 9.84279 22.4686 0.267307 9.84279 22.4686 0.267307
341 2 11.0872 23.3443 2.32517 11.0872 23.3443 2.32517
342 2 12.2362 21.8928 -0.321957 12.2362 21.8928 -0.321957
343 1 12.078 21.0409 2.08635 12.078 21.0409 2.08635
344 2 13.6459 21.4709 4.07785 13.6459 21.4709 4.07785
345 2 14.3786 20.6442 1.05433 14.3786 20.6442 1.05433
346 1 15.3872 22.6884 2.43437 15.3872 22.6884 2.43437
347 2 17.0434 22.9887 4.37988 17.0434 22.9887 4.37988
348 2 17.6482 22.363 1.28328 17.6482 22.363 1.28328
349 1 17.9568 20.8759 3.33227 17.9568 20.8759 3.33227
350 2 19.983 20.6745 4.90693 19.983 20.6745 4.90693
351 2 19.959 20.9189 1.7045 19.959 20.9189 1.7045
352 1 21.324 22.4493 3.39435 21.324 22.4493 3.39435
353 2 23.4274 22.1407 4.84327 23.4274 22.1407 4.84327
354 2 23.2445 22.6032 1.66965 23.2445 22.6032 1.66965
355 1 23.9483 20.5374 2.95043 23.9483 20.5374 2.95043
356 2 26.2716 19.9309 3.84189 26.2716 19.9309 3.84189
357 2 25.5022 21.1504 0.961402 25.5022 21.1504 0.961402
358 1 27.2777 22.1441 2.68097 27.2777 22.1441 2.68097
359 2 29.6327 21.4979 3.44132 29.6327 21.4979 3.44132
360 2 28.7423 22.8625 0.658929 28.7423 22.8625 0.658929
361 1 29.5921 20.5414 1.0981 29.5921 20.5414 1.0981
362 2 32.0012 19.8663 1.5263 32.0012 19.8663 1.5263
363 2 30.7843 21.5381 -0.959029 30.7843 21.5381 -0.959029
364 1 32.8266 22.2497 0.616667 32.8266 22.2497 0.616667
365 2 35.237 21.6031 1.04778 35.237 21.6031 1.04778
366 2 33.9939 23.2495 -1.44172 33.9939 23.2495 -1.44172
367 1 34.9353 20.9259 -1.38954 34.9353 20.9259 -1.38954
368 2 37.31 20.413 -0.651186 37.31 20.413 -0.651186
369 2 36.2814 21.6441 -3.44981 36.2814 21.6441 -3.44981
370 1 38.1963 22.6293 -1.84546 38.1963 22.6293 -1.84546
371 2 40.5479 22.1592 -0.993214 40.5479 22.1592 -0.993214
372 2 39.6275 23.2335 -3.88905 39.6275 23.2335 -3.88905
373 1 40.6169 20.9953 -3.26884 40.6169 20.9953 -3.26884
374 2 42.7922 20.8016 -1.91837 42.7922 20.8016 -1.91837
375 2 42.4269 21.0882 -5.09779 42.4269 21.0882 -5.09779
376 1 43.9645 22.5998 -3.49056 43.9645 22.5998 -3.49056
377 2 46.076 22.4991 -2.02325 46.076 22.4991 -2.02325
378 2 45.8654 22.569 -5.22751 45.8654 22.569 -5.22751
379 1 47.3232 24.1919 -3.65252 -3.96845 24.1919 -3.65252
380 2 49.3625 24.1918 -2.07399 -1.92914 24.1918 -2.07399
381 2 49.3114 24.043 -5.28174 -1.98027 24.043 -5.28174
382 1 50.6895 25.7747 -3.74958 -0.602171 25.7747 -3.74958
383 2 52.6506 25.8821 -2.07053 1.359 25.8821 -2.07053
384 2 52.7571 25.516 -5.25988 1.46544 25.516 -5.25988
385 1 53.3271 23.8561 -3.43128 2.03546 23.8561 -3.43128
386 2 54.9294 24.4224 -1.46789 3.63776 24.4224 -1.46789
387 2 55.6303 23.275 -4.39374 4.33862 23.275 -4.39374
388 1 56.6661 25.4606 -3.20218 5.37451 25.4606 -3.20218
389 2 58.1795 26.1314 -1.2003 6.88783 26.1314 -1.2003
390 2 7.71349 24.8344 -4.03264 7.71349 24.8344 -4.03264
391 1 7.73184 23.8202 -1.71244 7.73184 23.8202 -1.71244
392 2 8.95409 24.8062 0.338174 8.95409 24.8062 0.338174
393 2 10.1377 23.1337 -2.16218 10.1377 23.1337 -2.16218
394 1 10.9797 25.5187 -1.25994 10.9797 25.5187 -1.25994
395 2 12.1681 26.5235 0.789865 12.1681 26.5235 0.789865
396 2 13.3871 24.8491 -1.693 13.3871 24.8491 -1.693
397 1 13.0836 24.1917 0.744724 13.0836 24.1917 0.744724
398 2 14.3886 24.9729 2.80557 14.3886 24.9729 2.80557
399 2 15.4662 23.6521 0.0644931 15.4662 23.6521 0.0644931
400 1 16.3364 25.9017 1.20926 16.3364 25.9017 1.20926
401 2 17.713 26.5754 3.26581 17.713 26.5754 3.26581
402 2 18.7035 25.4038 0.429363 18.7035 25.4038 0.429363
403 1 18.7112 24.3174 2.7455 18.7112 24.3174 2.7455
404 2 20.4618 24.4854 4.62546 20.4618 24.4854 4.62546
405 2 20.9227 24.0703 1.47166 20.9227 24.0703 1.47166
406 1 22.0505 25.927 3.00705 22.0505 25.927 3.00705
407 2 23.8968 25.965 4.80223 23.8968 25.965 4.80223
408 2 24.2022 25.7684 1.61031 24.2022 25.7684 1.61031
409 1 24.6925 24.0195 3.38991 24.6925 24.0195 3.38991
410 2 26.8657 23.6165 4.70279 26.8657 23.6165 4.70279
411 2 26.5246 24.289 1.57881 26.5246 24.289 1.57881
412 1 28.0578 25.5926 3.31592 28.0578 25.5926 3.31592
413 2 30.2913 25.1078 4.48714 30.2913 25.1078 4.48714
414 2 29.7979 25.9801 1.43152 29.7979 25.9801 1.43152
415 1 30.5893 23.7705 2.35489 30.5893 23.7705 2.35489
416 2 32.9683 23.0985 2.99576 32.9683 23.0985 2.99576
417 2 31.9689 24.584 0.310318 31.9689 24.584 0.310318
418 1 33.8806 25.4187 1.97688 33.8806 25.4187 1.97688
419 2 36.2756 24.7319 2.51731 36.2756 24.7319 2.51731
420 2 35.1844 26.316 -0.077971 35.1844 26.316 -0.077971
421 1 36.05 23.9765 0.113302 36.05 23.9765 0.113302
422 2 38.4575 23.3623 0.587626 38.4575 23.3623 0.587626
423 2 37.225 24.9449 -1.94735 37.225 24.9449 -1.94735
424 1 39.2731 25.7117 -0.396213 39.2731 25.7117 -0.396213
425 2 41.6737 25.1285 0.150401 41.6737 25.1285 0.150401
426 2 40.4865 26.6177 -2.45979 40.4865 26.6177 -2.45979
427 1 41.4767 24.3119 -2.26612 41.4767 24.3119 -2.26612
428 2 43.7984 23.8964 -1.29553 43.7984 23.8964 -1.29553
429 2 42.9961 24.7951 -4.28171 42.9961 24.7951 -4.28171
430 1 44.7759 25.975 -2.64985 44.7759 25.975 -2.64985
431 2 47.0594 25.623 -1.5563 47.0594 25.623 -1.5563
432 2 46.3886 26.332 -4.62191 46.3886 26.332 -4.62191
433 1 48.0936 27.618 -2.98863 -3.198 27.618 -2.98863
434 2 50.3304 27.3387 -1.77018 -0.961199 27.3387 -1.77018
435 2 49.8022 27.8459 -4.9006 -1.48945 27.8459 -4.9006
436 1 51.4286 29.2417 -3.27552 0.136957 29.2417 -3.27552
437 2 53.61 29.0434 -1.93441 2.31835 29.0434 -1.93441
438 2 53.2321 29.3424 -5.11113 1.94045 29.3424 -5.11113
439 1 54.0592 27.3526 -3.78186 2.76754 27.3526 -3.78186
440 2 55.936 27.5692 -2.0128 4.64439 27.5692 -2.0128
441 2 56.1992 26.9973 -5.16353 4.90756 26.9973 -5.16353
442 1 57.4287 28.9298 -3.74482 6.13706 28.9298 -3.74482
443 2 59.2181 29.26 -1.89844 7.92651 29.26 -1.89844
444 2 59.6317 28.4877 -4.99162 8.3401 28.4877 -4.99162
445 1 8.69841 27.0812 -2.91368 8.69841 27.0812 -2.91368
446 2 10.1295 27.8495 -0.886282 10.1295 27.8495 -0.886282
447 2 11.0634 26.4198 -3.62314 11.0634 26.4198 -3.62314
448 1 12.0061 28.7181 -2.57535 12.0061 28.7181 -2.57535
449 2 13.3575 29.5703 -0.529556 13.3575 29.5703 -0.529556
450 2 14.3917 28.0368 -3.1759 14.3917 28.0368 -3.1759
451 1 14.2158 27.2311 -0.784107 14.2158 27.2311 -0.784107
452 2 15.3841 28.2232 1.27351 15.3841 28.2232 1.27351
453 2 16.6255 26.5947 -1.2283 16.6255 26.5947 -1.2283
454 1 17.4404 28.96 -0.278156 17.4404 28.96 -0.278156
455 2 18.6226 29.9067 1.78674 18.6226 29.9067 1.78674
456 2 19.8471 28.3578 -0.772006 19.8471 28.3578 -0.772006
457 1 19.6042 27.5949 1.65589 19.6042 27.5949 1.65589
458 2 21.0662 28.1489 3.69372 21.0662 28.1489 3.69372
459 2 21.9464 27.1446 0.761892 21.9464 27.1446 0.761892
460 1 22.891 29.266 2.07135 22.891 29.266 2.07135
461 2 24.4435 29.6912 4.07651 24.4435 29.6912 4.07651
462 2 25.2009 28.8775 1.05579 25.2009 28.8775 1.05579
463 1 25.4036 27.5202 3.2094 25.4036 27.5202 3.2094
464 2 27.3413 27.4322 4.90359 27.3413 27.4322 4.90359
465 2 27.4871 27.4615 1.69537 27.4871 27.4615 1.69537
466 1 28.7668 29.1019 3.3498 28.7668 29.1019 3.3498
467 2 30.7928 28.8957 4.92556 30.7928 28.8957 4.92556
468 2 30.7719 29.1504 1.7243 30.7719 29.1504 1.7243
469 1 31.4155 27.1734 3.17379 31.4155 27.1734 3.17379
470 2 33.7 26.6198 4.20046 33.7 26.6198 4.20046
471 2 33.0608 27.6794 1.22946 33.0608 27.6794 1.22946
472 1 34.7614 28.7663 2.96556 34.7614 28.7663 2.96556
473 2 37.0859 28.157 3.85276 37.0859 28.157 3.85276
474 2 36.3144 29.3867 0.976954 36.3144 29.3867 0.976954
475 1 37.1518 27.088 1.55802 37.1518 27.088 1.55802
476 2 39.5555 26.3976 2.02586 39.5555 26.3976 2.02586
477 2 38.394 28.0509 -0.496996 38.394 28.0509 -0.496996
478 1 40.406 28.776 1.10944 40.406 28.776 1.10944
479 2 42.8156 28.1003 1.53691 42.8156 28.1003 1.53691
480 2 41.5988 29.7759 -0.945919 41.5988 29.7759 -0.945919
481 1 42.505 27.443 -0.896401 42.505 27.443 -0.896401
482 2 44.8961 26.8921 -0.263388 44.8961 26.8921 -0.263388
483 2 43.7755 28.2665 -2.96164 43.7755 28.2665 -2.96164
484 1 45.7505 29.1642 -1.37949 45.7505 29.1642 -1.37949
485 2 48.1271 28.6497 -0.647297 48.1271 28.6497 -0.647297
486 2 47.0926 29.8886 -3.44043 47.0926 29.8886 -3.44043
487 1 49.013 30.8699 -1.83803 -2.27866 30.8699 -1.83803
488 2 51.3686 30.3985 -0.996036 0.0769374 30.3985 -0.996036
489 2 50.4371 31.482 -3.88468 -0.854504 31.482 -3.88468
490 1 52.2946 32.5559 -2.26547 1.00298 32.5559 -2.26547
491 2 54.62 32.1349 -1.30376 3.32837 32.1349 -1.30376
492 2 53.8098 33.0473 -4.28332 2.51814 33.0473 -4.28332
493 1 54.7786 30.8477 -3.50441 3.48698 30.8477 -3.50441
494 2 56.896 30.7404 -2.04433 5.60432 30.7404 -2.04433
495 2 56.6748 30.8243 -5.2476 5.38318 30.8243 -5.2476
496 1 58.1408 32.4393 -3.6706 6.84914 32.4393 -3.6706
497 2 60.1874 32.4313 -2.10025 8.89579 32.4313 -2.10025
498 2 60.1232 32.2971 -5.3084 8.83158 32.2971 -5.3084
499 1 9.50216 30.5102 -3.64156 9.50216 30.5102 -3.64156
500 2 11.2021 30.953 -1.73089 11.2021 30.953 -1.73089
501 2 11.759 29.9942 -4.75085 11.759 29.9942 -4.75085
502 1 12.8587 32.0981 -3.47328 12.8587 32.0981 -3.47328
503 2 14.4637 32.6512 -1.50746 14.4637 32.6512 -1.50746
504 2 15.163 31.5228 -4.44045 15.163 31.5228 -4.44045
505 1 15.2942 30.374 -2.18609 15.2942 30.374 -2.18609
506 2 16.5689 31.2999 -0.128158 16.5689 31.2999 -0.128158
507 2 17.6956 29.6847 -2.6896 17.6956 29.6847 -2.6896
508 1 18.5596 32.0511 -1.74717 18.5596 32.0511 -1.74717
509 2 19.7705 33.028 0.315862 19.7705 33.028 0.315862
510 2 20.9699 31.3693 -2.18599 20.9699 31.3693 -2.18599
511 1 20.6649 30.6934 0.238593 20.6649 30.6934 0.238593
512 2 21.8891 31.5635 2.31157 21.8891 31.5635 2.31157
513 2 23.0659 30.1283 -0.332082 23.0659 30.1283 -0.332082
514 1 23.8969 32.4226 0.753595 23.8969 32.4226 0.753595
515 2 25.1903 33.1976 2.82552 25.1903 33.1976 2.82552
516 2 26.2852 31.8893 0.0858645 26.2852 31.8893 0.0858645
517 1 26.1964 30.9168 2.45142 26.1964 30.9168 2.45142
518 2 27.8481 31.2096 4.40356 27.8481 31.2096 4.40356
519 2 28.4628 30.5978 1.30673 28.4628 30.5978 1.30673
520 1 29.5219 32.5462 2.78043 29.5219 32.5462 2.78043
521 2 31.274 32.7054 4.66147 31.274 32.7054 4.66147
522 2 31.7359 32.3066 1.50627 31.7359 32.3066 1.50627
523 1 32.1368 30.6757 3.42017 32.1368 30.6757 3.42017
524 2 34.2425 30.3615 4.86573 34.2425 30.3615 4.86573
525 2 34.0572 30.8376 1.69448 34.0572 30.8376 1.69448
526 1 35.5093 32.2463 3.41943 35.5093 32.2463 3.41943
527 2 37.6855 31.8378 4.7269 37.6855 31.8378 4.7269
528 2 37.3401 32.5239 1.60643 37.3401 32.5239 1.60643
529 1 38.0933 30.3741 2.69816 38.0933 30.3741 2.69816
530 2 40.449 29.7254 3.45541 40.449 29.7254 3.45541
531 2 39.5576 31.0991 0.677834 39.5576 31.0991 0.677834
532 1 41.4088 32.0008 2.37485 41.4088 32.0008 2.37485
533 2 43.7875 31.3231 3.01269 43.7875 31.3231 3.01269
534 2 42.7906 32.8227 0.334172 42.7906 32.8227 0.334172
535 1 43.6438 30.4851 0.630073 43.6438 30.4851 0.630073
536 2 46.0541 29.8349 1.05915 46.0541 29.8349 1.05915
537 2 44.8126 31.4897 -1.42554 44.8126 31.4897 -1.42554
538 1 46.8719 32.2106 0.130586 46.8719 32.2106 0.130586
539 2 49.2806 31.5928 0.597147 49.2806 31.5928 0.597147
540 2 48.0443 33.1869 -1.9286 48.0443 33.1869 -1.9286
541 1 50.098 33.9462 -0.379292 -1.19364 33.9462 -0.379292