ITEM: TIMESTEP
2023000
ITEM: NUMBER OF ATOMS
810
ITEM: BOX BOUNDS xy xz yz pp pp pp
8.6298438867990135e-01 6.2145878263823185e+01 9.9912576525040180e+00
8.1394622342039402e-01 5.0202268776579182e+01 0.0000000000000000e+00
-1.0000000000000000e+01 1.0000000000000000e+01 0.0000000000000000e+00
ITEM: ATOMS id type x y z xu yu zu
1 1 44.3514 1.1925 2.43938 -6.94028 1.1925 2.43938
2 2 46.1385 1.31329 4.26238 -5.15315 1.31329 4.26238
3 2 46.4962 1.02468 1.0664 -4.79549 1.02468 1.0664
4 1 47.5658 2.80953 2.64223 -3.72585 2.80953 2.64223
5 2 49.4339 2.82682 4.38693 -1.85773 2.82682 4.38693
6 2 49.6519 2.71874 1.16795 -1.63977 2.71874 1.16795
7 1 50.263 0.974444 2.89268 -1.02862 0.974444 2.89268
8 2 11.1104 50.0298 4.23253 1.11919 0.641495 4.23253
9 2 0.76883 1.24013 1.07861 0.76883 1.24013 1.07861
10 1 2.20027 2.56925 2.8096 2.20027 2.56925 2.8096
11 2 4.40431 2.16917 4.03192 4.40431 2.16917 4.03192
12 2 3.9154 2.9298 0.930644 3.9154 2.9298 0.930644
13 1 14.797 50.1994 1.94729 4.80572 0.811104 1.94729
14 2 17.1428 49.6312 2.74664 7.15149 0.242918 2.74664
15 2 6.22059 1.51299 -0.0808631 6.22059 1.51299 -0.0808631
16 1 7.97953 2.45967 1.60552 7.97953 2.45967 1.60552
17 2 10.3454 1.87504 2.32033 10.3454 1.87504 2.32033
18 2 9.32885 3.227 -0.440409 9.32885 3.227 -0.440409
19 1 10.3223 0.973196 -0.0293573 10.3223 0.973196 -0.0293573
20 2 22.6904 49.8406 0.651886 12.6991 0.452245 0.651886
21 2 11.5886 1.75943 -2.09505 11.5886 1.75943 -2.09505
22 1 13.4453 2.6817 -0.492976 13.4453 2.6817 -0.492976
23 2 15.8111 2.19318 0.252305 15.8111 2.19318 0.252305
24 2 14.7506 3.40672 -2.5556 14.7506 3.40672 -2.5556
25 1 15.8307 1.1919 -2.07974 15.8307 1.1919 -2.07974
26 2 18.0934 0.871964 -0.964167 18.0934 0.871964 -0.964167
27 2 17.4147 1.55563 -4.04885 17.4147 1.55563 -4.04885
28 1 19.0141 2.84134 -2.41138 19.0141 2.84134 -2.41138
29 2 21.2336 2.58269 -1.18935 21.2336 2.58269 -1.18935
30 2 20.6813 3.101 -4.32948 20.6813 3.101 -4.32948
31 1 21.6505 1.07814 -3.18541 21.6505 1.07814 -3.18541
32 2 23.6325 1.12889 -1.56478 23.6325 1.12889 -1.56478
33 2 23.637 0.937599 -4.78691 23.637 0.937599 -4.78691
34 1 24.8809 2.67562 -3.25649 24.8809 2.67562 -3.25649
35 2 26.7882 2.81714 -1.54899 26.7882 2.81714 -1.54899
36 2 26.9397 2.44859 -4.75236 26.9397 2.44859 -4.75236
37 1 27.5661 0.843715 -2.91129 27.5661 0.843715 -2.91129
38 2 29.1607 1.35921 -0.962033 29.1607 1.35921 -0.962033
39 2 39.828 49.7432 -3.9593 29.8368 0.354868 -3.9593
40 1 30.7722 2.46434 -2.69742 30.7722 2.46434 -2.69742
41 2 32.2917 3.06541 -0.712693 32.2917 3.06541 -0.712693
42 2 33.0775 1.93474 -3.639 33.0775 1.93474 -3.639
43 1 33.2454 0.844878 -1.37507 33.2454 0.844878 -1.37507
44 2 34.5299 1.68382 0.67346 34.5299 1.68382 0.67346
45 2 45.615 49.6454 -2.02071 35.6238 0.257093 -2.02071
46 1 36.3838 2.53549 -0.967812 36.3838 2.53549 -0.967812
47 2 37.6439 3.38013 1.08612 37.6439 3.38013 1.08612
48 2 38.7654 1.96523 -1.60301 38.7654 1.96523 -1.60301
49 1 38.685 1.12563 0.780317 38.685 1.12563 0.780317
50 2 40.0823 1.74773 2.81811 40.0823 1.74773 2.81811
51 2 51.0132 50.0685 -0.0881847 41.022 0.680173 -0.0881847
52 1 41.834 2.81577 1.18185 41.834 2.81577 1.18185
53 2 43.3009 3.34668 3.19936 43.3009 3.34668 3.19936
54 2 44.1469 2.40982 0.221896 44.1469 2.40982 0.221896
55 1 44.9974 4.49013 1.55517 -6.29425 4.49013 1.55517
56 2 46.538 4.92137 3.54377 -4.75362 4.92137 3.54377
57 2 47.2802 4.13442 0.497757 -4.01139 4.13442 0.497757
58 1 48.1744 6.14977 1.89876 -3.11725 6.14977 1.89876
59 2 49.7979 6.47635 3.84327 -1.49375 6.47635 3.84327
60 2 50.4176 5.84922 0.735046 -0.874041 5.84922 0.735046
61 1 50.7894 4.4151 2.79223 -0.50219 4.4151 2.79223
62 2 1.44674 4.33387 4.44445 1.44674 4.33387 4.44445
63 2 1.51596 4.4065 1.2182 1.51596 4.4065 1.2182
64 1 2.72819 6.01163 2.88036 2.72819 6.01163 2.88036
65 2 4.75139 5.83676 4.43192 4.75139 5.83676 4.43192
66 2 4.67408 6.09325 1.21503 4.67408 6.09325 1.21503
67 1 5.42283 4.16956 2.66435 5.42283 4.16956 2.66435
68 2 7.67405 3.71125 3.77061 7.67405 3.71125 3.77061
69 2 7.05687 4.62473 0.732741 7.05687 4.62473 0.732741
70 1 8.63631 5.77858 2.46277 8.63631 5.77858 2.46277
71 2 10.9287 5.27322 3.45312 10.9287 5.27322 3.45312
72 2 10.1886 6.32462 0.486623 10.1886 6.32462 0.486623
73 1 11.1373 4.12389 1.22204 11.1373 4.12389 1.22204
74 2 13.5164 3.5375 1.87625 13.5164 3.5375 1.87625
75 2 12.4318 4.9382 -0.834856 12.4318 4.9382 -0.834856
76 1 14.2792 5.80489 0.802487 14.2792 5.80489 0.802487
77 2 16.6631 5.22924 1.43135 16.6631 5.22924 1.43135
78 2 15.54 6.64084 -1.25877 15.54 6.64084 -1.25877
79 1 16.575 4.38652 -0.947551 16.575 4.38652 -0.947551
80 2 18.9235 3.93095 -0.120266 18.9235 3.93095 -0.120266
81 2 17.9396 5.03417 -2.9991 17.9396 5.03417 -2.9991
82 1 19.7171 6.08042 -1.3781 19.7171 6.08042 -1.3781
83 2 22.0437 5.66401 -0.460192 22.0437 5.66401 -0.460192
84 2 21.1499 6.64063 -3.41134 21.1499 6.64063 -3.41134
85 1 22.2116 4.47695 -2.69748 22.2116 4.47695 -2.69748
86 2 24.38 4.28548 -1.36777 24.38 4.28548 -1.36777
87 2 23.9641 4.63272 -4.55099 23.9641 4.63272 -4.55099
88 1 25.422 6.09955 -2.9303 25.422 6.09955 -2.9303
89 2 27.5327 5.98362 -1.4957 27.5327 5.98362 -1.4957
90 2 27.2581 6.15252 -4.70782 27.2581 6.15252 -4.70782
91 1 28.1132 4.2718 -3.26478 28.1132 4.2718 -3.26478
92 2 29.9438 4.50768 -1.48143 29.9438 4.50768 -1.48143
93 2 30.2359 3.9652 -4.65088 30.2359 3.9652 -4.65088
94 1 31.3438 5.86968 -3.21446 31.3438 5.86968 -3.21446
95 2 33.095 6.1995 -1.36451 33.095 6.1995 -1.36451
96 2 33.5242 5.49306 -4.48668 33.5242 5.49306 -4.48668
97 1 33.9668 4.0972 -2.4347 33.9668 4.0972 -2.4347
98 2 35.4141 4.77663 -0.421786 35.4141 4.77663 -0.421786
99 2 36.3009 3.53668 -3.27583 36.3009 3.53668 -3.27583
100 1 37.1479 5.74388 -2.12473 37.1479 5.74388 -2.12473
101 2 38.5288 6.49191 -0.0917366 38.5288 6.49191 -0.0917366
102 2 39.5043 5.16259 -2.87743 39.5043 5.16259 -2.87743
103 1 39.5129 4.23813 -0.536393 39.5129 4.23813 -0.536393
104 2 40.7719 5.05964 1.52172 40.7719 5.05964 1.52172
105 2 41.8922 3.69497 -1.19334 41.8922 3.69497 -1.19334
106 1 42.6378 5.94807 -0.0898209 42.6378 5.94807 -0.0898209
107 2 43.9221 6.71817 1.96978 43.9221 6.71817 1.96978
108 2 45.0094 5.43735 -0.798266 45.0094 5.43735 -0.798266
109 1 45.7651 7.65793 0.359047 -5.52654 7.65793 0.359047
110 2 47.0968 8.35827 2.41388 -4.19488 8.35827 2.41388
111 2 48.1236 7.18011 -0.420696 -3.16803 7.18011 -0.420696
112 1 48.9013 9.36008 0.795371 -2.39033 9.36008 0.795371
113 2 50.2973 9.97459 2.83705 -0.994298 9.97459 2.83705
114 2 51.2402 8.91864 -0.07216 -0.051388 8.91864 -0.07216
115 1 51.3665 7.79217 2.19922 0.0748398 7.79217 2.19922
116 2 53.0755 8.0106 4.08621 1.78391 8.0106 4.08621
117 2 2.27028 7.55595 0.925797 2.27028 7.55595 0.925797
118 1 3.28032 9.41869 2.45071 3.28032 9.41869 2.45071
119 2 5.07471 9.5309 4.26743 5.07471 9.5309 4.26743
120 2 5.42044 9.25408 1.06909 5.42044 9.25408 1.06909
121 1 5.96161 7.6036 2.90905 5.96161 7.6036 2.90905
122 2 8.05412 7.34341 4.3515 8.05412 7.34341 4.3515
123 2 7.83018 7.77882 1.16038 7.83018 7.77882 1.16038
124 1 9.19489 9.19485 2.87565 9.19489 9.19485 2.87565
125 2 11.3501 8.85651 4.20246 11.3501 8.85651 4.20246
126 2 10.9827 9.46763 1.05283 10.9827 9.46763 1.05283
127 1 11.8374 7.40002 2.20392 11.8374 7.40002 2.20392
128 2 14.1621 6.85673 3.0862 14.1621 6.85673 3.0862
129 2 13.3128 8.03258 0.194704 13.3128 8.03258 0.194704
130 1 15.0242 9.03558 1.89607 15.0242 9.03558 1.89607
131 2 17.3739 8.46644 2.68237 17.3739 8.46644 2.68237
132 2 16.4286 9.74463 -0.136842 16.4286 9.74463 -0.136842
133 1 17.4097 7.49986 0.359277 17.4097 7.49986 0.359277
134 2 19.7941 6.95143 0.997227 19.7941 6.95143 0.997227
135 2 18.6575 8.32491 -1.70685 18.6575 8.32491 -1.70685
136 1 20.5316 9.20812 -0.103902 20.5316 9.20812 -0.103902
137 2 22.9079 8.68847 0.580387 22.9079 8.68847 0.580387
138 2 21.8001 9.99452 -2.16804 21.8001 9.99452 -2.16804
139 1 22.8733 7.76192 -1.77969 22.8733 7.76192 -1.77969
140 2 25.1693 7.38976 -0.760323 25.1693 7.38976 -0.760323
141 2 24.3844 8.22637 -3.78281 24.3844 8.22637 -3.78281
142 1 26.0454 9.42775 -2.1418 26.0454 9.42775 -2.1418
143 2 28.3048 9.10862 -1.01834 28.3048 9.10862 -1.01834
144 2 27.6369 9.79213 -4.10513 27.6369 9.79213 -4.10513
145 1 28.6427 7.71181 -3.10773 28.6427 7.71181 -3.10773
146 2 30.6899 7.67686 -1.57416 30.6899 7.67686 -1.57416
147 2 30.5587 7.66599 -4.79922 30.5587 7.66599 -4.79922
148 1 31.8708 9.31614 -3.22808 31.8708 9.31614 -3.22808
149 2 33.8478 9.36563 -1.60025 33.8478 9.36563 -1.60025
150 2 33.8639 9.1777 -4.82233 33.8639 9.1777 -4.82233
151 1 34.5698 7.47209 -3.10468 34.5698 7.47209 -3.10468
152 2 36.24 7.89468 -1.19745 36.24 7.89468 -1.19745
153 2 36.801 7.0353 -4.26105 36.801 7.0353 -4.26105
154 1 37.7878 9.08212 -2.93561 37.7878 9.08212 -2.93561
155 2 39.3781 9.59428 -0.981498 39.3781 9.59428 -0.981498
156 2 40.0619 8.59509 -3.97848 40.0619 8.59509 -3.97848
157 1 40.3145 7.40494 -1.77233 40.3145 7.40494 -1.77233
158 2 41.6378 8.20785 0.273507 41.6378 8.20785 0.273507
159 2 42.6864 6.81367 -2.45452 42.6864 6.81367 -2.45452
160 1 43.4663 9.08027 -1.38322 43.4663 9.08027 -1.38322
161 2 44.7411 9.91535 0.673695 44.7411 9.91535 0.673695
162 2 45.8495 8.49683 -2.01856 45.8495 8.49683 -2.01856
163 1 46.6022 10.7726 -0.955863 -4.68939 10.7726 -0.955863
164 2 47.8545 11.6112 1.10556 -3.43709 11.6112 1.10556
165 2 48.9871 10.2078 -1.58482 -2.30454 10.2078 -1.58482
166 1 49.7285 12.4764 -0.506721 -1.56313 12.4764 -0.506721
167 2 50.9852 13.2897 1.55611 -0.306427 13.2897 1.55611
168 2 52.1088 11.9385 -1.1643 0.817118 11.9385 -1.1643
169 1 52.0507 11.0488 1.20704 0.759069 11.0488 1.20704
170 2 53.5227 11.5685 3.22426 2.23109 11.5685 3.22426
171 2 3.07068 10.6472 0.240413 3.07068 10.6472 0.240413
172 1 3.92434 12.72 1.58263 3.92434 12.72 1.58263
173 2 5.47518 13.1391 3.56603 5.47518 13.1391 3.56603
174 2 6.20217 12.368 0.512404 6.20217 12.368 0.512404
175 1 6.49719 11.0318 2.64786 6.49719 11.0318 2.64786
176 2 8.37441 11.0402 4.38281 8.37441 11.0402 4.38281
177 2 8.57559 10.9469 1.16225 8.57559 10.9469 1.16225
178 1 9.7226 12.6346 2.78872 9.7226 12.6346 2.78872
179 2 11.6782 12.5416 4.43188 11.6782 12.5416 4.43188
180 2 11.7341 12.6375 1.20587 11.7341 12.6375 1.20587
181 1 12.4242 10.7891 2.7812 12.4242 10.7891 2.7812
182 2 14.6337 10.3816 3.9904 14.6337 10.3816 3.9904
183 2 14.1303 11.1602 0.895747 14.1303 11.1602 0.895747
184 1 15.646 12.3896 2.62944 15.646 12.3896 2.62944
185 2 17.9031 11.9238 3.71966 17.9031 11.9238 3.71966
186 2 17.2691 12.858 0.691367 17.2691 12.858 0.691367
187 1 18.1951 10.6871 1.54441 18.1951 10.6871 1.54441
188 2 20.563 10.1011 2.24931 20.563 10.1011 2.24931
189 2 19.5364 11.4635 -0.502783 19.5364 11.4635 -0.502783
190 1 21.3504 12.3548 1.1576 21.3504 12.3548 1.1576
191 2 23.7288 11.7661 1.80911 23.7288 11.7661 1.80911
192 2 22.6429 13.1777 -0.89598 22.6429 13.1777 -0.89598
193 1 23.6557 10.9188 -0.563681 23.6557 10.9188 -0.563681
194 2 26.0186 10.4284 0.190447 26.0186 10.4284 0.190447
195 2 24.9698 11.6444 -2.62061 24.9698 11.6444 -2.62061
196 1 26.7891 12.6236 -1.00445 26.7891 12.6236 -1.00445
197 2 29.1349 12.1663 -0.169768 29.1349 12.1663 -0.169768
198 2 28.1612 13.2743 -3.05 28.1612 13.2743 -3.05
199 1 29.232 11.0792 -2.46203 29.232 11.0792 -2.46203
200 2 31.4473 10.8188 -1.23195 31.4473 10.8188 -1.23195
201 2 30.9071 11.3415 -4.37318 30.9071 11.3415 -4.37318
202 1 32.4323 12.7162 -2.73338 32.4323 12.7162 -2.73338
203 2 34.5965 12.5223 -1.39629 34.5965 12.5223 -1.39629
204 2 34.1919 12.8749 -4.58025 34.1919 12.8749 -4.58025
205 1 35.1033 10.9149 -3.28574 35.1033 10.9149 -3.28574
206 2 37.006 11.0536 -1.57241 37.006 11.0536 -1.57241
207 2 37.1669 10.6904 -4.7758 37.1669 10.6904 -4.7758
208 1 38.3367 12.5116 -3.28174 38.3367 12.5116 -3.28174
209 2 40.1616 12.7421 -1.49157 40.1616 12.7421 -1.49157
210 2 40.4647 12.209 -4.66137 40.4647 12.209 -4.66137
211 1 40.9951 10.7023 -2.71034 40.9951 10.7023 -2.71034
212 2 42.5069 11.2975 -0.717714 42.5069 11.2975 -0.717714
213 2 43.3052 10.1773 -3.64441 43.3052 10.1773 -3.64441
214 1 44.1888 12.3357 -2.42917 44.1888 12.3357 -2.42917
215 2 45.6281 13.0112 -0.408546 45.6281 13.0112 -0.408546
216 2 46.527 11.7785 -3.26188 46.527 11.7785 -3.26188
217 1 47.3683 13.9827 -2.10184 -3.92336 13.9827 -2.10184
218 2 48.7413 14.7281 -0.0620492 -2.55033 14.7281 -0.0620492
219 2 49.7277 13.4037 -2.84635 -1.56395 13.4037 -2.84635
220 1 50.5321 15.6438 -1.73448 -0.759528 15.6438 -1.73448
221 2 51.8482 16.4427 0.317238 0.556589 16.4427 0.317238
222 2 52.9061 15.0571 -2.41185 1.61449 15.0571 -2.41185
223 1 52.8521 14.1859 -0.0493668 1.56045 14.1859 -0.0493668
224 2 54.1405 14.9454 2.0114 2.84888 14.9454 2.0114
225 2 3.93064 13.6797 -0.765728 3.93064 13.6797 -0.765728
226 1 4.68838 15.8933 0.401924 4.68838 15.8933 0.401924
227 2 6.03077 16.5805 2.45403 6.03077 16.5805 2.45403
228 2 7.0424 15.4185 -0.392771 7.0424 15.4185 -0.392771
229 1 7.10416 14.3748 1.92001 7.10416 14.3748 1.92001
230 2 8.73635 14.6878 3.85907 8.73635 14.6878 3.85907
231 2 9.34175 14.0826 0.743504 9.34175 14.0826 0.743504
232 1 10.2972 16.0147 2.21714 10.2972 16.0147 2.21714
233 2 12.0145 16.2209 4.09785 12.0145 16.2209 4.09785
234 2 12.4867 15.7873 0.932405 12.4867 15.7873 0.932405
235 1 12.9534 14.2302 2.87441 12.9534 14.2302 2.87441
236 2 14.9849 14.0433 4.41346 14.9849 14.0433 4.41346
237 2 14.8905 14.3242 1.19913 14.8905 14.3242 1.19913
238 1 16.1867 15.8216 2.89759 16.1867 15.8216 2.89759
239 2 18.2866 15.5491 4.32621 18.2866 15.5491 4.32621
240 2 18.046 16.0115 1.14004 18.046 16.0115 1.14004
241 1 18.8575 14.0004 2.42098 18.8575 14.0004 2.42098
242 2 21.153 13.4872 3.39808 21.153 13.4872 3.39808
243 2 20.4012 14.5616 0.442409 20.4012 14.5616 0.442409
244 1 22.0562 15.6242 2.1621 22.0562 15.6242 2.1621
245 2 24.382 15.0749 3.03547 24.382 15.0749 3.03547
246 2 23.5261 16.2706 0.153779 23.5261 16.2706 0.153779
247 1 24.4918 14.0382 0.744379 24.4918 14.0382 0.744379
248 2 26.8743 13.4622 1.37665 26.8743 13.4622 1.37665
249 2 25.7547 14.8794 -1.31214 25.7547 14.8794 -1.31214
250 1 27.6224 15.7361 0.311465 27.6224 15.7361 0.311465
251 2 30.0026 15.1821 0.958118 30.0026 15.1821 0.958118
252 2 28.8797 16.5676 -1.74549 28.8797 16.5676 -1.74549
253 1 29.934 14.3191 -1.42082 29.934 14.3191 -1.42082
254 2 32.2563 13.8985 -0.493989 32.2563 13.8985 -0.493989
255 2 31.3761 14.8833 -3.44637 31.3761 14.8833 -3.44637
256 1 33.0931 16.0006 -1.80392 33.0931 16.0006 -1.80392
257 2 35.3856 15.6241 -0.778483 35.3856 15.6241 -0.778483
258 2 34.6107 16.4706 -3.80066 34.6107 16.4706 -3.80066
259 1 35.6445 14.3399 -2.95174 35.6445 14.3399 -2.95174
260 2 37.7505 14.2193 -1.51035 37.7505 14.2193 -1.51035
261 2 37.487 14.3968 -4.72275 37.487 14.3968 -4.72275
262 1 38.866 15.9524 -3.11367 38.866 15.9524 -3.11367
263 2 40.9068 15.9108 -1.57184 40.9068 15.9108 -1.57184
264 2 40.7891 15.9117 -4.79735 40.7891 15.9117 -4.79735
265 1 41.5677 14.1094 -3.21567 41.5677 14.1094 -3.21567
266 2 43.3112 14.4343 -1.35714 43.3112 14.4343 -1.35714
267 2 43.7541 13.7366 -4.4793 43.7541 13.7366 -4.4793
268 1 44.7928 15.7118 -3.08745 44.7928 15.7118 -3.08745
269 2 46.4562 16.1309 -1.17347 46.4562 16.1309 -1.17347
270 2 47.028 15.2776 -4.23684 47.028 15.2776 -4.23684
271 1 48.0091 17.3213 -2.90387 -3.2825 17.3213 -2.90387
272 2 49.5927 17.831 -0.943513 -1.69894 17.831 -0.943513
273 2 50.2864 16.8362 -3.93986 -1.00528 16.8362 -3.93986
274 1 51.2137 18.941 -2.66572 -0.0779186 18.941 -2.66572
275 2 52.7222 19.5379 -0.670577 1.43057 19.5379 -0.670577
276 2 53.5242 18.4131 -3.59504 2.23255 18.4131 -3.59504
277 1 53.68 17.3201 -1.33241 2.38834 17.3201 -1.33241
278 2 54.9584 18.1509 0.722893 3.6668 18.1509 0.722893
279 2 4.76811 16.736 -1.97459 4.76811 16.736 -1.97459
280 1 5.52475 19.0079 -0.909091 5.52475 19.0079 -0.909091
281 2 6.78236 19.8412 1.15035 6.78236 19.8412 1.15035
282 2 7.90641 18.4431 -1.54667 7.90641 18.4431 -1.54667
283 1 7.82696 17.5903 0.832089 7.82696 17.5903 0.832089
284 2 9.23206 18.1943 2.87041 9.23206 18.1943 2.87041
285 2 10.1613 17.1518 -0.0481233 10.1613 17.1518 -0.0481233
286 1 10.9777 19.2748 1.23774 10.9777 19.2748 1.23774
287 2 12.4551 19.7846 3.25315 12.4551 19.7846 3.25315
288 2 13.286 18.8797 0.26177 13.286 18.8797 0.26177
289 1 13.5032 17.6396 2.465 13.5032 17.6396 2.465
290 2 15.3059 17.739 4.274 15.3059 17.739 4.274
291 2 15.637 17.4852 1.07238 15.637 17.4852 1.07238
292 1 16.7198 19.2517 2.65862 16.7198 19.2517 2.65862
293 2 18.6042 19.2469 4.38534 18.6042 19.2469 4.38534
294 2 18.7919 19.1788 1.16342 18.7919 19.1788 1.16342
295 1 19.4184 17.4136 2.86018 19.4184 17.4136 2.86018
296 2 21.5785 17.0642 4.17495 21.5785 17.0642 4.17495
297 2 21.1984 17.7015 1.0319 21.1984 17.7015 1.0319
298 1 22.6453 19.0097 2.76579 22.6453 19.0097 2.76579
299 2 24.8579 18.5932 3.96499 24.8579 18.5932 3.96499
300 2 24.3451 19.3955 0.877807 24.3451 19.3955 0.877807
301 1 25.2407 17.2628 1.85912 25.2407 17.2628 1.85912
302 2 27.5892 16.6869 2.64131 27.5892 16.6869 2.64131
303 2 26.644 17.9858 -0.168663 26.644 17.9858 -0.168663
304 1 28.4107 18.9166 1.5201 28.4107 18.9166 1.5201
305 2 30.7759 18.3257 2.22759 30.7759 18.3257 2.22759
306 2 29.7555 19.7024 -0.519778 29.7555 19.7024 -0.519778
307 1 30.7479 17.4434 -0.130343 30.7479 17.4434 -0.130343
308 2 33.1212 16.919 0.55994 33.1212 16.919 0.55994
309 2 32.0235 18.2364 -2.18699 32.0235 18.2364 -2.18699
310 1 33.8738 19.1545 -0.572198 33.8738 19.1545 -0.572198
311 2 36.2348 18.6616 0.185497 36.2348 18.6616 0.185497
312 2 35.1919 19.886 -2.624 35.1919 19.886 -2.624
313 1 36.2664 17.6672 -2.15004 36.2664 17.6672 -2.15004
314 2 38.5217 17.3427 -1.02053 38.5217 17.3427 -1.02053
315 2 37.8641 18.0372 -4.10698 37.8641 18.0372 -4.10698
316 1 39.4536 19.3186 -2.45392 39.4536 19.3186 -2.45392
317 2 41.6635 19.0527 -1.21588 41.6635 19.0527 -1.21588
318 2 41.136 19.5853 -4.35776 41.136 19.5853 -4.35776
319 1 42.0942 17.556 -3.215 42.0942 17.556 -3.215
320 2 44.0653 17.6011 -1.58048 44.0653 17.6011 -1.58048
321 2 44.0922 17.4213 -4.80308 44.0922 17.4213 -4.80308
322 1 45.3257 19.1542 -3.258 45.3257 19.1542 -3.258
323 2 47.2228 19.2891 -1.53864 47.2228 19.2891 -1.53864
324 2 47.3933 18.9329 -4.74248 47.3933 18.9329 -4.74248
325 1 48.5572 20.7501 -3.24088 -2.73439 20.7501 -3.24088
326 2 50.3778 20.9791 -1.44675 -0.913787 20.9791 -1.44675
327 2 50.6872 20.4483 -4.61664 -0.60445 20.4483 -4.61664
328 1 51.7858 22.3468 -3.16721 0.494137 22.3468 -3.16721
329 2 53.5281 22.6697 -1.30796 2.23649 22.6697 -1.30796
330 2 53.9711 21.9738 -4.43083 2.67942 21.9738 -4.43083
331 1 54.4053 20.5722 -2.38141 3.11362 20.5722 -2.38141
332 2 4.55172 21.2456 -0.359926 4.55172 21.2456 -0.359926
333 2 5.45069 20.0145 -3.21446 5.45069 20.0145 -3.21446
334 1 6.29044 22.2169 -2.05314 6.29044 22.2169 -2.05314
335 2 7.66439 22.9573 -0.0132729 7.66439 22.9573 -0.0132729
336 2 8.64803 21.6401 -2.80243 8.64803 21.6401 -2.80243
337 1 8.65167 20.7077 -0.465039 8.65167 20.7077 -0.465039
338 2 9.91128 21.513 1.59836 9.91128 21.513 1.59836
339 2 11.0303 20.1741 -1.13028 11.0303 20.1741 -1.13028
340 1 11.7738 22.416 -0.00713349 11.7738 22.416 -0.00713349
341 2 13.0673 23.1679 2.05294 13.0673 23.1679 2.05294
342 2 14.1414 21.9132 -0.732345 14.1414 21.9132 -0.732345
343 1 14.1424 20.9449 1.61258 14.1424 20.9449 1.61258
344 2 15.6995 21.3524 3.5934 15.6995 21.3524 3.5934
345 2 16.4167 20.6011 0.532556 16.4167 20.6011 0.532556
346 1 17.3216 22.5994 1.94939 17.3216 22.5994 1.94939
347 2 18.9618 22.9022 3.88331 18.9618 22.9022 3.88331
348 2 19.5545 22.3137 0.762317 19.5545 22.3137 0.762317
349 1 19.9441 20.8547 2.79789 19.9441 20.8547 2.79789
350 2 21.9065 20.751 4.43182 21.9065 20.751 4.43182
351 2 21.9487 20.869 1.20643 21.9487 20.869 1.20643
352 1 23.1735 22.4519 2.88059 23.1735 22.4519 2.88059
353 2 25.2083 22.2563 4.41315 25.2083 22.2563 4.41315
354 2 25.106 22.5571 1.20086 25.106 22.5571 1.20086
355 1 25.8645 20.6132 2.61706 25.8645 20.6132 2.61706
356 2 28.1212 20.1405 3.70333 28.1212 20.1405 3.70333
357 2 27.4858 21.0938 0.681148 27.4858 21.0938 0.681148
358 1 29.0739 22.227 2.41805 29.0739 22.227 2.41805
359 2 31.3681 21.71 3.3948 31.3681 21.71 3.3948
360 2 30.6179 22.7962 0.443076 30.6179 22.7962 0.443076
361 1 31.5662 20.5857 1.14963 31.5662 20.5857 1.14963
362 2 33.9425 19.9935 1.80426 33.9425 19.9935 1.80426
363 2 32.8627 21.4158 -0.897654 32.8627 21.4158 -0.897654
364 1 34.7078 22.2707 0.750673 34.7078 22.2707 0.750673
365 2 37.0883 21.6905 1.38501 37.0883 21.6905 1.38501
366 2 35.9747 23.1196 -1.29985 35.9747 23.1196 -1.29985
367 1 37.007 20.8613 -1.0001 37.007 20.8613 -1.0001
368 2 39.3487 20.3979 -0.158078 39.3487 20.3979 -0.158078
369 2 38.3875 21.5174 -3.03809 38.3875 21.5174 -3.03809
370 1 40.1537 22.555 -1.39762 40.1537 22.555 -1.39762
371 2 42.4723 22.1298 -0.464798 42.4723 22.1298 -0.464798
372 2 41.6016 23.1245 -3.41689 41.6016 23.1245 -3.41689
373 1 42.6542 20.9544 -2.70754 42.6542 20.9544 -2.70754
374 2 44.8131 20.7547 -1.3643 44.8131 20.7547 -1.3643
375 2 44.4187 21.1187 -4.54851 44.4187 21.1187 -4.54851
376 1 45.8654 22.5769 -2.91036 45.8654 22.5769 -2.91036
377 2 47.9673 22.4522 -1.46526 47.9673 22.4522 -1.46526
378 2 47.7101 22.6389 -4.67797 47.7101 22.6389 -4.67797
379 1 49.085 24.1887 -3.06186 -2.20666 24.1887 -3.06186
380 2 51.1252 24.1456 -1.52059 -0.16644 24.1456 -1.52059
381 2 51.0063 24.1502 -4.74637 -0.285385 24.1502 -4.74637
382 1 52.3102 25.7919 -3.1622 1.0186 25.7919 -3.1622
383 2 54.2808 25.8339 -1.5278 2.98915 25.8339 -1.5278
384 2 54.3068 25.6585 -4.75088 3.01518 25.6585 -4.75088
385 1 55.008 23.9472 -3.03751 3.71638 23.9472 -3.03751
386 2 5.37835 24.3631 -1.12207 5.37835 24.3631 -1.12207
387 2 5.95081 23.5136 -4.18679 5.95081 23.5136 -4.18679
388 1 6.92937 25.5548 -2.85121 6.92937 25.5548 -2.85121
389 2 8.51403 26.0627 -0.892179 8.51403 26.0627 -0.892179
390 2 9.20404 25.0688 -3.89023 9.20404 25.0688 -3.89023
391 1 9.4519 23.8763 -1.68576 9.4519 23.8763 -1.68576
392 2 10.7722 24.6728 0.363621 10.7722 24.6728 0.363621
393 2 11.8229 23.2881 -2.36914 11.8229 23.2881 -2.36914
394 1 12.5997 25.549 -1.28945 12.5997 25.549 -1.28945
395 2 13.8798 26.3785 0.765098 13.8798 26.3785 0.765098
396 2 14.9782 24.965 -1.93458 14.9782 24.965 -1.93458
397 1 14.9013 24.1217 0.441854 14.9013 24.1217 0.441854
398 2 16.2483 24.8028 2.49285 16.2483 24.8028 2.49285
399 2 17.2532 23.6503 -0.36018 17.2532 23.6503 -0.36018
400 1 18.0397 25.8182 0.869322 18.0397 25.8182 0.869322
401 2 19.4509 26.4162 2.9051 19.4509 26.4162 2.9051
402 2 20.3715 25.3832 -0.0195136 20.3715 25.3832 -0.0195136
403 1 20.5148 24.2389 2.24175 20.5148 24.2389 2.24175
404 2 22.2383 24.4365 4.11726 22.2383 24.4365 4.11726
405 2 22.7 24.0189 0.948289 22.7 24.0189 0.948289
406 1 23.7199 25.8655 2.48599 23.7199 25.8655 2.48599
407 2 25.5275 25.9603 4.29001 25.5275 25.9603 4.29001
408 2 25.8497 25.7158 1.08696 25.8497 25.7158 1.08696
409 1 26.4044 24.0464 2.90551 26.4044 24.0464 2.90551
410 2 28.5056 23.7689 4.33039 28.5056 23.7689 4.33039
411 2 28.261 24.2439 1.14647 28.261 24.2439 1.14647
412 1 29.6338 25.6417 2.87083 29.6338 25.6417 2.87083
413 2 31.7938 25.2909 4.18456 31.7938 25.2909 4.18456
414 2 31.4127 25.9333 1.04275 31.4127 25.9333 1.04275
415 1 32.271 23.8536 2.16898 32.271 23.8536 2.16898
416 2 34.595 23.3019 3.04459 34.595 23.3019 3.04459
417 2 33.7432 24.5054 0.165021 33.7432 24.5054 0.165021
418 1 35.4547 25.4944 1.87617 35.4547 25.4944 1.87617
419 2 37.8012 24.9175 2.66285 37.8012 24.9175 2.66285
420 2 36.8622 26.2202 -0.147381 36.8622 26.2202 -0.147381
421 1 37.839 23.9693 0.3316 37.839 23.9693 0.3316
422 2 40.217 23.4135 0.983483 40.217 23.4135 0.983483
423 2 39.1011 24.8046 -1.72028 39.1011 24.8046 -1.72028
424 1 40.9648 25.6772 -0.0977686 40.9648 25.6772 -0.0977686
425 2 43.3335 25.147 0.601288 43.3335 25.147 0.601288
426 2 42.2496 26.4747 -2.1465 42.2496 26.4747 -2.1465
427 1 43.3132 24.2357 -1.7653 43.3132 24.2357 -1.7653
428 2 45.6009 23.8536 -0.733431 45.6009 23.8536 -0.733431
429 2 44.8365 24.711 -3.75561 44.8365 24.711 -3.75561
430 1 46.4866 25.9001 -2.09557 46.4866 25.9001 -2.09557
431 2 48.7403 25.5738 -0.965405 48.7403 25.5738 -0.965405
432 2 48.0835 26.2749 -4.05106 48.0835 26.2749 -4.05106
433 1 49.6713 27.5519 -2.39463 -1.62033 27.5519 -2.39463
434 2 51.8822 27.2856 -1.16024 0.590565 27.2856 -1.16024
435 2 51.3492 27.8218 -4.30082 0.0575698 27.8218 -4.30082
436 1 52.8685 29.1884 -2.65117 1.57684 29.1884 -2.65117
437 2 55.0273 28.9877 -1.30902 3.73561 28.9877 -1.30902
438 2 54.6311 29.3528 -4.49307 3.33951 29.3528 -4.49307
439 1 55.5388 27.3884 -3.2036 4.24716 27.3884 -3.2036
440 2 6.14376 27.5213 -1.48449 6.14376 27.5213 -1.48449
441 2 6.31298 27.1665 -4.68894 6.31298 27.1665 -4.68894
442 1 7.476 28.9818 -3.18692 7.476 28.9818 -3.18692
443 2 9.29711 29.2078 -1.39401 9.29711 29.2078 -1.39401
444 2 9.60344 28.6803 -4.56517 9.60344 28.6803 -4.56517
445 1 10.1318 27.1717 -2.61619 10.1318 27.1717 -2.61619
446 2 11.6424 27.7654 -0.622762 11.6424 27.7654 -0.622762
447 2 12.44 26.6446 -3.55032 12.44 26.6446 -3.55032
448 1 13.3219 28.8007 -2.33491 13.3219 28.8007 -2.33491
449 2 14.7639 29.4732 -0.316454 14.7639 29.4732 -0.316454
450 2 15.6562 28.2423 -3.17346 15.6562 28.2423 -3.17346
451 1 15.7351 27.2357 -0.868456 15.7351 27.2357 -0.868456
452 2 16.9945 28.0683 1.18998 16.9945 28.0683 1.18998
453 2 18.1156 26.6723 -1.50956 18.1156 26.6723 -1.50956
454 1 18.861 28.9361 -0.427877 18.861 28.9361 -0.427877
455 2 20.1301 29.7451 1.62813 20.1301 29.7451 1.62813
456 2 21.2351 28.3964 -1.10147 21.2351 28.3964 -1.10147
457 1 21.1907 27.5034 1.26952 21.1907 27.5034 1.26952
458 2 22.6766 28.0115 3.27918 22.6766 28.0115 3.27918
459 2 23.4947 27.1073 0.284244 23.4947 27.1073 0.284244
460 1 24.3566 29.1733 1.63108 24.3566 29.1733 1.63108
461 2 25.9191 29.5852 3.60636 25.9191 29.5852 3.60636
462 2 26.6272 28.8253 0.545729 26.6272 28.8253 0.545729
463 1 26.9353 27.4803 2.67451 26.9353 27.4803 2.67451
464 2 28.8229 27.4763 4.3974 28.8229 27.4763 4.3974
465 2 29.0041 27.4074 1.17532 29.0041 27.4074 1.17532
466 1 30.1577 29.0863 2.80667 30.1577 29.0863 2.80667
467 2 32.12 28.988 4.44024 32.12 28.988 4.44024
468 2 32.1609 29.0964 1.21455 32.1609 29.0964 1.21455
469 1 32.8584 27.2411 2.77891 32.8584 27.2411 2.77891
470 2 35.0694 26.8265 3.98104 35.0694 26.8265 3.98104
471 2 34.5597 27.6266 0.892874 34.5597 27.6266 0.892874
472 1 36.0756 28.8477 2.63355 36.0756 28.8477 2.63355
473 2 38.329 28.378 3.72732 38.329 28.378 3.72732
474 2 37.7016 29.3255 0.701646 37.7016 29.3255 0.701646
475 1 38.6245 27.1498 1.54712 38.6245 27.1498 1.54712
476 2 40.987 26.5572 2.26115 40.987 26.5572 2.26115
477 2 39.9757 27.9375 -0.487832 39.9757 27.9375 -0.487832
478 1 41.781 28.819 1.18881 41.781 28.819 1.18881
479 2 44.1533 28.2255 1.85527 44.1533 28.2255 1.85527
480 2 43.0875 29.6473 -0.852622 43.0875 29.6473 -0.852622
481 1 44.0936 27.3851 -0.520724 44.0936 27.3851 -0.520724
482 2 46.4511 26.888 0.242413 46.4511 26.888 0.242413
483 2 45.4166 28.1209 -2.56706 45.4166 28.1209 -2.56706
484 1 47.2275 29.0897 -0.936157 47.2275 29.0897 -0.936157
485 2 49.5697 28.6287 -0.0972992 49.5697 28.6287 -0.0972992
486 2 48.6026 29.7496 -2.97534 48.6026 29.7496 -2.97534
487 1 50.3701 30.7864 -1.33703 -0.921489 30.7864 -1.33703
488 2 52.6889 30.362 -0.407103 1.39727 30.362 -0.407103
489 2 51.8142 31.3583 -3.35771 0.522602 31.3583 -3.35771
490 1 53.5269 32.4677 -1.70767 2.23528 32.4677 -1.70767
491 2 55.8158 32.0874 -0.678714 4.52419 32.0874 -0.678714
492 2 55.0462 32.942 -3.70054 3.75457 32.942 -3.70054
493 1 56.0773 30.8094 -2.85503 4.78569 30.8094 -2.85503
494 2 6.88735 30.6827 -1.41053 6.88735 30.6827 -1.41053
495 2 6.62859 30.8705 -4.62341 6.62859 30.8705 -4.62341
496 1 8.00306 32.4181 -3.00749 8.00306 32.4181 -3.00749
497 2 10.0433 32.3738 -1.46752 10.0433 32.3738 -1.46752
498 2 9.92165 32.378 -4.69375 9.92165 32.378 -4.69375
499 1 10.7021 30.5756 -3.1148 10.7021 30.5756 -3.1148
500 2 12.4472 30.8977 -1.25908 12.4472 30.8977 -1.25908
501 2 12.8835 30.2016 -4.38332 12.8835 30.2016 -4.38332
502 1 13.9229 32.1732 -2.99207 13.9229 32.1732 -2.99207
503 2 15.5911 32.5921 -1.08359 15.5911 32.5921 -1.08359
504 2 16.1519 31.7349 -4.14871 16.1519 31.7349 -4.14871
505 1 16.4982 30.4434 -2.01356 16.4982 30.4434 -2.01356
506 2 17.8792 31.1889 0.0196776 17.8792 31.1889 0.0196776
507 2 18.8518 29.8604 -2.76825 18.8518 29.8604 -2.76825
508 1 19.6611 32.0998 -1.66253 19.6611 32.0998 -1.66253
509 2 20.9897 32.9008 0.379236 20.9897 32.9008 0.379236
510 2 22.0283 31.5066 -2.35342 22.0283 31.5066 -2.35342
511 1 21.9864 30.6412 0.0114925 21.9864 30.6412 0.0114925
512 2 23.286 31.4003 2.06457 23.286 31.4003 2.06457
513 2 24.3506 30.1324 -0.718352 24.3506 30.1324 -0.718352
514 1 25.1154 32.3467 0.442924 25.1154 32.3467 0.442924
515 2 26.4669 33.0377 2.4869 26.4669 33.0377 2.4869
516 2 27.464 31.8683 -0.362025 27.464 31.8683 -0.362025
517 1 27.5358 30.829 1.9535 27.5358 30.829 1.9535
518 2 29.1779 31.1402 3.88376 29.1779 31.1402 3.88376
519 2 29.7662 30.5371 0.764785 29.7662 30.5371 0.764785
520 1 30.7275 32.4708 2.23314 30.7275 32.4708 2.23314
521 2 32.4501 32.6798 4.10754 32.4501 32.6798 4.10754
522 2 32.9116 32.2421 0.94115 32.9116 32.2421 0.94115
523 1 33.3842 30.6865 2.88356 33.3842 30.6865 2.88356
524 2 35.4154 30.4987 4.42113 35.4154 30.4987 4.42113
525 2 35.3189 30.7855 1.20731 35.3189 30.7855 1.20731
526 1 36.6124 32.284 2.90799 36.6124 32.284 2.90799
527 2 38.7077 32.0159 4.34267 38.7077 32.0159 4.34267
528 2 38.4749 32.473 1.15514 38.4749 32.473 1.15514
529 1 39.2838 30.4635 2.44119 39.2838 30.4635 2.44119
530 2 41.5735 29.95 3.42971 41.5735 29.95 3.42971
531 2 40.8362 31.0275 0.471521 40.8362 31.0275 0.471521
532 1 42.4809 32.0911 2.20179 42.4809 32.0911 2.20179
533 2 44.8004 31.5452 3.09236 44.8004 31.5452 3.09236
534 2 43.9628 32.7335 0.202345 43.9628 32.7335 0.202345
535 1 44.9248 30.5021 0.804304 44.9248 30.5021 0.804304
536 2 47.3035 29.9238 1.44684 47.3035 29.9238 1.44684
537 2 46.1972 31.3468 -1.2446 46.1972 31.3468 -1.2446
538 1 48.0559 32.2005 0.390463 48.0559 32.2005 0.390463
539 2 50.4331 31.6447 1.04362 50.4331 31.6447 1.04362
540 2 49.3191 33.0358 -1.66119 49.3191 33.0358 -1.66119