ITEM: TIMESTEP
2616000
ITEM: NUMBER OF ATOMS
810
ITEM: BOX BOUNDS xy xz yz pp pp pp
8.6298438867990135e-01 6.5074605791225508e+01 1.2919985179906334e+01
8.1394622342039402e-01 5.0202268776579182e+01 0.0000000000000000e+00
-1.0000000000000000e+01 1.0000000000000000e+01 0.0000000000000000e+00
ITEM: ATOMS id type x y z xu yu zu
1 1 41.5465 1.2357 2.97992 -9.74518 1.2357 2.97992
2 2 43.3923 1.29116 4.77102 -7.89934 1.29116 4.77102
3 2 43.6916 1.07378 1.57672 -7.60006 1.07378 1.57672
4 1 44.879 2.83327 3.16464 -6.41268 2.83327 3.16464
5 2 46.8158 2.76945 4.85635 -4.47584 2.76945 4.85635
6 2 46.954 2.76463 1.64424 -4.33766 2.76463 1.64424
7 1 47.5416 0.922806 3.28562 -3.75003 0.922806 3.28562
8 2 62.6873 49.8616 4.48182 -1.52437 0.473299 4.48182
9 2 49.2837 1.28076 1.40393 -2.0079 1.28076 1.40393
10 1 50.8775 2.50531 3.13235 -0.414132 2.50531 3.13235
11 2 1.86124 1.98572 4.19211 1.86124 1.98572 4.19211
12 2 1.2373 2.97697 1.19166 1.2373 2.97697 1.19166
13 1 14.9979 50.1336 1.99731 2.07795 0.745296 1.99731
14 2 17.39 49.4701 2.58005 4.46997 0.0817787 2.58005
15 2 3.39592 1.59979 -0.0624537 3.39592 1.59979 -0.0624537
16 1 5.33201 2.4073 1.57249 5.33201 2.4073 1.57249
17 2 7.73484 1.73622 2.07504 7.73484 1.73622 2.07504
18 2 6.5843 3.3299 -0.491901 6.5843 3.3299 -0.491901
19 1 7.49062 1.00571 -0.333718 7.49062 1.00571 -0.333718
20 2 22.8123 49.8237 0.223181 9.89227 0.435411 0.223181
21 2 8.70157 1.88846 -2.40709 8.70157 1.88846 -2.40709
22 1 10.6991 2.73165 -0.850391 10.6991 2.73165 -0.850391
23 2 13.0903 2.19576 -0.205338 13.0903 2.19576 -0.205338
24 2 11.9677 3.5321 -2.92351 11.9677 3.5321 -2.92351
25 1 12.9889 1.25702 -2.57926 12.9889 1.25702 -2.57926
26 2 15.2727 0.913957 -1.48618 15.2727 0.913957 -1.48618
27 2 14.5934 1.61071 -4.55544 14.5934 1.61071 -4.55544
28 1 16.2831 2.89886 -2.92918 16.2831 2.89886 -2.92918
29 2 18.5179 2.62909 -1.70811 18.5179 2.62909 -1.70811
30 2 17.9866 3.12471 -4.84254 17.9866 3.12471 -4.84254
31 1 18.8902 1.06791 -3.68358 18.8902 1.06791 -3.68358
32 2 20.8515 1.16894 -2.00891 20.8515 1.16894 -2.00891
33 2 20.9502 0.826296 -5.20387 20.9502 0.826296 -5.20387
34 1 22.2376 2.64711 -3.71685 22.2376 2.64711 -3.71685
35 2 24.1112 2.85827 -1.94813 24.1112 2.85827 -1.94813
36 2 24.3733 2.30785 -5.10557 24.3733 2.30785 -5.10557
37 1 37.7793 50.1563 -3.15484 24.8594 0.767963 -3.15484
38 2 26.3735 1.41683 -1.15174 26.3735 1.41683 -1.15174
39 2 40.1155 49.5534 -4.00722 27.1955 0.165085 -4.00722
40 1 28.1606 2.38956 -2.85967 28.1606 2.38956 -2.85967
41 2 29.5877 3.13677 -0.827039 29.5877 3.13677 -0.827039
42 2 30.526 1.75179 -3.5868 30.526 1.75179 -3.5868
43 1 30.4693 0.824662 -1.2358 30.4693 0.824662 -1.2358
44 2 31.6549 1.80598 0.824395 31.6549 1.80598 0.824395
45 2 45.8002 49.5636 -1.68477 32.8802 0.175281 -1.68477
46 1 33.6805 2.54116 -0.745163 33.6805 2.54116 -0.745163
47 2 34.8533 3.51068 1.31805 34.8533 3.51068 1.31805
48 2 36.0909 1.92212 -1.21185 36.0909 1.92212 -1.21185
49 1 35.8317 1.20252 1.21686 35.8317 1.20252 1.21686
50 2 37.2134 1.8661 3.27113 37.2134 1.8661 3.27113
51 2 51.1165 50.105 0.421627 38.1965 0.716664 0.421627
52 1 39.0802 2.8976 1.65777 39.0802 2.8976 1.65777
53 2 40.5534 3.44547 3.68633 40.5534 3.44547 3.68633
54 2 41.4159 2.45576 0.74226 41.4159 2.45576 0.74226
55 1 42.3497 4.56901 2.05353 -8.94196 4.56901 2.05353
56 2 43.9156 4.99539 4.04428 -7.37602 4.99539 4.04428
57 2 44.6489 4.18379 1.0145 -6.64277 4.18379 1.0145
58 1 45.6373 6.21909 2.40282 -5.65439 6.21909 2.40282
59 2 47.2974 6.51822 4.34185 -3.99419 6.51822 4.34185
60 2 47.8925 5.90201 1.23884 -3.39911 5.90201 1.23884
61 1 48.2201 4.41832 3.28216 -3.07158 4.41832 3.28216
62 2 50.2407 4.23949 4.86232 -1.05094 4.23949 4.86232
63 2 50.2189 4.45271 1.65424 -1.07275 4.45271 1.65424
64 1 51.5652 5.99486 3.33477 0.273611 5.99486 3.33477
65 2 2.37069 5.70983 4.79271 2.37069 5.70983 4.79271
66 2 2.19051 6.13841 1.61065 2.19051 6.13841 1.61065
67 1 2.9099 4.09719 2.91768 2.9099 4.09719 2.91768
68 2 5.22609 3.51874 3.84199 5.22609 3.51874 3.84199
69 2 4.47105 4.68031 0.931485 4.47105 4.68031 0.931485
70 1 6.21928 5.70174 2.64572 6.21928 5.70174 2.64572
71 2 8.56977 5.08182 3.43832 8.56977 5.08182 3.43832
72 2 7.68963 6.38747 0.622692 7.68963 6.38747 0.622692
73 1 8.5662 4.0879 1.11371 8.5662 4.0879 1.11371
74 2 10.9759 3.43005 1.57063 10.9759 3.43005 1.57063
75 2 9.76572 5.05015 -0.952975 9.76572 5.05015 -0.952975
76 1 11.7813 5.7908 0.622257 11.7813 5.7908 0.622257
77 2 14.1918 5.15826 1.07845 14.1918 5.15826 1.07845
78 2 12.9558 6.76002 -1.4445 12.9558 6.76002 -1.4445
79 1 13.9202 4.44897 -1.34797 13.9202 4.44897 -1.34797
80 2 16.2954 3.95084 -0.601379 16.2954 3.95084 -0.601379
81 2 15.2626 5.15148 -3.41362 15.2626 5.15148 -3.41362
82 1 17.1582 6.15203 -1.81642 17.1582 6.15203 -1.81642
83 2 19.5096 5.69692 -0.95648 19.5096 5.69692 -0.95648
84 2 18.5866 6.7445 -3.86306 18.5866 6.7445 -3.86306
85 1 19.5945 4.52272 -3.22199 19.5945 4.52272 -3.22199
86 2 21.7704 4.33389 -1.87385 21.7704 4.33389 -1.87385
87 2 21.3974 4.62254 -5.05486 21.3974 4.62254 -5.05486
88 1 22.921 6.12976 -3.44915 22.921 6.12976 -3.44915
89 2 25.0283 6.02909 -1.97822 25.0283 6.02909 -1.97822
90 2 24.8202 6.10909 -5.1853 24.8202 6.10909 -5.1853
91 1 25.5836 4.22631 -3.6761 25.5836 4.22631 -3.6761
92 2 27.3649 4.54901 -1.82581 27.3649 4.54901 -1.82581
93 2 27.7859 3.80288 -4.92699 27.7859 3.80288 -4.92699
94 1 28.9233 5.81044 -3.56083 28.9233 5.81044 -3.56083
95 2 30.6134 6.24651 -1.64579 30.6134 6.24651 -1.64579
96 2 31.1796 5.31324 -4.6747 31.1796 5.31324 -4.6747
97 1 31.443 4.02986 -2.50873 31.443 4.02986 -2.50873
98 2 32.7923 4.86431 -0.459262 32.7923 4.86431 -0.459262
99 2 33.8282 3.36881 -3.12818 33.8282 3.36881 -3.12818
100 1 34.7056 5.68896 -2.11359 34.7056 5.68896 -2.11359
101 2 35.9854 6.59881 -0.0570679 35.9854 6.59881 -0.0570679
102 2 37.1041 5.01549 -2.64321 37.1041 5.01549 -2.64321
103 1 36.8831 4.27193 -0.237221 36.8831 4.27193 -0.237221
104 2 38.0807 5.19796 1.82574 38.0807 5.19796 1.82574
105 2 39.2864 3.68133 -0.762101 39.2864 3.68133 -0.762101
106 1 40.0904 6.00278 0.263396 40.0904 6.00278 0.263396
107 2 41.3379 6.85716 2.32637 41.3379 6.85716 2.32637
108 2 42.4835 5.44261 -0.343413 42.4835 5.44261 -0.343413
109 1 43.3086 7.72528 0.746033 -7.98306 7.72528 0.746033
110 2 44.621 8.48807 2.80681 -6.67067 8.48807 2.80681
111 2 45.6883 7.20066 0.0444533 -5.60331 7.20066 0.0444533
112 1 46.5405 9.4345 1.20682 -4.7511 9.4345 1.20682
113 2 47.9322 10.0922 3.25591 -3.35946 10.0922 3.25591
114 2 48.9003 8.94754 0.398938 -2.39131 8.94754 0.398938
115 1 48.941 7.84882 2.70355 -2.35067 7.84882 2.70355
116 2 50.6971 8.01995 4.57411 -0.594502 8.01995 4.57411
117 2 51.1433 7.60759 1.41471 -0.148368 7.60759 1.41471
118 1 52.2593 9.45881 2.94808 0.967689 9.45881 2.94808
119 2 2.81583 9.50487 4.7361 2.81583 9.50487 4.7361
120 2 3.10965 9.30316 1.53996 3.10965 9.30316 1.53996
121 1 3.61911 7.56743 3.3222 3.61911 7.56743 3.3222
122 2 5.78598 7.18927 4.64787 5.78598 7.18927 4.64787
123 2 5.44806 7.82128 1.51182 5.44806 7.82128 1.51182
124 1 6.96043 9.14107 3.23927 6.96043 9.14107 3.23927
125 2 9.18834 8.68131 4.42594 9.18834 8.68131 4.42594
126 2 8.69711 9.50977 1.35461 8.69711 9.50977 1.35461
127 1 9.5097 7.32493 2.31319 9.5097 7.32493 2.31319
128 2 11.8848 6.67491 2.98695 11.8848 6.67491 2.98695
129 2 10.8966 8.10721 0.267002 10.8966 8.10721 0.267002
130 1 12.78 8.96867 1.93185 12.78 8.96867 1.93185
131 2 15.1718 8.30014 2.50513 15.1718 8.30014 2.50513
132 2 14.0929 9.83607 -0.125265 14.0929 9.83607 -0.125265
133 1 14.985 7.51157 0.111917 14.985 7.51157 0.111917
134 2 17.3924 6.91082 0.606406 17.3924 6.91082 0.606406
135 2 16.165 8.45433 -1.95592 16.165 8.45433 -1.95592
136 1 18.1865 9.2426 -0.403508 18.1865 9.2426 -0.403508
137 2 20.5863 8.67358 0.161209 20.5863 8.67358 0.161209
138 2 19.4039 10.1278 -2.47171 19.4039 10.1278 -2.47171
139 1 20.4161 7.83604 -2.2458 20.4161 7.83604 -2.2458
140 2 22.7342 7.43117 -1.26301 22.7342 7.43117 -1.26301
141 2 21.9388 8.31041 -4.25864 21.9388 8.31041 -4.25864
142 1 23.6945 9.49815 -2.62598 23.6945 9.49815 -2.62598
143 2 25.9703 9.15393 -1.51543 25.9703 9.15393 -1.51543
144 2 25.315 9.84916 -4.58989 25.315 9.84916 -4.58989
145 1 26.2587 7.72289 -3.60401 26.2587 7.72289 -3.60401
146 2 28.2913 7.72093 -2.02044 28.2913 7.72093 -2.02044
147 2 28.2459 7.58716 -5.23202 28.2459 7.58716 -5.23202
148 1 29.6022 9.3075 -3.68975 29.6022 9.3075 -3.68975
149 2 31.5536 9.40828 -2.00442 31.5536 9.40828 -2.00442
150 2 31.6697 9.06675 -5.19912 31.6697 9.06675 -5.19912
151 1 32.2522 7.4032 -3.38112 32.2522 7.4032 -3.38112
152 2 33.8501 7.94891 -1.4141 33.8501 7.94891 -1.4141
153 2 34.5537 6.84654 -4.35871 34.5537 6.84654 -4.35871
154 1 35.5661 9.00918 -3.13848 35.5661 9.00918 -3.13848
155 2 37.0772 9.65857 -1.1342 37.0772 9.65857 -1.1342
156 2 37.902 8.40557 -3.98877 37.902 8.40557 -3.98877
157 1 37.9479 7.36706 -1.68291 37.9479 7.36706 -1.68291
158 2 39.1739 8.32687 0.373993 39.1739 8.32687 0.373993
159 2 40.3533 6.69746 -2.15764 40.3533 6.69746 -2.15764
160 1 41.1726 9.06357 -1.22495 41.1726 9.06357 -1.22495
161 2 42.3659 10.0435 0.830565 42.3659 10.0435 0.830565
162 2 43.5794 8.41095 -1.68376 43.5794 8.41095 -1.68376
163 1 44.385 10.7753 -0.747244 -6.90665 10.7753 -0.747244
164 2 45.5666 11.7441 1.31078 -5.72505 11.7441 1.31078
165 2 46.7912 10.1518 -1.22362 -4.50043 10.1518 -1.22362
166 1 47.5902 12.5003 -0.252526 -3.70142 12.5003 -0.252526
167 2 48.7901 13.4221 1.81044 -2.50156 13.4221 1.81044
168 2 49.9921 11.9114 -0.783097 -1.29955 11.9114 -0.783097
169 1 49.7905 11.1235 1.6359 -1.50114 11.1235 1.6359
170 2 51.2657 11.6645 3.66409 -0.025964 11.6645 3.66409
171 2 52.1242 10.6858 0.71487 0.832607 10.6858 0.71487
172 1 53.0573 12.7926 2.0328 1.76562 12.7926 2.0328
173 2 54.6237 13.2097 4.02463 3.33205 13.2097 4.02463
174 2 4.06365 12.4125 0.990554 4.06365 12.4125 0.990554
175 1 4.29727 11.0529 3.13452 4.29727 11.0529 3.13452
176 2 6.23636 10.9776 4.82244 6.23636 10.9776 4.82244
177 2 6.36903 10.992 1.61002 6.36903 10.992 1.61002
178 1 7.6351 12.6349 3.25553 7.6351 12.6349 3.25553
179 2 9.65788 12.4437 4.83075 9.65788 12.4437 4.83075
180 2 9.63042 12.6791 1.62425 9.63042 12.6791 1.62425
181 1 10.2926 10.7218 3.08761 10.2926 10.7218 3.08761
182 2 12.5696 10.1919 4.13699 12.5696 10.1919 4.13699
183 2 11.9385 11.2067 1.14574 11.9385 11.2067 1.14574
184 1 13.6127 12.3137 2.87701 13.6127 12.3137 2.87701
185 2 15.9307 11.7284 3.79086 15.9307 11.7284 3.79086
186 2 15.1681 12.9104 0.890497 15.1681 12.9104 0.890497
187 1 16.0304 10.633 1.5128 16.0304 10.633 1.5128
188 2 18.4333 9.96115 2.00948 18.4333 9.96115 2.00948
189 2 17.2784 11.5672 -0.54769 17.2784 11.5672 -0.54769
190 1 19.2609 12.3191 1.06128 19.2609 12.3191 1.06128
191 2 21.6674 11.6566 1.52039 21.6674 11.6566 1.52039
192 2 20.4649 13.2936 -0.995853 20.4649 13.2936 -0.995853
193 1 21.3958 10.9725 -0.906415 21.3958 10.9725 -0.906415
194 2 23.7826 10.4335 -0.249285 23.7826 10.4335 -0.249285
195 2 22.6767 11.7757 -2.97089 22.6767 11.7757 -2.97089
196 1 24.6203 12.6899 -1.38099 24.6203 12.6899 -1.38099
197 2 26.9901 12.1871 -0.620745 26.9901 12.1871 -0.620745
198 2 25.9764 13.3949 -3.43658 25.9764 13.3949 -3.43658
199 1 26.9913 11.1394 -2.95079 26.9913 11.1394 -2.95079
200 2 29.2175 10.8664 -1.71498 29.2175 10.8664 -1.71498
201 2 28.7073 11.3666 -4.85223 28.7073 11.3666 -4.85223
202 1 30.303 12.7629 -3.21858 30.303 12.7629 -3.21858
203 2 32.4704 12.5688 -1.85912 32.4704 12.5688 -1.85912
204 2 32.1143 12.8674 -5.04162 32.1143 12.8674 -5.04162
205 1 32.9466 10.8878 -3.70487 32.9466 10.8878 -3.70487
206 2 34.8134 11.0969 -1.93035 34.8134 11.0969 -1.93035
207 2 35.0852 10.5516 -5.08821 35.0852 10.5516 -5.08821
208 1 36.288 12.4684 -3.65254 36.288 12.4684 -3.65254
209 2 38.0687 12.788 -1.80297 38.0687 12.788 -1.80297
210 2 38.4875 12.0475 -4.90629 38.4875 12.0475 -4.90629
211 1 38.8635 10.6307 -2.84199 38.8635 10.6307 -2.84199
212 2 40.2943 11.3759 -0.81255 40.2943 11.3759 -0.81255
213 2 41.2251 9.99158 -3.57561 41.2251 9.99158 -3.57561
214 1 42.1438 12.2689 -2.49921 42.1438 12.2689 -2.49921
215 2 43.4984 13.0976 -0.452333 43.4984 13.0976 -0.452333
216 2 44.5258 11.6088 -3.12857 44.5258 11.6088 -3.12857
217 1 45.4052 13.926 -2.11124 -5.88645 13.926 -2.11124
218 2 46.6935 14.8259 -0.0566378 -4.5981 14.8259 -0.0566378
219 2 47.8005 13.2552 -2.65575 -3.49109 13.2552 -2.65575
220 1 48.6485 15.6011 -1.68718 -2.64318 15.6011 -1.68718
221 2 49.8788 16.5516 0.37151 -1.41284 16.5516 0.37151
222 2 51.0528 14.9345 -2.17084 -0.238844 14.9345 -2.17084
223 1 50.7961 14.2292 0.247303 -0.495528 14.2292 0.247303
224 2 52.0416 15.0775 2.31352 0.749995 15.0775 2.31352
225 2 53.1893 13.6741 -0.361515 1.89762 13.6741 -0.361515
226 1 54.0107 15.9516 0.737171 2.71909 15.9516 0.737171
227 2 55.3241 16.7071 2.79979 4.03251 16.7071 2.79979
228 2 5.0977 15.429 0.0322289 5.0977 15.429 0.0322289
229 1 5.04997 14.4402 2.38766 5.04997 14.4402 2.38766
230 2 6.71211 14.729 4.32629 6.71211 14.729 4.32629
231 2 7.30307 14.1278 1.21955 7.30307 14.1278 1.21955
232 1 8.35092 16.0671 2.69189 8.35092 16.0671 2.69189
233 2 10.1084 16.2295 4.56149 10.1084 16.2295 4.56149
234 2 10.5509 15.8308 1.39987 10.5509 15.8308 1.39987
235 1 10.9769 14.2098 3.31272 10.9769 14.2098 3.31272
236 2 13.077 13.9147 4.76366 13.077 13.9147 4.76366
237 2 12.8893 14.3628 1.5849 12.8893 14.3628 1.5849
238 1 14.3191 15.7827 3.30191 14.3191 15.7827 3.30191
239 2 16.4881 15.3969 4.62096 16.4881 15.3969 4.62096
240 2 16.1439 16.0476 1.48948 16.1439 16.0476 1.48948
241 1 16.9181 13.9215 2.60881 16.9181 13.9215 2.60881
242 2 19.2682 13.294 3.39406 19.2682 13.294 3.39406
243 2 18.3866 14.6235 0.589905 18.3866 14.6235 0.589905
244 1 20.2063 15.5483 2.28831 20.2063 15.5483 2.28831
245 2 22.5791 14.8921 2.96125 22.5791 14.8921 2.96125
246 2 21.5964 16.3442 0.249894 21.5964 16.3442 0.249894
247 1 22.477 14.0238 0.589898 22.477 14.0238 0.589898
248 2 24.8847 13.3879 1.05095 24.8847 13.3879 1.05095
249 2 23.6575 15.0029 -1.46776 23.6575 15.0029 -1.46776
250 1 25.6819 15.7468 0.100218 25.6819 15.7468 0.100218
251 2 28.0856 15.1421 0.604029 28.0856 15.1421 0.604029
252 2 26.8714 16.6968 -1.95791 26.8714 16.6968 -1.95791
253 1 27.8613 14.392 -1.82348 27.8613 14.392 -1.82348
254 2 30.206 13.9302 -0.950065 30.206 13.9302 -0.950065
255 2 29.3027 14.9888 -3.85893 29.3027 14.9888 -3.85893
256 1 31.1214 16.0739 -2.22548 31.1214 16.0739 -2.22548
257 2 33.4339 15.6644 -1.23361 33.4339 15.6644 -1.23361
258 2 32.6511 16.5538 -4.2301 32.6511 16.5538 -4.2301
259 1 33.6273 14.3699 -3.42321 33.6273 14.3699 -3.42321
260 2 35.7305 14.2654 -1.94916 35.7305 14.2654 -1.94916
261 2 35.5267 14.3553 -5.15698 35.5267 14.3553 -5.15698
262 1 36.9604 15.9649 -3.56861 36.9604 15.9649 -3.56861
263 2 38.9933 15.9572 -1.98799 38.9933 15.9572 -1.98799
264 2 38.9431 15.8364 -5.20043 38.9431 15.8364 -5.20043
265 1 39.6229 14.0531 -3.5375 39.6229 14.0531 -3.5375
266 2 41.3159 14.4818 -1.62532 41.3159 14.4818 -1.62532
267 2 41.8749 13.5606 -4.65953 41.8749 13.5606 -4.65953
268 1 42.9485 15.6457 -3.36077 42.9485 15.6457 -3.36077
269 2 44.5531 16.1827 -1.39792 44.5531 16.1827 -1.39792
270 2 45.2448 15.0933 -4.35054 45.2448 15.0933 -4.35054
271 1 46.2615 17.25 -3.12483 -5.03015 17.25 -3.12483
272 2 47.78 17.8897 -1.12375 -3.51164 17.8897 -1.12375
273 2 48.5933 16.6506 -3.98773 -2.69836 16.6506 -3.98773
274 1 49.5595 18.869 -2.83343 -1.7321 18.869 -2.83343
275 2 50.9946 19.6052 -0.803588 -0.297043 19.6052 -0.803588
276 2 51.9196 18.2334 -3.5748 0.627999 18.2334 -3.5748
277 1 51.8727 17.2954 -1.2282 0.581051 17.2954 -1.2282
278 2 53.0653 18.2678 0.83141 1.7737 18.2678 0.83141
279 2 54.2799 16.6466 -1.68986 2.98824 16.6466 -1.68986
280 1 55.0827 19.0065 -0.743808 3.79101 19.0065 -0.743808
281 2 56.2667 19.9667 1.31644 4.97502 19.9667 1.31644
282 2 6.19598 18.3845 -1.22625 6.19598 18.3845 -1.22625
283 1 5.94918 17.6579 1.20163 5.94918 17.6579 1.20163
284 2 7.34092 18.308 3.25241 7.34092 18.308 3.25241
285 2 8.30774 17.1739 0.390627 8.30774 17.1739 0.390627
286 1 9.19657 19.3455 1.63439 9.19657 19.3455 1.63439
287 2 10.6749 19.8812 3.66115 10.6749 19.8812 3.66115
288 2 11.5272 18.9075 0.70842 11.5272 18.9075 0.70842
289 1 11.6665 17.676 2.93939 11.6665 17.676 2.93939
290 2 13.518 17.7157 4.72382 13.518 17.7157 4.72382
291 2 13.8047 17.5244 1.52647 13.8047 17.5244 1.52647
292 1 14.9942 19.2701 3.12401 14.9942 19.2701 3.12401
293 2 16.9325 19.1903 4.81168 16.9325 19.1903 4.81168
294 2 17.0651 19.2155 1.59921 17.0651 19.2155 1.59921
295 1 17.6573 17.3591 3.22239 17.6573 17.3591 3.22239
296 2 19.8832 16.8929 4.40875 19.8832 16.8929 4.40875
297 2 19.3954 17.7392 1.34177 19.3954 17.7392 1.34177
298 1 20.9878 18.9432 3.0838 20.9878 18.9432 3.0838
299 2 23.2632 18.4107 4.13491 23.2632 18.4107 4.13491
300 2 22.6366 19.4365 1.14676 22.6366 19.4365 1.14676
301 1 23.4766 17.1949 1.92512 23.4766 17.1949 1.92512
302 2 25.8667 16.5225 2.49858 25.8667 16.5225 2.49858
303 2 24.793 18.0737 -0.124774 24.793 18.0737 -0.124774
304 1 26.7271 18.8629 1.52272 26.7271 18.8629 1.52272
305 2 29.1276 18.1888 2.02497 29.1276 18.1888 2.02497
306 2 27.9815 19.8049 -0.529902 27.9815 19.8049 -0.529902
307 1 28.8862 17.4784 -0.391643 28.8862 17.4784 -0.391643
308 2 31.2808 16.9027 0.185411 31.2808 16.9027 0.185411
309 2 30.1162 18.3692 -2.44906 30.1162 18.3692 -2.44906
310 1 32.0997 19.2056 -0.868226 32.0997 19.2056 -0.868226
311 2 34.4834 18.6632 -0.205617 34.4834 18.6632 -0.205617
312 2 33.385 20.0159 -2.9257 33.385 20.0159 -2.9257
313 1 34.3989 17.736 -2.5857 34.3989 17.736 -2.5857
314 2 36.6723 17.3874 -1.47429 36.6723 17.3874 -1.47429
315 2 36.0186 18.0951 -4.54689 36.0186 18.0951 -4.54689
316 1 37.6926 19.3788 -2.90122 37.6926 19.3788 -2.90122
317 2 39.9189 19.1002 -1.66986 39.9189 19.1002 -1.66986
318 2 39.4037 19.6155 -4.80442 39.4037 19.6155 -4.80442
319 1 40.2995 17.551 -3.65314 40.2995 17.551 -3.65314
320 2 42.2548 17.645 -1.97334 42.2548 17.645 -1.97334
321 2 42.361 17.3166 -5.17005 42.361 17.3166 -5.17005
322 1 43.6412 19.1313 -3.67217 43.6412 19.1313 -3.67217
323 2 45.5143 19.3322 -1.9042 45.5143 19.3322 -1.9042
324 2 45.7733 18.801 -5.06569 45.7733 18.801 -5.06569
325 1 46.9815 20.7105 -3.62615 -4.31013 20.7105 -3.62615
326 2 48.7686 21.0212 -1.7816 -2.52305 21.0212 -1.7816
327 2 49.1762 20.2951 -4.8898 -2.11541 20.2951 -4.8898
328 1 50.3165 22.2929 -3.51553 -0.975095 22.2929 -3.51553
329 2 52.0156 22.7151 -1.60702 0.723954 22.7151 -1.60702
330 2 52.5649 21.8023 -4.64551 1.27329 21.8023 -4.64551
331 1 52.8399 20.5047 -2.48975 1.54831 20.5047 -2.48975
332 2 54.1985 21.3284 -0.442563 2.90682 21.3284 -0.442563
333 2 55.2202 19.844 -3.12354 3.92859 19.844 -3.12354
334 1 56.1013 22.1578 -2.10316 4.8097 22.1578 -2.10316
335 2 57.3924 23.0544 -0.0486058 6.10077 23.0544 -0.0486058
336 2 7.20326 21.4846 -2.65049 7.20326 21.4846 -2.65049
337 1 6.99486 20.7283 -0.247547 6.99486 20.7283 -0.247547
338 2 8.198 21.6445 1.81542 8.198 21.6445 1.81542
339 2 9.3946 20.1385 -0.783375 9.3946 20.1385 -0.783375
340 1 10.2003 22.4537 0.249309 10.2003 22.4537 0.249309
341 2 11.4518 23.2987 2.31275 11.4518 23.2987 2.31275
342 2 12.59 21.8943 -0.366177 12.59 21.8943 -0.366177
343 1 12.4625 21.0119 2.02811 12.4625 21.0119 2.02811
344 2 14.0307 21.4258 4.01855 14.0307 21.4258 4.01855
345 2 14.7582 20.6331 0.982047 14.7582 20.6331 0.982047
346 1 15.7457 22.6592 2.3807 15.7457 22.6592 2.3807
347 2 17.405 22.9483 4.32096 17.405 22.9483 4.32096
348 2 17.9993 22.3489 1.21434 17.9993 22.3489 1.21434
349 1 18.3296 20.8547 3.25015 18.3296 20.8547 3.25015
350 2 20.35 20.6637 4.82803 20.35 20.6637 4.82803
351 2 20.3263 20.9025 1.62195 20.3263 20.9025 1.62195
352 1 21.6696 22.4337 3.31387 21.6696 22.4337 3.31387
353 2 23.7659 22.1413 4.77054 23.7659 22.1413 4.77054
354 2 23.5859 22.5898 1.59155 23.5859 22.5898 1.59155
355 1 24.3072 20.54 2.88512 24.3072 20.54 2.88512
356 2 26.6235 19.9547 3.80294 26.6235 19.9547 3.80294
357 2 25.8666 21.142 0.903416 25.8666 21.142 0.903416
358 1 27.6122 22.1529 2.62812 27.6122 22.1529 2.62812
359 2 29.9589 21.5264 3.42271 29.9589 21.5264 3.42271
360 2 29.0882 22.8573 0.615738 29.0882 22.8573 0.615738
361 1 29.9591 20.5518 1.08938 29.9591 20.5518 1.08938
362 2 32.3637 19.8904 1.55948 32.3637 19.8904 1.55948
363 2 31.1711 21.5271 -0.962 31.1711 21.5271 -0.962
364 1 33.1769 22.2586 0.633186 33.1769 22.2586 0.633186
365 2 35.5807 21.6175 1.10615 35.5807 21.6175 1.10615
366 2 34.3696 23.2398 -1.41614 34.3696 23.2398 -1.41614
367 1 35.3246 20.9238 -1.3272 35.3246 20.9238 -1.3272
368 2 37.6917 20.4154 -0.566067 37.6917 20.4154 -0.566067
369 2 36.6817 21.6379 -3.3776 36.6817 21.6379 -3.3776
370 1 38.5656 22.625 -1.75816 38.5656 22.625 -1.75816
371 2 40.9105 22.1588 -0.891287 40.9105 22.1588 -0.891287
372 2 40.0011 23.2328 -3.79325 40.0011 23.2328 -3.79325
373 1 41.0012 21.0034 -3.16654 41.0012 21.0034 -3.16654
374 2 43.1724 20.8032 -1.81609 43.1724 20.8032 -1.81609
375 2 42.8041 21.1172 -4.99605 42.8041 21.1172 -4.99605
376 1 44.3227 22.6112 -3.3759 44.3227 22.6112 -3.3759
377 2 46.4311 22.4987 -1.91121 46.4311 22.4987 -1.91121
378 2 46.2143 22.6051 -5.11764 46.2143 22.6051 -5.11764
379 1 47.6541 24.2053 -3.52674 -3.63754 24.2053 -3.52674
380 2 49.6925 24.1893 -1.95445 -1.5991 24.1893 -1.95445
381 2 49.6301 24.0838 -5.16716 -1.66156 24.0838 -5.16716
382 1 50.992 25.7891 -3.61702 -0.299614 25.7891 -3.61702
383 2 52.954 25.8757 -1.94555 1.66237 25.8757 -1.94555
384 2 53.0465 25.5593 -5.14387 1.75488 25.5593 -5.14387
385 1 53.6423 23.8819 -3.34367 2.35065 23.8819 -3.34367
386 2 55.2529 24.4137 -1.38401 3.96123 24.4137 -1.38401
387 2 55.9353 23.3285 -4.34022 4.64363 23.3285 -4.34022
388 1 56.9553 25.4816 -3.11369 5.66364 25.4816 -3.11369
389 2 7.18747 26.1176 -1.11527 7.18747 26.1176 -1.11527
390 2 7.99249 24.8791 -3.9818 7.99249 24.8791 -3.9818
391 1 8.05223 23.8287 -1.6819 8.05223 23.8287 -1.6819
392 2 9.28813 24.7782 0.373696 9.28813 24.7782 0.373696
393 2 10.4533 23.1567 -2.17006 10.4533 23.1567 -2.17006
394 1 11.278 25.5174 -1.23192 11.278 25.5174 -1.23192
395 2 12.4738 26.4879 0.826435 12.4738 26.4879 0.826435
396 2 13.6836 24.8661 -1.69684 13.6836 24.8661 -1.69684
397 1 13.4164 24.1709 0.730508 13.4164 24.1709 0.730508
398 2 14.7283 24.926 2.79343 14.7283 24.926 2.79343
399 2 15.7945 23.6489 0.0254353 15.7945 23.6489 0.0254353
400 1 16.6448 25.8781 1.19546 16.6448 25.8781 1.19546
401 2 18.0333 26.5294 3.24781 18.0333 26.5294 3.24781
402 2 19.0044 25.3958 0.387251 19.0044 25.3958 0.387251
403 1 19.0447 24.2889 2.68858 19.0447 24.2889 2.68858
404 2 20.7981 24.4528 4.56147 20.7981 24.4528 4.56147
405 2 21.247 24.0554 1.4005 21.247 24.0554 1.4005
406 1 22.3588 25.9021 2.94268 22.3588 25.9021 2.94268
407 2 24.2044 25.9435 4.73314 24.2044 25.9435 4.73314
408 2 24.5019 25.755 1.53661 24.5019 25.755 1.53661
409 1 25.011 24.0119 3.31252 25.011 24.0119 3.31252
410 2 27.1749 23.6272 4.63969 27.1749 23.6272 4.63969
411 2 26.8427 24.2806 1.50747 26.8427 24.2806 1.50747
412 1 28.3497 25.5929 3.24714 28.3497 25.5929 3.24714
413 2 30.5736 25.1311 4.43984 30.5736 25.1311 4.43984
414 2 30.0924 25.9725 1.37062 30.0924 25.9725 1.37062
415 1 30.9017 23.783 2.32212 30.9017 23.783 2.32212
416 2 33.2722 23.1282 3.00419 33.2722 23.1282 3.00419
417 2 32.2987 24.5795 0.288932 32.2987 24.5795 0.288932
418 1 34.1737 25.4318 1.97083 34.1737 25.4318 1.97083
419 2 36.56 24.7602 2.56075 36.56 24.7602 2.56075
420 2 35.5019 26.3057 -0.0725564 35.5019 26.3057 -0.0725564
421 1 36.3873 23.9778 0.163807 36.3873 23.9778 0.163807
422 2 38.7885 23.3671 0.671225 38.7885 23.3671 0.671225
423 2 37.5826 24.9322 -1.8888 37.5826 24.9322 -1.8888
424 1 39.5945 25.7061 -0.315655 39.5945 25.7061 -0.315655
425 2 41.9899 25.1293 0.254627 41.9899 25.1293 0.254627
426 2 40.8189 26.6039 -2.37288 40.8189 26.6039 -2.37288
427 1 41.8233 24.308 -2.15836 41.8233 24.308 -2.15836
428 2 44.1382 23.8925 -1.17749 44.1382 23.8925 -1.17749
429 2 43.344 24.7997 -4.16614 43.344 24.7997 -4.16614
430 1 45.0981 25.9709 -2.52205 45.0981 25.9709 -2.52205
431 2 47.3747 25.6158 -1.42225 47.3747 25.6158 -1.42225
432 2 46.7083 26.341 -4.4884 46.7083 26.341 -4.4884
433 1 48.3894 27.6136 -2.843 -2.90222 27.6136 -2.843
434 2 50.6203 27.3283 -1.62368 -0.671293 27.3283 -1.62368
435 2 50.0906 27.8591 -4.7535 -1.20102 27.8591 -4.7535
436 1 51.6956 29.237 -3.11678 0.403967 29.237 -3.11678
437 2 53.8729 29.0307 -1.77887 2.58123 29.0307 -1.77887
438 2 53.4881 29.357 -4.95577 2.1965 29.357 -4.95577
439 1 54.3327 27.3663 -3.64445 3.04105 27.3663 -3.64445
440 2 56.2129 27.5604 -1.88403 4.92131 27.5604 -1.88403
441 2 56.4585 27.0379 -5.04798 5.16686 27.0379 -5.04798
442 1 57.6726 28.9415 -3.60793 6.38093 28.9415 -3.60793
443 2 8.17546 29.2462 -1.76989 8.17546 29.2462 -1.76989
444 2 8.57004 28.526 -4.88107 8.57004 28.526 -4.88107
445 1 8.96163 27.0957 -2.82904 8.96163 27.0957 -2.82904
446 2 10.4023 27.8271 -0.801781 10.4023 27.8271 -0.801781
447 2 11.319 26.459 -3.57748 11.319 26.459 -3.57748
448 1 12.2427 28.7279 -2.4918 12.2427 28.7279 -2.4918
449 2 13.6056 29.548 -0.446189 13.6056 29.548 -0.446189
450 2 14.6215 28.0668 -3.1311 14.6215 28.0668 -3.1311
451 1 14.4885 27.226 -0.752148 14.4885 27.226 -0.752148
452 2 15.6708 28.1868 1.30897 15.6708 28.1868 1.30897
453 2 16.8938 26.6041 -1.23251 16.8938 26.6041 -1.23251
454 1 17.6917 28.949 -0.254022 17.6917 28.949 -0.254022
455 2 18.8913 29.8673 1.8105 18.8913 29.8673 1.8105
456 2 20.0929 28.3607 -0.785751 20.0929 28.3607 -0.785751
457 1 19.8909 27.5686 1.63203 19.8909 27.5686 1.63203
458 2 21.3636 28.1062 3.6625 21.3636 28.1062 3.6625
459 2 22.2247 27.1345 0.711657 22.2247 27.1345 0.711657
460 1 23.1556 29.2404 2.03434 23.1556 29.2404 2.03434
461 2 24.7182 29.6582 4.02877 24.7182 29.6582 4.02877
462 2 25.4552 28.8633 0.995379 25.4552 28.8633 0.995379
463 1 25.6856 27.5019 3.13919 25.6856 27.5019 3.13919
464 2 27.6205 27.4268 4.83184 27.6205 27.4268 4.83184
465 2 27.7609 27.4472 1.62002 27.7609 27.4472 1.62002
466 1 29.0223 29.091 3.27134 29.0223 29.091 3.27134
467 2 31.0395 28.9049 4.85441 31.0395 28.9049 4.85441
468 2 31.0237 29.1383 1.64789 31.0237 29.1383 1.64789
469 1 31.6813 27.1814 3.11481 31.6813 27.1814 3.11481
470 2 33.9526 26.6531 4.17657 33.9526 26.6531 4.17657
471 2 33.3374 27.6718 1.18343 33.3374 27.6718 1.18343
472 1 35.0026 28.7803 2.92578 35.0026 28.7803 2.92578
473 2 37.3148 28.201 3.85779 37.3148 28.201 3.85779
474 2 36.5705 29.3744 0.949309 36.5705 29.3744 0.949309
475 1 37.4286 27.0982 1.58338 37.4286 27.0982 1.58338
476 2 39.8274 26.4256 2.09856 39.8274 26.4256 2.09856
477 2 38.6921 28.0326 -0.466991 38.6921 28.0326 -0.466991
478 1 40.6637 28.7857 1.15749 40.6637 28.7857 1.15749
479 2 43.0668 28.1212 1.6328 43.0668 28.1212 1.6328
480 2 41.8821 29.7583 -0.892294 41.8821 29.7583 -0.892294
481 1 42.8058 27.4353 -0.794033 42.8058 27.4353 -0.794033
482 2 45.1898 26.8887 -0.138676 45.1898 26.8887 -0.138676
483 2 44.0861 28.2528 -2.85137 44.0861 28.2528 -2.85137
484 1 46.0295 29.1526 -1.25408 46.0295 29.1526 -1.25408
485 2 48.3984 28.6411 -0.503623 48.3984 28.6411 -0.503623
486 2 47.3777 29.8744 -3.30696 47.3777 29.8744 -3.30696
487 1 49.2678 30.8539 -1.69177 -2.02387 30.8539 -1.69177
488 2 51.6159 30.3851 -0.837269 0.324306 30.3851 -0.837269
489 2 50.6925 31.4676 -3.73203 -0.599155 31.4676 -3.73203
490 1 52.5222 32.5366 -2.10359 1.23057 32.5366 -2.10359
491 2 54.8421 32.12 -1.13624 3.55049 32.12 -1.13624
492 2 54.0308 33.0315 -4.11937 2.73921 33.0315 -4.11937
493 1 55.015 30.8426 -3.33821 3.72339 30.8426 -3.33821
494 2 57.131 30.7258 -1.88565 5.83937 30.7258 -1.88565
495 2 56.8967 30.8392 -5.09063 5.60507 30.8392 -5.09063
496 1 58.3453 32.4339 -3.50417 7.0537 32.4339 -3.50417
497 2 9.09913 32.4143 -1.94112 9.09913 32.4143 -1.94112
498 2 9.02254 32.3125 -5.15358 9.02254 32.3125 -5.15358
499 1 9.71634 30.5196 -3.5073 9.71634 30.5196 -3.5073
500 2 11.4216 30.9373 -1.60341 11.4216 30.9373 -1.60341
501 2 11.961 30.0288 -4.6448 11.961 30.0288 -4.6448
502 1 13.0436 32.1053 -3.34307 13.0436 32.1053 -3.34307
503 2 14.6586 32.6345 -1.38631 14.6586 32.6345 -1.38631
504 2 15.3349 31.5519 -4.34465 15.3349 31.5519 -4.34465
505 1 15.5057 30.3791 -2.10906 15.5057 30.3791 -2.10906
506 2 16.798 31.275 -0.0541859 16.798 31.275 -0.0541859
507 2 17.8998 29.7061 -2.65667 17.8998 29.7061 -2.65667
508 1 18.7498 32.0502 -1.6872 18.7498 32.0502 -1.6872
509 2 19.9838 33.0016 0.369677 19.9838 33.0016 0.369677
510 2 21.1526 31.3794 -2.1718 21.1526 31.3794 -2.1718
511 1 20.8968 30.6774 0.247525 20.8968 30.6774 0.247525
512 2 22.141 31.526 2.31438 22.141 31.526 2.31438
513 2 23.2899 30.1222 -0.360039 23.2899 30.1222 -0.360039
514 1 24.1113 32.4011 0.737907 24.1113 32.4011 0.737907
515 2 25.4229 33.1618 2.80005 25.4229 33.1618 2.80005
516 2 26.4904 31.8763 0.0369343 26.4904 31.8763 0.0369343
517 1 26.4389 30.8927 2.39469 26.4389 30.8927 2.39469
518 2 28.097 31.1873 4.33622 28.097 31.1873 4.33622
519 2 28.6948 30.5807 1.23191 28.6948 30.5807 1.23191
520 1 29.7401 32.5255 2.70271 29.7401 32.5255 2.70271
521 2 31.49 32.6977 4.57878 31.49 32.6977 4.57878
522 2 31.946 32.2891 1.42037 31.946 32.2891 1.42037
523 1 32.3641 30.674 3.3403 32.3641 30.674 3.3403
524 2 34.4566 30.3882 4.80409 34.4566 30.3882 4.80409
525 2 34.286 30.8258 1.623 34.286 30.8258 1.623
526 1 35.7068 32.255 3.34332 35.7068 32.255 3.34332
527 2 37.8665 31.8777 4.68002 37.8665 31.8777 4.68002
528 2 37.5447 32.5166 1.54359 37.5447 32.5166 1.54359
529 1 38.3098 30.394 2.67702 38.3098 30.394 2.67702
530 2 40.6526 29.7712 3.48612 40.6526 29.7712 3.48612
531 2 39.7952 31.0898 0.669376 39.7952 31.0898 0.669376
532 1 41.6022 32.0227 2.37947 41.6022 32.0227 2.37947
533 2 43.9702 31.3708 3.07421 43.9702 31.3708 3.07421
534 2 43.0076 32.809 0.348379 43.0076 32.809 0.348379
535 1 43.8845 30.4892 0.70716 43.8845 30.4892 0.70716
536 2 46.2886 29.8462 1.17827 46.2886 29.8462 1.17827
537 2 45.0771 31.4689 -1.34363 45.0771 31.4689 -1.34363
538 1 47.0948 32.2068 0.235595 47.0948 32.2068 0.235595
539 2 49.4979 31.5962 0.736207 49.4979 31.5962 0.736207
540 2 48.2845 33.1606 -1.82086 48.2845 33.1606 -1.82086
541 1 50.2998 33.9349 -0.25335 -0.99186 33.9349 -0.25335