ITEM: TIMESTEP
2076000
ITEM: NUMBER OF ATOMS
810
ITEM: BOX BOUNDS xy xz yz pp pp pp
8.6298438867990135e-01 6.2407636373354926e+01 1.0253015762035758e+01
8.1394622342039402e-01 5.0202268776579182e+01 0.0000000000000000e+00
-1.0000000000000000e+01 1.0000000000000000e+01 0.0000000000000000e+00
ITEM: ATOMS id type x y z xu yu zu
1 1 44.0872 1.18362 2.5209 -7.20439 1.18362 2.5209
2 2 45.886 1.28366 4.33549 -5.40568 1.28366 4.33549
3 2 46.2271 1.02768 1.13623 -5.06452 1.02768 1.13623
4 1 47.311 2.79954 2.72358 -3.98064 2.79954 2.72358
5 2 49.1902 2.79919 4.45817 -2.10142 2.79919 4.45817
6 2 49.3915 2.72041 1.2385 -1.9001 2.72041 1.2385
7 1 50.0051 0.955656 2.94283 -1.28657 0.955656 2.94283
8 2 11.1224 49.9907 4.26557 0.869419 0.60237 4.26557
9 2 51.7952 1.24519 1.12304 0.503547 1.24519 1.12304
10 1 1.95 2.55385 2.86435 1.95 2.55385 2.86435
11 2 4.15808 2.13626 4.07475 4.15808 2.13626 4.07475
12 2 3.66261 2.937 0.985568 3.66261 2.937 0.985568
13 1 14.7986 50.188 1.97183 4.54554 0.799638 1.97183
14 2 17.1457 49.6043 2.757 6.89268 0.216027 2.757
15 2 5.95846 1.52846 -0.0493365 5.95846 1.52846 -0.0493365
16 1 7.72813 2.4528 1.64691 7.72813 2.4528 1.64691
17 2 10.0951 1.85541 2.34893 10.0951 1.85541 2.34893
18 2 9.07627 3.24408 -0.391983 9.07627 3.24408 -0.391983
19 1 10.058 0.978613 -0.011895 10.058 0.978613 -0.011895
20 2 22.6887 49.8336 0.655753 12.4357 0.445232 0.655753
21 2 11.3211 1.79084 -2.07024 11.3211 1.79084 -2.07024
22 1 13.189 2.692 -0.461166 13.189 2.692 -0.461166
23 2 15.5557 2.19023 0.271192 15.5557 2.19023 0.271192
24 2 14.4911 3.44065 -2.51827 14.4911 3.44065 -2.51827
25 1 15.5626 1.21412 -2.07396 15.5626 1.21412 -2.07396
26 2 17.8263 0.881489 -0.963138 17.8263 0.881489 -0.963138
27 2 17.1478 1.59179 -4.04095 17.1478 1.59179 -4.04095
28 1 18.755 2.86302 -2.39397 18.755 2.86302 -2.39397
29 2 20.9769 2.59268 -1.17726 20.9769 2.59268 -1.17726
30 2 20.4218 3.13239 -4.31258 20.4218 3.13239 -4.31258
31 1 21.3865 1.09815 -3.18358 21.3865 1.09815 -3.18358
32 2 23.369 1.14282 -1.5609 23.369 1.14282 -1.5609
33 2 23.3766 0.956627 -4.7825 23.3766 0.956627 -4.7825
34 1 24.6261 2.69114 -3.24778 24.6261 2.69114 -3.24778
35 2 26.5347 2.82922 -1.53894 26.5347 2.82922 -1.53894
36 2 26.6877 2.45892 -4.74114 26.6877 2.45892 -4.74114
37 1 27.3072 0.851866 -2.89892 27.3072 0.851866 -2.89892
38 2 28.897 1.36995 -0.943379 28.897 1.36995 -0.943379
39 2 39.8362 49.743 -3.93397 29.5832 0.354632 -3.93397
40 1 30.522 2.46716 -2.67398 30.522 2.46716 -2.67398
41 2 32.0324 3.07381 -0.680677 32.0324 3.07381 -0.680677
42 2 32.8342 1.92934 -3.59676 32.8342 1.92934 -3.59676
43 1 32.9819 0.84754 -1.3271 32.9819 0.84754 -1.3271
44 2 34.2537 1.68958 0.729478 34.2537 1.68958 0.729478
45 2 45.6184 49.6477 -1.95508 35.3654 0.25937 -1.95508
46 1 36.1238 2.53909 -0.89876 36.1238 2.53909 -0.89876
47 2 37.3746 3.38851 1.15998 37.3746 3.38851 1.15998
48 2 38.5085 1.96704 -1.51985 38.5085 1.96704 -1.51985
49 1 38.4127 1.13034 0.865723 38.4127 1.13034 0.865723
50 2 39.8141 1.74201 2.90586 39.8141 1.74201 2.90586
51 2 51.0034 50.0751 -0.00485524 40.7504 0.686803 -0.00485524
52 1 41.5706 2.81826 1.27382 41.5706 2.81826 1.27382
53 2 43.0432 3.33859 3.2917 43.0432 3.33859 3.2917
54 2 43.8833 2.41555 0.309542 43.8833 2.41555 0.309542
55 1 44.7432 4.49184 1.65032 -6.54848 4.49184 1.65032
56 2 46.2936 4.91378 3.63529 -4.99804 4.91378 3.63529
57 2 47.0237 4.13644 0.585199 -4.2679 4.13644 0.585199
58 1 47.9308 6.14939 1.98878 -3.3608 6.14939 1.98878
59 2 49.5618 6.46885 3.93001 -1.72987 6.46885 3.93001
60 2 50.1726 5.84969 0.819587 -1.11901 5.84969 0.819587
61 1 50.5438 4.40535 2.87128 -0.747854 4.40535 2.87128
62 2 52.4993 4.30912 4.51644 1.20771 4.30912 4.51644
63 2 52.5597 4.40963 1.29188 1.26805 4.40963 1.29188
64 1 2.49097 6.0045 2.96334 2.49097 6.0045 2.96334
65 2 4.5177 5.81774 4.51081 4.5177 5.81774 4.51081
66 2 4.43761 6.0977 1.29725 4.43761 6.0977 1.29725
67 1 5.18091 4.15826 2.73053 5.18091 4.15826 2.73053
68 2 7.43504 3.68525 3.82658 7.43504 3.68525 3.82658
69 2 6.81437 4.63355 0.801145 6.81437 4.63355 0.801145
70 1 8.40329 5.7714 2.54092 8.40329 5.7714 2.54092
71 2 10.6978 5.25235 3.52174 10.6978 5.25235 3.52174
72 2 9.95626 6.33627 0.56837 9.95626 6.33627 0.56837
73 1 10.8948 4.12157 1.27836 10.8948 4.12157 1.27836
74 2 13.2744 3.52091 1.91879 13.2744 3.52091 1.91879
75 2 12.1886 4.95992 -0.770999 12.1886 4.95992 -0.770999
76 1 14.0466 5.80492 0.873459 14.0466 5.80492 0.873459
77 2 16.4337 5.21952 1.48389 16.4337 5.21952 1.48389
78 2 15.3007 6.66195 -1.18493 15.3007 6.66195 -1.18493
79 1 16.3271 4.39933 -0.903807 16.3271 4.39933 -0.903807
80 2 18.6785 3.93224 -0.0907483 18.6785 3.93224 -0.0907483
81 2 17.686 5.0666 -2.95384 17.686 5.0666 -2.95384
82 1 19.4768 6.09499 -1.32996 19.4768 6.09499 -1.32996
83 2 21.8071 5.66748 -0.425863 21.8071 5.66748 -0.425863
84 2 20.9034 6.66985 -3.36475 20.9034 6.66985 -3.36475
85 1 21.9611 4.4962 -2.67405 21.9611 4.4962 -2.67405
86 2 24.1339 4.29615 -1.35132 24.1339 4.29615 -1.35132
87 2 23.7109 4.6568 -4.53136 23.7109 4.6568 -4.53136
88 1 25.1796 6.11542 -2.90869 25.1796 6.11542 -2.90869
89 2 27.2952 5.9927 -1.47996 27.2952 5.9927 -1.47996
90 2 27.0141 6.168 -4.69018 27.0141 6.168 -4.69018
91 1 27.8678 4.28128 -3.25312 27.8678 4.28128 -3.25312
92 2 29.6975 4.51652 -1.46571 29.6975 4.51652 -1.46571
93 2 29.9956 3.96635 -4.6323 29.9956 3.96635 -4.6323
94 1 31.1082 5.87234 -3.19715 31.1082 5.87234 -3.19715
95 2 32.8553 6.20747 -1.34091 32.8553 6.20747 -1.34091
96 2 33.2953 5.48353 -4.45677 33.2953 5.48353 -4.45677
97 1 33.7236 4.09634 -2.39543 33.7236 4.09634 -2.39543
98 2 35.1601 4.78741 -0.375567 35.1601 4.78741 -0.375567
99 2 36.0638 3.52523 -3.21421 36.0638 3.52523 -3.21421
100 1 36.9111 5.74014 -2.0725 36.9111 5.74014 -2.0725
101 2 38.2829 6.50478 -0.0369661 38.2829 6.50478 -0.0369661
102 2 39.2712 5.14545 -2.80328 39.2712 5.14545 -2.80328
103 1 39.2578 4.24224 -0.453376 39.2578 4.24224 -0.453376
104 2 40.5141 5.06691 1.60601 40.5141 5.06691 1.60601
105 2 41.6382 3.69612 -1.10375 41.6382 3.69612 -1.10375
106 1 42.39 5.95164 -0.00218635 42.39 5.95164 -0.00218635
107 2 43.6761 6.72709 2.05538 43.6761 6.72709 2.05538
108 2 44.7614 5.43464 -0.707093 44.7614 5.43464 -0.707093
109 1 45.5269 7.66015 0.442733 -5.76472 7.66015 0.442733
110 2 46.8625 8.36599 2.49443 -4.42912 8.36599 2.49443
111 2 47.8848 7.17467 -0.335214 -3.40679 7.17467 -0.335214
112 1 48.6734 9.36098 0.871081 -2.61819 9.36098 0.871081
113 2 50.0722 9.98402 2.9099 -1.21939 9.98402 2.9099
114 2 51.0129 8.90988 0.0077351 -0.278718 8.90988 0.0077351
115 1 51.1325 7.79179 2.28554 -0.159125 7.79179 2.28554
116 2 52.845 8.00701 4.17163 1.55338 8.00701 4.17163
117 2 53.329 7.55606 1.01162 2.03736 7.55606 1.01162
118 1 3.05495 9.42067 2.53694 3.05495 9.42067 2.53694
119 2 4.84952 9.53296 4.35568 4.84952 9.53296 4.35568
120 2 5.19889 9.25503 1.15932 5.19889 9.25503 1.15932
121 1 5.73293 7.60007 2.99971 5.73293 7.60007 2.99971
122 2 7.82821 7.33042 4.43894 7.82821 7.33042 4.43894
123 2 7.60375 7.78448 1.25192 7.60375 7.78448 1.25192
124 1 8.97525 9.19487 2.97371 8.97525 9.19487 2.97371
125 2 11.1323 8.8497 4.2988 11.1323 8.8497 4.2988
126 2 10.7669 9.47388 1.153 10.7669 9.47388 1.153
127 1 11.6141 7.39616 2.29432 11.6141 7.39616 2.29432
128 2 13.942 6.84336 3.16589 13.942 6.84336 3.16589
129 2 13.0885 8.04286 0.286559 13.0885 8.04286 0.286559
130 1 14.8104 9.03517 1.99134 14.8104 9.03517 1.99134
131 2 17.1636 8.45627 2.76396 17.1636 8.45627 2.76396
132 2 16.2122 9.75815 -0.041346 16.2122 9.75815 -0.041346
133 1 17.1844 7.5041 0.433301 17.1844 7.5041 0.433301
134 2 19.5714 6.94519 1.05375 19.5714 6.94519 1.05375
135 2 18.4258 8.34795 -1.63075 18.4258 8.34795 -1.63075
136 1 20.3144 9.21367 -0.0289227 20.3144 9.21367 -0.0289227
137 2 22.6947 8.68462 0.63565 22.6947 8.68462 0.63565
138 2 21.5732 10.0159 -2.09448 21.5732 10.0159 -2.09448
139 1 22.6404 7.77576 -1.73229 22.6404 7.77576 -1.73229
140 2 24.9428 7.39563 -0.729261 24.9428 7.39563 -0.729261
141 2 24.1419 8.25035 -3.74178 24.1419 8.25035 -3.74178
142 1 25.8191 9.44053 -2.10471 25.8191 9.44053 -2.10471
143 2 28.0855 9.11519 -0.995141 28.0855 9.11519 -0.995141
144 2 27.4029 9.80844 -4.07571 27.4029 9.80844 -4.07571
145 1 28.4094 7.7221 -3.09057 28.4094 7.7221 -3.09057
146 2 30.4596 7.68362 -1.55866 30.4596 7.68362 -1.55866
147 2 30.327 7.67045 -4.78265 30.327 7.67045 -4.78265
148 1 31.6477 9.31906 -3.21372 31.6477 9.31906 -3.21372
149 2 33.627 9.37211 -1.58614 33.627 9.37211 -1.58614
150 2 33.6432 9.16815 -4.80638 33.6432 9.16815 -4.80638
151 1 34.3435 7.46822 -3.08051 34.3435 7.46822 -3.08051
152 2 36.0093 7.90308 -1.16892 36.0093 7.90308 -1.16892
153 2 36.5802 7.01465 -4.22179 36.5802 7.01465 -4.22179
154 1 37.5708 9.07179 -2.91016 37.5708 9.07179 -2.91016
155 2 39.1562 9.60102 -0.953571 39.1562 9.60102 -0.953571
156 2 39.8496 8.56615 -3.93559 39.8496 8.56615 -3.93559
157 1 40.0845 7.39819 -1.71501 40.0845 7.39819 -1.71501
158 2 41.3989 8.22003 0.330659 41.3989 8.22003 0.330659
159 2 42.4594 6.79441 -2.37593 42.4594 6.79441 -2.37593
160 1 43.243 9.07239 -1.32456 43.243 9.07239 -1.32456
161 2 44.5157 9.92847 0.725919 44.5157 9.92847 0.725919
162 2 45.6256 8.47295 -1.94524 45.6256 8.47295 -1.94524
163 1 46.3891 10.7614 -0.908252 -4.90256 10.7614 -0.908252
164 2 47.6357 11.6219 1.14861 -3.65595 11.6219 1.14861
165 2 48.7756 10.1841 -1.51951 -2.51599 10.1841 -1.51951
166 1 49.5238 12.4664 -0.465379 -1.7678 12.4664 -0.465379
167 2 50.776 13.3001 1.59321 -0.515658 13.3001 1.59321
168 2 51.9062 11.9166 -1.10717 0.614555 11.9166 -1.10717
169 1 51.833 11.0494 1.27432 0.541343 11.0494 1.27432
170 2 53.3014 11.5805 3.29278 2.00981 11.5805 3.29278
171 2 2.85669 10.6401 0.318078 2.85669 10.6401 0.318078
172 1 3.71452 12.7241 1.64909 3.71452 12.7241 1.64909
173 2 5.25998 13.1556 3.63629 5.25998 13.1556 3.63629
174 2 5.99837 12.3639 0.591921 5.99837 12.3639 0.591921
175 1 6.28023 11.0372 2.73752 6.28023 11.0372 2.73752
176 2 8.15605 11.0466 4.47665 8.15605 11.0466 4.47665
177 2 8.3649 10.9505 1.25818 8.3649 10.9505 1.25818
178 1 9.51468 12.6437 2.88443 9.51468 12.6437 2.88443
179 2 11.4705 12.5534 4.53088 11.4705 12.5534 4.53088
180 2 11.5322 12.642 1.30639 11.5322 12.642 1.30639
181 1 12.2145 10.7921 2.88594 12.2145 10.7921 2.88594
182 2 14.4274 10.3785 4.09078 14.4274 10.3785 4.09078
183 2 13.9232 11.1684 1.00064 13.9232 11.1684 1.00064
184 1 15.4473 12.3949 2.73615 15.4473 12.3949 2.73615
185 2 17.7084 11.9235 3.81999 17.7084 11.9235 3.81999
186 2 17.0716 12.8667 0.796537 17.0716 12.8667 0.796537
187 1 17.9911 10.6886 1.64078 17.9911 10.6886 1.64078
188 2 20.3625 10.0932 2.33018 20.3625 10.0932 2.33018
189 2 19.3283 11.477 -0.407422 19.3283 11.477 -0.407422
190 1 21.1562 12.3563 1.25041 21.1562 12.3563 1.25041
191 2 23.5409 11.7628 1.88046 23.5409 11.7628 1.88046
192 2 22.4376 13.1879 -0.809605 22.4376 13.1879 -0.809605
193 1 23.4456 10.9245 -0.495632 23.4456 10.9245 -0.495632
194 2 25.8158 10.4303 0.234057 25.8158 10.4303 0.234057
195 2 24.7431 11.6621 -2.56038 24.7431 11.6621 -2.56038
196 1 26.5833 12.6317 -0.957341 26.5833 12.6317 -0.957341
197 2 28.9356 12.1697 -0.141378 28.9356 12.1697 -0.141378
198 2 27.944 13.2881 -3.01077 27.944 13.2881 -3.01077
199 1 29.0138 11.0883 -2.43837 29.0138 11.0883 -2.43837
200 2 31.2348 10.8247 -1.21682 31.2348 10.8247 -1.21682
201 2 30.6852 11.3469 -4.35572 30.6852 11.3469 -4.35572
202 1 32.2239 12.7191 -2.72287 32.2239 12.7191 -2.72287
203 2 34.3942 12.5267 -1.39296 34.3942 12.5267 -1.39296
204 2 33.9801 12.8683 -4.576 33.9801 12.8683 -4.576
205 1 34.8909 10.9102 -3.27805 34.8909 10.9102 -3.27805
206 2 36.7954 11.0578 -1.56441 36.7954 11.0578 -1.56441
207 2 36.9575 10.6683 -4.76377 36.9575 10.6683 -4.76377
208 1 38.1353 12.4991 -3.28326 38.1353 12.4991 -3.28326
209 2 39.9606 12.7435 -1.49221 39.9606 12.7435 -1.49221
210 2 40.2672 12.1757 -4.65479 40.2672 12.1757 -4.65479
211 1 40.7872 10.6866 -2.68682 40.7872 10.6866 -2.68682
212 2 42.2958 11.3054 -0.695778 42.2958 11.3054 -0.695778
213 2 43.1002 10.1389 -3.6021 43.1002 10.1389 -3.6021
214 1 43.9911 12.3148 -2.41542 43.9911 12.3148 -2.41542
215 2 45.4257 13.0133 -0.39685 45.4257 13.0133 -0.39685
216 2 46.3326 11.7388 -3.22839 46.3326 11.7388 -3.22839
217 1 47.1799 13.9596 -2.09553 -4.11175 13.9596 -2.09553
218 2 48.5481 14.7312 -0.0598739 -2.7435 14.7312 -0.0598739
219 2 49.5421 13.3619 -2.81876 -1.74959 13.3619 -2.81876
220 1 50.3538 15.62 -1.73747 -0.937856 15.62 -1.73747
221 2 51.6631 16.4469 0.309873 0.371421 16.4469 0.309873
222 2 52.7314 15.0158 -2.39041 1.43974 15.0158 -2.39041
223 1 52.6563 14.1779 -0.0147514 1.36467 14.1779 -0.0147514
224 2 53.9374 14.9606 2.04358 2.64574 14.9606 2.04358
225 2 3.7385 13.6589 -0.71147 3.7385 13.6589 -0.71147
226 1 4.50108 15.889 0.43273 4.50108 15.889 0.43273
227 2 5.83123 16.6004 2.48641 5.83123 16.6004 2.48641
228 2 6.86177 15.403 -0.337676 6.86177 15.403 -0.337676
229 1 6.90231 14.3834 1.98886 6.90231 14.3834 1.98886
230 2 8.52859 14.7103 3.93327 8.52859 14.7103 3.93327
231 2 9.14748 14.0811 0.826629 9.14748 14.0811 0.826629
232 1 10.1043 16.0277 2.28879 10.1043 16.0277 2.28879
233 2 11.8167 16.247 4.17537 11.8167 16.247 4.17537
234 2 12.3019 15.7895 1.01679 12.3019 15.7895 1.01679
235 1 12.7559 14.2421 2.97203 12.7559 14.2421 2.97203
236 2 14.7879 14.0581 4.51434 14.7879 14.0581 4.51434
237 2 14.6992 14.3307 1.30076 14.6992 14.3307 1.30076
238 1 16.0004 15.8356 2.99584 16.0004 15.8356 2.99584
239 2 18.1031 15.5658 4.42515 18.1031 15.5658 4.42515
240 2 17.8643 16.0181 1.239 17.8643 16.0181 1.239
241 1 18.67 14.0064 2.52528 18.67 14.0064 2.52528
242 2 20.9711 13.4902 3.49281 20.9711 13.4902 3.49281
243 2 20.2115 14.5677 0.541698 20.2115 14.5677 0.541698
244 1 21.8795 15.6302 2.25502 21.8795 15.6302 2.25502
245 2 24.2123 15.0769 3.11295 24.2123 15.0769 3.11295
246 2 23.3429 16.2779 0.238692 23.3429 16.2779 0.238692
247 1 24.3046 14.0411 0.819835 24.3046 14.0411 0.819835
248 2 26.693 13.459 1.42744 26.693 13.459 1.42744
249 2 25.5539 14.8923 -1.24377 25.5539 14.8923 -1.24377
250 1 27.4422 15.7383 0.366225 27.4422 15.7383 0.366225
251 2 29.8294 15.1819 0.988396 29.8294 15.1819 0.988396
252 2 28.6835 16.5764 -1.70026 28.6835 16.5764 -1.70026
253 1 29.7357 14.3249 -1.39284 29.7357 14.3249 -1.39284
254 2 32.0653 13.9026 -0.481934 32.0653 13.9026 -0.481934
255 2 31.1676 14.8886 -3.42794 31.1676 14.8886 -3.42794
256 1 32.9028 16.0032 -1.7985 32.9028 16.0032 -1.7985
257 2 35.2022 15.6258 -0.785691 35.2022 15.6258 -0.785691
258 2 34.413 16.4683 -3.80441 34.413 16.4683 -3.80441
259 1 35.4463 14.3362 -2.95826 35.4463 14.3362 -2.95826
260 2 37.5571 14.2194 -1.52081 37.5571 14.2194 -1.52081
261 2 37.2885 14.3796 -4.73271 37.2885 14.3796 -4.73271
262 1 38.679 15.9411 -3.13526 38.679 15.9411 -3.13526
263 2 40.7259 15.9089 -1.59815 40.7259 15.9089 -1.59815
264 2 40.6009 15.882 -4.82234 40.6009 15.882 -4.82234
265 1 41.3773 14.0899 -3.22731 41.3773 14.0899 -3.22731
266 2 43.1224 14.4315 -1.37054 43.1224 14.4315 -1.37054
267 2 43.566 13.6953 -4.48277 43.566 13.6953 -4.48277
268 1 44.6137 15.6863 -3.11321 44.6137 15.6863 -3.11321
269 2 46.2759 16.1257 -1.19958 46.2759 16.1257 -1.19958
270 2 46.8532 15.2301 -4.24873 46.8532 15.2301 -4.24873
271 1 47.8412 17.2922 -2.94036 -3.45041 17.2922 -2.94036
272 2 49.4219 17.8237 -0.980625 -1.86977 17.8237 -0.980625
273 2 50.1234 16.7871 -3.95973 -1.16826 16.7871 -3.95973
274 1 51.0571 18.9106 -2.71058 -0.234578 18.9106 -2.71058
275 2 52.5588 19.5287 -0.714106 1.26715 19.5287 -0.714106
276 2 53.3742 18.3677 -3.6192 2.08261 18.3677 -3.6192
277 1 53.5116 17.2976 -1.34241 2.22001 17.2976 -1.34241
278 2 54.7777 18.1562 0.711549 3.48604 18.1562 0.711549
279 2 4.60582 16.7009 -1.9554 4.60582 16.7009 -1.9554
280 1 5.364 18.9912 -0.917177 5.364 18.9912 -0.917177
281 2 6.60594 19.852 1.14267 6.60594 19.852 1.14267
282 2 7.7528 18.4166 -1.52376 7.7528 18.4166 -1.52376
283 1 7.64661 17.5925 0.866118 7.64661 17.5925 0.866118
284 2 9.04018 18.2195 2.90766 9.04018 18.2195 2.90766
285 2 9.98869 17.1429 0.00904831 9.98869 17.1429 0.00904831
286 1 10.805 19.2838 1.27574 10.805 19.2838 1.27574
287 2 12.2733 19.8152 3.29469 12.2733 19.8152 3.29469
288 2 13.121 18.876 0.319999 13.121 18.876 0.319999
289 1 13.3201 17.6564 2.53873 13.3201 17.6564 2.53873
290 2 15.1197 17.7684 4.35334 15.1197 17.7684 4.35334
291 2 15.4617 17.4898 1.15646 15.4617 17.4898 1.15646
292 1 16.5477 19.2712 2.73163 16.5477 19.2712 2.73163
293 2 18.433 19.2789 4.46097 18.433 19.2789 4.46097
294 2 18.6249 19.1833 1.24153 18.6249 19.1833 1.24153
295 1 19.2443 17.4279 2.95327 19.2443 17.4279 2.95327
296 2 21.4105 17.0812 4.26355 21.4105 17.0812 4.26355
297 2 21.0246 17.7072 1.12044 21.0246 17.7072 1.12044
298 1 22.4835 19.0228 2.84459 22.4835 19.0228 2.84459
299 2 24.7027 18.6077 4.03665 24.7027 18.6077 4.03665
300 2 24.1814 19.4005 0.949712 24.1814 19.4005 0.949712
301 1 25.0742 17.2675 1.93393 25.0742 17.2675 1.93393
302 2 27.4304 16.6886 2.69699 27.4304 16.6886 2.69699
303 2 26.4676 17.9912 -0.104374 26.4676 17.9912 -0.104374
304 1 28.2531 18.9197 1.57054 28.2531 18.9197 1.57054
305 2 30.6258 18.3258 2.25599 30.6258 18.3258 2.25599
306 2 29.5853 19.7075 -0.480604 29.5853 19.7075 -0.480604
307 1 30.5736 17.4456 -0.102508 30.5736 17.4456 -0.102508
308 2 32.9539 16.9205 0.566349 32.9539 16.9205 0.566349
309 2 31.8343 18.2413 -2.16951 31.8343 18.2413 -2.16951
310 1 33.7059 19.1559 -0.572416 33.7059 19.1559 -0.572416
311 2 36.0726 18.661 0.169211 36.0726 18.661 0.169211
312 2 35.0139 19.8861 -2.63342 35.0139 19.8861 -2.63342
313 1 36.0856 17.6646 -2.16642 36.0856 17.6646 -2.16642
314 2 38.3479 17.3426 -1.0467 38.3479 17.3426 -1.0467
315 2 37.6776 18.0243 -4.13248 37.6776 18.0243 -4.13248
316 1 39.2824 19.3106 -2.49355 39.2824 19.3106 -2.49355
317 2 41.4997 19.0488 -1.26471 41.4997 19.0488 -1.26471
318 2 40.9597 19.5647 -4.40617 40.9597 19.5647 -4.40617
319 1 41.9183 17.5382 -3.25713 41.9183 17.5382 -3.25713
320 2 43.8934 17.5939 -1.6246 43.8934 17.5939 -1.6246
321 2 43.9182 17.3841 -4.8442 43.9182 17.3841 -4.8442
322 1 45.1616 19.1307 -3.3159 45.1616 19.1307 -3.3159
323 2 47.0611 19.2791 -1.59727 47.0611 19.2791 -1.59727
324 2 47.2326 18.8894 -4.79581 47.2326 18.8894 -4.79581
325 1 48.4053 20.7228 -3.31235 -2.8863 20.7228 -3.31235
326 2 50.2251 20.9661 -1.51587 -1.06658 20.9661 -1.51587
327 2 50.5417 20.4032 -4.67803 -0.74996 20.4032 -4.67803
328 1 51.646 22.318 -3.24475 0.354365 22.318 -3.24475
329 2 53.3827 22.6569 -1.37986 2.09111 22.6569 -1.37986
330 2 53.8406 21.9305 -4.49215 2.54901 21.9305 -4.49215
331 1 54.2588 20.5441 -2.42695 2.96715 20.5441 -2.42695
332 2 55.6866 21.2403 -0.40298 4.39492 21.2403 -0.40298
333 2 5.31209 19.9745 -3.23504 5.31209 19.9745 -3.23504
334 1 6.15288 22.1941 -2.09427 6.15288 22.1941 -2.09427
335 2 7.51548 22.9601 -0.0531534 7.51548 22.9601 -0.0531534
336 2 8.51755 21.6047 -2.81613 8.51755 21.6047 -2.81613
337 1 8.49692 20.6993 -0.466598 8.49692 20.6993 -0.466598
338 2 9.74308 21.5316 1.59636 9.74308 21.5316 1.59636
339 2 10.8819 20.1552 -1.10412 10.8819 20.1552 -1.10412
340 1 11.626 22.4153 -0.00538077 11.626 22.4153 -0.00538077
341 2 12.9084 23.1937 2.05361 12.9084 23.1937 2.05361
342 2 13.9992 21.9002 -0.706132 13.9992 21.9002 -0.706132
343 1 13.9785 20.9594 1.65203 13.9785 20.9594 1.65203
344 2 15.5298 21.3885 3.6354 15.5298 21.3885 3.6354
345 2 16.2593 20.6 0.588172 16.2593 20.6 0.588172
346 1 17.1681 22.617 1.98485 17.1681 22.617 1.98485
347 2 18.8049 22.9386 3.92111 18.8049 22.9386 3.92111
348 2 19.4066 22.3158 0.809628 19.4066 22.3158 0.809628
349 1 19.7842 20.8745 2.86216 19.7842 20.8745 2.86216
350 2 21.7493 20.7805 4.49688 21.7493 20.7805 4.49688
351 2 21.7924 20.8744 1.272 21.7924 20.8744 1.272
352 1 23.0258 22.4701 2.93333 23.0258 22.4701 2.93333
353 2 25.0655 22.2816 4.46389 25.0655 22.2816 4.46389
354 2 24.9593 22.5617 1.25102 24.9593 22.5617 1.25102
355 1 25.7145 20.6236 2.67799 25.7145 20.6236 2.67799
356 2 27.9792 20.1507 3.7523 27.9792 20.1507 3.7523
357 2 27.3302 21.0978 0.732154 27.3302 21.0978 0.732154
358 1 28.9345 22.2339 2.45626 28.9345 22.2339 2.45626
359 2 31.236 21.7137 3.41858 31.236 21.7137 3.41858
360 2 30.4717 22.8005 0.471531 30.4717 22.8005 0.471531
361 1 31.4164 20.5871 1.1729 31.4164 20.5871 1.1729
362 2 33.7986 19.9899 1.80531 33.7986 19.9899 1.80531
363 2 32.7005 21.4211 -0.883814 32.7005 21.4211 -0.883814
364 1 34.5658 22.2689 0.749376 34.5658 22.2689 0.749376
365 2 36.9533 21.6877 1.36068 36.9533 21.6877 1.36068
366 2 35.8168 23.1189 -1.31281 35.8168 23.1189 -1.31281
367 1 36.8472 20.8587 -1.02423 36.8472 20.8587 -1.02423
368 2 39.1969 20.3974 -0.199425 39.1969 20.3974 -0.199425
369 2 38.2151 21.5099 -3.07434 38.2151 21.5099 -3.07434
370 1 40.0003 22.5508 -1.4517 40.0003 22.5508 -1.4517
371 2 42.3259 22.1271 -0.531498 42.3259 22.1271 -0.531498
372 2 41.4405 23.1119 -3.48139 41.4405 23.1119 -3.48139
373 1 42.493 20.9414 -2.77097 42.493 20.9414 -2.77097
374 2 44.6579 20.7482 -1.4329 44.6579 20.7482 -1.4329
375 2 44.2562 21.0899 -4.61738 44.2562 21.0899 -4.61738
376 1 45.7153 22.5595 -2.99379 45.7153 22.5595 -2.99379
377 2 47.8216 22.443 -1.55052 47.8216 22.443 -1.55052
378 2 47.562 22.6048 -4.76297 47.562 22.6048 -4.76297
379 1 48.9467 24.1683 -3.16043 -2.34492 24.1683 -3.16043
380 2 50.9865 24.1339 -1.61461 -0.305142 24.1339 -1.61461
381 2 50.8759 24.1143 -4.83916 -0.415768 24.1143 -4.83916
382 1 52.1846 25.7699 -3.26445 0.89301 25.7699 -3.26445
383 2 54.1523 25.8245 -1.62332 2.8607 25.8245 -1.62332
384 2 54.1907 25.6213 -4.84328 2.8991 25.6213 -4.84328
385 1 54.8796 23.9201 -3.11284 3.58792 23.9201 -3.11284
386 2 56.5349 24.3557 -1.19302 5.24326 24.3557 -1.19302
387 2 5.83086 23.4719 -4.24383 5.83086 23.4719 -4.24383
388 1 6.81166 25.5311 -2.92543 6.81166 25.5311 -2.92543
389 2 8.38644 26.0588 -0.96075 8.38644 26.0588 -0.96075
390 2 9.09587 25.0331 -3.94215 9.09587 25.0331 -3.94215
391 1 9.32273 23.8593 -1.72348 9.32273 23.8593 -1.72348
392 2 10.6299 24.6818 0.32666 10.6299 24.6818 0.32666
393 2 11.7007 23.2605 -2.37816 11.7007 23.2605 -2.37816
394 1 12.4775 25.5395 -1.32245 12.4775 25.5395 -1.32245
395 2 13.7462 26.3929 0.731349 13.7462 26.3929 0.731349
396 2 14.8615 24.9462 -1.9426 14.8615 24.9462 -1.9426
397 1 14.7615 24.1273 0.443256 14.7615 24.1273 0.443256
398 2 16.0997 24.8326 2.49343 16.0997 24.8326 2.49343
399 2 17.1184 23.6432 -0.338458 17.1184 23.6432 -0.338458
400 1 17.9083 25.8286 0.868497 17.9083 25.8286 0.868497
401 2 19.3127 26.4475 2.90438 19.3127 26.4475 2.90438
402 2 20.2448 25.3812 -0.0036742 20.2448 25.3812 -0.0036742
403 1 20.372 24.258 2.27104 20.372 24.258 2.27104
404 2 22.0944 24.4708 4.14839 22.0944 24.4708 4.14839
405 2 22.5616 24.0226 0.985372 22.5616 24.0226 0.985372
406 1 23.5882 25.8836 2.50743 23.5882 25.8836 2.50743
407 2 25.3958 25.9876 4.31326 25.3958 25.9876 4.31326
408 2 25.7218 25.7221 1.11304 25.7218 25.7221 1.11304
409 1 26.2688 24.0611 2.94294 26.2688 24.0611 2.94294
410 2 28.3753 23.7858 4.36361 28.3753 23.7858 4.36361
411 2 28.1249 24.2491 1.17932 28.1249 24.2491 1.17932
412 1 29.5098 25.6517 2.89403 29.5098 25.6517 2.89403
413 2 31.6758 25.2989 4.20056 31.6758 25.2989 4.20056
414 2 31.2866 25.9376 1.05985 31.2866 25.9376 1.05985
415 1 32.1417 23.8563 2.18572 32.1417 23.8563 2.18572
416 2 34.4729 23.3011 3.04415 34.4729 23.3011 3.04415
417 2 33.6045 24.5066 0.171132 33.6045 24.5066 0.171132
418 1 35.334 25.4932 1.86913 35.334 25.4932 1.86913
419 2 37.6889 24.9126 2.63244 37.6889 24.9126 2.63244
420 2 36.727 26.2204 -0.16713 36.727 26.2204 -0.16713
421 1 37.7019 23.9666 0.29973 37.7019 23.9666 0.29973
422 2 40.0872 23.4114 0.928901 40.0872 23.4114 0.928901
423 2 38.9473 24.8019 -1.76438 38.9473 24.8019 -1.76438
424 1 40.8318 25.6746 -0.161755 40.8318 25.6746 -0.161755
425 2 43.2082 25.1484 0.519186 43.2082 25.1484 0.519186
426 2 42.1022 26.467 -2.22333 42.1022 26.467 -2.22333
427 1 43.168 24.2281 -1.84485 43.168 24.2281 -1.84485
428 2 45.4635 23.8517 -0.823106 45.4635 23.8517 -0.823106
429 2 44.685 24.6915 -3.84541 44.685 24.6915 -3.84541
430 1 46.3498 25.8917 -2.20117 46.3498 25.8917 -2.20117
431 2 48.607 25.5688 -1.07208 48.607 25.5688 -1.07208
432 2 47.9498 26.2534 -4.15989 47.9498 26.2534 -4.15989
433 1 49.5461 27.5408 -2.51205 -1.74558 27.5408 -2.51205
434 2 51.757 27.2791 -1.27264 0.465319 27.2791 -1.27264
435 2 51.2317 27.798 -4.4161 -0.0599122 27.798 -4.4161
436 1 52.7553 29.176 -2.77153 1.4637 29.176 -2.77153
437 2 54.9132 28.9823 -1.42318 3.62152 28.9823 -1.42318
438 2 54.5264 29.3289 -4.60906 3.23474 29.3289 -4.60906
439 1 55.4253 27.3674 -3.30626 4.13364 27.3674 -3.30626
440 2 57.317 27.5136 -1.57985 6.02541 27.5136 -1.57985
441 2 6.2095 27.1327 -4.77903 6.2095 27.1327 -4.77903
442 1 7.37366 28.9637 -3.28648 7.37366 28.9637 -3.28648
443 2 9.18807 29.2048 -1.48545 9.18807 29.2048 -1.48545
444 2 9.51168 28.65 -4.64888 9.51168 28.65 -4.64888
445 1 10.0232 27.1535 -2.68419 10.0232 27.1535 -2.68419
446 2 11.5238 27.7678 -0.686769 11.5238 27.7678 -0.686769
447 2 12.3394 26.6154 -3.59587 12.3394 26.6154 -3.59587
448 1 13.2215 28.7887 -2.39789 13.2215 28.7887 -2.39789
449 2 14.6539 29.4814 -0.376912 14.6539 29.4814 -0.376912
450 2 15.5626 28.2203 -3.2145 15.5626 28.2203 -3.2145
451 1 15.6199 27.2332 -0.898868 15.6199 27.2332 -0.898868
452 2 16.87 28.0872 1.15798 16.87 28.0872 1.15798
453 2 18.0046 26.6607 -1.51903 18.0046 26.6607 -1.51903
454 1 18.7531 28.9391 -0.4574 18.7531 28.9391 -0.4574
455 2 20.0113 29.7648 1.59996 20.0113 29.7648 1.59996
456 2 21.1322 28.3943 -1.11151 21.1322 28.3943 -1.11151
457 1 21.0681 27.5167 1.26633 21.0681 27.5167 1.26633
458 2 22.5477 28.0396 3.27838 22.5477 28.0396 3.27838
459 2 23.3772 27.111 0.294735 23.3772 27.111 0.294735
460 1 24.2424 29.188 1.62978 24.2424 29.188 1.62978
461 2 25.7992 29.6069 3.60984 25.7992 29.6069 3.60984
462 2 26.5188 28.8352 0.555356 26.5188 28.8352 0.555356
463 1 26.8145 27.4957 2.69048 26.8145 27.4957 2.69048
464 2 28.7033 27.4938 4.4143 28.7033 27.4938 4.4143
465 2 28.8865 27.4153 1.19327 28.8865 27.4153 1.19327
466 1 30.0479 29.0974 2.82004 30.0479 29.0974 2.82004
467 2 32.0149 28.9953 4.45039 32.0149 28.9953 4.45039
468 2 32.0516 29.1042 1.22549 32.0516 29.1042 1.22549
469 1 32.7457 27.2456 2.78818 32.7457 27.2456 2.78818
470 2 34.9647 26.8258 3.97705 34.9647 26.8258 3.97705
471 2 34.4405 27.6295 0.893069 34.4405 27.6295 0.893069
472 1 35.9731 28.8466 2.62512 35.9731 28.8466 2.62512
473 2 38.2366 28.3691 3.69775 38.2366 28.3691 3.69775
474 2 37.5873 29.3276 0.680907 37.5873 29.3276 0.680907
475 1 38.51 27.1461 1.51126 38.51 27.1461 1.51126
476 2 40.8806 26.55 2.19903 40.8806 26.55 2.19903
477 2 39.8438 27.9378 -0.536095 39.8438 27.9378 -0.536095
478 1 41.6708 28.8143 1.12312 41.6708 28.8143 1.12312
479 2 44.0512 28.2188 1.76156 44.0512 28.2188 1.76156
480 2 42.9573 29.6487 -0.930208 42.9573 29.6487 -0.930208
481 1 43.9645 27.3839 -0.616694 43.9645 27.3839 -0.616694
482 2 46.3279 26.8891 0.134351 46.3279 26.8891 0.134351
483 2 45.2797 28.1139 -2.67231 45.2797 28.1139 -2.67231
484 1 47.105 29.089 -1.05455 47.105 29.089 -1.05455
485 2 49.4499 28.6279 -0.217996 49.4499 28.6279 -0.217996
486 2 48.482 29.741 -3.09742 48.482 29.741 -3.09742
487 1 50.2577 30.7842 -1.46412 -1.03397 30.7842 -1.46412
488 2 52.577 30.3587 -0.531067 1.28541 30.3587 -0.531067
489 2 51.7086 31.3488 -3.48437 0.416949 31.3488 -3.48437
490 1 53.4256 32.4642 -1.83465 2.13393 32.4642 -1.83465
491 2 55.7144 32.0839 -0.801927 4.42272 32.0839 -0.801927
492 2 54.9518 32.9344 -3.82547 3.6602 32.9344 -3.82547
493 1 55.9756 30.7983 -2.97565 4.68399 30.7983 -2.97565
494 2 58.0745 30.6788 -1.52283 6.78282 30.6788 -1.52283
495 2 57.8291 30.8493 -4.73629 6.5375 30.8493 -4.73629
496 1 7.91257 32.4096 -3.1233 7.91257 32.4096 -3.1233
497 2 9.94888 32.373 -1.57461 9.94888 32.373 -1.57461
498 2 9.84199 32.3611 -4.7999 9.84199 32.3611 -4.7999
499 1 10.61 30.5619 -3.20874 10.61 30.5619 -3.20874
500 2 12.3476 30.8993 -1.34571 12.3476 30.8993 -1.34571
501 2 12.8012 30.1772 -4.46028 12.8012 30.1772 -4.46028
502 1 13.8401 32.1649 -3.07952 13.8401 32.1649 -3.07952
503 2 15.4996 32.5969 -1.16353 15.4996 32.5969 -1.16353
504 2 16.0786 31.7193 -4.21822 16.0786 31.7193 -4.21822
505 1 16.4058 30.4375 -2.07228 16.4058 30.4375 -2.07228
506 2 17.7757 31.1997 -0.0355467 17.7757 31.1997 -0.0355467
507 2 18.766 29.8483 -2.80522 18.766 29.8483 -2.80522
508 1 19.5754 32.1005 -1.71228 19.5754 32.1005 -1.71228
509 2 20.8924 32.9162 0.333303 20.8924 32.9162 0.333303
510 2 21.9483 31.5019 -2.38154 21.9483 31.5019 -2.38154
511 1 21.8844 30.6501 -0.0109057 21.8844 30.6501 -0.0109057
512 2 23.1737 31.4197 2.04609 23.1737 31.4197 2.04609
513 2 24.2539 30.1387 -0.72433 24.2539 30.1387 -0.72433
514 1 25.0189 32.3599 0.432138 25.0189 32.3599 0.432138
515 2 26.362 33.0569 2.48123 26.362 33.0569 2.48123
516 2 27.3728 31.8794 -0.358893 27.3728 31.8794 -0.358893
517 1 27.4298 30.8442 1.95996 27.4298 30.8442 1.95996
518 2 29.0714 31.1555 3.89291 29.0714 31.1555 3.89291
519 2 29.6641 30.5484 0.776192 29.6641 30.5484 0.776192
520 1 30.6313 32.483 2.24445 30.6313 32.483 2.24445
521 2 32.3567 32.6865 4.11912 32.3567 32.6865 4.11912
522 2 32.8173 32.2535 0.952686 32.8173 32.2535 0.952686
523 1 33.2859 30.692 2.89215 33.2859 30.692 2.89215
524 2 35.3259 30.4959 4.41978 35.3259 30.4959 4.41978
525 2 35.2165 30.7914 1.20805 35.2165 30.7914 1.20805
526 1 36.5252 32.2832 2.90618 36.5252 32.2832 2.90618
527 2 38.6311 32.001 4.32493 38.6311 32.001 4.32493
528 2 38.3798 32.4787 1.14258 38.3798 32.4787 1.14258
529 1 39.1896 30.4577 2.41014 39.1896 30.4577 2.41014
530 2 41.4894 29.9344 3.37235 41.4894 29.9344 3.37235
531 2 40.7264 31.0299 0.427848 40.7264 31.0299 0.427848
532 1 42.3932 32.0816 2.14738 42.3932 32.0816 2.14738
533 2 44.7221 31.523 3.00704 44.7221 31.523 3.00704
534 2 43.8574 32.7393 0.137051 43.8574 32.7393 0.137051
535 1 44.8169 30.499 0.708548 44.8169 30.499 0.708548
536 2 47.2002 29.9174 1.33153 47.2002 29.9174 1.33153
537 2 46.0763 31.3504 -1.3465 46.0763 31.3504 -1.3465
538 1 47.9527 32.1984 0.277036 47.9527 32.1984 0.277036
539 2 50.3323 31.639 0.919576 50.3323 31.639 0.919576
540 2 49.2104 33.0387 -1.77667 49.2104 33.0387 -1.77667