ITEM: TIMESTEP
2020000
ITEM: NUMBER OF ATOMS
810
ITEM: BOX BOUNDS xy xz yz pp pp pp
8.6298438867990135e-01 6.2131061767057240e+01 9.9764411557380726e+00
8.1394622342039402e-01 5.0202268776579182e+01 0.0000000000000000e+00
-1.0000000000000000e+01 1.0000000000000000e+01 0.0000000000000000e+00
ITEM: ATOMS id type x y z xu yu zu
1 1 44.386 1.17934 2.42448 -6.90564 1.17934 2.42448
2 2 46.1889 1.28098 4.2314 -5.1027 1.28098 4.2314
3 2 46.5167 1.02185 1.0294 -4.77495 1.02185 1.0294
4 1 47.5977 2.79182 2.61139 -3.69395 2.79182 2.61139
5 2 49.4794 2.79026 4.33953 -1.81227 2.79026 4.33953
6 2 49.6692 2.71464 1.11743 -1.62242 2.71464 1.11743
7 1 50.2949 0.953608 2.81896 -0.996786 0.953608 2.81896
8 2 11.1348 49.994 4.13983 1.15831 0.605667 4.13983
9 2 0.785763 1.23786 0.994414 0.785763 1.23786 0.994414
10 1 2.22523 2.54963 2.73054 2.22523 2.54963 2.73054
11 2 4.43133 2.1362 3.94058 4.43133 2.1362 3.94058
12 2 3.93113 2.92972 0.848805 3.93113 2.92972 0.848805
13 1 14.7997 50.1883 1.84004 4.82327 0.799959 1.84004
14 2 17.1431 49.6118 2.63471 7.16664 0.223434 2.63471
15 2 6.23578 1.5194 -0.181612 6.23578 1.5194 -0.181612
16 1 7.99224 2.45228 1.5156 7.99224 2.45228 1.5156
17 2 10.3535 1.86378 2.23655 10.3535 1.86378 2.23655
18 2 9.34589 3.23189 -0.519959 9.34589 3.23189 -0.519959
19 1 10.3367 0.974419 -0.118858 10.3367 0.974419 -0.118858
20 2 22.6822 49.8379 0.582931 12.7058 0.449607 0.582931
21 2 11.6208 1.76548 -2.17011 11.6208 1.76548 -2.17011
22 1 13.4625 2.68402 -0.547061 13.4625 2.68402 -0.547061
23 2 15.8199 2.19215 0.220002 15.8199 2.19215 0.220002
24 2 14.7866 3.41309 -2.59493 14.7866 3.41309 -2.59493
25 1 15.8591 1.19527 -2.11406 15.8591 1.19527 -2.11406
26 2 18.1115 0.873547 -0.979823 18.1115 0.873547 -0.979823
27 2 17.4583 1.56391 -4.06867 17.4583 1.56391 -4.06867
28 1 19.0424 2.84799 -2.41423 19.0424 2.84799 -2.41423
29 2 21.2521 2.5858 -1.17718 21.2521 2.5858 -1.17718
30 2 20.7216 3.11426 -4.31963 20.7216 3.11426 -4.31963
31 1 21.6825 1.08745 -3.17522 21.6825 1.08745 -3.17522
32 2 23.6548 1.13586 -1.54341 23.6548 1.13586 -1.54341
33 2 23.6769 0.951846 -4.76615 23.6769 0.951846 -4.76615
34 1 24.9092 2.68794 -3.22504 24.9092 2.68794 -3.22504
35 2 26.8094 2.82549 -1.51037 26.8094 2.82549 -1.51037
36 2 26.9721 2.46596 -4.71451 26.9721 2.46596 -4.71451
37 1 27.5933 0.856894 -2.87561 27.5933 0.856894 -2.87561
38 2 29.1836 1.36917 -0.922517 29.1836 1.36917 -0.922517
39 2 39.8415 49.7593 -3.92086 29.8651 0.370955 -3.92086
40 1 30.7954 2.47786 -2.65353 30.7954 2.47786 -2.65353
41 2 32.3133 3.07521 -0.666999 32.3133 3.07521 -0.666999
42 2 33.1001 1.94981 -3.59538 33.1001 1.94981 -3.59538
43 1 33.2679 0.856848 -1.33329 33.2679 0.856848 -1.33329
44 2 34.555 1.68945 0.715295 34.555 1.68945 0.715295
45 2 45.6205 49.6592 -1.98527 35.6441 0.270865 -1.98527
46 1 36.404 2.54501 -0.927114 36.404 2.54501 -0.927114
47 2 37.6688 3.38269 1.12574 37.6688 3.38269 1.12574
48 2 38.7822 1.97639 -1.5715 38.7822 1.97639 -1.5715
49 1 38.7103 1.12956 0.81012 38.7103 1.12956 0.81012
50 2 40.1216 1.73728 2.84214 40.1216 1.73728 2.84214
51 2 51.0166 50.0751 -0.0770891 41.0402 0.68677 -0.0770891
52 1 41.8596 2.81367 1.19934 41.8596 2.81367 1.19934
53 2 43.3408 3.32691 3.20992 43.3408 3.32691 3.20992
54 2 44.164 2.41422 0.218449 44.164 2.41422 0.218449
55 1 45.0214 4.48329 1.56102 -6.2702 4.48329 1.56102
56 2 46.5785 4.8963 3.53954 -4.71316 4.8963 3.53954
57 2 47.2935 4.13383 0.480532 -3.99815 4.13383 0.480532
58 1 48.1969 6.13734 1.88922 -3.09473 6.13734 1.88922
59 2 49.8311 6.44551 3.82602 -1.46057 6.44551 3.82602
60 2 50.4312 5.84794 0.707664 -0.860461 5.84794 0.707664
61 1 50.8167 4.39511 2.74886 -0.474921 4.39511 2.74886
62 2 1.48103 4.29594 4.38904 1.48103 4.29594 4.38904
63 2 1.53266 4.40369 1.16294 1.53266 4.40369 1.16294
64 1 2.74909 5.99257 2.836 2.74909 5.99257 2.836
65 2 4.77586 5.80285 4.37846 4.77586 5.80285 4.37846
66 2 4.68734 6.09107 1.1642 4.68734 6.09107 1.1642
67 1 5.44067 4.15313 2.59172 5.44067 4.15313 2.59172
68 2 7.69053 3.68503 3.69231 7.69053 3.68503 3.69231
69 2 7.07058 4.62589 0.662879 7.07058 4.62589 0.662879
70 1 8.6474 5.7668 2.40395 8.6474 5.7668 2.40395
71 2 10.9357 5.25433 3.39566 10.9357 5.25433 3.39566
72 2 10.2011 6.32799 0.435208 10.2011 6.32799 0.435208
73 1 11.1465 4.12098 1.15637 11.1465 4.12098 1.15637
74 2 13.5186 3.53114 1.82654 13.5186 3.53114 1.82654
75 2 12.4536 4.94395 -0.886414 12.4536 4.94395 -0.886414
76 1 14.288 5.80463 0.769672 14.288 5.80463 0.769672
77 2 16.6642 5.22365 1.41784 16.6642 5.22365 1.41784
78 2 15.5661 6.64857 -1.27577 15.5661 6.64857 -1.27577
79 1 16.5945 4.39023 -0.965567 16.5945 4.39023 -0.965567
80 2 18.9343 3.92927 -0.119581 18.9343 3.92927 -0.119581
81 2 17.9759 5.04512 -3.00229 17.9759 5.04512 -3.00229
82 1 19.738 6.08532 -1.36024 19.738 6.08532 -1.36024
83 2 22.0561 5.66078 -0.428154 22.0561 5.66078 -0.428154
84 2 21.1841 6.65642 -3.37966 21.1841 6.65642 -3.37966
85 1 22.238 4.48658 -2.67169 22.238 4.48658 -2.67169
86 2 24.3978 4.28854 -1.33113 24.3978 4.28854 -1.33113
87 2 23.999 4.65116 -4.51513 23.999 4.65116 -4.51513
88 1 25.4449 6.11126 -2.87902 25.4449 6.11126 -2.87902
89 2 27.5493 5.98537 -1.43887 27.5493 5.98537 -1.43887
90 2 27.2846 6.17571 -4.65095 27.2846 6.17571 -4.65095
91 1 28.1365 4.28589 -3.21789 28.1365 4.28589 -3.21789
92 2 29.9628 4.51507 -1.43072 29.9628 4.51507 -1.43072
93 2 30.2604 3.98532 -4.60208 30.2604 3.98532 -4.60208
94 1 31.3615 5.88438 -3.15666 31.3615 5.88438 -3.15666
95 2 33.113 6.20599 -1.30702 33.113 6.20599 -1.30702
96 2 33.5394 5.51348 -4.43298 33.5394 5.51348 -4.43298
97 1 33.9858 4.10975 -2.38745 33.9858 4.10975 -2.38745
98 2 35.4351 4.78434 -0.374965 35.4351 4.78434 -0.374965
99 2 36.3175 3.55006 -3.23313 36.3175 3.55006 -3.23313
100 1 37.1629 5.75434 -2.07951 37.1629 5.75434 -2.07951
101 2 38.5482 6.49691 -0.048127 38.5482 6.49691 -0.048127
102 2 39.5157 5.17317 -2.83966 39.5157 5.17317 -2.83966
103 1 39.5304 4.24468 -0.500316 39.5304 4.24468 -0.500316
104 2 40.7976 5.05493 1.55595 40.7976 5.05493 1.55595
105 2 41.905 3.70513 -1.17224 41.905 3.70513 -1.17224
106 1 42.6526 5.95126 -0.0609844 42.6526 5.95126 -0.0609844
107 2 43.949 6.70934 1.99418 43.949 6.70934 1.99418
108 2 45.0175 5.4426 -0.788006 45.0175 5.4426 -0.788006
109 1 45.7788 7.65596 0.375297 -5.51283 7.65596 0.375297
110 2 47.1224 8.34197 2.42581 -4.16924 8.34197 2.42581
111 2 48.1304 7.18222 -0.423544 -3.16122 7.18222 -0.423544
112 1 48.9131 9.35385 0.800601 -2.3785 9.35385 0.800601
113 2 50.3188 9.95731 2.83775 -0.972811 9.95731 2.83775
114 2 51.2458 8.9157 -0.0820811 -0.0458834 8.9157 -0.0820811
115 1 51.3847 7.77805 2.18316 0.0930865 7.77805 2.18316
116 2 53.1018 7.98151 4.06299 1.81015 7.98151 4.06299
117 2 2.28073 7.55228 0.896401 2.28073 7.55228 0.896401
118 1 3.29378 9.40476 2.43027 3.29378 9.40476 2.43027
119 2 5.0912 9.50563 4.24292 5.0912 9.50563 4.24292
120 2 5.42899 9.25076 1.04178 5.42899 9.25076 1.04178
121 1 5.97568 7.58765 2.86897 5.97568 7.58765 2.86897
122 2 8.06819 7.31662 4.30653 8.06819 7.31662 4.30653
123 2 7.84011 7.77778 1.11904 7.84011 7.77778 1.11904
124 1 9.20196 9.18342 2.84491 9.20196 9.18342 2.84491
125 2 11.3536 8.8385 4.17284 11.3536 8.8385 4.17284
126 2 10.9901 9.46783 1.026 10.9901 9.46783 1.026
127 1 11.8429 7.39316 2.16613 11.8429 7.39316 2.16613
128 2 14.1612 6.84573 3.05822 14.1612 6.84573 3.05822
129 2 13.3258 8.03638 0.168296 13.3258 8.03638 0.168296
130 1 15.0261 9.03306 1.88548 15.0261 9.03306 1.88548
131 2 17.3675 8.4607 2.69029 17.3675 8.4607 2.69029
132 2 16.4453 9.74874 -0.132364 16.4453 9.74874 -0.132364
133 1 17.4205 7.50044 0.364307 17.4205 7.50044 0.364307
134 2 19.7972 6.9439 1.02058 19.7972 6.9439 1.02058
135 2 18.6868 8.33487 -1.6856 18.6868 8.33487 -1.6856
136 1 20.5457 9.20797 -0.0591113 20.5457 9.20797 -0.0591113
137 2 22.915 8.67881 0.638988 22.915 8.67881 0.638988
138 2 21.8292 10.0059 -2.10843 21.8292 10.0059 -2.10843
139 1 22.8942 7.76762 -1.72761 22.8942 7.76762 -1.72761
140 2 25.1831 7.38519 -0.699888 25.1831 7.38519 -0.699888
141 2 24.4133 8.24589 -3.71983 24.4133 8.24589 -3.71983
142 1 26.0641 9.43411 -2.06055 26.0641 9.43411 -2.06055
143 2 28.3191 9.10407 -0.935116 28.3191 9.10407 -0.935116
144 2 27.6571 9.81356 -4.01793 27.6571 9.81356 -4.01793
145 1 28.6604 7.72473 -3.03605 28.6604 7.72473 -3.03605
146 2 30.7056 7.67871 -1.50286 30.7056 7.67871 -1.50286
147 2 30.5744 7.69105 -4.72835 30.5744 7.69105 -4.72835
148 1 31.8821 9.32978 -3.14532 31.8821 9.32978 -3.14532
149 2 33.8621 9.36848 -1.52364 33.8621 9.36848 -1.52364
150 2 33.868 9.20215 -4.7474 33.868 9.20215 -4.7474
151 1 34.5817 7.48627 -3.04368 34.5817 7.48627 -3.04368
152 2 36.2564 7.90004 -1.13999 36.2564 7.90004 -1.13999
153 2 36.8077 7.05394 -4.20933 36.8077 7.05394 -4.20933
154 1 37.7944 9.09454 -2.87864 37.7944 9.09454 -2.87864
155 2 39.3914 9.59755 -0.928971 39.3914 9.59755 -0.928971
156 2 40.0625 8.61097 -3.93328 40.0625 8.61097 -3.93328
157 1 40.3255 7.41249 -1.7329 40.3255 7.41249 -1.7329
158 2 41.6536 8.20919 0.311358 41.6536 8.20919 0.311358
159 2 42.6938 6.82216 -2.42396 42.6938 6.82216 -2.42396
160 1 43.4732 9.08511 -1.35028 43.4732 9.08511 -1.35028
161 2 44.7583 9.9129 0.701827 44.7583 9.9129 0.701827
162 2 45.8503 8.50065 -2.00089 45.8503 8.50065 -2.00089
163 1 46.6079 10.7721 -0.936852 -4.68375 10.7721 -0.936852
164 2 47.867 11.6034 1.12225 -3.42459 11.6034 1.12225
165 2 48.9888 10.209 -1.57766 -2.30285 10.209 -1.57766
166 1 49.7317 12.4734 -0.496027 -1.55993 12.4734 -0.496027
167 2 50.9972 13.2797 1.56328 -0.294435 13.2797 1.56328
168 2 52.1075 11.936 -1.16667 0.815884 11.936 -1.16667
169 1 52.0604 11.0397 1.20251 0.768761 11.0397 1.20251
170 2 53.5374 11.5506 3.21706 2.2458 11.5506 3.21706
171 2 3.07594 10.6434 0.225929 3.07594 10.6434 0.225929
172 1 3.9303 12.7113 1.57384 3.9303 12.7113 1.57384
173 2 5.48282 13.1245 3.55623 5.48282 13.1245 3.55623
174 2 6.20568 12.3645 0.498639 6.20568 12.3645 0.498639
175 1 6.50486 11.0205 2.62921 6.50486 11.0205 2.62921
176 2 8.38184 11.0208 4.36282 8.38184 11.0208 4.36282
177 2 8.58111 10.945 1.14155 8.58111 10.945 1.14155
178 1 9.7243 12.6273 2.77597 9.7243 12.6273 2.77597
179 2 11.6768 12.5306 4.4209 11.6768 12.5306 4.4209
180 2 11.7363 12.6363 1.19504 11.7363 12.6363 1.19504
181 1 12.4248 10.7828 2.76533 12.4248 10.7828 2.76533
182 2 14.6276 10.3725 3.9829 14.6276 10.3725 3.9829
183 2 14.1368 11.1616 0.888565 14.1368 11.1616 0.888565
184 1 15.6417 12.3883 2.63439 15.6417 12.3883 2.63439
185 2 17.8881 11.9211 3.74301 17.8881 11.9211 3.74301
186 2 17.2786 12.8608 0.711136 17.2786 12.8608 0.711136
187 1 18.1968 10.6871 1.5681 18.1968 10.6871 1.5681
188 2 20.5556 10.0967 2.29645 20.5556 10.0967 2.29645
189 2 19.5583 11.4671 -0.462541 19.5583 11.4671 -0.462541
190 1 21.3548 12.3546 1.21989 21.3548 12.3546 1.21989
191 2 23.7254 11.76 1.89277 23.7254 11.76 1.89277
192 2 22.6677 13.1805 -0.818766 22.6677 13.1805 -0.818766
193 1 23.6721 10.9178 -0.482515 23.6721 10.9178 -0.482515
194 2 26.0294 10.4184 0.278935 26.0294 10.4184 0.278935
195 2 24.9945 11.6562 -2.52812 24.9945 11.6562 -2.52812
196 1 26.805 12.6224 -0.895456 26.805 12.6224 -0.895456
197 2 29.1474 12.1564 -0.0600879 29.1474 12.1564 -0.0600879
198 2 28.1788 13.2866 -2.93396 28.1788 13.2866 -2.93396
199 1 29.2463 11.0863 -2.36053 29.2463 11.0863 -2.36053
200 2 31.4612 10.8158 -1.13578 31.4612 10.8158 -1.13578
201 2 30.9157 11.3634 -4.2726 30.9157 11.3634 -4.2726
202 1 32.4402 12.7245 -2.62398 32.4402 12.7245 -2.62398
203 2 34.6078 12.5199 -1.29792 34.6078 12.5199 -1.29792
204 2 34.1892 12.8976 -4.47777 34.1892 12.8976 -4.47777
205 1 35.1079 10.9286 -3.20307 35.1079 10.9286 -3.20307
206 2 37.0174 11.0564 -1.49886 37.0174 11.0564 -1.49886
207 2 37.162 10.7131 -4.70553 37.162 10.7131 -4.70553
208 1 38.3353 12.5241 -3.20616 38.3353 12.5241 -3.20616
209 2 40.1692 12.744 -1.42573 40.1692 12.744 -1.42573
210 2 40.4534 12.2279 -4.60042 40.4534 12.2279 -4.60042
211 1 40.9971 10.712 -2.66067 40.9971 10.712 -2.66067
212 2 42.5181 11.3 -0.67352 42.5181 11.3 -0.67352
213 2 43.3008 10.1874 -3.60772 43.3008 10.1874 -3.60772
214 1 44.1877 12.3413 -2.39157 44.1877 12.3413 -2.39157
215 2 45.637 13.0083 -0.376292 45.637 13.0083 -0.376292
216 2 46.5198 11.7853 -3.23917 46.5198 11.7853 -3.23917
217 1 47.3649 13.9843 -2.07662 -3.92676 13.9843 -2.07662
218 2 48.7476 14.7241 -0.0416556 -2.54408 14.7241 -0.0416556
219 2 49.7193 13.4048 -2.8338 -1.57232 13.4048 -2.8338
220 1 50.5277 15.6418 -1.72198 -0.763974 15.6418 -1.72198
221 2 51.8524 16.4361 0.325544 0.560759 16.4361 0.325544
222 2 52.8979 15.0549 -2.41066 1.60629 15.0549 -2.41066
223 1 52.8543 14.1799 -0.0494286 1.5627 14.1799 -0.0494286
224 2 54.1476 14.936 2.00895 2.85592 14.936 2.00895
225 2 3.93001 13.6745 -0.773327 3.93001 13.6745 -0.773327
226 1 4.68895 15.8871 0.394881 4.68895 15.8871 0.394881
227 2 6.03144 16.5738 2.44648 6.03144 16.5738 2.44648
228 2 7.0421 15.4141 -0.401755 7.0421 15.4141 -0.401755
229 1 7.10587 14.3686 1.91076 7.10587 14.3686 1.91076
230 2 8.7371 14.6789 3.85019 8.7371 14.6789 3.85019
231 2 9.34277 14.0797 0.733428 9.34277 14.0797 0.733428
232 1 10.2948 16.0118 2.20953 10.2948 16.0118 2.20953
233 2 12.0084 16.2182 4.09271 12.0084 16.2182 4.09271
234 2 12.4855 15.7858 0.927745 12.4855 15.7858 0.927745
235 1 12.9494 14.2275 2.86995 12.9494 14.2275 2.86995
236 2 14.9726 14.0397 4.41798 14.9726 14.0397 4.41798
237 2 14.8926 14.3255 1.20337 14.8926 14.3255 1.20337
238 1 16.1777 15.8238 2.91039 16.1777 15.8238 2.91039
239 2 18.2661 15.5551 4.35535 18.2661 15.5551 4.35535
240 2 18.0486 16.0121 1.16667 18.0486 16.0121 1.16667
241 1 18.8511 14.0024 2.45692 18.8511 14.0024 2.45692
242 2 21.1359 13.4896 3.45784 21.1359 13.4896 3.45784
243 2 20.4133 14.5627 0.494489 20.4133 14.5627 0.494489
244 1 22.0507 15.628 2.23085 22.0507 15.628 2.23085
245 2 24.3666 15.0797 3.13056 24.3666 15.0797 3.13056
246 2 23.5416 16.2693 0.23768 23.5416 16.2693 0.23768
247 1 24.5002 14.0362 0.842936 24.5002 14.0362 0.842936
248 2 26.8772 13.4527 1.48876 26.8772 13.4527 1.48876
249 2 25.7786 14.882 -1.20223 25.7786 14.882 -1.20223
250 1 27.6342 15.7315 0.438638 27.6342 15.7315 0.438638
251 2 30.0124 15.1716 1.08837 30.0124 15.1716 1.08837
252 2 28.8974 16.5689 -1.61263 28.8974 16.5689 -1.61263
253 1 29.9473 14.3179 -1.29357 29.9473 14.3179 -1.29357
254 2 32.2695 13.889 -0.374574 32.2695 13.889 -0.374574
255 2 31.383 14.8969 -3.31787 31.383 14.8969 -3.31787
256 1 33.1014 16.0002 -1.67038 33.1014 16.0002 -1.67038
257 2 35.3979 15.6174 -0.659926 35.3979 15.6174 -0.659926
258 2 34.6055 16.4837 -3.67259 34.6055 16.4837 -3.67259
259 1 35.6453 14.3487 -2.84394 35.6453 14.3487 -2.84394
260 2 37.759 14.218 -1.418 37.759 14.218 -1.418
261 2 37.4735 14.418 -4.62766 37.4735 14.418 -4.62766
262 1 38.8601 15.9608 -3.01707 38.8601 15.9608 -3.01707
263 2 40.9119 15.9108 -1.49219 40.9119 15.9108 -1.49219
264 2 40.7679 15.9281 -4.717 40.7679 15.9281 -4.717
265 1 41.5613 14.1192 -3.15121 41.5613 14.1192 -3.15121
266 2 43.3171 14.4348 -1.30413 43.3171 14.4348 -1.30413
267 2 43.7367 13.7499 -4.43263 43.7367 13.7499 -4.43263
268 1 44.7831 15.7176 -3.04015 44.7831 15.7176 -3.04015
269 2 46.4587 16.1292 -1.13588 46.4587 16.1292 -1.13588
270 2 47.0095 15.2845 -4.20569 47.0095 15.2845 -4.20569
271 1 47.9979 17.3228 -2.87351 -3.29373 17.3228 -2.87351
272 2 49.5935 17.828 -0.922117 -1.69812 17.828 -0.922117
273 2 50.2677 16.8368 -3.92424 -1.02398 16.8368 -3.92424
274 1 51.2028 18.9384 -2.65306 -0.0888769 18.9384 -2.65306
275 2 52.7215 19.5339 -0.66527 1.42987 19.5339 -0.66527
276 2 53.5081 18.4081 -3.59344 2.21644 18.4081 -3.59344
277 1 53.6754 17.3157 -1.33132 2.38372 17.3157 -1.33132
278 2 54.9602 18.1446 0.720621 3.66853 18.1446 0.720621
279 2 4.76121 16.7315 -1.98127 4.76121 16.7315 -1.98127
280 1 5.52038 19.0029 -0.917317 5.52038 19.0029 -0.917317
281 2 6.78391 19.8406 1.13695 6.78391 19.8406 1.13695
282 2 7.8998 18.4331 -1.55847 7.8998 18.4331 -1.55847
283 1 7.82484 17.5868 0.82292 7.82484 17.5868 0.82292
284 2 9.2306 18.1935 2.85975 9.2306 18.1935 2.85975
285 2 10.1583 17.1462 -0.0576019 10.1583 17.1462 -0.0576019
286 1 10.9745 19.273 1.22341 10.9745 19.273 1.22341
287 2 12.4483 19.79 3.23934 12.4483 19.79 3.23934
288 2 13.2842 18.873 0.253091 13.2842 18.873 0.253091
289 1 13.4967 17.6406 2.46167 13.4967 17.6406 2.46167
290 2 15.2911 17.7456 4.27793 15.2911 17.7456 4.27793
291 2 15.6357 17.4831 1.07837 15.6357 17.4831 1.07837
292 1 16.7096 19.257 2.66394 16.7096 19.257 2.66394
293 2 18.5814 19.2631 4.40391 18.5814 19.2631 4.40391
294 2 18.7915 19.1766 1.18378 18.7915 19.1766 1.18378
295 1 19.4064 17.4203 2.89505 19.4064 17.4203 2.89505
296 2 21.5533 17.0778 4.23266 21.5533 17.0778 4.23266
297 2 21.2033 17.7015 1.08355 21.2033 17.7015 1.08355
298 1 22.6329 19.0199 2.8259 22.6329 19.0199 2.8259
299 2 24.833 18.6126 4.05164 24.833 18.6126 4.05164
300 2 24.3525 19.3937 0.954331 24.3525 19.3937 0.954331
301 1 25.2385 17.2666 1.95905 25.2385 17.2666 1.95905
302 2 27.5805 16.6931 2.76437 27.5805 16.6931 2.76437
303 2 26.6604 17.9806 -0.0587371 26.6604 17.9806 -0.0587371
304 1 28.4126 18.9196 1.64172 28.4126 18.9196 1.64172
305 2 30.7743 18.3309 2.36559 30.7743 18.3309 2.36559
306 2 29.7712 19.6959 -0.393544 29.7712 19.6959 -0.393544
307 1 30.7603 17.4378 0.0115715 30.7603 17.4378 0.0115715
308 2 33.1341 16.9092 0.696451 33.1341 16.9092 0.696451
309 2 32.033 18.2375 -2.04426 32.033 18.2375 -2.04426
310 1 33.8843 19.1489 -0.428139 33.8843 19.1489 -0.428139
311 2 36.2481 18.6529 0.316022 36.2481 18.6529 0.316022
312 2 35.1912 19.8882 -2.48388 35.1912 19.8882 -2.48388
313 1 36.268 17.6684 -2.02345 36.268 17.6684 -2.02345
314 2 38.5306 17.3384 -0.913019 38.5306 17.3384 -0.913019
315 2 37.8487 18.0493 -3.99103 37.8487 18.0493 -3.99103
316 1 39.4489 19.3202 -2.34376 39.4489 19.3202 -2.34376
317 2 41.6701 19.052 -1.12852 41.6701 19.052 -1.12852
318 2 41.1108 19.5931 -4.26384 41.1108 19.5931 -4.26384
319 1 42.0831 17.5625 -3.13686 42.0831 17.5625 -3.13686
320 2 44.0677 17.6011 -1.52007 44.0677 17.6011 -1.52007
321 2 44.0655 17.4318 -4.74355 44.0655 17.4318 -4.74355
322 1 45.3113 19.1575 -3.20383 45.3113 19.1575 -3.20383
323 2 47.2223 19.289 -1.50007 47.2223 19.289 -1.50007
324 2 47.3659 18.9353 -4.70556 47.3659 18.9353 -4.70556
325 1 48.5422 20.7492 -3.2121 -2.74946 20.7492 -3.2121
326 2 50.3751 20.9773 -1.43021 -0.91649 20.9773 -1.43021
327 2 50.6628 20.4438 -4.60165 -0.628807 20.4438 -4.60165
328 1 51.7721 22.3414 -3.16103 0.480441 22.3414 -3.16103
329 2 53.525 22.6667 -1.31162 2.23337 22.6667 -1.31162
330 2 53.951 21.963 -4.43501 2.6594 21.963 -4.43501
331 1 54.3959 20.5663 -2.38464 3.10429 20.5663 -2.38464
332 2 4.55156 21.2433 -0.370534 4.55156 21.2433 -0.370534
333 2 5.43776 20.0035 -3.22504 5.43776 20.0035 -3.22504
334 1 6.2845 22.2083 -2.07322 6.2845 22.2083 -2.07322
335 2 7.66737 22.9553 -0.0412179 7.66737 22.9553 -0.0412179
336 2 8.63929 21.6243 -2.82757 8.63929 21.6243 -2.82757
337 1 8.64964 20.7013 -0.486147 8.64964 20.7013 -0.486147
338 2 9.91219 21.5156 1.57231 9.91219 21.5156 1.57231
339 2 11.0274 20.1601 -1.1495 11.0274 20.1601 -1.1495
340 1 11.7743 22.409 -0.0401774 11.7743 22.409 -0.0401774
341 2 13.0636 23.1732 2.01836 13.0636 23.1732 2.01836
342 2 14.1439 21.8992 -0.755479 14.1439 21.8992 -0.755479
343 1 14.1377 20.9455 1.59595 14.1377 20.9455 1.59595
344 2 15.6864 21.3651 3.58069 15.6864 21.3651 3.58069
345 2 16.4164 20.5937 0.52792 16.4164 20.5937 0.52792
346 1 17.315 22.6031 1.93485 17.315 22.6031 1.93485
347 2 18.9416 22.9222 3.87767 18.9416 22.9222 3.87767
348 2 19.5562 22.3077 0.765942 19.5562 22.3077 0.765942
349 1 19.931 20.8646 2.81656 19.931 20.8646 2.81656
350 2 21.8777 20.7758 4.47017 21.8777 20.7758 4.47017
351 2 21.9502 20.8673 1.24455 21.9502 20.8673 1.24455
352 1 23.1589 22.4663 2.91705 23.1589 22.4663 2.91705
353 2 25.1792 22.2888 4.47215 25.1792 22.2888 4.47215
354 2 25.108 22.5548 1.25632 25.108 22.5548 1.25632
355 1 25.8542 20.6255 2.70084 25.8542 20.6255 2.70084
356 2 28.1021 20.1632 3.81176 28.1021 20.1632 3.81176
357 2 27.4938 21.0903 0.776531 27.4938 21.0903 0.776531
358 1 29.0671 22.24 2.51735 29.0671 22.24 2.51735
359 2 31.3552 21.7326 3.51632 31.3552 21.7326 3.51632
360 2 30.6276 22.7919 0.549857 30.6276 22.7919 0.549857
361 1 31.572 20.5874 1.28286 31.572 20.5874 1.28286
362 2 33.9473 19.9953 1.94518 33.9473 19.9953 1.94518
363 2 32.8765 21.4098 -0.764077 32.8765 21.4098 -0.764077
364 1 34.7168 22.2697 0.886667 34.7168 22.2697 0.886667
365 2 37.0994 21.6888 1.51693 37.0994 21.6888 1.51693
366 2 35.9826 23.1137 -1.16864 35.9826 23.1137 -1.16864
367 1 37.0135 20.8561 -0.865783 37.0135 20.8561 -0.865783
368 2 39.3619 20.3935 -0.0444864 39.3619 20.3935 -0.0444864
369 2 38.3749 21.5179 -2.91425 38.3749 21.5179 -2.91425
370 1 40.154 22.5518 -1.28783 40.154 22.5518 -1.28783
371 2 42.4825 22.1292 -0.379779 42.4825 22.1292 -0.379779
372 2 41.5795 23.1237 -3.32235 41.5795 23.1237 -3.32235
373 1 42.6436 20.956 -2.62522 42.6436 20.956 -2.62522
374 2 44.8156 20.7559 -1.30402 44.8156 20.7559 -1.30402
375 2 44.3891 21.121 -4.48405 44.3891 21.121 -4.48405
376 1 45.8514 22.5768 -2.86015 45.8514 22.5768 -2.86015
377 2 47.9664 22.4528 -1.43361 47.9664 22.4528 -1.43361
378 2 47.681 22.6352 -4.64408 47.681 22.6352 -4.64408
379 1 49.0706 24.185 -3.04237 -2.22108 24.185 -3.04237
380 2 51.1222 24.1444 -1.51509 -0.16944 24.1444 -1.51509
381 2 50.9813 24.14 -4.73982 -0.31035 24.14 -4.73982
382 1 52.298 25.7836 -3.16945 1.00636 25.7836 -3.16945
383 2 54.2793 25.8313 -1.5466 2.98769 25.8313 -1.5466
384 2 54.2866 25.6411 -4.76876 2.99501 25.6411 -4.76876
385 1 54.9975 23.9378 -3.05177 3.70585 23.9378 -3.05177
386 2 5.37902 24.3597 -1.14671 5.37902 24.3597 -1.14671
387 2 5.93461 23.4965 -4.21046 5.93461 23.4965 -4.21046
388 1 6.92402 25.5418 -2.88831 6.92402 25.5418 -2.88831
389 2 8.51876 26.0578 -0.938584 8.51876 26.0578 -0.938584
390 2 9.19502 25.0472 -3.93361 9.19502 25.0472 -3.93361
391 1 9.45102 23.8652 -1.72384 9.45102 23.8652 -1.72384
392 2 10.7767 24.6702 0.319536 10.7767 24.6702 0.319536
393 2 11.8212 23.2697 -2.40689 11.8212 23.2697 -2.40689
394 1 12.6036 25.5369 -1.34101 12.6036 25.5369 -1.34101
395 2 13.8823 26.3779 0.710862 13.8823 26.3779 0.710862
396 2 14.9841 24.9461 -1.97695 14.9841 24.9461 -1.97695
397 1 14.9022 24.117 0.404732 14.9022 24.117 0.404732
398 2 16.2409 24.8123 2.45672 16.2409 24.8123 2.45672
399 2 17.258 23.6378 -0.382735 17.258 23.6378 -0.382735
400 1 18.0401 25.8166 0.833007 18.0401 25.8166 0.833007
401 2 19.4378 26.4307 2.87365 19.4378 26.4307 2.87365
402 2 20.3788 25.3742 -0.0356768 20.3788 25.3742 -0.0356768
403 1 20.5059 24.2472 2.23559 20.5059 24.2472 2.23559
404 2 22.213 24.4647 4.12423 22.213 24.4647 4.12423
405 2 22.7024 24.0142 0.964067 22.7024 24.0142 0.964067
406 1 23.7095 25.8782 2.49148 23.7095 25.8782 2.49148
407 2 25.4995 25.9928 4.31253 25.4995 25.9928 4.31253
408 2 25.8535 25.7155 1.11563 25.8535 25.7155 1.11563
409 1 26.3907 24.0641 2.95724 26.3907 24.0641 2.95724
410 2 28.4787 23.804 4.40621 28.4787 23.804 4.40621
411 2 28.2651 24.2433 1.21539 28.2651 24.2433 1.21539
412 1 29.6231 25.6611 2.93693 29.6231 25.6611 2.93693
413 2 31.7733 25.3256 4.27301 31.7733 25.3256 4.27301
414 2 31.4188 25.9336 1.12184 31.4188 25.9336 1.12184
415 1 32.269 23.8657 2.27781 32.269 23.8657 2.27781
416 2 34.5898 23.322 3.17077 34.5898 23.322 3.17077
417 2 33.7539 24.4996 0.276545 33.7539 24.4996 0.276545
418 1 35.4582 25.5037 1.98655 35.4582 25.5037 1.98655
419 2 37.8057 24.9337 2.78086 37.8057 24.9337 2.78086
420 2 36.8708 26.212 -0.041291 36.8708 26.212 -0.041291
421 1 37.8491 23.9657 0.457797 37.8491 23.9657 0.457797
422 2 40.2333 23.4109 1.09164 40.2333 23.4109 1.09164
423 2 39.0975 24.7993 -1.60513 39.0975 24.7993 -1.60513
424 1 40.9721 25.6732 0.00197914 40.9721 25.6732 0.00197914
425 2 43.3506 25.1489 0.674834 43.3506 25.1489 0.674834
426 2 42.2337 26.4683 -2.06348 42.2337 26.4683 -2.06348
427 1 43.3074 24.2339 -1.6896 43.3074 24.2339 -1.6896
428 2 45.6073 23.8558 -0.682418 45.6073 23.8558 -0.682418
429 2 44.8093 24.707 -3.69748 44.8093 24.707 -3.69748
430 1 46.477 25.8984 -2.05849 46.477 25.8984 -2.05849
431 2 48.7418 25.5761 -0.947647 48.7418 25.5761 -0.947647
432 2 48.0581 26.2665 -4.02953 48.0581 26.2665 -4.02953
433 1 49.6613 27.5474 -2.3922 -1.63036 27.5474 -2.3922
434 2 51.8819 27.2855 -1.17173 0.590227 27.2855 -1.17173
435 2 51.3285 27.8076 -4.31088 0.0368466 27.8076 -4.31088
436 1 52.8607 29.1794 -2.67832 1.56911 29.1794 -2.67832
437 2 55.0291 28.9847 -1.34786 3.73742 28.9847 -1.34786
438 2 54.6149 29.333 -4.53119 3.32331 29.333 -4.53119
439 1 55.5306 27.3758 -3.2366 4.23896 27.3758 -3.2366
440 2 6.14628 27.5164 -1.52833 6.14628 27.5164 -1.52833
441 2 6.29846 27.1442 -4.73128 6.29846 27.1442 -4.73128
442 1 7.4733 28.966 -3.24511 7.4733 28.966 -3.24511
443 2 9.3032 29.2003 -1.46048 9.3032 29.2003 -1.46048
444 2 9.59754 28.6555 -4.62918 9.59754 28.6555 -4.62918
445 1 10.1329 27.1562 -2.67419 10.1329 27.1562 -2.67419
446 2 11.6488 27.759 -0.686267 11.6488 27.759 -0.686267
447 2 12.441 26.6214 -3.60795 12.441 26.6214 -3.60795
448 1 13.3289 28.7849 -2.40568 13.3289 28.7849 -2.40568
449 2 14.7694 29.4668 -0.387731 14.7694 29.4668 -0.387731
450 2 15.6668 28.2214 -3.23588 15.6668 28.2214 -3.23588
451 1 15.7419 27.2251 -0.925172 15.7419 27.2251 -0.925172
452 2 16.9934 28.0696 1.1343 16.9934 28.0696 1.1343
453 2 18.127 26.657 -1.55056 18.127 26.657 -1.55056
454 1 18.8682 28.9295 -0.480376 18.8682 28.9295 -0.480376
455 2 20.1242 29.7498 1.58037 20.1242 29.7498 1.58037
456 2 21.2492 28.3878 -1.13368 21.2492 28.3878 -1.13368
457 1 21.1893 27.5064 1.24133 21.1893 27.5064 1.24133
458 2 22.659 28.0302 3.25952 22.659 28.0302 3.25952
459 2 23.5028 27.104 0.278753 23.5028 27.104 0.278753
460 1 24.3536 29.1815 1.61729 24.3536 29.1815 1.61729
461 2 25.8996 29.6085 3.60346 25.8996 29.6085 3.60346
462 2 26.6352 28.8272 0.554983 26.6352 28.8272 0.554983
463 1 26.9248 27.4971 2.69592 26.9248 27.4971 2.69592
464 2 28.7971 27.5112 4.43694 28.7971 27.5112 4.43694
465 2 29.0088 27.4107 1.2178 29.0088 27.4107 1.2178
466 1 30.1497 29.1056 2.84355 30.1497 29.1056 2.84355
467 2 32.1014 29.0234 4.49314 32.1014 29.0234 4.49314
468 2 32.1667 29.1009 1.26736 32.1667 29.1009 1.26736
469 1 32.8529 27.2602 2.8549 32.8529 27.2602 2.8549
470 2 35.0587 26.8588 4.07448 35.0587 26.8588 4.07448
471 2 34.5671 27.6259 0.97575 34.5671 27.6259 0.97575
472 1 36.0765 28.8643 2.71067 36.0765 28.8643 2.71067
473 2 38.3305 28.4065 3.81269 38.3305 28.4065 3.81269
474 2 37.7079 29.3223 0.777094 37.7079 29.3223 0.777094
475 1 38.6325 27.1558 1.64577 38.6325 27.1558 1.64577
476 2 41.0007 26.5705 2.35381 41.0007 26.5705 2.35381
477 2 39.9776 27.9282 -0.401466 39.9776 27.9282 -0.401466
478 1 41.79 28.8232 1.25927 41.79 28.8232 1.25927
479 2 44.1696 28.2338 1.90932 44.1696 28.2338 1.90932
480 2 43.0833 29.6422 -0.796965 43.0833 29.6422 -0.796965
481 1 44.095 27.3837 -0.462005 44.095 27.3837 -0.462005
482 2 46.4621 26.8924 0.276961 46.4621 26.8924 0.276961
483 2 45.3967 28.1148 -2.52511 45.3967 28.1148 -2.52511
484 1 47.225 29.0889 -0.918144 47.225 29.0889 -0.918144
485 2 49.576 28.6325 -0.0984203 49.576 28.6325 -0.0984203
486 2 48.5841 29.7409 -2.97226 48.5841 29.7409 -2.97226
487 1 50.3667 30.7833 -1.35471 -0.924911 30.7833 -1.35471
488 2 52.6934 30.3619 -0.43878 1.40175 30.3619 -0.43878
489 2 51.8003 31.345 -3.38772 0.508694 31.345 -3.38772
490 1 53.5252 32.4599 -1.75491 2.23353 32.4599 -1.75491
491 2 55.8228 32.0852 -0.738988 4.53115 32.0852 -0.738988
492 2 55.0344 32.9232 -3.76006 3.7428 32.9232 -3.76006
493 1 56.0733 30.7964 -2.90982 4.78164 30.7964 -2.90982
494 2 6.89282 30.6772 -1.47573 6.89282 30.6772 -1.47573
495 2 6.61796 30.8467 -4.68773 6.61796 30.8467 -4.68773
496 1 8.00359 32.4027 -3.08791 8.00359 32.4027 -3.08791
497 2 10.0511 32.3669 -1.55447 10.0511 32.3669 -1.55447
498 2 9.91979 32.3526 -4.77946 9.91979 32.3526 -4.77946
499 1 10.7058 30.5583 -3.19294 10.7058 30.5583 -3.19294
500 2 12.4548 30.8887 -1.34048 12.4548 30.8887 -1.34048
501 2 12.8885 30.1773 -4.46072 12.8885 30.1773 -4.46072
502 1 13.9325 32.1567 -3.07989 13.9325 32.1567 -3.07989
503 2 15.5978 32.5836 -1.1686 15.5978 32.5836 -1.1686
504 2 16.1674 31.7141 -4.22766 16.1674 31.7141 -4.22766
505 1 16.5091 30.43 -2.08582 16.5091 30.43 -2.08582
506 2 17.881 31.1841 -0.0480712 17.881 31.1841 -0.0480712
507 2 18.8693 29.8457 -2.82484 18.8693 29.8457 -2.82484
508 1 19.6731 32.0915 -1.72391 19.6731 32.0915 -1.72391
509 2 20.9885 32.9005 0.324476 20.9885 32.9005 0.324476
510 2 22.0478 31.4989 -2.39543 22.0478 31.4989 -2.39543
511 1 21.9921 30.6404 -0.0278567 21.9921 30.6404 -0.0278567
512 2 23.2774 31.41 2.0317 23.2774 31.41 2.0317
513 2 24.3643 30.1299 -0.736262 24.3643 30.1299 -0.736262
514 1 25.12 32.3512 0.420282 25.12 32.3512 0.420282
515 2 26.4573 33.0523 2.47165 26.4573 33.0523 2.47165
516 2 27.4772 31.8709 -0.363492 27.4772 31.8709 -0.363492
517 1 27.5325 30.8418 1.95685 27.5325 30.8418 1.95685
518 2 29.1611 31.1673 3.89792 29.1611 31.1673 3.89792
519 2 29.774 30.5422 0.788391 29.774 30.5422 0.788391
520 1 30.7262 32.4863 2.25093 30.7262 32.4863 2.25093
521 2 32.4388 32.7075 4.13491 32.4388 32.7075 4.13491
522 2 32.9202 32.2495 0.974815 32.9202 32.2495 0.974815
523 1 33.3811 30.7061 2.93012 33.3811 30.7061 2.93012
524 2 35.4069 30.5324 4.47919 35.4069 30.5324 4.47919
525 2 35.3257 30.7893 1.26301 35.3257 30.7893 1.26301
526 1 36.6154 32.3018 2.95528 36.6154 32.3018 2.95528
527 2 38.7115 32.044 4.39388 38.7115 32.044 4.39388
528 2 38.4815 32.4763 1.2033 38.4815 32.4763 1.2033
529 1 39.2905 30.4767 2.50552 39.2905 30.4767 2.50552
530 2 41.5848 29.9707 3.49193 41.5848 29.9707 3.49193
531 2 40.8406 31.0254 0.527863 40.8406 31.0254 0.527863
532 1 42.492 32.1 2.24412 42.492 32.1 2.24412
533 2 44.818 31.5571 3.12423 44.818 31.5571 3.12423
534 2 43.966 32.7318 0.233337 43.966 32.7318 0.233337
535 1 44.9332 30.5041 0.840525 44.9332 30.5041 0.840525
536 2 47.3193 29.9278 1.46194 47.3193 29.9278 1.46194
537 2 46.189 31.3432 -1.22305 46.189 31.3432 -1.22305
538 1 48.0629 32.2 0.391455 48.0629 32.2 0.391455
539 2 50.4474 31.6461 1.02355 50.4474 31.6461 1.02355