LAMMPS (29 Aug 2024 - Update 2)
#!/bin/bash
units           metal
atom_style      atomic
boundary        p p p

# ---- System setup ----
read_data	MoSe2_nve.data
Reading data file ...
  orthogonal box = (0.84137701 0.80961581 -10) to (52.176228 50.206599 10)
  1 by 1 by 1 MPI processor grid
  reading atoms ...
  810 atoms
  reading velocities ...
  810 velocities
  read_data CPU = 0.005 seconds

# ---- Potential ----
pair_style      tersoff
pair_coeff      * * Potential.tersoff Mo Se

# ---- Settings ----
neighbor        2 bin
neigh_modify    every 10 delay 0 check yes

velocity        all create 300.0 12345 mom yes rot yes dist gaussian loop all
fix		1 all npt temp 300.0 300.0 0.1 x 0.0 0.0 1.0 y 0.0 0.0 1.0 couple none

timestep        0.001

thermo          10
thermo_style    custom step pe ke etotal temp lx ly lz pxx pyy

shell		mkdir coord
dump            1 all custom 100 coord/dump.*.lammpstrj id type x y z xu yu zu
dump_modify     1 sort id flush yes pad 9


# ---- Dynamics ----
run             100000
Neighbor list info ...
  update: every = 10 steps, delay = 0 steps, check = yes
  max neighbors/atom: 2000, page size: 100000
  master list distance cutoff = 6.68
  ghost atom cutoff = 6.68
  binsize = 3.34, bins = 16 15 6
  1 neighbor lists, perpetual/occasional/extra = 1 0 0
  (1) pair tersoff, perpetual
      attributes: full, newton on
      pair build: full/bin/atomonly
      stencil: full/bin/3d
      bin: standard
Per MPI rank memory allocation (min/avg/max) = 3.084 | 3.084 | 3.084 Mbytes
   Step         PotEng         KinEng         TotEng          Temp            Lx             Ly             Lz            Pxx            Pyy      
         0  -4100.4094      31.371437     -4069.038       300            51.334851      49.396983      20             1090.8296      588.92838    
        10  -4100.5897      31.547495     -4069.0422      301.68361      51.339117      49.399177      20             1075.3726      554.91774    
        20  -4100.8757      31.819608     -4069.0561      304.28578      51.351615      49.405457      20             880.67327      423.55765    
        30  -4101.1421      32.061762     -4069.0803      306.60147      51.37085       49.414882      20             516.02618      250.48766    
        40  -4101.0085      31.895166     -4069.1133      305.00834      51.394044      49.426193      20             45.254101      79.56688     
        50  -4100.3383      31.189806     -4069.1485      298.26309      51.417622      49.438114      20            -417.56975     -90.673885    
        60  -4099.6414      30.466617     -4069.1748      291.34735      51.438044      49.449352      20            -774.10651     -286.87966    
        70  -4099.6434      30.457984     -4069.1854      291.26479      51.452549      49.458435      20            -985.36912     -510.8871     
        80  -4100.3334      31.148541     -4069.1849      297.86848      51.459488      49.463719      20            -1037.4772     -700.25853    
        90  -4100.8745      31.687908     -4069.1866      303.02636      51.458456      49.463851      20            -920.55708     -748.98119    
       100  -4100.723       31.524107     -4069.1989      301.45996      51.450341      49.458498      20            -660.11398     -600.68401    
       110  -4100.2142      30.999127     -4069.215       296.43966      51.437131      49.448737      20            -316.87115     -303.88124    
       120  -4099.9557      30.734729     -4069.2209      293.91126      51.421456      49.43672       20             43.043684      33.473831    
       130  -4100.2672      31.057592     -4069.2096      296.99875      51.406076      49.424909      20             353.29796      309.28958    
       140  -4101.0386      31.850596     -4069.188       304.58212      51.393364      49.415329      20             554.87591      467.54197    
       150  -4101.7614      32.587389     -4069.174       311.62796      51.384868      49.40917       20             619.84591      515.84262    
       160  -4101.8718      32.684647     -4069.1871      312.55801      51.381102      49.406825      20             555.75749      499.92766    
       170  -4101.1556      31.921794     -4069.2338      305.26297      51.381598      49.408199      20             402.80509      450.11953    
       180  -4100.0714      30.77057      -4069.3008      294.254        51.385212      49.412919      20             215.80876      352.14453    
       190  -4099.5993      30.232126     -4069.3672      289.10495      51.390522      49.420239      20             31.542416      173.38344    
       200  -4100.1926      30.77005      -4069.4225      294.24903      51.396112      49.428835      20            -128.61695     -74.548294    
       210  -4101.1047      31.630116     -4069.4745      302.47371      51.400756      49.43691       20            -235.43545     -308.68385    
       220  -4101.3447      31.806265     -4069.5385      304.15819      51.403637      49.442772      20            -265.47929     -435.47027    
       230  -4100.9674      31.348164     -4069.6193      299.77744      51.404509      49.44548       20            -225.92662     -429.65717    
       240  -4100.8094      31.099394     -4069.71        297.39849      51.403664      49.445035      20            -133.06919     -338.51314    
       250  -4101.2063      31.399467     -4069.8068      300.26804      51.401819      49.442073      20             12.042119     -219.25269    
       260  -4101.6358      31.721848     -4069.914       303.35092      51.400097      49.43747       20             200.08229     -87.137475    
       270  -4101.6226      31.586886     -4070.0357      302.06031      51.399927      49.432216      20             375.48173      63.420193    
       280  -4101.3414      31.172698     -4070.1687      298.09948      51.402617      49.427425      20             444.42344      215.23759    
       290  -4101.225       30.919848     -4070.3051      295.68153      51.408678      49.424206      20             345.58498      323.87583    
       300  -4101.451       31.011429     -4070.4395      296.5573       51.417372      49.423347      20             103.22558      338.58178    
       310  -4101.8892      31.316644     -4070.5725      299.47603      51.426878      49.424952      20            -201.66233      234.21618    
       320  -4102.3078      31.598938     -4070.7089      302.17556      51.434884      49.428268      20            -477.79751      34.275063    
       330  -4102.5331      31.678954     -4070.8541      302.94073      51.43928       49.431844      20            -643.09402     -195.81326    
       340  -4102.5163      31.506589     -4071.0098      301.29243      51.438785      49.434008      20            -655.89246     -377.89807    
       350  -4102.345       31.173581     -4071.1715      298.10793      51.433259      49.433423      20            -535.87889     -448.8071     
       360  -4102.1238      30.793454     -4071.3303      294.47284      51.423575      49.429566      20            -338.23271     -371.40478    
       370  -4101.9019      30.426167     -4071.4758      290.96053      51.411222      49.422997      20            -110.4608      -151.8011     
       380  -4101.6907      30.091994     -4071.5987      287.76489      51.39795       49.415304      20             129.434        142.03293    
       390  -4101.486       29.793066     -4071.6929      284.90629      51.385616      49.408619      20             366.7074       411.98706    
       400  -4101.3973      29.641285     -4071.756       283.45483      51.376038      49.404924      20             552.84296      584.52716    
       410  -4101.6975      29.907806     -4071.7897      286.00353      51.370636      49.405507      20             623.59112      628.0147     
       420  -4102.4559      30.654983     -4071.8009      293.14867      51.36997       49.410731      20             554.14753      553.16524    
       430  -4103.1914      31.390895     -4071.8005      300.18607      51.373558      49.420098      20             386.11373      405.52403    
       440  -4103.2233      31.424919     -4071.7983      300.51144      51.380174      49.432562      20             195.1436       227.34725    
       450  -4102.4304      30.637295     -4071.7931      292.97951      51.388387      49.446814      20             31.87772       19.576522    
       460  -4101.468       29.697798     -4071.7702      283.99526      51.396938      49.461295      20            -99.156514     -239.38456    
       470  -4101.0839      29.371423     -4071.7125      280.87418      51.404798      49.474074      20            -209.66729     -530.93532    
       480  -4101.3528      29.74087      -4071.612       284.40715      51.411106      49.482993      20            -290.1543      -778.74971    
       490  -4101.7826      30.311377     -4071.4713      289.86281      51.415242      49.48621       20            -310.07405     -900.15282    
       500  -4102.0172      30.718633     -4071.2986      293.75733      51.417044      49.482791      20            -250.78413     -851.69411    
       510  -4102.0683      30.967791     -4071.1005      296.14         51.416951      49.473045      20            -122.53119     -636.37293    
       520  -4102.0206      31.140388     -4070.8802      297.79051      51.415927      49.458512      20             39.802627     -299.0762     
       530  -4101.9539      31.311767     -4070.6421      299.42939      51.415196      49.441639      20             177.73251      78.874618    
       540  -4101.932       31.537385     -4070.3946      301.58694      51.415799      49.425186      20             235.09969      403.8263     
       550  -4101.764       31.613638     -4070.1504      302.31613      51.418192      49.411557      20             202.77911      614.15638    
       560  -4101.219       31.298395     -4069.9206      299.30151      51.422159      49.402342      20             110.29175      694.70626    
       570  -4100.5697      30.861861     -4069.7079      295.12701      51.42701       49.398185      20            -19.00987       647.02387    
       580  -4100.3199      30.812226     -4069.5077      294.65235      51.431751      49.398779      20            -170.52812      483.32407    
       590  -4100.5451      31.226346     -4069.3188      298.61252      51.435218      49.402973      20            -314.41472      252.13635    
       600  -4100.9228      31.77444      -4069.1484      303.85385      51.436298      49.409114      20            -410.22235      24.537856    
       610  -4101.0934      32.086263     -4069.0072      306.83576      51.434241      49.415546      20            -423.58568     -147.73006    
       620  -4100.9247      32.025        -4068.8997      306.24992      51.428922      49.420992      20            -335.9123      -242.14722    
       630  -4100.6354      31.814206     -4068.8212      304.23413      51.420981      49.424738      20            -160.22915     -248.05364    
       640  -4100.545       31.781799     -4068.7632      303.92422      51.411733      49.426726      20             55.602925     -157.62868    
       650  -4100.6426      31.921724     -4068.7209      305.2623       51.402812      49.427613      20             256.72337      21.168186    
       660  -4100.5804      31.886572     -4068.6938      304.92615      51.395773      49.4287        20             411.39728      239.9008     
       670  -4100.2048      31.525008     -4068.6798      301.46857      51.391835      49.431578      20             503.82166      410.53564    
       680  -4099.8173      31.145052     -4068.6723      297.83511      51.391743      49.437505      20             514.3496       456.3948     
       690  -4099.8282      31.163986     -4068.6642      298.01618      51.395617      49.446853      20             428.56381      354.85904    
       700  -4100.3134      31.659167     -4068.6542      302.75152      51.402844      49.458922      20             258.28371      134.48241    
       710  -4100.8407      32.192456     -4068.6483      307.85127      51.412167      49.472132      20             45.998733     -144.11918    
       720  -4100.9984      32.34389      -4068.6545      309.29941      51.421982      49.484436      20            -162.59265     -424.06955    
       730  -4100.916       32.238678     -4068.6773      308.29329      51.430679      49.493731      20            -339.91204     -669.43267    
       740  -4100.8741      32.156699     -4068.7174      307.50933      51.43687       49.498147      20            -458.78878     -843.76901    
       750  -4100.8489      32.073338     -4068.7756      306.71216      51.439612      49.496326      20            -483.35168     -905.13567    
       760  -4100.7034      31.853009     -4068.8504      304.6052       51.438673      49.48774       20            -401.83444     -823.99242    
       770  -4100.42        31.485025     -4068.935       301.08622      51.434621      49.472912      20            -245.97481     -594.07686    
       780  -4100.0569      31.039343     -4069.0175      296.82424      51.428603      49.453479      20            -65.244411     -240.43732    
       790  -4099.8713      30.784674     -4069.0866      294.38888      51.421981      49.432002      20             97.504843      168.39975    
       800  -4100.3259      31.186199     -4069.1397      298.2286       51.416002      49.411471      20             212.63357      533.26013    
       810  -4101.4224      32.232378     -4069.19        308.23304      51.411574      49.394594      20             274.132        783.53774    
       820  -4102.3225      33.060508     -4069.262       316.15231      51.409207      49.3833        20             294.48963      915.49295    
       830  -4102.1922      32.818849     -4069.3734      313.84136      51.409098      49.378668      20             284.29864      943.88977    
       840  -4101.1585      31.641165     -4069.5173      302.57936      51.411198      49.380993      20             237.81313      847.06786    
       850  -4100.1626      30.494871     -4069.6678      291.61754      51.415163      49.389638      20             135.45985      599.11375    
       860  -4100.0148      30.212484     -4069.8024      288.91711      51.420218      49.402866      20            -28.940171      239.35657    
       870  -4100.7601      30.84314      -4069.9169      294.94798      51.425111      49.418117      20            -226.20844     -122.45403    
       880  -4101.7127      31.687878     -4070.0248      303.02608      51.428338      49.432774      20            -389.58246     -370.20759    
       890  -4102.0636      31.920156     -4070.1435      305.24731      51.428636      49.444994      20            -450.00499     -450.45047    
       900  -4101.7304      31.452257     -4070.2781      300.77287      51.425489      49.454109      20            -398.02026     -393.85715    
       910  -4101.3456      30.92519      -4070.4205      295.73261      51.419214      49.460446      20            -278.73067     -273.86031    
       920  -4101.3316      30.770036     -4070.5615      294.2489       51.410674      49.46483       20            -121.63647     -148.15017    
       930  -4101.545       30.846231     -4070.6988      294.97754      51.401063      49.468163      20             67.849747     -38.944121    
       940  -4101.797       30.962684     -4070.8343      296.09116      51.391825      49.471247      20             255.9332       42.71407     
       950  -4102.0608      31.088268     -4070.9726      297.2921       51.384399      49.474682      20             383.45578      73.029751    
       960  -4102.222       31.103433     -4071.1186      297.43712      51.379797      49.478686      20             419.93697      24.523199    
       970  -4102.0508      30.777036     -4071.2738      294.31583      51.378367      49.482903      20             385.93557     -103.51561    
       980  -4101.552       30.119669     -4071.4323      288.02954      51.379928      49.486394      20             320.06746     -276.24735    
       990  -4101.1419      29.557858     -4071.5841      282.65704      51.384027      49.487866      20             239.02445     -452.13234    
      1000  -4101.3027      29.579318     -4071.7233      282.86225      51.390072      49.485975      20             135.81217     -594.15571    
      1010  -4102.0433      30.188342     -4071.855       288.68625      51.39729       49.479616      20             9.3277807     -650.34097    
      1020  -4102.7888      30.796639     -4071.9922      294.5033       51.40473       49.468314      20            -112.19253     -565.93004    
      1030  -4102.8964      30.749568     -4072.1468      294.05317      51.411471      49.452624      20            -185.64386     -324.1983     
      1040  -4102.3104      29.993024     -4072.3174      286.81846      51.416936      49.434263      20            -191.28381      29.796286    
      1050  -4101.6954      29.204991     -4072.4904      279.28262      51.42104       49.415787      20            -151.43384      395.61654    
      1060  -4101.7215      29.066585     -4072.6549      277.95907      51.424046      49.399884      20            -101.95251      665.67455    
      1070  -4102.214       29.403625     -4072.8104      281.18213      51.426316      49.388612      20            -49.08777       798.97275    
      1080  -4102.343       29.384592     -4072.9584      281.00012      51.428263      49.383091      20             21.203487      838.2776     
      1090  -4101.8192      28.728192     -4073.091       274.72307      51.430421      49.383759      20             89.517387      825.91453    
      1100  -4101.4656      28.273446     -4073.1921      270.37441      51.433286      49.390625      20             92.090649      728.64997    
      1110  -4102.1385      28.887653     -4073.2509      276.24797      51.436868      49.403047      20            -12.341603      492.09804    
      1120  -4103.401       30.132346     -4073.2686      288.15077      51.440388      49.419378      20            -183.35567      142.73458    
      1130  -4103.9802      30.722933     -4073.2573      293.79846      51.442559      49.437131      20            -335.84735     -215.36097    
      1140  -4103.38        30.154721     -4073.2253      288.36474      51.442189      49.453691      20            -416.66999     -485.86599    
      1150  -4102.4403      29.274389     -4073.1659      279.94626      51.438583      49.467005      20            -428.29956     -634.09033    
      1160  -4102.2023      29.13765      -4073.0646      278.63865      51.431568      49.475873      20            -391.93873     -667.83281    
      1170  -4102.6624      29.749774     -4072.9126      284.49229      51.421363      49.479941      20            -300.75025     -591.93985    
      1180  -4102.9952      30.282338     -4072.7129      289.58512      51.408642      49.479683      20            -127.09313     -408.77446    
      1190  -4102.8508      30.374908     -4072.4759      290.47036      51.394711      49.476368      20             119.09178     -165.89109    
      1200  -4102.7896      30.578377     -4072.2112      292.41609      51.381436      49.471707      20             371.51115      43.033692    
      1210  -4103.0563      31.125299     -4071.931       297.64622      51.370773      49.467226      20             571.67273      171.41628    
      1220  -4102.9955      31.34061      -4071.6549      299.7052       51.364341      49.463921      20             710.41537      249.89597    
      1230  -4102.4075      31.007218     -4071.4002      296.51703      51.36331       49.462413      20             775.58351      277.93805    
      1240  -4101.9947      30.825176     -4071.1695      294.77619      51.368277      49.462912      20             723.48446      198.14644    
      1250  -4101.9627      31.005203     -4070.9575      296.49776      51.378948      49.464859      20             534.21532      15.833585    
      1260  -4101.7951      31.032787     -4070.7623      296.76154      51.393989      49.466971      20             242.76797     -177.61417    
      1270  -4101.4097      30.82749      -4070.5822      294.79833      51.411243      49.467832      20            -92.904661     -309.16732    
      1280  -4101.2454      30.833294     -4070.4121      294.85382      51.428159      49.466427      20            -410.71398     -362.88742    
      1290  -4101.4439      31.19362      -4070.2503      298.29956      51.442273      49.462301      20            -634.29982     -336.07728    
      1300  -4101.6528      31.551146     -4070.1017      301.71853      51.451807      49.455606      20            -697.59112     -221.39685    
      1310  -4101.6263      31.655027     -4069.9713      302.71192      51.456163      49.447143      20            -596.60781     -37.817254    
      1320  -4101.5585      31.699874     -4069.8586      303.14078      51.45598       49.438232      20            -395.56822      161.2728     
      1330  -4101.6915      31.930294     -4069.7612      305.34426      51.452691      49.430339      20            -180.91742      330.73696    
      1340  -4101.8537      32.173185     -4069.6805      307.66699      51.447886      49.42476       20            -3.4085965      454.64884    
      1350  -4101.5507      31.931418     -4069.6192      305.35501      51.442938      49.422474      20             141.45632      524.42288    
      1360  -4100.7455      31.173412     -4069.5721      298.10632      51.438989      49.42406       20             259.49724      513.75538    
      1370  -4100.161       30.635781     -4069.5252      292.96504      51.436962      49.429495      20             311.976        384.57456    
      1380  -4100.4255      30.957851     -4069.4676      296.04494      51.437281      49.437883      20             256.03829      136.9013     
      1390  -4101.2091      31.807602     -4069.4015      304.17098      51.439568      49.447467      20             108.28663     -143.27767    
      1400  -4101.5515      32.211128     -4069.3404      308.02983      51.442746      49.456239      20            -65.390464     -325.36562    
      1410  -4101.0794      31.785754     -4069.2936      303.96204      51.445497      49.462842      20            -220.89993     -346.79895    
      1420  -4100.4844      31.22849      -4069.2559      298.63302      51.446588      49.467028      20            -353.97849     -261.47117    
      1430  -4100.5272      31.309201     -4069.218       299.40485      51.444948      49.469331      20            -441.92739     -162.41843    
      1440  -4101.0053      31.825715     -4069.1796      304.34419      51.439876      49.470443      20            -420.1093      -80.649911    
      1450  -4101.1468      31.998793     -4069.148       305.9993       51.431505      49.470977      20            -244.31905      6.5951164    
      1460  -4100.6771      31.55181      -4069.1253      301.72488      51.421125      49.471582      20             44.466451      101.70909    
      1470  -4099.9998      30.896391     -4069.1034      295.45721      51.4109        49.472962      20             341.89719      177.4964     
      1480  -4099.5929      30.522099     -4069.0708      291.87792      51.40311       49.475692      20             553.63671      214.64987    
      1490  -4099.7329      30.712177     -4069.0207      293.6956       51.399435      49.480069      20             629.74859      191.68857    
      1500  -4100.449       31.494356     -4068.9547      301.17546      51.400545      49.485927      20             556.61868      75.054968    
      1510  -4101.3258      32.442688     -4068.8831      310.2442       51.405979      49.492416      20             361.38719     -132.67887    
      1520  -4101.8017      32.979113     -4068.8226      315.37394      51.414332      49.498011      20             112.44989     -374.10044    
      1530  -4101.6906      32.903179     -4068.7874      314.6478       51.423752      49.500917      20            -114.93181     -572.54426    
      1540  -4101.1514      32.369766     -4068.7816      309.54686      51.432499      49.499619      20            -275.93162     -661.09274    
      1550  -4100.4925      31.693898     -4068.7986      303.08364      51.439292      49.49339       20            -364.96357     -606.22896    
      1560  -4100.1209      31.293989     -4068.8269      299.25937      51.443384      49.482542      20            -394.0923      -431.28624    
      1570  -4100.3925      31.533082     -4068.8594      301.54578      51.44449       49.468275      20            -370.3116      -201.87985    
      1580  -4101.1784      32.277192     -4068.9012      308.66159      51.442749      49.452238      20            -284.32747      33.145937    
      1590  -4101.7345      32.765995     -4068.9685      313.33594      51.438801      49.436182      20            -117.33089      272.24687    
      1600  -4101.5386      32.46389      -4069.0747      310.44695      51.433915      49.421918      20             117.07294      517.43909    
      1610  -4100.9513      31.732468     -4069.2189      303.45248      51.429867      49.411303      20             349.03307      731.85965    
      1620  -4100.5907      31.198717     -4069.392       298.34831      51.428434      49.405979      20             488.51373      861.03342    
      1630  -4100.541       30.954946     -4069.5861      296.01717      51.430714      49.406984      20             476.65195      868.54832    
      1640  -4100.5278      30.734895     -4069.7929      293.91285      51.436677      49.414474      20             310.0103       741.69422    
      1650  -4100.4807      30.480698     -4070           291.48201      51.445109      49.427607      20             38.397031      489.47732    
      1660  -4100.6443      30.448753     -4070.1955      291.17652      51.453969      49.444603      20            -263.14569      156.46415    
      1670  -4101.126       30.750255     -4070.3758      294.05974      51.460933      49.463064      20            -531.24128     -172.71302    
      1680  -4101.6186      31.0724       -4070.5462      297.14036      51.46389       49.480574      20            -719.73239     -416.41116    
      1690  -4101.8644      31.151036     -4070.7134      297.89233      51.461318      49.495286      20            -789.64694     -548.09727    
      1700  -4101.8965      31.01742      -4070.879       296.61459      51.452607      49.506141      20            -706.35655     -587.26533    
      1710  -4101.6725      30.635424     -4071.0371      292.96163      51.438336      49.512762      20            -454.21875     -560.66593    
      1720  -4101.3344      30.158955     -4071.1755      288.40523      51.420382      49.515268      20            -79.054419     -496.67102    
      1730  -4101.4716      30.186316     -4071.2853      288.66688      51.401571      49.514068      20             309.63283     -421.36836    
      1740  -4102.28        30.908595     -4071.3714      295.57391      51.384878      49.509678      20             614.13477     -335.31333    
      1750  -4103.0147      31.565269     -4071.4494      301.85358      51.372702      49.502725      20             804.34371     -214.51932    
      1760  -4102.8713      31.340217     -4071.5311      299.70145      51.3666        49.494091      20             887.76596     -55.651711    
      1770  -4102.0143      30.402576     -4071.6117      290.73493      51.367299      49.484923      20             858.58724      91.685497    
      1780  -4101.2916      29.616573     -4071.6751      283.21851      51.374652      49.476278      20             707.23154      154.67063    
      1790  -4101.243       29.534958     -4071.708       282.43805      51.387581      49.468618      20             458.80319      100.92674    
      1800  -4101.6455      29.938951     -4071.7066      286.30137      51.404252      49.461584      20             168.7972      -22.313227    
      1810  -4101.9939      30.31981      -4071.6741      289.94346      51.422475      49.454314      20            -111.84741     -127.43879    
      1820  -4102.0879      30.472233     -4071.6156      291.40106      51.440088      49.446053      20            -349.51405     -152.4554     
      1830  -4101.9447      30.411197     -4071.5335      290.81737      51.455241      49.436615      20            -505.25664     -74.335174    
      1840  -4101.6735      30.24775      -4071.4257      289.25436      51.466703      49.426571      20            -541.74666      96.318455    
      1850  -4101.5626      30.275038     -4071.2875      289.51531      51.474135      49.417169      20            -464.03672      309.99109    
      1860  -4101.8029      30.687339     -4071.1156      293.45808      51.478064      49.409982      20            -320.08019      503.32319    
      1870  -4102.2068      31.293716     -4070.9131      299.25677      51.479536      49.406473      20            -172.25019      645.03033    
      1880  -4102.4662      31.775438     -4070.6908      303.8634       51.479646      49.407748      20            -76.02605       729.7373     
      1890  -4102.4561      31.993936     -4070.4621      305.95286      51.47911       49.414488      20            -65.575585      737.42254    
      1900  -4102.1695      31.932694     -4070.2368      305.36721      51.478008      49.426792      20            -135.29592      633.13269    
      1910  -4101.6775      31.659736     -4070.0177      302.75695      51.475817      49.44393       20            -238.73889      400.95208    
      1920  -4101.1534      31.351103     -4069.8023      299.80555      51.47175       49.464228      20            -325.88548      67.699437    
      1930  -4100.7685      31.18181      -4069.5867      298.18663      51.465114      49.485247      20            -375.45254     -304.30824    
      1940  -4100.4889      31.117287     -4069.3716      297.5696       51.455498      49.504235      20            -382.76089     -634.98715    
      1950  -4100.2902      31.127605     -4069.1626      297.66827      51.442821      49.518716      20            -341.03746     -848.89864    
      1960  -4100.3897      31.422774     -4068.9669      300.49092      51.427391      49.527044      20            -235.10791     -908.05818    
      1970  -4100.8095      32.016189     -4068.7933      306.16566      51.410027      49.528699      20            -45.885974     -822.51406    
      1980  -4101.042       32.390029     -4068.652       309.74063      51.392198      49.524239      20             227.57243     -625.08095    
      1990  -4100.6159      32.068958     -4068.547       306.67028      51.376018      49.515073      20             549.13489     -355.86618    
      2000  -4099.8659      31.396461     -4068.4695      300.2393       51.363967      49.503149      20             847.15856     -76.538426    
      2010  -4099.6228      31.2157       -4068.4071      298.51071      51.358357      49.490508      20             1039.7452      151.63177    
      2020  -4100.0782      31.720886     -4068.3573      303.34172      51.360718      49.478857      20             1080.3342      321.33198    
      2030  -4100.6112      32.284119     -4068.3271      308.72783      51.37145       49.4695        20             972.389        455.31883    
      2040  -4100.7589      32.436805     -4068.3221      310.18794      51.389802      49.463453      20             730.71618      533.64589    
      2050  -4100.6505      32.312001     -4068.3385      308.99446      51.413974      49.461295      20             371.70666      493.93351    
      2060  -4100.5586      32.191447     -4068.3672      307.84162      51.441253      49.462747      20            -51.005661      309.4536     
      2070  -4100.4701      32.069109     -4068.401       306.67172      51.468415      49.466496      20            -450.96341      43.112509    
      2080  -4100.1614      31.72403      -4068.4374      303.37179      51.492366      49.47063       20            -752.12603     -192.54965    
      2090  -4099.6644      31.191143     -4068.4732      298.27588      51.510725      49.473428      20            -925.51925     -316.42294    
      2100  -4099.4831      30.978703     -4068.5044      296.24434      51.522056      49.473949      20            -993.43918     -316.74005    
      2110  -4100.083       31.551057     -4068.532       301.71768      51.52574       49.472144      20            -982.65439     -234.81641    
      2120  -4101.1401      32.572232     -4068.5679      311.48301      51.521806      49.468581      20            -874.09726     -113.36936    
      2130  -4101.7495      33.120812     -4068.6287      316.72899      51.511073      49.464156      20            -629.54151      35.150362    
      2140  -4101.5565      32.83644      -4068.7201      314.00959      51.495391      49.459972      20            -273.5333       194.13093    
      2150  -4101.1404      32.307517     -4068.8329      308.95158      51.47744       49.457195      20             81.910035      313.8995     
      2160  -4101.165       32.20673      -4068.9583      307.98777      51.459903      49.456709      20             310.12677      348.94274    
      2170  -4101.5115      32.414085     -4069.0975      309.97068      51.444543      49.458802      20             366.30375      306.76538    
      2180  -4101.5575      32.303834     -4069.2537      308.91636      51.431851      49.463211      20             301.70867      236.23634    
      2190  -4101.1718      31.750722     -4069.4211      303.62704      51.421396      49.469444      20             196.00639      164.88543    
      2200  -4100.8521      31.265166     -4069.5869      298.98374      51.412404      49.476962      20             104.64239      68.679667    
      2210  -4100.9078      31.165855     -4069.7419      298.03405      51.404192      49.485033      20             59.372315     -82.274752    
      2220  -4101.1235      31.23921      -4069.8843      298.73554      51.396424      49.49254       20             79.906122     -265.1547     
      2230  -4101.1612      31.146272     -4070.0149      297.84678      51.389267      49.498151      20             169.22036     -402.56017    
      2240  -4100.9428      30.810942     -4070.1319      294.64008      51.383409      49.500865      20             305.82495     -416.68214    
      2250  -4100.7694      30.538853     -4070.2306      292.03813      51.379899      49.500561      20             448.1123      -290.60184    
      2260  -4101.0583      30.748802     -4070.3095      294.04584      51.379844      49.49812       20             558.80883     -88.93314     
      2270  -4101.8061      31.430409     -4070.3757      300.56393      51.384132      49.494976      20             625.19556      88.273964    
      2280  -4102.5053      32.062406     -4070.4429      306.60762      51.393322      49.492421      20             643.07749      183.63029    
      2290  -4102.6221      32.099737     -4070.5224      306.96462      51.407588      49.491187      20             594.32098      206.73629    
      2300  -4102.0278      31.41644      -4070.6114      300.43036      51.426583      49.49148       20             452.51857      188.50253    
      2310  -4101.2555      30.561774     -4070.6937      292.25732      51.449232      49.493177      20             194.59004      129.32481    
      2320  -4101.1279      30.37454      -4070.7534      290.46683      51.473547      49.495829      20            -177.83428      4.223754     
      2330  -4101.6422      30.854007     -4070.7882      295.0519       51.496674      49.498504      20            -589.70662     -181.53968    
      2340  -4101.8777      31.069594     -4070.8082      297.11353      51.515455      49.499837      20            -903.26199     -369.14893    
      2350  -4101.3607      30.539274     -4070.8214      292.04216      51.527443      49.498446      20            -1030.2577     -489.46856    
      2360  -4100.7933      29.969735     -4070.8236      286.59574      51.531546      49.493417      20            -1006.7014     -512.64495    
      2370  -4101.133       30.325888     -4070.8071      290.00158      51.527816      49.484536      20            -922.51825     -445.24958    
      2380  -4102.2637      31.488332     -4070.7754      301.11785      51.516835      49.472278      20            -797.21527     -289.73762    
      2390  -4102.957       32.21384      -4070.7431      308.05576      51.499577      49.457798      20            -562.42322     -33.105418    
      2400  -4102.3166      31.598073     -4070.7186      302.16729      51.477869      49.443005      20            -174.55118      310.71919    
      2410  -4100.9125      30.22437      -4070.6881      289.03078      51.454669      49.430436      20             288.44407      663.09301    
      2420  -4100.1689      29.537907     -4070.631       282.46625      51.43348       49.422681      20             663.8097       909.8299     
      2430  -4100.7772      30.238235     -4070.539       289.16337      51.41717       49.421589      20             831.62182      982.2514     
      2440  -4101.9359      31.51667      -4070.4193      301.38884      51.407093      49.427774      20             796.38888      901.8628     
      2450  -4102.3396      32.052753     -4070.2869      306.51531      51.403081      49.440738      20             642.84569      725.4304     
      2460  -4101.7886      31.640715     -4070.1479      302.57506      51.404031      49.459229      20             436.12937      468.40257    
      2470  -4101.2069      31.217522     -4069.9894      298.52814      51.408387      49.481367      20             201.29137      127.32552    
      2480  -4101.1498      31.358816     -4069.791       299.8793       51.414371      49.504651      20            -17.237821     -247.18697    
      2490  -4101.1351      31.592936     -4069.5422      302.11816      51.420338      49.526335      20            -149.15257     -555.99921    
      2500  -4100.6991      31.455034     -4069.2441      300.79942      51.425271      49.544112      20            -170.84609     -735.42629    
      2510  -4100.3905      31.489686     -4068.9008      301.1308       51.42895       49.556572      20            -135.33669     -804.29657    
      2520  -4100.8108      32.288807     -4068.522       308.77266      51.431611      49.563116      20            -89.777995     -803.90049    
      2530  -4101.4355      33.296159     -4068.1394      318.4058       51.433618      49.563694      20            -12.210824     -731.6452     
      2540  -4101.4151      33.614005     -4067.8011      321.44532      51.435591      49.55881       20             117.56968     -573.33758    
      2550  -4100.7922      33.255351     -4067.5369      318.01557      51.43851       49.549592      20             247.0618      -359.11292    
      2560  -4100.2194      32.875407     -4067.344       314.38222      51.443345      49.537577      20             296.7018      -156.5769     
      2570  -4099.9649      32.75684      -4067.2081      313.24838      51.450488      49.524236      20             237.99922     -17.874797    
      2580  -4099.7899      32.672008     -4067.1179      312.43715      51.459518      49.510598      20             96.764552      46.911873    
      2590  -4099.5649      32.500266     -4067.0646      310.79481      51.469372      49.497156      20            -89.678181      47.612069    
      2600  -4099.4435      32.403476     -4067.04        309.86922      51.478617      49.483933      20            -287.41437      10.990681    
      2610  -4099.4957      32.457108     -4067.0386      310.38209      51.485723      49.470687      20            -454.0346      -10.567191    
      2620  -4099.5339      32.475326     -4067.0586      310.55631      51.489399      49.457286      20            -535.26191      32.444126    
      2630  -4099.5315      32.433782     -4067.0977      310.15903      51.488995      49.444056      20            -499.95042      145.64257    
      2640  -4099.7288      32.574809     -4067.154       311.50765      51.484738      49.431826      20            -364.45673      298.16287    
      2650  -4100.0834      32.854735     -4067.2287      314.18454      51.477631      49.421744      20            -163.53451      475.83155    
      2660  -4100.2946      32.969319     -4067.3253      315.28028      51.469197      49.415169      20             65.458239      683.13877    
      2670  -4100.2849      32.839343     -4067.4455      314.03735      51.461187      49.413673      20             278.07448      892.12326    
      2680  -4100.1605      32.573076     -4067.5875      311.49108      51.455242      49.418835      20             432.91929      1035.3658    
      2690  -4100.1093      32.362912     -4067.7464      309.48132      51.45257       49.431757      20             489.42375      1041.6381    
      2700  -4100.3859      32.468241     -4067.9177      310.48856      51.453624      49.452546      20             417.21765      862.23539    
      2710  -4100.8704      32.771953     -4068.0985      313.39291      51.457895      49.479944      20             237.37878      499.71796    
      2720  -4100.8949      32.611148     -4068.2837      311.85515      51.464055      49.511346      20             22.327579      28.375289    
      2730  -4100.1911      31.731326     -4068.4598      303.44156      51.470479      49.543298      20            -168.76296     -455.36551    
      2740  -4099.5563      30.946603     -4068.6097      295.93738      51.475665      49.572174      20            -335.87929     -899.67592    
      2750  -4099.8636      31.13254      -4068.7311      297.71546      51.478272      49.594581      20            -494.6844      -1277.8379    
      2760  -4100.8271      31.985524     -4068.8415      305.87241      51.477048      49.607617      20            -611.2923      -1528.1283    
      2770  -4101.449       32.484941     -4068.964       310.64826      51.471083      49.60934       20            -621.48024     -1570.2672    
      2780  -4101.3862      32.27958      -4069.1066      308.68442      51.460273      49.599331      20            -490.69689     -1386.0281    
      2790  -4101.1329      31.875238     -4069.2577      304.81777      51.445589      49.578839      20            -235.77681     -1031.4786    
      2800  -4101.0714      31.670717     -4069.4007      302.86197      51.428965      49.550426      20             89.573396     -565.23964    
      2810  -4101.0554      31.530597     -4069.5248      301.52202      51.412897      49.517536      20             422.66643     -28.807622    
      2820  -4100.9957      31.36955      -4069.6261      299.98195      51.399962      49.484141      20             704.94588      499.24403    
      2830  -4101.2007      31.49051      -4069.7102      301.13867      51.392358      49.454147      20             878.60324      907.57645    
      2840  -4101.7397      31.94838      -4069.7913      305.51721      51.391459      49.430606      20             905.65924      1126.8099    
      2850  -4102.1354      32.250446     -4069.8849      308.40582      51.39754       49.415211      20             793.15024      1154.7993    
      2860  -4102.028       32.032325     -4069.9957      306.31997      51.40981       49.408258      20             577.27968      1027.4906    
      2870  -4101.61        31.495642     -4070.1144      301.18775      51.426671      49.408901      20             295.72253      801.24052    
      2880  -4101.2556      31.029481     -4070.2261      296.72993      51.445997      49.415551      20            -7.2463365      535.30453    
      2890  -4101.1337      30.813354     -4070.3203      294.66314      51.465481      49.426296      20            -278.21181      272.42028    
      2900  -4101.2339      30.839032     -4070.3949      294.9087       51.483026      49.43922       20            -479.04423      45.580628    
      2910  -4101.4274      30.974043     -4070.4534      296.19979      51.497044      49.452664      20            -596.81816     -105.89564    
      2920  -4101.568       31.066494     -4070.5015      297.08388      51.506573      49.465512      20            -634.65004     -151.53327    
      2930  -4101.6356      31.092061     -4070.5436      297.32837      51.511258      49.477408      20            -607.08302     -102.54618    
      2940  -4101.716       31.13482      -4070.5812      297.73727      51.511253      49.488676      20            -538.35374     -13.518658    
      2950  -4101.8808      31.265342     -4070.6154      298.98543      51.507034      49.499943      20            -456.22443      51.167444    
      2960  -4102.0582      31.409872     -4070.6483      300.36755      51.499193      49.511668      20            -375.97469      44.866104    
      2970  -4102.0367      31.355452     -4070.6813      299.84713      51.488329      49.523803      20            -296.59743     -45.879943    
      2980  -4101.7687      31.05675      -4070.712       296.9907       51.475035      49.53568       20            -220.88056     -202.04519    
      2990  -4101.5877      30.852464     -4070.7353      295.03714      51.45987       49.546133      20            -165.6293      -398.93938    
      3000  -4101.7512      31.002178     -4070.7491      296.46883      51.443248      49.553677      20            -130.35737     -606.34599    
      3010  -4102.0056      31.248651     -4070.757       298.82582      51.425462      49.55675       20            -74.045913     -767.18354    
      3020  -4101.9918      31.228026     -4070.7638      298.62858      51.40697       49.55413       20             47.304974     -822.07655    
      3030  -4101.7322      30.963574     -4070.7686      296.09967      51.388716      49.545362      20             234.50328     -748.27197    
      3040  -4101.5662      30.800861     -4070.7653      294.54367      51.37214       49.530935      20             451.42816     -559.85664    
      3050  -4101.6407      30.892463     -4070.7482      295.41964      51.358933      49.512204      20             667.17921     -279.71778    
      3060  -4101.7014      30.985917     -4070.7154      296.31333      51.350801      49.491231      20             864.17796      74.51238     
      3070  -4101.5512      30.884618     -4070.6666      295.34463      51.349309      49.470639      20             1013.3997      463.59533    
      3080  -4101.3768      30.776683     -4070.6001      294.31246      51.355665      49.453301      20             1080.5086      801.07104    
      3090  -4101.4836      30.970426     -4070.5132      296.16519      51.37046       49.44172       20             1037.4785      991.17494    
      3100  -4101.8231      31.420305     -4070.4028      300.46731      51.393438      49.437361      20             863.89471      1002.3791    
      3110  -4101.9776      31.71151      -4070.2661      303.25206      51.423342      49.440411      20             556.55841      870.93907    
      3120  -4101.6407      31.543042     -4070.0976      301.64103      51.457861      49.449988      20             132.86591      636.13685    
      3130  -4101.1015      31.213683     -4069.8879      298.49142      51.493751      49.464402      20            -368.18233      303.35723    
      3140  -4101.0293      31.400428     -4069.6289      300.27723      51.527128      49.481196      20            -876.50929     -121.03565    
      3150  -4101.4882      32.15913      -4069.329       307.53258      51.554026      49.497236      20            -1284.8958     -564.84219    
      3160  -4101.6349      32.614155     -4069.0207      311.88391      51.571219      49.509247      20            -1489.0024     -887.70097    
      3170  -4100.9261      32.185864     -4068.7403      307.78823      51.577005      49.514819      20            -1470.9207     -975.74732    
      3180  -4100.0081      31.510334     -4068.4977      301.32825      51.571352      49.51322       20            -1313.8247     -827.75905    
      3190  -4099.756       31.475396     -4068.2806      300.99414      51.555336      49.505446      20            -1097.802      -522.63376    
      3200  -4100.0214      31.942326     -4068.0791      305.45932      51.530575      49.493705      20            -817.94454     -129.49137    
      3210  -4100.0545      32.160086     -4067.8944      307.54172      51.499228      49.480903      20            -437.4245       300.33818    
      3220  -4099.7765      32.048078     -4067.7284      306.47061      51.464224      49.470215      20             19.814732      671.03305    
      3230  -4099.7822      32.202187     -4067.58        307.94432      51.429064      49.464375      20             457.21075      865.46308    
      3240  -4100.2311      32.776415     -4067.4546      313.43557      51.397108      49.464864      20             776.56274      844.0941     
      3250  -4100.572       33.207323     -4067.3647      317.55628      51.370858      49.47161       20             949.06288      657.0882     
      3260  -4100.3993      33.080644     -4067.3186      316.34487      51.351725      49.48331       20             1006.8915      377.82736    
      3270  -4099.9063      32.59469      -4067.3116      311.69777      51.340248      49.497946      20             997.12809      63.303405    
      3280  -4099.523       32.191321     -4067.3316      307.84042      51.336434      49.513202      20             953.83062     -253.9886     
      3290  -4099.4515      32.081527     -4067.37        306.79048      51.340023      49.526712      20             886.29617     -544.74718    
      3300  -4099.5811      32.156129     -4067.425       307.50388      51.35055       49.536306      20             781.87989     -752.34708    
      3310  -4099.8556      32.356108     -4067.4995      309.41625      51.367257      49.540419      20             618.40736     -813.18563    
      3320  -4100.316       32.718296     -4067.5977      312.87979      51.388932      49.538554      20             396.04167     -701.19133    
      3330  -4100.7789      33.054656     -4067.7243      316.09635      51.413922      49.531476      20             160.0637      -449.26472    
      3340  -4101.0011      33.118397     -4067.8827      316.70589      51.440449      49.520984      20            -37.063576     -140.09226    
      3350  -4100.9562      32.884482     -4068.0717      314.46901      51.466989      49.509318      20            -185.00236      129.60863    
      3360  -4100.7984      32.514586     -4068.2839      310.93175      51.492358      49.498458      20            -313.58258      286.28039    
      3370  -4100.6813      32.172692     -4068.5086      307.66227      51.515505      49.489581      20            -462.32124      311.7316     
      3380  -4100.5803      31.846316     -4068.734       304.54119      51.535228      49.482924      20            -642.27881      242.49837    
      3390  -4100.4878      31.539219     -4068.9485      301.60447      51.550098      49.478008      20            -823.12072      117.21041    
      3400  -4100.537       31.392135     -4069.1448      300.19793      51.55867       49.473916      20            -965.8359      -41.22402     
      3410  -4100.6681      31.347045     -4069.321       299.76674      51.55977       49.469489      20            -1051.0388     -186.35713    
      3420  -4100.5997      31.122844     -4069.4769      297.62274      51.55266       49.463669      20            -1070.7888     -252.62797    
      3430  -4100.2635      30.654619     -4069.6089      293.14518      51.53712       49.455964      20            -1007.3626     -205.0534     
      3440  -4100.036       30.325236     -4069.7108      289.99535      51.513589      49.446708      20            -838.60845     -53.60144     
      3450  -4100.3693      30.589285     -4069.7801      292.52041      51.483329      49.437008      20            -561.24368      173.21012    
      3460  -4101.0911      31.268782     -4069.8224      299.01832      51.448461      49.428554      20            -182.06085      449.16045    
      3470  -4101.5234      31.675057     -4069.8484      302.90347      51.411919      49.423409      20             284.43824      736.89467    
      3480  -4101.4327      31.565471     -4069.8672      301.85552      51.377303      49.423721      20             778.66254      969.81221    
      3490  -4101.1401      31.255837     -4069.8842      298.89454      51.348417      49.431244      20             1196.2557      1077.7762    
      3500  -4100.8866      30.984003     -4069.9026      296.29503      51.328503      49.446824      20             1450.5817      1011.3364    
      3510  -4100.9289      31.006503     -4069.9224      296.51019      51.319591      49.470023      20             1506.7392      738.35402    
      3520  -4101.565       31.622447     -4069.9425      302.40036      51.322222      49.49888       20             1371.0053      277.22916    
      3530  -4102.4312      32.464642     -4069.9666      310.45414      51.335483      49.530049      20             1093.9382     -276.23114    
      3540  -4102.6184      32.615617     -4070.0028      311.89789      51.357373      49.559463      20             750.63639     -794.2843     
      3550  -4101.8427      31.790792     -4070.052       304.01022      51.385318      49.583241      20             376.06944     -1185.1046    
      3560  -4100.8593      30.757881     -4070.1014      294.13266      51.416438      49.598379      20            -36.498408     -1420.8759    
      3570  -4100.4683      30.330456     -4070.1379      290.04526      51.447545      49.603         20            -456.00241     -1503.8339    
      3580  -4100.619       30.460082     -4070.159       291.28485      51.475401      49.596393      20            -792.83585     -1416.619     
      3590  -4100.8277      30.658959     -4070.1688      293.18669      51.497376      49.579137      20            -971.37314     -1144.3205    
      3600  -4100.9911      30.822219     -4070.1688      294.74791      51.512009      49.553194      20            -989.25216     -725.3046     
      3610  -4101.2899      31.132615     -4070.1573      297.71618      51.519059      49.521628      20            -899.07761     -239.37438    
      3620  -4101.6615      31.526568     -4070.1349      301.48349      51.519148      49.48803       20            -744.53838      232.42447    
      3630  -4101.8564      31.748598     -4070.1078      303.60673      51.513433      49.455906      20            -536.35552      617.716      
      3640  -4101.803       31.720289     -4070.0827      303.33601      51.503507      49.428129      20            -282.45407      857.07586    
      3650  -4101.6776      31.614389     -4070.0632      302.32331      51.491306      49.406513      20            -28.585321      936.52425    
      3660  -4101.7458      31.694796     -4070.051       303.09223      51.478747      49.391716      20             141.58581      899.70009    
      3670  -4102.0055      31.95599      -4070.0496      305.58998      51.46712       49.383541      20             173.62286      812.19402    
      3680  -4102.1136      32.049051     -4070.0645      306.47991      51.456702      49.381405      20             98.830151      722.75342    
      3690  -4101.8172      31.71879      -4070.0985      303.32168      51.446976      49.384693      20             6.1524329      652.57908    
      3700  -4101.2376      31.091629     -4070.146       297.32424      51.437272      49.392917      20            -24.799961      598.29416    
      3710  -4100.8048      30.608868     -4070.1959      292.70767      51.427367      49.405697      20             35.922495      535.36365    
      3720  -4100.9754      30.735698     -4070.2397      293.92053      51.417718      49.422585      20             167.32053      440.7127     
      3730  -4101.6063      31.32757      -4070.2787      299.5805       51.409324      49.442921      20             330.5135       330.62014    
      3740  -4101.9248      31.601857     -4070.3229      302.20347      51.403454      49.465938      20             495.80621      242.94902    
      3750  -4101.6628      31.283475     -4070.3794      299.15883      51.401393      49.490991      20             624.31323      158.89929    
      3760  -4101.4825      31.036906     -4070.4456      296.80093      51.404139      49.517416      20             657.5138       3.2733762    
      3770  -4101.8201      31.302232     -4070.5179      299.3382       51.411975      49.544031      20             567.40102     -257.92565    
      3780  -4102.2194      31.620164     -4070.5992      302.37854      51.424267      49.568895      20             387.11013     -581.48957    
      3790  -4102.1621      31.46719      -4070.6949      300.91566      51.439668      49.589586      20             156.08829     -898.55694    
      3800  -4101.7211      30.917195     -4070.8039      295.65616      51.456399      49.603703      20            -120.77746     -1149.9626    
      3810  -4101.2056      30.287667     -4070.9179      289.63608      51.4723        49.609306      20            -437.19428     -1293.565     
      3820  -4100.8584      29.831414     -4071.027       285.27301      51.484908      49.60524       20            -749.31939     -1319.0188    
      3830  -4100.9168      29.79227      -4071.1246      284.89867      51.49179       49.591222      20            -983.9245      -1241.9581    
      3840  -4101.4344      30.224593     -4071.2098      289.03292      51.4911        49.567757      20            -1066.8226     -1067.1787    
      3850  -4102.1072      30.821952     -4071.2852      294.74536      51.482158      49.536116      20            -954.67653     -778.4355     
      3860  -4102.5487      31.197524     -4071.3512      298.3369       51.46578       49.498441      20            -657.38147     -372.46544    
      3870  -4102.5751      31.172038     -4071.4031      298.09318      51.44422       49.457752      20            -226.86027      120.16518    
      3880  -4102.2821      30.848485     -4071.4336      294.9991       51.420781      49.417722      20             267.01011      639.48074    
      3890  -4102.0718      30.632114     -4071.4397      292.92997      51.399269      49.38221       20             744.05712      1101.2946    
      3900  -4102.2566      30.827435     -4071.4292      294.79779      51.383362      49.354652      20             1124.4825      1426.39      
      3910  -4102.6185      31.199438     -4071.419       298.3552       51.376008      49.33749       20             1339.5363      1581.4553    
      3920  -4102.7746      31.3502       -4071.4244      299.79691      51.378892      49.331939      20             1337.9066      1571.0375    
      3930  -4102.7994      31.350902     -4071.4485      299.80362      51.392059      49.337999      20             1099.8713      1408.9538    
      3940  -4102.9441      31.461172     -4071.483       300.85812      51.413762      49.354566      20             664.44879      1128.1797    
      3950  -4102.9994      31.482618     -4071.5168      301.0632       51.440745      49.379664      20             133.55436      787.13877    
      3960  -4102.6272      31.086673     -4071.5405      297.27685      51.468982      49.410837      20            -379.883        431.64824    
      3970  -4102.0632      30.517979     -4071.5452      291.83852      51.4945        49.445466      20            -806.95539      72.174337    
      3980  -4101.844       30.319808     -4071.5242      289.94344      51.513936      49.480868      20            -1122.4025     -283.03252    
      3990  -4101.9132      30.434446     -4071.4787      291.03971      51.524784      49.514388      20            -1292.5859     -595.21369    
      4000  -4101.654       30.239675     -4071.4144      289.17714      51.525687      49.543676      20            -1258.333      -820.44344    
      4010  -4100.893       29.563724     -4071.3293      282.71313      51.516863      49.567001      20            -1012.6326     -951.13873    
      4020  -4100.3218      29.111878     -4071.2099      278.3922       51.500127      49.583314      20            -649.41852     -1014.9993    
      4030  -4100.6275      29.585758     -4071.0418      282.92384      51.478217      49.592074      20            -287.22462     -1038.0651    
      4040  -4101.464       30.639333     -4070.8247      292.999        51.453915      49.593071      20             13.913837     -1010.4302    
      4050  -4101.9422      31.364907     -4070.5773      299.93755      51.429566      49.586491      20             242.53306     -915.22588    
      4060  -4101.9531      31.629025     -4070.324       302.46327      51.406955      49.573001      20             394.75816     -781.47756    
      4070  -4101.9428      31.861706     -4070.0811      304.68836      51.387286      49.553559      20             481.47648     -642.16663    
      4080  -4101.793       31.934912     -4069.8581      305.38842      51.371277      49.529215      20             549.83804     -472.46721    
      4090  -4101.0641      31.405167     -4069.6589      300.32255      51.359504      49.501258      20             642.38461     -233.33757    
      4100  -4100.0526      30.577024     -4069.4756      292.40316      51.352691      49.471465      20             738.9148       59.816583    
      4110  -4099.5929      30.298795     -4069.2941      289.74249      51.351569      49.442001      20             782.40194      360.332      
      4120  -4099.8204      30.711945     -4069.1084      293.69339      51.356494      49.41511       20             765.93891      649.50278    
      4130  -4100.0522      31.126483     -4068.9257      297.65754      51.367406      49.392957      20             743.46113      917.93799    
      4140  -4100.0153      31.257058     -4068.7583      298.90621      51.384177      49.377534      20             738.52346      1116.412     
      4150  -4100.2505      31.637063     -4068.6134      302.54014      51.406765      49.370312      20             694.27439      1185.9333    
      4160  -4100.9616      32.465306     -4068.4963      310.46049      51.434816      49.37185       20             544.87865      1127.6521    
      4170  -4101.3531      32.938564     -4068.4146      314.98618      51.467209      49.381799      20             295.30747      1001.3965    
      4180  -4100.8522      32.48332      -4068.3689      310.63276      51.502045      49.39929       20            -23.458443      846.26409    
      4190  -4100.1307      31.786629     -4068.3441      303.97041      51.536829      49.423185      20            -420.56162      635.44069    
      4200  -4100.06        31.738497     -4068.3216      303.51013      51.568434      49.451903      20            -897.09044      318.74246    
      4210  -4100.3986      32.101338     -4068.2972      306.97993      51.593138      49.483079      20            -1376.3648     -105.23388    
      4220  -4100.3858      32.10422      -4068.2816      307.00748      51.607207      49.513564      20            -1736.0969     -574.23713    
      4230  -4100.0674      31.782053     -4068.2853      303.92665      51.60781       49.539863      20            -1897.8304     -1003.9899    
      4240  -4100.1454      31.83135      -4068.314       304.39807      51.593626      49.558755      20            -1851.1203     -1312.6073    
      4250  -4100.7442      32.370924     -4068.3732      309.55793      51.564982      49.567926      20            -1602.5498     -1421.2935    
      4260  -4101.2972      32.830632     -4068.4666      313.95404      51.523816      49.566546      20            -1153.5276     -1295.4479    
      4270  -4101.5306      32.943259     -4068.5874      315.03108      51.473648      49.555502      20            -529.99218     -996.13303    
      4280  -4101.6232      32.901327     -4068.7219      314.63009      51.419349      49.53698       20             196.28839     -628.17021    
      4290  -4101.56        32.699188     -4068.8608      312.69707      51.366567      49.513737      20             920.98394     -239.55657    
      4300  -4101.1215      32.120036     -4069.0015      307.15873      51.320904      49.488714      20             1541.6448      168.49176    
      4310  -4100.442       31.299483     -4069.1425      299.31191      51.287128      49.464963      20             1980.4012      558.60685    
      4320  -4100.0854      30.801181     -4069.2842      294.54674      51.268569      49.445348      20             2174.9055      850.19168    
      4330  -4100.4287      30.99641      -4069.4323      296.41368      51.266673      49.431999      20             2090.1308      984.65028    
      4340  -4101.1194      31.526778     -4069.5926      301.4855       51.280796      49.425908      20             1764.6014      961.57954    
      4350  -4101.4462      31.682889     -4069.7633      302.97836      51.308497      49.426925      20             1299.4609      823.44113    
      4360  -4101.208       31.277475     -4069.9305      299.10145      51.346254      49.434052      20             788.34952      616.04201    
      4370  -4100.8905      30.815247     -4070.0753      294.68125      51.390145      49.445752      20             279.66281      359.68819    
      4380  -4100.9505      30.765155     -4070.1854      294.20222      51.436227      49.460117      20            -202.4743       69.817021    
      4390  -4101.2207      30.95916      -4070.2615      296.05746      51.48075       49.475001      20            -618.14651     -205.77912    
      4400  -4101.216       30.903526     -4070.3125      295.52544      51.52048       49.488373      20            -917.19948     -401.52981    
      4410  -4100.883       30.537828     -4070.3452      292.02833      51.553064      49.498777      20            -1094.4899     -491.01664    
      4420  -4100.7548      30.393464     -4070.3613      290.6478       51.577073      49.50552       20            -1199.5305     -507.53255    
      4430  -4101.225       30.860178     -4070.3648      295.11091      51.591657      49.508455      20            -1277.7059     -493.05105    
      4440  -4101.993       31.626192     -4070.3668      302.43618      51.59622       49.507696      20            -1326.2653     -453.74607    
      4450  -4102.4451      32.063065     -4070.3821      306.61392      51.590422      49.503557      20            -1316.1255     -377.17562    
      4460  -4102.2463      31.82986      -4070.4164      304.38382      51.574381      49.496617      20            -1228.9357     -268.35053    
      4470  -4101.7193      31.257887     -4070.4614      298.91414      51.54881       49.487681      20            -1072.463      -160.84384    
      4480  -4101.5631      31.059312     -4070.5038      297.0152       51.514958      49.477547      20            -862.9539      -76.674082    
      4490  -4101.829       31.292455     -4070.5365      299.2447       51.474524      49.466872      20            -576.31509      12.693501    
      4500  -4101.8991      31.341845     -4070.5573      299.71702      51.429828      49.45635       20            -161.44813      136.96446    
      4510  -4101.5755      31.014419     -4070.5611      296.5859       51.384137      49.446898      20             371.24131      269.68422    
      4520  -4101.3016      30.758668     -4070.543       294.14019      51.341541      49.439476      20             922.42208      364.88771    
      4530  -4101.3775      30.870922     -4070.5066      295.21365      51.306231      49.434782      20             1385.3258      417.35644    
      4540  -4101.6381      31.173118     -4070.465       298.10351      51.281715      49.433219      20             1714.6479      464.11399    
      4550  -4101.8431      31.409535     -4070.4336      300.36432      51.270467      49.435145      20             1901.7263      541.51557    
      4560  -4101.92        31.496821     -4070.4232      301.19902      51.273858      49.441116      20             1932.8449      639.84968    
      4570  -4101.9509      31.51462      -4070.4363      301.36923      51.292062      49.451811      20             1786.201       692.76871    
      4580  -4102.0547      31.587851     -4070.4669      302.06953      51.3239        49.46756       20             1443.7168      621.79603    
      4590  -4102.1543      31.65226      -4070.5021      302.68546      51.3667        49.487802      20             918.61636      397.20599    
      4600  -4102.0728      31.546651     -4070.5262      301.67554      51.416397      49.510855      20             271.10507      47.535916    
      4610  -4101.7493      31.222633     -4070.5267      298.57701      51.467967      49.534117      20            -411.86866     -367.24063    
      4620  -4101.2441      30.745326     -4070.4988      294.0126       51.516098      49.554503      20            -1044.0253     -772.14876    
      4630  -4100.8089      30.361313     -4070.4475      290.34035      51.555877      49.569017      20            -1554.8714     -1097.4545    
      4640  -4100.7924      30.406251     -4070.3861      290.77008      51.583358      49.575259      20            -1888.9833     -1306.2234    
      4650  -4101.2697      30.937759     -4070.3319      295.85281      51.596016      49.571717      20            -1999.7883     -1388.2105    
      4660  -4101.8142      31.513947     -4070.3002      301.36279      51.5931        49.557858      20            -1857.6102     -1320.9945    
      4670  -4101.9203      31.626704     -4070.2936      302.44108      51.575832      49.534295      20            -1480.2635     -1074.2102    
      4680  -4101.7138      31.416476     -4070.2973      300.4307       51.547233      49.502966      20            -958.41673     -661.87422    
      4690  -4101.6795      31.389079     -4070.2905      300.16871      51.511415      49.467015      20            -418.68816     -145.03594    
      4700  -4101.8839      31.620749     -4070.2632      302.38413      51.472627      49.430334      20             52.730925      404.69439    
      4710  -4102.0631      31.842196     -4070.2209      304.50179      51.434576      49.397011      20             432.07945      917.34549    
      4720  -4102.1193      31.941804     -4070.1775      305.45433      51.400215      49.370794      20             719.20266      1323.6949    
      4730  -4102.0768      31.929191     -4070.1476      305.33371      51.371732      49.354583      20             920.76958      1566.0968    
      4740  -4101.8882      31.747882     -4070.1403      303.59988      51.350622      49.35004       20             1050.4801      1618.6442    
      4750  -4101.6905      31.534207     -4070.1563      301.55655      51.337794      49.357427      20             1105.5469      1484.3857    
      4760  -4101.7084      31.518764     -4070.1896      301.40886      51.333571      49.375641      20             1075.9746      1187.7874    
      4770  -4101.8426      31.609939     -4070.2327      302.28075      51.337644      49.40242       20             976.1963       783.98308    
      4780  -4101.8397      31.561176     -4070.2785      301.81444      51.349183      49.434735      20             833.12439      341.63102    
      4790  -4101.6842      31.36354      -4070.3206      299.92448      51.367018      49.469273      20             655.74543     -92.303573    
      4800  -4101.4849      31.131521     -4070.3534      297.70572      51.389709      49.502794      20             438.09902     -482.88163    
      4810  -4101.1998      30.82654      -4070.3732      294.78923      51.415522      49.53241       20             182.30662     -785.70757    
      4820  -4100.7749      30.397754     -4070.3772      290.68883      51.442447      49.555903      20            -94.048514     -967.31532    
      4830  -4100.3746      30.013523     -4070.361       287.01449      51.468335      49.57197       20            -368.06261     -1028.412     
      4840  -4100.2462      29.926181     -4070.32        286.17925      51.491074      49.580207      20            -622.01728     -1002.6253    
      4850  -4100.5112      30.260107     -4070.2511      289.37253      51.508726      49.58086       20            -848.12704     -945.33079    
      4860  -4101.1271      30.971147     -4070.156       296.17209      51.519587      49.574419      20            -1042.6953     -899.42989    
      4870  -4101.6742      31.632731     -4070.0415      302.49871      51.522241      49.561328      20            -1176.1518     -847.65584    
      4880  -4101.595       31.681267     -4069.9138      302.96285      51.515789      49.5421        20            -1190.8811     -734.60641    
      4890  -4101.0576      31.290954     -4069.7667      299.23035      51.500257      49.517677      20            -1058.0721     -544.00367    
      4900  -4100.7729      31.192671     -4069.5802      298.29049      51.476791      49.489538      20            -798.3492      -307.2733     
      4910  -4100.873       31.539058     -4069.334       301.60294      51.447516      49.459501      20            -431.96741     -48.070292    
      4920  -4100.829       31.806928     -4069.0221      304.16453      51.415371      49.42954       20             34.224251      238.14412    
      4930  -4100.3988      31.741528     -4068.6572      303.53912      51.383991      49.401797      20             553.62518      554.20971    
      4940  -4099.8899      31.624895     -4068.265       302.42378      51.357317      49.378576      20             1032.2829      876.59568    
      4950  -4099.62        31.741728     -4067.8783      303.54104      51.338904      49.362169      20             1378.0836      1165.1651    
      4960  -4099.7606      32.22851      -4067.5321      308.19605      51.331242      49.354576      20             1531.286       1372.3354    
      4970  -4100.4117      33.155867     -4067.2559      317.06422      51.335334      49.357159      20             1474.6296      1445.0515    
      4980  -4101.0869      34.018262     -4067.0687      325.31115      51.350602      49.370303      20             1239.9373      1363.4536    
      4990  -4100.936       33.962813     -4066.9732      324.78091      51.375131      49.393282      20             880.00791      1150.6887    
      5000  -4100.0693      33.123564     -4066.9458      316.7553       51.406045      49.4244        20             424.96248      813.39703    
      5010  -4099.5342      32.58653      -4066.9477      311.61973      51.439754      49.461029      20            -102.11282      337.25847    
      5020  -4099.7206      32.766198     -4066.9544      313.33787      51.472169      49.499566      20            -631.07002     -232.85672    
      5030  -4099.8312      32.863723     -4066.9675      314.27049      51.499266      49.535789      20            -1044.7919     -779.18461    
      5040  -4099.2284      32.230823     -4066.9975      308.21817      51.517952      49.565694      20            -1258.5996     -1205.6185    
      5050  -4098.493       31.44774      -4067.0452      300.72967      51.526676      49.586186      20            -1288.6125     -1492.0242    
      5060  -4098.6576      31.550129     -4067.1075      301.7088       51.525312      49.595264      20            -1212.932      -1641.4985    
      5070  -4099.7444      32.552166     -4067.1923      311.29111      51.51459       49.592017      20            -1073.6518     -1621.4807    
      5080  -4100.7256      33.410856     -4067.3148      319.50263      51.495775      49.576839      20            -848.51663     -1390.117     
      5090  -4100.8633      33.384681     -4067.4787      319.25233      51.470782      49.551677      20            -516.75445     -956.58255    
      5100  -4100.4516      32.785392     -4067.6662      313.52142      51.44228       49.519915      20            -123.49293     -402.19921    
      5110  -4100.2394      32.383928     -4067.8555      309.68229      51.413333      49.485746      20             245.4287       144.03868    
      5120  -4100.5008      32.460005     -4068.0408      310.40979      51.386776      49.453218      20             535.50413      567.33285    
      5130  -4100.7394      32.510086     -4068.2293      310.88872      51.364801      49.425427      20             742.38644      834.44841    
      5140  -4100.3917      31.968917     -4068.4228      305.7136       51.348915      49.404281      20             874.32987      984.65442    
      5150  -4099.6393      31.029724     -4068.6096      296.73225      51.340008      49.390774      20             931.34936      1049.2585    
      5160  -4099.2185      30.443689     -4068.7748      291.12809      51.338379      49.38522       20             913.96786      1017.5374    
      5170  -4099.6544      30.739869     -4068.9145      293.96041      51.343761      49.38722       20             829.75968      874.97105    
      5180  -4100.7127      31.675275     -4069.0375      302.90555      51.355391      49.395597      20             696.44198      643.29257    
      5190  -4101.5586      32.400386     -4069.1582      309.83967      51.37215       49.408564      20             533.97686      386.55958    
      5200  -4101.573       32.287927     -4069.2851      308.76424      51.392709      49.424193      20             350.77841      176.91759    
      5210  -4100.9267      31.51531      -4069.4114      301.37583      51.415595      49.440899      20             152.82855      38.295236    
      5220  -4100.2839      30.761683     -4069.5222      294.16902      51.439254      49.457618      20            -44.92102      -59.767841    
      5230  -4100.0875      30.479982     -4069.6075      291.47516      51.46215       49.473597      20            -232.26347     -150.79107    
      5240  -4100.2992      30.632814     -4069.6664      292.93666      51.482841      49.488167      20            -419.35057     -246.88654    
      5250  -4100.726       31.020589     -4069.7054      296.64489      51.499903      49.500629      20            -623.51406     -360.18408    
      5260  -4101.236       31.500647     -4069.7354      301.23561      51.511824      49.510172      20            -833.76251     -496.5525     
      5270  -4101.592       31.823005     -4069.769       304.31827      51.517099      49.515852      20            -998.53441     -621.21029    
      5280  -4101.4871      31.672266     -4069.8148      302.87678      51.514609      49.516851      20            -1061.3027     -675.43709    
      5290  -4101.1049      31.234349     -4069.8705      298.68905      51.504019      49.512857      20            -1005.3643     -645.88465    
      5300  -4101.1152      31.187202     -4069.928       298.23819      51.485899      49.504153      20            -850.00468     -575.53814    
      5310  -4101.5815      31.597515     -4069.984       302.16194      51.461592      49.491338      20            -602.46479     -484.18861    
[...]
     98740  -4100.6932      32.495071     -4068.1981      310.74513      51.387793      49.419623      20             948.27546      485.73988    
     98750  -4100.8051      32.706968     -4068.0981      312.77146      51.413835      49.433243      20             546.80012      393.43959    
     98760  -4101.0848      33.044371     -4068.0404      315.998        51.444383      49.449961      20             28.02751       271.84864    
     98770  -4101.296       33.279696     -4068.0163      318.24837      51.475483      49.468891      20            -521.97513      109.25995    
     98780  -4100.9021      32.881162     -4068.021       314.43725      51.502896      49.488841      20            -987.13        -82.504088    
     98790  -4100.1636      32.11782      -4068.0458      307.13754      51.522963      49.508368      20            -1291.5476     -308.30158    
     98800  -4100.0032      31.920543     -4068.0826      305.25101      51.533207      49.525755      20            -1417.0309     -570.09947    
     98810  -4100.5336      32.399413     -4068.1342      309.83036      51.532538      49.539031      20            -1345.0503     -817.18534    
     98820  -4100.8115      32.601944     -4068.2095      311.76714      51.521423      49.546333      20            -1055.3558     -966.62417    
     98830  -4100.3085      32.002575     -4068.306       306.03547      51.501998      49.546492      20            -603.47351     -977.11812    
     98840  -4099.8155      31.409047     -4068.4064      300.35966      51.477641      49.539329      20            -132.56877     -884.04452    
     98850  -4100.2605      31.759404     -4068.5011      303.71006      51.451921      49.52544       20             231.80191     -742.04033    
     98860  -4101.1974      32.598284     -4068.5991      311.73214      51.427675      49.50584       20             467.68629     -544.22997    
     98870  -4101.4956      32.781074     -4068.7145      313.48013      51.406797      49.482003      20             616.18608     -249.98395    
     98880  -4101.0272      32.180031     -4068.8472      307.73246      51.390489      49.456098      20             694.62817      123.8777     
     98890  -4100.5189      31.53417      -4068.9847      301.55619      51.379397      49.430876      20             692.60289      506.57978    
     98900  -4100.2894      31.171955     -4069.1175      298.09238      51.373562      49.409182      20             621.18114      842.6417     
     98910  -4100.1577      30.915613     -4069.2421      295.64102      51.372501      49.393548      20             520.74543      1100.7325    
     98920  -4099.9956      30.638014     -4069.3576      292.9864       51.375512      49.385943      20             438.17195      1242.8367    
     98930  -4099.9633      30.500902     -4069.4624      291.67521      51.382009      49.387484      20             397.07051      1223.8373    
     98940  -4100.3221      30.766001     -4069.5561      294.21031      51.391706      49.398119      20             387.28993      1025.851     
     98950  -4100.9059      31.26455      -4069.6413      298.97786      51.404553      49.416502      20             389.49462      691.80816    
     98960  -4101.227       31.505211     -4069.7218      301.27925      51.420595      49.440276      20             383.47863      305.03551    
     98970  -4101.3214      31.522522     -4069.7989      301.4448       51.439795      49.466639      20             323.6481      -73.987779    
     98980  -4101.6878      31.814399     -4069.8734      304.23598      51.461684      49.492778      20             149.4036      -417.12775    
     98990  -4102.2296      32.277567     -4069.952       308.66517      51.484917      49.51612       20            -151.09857     -689.31542    
     99000  -4102.2758      32.231386     -4070.0444      308.22355      51.507186      49.534585      20            -521.47813     -862.41819    
     99010  -4101.7436      31.591478     -4070.1522      302.10421      51.525609      49.54679       20            -893.1043      -948.44926    
     99020  -4101.359       31.089912     -4070.2691      297.30782      51.537242      49.551993      20            -1216.3041     -971.2806     
     99030  -4101.59        31.195793     -4070.3942      298.32034      51.539498      49.549938      20            -1432.9652     -934.06238    
     99040  -4101.9513      31.417727     -4070.5336      300.44266      51.53061       49.540837      20            -1473.4358     -820.55556    
     99050  -4101.8071      31.120478     -4070.6866      297.60012      51.510169      49.525483      20            -1299.4484     -622.47408    
     99060  -4101.4291      30.591002     -4070.8381      292.53682      51.479422      49.505285      20            -923.47423     -381.88789    
     99070  -4101.5235      30.553746     -4070.9697      292.18055      51.44121       49.481974      20            -388.59002     -167.087      
     99080  -4102.039       30.964832     -4071.0742      296.1117       51.399642      49.457149      20             245.45027      16.724763    
     99090  -4102.3494      31.193496     -4071.1559      298.29838      51.359613      49.432232      20             892.00717      228.20926    
     99100  -4102.3262      31.101714     -4071.2245      297.42068      51.326115      49.408844      20             1434.0345      501.93183    
     99110  -4102.241       30.949283     -4071.2917      295.963        51.303351      49.389039      20             1767.0725      817.36108    
     99120  -4102.1036      30.735063     -4071.3685      293.91445      51.293963      49.375172      20             1847.3863      1119.8932    
     99130  -4101.9237      30.464527     -4071.4591      291.32737      51.298693      49.369502      20             1682.4042      1329.8836    
     99140  -4102.0229      30.46287      -4071.5601      291.31152      51.31642       49.373623      20             1305.4812      1367.1491    
     99150  -4102.4212      30.757127     -4071.664       294.12545      51.344405      49.3879        20             795.65039      1206.9829    
     99160  -4102.452       30.688843     -4071.7631      293.47246      51.37888       49.411281      20             277.0225       902.08988    
     99170  -4101.6869      29.841471     -4071.8454      285.36918      51.415925      49.441625      20            -156.77904      522.64887    
     99180  -4100.8716      28.979546     -4071.8921      277.12673      51.452159      49.476153      20            -505.4784       82.401928    
     99190  -4101.1063      29.219641     -4071.8867      279.42272      51.484785      49.511568      20            -813.31994     -429.66369    
     99200  -4102.1576      30.329644     -4071.828       290.0375       51.511342      49.544031      20            -1059.0854     -959.7747     
     99210  -4102.675       30.942399     -4071.7326      295.89718      51.529887      49.56956       20            -1159.869      -1399.9488    
     99220  -4102.1405      30.522391     -4071.6181      291.88071      51.539565      49.584808      20            -1094.9244     -1666.8337    
     99230  -4101.4738      29.990144     -4071.4837      286.79092      51.540758      49.58768       20            -943.11198     -1733.158     
     99240  -4101.548       30.232901     -4071.3151      289.11236      51.534543      49.577579      20            -786.08966     -1599.5538    
     99250  -4102.0572      30.954334     -4071.1029      296.01131      51.522087      49.555429      20            -651.19788     -1262.9268    
     99260  -4102.0905      31.238336     -4070.8522      298.72717      51.504413      49.523702      20            -537.6992      -734.34605    
     99270  -4101.342       30.768342     -4070.5737      294.2327       51.482393      49.486299      20            -435.92678     -88.677643    
     99280  -4100.5388      30.266074     -4070.2728      289.42959      51.45682       49.44798       20            -332.75023      528.75262    
     99290  -4100.5529      30.597861     -4069.955       292.60241      51.428512      49.413305      20            -204.46723      975.46099    
     99300  -4101.1823      31.544444     -4069.6378      301.65443      51.39851       49.385622      20             6.9332944      1210.4351    
     99310  -4101.4853      32.137072     -4069.3482      307.32164      51.368501      49.366762      20             353.10205      1292.2145    
     99320  -4101.2182      32.113844     -4069.1044      307.09952      51.341154      49.357407      20             792.35794      1278.2572    
     99330  -4100.9506      32.042819     -4068.9078      306.42032      51.319805      49.357504      20             1200.8885      1182.4169    
     99340  -4100.9715      32.216651     -4068.7549      308.08265      51.30758       49.36639       20             1475.9353      1016.1258    
     99350  -4100.9979      32.352738     -4068.6452      309.38402      51.306639      49.382903      20             1585.3882      813.05303    
     99360  -4100.8197      32.243311     -4068.5764      308.33758      51.3179        49.405601      20             1527.2392      604.86093    
     99370  -4100.5851      32.046098     -4068.539       306.45167      51.340992      49.432974      20             1291.7472      393.32592    
     99380  -4100.5078      31.989966     -4068.5178      305.91489      51.374169      49.463457      20             871.9999       158.32539    
     99390  -4100.6395      32.140815     -4068.4986      307.35743      51.414245      49.495291      20             295.84201     -112.90448    
     99400  -4100.8261      32.351155     -4068.475       309.36888      51.456807      49.526437      20            -355.26747     -403.15899    
     99410  -4100.8044      32.353751     -4068.4507      309.39371      51.496826      49.554708      20            -966.85975     -676.83911    
     99420  -4100.5791      32.143265     -4068.4359      307.38086      51.529531      49.578006      20            -1434.3711     -928.31241    
     99430  -4100.3461      31.904693     -4068.4414      305.09944      51.551243      49.59438       20            -1685.7138     -1177.8315    
     99440  -4100.0845      31.609643     -4068.4749      302.27793      51.559946      49.60192       20            -1692.5066     -1407.2545    
     99450  -4099.7113      31.175411     -4068.5359      298.12543      51.55552       49.598904      20            -1477.3266     -1543.8011    
     99460  -4099.4319      30.818287     -4068.6136      294.71032      51.539576      49.584312      20            -1102.8661     -1517.7722    
     99470  -4099.6976      31.004787     -4068.6929      296.49378      51.514973      49.558326      20            -655.70919     -1311.9986    
     99480  -4100.6575      31.89158      -4068.7659      304.97404      51.485156      49.522482      20            -222.42963     -943.12104    
     99490  -4101.78        32.940548     -4068.8395      315.00515      51.453495      49.479563      20             148.08314     -433.42075    
     99500  -4102.1977      33.26964      -4068.928       318.15221      51.422909      49.43341       20             458.42558      181.60745    
     99510  -4101.5154      32.478837     -4069.0365      310.58988      51.395842      49.388633      20             715.67948      845.38886    
     99520  -4100.3883      31.233398     -4069.1549      298.67996      51.374281      49.350155      20             888.57897      1469.7232    
     99530  -4099.9139      30.638428     -4069.2755      292.99035      51.359545      49.322549      20             947.00097      1936.1253    
     99540  -4100.4007      30.994211     -4069.4065      296.39265      51.352088      49.3092        20             906.11061      2148.3933    
     99550  -4101.1971      31.633771     -4069.5634      302.50866      51.351615      49.311657      20             805.97317      2080.5988    
     99560  -4101.5417      31.789191     -4069.7525      303.99491      51.357379      49.329445      20             686.8558       1765.8753    
     99570  -4101.3197      31.358397     -4069.9613      299.87529      51.368478      49.360285      20             570.59928      1261.4853    
     99580  -4101.0643      30.899557     -4070.1647      295.48749      51.38401       49.40049       20             443.94412      632.83554    
     99590  -4101.1191      30.7761       -4070.343       294.30688      51.402978      49.445432      20             286.88575     -33.294857    
     99600  -4101.1959      30.70679      -4070.4891      293.64408      51.424159      49.490183      20             100.37859     -631.5014     
     99610  -4101.0822      30.47762      -4070.6046      291.45257      51.446091      49.530278      20            -113.50972     -1082.8283    
     99620  -4101.1289      30.433811     -4070.6951      291.03363      51.467095      49.562309      20            -357.8433      -1368.6547    
     99630  -4101.5913      30.820323     -4070.771       294.72978      51.485267      49.584096      20            -610.78431     -1504.2906    
     99640  -4102.084       31.237789     -4070.8463      298.72194      51.498662      49.594613      20            -826.83384     -1496.716     
     99650  -4102.1775      31.246374     -4070.9311      298.80404      51.505611      49.593923      20            -978.85788     -1355.5108    
     99660  -4101.9179      30.893114     -4071.0248      295.42587      51.50494       49.583088      20            -1057.6747     -1119.7994    
     99670  -4101.5571      30.439828     -4071.1173      291.09117      51.496065      49.563871      20            -1037.2116     -847.39804    
     99680  -4101.3753      30.178984     -4071.1963      288.59676      51.479193      49.538314      20            -881.6019      -592.56877    
     99690  -4101.5607      30.308256     -4071.2525      289.83297      51.455578      49.508345      20            -580.35033     -379.10615    
     99700  -4102.0148      30.732387     -4071.2824      293.88887      51.42758       49.475609      20            -168.35672     -185.42884    
     99710  -4102.4557      31.166825     -4071.2889      298.04332      51.398391      49.441607      20             285.15046      24.730689    
     99720  -4102.588       31.309042     -4071.279       299.40332      51.371507      49.40794       20             711.74084      266.31813    
     99730  -4102.1738      30.915448     -4071.2584      295.63945      51.350199      49.376416      20             1062.99        534.34235    
     99740  -4101.3522      30.126604     -4071.2256      288.09586      51.337133      49.349017      20             1297.2387      817.64345    
     99750  -4100.808       29.635738     -4071.1722      283.40179      51.334048      49.327814      20             1371.8149      1096.1916    
     99760  -4101.0565      29.967966     -4071.0885      286.57883      51.341466      49.314823      20             1270.0871      1345.5452    
     99770  -4101.6802      30.712403     -4070.9678      293.69776      51.358582      49.311844      20             1021.9429      1547.1525    
     99780  -4101.8972      31.089795     -4070.8074      297.3067       51.383489      49.320315      20             676.81905      1660.5114    
     99790  -4101.6995      31.096681     -4070.6028      297.37255      51.413522      49.340989      20             272.8227       1592.1476    
     99800  -4101.6298      31.286435     -4070.3434      299.18714      51.44556       49.373273      20            -151.43138      1257.2113    
     99810  -4101.7485      31.72535      -4070.0232      303.38441      51.476323      49.414662      20            -543.25321      686.61532    
     99820  -4101.6643      32.006829     -4069.6575      306.07615      51.502776      49.460944      20            -855.98688      17.585157    
     99830  -4101.2392      31.959139     -4069.28        305.6201       51.522488      49.507151      20            -1068.1324     -618.31934    
     99840  -4100.6913      31.767315     -4068.924       303.78571      51.533815      49.548524      20            -1181.7243     -1155.5761    
     99850  -4100.161       31.549388     -4068.6116      301.70172      51.535902      49.581042      20            -1203.1757     -1564.8035    
     99860  -4099.5788      31.224796     -4068.354       298.59769      51.528648      49.60168       20            -1124.9929     -1819.104     
     99870  -4099.1117      30.961409     -4068.1503      296.07897      51.512736      49.608601      20            -942.52682     -1904.7685    
     99880  -4099.1309      31.14015      -4067.9907      297.78824      51.489649      49.601265      20            -677.54486     -1808.9344    
     99890  -4099.5112      31.646928     -4067.8642      302.63447      51.461499      49.58054       20            -365.1203      -1492.6825    
     99900  -4099.7325      31.971724     -4067.7607      305.74044      51.430756      49.548945      20            -34.637882     -942.99609    
     99910  -4099.7419      32.073528     -4067.6683      306.71398      51.400013      49.510674      20             283.5556      -246.56501    
     99920  -4099.8856      32.306156     -4067.5795      308.93856      51.371739      49.470929      20             565.18794      437.164      
     99930  -4100.2018      32.701638     -4067.5001      312.7205       51.348101      49.434755      20             809.81992      961.83616    
     99940  -4100.4757      33.028411     -4067.4473      315.84537      51.330947      49.405967      20             1021.4179      1240.6545    
     99950  -4100.5988      33.161108     -4067.4377      317.11433      51.321823      49.386544      20             1180.7328      1268.0169    
     99960  -4100.518       33.03971      -4067.4783      315.95342      51.321846      49.376626      20             1256.8272      1121.5711    
     99970  -4100.1682      32.603599     -4067.5646      311.78296      51.331494      49.37509       20             1232.5312      909.46113    
     99980  -4099.6989      32.01685      -4067.682       306.17198      51.350481      49.38032       20             1094.6461      698.47659    
     99990  -4099.6123      31.79874      -4067.8135      304.08622      51.377643      49.390685      20             817.90073      489.74751    
    100000  -4100.2054      32.255317     -4067.9501      308.4524       51.410769      49.404575      20             405.20313      268.50363    
Loop time of 677.841 on 1 procs for 100000 steps with 810 atoms

Performance: 12.746 ns/day, 1.883 hours/ns, 147.527 timesteps/s, 119.497 katom-step/s
99.0% CPU use with 1 MPI tasks x no OpenMP threads

MPI task timing breakdown:
Section |  min time  |  avg time  |  max time  |%varavg| %total
---------------------------------------------------------------
Pair    | 674.95     | 674.95     | 674.95     |   0.0 | 99.57
Neigh   | 0.08714    | 0.08714    | 0.08714    |   0.0 |  0.01
Comm    | 0.12176    | 0.12176    | 0.12176    |   0.0 |  0.02
Output  | 1.1085     | 1.1085     | 1.1085     |   0.0 |  0.16
Modify  | 1.4896     | 1.4896     | 1.4896     |   0.0 |  0.22
Other   |            | 0.08002    |            |       |  0.01

Nlocal:            810 ave         810 max         810 min
Histogram: 1 0 0 0 0 0 0 0 0 0
Nghost:            509 ave         509 max         509 min
Histogram: 1 0 0 0 0 0 0 0 0 0
Neighs:              0 ave           0 max           0 min
Histogram: 1 0 0 0 0 0 0 0 0 0
FullNghs:        32708 ave       32708 max       32708 min
Histogram: 1 0 0 0 0 0 0 0 0 0

Total # of neighbors = 32708
Ave neighs/atom = 40.380247
Neighbor list builds = 126
Dangerous builds = 0

write_data      MoSe2_npt.data
System init for write_data ...
Total wall time: 0:11:17
