ITEM: TIMESTEP
2867000
ITEM: NUMBER OF ATOMS
810
ITEM: BOX BOUNDS pp pp pp
-6.4896716638354368e+00 5.9507276663834503e+01
8.1394622342039402e-01 5.0202268776579182e+01
-1.0000000000000000e+01 1.0000000000000000e+01
ITEM: ATOMS id type x y z xu yu zu
1 1 -6.18528 1.02757 -0.0953465 -6.18528 1.02757 -0.0953465
2 2 -3.70198 1.0281 1.50884 -3.70198 1.0281 1.50884
3 2 -3.70382 1.02625 -1.70085 -3.70382 1.02625 -1.70085
4 1 -2.51949 2.67367 -0.0976683 -2.51949 2.67367 -0.0976683
5 2 -0.0349864 2.67468 1.50379 -0.0349864 2.67468 1.50379
6 2 -0.0402855 2.67169 -1.70589 -0.0402855 2.67169 -1.70589
7 1 1.14699 1.02697 -0.101482 1.14699 1.02697 -0.101482
8 2 3.63554 1.02397 1.49533 3.63554 1.02397 1.49533
9 2 3.62436 1.02892 -1.71436 3.62436 1.02892 -1.71436
10 1 4.81335 2.67291 -0.111131 4.81335 2.67291 -0.111131
11 2 7.30299 2.66997 1.48401 7.30299 2.66997 1.48401
12 2 7.28981 2.6749 -1.72565 7.28981 2.6749 -1.72565
13 1 8.48099 1.0263 -0.128198 8.48099 1.0263 -0.128198
14 2 10.9715 1.02002 1.46396 10.9715 1.02002 1.46396
15 2 10.9548 1.03231 -1.74567 10.9548 1.03231 -1.74567
16 1 12.1465 2.67269 -0.14071 12.1465 2.67269 -0.14071
17 2 14.6368 2.66708 1.45275 14.6368 2.66708 1.45275
18 2 14.622 2.67841 -1.75692 14.622 2.67841 -1.75692
19 1 15.8138 1.02672 -0.163358 15.8138 1.02672 -0.163358
20 2 18.3041 1.02049 1.43048 18.3041 1.02049 1.43048
21 2 18.2901 1.03371 -1.77918 18.2901 1.03371 -1.77918
22 1 19.4807 2.67358 -0.17262 19.4807 2.67358 -0.17262
23 2 21.9682 2.66735 1.42432 21.9682 2.66735 1.42432
24 2 21.9582 2.68071 -1.78537 21.9582 2.68071 -1.78537
25 1 23.1476 1.02809 -0.190858 23.1476 1.02809 -0.190858
26 2 25.6319 1.02392 1.41104 25.6319 1.02392 1.41104
27 2 25.6287 1.03296 -1.79871 25.6287 1.03296 -1.79871
28 1 26.8138 2.6749 -0.19025 26.8138 2.6749 -0.19025
29 2 29.2969 2.67253 1.4135 29.2969 2.67253 1.4135
30 2 29.2959 2.67787 -1.79622 29.2959 2.67787 -1.79622
31 1 30.4809 1.02929 -0.194314 30.4809 1.02929 -0.194314
32 2 32.9595 1.02935 1.41506 32.9595 1.02935 1.41506
33 2 32.9658 1.03007 -1.79465 32.9658 1.03007 -1.79465
34 1 34.1462 2.67615 -0.186944 34.1462 2.67615 -0.186944
35 2 36.6238 2.67846 1.42524 36.6238 2.67846 1.42524
36 2 36.6336 2.67443 -1.78448 36.6336 2.67443 -1.78448
37 1 37.813 1.03041 -0.173852 37.813 1.03041 -0.173852
38 2 40.2885 1.03354 1.4418 40.2885 1.03354 1.4418
39 2 40.3025 1.02739 -1.76788 40.3025 1.02739 -1.76788
40 1 41.4795 2.67669 -0.160957 41.4795 2.67669 -0.160957
41 2 43.9544 2.68072 1.45473 43.9544 2.68072 1.45473
42 2 43.9682 2.67202 -1.75491 43.9682 2.67202 -1.75491
43 1 45.1454 1.03006 -0.140455 45.1454 1.03006 -0.140455
44 2 47.6213 1.03274 1.47471 47.6213 1.03274 1.47471
45 2 47.6341 1.02616 -1.73496 47.6341 1.02616 -1.73496
46 1 48.8116 2.67565 -0.128784 48.8116 2.67565 -0.128784
47 2 51.2892 2.68022 1.48476 51.2892 2.68022 1.48476
48 2 51.2999 2.6696 -1.72491 51.2999 2.6696 -1.72491
49 1 52.4786 1.02855 -0.110695 52.4786 1.02855 -0.110695
50 2 54.9576 1.03102 1.50019 54.9576 1.03102 1.50019
51 2 54.9645 1.02498 -1.7095 54.9645 1.02498 -1.7095
52 1 56.1449 2.67427 -0.105185 56.1449 2.67427 -0.105185
53 2 58.6253 2.6784 1.50334 58.6253 2.6784 1.50334
54 2 58.6293 2.66928 -1.7063 58.6293 2.66928 -1.7063
55 1 -6.18619 4.32032 -0.104748 -6.18619 4.32032 -0.104748
56 2 -3.70427 4.32568 1.50105 -3.70427 4.32568 1.50105
57 2 -3.70383 4.31409 -1.70858 -3.70383 4.31409 -1.70858
58 1 -2.52072 5.96638 -0.109587 -2.52072 5.96638 -0.109587
59 2 -0.0383871 5.97193 1.49455 -0.0383871 5.97193 1.49455
60 2 -0.0396163 5.95979 -1.71511 -0.0396163 5.95979 -1.71511
61 1 1.14562 4.31967 -0.104621 1.14562 4.31967 -0.104621
62 2 3.63273 4.32116 1.49457 3.63273 4.32116 1.49457
63 2 3.62465 4.31699 -1.71513 3.62465 4.31699 -1.71513
64 1 4.81195 5.96554 -0.115441 4.81195 5.96554 -0.115441
65 2 7.29885 5.9656 1.48385 7.29885 5.9656 1.48385
66 2 7.29121 5.96443 -1.72584 7.29121 5.96443 -1.72584
67 1 8.47975 4.31893 -0.123184 8.47975 4.31893 -0.123184
68 2 10.9682 4.31519 1.47231 10.9682 4.31519 1.47231
69 2 10.9556 4.3222 -1.73738 10.9556 4.3222 -1.73738
70 1 12.1453 5.96517 -0.133631 12.1453 5.96517 -0.133631
71 2 14.6352 5.96192 1.46134 14.6352 5.96192 1.46134
72 2 14.6219 5.96846 -1.74837 14.6219 5.96846 -1.74837
73 1 15.813 4.3192 -0.151672 15.813 4.3192 -0.151672
74 2 18.3029 4.31356 1.44306 18.3029 4.31356 1.44306
75 2 18.2897 4.32555 -1.76662 18.2897 4.32555 -1.76662
76 1 19.4799 5.96604 -0.160453 19.4799 5.96604 -0.160453
77 2 21.9675 5.96167 1.43627 21.9675 5.96167 1.43627
78 2 21.9571 5.97124 -1.77343 21.9571 5.97124 -1.77343
79 1 23.1468 4.32052 -0.177285 23.1468 4.32052 -0.177285
80 2 25.6333 4.31697 1.42137 25.6333 4.31697 1.42137
81 2 25.6254 4.3247 -1.78835 25.6254 4.3247 -1.78835
82 1 26.8129 5.96735 -0.182247 26.8129 5.96735 -0.182247
83 2 29.2973 5.96524 1.41958 29.2973 5.96524 1.41958
84 2 29.2938 5.97002 -1.79012 29.2938 5.97002 -1.79012
85 1 30.48 4.32167 -0.188879 30.48 4.32167 -0.188879
86 2 32.9605 4.32119 1.41767 32.9605 4.32119 1.41767
87 2 32.963 4.32291 -1.79203 32.963 4.32291 -1.79203
88 1 34.1453 5.9685 -0.185249 34.1453 5.9685 -0.185249
89 2 36.6257 5.97137 1.42266 36.6257 5.97137 1.42266
90 2 36.6298 5.96615 -1.78706 36.6298 5.96615 -1.78706
91 1 37.8123 4.32283 -0.177888 37.8123 4.32283 -0.177888
92 2 40.2897 4.32718 1.43528 40.2897 4.32718 1.43528
93 2 40.3007 4.31847 -1.77441 40.3007 4.31847 -1.77441
94 1 41.4787 5.96921 -0.169878 41.4787 5.96921 -0.169878
95 2 43.9544 5.97475 1.44462 43.9544 5.97475 1.44462
96 2 43.9671 5.96292 -1.76502 43.9671 5.96292 -1.76502
97 1 45.1451 4.32263 -0.14945 45.1451 4.32263 -0.14945
98 2 47.6212 4.32805 1.46521 47.6212 4.32805 1.46521
99 2 47.6335 4.31586 -1.74445 47.6335 4.31586 -1.74445
100 1 48.811 5.96823 -0.141377 48.811 5.96823 -0.141377
101 2 51.2891 5.9756 1.47127 51.2891 5.9756 1.47127
102 2 51.2988 5.95926 -1.73836 51.2988 5.95926 -1.73836
103 1 52.4783 4.32116 -0.121589 52.4783 4.32116 -0.121589
104 2 54.9568 4.32739 1.48973 54.9568 4.32739 1.48973
105 2 54.9645 4.31371 -1.71992 54.9645 4.31371 -1.71992
106 1 56.1441 5.96698 -0.119285 56.1441 5.96698 -0.119285
107 2 58.6234 5.9743 1.49007 58.6234 5.9743 1.49007
108 2 58.6289 5.95869 -1.71952 58.6289 5.95869 -1.71952
109 1 -6.18747 7.613 -0.120842 -6.18747 7.613 -0.120842
110 2 -3.70691 7.61984 1.48663 -3.70691 7.61984 1.48663
111 2 -3.70384 7.60516 -1.72303 -3.70384 7.60516 -1.72303
112 1 -2.52217 9.25896 -0.12473 -2.52217 9.25896 -0.12473
113 2 -0.0403855 9.26508 1.48077 -0.0403855 9.26508 1.48077
114 2 -0.0399963 9.25167 -1.7289 -0.0399963 9.25167 -1.7289
115 1 1.14439 7.61223 -0.117002 1.14439 7.61223 -0.117002
116 2 3.62818 7.61524 1.48645 3.62818 7.61524 1.48645
117 2 3.62615 7.60801 -1.72326 3.62615 7.60801 -1.72326
118 1 4.81045 9.25805 -0.123007 4.81045 9.25805 -0.123007
119 2 7.29538 9.25956 1.47958 7.29538 9.25956 1.47958
120 2 7.29198 9.25549 -1.73016 7.29198 9.25549 -1.73016
121 1 8.47837 7.61148 -0.124471 8.47837 7.61148 -0.124471
122 2 10.9647 7.61107 1.47441 10.9647 7.61107 1.47441
123 2 10.9567 7.61137 -1.73531 10.9567 7.61137 -1.73531
124 1 12.1443 9.25759 -0.133296 12.1443 9.25759 -0.133296
125 2 14.6318 9.25551 1.46511 14.6318 9.25551 1.46511
126 2 14.6231 9.25969 -1.74462 14.6231 9.25969 -1.74462
127 1 15.8121 7.61165 -0.144988 15.8121 7.61165 -0.144988
128 2 18.3004 7.60806 1.45209 18.3004 7.60806 1.45209
129 2 18.2903 7.61588 -1.75761 18.2903 7.61588 -1.75761
130 1 19.4788 9.25851 -0.152468 19.4788 9.25851 -0.152468
131 2 21.9663 9.25535 1.44471 21.9663 9.25535 1.44471
132 2 21.9561 9.26251 -1.76499 21.9561 9.26251 -1.76499
133 1 23.1457 7.613 -0.167489 23.1457 7.613 -0.167489
134 2 25.633 7.60893 1.4303 25.633 7.60893 1.4303
135 2 25.6238 7.6177 -1.77942 25.6238 7.6177 -1.77942
136 1 26.8119 9.25984 -0.173376 26.8119 9.25984 -0.173376
137 2 29.2984 9.25817 1.42557 29.2984 9.25817 1.42557
138 2 29.2908 9.26209 -1.7841 29.2908 9.26209 -1.7841
139 1 30.4791 7.61415 -0.183968 30.4791 7.61415 -0.183968
140 2 32.9615 7.61476 1.41966 32.9615 7.61476 1.41966
141 2 32.9603 7.61416 -1.79004 32.9603 7.61416 -1.79004
142 1 34.1444 9.26098 -0.185813 34.1444 9.26098 -0.185813
143 2 36.6263 9.26319 1.41923 36.6263 9.26319 1.41923
144 2 36.6267 9.25919 -1.79045 36.6267 9.25919 -1.79045
145 1 37.8112 7.61524 -0.183147 37.8112 7.61524 -0.183147
146 2 40.2899 7.61925 1.42768 40.2899 7.61925 1.42768
147 2 40.2981 7.6111 -1.78202 40.2981 7.6111 -1.78202
148 1 41.4771 9.26171 -0.178226 41.4771 9.26171 -0.178226
149 2 43.9545 9.26683 1.43392 43.9545 9.26683 1.43392
150 2 43.9641 9.25566 -1.77573 43.9641 9.25566 -1.77573
151 1 45.1442 7.61521 -0.161587 45.1442 7.61521 -0.161587
152 2 47.6208 7.62126 1.45226 47.6208 7.62126 1.45226
153 2 47.6325 7.60774 -1.75741 47.6325 7.60774 -1.75741
154 1 48.81 9.26089 -0.155309 48.81 9.26089 -0.155309
155 2 51.2889 9.26772 1.45569 51.2889 9.26772 1.45569
156 2 51.2967 9.25236 -1.75392 51.2967 9.25236 -1.75392
157 1 52.4775 7.61382 -0.138332 52.4775 7.61382 -0.138332
158 2 54.9554 7.62244 1.47296 54.9554 7.62244 1.47296
159 2 54.9637 7.60383 -1.73666 54.9637 7.60383 -1.73666
160 1 56.1427 9.25966 -0.138332 56.1427 9.25966 -0.138332
161 2 58.621 9.26797 1.47218 58.621 9.26797 1.47218
162 2 58.6284 9.2502 -1.73742 58.6284 9.2502 -1.73742
163 1 -6.18916 10.9056 -0.139119 -6.18916 10.9056 -0.139119
164 2 -3.70941 10.9135 1.46963 -3.70941 10.9135 1.46963
165 2 -3.70446 10.8965 -1.74001 -3.70446 10.8965 -1.74001
166 1 -2.52371 12.5514 -0.142144 -2.52371 12.5514 -0.142144
167 2 -0.0436757 12.5572 1.46593 -0.0436757 12.5572 1.46593
168 2 -0.0395072 12.5444 -1.74376 -0.0395072 12.5444 -1.74376
169 1 1.14314 10.9047 -0.130791 1.14314 10.9047 -0.130791
170 2 3.62488 10.9097 1.47554 3.62488 10.9097 1.47554
171 2 3.62666 10.8986 -1.73418 3.62666 10.8986 -1.73418
172 1 4.80918 12.5504 -0.134436 4.80918 12.5504 -0.134436
173 2 7.29187 12.5543 1.4714 7.29187 12.5543 1.4714
174 2 7.29301 12.5457 -1.73831 7.29301 12.5457 -1.73831
175 1 8.47707 10.9039 -0.128766 8.47707 10.9039 -0.128766
176 2 10.9626 10.905 1.47224 10.9626 10.905 1.47224
177 2 10.9569 10.9023 -1.7375 10.9569 10.9023 -1.7375
178 1 12.1433 12.55 -0.136111 12.1433 12.55 -0.136111
179 2 14.6288 12.5506 1.46525 14.6288 12.5506 1.46525
180 2 14.6241 12.5496 -1.74447 14.6241 12.5496 -1.74447
181 1 15.811 10.9041 -0.140878 15.811 10.9041 -0.140878
182 2 18.2986 10.9026 1.45749 18.2986 10.9026 1.45749
183 2 18.2898 10.9062 -1.75222 18.2898 10.9062 -1.75222
184 1 19.4776 12.551 -0.148696 19.4776 12.551 -0.148696
185 2 21.9643 12.5491 1.45003 21.9643 12.5491 1.45003
186 2 21.9561 12.5538 -1.75968 21.9561 12.5538 -1.75968
187 1 23.1447 10.9055 -0.16022 23.1447 10.9055 -0.16022
188 2 25.6322 10.9034 1.43742 25.6322 10.9034 1.43742
189 2 25.6226 10.9083 -1.77229 25.6226 10.9083 -1.77229
190 1 26.8109 12.5524 -0.168411 26.8109 12.5524 -0.168411
191 2 29.2984 12.5525 1.42873 29.2984 12.5525 1.42873
192 2 29.2885 12.5529 -1.78094 29.2885 12.5529 -1.78094
193 1 30.478 10.9067 -0.179926 30.478 10.9067 -0.179926
194 2 32.9628 10.9079 1.42014 32.9628 10.9079 1.42014
195 2 32.9569 10.9061 -1.78951 32.9569 10.9061 -1.78951
196 1 34.1432 12.5536 -0.187643 34.1432 12.5536 -0.187643
197 2 36.6254 12.5551 1.41623 36.6254 12.5551 1.41623
198 2 36.6248 12.5524 -1.79344 36.6248 12.5524 -1.79344
199 1 37.8099 10.9078 -0.187338 37.8099 10.9078 -0.187338
200 2 40.2899 10.9116 1.42079 40.2899 10.9116 1.42079
201 2 40.2945 10.9037 -1.78889 40.2945 10.9037 -1.78889
202 1 41.4753 12.5542 -0.186229 41.4753 12.5542 -0.186229
203 2 43.954 12.5592 1.42365 43.954 12.5592 1.42365
204 2 43.9609 12.5483 -1.78602 43.9609 12.5483 -1.78602
205 1 45.1424 10.9078 -0.173047 45.1424 10.9078 -0.173047
206 2 47.6206 10.9144 1.4387 47.6206 10.9144 1.4387
207 2 47.6296 10.8996 -1.77095 47.6296 10.8996 -1.77095
208 1 48.8081 12.5536 -0.170402 48.8081 12.5536 -0.170402
209 2 51.2872 12.56 1.44031 51.2872 12.56 1.44031
210 2 51.295 12.5454 -1.76931 51.295 12.5454 -1.76931
211 1 52.476 10.9066 -0.154189 52.476 10.9066 -0.154189
212 2 54.9547 10.9141 1.45558 54.9547 10.9141 1.45558
213 2 54.961 10.8975 -1.75404 54.961 10.8975 -1.75404
214 1 56.1409 12.5523 -0.155418 56.1409 12.5523 -0.155418
215 2 58.6194 12.5601 1.45456 58.6194 12.5601 1.45456
216 2 58.6263 12.5432 -1.75505 58.6263 12.5432 -1.75505
217 1 -6.19094 14.1981 -0.15639 -6.19094 14.1981 -0.15639
218 2 -3.71129 14.2051 1.45278 -3.71129 14.2051 1.45278
219 2 -3.70556 14.1899 -1.75688 -3.70556 14.1899 -1.75688
220 1 -2.52502 15.8438 -0.157744 -2.52502 15.8438 -0.157744
221 2 -0.0461902 15.8494 1.45203 -0.0461902 15.8494 1.45203
222 2 -0.0396264 15.837 -1.75764 -0.0396264 15.837 -1.75764
223 1 1.14169 14.1971 -0.144044 1.14169 14.1971 -0.144044
224 2 3.62254 14.2014 1.464 3.62254 14.2014 1.464
225 2 3.62662 14.1917 -1.74572 3.62662 14.1917 -1.74572
226 1 4.80819 15.8428 -0.144431 4.80819 15.8428 -0.144431
227 2 7.29067 15.8467 1.4623 7.29067 15.8467 1.4623
228 2 7.29262 15.8382 -1.74741 7.29262 15.8382 -1.74741
229 1 8.47607 14.1963 -0.137508 8.47607 14.1963 -0.137508
230 2 10.9593 14.1984 1.46676 10.9593 14.1984 1.46676
231 2 10.9582 14.1937 -1.74297 10.9582 14.1937 -1.74297
232 1 12.1423 15.8425 -0.140965 12.1423 15.8425 -0.140965
233 2 14.6271 15.8446 1.46196 14.6271 15.8446 1.46196
234 2 14.6242 15.8406 -1.74776 14.6242 15.8406 -1.74776
235 1 15.8101 14.1965 -0.141903 15.8101 14.1965 -0.141903
236 2 18.2959 14.1963 1.45885 18.2959 14.1963 1.45885
237 2 18.2903 14.1976 -1.75085 18.2903 14.1976 -1.75085
238 1 19.4768 15.8434 -0.147504 19.4768 15.8434 -0.147504
239 2 21.9626 15.8432 1.45259 21.9626 15.8432 1.45259
240 2 21.9562 15.8447 -1.75712 21.9562 15.8447 -1.75712
241 1 23.1438 14.1979 -0.155552 23.1438 14.1979 -0.155552
242 2 25.6317 14.1976 1.44122 25.6317 14.1976 1.44122
243 2 25.6209 14.1992 -1.76847 25.6209 14.1992 -1.76847
244 1 26.8098 15.845 -0.166752 26.8098 15.845 -0.166752
245 2 29.2975 15.8448 1.42984 29.2975 15.8448 1.42984
246 2 29.2869 15.846 -1.77979 29.2869 15.846 -1.77979
247 1 30.4768 14.1994 -0.179402 30.4768 14.1994 -0.179402
248 2 32.9618 14.1988 1.42022 32.9618 14.1988 1.42022
249 2 32.9555 14.2005 -1.78941 32.9555 14.2005 -1.78941
250 1 34.142 15.8463 -0.18597 34.142 15.8463 -0.18597
251 2 36.6254 15.8466 1.41582 36.6254 15.8466 1.41582
252 2 36.6216 15.8463 -1.79381 36.6216 15.8463 -1.79381
253 1 37.8083 14.2004 -0.19013 37.8083 14.2004 -0.19013
254 2 40.2895 14.2025 1.41565 40.2895 14.2025 1.41565
255 2 40.2912 14.1981 -1.79402 40.2912 14.1981 -1.79402
256 1 41.4735 15.8468 -0.190793 41.4735 15.8468 -0.190793
257 2 43.9545 15.8508 1.41541 43.9545 15.8508 1.41541
258 2 43.9567 15.8421 -1.79424 43.9567 15.8421 -1.79424
259 1 45.1405 14.2003 -0.184185 45.1405 14.2003 -0.184185
260 2 47.62 14.2063 1.42532 47.62 14.2063 1.42532
261 2 47.6262 14.193 -1.78434 47.6262 14.193 -1.78434
262 1 48.8061 15.8462 -0.183989 48.8061 15.8462 -0.183989
263 2 51.2855 15.8521 1.42619 51.2855 15.8521 1.42619
264 2 51.2928 15.8388 -1.78343 51.2928 15.8388 -1.78343
265 1 52.4741 14.1993 -0.169213 52.4741 14.1993 -0.169213
266 2 54.9528 14.2047 1.44059 54.9528 14.2047 1.44059
267 2 54.9594 14.1923 -1.76905 54.9594 14.1923 -1.76905
268 1 56.1392 15.845 -0.168345 56.1392 15.845 -0.168345
269 2 58.6192 15.851 1.43991 58.6192 15.851 1.43991
270 2 58.6235 15.8375 -1.76973 58.6235 15.8375 -1.76973
271 1 -6.19213 17.4905 -0.170268 -6.19213 17.4905 -0.170268
272 2 -3.71208 17.4966 1.43839 -3.71208 17.4966 1.43839
273 2 -3.707 17.4833 -1.77129 -3.707 17.4833 -1.77129
274 1 -2.52587 19.1362 -0.171308 -2.52587 19.1362 -0.171308
275 2 -0.0472388 19.1415 1.43925 -0.0472388 19.1415 1.43925
276 2 -0.0395463 19.1299 -1.77044 -0.0395463 19.1299 -1.77044
277 1 1.14075 17.4895 -0.156813 1.14075 17.4895 -0.156813
278 2 3.62065 17.4939 1.45308 3.62065 17.4939 1.45308
279 2 3.62716 17.4841 -1.75664 3.62716 17.4841 -1.75664
280 1 4.80785 19.1352 -0.154573 4.80785 19.1352 -0.154573
281 2 7.28965 19.1393 1.45305 7.28965 19.1393 1.45305
282 2 7.29285 19.1306 -1.75665 7.29285 19.1306 -1.75665
283 1 8.47544 17.4887 -0.146193 8.47544 17.4887 -0.146193
284 2 10.9578 17.493 1.45926 10.9578 17.493 1.45926
285 2 10.9583 17.4842 -1.75043 10.9583 17.4842 -1.75043
286 1 12.142 19.1349 -0.149835 12.142 19.1349 -0.149835
287 2 14.6248 19.1378 1.45575 14.6248 19.1378 1.45575
288 2 14.6256 19.1324 -1.75397 14.6256 19.1324 -1.75397
289 1 15.8094 17.489 -0.14601 15.8094 17.489 -0.14601
290 2 18.2934 17.4898 1.45766 18.2934 17.4898 1.45766
291 2 18.2918 17.4891 -1.75203 18.2918 17.4891 -1.75203
292 1 19.4765 19.1359 -0.148311 19.4765 19.1359 -0.148311
293 2 21.9619 19.1374 1.45238 21.9619 19.1374 1.45238
294 2 21.9559 19.1358 -1.75729 21.9559 19.1358 -1.75729
295 1 23.1431 17.4905 -0.153982 23.1431 17.4905 -0.153982
296 2 25.6308 17.4903 1.44284 25.6308 17.4903 1.44284
297 2 25.62 17.4919 -1.76682 25.62 17.4919 -1.76682
298 1 26.809 19.1377 -0.165174 26.809 19.1377 -0.165174
299 2 29.2965 19.1372 1.43159 29.2965 19.1372 1.43159
300 2 29.286 19.1394 -1.77803 29.286 19.1394 -1.77803
301 1 30.4756 17.4921 -0.178104 30.4756 17.4921 -0.178104
302 2 32.9607 17.4923 1.42136 32.9607 17.4923 1.42136
303 2 32.9541 17.4926 -1.78825 32.9541 17.4926 -1.78825
304 1 34.1409 19.1391 -0.185617 34.1409 19.1391 -0.185617
305 2 36.6245 19.1397 1.41553 36.6245 19.1397 1.41553
306 2 36.6201 19.1389 -1.7941 36.6201 19.1389 -1.7941
307 1 37.8068 17.4931 -0.190456 37.8068 17.4931 -0.190456
308 2 40.2899 17.495 1.41269 40.2899 17.495 1.41269
309 2 40.2879 17.491 -1.79696 40.2879 17.491 -1.79696
310 1 41.4724 19.1395 -0.194821 41.4724 19.1395 -0.194821
311 2 43.9545 19.1415 1.40952 43.9545 19.1415 1.40952
312 2 43.9541 19.1369 -1.80012 43.9541 19.1369 -1.80012
313 1 45.1389 17.493 -0.192992 45.1389 17.493 -0.192992
314 2 47.6191 17.4967 1.4148 47.6191 17.4967 1.4148
315 2 47.6234 17.4881 -1.79487 47.6234 17.4881 -1.79487
316 1 48.8046 19.1389 -0.192861 48.8046 19.1389 -0.192861
317 2 51.2853 19.1431 1.41538 51.2853 19.1431 1.41538
318 2 51.29 19.1334 -1.79429 51.29 19.1334 -1.79429
319 1 52.4723 17.492 -0.182747 52.4723 17.492 -0.182747
320 2 54.951 17.4977 1.4273 54.951 17.4977 1.4273
321 2 54.958 17.4847 -1.78234 54.958 17.4847 -1.78234
322 1 56.138 19.1375 -0.181735 56.138 19.1375 -0.181735
323 2 58.6178 19.1423 1.42698 58.6178 19.1423 1.42698
324 2 58.623 19.1313 -1.78266 58.623 19.1313 -1.78266
325 1 -6.19267 20.783 -0.181681 -6.19267 20.783 -0.181681
326 2 -3.71275 20.7866 1.42725 -3.71275 20.7866 1.42725
327 2 -3.70721 20.7784 -1.78247 -3.70721 20.7784 -1.78247
328 1 -2.52582 22.4285 -0.179823 -2.52582 22.4285 -0.179823
329 2 -0.046586 22.4315 1.43016 -0.046586 22.4315 1.43016
330 2 -0.0395807 22.4249 -1.77953 -0.0395807 22.4249 -1.77953
331 1 1.14072 20.7818 -0.168728 1.14072 20.7818 -0.168728
332 2 3.61994 20.7869 1.442 3.61994 20.7869 1.442
333 2 3.62769 20.7761 -1.7677 3.62769 20.7761 -1.7677
334 1 4.80799 22.4276 -0.16563 4.80799 22.4276 -0.16563
335 2 7.28892 22.4323 1.44302 7.28892 22.4323 1.44302
336 2 7.29382 22.4227 -1.76667 7.29382 22.4227 -1.76667
337 1 8.47529 20.7812 -0.155194 8.47529 20.7812 -0.155194
338 2 10.9576 20.7852 1.45051 10.9576 20.7852 1.45051
339 2 10.9583 20.7771 -1.75919 10.9583 20.7771 -1.75919
340 1 12.1422 22.4274 -0.158181 12.1422 22.4274 -0.158181
341 2 14.6242 22.4316 1.44849 14.6242 22.4316 1.44849
342 2 14.6265 22.4238 -1.76119 14.6265 22.4238 -1.76119
343 1 15.8093 20.7815 -0.151569 15.8093 20.7815 -0.151569
344 2 18.2924 20.785 1.45361 18.2924 20.785 1.45361
345 2 18.2925 20.7791 -1.75606 18.2925 20.7791 -1.75606
346 1 19.4765 22.4285 -0.154262 19.4765 22.4285 -0.154262
347 2 21.9609 22.4324 1.44778 21.9609 22.4324 1.44778
348 2 21.9566 22.4263 -1.76188 21.9566 22.4263 -1.76188
349 1 23.1428 20.7831 -0.155565 23.1428 20.7831 -0.155565
350 2 25.6295 20.7843 1.44262 25.6295 20.7843 1.44262
351 2 25.6203 20.7835 -1.76703 25.6203 20.7835 -1.76703
352 1 26.8089 22.4305 -0.165961 26.8089 22.4305 -0.165961
353 2 29.2955 22.4315 1.43194 29.2955 22.4315 1.43194
354 2 29.2863 22.4308 -1.77767 29.2863 22.4308 -1.77767
355 1 30.475 20.7849 -0.175879 30.475 20.7849 -0.175879
356 2 32.9607 20.785 1.42247 32.9607 20.785 1.42247
357 2 32.9524 20.7856 -1.78712 32.9524 20.7856 -1.78712
358 1 34.1403 22.4319 -0.18497 34.1403 22.4319 -0.18497
359 2 36.6246 22.4323 1.41534 36.6246 22.4323 1.41534
360 2 36.619 22.4319 -1.79429 36.619 22.4319 -1.79429
361 1 37.8059 20.7858 -0.191315 37.8059 20.7858 -0.191315
362 2 40.2899 20.7865 1.41053 40.2899 20.7865 1.41053
363 2 40.2862 20.785 -1.7991 40.2862 20.785 -1.7991
364 1 41.4719 22.4322 -0.196348 41.4719 22.4322 -0.196348
365 2 43.9544 22.4326 1.40698 43.9544 22.4326 1.40698
366 2 43.9528 22.4313 -1.80267 43.9528 22.4313 -1.80267
367 1 45.1378 20.7856 -0.19769 45.1378 20.7856 -0.19769
368 2 47.6193 20.7883 1.40815 47.6193 20.7883 1.40815
369 2 47.621 20.7821 -1.80153 47.621 20.7821 -1.80153
370 1 48.8039 22.4315 -0.199197 48.8039 22.4315 -0.199197
371 2 51.2849 22.4334 1.40815 51.2849 22.4334 1.40815
372 2 51.2888 22.4285 -1.80153 51.2888 22.4285 -1.80153
373 1 52.4712 20.7846 -0.192717 52.4712 20.7846 -0.192717
374 2 54.951 20.789 1.41599 54.951 20.789 1.41599
375 2 54.9563 20.7787 -1.79369 54.9563 20.7787 -1.79369
376 1 56.1375 22.43 -0.192131 56.1375 22.43 -0.192131
377 2 58.6169 22.4328 1.41734 58.6169 22.4328 1.41734
378 2 58.6235 22.426 -1.79234 58.6235 22.426 -1.79234
379 1 -6.19258 24.0755 -0.188603 -6.19258 24.0755 -0.188603
380 2 -3.71323 24.0757 1.42161 -3.71323 24.0757 1.42161
381 2 -3.70571 24.0743 -1.78812 -3.70571 24.0743 -1.78812
382 1 -2.52493 25.7209 -0.181336 -2.52493 25.7209 -0.181336
383 2 -0.0451774 25.7203 1.42771 -0.0451774 25.7203 1.42771
384 2 -0.0393652 25.7212 -1.782 -0.0393652 25.7212 -1.782
385 1 1.1413 24.0742 -0.175561 1.1413 24.0742 -0.175561
386 2 3.62131 24.0774 1.43367 3.62131 24.0774 1.43367
387 2 3.62723 24.0706 -1.77604 3.62723 24.0706 -1.77604
388 1 4.80875 25.7201 -0.172529 4.80875 25.7201 -0.172529
389 2 7.29016 25.7232 1.43526 7.29016 25.7232 1.43526
390 2 7.29408 25.7171 -1.77443 7.29408 25.7171 -1.77443
391 1 8.47569 24.0737 -0.165039 8.47569 24.0737 -0.165039
392 2 10.9571 24.0773 1.44196 10.9571 24.0773 1.44196
393 2 10.9598 24.0703 -1.76771 10.9598 24.0703 -1.76771
394 1 12.1431 25.7199 -0.165557 12.1431 25.7199 -0.165557
395 2 14.6258 25.7254 1.44 14.6258 25.7254 1.44
396 2 14.6265 25.7154 -1.76966 14.6265 25.7154 -1.76966
397 1 15.8097 24.074 -0.159483 15.8097 24.074 -0.159483
398 2 18.2928 24.0799 1.44539 18.2928 24.0799 1.44539
399 2 18.2925 24.0695 -1.76425 18.2925 24.0695 -1.76425
400 1 19.4769 25.7211 -0.164887 19.4769 25.7211 -0.164887
401 2 21.9601 25.7272 1.43857 21.9601 25.7272 1.43857
402 2 21.958 25.7169 -1.77106 21.958 25.7169 -1.77106
403 1 23.1428 24.0758 -0.161793 23.1428 24.0758 -0.161793
404 2 25.6283 24.0794 1.43851 25.6283 24.0794 1.43851
405 2 25.6218 24.0741 -1.77114 25.6218 24.0741 -1.77114
406 1 26.8093 25.7232 -0.17142 26.8093 25.7232 -0.17142
407 2 29.295 25.727 1.42798 29.295 25.727 1.42798
408 2 29.2875 25.7211 -1.78163 29.2875 25.7211 -1.78163
409 1 30.4749 24.0777 -0.176518 30.4749 24.0777 -0.176518
410 2 32.9602 24.0785 1.42235 32.9602 24.0785 1.42235
411 2 32.9524 24.0779 -1.78724 32.9524 24.0779 -1.78724
412 1 34.1405 25.7246 -0.185538 34.1405 25.7246 -0.185538
413 2 36.6249 25.7252 1.41491 36.6249 25.7252 1.41491
414 2 36.6192 25.7247 -1.7947 36.6192 25.7247 -1.7947
415 1 37.8058 24.0785 -0.191689 37.8058 24.0785 -0.191689
416 2 40.2898 24.0784 1.40998 40.2898 24.0784 1.40998
417 2 40.2859 24.0786 -1.79966 40.2859 24.0786 -1.79966
418 1 41.4719 25.7248 -0.196138 41.4719 25.7248 -0.196138
419 2 43.9545 25.724 1.40708 43.9545 25.724 1.40708
420 2 43.9528 25.7254 -1.80257 43.9528 25.7254 -1.80257
421 1 45.1375 24.0782 -0.199106 45.1375 24.0782 -0.199106
422 2 47.62 24.0782 1.40531 47.62 24.0782 1.40531
423 2 47.6198 24.0775 -1.80438 47.6198 24.0775 -1.80438
424 1 48.8041 25.724 -0.199919 48.8041 25.724 -0.199919
425 2 51.2852 25.7223 1.40713 51.2852 25.7223 1.40713
426 2 51.2888 25.7249 -1.80258 51.2888 25.7249 -1.80258
427 1 52.4708 24.0771 -0.197873 52.4708 24.0771 -0.197873
428 2 54.951 24.0771 1.41031 54.951 24.0771 1.41031
429 2 54.956 24.0758 -1.79941 54.956 24.0758 -1.79941
430 1 56.1377 25.7225 -0.19344 56.1377 25.7225 -0.19344
431 2 58.6177 25.7205 1.41561 58.6177 25.7205 1.41561
432 2 58.6236 25.7234 -1.7941 58.6236 25.7234 -1.7941
433 1 -6.19174 27.3679 -0.185619 -6.19174 27.3679 -0.185619
434 2 -3.71164 27.3648 1.42403 -3.71164 27.3648 1.42403
435 2 -3.70503 27.3702 -1.78569 -3.70503 27.3702 -1.78569
436 1 -2.5236 29.0134 -0.175666 -2.5236 29.0134 -0.175666
437 2 -0.0430148 29.01 1.43219 -0.0430148 29.01 1.43219
438 2 -0.0390443 29.0166 -1.77751 -0.0390443 29.0166 -1.77751
439 1 1.1423 27.3667 -0.174691 1.1423 27.3667 -0.174691
440 2 3.62387 27.3656 1.43236 3.62387 27.3656 1.43236
441 2 3.62687 27.3677 -1.77736 3.62687 27.3677 -1.77736
442 1 4.8102 29.0126 -0.170435 4.8102 29.0126 -0.170435
443 2 7.29422 29.0133 1.43353 7.29422 29.0133 1.43353
444 2 7.29294 29.0122 -1.77618 7.29294 29.0122 -1.77618
445 1 8.47684 27.3662 -0.171267 8.47684 27.3662 -0.171267
446 2 10.959 27.3705 1.43464 10.959 27.3705 1.43464
447 2 10.9604 27.3624 -1.77504 10.9604 27.3624 -1.77504
448 1 12.1444 29.0125 -0.173821 12.1444 29.0125 -0.173821
449 2 14.6281 29.0188 1.42984 14.6281 29.0188 1.42984
450 2 14.6267 29.0074 -1.77981 14.6267 29.0074 -1.77981
451 1 15.8107 27.3666 -0.169695 15.8107 27.3666 -0.169695
452 2 18.2939 27.3733 1.43435 18.2939 27.3733 1.43435
453 2 18.2927 27.3616 -1.77526 18.2927 27.3616 -1.77526
454 1 19.478 29.0138 -0.176881 19.478 29.0138 -0.176881
455 2 21.9609 29.0212 1.42667 21.9609 29.0212 1.42667
456 2 21.9591 29.0085 -1.78293 21.9591 29.0085 -1.78293
457 1 23.1434 27.3685 -0.172317 23.1434 27.3685 -0.172317
458 2 25.6276 27.3745 1.42975 25.6276 27.3745 1.42975
459 2 25.6237 27.3646 -1.77989 25.6237 27.3646 -1.77989
460 1 26.8101 29.0159 -0.181632 26.8101 29.0159 -0.181632
461 2 29.2945 29.0208 1.41982 29.2945 29.0208 1.41982
462 2 29.2899 29.0129 -1.78981 29.2899 29.0129 -1.78981
463 1 30.4756 27.3704 -0.182492 30.4756 27.3704 -0.182492
464 2 32.9594 27.3734 1.41859 32.9594 27.3734 1.41859
465 2 32.9546 27.3687 -1.79102 32.9546 27.3687 -1.79102
466 1 34.1416 29.0172 -0.190418 34.1416 29.0172 -0.190418
467 2 36.624 29.0183 1.41267 36.624 29.0183 1.41267
468 2 36.6221 29.017 -1.79695 36.6221 29.017 -1.79695
469 1 37.8065 27.3711 -0.192235 37.8065 27.3711 -0.192235
470 2 40.2897 27.3708 1.41025 40.2897 27.3708 1.41025
471 2 40.2868 27.3718 -1.79939 40.2868 27.3718 -1.79939
472 1 41.4728 29.0174 -0.195082 41.4728 29.0174 -0.195082
473 2 43.9544 29.0145 1.40987 43.9544 29.0145 1.40987
474 2 43.9549 29.0202 -1.7998 43.9549 29.0202 -1.7998
475 1 45.1381 27.3708 -0.197665 45.1381 27.3708 -0.197665
476 2 47.6198 27.3673 1.4078 47.6198 27.3673 1.4078
477 2 47.621 27.3738 -1.8019 47.621 27.3738 -1.8019
478 1 48.8049 29.0165 -0.193308 48.8049 29.0165 -0.193308
479 2 51.2865 29.0115 1.41354 51.2865 29.0115 1.41354
480 2 51.2895 29.0208 -1.79618 51.2895 29.0208 -1.79618
481 1 52.4715 27.3696 -0.195057 52.4715 27.3696 -0.195057
482 2 54.9517 27.3659 1.41301 54.9517 27.3659 1.41301
483 2 54.9564 27.3722 -1.79672 54.9564 27.3722 -1.79672
484 1 56.1386 29.015 -0.186884 56.1386 29.015 -0.186884
485 2 58.6186 29.009 1.42254 58.6186 29.009 1.42254
486 2 58.6251 29.0199 -1.78715 58.6251 29.0199 -1.78715
487 1 -6.19028 30.6603 -0.174419 -6.19028 30.6603 -0.174419
488 2 -3.70898 30.6543 1.43365 -3.70898 30.6543 1.43365
489 2 -3.70471 30.6658 -1.77606 -3.70471 30.6658 -1.77606
490 1 -2.52204 32.306 -0.163761 -2.52204 32.306 -0.163761
491 2 -0.0400483 32.3006 1.44207 -0.0400483 32.3006 1.44207
492 2 -0.0387085 32.3112 -1.76764 -0.0387085 32.3112 -1.76764
493 1 1.14376 30.6593 -0.167912 1.14376 30.6593 -0.167912
494 2 3.627 30.6568 1.43702 3.627 30.6568 1.43702
495 2 3.62713 30.6616 -1.77271 3.62713 30.6616 -1.77271
496 1 4.81202 32.3052 -0.165439 4.81202 32.3052 -0.165439
497 2 7.298 32.3045 1.43537 7.298 32.3045 1.43537
498 2 7.29271 32.3062 -1.77434 7.29271 32.3062 -1.77434
499 1 8.4785 30.6587 -0.172357 8.4785 30.6587 -0.172357
500 2 10.9631 30.6623 1.42923 10.9631 30.6623 1.42923
501 2 10.959 30.6558 -1.78044 10.959 30.6558 -1.78044
502 1 12.1458 32.3052 -0.180386 12.1458 32.3052 -0.180386
503 2 14.6309 32.31 1.42077 14.6309 32.31 1.42077
504 2 14.6266 32.3015 -1.7889 14.6266 32.3015 -1.7889
505 1 15.8121 30.6593 -0.181325 15.8121 30.6593 -0.181325
506 2 18.2954 30.6662 1.42227 18.2954 30.6662 1.42227
507 2 18.2941 30.6542 -1.78736 18.2941 30.6542 -1.78736
508 1 19.4796 32.3064 -0.189205 19.4796 32.3064 -0.189205
509 2 21.9624 32.3136 1.41403 21.9624 32.3136 1.41403
510 2 21.9606 32.3015 -1.79561 21.9606 32.3015 -1.79561
511 1 23.1447 30.6611 -0.185312 23.1447 30.6611 -0.185312
512 2 25.628 30.6686 1.41767 25.628 30.6686 1.41767
513 2 25.6255 30.656 -1.79199 25.6255 30.656 -1.79199
514 1 26.8114 32.3085 -0.19446 26.8114 32.3085 -0.19446
515 2 29.2932 32.3126 1.4106 29.2932 32.3126 1.4106
516 2 29.294 32.3064 -1.79904 29.294 32.3064 -1.79904
517 1 30.4769 30.663 -0.190781 30.4769 30.663 -0.190781
518 2 32.9589 30.6657 1.41288 32.9589 30.6657 1.41288
519 2 32.9576 30.6618 -1.79675 32.9576 30.6618 -1.79675
520 1 34.1429 32.3098 -0.194411 34.1429 32.3098 -0.194411
521 2 36.6234 32.3091 1.41179 36.6234 32.3091 1.41179
522 2 36.6254 32.3115 -1.79787 36.6254 32.3115 -1.79787
523 1 37.8077 30.6638 -0.193526 37.8077 30.6638 -0.193526
524 2 40.2891 30.6617 1.41177 40.2891 30.6617 1.41177
525 2 40.2901 30.6663 -1.79788 40.2901 30.6663 -1.79788
526 1 41.4745 32.3099 -0.190315 41.4745 32.3099 -0.190315
527 2 43.9538 32.3037 1.41762 43.9538 32.3037 1.41762
528 2 43.9582 32.3161 -1.79203 43.9582 32.3161 -1.79203
529 1 45.1393 30.6633 -0.191911 45.1393 30.6633 -0.191911
530 2 47.6195 30.6577 1.41566 47.6195 30.6577 1.41566
531 2 47.6235 30.6684 -1.79404 47.6235 30.6684 -1.79404
532 1 48.8062 32.309 -0.182229 48.8062 32.309 -0.182229
533 2 51.2869 32.3005 1.42599 51.2869 32.3005 1.42599
534 2 51.2916 32.3167 -1.78371 51.2916 32.3167 -1.78371
535 1 52.4726 30.662 -0.185456 52.4726 30.662 -0.185456