ITEM: TIMESTEP
5583000
ITEM: NUMBER OF ATOMS
810
ITEM: BOX BOUNDS pp pp pp
-1.3455075862869849e+01 6.6472680862868913e+01
8.1394622342039402e-01 5.0202268776579182e+01
-1.0000000000000000e+01 1.0000000000000000e+01
ITEM: ATOMS id type x y z xu yu zu
1 1 -2.67341 1.03545 -0.387286 -2.67341 1.03545 -0.387286
2 2 -0.835491 1.0301 1.31465 -0.835491 1.0301 1.31465
3 2 -0.711502 1.0392 -1.94519 -0.711502 1.0392 -1.94519
4 1 0.175534 2.68111 -0.274271 0.175534 2.68111 -0.274271
5 2 2.0384 2.67076 1.3998 2.0384 2.67076 1.3998
6 2 2.11367 2.68956 -1.86162 2.11367 2.68956 -1.86162
7 1 3.02738 1.03414 -0.218563 3.02738 1.03414 -0.218563
8 2 4.90958 1.03044 1.43402 4.90958 1.03044 1.43402
9 2 4.94727 1.03696 -1.82804 4.94727 1.03696 -1.82804
10 1 5.87861 2.67985 -0.182597 5.87861 2.67985 -0.182597
11 2 7.77862 2.68292 1.44988 7.77862 2.68292 1.44988
12 2 7.78129 2.67529 -1.81234 7.78129 2.67529 -1.81234
13 1 8.7311 1.03268 -0.176804 8.7311 1.03268 -0.176804
14 2 10.6259 1.04175 1.46162 10.6259 1.04175 1.46162
15 2 10.6386 1.02114 -1.80055 10.6386 1.02114 -1.80055
16 1 11.5829 2.67761 -0.175994 11.5829 2.67761 -0.175994
17 2 13.4941 2.69816 1.44349 13.4941 2.69816 1.44349
18 2 13.4745 2.65471 -1.81836 13.4745 2.65471 -1.81836
19 1 14.4354 1.03022 -0.171326 14.4354 1.03022 -0.171326
20 2 16.3481 1.05215 1.44621 16.3481 1.05215 1.44621
21 2 16.3253 1.00589 -1.81566 16.3253 1.00589 -1.81566
22 1 17.2871 2.67507 -0.214887 17.2871 2.67507 -0.214887
23 2 19.2004 2.69667 1.40187 19.2004 2.69667 1.40187
24 2 19.176 2.65152 -1.86 19.176 2.65152 -1.86
25 1 20.139 1.02776 -0.213173 20.139 1.02776 -0.213173
26 2 22.0532 1.04667 1.40237 22.0532 1.04667 1.40237
27 2 22.0267 1.0068 -1.85958 22.0267 1.0068 -1.85958
28 1 22.9902 2.6729 -0.256687 22.9902 2.6729 -0.256687
29 2 24.8934 2.68588 1.37206 24.8934 2.68588 1.37206
30 2 24.8891 2.65849 -1.8901 24.8891 2.65849 -1.8901
31 1 25.8414 1.02564 -0.246157 25.8414 1.02564 -0.246157
32 2 27.7423 1.03833 1.38516 27.7423 1.03833 1.38516
33 2 27.7423 1.01341 -1.87706 27.7423 1.01341 -1.87706
34 1 28.6928 2.67213 -0.258747 28.6928 2.67213 -0.258747
35 2 30.5888 2.67434 1.3779 30.5888 2.67434 1.3779
36 2 30.5985 2.66926 -1.88447 30.5985 2.66926 -1.88447
37 1 31.5436 1.0249 -0.247903 31.5436 1.0249 -0.247903
38 2 33.4421 1.02718 1.38583 33.4421 1.02718 1.38583
39 2 33.4467 1.0191 -1.87653 33.4467 1.0191 -1.87653
40 1 34.3953 2.66906 -0.248165 34.3953 2.66906 -0.248165
41 2 36.2838 2.66284 1.39714 36.2838 2.66284 1.39714
42 2 36.3084 2.6726 -1.86509 36.3084 2.6726 -1.86509
43 1 37.2464 1.02138 -0.231819 37.2464 1.02138 -0.231819
44 2 39.1255 1.01755 1.42507 39.1255 1.01755 1.42507
45 2 39.1696 1.02488 -1.83726 39.1696 1.02488 -1.83726
46 1 40.0984 2.66697 -0.189252 40.0984 2.66697 -0.189252
47 2 41.9366 2.67185 1.45576 41.9366 2.67185 1.45576
48 2 42.0171 2.66206 -1.74004 42.0171 2.66206 -1.74004
49 1 43.0169 1.02051 -0.111613 43.0169 1.02051 -0.111613
50 2 -6.28542 1.02801 1.22933 73.6423 1.02801 1.22933
51 2 -7.07363 1.04098 -1.51868 72.8541 1.04098 -1.51868
52 1 -5.50704 2.68346 -0.472313 74.4207 2.68346 -0.472313
53 2 -3.69392 2.65499 1.24291 76.2338 2.65499 1.24291
54 2 -3.56037 2.71 -2.03481 76.3674 2.71 -2.03481
55 1 -2.67559 4.32885 -0.332126 -2.67559 4.32885 -0.332126
56 2 -0.825614 4.29994 1.35557 -0.825614 4.29994 1.35557
57 2 -0.725025 4.35534 -1.90467 -0.725025 4.35534 -1.90467
58 1 0.173744 5.97325 -0.216444 0.173744 5.97325 -0.216444
59 2 2.05257 5.95087 1.44035 2.05257 5.95087 1.44035
60 2 2.09691 5.99365 -1.82141 2.09691 5.99365 -1.82141
61 1 3.02593 4.32623 -0.199422 3.02593 4.32623 -0.199422
62 2 4.91336 4.31952 1.44715 4.91336 4.31952 1.44715
63 2 4.94064 4.33205 -1.81502 4.94064 4.33205 -1.81502
64 1 5.8776 5.97179 -0.169497 5.8776 5.97179 -0.169497
65 2 7.78928 5.97584 1.44897 7.78928 5.97584 1.44897
66 2 7.76849 5.9669 -1.81321 7.76849 5.9669 -1.81321
67 1 8.73043 4.3252 -0.183896 8.73043 4.3252 -0.183896
68 2 10.6377 4.34219 1.44027 10.6377 4.34219 1.44027
69 2 10.6259 4.30589 -1.82171 10.6259 4.30589 -1.82171
70 1 11.5822 5.97021 -0.212427 11.5822 5.97021 -0.212427
71 2 13.4963 5.98878 1.40335 13.4963 5.98878 1.40335
72 2 13.4708 5.94959 -1.85847 13.4708 5.94959 -1.85847
73 1 14.4347 4.32263 -0.215213 14.4347 4.32263 -0.215213
74 2 16.3506 4.3469 1.39849 16.3506 4.3469 1.39849
75 2 16.3215 4.29596 -1.86312 16.3215 4.29596 -1.86312
76 1 17.2864 5.96777 -0.266824 17.2864 5.96777 -0.266824
77 2 19.1928 5.9827 1.35837 19.1928 5.9827 1.35837
78 2 19.1829 5.95118 -1.90364 19.1829 5.95118 -1.90364
79 1 20.1384 4.32033 -0.259402 20.1384 4.32033 -0.259402
80 2 22.0478 4.33629 1.36184 22.0478 4.33629 1.36184
81 2 22.0312 4.30256 -1.90018 22.0312 4.30256 -1.90018
82 1 22.9901 5.96583 -0.29146 22.9901 5.96583 -0.29146
83 2 24.8839 5.96897 1.3483 24.8839 5.96897 1.3483
84 2 24.8987 5.96151 -1.9139 24.8987 5.96151 -1.9139
85 1 25.8416 4.31865 -0.274473 25.8416 4.31865 -0.274473
86 2 27.7354 4.32175 1.36499 27.7354 4.32175 1.36499
87 2 27.7495 4.31529 -1.89735 27.7495 4.31529 -1.89735
88 1 28.6931 5.9646 -0.265449 28.6931 5.9646 -0.265449
89 2 30.5856 5.9612 1.37563 30.5856 5.9612 1.37563
90 2 30.6025 5.96657 -1.88668 30.6025 5.96657 -1.88668
91 1 31.5444 4.31751 -0.253264 31.5444 4.31751 -0.253264
92 2 33.4393 4.31061 1.38488 33.4393 4.31061 1.38488
93 2 33.4515 4.32124 -1.87742 33.4515 4.32124 -1.87742
94 1 34.3968 5.96169 -0.237259 34.3968 5.96169 -0.237259
95 2 36.2862 5.95537 1.40765 36.2862 5.95537 1.40765
96 2 36.3095 5.96568 -1.85447 36.3095 5.96568 -1.85447
97 1 37.2476 4.31366 -0.221836 37.2476 4.31366 -0.221836
98 2 39.1277 4.30916 1.43403 39.1277 4.30916 1.43403
99 2 39.17 4.31723 -1.82825 39.17 4.31723 -1.82825
100 1 40.0997 5.9592 -0.180131 40.0997 5.9592 -0.180131
101 2 41.9509 5.96765 1.4509 41.9509 5.96765 1.4509
102 2 42.0057 5.95012 -1.74542 42.0057 5.95012 -1.74542
103 1 43.0187 4.31256 -0.120746 43.0187 4.31256 -0.120746
104 2 -6.27966 4.27981 1.28576 73.6481 4.27981 1.28576
105 2 -7.08252 4.35748 -1.45561 72.8452 4.35748 -1.45561
106 1 -5.51186 5.97866 -0.382161 74.4159 5.97866 -0.382161
107 2 -3.69736 5.91132 1.33352 76.2304 5.91132 1.33352
108 2 -3.56262 6.03856 -1.94058 76.3651 6.03856 -1.94058
109 1 -2.6792 7.62012 -0.199584 -2.6792 7.62012 -0.199584
110 2 -0.787074 7.58721 1.44147 -0.787074 7.58721 1.44147
111 2 -0.768285 7.65082 -1.82023 -0.768285 7.65082 -1.82023
112 1 0.172891 9.26433 -0.152163 0.172891 9.26433 -0.152163
113 2 2.06992 9.2533 1.48398 2.06992 9.2533 1.48398
114 2 2.07824 9.27468 -1.77824 2.07824 9.27468 -1.77824
115 1 3.02521 7.61801 -0.155827 3.02521 7.61801 -0.155827
116 2 4.92954 7.6105 1.47135 4.92954 7.6105 1.47135
117 2 4.9232 7.62503 -1.79094 4.9232 7.62503 -1.79094
118 1 5.87695 9.26384 -0.154443 5.87695 9.26384 -0.154443
119 2 7.79694 9.25867 1.45427 7.79694 9.25867 1.45427
120 2 7.75924 9.26807 -1.80777 7.75924 9.26807 -1.80777
121 1 8.72943 7.61737 -0.192803 8.72943 7.61737 -0.192803
122 2 10.6479 7.62751 1.41785 10.6479 7.62751 1.41785
123 2 10.6137 7.60567 -1.84408 10.6137 7.60567 -1.84408
124 1 11.5815 9.26246 -0.233882 11.5815 9.26246 -0.233882
125 2 13.5005 9.27117 1.37643 13.5005 9.27117 1.37643
126 2 13.4652 9.25203 -1.88556 13.4652 9.25203 -1.88556
127 1 14.4342 7.6153 -0.255184 14.4342 7.6153 -0.255184
128 2 16.3499 7.62795 1.35881 16.3499 7.62795 1.35881
129 2 16.3213 7.60114 -1.90308 16.3213 7.60114 -1.90308
130 1 17.2864 9.2607 -0.294402 17.2864 9.2607 -0.294402
131 2 19.1847 9.25669 1.34057 19.1847 9.25669 1.34057
132 2 19.1913 9.26363 -1.92159 19.1913 9.26363 -1.92159
133 1 20.1385 7.61334 -0.292023 20.1385 7.61334 -0.292023
134 2 22.0376 7.60952 1.34138 22.0376 7.60952 1.34138
135 2 22.0419 7.61586 -1.92079 22.0419 7.61586 -1.92079
136 1 22.9904 9.25915 -0.285576 22.9904 9.25915 -0.285576
137 2 24.8806 9.24329 1.35794 24.8806 9.24329 1.35794
138 2 24.9022 9.27358 -1.90411 24.9022 9.27358 -1.90411
139 1 25.8417 7.61171 -0.282293 25.8417 7.61171 -0.282293
140 2 27.7303 7.60598 1.36332 27.7303 7.60598 1.36332
141 2 27.7551 7.61592 -1.8989 27.7551 7.61592 -1.8989
142 1 28.6937 9.25693 -0.255475 28.6937 9.25693 -0.255475
143 2 30.5866 9.24915 1.38519 30.5866 9.24915 1.38519
144 2 30.6034 9.26254 -1.877 30.6034 9.26254 -1.877
145 1 31.5454 7.60953 -0.247865 31.5454 7.60953 -0.247865
146 2 33.4392 7.60591 1.3919 33.4392 7.60591 1.3919
147 2 33.4542 7.61098 -1.87029 33.4542 7.61098 -1.87029
148 1 34.3985 9.25433 -0.232413 34.3985 9.25433 -0.232413
149 2 36.2841 9.24767 1.41685 36.2841 9.24767 1.41685
150 2 36.3155 9.25977 -1.84515 36.3155 9.25977 -1.84515
151 1 37.2494 7.60662 -0.211335 37.2494 7.60662 -0.211335
152 2 39.1352 7.61038 1.43775 39.1352 7.61038 1.43775
153 2 39.1662 7.60166 -1.82464 39.1662 7.60166 -1.82464
154 1 40.1014 9.2523 -0.188622 40.1014 9.2523 -0.188622
155 2 41.9551 9.25676 1.43904 41.9551 9.25676 1.43904
156 2 42.0048 9.24672 -1.75746 42.0048 9.24672 -1.75746
157 1 43.0201 7.60496 -0.137963 43.0201 7.60496 -0.137963
158 2 -6.28272 7.50103 1.43272 73.645 7.50103 1.43272
159 2 -7.00939 7.7142 -1.39089 72.9184 7.7142 -1.39089
160 1 -5.51067 9.26441 -0.160833 74.4171 9.26441 -0.160833
161 2 -3.6387 9.23121 1.47945 76.2891 9.23121 1.47945
162 2 -3.63939 9.29899 -1.80189 76.2884 9.29899 -1.80189
163 1 -2.67983 10.91 -0.123354 -2.67983 10.91 -0.123354
164 2 -0.774722 10.8854 1.50476 -0.774722 10.8854 1.50476
165 2 -0.781871 10.9342 -1.75717 -0.781871 10.9342 -1.75717
166 1 0.172676 12.5561 -0.10345 0.172676 12.5561 -0.10345
167 2 2.08764 12.5497 1.51198 2.08764 12.5497 1.51198
168 2 2.06025 12.5628 -1.7501 2.06025 12.5628 -1.7501
169 1 3.02472 10.9101 -0.133599 3.02472 10.9101 -0.133599
170 2 4.93452 10.9041 1.48753 4.93452 10.9041 1.48753
171 2 4.91723 10.9158 -1.77467 4.91723 10.9158 -1.77467
172 1 5.87724 12.5559 -0.142857 5.87724 12.5559 -0.142857
173 2 7.80011 12.5537 1.4626 7.80011 12.5537 1.4626
174 2 7.75684 12.5571 -1.79934 7.75684 12.5571 -1.79934
175 1 8.72929 10.9092 -0.183075 8.72929 10.9092 -0.183075
176 2 10.662 10.9142 1.41025 10.662 10.9142 1.41025
177 2 10.5986 10.903 -1.85137 10.5986 10.903 -1.85137
178 1 11.581 12.5545 -0.244646 11.581 12.5545 -0.244646
179 2 13.4996 12.5531 1.36642 13.4996 12.5531 1.36642
180 2 13.4651 12.5541 -1.89561 13.4651 12.5541 -1.89561
181 1 14.4337 10.9075 -0.275027 14.4337 10.9075 -0.275027
182 2 16.344 10.9033 1.34551 16.344 10.9033 1.34551
183 2 16.3262 10.9106 -1.91664 16.3262 10.9106 -1.91664
184 1 17.2861 12.553 -0.287281 17.2861 12.553 -0.287281
185 2 19.1751 12.5324 1.35863 19.1751 12.5324 1.35863
186 2 19.1999 12.5728 -1.90326 19.1999 12.5728 -1.90326
187 1 20.1387 10.9064 -0.28533 20.1387 10.9064 -0.28533
188 2 22.0272 10.8833 1.36061 22.0272 10.8833 1.36061
189 2 22.0528 10.9284 -1.90121 22.0528 10.9284 -1.90121
190 1 22.9902 12.552 -0.240059 22.9902 12.552 -0.240059
191 2 24.8816 12.524 1.40182 24.8816 12.524 1.40182
192 2 24.9009 12.5782 -1.85994 24.9009 12.5782 -1.85994
193 1 25.842 10.9046 -0.251271 25.842 10.9046 -0.251271
194 2 27.7348 10.8853 1.3893 27.7348 10.8853 1.3893
195 2 27.7515 10.9215 -1.87271 27.7515 10.9215 -1.87271
196 1 28.6946 12.549 -0.218372 28.6946 12.549 -0.218372
197 2 30.5951 12.5306 1.41364 30.5951 12.5306 1.41364
198 2 30.5974 12.565 -1.84833 30.5974 12.565 -1.84833
199 1 31.5468 10.9015 -0.234267 31.5468 10.9015 -0.234267
200 2 33.4419 10.8917 1.40416 33.4419 10.8917 1.40416
201 2 33.4547 10.9102 -1.85792 33.4547 10.9102 -1.85792
202 1 34.3997 12.5471 -0.213637 34.3997 12.5471 -0.213637
203 2 36.2904 12.5425 1.43015 36.2904 12.5425 1.43015
204 2 36.3119 12.5513 -1.83193 36.3119 12.5513 -1.83193
205 1 37.2511 10.8999 -0.199054 37.2511 10.8999 -0.199054
206 2 39.1433 10.8943 1.44271 39.1433 10.8943 1.44271
207 2 39.1616 10.9047 -1.81975 39.1616 10.9047 -1.81975
208 1 40.1029 12.5458 -0.17787 40.1029 12.5458 -0.17787
209 2 41.9645 12.5458 1.44068 41.9645 12.5458 1.44068
210 2 41.9984 12.545 -1.75609 41.9984 12.545 -1.75609
211 1 43.0215 10.8982 -0.147231 43.0215 10.8982 -0.147231
212 2 -6.99092 10.8266 1.07455 72.9368 10.8266 1.07455
213 2 -6.29147 11.0083 -1.77014 73.6363 11.0083 -1.77014
214 1 -5.51362 12.5528 0.0217999 74.4141 12.5528 0.0217999
215 2 -3.56987 12.5197 1.58763 76.3579 12.5197 1.58763
216 2 -3.69377 12.5932 -1.68836 76.234 12.5932 -1.68836
217 1 -2.67808 14.2029 -0.0457891 -2.67808 14.2029 -0.0457891
218 2 -0.748613 14.1939 1.55287 -0.748613 14.1939 1.55287
219 2 -0.805585 14.2113 -1.70876 -0.805585 14.2113 -1.70876
220 1 0.173949 15.849 -0.0852039 0.173949 15.849 -0.0852039
221 2 2.09203 15.8426 1.52655 2.09203 15.8426 1.52655
222 2 2.05845 15.8551 -1.73548 2.05845 15.8551 -1.73548
223 1 3.02531 14.2024 -0.120424 3.02531 14.2024 -0.120424
224 2 4.94012 14.2031 1.49505 4.94012 14.2031 1.49505
225 2 4.91307 14.2013 -1.76705 4.91307 14.2013 -1.76705
226 1 5.87762 15.8484 -0.144782 5.87762 15.8484 -0.144782
227 2 7.80072 15.8516 1.46034 7.80072 15.8516 1.46034
228 2 7.75677 15.8442 -1.80159 7.75677 15.8442 -1.80159
229 1 8.72941 14.2015 -0.179706 8.72941 14.2015 -0.179706
230 2 10.6664 14.1996 1.40834 10.6664 14.1996 1.40834
231 2 10.5941 14.202 -1.85309 10.5941 14.202 -1.85309
232 1 11.5812 15.8468 -0.242599 11.5812 15.8468 -0.242599
233 2 13.4971 15.8399 1.3716 13.4971 15.8399 1.3716
234 2 13.468 15.8525 -1.89041 13.468 15.8525 -1.89041
235 1 14.4333 14.1997 -0.274257 14.4333 14.1997 -0.274257
236 2 16.3374 14.1901 1.35396 16.3374 14.1901 1.35396
237 2 16.3321 14.208 -1.9082 16.3321 14.208 -1.9082
238 1 17.2855 15.8453 -0.269623 17.2855 15.8453 -0.269623
239 2 19.1616 15.8251 1.39101 19.1616 15.8251 1.39101
240 2 19.2116 15.8643 -1.87066 19.2116 15.8643 -1.87066
241 1 20.1378 14.1986 -0.24474 20.1378 14.1986 -0.24474
242 2 22.0209 14.1714 1.4075 22.0209 14.1714 1.4075
243 2 22.0572 14.225 -1.85413 22.0572 14.225 -1.85413
244 1 22.9895 15.8438 -0.185467 22.9895 15.8438 -0.185467
245 2 24.8817 15.8169 1.45615 24.8817 15.8169 1.45615
246 2 24.9001 15.8689 -1.80564 24.9001 15.8689 -1.80564
247 1 25.8422 14.1967 -0.195931 25.8422 14.1967 -0.195931
248 2 27.7406 14.1687 1.43814 27.7406 14.1687 1.43814
249 2 27.7467 14.2219 -1.82359 27.7467 14.2219 -1.82359
250 1 28.695 15.8409 -0.163998 28.695 15.8409 -0.163998
251 2 30.6013 15.814 1.46111 30.6013 15.814 1.46111
252 2 30.5919 15.8662 -1.80056 30.5919 15.8662 -1.80056
253 1 31.5476 14.1939 -0.199228 31.5476 14.1939 -0.199228
254 2 33.4473 14.1763 1.43383 33.4473 14.1763 1.43383
255 2 33.4511 14.2109 -1.82811 33.4511 14.2109 -1.82811
256 1 34.4002 15.84 -0.178439 34.4002 15.84 -0.178439
257 2 36.2975 15.8212 1.45742 36.2975 15.8212 1.45742
258 2 36.306 15.8583 -1.80451 36.306 15.8583 -1.80451
259 1 37.2523 14.1932 -0.190103 37.2523 14.1932 -0.190103
260 2 39.1452 14.1901 1.45098 39.1452 14.1901 1.45098
261 2 39.1624 14.1955 -1.8115 39.1624 14.1955 -1.8115
262 1 40.104 15.8392 -0.172387 40.104 15.8392 -0.172387
263 2 41.972 15.8483 1.4378 41.972 15.8483 1.4378
264 2 41.9938 15.8299 -1.75892 41.9938 15.8299 -1.75892
265 1 43.0231 14.1919 -0.145979 43.0231 14.1919 -0.145979
266 2 -7.08711 14.1864 1.0716 72.8406 14.1864 1.0716
267 2 -6.27489 14.2316 -1.67015 73.6529 14.2316 -1.67015
268 1 -5.5101 15.8485 0.0710258 74.4177 15.8485 0.0710258
269 2 -3.57436 15.8273 1.64571 76.3534 15.8273 1.64571
270 2 -3.687 15.8713 -1.63296 76.2408 15.8713 -1.63296
271 1 -2.67681 17.4959 -0.00203403 -2.67681 17.4959 -0.00203403
272 2 -0.735278 17.4836 1.58138 -0.735278 17.4836 1.58138
273 2 -0.816772 17.5075 -1.67964 -0.816772 17.5075 -1.67964
274 1 0.17436 19.142 -0.0603543 0.17436 19.142 -0.0603543
275 2 2.09978 19.1363 1.54274 2.09978 19.1363 1.54274
276 2 2.05134 19.147 -1.71909 2.05134 19.147 -1.71909
277 1 3.0261 17.4952 -0.107883 3.0261 17.4952 -0.107883
278 2 4.94533 17.4896 1.50223 4.94533 17.4896 1.50223
279 2 4.90931 17.5004 -1.75979 4.90931 17.5004 -1.75979
280 1 5.8781 19.1411 -0.13405 5.8781 19.1411 -0.13405
281 2 7.80642 19.135 1.46491 7.80642 19.135 1.46491
282 2 7.7519 19.1458 -1.79689 7.7519 19.1458 -1.79689
283 1 8.72958 17.494 -0.187543 8.72958 17.494 -0.187543
284 2 10.6583 17.4869 1.41057 10.6583 17.4869 1.41057
285 2 10.603 17.4996 -1.85119 10.603 17.4996 -1.85119
286 1 11.5819 19.1391 -0.230415 11.5819 19.1391 -0.230415
287 2 13.4936 19.1256 1.38876 13.4936 19.1256 1.38876
288 2 13.473 19.1523 -1.87329 13.473 19.1523 -1.87329
289 1 14.4337 17.4924 -0.261556 14.4337 17.4924 -0.261556
290 2 16.3297 17.4738 1.37601 16.3297 17.4738 1.37601
291 2 16.3403 17.5097 -1.88599 16.3403 17.5097 -1.88599
292 1 17.2859 19.1379 -0.23353 17.2859 19.1379 -0.23353
293 2 19.1633 19.1232 1.42565 19.1633 19.1232 1.42565
294 2 19.2105 19.1507 -1.83619 19.2105 19.1507 -1.83619
295 1 20.1372 17.4905 -0.205168 20.1372 17.4905 -0.205168
296 2 22.0164 17.4709 1.45163 22.0164 17.4709 1.45163
297 2 22.06 17.5088 -1.81017 22.06 17.5088 -1.81017
298 1 22.9894 19.1352 -0.147331 22.9894 19.1352 -0.147331
299 2 24.8825 19.1247 1.49312 24.8825 19.1247 1.49312
300 2 24.8989 19.1437 -1.76908 24.8989 19.1437 -1.76908
301 1 25.8421 17.4882 -0.142897 25.8421 17.4882 -0.142897
302 2 27.7448 17.4685 1.48666 27.7448 17.4685 1.48666
303 2 27.7426 17.5059 -1.77528 27.7426 17.5059 -1.77528
304 1 28.695 19.133 -0.126199 28.695 19.133 -0.126199
305 2 30.597 19.1134 1.50434 30.597 19.1134 1.50434
306 2 30.596 19.1518 -1.7576 30.596 19.1518 -1.7576
307 1 31.5477 17.4863 -0.14616 31.5477 17.4863 -0.14616
308 2 33.4513 17.4581 1.48233 33.4513 17.4581 1.48233
309 2 33.4473 17.5144 -1.77926 33.4473 17.5144 -1.77926
310 1 34.4001 19.1325 -0.120954 34.4001 19.1325 -0.120954
311 2 36.3052 19.1083 1.50595 36.3052 19.1083 1.50595
312 2 36.2981 19.1566 -1.75582 36.2981 19.1566 -1.75582
313 1 37.2525 17.4861 -0.151997 37.2525 17.4861 -0.151997
314 2 39.1599 17.4766 1.47222 39.1599 17.4766 1.47222
315 2 39.1482 17.4948 -1.79022 39.1482 17.4948 -1.79022
316 1 40.1039 19.1323 -0.15231 40.1039 19.1323 -0.15231
317 2 41.9977 19.1517 1.42822 41.9977 19.1517 1.42822
318 2 41.9681 19.1131 -1.76821 41.9681 19.1131 -1.76821
319 1 43.0243 17.4858 -0.161936 43.0243 17.4858 -0.161936
320 2 -7.07228 17.4894 1.1248 72.8555 17.4894 1.1248
321 2 -6.28333 17.504 -1.63154 73.6444 17.504 -1.63154
322 1 -5.51117 19.1421 0.0871322 74.4166 19.1421 0.0871322
323 2 -3.58284 19.1336 1.67135 76.3449 19.1336 1.67135
324 2 -3.68067 19.1504 -1.60777 76.2471 19.1504 -1.60777
325 1 -2.67738 20.7888 0.014366 -2.67738 20.7888 0.014366
326 2 -0.739814 20.7776 1.60264 -0.739814 20.7776 1.60264
327 2 -0.812746 20.7995 -1.65855 -0.812746 20.7995 -1.65855
328 1 0.174589 22.435 -0.0380719 0.174589 22.435 -0.0380719
329 2 2.10682 22.431 1.55636 2.10682 22.431 1.55636
330 2 2.0443 22.438 -1.70519 2.0443 22.438 -1.70519
331 1 3.02615 20.788 -0.0963954 3.02615 20.788 -0.0963954
332 2 4.9455 20.7813 1.51377 4.9455 20.7813 1.51377
333 2 4.90928 20.7938 -1.74825 4.90928 20.7938 -1.74825
334 1 5.87868 22.4332 -0.121837 5.87868 22.4332 -0.121837
335 2 7.80179 22.4163 1.48325 7.80179 22.4163 1.48325
336 2 7.758 22.448 -1.7786 7.758 22.448 -1.7786
337 1 8.73037 20.786 -0.176603 8.73037 20.786 -0.176603
338 2 10.6546 20.772 1.42714 10.6546 20.772 1.42714
339 2 10.6084 20.7984 -1.83471 10.6084 20.7984 -1.83471
340 1 11.5824 22.4312 -0.203986 11.5824 22.4312 -0.203986
341 2 13.49 22.4117 1.41962 13.49 22.4117 1.41962
342 2 13.4772 22.4504 -1.84244 13.4772 22.4504 -1.84244
343 1 14.4343 20.785 -0.234756 14.4343 20.785 -0.234756
344 2 16.3262 20.7691 1.40742 16.3262 20.7691 1.40742
345 2 16.3449 20.7998 -1.85464 16.3449 20.7998 -1.85464
346 1 17.2866 22.4303 -0.202491 17.2866 22.4303 -0.202491
347 2 19.1639 22.4121 1.45673 19.1639 22.4121 1.45673
348 2 19.2114 22.4461 -1.80506 19.2114 22.4461 -1.80506
349 1 20.1379 20.7826 -0.177324 20.1379 20.7826 -0.177324
350 2 22.0154 20.7704 1.48112 22.0154 20.7704 1.48112
351 2 22.0622 20.7923 -1.78088 22.0622 20.7923 -1.78088
352 1 22.9901 22.4266 -0.124948 22.9901 22.4266 -0.124948
353 2 24.8908 22.4259 1.50669 24.8908 22.4259 1.50669
354 2 24.892 22.4248 -1.75568 24.892 22.4248 -1.75568
355 1 25.8423 20.7795 -0.123475 25.8423 20.7795 -0.123475
356 2 27.7424 20.7735 1.50925 27.7424 20.7735 1.50925
357 2 27.7451 20.7846 -1.75298 27.7451 20.7846 -1.75298
358 1 28.6949 22.4249 -0.115765 28.6949 22.4249 -0.115765
359 2 30.5885 22.419 1.52463 30.5885 22.419 1.52463
360 2 30.6041 22.4311 -1.73751 30.6041 22.4311 -1.73751
361 1 31.5475 20.7788 -0.107606 31.5475 20.7788 -0.107606
362 2 33.4456 20.7596 1.52751 33.4456 20.7596 1.52751
363 2 33.4523 20.7982 -1.7344 33.4523 20.7982 -1.7344
364 1 34.3993 22.4254 -0.0818605 34.3993 22.4254 -0.0818605
365 2 36.3047 22.4123 1.54462 36.3047 22.4123 1.54462
366 2 36.2966 22.4384 -1.71742 36.2966 22.4384 -1.71742
367 1 37.252 20.7789 -0.102206 37.252 20.7789 -0.102206
368 2 39.1753 20.7683 1.50301 39.1753 20.7683 1.50301
369 2 39.1314 20.7889 -1.75909 39.1314 20.7889 -1.75909
370 1 40.1027 22.4255 -0.129684 40.1027 22.4255 -0.129684
371 2 42.0244 22.4376 1.41755 42.0244 22.4376 1.41755
372 2 41.9377 22.413 -1.77808 41.9377 22.413 -1.77808
373 1 43.023 20.7792 -0.197417 43.023 20.7792 -0.197417
374 2 -7.08086 20.789 1.12096 72.8469 20.789 1.12096
375 2 -6.27341 20.7894 -1.62885 73.6543 20.7894 -1.62885
376 1 -5.51113 22.4363 0.0869378 74.4166 22.4363 0.0869378
377 2 -3.58878 22.4336 1.6782 76.339 22.4336 1.6782
378 2 -3.67472 22.4377 -1.60124 76.253 22.4377 -1.60124
379 1 -2.67631 24.0822 0.0184354 -2.67631 24.0822 0.0184354
380 2 -0.742165 24.0827 1.61099 -0.742165 24.0827 1.61099
381 2 -0.808447 24.0811 -1.65042 -0.808447 24.0811 -1.65042
382 1 0.176024 25.7282 -0.0401241 0.176024 25.7282 -0.0401241
383 2 2.10458 25.7264 1.55879 2.10458 25.7264 1.55879
384 2 2.04962 25.7287 -1.70292 2.04962 25.7287 -1.70292
385 1 3.02693 24.0806 -0.0889481 3.02693 24.0806 -0.0889481
386 2 4.94195 24.0703 1.52657 4.94195 24.0703 1.52657
387 2 4.91459 24.0891 -1.7355 4.91459 24.0891 -1.7355
388 1 5.87939 25.7256 -0.103004 5.87939 25.7256 -0.103004
389 2 7.79551 25.7088 1.51063 7.79551 25.7088 1.51063
390 2 7.76557 25.7398 -1.75138 7.76557 25.7398 -1.75138
391 1 8.73086 24.0779 -0.144698 8.73086 24.0779 -0.144698
392 2 10.6515 24.0529 1.46291 10.6515 24.0529 1.46291
393 2 10.612 24.1012 -1.79884 10.612 24.1012 -1.79884
394 1 11.5821 25.7232 -0.155119 11.5821 25.7232 -0.155119
395 2 13.4928 25.6999 1.46458 13.4928 25.6999 1.46458
396 2 13.4734 25.7456 -1.79737 13.4734 25.7456 -1.79737
397 1 14.4343 24.077 -0.195303 14.4343 24.077 -0.195303
398 2 16.3298 24.0586 1.44297 16.3298 24.0586 1.44297
399 2 16.3415 24.0945 -1.81908 16.3415 24.0945 -1.81908
400 1 17.2862 25.7223 -0.166118 17.2862 25.7223 -0.166118
401 2 19.1694 25.7126 1.48619 19.1694 25.7126 1.48619
402 2 19.2055 25.7292 -1.77586 19.2055 25.7292 -1.77586
403 1 20.1384 24.0746 -0.142821 20.1384 24.0746 -0.142821
404 2 22.0279 24.0703 1.50223 22.0279 24.0703 1.50223
405 2 22.0514 24.0755 -1.76005 22.0514 24.0755 -1.76005
406 1 22.9904 25.7184 -0.119601 22.9904 25.7184 -0.119601
407 2 24.8916 25.7122 1.51111 24.8916 25.7122 1.51111
408 2 24.8915 25.7217 -1.75125 24.8915 25.7217 -1.75125
409 1 25.8425 24.071 -0.124871 25.8425 24.071 -0.124871
410 2 27.7372 24.0683 1.51377 27.7372 24.0683 1.51377
411 2 27.7502 24.0734 -1.74851 27.7502 24.0734 -1.74851
412 1 28.6941 25.717 -0.111009 28.6941 25.717 -0.111009
413 2 30.5861 25.7164 1.53102 30.5861 25.7164 1.53102
414 2 30.6045 25.7185 -1.73119 30.6045 25.7185 -1.73119
415 1 31.5467 24.0714 -0.0955731 31.5467 24.0714 -0.0955731
416 2 33.4386 24.0685 1.54669 33.4386 24.0685 1.54669
417 2 33.4572 24.0748 -1.71551 33.4572 24.0748 -1.71551
418 1 34.3978 25.7182 -0.0755876 34.3978 25.7182 -0.0755876
419 2 36.302 25.7234 1.55204 36.302 25.7234 1.55204
420 2 36.2959 25.7132 -1.71012 36.2959 25.7132 -1.71012
421 1 37.2508 24.0721 -0.0755209 37.2508 24.0721 -0.0755209
422 2 39.1808 24.0683 1.52197 39.1808 24.0683 1.52197
423 2 39.1237 24.0755 -1.73995 39.1237 24.0755 -1.73995
424 1 40.1016 25.7188 -0.121976 40.1016 25.7188 -0.121976
425 2 42.0353 25.7237 1.40997 42.0353 25.7237 1.40997
426 2 41.9238 25.7135 -1.78495 41.9238 25.7135 -1.78495
427 1 43.0205 24.0722 -0.219171 43.0205 24.0722 -0.219171
428 2 -7.0733 24.0895 1.12122 72.8545 24.0895 1.12122
429 2 -6.27464 24.0754 -1.63535 73.6531 24.0754 -1.63535
430 1 -5.50914 25.7308 0.0698465 74.4186 25.7308 0.0698465
431 2 -3.58803 25.7454 1.66329 76.3397 25.7454 1.66329
432 2 -3.67034 25.7138 -1.61612 76.2574 25.7138 -1.61612
433 1 -2.67465 27.3758 -0.0134246 -2.67465 27.3758 -0.0134246
434 2 -0.750815 27.3878 1.59124 -0.750815 27.3878 1.59124
435 2 -0.796291 27.3631 -1.67051 -0.796291 27.3631 -1.67051
436 1 0.176994 29.0216 -0.0653755 0.176994 29.0216 -0.0653755
437 2 2.09324 29.025 1.54818 2.09324 29.025 1.54818
438 2 2.06297 29.0168 -1.71391 2.06297 29.0168 -1.71391
439 1 3.02807 27.3738 -0.0869651 3.02807 27.3738 -0.0869651
440 2 4.93701 27.3692 1.53571 4.93701 27.3692 1.53571
441 2 4.92151 27.3758 -1.72648 4.92151 27.3758 -1.72648
442 1 5.87956 29.0189 -0.0965134 5.87956 29.0189 -0.0965134
443 2 7.78622 29.0102 1.52807 7.78622 29.0102 1.52807
444 2 7.775 29.025 -1.73413 7.775 29.025 -1.73413
445 1 8.73072 27.3706 -0.113602 8.73072 27.3706 -0.113602
446 2 10.644 27.3502 1.50272 10.644 27.3502 1.50272
447 2 10.619 27.3889 -1.75929 10.619 27.3889 -1.75929
448 1 11.5818 29.0159 -0.116248 11.5818 29.0159 -0.116248
449 2 13.4867 28.9898 1.50995 13.4867 28.9898 1.50995
450 2 13.4785 29.0402 -1.75198 13.4785 29.0402 -1.75198
451 1 14.4335 27.3689 -0.148942 14.4335 27.3689 -0.148942
452 2 16.3303 27.3442 1.48702 16.3303 27.3442 1.48702
453 2 16.339 27.3924 -1.77489 16.339 27.3924 -1.77489
454 1 17.2852 29.0141 -0.116729 17.2852 29.0141 -0.116729
455 2 19.1801 28.9928 1.52199 19.1801 28.9928 1.52199
456 2 19.1929 29.0326 -1.73998 19.1929 29.0326 -1.73998
457 1 20.138 27.3665 -0.125732 20.138 27.3665 -0.125732
458 2 22.0305 27.3556 1.51551 22.0305 27.3556 1.51551
459 2 22.0482 27.3735 -1.74669 22.0482 27.3735 -1.74669
460 1 22.9896 29.0107 -0.101259 22.9896 29.0107 -0.101259
461 2 24.8943 29.0019 1.5255 24.8943 29.0019 1.5255
462 2 24.8873 29.017 -1.73671 24.8873 29.017 -1.73671
463 1 25.8418 27.3632 -0.115243 25.8418 27.3632 -0.115243
464 2 27.7381 27.3588 1.5215 27.7381 27.3588 1.5215
465 2 27.7474 27.3669 -1.74082 27.7474 27.3669 -1.74082
466 1 28.6928 29.0095 -0.102597 28.6928 29.0095 -0.102597
467 2 30.5909 29.0138 1.53219 30.5909 29.0138 1.53219
468 2 30.5967 29.0061 -1.73012 30.5967 29.0061 -1.73012
469 1 31.5452 27.364 -0.0933523 31.5452 27.364 -0.0933523
470 2 33.4398 27.3703 1.54558 33.4398 27.3703 1.54558
471 2 33.4528 27.3584 -1.71665 33.4528 27.3584 -1.71665
472 1 34.3966 29.0108 -0.087591 34.3966 29.0108 -0.087591
473 2 36.3054 29.0251 1.53487 36.3054 29.0251 1.53487
474 2 36.2903 28.9968 -1.7272 36.2903 28.9968 -1.7272
475 1 37.2493 27.3649 -0.0859888 37.2493 27.3649 -0.0859888
476 2 39.1753 27.3723 1.5162 39.1753 27.3723 1.5162
477 2 39.1261 27.3581 -1.74583 39.1261 27.3581 -1.74583
478 1 40.1007 29.0117 -0.136593 40.1007 29.0117 -0.136593
479 2 42.0304 29.0114 1.40098 42.0304 29.0114 1.40098
480 2 41.9276 29.012 -1.79415 41.9276 29.012 -1.79415
481 1 43.0197 27.3652 -0.22892 43.0197 27.3652 -0.22892
482 2 -7.08741 27.3949 1.06172 72.8403 27.3949 1.06172
483 2 -6.2549 27.3497 -1.68083 73.6729 27.3497 -1.68083
484 1 -5.50849 29.0241 0.0136941 74.4193 29.0241 0.0136941
485 2 -3.60202 29.0384 1.6235 76.3257 29.0384 1.6235
486 2 -3.65594 29.0066 -1.65661 76.2718 29.0066 -1.65661
487 1 -2.6746 30.6686 -0.0452522 -2.6746 30.6686 -0.0452522
488 2 -0.753767 30.6825 1.56257 -0.753767 30.6825 1.56257
489 2 -0.793571 30.6539 -1.69932 -0.793571 30.6539 -1.69932
490 1 0.176316 32.3145 -0.0946713 0.176316 32.3145 -0.0946713
491 2 2.07972 32.3159 1.53404 2.07972 32.3159 1.53404
492 2 2.07498 32.3119 -1.72824 2.07498 32.3119 -1.72824
493 1 3.02822 30.6673 -0.0961139 3.02822 30.6673 -0.0961139
494 2 4.92862 30.6641 1.53603 4.92862 30.6641 1.53603
495 2 4.92998 30.6678 -1.72623 4.92998 30.6678 -1.72623
496 1 5.87988 32.3121 -0.0927697 5.87988 32.3121 -0.0927697
497 2 7.78137 32.3055 1.53796 7.78137 32.3055 1.53796
498 2 7.78077 32.3167 -1.72424 7.78077 32.3167 -1.72424
499 1 8.73099 30.664 -0.0989103 8.73099 30.664 -0.0989103
500 2 10.6342 30.6496 1.52934 10.6342 30.6496 1.52934
501 2 10.6296 30.676 -1.73283 10.6296 30.676 -1.73283
502 1 11.5825 32.3092 -0.0897333 11.5825 32.3092 -0.0897333
503 2 13.4793 32.2924 1.54633 13.4793 32.2924 1.54633
504 2 13.4873 32.3234 -1.71585 13.4873 32.3234 -1.71585
505 1 14.4332 30.6611 -0.0978562 14.4332 30.6611 -0.0978562
506 2 16.3346 30.6424 1.53289 16.3346 30.6424 1.53289
507 2 16.3338 30.6783 -1.72919 16.3338 30.6783 -1.72919
508 1 17.2852 32.3062 -0.0797698 17.2852 32.3062 -0.0797698
509 2 19.1825 32.2934 1.55599 19.1825 32.2934 1.55599
510 2 19.1902 32.3169 -1.70611 19.1902 32.3169 -1.70611
511 1 20.1372 30.6586 -0.0848505 20.1372 30.6586 -0.0848505
512 2 22.0399 30.6435 1.54475 22.0399 30.6435 1.54475
513 2 22.0374 30.6709 -1.71729 22.0374 30.6709 -1.71729
514 1 22.9893 32.3036 -0.0729622 22.9893 32.3036 -0.0729622
515 2 24.8995 32.2922 1.54737 24.8995 32.2922 1.54737
516 2 24.8815 32.313 -1.7147 24.8815 32.313 -1.7147
517 1 25.841 30.656 -0.0997806 25.841 30.656 -0.0997806
518 2 27.7435 30.6556 1.52956 27.7435 30.6556 1.52956
519 2 27.7405 30.6557 -1.73275 27.7405 30.6557 -1.73275
520 1 28.6923 32.3022 -0.102169 28.6923 32.3022 -0.102169
521 2 30.5975 32.3114 1.52381 30.5975 32.3114 1.52381
522 2 30.5891 32.2933 -1.73852 30.5891 32.2933 -1.73852
523 1 31.5441 30.6563 -0.100889 31.5441 30.6563 -0.100889
524 2 33.446 30.6709 1.5294 33.446 30.6709 1.5294
525 2 33.4444 30.6423 -1.7328 33.4444 30.6423 -1.7328
526 1 34.3957 32.3027 -0.116737 34.3957 32.3027 -0.116737
527 2 36.304 32.3177 1.5057 36.304 32.3177 1.5057
528 2 36.2896 32.2886 -1.75642 36.2896 32.2886 -1.75642
529 1 37.2484 30.6573 -0.114925 37.2484 30.6573 -0.114925
530 2 39.174 30.6781 1.48749 39.174 30.6781 1.48749
531 2 39.1255 30.6375 -1.77441 39.1255 30.6375 -1.77441
532 1 40.0992 32.3041 -0.17877 40.0992 32.3041 -0.17877
533 2 42.0032 32.2959 1.38959 42.0032 32.2959 1.38959
534 2 41.9527 32.313 -1.80679 41.9527 32.313 -1.80679
535 1 43.0194 30.6582 -0.231322 43.0194 30.6582 -0.231322