ITEM: TIMESTEP
4866000
ITEM: NUMBER OF ATOMS
810
ITEM: BOX BOUNDS pp pp pp
-1.1616270704288233e+01 6.4633875704287291e+01
8.1394622342039402e-01 5.0202268776579182e+01
-1.0000000000000000e+01 1.0000000000000000e+01
ITEM: ATOMS id type x y z xu yu zu
1 1 -2.01125 1.03157 -0.380372 -2.01125 1.03157 -0.380372
2 2 -0.154885 1.02997 1.30181 -0.154885 1.02997 1.30181
3 2 -0.0659659 1.03273 -1.95905 -0.0659659 1.03273 -1.95905
4 1 0.840302 2.6779 -0.301206 0.840302 2.6779 -0.301206
5 2 2.71716 2.67171 1.35778 2.71716 2.67171 1.35778
6 2 2.76641 2.68428 -1.90389 2.76641 2.68428 -1.90389
7 1 3.69321 1.03177 -0.265036 3.69321 1.03177 -0.265036
8 2 5.58419 1.01938 1.37795 5.58419 1.01938 1.37795
9 2 5.60568 1.04424 -1.88399 5.60568 1.04424 -1.88399
10 1 6.54577 2.67811 -0.234567 6.54577 2.67811 -0.234567
11 2 8.43357 2.65979 1.41232 8.43357 2.65979 1.41232
12 2 8.46109 2.69619 -1.84953 8.46109 2.69619 -1.84953
13 1 9.3984 1.03171 -0.22917 9.3984 1.03171 -0.22917
14 2 11.283 1.0178 1.42124 11.283 1.0178 1.42124
15 2 11.3163 1.0452 -1.84069 11.3163 1.0452 -1.84069
16 1 12.2502 2.6777 -0.186025 12.2502 2.6777 -0.186025
17 2 14.1361 2.66544 1.46273 14.1361 2.66544 1.46273
18 2 14.1668 2.68926 -1.79927 14.1668 2.68926 -1.79927
19 1 15.1025 1.03101 -0.171594 15.1025 1.03101 -0.171594
20 2 16.983 1.02464 1.48362 16.983 1.02464 1.48362
21 2 17.0243 1.03629 -1.77833 17.0243 1.03629 -1.77833
22 1 17.9542 2.67663 -0.128989 17.9542 2.67663 -0.128989
23 2 19.8396 2.67637 1.52074 19.8396 2.67637 1.52074
24 2 19.8711 2.67578 -1.74143 19.8711 2.67578 -1.74143
25 1 20.8057 1.02955 -0.100972 20.8057 1.02955 -0.100972
26 2 22.7004 1.03174 1.53745 22.7004 1.03174 1.53745
27 2 22.7133 1.02577 -1.72483 22.7133 1.02577 -1.72483
28 1 23.6579 2.67451 -0.0927315 23.6579 2.67451 -0.0927315
29 2 25.5615 2.68436 1.53555 25.5615 2.68436 1.53555
30 2 25.5566 2.66299 -1.7267 25.5566 2.66299 -1.7267
31 1 26.5098 1.02733 -0.0861819 26.5098 1.02733 -0.0861819
32 2 28.407 1.03898 1.54981 28.407 1.03898 1.54981
33 2 28.4152 1.01347 -1.71233 28.4152 1.01347 -1.71233
34 1 29.3621 2.67205 -0.0914974 29.3621 2.67205 -0.0914974
35 2 31.2627 2.69072 1.54069 31.2627 2.69072 1.54069
36 2 31.2642 2.65172 -1.7213 31.2642 2.65172 -1.7213
37 1 32.2145 1.02512 -0.0699136 32.2145 1.02512 -0.0699136
38 2 34.1253 1.03664 1.55004 34.1253 1.03664 1.55004
39 2 34.1066 1.01357 -1.712 34.1066 1.01357 -1.712
40 1 35.0672 2.67123 -0.0984979 35.0672 2.67123 -0.0984979
41 2 36.9945 2.6783 1.50187 36.9945 2.6783 1.50187
42 2 36.9426 2.66396 -1.7599 36.9426 2.66396 -1.7599
43 1 37.9191 1.02485 -0.136705 37.9191 1.02485 -0.136705
44 2 39.8452 1.02889 1.46546 39.8452 1.02889 1.46546
45 2 39.7958 1.01987 -1.79671 39.7958 1.01987 -1.79671
46 1 40.7715 2.67003 -0.184711 40.7715 2.67003 -0.184711
47 2 42.6693 2.66698 1.39144 42.6693 2.66698 1.39144
48 2 42.6316 2.67106 -1.80513 42.6316 2.67106 -1.80513
49 1 43.6905 1.0219 -0.220171 43.6905 1.0219 -0.220171
50 2 -5.61432 1.03502 1.25224 70.6358 1.03502 1.25224
51 2 -6.40913 1.02843 -1.50233 69.841 1.02843 -1.50233
52 1 -4.84577 2.6791 -0.464276 71.4044 2.6791 -0.464276
53 2 -3.02111 2.6689 1.23845 73.229 2.6689 1.23845
54 2 -2.91053 2.6878 -2.04019 73.3396 2.6878 -2.04019
55 1 -2.01112 4.32496 -0.36217 -2.01112 4.32496 -0.36217
56 2 -0.151753 4.31504 1.31552 -0.151753 4.31504 1.31552
57 2 -0.0685566 4.33432 -1.94533 -0.0685566 4.33432 -1.94533
58 1 0.841107 5.97117 -0.280528 0.841107 5.97117 -0.280528
59 2 2.71832 5.95597 1.37856 2.71832 5.95597 1.37856
60 2 2.76677 5.98594 -1.88302 2.76677 5.98594 -1.88302
61 1 3.69302 4.32432 -0.252737 3.69302 4.32432 -0.252737
62 2 5.5747 4.30773 1.40125 5.5747 4.30773 1.40125
63 2 5.61437 4.34096 -1.86047 5.61437 4.34096 -1.86047
64 1 6.54557 5.97043 -0.201429 6.54557 5.97043 -0.201429
65 2 8.43039 5.95099 1.44873 8.43039 5.95099 1.44873
66 2 8.46355 5.98969 -1.81307 8.46355 5.98969 -1.81307
67 1 9.39798 4.32414 -0.192073 9.39798 4.32414 -0.192073
68 2 11.2855 4.3064 1.45495 11.2855 4.3064 1.45495
69 2 11.313 4.34155 -1.80699 11.313 4.34155 -1.80699
70 1 12.2499 5.9701 -0.149917 12.2499 5.9701 -0.149917
71 2 14.1459 5.96398 1.48722 14.1459 5.96398 1.48722
72 2 14.1564 5.97567 -1.77503 14.1564 5.97567 -1.77503
73 1 15.102 4.32349 -0.14695 15.102 4.32349 -0.14695
74 2 16.9908 4.31918 1.49871 16.9908 4.31918 1.49871
75 2 17.0155 4.32654 -1.76349 17.0155 4.32654 -1.76349
76 1 17.9541 5.96853 -0.121248 17.9541 5.96853 -0.121248
77 2 19.8477 5.97434 1.51903 19.8477 5.97434 1.51903
78 2 19.8631 5.96098 -1.74329 19.8631 5.96098 -1.74329
79 1 20.8063 4.32171 -0.101175 20.8063 4.32171 -0.101175
80 2 22.7101 4.3338 1.52687 22.7101 4.3338 1.52687
81 2 22.7051 4.30794 -1.7354 22.7051 4.30794 -1.7354
82 1 23.6585 5.96633 -0.118685 23.6585 5.96633 -0.118685
83 2 25.5634 5.98342 1.50763 25.5634 5.98342 1.50763
84 2 25.5555 5.94763 -1.7546 25.5555 5.94763 -1.7546
85 1 26.5101 4.31932 -0.10774 26.5101 4.31932 -0.10774
86 2 28.4149 4.34066 1.51897 28.4149 4.34066 1.51897
87 2 28.4074 4.29577 -1.74303 28.4074 4.29577 -1.74303
88 1 29.362 5.9639 -0.136718 29.362 5.9639 -0.136718
89 2 31.2629 5.98912 1.4947 31.2629 5.98912 1.4947
90 2 31.2635 5.93722 -1.76713 31.2635 5.93722 -1.76713
91 1 32.2145 4.31726 -0.109607 32.2145 4.31726 -0.109607
92 2 34.1215 4.33761 1.51486 34.1215 4.33761 1.51486
93 2 34.1103 4.29681 -1.74706 34.1103 4.29681 -1.74706
94 1 35.0668 5.96315 -0.14046 35.0668 5.96315 -0.14046
95 2 36.9781 5.96893 1.47884 36.9781 5.96893 1.47884
96 2 36.9586 5.95668 -1.78328 36.9586 5.95668 -1.78328
97 1 37.9198 4.31689 -0.151735 37.9198 4.31689 -0.151735
98 2 39.8454 4.3253 1.45112 39.8454 4.3253 1.45112
99 2 39.7976 4.30744 -1.811 39.7976 4.30744 -1.811
100 1 40.7719 5.9623 -0.20315 40.7719 5.9623 -0.20315
101 2 42.6581 5.95974 1.38641 42.6581 5.95974 1.38641
102 2 42.6443 5.964 -1.81029 42.6443 5.964 -1.81029
103 1 43.6923 4.31516 -0.218274 43.6923 4.31516 -0.218274
104 2 -5.61316 4.31217 1.26122 70.637 4.31217 1.26122
105 2 -6.42219 4.33533 -1.47738 69.828 4.33533 -1.47738
106 1 -4.84467 5.97635 -0.443704 71.4055 5.97635 -0.443704
107 2 -3.03377 5.9342 1.27663 73.2164 5.9342 1.27663
108 2 -2.89127 6.01181 -1.99839 73.3589 6.01181 -1.99839
109 1 -2.00987 7.61934 -0.280284 -2.00987 7.61934 -0.280284
110 2 -0.121896 7.59617 1.3652 -0.121896 7.59617 1.3652
111 2 -0.0946181 7.64093 -1.89649 -0.0946181 7.64093 -1.89649
112 1 0.842964 9.26468 -0.236144 0.842964 9.26468 -0.236144
113 2 2.71967 9.23472 1.42294 2.71967 9.23472 1.42294
114 2 2.76821 9.29345 -1.83838 2.76821 9.29345 -1.83838
115 1 3.6938 7.61719 -0.223306 3.6938 7.61719 -0.223306
116 2 5.57085 7.59695 1.43539 5.57085 7.59695 1.43539
117 2 5.61908 7.63674 -1.82621 5.61908 7.63674 -1.82621
118 1 6.54574 9.26294 -0.161074 6.54574 9.26294 -0.161074
119 2 8.43137 9.24403 1.48795 8.43137 9.24403 1.48795
120 2 8.46243 9.28126 -1.77392 8.46243 9.28126 -1.77392
121 1 9.39771 7.61643 -0.152847 9.39771 7.61643 -0.152847
122 2 11.2907 7.60538 1.48777 11.2907 7.60538 1.48777
123 2 11.3074 7.62742 -1.77435 11.3074 7.62742 -1.77435
124 1 12.2499 9.26248 -0.127036 12.2499 9.26248 -0.127036
125 2 14.1542 9.25999 1.50033 14.1542 9.25999 1.50033
126 2 14.148 9.26406 -1.76197 14.148 9.26406 -1.76197
127 1 15.1019 7.61569 -0.134682 15.1019 7.61569 -0.134682
128 2 16.9969 7.61689 1.5039 16.9969 7.61689 1.5039
129 2 17.0092 7.61219 -1.75846 17.0092 7.61219 -1.75846
130 1 17.9541 9.25999 -0.12588 17.9541 9.25999 -0.12588
131 2 19.8558 9.27107 1.50471 19.8558 9.27107 1.50471
132 2 19.8547 9.24622 -1.7576 19.8547 9.24622 -1.7576
133 1 20.8065 7.61303 -0.114345 20.8065 7.61303 -0.114345
134 2 22.7167 7.62392 1.50604 22.7167 7.62392 1.50604
135 2 22.6987 7.60056 -1.75625 22.6987 7.60056 -1.75625
136 1 23.6581 9.25794 -0.142227 23.6581 9.25794 -0.142227
137 2 25.5711 9.27657 1.47473 25.5711 9.27657 1.47473
138 2 25.5469 9.23763 -1.78735 25.5469 9.23763 -1.78735
139 1 26.5101 7.61113 -0.143886 26.5101 7.61113 -0.143886
140 2 28.4201 7.6331 1.4763 28.4201 7.6331 1.4763
141 2 28.4019 7.58692 -1.78568 28.4019 7.58692 -1.78568
142 1 29.3614 9.25588 -0.183361 29.3614 9.25588 -0.183361
143 2 31.264 9.27828 1.44607 31.264 9.27828 1.44607
144 2 31.261 9.23234 -1.81587 31.261 9.23234 -1.81587
145 1 32.2138 7.60924 -0.162377 32.2138 7.60924 -0.162377
146 2 34.1138 7.62788 1.47034 34.1138 7.62788 1.47034
147 2 34.1164 7.59005 -1.79167 34.1164 7.59005 -1.79167
148 1 35.0657 9.25495 -0.179093 35.0657 9.25495 -0.179093
149 2 36.9649 9.26386 1.45501 36.9649 9.26386 1.45501
150 2 36.9697 9.24494 -1.80714 36.9697 9.24494 -1.80714
151 1 37.9194 7.60869 -0.164731 37.9194 7.60869 -0.164731
152 2 39.8376 7.59907 1.44711 39.8376 7.59907 1.44711
153 2 39.805 7.61768 -1.81515 39.805 7.61768 -1.81515
154 1 40.7712 9.25459 -0.184152 40.7712 9.25459 -0.184152
155 2 42.6657 9.25449 1.39585 42.6657 9.25449 1.39585
156 2 42.6348 9.25502 -1.80082 42.6348 9.25502 -1.80082
157 1 43.6921 7.60856 -0.213959 43.6921 7.60856 -0.213959
158 2 -5.62669 7.5312 1.33757 70.6235 7.5312 1.33757
159 2 -6.32341 7.69769 -1.50329 69.9267 7.69769 -1.50329
160 1 -4.83956 9.26615 -0.279311 71.4106 9.26615 -0.279311
161 2 -2.98477 9.24022 1.38054 73.2654 9.24022 1.38054
162 2 -2.95073 9.29159 -1.90086 73.2994 9.29159 -1.90086
163 1 -2.00845 10.9113 -0.220612 -2.00845 10.9113 -0.220612
164 2 -0.120125 10.8713 1.42614 -0.120125 10.8713 1.42614
165 2 -0.0938692 10.9512 -1.835 -0.0938692 10.9512 -1.835
166 1 0.843156 12.5573 -0.156115 0.843156 12.5573 -0.156115
167 2 2.73155 12.527 1.48997 2.73155 12.527 1.48997
168 2 2.75689 12.5864 -1.77163 2.75689 12.5864 -1.77163
169 1 3.69443 10.9101 -0.163511 3.69443 10.9101 -0.163511
170 2 5.58173 10.8879 1.48375 5.58173 10.8879 1.48375
171 2 5.60928 10.9312 -1.7781 5.60928 10.9312 -1.7781
172 1 6.54629 12.5556 -0.116815 6.54629 12.5556 -0.116815
173 2 8.44149 12.5471 1.52115 8.44149 12.5471 1.52115
174 2 8.45326 12.5635 -1.74105 8.45326 12.5635 -1.74105
175 1 9.39778 10.9088 -0.115024 9.39778 10.9088 -0.115024
176 2 11.3029 10.9041 1.51136 11.3029 10.9041 1.51136
177 2 11.2952 10.9135 -1.75087 11.2952 10.9135 -1.75087
178 1 12.2499 12.5548 -0.117263 12.2499 12.5548 -0.117263
179 2 14.1589 12.5544 1.50469 14.1589 12.5544 1.50469
180 2 14.1434 12.5537 -1.75756 14.1434 12.5537 -1.75756
181 1 15.102 10.9077 -0.130539 15.102 10.9077 -0.130539
182 2 17.003 10.9102 1.50108 17.003 10.9102 1.50108
183 2 17.0035 10.9021 -1.76125 17.0035 10.9021 -1.76125
184 1 17.9539 12.552 -0.134021 17.9539 12.552 -0.134021
185 2 19.863 12.5596 1.48759 19.863 12.5596 1.48759
186 2 19.847 12.5414 -1.77466 19.847 12.5414 -1.77466
187 1 20.8058 10.9044 -0.139223 20.8058 10.9044 -0.139223
188 2 22.7176 10.9193 1.47922 22.7176 10.9193 1.47922
189 2 22.6962 10.8882 -1.78292 22.6962 10.8882 -1.78292
190 1 23.6574 12.5497 -0.174034 23.6574 12.5497 -0.174034
191 2 25.5733 12.5666 1.43923 25.5733 12.5666 1.43923
192 2 25.5435 12.5316 -1.82277 25.5435 12.5316 -1.82277
193 1 26.5093 10.9029 -0.183024 26.5093 10.9029 -0.183024
194 2 28.4238 10.9251 1.43206 28.4238 10.9251 1.43206
195 2 28.3968 10.8789 -1.82982 28.3968 10.8789 -1.82982
196 1 29.3606 12.548 -0.230141 29.3606 12.548 -0.230141
197 2 31.2613 12.5673 1.40154 31.2613 12.5673 1.40154
198 2 31.2621 12.5277 -1.86049 31.2621 12.5277 -1.86049
199 1 32.2129 10.9014 -0.209043 32.2129 10.9014 -0.209043
200 2 34.1078 10.9189 1.42968 34.1078 10.9189 1.42968
201 2 34.1205 10.8828 -1.83235 34.1205 10.8828 -1.83235
202 1 35.065 12.5468 -0.215838 35.065 12.5468 -0.215838
203 2 36.9562 12.5588 1.42749 36.9562 12.5588 1.42749
204 2 36.9767 12.5335 -1.83455 36.9767 12.5335 -1.83455
205 1 37.9182 10.9004 -0.184312 37.9182 10.9004 -0.184312
206 2 39.8195 10.8994 1.44768 39.8195 10.8994 1.44768
207 2 39.8205 10.9014 -1.81481 39.8205 10.9014 -1.81481
208 1 40.7697 12.5469 -0.182395 40.7697 12.5469 -0.182395
209 2 42.6687 12.555 1.39193 42.6687 12.555 1.39193
210 2 42.6285 12.5399 -1.80464 42.6285 12.5399 -1.80464
211 1 43.6906 10.9016 -0.211891 43.6906 10.9016 -0.211891
212 2 -6.34316 10.8198 0.93967 69.907 10.8198 0.93967
213 2 -5.60322 11.024 -1.88284 70.6469 11.024 -1.88284
214 1 -4.84302 12.5524 -0.0695688 71.4071 12.5524 -0.0695688
215 2 -2.90778 12.4997 1.50628 73.3424 12.4997 1.50628
216 2 -3.01369 12.6145 -1.76935 73.2365 12.6145 -1.76935
217 1 -2.00805 14.2037 -0.100735 -2.00805 14.2037 -0.100735
218 2 -0.0913843 14.1744 1.51353 -0.0913843 14.1744 1.51353
219 2 -0.122285 14.2332 -1.748 -0.122285 14.2332 -1.748
220 1 0.84382 15.8499 -0.0955381 0.84382 15.8499 -0.0955381
221 2 2.73905 15.8298 1.54351 2.73905 15.8298 1.54351
222 2 2.75104 15.8686 -1.71852 2.75104 15.8686 -1.71852
223 1 3.69505 14.2026 -0.10347 3.69505 14.2026 -0.10347
224 2 5.59245 14.1829 1.5319 5.59245 14.1829 1.5319
225 2 5.59986 14.2215 -1.73013 5.59986 14.2215 -1.73013
226 1 6.5471 15.8483 -0.0772328 6.5471 15.8483 -0.0772328
227 2 8.45448 15.839 1.54643 8.45448 15.839 1.54643
228 2 8.44167 15.8574 -1.71579 8.44167 15.8574 -1.71579
229 1 9.39824 14.2015 -0.0980828 9.39824 14.2015 -0.0980828
230 2 11.3092 14.1998 1.52114 11.3092 14.1998 1.52114
231 2 11.2895 14.2027 -1.74111 11.2895 14.2027 -1.74111
232 1 12.25 15.8472 -0.114261 12.25 15.8472 -0.114261
233 2 14.1612 15.8468 1.5051 14.1612 15.8468 1.5051
234 2 14.1411 15.8458 -1.75714 14.1411 15.8458 -1.75714
235 1 15.1019 14.1999 -0.13133 15.1019 14.1999 -0.13133
236 2 17.0068 14.2022 1.49564 17.0068 14.2022 1.49564
237 2 16.9995 14.1946 -1.76664 16.9995 14.1946 -1.76664
238 1 17.9541 15.8443 -0.141417 17.9541 15.8443 -0.141417
239 2 19.8652 15.8442 1.47812 19.8652 15.8442 1.47812
240 2 19.8453 15.8417 -1.78409 19.8453 15.8417 -1.78409
241 1 20.8058 14.1965 -0.15753 20.8058 14.1965 -0.15753
242 2 22.7187 14.2006 1.45957 22.7187 14.2006 1.45957
243 2 22.695 14.1915 -1.80263 22.695 14.1915 -1.80263
244 1 23.6577 15.8421 -0.183133 23.6577 15.8421 -0.183133
245 2 25.5802 15.8449 1.42252 25.5802 15.8449 1.42252
246 2 25.5372 15.8384 -1.83951 25.5372 15.8384 -1.83951
247 1 26.5089 14.1951 -0.218138 26.5089 14.1951 -0.218138
248 2 28.4249 14.2087 1.39514 28.4249 14.2087 1.39514
249 2 28.3949 14.1801 -1.86689 28.3949 14.1801 -1.86689
250 1 29.3604 15.8405 -0.258893 29.3604 15.8405 -0.258893
251 2 31.266 15.8568 1.36709 31.266 15.8568 1.36709
252 2 31.2569 15.8226 -1.89503 31.2569 15.8226 -1.89503
253 1 32.2124 14.1935 -0.249177 32.2124 14.1935 -0.249177
254 2 34.105 14.2102 1.3923 34.105 14.2102 1.3923
255 2 34.1223 14.1754 -1.86972 34.1223 14.1754 -1.86972
256 1 35.0646 15.8386 -0.251239 35.0646 15.8386 -0.251239
257 2 36.9524 15.8544 1.39602 36.9524 15.8544 1.39602
258 2 36.9793 15.822 -1.86596 36.9793 15.822 -1.86596
259 1 37.9172 14.1924 -0.210268 37.9172 14.1924 -0.210268
260 2 39.8076 14.201 1.43408 39.8076 14.201 1.43408
261 2 39.8297 14.1844 -1.82836 39.8297 14.1844 -1.82836
262 1 40.7683 15.8393 -0.19921 40.7683 15.8393 -0.19921
263 2 42.6628 15.8357 1.38221 42.6628 15.8357 1.38221
264 2 42.6316 15.8441 -1.8145 42.6316 15.8441 -1.8145
265 1 43.689 14.1941 -0.227991 43.689 14.1941 -0.227991
266 2 -6.42789 14.1733 0.982906 69.8223 14.1733 0.982906
267 2 -5.59452 14.2476 -1.74866 70.6556 14.2476 -1.74866
268 1 -4.84217 15.8469 0.0156441 71.408 15.8469 0.0156441
269 2 -2.91303 15.8151 1.59853 73.3371 15.8151 1.59853
270 2 -3.01164 15.8832 -1.68013 73.2385 15.8832 -1.68013
271 1 -2.00815 17.4956 -0.0330668 -2.00815 17.4956 -0.0330668
272 2 -0.0824812 17.4755 1.56998 -0.0824812 17.4755 1.56998
273 2 -0.131241 17.5163 -1.6916 -0.131241 17.5163 -1.6916
274 1 0.844121 19.1419 -0.0540956 0.844121 19.1419 -0.0540956
275 2 2.74588 19.1316 1.57743 2.74588 19.1316 1.57743
276 2 2.74519 19.1514 -1.68477 2.74519 19.1514 -1.68477
277 1 3.69602 17.4951 -0.064024 3.69602 17.4951 -0.064024
278 2 5.59946 17.4856 1.56458 5.59946 17.4856 1.56458
279 2 5.59488 17.5042 -1.69767 5.59488 17.5042 -1.69767
280 1 6.5478 19.1412 -0.0584321 6.5478 19.1412 -0.0584321
281 2 8.45905 19.1388 1.56059 8.45905 19.1388 1.56059
282 2 8.43837 19.1433 -1.70168 8.43837 19.1433 -1.70168
283 1 9.39879 17.4944 -0.078995 9.39879 17.4944 -0.078995
284 2 11.3195 17.4936 1.52863 11.3195 17.4936 1.52863
285 2 11.2796 17.4938 -1.7335 11.2796 17.4938 -1.7335
286 1 12.2503 19.1395 -0.113835 12.2503 19.1395 -0.113835
287 2 14.166 19.1453 1.50015 14.166 19.1453 1.50015
288 2 14.1366 19.1313 -1.76202 14.1366 19.1313 -1.76202
289 1 15.1021 17.492 -0.132332 15.1021 17.492 -0.132332
290 2 17.0114 17.4953 1.48971 17.0114 17.4953 1.48971
291 2 16.9954 17.4862 -1.7725 16.9954 17.4862 -1.7725
292 1 17.9545 19.1366 -0.150713 17.9545 19.1366 -0.150713
293 2 19.862 19.1368 1.47325 19.862 19.1368 1.47325
294 2 19.8495 19.1344 -1.78896 19.8495 19.1344 -1.78896
295 1 20.8062 17.489 -0.160143 20.8062 17.489 -0.160143
296 2 22.7201 17.4878 1.45618 22.7201 17.4878 1.45618
297 2 22.6946 17.4891 -1.80604 22.6946 17.4891 -1.80604
298 1 23.658 19.1346 -0.181804 23.658 19.1346 -0.181804
299 2 25.5815 19.132 1.42236 25.5815 19.132 1.42236
300 2 25.5363 19.1359 -1.83968 25.5363 19.1359 -1.83968
301 1 26.5093 17.4877 -0.224247 26.5093 17.4877 -0.224247
302 2 28.4331 17.4931 1.37968 28.4331 17.4931 1.37968
303 2 28.3872 17.481 -1.88232 28.3872 17.481 -1.88232
304 1 29.3607 19.1329 -0.270751 29.3607 19.1329 -0.270751
305 2 31.273 19.1386 1.34723 31.273 19.1386 1.34723
306 2 31.2504 19.1252 -1.91501 31.2504 19.1252 -1.91501
307 1 32.2124 17.4855 -0.283761 32.2124 17.4855 -0.283761
308 2 34.1059 17.5026 1.35666 34.1059 17.5026 1.35666
309 2 34.1213 17.4666 -1.90539 34.1213 17.4666 -1.90539
310 1 35.0642 19.1307 -0.28815 35.0642 19.1307 -0.28815
311 2 36.9495 19.1474 1.36122 36.9495 19.1474 1.36122
312 2 36.9813 19.1137 -1.90071 36.9813 19.1137 -1.90071
313 1 37.9163 17.4845 -0.243426 37.9163 17.4845 -0.243426
314 2 39.8057 17.5072 1.40157 39.8057 17.5072 1.40157
315 2 39.8293 17.4627 -1.86066 39.8293 17.4627 -1.86066
316 1 40.7669 19.1316 -0.246427 40.7669 19.1316 -0.246427
317 2 42.6231 19.1134 1.37743 42.6231 19.1134 1.37743
318 2 42.6678 19.1513 -1.81897 42.6678 19.1513 -1.81897
319 1 43.6876 17.4866 -0.22338 43.6876 17.4866 -0.22338
320 2 -6.39957 17.4822 1.08533 69.8506 17.4822 1.08533
321 2 -5.61733 17.5127 -1.67485 70.6328 17.5127 -1.67485
322 1 -4.84189 19.1409 0.0522775 71.4083 19.1409 0.0522775
323 2 -2.91699 19.1316 1.64 73.3332 19.1316 1.64
324 2 -3.0091 19.1515 -1.63935 73.241 19.1515 -1.63935
325 1 -2.0081 20.7879 -0.0136764 -2.0081 20.7879 -0.0136764
326 2 -0.0884085 20.7788 1.59639 -0.0884085 20.7788 1.59639
327 2 -0.125197 20.797 -1.66558 -0.125197 20.797 -1.66558
328 1 0.843867 22.4342 -0.0358184 0.843867 22.4342 -0.0358184
329 2 2.74891 22.432 1.59158 2.74891 22.432 1.59158
330 2 2.7416 22.4357 -1.67061 2.7416 22.4357 -1.67061
331 1 3.69622 20.7877 -0.0434772 3.69622 20.7877 -0.0434772
332 2 5.60334 20.7827 1.58103 5.60334 20.7827 1.58103
333 2 5.59152 20.7926 -1.68122 5.59152 20.7926 -1.68122
334 1 6.54788 22.4341 -0.0485367 6.54788 22.4341 -0.0485367
335 2 8.46437 22.4356 1.56435 8.46437 22.4356 1.56435
336 2 8.43358 22.4322 -1.69777 8.43358 22.4322 -1.69777
337 1 9.39925 20.7872 -0.0743136 9.39925 20.7872 -0.0743136
338 2 11.324 20.7889 1.52826 11.324 20.7889 1.52826
339 2 11.276 20.783 -1.73374 11.276 20.783 -1.73374
340 1 12.2506 22.432 -0.119867 12.2506 22.432 -0.119867
341 2 14.1701 22.4363 1.48934 14.1701 22.4363 1.48934
342 2 14.1329 22.4246 -1.7727 14.1329 22.4246 -1.7727
343 1 15.1023 20.7841 -0.146591 15.1023 20.7841 -0.146591
344 2 17.009 20.7878 1.47844 17.009 20.7878 1.47844
345 2 16.9983 20.7782 -1.78375 16.9983 20.7782 -1.78375
346 1 17.9543 22.4293 -0.160773 17.9543 22.4293 -0.160773
347 2 19.8559 22.4263 1.47045 19.8559 22.4263 1.47045
348 2 19.8555 22.4308 -1.79175 19.8555 22.4308 -1.79175
349 1 20.8063 20.7819 -0.162825 20.8063 20.7819 -0.162825
350 2 22.7158 20.777 1.4585 22.7158 20.777 1.4585
351 2 22.6991 20.7851 -1.80375 22.6991 20.7851 -1.80375
352 1 23.658 22.4273 -0.173424 23.658 22.4273 -0.173424
353 2 25.5825 22.4217 1.42967 25.5825 22.4217 1.42967
354 2 25.5353 22.431 -1.83229 25.5353 22.431 -1.83229
355 1 26.5094 20.78 -0.220009 26.5094 20.78 -0.220009
356 2 28.4373 20.7769 1.37877 28.4373 20.7769 1.37877
357 2 28.383 20.7817 -1.88313 28.383 20.7817 -1.88313
358 1 29.3602 22.4254 -0.265806 29.3602 22.4254 -0.265806
359 2 31.2731 22.4138 1.35141 31.2731 22.4138 1.35141
360 2 31.2494 22.4347 -1.91076 31.2494 22.4347 -1.91076
361 1 32.2121 20.7779 -0.297307 32.2121 20.7779 -0.297307
362 2 34.1081 20.7774 1.33991 34.1081 20.7774 1.33991
363 2 34.1184 20.7767 -1.92237 34.1184 20.7767 -1.92237
364 1 35.0633 22.4235 -0.2885 35.0633 22.4235 -0.2885
365 2 36.9556 22.4187 1.35294 36.9556 22.4187 1.35294
366 2 36.9729 22.428 -1.90934 36.9729 22.428 -1.90934
367 1 37.9154 20.7772 -0.277842 37.9154 20.7772 -0.277842
368 2 39.797 20.7746 1.37596 39.797 20.7746 1.37596
369 2 39.8358 20.7807 -1.88646 39.8358 20.7807 -1.88646
370 1 40.7656 22.4241 -0.241237 40.7656 22.4241 -0.241237
371 2 42.6075 22.4137 1.39833 42.6075 22.4137 1.39833
372 2 42.6802 22.4355 -1.7977 42.6802 22.4355 -1.7977
373 1 43.6855 20.7788 -0.187962 43.6855 20.7788 -0.187962
374 2 -6.40088 20.7813 1.1112 69.8493 20.7813 1.1112
375 2 -5.60834 20.7996 -1.64973 70.6418 20.7996 -1.64973
376 1 -4.84123 22.4348 0.0733565 71.4089 22.4348 0.0733565
377 2 -2.91578 22.424 1.66053 73.3344 22.424 1.66053
378 2 -3.00814 22.4447 -1.61874 73.242 22.4447 -1.61874
379 1 -2.00774 24.0807 0.00739765 -2.00774 24.0807 0.00739765
380 2 -0.0834889 24.0775 1.61169 -0.0834889 24.0775 1.61169
381 2 -0.130157 24.0834 -1.65023 -0.130157 24.0834 -1.65023
382 1 0.843806 25.7267 -0.0293126 0.843806 25.7267 -0.0293126
383 2 2.75256 25.7287 1.59365 2.75256 25.7287 1.59365
384 2 2.73754 25.7248 -1.66855 2.73754 25.7248 -1.66855
385 1 3.69581 24.0804 -0.0396233 3.69581 24.0804 -0.0396233
386 2 5.60136 24.0788 1.58668 5.60136 24.0788 1.58668
387 2 5.59267 24.0819 -1.67554 5.59267 24.0819 -1.67554
388 1 6.54762 25.7268 -0.0453886 6.54762 25.7268 -0.0453886
389 2 8.46941 25.7312 1.56142 8.46941 25.7312 1.56142
390 2 8.42827 25.7223 -1.70054 8.42827 25.7223 -1.70054
391 1 9.39946 24.0801 -0.0773156 9.39946 24.0801 -0.0773156
392 2 11.3258 24.0812 1.52359 11.3258 24.0812 1.52359
393 2 11.275 24.0766 -1.73824 11.275 24.0766 -1.73824
394 1 12.2511 25.725 -0.124653 12.2511 25.725 -0.124653
395 2 14.1741 25.7285 1.4804 14.1741 25.7285 1.4804
396 2 14.1299 25.7186 -1.78149 14.1299 25.7186 -1.78149
397 1 15.1022 24.0766 -0.15834 15.1022 24.0766 -0.15834
398 2 17.0072 24.0788 1.469 17.0072 24.0788 1.469
399 2 16.9998 24.0728 -1.79318 16.9998 24.0728 -1.79318
400 1 17.9544 25.7222 -0.167238 17.9544 25.7222 -0.167238
401 2 19.852 25.7238 1.46831 19.852 25.7238 1.46831
402 2 19.8592 25.7195 -1.79386 19.8592 25.7195 -1.79386
403 1 20.8062 24.0749 -0.158439 20.8062 24.0749 -0.158439
404 2 22.7163 24.0745 1.46233 22.7163 24.0745 1.46233
405 2 22.6986 24.0733 -1.79986 22.6986 24.0733 -1.79986
406 1 23.6577 25.7204 -0.174745 23.6577 25.7204 -0.174745
407 2 25.5762 25.7145 1.43544 25.5762 25.7145 1.43544
408 2 25.541 25.7244 -1.82665 25.541 25.7244 -1.82665
409 1 26.509 24.0728 -0.210782 26.509 24.0728 -0.210782
410 2 28.4346 24.0608 1.39084 28.4346 24.0608 1.39084
411 2 28.3848 24.0829 -1.87103 28.3848 24.0829 -1.87103
412 1 29.3598 25.7182 -0.243631 29.3598 25.7182 -0.243631
413 2 31.27 25.7013 1.37657 31.27 25.7013 1.37657
414 2 31.2515 25.7328 -1.88552 31.2515 25.7328 -1.88552
415 1 32.2112 24.0705 -0.275999 32.2112 24.0705 -0.275999
416 2 34.1117 24.0564 1.35588 34.1117 24.0564 1.35588
417 2 34.1126 24.0829 -1.90633 34.1126 24.0829 -1.90633
418 1 35.062 25.7162 -0.261604 35.062 25.7162 -0.261604
419 2 36.9542 25.6942 1.37967 36.9542 25.6942 1.37967
420 2 36.9715 25.7375 -1.88233 36.9715 25.7375 -1.88233
421 1 37.914 24.0699 -0.268247 37.914 24.0699 -0.268247
422 2 39.7929 24.0585 1.38895 39.7929 24.0585 1.38895
423 2 39.8371 24.0815 -1.87336 39.8371 24.0815 -1.87336
424 1 40.7647 25.7161 -0.216976 40.7647 25.7161 -0.216976
425 2 42.6205 25.729 1.40731 42.6205 25.729 1.40731
426 2 42.6659 25.7041 -1.78919 42.6659 25.7041 -1.78919
427 1 43.6844 24.0707 -0.165202 43.6844 24.0707 -0.165202
428 2 -6.41137 24.0775 1.11308 69.8388 24.0775 1.11308
429 2 -5.59987 24.0887 -1.63743 70.6503 24.0887 -1.63743
430 1 -4.84126 25.728 0.0864067 71.4089 25.728 0.0864067
431 2 -2.91931 25.7187 1.67776 73.3308 25.7187 1.67776
432 2 -3.00469 25.7355 -1.6018 73.2455 25.7355 -1.6018
433 1 -2.00751 27.3733 0.0244183 -2.00751 27.3733 0.0244183
434 2 -0.0770238 27.3711 1.62093 -0.0770238 27.3711 1.62093
435 2 -0.136456 27.3749 -1.64078 -0.136456 27.3749 -1.64078
436 1 0.843766 29.0194 -0.0248689 0.843766 29.0194 -0.0248689
437 2 2.75946 29.026 1.58981 2.75946 29.026 1.58981
438 2 2.7302 29.0131 -1.67233 2.7302 29.0131 -1.67233
439 1 3.69555 27.3732 -0.043377 3.69555 27.3732 -0.043377
440 2 5.60392 27.3833 1.57957 5.60392 27.3833 1.57957
441 2 5.58943 27.3629 -1.68261 5.58943 27.3629 -1.68261
442 1 6.54758 29.019 -0.0659429 6.54758 29.019 -0.0659429
443 2 8.46823 29.0326 1.54208 8.46823 29.0326 1.54208
444 2 8.42928 29.0049 -1.71989 8.42928 29.0049 -1.71989
445 1 9.39967 27.3726 -0.0861527 9.39967 27.3726 -0.0861527
446 2 11.3254 27.3767 1.51584 11.3254 27.3767 1.51584
447 2 11.2762 27.367 -1.74601 11.2762 27.367 -1.74601
448 1 12.2518 29.0176 -0.134756 12.2518 29.0176 -0.134756
449 2 14.1703 29.0134 1.47592 14.1703 29.0134 1.47592
450 2 14.1355 29.02 -1.7861 14.1355 29.02 -1.7861
451 1 15.103 27.3698 -0.168421 15.103 27.3698 -0.168421
452 2 17.004 27.3695 1.46331 17.004 27.3695 1.46331
453 2 17.0045 27.3688 -1.79889 17.0045 27.3688 -1.79889
454 1 17.955 29.0156 -0.167702 17.955 29.0156 -0.167702
455 2 19.8528 29.0136 1.46759 19.8528 29.0136 1.46759
456 2 19.8595 29.0164 -1.79466 19.8595 29.0164 -1.79466
457 1 20.8062 27.3681 -0.162937 20.8062 27.3681 -0.162937
458 2 22.7123 27.3643 1.46222 22.7123 27.3643 1.46222
459 2 22.7023 27.3702 -1.80001 22.7023 27.3702 -1.80001
460 1 23.6576 29.0136 -0.169067 23.6576 29.0136 -0.169067
461 2 25.5715 29.0036 1.44652 25.5715 29.0036 1.44652
462 2 25.5454 29.0216 -1.81565 25.5454 29.0216 -1.81565
463 1 26.5087 27.3658 -0.20119 26.5087 27.3658 -0.20119
464 2 28.4254 27.3504 1.41107 28.4254 27.3504 1.41107
465 2 28.3938 27.3792 -1.85095 28.3938 27.3792 -1.85095
466 1 29.36 29.0111 -0.214871 29.36 29.0111 -0.214871
467 2 31.2652 28.9888 1.41119 31.2652 28.9888 1.41119
468 2 31.2565 29.0319 -1.85081 31.2565 29.0319 -1.85081
469 1 32.2109 27.3636 -0.243975 32.2109 27.3636 -0.243975
470 2 34.1067 27.3365 1.39297 34.1067 27.3365 1.39297
471 2 34.1166 27.389 -1.86889 34.1166 27.389 -1.86889
472 1 35.062 29.0092 -0.208454 35.062 29.0092 -0.208454
473 2 36.9561 28.982 1.43041 36.9561 28.982 1.43041
474 2 36.9696 29.035 -1.83137 36.9696 29.035 -1.83137
475 1 37.9132 27.3622 -0.223889 37.9132 27.3622 -0.223889
476 2 39.8055 27.3547 1.4176 39.8055 27.3547 1.4176
477 2 39.8232 27.3694 -1.84495 39.8232 27.3694 -1.84495
478 1 40.7645 29.0085 -0.200157 40.7645 29.0085 -0.200157
479 2 42.6454 29.0253 1.39581 42.6454 29.0253 1.39581
480 2 42.6413 28.992 -1.80092 42.6413 28.992 -1.80092
481 1 43.6845 27.3626 -0.188287 43.6845 27.3626 -0.188287
482 2 -6.4056 27.3732 1.13023 69.8445 27.3732 1.13023
483 2 -5.60342 27.3775 -1.62605 70.6467 27.3775 -1.62605
484 1 -4.8411 29.021 0.0917205 71.409 29.021 0.0917205
485 2 -2.91916 29.0229 1.68334 73.331 29.0229 1.68334
486 2 -3.0046 29.0165 -1.59637 73.2456 29.0165 -1.59637
487 1 -2.00754 30.6662 0.0188592 -2.00754 30.6662 0.0188592
488 2 -0.0734549 30.6793 1.61127 -0.0734549 30.6793 1.61127
489 2 -0.140167 30.6521 -1.65017 -0.140167 30.6521 -1.65017
490 1 0.843387 32.3121 -0.052703 0.843387 32.3121 -0.052703
491 2 2.76004 32.3346 1.56088 2.76004 32.3346 1.56088
492 2 2.72898 32.289 -1.70092 2.72898 32.289 -1.70092
493 1 3.6955 30.6657 -0.0559286 3.6955 30.6657 -0.0559286
494 2 5.6118 30.6812 1.55778 5.6118 30.6812 1.55778
495 2 5.5816 30.649 -1.70423 5.5816 30.649 -1.70423
496 1 6.54778 32.3107 -0.0982533 6.54778 32.3107 -0.0982533
497 2 8.46919 32.3289 1.50901 8.46919 32.3289 1.50901
498 2 8.42863 32.2913 -1.75288 8.42863 32.2913 -1.75288
499 1 9.39984 30.6643 -0.114519 9.39984 30.6643 -0.114519
500 2 11.3177 30.6725 1.49703 11.3177 30.6725 1.49703
501 2 11.2843 30.6554 -1.76507 11.2843 30.6554 -1.76507
502 1 12.2517 32.3099 -0.152864 12.2517 32.3099 -0.152864
503 2 14.1567 32.3069 1.47374 14.1567 32.3069 1.47374
504 2 14.149 32.3121 -1.7885 14.149 32.3121 -1.7885
505 1 15.1037 30.663 -0.162059 15.1037 30.663 -0.162059
506 2 17.0062 30.6592 1.4677 17.0062 30.6592 1.4677
507 2 17.0035 30.6657 -1.79453 17.0035 30.6657 -1.79453
508 1 17.9549 32.309 -0.160636 17.9549 32.309 -0.160636
509 2 19.8521 32.3017 1.47521 19.8521 32.3017 1.47521
510 2 19.8599 32.3147 -1.78704 19.8599 32.3147 -1.78704
511 1 20.8064 30.6614 -0.160162 20.8064 30.6614 -0.160162
512 2 22.7089 30.6542 1.46917 22.7089 30.6542 1.46917
513 2 22.7059 30.6666 -1.79314 22.7059 30.6666 -1.79314
514 1 23.6576 32.3066 -0.156768 23.6576 32.3066 -0.156768
515 2 25.5661 32.2924 1.46518 25.5661 32.2924 1.46518
516 2 25.5508 32.318 -1.79706 25.5508 32.318 -1.79706
517 1 26.5088 30.6587 -0.183301 26.5088 30.6587 -0.183301
518 2 28.419 30.6424 1.43684 28.419 30.6424 1.43684
519 2 28.4005 30.6729 -1.82532 28.4005 30.6729 -1.82532
520 1 29.36 32.304 -0.184355 29.36 32.304 -0.184355
521 2 31.2567 32.2795 1.45177 31.2567 32.2795 1.45177
522 2 31.2652 32.3271 -1.81017 31.2652 32.3271 -1.81017
523 1 32.2113 30.6568 -0.200503 32.2113 30.6568 -0.200503
524 2 34.1021 30.6304 1.44254 34.1021 30.6304 1.44254
525 2 34.1222 30.6819 -1.81921 34.1222 30.6819 -1.81921
526 1 35.0628 32.3025 -0.156058 35.0628 32.3025 -0.156058
527 2 36.9629 32.2875 1.47628 36.9629 32.2875 1.47628
528 2 36.9652 32.3169 -1.78571 36.9652 32.3169 -1.78571
529 1 37.9137 30.655 -0.169346 37.9137 30.655 -0.169346
530 2 39.8264 30.6454 1.44828 39.8264 30.6454 1.44828
531 2 39.8036 30.6646 -1.8141 39.8036 30.6646 -1.8141
532 1 40.7651 32.3018 -0.1794 40.7651 32.3018 -0.1794
533 2 42.6706 32.3125 1.38733 42.6706 32.3125 1.38733
534 2 42.6167 32.2909 -1.80906 42.6167 32.2909 -1.80906
535 1 43.6844 30.6551 -0.219003 43.6844 30.6551 -0.219003