ITEM: TIMESTEP
129000
ITEM: NUMBER OF ATOMS
810
ITEM: BOX BOUNDS pp pp pp
5.3215333504387807e-01 5.2485451664955193e+01
8.1394622342039402e-01 5.0202268776579182e+01
-1.0000000000000000e+01 1.0000000000000000e+01
ITEM: ATOMS id type x y z xu yu zu
1 1 0.740979 1.02966 -0.164939 0.740979 1.02966 -0.164939
2 2 2.67328 0.977658 1.44685 2.67328 0.977658 1.44685
3 2 2.64674 1.0819 -1.80819 2.64674 1.0819 -1.80819
4 1 3.62734 2.67574 -0.135736 3.62734 2.67574 -0.135736
5 2 5.55827 2.62108 1.47768 5.55827 2.62108 1.47768
6 2 5.53451 2.73039 -1.7772 5.53451 2.73039 -1.7772
7 1 6.5135 1.03004 -0.212251 6.5135 1.03004 -0.212251
8 2 8.44048 0.977338 1.40593 8.44048 0.977338 1.40593
9 2 8.42467 1.08237 -1.84914 8.42467 1.08237 -1.84914
10 1 9.39988 2.6757 -0.172995 9.39988 2.6757 -0.172995
11 2 11.3234 2.62258 1.44933 11.3234 2.62258 1.44933
12 2 11.3145 2.72823 -1.80576 11.3145 2.72823 -1.80576
13 1 12.2861 1.02956 -0.234427 12.2861 1.02956 -0.234427
14 2 14.2031 0.97787 1.39572 14.2031 0.97787 1.39572
15 2 14.2074 1.08037 -1.85948 14.2074 1.08037 -1.85948
16 1 15.1725 2.67485 -0.178522 15.1725 2.67485 -0.178522
17 2 17.0857 2.62579 1.45608 17.0857 2.62579 1.45608
18 2 17.0973 2.723 -1.79928 17.0973 2.723 -1.79928
19 1 18.0588 1.02836 -0.217407 18.0588 1.02836 -0.217407
20 2 19.966 0.978463 1.42423 19.966 0.978463 1.42423
21 2 19.9896 1.07729 -1.83101 19.9896 1.07729 -1.83101
22 1 20.945 2.67357 -0.146133 20.945 2.67357 -0.146133
23 2 22.8506 2.62845 1.49747 22.8506 2.62845 1.49747
24 2 22.8773 2.71795 -1.75802 22.8773 2.71795 -1.75802
25 1 23.8313 1.02702 -0.167653 23.8313 1.02702 -0.167653
26 2 25.735 0.978135 1.47804 25.735 0.978135 1.47804
27 2 25.7655 1.07536 -1.77717 25.7655 1.07536 -1.77717
28 1 26.7174 2.67252 -0.0911343 26.7174 2.67252 -0.0911343
29 2 28.6235 2.62882 1.55202 28.6235 2.62882 1.55202
30 2 28.6494 2.71606 -1.70352 28.6494 2.71606 -1.70352
31 1 29.6037 1.02626 -0.112235 29.6037 1.02626 -0.112235
32 2 31.5128 0.977471 1.52731 31.5128 0.977471 1.52731
33 2 31.5329 1.07523 -1.72797 31.5329 1.07523 -1.72797
34 1 32.4899 2.67227 -0.0447795 32.4899 2.67227 -0.0447795
35 2 34.4039 2.62781 1.58911 34.4039 2.62781 1.58911
36 2 34.4141 2.71721 -1.66646 34.4141 2.71721 -1.66646
37 1 35.3763 1.02649 -0.0809429 35.3763 1.02649 -0.0809429
38 2 37.2946 0.977871 1.54768 37.2946 0.977871 1.54768
39 2 37.2962 1.07585 -1.70767 37.2962 1.07585 -1.70767
40 1 38.2626 2.67288 -0.0298576 38.2626 2.67288 -0.0298576
41 2 40.1856 2.62658 1.59336 40.1856 2.62658 1.59336
42 2 40.1779 2.72003 -1.6621 40.1779 2.72003 -1.6621
43 1 41.149 1.02747 -0.0840445 41.149 1.02747 -0.0840445
44 2 43.0754 0.978738 1.53502 43.0754 0.978738 1.53502
45 2 43.0609 1.0771 -1.72028 43.0609 1.0771 -1.72028
46 1 44.0354 2.67397 -0.0471073 44.0354 2.67397 -0.0471073
47 2 45.9649 2.62479 1.56822 45.9649 2.62479 1.56822
48 2 45.9441 2.72398 -1.68701 45.9441 2.72398 -1.68701
49 1 46.9217 1.02868 -0.11589 46.9217 1.02868 -0.11589
50 2 48.8532 0.978647 1.49689 48.8532 0.978647 1.49689
51 2 48.8283 1.0794 -1.75827 48.8283 1.0794 -1.75827
52 1 49.8081 2.67506 -0.0870942 49.8081 2.67506 -0.0870942
53 2 51.7407 2.62232 1.52436 51.7407 2.62232 1.52436
54 2 51.7136 2.7283 -1.73061 51.7136 2.7283 -1.73061
55 1 0.74119 4.32128 -0.057483 0.74119 4.32128 -0.057483
56 2 2.67363 4.26762 1.55421 2.67363 4.26762 1.55421
57 2 2.64683 4.37521 -1.70071 2.64683 4.37521 -1.70071
58 1 3.62758 5.96737 -0.0266268 3.62758 5.96737 -0.0266268
59 2 5.55953 5.91614 1.58579 5.55953 5.91614 1.58579
60 2 5.53372 6.01866 -1.66929 5.53372 6.01866 -1.66929
61 1 6.51372 4.3216 -0.101345 6.51372 4.3216 -0.101345
62 2 8.44273 4.26817 1.51446 8.44273 4.26817 1.51446
63 2 8.42278 4.37477 -1.74054 8.42278 4.37477 -1.74054
64 1 9.40006 5.96734 -0.0647727 9.40006 5.96734 -0.0647727
65 2 11.3274 5.91996 1.55329 11.3274 5.91996 1.55329
66 2 11.3108 6.01433 -1.70213 11.3108 6.01433 -1.70213
67 1 12.2862 4.32118 -0.12716 12.2862 4.32118 -0.12716
68 2 14.2068 4.27267 1.49889 14.2068 4.27267 1.49889
69 2 14.2037 4.369 -1.75652 14.2037 4.369 -1.75652
70 1 15.1725 5.9667 -0.0806469 15.1725 5.9667 -0.0806469
71 2 17.0909 5.92752 1.54824 17.0909 5.92752 1.54824
72 2 17.0921 6.00523 -1.70769 17.0921 6.00523 -1.70769
73 1 18.0587 4.32016 -0.118694 18.0587 4.32016 -0.118694
74 2 19.9697 4.27837 1.51887 19.9697 4.27837 1.51887
75 2 19.9858 4.36119 -1.73688 19.9858 4.36119 -1.73688
76 1 20.9449 5.96574 -0.0619856 20.9449 5.96574 -0.0619856
77 2 22.8547 5.93438 1.57723 22.8547 5.93438 1.57723
78 2 22.8731 5.99659 -1.67897 22.8731 5.99659 -1.67897
79 1 23.8311 4.31906 -0.076819 23.8311 4.31906 -0.076819
80 2 25.7371 4.2817 1.56665 25.7371 4.2817 1.56665
81 2 25.7631 4.35602 -1.68922 25.7631 4.35602 -1.68922
82 1 26.7173 5.96498 -0.0157225 26.7173 5.96498 -0.0157225
83 2 28.6249 5.93672 1.62608 28.6249 5.93672 1.62608
84 2 28.6477 5.99317 -1.63017 28.6477 5.99317 -1.63017
85 1 29.6036 4.31845 -0.0237584 29.6036 4.31845 -0.0237584
86 2 31.5134 4.28132 1.61531 31.5134 4.28132 1.61531
87 2 31.532 4.35578 -1.64059 31.532 4.35578 -1.64059
88 1 32.4898 5.96481 0.0306958 32.4898 5.96481 0.0306958
89 2 34.4034 5.93436 1.66548 34.4034 5.93436 1.66548
90 2 34.4144 5.99567 -1.59073 34.4144 5.99567 -1.59073
91 1 35.3762 4.31864 0.00969961 35.3762 4.31864 0.00969961
92 2 37.2947 4.27871 1.63843 37.2947 4.27871 1.63843
93 2 37.2959 4.35922 -1.61738 37.2959 4.35922 -1.61738
94 1 38.2625 5.96526 0.0517285 38.2625 5.96526 0.0517285
95 2 40.1843 5.92948 1.67676 40.1843 5.92948 1.67676
96 2 40.179 6.00173 -1.57923 40.179 6.00173 -1.57923
97 1 41.149 4.31944 0.0106998 41.149 4.31944 0.0106998
98 2 43.0752 4.27513 1.63018 43.0752 4.27513 1.63018
99 2 43.061 4.36458 -1.62536 43.061 4.36458 -1.62536
100 1 44.0354 5.96607 0.0435347 44.0354 5.96607 0.0435347
101 2 45.9633 5.92352 1.66108 45.9633 5.92352 1.66108
102 2 45.9457 6.00932 -1.59453 45.9457 6.00932 -1.59453
103 1 46.9218 4.32046 -0.0153409 46.9218 4.32046 -0.0153409
104 2 48.8528 4.27086 1.59819 48.8528 4.27086 1.59819
105 2 48.8289 4.37072 -1.65699 48.8289 4.37072 -1.65699
106 1 49.8082 5.96688 0.0141055 49.8082 5.96688 0.0141055
107 2 51.7397 5.91801 1.62719 51.7397 5.91801 1.62719
108 2 51.7149 6.0162 -1.62803 51.7149 6.0162 -1.62803
109 1 0.741369 7.61323 0.0420304 0.741369 7.61323 0.0420304
110 2 2.67316 7.56766 1.65487 2.67316 7.56766 1.65487
111 2 2.64773 7.65905 -1.60053 2.64773 7.65905 -1.60053
112 1 3.62779 9.25958 0.0660411 3.62779 9.25958 0.0660411
113 2 5.56063 9.22099 1.67784 5.56063 9.22099 1.67784
114 2 5.53308 9.29827 -1.57791 5.53308 9.29827 -1.57791
115 1 6.51396 7.61342 0.00268672 6.51396 7.61342 0.00268672
116 2 8.44575 7.56898 1.61552 8.44575 7.56898 1.61552
117 2 8.4202 7.65776 -1.63998 8.4202 7.65776 -1.63998
118 1 9.4003 9.25956 0.0254037 9.4003 9.25956 0.0254037
119 2 11.3325 9.22638 1.63808 11.3325 9.22638 1.63808
120 2 11.3061 9.29255 -1.61797 11.3061 9.29255 -1.61797
121 1 12.2864 7.61315 -0.0312758 12.2864 7.61315 -0.0312758
122 2 14.2125 7.5765 1.5885 14.2125 7.5765 1.5885
123 2 14.1982 7.64938 -1.6675 14.1982 7.64938 -1.6675
124 1 15.1727 9.25916 -0.00649092 15.1727 9.25916 -0.00649092
125 2 17.0978 9.23672 1.61475 17.0978 9.23672 1.61475
126 2 17.0854 9.28119 -1.64179 17.0854 9.28119 -1.64179
127 1 18.0588 7.61246 -0.0396749 18.0588 7.61246 -0.0396749
128 2 19.9755 7.58598 1.59141 19.9755 7.58598 1.59141
129 2 19.9799 7.63842 -1.66502 19.9799 7.63842 -1.66502
130 1 20.945 9.25853 -0.0085934 20.945 9.25853 -0.0085934
131 2 22.8601 9.24626 1.62463 22.8601 9.24626 1.62463
132 2 22.8678 9.27044 -1.63213 22.8678 9.27044 -1.63213
133 1 23.8311 7.61172 -0.0135964 23.8311 7.61172 -0.0135964
134 2 25.7404 7.59213 1.62638 25.7404 7.59213 1.62638
135 2 25.7598 7.63104 -1.63017 25.7598 7.63104 -1.63017
136 1 26.7174 9.25807 0.0238156 26.7174 9.25807 0.0238156
137 2 28.6265 9.24997 1.66403 28.6265 9.24997 1.66403
138 2 28.6462 9.26611 -1.5927 28.6462 9.26611 -1.5927
139 1 29.6035 7.61134 0.0334829 29.6035 7.61134 0.0334829
140 2 31.5133 7.59207 1.67291 31.5133 7.59207 1.67291
141 2 31.5318 7.63076 -1.58362 31.5318 7.63076 -1.58362
142 1 32.4898 9.25802 0.0698763 32.4898 9.25802 0.0698763
143 2 34.4014 9.24671 1.70714 34.4014 9.24671 1.70714
144 2 34.4162 9.26959 -1.54955 34.4162 9.26959 -1.54955
145 1 35.3761 7.61149 0.0717807 35.3761 7.61149 0.0717807
146 2 37.2926 7.58711 1.70321 37.2926 7.58711 1.70321
147 2 37.2978 7.63634 -1.55322 37.2978 7.63634 -1.55322
148 1 38.2624 9.25833 0.10152 38.2624 9.25833 0.10152
149 2 40.1807 9.23927 1.73098 40.1807 9.23927 1.73098
150 2 40.1824 9.27784 -1.52558 40.1824 9.27784 -1.52558
151 1 41.1489 7.61203 0.0838532 41.1489 7.61203 0.0838532
152 2 43.0724 7.57995 1.70689 43.0724 7.57995 1.70689
153 2 43.0637 7.64471 -1.54924 43.0637 7.64471 -1.54924
154 1 44.0353 9.25884 0.109058 44.0353 9.25884 0.109058
155 2 45.9595 9.23045 1.73147 45.9595 9.23045 1.73147
156 2 45.9495 9.28769 -1.52478 45.9495 9.28769 -1.52478
157 1 46.9218 7.6127 0.0715508 46.9218 7.6127 0.0715508
158 2 48.8504 7.57244 1.68848 48.8504 7.57244 1.68848
159 2 48.8316 7.65347 -1.56724 48.8316 7.65347 -1.56724
160 1 49.8083 9.25931 0.0961591 49.8083 9.25931 0.0961591
161 2 51.7373 9.22306 1.71262 51.7373 9.22306 1.71262
162 2 51.7176 9.29589 -1.54328 51.7176 9.29589 -1.54328
163 1 0.741471 10.9059 0.115794 0.741471 10.9059 0.115794
164 2 2.67197 10.8765 1.73065 2.67197 10.8765 1.73065
165 2 2.64922 10.9355 -1.5255 2.64922 10.9355 -1.5255
166 1 3.62795 12.5526 0.125856 3.62795 12.5526 0.125856
167 2 5.56143 12.5334 1.73733 5.56143 12.5334 1.73733
168 2 5.53269 12.572 -1.51909 5.53269 12.572 -1.51909
169 1 6.51421 10.906 0.0811324 6.51421 10.906 0.0811324
170 2 8.44902 10.8784 1.6908 8.44902 10.8784 1.6908
171 2 8.41743 10.9336 -1.56538 8.41743 10.9336 -1.56538
172 1 9.40058 12.5526 0.0815523 9.40058 12.5526 0.0815523
173 2 11.3378 12.5393 1.68849 11.3378 12.5393 1.68849
174 2 11.3013 12.5657 -1.56802 11.3013 12.5657 -1.56802
175 1 12.2866 10.9059 0.0360514 12.2866 10.9059 0.0360514
176 2 14.2193 10.8875 1.64839 14.2193 10.8875 1.64839
177 2 14.1919 10.924 -1.60814 14.1919 10.924 -1.60814
178 1 15.1729 12.5523 0.0308211 15.1729 12.5523 0.0308211
179 2 17.1053 12.5505 1.64361 17.1053 12.5505 1.64361
180 2 17.0784 12.5537 -1.61315 17.0784 12.5537 -1.61315
181 1 18.0589 10.9054 0.00568449 18.0589 10.9054 0.00568449
182 2 19.9825 10.8989 1.62891 19.9825 10.8989 1.62891
183 2 19.9732 10.9115 -1.62792 19.9732 10.9115 -1.62792
184 1 20.9451 12.5517 0.00449167 20.9451 12.5517 0.00449167
185 2 22.866 12.5609 1.631 22.866 12.5609 1.631
186 2 22.8622 12.5422 -1.62581 22.8622 12.5422 -1.62581
187 1 23.8312 10.9049 0.0110984 23.8312 10.9049 0.0110984
188 2 25.7443 10.9065 1.6468 25.7443 10.9065 1.6468
189 2 25.7561 10.903 -1.61003 25.7561 10.903 -1.61003
190 1 26.7175 12.5514 0.0203946 26.7175 12.5514 0.0203946
191 2 28.6281 12.5652 1.65898 28.6281 12.5652 1.65898
192 2 28.6449 12.5375 -1.5977 28.6449 12.5375 -1.5977
193 1 29.6036 10.9047 0.0498599 29.6036 10.9047 0.0498599
194 2 31.5127 10.9066 1.69022 31.5127 10.9066 1.69022
195 2 31.5325 10.9028 -1.56654 31.5325 10.9028 -1.56654
196 1 32.4898 12.5515 0.0659376 32.4898 12.5515 0.0659376
197 2 34.3985 12.5615 1.70672 34.3985 12.5615 1.70672
198 2 34.4191 12.5416 -1.54997 34.4191 12.5416 -1.54997
199 1 35.376 10.9049 0.0948421 35.376 10.9049 0.0948421
200 2 37.2889 10.9003 1.73078 37.2889 10.9003 1.73078
201 2 37.3013 10.9098 -1.52598 37.3013 10.9098 -1.52598
202 1 38.2623 12.5518 0.110954 38.2623 12.5518 0.110954
203 2 40.1755 12.5528 1.7465 40.1755 12.5528 1.7465
204 2 40.1873 12.551 -1.51027 40.1873 12.551 -1.51027
205 1 41.1488 10.9052 0.122788 41.1488 10.9052 0.122788
206 2 43.0677 10.891 1.75162 43.0677 10.891 1.75162
207 2 43.0682 10.9199 -1.50503 43.0682 10.9199 -1.50503
208 1 44.0352 12.5522 0.138105 44.0352 12.5522 0.138105
209 2 45.9542 12.5429 1.76693 45.9542 12.5429 1.76693
210 2 45.9546 12.5617 -1.48979 45.9546 12.5617 -1.48979
211 1 46.9218 10.9057 0.12943 46.9218 10.9057 0.12943
212 2 48.8463 10.8819 1.75158 48.8463 10.8819 1.75158
213 2 48.8357 10.9298 -1.50481 48.8357 10.9298 -1.50481
214 1 49.8083 12.5525 0.144589 49.8083 12.5525 0.144589
215 2 51.734 12.5352 1.76537 51.734 12.5352 1.76537
216 2 51.7209 12.57 -1.49117 51.7209 12.57 -1.49117
217 1 0.741502 14.1993 0.150929 0.741502 14.1993 0.150929
218 2 2.6703 14.1911 1.76813 2.6703 14.1911 1.76813
219 2 2.65107 14.2077 -1.48852 2.65107 14.2077 -1.48852
220 1 3.62806 15.8462 0.142622 3.62806 15.8462 0.142622
221 2 5.56177 15.8494 1.75394 5.56177 15.8494 1.75394
222 2 5.53263 15.843 -1.50268 5.53263 15.843 -1.50268
223 1 6.51443 14.1994 0.120324 6.51443 14.1994 0.120324
224 2 8.45199 14.1932 1.72697 8.45199 14.1932 1.72697
225 2 8.41494 14.2055 -1.52959 8.41494 14.2055 -1.52959
226 1 9.40082 15.8461 0.0941138 9.40082 15.8461 0.0941138
227 2 11.3425 15.8548 1.69576 11.3425 15.8548 1.69576
228 2 11.2971 15.8371 -1.56068 11.2971 15.8371 -1.56068
229 1 12.2869 14.1992 0.0630494 12.2869 14.1992 0.0630494
230 2 14.2259 14.2021 1.66786 14.2259 14.2021 1.66786
231 2 14.1857 14.1959 -1.58873 14.1857 14.1959 -1.58873
232 1 15.1731 15.8456 0.0247601 15.1731 15.8456 0.0247601
233 2 17.112 15.8647 1.62952 17.112 15.8647 1.62952
234 2 17.0719 15.8258 -1.62685 17.0719 15.8258 -1.62685
235 1 18.0591 14.1986 0.00919234 18.0591 14.1986 0.00919234
236 2 19.9895 14.2134 1.62432 19.9895 14.2134 1.62432
237 2 19.9666 14.1834 -1.63233 19.9666 14.1834 -1.63233
238 1 20.9453 15.8448 -0.0256716 20.9453 15.8448 -0.0256716
239 2 22.8713 15.8742 1.59442 22.8713 15.8742 1.59442
240 2 22.8572 15.8148 -1.66187 22.8572 15.8148 -1.66187
241 1 23.8314 14.1981 -0.00769616 23.8314 14.1981 -0.00769616
242 2 25.7481 14.2211 1.6236 25.7481 14.2211 1.6236
243 2 25.7527 14.1747 -1.63292 25.7527 14.1747 -1.63292
244 1 26.7177 15.8443 -0.0265483 26.7177 15.8443 -0.0265483
245 2 28.6291 15.8783 1.6107 28.6291 15.8783 1.6107
246 2 28.6442 15.8103 -1.6454 28.6442 15.8103 -1.6454
247 1 29.6037 14.198 0.0218204 29.6037 14.198 0.0218204
248 2 31.5115 14.2213 1.66357 31.5115 14.2213 1.66357
249 2 31.5339 14.1746 -1.59285 31.5339 14.1746 -1.59285
250 1 32.49 15.8445 0.0184909 32.49 15.8445 0.0184909
251 2 34.3949 15.8748 1.6634 34.3949 15.8748 1.6634
252 2 34.423 15.8145 -1.59274 34.423 15.8145 -1.59274
253 1 35.376 14.1983 0.0744883 35.376 14.1983 0.0744883
254 2 37.284 14.2146 1.71601 37.284 14.2146 1.71601
255 2 37.3061 14.1822 -1.54056 37.3061 14.1822 -1.54056
256 1 38.2623 15.8451 0.0779043 38.2623 15.8451 0.0779043
257 2 40.1696 15.8663 1.72028 40.1696 15.8663 1.72028
258 2 40.1932 15.8241 -1.53615 40.1932 15.8241 -1.53615
259 1 41.1487 14.1987 0.120732 41.1487 14.1987 0.120732
260 2 43.0617 14.2049 1.75648 43.0617 14.2049 1.75648
261 2 43.0739 14.1928 -1.50025 43.0739 14.1928 -1.50025
262 1 44.0351 15.8456 0.125651 44.0351 15.8456 0.125651
263 2 45.9483 15.8572 1.76122 45.9483 15.8572 1.76122
264 2 45.9602 15.8343 -1.49544 45.9602 15.8343 -1.49544
265 1 46.9217 14.1991 0.148258 46.9217 14.1991 0.148258
266 2 48.8413 14.1959 1.77633 48.8413 14.1959 1.77633
267 2 48.8404 14.2025 -1.48042 48.8404 14.2025 -1.48042
268 1 49.8082 15.846 0.151091 49.8082 15.846 0.151091
269 2 51.7304 15.8506 1.77623 51.7304 15.8506 1.77623
270 2 51.7245 15.8416 -1.4805 51.7245 15.8416 -1.4805
271 1 0.741498 17.4929 0.141637 0.741498 17.4929 0.141637
272 2 2.66841 17.5071 1.76104 2.66841 17.5071 1.76104
273 2 2.65303 17.4789 -1.49555 2.65303 17.4789 -1.49555
274 1 3.6281 19.1397 0.113978 3.6281 19.1397 0.113978
275 2 5.56158 19.1644 1.72536 5.56158 19.1644 1.72536
276 2 5.53295 19.1149 -1.53089 5.53295 19.1149 -1.53089
277 1 6.51457 17.493 0.113891 6.51457 17.493 0.113891
278 2 8.45412 17.509 1.71806 8.45412 17.509 1.71806
279 2 8.41312 17.4767 -1.53829 8.41312 17.4767 -1.53829
280 1 9.40094 19.1394 0.0615215 9.40094 19.1394 0.0615215
281 2 11.3457 19.1681 1.65919 11.3457 19.1681 1.65919
282 2 11.2941 19.1102 -1.59669 11.2941 19.1102 -1.59669
283 1 12.2871 17.4925 0.0453433 12.2871 17.4925 0.0453433
284 2 14.2313 17.516 1.64367 14.2313 17.516 1.64367
285 2 14.1806 17.4684 -1.61241 14.1806 17.4684 -1.61241
286 1 15.1732 19.1385 -0.0233651 15.1732 19.1385 -0.0233651
287 2 17.117 19.1751 1.57509 17.117 19.1751 1.57509
288 2 17.067 19.1011 -1.68053 17.067 19.1011 -1.68053
289 1 18.0592 17.4916 -0.0300254 18.0592 17.4916 -0.0300254
290 2 19.9952 17.5252 1.578 19.9952 17.5252 1.578
291 2 19.961 17.4573 -1.67797 19.961 17.4573 -1.67797
292 1 20.9453 19.1373 -0.0943239 20.9453 19.1373 -0.0943239
293 2 22.8753 19.182 1.52071 22.8753 19.182 1.52071
294 2 22.8533 19.0919 -1.73482 22.8533 19.0919 -1.73482
295 1 23.8315 17.4907 -0.0677741 23.8315 17.4907 -0.0677741
296 2 25.7511 17.5317 1.55977 25.7511 17.5317 1.55977
297 2 25.75 17.4494 -1.69604 25.75 17.4494 -1.69604
298 1 26.7179 19.1366 -0.110008 26.7179 19.1366 -0.110008
299 2 28.6295 19.1852 1.5266 28.6295 19.1852 1.5266
300 2 28.6442 19.0879 -1.72875 28.6442 19.0879 -1.72875
301 1 29.604 17.4906 -0.0471897 29.604 17.4906 -0.0471897
302 2 31.5098 17.532 1.5964 31.5098 17.532 1.5964
303 2 31.5361 17.4493 -1.65927 31.5361 17.4493 -1.65927
304 1 32.4903 19.1369 -0.0654401 32.4903 19.1369 -0.0654401
305 2 34.391 19.1824 1.58387 34.391 19.1824 1.58387
306 2 34.4274 19.0917 -1.67149 34.4274 19.0917 -1.67149
307 1 35.3762 17.4911 0.0131869 35.3762 17.4911 0.0131869
308 2 37.2787 17.5259 1.66074 37.2787 17.5259 1.66074
309 2 37.3116 17.4567 -1.59516 37.3116 17.4567 -1.59516
310 1 38.2625 19.1377 0.00748498 38.2625 19.1377 0.00748498
311 2 40.1636 19.1756 1.65661 40.1636 19.1756 1.65661
312 2 40.1994 19.1003 -1.59912 40.1994 19.1003 -1.59912
313 1 41.1487 17.4919 0.0777482 41.1487 17.4919 0.0777482
314 2 43.0556 17.5174 1.72051 43.0556 17.5174 1.72051
315 2 43.08 17.4666 -1.53578 43.08 17.4666 -1.53578
316 1 44.0351 19.1386 0.0738997 44.0351 19.1386 0.0738997
317 2 45.9429 19.1689 1.71556 45.9429 19.1689 1.71556
318 2 45.9657 19.1088 -1.54058 45.9657 19.1088 -1.54058
319 1 46.9216 17.4925 0.124915 46.9216 17.4925 0.124915
320 2 48.8365 17.5104 1.75853 48.8365 17.5104 1.75853
321 2 48.8452 17.4749 -1.49802 48.8452 17.4749 -1.49802
322 1 49.8082 19.1393 0.114901 49.8082 19.1393 0.114901
323 2 51.727 19.1648 1.74373 51.727 19.1648 1.74373
324 2 51.7278 19.1141 -1.51263 51.7278 19.1141 -1.51263
325 1 0.741496 20.786 0.0901748 0.741496 20.786 0.0901748
326 2 2.66663 20.8197 1.71133 2.66663 20.8197 1.71133
327 2 2.65481 20.7525 -1.54471 2.65481 20.7525 -1.54471
328 1 3.62807 22.4325 0.0457603 3.62807 22.4325 0.0457603
329 2 5.56087 22.4739 1.65752 5.56087 22.4739 1.65752
330 2 5.53359 22.3909 -1.59808 5.53359 22.3909 -1.59808
331 1 6.5146 20.7861 0.0637405 6.5146 20.7861 0.0637405
332 2 8.45503 20.821 1.66647 8.45503 20.821 1.66647
333 2 8.41226 20.7508 -1.58927 8.41226 20.7508 -1.58927
334 1 9.40088 22.4321 -0.00963143 9.40088 22.4321 -0.00963143
335 2 11.3468 22.4754 1.5861 11.3468 22.4754 1.5861
336 2 11.2927 22.3881 -1.66908 11.2927 22.3881 -1.66908
337 1 12.2871 20.7853 -0.013307 12.2871 20.7853 -0.013307
338 2 14.2346 20.825 1.58069 14.2346 20.825 1.58069
339 2 14.1773 20.7449 -1.67464 14.1773 20.7449 -1.67464
340 1 15.173 22.4307 -0.104464 15.173 22.4307 -0.104464
341 2 17.1195 22.4779 1.49055 17.1195 22.4779 1.49055
342 2 17.0643 22.3825 -1.76441 17.0643 22.3825 -1.76441
343 1 18.0592 20.784 -0.104933 18.0592 20.784 -0.104933
344 2 19.999 20.8303 1.49819 19.999 20.8303 1.49819
345 2 19.9572 20.7367 -1.75703 19.9572 20.7367 -1.75703
346 1 20.9452 22.4291 -0.189135 20.9452 22.4291 -0.189135
347 2 22.8773 22.4809 1.42316 22.8773 22.4809 1.42316
348 2 22.8513 22.3765 -1.83188 22.8513 22.3765 -1.83188
349 1 23.8316 20.7827 -0.159097 23.8316 20.7827 -0.159097
350 2 25.7529 20.8344 1.46608 25.7529 20.8344 1.46608
351 2 25.7484 20.7305 -1.78908 25.7484 20.7305 -1.78908
352 1 26.718 22.4282 -0.215368 26.718 22.4282 -0.215368
353 2 28.6292 22.4826 1.42157 28.6292 22.4826 1.42157
354 2 28.645 22.3737 -1.83338 28.645 22.3737 -1.83338
355 1 29.6042 20.7824 -0.145903 29.6042 20.7824 -0.145903
356 2 31.5079 20.8347 1.49991 31.5079 20.8347 1.49991
357 2 31.5386 20.7304 -1.75509 31.5386 20.7304 -1.75509
358 1 32.4906 22.4285 -0.171251 32.4906 22.4285 -0.171251
359 2 34.3876 22.4811 1.48216 34.3876 22.4811 1.48216
360 2 34.4315 22.3764 -1.77267 34.4315 22.3764 -1.77267
361 1 35.3765 20.7832 -0.0789756 35.3765 20.7832 -0.0789756
362 2 37.2737 20.8304 1.57436 37.2737 20.8304 1.57436
363 2 37.3172 20.7365 -1.68081 37.3172 20.7365 -1.68081
364 1 38.2628 22.4297 -0.0879359 38.2628 22.4297 -0.0879359
365 2 40.1587 22.4774 1.56692 40.1587 22.4774 1.56692
366 2 40.2049 22.3827 -1.68818 40.2049 22.3827 -1.68818
367 1 41.1489 20.7843 0.00124873 41.1489 20.7843 0.00124873
368 2 43.0501 20.8248 1.65019 43.0501 20.8248 1.65019
369 2 43.0857 20.7444 -1.60542 43.0857 20.7444 -1.60542
370 1 44.0353 22.4309 -0.00775421 44.0353 22.4309 -0.00775421
371 2 45.9388 22.4744 1.63848 45.9388 22.4744 1.63848
372 2 45.97 22.3881 -1.61701 45.97 22.3881 -1.61701
373 1 46.9216 20.7853 0.0638503 46.9216 20.7853 0.0638503
374 2 48.8324 20.821 1.70184 48.8324 20.821 1.70184
375 2 48.8492 20.7502 -1.55411 48.8492 20.7502 -1.55411
376 1 49.8082 22.432 0.0429938 49.8082 22.432 0.0429938
377 2 51.7245 22.4735 1.67433 51.7245 22.4735 1.67433
378 2 51.7303 22.3908 -1.58138 51.7303 22.3908 -1.58138
379 1 0.741498 24.0784 0.0063343 0.741498 24.0784 0.0063343
380 2 2.66527 24.1254 1.62864 2.66527 24.1254 1.62864
381 2 2.65609 24.0316 -1.62678 2.65609 24.0316 -1.62678
382 1 3.62798 25.7245 -0.0493396 3.62798 25.7245 -0.0493396
383 2 5.55982 25.7753 1.56314 5.55982 25.7753 1.56314
384 2 5.53436 25.6737 -1.69196 5.53436 25.6737 -1.69196
385 1 6.51449 24.0785 -0.0204578 6.51449 24.0785 -0.0204578
386 2 8.4546 24.1259 1.58221 8.4546 24.1259 1.58221
387 2 8.41242 24.0307 -1.67291 8.41242 24.0307 -1.67291
388 1 9.40064 25.724 -0.106166 9.40064 25.724 -0.106166
389 2 11.3459 25.7741 1.49011 11.3459 25.7741 1.49011
390 2 11.2932 25.6732 -1.7647 11.2932 25.6732 -1.7647
391 1 12.2869 24.0775 -0.101783 12.2869 24.0775 -0.101783
392 2 14.2352 24.1258 1.4909 14.2352 24.1258 1.4909
393 2 14.1763 24.0281 -1.76391 14.1763 24.0281 -1.76391
394 1 15.1728 25.7225 -0.203546 15.1728 25.7225 -0.203546
395 2 17.1189 25.7717 1.39164 17.1189 25.7717 1.39164
396 2 17.0643 25.6723 -1.8632 17.0643 25.6723 -1.8632
397 1 18.059 24.0758 -0.201623 18.059 24.0758 -0.201623
398 2 20 24.1262 1.39978 20 24.1262 1.39978
399 2 19.9558 24.0243 -1.85513 19.9558 24.0243 -1.85513
400 1 20.9451 25.7208 -0.292463 20.9451 25.7208 -0.292463
401 2 22.877 25.77 1.32 22.877 25.77 1.32
402 2 22.8514 25.6708 -1.93517 22.8514 25.6708 -1.93517
403 1 23.8315 24.0743 -0.264922 23.8315 24.0743 -0.264922
404 2 25.7532 24.1271 1.3598 25.7532 24.1271 1.3598
405 2 25.7483 24.0211 -1.89526 25.7483 24.0211 -1.89526
406 1 26.7181 25.7198 -0.322916 26.7181 25.7198 -0.322916
407 2 28.6283 25.7698 1.31525 28.6283 25.7698 1.31525
408 2 28.6462 25.6698 -1.93995 28.6462 25.6698 -1.93995
409 1 29.6045 24.0739 -0.256336 29.6045 24.0739 -0.256336
410 2 31.5061 24.1273 1.39177 31.5061 24.1273 1.39177
411 2 31.541 24.0209 -1.86311 31.541 24.0209 -1.86311
412 1 32.491 25.7201 -0.279249 32.491 25.7201 -0.279249
413 2 34.3854 25.7701 1.37715 34.3854 25.7701 1.37715
414 2 34.4344 25.6707 -1.87777 34.4344 25.6707 -1.87777
415 1 35.3769 24.0748 -0.185313 35.3769 24.0748 -0.185313
416 2 37.27 24.1259 1.47261 37.27 24.1259 1.47261
417 2 37.3217 24.0245 -1.78222 37.3217 24.0245 -1.78222
418 1 38.2632 25.7213 -0.190905 38.2632 25.7213 -0.190905
419 2 40.1557 25.7703 1.46761 40.1557 25.7703 1.46761
420 2 40.2084 25.6732 -1.78732 40.2084 25.6732 -1.78732
421 1 41.1492 24.0762 -0.0949337 41.1492 24.0762 -0.0949337
422 2 43.0463 24.1243 1.55841 43.0463 24.1243 1.55841
423 2 43.09 24.0289 -1.69671 43.09 24.0289 -1.69671
424 1 44.0355 25.7228 -0.104516 44.0355 25.7228 -0.104516
425 2 45.9367 25.7716 1.54411 45.9367 25.7716 1.54411
426 2 45.9725 25.6747 -1.71105 45.9725 25.6747 -1.71105
427 1 46.9218 24.0775 -0.0236752 46.9218 24.0775 -0.0236752
428 2 48.83 24.1243 1.61695 48.83 24.1243 1.61695
429 2 48.8519 24.0313 -1.63844 48.8519 24.0313 -1.63844
430 1 49.8083 25.724 -0.0514096 49.8083 25.724 -0.0514096
431 2 51.7234 25.7741 1.58099 51.7234 25.7741 1.58099
432 2 51.7315 25.6743 -1.67426 51.7315 25.6743 -1.67426
433 1 0.74148 27.3702 -0.0947797 0.74148 27.3702 -0.0947797
434 2 2.66461 27.4223 1.52796 2.66461 27.4223 1.52796
435 2 2.65659 27.3184 -1.72717 2.65659 27.3184 -1.72717
436 1 3.62782 29.0162 -0.154752 3.62782 29.0162 -0.154752
437 2 5.55869 29.0678 1.45871 5.55869 29.0678 1.45871
438 2 5.53506 28.9645 -1.79637 5.53506 28.9645 -1.79637
439 1 6.51426 27.3703 -0.123561 6.51426 27.3703 -0.123561
440 2 8.453 27.4219 1.48049 8.453 27.4219 1.48049
441 2 8.41351 27.3182 -1.77442 8.41351 27.3182 -1.77442
442 1 9.40031 29.0157 -0.211391 9.40031 29.0157 -0.211391
443 2 11.343 29.0642 1.3879 11.343 29.0642 1.3879
444 2 11.2954 28.9665 -1.86709 11.2954 28.9665 -1.86709
445 1 12.2866 27.3692 -0.204213 12.2866 27.3692 -0.204213
446 2 14.2331 27.4178 1.39052 14.2331 27.4178 1.39052
447 2 14.1778 27.3196 -1.86433 14.1778 27.3196 -1.86433
448 1 15.1725 29.0143 -0.303265 15.1725 29.0143 -0.303265
449 2 17.1155 29.057 1.2958 17.1155 29.057 1.2958
450 2 17.0673 28.9707 -1.95949 17.0673 28.9707 -1.95949
451 1 18.0587 27.3675 -0.302447 18.0587 27.3675 -0.302447
452 2 19.9983 27.413 1.30085 19.9983 27.413 1.30085
453 2 19.9572 27.3212 -1.95438 19.9572 27.3212 -1.95438
454 1 20.945 29.0128 -0.385625 20.945 29.0128 -0.385625
455 2 22.8745 29.0507 1.22995 22.8745 29.0507 1.22995
456 2 22.8538 28.9744 -2.02586 22.8538 28.9744 -2.02586
457 1 23.8315 27.3661 -0.365493 23.8315 27.3661 -0.365493
458 2 25.752 27.4102 1.26075 25.752 27.4102 1.26075
459 2 25.7495 27.3217 -1.9948 25.7495 27.3217 -1.9948
460 1 26.7182 29.012 -0.412697 26.7182 29.012 -0.412697
461 2 28.6272 29.0485 1.22722 28.6272 29.0485 1.22722
462 2 28.6476 28.9756 -2.02865 28.6476 28.9756 -2.02865
463 1 29.6047 27.3658 -0.357715 29.6047 27.3658 -0.357715
464 2 31.505 27.4104 1.29215 31.505 27.4104 1.29215
465 2 31.5426 27.3215 -1.96319 31.5426 27.3215 -1.96319
466 1 32.4912 29.0123 -0.369431 32.4912 29.0123 -0.369431
467 2 34.3849 29.0507 1.28802 34.3849 29.0507 1.28802
468 2 34.4354 28.9744 -1.96748 34.4354 28.9744 -1.96748
469 1 35.3773 27.3666 -0.286131 35.3773 27.3666 -0.286131
470 2 37.2683 27.4123 1.37414 37.2683 27.4123 1.37414
471 2 37.324 27.3216 -1.88093 37.324 27.3216 -1.88093
472 1 38.2635 29.0133 -0.282887 38.2635 29.0133 -0.282887
473 2 40.1555 29.0551 1.37635 40.1555 29.0551 1.37635
474 2 40.2092 28.9723 -1.87897 40.2092 28.9723 -1.87897
475 1 41.1495 27.3679 -0.193461 41.1495 27.3679 -0.193461
476 2 43.045 27.4152 1.46167 43.045 27.4152 1.46167
477 2 43.0919 27.3215 -1.79346 43.0919 27.3215 -1.79346
478 1 44.0358 29.0146 -0.199474 44.0358 29.0146 -0.199474
479 2 45.9371 29.0607 1.44893 45.9371 29.0607 1.44893
480 2 45.9725 28.9693 -1.80642 45.9725 28.9693 -1.80642
481 1 46.922 27.3693 -0.122022 46.922 27.3693 -0.122022
482 2 48.8295 27.4192 1.51913 48.8295 27.4192 1.51913
483 2 48.8526 27.3201 -1.73609 48.8526 27.3201 -1.73609
484 1 49.8084 29.0157 -0.151886 49.8084 29.0157 -0.151886
485 2 51.7237 29.066 1.48003 51.7237 29.066 1.48003
486 2 51.7312 28.9659 -1.77524 51.7312 28.9659 -1.77524
487 1 0.741407 30.6619 -0.196145 0.741407 30.6619 -0.196145
488 2 2.66476 30.7107 1.42629 2.66476 30.7107 1.42629
489 2 2.65617 30.6134 -1.82907 2.65617 30.6134 -1.82907
490 1 3.6276 32.308 -0.253372 3.6276 32.308 -0.253372
491 2 5.55764 32.3523 1.36118 5.55764 32.3523 1.36118
492 2 5.53559 32.2637 -1.89436 5.53559 32.2637 -1.89436
493 1 6.51397 30.6619 -0.228343 6.51397 30.6619 -0.228343
494 2 8.45054 30.7095 1.37834 8.45054 30.7095 1.37834
495 2 8.41535 30.614 -1.87689 8.41535 30.614 -1.87689
496 1 9.39997 32.3076 -0.308336 9.39997 32.3076 -0.308336
497 2 11.3387 32.3469 1.29598 11.3387 32.3469 1.29598
498 2 11.2992 32.2678 -1.95962 11.2992 32.2678 -1.95962
499 1 12.2862 30.661 -0.303481 12.2862 30.661 -0.303481
500 2 14.2286 30.7021 1.29642 14.2286 30.7021 1.29642
501 2 14.1817 30.6193 -1.95899 14.1817 30.6193 -1.95899
502 1 15.1723 32.3066 -0.38742 15.1723 32.3066 -0.38742
503 2 17.1097 32.3361 1.21867 17.1097 32.3361 1.21867
504 2 17.0729 32.2765 -2.03736 17.0729 32.2765 -2.03736
505 1 18.0586 30.6597 -0.390124 18.0586 30.6597 -0.390124
506 2 19.994 30.6925 1.21845 19.994 30.6925 1.21845
507 2 19.9613 30.6262 -2.03748 19.9613 30.6262 -2.03748
508 1 20.945 32.3056 -0.453025 20.945 32.3056 -0.453025
509 2 22.8701 32.3259 1.1681 22.8701 32.3259 1.1681
510 2 22.8583 32.2849 -2.08837 22.8583 32.2849 -2.08837
511 1 23.8315 30.6587 -0.442893 23.8315 30.6587 -0.442893
512 2 25.7496 30.6864 1.18654 25.7496 30.6864 1.18654
513 2 25.752 30.6308 -2.06972 25.752 30.6308 -2.06972
514 1 26.7182 32.3051 -0.469217 26.7182 32.3051 -0.469217
515 2 28.6258 32.3221 1.17257 28.6258 32.3221 1.17257
516 2 28.649 32.2881 -2.08391 28.649 32.2881 -2.08391
517 1 29.6048 30.6585 -0.431668 29.6048 30.6585 -0.431668
518 2 31.5047 30.6866 1.2189 31.5047 30.6866 1.2189
519 2 31.5431 30.6306 -2.03716 31.5431 30.6306 -2.03716
520 1 32.4912 32.3052 -0.426154 32.4912 32.3052 -0.426154
521 2 34.3863 32.3257 1.23002 34.3863 32.3257 1.23002
522 2 34.4341 32.2851 -2.02617 34.4341 32.2851 -2.02617
523 1 35.3774 30.659 -0.363425 35.3774 30.659 -0.363425
524 2 37.2692 30.6916 1.29627 37.2692 30.6916 1.29627
525 2 37.3234 30.6271 -1.95945 37.3234 30.6271 -1.95945
526 1 38.2636 32.3059 -0.348257 38.2636 32.3059 -0.348257
527 2 40.158 32.3337 1.30842 40.158 32.3337 1.30842
528 2 40.2069 32.2787 -1.94758 40.2069 32.2787 -1.94758
529 1 41.1497 30.6601 -0.277354 41.1497 30.6601 -0.277354
530 2 43.0464 30.6987 1.37651 43.0464 30.6987 1.37651
531 2 43.0908 30.6222 -1.87913 43.0908 30.6222 -1.87913
532 1 44.0359 32.3069 -0.276933 44.0359 32.3069 -0.276933
533 2 45.9398 32.3427 1.36859 45.9398 32.3427 1.36859
534 2 45.9699 32.2716 -1.88734 45.9699 32.2716 -1.88734
535 1 46.9221 30.6612 -0.214591 46.9221 30.6612 -0.214591
536 2 48.831 30.706 1.42493 48.831 30.706 1.42493
537 2 48.8512 30.617 -1.83063 48.8512 30.617 -1.83063