ITEM: TIMESTEP
2573000
ITEM: NUMBER OF ATOMS
810
ITEM: BOX BOUNDS pp pp pp
-5.7356846113626396e+00 5.8753289611361708e+01
8.1394622342039402e-01 5.0202268776579182e+01
-1.0000000000000000e+01 1.0000000000000000e+01
ITEM: ATOMS id type x y z xu yu zu
1 1 -5.4296 1.02822 -0.139682 -5.4296 1.02822 -0.139682
2 2 -3.02285 1.0263 1.46054 -3.02285 1.0263 1.46054
3 2 -3.02844 1.02913 -1.74783 -3.02844 1.02913 -1.74783
4 1 -1.84718 2.67381 -0.144227 -1.84718 2.67381 -0.144227
5 2 0.559441 2.67258 1.45576 0.559441 2.67258 1.45576
6 2 0.553651 2.67402 -1.75262 0.553651 2.67402 -1.75262
7 1 1.73502 1.02701 -0.151355 1.73502 1.02701 -0.151355
8 2 4.14226 1.02533 1.44778 4.14226 1.02533 1.44778
9 2 4.13536 1.02805 -1.7606 4.13536 1.02805 -1.7606
10 1 5.31721 2.67286 -0.157402 5.31721 2.67286 -0.157402
11 2 7.72286 2.66969 1.4444 7.72286 2.66969 1.4444
12 2 7.71979 2.67569 -1.764 7.71979 2.67569 -1.764
13 1 8.89985 1.02647 -0.163896 8.89985 1.02647 -0.163896
14 2 11.3043 1.02236 1.43935 11.3043 1.02236 1.43935
15 2 11.3034 1.03049 -1.76902 11.3034 1.03049 -1.76902
16 1 12.4823 2.67264 -0.161019 12.4823 2.67264 -0.161019
17 2 14.8864 2.66825 1.44327 14.8864 2.66825 1.44327
18 2 14.8865 2.67729 -1.7651 14.8865 2.67729 -1.7651
19 1 16.0649 1.02656 -0.165527 16.0649 1.02656 -0.165527
20 2 18.469 1.02259 1.43894 18.469 1.02259 1.43894
21 2 18.4694 1.03133 -1.76942 18.4694 1.03133 -1.76942
22 1 19.6478 2.67329 -0.160496 19.6478 2.67329 -0.160496
23 2 22.0508 2.66992 1.4454 22.0508 2.66992 1.4454
24 2 22.0531 2.67765 -1.76295 22.0531 2.67765 -1.76295
25 1 23.2303 1.02753 -0.161817 23.2303 1.02753 -0.161817
26 2 25.6323 1.02459 1.44598 25.6323 1.02459 1.44598
27 2 25.6372 1.03157 -1.76239 25.6372 1.03157 -1.76239
28 1 26.8135 2.67441 -0.152786 26.8135 2.67441 -0.152786
29 2 29.2167 2.67381 1.45412 29.2167 2.67381 1.45412
30 2 29.2201 2.67617 -1.75425 29.2201 2.67617 -1.75425
31 1 30.3967 1.02874 -0.150049 30.3967 1.02874 -0.150049
32 2 32.7996 1.02794 1.45678 32.7996 1.02794 1.45678
33 2 32.8027 1.03082 -1.75159 32.8027 1.03082 -1.75159
34 1 33.9799 2.67573 -0.144653 33.9799 2.67573 -0.144653
35 2 36.3831 2.67777 1.46176 36.3831 2.67777 1.46176
36 2 36.3858 2.67479 -1.74661 36.3858 2.67479 -1.74661
37 1 37.5628 1.02999 -0.139909 37.5628 1.02999 -0.139909
38 2 39.9663 1.03025 1.46622 39.9663 1.03025 1.46622
39 2 39.9685 1.03041 -1.74214 39.9685 1.03041 -1.74214
40 1 41.1461 2.67657 -0.137004 41.1461 2.67657 -0.137004
41 2 43.5494 2.67738 1.46883 43.5494 2.67738 1.46883
42 2 43.5514 2.67579 -1.73954 43.5514 2.67579 -1.73954
43 1 44.7287 1.03018 -0.133804 44.7287 1.03018 -0.133804
44 2 47.1334 1.02908 1.47053 47.1334 1.02908 1.47053
45 2 47.1332 1.031 -1.73783 47.1332 1.031 -1.73783
46 1 48.3119 2.67623 -0.132704 48.3119 2.67623 -0.132704
47 2 50.7166 2.67639 1.47108 50.7166 2.67639 1.47108
48 2 50.7158 2.6754 -1.7373 50.7158 2.6754 -1.7373
49 1 51.8946 1.02949 -0.132955 51.8946 1.02949 -0.132955
50 2 54.3001 1.02845 1.46911 54.3001 1.02845 1.46911
51 2 54.2968 1.0296 -1.73926 54.2968 1.0296 -1.73926
52 1 55.4769 2.67515 -0.135643 55.4769 2.67515 -0.135643
53 2 57.8829 2.67467 1.46585 57.8829 2.67467 1.46585
54 2 57.879 2.67448 -1.74255 57.879 2.67448 -1.74255
55 1 -5.42972 4.32071 -0.139871 -5.42972 4.32071 -0.139871
56 2 -3.02376 4.32019 1.46137 -3.02376 4.32019 1.46137
57 2 -3.02779 4.32001 -1.74701 -3.02779 4.32001 -1.74701
58 1 -1.84759 5.96627 -0.144429 -1.84759 5.96627 -0.144429
59 2 0.558079 5.9648 1.45676 0.558079 5.9648 1.45676
60 2 0.554166 5.96653 -1.75163 0.554166 5.96653 -1.75163
61 1 1.73485 4.31946 -0.149801 1.73485 4.31946 -0.149801
62 2 4.14119 4.3171 1.45058 4.14119 4.3171 1.45058
63 2 4.13601 4.32103 -1.75781 4.13601 4.32103 -1.75781
64 1 5.31682 5.96528 -0.153412 5.31682 5.96528 -0.153412
65 2 7.72125 5.96169 1.45009 7.72125 5.96169 1.45009
66 2 7.72068 5.96842 -1.75831 7.72068 5.96842 -1.75831
67 1 8.89967 4.3189 -0.157749 8.89967 4.3189 -0.157749
68 2 11.3037 4.31551 1.44649 11.3037 4.31551 1.44649
69 2 11.3038 4.3221 -1.7619 11.3038 4.3221 -1.7619
70 1 12.482 5.96508 -0.154249 12.482 5.96508 -0.154249
71 2 14.8856 5.96202 1.45079 14.8856 5.96202 1.45079
72 2 14.8867 5.96835 -1.75759 14.8867 5.96835 -1.75759
73 1 16.0649 4.31908 -0.15627 16.0649 4.31908 -0.15627
74 2 18.4695 4.31545 1.44784 18.4695 4.31545 1.44784
75 2 18.4691 4.32348 -1.76052 18.4691 4.32348 -1.76052
76 1 19.6477 5.96587 -0.152309 19.6477 5.96587 -0.152309
77 2 22.0521 5.96493 1.45182 22.0521 5.96493 1.45182
78 2 22.0517 5.96772 -1.75654 22.0517 5.96772 -1.75654
79 1 23.2305 4.32016 -0.153859 23.2305 4.32016 -0.153859
80 2 25.634 4.31925 1.45204 25.634 4.31925 1.45204
81 2 25.6361 4.32203 -1.75633 25.6361 4.32203 -1.75633
82 1 26.8135 5.96707 -0.14992 26.8135 5.96707 -0.14992
83 2 29.2188 5.97013 1.45415 29.2188 5.97013 1.45415
84 2 29.2182 5.96497 -1.75421 29.2182 5.96497 -1.75421
85 1 30.397 4.32137 -0.147574 30.397 4.32137 -0.147574
86 2 32.8011 4.32373 1.45736 32.8011 4.32373 1.45736
87 2 32.8017 4.32013 -1.751 32.8017 4.32013 -1.751
88 1 33.9799 5.96835 -0.148375 33.9799 5.96835 -0.148375
89 2 36.3843 5.9737 1.45617 36.3843 5.9737 1.45617
90 2 36.3846 5.96392 -1.75218 36.3846 5.96392 -1.75218
91 1 37.5631 4.32262 -0.142844 37.5631 4.32262 -0.142844
92 2 39.9666 4.3259 1.4632 39.9666 4.3259 1.4632
93 2 39.9689 4.31986 -1.74517 39.9689 4.31986 -1.74517
94 1 41.1461 5.96921 -0.143185 41.1461 5.96921 -0.143185
95 2 43.5486 5.97278 1.46369 43.5486 5.97278 1.46369
96 2 43.5521 5.96546 -1.74467 43.5521 5.96546 -1.74467
97 1 44.7289 4.32283 -0.135483 44.7289 4.32283 -0.135483
98 2 47.1329 4.32405 1.46963 47.1329 4.32405 1.46963
99 2 47.1339 4.32112 -1.73874 47.1339 4.32112 -1.73874
100 1 48.3116 5.96887 -0.13578 48.3116 5.96887 -0.13578
101 2 50.7162 5.9708 1.46809 50.7162 5.9708 1.46809
102 2 50.7155 5.96599 -1.74028 50.7155 5.96599 -1.74028
103 1 51.8945 4.32209 -0.133932 51.8945 4.32209 -0.133932
104 2 54.2997 4.3225 1.46846 54.2997 4.3225 1.46846
105 2 54.2971 4.32048 -1.73992 54.2971 4.32048 -1.73992
106 1 55.4766 5.96767 -0.137769 55.4766 5.96767 -0.137769
107 2 57.8816 5.9673 1.46482 57.8816 5.9673 1.46482
108 2 57.8795 5.96664 -1.74358 57.8795 5.96664 -1.74358
109 1 -5.43042 7.61319 -0.140517 -5.43042 7.61319 -0.140517
110 2 -3.02567 7.61068 1.4623 -3.02567 7.61068 1.4623
111 2 -3.02726 7.61427 -1.74608 -3.02726 7.61427 -1.74608
112 1 -1.84851 9.25872 -0.140711 -1.84851 9.25872 -0.140711
113 2 0.556688 9.25388 1.46149 0.556688 9.25388 1.46149
114 2 0.553851 9.26219 -1.74688 0.553851 9.26219 -1.74688
115 1 1.73419 7.61189 -0.147911 1.73419 7.61189 -0.147911
116 2 4.13859 7.60755 1.45514 4.13859 7.60755 1.45514
117 2 4.13747 7.61531 -1.75324 4.13747 7.61531 -1.75324
118 1 5.31611 9.25768 -0.145449 5.31611 9.25768 -0.145449
119 2 7.72039 9.25223 1.45866 7.72039 9.25223 1.45866
120 2 7.72026 9.2626 -1.74973 7.72026 9.2626 -1.74973
121 1 8.89916 7.61131 -0.150821 8.89916 7.61131 -0.150821
122 2 11.3024 7.60631 1.45437 11.3024 7.60631 1.45437
123 2 11.304 7.61605 -1.75401 11.304 7.61605 -1.75401
124 1 12.4814 9.25751 -0.144314 12.4814 9.25751 -0.144314
125 2 14.8864 9.25393 1.45888 14.8864 9.25393 1.45888
126 2 14.8845 9.26127 -1.7495 14.8845 9.26127 -1.7495
127 1 16.0644 7.61158 -0.149684 16.0644 7.61158 -0.149684
128 2 18.4691 7.60974 1.45426 18.4691 7.60974 1.45426
129 2 18.4686 7.61414 -1.75412 18.4686 7.61414 -1.75412
130 1 19.647 9.25842 -0.147841 19.647 9.25842 -0.147841
131 2 22.0535 9.26012 1.4534 22.0535 9.26012 1.4534
132 2 22.0491 9.25755 -1.75496 22.0491 9.25755 -1.75496
133 1 23.2302 7.61279 -0.150948 23.2302 7.61279 -0.150948
134 2 25.6356 7.61572 1.45225 25.6356 7.61572 1.45225
135 2 25.634 7.61069 -1.75612 25.634 7.61069 -1.75612
136 1 26.813 9.25973 -0.154989 26.813 9.25973 -0.154989
137 2 29.2197 9.26585 1.44671 29.2197 9.26585 1.44671
138 2 29.2161 9.25437 -1.76163 29.2161 9.25437 -1.76163
139 1 30.3968 7.61403 -0.152789 30.3968 7.61403 -0.152789
140 2 32.8017 7.61985 1.45066 32.8017 7.61985 1.45066
141 2 32.8006 7.60909 -1.75769 32.8006 7.60909 -1.75769
142 1 33.9793 9.26098 -0.159383 33.9793 9.26098 -0.159383
143 2 36.3847 9.26925 1.44371 36.3847 9.26925 1.44371
144 2 36.383 9.25339 -1.76462 36.383 9.25339 -1.76462
145 1 37.5628 7.61523 -0.152733 37.5628 7.61523 -0.152733
146 2 39.9659 7.62152 1.45359 39.9659 7.62152 1.45359
147 2 39.9688 7.60929 -1.75476 39.9688 7.60929 -1.75476
148 1 41.1454 9.26184 -0.155723 41.1454 9.26184 -0.155723
149 2 43.5472 9.26884 1.45209 43.5472 9.26884 1.45209
150 2 43.5519 9.25453 -1.75625 43.5519 9.25453 -1.75625
151 1 44.7285 7.61549 -0.143013 44.7285 7.61549 -0.143013
152 2 47.1315 7.6192 1.46333 47.1315 7.6192 1.46333
153 2 47.1341 7.61105 -1.74503 47.1341 7.61105 -1.74503
154 1 48.3107 9.26149 -0.144133 48.3107 9.26149 -0.144133
155 2 50.7141 9.26394 1.4616 50.7141 9.26394 1.4616
156 2 50.7157 9.25785 -1.74677 50.7157 9.25785 -1.74677
157 1 51.8939 7.61466 -0.1388 51.8939 7.61466 -0.1388
158 2 54.2975 7.61464 1.46562 54.2975 7.61464 1.46562
159 2 54.2979 7.61323 -1.74276 54.2979 7.61323 -1.74276
160 1 55.4757 9.2602 -0.139239 55.4757 9.2602 -0.139239
161 2 57.8798 9.25836 1.46488 57.8798 9.25836 1.46488
162 2 57.8794 9.26042 -1.74351 57.8794 9.26042 -1.74351
163 1 -5.43152 10.9057 -0.138442 -5.43152 10.9057 -0.138442
164 2 -3.02719 10.9032 1.4655 -3.02719 10.9032 1.4655
165 2 -3.0279 10.9065 -1.74288 -3.0279 10.9065 -1.74288
166 1 -1.84967 12.5512 -0.137177 -1.84967 12.5512 -0.137177
167 2 0.553656 12.5471 1.4678 0.553656 12.5471 1.4678
168 2 0.554701 12.5537 -1.74057 0.554701 12.5537 -1.74057
169 1 1.73322 10.9043 -0.139468 1.73322 10.9043 -0.139468
170 2 4.13808 10.8996 1.46358 4.13808 10.8996 1.46358
171 2 4.13629 10.9079 -1.7448 4.13629 10.9079 -1.7448
172 1 5.31516 12.5501 -0.13689 5.31516 12.5501 -0.13689
173 2 7.71911 12.5458 1.46781 7.71911 12.5458 1.46781
174 2 7.71979 12.5538 -1.74059 7.71979 12.5538 -1.74059
175 1 8.89841 10.9037 -0.140248 8.89841 10.9037 -0.140248
176 2 11.3028 10.9 1.46375 11.3028 10.9 1.46375
177 2 11.3021 10.9071 -1.74463 11.3021 10.9071 -1.74463
178 1 12.4805 12.5499 -0.137071 12.4805 12.5499 -0.137071
179 2 14.8868 12.55 1.46386 14.8868 12.55 1.46386
180 2 14.8821 12.5501 -1.74452 14.8821 12.5501 -1.74452
181 1 16.0635 10.9041 -0.142205 16.0635 10.9041 -0.142205
182 2 18.4711 10.9052 1.45777 18.4711 10.9052 1.45777
183 2 18.4648 10.9036 -1.7506 18.4648 10.9036 -1.7506
184 1 19.6459 12.5509 -0.149497 19.6459 12.5509 -0.149497
185 2 22.0541 12.5559 1.44872 22.0541 12.5559 1.44872
186 2 22.046 12.5467 -1.75961 22.046 12.5467 -1.75961
187 1 23.2293 10.9054 -0.153681 23.2293 10.9054 -0.153681
188 2 25.6374 10.9116 1.44559 25.6374 10.9116 1.44559
189 2 25.6304 10.8999 -1.76275 25.6304 10.8999 -1.76275
190 1 26.8118 12.5524 -0.167082 26.8118 12.5524 -0.167082
191 2 29.2203 12.5627 1.43177 29.2203 12.5627 1.43177
192 2 29.2132 12.5426 -1.77651 29.2132 12.5426 -1.77651
193 1 30.3959 10.9067 -0.164613 30.3959 10.9067 -0.164613
194 2 32.8027 10.9169 1.43625 32.8027 10.9169 1.43625
195 2 32.798 10.8971 -1.77205 32.798 10.8971 -1.77205
196 1 33.9782 12.5536 -0.179596 33.9782 12.5536 -0.179596
197 2 36.383 12.5646 1.42397 36.383 12.5646 1.42397
198 2 36.3826 12.543 -1.78432 36.3826 12.543 -1.78432
199 1 37.5619 10.9078 -0.169079 37.5619 10.9078 -0.169079
200 2 39.965 10.9179 1.43712 39.965 10.9179 1.43712
201 2 39.9678 10.898 -1.77119 39.9678 10.898 -1.77119
202 1 41.1443 12.5544 -0.176086 41.1443 12.5544 -0.176086
203 2 43.5448 12.5647 1.43312 43.5448 12.5647 1.43312
204 2 43.5518 12.5437 -1.77519 43.5518 12.5437 -1.77519
205 1 44.7274 10.9081 -0.157694 44.7274 10.9081 -0.157694
206 2 47.1291 10.915 1.45061 47.1291 10.915 1.45061
207 2 47.1343 10.9003 -1.75774 47.1343 10.9003 -1.75774
208 1 48.3095 12.5541 -0.159149 48.3095 12.5541 -0.159149
209 2 50.7096 12.5582 1.45111 50.7096 12.5582 1.45111
210 2 50.7177 12.5486 -1.75724 50.7177 12.5486 -1.75724
211 1 51.8928 10.9072 -0.145135 51.8928 10.9072 -0.145135
212 2 54.2951 10.9087 1.46155 54.2951 10.9087 1.46155
213 2 54.2981 10.9041 -1.74682 54.2981 10.9041 -1.74682
214 1 55.4744 12.5527 -0.143842 55.4744 12.5527 -0.143842
215 2 57.8763 12.5525 1.4636 57.8763 12.5525 1.4636
216 2 57.8805 12.5512 -1.74478 57.8805 12.5512 -1.74478
217 1 -5.43281 14.1982 -0.139731 -5.43281 14.1982 -0.139731
218 2 -3.03068 14.1956 1.46742 -3.03068 14.1956 1.46742
219 2 -3.02685 14.1991 -1.74095 -3.02685 14.1991 -1.74095
220 1 -1.85091 15.8436 -0.133577 -1.85091 15.8436 -0.133577
221 2 0.551317 15.8399 1.47341 0.551317 15.8399 1.47341
222 2 0.55468 15.8459 -1.73495 0.55468 15.8459 -1.73495
223 1 1.73207 14.1967 -0.132615 1.73207 14.1967 -0.132615
224 2 4.13566 14.1908 1.47235 4.13566 14.1908 1.47235
225 2 4.13656 14.2014 -1.73603 4.13656 14.2014 -1.73603
226 1 5.31404 15.8425 -0.126169 5.31404 15.8425 -0.126169
227 2 7.71925 15.838 1.47706 7.71925 15.838 1.47706
228 2 7.7175 15.8462 -1.73133 7.7175 15.8462 -1.73133
229 1 8.89742 14.1961 -0.132056 8.89742 14.1961 -0.132056
230 2 11.3029 14.1941 1.47017 11.3029 14.1941 1.47017
231 2 11.3001 14.1978 -1.73822 11.3001 14.1978 -1.73822
232 1 12.4794 15.8424 -0.133195 12.4794 15.8424 -0.133195
233 2 14.8872 15.8424 1.46518 14.8872 15.8424 1.46518
234 2 14.8792 15.8426 -1.74318 14.8792 15.8426 -1.74318
235 1 16.0624 14.1965 -0.142039 16.0624 14.1965 -0.142039
236 2 18.4708 14.1987 1.45591 18.4708 14.1987 1.45591
237 2 18.4624 14.195 -1.75245 18.4624 14.195 -1.75245
238 1 19.6443 15.8435 -0.15335 19.6443 15.8435 -0.15335
239 2 22.0547 15.8478 1.44151 22.0547 15.8478 1.44151
240 2 22.0422 15.8398 -1.76681 22.0422 15.8398 -1.76681
241 1 23.2278 14.198 -0.16314 23.2278 14.198 -0.16314
242 2 25.6376 14.2057 1.43318 25.6376 14.2057 1.43318
243 2 25.6273 14.1908 -1.77514 25.6273 14.1908 -1.77514
244 1 26.8101 15.8449 -0.18241 26.8101 15.8449 -0.18241
245 2 29.2207 15.8547 1.41318 29.2207 15.8547 1.41318
246 2 29.2097 15.8357 -1.79511 29.2097 15.8357 -1.79511
247 1 30.3945 14.1993 -0.185156 30.3945 14.1993 -0.185156
248 2 32.8017 14.2108 1.41472 32.8017 14.2108 1.41472
249 2 32.7964 14.1882 -1.79356 32.7964 14.1882 -1.79356
250 1 33.9768 15.8461 -0.20285 33.9768 15.8461 -0.20285
251 2 36.3808 15.8567 1.4016 36.3808 15.8567 1.4016
252 2 36.382 15.836 -1.8067 36.382 15.836 -1.8067
253 1 37.5606 14.2004 -0.191419 37.5606 14.2004 -0.191419
254 2 39.9631 14.2112 1.41546 39.9631 14.2112 1.41546
255 2 39.9671 14.1897 -1.79284 39.9671 14.1897 -1.79284
256 1 41.1428 15.847 -0.198177 41.1428 15.847 -0.198177
257 2 43.543 15.8571 1.41146 43.543 15.8571 1.41146
258 2 43.5507 15.8364 -1.79684 43.5507 15.8364 -1.79684
259 1 44.726 14.2007 -0.179183 44.726 14.2007 -0.179183
260 2 47.125 14.2085 1.43265 47.125 14.2085 1.43265
261 2 47.1355 14.1919 -1.77567 47.1355 14.1919 -1.77567
262 1 48.308 15.8466 -0.176148 48.308 15.8466 -0.176148
263 2 50.7054 15.8516 1.43823 50.7054 15.8516 1.43823
264 2 50.7191 15.8403 -1.77008 50.7191 15.8403 -1.77008
265 1 51.8914 14.1998 -0.155174 51.8914 14.1998 -0.155174
266 2 54.2911 14.2009 1.45535 54.2911 14.2009 1.45535
267 2 54.2994 14.197 -1.75301 54.2994 14.197 -1.75301
268 1 55.473 15.8453 -0.147913 55.473 15.8453 -0.147913
269 2 57.8738 15.8448 1.46163 57.8738 15.8448 1.46163
270 2 57.8804 15.844 -1.74674 57.8804 15.844 -1.74674
271 1 -5.43407 17.4907 -0.140527 -5.43407 17.4907 -0.140527
272 2 -3.03305 17.4895 1.46864 -3.03305 17.4895 1.46864
273 2 -3.0269 17.4902 -1.73971 -3.0269 17.4902 -1.73971
274 1 -1.85203 19.1361 -0.13293 -1.85203 19.1361 -0.13293
275 2 0.549203 19.1353 1.47577 0.549203 19.1353 1.47577
276 2 0.554654 19.1355 -1.73258 0.554654 19.1355 -1.73258
277 1 1.7309 17.4892 -0.126423 1.7309 17.4892 -0.126423
278 2 4.13385 17.4859 1.47998 4.13385 17.4859 1.47998
279 2 4.1362 17.4913 -1.72839 4.1362 17.4913 -1.72839
280 1 5.31305 19.1349 -0.120657 5.31305 19.1349 -0.120657
281 2 7.71903 19.1347 1.48174 7.71903 19.1347 1.48174
282 2 7.71574 19.1345 -1.72664 7.71574 19.1345 -1.72664
283 1 8.89633 17.4885 -0.123677 8.89633 17.4885 -0.123677
284 2 11.3043 17.4872 1.47518 11.3043 17.4872 1.47518
285 2 11.2964 17.4897 -1.73318 11.2964 17.4897 -1.73318
286 1 12.4782 19.1349 -0.130636 12.4782 19.1349 -0.130636
287 2 14.8877 19.1361 1.46537 14.8877 19.1361 1.46537
288 2 14.8762 19.134 -1.74297 14.8762 19.134 -1.74297
289 1 16.061 17.4891 -0.141912 16.061 17.4891 -0.141912
290 2 18.471 17.4911 1.45353 18.471 17.4911 1.45353
291 2 18.4591 17.4877 -1.75481 18.4591 17.4877 -1.75481
292 1 19.6428 19.136 -0.156851 19.6428 19.136 -0.156851
293 2 22.0554 19.141 1.43448 22.0554 19.141 1.43448
294 2 22.038 19.1318 -1.77381 22.038 19.1318 -1.77381
295 1 23.226 17.4905 -0.171402 23.226 17.4905 -0.171402
296 2 25.6385 17.4972 1.42093 25.6385 17.4972 1.42093
297 2 25.6228 17.4844 -1.78738 25.6228 17.4844 -1.78738
298 1 26.8082 19.1375 -0.195493 26.8082 19.1375 -0.195493
299 2 29.22 19.1435 1.3983 29.22 19.1435 1.3983
300 2 29.2067 19.132 -1.81 29.2067 19.132 -1.81
301 1 30.3928 17.4918 -0.204639 30.3928 17.4918 -0.204639
302 2 32.8001 17.5001 1.39489 32.8001 17.5001 1.39489
303 2 32.7948 17.4841 -1.81342 32.7948 17.4841 -1.81342
304 1 33.9751 19.1387 -0.219333 33.9751 19.1387 -0.219333
305 2 36.3802 19.1467 1.38373 36.3802 19.1467 1.38373
306 2 36.3795 19.1312 -1.82459 36.3795 19.1312 -1.82459
307 1 37.5591 17.4929 -0.212668 37.5591 17.4929 -0.212668
308 2 39.9613 17.5026 1.39441 39.9613 17.5026 1.39441
309 2 39.9659 17.4834 -1.8139 39.9659 17.4834 -1.8139
310 1 41.1414 19.1395 -0.217866 41.1414 19.1395 -0.217866
311 2 43.5412 19.1474 1.39228 43.5412 19.1474 1.39228
312 2 43.5498 19.1313 -1.81605 43.5498 19.1313 -1.81605
313 1 44.7246 17.4932 -0.200317 44.7246 17.4932 -0.200317
314 2 47.1218 17.5012 1.41404 47.1218 17.5012 1.41404
315 2 47.136 17.4843 -1.79425 47.136 17.4843 -1.79425
316 1 48.3068 19.1392 -0.193526 48.3068 19.1392 -0.193526
317 2 50.702 19.1453 1.42385 50.702 19.1453 1.42385
318 2 50.72 19.1318 -1.78442 50.72 19.1318 -1.78442
319 1 51.89 17.4923 -0.166785 51.89 17.4923 -0.166785
320 2 54.2872 17.495 1.44778 54.2872 17.495 1.44778
321 2 54.3007 17.488 -1.76054 54.3007 17.488 -1.76054
322 1 55.4718 19.1378 -0.155144 55.4718 19.1378 -0.155144
323 2 57.8707 19.1394 1.45734 57.8707 19.1394 1.45734
324 2 57.8811 19.1346 -1.75101 57.8811 19.1346 -1.75101
325 1 -5.43502 20.7833 -0.145563 -5.43502 20.7833 -0.145563
326 2 -3.03562 20.7842 1.46597 -3.03562 20.7842 1.46597
327 2 -3.02616 20.7807 -1.74235 -3.02616 20.7807 -1.74235
328 1 -1.85268 22.4287 -0.136558 -1.85268 22.4287 -0.136558
329 2 0.547014 22.4286 1.47417 0.547014 22.4286 1.47417
330 2 0.555612 22.4275 -1.73415 0.555612 22.4275 -1.73415
331 1 1.73002 20.7817 -0.126363 1.73002 20.7817 -0.126363
332 2 4.13237 20.7826 1.48086 4.13237 20.7826 1.48086
333 2 4.13605 20.7797 -1.72749 4.13605 20.7797 -1.72749
334 1 5.31246 22.4274 -0.123533 5.31246 22.4274 -0.123533
335 2 7.71763 22.4286 1.47964 7.71763 22.4286 1.47964
336 2 7.71587 22.4257 -1.72873 7.71587 22.4257 -1.72873
337 1 8.89548 20.781 -0.123806 8.89548 20.781 -0.123806
338 2 11.3032 20.7824 1.475 11.3032 20.7824 1.475
339 2 11.2955 20.7796 -1.73335 11.2955 20.7796 -1.73335
340 1 12.4774 22.4274 -0.133529 12.4774 22.4274 -0.133529
341 2 14.8865 22.4296 1.46229 14.8865 22.4296 1.46229
342 2 14.8752 22.4257 -1.74604 14.8752 22.4257 -1.74604
343 1 16.0598 20.7816 -0.144173 16.0598 20.7816 -0.144173
344 2 18.4711 20.7858 1.44899 18.4711 20.7858 1.44899
345 2 18.4562 20.7781 -1.75932 18.4562 20.7781 -1.75932
346 1 19.6415 22.4286 -0.164591 19.6415 22.4286 -0.164591
347 2 22.0537 22.4319 1.4267 22.0537 22.4319 1.4267
348 2 22.0368 22.4261 -1.7816 22.0368 22.4261 -1.7816
349 1 23.2244 20.783 -0.180768 23.2244 20.783 -0.180768
350 2 25.6374 20.7878 1.41037 25.6374 20.7878 1.41037
351 2 25.6204 20.779 -1.79794 25.6204 20.779 -1.79794
352 1 26.8067 22.43 -0.204478 26.8067 22.43 -0.204478
353 2 29.2179 22.4323 1.38997 29.2179 22.4323 1.38997
354 2 29.2058 22.4284 -1.81836 29.2058 22.4284 -1.81836
355 1 30.3911 20.7844 -0.216547 30.3911 20.7844 -0.216547
356 2 32.7993 20.7901 1.38179 32.7993 20.7901 1.38179
357 2 32.7924 20.7793 -1.82654 32.7924 20.7793 -1.82654
358 1 33.9737 22.4313 -0.230326 33.9737 22.4313 -0.230326
359 2 36.3793 22.4356 1.37197 36.3793 22.4356 1.37197
360 2 36.3779 22.4276 -1.83637 36.3779 22.4276 -1.83637
361 1 37.5577 20.7855 -0.228616 37.5577 20.7855 -0.228616
362 2 39.9605 20.7926 1.3777 39.9605 20.7926 1.3777
363 2 39.9642 20.7786 -1.83063 39.9642 20.7786 -1.83063
364 1 41.1404 22.4321 -0.23222 41.1404 22.4321 -0.23222
365 2 43.5395 22.4365 1.3788 43.5395 22.4365 1.3788
366 2 43.5497 22.4275 -1.82955 43.5497 22.4275 -1.82955
367 1 44.7234 20.7858 -0.216894 44.7234 20.7858 -0.216894
368 2 47.1202 20.7921 1.39806 47.1202 20.7921 1.39806
369 2 47.1354 20.7787 -1.81024 47.1354 20.7787 -1.81024
370 1 48.306 22.4317 -0.207352 48.306 22.4317 -0.207352
371 2 50.7002 22.4359 1.41133 50.7002 22.4359 1.41133
372 2 50.7204 22.4266 -1.79695 50.7204 22.4266 -1.79695
373 1 51.889 20.7849 -0.180714 51.889 20.7849 -0.180714
374 2 54.2839 20.7895 1.43699 54.2839 20.7895 1.43699
375 2 54.302 20.7788 -1.77128 54.302 20.7788 -1.77128
376 1 55.4712 22.4304 -0.166104 55.4712 22.4304 -0.166104
377 2 57.8674 22.4325 1.44998 57.8674 22.4325 1.44998
378 2 57.8832 22.4269 -1.75832 57.8832 22.4269 -1.75832
379 1 -5.43532 24.0759 -0.151408 -5.43532 24.0759 -0.151408
380 2 -3.03707 24.0764 1.4619 -3.03707 24.0764 1.4619
381 2 -3.02537 24.0738 -1.74641 -3.02537 24.0738 -1.74641
382 1 -1.85267 25.7213 -0.139436 -1.85267 25.7213 -0.139436
383 2 0.547187 25.723 1.47133 0.547187 25.723 1.47133
384 2 0.555478 25.7185 -1.73698 0.555478 25.7185 -1.73698
385 1 1.7297 24.0743 -0.127591 1.7297 24.0743 -0.127591
386 2 4.13286 24.075 1.47869 4.13286 24.075 1.47869
387 2 4.13493 24.0726 -1.72966 4.13493 24.0726 -1.72966
388 1 5.3124 25.72 -0.126112 5.3124 25.72 -0.126112
389 2 7.71854 25.7229 1.47568 7.71854 25.7229 1.47568
390 2 7.71456 25.7167 -1.73267 7.71456 25.7167 -1.73267
391 1 8.89502 24.0735 -0.126843 8.89502 24.0735 -0.126843
392 2 11.3027 24.0753 1.47183 11.3027 24.0753 1.47183
393 2 11.2947 24.0719 -1.73652 11.2947 24.0719 -1.73652
394 1 12.4769 25.72 -0.137209 12.4769 25.72 -0.137209
395 2 14.8871 25.7241 1.4572 14.8871 25.7241 1.4572
396 2 14.8735 25.7165 -1.75112 14.8735 25.7165 -1.75112
397 1 16.0589 24.0742 -0.148208 16.0589 24.0742 -0.148208
398 2 18.4713 24.0771 1.44336 18.4713 24.0771 1.44336
399 2 18.4541 24.0721 -1.76494 18.4541 24.0721 -1.76494
400 1 19.6409 25.7211 -0.169681 19.6409 25.7211 -0.169681
401 2 22.0532 25.7237 1.42166 22.0532 25.7237 1.42166
402 2 22.0359 25.7196 -1.78663 22.0359 25.7196 -1.78663
403 1 23.2233 24.0756 -0.186661 23.2233 24.0756 -0.186661
404 2 25.6358 24.0763 1.4052 25.6358 24.0763 1.4052
405 2 25.6196 24.0757 -1.80312 25.6196 24.0757 -1.80312
406 1 26.8059 25.7225 -0.205241 26.8059 25.7225 -0.205241
407 2 29.2178 25.7231 1.38845 29.2178 25.7231 1.38845
408 2 29.2041 25.723 -1.81988 29.2041 25.723 -1.81988
409 1 30.3898 24.077 -0.220662 30.3898 24.077 -0.220662
410 2 32.7993 24.0784 1.37606 32.7993 24.0784 1.37606
411 2 32.79 24.0763 -1.83228 32.79 24.0763 -1.83228
412 1 33.973 25.7239 -0.232514 33.973 25.7239 -0.232514
413 2 36.3796 25.724 1.3687 36.3796 25.724 1.3687
414 2 36.3765 25.7245 -1.83966 36.3765 25.7245 -1.83966
415 1 37.5568 24.0781 -0.236786 37.5568 24.0781 -0.236786
416 2 39.96 24.0798 1.3691 39.96 24.0798 1.3691
417 2 39.9631 24.0767 -1.83926 39.9631 24.0767 -1.83926
418 1 41.1399 25.7247 -0.23545 41.1399 25.7247 -0.23545
419 2 43.5403 25.7256 1.37404 43.5403 25.7256 1.37404
420 2 43.5481 25.7237 -1.83432 43.5481 25.7237 -1.83432
421 1 44.7228 24.0784 -0.226224 44.7228 24.0784 -0.226224
422 2 47.1198 24.0806 1.38857 47.1198 24.0806 1.38857
423 2 47.1348 24.0755 -1.81975 47.1348 24.0755 -1.81975
424 1 48.3057 25.7243 -0.212688 48.3057 25.7243 -0.212688
425 2 50.7009 25.7259 1.40502 50.7009 25.7259 1.40502
426 2 50.7195 25.7219 -1.80328 50.7195 25.7219 -1.80328
427 1 51.8886 24.0775 -0.190305 51.8886 24.0775 -0.190305
428 2 54.2832 24.08 1.42797 54.2832 24.08 1.42797
429 2 54.3021 24.0738 -1.7803 54.3021 24.0738 -1.7803
430 1 55.4712 25.7231 -0.172491 55.4712 25.7231 -0.172491
431 2 57.8671 25.725 1.4441 57.8671 25.725 1.4441
432 2 57.8836 25.7198 -1.7642 57.8836 25.7198 -1.7642
433 1 -5.43494 27.3685 -0.156747 -5.43494 27.3685 -0.156747
434 2 -3.03811 27.3691 1.45825 -3.03811 27.3691 1.45825
435 2 -3.02356 27.3667 -1.75004 -3.02356 27.3667 -1.75004
436 1 -1.852 29.014 -0.141999 -1.852 29.014 -0.141999
437 2 0.54819 29.0147 1.46811 0.54819 29.0147 1.46811
438 2 0.555733 29.0123 -1.74021 0.555733 29.0123 -1.74021
439 1 1.73003 27.3669 -0.132207 1.73003 27.3669 -0.132207
440 2 4.13274 27.3693 1.47431 4.13274 27.3693 1.47431
441 2 4.13552 27.3637 -1.73402 4.13552 27.3637 -1.73402
442 1 5.31283 29.0127 -0.131867 5.31283 29.0127 -0.131867
443 2 7.7186 29.015 1.46993 7.7186 29.015 1.46993
444 2 7.71506 29.0102 -1.73842 7.71506 29.0102 -1.73842
445 1 8.89503 27.3662 -0.133162 8.89503 27.3662 -0.133162
446 2 11.3021 27.3701 1.4658 11.3021 27.3701 1.4658
447 2 11.2949 27.3624 -1.74254 11.2949 27.3624 -1.74254
448 1 12.477 29.0126 -0.145102 12.477 29.0126 -0.145102
449 2 14.8865 29.0158 1.44998 14.8865 29.0158 1.44998
450 2 14.8741 29.0102 -1.75834 14.8741 29.0102 -1.75834
451 1 16.0586 27.3668 -0.155886 16.0586 27.3668 -0.155886
452 2 18.47 27.3704 1.43688 18.47 27.3704 1.43688
453 2 18.4547 27.3641 -1.77143 18.4547 27.3641 -1.77143
454 1 19.6409 29.0137 -0.176107 19.6409 29.0137 -0.176107
455 2 22.0516 29.0153 1.41733 22.0516 29.0153 1.41733
456 2 22.0376 29.0132 -1.79099 22.0376 29.0132 -1.79099
457 1 23.223 27.3681 -0.19086 23.223 27.3681 -0.19086
458 2 25.634 27.3695 1.40301 25.634 27.3695 1.40301
459 2 25.6206 27.3678 -1.80533 25.6206 27.3678 -1.80533
460 1 26.806 29.015 -0.206923 26.806 29.015 -0.206923
461 2 29.216 29.0132 1.38947 29.216 29.0132 1.38947
462 2 29.2061 29.0181 -1.81887 29.2061 29.0181 -1.81887
463 1 30.3895 27.3695 -0.220762 30.3895 27.3695 -0.220762
464 2 32.7984 27.3678 1.37683 32.7984 27.3678 1.37683
465 2 32.7903 27.3722 -1.83152 32.7903 27.3722 -1.83152
466 1 33.973 29.0164 -0.228047 33.973 29.0164 -0.228047
467 2 36.3797 29.0128 1.3732 36.3797 29.0128 1.3732
468 2 36.3764 29.0209 -1.83516 36.3764 29.0209 -1.83516
469 1 37.5565 27.3706 -0.2363 37.5565 27.3706 -0.2363
470 2 39.9599 27.3693 1.36928 39.9599 27.3693 1.36928
471 2 39.9628 27.3725 -1.83909 39.9628 27.3725 -1.83909
472 1 41.14 29.0172 -0.232199 41.14 29.0172 -0.232199
473 2 43.5405 29.0133 1.37715 43.5405 29.0133 1.37715
474 2 43.5483 29.0212 -1.83122 43.5483 29.0212 -1.83122
475 1 44.7228 27.3709 -0.228073 44.7228 27.3709 -0.228073
476 2 47.1198 27.3701 1.38658 47.1198 27.3701 1.38658
477 2 47.1349 27.3713 -1.82176 47.1349 27.3713 -1.82176
478 1 48.3061 29.0168 -0.211436 48.3061 29.0168 -0.211436
479 2 50.7019 29.0146 1.40543 50.7019 29.0146 1.40543
480 2 50.7194 29.0185 -1.80288 50.7194 29.0185 -1.80288
481 1 51.8889 27.37 -0.194336 51.8889 27.37 -0.194336
482 2 54.2833 27.3702 1.42401 54.2833 27.3702 1.42401
483 2 54.3027 27.3689 -1.78427 54.3027 27.3689 -1.78427
484 1 55.4718 29.0157 -0.173776 55.4718 29.0157 -0.173776
485 2 57.868 29.0143 1.44239 57.868 29.0143 1.44239
486 2 57.8839 29.0159 -1.76592 57.8839 29.0159 -1.76592
487 1 -5.43418 30.6612 -0.155237 -5.43418 30.6612 -0.155237
488 2 -3.03557 30.6611 1.45765 -3.03557 30.6611 1.45765
489 2 -3.02438 30.6601 -1.75066 -3.02438 30.6601 -1.75066
490 1 -1.85104 32.3067 -0.143013 -1.85104 32.3067 -0.143013
491 2 0.55049 32.3088 1.46522 0.55049 32.3088 1.46522
492 2 0.555325 32.3037 -1.7431 0.555325 32.3037 -1.7431
493 1 1.73084 30.6596 -0.134674 1.73084 30.6596 -0.134674
494 2 4.13484 30.6617 1.46993 4.13484 30.6617 1.46993
495 2 4.13468 30.6569 -1.7384 4.13468 30.6569 -1.7384
496 1 5.31356 32.3055 -0.136868 5.31356 32.3055 -0.136868
497 2 7.71993 32.3092 1.46399 7.71993 32.3092 1.46399
498 2 7.71502 32.3016 -1.74434 7.71502 32.3016 -1.74434
499 1 8.89548 30.6589 -0.138171 8.89548 30.6589 -0.138171
500 2 11.3036 30.6623 1.4593 11.3036 30.6623 1.4593
501 2 11.2941 30.6558 -1.74903 11.2941 30.6558 -1.74903
502 1 12.4776 32.3053 -0.151739 12.4776 32.3053 -0.151739
503 2 14.8869 32.3089 1.44364 14.8869 32.3089 1.44364
504 2 14.8749 32.3024 -1.76467 14.8749 32.3024 -1.76467
505 1 16.0589 30.6593 -0.161692 16.0589 30.6593 -0.161692
506 2 18.47 30.6615 1.43168 18.47 30.6615 1.43168
507 2 18.4554 30.6582 -1.77664 18.4554 30.6582 -1.77664
508 1 19.6415 32.3062 -0.179496 19.6415 32.3062 -0.179496
509 2 22.0511 32.3064 1.41581 22.0511 32.3064 1.41581
510 2 22.0395 32.3073 -1.79252 22.0395 32.3073 -1.79252
511 1 23.2234 30.6606 -0.193066 23.2234 30.6606 -0.193066
512 2 25.6332 30.6598 1.4027 25.6332 30.6598 1.4027
513 2 25.6224 30.6627 -1.80565 25.6224 30.6627 -1.80565
514 1 26.8068 32.3075 -0.203935 26.8068 32.3075 -0.203935
515 2 29.2149 32.3035 1.39535 29.2149 32.3035 1.39535
516 2 29.2088 32.3129 -1.813 29.2088 32.3129 -1.813
517 1 30.39 30.6619 -0.215865 30.39 30.6619 -0.215865
518 2 32.7977 30.6574 1.38352 32.7977 30.6574 1.38352
519 2 32.7918 30.6677 -1.82483 32.7918 30.6677 -1.82483
520 1 33.9737 32.3088 -0.217563 33.9737 32.3088 -0.217563
521 2 36.3797 32.3022 1.38443 36.3797 32.3022 1.38443
522 2 36.3774 32.3165 -1.8239 36.3774 32.3165 -1.8239
523 1 37.5568 30.6631 -0.227915 37.5568 30.6631 -0.227915
524 2 39.9609 30.6581 1.37685 39.9609 30.6581 1.37685
525 2 39.9624 30.6688 -1.83151 39.9624 30.6688 -1.83151
526 1 41.1405 32.3097 -0.221135 41.1405 32.3097 -0.221135
527 2 43.5408 32.3023 1.38859 43.5408 32.3023 1.38859
528 2 43.5492 32.3172 -1.81974 43.5492 32.3172 -1.81974
529 1 44.7232 30.6634 -0.220133 44.7232 30.6634 -0.220133
530 2 47.1217 30.6587 1.39285 47.1217 30.6587 1.39285
531 2 47.1341 30.6679 -1.8155 47.1341 30.6679 -1.8155
532 1 48.3068 32.3093 -0.201995 48.3068 32.3093 -0.201995
533 2 50.704 32.305 1.41279 50.704 32.305 1.41279
534 2 50.7187 32.3132 -1.79553 50.7187 32.3132 -1.79553
535 1 51.8895 30.6626 -0.190286 51.8895 30.6626 -0.190286
536 2 54.2855 30.6607 1.42603 54.2855 30.6607 1.42603
537 2 54.3018 30.6638 -1.78227 54.3018 30.6638 -1.78227
538 1 55.4726 32.3083 -0.17056 55.4726 32.3083 -0.17056