ITEM: TIMESTEP
1576000
ITEM: NUMBER OF ATOMS
810
ITEM: BOX BOUNDS pp pp pp
-3.1787965456640723e+00 5.6196401545663136e+01
8.1394622342039402e-01 5.0202268776579182e+01
-1.0000000000000000e+01 1.0000000000000000e+01
ITEM: ATOMS id type x y z xu yu zu
1 1 -2.89306 1.02905 -0.0903813 -2.89306 1.02905 -0.0903813
2 2 -0.713692 1.03227 1.512 -0.713692 1.03227 1.512
3 2 -0.723451 1.02554 -1.70507 -0.723451 1.02554 -1.70507
4 1 0.405025 2.67518 -0.103535 0.405025 2.67518 -0.103535
5 2 2.58762 2.67879 1.49455 2.58762 2.67879 1.49455
6 2 2.57161 2.67108 -1.72248 2.57161 2.67108 -1.72248
7 1 3.70396 1.02876 -0.115644 3.70396 1.02876 -0.115644
8 2 5.88948 1.02941 1.47854 5.88948 1.02941 1.47854
9 2 5.86793 1.02764 -1.73844 5.86793 1.02764 -1.73844
10 1 7.00245 2.67477 -0.138388 7.00245 2.67477 -0.138388
11 2 9.18763 2.67532 1.45629 9.18763 2.67532 1.45629
12 2 9.16703 2.6737 -1.76071 9.16703 2.6737 -1.76071
13 1 10.3016 1.02832 -0.158462 10.3016 1.02832 -0.158462
14 2 12.4853 1.02828 1.43799 12.4853 1.02828 1.43799
15 2 12.4676 1.02794 -1.77903 12.4676 1.02794 -1.77903
16 1 13.6002 2.67438 -0.17678 13.6002 2.67438 -0.17678
17 2 15.7808 2.67362 1.42352 15.7808 2.67362 1.42352
18 2 15.7689 2.67473 -1.79353 15.7689 2.67473 -1.79353
19 1 16.899 1.02795 -0.189627 16.899 1.02795 -0.189627
20 2 19.077 1.02796 1.41393 19.077 1.02796 1.41393
21 2 19.07 1.02759 -1.80314 19.07 1.02759 -1.80314
22 1 20.1972 2.67407 -0.197223 20.1972 2.67407 -0.197223
23 2 22.3736 2.67344 1.40852 22.3736 2.67344 1.40852
24 2 22.3698 2.67433 -1.80854 22.3698 2.67433 -1.80854
25 1 23.4958 1.02763 -0.201762 23.4958 1.02763 -0.201762
26 2 25.6706 1.02876 1.40639 25.6706 1.02876 1.40639
27 2 25.6703 1.02624 -1.81066 25.6703 1.02624 -1.81066
28 1 26.7942 2.67381 -0.203482 26.7942 2.67381 -0.203482
29 2 28.9676 2.67488 1.4066 28.9676 2.67488 1.4066
30 2 28.9701 2.67249 -1.81046 28.9701 2.67249 -1.81046
31 1 30.0929 1.02743 -0.199717 30.0929 1.02743 -0.199717
32 2 32.2632 1.0309 1.41441 32.2632 1.0309 1.41441
33 2 32.2718 1.02388 -1.80264 32.2718 1.02388 -1.80264
34 1 33.3912 2.67375 -0.194606 33.3912 2.67375 -0.194606
35 2 35.5595 2.67783 1.42211 35.5595 2.67783 1.42211
36 2 35.5719 2.66967 -1.79491 35.5719 2.66967 -1.79491
37 1 36.6899 1.02755 -0.177775 36.6899 1.02755 -0.177775
38 2 38.8552 1.03341 1.44311 38.8552 1.03341 1.44311
39 2 38.8738 1.02194 -1.77386 38.8738 1.02194 -1.77386
40 1 39.9882 2.6741 -0.164698 39.9882 2.6741 -0.164698
41 2 42.1532 2.68114 1.45694 42.1532 2.68114 1.45694
42 2 42.1728 2.66738 -1.76001 42.1728 2.66738 -1.76001
43 1 43.2873 1.02813 -0.137681 43.2873 1.02813 -0.137681
44 2 45.4527 1.03468 1.48373 45.4527 1.03468 1.48373
45 2 45.4717 1.02199 -1.73322 45.4717 1.02199 -1.73322
46 1 46.5859 2.67478 -0.124682 46.5859 2.67478 -0.124682
47 2 48.7533 2.68273 1.49411 48.7533 2.68273 1.49411
48 2 48.7682 2.6671 -1.72288 48.7682 2.6671 -1.72288
49 1 49.8851 1.02881 -0.101284 49.8851 1.02881 -0.101284
50 2 52.0555 1.03439 1.51334 52.0555 1.03439 1.51334
51 2 52.0641 1.02338 -1.70371 52.0641 1.02338 -1.70371
52 1 53.1833 2.67525 -0.0979977 53.1833 2.67525 -0.0979977
53 2 55.3577 2.68204 1.51115 55.3577 2.68204 1.51115
54 2 55.358 2.66832 -1.70589 55.358 2.66832 -1.70589
55 1 -2.89385 4.3215 -0.10444 -2.89385 4.3215 -0.10444
56 2 -0.715917 4.32882 1.49981 -0.715917 4.32882 1.49981
57 2 -0.7228 4.31379 -1.71723 -0.7228 4.31379 -1.71723
58 1 0.404096 5.9676 -0.118943 0.404096 5.9676 -0.118943
59 2 2.58433 5.97386 1.48222 2.58433 5.97386 1.48222
60 2 2.57304 5.96077 -1.7348 2.57304 5.96077 -1.7348
61 1 3.70321 4.3212 -0.123572 3.70321 4.3212 -0.123572
62 2 5.88688 4.32404 1.4731 5.88688 4.32404 1.4731
63 2 5.86908 4.31779 -1.7439 5.86908 4.31779 -1.7439
64 1 7.00154 5.96721 -0.144852 7.00154 5.96721 -0.144852
65 2 9.18447 5.96791 1.45284 9.18447 5.96791 1.45284
66 2 9.16838 5.96595 -1.76418 9.16838 5.96595 -1.76418
67 1 10.301 4.3208 -0.160177 10.301 4.3208 -0.160177
68 2 12.4837 4.32009 1.4376 12.4837 4.32009 1.4376
69 2 12.4679 4.32102 -1.77943 12.4679 4.32102 -1.77943
70 1 13.5993 5.9669 -0.175874 13.5993 5.9669 -0.175874
71 2 15.779 5.96443 1.4257 15.779 5.96443 1.4257
72 2 15.769 5.96888 -1.79135 15.769 5.96888 -1.79135
73 1 16.8984 4.3205 -0.18852 16.8984 4.3205 -0.18852
74 2 19.0763 4.31871 1.41524 19.0763 4.31871 1.41524
75 2 19.0696 4.32184 -1.80183 19.0696 4.32184 -1.80183
76 1 20.1964 5.96664 -0.194015 20.1964 5.96664 -0.194015
77 2 22.3729 5.96367 1.41176 22.3729 5.96367 1.41176
78 2 22.3691 5.96915 -1.8053 22.3691 5.96915 -1.8053
79 1 23.4953 4.32022 -0.20088 23.4953 4.32022 -0.20088
80 2 25.6706 4.31891 1.4066 25.6706 4.31891 1.4066
81 2 25.6693 4.32117 -1.81045 25.6693 4.32117 -1.81045
82 1 26.7934 5.96642 -0.20119 26.7934 5.96642 -0.20119
83 2 28.9679 5.96488 1.40753 28.9679 5.96488 1.40753
84 2 28.9684 5.96765 -1.80953 28.9684 5.96765 -1.80953
85 1 30.0924 4.32006 -0.202171 30.0924 4.32006 -0.202171
86 2 32.2641 4.32163 1.41009 32.2641 4.32163 1.41009
87 2 32.2699 4.31831 -1.80697 32.2699 4.31831 -1.80697
88 1 33.3905 5.9664 -0.197986 33.3905 5.9664 -0.197986
89 2 35.5602 5.9685 1.41676 35.5602 5.9685 1.41676
90 2 35.5698 5.96423 -1.80027 35.5698 5.96423 -1.80027
91 1 36.6893 4.32018 -0.186139 36.6893 4.32018 -0.186139
92 2 38.856 4.32552 1.43285 38.856 4.32552 1.43285
93 2 38.8718 4.315 -1.78413 38.8718 4.315 -1.78413
94 1 39.9875 5.96674 -0.175433 39.9875 5.96674 -0.175433
95 2 42.1541 5.97386 1.44392 42.1541 5.97386 1.44392
96 2 42.1703 5.95985 -1.77305 42.1703 5.95985 -1.77305
97 1 43.2866 4.32073 -0.151729 43.2866 4.32073 -0.151729
98 2 45.4525 4.3293 1.46894 45.4525 4.3293 1.46894
99 2 45.4705 4.31246 -1.748 45.4705 4.31246 -1.748
100 1 46.5851 5.96734 -0.141914 46.5851 5.96734 -0.141914
101 2 48.7531 5.9778 1.47591 48.7531 5.9778 1.47591
102 2 48.7667 5.95703 -1.74105 48.7667 5.95703 -1.74105
103 1 49.8843 4.32134 -0.117269 49.8843 4.32134 -0.117269
104 2 52.0545 4.33115 1.49751 52.0545 4.33115 1.49751
105 2 52.0635 4.31154 -1.71949 52.0635 4.31154 -1.71949
106 1 53.1824 5.96772 -0.11803 53.1824 5.96772 -0.11803
107 2 55.3558 5.97836 1.49234 55.3558 5.97836 1.49234
108 2 55.3582 5.95682 -1.72465 55.3582 5.95682 -1.72465
109 1 -2.89486 7.61392 -0.126485 -2.89486 7.61392 -0.126485
110 2 -0.718864 7.62396 1.4802 -0.718864 7.62396 1.4802
111 2 -0.721917 7.60341 -1.73682 -0.721917 7.60341 -1.73682
112 1 0.402983 9.26 -0.140016 0.402983 9.26 -0.140016
113 2 2.5803 9.26807 1.4649 2.5803 9.26807 1.4649
114 2 2.57477 9.25136 -1.75212 2.57477 9.25136 -1.75212
115 1 3.70215 7.61362 -0.137029 3.70215 7.61362 -0.137029
116 2 5.88301 7.61768 1.46341 5.88301 7.61768 1.46341
117 2 5.87081 7.60895 -1.75361 5.87081 7.60895 -1.75361
118 1 7.00034 9.25967 -0.153888 7.00034 9.25967 -0.153888
119 2 9.17997 9.26062 1.44822 9.17997 9.26062 1.44822
120 2 9.17044 9.25815 -1.76882 9.17044 9.25815 -1.76882
121 1 10.2999 7.61328 -0.162312 10.2999 7.61328 -0.162312
122 2 12.4807 7.6117 1.43807 12.4807 7.6117 1.43807
123 2 12.4688 7.61434 -1.77896 12.4688 7.61434 -1.77896
124 1 13.5981 9.25942 -0.173256 13.5981 9.25942 -0.173256
125 2 15.7765 9.25611 1.43018 15.7765 9.25611 1.43018
126 2 15.7691 9.26221 -1.78688 15.7691 9.26221 -1.78688
127 1 16.8974 7.61304 -0.184017 16.8974 7.61304 -0.184017
128 2 19.075 7.60925 1.42025 19.075 7.60925 1.42025
129 2 19.0689 7.61632 -1.79682 19.0689 7.61632 -1.79682
130 1 20.1953 9.25919 -0.186782 20.1953 9.25919 -0.186782
131 2 22.3718 9.25465 1.419 22.3718 9.25465 1.419
132 2 22.3679 9.26324 -1.79805 22.3679 9.26324 -1.79805
133 1 23.4943 7.6128 -0.195286 23.4943 7.6128 -0.195286
134 2 25.6702 7.60926 1.41155 25.6702 7.60926 1.41155
135 2 25.6678 7.61593 -1.8055 25.6678 7.61593 -1.8055
136 1 26.7924 9.25902 -0.194355 26.7924 9.25902 -0.194355
137 2 28.9679 9.25557 1.41306 28.9679 9.25557 1.41306
138 2 28.9663 9.26216 -1.80399 28.9663 9.26216 -1.80399
139 1 30.0915 7.61269 -0.199344 30.0915 7.61269 -0.199344
140 2 32.2649 7.61159 1.41064 32.2649 7.61159 1.41064
141 2 32.2673 7.61359 -1.80642 32.2673 7.61359 -1.80642
142 1 33.3895 9.25906 -0.195943 33.3895 9.25906 -0.195943
143 2 35.5614 9.25919 1.41595 35.5614 9.25919 1.41595
144 2 35.5667 9.25886 -1.80109 35.5667 9.25886 -1.80109
145 1 36.6884 7.61285 -0.190524 36.6884 7.61285 -0.190524
146 2 38.8575 7.61668 1.4253 38.8575 7.61668 1.4253
147 2 38.8686 7.60912 -1.79171 38.8686 7.60912 -1.79171
148 1 39.9865 9.2594 -0.183149 39.9865 9.2594 -0.183149
149 2 42.1558 9.26549 1.43255 42.1558 9.26549 1.43255
150 2 42.1667 9.25349 -1.78445 42.1667 9.25349 -1.78445
151 1 43.2857 7.61335 -0.166033 43.2857 7.61335 -0.166033
152 2 45.4533 7.6226 1.45219 45.4533 7.6226 1.45219
153 2 45.4679 7.60429 -1.76476 45.4679 7.60429 -1.76476
154 1 46.5841 9.25991 -0.160635 46.5841 9.25991 -0.160635
155 2 48.7538 9.27135 1.4548 48.7538 9.27135 1.4548
156 2 48.7641 9.24851 -1.76216 48.7641 9.24851 -1.76216
157 1 49.8834 7.61384 -0.138516 49.8834 7.61384 -0.138516
158 2 52.0542 7.62606 1.47533 52.0542 7.62606 1.47533
159 2 52.0619 7.60152 -1.74164 52.0619 7.60152 -1.74164
160 1 53.1814 9.26015 -0.143101 53.1814 9.26015 -0.143101
161 2 55.354 9.27253 1.46799 55.354 9.27253 1.46799
162 2 55.3578 9.24745 -1.74898 55.3578 9.24745 -1.74898
163 1 -2.89592 10.9063 -0.152123 -2.89592 10.9063 -0.152123
164 2 -0.721905 10.9171 1.45697 -0.721905 10.9171 1.45697
165 2 -0.721099 10.895 -1.76003 -0.721099 10.895 -1.76003
166 1 0.401865 12.5524 -0.162652 0.401865 12.5524 -0.162652
167 2 2.57635 12.5604 1.44592 2.57635 12.5604 1.44592
168 2 2.57635 12.544 -1.7711 2.57635 12.544 -1.7711
169 1 3.70093 10.9061 -0.154167 3.70093 10.9061 -0.154167
170 2 5.87784 10.9104 1.45141 5.87784 10.9104 1.45141
171 2 5.87346 10.9011 -1.76562 5.87346 10.9011 -1.76562
172 1 6.99905 12.5522 -0.163471 6.99905 12.5522 -0.163471
173 2 9.17545 12.5535 1.44301 9.17545 12.5535 1.44301
174 2 9.17231 12.5503 -1.77404 9.17231 12.5503 -1.77404
175 1 10.2986 10.9058 -0.16494 10.2986 10.9058 -0.16494
176 2 12.4768 10.9041 1.43901 12.4768 10.9041 1.43901
177 2 12.47 10.9069 -1.77803 12.47 10.9069 -1.77803
178 1 13.5967 12.552 -0.170455 13.5967 12.552 -0.170455
179 2 15.7736 12.5488 1.43516 15.7736 12.5488 1.43516
180 2 15.7693 12.5546 -1.7819 15.7693 12.5546 -1.7819
181 1 16.8961 10.9056 -0.177796 16.8961 10.9056 -0.177796
182 2 19.073 10.9011 1.42759 19.073 10.9011 1.42759
183 2 19.0684 10.9095 -1.78947 19.0684 10.9095 -1.78947
184 1 20.194 12.5517 -0.178265 20.194 12.5517 -0.178265
185 2 22.3704 12.5471 1.42779 22.3704 12.5471 1.42779
186 2 22.3667 12.5559 -1.78925 22.3667 12.5559 -1.78925
187 1 23.4932 10.9054 -0.186484 23.4932 10.9054 -0.186484
188 2 25.6694 10.9007 1.41987 25.6694 10.9007 1.41987
189 2 25.6663 10.9096 -1.79717 25.6663 10.9096 -1.79717
190 1 26.7912 12.5516 -0.185142 26.7912 12.5516 -0.185142
191 2 28.9675 12.5471 1.42139 28.9675 12.5471 1.42139
192 2 28.9645 12.5558 -1.79566 28.9645 12.5558 -1.79566
193 1 30.0905 10.9053 -0.192574 30.0905 10.9053 -0.192574
194 2 32.2651 10.9021 1.41579 32.2651 10.9021 1.41579
195 2 32.265 10.9084 -1.80127 32.265 10.9084 -1.80127
196 1 33.3884 12.5517 -0.189505 33.3884 12.5517 -0.189505
197 2 35.5629 12.5501 1.41921 35.5629 12.5501 1.41921
198 2 35.5632 12.5533 -1.79784 35.5632 12.5533 -1.79784
199 1 36.6874 10.9055 -0.190823 36.6874 10.9055 -0.190823
200 2 38.8593 10.9076 1.42134 38.8593 10.9076 1.42134
201 2 38.8649 10.9036 -1.79569 38.8649 10.9036 -1.79569
202 1 39.9856 12.5521 -0.187216 39.9856 12.5521 -0.187216
203 2 42.1579 12.5561 1.42445 42.1579 12.5561 1.42445
204 2 42.1628 12.5482 -1.79257 42.1628 12.5482 -1.79257
205 1 43.2848 10.906 -0.178279 43.2848 10.906 -0.178279
206 2 45.4551 10.9144 1.43623 45.4551 10.9144 1.43623
207 2 45.4642 10.8977 -1.78074 45.4642 10.8977 -1.78074
208 1 46.5833 12.5525 -0.177628 46.5833 12.5525 -0.177628
209 2 48.7554 12.5627 1.43438 48.7554 12.5627 1.43438
210 2 48.7607 12.5422 -1.7826 48.7607 12.5422 -1.7826
211 1 49.8824 10.9063 -0.161832 49.8824 10.9063 -0.161832
212 2 52.0541 10.9186 1.45071 52.0541 10.9186 1.45071
213 2 52.0601 10.8939 -1.76626 52.0601 10.8939 -1.76626
214 1 53.1805 12.5526 -0.168383 53.1805 12.5526 -0.168383
215 2 55.3529 12.5645 1.44275 55.3529 12.5645 1.44275
216 2 55.3569 12.5404 -1.77422 55.3569 12.5404 -1.77422
217 1 -2.89687 14.1988 -0.176681 -2.89687 14.1988 -0.176681
218 2 -0.724275 14.2089 1.43411 -0.724275 14.2089 1.43411
219 2 -0.720763 14.1883 -1.78291 -0.720763 14.1883 -1.78291
220 1 0.400921 15.8449 -0.183758 0.400921 15.8449 -0.183758
221 2 2.57266 15.8519 1.4282 2.57266 15.8519 1.4282
222 2 2.578 15.8375 -1.78882 2.578 15.8375 -1.78882
223 1 3.69977 14.1986 -0.171044 3.69977 14.1986 -0.171044
224 2 5.87335 14.2036 1.4389 5.87335 14.2036 1.4389
225 2 5.87551 14.193 -1.77813 5.87551 14.193 -1.77813
226 1 6.9979 15.8447 -0.174338 6.9979 15.8447 -0.174338
227 2 9.17117 15.8473 1.43626 9.17117 15.8473 1.43626
228 2 9.1742 15.8416 -1.78078 9.1742 15.8416 -1.78078
229 1 10.2973 14.1983 -0.168307 10.2973 14.1983 -0.168307
230 2 12.473 14.1976 1.43913 12.473 14.1976 1.43913
231 2 12.4712 14.1985 -1.77792 12.4712 14.1985 -1.77792
232 1 13.5955 15.8445 -0.169588 13.5955 15.8445 -0.169588
233 2 15.7709 15.8431 1.43821 15.7709 15.8431 1.43821
234 2 15.7696 15.8454 -1.77886 15.7696 15.8454 -1.77886
235 1 16.8947 14.1981 -0.171961 16.8947 14.1981 -0.171961
236 2 19.071 14.1948 1.43451 19.071 14.1948 1.43451
237 2 19.0678 14.2009 -1.78255 19.0678 14.2009 -1.78255
238 1 20.1928 15.8443 -0.171945 20.1928 15.8443 -0.171945
239 2 22.3688 15.8411 1.43489 22.3688 15.8411 1.43489
240 2 22.3661 15.847 -1.78216 22.3661 15.847 -1.78216
241 1 23.4919 14.1979 -0.177529 23.4919 14.1979 -0.177529
242 2 25.6683 14.1936 1.42879 25.6683 14.1936 1.42879
243 2 25.665 14.2019 -1.78825 25.665 14.2019 -1.78825
244 1 26.7902 15.8442 -0.176626 26.7902 15.8442 -0.176626
245 2 28.9664 15.84 1.42998 28.9664 15.84 1.42998
246 2 28.9635 15.8481 -1.78706 28.9635 15.8481 -1.78706
247 1 30.0894 14.1979 -0.183688 30.0894 14.1979 -0.183688
248 2 32.265 14.1941 1.42349 32.265 14.1941 1.42349
249 2 32.2631 14.2016 -1.79356 32.2631 14.2016 -1.79356
250 1 33.3875 15.8443 -0.18191 33.3875 15.8443 -0.18191
251 2 35.5635 15.8415 1.42488 35.5635 15.8415 1.42488
252 2 35.5609 15.8472 -1.79216 35.5609 15.8472 -1.79216
253 1 36.6865 14.1982 -0.187473 36.6865 14.1982 -0.187473
254 2 38.8611 14.1983 1.42113 38.8611 14.1983 1.42113
255 2 38.8613 14.1982 -1.7959 38.8613 14.1982 -1.7959
256 1 39.9848 15.8447 -0.187335 39.9848 15.8447 -0.187335
257 2 42.1597 15.8461 1.42086 42.1597 15.8461 1.42086
258 2 42.1595 15.8435 -1.79616 42.1595 15.8435 -1.79616
259 1 43.284 14.1986 -0.186455 43.284 14.1986 -0.186455
260 2 45.4574 14.2046 1.42388 45.4574 14.2046 1.42388
261 2 45.4603 14.1928 -1.79312 45.4603 14.1928 -1.79312
262 1 46.5826 15.8451 -0.189672 46.5826 15.8451 -0.189672
263 2 48.7571 15.8515 1.41907 48.7571 15.8515 1.41907
264 2 48.7576 15.8387 -1.79796 48.7576 15.8387 -1.79796
265 1 49.8816 14.1989 -0.182739 49.8816 14.1989 -0.182739
266 2 52.0543 14.2091 1.42821 52.0543 14.2091 1.42821
267 2 52.0582 14.1884 -1.78879 52.0582 14.1884 -1.78879
268 1 53.1798 15.8452 -0.189543 53.1798 15.8452 -0.189543
269 2 55.3523 15.8543 1.42114 55.3523 15.8543 1.42114
270 2 55.3559 15.8357 -1.79587 55.3559 15.8357 -1.79587
271 1 -2.89756 17.4914 -0.19562 -2.89756 17.4914 -0.19562
272 2 -0.725565 17.4984 1.41578 -0.725565 17.4984 1.41578
273 2 -0.720983 17.484 -1.80126 -0.720983 17.484 -1.80126
274 1 0.400315 19.1375 -0.198489 0.400315 19.1375 -0.198489
275 2 2.57088 19.1424 1.41484 2.57088 19.1424 1.41484
276 2 2.57844 19.1323 -1.8022 2.57844 19.1323 -1.8022
277 1 3.69887 17.4911 -0.185916 3.69887 17.4911 -0.185916
278 2 5.87028 17.4959 1.42682 5.87028 17.4959 1.42682
279 2 5.87665 17.4859 -1.7902 5.87665 17.4859 -1.7902
280 1 6.99711 19.1373 -0.184646 6.99711 19.1373 -0.184646
281 2 9.16833 19.1403 1.42857 9.16833 19.1403 1.42857
282 2 9.17536 19.1338 -1.78846 9.17536 19.1338 -1.78846
283 1 10.2962 17.4909 -0.174168 10.2962 17.4909 -0.174168
284 2 12.4695 17.4919 1.43654 12.4695 17.4919 1.43654
285 2 12.4726 17.4894 -1.78051 12.4726 17.4894 -1.78051
286 1 13.5946 19.137 -0.172307 13.5946 19.137 -0.172307
287 2 15.7687 19.1382 1.43717 15.7687 19.1382 1.43717
288 2 15.7699 19.1355 -1.77989 15.7699 19.1355 -1.77989
289 1 16.8937 17.4906 -0.169583 16.8937 17.4906 -0.169583
290 2 19.0692 17.4897 1.43792 19.0692 17.4897 1.43792
291 2 19.0674 17.4911 -1.77915 19.0674 17.4911 -1.77915
292 1 20.1919 19.1368 -0.17047 20.1919 19.1368 -0.17047
293 2 22.367 19.1363 1.43755 22.367 19.1363 1.43755
294 2 22.3661 19.1369 -1.77951 22.3661 19.1369 -1.77951
295 1 23.4909 17.4904 -0.171576 23.4909 17.4904 -0.171576
296 2 25.667 17.4877 1.43539 25.667 17.4877 1.43539
297 2 25.6645 17.4929 -1.78166 25.6645 17.4929 -1.78166
298 1 26.7894 19.1367 -0.171347 26.7894 19.1367 -0.171347
299 2 28.965 19.1341 1.43627 28.965 19.1341 1.43627
300 2 28.9635 19.1392 -1.78078 28.9635 19.1392 -1.78078
301 1 30.0885 17.4905 -0.175413 30.0885 17.4905 -0.175413
302 2 32.2646 17.4869 1.43127 32.2646 17.4869 1.43127
303 2 32.2618 17.4941 -1.78577 32.2618 17.4941 -1.78577
304 1 33.3869 19.1369 -0.174583 33.3869 19.1369 -0.174583
305 2 35.5632 19.1334 1.43175 35.5632 19.1334 1.43175
306 2 35.5599 19.1406 -1.78529 35.5599 19.1406 -1.78529
307 1 36.6858 17.4908 -0.181606 36.6858 17.4908 -0.181606
308 2 38.8622 17.4887 1.42463 38.8622 17.4887 1.42463
309 2 38.8589 17.4932 -1.79239 38.8589 17.4932 -1.79239
310 1 39.9843 19.1374 -0.182778 39.9843 19.1374 -0.182778
311 2 42.1614 19.136 1.42263 42.1614 19.136 1.42263
312 2 42.1569 19.1391 -1.79439 42.1569 19.1391 -1.79439
313 1 43.2834 17.4913 -0.189102 43.2834 17.4913 -0.189102
314 2 45.4596 17.4936 1.41751 45.4596 17.4936 1.41751
315 2 45.457 17.4891 -1.79951 45.457 17.4891 -1.79951
316 1 46.5822 19.1378 -0.194224 46.5822 19.1378 -0.194224
317 2 48.7584 19.1394 1.4121 48.7584 19.1394 1.4121
318 2 48.7555 19.1361 -1.80495 48.7555 19.1361 -1.80495
319 1 49.8811 17.4915 -0.195784 49.8811 17.4915 -0.195784
320 2 52.0555 17.4974 1.41276 52.0555 17.4974 1.41276
321 2 52.0558 17.4854 -1.80428 52.0558 17.4854 -1.80428
322 1 53.1793 19.1378 -0.201732 53.1793 19.1378 -0.201732
323 2 55.3528 19.1424 1.40756 55.3528 19.1424 1.40756
324 2 55.3544 19.133 -1.80948 55.3544 19.133 -1.80948
325 1 -2.89786 20.784 -0.205163 -2.89786 20.784 -0.205163
326 2 -0.725916 20.7862 1.40606 -0.725916 20.7862 1.40606
327 2 -0.721347 20.7816 -1.81101 -0.721347 20.7816 -1.81101
328 1 0.400164 22.4302 -0.20327 0.400164 22.4302 -0.20327
329 2 2.57133 22.431 1.40916 2.57133 22.431 1.40916
330 2 2.5776 22.4291 -1.8079 2.5776 22.4291 -1.8079
331 1 3.6984 20.7837 -0.196239 3.6984 20.7837 -0.196239
332 2 5.8688 20.7868 1.41767 5.8688 20.7868 1.41767
333 2 5.87707 20.7803 -1.79936 5.87707 20.7803 -1.79936
334 1 6.99682 22.4299 -0.191328 6.99682 22.4299 -0.191328
335 2 9.16754 22.4321 1.42242 9.16754 22.4321 1.42242
336 2 9.1755 22.4273 -1.79461 9.1755 22.4273 -1.79461
337 1 10.2956 20.7834 -0.180907 10.2956 20.7834 -0.180907
338 2 12.4676 20.786 1.43145 12.4676 20.786 1.43145
339 2 12.4732 20.7805 -1.78559 12.4732 20.7805 -1.78559
340 1 13.5942 22.4296 -0.178018 13.5942 22.4296 -0.178018
341 2 15.7676 22.4322 1.43241 15.7676 22.4322 1.43241
342 2 15.7702 22.4267 -1.78464 15.7702 22.4267 -1.78464
343 1 16.893 20.7832 -0.172356 16.893 20.7832 -0.172356
344 2 19.0675 20.7844 1.43649 19.0675 20.7844 1.43649
345 2 19.0678 20.7816 -1.78057 19.0678 20.7816 -1.78057
346 1 20.1915 22.4293 -0.173377 20.1915 22.4293 -0.173377
347 2 22.3659 22.4309 1.43559 22.3659 22.4309 1.43559
348 2 22.3664 22.4275 -1.78146 22.3664 22.4275 -1.78146
349 1 23.4903 20.783 -0.170967 23.4903 20.783 -0.170967
350 2 25.6651 20.7823 1.4377 25.6651 20.7823 1.4377
351 2 25.6652 20.7835 -1.77935 25.6652 20.7835 -1.77935
352 1 26.789 22.4292 -0.170214 26.789 22.4292 -0.170214
353 2 28.9634 22.4283 1.43902 28.9634 22.4283 1.43902
354 2 28.9643 22.4302 -1.77802 28.9643 22.4302 -1.77802
355 1 30.088 20.783 -0.170147 30.088 20.783 -0.170147
356 2 32.2635 20.7802 1.43748 32.2635 20.7802 1.43748
357 2 32.262 20.786 -1.77957 32.262 20.786 -1.77957
358 1 33.3866 22.4295 -0.168584 33.3866 22.4295 -0.168584
359 2 35.5623 22.4261 1.43865 35.5623 22.4261 1.43865
360 2 35.5603 22.4332 -1.77838 35.5603 22.4332 -1.77838
361 1 36.6854 20.7834 -0.174299 36.6854 20.7834 -0.174299
362 2 38.8623 20.7797 1.43132 38.8623 20.7797 1.43132
363 2 38.858 20.7875 -1.7857 38.858 20.7875 -1.7857
364 1 39.9842 22.43 -0.174742 39.9842 22.43 -0.174742
365 2 42.162 22.4253 1.42977 42.162 22.4253 1.42977
366 2 42.1561 22.4351 -1.78723 42.1561 22.4351 -1.78723
367 1 43.2831 20.7839 -0.185891 43.2831 20.7839 -0.185891
368 2 45.4608 20.7816 1.41876 45.4608 20.7816 1.41876
369 2 45.4554 20.7865 -1.79825 45.4554 20.7865 -1.79825
370 1 46.5821 22.4304 -0.189158 46.5821 22.4304 -0.189158
371 2 48.7596 22.4262 1.41561 48.7596 22.4262 1.41561
372 2 48.7544 22.4348 -1.80143 48.7544 22.4348 -1.80143
373 1 49.8808 20.7841 -0.199148 49.8808 20.7841 -0.199148
374 2 52.0565 20.7841 1.40761 52.0565 20.7841 1.40761
375 2 52.0544 20.7842 -1.80946 52.0544 20.7842 -1.80946
376 1 53.1793 22.4305 -0.201664 53.1793 22.4305 -0.201664
377 2 55.3542 22.4284 1.4058 55.3542 22.4284 1.4058
378 2 55.353 22.4324 -1.81126 55.353 22.4324 -1.81126
379 1 -2.89771 24.0767 -0.201008 -2.89771 24.0767 -0.201008
380 2 -0.724356 24.0732 1.40829 -0.724356 24.0732 1.40829
381 2 -0.722657 24.0802 -1.80879 -0.722657 24.0802 -1.80879
382 1 0.400517 25.7229 -0.196057 0.400517 25.7229 -0.196057
383 2 2.57345 25.7184 1.41397 2.57345 25.7184 1.41397
384 2 2.57614 25.7273 -1.80308 2.57614 25.7273 -1.80308
385 1 3.69844 24.0764 -0.198153 3.69844 24.0764 -0.198153
386 2 5.86937 24.0761 1.41488 5.86937 24.0761 1.41488
387 2 5.87652 24.0764 -1.80216 5.87652 24.0764 -1.80216
388 1 6.99709 25.7225 -0.191056 6.99709 25.7225 -0.191056
389 2 9.16909 25.7224 1.42087 9.16909 25.7224 1.42087
390 2 9.17443 25.7224 -1.79617 9.17443 25.7224 -1.79617
391 1 10.2955 24.076 -0.185855 10.2955 24.076 -0.185855
392 2 12.4677 24.0785 1.42611 12.4677 24.0785 1.42611
393 2 12.4729 24.0733 -1.79093 12.4729 24.0733 -1.79093
394 1 13.5944 25.7221 -0.183293 13.5944 25.7221 -0.183293
395 2 15.7678 25.7246 1.42696 15.7678 25.7246 1.42696
396 2 15.7704 25.7194 -1.7901 15.7704 25.7194 -1.7901
397 1 16.8929 24.0757 -0.178036 16.8929 24.0757 -0.178036
398 2 19.0668 24.0785 1.43157 19.0668 24.0785 1.43157
399 2 19.0683 24.0726 -1.78549 19.0683 24.0726 -1.78549
400 1 20.1916 25.7218 -0.179445 20.1916 25.7218 -0.179445
401 2 22.3651 25.7243 1.43058 22.3651 25.7243 1.43058
402 2 22.3674 25.7192 -1.78646 22.3674 25.7192 -1.78646
403 1 23.4901 24.0755 -0.174463 23.4901 24.0755 -0.174463
404 2 25.6636 24.0769 1.43589 25.6636 24.0769 1.43589
405 2 25.6663 24.074 -1.78115 25.6663 24.074 -1.78115
406 1 26.789 25.7217 -0.173123 26.789 25.7217 -0.173123
407 2 28.9617 25.7221 1.43843 28.9617 25.7221 1.43843
408 2 28.9662 25.7215 -1.77861 28.9662 25.7215 -1.77861
409 1 30.0878 24.0756 -0.168236 30.0878 24.0756 -0.168236
410 2 32.2618 24.0738 1.4414 32.2618 24.0738 1.4414
411 2 32.2634 24.0776 -1.77565 32.2634 24.0776 -1.77565
412 1 33.3867 25.722 -0.164692 33.3867 25.722 -0.164692
413 2 35.5609 25.7189 1.44466 35.5609 25.7189 1.44466
414 2 35.562 25.7256 -1.77238 35.562 25.7256 -1.77238
415 1 36.6853 24.076 -0.166946 36.6853 24.076 -0.166946
416 2 38.8615 24.0714 1.43976 38.8615 24.0714 1.43976
417 2 38.8588 24.0811 -1.77726 38.8588 24.0811 -1.77726
418 1 39.9844 25.7225 -0.164827 39.9844 25.7225 -0.164827
419 2 42.1611 25.7157 1.44127 42.1611 25.7157 1.44127
420 2 42.1575 25.7299 -1.77573 42.1575 25.7299 -1.77573
421 1 43.2832 24.0765 -0.175802 43.2832 24.0765 -0.175802
422 2 45.4613 24.0699 1.42846 45.4613 24.0699 1.42846
423 2 45.4551 24.0835 -1.78853 45.4551 24.0835 -1.78853
424 1 46.5825 25.723 -0.175286 46.5825 25.723 -0.175286
425 2 48.7602 25.7142 1.42927 48.7602 25.7142 1.42927
426 2 48.7545 25.7321 -1.78773 48.7545 25.7321 -1.78773
427 1 49.881 24.0768 -0.190397 49.881 24.0768 -0.190397
428 2 52.0579 24.0707 1.41478 52.0579 24.0707 1.41478
429 2 52.0533 24.083 -1.80226 52.0533 24.083 -1.80226
430 1 53.1797 25.7231 -0.189066 53.1797 25.7231 -0.189066
431 2 55.3556 25.715 1.41699 55.3556 25.715 1.41699
432 2 55.3524 25.7313 -1.80003 55.3524 25.7313 -1.80003
433 1 -2.8971 27.3694 -0.18428 -2.8971 27.3694 -0.18428
434 2 -0.721548 27.3608 1.42221 -0.721548 27.3608 1.42221
435 2 -0.724253 27.378 -1.79483 -0.724253 27.378 -1.79483
436 1 0.401325 29.0156 -0.178406 0.401325 29.0156 -0.178406
437 2 2.5768 29.0078 1.42829 2.5768 29.0078 1.42829
438 2 2.5744 29.0234 -1.78874 2.5744 29.0234 -1.78874
439 1 3.69901 27.3691 -0.189102 3.69901 27.3691 -0.189102
440 2 5.87247 27.3653 1.42058 5.87247 27.3653 1.42058
441 2 5.87452 27.3727 -1.79645 5.87452 27.3727 -1.79645
442 1 6.99787 29.0152 -0.183433 6.99787 29.0152 -0.183433
443 2 9.17244 29.0128 1.42503 9.17244 29.0128 1.42503
444 2 9.17259 29.0174 -1.79201 9.17259 29.0174 -1.79201
445 1 10.296 27.3686 -0.185865 10.296 27.3686 -0.185865
446 2 12.4697 27.3691 1.42398 12.4697 27.3691 1.42398
447 2 12.4718 27.368 -1.79307 12.4718 27.368 -1.79307
448 1 13.5951 29.0147 -0.184403 13.5951 29.0147 -0.184403
449 2 15.7698 29.0158 1.42403 15.7698 29.0158 1.42403
450 2 15.7697 29.0134 -1.79302 15.7697 29.0134 -1.79302
451 1 16.8933 27.3682 -0.183316 16.8933 27.3682 -0.183316
452 2 19.0673 27.3708 1.42597 19.0673 27.3708 1.42597
453 2 19.0685 27.3655 -1.79108 19.0685 27.3655 -1.79108
454 1 20.1922 29.0143 -0.184765 20.1922 29.0143 -0.184765
455 2 22.3653 29.0164 1.42561 22.3653 29.0164 1.42561
456 2 22.3682 29.0123 -1.79143 22.3682 29.0123 -1.79143
457 1 23.4904 27.368 -0.179747 23.4904 27.368 -0.179747
458 2 25.6629 27.3699 1.4318 25.6629 27.3699 1.4318
459 2 25.6675 27.3661 -1.78523 25.6675 27.3661 -1.78523
460 1 26.7895 29.0142 -0.177039 26.7895 29.0142 -0.177039
461 2 28.9609 29.0155 1.43611 28.9609 29.0155 1.43611
462 2 28.9678 29.0132 -1.78093 28.9678 29.0132 -1.78093
463 1 30.0881 27.3681 -0.168844 30.0881 27.3681 -0.168844
464 2 32.2604 27.3674 1.44304 32.2604 27.3674 1.44304
465 2 32.2653 27.3691 -1.77401 32.2653 27.3691 -1.77401
466 1 33.3871 29.0145 -0.162936 33.3871 29.0145 -0.162936
467 2 35.5593 29.0123 1.44919 35.5593 29.0123 1.44919
468 2 35.5645 29.0173 -1.76785 35.5645 29.0173 -1.76785
469 1 36.6856 27.3685 -0.160133 36.6856 27.3685 -0.160133
470 2 38.8602 27.3636 1.44887 38.8602 27.3636 1.44887
471 2 38.8608 27.374 -1.76815 38.8608 27.374 -1.76815
472 1 39.9849 29.015 -0.154175 39.9849 29.015 -0.154175
473 2 42.1596 29.0078 1.4548 42.1596 29.0078 1.4548
474 2 42.1602 29.0229 -1.7622 42.1602 29.0229 -1.7622
475 1 43.2837 27.3691 -0.161319 43.2837 27.3691 -0.161319
476 2 45.4608 27.3599 1.44437 45.4608 27.3599 1.44437
477 2 45.4566 27.3788 -1.7726 45.4566 27.3788 -1.7726
478 1 46.5832 29.0155 -0.155971 46.5832 29.0155 -0.155971
479 2 48.7601 29.0041 1.44983 48.7601 29.0041 1.44983
480 2 48.7561 29.0275 -1.76714 48.7561 29.0275 -1.76714
481 1 49.8816 27.3694 -0.172096 49.8816 27.3694 -0.172096
482 2 52.0589 27.3585 1.43266 52.0589 27.3585 1.43266
483 2 52.0536 27.3806 -1.78433 52.0536 27.3806 -1.78433
484 1 53.1805 29.0158 -0.166408 53.1805 29.0158 -0.166408
485 2 55.3576 29.0042 1.43817 55.3576 29.0042 1.43817
486 2 55.352 29.0275 -1.77881 55.352 29.0275 -1.77881
487 1 -2.89612 30.662 -0.160344 -2.89612 30.662 -0.160344
488 2 -0.718631 30.651 1.44369 -0.718631 30.651 1.44369
489 2 -0.7252 30.6731 -1.77331 -0.7252 30.6731 -1.77331
490 1 0.402437 32.3082 -0.155777 0.402437 32.3082 -0.155777
491 2 2.58079 32.2995 1.44725 2.58079 32.2995 1.44725
492 2 2.57266 32.3169 -1.76976 2.57266 32.3169 -1.76976
493 1 3.69999 30.6617 -0.173035 3.69999 30.6617 -0.173035
494 2 5.87653 30.6558 1.4326 5.87653 30.6558 1.4326
495 2 5.87243 30.6676 -1.78442 5.87243 30.6676 -1.78442
496 1 6.999 32.3078 -0.171252 6.999 32.3078 -0.171252
497 2 9.17653 32.304 1.43332 9.17653 32.304 1.43332
498 2 9.17076 32.3115 -1.78371 9.17076 32.3115 -1.78371
499 1 10.297 30.6612 -0.181074 10.297 30.6612 -0.181074
500 2 12.4726 30.6599 1.4261 12.4726 30.6599 1.4261
501 2 12.4708 30.6624 -1.79095 12.4708 30.6624 -1.79095
502 1 13.5962 32.3073 -0.181758 13.5962 32.3073 -0.181758
503 2 15.7726 32.307 1.42432 15.7726 32.307 1.42432
504 2 15.769 32.3075 -1.79273 15.769 32.3075 -1.79273
505 1 16.8941 30.6607 -0.185689 16.8941 30.6607 -0.185689
506 2 19.0688 30.6619 1.42264 19.0688 30.6619 1.42264
507 2 19.0686 30.6596 -1.79442 19.0686 30.6596 -1.79442
508 1 20.1931 32.3069 -0.187025 20.1931 32.3069 -0.187025
509 2 22.3667 32.308 1.42273 22.3667 32.308 1.42273
510 2 22.3687 32.3058 -1.79432 22.3687 32.3058 -1.79432
511 1 23.4911 30.6605 -0.18393 23.4911 30.6605 -0.18393
512 2 25.6632 30.662 1.42812 25.6632 30.662 1.42812
513 2 25.6685 30.6592 -1.78892 25.6685 30.6592 -1.78892
514 1 26.7903 32.3068 -0.179905 26.7903 32.3068 -0.179905
515 2 28.9613 32.3079 1.43369 28.9613 32.3079 1.43369
516 2 28.9689 32.3059 -1.78335 28.9689 32.3059 -1.78335
517 1 30.0887 30.6606 -0.171135 30.0887 30.6606 -0.171135
518 2 32.2593 30.6606 1.44292 32.2593 30.6606 1.44292
519 2 32.2675 30.661 -1.77414 32.2675 30.661 -1.77414
520 1 33.3879 32.307 -0.16257 33.3879 32.307 -0.16257
521 2 35.558 32.3055 1.45222 35.558 32.3055 1.45222
522 2 35.5672 32.3091 -1.76482 35.5672 32.3091 -1.76482
523 1 36.6863 30.661 -0.154958 36.6863 30.661 -0.154958
524 2 38.8584 30.6565 1.45741 38.8584 30.6565 1.45741
525 2 38.864 30.6662 -1.75961 38.864 30.6662 -1.75961
526 1 39.9857 32.3075 -0.144223 39.9857 32.3075 -0.144223
527 2 42.1582 32.301 1.46795 42.1582 32.301 1.46795
528 2 42.1633 32.3147 -1.74906 42.1633 32.3147 -1.74906
529 1 43.2844 30.6615 -0.145812 43.2844 30.6615 -0.145812
530 2 45.4595 30.6517 1.46287 45.4595 30.6517 1.46287
531 2 45.4596 30.672 -1.7541 45.4596 30.672 -1.7541
532 1 46.5841 32.308 -0.135284 46.5841 32.308 -0.135284
533 2 48.7597 32.2969 1.47256 48.7597 32.2969 1.47256
534 2 48.7585 32.3197 -1.74442 48.7585 32.3197 -1.74442
535 1 49.8825 30.6619 -0.148115 49.8825 30.6619 -0.148115
536 2 52.0597 30.6494 1.45698 52.0597 30.6494 1.45698
537 2 52.0546 30.6749 -1.75999 52.0546 30.6749 -1.75999