ITEM: TIMESTEP
4448000
ITEM: NUMBER OF ATOMS
810
ITEM: BOX BOUNDS pp pp pp
-1.0544275507235071e+01 6.3561880507234136e+01
8.1394622342039402e-01 5.0202268776579182e+01
-1.0000000000000000e+01 1.0000000000000000e+01
ITEM: ATOMS id type x y z xu yu zu
1 1 -1.62455 1.0286 -0.349034 -1.62455 1.0286 -0.349034
2 2 0.218248 1.02755 1.34811 0.218248 1.02755 1.34811
3 2 0.333429 1.02865 -1.91193 0.333429 1.02865 -1.91193
4 1 1.2266 2.67414 -0.247637 1.2266 2.67414 -0.247637
5 2 3.08938 2.66175 1.42707 3.08938 2.66175 1.42707
6 2 3.16573 2.68457 -1.83417 3.16573 2.68457 -1.83417
7 1 4.07824 1.02675 -0.192868 4.07824 1.02675 -0.192868
8 2 5.96637 1.01955 1.45286 5.96637 1.01955 1.45286
9 2 5.99292 1.03278 -1.80927 5.99292 1.03278 -1.80927
10 1 6.93103 2.67199 -0.164052 6.93103 2.67199 -0.164052
11 2 8.82616 2.65383 1.47387 8.82616 2.65383 1.47387
12 2 8.83876 2.69017 -1.78816 8.83876 2.69017 -1.78816
13 1 9.78327 1.02615 -0.17195 9.78327 1.02615 -0.17195
14 2 11.6852 1.01219 1.45807 11.6852 1.01219 1.45807
15 2 11.684 1.04108 -1.80406 11.684 1.04108 -1.80406
16 1 12.6358 2.67275 -0.158679 12.6358 2.67275 -0.158679
17 2 14.5392 2.65593 1.46988 14.5392 2.65593 1.46988
18 2 14.5352 2.69077 -1.79219 14.5352 2.69077 -1.79219
19 1 15.4879 1.02724 -0.180198 15.4879 1.02724 -0.180198
20 2 17.3824 1.01677 1.45896 17.3824 1.01677 1.45896
21 2 17.3961 1.03783 -1.80316 17.3961 1.03783 -1.80316
22 1 18.3405 2.6734 -0.156971 18.3405 2.6734 -0.156971
23 2 20.2433 2.67787 1.47259 20.2433 2.67787 1.47259
24 2 20.2405 2.66955 -1.7896 20.2405 2.66955 -1.7896
25 1 21.1927 1.02749 -0.155494 21.1927 1.02749 -0.155494
26 2 23.0949 1.03483 1.47474 23.0949 1.03483 1.47474
27 2 23.0934 1.02129 -1.78737 23.0934 1.02129 -1.78737
28 1 24.0455 2.67442 -0.163504 24.0455 2.67442 -0.163504
29 2 25.9454 2.68431 1.46961 25.9454 2.68431 1.46961
30 2 25.9489 2.66534 -1.79242 25.9489 2.66534 -1.79242
31 1 26.8982 1.0286 -0.15085 26.8982 1.0286 -0.15085
32 2 28.8016 1.03934 1.47816 28.8016 1.03934 1.47816
33 2 28.7982 1.01871 -1.78389 28.7982 1.01871 -1.78389
34 1 29.7515 2.67519 -0.164005 29.7515 2.67519 -0.164005
35 2 31.6527 2.69518 1.46786 31.6527 2.69518 1.46786
36 2 31.6538 2.6559 -1.79407 31.6538 2.6559 -1.79407
37 1 32.604 1.0296 -0.142913 32.604 1.0296 -0.142913
38 2 34.5027 1.0522 1.49164 34.5027 1.0522 1.49164
39 2 34.5086 1.00837 -1.77027 34.5086 1.00837 -1.77027
40 1 35.4572 2.67614 -0.159745 35.4572 2.67614 -0.159745
41 2 37.3692 2.70841 1.45865 37.3692 2.70841 1.45865
42 2 37.3482 2.64508 -1.80289 37.3482 2.64508 -1.80289
43 1 38.3092 1.03071 -0.145886 38.3092 1.03071 -0.145886
44 2 40.2222 1.05368 1.47148 40.2222 1.05368 1.47148
45 2 40.1987 1.00795 -1.79069 40.1987 1.00795 -1.79069
46 1 41.1607 2.67705 -0.19114 41.1607 2.67705 -0.19114
47 2 43.0323 2.65925 1.4146 43.0323 2.65925 1.4146
48 2 43.0466 2.69521 -1.7821 43.0466 2.69521 -1.7821
49 1 44.0805 1.03082 -0.195607 44.0805 1.03082 -0.195607
50 2 -5.23367 1.03459 1.26911 68.8725 1.03459 1.26911
51 2 -6.02039 1.02603 -1.48585 68.0858 1.02603 -1.48585
52 1 -4.45749 2.67633 -0.447104 69.6487 2.67633 -0.447104
53 2 -2.64323 2.66363 1.26667 71.4629 2.66363 1.26667
54 2 -2.51274 2.68829 -2.01133 71.5934 2.68829 -2.01133
55 1 -1.62387 4.32189 -0.324878 -1.62387 4.32189 -0.324878
56 2 0.224576 4.30903 1.36495 0.224576 4.30903 1.36495
57 2 0.328725 4.3329 -1.89546 0.328725 4.3329 -1.89546
58 1 1.22756 5.96649 -0.222268 1.22756 5.96649 -0.222268
59 2 3.08934 5.94891 1.45403 3.08934 5.94891 1.45403
60 2 3.16766 5.98171 -1.80709 3.16766 5.98171 -1.80709
61 1 4.07883 4.31877 -0.1702 4.07883 4.31877 -0.1702
62 2 5.9666 4.30119 1.47616 5.9666 4.30119 1.47616
63 2 5.99391 4.33493 -1.78577 5.99391 4.33493 -1.78577
64 1 6.93143 5.96403 -0.129773 6.93143 5.96403 -0.129773
65 2 8.8244 5.9441 1.51103 8.8244 5.9441 1.51103
66 2 8.84117 5.98391 -1.75089 8.84117 5.98391 -1.75089
67 1 9.78367 4.31803 -0.135196 9.78367 4.31803 -0.135196
68 2 11.6847 4.29514 1.49608 11.6847 4.29514 1.49608
69 2 11.6855 4.34211 -1.76581 11.6855 4.34211 -1.76581
70 1 12.636 5.96485 -0.110608 12.636 5.96485 -0.110608
71 2 14.5483 5.95132 1.50772 14.5483 5.95132 1.50772
72 2 14.5266 5.97953 -1.7543 14.5266 5.97953 -1.7543
73 1 15.4883 4.3194 -0.144195 15.4883 4.3194 -0.144195
74 2 17.3923 4.31187 1.4839 17.3923 4.31187 1.4839
75 2 17.3871 4.3273 -1.77827 17.3871 4.3273 -1.77827
76 1 18.3407 5.96587 -0.140667 18.3407 5.96587 -0.140667
77 2 20.2555 5.96741 1.47472 20.2555 5.96741 1.47472
78 2 20.2286 5.96519 -1.78737 20.2286 5.96519 -1.78737
79 1 21.193 4.3201 -0.163236 21.193 4.3201 -0.163236
80 2 23.0978 4.32627 1.46385 23.0978 4.32627 1.46385
81 2 23.0911 4.31505 -1.79827 23.0911 4.31505 -1.79827
82 1 24.0458 5.96693 -0.174627 24.0458 5.96693 -0.174627
83 2 25.9529 5.98121 1.4503 25.9529 5.98121 1.4503
84 2 25.9422 5.95339 -1.81164 25.9422 5.95339 -1.81164
85 1 26.8987 4.3211 -0.169858 26.8987 4.3211 -0.169858
86 2 28.8065 4.33768 1.45399 28.8065 4.33768 1.45399
87 2 28.7946 4.30511 -1.80791 28.7946 4.30511 -1.80791
88 1 29.7519 5.96752 -0.197017 29.7519 5.96752 -0.197017
89 2 31.6553 5.98498 1.43195 31.6553 5.98498 1.43195
90 2 31.652 5.95013 -1.83001 31.652 5.95013 -1.83001
91 1 32.6047 4.3215 -0.182584 32.6047 4.3215 -0.182584
92 2 34.5065 4.3453 1.44785 34.5065 4.3453 1.44785
93 2 34.5061 4.29829 -1.81407 34.5061 4.29829 -1.81407
94 1 35.4571 5.96794 -0.207505 35.4571 5.96794 -0.207505
95 2 37.3632 5.97464 1.41756 37.3632 5.97464 1.41756
96 2 37.3536 5.96293 -1.84467 37.3536 5.96293 -1.84467
97 1 38.3095 4.32279 -0.210581 38.3095 4.32279 -0.210581
98 2 40.2124 4.34426 1.41865 40.2124 4.34426 1.41865
99 2 40.2095 4.30254 -1.8436 40.2095 4.30254 -1.8436
100 1 41.1608 5.97013 -0.234985 41.1608 5.97013 -0.234985
101 2 43.0061 5.98395 1.39966 43.0061 5.98395 1.39966
102 2 43.073 5.95749 -1.7964 43.073 5.95749 -1.7964
103 1 44.0801 4.32407 -0.163805 44.0801 4.32407 -0.163805
104 2 -5.2364 4.30752 1.27391 68.8698 4.30752 1.27391
105 2 -6.02512 4.3328 -1.47293 68.081 4.3328 -1.47293
106 1 -4.45725 5.97269 -0.424874 69.6489 5.97269 -0.424874
107 2 -2.6596 5.92795 1.30885 71.4466 5.92795 1.30885
108 2 -2.49273 6.01048 -1.96512 71.6134 6.01048 -1.96512
109 1 -1.62429 7.61435 -0.237931 -1.62429 7.61435 -0.237931
110 2 0.249895 7.58283 1.42313 0.249895 7.58283 1.42313
111 2 0.304135 7.64288 -1.83819 0.304135 7.64288 -1.83819
112 1 1.22793 9.25795 -0.16182 1.22793 9.25795 -0.16182
113 2 3.10675 9.24342 1.49522 3.10675 9.24342 1.49522
114 2 3.15111 9.27111 -1.76666 3.15111 9.27111 -1.76666
115 1 4.07954 7.61092 -0.137042 4.07954 7.61092 -0.137042
116 2 5.96764 7.59477 1.50909 5.96764 7.59477 1.50909
117 2 5.99401 7.62604 -1.75288 5.99401 7.62604 -1.75288
118 1 6.93159 9.25665 -0.0984448 6.93159 9.25665 -0.0984448
119 2 8.82693 9.25034 1.53951 8.82693 9.25034 1.53951
120 2 8.83878 9.26302 -1.72265 8.83878 9.26302 -1.72265
121 1 9.78363 7.61035 -0.0946128 9.78363 7.61035 -0.0946128
122 2 11.6884 7.60102 1.53255 11.6884 7.60102 1.53255
123 2 11.6817 7.62087 -1.72958 11.6817 7.62087 -1.72958
124 1 12.6359 9.25732 -0.0904521 12.6359 9.25732 -0.0904521
125 2 14.55 9.25537 1.52573 14.55 9.25537 1.52573
126 2 14.5247 9.26022 -1.73635 14.5247 9.26022 -1.73635
127 1 15.4884 7.61169 -0.115099 15.4884 7.61169 -0.115099
128 2 17.4041 7.61158 1.49937 17.4041 7.61158 1.49937
129 2 17.3754 7.61245 -1.76272 17.3754 7.61245 -1.76272
130 1 18.3407 9.25829 -0.139435 18.3407 9.25829 -0.139435
131 2 20.2623 9.26881 1.46762 20.2623 9.26881 1.46762
132 2 20.2217 9.24845 -1.79427 20.2217 9.24845 -1.79427
133 1 21.1931 7.61257 -0.165001 21.1931 7.61257 -0.165001
134 2 23.109 7.62836 1.44929 23.109 7.62836 1.44929
135 2 23.0802 7.59783 -1.81259 23.0802 7.59783 -1.81259
136 1 24.0459 9.25917 -0.205465 24.0459 9.25917 -0.205465
137 2 25.9541 9.27802 1.41803 25.9541 9.27802 1.41803
138 2 25.9411 9.24155 -1.84382 25.9411 9.24155 -1.84382
139 1 26.8989 7.61356 -0.198022 26.8989 7.61356 -0.198022
140 2 28.8084 7.62806 1.42391 28.8084 7.62806 1.42391
141 2 28.7928 7.59942 -1.83802 28.7928 7.59942 -1.83802
142 1 29.7513 9.26012 -0.226289 29.7513 9.26012 -0.226289
143 2 31.657 9.27572 1.39985 31.657 9.27572 1.39985
144 2 31.6488 9.24407 -1.86215 31.6488 9.24407 -1.86215
145 1 32.6043 7.61381 -0.217645 32.6043 7.61381 -0.217645
146 2 34.5088 7.62892 1.40995 34.5088 7.62892 1.40995
147 2 34.5029 7.59862 -1.85213 34.5029 7.59862 -1.85213
148 1 35.456 9.26033 -0.238287 35.456 9.26033 -0.238287
149 2 37.3483 9.26071 1.40341 37.3483 9.26071 1.40341
150 2 37.3664 9.26173 -1.85878 37.3664 9.26173 -1.85878
151 1 38.3087 7.61537 -0.222789 38.3087 7.61537 -0.222789
152 2 40.2096 7.60474 1.40904 40.2096 7.60474 1.40904
153 2 40.2107 7.62825 -1.85339 40.2107 7.62825 -1.85339
154 1 41.1598 9.26309 -0.208665 41.1598 9.26309 -0.208665
155 2 43.0436 9.29 1.38455 43.0436 9.29 1.38455
156 2 43.0337 9.23725 -1.81186 43.0337 9.23725 -1.81186
157 1 44.0802 7.61747 -0.191019 44.0802 7.61747 -0.191019
158 2 -5.25944 7.52157 1.35199 68.8467 7.52157 1.35199
159 2 -5.92142 7.69679 -1.49939 68.1847 7.69679 -1.49939
160 1 -4.45471 9.26074 -0.250494 69.6514 9.26074 -0.250494
161 2 -2.61349 9.22461 1.42429 71.4927 9.22461 1.42429
162 2 -2.55303 9.29473 -1.85667 71.5531 9.29473 -1.85667
163 1 -1.62435 10.9042 -0.159145 -1.62435 10.9042 -0.159145
164 2 0.260436 10.8708 1.49181 0.260436 10.8708 1.49181
165 2 0.293558 10.9365 -1.7697 0.293558 10.9365 -1.7697
166 1 1.2275 12.5495 -0.0955414 1.2275 12.5495 -0.0955414
167 2 3.12835 12.5361 1.53613 3.12835 12.5361 1.53613
168 2 3.1291 12.5626 -1.72603 3.1291 12.5626 -1.72603
169 1 4.07966 10.9032 -0.108277 4.07966 10.9032 -0.108277
170 2 5.97133 10.896 1.53403 5.97133 10.896 1.53403
171 2 5.99043 10.9102 -1.7281 5.99043 10.9102 -1.7281
172 1 6.9315 12.5495 -0.0841239 6.9315 12.5495 -0.0841239
173 2 8.83473 12.5552 1.54475 8.83473 12.5552 1.54475
174 2 8.8309 12.5439 -1.71744 8.8309 12.5439 -1.71744
175 1 9.78357 10.9032 -0.0815935 9.78357 10.9032 -0.0815935
176 2 11.6903 10.9039 1.54323 11.6903 10.9039 1.54323
177 2 11.6795 10.9031 -1.71895 11.6795 10.9031 -1.71895
178 1 12.636 12.5498 -0.0917103 12.636 12.5498 -0.0917103
179 2 14.5493 12.5525 1.52523 14.5493 12.5525 1.52523
180 2 14.5255 12.5479 -1.73687 14.5255 12.5479 -1.73687
181 1 15.4884 10.9041 -0.110388 15.4884 10.9041 -0.110388
182 2 17.4078 10.9072 1.49942 17.4078 10.9072 1.49942
183 2 17.3718 10.9016 -1.76257 17.3718 10.9016 -1.76257
184 1 18.341 12.5506 -0.14519 18.341 12.5506 -0.14519
185 2 20.2662 12.5527 1.45751 20.2662 12.5527 1.45751
186 2 20.2185 12.549 -1.80432 20.2185 12.549 -1.80432
187 1 21.1932 10.9047 -0.185633 21.1932 10.9047 -0.185633
188 2 23.112 10.9158 1.42482 23.112 10.9158 1.42482
189 2 23.0772 10.8945 -1.83708 23.0772 10.8945 -1.83708
190 1 24.0457 12.5516 -0.227153 24.0457 12.5516 -0.227153
191 2 25.9543 12.5566 1.39565 25.9543 12.5566 1.39565
192 2 25.9401 12.5483 -1.86645 25.9401 12.5483 -1.86645
193 1 26.8985 10.9062 -0.235341 26.8985 10.9062 -0.235341
194 2 28.8012 10.9175 1.39426 28.8012 10.9175 1.39426
195 2 28.7989 10.8955 -1.8678 28.7989 10.8955 -1.8678
196 1 29.7506 12.5529 -0.248715 29.7506 12.5529 -0.248715
197 2 31.6539 12.5549 1.38017 31.6539 12.5549 1.38017
198 2 31.65 12.5504 -1.88204 31.65 12.5504 -1.88204
199 1 32.6032 10.9063 -0.249656 32.6032 10.9063 -0.249656
200 2 34.5015 10.9119 1.38514 34.5015 10.9119 1.38514
201 2 34.5077 10.9007 -1.87705 34.5077 10.9007 -1.87705
202 1 35.4548 12.5529 -0.249429 35.4548 12.5529 -0.249429
203 2 37.3477 12.5655 1.392 37.3477 12.5655 1.392
204 2 37.3645 12.542 -1.87014 37.3645 12.542 -1.87014
205 1 38.3075 10.908 -0.221813 38.3075 10.908 -0.221813
206 2 40.1956 10.8994 1.42518 40.1956 10.8994 1.42518
207 2 40.2222 10.9186 -1.83717 40.2222 10.9186 -1.83717
208 1 41.1586 12.5557 -0.188379 41.1586 12.5557 -0.188379
209 2 43.0654 12.5499 1.37981 43.0654 12.5499 1.37981
210 2 43.0102 12.5629 -1.81645 43.0102 12.5629 -1.81645
211 1 44.0792 10.9102 -0.241608 44.0792 10.9102 -0.241608
212 2 -5.97773 10.8107 0.948905 68.1284 10.8107 0.948905
213 2 -5.19601 11.0229 -1.85926 68.9101 11.0229 -1.85926
214 1 -4.4604 12.5461 -0.0299275 69.6458 12.5461 -0.0299275
215 2 -2.53746 12.4905 1.56197 71.5687 12.4905 1.56197
216 2 -2.61635 12.6089 -1.71427 71.4898 12.6089 -1.71427
217 1 -1.62377 14.1958 -0.0358474 -1.62377 14.1958 -0.0358474
218 2 0.300081 14.1756 1.56959 0.300081 14.1756 1.56959
219 2 0.254654 14.216 -1.692 0.254654 14.216 -1.692
220 1 1.22808 15.8424 -0.0530122 1.22808 15.8424 -0.0530122
221 2 3.14575 15.8429 1.55921 3.14575 15.8429 1.55921
222 2 3.11256 15.8417 -1.70286 3.11256 15.8417 -1.70286
223 1 4.07943 14.1958 -0.0810141 4.07943 14.1958 -0.0810141
224 2 5.98569 14.2015 1.54429 5.98569 14.2015 1.54429
225 2 5.97557 14.1901 -1.71791 5.97557 14.1901 -1.71791
226 1 6.93172 15.842 -0.0954719 6.93172 15.842 -0.0954719
227 2 8.8367 15.8498 1.53156 8.8367 15.8498 1.53156
228 2 8.82935 15.8342 -1.73064 8.82935 15.8342 -1.73064
229 1 9.78382 14.1958 -0.0934078 9.78382 14.1958 -0.0934078
230 2 11.6864 14.1995 1.53635 11.6864 14.1995 1.53635
231 2 11.684 14.1925 -1.72586 11.684 14.1925 -1.72586
232 1 12.6362 15.8422 -0.0993305 12.6362 15.8422 -0.0993305
233 2 14.5436 15.8375 1.52447 14.5436 15.8375 1.52447
234 2 14.5314 15.8475 -1.73774 14.5314 15.8475 -1.73774
235 1 15.4885 14.1963 -0.115369 15.4885 14.1963 -0.115369
236 2 17.405 14.1938 1.49767 17.405 14.1938 1.49767
237 2 17.3748 14.1994 -1.7644 17.3748 14.1994 -1.7644
238 1 18.341 15.8427 -0.139513 18.341 15.8427 -0.139513
239 2 20.2638 15.8317 1.46594 20.2638 15.8317 1.46594
240 2 20.221 15.8545 -1.79587 20.221 15.8545 -1.79587
241 1 21.1934 14.1971 -0.189347 21.1934 14.1971 -0.189347
242 2 23.1137 14.1937 1.41918 23.1137 14.1937 1.41918
243 2 23.0758 14.2018 -1.84275 23.0758 14.2018 -1.84275
244 1 24.0456 15.8443 -0.218581 24.0456 15.8443 -0.218581
245 2 25.957 15.8374 1.40106 25.957 15.8374 1.40106
246 2 25.9371 15.8529 -1.86102 25.9371 15.8529 -1.86102
247 1 26.898 14.199 -0.243689 26.898 14.199 -0.243689
248 2 28.8034 14.201 1.38297 28.8034 14.201 1.38297
249 2 28.7956 14.1977 -1.87919 28.7956 14.1977 -1.87919
250 1 29.7503 15.8457 -0.251891 29.7503 15.8457 -0.251891
251 2 31.6526 15.8447 1.37812 31.6526 15.8447 1.37812
252 2 31.6508 15.8462 -1.88412 31.6508 15.8462 -1.88412
253 1 32.6025 14.199 -0.254339 32.6025 14.199 -0.254339
254 2 34.5061 14.2079 1.374 34.5061 14.2079 1.374
255 2 34.5012 14.1899 -1.8882 34.5012 14.1899 -1.8882
256 1 35.454 15.8455 -0.267519 35.454 15.8455 -0.267519
257 2 37.35 15.859 1.36934 37.35 15.859 1.36934
258 2 37.3602 15.8333 -1.8928 37.3602 15.8333 -1.8928
259 1 38.3064 14.2003 -0.245637 38.3064 14.2003 -0.245637
260 2 40.1861 14.2193 1.41101 40.1861 14.2193 1.41101
261 2 40.229 14.184 -1.85108 40.229 14.184 -1.85108
262 1 41.1571 15.848 -0.226615 41.1571 15.848 -0.226615
263 2 43.0251 15.8246 1.38419 43.0251 15.8246 1.38419
264 2 43.0469 15.8729 -1.81225 43.0469 15.8729 -1.81225
265 1 44.0781 14.2031 -0.229214 44.0781 14.2031 -0.229214
266 2 -6.04978 14.1743 1.00501 68.0564 14.1743 1.00501
267 2 -5.20152 14.2333 -1.72221 68.9046 14.2333 -1.72221
268 1 -4.45828 15.8417 0.0363999 69.6479 15.8417 0.0363999
269 2 -2.54474 15.8229 1.6396 71.5614 15.8229 1.6396
270 2 -2.60961 15.8616 -1.6404 71.4965 15.8616 -1.6404
271 1 -1.62304 17.489 0.0026143 -1.62304 17.489 0.0026143
272 2 0.309569 17.4885 1.59686 0.309569 17.4885 1.59686
273 2 0.246596 17.4898 -1.66464 0.246596 17.4898 -1.66464
274 1 1.2289 19.1356 -0.0515918 1.2289 19.1356 -0.0515918
275 2 3.15298 19.1452 1.55266 3.15298 19.1452 1.55266
276 2 3.10735 19.1257 -1.70914 3.10735 19.1257 -1.70914
277 1 4.08021 17.4887 -0.0819002 4.08021 17.4887 -0.0819002
278 2 5.99738 17.5026 1.53045 5.99738 17.5026 1.53045
279 2 5.96535 17.4743 -1.73151 5.96535 17.4743 -1.73151
280 1 6.93263 19.1345 -0.124192 6.93263 19.1345 -0.124192
281 2 8.83161 19.1437 1.51 8.83161 19.1437 1.51
282 2 8.83625 19.1252 -1.7522 8.83625 19.1252 -1.7522
283 1 9.78422 17.4881 -0.109892 9.78422 17.4881 -0.109892
284 2 11.6811 17.4908 1.52666 11.6811 17.4908 1.52666
285 2 11.6898 17.486 -1.73559 11.6898 17.486 -1.73559
286 1 12.6362 19.1347 -0.1043 12.6362 19.1347 -0.1043
287 2 14.5383 19.1353 1.52581 14.5383 19.1353 1.52581
288 2 14.5365 19.1341 -1.73647 14.5365 19.1341 -1.73647
289 1 15.4884 17.4886 -0.105162 15.4884 17.4886 -0.105162
290 2 17.4036 17.4788 1.50971 17.4036 17.4788 1.50971
291 2 17.3759 17.4985 -1.75234 17.3759 17.4985 -1.75234
292 1 18.3407 19.1348 -0.119362 18.3407 19.1348 -0.119362
293 2 20.2662 19.1317 1.48311 20.2662 19.1317 1.48311
294 2 20.2178 19.1389 -1.77873 20.2178 19.1389 -1.77873
295 1 21.1933 17.4895 -0.165841 21.1933 17.4895 -0.165841
296 2 23.1183 17.4794 1.43733 23.1183 17.4794 1.43733
297 2 23.071 17.5014 -1.8244 23.071 17.5014 -1.8244
298 1 24.0456 19.1368 -0.196348 24.0456 19.1368 -0.196348
299 2 25.9575 19.1245 1.42267 25.9575 19.1245 1.42267
300 2 25.9368 19.1509 -1.83933 25.9368 19.1509 -1.83933
301 1 26.898 17.4915 -0.227958 26.898 17.4915 -0.227958
302 2 28.8075 17.4825 1.39363 28.8075 17.4825 1.39363
303 2 28.7915 17.5014 -1.86848 28.7915 17.5014 -1.86848
304 1 29.7502 19.1383 -0.23254 29.7502 19.1383 -0.23254
305 2 31.6536 19.1216 1.39625 31.6536 19.1216 1.39625
306 2 31.6494 19.155 -1.86579 31.6494 19.155 -1.86579
307 1 32.6021 17.4919 -0.25305 32.6021 17.4919 -0.25305
308 2 34.5086 17.4877 1.37132 34.5086 17.4877 1.37132
309 2 34.4978 17.4959 -1.89092 34.4978 17.4959 -1.89092
310 1 35.4531 19.1388 -0.258648 35.4531 19.1388 -0.258648
311 2 37.3624 19.1415 1.36235 37.3624 19.1415 1.36235
312 2 37.3458 19.1369 -1.89983 37.3458 19.1369 -1.89983
313 1 38.3052 17.493 -0.271487 38.3052 17.493 -0.271487
314 2 40.1902 17.5086 1.37899 40.1902 17.5086 1.37899
315 2 40.2227 17.4788 -1.88328 40.2227 17.4788 -1.88328
316 1 41.1563 19.1405 -0.258355 41.1563 19.1405 -0.258355
317 2 42.9891 19.1308 1.39198 42.9891 19.1308 1.39198
318 2 43.0802 19.1514 -1.80349 43.0802 19.1514 -1.80349
319 1 44.0763 17.4953 -0.185107 44.0763 17.4953 -0.185107
320 2 -6.04917 17.489 1.03698 68.057 17.489 1.03698
321 2 -5.19742 17.4881 -1.69215 68.9087 17.4881 -1.69215
322 1 -4.45859 19.1356 0.0329638 69.6476 19.1356 0.0329638
323 2 -2.55292 19.1441 1.64542 71.5532 19.1441 1.64542
324 2 -2.60223 19.1271 -1.63476 71.5039 19.1271 -1.63476
325 1 -1.62293 20.7822 -0.0151585 -1.62293 20.7822 -0.0151585
326 2 0.302376 20.7878 1.58752 0.302376 20.7878 1.58752
327 2 0.254407 20.7766 -1.67422 0.254407 20.7766 -1.67422
328 1 1.2294 22.4284 -0.0630584 1.2294 22.4284 -0.0630584
329 2 3.15642 22.4345 1.53779 3.15642 22.4345 1.53779
330 2 3.10507 22.4215 -1.72395 3.10507 22.4215 -1.72395
331 1 4.08127 20.7815 -0.10151 4.08127 20.7815 -0.10151
332 2 6.00038 20.7894 1.50865 6.00038 20.7894 1.50865
333 2 5.9648 20.7729 -1.75332 5.9648 20.7729 -1.75332
334 1 6.93361 22.4273 -0.141025 6.93361 22.4273 -0.141025
335 2 8.82994 22.4296 1.49658 8.82994 22.4296 1.49658
336 2 8.83993 22.4252 -1.76567 8.83993 22.4252 -1.76567
337 1 9.78485 20.7808 -0.129109 9.78485 20.7808 -0.129109
338 2 11.6745 20.7855 1.51555 11.6745 20.7855 1.51555
339 2 11.6972 20.7766 -1.74665 11.6972 20.7766 -1.74665
340 1 12.6366 22.4274 -0.113184 12.6366 22.4274 -0.113184
341 2 14.5395 22.437 1.51587 14.5395 22.437 1.51587
342 2 14.5358 22.4175 -1.74635 14.5358 22.4175 -1.74635
343 1 15.4883 20.7809 -0.106319 15.4883 20.7809 -0.106319
344 2 17.3984 20.7834 1.51429 17.3984 20.7834 1.51429
345 2 17.3805 20.7782 -1.74789 17.3805 20.7782 -1.74789
346 1 18.3405 22.4271 -0.125002 18.3405 22.4271 -0.125002
347 2 20.262 22.4296 1.48205 20.262 22.4296 1.48205
348 2 20.2215 22.4253 -1.77991 20.2215 22.4253 -1.77991
349 1 21.193 20.7816 -0.158358 21.193 20.7816 -0.158358
350 2 23.1105 20.7729 1.45385 23.1105 20.7729 1.45385
351 2 23.0784 20.7926 -1.80812 23.0784 20.7926 -1.80812
352 1 24.0453 22.4292 -0.176709 24.0453 22.4292 -0.176709
353 2 25.9539 22.4183 1.44625 25.9539 22.4183 1.44625
354 2 25.9397 22.4422 -1.8158 25.9397 22.4422 -1.8158
355 1 26.898 20.7841 -0.201022 26.898 20.7841 -0.201022
356 2 28.8075 20.7673 1.42062 28.8075 20.7673 1.42062
357 2 28.7913 20.8019 -1.84134 28.7913 20.8019 -1.84134
358 1 29.7497 22.4313 -0.197486 29.7497 22.4313 -0.197486
359 2 31.6517 22.412 1.43261 31.6517 22.412 1.43261
360 2 31.65 22.4511 -1.82938 31.65 22.4511 -1.82938
361 1 32.6015 20.7851 -0.21906 32.6015 20.7851 -0.21906
362 2 34.5178 20.7738 1.39356 34.5178 20.7738 1.39356
363 2 34.4871 20.7966 -1.86845 34.4871 20.7966 -1.86845
364 1 35.4523 22.4322 -0.23485 35.4523 22.4322 -0.23485
365 2 37.369 22.42 1.37717 37.369 22.42 1.37717
366 2 37.3373 22.4452 -1.88476 37.3373 22.4452 -1.88476
367 1 38.3042 20.7862 -0.27604 38.3042 20.7862 -0.27604
368 2 40.1937 20.7834 1.36915 40.1937 20.7834 1.36915
369 2 40.2176 20.7899 -1.89324 40.2176 20.7899 -1.89324
370 1 41.1551 22.4335 -0.251502 41.1551 22.4335 -0.251502
371 2 42.987 22.4332 1.40085 42.987 22.4332 1.40085
372 2 43.0798 22.4344 -1.79469 43.0798 22.4344 -1.79469
373 1 44.0745 20.7877 -0.167516 44.0745 20.7877 -0.167516
374 2 -6.05598 20.7878 1.0152 68.0502 20.7878 1.0152
375 2 -5.18166 20.7735 -1.70954 68.9245 20.7735 -1.70954
376 1 -4.45797 22.429 0.0150457 69.6482 22.429 0.0150457
377 2 -2.55676 22.4309 1.63221 71.5494 22.4309 1.63221
378 2 -2.59789 22.427 -1.6481 71.5083 22.427 -1.6481
379 1 -1.6224 24.0753 -0.0192722 -1.6224 24.0753 -0.0192722
380 2 0.307558 24.0818 1.57772 0.307558 24.0818 1.57772
381 2 0.249979 24.068 -1.68388 0.249979 24.068 -1.68388
382 1 1.22992 25.7209 -0.0767531 1.22992 25.7209 -0.0767531
383 2 3.153 25.7209 1.5284 3.153 25.7209 1.5284
384 2 3.10905 25.7198 -1.73355 3.10905 25.7198 -1.73355
385 1 4.08175 24.0741 -0.114879 4.08175 24.0741 -0.114879
386 2 5.99959 24.0762 1.49689 5.99959 24.0762 1.49689
387 2 5.96656 24.0712 -1.76518 5.96656 24.0712 -1.76518
388 1 6.93379 25.72 -0.146034 6.93379 25.72 -0.146034
389 2 8.83159 25.7262 1.48957 8.83159 25.7262 1.48957
390 2 8.83864 25.7139 -1.77268 8.83864 25.7139 -1.77268
391 1 9.78557 24.0738 -0.133466 9.78557 24.0738 -0.133466
392 2 11.6834 24.0883 1.50166 11.6834 24.0883 1.50166
393 2 11.6898 24.0597 -1.76051 11.6898 24.0597 -1.76051
394 1 12.6372 25.7203 -0.141809 12.6372 25.7203 -0.141809
395 2 14.5396 25.7375 1.4876 14.5396 25.7375 1.4876
396 2 14.5368 25.7027 -1.77447 14.5368 25.7027 -1.77447
397 1 15.4885 24.0735 -0.126281 15.4885 24.0735 -0.126281
398 2 17.3946 24.0829 1.49904 17.3946 24.0829 1.49904
399 2 17.3846 24.0636 -1.76311 17.3846 24.0636 -1.76311
400 1 18.3401 25.7198 -0.145234 18.3401 25.7198 -0.145234
401 2 20.2537 25.7237 1.47109 20.2537 25.7237 1.47109
402 2 20.229 25.716 -1.79101 20.229 25.716 -1.79101
403 1 21.1925 24.0739 -0.163071 21.1925 24.0739 -0.163071
404 2 23.102 24.075 1.45873 23.102 24.075 1.45873
405 2 23.086 24.075 -1.80343 23.086 24.075 -1.80343
406 1 24.0447 25.7215 -0.177135 24.0447 25.7215 -0.177135
407 2 25.9407 25.7128 1.46062 25.9407 25.7128 1.46062
408 2 25.9517 25.7328 -1.80151 25.9517 25.7328 -1.80151
409 1 26.8974 24.0768 -0.177022 26.8974 24.0768 -0.177022
410 2 28.7993 24.0581 1.45342 28.7993 24.0581 1.45342
411 2 28.7982 24.0969 -1.80857 28.7982 24.0969 -1.80857
412 1 29.7491 25.724 -0.158116 29.7491 25.724 -0.158116
413 2 31.6524 25.7078 1.47054 31.6524 25.7078 1.47054
414 2 31.6481 25.7414 -1.79156 31.6481 25.7414 -1.79156
415 1 32.6009 24.0782 -0.179108 32.6009 24.0782 -0.179108
416 2 34.5226 24.0605 1.42699 34.5226 24.0605 1.42699
417 2 34.4811 24.0969 -1.83478 34.4811 24.0969 -1.83478
418 1 35.4518 25.7255 -0.197808 35.4518 25.7255 -0.197808
419 2 37.3694 25.7035 1.41322 37.3694 25.7035 1.41322
420 2 37.336 25.7485 -1.84852 37.336 25.7485 -1.84852
421 1 38.3033 24.0796 -0.250357 38.3033 24.0796 -0.250357
422 2 40.1959 24.0639 1.39104 40.1959 24.0639 1.39104
423 2 40.2133 24.096 -1.87126 40.2133 24.096 -1.87126
424 1 41.1541 25.7265 -0.218299 41.1541 25.7265 -0.218299
425 2 43.004 25.7296 1.41341 43.004 25.7296 1.41341
426 2 43.0612 25.7234 -1.78302 43.0612 25.7234 -1.78302
427 1 44.0736 24.0803 -0.165168 44.0736 24.0803 -0.165168
428 2 -6.04934 24.0765 1.015 68.0568 24.0765 1.015
429 2 -5.18625 24.0751 -1.71626 68.9199 24.0751 -1.71626
430 1 -4.45726 25.7222 0.0139105 69.6489 25.7222 0.0139105
431 2 -2.55618 25.7211 1.63136 71.55 25.7211 1.63136
432 2 -2.59687 25.7231 -1.64896 71.5093 25.7231 -1.64896
433 1 -1.62072 27.3679 -0.0169681 -1.62072 27.3679 -0.0169681
434 2 0.312492 27.3649 1.57585 0.312492 27.3649 1.57585
435 2 0.247773 27.3703 -1.68574 0.247773 27.3703 -1.68574
436 1 1.23076 29.0138 -0.0708455 1.23076 29.0138 -0.0708455
437 2 3.15883 29.0154 1.52863 3.15883 29.0154 1.52863
438 2 3.10436 29.011 -1.73319 3.10436 29.011 -1.73319
439 1 4.08181 27.3666 -0.115927 4.08181 27.3666 -0.115927
440 2 5.99928 27.3646 1.49614 5.99928 27.3646 1.49614
441 2 5.9665 27.3677 -1.76597 5.9665 27.3677 -1.76597
442 1 6.93351 29.0125 -0.142667 6.93351 29.0125 -0.142667
443 2 8.84201 29.0223 1.48019 8.84201 29.0223 1.48019
444 2 8.82719 29.0027 -1.782 8.82719 29.0027 -1.782
445 1 9.78557 27.3665 -0.145481 9.78557 27.3665 -0.145481
446 2 11.6911 27.3781 1.48049 11.6911 27.3781 1.48049
447 2 11.6823 27.3555 -1.78169 11.6823 27.3555 -1.78169
448 1 12.6367 29.0135 -0.164803 12.6367 29.0135 -0.164803
449 2 14.5424 29.0242 1.46076 14.5424 29.0242 1.46076
450 2 14.533 29.0027 -1.80138 14.533 29.0027 -1.80138
451 1 15.4883 27.3668 -0.161954 15.4883 27.3668 -0.161954
452 2 17.3874 27.3789 1.47158 17.3874 27.3789 1.47158
453 2 17.3913 27.3538 -1.79054 17.3913 27.3538 -1.79054
454 1 18.3395 29.0131 -0.17148 18.3395 29.0131 -0.17148
455 2 20.2431 29.0166 1.45656 20.2431 29.0166 1.45656
456 2 20.2384 29.0087 -1.80562 20.2384 29.0087 -1.80562
457 1 21.1919 27.3665 -0.171509 21.1919 27.3665 -0.171509
458 2 23.0946 27.3634 1.45828 23.0946 27.3634 1.45828
459 2 23.0921 27.3711 -1.80393 23.0921 27.3711 -1.80393
460 1 24.0441 29.0137 -0.169713 24.0441 29.0137 -0.169713
461 2 25.9355 29.0095 1.4735 25.9355 29.0095 1.4735
462 2 25.9557 29.0205 -1.78862 25.9557 29.0205 -1.78862
463 1 26.8969 27.3692 -0.157072 26.8969 27.3692 -0.157072
464 2 28.7928 27.3593 1.48052 28.7928 27.3593 1.48052
465 2 28.8037 27.3809 -1.78164 28.8037 27.3809 -1.78164
466 1 29.7486 29.0167 -0.136439 29.7486 29.0167 -0.136439
467 2 31.6478 29.0057 1.49695 31.6478 29.0057 1.49695
468 2 31.6516 29.0291 -1.76526 31.6516 29.0291 -1.76526
469 1 32.6005 27.3712 -0.14492 32.6005 27.3712 -0.14492
470 2 34.5201 27.3526 1.46364 34.5201 27.3526 1.46364
471 2 34.4826 27.391 -1.79821 34.4826 27.391 -1.79821
472 1 35.4516 29.0183 -0.158954 35.4516 29.0183 -0.158954
473 2 37.3662 28.9975 1.45597 37.3662 28.9975 1.45597
474 2 37.3388 29.0402 -1.80594 37.3388 29.0402 -1.80594
475 1 38.3029 27.3726 -0.204516 38.3029 27.3726 -0.204516
476 2 40.1992 27.3511 1.43274 40.1992 27.3511 1.43274
477 2 40.209 27.3948 -1.82957 40.209 27.3948 -1.82957
478 1 41.154 29.0191 -0.172467 41.154 29.0191 -0.172467
479 2 43.0341 29.0285 1.42464 43.0341 29.0285 1.42464
480 2 43.0312 29.0095 -1.77226 43.0312 29.0095 -1.77226
481 1 44.0736 27.3727 -0.16726 44.0736 27.3727 -0.16726
482 2 -6.05159 27.3702 1.00867 68.0546 27.3702 1.00867
483 2 -5.18288 27.3692 -1.7177 68.9233 27.3692 -1.7177
484 1 -4.45448 29.0145 0.0146647 69.6517 29.0145 0.0146647
485 2 -2.5529 29.0166 1.63136 71.5533 29.0166 1.63136
486 2 -2.59577 29.0126 -1.64934 71.5104 29.0126 -1.64934
487 1 -1.6203 30.6608 -0.0203087 -1.6203 30.6608 -0.0203087
488 2 0.313877 30.6679 1.57158 0.313877 30.6679 1.57158
489 2 0.247131 30.6529 -1.68997 0.247131 30.6529 -1.68997
490 1 1.23053 32.3066 -0.086832 1.23053 32.3066 -0.086832
491 2 3.15382 32.3117 1.51825 3.15382 32.3117 1.51825
492 2 3.10918 32.3005 -1.7437 3.10918 32.3005 -1.7437
493 1 4.08205 30.6595 -0.120227 4.08205 30.6595 -0.120227
494 2 6.00051 30.667 1.49044 6.00051 30.667 1.49044
495 2 5.96559 30.6509 -1.77161 5.96559 30.6509 -1.77161
496 1 6.933 32.3056 -0.158853 6.933 32.3056 -0.158853
497 2 8.84102 32.3118 1.46401 8.84102 32.3118 1.46401
498 2 8.82694 32.2994 -1.79822 8.82694 32.2994 -1.79822
499 1 9.78463 30.6592 -0.165146 9.78463 30.6592 -0.165146
500 2 11.6909 30.6693 1.4597 11.6909 30.6693 1.4597
501 2 11.6804 30.6501 -1.8025 11.6804 30.6501 -1.8025
502 1 12.6355 32.3066 -0.184523 12.6355 32.3066 -0.184523
503 2 14.5318 32.2988 1.45204 14.5318 32.2988 1.45204
504 2 14.5414 32.3148 -1.81013 14.5414 32.3148 -1.81013
505 1 15.4876 30.6602 -0.184235 15.4876 30.6602 -0.184235
506 2 17.3807 30.6587 1.45619 17.3807 30.6587 1.45619
507 2 17.3968 30.661 -1.80597 17.3968 30.661 -1.80597
508 1 18.3391 32.3064 -0.169078 18.3391 32.3064 -0.169078
509 2 20.2391 32.2933 1.46297 20.2391 32.2933 1.46297
510 2 20.2416 32.3182 -1.7991 20.2416 32.3182 -1.7991
511 1 21.1913 30.6593 -0.180056 21.1913 30.6593 -0.180056
512 2 23.0845 30.6554 1.46044 23.0845 30.6554 1.46044
513 2 23.1009 30.6635 -1.8017 23.1009 30.6635 -1.8017
514 1 24.0434 32.3061 -0.161662 24.0434 32.3061 -0.161662
515 2 25.9318 32.3 1.4847 25.9318 32.3 1.4847
516 2 25.9579 32.3147 -1.77734 25.9579 32.3147 -1.77734
517 1 26.8962 30.6615 -0.146049 26.8962 30.6615 -0.146049
518 2 28.7892 30.6574 1.4949 28.7892 30.6574 1.4949
519 2 28.8059 30.668 -1.76728 28.8059 30.668 -1.76728
520 1 29.7478 32.3094 -0.125812 29.7478 32.3094 -0.125812
521 2 31.6449 32.3071 1.51019 31.6449 32.3071 1.51019
522 2 31.6531 32.3129 -1.75206 31.6531 32.3129 -1.75206
523 1 32.6 30.6639 -0.121368 32.6 30.6639 -0.121368
524 2 34.5151 30.6517 1.49305 34.5151 30.6517 1.49305
525 2 34.487 30.6773 -1.76903 34.487 30.6773 -1.76903
526 1 35.4515 32.311 -0.133391 35.4515 32.311 -0.133391
527 2 37.3641 32.3037 1.48431 37.3641 32.3037 1.48431
528 2 37.3409 32.3191 -1.77787 37.3409 32.3191 -1.77787
529 1 38.303 30.6652 -0.161111 38.303 30.6652 -0.161111
530 2 40.2052 30.656 1.46948 40.2052 30.656 1.46948
531 2 40.2032 30.6746 -1.79311 40.2032 30.6746 -1.79311
532 1 41.1548 32.3113 -0.152303 41.1548 32.3113 -0.152303
533 2 43.0531 32.315 1.42434 43.0531 32.315 1.42434
534 2 43.014 32.3073 -1.77229 43.014 32.3073 -1.77229
535 1 44.0742 30.6648 -0.182845 44.0742 30.6648 -0.182845
536 2 -6.04235 30.6645 1.01419 68.0638 30.6645 1.01419
537 2 -5.19351 30.6508 -1.72031 68.9126 30.6508 -1.72031