ITEM: TIMESTEP
2627000
ITEM: NUMBER OF ATOMS
810
ITEM: BOX BOUNDS pp pp pp
-5.8741720291637662e+00 5.8891777029162832e+01
8.1394622342039402e-01 5.0202268776579182e+01
-1.0000000000000000e+01 1.0000000000000000e+01
ITEM: ATOMS id type x y z xu yu zu
1 1 -5.57637 1.0296 -0.135126 -5.57637 1.0296 -0.135126
2 2 -3.16103 1.03012 1.47372 -3.16103 1.03012 1.47372
3 2 -3.15524 1.03003 -1.73446 -3.15524 1.03003 -1.73446
4 1 -1.97787 2.67635 -0.128405 -1.97787 2.67635 -0.128405
5 2 0.4399 2.67388 1.47721 0.4399 2.67388 1.47721
6 2 0.441549 2.67954 -1.73097 0.441549 2.67954 -1.73097
7 1 1.62077 1.03044 -0.129281 1.62077 1.03044 -0.129281
8 2 4.04189 1.02584 1.47075 4.04189 1.02584 1.47075
9 2 4.03617 1.03518 -1.73743 4.03617 1.03518 -1.73743
10 1 5.21933 2.67668 -0.130712 5.21933 2.67668 -0.130712
11 2 7.64103 2.67074 1.46819 7.64103 2.67074 1.46819
12 2 7.63401 2.68236 -1.73996 7.63401 2.68236 -1.73996
13 1 8.81747 1.03012 -0.144525 8.81747 1.03012 -0.144525
14 2 11.2413 1.02307 1.45186 11.2413 1.02307 1.45186
15 2 11.231 1.03637 -1.75628 11.231 1.03637 -1.75628
16 1 12.4166 2.67581 -0.149195 12.4166 2.67581 -0.149195
17 2 14.8406 2.66839 1.44685 14.8406 2.66839 1.44685
18 2 14.8299 2.68232 -1.76129 14.8299 2.68232 -1.76129
19 1 16.0151 1.02885 -0.168436 16.0151 1.02885 -0.168436
20 2 18.4402 1.02106 1.42581 18.4402 1.02106 1.42581
21 2 18.4273 1.03565 -1.7823 18.4273 1.03565 -1.7823
22 1 19.6142 2.67446 -0.175516 19.6142 2.67446 -0.175516
23 2 22.0386 2.66547 1.41954 22.0386 2.66547 1.41954
24 2 22.0268 2.6827 -1.78855 22.0268 2.6827 -1.78855
25 1 23.2124 1.02753 -0.197656 23.2124 1.02753 -0.197656
26 2 25.635 1.02126 1.39872 25.635 1.02126 1.39872
27 2 25.6253 1.03302 -1.80937 25.6253 1.03302 -1.80937
28 1 26.8106 2.67327 -0.202838 26.8106 2.67327 -0.202838
29 2 29.233 2.667 1.39323 29.233 2.667 1.39323
30 2 29.2228 2.67899 -1.81489 29.2228 2.67899 -1.81489
31 1 30.4075 1.02646 -0.220717 30.4075 1.02646 -0.220717
32 2 32.8274 1.0232 1.37913 32.8274 1.0232 1.37913
33 2 32.8223 1.02944 -1.82902 32.8223 1.02944 -1.82902
34 1 34.0053 2.67254 -0.223432 34.0053 2.67254 -0.223432
35 2 36.4221 2.66829 1.38088 36.4221 2.66829 1.38088
36 2 36.4232 2.67693 -1.82727 36.4232 2.67693 -1.82727
37 1 37.6024 1.02614 -0.227085 37.6024 1.02614 -0.227085
38 2 40.0155 1.02544 1.3827 40.0155 1.02544 1.3827
39 2 40.0239 1.02717 -1.82545 40.0239 1.02717 -1.82545
40 1 41.2 2.67264 -0.217238 41.2 2.67264 -0.217238
41 2 43.6112 2.67231 1.39582 43.6112 2.67231 1.39582
42 2 43.6237 2.67369 -1.81231 43.6237 2.67369 -1.81231
43 1 44.7974 1.02666 -0.204282 44.7974 1.02666 -0.204282
44 2 47.2063 1.02868 1.41268 47.2063 1.02868 1.41268
45 2 47.2237 1.02557 -1.79544 47.2237 1.02557 -1.79544
46 1 48.3951 2.67355 -0.186507 48.3951 2.67355 -0.186507
47 2 50.8041 2.67556 1.43049 50.8041 2.67556 1.43049
48 2 50.8213 2.67275 -1.77763 50.8213 2.67275 -1.77763
49 1 51.9928 1.02801 -0.165841 51.9928 1.02801 -0.165841
50 2 54.4037 1.02927 1.44956 54.4037 1.02927 1.44956
51 2 54.4184 1.02813 -1.7586 54.4184 1.02813 -1.7586
52 1 55.5911 2.67511 -0.149765 55.5911 2.67511 -0.149765
53 2 58.0033 2.67666 1.46375 58.0033 2.67666 1.46375
54 2 58.0156 2.67486 -1.74441 58.0156 2.67486 -1.74441
55 1 -5.57615 4.32204 -0.136876 -5.57615 4.32204 -0.136876
56 2 -3.16137 4.32272 1.47304 -3.16137 4.32272 1.47304
57 2 -3.15422 4.32246 -1.73516 -3.15422 4.32246 -1.73516
58 1 -1.97724 5.96876 -0.128618 -1.97724 5.96876 -0.128618
59 2 0.43893 5.96853 1.47955 0.43893 5.96853 1.47955
60 2 0.44392 5.96991 -1.72864 0.44392 5.96991 -1.72864
61 1 1.62119 4.32288 -0.123592 1.62119 4.32288 -0.123592
62 2 4.04091 4.31885 1.4788 4.04091 4.31885 1.4788
63 2 4.03808 4.32726 -1.72939 4.03808 4.32726 -1.72939
64 1 5.22011 5.9691 -0.122137 5.22011 5.9691 -0.122137
65 2 7.64096 5.96414 1.4785 7.64096 5.96414 1.4785
66 2 7.63584 5.974 -1.72968 7.63584 5.974 -1.72968
67 1 8.81807 4.32259 -0.132583 8.81807 4.32259 -0.132583
68 2 11.2409 4.31522 1.46531 11.2409 4.31522 1.46531
69 2 11.2326 4.32942 -1.74285 11.2326 4.32942 -1.74285
70 1 12.4175 5.96829 -0.134649 12.4175 5.96829 -0.134649
71 2 14.8416 5.96071 1.46154 14.8416 5.96071 1.46154
72 2 14.8308 5.9752 -1.74661 14.8308 5.9752 -1.74661
73 1 16.0158 4.32139 -0.153975 16.0158 4.32139 -0.153975
74 2 18.4402 4.31245 1.4415 18.4402 4.31245 1.4415
75 2 18.4289 4.3296 -1.76661 18.4289 4.3296 -1.76661
76 1 19.6153 5.96704 -0.157997 19.6153 5.96704 -0.157997
77 2 22.0393 5.9576 1.4376 22.0393 5.9576 1.4376
78 2 22.0283 5.97594 -1.77048 22.0283 5.97594 -1.77048
79 1 23.2133 4.32015 -0.180069 23.2133 4.32015 -0.180069
80 2 25.6376 4.31212 1.41403 25.6376 4.31212 1.41403
81 2 25.6245 4.32762 -1.79403 25.6245 4.32762 -1.79403
82 1 26.8118 5.96594 -0.186767 26.8118 5.96594 -0.186767
83 2 29.2341 5.9563 1.40914 29.2341 5.9563 1.40914
84 2 29.2238 5.97519 -1.79894 29.2238 5.97519 -1.79894
85 1 30.4084 4.31914 -0.20834 30.4084 4.31914 -0.20834
86 2 32.8287 4.31122 1.39076 32.8287 4.31122 1.39076
87 2 32.8227 4.32695 -1.81736 32.8227 4.32695 -1.81736
88 1 34.0063 5.96525 -0.207348 34.0063 5.96525 -0.207348
89 2 36.4253 5.95875 1.39385 36.4253 5.95875 1.39385
90 2 36.422 5.97206 -1.81427 36.422 5.97206 -1.81427
91 1 37.6031 4.31886 -0.218192 37.6031 4.31886 -0.218192
92 2 40.0182 4.31562 1.38867 40.0182 4.31562 1.38867
93 2 40.0225 4.32258 -1.81947 40.0225 4.32258 -1.81947
94 1 41.2009 5.96539 -0.21011 41.2009 5.96539 -0.21011
95 2 43.6137 5.96362 1.40014 43.6137 5.96362 1.40014
96 2 43.6227 5.96798 -1.80798 43.6227 5.96798 -1.80798
97 1 44.7978 4.31934 -0.202851 44.7978 4.31934 -0.202851
98 2 47.2083 4.32058 1.41162 47.2083 4.32058 1.41162
99 2 47.2223 4.31914 -1.79652 47.2223 4.31914 -1.79652
100 1 48.3957 5.96617 -0.187903 48.3957 5.96617 -0.187903
101 2 50.8052 5.9684 1.4279 50.8052 5.9684 1.4279
102 2 50.8211 5.96517 -1.78023 50.8211 5.96517 -1.78023
103 1 51.993 4.32053 -0.168707 51.993 4.32053 -0.168707
104 2 54.4033 4.3226 1.44726 54.4033 4.3226 1.44726
105 2 54.4189 4.31992 -1.76091 54.4189 4.31992 -1.76091
106 1 55.5915 5.96755 -0.152601 55.5915 5.96755 -0.152601
107 2 58.004 5.97046 1.46072 58.004 5.97046 1.46072
108 2 58.0159 5.96604 -1.74745 58.0159 5.96604 -1.74745
109 1 -5.57536 7.61442 -0.141267 -5.57536 7.61442 -0.141267
110 2 -3.16194 7.61632 1.47056 -3.16194 7.61632 1.47056
111 2 -3.15189 7.61378 -1.73763 -3.15189 7.61378 -1.73763
112 1 -1.97609 9.26113 -0.131214 -1.97609 9.26113 -0.131214
113 2 0.43908 9.26253 1.47857 0.43908 9.26253 1.47857
114 2 0.44621 9.26078 -1.72963 0.44621 9.26078 -1.72963
115 1 1.62218 7.61527 -0.122084 1.62218 7.61527 -0.122084
116 2 4.03965 7.61322 1.48374 4.03965 7.61322 1.48374
117 2 4.04143 7.61782 -1.72447 4.04143 7.61782 -1.72447
118 1 5.2214 9.26147 -0.117518 5.2214 9.26147 -0.117518
119 2 7.64075 9.25857 1.48547 7.64075 9.25857 1.48547
120 2 7.63865 9.26443 -1.72273 7.63865 9.26443 -1.72273
121 1 8.81921 7.615 -0.122444 8.81921 7.615 -0.122444
122 2 11.2413 7.61012 1.47687 11.2413 7.61012 1.47687
123 2 11.2346 7.61955 -1.73133 11.2346 7.61955 -1.73133
124 1 12.4188 9.26073 -0.124841 12.4188 9.26073 -0.124841
125 2 14.8414 9.25467 1.47378 14.8414 9.25467 1.47378
126 2 14.8337 9.2663 -1.73441 14.8337 9.2663 -1.73441
127 1 16.017 7.61391 -0.139004 16.017 7.61391 -0.139004
128 2 18.4402 7.60487 1.4584 18.4402 7.60487 1.4584
129 2 18.4313 7.62242 -1.74973 18.4313 7.62242 -1.74973
130 1 19.6167 9.25961 -0.140008 19.6167 9.25961 -0.140008
131 2 22.0409 9.25074 1.45599 22.0409 9.25074 1.45599
132 2 22.0296 9.26813 -1.75211 22.0296 9.26813 -1.75211
133 1 23.2146 7.61279 -0.161154 23.2146 7.61279 -0.161154
134 2 25.6388 7.60161 1.4332 25.6388 7.60161 1.4332
135 2 25.6259 7.62355 -1.77483 25.6259 7.62355 -1.77483
136 1 26.8131 9.25862 -0.164305 26.8131 9.25862 -0.164305
137 2 29.2367 9.24807 1.43037 29.2367 9.24807 1.43037
138 2 29.224 9.26886 -1.7777 29.224 9.26886 -1.7777
139 1 30.4097 7.61184 -0.188889 30.4097 7.61184 -0.188889
140 2 32.8308 7.60257 1.40903 32.8308 7.60257 1.40903
141 2 32.8231 7.62112 -1.79906 32.8231 7.62112 -1.79906
142 1 34.0077 9.25798 -0.188217 34.0077 9.25798 -0.188217
143 2 36.4279 9.24888 1.41119 36.4279 9.24888 1.41119
144 2 36.422 9.26752 -1.7969 36.422 9.26752 -1.7969
145 1 37.6043 7.61162 -0.204432 37.6043 7.61162 -0.204432
146 2 40.0206 7.60509 1.40029 40.0206 7.60509 1.40029
147 2 40.0223 7.61879 -1.80783 40.0223 7.61879 -1.80783
148 1 41.2021 9.25815 -0.196041 41.2021 9.25815 -0.196041
149 2 43.618 9.25323 1.41011 43.618 9.25323 1.41011
150 2 43.621 9.26396 -1.79802 43.621 9.26396 -1.79802
151 1 44.7988 7.61206 -0.198224 44.7988 7.61206 -0.198224
152 2 47.2104 7.61044 1.41408 47.2104 7.61044 1.41408
153 2 47.222 7.61475 -1.79406 47.222 7.61475 -1.79406
154 1 48.3968 9.25881 -0.183429 48.3968 9.25881 -0.183429
155 2 50.8084 9.25812 1.4292 50.8084 9.25812 1.4292
156 2 50.82 9.26074 -1.77895 50.82 9.26074 -1.77895
157 1 51.9937 7.61306 -0.171899 51.9937 7.61306 -0.171899
158 2 54.4039 7.61559 1.44395 54.4039 7.61559 1.44395
159 2 54.4198 7.61202 -1.76421 54.4198 7.61202 -1.76421
160 1 55.5926 9.25997 -0.156154 55.5926 9.25997 -0.156154
161 2 58.0053 9.26255 1.45672 58.0053 9.26255 1.45672
162 2 58.0168 9.2589 -1.75145 58.0168 9.2589 -1.75145
163 1 -5.57396 10.9068 -0.145034 -5.57396 10.9068 -0.145034
164 2 -3.16057 10.9099 1.46676 -3.16057 10.9099 1.46676
165 2 -3.15051 10.905 -1.74143 -3.15051 10.905 -1.74143
166 1 -1.97455 12.5535 -0.136156 -1.97455 12.5535 -0.136156
167 2 0.439679 12.5561 1.47486 0.439679 12.5561 1.47486
168 2 0.448586 12.5519 -1.73333 0.448586 12.5519 -1.73333
169 1 1.62358 10.9076 -0.123856 1.62358 10.9076 -0.123856
170 2 4.03945 10.9084 1.48437 4.03945 10.9084 1.48437
171 2 4.04448 10.9074 -1.72386 4.04448 10.9074 -1.72386
172 1 5.22286 12.5538 -0.118482 5.22286 12.5538 -0.118482
173 2 7.64048 12.5542 1.4869 7.64048 12.5542 1.4869
174 2 7.64174 12.5535 -1.72131 7.64174 12.5535 -1.72131
175 1 8.82061 10.9074 -0.116535 8.82061 10.9074 -0.116535
176 2 11.2421 10.9047 1.48389 11.2421 10.9047 1.48389
177 2 11.2365 10.9098 -1.72433 11.2365 10.9098 -1.72433
178 1 12.4202 12.5532 -0.119597 12.4202 12.5532 -0.119597
179 2 14.8407 12.5493 1.48196 14.8407 12.5493 1.48196
180 2 14.8372 12.5566 -1.72626 14.8372 12.5566 -1.72626
181 1 16.0185 10.9064 -0.127176 16.0185 10.9064 -0.127176
182 2 18.4406 10.9011 1.47194 18.4406 10.9011 1.47194
183 2 18.4337 10.9113 -1.73624 18.4337 10.9113 -1.73624
184 1 19.618 12.5522 -0.12943 19.618 12.5522 -0.12943
185 2 22.0401 12.5462 1.46947 22.0401 12.5462 1.46947
186 2 22.033 12.5579 -1.73868 22.033 12.5579 -1.73868
187 1 23.216 10.9054 -0.143265 23.216 10.9054 -0.143265
188 2 25.6395 10.8969 1.45253 25.6395 10.8969 1.45253
189 2 25.6281 10.9137 -1.75554 25.6281 10.9137 -1.75554
190 1 26.8145 12.5513 -0.147062 26.8145 12.5513 -0.147062
191 2 29.2374 12.5432 1.44874 29.2374 12.5432 1.44874
192 2 29.2262 12.5591 -1.75937 29.2262 12.5591 -1.75937
193 1 30.4111 10.9045 -0.167548 30.4111 10.9045 -0.167548
194 2 32.8338 10.8961 1.42843 32.8338 10.8961 1.42843
195 2 32.8229 10.913 -1.77967 32.8229 10.913 -1.77967
196 1 34.0091 12.5507 -0.170721 34.0091 12.5507 -0.170721
197 2 36.4295 12.5436 1.42846 36.4295 12.5436 1.42846
198 2 36.4232 12.5583 -1.77966 36.4232 12.5583 -1.77966
199 1 37.6057 10.9044 -0.185383 37.6057 10.9044 -0.185383
200 2 40.0245 10.8978 1.4162 40.0245 10.8978 1.4162
201 2 40.0212 10.9116 -1.79193 40.0212 10.9116 -1.79193
202 1 41.2036 12.5509 -0.181825 41.2036 12.5509 -0.181825
203 2 43.6213 12.547 1.42151 43.6213 12.547 1.42151
204 2 43.6205 12.5557 -1.78663 43.6205 12.5557 -1.78663
205 1 44.8002 10.9048 -0.187162 44.8002 10.9048 -0.187162
206 2 47.2149 10.9033 1.42072 47.2149 10.9033 1.42072
207 2 47.2201 10.9073 -1.78744 47.2201 10.9073 -1.78744
208 1 48.3983 12.5514 -0.179176 48.3983 12.5514 -0.179176
209 2 50.8115 12.5528 1.43099 50.8115 12.5528 1.43099
210 2 50.8199 12.5513 -1.77717 50.8199 12.5513 -1.77717
211 1 51.995 10.9056 -0.169281 51.995 10.9056 -0.169281
212 2 54.4083 10.9082 1.44242 54.4083 10.9082 1.44242
213 2 54.4181 10.9044 -1.76577 54.4181 10.9044 -1.76577
214 1 55.5942 12.5524 -0.159844 55.5942 12.5524 -0.159844
215 2 58.0075 12.5564 1.45198 58.0075 12.5564 1.45198
216 2 58.0178 12.5499 -1.75619 58.0178 12.5499 -1.75619
217 1 -5.57219 14.1992 -0.151564 -5.57219 14.1992 -0.151564
218 2 -3.15904 14.2036 1.46035 -3.15904 14.2036 1.46035
219 2 -3.14875 14.1962 -1.74784 -3.14875 14.1962 -1.74784
220 1 -1.97295 15.8459 -0.143746 -1.97295 15.8459 -0.143746
221 2 0.440963 15.8514 1.46741 0.440963 15.8514 1.46741
222 2 0.450205 15.8414 -1.74076 0.450205 15.8414 -1.74076
223 1 1.62507 14.2 -0.128181 1.62507 14.2 -0.128181
224 2 4.0407 14.2035 1.48039 4.0407 14.2035 1.48039
225 2 4.04605 14.197 -1.72783 4.04605 14.197 -1.72783
226 1 5.22413 15.8463 -0.125108 5.22413 15.8463 -0.125108
227 2 7.64037 15.8494 1.48224 7.64037 15.8494 1.48224
228 2 7.64419 15.843 -1.72596 7.64419 15.843 -1.72596
229 1 8.82193 14.1998 -0.117183 8.82193 14.1998 -0.117183
230 2 11.2411 14.198 1.48653 11.2411 14.198 1.48653
231 2 11.2401 14.2013 -1.72171 11.2401 14.2013 -1.72171
232 1 12.4213 15.8456 -0.116399 12.4213 15.8456 -0.116399
233 2 14.8414 15.8446 1.48614 14.8414 15.8446 1.48614
234 2 14.8387 15.8461 -1.72209 14.8387 15.8461 -1.72209
235 1 16.0197 14.1989 -0.119753 16.0197 14.1989 -0.119753
236 2 18.4412 14.1949 1.48052 18.4412 14.1949 1.48052
237 2 18.4356 14.2025 -1.72769 18.4356 14.2025 -1.72769
238 1 19.619 15.8447 -0.12177 19.619 15.8447 -0.12177
239 2 22.0405 15.8416 1.47814 22.0405 15.8416 1.47814
240 2 22.0344 15.8476 -1.73005 22.0344 15.8476 -1.73005
241 1 23.2172 14.1981 -0.131255 23.2172 14.1981 -0.131255
242 2 25.6394 14.1918 1.46647 25.6394 14.1918 1.46647
243 2 25.6306 14.204 -1.74165 25.6306 14.204 -1.74165
244 1 26.8155 15.844 -0.134626 26.8155 15.844 -0.134626
245 2 29.2379 15.8379 1.46243 29.2379 15.8379 1.46243
246 2 29.2279 15.8496 -1.74572 29.2279 15.8496 -1.74572
247 1 30.4124 14.1973 -0.151213 30.4124 14.1973 -0.151213
248 2 32.8348 14.189 1.4454 32.8348 14.189 1.4454
249 2 32.8247 14.2056 -1.76272 32.8247 14.2056 -1.76272
250 1 34.0103 15.8434 -0.153775 34.0103 15.8434 -0.153775
251 2 36.4325 15.838 1.44315 36.4325 15.838 1.44315
252 2 36.4227 15.8493 -1.765 36.4227 15.8493 -1.765
253 1 37.607 14.1971 -0.170226 37.607 14.1971 -0.170226
254 2 40.0269 14.1919 1.42978 40.0269 14.1919 1.42978
255 2 40.0216 14.203 -1.77836 40.0216 14.203 -1.77836
256 1 41.2049 15.8437 -0.17047 41.2049 15.8437 -0.17047
257 2 43.6242 15.8404 1.43076 43.6242 15.8404 1.43076
258 2 43.6205 15.8477 -1.7774 43.6205 15.8477 -1.7774
259 1 44.8017 14.1975 -0.178307 44.8017 14.1975 -0.178307
260 2 47.2185 14.1957 1.42658 47.2185 14.1957 1.42658
261 2 47.2197 14.2002 -1.78161 47.2197 14.2002 -1.78161
262 1 48.3999 15.844 -0.174669 48.3999 15.844 -0.174669
263 2 50.8164 15.8462 1.43094 50.8164 15.8462 1.43094
264 2 50.8185 15.8428 -1.77724 50.8185 15.8428 -1.77724
265 1 51.9967 14.1981 -0.170636 51.9967 14.1981 -0.170636
266 2 54.4113 14.2012 1.43896 54.4113 14.2012 1.43896
267 2 54.4187 14.1963 -1.76924 54.4187 14.1963 -1.76924
268 1 55.596 15.8448 -0.164874 55.596 15.8448 -0.164874
269 2 58.0104 15.8497 1.44523 58.0104 15.8497 1.44523
270 2 58.0184 15.8414 -1.76296 58.0184 15.8414 -1.76296
271 1 -5.57064 17.4917 -0.160149 -5.57064 17.4917 -0.160149
272 2 -3.15727 17.4978 1.45117 -3.15727 17.4978 1.45117
273 2 -3.14755 17.4868 -1.757 -3.14755 17.4868 -1.757
274 1 -1.97165 19.1384 -0.154965 -1.97165 19.1384 -0.154965
275 2 0.442186 19.1448 1.45605 0.442186 19.1448 1.45605
276 2 0.451351 19.1328 -1.7521 0.451351 19.1328 -1.7521
277 1 1.62639 17.4925 -0.138515 1.62639 17.4925 -0.138515
278 2 4.04056 17.4971 1.4716 4.04056 17.4971 1.4716
279 2 4.04844 17.4882 -1.7366 4.04844 17.4882 -1.7366
280 1 5.22504 19.1388 -0.134273 5.22504 19.1388 -0.134273
281 2 7.63991 19.1418 1.47476 7.63991 19.1418 1.47476
282 2 7.64618 19.1355 -1.73342 7.64618 19.1355 -1.73342
283 1 8.82288 17.4922 -0.123719 8.82288 17.4922 -0.123719
284 2 11.2396 17.4947 1.48355 11.2396 17.4947 1.48355
285 2 11.2435 17.4893 -1.72468 11.2435 17.4893 -1.72468
286 1 12.422 19.1381 -0.121947 12.422 19.1381 -0.121947
287 2 14.8401 19.1398 1.48335 14.8401 19.1398 1.48335
288 2 14.8413 19.1358 -1.72486 14.8413 19.1358 -1.72486
289 1 16.0206 17.4914 -0.118235 16.0206 17.4914 -0.118235
290 2 18.4406 17.4905 1.48407 18.4406 17.4905 1.48407
291 2 18.4377 17.4918 -1.72415 18.4377 17.4918 -1.72415
292 1 19.6195 19.1373 -0.120437 19.6195 19.1373 -0.120437
293 2 22.0398 19.1365 1.48105 22.0398 19.1365 1.48105
294 2 22.0359 19.1376 -1.72715 22.0359 19.1376 -1.72715
295 1 23.2178 17.4907 -0.125063 23.2178 17.4907 -0.125063
296 2 25.639 17.4878 1.47449 25.639 17.4878 1.47449
297 2 25.6324 17.493 -1.73367 25.6324 17.493 -1.73367
298 1 26.816 19.1366 -0.129285 26.816 19.1366 -0.129285
299 2 29.2373 19.1347 1.46936 29.2373 19.1347 1.46936
300 2 29.2295 19.138 -1.73883 29.2295 19.138 -1.73883
301 1 30.4133 17.4899 -0.139214 30.4133 17.4899 -0.139214
302 2 32.8356 17.4859 1.45791 32.8356 17.4859 1.45791
303 2 32.8258 17.4939 -1.75026 32.8258 17.4939 -1.75026
304 1 34.011 19.1361 -0.145595 34.011 19.1361 -0.145595
305 2 36.4332 19.1335 1.45167 36.4332 19.1335 1.45167
306 2 36.4237 19.1391 -1.7565 36.4237 19.1391 -1.7565
307 1 37.6081 17.4898 -0.158591 37.6081 17.4898 -0.158591
308 2 40.0291 17.4864 1.44002 40.0291 17.4864 1.44002
309 2 40.0217 17.4939 -1.76814 40.0217 17.4939 -1.76814
310 1 41.2059 19.1364 -0.162866 41.2059 19.1364 -0.162866
311 2 43.6266 19.1354 1.43661 43.6266 19.1354 1.43661
312 2 43.6203 19.1378 -1.77156 43.6203 19.1378 -1.77156
313 1 44.803 17.4902 -0.17086 44.803 17.4902 -0.17086
314 2 47.2219 17.4896 1.43122 47.2219 17.4896 1.43122
315 2 47.2193 17.4914 -1.77698 47.2193 17.4914 -1.77698
316 1 48.4013 19.1366 -0.172895 48.4013 19.1366 -0.172895
317 2 50.8205 19.1389 1.42905 50.8205 19.1389 1.42905
318 2 50.8176 19.135 -1.77915 50.8176 19.135 -1.77915
319 1 51.9984 17.4906 -0.173879 51.9984 17.4906 -0.173879
320 2 54.4143 17.4951 1.43342 54.4143 17.4951 1.43342
321 2 54.4189 17.4872 -1.77478 54.4189 17.4872 -1.77478
322 1 55.5975 19.1373 -0.172928 55.5975 19.1373 -0.172928
323 2 58.0122 19.1429 1.43622 58.0122 19.1429 1.43622
324 2 58.0193 19.1331 -1.77195 58.0193 19.1331 -1.77195
325 1 -5.56949 20.7842 -0.170303 -5.56949 20.7842 -0.170303
326 2 -3.15532 20.7911 1.43964 -3.15532 20.7911 1.43964
327 2 -3.14732 20.7784 -1.76851 -3.14732 20.7784 -1.76851
328 1 -1.97083 22.431 -0.167979 -1.97083 22.431 -0.167979
329 2 0.442145 22.4368 1.44376 0.442145 22.4368 1.44376
330 2 0.452821 22.4259 -1.76437 0.452821 22.4259 -1.76437
331 1 1.62733 20.785 -0.150817 1.62733 20.785 -0.150817
332 2 4.04042 20.7906 1.46063 4.04042 20.7906 1.46063
333 2 4.05013 20.7797 -1.74754 4.05013 20.7797 -1.74754
334 1 5.22562 22.4313 -0.14558 5.22562 22.4313 -0.14558
335 2 7.63905 22.4362 1.4653 7.63905 22.4362 1.4653
336 2 7.6481 22.4262 -1.74285 7.6481 22.4262 -1.74285
337 1 8.82348 20.7848 -0.130439 8.82348 20.7848 -0.130439
338 2 11.2403 20.7886 1.47668 11.2403 20.7886 1.47668
339 2 11.2438 20.7804 -1.73152 11.2438 20.7804 -1.73152
340 1 12.4224 22.4306 -0.130318 12.4224 22.4306 -0.130318
341 2 14.839 22.4337 1.47679 14.839 22.4337 1.47679
342 2 14.8428 22.4269 -1.7314 14.8428 22.4269 -1.7314
343 1 16.021 20.7839 -0.122414 16.021 20.7839 -0.122414
344 2 18.4393 20.7851 1.48214 18.4393 20.7851 1.48214
345 2 18.4395 20.7822 -1.72607 18.4395 20.7822 -1.72607
346 1 19.6195 22.4299 -0.12341 19.6195 22.4299 -0.12341
347 2 22.0393 22.4317 1.47898 22.0393 22.4317 1.47898
348 2 22.0364 22.4274 -1.72921 22.0364 22.4274 -1.72921
349 1 23.218 20.7832 -0.123939 23.218 20.7832 -0.123939
350 2 25.6388 20.7836 1.47619 25.6388 20.7836 1.47619
351 2 25.633 20.7822 -1.73198 25.633 20.7822 -1.73198
352 1 26.816 22.4291 -0.130719 26.816 22.4291 -0.130719
353 2 29.2369 22.431 1.46852 29.2369 22.431 1.46852
354 2 29.2301 22.4267 -1.73967 29.2301 22.4267 -1.73967
355 1 30.4136 20.7825 -0.135897 30.4136 20.7825 -0.135897
356 2 32.8357 20.7824 1.46176 32.8357 20.7824 1.46176
357 2 32.8266 20.7824 -1.74644 32.8266 20.7824 -1.74644
358 1 34.0113 22.4287 -0.145581 34.0113 22.4287 -0.145581
359 2 36.4323 22.429 1.45339 36.4323 22.429 1.45339
360 2 36.4253 22.4285 -1.75481 36.4253 22.4285 -1.75481
361 1 37.6087 20.7825 -0.152973 37.6087 20.7825 -0.152973
362 2 40.0302 20.7816 1.44522 40.0302 20.7816 1.44522
363 2 40.0221 20.7838 -1.76296 40.0221 20.7838 -1.76296
364 1 41.2064 22.4289 -0.160688 41.2064 22.4289 -0.160688
365 2 43.6281 22.4296 1.43776 43.6281 22.4296 1.43776
366 2 43.6205 22.4286 -1.77042 43.6205 22.4286 -1.77042
367 1 44.804 20.7827 -0.168515 44.804 20.7827 -0.168515
368 2 47.2246 20.7847 1.4314 47.2246 20.7847 1.4314
369 2 47.2191 20.7812 -1.7768 47.2191 20.7812 -1.7768
370 1 48.4024 22.4291 -0.176424 48.4024 22.4291 -0.176424
371 2 50.8215 22.431 1.42523 50.8215 22.431 1.42523
372 2 50.8187 22.4277 -1.78295 50.8187 22.4277 -1.78295
373 1 51.9998 20.7831 -0.178052 51.9998 20.7831 -0.178052
374 2 54.4174 20.7875 1.42664 54.4174 20.7875 1.42664
375 2 54.4185 20.7797 -1.78155 54.4185 20.7797 -1.78155
376 1 55.5986 22.4298 -0.180864 55.5986 22.4298 -0.180864
377 2 58.014 22.4352 1.42684 58.014 22.4352 1.42684
378 2 58.0195 22.4257 -1.78133 58.0195 22.4257 -1.78133
379 1 -5.56877 24.0768 -0.180095 -5.56877 24.0768 -0.180095
380 2 -3.15499 24.0804 1.4298 -3.15499 24.0804 1.4298
381 2 -3.14646 24.0742 -1.77836 -3.14646 24.0742 -1.77836
382 1 -1.97054 25.7237 -0.174374 -1.97054 25.7237 -0.174374
383 2 0.442742 25.7256 1.43679 0.442742 25.7256 1.43679
384 2 0.452696 25.7224 -1.77135 0.452696 25.7224 -1.77135
385 1 1.62777 24.0777 -0.162008 1.62777 24.0777 -0.162008
386 2 4.04003 24.0817 1.45031 4.04003 24.0817 1.45031
387 2 4.05137 24.0737 -1.75785 4.05137 24.0737 -1.75785
388 1 5.22587 25.724 -0.153824 5.22587 25.724 -0.153824
389 2 7.63957 25.7273 1.45668 7.63957 25.7273 1.45668
390 2 7.64808 25.7202 -1.75147 7.64808 25.7202 -1.75147
391 1 8.82389 24.0774 -0.1407 8.82389 24.0774 -0.1407
392 2 11.2394 24.0806 1.46795 11.2394 24.0806 1.46795
393 2 11.2453 24.0735 -1.74023 11.2453 24.0735 -1.74023
394 1 12.4225 25.7232 -0.137713 12.4225 25.7232 -0.137713
395 2 14.839 25.7269 1.46922 14.839 25.7269 1.46922
396 2 14.8426 25.7187 -1.73897 14.8426 25.7187 -1.73897
397 1 16.021 24.0765 -0.129435 16.021 24.0765 -0.129435
398 2 18.4386 24.0803 1.47597 18.4386 24.0803 1.47597
399 2 18.44 24.072 -1.73222 18.44 24.072 -1.73222
400 1 19.6193 25.7224 -0.131924 19.6193 25.7224 -0.131924
401 2 22.0383 25.7269 1.47126 22.0383 25.7269 1.47126
402 2 22.0368 25.7171 -1.73692 22.0368 25.7171 -1.73692
403 1 23.2179 24.0758 -0.128447 23.2179 24.0758 -0.128447
404 2 25.6385 24.0788 1.47185 25.6385 24.0788 1.47185
405 2 25.6329 24.0719 -1.73631 25.6329 24.0719 -1.73631
406 1 26.8157 25.7216 -0.1378 26.8157 25.7216 -0.1378
407 2 29.2365 25.7255 1.46179 29.2365 25.7255 1.46179
408 2 29.23 25.717 -1.74641 29.23 25.717 -1.74641
409 1 30.4135 24.075 -0.140193 30.4135 24.075 -0.140193
410 2 32.8344 24.0765 1.45919 32.8344 24.0765 1.45919
411 2 32.8279 24.0733 -1.74902 32.8279 24.0733 -1.74902
412 1 34.0111 25.7211 -0.148942 34.0111 25.7211 -0.148942
413 2 36.432 25.7236 1.45046 36.432 25.7236 1.45046
414 2 36.4254 25.7187 -1.75775 36.4254 25.7187 -1.75775
415 1 37.6089 24.075 -0.1535 37.6089 24.075 -0.1535
416 2 40.0302 24.0761 1.44518 40.0302 24.0761 1.44518
417 2 40.0228 24.0743 -1.76303 40.0228 24.0743 -1.76303
418 1 41.2066 25.7214 -0.162619 41.2066 25.7214 -0.162619
419 2 43.6285 25.7229 1.43574 43.6285 25.7229 1.43574
420 2 43.6209 25.72 -1.77245 43.6209 25.72 -1.77245
421 1 44.8047 24.0752 -0.169638 44.8047 24.0752 -0.169638
422 2 47.2262 24.0764 1.42911 47.2262 24.0764 1.42911
423 2 47.2191 24.0743 -1.77909 47.2191 24.0743 -1.77909
424 1 48.403 25.7215 -0.178572 48.403 25.7215 -0.178572
425 2 50.8223 25.7226 1.42284 50.8223 25.7226 1.42284
426 2 50.8191 25.7211 -1.78535 50.8191 25.7211 -1.78535
427 1 52.0006 24.0756 -0.181622 52.0006 24.0756 -0.181622
428 2 54.419 24.0776 1.42171 54.419 24.0776 1.42171
429 2 54.4185 24.0745 -1.78648 54.4185 24.0745 -1.78648
430 1 55.5991 25.7224 -0.184166 55.5991 25.7224 -0.184166
431 2 58.0157 25.724 1.4218 58.0157 25.724 1.4218
432 2 58.0187 25.722 -1.78638 58.0187 25.722 -1.78638
433 1 -5.56865 27.3695 -0.182104 -5.56865 27.3695 -0.182104
434 2 -3.15425 27.3701 1.4269 -3.15425 27.3701 1.4269
435 2 -3.14714 27.3697 -1.78127 -3.14714 27.3697 -1.78127
436 1 -1.97081 29.0165 -0.174714 -1.97081 29.0165 -0.174714
437 2 0.443276 29.0168 1.43543 0.443276 29.0168 1.43543
438 2 0.451694 29.0164 -1.77272 0.451694 29.0164 -1.77272
439 1 1.62778 27.3704 -0.165338 1.62778 27.3704 -0.165338
440 2 4.04109 27.3716 1.44566 4.04109 27.3716 1.44566
441 2 4.0504 27.3691 -1.7625 4.0504 27.3691 -1.7625
442 1 5.22565 29.0167 -0.156375 5.22565 29.0167 -0.156375
443 2 7.64118 29.0191 1.45159 7.64118 29.0191 1.45159
444 2 7.64598 29.0136 -1.75657 7.64598 29.0136 -1.75657
445 1 8.82389 27.37 -0.147945 8.82389 27.37 -0.147945
446 2 11.2396 27.3736 1.4603 11.2396 27.3736 1.4603
447 2 11.2449 27.3655 -1.74788 11.2449 27.3655 -1.74788
448 1 12.4222 29.0159 -0.146004 12.4222 29.0159 -0.146004
449 2 14.8395 29.0212 1.45964 14.8395 29.0212 1.45964
450 2 14.8413 29.0095 -1.74853 14.8413 29.0095 -1.74853
451 1 16.0208 27.3691 -0.13781 16.0208 27.3691 -0.13781
452 2 18.4388 27.3738 1.46683 18.4388 27.3738 1.46683
453 2 18.4391 27.3636 -1.74136 18.4391 27.3636 -1.74136
454 1 19.6189 29.0149 -0.142445 19.6189 29.0149 -0.142445
455 2 22.0384 29.0208 1.46003 22.0384 29.0208 1.46003
456 2 22.0357 29.008 -1.74815 22.0357 29.008 -1.74815
457 1 23.2175 27.3682 -0.138452 23.2175 27.3682 -0.138452
458 2 25.6377 27.3731 1.46246 25.6377 27.3731 1.46246
459 2 25.633 27.3624 -1.7457 25.633 27.3624 -1.7457
460 1 26.8152 29.014 -0.148813 26.8152 29.014 -0.148813
461 2 29.2359 29.0201 1.45072 29.2359 29.0201 1.45072
462 2 29.2294 29.0071 -1.75747 29.2294 29.0071 -1.75747
463 1 30.4131 27.3675 -0.148933 30.4131 27.3675 -0.148933
464 2 32.8331 27.3722 1.45174 32.8331 27.3722 1.45174
465 2 32.8284 27.3622 -1.75647 32.8284 27.3622 -1.75647
466 1 34.0104 29.0135 -0.159195 34.0104 29.0135 -0.159195
467 2 36.4301 29.0182 1.44206 36.4301 29.0182 1.44206
468 2 36.4261 29.0087 -1.76615 36.4261 29.0087 -1.76615
469 1 37.6086 27.3674 -0.158623 37.6086 27.3674 -0.158623
470 2 40.0294 27.3701 1.44104 40.0294 27.3701 1.44104
471 2 40.0233 27.3649 -1.76717 40.0233 27.3649 -1.76717
472 1 41.2062 29.0138 -0.168023 41.2062 29.0138 -0.168023
473 2 43.627 29.0146 1.43231 43.627 29.0146 1.43231
474 2 43.6219 29.0128 -1.7759 43.6219 29.0128 -1.7759
475 1 44.8048 27.3676 -0.172665 44.8048 27.3676 -0.172665
476 2 47.2251 27.3671 1.42774 47.2251 27.3671 1.42774
477 2 47.2206 27.3683 -1.78048 47.2206 27.3683 -1.78048
478 1 48.4028 29.014 -0.177549 48.4028 29.014 -0.177549
479 2 50.822 29.0121 1.4242 50.822 29.0121 1.4242
480 2 50.8191 29.0164 -1.78399 50.8191 29.0164 -1.78399
481 1 52.0009 27.3682 -0.183129 52.0009 27.3682 -0.183129
482 2 54.4189 27.3678 1.42066 54.4189 27.3678 1.42066
483 2 54.4191 27.3694 -1.78753 54.4191 27.3694 -1.78753
484 1 55.599 29.0151 -0.182499 55.599 29.0151 -0.182499
485 2 58.0155 29.013 1.42345 58.0155 29.013 1.42345
486 2 58.0185 29.0182 -1.78472 58.0185 29.0182 -1.78472
487 1 -5.56918 30.6622 -0.176882 -5.56918 30.6622 -0.176882
488 2 -3.15364 30.6599 1.43036 -3.15364 30.6599 1.43036
489 2 -3.14894 30.6652 -1.77781 -3.14894 30.6652 -1.77781
490 1 -1.97171 32.3092 -0.169266 -1.97171 32.3092 -0.169266
491 2 0.443522 32.3063 1.43914 0.443522 32.3063 1.43914
492 2 0.449744 32.3123 -1.76901 0.449744 32.3123 -1.76901
493 1 1.62725 30.6631 -0.165789 1.62725 30.6631 -0.165789
494 2 4.04136 30.6641 1.44392 4.04136 30.6641 1.44392
495 2 4.04916 30.6619 -1.76425 4.04916 30.6619 -1.76425
496 1 5.22489 32.3094 -0.158488 5.22489 32.3094 -0.158488
497 2 7.64142 32.3108 1.44771 7.64142 32.3108 1.44771
498 2 7.64431 32.3072 -1.76045 7.64431 32.3072 -1.76045
499 1 8.82339 30.6627 -0.153525 8.82339 30.6627 -0.153525
500 2 11.2407 30.6673 1.45214 11.2407 30.6673 1.45214
501 2 11.2427 30.657 -1.75603 11.2427 30.657 -1.75603
502 1 12.4215 32.3085 -0.15644 12.4215 32.3085 -0.15644
503 2 14.8395 32.3138 1.44801 14.8395 32.3138 1.44801
504 2 14.8401 32.302 -1.76016 14.8401 32.302 -1.76016
505 1 16.0203 30.6617 -0.149794 16.0203 30.6617 -0.149794
506 2 18.4384 30.6682 1.45446 18.4384 30.6682 1.45446
507 2 18.4384 30.6541 -1.75371 18.4384 30.6541 -1.75371
508 1 19.6182 32.3074 -0.156881 19.6182 32.3074 -0.156881
509 2 22.0379 32.3153 1.44489 22.0379 32.3153 1.44489
510 2 22.0347 32.2982 -1.76326 22.0347 32.2982 -1.76326
511 1 23.2169 30.6606 -0.151658 23.2169 30.6606 -0.151658
512 2 25.6374 30.6686 1.44852 25.6374 30.6686 1.44852
513 2 25.6318 30.6515 -1.75961 25.6318 30.6515 -1.75961
514 1 26.8142 32.3063 -0.166292 26.8142 32.3063 -0.166292
515 2 29.2334 32.3136 1.43505 29.2334 32.3136 1.43505
516 2 29.2299 32.2982 -1.77312 29.2299 32.2982 -1.77312
517 1 30.4123 30.6599 -0.162367 30.4123 30.6599 -0.162367
518 2 32.8316 30.6666 1.43898 32.8316 30.6666 1.43898
519 2 32.8279 30.6525 -1.7692 32.8279 30.6525 -1.7692
520 1 34.0093 32.3059 -0.173603 34.0093 32.3059 -0.173603
521 2 36.4274 32.3118 1.42984 36.4274 32.3118 1.42984
522 2 36.4266 32.2997 -1.77835 36.4266 32.2997 -1.77835
523 1 37.6077 30.6598 -0.168355 37.6077 30.6598 -0.168355
524 2 40.0271 30.6632 1.4336 40.0271 30.6632 1.4336
525 2 40.0241 30.6562 -1.77462 40.0241 30.6562 -1.77462
526 1 41.2052 32.3061 -0.175181 41.2052 32.3061 -0.175181
527 2 43.6238 32.3071 1.42858 43.6238 32.3071 1.42858
528 2 43.6232 32.305 -1.77963 43.6232 32.305 -1.77963
529 1 44.8042 30.66 -0.174586 44.8042 30.66 -0.174586
530 2 47.2233 30.6594 1.428 47.2233 30.6594 1.428
531 2 47.2214 30.6608 -1.78022 47.2214 30.6608 -1.78022
532 1 48.402 32.3065 -0.176083 48.402 32.3065 -0.176083
533 2 50.8195 32.3035 1.42839 50.8195 32.3035 1.42839
534 2 50.8201 32.31 -1.77979 50.8201 32.31 -1.77979
535 1 52.0004 30.6608 -0.178746 52.0004 30.6608 -0.178746
536 2 54.4184 30.6574 1.42535 54.4184 30.6574 1.42535
537 2 54.4187 30.665 -1.78284 54.4187 30.665 -1.78284