ITEM: TIMESTEP
4983000
ITEM: NUMBER OF ATOMS
810
ITEM: BOX BOUNDS pp pp pp
-1.1916326776190671e+01 6.4933931776189738e+01
8.1394622342039402e-01 5.0202268776579182e+01
-1.0000000000000000e+01 1.0000000000000000e+01
ITEM: ATOMS id type x y z xu yu zu
1 1 -2.11271 1.02833 -0.476582 -2.11271 1.02833 -0.476582
2 2 -0.276878 1.01196 1.2269 -0.276878 1.01196 1.2269
3 2 -0.149461 1.04415 -2.03271 -0.149461 1.04415 -2.03271
4 1 0.736003 2.67438 -0.3493 0.736003 2.67438 -0.3493
5 2 2.60333 2.65806 1.31965 2.60333 2.65806 1.31965
6 2 2.67038 2.69006 -1.94178 2.67038 2.69006 -1.94178
7 1 3.58796 1.02796 -0.307865 3.58796 1.02796 -0.307865
8 2 5.45715 1.02 1.35988 5.45715 1.02 1.35988
9 2 5.5208 1.03514 -1.9017 5.5208 1.03514 -1.9017
10 1 6.4398 2.67363 -0.244634 6.4398 2.67363 -0.244634
11 2 8.30515 2.66864 1.42771 8.30515 2.66864 1.42771
12 2 8.37639 2.67898 -1.8337 8.37639 2.67898 -1.8337
13 1 9.29127 1.02755 -0.187351 9.29127 1.02755 -0.187351
14 2 11.167 1.02189 1.47319 11.167 1.02189 1.47319
15 2 11.2177 1.03469 -1.78859 11.2177 1.03469 -1.78859
16 1 12.1426 2.67495 -0.136408 12.1426 2.67495 -0.136408
17 2 14.0306 2.67459 1.50995 14.0306 2.67459 1.50995
18 2 14.057 2.67605 -1.75215 14.057 2.67605 -1.75215
19 1 14.9945 1.02871 -0.114205 14.9945 1.02871 -0.114205
20 2 16.9009 1.02283 1.51043 16.9009 1.02283 1.51043
21 2 16.8908 1.03467 -1.75173 16.8908 1.03467 -1.75173
22 1 17.8459 2.67544 -0.118013 17.8459 2.67544 -0.118013
23 2 19.7544 2.66771 1.50407 19.7544 2.66771 1.50407
24 2 19.7394 2.68331 -1.75816 19.7394 2.68331 -1.75816
25 1 20.6969 1.02889 -0.139349 20.6969 1.02889 -0.139349
26 2 22.5987 1.0234 1.49065 22.5987 1.0234 1.49065
27 2 22.5967 1.03526 -1.77168 22.5967 1.03526 -1.77168
28 1 23.5478 2.67602 -0.135003 23.5478 2.67602 -0.135003
29 2 25.4466 2.67475 1.49849 25.4466 2.67475 1.49849
30 2 25.4505 2.67826 -1.76386 25.4505 2.67826 -1.76386
31 1 26.3987 1.02989 -0.13343 26.3987 1.02989 -0.13343
32 2 28.2919 1.03249 1.50677 28.2919 1.03249 1.50677
33 2 28.3069 1.02691 -1.75549 28.3069 1.02691 -1.75549
34 1 29.2502 2.67613 -0.122758 29.2502 2.67613 -0.122758
35 2 31.1635 2.6805 1.4936 31.1635 2.6805 1.4936
36 2 31.1388 2.67187 -1.76855 31.1388 2.67187 -1.76855
37 1 32.1017 1.02983 -0.140352 32.1017 1.02983 -0.140352
38 2 34.0208 1.0295 1.4694 34.0208 1.0295 1.4694
39 2 33.9849 1.03113 -1.79261 33.9849 1.03113 -1.79261
40 1 34.9535 2.67682 -0.171519 34.9535 2.67682 -0.171519
41 2 36.8607 2.66999 1.45257 36.8607 2.66999 1.45257
42 2 36.8487 2.68389 -1.80965 36.8487 2.68389 -1.80965
43 1 37.8047 1.03026 -0.189294 37.8047 1.03026 -0.189294
44 2 39.7071 1.02749 1.44025 39.7071 1.02749 1.44025
45 2 39.7045 1.03257 -1.82245 39.7045 1.03257 -1.82245
46 1 40.6558 2.67609 -0.188872 40.6558 2.67609 -0.188872
47 2 42.5236 2.6803 1.42277 42.5236 2.6803 1.42277
48 2 42.5453 2.67072 -1.77411 42.5453 2.67072 -1.77411
49 1 43.5755 1.02958 -0.164517 43.5755 1.02958 -0.164517
50 2 -5.75046 1.00576 1.09301 71.0998 1.00576 1.09301
51 2 -6.48839 1.04069 -1.67303 70.3619 1.04069 -1.67303
52 1 -4.94592 2.67638 -0.580263 71.9043 2.67638 -0.580263
53 2 -3.15226 2.6341 1.15525 73.698 2.6341 1.15525
54 2 -2.98182 2.71619 -2.12005 73.8684 2.71619 -2.12005
55 1 -2.11573 4.32108 -0.394354 -2.11573 4.32108 -0.394354
56 2 -0.262871 4.28522 1.2898 -0.262871 4.28522 1.2898
57 2 -0.167453 4.35601 -1.97021 -0.167453 4.35601 -1.97021
58 1 0.734542 5.9662 -0.276486 0.734542 5.9662 -0.276486
59 2 2.61489 5.93116 1.3781 2.61489 5.93116 1.3781
60 2 2.65702 6.00041 -1.88308 2.65702 6.00041 -1.88308
61 1 3.58741 4.31994 -0.275498 3.58741 4.31994 -0.275498
62 2 5.45953 4.30023 1.38886 5.45953 4.30023 1.38886
63 2 5.51773 4.3391 -1.87259 5.51773 4.3391 -1.87259
64 1 6.4388 5.96601 -0.20503 6.4388 5.96601 -0.20503
65 2 8.31626 5.95376 1.45352 8.31626 5.95376 1.45352
66 2 8.36334 5.9796 -1.80828 8.36334 5.9796 -1.80828
67 1 9.29085 4.32051 -0.176856 9.29085 4.32051 -0.176856
68 2 11.1656 4.31615 1.48443 11.1656 4.31615 1.48443
69 2 11.2179 4.32645 -1.77739 11.2179 4.32645 -1.77739
70 1 12.1419 5.96776 -0.126073 12.1419 5.96776 -0.126073
71 2 14.0332 5.96404 1.51655 14.0332 5.96404 1.51655
72 2 14.0531 5.97189 -1.74566 14.0531 5.97189 -1.74566
73 1 14.9941 4.32178 -0.112744 14.9941 4.32178 -0.112744
74 2 16.8962 4.31839 1.51709 16.8962 4.31839 1.51709
75 2 16.8946 4.32551 -1.74519 16.8946 4.32551 -1.74519
76 1 17.8457 5.96831 -0.111029 17.8457 5.96831 -0.111029
77 2 19.7505 5.96272 1.51556 19.7505 5.96272 1.51556
78 2 19.7428 5.97438 -1.74676 19.7428 5.97438 -1.74676
79 1 20.697 4.32215 -0.123594 20.697 4.32215 -0.123594
80 2 22.5995 4.31419 1.5057 22.5995 4.31419 1.5057
81 2 22.5962 4.33077 -1.75663 22.5962 4.33077 -1.75663
82 1 23.5484 5.96882 -0.117904 23.5484 5.96882 -0.117904
83 2 25.4544 5.96672 1.5074 25.4544 5.96672 1.5074
84 2 25.4442 5.97188 -1.75494 25.4442 5.97188 -1.75494
85 1 26.3992 4.3228 -0.129437 26.3992 4.3228 -0.129437
86 2 28.297 4.32406 1.50553 28.297 4.32406 1.50553
87 2 28.3032 4.32158 -1.75675 28.3032 4.32158 -1.75675
88 1 29.2511 5.96923 -0.125096 29.2511 5.96923 -0.125096
89 2 31.1641 5.96669 1.49167 31.1641 5.96669 1.49167
90 2 31.14 5.97216 -1.77046 31.14 5.97216 -1.77046
91 1 32.102 4.32274 -0.149157 32.102 4.32274 -0.149157
92 2 34.0147 4.3212 1.46823 34.0147 4.3212 1.46823
93 2 33.9915 4.32539 -1.7939 33.9915 4.32539 -1.7939
94 1 34.954 5.96981 -0.167202 34.954 5.96981 -0.167202
95 2 36.8633 5.97602 1.45469 36.8633 5.97602 1.45469
96 2 36.8471 5.96397 -1.80749 36.8471 5.96397 -1.80749
97 1 37.8053 4.32329 -0.174974 37.8053 4.32329 -0.174974
98 2 39.7138 4.32161 1.44786 39.7138 4.32161 1.44786
99 2 39.6992 4.32366 -1.81476 39.6992 4.32366 -1.81476
100 1 40.6573 5.96849 -0.186537 40.6573 5.96849 -0.186537
101 2 42.5328 5.97625 1.41605 42.5328 5.97625 1.41605
102 2 42.5392 5.95894 -1.78085 42.5392 5.95894 -1.78085
103 1 43.5763 4.32114 -0.172372 43.5763 4.32114 -0.172372
104 2 -5.73431 4.26272 1.1804 71.1159 4.26272 1.1804
105 2 -6.51467 4.35743 -1.56388 70.3356 4.35743 -1.56388
106 1 -4.95015 5.97204 -0.470744 71.9001 5.97204 -0.470744
107 2 -3.15452 5.90029 1.26402 73.6957 5.90029 1.26402
108 2 -2.98409 6.03491 -2.0081 73.8662 6.03491 -2.0081
109 1 -2.11852 7.61222 -0.254351 -2.11852 7.61222 -0.254351
110 2 -0.237316 7.5561 1.39828 -0.237316 7.5561 1.39828
111 2 -0.196491 7.66735 -1.86179 -0.196491 7.66735 -1.86179
112 1 0.73377 9.2565 -0.164259 0.73377 9.2565 -0.164259
113 2 2.63609 9.21921 1.465 2.63609 9.21921 1.465
114 2 2.63426 9.29479 -1.79638 2.63426 9.29479 -1.79638
115 1 3.58644 7.61153 -0.204873 3.58644 7.61153 -0.204873
116 2 5.47275 7.58614 1.44341 5.47275 7.58614 1.44341
117 2 5.50261 7.63776 -1.8183 5.50261 7.63776 -1.8183
118 1 6.43764 9.25844 -0.152429 6.43764 9.25844 -0.152429
119 2 8.32929 9.24558 1.48965 8.32929 9.24558 1.48965
120 2 8.34806 9.27316 -1.77247 8.34806 9.27316 -1.77247
121 1 9.28973 7.6133 -0.150182 9.28973 7.6133 -0.150182
122 2 11.1761 7.61231 1.49807 11.1761 7.61231 1.49807
123 2 11.2054 7.61542 -1.7641 11.2054 7.61542 -1.7641
124 1 12.1414 9.26002 -0.1227 12.1414 9.26002 -0.1227
125 2 14.0321 9.25929 1.52072 14.0321 9.25929 1.52072
126 2 14.0532 9.26093 -1.7415 14.0532 9.26093 -1.7415
127 1 14.9937 7.61415 -0.104976 14.9937 7.61415 -0.104976
128 2 16.8965 7.61132 1.52413 16.8965 7.61132 1.52413
129 2 16.8932 7.61743 -1.73819 16.8932 7.61743 -1.73819
130 1 17.8455 9.26054 -0.104937 17.8455 9.26054 -0.104937
131 2 19.7486 9.25762 1.52383 19.7486 9.25762 1.52383
132 2 19.7446 9.26422 -1.7385 19.7446 9.26422 -1.7385
133 1 20.6972 7.6148 -0.111914 20.6972 7.6148 -0.111914
134 2 22.6012 7.61461 1.51564 22.6012 7.61461 1.51564
135 2 22.5951 7.6155 -1.74672 22.5951 7.6155 -1.74672
136 1 23.5488 9.26134 -0.116798 23.5488 9.26134 -0.116798
137 2 25.4537 9.26128 1.5098 25.4537 9.26128 1.5098
138 2 25.4459 9.26218 -1.75253 25.4459 9.26218 -1.75253
139 1 26.4002 7.61556 -0.123963 26.4002 7.61556 -0.123963
140 2 28.3028 7.61749 1.50558 28.3028 7.61749 1.50558
141 2 28.2996 7.61443 -1.75668 28.2996 7.61443 -1.75668
142 1 29.2523 9.26228 -0.127769 29.2523 9.26228 -0.127769
143 2 31.1659 9.26875 1.48866 31.1659 9.26875 1.48866
144 2 31.141 9.25699 -1.77347 31.141 9.25699 -1.77347
145 1 32.1031 7.61602 -0.143676 32.1031 7.61602 -0.143676
146 2 34.0188 7.61872 1.47018 34.0188 7.61872 1.47018
147 2 33.9894 7.61417 -1.79194 33.9894 7.61417 -1.79194
148 1 34.9555 9.26262 -0.171881 34.9555 9.26262 -0.171881
149 2 36.8668 9.26528 1.44734 36.8668 9.26528 1.44734
150 2 36.8466 9.2599 -1.81483 36.8466 9.2599 -1.81483
151 1 37.8067 7.61594 -0.187124 37.8067 7.61594 -0.187124
152 2 39.7147 7.62688 1.43638 39.7147 7.62688 1.43638
153 2 39.7017 7.60361 -1.82606 39.7017 7.60361 -1.82606
154 1 40.659 9.26119 -0.210478 40.659 9.26119 -0.210478
155 2 42.5346 9.27621 1.39124 42.5346 9.27621 1.39124
156 2 42.5412 9.24427 -1.80548 42.5412 9.24427 -1.80548
157 1 43.578 7.61339 -0.189045 43.578 7.61339 -0.189045
158 2 -5.75455 7.47578 1.34433 71.0957 7.47578 1.34433
159 2 -6.41786 7.72167 -1.49865 70.4324 7.72167 -1.49865
160 1 -4.95033 9.25605 -0.213504 71.8999 9.25605 -0.213504
161 2 -3.09287 9.19465 1.44303 73.7574 9.19465 1.44303
162 2 -3.06402 9.31817 -1.83652 73.7862 9.31817 -1.83652
163 1 -2.11927 10.9006 -0.122116 -2.11927 10.9006 -0.122116
164 2 -0.221409 10.8521 1.51364 -0.221409 10.8521 1.51364
165 2 -0.213936 10.951 -1.74707 -0.213936 10.951 -1.74707
166 1 0.73275 12.5475 -0.064255 0.73275 12.5475 -0.064255
167 2 2.64832 12.5106 1.54955 2.64832 12.5106 1.54955
168 2 2.61972 12.5865 -1.71165 2.61972 12.5865 -1.71165
169 1 3.58533 10.9033 -0.127773 3.58533 10.9033 -0.127773
170 2 5.48592 10.8788 1.50409 5.48592 10.8788 1.50409
171 2 5.48723 10.9297 -1.75778 5.48723 10.9297 -1.75778
172 1 6.43674 12.5507 -0.100357 6.43674 12.5507 -0.100357
173 2 8.34198 12.5375 1.52605 8.34198 12.5375 1.52605
174 2 8.33401 12.5657 -1.73609 8.33401 12.5657 -1.73609
175 1 9.28913 10.9057 -0.121801 9.28913 10.9057 -0.121801
176 2 11.1876 10.9003 1.51264 11.1876 10.9003 1.51264
177 2 11.1932 10.9117 -1.7496 11.1932 10.9117 -1.7496
178 1 12.1412 12.5522 -0.11079 12.1412 12.5522 -0.11079
179 2 14.0386 12.5524 1.52523 14.0386 12.5524 1.52523
180 2 14.0466 12.5522 -1.73702 14.0466 12.5522 -1.73702
181 1 14.9934 10.9063 -0.103475 14.9934 10.9063 -0.103475
182 2 16.8946 10.9048 1.52773 16.8946 10.9048 1.52773
183 2 16.8948 10.9081 -1.73461 16.8948 10.9081 -1.73461
184 1 17.8454 12.5526 -0.101697 17.8454 12.5526 -0.101697
185 2 19.7501 12.5558 1.52531 19.7501 12.5558 1.52531
186 2 19.7431 12.5502 -1.73699 19.7431 12.5502 -1.73699
187 1 20.6973 10.9071 -0.105086 20.6973 10.9071 -0.105086
188 2 22.6047 10.9068 1.51877 22.6047 10.9068 1.51877
189 2 22.5921 10.9082 -1.74355 22.5921 10.9082 -1.74355
190 1 23.5491 12.5538 -0.115254 23.5491 12.5538 -0.115254
191 2 25.4569 12.5581 1.508 25.4569 12.5581 1.508
192 2 25.4434 12.5499 -1.75427 25.4434 12.5499 -1.75427
193 1 26.4008 10.9079 -0.123066 26.4008 10.9079 -0.123066
194 2 28.3085 10.9155 1.50038 28.3085 10.9155 1.50038
195 2 28.2954 10.9016 -1.76184 28.2954 10.9016 -1.76184
196 1 29.253 12.5548 -0.141525 29.253 12.5548 -0.141525
197 2 31.1661 12.5622 1.47549 31.1661 12.5622 1.47549
198 2 31.1424 12.5489 -1.78665 31.1424 12.5489 -1.78665
199 1 32.1046 10.9091 -0.155788 32.1046 10.9091 -0.155788
200 2 34.0173 10.9136 1.46164 34.0173 10.9136 1.46164
201 2 33.9941 10.905 -1.80055 33.9941 10.905 -1.80055
202 1 34.957 12.5553 -0.180605 34.957 12.5553 -0.180605
203 2 36.8652 12.555 1.44264 36.8652 12.555 1.44264
204 2 36.8514 12.5552 -1.81959 36.8514 12.5552 -1.81959
205 1 37.8083 10.9085 -0.192535 37.8083 10.9085 -0.192535
206 2 39.719 10.907 1.42779 39.719 10.907 1.42779
207 2 39.7005 10.9092 -1.83469 39.7005 10.9092 -1.83469
208 1 40.6605 12.5541 -0.207185 40.6605 12.5541 -0.207185
209 2 42.5513 12.5602 1.37805 42.5513 12.5602 1.37805
210 2 42.5273 12.5462 -1.81872 42.5273 12.5462 -1.81872
211 1 43.5798 10.9062 -0.220915 43.5798 10.9062 -0.220915
212 2 -6.45978 10.806 1.0036 70.3905 10.806 1.0036
213 2 -5.70089 11.02 -1.81646 71.1494 11.02 -1.81646
214 1 -4.95444 12.5416 0.00822047 71.8958 12.5416 0.00822047
215 2 -3.03628 12.4781 1.60445 73.814 12.4781 1.60445
216 2 -3.10744 12.613 -1.67141 73.7428 12.613 -1.67141
217 1 -2.11889 14.1918 0.017233 -2.11889 14.1918 0.017233
218 2 -0.192208 14.156 1.61893 -0.192208 14.156 1.61893
219 2 -0.243262 14.2302 -1.64197 -0.243262 14.2302 -1.64197
220 1 0.73223 15.8399 0.0116973 0.73223 15.8399 0.0116973
221 2 2.65404 15.8148 1.61838 2.65404 15.8148 1.61838
222 2 2.61237 15.8671 -1.64316 2.61237 15.8671 -1.64316
223 1 3.5842 14.1951 -0.0510673 3.5842 14.1951 -0.0510673
224 2 5.49846 14.1706 1.56454 5.49846 14.1706 1.56454
225 2 5.47233 14.222 -1.69718 5.47233 14.222 -1.69718
226 1 6.43562 15.8429 -0.0477177 6.43562 15.8429 -0.0477177
227 2 8.3536 15.8279 1.56397 8.3536 15.8279 1.56397
228 2 8.32023 15.8593 -1.69791 8.32023 15.8593 -1.69791
229 1 9.28851 14.1979 -0.092874 9.28851 14.1979 -0.092874
230 2 11.197 14.1928 1.53 11.197 14.1928 1.53
231 2 11.183 14.2036 -1.73217 11.183 14.2036 -1.73217
232 1 12.1406 15.8445 -0.0992521 12.1406 15.8445 -0.0992521
233 2 14.0466 15.8481 1.52687 14.0466 15.8481 1.52687
234 2 14.0376 15.8413 -1.73532 14.0376 15.8413 -1.73532
235 1 14.9932 14.1986 -0.103465 14.9932 14.1986 -0.103465
236 2 16.8958 14.2025 1.52624 16.8958 14.2025 1.52624
237 2 16.8932 14.1947 -1.73602 16.8932 14.1947 -1.73602
238 1 17.845 15.8451 -0.109394 17.845 15.8451 -0.109394
239 2 19.7538 15.8568 1.51309 19.7538 15.8568 1.51309
240 2 19.7386 15.8339 -1.74907 19.7386 15.8339 -1.74907
241 1 20.6971 14.1994 -0.110648 20.6971 14.1994 -0.110648
242 2 22.6033 14.2039 1.51475 22.6033 14.2039 1.51475
243 2 22.5933 14.1959 -1.74751 22.5933 14.1959 -1.74751
244 1 23.5491 15.8463 -0.123339 23.5491 15.8463 -0.123339
245 2 25.4606 15.8565 1.49576 25.4606 15.8565 1.49576
246 2 25.4401 15.8363 -1.76635 25.4401 15.8363 -1.76635
247 1 26.4011 14.2003 -0.131083 26.4011 14.2003 -0.131083
248 2 28.3119 14.2071 1.48892 28.3119 14.2071 1.48892
249 2 28.2927 14.1946 -1.77327 28.2927 14.1946 -1.77327
250 1 29.2533 15.8471 -0.154085 29.2533 15.8471 -0.154085
251 2 31.1688 15.8574 1.46029 31.1688 15.8574 1.46029
252 2 31.1403 15.838 -1.80179 31.1403 15.838 -1.80179
253 1 32.1054 14.2016 -0.169215 32.1054 14.2016 -0.169215
254 2 34.0165 14.2072 1.45046 34.0165 14.2072 1.45046
255 2 33.9968 14.1962 -1.81172 33.9968 14.1962 -1.81172
256 1 34.9579 15.8477 -0.192028 34.9579 15.8477 -0.192028
257 2 36.8601 15.8481 1.43841 36.8601 15.8481 1.43841
258 2 36.8584 15.847 -1.82382 36.8584 15.847 -1.82382
259 1 37.8096 14.2011 -0.192524 37.8096 14.2011 -0.192524
260 2 39.719 14.2002 1.42941 39.719 14.2002 1.42941
261 2 39.7032 14.2015 -1.83311 39.7032 14.2015 -1.83311
262 1 40.6617 15.8469 -0.205829 40.6617 15.8469 -0.205829
263 2 42.553 15.8407 1.37821 42.553 15.8407 1.37821
264 2 42.5281 15.8519 -1.81854 42.5281 15.8519 -1.81854
265 1 43.581 14.1993 -0.234054 43.581 14.1993 -0.234054
266 2 -6.54706 14.1615 1.04945 70.3032 14.1615 1.04945
267 2 -5.68981 14.2394 -1.67631 71.1605 14.2394 -1.67631
268 1 -4.95394 15.8361 0.0960104 71.8963 15.8361 0.0960104
269 2 -3.04519 15.8046 1.70364 73.8051 15.8046 1.70364
270 2 -3.10127 15.8706 -1.57598 73.749 15.8706 -1.57598
271 1 -2.11959 17.4846 0.0829395 -2.11959 17.4846 0.0829395
272 2 -0.192366 17.4605 1.68325 -0.192366 17.4605 1.68325
273 2 -0.244746 17.5111 -1.57806 -0.244746 17.5111 -1.57806
274 1 0.731292 19.1331 0.0632682 0.731292 19.1331 0.0632682
275 2 2.66199 19.1253 1.65954 2.66199 19.1253 1.65954
276 2 2.6027 19.1431 -1.60201 2.6027 19.1431 -1.60201
277 1 3.58322 17.4879 0.00235233 3.58322 17.4879 0.00235233
278 2 5.50467 17.4741 1.6099 5.50467 17.4741 1.6099
279 2 5.46403 17.5036 -1.6519 5.46403 17.5036 -1.6519
280 1 6.43511 19.1354 -0.0178458 6.43511 19.1354 -0.0178458
281 2 8.35816 19.1317 1.58765 8.35816 19.1317 1.58765
282 2 8.31453 19.1402 -1.67423 8.31453 19.1402 -1.67423
283 1 9.28763 17.4899 -0.0605125 9.28763 17.4899 -0.0605125
284 2 11.2096 17.4877 1.54658 11.2096 17.4877 1.54658
285 2 11.1685 17.493 -1.71534 11.1685 17.493 -1.71534
286 1 12.1397 19.1367 -0.093272 12.1397 19.1367 -0.093272
287 2 14.0586 19.151 1.51747 14.0586 19.151 1.51747
288 2 14.0236 19.1233 -1.74442 14.0236 19.1233 -1.74442
289 1 14.9926 17.4912 -0.109879 14.9926 17.4912 -0.109879
290 2 16.9045 17.5097 1.50898 16.9045 17.5097 1.50898
291 2 16.8834 17.4728 -1.75296 16.8834 17.4728 -1.75296
292 1 17.8444 19.1375 -0.146779 17.8444 19.1375 -0.146779
293 2 19.75 19.1572 1.47946 19.75 19.1572 1.47946
294 2 19.7416 19.1183 -1.78253 19.7416 19.1183 -1.78253
295 1 20.6968 17.4918 -0.134033 20.6968 17.4918 -0.134033
296 2 22.6019 17.5093 1.49268 22.6019 17.5093 1.49268
297 2 22.5943 17.4754 -1.76935 22.5943 17.4754 -1.76935
298 1 23.5491 19.1385 -0.157819 23.5491 19.1385 -0.157819
299 2 25.4556 19.1537 1.46721 25.4556 19.1537 1.46721
300 2 25.4453 19.124 -1.79487 25.4453 19.124 -1.79487
301 1 26.4012 17.4927 -0.151549 26.4012 17.4927 -0.151549
302 2 28.3109 17.505 1.46983 28.3109 17.505 1.46983
303 2 28.2942 17.4813 -1.7923 28.2942 17.4813 -1.7923
304 1 29.2535 19.1393 -0.178353 29.2535 19.1393 -0.178353
305 2 31.1652 19.1473 1.44039 31.1652 19.1473 1.44039
306 2 31.1445 19.132 -1.82178 31.1445 19.132 -1.82178
307 1 32.1057 17.4937 -0.188943 32.1057 17.4937 -0.188943
308 2 34.013 17.5004 1.4355 34.013 17.5004 1.4355
309 2 34.0014 17.4874 -1.82666 34.0014 17.4874 -1.82666
310 1 34.9584 19.14 -0.205593 34.9584 19.14 -0.205593
311 2 36.8538 19.1411 1.43266 36.8538 19.1411 1.43266
312 2 36.8657 19.1391 -1.82953 36.8657 19.1391 -1.82953
313 1 37.8104 17.4937 -0.193865 37.8104 17.4937 -0.193865
314 2 39.7198 17.495 1.42825 39.7198 17.495 1.42825
315 2 39.7042 17.492 -1.83423 39.7042 17.492 -1.83423
316 1 40.6626 19.1396 -0.209213 40.6626 19.1396 -0.209213
317 2 42.547 19.1374 1.3821 42.547 19.1374 1.3821
318 2 42.5363 19.1412 -1.81467 42.5363 19.1412 -1.81467
319 1 43.5823 17.4924 -0.22222 43.5823 17.4924 -0.22222
320 2 -6.54246 17.4694 1.12278 70.3078 17.4694 1.12278
321 2 -5.68865 17.5055 -1.61035 71.1616 17.5055 -1.61035
322 1 -4.95449 19.13 0.139749 71.8958 19.13 0.139749
323 2 -3.04903 19.1133 1.75193 73.8012 19.1133 1.75193
324 2 -3.09946 19.1484 -1.52811 73.7508 19.1484 -1.52811
325 1 -2.12082 20.7785 0.11756 -2.12082 20.7785 0.11756
326 2 -0.191643 20.7739 1.71598 -0.191643 20.7739 1.71598
327 2 -0.247574 20.7849 -1.54556 -0.247574 20.7849 -1.54556
328 1 0.73134 22.4263 0.0745171 0.73134 22.4263 0.0745171
329 2 2.66446 22.4292 1.66809 2.66446 22.4292 1.66809
330 2 2.60093 22.4255 -1.59336 2.60093 22.4255 -1.59336
331 1 3.58314 20.7809 0.0207939 3.58314 20.7809 0.0207939
332 2 5.5042 20.7773 1.629 5.5042 20.7773 1.629
333 2 5.46472 20.786 -1.63291 5.46472 20.786 -1.63291
334 1 6.43603 22.428 -0.00888352 6.43603 22.428 -0.00888352
335 2 8.36648 22.4374 1.58773 8.36648 22.4374 1.58773
336 2 8.30792 22.42 -1.67387 8.30792 22.42 -1.67387
337 1 9.2875 20.7823 -0.051544 9.2875 20.7823 -0.051544
338 2 11.2169 20.7907 1.54616 11.2169 20.7907 1.54616
339 2 11.1603 20.7748 -1.71553 11.1603 20.7748 -1.71553
340 1 12.1395 22.429 -0.109385 12.1395 22.429 -0.109385
341 2 14.0625 22.4395 1.49593 14.0625 22.4395 1.49593
342 2 14.0187 22.4192 -1.76595 14.0187 22.4192 -1.76595
343 1 14.9918 20.7834 -0.137688 14.9918 20.7834 -0.137688
344 2 16.9086 20.8011 1.47524 16.9086 20.8011 1.47524
345 2 16.8778 20.766 -1.7866 16.8778 20.766 -1.7866
346 1 17.8444 22.4296 -0.182357 17.8444 22.4296 -0.182357
347 2 19.7524 22.4494 1.44119 19.7524 22.4494 1.44119
348 2 19.7396 22.4104 -1.82073 19.7396 22.4104 -1.82073
349 1 20.6969 20.7839 -0.173739 20.6969 20.7839 -0.173739
350 2 22.6018 20.806 1.4532 22.6018 20.806 1.4532
351 2 22.5948 20.7629 -1.80874 22.5948 20.7629 -1.80874
352 1 23.5494 22.4305 -0.201888 23.5494 22.4305 -0.201888
353 2 25.447 22.4436 1.43368 25.447 22.4436 1.43368
354 2 25.4545 22.4187 -1.82849 25.4545 22.4187 -1.82849
355 1 26.4014 20.785 -0.182294 26.4014 20.785 -0.182294
356 2 28.3055 20.7942 1.44542 28.3055 20.7942 1.44542
357 2 28.2999 20.7764 -1.81682 28.2999 20.7764 -1.81682
358 1 29.2537 22.4313 -0.196683 29.2537 22.4313 -0.196683
359 2 31.1591 22.4306 1.42961 31.1591 22.4306 1.42961
360 2 31.151 22.4323 -1.83269 31.151 22.4323 -1.83269
361 1 32.1061 20.7856 -0.204646 32.1061 20.7856 -0.204646
362 2 34.0069 20.784 1.42721 34.0069 20.784 1.42721
363 2 34.0081 20.7883 -1.83501 34.0081 20.7883 -1.83501
364 1 34.9584 22.4324 -0.201203 34.9584 22.4324 -0.201203
365 2 36.855 22.4293 1.43577 36.855 22.4293 1.43577
366 2 36.8645 22.436 -1.82639 36.8645 22.436 -1.82639
367 1 37.8108 20.7863 -0.196005 37.8108 20.7863 -0.196005
368 2 39.7181 20.7831 1.42851 39.7181 20.7831 1.42851
369 2 39.7069 20.789 -1.83398 39.7069 20.789 -1.83398
370 1 40.663 22.4321 -0.202734 40.663 22.4321 -0.202734
371 2 42.5532 22.4364 1.38269 42.5532 22.4364 1.38269
372 2 42.5309 22.4274 -1.81398 42.5309 22.4274 -1.81398
373 1 43.5832 20.7854 -0.218248 43.5832 20.7854 -0.218248
374 2 -6.52821 20.7771 1.16656 70.322 20.7771 1.16656
375 2 -5.70165 20.7764 -1.58275 71.1486 20.7764 -1.58275
376 1 -4.95599 22.425 0.137674 71.8943 22.425 0.137674
377 2 -3.05952 22.4294 1.75992 73.7907 22.4294 1.75992
378 2 -3.09246 22.4208 -1.52035 73.7578 22.4208 -1.52035
379 1 -2.12083 24.0723 0.108825 -2.12083 24.0723 0.108825
380 2 -0.195336 24.0799 1.71194 -0.195336 24.0799 1.71194
381 2 -0.243114 24.0657 -1.54964 -0.243114 24.0657 -1.54964
382 1 0.73276 25.7194 0.0602189 0.73276 25.7194 0.0602189
383 2 2.67011 25.74 1.64863 2.67011 25.74 1.64863
384 2 2.59814 25.7004 -1.61242 2.59814 25.7004 -1.61242
385 1 3.58437 24.0737 0.0173046 3.58437 24.0737 0.0173046
386 2 5.51002 24.0903 1.62019 5.51002 24.0903 1.62019
387 2 5.46159 24.0588 -1.64145 5.46159 24.0588 -1.64145
388 1 6.43691 25.7208 -0.0407466 6.43691 25.7208 -0.0407466
389 2 8.36318 25.7362 1.56099 8.36318 25.7362 1.56099
390 2 8.31296 25.7067 -1.70074 8.31296 25.7067 -1.70074
391 1 9.2882 24.075 -0.0692098 9.2882 24.075 -0.0692098
392 2 11.2157 24.0815 1.5307 11.2157 24.0815 1.5307
393 2 11.1627 24.0691 -1.73112 11.1627 24.0691 -1.73112
394 1 12.1403 25.7214 -0.122088 12.1403 25.7214 -0.122088
395 2 14.0652 25.7275 1.481 14.0652 25.7275 1.481
396 2 14.0174 25.7153 -1.7809 14.0174 25.7153 -1.7809
397 1 14.992 24.0753 -0.157996 14.992 24.0753 -0.157996
398 2 16.9136 24.0869 1.44912 16.9136 24.0869 1.44912
399 2 16.8731 24.0644 -1.81272 16.8731 24.0644 -1.81272
400 1 17.8447 25.7217 -0.205059 17.8447 25.7217 -0.205059
401 2 19.7558 25.7304 1.41488 19.7558 25.7304 1.41488
402 2 19.7368 25.7138 -1.84721 19.7368 25.7138 -1.84721
403 1 20.6972 24.076 -0.213385 20.6972 24.076 -0.213385
404 2 22.5985 24.0874 1.41794 22.5985 24.0874 1.41794
405 2 22.5988 24.0658 -1.84424 22.5988 24.0658 -1.84424
406 1 23.5494 25.7228 -0.224223 23.5494 25.7228 -0.224223
407 2 25.4422 25.7248 1.41678 25.4422 25.7248 1.41678
408 2 25.4591 25.7218 -1.84549 25.4591 25.7218 -1.84549
409 1 26.4015 24.0772 -0.207976 26.4015 24.0772 -0.207976
410 2 28.2984 24.0807 1.42824 28.2984 24.0807 1.42824
411 2 28.3071 24.0738 -1.83406 28.3071 24.0738 -1.83406
412 1 29.2534 25.7233 -0.204038 29.2534 25.7233 -0.204038
413 2 31.1515 25.7191 1.43056 31.1515 25.7191 1.43056
414 2 31.1577 25.7277 -1.83175 31.1577 25.7277 -1.83175
415 1 32.1058 24.0776 -0.2031 32.1058 24.0776 -0.2031
416 2 34.0047 24.0761 1.43081 34.0047 24.0761 1.43081
417 2 34.0093 24.0806 -1.83146 34.0093 24.0806 -1.83146
418 1 34.9578 25.7246 -0.196517 34.9578 25.7246 -0.196517
419 2 36.8538 25.7231 1.44094 36.8538 25.7231 1.44094
420 2 36.8646 25.7267 -1.82126 36.8646 25.7267 -1.82126
421 1 37.8107 24.0788 -0.189054 37.8107 24.0788 -0.189054
422 2 39.7203 24.0787 1.43279 39.7203 24.0787 1.43279
423 2 39.7047 24.0778 -1.82969 39.7047 24.0778 -1.82969
424 1 40.6627 25.7243 -0.20349 40.6627 25.7243 -0.20349
425 2 42.5528 25.7199 1.38209 42.5528 25.7199 1.38209
426 2 42.5309 25.7287 -1.8146 42.5309 25.7287 -1.8146
427 1 43.5834 24.0782 -0.22745 43.5834 24.0782 -0.22745
428 2 -6.54688 24.0768 1.13057 70.3034 24.0768 1.13057
429 2 -5.68287 24.0649 -1.60153 71.1674 24.0649 -1.60153
430 1 -4.95568 25.7199 0.121992 71.8946 25.7199 0.121992
431 2 -3.05853 25.7307 1.74434 73.7917 25.7307 1.74434
432 2 -3.09118 25.7085 -1.53577 73.7591 25.7085 -1.53577
433 1 -2.11866 27.3662 0.0867919 -2.11866 27.3662 0.0867919
434 2 -0.187533 27.3912 1.68281 -0.187533 27.3912 1.68281
435 2 -0.246767 27.3413 -1.57822 -0.246767 27.3413 -1.57822
436 1 0.73374 29.0128 0.00977536 0.73374 29.0128 0.00977536
437 2 2.66959 29.0407 1.59948 2.66959 29.0407 1.59948
438 2 2.6002 28.9852 -1.66143 2.6002 28.9852 -1.66143
439 1 3.58513 27.3664 -0.0229899 3.58513 27.3664 -0.0229899
440 2 5.51262 27.3944 1.57728 5.51262 27.3944 1.57728
441 2 5.46022 27.3398 -1.68401 5.46022 27.3398 -1.68401
442 1 6.43705 29.0132 -0.0963121 6.43705 29.0132 -0.0963121
443 2 8.35384 29.0369 1.51649 8.35384 29.0369 1.51649
444 2 8.32261 28.9906 -1.7453 8.32261 28.9906 -1.7453
445 1 9.28883 27.3676 -0.0997521 9.28883 27.3676 -0.0997521
446 2 11.2107 27.3813 1.50703 11.2107 27.3813 1.50703
447 2 11.169 27.354 -1.7549 11.169 27.354 -1.7549
448 1 12.1405 29.0137 -0.150208 12.1405 29.0137 -0.150208
449 2 14.0567 29.0202 1.46304 14.0567 29.0202 1.46304
450 2 14.0265 29.0069 -1.79907 14.0265 29.0069 -1.79907
451 1 14.9925 27.3674 -0.170236 14.9925 27.3674 -0.170236
452 2 16.915 27.3706 1.43572 16.915 27.3706 1.43572
453 2 16.8725 27.365 -1.8262 16.8725 27.365 -1.8262
454 1 17.8444 29.0141 -0.210571 17.8444 29.0141 -0.210571
455 2 19.7544 29.01 1.41056 19.7544 29.01 1.41056
456 2 19.7372 29.0189 -1.85161 19.7372 29.0189 -1.85161
457 1 20.697 27.3684 -0.230118 20.697 27.3684 -0.230118
458 2 22.5931 27.3653 1.40729 22.5931 27.3653 1.40729
459 2 22.6036 27.3723 -1.85498 22.6036 27.3723 -1.85498
460 1 23.5485 29.0151 -0.217284 23.5485 29.0151 -0.217284
461 2 25.4426 29.0093 1.42221 25.4426 29.0093 1.42221
462 2 25.4566 29.021 -1.84009 25.4566 29.021 -1.84009
463 1 26.4011 27.3694 -0.210839 26.4011 27.3694 -0.210839
464 2 28.2949 27.3631 1.42895 28.2949 27.3631 1.42895
465 2 28.3096 27.3753 -1.83334 28.3096 27.3753 -1.83334
466 1 29.2527 29.0152 -0.19181 29.2527 29.0152 -0.19181
467 2 31.1511 29.0079 1.44259 31.1511 29.0079 1.44259
468 2 31.1569 29.0227 -1.81969 31.1569 29.0227 -1.81969
469 1 32.1052 27.3696 -0.194479 32.1052 27.3696 -0.194479
470 2 34.0052 27.3665 1.43796 34.0052 27.3665 1.43796
471 2 34.0076 27.3743 -1.82432 34.0076 27.3743 -1.82432
472 1 34.9573 29.0165 -0.188233 34.9573 29.0165 -0.188233
473 2 36.8584 29.019 1.44342 36.8584 29.019 1.44342
474 2 36.8588 29.0145 -1.81882 36.8588 29.0145 -1.81882
475 1 37.8102 27.3708 -0.185253 37.8102 27.3708 -0.185253
476 2 39.7194 27.3654 1.43701 39.7194 27.3654 1.43701
477 2 39.7043 27.375 -1.82548 39.7043 27.375 -1.82548
478 1 40.6616 29.0166 -0.193884 40.6616 29.0166 -0.193884
479 2 42.5495 29.0078 1.39432 42.5495 29.0078 1.39432
480 2 42.5314 29.0255 -1.80242 42.5314 29.0255 -1.80242
481 1 43.5825 27.3709 -0.218634 43.5825 27.3709 -0.218634
482 2 -6.54607 27.3774 1.10714 70.3042 27.3774 1.10714
483 2 -5.68447 27.3522 -1.62296 71.1658 27.3522 -1.62296
484 1 -4.95297 29.0141 0.0920863 71.8973 29.0141 0.0920863
485 2 -3.05277 29.0383 1.71077 73.7975 29.0383 1.71077
486 2 -3.09122 28.9888 -1.56921 73.759 28.9888 -1.56921
487 1 -2.11752 30.6605 0.0378065 -2.11752 30.6605 0.0378065
488 2 -0.18264 30.6905 1.62881 -0.18264 30.6905 1.62881
489 2 -0.249977 30.6293 -1.6319 -0.249977 30.6293 -1.6319
490 1 0.734083 32.3063 -0.052426 0.734083 32.3063 -0.052426
491 2 2.66807 32.336 1.53959 2.66807 32.336 1.53959
492 2 2.60221 32.2756 -1.72132 2.60221 32.2756 -1.72132
493 1 3.58545 30.6592 -0.0794498 3.58545 30.6592 -0.0794498
494 2 5.51074 30.6844 1.52326 5.51074 30.6844 1.52326
495 2 5.46263 30.6348 -1.7382 5.46263 30.6348 -1.7382
496 1 6.43737 32.3058 -0.146717 6.43737 32.3058 -0.146717
497 2 8.34857 32.3229 1.47288 8.34857 32.3229 1.47288
498 2 8.32843 32.2899 -1.78919 8.32843 32.2899 -1.78919
499 1 9.28871 30.6599 -0.14712 9.28871 30.6599 -0.14712
500 2 11.1974 30.6699 1.47508 11.1974 30.6699 1.47508
501 2 11.182 30.6499 -1.78716 11.182 30.6499 -1.78716
502 1 12.1403 32.3061 -0.170767 12.1403 32.3061 -0.170767
503 2 14.0529 32.3132 1.44667 14.0529 32.3132 1.44667
504 2 14.0295 32.2986 -1.81549 14.0295 32.2986 -1.81549
505 1 14.9922 30.6598 -0.183671 14.9922 30.6598 -0.183671
506 2 16.9073 30.6576 1.43112 16.9073 30.6576 1.43112
507 2 16.8795 30.6629 -1.83099 16.8795 30.6629 -1.83099
508 1 17.8438 32.3068 -0.205642 17.8438 32.3068 -0.205642
509 2 19.7508 32.3023 1.41866 19.7508 32.3023 1.41866
510 2 19.7393 32.3122 -1.84353 19.7393 32.3122 -1.84353
511 1 20.696 30.661 -0.220789 20.696 30.661 -0.220789
512 2 22.5917 30.6546 1.41714 22.5917 30.6546 1.41714
513 2 22.6028 30.6676 -1.84511 22.6028 30.6676 -1.84511
514 1 23.5476 32.3074 -0.20429 23.5476 32.3074 -0.20429
515 2 25.4383 32.2943 1.43895 25.4383 32.2943 1.43895
516 2 25.4591 32.3199 -1.82322 25.4591 32.3199 -1.82322
517 1 26.4 30.6612 -0.198894 26.4 30.6612 -0.198894
518 2 28.29 30.6482 1.44543 28.29 30.6482 1.44543
519 2 28.3124 30.6735 -1.81671 28.3124 30.6735 -1.81671
520 1 29.2519 32.3068 -0.166335 29.2519 32.3068 -0.166335
521 2 31.1547 32.2976 1.46275 31.1547 32.2976 1.46275
522 2 31.1518 32.3166 -1.79947 31.1518 32.3166 -1.79947
523 1 32.1047 30.6615 -0.179186 32.1047 30.6615 -0.179186
524 2 34.011 30.6625 1.44577 34.011 30.6625 1.44577
525 2 34.0009 30.6622 -1.81651 34.0009 30.6622 -1.81651
526 1 34.9562 32.3088 -0.188331 34.9562 32.3088 -0.188331
527 2 36.8622 32.3158 1.43728 36.8622 32.3158 1.43728
528 2 36.8529 32.3024 -1.82489 36.8529 32.3024 -1.82489
529 1 37.8091 30.663 -0.189738 37.8091 30.663 -0.189738
530 2 39.7171 30.669 1.43402 39.7171 30.669 1.43402
531 2 39.7041 30.6562 -1.82847 39.7041 30.6562 -1.82847
532 1 40.6598 32.3093 -0.208023 40.6598 32.3093 -0.208023
533 2 42.5333 32.3066 1.39581 42.5333 32.3066 1.39581
534 2 42.544 32.3119 -1.80108 42.544 32.3119 -1.80108
535 1 43.5807 30.6635 -0.201509 43.5807 30.6635 -0.201509
536 2 -6.55609 30.6764 1.04889 70.2942 30.6764 1.04889