ITEM: TIMESTEP
1742000
ITEM: NUMBER OF ATOMS
810
ITEM: BOX BOUNDS pp pp pp
-3.6045171263119782e+00 5.6622122126311048e+01
8.1394622342039402e-01 5.0202268776579182e+01
-1.0000000000000000e+01 1.0000000000000000e+01
ITEM: ATOMS id type x y z xu yu zu
1 1 -3.31903 1.02771 -0.127129 -3.31903 1.02771 -0.127129
2 2 -1.1142 1.0285 1.48642 -1.1142 1.0285 1.48642
3 2 -1.10541 1.02673 -1.72824 -1.10541 1.02673 -1.72824
4 1 0.0264452 2.674 -0.118833 0.0264452 2.674 -0.118833
5 2 2.23345 2.67427 1.49172 2.23345 2.67427 1.49172
6 2 2.23784 2.67366 -1.72294 2.23784 2.67366 -1.72294
7 1 3.37219 1.02764 -0.113883 3.37219 1.02764 -0.113883
8 2 5.58366 1.02482 1.491 5.58366 1.02482 1.491
9 2 5.57962 1.03045 -1.72366 5.57962 1.03045 -1.72366
10 1 6.71787 2.67404 -0.114991 6.71787 2.67404 -0.114991
11 2 8.93044 2.66946 1.48823 8.93044 2.66946 1.48823
12 2 8.92414 2.67875 -1.72644 8.92414 2.67875 -1.72644
13 1 10.0639 1.02789 -0.126137 10.0639 1.02789 -0.126137
14 2 12.2791 1.02131 1.47327 12.2791 1.02131 1.47327
15 2 12.2674 1.03467 -1.74137 12.2674 1.03467 -1.74137
16 1 13.4095 2.67435 -0.131377 13.4095 2.67435 -0.131377
17 2 15.6248 2.66587 1.46785 15.6248 2.66587 1.46785
18 2 15.6129 2.68316 -1.74677 15.6129 2.68316 -1.74677
19 1 16.7554 1.02834 -0.152508 16.7554 1.02834 -0.152508
20 2 18.9715 1.01914 1.44561 18.9715 1.01914 1.44561
21 2 18.9582 1.03778 -1.76899 18.9582 1.03778 -1.76899
22 1 20.1014 2.67475 -0.156893 20.1014 2.67475 -0.156893
23 2 22.3182 2.66501 1.44087 22.3182 2.66501 1.44087
24 2 22.3043 2.6848 -1.77369 22.3043 2.6848 -1.77369
25 1 23.4479 1.02868 -0.181486 23.4479 1.02868 -0.181486
26 2 25.6642 1.02088 1.41693 25.6642 1.02088 1.41693
27 2 25.6515 1.03659 -1.79764 25.6515 1.03659 -1.79764
28 1 26.7946 2.67497 -0.186752 26.7946 2.67497 -0.186752
29 2 29.0103 2.66693 1.41256 29.0103 2.66693 1.41256
30 2 28.999 2.68317 -1.80203 28.999 2.68317 -1.80203
31 1 30.141 1.02872 -0.206977 30.141 1.02872 -0.206977
32 2 32.3527 1.02414 1.3975 32.3527 1.02414 1.3975
33 2 32.3491 1.03331 -1.81715 32.3491 1.03331 -1.81715
34 1 33.4877 2.67493 -0.206241 33.4877 2.67493 -0.206241
35 2 35.6962 2.66949 1.40203 35.6962 2.66949 1.40203
36 2 35.6983 2.68041 -1.81262 35.6983 2.68041 -1.81262
37 1 36.8333 1.02855 -0.210106 36.8333 1.02855 -0.210106
38 2 39.0381 1.02606 1.40298 39.0381 1.02606 1.40298
39 2 39.047 1.03102 -1.81168 39.047 1.03102 -1.81168
40 1 40.1793 2.67471 -0.198601 40.1793 2.67471 -0.198601
41 2 42.3832 2.67317 1.41586 42.3832 2.67317 1.41586
42 2 42.3939 2.67625 -1.7988 42.3939 2.67625 -1.7988
43 1 43.5246 1.02829 -0.189244 43.5246 1.02829 -0.189244
44 2 45.7263 1.02843 1.42851 45.7263 1.02843 1.42851
45 2 45.7417 1.02806 -1.78611 45.7417 1.02806 -1.78611
46 1 46.8707 2.67444 -0.173502 46.8707 2.67444 -0.173502
47 2 49.0725 2.67547 1.44428 49.0725 2.67547 1.44428
48 2 49.0878 2.67335 -1.77034 49.0878 2.67335 -1.77034
49 1 50.2163 1.028 -0.156524 50.2163 1.028 -0.156524
50 2 52.4184 1.02886 1.46102 52.4184 1.02886 1.46102
51 2 52.4331 1.02695 -1.75361 52.4331 1.02695 -1.75361
52 1 53.5622 2.6742 -0.142101 53.5622 2.6742 -0.142101
53 2 55.7652 2.6763 1.47371 55.7652 2.6763 1.47371
54 2 55.7774 2.67193 -1.74092 55.7774 2.67193 -1.74092
55 1 -3.31895 4.32047 -0.131561 -3.31895 4.32047 -0.131561
56 2 -1.11482 4.32277 1.48268 -1.11482 4.32277 1.48268
57 2 -1.10486 4.31806 -1.73196 -1.10486 4.31806 -1.73196
58 1 0.0265753 5.96677 -0.123581 0.0265753 5.96677 -0.123581
59 2 2.23219 5.96836 1.48878 2.23219 5.96836 1.48878
60 2 2.23928 5.96518 -1.72587 2.23928 5.96518 -1.72587
61 1 3.372 4.32035 -0.114491 3.372 4.32035 -0.114491
62 2 5.58095 4.31876 1.49371 5.58095 4.31876 1.49371
63 2 5.58189 4.32198 -1.72095 5.58189 4.32198 -1.72095
64 1 6.71798 5.96667 -0.111765 6.71798 5.96667 -0.111765
65 2 8.92836 5.96365 1.49458 8.92836 5.96365 1.49458
66 2 8.92652 5.96987 -1.7201 8.92652 5.96987 -1.7201
67 1 10.0637 4.32043 -0.116661 10.0637 4.32043 -0.116661
68 2 12.2772 4.31429 1.48529 12.2772 4.31429 1.48529
69 2 12.269 4.32686 -1.72937 12.269 4.32686 -1.72937
70 1 13.4098 5.96677 -0.118495 13.4098 5.96677 -0.118495
71 2 15.6233 5.9591 1.48344 15.6233 5.9591 1.48344
72 2 15.6152 5.97491 -1.73121 15.6152 5.97491 -1.73121
73 1 16.7554 4.32075 -0.134843 16.7554 4.32075 -0.134843
74 2 18.9708 4.31117 1.46458 18.9708 4.31117 1.46458
75 2 18.9592 4.33077 -1.75002 18.9592 4.33077 -1.75002
76 1 20.1019 5.9671 -0.136847 20.1019 5.9671 -0.136847
77 2 22.3189 5.95772 1.46097 22.3189 5.95772 1.46097
78 2 22.3049 5.977 -1.7536 22.3049 5.977 -1.7536
79 1 23.4482 4.32108 -0.161188 23.4482 4.32108 -0.161188
80 2 25.6658 4.31156 1.43577 25.6658 4.31156 1.43577
81 2 25.6507 4.33097 -1.77878 25.6507 4.33097 -1.77878
82 1 26.7954 5.96737 -0.166827 26.7954 5.96737 -0.166827
83 2 29.0123 5.95824 1.43118 29.0123 5.95824 1.43118
84 2 28.9988 5.97687 -1.78339 28.9988 5.97687 -1.78339
85 1 30.1416 4.3212 -0.190291 30.1416 4.3212 -0.190291
86 2 32.3551 4.31296 1.41197 32.3551 4.31296 1.41197
87 2 32.3481 4.32966 -1.80265 32.3481 4.32966 -1.80265
88 1 33.4886 5.96741 -0.189113 33.4886 5.96741 -0.189113
89 2 35.6997 5.96114 1.41595 35.6997 5.96114 1.41595
90 2 35.6966 5.9739 -1.7987 35.6966 5.9739 -1.7987
91 1 36.834 4.32109 -0.198906 36.834 4.32109 -0.198906
92 2 39.041 4.3169 1.41139 39.041 4.3169 1.41139
93 2 39.0456 4.32539 -1.80328 39.0456 4.32539 -1.80328
94 1 40.1801 5.96729 -0.189869 40.1801 5.96729 -0.189869
95 2 42.3865 5.96524 1.42135 42.3865 5.96524 1.42135
96 2 42.3923 5.96945 -1.79332 42.3923 5.96945 -1.79332
97 1 43.5253 4.32088 -0.186021 43.5253 4.32088 -0.186021
98 2 45.7286 4.32104 1.4294 45.7286 4.32104 1.4294
99 2 45.7406 4.32074 -1.78524 45.7406 4.32074 -1.78524
100 1 46.8714 5.96711 -0.173736 46.8714 5.96711 -0.173736
101 2 49.0742 5.96875 1.44237 49.0742 5.96875 1.44237
102 2 49.0872 5.96554 -1.77225 49.0872 5.96554 -1.77225
103 1 50.2168 4.32067 -0.158725 50.2168 4.32067 -0.158725
104 2 52.4191 4.32289 1.45809 52.4191 4.32289 1.45809
105 2 52.433 4.31841 -1.75654 52.433 4.31841 -1.75654
106 1 53.5625 5.96697 -0.146672 53.5625 5.96697 -0.146672
107 2 55.7658 5.96986 1.4687 55.7658 5.96986 1.4687
108 2 55.7774 5.96403 -1.74593 55.7774 5.96403 -1.74593
109 1 -3.31854 7.61327 -0.137505 -3.31854 7.61327 -0.137505
110 2 -1.11435 7.6169 1.47663 -1.11435 7.6169 1.47663
111 2 -1.10458 7.60964 -1.73801 -1.10458 7.60964 -1.73801
112 1 0.0272519 9.25953 -0.130909 0.0272519 9.25953 -0.130909
113 2 2.23139 9.26216 1.4834 2.23139 9.26216 1.4834
114 2 2.24153 9.25696 -1.73123 2.24153 9.25696 -1.73123
115 1 3.37241 7.61305 -0.117729 3.37241 7.61305 -0.117729
116 2 5.57904 7.61313 1.49363 5.57904 7.61313 1.49363
117 2 5.5847 7.61307 -1.72103 5.5847 7.61307 -1.72103
118 1 6.71885 9.25924 -0.111843 6.71885 9.25924 -0.111843
119 2 8.92734 9.25852 1.49724 8.92734 9.25852 1.49724
120 2 8.92944 9.26019 -1.71745 8.92944 9.26019 -1.71745
121 1 10.0643 7.61293 -0.110275 10.0643 7.61293 -0.110275
122 2 12.2757 7.60876 1.49466 12.2757 7.60876 1.49466
123 2 12.2718 7.61746 -1.72002 12.2718 7.61746 -1.72002
124 1 13.4109 9.25916 -0.109629 13.4109 9.25916 -0.109629
125 2 15.6224 9.25446 1.49518 15.6224 9.25446 1.49518
126 2 15.6184 9.26441 -1.71951 15.6184 9.26441 -1.71951
127 1 16.7562 7.61309 -0.118724 16.7562 7.61309 -0.118724
128 2 18.9707 7.60539 1.48217 18.9707 7.60539 1.48217
129 2 18.961 7.62139 -1.73247 18.961 7.62139 -1.73247
130 1 20.1031 9.25941 -0.120455 20.1031 9.25941 -0.120455
131 2 22.3199 9.25264 1.47793 22.3199 9.25264 1.47793
132 2 22.3064 9.26684 -1.73668 22.3064 9.26684 -1.73668
133 1 23.4492 7.61342 -0.141415 23.4492 7.61342 -0.141415
134 2 25.6671 7.60451 1.4553 25.6671 7.60451 1.4553
135 2 25.6515 7.62287 -1.75926 25.6515 7.62287 -1.75926
136 1 26.7966 9.25973 -0.148069 26.7966 9.25973 -0.148069
137 2 29.0144 9.2526 1.44892 29.0144 9.2526 1.44892
138 2 28.9991 9.26739 -1.76567 28.9991 9.26739 -1.76567
139 1 30.1427 7.61362 -0.171188 30.1427 7.61362 -0.171188
140 2 32.3578 7.60668 1.42901 32.3578 7.60668 1.42901
141 2 32.3475 7.62094 -1.78562 32.3475 7.62094 -1.78562
142 1 33.4897 9.25991 -0.174476 33.4897 9.25991 -0.174476
143 2 35.7024 9.25543 1.42842 35.7024 9.25543 1.42842
144 2 35.6961 9.26472 -1.78625 35.6961 9.26472 -1.78625
145 1 36.8351 7.61364 -0.185802 36.8351 7.61364 -0.185802
146 2 39.0445 7.61017 1.4212 39.0445 7.61017 1.4212
147 2 39.0441 7.61734 -1.79347 39.0441 7.61734 -1.79347
148 1 40.1811 9.25992 -0.182464 40.1811 9.25992 -0.182464
149 2 42.3896 9.25929 1.42582 42.3896 9.25929 1.42582
150 2 42.391 9.26076 -1.78886 42.391 9.26076 -1.78886
151 1 43.5262 7.61354 -0.181664 43.5262 7.61354 -0.181664
152 2 45.7316 7.61364 1.4308 45.7316 7.61364 1.4308
153 2 45.7392 7.61357 -1.78384 45.7392 7.61357 -1.78384
154 1 46.8722 9.25986 -0.17376 46.8722 9.25986 -0.17376
155 2 49.077 9.26243 1.43965 49.077 9.26243 1.43965
156 2 49.0859 9.25747 -1.77498 49.0859 9.25747 -1.77498
157 1 50.2174 7.61344 -0.161964 50.2174 7.61344 -0.161964
158 2 52.4207 7.61649 1.45343 52.4207 7.61649 1.45343
159 2 52.4325 7.61046 -1.7612 52.4325 7.61046 -1.7612
160 1 53.5632 9.25978 -0.152814 53.5632 9.25978 -0.152814
161 2 55.7669 9.26406 1.46178 55.7669 9.26406 1.46178
162 2 55.7775 9.25557 -1.75285 55.7775 9.25557 -1.75285
163 1 -3.31766 10.9061 -0.146121 -3.31766 10.9061 -0.146121
164 2 -1.11379 10.9102 1.46848 -1.11379 10.9102 1.46848
165 2 -1.10326 10.902 -1.74616 -1.10326 10.902 -1.74616
166 1 0.0285218 12.5522 -0.139258 0.0285218 12.5522 -0.139258
167 2 2.23205 12.5563 1.47607 2.23205 12.5563 1.47607
168 2 2.24362 12.5482 -1.73856 2.24362 12.5482 -1.73856
169 1 3.37352 10.9057 -0.12303 3.37352 10.9057 -0.12303
170 2 5.57873 10.9079 1.49039 5.57873 10.9079 1.49039
171 2 5.58742 10.9037 -1.72426 5.58742 10.9037 -1.72426
172 1 6.72041 12.5518 -0.116066 6.72041 12.5518 -0.116066
173 2 8.92734 12.5535 1.49527 8.92734 12.5535 1.49527
174 2 8.9327 12.5503 -1.71942 8.9327 12.5503 -1.71942
175 1 10.0656 10.9054 -0.10853 10.0656 10.9054 -0.10853
176 2 12.2749 10.9036 1.49949 12.2749 10.9036 1.49949
177 2 12.2754 10.9076 -1.7152 12.2754 10.9076 -1.7152
178 1 13.4125 12.5515 -0.105714 13.4125 12.5515 -0.105714
179 2 15.6228 12.5505 1.50082 15.6228 12.5505 1.50082
180 2 15.6212 12.5532 -1.71388 15.6212 12.5532 -1.71388
181 1 16.7577 10.9054 -0.108576 16.7577 10.9054 -0.108576
182 2 18.9712 10.902 1.49366 18.9712 10.902 1.49366
183 2 18.9633 10.9096 -1.72102 18.9633 10.9096 -1.72102
184 1 20.1047 12.5518 -0.112613 20.1047 12.5518 -0.112613
185 2 22.3201 12.5491 1.48738 22.3201 12.5491 1.48738
186 2 22.309 12.5551 -1.72726 22.309 12.5551 -1.72726
187 1 23.4505 10.9058 -0.126887 23.4505 10.9058 -0.126887
188 2 25.6681 10.9002 1.47047 25.6681 10.9002 1.47047
189 2 25.6532 10.912 -1.74414 25.6532 10.912 -1.74414
190 1 26.7979 12.5522 -0.136057 26.7979 12.5522 -0.136057
191 2 29.0156 12.5481 1.46096 29.0156 12.5481 1.46096
192 2 29.0003 12.5568 -1.75367 29.0003 12.5568 -1.75367
193 1 30.144 10.9061 -0.156077 30.144 10.9061 -0.156077
194 2 32.3603 10.9012 1.44245 32.3603 10.9012 1.44245
195 2 32.3474 10.9114 -1.7722 32.3474 10.9114 -1.7722
196 1 33.4908 12.5524 -0.164089 33.4908 12.5524 -0.164089
197 2 35.7051 12.5504 1.43665 35.7051 12.5504 1.43665
198 2 35.6955 12.5549 -1.77803 35.6955 12.5549 -1.77803
199 1 36.8361 10.9062 -0.176279 36.8361 10.9062 -0.176279
200 2 39.0474 10.9045 1.42817 39.0474 10.9045 1.42817
201 2 39.0432 10.9083 -1.78651 39.0432 10.9083 -1.78651
202 1 40.182 12.5526 -0.178608 40.182 12.5526 -0.178608
203 2 42.3924 12.5537 1.42701 42.3924 12.5537 1.42701
204 2 42.3899 12.5518 -1.78767 42.3899 12.5518 -1.78767
205 1 43.5271 10.9063 -0.180121 43.5271 10.9063 -0.180121
206 2 45.7342 10.9084 1.42994 45.7342 10.9084 1.42994
207 2 45.7383 10.9043 -1.78471 45.7383 10.9043 -1.78471
208 1 46.873 12.5526 -0.177914 46.873 12.5526 -0.177914
209 2 49.079 12.5567 1.43386 49.079 12.5567 1.43386
210 2 49.0856 12.5488 -1.78077 49.0856 12.5488 -1.78077
211 1 50.2182 10.9062 -0.166989 50.2182 10.9062 -0.166989
212 2 52.4226 10.9106 1.44681 52.4226 10.9106 1.44681
213 2 52.4321 10.9021 -1.76783 52.4321 10.9021 -1.76783
214 1 53.5642 12.5526 -0.161493 53.5642 12.5526 -0.161493
215 2 55.7685 12.5578 1.45244 55.7685 12.5578 1.45244
216 2 55.778 12.5474 -1.76218 55.778 12.5474 -1.76218
217 1 -3.31634 14.1987 -0.156727 -3.31634 14.1987 -0.156727
218 2 -1.11272 14.2043 1.45837 -1.11272 14.2043 1.45837
219 2 -1.10142 14.1933 -1.75626 -1.10142 14.1933 -1.75626
220 1 0.0302151 15.8448 -0.15055 0.0302151 15.8448 -0.15055
221 2 2.23371 15.8515 1.46497 2.23371 15.8515 1.46497
222 2 2.24561 15.8381 -1.74965 2.24561 15.8381 -1.74965
223 1 3.37521 14.1982 -0.131345 3.37521 14.1982 -0.131345
224 2 5.5801 14.2034 1.48274 5.5801 14.2034 1.48274
225 2 5.58962 14.1932 -1.7319 5.58962 14.1932 -1.7319
226 1 6.72236 15.8442 -0.126381 6.72236 15.8442 -0.126381
227 2 8.92709 15.8485 1.48778 8.92709 15.8485 1.48778
228 2 8.93687 15.8402 -1.72689 8.93687 15.8402 -1.72689
229 1 10.0675 14.1978 -0.11186 10.0675 14.1978 -0.11186
230 2 12.2746 14.199 1.49897 12.2746 14.199 1.49897
231 2 12.2794 14.197 -1.71573 12.2794 14.197 -1.71573
232 1 13.4143 15.844 -0.107869 13.4143 15.844 -0.107869
233 2 15.6238 15.8461 1.49974 15.6238 15.8461 1.49974
234 2 15.6236 15.8423 -1.71496 15.6236 15.8423 -1.71496
235 1 16.7593 14.1978 -0.105787 16.7593 14.1978 -0.105787
236 2 18.9721 14.1977 1.49747 18.9721 14.1977 1.49747
237 2 18.9656 14.1986 -1.71722 18.9656 14.1986 -1.71722
238 1 20.1061 15.8442 -0.111782 20.1061 15.8442 -0.111782
239 2 22.3206 15.845 1.48936 22.3206 15.845 1.48936
240 2 22.3112 15.8441 -1.7253 22.3112 15.8441 -1.7253
241 1 23.4519 14.1982 -0.120851 23.4519 14.1982 -0.120851
242 2 25.6683 14.1964 1.47787 25.6683 14.1964 1.47787
243 2 25.6555 14.2005 -1.73676 25.6555 14.2005 -1.73676
244 1 26.7989 15.8447 -0.131919 26.7989 15.8447 -0.131919
245 2 29.0156 15.8434 1.4663 29.0156 15.8434 1.4663
246 2 29.0021 15.8465 -1.74834 29.0021 15.8465 -1.74834
247 1 30.145 14.1986 -0.147291 30.145 14.1986 -0.147291
248 2 32.3618 14.1964 1.45055 32.3618 14.1964 1.45055
249 2 32.3478 14.2013 -1.76411 32.3478 14.2013 -1.76411
250 1 33.4915 15.845 -0.159137 33.4915 15.845 -0.159137
251 2 35.707 15.8451 1.43995 35.707 15.8451 1.43995
252 2 35.695 15.8453 -1.77472 35.695 15.8453 -1.77472
253 1 36.837 14.1989 -0.171649 36.837 14.1989 -0.171649
254 2 39.0497 14.1996 1.43065 39.0497 14.1996 1.43065
255 2 39.0424 14.1985 -1.78403 39.0424 14.1985 -1.78403
256 1 40.1827 15.8453 -0.179709 40.1827 15.8453 -0.179709
257 2 42.394 15.8475 1.42458 42.394 15.8475 1.42458
258 2 42.3897 15.8434 -1.7901 42.3897 15.8434 -1.7901
259 1 43.5279 14.199 -0.182057 43.5279 14.199 -0.182057
260 2 45.7367 14.2023 1.42576 45.7367 14.2023 1.42576
261 2 45.7375 14.196 -1.78889 45.7375 14.196 -1.78889
262 1 46.8739 15.8453 -0.18439 46.8739 15.8453 -0.18439
263 2 49.0814 15.8508 1.42536 49.0814 15.8508 1.42536
264 2 49.0851 15.8401 -1.78928 49.0851 15.8401 -1.78928
265 1 50.2191 14.199 -0.175116 50.2191 14.199 -0.175116
266 2 52.4246 14.2046 1.43745 52.4246 14.2046 1.43745
267 2 52.4323 14.1936 -1.77718 52.4323 14.1936 -1.77718
268 1 53.5654 15.8452 -0.172705 53.5654 15.8452 -0.172705
269 2 55.7702 15.8517 1.44078 55.7702 15.8517 1.44078
270 2 55.7791 15.8389 -1.77385 55.7791 15.8389 -1.77385
271 1 -3.31478 17.4913 -0.169864 -3.31478 17.4913 -0.169864
272 2 -1.11111 17.4985 1.44531 -1.11111 17.4985 1.44531
273 2 -1.09961 17.4841 -1.76932 -1.09961 17.4841 -1.76932
274 1 0.0319392 19.1373 -0.16529 0.0319392 19.1373 -0.16529
275 2 2.23547 19.1448 1.45032 2.23547 19.1448 1.45032
276 2 2.24748 19.1296 -1.7643 2.24748 19.1296 -1.7643
277 1 3.37713 17.4907 -0.144959 3.37713 17.4907 -0.144959
278 2 5.58092 17.4968 1.47054 5.58092 17.4968 1.47054
279 2 5.59273 17.4847 -1.74409 5.59273 17.4847 -1.74409
280 1 6.72419 19.1367 -0.138818 6.72419 19.1367 -0.138818
281 2 8.92777 19.1425 1.47681 8.92777 19.1425 1.47681
282 2 8.93976 19.1309 -1.73785 8.93976 19.1309 -1.73785
283 1 10.0694 17.4903 -0.120419 10.0694 17.4903 -0.120419
284 2 12.275 17.4949 1.49229 12.275 17.4949 1.49229
285 2 12.2826 17.4859 -1.72238 12.2826 17.4859 -1.72238
286 1 13.4159 19.1365 -0.117133 13.4159 19.1365 -0.117133
287 2 15.6239 19.1414 1.49209 15.6239 19.1414 1.49209
288 2 15.6263 19.132 -1.7226 15.6263 19.132 -1.7226
289 1 16.7608 17.4903 -0.109734 16.7608 17.4903 -0.109734
290 2 18.9726 17.4933 1.49458 18.9726 17.4933 1.49458
291 2 18.9677 17.4879 -1.72011 18.9677 17.4879 -1.72011
292 1 20.1071 19.1368 -0.117282 20.1071 19.1368 -0.117282
293 2 22.3201 19.1394 1.48552 22.3201 19.1394 1.48552
294 2 22.3133 19.1346 -1.72913 22.3133 19.1346 -1.72913
295 1 23.4529 17.4907 -0.121759 23.4529 17.4907 -0.121759
296 2 25.6679 17.4914 1.4786 25.6679 17.4914 1.4786
297 2 25.6576 17.4905 -1.73604 25.6576 17.4905 -1.73604
298 1 26.7995 19.1372 -0.132882 26.7995 19.1372 -0.132882
299 2 29.015 19.1377 1.46679 29.015 19.1377 1.46679
300 2 29.0037 19.1372 -1.74785 29.0037 19.1372 -1.74785
301 1 30.1457 17.4912 -0.14423 30.1457 17.4912 -0.14423
302 2 32.3623 17.4906 1.45374 32.3623 17.4906 1.45374
303 2 32.3485 17.4921 -1.76092 32.3485 17.4921 -1.76092
304 1 33.4919 19.1376 -0.157703 33.4919 19.1376 -0.157703
305 2 35.7081 19.1378 1.44049 35.7081 19.1378 1.44049
306 2 35.6947 19.1377 -1.77417 35.6947 19.1377 -1.77417
307 1 36.8375 17.4915 -0.171395 36.8375 17.4915 -0.171395
308 2 39.0513 17.4929 1.4295 39.0513 17.4929 1.4295
309 2 39.042 17.4904 -1.78517 39.042 17.4904 -1.78517
310 1 40.1832 19.1379 -0.182271 40.1832 19.1379 -0.182271
311 2 42.3954 19.1402 1.42081 42.3954 19.1402 1.42081
312 2 42.3895 19.1358 -1.79387 42.3895 19.1358 -1.79387
313 1 43.5286 17.4916 -0.1863 43.5286 17.4916 -0.1863
314 2 45.7388 17.4954 1.41971 45.7388 17.4954 1.41971
315 2 45.737 17.4881 -1.79494 45.737 17.4881 -1.79494
316 1 46.8747 19.1379 -0.191894 46.8747 19.1379 -0.191894
317 2 49.0841 19.1435 1.41551 49.0841 19.1435 1.41551
318 2 49.0844 19.1326 -1.79914 49.0844 19.1326 -1.79914
319 1 50.2202 17.4916 -0.186021 50.2202 17.4916 -0.186021
320 2 52.4267 17.4988 1.42524 52.4267 17.4988 1.42524
321 2 52.4326 17.4847 -1.78939 52.4326 17.4847 -1.78939
322 1 53.5667 19.1378 -0.187093 53.5667 19.1378 -0.187093
323 2 55.7714 19.1451 1.42657 55.7714 19.1451 1.42657
324 2 55.7809 19.1305 -1.78806 55.7809 19.1305 -1.78806
325 1 -3.31338 20.7838 -0.184808 -3.31338 20.7838 -0.184808
326 2 -1.10933 20.7916 1.42997 -1.10933 20.7916 1.42997
327 2 -1.09834 20.7758 -1.78466 -1.09834 20.7758 -1.78466
328 1 0.0332015 22.4297 -0.181551 0.0332015 22.4297 -0.181551
329 2 2.23622 22.4369 1.43464 2.23622 22.4369 1.43464
330 2 2.24934 22.4222 -1.77998 2.24934 22.4222 -1.77998
331 1 3.37875 20.7832 -0.160452 3.37875 20.7832 -0.160452
332 2 5.58158 20.7903 1.45628 5.58158 20.7903 1.45628
333 2 5.5953 20.7759 -1.75833 5.5953 20.7759 -1.75833
334 1 6.72543 22.4292 -0.153554 6.72543 22.4292 -0.153554
335 2 8.92818 22.4363 1.46304 8.92818 22.4363 1.46304
336 2 8.94168 22.4221 -1.75159 8.94168 22.4221 -1.75159
337 1 10.0708 20.7828 -0.132318 10.0708 20.7828 -0.132318
338 2 12.2758 20.7889 1.48113 12.2758 20.7889 1.48113
339 2 12.2844 20.7769 -1.73353 12.2844 20.7769 -1.73353
340 1 13.4168 22.4291 -0.129424 13.4168 22.4291 -0.129424
341 2 15.6241 22.4354 1.4806 15.6241 22.4354 1.4806
342 2 15.6276 22.4231 -1.73407 15.6276 22.4231 -1.73407
343 1 16.7618 20.7829 -0.119338 16.7618 20.7829 -0.119338
344 2 18.9721 20.7872 1.48669 18.9721 20.7872 1.48669
345 2 18.9699 20.779 -1.72799 18.9699 20.779 -1.72799
346 1 20.1076 22.4294 -0.125723 20.1076 22.4294 -0.125723
347 2 22.3196 22.4335 1.47839 22.3196 22.4335 1.47839
348 2 22.3146 22.4257 -1.73625 22.3146 22.4257 -1.73625
349 1 23.4534 20.7833 -0.126726 23.4534 20.7833 -0.126726
350 2 25.6671 20.7855 1.47523 25.6671 20.7855 1.47523
351 2 25.6592 20.7815 -1.73941 25.6592 20.7815 -1.73941
352 1 26.7997 22.4299 -0.137026 26.7997 22.4299 -0.137026
353 2 29.0142 22.4319 1.46393 29.0142 22.4319 1.46393
354 2 29.0047 22.4282 -1.75071 29.0047 22.4282 -1.75071
355 1 30.1459 20.7838 -0.144884 30.1459 20.7838 -0.144884
356 2 32.3619 20.7841 1.45389 32.3619 20.7841 1.45389
357 2 32.3493 20.7837 -1.76077 32.3493 20.7837 -1.76077
358 1 33.4921 22.4302 -0.158113 33.4921 22.4302 -0.158113
359 2 35.708 22.4301 1.44044 35.708 22.4301 1.44044
360 2 35.6951 22.4305 -1.77423 35.6951 22.4305 -1.77423
361 1 36.8378 20.7841 -0.17155 36.8378 20.7841 -0.17155
362 2 39.0525 20.7848 1.4282 39.0525 20.7848 1.4282
363 2 39.0416 20.7836 -1.78647 39.0416 20.7836 -1.78647
364 1 40.1836 22.4304 -0.183534 40.1836 22.4304 -0.183534
365 2 42.3971 22.432 1.4179 42.3971 22.432 1.4179
366 2 42.3887 22.429 -1.79679 42.3887 22.429 -1.79679
367 1 43.5292 20.7842 -0.190823 43.5292 20.7842 -0.190823
368 2 45.7407 20.7876 1.41348 45.7407 20.7876 1.41348
369 2 45.7365 20.781 -1.80118 45.7365 20.781 -1.80118
370 1 46.8754 22.4304 -0.198644 46.8754 22.4304 -0.198644
371 2 49.0861 22.4341 1.40707 49.0861 22.4341 1.40707
372 2 49.084 22.4268 -1.8076 49.084 22.4268 -1.8076
373 1 50.2212 20.7841 -0.197186 50.2212 20.7841 -0.197186
374 2 52.4288 20.7901 1.41266 52.4288 20.7901 1.41266
375 2 52.4328 20.7782 -1.802 52.4328 20.7782 -1.802
376 1 53.5677 22.4302 -0.19924 53.5677 22.4302 -0.19924
377 2 55.7735 22.4368 1.41302 55.7735 22.4368 1.41302
378 2 55.781 22.4235 -1.80163 55.781 22.4235 -1.80163
379 1 -3.31257 24.0762 -0.19835 -3.31257 24.0762 -0.19835
380 2 -1.10831 24.0818 1.41601 -1.10831 24.0818 1.41601
381 2 -1.09762 24.0702 -1.79864 -1.09762 24.0702 -1.79864
382 1 0.033627 25.7221 -0.193489 0.033627 25.7221 -0.193489
383 2 2.23651 25.7261 1.4227 2.23651 25.7261 1.4227
384 2 2.24991 25.7177 -1.79193 2.24991 25.7177 -1.79193
385 1 3.37962 24.0756 -0.175564 3.37962 24.0756 -0.175564
386 2 5.5819 24.0822 1.44173 5.5819 24.0822 1.44173
387 2 5.59669 24.0689 -1.77289 5.59669 24.0689 -1.77289
388 1 6.72579 25.7218 -0.167238 6.72579 25.7218 -0.167238
389 2 8.92827 25.7276 1.44952 8.92827 25.7276 1.44952
390 2 8.94222 25.7158 -1.76511 8.94222 25.7158 -1.76511
391 1 10.0715 24.0754 -0.146904 10.0715 24.0754 -0.146904
392 2 12.2757 24.0823 1.46743 12.2757 24.0823 1.46743
393 2 12.2858 24.0686 -1.74721 12.2858 24.0686 -1.74721
394 1 13.417 25.7218 -0.143516 13.417 25.7218 -0.143516
395 2 15.624 25.7292 1.46675 15.624 25.7292 1.46675
396 2 15.628 25.7146 -1.7479 15.628 25.7146 -1.7479
397 1 16.7622 24.0756 -0.131804 16.7622 24.0756 -0.131804
398 2 18.9716 24.0821 1.47536 18.9716 24.0821 1.47536
399 2 18.971 24.0694 -1.7393 18.971 24.0694 -1.7393
400 1 20.1076 25.7221 -0.138712 20.1076 25.7221 -0.138712
401 2 22.3182 25.7285 1.46708 22.3182 25.7285 1.46708
402 2 22.3158 25.716 -1.74754 22.3158 25.716 -1.74754
403 1 23.4535 24.076 -0.134712 23.4535 24.076 -0.134712
404 2 25.6665 24.0803 1.46832 25.6665 24.0803 1.46832
405 2 25.6599 24.0719 -1.74631 25.6599 24.0719 -1.74631
406 1 26.7996 25.7225 -0.145612 26.7996 25.7225 -0.145612
407 2 29.0127 25.7262 1.45729 29.0127 25.7262 1.45729
408 2 29.0061 25.7189 -1.75735 29.0061 25.7189 -1.75735
409 1 30.146 24.0763 -0.148672 30.146 24.0763 -0.148672
410 2 32.3608 24.0776 1.45172 32.3608 24.0776 1.45172
411 2 32.3505 24.0753 -1.76295 32.3505 24.0753 -1.76295
412 1 33.4921 25.7227 -0.160465 33.4921 25.7227 -0.160465
413 2 35.7071 25.7233 1.43939 35.7071 25.7233 1.43939
414 2 35.696 25.7222 -1.77529 35.696 25.7222 -1.77529
415 1 36.838 24.0766 -0.171275 36.838 24.0766 -0.171275
416 2 39.0532 24.0766 1.42793 39.0532 24.0766 1.42793
417 2 39.0413 24.0766 -1.78675 39.0413 24.0766 -1.78675
418 1 40.1837 25.7228 -0.183564 40.1837 25.7228 -0.183564
419 2 42.3983 25.7235 1.41652 42.3983 25.7235 1.41652
420 2 42.3878 25.7223 -1.79817 42.3878 25.7223 -1.79817
421 1 43.5295 24.0767 -0.193887 43.5295 24.0767 -0.193887
422 2 45.7423 24.0788 1.40882 45.7423 24.0788 1.40882
423 2 45.7358 24.0746 -1.80586 45.7358 24.0746 -1.80586
424 1 46.8756 25.7228 -0.202864 46.8756 25.7228 -0.202864
425 2 49.0866 25.7239 1.40242 49.0866 25.7239 1.40242
426 2 49.084 25.7217 -1.81227 49.084 25.7217 -1.81227
427 1 50.2218 24.0766 -0.204654 50.2218 24.0766 -0.204654
428 2 52.4305 24.08 1.40373 52.4305 24.08 1.40373
429 2 52.4325 24.0729 -1.81095 52.4325 24.0729 -1.81095
430 1 53.5681 25.7226 -0.206511 53.5681 25.7226 -0.206511
431 2 55.775 25.7252 1.40417 55.775 25.7252 1.40417
432 2 55.7803 25.7196 -1.81051 55.7803 25.7196 -1.81051
433 1 -3.3126 27.3686 -0.204144 -3.3126 27.3686 -0.204144
434 2 -1.10767 27.3696 1.40925 -1.10767 27.3696 1.40925
435 2 -1.09833 27.3671 -1.80542 -1.09833 27.3671 -1.80542
436 1 0.0331373 29.0146 -0.196043 0.0331373 29.0146 -0.196043
437 2 2.23695 29.0145 1.41888 2.23695 29.0145 1.41888
438 2 2.24847 29.0142 -1.79576 2.24847 29.0142 -1.79576
439 1 3.37956 27.3682 -0.184252 3.37956 27.3682 -0.184252
440 2 5.58242 27.371 1.43221 5.58242 27.371 1.43221
441 2 5.59602 27.365 -1.78242 5.59602 27.365 -1.78242
442 1 6.7253 29.0144 -0.173497 6.7253 29.0144 -0.173497
443 2 8.92953 29.018 1.44095 8.92953 29.018 1.44095
444 2 8.93999 29.0107 -1.7737 8.93999 29.0107 -1.7737
445 1 10.0714 27.3681 -0.159079 10.0714 27.3681 -0.159079
446 2 12.2763 27.3747 1.45416 12.2763 27.3747 1.45416
447 2 12.2849 27.3615 -1.76048 12.2849 27.3615 -1.76048
448 1 13.4166 29.0146 -0.156992 13.4166 29.0146 -0.156992
449 2 15.624 29.0214 1.4526 15.624 29.0214 1.4526
450 2 15.6272 29.0078 -1.76205 15.6272 29.0078 -1.76205
451 1 16.7621 27.3683 -0.146657 16.7621 27.3683 -0.146657
452 2 18.9708 27.3754 1.46126 18.9708 27.3754 1.46126
453 2 18.9715 27.3614 -1.75339 18.9715 27.3614 -1.75339
454 1 20.1073 29.0149 -0.153015 20.1073 29.0149 -0.153015
455 2 22.3176 29.0219 1.45323 22.3176 29.0219 1.45323
456 2 22.3158 29.0079 -1.76138 22.3158 29.0079 -1.76138
457 1 23.4534 27.3687 -0.147519 23.4534 27.3687 -0.147519
458 2 25.6649 27.3743 1.45733 25.6649 27.3743 1.45733
459 2 25.6612 27.3632 -1.75729 25.6612 27.3632 -1.75729
460 1 26.7994 29.0151 -0.157019 26.7994 29.0151 -0.157019
461 2 29.0114 29.0205 1.44733 29.0114 29.0205 1.44733
462 2 29.0069 29.0097 -1.76731 29.0069 29.0097 -1.76731
463 1 30.1458 27.3689 -0.156107 30.1458 27.3689 -0.156107
464 2 32.3592 27.372 1.44631 32.3592 27.372 1.44631
465 2 32.3519 27.3658 -1.76837 32.3519 27.3658 -1.76837
466 1 33.4919 29.0152 -0.166859 33.4919 29.0152 -0.166859
467 2 35.7052 29.0174 1.43534 35.7052 29.0174 1.43534
468 2 35.6976 29.013 -1.77935 35.6976 29.013 -1.77935
469 1 36.8379 27.369 -0.172485 36.8379 27.369 -0.172485
470 2 39.0528 27.3694 1.4273 39.0528 27.3694 1.4273
471 2 39.0416 27.3686 -1.78739 39.0416 27.3686 -1.78739
472 1 40.1835 29.0152 -0.184388 40.1835 29.0152 -0.184388
473 2 42.3977 29.0146 1.41628 42.3977 29.0146 1.41628
474 2 42.388 29.0158 -1.79842 42.388 29.0158 -1.79842
475 1 43.5295 27.3691 -0.195058 43.5295 27.3691 -0.195058
476 2 45.7425 27.3686 1.4073 45.7425 27.3686 1.4073
477 2 45.7355 27.3694 -1.80738 45.7355 27.3694 -1.80738
478 1 46.8753 29.0152 -0.202008 46.8753 29.0152 -0.202008
479 2 49.0862 29.013 1.40336 49.0862 29.013 1.40336
480 2 49.0837 29.0171 -1.81133 49.0837 29.0171 -1.81133
481 1 50.2218 27.369 -0.206943 50.2218 27.369 -0.206943
482 2 52.4311 27.3687 1.40059 52.4311 27.3687 1.40059
483 2 52.4318 27.3688 -1.8141 52.4318 27.3688 -1.8141
484 1 53.5677 29.015 -0.206433 53.5677 29.015 -0.206433
485 2 55.7749 29.0126 1.40373 55.7749 29.0126 1.40373
486 2 55.7795 29.0169 -1.81095 55.7795 29.0169 -1.81095
487 1 -3.31345 30.661 -0.199757 -3.31345 30.661 -0.199757
488 2 -1.10765 30.657 1.41245 -1.10765 30.657 1.41245
489 2 -1.10009 30.6645 -1.80222 -1.10009 30.6645 -1.80222
490 1 0.0319526 32.3071 -0.188383 0.0319526 32.3071 -0.188383
491 2 2.23721 32.3021 1.42463 2.23721 32.3021 1.42463
492 2 2.24586 32.3116 -1.79001 2.24586 32.3116 -1.79001
493 1 3.37869 30.6607 -0.184541 3.37869 30.6607 -0.184541
494 2 5.58272 30.6602 1.43028 5.58272 30.6602 1.43028
495 2 5.59402 30.6609 -1.78436 5.59402 30.6609 -1.78436
496 1 6.72421 32.307 -0.172864 6.72421 32.307 -0.172864
497 2 8.93128 32.3083 1.43783 8.93128 32.3083 1.43783
498 2 8.93619 32.3056 -1.77684 8.93619 32.3056 -1.77684
499 1 10.0706 30.6608 -0.166509 10.0706 30.6608 -0.166509
500 2 12.2779 30.666 1.44367 12.2779 30.666 1.44367
501 2 12.2819 30.6556 -1.77098 12.2819 30.6556 -1.77098
502 1 13.4157 32.3073 -0.167552 13.4157 32.3073 -0.167552
503 2 15.6244 32.3133 1.44029 15.6244 32.3133 1.44029
504 2 15.6252 32.3013 -1.77437 15.6252 32.3013 -1.77437
505 1 16.7615 30.6611 -0.160664 16.7615 30.6611 -0.160664
506 2 18.9706 30.6685 1.44678 18.9706 30.6685 1.44678
507 2 18.9707 30.6537 -1.76786 18.9707 30.6537 -1.76786
508 1 20.1067 32.3075 -0.168074 20.1067 32.3075 -0.168074
509 2 22.3171 32.3154 1.43801 22.3171 32.3154 1.43801
510 2 22.3153 32.2996 -1.7766 22.3153 32.2996 -1.7766
511 1 23.453 30.6613 -0.161876 23.453 30.6613 -0.161876
512 2 25.664 30.6686 1.44377 25.664 30.6686 1.44377
513 2 25.6614 30.6541 -1.77084 25.6614 30.6541 -1.77084
514 1 26.799 32.3077 -0.171854 26.799 32.3077 -0.171854
515 2 29.0097 32.3141 1.43418 29.0097 32.3141 1.43418
516 2 29.0078 32.301 -1.78045 29.0078 32.301 -1.78045
517 1 30.1455 30.6614 -0.167092 30.1455 30.6614 -0.167092
518 2 32.3574 30.6658 1.43743 32.3574 30.6658 1.43743
519 2 32.3532 30.6569 -1.77724 32.3532 30.6569 -1.77724
520 1 33.4915 32.3077 -0.175992 33.4915 32.3077 -0.175992
521 2 35.7029 32.3107 1.4286 35.7029 32.3107 1.4286
522 2 35.6989 32.3044 -1.78609 35.6989 32.3044 -1.78609
523 1 36.8376 30.6614 -0.177006 36.8376 30.6614 -0.177006
524 2 39.0508 30.6622 1.42491 39.0508 30.6622 1.42491
525 2 39.0428 30.6605 -1.78978 39.0428 30.6605 -1.78978
526 1 40.1828 32.3077 -0.186166 40.1828 32.3077 -0.186166
527 2 42.3953 32.3066 1.41676 42.3953 32.3066 1.41676
528 2 42.3888 32.3085 -1.79795 42.3888 32.3085 -1.79795
529 1 43.529 30.6615 -0.193835 43.529 30.6615 -0.193835
530 2 45.7412 30.659 1.40961 45.7412 30.659 1.40961
531 2 45.7357 30.6637 -1.80507 45.7357 30.6637 -1.80507
532 1 46.8744 32.3077 -0.197214 46.8744 32.3077 -0.197214
533 2 49.0843 32.3029 1.40946 49.0843 32.3029 1.40946
534 2 49.0836 32.3119 -1.80522 49.0836 32.3119 -1.80522
535 1 50.2211 30.6614 -0.20275 50.2211 30.6614 -0.20275
536 2 52.4301 30.6565 1.40514 52.4301 30.6565 1.40514
537 2 52.4313 30.6657 -1.80954 52.4313 30.6657 -1.80954