ITEM: TIMESTEP
4084000
ITEM: NUMBER OF ATOMS
810
ITEM: BOX BOUNDS pp pp pp
-9.6107677279830366e+00 6.2628372727982097e+01
8.1394622342039402e-01 5.0202268776579182e+01
-1.0000000000000000e+01 1.0000000000000000e+01
ITEM: ATOMS id type x y z xu yu zu
1 1 -1.28778 1.02615 -0.404312 -1.28778 1.02615 -0.404312
2 2 0.579837 1.00692 1.26588 0.579837 1.00692 1.26588
3 2 0.647607 1.04601 -1.99511 0.647607 1.04601 -1.99511
4 1 1.56478 2.6728 -0.324512 1.56478 2.6728 -0.324512
5 2 3.44111 2.66164 1.33558 3.44111 2.66164 1.33558
6 2 3.49154 2.68502 -1.92603 3.49154 2.68502 -1.92603
7 1 4.41765 1.02723 -0.292689 4.41765 1.02723 -0.292689
8 2 6.30234 1.02631 1.35812 6.30234 1.02631 1.35812
9 2 6.33658 1.02958 -1.90383 6.33658 1.02958 -1.90383
10 1 7.27061 2.6741 -0.261328 7.27061 2.6741 -0.261328
11 2 9.16649 2.67104 1.37609 9.16649 2.67104 1.37609
12 2 9.17804 2.67838 -1.8861 9.17804 2.67838 -1.8861
13 1 10.1231 1.02854 -0.255675 10.1231 1.02854 -0.255675
14 2 12.0222 1.03599 1.37764 12.0222 1.03599 1.37764
15 2 12.0267 1.02176 -1.88458 12.0267 1.02176 -1.88458
16 1 12.9754 2.67507 -0.259256 12.9754 2.67507 -0.259256
17 2 14.8632 2.68102 1.38758 14.8632 2.68102 1.38758
18 2 14.8899 2.66919 -1.87457 14.8899 2.66919 -1.87457
19 1 15.8271 1.02892 -0.229642 15.8271 1.02892 -0.229642
20 2 17.7059 1.04124 1.42758 17.7059 1.04124 1.42758
21 2 17.7505 1.01741 -1.83432 17.7505 1.01741 -1.83432
22 1 18.6791 2.67551 -0.202172 18.6791 2.67551 -0.202172
23 2 20.5582 2.69002 1.45459 20.5582 2.69002 1.45459
24 2 20.6021 2.6618 -1.8073 20.6021 2.6618 -1.8073
25 1 21.5308 1.03008 -0.149221 21.5308 1.03008 -0.149221
26 2 23.4288 1.03993 1.48562 23.4288 1.03993 1.48562
27 2 23.4355 1.02102 -1.77661 23.4355 1.02102 -1.77661
28 1 24.3831 2.6765 -0.153351 24.3831 2.6765 -0.153351
29 2 26.2948 2.68672 1.46508 26.2948 2.68672 1.46508
30 2 26.2739 2.66629 -1.79707 26.2739 2.66629 -1.79707
31 1 27.2353 1.03036 -0.161736 27.2353 1.03036 -0.161736
32 2 29.1459 1.03515 1.45852 29.1459 1.03515 1.45852
33 2 29.1275 1.02472 -1.80363 29.1275 1.02472 -1.80363
34 1 30.0874 2.67614 -0.183372 30.0874 2.67614 -0.183372
35 2 31.9868 2.67594 1.45013 31.9868 2.67594 1.45013
36 2 31.9906 2.6758 -1.81209 31.9906 2.6758 -1.81209
37 1 32.9395 1.02941 -0.179463 32.9395 1.02941 -0.179463
38 2 34.8236 1.02879 1.47223 34.8236 1.02879 1.47223
39 2 34.8578 1.02961 -1.78983 34.8578 1.02961 -1.78983
40 1 35.7909 2.67573 -0.147962 35.7909 2.67573 -0.147962
41 2 37.6816 2.68149 1.49534 37.6816 2.68149 1.49534
42 2 37.7024 2.66967 -1.76683 37.7024 2.66967 -1.76683
43 1 38.6428 1.02911 -0.123722 38.6428 1.02911 -0.123722
44 2 40.5542 1.02738 1.49572 40.5542 1.02738 1.49572
45 2 40.5343 1.03069 -1.76676 40.5343 1.03069 -1.76676
46 1 41.4937 2.67562 -0.140326 41.4937 2.67562 -0.140326
47 2 43.3996 2.65294 1.42557 43.3996 2.65294 1.42557
48 2 43.345 2.69858 -1.77054 43.345 2.69858 -1.77054
49 1 44.4131 1.02944 -0.212584 44.4131 1.02944 -0.212584
50 2 -4.85497 1.0071 1.29354 67.3842 1.0071 1.29354
51 2 -5.71829 1.03798 -1.43242 66.5208 1.03798 -1.43242
52 1 -4.12305 2.67362 -0.418456 68.1161 2.67362 -0.418456
53 2 -2.27072 2.63965 1.25455 69.9684 2.63965 1.25455
54 2 -2.21289 2.70669 -2.02488 70.0263 2.70669 -2.02488
55 1 -1.2871 4.31929 -0.337381 -1.2871 4.31929 -0.337381
56 2 0.588595 4.28969 1.32205 0.588595 4.28969 1.32205
57 2 0.639757 4.349 -1.93903 0.639757 4.349 -1.93903
58 1 1.56526 5.96545 -0.263116 1.56526 5.96545 -0.263116
59 2 3.45443 5.93903 1.38207 3.45443 5.93903 1.38207
60 2 3.47898 5.99226 -1.87956 3.47898 5.99226 -1.87956
61 1 4.41754 4.31949 -0.268655 4.41754 4.31949 -0.268655
62 2 6.30731 4.30697 1.37599 6.30731 4.30697 1.37599
63 2 6.33103 4.33289 -1.886 6.33103 4.33289 -1.886
64 1 7.27023 5.96601 -0.234901 7.27023 5.96601 -0.234901
65 2 9.17409 5.95829 1.39321 9.17409 5.95829 1.39321
66 2 9.16931 5.97512 -1.869 9.16931 5.97512 -1.869
67 1 10.123 4.32089 -0.248034 10.123 4.32089 -0.248034
68 2 12.0291 4.31875 1.37725 12.0291 4.31875 1.37725
69 2 12.0197 4.32375 -1.88499 12.0197 4.32375 -1.88499
70 1 12.9749 5.96753 -0.254092 12.9749 5.96753 -0.254092
71 2 14.8683 5.96623 1.38641 14.8683 5.96623 1.38641
72 2 14.884 5.96881 -1.87582 14.884 5.96881 -1.87582
73 1 15.8272 4.32139 -0.241559 15.8272 4.32139 -0.241559
74 2 17.711 4.33039 1.40983 17.711 4.33039 1.40983
75 2 17.7456 4.31268 -1.85223 17.7456 4.31268 -1.85223
76 1 18.6788 5.96787 -0.219771 18.6788 5.96787 -0.219771
77 2 20.564 5.9816 1.43012 20.564 5.9816 1.43012
78 2 20.5958 5.95447 -1.83191 20.5958 5.95447 -1.83191
79 1 21.5308 4.32213 -0.177819 21.5308 4.32213 -0.177819
80 2 23.4245 4.3337 1.4619 23.4245 4.3337 1.4619
81 2 23.4395 4.31111 -1.80029 23.4395 4.31111 -1.80029
82 1 24.3824 5.96868 -0.176636 24.3824 5.96868 -0.176636
83 2 26.2911 5.97614 1.44535 26.2911 5.97614 1.44535
84 2 26.2763 5.96111 -1.81687 26.2763 5.96111 -1.81687
85 1 27.2349 4.3226 -0.182543 27.2349 4.3226 -0.182543
86 2 29.142 4.3315 1.44162 29.142 4.3315 1.44162
87 2 29.1304 4.31318 -1.82055 29.1304 4.31318 -1.82055
88 1 30.0867 5.96865 -0.202089 30.0867 5.96865 -0.202089
89 2 31.9793 5.97492 1.43936 31.9793 5.97492 1.43936
90 2 31.9968 5.96228 -1.8228 31.9968 5.96228 -1.8228
91 1 32.939 4.32232 -0.179902 32.939 4.32232 -0.179902
92 2 34.8253 4.3277 1.46897 34.8253 4.3277 1.46897
93 2 34.855 4.31665 -1.79313 34.855 4.31665 -1.79313
94 1 35.7905 5.96864 -0.158662 35.7905 5.96864 -0.158662
95 2 37.686 5.98071 1.47929 37.686 5.98071 1.47929
96 2 37.6971 5.95617 -1.78288 37.6971 5.95617 -1.78288
97 1 38.6422 4.32207 -0.135765 38.6422 4.32207 -0.135765
98 2 40.5474 4.32393 1.49081 40.5474 4.32393 1.49081
99 2 40.5395 4.32005 -1.77179 40.5395 4.32005 -1.77179
100 1 41.4931 5.96848 -0.145351 41.4931 5.96848 -0.145351
101 2 43.3757 5.95243 1.44826 43.3757 5.95243 1.44826
102 2 43.3679 5.98473 -1.7485 43.3679 5.98473 -1.7485
103 1 44.4131 4.32234 -0.167965 44.4131 4.32234 -0.167965
104 2 -4.8549 4.2834 1.34359 67.3842 4.2834 1.34359
105 2 -5.72174 4.34164 -1.37573 66.5174 4.34164 -1.37573
106 1 -4.12235 5.96963 -0.355886 68.1168 5.96963 -0.355886
107 2 -2.28505 5.90826 1.33601 69.9541 5.90826 1.33601
108 2 -2.19274 6.0249 -1.93973 70.0464 6.0249 -1.93973
109 1 -1.2859 7.61197 -0.216014 -1.2859 7.61197 -0.216014
110 2 0.615619 7.56662 1.41344 0.615619 7.56662 1.41344
111 2 0.615485 7.65716 -1.84749 0.615485 7.65716 -1.84749
112 1 1.56693 9.25747 -0.172013 1.56693 9.25747 -0.172013
113 2 3.47341 9.22582 1.45247 3.47341 9.22582 1.45247
114 2 3.4626 9.28983 -1.80916 3.4626 9.28983 -1.80916
115 1 4.41799 7.61158 -0.214386 4.41799 7.61158 -0.214386
116 2 6.32018 7.5935 1.41547 6.32018 7.5935 1.41547
117 2 6.31841 7.63027 -1.84659 6.31841 7.63027 -1.84659
118 1 7.27023 9.25809 -0.197518 7.27023 9.25809 -0.197518
119 2 9.18041 9.24169 1.42279 9.18041 9.24169 1.42279
120 2 9.16237 9.27585 -1.83928 9.16237 9.27585 -1.83928
121 1 10.1224 7.61295 -0.230952 10.1224 7.61295 -0.230952
122 2 12.0306 7.60301 1.39169 12.0306 7.60301 1.39169
123 2 12.0166 7.62398 -1.87048 12.0166 7.62398 -1.87048
124 1 12.9741 9.25978 -0.232823 12.9741 9.25978 -0.232823
125 2 14.8747 9.25352 1.39903 14.8747 9.25352 1.39903
126 2 14.8758 9.26637 -1.86324 14.8758 9.26637 -1.86324
127 1 15.8264 7.61388 -0.238564 15.8264 7.61388 -0.238564
128 2 17.7204 7.61997 1.40109 17.7204 7.61997 1.40109
129 2 17.7348 7.60785 -1.86114 17.7348 7.60785 -1.86114
130 1 18.6778 9.26033 -0.231738 18.6778 9.26033 -0.231738
131 2 20.5689 9.26909 1.41127 20.5689 9.26909 1.41127
132 2 20.5891 9.25184 -1.85091 20.5891 9.25184 -1.85091
133 1 21.5301 7.61444 -0.205222 21.5301 7.61444 -0.205222
134 2 23.4226 7.62785 1.43595 23.4226 7.62785 1.43595
135 2 23.4399 7.6014 -1.82618 23.4399 7.6014 -1.82618
136 1 24.3815 9.26103 -0.20361 24.3815 9.26103 -0.20361
137 2 26.2851 9.27082 1.42432 26.2851 9.27082 1.42432
138 2 26.2801 9.25108 -1.83788 26.2801 9.25108 -1.83788
139 1 27.234 7.61492 -0.198006 27.234 7.61492 -0.198006
140 2 29.1394 7.61785 1.42823 29.1394 7.61785 1.42823
141 2 29.1311 7.61158 -1.83399 29.1311 7.61158 -1.83399
142 1 30.0857 9.26107 -0.20851 30.0857 9.26107 -0.20851
143 2 31.9817 9.26704 1.42905 31.9817 9.26704 1.42905
144 2 31.9925 9.25499 -1.83314 31.9925 9.25499 -1.83314
145 1 32.9384 7.61497 -0.192878 32.9384 7.61497 -0.192878
146 2 34.8273 7.62706 1.45277 34.8273 7.62706 1.45277
147 2 34.8521 7.6028 -1.8093 34.8521 7.6028 -1.8093
148 1 35.7901 9.26122 -0.183475 35.7901 9.26122 -0.183475
149 2 37.6817 9.26705 1.4586 37.6817 9.26705 1.4586
150 2 37.7009 9.25512 -1.80364 37.7009 9.25512 -1.80364
151 1 38.6419 7.6148 -0.161045 38.6419 7.6148 -0.161045
152 2 40.5463 7.63532 1.46604 40.5463 7.63532 1.46604
153 2 40.5399 7.59401 -1.79632 40.5399 7.59401 -1.79632
154 1 41.4929 9.26109 -0.188553 41.4929 9.26109 -0.188553
155 2 43.346 9.26574 1.43778 43.346 9.26574 1.43778
156 2 43.397 9.25695 -1.75871 43.397 9.25695 -1.75871
157 1 44.4127 7.61513 -0.138865 44.4127 7.61513 -0.138865
158 2 -4.87482 7.50274 1.45653 67.3643 7.50274 1.45653
159 2 -5.62343 7.70155 -1.36589 66.6157 7.70155 -1.36589
160 1 -4.11588 9.2567 -0.153871 68.1233 9.2567 -0.153871
161 2 -2.23711 9.21108 1.47881 70.002 9.21108 1.47881
162 2 -2.25051 9.30347 -1.80207 69.9886 9.30347 -1.80207
163 1 -1.28445 10.9023 -0.11505 -1.28445 10.9023 -0.11505
164 2 0.623576 10.8564 1.50894 0.623576 10.8564 1.50894
165 2 0.61057 10.9502 -1.75192 0.61057 10.9502 -1.75192
166 1 1.56775 12.5493 -0.0776928 1.56775 12.5493 -0.0776928
167 2 3.48881 12.5142 1.52965 3.48881 12.5142 1.52965
168 2 3.44889 12.5855 -1.73157 3.44889 12.5855 -1.73157
169 1 4.41892 10.9039 -0.148821 4.41892 10.9039 -0.148821
170 2 6.33177 10.8764 1.46838 6.33177 10.8764 1.46838
171 2 6.30826 10.9318 -1.79335 6.30826 10.9318 -1.79335
172 1 7.27074 12.5504 -0.141168 7.27074 12.5504 -0.141168
173 2 9.19018 12.529 1.46804 9.19018 12.529 1.46804
174 2 9.15316 12.573 -1.79378 9.15316 12.573 -1.79378
175 1 10.1221 10.9051 -0.196181 10.1221 10.9051 -0.196181
176 2 12.035 10.8903 1.42082 12.035 10.8903 1.42082
177 2 12.0112 10.921 -1.84127 12.0112 10.921 -1.84127
178 1 12.9735 12.552 -0.201553 12.9735 12.552 -0.201553
179 2 14.8802 12.5388 1.4231 14.8802 12.5388 1.4231
180 2 14.8689 12.5658 -1.8391 14.8689 12.5658 -1.8391
181 1 15.8255 10.9063 -0.225221 15.8255 10.9063 -0.225221
182 2 17.7278 10.9022 1.40452 17.7278 10.9022 1.40452
183 2 17.7255 10.9106 -1.85778 17.7255 10.9106 -1.85778
184 1 18.677 12.5527 -0.222865 18.677 12.5527 -0.222865
185 2 20.5785 12.5543 1.40784 20.5785 12.5543 1.40784
186 2 20.5778 12.5516 -1.85448 20.5778 12.5516 -1.85448
187 1 21.5292 10.9069 -0.222449 21.5292 10.9069 -0.222449
188 2 23.4251 10.9168 1.4147 23.4251 10.9168 1.4147
189 2 23.4355 10.8975 -1.84752 23.4355 10.8975 -1.84752
190 1 24.3806 12.5535 -0.223338 24.3806 12.5535 -0.223338
191 2 26.2807 12.5564 1.40887 26.2807 12.5564 1.40887
192 2 26.2829 12.5505 -1.85339 26.2829 12.5505 -1.85339
193 1 27.233 10.9073 -0.218546 27.233 10.9073 -0.218546
194 2 29.1312 10.9119 1.41588 29.1312 10.9119 1.41588
195 2 29.1373 10.9023 -1.84633 29.1373 10.9023 -1.84633
196 1 30.0847 12.5535 -0.218558 30.0847 12.5535 -0.218558
197 2 31.977 12.5514 1.42286 31.977 12.5514 1.42286
198 2 31.9949 12.5552 -1.83932 31.9949 12.5552 -1.83932
199 1 32.9376 10.9073 -0.205001 32.9376 10.9073 -0.205001
200 2 34.8289 10.9112 1.43781 34.8289 10.9112 1.43781
201 2 34.849 10.9033 -1.82438 34.849 10.9033 -1.82438
202 1 35.7891 12.5536 -0.191371 35.7891 12.5536 -0.191371
203 2 37.6776 12.5493 1.45462 37.6776 12.5493 1.45462
204 2 37.7031 12.5577 -1.80758 37.7031 12.5577 -1.80758
205 1 38.6415 10.9074 -0.173546 38.6415 10.9074 -0.173546
206 2 40.5486 10.9042 1.45014 40.5486 10.9042 1.45014
207 2 40.5368 10.9108 -1.81246 40.5368 10.9108 -1.81246
208 1 41.4921 12.554 -0.180739 41.4921 12.554 -0.180739
209 2 43.3613 12.5688 1.42874 43.3613 12.5688 1.42874
210 2 43.3801 12.5397 -1.76802 43.3801 12.5397 -1.76802
211 1 44.412 10.9081 -0.14966 44.412 10.9081 -0.14966
212 2 -5.60176 10.8049 1.09215 66.6374 10.8049 1.09215
213 2 -4.89842 11.0196 -1.74235 67.3407 11.0196 -1.74235
214 1 -4.11778 12.5426 0.0667421 68.1214 12.5426 0.0667421
215 2 -2.16865 12.4835 1.62551 70.0705 12.4835 1.62551
216 2 -2.30308 12.6108 -1.64852 69.9361 12.6108 -1.64852
217 1 -1.28305 14.194 0.0173213 -1.28305 14.194 0.0173213
218 2 0.652025 14.1597 1.60899 0.652025 14.1597 1.60899
219 2 0.58363 14.2307 -1.65168 0.58363 14.2307 -1.65168
220 1 1.56818 15.8417 -0.00422326 1.56818 15.8417 -0.00422326
221 2 3.49706 15.8183 1.59445 3.49706 15.8183 1.59445
222 2 3.44122 15.866 -1.66696 3.44122 15.866 -1.66696
223 1 4.41953 14.1961 -0.0765387 4.41953 14.1961 -0.0765387
224 2 6.34154 14.169 1.52987 6.34154 14.169 1.52987
225 2 6.29955 14.2238 -1.73167 6.29955 14.2238 -1.73167
226 1 7.27091 15.8429 -0.0853219 7.27091 15.8429 -0.0853219
227 2 9.19707 15.8222 1.51601 9.19707 15.8222 1.51601
228 2 9.1463 15.8646 -1.74564 9.1463 15.8646 -1.74564
229 1 10.122 14.1974 -0.151263 10.122 14.1974 -0.151263
230 2 12.0413 14.1803 1.45813 12.0413 14.1803 1.45813
231 2 12.0044 14.2156 -1.80383 12.0044 14.2156 -1.80383
232 1 12.9732 15.8442 -0.165505 12.9732 15.8442 -0.165505
233 2 14.8857 15.8324 1.45253 14.8857 15.8324 1.45253
234 2 14.8628 15.8565 -1.80965 14.8628 15.8565 -1.80965
235 1 15.825 14.1985 -0.197482 15.825 14.1985 -0.197482
236 2 17.7347 14.1888 1.42356 17.7347 14.1888 1.42356
237 2 17.7173 14.2085 -1.83869 17.7173 14.2085 -1.83869
238 1 18.6764 15.8449 -0.202572 18.6764 15.8449 -0.202572
239 2 20.5884 15.8425 1.41569 20.5884 15.8425 1.41569
240 2 20.5663 15.8478 -1.84659 20.5663 15.8478 -1.84659
241 1 21.5284 14.1993 -0.224699 21.5284 14.1993 -0.224699
242 2 23.4298 14.201 1.40641 23.4298 14.201 1.40641
243 2 23.4293 14.1981 -1.8559 23.4293 14.1981 -1.8559
244 1 24.3798 15.8459 -0.226407 24.3798 15.8459 -0.226407
245 2 26.2799 15.8457 1.40601 26.2799 15.8457 1.40601
246 2 26.2821 15.8465 -1.85625 26.2821 15.8465 -1.85625
247 1 27.2322 14.1999 -0.224828 27.2322 14.1999 -0.224828
248 2 29.1286 14.1977 1.41185 29.1286 14.1977 1.41185
249 2 29.1382 14.2019 -1.85035 29.1382 14.2019 -1.85035
250 1 30.0837 15.8463 -0.214376 30.0837 15.8463 -0.214376
251 2 31.975 15.8413 1.42861 31.975 15.8413 1.42861
252 2 31.9949 15.8507 -1.83353 31.9949 15.8507 -1.83353
253 1 32.9362 14.1997 -0.201211 32.9362 14.1997 -0.201211
254 2 34.827 14.1909 1.44229 34.827 14.1909 1.44229
255 2 34.848 14.2081 -1.81986 34.848 14.2081 -1.81986
256 1 35.7876 15.8458 -0.17374 35.7876 15.8458 -0.17374
257 2 37.6809 15.8413 1.46662 37.6809 15.8413 1.46662
258 2 37.6966 15.85 -1.79565 37.6966 15.85 -1.79565
259 1 38.6403 14.1998 -0.164736 38.6403 14.1998 -0.164736
260 2 40.5444 14.1899 1.46283 40.5444 14.1899 1.46283
261 2 40.5387 14.2102 -1.79976 40.5387 14.2102 -1.79976
262 1 41.4909 15.8465 -0.159822 41.4909 15.8465 -0.159822
263 2 43.383 15.856 1.42284 43.383 15.856 1.42284
264 2 43.3562 15.8378 -1.77391 43.3562 15.8378 -1.77391
265 1 44.4114 14.2009 -0.176645 44.4114 14.2009 -0.176645
266 2 -5.69549 14.165 1.1274 66.5436 14.165 1.1274
267 2 -4.8769 14.2379 -1.61042 67.3622 14.2379 -1.61042
268 1 -4.11656 15.8385 0.147756 68.1226 15.8385 0.147756
269 2 -2.18272 15.7987 1.72557 70.0564 15.7987 1.72557
270 2 -2.28936 15.8802 -1.55242 69.9498 15.8802 -1.55242
271 1 -1.28264 17.4867 0.0988037 -1.28264 17.4867 0.0988037
272 2 0.663786 17.4651 1.67596 0.663786 17.4651 1.67596
273 2 0.572118 17.5103 -1.58459 0.572118 17.5103 -1.58459
274 1 1.56841 19.1344 0.0422124 1.56841 19.1344 0.0422124
275 2 3.50437 19.1261 1.63219 3.50437 19.1261 1.63219
276 2 3.43401 19.1439 -1.62923 3.43401 19.1439 -1.62923
277 1 4.41957 17.4887 -0.0280253 4.41957 17.4887 -0.0280253
278 2 6.34611 17.4763 1.57329 6.34611 17.4763 1.57329
279 2 6.29476 17.5019 -1.68847 6.29476 17.5019 -1.68847
280 1 7.27064 19.1358 -0.0595821 7.27064 19.1358 -0.0595821
281 2 9.1959 19.1303 1.54287 9.1959 19.1303 1.54287
282 2 9.1469 19.1421 -1.71904 9.1469 19.1421 -1.71904
283 1 10.1219 17.4899 -0.10815 10.1219 17.4899 -0.10815
284 2 12.0473 17.4759 1.49427 12.0473 17.4759 1.49427
285 2 11.9981 17.5046 -1.76757 11.9981 17.5046 -1.76757
286 1 12.9731 19.1366 -0.136499 12.9731 19.1366 -0.136499
287 2 14.8893 19.1273 1.47693 14.8893 19.1273 1.47693
288 2 14.8588 19.1463 -1.78521 14.8588 19.1463 -1.78521
289 1 15.8246 17.4907 -0.172904 15.8246 17.4907 -0.172904
290 2 17.7388 17.4847 1.44263 17.7388 17.4847 1.44263
291 2 17.7123 17.497 -1.81959 17.7123 17.497 -1.81959
292 1 18.6758 19.1373 -0.190194 18.6758 19.1373 -0.190194
293 2 20.5858 19.1247 1.4302 20.5858 19.1247 1.4302
294 2 20.5677 19.1504 -1.832 20.5677 19.1504 -1.832
295 1 21.5276 17.4916 -0.219257 21.5276 17.4916 -0.219257
296 2 23.4297 17.4868 1.4106 23.4297 17.4868 1.4106
297 2 23.4275 17.4969 -1.85171 23.4275 17.4969 -1.85171
298 1 24.3789 19.1382 -0.215993 24.3789 19.1382 -0.215993
299 2 26.2807 19.1319 1.4143 26.2807 19.1319 1.4143
300 2 26.2794 19.1451 -1.84796 26.2794 19.1451 -1.84796
301 1 27.2313 17.4925 -0.224039 27.2313 17.4925 -0.224039
302 2 29.126 17.4906 1.41478 29.126 17.4906 1.41478
303 2 29.1392 17.4947 -1.84741 29.1392 17.4947 -1.84741
304 1 30.0832 19.1389 -0.210421 30.0832 19.1389 -0.210421
305 2 31.9695 19.131 1.43829 31.9695 19.131 1.43829
306 2 31.9994 19.1466 -1.82377 31.9994 19.1466 -1.82377
307 1 32.9353 17.4924 -0.19187 32.9353 17.4924 -0.19187
308 2 34.8224 17.4856 1.45564 34.8224 17.4856 1.45564
309 2 34.8505 17.4982 -1.80649 34.8505 17.4982 -1.80649
310 1 35.7869 19.1382 -0.160591 35.7869 19.1382 -0.160591
311 2 37.6839 19.1361 1.47542 37.6839 19.1361 1.47542
312 2 37.692 19.1397 -1.78691 37.692 19.1397 -1.78691
313 1 38.6389 17.4919 -0.155139 38.6389 17.4919 -0.155139
314 2 40.5383 17.4843 1.47854 40.5383 17.4843 1.47854
315 2 40.542 17.5 -1.78407 40.542 17.5 -1.78407
316 1 41.4897 19.1387 -0.14342 41.4897 19.1387 -0.14342
317 2 43.3981 19.1454 1.41991 43.3981 19.1454 1.41991
318 2 43.3381 19.1332 -1.77643 43.3381 19.1332 -1.77643
319 1 44.41 17.4935 -0.191902 44.41 17.4935 -0.191902
320 2 -5.69132 17.4804 1.18248 66.5478 17.4804 1.18248
321 2 -4.8758 17.4956 -1.5617 67.3633 17.4956 -1.5617
322 1 -4.11713 19.1332 0.163957 68.122 19.1332 0.163957
323 2 -2.20261 19.1238 1.765 70.0365 19.1238 1.765
324 2 -2.27187 19.1426 -1.51486 69.9673 19.1426 -1.51486
325 1 -1.28244 20.7801 0.116908 -1.28244 20.7801 0.116908
326 2 0.65736 20.7743 1.70206 0.65736 20.7743 1.70206
327 2 0.579387 20.7874 -1.55913 0.579387 20.7874 -1.55913
328 1 1.56903 22.4276 0.055194 1.56903 22.4276 0.055194
329 2 3.5066 22.4279 1.64283 3.5066 22.4279 1.64283
330 2 3.4327 22.4287 -1.61858 3.4327 22.4287 -1.61858
331 1 4.41958 20.7817 -0.00980165 4.41958 20.7817 -0.00980165
332 2 6.34647 20.7778 1.59092 6.34647 20.7778 1.59092
333 2 6.29426 20.7866 -1.67093 6.29426 20.7866 -1.67093
334 1 7.27085 22.4288 -0.0508409 7.27085 22.4288 -0.0508409
335 2 9.19468 22.4233 1.55344 9.19468 22.4233 1.55344
336 2 9.14866 22.4349 -1.70851 9.14866 22.4349 -1.70851
337 1 10.1218 20.7827 -0.0965795 10.1218 20.7827 -0.0965795
338 2 12.0409 20.7747 1.51322 12.0409 20.7747 1.51322
339 2 12.0045 20.791 -1.74885 12.0045 20.791 -1.74885
340 1 12.9733 22.4293 -0.120221 12.9733 22.4293 -0.120221
341 2 14.8892 22.4224 1.49349 14.8892 22.4224 1.49349
342 2 14.8592 22.4366 -1.76867 14.8592 22.4366 -1.76867
343 1 15.8245 20.7832 -0.153387 15.8245 20.7832 -0.153387
344 2 17.7392 20.7708 1.46169 17.7392 20.7708 1.46169
345 2 17.7115 20.7961 -1.80043 17.7115 20.7961 -1.80043
346 1 18.6757 22.4299 -0.164581 18.6757 22.4299 -0.164581
347 2 20.5869 22.4196 1.45467 20.5869 22.4196 1.45467
348 2 20.5663 22.4406 -1.80755 20.5663 22.4406 -1.80755
349 1 21.527 20.7839 -0.193094 21.527 20.7839 -0.193094
350 2 23.4344 20.7728 1.43062 23.4344 20.7728 1.43062
351 2 23.4215 20.7955 -1.83163 23.4215 20.7955 -1.83163
352 1 24.3784 22.4304 -0.19265 24.3784 22.4304 -0.19265
353 2 26.2853 22.4231 1.43169 26.2853 22.4231 1.43169
354 2 26.2736 22.438 -1.83059 26.2736 22.438 -1.83059
355 1 27.2307 20.7847 -0.210375 27.2307 20.7847 -0.210375
356 2 29.1277 20.777 1.42604 29.1277 20.777 1.42604
357 2 29.1362 20.793 -1.83618 29.1362 20.793 -1.83618
358 1 30.0828 22.431 -0.194246 30.0828 22.431 -0.194246
359 2 31.976 22.4349 1.44669 31.976 22.4349 1.44669
360 2 31.9924 22.4272 -1.81555 31.9924 22.4272 -1.81555
361 1 32.9351 20.7849 -0.175785 32.9351 20.7849 -0.175785
362 2 34.8288 20.7861 1.46447 34.8288 20.7861 1.46447
363 2 34.8438 20.7829 -1.7978 34.8438 20.7829 -1.7978
364 1 35.7868 22.4307 -0.163805 35.7868 22.4307 -0.163805
365 2 37.6881 22.4434 1.46698 37.6881 22.4434 1.46698
366 2 37.6874 22.4179 -1.79526 37.6874 22.4179 -1.79526
367 1 38.6382 20.7844 -0.151236 38.6382 20.7844 -0.151236
368 2 40.5391 20.7921 1.48054 40.5391 20.7921 1.48054
369 2 40.5394 20.7775 -1.78208 40.5394 20.7775 -1.78208
370 1 41.4887 22.4314 -0.158169 41.4887 22.4314 -0.158169
371 2 43.3897 22.4232 1.41507 43.3897 22.4232 1.41507
372 2 43.3446 22.4405 -1.78156 43.3446 22.4405 -1.78156
373 1 44.4083 20.7858 -0.204163 44.4083 20.7858 -0.204163
374 2 -5.69546 20.7824 1.18044 66.5437 20.7824 1.18044
375 2 -4.86236 20.7776 -1.56251 67.3768 20.7776 -1.56251
376 1 -4.1163 22.427 0.157562 68.1228 22.427 0.157562
377 2 -2.20651 22.4343 1.76412 70.0326 22.4343 1.76412
378 2 -2.26626 22.4199 -1.51595 69.9729 22.4199 -1.51595
379 1 -1.28151 24.0737 0.102317 -1.28151 24.0737 0.102317
380 2 0.651775 24.0833 1.69538 0.651775 24.0833 1.69538
381 2 0.586696 24.0652 -1.56613 0.586696 24.0652 -1.56613
382 1 1.56936 25.721 0.0361963 1.56936 25.721 0.0361963
383 2 3.49913 25.727 1.63314 3.49913 25.727 1.63314
384 2 3.441 25.7162 -1.62861 3.441 25.7162 -1.62861
385 1 4.42002 24.075 -0.00903416 4.42002 24.075 -0.00903416
386 2 6.34483 24.0752 1.59413 6.34483 24.0752 1.59413
387 2 6.29683 24.0755 -1.66781 6.29683 24.0755 -1.66781
388 1 7.27126 25.7218 -0.0507377 7.27126 25.7218 -0.0507377
389 2 9.18839 25.716 1.56143 9.18839 25.716 1.56143
390 2 9.15591 25.7279 -1.70071 9.15591 25.7279 -1.70071
391 1 10.1222 24.0755 -0.0851632 10.1222 24.0755 -0.0851632
392 2 12.0407 24.0714 1.5254 12.0407 24.0714 1.5254
393 2 12.0056 24.0799 -1.73672 12.0056 24.0799 -1.73672
394 1 12.9735 25.7222 -0.111439 12.9735 25.7222 -0.111439
395 2 14.8863 25.7154 1.50583 14.8863 25.7154 1.50583
396 2 14.8625 25.7293 -1.75636 14.8625 25.7293 -1.75636
397 1 15.8246 24.076 -0.139175 15.8246 24.076 -0.139175
398 2 17.7355 24.0683 1.48033 17.7355 24.0683 1.48033
399 2 17.7155 24.0842 -1.7819 17.7155 24.0842 -1.7819
400 1 18.6759 25.7228 -0.148562 18.6759 25.7228 -0.148562
401 2 20.586 25.716 1.47178 20.586 25.716 1.47178
402 2 20.5676 25.73 -1.79045 20.5676 25.73 -1.79045
403 1 21.527 24.0765 -0.171761 21.527 24.0765 -0.171761
404 2 23.4352 24.0687 1.45083 23.4352 24.0687 1.45083
405 2 23.4206 24.0844 -1.81145 23.4206 24.0844 -1.81145
406 1 24.3786 25.7228 -0.176721 24.3786 25.7228 -0.176721
407 2 26.2843 25.7119 1.44911 26.2843 25.7119 1.44911
408 2 26.275 25.7332 -1.81315 26.275 25.7332 -1.81315
409 1 27.2304 24.0766 -0.195321 27.2304 24.0766 -0.195321
410 2 29.1271 24.07 1.4412 29.1271 24.07 1.4412
411 2 29.1361 24.0835 -1.82107 29.1361 24.0835 -1.82107
412 1 30.0824 25.7228 -0.180358 30.0824 25.7228 -0.180358
413 2 31.9846 25.722 1.44962 31.9846 25.722 1.44962
414 2 31.9828 25.7239 -1.8127 31.9828 25.7239 -1.8127
415 1 32.9349 24.0771 -0.183248 32.9349 24.0771 -0.183248
416 2 34.8306 24.0864 1.45432 34.8306 24.0864 1.45432
417 2 34.8416 24.0673 -1.80794 34.8416 24.0673 -1.80794
418 1 35.7864 25.7231 -0.183395 35.7864 25.7231 -0.183395
419 2 37.6919 25.7374 1.44215 37.6919 25.7374 1.44215
420 2 37.683 25.7093 -1.82006 37.683 25.7093 -1.82006
421 1 38.6379 24.0771 -0.177266 38.6379 24.0771 -0.177266
422 2 40.5406 24.0986 1.45184 40.5406 24.0986 1.45184
423 2 40.5371 24.0566 -1.81056 40.5371 24.0566 -1.81056
424 1 41.4888 25.7239 -0.202796 41.4888 25.7239 -0.202796
425 2 43.3494 25.7026 1.41618 43.3494 25.7026 1.41618
426 2 43.3855 25.7462 -1.78027 43.3855 25.7462 -1.78027
427 1 44.4083 24.0781 -0.19049 44.4083 24.0781 -0.19049
428 2 -5.69716 24.079 1.16582 66.542 24.079 1.16582
429 2 -4.86079 24.065 -1.57418 67.3784 24.065 -1.57418
430 1 -4.1154 25.7202 0.141653 68.1237 25.7202 0.141653
431 2 -2.19943 25.7395 1.74106 70.0397 25.7395 1.74106
432 2 -2.27113 25.7016 -1.53858 69.968 25.7016 -1.53858
433 1 -1.28163 27.3672 0.0640668 -1.28163 27.3672 0.0640668
434 2 0.647173 27.3879 1.66246 0.647173 27.3879 1.66246
435 2 0.591144 27.3473 -1.59904 0.591144 27.3473 -1.59904
436 1 1.569 29.0141 -0.00503318 1.569 29.0141 -0.00503318
437 2 3.48779 29.0294 1.60556 3.48779 29.0294 1.60556
438 2 3.45199 29 -1.65641 3.45199 29 -1.65641
439 1 4.42025 27.3682 -0.0203893 4.42025 27.3682 -0.0203893
440 2 6.33916 27.3691 1.58994 6.33916 27.3691 1.58994
441 2 6.30303 27.3676 -1.67217 6.30303 27.3676 -1.67217
442 1 7.2712 29.015 -0.0522935 7.2712 29.015 -0.0522935
443 2 9.18603 29.0184 1.5627 9.18603 29.0184 1.5627
444 2 9.158 29.0116 -1.69949 9.158 29.0116 -1.69949
445 1 10.1224 27.3685 -0.0730825 10.1224 27.3685 -0.0730825
446 2 12.0418 27.3629 1.53629 12.0418 27.3629 1.53629
447 2 12.0046 27.3743 -1.72579 12.0046 27.3743 -1.72579
448 1 12.9734 29.0152 -0.0996757 12.9734 29.0152 -0.0996757
449 2 14.8885 29.0145 1.51509 14.8885 29.0145 1.51509
450 2 14.8601 29.0163 -1.74707 14.8601 29.0163 -1.74707
451 1 15.8247 27.369 -0.125058 15.8247 27.369 -0.125058
452 2 17.7352 27.3624 1.49504 17.7352 27.3624 1.49504
453 2 17.7161 27.3761 -1.76717 17.7161 27.3761 -1.76717
454 1 18.6762 29.0158 -0.134767 18.6762 29.0158 -0.134767
455 2 20.5878 29.0116 1.48409 20.5878 29.0116 1.48409
456 2 20.5667 29.0205 -1.77809 20.5667 29.0205 -1.77809
457 1 21.5274 27.3694 -0.157631 21.5274 27.3694 -0.157631
458 2 23.4359 27.3631 1.46481 23.4359 27.3631 1.46481
459 2 23.421 27.3754 -1.79744 23.421 27.3754 -1.79744
460 1 24.3792 29.0156 -0.16459 24.3792 29.0156 -0.16459
461 2 26.2785 29.003 1.46841 26.2785 29.003 1.46841
462 2 26.2818 29.0271 -1.7938 26.2818 29.0271 -1.7938
463 1 27.2304 27.3687 -0.174016 27.2304 27.3687 -0.174016
464 2 29.1312 27.3622 1.45747 29.1312 27.3622 1.45747
465 2 29.1319 27.3752 -1.80483 29.1319 27.3752 -1.80483
466 1 30.0822 29.0149 -0.166776 30.0822 29.0149 -0.166776
467 2 31.9874 29.0083 1.45945 31.9874 29.0083 1.45945
468 2 31.9793 29.0217 -1.80284 31.9793 29.0217 -1.80284
469 1 32.9343 27.369 -0.181083 32.9343 27.369 -0.181083
470 2 34.8382 27.3721 1.44664 34.8382 27.3721 1.44664
471 2 34.8327 27.366 -1.81569 34.8327 27.366 -1.81569
472 1 35.786 29.0153 -0.189458 35.786 29.0153 -0.189458
473 2 37.6913 29.0069 1.43639 37.6913 29.0069 1.43639
474 2 37.6829 29.0246 -1.82589 37.6829 29.0246 -1.82589
475 1 38.6379 27.3697 -0.206306 38.6379 27.3697 -0.206306
476 2 40.5394 27.3738 1.42429 40.5394 27.3738 1.42429
477 2 40.5388 27.3666 -1.83834 40.5388 27.3666 -1.83834
478 1 41.4894 29.0165 -0.2113 41.4894 29.0165 -0.2113
479 2 43.331 29.0149 1.42802 43.331 29.0149 1.42802
480 2 43.4051 29.0186 -1.76796 43.4051 29.0186 -1.76796
481 1 44.4086 27.3703 -0.149463 44.4086 27.3703 -0.149463
482 2 -5.69032 27.379 1.14821 66.5488 27.379 1.14821
483 2 -4.86701 27.3457 -1.59771 67.3721 27.3457 -1.59771
484 1 -4.11545 29.0133 0.103617 68.1237 29.0133 0.103617
485 2 -2.1977 29.037 1.69989 70.0414 29.037 1.69989
486 2 -2.27521 28.9904 -1.5796 69.9639 28.9904 -1.5796
487 1 -1.28245 30.6601 0.0172992 -1.28245 30.6601 0.0172992
488 2 0.64989 30.6919 1.61153 0.64989 30.6919 1.61153
489 2 0.586779 30.6289 -1.64948 0.586779 30.6289 -1.64948
490 1 1.56821 32.3066 -0.0695181 1.56821 32.3066 -0.0695181
491 2 3.47426 32.3332 1.55629 3.47426 32.3332 1.55629
492 2 3.46437 32.2815 -1.70557 3.46437 32.2815 -1.70557
493 1 4.41991 30.6612 -0.0509484 4.41991 30.6612 -0.0509484
494 2 6.32804 30.6722 1.57198 6.32804 30.6722 1.57198
495 2 6.31361 30.6508 -1.69023 6.31361 30.6508 -1.69023
496 1 7.27094 32.3081 -0.0743546 7.27094 32.3081 -0.0743546
497 2 9.18 32.3171 1.5471 9.18 32.3171 1.5471
498 2 9.16365 32.2992 -1.71512 9.16365 32.2992 -1.71512
499 1 10.1221 30.6616 -0.0798955 10.1221 30.6616 -0.0798955
500 2 12.0373 30.6671 1.5342 12.0373 30.6671 1.5342
501 2 12.0086 30.6562 -1.72796 12.0086 30.6562 -1.72796
502 1 12.9734 32.3082 -0.110873 12.9734 32.3082 -0.110873
503 2 14.8831 32.3111 1.51007 14.8831 32.3111 1.51007
504 2 14.8657 32.3058 -1.75215 14.8657 32.3058 -1.75215
505 1 15.8248 30.662 -0.123327 15.8248 30.662 -0.123327
506 2 17.7342 30.6652 1.49815 17.7342 30.6652 1.49815
507 2 17.7175 30.6593 -1.76405 17.7175 30.6593 -1.76405
508 1 18.6767 32.3087 -0.140831 18.6767 32.3087 -0.140831
509 2 20.5809 32.3059 1.48684 20.5809 32.3059 1.48684
510 2 20.5748 32.3123 -1.77538 20.5748 32.3123 -1.77538
511 1 21.528 30.6624 -0.148861 21.528 30.6624 -0.148861
512 2 23.4325 30.6522 1.47852 23.4325 30.6522 1.47852
513 2 23.4257 30.6724 -1.78367 23.4257 30.6724 -1.78367
514 1 24.38 32.3086 -0.144129 24.38 32.3086 -0.144129
515 2 26.2836 32.3072 1.48418 26.2836 32.3072 1.48418
516 2 26.2785 32.309 -1.7781 26.2785 32.309 -1.7781
517 1 27.2309 30.6613 -0.149441 27.2309 30.6613 -0.149441
518 2 29.1378 30.6545 1.47484 29.1378 30.6545 1.47484
519 2 29.126 30.668 -1.78743 29.126 30.668 -1.78743
520 1 30.0828 32.3074 -0.153002 30.0828 32.3074 -0.153002
521 2 31.9858 32.2966 1.47577 31.9858 32.2966 1.47577
522 2 31.9818 32.3181 -1.78648 31.9818 32.3181 -1.78648
523 1 32.9342 30.6611 -0.167488 32.9342 30.6611 -0.167488
524 2 34.8398 30.6479 1.45812 34.8398 30.6479 1.45812
525 2 34.8308 30.6746 -1.80409 34.8308 30.6746 -1.80409
526 1 35.786 32.3074 -0.162063 35.786 32.3074 -0.162063
527 2 37.6892 32.2856 1.46649 37.6892 32.2856 1.46649
528 2 37.6849 32.3301 -1.79553 37.6849 32.3301 -1.79553
529 1 38.6377 30.662 -0.188438 38.6377 30.662 -0.188438
530 2 40.5394 30.6417 1.44217 40.5394 30.6417 1.44217
531 2 40.5385 30.6834 -1.82022 40.5385 30.6834 -1.82022
532 1 41.489 32.3084 -0.166911 41.489 32.3084 -0.166911
533 2 43.3674 32.3341 1.4313 43.3674 32.3341 1.4313
534 2 43.3681 32.2836 -1.76523 43.3681 32.2836 -1.76523
535 1 44.409 30.6628 -0.143867 44.409 30.6628 -0.143867
536 2 -5.6689 30.6777 1.13299 66.5702 30.6777 1.13299
537 2 -4.89217 30.6302 -1.63188 67.347 30.6302 -1.63188