ITEM: TIMESTEP
2936000
ITEM: NUMBER OF ATOMS
810
ITEM: BOX BOUNDS pp pp pp
-6.6666278088035424e+00 5.9684232808802605e+01
8.1394622342039402e-01 5.0202268776579182e+01
-1.0000000000000000e+01 1.0000000000000000e+01
ITEM: ATOMS id type x y z xu yu zu
1 1 -6.36337 1.02848 -0.160458 -6.36337 1.02848 -0.160458
2 2 -3.86464 1.02393 1.44635 -3.86464 1.02393 1.44635
3 2 -3.86243 1.0328 -1.76403 -3.86243 1.0328 -1.76403
4 1 -2.67854 2.67444 -0.153533 -2.67854 2.67444 -0.153533
5 2 -0.177086 2.67052 1.45119 -0.177086 2.67052 1.45119
6 2 -0.177986 2.67776 -1.75926 -0.177986 2.67776 -1.75926
7 1 1.00655 1.02765 -0.158057 1.00655 1.02765 -0.158057
8 2 3.51 1.02329 1.44656 3.51 1.02329 1.44656
9 2 3.50893 1.03116 -1.76396 3.50893 1.03116 -1.76396
10 1 4.6942 2.67332 -0.155 4.6942 2.67332 -0.155
11 2 7.19846 2.67156 1.44849 7.19846 2.67156 1.44849
12 2 7.19574 2.67467 -1.76205 7.19574 2.67467 -1.76205
13 1 8.38128 1.02672 -0.159277 8.38128 1.02672 -0.159277
14 2 10.8837 1.02449 1.44614 10.8837 1.02449 1.44614
15 2 10.8838 1.02854 -1.76439 10.8838 1.02854 -1.76439
16 1 12.0686 2.67259 -0.156916 12.0686 2.67259 -0.156916
17 2 14.5697 2.67208 1.44888 14.5697 2.67208 1.44888
18 2 14.5705 2.67312 -1.76156 14.5705 2.67312 -1.76156
19 1 15.7539 1.0261 -0.156698 15.7539 1.0261 -0.156698
20 2 18.255 1.02499 1.44863 18.255 1.02499 1.44863
21 2 18.255 1.02801 -1.76182 18.255 1.02801 -1.76182
22 1 19.4395 2.67286 -0.155037 19.4395 2.67286 -0.155037
23 2 21.9403 2.67155 1.44966 21.9403 2.67155 1.44966
24 2 21.9393 2.67505 -1.76084 21.9393 2.67505 -1.76084
25 1 23.1243 1.02729 -0.157743 23.1243 1.02729 -0.157743
26 2 25.626 1.02545 1.44664 25.626 1.02545 1.44664
27 2 25.625 1.03007 -1.76395 25.625 1.03007 -1.76395
28 1 26.81 2.67392 -0.156775 26.81 2.67392 -0.156775
29 2 29.3143 2.67082 1.44558 29.3143 2.67082 1.44558
30 2 29.3101 2.67801 -1.765 29.3101 2.67801 -1.765
31 1 30.4966 1.02842 -0.164927 30.4966 1.02842 -0.164927
32 2 33.001 1.0247 1.43687 33.001 1.0247 1.43687
33 2 32.9967 1.03312 -1.77369 32.9967 1.03312 -1.77369
34 1 34.1836 2.67509 -0.165683 34.1836 2.67509 -0.165683
35 2 36.6868 2.66943 1.43779 36.6868 2.66943 1.43779
36 2 36.6847 2.68208 -1.77271 36.6847 2.68208 -1.77271
37 1 37.8702 1.02963 -0.174655 37.8702 1.02963 -0.174655
38 2 40.3723 1.02418 1.43069 40.3723 1.02418 1.43069
39 2 40.3731 1.03594 -1.77985 40.3731 1.03594 -1.77985
40 1 41.5572 2.67636 -0.168338 41.5572 2.67636 -0.168338
41 2 44.0585 2.66802 1.43831 44.0585 2.66802 1.43831
42 2 44.0606 2.68505 -1.77216 44.0606 2.68505 -1.77216
43 1 45.244 1.03034 -0.174835 45.244 1.03034 -0.174835
44 2 47.7442 1.02422 1.43332 47.7442 1.02422 1.43332
45 2 47.7486 1.03659 -1.77719 47.7486 1.03659 -1.77719
46 1 48.9312 2.67655 -0.16405 48.9312 2.67655 -0.16405
47 2 51.4323 2.66925 1.44406 51.4323 2.66925 1.44406
48 2 51.4363 2.68357 -1.76646 51.4363 2.68357 -1.76646
49 1 52.6178 1.02971 -0.167144 52.6178 1.02971 -0.167144
50 2 55.1166 1.02368 1.4414 55.1166 1.02368 1.4414
51 2 55.1212 1.03539 -1.76899 55.1212 1.03539 -1.76899
52 1 56.3046 2.67531 -0.156186 56.3046 2.67531 -0.156186
53 2 58.8034 2.66959 1.45005 58.8034 2.66959 1.45005
54 2 58.8045 2.68082 -1.76028 58.8045 2.68082 -1.76028
55 1 -6.36191 4.32133 -0.148957 -6.36191 4.32133 -0.148957
56 2 -3.86205 4.31723 1.45591 -3.86205 4.31723 1.45591
57 2 -3.86265 4.32499 -1.75443 -3.86265 4.32499 -1.75443
58 1 -2.67752 5.96722 -0.145454 -2.67752 5.96722 -0.145454
59 2 -0.174572 5.96514 1.45756 -0.174572 5.96514 1.45756
60 2 -0.177676 5.96855 -1.75295 -0.177676 5.96855 -1.75295
61 1 1.00743 4.32016 -0.150644 1.00743 4.32016 -0.150644
62 2 3.51182 4.31898 1.45233 3.51182 4.31898 1.45233
63 2 3.50848 4.32062 -1.7582 3.50848 4.32062 -1.7582
64 1 4.69495 5.96585 -0.153148 4.69495 5.96585 -0.153148
65 2 7.19876 5.96609 1.4498 7.19876 5.96609 1.4498
66 2 7.19569 5.9651 -1.76077 7.19569 5.9651 -1.76077
67 1 8.38161 4.31933 -0.156022 8.38161 4.31933 -0.156022
68 2 10.885 4.31909 1.44861 10.885 4.31909 1.44861
69 2 10.8843 4.31905 -1.76191 10.8843 4.31905 -1.76191
70 1 12.0694 5.96524 -0.15685 12.0694 5.96524 -0.15685
71 2 14.5717 5.96792 1.44752 14.5717 5.96792 1.44752
72 2 14.5703 5.96247 -1.76291 14.5703 5.96247 -1.76291
73 1 15.755 4.31876 -0.155441 15.755 4.31876 -0.155441
74 2 18.2552 4.31937 1.44989 18.2552 4.31937 1.44989
75 2 18.2552 4.31881 -1.76051 18.2552 4.31881 -1.76051
76 1 19.4397 5.96542 -0.155533 19.4397 5.96542 -0.155533
77 2 21.9394 5.96588 1.45057 21.9394 5.96588 1.45057
78 2 21.9406 5.9656 -1.75986 21.9406 5.9656 -1.75986
79 1 23.1242 4.31955 -0.154136 23.1242 4.31955 -0.154136
80 2 25.6261 4.3184 1.45053 25.6261 4.3184 1.45053
81 2 25.625 4.32139 -1.76001 25.625 4.32139 -1.76001
82 1 26.81 5.96612 -0.153507 26.81 5.96612 -0.153507
83 2 29.3111 5.96182 1.45234 29.3111 5.96182 1.45234
84 2 29.3119 5.97125 -1.75819 29.3119 5.97125 -1.75819
85 1 30.4964 4.32072 -0.157514 30.4964 4.32072 -0.157514
86 2 32.9999 4.31514 1.44632 32.9999 4.31514 1.44632
87 2 32.9983 4.32708 -1.7642 32.9983 4.32708 -1.7642
88 1 34.1833 5.96756 -0.153385 34.1833 5.96756 -0.153385
89 2 36.6852 5.9592 1.45239 36.6852 5.9592 1.45239
90 2 36.6862 5.97711 -1.75814 36.6862 5.97711 -1.75814
91 1 37.8702 4.32214 -0.161677 37.8702 4.32214 -0.161677
92 2 40.3721 4.3146 1.44457 40.3721 4.3146 1.44457
93 2 40.3738 4.3306 -1.76595 40.3738 4.3306 -1.76595
94 1 41.5574 5.96889 -0.151817 41.5574 5.96889 -0.151817
95 2 44.0576 5.95953 1.4562 44.0576 5.95953 1.4562
96 2 44.0615 5.97862 -1.75429 44.0615 5.97862 -1.75429
97 1 45.2439 4.32288 -0.157474 45.2439 4.32288 -0.157474
98 2 47.7461 4.31413 1.44946 47.7461 4.31413 1.44946
99 2 47.748 4.33166 -1.76108 47.748 4.33166 -1.76108
100 1 48.9317 5.96902 -0.146118 48.9317 5.96902 -0.146118
101 2 51.4347 5.9614 1.46001 51.4347 5.9614 1.46001
102 2 51.4358 5.9761 -1.75053 51.4358 5.9761 -1.75053
103 1 52.6193 4.32234 -0.152435 52.6193 4.32234 -0.152435
104 2 55.1201 4.31612 1.45439 55.1201 4.31612 1.45439
105 2 55.1221 4.32789 -1.756 55.1221 4.32789 -1.756
106 1 56.3057 5.96823 -0.144 56.3057 5.96823 -0.144
107 2 58.8051 5.96294 1.46134 58.8051 5.96294 1.46134
108 2 58.8051 5.97288 -1.74906 58.8051 5.97288 -1.74906
109 1 -6.36142 7.61413 -0.138822 -6.36142 7.61413 -0.138822
110 2 -3.85961 7.61147 1.4635 -3.85961 7.61147 1.4635
111 2 -3.86378 7.61578 -1.74693 -3.86378 7.61578 -1.74693
112 1 -2.6773 9.25978 -0.140994 -2.6773 9.25978 -0.140994
113 2 -0.171059 9.26122 1.45892 -0.171059 9.26122 1.45892
114 2 -0.178363 9.25734 -1.75158 -0.178363 9.25734 -1.75158
115 1 1.00906 7.61267 -0.147053 1.00906 7.61267 -0.147053
116 2 3.51423 7.61315 1.45353 3.51423 7.61315 1.45353
117 2 3.50749 7.61144 -1.75697 3.50749 7.61144 -1.75697
118 1 4.6956 9.25836 -0.154921 4.6956 9.25836 -0.154921
119 2 7.20008 9.26256 1.44579 7.20008 9.26256 1.44579
120 2 7.1939 9.25346 -1.76471 7.1939 9.25346 -1.76471
121 1 8.38154 7.61181 -0.157033 8.38154 7.61181 -0.157033
122 2 10.887 7.61575 1.4455 10.887 7.61575 1.4455
123 2 10.8831 7.6074 -1.76505 10.8831 7.6074 -1.76505
124 1 12.0694 9.2579 -0.165258 12.0694 9.2579 -0.165258
125 2 14.5723 9.26382 1.43883 14.5723 9.26382 1.43883
126 2 14.5707 9.25204 -1.77161 14.5707 9.25204 -1.77161
127 1 15.7557 7.61154 -0.160785 15.7557 7.61154 -0.160785
128 2 18.2549 7.61507 1.44571 18.2549 7.61507 1.44571
129 2 18.2566 7.60861 -1.76463 18.2566 7.60861 -1.76463
130 1 19.4409 9.25796 -0.162039 19.4409 9.25796 -0.162039
131 2 21.939 9.26106 1.44647 21.939 9.26106 1.44647
132 2 21.9432 9.25555 -1.76393 21.9432 9.25555 -1.76393
133 1 23.1248 7.61186 -0.154357 23.1248 7.61186 -0.154357
134 2 25.6244 7.61037 1.45275 25.6244 7.61037 1.45275
135 2 25.6266 7.61393 -1.75773 25.6266 7.61393 -1.75773
136 1 26.8098 9.25851 -0.149827 26.8098 9.25851 -0.149827
137 2 29.3091 9.25642 1.45865 29.3091 9.25642 1.45865
138 2 29.3126 9.26144 -1.75184 29.3126 9.26144 -1.75184
139 1 30.4956 7.61296 -0.147809 30.4956 7.61296 -0.147809
140 2 32.9978 7.60632 1.45866 32.9978 7.60632 1.45866
141 2 32.9989 7.6205 -1.75185 32.9989 7.6205 -1.75185
142 1 34.1821 9.2601 -0.138838 34.1821 9.2601 -0.138838
143 2 36.6835 9.25209 1.46935 36.6835 9.25209 1.46935
144 2 36.6867 9.2692 -1.74119 36.6867 9.2692 -1.74119
145 1 37.8699 7.61465 -0.143405 37.8699 7.61465 -0.143405
146 2 40.3719 7.60424 1.46363 40.3719 7.60424 1.46363
147 2 40.3742 7.62593 -1.74686 40.3742 7.62593 -1.74686
148 1 41.5574 9.26141 -0.129722 41.5574 9.26141 -0.129722
149 2 44.0586 9.25127 1.47721 44.0586 9.25127 1.47721
150 2 44.0605 9.27184 -1.73326 44.0605 9.27184 -1.73326
151 1 45.2439 7.61534 -0.13791 45.2439 7.61534 -0.13791
152 2 47.7465 7.60533 1.46874 47.7465 7.60533 1.46874
153 2 47.7485 7.62535 -1.74178 47.7485 7.62535 -1.74178
154 1 48.932 9.26152 -0.12572 48.932 9.26152 -0.12572
155 2 51.4362 9.25223 1.47795 51.4362 9.25223 1.47795
156 2 51.4338 9.27008 -1.73255 51.4338 9.27008 -1.73255
157 1 52.6197 7.61494 -0.137299 52.6197 7.61494 -0.137299
158 2 55.1213 7.60884 1.46731 55.1213 7.60884 1.46731
159 2 55.1205 7.62016 -1.74307 55.1205 7.62016 -1.74307
160 1 56.3047 9.26101 -0.132289 56.3047 9.26101 -0.132289
161 2 58.806 9.25727 1.47072 58.806 9.25727 1.47072
162 2 58.8034 9.26359 -1.73967 58.8034 9.26359 -1.73967
163 1 -6.36232 10.9068 -0.132222 -6.36232 10.9068 -0.132222
164 2 -3.85779 10.9061 1.4671 -3.85779 10.9061 1.4671
165 2 -3.86578 10.9059 -1.74341 -3.86578 10.9059 -1.74341
166 1 -2.67766 12.5521 -0.141186 -2.67766 12.5521 -0.141186
167 2 -0.168582 12.5545 1.45547 -0.168582 12.5545 1.45547
168 2 -0.180167 12.5484 -1.75509 -0.180167 12.5484 -1.75509
169 1 1.01014 10.9052 -0.150807 1.01014 10.9052 -0.150807
170 2 3.51501 10.9088 1.44879 3.51501 10.9088 1.44879
171 2 3.50791 10.9008 -1.76171 3.50791 10.9008 -1.76171
172 1 4.69586 12.5509 -0.163201 4.69586 12.5509 -0.163201
173 2 7.201 12.557 1.43542 7.201 12.557 1.43542
174 2 7.19252 12.5439 -1.77507 7.19252 12.5439 -1.77507
175 1 8.38127 10.9042 -0.166214 8.38127 10.9042 -0.166214
176 2 10.8873 10.9108 1.43494 10.8873 10.9108 1.43494
177 2 10.8821 10.8974 -1.77559 10.8821 10.8974 -1.77559
178 1 12.0689 12.5504 -0.178943 12.0689 12.5504 -0.178943
179 2 14.5717 12.5575 1.42534 14.5717 12.5575 1.42534
180 2 14.5709 12.5432 -1.78513 14.5709 12.5432 -1.78513
181 1 15.756 10.9043 -0.17275 15.756 10.9043 -0.17275
182 2 18.2555 10.911 1.43511 18.2555 10.911 1.43511
183 2 18.2592 10.898 -1.77533 18.2592 10.898 -1.77533
184 1 19.4423 12.5505 -0.175261 19.4423 12.5505 -0.175261
185 2 21.9381 12.5565 1.43634 21.9381 12.5565 1.43634
186 2 21.9466 12.5453 -1.77399 21.9466 12.5453 -1.77399
187 1 23.1262 10.9044 -0.159945 23.1262 10.9044 -0.159945
188 2 25.622 10.9066 1.45082 25.622 10.9066 1.45082
189 2 25.6289 10.9028 -1.75955 25.6289 10.9028 -1.75955
190 1 26.8101 12.551 -0.153735 26.8101 12.551 -0.153735
191 2 29.3058 12.5514 1.459 29.3058 12.5514 1.459
192 2 29.3154 12.5515 -1.75145 29.3154 12.5515 -1.75145
193 1 30.4951 10.9054 -0.142667 30.4951 10.9054 -0.142667
194 2 32.9937 10.9023 1.46769 32.9937 10.9023 1.46769
195 2 33 10.9095 -1.7428 33 10.9095 -1.7428
196 1 34.1806 12.5526 -0.131541 34.1806 12.5526 -0.131541
197 2 36.6796 12.5483 1.48087 36.6796 12.5483 1.48087
198 2 36.6885 12.5578 -1.72969 36.6885 12.5578 -1.72969
199 1 37.8691 10.9072 -0.125978 37.8691 10.9072 -0.125978
200 2 40.371 10.8988 1.48298 40.371 10.8988 1.48298
201 2 40.375 10.9164 -1.72757 40.375 10.9164 -1.72757
202 1 41.5574 12.5539 -0.111889 41.5574 12.5539 -0.111889
203 2 44.0595 12.5471 1.49508 44.0595 12.5471 1.49508
204 2 44.0606 12.561 -1.71542 44.0606 12.561 -1.71542
205 1 45.2442 10.9077 -0.116791 45.2442 10.9077 -0.116791
206 2 47.7477 10.8994 1.48835 47.7477 10.8994 1.48835
207 2 47.7469 10.9159 -1.72218 47.7469 10.9159 -1.72218
208 1 48.931 12.5542 -0.108756 48.931 12.5542 -0.108756
209 2 51.4359 12.5488 1.49311 51.4359 12.5488 1.49311
210 2 51.4307 12.5586 -1.71737 51.4307 12.5586 -1.71737
211 1 52.6187 10.9076 -0.119067 52.6187 10.9076 -0.119067
212 2 55.123 10.9012 1.48142 55.123 10.9012 1.48142
213 2 55.1161 10.9131 -1.72896 55.1161 10.9131 -1.72896
214 1 56.3031 12.5536 -0.120174 56.3031 12.5536 -0.120174
215 2 58.8085 12.5522 1.47757 58.8085 12.5522 1.47757
216 2 58.7982 12.5536 -1.7329 58.7982 12.5536 -1.7329
217 1 -6.36418 14.1993 -0.130583 -6.36418 14.1993 -0.130583
218 2 -3.85651 14.2011 1.46562 -3.85651 14.2011 1.46562
219 2 -3.86848 14.1955 -1.74489 -3.86848 14.1955 -1.74489
220 1 -2.67865 15.8445 -0.146862 -2.67865 15.8445 -0.146862
221 2 -0.168675 15.8492 1.44761 -0.168675 15.8492 1.44761
222 2 -0.182703 15.8382 -1.76293 -0.182703 15.8382 -1.76293
223 1 1.00952 14.1977 -0.157085 1.00952 14.1977 -0.157085
224 2 3.51675 14.2037 1.43947 3.51675 14.2037 1.43947
225 2 3.50551 14.1906 -1.77095 3.50551 14.1906 -1.77095
226 1 4.69509 15.8434 -0.176439 4.69509 15.8434 -0.176439
227 2 7.20181 15.8514 1.42071 7.20181 15.8514 1.42071
228 2 7.19134 15.8345 -1.78974 7.19134 15.8345 -1.78974
229 1 8.38102 14.1966 -0.179534 8.38102 14.1966 -0.179534
230 2 10.8872 14.204 1.42083 10.8872 14.204 1.42083
231 2 10.8811 14.1892 -1.78967 10.8811 14.1892 -1.78967
232 1 12.0683 15.8429 -0.194095 12.0683 15.8429 -0.194095
233 2 14.5716 15.8508 1.41 14.5716 15.8508 1.41
234 2 14.5704 15.8349 -1.8005 14.5704 15.8349 -1.8005
235 1 15.7556 14.1967 -0.187353 15.7556 14.1967 -0.187353
236 2 18.2561 14.2038 1.42104 18.2561 14.2038 1.42104
237 2 18.2605 14.1899 -1.78942 18.2605 14.1899 -1.78942
238 1 19.4428 15.8432 -0.189574 19.4428 15.8432 -0.189574
239 2 21.9376 15.8497 1.42347 21.9376 15.8497 1.42347
240 2 21.9483 15.8373 -1.78684 21.9483 15.8373 -1.78684
241 1 23.1272 14.1972 -0.171333 23.1272 14.1972 -0.171333
242 2 25.62 14.2011 1.44317 25.62 14.2011 1.44317
243 2 25.6324 14.1938 -1.76718 25.6324 14.1938 -1.76718
244 1 26.8109 15.8438 -0.161213 26.8109 15.8438 -0.161213
245 2 29.3029 15.8452 1.45581 29.3029 15.8452 1.45581
246 2 29.318 15.8433 -1.75448 29.318 15.8433 -1.75448
247 1 30.4948 14.1979 -0.14271 30.4948 14.1979 -0.14271
248 2 32.9899 14.196 1.47184 32.9899 14.196 1.47184
249 2 33.0016 14.2011 -1.7386 33.0016 14.2011 -1.7386
250 1 34.1799 15.8451 -0.12654 34.1799 15.8451 -0.12654
251 2 36.6782 15.8428 1.48784 36.6782 15.8428 1.48784
252 2 36.689 15.8486 -1.72276 36.689 15.8486 -1.72276
253 1 37.8681 14.1996 -0.116322 37.8681 14.1996 -0.116322
254 2 40.3691 14.1954 1.4954 40.3691 14.1954 1.4954
255 2 40.377 14.2048 -1.71517 40.377 14.2048 -1.71517
256 1 41.5576 15.8464 -0.10228 41.5576 15.8464 -0.10228
257 2 44.0587 15.8423 1.5058 44.0587 15.8423 1.5058
258 2 44.0614 15.8507 -1.70461 44.0614 15.8507 -1.70461
259 1 45.2446 14.2002 -0.102646 45.2446 14.2002 -0.102646
260 2 47.7466 14.1958 1.50172 47.7466 14.1958 1.50172
261 2 47.7446 14.2046 -1.70875 47.7446 14.2046 -1.70875
262 1 48.9289 15.8469 -0.0997688 48.9289 15.8469 -0.0997688
263 2 51.4354 15.8456 1.49996 51.4354 15.8456 1.49996
264 2 51.4275 15.8472 -1.71054 51.4275 15.8472 -1.71054
265 1 52.6167 14.2003 -0.108971 52.6167 14.2003 -0.108971
266 2 55.1223 14.1984 1.48964 55.1223 14.1984 1.48964
267 2 55.1132 14.2009 -1.72075 55.1132 14.2009 -1.72075
268 1 56.301 15.8462 -0.117688 56.301 15.8462 -0.117688
269 2 58.808 15.8475 1.47733 58.808 15.8475 1.47733
270 2 58.7944 15.8431 -1.73311 58.7944 15.8431 -1.73311
271 1 -6.3662 17.4916 -0.1352 -6.3662 17.4916 -0.1352
272 2 -3.85571 17.4969 1.4578 -3.85571 17.4969 1.4578
273 2 -3.87209 17.4841 -1.75263 -3.87209 17.4841 -1.75263
274 1 -2.68033 19.1368 -0.159789 -2.68033 19.1368 -0.159789
275 2 -0.170473 19.1441 1.43392 -0.170473 19.1441 1.43392
276 2 -0.185063 19.128 -1.77661 -0.185063 19.128 -1.77661
277 1 1.00774 17.4902 -0.168458 1.00774 17.4902 -0.168458
278 2 3.51689 17.4968 1.42618 3.51689 17.4968 1.42618
279 2 3.50316 17.4821 -1.78428 3.50316 17.4821 -1.78428
280 1 4.69379 19.1358 -0.191642 4.69379 19.1358 -0.191642
281 2 7.20193 19.1425 1.40491 7.20193 19.1425 1.40491
282 2 7.19103 19.1281 -1.80559 7.19103 19.1281 -1.80559
283 1 8.38099 17.489 -0.196853 8.38099 17.489 -0.196853
284 2 10.8859 17.4978 1.40389 10.8859 17.4978 1.40389
285 2 10.8811 17.4802 -1.8066 10.8811 17.4802 -1.8066
286 1 12.0676 19.1353 -0.212026 12.0676 19.1353 -0.212026
287 2 14.5697 19.1412 1.39446 14.5697 19.1412 1.39446
288 2 14.5725 19.1294 -1.81605 14.5725 19.1294 -1.81605
289 1 15.7555 17.489 -0.20362 15.7555 17.489 -0.20362
290 2 18.2545 17.4955 1.40654 18.2545 17.4955 1.40654
291 2 18.2616 17.483 -1.80394 18.2616 17.483 -1.80394
292 1 19.4418 19.1358 -0.202413 19.4418 19.1358 -0.202413
293 2 21.9355 19.1399 1.41233 21.9355 19.1399 1.41233
294 2 21.9485 19.1322 -1.79804 21.9485 19.1322 -1.79804
295 1 23.1271 17.4901 -0.184001 23.1271 17.4901 -0.184001
296 2 25.6187 17.4947 1.4334 25.6187 17.4947 1.4334
297 2 25.6349 17.4857 -1.77697 25.6349 17.4857 -1.77697
298 1 26.811 19.1367 -0.170347 26.811 19.1367 -0.170347
299 2 29.3013 19.1407 1.44951 29.3013 19.1407 1.44951
300 2 29.3206 19.1332 -1.76085 29.3206 19.1332 -1.76085
301 1 30.495 17.4907 -0.144799 30.495 17.4907 -0.144799
302 2 32.988 17.4918 1.47257 32.988 17.4918 1.47257
303 2 33.003 17.4908 -1.73787 33.003 17.4908 -1.73787
304 1 34.1801 19.1376 -0.127693 34.1801 19.1376 -0.127693
305 2 36.6766 19.1389 1.48889 36.6766 19.1389 1.48889
306 2 36.6907 19.1375 -1.72169 36.6907 19.1375 -1.72169
307 1 37.868 17.492 -0.110603 37.868 17.492 -0.110603
308 2 40.3692 17.4912 1.50149 40.3692 17.4912 1.50149
309 2 40.377 17.4938 -1.70914 40.377 17.4938 -1.70914
310 1 41.557 19.139 -0.0997174 41.557 19.139 -0.0997174
311 2 44.0567 19.1399 1.50886 44.0567 19.1399 1.50886
312 2 44.0604 19.1382 -1.70157 44.0604 19.1382 -1.70157
313 1 45.2439 17.4931 -0.0942888 45.2439 17.4931 -0.0942888
314 2 47.7461 17.4921 1.50813 47.7461 17.4921 1.50813
315 2 47.7413 17.4939 -1.7023 47.7413 17.4939 -1.7023
316 1 48.9274 19.1395 -0.0980292 48.9274 19.1395 -0.0980292
317 2 51.4351 19.1412 1.4995 51.4351 19.1412 1.4995
318 2 51.4243 19.1368 -1.71092 51.4243 19.1368 -1.71092
319 1 52.615 17.4929 -0.107401 52.615 17.4929 -0.107401
320 2 55.1216 17.4953 1.48884 55.1216 17.4953 1.48884
321 2 55.1095 17.4891 -1.72157 55.1095 17.4891 -1.72157
322 1 56.2989 19.1387 -0.123989 56.2989 19.1387 -0.123989
323 2 58.8069 19.1434 1.46966 58.8069 19.1434 1.46966
324 2 58.7919 19.1319 -1.74077 58.7919 19.1319 -1.74077
325 1 -6.36775 20.7839 -0.147071 -6.36775 20.7839 -0.147071
326 2 -3.85713 20.7897 1.4447 -3.85713 20.7897 1.4447
327 2 -3.87439 20.776 -1.76571 -3.87439 20.776 -1.76571
328 1 -2.68231 22.4292 -0.17385 -2.68231 22.4292 -0.17385
329 2 -0.17294 22.4339 1.4199 -0.17294 22.4339 1.4199
330 2 -0.187343 22.4229 -1.79062 -0.187343 22.4229 -1.79062
331 1 1.00543 20.7825 -0.184931 1.00543 20.7825 -0.184931
332 2 3.51384 20.7878 1.41135 3.51384 20.7878 1.41135
333 2 3.50326 20.7756 -1.79921 3.50326 20.7756 -1.79921
334 1 4.69214 22.4281 -0.204234 4.69214 22.4281 -0.204234
335 2 7.20072 22.4318 1.39288 7.20072 22.4318 1.39288
336 2 7.19033 22.4232 -1.81767 7.19033 22.4232 -1.81767
337 1 8.38055 20.7815 -0.2116 8.38055 20.7815 -0.2116
338 2 10.8854 20.7869 1.38924 10.8854 20.7869 1.38924
339 2 10.8805 20.7759 -1.82133 10.8805 20.7759 -1.82133
340 1 12.0671 22.4276 -0.223351 12.0671 22.4276 -0.223351
341 2 14.5686 22.431 1.38436 14.5686 22.431 1.38436
342 2 14.5728 22.4243 -1.82615 14.5728 22.4243 -1.82615
343 1 15.7555 20.7816 -0.215764 15.7555 20.7816 -0.215764
344 2 18.2518 20.7845 1.3963 18.2518 20.7845 1.3963
345 2 18.2615 20.779 -1.81413 18.2615 20.779 -1.81413
346 1 19.4402 22.4284 -0.208244 19.4402 22.4284 -0.208244
347 2 21.934 22.4312 1.40618 21.934 22.4312 1.40618
348 2 21.9458 22.4263 -1.80419 21.9458 22.4263 -1.80419
349 1 23.1253 20.7829 -0.191984 23.1253 20.7829 -0.191984
350 2 25.6179 20.7857 1.42584 25.6179 20.7857 1.42584
351 2 25.6346 20.7802 -1.78451 25.6346 20.7802 -1.78451
352 1 26.8099 22.4296 -0.17592 26.8099 22.4296 -0.17592
353 2 29.302 22.4324 1.4434 29.302 22.4324 1.4434
354 2 29.3202 22.4273 -1.76694 29.3202 22.4273 -1.76694
355 1 30.4954 20.7834 -0.152417 30.4954 20.7834 -0.152417
356 2 32.986 20.7859 1.46818 32.986 20.7859 1.46818
357 2 33.0061 20.782 -1.74223 33.0061 20.782 -1.74223
358 1 34.1806 22.4303 -0.13187 34.1806 22.4303 -0.13187
359 2 36.6757 22.4328 1.48559 36.6757 22.4328 1.48559
360 2 36.6907 22.4286 -1.72491 36.6907 22.4286 -1.72491
361 1 37.8679 20.7846 -0.112062 37.8679 20.7846 -0.112062
362 2 40.3672 20.786 1.50105 40.3672 20.786 1.50105
363 2 40.3764 20.7838 -1.70949 40.3764 20.7838 -1.70949
364 1 41.5551 22.4317 -0.102095 41.5551 22.4317 -0.102095
365 2 44.0557 22.436 1.50464 44.0557 22.436 1.50464
366 2 44.0563 22.4275 -1.70579 44.0563 22.4275 -1.70579
367 1 45.2416 20.7859 -0.0960634 45.2416 20.7859 -0.0960634
368 2 47.7452 20.7886 1.50614 47.7452 20.7886 1.50614
369 2 47.74 20.7828 -1.70434 47.74 20.7828 -1.70434
370 1 48.9264 22.4321 -0.104144 48.9264 22.4321 -0.104144
371 2 51.4346 22.4374 1.49205 51.4346 22.4374 1.49205
372 2 51.4222 22.4261 -1.71834 51.4222 22.4261 -1.71834
373 1 52.6133 20.7855 -0.111963 52.6133 20.7855 -0.111963
374 2 55.1214 20.7898 1.48174 55.1214 20.7898 1.48174
375 2 55.1058 20.7798 -1.72862 55.1058 20.7798 -1.72862
376 1 56.2974 22.4311 -0.134291 56.2974 22.4311 -0.134291
377 2 58.8068 22.4368 1.45762 58.8068 22.4368 1.45762
378 2 58.7895 22.4234 -1.75276 58.7895 22.4234 -1.75276
379 1 -6.3688 24.0763 -0.160842 -6.3688 24.0763 -0.160842
380 2 -3.85986 24.0804 1.43184 -3.85986 24.0804 1.43184
381 2 -3.87545 24.0702 -1.77857 -3.87545 24.0702 -1.77857
382 1 -2.6841 25.7216 -0.184414 -2.6841 25.7216 -0.184414
383 2 -0.176118 25.7231 1.41089 -0.176118 25.7231 1.41089
384 2 -0.1881 25.7182 -1.79966 -0.1881 25.7182 -1.79966
385 1 1.00324 24.0747 -0.196294 1.00324 24.0747 -0.196294
386 2 3.51187 24.0785 1.40036 3.51187 24.0785 1.40036
387 2 3.50169 24.0695 -1.81023 3.50169 24.0695 -1.81023
388 1 4.69028 25.7204 -0.213285 4.69028 25.7204 -0.213285
389 2 7.19749 25.7205 1.38643 7.19749 25.7205 1.38643
390 2 7.19108 25.7193 -1.82414 7.19108 25.7193 -1.82414
391 1 8.37935 24.0739 -0.220528 8.37935 24.0739 -0.220528
392 2 10.8841 24.0752 1.38149 10.8841 24.0752 1.38149
393 2 10.8806 24.0723 -1.82911 10.8806 24.0723 -1.82911
394 1 12.0663 25.7201 -0.226463 12.0663 25.7201 -0.226463
395 2 14.5668 25.7195 1.38152 14.5668 25.7195 1.38152
396 2 14.5715 25.721 -1.82899 14.5715 25.721 -1.82899
397 1 15.7544 24.0743 -0.222653 15.7544 24.0743 -0.222653
398 2 18.2494 24.0767 1.39046 18.2494 24.0767 1.39046
399 2 18.2607 24.0721 -1.81993 18.2607 24.0721 -1.81993
400 1 19.4386 25.7211 -0.212974 19.4386 25.7211 -0.212974
401 2 21.9315 25.7226 1.40203 21.9315 25.7226 1.40203
402 2 21.9448 25.7202 -1.8084 21.9448 25.7202 -1.8084
403 1 23.1233 24.0755 -0.196981 23.1233 24.0755 -0.196981
404 2 25.6168 24.0784 1.4205 25.6168 24.0784 1.4205
405 2 25.6329 24.0729 -1.78997 25.6329 24.0729 -1.78997
406 1 26.8084 25.7223 -0.18157 26.8084 25.7223 -0.18157
407 2 29.3019 25.7257 1.43768 29.3019 25.7257 1.43768
408 2 29.3201 25.7195 -1.77273 29.3201 25.7195 -1.77273
409 1 30.4956 24.0763 -0.157579 30.4956 24.0763 -0.157579
410 2 32.9867 24.0801 1.4627 32.9867 24.0801 1.4627
411 2 33.0061 24.0732 -1.74767 33.0061 24.0732 -1.74767
412 1 34.1806 25.7231 -0.139047 34.1806 25.7231 -0.139047
413 2 36.6757 25.7301 1.4772 36.6757 25.7301 1.4772
414 2 36.6892 25.7169 -1.73319 36.6892 25.7169 -1.73319
415 1 37.8672 24.0773 -0.116413 37.8672 24.0773 -0.116413
416 2 40.366 24.0827 1.49531 40.366 24.0827 1.49531
417 2 40.3731 24.0724 -1.71513 40.3731 24.0724 -1.71513
418 1 41.5529 25.7243 -0.112685 41.5529 25.7243 -0.112685
419 2 44.0539 25.7313 1.49341 44.0539 25.7313 1.49341
420 2 44.054 25.7174 -1.71708 44.054 25.7174 -1.71708
421 1 45.2392 24.0784 -0.104755 45.2392 24.0784 -0.104755
422 2 47.7441 24.0847 1.49668 47.7441 24.0847 1.49668
423 2 47.7384 24.0717 -1.7138 47.7384 24.0717 -1.7138
424 1 48.9249 25.7246 -0.117446 48.9249 25.7246 -0.117446
425 2 51.4334 25.7308 1.47922 51.4334 25.7308 1.47922
426 2 51.4217 25.7176 -1.73128 51.4217 25.7176 -1.73128
427 1 52.6124 24.078 -0.12358 52.6124 24.078 -0.12358
428 2 55.1203 24.0838 1.4699 55.1203 24.0838 1.4699
429 2 55.105 24.0708 -1.74047 55.105 24.0708 -1.74047
430 1 56.2967 25.7234 -0.147656 56.2967 25.7234 -0.147656
431 2 58.805 25.7274 1.4451 58.805 25.7274 1.4451
432 2 58.7892 25.7176 -1.76527 58.7892 25.7176 -1.76527
433 1 -6.36992 27.3688 -0.171027 -6.36992 27.3688 -0.171027
434 2 -3.86226 27.3704 1.42322 -3.86226 27.3704 1.42322
435 2 -3.8762 27.3653 -1.78718 -3.8762 27.3653 -1.78718
436 1 -2.68536 29.0141 -0.189694 -2.68536 29.0141 -0.189694
437 2 -0.178114 29.0135 1.40726 -0.178114 29.0135 1.40726
438 2 -0.188449 29.0129 -1.80326 -0.188449 29.0129 -1.80326
439 1 1.00157 27.367 -0.201445 1.00157 27.367 -0.201445
440 2 3.50978 27.366 1.39591 3.50978 27.366 1.39591
441 2 3.50007 27.3667 -1.81464 3.50007 27.3667 -1.81464
442 1 4.6888 29.0127 -0.212517 4.6888 29.0127 -0.212517
443 2 7.19585 29.0095 1.38838 7.19585 29.0095 1.38838
444 2 7.1905 29.0154 -1.82218 7.1905 29.0154 -1.82218
445 1 8.37815 27.3663 -0.221769 8.37815 27.3663 -0.221769
446 2 10.8819 27.3634 1.38199 10.8819 27.3634 1.38199
447 2 10.8807 27.3691 -1.82854 10.8807 27.3691 -1.82854
448 1 12.0652 29.0128 -0.220807 12.0652 29.0128 -0.220807
449 2 14.5661 29.0098 1.38609 14.5661 29.0098 1.38609
450 2 14.5688 29.0161 -1.82439 14.5688 29.0161 -1.82439
451 1 15.7526 27.367 -0.221262 15.7526 27.367 -0.221262
452 2 18.2494 27.3665 1.38975 18.2494 27.3665 1.38975
453 2 18.2576 27.3677 -1.82063 18.2576 27.3677 -1.82063
454 1 19.4374 29.0137 -0.211745 19.4374 29.0137 -0.211745
455 2 21.9309 29.0136 1.40185 21.9309 29.0136 1.40185
456 2 21.9423 29.0144 -1.80857 21.9423 29.0144 -1.80857
457 1 23.1217 27.368 -0.199551 23.1217 27.368 -0.199551
458 2 25.6159 27.3692 1.41713 25.6159 27.3692 1.41713
459 2 25.631 27.3675 -1.79337 25.631 27.3675 -1.79337
460 1 26.8074 29.0148 -0.183461 26.8074 29.0148 -0.183461
461 2 29.3028 29.0183 1.43289 29.3028 29.0183 1.43289
462 2 29.317 29.0123 -1.7775 29.317 29.0123 -1.7775
463 1 30.4949 27.3692 -0.163977 30.4949 27.3692 -0.163977
464 2 32.9878 27.3753 1.45417 32.9878 27.3753 1.45417
465 2 33.0045 27.3637 -1.75619 33.0045 27.3637 -1.75619
466 1 34.1803 29.0161 -0.150916 34.1803 29.0161 -0.150916
467 2 36.6761 29.0242 1.46325 36.6761 29.0242 1.46325
468 2 36.6874 29.0085 -1.74715 36.6874 29.0085 -1.74715
469 1 37.8664 27.3701 -0.129896 37.8664 27.3701 -0.129896
470 2 40.364 27.3786 1.48147 40.364 27.3786 1.48147
471 2 40.3714 27.362 -1.72894 40.3714 27.362 -1.72894
472 1 41.5516 29.0168 -0.12965 41.5516 29.0168 -0.12965
473 2 44.0515 29.0247 1.4774 44.0515 29.0247 1.4774
474 2 44.0534 29.0088 -1.73299 44.0534 29.0088 -1.73299
475 1 45.2375 27.3708 -0.119111 45.2375 27.3708 -0.119111
476 2 47.7426 27.3782 1.48224 47.7426 27.3782 1.48224
477 2 47.7369 27.363 -1.72822 47.7369 27.363 -1.72822
478 1 48.9238 29.0169 -0.13299 48.9238 29.0169 -0.13299
479 2 51.4316 29.0234 1.46478 51.4316 29.0234 1.46478
480 2 51.4215 29.0097 -1.74572 51.4215 29.0097 -1.74572
481 1 52.6115 27.3705 -0.13727 52.6115 27.3705 -0.13727
482 2 55.1194 27.3759 1.45667 55.1194 27.3759 1.45667
483 2 55.1046 27.3636 -1.75364 55.1046 27.3636 -1.75364
484 1 56.2962 29.0159 -0.160143 56.2962 29.0159 -0.160143
485 2 58.8021 29.0182 1.43545 58.8021 29.0182 1.43545
486 2 58.7901 29.012 -1.77495 58.7901 29.012 -1.77495
487 1 -6.3708 30.6613 -0.177428 -6.3708 30.6613 -0.177428
488 2 -3.86477 30.6607 1.41917 -3.86477 30.6607 1.41917
489 2 -3.87541 30.6602 -1.79122 -3.87541 30.6602 -1.79122
490 1 -2.68576 32.3066 -0.190261 -2.68576 32.3066 -0.190261
491 2 -0.179586 32.3033 1.40862 -0.179586 32.3033 1.40862
492 2 -0.187421 32.3085 -1.80187 -0.187421 32.3085 -1.80187
493 1 1.00087 30.6594 -0.202113 1.00087 30.6594 -0.202113
494 2 3.50723 30.6563 1.3978 3.50723 30.6563 1.3978
495 2 3.50101 30.6617 -1.81276 3.50101 30.6617 -1.81276
496 1 4.68845 32.3052 -0.207024 4.68845 32.3052 -0.207024
497 2 7.19386 32.3004 1.3954 7.19386 32.3004 1.3954
498 2 7.19086 32.3098 -1.8151 7.19086 32.3098 -1.8151
499 1 8.37715 30.6589 -0.215724 8.37715 30.6589 -0.215724
500 2 10.8805 30.6549 1.38866 10.8805 30.6549 1.38866
501 2 10.8798 30.6628 -1.82186 10.8798 30.6628 -1.82186
502 1 12.0638 32.3055 -0.21277 12.0638 32.3055 -0.21277
503 2 14.5646 32.3004 1.39443 14.5646 32.3004 1.39443
504 2 14.5679 32.3108 -1.81606 14.5679 32.3108 -1.81606
505 1 15.7512 30.6596 -0.214913 15.7512 30.6596 -0.214913
506 2 18.2495 30.6561 1.3948 18.2495 30.6561 1.3948
507 2 18.2557 30.6635 -1.81562 18.2557 30.6635 -1.81562
508 1 19.4366 32.3063 -0.204354 19.4366 32.3063 -0.204354
509 2 21.9324 32.3038 1.40654 21.9324 32.3038 1.40654
510 2 21.9399 32.3095 -1.80388 21.9399 32.3095 -1.80388
511 1 23.1206 30.6604 -0.198688 23.1206 30.6604 -0.198688
512 2 25.6159 30.6613 1.41645 25.6159 30.6613 1.41645
513 2 25.6295 30.6605 -1.79409 25.6295 30.6605 -1.79409
514 1 26.8068 32.3074 -0.184431 26.8068 32.3074 -0.184431
515 2 29.3037 32.3101 1.42907 29.3037 32.3101 1.42907
516 2 29.3145 32.3061 -1.78141 29.3145 32.3061 -1.78141
517 1 30.4938 30.6619 -0.17013 30.4938 30.6619 -0.17013
518 2 32.9899 30.6679 1.44437 32.9899 30.6679 1.44437
519 2 33.0016 30.6568 -1.76605 33.0016 30.6568 -1.76605
520 1 34.1797 32.3089 -0.162223 34.1797 32.3089 -0.162223
521 2 36.6772 32.3166 1.44904 36.6772 32.3166 1.44904
522 2 36.6849 32.3019 -1.76139 36.6849 32.3019 -1.76139
523 1 37.8657 30.663 -0.145895 37.8657 30.663 -0.145895
524 2 40.3641 30.6715 1.46467 40.3641 30.6715 1.46467
525 2 40.3708 30.6548 -1.74573 40.3708 30.6548 -1.74573
526 1 41.5522 32.3093 -0.146731 41.5522 32.3093 -0.146731
527 2 44.0516 32.3181 1.4603 44.0516 32.3181 1.4603
528 2 44.0536 32.3007 -1.7501 44.0536 32.3007 -1.7501
529 1 45.2367 30.663 -0.135458 45.2367 30.663 -0.135458
530 2 47.7412 30.6702 1.46665 47.7412 30.6702 1.46665
531 2 47.7366 30.6556 -1.74388 47.7366 30.6556 -1.74388
532 1 48.923 32.3091 -0.147935 48.923 32.3091 -0.147935
533 2 51.4298 32.3146 1.45127 51.4298 32.3146 1.45127
534 2 51.4214 32.3031 -1.75925 51.4214 32.3031 -1.75925
535 1 52.6105 30.6628 -0.151217 52.6105 30.6628 -0.151217
536 2 55.117 30.6657 1.44554 55.117 30.6657 1.44554
537 2 55.1062 30.6589 -1.76483 55.1062 30.6589 -1.76483