ITEM: TIMESTEP
2815000
ITEM: NUMBER OF ATOMS
810
ITEM: BOX BOUNDS pp pp pp
-6.3563134096565754e+00 5.9373918409655644e+01
8.1394622342039402e-01 5.0202268776579182e+01
-1.0000000000000000e+01 1.0000000000000000e+01
ITEM: ATOMS id type x y z xu yu zu
1 1 -6.05465 1.02785 -0.16563 -6.05465 1.02785 -0.16563
2 2 -3.58117 1.02837 1.43225 -3.58117 1.02837 1.43225
3 2 -3.59046 1.02638 -1.77707 -3.59046 1.02638 -1.77707
4 1 -2.40199 2.67334 -0.176843 -2.40199 2.67334 -0.176843
5 2 0.0710544 2.67288 1.42163 0.0710544 2.67288 1.42163
6 2 0.0627334 2.67314 -1.7877 0.0627334 2.67314 -1.7877
7 1 1.24975 1.02655 -0.186175 1.24975 1.02655 -0.186175
8 2 3.72343 1.02302 1.41101 3.72343 1.02302 1.41101
9 2 3.71374 1.02997 -1.79832 3.71374 1.02997 -1.79832
10 1 4.90237 2.67253 -0.19362 4.90237 2.67253 -0.19362
11 2 7.37337 2.66796 1.40697 7.37337 2.66796 1.40697
12 2 7.3683 2.67726 -1.80237 7.3683 2.67726 -1.80237
13 1 8.55378 1.02627 -0.204288 8.55378 1.02627 -0.204288
14 2 11.0239 1.0216 1.3979 11.0239 1.0216 1.3979
15 2 11.0211 1.03149 -1.81144 11.0211 1.03149 -1.81144
16 1 12.2061 2.67276 -0.202666 12.2061 2.67276 -0.202666
17 2 14.6745 2.66706 1.40222 14.6745 2.66706 1.40222
18 2 14.6753 2.67945 -1.80711 14.6753 2.67945 -1.80711
19 1 15.858 1.02702 -0.20851 15.858 1.02702 -0.20851
20 2 18.3249 1.02257 1.39814 18.3249 1.02257 1.39814
21 2 18.3281 1.03283 -1.81122 18.3281 1.03283 -1.81122
22 1 19.5103 2.67391 -0.200099 19.5103 2.67391 -0.200099
23 2 21.9761 2.66731 1.40903 21.9761 2.66731 1.40903
24 2 21.9825 2.68185 -1.80031 21.9825 2.68185 -1.80031
25 1 23.1621 1.02832 -0.200737 23.1621 1.02832 -0.200737
26 2 25.6262 1.02498 1.41049 25.6262 1.02498 1.41049
27 2 25.6354 1.03285 -1.79883 25.6354 1.03285 -1.79883
28 1 26.8147 2.67501 -0.186805 26.8147 2.67501 -0.186805
29 2 29.279 2.67141 1.42375 29.279 2.67141 1.42375
30 2 29.287 2.6796 -1.78561 29.287 2.6796 -1.78561
31 1 30.4656 1.02915 -0.182282 30.4656 1.02915 -0.182282
32 2 32.9301 1.02845 1.4285 32.9301 1.02845 1.4285
33 2 32.9382 1.0309 -1.78086 32.9382 1.0309 -1.78086
34 1 34.1182 2.67573 -0.172014 34.1182 2.67573 -0.172014
35 2 36.5838 2.67553 1.43699 36.5838 2.67553 1.43699
36 2 36.5896 2.677 -1.77233 36.5896 2.677 -1.77233
37 1 37.7692 1.02982 -0.166341 37.7692 1.02982 -0.166341
38 2 40.2343 1.03329 1.44313 40.2343 1.03329 1.44313
39 2 40.2405 1.02732 -1.76617 40.2405 1.02732 -1.76617
40 1 41.4215 2.67641 -0.162309 41.4215 2.67641 -0.162309
41 2 43.8876 2.6812 1.44493 43.8876 2.6812 1.44493
42 2 43.8911 2.67207 -1.76432 43.8911 2.67207 -1.76432
43 1 45.072 1.03009 -0.153854 45.072 1.03009 -0.153854
44 2 47.5387 1.03586 1.4518 47.5387 1.03586 1.4518
45 2 47.5395 1.0243 -1.75743 47.5395 1.0243 -1.75743
46 1 48.7229 2.67617 -0.158471 48.7229 2.67617 -0.158471
47 2 51.1908 2.68177 1.44499 51.1908 2.68177 1.44499
48 2 51.1891 2.67005 -1.76426 51.1891 2.67005 -1.76426
49 1 52.3727 1.02934 -0.154267 52.3727 1.02934 -0.154267
50 2 54.8431 1.03393 1.44687 54.8431 1.03393 1.44687
51 2 54.8381 1.02403 -1.76241 54.8381 1.02403 -1.76241
52 1 56.0244 2.67498 -0.164669 56.0244 2.67498 -0.164669
53 2 58.4953 2.67889 1.43632 58.4953 2.67889 1.43632
54 2 58.4903 2.66996 -1.773 58.4903 2.66996 -1.773
55 1 -6.05376 4.3204 -0.174782 -6.05376 4.3204 -0.174782
56 2 -3.58227 4.32356 1.42592 -3.58227 4.32356 1.42592
57 2 -3.58754 4.31609 -1.78339 -3.58754 4.31609 -1.78339
58 1 -2.40123 5.96582 -0.184469 -2.40123 5.96582 -0.184469
59 2 0.0685068 5.96623 1.41854 0.0685068 5.96623 1.41854
60 2 0.066689 5.96461 -1.79079 0.066689 5.96461 -1.79079
61 1 1.25065 4.31902 -0.185967 1.25065 4.31902 -0.185967
62 2 3.72161 4.3164 1.41519 3.72161 4.3164 1.41519
63 2 3.71708 4.32136 -1.79416 3.71708 4.32136 -1.79416
64 1 4.90283 5.965 -0.188649 4.90283 5.965 -0.188649
65 2 7.37169 5.96033 1.41507 7.37169 5.96033 1.41507
66 2 7.37058 5.96964 -1.79427 7.37058 5.96964 -1.79427
67 1 8.55437 4.31877 -0.194775 8.55437 4.31877 -0.194775
68 2 11.0238 4.31328 1.40844 11.0238 4.31328 1.40844
69 2 11.0221 4.3247 -1.8009 11.0221 4.3247 -1.8009
70 1 12.2064 5.96522 -0.190914 12.2064 5.96522 -0.190914
71 2 14.6743 5.95874 1.41518 14.6743 5.95874 1.41518
72 2 14.6763 5.97257 -1.79416 14.6763 5.97257 -1.79416
73 1 15.8585 4.31949 -0.195744 15.8585 4.31949 -0.195744
74 2 18.3252 4.31149 1.41182 18.3252 4.31149 1.41182
75 2 18.3293 4.3287 -1.79752 18.3293 4.3287 -1.79752
76 1 19.5108 5.96632 -0.182559 19.5108 5.96632 -0.182559
77 2 21.9774 5.95816 1.42595 21.9774 5.95816 1.42595
78 2 21.9824 5.97567 -1.78337 21.9824 5.97567 -1.78337
79 1 23.163 4.32075 -0.185885 23.163 4.32075 -0.185885
80 2 25.6289 4.31417 1.42306 25.6289 4.31417 1.42306
81 2 25.6347 4.32836 -1.78626 25.6347 4.32836 -1.78626
82 1 26.8154 5.96747 -0.172224 26.8154 5.96747 -0.172224
83 2 29.2816 5.96152 1.43574 29.2816 5.96152 1.43574
84 2 29.286 5.9742 -1.77361 29.286 5.9742 -1.77361
85 1 30.4668 4.32162 -0.173877 30.4668 4.32162 -0.173877
86 2 32.9328 4.31805 1.43485 32.9328 4.31805 1.43485
87 2 32.9383 4.3261 -1.7745 32.9383 4.3261 -1.7745
88 1 34.1193 5.96825 -0.163804 34.1193 5.96825 -0.163804
89 2 36.5867 5.96556 1.44237 36.5867 5.96556 1.44237
90 2 36.5887 5.97187 -1.76693 36.5887 5.97187 -1.76693
91 1 37.7706 4.3224 -0.164887 37.7706 4.3224 -0.164887
92 2 40.2376 4.3232 1.44127 40.2376 4.3232 1.44127
93 2 40.2397 4.32247 -1.76804 40.2397 4.32247 -1.76804
94 1 41.4222 5.96912 -0.163083 41.4222 5.96912 -0.163083
95 2 43.8909 5.97126 1.44014 43.8909 5.97126 1.44014
96 2 43.8891 5.96722 -1.76913 43.8891 5.96722 -1.76913
97 1 45.073 4.32281 -0.163153 45.073 4.32281 -0.163153
98 2 47.5401 4.32748 1.44133 47.5401 4.32748 1.44133
99 2 47.54 4.31791 -1.76791 47.54 4.31791 -1.76791
100 1 48.7235 5.96888 -0.168303 48.7235 5.96888 -0.168303
101 2 51.1919 5.97348 1.43421 51.1919 5.97348 1.43421
102 2 51.1892 5.96348 -1.77504 51.1892 5.96348 -1.77504
103 1 52.3736 4.32199 -0.166323 52.3736 4.32199 -0.166323
104 2 54.843 4.3266 1.4359 54.843 4.3266 1.4359
105 2 54.8398 4.31639 -1.77338 54.8398 4.31639 -1.77338
106 1 56.0249 5.96755 -0.17521 56.0249 5.96755 -0.17521
107 2 58.4953 5.97153 1.42652 58.4953 5.97153 1.42652
108 2 58.4916 5.96224 -1.7828 58.4916 5.96224 -1.7828
109 1 -6.05329 7.6129 -0.184293 -6.05329 7.6129 -0.184293
110 2 -3.58345 7.61425 1.41878 -3.58345 7.61425 1.41878
111 2 -3.58523 7.61026 -1.79054 -3.58523 7.61026 -1.79054
112 1 -2.40086 9.25831 -0.188557 -2.40086 9.25831 -0.188557
113 2 0.0669425 9.25675 1.41741 0.0669425 9.25675 1.41741
114 2 0.0688014 9.25894 -1.7919 0.0688014 9.25894 -1.7919
115 1 1.25114 7.61151 -0.187611 1.25114 7.61151 -0.187611
116 2 3.71853 7.60821 1.41841 3.71853 7.60821 1.41841
117 2 3.72062 7.61433 -1.79092 3.72062 7.61433 -1.79092
118 1 4.90289 9.25745 -0.182443 4.90289 9.25745 -0.182443
119 2 7.37018 9.25253 1.42372 7.37018 9.25253 1.42372
120 2 7.37198 9.26219 -1.78561 7.37198 9.26219 -1.78561
121 1 8.55446 7.6112 -0.185234 8.55446 7.6112 -0.185234
122 2 11.0227 7.60509 1.41988 11.0227 7.60509 1.41988
123 2 11.0234 7.61765 -1.78947 11.0234 7.61765 -1.78947
124 1 12.2064 9.25762 -0.178042 12.2064 9.25762 -0.178042
125 2 14.6734 9.25023 1.42955 14.6734 9.25023 1.42955
126 2 14.6774 9.26578 -1.77978 14.6774 9.26578 -1.77978
127 1 15.8587 7.61191 -0.181514 15.8587 7.61191 -0.181514
128 2 18.3245 7.6047 1.42778 18.3245 7.6047 1.42778
129 2 18.3307 7.62022 -1.78156 18.3307 7.62022 -1.78156
130 1 19.511 9.25876 -0.166623 19.511 9.25876 -0.166623
131 2 21.9771 9.25147 1.44262 21.9771 9.25147 1.44262
132 2 21.983 9.26717 -1.7667 21.983 9.26717 -1.7667
133 1 23.1634 7.61319 -0.16796 23.1634 7.61319 -0.16796
134 2 25.6304 7.60535 1.43959 25.6304 7.60535 1.43959
135 2 25.634 7.6219 -1.76971 25.634 7.6219 -1.76971
136 1 26.8155 9.25994 -0.155301 26.8155 9.25994 -0.155301
137 2 29.283 9.2524 1.45113 29.283 9.2524 1.45113
138 2 29.2851 9.26816 -1.75819 29.2851 9.26816 -1.75819
139 1 30.4673 7.6141 -0.160834 30.4673 7.6141 -0.160834
140 2 32.9349 7.60885 1.44579 32.9349 7.60885 1.44579
141 2 32.9375 7.62015 -1.76354 32.9375 7.62015 -1.76354
142 1 34.1195 9.26086 -0.152215 34.1195 9.26086 -0.152215
143 2 36.5888 9.25751 1.45096 36.5888 9.25751 1.45096
144 2 36.5867 9.26507 -1.75831 36.5867 9.26507 -1.75831
145 1 37.7711 7.61507 -0.158418 37.7711 7.61507 -0.158418
146 2 40.2404 7.6139 1.44419 40.2404 7.6139 1.44419
147 2 40.2376 7.61695 -1.7651 40.2376 7.61695 -1.7651
148 1 41.4221 9.26187 -0.160004 41.4221 9.26187 -0.160004
149 2 43.8932 9.26201 1.43968 43.8932 9.26201 1.43968
150 2 43.8867 9.26178 -1.76958 43.8867 9.26178 -1.76958
151 1 45.0733 7.61555 -0.167214 45.0733 7.61555 -0.167214
152 2 47.5422 7.61855 1.43441 47.5422 7.61855 1.43441
153 2 47.5384 7.61207 -1.77484 47.5384 7.61207 -1.77484
154 1 48.7235 9.26156 -0.174916 48.7235 9.26156 -0.174916
155 2 51.193 9.26496 1.42582 51.193 9.26496 1.42582
156 2 51.1882 9.25709 -1.78344 51.1882 9.25709 -1.78344
157 1 52.3739 7.61462 -0.176549 52.3739 7.61462 -0.176549
158 2 54.8434 7.61907 1.42547 54.8434 7.61907 1.42547
159 2 54.8401 7.60892 -1.78382 54.8401 7.60892 -1.78382
160 1 56.0251 9.26007 -0.185554 56.0251 9.26007 -0.185554
161 2 58.4946 9.26278 1.41749 58.4946 9.26278 1.41749
162 2 58.4928 9.25586 -1.79185 58.4928 9.25586 -1.79185
163 1 -6.05321 10.9054 -0.191348 -6.05321 10.9054 -0.191348
164 2 -3.58515 10.9055 1.41449 -3.58515 10.9055 1.41449
165 2 -3.58331 10.9038 -1.79484 -3.58331 10.9038 -1.79484
166 1 -2.40101 12.5508 -0.190336 -2.40101 12.5508 -0.190336
167 2 0.0649247 12.5492 1.41836 0.0649247 12.5492 1.41836
168 2 0.0705172 12.5514 -1.79094 0.0705172 12.5514 -1.79094
169 1 1.25119 10.904 -0.185392 1.25119 10.904 -0.185392
170 2 3.71727 10.9016 1.42275 3.71727 10.9016 1.42275
171 2 3.72182 10.9058 -1.78657 3.72182 10.9058 -1.78657
172 1 4.90275 12.5499 -0.178056 4.90275 12.5499 -0.178056
173 2 7.36796 12.5459 1.43114 7.36796 12.5459 1.43114
174 2 7.37386 12.5536 -1.77819 7.37386 12.5536 -1.77819
175 1 8.55432 10.9036 -0.175344 8.55432 10.9036 -0.175344
176 2 11.0214 10.8973 1.43191 11.0214 10.8973 1.43191
177 2 11.0246 10.9101 -1.77744 11.0246 10.9101 -1.77744
178 1 12.2062 12.55 -0.165003 12.2062 12.55 -0.165003
179 2 14.6725 12.5435 1.44399 14.6725 12.5435 1.44399
180 2 14.6782 12.5573 -1.76534 14.6782 12.5573 -1.76534
181 1 15.8588 10.9043 -0.16565 15.8588 10.9043 -0.16565
182 2 18.3248 10.8976 1.44338 18.3248 10.8976 1.44338
183 2 18.3305 10.9121 -1.76596 18.3305 10.9121 -1.76596
184 1 19.5109 12.5512 -0.151741 19.5109 12.5512 -0.151741
185 2 21.9768 12.5447 1.4578 21.9768 12.5447 1.4578
186 2 21.983 12.5589 -1.75152 21.983 12.5589 -1.75152
187 1 23.1633 10.9057 -0.151885 23.1633 10.9057 -0.151885
188 2 25.6301 10.898 1.45612 25.6301 10.898 1.45612
189 2 25.6341 10.9141 -1.75317 25.6341 10.9141 -1.75317
190 1 26.8153 12.5524 -0.138861 26.8153 12.5524 -0.138861
191 2 29.2835 12.5459 1.46674 29.2835 12.5459 1.46674
192 2 29.2843 12.5597 -1.74257 29.2843 12.5597 -1.74257
193 1 30.4673 10.9066 -0.144748 30.4673 10.9066 -0.144748
194 2 32.9368 10.9012 1.45901 32.9368 10.9012 1.45901
195 2 32.9354 10.9128 -1.7503 32.9354 10.9128 -1.7503
196 1 34.1191 12.5535 -0.140319 34.1191 12.5535 -0.140319
197 2 36.5898 12.5496 1.46044 36.5898 12.5496 1.46044
198 2 36.5846 12.5583 -1.74883 36.5846 12.5583 -1.74883
199 1 37.7708 10.9078 -0.150672 37.7708 10.9078 -0.150672
200 2 40.2418 10.9059 1.44925 40.2418 10.9059 1.44925
201 2 40.2355 10.9103 -1.76002 40.2355 10.9103 -1.76002
202 1 41.4216 12.5546 -0.15551 41.4216 12.5546 -0.15551
203 2 43.8939 12.5528 1.44219 43.8939 12.5528 1.44219
204 2 43.8849 12.5562 -1.76707 43.8849 12.5562 -1.76707
205 1 45.073 10.9083 -0.167486 45.073 10.9083 -0.167486
206 2 47.5438 10.9092 1.43118 47.5438 10.9092 1.43118
207 2 47.5363 10.9066 -1.77808 47.5363 10.9066 -1.77808
208 1 48.723 12.5542 -0.17752 48.723 12.5542 -0.17752
209 2 51.1938 12.5548 1.42133 51.1938 12.5548 1.42133
210 2 51.1867 12.5522 -1.78796 51.1867 12.5522 -1.78796
211 1 52.3738 10.9072 -0.184589 52.3738 10.9072 -0.184589
212 2 54.8436 10.91 1.41682 54.8436 10.91 1.41682
213 2 54.8398 10.9029 -1.79249 54.8398 10.9029 -1.79249
214 1 56.0248 12.5525 -0.192784 56.0248 12.5525 -0.192784
215 2 58.4934 12.5534 1.41153 58.4934 12.5534 1.41153
216 2 58.4936 12.55 -1.79782 58.4936 12.55 -1.79782
217 1 -6.05372 14.1979 -0.194697 -6.05372 14.1979 -0.194697
218 2 -3.5867 14.1971 1.41279 -3.5867 14.1971 1.41279
219 2 -3.58259 14.1971 -1.79654 -3.58259 14.1971 -1.79654
220 1 -2.40169 15.8433 -0.190249 -2.40169 15.8433 -0.190249
221 2 0.063458 15.8417 1.41992 0.063458 15.8417 1.41992
222 2 0.0708535 15.8438 -1.78939 0.0708535 15.8438 -1.78939
223 1 1.25084 14.1965 -0.18309 1.25084 14.1965 -0.18309
224 2 3.71569 14.1933 1.42697 3.71569 14.1933 1.42697
225 2 3.72284 14.199 -1.78235 3.72284 14.199 -1.78235
226 1 4.90232 15.8424 -0.172104 4.90232 15.8424 -0.172104
227 2 7.36659 15.8378 1.43883 7.36659 15.8378 1.43883
228 2 7.37464 15.8466 -1.77049 7.37464 15.8466 -1.77049
229 1 8.55409 14.196 -0.167351 8.55409 14.196 -0.167351
230 2 11.0192 14.1904 1.44287 11.0192 14.1904 1.44287
231 2 11.0264 14.2018 -1.76648 11.0264 14.2018 -1.76648
232 1 12.206 15.8424 -0.153262 12.206 15.8424 -0.153262
233 2 14.6714 15.8363 1.45705 14.6714 15.8363 1.45705
234 2 14.6787 15.8491 -1.75227 14.6787 15.8491 -1.75227
235 1 15.8586 14.1967 -0.151515 15.8586 14.1967 -0.151515
236 2 18.3243 14.1901 1.45793 18.3243 14.1901 1.45793
237 2 18.3305 14.2044 -1.7514 18.3305 14.2044 -1.7514
238 1 19.5104 15.8437 -0.13714 19.5104 15.8437 -0.13714
239 2 21.9761 15.837 1.47252 21.9761 15.837 1.47252
240 2 21.9826 15.8515 -1.73679 21.9826 15.8515 -1.73679
241 1 23.163 14.1982 -0.137296 23.163 14.1982 -0.137296
242 2 25.6295 14.1919 1.471 25.6295 14.1919 1.471
243 2 25.6341 14.2052 -1.7383 25.6341 14.2052 -1.7383
244 1 26.8148 15.845 -0.125248 26.8148 15.845 -0.125248
245 2 29.2828 15.839 1.48024 29.2828 15.839 1.48024
246 2 29.2836 15.8515 -1.72908 29.2836 15.8515 -1.72908
247 1 30.4669 14.1992 -0.130642 30.4669 14.1992 -0.130642
248 2 32.937 14.1935 1.47181 32.937 14.1935 1.47181
249 2 32.9338 14.2056 -1.7375 32.9338 14.2056 -1.7375
250 1 34.1182 15.8462 -0.12794 34.1182 15.8462 -0.12794
251 2 36.5899 15.8411 1.47123 36.5899 15.8411 1.47123
252 2 36.5825 15.8519 -1.73804 36.5825 15.8519 -1.73804
253 1 37.7701 14.2005 -0.14172 37.7701 14.2005 -0.14172
254 2 40.2422 14.1969 1.45629 40.2422 14.1969 1.45629
255 2 40.2335 14.2045 -1.75298 40.2335 14.2045 -1.75298
256 1 41.4205 15.8473 -0.14772 41.4205 15.8473 -0.14772
257 2 43.8941 15.8441 1.44796 43.8941 15.8441 1.44796
258 2 43.8825 15.85 -1.76131 43.8825 15.85 -1.76131
259 1 45.0722 14.2009 -0.164067 45.0722 14.2009 -0.164067
260 2 47.5449 14.1995 1.43208 47.5449 14.1995 1.43208
261 2 47.5339 14.2014 -1.7772 47.5339 14.2014 -1.7772
262 1 48.7221 15.8467 -0.17559 48.7221 15.8467 -0.17559
263 2 51.1943 15.8456 1.42129 51.1943 15.8456 1.42129
264 2 51.1846 15.8462 -1.78801 51.1846 15.8462 -1.78801
265 1 52.3732 14.1997 -0.187204 52.3732 14.1997 -0.187204
266 2 54.8438 14.1994 1.41308 54.8438 14.1994 1.41308
267 2 54.8385 14.1982 -1.79624 54.8385 14.1982 -1.79624
268 1 56.024 15.845 -0.194007 56.024 15.845 -0.194007
269 2 58.493 15.8443 1.40987 58.493 15.8443 1.40987
270 2 58.4924 15.8439 -1.79949 58.4924 15.8439 -1.79949
271 1 -6.05477 17.4903 -0.19506 -6.05477 17.4903 -0.19506
272 2 -3.5878 17.4895 1.41272 -3.5878 17.4895 1.41272
273 2 -3.58334 17.4895 -1.7966 -3.58334 17.4895 -1.7966
274 1 -2.40283 19.1359 -0.19011 -2.40283 19.1359 -0.19011
275 2 0.0620098 19.1352 1.42075 0.0620098 19.1352 1.42075
276 2 0.0702864 19.1353 -1.78857 0.0702864 19.1353 -1.78857
277 1 1.25003 17.4891 -0.180867 1.25003 17.4891 -0.180867
278 2 3.71387 17.4865 1.43118 3.71387 17.4865 1.43118
279 2 3.72347 17.4907 -1.77815 3.72347 17.4907 -1.77815
280 1 4.90156 19.1349 -0.167767 4.90156 19.1349 -0.167767
281 2 7.36498 19.1322 1.44507 7.36498 19.1322 1.44507
282 2 7.3753 19.1372 -1.76426 7.3753 19.1372 -1.76426
283 1 8.5537 17.4885 -0.158354 8.5537 17.4885 -0.158354
284 2 11.0182 17.4838 1.45312 11.0182 17.4838 1.45312
285 2 11.0269 17.4933 -1.75622 11.0269 17.4933 -1.75622
286 1 12.2057 19.1349 -0.14345 12.2057 19.1349 -0.14345
287 2 14.6703 19.1302 1.4682 14.6703 19.1302 1.4682
288 2 14.679 19.1402 -1.7411 14.679 19.1402 -1.7411
289 1 15.8582 17.4892 -0.138333 15.8582 17.4892 -0.138333
290 2 18.3229 17.4822 1.47237 18.3229 17.4822 1.47237
291 2 18.3307 17.4973 -1.73694 18.3307 17.4973 -1.73694
292 1 19.5098 19.1362 -0.121793 19.5098 19.1362 -0.121793
293 2 21.9762 19.1305 1.48705 21.9762 19.1305 1.48705
294 2 21.9811 19.1431 -1.72225 21.9811 19.1431 -1.72225
295 1 23.1623 17.4907 -0.122306 23.1623 17.4907 -0.122306
296 2 25.6294 17.4843 1.48513 25.6294 17.4843 1.48513
297 2 25.6328 17.4978 -1.72416 25.6328 17.4978 -1.72416
298 1 26.8139 19.1376 -0.111428 26.8139 19.1376 -0.111428
299 2 29.2822 19.1317 1.49332 29.2822 19.1317 1.49332
300 2 29.2819 19.1439 -1.71598 29.2819 19.1439 -1.71598
301 1 30.466 17.4918 -0.117814 30.466 17.4918 -0.117814
302 2 32.936 17.486 1.48442 32.936 17.486 1.48442
303 2 32.9326 17.4983 -1.72488 32.9326 17.4983 -1.72488
304 1 34.1169 19.1388 -0.115316 34.1169 19.1388 -0.115316
305 2 36.589 19.1334 1.48301 36.589 19.1334 1.48301
306 2 36.5803 19.1447 -1.72625 36.5803 19.1447 -1.72625
307 1 37.7687 17.4932 -0.130688 37.7687 17.4932 -0.130688
308 2 40.2417 17.4885 1.46589 40.2417 17.4885 1.46589
309 2 40.2311 17.4981 -1.74338 40.2311 17.4981 -1.74338
310 1 41.4188 19.1399 -0.137749 41.4188 19.1399 -0.137749
311 2 43.8935 19.1348 1.45658 43.8935 19.1348 1.45658
312 2 43.8799 19.1443 -1.75268 43.8799 19.1443 -1.75268
313 1 45.0708 17.4935 -0.157934 45.0708 17.4935 -0.157934
314 2 47.5445 17.4898 1.43685 47.5445 17.4898 1.43685
315 2 47.5318 17.4959 -1.77243 47.5318 17.4959 -1.77243
316 1 48.7206 19.1392 -0.169266 48.7206 19.1392 -0.169266
317 2 51.1946 19.1361 1.42515 51.1946 19.1361 1.42515
318 2 51.1814 19.1405 -1.78413 51.1814 19.1405 -1.78413
319 1 52.3721 17.4922 -0.186474 52.3721 17.4922 -0.186474
320 2 54.8429 17.4906 1.41329 54.8429 17.4906 1.41329
321 2 54.8372 17.4918 -1.79604 54.8372 17.4918 -1.79604
322 1 56.0227 19.1374 -0.192714 56.0227 19.1374 -0.192714
323 2 58.4921 19.1359 1.41052 58.4921 19.1359 1.41052
324 2 58.4908 19.137 -1.79883 58.4908 19.137 -1.79883
325 1 -6.05616 20.7828 -0.193965 -6.05616 20.7828 -0.193965
326 2 -3.58864 20.782 1.41316 -3.58864 20.782 1.41316
327 2 -3.58503 20.7821 -1.79616 -3.58503 20.7821 -1.79616
328 1 -2.40412 22.4284 -0.189989 -2.40412 22.4284 -0.189989
329 2 0.0611168 22.4283 1.4205 0.0611168 22.4283 1.4205
330 2 0.0689751 22.4273 -1.78882 0.0689751 22.4273 -1.78882
331 1 1.24893 20.7816 -0.180646 1.24893 20.7816 -0.180646
332 2 3.7121 20.7811 1.43266 3.7121 20.7811 1.43266
333 2 3.72346 20.781 -1.77666 3.72346 20.781 -1.77666
334 1 4.90062 22.4275 -0.167775 4.90062 22.4275 -0.167775
335 2 7.36316 22.4273 1.44672 7.36316 22.4273 1.44672
336 2 7.37581 22.4271 -1.76261 7.37581 22.4271 -1.76261
337 1 8.55314 20.781 -0.153204 8.55314 20.781 -0.153204
338 2 11.0172 20.779 1.45956 11.0172 20.779 1.45956
339 2 11.0272 20.783 -1.74978 11.0272 20.783 -1.74978
340 1 12.2053 22.4274 -0.139236 12.2053 22.4274 -0.139236
341 2 14.669 22.4267 1.47383 14.669 22.4267 1.47383
342 2 14.6795 22.4289 -1.73547 14.6795 22.4289 -1.73547
343 1 15.8578 20.7817 -0.128048 15.8578 20.7817 -0.128048
344 2 18.322 20.7788 1.48348 18.322 20.7788 1.48348
345 2 18.3304 20.7859 -1.72583 18.3304 20.7859 -1.72583
346 1 19.5092 22.4288 -0.114403 19.5092 22.4288 -0.114403
347 2 21.9749 22.4272 1.49536 21.9749 22.4272 1.49536
348 2 21.9808 22.4316 -1.71394 21.9808 22.4316 -1.71394
349 1 23.1615 20.7833 -0.109371 23.1615 20.7833 -0.109371
350 2 25.6291 20.779 1.49726 25.6291 20.779 1.49726
351 2 25.6309 20.7882 -1.71202 25.6309 20.7882 -1.71202
352 1 26.8127 22.4302 -0.101963 26.8127 22.4302 -0.101963
353 2 29.2812 22.428 1.50241 29.2812 22.428 1.50241
354 2 29.2801 22.4329 -1.70689 29.2801 22.4329 -1.70689
355 1 30.4646 20.7845 -0.105236 30.4646 20.7845 -0.105236
356 2 32.9352 20.78 1.49613 32.9352 20.78 1.49613
357 2 32.9303 20.7895 -1.71316 32.9303 20.7895 -1.71316
358 1 34.1152 22.4314 -0.105502 34.1152 22.4314 -0.105502
359 2 36.5873 22.4281 1.49267 36.5873 22.4281 1.49267
360 2 36.5782 22.4353 -1.71659 36.5782 22.4353 -1.71659
361 1 37.767 20.7858 -0.119061 37.767 20.7858 -0.119061
362 2 40.2409 20.7812 1.47629 40.2409 20.7812 1.47629
363 2 40.2283 20.7905 -1.73297 40.2283 20.7905 -1.73297
364 1 41.4169 22.4325 -0.128245 41.4169 22.4325 -0.128245
365 2 43.8922 22.4287 1.46533 43.8922 22.4287 1.46533
366 2 43.8776 22.4354 -1.74394 43.8776 22.4354 -1.74394
367 1 45.0691 20.786 -0.14822 45.0691 20.786 -0.14822
368 2 47.5445 20.7822 1.44432 47.5445 20.7822 1.44432
369 2 47.5285 20.7883 -1.76494 47.5285 20.7883 -1.76494
370 1 48.7189 22.4316 -0.163006 48.7189 22.4316 -0.163006
371 2 51.1935 22.4283 1.43033 51.1935 22.4283 1.43033
372 2 51.1792 22.4331 -1.77894 51.1792 22.4331 -1.77894
373 1 52.3705 20.7846 -0.181933 52.3705 20.7846 -0.181933
374 2 54.8429 20.7829 1.41569 54.8429 20.7829 1.41569
375 2 54.8342 20.7842 -1.79363 54.8342 20.7842 -1.79363
376 1 56.0211 22.4299 -0.191232 56.0211 22.4299 -0.191232
377 2 58.4908 22.4286 1.41159 58.4908 22.4286 1.41159
378 2 58.4892 22.4294 -1.79776 58.4892 22.4294 -1.79776
379 1 -6.05759 24.0754 -0.193123 -6.05759 24.0754 -0.193123
380 2 -3.5896 24.0746 1.41344 -3.5896 24.0746 1.41344
381 2 -3.58653 24.0746 -1.79588 -3.58653 24.0746 -1.79588
382 1 -2.40528 25.721 -0.189935 -2.40528 25.721 -0.189935
383 2 0.0607029 25.7213 1.41953 0.0607029 25.7213 1.41953
384 2 0.0673568 25.7194 -1.7898 0.0673568 25.7194 -1.7898
385 1 1.24788 24.0741 -0.181628 1.24788 24.0741 -0.181628
386 2 3.7113 24.0749 1.43146 3.7113 24.0749 1.43146
387 2 3.72238 24.0724 -1.77787 3.72238 24.0724 -1.77787
388 1 4.89971 25.72 -0.170293 4.89971 25.72 -0.170293
389 2 7.36271 25.7226 1.44386 7.36271 25.7226 1.44386
390 2 7.37483 25.7168 -1.76547 7.37483 25.7168 -1.76547
391 1 8.55244 24.0736 -0.153362 8.55244 24.0736 -0.153362
392 2 11.0162 24.0745 1.4603 11.0162 24.0745 1.4603
393 2 11.0273 24.0727 -1.74903 11.0273 24.0727 -1.74903
394 1 12.2048 25.72 -0.141097 12.2048 25.72 -0.141097
395 2 14.6688 25.7236 1.47183 14.6688 25.7236 1.47183
396 2 14.6789 25.7172 -1.73746 14.6789 25.7172 -1.73746
397 1 15.8574 24.0743 -0.12574 15.8574 24.0743 -0.12574
398 2 18.3211 24.0754 1.48644 18.3211 24.0754 1.48644
399 2 18.3303 24.0745 -1.72287 18.3303 24.0745 -1.72287
400 1 19.5088 25.7215 -0.115216 19.5088 25.7215 -0.115216
401 2 21.974 25.7247 1.49484 21.974 25.7247 1.49484
402 2 21.9801 25.7195 -1.71444 21.9801 25.7195 -1.71444
403 1 23.1607 24.076 -0.10486 23.1607 24.076 -0.10486
404 2 25.6278 24.0761 1.50213 25.6278 24.0761 1.50213
405 2 25.6299 24.0765 -1.70714 25.6299 24.0765 -1.70714
406 1 26.8115 25.7229 -0.101433 26.8115 25.7229 -0.101433
407 2 29.2802 25.7259 1.50242 29.2802 25.7259 1.50242
408 2 29.2782 25.7204 -1.70687 29.2782 25.7204 -1.70687
409 1 30.4631 24.0771 -0.100101 30.4631 24.0771 -0.100101
410 2 32.9334 24.0766 1.50164 32.9334 24.0766 1.50164
411 2 32.9288 24.0781 -1.70765 32.9288 24.0781 -1.70765
412 1 34.1136 25.7241 -0.103953 34.1136 25.7241 -0.103953
413 2 36.5846 25.7244 1.49564 36.5846 25.7244 1.49564
414 2 36.5772 25.7242 -1.71364 36.5772 25.7242 -1.71364
415 1 37.7651 24.0784 -0.111684 37.7651 24.0784 -0.111684
416 2 40.2388 24.0756 1.48392 40.2388 24.0756 1.48392
417 2 40.2264 24.0813 -1.72536 40.2264 24.0813 -1.72536
418 1 41.4151 25.7249 -0.12242 41.4151 25.7249 -0.12242
419 2 43.8906 25.7224 1.47112 43.8906 25.7224 1.47112
420 2 43.8757 25.7267 -1.73816 43.8757 25.7267 -1.73816
421 1 45.0673 24.0785 -0.141265 45.0673 24.0785 -0.141265
422 2 47.5429 24.0744 1.45095 47.5429 24.0744 1.45095
423 2 47.5267 24.081 -1.75831 47.5267 24.081 -1.75831
424 1 48.7173 25.7241 -0.156278 48.7173 25.7241 -0.156278
425 2 51.1921 25.7191 1.43703 51.1921 25.7191 1.43703
426 2 51.1775 25.7272 -1.77223 51.1775 25.7272 -1.77223
427 1 52.3688 24.077 -0.177029 52.3688 24.077 -0.177029
428 2 54.8418 24.0732 1.41969 54.8418 24.0732 1.41969
429 2 54.8321 24.0788 -1.78961 54.8321 24.0788 -1.78961
430 1 56.0195 25.7224 -0.185481 56.0195 25.7224 -0.185481
431 2 58.4911 25.7197 1.41503 58.4911 25.7197 1.41503
432 2 58.4862 25.7233 -1.79432 58.4862 25.7233 -1.79432
433 1 -6.05886 27.3679 -0.189412 -6.05886 27.3679 -0.189412
434 2 -3.58942 27.3666 1.41509 -3.58942 27.3666 1.41509
435 2 -3.589 27.3678 -1.79425 -3.589 27.3678 -1.79425
436 1 -2.40644 29.0136 -0.188645 -2.40644 29.0136 -0.188645
437 2 0.0609071 29.0135 1.41895 0.0609071 29.0135 1.41895
438 2 0.0650819 29.0124 -1.79038 0.0650819 29.0124 -1.79038
439 1 1.24685 27.3667 -0.183479 1.24685 27.3667 -0.183479
440 2 3.71106 27.3683 1.42856 3.71106 27.3683 1.42856
441 2 3.72091 27.3642 -1.78077 3.72091 27.3642 -1.78077
442 1 4.89894 29.0126 -0.17452 4.89894 29.0126 -0.17452
443 2 7.36393 29.0176 1.43685 7.36393 29.0176 1.43685
444 2 7.37244 29.007 -1.77247 7.37244 29.007 -1.77247
445 1 8.55178 27.3661 -0.159179 8.55178 27.3661 -0.159179
446 2 11.016 27.3717 1.45395 11.016 27.3717 1.45395
447 2 11.0265 27.3607 -1.75537 11.0265 27.3607 -1.75537
448 1 12.2043 29.0126 -0.152355 12.2043 29.0126 -0.152355
449 2 14.6686 29.0215 1.46 14.6686 29.0215 1.46
450 2 14.6783 29.0046 -1.74926 14.6783 29.0046 -1.74926
451 1 15.857 27.367 -0.132266 15.857 27.367 -0.132266
452 2 18.3208 27.3738 1.4798 18.3208 27.3738 1.4798
453 2 18.3297 27.3615 -1.72948 18.3297 27.3615 -1.72948
454 1 19.5082 29.0142 -0.127869 19.5082 29.0142 -0.127869
455 2 21.973 29.0244 1.48223 21.973 29.0244 1.48223
456 2 21.9794 29.0052 -1.72699 21.9794 29.0052 -1.72699
457 1 23.1599 27.3687 -0.110252 23.1599 27.3687 -0.110252
458 2 25.627 27.3753 1.49626 25.627 27.3753 1.49626
459 2 25.6284 27.3628 -1.71298 25.6284 27.3628 -1.71298
460 1 26.8105 29.0156 -0.1142 26.8105 29.0156 -0.1142
461 2 29.2778 29.0231 1.49123 29.2778 29.0231 1.49123
462 2 29.2783 29.0086 -1.71802 29.2783 29.0086 -1.71802
463 1 30.4619 27.3698 -0.105706 30.4619 27.3698 -0.105706
464 2 32.9308 27.374 1.49757 32.9308 27.374 1.49757
465 2 32.9284 27.3661 -1.71172 32.9284 27.3661 -1.71172
466 1 34.1121 29.0167 -0.112021 34.1121 29.0167 -0.112021
467 2 36.5815 29.0213 1.48987 36.5815 29.0213 1.48987
468 2 36.5773 29.0125 -1.71941 36.5773 29.0125 -1.71941
469 1 37.7633 27.3709 -0.111848 37.7633 27.3709 -0.111848
470 2 40.2362 27.3716 1.48543 40.2362 27.3716 1.48543
471 2 40.2258 27.3703 -1.72388 40.2258 27.3703 -1.72388
472 1 41.4136 29.0174 -0.123781 41.4136 29.0174 -0.123781
473 2 43.8877 29.0171 1.47213 43.8877 29.0171 1.47213
474 2 43.8759 29.017 -1.73717 43.8759 29.017 -1.73717
475 1 45.0657 27.3709 -0.136832 45.0657 27.3709 -0.136832
476 2 47.5409 27.3676 1.45653 47.5409 27.3676 1.45653
477 2 47.5258 27.3728 -1.75274 47.5258 27.3728 -1.75274
478 1 48.7161 29.0165 -0.150917 48.7161 29.0165 -0.150917
479 2 51.1905 29.0132 1.44336 51.1905 29.0132 1.44336
480 2 51.1769 29.0182 -1.76591 51.1769 29.0182 -1.76591
481 1 52.3674 27.3694 -0.168763 52.3674 27.3694 -0.168763
482 2 54.8415 27.3652 1.42675 54.8415 27.3652 1.42675
483 2 54.8298 27.3719 -1.78254 54.8298 27.3719 -1.78254
484 1 56.0185 29.0148 -0.178647 56.0185 29.0148 -0.178647
485 2 58.491 29.0115 1.42031 58.491 29.0115 1.42031
486 2 58.484 29.0166 -1.78903 58.484 29.0166 -1.78903
487 1 -6.05982 30.6604 -0.184196 -6.05982 30.6604 -0.184196
488 2 -3.5888 30.6588 1.41794 -3.5888 30.6588 1.41794
489 2 -3.59176 30.6608 -1.79138 -3.59176 30.6608 -1.79138
490 1 -2.4073 32.3062 -0.186621 -2.4073 32.3062 -0.186621
491 2 0.0622274 32.3077 1.4178 0.0622274 32.3077 1.4178
492 2 0.0622721 32.3035 -1.79153 0.0622721 32.3035 -1.79153
493 1 1.24591 30.6593 -0.184606 1.24591 30.6593 -0.184606
494 2 3.71276 30.663 1.42395 3.71276 30.663 1.42395
495 2 3.71789 30.6547 -1.78538 3.71789 30.6547 -1.78538
496 1 4.89845 32.3052 -0.183004 4.89845 32.3052 -0.183004
497 2 7.36529 32.3122 1.42536 7.36529 32.3122 1.42536
498 2 7.37022 32.2978 -1.78395 7.37022 32.2978 -1.78395
499 1 8.55127 30.6587 -0.170037 8.55127 30.6587 -0.170037
500 2 11.0168 30.6673 1.44065 11.0168 30.6673 1.44065
501 2 11.0246 30.6503 -1.76864 11.0246 30.6503 -1.76864
502 1 12.2038 32.3053 -0.16975 12.2038 32.3053 -0.16975
503 2 14.6685 32.3156 1.44149 14.6685 32.3156 1.44149
504 2 14.6773 32.2958 -1.76774 14.6773 32.2958 -1.76774
505 1 15.8565 30.6596 -0.149709 15.8565 30.6596 -0.149709
506 2 18.3198 30.6707 1.46244 18.3198 30.6707 1.46244
507 2 18.3295 30.6498 -1.74678 18.3295 30.6498 -1.74678
508 1 19.5075 32.3069 -0.149414 19.5075 32.3069 -0.149414
509 2 21.9719 32.3187 1.46073 21.9719 32.3187 1.46073
510 2 21.979 32.2963 -1.74846 21.979 32.2963 -1.74846
511 1 23.159 30.6614 -0.129852 23.159 30.6614 -0.129852
512 2 25.6247 30.6721 1.47823 25.6247 30.6721 1.47823
513 2 25.6289 30.6514 -1.73096 25.6289 30.6514 -1.73096
514 1 26.8097 32.3082 -0.135468 26.8097 32.3082 -0.135468
515 2 29.2746 32.3175 1.47296 29.2746 32.3175 1.47296
516 2 29.2796 32.2996 -1.73627 29.2796 32.2996 -1.73627
517 1 30.4608 30.6624 -0.120699 30.4608 30.6624 -0.120699
518 2 32.9278 30.67 1.48486 32.9278 30.67 1.48486
519 2 32.9287 30.6554 -1.7244 32.9287 30.6554 -1.7244
520 1 34.111 32.3092 -0.126978 34.111 32.3092 -0.126978
521 2 36.5783 32.3151 1.47796 36.5783 32.3151 1.47796
522 2 36.5785 32.3038 -1.73131 36.5785 32.3038 -1.73131
523 1 37.7621 30.6634 -0.120916 37.7621 30.6634 -0.120916
524 2 40.2326 30.6666 1.47974 40.2326 30.6666 1.47974
525 2 40.227 30.6602 -1.72958 40.227 30.6602 -1.72958
526 1 41.4127 32.3098 -0.130351 41.4127 32.3098 -0.130351
527 2 43.8837 32.3089 1.47032 43.8837 32.3089 1.47032
528 2 43.8784 32.3102 -1.73899 43.8784 32.3102 -1.73899
529 1 45.0646 30.6633 -0.136992 45.0646 30.6633 -0.136992
530 2 47.5378 30.6611 1.45939 47.5378 30.6611 1.45939
531 2 47.527 30.6643 -1.7499 47.527 30.6643 -1.7499
532 1 48.7154 32.3089 -0.147667 48.7154 32.3089 -0.147667
533 2 51.1885 32.3045 1.44869 51.1885 32.3045 1.44869
534 2 51.1778 32.312 -1.76057 51.1778 32.312 -1.76057
535 1 52.3666 30.6619 -0.163658 52.3666 30.6619 -0.163658
536 2 54.8399 30.6579 1.43292 54.8399 30.6579 1.43292