ITEM: TIMESTEP
2790000
ITEM: NUMBER OF ATOMS
810
ITEM: BOX BOUNDS pp pp pp
-6.2921988643782765e+00 5.9309803864377344e+01
8.1394622342039402e-01 5.0202268776579182e+01
-1.0000000000000000e+01 1.0000000000000000e+01
ITEM: ATOMS id type x y z xu yu zu
1 1 -5.98674 1.02887 -0.170489 -5.98674 1.02887 -0.170489
2 2 -3.51939 1.02557 1.42449 -3.51939 1.02557 1.42449
3 2 -3.53168 1.031 -1.78452 -3.53168 1.031 -1.78452
4 1 -2.34169 2.67413 -0.181674 -2.34169 2.67413 -0.181674
5 2 0.123492 2.67105 1.41628 0.123492 2.67105 1.41628
6 2 0.115168 2.67608 -1.79274 0.115168 2.67608 -1.79274
7 1 1.3017 1.02693 -0.193735 1.3017 1.02693 -0.193735
8 2 3.76433 1.02416 1.40782 3.76433 1.02416 1.40782
9 2 3.76088 1.02899 -1.80121 3.76088 1.02899 -1.80121
10 1 4.94634 2.67254 -0.195295 4.94634 2.67254 -0.195295
11 2 7.40621 2.67102 1.41051 7.40621 2.67102 1.41051
12 2 7.40831 2.6736 -1.79852 7.40831 2.6736 -1.79852
13 1 8.58983 1.02585 -0.194404 8.58983 1.02585 -0.194404
14 2 11.0463 1.02492 1.41633 11.0463 1.02492 1.41633
15 2 11.0548 1.02696 -1.7927 11.0548 1.02696 -1.7927
16 1 12.2341 2.67208 -0.183894 12.2341 2.67208 -0.183894
17 2 14.6891 2.67302 1.42918 14.6891 2.67302 1.42918
18 2 14.7005 2.67167 -1.77982 14.7005 2.67167 -1.77982
19 1 15.8777 1.02607 -0.170357 15.8777 1.02607 -0.170357
20 2 18.3321 1.02753 1.44514 18.3321 1.02753 1.44514
21 2 18.3464 1.02551 -1.76388 18.3464 1.02551 -1.76388
22 1 19.5226 2.67281 -0.154999 19.5226 2.67281 -0.154999
23 2 21.9764 2.67545 1.46124 21.9764 2.67545 1.46124
24 2 21.9917 2.6713 -1.74777 21.9917 2.6713 -1.74777
25 1 23.1669 1.02714 -0.135544 23.1669 1.02714 -0.135544
26 2 25.6218 1.02845 1.47983 25.6218 1.02845 1.47983
27 2 25.6353 1.02726 -1.72922 25.6353 1.02726 -1.72922
28 1 26.812 2.67418 -0.120263 26.812 2.67418 -0.120263
29 2 29.2687 2.67703 1.49332 29.2687 2.67703 1.49332
30 2 29.2798 2.67289 -1.7157 29.2798 2.67289 -1.7157
31 1 30.457 1.02865 -0.105016 30.457 1.02865 -0.105016
32 2 32.9161 1.02844 1.50441 32.9161 1.02844 1.50441
33 2 32.9216 1.03028 -1.70463 32.9216 1.03028 -1.70463
34 1 34.1025 2.67561 -0.0971989 34.1025 2.67561 -0.0971989
35 2 36.5645 2.67738 1.50871 36.5645 2.67738 1.50871
36 2 36.5654 2.67498 -1.70033 36.5654 2.67498 -1.70033
37 1 37.7475 1.02978 -0.0943256 37.7475 1.02978 -0.0943256
38 2 40.2119 1.03 1.50747 40.2119 1.03 1.50747
39 2 40.2074 1.03076 -1.70157 40.2074 1.03076 -1.70157
40 1 41.3935 2.67651 -0.0983311 41.3935 2.67651 -0.0983311
41 2 43.8588 2.67767 1.50056 43.8588 2.67767 1.50056
42 2 43.8509 2.67621 -1.70849 43.8509 2.67621 -1.70849
43 1 45.0374 1.03055 -0.106206 45.0374 1.03055 -0.106206
44 2 47.5054 1.03021 1.489 47.5054 1.03021 1.489
45 2 47.4927 1.03145 -1.72003 47.4927 1.03145 -1.72003
46 1 48.6828 2.67682 -0.119616 48.6828 2.67682 -0.119616
47 2 51.1519 2.67664 1.47345 51.1519 2.67664 1.47345
48 2 51.1367 2.67693 -1.73558 51.1367 2.67693 -1.73558
49 1 52.3268 1.03031 -0.13682 52.3268 1.03031 -0.13682
50 2 54.796 1.02931 1.45549 54.796 1.02931 1.45549
51 2 54.7799 1.03091 -1.75351 54.7799 1.03091 -1.75351
52 1 55.9716 2.67602 -0.154045 55.9716 2.67602 -0.154045
53 2 58.4396 2.67438 1.44005 58.4396 2.67438 1.44005
54 2 58.4261 2.67665 -1.76894 58.4261 2.67665 -1.76894
55 1 -5.98552 4.32142 -0.168136 -5.98552 4.32142 -0.168136
56 2 -3.51909 4.31913 1.42819 -3.51909 4.31913 1.42819
57 2 -3.52941 4.32235 -1.78083 -3.52941 4.32235 -1.78083
58 1 -2.34078 5.96672 -0.178432 -2.34078 5.96672 -0.178432
59 2 0.123369 5.96338 1.42086 0.123369 5.96338 1.42086
60 2 0.117007 5.96875 -1.78816 0.117007 5.96875 -1.78816
61 1 1.30293 4.31953 -0.188635 1.30293 4.31953 -0.188635
62 2 3.76557 4.31677 1.41275 3.76557 4.31677 1.41275
63 2 3.76184 4.32134 -1.79626 3.76184 4.32134 -1.79626
64 1 4.94708 5.96516 -0.190679 4.94708 5.96516 -0.190679
65 2 7.40793 5.96394 1.41355 7.40793 5.96394 1.41355
66 2 7.40793 5.96572 -1.79546 7.40793 5.96572 -1.79546
67 1 8.59075 4.31841 -0.191711 8.59075 4.31841 -0.191711
68 2 11.0481 4.31908 1.41745 11.0481 4.31908 1.41745
69 2 11.0545 4.31778 -1.79156 11.0545 4.31778 -1.79156
70 1 12.2346 5.96466 -0.185201 12.2346 5.96466 -0.185201
71 2 14.6906 5.96789 1.42618 14.6906 5.96789 1.42618
72 2 14.6998 5.96185 -1.78282 14.6998 5.96185 -1.78282
73 1 15.8781 4.3186 -0.171749 15.8781 4.3186 -0.171749
74 2 18.3335 4.32155 1.44228 18.3335 4.32155 1.44228
75 2 18.3458 4.31646 -1.76675 18.3458 4.31646 -1.76675
76 1 19.5229 5.96531 -0.160188 19.5229 5.96531 -0.160188
77 2 21.9778 5.97093 1.45463 21.9778 5.97093 1.45463
78 2 21.991 5.9607 -1.75438 21.991 5.9607 -1.75438
79 1 23.1674 4.31968 -0.139726 23.1674 4.31968 -0.139726
80 2 25.6223 4.3238 1.47568 25.6223 4.3238 1.47568
81 2 25.636 4.31693 -1.73338 25.636 4.31693 -1.73338
82 1 26.8124 5.96673 -0.127333 26.8124 5.96673 -0.127333
83 2 29.2696 5.97344 1.48547 29.2696 5.97344 1.48547
84 2 29.2797 5.96147 -1.72356 29.2797 5.96147 -1.72356
85 1 30.4577 4.32129 -0.109218 30.4577 4.32129 -0.109218
86 2 32.9164 4.32572 1.50105 32.9164 4.32572 1.50105
87 2 32.9232 4.31816 -1.70801 32.9232 4.31816 -1.70801
88 1 34.1032 5.96821 -0.104924 34.1032 5.96821 -0.104924
89 2 36.5642 5.97284 1.50244 36.5642 5.97284 1.50244
90 2 36.5672 5.96445 -1.7066 36.5672 5.96445 -1.7066
91 1 37.7486 4.32237 -0.0967801 37.7486 4.32237 -0.0967801
92 2 40.2125 4.32465 1.50567 40.2125 4.32465 1.50567
93 2 40.209 4.321 -1.70339 40.209 4.321 -1.70339
94 1 41.3942 5.96903 -0.102104 41.3942 5.96903 -0.102104
95 2 43.8596 5.9722 1.49687 43.8596 5.9722 1.49687
96 2 43.8516 5.96641 -1.71218 43.8516 5.96641 -1.71218
97 1 45.0385 4.32304 -0.10771 45.0385 4.32304 -0.10771
98 2 47.506 4.32448 1.48804 47.506 4.32448 1.48804
99 2 47.4941 4.32188 -1.72101 47.4941 4.32188 -1.72101
100 1 48.6835 5.96927 -0.122212 48.6835 5.96927 -0.122212
101 2 51.1513 5.96904 1.47273 51.1513 5.96904 1.47273
102 2 51.1386 5.96919 -1.73632 51.1386 5.96919 -1.73632
103 1 52.3278 4.32278 -0.136537 52.3278 4.32278 -0.136537
104 2 54.796 4.3211 1.45706 54.796 4.3211 1.45706
105 2 54.7819 4.32387 -1.75196 54.7819 4.32387 -1.75196
106 1 55.9723 5.96851 -0.151278 55.9723 5.96851 -0.151278
107 2 58.4402 5.96609 1.44302 58.4402 5.96609 1.44302
108 2 58.4271 5.96972 -1.76599 58.4271 5.96972 -1.76599
109 1 -5.98512 7.61395 -0.164422 -5.98512 7.61395 -0.164422
110 2 -3.51922 7.60985 1.43278 -3.51922 7.60985 1.43278
111 2 -3.52832 7.61653 -1.77624 -3.52832 7.61653 -1.77624
112 1 -2.34075 9.25934 -0.171639 -2.34075 9.25934 -0.171639
113 2 0.123612 9.25491 1.4275 0.123612 9.25491 1.4275
114 2 0.11687 9.26231 -1.78152 0.11687 9.26231 -1.78152
115 1 1.30337 7.61219 -0.183236 1.30337 7.61219 -0.183236
116 2 3.7663 7.60929 1.4177 3.7663 7.60929 1.4177
117 2 3.76193 7.61393 -1.7913 3.76193 7.61393 -1.7913
118 1 4.94718 9.25783 -0.185963 4.94718 9.25783 -0.185963
119 2 7.40946 9.25665 1.41622 7.40946 9.25665 1.41622
120 2 7.40673 9.25817 -1.79279 7.40673 9.25817 -1.79279
121 1 8.59116 7.61105 -0.189922 8.59116 7.61105 -0.189922
122 2 11.05 7.61212 1.41679 11.05 7.61212 1.41679
123 2 11.0533 7.60986 -1.79221 11.0533 7.60986 -1.79221
124 1 12.2348 9.2573 -0.187571 12.2348 9.2573 -0.187571
125 2 14.6927 9.26106 1.42078 14.6927 9.26106 1.42078
126 2 14.6981 9.25377 -1.78822 14.6981 9.25377 -1.78822
127 1 15.8784 7.61116 -0.177909 15.8784 7.61116 -0.177909
128 2 18.3346 7.61702 1.43465 18.3346 7.61702 1.43465
129 2 18.3451 7.60595 -1.77438 18.3451 7.60595 -1.77438
130 1 19.523 9.25781 -0.171538 19.523 9.25781 -0.171538
131 2 21.9787 9.26638 1.44171 21.9787 9.26638 1.44171
132 2 21.9902 9.25012 -1.76729 21.9902 9.25012 -1.76729
133 1 23.1676 7.61217 -0.150159 23.1676 7.61217 -0.150159
134 2 25.6228 7.62055 1.46452 25.6228 7.62055 1.46452
135 2 25.6358 7.60506 -1.74452 25.6358 7.60506 -1.74452
136 1 26.8124 9.25917 -0.143148 26.8124 9.25917 -0.143148
137 2 29.2688 9.26772 1.47065 29.2688 9.26772 1.47065
138 2 29.2806 9.25199 -1.73837 29.2806 9.25199 -1.73837
139 1 30.4579 7.6138 -0.121453 30.4579 7.6138 -0.121453
140 2 32.9161 7.62102 1.48983 32.9161 7.62102 1.48983
141 2 32.9243 7.60776 -1.71922 32.9243 7.60776 -1.71922
142 1 34.1034 9.26073 -0.118477 34.1034 9.26073 -0.118477
143 2 36.5636 9.26852 1.48997 36.5636 9.26852 1.48997
144 2 36.568 9.25361 -1.71906 36.568 9.25361 -1.71906
145 1 37.749 7.61492 -0.105366 37.749 7.61492 -0.105366
146 2 40.212 7.61992 1.49836 40.212 7.61992 1.49836
147 2 40.2102 7.61052 -1.71068 40.2102 7.61052 -1.71068
148 1 41.3941 9.26152 -0.111782 41.3941 9.26152 -0.111782
149 2 43.8586 9.26651 1.48838 43.8586 9.26651 1.48838
150 2 43.8523 9.25681 -1.72066 43.8523 9.25681 -1.72066
151 1 45.0388 7.61552 -0.113564 45.0388 7.61552 -0.113564
152 2 47.5057 7.61841 1.48323 47.5057 7.61841 1.48323
153 2 47.4951 7.61261 -1.72581 47.4951 7.61261 -1.72581
154 1 48.6834 9.26174 -0.128111 48.6834 9.26174 -0.128111
155 2 51.1491 9.26298 1.46976 51.1491 9.26298 1.46976
156 2 51.1404 9.25996 -1.73929 51.1404 9.25996 -1.73929
157 1 52.3281 7.61525 -0.136469 52.3281 7.61525 -0.136469
158 2 54.7953 7.61386 1.45875 54.7953 7.61386 1.45875
159 2 54.7831 7.6158 -1.75028 54.7831 7.6158 -1.75028
160 1 55.9722 9.26098 -0.149311 55.9722 9.26098 -0.149311
161 2 58.4389 9.25717 1.44707 58.4389 9.25717 1.44707
162 2 58.4283 9.26338 -1.76194 58.4283 9.26338 -1.76194
163 1 -5.98558 10.9065 -0.158142 -5.98558 10.9065 -0.158142
164 2 -3.52019 10.9013 1.44018 -3.52019 10.9013 1.44018
165 2 -3.52817 10.91 -1.76883 -3.52817 10.91 -1.76883
166 1 -2.34153 12.552 -0.162875 -2.34153 12.552 -0.162875
167 2 0.123672 12.5477 1.43542 0.123672 12.5477 1.43542
168 2 0.115533 12.5547 -1.7736 0.115533 12.5547 -1.7736
169 1 1.30307 10.9049 -0.175714 1.30307 10.9049 -0.175714
170 2 3.76747 10.902 1.42332 3.76747 10.902 1.42332
171 2 3.76043 10.9064 -1.78568 3.76043 10.9064 -1.78568
172 1 4.94678 12.5505 -0.181421 4.94678 12.5505 -0.181421
173 2 7.41049 12.5493 1.41872 7.41049 12.5493 1.41872
174 2 7.40516 12.5508 -1.79028 7.40516 12.5508 -1.79028
175 1 8.59109 10.9037 -0.188422 8.59109 10.9037 -0.188422
176 2 11.0518 10.9048 1.41561 11.0518 10.9048 1.41561
177 2 11.0515 10.9023 -1.7934 11.0515 10.9023 -1.7934
178 1 12.2345 12.55 -0.190222 12.2345 12.55 -0.190222
179 2 14.6947 12.5537 1.41484 14.6947 12.5537 1.41484
180 2 14.6958 12.5463 -1.79417 14.6958 12.5463 -1.79417
181 1 15.8785 10.9038 -0.185402 15.8785 10.9038 -0.185402
182 2 18.3366 10.9103 1.42394 18.3366 10.9103 1.42394
183 2 18.3432 10.8976 -1.78509 18.3432 10.8976 -1.78509
184 1 19.5229 12.5503 -0.184546 19.5229 12.5503 -0.184546
185 2 21.9801 12.5588 1.42616 21.9801 12.5588 1.42616
186 2 21.9885 12.5425 -1.78285 21.9885 12.5425 -1.78285
187 1 23.1675 10.9046 -0.166792 23.1675 10.9046 -0.166792
188 2 25.623 10.9144 1.44729 25.623 10.9144 1.44729
189 2 25.6355 10.896 -1.76174 25.6355 10.896 -1.76174
190 1 26.8123 12.5515 -0.161985 26.8123 12.5515 -0.161985
191 2 29.2682 12.5619 1.45228 29.2682 12.5619 1.45228
192 2 29.2809 12.5425 -1.75671 29.2809 12.5425 -1.75671
193 1 30.4579 10.9062 -0.13768 30.4579 10.9062 -0.13768
194 2 32.9157 10.9156 1.47391 32.9157 10.9156 1.47391
195 2 32.9243 10.898 -1.73512 32.9243 10.898 -1.73512
196 1 34.1029 12.5532 -0.136466 34.1029 12.5532 -0.136466
197 2 36.5625 12.5626 1.47257 36.5625 12.5626 1.47257
198 2 36.568 12.5443 -1.73644 36.568 12.5443 -1.73644
199 1 37.7488 10.9074 -0.120622 37.7488 10.9074 -0.120622
200 2 40.2104 10.9151 1.48489 40.2104 10.9151 1.48489
201 2 40.2112 10.9001 -1.72414 40.2112 10.9001 -1.72414
202 1 41.3935 12.554 -0.127127 41.3935 12.554 -0.127127
203 2 43.8556 12.5593 1.47633 43.8556 12.5593 1.47633
204 2 43.8538 12.5488 -1.7327 43.8538 12.5488 -1.7327
205 1 45.0383 10.908 -0.123499 45.0383 10.908 -0.123499
206 2 47.5031 10.9105 1.47614 47.5031 10.9105 1.47614
207 2 47.4966 10.9052 -1.7329 47.4966 10.9052 -1.7329
208 1 48.6825 12.5542 -0.133534 48.6825 12.5542 -0.133534
209 2 51.1471 12.5549 1.46628 51.1471 12.5549 1.46628
210 2 51.1407 12.5528 -1.74277 51.1407 12.5528 -1.74277
211 1 52.3275 10.9077 -0.139508 52.3275 10.9077 -0.139508
212 2 54.7926 10.9064 1.45896 54.7926 10.9064 1.45896
213 2 54.7848 10.908 -1.75008 54.7848 10.908 -1.75008
214 1 55.9714 12.5535 -0.147658 55.9714 12.5535 -0.147658
215 2 58.4361 12.5497 1.45187 58.4361 12.5497 1.45187
216 2 58.4295 12.5557 -1.75715 58.4295 12.5557 -1.75715
217 1 -5.98665 14.199 -0.151995 -5.98665 14.199 -0.151995
218 2 -3.52174 14.1952 1.44732 -3.52174 14.1952 1.44732
219 2 -3.52877 14.2012 -1.76169 -3.52877 14.2012 -1.76169
220 1 -2.34283 15.8446 -0.156743 -2.34283 15.8446 -0.156743
221 2 0.122686 15.8414 1.44151 0.122686 15.8414 1.44151
222 2 0.114205 15.8461 -1.76752 0.114205 15.8461 -1.76752
223 1 1.30216 14.1975 -0.168522 1.30216 14.1975 -0.168522
224 2 3.76784 14.1942 1.42906 3.76784 14.1942 1.42906
225 2 3.75881 14.1995 -1.77994 3.75881 14.1995 -1.77994
226 1 4.94596 15.8432 -0.17604 4.94596 15.8432 -0.17604
227 2 7.41132 15.8414 1.42189 7.41132 15.8414 1.42189
228 2 7.40302 15.8439 -1.7871 7.40302 15.8439 -1.7871
229 1 8.59063 14.1964 -0.186903 8.59063 14.1964 -0.186903
230 2 11.053 14.1972 1.41448 11.053 14.1972 1.41448
231 2 11.0494 14.1952 -1.79452 11.0494 14.1952 -1.79452
232 1 12.2339 15.8427 -0.192402 12.2339 15.8427 -0.192402
233 2 14.6959 15.8449 1.40996 14.6959 15.8449 1.40996
234 2 14.6936 15.8403 -1.79905 14.6936 15.8403 -1.79905
235 1 15.8782 14.1964 -0.192995 15.8782 14.1964 -0.192995
236 2 18.3383 14.2021 1.41318 18.3383 14.2021 1.41318
237 2 18.341 14.1909 -1.79586 18.341 14.1909 -1.79586
238 1 19.5225 15.8429 -0.196012 19.5225 15.8429 -0.196012
239 2 21.9812 15.8493 1.41243 21.9812 15.8493 1.41243
240 2 21.987 15.8369 -1.79661 21.987 15.8369 -1.79661
241 1 23.1673 14.197 -0.183471 23.1673 14.197 -0.183471
242 2 25.6236 14.2064 1.42928 25.6236 14.2064 1.42928
243 2 25.6346 14.1887 -1.77976 25.6346 14.1887 -1.77976
244 1 26.8121 15.8439 -0.180255 26.8121 15.8439 -0.180255
245 2 29.2686 15.8547 1.43251 29.2686 15.8547 1.43251
246 2 29.2796 15.8343 -1.77647 29.2796 15.8343 -1.77647
247 1 30.4576 14.1986 -0.157553 30.4576 14.1986 -0.157553
248 2 32.9149 14.2094 1.4542 32.9149 14.2094 1.4542
249 2 32.9239 14.1888 -1.75482 32.9239 14.1888 -1.75482
250 1 34.1021 15.8456 -0.157589 34.1021 15.8456 -0.157589
251 2 36.5605 15.8552 1.45278 36.5605 15.8552 1.45278
252 2 36.568 15.8364 -1.75622 36.568 15.8364 -1.75622
253 1 37.748 14.1999 -0.139404 37.748 14.1999 -0.139404
254 2 40.2083 14.2082 1.46785 40.2083 14.2082 1.46785
255 2 40.2114 14.1918 -1.74116 40.2114 14.1918 -1.74116
256 1 41.3924 15.8465 -0.143961 41.3924 15.8465 -0.143961
257 2 43.8522 15.853 1.46259 43.8522 15.853 1.46259
258 2 43.8546 15.8398 -1.74643 43.8546 15.8398 -1.74643
259 1 45.0372 14.2005 -0.134331 45.0372 14.2005 -0.134331
260 2 47.5 14.2038 1.46841 47.5 14.2038 1.46841
261 2 47.4973 14.1968 -1.74063 47.4973 14.1968 -1.74063
262 1 48.6811 15.8467 -0.14074 48.6811 15.8467 -0.14074
263 2 51.1438 15.848 1.46213 51.1438 15.848 1.46213
264 2 51.1413 15.8447 -1.74693 51.1413 15.8447 -1.74693
265 1 52.3264 14.2003 -0.141647 52.3264 14.2003 -0.141647
266 2 54.7901 14.199 1.45932 54.7901 14.199 1.45932
267 2 54.7852 14.2003 -1.74972 54.7852 14.2003 -1.74972
268 1 55.9701 15.846 -0.146256 55.9701 15.846 -0.146256
269 2 58.4337 15.8442 1.45513 58.4337 15.8442 1.45513
270 2 58.4294 15.8462 -1.75388 58.4294 15.8462 -1.75388
271 1 -5.98812 17.4916 -0.149967 -5.98812 17.4916 -0.149967
272 2 -3.52404 17.4899 1.45065 -3.52404 17.4899 1.45065
273 2 -3.52942 17.4916 -1.75837 -3.52942 17.4916 -1.75837
274 1 -2.34443 19.1372 -0.155047 -2.34443 19.1372 -0.155047
275 2 0.120822 19.136 1.44388 0.120822 19.136 1.44388
276 2 0.113158 19.1366 -1.76516 0.113158 19.1366 -1.76516
277 1 1.30083 17.4901 -0.163782 1.30083 17.4901 -0.163782
278 2 3.76707 17.488 1.43345 3.76707 17.488 1.43345
279 2 3.75744 17.4908 -1.77556 3.75744 17.4908 -1.77556
280 1 4.94468 19.1359 -0.173147 4.94468 19.1359 -0.173147
281 2 7.41048 19.1341 1.42457 7.41048 19.1341 1.42457
282 2 7.40171 19.1366 -1.78442 7.40171 19.1366 -1.78442
283 1 8.58976 17.4892 -0.184356 8.58976 17.4892 -0.184356
284 2 11.0536 17.4882 1.41505 11.0536 17.4882 1.41505
285 2 11.0474 17.4895 -1.79395 11.0474 17.4895 -1.79395
286 1 12.2331 19.1354 -0.191091 12.2331 19.1354 -0.191091
287 2 14.6967 19.135 1.40898 14.6967 19.135 1.40898
288 2 14.6912 19.1354 -1.80003 14.6912 19.1354 -1.80003
289 1 15.8775 17.489 -0.197682 15.8775 17.489 -0.197682
290 2 18.3394 17.4917 1.40591 18.3394 17.4917 1.40591
291 2 18.3388 17.4863 -1.80315 18.3388 17.4863 -1.80315
292 1 19.5219 19.1354 -0.201515 19.5219 19.1354 -0.201515
293 2 21.9826 19.1388 1.40403 21.9826 19.1388 1.40403
294 2 21.9846 19.1322 -1.80502 21.9846 19.1322 -1.80502
295 1 23.167 17.4894 -0.196263 23.167 17.4894 -0.196263
296 2 25.6245 17.4967 1.4142 25.6245 17.4967 1.4142
297 2 25.633 17.4831 -1.79487 25.633 17.4831 -1.79487
298 1 26.8115 19.1363 -0.194228 26.8115 19.1363 -0.194228
299 2 29.2691 19.1435 1.41633 29.2691 19.1435 1.41633
300 2 29.2774 19.1303 -1.79269 29.2774 19.1303 -1.79269
301 1 30.4569 17.491 -0.178389 30.4569 17.491 -0.178389
302 2 32.9132 17.5004 1.43395 32.9132 17.5004 1.43395
303 2 32.9237 17.4825 -1.77506 32.9237 17.4825 -1.77506
304 1 34.101 19.138 -0.175943 34.101 19.138 -0.175943
305 2 36.5587 19.1457 1.43506 36.5587 19.1457 1.43506
306 2 36.5672 19.1307 -1.77394 36.5672 19.1307 -1.77394
307 1 37.7468 17.4923 -0.158661 37.7468 17.4923 -0.158661
308 2 40.2055 17.5 1.45058 40.2055 17.5 1.45058
309 2 40.2116 17.4848 -1.75843 40.2116 17.4848 -1.75843
310 1 41.3909 19.1389 -0.159555 41.3909 19.1389 -0.159555
311 2 43.8495 19.1452 1.44859 43.8495 19.1452 1.44859
312 2 43.8541 19.1326 -1.76041 43.8541 19.1326 -1.76041
313 1 45.0357 17.4929 -0.147839 45.0357 17.4929 -0.147839
314 2 47.4962 17.4974 1.45831 47.4962 17.4974 1.45831
315 2 47.4981 17.4881 -1.75072 47.4981 17.4881 -1.75072
316 1 48.6794 19.1392 -0.150332 48.6794 19.1392 -0.150332
317 2 51.1401 19.1417 1.45586 51.1401 19.1417 1.45586
318 2 51.1419 19.1359 -1.75318 51.1419 19.1359 -1.75318
319 1 52.3249 17.4928 -0.144996 52.3249 17.4928 -0.144996
320 2 54.7872 17.4927 1.45835 54.7872 17.4927 1.45835
321 2 54.7853 17.4915 -1.75069 54.7853 17.4915 -1.75069
322 1 55.9686 19.1385 -0.147482 55.9686 19.1385 -0.147482
323 2 58.4316 19.1387 1.45477 58.4316 19.1387 1.45477
324 2 58.4282 19.1367 -1.75424 58.4282 19.1367 -1.75424
325 1 -5.9898 20.7841 -0.152045 -5.9898 20.7841 -0.152045
326 2 -3.52622 20.7849 1.44943 -3.52622 20.7849 1.44943
327 2 -3.53056 20.7817 -1.75959 -3.53056 20.7817 -1.75959
328 1 -2.34609 22.4297 -0.158396 -2.34609 22.4297 -0.158396
329 2 0.118457 22.4307 1.44168 0.118457 22.4307 1.44168
330 2 0.112433 22.4271 -1.76735 0.112433 22.4271 -1.76735
331 1 1.29931 20.7827 -0.163233 1.29931 20.7827 -0.163233
332 2 3.76519 20.7818 1.43476 3.76519 20.7818 1.43476
333 2 3.75649 20.7823 -1.77424 3.75649 20.7823 -1.77424
334 1 4.94322 22.4285 -0.172743 4.94322 22.4285 -0.172743
335 2 7.40839 22.4272 1.42617 7.40839 22.4272 1.42617
336 2 7.4012 22.429 -1.78282 7.4012 22.429 -1.78282
337 1 8.58855 20.7819 -0.181901 8.58855 20.7819 -0.181901
338 2 11.0531 20.7808 1.4169 11.0531 20.7808 1.4169
339 2 11.0458 20.7824 -1.7921 11.0458 20.7824 -1.7921
340 1 12.232 22.4281 -0.189472 12.232 22.4281 -0.189472
341 2 14.6961 22.4271 1.41015 14.6961 22.4271 1.41015
342 2 14.6901 22.4286 -1.79886 14.6901 22.4286 -1.79886
343 1 15.8766 20.7817 -0.197367 15.8766 20.7817 -0.197367
344 2 18.3406 20.7823 1.4037 18.3406 20.7823 1.4037
345 2 18.3364 20.7808 -1.80535 18.3364 20.7808 -1.80535
346 1 19.5213 22.428 -0.203062 19.5213 22.428 -0.203062
347 2 21.9832 22.429 1.40054 21.9832 22.429 1.40054
348 2 21.9827 22.427 -1.80851 21.9827 22.427 -1.80851
349 1 23.1664 20.7819 -0.203146 23.1664 20.7819 -0.203146
350 2 25.6257 20.7864 1.40439 25.6257 20.7864 1.40439
351 2 25.6302 20.7781 -1.80469 25.6302 20.7781 -1.80469
352 1 26.8106 22.4288 -0.202724 26.8106 22.4288 -0.202724
353 2 29.2689 22.4333 1.40621 29.2689 22.4333 1.40621
354 2 29.2752 22.4253 -1.80281 29.2752 22.4253 -1.80281
355 1 30.4559 20.7835 -0.191889 30.4559 20.7835 -0.191889
356 2 32.9131 20.7905 1.41881 32.9131 20.7905 1.41881
357 2 32.9213 20.7773 -1.79023 32.9213 20.7773 -1.79023
358 1 34.0997 22.4305 -0.189413 34.0997 22.4305 -0.189413
359 2 36.5574 22.4367 1.42128 36.5574 22.4367 1.42128
360 2 36.5658 22.4247 -1.78772 36.5658 22.4247 -1.78772
361 1 37.7454 20.7848 -0.174084 37.7454 20.7848 -0.174084
362 2 40.2037 20.7914 1.43571 40.2037 20.7914 1.43571
363 2 40.2105 20.7783 -1.77328 40.2105 20.7783 -1.77328
364 1 41.3895 22.4314 -0.173096 41.3895 22.4314 -0.173096
365 2 43.8473 22.4368 1.43605 43.8473 22.4368 1.43605
366 2 43.8534 22.426 -1.77295 43.8534 22.426 -1.77295
367 1 45.0341 20.7854 -0.160671 45.0341 20.7854 -0.160671
368 2 47.4933 20.7902 1.44739 47.4933 20.7902 1.44739
369 2 47.4977 20.7803 -1.76162 47.4977 20.7803 -1.76162
370 1 48.6779 22.4317 -0.160626 48.6779 22.4317 -0.160626
371 2 51.1372 22.4359 1.4473 51.1372 22.4359 1.4473
372 2 51.1416 22.4268 -1.76173 51.1416 22.4268 -1.76173
373 1 52.3233 20.7853 -0.151027 52.3233 20.7853 -0.151027
374 2 54.7847 20.7879 1.45378 54.7847 20.7879 1.45378
375 2 54.7846 20.7814 -1.75525 54.7846 20.7814 -1.75525
376 1 55.9669 22.4311 -0.154116 55.9669 22.4311 -0.154116
377 2 58.4287 22.4332 1.44983 58.4287 22.4332 1.44983
378 2 58.4277 22.4274 -1.75917 58.4277 22.4274 -1.75917
379 1 -5.99145 24.0767 -0.158115 -5.99145 24.0767 -0.158115
380 2 -3.52838 24.0791 1.44405 -3.52838 24.0791 1.44405
381 2 -3.53163 24.0726 -1.76497 -3.53163 24.0726 -1.76497
382 1 -2.34763 25.7223 -0.164984 -2.34763 25.7223 -0.164984
383 2 0.115724 25.7235 1.43681 0.115724 25.7235 1.43681
384 2 0.112127 25.7195 -1.77223 0.112127 25.7195 -1.77223
385 1 1.29778 24.0754 -0.166935 1.29778 24.0754 -0.166935
386 2 3.76203 24.0749 1.43352 3.76203 24.0749 1.43352
387 2 3.75672 24.0745 -1.7755 3.75672 24.0745 -1.7755
388 1 4.94177 25.7212 -0.173201 4.94177 25.7212 -0.173201
389 2 7.40629 25.7203 1.42704 7.40629 25.7203 1.42704
390 2 7.40063 25.7213 -1.78197 7.40063 25.7213 -1.78197
391 1 8.58722 24.0746 -0.180089 8.58722 24.0746 -0.180089
392 2 11.0517 24.0729 1.41903 11.0517 24.0729 1.41903
393 2 11.0448 24.0757 -1.78997 11.0448 24.0757 -1.78997
394 1 12.2308 25.7208 -0.186581 12.2308 25.7208 -0.186581
395 2 14.6951 25.718 1.41337 14.6951 25.718 1.41337
396 2 14.6893 25.723 -1.79565 14.6893 25.723 -1.79565
397 1 15.8757 24.0743 -0.195809 15.8757 24.0743 -0.195809
398 2 18.34 24.0721 1.40505 18.34 24.0721 1.40505
399 2 18.3356 24.0761 -1.80401 18.3356 24.0761 -1.80401
400 1 19.5205 25.7205 -0.199072 19.5205 25.7205 -0.199072
401 2 21.9838 25.7186 1.40257 21.9838 25.7186 1.40257
402 2 21.9804 25.7225 -1.80646 21.9804 25.7225 -1.80646
403 1 23.1657 24.0745 -0.20512 23.1657 24.0745 -0.20512
404 2 25.626 24.0755 1.40034 25.626 24.0755 1.40034
405 2 25.6279 24.074 -1.80873 25.6279 24.074 -1.80873
406 1 26.8095 25.7213 -0.204255 26.8095 25.7213 -0.204255
407 2 29.2692 25.7228 1.40229 29.2692 25.7228 1.40229
408 2 29.2725 25.7209 -1.80674 29.2725 25.7209 -1.80674
409 1 30.4546 24.0759 -0.200103 30.4546 24.0759 -0.200103
410 2 32.9128 24.0802 1.4089 32.9128 24.0802 1.4089
411 2 32.9191 24.0726 -1.80015 32.9191 24.0726 -1.80015
412 1 34.0985 25.7229 -0.197262 34.0985 25.7229 -0.197262
413 2 36.5566 25.7258 1.41274 36.5566 25.7258 1.41274
414 2 36.5642 25.7206 -1.79628 36.5642 25.7206 -1.79628
415 1 37.7442 24.0772 -0.18634 37.7442 24.0772 -0.18634
416 2 40.2018 24.0818 1.42404 40.2018 24.0818 1.42404
417 2 40.2097 24.073 -1.78496 40.2097 24.073 -1.78496
418 1 41.3883 25.7239 -0.182132 41.3883 25.7239 -0.182132
419 2 43.8457 25.7263 1.42774 43.8457 25.7263 1.42774
420 2 43.8528 25.7217 -1.78127 43.8528 25.7217 -1.78127
421 1 45.0328 24.0779 -0.171776 45.0328 24.0779 -0.171776
422 2 47.4907 24.0813 1.43781 47.4907 24.0813 1.43781
423 2 47.4976 24.0743 -1.77119 47.4976 24.0743 -1.77119
424 1 48.6767 25.7243 -0.167872 48.6767 25.7243 -0.167872
425 2 51.1359 25.7266 1.43998 51.1359 25.7266 1.43998
426 2 51.1401 25.7213 -1.76904 51.1401 25.7213 -1.76904
427 1 52.3218 24.0778 -0.160314 52.3218 24.0778 -0.160314
428 2 54.7818 24.0804 1.44617 54.7818 24.0804 1.44617
429 2 54.7843 24.074 -1.76284 54.7843 24.074 -1.76284
430 1 55.9654 25.7236 -0.160837 55.9654 25.7236 -0.160837
431 2 58.4268 25.7257 1.44362 58.4268 25.7257 1.44362
432 2 58.4266 25.72 -1.76538 58.4266 25.72 -1.76538
433 1 -5.99286 27.3692 -0.16395 -5.99286 27.3692 -0.16395
434 2 -3.52988 27.3708 1.43828 -3.52988 27.3708 1.43828
435 2 -3.53304 27.3661 -1.77074 -3.53304 27.3661 -1.77074
436 1 -2.34899 29.0148 -0.169817 -2.34899 29.0148 -0.169817
437 2 0.113938 29.016 1.43255 0.113938 29.016 1.43255
438 2 0.111075 29.0122 -1.77649 0.111075 29.0122 -1.77649
439 1 1.29629 27.3679 -0.171107 1.29629 27.3679 -0.171107
440 2 3.75953 27.3688 1.43099 3.75953 27.3688 1.43099
441 2 3.75637 27.3659 -1.77803 3.75637 27.3659 -1.77803
442 1 4.94048 29.0138 -0.176194 4.94048 29.0138 -0.176194
443 2 7.404 29.0144 1.42576 7.404 29.0144 1.42576
444 2 7.4006 29.0125 -1.78326 7.4006 29.0125 -1.78326
445 1 8.58595 27.3673 -0.179075 8.58595 27.3673 -0.179075
446 2 11.0498 27.3653 1.4215 11.0498 27.3653 1.4215
447 2 11.0446 27.3686 -1.78752 11.0446 27.3686 -1.78752
448 1 12.2299 29.0134 -0.183322 12.2299 29.0134 -0.183322
449 2 14.6937 29.0109 1.41774 14.6937 29.0109 1.41774
450 2 14.6891 29.0153 -1.79129 14.6891 29.0153 -1.79129
451 1 15.8749 27.3669 -0.190763 15.8749 27.3669 -0.190763
452 2 18.3396 27.3644 1.40971 18.3396 27.3644 1.40971
453 2 18.3343 27.369 -1.79934 18.3343 27.369 -1.79934
454 1 19.5197 29.0131 -0.194382 19.5197 29.0131 -0.194382
455 2 21.983 29.0107 1.4071 21.983 29.0107 1.4071
456 2 21.9794 29.0156 -1.80191 21.9794 29.0156 -1.80191
457 1 23.1647 27.3671 -0.201215 23.1647 27.3671 -0.201215
458 2 25.6264 27.3657 1.40226 25.6264 27.3657 1.40226
459 2 25.6255 27.369 -1.8068 25.6255 27.369 -1.8068
460 1 26.8086 29.0139 -0.200943 26.8086 29.0139 -0.200943
461 2 29.269 29.0116 1.40466 29.269 29.0116 1.40466
462 2 29.271 29.0173 -1.80436 29.271 29.0173 -1.80436
463 1 30.4535 27.3684 -0.202024 30.4535 27.3684 -0.202024
464 2 32.9124 27.3686 1.40581 32.9124 27.3686 1.40581
465 2 32.9173 27.3693 -1.80324 32.9173 27.3693 -1.80324
466 1 34.0975 29.0155 -0.196623 34.0975 29.0155 -0.196623
467 2 36.5568 29.015 1.41168 36.5568 29.015 1.41168
468 2 36.5622 29.0166 -1.79735 36.5622 29.0166 -1.79735
469 1 37.7431 27.3697 -0.191663 37.7431 27.3697 -0.191663
470 2 40.2012 27.3715 1.41816 40.2012 27.3715 1.41816
471 2 40.2084 27.3684 -1.79085 40.2084 27.3684 -1.79085
472 1 41.3875 29.0165 -0.185328 41.3875 29.0165 -0.185328
473 2 43.8446 29.0171 1.42471 43.8446 29.0171 1.42471
474 2 43.8522 29.0162 -1.78428 43.8522 29.0162 -1.78428
475 1 45.0319 27.3705 -0.176604 45.0319 27.3705 -0.176604
476 2 47.4902 27.3725 1.43242 47.4902 27.3725 1.43242
477 2 47.496 27.3684 -1.77657 47.496 27.3684 -1.77657
478 1 48.6758 29.0169 -0.172098 48.6758 29.0169 -0.172098
479 2 51.1352 29.0187 1.43531 51.1352 29.0187 1.43531
480 2 51.1389 29.0146 -1.77369 51.1389 29.0146 -1.77369
481 1 52.3205 27.3704 -0.165764 52.3205 27.3704 -0.165764
482 2 54.7807 27.3724 1.44037 54.7807 27.3724 1.44037
483 2 54.7827 27.3672 -1.76863 54.7827 27.3672 -1.76863
484 1 55.9643 29.0162 -0.166136 55.9643 29.0162 -0.166136
485 2 58.4259 29.0185 1.43785 58.4259 29.0185 1.43785
486 2 58.425 29.0124 -1.77114 58.425 29.0124 -1.77114
487 1 -5.99391 30.6618 -0.170063 -5.99391 30.6618 -0.170063
488 2 -3.53184 30.6631 1.43324 -3.53184 30.6631 1.43324
489 2 -3.53345 30.6591 -1.77577 -3.53345 30.6591 -1.77577
490 1 -2.3499 32.3073 -0.173923 -2.3499 32.3073 -0.173923
491 2 0.113437 32.3097 1.42788 0.113437 32.3097 1.42788
492 2 0.109749 32.3037 -1.78117 0.109749 32.3037 -1.78117
493 1 1.29507 30.6605 -0.174925 1.29507 30.6605 -0.174925
494 2 3.75866 30.6627 1.42689 3.75866 30.6627 1.42689
495 2 3.75508 30.6573 -1.78213 3.75508 30.6573 -1.78213
496 1 4.93974 32.3063 -0.181573 4.93974 32.3063 -0.181573
497 2 7.40201 32.3075 1.42229 7.40201 32.3075 1.42229
498 2 7.40134 32.3045 -1.78675 7.40134 32.3045 -1.78675
499 1 8.58505 30.6598 -0.180921 8.58505 30.6598 -0.180921
500 2 11.0471 30.6589 1.42247 11.0471 30.6589 1.42247
501 2 11.0457 30.6603 -1.78656 11.0457 30.6603 -1.78656
502 1 12.2293 32.3059 -0.18194 12.2293 32.3059 -0.18194
503 2 14.6918 32.3037 1.42114 14.6918 32.3037 1.42114
504 2 14.6899 32.3077 -1.78788 14.6899 32.3077 -1.78788
505 1 15.8742 30.6595 -0.186245 15.8742 30.6595 -0.186245
506 2 18.3386 30.6567 1.41458 18.3386 30.6567 1.41458
507 2 18.3339 30.662 -1.79446 18.3339 30.662 -1.79446
508 1 19.5192 32.3057 -0.188934 19.5192 32.3057 -0.188934
509 2 21.981 32.2999 1.41465 21.981 32.2999 1.41465
510 2 21.9804 32.3119 -1.79434 21.9804 32.3119 -1.79434
511 1 23.164 30.6597 -0.19619 23.164 30.6597 -0.19619
512 2 25.6248 30.6551 1.40837 25.6248 30.6551 1.40837
513 2 25.6257 30.665 -1.80066 25.6257 30.665 -1.80066
514 1 26.8081 32.3065 -0.190859 26.8081 32.3065 -0.190859
515 2 29.2682 32.2996 1.4151 29.2682 32.2996 1.4151
516 2 29.2707 32.3146 -1.79387 29.2707 32.3146 -1.79387
517 1 30.4528 30.661 -0.196247 30.4528 30.661 -0.196247
518 2 32.9122 30.6574 1.41076 32.9122 30.6574 1.41076
519 2 32.916 30.6656 -1.79828 32.916 30.6656 -1.79828
520 1 34.097 32.308 -0.188156 34.097 32.308 -0.188156
521 2 36.557 32.3026 1.41898 36.557 32.3026 1.41898
522 2 36.5611 32.3143 -1.79002 36.5611 32.3143 -1.79002
523 1 37.7424 30.6623 -0.190075 37.7424 30.6623 -0.190075
524 2 40.2008 30.6602 1.41915 40.2008 30.6602 1.41915
525 2 40.2076 30.665 -1.78984 40.2076 30.665 -1.78984
526 1 41.3871 32.3091 -0.180469 41.3871 32.3091 -0.180469
527 2 43.8446 32.3052 1.42885 43.8446 32.3052 1.42885
528 2 43.8514 32.3136 -1.78012 43.8514 32.3136 -1.78012
529 1 45.0312 30.6632 -0.177586 45.0312 30.6632 -0.177586
530 2 47.4896 30.6626 1.43101 47.4896 30.6626 1.43101
531 2 47.4952 30.6638 -1.77797 47.4952 30.6638 -1.77797
532 1 48.6754 32.3096 -0.170933 48.6754 32.3096 -0.170933
533 2 51.1355 32.3079 1.43526 51.1355 32.3079 1.43526
534 2 51.1379 32.3109 -1.77374 51.1379 32.3109 -1.77374
535 1 52.3198 30.663 -0.169978 52.3198 30.663 -0.169978
536 2 54.78 30.6646 1.43572 54.78 30.6646 1.43572