ITEM: TIMESTEP
2602000
ITEM: NUMBER OF ATOMS
810
ITEM: BOX BOUNDS pp pp pp
-5.8100574838854664e+00 5.8827662483884531e+01
8.1394622342039402e-01 5.0202268776579182e+01
-1.0000000000000000e+01 1.0000000000000000e+01
ITEM: ATOMS id type x y z xu yu zu
1 1 -5.50384 1.02618 -0.169491 -5.50384 1.02618 -0.169491
2 2 -3.09162 1.02721 1.43307 -3.09162 1.02721 1.43307
3 2 -3.09341 1.02581 -1.77525 -3.09341 1.02581 -1.77525
4 1 -1.91275 2.67269 -0.172443 -1.91275 2.67269 -0.172443
5 2 0.497103 2.67185 1.43262 0.497103 2.67185 1.43262
6 2 0.498743 2.67451 -1.7757 0.498743 2.67451 -1.7757
7 1 1.67647 1.0268 -0.172306 1.67647 1.0268 -0.172306
8 2 4.08572 1.02725 1.43402 4.08572 1.02725 1.43402
9 2 4.08919 1.02782 -1.7743 4.08919 1.02782 -1.7743
10 1 5.26705 2.67386 -0.168558 5.26705 2.67386 -0.168558
11 2 7.67538 2.67312 1.4394 7.67538 2.67312 1.4394
12 2 7.68079 2.67624 -1.76892 7.68079 2.67624 -1.76892
13 1 8.85676 1.02839 -0.164371 8.85676 1.02839 -0.164371
14 2 11.2637 1.02906 1.44537 11.2637 1.02906 1.44537
15 2 11.2716 1.02929 -1.76295 11.2716 1.02929 -1.76295
16 1 12.4473 2.67546 -0.155775 12.4473 2.67546 -0.155775
17 2 14.8548 2.67576 1.45429 14.8548 2.67576 1.45429
18 2 14.8627 2.67637 -1.75403 14.8627 2.67637 -1.75403
19 1 16.0374 1.02972 -0.147264 16.0374 1.02972 -0.147264
20 2 18.4447 1.03081 1.46353 18.4447 1.03081 1.46353
21 2 18.4535 1.02945 -1.74481 18.4535 1.02945 -1.74481
22 1 19.6287 2.67629 -0.138089 19.6287 2.67629 -0.138089
23 2 22.0375 2.67867 1.47069 22.0375 2.67867 1.47069
24 2 22.0432 2.67426 -1.73765 22.0432 2.67426 -1.73765
25 1 23.2191 1.03011 -0.12915 23.2191 1.03011 -0.12915
26 2 25.6296 1.03157 1.47781 25.6296 1.03157 1.47781
27 2 25.6327 1.02897 -1.73054 25.6327 1.02897 -1.73054
28 1 26.8109 2.67632 -0.126586 26.8109 2.67632 -0.126586
29 2 29.2238 2.68006 1.47733 29.2238 2.68006 1.47733
30 2 29.2228 2.67259 -1.73104 29.2228 2.67259 -1.73104
31 1 30.4021 1.02997 -0.123403 30.4021 1.02997 -0.123403
32 2 32.8164 1.03223 1.47834 32.8164 1.03223 1.47834
33 2 32.8124 1.02744 -1.73003 32.8124 1.02744 -1.73003
34 1 33.9941 2.67577 -0.129745 33.9941 2.67577 -0.129745
35 2 36.4099 2.68013 1.46986 36.4099 2.68013 1.46986
36 2 36.4032 2.67085 -1.73849 36.4032 2.67085 -1.73849
37 1 37.5854 1.02905 -0.131976 37.5854 1.02905 -0.131976
38 2 40.0024 1.03185 1.46623 40.0024 1.03185 1.46623
39 2 39.9939 1.02556 -1.74211 39.9939 1.02556 -1.74211
40 1 41.1781 2.67461 -0.14419 41.1781 2.67461 -0.14419
41 2 43.5947 2.67894 1.45393 43.5947 2.67894 1.45393
42 2 43.5864 2.6696 -1.75439 43.5864 2.6696 -1.75439
43 1 44.7691 1.02769 -0.148391 44.7691 1.02769 -0.148391
44 2 47.1851 1.03046 1.45043 47.1851 1.03046 1.45043
45 2 47.1778 1.02444 -1.75789 47.1778 1.02444 -1.75789
46 1 48.3614 2.67343 -0.159381 48.3614 2.67343 -0.159381
47 2 50.7763 2.67676 1.44113 50.7763 2.67676 1.44113
48 2 50.7715 2.66976 -1.76719 50.7715 2.66976 -1.76719
49 1 51.9524 1.02665 -0.161201 51.9524 1.02665 -0.161201
50 2 54.3662 1.02863 1.43984 54.3662 1.02863 1.43984
51 2 54.3621 1.02456 -1.76848 54.3621 1.02456 -1.76848
52 1 55.544 2.67266 -0.167889 55.544 2.67266 -0.167889
53 2 57.9566 2.67379 1.43443 57.9566 2.67379 1.43443
54 2 57.9543 2.67165 -1.77388 57.9543 2.67165 -1.77388
55 1 -5.50255 4.31888 -0.171665 -5.50255 4.31888 -0.171665
56 2 -3.09143 4.31819 1.43254 -3.09143 4.31819 1.43254
57 2 -3.09121 4.32004 -1.77579 -3.09121 4.32004 -1.77579
58 1 -1.91187 5.96541 -0.1706 -1.91187 5.96541 -0.1706
59 2 0.497236 5.9637 1.43567 0.497236 5.9637 1.43567
60 2 0.50022 5.96791 -1.77265 0.50022 5.96791 -1.77265
61 1 1.67747 4.31948 -0.16959 1.67747 4.31948 -0.16959
62 2 4.08676 4.31784 1.4368 4.08676 4.31784 1.4368
63 2 4.08992 4.32246 -1.77152 4.08992 4.32246 -1.77152
64 1 5.26779 5.96651 -0.163807 5.26779 5.96651 -0.163807
65 2 7.67641 5.96485 1.44376 7.67641 5.96485 1.44376
66 2 7.68114 5.96967 -1.76456 7.68114 5.96967 -1.76456
67 1 8.8576 4.32101 -0.16115 8.8576 4.32101 -0.16115
68 2 11.2654 4.32033 1.44756 11.2654 4.32033 1.44756
69 2 11.2716 4.32316 -1.76077 11.2716 4.32316 -1.76077
70 1 12.4479 5.96807 -0.152881 12.4479 5.96807 -0.152881
71 2 14.8567 5.96884 1.45533 14.8567 5.96884 1.45533
72 2 14.8621 5.96835 -1.753 14.8621 5.96835 -1.753
73 1 16.0383 4.32231 -0.14665 16.0383 4.32231 -0.14665
74 2 18.447 4.32456 1.46202 18.447 4.32456 1.46202
75 2 18.4528 4.3207 -1.74633 18.4528 4.3207 -1.74633
76 1 19.6294 5.96882 -0.141989 19.6294 5.96882 -0.141989
77 2 22.0394 5.97356 1.46464 22.0394 5.97356 1.46464
78 2 22.0425 5.96416 -1.7437 22.0425 5.96416 -1.7437
79 1 23.2199 4.32258 -0.13365 23.2199 4.32258 -0.13365
80 2 25.6312 4.32735 1.47216 25.6312 4.32735 1.47216
81 2 25.6328 4.31789 -1.73618 25.6328 4.31789 -1.73618
82 1 26.8115 5.96871 -0.136276 26.8115 5.96871 -0.136276
83 2 29.2247 5.97517 1.46698 29.2247 5.97517 1.46698
84 2 29.223 5.96201 -1.74138 29.223 5.96201 -1.74138
85 1 30.4029 4.32232 -0.131076 30.4029 4.32232 -0.131076
86 2 32.8173 4.32769 1.47029 32.8173 4.32769 1.47029
87 2 32.813 4.31652 -1.73808 32.813 4.31652 -1.73808
88 1 33.9948 5.96804 -0.141245 33.9948 5.96804 -0.141245
89 2 36.4111 5.97533 1.45761 36.4111 5.97533 1.45761
90 2 36.4035 5.96005 -1.75073 36.4035 5.96005 -1.75073
91 1 37.5863 4.32139 -0.141482 37.5863 4.32139 -0.141482
92 2 40.0035 4.32744 1.45651 40.0035 4.32744 1.45651
93 2 39.9949 4.31466 -1.75184 39.9949 4.31466 -1.75184
94 1 41.1789 5.96698 -0.157324 41.1789 5.96698 -0.157324
95 2 43.5949 5.9733 1.44175 43.5949 5.9733 1.44175
96 2 43.5881 5.95998 -1.76657 43.5881 5.95998 -1.76657
97 1 44.7704 4.32022 -0.158005 44.7704 4.32022 -0.158005
98 2 47.1859 4.3253 1.44152 47.1859 4.3253 1.44152
99 2 47.1796 4.31464 -1.76681 47.1796 4.31464 -1.76681
100 1 48.3624 5.96602 -0.170299 48.3624 5.96602 -0.170299
101 2 50.776 5.9703 1.43201 50.776 5.9703 1.43201
102 2 50.7738 5.96134 -1.77631 50.7738 5.96134 -1.77631
103 1 51.9537 4.31933 -0.168342 51.9537 4.31933 -0.168342
104 2 54.3666 4.32209 1.43412 54.3666 4.32209 1.43412
105 2 54.3644 4.31633 -1.7742 54.3644 4.31633 -1.7742
106 1 55.545 5.96537 -0.173757 55.545 5.96537 -0.173757
107 2 57.9559 5.96642 1.43102 57.9559 5.96642 1.43102
108 2 57.957 5.96427 -1.77729 57.957 5.96427 -1.77729
109 1 -5.50191 7.61164 -0.173809 -5.50191 7.61164 -0.173809
110 2 -3.0929 7.61037 1.4334 -3.0929 7.61037 1.4334
111 2 -3.08856 7.61316 -1.77491 -3.08856 7.61316 -1.77491
112 1 -1.9116 9.25816 -0.167793 -1.9116 9.25816 -0.167793
113 2 0.496745 9.25578 1.43993 0.496745 9.25578 1.43993
114 2 0.501384 9.2611 -1.76838 0.501384 9.2611 -1.76838
115 1 1.67804 7.61218 -0.16523 1.67804 7.61218 -0.16523
116 2 4.08679 7.60958 1.44205 4.08679 7.60958 1.44205
117 2 4.09108 7.61595 -1.76627 4.09108 7.61595 -1.76627
118 1 5.26822 9.25918 -0.157312 5.26822 9.25918 -0.157312
119 2 7.67734 9.25684 1.4497 7.67734 9.25684 1.4497
120 2 7.68102 9.26288 -1.75862 7.68102 9.26288 -1.75862
121 1 8.85813 7.61364 -0.156168 8.85813 7.61364 -0.156168
122 2 11.2665 7.61237 1.45152 11.2665 7.61237 1.45152
123 2 11.2714 7.61623 -1.7568 11.2714 7.61623 -1.7568
124 1 12.4482 9.26068 -0.148972 12.4482 9.26068 -0.148972
125 2 14.8591 9.26157 1.45621 14.8591 9.26157 1.45621
126 2 14.8602 9.26069 -1.75211 14.8602 9.26069 -1.75211
127 1 16.0388 7.61489 -0.147105 16.0388 7.61489 -0.147105
128 2 18.4492 7.61752 1.45888 18.4492 7.61752 1.45888
129 2 18.4515 7.61268 -1.74947 18.4515 7.61268 -1.74947
130 1 19.6296 9.26134 -0.146954 19.6296 9.26134 -0.146954
131 2 22.0418 9.26641 1.45625 22.0418 9.26641 1.45625
132 2 22.0403 9.25613 -1.75208 22.0403 9.25613 -1.75208
133 1 23.2203 7.61503 -0.143184 23.2203 7.61503 -0.143184
134 2 25.6322 7.62134 1.46127 25.6322 7.62134 1.46127
135 2 25.6324 7.60853 -1.74705 25.6324 7.60853 -1.74705
136 1 26.8116 9.26108 -0.149411 26.8116 9.26108 -0.149411
137 2 29.2257 9.26908 1.45239 29.2257 9.26908 1.45239
138 2 29.2223 9.25256 -1.75594 29.2223 9.25256 -1.75594
139 1 30.4033 7.61462 -0.144588 30.4033 7.61462 -0.144588
140 2 32.8181 7.62276 1.45612 32.8181 7.62276 1.45612
141 2 32.8132 7.6058 -1.75222 32.8132 7.6058 -1.75222
142 1 33.995 9.26026 -0.158575 33.995 9.26026 -0.158575
143 2 36.4109 9.26837 1.44069 36.4109 9.26837 1.44069
144 2 36.4042 9.25129 -1.76764 36.4042 9.25129 -1.76764
145 1 37.5868 7.61362 -0.157122 37.5868 7.61362 -0.157122
146 2 40.0032 7.62062 1.44182 40.0032 7.62062 1.44182
147 2 39.9962 7.6059 -1.76653 39.9962 7.6059 -1.76653
148 1 41.1791 9.25928 -0.172469 41.1791 9.25928 -0.172469
149 2 43.5946 9.26584 1.42745 43.5946 9.26584 1.42745
150 2 43.5888 9.25203 -1.78087 43.5888 9.25203 -1.78087
151 1 44.771 7.61268 -0.171629 44.771 7.61268 -0.171629
152 2 47.1852 7.61776 1.42965 47.1852 7.61776 1.42965
153 2 47.1816 7.60708 -1.77868 47.1816 7.60708 -1.77868
154 1 48.3627 9.25858 -0.181265 48.3627 9.25858 -0.181265
155 2 50.7754 9.26237 1.42259 50.7754 9.26237 1.42259
156 2 50.7751 9.25435 -1.78573 50.7751 9.25435 -1.78573
157 1 51.9544 7.61199 -0.177484 51.9544 7.61199 -0.177484
158 2 54.3655 7.61414 1.4275 54.3655 7.61414 1.4275
159 2 54.3668 7.60948 -1.78082 54.3668 7.60948 -1.78082
160 1 55.5453 9.25811 -0.178525 55.5453 9.25811 -0.178525
161 2 57.9548 9.25838 1.42848 57.9548 9.25838 1.42848
162 2 57.9586 9.25763 -1.77982 57.9586 9.25763 -1.77982
163 1 -5.502 10.9044 -0.174647 -5.502 10.9044 -0.174647
164 2 -3.09405 10.904 1.43444 -3.09405 10.904 1.43444
165 2 -3.08749 10.9049 -1.77387 -3.08749 10.9049 -1.77387
166 1 -1.91191 12.5509 -0.166858 -1.91191 12.5509 -0.166858
167 2 0.494778 12.549 1.44341 0.494778 12.549 1.44341
168 2 0.502972 12.5531 -1.7649 0.502972 12.5531 -1.7649
169 1 1.67813 10.9049 -0.159864 1.67813 10.9049 -0.159864
170 2 4.08686 10.9027 1.4479 4.08686 10.9027 1.4479
171 2 4.09146 10.908 -1.76042 4.09146 10.908 -1.76042
172 1 5.26822 12.5519 -0.151893 5.26822 12.5519 -0.151893
173 2 7.67759 12.5505 1.45489 7.67759 12.5505 1.45489
174 2 7.68103 12.5544 -1.75343 7.68103 12.5544 -1.75343
175 1 8.85839 10.9063 -0.15007 8.85839 10.9063 -0.15007
176 2 11.2683 10.9061 1.45549 11.2683 10.9061 1.45549
177 2 11.27 10.9077 -1.75284 11.27 10.9077 -1.75284
178 1 12.4484 12.5533 -0.147307 12.4484 12.5533 -0.147307
179 2 14.8605 12.5548 1.45565 14.8605 12.5548 1.45565
180 2 14.8589 12.5526 -1.75267 14.8589 12.5526 -1.75267
181 1 16.0389 10.9075 -0.148066 16.0389 10.9075 -0.148066
182 2 18.4518 10.9115 1.45421 18.4518 10.9115 1.45421
183 2 18.449 10.9036 -1.75412 18.449 10.9036 -1.75412
184 1 19.6295 12.5539 -0.155017 19.6295 12.5539 -0.155017
185 2 22.0432 12.5601 1.44559 22.0432 12.5601 1.44559
186 2 22.0385 12.5473 -1.76272 22.0385 12.5473 -1.76272
187 1 23.2202 10.9075 -0.153738 23.2202 10.9075 -0.153738
188 2 25.634 10.9152 1.4479 25.634 10.9152 1.4479
189 2 25.6304 10.8993 -1.7604 25.6304 10.8993 -1.7604
190 1 26.8114 12.5534 -0.165691 26.8114 12.5534 -0.165691
191 2 29.2262 12.5623 1.43493 29.2262 12.5623 1.43493
192 2 29.2215 12.5439 -1.77339 29.2215 12.5439 -1.77339
193 1 30.4033 10.9069 -0.161571 30.4033 10.9069 -0.161571
194 2 32.8188 10.9159 1.43818 32.8188 10.9159 1.43818
195 2 32.8126 10.897 -1.77015 32.8126 10.897 -1.77015
196 1 33.9949 12.5525 -0.17787 33.9949 12.5525 -0.17787
197 2 36.41 12.5609 1.42229 36.41 12.5609 1.42229
198 2 36.4047 12.5431 -1.78603 36.4047 12.5431 -1.78603
199 1 37.5869 10.9058 -0.174686 37.5869 10.9058 -0.174686
200 2 40.0025 10.9137 1.42529 40.0025 10.9137 1.42529
201 2 39.9969 10.8972 -1.78305 39.9969 10.8972 -1.78305
202 1 41.1788 12.5516 -0.18935 41.1788 12.5516 -0.18935
203 2 43.5932 12.5587 1.41194 43.5932 12.5587 1.41194
204 2 43.5895 12.5437 -1.79638 43.5895 12.5437 -1.79638
205 1 44.7709 10.9051 -0.185779 44.7709 10.9051 -0.185779
206 2 47.1844 10.9115 1.41673 47.1844 10.9115 1.41673
207 2 47.1823 10.8981 -1.7916 47.1823 10.8981 -1.7916
208 1 48.3623 12.5511 -0.194906 48.3623 12.5511 -0.194906
209 2 50.7729 12.5559 1.41179 50.7729 12.5559 1.41179
210 2 50.7767 12.5458 -1.79653 50.7767 12.5458 -1.79653
211 1 51.9543 10.9047 -0.185753 51.9543 10.9047 -0.185753
212 2 54.3643 10.9076 1.42103 54.3643 10.9076 1.42103
213 2 54.3678 10.9013 -1.78728 54.3678 10.9013 -1.78728
214 1 55.5449 12.5508 -0.185003 55.5449 12.5508 -0.185003
215 2 57.9521 12.5519 1.42518 57.9521 12.5519 1.42518
216 2 57.9605 12.5495 -1.78311 57.9605 12.5495 -1.78311
217 1 -5.5027 14.1972 -0.177183 -5.5027 14.1972 -0.177183
218 2 -3.09652 14.196 1.43462 -3.09652 14.196 1.43462
219 2 -3.08621 14.1982 -1.77369 -3.08621 14.1982 -1.77369
220 1 -1.91275 15.8436 -0.164739 -1.91275 15.8436 -0.164739
221 2 0.493123 15.8414 1.44705 0.493123 15.8414 1.44705
222 2 0.503267 15.8459 -1.76126 0.503267 15.8459 -1.76126
223 1 1.6777 14.1976 -0.155802 1.6777 14.1976 -0.155802
224 2 4.08595 14.1953 1.45292 4.08595 14.1953 1.45292
225 2 4.09188 14.2007 -1.7554 4.09188 14.2007 -1.7554
226 1 5.2678 15.8445 -0.146443 5.2678 15.8445 -0.146443
227 2 7.67769 15.8421 1.46002 7.67769 15.8421 1.46002
228 2 7.68058 15.8479 -1.7483 7.68058 15.8479 -1.7483
229 1 8.8584 14.1989 -0.146134 8.8584 14.1989 -0.146134
230 2 11.269 14.1978 1.45845 11.269 14.1978 1.45845
231 2 11.2695 14.2011 -1.74988 11.2695 14.2011 -1.74988
232 1 12.4484 15.8459 -0.144037 12.4484 15.8459 -0.144037
233 2 14.8623 15.8458 1.45626 14.8623 15.8458 1.45626
234 2 14.8569 15.8466 -1.75207 14.8569 15.8466 -1.75207
235 1 16.0389 14.2 -0.150395 16.0389 14.2 -0.150395
236 2 18.4535 14.2028 1.44882 18.4535 14.2028 1.44882
237 2 18.4469 14.1974 -1.75951 18.4469 14.1974 -1.75951
238 1 19.6292 15.8464 -0.1606 19.6292 15.8464 -0.1606
239 2 22.0451 15.8504 1.43643 22.0451 15.8504 1.43643
240 2 22.0358 15.8419 -1.77188 22.0358 15.8419 -1.77188
241 1 23.2199 14.1999 -0.166776 23.2199 14.1999 -0.166776
242 2 25.6347 14.207 1.43294 25.6347 14.207 1.43294
243 2 25.6291 14.1922 -1.77536 25.6291 14.1922 -1.77536
244 1 26.8109 15.8458 -0.180868 26.8109 15.8458 -0.180868
245 2 29.2266 15.8531 1.41824 29.2266 15.8531 1.41824
246 2 29.2201 15.8377 -1.79007 29.2201 15.8377 -1.79007
247 1 30.4029 14.1992 -0.180422 30.4029 14.1992 -0.180422
248 2 32.8181 14.2073 1.41948 32.8181 14.2073 1.41948
249 2 32.8125 14.1901 -1.78884 32.8125 14.1901 -1.78884
250 1 33.9943 15.8448 -0.195593 33.9943 15.8448 -0.195593
251 2 36.4094 15.8526 1.40456 36.4094 15.8526 1.40456
252 2 36.4042 15.8358 -1.80375 36.4042 15.8358 -1.80375
253 1 37.5865 14.1981 -0.192885 37.5865 14.1981 -0.192885
254 2 40.0015 14.206 1.40787 40.0015 14.206 1.40787
255 2 39.997 14.1893 -1.80046 39.997 14.1893 -1.80046
256 1 41.1781 15.8439 -0.206436 41.1781 15.8439 -0.206436
257 2 43.5913 15.8502 1.39648 43.5913 15.8502 1.39648
258 2 43.5898 15.8368 -1.81184 43.5898 15.8368 -1.81184
259 1 44.7703 14.1975 -0.201221 44.7703 14.1975 -0.201221
260 2 47.1823 14.2028 1.40315 47.1823 14.2028 1.40315
261 2 47.1829 14.1916 -1.80518 47.1829 14.1916 -1.80518
262 1 48.3613 15.8436 -0.206481 48.3613 15.8436 -0.206481
263 2 50.7708 15.8474 1.40178 50.7708 15.8474 1.40178
264 2 50.7766 15.8394 -1.80654 50.7766 15.8394 -1.80654
265 1 51.9536 14.1973 -0.196093 51.9536 14.1973 -0.196093
266 2 54.3613 14.1993 1.41378 54.3613 14.1993 1.41378
267 2 54.3693 14.1947 -1.79453 54.3693 14.1947 -1.79453
268 1 55.5438 15.8435 -0.189833 55.5438 15.8435 -0.189833
269 2 57.9498 15.8438 1.42244 57.9498 15.8438 1.42244
270 2 57.9608 15.8428 -1.78586 57.9608 15.8428 -1.78586
271 1 -5.50397 17.4899 -0.178186 -5.50397 17.4899 -0.178186
272 2 -3.09915 17.4883 1.43594 -3.09915 17.4883 1.43594
273 2 -3.08575 17.491 -1.77236 -3.08575 17.491 -1.77236
274 1 -1.91398 19.1362 -0.162007 -1.91398 19.1362 -0.162007
275 2 0.491212 19.1337 1.45129 0.491212 19.1337 1.45129
276 2 0.503261 19.1389 -1.75701 0.503261 19.1389 -1.75701
277 1 1.67688 17.4902 -0.151227 1.67688 17.4902 -0.151227
278 2 4.08456 17.487 1.45869 4.08456 17.487 1.45869
279 2 4.09205 17.4941 -1.74963 4.09205 17.4941 -1.74963
280 1 5.26714 19.137 -0.139332 5.26714 19.137 -0.139332
281 2 7.67726 19.1335 1.46718 7.67726 19.1335 1.46718
282 2 7.68008 19.1416 -1.74115 7.68008 19.1416 -1.74115
283 1 8.8581 17.4915 -0.140249 8.8581 17.4915 -0.140249
284 2 11.2698 17.4898 1.46306 11.2698 17.4898 1.46306
285 2 11.2684 17.4942 -1.74528 11.2684 17.4942 -1.74528
286 1 12.4481 19.1384 -0.139533 12.4481 19.1384 -0.139533
287 2 14.8634 19.1377 1.45871 14.8634 19.1377 1.45871
288 2 14.8553 19.1398 -1.74962 14.8553 19.1398 -1.74962
289 1 16.0387 17.4926 -0.149671 16.0387 17.4926 -0.149671
290 2 18.4554 17.4938 1.44637 18.4554 17.4938 1.44637
291 2 18.4444 17.4914 -1.76195 18.4444 17.4914 -1.76195
292 1 19.6288 19.1389 -0.163156 19.6288 19.1389 -0.163156
293 2 22.0464 19.1407 1.43125 22.0464 19.1407 1.43125
294 2 22.0336 19.1367 -1.77705 22.0336 19.1367 -1.77705
295 1 23.2194 17.4924 -0.175512 23.2194 17.4924 -0.175512
296 2 25.636 17.4974 1.42131 25.636 17.4974 1.42131
297 2 25.6266 17.4868 -1.78698 25.6266 17.4868 -1.78698
298 1 26.8103 19.1383 -0.191692 26.8103 19.1383 -0.191692
299 2 29.2271 19.1433 1.40558 29.2271 19.1433 1.40558
300 2 29.2183 19.1324 -1.80272 29.2183 19.1324 -1.80272
301 1 30.4023 17.4916 -0.196167 30.4023 17.4916 -0.196167
302 2 32.8175 17.4982 1.40336 32.8175 17.4982 1.40336
303 2 32.8117 17.4838 -1.80496 32.8117 17.4838 -1.80496
304 1 33.9934 19.1373 -0.210331 33.9934 19.1373 -0.210331
305 2 36.4084 19.1426 1.38972 36.4084 19.1426 1.38972
306 2 36.4032 19.1306 -1.81859 36.4032 19.1306 -1.81859
307 1 37.5856 17.4905 -0.210079 37.5856 17.4905 -0.210079
308 2 39.9998 17.4968 1.39168 39.9998 17.4968 1.39168
309 2 39.9969 17.4831 -1.81665 39.9969 17.4831 -1.81665
310 1 41.177 19.1363 -0.220538 41.177 19.1363 -0.220538
311 2 43.5889 19.1409 1.38375 43.5889 19.1409 1.38375
312 2 43.5895 19.1309 -1.82457 43.5895 19.1309 -1.82457
313 1 44.7692 17.4899 -0.215003 44.7692 17.4899 -0.215003
314 2 47.1797 17.4945 1.39139 47.1797 17.4945 1.39139
315 2 47.183 17.4848 -1.81694 47.183 17.4848 -1.81694
316 1 48.3598 19.1361 -0.216396 48.3598 19.1361 -0.216396
317 2 50.7675 19.1381 1.39418 50.7675 19.1381 1.39418
318 2 50.7766 19.1336 -1.81414 50.7766 19.1336 -1.81414
319 1 51.9522 17.4899 -0.204226 51.9522 17.4899 -0.204226
320 2 54.3582 17.4916 1.40812 54.3582 17.4916 1.40812
321 2 54.3695 17.4876 -1.80019 54.3695 17.4876 -1.80019
322 1 55.5422 19.1361 -0.193866 55.5422 19.1361 -0.193866
323 2 57.9464 19.1354 1.42106 57.9464 19.1354 1.42106
324 2 57.9611 19.1364 -1.78722 57.9611 19.1364 -1.78722
325 1 -5.50558 20.7824 -0.177239 -5.50558 20.7824 -0.177239
326 2 -3.10164 20.7802 1.43855 -3.10164 20.7802 1.43855
327 2 -3.08605 20.7842 -1.76974 -3.08605 20.7842 -1.76974
328 1 -1.91535 22.4287 -0.157927 -1.91535 22.4287 -0.157927
329 2 0.48934 22.4257 1.45653 0.48934 22.4257 1.45653
330 2 0.502911 22.4318 -1.75177 0.502911 22.4318 -1.75177
331 1 1.67588 20.7828 -0.145873 1.67588 20.7828 -0.145873
332 2 4.083 20.7795 1.46531 4.083 20.7795 1.46531
333 2 4.09212 20.7866 -1.74302 4.09212 20.7866 -1.74302
334 1 5.26636 22.4295 -0.132032 5.26636 22.4295 -0.132032
335 2 7.67614 22.4259 1.47521 7.67614 22.4259 1.47521
336 2 7.6799 22.4341 -1.73313 7.6799 22.4341 -1.73313
337 1 8.85755 20.784 -0.132031 8.85755 20.784 -0.132031
338 2 11.2704 20.7811 1.46966 11.2704 20.7811 1.46966
339 2 11.2668 20.7879 -1.73868 11.2668 20.7879 -1.73868
340 1 12.4475 22.4309 -0.132578 12.4475 22.4309 -0.132578
341 2 14.8638 22.4277 1.46418 14.8638 22.4277 1.46418
342 2 14.8537 22.4348 -1.74414 14.8537 22.4348 -1.74414
343 1 16.0383 20.7851 -0.147493 16.0383 20.7851 -0.147493
344 2 18.4559 20.784 1.44693 18.4559 20.784 1.44693
345 2 18.443 20.7862 -1.76139 18.443 20.7862 -1.76139
346 1 19.6284 22.4315 -0.160977 19.6284 22.4315 -0.160977
347 2 22.0474 22.4304 1.43115 22.0474 22.4304 1.43115
348 2 22.0317 22.4321 -1.77714 22.0317 22.4321 -1.77714
349 1 23.2189 20.785 -0.179647 23.2189 20.785 -0.179647
350 2 25.6372 20.7872 1.41453 25.6372 20.7872 1.41453
351 2 25.6244 20.7821 -1.79375 25.6244 20.7821 -1.79375
352 1 26.8097 22.431 -0.196885 26.8097 22.431 -0.196885
353 2 29.2273 22.4325 1.39864 29.2273 22.4325 1.39864
354 2 29.2165 22.4284 -1.80966 29.2165 22.4284 -1.80966
355 1 30.4015 20.7842 -0.207372 30.4015 20.7842 -0.207372
356 2 32.8173 20.7888 1.39103 32.8173 20.7888 1.39103
357 2 32.8101 20.7782 -1.81727 32.8101 20.7782 -1.81727
358 1 33.9925 22.4299 -0.221136 33.9925 22.4299 -0.221136
359 2 36.4067 22.4326 1.37949 36.4067 22.4326 1.37949
360 2 36.4027 22.4257 -1.82882 36.4027 22.4257 -1.82882
361 1 37.5845 20.7829 -0.222562 37.5845 20.7829 -0.222562
362 2 39.9982 20.7871 1.37956 39.9982 20.7871 1.37956
363 2 39.9959 20.7776 -1.82877 39.9959 20.7776 -1.82877
364 1 41.1756 22.4288 -0.230278 41.1756 22.4288 -0.230278
365 2 43.5865 22.4312 1.37512 43.5865 22.4312 1.37512
366 2 43.5887 22.4255 -1.8332 43.5887 22.4255 -1.8332
367 1 44.7676 20.7824 -0.225217 44.7676 20.7824 -0.225217
368 2 47.1768 20.7849 1.38277 47.1768 20.7849 1.38277
369 2 47.1824 20.7794 -1.82556 47.1824 20.7794 -1.82556
370 1 48.3579 22.4287 -0.222087 48.3579 22.4287 -0.222087
371 2 50.7644 22.4289 1.39037 50.7644 22.4289 1.39037
372 2 50.7759 22.4279 -1.81794 50.7759 22.4279 -1.81794
373 1 51.9503 20.7824 -0.208951 51.9503 20.7824 -0.208951
374 2 54.3553 20.7823 1.40508 54.3553 20.7823 1.40508
375 2 54.3689 20.782 -1.80322 54.3689 20.782 -1.80322
376 1 55.5404 22.4287 -0.194236 55.5404 22.4287 -0.194236
377 2 57.9437 22.4268 1.42237 57.9437 22.4268 1.42237
378 2 57.9606 22.43 -1.78592 57.9606 22.43 -1.78592
379 1 -5.50712 24.0749 -0.173998 -5.50712 24.0749 -0.173998
380 2 -3.10349 24.0723 1.44271 -3.10349 24.0723 1.44271
381 2 -3.08692 24.0772 -1.76559 -3.08692 24.0772 -1.76559
382 1 -1.91663 25.7212 -0.152934 -1.91663 25.7212 -0.152934
383 2 0.488313 25.7193 1.46166 0.488313 25.7193 1.46166
384 2 0.501684 25.7231 -1.74666 0.501684 25.7231 -1.74666
385 1 1.67477 24.0752 -0.139617 1.67477 24.0752 -0.139617
386 2 4.08192 24.0724 1.47202 4.08192 24.0724 1.47202
387 2 4.09141 24.0786 -1.73632 4.09141 24.0786 -1.73632
388 1 5.2654 25.722 -0.125579 5.2654 25.722 -0.125579
389 2 7.6755 25.7203 1.48166 7.6755 25.7203 1.48166
390 2 7.67888 25.7245 -1.72669 7.67888 25.7245 -1.72669
391 1 8.85683 24.0764 -0.123637 8.85683 24.0764 -0.123637
392 2 11.2702 24.0727 1.47775 11.2702 24.0727 1.47775
393 2 11.2658 24.0812 -1.73059 11.2658 24.0812 -1.73059
394 1 12.4468 25.7234 -0.123908 12.4468 25.7234 -0.123908
395 2 14.864 25.7203 1.47192 14.864 25.7203 1.47192
396 2 14.8522 25.7271 -1.7364 14.8522 25.7271 -1.7364
397 1 16.0377 24.0776 -0.140226 16.0377 24.0776 -0.140226
398 2 18.4569 24.0747 1.45215 18.4569 24.0747 1.45215
399 2 18.441 24.0806 -1.75615 18.441 24.0806 -1.75615
400 1 19.6278 25.724 -0.154864 19.6278 25.724 -0.154864
401 2 22.0478 25.7208 1.43589 22.0478 25.7208 1.43589
402 2 22.0301 25.727 -1.77237 22.0301 25.727 -1.77237
403 1 23.2184 24.0776 -0.177962 23.2184 24.0776 -0.177962
404 2 25.6378 24.0758 1.41434 25.6378 24.0758 1.41434
405 2 25.6226 24.0788 -1.79392 25.6226 24.0788 -1.79392
406 1 26.8091 25.7237 -0.193869 26.8091 25.7237 -0.193869
407 2 29.2276 25.7203 1.40022 29.2276 25.7203 1.40022
408 2 29.2148 25.7261 -1.80805 29.2148 25.7261 -1.80805
409 1 30.4008 24.0768 -0.211557 30.4008 24.0768 -0.211557
410 2 32.8169 24.0764 1.38581 32.8169 24.0764 1.38581
411 2 32.8087 24.076 -1.82249 32.8087 24.076 -1.82249
412 1 33.9915 25.7226 -0.221568 33.9915 25.7226 -0.221568
413 2 36.4063 25.7205 1.37791 36.4063 25.7205 1.37791
414 2 36.4008 25.7233 -1.83038 36.4008 25.7233 -1.83038
415 1 37.5833 24.0756 -0.22968 37.5833 24.0756 -0.22968
416 2 39.9962 24.0762 1.37299 39.9962 24.0762 1.37299
417 2 39.9949 24.0737 -1.83532 39.9949 24.0737 -1.83532
418 1 41.1741 25.7215 -0.23288 41.1741 25.7215 -0.23288
419 2 43.5844 25.7198 1.37304 43.5844 25.7198 1.37304
420 2 43.5874 25.7222 -1.83527 43.5874 25.7222 -1.83527
421 1 44.7659 24.0749 -0.231057 44.7659 24.0749 -0.231057
422 2 47.1737 24.0749 1.37871 47.1737 24.0749 1.37871
423 2 47.1818 24.0744 -1.82961 47.1818 24.0744 -1.82961
424 1 48.3562 25.7212 -0.222667 48.3562 25.7212 -0.222667
425 2 50.7623 25.7201 1.3904 50.7623 25.7201 1.3904
426 2 50.7747 25.7218 -1.81792 50.7747 25.7218 -1.81792
427 1 51.9485 24.0749 -0.210022 51.9485 24.0749 -0.210022
428 2 54.353 24.0739 1.40511 54.353 24.0739 1.40511
429 2 54.3678 24.0754 -1.80319 54.3678 24.0754 -1.80319
430 1 55.5388 25.7211 -0.192789 55.5388 25.7211 -0.192789
431 2 57.9417 25.7198 1.42475 57.9417 25.7198 1.42475
432 2 57.9596 25.7221 -1.78355 57.9596 25.7221 -1.78355
433 1 -5.50851 27.3673 -0.17161 -5.50851 27.3673 -0.17161
434 2 -3.10493 27.3668 1.44547 -3.10493 27.3668 1.44547
435 2 -3.08794 27.3676 -1.76283 -3.08794 27.3676 -1.76283
436 1 -1.91771 29.0136 -0.152039 -1.91771 29.0136 -0.152039
437 2 0.487303 29.0148 1.46244 0.487303 29.0148 1.46244
438 2 0.500651 29.0125 -1.74589 0.500651 29.0125 -1.74589
439 1 1.6737 27.3677 -0.13572 1.6737 27.3677 -0.13572
440 2 4.08112 27.3676 1.47575 4.08112 27.3676 1.47575
441 2 4.0902 27.3683 -1.73259 4.0902 27.3683 -1.73259
442 1 5.26443 29.0144 -0.124829 5.26443 29.0144 -0.124829
443 2 7.67424 29.0155 1.48284 7.67424 29.0155 1.48284
444 2 7.67826 29.0141 -1.72551 7.67826 29.0141 -1.72551
445 1 8.85594 27.3689 -0.119275 8.85594 27.3689 -0.119275
446 2 11.2687 27.3679 1.48312 11.2687 27.3679 1.48312
447 2 11.2656 27.3708 -1.72524 11.2656 27.3708 -1.72524
448 1 12.4459 29.0159 -0.120904 12.4459 29.0159 -0.120904
449 2 14.8622 29.0145 1.47637 14.8622 29.0145 1.47637
450 2 14.8524 29.0178 -1.73196 14.8524 29.0178 -1.73196
451 1 16.0369 27.3701 -0.133237 16.0369 27.3701 -0.133237
452 2 18.4565 27.3669 1.45878 18.4565 27.3669 1.45878
453 2 18.4399 27.3734 -1.74951 18.4399 27.3734 -1.74951
454 1 19.627 29.0166 -0.148139 19.627 29.0166 -0.148139
455 2 22.0465 29.0119 1.44347 22.0465 29.0119 1.44347
456 2 22.0298 29.0212 -1.76479 22.0298 29.0212 -1.76479
457 1 23.2177 27.3703 -0.171523 23.2177 27.3703 -0.171523
458 2 25.6373 27.3655 1.42062 25.6373 27.3655 1.42062
459 2 25.6217 27.3746 -1.78762 25.6217 27.3746 -1.78762
460 1 26.8083 29.0165 -0.184557 26.8083 29.0165 -0.184557
461 2 29.2274 29.0107 1.40895 29.2274 29.0107 1.40895
462 2 29.2135 29.0213 -1.7993 29.2135 29.0213 -1.7993
463 1 30.4 27.3696 -0.205641 30.4 27.3696 -0.205641
464 2 32.8171 27.3651 1.39033 32.8171 27.3651 1.39033
465 2 32.8067 27.3729 -1.81793 32.8067 27.3729 -1.81793
466 1 33.9907 29.0155 -0.213548 33.9907 29.0155 -0.213548
467 2 36.406 29.0098 1.38494 36.406 29.0098 1.38494
468 2 36.399 29.0197 -1.82332 36.399 29.0197 -1.82332
469 1 37.5822 27.3684 -0.226778 37.5822 27.3684 -0.226778
470 2 39.9953 27.3645 1.37528 39.9953 27.3645 1.37528
471 2 39.9932 27.3709 -1.83302 39.9932 27.3709 -1.83302
472 1 41.1729 29.0142 -0.226248 41.1729 29.0142 -0.226248
473 2 43.5831 29.0083 1.37974 43.5831 29.0083 1.37974
474 2 43.5862 29.0192 -1.82854 43.5862 29.0192 -1.82854
475 1 44.7644 27.3675 -0.228712 44.7644 27.3675 -0.228712
476 2 47.1719 27.3642 1.38136 47.1719 27.3642 1.38136
477 2 47.1805 27.3703 -1.82696 47.1805 27.3703 -1.82696
478 1 48.3549 29.0137 -0.216491 48.3549 29.0137 -0.216491
479 2 50.7615 29.0094 1.39578 50.7615 29.0094 1.39578
480 2 50.7728 29.0175 -1.81253 50.7728 29.0175 -1.81253
481 1 51.947 27.3674 -0.208261 51.947 27.3674 -0.208261
482 2 54.3509 27.3652 1.40749 54.3509 27.3652 1.40749
483 2 54.3668 27.3691 -1.80082 54.3668 27.3691 -1.80082
484 1 55.5375 29.0135 -0.188771 55.5375 29.0135 -0.188771
485 2 57.9412 29.0123 1.42758 57.9412 29.0123 1.42758
486 2 57.9576 29.0144 -1.78073 57.9576 29.0144 -1.78073
487 1 -5.50946 30.6597 -0.169493 -5.50946 30.6597 -0.169493
488 2 -3.10473 30.6606 1.44577 -3.10473 30.6606 1.44577
489 2 -3.08995 30.6587 -1.76255 -3.08995 30.6587 -1.76255
490 1 -1.91835 32.3059 -0.153952 -1.91835 32.3059 -0.153952
491 2 0.487082 32.3082 1.45951 0.487082 32.3082 1.45951
492 2 0.499457 32.304 -1.74881 0.499457 32.304 -1.74881
493 1 1.67281 30.6601 -0.138062 1.67281 30.6601 -0.138062
494 2 4.0799 30.6626 1.47365 4.0799 30.6626 1.47365
495 2 4.08962 30.6582 -1.73468 4.08962 30.6582 -1.73468
496 1 5.26365 32.3068 -0.129296 5.26365 32.3068 -0.129296
497 2 7.67278 32.3098 1.47909 7.67278 32.3098 1.47909
498 2 7.67802 32.3048 -1.72924 7.67802 32.3048 -1.72924
499 1 8.85501 30.6613 -0.120736 8.85501 30.6613 -0.120736
500 2 11.2668 30.6628 1.48295 11.2668 30.6628 1.48295
501 2 11.2656 30.6609 -1.7254 11.2656 30.6609 -1.7254
502 1 12.4449 32.3083 -0.122812 12.4449 32.3083 -0.122812
503 2 14.8595 32.3083 1.47703 14.8595 32.3083 1.47703
504 2 14.8532 32.309 -1.7313 14.8532 32.309 -1.7313
505 1 16.036 30.6626 -0.129911 16.036 30.6626 -0.129911
506 2 18.4543 30.6597 1.46419 18.4543 30.6597 1.46419
507 2 18.4405 30.6657 -1.74411 18.4405 30.6657 -1.74411
508 1 19.6261 32.3092 -0.142041 19.6261 32.3092 -0.142041
509 2 22.0443 32.3046 1.45189 22.0443 32.3046 1.45189
510 2 22.0305 32.3138 -1.75638 22.0305 32.3138 -1.75638
511 1 23.217 30.663 -0.162015 23.217 30.663 -0.162015
512 2 25.6361 30.657 1.43094 25.6361 30.657 1.43094
513 2 25.6215 30.6686 -1.7773 25.6215 30.6686 -1.7773
514 1 26.8077 32.3092 -0.172587 26.8077 32.3092 -0.172587
515 2 29.2259 32.3008 1.42214 29.2259 32.3008 1.42214
516 2 29.2137 32.317 -1.78608 29.2137 32.317 -1.78608
517 1 30.3993 30.6625 -0.194782 30.3993 30.6625 -0.194782
518 2 32.8163 30.6553 1.40119 32.8163 30.6553 1.40119
519 2 32.806 30.6686 -1.80705 32.806 30.6686 -1.80705
520 1 33.99 32.3084 -0.199764 33.99 32.3084 -0.199764
521 2 36.405 32.2987 1.39908 36.405 32.2987 1.39908
522 2 36.3986 32.3167 -1.80913 36.3986 32.3167 -1.80913
523 1 37.5813 30.6612 -0.216545 37.5813 30.6612 -0.216545
524 2 39.9941 30.6533 1.38582 39.9941 30.6533 1.38582
525 2 39.9924 30.6678 -1.82244 39.9924 30.6678 -1.82244
526 1 41.1721 32.307 -0.211394 41.1721 32.307 -0.211394
527 2 43.5825 32.2978 1.39435 43.5825 32.2978 1.39435
528 2 43.5853 32.3151 -1.81389 43.5853 32.3151 -1.81389
529 1 44.7634 30.6602 -0.217592 44.7634 30.6602 -0.217592
530 2 47.1718 30.654 1.3912 47.1718 30.654 1.3912
531 2 47.1785 30.6658 -1.81709 47.1785 30.6658 -1.81709
532 1 48.3541 32.3062 -0.204314 48.3541 32.3062 -0.204314
533 2 50.7615 32.2998 1.40677 50.7615 32.2998 1.40677
534 2 50.7712 32.3122 -1.80153 50.7712 32.3122 -1.80153
535 1 51.9459 30.6598 -0.200077 51.9459 30.6598 -0.200077
536 2 54.3511 30.6563 1.41387 54.3511 30.6563 1.41387