ITEM: TIMESTEP
1828000
ITEM: NUMBER OF ATOMS
810
ITEM: BOX BOUNDS pp pp pp
-3.8250711620693272e+00 5.6842676162068393e+01
8.1394622342039402e-01 5.0202268776579182e+01
-1.0000000000000000e+01 1.0000000000000000e+01
ITEM: ATOMS id type x y z xu yu zu
1 1 -3.53147 1.02807 -0.194741 -3.53147 1.02807 -0.194741
2 2 -1.30558 1.02183 1.4145 -1.30558 1.02183 1.4145
3 2 -1.30137 1.03468 -1.79882 -1.30137 1.03468 -1.79882
4 1 -0.160583 2.67441 -0.184094 -0.160583 2.67441 -0.184094
5 2 2.06478 2.66718 1.42586 2.06478 2.66718 1.42586
6 2 2.06987 2.68191 -1.78746 2.06987 2.68191 -1.78746
7 1 3.20965 1.02827 -0.186609 3.20965 1.02827 -0.186609
8 2 5.43399 1.02426 1.42468 5.43399 1.02426 1.42468
9 2 5.44103 1.03256 -1.78865 5.44103 1.03256 -1.78865
10 1 6.5804 2.67454 -0.175281 6.5804 2.67454 -0.175281
11 2 8.80597 2.66997 1.43445 8.80597 2.66997 1.43445
12 2 8.81058 2.67927 -1.7789 8.81058 2.67927 -1.7789
13 1 9.95056 1.02833 -0.175462 9.95056 1.02833 -0.175462
14 2 12.1762 1.02631 1.43419 12.1762 1.02631 1.43419
15 2 12.1807 1.03063 -1.77915 12.1807 1.03063 -1.77915
16 1 13.3214 2.6746 -0.168758 13.3214 2.6746 -0.168758
17 2 15.5488 2.6723 1.43862 15.5488 2.6723 1.43862
18 2 15.5498 2.67721 -1.77472 15.5498 2.67721 -1.77472
19 1 16.6915 1.02844 -0.170269 16.6915 1.02844 -0.170269
20 2 18.919 1.02801 1.43675 18.919 1.02801 1.43675
21 2 18.9196 1.02927 -1.77661 18.9196 1.02927 -1.77661
22 1 20.0622 2.6748 -0.169061 20.0622 2.6748 -0.169061
23 2 22.2896 2.6738 1.43789 22.2896 2.6738 1.43789
24 2 22.2901 2.67617 -1.77545 22.2901 2.67617 -1.77545
25 1 23.4319 1.02857 -0.169793 23.4319 1.02857 -0.169793
26 2 25.6585 1.02832 1.43828 25.6585 1.02832 1.43828
27 2 25.6607 1.02907 -1.77506 25.6607 1.02907 -1.77506
28 1 26.8026 2.67487 -0.167243 26.8026 2.67487 -0.167243
29 2 29.0296 2.67405 1.44037 29.0296 2.67405 1.44037
30 2 29.031 2.6758 -1.77297 29.031 2.6758 -1.77297
31 1 30.1723 1.02843 -0.166738 30.1723 1.02843 -0.166738
32 2 32.3998 1.0273 1.44012 32.3998 1.0273 1.44012
33 2 32.4001 1.02965 -1.77322 32.4001 1.02965 -1.77322
34 1 33.5429 2.67466 -0.165283 33.5429 2.67466 -0.165283
35 2 35.7707 2.67278 1.4412 35.7707 2.67278 1.4412
36 2 35.7704 2.67652 -1.77212 35.7704 2.67652 -1.77212
37 1 36.9127 1.02817 -0.167557 36.9127 1.02817 -0.167557
38 2 39.1424 1.02531 1.43669 39.1424 1.02531 1.43669
39 2 39.1388 1.0311 -1.77664 39.1388 1.0311 -1.77664
40 1 40.2836 2.67437 -0.168325 40.2836 2.67437 -0.168325
41 2 42.5138 2.67012 1.43539 42.5138 2.67012 1.43539
42 2 42.5094 2.67859 -1.77794 42.5094 2.67859 -1.77794
43 1 43.6538 1.02797 -0.177176 43.6538 1.02797 -0.177176
44 2 45.8847 1.02268 1.42534 45.8847 1.02268 1.42534
45 2 45.8788 1.03336 -1.78798 45.8788 1.03336 -1.78798
46 1 47.0247 2.67416 -0.17797 47.0247 2.67416 -0.17797
47 2 49.255 2.66743 1.42537 49.255 2.66743 1.42537
48 2 49.2503 2.68097 -1.78795 49.2503 2.68097 -1.78795
49 1 50.395 1.0279 -0.189897 50.395 1.0279 -0.189897
50 2 52.6246 1.02112 1.41429 52.6246 1.02112 1.41429
51 2 52.6213 1.03494 -1.79904 52.6213 1.03494 -1.79904
52 1 53.7659 2.67418 -0.186433 53.7659 2.67418 -0.186433
53 2 55.9937 2.666 1.42029 55.9937 2.666 1.42029
54 2 55.9941 2.68265 -1.79302 55.9941 2.68265 -1.79302
55 1 -3.53103 4.32051 -0.177634 -3.53103 4.32051 -0.177634
56 2 -1.30462 4.31136 1.43099 -1.30462 4.31136 1.43099
57 2 -1.30147 4.3299 -1.78231 -1.30147 4.3299 -1.78231
58 1 -0.160405 5.96683 -0.16504 -0.160405 5.96683 -0.16504
59 2 2.06587 5.95746 1.44375 2.06587 5.95746 1.44375
60 2 2.06914 5.97631 -1.76955 2.06914 5.97631 -1.76955
61 1 3.21008 4.32071 -0.17148 3.21008 4.32071 -0.17148
62 2 5.4361 4.31345 1.43765 5.4361 4.31345 1.43765
63 2 5.43982 4.32808 -1.77567 5.43982 4.32808 -1.77567
64 1 6.58061 5.96694 -0.160199 6.58061 5.96694 -0.160199
65 2 8.80769 5.95989 1.44754 8.80769 5.95989 1.44754
66 2 8.80931 5.974 -1.7658 8.80931 5.974 -1.7658
67 1 9.95107 4.32076 -0.165861 9.95107 4.32076 -0.165861
68 2 12.1779 4.31609 1.44216 12.1779 4.31609 1.44216
69 2 12.18 4.32559 -1.77117 12.18 4.32559 -1.77117
70 1 13.3217 5.96702 -0.158945 13.3217 5.96702 -0.158945
71 2 15.5505 5.96289 1.44653 15.5505 5.96289 1.44653
72 2 15.5487 5.97137 -1.76681 15.5487 5.97137 -1.76681
73 1 16.6921 4.32093 -0.165169 16.6921 4.32093 -0.165169
74 2 18.9206 4.31868 1.44057 18.9206 4.31868 1.44057
75 2 18.9193 4.32352 -1.77278 18.9193 4.32352 -1.77278
76 1 20.0626 5.96733 -0.164043 20.0626 5.96733 -0.164043
77 2 22.291 5.96571 1.44163 22.291 5.96571 1.44163
78 2 22.2896 5.96925 -1.77172 22.2896 5.96925 -1.77172
79 1 23.4327 4.32119 -0.167331 23.4327 4.32119 -0.167331
80 2 25.6599 4.3205 1.43994 25.6599 4.3205 1.43994
81 2 25.6609 4.32209 -1.7734 25.6609 4.32209 -1.7734
82 1 26.8031 5.96754 -0.165506 26.8031 5.96754 -0.165506
83 2 29.0303 5.9671 1.44188 29.0303 5.9671 1.44188
84 2 29.0313 5.96801 -1.77146 29.0313 5.96801 -1.77146
85 1 30.1731 4.32114 -0.164913 30.1731 4.32114 -0.164913
86 2 32.4002 4.3197 1.44252 32.4002 4.3197 1.44252
87 2 32.4013 4.32257 -1.77082 32.4013 4.32257 -1.77082
88 1 33.5435 5.96738 -0.162303 33.5435 5.96738 -0.162303
89 2 35.7714 5.96629 1.44423 35.7714 5.96629 1.44423
90 2 35.7709 5.9683 -1.7691 35.7709 5.9683 -1.7691
91 1 36.9135 4.32086 -0.163653 36.9135 4.32086 -0.163653
92 2 39.1422 4.31796 1.4419 39.1422 4.31796 1.4419
93 2 39.1405 4.32363 -1.77142 39.1405 4.32363 -1.77142
94 1 40.2841 5.96702 -0.162464 40.2841 5.96702 -0.162464
95 2 42.513 5.96285 1.44302 42.513 5.96285 1.44302
96 2 42.5111 5.97095 -1.77032 42.5111 5.97095 -1.77032
97 1 43.6544 4.32053 -0.168479 43.6544 4.32053 -0.168479
98 2 45.8841 4.3149 1.43571 45.8841 4.3149 1.43571
99 2 45.8806 4.32607 -1.77762 45.8806 4.32607 -1.77762
100 1 47.0251 5.96669 -0.166466 47.0251 5.96669 -0.166466
101 2 49.2537 5.95875 1.43919 49.2537 5.95875 1.43919
102 2 49.2523 5.9745 -1.77412 49.2523 5.9745 -1.77412
103 1 50.3955 4.32037 -0.175996 50.3955 4.32037 -0.175996
104 2 52.624 4.31157 1.42969 52.624 4.31157 1.42969
105 2 52.6229 4.32927 -1.78362 52.6229 4.32927 -1.78362
106 1 53.7661 5.96663 -0.168282 53.7661 5.96663 -0.168282
107 2 55.9935 5.95643 1.43909 55.9935 5.95643 1.43909
108 2 55.9947 5.97695 -1.7742 55.9947 5.97695 -1.7742
109 1 -3.53108 7.61293 -0.156618 -3.53108 7.61293 -0.156618
110 2 -1.30409 7.60274 1.45141 -1.30409 7.60274 1.45141
111 2 -1.30213 7.62321 -1.76188 -1.30213 7.62321 -1.76188
112 1 -0.160721 9.25925 -0.144054 -0.160721 9.25925 -0.144054
113 2 2.06642 9.2498 1.4637 2.06642 9.2498 1.4637
114 2 2.06795 9.26863 -1.7496 2.06795 9.26863 -1.7496
115 1 3.21001 7.6131 -0.152126 3.21001 7.6131 -0.152126
116 2 5.43742 7.60426 1.45521 5.43742 7.60426 1.45521
117 2 5.43837 7.6219 -1.7581 5.43837 7.6219 -1.7581
118 1 6.58029 9.25932 -0.14208 6.58029 9.25932 -0.14208
119 2 8.80885 9.25157 1.46371 8.80885 9.25157 1.46371
120 2 8.80754 9.26691 -1.74962 8.80754 9.26691 -1.74962
121 1 9.95104 7.61315 -0.151361 9.95104 7.61315 -0.151361
122 2 12.1796 7.60723 1.45438 12.1796 7.60723 1.45438
123 2 12.1783 7.61908 -1.75895 12.1783 7.61908 -1.75895
124 1 13.3214 9.25941 -0.146706 13.3214 9.25941 -0.146706
125 2 15.5517 9.25476 1.45677 15.5517 9.25476 1.45677
126 2 15.547 9.26417 -1.75656 15.547 9.26417 -1.75656
127 1 16.6922 7.61337 -0.156423 16.6922 7.61337 -0.156423
128 2 18.922 7.61014 1.4475 18.922 7.61014 1.4475
129 2 18.918 7.61688 -1.76585 18.918 7.61688 -1.76585
130 1 20.0624 9.25982 -0.157094 20.0624 9.25982 -0.157094
131 2 22.2926 9.25865 1.44611 22.2926 9.25865 1.44611
132 2 22.2875 9.26122 -1.76723 22.2875 9.26122 -1.76723
133 1 23.4328 7.61377 -0.163637 23.4328 7.61377 -0.163637
134 2 25.6613 7.61348 1.44202 25.6613 7.61348 1.44202
135 2 25.6599 7.6142 -1.77132 25.6599 7.6142 -1.77132
136 1 26.803 9.26018 -0.164705 26.803 9.26018 -0.164705
137 2 29.0312 9.26183 1.44134 29.0312 9.26183 1.44134
138 2 29.0303 9.25848 -1.772 29.0303 9.25848 -1.772
139 1 30.1734 7.61385 -0.163925 30.1734 7.61385 -0.163925
140 2 32.4009 7.61497 1.44305 32.4009 7.61497 1.44305
141 2 32.4012 7.61259 -1.77028 32.4012 7.61259 -1.77028
142 1 33.5435 9.2601 -0.164663 33.5435 9.2601 -0.164663
143 2 35.7707 9.26192 1.44276 35.7707 9.26192 1.44276
144 2 35.7717 9.25797 -1.77057 35.7717 9.25797 -1.77057
145 1 36.9138 7.61357 -0.161518 36.9138 7.61357 -0.161518
146 2 39.1417 7.6125 1.4452 39.1417 7.6125 1.4452
147 2 39.1415 7.61432 -1.76813 39.1415 7.61432 -1.76813
148 1 40.2842 9.25971 -0.16054 40.2842 9.25971 -0.16054
149 2 42.5112 9.25808 1.44738 42.5112 9.25808 1.44738
150 2 42.5128 9.2609 -1.76596 42.5128 9.2609 -1.76596
151 1 43.6547 7.61315 -0.160156 43.6547 7.61315 -0.160156
152 2 45.883 7.60766 1.44597 45.883 7.60766 1.44597
153 2 45.882 7.61832 -1.76735 45.882 7.61832 -1.76735
154 1 47.025 9.25927 -0.155528 47.025 9.25927 -0.155528
155 2 49.2519 9.25281 1.45254 49.2519 9.25281 1.45254
156 2 49.2538 9.26539 -1.76079 49.2538 9.26539 -1.76079
157 1 50.3956 7.61286 -0.159873 50.3956 7.61286 -0.159873
158 2 52.6231 7.60378 1.44734 52.6231 7.60378 1.44734
159 2 52.6238 7.62186 -1.76597 52.6238 7.62186 -1.76597
160 1 53.7659 9.2591 -0.14977 53.7659 9.2591 -0.14977
161 2 55.9926 9.24984 1.45863 55.9926 9.24984 1.45863
162 2 55.9951 9.26831 -1.75467 55.9951 9.26831 -1.75467
163 1 -3.53159 10.9054 -0.13769 -3.53159 10.9054 -0.13769
164 2 -1.3051 10.8961 1.47105 -1.3051 10.8961 1.47105
165 2 -1.30218 10.9146 -1.74225 -1.30218 10.9146 -1.74225
166 1 -0.161448 12.5517 -0.125152 -0.161448 12.5517 -0.125152
167 2 2.0661 12.5432 1.4822 2.0661 12.5432 1.4822
168 2 2.06679 12.5599 -1.73111 2.06679 12.5599 -1.73111
169 1 3.20946 10.9055 -0.13278 3.20946 10.9055 -0.13278
170 2 5.43764 10.8969 1.47356 5.43764 10.8969 1.47356
171 2 5.43706 10.9139 -1.73974 5.43706 10.9139 -1.73974
172 1 6.57954 12.5517 -0.124611 6.57954 12.5517 -0.124611
173 2 8.8096 12.5451 1.47925 8.8096 12.5451 1.47925
174 2 8.80527 12.558 -1.73408 8.80527 12.558 -1.73408
175 1 9.95049 10.9055 -0.135586 9.95049 10.9055 -0.135586
176 2 12.1809 10.8996 1.46779 12.1809 10.8996 1.46779
177 2 12.1759 10.9113 -1.74554 12.1759 10.9113 -1.74554
178 1 13.3206 12.5518 -0.134619 13.3206 12.5518 -0.134619
179 2 15.5529 12.5486 1.46625 15.5529 12.5486 1.46625
180 2 15.5443 12.555 -1.74707 15.5443 12.555 -1.74707
181 1 16.6916 10.9058 -0.14674 16.6916 10.9058 -0.14674
182 2 18.9234 10.9035 1.4547 18.9234 10.9035 1.4547
183 2 18.9156 10.9082 -1.75864 18.9156 10.9082 -1.75864
184 1 20.0616 12.5523 -0.152242 20.0616 12.5523 -0.152242
185 2 22.2937 12.5527 1.44843 22.2937 12.5527 1.44843
186 2 22.2849 12.5521 -1.7649 22.2849 12.5521 -1.7649
187 1 23.4323 10.9063 -0.160951 23.4323 10.9063 -0.160951
188 2 25.6625 10.9074 1.44247 25.6625 10.9074 1.44247
189 2 25.6578 10.9053 -1.77086 25.6578 10.9053 -1.77086
190 1 26.8023 12.5528 -0.166873 26.8023 12.5528 -0.166873
191 2 29.0322 12.5564 1.43698 29.0322 12.5564 1.43698
192 2 29.028 12.549 -1.77635 29.028 12.549 -1.77635
193 1 30.173 10.9065 -0.167278 30.173 10.9065 -0.167278
194 2 32.4011 10.9095 1.439 32.4011 10.9095 1.439
195 2 32.4004 10.9033 -1.77433 32.4004 10.9033 -1.77433
196 1 33.5429 12.5528 -0.170973 33.5429 12.5528 -0.170973
197 2 35.7701 12.5566 1.43654 35.7701 12.5566 1.43654
198 2 35.7712 12.5486 -1.77677 35.7712 12.5486 -1.77677
199 1 36.9135 10.9063 -0.16549 36.9135 10.9063 -0.16549
200 2 39.1399 10.9077 1.44332 39.1399 10.9077 1.44332
201 2 39.143 10.9044 -1.77 39.143 10.9044 -1.77
202 1 40.2837 12.5524 -0.163879 40.2837 12.5524 -0.163879
203 2 42.509 12.5532 1.44647 42.509 12.5532 1.44647
204 2 42.5142 12.5511 -1.76687 42.5142 12.5511 -1.76687
205 1 43.6544 10.9058 -0.157217 43.6544 10.9058 -0.157217
206 2 45.8802 10.9029 1.45237 45.8802 10.9029 1.45237
207 2 45.8842 10.9082 -1.76097 45.8842 10.9082 -1.76097
208 1 47.0245 12.5519 -0.150112 47.0245 12.5519 -0.150112
209 2 49.249 12.5479 1.46119 49.249 12.5479 1.46119
210 2 49.2556 12.5554 -1.75215 49.2556 12.5554 -1.75215
211 1 50.3952 10.9054 -0.146981 50.3952 10.9054 -0.146981
212 2 52.621 10.8983 1.4626 52.621 10.8983 1.4626
213 2 52.6251 10.9123 -1.75072 52.6251 10.9123 -1.75072
214 1 53.7653 12.5516 -0.135462 53.7653 12.5516 -0.135462
215 2 55.9908 12.5442 1.47469 55.9908 12.5442 1.47469
216 2 55.9956 12.5588 -1.73863 55.9956 12.5588 -1.73863
217 1 -3.53243 14.1979 -0.12283 -3.53243 14.1979 -0.12283
218 2 -1.30657 14.1912 1.48687 -1.30657 14.1912 1.48687
219 2 -1.30244 14.2044 -1.72644 -1.30244 14.2044 -1.72644
220 1 -0.162445 15.8442 -0.111586 -0.162445 15.8442 -0.111586
221 2 2.06469 15.8384 1.4963 2.06469 15.8384 1.4963
222 2 2.06617 15.8497 -1.71703 2.06617 15.8497 -1.71703
223 1 3.20856 14.1979 -0.115714 3.20856 14.1979 -0.115714
224 2 5.43769 14.1915 1.48944 5.43769 14.1915 1.48944
225 2 5.43517 14.204 -1.72388 5.43517 14.204 -1.72388
226 1 6.57847 15.8441 -0.111707 6.57847 15.8441 -0.111707
227 2 8.80933 15.8395 1.49099 8.80933 15.8395 1.49099
228 2 8.80333 15.8484 -1.72234 8.80333 15.8484 -1.72234
229 1 9.94953 14.1979 -0.122389 9.94953 14.1979 -0.122389
230 2 12.1812 14.1937 1.47909 12.1812 14.1937 1.47909
231 2 12.1736 14.2019 -1.73423 12.1736 14.2019 -1.73423
232 1 13.3194 15.8442 -0.12609 13.3194 15.8442 -0.12609
233 2 15.5533 15.8425 1.47247 15.5533 15.8425 1.47247
234 2 15.5413 15.8459 -1.74084 15.5413 15.8459 -1.74084
235 1 16.6906 14.1982 -0.140178 16.6906 14.1982 -0.140178
236 2 18.9239 14.1976 1.459 18.9239 14.1976 1.459
237 2 18.913 14.199 -1.75433 18.913 14.199 -1.75433
238 1 20.0603 15.8448 -0.150783 20.0603 15.8448 -0.150783
239 2 22.2938 15.8461 1.44782 22.2938 15.8461 1.44782
240 2 22.2822 15.8435 -1.7655 22.2822 15.8435 -1.7655
241 1 23.4313 14.1988 -0.161575 23.4313 14.1988 -0.161575
242 2 25.6632 14.2019 1.43948 25.6632 14.2019 1.43948
243 2 25.6551 14.1958 -1.77384 25.6551 14.1958 -1.77384
244 1 26.801 15.8453 -0.173026 26.801 15.8453 -0.173026
245 2 29.032 15.8499 1.42921 29.032 15.8499 1.42921
246 2 29.0258 15.8406 -1.78411 29.0258 15.8406 -1.78411
247 1 30.1721 14.1991 -0.174812 30.1721 14.1991 -0.174812
248 2 32.4007 14.2043 1.43069 32.4007 14.2043 1.43069
249 2 32.3991 14.1936 -1.78263 32.3991 14.1936 -1.78263
250 1 33.5419 15.8454 -0.181883 33.5419 15.8454 -0.181883
251 2 35.7686 15.851 1.4261 35.7686 15.851 1.4261
252 2 35.7707 15.8394 -1.7872 35.7707 15.8394 -1.7872
253 1 36.9128 14.199 -0.173714 36.9128 14.199 -0.173714
254 2 39.1383 14.2032 1.43633 39.1383 14.2032 1.43633
255 2 39.1432 14.1942 -1.77697 39.1432 14.1942 -1.77697
256 1 40.2828 15.8451 -0.173109 40.2828 15.8451 -0.173109
257 2 42.5061 15.8486 1.43998 42.5061 15.8486 1.43998
258 2 42.5154 15.841 -1.77333 42.5154 15.841 -1.77333
259 1 43.6537 14.1985 -0.159394 43.6537 14.1985 -0.159394
260 2 45.8773 14.1984 1.45327 45.8773 14.1984 1.45327
261 2 45.8858 14.198 -1.76006 45.8858 14.198 -1.76006
262 1 47.0236 15.8446 -0.15053 47.0236 15.8446 -0.15053
263 2 49.2458 15.8434 1.46412 49.2458 15.8434 1.46412
264 2 49.2571 15.8451 -1.7492 49.2571 15.8451 -1.7492
265 1 50.3944 14.198 -0.139315 50.3944 14.198 -0.139315
266 2 52.6183 14.1933 1.47302 52.6183 14.1933 1.47302
267 2 52.6262 14.2023 -1.74031 52.6262 14.2023 -1.74031
268 1 53.7644 15.8442 -0.126216 53.7644 15.8442 -0.126216
269 2 55.9885 15.8396 1.48579 55.9885 15.8396 1.48579
270 2 55.9959 15.8485 -1.72753 55.9959 15.8485 -1.72753
271 1 -3.53347 17.4905 -0.11373 -3.53347 17.4905 -0.11373
272 2 -1.30841 17.4864 1.49712 -1.30841 17.4864 1.49712
273 2 -1.30273 17.4942 -1.7162 -1.30273 17.4942 -1.7162
274 1 -0.163555 19.1367 -0.103589 -0.163555 19.1367 -0.103589
275 2 2.06323 19.1336 1.50484 2.06323 19.1336 1.50484
276 2 2.06536 19.1395 -1.70849 2.06536 19.1395 -1.70849
277 1 3.20745 17.4904 -0.104145 3.20745 17.4904 -0.104145
278 2 5.43688 17.4859 1.5006 5.43688 17.4859 1.5006
279 2 5.4337 17.4946 -1.71272 5.4337 17.4946 -1.71272
280 1 6.57726 19.1366 -0.102816 6.57726 19.1366 -0.102816
281 2 8.80922 19.1345 1.49838 8.80922 19.1345 1.49838
282 2 8.80091 19.1384 -1.71495 8.80091 19.1384 -1.71495
283 1 9.94829 17.4904 -0.113327 9.94829 17.4904 -0.113327
284 2 12.1815 17.4886 1.48614 12.1815 17.4886 1.48614
285 2 12.1708 17.4919 -1.72718 12.1708 17.4919 -1.72718
286 1 13.318 19.1367 -0.122633 13.318 19.1367 -0.122633
287 2 15.5528 19.137 1.47453 15.5528 19.137 1.47453
288 2 15.5389 19.1363 -1.73878 15.5389 19.1363 -1.73878
289 1 16.6892 17.4907 -0.136695 16.6892 17.4907 -0.136695
290 2 18.9241 17.4913 1.46028 18.9241 17.4913 1.46028
291 2 18.9099 17.4901 -1.75304 18.9099 17.4901 -1.75304
292 1 20.0588 19.1372 -0.151975 20.0588 19.1372 -0.151975
293 2 22.2935 19.1396 1.44493 22.2935 19.1396 1.44493
294 2 22.2794 19.1349 -1.76839 22.2794 19.1349 -1.76839
295 1 23.4298 17.4913 -0.164267 23.4298 17.4913 -0.164267
296 2 25.6634 17.4943 1.43449 25.6634 17.4943 1.43449
297 2 25.652 17.4883 -1.77881 25.652 17.4883 -1.77881
298 1 26.7995 19.1378 -0.17919 26.7995 19.1378 -0.17919
299 2 29.0319 19.1418 1.42121 29.0319 19.1418 1.42121
300 2 29.023 19.1336 -1.79211 29.023 19.1336 -1.79211
301 1 30.1708 17.4917 -0.184285 30.1708 17.4917 -0.184285
302 2 32.4002 17.497 1.4201 32.4002 17.497 1.4201
303 2 32.3971 17.486 -1.79322 32.3971 17.486 -1.79322
304 1 33.5405 19.138 -0.193133 33.5405 19.138 -0.193133
305 2 35.7676 19.1434 1.41447 35.7676 19.1434 1.41447
306 2 35.7693 19.1321 -1.79883 35.7693 19.1321 -1.79883
307 1 36.9117 17.4916 -0.185652 36.9117 17.4916 -0.185652
308 2 39.1364 17.4968 1.42546 39.1364 17.4968 1.42546
309 2 39.143 17.4859 -1.78784 39.143 17.4859 -1.78784
310 1 40.2818 19.1377 -0.184313 40.2818 19.1377 -0.184313
311 2 42.5039 19.1423 1.43024 42.5039 19.1423 1.43024
312 2 42.5155 19.1325 -1.78306 42.5155 19.1325 -1.78306
313 1 43.6528 17.4912 -0.167146 43.6528 17.4912 -0.167146
314 2 45.874 17.4934 1.44865 45.874 17.4934 1.44865
315 2 45.8872 17.4882 -1.76465 45.8872 17.4882 -1.76465
316 1 47.0227 19.1372 -0.155983 47.0227 19.1372 -0.155983
317 2 49.2426 19.1387 1.46155 49.2426 19.1387 1.46155
318 2 49.2583 19.1351 -1.75174 49.2583 19.1351 -1.75174
319 1 50.3935 17.4907 -0.137689 50.3935 17.4907 -0.137689
320 2 52.6154 17.4893 1.47738 52.6154 17.4893 1.47738
321 2 52.6272 17.4915 -1.73594 52.6272 17.4915 -1.73594
322 1 53.7633 19.1368 -0.123973 53.7633 19.1368 -0.123973
323 2 55.9856 19.1351 1.49058 55.9856 19.1351 1.49058
324 2 55.9967 19.1381 -1.72274 55.9967 19.1381 -1.72274
325 1 -3.53453 20.7831 -0.11068 -3.53453 20.7831 -0.11068
326 2 -1.3106 20.7816 1.50168 -1.3106 20.7816 1.50168
327 2 -1.30273 20.7842 -1.71164 -1.30273 20.7842 -1.71164
328 1 -0.164618 22.4294 -0.100987 -0.164618 22.4294 -0.100987
329 2 2.06187 22.4289 1.50784 2.06187 22.4289 1.50784
330 2 2.06454 22.4294 -1.70549 2.06454 22.4294 -1.70549
331 1 3.20629 20.783 -0.0981967 3.20629 20.783 -0.0981967
332 2 5.43571 20.7814 1.50653 5.43571 20.7814 1.50653
333 2 5.43248 20.7842 -1.70679 5.43248 20.7842 -1.70679
334 1 6.57609 22.4292 -0.0999735 6.57609 22.4292 -0.0999735
335 2 8.80853 22.4293 1.50048 8.80853 22.4293 1.50048
336 2 8.79914 22.4287 -1.71284 8.79914 22.4287 -1.71284
337 1 9.94699 20.7829 -0.109279 9.94699 20.7829 -0.109279
338 2 12.1812 20.7827 1.48865 12.1812 20.7827 1.48865
339 2 12.1683 20.7828 -1.72466 12.1683 20.7828 -1.72466
340 1 13.3167 22.4293 -0.122615 13.3167 22.4293 -0.122615
341 2 15.552 22.4301 1.47366 15.552 22.4301 1.47366
342 2 15.5369 22.4283 -1.73964 15.5369 22.4283 -1.73964
343 1 16.6877 20.7832 -0.137446 16.6877 20.7832 -0.137446
344 2 18.923 20.7845 1.45873 18.923 20.7845 1.45873
345 2 18.9079 20.7819 -1.75458 18.9079 20.7819 -1.75458
346 1 20.0572 22.4297 -0.154626 20.0572 22.4297 -0.154626
347 2 22.2929 22.432 1.44092 22.2929 22.432 1.44092
348 2 22.2768 22.4275 -1.77238 22.2768 22.4275 -1.77238
349 1 23.4282 20.7838 -0.169093 23.4282 20.7838 -0.169093
350 2 25.6624 20.7868 1.42876 25.6624 20.7868 1.42876
351 2 25.6498 20.7808 -1.78455 25.6498 20.7808 -1.78455
352 1 26.7979 22.4303 -0.185399 26.7979 22.4303 -0.185399
353 2 29.0314 22.4342 1.41362 29.0314 22.4342 1.41362
354 2 29.0204 22.4262 -1.7997 29.0204 22.4262 -1.7997
355 1 30.1693 20.7842 -0.192685 30.1693 20.7842 -0.192685
356 2 32.3999 20.7891 1.4101 32.3999 20.7891 1.4101
357 2 32.3945 20.779 -1.80322 32.3945 20.779 -1.80322
358 1 33.5392 22.4305 -0.203507 33.5392 22.4305 -0.203507
359 2 35.7669 22.4358 1.40333 35.7669 22.4358 1.40333
360 2 35.7675 22.4247 -1.80997 35.7675 22.4247 -1.80997
361 1 36.9105 20.7842 -0.197248 36.9105 20.7842 -0.197248
362 2 39.1351 20.7895 1.41403 39.1351 20.7895 1.41403
363 2 39.142 20.7784 -1.79926 39.142 20.7784 -1.79926
364 1 40.2807 22.4303 -0.195692 40.2807 22.4303 -0.195692
365 2 42.5024 22.4353 1.41947 42.5024 22.4353 1.41947
366 2 42.515 22.4248 -1.79381 42.515 22.4248 -1.79381
367 1 43.6518 20.7838 -0.177225 43.6518 20.7838 -0.177225
368 2 45.8714 20.7875 1.44066 45.8714 20.7875 1.44066
369 2 45.8878 20.7795 -1.77262 45.8878 20.7795 -1.77262
370 1 47.0217 22.4299 -0.16425 47.0217 22.4299 -0.16425
371 2 49.2402 22.4327 1.45535 49.2402 22.4327 1.45535
372 2 49.2589 22.4264 -1.75792 49.2589 22.4264 -1.75792
373 1 50.3925 20.7833 -0.141404 50.3925 20.7833 -0.141404
374 2 52.6124 20.7838 1.47629 52.6124 20.7838 1.47629
375 2 52.6282 20.7822 -1.73701 52.6282 20.7822 -1.73701
376 1 53.7623 22.4295 -0.12567 53.7623 22.4295 -0.12567
377 2 55.9834 22.4299 1.49056 55.9834 22.4299 1.49056
378 2 55.9969 22.4286 -1.72274 55.9969 22.4286 -1.72274
379 1 -3.53547 24.0757 -0.112082 -3.53547 24.0757 -0.112082
380 2 -1.31237 24.0766 1.50136 -1.31237 24.0766 1.50136
381 2 -1.3029 24.0745 -1.71194 -1.3029 24.0745 -1.71194
382 1 -0.16547 25.722 -0.103138 -0.16547 25.722 -0.103138
383 2 2.06058 25.7234 1.50623 2.06058 25.7234 1.50623
384 2 2.06407 25.7204 -1.70708 2.06407 25.7204 -1.70708
385 1 3.20527 24.0756 -0.0977834 3.20527 24.0756 -0.0977834
386 2 5.43458 24.0763 1.507 5.43458 24.0763 1.507
387 2 5.4315 24.0745 -1.70632 5.4315 24.0745 -1.70632
388 1 6.57514 25.7219 -0.101827 6.57514 25.7219 -0.101827
389 2 8.80751 25.7232 1.49862 8.80751 25.7232 1.49862
390 2 8.79818 25.7202 -1.71469 8.79818 25.7202 -1.71469
391 1 9.94582 24.0755 -0.109906 9.94582 24.0755 -0.109906
392 2 12.1802 24.0764 1.4877 12.1802 24.0764 1.4877
393 2 12.1669 24.0743 -1.7256 12.1669 24.0743 -1.7256
394 1 13.3156 25.7219 -0.124825 13.3156 25.7219 -0.124825
395 2 15.551 25.7235 1.47118 15.551 25.7235 1.47118
396 2 15.5356 25.7202 -1.74211 15.5356 25.7202 -1.74211
397 1 16.6863 24.0757 -0.139319 16.6863 24.0757 -0.139319
398 2 18.9224 24.0779 1.45579 18.9224 24.0779 1.45579
399 2 18.9056 24.0736 -1.75752 18.9056 24.0736 -1.75752
400 1 20.056 25.7222 -0.158999 20.056 25.7222 -0.158999
401 2 22.2918 25.7247 1.43626 22.2918 25.7247 1.43626
402 2 22.2754 25.7199 -1.77704 22.2754 25.7199 -1.77704
403 1 23.4268 24.0763 -0.173675 23.4268 24.0763 -0.173675
404 2 25.6618 24.0795 1.42296 25.6618 24.0795 1.42296
405 2 25.6474 24.073 -1.79034 25.6474 24.073 -1.79034
406 1 26.7967 25.7227 -0.192067 26.7967 25.7227 -0.192067
407 2 29.0305 25.7259 1.40639 29.0305 25.7259 1.40639
408 2 29.0188 25.7194 -1.80692 29.0188 25.7194 -1.80692
409 1 30.1679 24.0766 -0.200912 30.1679 24.0766 -0.200912
410 2 32.3992 24.0807 1.401 32.3992 24.0807 1.401
411 2 32.3926 24.0723 -1.81232 32.3926 24.0723 -1.81232
412 1 33.538 25.7229 -0.212168 33.538 25.7229 -0.212168
413 2 35.7663 25.7268 1.39389 35.7663 25.7268 1.39389
414 2 35.7658 25.7188 -1.81942 35.7658 25.7188 -1.81942
415 1 36.9093 24.0767 -0.208616 36.9093 24.0767 -0.208616
416 2 39.1338 24.0818 1.4028 39.1338 24.0818 1.4028
417 2 39.1411 24.0712 -1.81049 39.1411 24.0712 -1.81049
418 1 40.2797 25.7229 -0.206515 40.2797 25.7229 -0.206515
419 2 42.5012 25.7274 1.40899 42.5012 25.7274 1.40899
420 2 42.5144 25.7179 -1.8043 42.5144 25.7179 -1.8043
421 1 43.6508 24.0764 -0.18795 43.6508 24.0764 -0.18795
422 2 45.8698 24.081 1.43093 45.8698 24.081 1.43093
423 2 45.8877 24.0712 -1.78233 45.8877 24.0712 -1.78233
424 1 47.0209 25.7225 -0.174298 47.0209 25.7225 -0.174298
425 2 49.2382 25.7266 1.44682 49.2382 25.7266 1.44682
426 2 49.2593 25.7179 -1.76643 49.2593 25.7179 -1.76643
427 1 50.3916 24.076 -0.147892 50.3916 24.076 -0.147892
428 2 52.61 24.0783 1.47177 52.61 24.0783 1.47177
429 2 52.6287 24.0731 -1.7415 52.6287 24.0731 -1.7415
430 1 53.7615 25.7221 -0.13097 53.7615 25.7221 -0.13097
431 2 55.9816 25.7245 1.48658 55.9816 25.7245 1.48658
432 2 55.997 25.7194 -1.72669 55.997 25.7194 -1.72669
433 1 -3.53614 27.3684 -0.117296 -3.53614 27.3684 -0.117296
434 2 -1.31326 27.3717 1.49656 -1.31326 27.3717 1.49656
435 2 -1.30337 27.3648 -1.71673 -1.30337 27.3648 -1.71673
436 1 -0.165963 29.0147 -0.110226 -0.165963 29.0147 -0.110226
437 2 2.05976 29.0193 1.49961 2.05976 29.0193 1.49961
438 2 2.06386 29.0099 -1.71369 2.06386 29.0099 -1.71369
439 1 3.20454 27.3683 -0.100894 3.20454 27.3683 -0.100894
440 2 5.43408 27.3707 1.50364 5.43408 27.3707 1.50364
441 2 5.43048 27.3656 -1.70967 5.43048 27.3656 -1.70967
442 1 6.57457 29.0146 -0.107001 6.57457 29.0146 -0.107001
443 2 8.80656 29.0173 1.49398 8.80656 29.0173 1.49398
444 2 8.79795 29.0117 -1.71932 8.79795 29.0117 -1.71932
445 1 9.94499 27.3682 -0.112958 9.94499 27.3682 -0.112958
446 2 12.1791 27.3697 1.48485 12.1791 27.3697 1.48485
447 2 12.1662 27.3665 -1.72844 12.1662 27.3665 -1.72844
448 1 13.3149 29.0145 -0.128125 13.3149 29.0145 -0.128125
449 2 15.5502 29.0158 1.46809 15.5502 29.0158 1.46809
450 2 15.535 29.0133 -1.74519 15.535 29.0133 -1.74519
451 1 16.6854 27.3683 -0.142693 16.6854 27.3683 -0.142693
452 2 18.9216 27.3699 1.45216 18.9216 27.3699 1.45216
453 2 18.9045 27.3669 -1.76114 18.9045 27.3669 -1.76114
454 1 20.0553 29.0148 -0.1621 20.0553 29.0148 -0.1621
455 2 22.2911 29.0157 1.433 22.2911 29.0157 1.433
456 2 22.2746 29.0141 -1.7803 22.2746 29.0141 -1.7803
457 1 23.4257 27.3687 -0.178649 23.4257 27.3687 -0.178649
458 2 25.661 27.3709 1.41759 25.661 27.3709 1.41759
459 2 25.6462 27.3666 -1.79571 25.6462 27.3666 -1.79571
460 1 26.7959 29.0151 -0.196496 26.7959 29.0151 -0.196496
461 2 29.0299 29.0166 1.40159 29.0299 29.0166 1.40159
462 2 29.0178 29.0136 -1.81173 29.0178 29.0136 -1.81173
463 1 30.1669 27.369 -0.207674 30.1669 27.369 -0.207674
464 2 32.3986 27.372 1.39375 32.3986 27.372 1.39375
465 2 32.3913 27.3659 -1.81958 32.3913 27.3659 -1.81958
466 1 33.5373 29.0153 -0.218525 33.5373 29.0153 -0.218525
467 2 35.7657 29.0177 1.38728 35.7657 29.0177 1.38728
468 2 35.765 29.0128 -1.82604 35.765 29.0128 -1.82604
469 1 36.9084 27.3691 -0.216928 36.9084 27.3691 -0.216928
470 2 39.1336 27.3731 1.39363 39.1336 27.3731 1.39363
471 2 39.1396 27.3649 -1.81968 39.1396 27.3649 -1.81968
472 1 40.2791 29.0153 -0.214937 40.2791 29.0153 -0.214937
473 2 42.5008 29.019 1.40032 42.5008 29.019 1.40032
474 2 42.5136 29.0114 -1.81298 42.5136 29.0114 -1.81298
475 1 43.6501 27.369 -0.197756 43.6501 27.369 -0.197756
476 2 45.869 27.3733 1.42121 45.869 27.3733 1.42121
477 2 45.8871 27.3642 -1.79205 45.8871 27.3642 -1.79205
478 1 47.0204 29.0151 -0.183543 47.0204 29.0151 -0.183543
479 2 49.238 29.0201 1.43722 49.238 29.0201 1.43722
480 2 49.2585 29.0097 -1.77603 49.2585 29.0097 -1.77603
481 1 50.391 27.3686 -0.15679 50.391 27.3686 -0.15679
482 2 52.6086 27.3729 1.46391 52.6086 27.3729 1.46391
483 2 52.6288 27.3639 -1.74934 52.6288 27.3639 -1.74934
484 1 53.7611 29.0148 -0.140247 53.7611 29.0148 -0.140247
485 2 55.9807 29.0202 1.47799 55.9807 29.0202 1.47799
486 2 55.9971 29.0092 -1.73527 55.9971 29.0092 -1.73527
487 1 -3.53639 30.6611 -0.128543 -3.53639 30.6611 -0.128543
488 2 -1.31389 30.6678 1.48578 -1.31389 30.6678 1.48578
489 2 -1.30327 30.6542 -1.72748 -1.30327 30.6542 -1.72748
490 1 -0.165994 32.3074 -0.124149 -0.165994 32.3074 -0.124149
491 2 2.05931 32.3153 1.48627 2.05931 32.3153 1.48627
492 2 2.06422 32.2994 -1.72699 2.06422 32.2994 -1.72699
493 1 3.20425 30.661 -0.110565 3.20425 30.661 -0.110565
494 2 5.43291 30.6661 1.49511 5.43291 30.6661 1.49511
495 2 5.43102 30.6558 -1.71817 5.43102 30.6558 -1.71817
496 1 6.57452 32.3073 -0.117626 6.57452 32.3073 -0.117626
497 2 8.80513 32.312 1.48527 8.80513 32.312 1.48527
498 2 8.79928 32.3026 -1.72802 8.79928 32.3026 -1.72802
499 1 9.94465 30.6609 -0.118666 9.94465 30.6609 -0.118666
500 2 12.178 30.6631 1.48033 12.178 30.6631 1.48033
501 2 12.1667 30.6587 -1.73295 12.1667 30.6587 -1.73295
502 1 13.3149 32.3073 -0.132707 13.3149 32.3073 -0.132707
503 2 15.5495 32.309 1.46454 15.5495 32.309 1.46454
504 2 15.5357 32.3056 -1.74874 15.5357 32.3056 -1.74874
505 1 16.685 30.661 -0.145311 16.685 30.661 -0.145311
506 2 18.921 30.6615 1.44993 18.921 30.6615 1.44993
507 2 18.9044 30.6606 -1.76337 18.9044 30.6606 -1.76337
508 1 20.0552 32.3074 -0.163133 20.0552 32.3074 -0.163133
509 2 22.2907 32.3068 1.43257 22.2907 32.3068 1.43257
510 2 22.2749 32.3082 -1.78073 22.2749 32.3082 -1.78073
511 1 23.4253 30.6612 -0.180391 23.4253 30.6612 -0.180391
512 2 25.6607 30.6612 1.4156 25.6607 30.6612 1.4156
513 2 25.6455 30.6614 -1.7977 25.6455 30.6614 -1.7977
514 1 26.7958 32.3076 -0.196314 26.7958 32.3076 -0.196314
515 2 29.0294 32.3053 1.40216 29.0294 32.3053 1.40216
516 2 29.018 32.3099 -1.81116 29.018 32.3099 -1.81116
517 1 30.1664 30.6614 -0.210862 30.1664 30.6614 -0.210862
518 2 32.3978 30.6612 1.39069 32.3978 30.6612 1.39069
519 2 32.391 30.6617 -1.82264 32.391 30.6617 -1.82264
520 1 33.5371 32.3077 -0.218111 33.5371 32.3077 -0.218111
521 2 35.766 32.3058 1.38703 35.766 32.3058 1.38703
522 2 35.7643 32.3097 -1.82629 35.7643 32.3097 -1.82629
523 1 36.9079 30.6615 -0.222064 36.9079 30.6615 -0.222064
524 2 39.1333 30.6628 1.38818 39.1333 30.6628 1.38818
525 2 39.1391 30.6602 -1.82514 39.1391 30.6602 -1.82514
526 1 40.2788 32.3078 -0.217653 40.2788 32.3078 -0.217653
527 2 42.5018 32.3092 1.39586 42.5018 32.3092 1.39586
528 2 42.5121 32.3063 -1.81746 42.5121 32.3063 -1.81746
529 1 43.6497 30.6615 -0.205516 43.6497 30.6615 -0.205516
530 2 45.8692 30.6656 1.41263 45.8692 30.6656 1.41263
531 2 45.8861 30.6571 -1.80064 45.8861 30.6571 -1.80064
532 1 47.0202 32.3076 -0.192277 47.0202 32.3076 -0.192277
533 2 49.2393 32.3138 1.42648 49.2393 32.3138 1.42648
534 2 49.2569 32.3012 -1.78677 49.2569 32.3012 -1.78677
535 1 50.3907 30.6612 -0.167419 50.3907 30.6612 -0.167419
536 2 52.6088 30.6678 1.45268 52.6088 30.6678 1.45268
537 2 52.6281 30.6544 -1.76055 52.6281 30.6544 -1.76055
538 1 53.761 32.3074 -0.153985 53.761 32.3074 -0.153985