ITEM: TIMESTEP
3149000
ITEM: NUMBER OF ATOMS
810
ITEM: BOX BOUNDS pp pp pp
-7.2128837345746515e+00 6.0230488734573719e+01
8.1394622342039402e-01 5.0202268776579182e+01
-1.0000000000000000e+01 1.0000000000000000e+01
ITEM: ATOMS id type x y z xu yu zu
1 1 -0.409587 1.03098 -0.435638 -0.409587 1.03098 -0.435638
2 2 1.44067 1.00902 1.2525 1.44067 1.00902 1.2525
3 2 1.54072 1.05195 -2.00792 1.54072 1.05195 -2.00792
4 1 2.4404 2.67659 -0.326516 2.4404 2.67659 -0.326516
5 2 4.31446 2.65059 1.33467 4.31446 2.65059 1.33467
6 2 4.36779 2.70193 -1.92684 4.36779 2.70193 -1.92684
7 1 5.29162 1.02989 -0.306944 5.29162 1.02989 -0.306944
8 2 7.16674 1.01758 1.35342 7.16674 1.01758 1.35342
9 2 7.2178 1.04147 -1.90847 7.2178 1.04147 -1.90847
10 1 8.14229 2.67574 -0.250409 8.14229 2.67574 -0.250409
11 2 10.0216 2.66195 1.40537 10.0216 2.66195 1.40537
12 2 10.0642 2.68876 -1.85664 10.0642 2.68876 -1.85664
13 1 10.9933 1.02901 -0.226961 10.9933 1.02901 -0.226961
14 2 12.8736 1.02109 1.42776 12.8736 1.02109 1.42776
15 2 12.9143 1.03629 -1.83435 12.9143 1.03629 -1.83435
16 1 13.844 2.67494 -0.183553 13.844 2.67494 -0.183553
17 2 15.7312 2.67208 1.46342 15.7312 2.67208 1.46342
18 2 15.7583 2.67733 -1.79887 15.7583 2.67733 -1.79887
19 1 16.6951 1.02838 -0.162553 16.6951 1.02838 -0.162553
20 2 18.5824 1.02816 1.4843 18.5824 1.02816 1.4843
21 2 18.6093 1.02823 -1.77798 18.6093 1.02823 -1.77798
22 1 19.546 2.67453 -0.138821 19.546 2.67453 -0.138821
23 2 21.441 2.68017 1.49906 21.441 2.68017 1.49906
24 2 21.4526 2.6686 -1.76327 21.4526 2.6686 -1.76327
25 1 22.3973 1.02806 -0.122951 22.3973 1.02806 -0.122951
26 2 24.2993 1.03304 1.50669 24.2993 1.03304 1.50669
27 2 24.2969 1.02279 -1.75565 24.2969 1.02279 -1.75565
28 1 25.2484 2.67423 -0.130386 25.2484 2.67423 -0.130386
29 2 27.1542 2.67976 1.49507 27.1542 2.67976 1.49507
30 2 27.1445 2.66832 -1.76724 27.1445 2.66832 -1.76724
31 1 28.0999 1.0277 -0.133018 28.0999 1.0277 -0.133018
32 2 30.0093 1.027 1.48809 30.0093 1.027 1.48809
33 2 29.9923 1.02792 -1.7742 29.9923 1.02792 -1.7742
34 1 30.9513 2.67372 -0.147624 30.9513 2.67372 -0.147624
35 2 32.8574 2.674 1.47763 32.8574 2.674 1.47763
36 2 32.8471 2.67287 -1.78467 32.8471 2.67287 -1.78467
37 1 33.8028 1.02706 -0.155962 33.8028 1.02706 -0.155962
38 2 35.7036 1.02353 1.47562 35.7036 1.02353 1.47562
39 2 35.7042 1.02995 -1.78667 35.7042 1.02995 -1.78667
40 1 36.6545 2.67298 -0.151863 36.6545 2.67298 -0.151863
41 2 38.5575 2.67272 1.47737 38.5575 2.67272 1.47737
42 2 38.5537 2.67253 -1.78492 38.5537 2.67253 -1.78492
43 1 39.5062 1.02625 -0.154674 39.5062 1.02625 -0.154674
44 2 41.4168 1.00276 1.46542 41.4168 1.00276 1.46542
45 2 41.3982 1.04939 -1.79676 41.3982 1.04939 -1.79676
46 1 42.3577 2.67214 -0.146444 42.3577 2.67214 -0.146444
47 2 44.2535 2.67961 1.43295 44.2535 2.67961 1.43295
48 2 44.2194 2.66417 -1.76375 44.2194 2.66417 -1.76375
49 1 45.2776 1.02565 -0.169535 45.2776 1.02565 -0.169535
50 2 -4.01692 1.01018 1.19594 63.4264 1.01018 1.19594
51 2 -4.80704 1.04444 -1.55669 62.6363 1.04444 -1.55669
52 1 -3.24342 2.67905 -0.493697 64.2 2.67905 -0.493697
53 2 -1.42283 2.63602 1.21323 66.0205 2.63602 1.21323
54 2 -1.30414 2.71986 -2.06432 66.1392 2.71986 -2.06432
55 1 -0.410608 4.32358 -0.351645 -0.410608 4.32358 -0.351645
56 2 1.45164 4.28382 1.32211 1.45164 4.28382 1.32211
57 2 1.52839 4.36219 -1.93827 1.52839 4.36219 -1.93827
58 1 2.43956 5.96878 -0.245633 2.43956 5.96878 -0.245633
59 2 4.3237 5.93098 1.40444 4.3237 5.93098 1.40444
60 2 4.35725 6.00591 -1.85684 4.35725 6.00591 -1.85684
61 1 5.29102 4.32233 -0.254537 5.29102 4.32233 -0.254537
62 2 7.17421 4.29626 1.39662 7.17421 4.29626 1.39662
63 2 7.20935 4.34772 -1.86516 7.20935 4.34772 -1.86516
64 1 8.14177 5.96806 -0.197625 8.14177 5.96806 -0.197625
65 2 10.034 5.95172 1.44342 10.034 5.95172 1.44342
66 2 10.0511 5.98393 -1.81878 10.0511 5.98393 -1.81878
67 1 10.993 4.32155 -0.19931 10.993 4.32155 -0.19931
68 2 12.8802 4.31366 1.44755 12.8802 4.31366 1.44755
69 2 12.9071 4.32888 -1.81471 12.9071 4.32888 -1.81471
70 1 13.8437 5.96757 -0.167823 13.8437 5.96757 -0.167823
71 2 15.7385 5.96781 1.47032 15.7385 5.96781 1.47032
72 2 15.7504 5.96689 -1.79206 15.7504 5.96689 -1.79206
73 1 16.6949 4.32102 -0.156983 16.6949 4.32102 -0.156983
74 2 18.5881 4.32571 1.48306 18.5881 4.32571 1.48306
75 2 18.6032 4.31598 -1.77928 18.6032 4.31598 -1.77928
76 1 19.5458 5.96718 -0.148505 19.5458 5.96718 -0.148505
77 2 21.4454 5.97846 1.48416 21.4454 5.97846 1.48416
78 2 21.4479 5.95559 -1.77814 21.4479 5.95559 -1.77814
79 1 22.3971 4.32072 -0.134612 22.3971 4.32072 -0.134612
80 2 24.3008 4.32955 1.4932 24.3008 4.32955 1.4932
81 2 24.2952 4.31155 -1.7691 24.2952 4.31155 -1.7691
82 1 25.2483 5.96683 -0.148868 25.2483 5.96683 -0.148868
83 2 27.1513 5.97392 1.47996 27.1513 5.97392 1.47996
84 2 27.1472 5.95935 -1.78235 27.1472 5.95935 -1.78235
85 1 28.0997 4.32031 -0.14482 28.0997 4.32031 -0.14482
86 2 30.0042 4.32318 1.48228 30.0042 4.32318 1.48228
87 2 29.9972 4.31697 -1.78003 29.9972 4.31697 -1.78003
88 1 30.9512 5.96631 -0.154126 30.9512 5.96631 -0.154126
89 2 32.8572 5.9718 1.47129 32.8572 5.9718 1.47129
90 2 32.8473 5.96025 -1.79099 32.8473 5.96025 -1.79099
91 1 33.8028 4.31967 -0.156801 33.8028 4.31967 -0.156801
92 2 35.7054 4.32647 1.47288 35.7054 4.32647 1.47288
93 2 35.7024 4.31223 -1.78939 35.7024 4.31223 -1.78939
94 1 36.6546 5.96555 -0.165947 36.6546 5.96555 -0.165947
95 2 38.5613 5.98477 1.45906 38.5613 5.98477 1.45906
96 2 38.5501 5.94562 -1.80297 38.5501 5.94562 -1.80297
97 1 39.5064 4.31887 -0.154703 39.5064 4.31887 -0.154703
98 2 41.4018 4.31635 1.4838 41.4018 4.31635 1.4838
99 2 41.4135 4.32061 -1.77875 41.4135 4.32061 -1.77875
100 1 42.3578 5.96495 -0.141962 42.3578 5.96495 -0.141962
101 2 44.2563 5.95435 1.43577 44.2563 5.95435 1.43577
102 2 44.2172 5.9748 -1.76079 44.2172 5.9748 -1.76079
103 1 45.2774 4.31814 -0.183396 45.2774 4.31814 -0.183396
104 2 -4.00595 4.27807 1.2659 63.4374 4.27807 1.2659
105 2 -4.82494 4.35268 -1.46878 62.6184 4.35268 -1.46878
106 1 -3.24487 5.97424 -0.409892 64.1985 5.97424 -0.409892
107 2 -1.43472 5.90817 1.31022 66.0086 5.90817 1.31022
108 2 -1.29198 6.03278 -1.96354 66.1514 6.03278 -1.96354
109 1 -0.412068 7.6155 -0.221934 -0.412068 7.6155 -0.221934
110 2 1.47574 7.56918 1.42337 1.47574 7.56918 1.42337
111 2 1.50274 7.66065 -1.83754 1.50274 7.66065 -1.83754
112 1 2.43927 9.26052 -0.153671 2.43927 9.26052 -0.153671
113 2 4.33701 9.23128 1.48075 4.33701 9.23128 1.48075
114 2 4.34323 9.28973 -1.78109 4.34323 9.28973 -1.78109
115 1 5.29049 7.61433 -0.178267 5.29049 7.61433 -0.178267
116 2 7.18809 7.58992 1.45642 7.18809 7.58992 1.45642
117 2 7.19458 7.63856 -1.80559 7.19458 7.63856 -1.80559
118 1 8.14134 9.2605 -0.147884 8.14134 9.2605 -0.147884
119 2 10.0462 9.24968 1.47847 10.0462 9.24968 1.47847
120 2 10.0381 9.27109 -1.78384 10.0381 9.27109 -1.78384
121 1 10.9926 7.6141 -0.166108 10.9926 7.6141 -0.166108
122 2 12.8916 7.60926 1.46717 12.8916 7.60926 1.46717
123 2 12.8951 7.61852 -1.79522 12.8951 7.61852 -1.79522
124 1 13.8434 9.26024 -0.15824 13.8434 9.26024 -0.15824
125 2 15.7453 9.26229 1.47173 15.7453 9.26229 1.47173
126 2 15.7432 9.25774 -1.79066 15.7432 9.25774 -1.79066
127 1 16.6946 7.61369 -0.157835 16.6946 7.61369 -0.157835
128 2 18.5948 7.62168 1.47407 18.5948 7.62168 1.47407
129 2 18.5961 7.60532 -1.78828 18.5961 7.60532 -1.78828
130 1 19.5457 9.2598 -0.165069 19.5457 9.2598 -0.165069
131 2 21.447 9.26765 1.46538 21.447 9.26765 1.46538
132 2 21.446 9.25159 -1.79695 21.446 9.25159 -1.79695
133 1 22.397 7.61331 -0.157948 22.397 7.61331 -0.157948
134 2 24.2983 7.62276 1.4726 24.2983 7.62276 1.4726
135 2 24.2974 7.6035 -1.7897 24.2974 7.6035 -1.7897
136 1 25.2482 9.25939 -0.168759 25.2482 9.25939 -0.168759
137 2 27.1465 9.26344 1.46543 27.1465 9.26344 1.46543
138 2 27.1518 9.25498 -1.7969 27.1518 9.25498 -1.7969
139 1 28.0997 7.61288 -0.159836 28.0997 7.61288 -0.159836
140 2 30.0005 7.61786 1.47155 30.0005 7.61786 1.47155
141 2 30.0008 7.60743 -1.79076 30.0008 7.60743 -1.79076
142 1 30.9513 9.25885 -0.164856 30.9513 9.25885 -0.164856
143 2 32.8571 9.26384 1.46033 32.8571 9.26384 1.46033
144 2 32.8475 9.25324 -1.80195 32.8475 9.25324 -1.80195
145 1 33.8029 7.61221 -0.168473 33.8029 7.61221 -0.168473
146 2 35.712 7.62833 1.45309 35.712 7.62833 1.45309
147 2 35.696 7.5954 -1.80899 35.696 7.5954 -1.80899
148 1 36.6546 9.25797 -0.199439 36.6546 9.25797 -0.199439
149 2 38.5621 9.27379 1.42374 38.5621 9.27379 1.42374
150 2 38.5495 9.24141 -1.83834 38.5495 9.24141 -1.83834
151 1 39.5064 7.61126 -0.194771 39.5064 7.61126 -0.194771
152 2 41.4025 7.65263 1.44186 41.4025 7.65263 1.44186
153 2 41.4126 7.56928 -1.81959 41.4126 7.56928 -1.81959
154 1 42.3583 9.25678 -0.229795 42.3583 9.25678 -0.229795
155 2 44.1971 9.24697 1.41319 44.1971 9.24697 1.41319
156 2 44.2769 9.26647 -1.7826 44.2769 9.26647 -1.7826
157 1 45.2781 7.61061 -0.166681 45.2781 7.61061 -0.166681
158 2 -4.03112 7.50634 1.38796 63.4123 7.50634 1.38796
159 2 -4.72099 7.70655 -1.45461 62.7224 7.70655 -1.45461
160 1 -3.24296 9.26105 -0.207173 64.2004 9.26105 -0.207173
161 2 -1.38767 9.22099 1.45264 66.0557 9.22099 1.45264
162 2 -1.35403 9.30072 -1.82838 66.0893 9.30072 -1.82838
163 1 -0.412626 10.906 -0.133973 -0.412626 10.906 -0.133973
164 2 1.4782 10.8672 1.50981 1.4782 10.8672 1.50981
165 2 1.49895 10.9456 -1.75149 1.49895 10.9456 -1.75149
166 1 2.43844 12.5526 -0.0748693 2.43844 12.5526 -0.0748693
167 2 4.35101 12.5299 1.54254 4.35101 12.5299 1.54254
168 2 4.32797 12.5759 -1.71936 4.32797 12.5759 -1.71936
169 1 5.29006 10.9068 -0.118481 5.29006 10.9068 -0.118481
170 2 7.19793 10.89 1.50435 7.19793 10.89 1.50435
171 2 7.18388 10.9235 -1.75782 7.18388 10.9235 -1.75782
172 1 8.14093 12.5532 -0.113829 8.14093 12.5532 -0.113829
173 2 10.0547 12.5456 1.50214 10.0547 12.5456 1.50214
174 2 10.0288 12.5605 -1.7601 10.0288 12.5605 -1.7601
175 1 10.9922 10.9068 -0.144128 10.9922 10.9068 -0.144128
176 2 12.8991 10.9032 1.47997 12.8991 10.9032 1.47997
177 2 12.8869 10.9099 -1.78239 12.8869 10.9099 -1.78239
178 1 13.8431 12.5529 -0.151393 13.8431 12.5529 -0.151393
179 2 15.7489 12.5504 1.47397 15.7489 12.5504 1.47397
180 2 15.739 12.5549 -1.78839 15.739 12.5549 -1.78839
181 1 16.6944 10.9063 -0.162463 16.6944 10.9063 -0.162463
182 2 18.5987 10.9098 1.46454 18.5987 10.9098 1.46454
183 2 18.5918 10.9025 -1.79782 18.5918 10.9025 -1.79782
184 1 19.5455 12.5524 -0.172373 19.5455 12.5524 -0.172373
185 2 21.4473 12.5519 1.4577 21.4473 12.5519 1.4577
186 2 21.4455 12.5525 -1.80466 21.4455 12.5525 -1.80466
187 1 22.3969 10.9059 -0.174364 22.3969 10.9059 -0.174364
188 2 24.2957 10.9076 1.45923 24.2957 10.9076 1.45923
189 2 24.2999 10.9038 -1.80312 24.2999 10.9038 -1.80312
190 1 25.2483 12.552 -0.172593 25.2483 12.552 -0.172593
191 2 27.1468 12.5518 1.46139 27.1468 12.5518 1.46139
192 2 27.1516 12.5518 -1.80094 27.1516 12.5518 -1.80094
193 1 28.0997 10.9054 -0.168478 28.0997 10.9054 -0.168478
194 2 29.9987 10.9056 1.46493 29.9987 10.9056 1.46493
195 2 30.0027 10.9048 -1.7974 30.0027 10.9048 -1.7974
196 1 30.9514 12.5514 -0.165497 30.9514 12.5514 -0.165497
197 2 32.8583 12.5481 1.45863 32.8583 12.5481 1.45863
198 2 32.8466 12.5541 -1.80365 32.8466 12.5541 -1.80365
199 1 33.803 10.9047 -0.179248 33.803 10.9047 -0.179248
200 2 35.7165 10.9068 1.43681 35.7165 10.9068 1.43681
201 2 35.6916 10.9019 -1.82539 35.6916 10.9019 -1.82539
202 1 36.6548 12.5505 -0.2043 36.6548 12.5505 -0.2043
203 2 38.5637 12.5415 1.41716 38.5637 12.5415 1.41716
204 2 38.5483 12.5587 -1.84503 38.5483 12.5587 -1.84503
205 1 39.5067 10.9037 -0.227864 39.5067 10.9037 -0.227864
206 2 41.4144 10.9123 1.39556 41.4144 10.9123 1.39556
207 2 41.4018 10.8943 -1.86684 41.4018 10.8943 -1.86684
208 1 42.3586 12.5498 -0.248325 42.3586 12.5498 -0.248325
209 2 44.1924 12.5686 1.39986 44.1924 12.5686 1.39986
210 2 44.2824 12.5305 -1.79544 44.2824 12.5305 -1.79544
211 1 45.2774 10.9031 -0.151275 45.2774 10.9031 -0.151275
212 2 -4.75767 10.8206 0.989997 62.6857 10.8206 0.989997
213 2 -3.98854 11.011 -1.82824 63.4548 11.011 -1.82824
214 1 -3.24842 12.5483 -0.0142123 64.195 12.5483 -0.0142123
215 2 -1.32921 12.496 1.58157 66.1142 12.496 1.58157
216 2 -1.4013 12.6076 -1.69499 66.0421 12.6076 -1.69499
217 1 -0.412926 14.1986 -0.0179023 -0.412926 14.1986 -0.0179023
218 2 1.5069 14.1745 1.59202 1.5069 14.1745 1.59202
219 2 1.46931 14.2233 -1.66959 1.46931 14.2233 -1.66959
220 1 2.43814 15.8456 -0.0241627 2.43814 15.8456 -0.0241627
221 2 4.36065 15.8356 1.58184 4.36065 15.8356 1.58184
222 2 4.31741 15.8558 -1.68011 4.31741 15.8558 -1.68011
223 1 5.28955 14.1994 -0.0719055 5.28955 14.1994 -0.0719055
224 2 7.20898 14.1903 1.53741 7.20898 14.1903 1.53741
225 2 7.17182 14.2085 -1.72466 7.17182 14.2085 -1.72466
226 1 8.14047 15.8459 -0.0952459 8.14047 15.8459 -0.0952459
227 2 10.0576 15.8404 1.51687 10.0576 15.8404 1.51687
228 2 10.025 15.851 -1.7453 10.025 15.851 -1.7453
229 1 10.9918 14.1994 -0.129049 10.9918 14.1994 -0.129049
230 2 12.9023 14.1938 1.49085 12.9023 14.1938 1.49085
231 2 12.883 14.2046 -1.77145 12.883 14.2046 -1.77145
232 1 13.8429 15.8455 -0.140557 13.8429 15.8455 -0.140557
233 2 15.7497 15.8382 1.48385 15.7497 15.8382 1.48385
234 2 15.7379 15.8523 -1.77847 15.7379 15.8523 -1.77847
235 1 16.6942 14.199 -0.157924 16.6942 14.199 -0.157924
236 2 18.6007 14.1944 1.46659 18.6007 14.1944 1.46659
237 2 18.5894 14.2031 -1.79575 18.5894 14.2031 -1.79575
238 1 19.5455 15.845 -0.163332 19.5455 15.845 -0.163332
239 2 21.4507 15.8421 1.46293 21.4507 15.8421 1.46293
240 2 21.4421 15.8475 -1.79941 21.4421 15.8475 -1.79941
241 1 22.3969 14.1985 -0.173558 22.3969 14.1985 -0.173558
242 2 24.2972 14.1981 1.45846 24.2972 14.1981 1.45846
243 2 24.2984 14.1985 -1.80389 24.2984 14.1985 -1.80389
244 1 25.2483 15.8445 -0.171935 25.2483 15.8445 -0.171935
245 2 27.1502 15.8493 1.4584 27.1502 15.8493 1.4584
246 2 27.1485 15.8393 -1.80392 27.1485 15.8393 -1.80392
247 1 28.0998 14.198 -0.168202 28.0998 14.198 -0.168202
248 2 30.0001 14.1991 1.46394 30.0001 14.1991 1.46394
249 2 30.0016 14.1964 -1.79838 30.0016 14.1964 -1.79838
250 1 30.9516 15.8439 -0.168156 30.9516 15.8439 -0.168156
251 2 32.8545 15.8417 1.46096 32.8545 15.8417 1.46096
252 2 32.8508 15.8454 -1.80134 32.8508 15.8454 -1.80134
253 1 33.8032 14.1972 -0.173103 33.8032 14.1972 -0.173103
254 2 35.7152 14.1854 1.44501 35.7152 14.1854 1.44501
255 2 35.6935 14.2082 -1.81712 35.6935 14.2082 -1.81712
256 1 36.6552 15.8429 -0.180801 36.6552 15.8429 -0.180801
257 2 38.5643 15.8272 1.44126 38.5643 15.8272 1.44126
258 2 38.5484 15.858 -1.82082 38.5484 15.858 -1.82082
259 1 39.5068 14.1963 -0.209971 39.5068 14.1963 -0.209971
260 2 41.4081 14.1602 1.42073 41.4081 14.1602 1.42073
261 2 41.4078 14.2321 -1.84098 41.4078 14.2321 -1.84098
262 1 42.3586 15.8419 -0.171901 42.3586 15.8419 -0.171901
263 2 44.2576 15.8642 1.40454 44.2576 15.8642 1.40454
264 2 44.2173 15.8192 -1.79178 44.2173 15.8192 -1.79178
265 1 45.2787 14.1956 -0.186203 45.2787 14.1956 -0.186203
266 2 -4.84748 14.1739 1.00949 62.5959 14.1739 1.00949
267 2 -3.97657 14.2384 -1.71007 63.4668 14.2384 -1.71007
268 1 -3.2477 15.8436 0.0582837 64.1957 15.8436 0.0582837
269 2 -1.33947 15.8133 1.6667 66.1039 15.8133 1.6667
270 2 -1.3944 15.8763 -1.61299 66.049 15.8763 -1.61299
271 1 -0.413134 17.4917 0.0448468 -0.413134 17.4917 0.0448468
272 2 1.51995 17.4796 1.63816 1.51995 17.4796 1.63816
273 2 1.45554 17.5043 -1.62329 1.45554 17.5043 -1.62329
274 1 2.43777 19.1387 0.00142448 2.43777 19.1387 0.00142448
275 2 4.36877 19.1384 1.59724 4.36877 19.1384 1.59724
276 2 4.30835 19.1389 -1.66447 4.30835 19.1389 -1.66447
277 1 5.2891 17.4923 -0.051466 5.2891 17.4923 -0.051466
278 2 7.21313 17.4889 1.55249 7.21313 17.4889 1.55249
279 2 7.16671 17.4954 -1.7095 7.16671 17.4954 -1.7095
280 1 8.14007 19.1386 -0.0888582 8.14007 19.1386 -0.0888582
281 2 10.0565 19.1356 1.52434 10.0565 19.1356 1.52434
282 2 10.0255 19.1411 -1.73785 10.0255 19.1411 -1.73785
283 1 10.9915 17.4921 -0.118402 10.9915 17.4921 -0.118402
284 2 12.9014 17.4852 1.50247 12.9014 17.4852 1.50247
285 2 12.8834 17.4985 -1.75981 12.8834 17.4985 -1.75981
286 1 13.8428 19.1381 -0.127124 13.8428 19.1381 -0.127124
287 2 15.75 19.1324 1.49682 15.75 19.1324 1.49682
288 2 15.7374 19.1432 -1.7655 15.7374 19.1432 -1.7655
289 1 16.6942 17.4915 -0.143542 16.6942 17.4915 -0.143542
290 2 18.6028 17.4852 1.47855 18.6028 17.4852 1.47855
291 2 18.5873 17.4973 -1.78375 18.5873 17.4973 -1.78375
292 1 19.5455 19.1375 -0.15093 19.5455 19.1375 -0.15093
293 2 21.4555 19.1365 1.46964 21.4555 19.1365 1.46964
294 2 21.4374 19.1381 -1.79267 21.4374 19.1381 -1.79267
295 1 22.3969 17.491 -0.167752 22.3969 17.491 -0.167752
296 2 24.3026 17.4949 1.45795 24.3026 17.4949 1.45795
297 2 24.2931 17.4867 -1.80438 24.2931 17.4867 -1.80438
298 1 25.2485 19.137 -0.179944 25.2485 19.137 -0.179944
299 2 27.1545 19.1471 1.44537 27.1545 19.1471 1.44537
300 2 27.1444 19.1265 -1.81688 27.1444 19.1265 -1.81688
301 1 28.1 17.4905 -0.178129 28.1 17.4905 -0.178129
302 2 30.0002 17.498 1.4543 30.0002 17.498 1.4543
303 2 30.0019 17.4824 -1.80798 30.0019 17.4824 -1.80798
304 1 30.9517 19.1363 -0.184202 30.9517 19.1363 -0.184202
305 2 32.8514 19.1475 1.44886 32.8514 19.1475 1.44886
306 2 32.8543 19.1245 -1.81336 32.8543 19.1245 -1.81336
307 1 33.8034 17.4897 -0.169397 33.8034 17.4897 -0.169397
308 2 35.7099 17.4866 1.45584 35.7099 17.4866 1.45584
309 2 35.6993 17.492 -1.80643 35.6993 17.492 -1.80643
310 1 36.6554 19.1355 -0.175674 36.6554 19.1355 -0.175674
311 2 38.561 19.1393 1.45076 38.561 19.1393 1.45076
312 2 38.5522 19.131 -1.81149 38.5522 19.131 -1.81149
313 1 39.5073 17.4888 -0.178215 39.5073 17.4888 -0.178215
314 2 41.4007 17.4809 1.46289 41.4007 17.4809 1.46289
315 2 41.4166 17.4958 -1.79956 41.4166 17.4958 -1.79956
316 1 42.3591 19.1349 -0.155712 42.3591 19.1349 -0.155712
317 2 44.2749 19.1275 1.40142 44.2749 19.1275 1.40142
318 2 44.2009 19.1418 -1.79451 44.2009 19.1418 -1.79451
319 1 45.2783 17.488 -0.226518 45.2783 17.488 -0.226518
320 2 -4.83173 17.4783 1.09019 62.6116 17.4783 1.09019
321 2 -3.98827 17.5116 -1.64688 63.4551 17.5116 -1.64688
322 1 -3.24769 19.1375 0.0987785 64.1957 19.1375 0.0987785
323 2 -1.33946 19.1291 1.70746 66.1039 19.1291 1.70746
324 2 -1.3957 19.1477 -1.57267 66.0477 19.1477 -1.57267
325 1 -0.413411 20.7853 0.0630328 -0.413411 20.7853 0.0630328
326 2 1.52277 20.7854 1.65254 1.52277 20.7854 1.65254
327 2 1.452 20.7852 -1.60888 1.452 20.7852 -1.60888
328 1 2.43742 22.4319 0.00102238 2.43742 22.4319 0.00102238
329 2 4.37058 22.4362 1.59404 4.37058 22.4362 1.59404
330 2 4.30576 22.4271 -1.66757 4.30576 22.4271 -1.66757
331 1 5.28865 20.7852 -0.0509534 5.28865 20.7852 -0.0509534
332 2 7.21273 20.7872 1.55314 7.21273 20.7872 1.55314
333 2 7.1663 20.7827 -1.70884 7.1663 20.7827 -1.70884
334 1 8.1398 22.4313 -0.0937716 8.1398 22.4313 -0.0937716
335 2 10.0521 22.431 1.52439 10.0521 22.431 1.52439
336 2 10.0294 22.4309 -1.73786 10.0294 22.4309 -1.73786
337 1 10.9913 20.7847 -0.113064 10.9913 20.7847 -0.113064
338 2 12.8984 20.7808 1.51117 12.8984 20.7808 1.51117
339 2 12.8861 20.7879 -1.75115 12.8861 20.7879 -1.75115
340 1 13.8428 22.4306 -0.119892 13.8428 22.4306 -0.119892
341 2 15.7498 22.4283 1.50432 15.7498 22.4283 1.50432
342 2 15.7376 22.4323 -1.75802 15.7376 22.4323 -1.75802
343 1 16.6942 20.784 -0.132439 16.6942 20.784 -0.132439
344 2 18.6036 20.7802 1.48883 18.6036 20.7802 1.48883
345 2 18.5866 20.7873 -1.77347 18.5866 20.7873 -1.77347
346 1 19.5456 22.4299 -0.143646 19.5456 22.4299 -0.143646
347 2 21.4594 22.4304 1.47229 21.4594 22.4304 1.47229
348 2 21.4336 22.4291 -1.78996 21.4336 22.4291 -1.78996
349 1 22.397 20.7835 -0.165882 22.397 20.7835 -0.165882
350 2 24.3091 20.7888 1.45218 24.3091 20.7888 1.45218
351 2 24.2868 20.7777 -1.81007 24.2868 20.7777 -1.81007
352 1 25.2485 22.4294 -0.191059 25.2485 22.4294 -0.191059
353 2 27.1585 22.4368 1.42953 27.1585 22.4368 1.42953
354 2 27.1406 22.4215 -1.83271 27.1406 22.4215 -1.83271
355 1 28.1001 20.7829 -0.199074 28.1001 20.7829 -0.199074
356 2 30.0008 20.7963 1.43256 30.0008 20.7963 1.43256
357 2 30.0015 20.7689 -1.82963 30.0015 20.7689 -1.82963
358 1 30.9519 22.4287 -0.212352 30.9519 22.4287 -0.212352
359 2 32.8489 22.4399 1.42358 32.8489 22.4399 1.42358
360 2 32.8571 22.4169 -1.83862 32.8571 22.4169 -1.83862
361 1 33.8036 20.7821 -0.193182 33.8036 20.7821 -0.193182
362 2 35.7015 20.7928 1.44189 35.7015 20.7928 1.44189
363 2 35.708 20.7708 -1.82031 35.708 20.7708 -1.82031
364 1 36.6556 22.4279 -0.198785 36.6556 22.4279 -0.198785
365 2 38.5549 22.4367 1.43411 38.5549 22.4367 1.43411
366 2 38.5586 22.4185 -1.8281 38.5586 22.4185 -1.8281
367 1 39.5074 20.7813 -0.186803 39.5074 20.7813 -0.186803
368 2 41.4119 20.8162 1.44029 41.4119 20.8162 1.44029
369 2 41.4054 20.7461 -1.82146 41.4054 20.7461 -1.82146
370 1 42.359 22.4271 -0.22937 42.359 22.4271 -0.22937
371 2 44.2218 22.4137 1.38607 44.2218 22.4137 1.38607
372 2 44.254 22.4403 -1.81054 44.254 22.4403 -1.81054
373 1 45.2791 20.7808 -0.213844 45.2791 20.7808 -0.213844
374 2 -4.82848 20.7775 1.1272 62.6149 20.7775 1.1272
375 2 -3.99216 20.7961 -1.61324 63.4512 20.7961 -1.61324
376 1 -3.24762 22.4316 0.122073 64.1958 22.4316 0.122073
377 2 -1.33155 22.4319 1.72142 66.1118 22.4319 1.72142
378 2 -1.40366 22.4325 -1.55839 66.0397 22.4325 -1.55839
379 1 -0.413526 24.0789 0.0635502 -0.413526 24.0789 0.0635502
380 2 1.52575 24.0833 1.64926 1.52575 24.0833 1.64926
381 2 1.44859 24.0738 -1.612 1.44859 24.0738 -1.612
382 1 2.4373 25.725 -0.00872166 2.4373 25.725 -0.00872166
383 2 4.36919 25.7272 1.58586 4.36919 25.7272 1.58586
384 2 4.30699 25.722 -1.67581 4.30699 25.722 -1.67581
385 1 5.28839 24.0781 -0.0603689 5.28839 24.0781 -0.0603689
386 2 7.21006 24.0801 1.54666 7.21006 24.0801 1.54666
387 2 7.1686 24.0753 -1.71537 7.1686 24.0753 -1.71537
388 1 8.13982 25.724 -0.0988647 8.13982 25.724 -0.0988647
389 2 10.05 25.7249 1.52176 10.05 25.7249 1.52176
390 2 10.0316 25.7223 -1.74051 10.0316 25.7223 -1.74051
391 1 10.9913 24.0772 -0.113341 10.9913 24.0772 -0.113341
392 2 12.897 24.0783 1.51254 12.897 24.0783 1.51254
393 2 12.8875 24.0755 -1.74979 12.8875 24.0755 -1.74979
394 1 13.8428 25.723 -0.122696 13.8428 25.723 -0.122696
395 2 15.7489 25.7259 1.50255 15.7489 25.7259 1.50255
396 2 15.7386 25.7196 -1.75978 15.7386 25.7196 -1.75978
397 1 16.6942 24.0765 -0.128322 16.6942 24.0765 -0.128322
398 2 18.6038 24.076 1.49284 18.6038 24.076 1.49284
399 2 18.5866 24.0765 -1.76947 18.5866 24.0765 -1.76947
400 1 19.5458 25.7224 -0.14317 19.5458 25.7224 -0.14317
401 2 21.4596 25.7212 1.47271 21.4596 25.7212 1.47271
402 2 21.4337 25.7232 -1.78954 21.4337 25.7232 -1.78954
403 1 22.3971 24.0759 -0.167094 22.3971 24.0759 -0.167094
404 2 24.3124 24.0772 1.44708 24.3124 24.0772 1.44708
405 2 24.2837 24.0742 -1.81514 24.2837 24.0742 -1.81514
406 1 25.2486 25.7219 -0.194025 25.2486 25.7219 -0.194025
407 2 27.1602 25.72 1.42448 27.1602 25.72 1.42448
408 2 27.1389 25.7233 -1.83777 27.1389 25.7233 -1.83777
409 1 28.1002 24.0753 -0.214663 28.1002 24.0753 -0.214663
410 2 30.003 24.0804 1.4144 30.003 24.0804 1.4144
411 2 29.9995 24.0697 -1.84788 29.9995 24.0697 -1.84788
412 1 30.9519 25.7212 -0.22332 30.9519 25.7212 -0.22332
413 2 32.847 25.7167 1.41488 32.847 25.7167 1.41488
414 2 32.8592 25.7251 -1.84738 32.8592 25.7251 -1.84738
415 1 33.8037 24.0746 -0.217025 33.8037 24.0746 -0.217025
416 2 35.696 24.077 1.42429 35.696 24.077 1.42429
417 2 35.7138 24.0714 -1.83794 35.7138 24.0714 -1.83794
418 1 36.6556 25.7204 -0.204724 36.6556 25.7204 -0.204724
419 2 38.5507 25.7097 1.43296 38.5507 25.7097 1.43296
420 2 38.5629 25.7307 -1.82922 38.5629 25.7307 -1.82922
421 1 39.5076 24.0738 -0.205752 39.5076 24.0738 -0.205752
422 2 41.4249 24.0782 1.40611 41.4249 24.0782 1.40611
423 2 41.3929 24.0689 -1.85624 41.3929 24.0689 -1.85624
424 1 42.359 25.7201 -0.239171 42.359 25.7201 -0.239171
425 2 44.2164 25.7345 1.3817 44.2164 25.7345 1.3817
426 2 44.2597 25.7055 -1.81471 44.2597 25.7055 -1.81471
427 1 45.2787 24.0735 -0.190123 45.2787 24.0735 -0.190123
428 2 -4.82038 24.0771 1.15395 62.623 24.0771 1.15395
429 2 -4.00228 24.0813 -1.59371 63.4411 24.0813 -1.59371
430 1 -3.24745 25.7259 0.127957 64.1959 25.7259 0.127957
431 2 -1.32526 25.7311 1.71994 66.1181 25.7311 1.71994
432 2 -1.40976 25.7205 -1.55954 66.0336 25.7205 -1.55954
433 1 -0.413477 27.3724 0.053065 -0.413477 27.3724 0.053065
434 2 1.52566 27.3772 1.6389 1.52566 27.3772 1.6389
435 2 1.44878 27.3664 -1.62237 1.44878 27.3664 -1.62237
436 1 2.43759 29.0181 -0.0195228 2.43759 29.0181 -0.0195228
437 2 4.36464 29.0165 1.5812 4.36464 29.0165 1.5812
438 2 4.31233 29.0186 -1.68065 4.31233 29.0186 -1.68065
439 1 5.28856 27.3709 -0.0658397 5.28856 27.3709 -0.0658397
440 2 7.2076 27.3688 1.54433 7.2076 27.3688 1.54433
441 2 7.17148 27.3721 -1.71777 7.17148 27.3721 -1.71777
442 1 8.14022 29.0166 -0.0954388 8.14022 29.0166 -0.0954388
443 2 10.0526 29.0156 1.52254 10.0526 29.0156 1.52254
444 2 10.0298 29.0167 -1.73972 10.0298 29.0167 -1.73972
445 1 10.9915 27.3697 -0.115875 10.9915 27.3697 -0.115875
446 2 12.8984 27.3728 1.50846 12.8984 27.3728 1.50846
447 2 12.8865 27.366 -1.75386 12.8865 27.366 -1.75386
448 1 13.8431 29.0155 -0.12951 13.8431 29.0155 -0.12951
449 2 15.7502 29.0205 1.49445 15.7502 29.0205 1.49445
450 2 15.7378 29.0099 -1.76787 15.7378 29.0099 -1.76787
451 1 16.6944 27.3689 -0.134855 16.6944 27.3689 -0.134855
452 2 18.6017 27.3715 1.48881 18.6017 27.3715 1.48881
453 2 18.5889 27.3658 -1.77353 18.5889 27.3658 -1.77353
454 1 19.5459 29.0148 -0.149191 19.5459 29.0148 -0.149191
455 2 21.4538 29.0109 1.47374 21.4538 29.0109 1.47374
456 2 21.4398 29.0183 -1.78859 21.4398 29.0183 -1.78859
457 1 22.3972 27.3683 -0.165172 22.3972 27.3683 -0.165172
458 2 24.3113 27.3628 1.45034 24.3113 27.3628 1.45034
459 2 24.285 27.3735 -1.81188 24.285 27.3735 -1.81188
460 1 25.2488 29.0143 -0.18318 25.2488 29.0143 -0.18318
461 2 27.1593 29.0031 1.43666 27.1593 29.0031 1.43666
462 2 27.1401 29.0251 -1.82555 27.1401 29.0251 -1.82555
463 1 28.1002 27.3678 -0.211273 28.1002 27.3678 -0.211273
464 2 30.0034 27.3593 1.41746 30.0034 27.3593 1.41746
465 2 29.9993 27.3758 -1.8448 29.9993 27.3758 -1.8448
466 1 30.952 29.0137 -0.206343 30.952 29.0137 -0.206343
467 2 32.8481 29.0025 1.43083 32.8481 29.0025 1.43083
468 2 32.858 29.0242 -1.83138 32.858 29.0242 -1.83138
469 1 33.8038 27.3671 -0.208399 33.8038 27.3671 -0.208399
470 2 35.6959 27.355 1.43322 35.6959 27.355 1.43322
471 2 35.7138 27.3785 -1.82892 35.7138 27.3785 -1.82892
472 1 36.6555 29.0129 -0.180398 36.6555 29.0129 -0.180398
473 2 38.5517 28.9994 1.45703 38.5517 28.9994 1.45703
474 2 38.5617 29.026 -1.80511 38.5617 29.026 -1.80511
475 1 39.5074 27.3664 -0.184373 39.5074 27.3664 -0.184373
476 2 41.4164 27.3275 1.43707 41.4164 27.3275 1.43707
477 2 41.4008 27.4049 -1.82448 41.4008 27.4049 -1.82448
478 1 42.3592 29.0122 -0.157427 42.3592 29.0122 -0.157427
479 2 44.28 29.0313 1.39246 44.28 29.0313 1.39246
480 2 44.1957 28.9934 -1.80305 44.1957 28.9934 -1.80305
481 1 45.2793 27.3663 -0.215638 45.2793 27.3663 -0.215638
482 2 -4.82162 27.3777 1.1479 62.6218 27.3777 1.1479
483 2 -4.00207 27.3658 -1.59784 63.4413 27.3658 -1.59784
484 1 -3.24704 29.0203 0.114417 64.1963 29.0203 0.114417
485 2 -1.32504 29.0278 1.70642 66.1183 29.0278 1.70642
486 2 -1.40975 29.011 -1.57312 66.0336 29.011 -1.57312
487 1 -0.413054 30.6658 0.0366442 -0.413054 30.6658 0.0366442
488 2 1.52614 30.6755 1.62263 1.52614 30.6755 1.62263
489 2 1.44914 30.6544 -1.63859 1.44914 30.6544 -1.63859
490 1 2.43817 32.3111 -0.0413698 2.43817 32.3111 -0.0413698
491 2 4.35508 32.315 1.57167 4.35508 32.315 1.57167
492 2 4.32326 32.3059 -1.69047 4.32326 32.3059 -1.69047
493 1 5.28919 30.6637 -0.0639892 5.28919 30.6637 -0.0639892
494 2 7.20638 30.6602 1.54826 7.20638 30.6602 1.54826
495 2 7.17387 30.6661 -1.7139 7.17387 30.6661 -1.7139
496 1 8.14087 32.3093 -0.0891389 8.14087 32.3093 -0.0891389
497 2 10.0557 32.3081 1.52572 10.0557 32.3081 1.52572
498 2 10.0278 32.3094 -1.73651 10.0278 32.3094 -1.73651
499 1 10.9919 30.6623 -0.114463 10.9919 30.6623 -0.114463
500 2 12.9033 30.6653 1.50441 12.9033 30.6653 1.50441
501 2 12.8823 30.6584 -1.75787 12.8823 30.6584 -1.75787
502 1 13.8434 32.308 -0.13617 13.8434 32.308 -0.13617
503 2 15.7525 32.3123 1.48543 15.7525 32.3123 1.48543
504 2 15.7361 32.303 -1.77689 15.7361 32.303 -1.77689
505 1 16.6946 30.6613 -0.145758 16.6946 30.6613 -0.145758
506 2 18.5996 30.6646 1.4807 18.5996 30.6646 1.4807
507 2 18.5914 30.6577 -1.78165 18.5914 30.6577 -1.78165
508 1 19.5461 32.3073 -0.156454 19.5461 32.3073 -0.156454
509 2 21.4461 32.3037 1.47587 21.4461 32.3037 1.47587
510 2 21.4478 32.3105 -1.78649 21.4478 32.3105 -1.78649
511 1 22.3974 30.6608 -0.158083 22.3974 30.6608 -0.158083
512 2 24.3068 30.6505 1.4631 24.3068 30.6505 1.4631
513 2 24.2899 30.6707 -1.79915 24.2899 30.6707 -1.79915
514 1 25.2489 32.3068 -0.162813 25.2489 32.3068 -0.162813
515 2 27.158 32.2952 1.4587 27.158 32.2952 1.4587
516 2 27.1417 32.3179 -1.80352 27.1417 32.3179 -1.80352
517 1 28.1003 30.6603 -0.188756 28.1003 30.6603 -0.188756
518 2 30.0052 30.6493 1.43796 30.0052 30.6493 1.43796
519 2 29.9975 30.6707 -1.82428 29.9975 30.6707 -1.82428
520 1 30.9519 32.3062 -0.18423 30.9519 32.3062 -0.18423
521 2 32.8522 32.3024 1.44807 32.8522 32.3024 1.44807
522 2 32.8537 32.3093 -1.81423 32.8537 32.3093 -1.81423
523 1 33.8036 30.6595 -0.186038 33.8036 30.6595 -0.186038
524 2 35.6989 30.654 1.45244 35.6989 30.654 1.45244
525 2 35.7106 30.6644 -1.80982 35.7106 30.6644 -1.80982
526 1 36.6553 32.3054 -0.1695 36.6553 32.3054 -0.1695
527 2 38.5549 32.3134 1.4642 38.5549 32.3134 1.4642
528 2 38.5581 32.297 -1.79804 38.5581 32.297 -1.79804
529 1 39.5074 30.6589 -0.157081 39.5074 30.6589 -0.157081
530 2 41.4052 30.6521 1.47884 41.4052 30.6521 1.47884
531 2 41.4125 30.6652 -1.78358 41.4125 30.6652 -1.78358
532 1 42.3592 32.3054 -0.143544 42.3592 32.3054 -0.143544
533 2 44.291 32.2919 1.394 44.291 32.2919 1.394
534 2 44.1845 32.3188 -1.80089 44.1845 32.3188 -1.80089
535 1 45.2778 30.6589 -0.249457 45.2778 30.6589 -0.249457
536 2 -4.81357 30.6798 1.13296 62.6298 30.6798 1.13296