ITEM: TIMESTEP
4661000
ITEM: NUMBER OF ATOMS
810
ITEM: BOX BOUNDS pp pp pp
-1.1090531433006179e+01 6.4108136433005242e+01
8.1394622342039402e-01 5.0202268776579182e+01
-1.0000000000000000e+01 1.0000000000000000e+01
ITEM: ATOMS id type x y z xu yu zu
1 1 -1.81991 1.02264 -0.337413 -1.81991 1.02264 -0.337413
2 2 0.0407359 1.03106 1.3397 0.0407359 1.03106 1.3397
3 2 0.121213 1.01597 -1.92139 0.121213 1.01597 -1.92139
4 1 1.03125 2.67029 -0.274894 1.03125 2.67029 -0.274894
5 2 2.90684 2.67386 1.38512 2.90684 2.67386 1.38512
6 2 2.95769 2.66829 -1.87679 2.95769 2.66829 -1.87679
7 1 3.88312 1.02527 -0.228301 3.88312 1.02527 -0.228301
8 2 5.76512 1.04098 1.42469 5.76512 1.04098 1.42469
9 2 5.80318 1.01184 -1.83732 5.80318 1.01184 -1.83732
10 1 6.73492 2.6725 -0.21023 6.73492 2.6725 -0.21023
11 2 8.62609 2.67342 1.43217 8.62609 2.67342 1.43217
12 2 8.64594 2.67304 -1.83015 8.64594 2.67304 -1.83015
13 1 9.58678 1.02732 -0.192783 9.58678 1.02732 -0.192783
14 2 11.4858 1.03408 1.44047 11.4858 1.03408 1.44047
15 2 11.4899 1.02095 -1.82185 11.4899 1.02095 -1.82185
16 1 12.4387 2.67362 -0.196154 12.4387 2.67362 -0.196154
17 2 14.3474 2.67689 1.42567 14.3474 2.67689 1.42567
18 2 14.332 2.67147 -1.83661 14.332 2.67147 -1.83661
19 1 15.2905 1.02812 -0.207209 15.2905 1.02812 -0.207209
20 2 17.1972 1.03127 1.41734 17.1972 1.03127 1.41734
21 2 17.186 1.02609 -1.8449 17.186 1.02609 -1.8449
22 1 18.1424 2.6751 -0.21964 18.1424 2.6751 -0.21964
23 2 20.0438 2.6759 1.41131 20.0438 2.6759 1.41131
24 2 20.0432 2.67545 -1.85097 20.0432 2.67545 -1.85097
25 1 20.9942 1.0295 -0.219812 20.9942 1.0295 -0.219812
26 2 22.8965 1.02697 1.40998 22.8965 1.02697 1.40998
27 2 22.8943 1.03313 -1.85226 22.8943 1.03313 -1.85226
28 1 23.8468 2.67609 -0.218711 23.8468 2.67609 -0.218711
29 2 25.7532 2.67112 1.40653 25.7532 2.67112 1.40653
30 2 25.7431 2.68205 -1.85567 25.7431 2.68205 -1.85567
31 1 26.6993 1.0307 -0.233122 26.6993 1.0307 -0.233122
32 2 28.6042 1.02362 1.39397 28.6042 1.02362 1.39397
33 2 28.5974 1.03879 -1.8682 28.5974 1.03879 -1.8682
34 1 29.5517 2.67741 -0.231103 29.5517 2.67741 -0.231103
35 2 31.4538 2.67762 1.39938 31.4538 2.67762 1.39938
36 2 31.4524 2.67777 -1.86283 31.4524 2.67777 -1.86283
37 1 32.404 1.0314 -0.23256 32.404 1.0314 -0.23256
38 2 34.2957 1.03822 1.40972 34.2957 1.03822 1.40972
39 2 34.3147 1.02436 -1.85247 34.3147 1.02436 -1.85247
40 1 35.2555 2.67789 -0.222696 35.2555 2.67789 -0.222696
41 2 37.1496 2.69074 1.41632 37.1496 2.69074 1.41632
42 2 37.1636 2.66559 -1.84583 37.1636 2.66559 -1.84583
43 1 38.1076 1.03215 -0.19825 38.1076 1.03215 -0.19825
44 2 40.0024 1.05247 1.44043 40.0024 1.05247 1.44043
45 2 40.0156 1.01299 -1.82184 40.0156 1.01299 -1.82184
46 1 40.9594 2.67893 -0.207753 40.9594 2.67893 -0.207753
47 2 42.8047 2.6686 1.4289 42.8047 2.6686 1.4289
48 2 42.8718 2.69037 -1.76709 42.8718 2.69037 -1.76709
49 1 43.8796 1.03332 -0.156542 43.8796 1.03332 -0.156542
50 2 -5.42128 1.03446 1.31121 69.7774 1.03446 1.31121
51 2 -6.22149 1.01365 -1.43913 68.9772 1.01365 -1.43913
52 1 -4.65387 2.66915 -0.415686 70.5448 2.66915 -0.415686
53 2 -2.82669 2.65943 1.28403 72.372 2.65943 1.28403
54 2 -2.72087 2.6794 -1.99497 72.4778 2.6794 -1.99497
55 1 -1.82035 4.31617 -0.317581 -1.82035 4.31617 -0.317581
56 2 0.0479614 4.30436 1.35005 0.0479614 4.30436 1.35005
57 2 0.113516 4.32895 -1.91135 0.113516 4.32895 -1.91135
58 1 1.03111 5.96304 -0.248839 1.03111 5.96304 -0.248839
59 2 2.91418 5.94687 1.40323 2.91418 5.94687 1.40323
60 2 2.95064 5.97988 -1.85865 2.95064 5.97988 -1.85865
61 1 3.88302 4.31739 -0.234044 3.88302 4.31739 -0.234044
62 2 5.769 4.31604 1.41441 5.769 4.31604 1.41441
63 2 5.79941 4.32055 -1.84778 5.79941 4.32055 -1.84778
64 1 6.73559 5.9642 -0.205315 6.73559 5.9642 -0.205315
65 2 8.62682 5.95958 1.43745 8.62682 5.95958 1.43745
66 2 8.64667 5.97056 -1.82484 8.64667 5.97056 -1.82484
67 1 9.58708 4.31913 -0.193579 9.58708 4.31913 -0.193579
68 2 11.4897 4.32047 1.4354 11.4897 4.32047 1.4354
69 2 11.4865 4.31871 -1.82698 11.4865 4.31871 -1.82698
70 1 12.4392 5.96566 -0.197645 12.4392 5.96566 -0.197645
71 2 14.3468 5.9628 1.42569 14.3468 5.9628 1.42569
72 2 14.3336 5.97003 -1.83662 14.3336 5.97003 -1.83662
73 1 15.2907 4.32043 -0.212882 15.2907 4.32043 -0.212882
74 2 17.1963 4.32218 1.41311 17.1963 4.32218 1.41311
75 2 17.1875 4.32044 -1.84915 17.1875 4.32044 -1.84915
76 1 18.1434 5.96737 -0.221336 18.1434 5.96737 -0.221336
77 2 20.0457 5.97082 1.40871 20.0457 5.97082 1.40871
78 2 20.0438 5.96521 -1.85352 20.0438 5.96521 -1.85352
79 1 20.995 4.32173 -0.220049 20.995 4.32173 -0.220049
80 2 22.8963 4.32325 1.41128 22.8963 4.32325 1.41128
81 2 22.8962 4.32125 -1.85097 22.8962 4.32125 -1.85097
82 1 23.8476 5.9685 -0.220861 23.8476 5.9685 -0.220861
83 2 25.7522 5.97364 1.40635 25.7522 5.97364 1.40635
84 2 25.7454 5.96443 -1.85591 25.7454 5.96443 -1.85591
85 1 26.6993 4.32282 -0.221892 26.6993 4.32282 -0.221892
86 2 28.6051 4.322 1.40413 28.6051 4.322 1.40413
87 2 28.5961 4.32478 -1.85811 28.5961 4.32478 -1.85811
88 1 29.5514 5.96974 -0.228233 29.5514 5.96974 -0.228233
89 2 31.459 5.97834 1.3953 31.459 5.97834 1.3953
90 2 31.4463 5.96229 -1.86688 31.4463 5.96229 -1.86688
91 1 32.4037 4.32416 -0.231662 32.4037 4.32416 -0.231662
92 2 34.307 4.33701 1.397 34.307 4.33701 1.397
93 2 34.3028 4.31158 -1.86515 34.3028 4.31158 -1.86515
94 1 35.2554 5.97064 -0.248153 35.2554 5.97064 -0.248153
95 2 37.1498 5.98227 1.39105 37.1498 5.98227 1.39105
96 2 37.1633 5.95905 -1.87112 37.1633 5.95905 -1.87112
97 1 38.1073 4.32447 -0.22402 38.1073 4.32447 -0.22402
98 2 39.9969 4.32026 1.42096 39.9969 4.32026 1.42096
99 2 40.0206 4.32945 -1.84153 40.0206 4.32945 -1.84153
100 1 40.9587 5.97112 -0.198938 40.9587 5.97112 -0.198938
101 2 42.7994 5.96476 1.44335 42.7994 5.96476 1.44335
102 2 42.8747 5.97847 -1.75257 42.8747 5.97847 -1.75257
103 1 43.8787 4.32582 -0.137271 43.8787 4.32582 -0.137271
104 2 -5.42062 4.29072 1.32089 69.778 4.29072 1.32089
105 2 -6.22697 4.33083 -1.42337 68.9717 4.33083 -1.42337
106 1 -4.65569 5.9658 -0.372114 70.543 5.9658 -0.372114
107 2 -2.83099 5.92132 1.33276 72.3677 5.92132 1.33276
108 2 -2.71625 6.00449 -1.94349 72.4824 6.00449 -1.94349
109 1 -1.82121 7.60922 -0.230138 -1.82121 7.60922 -0.230138
110 2 0.0742876 7.58111 1.40698 0.0742876 7.58111 1.40698
111 2 0.0866085 7.63721 -1.85475 0.0866085 7.63721 -1.85475
112 1 1.0318 9.25475 -0.192421 1.0318 9.25475 -0.192421
113 2 2.93289 9.24715 1.43909 2.93289 9.24715 1.43909
114 2 2.93362 9.26296 -1.82315 2.93362 9.26296 -1.82315
115 1 3.88387 7.60918 -0.200139 3.88387 7.60918 -0.200139
116 2 5.78219 7.59953 1.43469 5.78219 7.59953 1.43469
117 2 5.78839 7.6206 -1.82754 5.78839 7.6206 -1.82754
118 1 6.73674 9.25606 -0.184034 6.73674 9.25606 -0.184034
119 2 8.63548 9.25464 1.4501 8.63548 9.25464 1.4501
120 2 8.64061 9.25963 -1.8122 8.64061 9.25963 -1.8122
121 1 9.58809 7.61104 -0.182347 9.58809 7.61104 -0.182347
122 2 11.4952 7.60728 1.4416 11.4952 7.60728 1.4416
123 2 11.4831 7.61625 -1.82073 11.4831 7.61625 -1.82073
124 1 12.4405 9.25785 -0.188796 12.4405 9.25785 -0.188796
125 2 14.346 9.24969 1.43698 14.346 9.24969 1.43698
126 2 14.3369 9.26746 -1.8253 14.3369 9.26746 -1.8253
127 1 15.2916 7.6125 -0.205839 15.2916 7.6125 -0.205839
128 2 17.1989 7.60889 1.41805 17.1989 7.60889 1.41805
129 2 17.1868 7.61792 -1.84418 17.1868 7.61792 -1.84418
130 1 18.1444 9.25947 -0.211974 18.1444 9.25947 -0.211974
131 2 20.0525 9.2585 1.41132 20.0525 9.2585 1.41132
132 2 20.0391 9.26237 -1.85085 20.0391 9.26237 -1.85085
133 1 20.9962 7.61421 -0.225697 20.9962 7.61421 -0.225697
134 2 22.897 7.6187 1.40611 22.897 7.6187 1.40611
135 2 22.8981 7.61128 -1.85611 22.8981 7.61128 -1.85611
136 1 23.8481 9.26162 -0.228524 23.8481 9.26162 -0.228524
137 2 25.7508 9.26173 1.4007 25.7508 9.26173 1.4007
138 2 25.7476 9.26233 -1.86161 25.7476 9.26233 -1.86161
139 1 26.6994 7.6155 -0.231539 26.6994 7.6155 -0.231539
140 2 28.6019 7.62155 1.39786 28.6019 7.62155 1.39786
141 2 28.599 7.61001 -1.86442 28.599 7.61001 -1.86442
142 1 29.5511 9.26209 -0.240148 29.5511 9.26209 -0.240148
143 2 31.4598 9.26854 1.38169 31.4598 9.26854 1.38169
144 2 31.4445 9.25636 -1.88058 31.4445 9.25636 -1.88058
145 1 32.4033 7.61657 -0.247786 32.4033 7.61657 -0.247786
146 2 34.3101 7.62627 1.37661 34.3101 7.62627 1.37661
147 2 34.2989 7.60745 -1.88558 34.2989 7.60745 -1.88558
148 1 35.255 9.26309 -0.267584 35.255 9.26309 -0.267584
149 2 37.1459 9.26442 1.37561 37.1459 9.26442 1.37561
150 2 37.1665 9.2618 -1.88659 37.1665 9.2618 -1.88659
151 1 38.1072 7.61692 -0.247934 38.1072 7.61692 -0.247934
152 2 39.9802 7.61609 1.41629 39.9802 7.61609 1.41629
153 2 40.0365 7.61803 -1.84586 40.0365 7.61803 -1.84586
154 1 40.9576 9.2636 -0.197338 40.9576 9.2636 -0.197338
155 2 42.7984 9.27016 1.4445 42.7984 9.27016 1.4445
156 2 42.8731 9.25783 -1.75152 42.8731 9.25783 -1.75152
157 1 43.8772 7.61822 -0.123291 43.8772 7.61822 -0.123291
158 2 -5.41996 7.51409 1.42392 69.7787 7.51409 1.42392
159 2 -6.15658 7.68751 -1.39893 69.0421 7.68751 -1.39893
160 1 -4.65232 9.25451 -0.196857 70.5463 9.25451 -0.196857
161 2 -2.77902 9.22708 1.44286 72.4197 9.22708 1.44286
162 2 -2.78142 9.28209 -1.83887 72.4172 9.28209 -1.83887
163 1 -1.82095 10.8998 -0.167002 -1.82095 10.8998 -0.167002
164 2 0.0823696 10.8765 1.46315 0.0823696 10.8765 1.46315
165 2 0.0790982 10.9243 -1.79872 0.0790982 10.9243 -1.79872
166 1 1.03197 12.5465 -0.144488 1.03197 12.5465 -0.144488
167 2 2.94818 12.5336 1.46938 2.94818 12.5336 1.46938
168 2 2.91884 12.56 -1.79253 2.91884 12.56 -1.79253
169 1 3.88463 10.9011 -0.183551 3.88463 10.9011 -0.183551
170 2 5.7812 10.8926 1.45345 5.7812 10.8926 1.45345
171 2 5.79122 10.9112 -1.80872 5.79122 10.9112 -1.80872
172 1 6.73758 12.548 -0.165372 6.73758 12.548 -0.165372
173 2 8.64186 12.5425 1.46253 8.64186 12.5425 1.46253
174 2 8.63636 12.5559 -1.79971 8.63636 12.5559 -1.79971
175 1 9.58944 10.9032 -0.176999 9.58944 10.9032 -0.176999
176 2 11.4913 10.8935 1.45331 11.4913 10.8935 1.45331
177 2 11.49 10.9148 -1.80895 11.49 10.9148 -1.80895
178 1 12.4419 12.5502 -0.167617 12.4419 12.5502 -0.167617
179 2 14.3472 12.5385 1.45856 14.3472 12.5385 1.45856
180 2 14.3388 12.5635 -1.80367 14.3388 12.5635 -1.80367
181 1 15.2928 10.9047 -0.187798 15.2928 10.9047 -0.187798
182 2 17.2035 10.8985 1.43191 17.2035 10.8985 1.43191
183 2 17.1842 10.9124 -1.8303 17.1842 10.9124 -1.8303
184 1 18.1449 12.5519 -0.197803 18.1449 12.5519 -0.197803
185 2 20.0548 12.5452 1.42269 20.0548 12.5452 1.42269
186 2 20.037 12.5609 -1.83951 20.037 12.5609 -1.83951
187 1 20.9966 10.907 -0.221687 20.9966 10.907 -0.221687
188 2 22.9008 10.9067 1.40589 22.9008 10.9067 1.40589
189 2 22.8947 10.9095 -1.85638 22.8947 10.9095 -1.85638
190 1 23.8482 12.5546 -0.225588 23.8482 12.5546 -0.225588
191 2 25.7479 12.5468 1.40716 25.7479 12.5468 1.40716
192 2 25.7505 12.5629 -1.85513 25.7505 12.5629 -1.85513
193 1 26.6996 10.9084 -0.231353 26.6996 10.9084 -0.231353
194 2 28.6039 10.906 1.39564 28.6039 10.906 1.39564
195 2 28.5971 10.9107 -1.8667 28.5971 10.9107 -1.8667
196 1 29.5508 12.5547 -0.235368 29.5508 12.5547 -0.235368
197 2 31.4579 12.5412 1.38812 31.4579 12.5412 1.38812
198 2 31.4453 12.5683 -1.87412 31.4453 12.5683 -1.87412
199 1 32.4025 10.9088 -0.260445 32.4025 10.9088 -0.260445
200 2 34.3037 10.9024 1.37031 34.3037 10.9024 1.37031
201 2 34.3035 10.9157 -1.89195 34.3035 10.9157 -1.89195
202 1 35.2538 12.5555 -0.254165 35.2538 12.5555 -0.254165
203 2 37.1476 12.5469 1.38541 37.1476 12.5469 1.38541
204 2 37.1621 12.5645 -1.87678 37.1621 12.5645 -1.87678
205 1 38.1063 10.9096 -0.250522 38.1063 10.9096 -0.250522
206 2 39.9803 10.9153 1.41234 39.9803 10.9153 1.41234
207 2 40.0345 10.9041 -1.84981 40.0345 10.9041 -1.84981
208 1 40.9564 12.5564 -0.208349 40.9564 12.5564 -0.208349
209 2 42.8004 12.5656 1.43035 42.8004 12.5656 1.43035
210 2 42.8689 12.5476 -1.76582 42.8689 12.5476 -1.76582
211 1 43.876 10.9108 -0.13598 43.876 10.9108 -0.13598
212 2 -6.13303 10.8264 1.02543 69.0656 10.8264 1.02543
213 2 -5.43712 10.9859 -1.81835 69.7615 10.9859 -1.81835
214 1 -4.6556 12.5442 -0.0414167 70.5431 12.5442 -0.0414167
215 2 -2.72046 12.5131 1.53558 72.4782 12.5131 1.53558
216 2 -2.82613 12.5789 -1.74129 72.3725 12.5789 -1.74129
217 1 -1.81965 14.1928 -0.0964945 -1.81965 14.1928 -0.0964945
218 2 0.103888 14.183 1.5096 0.103888 14.183 1.5096
219 2 0.0593578 14.2027 -1.75217 0.0593578 14.2027 -1.75217
220 1 1.03313 15.839 -0.123675 1.03313 15.839 -0.123675
221 2 2.95016 15.8334 1.48926 2.95016 15.8334 1.48926
222 2 2.91878 15.8451 -1.77276 2.91878 15.8451 -1.77276
223 1 3.885 14.193 -0.156641 3.885 14.193 -0.156641
224 2 5.78962 14.1902 1.47121 5.78962 14.1902 1.47121
225 2 5.78346 14.1973 -1.79099 5.78346 14.1973 -1.79099
226 1 6.73784 15.8399 -0.157976 6.73784 15.8399 -0.157976
227 2 8.63995 15.836 1.47262 8.63995 15.836 1.47262
228 2 8.63867 15.8456 -1.78965 8.63867 15.8456 -1.78965
229 1 9.59037 14.1952 -0.163449 9.59037 14.1952 -0.163449
230 2 11.4897 14.1883 1.47027 11.4897 14.1883 1.47027
231 2 11.4938 14.2042 -1.79201 11.4938 14.2042 -1.79201
232 1 12.4428 15.8423 -0.151734 12.4428 15.8423 -0.151734
233 2 14.3407 15.827 1.48323 14.3407 15.827 1.48323
234 2 14.3472 15.8598 -1.77897 14.3472 15.8598 -1.77897
235 1 15.294 14.1972 -0.162607 15.294 14.1972 -0.162607
236 2 17.2052 14.1819 1.45603 17.2052 14.1819 1.45603
237 2 17.1845 14.2143 -1.80611 17.1845 14.2143 -1.80611
238 1 18.1454 15.8445 -0.164582 18.1454 15.8445 -0.164582
239 2 20.0595 15.829 1.45054 20.0595 15.829 1.45054
240 2 20.0326 15.8621 -1.81159 20.0326 15.8621 -1.81159
241 1 20.9964 14.1996 -0.205523 20.9964 14.1996 -0.205523
242 2 22.9045 14.1932 1.41725 22.9045 14.1932 1.41725
243 2 22.8904 14.2081 -1.84502 22.8904 14.2081 -1.84502
244 1 23.8479 15.847 -0.210284 23.8479 15.847 -0.210284
245 2 25.7457 15.8363 1.4249 25.7457 15.8363 1.4249
246 2 25.7523 15.8585 -1.83736 25.7523 15.8585 -1.83736
247 1 26.6995 14.2011 -0.215361 26.6995 14.2011 -0.215361
248 2 28.6025 14.1849 1.41329 28.6025 14.1849 1.41329
249 2 28.5983 14.2171 -1.84894 28.5983 14.2171 -1.84894
250 1 29.5503 15.8474 -0.203059 29.5503 15.8474 -0.203059
251 2 31.4541 15.8236 1.42409 31.4541 15.8236 1.42409
252 2 31.4478 15.871 -1.83796 31.4478 15.871 -1.83796
253 1 32.4016 14.2012 -0.233006 32.4016 14.2012 -0.233006
254 2 34.3044 14.1842 1.39564 34.3044 14.1842 1.39564
255 2 34.3005 14.2185 -1.86652 34.3005 14.2185 -1.86652
256 1 35.2521 15.848 -0.219133 35.2521 15.848 -0.219133
257 2 37.1508 15.8321 1.41427 37.1508 15.8321 1.41427
258 2 37.1554 15.8646 -1.84784 37.1554 15.8646 -1.84784
259 1 38.1046 14.2024 -0.232383 38.1046 14.2024 -0.232383
260 2 39.9918 14.2022 1.41516 39.9918 14.2022 1.41516
261 2 40.0198 14.2028 -1.84732 40.0198 14.2028 -1.84732
262 1 40.9549 15.8492 -0.207474 40.9549 15.8492 -0.207474
263 2 42.8057 15.853 1.42317 42.8057 15.853 1.42317
264 2 42.8612 15.8456 -1.77327 42.8612 15.8456 -1.77327
265 1 43.8749 14.2033 -0.154152 43.8749 14.2033 -0.154152
266 2 -6.24461 14.1885 0.966422 68.9541 14.1885 0.966422
267 2 -5.39523 14.2045 -1.76326 69.8034 14.2045 -1.76326
268 1 -4.65379 15.8401 -0.0309121 70.5449 15.8401 -0.0309121
269 2 -2.7411 15.8264 1.57236 72.4576 15.8264 1.57236
270 2 -2.80504 15.8523 -1.70767 72.3936 15.8523 -1.70767
271 1 -1.81802 17.4854 -0.0711762 -1.81802 17.4854 -0.0711762
272 2 0.109891 17.4797 1.5287 0.109891 17.4797 1.5287
273 2 0.0564391 17.4912 -1.73303 0.0564391 17.4912 -1.73303
274 1 1.03446 19.1316 -0.11204 1.03446 19.1316 -0.11204
275 2 2.95436 19.1319 1.49706 2.95436 19.1319 1.49706
276 2 2.91691 19.132 -1.76496 2.91691 19.132 -1.76496
277 1 3.88582 17.4855 -0.144938 3.88582 17.4855 -0.144938
278 2 5.7946 17.4856 1.47766 5.7946 17.4856 1.47766
279 2 5.77957 17.4861 -1.78457 5.77957 17.4861 -1.78457
280 1 6.73825 19.1321 -0.157708 6.73825 19.1321 -0.157708
281 2 8.63449 19.1267 1.47958 8.63449 19.1267 1.47958
282 2 8.64466 19.1386 -1.78265 8.64466 19.1386 -1.78265
283 1 9.5905 17.4869 -0.154244 9.5905 17.4869 -0.154244
284 2 11.4853 17.4786 1.48482 11.4853 17.4786 1.48482
285 2 11.4985 17.4974 -1.77741 11.4985 17.4974 -1.77741
286 1 12.4427 19.1342 -0.132729 12.4427 19.1342 -0.132729
287 2 14.3367 19.126 1.50696 14.3367 19.126 1.50696
288 2 14.3509 19.1448 -1.75532 14.3509 19.1448 -1.75532
289 1 15.2945 17.4896 -0.129441 15.2945 17.4896 -0.129441
290 2 17.2065 17.4755 1.48854 17.2065 17.4755 1.48854
291 2 17.1843 17.5058 -1.77366 17.1843 17.5058 -1.77366
292 1 18.1455 19.1371 -0.133611 18.1455 19.1371 -0.133611
293 2 20.063 19.1299 1.47769 20.063 19.1299 1.47769
294 2 20.0293 19.1461 -1.78451 20.0293 19.1461 -1.78451
295 1 20.9964 17.4919 -0.171554 20.9964 17.4919 -0.171554
296 2 22.9106 17.4778 1.44387 22.9106 17.4778 1.44387
297 2 22.8837 17.5078 -1.81827 22.8837 17.5078 -1.81827
298 1 23.8476 19.1392 -0.179896 23.8476 19.1392 -0.179896
299 2 25.7474 19.1244 1.45288 25.7474 19.1244 1.45288
300 2 25.7496 19.1553 -1.80934 25.7496 19.1553 -1.80934
301 1 26.6991 17.4937 -0.193135 26.6991 17.4937 -0.193135
302 2 28.5924 17.4707 1.44673 28.5924 17.4707 1.44673
303 2 28.6074 17.5167 -1.81528 28.6074 17.5167 -1.81528
304 1 29.5494 19.1403 -0.156812 29.5494 19.1403 -0.156812
305 2 31.4501 19.1132 1.47389 31.4501 19.1132 1.47389
306 2 31.4498 19.1673 -1.78804 31.4498 19.1673 -1.78804
307 1 32.4004 17.494 -0.184735 32.4004 17.494 -0.184735
308 2 34.3055 17.4686 1.44067 34.3055 17.4686 1.44067
309 2 34.2965 17.5194 -1.82127 34.2965 17.5194 -1.82127
310 1 35.2508 19.1406 -0.166955 35.2508 19.1406 -0.166955
311 2 37.158 19.1202 1.45681 37.158 19.1202 1.45681
312 2 37.1455 19.1617 -1.80517 37.1455 19.1617 -1.80517
313 1 38.1029 17.495 -0.198939 38.1029 17.495 -0.198939
314 2 39.9968 17.4743 1.44098 39.9968 17.4743 1.44098
315 2 40.0116 17.5163 -1.8213 40.0116 17.5163 -1.8213
316 1 40.9539 19.1415 -0.164074 40.9539 19.1415 -0.164074
317 2 42.83 19.1439 1.43767 42.83 19.1439 1.43767
318 2 42.8354 19.1392 -1.75923 42.8354 19.1392 -1.75923
319 1 43.8742 17.4956 -0.15879 43.8742 17.4956 -0.15879
320 2 -6.23918 17.4929 0.968003 68.9595 17.4929 0.968003
321 2 -5.39194 17.4774 -1.7682 69.8067 17.4774 -1.7682
322 1 -4.65284 19.1323 -0.0523497 70.5458 19.1323 -0.0523497
323 2 -2.75776 19.135 1.57128 72.4409 19.135 1.57128
324 2 -2.78775 19.1282 -1.7093 72.4109 19.1282 -1.7093
325 1 -1.81714 20.7777 -0.0787894 -1.81714 20.7777 -0.0787894
326 2 0.0977002 20.7687 1.53612 0.0977002 20.7687 1.53612
327 2 0.0705404 20.787 -1.72595 0.0705404 20.787 -1.72595
328 1 1.03505 22.4242 -0.0937751 1.03505 22.4242 -0.0937751
329 2 2.95729 22.4112 1.51218 2.95729 22.4112 1.51218
330 2 2.91508 22.4381 -1.74965 2.91508 22.4381 -1.74965
331 1 3.8866 20.7783 -0.144757 3.8866 20.7783 -0.144757
332 2 5.7924 20.7732 1.48121 5.7924 20.7732 1.48121
333 2 5.78345 20.7838 -1.78099 5.78345 20.7838 -1.78099
334 1 6.73901 22.4248 -0.146875 6.73901 22.4248 -0.146875
335 2 8.6343 22.4183 1.4917 8.6343 22.4183 1.4917
336 2 8.64636 22.4321 -1.77047 8.64636 22.4321 -1.77047
337 1 9.59067 20.779 -0.142588 9.59067 20.779 -0.142588
338 2 11.4818 20.7718 1.50063 11.4818 20.7718 1.50063
339 2 11.5021 20.7883 -1.76154 11.5021 20.7883 -1.76154
340 1 12.4424 22.4267 -0.115961 12.4424 22.4267 -0.115961
341 2 14.3379 22.4237 1.52174 14.3379 22.4237 1.52174
342 2 14.3488 22.4319 -1.74057 14.3488 22.4319 -1.74057
343 1 15.2941 20.7819 -0.110494 15.2941 20.7819 -0.110494
344 2 17.2053 20.7786 1.50821 17.2053 20.7786 1.50821
345 2 17.1846 20.7876 -1.7541 17.1846 20.7876 -1.7541
346 1 18.1451 22.4297 -0.124609 18.1451 22.4297 -0.124609
347 2 20.0606 22.4258 1.48916 20.0606 22.4258 1.48916
348 2 20.0312 22.4353 -1.77307 20.0312 22.4353 -1.77307
349 1 20.9963 20.7844 -0.155132 20.9963 20.7844 -0.155132
350 2 22.9047 20.7734 1.46728 22.9047 20.7734 1.46728
351 2 22.8896 20.7969 -1.795 22.8896 20.7969 -1.795
352 1 23.8474 22.4316 -0.156486 23.8474 22.4316 -0.156486
353 2 25.7447 22.4209 1.47915 25.7447 22.4209 1.47915
354 2 25.7517 22.4444 -1.78316 25.7517 22.4444 -1.78316
355 1 26.6985 20.7864 -0.161609 26.6985 20.7864 -0.161609
356 2 28.5859 20.768 1.48536 28.5859 20.768 1.48536
357 2 28.6122 20.8056 -1.77671 28.6122 20.8056 -1.77671
358 1 29.5485 22.4335 -0.118806 29.5485 22.4335 -0.118806
359 2 31.447 22.4192 1.51487 31.447 22.4192 1.51487
360 2 31.4512 22.448 -1.74736 31.4512 22.448 -1.74736
361 1 32.3994 20.787 -0.129664 32.3994 20.787 -0.129664
362 2 34.3116 20.7705 1.4877 34.3116 20.7705 1.4877
363 2 34.2885 20.8033 -1.77437 34.2885 20.8033 -1.77437
364 1 35.2504 22.4334 -0.13326 35.2504 22.4334 -0.13326
365 2 37.1579 22.4211 1.49045 37.1579 22.4211 1.49045
366 2 37.145 22.4457 -1.77172 37.145 22.4457 -1.77172
367 1 38.1022 20.7873 -0.156581 38.1022 20.7873 -0.156581
368 2 39.9978 20.7699 1.48194 39.9978 20.7699 1.48194
369 2 40.0094 20.805 -1.78044 40.0094 20.805 -1.78044
370 1 40.954 22.4334 -0.1275 40.954 22.4334 -0.1275
371 2 42.8511 22.4347 1.45015 42.8511 22.4347 1.45015
372 2 42.8147 22.4324 -1.74649 42.8147 22.4324 -1.74649
373 1 43.8741 20.7875 -0.159551 43.8741 20.7875 -0.159551
374 2 -6.25516 20.7751 0.936083 68.9435 20.7751 0.936083
375 2 -5.36643 20.7838 -1.78519 69.8322 20.7838 -1.78519
376 1 -4.6519 22.4238 -0.0422772 70.5468 22.4238 -0.0422772
377 2 -2.75883 22.4068 1.58354 72.4398 22.4068 1.58354
378 2 -2.78443 22.4413 -1.69673 72.4142 22.4413 -1.69673
379 1 -1.81649 24.0704 -0.0440992 -1.81649 24.0704 -0.0440992
380 2 0.102831 24.0528 1.56579 0.102831 24.0528 1.56579
381 2 0.0666624 24.0881 -1.69599 0.0666624 24.0881 -1.69599
382 1 1.03578 25.7168 -0.0574819 1.03578 25.7168 -0.0574819
383 2 2.96266 25.703 1.54317 2.96266 25.703 1.54317
384 2 2.91123 25.7316 -1.71849 2.91123 25.7316 -1.71849
385 1 3.88728 24.071 -0.117305 3.88728 24.071 -0.117305
386 2 5.80073 24.0629 1.49974 5.80073 24.0629 1.49974
387 2 5.77651 24.0796 -1.7623 5.77651 24.0796 -1.7623
388 1 6.73967 25.7178 -0.129485 6.73967 25.7178 -0.129485
389 2 8.63831 25.7142 1.50515 8.63831 25.7142 1.50515
390 2 8.64367 25.7226 -1.75705 8.64367 25.7226 -1.75705
391 1 9.5911 24.0719 -0.128713 9.5911 24.0719 -0.128713
392 2 11.4843 24.0716 1.51186 11.4843 24.0716 1.51186
393 2 11.5001 24.0743 -1.75039 11.5001 24.0743 -1.75039
394 1 12.4424 25.7198 -0.113071 12.4424 25.7198 -0.113071
395 2 14.3385 25.7227 1.52403 14.3385 25.7227 1.52403
396 2 14.3482 25.7187 -1.7383 14.3482 25.7187 -1.7383
397 1 15.2936 24.0745 -0.102161 15.2936 24.0745 -0.102161
398 2 17.2063 24.0739 1.51504 17.2063 24.0739 1.51504
399 2 17.1828 24.0773 -1.74724 17.1828 24.0773 -1.74724
400 1 18.1451 25.722 -0.121456 18.1451 25.722 -0.121456
401 2 20.0589 25.7214 1.49438 20.0589 25.7214 1.49438
402 2 20.0331 25.7246 -1.76787 20.0331 25.7246 -1.76787
403 1 20.9964 24.0769 -0.145753 20.9964 24.0769 -0.145753
404 2 22.9014 24.0737 1.48089 22.9014 24.0737 1.48089
405 2 22.8931 24.0819 -1.78147 22.8931 24.0819 -1.78147
406 1 23.8474 25.7245 -0.148538 23.8474 25.7245 -0.148538
407 2 25.7432 25.7276 1.48848 25.7432 25.7276 1.48848
408 2 25.753 25.724 -1.77394 25.753 25.724 -1.77394
409 1 26.698 24.0794 -0.137753 26.698 24.0794 -0.137753
410 2 28.5859 24.0762 1.50874 28.5859 24.0762 1.50874
411 2 28.611 24.0841 -1.75356 28.611 24.0841 -1.75356
412 1 29.5486 25.7268 -0.111083 29.5486 25.7268 -0.111083
413 2 31.4444 25.7288 1.52571 31.4444 25.7288 1.52571
414 2 31.4541 25.725 -1.73661 31.4541 25.725 -1.73661
415 1 32.3992 24.0801 -0.100644 32.3992 24.0801 -0.100644
416 2 34.3138 24.0717 1.51405 34.3138 24.0717 1.51405
417 2 34.2862 24.0879 -1.74812 34.2862 24.0879 -1.74812
418 1 35.251 25.7259 -0.116986 35.251 25.7259 -0.116986
419 2 37.16 25.7249 1.50487 37.16 25.7249 1.50487
420 2 37.144 25.7265 -1.75743 37.144 25.7265 -1.75743
421 1 38.1025 24.0794 -0.131615 38.1025 24.0794 -0.131615
422 2 40.0022 24.0805 1.50205 40.0022 24.0805 1.50205
423 2 40.0056 24.0787 -1.76058 40.0056 24.0787 -1.76058
424 1 40.9543 25.7256 -0.129081 40.9543 25.7256 -0.129081
425 2 42.8463 25.7152 1.45489 42.8463 25.7152 1.45489
426 2 42.8198 25.7363 -1.74182 42.8198 25.7363 -1.74182
427 1 43.8741 24.0797 -0.160956 43.8741 24.0797 -0.160956
428 2 -6.24128 24.0555 0.985378 68.9574 24.0555 0.985378
429 2 -5.37635 24.0947 -1.7491 69.8223 24.0947 -1.7491
430 1 -4.65074 25.7157 0.00804304 70.5479 25.7157 0.00804304
431 2 -2.75306 25.6924 1.62819 72.4456 25.6924 1.62819
432 2 -2.78922 25.7412 -1.65188 72.4095 25.7412 -1.65188
433 1 -1.81585 27.363 0.00511265 -1.81585 27.363 0.00511265
434 2 0.113 27.349 1.60395 0.113 27.349 1.60395
435 2 0.0579024 27.3773 -1.65759 0.0579024 27.3773 -1.65759
436 1 1.03637 29.0096 -0.028256 1.03637 29.0096 -0.028256
437 2 2.96806 29.0033 1.56718 2.96806 29.0033 1.56718
438 2 2.90708 29.0166 -1.69441 2.90708 29.0166 -1.69441
439 1 3.88803 27.3636 -0.0881003 3.88803 27.3636 -0.0881003
440 2 5.80826 27.3559 1.5209 5.80826 27.3559 1.5209
441 2 5.7703 27.3724 -1.74104 5.7703 27.3724 -1.74104
442 1 6.73967 29.0109 -0.112465 6.73967 29.0109 -0.112465
443 2 8.64886 29.0181 1.50962 8.64886 29.0181 1.50962
444 2 8.63269 29.0052 -1.7526 8.63269 29.0052 -1.7526
445 1 9.59126 27.3653 -0.119769 9.59126 27.3653 -0.119769
446 2 11.4911 27.3702 1.51313 11.4911 27.3702 1.51313
447 2 11.4935 27.3622 -1.74918 11.4935 27.3622 -1.74918
448 1 12.4425 29.0128 -0.121475 12.4425 29.0128 -0.121475
449 2 14.3368 29.0164 1.51759 14.3368 29.0164 1.51759
450 2 14.35 29.0104 -1.74471 14.35 29.0104 -1.74471
451 1 15.2938 27.3672 -0.106595 15.2938 27.3672 -0.106595
452 2 17.2026 27.3671 1.51514 17.2026 27.3671 1.51514
453 2 17.187 27.369 -1.74717 17.187 27.369 -1.74717
454 1 18.1453 29.0146 -0.119981 18.1453 29.0146 -0.119981
455 2 20.0558 29.0102 1.49952 20.0558 29.0102 1.49952
456 2 20.0366 29.0212 -1.76273 20.0366 29.0212 -1.76273
457 1 20.9964 27.3696 -0.142772 20.9964 27.3696 -0.142772
458 2 22.8976 27.3655 1.48804 22.8976 27.3655 1.48804
459 2 22.897 27.3757 -1.77432 22.897 27.3757 -1.77432
460 1 23.8474 29.0174 -0.138251 23.8474 29.0174 -0.138251
461 2 25.746 29.0116 1.49544 25.746 29.0116 1.49544
462 2 25.7503 29.0257 -1.76695 25.7503 29.0257 -1.76695
463 1 26.6982 27.3725 -0.141567 26.6982 27.3725 -0.141567
464 2 28.5814 27.373 1.51009 28.5814 27.373 1.51009
465 2 28.6162 27.3737 -1.75212 28.6162 27.3737 -1.75212
466 1 29.5495 29.0196 -0.110364 29.5495 29.0196 -0.110364
467 2 31.4486 29.0222 1.52287 31.4486 29.0222 1.52287
468 2 31.4523 29.0172 -1.73947 31.4523 29.0172 -1.73947
469 1 32.4002 27.373 -0.104645 32.4002 27.373 -0.104645
470 2 34.3087 27.3735 1.5173 34.3087 27.3735 1.5173
471 2 34.2935 27.3714 -1.74502 34.2935 27.3714 -1.74502
472 1 35.2521 29.0185 -0.119648 35.2521 29.0185 -0.119648
473 2 37.1613 29.022 1.50168 37.1613 29.022 1.50168
474 2 37.1448 29.0138 -1.76064 37.1448 29.0138 -1.76064
475 1 38.1031 27.3716 -0.130176 38.1031 27.3716 -0.130176
476 2 40.0095 27.3811 1.49504 40.0095 27.3811 1.49504
477 2 39.9991 27.3621 -1.76756 39.9991 27.3621 -1.76756
478 1 40.9547 29.0177 -0.149636 40.9547 29.0177 -0.149636
479 2 42.8174 28.9959 1.46708 42.8174 28.9959 1.46708
480 2 42.8493 29.0403 -1.7294 42.8493 29.0403 -1.7294
481 1 43.8744 27.3719 -0.14212 43.8744 27.3719 -0.14212
482 2 -6.22544 27.343 1.06514 68.9732 27.343 1.06514
483 2 -5.39814 27.3936 -1.68126 69.8005 27.3936 -1.68126
484 1 -4.65005 29.0085 0.0721412 70.5486 29.0085 0.0721412
485 2 -2.73812 28.9944 1.67633 72.4605 28.9944 1.67633
486 2 -2.80295 29.0244 -1.6036 72.3957 29.0244 -1.6036
487 1 -1.81568 30.6558 0.0361199 -1.81568 30.6558 0.0361199
488 2 0.124317 30.6588 1.62184 0.124317 30.6588 1.62184
489 2 0.0466746 30.6529 -1.63932 0.0466746 30.6529 -1.63932
490 1 1.03588 32.3023 -0.0344801 1.03588 32.3023 -0.0344801
491 2 2.96741 32.3156 1.56096 2.96741 32.3156 1.56096
492 2 2.90653 32.2902 -1.70056 2.90653 32.2902 -1.70056
493 1 3.88795 30.6566 -0.074605 3.88795 30.6566 -0.074605
494 2 5.81261 30.6605 1.52896 5.81261 30.6605 1.52896
495 2 5.76537 30.6539 -1.73295 5.76537 30.6539 -1.73295
496 1 6.73888 32.3039 -0.119346 6.73888 32.3039 -0.119346
497 2 8.65003 32.3088 1.50009 8.65003 32.3088 1.50009
498 2 8.62971 32.3002 -1.76215 8.62971 32.3002 -1.76215
499 1 9.59076 30.6584 -0.132617 9.59076 30.6584 -0.132617
500 2 11.4879 30.6629 1.50325 11.4879 30.6629 1.50325
501 2 11.4956 30.6552 -1.75905 11.4956 30.6552 -1.75905
502 1 12.4418 32.3056 -0.129586 12.4418 32.3056 -0.129586
503 2 14.3325 32.3045 1.51375 14.3325 32.3045 1.51375
504 2 14.3531 32.3076 -1.74847 14.3531 32.3076 -1.74847
505 1 15.2937 30.66 -0.112933 15.2937 30.66 -0.112933
506 2 17.1955 30.6554 1.51709 17.1955 30.6554 1.51709
507 2 17.1941 30.6661 -1.7452 17.1941 30.6661 -1.7452
508 1 18.1446 32.3077 -0.109194 18.1446 32.3077 -0.109194
509 2 20.0516 32.2973 1.51464 20.0516 32.2973 1.51464
510 2 20.0396 32.3202 -1.74754 20.0396 32.3202 -1.74754
511 1 20.9962 30.6626 -0.131653 20.9962 30.6626 -0.131653
512 2 22.8959 30.655 1.50101 22.8959 30.655 1.50101
513 2 22.8985 30.6722 -1.76129 22.8985 30.6722 -1.76129
514 1 23.8472 32.3103 -0.120398 23.8472 32.3103 -0.120398
515 2 25.7475 32.3037 1.51141 25.7475 32.3037 1.51141
516 2 25.7487 32.3184 -1.75093 25.7487 32.3184 -1.75093
517 1 26.6985 30.6651 -0.127062 26.6985 30.6651 -0.127062
518 2 28.5905 30.6671 1.51466 28.5905 30.6671 1.51466
519 2 28.6083 30.6647 -1.74765 28.6083 30.6647 -1.74765
520 1 29.55 32.3122 -0.11222 29.55 32.3122 -0.11222
521 2 31.4496 32.3122 1.52063 31.4496 32.3122 1.52063
522 2 31.4526 32.3127 -1.74171 31.4526 32.3127 -1.74171
523 1 32.4012 30.6658 -0.10994 32.4012 30.6658 -0.10994
524 2 34.3087 30.6671 1.51325 34.3087 30.6671 1.51325
525 2 34.2956 30.663 -1.74907 34.2956 30.663 -1.74907
526 1 35.2531 32.311 -0.124027 35.2531 32.311 -0.124027
527 2 37.1593 32.3053 1.50064 37.1593 32.3053 1.50064
528 2 37.1489 32.3152 -1.76169 37.1489 32.3152 -1.76169
529 1 38.1041 30.6639 -0.138809 38.1041 30.6639 -0.138809
530 2 40.0098 30.661 1.48685 40.0098 30.661 1.48685
531 2 40.0006 30.6669 -1.77581 40.0006 30.6669 -1.77581
532 1 40.9554 32.3102 -0.144507 40.9554 32.3102 -0.144507
533 2 42.8051 32.3076 1.4856 42.8051 32.3076 1.4856
534 2 42.8627 32.3134 -1.71084 42.8627 32.3134 -1.71084
535 1 43.8744 30.6641 -0.098839 43.8744 30.6641 -0.098839
536 2 -6.21131 30.6483 1.12871 68.9874 30.6483 1.12871