ITEM: TIMESTEP
5134000
ITEM: NUMBER OF ATOMS
810
ITEM: BOX BOUNDS pp pp pp
-1.2303578629671598e+01 6.5321183629670657e+01
8.1394622342039402e-01 5.0202268776579182e+01
-1.0000000000000000e+01 1.0000000000000000e+01
ITEM: ATOMS id type x y z xu yu zu
1 1 -2.25788 1.03303 -0.417424 -2.25788 1.03303 -0.417424
2 2 -0.383523 1.02356 1.24422 -0.383523 1.02356 1.24422
3 2 -0.329288 1.04094 -2.01725 -0.329288 1.04094 -2.01725
4 1 0.593864 2.67904 -0.361816 0.593864 2.67904 -0.361816
5 2 2.49626 2.66054 1.26703 2.49626 2.66054 1.26703
6 2 2.49433 2.69726 -1.99484 2.49433 2.69726 -1.99484
7 1 3.44578 1.03187 -0.383376 3.44578 1.03187 -0.383376
8 2 5.34249 1.02952 1.25226 5.34249 1.02952 1.25226
9 2 5.35154 1.0345 -2.0098 5.35154 1.0345 -2.0098
10 1 6.29736 2.67909 -0.373823 6.29736 2.67909 -0.373823
11 2 8.17853 2.66557 1.28039 8.17853 2.66557 1.28039
12 2 8.21849 2.69163 -1.98141 8.21849 2.69163 -1.98141
13 1 9.14894 1.03152 -0.3522 9.14894 1.03152 -0.3522
14 2 11.0182 1.03445 1.31566 11.0182 1.03445 1.31566
15 2 11.0815 1.02686 -1.94591 11.0815 1.02686 -1.94591
16 1 12.0009 2.6768 -0.300394 12.0009 2.6768 -0.300394
17 2 13.8727 2.67031 1.36471 13.8727 2.67031 1.36471
18 2 13.9312 2.68201 -1.89693 13.9312 2.68201 -1.89693
19 1 14.8526 1.02979 -0.254737 14.8526 1.02979 -0.254737
20 2 16.7324 1.02701 1.40122 16.7324 1.02701 1.40122
21 2 16.7754 1.03217 -1.86068 16.7754 1.03217 -1.86068
22 1 17.7048 2.67578 -0.214467 17.7048 2.67578 -0.214467
23 2 19.5937 2.67521 1.43089 19.5937 2.67521 1.43089
24 2 19.6182 2.67495 -1.83125 19.6182 2.67495 -1.83125
25 1 20.556 1.02811 -0.192862 20.556 1.02811 -0.192862
26 2 22.4432 1.03028 1.45451 22.4432 1.03028 1.45451
27 2 22.471 1.02416 -1.80757 22.471 1.02416 -1.80757
28 1 23.408 2.67361 -0.171245 23.408 2.67361 -0.171245
29 2 25.2943 2.68251 1.47724 25.2943 2.68251 1.47724
30 2 25.3239 2.66364 -1.78475 25.3239 2.66364 -1.78475
31 1 26.2595 1.02622 -0.135384 26.2595 1.02622 -0.135384
32 2 28.1546 1.03137 1.50307 28.1546 1.03137 1.50307
33 2 28.1669 1.01929 -1.75908 28.1669 1.01929 -1.75908
34 1 29.1117 2.67165 -0.130519 29.1117 2.67165 -0.130519
35 2 31.0141 2.68143 1.49898 31.0141 2.68143 1.49898
36 2 31.0119 2.66107 -1.76315 31.0119 2.66107 -1.76315
37 1 31.964 1.02511 -0.122468 31.964 1.02511 -0.122468
38 2 33.8807 1.0304 1.49044 33.8807 1.0304 1.49044
39 2 33.8501 1.02042 -1.77162 33.8501 1.02042 -1.77162
40 1 34.8161 2.67166 -0.155037 34.8161 2.67166 -0.155037
41 2 36.728 2.67241 1.46297 36.728 2.67241 1.46297
42 2 36.7066 2.67091 -1.79922 36.7066 2.67091 -1.79922
43 1 37.6684 1.02538 -0.17392 37.6684 1.02538 -0.17392
44 2 39.5773 1.03786 1.44853 39.5773 1.03786 1.44853
45 2 39.5622 1.01179 -1.8139 39.5622 1.01179 -1.8139
46 1 40.5196 2.67109 -0.200658 40.5196 2.67109 -0.200658
47 2 42.3871 2.67839 1.40976 42.3871 2.67839 1.40976
48 2 42.4099 2.66341 -1.78699 42.4099 2.66341 -1.78699
49 1 43.4399 1.02492 -0.173782 43.4399 1.02492 -0.173782
50 2 -5.85332 1.01744 1.23692 71.7714 1.01744 1.23692
51 2 -6.66569 1.04187 -1.50842 70.9591 1.04187 -1.50842
52 1 -5.09356 2.68104 -0.46446 72.5312 2.68104 -0.46446
53 2 -3.26143 2.64547 1.23062 74.3633 2.64547 1.23062
54 2 -3.16423 2.71427 -2.0478 74.4605 2.71427 -2.0478
55 1 -2.25887 4.32569 -0.348567 -2.25887 4.32569 -0.348567
56 2 -0.370024 4.29301 1.29547 -0.370024 4.29301 1.29547
57 2 -0.344193 4.35816 -1.96579 -0.344193 4.35816 -1.96579
58 1 0.593278 5.9718 -0.29467 0.593278 5.9718 -0.29467
59 2 2.49714 5.92581 1.33249 2.49714 5.92581 1.33249
60 2 2.49247 6.01822 -1.92827 2.49247 6.01822 -1.92827
61 1 3.44563 4.32586 -0.346338 3.44563 4.32586 -0.346338
62 2 5.34507 4.2964 1.28614 5.34507 4.2964 1.28614
63 2 5.34895 4.35558 -1.97544 5.34895 4.35558 -1.97544
64 1 6.29755 5.9723 -0.313351 6.29755 5.9723 -0.313351
65 2 8.18748 5.94011 1.33076 8.18748 5.94011 1.33076
66 2 8.21027 6.00284 -1.93075 8.21027 6.00284 -1.93075
67 1 9.14932 4.3248 -0.325456 9.14932 4.3248 -0.325456
68 2 11.0274 4.30824 1.33254 11.0274 4.30824 1.33254
69 2 11.0736 4.33878 -1.92917 11.0736 4.33878 -1.92917
70 1 12.0015 5.96956 -0.269089 12.0015 5.96956 -0.269089
71 2 13.8798 5.95524 1.38849 13.8798 5.95524 1.38849
72 2 13.9254 5.98245 -1.8733 13.9254 5.98245 -1.8733
73 1 14.853 4.32235 -0.243055 14.853 4.32235 -0.243055
74 2 16.7372 4.32116 1.40776 16.7372 4.32116 1.40776
75 2 16.7713 4.3235 -1.85429 16.7713 4.3235 -1.85429
76 1 17.705 5.96858 -0.212195 17.705 5.96858 -0.212195
77 2 19.5967 5.9705 1.42981 19.5967 5.9705 1.42981
78 2 19.6161 5.96548 -1.83236 19.6161 5.96548 -1.83236
79 1 20.5567 4.3213 -0.193196 20.5567 4.3213 -0.193196
80 2 22.4515 4.33113 1.44522 22.4515 4.33113 1.44522
81 2 22.4642 4.30975 -1.81692 22.4642 4.30975 -1.81692
82 1 23.4088 5.96669 -0.192927 23.4088 5.96669 -0.192927
83 2 25.2962 5.97941 1.45436 25.2962 5.97941 1.45436
84 2 25.3238 5.95276 -1.80763 25.3238 5.95276 -1.80763
85 1 26.2602 4.31932 -0.154911 26.2602 4.31932 -0.154911
86 2 28.1535 4.32878 1.48536 28.1535 4.32878 1.48536
87 2 28.1695 4.30801 -1.77669 28.1695 4.30801 -1.77669
88 1 29.1126 5.9647 -0.151711 29.1126 5.9647 -0.151711
89 2 31.0126 5.96981 1.48111 31.0126 5.96981 1.48111
90 2 31.0153 5.95871 -1.78106 31.0153 5.95871 -1.78106
91 1 31.9641 4.31762 -0.143384 31.9641 4.31762 -0.143384
92 2 33.8722 4.31845 1.4795 33.8722 4.31845 1.4795
93 2 33.8587 4.31745 -1.78272 33.8587 4.31745 -1.78272
94 1 34.8164 5.96414 -0.156186 34.8164 5.96414 -0.156186
95 2 36.7277 5.9623 1.46321 36.7277 5.9623 1.46321
96 2 36.7074 5.96611 -1.79904 36.7074 5.96611 -1.79904
97 1 37.668 4.31778 -0.175511 37.668 4.31778 -0.175511
98 2 39.5754 4.30387 1.44854 39.5754 4.30387 1.44854
99 2 39.5631 4.33082 -1.81395 39.5631 4.33082 -1.81395
100 1 40.5191 5.9635 -0.171951 40.5191 5.9635 -0.171951
101 2 42.4092 5.96664 1.41417 42.4092 5.96664 1.41417
102 2 42.386 5.95953 -1.78272 42.386 5.95953 -1.78272
103 1 43.4392 4.31721 -0.188674 43.4392 4.31721 -0.188674
104 2 -5.84605 4.28095 1.29856 71.7787 4.28095 1.29856
105 2 -6.67806 4.35513 -1.43426 70.9467 4.35513 -1.43426
106 1 -5.09414 5.97628 -0.381268 72.5306 5.97628 -0.381268
107 2 -3.26801 5.9118 1.32157 74.3568 5.9118 1.32157
108 2 -3.15616 6.03289 -1.95358 74.4686 6.03289 -1.95358
109 1 -2.25934 7.61709 -0.222233 -2.25934 7.61709 -0.222233
110 2 -0.348233 7.56303 1.39592 -0.348233 7.56303 1.39592
111 2 -0.366913 7.67149 -1.86442 -0.366913 7.67149 -1.86442
112 1 0.593154 9.26273 -0.185696 0.593154 9.26273 -0.185696
113 2 2.50845 9.22228 1.42842 2.50845 9.22228 1.42842
114 2 2.48039 9.30502 -1.83262 2.48039 9.30502 -1.83262
115 1 3.44543 7.61798 -0.252475 3.44543 7.61798 -0.252475
116 2 5.35619 7.57503 1.36679 5.35619 7.57503 1.36679
117 2 5.3372 7.66152 -1.8942 5.3372 7.66152 -1.8942
118 1 6.29718 9.26419 -0.22545 6.29718 9.26419 -0.22545
119 2 8.19845 9.22784 1.40555 8.19845 9.22784 1.40555
120 2 8.19863 9.29891 -1.85585 8.19863 9.29891 -1.85585
121 1 9.1496 7.61724 -0.261346 9.1496 7.61724 -0.261346
122 2 11.038 7.58615 1.38464 11.038 7.58615 1.38464
123 2 11.0638 7.64596 -1.87689 11.0638 7.64596 -1.87689
124 1 12.001 9.26242 -0.208197 12.001 9.26242 -0.208197
125 2 13.8921 9.23804 1.43431 13.8921 9.23804 1.43431
126 2 13.9123 9.28554 -1.82747 13.9123 9.28554 -1.82747
127 1 14.853 7.6153 -0.215244 14.853 7.6153 -0.215244
128 2 16.7435 7.59996 1.42797 16.7435 7.59996 1.42797
129 2 16.765 7.62995 -1.83406 16.765 7.62995 -1.83406
130 1 17.705 9.26107 -0.181783 17.705 9.26107 -0.181783
131 2 19.6084 9.24834 1.44665 19.6084 9.24834 1.44665
132 2 19.6046 9.27273 -1.81546 19.6046 9.27273 -1.81546
133 1 20.5572 7.61415 -0.198273 20.5572 7.61415 -0.198273
134 2 22.4551 7.61317 1.43645 22.4551 7.61317 1.43645
135 2 22.4619 7.61379 -1.82576 22.4619 7.61379 -1.82576
136 1 23.4096 9.25961 -0.192432 23.4096 9.25961 -0.192432
137 2 25.3052 9.25986 1.44519 25.3052 9.25986 1.44519
138 2 25.3165 9.25797 -1.81703 25.3165 9.25797 -1.81703
139 1 26.2612 7.6122 -0.181947 26.2612 7.6122 -0.181947
140 2 28.1541 7.62651 1.45878 28.1541 7.62651 1.45878
141 2 28.1708 7.59638 -1.80321 28.1708 7.59638 -1.80321
142 1 29.1136 9.25764 -0.182626 29.1136 9.25764 -0.182626
143 2 31.0039 9.26551 1.46107 31.0039 9.26551 1.46107
144 2 31.0259 9.24891 -1.80102 31.0259 9.24891 -1.80102
145 1 31.965 7.61057 -0.155009 31.965 7.61057 -0.155009
146 2 33.8699 7.61568 1.47179 33.8699 7.61568 1.47179
147 2 33.8626 7.60545 -1.79051 33.8626 7.60545 -1.79051
148 1 34.817 9.25672 -0.166933 34.817 9.25672 -0.166933
149 2 36.7191 9.25415 1.46262 36.7191 9.25415 1.46262
150 2 36.7167 9.25913 -1.79975 36.7167 9.25913 -1.79975
151 1 37.6682 7.61029 -0.171806 37.6682 7.61029 -0.171806
152 2 39.5694 7.60969 1.4595 39.5694 7.60969 1.4595
153 2 39.5692 7.61019 -1.80319 39.5692 7.61019 -1.80319
154 1 40.5192 9.25602 -0.17198 40.5192 9.25602 -0.17198
155 2 42.4068 9.2521 1.41491 42.4068 9.2521 1.41491
156 2 42.3884 9.25881 -1.78205 42.3884 9.25881 -1.78205
157 1 43.4385 7.60924 -0.193904 43.4385 7.60924 -0.193904
158 2 -5.86372 7.50384 1.42807 71.761 7.50384 1.42807
159 2 -6.58126 7.71057 -1.40662 71.0435 7.71057 -1.40662
160 1 -5.09093 9.26168 -0.17018 72.5338 9.26168 -0.17018
161 2 -3.21565 9.21907 1.46685 74.4091 9.21907 1.46685
162 2 -3.22227 9.30401 -1.81424 74.4025 9.30401 -1.81424
163 1 -2.26007 10.9064 -0.128805 -2.26007 10.9064 -0.128805
164 2 -0.35121 10.8619 1.49428 -0.35121 10.8619 1.49428
165 2 -0.365793 10.9534 -1.76661 -0.365793 10.9534 -1.76661
166 1 0.591703 12.554 -0.0942945 0.591703 12.554 -0.0942945
167 2 2.51425 12.5187 1.51156 2.51425 12.5187 1.51156
168 2 2.47201 12.592 -1.74948 2.47201 12.592 -1.74948
169 1 3.44465 10.9099 -0.168277 3.44465 10.9099 -0.168277
170 2 5.35693 10.8723 1.44965 5.35693 10.8723 1.44965
171 2 5.33513 10.9479 -1.81157 5.33513 10.9479 -1.81157
172 1 6.29609 12.5564 -0.149115 6.29609 12.5564 -0.149115
173 2 8.19986 12.5205 1.47894 8.19986 12.5205 1.47894
174 2 8.19489 12.5914 -1.78245 8.19489 12.5914 -1.78245
175 1 9.14856 10.9097 -0.188944 9.14856 10.9097 -0.188944
176 2 11.0399 10.8727 1.45342 11.0399 10.8727 1.45342
177 2 11.0596 10.9447 -1.80787 11.0596 10.9447 -1.80787
178 1 11.9998 12.5551 -0.134842 11.9998 12.5551 -0.134842
179 2 13.903 12.5266 1.49395 13.903 12.5266 1.49395
180 2 13.8995 12.5822 -1.76766 13.8995 12.5822 -1.76766
181 1 14.8526 10.9081 -0.16629 14.8526 10.9081 -0.16629
182 2 16.7497 10.8848 1.46965 16.7497 10.8848 1.46965
183 2 16.7585 10.9299 -1.79219 16.7585 10.9299 -1.79219
184 1 17.7052 12.5533 -0.135942 17.7052 12.5533 -0.135942
185 2 19.615 12.5305 1.4852 19.615 12.5305 1.4852
186 2 19.5988 12.575 -1.7766 19.5988 12.575 -1.7766
187 1 20.5576 10.9066 -0.173154 20.5576 10.9066 -0.173154
188 2 22.4614 10.8916 1.45497 22.4614 10.8916 1.45497
189 2 22.4567 10.9207 -1.80711 22.4567 10.9207 -1.80711
190 1 23.41 12.5522 -0.162569 23.41 12.5522 -0.162569
191 2 25.3164 12.54 1.46262 25.3164 12.54 1.46262
192 2 25.3063 12.5631 -1.79952 25.3063 12.5631 -1.79952
193 1 26.2618 10.905 -0.183437 26.2618 10.905 -0.183437
194 2 28.1621 10.9037 1.44867 28.1621 10.9037 1.44867
195 2 28.164 10.9049 -1.81357 28.164 10.9049 -1.81357
196 1 29.1141 12.5504 -0.180939 29.1141 12.5504 -0.180939
197 2 31.0126 12.5534 1.45384 31.0126 12.5534 1.45384
198 2 31.0183 12.5466 -1.80838 31.0183 12.5466 -1.80838
199 1 31.9658 10.9035 -0.172134 31.9658 10.9035 -0.172134
200 2 33.8631 10.9016 1.46343 33.8631 10.9016 1.46343
201 2 33.8708 10.9048 -1.79886 33.8708 10.9048 -1.79886
202 1 34.8178 12.5495 -0.163914 34.8178 12.5495 -0.163914
203 2 36.7211 12.5502 1.46484 36.7211 12.5502 1.46484
204 2 36.7166 12.5483 -1.79751 36.7166 12.5483 -1.79751
205 1 37.6687 10.9028 -0.166534 37.6687 10.9028 -0.166534
206 2 39.5711 10.8993 1.46357 39.5711 10.8993 1.46357
207 2 39.5683 10.9056 -1.79914 39.5683 10.9056 -1.79914
208 1 40.5202 12.5483 -0.165066 40.5202 12.5483 -0.165066
209 2 42.4149 12.5566 1.41412 42.4149 12.5566 1.41412
210 2 42.3826 12.5384 -1.78261 42.3826 12.5384 -1.78261
211 1 43.4393 10.9011 -0.186003 43.4393 10.9011 -0.186003
212 2 -6.58848 10.8209 1.04792 71.0363 10.8209 1.04792
213 2 -5.85936 11.0087 -1.78318 71.7654 11.0087 -1.78318
214 1 -5.09593 12.5483 0.0183743 72.5288 12.5483 0.0183743
215 2 -3.15831 12.5007 1.59214 74.4665 12.5007 1.59214
216 2 -3.26767 12.6021 -1.68366 74.3571 12.6021 -1.68366
217 1 -2.26093 14.1986 -0.0229505 -2.26093 14.1986 -0.0229505
218 2 -0.334073 14.1725 1.57879 -0.334073 14.1725 1.57879
219 2 -0.385347 14.2267 -1.68245 -0.385347 14.2267 -1.68245
220 1 0.589833 15.8466 -0.0387336 0.589833 15.8466 -0.0387336
221 2 2.50767 15.8195 1.5734 2.50767 15.8195 1.5734
222 2 2.47503 15.8751 -1.68813 2.47503 15.8751 -1.68813
223 1 3.44324 14.2018 -0.0945123 3.44324 14.2018 -0.0945123
224 2 5.35678 14.1689 1.52236 5.35678 14.1689 1.52236
225 2 5.33276 14.2359 -1.73902 5.33276 14.2359 -1.73902
226 1 6.2945 15.8489 -0.081236 6.2945 15.8489 -0.081236
227 2 8.20112 15.8226 1.54368 8.20112 15.8226 1.54368
228 2 8.1905 15.8751 -1.71807 8.1905 15.8751 -1.71807
229 1 9.14714 14.2025 -0.116926 9.14714 14.2025 -0.116926
230 2 11.0466 14.1808 1.51634 11.0466 14.1808 1.51634
231 2 11.0501 14.2226 -1.7455 11.0501 14.2226 -1.7455
232 1 11.9991 15.8478 -0.0920989 11.9991 15.8478 -0.0920989
233 2 13.9019 15.8307 1.53783 13.9019 15.8307 1.53783
234 2 13.8998 15.863 -1.7241 13.8998 15.863 -1.7241
235 1 14.8522 14.2004 -0.109759 14.8522 14.2004 -0.109759
236 2 16.7555 14.1764 1.51953 16.7555 14.1764 1.51953
237 2 16.7526 14.2228 -1.7422 16.7526 14.2228 -1.7422
238 1 17.7054 15.8456 -0.0886726 17.7054 15.8456 -0.0886726
239 2 19.6168 15.8229 1.53121 19.6168 15.8229 1.53121
240 2 19.5977 15.8675 -1.73052 19.5977 15.8675 -1.73052
241 1 20.558 14.1989 -0.127865 20.558 14.1989 -0.127865
242 2 22.4683 14.18 1.49261 22.4683 14.18 1.49261
243 2 22.4505 14.217 -1.76935 22.4505 14.217 -1.76935
244 1 23.4101 15.8447 -0.124537 23.4101 15.8447 -0.124537
245 2 25.3233 15.8305 1.49258 25.3233 15.8305 1.49258
246 2 25.2995 15.8574 -1.76945 25.2995 15.8574 -1.76945
247 1 26.2622 14.1976 -0.159417 26.2622 14.1976 -0.159417
248 2 28.1737 14.1936 1.45962 28.1737 14.1936 1.45962
249 2 28.1533 14.2 -1.80254 28.1533 14.2 -1.80254
250 1 29.1145 15.843 -0.173772 29.1145 15.843 -0.173772
251 2 31.0215 15.8474 1.45099 31.0215 15.8474 1.45099
252 2 31.0104 15.838 -1.81117 31.0104 15.838 -1.81117
253 1 31.9665 14.1963 -0.178657 31.9665 14.1963 -0.178657
254 2 33.8633 14.2023 1.45804 33.8633 14.2023 1.45804
255 2 33.8724 14.19 -1.80413 33.8724 14.19 -1.80413
256 1 34.8188 15.8425 -0.176669 34.8188 15.8425 -0.176669
257 2 36.7211 15.8523 1.45317 36.7211 15.8523 1.45317
258 2 36.719 15.8323 -1.80905 36.719 15.8323 -1.80905
259 1 37.6698 14.1955 -0.168351 37.6698 14.1955 -0.168351
260 2 39.5753 14.2057 1.45799 39.5753 14.2057 1.45799
261 2 39.5665 14.1839 -1.8046 39.5665 14.1839 -1.8046
262 1 40.5215 15.8406 -0.18687 40.5215 15.8406 -0.18687
263 2 42.4154 15.8477 1.39388 42.4154 15.8477 1.39388
264 2 42.3847 15.8311 -1.80287 42.3847 15.8311 -1.80287
265 1 43.4406 14.193 -0.204792 43.4406 14.193 -0.204792
266 2 -6.69291 14.1763 1.04149 70.9319 14.1763 1.04149
267 2 -5.8348 14.2325 -1.67957 71.79 14.2325 -1.67957
268 1 -5.0966 15.8435 0.0793486 72.5282 15.8435 0.0793486
269 2 -3.17376 15.8113 1.67089 74.451 15.8113 1.67089
270 2 -3.25733 15.877 -1.60808 74.3674 15.877 -1.60808
271 1 -2.2633 17.4916 0.0420597 -2.2633 17.4916 0.0420597
272 2 -0.328392 17.4708 1.6333 -0.328392 17.4708 1.6333
273 2 -0.396056 17.5135 -1.62779 -0.396056 17.5135 -1.62779
274 1 0.587263 19.1392 0.00506701 0.587263 19.1392 0.00506701
275 2 2.5037 19.1214 1.61892 2.5037 19.1214 1.61892
276 2 2.47371 19.1575 -1.64289 2.47371 19.1575 -1.64289
277 1 3.44105 17.494 -0.0387867 3.44105 17.494 -0.0387867
278 2 5.35412 17.4723 1.57888 5.35412 17.4723 1.57888
279 2 5.33102 17.5169 -1.68293 5.33102 17.5169 -1.68293
280 1 6.29263 19.141 -0.0359297 6.29263 19.141 -0.0359297
281 2 8.20506 19.1324 1.58265 8.20506 19.1324 1.58265
282 2 8.18337 19.15 -1.67938 8.18337 19.15 -1.67938
283 1 9.14612 17.4951 -0.0635151 9.14612 17.4951 -0.0635151
284 2 11.0563 17.4806 1.55765 11.0563 17.4806 1.55765
285 2 11.039 17.5078 -1.70431 11.039 17.5078 -1.70431
286 1 11.9988 19.1402 -0.0645568 11.9988 19.1402 -0.0645568
287 2 13.9046 19.1327 1.56207 13.9046 19.1327 1.56207
288 2 13.8967 19.1452 -1.69998 13.8967 19.1452 -1.69998
289 1 14.8523 17.4927 -0.0773531 14.8523 17.4927 -0.0773531
290 2 16.7555 17.4825 1.55243 16.7555 17.4825 1.55243
291 2 16.7529 17.5015 -1.70958 16.7529 17.5015 -1.70958
292 1 17.7053 19.1382 -0.0697125 17.7053 19.1382 -0.0697125
293 2 19.6105 19.1314 1.55725 19.6105 19.1314 1.55725
294 2 19.6036 19.1449 -1.70481 19.6036 19.1449 -1.70481
295 1 20.558 17.4916 -0.0825917 20.558 17.4916 -0.0825917
296 2 22.4772 17.4807 1.52759 22.4772 17.4807 1.52759
297 2 22.4416 17.5016 -1.73434 22.4416 17.5016 -1.73434
298 1 23.4102 19.1374 -0.102831 23.4102 19.1374 -0.102831
299 2 25.3294 19.1391 1.50734 25.3294 19.1391 1.50734
300 2 25.2935 19.1339 -1.75465 25.2935 19.1339 -1.75465
301 1 26.2624 17.49 -0.131629 26.2624 17.49 -0.131629
302 2 28.1853 17.4853 1.47406 28.1853 17.4853 1.47406
303 2 28.1421 17.4932 -1.78781 28.1421 17.4932 -1.78781
304 1 29.115 19.1355 -0.165425 29.115 19.1355 -0.165425
305 2 31.0334 19.1427 1.44588 31.0334 19.1427 1.44588
306 2 30.9994 19.128 -1.81605 30.9994 19.128 -1.81605
307 1 31.9671 17.489 -0.187667 31.9671 17.489 -0.187667
308 2 33.8673 17.4974 1.44513 33.8673 17.4974 1.44513
309 2 33.8697 17.4806 -1.81703 33.8697 17.4806 -1.81703
310 1 34.8196 19.1352 -0.193813 34.8196 19.1352 -0.193813
311 2 36.7249 19.1466 1.43274 36.7249 19.1466 1.43274
312 2 36.7172 19.1232 -1.82942 36.7172 19.1232 -1.82942
313 1 37.6711 17.4883 -0.188747 37.6711 17.4883 -0.188747
314 2 39.5769 17.4968 1.43724 39.5769 17.4968 1.43724
315 2 39.568 17.4779 -1.82533 39.568 17.4779 -1.82533
316 1 40.5227 19.1332 -0.206715 40.5227 19.1332 -0.206715
317 2 42.4072 19.1251 1.38503 42.4072 19.1251 1.38503
318 2 42.3956 19.1386 -1.81186 42.3956 19.1386 -1.81186
319 1 43.4417 17.4851 -0.223215 43.4417 17.4851 -0.223215
320 2 -6.67443 17.4851 1.10988 70.9503 17.4851 1.10988
321 2 -5.84926 17.4984 -1.63426 71.7755 17.4984 -1.63426
322 1 -5.09979 19.1378 0.0927472 72.525 19.1378 0.0927472
323 2 -3.19588 19.1241 1.70643 74.4289 19.1241 1.70643
324 2 -3.24336 19.1512 -1.57371 74.3814 19.1512 -1.57371
325 1 -2.26561 20.785 0.0688481 -2.26561 20.785 0.0688481
326 2 -0.338497 20.7668 1.66944 -0.338497 20.7668 1.66944
327 2 -0.390073 20.8038 -1.59198 -0.390073 20.8038 -1.59198
328 1 0.586285 22.4322 0.0426019 0.586285 22.4322 0.0426019
329 2 2.50723 22.4222 1.65082 2.50723 22.4222 1.65082
330 2 2.46795 22.4423 -1.61099 2.46795 22.4423 -1.61099
331 1 3.43891 20.7862 -0.00208321 3.43891 20.7862 -0.00208321
332 2 5.35541 20.7792 1.61131 5.35541 20.7792 1.61131
333 2 5.32525 20.7939 -1.65069 5.32525 20.7939 -1.65069
334 1 6.29129 22.4329 -0.0210007 6.29129 22.4329 -0.0210007
335 2 8.20429 22.4278 1.59689 8.20429 22.4278 1.59689
336 2 8.18181 22.4383 -1.66511 8.18181 22.4383 -1.66511
337 1 9.14514 20.7872 -0.0458676 9.14514 20.7872 -0.0458676
338 2 11.0541 20.7801 1.57687 11.0541 20.7801 1.57687
339 2 11.0399 20.7927 -1.68517 11.0399 20.7927 -1.68517
340 1 11.9981 22.4323 -0.051966 11.9981 22.4323 -0.051966
341 2 13.9051 22.4268 1.57317 13.9051 22.4268 1.57317
342 2 13.8947 22.4351 -1.68893 13.8947 22.4351 -1.68893
343 1 14.8518 20.7849 -0.0648604 14.8518 20.7849 -0.0648604
344 2 16.7538 20.779 1.56649 16.7538 20.779 1.56649
345 2 16.7537 20.7897 -1.69557 16.7537 20.7897 -1.69557
346 1 17.7048 22.4307 -0.0589198 17.7048 22.4307 -0.0589198
347 2 19.6156 22.4364 1.56161 19.6156 22.4364 1.56161
348 2 19.5975 22.4253 -1.70043 19.5975 22.4253 -1.70043
349 1 20.5579 20.7845 -0.0690329 20.5579 20.7845 -0.0690329
350 2 22.4775 20.782 1.54068 22.4775 20.782 1.54068
351 2 22.4414 20.786 -1.72128 22.4414 20.786 -1.72128
352 1 23.4106 22.43 -0.0990747 23.4106 22.43 -0.0990747
353 2 25.3379 22.437 1.50151 25.3379 22.437 1.50151
354 2 25.2862 22.4211 -1.76017 25.2862 22.4211 -1.76017
355 1 26.2627 20.7825 -0.136532 26.2627 20.7825 -0.136532
356 2 28.186 20.7912 1.46868 28.186 20.7912 1.46868
357 2 28.1423 20.7726 -1.79307 28.1423 20.7726 -1.79307
358 1 29.1153 22.4283 -0.18468 29.1153 22.4283 -0.18468
359 2 31.0317 22.4365 1.42888 31.0317 22.4365 1.42888
360 2 31.0019 22.4202 -1.83303 31.0019 22.4202 -1.83303
361 1 31.9675 20.7818 -0.202298 31.9675 20.7818 -0.202298
362 2 33.871 20.7931 1.42681 33.871 20.7931 1.42681
363 2 33.867 20.7702 -1.83527 33.867 20.7702 -1.83527
364 1 34.82 22.428 -0.216962 34.82 22.428 -0.216962
365 2 36.7249 22.4372 1.41021 36.7249 22.4372 1.41021
366 2 36.7181 22.4174 -1.85195 36.7181 22.4174 -1.85195
367 1 37.672 20.7809 -0.21252 37.672 20.7809 -0.21252
368 2 39.5727 20.7838 1.41984 39.5727 20.7838 1.41984
369 2 39.574 20.7762 -1.84279 39.574 20.7762 -1.84279
370 1 40.5238 22.4257 -0.215327 40.5238 22.4257 -0.215327
371 2 42.3987 22.423 1.38694 42.3987 22.423 1.38694
372 2 42.4065 22.4254 -1.80993 42.4065 22.4254 -1.80993
373 1 43.4432 20.7775 -0.21046 43.4432 20.7775 -0.21046
374 2 -6.69598 20.7795 1.09498 70.9288 20.7795 1.09498
375 2 -5.83043 20.7927 -1.63114 71.7943 20.7927 -1.63114
376 1 -5.10138 22.4317 0.107071 72.5234 22.4317 0.107071
377 2 -3.20096 22.4239 1.72548 74.4238 22.4239 1.72548
378 2 -3.24016 22.4396 -1.55473 74.3846 22.4396 -1.55473
379 1 -2.26539 24.0786 0.0848834 -2.26539 24.0786 0.0848834
380 2 -0.339767 24.0786 1.68778 -0.339767 24.0786 1.68778
381 2 -0.388427 24.0794 -1.57393 -0.388427 24.0794 -1.57393
382 1 0.586844 25.7256 0.0433158 0.586844 25.7256 0.0433158
383 2 2.50839 25.7358 1.65102 2.50839 25.7358 1.65102
384 2 2.46793 25.7157 -1.61079 2.46793 25.7157 -1.61079
385 1 3.43857 24.0789 0.0188004 3.43857 24.0789 0.0188004
386 2 5.36016 24.0743 1.62636 5.36016 24.0743 1.62636
387 2 5.31967 24.0834 -1.63552 5.31967 24.0834 -1.63552
388 1 6.29113 25.7251 -0.0118295 6.29113 25.7251 -0.0118295
389 2 8.20604 25.7249 1.60372 8.20604 25.7249 1.60372
390 2 8.17918 25.725 -1.65835 8.17918 25.725 -1.65835
391 1 9.14429 24.079 -0.0353154 9.14429 24.079 -0.0353154
392 2 11.0545 24.0761 1.58606 11.0545 24.0761 1.58606
393 2 11.0378 24.0806 -1.67603 11.0378 24.0806 -1.67603
394 1 11.9973 25.7241 -0.0476857 11.9973 25.7241 -0.0476857
395 2 13.9017 25.7184 1.58037 13.9017 25.7184 1.58037
396 2 13.8965 25.7273 -1.68174 13.8965 25.7273 -1.68174
397 1 14.851 24.0769 -0.0566752 14.851 24.0769 -0.0566752
398 2 16.7543 24.0769 1.57277 16.7543 24.0769 1.57277
399 2 16.7515 24.0763 -1.68933 16.7515 24.0763 -1.68933
400 1 17.7043 25.7226 -0.059388 17.7043 25.7226 -0.059388
401 2 19.6189 25.7247 1.55648 19.6189 25.7247 1.55648
402 2 19.5933 25.721 -1.70557 19.5933 25.721 -1.70557
403 1 20.5578 24.0769 -0.0802538 20.5578 24.0769 -0.0802538
404 2 22.4744 24.0837 1.53309 22.4744 24.0837 1.53309
405 2 22.4446 24.0691 -1.7289 22.4446 24.0691 -1.7289
406 1 23.4108 25.7221 -0.114359 23.4108 25.7221 -0.114359
407 2 25.3346 25.7229 1.49006 25.3346 25.7229 1.49006
408 2 25.2901 25.7202 -1.77178 25.2901 25.7202 -1.77178
409 1 26.2632 24.0751 -0.152567 26.2632 24.0751 -0.152567
410 2 28.1877 24.0831 1.45123 28.1877 24.0831 1.45123
411 2 28.1415 24.0667 -1.81048 28.1415 24.0667 -1.81048
412 1 29.1155 25.7215 -0.201481 29.1155 25.7215 -0.201481
413 2 31.0275 25.7222 1.41729 31.0275 25.7222 1.41729
414 2 31.0066 25.7211 -1.84473 31.0066 25.7211 -1.84473
415 1 31.9678 24.0749 -0.219192 31.9678 24.0749 -0.219192
416 2 33.8733 24.0835 1.40746 33.8733 24.0835 1.40746
417 2 33.8655 24.0657 -1.85458 33.8655 24.0657 -1.85458
418 1 34.8206 25.7208 -0.234724 34.8206 25.7208 -0.234724
419 2 36.7221 25.721 1.39657 36.7221 25.721 1.39657
420 2 36.7223 25.7188 -1.86561 36.7223 25.7188 -1.86561
421 1 37.6726 24.0733 -0.233017 37.6726 24.0733 -0.233017
422 2 39.5653 24.0744 1.40874 39.5653 24.0744 1.40874
423 2 39.5829 24.0701 -1.85381 39.5829 24.0701 -1.85381
424 1 40.5246 25.7181 -0.219335 40.5246 25.7181 -0.219335
425 2 42.4009 25.722 1.38238 42.4009 25.722 1.38238
426 2 42.4061 25.7115 -1.81445 42.4061 25.7115 -1.81445
427 1 43.4443 24.0702 -0.208496 43.4443 24.0702 -0.208496
428 2 -6.69172 24.0776 1.11139 70.933 24.0776 1.11139
429 2 -5.83252 24.0813 -1.61949 71.7922 24.0813 -1.61949
430 1 -5.09987 25.7253 0.113265 72.5249 25.7253 0.113265
431 2 -3.19371 25.7372 1.72512 74.431 25.7372 1.72512
432 2 -3.24463 25.714 -1.55505 74.3801 25.714 -1.55505
433 1 -2.26481 27.3721 0.061392 -2.26481 27.3721 0.061392
434 2 -0.338696 27.3968 1.6633 -0.338696 27.3968 1.6633
435 2 -0.388521 27.3476 -1.5981 -0.388521 27.3476 -1.5981
436 1 0.587202 29.0182 -0.00683795 0.587202 29.0182 -0.00683795
437 2 2.4994 29.041 1.61186 2.4994 29.041 1.61186
438 2 2.47784 28.996 -1.64995 2.47784 28.996 -1.64995
439 1 3.43921 27.372 -0.00211547 3.43921 27.372 -0.00211547
440 2 5.35198 27.3815 1.61571 5.35198 27.3815 1.61571
441 2 5.3291 27.3619 -1.64635 5.3291 27.3619 -1.64635
442 1 6.29155 29.0178 -0.0321691 6.29155 29.0178 -0.0321691
443 2 8.19611 29.0198 1.59515 8.19611 29.0198 1.59515
444 2 8.18959 29.0146 -1.6671 8.18959 29.0146 -1.6671
445 1 9.14375 27.3709 -0.0350847 9.14375 27.3709 -0.0350847
446 2 11.0508 27.3668 1.58978 11.0508 27.3668 1.58978
447 2 11.0399 27.3733 -1.67236 11.0399 27.3733 -1.67236
448 1 11.9969 29.0158 -0.0409786 11.9969 29.0158 -0.0409786
449 2 13.9035 29.0167 1.58436 13.9035 29.0167 1.58436
450 2 13.8938 29.0124 -1.67774 13.8938 29.0124 -1.67774
451 1 14.8506 27.3687 -0.0475507 14.8506 27.3687 -0.0475507
452 2 16.7599 27.3697 1.57484 16.7599 27.3697 1.57484
453 2 16.745 27.367 -1.68725 16.745 27.367 -1.68725
454 1 17.7039 29.0143 -0.0618894 17.7039 29.0143 -0.0618894
455 2 19.6198 29.0171 1.55256 19.6198 29.0171 1.55256
456 2 19.5917 29.0116 -1.70949 19.5917 29.0116 -1.70949
457 1 20.5575 27.3686 -0.0839954 20.5575 27.3686 -0.0839954
458 2 22.476 27.3672 1.52742 22.476 27.3672 1.52742
459 2 22.4426 27.369 -1.73459 22.4426 27.369 -1.73459
460 1 23.4106 29.0139 -0.112574 23.4106 29.0139 -0.112574
461 2 25.3313 29.0046 1.49598 25.3313 29.0046 1.49598
462 2 25.2932 29.0231 -1.76591 25.2932 29.0231 -1.76591
463 1 26.2634 27.3678 -0.155594 26.2634 27.3678 -0.155594
464 2 28.1861 27.3601 1.45003 28.1861 27.3601 1.45003
465 2 28.1433 27.3758 -1.8118 28.1433 27.3758 -1.8118
466 1 29.1155 29.0144 -0.185357 29.1155 29.0144 -0.185357
467 2 31.03 29.0023 1.4306 31.03 29.0023 1.4306
468 2 31.0039 29.0265 -1.83139 31.0039 29.0265 -1.83139
469 1 31.968 27.368 -0.220404 31.968 27.368 -0.220404
470 2 33.8756 27.3636 1.40374 33.8756 27.3636 1.40374
471 2 33.8638 27.3712 -1.85837 33.8638 27.3712 -1.85837
472 1 34.8206 29.0135 -0.226718 34.8206 29.0135 -0.226718
473 2 36.7245 29.0079 1.40165 36.7245 29.0079 1.40165
474 2 36.7198 29.0168 -1.86052 36.7198 29.0168 -1.86052
475 1 37.6732 27.3659 -0.235451 37.6732 27.3659 -0.235451
476 2 39.57 27.3723 1.40154 39.57 27.3723 1.40154
477 2 39.5797 27.3572 -1.86095 39.5797 27.3572 -1.86095
478 1 40.5251 29.0109 -0.234431 40.5251 29.0109 -0.234431
479 2 42.3972 29.0103 1.37229 42.3972 29.0103 1.37229
480 2 42.4109 29.0096 -1.82454 42.4109 29.0096 -1.82454
481 1 43.4449 27.3632 -0.220344 43.4449 27.3632 -0.220344
482 2 -6.68194 27.3839 1.10926 70.9428 27.3839 1.10926
483 2 -5.84104 27.3525 -1.62957 71.7837 27.3525 -1.62957
484 1 -5.09909 29.0189 0.0771637 72.5257 29.0189 0.0771637
485 2 -3.19182 29.0468 1.68607 74.4329 29.0468 1.68607
486 2 -3.2476 28.9902 -1.59372 74.3772 28.9902 -1.59372
487 1 -2.26485 30.6645 0.00449737 -2.26485 30.6645 0.00449737
488 2 -0.336098 30.7001 1.60296 -0.336098 30.7001 1.60296
489 2 -0.391246 30.6285 -1.65789 -0.391246 30.6285 -1.65789
490 1 0.587488 32.31 -0.0800815 0.587488 32.31 -0.0800815
491 2 2.48919 32.3411 1.55111 2.48919 32.3411 1.55111
492 2 2.48873 32.2799 -1.71052 2.48873 32.2799 -1.71052
493 1 3.43962 30.6644 -0.0483727 3.43962 30.6644 -0.0483727
494 2 5.33978 30.6776 1.58436 5.33978 30.6776 1.58436
495 2 5.34217 30.6507 -1.67778 5.34217 30.6507 -1.67778
496 1 6.29234 32.31 -0.0596788 6.29234 32.31 -0.0596788
497 2 8.18806 32.3181 1.57832 8.18806 32.3181 1.57832
498 2 8.1994 32.3005 -1.68383 8.1994 32.3005 -1.68383
499 1 9.1443 30.663 -0.0404879 9.1443 30.663 -0.0404879
500 2 11.046 30.6623 1.5903 11.046 30.6623 1.5903
501 2 11.0455 30.6619 -1.67188 11.0455 30.6619 -1.67188
502 1 11.9975 32.3079 -0.0409253 11.9975 32.3079 -0.0409253
503 2 13.9082 32.3123 1.57947 13.9082 32.3123 1.57947
504 2 13.89 32.3014 -1.68256 13.89 32.3014 -1.68256
505 1 14.8502 30.6605 -0.0514525 14.8502 30.6605 -0.0514525
506 2 16.7596 30.6631 1.57064 16.7596 30.6631 1.57064
507 2 16.7444 30.6569 -1.69142 16.7444 30.6569 -1.69142
508 1 17.7034 32.3061 -0.0677917 17.7034 32.3061 -0.0677917
509 2 19.6214 32.3123 1.54439 19.6214 32.3123 1.54439
510 2 19.589 32.2994 -1.71754 19.589 32.2994 -1.71754
511 1 20.5571 30.6601 -0.0893654 20.5571 30.6601 -0.0893654
512 2 22.4714 30.6581 1.5272 22.4714 30.6581 1.5272
513 2 22.4464 30.661 -1.73487 22.4464 30.661 -1.73487
514 1 23.4098 32.3057 -0.109605 23.4098 32.3057 -0.109605
515 2 25.3242 32.3005 1.50687 25.3242 32.3005 1.50687
516 2 25.2988 32.3112 -1.7552 25.2988 32.3112 -1.7552
517 1 26.2631 30.6601 -0.136831 26.2631 30.6601 -0.136831
518 2 28.1837 30.6458 1.47171 28.1837 30.6458 1.47171
519 2 28.1454 30.6753 -1.79012 28.1454 30.6753 -1.79012
520 1 29.1156 32.3066 -0.155477 29.1156 32.3066 -0.155477
521 2 31.0309 32.2917 1.45917 31.0309 32.2917 1.45917
522 2 31.003 32.3215 -1.80282 31.003 32.3215 -1.80282
523 1 31.9679 30.6604 -0.195466 31.9679 30.6604 -0.195466
524 2 33.8833 30.6534 1.41914 33.8833 30.6534 1.41914
525 2 33.8553 30.6661 -1.84293 33.8553 30.6661 -1.84293
526 1 34.8202 32.3057 -0.213394 34.8202 32.3057 -0.213394
527 2 36.7276 32.3022 1.4106 36.7276 32.3022 1.4106
528 2 36.7156 32.3069 -1.85159 36.7156 32.3069 -1.85159
529 1 37.673 30.6583 -0.226468 37.673 30.6583 -0.226468
530 2 39.5769 30.6532 1.40225 39.5769 30.6532 1.40225
531 2 39.5725 30.6615 -1.86024 39.5725 30.6615 -1.86024
532 1 40.5246 32.3037 -0.22624 40.5246 32.3037 -0.22624
533 2 42.3964 32.295 1.38071 42.3964 32.295 1.38071
534 2 42.4108 32.312 -1.81605 42.4108 32.312 -1.81605