ITEM: TIMESTEP
2701000
ITEM: NUMBER OF ATOMS
810
ITEM: BOX BOUNDS pp pp pp
-6.0639510831875310e+00 5.9081556083186598e+01
8.1394622342039402e-01 5.0202268776579182e+01
-1.0000000000000000e+01 1.0000000000000000e+01
ITEM: ATOMS id type x y z xu yu zu
1 1 -5.75984 1.02738 -0.210094 -5.75984 1.02738 -0.210094
2 2 -3.32539 1.02801 1.39722 -3.32539 1.02801 1.39722
3 2 -3.32074 1.02547 -1.81138 -3.32074 1.02547 -1.81138
4 1 -2.14218 2.67325 -0.206588 -2.14218 2.67325 -0.206588
5 2 0.290596 2.67437 1.40354 0.290596 2.67437 1.40354
6 2 0.298759 2.671 -1.80507 0.298759 2.671 -1.80507
7 1 1.47685 1.02643 -0.195945 1.47685 1.02643 -0.195945
8 2 3.90722 1.02998 1.41795 3.90722 1.02998 1.41795
9 2 3.92027 1.02207 -1.79064 3.92027 1.02207 -1.79064
10 1 5.09467 2.67256 -0.185608 5.09467 2.67256 -0.185608
11 2 7.52557 2.67832 1.42768 7.52557 2.67832 1.42768
12 2 7.53761 2.66645 -1.78089 7.53761 2.66645 -1.78089
13 1 8.7137 1.02626 -0.166141 8.7137 1.02626 -0.166141
14 2 11.1443 1.03449 1.4476 11.1443 1.03449 1.4476
15 2 11.1566 1.01809 -1.76095 11.1566 1.01809 -1.76095
16 1 12.3314 2.67287 -0.160598 12.3314 2.67287 -0.160598
17 2 14.7635 2.68259 1.45078 14.7635 2.68259 1.45078
18 2 14.7729 2.66358 -1.75777 14.7729 2.66358 -1.75777
19 1 15.9503 1.02709 -0.140396 15.9503 1.02709 -0.140396
20 2 18.3841 1.03641 1.46929 18.3841 1.03641 1.46929
21 2 18.391 1.01822 -1.73928 18.391 1.01822 -1.73928
22 1 19.5686 2.67384 -0.14195 19.5686 2.67384 -0.14195
23 2 22.0034 2.68206 1.46618 22.0034 2.68206 1.46618
24 2 22.0084 2.66606 -1.74245 22.0084 2.66606 -1.74245
25 1 23.1882 1.02815 -0.128155 23.1882 1.02815 -0.128155
26 2 25.6251 1.03641 1.47761 25.6251 1.03641 1.47761
27 2 25.6268 1.02045 -1.73103 25.6268 1.02045 -1.73103
28 1 26.8071 2.67491 -0.13433 26.8071 2.67491 -0.13433
29 2 29.2451 2.68116 1.47054 29.2451 2.68116 1.47054
30 2 29.2457 2.66923 -1.73814 29.2457 2.66923 -1.73814
31 1 30.4277 1.0293 -0.127517 30.4277 1.0293 -0.127517
32 2 32.8681 1.03403 1.47366 32.8681 1.03403 1.47366
33 2 32.8637 1.02498 -1.735 32.8637 1.02498 -1.735
34 1 34.047 2.67594 -0.137071 34.047 2.67594 -0.137071
35 2 36.4884 2.67859 1.46283 36.4884 2.67859 1.46283
36 2 36.4824 2.67348 -1.74585 36.4824 2.67348 -1.74585
37 1 37.6676 1.03004 -0.14121 37.6676 1.03004 -0.14121
38 2 40.1116 1.03126 1.45461 40.1116 1.03126 1.45461
39 2 40.1001 1.02873 -1.75408 40.1001 1.02873 -1.75408
40 1 41.2871 2.67634 -0.155362 41.2871 2.67634 -0.155362
41 2 43.7311 2.67557 1.44006 43.7311 2.67557 1.44006
42 2 43.7195 2.6766 -1.76862 43.7195 2.6766 -1.76862
43 1 44.9074 1.02994 -0.16919 44.9074 1.02994 -0.16919
44 2 47.3526 1.02978 1.42477 47.3526 1.02978 1.42477
45 2 47.3391 1.02907 -1.7839 47.3391 1.02907 -1.7839
46 1 48.5271 2.67571 -0.184887 48.5271 2.67571 -0.184887
47 2 50.9707 2.67263 1.41103 50.9707 2.67263 1.41103
48 2 50.9603 2.67752 -1.79761 50.9603 2.67752 -1.79761
49 1 52.1476 1.02875 -0.199566 52.1476 1.02875 -0.199566
50 2 54.5889 1.02734 1.39888 54.5889 1.02734 1.39888
51 2 54.5818 1.02862 -1.80975 54.5818 1.02862 -1.80975
52 1 55.7664 2.67438 -0.207252 55.7664 2.67438 -0.207252
53 2 58.2043 2.67306 1.39535 58.2043 2.67306 1.39535
54 2 58.2028 2.67433 -1.81327 58.2028 2.67433 -1.81327
55 1 -5.76104 4.32017 -0.208703 -5.76104 4.32017 -0.208703
56 2 -3.32559 4.31924 1.39702 -3.32559 4.31924 1.39702
57 2 -3.32302 4.31989 -1.8116 -3.32302 4.31989 -1.8116
58 1 -2.14328 5.966 -0.205901 -2.14328 5.966 -0.205901
59 2 0.291038 5.96646 1.40191 0.291038 5.96646 1.40191
60 2 0.296115 5.96444 -1.80673 0.296115 5.96444 -1.80673
61 1 1.47563 4.31917 -0.199445 1.47563 4.31917 -0.199445
62 2 3.90796 4.32232 1.41166 3.90796 4.32232 1.41166
63 2 3.91717 4.31522 -1.79695 3.91717 4.31522 -1.79695
64 1 5.09364 5.96523 -0.19289 5.09364 5.96523 -0.19289
65 2 7.52701 5.97132 1.41693 7.52701 5.97132 1.41693
66 2 7.53432 5.95885 -1.79166 7.53432 5.95885 -1.79166
67 1 8.71262 4.31891 -0.178326 8.71262 4.31891 -0.178326
68 2 11.145 4.32665 1.43263 11.145 4.32665 1.43263
69 2 11.1538 4.31127 -1.77595 11.1538 4.31127 -1.77595
70 1 12.3306 5.96544 -0.176333 12.3306 5.96544 -0.176333
71 2 14.7639 5.97398 1.43334 14.7639 5.97398 1.43334
72 2 14.7709 5.95738 -1.77523 14.7709 5.95738 -1.77523
73 1 15.9493 4.31959 -0.159817 15.9493 4.31959 -0.159817
74 2 18.3823 4.32822 1.45073 18.3823 4.32822 1.45073
75 2 18.3906 4.31142 -1.75785 18.3906 4.31142 -1.75785
76 1 19.5676 5.96629 -0.159186 19.5676 5.96629 -0.159186
77 2 22.0019 5.97391 1.44993 22.0019 5.97391 1.44993
78 2 22.0079 5.95919 -1.7587 22.0079 5.95919 -1.7587
79 1 23.187 4.32055 -0.144621 23.187 4.32055 -0.144621
80 2 25.6231 4.32714 1.46235 25.6231 4.32714 1.46235
81 2 25.6265 4.31453 -1.74629 25.6265 4.31453 -1.74629
82 1 26.806 5.96731 -0.147259 26.806 5.96731 -0.147259
83 2 29.2433 5.97258 1.45879 29.2433 5.97258 1.45879
84 2 29.2453 5.96268 -1.74987 29.2453 5.96268 -1.74987
85 1 30.4265 4.32167 -0.139766 30.4265 4.32167 -0.139766
86 2 32.8651 4.32533 1.46408 32.8651 4.32533 1.46408
87 2 32.8645 4.31843 -1.74458 32.8645 4.31843 -1.74458
88 1 34.046 5.96834 -0.144172 34.046 5.96834 -0.144172
89 2 36.4858 5.96892 1.45843 36.4858 5.96892 1.45843
90 2 36.4831 5.96803 -1.75025 36.4831 5.96803 -1.75025
91 1 37.6666 4.32244 -0.146466 37.6666 4.32244 -0.146466
92 2 40.1085 4.32167 1.45249 40.1085 4.32167 1.45249
93 2 40.1014 4.32317 -1.75621 40.1014 4.32317 -1.75621
94 1 41.2862 5.96879 -0.153879 41.2862 5.96879 -0.153879
95 2 43.7298 5.96595 1.44282 43.7298 5.96595 1.44282
96 2 43.7193 5.97124 -1.76585 43.7193 5.97124 -1.76585
97 1 44.9066 4.3224 -0.168087 44.9066 4.3224 -0.168087
98 2 47.3509 4.31857 1.42722 47.3509 4.31857 1.42722
99 2 47.3392 4.32536 -1.78144 47.3392 4.32536 -1.78144
100 1 48.5264 5.96829 -0.177932 48.5264 5.96829 -0.177932
101 2 50.9698 5.96271 1.41853 50.9698 5.96271 1.41853
102 2 50.9595 5.97277 -1.79009 50.9595 5.97277 -1.79009
103 1 52.1467 4.32142 -0.194629 52.1467 4.32142 -0.194629
104 2 54.588 4.31666 1.40376 54.588 4.31666 1.40376
105 2 54.5807 4.32475 -1.80485 54.5807 4.32475 -1.80485
106 1 55.7654 5.96713 -0.199022 55.7654 5.96713 -0.199022
107 2 58.2052 5.9633 1.40079 58.2052 5.9633 1.40079
108 2 58.1996 5.96971 -1.80781 58.1996 5.96971 -1.80781
109 1 -5.76202 7.61292 -0.202173 -5.76202 7.61292 -0.202173
110 2 -3.32425 7.61111 1.4003 -3.32425 7.61111 1.4003
111 2 -3.32624 7.61359 -1.80832 -3.32624 7.61359 -1.80832
112 1 -2.14397 9.25868 -0.203315 -2.14397 9.25868 -0.203315
113 2 0.292464 9.25936 1.40125 0.292464 9.25936 1.40125
114 2 0.293351 9.25703 -1.80739 0.293351 9.25703 -1.80739
115 1 1.47472 7.61184 -0.20157 1.47472 7.61184 -0.20157
116 2 3.90947 7.61517 1.40601 3.90947 7.61517 1.40601
117 2 3.91395 7.60782 -1.80262 3.91395 7.60782 -1.80262
118 1 5.09311 9.25783 -0.200441 5.09311 9.25783 -0.200441
119 2 7.52872 9.2637 1.40606 7.52872 9.2637 1.40606
120 2 7.53192 9.25187 -1.80254 7.53192 9.25187 -1.80254
121 1 8.71196 7.6115 -0.191043 8.71196 7.6115 -0.191043
122 2 11.146 7.61984 1.41745 11.146 7.61984 1.41745
123 2 11.1516 7.6034 -1.79113 11.1516 7.6034 -1.79113
124 1 12.3303 9.25799 -0.193149 12.3303 9.25799 -0.193149
125 2 14.7635 9.26661 1.41627 14.7635 9.26661 1.41627
126 2 14.7708 9.25 -1.79229 14.7708 9.25 -1.79229
127 1 15.9487 7.6121 -0.17685 15.9487 7.6121 -0.17685
128 2 18.3821 7.62148 1.43307 18.3821 7.62148 1.43307
129 2 18.3895 7.60328 -1.77549 18.3895 7.60328 -1.77549
130 1 19.5673 9.25876 -0.177794 19.5673 9.25876 -0.177794
131 2 22 9.26718 1.43305 22 9.26718 1.43305
132 2 22.009 9.25104 -1.77555 22.009 9.25104 -1.77555
133 1 23.1862 7.61299 -0.159809 23.1862 7.61299 -0.159809
134 2 25.6217 7.62039 1.44819 25.6217 7.62039 1.44819
135 2 25.6262 7.6063 -1.76043 25.6262 7.6063 -1.76043
136 1 26.8055 9.25977 -0.161688 26.8055 9.25977 -0.161688
137 2 29.2407 9.26513 1.44716 29.2407 9.26513 1.44716
138 2 29.2468 9.25524 -1.76149 29.2468 9.25524 -1.76149
139 1 30.4257 7.61409 -0.149927 30.4257 7.61409 -0.149927
140 2 32.8629 7.61765 1.45611 32.8629 7.61765 1.45611
141 2 32.8649 7.61109 -1.75253 32.8649 7.61109 -1.75253
142 1 34.0453 9.26082 -0.150906 34.0453 9.26082 -0.150906
143 2 36.4827 9.26218 1.45509 36.4827 9.26218 1.45509
144 2 36.4848 9.25992 -1.75357 36.4848 9.25992 -1.75357
145 1 37.6657 7.61491 -0.147504 37.6657 7.61491 -0.147504
146 2 40.107 7.61453 1.45304 40.107 7.61453 1.45304
147 2 40.1014 7.61537 -1.75564 40.1014 7.61537 -1.75564
148 1 41.2857 9.26129 -0.152981 41.2857 9.26129 -0.152981
149 2 43.7276 9.25944 1.44611 43.7276 9.25944 1.44611
150 2 43.7205 9.26296 -1.76255 43.7205 9.26296 -1.76255
151 1 44.9059 7.61492 -0.162685 44.9059 7.61492 -0.162685
152 2 47.3498 7.6112 1.43374 47.3498 7.6112 1.43374
153 2 47.339 7.61799 -1.7749 47.339 7.61799 -1.7749
154 1 48.5258 9.26095 -0.171016 48.5258 9.26095 -0.171016
155 2 50.968 9.25663 1.42693 50.968 9.25663 1.42693
156 2 50.9598 9.26438 -1.78168 50.9598 9.26438 -1.78168
157 1 52.1458 7.61413 -0.184418 52.1458 7.61413 -0.184418
158 2 54.5879 7.60924 1.41294 54.5879 7.60924 1.41294
159 2 54.5788 7.61774 -1.79566 54.5788 7.61774 -1.79566
160 1 55.7646 9.25989 -0.190321 55.7646 9.25989 -0.190321
161 2 58.205 9.25531 1.40863 58.205 9.25531 1.40863
162 2 58.1983 9.26335 -1.79996 58.1983 9.26335 -1.79996
163 1 -5.76243 10.9056 -0.193994 -5.76243 10.9056 -0.193994
164 2 -3.32296 10.9021 1.40597 -3.32296 10.9021 1.40597
165 2 -3.32829 10.9081 -1.80265 -3.32829 10.9081 -1.80265
166 1 -2.14396 12.5513 -0.197188 -2.14396 12.5513 -0.197188
167 2 0.295609 12.5502 1.40302 0.295609 12.5502 1.40302
168 2 0.290417 12.5516 -1.80563 0.290417 12.5516 -1.80563
169 1 1.47442 10.9045 -0.203878 1.47442 10.9045 -0.203878
170 2 3.91121 10.9072 1.40062 3.91121 10.9072 1.40062
171 2 3.91196 10.9012 -1.80802 3.91196 10.9012 -1.80802
172 1 5.09349 12.5504 -0.206472 5.09349 12.5504 -0.206472
173 2 7.53107 12.5545 1.39719 7.53107 12.5545 1.39719
174 2 7.53057 12.5464 -1.81144 7.53057 12.5464 -1.81144
175 1 8.71204 10.904 -0.203094 8.71204 10.904 -0.203094
176 2 11.1471 10.9102 1.4037 11.1471 10.9102 1.4037
177 2 11.1508 10.8984 -1.80491 11.1508 10.8984 -1.80491
178 1 12.3309 12.5505 -0.205257 12.3309 12.5505 -0.205257
179 2 14.765 12.5567 1.40264 14.765 12.5567 1.40264
180 2 14.7701 12.5452 -1.80596 14.7701 12.5452 -1.80596
181 1 15.9488 10.9046 -0.193845 15.9488 10.9046 -0.193845
182 2 18.3815 10.9115 1.41667 18.3815 10.9115 1.41667
183 2 18.3902 10.8985 -1.79191 18.3902 10.8985 -1.79191
184 1 19.5677 12.5513 -0.19113 19.5677 12.5513 -0.19113
185 2 22.0006 12.557 1.41956 22.0006 12.557 1.41956
186 2 22.0091 12.5466 -1.78906 22.0091 12.5466 -1.78906
187 1 23.1862 10.9055 -0.176306 23.1862 10.9055 -0.176306
188 2 25.6196 10.911 1.43429 25.6196 10.911 1.43429
189 2 25.6281 10.9009 -1.77432 25.6281 10.9009 -1.77432
190 1 26.8057 12.5523 -0.17216 26.8057 12.5523 -0.17216
191 2 29.2396 12.5552 1.4387 29.2396 12.5552 1.4387
192 2 29.2481 12.5506 -1.76994 29.2481 12.5506 -1.76994
193 1 30.4253 10.9066 -0.160055 30.4253 10.9066 -0.160055
194 2 32.8601 10.9085 1.44945 32.8601 10.9085 1.44945
195 2 32.8669 10.9055 -1.75918 32.8669 10.9055 -1.75918
196 1 34.0453 12.5534 -0.15401 34.0453 12.5534 -0.15401
197 2 36.4825 12.5549 1.45257 36.4825 12.5549 1.45257
198 2 36.4849 12.5525 -1.75609 36.4849 12.5525 -1.75609
199 1 37.6653 10.9074 -0.149773 37.6653 10.9074 -0.149773
200 2 40.1049 10.9064 1.45331 40.1049 10.9064 1.45331
201 2 40.103 10.9087 -1.75537 40.103 10.9087 -1.75537
202 1 41.2857 12.5538 -0.150753 41.2857 12.5538 -0.150753
203 2 43.726 12.5498 1.45085 43.726 12.5498 1.45085
204 2 43.722 12.5579 -1.75781 43.722 12.5579 -1.75781
205 1 44.9056 10.9075 -0.159079 44.9056 10.9075 -0.159079
206 2 47.3472 10.9028 1.44028 47.3472 10.9028 1.44028
207 2 47.3408 10.9118 -1.76835 47.3408 10.9118 -1.76835
208 1 48.5256 12.5536 -0.161858 48.5256 12.5536 -0.161858
209 2 50.9678 12.5481 1.43631 50.9678 12.5481 1.43631
210 2 50.9595 12.5586 -1.77229 50.9595 12.5586 -1.77229
211 1 52.1453 10.9069 -0.176402 52.1453 10.9069 -0.176402
212 2 54.5866 10.9012 1.422 54.5866 10.9012 1.422
213 2 54.5791 10.9115 -1.78659 54.5791 10.9115 -1.78659
214 1 55.7644 12.5526 -0.179845 55.7644 12.5526 -0.179845
215 2 58.2058 12.5475 1.41808 58.2058 12.5475 1.41808
216 2 58.1974 12.5567 -1.79053 58.1974 12.5567 -1.79053
217 1 -5.76211 14.1983 -0.184618 -5.76211 14.1983 -0.184618
218 2 -3.32099 14.1948 1.41328 -3.32099 14.1948 1.41328
219 2 -3.3295 14.2008 -1.79535 -3.3295 14.2008 -1.79535
220 1 -2.14325 15.8438 -0.191133 -2.14325 15.8438 -0.191133
221 2 0.298757 15.8431 1.40578 0.298757 15.8431 1.40578
222 2 0.289068 15.8438 -1.80289 0.289068 15.8438 -1.80289
223 1 1.47498 14.197 -0.202467 1.47498 14.197 -0.202467
224 2 3.91524 14.1995 1.39728 3.91524 14.1995 1.39728
225 2 3.90945 14.1942 -1.81138 3.90945 14.1942 -1.81138
226 1 5.09458 15.8428 -0.211727 5.09458 15.8428 -0.211727
227 2 7.53293 15.846 1.39053 7.53293 15.846 1.39053
228 2 7.531 15.8401 -1.81812 7.531 15.8401 -1.81812
229 1 8.71292 14.1966 -0.211456 8.71292 14.1966 -0.211456
230 2 11.1488 14.2011 1.39398 11.1488 14.2011 1.39398
231 2 11.1508 14.1927 -1.81465 11.1508 14.1927 -1.81465
232 1 12.332 15.8431 -0.213919 12.332 15.8431 -0.213919
233 2 14.7662 15.8466 1.39371 14.7662 15.8466 1.39371
234 2 14.7712 15.8406 -1.81491 14.7712 15.8406 -1.81491
235 1 15.9496 14.1972 -0.205615 15.9496 14.1972 -0.205615
236 2 18.3825 14.2031 1.40458 18.3825 14.2031 1.40458
237 2 18.3907 14.1922 -1.80401 18.3907 14.1922 -1.80401
238 1 19.5688 15.8439 -0.202249 19.5688 15.8439 -0.202249
239 2 22.0007 15.8485 1.40945 22.0007 15.8485 1.40945
240 2 22.0111 15.8404 -1.79917 22.0111 15.8404 -1.79917
241 1 23.1869 14.198 -0.186962 23.1869 14.198 -0.186962
242 2 25.6197 14.2027 1.42453 25.6197 14.2027 1.42453
243 2 25.6292 14.1947 -1.78408 25.6292 14.1947 -1.78408
244 1 26.8066 15.8449 -0.180387 26.8066 15.8449 -0.180387
245 2 29.2386 15.8477 1.43288 29.2386 15.8477 1.43288
246 2 29.2506 15.8435 -1.77575 29.2506 15.8435 -1.77575
247 1 30.4258 14.1992 -0.164969 30.4258 14.1992 -0.164969
248 2 32.8601 14.2021 1.44524 32.8601 14.2021 1.44524
249 2 32.8676 14.1973 -1.76338 32.8676 14.1973 -1.76338
250 1 34.0459 15.846 -0.158869 34.0459 15.846 -0.158869
251 2 36.482 15.8476 1.44919 36.482 15.8476 1.44919
252 2 36.4866 15.8451 -1.75946 36.4866 15.8451 -1.75946
253 1 37.6656 14.2 -0.152118 37.6656 14.2 -0.152118
254 2 40.1036 14.1999 1.45345 40.1036 14.1999 1.45345
255 2 40.1047 14.2004 -1.75523 40.1047 14.2004 -1.75523
256 1 41.2861 15.8464 -0.150227 41.2861 15.8464 -0.150227
257 2 43.7239 15.8449 1.45486 43.7239 15.8449 1.45486
258 2 43.7245 15.8481 -1.7538 43.7245 15.8481 -1.7538
259 1 44.9057 14.2001 -0.150939 44.9057 14.2001 -0.150939
260 2 47.3473 14.196 1.44903 47.3473 14.196 1.44903
261 2 47.3408 14.2042 -1.75962 47.3408 14.2042 -1.75962
262 1 48.5258 15.8463 -0.15351 48.5258 15.8463 -0.15351
263 2 50.968 15.8428 1.44499 50.968 15.8428 1.44499
264 2 50.9599 15.8493 -1.76364 50.9599 15.8493 -1.76364
265 1 52.1454 14.1996 -0.165668 52.1454 14.1996 -0.165668
266 2 54.5877 14.1953 1.43178 54.5877 14.1953 1.43178
267 2 54.5784 14.203 -1.77683 54.5784 14.203 -1.77683
268 1 55.7649 15.8453 -0.171979 55.7649 15.8453 -0.171979
269 2 58.2064 15.8418 1.42588 58.2064 15.8418 1.42588
270 2 58.1979 15.8478 -1.78276 58.1979 15.8478 -1.78276
271 1 -5.76133 17.4908 -0.17854 -5.76133 17.4908 -0.17854
272 2 -3.31984 17.4881 1.41887 -3.31984 17.4881 1.41887
273 2 -3.32881 17.4926 -1.78978 -3.32881 17.4926 -1.78978
274 1 -2.14213 19.1363 -0.186572 -2.14213 19.1363 -0.186572
275 2 0.301246 19.1344 1.40856 0.301246 19.1344 1.40856
276 2 0.2893 19.1375 -1.80011 0.2893 19.1375 -1.80011
277 1 1.47616 17.4894 -0.201767 1.47616 17.4894 -0.201767
278 2 3.9182 17.4898 1.39532 3.9182 17.4898 1.39532
279 2 3.90913 17.4888 -1.81334 3.90913 17.4888 -1.81334
280 1 5.09609 19.1353 -0.212752 5.09609 19.1353 -0.212752
281 2 7.53518 19.1353 1.38827 7.53518 19.1353 1.38827
282 2 7.53178 19.1357 -1.82038 7.53178 19.1357 -1.82038
283 1 8.71428 17.489 -0.217476 8.71428 17.489 -0.217476
284 2 11.15 17.4911 1.38793 11.15 17.4911 1.38793
285 2 11.1522 17.4879 -1.82072 11.1522 17.4879 -1.82072
286 1 12.3334 19.1356 -0.217228 12.3334 19.1356 -0.217228
287 2 14.7675 19.1361 1.39059 14.7675 19.1361 1.39059
288 2 14.7728 19.1363 -1.81803 14.7728 19.1363 -1.81803
289 1 15.9509 17.4897 -0.211901 15.9509 17.4897 -0.211901
290 2 18.3844 17.4923 1.39742 18.3844 17.4923 1.39742
291 2 18.3915 17.4884 -1.81119 18.3915 17.4884 -1.81119
292 1 19.5704 19.1365 -0.206223 19.5704 19.1365 -0.206223
293 2 22.0023 19.137 1.40545 22.0023 19.137 1.40545
294 2 22.0126 19.1373 -1.80318 22.0126 19.1373 -1.80318
295 1 23.1882 17.4907 -0.195222 23.1882 17.4907 -0.195222
296 2 25.6192 17.4921 1.41844 25.6192 17.4921 1.41844
297 2 25.6321 17.4907 -1.79017 25.6321 17.4907 -1.79017
298 1 26.808 19.1376 -0.182005 26.808 19.1376 -0.182005
299 2 29.2399 19.138 1.43118 29.2399 19.138 1.43118
300 2 29.2518 19.1387 -1.77745 29.2518 19.1387 -1.77745
301 1 30.4268 17.4919 -0.169309 30.4268 17.4919 -0.169309
302 2 32.8606 17.4935 1.44143 32.8606 17.4935 1.44143
303 2 32.869 17.4914 -1.76719 32.869 17.4914 -1.76719
304 1 34.0471 19.1387 -0.160872 34.0471 19.1387 -0.160872
305 2 36.4817 19.1372 1.44888 36.4817 19.1372 1.44888
306 2 36.4889 19.141 -1.75976 36.4889 19.141 -1.75976
307 1 37.6664 17.4926 -0.154752 37.6664 17.4926 -0.154752
308 2 40.1023 17.4919 1.45333 40.1023 17.4919 1.45333
309 2 40.1073 17.4938 -1.75532 40.1073 17.4938 -1.75532
310 1 41.2869 19.1391 -0.148233 41.2869 19.1391 -0.148233
311 2 43.724 19.1377 1.45764 43.724 19.1377 1.45764
312 2 43.7256 19.1407 -1.75102 43.7256 19.1407 -1.75102
313 1 44.9061 17.4928 -0.147703 44.9061 17.4928 -0.147703
314 2 47.3458 17.49 1.45475 47.3458 17.49 1.45475
315 2 47.3429 17.4955 -1.75391 47.3429 17.4955 -1.75391
316 1 48.5263 19.1389 -0.147973 48.5263 19.1389 -0.147973
317 2 50.968 19.1352 1.45148 50.968 19.1352 1.45148
318 2 50.9611 19.1422 -1.75717 50.9611 19.1422 -1.75717
319 1 52.1459 17.4922 -0.15895 52.1459 17.4922 -0.15895
320 2 54.588 17.4886 1.43884 54.588 17.4886 1.43884
321 2 54.5794 17.4951 -1.76979 54.5794 17.4951 -1.76979
322 1 55.7657 19.1379 -0.165292 55.7657 19.1379 -0.165292
323 2 58.2072 19.1338 1.43261 58.2072 19.1338 1.43261
324 2 58.1989 19.141 -1.77604 58.1989 19.141 -1.77604
325 1 -5.76031 20.7834 -0.171159 -5.76031 20.7834 -0.171159
326 2 -3.3174 20.7804 1.42459 -3.3174 20.7804 1.42459
327 2 -3.32876 20.7853 -1.78407 -3.32876 20.7853 -1.78407
328 1 -2.14073 22.4287 -0.181437 -2.14073 22.4287 -0.181437
329 2 0.302906 22.4249 1.41368 0.302906 22.4249 1.41368
330 2 0.290884 22.4318 -1.79499 0.290884 22.4318 -1.79499
331 1 1.47769 20.7818 -0.198592 1.47769 20.7818 -0.198592
332 2 3.92004 20.7788 1.39808 3.92004 20.7788 1.39808
333 2 3.9106 20.7849 -1.81058 3.9106 20.7849 -1.81058
334 1 5.09785 22.4277 -0.206583 5.09785 22.4277 -0.206583
335 2 7.53781 22.424 1.39328 7.53781 22.424 1.39328
336 2 7.53267 22.432 -1.81537 7.53267 22.432 -1.81537
337 1 8.71593 20.7815 -0.216981 8.71593 20.7815 -0.216981
338 2 11.1519 20.7806 1.38797 11.1519 20.7806 1.38797
339 2 11.1536 20.7835 -1.82067 11.1536 20.7835 -1.82067
340 1 12.3352 22.4281 -0.214155 12.3352 22.4281 -0.214155
341 2 14.7692 22.4259 1.39364 14.7692 22.4259 1.39364
342 2 14.7747 22.4317 -1.81498 14.7747 22.4317 -1.81498
343 1 15.9526 20.7823 -0.211712 15.9526 20.7823 -0.211712
344 2 18.3862 20.781 1.3975 18.3862 20.781 1.3975
345 2 18.3931 20.7849 -1.81111 18.3931 20.7849 -1.81111
346 1 19.5722 22.4291 -0.202245 19.5722 22.4291 -0.202245
347 2 22.0039 22.4257 1.40974 22.0039 22.4257 1.40974
348 2 22.0145 22.434 -1.79888 22.0145 22.434 -1.79888
349 1 23.1899 20.7833 -0.194873 23.1899 20.7833 -0.194873
350 2 25.6205 20.7825 1.41922 25.6205 20.7825 1.41922
351 2 25.6338 20.7858 -1.78938 25.6338 20.7858 -1.78938
352 1 26.8096 22.4304 -0.178497 26.8096 22.4304 -0.178497
353 2 29.2422 22.4295 1.43373 29.2422 22.4295 1.43373
354 2 29.2525 22.4328 -1.77489 29.2525 22.4328 -1.77489
355 1 30.4282 20.7846 -0.168559 30.4282 20.7846 -0.168559
356 2 32.8621 20.7835 1.44218 32.8621 20.7835 1.44218
357 2 32.8701 20.7869 -1.76643 32.8701 20.7869 -1.76643
358 1 34.0485 22.4314 -0.157422 34.0485 22.4314 -0.157422
359 2 36.4834 22.4309 1.45199 36.4834 22.4309 1.45199
360 2 36.4898 22.4327 -1.75665 36.4898 22.4327 -1.75665
361 1 37.6676 20.7853 -0.150971 37.6676 20.7853 -0.150971
362 2 40.1039 20.7839 1.45647 40.1039 20.7839 1.45647
363 2 40.1076 20.7872 -1.75218 40.1076 20.7872 -1.75218
364 1 41.2879 22.4317 -0.144877 41.2879 22.4317 -0.144877
365 2 43.7252 22.4309 1.46051 43.7252 22.4309 1.46051
366 2 43.7262 22.4329 -1.74815 43.7262 22.4329 -1.74815
367 1 44.9068 20.7854 -0.144578 44.9068 20.7854 -0.144578
368 2 47.3458 20.7838 1.45876 47.3458 20.7838 1.45876
369 2 47.3441 20.787 -1.74991 47.3441 20.787 -1.74991
370 1 48.527 22.4315 -0.144632 48.527 22.4315 -0.144632
371 2 50.9678 22.4295 1.4562 50.9678 22.4295 1.4562
372 2 50.9627 22.4331 -1.75247 50.9627 22.4331 -1.75247
373 1 52.1465 20.7848 -0.151871 52.1465 20.7848 -0.151871
374 2 54.5889 20.7806 1.44608 54.5889 20.7806 1.44608
375 2 54.5801 20.7882 -1.76257 54.5801 20.7882 -1.76257
376 1 55.7666 22.4304 -0.15765 55.7666 22.4304 -0.15765
377 2 58.2091 22.4276 1.43931 58.2091 22.4276 1.43931
378 2 58.1991 22.4322 -1.76936 58.1991 22.4322 -1.76936
379 1 -5.75918 24.0758 -0.166343 -5.75918 24.0758 -0.166343
380 2 -3.31595 24.073 1.4294 -3.31595 24.073 1.4294
381 2 -3.32735 24.0774 -1.77927 -3.32735 24.0774 -1.77927
382 1 -2.13929 25.7211 -0.176821 -2.13929 25.7211 -0.176821
383 2 0.303171 25.7169 1.42017 0.303171 25.7169 1.42017
384 2 0.293852 25.7246 -1.78851 0.293852 25.7246 -1.78851
385 1 1.47938 24.0742 -0.191529 1.47938 24.0742 -0.191529
386 2 3.92145 24.0694 1.40584 3.92145 24.0694 1.40584
387 2 3.91271 24.079 -1.80283 3.91271 24.079 -1.80283
388 1 5.09955 25.7201 -0.196776 5.09955 25.7201 -0.196776
389 2 7.53896 25.7135 1.40407 7.53896 25.7135 1.40407
390 2 7.53502 25.7273 -1.80457 7.53502 25.7273 -1.80457
391 1 8.71774 24.074 -0.20874 8.71774 24.074 -0.20874
392 2 11.1542 24.0693 1.39538 11.1542 24.0693 1.39538
393 2 11.1549 24.0799 -1.81326 11.1549 24.0799 -1.81326
394 1 12.337 25.7206 -0.203189 12.337 25.7206 -0.203189
395 2 14.771 25.7132 1.40483 14.771 25.7132 1.40483
396 2 14.7767 25.7294 -1.80377 14.7767 25.7294 -1.80377
397 1 15.9545 24.0748 -0.205668 15.9545 24.0748 -0.205668
398 2 18.3869 24.0692 1.40512 18.3869 24.0692 1.40512
399 2 18.3962 24.0819 -1.80348 18.3962 24.0819 -1.80348
400 1 19.574 25.7217 -0.18933 19.574 25.7217 -0.18933
401 2 22.0061 25.715 1.42203 22.0061 25.715 1.42203
402 2 22.0158 25.7299 -1.78658 22.0158 25.7299 -1.78658
403 1 23.1917 24.076 -0.186413 23.1917 24.076 -0.186413
404 2 25.6234 24.073 1.42592 25.6234 24.073 1.42592
405 2 25.6343 24.0807 -1.78269 25.6343 24.0807 -1.78269
406 1 26.8113 25.7231 -0.170384 26.8113 25.7231 -0.170384
407 2 29.2444 25.7193 1.44061 29.2444 25.7193 1.44061
408 2 29.2534 25.7283 -1.76803 29.2534 25.7283 -1.76803
409 1 30.4298 24.0773 -0.165105 30.4298 24.0773 -0.165105
410 2 32.8632 24.0759 1.44583 32.8632 24.0759 1.44583
411 2 32.872 24.08 -1.76278 32.872 24.08 -1.76278
412 1 34.0499 25.7241 -0.153198 34.0499 25.7241 -0.153198
413 2 36.4852 25.7226 1.45527 36.4852 25.7226 1.45527
414 2 36.4906 25.7264 -1.75337 36.4906 25.7264 -1.75337
415 1 37.6689 24.078 -0.149064 37.6689 24.078 -0.149064
416 2 40.1047 24.0776 1.45862 40.1047 24.0776 1.45862
417 2 40.109 24.0789 -1.75004 40.109 24.0789 -1.75004
418 1 41.289 25.7244 -0.143509 41.289 25.7244 -0.143509
419 2 43.7257 25.7234 1.46239 43.7257 25.7234 1.46239
420 2 43.7275 25.7256 -1.74628 43.7275 25.7256 -1.74628
421 1 44.9078 24.078 -0.142441 44.9078 24.078 -0.142441
422 2 47.3464 24.0771 1.4612 47.3464 24.0771 1.4612
423 2 47.3452 24.0789 -1.74748 47.3452 24.0789 -1.74748
424 1 48.5278 25.7241 -0.142658 48.5278 25.7241 -0.142658
425 2 50.9679 25.7224 1.45897 50.9679 25.7224 1.45897
426 2 50.964 25.725 -1.74972 50.964 25.725 -1.74972
427 1 52.1473 24.0773 -0.148195 52.1473 24.0773 -0.148195
428 2 54.5886 24.0748 1.45133 54.5886 24.0748 1.45133
429 2 54.5821 24.079 -1.75736 54.5821 24.079 -1.75736
430 1 55.7674 25.7228 -0.15336 55.7674 25.7228 -0.15336
431 2 58.2101 25.7203 1.4437 58.2101 25.7203 1.4437
432 2 58.2003 25.7242 -1.76499 58.2003 25.7242 -1.76499
433 1 -5.75816 27.3681 -0.162291 -5.75816 27.3681 -0.162291
434 2 -3.31529 27.3645 1.43436 -3.31529 27.3645 1.43436
435 2 -3.32545 27.3706 -1.77432 -3.32545 27.3706 -1.77432
436 1 -2.1382 29.0134 -0.17057 -2.1382 29.0134 -0.17057
437 2 0.303338 29.0083 1.42813 0.303338 29.0083 1.42813
438 2 0.296069 29.0177 -1.78056 0.296069 29.0177 -1.78056
439 1 1.48085 27.3666 -0.183636 1.48085 27.3666 -0.183636
440 2 3.92143 27.3602 1.41608 3.92143 27.3602 1.41608
441 2 3.91583 27.3729 -1.79259 3.91583 27.3729 -1.79259
442 1 5.10088 29.0126 -0.183802 5.10088 29.0126 -0.183802
443 2 7.53904 29.0041 1.41909 7.53904 29.0041 1.41909
444 2 7.53763 29.0214 -1.78953 7.53763 29.0214 -1.78953
445 1 8.71935 27.3664 -0.194574 8.71935 27.3664 -0.194574
446 2 11.1558 27.3581 1.40985 11.1558 27.3581 1.40985
447 2 11.1566 27.3758 -1.79877 11.1566 27.3758 -1.79877
448 1 12.3383 29.0131 -0.185026 12.3383 29.0131 -0.185026
449 2 14.7721 29.0035 1.42343 14.7721 29.0035 1.42343
450 2 14.7781 29.0238 -1.78515 14.7781 29.0238 -1.78515
451 1 15.9562 27.3674 -0.189052 15.9562 27.3674 -0.189052
452 2 18.3891 27.3591 1.42116 18.3891 27.3591 1.42116
453 2 18.3972 27.377 -1.78742 18.3972 27.377 -1.78742
454 1 19.5753 29.0143 -0.170986 19.5753 29.0143 -0.170986
455 2 22.0084 29.0066 1.43901 22.0084 29.0066 1.43901
456 2 22.016 29.0234 -1.7696 22.016 29.0234 -1.7696
457 1 23.1932 27.3687 -0.171178 23.1932 27.3687 -0.171178
458 2 25.6268 27.3625 1.43853 25.6268 27.3625 1.43853
459 2 25.6339 27.3765 -1.77008 25.6339 27.3765 -1.77008
460 1 26.8125 29.0157 -0.156024 26.8125 29.0157 -0.156024
461 2 29.2471 29.0104 1.45263 29.2471 29.0104 1.45263
462 2 29.2529 29.0224 -1.75601 29.2529 29.0224 -1.75601
463 1 30.4311 27.37 -0.155851 30.4311 27.37 -0.155851
464 2 32.866 27.367 1.45278 32.866 27.367 1.45278
465 2 32.8717 27.3741 -1.75585 32.8717 27.3741 -1.75585
466 1 34.0509 29.0169 -0.145815 34.0509 29.0169 -0.145815
467 2 36.4873 29.0143 1.46098 36.4873 29.0143 1.46098
468 2 36.4904 29.02 -1.74766 36.4904 29.02 -1.74766
469 1 37.6701 27.3707 -0.145163 37.6701 27.3707 -0.145163
470 2 40.1065 27.3694 1.46142 40.1065 27.3694 1.46142
471 2 40.1092 27.3724 -1.74725 40.1092 27.3724 -1.74725
472 1 41.2898 29.0171 -0.140354 41.2898 29.0171 -0.140354
473 2 43.7278 29.0181 1.46356 43.7278 29.0181 1.46356
474 2 43.7268 29.0161 -1.74511 43.7268 29.0161 -1.74511
475 1 44.9086 27.3706 -0.140189 44.9086 27.3706 -0.140189
476 2 47.3477 27.3703 1.46278 47.3477 27.3703 1.46278
477 2 47.3453 27.3707 -1.74591 47.3453 27.3707 -1.74591
478 1 48.5284 29.0166 -0.142216 48.5284 29.0166 -0.142216
479 2 50.9687 29.0176 1.45909 50.9687 29.0176 1.45909
480 2 50.9642 29.0148 -1.7496 50.9642 29.0148 -1.7496
481 1 52.1479 27.3698 -0.145528 52.1479 27.3698 -0.145528
482 2 54.5895 27.369 1.45392 54.5895 27.369 1.45392
483 2 54.5826 27.3695 -1.75478 54.5826 27.3695 -1.75478
484 1 55.768 29.0152 -0.152663 55.768 29.0152 -0.152663
485 2 58.2101 29.0139 1.44574 58.2101 29.0139 1.44574
486 2 58.202 29.0152 -1.76297 58.202 29.0152 -1.76297
487 1 -5.75748 30.6604 -0.16093 -5.75748 30.6604 -0.16093
488 2 -3.31601 30.658 1.43815 -3.31601 30.658 1.43815
489 2 -3.32315 30.6615 -1.77055 -3.32315 30.6615 -1.77055
490 1 -2.13769 32.3058 -0.166971 -2.13769 32.3058 -0.166971
491 2 0.301797 32.3017 1.43505 0.301797 32.3017 1.43505
492 2 0.298669 32.3089 -1.77365 0.298669 32.3089 -1.77365
493 1 1.48173 30.659 -0.174015 1.48173 30.659 -0.174015
494 2 3.92085 30.6522 1.42826 3.92085 30.6522 1.42826
495 2 3.91837 30.6655 -1.78041 3.91837 30.6655 -1.78041
496 1 5.10146 32.305 -0.170058 5.10146 32.305 -0.170058
497 2 7.5382 32.2968 1.43534 7.5382 32.2968 1.43534
498 2 7.53969 32.3134 -1.77328 7.53969 32.3134 -1.77328
499 1 8.72034 30.6589 -0.176839 8.72034 30.6589 -0.176839
500 2 11.1558 30.6485 1.42928 11.1558 30.6485 1.42928
501 2 11.1585 30.6701 -1.77931 11.1585 30.6701 -1.77931
502 1 12.3389 32.3055 -0.162911 12.3389 32.3055 -0.162911
503 2 14.773 32.2953 1.44528 14.773 32.2953 1.44528
504 2 14.7782 32.3169 -1.76329 14.7782 32.3169 -1.76329
505 1 15.957 30.6599 -0.168179 15.957 30.6599 -0.168179
506 2 18.3904 30.6501 1.44136 18.3904 30.6501 1.44136
507 2 18.3977 30.6709 -1.76719 18.3977 30.6709 -1.76719
508 1 19.5758 32.3069 -0.149611 19.5758 32.3069 -0.149611
509 2 22.0096 32.2965 1.45944 22.0096 32.2965 1.45944
510 2 22.0159 32.3185 -1.74913 22.0159 32.3185 -1.74913
511 1 23.1941 30.6613 -0.153886 23.1941 30.6613 -0.153886
512 2 25.628 30.6531 1.45517 25.628 30.6531 1.45517
513 2 25.6344 30.671 -1.75342 25.6344 30.671 -1.75342
514 1 26.813 32.3084 -0.137663 26.813 32.3084 -0.137663
515 2 29.2498 32.3017 1.46792 29.2498 32.3017 1.46792
516 2 29.2512 32.3163 -1.74071 29.2512 32.3163 -1.74071
517 1 30.4319 30.6627 -0.143412 30.4319 30.6627 -0.143412
518 2 32.8684 30.6583 1.46271 32.8684 30.6583 1.46271
519 2 32.8706 30.6681 -1.74591 32.8706 30.6681 -1.74591
520 1 34.0513 32.3096 -0.135742 34.0513 32.3096 -0.135742
521 2 36.4896 32.3073 1.46802 36.4896 32.3073 1.46802
522 2 36.4888 32.3123 -1.74062 36.4888 32.3123 -1.74062
523 1 37.6707 30.6634 -0.139256 37.6707 30.6634 -0.139256
524 2 40.1087 30.6629 1.46481 40.1087 30.6629 1.46481
525 2 40.1082 30.6641 -1.74385 40.1082 30.6641 -1.74385
526 1 41.2902 32.3097 -0.139149 41.2902 32.3097 -0.139149
527 2 43.7295 32.3105 1.46264 43.7295 32.3105 1.46264
528 2 43.7259 32.3088 -1.74603 43.7259 32.3088 -1.74603
529 1 44.9091 30.6633 -0.142055 44.9091 30.6633 -0.142055
530 2 47.348 30.6653 1.46068 47.348 30.6653 1.46068
531 2 47.3458 30.6608 -1.748 47.3458 30.6608 -1.748
532 1 48.5287 32.3091 -0.146769 48.5287 32.3091 -0.146769
533 2 50.9692 32.312 1.45426 50.9692 32.312 1.45426
534 2 50.9646 32.3052 -1.75443 50.9646 32.3052 -1.75443
535 1 52.1484 30.6622 -0.148322 52.1484 30.6622 -0.148322
536 2 54.5896 30.6638 1.45167 54.5896 30.6638 1.45167