ITEM: TIMESTEP
5094000
ITEM: NUMBER OF ATOMS
810
ITEM: BOX BOUNDS pp pp pp
-1.2200995357226319e+01 6.5218600357225384e+01
8.1394622342039402e-01 5.0202268776579182e+01
-1.0000000000000000e+01 1.0000000000000000e+01
ITEM: ATOMS id type x y z xu yu zu
1 1 -2.22452 1.03205 -0.307181 -2.22452 1.03205 -0.307181
2 2 -0.369679 1.04325 1.37623 -0.369679 1.04325 1.37623
3 2 -0.27801 1.021 -1.88456 -0.27801 1.021 -1.88456
4 1 0.626779 2.67847 -0.238378 0.626779 2.67847 -0.238378
5 2 2.50489 2.68703 1.41898 2.50489 2.68703 1.41898
6 2 2.55103 2.671 -1.84291 2.55103 2.671 -1.84291
7 1 3.47892 1.03291 -0.19055 3.47892 1.03291 -0.19055
8 2 5.36589 1.04494 1.4565 5.36589 1.04494 1.4565
9 2 5.39429 1.02058 -1.80555 5.39429 1.02058 -1.80555
10 1 6.3309 2.6789 -0.178777 6.3309 2.6789 -0.178777
11 2 8.23162 2.68673 1.4526 8.23162 2.68673 1.4526
12 2 8.23258 2.66984 -1.80962 8.23258 2.66984 -1.80962
13 1 9.18265 1.03177 -0.16966 9.18265 1.03177 -0.16966
14 2 11.0863 1.0383 1.45847 11.0863 1.0383 1.45847
15 2 11.0815 1.02333 -1.80373 11.0815 1.02333 -1.80373
16 1 12.0354 2.67656 -0.181661 12.0354 2.67656 -0.181661
17 2 13.9441 2.68289 1.4408 13.9441 2.68289 1.4408
18 2 13.9294 2.6688 -1.82137 13.9294 2.6688 -1.82137
19 1 14.8876 1.02963 -0.187566 14.8876 1.02963 -0.187566
20 2 16.7889 1.04203 1.44369 16.7889 1.04203 1.44369
21 2 16.7892 1.01702 -1.81842 16.7892 1.01702 -1.81842
22 1 17.7406 2.67539 -0.199732 17.7406 2.67539 -0.199732
23 2 19.6372 2.69142 1.43721 19.6372 2.69142 1.43721
24 2 19.647 2.65964 -1.82482 19.647 2.65964 -1.82482
25 1 20.5926 1.02913 -0.174747 20.5926 1.02913 -0.174747
26 2 22.4829 1.04638 1.46948 22.4829 1.04638 1.46948
27 2 22.5053 1.01116 -1.7924 22.5053 1.01116 -1.7924
28 1 23.4459 2.6745 -0.172761 23.4459 2.6745 -0.172761
29 2 25.3413 2.6878 1.46575 25.3413 2.6878 1.46575
30 2 25.3538 2.65874 -1.79625 25.3538 2.65874 -1.79625
31 1 26.2982 1.02689 -0.146562 26.2982 1.02689 -0.146562
32 2 28.1977 1.03353 1.48703 28.1977 1.03353 1.48703
33 2 28.2021 1.01842 -1.77515 28.2021 1.01842 -1.77515
34 1 29.1513 2.67177 -0.150624 29.1513 2.67177 -0.150624
35 2 31.0579 2.67238 1.47433 31.0579 2.67238 1.47433
36 2 31.0473 2.66996 -1.78798 31.0473 2.66996 -1.78798
37 1 32.0028 1.02476 -0.158552 32.0028 1.02476 -0.158552
38 2 33.9112 1.01978 1.46402 33.9112 1.01978 1.46402
39 2 33.8965 1.02846 -1.79829 33.8965 1.02846 -1.79829
40 1 34.8549 2.66992 -0.166868 34.8549 2.66992 -0.166868
41 2 36.7693 2.6646 1.44876 36.7693 2.6646 1.44876
42 2 36.7424 2.6737 -1.81348 36.7424 2.6737 -1.81348
43 1 37.7061 1.02278 -0.19478 37.7061 1.02278 -0.19478
44 2 39.6199 1.00525 1.42182 39.6199 1.00525 1.42182
45 2 39.595 1.03893 -1.84054 39.595 1.03893 -1.84054
46 1 40.5584 2.66767 -0.19938 40.5584 2.66767 -0.19938
47 2 42.4567 2.66595 1.37596 42.4567 2.66595 1.37596
48 2 42.4177 2.66856 -1.82059 42.4177 2.66856 -1.82059
49 1 43.4782 1.02116 -0.237828 43.4782 1.02116 -0.237828
50 2 -5.8263 1.04788 1.32883 71.5933 1.04788 1.32883
51 2 -6.63018 1.02289 -1.41657 70.7894 1.02289 -1.41657
52 1 -5.05885 2.67965 -0.400004 72.3607 2.67965 -0.400004
53 2 -3.23726 2.67205 1.30694 74.1823 2.67205 1.30694
54 2 -3.11971 2.68552 -1.97171 74.2999 2.68552 -1.97171
55 1 -2.22471 4.3249 -0.294057 -2.22471 4.3249 -0.294057
56 2 -0.358198 4.32224 1.37565 -0.358198 4.32224 1.37565
57 2 -0.2893 4.32694 -1.88583 -0.2893 4.32694 -1.88583
58 1 0.627081 5.97064 -0.232082 0.627081 5.97064 -0.232082
59 2 2.51412 5.97173 1.41556 2.51412 5.97173 1.41556
60 2 2.54254 5.97032 -1.84662 2.54254 5.97032 -1.84662
61 1 3.47906 4.32506 -0.206586 3.47906 4.32506 -0.206586
62 2 5.36991 4.33485 1.43657 5.36991 4.33485 1.43657
63 2 5.39095 4.31565 -1.82557 5.39095 4.31565 -1.82557
64 1 6.33225 5.97078 -0.197984 6.33225 5.97078 -0.197984
65 2 8.23218 5.9786 1.43482 8.23218 5.9786 1.43482
66 2 8.2351 5.96197 -1.82745 8.2351 5.96197 -1.82745
67 1 9.18379 4.32387 -0.186859 9.18379 4.32387 -0.186859
68 2 11.0875 4.33234 1.44144 11.0875 4.33234 1.44144
69 2 11.0826 4.31364 -1.82079 11.0826 4.31364 -1.82079
70 1 12.0368 5.96848 -0.200648 12.0368 5.96848 -0.200648
71 2 13.9421 5.97396 1.42553 13.9421 5.97396 1.42553
72 2 13.9342 5.96141 -1.83673 13.9342 5.96141 -1.83673
73 1 14.8886 4.32151 -0.201686 14.8886 4.32151 -0.201686
74 2 16.7953 4.3327 1.42319 16.7953 4.3327 1.42319
75 2 16.7847 4.31038 -1.83895 16.7847 4.31038 -1.83895
76 1 17.7416 5.96745 -0.222238 17.7416 5.96745 -0.222238
77 2 19.6417 5.98096 1.41023 19.6417 5.98096 1.41023
78 2 19.6444 5.9546 -1.85185 19.6444 5.9546 -1.85185
79 1 20.5937 4.32141 -0.206914 20.5937 4.32141 -0.206914
80 2 22.4887 4.34325 1.43161 22.4887 4.34325 1.43161
81 2 22.5017 4.29857 -1.83022 22.5017 4.29857 -1.83022
82 1 23.4466 5.96671 -0.218227 23.4466 5.96671 -0.218227
83 2 25.3314 5.97724 1.43233 25.3314 5.97724 1.43233
84 2 25.3648 5.95364 -1.82956 25.3648 5.95364 -1.82956
85 1 26.299 4.31906 -0.176579 26.299 4.31906 -0.176579
86 2 28.1927 4.32982 1.46372 28.1927 4.32982 1.46372
87 2 28.2085 4.30616 -1.79839 28.2085 4.30616 -1.79839
88 1 29.1514 5.96399 -0.174824 29.1514 5.96399 -0.174824
89 2 31.0477 5.96764 1.46218 31.0477 5.96764 1.46218
90 2 31.0578 5.95847 -1.80013 31.0578 5.95847 -1.80013
91 1 32.0036 4.317 -0.161196 32.0036 4.317 -0.161196
92 2 33.9094 4.31883 1.46459 33.9094 4.31883 1.46459
93 2 33.9002 4.31387 -1.79776 33.9002 4.31387 -1.79776
94 1 34.8558 5.962 -0.171728 34.8558 5.962 -0.171728
95 2 36.7641 5.95991 1.45118 36.7641 5.95991 1.45118
96 2 36.75 5.96289 -1.81111 36.75 5.96289 -1.81111
97 1 37.7072 4.31483 -0.185263 37.7072 4.31483 -0.185263
98 2 39.6126 4.30684 1.44161 39.6126 4.30684 1.44161
99 2 39.6041 4.32091 -1.82098 39.6041 4.32091 -1.82098
100 1 40.5583 5.96032 -0.184686 40.5583 5.96032 -0.184686
101 2 42.4646 5.96195 1.38103 42.4646 5.96195 1.38103
102 2 42.4088 5.95812 -1.81544 42.4088 5.95812 -1.81544
103 1 43.4782 4.31389 -0.233081 43.4782 4.31389 -0.233081
104 2 -5.81888 4.31136 1.33004 71.6007 4.31136 1.33004
105 2 -6.64008 4.33571 -1.40541 70.7795 4.33571 -1.40541
106 1 -5.05878 5.97536 -0.37772 72.3608 5.97536 -0.37772
107 2 -3.24521 5.94094 1.33956 74.1744 5.94094 1.33956
108 2 -3.10935 6.00291 -1.93644 74.3102 6.00291 -1.93644
109 1 -2.22458 7.61769 -0.227186 -2.22458 7.61769 -0.227186
110 2 -0.327826 7.60525 1.40832 -0.327826 7.60525 1.40832
111 2 -0.318369 7.62856 -1.85395 -0.318369 7.62856 -1.85395
112 1 0.628756 9.26221 -0.209004 0.628756 9.26221 -0.209004
113 2 2.52988 9.26455 1.42177 2.52988 9.26455 1.42177
114 2 2.52981 9.26026 -1.84061 2.52981 9.26026 -1.84061
115 1 3.48026 7.61653 -0.207826 3.48026 7.61653 -0.207826
116 2 5.3825 7.62833 1.42202 5.3825 7.62833 1.42202
117 2 5.38081 7.60524 -1.8402 5.38081 7.60524 -1.8402
118 1 6.33326 9.26233 -0.221395 6.33326 9.26233 -0.221395
119 2 8.22782 9.26677 1.41777 8.22782 9.26677 1.41777
120 2 8.24138 9.25712 -1.8445 8.24138 9.25712 -1.8445
121 1 9.1852 7.61576 -0.204289 9.1852 7.61576 -0.204289
122 2 11.0859 7.61771 1.42742 11.0859 7.61771 1.42742
123 2 11.0871 7.61199 -1.83489 11.0871 7.61199 -1.83489
124 1 12.0377 9.26062 -0.206407 12.0377 9.26062 -0.206407
125 2 13.9431 9.25925 1.41975 13.9431 9.25925 1.41975
126 2 13.9348 9.2603 -1.8425 13.9348 9.2603 -1.8425
127 1 14.8896 7.61355 -0.214439 14.8896 7.61355 -0.214439
128 2 16.7962 7.61538 1.41029 16.7962 7.61538 1.41029
129 2 16.7856 7.61174 -1.85195 16.7856 7.61174 -1.85195
130 1 17.7419 9.2598 -0.225847 17.7419 9.2598 -0.225847
131 2 19.6492 9.26354 1.39812 19.6492 9.26354 1.39812
132 2 19.6374 9.25692 -1.86404 19.6374 9.25692 -1.86404
133 1 20.5943 7.61386 -0.233367 20.5943 7.61386 -0.233367
134 2 22.4918 7.62153 1.40215 22.4918 7.62153 1.40215
135 2 22.4996 7.60512 -1.85997 22.4996 7.60512 -1.85997
136 1 23.4464 9.25951 -0.235026 23.4464 9.25951 -0.235026
137 2 25.3297 9.25998 1.41735 25.3297 9.25998 1.41735
138 2 25.3658 9.25614 -1.84465 25.3658 9.25614 -1.84465
139 1 26.2988 7.61154 -0.201074 26.2988 7.61154 -0.201074
140 2 28.1872 7.61348 1.44519 28.1872 7.61348 1.44519
141 2 28.2132 7.607 -1.81693 28.2132 7.607 -1.81693
142 1 29.1509 9.25623 -0.181635 29.1509 9.25623 -0.181635
143 2 31.0474 9.25745 1.45506 31.0474 9.25745 1.45506
144 2 31.0571 9.25213 -1.8072 31.0571 9.25213 -1.8072
145 1 32.0036 7.60881 -0.170671 32.0036 7.60881 -0.170671
146 2 33.9099 7.61564 1.45453 33.9099 7.61564 1.45453
147 2 33.9 7.60033 -1.80775 33.9 7.60033 -1.80775
148 1 34.8556 9.25389 -0.187069 34.8556 9.25389 -0.187069
149 2 36.7587 9.26124 1.44189 36.7587 9.26124 1.44189
150 2 36.7548 9.24649 -1.82038 36.7548 9.24649 -1.82038
151 1 37.7076 7.60757 -0.182616 37.7076 7.60757 -0.182616
152 2 39.6102 7.608 1.44701 39.6102 7.608 1.44701
153 2 39.6071 7.6063 -1.81558 39.6071 7.6063 -1.81558
154 1 40.5576 9.25409 -0.185955 40.5576 9.25409 -0.185955
155 2 42.4566 9.2349 1.39015 42.4566 9.2349 1.39015
156 2 42.4154 9.2731 -1.80641 42.4154 9.2731 -1.80641
157 1 43.4766 7.60728 -0.237858 43.4766 7.60728 -0.237858
158 2 -5.84321 7.53714 1.39519 71.5764 7.53714 1.39519
159 2 -6.53661 7.69066 -1.4477 70.883 7.69066 -1.4477
160 1 -5.0548 9.26442 -0.229199 72.3648 9.26442 -0.229199
161 2 -3.19521 9.24849 1.42575 74.2244 9.24849 1.42575
162 2 -3.1705 9.27817 -1.85622 74.2491 9.27817 -1.85622
163 1 -2.22261 10.908 -0.189168 -2.22261 10.908 -0.189168
164 2 -0.31997 10.8896 1.44104 -0.31997 10.8896 1.44104
165 2 -0.322623 10.9266 -1.8211 -0.322623 10.9266 -1.8211
166 1 0.630189 12.5541 -0.171975 0.630189 12.5541 -0.171975
167 2 2.55207 12.5512 1.43474 2.55207 12.5512 1.43474
168 2 2.51062 12.5572 -1.82729 2.51062 12.5572 -1.82729
169 1 3.48144 10.9081 -0.211466 3.48144 10.9081 -0.211466
170 2 5.38845 10.9083 1.41296 5.38845 10.9083 1.41296
171 2 5.37676 10.9084 -1.84935 5.37676 10.9084 -1.84935
172 1 6.33401 12.5542 -0.221597 6.33401 12.5542 -0.221597
173 2 8.23221 12.5556 1.41337 8.23221 12.5556 1.41337
174 2 8.23826 12.5523 -1.84892 8.23826 12.5523 -1.84892
175 1 9.1858 10.9077 -0.214304 9.1858 10.9077 -0.214304
176 2 11.0827 10.9072 1.42197 11.0827 10.9072 1.42197
177 2 11.0914 10.9069 -1.84028 11.0914 10.9069 -1.84028
178 1 12.0381 12.5531 -0.206979 12.0381 12.5531 -0.206979
179 2 13.9405 12.5487 1.42255 13.9405 12.5487 1.42255
180 2 13.938 12.5567 -1.83966 13.938 12.5567 -1.83966
181 1 14.8897 10.9061 -0.213343 14.8897 10.9061 -0.213343
182 2 16.7952 10.9014 1.41259 16.7952 10.9014 1.41259
183 2 16.7866 10.9105 -1.84962 16.7866 10.9105 -1.84962
184 1 17.7413 12.5525 -0.216664 17.7413 12.5525 -0.216664
185 2 19.6499 12.5435 1.40536 19.6499 12.5435 1.40536
186 2 19.6349 12.5622 -1.85681 19.6349 12.5622 -1.85681
187 1 20.5938 10.9066 -0.239733 20.5938 10.9066 -0.239733
188 2 22.4901 10.9018 1.39729 22.4901 10.9018 1.39729
189 2 22.5003 10.9103 -1.86487 22.5003 10.9103 -1.86487
190 1 23.4455 12.5522 -0.22648 23.4455 12.5522 -0.22648
191 2 25.3289 12.5405 1.42565 25.3289 12.5405 1.42565
192 2 25.3648 12.5605 -1.83628 25.3648 12.5605 -1.83628
193 1 26.2983 10.9041 -0.205026 26.2983 10.9041 -0.205026
194 2 28.1835 10.8976 1.44498 28.1835 10.8976 1.44498
195 2 28.2159 10.9078 -1.81702 28.2159 10.9078 -1.81702
196 1 29.1506 12.5486 -0.171465 29.1506 12.5486 -0.171465
197 2 31.051 12.5414 1.46072 31.051 12.5414 1.46072
198 2 31.0534 12.5528 -1.80145 31.0534 12.5528 -1.80145
199 1 32.0031 10.9007 -0.175831 32.0031 10.9007 -0.175831
200 2 33.9139 10.9054 1.44384 33.9139 10.9054 1.44384
201 2 33.8948 10.8941 -1.8184 33.8948 10.8941 -1.8184
202 1 34.8545 12.5463 -0.198338 34.8545 12.5463 -0.198338
203 2 36.7665 12.5666 1.41952 36.7665 12.5666 1.41952
204 2 36.7445 12.5266 -1.84246 36.7445 12.5266 -1.84246
205 1 37.7065 10.9005 -0.197771 37.7065 10.9005 -0.197771
206 2 39.6123 10.9194 1.42777 39.6123 10.9194 1.42777
207 2 39.6026 10.8818 -1.83461 39.6026 10.8818 -1.83461
208 1 40.5573 12.5472 -0.2269 40.5573 12.5472 -0.2269
209 2 42.4075 12.5179 1.4037 42.4075 12.5179 1.4037
210 2 42.4644 12.5764 -1.79216 42.4644 12.5764 -1.79216
211 1 43.477 10.9005 -0.203496 43.477 10.9005 -0.203496
212 2 -6.56208 10.8386 0.957504 70.8575 10.8386 0.957504
213 2 -5.8076 10.9951 -1.86703 71.612 10.9951 -1.86703
214 1 -5.05729 12.5529 -0.0756726 72.3623 12.5529 -0.0756726
215 2 -3.12913 12.5201 1.51057 74.2905 12.5201 1.51057
216 2 -3.21836 12.5889 -1.76683 74.2012 12.5889 -1.76683
217 1 -2.22069 14.2008 -0.116088 -2.22069 14.2008 -0.116088
218 2 -0.291894 14.193 1.48319 -0.291894 14.193 1.48319
219 2 -0.347322 14.2079 -1.7785 -0.347322 14.2079 -1.7785
220 1 0.631027 15.8468 -0.155848 0.631027 15.8468 -0.155848
221 2 2.55386 15.8348 1.44994 2.55386 15.8348 1.44994
222 2 2.51064 15.8585 -1.8119 2.51064 15.8585 -1.8119
223 1 3.48249 14.2004 -0.205535 3.48249 14.2004 -0.205535
224 2 5.39112 14.1974 1.417 5.39112 14.1974 1.417
225 2 5.37652 14.2038 -1.8452 5.37652 14.2038 -1.8452
226 1 6.33515 15.8467 -0.215013 6.33515 15.8467 -0.215013
227 2 8.23538 15.8416 1.41768 8.23538 15.8416 1.41768
228 2 8.23774 15.8513 -1.84454 8.23774 15.8513 -1.84454
229 1 9.18657 14.1999 -0.217565 9.18657 14.1999 -0.217565
230 2 11.0813 14.1986 1.42127 11.0813 14.1986 1.42127
231 2 11.0942 14.2007 -1.84096 11.0942 14.2007 -1.84096
232 1 12.039 15.8458 -0.20514 12.039 15.8458 -0.20514
233 2 13.9358 15.8384 1.43081 13.9358 15.8384 1.43081
234 2 13.9442 15.8536 -1.83141 13.9442 15.8536 -1.83141
235 1 14.89 14.1991 -0.205436 14.89 14.1991 -0.205436
236 2 16.793 14.1919 1.42306 16.793 14.1919 1.42306
237 2 16.7888 14.2062 -1.83919 16.7888 14.2062 -1.83919
238 1 17.7413 15.8456 -0.202224 17.7413 15.8456 -0.202224
239 2 19.6442 15.8308 1.42638 19.6442 15.8308 1.42638
240 2 19.6401 15.8602 -1.83586 19.6401 15.8602 -1.83586
241 1 20.5928 14.1991 -0.22079 20.5928 14.1991 -0.22079
242 2 22.4876 14.1821 1.41763 22.4876 14.1821 1.41763
243 2 22.5002 14.2149 -1.84445 22.5002 14.2149 -1.84445
244 1 23.445 15.8441 -0.192886 23.445 15.8441 -0.192886
245 2 25.3317 15.8254 1.45543 25.3317 15.8254 1.45543
246 2 25.3608 15.8596 -1.80646 25.3608 15.8596 -1.80646
247 1 26.2978 14.1963 -0.184431 26.2978 14.1963 -0.184431
248 2 28.1832 14.18 1.46541 28.1832 14.18 1.46541
249 2 28.2154 14.2099 -1.79643 28.2154 14.2099 -1.79643
250 1 29.1502 15.841 -0.140739 29.1502 15.841 -0.140739
251 2 31.0611 15.8343 1.47919 31.0611 15.8343 1.47919
252 2 31.0429 15.8459 -1.78282 31.0429 15.8459 -1.78282
253 1 32.0028 14.1935 -0.163669 32.0028 14.1935 -0.163669
254 2 33.9252 14.1962 1.44187 33.9252 14.1962 1.44187
255 2 33.8827 14.189 -1.82007 33.8827 14.189 -1.82007
256 1 34.8541 15.8395 -0.205394 34.8541 15.8395 -0.205394
257 2 36.775 15.8421 1.40178 36.775 15.8421 1.40178
258 2 36.7351 15.8371 -1.86017 36.7351 15.8371 -1.86017
259 1 37.7057 14.1932 -0.23849 37.7057 14.1932 -0.23849
260 2 39.6035 14.1977 1.39683 39.6035 14.1977 1.39683
261 2 39.6106 14.1892 -1.86568 39.6106 14.1892 -1.86568
262 1 40.5574 15.84 -0.237204 40.5574 15.84 -0.237204
263 2 42.386 15.8406 1.41729 42.386 15.8406 1.41729
264 2 42.4857 15.8394 -1.77793 42.4857 15.8394 -1.77793
265 1 43.4764 14.1934 -0.1482 43.4764 14.1934 -0.1482
266 2 -6.6623 14.1949 0.911889 70.7573 14.1949 0.911889
267 2 -5.78377 14.2148 -1.80102 71.6358 14.2148 -1.80102
268 1 -5.05597 15.8475 -0.058051 72.3636 15.8475 -0.058051
269 2 -3.14796 15.8332 1.55072 74.2716 15.8332 1.55072
270 2 -3.20262 15.8606 -1.72954 74.217 15.8606 -1.72954
271 1 -2.22099 17.4933 -0.0897481 -2.22099 17.4933 -0.0897481
272 2 -0.287725 17.4834 1.50338 -0.287725 17.4834 1.50338
273 2 -0.35182 17.5026 -1.75802 -0.35182 17.5026 -1.75802
274 1 0.63117 19.1394 -0.136282 0.63117 19.1394 -0.136282
275 2 2.55358 19.1312 1.46996 2.55358 19.1312 1.46996
276 2 2.51146 19.1474 -1.79185 2.51146 19.1474 -1.79185
277 1 3.48334 17.493 -0.181596 3.48334 17.493 -0.181596
278 2 5.3997 17.4859 1.43217 5.3997 17.4859 1.43217
279 2 5.36988 17.5005 -1.82983 5.36988 17.5005 -1.82983
280 1 6.33602 19.1394 -0.200073 6.33602 19.1394 -0.200073
281 2 8.23738 19.1306 1.43148 8.23738 19.1306 1.43148
282 2 8.2379 19.1475 -1.83065 8.2379 19.1475 -1.83065
283 1 9.18788 17.4926 -0.207894 9.18788 17.4926 -0.207894
284 2 11.0828 17.4838 1.4309 11.0828 17.4838 1.4309
285 2 11.0955 17.5011 -1.83131 11.0955 17.5011 -1.83131
286 1 12.0399 19.1387 -0.187763 12.0399 19.1387 -0.187763
287 2 13.9369 19.1297 1.44797 13.9369 19.1297 1.44797
288 2 13.9448 19.1482 -1.81437 13.9448 19.1482 -1.81437
289 1 14.8907 17.4923 -0.190259 14.8907 17.4923 -0.190259
290 2 16.7926 17.4823 1.43957 16.7926 17.4823 1.43957
291 2 16.7903 17.5022 -1.82273 16.7903 17.5022 -1.82273
292 1 17.7424 19.1383 -0.182146 17.7424 19.1383 -0.182146
293 2 19.6451 19.132 1.44693 19.6451 19.132 1.44693
294 2 19.6415 19.1437 -1.81541 19.6415 19.1437 -1.81541
295 1 20.5932 17.4913 -0.190989 20.5932 17.4913 -0.190989
296 2 22.4877 17.4767 1.44814 22.4877 17.4767 1.44814
297 2 22.5008 17.5042 -1.81402 22.5008 17.5042 -1.81402
298 1 23.4455 19.1362 -0.165024 23.4455 19.1362 -0.165024
299 2 25.3345 19.1294 1.48053 25.3345 19.1294 1.48053
300 2 25.3586 19.1407 -1.78157 25.3586 19.1407 -1.78157
301 1 26.2973 17.4884 -0.149237 26.2973 17.4884 -0.149237
302 2 28.1889 17.4789 1.4934 28.1889 17.4789 1.4934
303 2 28.2084 17.4956 -1.76865 28.2084 17.4956 -1.76865
304 1 29.1495 19.1336 -0.123434 29.1495 19.1336 -0.123434
305 2 31.0648 19.1295 1.49129 31.0648 19.1295 1.49129
306 2 31.0374 19.1366 -1.77067 31.0374 19.1366 -1.77067
307 1 32.0025 17.4867 -0.15143 32.0025 17.4867 -0.15143
308 2 33.9302 17.4796 1.44797 33.9302 17.4796 1.44797
309 2 33.8774 17.493 -1.81367 33.8774 17.493 -1.81367
310 1 34.8541 19.1332 -0.191719 34.8541 19.1332 -0.191719
311 2 36.7804 19.1262 1.40946 36.7804 19.1262 1.40946
312 2 36.7299 19.1403 -1.85225 36.7299 19.1403 -1.85225
313 1 37.7056 17.4864 -0.243266 37.7056 17.4864 -0.243266
314 2 39.5976 17.4761 1.39937 39.5976 17.4761 1.39937
315 2 39.6165 17.4969 -1.86299 39.6165 17.4969 -1.86299
316 1 40.5569 19.1331 -0.214835 40.5569 19.1331 -0.214835
317 2 42.4115 19.1538 1.41241 42.4115 19.1538 1.41241
318 2 42.4599 19.1119 -1.78378 42.4599 19.1119 -1.78378
319 1 43.4764 17.4865 -0.149493 43.4764 17.4865 -0.149493
320 2 -6.63672 17.4936 0.959198 70.7829 17.4936 0.959198
321 2 -5.79723 17.4944 -1.7828 71.6224 17.4944 -1.7828
322 1 -5.05637 19.1406 -0.0582315 72.3632 19.1406 -0.0582315
323 2 -3.15855 19.1348 1.56265 74.261 19.1348 1.56265
324 2 -3.19364 19.1447 -1.71768 74.226 19.1447 -1.71768
325 1 -2.22039 20.786 -0.0801879 -2.22039 20.786 -0.0801879
326 2 -0.295055 20.7723 1.52231 -0.295055 20.7723 1.52231
327 2 -0.343312 20.7994 -1.73936 -0.343312 20.7994 -1.73936
328 1 0.632172 22.432 -0.108991 0.632172 22.432 -0.108991
329 2 2.55779 22.4192 1.49322 2.55779 22.4192 1.49322
330 2 2.50871 22.4447 -1.76852 2.50871 22.4447 -1.76852
331 1 3.48371 20.7856 -0.164996 3.48371 20.7856 -0.164996
332 2 5.39727 20.772 1.4518 5.39727 20.772 1.4518
333 2 5.37308 20.7993 -1.81016 5.37308 20.7993 -1.81016
334 1 6.33645 22.4317 -0.172453 6.33645 22.4317 -0.172453
335 2 8.23898 22.4148 1.45776 8.23898 22.4148 1.45776
336 2 8.23686 22.4484 -1.80428 8.23686 22.4484 -1.80428
337 1 9.18861 20.7853 -0.190834 9.18861 20.7853 -0.190834
338 2 11.0794 20.7701 1.45253 11.0794 20.7701 1.45253
339 2 11.1003 20.8002 -1.80956 11.1003 20.8002 -1.80956
340 1 12.0403 22.4313 -0.157151 12.0403 22.4313 -0.157151
341 2 13.9388 22.4133 1.4766 13.9388 22.4133 1.4766
342 2 13.9434 22.449 -1.78564 13.9434 22.449 -1.78564
343 1 14.8914 20.785 -0.171435 14.8914 20.785 -0.171435
344 2 16.7921 20.7742 1.45965 16.7921 20.7742 1.45965
345 2 16.7924 20.7952 -1.80269 16.7924 20.7952 -1.80269
346 1 17.7432 22.4305 -0.160803 17.7432 22.4305 -0.160803
347 2 19.6497 22.4216 1.46372 19.6497 22.4216 1.46372
348 2 19.6387 22.4386 -1.79855 19.6387 22.4386 -1.79855
349 1 20.5945 20.7837 -0.179195 20.5945 20.7837 -0.179195
350 2 22.4869 20.7816 1.46224 22.4869 20.7816 1.46224
351 2 22.5041 20.7844 -1.80003 22.5041 20.7844 -1.80003
352 1 23.4461 22.4291 -0.162219 23.4461 22.4291 -0.162219
353 2 25.3384 22.4369 1.47933 25.3384 22.4369 1.47933
354 2 25.3559 22.4196 -1.78282 25.3559 22.4196 -1.78282
355 1 26.2974 20.7813 -0.137519 26.2974 20.7813 -0.137519
356 2 28.1923 20.7828 1.50125 28.1923 20.7828 1.50125
357 2 28.2048 20.7776 -1.76087 28.2048 20.7776 -1.76087
358 1 29.1492 22.4268 -0.129038 29.1492 22.4268 -0.129038
359 2 31.0596 22.4273 1.49108 31.0596 22.4273 1.49108
360 2 31.0413 22.4254 -1.77101 31.0413 22.4254 -1.77101
361 1 32.0016 20.7798 -0.144337 32.0016 20.7798 -0.144337
362 2 33.9281 20.7772 1.45663 33.9281 20.7772 1.45663
363 2 33.8778 20.7824 -1.80503 33.8778 20.7824 -1.80503
364 1 34.8528 22.4269 -0.186488 34.8528 22.4269 -0.186488
365 2 36.7737 22.4193 1.4212 36.7737 22.4193 1.4212
366 2 36.7344 22.4343 -1.84062 36.7344 22.4343 -1.84062
367 1 37.7053 20.7802 -0.228721 37.7053 20.7802 -0.228721
368 2 39.5983 20.7784 1.41306 39.5983 20.7784 1.41306
369 2 39.6156 20.7809 -1.8494 39.6156 20.7809 -1.8494
370 1 40.5565 22.4263 -0.211147 40.5565 22.4263 -0.211147
371 2 42.4292 22.433 1.39625 42.4292 22.433 1.39625
372 2 42.4417 22.4188 -1.80057 42.4417 22.4188 -1.80057
373 1 43.4768 20.7795 -0.190357 43.4768 20.7795 -0.190357
374 2 -6.6513 20.7861 0.938389 70.7683 20.7861 0.938389
375 2 -5.77823 20.7911 -1.78909 71.6414 20.7911 -1.78909
376 1 -5.05458 22.4334 -0.0529346 72.365 22.4334 -0.0529346
377 2 -3.16146 22.4238 1.57374 74.2581 22.4238 1.57374
378 2 -3.18663 22.4419 -1.7068 74.233 22.4419 -1.7068
379 1 -2.21879 24.0789 -0.0621314 -2.21879 24.0789 -0.0621314
380 2 -0.296256 24.0695 1.54369 -0.296256 24.0695 1.54369
381 2 -0.339008 24.0879 -1.7182 -0.339008 24.0879 -1.7182
382 1 0.633437 25.7247 -0.0905239 0.633437 25.7247 -0.0905239
383 2 2.55577 25.7141 1.51514 2.55577 25.7141 1.51514
384 2 2.51279 25.7348 -1.74683 2.51279 25.7348 -1.74683
385 1 3.48448 24.078 -0.138905 3.48448 24.078 -0.138905
386 2 5.39997 24.0691 1.47562 5.39997 24.0691 1.47562
387 2 5.37133 24.0866 -1.78646 5.37133 24.0866 -1.78646
388 1 6.33655 25.7241 -0.154757 6.33655 25.7241 -0.154757
389 2 8.23329 25.7135 1.482 8.23329 25.7135 1.482
390 2 8.24253 25.7342 -1.78019 8.24253 25.7342 -1.78019
391 1 9.18868 24.0777 -0.156699 9.18868 24.0777 -0.156699
392 2 11.0839 24.0665 1.48178 11.0839 24.0665 1.48178
393 2 11.0958 24.0888 -1.78047 11.0958 24.0888 -1.78047
394 1 12.0403 25.7237 -0.134487 12.0403 25.7237 -0.134487
395 2 13.9357 25.7128 1.50317 13.9357 25.7128 1.50317
396 2 13.9467 25.7337 -1.75912 13.9467 25.7337 -1.75912
397 1 14.8917 24.077 -0.135228 14.8917 24.077 -0.135228
398 2 16.7981 24.0611 1.48942 16.7981 24.0611 1.48942
399 2 16.7872 24.092 -1.77278 16.7872 24.092 -1.77278
400 1 17.7429 25.7228 -0.12931 17.7429 25.7228 -0.12931
401 2 19.6545 25.7095 1.48899 19.6545 25.7095 1.48899
402 2 19.6332 25.7354 -1.77317 19.6332 25.7354 -1.77317
403 1 20.5946 24.0763 -0.161814 20.5946 24.0763 -0.161814
404 2 22.4964 24.0768 1.46838 22.4964 24.0768 1.46838
405 2 22.4949 24.0746 -1.79392 22.4949 24.0746 -1.79392
406 1 23.4461 25.722 -0.16418 23.4461 25.722 -0.16418
407 2 25.3415 25.7197 1.47377 25.3415 25.7197 1.47377
408 2 25.3531 25.723 -1.78844 25.3531 25.723 -1.78844
409 1 26.2978 24.0746 -0.15548 26.2978 24.0746 -0.15548
410 2 28.1878 24.0803 1.48862 28.1878 24.0803 1.48862
411 2 28.2099 24.067 -1.77347 28.2099 24.067 -1.77347
412 1 29.1489 25.7206 -0.142678 29.1489 25.7206 -0.142678
413 2 31.0547 25.7246 1.4827 31.0547 25.7246 1.4827
414 2 31.0451 25.7161 -1.77944 31.0451 25.7161 -1.77944
415 1 32.0005 24.0734 -0.146593 32.0005 24.0734 -0.146593
416 2 33.9232 24.0718 1.45877 33.9232 24.0718 1.45877
417 2 33.88 24.0753 -1.80305 33.88 24.0753 -1.80305
418 1 34.8518 25.7204 -0.183222 34.8518 25.7204 -0.183222
419 2 36.7696 25.719 1.4282 36.7696 25.719 1.4282
420 2 36.7365 25.7213 -1.83375 36.7365 25.7213 -1.83375
421 1 37.7044 24.0735 -0.213569 37.7044 24.0735 -0.213569
422 2 39.6049 24.0729 1.41936 39.6049 24.0729 1.41936
423 2 39.6073 24.073 -1.84309 39.6073 24.073 -1.84309
424 1 40.5555 25.7197 -0.21123 40.5555 25.7197 -0.21123
425 2 42.4243 25.7086 1.3993 42.4243 25.7086 1.3993
426 2 42.4444 25.7302 -1.79749 42.4444 25.7302 -1.79749
427 1 43.4758 24.0729 -0.203753 43.4758 24.0729 -0.203753
428 2 -6.65099 24.0781 0.941982 70.7686 24.0781 0.941982
429 2 -5.77325 24.0831 -1.78492 71.6463 24.0831 -1.78492
430 1 -5.05363 25.7255 -0.0472949 72.366 25.7255 -0.0472949
431 2 -3.16706 25.7177 1.58669 74.2525 25.7177 1.58669
432 2 -3.17941 25.7327 -1.69398 74.2402 25.7327 -1.69398
433 1 -2.2177 27.3711 -0.0470068 -2.2177 27.3711 -0.0470068
434 2 -0.295702 27.3645 1.55946 -0.295702 27.3645 1.55946
435 2 -0.337636 27.3778 -1.70258 -0.337636 27.3778 -1.70258
436 1 0.63336 29.0174 -0.0770995 0.63336 29.0174 -0.0770995
437 2 2.55382 29.0104 1.53102 2.55382 29.0104 1.53102
438 2 2.51431 29.0237 -1.73107 2.51431 29.0237 -1.73107
439 1 3.48476 27.3707 -0.11808 3.48476 27.3707 -0.11808
440 2 5.3996 27.3577 1.49696 5.3996 27.3577 1.49696
441 2 5.37199 27.3828 -1.76509 5.37199 27.3828 -1.76509
442 1 6.33636 29.0166 -0.129275 6.33636 29.0166 -0.129275
443 2 8.23698 29.0081 1.50303 8.23698 29.0081 1.50303
444 2 8.23825 29.0245 -1.75919 8.23825 29.0245 -1.75919
445 1 9.18845 27.3701 -0.135877 9.18845 27.3701 -0.135877
446 2 11.0826 27.3588 1.50362 11.0826 27.3588 1.50362
447 2 11.0966 27.381 -1.75861 11.0966 27.381 -1.75861
448 1 12.0397 29.0162 -0.112251 12.0397 29.0162 -0.112251
449 2 13.9356 29.0048 1.5249 13.9356 29.0048 1.5249
450 2 13.9459 29.0267 -1.73732 13.9459 29.0267 -1.73732
451 1 14.8914 27.3695 -0.114278 14.8914 27.3695 -0.114278
452 2 16.7932 27.356 1.5156 16.7932 27.356 1.5156
453 2 16.7914 27.3821 -1.74663 16.7914 27.3821 -1.74663
454 1 17.7426 29.0155 -0.102956 17.7426 29.0155 -0.102956
455 2 19.6543 29.0021 1.51542 19.6543 29.0021 1.51542
456 2 19.6331 29.0283 -1.74666 19.6331 29.0283 -1.74666
457 1 20.5943 27.3688 -0.135215 20.5943 27.3688 -0.135215
458 2 22.5052 27.3572 1.48426 22.5052 27.3572 1.48426
459 2 22.4855 27.3797 -1.77785 22.4855 27.3797 -1.77785
460 1 23.4457 29.015 -0.140871 23.4457 29.015 -0.140871
461 2 25.3502 29.0098 1.48633 25.3502 29.0098 1.48633
462 2 25.3433 29.0196 -1.77592 25.3433 29.0196 -1.77592
463 1 26.2973 27.368 -0.152024 26.2973 27.368 -0.152024
464 2 28.1942 27.3694 1.48409 28.1942 27.3694 1.48409
465 2 28.2023 27.3655 -1.77814 28.2023 27.3655 -1.77814
466 1 29.1482 29.0142 -0.146644 29.1482 29.0142 -0.146644
467 2 31.0532 29.0123 1.47954 31.0532 29.0123 1.47954
468 2 31.045 29.0158 -1.78268 31.045 29.0158 -1.78268
469 1 31.9999 27.3673 -0.155823 31.9999 27.3673 -0.155823
470 2 33.9158 27.3662 1.45739 33.9158 27.3662 1.45739
471 2 33.8862 27.3682 -1.80465 33.8862 27.3682 -1.80465
472 1 34.8514 29.0137 -0.181645 34.8514 29.0137 -0.181645
473 2 36.766 29.0071 1.43351 36.766 29.0071 1.43351
474 2 36.7392 29.0193 -1.82858 36.7392 29.0193 -1.82858
475 1 37.7035 27.3667 -0.211345 37.7035 27.3667 -0.211345
476 2 39.6038 27.3635 1.4218 39.6038 27.3635 1.4218
477 2 39.6066 27.3691 -1.84069 39.6066 27.3691 -1.84069
478 1 40.5552 29.0125 -0.205617 40.5552 29.0125 -0.205617
479 2 42.4205 29.0138 1.40802 42.4205 29.0138 1.40802
480 2 42.4476 29.0107 -1.78874 42.4476 29.0107 -1.78874
481 1 43.4751 27.3658 -0.181044 43.4751 27.3658 -0.181044
482 2 -6.65461 27.369 0.942666 70.765 27.369 0.942666
483 2 -5.76639 27.3774 -1.77912 71.6532 27.3774 -1.77912
484 1 -5.05194 29.0171 -0.035696 72.3677 29.0171 -0.035696
485 2 -3.16518 29.0144 1.59777 74.2544 29.0144 1.59777
486 2 -3.17916 29.0203 -1.68316 74.2404 29.0203 -1.68316
487 1 -2.2181 30.6637 -0.0406859 -2.2181 30.6637 -0.0406859
488 2 -0.296214 30.6637 1.56576 -0.296214 30.6637 1.56576
489 2 -0.33835 30.6636 -1.69631 -0.33835 30.6636 -1.69631
490 1 0.632454 32.31 -0.0782886 0.632454 32.31 -0.0782886
491 2 2.54566 32.3042 1.53859 2.54566 32.3042 1.53859
492 2 2.52121 32.3148 -1.72364 2.52121 32.3148 -1.72364
493 1 3.48432 30.6633 -0.104963 3.48432 30.6633 -0.104963
494 2 5.3954 30.6561 1.51439 5.3954 30.6561 1.51439
495 2 5.37533 30.6697 -1.74775 5.37533 30.6697 -1.74775
496 1 6.33573 32.3094 -0.115673 6.33573 32.3094 -0.115673
497 2 8.23305 32.2988 1.52008 8.23305 32.2988 1.52008
498 2 8.24056 32.3198 -1.74211 8.24056 32.3198 -1.74211
499 1 9.18769 30.6629 -0.119324 9.18769 30.6629 -0.119324
500 2 11.0793 30.6527 1.52306 11.0793 30.6527 1.52306
501 2 11.0982 30.672 -1.73914 11.0982 30.672 -1.73914
502 1 12.0385 32.309 -0.0924565 12.0385 32.309 -0.0924565
503 2 13.9366 32.3037 1.54229 13.9366 32.3037 1.54229
504 2 13.9425 32.3135 -1.71997 13.9425 32.3135 -1.71997
505 1 14.8907 30.6623 -0.0919904 14.8907 30.6623 -0.0919904
506 2 16.7936 30.6542 1.53701 16.7936 30.6542 1.53701
507 2 16.79 30.6695 -1.72522 16.79 30.6695 -1.72522
508 1 17.742 32.3083 -0.0874002 17.742 32.3083 -0.0874002
509 2 19.6512 32.3006 1.53436 19.6512 32.3006 1.53436
510 2 19.6354 32.3153 -1.7278 19.6354 32.3153 -1.7278
511 1 20.5941 30.6616 -0.108679 20.5941 30.6616 -0.108679
512 2 22.5066 30.6497 1.50898 22.5066 30.6497 1.50898
513 2 22.484 30.6733 -1.75311 22.484 30.6733 -1.75311
514 1 23.4455 32.308 -0.11669 23.4455 32.308 -0.11669
515 2 25.3559 32.2994 1.50363 25.3559 32.2994 1.50363
516 2 25.3372 32.3164 -1.75859 25.3372 32.3164 -1.75859
517 1 26.2968 30.6613 -0.141583 26.2968 30.6613 -0.141583
518 2 28.197 30.6546 1.49058 28.197 30.6546 1.49058
519 2 28.1983 30.6673 -1.7717 28.1983 30.6673 -1.7717
520 1 29.1479 32.3074 -0.133637 29.1479 32.3074 -0.133637
521 2 31.0565 32.3018 1.4886 31.0565 32.3018 1.4886
522 2 31.0411 32.3121 -1.77367 31.0411 32.3121 -1.77367
523 1 31.9994 30.6605 -0.152235 31.9994 30.6605 -0.152235
524 2 33.9126 30.652 1.46466 33.9126 30.652 1.46466
525 2 33.8886 30.6683 -1.79747 33.8886 30.6683 -1.79747
526 1 34.8517 32.3059 -0.165303 34.8517 32.3059 -0.165303
527 2 36.7667 32.2955 1.4498 36.7667 32.2955 1.4498
528 2 36.7393 32.3152 -1.81234 36.7393 32.3152 -1.81234
529 1 37.7036 30.6591 -0.199182 37.7036 30.6591 -0.199182
530 2 39.6064 30.6549 1.43075 39.6064 30.6549 1.43075
531 2 39.6038 30.6625 -1.83186 39.6038 30.6625 -1.83186
532 1 40.5557 32.3044 -0.196824 40.5557 32.3044 -0.196824
533 2 42.4324 32.313 1.4048 42.4324 32.313 1.4048
534 2 42.4367 32.2953 -1.79199 42.4367 32.2953 -1.79199
535 1 43.4757 30.6581 -0.183349 43.4757 30.6581 -0.183349