ITEM: TIMESTEP
2977000
ITEM: NUMBER OF ATOMS
810
ITEM: BOX BOUNDS pp pp pp
-6.7717756630599526e+00 5.9789380663059021e+01
8.1394622342039402e-01 5.0202268776579182e+01
-1.0000000000000000e+01 1.0000000000000000e+01
ITEM: ATOMS id type x y z xu yu zu
1 1 -6.4688 1.02909 -0.194512 -6.4688 1.02909 -0.194512
2 2 -3.95716 1.02584 1.41483 -3.95716 1.02584 1.41483
3 2 -3.95189 1.03382 -1.79626 -3.95189 1.03382 -1.79626
4 1 -2.76919 2.67593 -0.184715 -2.76919 2.67593 -0.184715
5 2 -0.260341 2.67462 1.42457 -0.260341 2.67462 1.42457
6 2 -0.255519 2.67865 -1.78652 -0.255519 2.67865 -1.78652
7 1 0.925379 1.03013 -0.181251 0.925379 1.03013 -0.181251
8 2 3.43549 1.02974 1.4292 3.43549 1.02974 1.4292
9 2 3.44166 1.03199 -1.78197 3.44166 1.03199 -1.78197
10 1 4.62415 2.67674 -0.173033 4.62415 2.67674 -0.173033
11 2 7.1366 2.67798 1.4351 7.1366 2.67798 1.4351
12 2 7.13938 2.67642 -1.7761 7.13938 2.67642 -1.7761
13 1 8.32089 1.03041 -0.168576 8.32089 1.03041 -0.168576
14 2 10.8307 1.03115 1.44044 10.8307 1.03115 1.44044
15 2 10.8351 1.0297 -1.7707 10.8351 1.0297 -1.7707
16 1 12.0181 2.67636 -0.16432 12.0181 2.67636 -0.16432
17 2 14.529 2.67864 1.44307 14.529 2.67864 1.44307
18 2 14.5311 2.67361 -1.76798 14.5311 2.67361 -1.76798
19 1 15.7139 1.02963 -0.159114 15.7139 1.02963 -0.159114
20 2 18.2231 1.03086 1.44794 18.2231 1.03086 1.44794
21 2 18.2248 1.02752 -1.76316 18.2248 1.02752 -1.76316
22 1 19.408 2.67535 -0.158801 19.408 2.67535 -0.158801
23 2 21.923 2.6768 1.44654 21.923 2.6768 1.44654
24 2 21.9225 2.6727 -1.76469 21.9225 2.6727 -1.76469
25 1 23.1072 1.02848 -0.15724 23.1072 1.02848 -0.15724
26 2 25.624 1.02829 1.44618 25.624 1.02829 1.44618
27 2 25.6211 1.02742 -1.76502 25.6211 1.02742 -1.76502
28 1 26.8069 2.674 -0.161009 26.8069 2.674 -0.161009
29 2 29.3217 2.67112 1.44258 29.3217 2.67112 1.44258
30 2 29.3192 2.67583 -1.76859 29.3192 2.67583 -1.76859
31 1 30.504 1.02684 -0.166344 30.504 1.02684 -0.166344
32 2 33.0206 1.02382 1.43549 33.0206 1.02382 1.43549
33 2 33.0159 1.02928 -1.77572 33.0159 1.02928 -1.77572
34 1 34.2032 2.67253 -0.169085 34.2032 2.67253 -0.169085
35 2 36.7175 2.66733 1.43376 36.7175 2.66733 1.43376
36 2 36.7143 2.6774 -1.77734 36.7143 2.6774 -1.77734
37 1 37.8998 1.02591 -0.178187 37.8998 1.02591 -0.178187
38 2 40.4142 1.02159 1.42396 40.4142 1.02159 1.42396
39 2 40.4101 1.03023 -1.78717 40.4101 1.03023 -1.78717
40 1 41.597 2.67209 -0.178754 41.597 2.67209 -0.178754
41 2 44.1135 2.66644 1.42348 44.1135 2.66644 1.42348
42 2 44.1093 2.6786 -1.78775 44.1093 2.6786 -1.78775
43 1 45.295 1.02613 -0.189858 45.295 1.02613 -0.189858
44 2 47.8124 1.02123 1.41319 47.8124 1.02123 1.41319
45 2 47.8094 1.03257 -1.7981 47.8094 1.03257 -1.7981
46 1 48.996 2.67309 -0.187736 48.996 2.67309 -0.187736
47 2 51.5131 2.66833 1.41647 51.5131 2.66833 1.41647
48 2 51.5115 2.67981 -1.79479 51.5115 2.67981 -1.79479
49 1 52.6958 1.02767 -0.195654 52.6958 1.02767 -0.195654
50 2 55.2101 1.02357 1.40942 55.2101 1.02357 1.40942
51 2 55.2096 1.03365 -1.80166 55.2096 1.03365 -1.80166
52 1 56.3953 2.67475 -0.191083 56.3953 2.67475 -0.191083
53 2 58.9084 2.67082 1.4155 58.9084 2.67082 1.4155
54 2 58.9102 2.68086 -1.79561 58.9102 2.68086 -1.79561
55 1 -6.46641 4.32198 -0.184241 -6.46641 4.32198 -0.184241
56 2 -3.95342 4.31946 1.42312 -3.95342 4.31946 1.42312
57 2 -3.95097 4.32576 -1.78799 -3.95097 4.32576 -1.78799
58 1 -2.76646 5.96852 -0.178326 -2.76646 5.96852 -0.178326
59 2 -0.256102 5.96871 1.42836 -0.256102 5.96871 1.42836
60 2 -0.254521 5.9697 -1.78275 -0.254521 5.9697 -1.78275
61 1 0.92759 4.32258 -0.177142 0.92759 4.32258 -0.177142
62 2 3.43959 4.32402 1.43078 3.43959 4.32402 1.43078
63 2 3.4424 4.32255 -1.78043 3.4424 4.32255 -1.78043
64 1 4.62621 5.96923 -0.17454 4.62621 5.96923 -0.17454
65 2 7.13825 5.97158 1.43252 7.13825 5.97158 1.43252
66 2 7.14037 5.96772 -1.77857 7.14037 5.96772 -1.77857
67 1 8.32314 4.32318 -0.170253 8.32314 4.32318 -0.170253
68 2 10.8336 4.32615 1.43725 10.8336 4.32615 1.43725
69 2 10.836 4.3201 -1.77382 10.836 4.3201 -1.77382
70 1 12.0199 5.96907 -0.170441 12.0199 5.96907 -0.170441
71 2 14.5306 5.97278 1.43643 14.5306 5.97278 1.43643
72 2 14.5324 5.96459 -1.77461 14.5324 5.96459 -1.77461
73 1 15.715 4.32205 -0.164249 15.715 4.32205 -0.164249
74 2 18.223 4.32487 1.44282 18.223 4.32487 1.44282
75 2 18.225 4.31847 -1.76828 18.225 4.31847 -1.76828
76 1 19.4087 5.96755 -0.165336 19.4087 5.96755 -0.165336
77 2 21.9215 5.96819 1.44224 21.9215 5.96819 1.44224
78 2 21.924 5.96615 -1.76899 21.924 5.96615 -1.76899
79 1 23.107 4.32088 -0.161428 23.107 4.32088 -0.161428
80 2 25.6225 4.32051 1.44441 25.6225 4.32051 1.44441
81 2 25.6228 4.3201 -1.76691 25.6228 4.3201 -1.76691
82 1 26.8071 5.96632 -0.161314 26.8071 5.96632 -0.161314
83 2 29.3202 5.96277 1.44619 29.3202 5.96277 1.44619
84 2 29.323 5.96891 -1.76497 29.323 5.96891 -1.76497
85 1 30.5055 4.31934 -0.161619 30.5055 4.31934 -0.161619
86 2 33.0205 4.3138 1.44262 33.0205 4.3138 1.44262
87 2 33.0186 4.32439 -1.76857 33.0186 4.32439 -1.76857
88 1 34.2043 5.96517 -0.158263 34.2043 5.96517 -0.158263
89 2 36.7172 5.9572 1.44625 36.7172 5.9572 1.44625
90 2 36.7156 5.97289 -1.7648 36.7156 5.97289 -1.7648
91 1 37.9004 4.31863 -0.167898 37.9004 4.31863 -0.167898
92 2 40.4148 4.31156 1.43517 40.4148 4.31156 1.43517
93 2 40.4118 4.32553 -1.77598 40.4118 4.32553 -1.77598
94 1 41.5983 5.96462 -0.164406 41.5983 5.96462 -0.164406
95 2 44.115 5.95691 1.43798 44.115 5.95691 1.43798
96 2 44.111 5.97315 -1.77327 44.111 5.97315 -1.77327
97 1 45.2964 4.31863 -0.17741 45.2964 4.31863 -0.17741
98 2 47.8139 4.31273 1.42585 47.8139 4.31273 1.42585
99 2 47.811 4.32619 -1.78543 47.811 4.32619 -1.78543
100 1 48.9974 5.96564 -0.173958 48.9974 5.96564 -0.173958
101 2 51.5151 5.95988 1.42957 51.5151 5.95988 1.42957
102 2 51.5126 5.9733 -1.78169 51.5126 5.9733 -1.78169
103 1 52.6974 4.32026 -0.183829 52.6974 4.32026 -0.183829
104 2 55.2128 4.31538 1.42091 55.2128 4.31538 1.42091
105 2 55.2115 4.32715 -1.7903 55.2115 4.32715 -1.7903
106 1 56.3972 5.96744 -0.179033 56.3972 5.96744 -0.179033
107 2 58.9116 5.96394 1.42613 58.9116 5.96394 1.42613
108 2 58.911 5.97292 -1.78511 58.911 5.97292 -1.78511
109 1 -6.46525 7.61474 -0.175081 -6.46525 7.61474 -0.175081
110 2 -3.94888 7.61311 1.42979 -3.94888 7.61311 1.42979
111 2 -3.94959 7.61758 -1.78137 -3.94959 7.61758 -1.78137
112 1 -2.76356 9.26123 -0.173805 -2.76356 9.26123 -0.173805
113 2 -0.251751 9.26148 1.43043 -0.251751 9.26148 1.43043
114 2 -0.253647 9.26217 -1.7807 -0.253647 9.26217 -1.7807
115 1 0.930261 7.61514 -0.176092 0.930261 7.61514 -0.176092
116 2 3.44219 7.61619 1.43015 3.44219 7.61619 1.43015
117 2 3.44327 7.61527 -1.78095 3.44327 7.61527 -1.78095
118 1 4.62792 9.26175 -0.175542 4.62792 9.26175 -0.175542
119 2 7.14034 9.26446 1.4292 7.14034 9.26446 1.4292
120 2 7.13915 9.25965 -1.78193 7.13915 9.25965 -1.78193
121 1 8.32395 7.61583 -0.17431 8.32395 7.61583 -0.17431
122 2 10.8361 7.61912 1.43145 10.8361 7.61912 1.43145
123 2 10.8364 7.61219 -1.77969 10.8364 7.61219 -1.77969
124 1 12.0209 9.26169 -0.17748 12.0209 9.26169 -0.17748
125 2 14.5321 9.26357 1.42958 14.5321 9.26357 1.42958
126 2 14.5344 9.2588 -1.78145 14.5344 9.2588 -1.78145
127 1 15.7167 7.61447 -0.172581 15.7167 7.61447 -0.172581
128 2 18.2227 7.61631 1.43617 18.2227 7.61631 1.43617
129 2 18.2273 7.6117 -1.77484 18.2273 7.6117 -1.77484
130 1 19.41 9.25984 -0.170026 19.41 9.25984 -0.170026
131 2 21.92 9.2589 1.4404 21.92 9.2589 1.4404
132 2 21.9266 9.26024 -1.77082 21.9266 9.26024 -1.77082
133 1 23.1073 7.61323 -0.163568 23.1073 7.61323 -0.163568
134 2 25.6215 7.61103 1.4448 25.6215 7.61103 1.4448
135 2 25.6249 7.61447 -1.76648 25.6249 7.61447 -1.76648
136 1 26.8082 9.25862 -0.157739 26.8082 9.25862 -0.157739
137 2 29.3196 9.25435 1.45228 29.3196 9.25435 1.45228
138 2 29.3254 9.26225 -1.75894 29.3254 9.26225 -1.75894
139 1 30.5064 7.61186 -0.155338 30.5064 7.61186 -0.155338
140 2 33.019 7.60586 1.45231 33.019 7.60586 1.45231
141 2 33.0217 7.61748 -1.75877 33.0217 7.61748 -1.75877
142 1 34.205 9.25791 -0.146394 34.205 9.25791 -0.146394
143 2 36.7162 9.25014 1.46089 36.7162 9.25014 1.46089
144 2 36.7183 9.26552 -1.75024 36.7183 9.26552 -1.75024
145 1 37.9009 7.61131 -0.151908 37.9009 7.61131 -0.151908
146 2 40.4165 7.60245 1.45142 40.4165 7.60245 1.45142
147 2 40.4132 7.62003 -1.7597 40.4132 7.62003 -1.7597
148 1 41.6001 9.25726 -0.146347 41.6001 9.25726 -0.146347
149 2 44.1168 9.24821 1.45606 44.1168 9.24821 1.45606
150 2 44.1123 9.26705 -1.75514 44.1123 9.26705 -1.75514
151 1 45.298 7.61116 -0.160819 45.298 7.61116 -0.160819
152 2 47.8154 7.60332 1.44181 47.8154 7.60332 1.44181
153 2 47.8119 7.62049 -1.76942 47.8119 7.62049 -1.76942
154 1 48.9986 9.25807 -0.156378 48.9986 9.25807 -0.156378
155 2 51.5182 9.25195 1.44488 51.5182 9.25195 1.44488
156 2 51.5123 9.26608 -1.76638 51.5123 9.26608 -1.76638
157 1 52.6989 7.61274 -0.17005 52.6989 7.61274 -0.17005
158 2 55.2147 7.60793 1.4334 55.2147 7.60793 1.4334
159 2 55.2121 7.61951 -1.77776 55.2121 7.61951 -1.77776
160 1 56.398 9.26006 -0.16723 56.398 9.26006 -0.16723
161 2 58.9139 9.25765 1.43526 58.9139 9.25765 1.43526
162 2 58.9098 9.2641 -1.77598 58.9098 9.2641 -1.77598
163 1 -6.46478 10.9071 -0.168505 -6.46478 10.9071 -0.168505
164 2 -3.94543 10.9066 1.43416 -3.94543 10.9066 1.43416
165 2 -3.94905 10.9087 -1.77708 -3.94905 10.9087 -1.77708
166 1 -2.7627 12.5539 -0.171724 -2.7627 12.5539 -0.171724
167 2 -0.24932 12.5552 1.4306 -0.24932 12.5552 1.4306
168 2 -0.253024 12.5534 -1.78047 -0.253024 12.5534 -1.78047
169 1 0.932473 10.9078 -0.175424 0.932473 10.9078 -0.175424
170 2 3.44535 10.9104 1.42857 3.44535 10.9104 1.42857
171 2 3.44346 10.9062 -1.78248 3.44346 10.9062 -1.78248
172 1 4.62925 12.5544 -0.179778 4.62925 12.5544 -0.179778
173 2 7.14091 12.5574 1.42414 7.14091 12.5574 1.42414
174 2 7.13877 12.5518 -1.78695 7.13877 12.5518 -1.78695
175 1 8.32403 10.9083 -0.179263 8.32403 10.9083 -0.179263
176 2 10.837 10.9104 1.42578 10.837 10.9104 1.42578
177 2 10.8366 10.9057 -1.78541 10.8366 10.9057 -1.78541
178 1 12.0211 12.5541 -0.182353 12.0211 12.5541 -0.182353
179 2 14.5332 12.555 1.42536 14.5332 12.555 1.42536
180 2 14.5362 12.5521 -1.78575 14.5362 12.5521 -1.78575
181 1 15.7184 10.907 -0.177478 15.7184 10.907 -0.177478
182 2 18.2235 10.9071 1.43257 18.2235 10.9071 1.43257
183 2 18.23 10.9059 -1.77846 18.23 10.9059 -1.77846
184 1 19.4119 12.5523 -0.171172 19.4119 12.5523 -0.171172
185 2 21.9198 12.5508 1.44137 21.9198 12.5508 1.44137
186 2 21.929 12.5532 -1.76985 21.929 12.5532 -1.76985
187 1 23.1081 10.9055 -0.162176 23.1081 10.9055 -0.162176
188 2 25.6211 10.9016 1.44898 25.6211 10.9016 1.44898
189 2 25.6281 10.9087 -1.76232 25.6281 10.9087 -1.76232
190 1 26.8094 12.5511 -0.150437 26.8094 12.5511 -0.150437
191 2 29.3184 12.5443 1.46185 29.3184 12.5443 1.46185
192 2 29.327 12.5572 -1.74923 29.327 12.5572 -1.74923
193 1 30.507 10.9044 -0.147169 30.507 10.9044 -0.147169
194 2 33.0171 10.8974 1.46367 33.0171 10.8974 1.46367
195 2 33.0242 10.9109 -1.74748 33.0242 10.9109 -1.74748
196 1 34.2047 12.5505 -0.132474 34.2047 12.5505 -0.132474
197 2 36.7156 12.5414 1.47696 36.7156 12.5414 1.47696
198 2 36.7204 12.5593 -1.73419 36.7204 12.5593 -1.73419
199 1 37.902 10.9039 -0.136147 37.902 10.9039 -0.136147
200 2 40.4168 10.8943 1.46923 40.4168 10.8943 1.46923
201 2 40.4163 10.9134 -1.74189 40.4163 10.9134 -1.74189
202 1 41.6014 12.5499 -0.126872 41.6014 12.5499 -0.126872
203 2 44.118 12.5405 1.47566 44.118 12.5405 1.47566
204 2 44.1136 12.5598 -1.73554 44.1136 12.5598 -1.73554
205 1 45.2995 10.9037 -0.141519 45.2995 10.9037 -0.141519
206 2 47.8176 10.8959 1.45992 47.8176 10.8959 1.45992
207 2 47.8122 10.9127 -1.75136 47.8122 10.9127 -1.75136
208 1 48.9996 12.5505 -0.139117 48.9996 12.5505 -0.139117
209 2 51.5197 12.544 1.4604 51.5197 12.544 1.4604
210 2 51.5118 12.5587 -1.75083 51.5118 12.5587 -1.75083
211 1 52.6999 10.9053 -0.155607 52.6999 10.9053 -0.155607
212 2 55.2167 10.9015 1.44535 55.2167 10.9015 1.44535
213 2 55.211 10.9109 -1.76584 55.211 10.9109 -1.76584
214 1 56.3981 12.5526 -0.157479 56.3981 12.5526 -0.157479
215 2 58.9159 12.5502 1.44277 58.9159 12.5502 1.44277
216 2 58.9092 12.5565 -1.76852 58.9092 12.5565 -1.76852
217 1 -6.46387 14.1994 -0.162093 -6.46387 14.1994 -0.162093
218 2 -3.94386 14.1984 1.43799 -3.94386 14.1984 1.43799
219 2 -3.95046 14.2016 -1.77325 -3.95046 14.2016 -1.77325
220 1 -2.76307 15.8464 -0.168476 -2.76307 15.8464 -0.168476
221 2 -0.246639 15.8474 1.43064 -0.246639 15.8474 1.43064
222 2 -0.254884 15.846 -1.78048 -0.254884 15.846 -1.78048
223 1 0.933476 14.2005 -0.177163 0.933476 14.2005 -0.177163
224 2 3.44698 14.2026 1.42519 3.44698 14.2026 1.42519
225 2 3.44332 14.1989 -1.78583 3.44332 14.1989 -1.78583
226 1 4.62945 15.8471 -0.18353 4.62945 15.8471 -0.18353
227 2 7.14138 15.8487 1.41977 7.14138 15.8487 1.41977
228 2 7.13867 15.8453 -1.79136 7.13867 15.8453 -1.79136
229 1 8.32422 14.2007 -0.184941 8.32422 14.2007 -0.184941
230 2 10.8363 14.2021 1.42101 10.8363 14.2021 1.42101
231 2 10.8371 14.1985 -1.7902 10.8371 14.1985 -1.7902
232 1 12.021 15.8463 -0.186081 12.021 15.8463 -0.186081
233 2 14.5332 15.8467 1.4225 14.5332 15.8467 1.4225
234 2 14.5374 15.8448 -1.78865 14.5374 15.8448 -1.78865
235 1 15.7195 14.1994 -0.180466 15.7195 14.1994 -0.180466
236 2 18.224 14.199 1.43109 18.224 14.199 1.43109
237 2 18.2325 14.1987 -1.77994 18.2325 14.1987 -1.77994
238 1 19.4129 15.8449 -0.171458 19.4129 15.8449 -0.171458
239 2 21.9198 15.843 1.44309 21.9198 15.843 1.44309
240 2 21.9314 15.8458 -1.76805 21.9314 15.8458 -1.76805
241 1 23.1094 14.1979 -0.159609 23.1094 14.1979 -0.159609
242 2 25.6198 14.1939 1.45479 25.6198 14.1939 1.45479
243 2 25.6309 14.2011 -1.75644 25.6309 14.2011 -1.75644
244 1 26.8096 15.8438 -0.142962 26.8096 15.8438 -0.142962
245 2 29.3163 15.8379 1.4726 29.3163 15.8379 1.4726
246 2 29.329 15.8489 -1.73846 29.329 15.8489 -1.73846
247 1 30.507 14.197 -0.133975 30.507 14.197 -0.133975
248 2 33.0161 14.189 1.47819 33.0161 14.189 1.47819
249 2 33.024 14.2045 -1.73294 33.024 14.2045 -1.73294
250 1 34.2041 15.843 -0.116517 34.2041 15.843 -0.116517
251 2 36.716 15.8358 1.49336 36.716 15.8358 1.49336
252 2 36.7206 15.8498 -1.71782 36.7206 15.8498 -1.71782
253 1 37.9024 14.1965 -0.117826 37.9024 14.1965 -0.117826
254 2 40.4175 14.1873 1.48815 40.4175 14.1873 1.48815
255 2 40.4174 14.2055 -1.72301 40.4174 14.2055 -1.72301
256 1 41.602 15.8426 -0.108272 41.602 15.8426 -0.108272
257 2 44.1191 15.8351 1.49368 44.1191 15.8351 1.49368
258 2 44.1135 15.8501 -1.71752 44.1135 15.8501 -1.71752
259 1 45.3004 14.1964 -0.121673 45.3004 14.1964 -0.121673
260 2 47.8202 14.1892 1.47756 47.8202 14.1892 1.47756
261 2 47.8112 14.2044 -1.73362 47.8112 14.2044 -1.73362
262 1 49.0003 15.8431 -0.123441 49.0003 15.8431 -0.123441
263 2 51.5206 15.8386 1.47418 51.5206 15.8386 1.47418
264 2 51.5101 15.8489 -1.73707 51.5101 15.8489 -1.73707
265 1 52.6999 14.1978 -0.140623 52.6999 14.1978 -0.140623
266 2 55.2188 14.1934 1.45715 55.2188 14.1934 1.45715
267 2 55.2084 14.2037 -1.75405 55.2084 14.2037 -1.75405
268 1 56.3976 15.8449 -0.146906 56.3976 15.8449 -0.146906
269 2 58.9187 15.8426 1.45045 58.9187 15.8426 1.45045
270 2 58.9076 15.8483 -1.76088 58.9076 15.8483 -1.76088
271 1 -6.46396 17.4918 -0.156215 -6.46396 17.4918 -0.156215
272 2 -3.94226 17.4927 1.44088 -3.94226 17.4927 1.44088
273 2 -3.95346 17.492 -1.77034 -3.95346 17.492 -1.77034
274 1 -2.76412 19.1388 -0.169024 -2.76412 19.1388 -0.169024
275 2 -0.247091 19.1406 1.42884 -0.247091 19.1406 1.42884
276 2 -0.256538 19.1376 -1.78227 -0.256538 19.1376 -1.78227
277 1 0.933175 17.4931 -0.178572 0.933175 17.4931 -0.178572
278 2 3.44773 17.4952 1.42215 3.44773 17.4952 1.42215
279 2 3.44198 17.4913 -1.78889 3.44198 17.4913 -1.78889
280 1 4.6287 19.1397 -0.18735 4.6287 19.1397 -0.18735
281 2 7.14109 19.1414 1.41587 7.14109 19.1414 1.41587
282 2 7.13837 19.1372 -1.79528 7.13837 19.1372 -1.79528
283 1 8.32419 17.4931 -0.188458 8.32419 17.4931 -0.188458
284 2 10.8363 17.4942 1.41749 10.8363 17.4942 1.41749
285 2 10.8371 17.4909 -1.79374 10.8371 17.4909 -1.79374
286 1 12.0209 19.1386 -0.189386 12.0209 19.1386 -0.189386
287 2 14.5323 19.1389 1.42022 14.5323 19.1389 1.42022
288 2 14.5376 19.1371 -1.79095 14.5376 19.1371 -1.79095
289 1 15.7196 17.4919 -0.18233 15.7196 17.4919 -0.18233
290 2 18.2239 17.4911 1.43052 18.2239 17.4911 1.43052
291 2 18.2339 17.4914 -1.78054 18.2339 17.4914 -1.78054
292 1 19.4129 19.1375 -0.171101 19.4129 19.1375 -0.171101
293 2 21.9191 19.1355 1.44517 21.9191 19.1355 1.44517
294 2 21.9332 19.1384 -1.76597 21.9332 19.1384 -1.76597
295 1 23.1103 17.4905 -0.156662 23.1103 17.4905 -0.156662
296 2 25.6181 17.4873 1.46022 25.6181 17.4873 1.46022
297 2 25.6326 17.4931 -1.75093 25.6326 17.4931 -1.75093
298 1 26.8095 19.1366 -0.137028 26.8095 19.1366 -0.137028
299 2 29.3148 19.1333 1.48036 29.3148 19.1333 1.48036
300 2 29.3299 19.139 -1.73068 29.3299 19.139 -1.73068
301 1 30.5067 17.4897 -0.122705 30.5067 17.4897 -0.122705
302 2 33.0151 17.4841 1.491 33.0151 17.4841 1.491
303 2 33.0248 17.4947 -1.72018 33.0248 17.4947 -1.72018
304 1 34.2042 19.1355 -0.105641 34.2042 19.1355 -0.105641
305 2 36.7156 19.1305 1.50514 36.7156 19.1305 1.50514
306 2 36.7213 19.14 -1.70608 36.7213 19.14 -1.70608
307 1 37.9027 17.489 -0.103329 37.9027 17.489 -0.103329
308 2 40.4172 17.4829 1.50339 40.4172 17.4829 1.50339
309 2 40.418 17.4949 -1.70782 40.418 17.4949 -1.70782
310 1 41.6015 19.1353 -0.0958017 41.6015 19.1353 -0.0958017
311 2 44.1183 19.1296 1.50675 44.1183 19.1296 1.50675
312 2 44.1135 19.1406 -1.70448 44.1135 19.1406 -1.70448
313 1 45.3004 17.489 -0.106324 45.3004 17.489 -0.106324
314 2 47.8208 17.4829 1.4923 47.8208 17.4829 1.4923
315 2 47.8113 17.4957 -1.71889 47.8113 17.4957 -1.71889
316 1 49 19.1358 -0.11023 49 19.1358 -0.11023
317 2 51.5212 19.1317 1.48521 51.5212 19.1317 1.48521
318 2 51.5077 19.1408 -1.72595 51.5077 19.1408 -1.72595
319 1 52.6991 17.4903 -0.129966 52.6991 17.4903 -0.129966
320 2 55.2191 17.4877 1.46634 55.2191 17.4877 1.46634
321 2 55.207 17.494 -1.74487 55.207 17.494 -1.74487
322 1 56.3972 19.1372 -0.140413 56.3972 19.1372 -0.140413
323 2 58.9189 19.1368 1.45506 58.9189 19.1368 1.45506
324 2 58.906 19.1386 -1.75621 58.906 19.1386 -1.75621
325 1 -6.46494 20.7841 -0.15442 -6.46494 20.7841 -0.15442
326 2 -3.94218 20.7861 1.44012 -3.94218 20.7861 1.44012
327 2 -3.95654 20.7829 -1.7711 -3.95654 20.7829 -1.7711
328 1 -2.76615 22.4312 -0.17219 -2.76615 22.4312 -0.17219
329 2 -0.248459 22.4341 1.42496 -0.248459 22.4341 1.42496
330 2 -0.258899 22.4289 -1.78622 -0.258899 22.4289 -1.78622
331 1 0.931616 20.7857 -0.181697 0.931616 20.7857 -0.181697
332 2 3.44695 20.7876 1.41857 3.44695 20.7876 1.41857
333 2 3.44061 20.7839 -1.7925 3.44061 20.7839 -1.7925
334 1 4.62745 22.4321 -0.191108 4.62745 22.4321 -0.191108
335 2 7.1405 22.4333 1.41204 7.1405 22.4333 1.41204
336 2 7.13775 22.4301 -1.79906 7.13775 22.4301 -1.79906
337 1 8.32377 20.7855 -0.192725 8.32377 20.7855 -0.192725
338 2 10.8354 20.7866 1.4137 10.8354 20.7866 1.4137
339 2 10.8368 20.7829 -1.7975 10.8368 20.7829 -1.7975
340 1 12.0198 22.431 -0.193114 12.0198 22.431 -0.193114
341 2 14.5302 22.432 1.41721 14.5302 22.432 1.41721
342 2 14.5369 22.4288 -1.79387 14.5369 22.4288 -1.79387
343 1 15.7186 20.7843 -0.184098 15.7186 20.7843 -0.184098
344 2 18.2224 20.7839 1.42994 18.2224 20.7839 1.42994
345 2 18.2337 20.7834 -1.7811 18.2337 20.7834 -1.7811
346 1 19.4115 22.4302 -0.171557 19.4115 22.4302 -0.171557
347 2 21.9175 22.4301 1.44566 21.9175 22.4301 1.44566
348 2 21.9325 22.4289 -1.76551 21.9325 22.4289 -1.76551
349 1 23.11 20.7834 -0.153732 23.11 20.7834 -0.153732
350 2 25.6173 20.782 1.46388 25.6173 20.782 1.46388
351 2 25.6326 20.7839 -1.74731 25.6326 20.7839 -1.74731
352 1 26.8087 22.4294 -0.135137 26.8087 22.4294 -0.135137
353 2 29.3158 22.4305 1.48207 29.3158 22.4305 1.48207
354 2 29.3302 22.4275 -1.72907 29.3302 22.4275 -1.72907
355 1 30.5069 20.7823 -0.116697 30.5069 20.7823 -0.116697
356 2 33.0146 20.7797 1.4981 33.0146 20.7797 1.4981
357 2 33.0254 20.7839 -1.71303 33.0254 20.7839 -1.71303
358 1 34.2044 22.428 -0.101399 34.2044 22.428 -0.101399
359 2 36.7148 22.4275 1.51002 36.7148 22.4275 1.51002
360 2 36.7211 22.428 -1.70113 36.7211 22.428 -1.70113
361 1 37.9026 20.7815 -0.093535 37.9026 20.7815 -0.093535
362 2 40.4168 20.7785 1.51287 40.4168 20.7785 1.51287
363 2 40.4166 20.7842 -1.69831 40.4166 20.7842 -1.69831
364 1 41.6005 22.4278 -0.0898126 41.6005 22.4278 -0.0898126
365 2 44.1175 22.4276 1.51262 44.1175 22.4276 1.51262
366 2 44.1121 22.4278 -1.69861 44.1121 22.4278 -1.69861
367 1 45.2996 20.7816 -0.0950657 45.2996 20.7816 -0.0950657
368 2 47.8205 20.7784 1.50293 47.8205 20.7784 1.50293
369 2 47.8097 20.7853 -1.70827 47.8097 20.7853 -1.70827
370 1 48.9987 22.4285 -0.103122 48.9987 22.4285 -0.103122
371 2 51.5221 22.428 1.49138 51.5221 22.428 1.49138
372 2 51.5065 22.4296 -1.71985 51.5065 22.4296 -1.71985
373 1 52.6986 20.7827 -0.12064 52.6986 20.7827 -0.12064
374 2 55.2207 20.7813 1.47293 55.2207 20.7813 1.47293
375 2 55.2048 20.7851 -1.73826 55.2048 20.7851 -1.73826
376 1 56.397 22.4295 -0.136518 56.397 22.4295 -0.136518
377 2 58.9196 22.4309 1.45627 58.9196 22.4309 1.45627
378 2 58.903 22.429 -1.75495 58.903 22.429 -1.75495
379 1 -6.46629 24.0765 -0.156367 -6.46629 24.0765 -0.156367
380 2 -3.94378 24.079 1.43683 -3.94378 24.079 1.43683
381 2 -3.95977 24.0745 -1.77434 -3.95977 24.0745 -1.77434
382 1 -2.76863 25.7234 -0.176739 -2.76863 25.7234 -0.176739
383 2 -0.250812 25.7262 1.41997 -0.250812 25.7262 1.41997
384 2 -0.26167 25.7213 -1.79116 -0.26167 25.7213 -1.79116
385 1 0.929413 24.0781 -0.187012 0.929413 24.0781 -0.187012
386 2 3.44504 24.0807 1.41378 3.44504 24.0807 1.41378
387 2 3.43983 24.0756 -1.79732 3.43983 24.0756 -1.79732
388 1 4.62607 25.7246 -0.196216 4.62607 25.7246 -0.196216
389 2 7.13833 25.7254 1.40842 7.13833 25.7254 1.40842
390 2 7.13779 25.723 -1.8027 7.13779 25.723 -1.8027
391 1 8.32296 24.078 -0.196118 8.32296 24.078 -0.196118
392 2 10.8344 24.0788 1.41032 10.8344 24.0788 1.41032
393 2 10.8359 24.0759 -1.80082 10.8359 24.0759 -1.80082
394 1 12.0191 25.7237 -0.196003 12.0191 25.7237 -0.196003
395 2 14.5278 25.7232 1.41506 14.5278 25.7232 1.41506
396 2 14.5358 25.723 -1.79594 14.5358 25.723 -1.79594
397 1 15.717 24.077 -0.187334 15.717 24.077 -0.187334
398 2 18.2196 24.0773 1.42796 18.2196 24.0773 1.42796
399 2 18.2329 24.0752 -1.78306 18.2329 24.0752 -1.78306
400 1 19.4094 25.7229 -0.173694 19.4094 25.7229 -0.173694
401 2 21.9146 25.723 1.44391 21.9146 25.723 1.44391
402 2 21.9304 25.7213 -1.76723 21.9304 25.7213 -1.76723
403 1 23.1081 24.0762 -0.155011 23.1081 24.0762 -0.155011
404 2 25.6157 24.0769 1.46319 25.6157 24.0769 1.46319
405 2 25.6319 24.0742 -1.7481 25.6319 24.0742 -1.7481
406 1 26.8073 25.7219 -0.137926 26.8073 25.7219 -0.137926
407 2 29.3159 25.7234 1.47874 29.3159 25.7234 1.47874
408 2 29.3295 25.7193 -1.73245 29.3295 25.7193 -1.73245
409 1 30.5074 24.0751 -0.119637 30.5074 24.0751 -0.119637
410 2 33.0135 24.0766 1.49707 33.0135 24.0766 1.49707
411 2 33.0277 24.0726 -1.71404 33.0277 24.0726 -1.71404
412 1 34.2053 25.7207 -0.105424 34.2053 25.7207 -0.105424
413 2 36.7136 25.7239 1.50641 36.7136 25.7239 1.50641
414 2 36.7207 25.7169 -1.70468 36.7207 25.7169 -1.70468
415 1 37.9018 24.0742 -0.0930415 37.9018 24.0742 -0.0930415
416 2 40.4155 24.0757 1.51387 40.4155 24.0757 1.51387
417 2 40.4161 24.0723 -1.69733 40.4161 24.0723 -1.69733
418 1 41.5995 25.7205 -0.0933104 41.5995 25.7205 -0.0933104
419 2 44.1162 25.724 1.50892 44.1162 25.724 1.50892
420 2 44.1108 25.7166 -1.70234 44.1108 25.7166 -1.70234
421 1 45.2984 24.0743 -0.0949159 45.2984 24.0743 -0.0949159
422 2 47.819 24.0775 1.50329 47.819 24.0775 1.50329
423 2 47.8084 24.0714 -1.70797 47.8084 24.0714 -1.70797
424 1 48.9975 25.7209 -0.109277 48.9975 25.7209 -0.109277
425 2 51.5201 25.7251 1.48712 51.5201 25.7251 1.48712
426 2 51.5079 25.7173 -1.72415 51.5079 25.7173 -1.72415
427 1 52.6986 24.0751 -0.119116 52.6986 24.0751 -0.119116
428 2 55.2211 24.0772 1.4737 55.2211 24.0772 1.4737
429 2 55.2042 24.0742 -1.73746 55.2042 24.0742 -1.73746
430 1 56.3969 25.722 -0.139607 56.3969 25.722 -0.139607
431 2 58.9185 25.7252 1.45265 58.9185 25.7252 1.45265
432 2 58.9012 25.7196 -1.75847 58.9012 25.7196 -1.75847
433 1 -6.46758 27.3689 -0.162091 -6.46758 27.3689 -0.162091
434 2 -3.94622 27.3717 1.43169 -3.94622 27.3717 1.43169
435 2 -3.96138 27.3667 -1.77947 -3.96138 27.3667 -1.77947
436 1 -2.77017 29.0157 -0.181912 -2.77017 29.0157 -0.181912
437 2 -0.252863 29.0185 1.41515 -0.252863 29.0185 1.41515
438 2 -0.263747 29.0139 -1.796 -0.263747 29.0139 -1.796
439 1 0.926933 27.3704 -0.191898 0.926933 27.3704 -0.191898
440 2 3.44356 27.3727 1.40902 3.44356 27.3727 1.40902
441 2 3.43815 27.3683 -1.80216 3.43815 27.3683 -1.80216
442 1 4.62411 29.0171 -0.20062 4.62411 29.0171 -0.20062
443 2 7.13583 29.0178 1.40549 7.13583 29.0178 1.40549
444 2 7.13743 29.0158 -1.80566 7.13743 29.0158 -1.80566
445 1 8.32166 27.3707 -0.198543 8.32166 27.3707 -0.198543
446 2 10.8333 27.3699 1.40867 10.8333 27.3699 1.40867
447 2 10.8356 27.3702 -1.80243 10.8356 27.3702 -1.80243
448 1 12.0183 29.0166 -0.195748 12.0183 29.0166 -0.195748
449 2 14.5259 29.0147 1.41612 14.5259 29.0147 1.41612
450 2 14.5348 29.0175 -1.79489 14.5348 29.0175 -1.79489
451 1 15.7153 27.3698 -0.187521 15.7153 27.3698 -0.187521
452 2 18.2182 27.3693 1.42709 18.2182 27.3693 1.42709
453 2 18.2304 27.369 -1.78384 18.2304 27.369 -1.78384
454 1 19.4077 29.0158 -0.173972 19.4077 29.0158 -0.173972
455 2 21.914 29.0168 1.44202 21.914 29.0168 1.44202
456 2 21.9275 29.0133 -1.76912 21.9275 29.0133 -1.76912
457 1 23.1056 27.3687 -0.156746 23.1056 27.3687 -0.156746
458 2 25.6153 27.3702 1.46022 25.6153 27.3702 1.46022
459 2 25.6294 27.3658 -1.75111 25.6294 27.3658 -1.75111
460 1 26.806 29.0143 -0.142531 26.806 29.0143 -0.142531
461 2 29.3152 29.0185 1.47249 29.3152 29.0185 1.47249
462 2 29.3267 29.0089 -1.73876 29.3267 29.0089 -1.73876
463 1 30.5063 27.3678 -0.12392 30.5063 27.3678 -0.12392
464 2 33.0158 27.373 1.49042 33.0158 27.373 1.49042
465 2 33.0263 27.3614 -1.72075 33.0263 27.3614 -1.72075
466 1 34.2048 29.0136 -0.117222 34.2048 29.0136 -0.117222
467 2 36.714 29.0229 1.49335 36.714 29.0229 1.49335
468 2 36.7198 29.0035 -1.71768 36.7198 29.0035 -1.71768
469 1 37.9012 27.3668 -0.100194 37.9012 27.3668 -0.100194
470 2 40.4146 27.3724 1.5063 40.4146 27.3724 1.5063
471 2 40.4142 27.3606 -1.70485 40.4142 27.3606 -1.70485
472 1 41.5978 29.0131 -0.10551 41.5978 29.0131 -0.10551
473 2 44.1151 29.0209 1.49677 44.1151 29.0209 1.49677
474 2 44.1093 29.0046 -1.71447 44.1093 29.0046 -1.71447
475 1 45.2971 27.3668 -0.102583 45.2971 27.3668 -0.102583
476 2 47.8182 27.3717 1.49536 47.8182 27.3717 1.49536
477 2 47.8072 27.3621 -1.71591 47.8072 27.3621 -1.71591
478 1 48.9964 29.0134 -0.119255 48.9964 29.0134 -0.119255
479 2 51.5205 29.0215 1.47589 51.5205 29.0215 1.47589
480 2 51.5062 29.0058 -1.73537 51.5062 29.0058 -1.73537
481 1 52.698 27.3676 -0.126988 52.698 27.3676 -0.126988
482 2 55.2202 27.3731 1.46667 55.2202 27.3731 1.46667
483 2 55.2042 27.3631 -1.74449 55.2042 27.3631 -1.74449
484 1 56.3957 29.0147 -0.149849 56.3957 29.0147 -0.149849
485 2 58.9164 29.0198 1.44405 58.9164 29.0198 1.44405
486 2 58.9013 29.0102 -1.76703 58.9013 29.0102 -1.76703
487 1 -6.46836 30.6615 -0.171898 -6.46836 30.6615 -0.171898
488 2 -3.94855 30.6659 1.42392 -3.94855 30.6659 1.42392
489 2 -3.96118 30.6577 -1.78716 -3.96118 30.6577 -1.78716
490 1 -2.77058 32.3081 -0.190343 -2.77058 32.3081 -0.190343
491 2 -0.256474 32.3105 1.40943 -0.256474 32.3105 1.40943
492 2 -0.263319 32.3066 -1.80171 -0.263319 32.3066 -1.80171
493 1 0.925158 30.6627 -0.196605 0.925158 30.6627 -0.196605
494 2 3.44061 30.6636 1.4055 3.44061 30.6636 1.4055
495 2 3.43686 30.6622 -1.80565 3.43686 30.6622 -1.80565
496 1 4.62215 32.3095 -0.202071 4.62215 32.3095 -0.202071
497 2 7.13347 32.3079 1.40548 7.13347 32.3079 1.40548
498 2 7.13671 32.3109 -1.80567 7.13671 32.3109 -1.80567
499 1 8.32013 30.6633 -0.200463 8.32013 30.6633 -0.200463
500 2 10.8301 30.6608 1.40948 10.8301 30.6608 1.40948
501 2 10.8365 30.6649 -1.80161 10.8365 30.6649 -1.80161
502 1 12.0166 32.3096 -0.191634 12.0166 32.3096 -0.191634
503 2 14.5244 32.3062 1.42046 14.5244 32.3062 1.42046
504 2 14.5332 32.3119 -1.79049 14.5332 32.3119 -1.79049
505 1 15.7138 30.6627 -0.184647 15.7138 30.6627 -0.184647
506 2 18.2175 30.6606 1.42906 18.2175 30.6606 1.42906
507 2 18.2285 30.6637 -1.78197 18.2285 30.6637 -1.78197
508 1 19.4069 32.3085 -0.170924 19.4069 32.3085 -0.170924
509 2 21.9162 32.3077 1.44199 21.9162 32.3077 1.44199
510 2 21.9256 32.308 -1.76921 21.9256 32.308 -1.76921
511 1 23.105 30.6612 -0.160318 23.105 30.6612 -0.160318
512 2 25.6146 30.6638 1.45502 25.6146 30.6638 1.45502
513 2 25.6274 30.6571 -1.75621 25.6274 30.6571 -1.75621
514 1 26.8049 32.3068 -0.14939 26.8049 32.3068 -0.14939
515 2 29.3147 32.3114 1.46313 29.3147 32.3114 1.46313
516 2 29.3236 32.3009 -1.74806 29.3236 32.3009 -1.74806
517 1 30.5043 30.6601 -0.133895 30.5043 30.6601 -0.133895
518 2 33.0157 30.6674 1.4777 33.0157 30.6674 1.4777
519 2 33.0231 30.6517 -1.73348 33.0231 30.6517 -1.73348
520 1 34.2024 32.3061 -0.133272 34.2024 32.3061 -0.133272
521 2 36.7144 32.3147 1.47508 36.7144 32.3147 1.47508
522 2 36.718 32.2967 -1.73599 36.718 32.2967 -1.73599
523 1 37.901 30.6595 -0.119957 37.901 30.6595 -0.119957
524 2 40.4116 30.6701 1.48796 40.4116 30.6701 1.48796
525 2 40.4145 30.6485 -1.72307 40.4145 30.6485 -1.72307
526 1 41.5972 32.3056 -0.127753 41.5972 32.3056 -0.127753
527 2 44.1128 32.3166 1.47585 44.1128 32.3166 1.47585
528 2 44.1099 32.294 -1.73533 44.1099 32.294 -1.73533
529 1 45.2959 30.6592 -0.119356 45.2959 30.6592 -0.119356
530 2 47.8158 30.6691 1.47967 47.8158 30.6691 1.47967
531 2 47.8067 30.6493 -1.73157 47.8067 30.6493 -1.73157
532 1 48.9947 32.3057 -0.1395 48.9947 32.3057 -0.1395
533 2 51.5178 32.3155 1.45723 51.5178 32.3155 1.45723
534 2 51.506 32.2964 -1.75404 51.506 32.2964 -1.75404
535 1 52.6971 30.6601 -0.142932 52.6971 30.6601 -0.142932
536 2 55.2173 30.6687 1.45229 55.2173 30.6687 1.45229