ITEM: TIMESTEP
5967000
ITEM: NUMBER OF ATOMS
810
ITEM: BOX BOUNDS pp pp pp
-1.4439875278344523e+01 6.7457480278343581e+01
8.1394622342039402e-01 5.0202268776579182e+01
-1.0000000000000000e+01 1.0000000000000000e+01
ITEM: ATOMS id type x y z xu yu zu
1 1 -3.02877 1.03107 -0.412122 -3.02877 1.03107 -0.412122
2 2 -1.1889 1.01169 1.28766 -1.1889 1.01169 1.28766
3 2 -1.06928 1.04847 -1.97218 -1.06928 1.04847 -1.97218
4 1 -0.180283 2.67653 -0.288187 -0.180283 2.67653 -0.288187
5 2 1.68611 2.66589 1.38207 1.68611 2.66589 1.38207
6 2 1.75445 2.68558 -1.87947 1.75445 2.68558 -1.87947
7 1 2.67015 1.02888 -0.238914 2.67015 1.02888 -0.238914
8 2 4.54921 1.0218 1.41704 4.54921 1.0218 1.41704
9 2 4.59243 1.03495 -1.84496 4.59243 1.03495 -1.84496
10 1 5.52146 2.67457 -0.194614 5.52146 2.67457 -0.194614
11 2 7.4216 2.67765 1.43731 7.4216 2.67765 1.43731
12 2 7.42338 2.67 -1.825 7.42338 2.67 -1.825
13 1 8.37254 1.02723 -0.189677 8.37254 1.02723 -0.189677
14 2 10.2723 1.03465 1.44273 10.2723 1.03465 1.44273
15 2 10.2749 1.01933 -1.81953 10.2749 1.01933 -1.81953
16 1 11.224 2.67346 -0.195576 11.224 2.67346 -0.195576
17 2 13.126 2.68059 1.4341 13.126 2.68059 1.4341
18 2 13.1239 2.66644 -1.82818 13.1239 2.66644 -1.82818
19 1 14.0749 1.02682 -0.190669 14.0749 1.02682 -0.190669
20 2 15.9817 1.03996 1.4332 15.9817 1.03996 1.4332
21 2 15.9696 1.01363 -1.82897 15.9696 1.01363 -1.82897
22 1 16.926 2.6735 -0.214791 16.926 2.6735 -0.214791
23 2 18.837 2.68635 1.40413 18.837 2.68635 1.40413
24 2 18.8165 2.66172 -1.85803 18.8165 2.66172 -1.85803
25 1 19.7768 1.02741 -0.220661 19.7768 1.02741 -0.220661
26 2 21.6923 1.04738 1.39293 21.6923 1.04738 1.39293
27 2 21.6631 1.00799 -1.86895 21.6631 1.00799 -1.86895
28 1 22.6288 2.67373 -0.266752 22.6288 2.67373 -0.266752
29 2 24.5452 2.68333 1.34621 24.5452 2.68333 1.34621
30 2 24.5149 2.66386 -1.91577 24.5149 2.66386 -1.91577
31 1 25.4807 1.02726 -0.283881 25.4807 1.02726 -0.283881
32 2 27.3912 1.0397 1.33615 27.3912 1.0397 1.33615
33 2 27.3729 1.0149 -1.92591 27.3729 1.0149 -1.92591
34 1 28.3331 2.67356 -0.313236 28.3331 2.67356 -0.313236
35 2 30.2286 2.66979 1.32443 30.2286 2.66979 1.32443
36 2 30.2402 2.67747 -1.93778 30.2402 2.67747 -1.93778
37 1 31.1847 1.02713 -0.307239 31.1847 1.02713 -0.307239
38 2 33.0648 1.03365 1.3485 33.0648 1.03365 1.3485
39 2 33.1064 1.02158 -1.91351 33.1064 1.02158 -1.91351
40 1 34.0362 2.67424 -0.276167 34.0362 2.67424 -0.276167
41 2 35.9103 2.67676 1.38613 35.9103 2.67676 1.38613
42 2 35.9637 2.67356 -1.87573 35.9637 2.67356 -1.87573
43 1 36.8874 1.02885 -0.227381 36.8874 1.02885 -0.227381
44 2 38.7721 1.025 1.42332 38.7721 1.025 1.42332
45 2 38.8053 1.03327 -1.83911 38.8053 1.03327 -1.83911
46 1 39.7393 2.67477 -0.194394 39.7393 2.67477 -0.194394
47 2 41.6149 2.66144 1.40792 41.6149 2.66144 1.40792
48 2 41.6217 2.68641 -1.78881 41.6217 2.68641 -1.78881
49 1 42.6594 1.02807 -0.200508 42.6594 1.02807 -0.200508
50 2 -6.64277 1.01489 1.19859 75.2546 1.01489 1.19859
51 2 -7.41621 1.03898 -1.56275 74.4812 1.03898 -1.56275
52 1 -5.86297 2.67894 -0.493172 76.0344 2.67894 -0.493172
53 2 -4.05219 2.64206 1.22445 77.8452 2.64206 1.22445
54 2 -3.9144 2.71363 -2.05254 77.983 2.71363 -2.05254
55 1 -3.03153 4.32414 -0.340729 -3.03153 4.32414 -0.340729
56 2 -1.17801 4.29579 1.34321 -1.17801 4.29579 1.34321
57 2 -1.08378 4.35068 -1.91706 -1.08378 4.35068 -1.91706
58 1 -0.180945 5.96928 -0.231217 -0.180945 5.96928 -0.231217
59 2 1.703 5.95202 1.41948 1.703 5.95202 1.41948
60 2 1.73727 5.98544 -1.84243 1.73727 5.98544 -1.84243
61 1 2.67046 4.32201 -0.218674 2.67046 4.32201 -0.218674
62 2 4.55834 4.32323 1.42717 4.55834 4.32323 1.42717
63 2 4.58437 4.31939 -1.83504 4.58437 4.31939 -1.83504
64 1 5.52132 5.96777 -0.198379 5.52132 5.96777 -0.198379
65 2 7.42244 5.96813 1.43232 7.42244 5.96813 1.43232
66 2 7.4221 5.96541 -1.82998 7.4221 5.96541 -1.82998
67 1 8.3728 4.32027 -0.197319 8.3728 4.32027 -0.197319
68 2 10.2758 4.32497 1.43163 10.2758 4.32497 1.43163
69 2 10.2719 4.31496 -1.83069 10.2719 4.31496 -1.83069
70 1 11.2244 5.9662 -0.205587 11.2244 5.9662 -0.205587
71 2 13.1312 5.97682 1.41886 13.1312 5.97682 1.41886
72 2 13.1197 5.9559 -1.84341 13.1197 5.9559 -1.84341
73 1 14.0755 4.31997 -0.204968 14.0755 4.31997 -0.204968
74 2 15.9852 4.32607 1.4157 15.9852 4.32607 1.4157
75 2 15.9673 4.31436 -1.84659 15.9673 4.31436 -1.84659
76 1 16.9271 5.96649 -0.226909 16.9271 5.96649 -0.226909
77 2 18.8398 5.96899 1.39025 18.8398 5.96899 1.39025
78 2 18.8161 5.96442 -1.87203 18.8161 5.96442 -1.87203
79 1 19.7777 4.32017 -0.245571 19.7777 4.32017 -0.245571
80 2 21.6919 4.32256 1.36989 21.6919 4.32256 1.36989
81 2 21.6655 4.31805 -1.89229 21.6655 4.31805 -1.89229
82 1 22.6299 5.96644 -0.271521 22.6299 5.96644 -0.271521
83 2 24.5441 5.95797 1.34388 24.5441 5.95797 1.34388
84 2 24.5178 5.97507 -1.9182 24.5178 5.97507 -1.9182
85 1 25.4812 4.31991 -0.303594 25.4812 4.31991 -0.303594
86 2 27.3847 4.31412 1.32509 27.3847 4.31412 1.32509
87 2 27.3806 4.32594 -1.93708 27.3806 4.32594 -1.93708
88 1 28.3331 5.96661 -0.301104 28.3331 5.96661 -0.301104
89 2 30.2263 5.95421 1.33961 30.2263 5.95421 1.33961
90 2 30.2424 5.97913 -1.92252 30.2424 5.97913 -1.92252
91 1 31.1848 4.32021 -0.299353 31.1848 4.32021 -0.299353
92 2 33.0683 4.31324 1.35231 33.0683 4.31324 1.35231
93 2 33.1031 4.32783 -1.9098 33.1031 4.32783 -1.9098
94 1 34.0362 5.9667 -0.260746 34.0362 5.9667 -0.260746
95 2 35.9199 5.96649 1.39088 35.9199 5.96649 1.39088
96 2 35.9544 5.96755 -1.87131 35.9544 5.96755 -1.87131
97 1 36.888 4.32104 -0.230718 36.888 4.32104 -0.230718
98 2 38.7701 4.3233 1.42287 38.7701 4.3233 1.42287
99 2 38.8085 4.31852 -1.83957 38.8085 4.31852 -1.83957
100 1 39.7395 5.96659 -0.199925 39.7395 5.96659 -0.199925
101 2 41.6 5.95412 1.42012 41.6 5.95412 1.42012
102 2 41.6363 5.97731 -1.7765 41.6363 5.97731 -1.7765
103 1 42.6597 4.31978 -0.176558 42.6597 4.31978 -0.176558
104 2 -6.63802 4.27747 1.26192 75.2593 4.27747 1.26192
105 2 -7.43843 4.35312 -1.47821 74.4589 4.35312 -1.47821
106 1 -5.86661 5.97524 -0.407205 76.0307 5.97524 -0.407205
107 2 -4.05994 5.91072 1.31682 77.8374 5.91072 1.31682
108 2 -3.90969 6.03142 -1.95666 77.9877 6.03142 -1.95666
109 1 -3.03267 7.61612 -0.215036 -3.03267 7.61612 -0.215036
110 2 -1.14342 7.57971 1.42913 -1.14342 7.57971 1.42913
111 2 -1.11868 7.65209 -1.83225 -1.11868 7.65209 -1.83225
112 1 -0.181374 9.262 -0.158553 -0.181374 9.262 -0.158553
113 2 1.72494 9.24641 1.46585 1.72494 9.24641 1.46585
114 2 1.71406 9.27737 -1.79635 1.71406 9.27737 -1.79635
115 1 2.66989 7.61524 -0.184532 2.66989 7.61524 -0.184532
116 2 4.57551 7.60944 1.44072 4.57551 7.60944 1.44072
117 2 4.5659 7.61939 -1.82159 4.5659 7.61939 -1.82159
118 1 5.52081 9.26074 -0.188333 5.52081 9.26074 -0.188333
119 2 7.42656 9.25587 1.43725 7.42656 9.25587 1.43725
120 2 7.41718 9.2635 -1.82498 7.41718 9.2635 -1.82498
121 1 8.37259 7.6131 -0.200571 8.37259 7.6131 -0.200571
122 2 10.2783 7.6159 1.42483 10.2783 7.6159 1.42483
123 2 10.269 7.60871 -1.83744 10.269 7.60871 -1.83744
124 1 11.2239 9.25882 -0.212911 11.2239 9.25882 -0.212911
125 2 13.13 9.2544 1.41225 13.13 9.2544 1.41225
126 2 13.1201 9.26321 -1.85003 13.1201 9.26321 -1.85003
127 1 14.0759 7.61271 -0.226333 14.0759 7.61271 -0.226333
128 2 15.9783 7.61483 1.40305 15.9783 7.61483 1.40305
129 2 15.9756 7.61099 -1.85927 15.9756 7.61099 -1.85927
130 1 16.9275 9.2592 -0.23101 16.9275 9.2592 -0.23101
131 2 18.8342 9.24973 1.39344 18.8342 9.24973 1.39344
132 2 18.8229 9.26845 -1.86884 18.8229 9.26845 -1.86884
133 1 19.7788 7.61281 -0.250317 19.7788 7.61281 -0.250317
134 2 21.6873 7.60514 1.37202 21.6873 7.60514 1.37202
135 2 21.6724 7.62087 -1.89023 21.6724 7.62087 -1.89023
136 1 22.6301 9.25945 -0.255562 22.6301 9.25945 -0.255562
137 2 24.5379 9.24131 1.36726 24.5379 9.24131 1.36726
138 2 24.5241 9.27779 -1.89484 24.5241 9.27779 -1.89484
139 1 25.4814 7.61307 -0.286237 25.4814 7.61307 -0.286237
140 2 27.3824 7.59825 1.345 27.3824 7.59825 1.345
141 2 27.3825 7.62781 -1.91715 27.3825 7.62781 -1.91715
142 1 28.333 9.25912 -0.270878 28.333 9.25912 -0.270878
143 2 30.2263 9.24252 1.36943 30.2263 9.24252 1.36943
144 2 30.2419 9.27554 -1.89271 30.2419 9.27554 -1.89271
145 1 31.1848 7.61288 -0.273955 31.1848 7.61288 -0.273955
146 2 33.0732 7.60442 1.37179 33.0732 7.60442 1.37179
147 2 33.0982 7.62134 -1.89043 33.0982 7.62134 -1.89043
148 1 34.0365 9.25882 -0.243499 34.0365 9.25882 -0.243499
149 2 35.9251 9.25208 1.40174 35.9251 9.25208 1.40174
150 2 35.9499 9.26533 -1.86055 35.9499 9.26533 -1.86055
151 1 36.8881 7.61276 -0.229429 36.8881 7.61276 -0.229429
152 2 38.7774 7.62086 1.41537 38.7774 7.62086 1.41537
153 2 38.8011 7.6042 -1.84719 38.8011 7.6042 -1.84719
154 1 39.7396 9.25853 -0.218114 39.7396 9.25853 -0.218114
155 2 41.5778 9.24768 1.42589 41.5778 9.24768 1.42589
156 2 41.6581 9.26814 -1.76993 41.6581 9.26814 -1.76993
157 1 42.659 7.61176 -0.156013 42.659 7.61176 -0.156013
158 2 -6.65408 7.4953 1.40175 75.2433 7.4953 1.40175
159 2 -7.34601 7.71612 -1.43405 74.5513 7.71612 -1.43405
160 1 -5.8633 9.2605 -0.179564 76.0341 9.2605 -0.179564
161 2 -3.99771 9.21953 1.46783 77.8996 9.21953 1.46783
162 2 -3.98583 9.30277 -1.81323 77.9115 9.30277 -1.81323
163 1 -3.03384 10.9068 -0.123376 -3.03384 10.9068 -0.123376
164 2 -1.13328 10.8701 1.50924 -1.13328 10.8701 1.50924
165 2 -1.13155 10.9453 -1.75221 -1.13155 10.9453 -1.75221
166 1 -0.183093 12.5542 -0.0826955 -0.183093 12.5542 -0.0826955
167 2 1.74221 12.5275 1.51957 1.74221 12.5275 1.51957
168 2 1.69385 12.5811 -1.7419 1.69385 12.5811 -1.7419
169 1 2.66914 10.9083 -0.152637 2.66914 10.9083 -0.152637
170 2 4.58295 10.8944 1.46324 4.58295 10.8944 1.46324
171 2 4.55734 10.9202 -1.79886 4.55734 10.9202 -1.79886
172 1 5.52024 12.5536 -0.162127 5.52024 12.5536 -0.162127
173 2 7.4335 12.5434 1.45482 7.4335 12.5434 1.45482
174 2 7.40903 12.5619 -1.80731 7.40903 12.5619 -1.80731
175 1 8.37201 10.9061 -0.192763 8.37201 10.9061 -0.192763
176 2 10.281 10.899 1.42906 10.281 10.899 1.42906
177 2 10.265 10.9112 -1.83316 10.265 10.9112 -1.83316
178 1 11.2231 12.5518 -0.200499 11.2231 12.5518 -0.200499
179 2 13.1289 12.5425 1.42535 13.1289 12.5425 1.42535
180 2 13.1197 12.5602 -1.8368 13.1197 12.5602 -1.8368
181 1 14.0754 10.9053 -0.217339 14.0754 10.9053 -0.217339
182 2 15.9804 10.8982 1.4096 15.9804 10.8982 1.4096
183 2 15.9731 10.9127 -1.85258 15.9731 10.9127 -1.85258
184 1 16.9271 12.552 -0.216192 16.9271 12.552 -0.216192
185 2 18.8306 12.5401 1.41241 18.8306 12.5401 1.41241
186 2 18.8262 12.5634 -1.8498 18.8262 12.5634 -1.8498
187 1 19.7788 10.9055 -0.231649 19.7788 10.9055 -0.231649
188 2 21.6859 10.8928 1.39236 21.6859 10.8928 1.39236
189 2 21.6737 10.9189 -1.86984 21.6737 10.9189 -1.86984
190 1 22.6304 12.5521 -0.228993 22.6304 12.5521 -0.228993
191 2 24.5345 12.5373 1.39837 24.5345 12.5373 1.39837
192 2 24.5281 12.567 -1.86385 24.5281 12.567 -1.86385
193 1 25.4815 10.9057 -0.24948 25.4815 10.9057 -0.24948
194 2 27.3846 10.8879 1.37914 27.3846 10.8879 1.37914
195 2 27.3802 10.9225 -1.88305 27.3802 10.9225 -1.88305
196 1 28.3334 12.551 -0.235642 28.3334 12.551 -0.235642
197 2 30.2282 12.5353 1.40284 30.2282 12.5353 1.40284
198 2 30.2407 12.5665 -1.85933 30.2407 12.5665 -1.85933
199 1 31.185 10.9049 -0.240411 31.185 10.9049 -0.240411
200 2 33.078 10.888 1.40018 33.078 10.888 1.40018
201 2 33.0943 10.9219 -1.86194 33.0943 10.9219 -1.86194
202 1 34.0371 12.5509 -0.209106 34.0371 12.5509 -0.209106
203 2 35.9318 12.5334 1.42939 35.9318 12.5334 1.42939
204 2 35.9445 12.5682 -1.83274 35.9445 12.5682 -1.83274
205 1 36.8883 10.9047 -0.215793 36.8883 10.9047 -0.215793
206 2 38.778 10.8833 1.42829 38.778 10.8833 1.42829
207 2 38.8008 10.926 -1.83405 38.8008 10.926 -1.83405
208 1 39.7399 12.5503 -0.174379 39.7399 12.5503 -0.174379
209 2 41.5942 12.5476 1.45208 41.5942 12.5476 1.45208
210 2 41.6425 12.5522 -1.74449 41.6425 12.5522 -1.74449
211 1 42.659 10.9036 -0.135035 42.659 10.9036 -0.135035
212 2 -7.36682 10.8108 1.04343 74.5305 10.8108 1.04343
213 2 -6.62909 11.019 -1.78078 75.2683 11.019 -1.78078
214 1 -5.86977 12.546 0.0342901 76.0276 12.546 0.0342901
215 2 -3.93413 12.488 1.60953 77.9632 12.488 1.60953
216 2 -4.04086 12.615 -1.66558 77.8565 12.615 -1.66558
217 1 -3.03562 14.1986 0.00864981 -3.03562 14.1986 0.00864981
218 2 -1.10024 14.1682 1.60016 -1.10024 14.1682 1.60016
219 2 -1.16876 14.231 -1.66064 -1.16876 14.231 -1.66064
220 1 -0.184432 15.8461 -0.0175706 -0.184432 15.8461 -0.0175706
221 2 1.75007 15.8241 1.57431 1.75007 15.8241 1.57431
222 2 1.68342 15.8682 -1.68687 1.68342 15.8682 -1.68687
223 1 2.66817 14.2004 -0.0981657 2.66817 14.2004 -0.0981657
224 2 4.59586 14.1827 1.50163 4.59586 14.1827 1.50163
225 2 4.54272 14.2169 -1.75999 4.54272 14.2169 -1.75999
226 1 5.51907 15.8463 -0.12722 5.51907 15.8463 -0.12722
227 2 7.43965 15.8336 1.48096 7.43965 15.8336 1.48096
228 2 7.40047 15.8577 -1.78095 7.40047 15.8577 -1.78095
229 1 8.37111 14.1992 -0.173869 8.37111 14.1992 -0.173869
230 2 10.2829 14.1904 1.44476 10.2829 14.1904 1.44476
231 2 10.2615 14.2063 -1.81731 10.2615 14.2063 -1.81731
232 1 11.2225 15.845 -0.184402 11.2225 15.845 -0.184402
233 2 13.1285 15.8371 1.44161 13.1285 15.8371 1.44161
234 2 13.1193 15.8522 -1.82051 13.1193 15.8522 -1.82051
235 1 14.0747 14.1981 -0.199496 14.0747 14.1981 -0.199496
236 2 15.9794 14.1875 1.42772 15.9794 14.1875 1.42772
237 2 15.9725 14.209 -1.8344 15.9725 14.209 -1.8344
238 1 16.9267 15.8445 -0.194439 16.9267 15.8445 -0.194439
239 2 18.8298 15.8327 1.43492 18.8298 15.8327 1.43492
240 2 18.8266 15.8552 -1.82718 18.8266 15.8552 -1.82718
241 1 19.7791 14.198 -0.208298 19.7791 14.198 -0.208298
242 2 21.6847 14.1854 1.41785 21.6847 14.1854 1.41785
243 2 21.6762 14.2116 -1.84432 21.6762 14.2116 -1.84432
244 1 22.6317 15.8444 -0.202452 22.6317 15.8444 -0.202452
245 2 24.5344 15.8298 1.427 24.5344 15.8298 1.427
246 2 24.5315 15.8594 -1.83519 24.5315 15.8594 -1.83519
247 1 25.4825 14.198 -0.219793 25.4825 14.198 -0.219793
248 2 27.3822 14.1796 1.41265 27.3822 14.1796 1.41265
249 2 27.3847 14.215 -1.84951 27.3847 14.215 -1.84951
250 1 28.3349 15.8431 -0.199943 28.3349 15.8431 -0.199943
251 2 30.2296 15.8234 1.4384 30.2296 15.8234 1.4384
252 2 30.242 15.8628 -1.8237 30.242 15.8628 -1.8237
253 1 31.1856 14.1968 -0.208837 31.1856 14.1968 -0.208837
254 2 33.0737 14.1742 1.43731 33.0737 14.1742 1.43731
255 2 33.0995 14.2198 -1.82458 33.0995 14.2198 -1.82458
256 1 34.0378 15.8428 -0.163171 34.0378 15.8428 -0.163171
257 2 35.9347 15.8195 1.47258 35.9347 15.8195 1.47258
258 2 35.9432 15.8663 -1.78938 35.9432 15.8663 -1.78938
259 1 36.8893 14.1968 -0.179883 36.8893 14.1968 -0.179883
260 2 38.7789 14.1821 1.46499 38.7789 14.1821 1.46499
261 2 38.8021 14.2111 -1.79746 38.8021 14.2111 -1.79746
262 1 39.7414 15.8423 -0.144251 39.7414 15.8423 -0.144251
263 2 41.6172 15.8574 1.45684 41.6172 15.8574 1.45684
264 2 41.6233 15.8273 -1.73992 41.6233 15.8273 -1.73992
265 1 42.6604 14.1957 -0.126735 42.6604 14.1957 -0.126735
266 2 -7.45543 14.1649 1.08838 74.4419 14.1649 1.08838
267 2 -6.62347 14.2426 -1.643 75.2739 14.2426 -1.643
268 1 -5.87125 15.8414 0.121603 76.0261 15.8414 0.121603
269 2 -3.94344 15.8094 1.70731 77.9539 15.8094 1.70731
270 2 -4.03733 15.8786 -1.57129 77.86 15.8786 -1.57129
271 1 -3.03672 17.491 0.077874 -3.03672 17.491 0.077874
272 2 -1.09134 17.4746 1.65661 -1.09134 17.4746 1.65661
273 2 -1.18019 17.5092 -1.60405 -1.18019 17.5092 -1.60405
274 1 -0.185178 19.1386 0.0182691 -0.185178 19.1386 0.0182691
275 2 1.75187 19.1296 1.60736 1.75187 19.1296 1.60736
276 2 1.6799 19.148 -1.65394 1.6799 19.148 -1.65394
277 1 2.66703 17.4927 -0.0534286 2.66703 17.4927 -0.0534286
278 2 4.5991 17.4731 1.54124 4.5991 17.4731 1.54124
279 2 4.53709 17.5118 -1.72016 4.53709 17.5118 -1.72016
280 1 5.51839 19.1389 -0.0880052 5.51839 19.1389 -0.0880052
281 2 7.44839 19.129 1.50892 7.44839 19.129 1.50892
282 2 7.39029 19.1481 -1.75271 7.39029 19.1481 -1.75271
283 1 8.37026 17.4921 -0.148861 8.37026 17.4921 -0.148861
284 2 10.2883 17.4853 1.46255 10.2883 17.4853 1.46255
285 2 10.2545 17.4977 -1.79942 10.2545 17.4977 -1.79942
286 1 11.2218 19.1381 -0.172091 11.2218 19.1381 -0.172091
287 2 13.1245 19.1268 1.45785 13.1245 19.1268 1.45785
288 2 13.1221 19.1485 -1.80422 13.1221 19.1485 -1.80422
289 1 14.0744 17.4912 -0.18468 14.0744 17.4912 -0.18468
290 2 15.9752 17.48 1.44721 15.9752 17.48 1.44721
291 2 15.9765 17.5019 -1.81489 15.9765 17.5019 -1.81489
292 1 16.9273 19.1368 -0.172406 16.9273 19.1368 -0.172406
293 2 18.8287 19.1222 1.45907 18.8287 19.1222 1.45907
294 2 18.8294 19.1501 -1.80295 18.8294 19.1501 -1.80295
295 1 19.7798 17.49 -0.185765 19.7798 17.49 -0.185765
296 2 21.6844 17.4793 1.44165 21.6844 17.4793 1.44165
297 2 21.6783 17.5016 -1.82055 21.6783 17.5016 -1.82055
298 1 22.6329 19.1363 -0.180075 22.6329 19.1363 -0.180075
299 2 24.5314 19.121 1.45448 24.5314 19.121 1.45448
300 2 24.5374 19.1518 -1.80765 24.5374 19.1518 -1.80765
301 1 25.4845 17.4902 -0.190158 25.4845 17.4902 -0.190158
302 2 27.3808 17.4715 1.44664 27.3808 17.4715 1.44664
303 2 27.3905 17.5079 -1.81551 27.3905 17.5079 -1.81551
304 1 28.337 19.1356 -0.163332 28.337 19.1356 -0.163332
305 2 30.2294 19.1155 1.4775 30.2294 19.1155 1.4775
306 2 30.2463 19.156 -1.78455 30.2463 19.156 -1.78455
307 1 31.1871 17.4891 -0.169006 31.1871 17.4891 -0.169006
308 2 33.0731 17.4692 1.47948 33.0731 17.4692 1.47948
309 2 33.1026 17.5092 -1.78249 33.1026 17.5092 -1.78249
310 1 34.0392 19.135 -0.122393 34.0392 19.135 -0.122393
311 2 35.9376 19.1205 1.51186 35.9376 19.1205 1.51186
312 2 35.9428 19.1488 -1.75035 35.9428 19.1488 -1.75035
313 1 36.8904 17.4885 -0.131978 36.8904 17.4885 -0.131978
314 2 38.7925 17.4785 1.49866 38.7925 17.4785 1.49866
315 2 38.7912 17.4985 -1.76389 38.7912 17.4985 -1.76389
316 1 39.7429 19.1345 -0.121848 39.7429 19.1345 -0.121848
317 2 41.6487 19.1515 1.44553 41.6487 19.1515 1.44553
318 2 41.5946 19.1182 -1.75071 41.5946 19.1182 -1.75071
319 1 42.6622 17.4882 -0.153833 42.6622 17.4882 -0.153833
320 2 -7.44528 17.4822 1.15909 74.4521 17.4822 1.15909
321 2 -6.62954 17.5 -1.5862 75.2678 17.5 -1.5862
322 1 -5.87191 19.1364 0.14115 76.0254 19.1364 0.14115
323 2 -3.9552 19.1328 1.74029 77.9422 19.1328 1.74029
324 2 -4.02785 19.1418 -1.53951 77.8695 19.1418 -1.53951
325 1 -3.03679 20.7843 0.0865097 -3.03679 20.7843 0.0865097
326 2 -1.09584 20.7864 1.67047 -1.09584 20.7864 1.67047
327 2 -1.17605 20.7834 -1.59066 -1.17605 20.7834 -1.59066
328 1 -0.185805 22.4318 0.0149232 -0.185805 22.4318 0.0149232
329 2 1.74371 22.4314 1.61275 1.74371 22.4314 1.61275
330 2 1.68686 22.4322 -1.64888 1.68686 22.4322 -1.64888
331 1 2.66628 20.7854 -0.0349154 2.66628 20.7854 -0.0349154
332 2 4.59297 20.7767 1.56639 4.59297 20.7767 1.56639
333 2 4.54218 20.794 -1.69533 4.54218 20.794 -1.69533
334 1 5.51808 22.4318 -0.0708329 5.51808 22.4318 -0.0708329
335 2 7.44424 22.4174 1.53068 7.44424 22.4174 1.53068
336 2 7.39412 22.4456 -1.73105 7.39412 22.4456 -1.73105
337 1 8.36971 20.785 -0.129134 8.36971 20.785 -0.129134
338 2 10.2888 20.7729 1.48089 10.2888 20.7729 1.48089
339 2 10.2529 20.796 -1.78101 10.2529 20.796 -1.78101
340 1 11.2219 22.4307 -0.148609 11.2219 22.4307 -0.148609
341 2 13.1263 22.4209 1.47932 13.1263 22.4209 1.47932
342 2 13.1206 22.4395 -1.78271 13.1206 22.4395 -1.78271
343 1 14.0745 20.7838 -0.162803 14.0745 20.7838 -0.162803
344 2 15.9761 20.773 1.46863 15.9761 20.773 1.46863
345 2 15.9765 20.7934 -1.79338 15.9765 20.7934 -1.79338
346 1 16.9279 22.4293 -0.152045 16.9279 22.4293 -0.152045
347 2 18.8247 22.414 1.48495 18.8247 22.414 1.48495
348 2 18.8349 22.4437 -1.77695 18.8349 22.4437 -1.77695
349 1 19.7805 20.7823 -0.157944 19.7805 20.7823 -0.157944
350 2 21.6848 20.765 1.46977 21.6848 20.765 1.46977
351 2 21.6794 20.7992 -1.79226 21.6794 20.7992 -1.79226
352 1 22.6334 22.4281 -0.14565 22.6334 22.4281 -0.14565
353 2 24.5302 22.4062 1.49081 24.5302 22.4062 1.49081
354 2 24.5396 22.4497 -1.77116 24.5396 22.4497 -1.77116
355 1 25.4857 20.7822 -0.15942 25.4857 20.7822 -0.15942
356 2 27.3781 20.7626 1.48204 27.3781 20.7626 1.48204
357 2 27.396 20.8014 -1.77994 27.396 20.8014 -1.77994
358 1 28.3378 22.4284 -0.123959 28.3378 22.4284 -0.123959
359 2 30.232 22.4123 1.51524 30.232 22.4123 1.51524
360 2 30.2459 22.4445 -1.74685 30.2459 22.4445 -1.74685
361 1 31.1888 20.7819 -0.127904 31.1888 20.7819 -0.127904
362 2 33.0785 20.7674 1.51663 33.0785 20.7674 1.51663
363 2 33.101 20.7961 -1.7455 33.101 20.7961 -1.7455
364 1 34.0411 22.4276 -0.0931328 34.0411 22.4276 -0.0931328
365 2 35.9452 22.4228 1.53426 35.9452 22.4228 1.53426
366 2 35.9392 22.4312 -1.728 35.9392 22.4312 -1.728
367 1 36.8919 20.7804 -0.103176 36.8919 20.7804 -0.103176
368 2 38.8084 20.7889 1.51009 38.8084 20.7889 1.51009
369 2 38.7782 20.7725 -1.75232 38.7782 20.7725 -1.75232
370 1 39.7436 22.4271 -0.138402 39.7436 22.4271 -0.138402
371 2 41.6497 22.4302 1.42729 41.6497 22.4302 1.42729
372 2 41.5945 22.4251 -1.76911 41.5945 22.4251 -1.76911
373 1 42.6628 20.781 -0.1861 42.6628 20.781 -0.1861
374 2 -7.45744 20.788 1.1434 74.4399 20.788 1.1434
375 2 -6.61483 20.7768 -1.59085 75.2825 20.7768 -1.59085
376 1 -5.87086 22.4306 0.12719 76.0265 22.4306 0.12719
377 2 -3.95797 22.4434 1.73024 77.9394 22.4434 1.73024
378 2 -4.02364 22.419 -1.54961 77.8737 22.419 -1.54961
379 1 -3.03694 24.0785 0.061519 -3.03694 24.0785 0.061519
380 2 -1.10215 24.0908 1.65274 -1.10215 24.0908 1.65274
381 2 -1.16999 24.0667 -1.60854 -1.16999 24.0667 -1.60854
382 1 -0.185696 25.7254 -0.00995851 -0.185696 25.7254 -0.00995851
383 2 1.73627 25.7361 1.59718 1.73627 25.7361 1.59718
384 2 1.69489 25.7144 -1.66459 1.69489 25.7144 -1.66459
385 1 2.66598 24.0784 -0.0342984 2.66598 24.0784 -0.0342984
386 2 4.58569 24.0732 1.57566 4.58569 24.0732 1.57566
387 2 4.54894 24.0833 -1.6863 4.54894 24.0833 -1.6863
388 1 5.51818 25.7245 -0.0611781 5.51818 25.7245 -0.0611781
389 2 7.43771 25.7168 1.54837 7.43771 25.7168 1.54837
390 2 7.40095 25.731 -1.71369 7.40095 25.731 -1.71369
391 1 8.36997 24.0776 -0.100559 8.36997 24.0776 -0.100559
392 2 10.2908 24.0638 1.50746 10.2908 24.0638 1.50746
393 2 10.2515 24.0906 -1.75438 10.2515 24.0906 -1.75438
394 1 11.2226 25.7231 -0.121141 11.2226 25.7231 -0.121141
395 2 13.1325 25.715 1.50025 13.1325 25.715 1.50025
396 2 13.1158 25.7306 -1.7618 13.1158 25.7306 -1.7618
397 1 14.0751 24.0763 -0.143794 14.0751 24.0763 -0.143794
398 2 15.9753 24.0646 1.48918 15.9753 24.0646 1.48918
399 2 15.9785 24.0871 -1.77277 15.9785 24.0871 -1.77277
400 1 16.9286 25.7219 -0.1296 16.9286 25.7219 -0.1296
401 2 18.82 25.7047 1.51358 18.82 25.7047 1.51358
402 2 18.8406 25.7386 -1.74824 18.8406 25.7386 -1.74824
403 1 19.7812 24.075 -0.128266 19.7812 24.075 -0.128266
404 2 21.6779 24.0488 1.50818 21.6779 24.0488 1.50818
405 2 21.6877 24.0999 -1.75356 21.6877 24.0999 -1.75356
406 1 22.6336 25.7206 -0.0940345 22.6336 25.7206 -0.0940345
407 2 24.534 25.6982 1.53793 24.534 25.6982 1.53793
408 2 24.536 25.7423 -1.72392 24.536 25.7423 -1.72392
409 1 25.4858 24.0742 -0.115091 25.4858 24.0742 -0.115091
410 2 27.3827 24.0583 1.52115 27.3827 24.0583 1.52115
411 2 27.3917 24.0911 -1.74085 27.3917 24.0911 -1.74085
412 1 28.3379 25.7212 -0.0903837 28.3379 25.7212 -0.0903837
413 2 30.2345 25.708 1.54623 30.2345 25.708 1.54623
414 2 30.2439 25.7343 -1.71581 30.2439 25.7343 -1.71581
415 1 31.1898 24.0746 -0.0953572 31.1898 24.0746 -0.0953572
416 2 33.0854 24.0666 1.54248 33.0854 24.0666 1.54248
417 2 33.0967 24.0817 -1.71972 33.0967 24.0817 -1.71972
418 1 34.042 25.7205 -0.077463 34.042 25.7205 -0.077463
419 2 35.9531 25.7205 1.5421 35.9531 25.7205 1.5421
420 2 35.9335 25.72 -1.72 35.9335 25.72 -1.72
421 1 36.8934 24.0735 -0.0945548 36.8934 24.0735 -0.0945548
422 2 38.8197 24.0743 1.50685 38.8197 24.0743 1.50685
423 2 38.7694 24.0734 -1.7553 38.7694 24.0734 -1.7553
424 1 39.7443 25.7207 -0.139528 39.7443 25.7207 -0.139528
425 2 41.6509 25.7226 1.42504 41.6509 25.7226 1.42504
426 2 41.5946 25.7198 -1.77138 41.5946 25.7198 -1.77138
427 1 42.6632 24.0743 -0.190885 42.6632 24.0743 -0.190885
428 2 -7.44398 24.0874 1.13949 74.4534 24.0874 1.13949
429 2 -6.62188 24.0614 -1.60828 75.2755 24.0614 -1.60828
430 1 -5.87067 25.7252 0.0962914 76.0267 25.7252 0.0962914
431 2 -3.95658 25.7471 1.69708 77.9408 25.7471 1.69708
432 2 -4.02566 25.7044 -1.58243 77.8717 25.7044 -1.58243
433 1 -3.03705 27.3725 0.0184877 -3.03705 27.3725 0.0184877
434 2 -1.10783 27.3926 1.61621 -1.10783 27.3926 1.61621
435 2 -1.16435 27.3518 -1.64517 -1.16435 27.3518 -1.64517
436 1 -0.185267 29.0183 -0.0517307 -0.185267 29.0183 -0.0517307
437 2 1.7264 29.0295 1.56797 1.7264 29.0295 1.56797
438 2 1.7059 29.0066 -1.6941 1.7059 29.0066 -1.6941
439 1 2.66655 27.3715 -0.0568539 2.66655 27.3715 -0.0568539
440 2 4.57428 27.3772 1.56725 4.57428 27.3772 1.56725
441 2 4.56147 27.3651 -1.69498 4.56147 27.3651 -1.69498
442 1 5.51896 29.0169 -0.0735579 5.51896 29.0169 -0.0735579
443 2 7.42912 29.0181 1.54736 7.42912 29.0181 1.54736
444 2 7.41126 29.0138 -1.71495 7.41126 29.0138 -1.71495
445 1 8.37064 27.3697 -0.0864397 8.37064 27.3697 -0.0864397
446 2 10.2862 27.36 1.52779 10.2862 27.36 1.52779
447 2 10.2576 27.3785 -1.7343 10.2576 27.3785 -1.7343
448 1 11.2238 29.0148 -0.102241 11.2238 29.0148 -0.102241
449 2 13.138 29.0118 1.51405 13.138 29.0118 1.51405
450 2 13.1123 29.0175 -1.74806 13.1123 29.0175 -1.74806
451 1 14.0761 27.3685 -0.12731 14.0761 27.3685 -0.12731
452 2 15.9737 27.3584 1.50889 15.9737 27.3584 1.50889
453 2 15.9818 27.3783 -1.7532 15.9818 27.3783 -1.7532
454 1 16.9288 29.0145 -0.10951 16.9288 29.0145 -0.10951
455 2 18.8173 29.0064 1.53719 18.8173 29.0064 1.53719
456 2 18.8431 29.0225 -1.72484 18.8431 29.0225 -1.72484
457 1 19.7812 27.3679 -0.0941238 19.7812 27.3679 -0.0941238
458 2 21.6724 27.3494 1.54895 21.6724 27.3494 1.54895
459 2 21.6929 27.385 -1.71293 21.6929 27.385 -1.71293
460 1 22.6333 29.0136 -0.0579476 22.6333 29.0136 -0.0579476
461 2 24.5356 29.0031 1.57203 24.5356 29.0031 1.57203
462 2 24.5341 29.0235 -1.69002 24.5341 29.0235 -1.69002
463 1 25.4857 27.3669 -0.0698443 25.4857 27.3669 -0.0698443
464 2 27.391 27.3542 1.55664 27.391 27.3542 1.55664
465 2 27.3832 27.3811 -1.70538 27.3832 27.3811 -1.70538
466 1 28.3378 29.0143 -0.0628077 28.3378 29.0143 -0.0628077
467 2 30.2394 29.0087 1.56828 30.2394 29.0087 1.56828
468 2 30.2393 29.02 -1.69384 30.2393 29.02 -1.69384
469 1 31.19 27.3676 -0.068582 31.19 27.3676 -0.068582
470 2 33.0924 27.3601 1.5614 33.0924 27.3601 1.5614
471 2 33.0903 27.3741 -1.70075 33.0903 27.3741 -1.70075
472 1 34.0419 29.0136 -0.0632537 34.0419 29.0136 -0.0632537
473 2 35.9589 29.01 1.54917 35.9589 29.01 1.54917
474 2 35.9273 29.0171 -1.71289 35.9273 29.0171 -1.71289
475 1 36.8937 27.367 -0.0948125 36.8937 27.367 -0.0948125
476 2 38.8205 27.3679 1.50613 38.8205 27.3679 1.50613
477 2 38.7693 27.3671 -1.75597 38.7693 27.3671 -1.75597
478 1 39.7445 29.0144 -0.140066 39.7445 29.0144 -0.140066
479 2 41.6574 29.0261 1.41709 41.6574 29.0261 1.41709
480 2 41.5884 29.004 -1.77899 41.5884 29.004 -1.77899
481 1 42.6636 27.3681 -0.192797 42.6636 27.3681 -0.192797
482 2 -7.44374 27.383 1.10751 74.4536 27.383 1.10751
483 2 -6.61948 27.3549 -1.64127 75.2779 27.3549 -1.64127
484 1 -5.87036 29.0194 0.0635684 76.027 29.0194 0.0635684
485 2 -3.95198 29.0392 1.65883 77.9454 29.0392 1.65883
486 2 -4.03061 29 -1.6207 77.8668 29 -1.6207
487 1 -3.03655 30.6656 -0.0204223 -3.03655 30.6656 -0.0204223
488 2 -1.10349 30.6886 1.57306 -1.10349 30.6886 1.57306
489 2 -1.16792 30.6413 -1.6881 -1.16792 30.6413 -1.6881
490 1 -0.18486 32.3108 -0.100462 -0.18486 32.3108 -0.100462
491 2 1.71753 32.3309 1.53006 1.71753 32.3309 1.53006
492 2 1.71524 32.29 -1.73199 1.71524 32.29 -1.73199
493 1 2.667 30.6641 -0.0807319 2.667 30.6641 -0.0807319
494 2 4.57085 30.6743 1.54763 4.57085 30.6743 1.54763
495 2 4.56562 30.6518 -1.71465 4.56562 30.6518 -1.71465
496 1 5.51938 32.3085 -0.0963851 5.51938 32.3085 -0.0963851
497 2 7.42399 32.3178 1.53108 7.42399 32.3178 1.53108
498 2 7.41769 32.2968 -1.73111 7.41769 32.2968 -1.73111
499 1 8.37173 30.6614 -0.0911848 8.37173 30.6614 -0.0911848
500 2 10.2865 30.6731 1.52409 10.2865 30.6731 1.52409
501 2 10.2597 30.6488 -1.73799 10.2597 30.6488 -1.73799
502 1 11.2242 32.3068 -0.127174 11.2242 32.3068 -0.127174
503 2 13.13 32.3199 1.49838 13.13 32.3199 1.49838
504 2 13.1209 32.2938 -1.76377 13.1209 32.2938 -1.76377
505 1 14.0764 30.6607 -0.121641 14.0764 30.6607 -0.121641
506 2 15.9735 30.6646 1.515 15.9735 30.6646 1.515
507 2 15.982 30.6571 -1.7472 15.982 30.6571 -1.7472
508 1 16.9281 32.3073 -0.117394 16.9281 32.3073 -0.117394
509 2 18.808 32.3085 1.53887 18.808 32.3085 1.53887
510 2 18.8505 32.3057 -1.72306 18.8505 32.3057 -1.72306
511 1 19.7806 30.6608 -0.0780523 19.7806 30.6608 -0.0780523
512 2 21.6687 30.6567 1.56868 21.6687 30.6567 1.56868
513 2 21.6954 30.6634 -1.69334 21.6954 30.6634 -1.69334
514 1 22.6325 32.3065 -0.0510986 22.6325 32.3065 -0.0510986
515 2 24.533 32.3066 1.58107 24.533 32.3066 1.58107
516 2 24.5351 32.3064 -1.68107 24.5351 32.3064 -1.68107
517 1 25.4852 30.6601 -0.0492018 25.4852 30.6601 -0.0492018
518 2 27.3903 30.6537 1.57746 27.3903 30.6537 1.57746
519 2 27.383 30.6675 -1.68465 27.383 30.6675 -1.68465
520 1 28.337 32.3072 -0.0485781 28.337 32.3072 -0.0485781
521 2 30.2442 32.3083 1.5761 30.2442 32.3083 1.5761
522 2 30.2328 32.3058 -1.68608 30.2328 32.3058 -1.68608
523 1 31.1898 30.6608 -0.0569014 31.1898 30.6608 -0.0569014
524 2 33.0918 30.6547 1.57372 33.0918 30.6547 1.57372
525 2 33.0907 30.6657 -1.68844 33.0907 30.6657 -1.68844
526 1 34.0416 32.3067 -0.0521697 34.0416 32.3067 -0.0521697
527 2 35.9602 32.3021 1.55852 35.9602 32.3021 1.55852
528 2 35.9256 32.311 -1.70347 35.9256 32.311 -1.70347
529 1 36.8936 30.6603 -0.0873884 36.8936 30.6603 -0.0873884
530 2 38.8268 30.6654 1.50556 38.8268 30.6654 1.50556
531 2 38.7624 30.6566 -1.75627 38.7624 30.6566 -1.75627
532 1 39.7443 32.3079 -0.14831 39.7443 32.3079 -0.14831
533 2 41.6634 32.3169 1.40146 41.6634 32.3169 1.40146
534 2 41.5819 32.3007 -1.7943 41.5819 32.3007 -1.7943
535 1 42.6634 30.6619 -0.214663 42.6634 30.6619 -0.214663
536 2 -7.43496 30.6755 1.09074 74.4624 30.6755 1.09074