ITEM: TIMESTEP
137000
ITEM: NUMBER OF ATOMS
810
ITEM: BOX BOUNDS pp pp pp
5.1163668055482237e-01 5.2505968319444243e+01
8.1394622342039402e-01 5.0202268776579182e+01
-1.0000000000000000e+01 1.0000000000000000e+01
ITEM: ATOMS id type x y z xu yu zu
1 1 0.721103 1.02807 -0.13483 0.721103 1.02807 -0.13483
2 2 2.64907 1.06106 1.48375 2.64907 1.06106 1.48375
3 2 2.63337 0.995088 -1.77205 2.63337 0.995088 -1.77205
4 1 3.6096 2.67414 -0.182303 3.6096 2.67414 -0.182303
5 2 5.53916 2.70553 1.43438 5.53916 2.70553 1.43438
6 2 5.52027 2.6428 -1.82146 5.52027 2.6428 -1.82146
7 1 6.49821 1.028 -0.167403 6.49821 1.028 -0.167403
8 2 8.42884 1.06145 1.44801 8.42884 1.06145 1.44801
9 2 8.40781 0.994611 -1.80773 8.40781 0.994611 -1.80773
10 1 9.38669 2.67409 -0.220024 9.38669 2.67409 -0.220024
11 2 11.3165 2.70603 1.39643 11.3165 2.70603 1.39643
12 2 11.2972 2.64223 -1.85938 11.2972 2.64223 -1.85938
13 1 12.2753 1.02796 -0.204889 12.2753 1.02796 -0.204889
14 2 14.2036 1.06142 1.41343 14.2036 1.06142 1.41343
15 2 14.1874 0.99458 -1.84234 14.1874 0.99458 -1.84234
16 1 15.1638 2.67407 -0.253159 15.1638 2.67407 -0.253159
17 2 17.0886 2.70648 1.36927 17.0886 2.70648 1.36927
18 2 17.0794 2.64176 -1.88657 17.0794 2.64176 -1.88657
19 1 18.0525 1.02798 -0.228594 18.0525 1.02798 -0.228594
20 2 19.9737 1.0616 1.39801 19.9737 1.0616 1.39801
21 2 19.9715 0.994448 -1.85779 19.9715 0.994448 -1.85779
22 1 20.9411 2.67413 -0.26458 20.9411 2.67413 -0.26458
23 2 22.858 2.7071 1.36716 22.858 2.7071 1.36716
24 2 22.8645 2.64123 -1.88866 22.8645 2.64123 -1.88866
25 1 23.8297 1.02808 -0.225417 23.8297 1.02808 -0.225417
26 2 25.7432 1.06204 1.4103 25.7432 1.06204 1.4103
27 2 25.7564 0.994158 -1.84546 25.7564 0.994158 -1.84546
28 1 26.7183 2.67423 -0.248052 26.7183 2.67423 -0.248052
29 2 28.6286 2.70735 1.39146 28.6286 2.70735 1.39146
30 2 28.6483 2.64115 -1.8643 28.6483 2.64115 -1.8643
31 1 29.6069 1.02819 -0.196982 29.6069 1.02819 -0.196982
32 2 31.516 1.06196 1.44388 31.516 1.06196 1.44388
33 2 31.538 0.994422 -1.81184 31.538 0.994422 -1.81184
34 1 32.4954 2.67434 -0.211696 32.4954 2.67434 -0.211696
35 2 34.4037 2.70664 1.43018 34.4037 2.70664 1.43018
36 2 34.4274 2.64202 -1.82559 34.4274 2.64202 -1.82559
37 1 35.3839 1.02827 -0.157891 35.3839 1.02827 -0.157891
38 2 37.2941 1.06113 1.48172 37.2941 1.06113 1.48172
39 2 37.314 0.995341 -1.77406 37.314 0.995341 -1.77406
40 1 38.2725 2.67438 -0.173662 38.2725 2.67438 -0.173662
41 2 40.1844 2.70543 1.46394 40.1844 2.70543 1.46394
42 2 40.2009 2.64326 -1.79193 40.2009 2.64326 -1.79193
43 1 41.161 1.02826 -0.127607 41.161 1.02826 -0.127607
44 2 43.0769 1.06037 1.50535 43.0769 1.06037 1.50535
45 2 43.0855 0.996042 -1.7505 43.0855 0.996042 -1.7505
46 1 44.0497 2.67433 -0.152687 44.0497 2.67433 -0.152687
47 2 45.9684 2.70462 1.47685 45.9684 2.70462 1.47685
48 2 45.9712 2.64396 -1.77909 45.9712 2.64396 -1.77909
49 1 46.9383 1.02816 -0.119588 46.9383 1.02816 -0.119588
50 2 48.8608 1.06039 1.50544 48.8608 1.06039 1.50544
51 2 48.856 0.995869 -1.75042 48.856 0.995869 -1.75042
52 1 49.8268 2.67422 -0.156689 49.8268 2.67422 -0.156689
53 2 51.752 2.70481 1.46519 51.752 2.70481 1.46519
54 2 51.7419 2.64362 -1.79073 51.7419 2.64362 -1.79073
55 1 0.721016 4.32034 -0.196874 0.721016 4.32034 -0.196874
56 2 2.64858 4.34799 1.4222 2.64858 4.34799 1.4222
57 2 2.63366 4.29271 -1.83381 2.63366 4.29271 -1.83381
58 1 3.6095 5.96653 -0.238343 3.6095 5.96653 -0.238343
59 2 5.53889 5.99027 1.37861 5.53889 5.99027 1.37861
60 2 5.52033 5.94284 -1.87749 5.52033 5.94284 -1.87749
61 1 6.49808 4.32027 -0.23101 6.49808 4.32027 -0.23101
62 2 8.42825 4.34889 1.38499 8.42825 4.34889 1.38499
63 2 8.40815 4.29173 -1.87094 8.40815 4.29173 -1.87094
64 1 9.38657 5.96648 -0.277982 9.38657 5.96648 -0.277982
65 2 11.3162 5.99149 1.33879 11.3162 5.99149 1.33879
66 2 11.2973 5.94155 -1.91725 11.2973 5.94155 -1.91725
67 1 12.2752 4.32023 -0.269589 12.2752 4.32023 -0.269589
68 2 14.2029 4.34975 1.34943 14.2029 4.34975 1.34943
69 2 14.1878 4.29082 -1.90649 14.1878 4.29082 -1.90649
70 1 15.1638 5.96646 -0.312909 15.1638 5.96646 -0.312909
71 2 17.0883 5.99275 1.30985 17.0883 5.99275 1.30985
72 2 17.0795 5.94027 -1.9462 17.0795 5.94027 -1.9462
73 1 18.0524 4.32025 -0.294222 18.0524 4.32025 -0.294222
74 2 19.9732 4.35064 1.33299 19.9732 4.35064 1.33299
75 2 19.972 4.28995 -1.92293 19.972 4.28995 -1.92293
76 1 20.941 5.9665 -0.326116 20.941 5.9665 -0.326116
77 2 22.8576 5.99373 1.3061 22.8576 5.99373 1.3061
78 2 22.8648 5.93934 -1.94992 22.8648 5.93934 -1.94992
79 1 23.8297 4.32032 -0.292217 23.8297 4.32032 -0.292217
80 2 25.7426 4.35124 1.34425 25.7426 4.35124 1.34425
81 2 25.7571 4.28946 -1.91161 25.7571 4.28946 -1.91161
82 1 26.7184 5.96657 -0.310703 26.7184 5.96657 -0.310703
83 2 28.6278 5.99385 1.32987 28.6278 5.99385 1.32987
84 2 28.6493 5.93935 -1.92609 28.6493 5.93935 -1.92609
85 1 29.6069 4.32042 -0.264137 29.6069 4.32042 -0.264137
86 2 31.5149 4.35089 1.37811 31.5149 4.35089 1.37811
87 2 31.5393 4.28997 -1.87772 31.5393 4.28997 -1.87772
88 1 32.4955 5.96666 -0.273502 32.4955 5.96666 -0.273502
89 2 34.4023 5.99285 1.37011 34.4023 5.99285 1.37011
90 2 34.429 5.9405 -1.88585 34.429 5.9405 -1.88585
91 1 35.384 4.32051 -0.223459 35.384 4.32051 -0.223459
92 2 37.2926 4.34961 1.41797 37.2926 4.34961 1.41797
93 2 37.3156 4.29138 -1.83793 37.3156 4.29138 -1.83793
94 1 38.2726 5.96672 -0.232759 38.2726 5.96672 -0.232759
95 2 40.1828 5.99112 1.4068 40.1828 5.99112 1.4068
96 2 40.2025 5.94228 -1.84928 40.2025 5.94228 -1.84928
97 1 41.1611 4.32051 -0.190687 41.1611 4.32051 -0.190687
98 2 43.0755 4.34816 1.44393 43.0755 4.34816 1.44393
99 2 43.0869 4.2928 -1.81208 43.0869 4.2928 -1.81208
100 1 44.0497 5.96668 -0.208854 44.0497 5.96668 -0.208854
101 2 45.9672 5.98963 1.42221 45.9672 5.98963 1.42221
102 2 45.9724 5.94369 -1.83398 45.9724 5.94369 -1.83398
103 1 46.9382 4.32043 -0.181119 46.9382 4.32043 -0.181119
104 2 48.86 4.34749 1.44491 48.86 4.34749 1.44491
105 2 48.8568 4.29333 -1.81115 48.8568 4.29333 -1.81115
106 1 49.8268 5.9666 -0.211611 49.8268 5.9666 -0.211611
107 2 51.7515 5.98939 1.41094 51.7515 5.98939 1.41094
108 2 51.7423 5.94381 -1.84525 51.7423 5.94381 -1.84525
109 1 0.720954 7.61285 -0.243075 0.720954 7.61285 -0.243075
110 2 2.64839 7.63067 1.37623 2.64839 7.63067 1.37623
111 2 2.63371 7.59506 -1.88005 2.63371 7.59506 -1.88005
112 1 3.60944 9.25919 -0.274433 3.60944 9.25919 -0.274433
113 2 5.53908 9.27162 1.34231 5.53908 9.27162 1.34231
114 2 5.51999 9.24678 -1.91405 5.51999 9.24678 -1.91405
115 1 6.49798 7.6128 -0.279082 6.49798 7.6128 -0.279082
116 2 8.42827 7.63197 1.33687 8.42827 7.63197 1.33687
117 2 8.40793 7.5937 -1.91933 8.40793 7.5937 -1.91933
118 1 9.38649 9.25916 -0.316753 9.38649 9.25916 -0.316753
119 2 11.3165 9.27334 1.29958 11.3165 9.27334 1.29958
120 2 11.2967 9.24505 -1.95672 11.2967 9.24505 -1.95672
121 1 12.2751 7.61278 -0.320217 12.2751 7.61278 -0.320217
122 2 14.2029 7.63357 1.29875 14.2029 7.63357 1.29875
123 2 14.1876 7.59206 -1.95743 14.1876 7.59206 -1.95743
124 1 15.1637 9.25916 -0.35498 15.1637 9.25916 -0.35498
125 2 17.0886 9.27518 1.26743 17.0886 9.27518 1.26743
126 2 17.0791 9.24321 -1.98887 17.0791 9.24321 -1.98887
127 1 18.0524 7.61278 -0.347428 18.0524 7.61278 -0.347428
128 2 19.9731 7.635 1.27989 19.9731 7.635 1.27989
129 2 19.972 7.59064 -1.97628 19.972 7.59064 -1.97628
130 1 20.941 9.25918 -0.371073 20.941 9.25918 -0.371073
131 2 22.8576 9.27634 1.26129 22.8576 9.27634 1.26129
132 2 22.8649 9.24208 -1.99499 22.8649 9.24208 -1.99499
133 1 23.8297 7.61282 -0.347371 23.8297 7.61282 -0.347371
134 2 25.7422 7.6356 1.28974 25.7422 7.6356 1.28974
135 2 25.7576 7.59011 -1.96637 25.7576 7.59011 -1.96637
136 1 26.7184 9.25922 -0.356834 26.7184 9.25922 -0.356834
137 2 28.6272 9.27631 1.28466 28.6272 9.27631 1.28466
138 2 28.65 9.24219 -1.97156 28.65 9.24219 -1.97156
139 1 29.607 7.6129 -0.319418 29.607 7.6129 -0.319418
140 2 31.5139 7.63506 1.32423 31.5139 7.63506 1.32423
141 2 31.5405 7.59077 -1.93185 31.5405 7.59077 -1.93185
142 1 32.4956 9.25928 -0.31844 32.4956 9.25928 -0.31844
143 2 34.4011 9.27517 1.3268 34.4011 9.27517 1.3268
144 2 34.4303 9.24342 -1.92941 34.4303 9.24342 -1.92941
145 1 35.3841 7.61297 -0.276577 35.3841 7.61297 -0.276577
146 2 37.2911 7.63349 1.3668 37.2911 7.63349 1.3668
147 2 37.3173 7.59245 -1.88934 37.3173 7.59245 -1.88934
148 1 38.2726 9.25932 -0.274417 38.2726 9.25932 -0.274417
149 2 40.1812 9.27316 1.36712 40.1812 9.27316 1.36712
150 2 40.2042 9.24545 -1.88919 40.2042 9.24545 -1.88919
151 1 41.1611 7.61298 -0.240254 41.1611 7.61298 -0.240254
152 2 43.074 7.63151 1.39627 43.074 7.63151 1.39627
153 2 43.0885 7.59442 -1.86 43.0885 7.59442 -1.86
154 1 44.0497 9.25929 -0.246501 44.0497 9.25929 -0.246501
155 2 45.9659 9.27127 1.38612 45.9659 9.27127 1.38612
156 2 45.9737 9.24728 -1.8703 45.9737 9.24728 -1.8703
157 1 46.9382 7.61292 -0.227723 46.9382 7.61292 -0.227723
158 2 48.8591 7.63034 1.39943 48.8591 7.63034 1.39943
159 2 48.8576 7.59549 -1.8569 48.8576 7.59549 -1.8569
160 1 49.8268 9.25923 -0.246952 49.8268 9.25923 -0.246952
161 2 51.7511 9.27072 1.37612 51.7511 9.27072 1.37612
162 2 51.7427 9.24774 -1.88031 51.7427 9.24774 -1.88031
163 1 0.720927 10.9056 -0.266369 0.720927 10.9056 -0.266369
164 2 2.64848 10.9111 1.35286 2.64848 10.9111 1.35286
165 2 2.63355 10.9002 -1.90361 2.63355 10.9002 -1.90361
166 1 3.60942 12.552 -0.285461 3.60942 12.552 -0.285461
167 2 5.53959 12.5515 1.33068 5.53959 12.5515 1.33068
168 2 5.51944 12.5526 -1.92577 5.51944 12.5526 -1.92577
169 1 6.49793 10.9056 -0.304238 6.49793 10.9056 -0.304238
170 2 8.42883 10.9125 1.31105 8.42883 10.9125 1.31105
171 2 8.40725 10.8988 -1.94534 8.40725 10.8988 -1.94534
172 1 9.38645 12.5521 -0.330599 9.38645 12.5521 -0.330599
173 2 11.3174 12.5533 1.28466 11.3174 12.5533 1.28466
174 2 11.2958 12.5509 -1.97175 11.2958 12.5509 -1.97175
175 1 12.275 10.9056 -0.34887 12.275 10.9056 -0.34887
176 2 14.2036 10.9145 1.2693 14.2036 10.9145 1.2693
177 2 14.1868 10.8968 -1.98708 14.1868 10.8968 -1.98708
178 1 15.1636 12.5521 -0.372927 15.1636 12.5521 -0.372927
179 2 17.0895 12.5554 1.24851 17.0895 12.5554 1.24851
180 2 17.0782 12.5488 -2.00794 17.0782 12.5488 -2.00794
181 1 18.0523 10.9056 -0.379822 18.0523 10.9056 -0.379822
182 2 19.9735 10.9162 1.24708 19.9735 10.9162 1.24708
183 2 19.9715 10.8951 -2.00932 19.9715 10.8951 -2.00932
184 1 20.941 12.5521 -0.392518 20.941 12.5521 -0.392518
185 2 22.8578 12.5566 1.23961 22.8578 12.5566 1.23961
186 2 22.8646 12.5476 -2.01684 22.8646 12.5476 -2.01684
187 1 23.8297 10.9056 -0.382104 23.8297 10.9056 -0.382104
188 2 25.7419 10.9168 1.2554 25.7419 10.9168 1.2554
189 2 25.7579 10.8946 -2.00095 25.7579 10.8946 -2.00095
190 1 26.7184 12.5522 -0.379364 26.7184 12.5522 -0.379364
191 2 28.6267 12.5565 1.26274 28.6267 12.5565 1.26274
192 2 28.6505 12.5478 -1.99363 28.6505 12.5478 -1.99363
193 1 29.6071 10.9057 -0.354029 29.6071 10.9057 -0.354029
194 2 31.513 10.9161 1.29075 31.513 10.9161 1.29075
195 2 31.5414 10.8952 -1.96554 31.5414 10.8952 -1.96554
196 1 32.4957 12.5522 -0.339639 32.4957 12.5522 -0.339639
197 2 34.4001 12.5554 1.30684 34.4001 12.5554 1.30684
198 2 34.4314 12.5489 -1.94949 34.4314 12.5489 -1.94949
199 1 35.3842 10.9057 -0.30881 35.3842 10.9057 -0.30881
200 2 37.2897 10.9145 1.3363 37.2897 10.9145 1.3363
201 2 37.3187 10.8969 -1.92002 37.3187 10.8969 -1.92002
202 1 38.2727 12.5521 -0.292291 38.2727 12.5521 -0.292291
203 2 40.1799 12.5534 1.35092 40.1799 12.5534 1.35092
204 2 40.2056 12.5508 -1.90549 40.2056 12.5508 -1.90549
205 1 41.1612 10.9057 -0.26839 41.1612 10.9057 -0.26839
206 2 43.0726 10.9123 1.36991 43.0726 10.9123 1.36991
207 2 43.09 10.899 -1.88653 43.09 10.899 -1.88653
208 1 44.0497 12.5521 -0.260026 44.0497 12.5521 -0.260026
209 2 45.9648 12.5515 1.3739 45.9648 12.5515 1.3739
210 2 45.9748 12.5526 -1.88261 45.9748 12.5526 -1.88261
211 1 46.9382 10.9056 -0.252073 46.9382 10.9056 -0.252073
212 2 48.8583 10.9109 1.37604 48.8583 10.9109 1.37604
213 2 48.8584 10.9003 -1.88046 48.8584 10.9003 -1.88046
214 1 49.8268 12.552 -0.257694 49.8268 12.552 -0.257694
215 2 51.7508 12.5508 1.36566 51.7508 12.5508 1.36566
216 2 51.7429 12.5533 -1.89085 51.7429 12.5533 -1.89085
217 1 0.720939 14.1984 -0.263847 0.720939 14.1984 -0.263847
218 2 2.64874 14.1909 1.35507 2.64874 14.1909 1.35507
219 2 2.6333 14.2059 -1.90137 2.6333 14.2059 -1.90137
220 1 3.60945 15.8448 -0.270295 3.60945 15.8448 -0.270295
221 2 5.54025 15.8315 1.34505 5.54025 15.8315 1.34505
222 2 5.51884 15.8581 -1.91127 5.51884 15.8581 -1.91127
223 1 6.49793 14.1985 -0.303096 6.49793 14.1985 -0.303096
224 2 8.42971 14.1921 1.31114 8.42971 14.1921 1.31114
225 2 8.40636 14.2049 -1.94525 8.40636 14.2049 -1.94525
226 1 9.38647 15.8449 -0.317635 9.38647 15.8449 -0.317635
227 2 11.3186 15.833 1.2962 11.3186 15.833 1.2962
228 2 11.2946 15.8569 -1.9601 11.2946 15.8569 -1.9601
229 1 12.275 14.1986 -0.351302 12.275 14.1986 -0.351302
230 2 14.2047 14.1942 1.26551 14.2047 14.1942 1.26551
231 2 14.1857 14.203 -1.9909 14.1857 14.203 -1.9909
232 1 15.1636 15.8451 -0.363979 15.1636 15.8451 -0.363979
233 2 17.0907 15.8351 1.256 17.0907 15.8351 1.256
234 2 17.077 15.8551 -2.00038 17.077 15.8551 -2.00038
235 1 18.0523 14.1986 -0.386478 18.0523 14.1986 -0.386478
236 2 19.9743 14.196 1.23951 19.9743 14.196 1.23951
237 2 19.9707 14.2012 -2.01695 19.9707 14.2012 -2.01695
238 1 20.941 15.8452 -0.387203 20.941 15.8452 -0.387203
239 2 22.8584 15.8364 1.24427 22.8584 15.8364 1.24427
240 2 22.8641 15.8539 -2.01214 22.8641 15.8539 -2.01214
241 1 23.8297 14.1987 -0.391224 23.8297 14.1987 -0.391224
242 2 25.742 14.1965 1.24631 25.742 14.1965 1.24631
243 2 25.7579 14.2008 -2.01011 25.7579 14.2008 -2.01011
244 1 26.7184 15.8452 -0.375089 26.7184 15.8452 -0.375089
245 2 28.6266 15.8363 1.26719 28.6266 15.8363 1.26719
246 2 28.6507 15.854 -1.98914 28.6507 15.854 -1.98914
247 1 29.6071 14.1986 -0.362888 29.6071 14.1986 -0.362888
248 2 31.5125 14.1959 1.28259 31.5125 14.1959 1.28259
249 2 31.542 14.2014 -1.97376 31.542 14.2014 -1.97376
250 1 32.4957 15.8451 -0.334146 32.4957 15.8451 -0.334146
251 2 34.3995 15.8353 1.313 34.3995 15.8353 1.313
252 2 34.432 15.8548 -1.94327 34.432 15.8548 -1.94327
253 1 35.3842 14.1986 -0.315441 35.3842 14.1986 -0.315441
254 2 37.2887 14.1945 1.3309 37.2887 14.1945 1.3309
255 2 37.3198 14.2027 -1.92544 37.3198 14.2027 -1.92544
256 1 38.2727 15.845 -0.284009 38.2727 15.845 -0.284009
257 2 40.179 15.8338 1.36025 40.179 15.8338 1.36025
258 2 40.2065 15.8561 -1.89607 40.2065 15.8561 -1.89607
259 1 41.1612 14.1985 -0.271137 41.1612 14.1985 -0.271137
260 2 43.0714 14.1925 1.36852 43.0714 14.1925 1.36852
261 2 43.0911 14.2045 -1.88791 43.0911 14.2045 -1.88791
262 1 44.0497 15.8449 -0.247919 44.0497 15.8449 -0.247919
263 2 45.9641 15.8321 1.38683 45.9641 15.8321 1.38683
264 2 45.9755 15.8575 -1.86957 45.9755 15.8575 -1.86957
265 1 46.9382 14.1984 -0.250999 46.9382 14.1984 -0.250999
266 2 48.8577 14.1911 1.37775 48.8577 14.1911 1.37775
267 2 48.8589 14.2057 -1.87873 48.8589 14.2057 -1.87873
268 1 49.8268 15.8448 -0.242852 49.8268 15.8448 -0.242852
269 2 51.7508 15.8312 1.38054 51.7508 15.8312 1.38054
270 2 51.743 15.8583 -1.87586 51.743 15.8583 -1.87586
271 1 0.720986 17.4911 -0.236388 0.720986 17.4911 -0.236388
272 2 2.64908 17.472 1.38211 2.64908 17.472 1.38211
273 2 2.63307 17.5103 -1.87414 2.63307 17.5103 -1.87414
274 1 3.60954 19.1374 -0.231492 3.60954 19.1374 -0.231492
275 2 5.5409 19.1134 1.38309 5.5409 19.1134 1.38309
276 2 5.51836 19.1615 -1.87298 5.51836 19.1615 -1.87298
277 1 6.49799 17.4912 -0.276099 6.49799 17.4912 -0.276099
278 2 8.43069 17.4726 1.33697 8.43069 17.4726 1.33697
279 2 8.40549 17.5099 -1.91922 8.40549 17.5099 -1.91922
280 1 9.38656 19.1376 -0.279816 9.38656 19.1376 -0.279816
281 2 11.3198 19.1143 1.33254 11.3198 19.1143 1.33254
282 2 11.2935 19.161 -1.9235 11.2935 19.161 -1.9235
283 1 12.2751 17.4914 -0.327075 12.2751 17.4914 -0.327075
284 2 14.2061 17.4743 1.28806 14.2061 17.4743 1.28806
285 2 14.1843 17.5085 -1.96816 14.1843 17.5085 -1.96816
286 1 15.1637 19.1379 -0.329235 15.1637 19.1379 -0.329235
287 2 17.0921 19.116 1.28903 17.0921 19.116 1.28903
288 2 17.0756 19.1598 -1.96711 17.0756 19.1598 -1.96711
289 1 18.0523 17.4916 -0.366206 18.0523 17.4916 -0.366206
290 2 19.9754 17.4761 1.25847 19.9754 17.4761 1.25847
291 2 19.9696 17.5071 -1.99785 19.9696 17.5071 -1.99785
292 1 20.941 19.138 -0.355715 20.941 19.138 -0.355715
293 2 22.8592 19.1172 1.27471 22.8592 19.1172 1.27471
294 2 22.8632 19.1589 -1.98149 22.8632 19.1589 -1.98149
295 1 23.8297 17.4916 -0.373375 23.8297 17.4916 -0.373375
296 2 25.7423 17.4766 1.26375 25.7423 17.4766 1.26375
297 2 25.7576 17.5066 -1.99254 25.7576 17.5066 -1.99254
298 1 26.7184 19.138 -0.344692 26.7184 19.138 -0.344692
299 2 28.6268 19.1172 1.29727 28.6268 19.1172 1.29727
300 2 28.6504 19.1588 -1.95885 28.6504 19.1588 -1.95885
301 1 29.6071 17.4916 -0.344883 29.6071 17.4916 -0.344883
302 2 31.5123 17.4761 1.30075 31.5123 17.4761 1.30075
303 2 31.5422 17.5069 -1.95545 31.5422 17.5069 -1.95545
304 1 32.4956 19.1379 -0.302929 32.4956 19.1379 -0.302929
305 2 34.3994 19.1166 1.34421 34.3994 19.1166 1.34421
306 2 34.432 19.159 -1.91184 34.432 19.159 -1.91184
307 1 35.3842 17.4914 -0.295724 35.3842 17.4914 -0.295724
308 2 37.2882 17.4751 1.35113 37.2882 17.4751 1.35113
309 2 37.3202 17.5076 -1.90505 37.3202 17.5076 -1.90505
310 1 38.2726 19.1377 -0.251059 38.2726 19.1377 -0.251059
311 2 40.1787 19.1157 1.39344 40.1787 19.1157 1.39344
312 2 40.2068 19.1595 -1.86265 40.2068 19.1595 -1.86265
313 1 41.1612 17.4913 -0.248519 41.1612 17.4913 -0.248519
314 2 43.0708 17.4737 1.39183 43.0708 17.4737 1.39183
315 2 43.0917 17.5087 -1.86443 43.0917 17.5087 -1.86443
316 1 44.0497 19.1375 -0.212434 44.0497 19.1375 -0.212434
317 2 45.9638 19.1146 1.42256 45.9638 19.1146 1.42256
318 2 45.9758 19.1603 -1.83361 45.9758 19.1603 -1.83361
319 1 46.9382 17.4911 -0.225228 46.9382 17.4911 -0.225228
320 2 48.8575 17.4725 1.40379 48.8575 17.4725 1.40379
321 2 48.8593 17.5098 -1.85251 48.8593 17.5098 -1.85251
322 1 49.8268 19.1374 -0.205059 49.8268 19.1374 -0.205059
323 2 51.7509 19.1137 1.41819 51.7509 19.1137 1.41819
324 2 51.743 19.1611 -1.83797 51.743 19.1611 -1.83797
325 1 0.721058 20.7836 -0.188321 0.721058 20.7836 -0.188321
326 2 2.64943 20.7557 1.42977 2.64943 20.7557 1.42977
327 2 2.63289 20.8115 -1.82622 2.63289 20.8115 -1.82622
328 1 3.60965 22.4298 -0.174989 3.60965 22.4298 -0.174989
329 2 5.54144 22.3988 1.43902 5.54144 22.3988 1.43902
330 2 5.51806 22.4609 -1.8168 5.51806 22.4609 -1.8168
331 1 6.49811 20.7837 -0.227393 6.49811 20.7837 -0.227393
332 2 8.43158 20.7557 1.38464 8.43158 20.7557 1.38464
333 2 8.40482 20.8118 -1.87125 8.40482 20.8118 -1.87125
334 1 9.3867 22.43 -0.222872 9.3867 22.43 -0.222872
335 2 11.3209 22.3989 1.38825 11.3209 22.3989 1.38825
336 2 11.2927 22.4612 -1.86752 11.2927 22.4612 -1.86752
337 1 12.2752 20.784 -0.279711 12.2752 20.784 -0.279711
338 2 14.2075 20.7567 1.33376 14.2075 20.7567 1.33376
339 2 14.1831 20.8114 -1.92217 14.1831 20.8114 -1.92217
340 1 15.1638 22.4303 -0.273805 15.1638 22.4303 -0.273805
341 2 17.0935 22.3999 1.3428 17.0935 22.3999 1.3428
342 2 17.0744 22.4609 -1.91306 17.0744 22.4609 -1.91306
343 1 18.0523 20.7842 -0.321781 18.0523 20.7842 -0.321781
344 2 19.9766 20.7581 1.30134 19.9766 20.7581 1.30134
345 2 19.9684 20.8105 -1.9547 19.9684 20.8105 -1.9547
346 1 20.941 22.4306 -0.302589 20.941 22.4306 -0.302589
347 2 22.8602 22.4008 1.32652 22.8602 22.4008 1.32652
348 2 22.8622 22.4603 -1.92942 22.8622 22.4603 -1.92942
349 1 23.8297 20.7844 -0.331081 23.8297 20.7844 -0.331081
350 2 25.7429 20.7587 1.3052 25.7429 20.7587 1.3052
351 2 25.7569 20.81 -1.95084 25.7569 20.81 -1.95084
352 1 26.7184 22.4306 -0.292637 26.7184 22.4306 -0.292637
353 2 28.6273 22.4009 1.34854 28.6273 22.4009 1.34854
354 2 28.6498 22.4601 -1.90733 28.6498 22.4601 -1.90733
355 1 29.607 20.7843 -0.302724 29.607 20.7843 -0.302724
356 2 31.5125 20.7584 1.3425 31.5125 20.7584 1.3425
357 2 31.5418 20.81 -1.91344 31.5418 20.81 -1.91344
358 1 32.4956 22.4304 -0.25065 32.4956 22.4304 -0.25065
359 2 34.3999 22.4008 1.39581 34.3999 22.4008 1.39581
360 2 34.4314 22.4598 -1.85999 34.4314 22.4598 -1.85999
361 1 35.3841 20.784 -0.252686 35.3841 20.784 -0.252686
362 2 37.2883 20.758 1.39387 37.2883 20.758 1.39387
363 2 37.32 20.8099 -1.86206 37.32 20.8099 -1.86206
364 1 38.2726 22.4301 -0.198431 38.2726 22.4301 -0.198431
365 2 40.1791 22.4008 1.44543 40.1791 22.4008 1.44543
366 2 40.2062 22.4593 -1.81043 40.2062 22.4593 -1.81043
367 1 41.1611 20.7838 -0.204156 41.1611 20.7838 -0.204156
368 2 43.0707 20.7574 1.4361 43.0707 20.7574 1.4361
369 2 43.0917 20.81 -1.81991 43.0917 20.81 -1.81991
370 1 44.0497 22.4299 -0.159087 44.0497 22.4299 -0.159087
371 2 45.9641 22.4003 1.47557 45.9641 22.4003 1.47557
372 2 45.9756 22.4593 -1.78038 45.9756 22.4593 -1.78038
373 1 46.9383 20.7836 -0.178928 46.9383 20.7836 -0.178928
374 2 48.8575 20.7565 1.45 48.8575 20.7565 1.45
375 2 48.8593 20.8107 -1.80606 48.8593 20.8107 -1.80606
376 1 49.8269 22.4297 -0.150135 49.8269 22.4297 -0.150135
377 2 51.7511 22.3995 1.47286 51.7511 22.3995 1.47286
378 2 51.7429 22.46 -1.78308 51.7429 22.46 -1.78308
379 1 0.721142 24.0759 -0.126957 0.721142 24.0759 -0.126957
380 2 2.64979 24.0436 1.49081 2.64979 24.0436 1.49081
381 2 2.63274 24.1082 -1.76501 2.63274 24.1082 -1.76501
382 1 3.60977 25.722 -0.109454 3.60977 25.722 -0.109454
383 2 5.54189 25.6889 1.5042 5.54189 25.6889 1.5042
384 2 5.51788 25.7552 -1.75153 5.51788 25.7552 -1.75153
385 1 6.49825 24.076 -0.164438 6.49825 24.076 -0.164438
386 2 8.43229 24.0429 1.44689 8.43229 24.0429 1.44689
387 2 8.4044 24.1092 -1.80881 8.4044 24.1092 -1.80881
388 1 9.38686 25.7222 -0.155722 9.38686 25.7222 -0.155722
389 2 11.3218 25.6884 1.45458 11.3218 25.6884 1.45458
390 2 11.2921 25.7562 -1.80107 11.2921 25.7562 -1.80107
391 1 12.2753 24.0763 -0.216473 12.2753 24.0763 -0.216473
392 2 14.2087 24.0431 1.39566 14.2087 24.0431 1.39566
393 2 14.1821 24.1096 -1.86005 14.1821 24.1096 -1.86005
394 1 15.1639 25.7225 -0.206425 15.1639 25.7225 -0.206425
395 2 17.0947 25.6885 1.40888 17.0947 25.6885 1.40888
396 2 17.0734 25.7567 -1.84684 17.0734 25.7567 -1.84684
397 1 18.0524 24.0766 -0.259897 18.0524 24.0766 -0.259897
398 2 19.9779 24.0439 1.36172 19.9779 24.0439 1.36172
399 2 19.9672 24.1094 -1.8941 19.9672 24.1094 -1.8941
400 1 20.941 25.7228 -0.236115 20.941 25.7228 -0.236115
401 2 22.8614 25.6889 1.39166 22.8614 25.6889 1.39166
402 2 22.8611 25.7567 -1.86412 22.8611 25.7567 -1.86412
403 1 23.8297 24.0767 -0.270666 23.8297 24.0767 -0.270666
404 2 25.7438 24.0443 1.36447 25.7438 24.0443 1.36447
405 2 25.756 24.1091 -1.89135 25.756 24.1091 -1.89135
406 1 26.7183 25.7228 -0.226956 26.7183 25.7228 -0.226956
407 2 28.6282 25.6891 1.41311 28.6282 25.6891 1.41311
408 2 28.6488 25.7564 -1.84262 28.6488 25.7564 -1.84262
409 1 29.607 24.0766 -0.242731 29.607 24.0766 -0.242731
410 2 31.5132 24.0444 1.40158 31.5132 24.0444 1.40158
411 2 31.541 24.1088 -1.85415 31.541 24.1088 -1.85415
412 1 32.4955 25.7226 -0.185358 32.4955 25.7226 -0.185358
413 2 34.4008 25.6895 1.45987 34.4008 25.6895 1.45987
414 2 34.4302 25.7557 -1.79582 34.4302 25.7557 -1.79582
415 1 35.384 24.0764 -0.192812 35.384 24.0764 -0.192812
416 2 37.2891 24.0447 1.45267 37.2891 24.0447 1.45267
417 2 37.319 24.108 -1.80307 37.319 24.108 -1.80307
418 1 38.2725 25.7223 -0.134225 38.2725 25.7223 -0.134225
419 2 40.1802 25.6903 1.50823 40.1802 25.6903 1.50823
420 2 40.2049 25.7543 -1.74754 40.2049 25.7543 -1.74754
421 1 41.161 24.0761 -0.144808 41.161 24.0761 -0.144808
422 2 43.0714 24.045 1.49458 43.0714 24.045 1.49458
423 2 43.091 24.1071 -1.76127 43.091 24.1071 -1.76127
424 1 44.0496 25.7221 -0.0960683 44.0496 25.7221 -0.0960683
425 2 45.9648 25.6906 1.53774 45.9648 25.6906 1.53774
426 2 45.9748 25.7536 -1.71813 45.9748 25.7536 -1.71813
427 1 46.9383 24.0759 -0.119182 46.9383 24.0759 -0.119182
428 2 48.8578 24.0445 1.50936 48.8578 24.0445 1.50936
429 2 48.859 24.1073 -1.74653 48.859 24.1073 -1.74653
430 1 49.8269 25.722 -0.0864623 49.8269 25.722 -0.0864623
431 2 51.7515 25.6899 1.53619 51.7515 25.6899 1.53619
432 2 51.7426 25.7541 -1.71966 51.7426 25.7541 -1.71966
433 1 0.721222 27.3681 -0.0618244 0.721222 27.3681 -0.0618244
434 2 2.65017 27.3366 1.55569 2.65017 27.3366 1.55569
435 2 2.63256 27.3997 -1.70014 2.63256 27.3997 -1.70014
436 1 3.60988 29.0143 -0.045478 3.60988 29.0143 -0.045478
437 2 5.54228 28.9847 1.568 5.54228 28.9847 1.568
438 2 5.51774 29.0439 -1.68786 5.51774 29.0439 -1.68786
439 1 6.4984 27.3682 -0.0972102 6.4984 27.3682 -0.0972102
440 2 8.43283 27.3356 1.51373 8.43283 27.3356 1.51373
441 2 8.40417 27.4009 -1.74198 8.40417 27.4009 -1.74198
442 1 9.38701 29.0145 -0.08955 9.38701 29.0145 -0.08955
443 2 11.3224 28.9838 1.52039 11.3224 28.9838 1.52039
444 2 11.2919 29.0452 -1.73538 11.2919 29.0452 -1.73538
445 1 12.2755 27.3685 -0.147658 12.2755 27.3685 -0.147658
446 2 14.2096 27.3351 1.46365 14.2096 27.3351 1.46365
447 2 14.1815 27.402 -1.79204 14.1815 27.402 -1.79204
448 1 15.164 29.0147 -0.138605 15.164 29.0147 -0.138605
449 2 17.0955 28.9832 1.47599 17.0955 28.9832 1.47599
450 2 17.0728 29.0464 -1.77983 17.0728 29.0464 -1.77983
451 1 18.0525 27.3688 -0.190693 18.0525 27.3688 -0.190693
452 2 19.979 27.3351 1.42976 19.979 27.3351 1.42976
453 2 19.9663 27.4026 -1.82602 19.9663 27.4026 -1.82602
454 1 20.9411 29.015 -0.167607 20.9411 29.015 -0.167607
455 2 22.8623 28.9829 1.45917 22.8623 28.9829 1.45917
456 2 22.8601 29.0471 -1.7967 22.8601 29.0471 -1.7967
457 1 23.8297 27.3689 -0.201885 23.8297 27.3689 -0.201885
458 2 25.7448 27.3352 1.43205 25.7448 27.3352 1.43205
459 2 25.7549 27.4026 -1.82373 25.7549 27.4026 -1.82373
460 1 26.7183 29.015 -0.158589 26.7183 29.015 -0.158589
461 2 28.6292 28.983 1.48031 28.6292 28.983 1.48031
462 2 28.6476 29.0469 -1.77551 28.6476 29.0469 -1.77551
463 1 29.6069 27.3688 -0.174466 29.6069 27.3688 -0.174466
464 2 31.5142 27.3355 1.4686 31.5142 27.3355 1.4686
465 2 31.5398 27.4021 -1.78712 31.5398 27.4021 -1.78712
466 1 32.4953 29.0148 -0.117825 32.4953 29.0148 -0.117825
467 2 34.4021 28.9837 1.52583 34.4021 28.9837 1.52583
468 2 34.4287 29.0458 -1.72997 34.4287 29.0458 -1.72997
469 1 35.3839 27.3686 -0.125625 35.3839 27.3686 -0.125625
470 2 37.2905 27.3364 1.51822 37.2905 27.3364 1.51822
471 2 37.3175 27.4007 -1.73753 37.3175 27.4007 -1.73753
472 1 38.2723 29.0146 -0.0689935 38.2723 29.0146 -0.0689935
473 2 40.1818 28.9852 1.57156 40.1818 28.9852 1.57156
474 2 40.2031 29.0439 -1.68433 40.2031 29.0439 -1.68433
475 1 41.161 27.3683 -0.0798262 41.161 27.3683 -0.0798262
476 2 43.0727 27.3375 1.55808 43.0727 27.3375 1.55808
477 2 43.0896 27.3991 -1.69778 43.0896 27.3991 -1.69778
478 1 44.0496 29.0144 -0.0335682 44.0496 29.0144 -0.0335682
479 2 45.9659 28.9861 1.59903 45.9659 28.9861 1.59903
480 2 45.9737 29.0426 -1.65696 45.9737 29.0426 -1.65696
481 1 46.9383 27.3681 -0.0552903 46.9383 27.3681 -0.0552903
482 2 48.8585 27.3375 1.57262 48.8585 27.3375 1.57262
483 2 48.8584 27.3988 -1.68329 48.8584 27.3988 -1.68329
484 1 49.8269 29.0143 -0.0242607 49.8269 29.0143 -0.0242607
485 2 51.752 28.9857 1.59801 51.752 28.9857 1.59801
486 2 51.7423 29.0428 -1.65796 51.7423 29.0428 -1.65796
487 1 0.721286 30.6605 -0.00388132 0.721286 30.6605 -0.00388132
488 2 2.65056 30.6354 1.61345 2.65056 30.6354 1.61345
489 2 2.63234 30.6857 -1.6426 2.63234 30.6857 -1.6426
490 1 3.60995 32.3068 0.00557327 3.60995 32.3068 0.00557327
491 2 5.54257 32.2864 1.61901 5.54257 32.2864 1.61901
492 2 5.51763 32.3274 -1.63711 5.51763 32.3274 -1.63711
493 1 6.49852 30.6606 -0.0371933 6.49852 30.6606 -0.0371933
494 2 8.4332 30.6344 1.57364 8.4332 30.6344 1.57364
495 2 8.40405 30.6869 -1.68229 8.40405 30.6869 -1.68229
496 1 9.38711 32.3069 -0.0363215 9.38711 32.3069 -0.0363215
497 2 11.3226 32.2853 1.57369 11.3226 32.2853 1.57369
498 2 11.2918 32.3287 -1.68237 11.2918 32.3287 -1.68237
499 1 12.2756 30.6608 -0.0853841 12.2756 30.6608 -0.0853841
500 2 14.2101 30.6333 1.5257 14.2101 30.6333 1.5257
501 2 14.1813 30.6883 -1.73021 14.1813 30.6883 -1.73021
502 1 15.1641 32.3071 -0.0828614 15.1641 32.3071 -0.0828614
503 2 17.0957 32.284 1.53177 17.0957 32.284 1.53177
504 2 17.0727 32.3304 -1.72434 17.0727 32.3304 -1.72434
505 1 18.0526 30.661 -0.126517 18.0526 30.661 -0.126517
506 2 19.9796 30.6325 1.49341 19.9796 30.6325 1.49341
507 2 19.9657 30.6896 -1.76257 19.9657 30.6896 -1.76257
508 1 20.9411 32.3073 -0.109624 20.9411 32.3073 -0.109624
509 2 22.8628 32.283 1.51679 22.8628 32.283 1.51679
510 2 22.8597 32.3317 -1.73936 22.8597 32.3317 -1.73936
511 1 23.8297 30.6611 -0.136774 23.8297 30.6611 -0.136774
512 2 25.7457 30.6321 1.49626 25.7457 30.6321 1.49626
513 2 25.7539 30.6902 -1.75971 25.7539 30.6902 -1.75971
514 1 26.7182 32.3073 -0.0997217 26.7182 32.3073 -0.0997217
515 2 28.6301 32.2829 1.53823 28.6301 32.2829 1.53823
516 2 28.6465 32.3318 -1.71787 28.6465 32.3318 -1.71787
517 1 29.6068 30.661 -0.109625 29.6068 30.661 -0.109625
518 2 31.5153 30.6325 1.53211 31.5153 30.6325 1.53211
519 2 31.5384 30.6895 -1.72381 31.5384 30.6895 -1.72381
520 1 32.4952 32.3072 -0.0599621 32.4952 32.3072 -0.0599621
521 2 34.4036 32.2839 1.58205 34.4036 32.2839 1.58205
522 2 34.427 32.3305 -1.67403 34.427 32.3305 -1.67403
523 1 35.3838 30.6609 -0.0626085 35.3838 30.6609 -0.0626085
524 2 37.2921 30.6339 1.57931 37.2921 30.6339 1.57931
525 2 37.3156 30.6878 -1.67665 37.3156 30.6878 -1.67665
526 1 38.2723 32.307 -0.0142853 38.2723 32.307 -0.0142853
527 2 40.1837 32.2857 1.62421 40.1837 32.2857 1.62421
528 2 40.2011 32.3283 -1.63195 40.2011 32.3283 -1.63195
529 1 41.1609 30.6607 -0.0202333 41.1609 30.6607 -0.0202333
530 2 43.0743 30.6356 1.61587 43.0743 30.6356 1.61587
531 2 43.0879 30.6858 -1.6402 43.0879 30.6858 -1.6402
532 1 44.0495 32.3069 0.017403 44.0495 32.3069 0.017403
533 2 45.9672 32.2871 1.64861 45.9672 32.2871 1.64861
534 2 45.9723 32.3267 -1.60762 45.9723 32.3267 -1.60762
535 1 46.9382 30.6606 0.00201216 46.9382 30.6606 0.00201216
536 2 48.8593 30.636 1.62912 48.8593 30.636 1.62912
537 2 48.8576 30.6851 -1.62699 48.8576 30.6851 -1.62699
538 1 49.827 32.3068 0.0254667 49.827 32.3068 0.0254667