ITEM: TIMESTEP
1465000
ITEM: NUMBER OF ATOMS
810
ITEM: BOX BOUNDS pp pp pp
-2.8941279646284253e+00 5.5911732964627490e+01
8.1394622342039402e-01 5.0202268776579182e+01
-1.0000000000000000e+01 1.0000000000000000e+01
ITEM: ATOMS id type x y z xu yu zu
1 1 -2.61587 1.02843 -0.180978 -2.61587 1.02843 -0.180978
2 2 -0.463917 1.03137 1.4288 -0.463917 1.03137 1.4288
3 2 -0.463505 1.02526 -1.79027 -0.463505 1.02526 -1.79027
4 1 0.650548 2.67485 -0.183659 0.650548 2.67485 -0.183659
5 2 2.80225 2.67999 1.42628 2.80225 2.67999 1.42628
6 2 2.80289 2.66946 -1.79278 2.80289 2.66946 -1.79278
7 1 3.91799 1.02854 -0.177601 3.91799 1.02854 -0.177601
8 2 6.06789 1.03429 1.43489 6.06789 1.03429 1.43489
9 2 6.07235 1.02249 -1.78416 6.07235 1.02249 -1.78416
10 1 7.18439 2.67487 -0.179065 7.18439 2.67487 -0.179065
11 2 9.33374 2.68256 1.43413 9.33374 2.68256 1.43413
12 2 9.3393 2.66676 -1.7849 9.3393 2.66676 -1.7849
13 1 10.452 1.02852 -0.165345 10.452 1.02852 -0.165345
14 2 12.6004 1.03589 1.44922 12.6004 1.03589 1.44922
15 2 12.6079 1.02064 -1.76982 12.6079 1.02064 -1.76982
16 1 13.7184 2.67464 -0.165492 13.7184 2.67464 -0.165492
17 2 15.867 2.68315 1.44883 15.867 2.68315 1.44883
18 2 15.8741 2.66556 -1.77021 15.8741 2.66556 -1.77021
19 1 16.986 1.02826 -0.149214 16.986 1.02826 -0.149214
20 2 19.1348 1.03562 1.46462 19.1348 1.03562 1.46462
21 2 19.1411 1.02029 -1.75445 19.1411 1.02029 -1.75445
22 1 20.2523 2.67427 -0.150611 20.2523 2.67427 -0.150611
23 2 22.4016 2.68236 1.4626 22.4016 2.68236 1.4626
24 2 22.4071 2.66564 -1.75644 22.4071 2.66564 -1.75644
25 1 23.5198 1.02792 -0.136525 23.5198 1.02792 -0.136525
26 2 25.6707 1.03467 1.47478 25.6707 1.03467 1.47478
27 2 25.6732 1.0207 -1.74428 25.6732 1.0207 -1.74428
28 1 26.7865 2.67401 -0.141125 26.7865 2.67401 -0.141125
29 2 28.9387 2.68032 1.46849 28.9387 2.68032 1.46849
30 2 28.9387 2.66743 -1.75057 28.9387 2.66743 -1.75057
31 1 30.0541 1.02779 -0.13454 30.0541 1.02779 -0.13454
32 2 32.2088 1.03334 1.47166 32.2088 1.03334 1.47166
33 2 32.2036 1.02205 -1.74742 32.2036 1.02205 -1.74742
34 1 33.3206 2.67408 -0.145538 33.3206 2.67408 -0.145538
35 2 35.4763 2.67765 1.45912 35.4763 2.67765 1.45912
36 2 35.4689 2.67048 -1.75995 35.4689 2.67048 -1.75995
37 1 36.5879 1.02794 -0.14931 36.5879 1.02794 -0.14931
38 2 38.7447 1.03132 1.45386 38.7447 1.03132 1.45386
39 2 38.7352 1.02452 -1.7652 38.7352 1.02452 -1.7652
40 1 39.8544 2.67435 -0.162442 39.8544 2.67435 -0.162442
41 2 42.0099 2.67512 1.44259 42.0099 2.67512 1.44259
42 2 42.0034 2.67361 -1.77647 42.0034 2.67361 -1.77647
43 1 43.1219 1.02816 -0.168383 43.1219 1.02816 -0.168383
44 2 45.2769 1.02948 1.43727 45.2769 1.02948 1.43727
45 2 45.2713 1.02676 -1.78179 45.2713 1.02676 -1.78179
46 1 46.3886 2.67461 -0.175582 46.3886 2.67461 -0.175582
47 2 48.542 2.67427 1.43215 48.542 2.67427 1.43215
48 2 48.5396 2.67487 -1.78691 48.5396 2.67487 -1.78691
49 1 49.6561 1.02833 -0.178505 49.6561 1.02833 -0.178505
50 2 51.8087 1.0295 1.43019 51.8087 1.0295 1.43019
51 2 51.8077 1.02699 -1.78887 51.8077 1.02699 -1.78887
52 1 52.9226 2.67477 -0.181004 52.9226 2.67477 -0.181004
53 2 55.0754 2.6763 1.42741 55.0754 2.6763 1.42741
54 2 55.0738 2.67305 -1.79164 55.0738 2.67305 -1.79164
55 1 -2.61681 4.3212 -0.184328 -2.61681 4.3212 -0.184328
56 2 -0.46331 4.3245 1.42332 -0.46331 4.3245 1.42332
57 2 -0.466092 4.3177 -1.79574 -0.466092 4.3177 -1.79574
58 1 0.64973 5.96759 -0.190613 0.64973 5.96759 -0.190613
59 2 2.80332 5.97291 1.41672 2.80332 5.97291 1.41672
60 2 2.80013 5.96207 -1.80233 2.80013 5.96207 -1.80233
61 1 3.91693 4.32122 -0.188323 3.91693 4.32122 -0.188323
62 2 6.06812 4.32837 1.42232 6.06812 4.32837 1.42232
63 2 6.06994 4.31378 -1.79672 6.06994 4.31378 -1.79672
64 1 7.18353 5.96747 -0.193962 7.18353 5.96747 -0.193962
65 2 9.33385 5.97596 1.41784 9.33385 5.97596 1.41784
66 2 9.33749 5.95858 -1.80118 9.33749 5.95858 -1.80118
67 1 10.4509 4.32105 -0.1815 10.4509 4.32105 -0.1815
68 2 12.5999 4.33009 1.43227 12.5999 4.33009 1.43227
69 2 12.6063 4.31149 -1.78675 12.6063 4.31149 -1.78675
70 1 13.7176 5.96709 -0.184503 13.7176 5.96709 -0.184503
71 2 15.8662 5.97662 1.42977 15.8662 5.97662 1.42977
72 2 15.8734 5.957 -1.78927 15.8734 5.957 -1.78927
73 1 16.985 4.32065 -0.167228 16.985 4.32065 -0.167228
74 2 19.1335 4.32965 1.447 19.1335 4.32965 1.447
75 2 19.1405 4.31109 -1.77205 19.1405 4.31109 -1.77205
76 1 20.2515 5.96662 -0.169608 20.2515 5.96662 -0.169608
77 2 22.4002 5.97524 1.4445 22.4002 5.97524 1.4445
78 2 22.407 5.95756 -1.77453 22.407 5.95756 -1.77453
79 1 23.5189 4.32028 -0.153625 23.5189 4.32028 -0.153625
80 2 25.6688 4.32777 1.45901 25.6688 4.32777 1.45901
81 2 25.6734 4.31241 -1.76003 25.6734 4.31241 -1.76003
82 1 26.7857 5.96638 -0.156855 26.7857 5.96638 -0.156855
83 2 28.9364 5.97215 1.45482 28.9364 5.97215 1.45482
84 2 28.9395 5.96045 -1.76425 28.9395 5.96045 -1.76425
85 1 30.0532 4.32021 -0.147742 30.0532 4.32021 -0.147742
86 2 32.2066 4.32481 1.46021 32.2066 4.32481 1.46021
87 2 32.2041 4.31553 -1.75889 32.2041 4.31553 -1.75889
88 1 33.3199 5.96653 -0.155032 33.3199 5.96653 -0.155032
89 2 35.4731 5.96745 1.45285 35.4731 5.96745 1.45285
90 2 35.4707 5.96575 -1.76624 35.4707 5.96575 -1.76624
91 1 36.5871 4.32047 -0.156696 36.5871 4.32047 -0.156696
92 2 38.7421 4.32083 1.44881 38.7421 4.32083 1.44881
93 2 38.7362 4.32021 -1.77026 38.7362 4.32021 -1.77026
94 1 39.8538 5.96694 -0.163129 39.8538 5.96694 -0.163129
95 2 42.0079 5.96413 1.44379 42.0079 5.96413 1.44379
96 2 42.0041 5.96993 -1.77527 42.0041 5.96993 -1.77527
97 1 43.1212 4.32082 -0.169978 43.1212 4.32082 -0.169978
98 2 45.2751 4.31891 1.43708 45.2751 4.31891 1.43708
99 2 45.2717 4.32277 -1.78198 45.2717 4.32277 -1.78198
100 1 46.388 5.96732 -0.171714 46.388 5.96732 -0.171714
101 2 48.5418 5.96465 1.43553 48.5418 5.96465 1.43553
102 2 48.5385 5.97009 -1.78353 48.5385 5.97009 -1.78353
103 1 49.6553 4.32109 -0.177947 49.6553 4.32109 -0.177947
104 2 51.8087 4.32081 1.42971 51.8087 4.32081 1.42971
105 2 51.806 4.32128 -1.78935 51.806 4.32128 -1.78935
106 1 52.9219 5.96756 -0.180514 52.9219 5.96756 -0.180514
107 2 55.0763 5.96855 1.42579 55.0763 5.96855 1.42579
108 2 55.0715 5.96647 -1.79326 55.0715 5.96647 -1.79326
109 1 -2.61737 7.61399 -0.186445 -2.61737 7.61399 -0.186445
110 2 -0.461776 7.61682 1.41836 -0.461776 7.61682 1.41836
111 2 -0.468785 7.61103 -1.8007 -0.468785 7.61103 -1.8007
112 1 0.649414 9.26034 -0.196516 0.649414 9.26034 -0.196516
113 2 2.80513 9.26485 1.40797 2.80513 9.26485 1.40797
114 2 2.7977 9.25567 -1.81108 2.7977 9.25567 -1.81108
115 1 3.91634 7.6139 -0.199371 3.91634 7.6139 -0.199371
116 2 6.06925 7.62074 1.40892 6.06925 7.62074 1.40892
117 2 6.06764 7.60679 -1.81011 6.06764 7.60679 -1.81011
118 1 7.18325 9.26007 -0.208205 7.18325 9.26007 -0.208205
119 2 9.33497 9.26791 1.40171 9.33497 9.26791 1.40171
120 2 9.33584 9.25186 -1.81732 9.33584 9.25186 -1.81732
121 1 10.4504 7.61357 -0.199261 10.4504 7.61357 -0.199261
122 2 12.5999 7.62271 1.41358 12.5999 7.62271 1.41358
123 2 12.6051 7.60393 -1.80543 12.6051 7.60393 -1.80543
124 1 13.7174 9.25953 -0.203715 13.7174 9.25953 -0.203715
125 2 15.8662 9.26885 1.41014 15.8662 9.26885 1.41014
126 2 15.8729 9.24972 -1.80889 15.8729 9.24972 -1.80889
127 1 16.9844 7.61304 -0.187294 16.9844 7.61304 -0.187294
128 2 19.1326 7.62249 1.42733 19.1326 7.62249 1.42733
129 2 19.1403 7.60309 -1.79171 19.1403 7.60309 -1.79171
130 1 20.2512 9.25898 -0.189459 20.2512 9.25898 -0.189459
131 2 22.3987 9.26723 1.42606 22.3987 9.26723 1.42606
132 2 22.4078 9.25041 -1.79296 22.4078 9.25041 -1.79296
133 1 23.5183 7.61263 -0.171715 23.5183 7.61263 -0.171715
134 2 25.6669 7.61995 1.44262 25.6669 7.61995 1.44262
135 2 25.6741 7.60506 -1.77642 25.6741 7.60506 -1.77642
136 1 26.7853 9.25876 -0.172066 26.7853 9.25876 -0.172066
137 2 28.9338 9.2635 1.44245 28.9338 9.2635 1.44245
138 2 28.9413 9.254 -1.77662 28.9413 9.254 -1.77662
139 1 30.0526 7.61261 -0.159708 30.0526 7.61261 -0.159708
140 2 32.2036 7.61496 1.45141 32.2036 7.61496 1.45141
141 2 32.2059 7.61034 -1.76769 32.2059 7.61034 -1.76769
142 1 33.3194 9.25898 -0.159812 33.3194 9.25898 -0.159812
143 2 35.4701 9.25761 1.45165 35.4701 9.25761 1.45165
144 2 35.4729 9.26064 -1.76744 35.4729 9.26064 -1.76744
145 1 36.5865 7.61298 -0.158496 36.5865 7.61298 -0.158496
146 2 38.7394 7.61019 1.44995 38.7394 7.61019 1.44995
147 2 38.7378 7.61604 -1.76912 38.7378 7.61604 -1.76912
148 1 39.8534 9.2595 -0.157217 39.8534 9.2595 -0.157217
149 2 42.0061 9.25397 1.45161 42.0061 9.25397 1.45161
150 2 42.0051 9.26539 -1.76744 42.0051 9.26539 -1.76744
151 1 43.1207 7.61347 -0.16412 43.1207 7.61347 -0.16412
152 2 45.2742 7.60899 1.44349 45.2742 7.60899 1.44349
153 2 45.2715 7.61816 -1.77556 45.2715 7.61816 -1.77556
154 1 46.3876 9.26002 -0.162359 46.3876 9.26002 -0.162359
155 2 48.5426 9.25589 1.44347 48.5426 9.25589 1.44347
156 2 48.537 9.26443 -1.77558 48.537 9.26443 -1.77558
157 1 49.6547 7.61385 -0.172416 49.6547 7.61385 -0.172416
158 2 51.8099 7.61213 1.43299 51.8099 7.61213 1.43299
159 2 51.8038 7.61565 -1.78607 51.8038 7.61565 -1.78607
160 1 52.9215 9.26035 -0.1769 52.9215 9.26035 -0.1769
161 2 55.0783 9.26052 1.42625 55.0783 9.26052 1.42625
162 2 55.0688 9.26021 -1.79279 55.0688 9.26021 -1.79279
163 1 -2.61744 10.9068 -0.186706 -2.61744 10.9068 -0.186706
164 2 -0.459447 10.9088 1.41492 -0.459447 10.9088 1.41492
165 2 -0.471215 10.9047 -1.80413 -0.471215 10.9047 -1.80413
166 1 0.649657 12.553 -0.200758 0.649657 12.553 -0.200758
167 2 2.80727 12.5563 1.40117 2.80727 12.5563 1.40117
168 2 2.79612 12.5497 -1.81788 2.79612 12.5497 -1.81788
169 1 3.91634 10.9066 -0.208744 3.91634 10.9066 -0.208744
170 2 6.07114 10.9124 1.39703 6.07114 10.9124 1.39703
171 2 6.06578 10.9005 -1.82201 6.06578 10.9005 -1.82201
172 1 7.18359 12.5526 -0.22032 7.18359 12.5526 -0.22032
173 2 9.33654 12.5588 1.3879 9.33654 12.5588 1.3879
174 2 9.33498 12.5462 -1.83114 9.33498 12.5462 -1.83114
175 1 10.4504 10.9061 -0.215655 10.4504 10.9061 -0.215655
176 2 12.6008 10.9142 1.39605 12.6008 10.9142 1.39605
177 2 12.6044 10.8976 -1.82298 12.6044 10.8976 -1.82298
178 1 13.7177 12.552 -0.220681 13.7177 12.552 -0.220681
179 2 15.8668 12.5595 1.3927 15.8668 12.5595 1.3927
180 2 15.8729 12.5441 -1.82635 15.8729 12.5441 -1.82635
181 1 16.9845 10.9054 -0.20682 16.9845 10.9054 -0.20682
182 2 19.1321 10.9137 1.40837 19.1321 10.9137 1.40837
183 2 19.1408 10.8968 -1.81068 19.1408 10.8968 -1.81068
184 1 20.2515 12.5514 -0.206831 20.2515 12.5514 -0.206831
185 2 22.398 12.5582 1.40981 22.398 12.5582 1.40981
186 2 22.4089 12.5444 -1.80922 22.4089 12.5444 -1.80922
187 1 23.5182 10.905 -0.188921 23.5182 10.905 -0.188921
188 2 25.6652 10.9114 1.42737 25.6652 10.9114 1.42737
189 2 25.6755 10.8985 -1.79166 25.6755 10.8985 -1.79166
190 1 26.7854 12.5512 -0.185187 26.7854 12.5512 -0.185187
191 2 28.9311 12.5541 1.4328 28.9311 12.5541 1.4328
192 2 28.944 12.5484 -1.78626 28.944 12.5484 -1.78626
193 1 30.0524 10.905 -0.169428 30.0524 10.905 -0.169428
194 2 32.2001 10.9059 1.44597 32.2001 10.9059 1.44597
195 2 32.2089 10.9044 -1.77313 32.2089 10.9044 -1.77313
196 1 33.3193 12.5514 -0.161417 33.3193 12.5514 -0.161417
197 2 35.4668 12.5485 1.45421 35.4668 12.5485 1.45421
198 2 35.4759 12.5548 -1.76486 35.4759 12.5548 -1.76486
199 1 36.5863 10.9055 -0.155456 36.5863 10.9055 -0.155456
200 2 38.7368 10.9008 1.45622 38.7368 10.9008 1.45622
201 2 38.7399 10.9105 -1.76284 38.7399 10.9105 -1.76284
202 1 39.8533 12.552 -0.147369 39.8533 12.552 -0.147369
203 2 42.0048 12.5459 1.46317 42.0048 12.5459 1.46317
204 2 42.0062 12.5587 -1.75588 42.0062 12.5587 -1.75588
205 1 43.1204 10.9061 -0.152541 43.1204 10.9061 -0.152541
206 2 45.2744 10.9002 1.45469 45.2744 10.9002 1.45469
207 2 45.2709 10.9124 -1.76435 45.2709 10.9124 -1.76435
208 1 46.3876 12.5527 -0.149913 46.3876 12.5527 -0.149913
209 2 48.5443 12.5483 1.45375 48.5443 12.5483 1.45375
210 2 48.5353 12.5575 -1.76529 48.5353 12.5575 -1.76529
211 1 49.6546 10.9066 -0.163673 49.6546 10.9066 -0.163673
212 2 51.8119 10.904 1.43903 51.8119 10.904 1.43903
213 2 51.8016 10.9094 -1.78002 51.8016 10.9094 -1.78002
214 1 52.9216 12.5531 -0.171318 52.9216 12.5531 -0.171318
215 2 55.081 12.5525 1.42855 55.081 12.5525 1.42855
216 2 55.0665 12.5539 -1.79047 55.0665 12.5539 -1.79047
217 1 -2.61701 14.1995 -0.185259 -2.61701 14.1995 -0.185259
218 2 -0.456921 14.2001 1.41362 -0.456921 14.2001 1.41362
219 2 -0.472776 14.1989 -1.80542 -0.472776 14.1989 -1.80542
220 1 0.650406 15.8457 -0.201931 0.650406 15.8457 -0.201931
221 2 2.80962 15.8466 1.39793 2.80962 15.8466 1.39793
222 2 2.79538 15.8448 -1.82112 2.79538 15.8448 -1.82112
223 1 3.91691 14.1992 -0.21555 3.91691 14.1992 -0.21555
224 2 6.07313 14.2027 1.38831 6.07313 14.2027 1.38831
225 2 6.06502 14.1956 -1.83074 6.06502 14.1956 -1.83074
226 1 7.18447 15.8452 -0.227585 7.18447 15.8452 -0.227585
227 2 9.33868 15.8484 1.37896 9.33868 15.8484 1.37896
228 2 9.33464 15.8418 -1.8401 9.33464 15.8418 -1.8401
229 1 10.451 14.1986 -0.22857 10.451 14.1986 -0.22857
230 2 12.6022 14.2044 1.38203 12.6022 14.2044 1.38203
231 2 12.6042 14.1925 -1.83702 12.6042 14.1925 -1.83702
232 1 13.7186 15.8445 -0.232837 13.7186 15.8445 -0.232837
233 2 15.8678 15.8489 1.3803 15.8678 15.8489 1.3803
234 2 15.8736 15.8399 -1.83877 15.8736 15.8399 -1.83877
235 1 16.985 14.1979 -0.222591 16.985 14.1979 -0.222591
236 2 19.1322 14.204 1.39302 19.1322 14.204 1.39302
237 2 19.1417 14.1915 -1.82604 19.1417 14.1915 -1.82604
238 1 20.2522 15.8439 -0.219635 20.2522 15.8439 -0.219635
239 2 22.3976 15.8475 1.39833 22.3976 15.8475 1.39833
240 2 22.4106 15.8402 -1.82071 22.4106 15.8402 -1.82071
241 1 23.5186 14.1975 -0.20297 23.5186 14.1975 -0.20297
242 2 25.6638 14.2013 1.41562 25.6638 14.2013 1.41562
243 2 25.6776 14.1936 -1.80342 25.6776 14.1936 -1.80342
244 1 26.7858 15.8437 -0.193047 26.7858 15.8437 -0.193047
245 2 28.929 15.8436 1.42826 28.929 15.8436 1.42826
246 2 28.9469 15.8439 -1.79078 28.9469 15.8439 -1.79078
247 1 30.0526 14.1975 -0.175249 30.0526 14.1975 -0.175249
248 2 32.197 14.1963 1.4443 32.197 14.1963 1.4443
249 2 32.2122 14.199 -1.77477 32.2122 14.199 -1.77477
250 1 33.3196 15.8439 -0.158741 33.3196 15.8439 -0.158741
251 2 35.4645 15.8395 1.46033 35.4645 15.8395 1.46033
252 2 35.4787 15.8488 -1.75872 35.4787 15.8488 -1.75872
253 1 36.5863 14.198 -0.149073 36.5863 14.198 -0.149073
254 2 38.7346 14.1923 1.46562 38.7346 14.1923 1.46562
255 2 38.7422 14.2041 -1.75343 38.7422 14.2041 -1.75343
256 1 39.8535 15.8445 -0.135398 39.8535 15.8445 -0.135398
257 2 42.0048 15.8389 1.47567 42.0048 15.8389 1.47567
258 2 42.0068 15.8509 -1.74337 42.0068 15.8509 -1.74337
259 1 43.1205 14.1986 -0.139429 43.1205 14.1986 -0.139429
260 2 45.2752 14.1933 1.46713 45.2752 14.1933 1.46713
261 2 45.2704 14.2046 -1.75192 45.2704 14.2046 -1.75192
262 1 46.3879 15.8453 -0.138373 46.3879 15.8453 -0.138373
263 2 48.5461 15.8416 1.46348 48.5461 15.8416 1.46348
264 2 48.5343 15.8495 -1.75557 48.5343 15.8495 -1.75557
265 1 49.6548 14.1993 -0.154234 49.6548 14.1993 -0.154234
266 2 51.8142 14.1969 1.44584 51.8142 14.1969 1.44584
267 2 51.7999 14.202 -1.77319 51.7999 14.202 -1.77319
268 1 52.9222 15.8457 -0.166033 52.9222 15.8457 -0.166033
269 2 55.0832 15.8446 1.43169 55.0832 15.8446 1.43169
270 2 55.0655 15.8472 -1.78732 55.0655 15.8472 -1.78732
271 1 -2.61618 17.4921 -0.182612 -2.61618 17.4921 -0.182612
272 2 -0.454918 17.4912 1.4148 -0.454918 17.4912 1.4148
273 2 -0.472955 17.4931 -1.80424 -0.472955 17.4931 -1.80424
274 1 0.651507 19.1383 -0.199927 0.651507 19.1383 -0.199927
275 2 2.81142 19.1367 1.39907 2.81142 19.1367 1.39907
276 2 2.79592 19.1398 -1.81998 2.79592 19.1398 -1.81998
277 1 3.91795 17.4918 -0.217372 3.91795 17.4918 -0.217372
278 2 6.07544 17.4924 1.38486 6.07544 17.4924 1.38486
279 2 6.06487 17.4911 -1.83419 6.06487 17.4911 -1.83419
280 1 7.1857 19.1378 -0.228921 7.1857 19.1378 -0.228921
281 2 9.34077 19.1374 1.37648 9.34077 19.1374 1.37648
282 2 9.33505 19.138 -1.84258 9.33505 19.138 -1.84258
283 1 10.4521 17.4912 -0.235264 10.4521 17.4912 -0.235264
284 2 12.6041 17.4933 1.37424 12.6041 17.4933 1.37424
285 2 12.6045 17.4888 -1.84483 12.6045 17.4888 -1.84483
286 1 13.7198 19.1371 -0.237361 13.7198 19.1371 -0.237361
287 2 15.8691 19.1374 1.37548 15.8691 19.1374 1.37548
288 2 15.8745 19.1366 -1.84361 15.8745 19.1366 -1.84361
289 1 16.986 17.4905 -0.231794 16.986 17.4905 -0.231794
290 2 19.1328 17.4926 1.38415 19.1328 17.4926 1.38415
291 2 19.1429 17.4882 -1.83493 19.1429 17.4882 -1.83493
292 1 20.2531 19.1365 -0.224151 20.2531 19.1365 -0.224151
293 2 22.3978 19.1359 1.39477 22.3978 19.1359 1.39477
294 2 22.4122 19.1371 -1.82427 22.4122 19.1371 -1.82427
295 1 23.5193 17.49 -0.210369 23.5193 17.49 -0.210369
296 2 25.6627 17.49 1.41046 25.6627 17.49 1.41046
297 2 25.68 17.4901 -1.80856 25.68 17.4901 -1.80856
298 1 26.7866 19.1363 -0.193036 26.7866 19.1363 -0.193036
299 2 28.9281 19.1335 1.43032 28.9281 19.1335 1.43032
300 2 28.9491 19.1393 -1.78869 28.9491 19.1393 -1.78869
301 1 30.053 17.49 -0.174924 30.053 17.49 -0.174924
302 2 32.1954 17.487 1.44745 32.1954 17.487 1.44745
303 2 32.2147 17.4934 -1.77159 32.2147 17.4934 -1.77159
304 1 33.3201 19.1364 -0.152153 33.3201 19.1364 -0.152153
305 2 35.4635 19.1319 1.46892 35.4635 19.1319 1.46892
306 2 35.4807 19.1415 -1.75011 35.4807 19.1415 -1.75011
307 1 36.5867 17.4904 -0.139689 36.5867 17.4904 -0.139689
308 2 38.7338 17.4852 1.47657 38.7338 17.4852 1.47657
309 2 38.7437 17.4964 -1.74247 38.7437 17.4964 -1.74247
310 1 39.854 19.137 -0.124004 39.854 19.137 -0.124004
311 2 42.0057 19.133 1.48663 42.0057 19.133 1.48663
312 2 42.0069 19.1419 -1.73242 42.0069 19.1419 -1.73242
313 1 43.121 17.4912 -0.127176 43.121 17.4912 -0.127176
314 2 45.2766 17.487 1.47823 45.2766 17.487 1.47823
315 2 45.27 17.4961 -1.74082 45.27 17.4961 -1.74082
316 1 46.3885 19.1378 -0.129007 46.3885 19.1378 -0.129007
317 2 48.548 19.1353 1.47125 48.548 19.1353 1.47125
318 2 48.5337 19.141 -1.74779 48.5337 19.141 -1.74779
319 1 49.6554 17.4918 -0.146165 49.6554 17.4918 -0.146165
320 2 51.8163 17.4897 1.452 51.8163 17.4897 1.452
321 2 51.7991 17.4946 -1.76703 51.7991 17.4946 -1.76703
322 1 52.923 19.1383 -0.160978 52.923 19.1383 -0.160978
323 2 55.085 19.1366 1.43554 55.085 19.1366 1.43554
324 2 55.0655 19.1403 -1.78347 55.0655 19.1403 -1.78347
325 1 -2.6151 20.7846 -0.178811 -2.6151 20.7846 -0.178811
326 2 -0.453689 20.7821 1.41848 -0.453689 20.7821 1.41848
327 2 -0.471863 20.7873 -1.80055 -0.471863 20.7873 -1.80055
328 1 0.652753 22.4307 -0.194681 0.652753 22.4307 -0.194681
329 2 2.81251 22.4268 1.40461 2.81251 22.4268 1.40461
330 2 2.79744 22.4348 -1.81443 2.79744 22.4348 -1.81443
331 1 3.91924 20.7843 -0.214178 3.91924 20.7843 -0.214178
332 2 6.07722 20.7814 1.38745 6.07722 20.7814 1.38745
333 2 6.06575 20.7872 -1.8316 6.06575 20.7872 -1.8316
334 1 7.18707 22.4303 -0.223063 7.18707 22.4303 -0.223063
335 2 9.34276 22.426 1.38158 9.34276 22.426 1.38158
336 2 9.33581 22.4346 -1.83748 9.33581 22.4346 -1.83748
337 1 10.4535 20.7837 -0.234672 10.4535 20.7837 -0.234672
338 2 12.6059 20.7819 1.37415 12.6059 20.7819 1.37415
339 2 12.6053 20.7854 -1.84493 12.6053 20.7854 -1.84493
340 1 13.7211 22.4297 -0.233677 13.7211 22.4297 -0.233677
341 2 15.8704 22.4258 1.37907 15.8704 22.4258 1.37907
342 2 15.8757 22.4335 -1.84001 15.8757 22.4335 -1.84001
343 1 16.9872 20.7831 -0.232502 16.9872 20.7831 -0.232502
344 2 19.1337 20.7811 1.38375 19.1337 20.7811 1.38375
345 2 19.1442 20.785 -1.83533 19.1442 20.785 -1.83533
346 1 20.2542 22.4292 -0.220063 20.2542 22.4292 -0.220063
347 2 22.3982 22.4248 1.39959 22.3982 22.4248 1.39959
348 2 22.4138 22.4336 -1.81943 22.4138 22.4336 -1.81943
349 1 23.5203 20.7827 -0.20902 23.5203 20.7827 -0.20902
350 2 25.6625 20.7793 1.41325 25.6625 20.7793 1.41325
351 2 25.6819 20.7862 -1.80576 25.6819 20.7862 -1.80576
352 1 26.7874 22.4289 -0.185958 26.7874 22.4289 -0.185958
353 2 28.9285 22.4241 1.43805 28.9285 22.4241 1.43805
354 2 28.9504 22.434 -1.78094 28.9504 22.434 -1.78094
355 1 30.0538 20.7826 -0.168957 30.0538 20.7826 -0.168957
356 2 32.195 20.7782 1.45473 32.195 20.7782 1.45473
357 2 32.2163 20.7873 -1.76429 32.2163 20.7873 -1.76429
358 1 33.3208 22.429 -0.142828 33.3208 22.429 -0.142828
359 2 35.4643 22.4251 1.47816 35.4643 22.4251 1.47816
360 2 35.4813 22.4334 -1.74087 35.4813 22.4334 -1.74087
361 1 36.5873 20.7829 -0.129862 36.5873 20.7829 -0.129862
362 2 38.7344 20.7791 1.48654 38.7344 20.7791 1.48654
363 2 38.7443 20.7875 -1.7325 38.7443 20.7875 -1.7325
364 1 39.8546 22.4295 -0.115413 39.8546 22.4295 -0.115413
365 2 42.0073 22.4277 1.49407 42.0073 22.4277 1.49407
366 2 42.0067 22.4321 -1.72499 42.0067 22.4321 -1.72499
367 1 43.1216 20.7837 -0.118085 43.1216 20.7837 -0.118085
368 2 45.2781 20.7815 1.48619 45.2781 20.7815 1.48619
369 2 45.2698 20.7867 -1.73287 45.2698 20.7867 -1.73287
370 1 46.3893 22.4303 -0.123668 46.3893 22.4303 -0.123668
371 2 48.5494 22.4294 1.47585 48.5494 22.4294 1.47585
372 2 48.534 22.4319 -1.7432 48.534 22.4319 -1.7432
373 1 49.6563 20.7843 -0.140371 49.6563 20.7843 -0.140371
374 2 51.8179 20.7829 1.45684 51.8179 20.7829 1.45684
375 2 51.7993 20.7864 -1.76218 51.7993 20.7864 -1.76218
376 1 52.924 22.4308 -0.157292 52.924 22.4308 -0.157292
377 2 55.0857 22.4285 1.43971 55.0857 22.4285 1.43971
378 2 55.067 22.4335 -1.7793 55.067 22.4335 -1.7793
379 1 -2.61398 24.077 -0.173712 -2.61398 24.077 -0.173712
380 2 -0.453269 24.0732 1.42463 -0.453269 24.0732 1.42463
381 2 -0.469886 24.0811 -1.79441 -0.469886 24.0811 -1.79441
382 1 0.653926 25.7232 -0.186556 0.653926 25.7232 -0.186556
383 2 2.81278 25.7173 1.41407 2.81278 25.7173 1.41407
384 2 2.79962 25.7291 -1.80497 2.79962 25.7291 -1.80497
385 1 3.92055 24.0768 -0.206004 3.92055 24.0768 -0.206004
386 2 6.07821 24.071 1.39611 6.07821 24.071 1.39611
387 2 6.06744 24.0826 -1.82293 6.06744 24.0826 -1.82293
388 1 7.18835 25.7228 -0.211145 7.18835 25.7228 -0.211145
389 2 9.34397 25.7153 1.39362 9.34397 25.7153 1.39362
390 2 9.33713 25.7303 -1.82541 9.33713 25.7303 -1.82541
391 1 10.4548 24.0763 -0.225897 10.4548 24.0763 -0.225897
392 2 12.6077 24.0705 1.38229 12.6077 24.0705 1.38229
393 2 12.6061 24.0821 -1.83677 12.6061 24.0821 -1.83677
394 1 13.7223 25.7224 -0.221717 13.7223 25.7224 -0.221717
395 2 15.8718 25.7149 1.39076 15.8718 25.7149 1.39076
396 2 15.8767 25.7298 -1.8283 15.8767 25.7298 -1.8283
397 1 16.9884 24.0758 -0.224626 16.9884 24.0758 -0.224626
398 2 19.1348 24.0698 1.39179 19.1348 24.0698 1.39179
399 2 19.1455 24.0817 -1.82728 19.1455 24.0817 -1.82728
400 1 20.2553 25.7219 -0.207865 20.2553 25.7219 -0.207865
401 2 22.3994 25.7147 1.41164 22.3994 25.7147 1.41164
402 2 22.4147 25.7291 -1.80737 22.4147 25.7291 -1.80737
403 1 23.5213 24.0754 -0.199912 23.5213 24.0754 -0.199912
404 2 25.6632 24.0695 1.42265 25.6632 24.0695 1.42265
405 2 25.6831 24.0813 -1.79634 25.6831 24.0813 -1.79634
406 1 26.7883 25.7216 -0.17395 26.7883 25.7216 -0.17395
407 2 28.9301 25.7163 1.44916 28.9301 25.7163 1.44916
408 2 28.9505 25.7271 -1.76984 28.9505 25.7271 -1.76984
409 1 30.0546 24.0752 -0.158819 30.0546 24.0752 -0.158819
410 2 32.1964 24.071 1.46427 32.1964 24.071 1.46427
411 2 32.2166 24.0798 -1.75475 32.2166 24.0798 -1.75475
412 1 33.3217 25.7216 -0.133788 33.3217 25.7216 -0.133788
413 2 35.4664 25.7197 1.48546 35.4664 25.7197 1.48546
414 2 35.4807 25.7239 -1.73359 35.4807 25.7239 -1.73359
415 1 36.588 24.0755 -0.12139 36.588 24.0755 -0.12139
416 2 38.7362 24.0739 1.49361 38.7362 24.0739 1.49361
417 2 38.7439 24.0777 -1.72545 38.7439 24.0777 -1.72545
418 1 39.8554 25.722 -0.111412 39.8554 25.722 -0.111412
419 2 42.009 25.7226 1.49681 42.009 25.7226 1.49681
420 2 42.0065 25.7222 -1.72226 42.0065 25.7222 -1.72226
421 1 43.1223 24.0761 -0.113543 43.1223 24.0761 -0.113543
422 2 45.2795 24.076 1.48987 45.2795 24.076 1.48987
423 2 45.2699 24.0771 -1.72918 45.2699 24.0771 -1.72918
424 1 46.3901 25.7227 -0.122487 46.3901 25.7227 -0.122487
425 2 48.5502 25.7231 1.47708 48.5502 25.7231 1.47708
426 2 48.5349 25.723 -1.74197 48.5349 25.723 -1.74197
427 1 49.6571 24.0768 -0.137698 49.6571 24.0768 -0.137698
428 2 51.8185 24.0756 1.45993 51.8185 24.0756 1.45993
429 2 51.8005 24.0785 -1.7591 51.8005 24.0785 -1.7591
430 1 52.925 25.7231 -0.154293 52.925 25.7231 -0.154293
431 2 55.0856 25.7207 1.44419 55.0856 25.7207 1.44419
432 2 55.0691 25.726 -1.77484 55.0691 25.726 -1.77484
433 1 -2.613 27.3694 -0.16833 -2.613 27.3694 -0.16833
434 2 -0.453774 27.3651 1.43211 -0.453774 27.3651 1.43211
435 2 -0.467315 27.3739 -1.78694 -0.467315 27.3739 -1.78694
436 1 0.654835 29.0156 -0.177595 0.654835 29.0156 -0.177595
437 2 2.81195 29.0092 1.42545 2.81195 29.0092 1.42545
438 2 2.80233 29.022 -1.79361 2.80233 29.022 -1.79361
439 1 3.92168 27.3692 -0.193945 3.92168 27.3692 -0.193945
440 2 6.07855 27.3616 1.40933 6.07855 27.3616 1.40933
441 2 6.06939 27.3769 -1.8097 6.06939 27.3769 -1.8097
442 1 7.18932 29.0153 -0.195502 7.18932 29.0153 -0.195502
443 2 9.3443 29.0062 1.41021 9.3443 29.0062 1.41021
444 2 9.33874 29.0244 -1.80882 9.33874 29.0244 -1.80882
445 1 10.4559 27.3689 -0.210492 10.4559 27.3689 -0.210492
446 2 12.609 27.3599 1.39754 12.609 27.3599 1.39754
447 2 12.607 27.3779 -1.82149 12.607 27.3779 -1.82149
448 1 13.7232 29.015 -0.203364 13.7232 29.015 -0.203364
449 2 15.8733 29.0055 1.40849 15.8733 29.0055 1.40849
450 2 15.877 29.0245 -1.81055 15.877 29.0245 -1.81055
451 1 16.9894 27.3685 -0.209378 16.9894 27.3685 -0.209378
452 2 19.1361 27.3601 1.40667 19.1361 27.3601 1.40667
453 2 19.1462 27.3769 -1.81238 19.1462 27.3769 -1.81238
454 1 20.2562 29.0147 -0.190698 20.2562 29.0147 -0.190698
455 2 22.4008 29.0061 1.42814 22.4008 29.0061 1.42814
456 2 22.415 29.0232 -1.79087 22.415 29.0232 -1.79087
457 1 23.5222 27.3681 -0.18513 23.5222 27.3681 -0.18513
458 2 25.665 27.3612 1.43631 25.665 27.3612 1.43631
459 2 25.683 27.375 -1.78269 25.683 27.375 -1.78269
460 1 26.7892 29.0143 -0.159907 26.7892 29.0143 -0.159907
461 2 28.9324 29.0091 1.46113 28.9324 29.0091 1.46113
462 2 28.9497 29.0195 -1.7579 28.9497 29.0195 -1.7579
463 1 30.0554 27.3679 -0.147755 30.0554 27.3679 -0.147755
464 2 32.1987 27.3646 1.47331 32.1987 27.3646 1.47331
465 2 32.2159 27.3713 -1.74574 32.2159 27.3713 -1.74574
466 1 33.3224 29.0142 -0.126944 33.3224 29.0142 -0.126944
467 2 35.4693 29.014 1.48949 35.4693 29.014 1.48949
468 2 35.4794 29.0148 -1.72959 35.4794 29.0148 -1.72959
469 1 36.5888 27.368 -0.11713 36.5888 27.368 -0.11713
470 2 38.7383 27.3689 1.496 38.7383 27.3689 1.496
471 2 38.7433 27.3677 -1.72307 38.7433 27.3677 -1.72307
472 1 39.8561 29.0145 -0.11251 39.8561 29.0145 -0.11251
473 2 42.0104 29.0173 1.49462 42.0104 29.0173 1.49462
474 2 42.0064 29.0124 -1.72444 42.0064 29.0124 -1.72444
475 1 43.1231 27.3686 -0.113886 43.1231 27.3686 -0.113886
476 2 45.2807 27.3706 1.489 45.2807 27.3706 1.489
477 2 45.2703 27.3673 -1.73006 45.2703 27.3673 -1.73006
478 1 46.3908 29.0151 -0.125871 46.3908 29.0151 -0.125871
479 2 48.5501 29.0172 1.47465 48.5501 29.0172 1.47465
480 2 48.5364 29.0136 -1.74441 48.5364 29.0136 -1.74441
481 1 49.658 27.3692 -0.137782 49.658 27.3692 -0.137782
482 2 51.8183 27.3689 1.46123 51.8183 27.3689 1.46123
483 2 51.8024 27.3699 -1.75781 51.8024 27.3699 -1.75781
484 1 52.9258 29.0155 -0.153221 52.9258 29.0155 -0.153221
485 2 55.0848 29.0139 1.44751 55.0848 29.0139 1.44751
486 2 55.0716 29.0174 -1.77153 55.0716 29.0174 -1.77153
487 1 -2.61232 30.6617 -0.164727 -2.61232 30.6617 -0.164727
488 2 -0.455286 30.6583 1.4387 -0.455286 30.6583 1.4387
489 2 -0.464391 30.6654 -1.78038 -0.464391 30.6654 -1.78038
490 1 0.655345 32.3079 -0.170318 0.655345 32.3079 -0.170318
491 2 2.81032 32.3029 1.43565 2.81032 32.3029 1.43565
492 2 2.80501 32.313 -1.78343 2.80501 32.313 -1.78343
493 1 3.92243 30.6617 -0.180837 3.92243 30.6617 -0.180837
494 2 6.07802 30.6538 1.42429 6.07802 30.6538 1.42429
495 2 6.07145 30.6695 -1.79474 6.07145 30.6695 -1.79474
496 1 7.18986 32.3078 -0.179421 7.18986 32.3078 -0.179421
497 2 9.3436 32.2986 1.42804 9.3436 32.2986 1.42804
498 2 9.34051 32.317 -1.791 9.34051 32.317 -1.791
499 1 10.4567 30.6615 -0.191832 10.4567 30.6615 -0.191832
500 2 12.6093 30.6512 1.41691 12.6093 30.6512 1.41691
501 2 12.6083 30.6717 -1.80211 12.6083 30.6717 -1.80211
502 1 13.7237 32.3077 -0.182353 13.7237 32.3077 -0.182353
503 2 15.874 32.297 1.42928 15.874 32.297 1.42928
504 2 15.8773 32.3182 -1.78976 15.8773 32.3182 -1.78976
505 1 16.9901 30.6612 -0.189859 16.9901 30.6612 -0.189859
506 2 19.1372 30.6514 1.42557 19.1372 30.6514 1.42557
507 2 19.1464 30.6709 -1.79347 19.1464 30.6709 -1.79347
508 1 20.2567 32.3074 -0.170719 20.2567 32.3074 -0.170719
509 2 22.4023 32.2982 1.44683 22.4023 32.2982 1.44683
510 2 22.4145 32.3163 -1.77218 22.4145 32.3163 -1.77218
511 1 23.5229 30.6608 -0.16768 23.5229 30.6608 -0.16768
512 2 25.6672 30.6535 1.45186 25.6672 30.6535 1.45186
513 2 25.6823 30.6681 -1.76716 25.6823 30.6681 -1.76716
514 1 26.7897 32.307 -0.144936 26.7897 32.307 -0.144936
515 2 28.9353 32.302 1.47311 28.9353 32.302 1.47311
516 2 28.9481 32.3119 -1.74595 28.9481 32.3119 -1.74595
517 1 30.0562 30.6605 -0.137146 30.0562 30.6605 -0.137146
518 2 32.2017 30.658 1.48095 32.2017 30.658 1.48095
519 2 32.2144 30.6632 -1.73813 32.2144 30.6632 -1.73813
520 1 33.323 32.3068 -0.121655 33.323 32.3068 -0.121655
521 2 35.4724 32.3071 1.49148 35.4724 32.3071 1.49148
522 2 35.4775 32.3068 -1.72761 35.4775 32.3068 -1.72761
523 1 36.5895 30.6606 -0.116249 36.5895 30.6606 -0.116249
524 2 38.7407 30.6629 1.49453 38.7407 30.6629 1.49453
525 2 38.7423 30.6588 -1.72454 38.7423 30.6588 -1.72454
526 1 39.8567 32.3071 -0.11665 39.8567 32.3071 -0.11665
527 2 42.0119 32.3108 1.48916 42.0119 32.3108 1.48916
528 2 42.0061 32.3038 -1.7299 42.0061 32.3038 -1.7299
529 1 43.1237 30.6611 -0.118915 43.1237 30.6611 -0.118915
530 2 45.2812 30.6645 1.48399 45.2812 30.6645 1.48399
531 2 45.271 30.6582 -1.73506 45.271 30.6582 -1.73506
532 1 46.3913 32.3075 -0.132313 46.3913 32.3075 -0.132313
533 2 48.5497 32.3104 1.46938 48.5497 32.3104 1.46938
534 2 48.5378 32.305 -1.74968 48.5378 32.305 -1.74968
535 1 49.6586 30.6615 -0.141452 49.6586 30.6615 -0.141452
536 2 51.8173 30.6625 1.45978 51.8173 30.6625 1.45978