ITEM: TIMESTEP
1729000
ITEM: NUMBER OF ATOMS
810
ITEM: BOX BOUNDS pp pp pp
-3.5711775627672635e+00 5.6588782562766326e+01
8.1394622342039402e-01 5.0202268776579182e+01
-1.0000000000000000e+01 1.0000000000000000e+01
ITEM: ATOMS id type x y z xu yu zu
1 1 -3.27937 1.02818 -0.161796 -3.27937 1.02818 -0.161796
2 2 -1.08269 1.02488 1.45875 -1.08269 1.02488 1.45875
3 2 -1.06348 1.03121 -1.75596 -1.06348 1.03121 -1.75596
4 1 0.0618307 2.67445 -0.138555 0.0618307 2.67445 -0.138555
5 2 2.25974 2.67416 1.48045 2.25974 2.67416 1.48045
6 2 2.27646 2.67439 -1.73428 2.27646 2.67439 -1.73428
7 1 3.40391 1.0281 -0.12116 3.40391 1.0281 -0.12116
8 2 5.60184 1.02858 1.49781 5.60184 1.02858 1.49781
9 2 5.6185 1.02733 -1.71691 5.6185 1.02733 -1.71691
10 1 6.74512 2.67437 -0.104361 6.74512 2.67437 -0.104361
11 2 8.94669 2.6777 1.5099 8.94669 2.6777 1.5099
12 2 8.95628 2.67079 -1.70485 8.95628 2.67079 -1.70485
13 1 10.0874 1.02812 -0.0906863 10.0874 1.02812 -0.0906863
14 2 12.2923 1.03015 1.51925 12.2923 1.03015 1.51925
15 2 12.2953 1.02597 -1.69552 12.2953 1.02597 -1.69552
16 1 13.4287 2.67452 -0.0893275 13.4287 2.67452 -0.0893275
17 2 15.6373 2.67883 1.51534 15.6373 2.67883 1.51534
18 2 15.6328 2.67003 -1.69941 15.6328 2.67003 -1.69941
19 1 16.7711 1.02837 -0.0892428 16.7711 1.02837 -0.0892428
20 2 18.9835 1.03125 1.51065 18.9835 1.03125 1.51065
21 2 18.9719 1.02532 -1.70408 18.9719 1.02532 -1.70408
22 1 20.1126 2.67471 -0.103865 20.1126 2.67471 -0.103865
23 2 22.3269 2.67818 1.49351 22.3269 2.67818 1.49351
24 2 22.312 2.67086 -1.72117 22.312 2.67086 -1.72117
25 1 23.4559 1.02848 -0.115303 23.4559 1.02848 -0.115303
26 2 25.6715 1.03075 1.48065 25.6715 1.03075 1.48065
27 2 25.6548 1.02575 -1.73402 25.6548 1.02575 -1.73402
28 1 26.7982 2.67462 -0.135162 26.7982 2.67462 -0.135162
29 2 29.0138 2.67654 1.46092 29.0138 2.67654 1.46092
30 2 28.9974 2.67203 -1.75376 28.9974 2.67203 -1.75376
31 1 30.1421 1.02823 -0.149894 30.1421 1.02823 -0.149894
32 2 32.3578 1.02865 1.44575 32.3578 1.02865 1.44575
33 2 32.3407 1.02715 -1.76895 32.3407 1.02715 -1.76895
34 1 33.4842 2.67429 -0.168366 33.4842 2.67429 -0.168366
35 2 35.6981 2.67381 1.42935 35.6981 2.67381 1.42935
36 2 35.6841 2.67412 -1.78537 35.6841 2.67412 -1.78537
37 1 36.8274 1.0279 -0.183034 36.8274 1.0279 -0.183034
38 2 39.0399 1.02596 1.41637 39.0399 1.02596 1.41637
39 2 39.0285 1.02942 -1.79835 39.0285 1.02942 -1.79835
40 1 40.1691 2.67414 -0.193128 40.1691 2.67414 -0.193128
41 2 42.3779 2.66978 1.41124 42.3779 2.66978 1.41124
42 2 42.3739 2.67818 -1.80349 42.3739 2.67818 -1.80349
43 1 43.5122 1.02792 -0.20168 43.5122 1.02792 -0.20168
44 2 45.7184 1.02309 1.40615 45.7184 1.02309 1.40615
45 2 45.7196 1.03258 -1.80858 45.7196 1.03258 -1.80858
46 1 46.8539 2.6743 -0.195858 46.8539 2.6743 -0.195858
47 2 49.057 2.66872 1.41634 49.057 2.66872 1.41634
48 2 49.0644 2.67969 -1.79839 49.0644 2.67969 -1.79839
49 1 50.1968 1.02811 -0.193913 50.1968 1.02811 -0.193913
50 2 52.3968 1.02283 1.4222 52.3968 1.02283 1.4222
51 2 52.4099 1.03323 -1.79252 52.4099 1.03323 -1.79252
52 1 53.5382 2.67446 -0.175101 53.5382 2.67446 -0.175101
53 2 55.7364 2.67058 1.44352 55.7364 2.67058 1.44352
54 2 55.753 2.67808 -1.77119 55.753 2.67808 -1.77119
55 1 -3.28042 4.32076 -0.154092 -3.28042 4.32076 -0.154092
56 2 -1.08182 4.31995 1.464 -1.08182 4.31995 1.464
57 2 -1.06635 4.32123 -1.75074 -1.06635 4.32123 -1.75074
58 1 0.0607151 5.96704 -0.13721 0.0607151 5.96704 -0.13721
59 2 2.26105 5.97049 1.47857 2.26105 5.97049 1.47857
60 2 2.27298 5.96321 -1.73617 2.27298 5.96321 -1.73617
61 1 3.40295 4.32071 -0.120884 3.40295 4.32071 -0.120884
62 2 5.60322 4.32437 1.49494 5.60322 4.32437 1.49494
63 2 5.61517 4.31666 -1.7198 5.61517 4.31666 -1.7198
64 1 6.744 5.967 -0.112142 6.744 5.967 -0.112142
65 2 8.94675 5.97353 1.50036 8.94675 5.97353 1.50036
66 2 8.95386 5.96013 -1.71436 8.95386 5.96013 -1.71436
67 1 10.0863 4.32072 -0.0977292 10.0863 4.32072 -0.0977292
68 2 12.2914 4.32599 1.51174 12.2914 4.32599 1.51174
69 2 12.294 4.31522 -1.703 12.294 4.31522 -1.703
70 1 13.4274 5.96712 -0.100383 13.4274 5.96712 -0.100383
71 2 15.636 5.97365 1.50407 15.636 5.97365 1.50407
72 2 15.6312 5.9603 -1.71066 15.6312 5.9603 -1.71066
73 1 16.7698 4.32091 -0.0982456 16.7698 4.32091 -0.0982456
74 2 18.9817 4.32586 1.50207 18.9817 4.32586 1.50207
75 2 18.9709 4.31563 -1.71264 18.9709 4.31563 -1.71264
76 1 20.1111 5.96723 -0.114371 20.1111 5.96723 -0.114371
77 2 22.3244 5.97184 1.48414 22.3244 5.97184 1.48414
78 2 22.3113 5.96213 -1.73053 22.3113 5.96213 -1.73053
79 1 23.4544 4.32095 -0.122851 23.4544 4.32095 -0.122851
80 2 25.6694 4.32433 1.47389 25.6694 4.32433 1.47389
81 2 25.6538 4.31697 -1.74077 25.6538 4.31697 -1.74077
82 1 26.7965 5.9671 -0.1427 26.7965 5.9671 -0.1427
83 2 29.0107 5.96896 1.45527 29.0107 5.96896 1.45527
84 2 28.9971 5.9645 -1.75941 28.9971 5.9645 -1.75941
85 1 30.1405 4.3207 -0.154553 30.1405 4.3207 -0.154553
86 2 32.3549 4.32136 1.44293 32.3549 4.32136 1.44293
87 2 32.3406 4.31931 -1.77177 32.3406 4.31931 -1.77177
88 1 33.4825 5.9668 -0.170505 33.4825 5.9668 -0.170505
89 2 35.6946 5.9652 1.42956 35.6946 5.9652 1.42956
90 2 35.6842 5.96774 -1.78516 35.6842 5.96774 -1.78516
91 1 36.8259 4.32044 -0.182675 36.8259 4.32044 -0.182675
92 2 39.0365 4.31778 1.41925 39.0365 4.31778 1.41925
93 2 39.0289 4.32258 -1.79548 39.0289 4.32258 -1.79548
94 1 40.1675 5.9667 -0.188244 40.1675 5.9667 -0.188244
95 2 42.3743 5.96185 1.41885 42.3743 5.96185 1.41885
96 2 42.3743 5.97116 -1.79588 42.3743 5.97116 -1.79588
97 1 43.5108 4.32049 -0.193168 43.5108 4.32049 -0.193168
98 2 45.7163 4.31503 1.41587 45.7163 4.31503 1.41587
99 2 45.719 4.32567 -1.79885 45.719 4.32567 -1.79885
100 1 46.8525 5.96685 -0.185006 46.8525 5.96685 -0.185006
101 2 49.0559 5.96195 1.427 49.0559 5.96195 1.427
102 2 49.0627 5.97147 -1.78773 49.0627 5.97147 -1.78773
103 1 50.1955 4.32067 -0.182688 50.1955 4.32067 -0.182688
104 2 52.3963 4.31598 1.43266 52.3963 4.31598 1.43266
105 2 52.408 4.3251 -1.78207 52.408 4.3251 -1.78207
106 1 53.537 5.967 -0.165785 53.537 5.967 -0.165785
107 2 55.7372 5.96546 1.45025 55.7372 5.96546 1.45025
108 2 55.7498 5.96825 -1.7645 55.7498 5.96825 -1.7645
109 1 -3.28169 7.61332 -0.151204 -3.28169 7.61332 -0.151204
110 2 -1.08041 7.61625 1.46338 -1.08041 7.61625 1.46338
111 2 -1.07019 7.61006 -1.75138 -1.07019 7.61006 -1.75138
112 1 0.0594573 9.25963 -0.143497 0.0594573 9.25963 -0.143497
113 2 2.26245 9.26729 1.46868 2.26245 9.26729 1.46868
114 2 2.26912 9.2516 -1.74605 2.26912 9.2516 -1.74605
115 1 3.40177 7.61332 -0.128274 3.40177 7.61332 -0.128274
116 2 5.60407 7.62066 1.48474 5.60407 7.62066 1.48474
117 2 5.61194 7.60558 -1.72997 5.61194 7.60558 -1.72997
118 1 6.74274 9.25964 -0.127516 6.74274 9.25964 -0.127516
119 2 8.94614 9.26931 1.48392 8.94614 9.26931 1.48392
120 2 8.95186 9.24965 -1.73077 8.95186 9.24965 -1.73077
121 1 10.085 7.61336 -0.111408 10.085 7.61336 -0.111408
122 2 12.2902 7.62163 1.49773 12.2902 7.62163 1.49773
123 2 12.2924 7.6048 -1.71698 12.2924 7.6048 -1.71698
124 1 13.4259 9.25975 -0.117563 13.4259 9.25975 -0.117563
125 2 15.6336 9.26787 1.48807 15.6336 9.26787 1.48807
126 2 15.6307 9.25131 -1.72663 15.6307 9.25131 -1.72663
127 1 16.7683 7.61349 -0.111909 16.7683 7.61349 -0.111909
128 2 18.9791 7.61962 1.48965 18.9791 7.61962 1.48965
129 2 18.9703 7.60695 -1.72505 18.9703 7.60695 -1.72505
130 1 20.1094 9.25978 -0.127346 20.1094 9.25978 -0.127346
131 2 22.3213 9.26448 1.47307 22.3213 9.26448 1.47307
132 2 22.311 9.25456 -1.7416 22.311 9.25456 -1.7416
133 1 23.4527 7.61345 -0.132822 23.4527 7.61345 -0.132822
134 2 25.6662 7.61635 1.46581 25.6662 7.61635 1.46581
135 2 25.6535 7.60992 -1.74886 25.6535 7.60992 -1.74886
136 1 26.7948 9.25959 -0.149308 26.7948 9.25959 -0.149308
137 2 29.0073 9.26008 1.45094 29.0073 9.26008 1.45094
138 2 28.997 9.25843 -1.76374 28.997 9.25843 -1.76374
139 1 30.1387 7.6132 -0.159144 30.1387 7.6132 -0.159144
140 2 32.3512 7.6125 1.44087 32.3512 7.6125 1.44087
141 2 32.3407 7.61318 -1.77384 32.3407 7.61318 -1.77384
142 1 33.4807 9.25933 -0.169828 33.4807 9.25933 -0.169828
143 2 35.691 9.25582 1.43279 35.691 9.25582 1.43279
144 2 35.6843 9.26224 -1.78192 35.6843 9.26224 -1.78192
145 1 36.8241 7.61298 -0.180099 36.8241 7.61298 -0.180099
146 2 39.0329 7.6087 1.42444 39.0329 7.6087 1.42444
147 2 39.0291 7.61676 -1.79029 39.0291 7.61676 -1.79029
148 1 40.1658 9.25925 -0.180052 40.1658 9.25925 -0.180052
149 2 42.372 9.25424 1.42805 42.372 9.25424 1.42805
150 2 42.3733 9.26388 -1.78667 42.3733 9.26388 -1.78667
151 1 43.5091 7.61303 -0.183709 43.5091 7.61303 -0.183709
152 2 45.7142 7.60784 1.42609 45.7142 7.60784 1.42609
153 2 45.7179 7.61791 -1.78863 45.7179 7.61791 -1.78863
154 1 46.8509 9.25937 -0.174765 46.8509 9.25937 -0.174765
155 2 49.0554 9.25604 1.4359 49.0554 9.25604 1.4359
156 2 49.0601 9.26242 -1.77885 49.0601 9.26242 -1.77885
157 1 50.1941 7.61319 -0.172952 50.1941 7.61319 -0.172952
158 2 52.3963 7.61094 1.44053 52.3963 7.61094 1.44053
159 2 52.4052 7.61516 -1.77422 52.4052 7.61516 -1.77422
160 1 53.5356 9.25953 -0.16147 53.5356 9.25953 -0.16147
161 2 55.7383 9.26153 1.45126 55.7383 9.26153 1.45126
162 2 55.746 9.25726 -1.7635 55.746 9.25726 -1.7635
163 1 -3.28302 10.9059 -0.155558 -3.28302 10.9059 -0.155558
164 2 -1.07889 10.9127 1.45513 -1.07889 10.9127 1.45513
165 2 -1.07428 10.8988 -1.75961 -1.07428 10.8988 -1.75961
166 1 0.0581983 12.5522 -0.157645 0.0581983 12.5522 -0.157645
167 2 2.26312 12.5621 1.45175 2.26312 12.5621 1.45175
168 2 2.26596 12.5421 -1.76294 2.26596 12.5421 -1.76294
169 1 3.40052 10.9059 -0.144278 3.40052 10.9059 -0.144278
170 2 5.60398 10.9164 1.46696 5.60398 10.9164 1.46696
171 2 5.60952 10.8951 -1.74772 5.60952 10.8951 -1.74772
172 1 6.74152 12.5523 -0.149271 6.74152 12.5523 -0.149271
173 2 8.94507 12.564 1.46178 8.94507 12.564 1.46178
174 2 8.95049 12.5403 -1.75287 8.95049 12.5403 -1.75287
175 1 10.0837 10.906 -0.131515 10.0837 10.906 -0.131515
176 2 12.2886 10.9166 1.4779 12.2886 10.9166 1.4779
177 2 12.2913 10.8951 -1.73678 12.2913 10.8951 -1.73678
178 1 13.4247 12.5524 -0.139546 13.4247 12.5524 -0.139546
179 2 15.6308 12.5624 1.46805 15.6308 12.5624 1.46805
180 2 15.6309 12.5421 -1.74662 15.6309 12.5421 -1.74662
181 1 16.7669 10.9061 -0.128889 16.7669 10.9061 -0.128889
182 2 18.9761 10.9131 1.47468 18.9761 10.9131 1.47468
183 2 18.9703 10.8987 -1.74001 18.9703 10.8987 -1.74001
184 1 20.1081 12.5524 -0.1422 20.1081 12.5524 -0.1422
185 2 22.3177 12.5571 1.46125 22.3177 12.5571 1.46125
186 2 22.3119 12.5471 -1.75343 22.3119 12.5471 -1.75343
187 1 23.4511 10.906 -0.143003 23.4511 10.906 -0.143003
188 2 25.6627 10.9085 1.45827 25.6627 10.9085 1.45827
189 2 25.6538 10.9029 -1.7564 25.6538 10.9029 -1.7564
190 1 26.7934 12.5521 -0.15506 26.7934 12.5521 -0.15506
191 2 29.0039 12.5526 1.44795 29.0039 12.5526 1.44795
192 2 28.9976 12.5511 -1.76674 28.9976 12.5511 -1.76674
193 1 30.1371 10.9057 -0.160852 30.1371 10.9057 -0.160852
194 2 32.348 10.9041 1.44143 32.348 10.9041 1.44143
195 2 32.3406 10.9067 -1.77328 32.3406 10.9067 -1.77328
196 1 33.4793 12.5519 -0.1671 33.4793 12.5519 -0.1671
197 2 35.6878 12.5486 1.43795 35.6878 12.5486 1.43795
198 2 35.6845 12.5547 -1.77677 35.6845 12.5547 -1.77677
199 1 36.8225 10.9055 -0.173601 36.8225 10.9055 -0.173601
200 2 39.0303 10.9009 1.43235 39.0303 10.9009 1.43235
201 2 39.0284 10.9097 -1.78238 39.0284 10.9097 -1.78238
202 1 40.1643 12.5518 -0.171165 40.1643 12.5518 -0.171165
203 2 42.3706 12.5479 1.43686 42.3706 12.5479 1.43686
204 2 42.3717 12.5553 -1.77787 42.3717 12.5553 -1.77787
205 1 43.5075 10.9056 -0.173877 43.5075 10.9056 -0.173877
206 2 45.7132 10.9018 1.43533 45.7132 10.9018 1.43533
207 2 45.7159 10.9091 -1.7794 45.7159 10.9091 -1.7794
208 1 46.8494 12.5519 -0.167332 46.8494 12.5519 -0.167332
209 2 49.0557 12.551 1.44112 49.0557 12.551 1.44112
210 2 49.0571 12.5525 -1.77363 49.0571 12.5525 -1.77363
211 1 50.1926 10.9057 -0.166472 50.1926 10.9057 -0.166472
212 2 52.3974 10.9063 1.44373 52.3974 10.9063 1.44373
213 2 52.4013 10.9049 -1.77103 52.4013 10.9049 -1.77103
214 1 53.5342 12.552 -0.162924 53.5342 12.552 -0.162924
215 2 55.7401 12.5574 1.44563 55.7401 12.5574 1.44563
216 2 55.7416 12.5465 -1.76911 55.7416 12.5465 -1.76911
217 1 -3.28426 14.1984 -0.166734 -3.28426 14.1984 -0.166734
218 2 -1.07776 14.2072 1.4406 -1.07776 14.2072 1.4406
219 2 -1.07785 14.1894 -1.77412 -1.07785 14.1894 -1.77412
220 1 0.0570894 15.8448 -0.175826 0.0570894 15.8448 -0.175826
221 2 2.26307 15.8547 1.43194 2.26307 15.8547 1.43194
222 2 2.26388 15.8346 -1.78275 2.26388 15.8346 -1.78275
223 1 3.39935 14.1985 -0.164776 3.39935 14.1985 -0.164776
224 2 5.60379 14.2099 1.44503 5.60379 14.2099 1.44503
225 2 5.60744 14.187 -1.76963 5.60744 14.187 -1.76963
226 1 6.74055 15.8449 -0.172673 6.74055 15.8449 -0.172673
227 2 8.94456 15.8568 1.43772 8.94456 15.8568 1.43772
228 2 8.94916 15.833 -1.77693 8.94916 15.833 -1.77693
229 1 10.0826 14.1987 -0.155832 10.0826 14.1987 -0.155832
230 2 12.2869 14.2106 1.45419 12.2869 14.2106 1.45419
231 2 12.2908 14.1866 -1.76045 12.2908 14.1866 -1.76045
232 1 13.4239 15.845 -0.164085 13.4239 15.845 -0.164085
233 2 15.6284 15.8556 1.44554 15.6284 15.8556 1.44554
234 2 15.6317 15.8343 -1.76912 15.6317 15.8343 -1.76912
235 1 16.7658 14.1987 -0.149734 16.7658 14.1987 -0.149734
236 2 18.9725 14.2066 1.45722 18.9725 14.2066 1.45722
237 2 18.9718 14.1905 -1.75746 18.9718 14.1905 -1.75746
238 1 20.1074 15.8449 -0.158676 20.1074 15.8449 -0.158676
239 2 22.3144 15.8505 1.44837 22.3144 15.8505 1.44837
240 2 22.3138 15.8391 -1.7663 22.3138 15.8391 -1.7663
241 1 23.45 14.1985 -0.153343 23.45 14.1985 -0.153343
242 2 25.6595 14.2012 1.45091 25.6595 14.2012 1.45091
243 2 25.6549 14.1954 -1.76376 25.6549 14.1954 -1.76376
244 1 26.7926 15.8446 -0.161015 26.7926 15.8446 -0.161015
245 2 29.0011 15.8456 1.4447 29.0011 15.8456 1.4447
246 2 28.9986 15.8433 -1.77 28.9986 15.8433 -1.77
247 1 30.1359 14.1982 -0.162333 30.1359 14.1982 -0.162333
248 2 32.3447 14.1966 1.44281 32.3447 14.1966 1.44281
249 2 32.3415 14.1995 -1.77191 32.3415 14.1995 -1.77191
250 1 33.4783 15.8444 -0.164173 33.4783 15.8444 -0.164173
251 2 35.6857 15.842 1.44254 35.6857 15.842 1.44254
252 2 35.6847 15.8465 -1.77218 35.6847 15.8465 -1.77218
253 1 36.8212 14.1981 -0.167387 36.8212 14.1981 -0.167387
254 2 39.0283 14.1946 1.43965 39.0283 14.1946 1.43965
255 2 39.0278 14.2012 -1.77508 39.0278 14.2012 -1.77508
256 1 40.1632 15.8443 -0.164491 40.1632 15.8443 -0.164491
257 2 42.3704 15.843 1.44253 42.3704 15.843 1.44253
258 2 42.3698 15.8455 -1.7722 42.3698 15.8455 -1.7722
259 1 43.5062 14.1981 -0.166344 43.5062 14.1981 -0.166344
260 2 45.7131 14.1967 1.44125 45.7131 14.1967 1.44125
261 2 45.7133 14.1993 -1.77348 45.7133 14.1993 -1.77348
262 1 46.8483 15.8444 -0.164735 46.8483 15.8444 -0.164735
263 2 49.0562 15.846 1.44138 49.0562 15.846 1.44138
264 2 49.0542 15.8426 -1.77337 49.0542 15.8426 -1.77337
265 1 50.1913 14.1982 -0.164981 50.1913 14.1982 -0.164981
266 2 52.3988 14.2013 1.4416 52.3988 14.2013 1.4416
267 2 52.3974 14.1949 -1.77315 52.3974 14.1949 -1.77315
268 1 53.5331 15.8446 -0.169543 53.5331 15.8446 -0.169543
269 2 55.7415 15.8508 1.4354 55.7415 15.8508 1.4354
270 2 55.7379 15.8382 -1.77933 55.7379 15.8382 -1.77933
271 1 -3.28526 17.4909 -0.179649 -3.28526 17.4909 -0.179649
272 2 -1.07708 17.4982 1.42524 -1.07708 17.4982 1.42524
273 2 -1.0805 17.4836 -1.78949 -1.0805 17.4836 -1.78949
274 1 0.0563288 19.1373 -0.190738 0.0563288 19.1373 -0.190738
275 2 2.26344 19.1441 1.41546 2.26344 19.1441 1.41546
276 2 2.2621 19.1305 -1.79926 2.2621 19.1305 -1.79926
277 1 3.39847 17.4911 -0.18536 3.39847 17.4911 -0.18536
278 2 5.60336 17.5008 1.42371 5.60336 17.5008 1.42371
279 2 5.60625 17.4814 -1.79097 5.60625 17.4814 -1.79097
280 1 6.74001 19.1375 -0.192583 6.74001 19.1375 -0.192583
281 2 8.94465 19.1463 1.41698 8.94465 19.1463 1.41698
282 2 8.94821 19.1288 -1.79771 8.94821 19.1288 -1.79771
283 1 10.082 17.4913 -0.180168 10.082 17.4913 -0.180168
284 2 12.2859 17.5023 1.4303 12.2859 17.5023 1.4303
285 2 12.2907 17.4803 -1.78435 12.2907 17.4803 -1.78435
286 1 13.4236 19.1376 -0.186639 13.4236 19.1376 -0.186639
287 2 15.6268 19.1463 1.42472 15.6268 19.1463 1.42472
288 2 15.633 19.1289 -1.78996 15.633 19.1289 -1.78996
289 1 16.7653 17.4913 -0.171569 16.7653 17.4913 -0.171569
290 2 18.9696 17.4995 1.43869 18.9696 17.4995 1.43869
291 2 18.9739 17.4829 -1.77599 18.9739 17.4829 -1.77599
292 1 20.1073 19.1375 -0.175698 20.1073 19.1375 -0.175698
293 2 22.3119 19.1436 1.43451 22.3119 19.1436 1.43451
294 2 22.3161 19.1313 -1.78016 22.3161 19.1313 -1.78016
295 1 23.4496 17.4911 -0.165058 23.4496 17.4911 -0.165058
296 2 25.6568 17.4949 1.4423 25.6568 17.4949 1.4423
297 2 25.6566 17.487 -1.77238 25.6566 17.487 -1.77238
298 1 26.7925 19.1372 -0.16915 26.7925 19.1372 -0.16915
299 2 28.9988 19.1396 1.43946 28.9988 19.1396 1.43946
300 2 29.0006 19.1346 -1.77523 29.0006 19.1346 -1.77523
301 1 30.1354 17.4908 -0.16465 30.1354 17.4908 -0.16465
302 2 32.3425 17.4909 1.44282 32.3425 17.4909 1.44282
303 2 32.3425 17.4904 -1.7719 32.3425 17.4904 -1.7719
304 1 33.478 19.137 -0.164817 33.478 19.137 -0.164817
305 2 35.6843 19.1377 1.44333 35.6843 19.1377 1.44333
306 2 35.6853 19.1362 -1.7714 35.6853 19.1362 -1.7714
307 1 36.8205 17.4906 -0.162914 36.8205 17.4906 -0.162914
308 2 39.0278 17.4898 1.44394 39.0278 17.4898 1.44394
309 2 39.0268 17.4913 -1.7708 39.0268 17.4913 -1.7708
310 1 40.1627 19.1369 -0.163028 40.1627 19.1369 -0.163028
311 2 42.3707 19.1386 1.44276 42.3707 19.1386 1.44276
312 2 42.3682 19.1352 -1.77197 42.3682 19.1352 -1.77197
313 1 43.5053 17.4906 -0.163737 43.5053 17.4906 -0.163737
314 2 45.7134 17.4917 1.44227 45.7134 17.4917 1.44227
315 2 45.7112 17.4895 -1.77246 45.7112 17.4895 -1.77246
316 1 46.8476 19.137 -0.167004 46.8476 19.137 -0.167004
317 2 49.0568 19.1401 1.43734 49.0568 19.1401 1.43734
318 2 49.0522 19.1338 -1.77739 49.0522 19.1338 -1.77739
319 1 50.1904 17.4907 -0.168456 50.1904 17.4907 -0.168456
320 2 52.3996 17.4946 1.43558 52.3996 17.4946 1.43558
321 2 52.3946 17.4868 -1.77916 52.3946 17.4868 -1.77916
322 1 53.5323 19.1371 -0.177592 53.5323 19.1371 -0.177592
323 2 55.7421 19.1416 1.42535 55.7421 19.1416 1.42535
324 2 55.7357 19.1326 -1.78938 55.7357 19.1326 -1.78938
325 1 -3.28581 20.7835 -0.188904 -3.28581 20.7835 -0.188904
326 2 -1.07654 20.7874 1.41455 -1.07654 20.7874 1.41455
327 2 -1.0821 20.7797 -1.80019 -1.0821 20.7797 -1.80019
328 1 0.0561194 22.4299 -0.198749 0.0561194 22.4299 -0.198749
329 2 2.26382 22.4321 1.40672 2.26382 22.4321 1.40672
330 2 2.26143 22.4279 -1.80802 2.26143 22.4279 -1.80802
331 1 3.39807 20.7837 -0.199316 3.39807 20.7837 -0.199316
332 2 5.60388 20.7895 1.40857 5.60388 20.7895 1.40857
333 2 5.60512 20.7782 -1.80614 5.60512 20.7782 -1.80614
334 1 6.74007 22.4301 -0.204164 6.74007 22.4301 -0.204164
335 2 8.94541 22.4341 1.40455 8.94541 22.4341 1.40455
336 2 8.9478 22.4265 -1.81018 8.9478 22.4265 -1.81018
337 1 10.0819 20.7839 -0.198096 10.0819 20.7839 -0.198096
338 2 12.2861 20.7909 1.4121 12.2861 20.7909 1.4121
339 2 12.2905 20.7771 -1.80261 12.2905 20.7771 -1.80261
340 1 13.424 22.4302 -0.200718 13.424 22.4302 -0.200718
341 2 15.6271 22.435 1.41085 15.6271 22.435 1.41085
342 2 15.6337 22.4256 -1.80387 15.6337 22.4256 -1.80387
343 1 16.7655 20.7839 -0.189402 16.7655 20.7839 -0.189402
344 2 18.9684 20.7903 1.42261 18.9684 20.7903 1.42261
345 2 18.9755 20.7774 -1.79208 18.9755 20.7774 -1.79208
346 1 20.1079 22.4301 -0.188901 20.1079 22.4301 -0.188901
347 2 22.3109 22.4338 1.42328 22.3109 22.4338 1.42328
348 2 22.3182 22.4264 -1.7914 22.3182 22.4264 -1.7914
349 1 23.4499 20.7836 -0.177725 23.4499 20.7836 -0.177725
350 2 25.6546 20.7873 1.43277 25.6546 20.7873 1.43277
351 2 25.6593 20.7799 -1.78191 25.6593 20.7799 -1.78191
352 1 26.793 22.4298 -0.176755 26.793 22.4298 -0.176755
353 2 28.9978 22.4318 1.4338 28.9978 22.4318 1.4338
354 2 29.0025 22.4278 -1.7809 29.0025 22.4278 -1.7809
355 1 30.1355 20.7834 -0.169822 30.1355 20.7834 -0.169822
356 2 32.341 20.7852 1.43958 32.341 20.7852 1.43958
357 2 32.344 20.7815 -1.77514 32.344 20.7815 -1.77514
358 1 33.4783 22.4296 -0.168693 33.4783 22.4296 -0.168693
359 2 35.6841 22.4321 1.43982 35.6841 22.4321 1.43982
360 2 35.6858 22.4271 -1.77491 35.6858 22.4271 -1.77491
361 1 36.8203 20.7832 -0.164491 36.8203 20.7832 -0.164491
362 2 39.0275 20.7855 1.44235 39.0275 20.7855 1.44235
363 2 39.0266 20.781 -1.77238 39.0266 20.781 -1.77238
364 1 40.1627 22.4295 -0.167707 40.1627 22.4295 -0.167707
365 2 42.3707 22.4326 1.4379 42.3707 22.4326 1.4379
366 2 42.3681 22.4265 -1.77683 42.3681 22.4265 -1.77683
367 1 43.505 20.7832 -0.167246 43.505 20.7832 -0.167246
368 2 45.7135 20.7867 1.43796 45.7135 20.7867 1.43796
369 2 45.7103 20.7797 -1.77676 45.7103 20.7797 -1.77676
370 1 46.8475 22.4295 -0.174133 46.8475 22.4295 -0.174133
371 2 49.0565 22.4334 1.43019 49.0565 22.4334 1.43019
372 2 49.0521 22.4258 -1.78454 49.0521 22.4258 -1.78454
373 1 50.1899 20.7833 -0.174903 50.1899 20.7833 -0.174903
374 2 52.3998 20.7872 1.4281 52.3998 20.7872 1.4281
375 2 52.3933 20.7794 -1.78663 52.3933 20.7794 -1.78663
376 1 53.532 22.4297 -0.185539 53.532 22.4297 -0.185539
377 2 55.7415 22.4325 1.41774 55.7415 22.4325 1.41774
378 2 55.7357 22.427 -1.797 55.7357 22.427 -1.797
379 1 -3.28575 24.076 -0.194495 -3.28575 24.076 -0.194495
380 2 -1.07729 24.0762 1.41002 -1.07729 24.0762 1.41002
381 2 -1.08118 24.0762 -1.80473 -1.08118 24.0762 -1.80473
382 1 0.0565732 25.7224 -0.198744 0.0565732 25.7224 -0.198744
383 2 2.26416 25.7201 1.40704 2.26416 25.7201 1.40704
384 2 2.2621 25.7252 -1.8077 2.2621 25.7252 -1.8077
385 1 3.39829 24.0763 -0.203669 3.39829 24.0763 -0.203669
386 2 5.605 24.0767 1.40316 5.605 24.0767 1.40316
387 2 5.60463 24.0763 -1.81157 5.60463 24.0763 -1.81157
388 1 6.74074 25.7227 -0.204555 6.74074 25.7227 -0.204555
389 2 8.94662 25.7204 1.40355 8.94662 25.7204 1.40355
390 2 8.94815 25.7254 -1.81119 8.94815 25.7254 -1.81119
391 1 10.0824 24.0765 -0.205887 10.0824 24.0765 -0.205887
392 2 12.2869 24.0778 1.40403 12.2869 24.0778 1.40403
393 2 12.2911 24.0755 -1.81071 12.2911 24.0755 -1.81071
394 1 13.425 25.7228 -0.203041 13.425 25.7228 -0.203041
395 2 15.6285 25.7213 1.40797 15.6285 25.7213 1.40797
396 2 15.6344 25.7246 -1.80677 15.6344 25.7246 -1.80677
397 1 16.7663 24.0765 -0.199051 16.7663 24.0765 -0.199051
398 2 18.9689 24.0788 1.41342 18.9689 24.0788 1.41342
399 2 18.9768 24.0743 -1.80129 18.9768 24.0743 -1.80129
400 1 20.109 25.7227 -0.193485 20.109 25.7227 -0.193485
401 2 22.3115 25.7227 1.41923 22.3115 25.7227 1.41923
402 2 22.3198 25.7228 -1.79546 22.3198 25.7228 -1.79546
403 1 23.4507 24.0762 -0.185369 23.4507 24.0762 -0.185369
404 2 25.6544 24.0779 1.42651 25.6544 24.0779 1.42651
405 2 25.6611 24.0746 -1.78818 25.6611 24.0746 -1.78818
406 1 26.794 25.7224 -0.180247 26.794 25.7224 -0.180247
407 2 28.9984 25.7234 1.43062 28.9984 25.7234 1.43062
408 2 29.0037 25.7216 -1.78408 29.0037 25.7216 -1.78408
409 1 30.1362 24.076 -0.174016 30.1362 24.076 -0.174016
410 2 32.3415 24.078 1.43557 32.3415 24.078 1.43557
411 2 32.3447 24.0741 -1.77915 32.3447 24.0741 -1.77915
412 1 33.479 25.7222 -0.172731 33.479 25.7222 -0.172731
413 2 35.6855 25.7252 1.43485 35.6855 25.7252 1.43485
414 2 35.6858 25.7195 -1.77988 35.6858 25.7195 -1.77988
415 1 36.8208 24.0759 -0.169577 36.8208 24.0759 -0.169577
416 2 39.0281 24.0791 1.4369 39.0281 24.0791 1.4369
417 2 39.0267 24.0727 -1.77783 39.0267 24.0727 -1.77783
418 1 40.1633 25.7221 -0.174276 40.1633 25.7221 -0.174276
419 2 42.3716 25.7261 1.43092 42.3716 25.7261 1.43092
420 2 42.3683 25.7183 -1.7838 42.3683 25.7183 -1.7838
421 1 43.5052 24.0758 -0.173588 43.5052 24.0758 -0.173588
422 2 45.714 24.0793 1.4311 45.714 24.0793 1.4311
423 2 45.7101 24.0724 -1.78362 45.7101 24.0724 -1.78362
424 1 46.8479 25.7221 -0.181214 46.8479 25.7221 -0.181214
425 2 49.0569 25.7253 1.42317 49.0569 25.7253 1.42317
426 2 49.0525 25.7192 -1.79155 49.0525 25.7192 -1.79155
427 1 50.19 24.0759 -0.182652 50.19 24.0759 -0.182652
428 2 52.399 24.0782 1.42132 52.399 24.0782 1.42132
429 2 52.3942 24.0738 -1.79341 52.3942 24.0738 -1.79341
430 1 53.5324 25.7222 -0.190051 53.5324 25.7222 -0.190051
431 2 55.741 25.7222 1.41449 55.741 25.7222 1.41449
432 2 55.737 25.7226 -1.80025 55.737 25.7226 -1.80025
433 1 -3.285 27.3686 -0.194158 -3.285 27.3686 -0.194158
434 2 -1.07763 27.3661 1.41201 -1.07763 27.3661 1.41201
435 2 -1.07932 27.3715 -1.80273 -1.07932 27.3715 -1.80273
436 1 0.0576418 29.0149 -0.193209 0.0576418 29.0149 -0.193209
437 2 2.2641 29.0099 1.41427 2.2641 29.0099 1.41427
438 2 2.26434 29.0205 -1.80046 2.26434 29.0205 -1.80046
439 1 3.39914 27.3688 -0.198497 3.39914 27.3688 -0.198497
440 2 5.60603 27.3639 1.40832 5.60603 27.3639 1.40832
441 2 5.60543 27.3742 -1.8064 5.60543 27.3742 -1.8064
442 1 6.74191 29.0152 -0.193975 6.74191 29.0152 -0.193975
443 2 8.94786 29.0075 1.41427 8.94786 29.0075 1.41427
444 2 8.94937 29.0234 -1.80044 8.94937 29.0234 -1.80044
445 1 10.0835 27.3691 -0.200726 10.0835 27.3691 -0.200726
446 2 12.2883 27.3638 1.40875 12.2883 27.3638 1.40875
447 2 12.2919 27.3748 -1.80598 12.2919 27.3748 -1.80598
448 1 13.4263 29.0154 -0.191783 13.4263 29.0154 -0.191783
449 2 15.6308 29.008 1.41807 15.6308 29.008 1.41807
450 2 15.6348 29.0231 -1.79665 15.6348 29.0231 -1.79665
451 1 16.7676 27.3691 -0.195706 16.7676 27.3691 -0.195706
452 2 18.971 27.3654 1.41566 18.971 27.3654 1.41566
453 2 18.9773 27.3731 -1.79906 18.9773 27.3731 -1.79906
454 1 20.1103 29.0153 -0.185568 20.1103 29.0153 -0.185568
455 2 22.3144 29.0108 1.42518 22.3144 29.0108 1.42518
456 2 22.3197 29.0201 -1.78951 22.3197 29.0201 -1.78951
457 1 23.452 27.3689 -0.185177 23.452 27.3689 -0.185177
458 2 25.6556 27.3673 1.42651 25.6556 27.3673 1.42651
459 2 25.6623 27.3706 -1.78818 25.6623 27.3706 -1.78818
460 1 26.7953 29.0151 -0.176925 26.7953 29.0151 -0.176925
461 2 29.0007 29.0132 1.4325 29.0007 29.0132 1.4325
462 2 29.0039 29.0172 -1.7822 29.0039 29.0172 -1.7822
463 1 30.1372 27.3687 -0.175877 30.1372 27.3687 -0.175877
464 2 32.3429 27.3696 1.433 32.3429 27.3696 1.433
465 2 32.3453 27.3679 -1.78173 32.3453 27.3679 -1.78173
466 1 33.4802 29.0149 -0.174526 33.4802 29.0149 -0.174526
467 2 35.6877 29.0163 1.43148 35.6877 29.0163 1.43148
468 2 35.6858 29.0138 -1.78326 35.6858 29.0138 -1.78326
469 1 36.8217 27.3685 -0.175356 36.8217 27.3685 -0.175356
470 2 39.0294 27.3721 1.43041 39.0294 27.3721 1.43041
471 2 39.0271 27.3652 -1.78432 39.0271 27.3652 -1.78432
472 1 40.1644 29.0147 -0.181308 40.1644 29.0147 -0.181308
473 2 42.373 29.0187 1.42326 42.373 29.0187 1.42326
474 2 42.3691 29.011 -1.79145 42.3691 29.011 -1.79145
475 1 43.506 27.3684 -0.181577 43.506 27.3684 -0.181577
476 2 45.7147 27.3727 1.42325 45.7147 27.3727 1.42325
477 2 45.711 27.3644 -1.79145 45.711 27.3644 -1.79145
478 1 46.849 29.0147 -0.18956 46.849 29.0147 -0.18956
479 2 49.057 29.0181 1.41611 49.057 29.0181 1.41611
480 2 49.0546 29.0117 -1.79861 49.0546 29.0117 -1.79861
481 1 50.1907 27.3684 -0.188821 50.1907 27.3684 -0.188821
482 2 52.3988 27.3703 1.4166 52.3988 27.3703 1.4166
483 2 52.3959 27.3669 -1.79813 52.3959 27.3669 -1.79813
484 1 53.5335 29.0148 -0.193454 53.5335 29.0148 -0.193454
485 2 55.7398 29.0138 1.4142 55.7398 29.0138 1.4142
486 2 55.7403 29.0161 -1.80054 55.7403 29.0161 -1.80054
487 1 -3.28369 30.6611 -0.19183 -3.28369 30.6611 -0.19183
488 2 -1.07866 30.6571 1.41751 -1.07866 30.6571 1.41751
489 2 -1.07569 30.6656 -1.79723 -1.07569 30.6656 -1.79723
490 1 0.0591152 32.3074 -0.184514 0.0591152 32.3074 -0.184514
491 2 2.26331 32.2999 1.42609 2.26331 32.2999 1.42609
492 2 2.26803 32.3154 -1.78863 2.26803 32.3154 -1.78863
493 1 3.40045 30.6613 -0.187571 3.40045 30.6613 -0.187571
494 2 5.60585 30.653 1.42132 5.60585 30.653 1.42132
495 2 5.60826 30.6701 -1.79338 5.60826 30.6701 -1.79338
496 1 6.74333 32.3076 -0.176447 6.74333 32.3076 -0.176447
497 2 8.94805 32.2962 1.43351 8.94805 32.2962 1.43351
498 2 8.95201 32.3196 -1.78116 8.95201 32.3196 -1.78116
499 1 10.0849 30.6615 -0.1844 10.0849 30.6615 -0.1844
500 2 12.2899 30.6516 1.42494 12.2899 30.6516 1.42494
501 2 12.2931 30.672 -1.78975 12.2931 30.672 -1.78975
502 1 13.4277 32.3078 -0.170889 13.4277 32.3078 -0.170889
503 2 15.6331 32.2969 1.43794 15.6331 32.2969 1.43794
504 2 15.6354 32.3193 -1.77674 15.6354 32.3193 -1.77674
505 1 16.769 30.6616 -0.18016 16.769 30.6616 -0.18016
506 2 18.974 30.6536 1.42915 18.974 30.6536 1.42915
507 2 18.9771 30.67 -1.78555 18.9771 30.67 -1.78555
508 1 20.1118 32.3079 -0.16872 20.1118 32.3079 -0.16872
509 2 22.3177 32.3 1.43954 22.3177 32.3 1.43954
510 2 22.3192 32.3161 -1.77513 22.3192 32.3161 -1.77513
511 1 23.4534 30.6616 -0.175556 23.4534 30.6616 -0.175556
512 2 25.6586 30.6571 1.43398 25.6586 30.6571 1.43398
513 2 25.662 30.6662 -1.78071 25.662 30.6662 -1.78071
514 1 26.7967 32.3078 -0.16756 26.7967 32.3078 -0.16756
515 2 29.004 32.3045 1.43937 29.004 32.3045 1.43937
516 2 29.0035 32.3113 -1.77534 29.0035 32.3113 -1.77534
517 1 30.1386 30.6613 -0.171781 30.1386 30.6613 -0.171781
518 2 32.3462 30.6605 1.43449 32.3462 30.6605 1.43449
519 2 32.3446 30.6624 -1.78024 32.3446 30.6624 -1.78024
520 1 33.4817 32.3075 -0.172522 33.4817 32.3075 -0.172522
521 2 35.6913 32.3086 1.43073 35.6913 32.3086 1.43073
522 2 35.6852 32.3068 -1.784 35.6852 32.3068 -1.784
523 1 36.823 30.6611 -0.177916 36.823 30.6611 -0.177916
524 2 39.0323 30.6635 1.42569 39.0323 30.6635 1.42569
525 2 39.0268 30.659 -1.78903 39.0268 30.659 -1.78903
526 1 40.1659 32.3073 -0.185912 40.1659 32.3073 -0.185912
527 2 42.3757 32.3104 1.41714 42.3757 32.3104 1.41714
528 2 42.3695 32.3046 -1.79758 42.3695 32.3046 -1.79758
529 1 43.5074 30.661 -0.1894 43.5074 30.661 -0.1894
530 2 45.7159 30.6647 1.41545 45.7159 30.6647 1.41545
531 2 45.7124 30.6577 -1.79926 45.7124 30.6577 -1.79926
532 1 46.8506 32.3072 -0.19664 46.8506 32.3072 -0.19664
533 2 49.0579 32.31 1.40985 49.0579 32.31 1.40985
534 2 49.0568 32.305 -1.80487 49.0568 32.305 -1.80487
535 1 50.1921 30.661 -0.195281 50.1921 30.661 -0.195281
536 2 52.3981 30.6621 1.41269 52.3981 30.6621 1.41269
537 2 52.3992 30.6604 -1.80205 52.3992 30.6604 -1.80205
538 1 53.535 32.3073 -0.195087 53.535 32.3073 -0.195087