ITEM: TIMESTEP
4348000
ITEM: NUMBER OF ATOMS
810
ITEM: BOX BOUNDS pp pp pp
-1.0287817326121875e+01 6.3305422326120940e+01
8.1394622342039402e-01 5.0202268776579182e+01
-1.0000000000000000e+01 1.0000000000000000e+01
ITEM: ATOMS id type x y z xu yu zu
1 1 -1.53492 1.02959 -0.341453 -1.53492 1.02959 -0.341453
2 2 0.334724 1.0224 1.32552 0.334724 1.0224 1.32552
3 2 0.397328 1.0371 -1.93603 0.397328 1.0371 -1.93603
4 1 1.31647 2.67609 -0.278952 1.31647 2.67609 -0.278952
5 2 3.21714 2.67712 1.35231 3.21714 2.67712 1.35231
6 2 3.21842 2.67536 -1.90994 3.21842 2.67536 -1.90994
7 1 4.16861 1.02986 -0.277973 4.16861 1.02986 -0.277973
8 2 6.06726 1.04077 1.3559 6.06726 1.04077 1.3559
9 2 6.0726 1.01831 -1.90621 6.0726 1.01831 -1.90621
10 1 7.02112 2.67565 -0.284836 7.02112 2.67565 -0.284836
11 2 8.91814 2.68689 1.35168 8.91814 2.68689 1.35168
12 2 8.92725 2.66318 -1.91036 8.92725 2.66318 -1.91036
13 1 9.87351 1.02859 -0.264546 9.87351 1.02859 -0.264546
14 2 11.7657 1.04211 1.37761 11.7657 1.04211 1.37761
15 2 11.7845 1.01405 -1.88434 11.7845 1.01405 -1.88434
16 1 12.7269 2.67396 -0.261957 12.7269 2.67396 -0.261957
17 2 14.6222 2.68735 1.37672 14.6222 2.68735 1.37672
18 2 14.635 2.65966 -1.88527 14.635 2.65966 -1.88527
19 1 15.5794 1.02728 -0.236307 15.5794 1.02728 -0.236307
20 2 17.4906 1.0375 1.38341 17.4906 1.0375 1.38341
21 2 17.4716 1.01703 -1.87862 17.4716 1.01703 -1.87862
22 1 18.4332 2.673 -0.263894 18.4332 2.673 -0.263894
23 2 20.3505 2.68093 1.34839 20.3505 2.68093 1.34839
24 2 20.3194 2.6653 -1.91354 20.3194 2.6653 -1.91354
25 1 21.286 1.02712 -0.28398 21.286 1.02712 -0.28398
26 2 23.1957 1.03765 1.33766 23.1957 1.03765 1.33766
27 2 23.1801 1.01718 -1.92434 23.1801 1.01718 -1.92434
28 1 24.1399 2.67326 -0.308668 24.1399 2.67326 -0.308668
29 2 26.031 2.67163 1.33505 26.031 2.67163 1.33505
30 2 26.0526 2.67531 -1.92698 26.0526 2.67531 -1.92698
31 1 26.9928 1.02727 -0.291458 26.9928 1.02727 -0.291458
32 2 28.8721 1.03193 1.36576 28.8721 1.03193 1.36576
33 2 28.9168 1.02312 -1.89605 28.9168 1.02312 -1.89605
34 1 29.8457 2.67383 -0.256747 29.8457 2.67383 -0.256747
35 2 31.7264 2.66727 1.39846 31.7264 2.66727 1.39846
36 2 31.7682 2.68131 -1.86337 31.7682 2.68131 -1.86337
37 1 32.6982 1.02803 -0.227442 32.6982 1.02803 -0.227442
38 2 34.5853 1.02998 1.42014 34.5853 1.02998 1.42014
39 2 34.6141 1.02645 -1.84187 34.6141 1.02645 -1.84187
40 1 35.5509 2.67446 -0.203999 35.5509 2.67446 -0.203999
41 2 37.443 2.67996 1.43803 37.443 2.67996 1.43803
42 2 37.4617 2.6684 -1.82406 37.4617 2.6684 -1.82406
43 1 38.4029 1.02763 -0.181494 38.4029 1.02763 -0.181494
44 2 40.2875 1.0288 1.46952 40.2875 1.0288 1.46952
45 2 40.3213 1.02573 -1.79283 40.3213 1.02573 -1.79283
46 1 41.2542 2.67378 -0.153796 41.2542 2.67378 -0.153796
47 2 43.1163 2.6619 1.46377 43.1163 2.6619 1.46377
48 2 43.1496 2.68554 -1.73287 43.1496 2.68554 -1.73287
49 1 44.1743 1.02722 -0.13499 44.1743 1.02722 -0.13499
50 2 -5.12698 1.02327 1.31758 68.4663 1.02327 1.31758
51 2 -5.94377 1.03271 -1.42677 67.6495 1.03271 -1.42677
52 1 -4.36938 2.67664 -0.394584 69.2239 2.67664 -0.394584
53 2 -2.53525 2.65192 1.29815 71.058 2.65192 1.29815
54 2 -2.44305 2.70077 -1.98097 71.1502 2.70077 -1.98097
55 1 -1.53553 4.32232 -0.292591 -1.53553 4.32232 -0.292591
56 2 0.34999 4.31113 1.35545 0.34999 4.31113 1.35545
57 2 0.381402 4.33353 -1.90656 0.381402 4.33353 -1.90656
58 1 1.31618 5.96854 -0.254616 1.31618 5.96854 -0.254616
59 2 3.22831 5.96341 1.36336 3.22831 5.96341 1.36336
60 2 3.20668 5.97356 -1.89879 3.20668 5.97356 -1.89879
61 1 4.16864 4.32238 -0.279355 4.16864 4.32238 -0.279355
62 2 6.07886 4.33207 1.3412 6.07886 4.33207 1.3412
63 2 6.06135 4.312 -1.92086 6.06135 4.312 -1.92086
64 1 7.02154 5.96793 -0.305022 7.02154 5.96793 -0.305022
65 2 8.92069 5.97831 1.32922 8.92069 5.97831 1.32922
66 2 8.92601 5.95612 -1.9328 8.92601 5.95612 -1.9328
67 1 9.87437 4.32091 -0.288835 9.87437 4.32091 -0.288835
68 2 11.7687 4.33374 1.35097 11.7687 4.33374 1.35097
69 2 11.7836 4.30687 -1.91099 11.7836 4.30687 -1.91099
70 1 12.728 5.96616 -0.289701 12.728 5.96616 -0.289701
71 2 14.6142 5.96311 1.35952 14.6142 5.96311 1.35952
72 2 14.6453 5.96827 -1.90245 14.6453 5.96827 -1.90245
73 1 15.5806 4.31933 -0.265032 15.5806 4.31933 -0.265032
74 2 17.4822 4.3209 1.36556 17.4822 4.3209 1.36556
75 2 17.4825 4.31746 -1.89658 17.4825 4.31746 -1.89658
76 1 18.4339 5.96525 -0.26774 18.4339 5.96525 -0.26774
77 2 20.3436 5.94825 1.35325 20.3436 5.94825 1.35325
78 2 20.3277 5.98242 -1.90866 20.3277 5.98242 -1.90866
79 1 21.2867 4.31916 -0.299852 21.2867 4.31916 -0.299852
80 2 23.188 4.30989 1.33153 23.188 4.30989 1.33153
81 2 23.1892 4.32868 -1.93052 23.1892 4.32868 -1.93052
82 1 24.1396 5.96561 -0.289727 24.1396 5.96561 -0.289727
83 2 26.0266 5.94222 1.35829 26.0266 5.94222 1.35829
84 2 26.0559 5.98904 -1.90338 26.0559 5.98904 -1.90338
85 1 26.993 4.31974 -0.287719 26.993 4.31974 -0.287719
86 2 28.8697 4.3072 1.37246 28.8697 4.3072 1.37246
87 2 28.9194 4.33268 -1.8892 28.9194 4.33268 -1.8892
88 1 29.8451 5.9662 -0.230613 29.8451 5.9662 -0.230613
89 2 31.7296 5.9548 1.42016 31.7296 5.9548 1.42016
90 2 31.7639 5.97846 -1.8417 31.7639 5.97846 -1.8417
91 1 32.6983 4.3206 -0.213102 32.6983 4.3206 -0.213102
92 2 34.5926 4.31782 1.42619 34.5926 4.31782 1.42619
93 2 34.6073 4.32398 -1.8359 34.6073 4.32398 -1.8359
94 1 35.5508 5.96732 -0.197445 35.5508 5.96732 -0.197445
95 2 37.449 5.96615 1.43723 37.449 5.96615 1.43723
96 2 37.4557 5.96834 -1.82491 37.4557 5.96834 -1.82491
97 1 38.4031 4.32064 -0.193181 38.4031 4.32064 -0.193181
98 2 40.288 4.33025 1.45735 40.288 4.33025 1.45735
99 2 40.321 4.31044 -1.80495 40.321 4.31044 -1.80495
100 1 41.2542 5.96707 -0.174356 41.2542 5.96707 -0.174356
101 2 43.1003 5.96871 1.4612 43.1003 5.96871 1.4612
102 2 43.1649 5.96552 -1.73508 43.1649 5.96552 -1.73508
103 1 44.1735 4.32055 -0.113559 44.1735 4.32055 -0.113559
104 2 -5.12199 4.29595 1.34957 68.4713 4.29595 1.34957
105 2 -5.95373 4.33855 -1.38464 67.6395 4.33855 -1.38464
106 1 -4.37053 5.97221 -0.349976 69.2227 5.97221 -0.349976
107 2 -2.54667 5.92904 1.35592 71.0466 5.92904 1.35592
108 2 -2.4306 6.00899 -1.92032 71.1626 6.00899 -1.92032
109 1 -1.53591 7.61498 -0.20782 -1.53591 7.61498 -0.20782
110 2 0.380222 7.5953 1.40487 0.380222 7.5953 1.40487
111 2 0.351244 7.63421 -1.85704 0.351244 7.63421 -1.85704
112 1 1.31699 9.26047 -0.215936 1.31699 9.26047 -0.215936
113 2 3.24265 9.25111 1.38588 3.24265 9.25111 1.38588
114 2 3.19336 9.26978 -1.87595 3.19336 9.26978 -1.87595
115 1 4.16884 7.61441 -0.269199 4.16884 7.61441 -0.269199
116 2 6.08924 7.61224 1.3391 6.08924 7.61224 1.3391
117 2 6.05122 7.61608 -1.92282 6.05122 7.61608 -1.92282
118 1 7.02198 9.26007 -0.301407 7.02198 9.26007 -0.301407
119 2 8.9237 9.24888 1.32991 8.9237 9.24888 1.32991
120 2 8.92408 9.27019 -1.93208 8.92408 9.27019 -1.93208
121 1 9.87509 7.61315 -0.311713 9.87509 7.61315 -0.311713
122 2 11.7636 7.61056 1.33503 11.7636 7.61056 1.33503
123 2 11.7902 7.61451 -1.92694 11.7902 7.61451 -1.92694
124 1 12.7283 9.25863 -0.286209 12.7283 9.25863 -0.286209
125 2 14.6113 9.25167 1.36654 14.6113 9.25167 1.36654
126 2 14.6486 9.26445 -1.89532 14.6486 9.26445 -1.89532
127 1 15.5811 7.61172 -0.259942 15.5811 7.61172 -0.259942
128 2 17.4793 7.59788 1.37507 17.4793 7.59788 1.37507
129 2 17.4863 7.62512 -1.88694 17.4863 7.62512 -1.88694
130 1 18.4335 9.25789 -0.240415 18.4335 9.25789 -0.240415
131 2 20.3366 9.23636 1.38843 20.3366 9.23636 1.38843
132 2 20.3336 9.2794 -1.8734 20.3336 9.2794 -1.8734
133 1 21.2864 7.61168 -0.26524 21.2864 7.61168 -0.26524
134 2 23.1855 7.58338 1.36842 23.1855 7.58338 1.36842
135 2 23.1905 7.63977 -1.89322 23.1905 7.63977 -1.89322
136 1 24.1386 9.25783 -0.232202 24.1386 9.25783 -0.232202
137 2 26.0271 9.22727 1.41414 26.0271 9.22727 1.41414
138 2 26.0531 9.28808 -1.84733 26.0531 9.28808 -1.84733
139 1 26.9917 7.61183 -0.239985 26.9917 7.61183 -0.239985
140 2 28.8736 7.58764 1.4138 28.8736 7.58764 1.4138
141 2 28.9128 7.63623 -1.84776 28.9128 7.63623 -1.84776
142 1 29.8438 9.25808 -0.18039 29.8438 9.25808 -0.18039
143 2 31.742 9.24495 1.45463 31.742 9.24495 1.45463
144 2 31.7489 9.27242 -1.80737 31.7489 9.27242 -1.80737
145 1 32.6975 7.61295 -0.188628 32.6975 7.61295 -0.188628
146 2 34.5989 7.60471 1.44247 34.5989 7.60471 1.44247
147 2 34.5997 7.62222 -1.81959 34.5997 7.62222 -1.81959
148 1 35.5498 9.25997 -0.179586 35.5498 9.25997 -0.179586
149 2 37.4531 9.25255 1.44929 37.4531 9.25255 1.44929
150 2 37.4499 9.26793 -1.8128 37.4499 9.26793 -1.8128
151 1 38.4027 7.61388 -0.190828 38.4027 7.61388 -0.190828
152 2 40.2965 7.61692 1.44926 40.2965 7.61692 1.44926
153 2 40.312 7.61054 -1.8132 40.312 7.61054 -1.8132
154 1 41.2538 9.26049 -0.180532 41.2538 9.26049 -0.180532
155 2 43.1025 9.2681 1.45266 43.1025 9.2681 1.45266
156 2 43.1624 9.25273 -1.74363 43.1624 9.25273 -1.74363
157 1 44.1732 7.61385 -0.118623 44.1732 7.61385 -0.118623
158 2 -5.14505 7.52161 1.43809 68.4482 7.52161 1.43809
159 2 -5.85173 7.69495 -1.40308 67.7415 7.69495 -1.40308
160 1 -4.36679 9.26063 -0.178293 69.2265 9.26063 -0.178293
161 2 -2.49025 9.24267 1.45765 71.103 9.24267 1.45765
162 2 -2.49928 9.27813 -1.82424 71.094 9.27813 -1.82424
163 1 -1.53488 10.9056 -0.164188 -1.53488 10.9056 -0.164188
164 2 0.386772 10.889 1.44359 0.386772 10.889 1.44359
165 2 0.346066 10.9237 -1.81825 0.346066 10.9237 -1.81825
166 1 1.31763 12.5525 -0.181993 1.31763 12.5525 -0.181993
167 2 3.2453 12.5306 1.41769 3.2453 12.5306 1.41769
168 2 3.19263 12.5744 -1.84372 3.19263 12.5744 -1.84372
169 1 4.16948 10.9064 -0.250383 4.16948 10.9064 -0.250383
170 2 6.08933 10.8876 1.35889 6.08933 10.8876 1.35889
171 2 6.05259 10.9248 -1.90279 6.05259 10.9248 -1.90279
172 1 7.02275 12.5523 -0.264035 7.02275 12.5523 -0.264035
173 2 8.92322 12.5236 1.3685 8.92322 12.5236 1.3685
174 2 8.92587 12.5803 -1.89307 8.92587 12.5803 -1.89307
175 1 9.87546 10.9056 -0.290219 9.87546 10.9056 -0.290219
176 2 11.7618 10.8823 1.35877 11.7618 10.8823 1.35877
177 2 11.7925 10.9278 -1.90286 11.7925 10.9278 -1.90286
178 1 12.7281 12.5511 -0.239915 12.7281 12.5511 -0.239915
179 2 14.6209 12.5286 1.40141 14.6209 12.5286 1.40141
180 2 14.6384 12.5728 -1.86038 14.6384 12.5728 -1.86038
181 1 15.5808 10.9044 -0.24686 15.5808 10.9044 -0.24686
182 2 17.4682 10.8862 1.4004 17.4682 10.8862 1.4004
183 2 17.4963 10.9223 -1.8614 17.4963 10.9223 -1.8614
184 1 18.433 12.5506 -0.204031 18.433 12.5506 -0.204031
185 2 20.3365 12.5363 1.42482 20.3365 12.5363 1.42482
186 2 20.3328 12.565 -1.83715 20.3328 12.565 -1.83715
187 1 21.2858 10.9043 -0.221418 21.2858 10.9043 -0.221418
188 2 23.1814 10.8824 1.41689 23.1814 10.8824 1.41689
189 2 23.1934 10.9258 -1.84491 23.1934 10.9258 -1.84491
190 1 24.1384 12.5504 -0.188244 24.1384 12.5504 -0.188244
191 2 26.0288 12.5409 1.45621 26.0288 12.5409 1.45621
192 2 26.0511 12.5598 -1.80578 26.0511 12.5598 -1.80578
193 1 26.9908 10.9038 -0.177769 26.9908 10.9038 -0.177769
194 2 28.8856 10.89 1.46135 28.8856 10.89 1.46135
195 2 28.899 10.9181 -1.80065 28.899 10.9181 -1.80065
196 1 29.8431 12.5505 -0.151299 29.8431 12.5505 -0.151299
197 2 31.7456 12.5437 1.47868 31.7456 12.5437 1.47868
198 2 31.7437 12.5584 -1.78345 31.7437 12.5584 -1.78345
199 1 32.6962 10.9051 -0.160398 32.6962 10.9051 -0.160398
200 2 34.6032 10.8965 1.46414 34.6032 10.8965 1.46414
201 2 34.5925 10.9151 -1.7979 34.5925 10.9151 -1.7979
202 1 35.5485 12.5524 -0.160726 35.5485 12.5524 -0.160726
203 2 37.4521 12.5428 1.46767 37.4521 12.5428 1.46767
204 2 37.448 12.5631 -1.79441 37.448 12.5631 -1.79441
205 1 38.4017 10.9069 -0.175037 38.4017 10.9069 -0.175037
206 2 40.3 10.896 1.46009 40.3 10.896 1.46009
207 2 40.3067 10.918 -1.80233 40.3067 10.918 -1.80233
208 1 41.253 12.5534 -0.15773 41.253 12.5534 -0.15773
209 2 43.1223 12.5636 1.45143 43.1223 12.5636 1.45143
210 2 43.1416 12.5432 -1.74531 43.1416 12.5432 -1.74531
211 1 44.1732 10.907 -0.132612 44.1732 10.907 -0.132612
212 2 -5.87066 10.8339 1.0151 67.7226 10.8339 1.0151
213 2 -5.13002 10.993 -1.81001 68.4632 10.993 -1.81001
214 1 -4.36875 12.5491 -0.0209372 69.2245 12.5491 -0.0209372
215 2 -2.42645 12.5139 1.54731 71.1668 12.5139 1.54731
216 2 -2.54567 12.5899 -1.72896 71.0476 12.5899 -1.72896
217 1 -1.53309 14.1984 -0.0842961 -1.53309 14.1984 -0.0842961
218 2 0.40977 14.1744 1.49765 0.40977 14.1744 1.49765
219 2 0.325774 14.2228 -1.76304 0.325774 14.2228 -1.76304
220 1 1.3192 15.8447 -0.132413 1.3192 15.8447 -0.132413
221 2 3.24435 15.812 1.47081 3.24435 15.812 1.47081
222 2 3.19694 15.8776 -1.79031 3.19694 15.8776 -1.79031
223 1 4.17069 14.1986 -0.206728 4.17069 14.1986 -0.206728
224 2 6.08566 14.1652 1.40815 6.08566 14.1652 1.40815
225 2 6.05882 14.2318 -1.85316 6.05882 14.2318 -1.85316
226 1 7.02388 15.8445 -0.196573 7.02388 15.8445 -0.196573
227 2 8.92454 15.8069 1.43546 8.92454 15.8069 1.43546
228 2 8.92633 15.8818 -1.8258 8.92633 15.8818 -1.8258
229 1 9.8759 14.198 -0.232533 9.8759 14.198 -0.232533
230 2 11.7646 14.1679 1.41352 11.7646 14.1679 1.41352
231 2 11.7902 14.2272 -1.84796 11.7902 14.2272 -1.84796
232 1 12.7285 15.8435 -0.179493 12.7285 15.8435 -0.179493
233 2 14.6274 15.8179 1.45404 14.6274 15.8179 1.45404
234 2 14.6323 15.8687 -1.80774 14.6323 15.8687 -1.80774
235 1 15.5805 14.1969 -0.201489 15.5805 14.1969 -0.201489
236 2 17.4776 14.1867 1.4348 17.4776 14.1867 1.4348
237 2 17.4863 14.2072 -1.82728 17.4863 14.2072 -1.82728
238 1 18.4331 15.8432 -0.183264 18.4331 15.8432 -0.183264
239 2 20.3329 15.831 1.44936 20.3329 15.831 1.44936
240 2 20.3363 15.8553 -1.81268 20.3363 15.8553 -1.81268
241 1 21.2858 14.1969 -0.192824 21.2858 14.1969 -0.192824
242 2 23.1819 14.1914 1.44482 23.1819 14.1914 1.44482
243 2 23.1931 14.2023 -1.81723 23.1931 14.2023 -1.81723
244 1 24.1385 15.8433 -0.177291 24.1385 15.8433 -0.177291
245 2 26.0308 15.8452 1.46484 26.0308 15.8452 1.46484
246 2 26.0495 15.8414 -1.79721 26.0495 15.8414 -1.79721
247 1 26.9909 14.1968 -0.158688 26.9909 14.1968 -0.158688
248 2 28.8893 14.1988 1.47599 28.8893 14.1988 1.47599
249 2 28.8955 14.1951 -1.78617 28.8955 14.1951 -1.78617
250 1 29.8432 15.8434 -0.155267 29.8432 15.8434 -0.155267
251 2 31.7403 15.8454 1.48087 31.7403 15.8454 1.48087
252 2 31.7488 15.8423 -1.78133 31.7488 15.8423 -1.78133
253 1 32.6954 14.1976 -0.145825 32.6954 14.1976 -0.145825
254 2 34.6007 14.1904 1.48068 34.6007 14.1904 1.48068
255 2 34.5931 14.2062 -1.78145 34.5931 14.2062 -1.78145
256 1 35.5476 15.8447 -0.144671 35.5476 15.8447 -0.144671
257 2 37.4498 15.8362 1.48593 37.4498 15.8362 1.48593
258 2 37.4483 15.8544 -1.77623 37.4483 15.8544 -1.77623
259 1 38.4006 14.1994 -0.154298 38.4006 14.1994 -0.154298
260 2 40.2916 14.178 1.48958 40.2916 14.178 1.48958
261 2 40.3128 14.2208 -1.77256 40.3128 14.2208 -1.77256
262 1 41.2521 15.8459 -0.112739 41.2521 15.8459 -0.112739
263 2 43.1547 15.8527 1.45914 43.1547 15.8527 1.45914
264 2 43.1077 15.8393 -1.73727 43.1077 15.8393 -1.73727
265 1 44.1728 14.1999 -0.148742 44.1728 14.1999 -0.148742
266 2 -5.95651 14.1848 1.0038 67.6367 14.1848 1.0038
267 2 -5.11804 14.2205 -1.72585 68.4752 14.2205 -1.72585
268 1 -4.36774 15.8438 0.01611 69.2255 15.8438 0.01611
269 2 -2.44132 15.8208 1.60267 71.1519 15.8208 1.60267
270 2 -2.53346 15.8675 -1.67642 71.0598 15.8675 -1.67642
271 1 -1.53229 17.4903 -0.038336 -1.53229 17.4903 -0.038336
272 2 0.406264 17.4622 1.54843 0.406264 17.4622 1.54843
273 2 0.331549 17.5189 -1.71229 0.331549 17.5189 -1.71229
274 1 1.32047 19.1368 -0.0749724 1.32047 19.1368 -0.0749724
275 2 3.24288 19.1084 1.53169 3.24288 19.1084 1.53169
276 2 3.20103 19.1657 -1.72966 3.20103 19.1657 -1.72966
277 1 4.17226 17.4908 -0.140186 4.17226 17.4908 -0.140186
278 2 6.08675 17.4574 1.4755 6.08675 17.4574 1.4755
279 2 6.06068 17.5242 -1.78585 6.06068 17.5242 -1.78585
280 1 7.02503 19.1369 -0.128708 7.02503 19.1369 -0.128708
281 2 8.92484 19.1057 1.50444 8.92484 19.1057 1.50444
282 2 8.92811 19.1675 -1.75715 8.92811 19.1675 -1.75715
283 1 9.87674 17.4902 -0.156575 9.87674 17.4902 -0.156575
284 2 11.7746 17.4613 1.47863 11.7746 17.4613 1.47863
285 2 11.7816 17.5186 -1.78304 11.7816 17.5186 -1.78304
286 1 12.7292 19.136 -0.120945 12.7292 19.136 -0.120945
287 2 14.632 19.1098 1.50821 14.632 19.1098 1.50821
288 2 14.629 19.1617 -1.75359 14.629 19.1617 -1.75359
289 1 15.5809 17.4894 -0.149835 15.5809 17.4894 -0.149835
290 2 17.4868 17.4648 1.47556 17.4868 17.4648 1.47556
291 2 17.4776 17.5141 -1.78625 17.4776 17.5141 -1.78625
292 1 18.4332 19.1356 -0.132918 18.4332 19.1356 -0.132918
293 2 20.3465 19.1219 1.48394 20.3465 19.1219 1.48394
294 2 20.3224 19.1495 -1.77803 20.3224 19.1495 -1.77803
295 1 21.2856 17.4895 -0.168327 21.2856 17.4895 -0.168327
296 2 23.1887 17.4831 1.46104 23.1887 17.4831 1.46104
297 2 23.1858 17.496 -1.80104 23.1858 17.496 -1.80104
298 1 24.1381 19.136 -0.164274 24.1381 19.136 -0.164274
299 2 26.0397 19.1377 1.4669 26.0397 19.1377 1.4669
300 2 26.0398 19.1346 -1.79521 26.0398 19.1346 -1.79521
301 1 26.991 17.4898 -0.162685 26.991 17.4898 -0.162685
302 2 28.8903 17.4931 1.47096 28.8903 17.4931 1.47096
303 2 28.8948 17.4867 -1.79121 28.8948 17.4867 -1.79121
304 1 29.843 19.1363 -0.162306 29.843 19.1363 -0.162306
305 2 31.7376 19.1372 1.47679 31.7376 19.1372 1.47679
306 2 31.7511 19.1357 -1.78545 31.7511 19.1357 -1.78545
307 1 32.6952 17.4903 -0.149542 32.6952 17.4903 -0.149542
308 2 34.5931 17.4896 1.48539 34.5931 17.4896 1.48539
309 2 34.5999 17.492 -1.77686 34.5999 17.492 -1.77686
310 1 35.5469 19.1373 -0.142726 35.5469 19.1373 -0.142726
311 2 37.4421 19.134 1.49544 37.4421 19.134 1.49544
312 2 37.4543 19.1416 -1.76674 37.4543 19.1416 -1.76674
313 1 38.3996 17.4917 -0.135877 38.3996 17.4917 -0.135877
314 2 40.2939 17.502 1.50415 40.2939 17.502 1.50415
315 2 40.3084 17.4822 -1.75825 40.3084 17.4822 -1.75825
316 1 41.2509 19.1386 -0.13303 41.2509 19.1386 -0.13303
317 2 43.1443 19.1377 1.44791 43.1443 19.1377 1.44791
318 2 43.1151 19.1397 -1.74885 43.1151 19.1397 -1.74885
319 1 44.1715 17.4927 -0.160294 44.1715 17.4927 -0.160294
320 2 -5.94138 17.4842 1.0545 67.6519 17.4842 1.0545
321 2 -5.12379 17.5024 -1.69131 68.4695 17.5024 -1.69131
322 1 -4.36645 19.1368 0.038126 69.2268 19.1368 0.038126
323 2 -2.44915 19.1211 1.63574 71.1441 19.1211 1.63574
324 2 -2.52431 19.1519 -1.64395 71.0689 19.1519 -1.64395
325 1 -1.53126 20.7828 -0.00767362 -1.53126 20.7828 -0.00767362
326 2 0.399434 20.7664 1.58925 0.399434 20.7664 1.58925
327 2 0.340757 20.7998 -1.67211 0.340757 20.7998 -1.67211
328 1 1.32115 22.4297 -0.0416754 1.32115 22.4297 -0.0416754
329 2 3.23907 22.4177 1.57045 3.23907 22.4177 1.57045
330 2 3.20615 22.4421 -1.69141 3.20615 22.4421 -1.69141
331 1 4.17315 20.7833 -0.0821453 4.17315 20.7833 -0.0821453
332 2 6.08733 20.7588 1.53411 6.08733 20.7588 1.53411
333 2 6.06181 20.8077 -1.72758 6.06181 20.8077 -1.72758
334 1 7.02552 22.4295 -0.0794767 7.02552 22.4295 -0.0794767
335 2 8.92199 22.4052 1.55773 8.92199 22.4052 1.55773
336 2 8.93184 22.4528 -1.70409 8.93184 22.4528 -1.70409
337 1 9.87752 20.7826 -0.0941664 9.87752 20.7826 -0.0941664
338 2 11.7784 20.7549 1.53748 11.7784 20.7549 1.53748
339 2 11.7794 20.8099 -1.72425 11.7794 20.8099 -1.72425
340 1 12.7297 22.4285 -0.0651147 12.7297 22.4285 -0.0651147
341 2 14.637 22.4076 1.55859 14.637 22.4076 1.55859
342 2 14.6248 22.4491 -1.70336 14.6248 22.4491 -1.70336
343 1 15.5813 20.7819 -0.0971771 15.5813 20.7819 -0.0971771
344 2 17.4909 20.7616 1.52378 17.4909 20.7616 1.52378
345 2 17.4741 20.8022 -1.73816 17.4741 20.8022 -1.73816
346 1 18.4332 22.4282 -0.0916948 18.4332 22.4282 -0.0916948
347 2 20.3504 22.4089 1.52018 20.3504 22.4089 1.52018
348 2 20.3182 22.4476 -1.74164 20.3182 22.4476 -1.74164
349 1 21.2852 20.7821 -0.139933 21.2852 20.7821 -0.139933
350 2 23.1938 20.7706 1.48278 23.1938 20.7706 1.48278
351 2 23.1796 20.7938 -1.77925 23.1796 20.7938 -1.77925
352 1 24.1375 22.4286 -0.140494 24.1375 22.4286 -0.140494
353 2 26.0487 22.4214 1.47903 26.0487 22.4214 1.47903
354 2 26.0292 22.4364 -1.78302 26.0292 22.4364 -1.78302
355 1 26.9904 20.7826 -0.165481 26.9904 20.7826 -0.165481
356 2 28.89 20.7821 1.46794 28.89 20.7821 1.46794
357 2 28.8938 20.7831 -1.79424 28.8938 20.7831 -1.79424
358 1 29.8422 22.4292 -0.161422 29.8422 22.4292 -0.161422
359 2 31.7398 22.4328 1.47405 31.7398 22.4328 1.47405
360 2 31.7472 22.4255 -1.78818 31.7472 22.4255 -1.78818
361 1 32.6946 20.783 -0.15113 32.6946 20.783 -0.15113
362 2 34.591 20.7829 1.48573 34.591 20.7829 1.48573
363 2 34.6005 20.7836 -1.77651 34.6005 20.7836 -1.77651
364 1 35.5461 22.4299 -0.142295 35.5461 22.4299 -0.142295
365 2 37.4414 22.4343 1.49568 37.4414 22.4343 1.49568
366 2 37.4533 22.4266 -1.76649 37.4533 22.4266 -1.76649
367 1 38.3987 20.7844 -0.128289 38.3987 20.7844 -0.128289
368 2 40.3068 20.7914 1.49529 40.3068 20.7914 1.49529
369 2 40.2938 20.7781 -1.76718 40.2938 20.7781 -1.76718
370 1 41.2498 22.4313 -0.146766 41.2498 22.4313 -0.146766
371 2 43.1347 22.4301 1.44399 43.1347 22.4301 1.44399
372 2 43.1227 22.4328 -1.75287 43.1227 22.4328 -1.75287
373 1 44.1703 20.7853 -0.15961 44.1703 20.7853 -0.15961
374 2 -5.94148 20.779 1.07085 67.6518 20.779 1.07085
375 2 -5.11886 20.7913 -1.67455 68.4744 20.7913 -1.67455
376 1 -4.36586 22.4302 0.0525405 69.2274 22.4302 0.0525405
377 2 -2.44985 22.4267 1.65268 71.1434 22.4267 1.65268
378 2 -2.521 22.4323 -1.62706 71.0722 22.4323 -1.62706
379 1 -1.53065 24.0762 -0.00229685 -1.53065 24.0762 -0.00229685
380 2 0.393217 24.0757 1.6026 0.393217 24.0757 1.6026
381 2 0.348182 24.0771 -1.65916 0.348182 24.0771 -1.65916
382 1 1.3216 25.723 -0.0409081 1.3216 25.723 -0.0409081
383 2 3.22848 25.7152 1.58391 3.22848 25.7152 1.58391
384 2 3.21751 25.731 -1.67819 3.21751 25.731 -1.67819
385 1 4.17349 24.0764 -0.0580117 4.17349 24.0764 -0.0580117
386 2 6.07868 24.0608 1.56871 6.07868 24.0608 1.56871
387 2 6.07103 24.0913 -1.69332 6.07103 24.0913 -1.69332
388 1 7.0255 25.7224 -0.0491646 7.0255 25.7224 -0.0491646
389 2 8.91454 25.7031 1.59636 8.91454 25.7031 1.59636
390 2 8.93888 25.7403 -1.66553 8.93888 25.7403 -1.66553
391 1 9.87757 24.0752 -0.0461945 9.87757 24.0752 -0.0461945
392 2 11.7776 24.0541 1.58632 11.7776 24.0541 1.58632
393 2 11.7802 24.0957 -1.67563 11.7802 24.0957 -1.67563
394 1 12.7294 25.7212 -0.0225614 12.7294 25.7212 -0.0225614
395 2 14.6427 25.7103 1.59423 14.6427 25.7103 1.59423
396 2 14.6185 25.7315 -1.66787 14.6185 25.7315 -1.66787
397 1 15.5814 24.0746 -0.054726 15.5814 24.0746 -0.054726
398 2 17.4946 24.0589 1.56224 17.4946 24.0589 1.56224
399 2 17.4705 24.0902 -1.69978 17.4705 24.0902 -1.69978
400 1 18.4332 25.7208 -0.059928 18.4332 25.7208 -0.059928
401 2 20.3517 25.7107 1.55092 20.3517 25.7107 1.55092
402 2 20.3171 25.7311 -1.71105 20.3171 25.7311 -1.71105
403 1 21.2852 24.0746 -0.10045 21.2852 24.0746 -0.10045
404 2 23.2003 24.0595 1.51442 23.2003 24.0595 1.51442
405 2 23.1727 24.0902 -1.74749 23.1727 24.0902 -1.74749
406 1 24.1373 25.7213 -0.108996 24.1373 25.7213 -0.108996
407 2 26.0541 25.7082 1.50399 26.0541 25.7082 1.50399
408 2 26.0231 25.7351 -1.75793 26.0231 25.7351 -1.75793
409 1 26.9895 24.0754 -0.149864 26.9895 24.0754 -0.149864
410 2 28.8939 24.0693 1.47782 28.8939 24.0693 1.47782
411 2 28.8881 24.0815 -1.78434 28.8881 24.0815 -1.78434
412 1 29.8414 25.722 -0.148415 29.8414 25.722 -0.148415
413 2 31.7466 25.719 1.47819 31.7466 25.719 1.47819
414 2 31.7387 25.7251 -1.784 31.7387 25.7251 -1.784
415 1 32.6937 24.0758 -0.158436 32.6937 24.0758 -0.158436
416 2 34.5877 24.0794 1.4811 34.5877 24.0794 1.4811
417 2 34.6021 24.0727 -1.78107 34.6021 24.0727 -1.78107
418 1 35.5451 25.7229 -0.149027 35.5451 25.7229 -0.149027
419 2 37.4435 25.7311 1.48545 37.4435 25.7311 1.48545
420 2 37.4491 25.7156 -1.77672 37.4491 25.7156 -1.77672
421 1 38.3976 24.0772 -0.135928 38.3976 24.0772 -0.135928
422 2 40.3022 24.0719 1.49189 40.3022 24.0719 1.49189
423 2 40.2962 24.083 -1.77062 40.2962 24.083 -1.77062
424 1 41.2489 25.7238 -0.135657 41.2489 25.7238 -0.135657
425 2 43.1392 25.7244 1.44896 43.1392 25.7244 1.44896
426 2 43.1165 25.7232 -1.74782 43.1165 25.7232 -1.74782
427 1 44.1695 24.0778 -0.156877 44.1695 24.0778 -0.156877
428 2 -5.94556 24.0821 1.06246 67.6477 24.0821 1.06246
429 2 -5.11059 24.0695 -1.67919 68.4826 24.0695 -1.67919
430 1 -4.36516 25.7234 0.0356134 69.2281 25.7234 0.0356134
431 2 -2.45977 25.7257 1.64709 71.1335 25.7257 1.64709
432 2 -2.51057 25.7203 -1.6331 71.0827 25.7203 -1.6331
433 1 -1.53002 27.3695 -0.00780796 -1.53002 27.3695 -0.00780796
434 2 0.388252 27.366 1.60345 0.388252 27.366 1.60345
435 2 0.354496 27.3735 -1.65849 0.354496 27.3735 -1.65849
436 1 1.32197 29.0163 -0.0334743 1.32197 29.0163 -0.0334743
437 2 3.22316 29.0065 1.59814 3.22316 29.0065 1.59814
438 2 3.2233 29.0261 -1.66404 3.2233 29.0261 -1.66404
439 1 4.17366 27.3696 -0.0425273 4.17366 27.3696 -0.0425273
440 2 6.06858 27.3509 1.59612 6.06858 27.3509 1.59612
441 2 6.08119 27.3872 -1.66585 6.08119 27.3872 -1.66585
442 1 7.02521 29.0155 -0.0125226 7.02521 29.0155 -0.0125226
443 2 8.91897 29.0061 1.62749 8.91897 29.0061 1.62749
444 2 8.93378 29.0234 -1.6346 8.93378 29.0234 -1.6346
445 1 9.87713 27.368 -0.00825294 9.87713 27.368 -0.00825294
446 2 11.7821 27.36 1.61847 11.7821 27.36 1.61847
447 2 11.7747 27.3751 -1.6437 11.7747 27.3751 -1.6437
448 1 12.7289 29.0141 -0.00688671 12.7289 29.0141 -0.00688671
449 2 14.6474 29.0178 1.60377 14.6474 29.0178 1.60377
450 2 14.6128 29.0092 -1.65825 14.6128 29.0092 -1.65825
451 1 15.5811 27.3672 -0.032923 15.5811 27.3672 -0.032923
452 2 17.4964 27.3644 1.58184 17.4964 27.3644 1.58184
453 2 17.4681 27.3696 -1.68029 17.4681 27.3696 -1.68029
454 1 18.4331 29.0133 -0.054883 18.4331 29.0133 -0.054883
455 2 20.3513 29.018 1.55638 20.3513 29.018 1.55638
456 2 20.3174 29.0089 -1.70564 20.3174 29.0089 -1.70564
457 1 21.2853 27.3672 -0.0797274 21.2853 27.3672 -0.0797274
458 2 23.2009 27.3631 1.53489 23.2009 27.3631 1.53489
459 2 23.1723 27.3722 -1.72717 23.1723 27.3722 -1.72717
460 1 24.1373 29.0143 -0.0997983 24.1373 29.0143 -0.0997983
461 2 26.0511 29.0138 1.51694 26.0511 29.0138 1.51694
462 2 26.0261 29.0157 -1.74514 26.0261 29.0157 -1.74514
463 1 26.9893 27.3682 -0.122181 26.9893 27.3682 -0.122181
464 2 28.9038 27.3655 1.49356 28.9038 27.3655 1.49356
465 2 28.8772 27.3712 -1.76851 28.8772 27.3712 -1.76851
466 1 29.8411 29.0151 -0.141922 29.8411 29.0151 -0.141922
467 2 31.7524 29.0228 1.47759 31.7524 29.0228 1.47759
468 2 31.7322 29.0079 -1.7845 31.7322 29.0079 -1.7845
469 1 32.693 27.3688 -0.151824 32.693 27.3688 -0.151824
470 2 34.5976 27.3778 1.47552 34.5976 27.3778 1.47552
471 2 34.5907 27.3607 -1.78663 34.5907 27.3607 -1.78663
472 1 35.5446 29.0159 -0.166022 35.5446 29.0159 -0.166022
473 2 37.4448 29.0272 1.46673 37.4448 29.0272 1.46673
474 2 37.4468 29.005 -1.79543 37.4468 29.005 -1.79543
475 1 38.3968 27.3699 -0.151878 38.3968 27.3699 -0.151878
476 2 40.2876 27.3672 1.49222 40.2876 27.3672 1.49222
477 2 40.3089 27.3726 -1.77025 40.3089 27.3726 -1.77025
478 1 41.2487 29.016 -0.129918 41.2487 29.016 -0.129918
479 2 43.1442 29.0162 1.45009 43.1442 29.0162 1.45009
480 2 43.1112 29.0155 -1.74658 43.1112 29.0155 -1.74658
481 1 44.1689 27.3699 -0.157423 44.1689 27.3699 -0.157423
482 2 -5.95647 27.3677 1.04019 67.6368 27.3677 1.04019
483 2 -5.09659 27.3737 -1.69094 68.4966 27.3737 -1.69094
484 1 -4.36482 29.016 0.0425542 69.2284 29.016 0.0425542
485 2 -2.45792 29.0092 1.65251 71.1353 29.0092 1.65251
486 2 -2.51122 29.0232 -1.62771 71.082 29.0232 -1.62771
487 1 -1.52977 30.6625 0.00707041 -1.52977 30.6625 0.00707041
488 2 0.390304 30.655 1.61623 0.390304 30.655 1.61623
489 2 0.35246 30.6705 -1.64573 0.35246 30.6705 -1.64573
490 1 1.32132 32.3094 -0.0177238 1.32132 32.3094 -0.0177238
491 2 3.22456 32.3072 1.61168 3.22456 32.3072 1.61168
492 2 3.22021 32.3111 -1.65061 3.22021 32.3111 -1.65061
493 1 4.17339 30.6628 -0.0226229 4.17339 30.6628 -0.0226229
494 2 6.06488 30.655 1.62011 6.06488 30.655 1.62011
495 2 6.08414 30.6693 -1.64201 6.08414 30.6693 -1.64201
496 1 7.02476 32.3088 0.00240974 7.02476 32.3088 0.00240974
497 2 8.92629 32.3158 1.63355 8.92629 32.3158 1.63355
498 2 8.92586 32.3005 -1.62853 8.92586 32.3005 -1.62853
499 1 9.87689 30.6614 0.00996701 9.87689 30.6614 0.00996701
500 2 11.7916 30.6676 1.62525 11.7916 30.6676 1.62525
501 2 11.7649 30.654 -1.63676 11.7649 30.654 -1.63676
502 1 12.729 32.3073 -0.0202534 12.729 32.3073 -0.0202534
503 2 14.6522 32.3232 1.58495 14.6522 32.3232 1.58495
504 2 14.6085 32.2899 -1.6767 14.6085 32.2899 -1.6767
505 1 15.5809 30.6599 -0.041582 15.5809 30.6599 -0.041582
506 2 17.4957 30.6693 1.57391 17.4957 30.6693 1.57391
507 2 17.4687 30.6498 -1.68809 17.4687 30.6498 -1.68809
508 1 18.433 32.3062 -0.0749947 18.433 32.3062 -0.0749947
509 2 20.3509 32.3211 1.53648 20.3509 32.3211 1.53648
510 2 20.3176 32.2916 -1.72536 20.3176 32.2916 -1.72536
511 1 21.2851 30.66 -0.0890712 21.2851 30.66 -0.0890712
512 2 23.1974 30.6684 1.52937 23.1974 30.6684 1.52937
513 2 23.1754 30.6527 -1.73268 23.1754 30.6527 -1.73268
514 1 24.1373 32.3072 -0.116137 24.1373 32.3072 -0.116137
515 2 26.0451 32.3146 1.50747 26.0451 32.3146 1.50747
516 2 26.0322 32.3011 -1.75462 26.0322 32.3011 -1.75462
517 1 26.9894 30.6614 -0.120523 26.9894 30.6614 -0.120523
518 2 28.9073 30.6698 1.49073 28.9073 30.6698 1.49073
519 2 28.8739 30.6536 -1.77122 28.8739 30.6536 -1.77122
520 1 29.8412 32.3084 -0.158204 29.8412 32.3084 -0.158204
521 2 31.7521 32.317 1.46142 31.7521 32.317 1.46142
522 2 31.7326 32.3004 -1.80069 31.7326 32.3004 -1.80069
523 1 32.6927 30.6621 -0.166886 32.6927 30.6621 -0.166886
524 2 34.6001 30.6737 1.45704 34.6001 30.6737 1.45704
525 2 34.5877 30.651 -1.80509 34.5877 30.651 -1.80509
526 1 35.545 32.3084 -0.189131 35.545 32.3084 -0.189131
527 2 37.4452 32.3206 1.44326 37.4452 32.3206 1.44326
528 2 37.4476 32.2959 -1.81891 37.4476 32.2959 -1.81891
529 1 38.397 30.662 -0.17465 38.397 30.662 -0.17465
530 2 40.288 30.6871 1.46906 40.288 30.6871 1.46906
531 2 40.309 30.637 -1.79308 40.309 30.637 -1.79308
532 1 41.2494 32.3076 -0.181786 41.2494 32.3076 -0.181786
533 2 43.1145 32.301 1.43256 43.1145 32.301 1.43256
534 2 43.1419 32.3141 -1.76419 43.1419 32.3141 -1.76419
535 1 44.1692 30.6615 -0.160969 44.1692 30.6615 -0.160969