ITEM: TIMESTEP
1245000
ITEM: NUMBER OF ATOMS
810
ITEM: BOX BOUNDS pp pp pp
-2.3299199661793928e+00 5.5347524966178462e+01
8.1394622342039402e-01 5.0202268776579182e+01
-1.0000000000000000e+01 1.0000000000000000e+01
ITEM: ATOMS id type x y z xu yu zu
1 1 -2.05766 1.02805 -0.18438 -2.05766 1.02805 -0.18438
2 2 0.0481334 1.03109 1.43105 0.0481334 1.03109 1.43105
3 2 0.054249 1.02476 -1.79198 0.054249 1.02476 -1.79198
4 1 1.14607 2.67446 -0.181677 1.14607 2.67446 -0.181677
5 2 3.25278 2.6779 1.4326 3.25278 2.6779 1.4326
6 2 3.25705 2.67069 -1.79042 3.25705 2.67069 -1.79042
7 1 4.35106 1.02812 -0.173804 4.35106 1.02812 -0.173804
8 2 6.45831 1.0332 1.43991 6.45831 1.0332 1.43991
9 2 6.46165 1.02275 -1.78311 6.46165 1.02275 -1.78311
10 1 7.55484 2.67448 -0.175862 7.55484 2.67448 -0.175862
11 2 9.66399 2.68105 1.43532 9.66399 2.68105 1.43532
12 2 9.66341 2.66757 -1.7877 9.66341 2.66757 -1.7877
13 1 10.7598 1.02819 -0.169543 10.7598 1.02819 -0.169543
14 2 12.8694 1.036 1.44097 12.8694 1.036 1.44097
15 2 12.8678 1.02007 -1.78206 12.8678 1.02007 -1.78206
16 1 13.9633 2.67451 -0.17925 13.9633 2.67451 -0.17925
17 2 16.0737 2.68255 1.42995 16.0737 2.68255 1.42995
18 2 16.0702 2.66608 -1.79308 16.0702 2.66608 -1.79308
19 1 17.1681 1.02826 -0.174371 17.1681 1.02826 -0.174371
20 2 19.2786 1.03602 1.43475 19.2786 1.03602 1.43475
21 2 19.2749 1.02015 -1.78829 19.2749 1.02015 -1.78829
22 1 20.3714 2.6745 -0.186123 20.3714 2.6745 -0.186123
23 2 22.4804 2.67953 1.42476 22.4804 2.67953 1.42476
24 2 22.4795 2.66905 -1.79832 22.4795 2.66905 -1.79832
25 1 23.5761 1.02828 -0.181696 23.5761 1.02828 -0.181696
26 2 25.6852 1.03259 1.42902 25.6852 1.03259 1.42902
27 2 25.6841 1.02358 -1.79406 25.6841 1.02358 -1.79406
28 1 26.7794 2.67445 -0.187538 26.7794 2.67445 -0.187538
29 2 28.8871 2.67504 1.42514 28.8871 2.67504 1.42514
30 2 28.8891 2.6734 -1.79796 28.8891 2.6734 -1.79796
31 1 29.9843 1.02821 -0.184936 29.9843 1.02821 -0.184936
32 2 32.0928 1.02957 1.42657 32.0928 1.02957 1.42657
33 2 32.093 1.02641 -1.79652 32.093 1.02641 -1.79652
34 1 33.1878 2.67434 -0.186643 33.1878 2.67434 -0.186643
35 2 35.2966 2.67253 1.42469 35.2966 2.67253 1.42469
36 2 35.2965 2.6757 -1.79838 35.2965 2.6757 -1.79838
37 1 36.3928 1.02807 -0.188567 36.3928 1.02807 -0.188567
38 2 38.5023 1.02894 1.42187 38.5023 1.02894 1.42187
39 2 38.5009 1.0268 -1.80119 38.5009 1.0268 -1.80119
40 1 39.5966 2.67427 -0.1913 39.5966 2.67427 -0.1913
41 2 41.706 2.67229 1.41928 41.706 2.67229 1.41928
42 2 41.7049 2.67591 -1.80376 41.7049 2.67591 -1.80376
43 1 42.8017 1.02799 -0.194499 42.8017 1.02799 -0.194499
44 2 44.9102 1.0296 1.41748 44.9102 1.0296 1.41748
45 2 44.9113 1.02604 -1.80554 44.9113 1.02604 -1.80554
46 1 46.0057 2.67432 -0.195494 46.0057 2.67432 -0.195494
47 2 48.1135 2.67385 1.41746 48.1135 2.67385 1.41746
48 2 48.116 2.67448 -1.80556 48.116 2.67448 -1.80556
49 1 49.2109 1.02799 -0.193516 49.2109 1.02799 -0.193516
50 2 51.3174 1.03033 1.42114 51.3174 1.03033 1.42114
51 2 51.3225 1.02537 -1.80188 51.3225 1.02537 -1.80188
52 1 52.4148 2.67439 -0.191186 52.4148 2.67439 -0.191186
53 2 54.521 2.67578 1.42374 54.521 2.67578 1.42374
54 2 54.5264 2.67272 -1.79929 54.5264 2.67272 -1.79929
55 1 -2.05891 4.3208 -0.1875 -2.05891 4.3208 -0.1875
56 2 0.0478462 4.3224 1.42667 0.0478462 4.3224 1.42667
57 2 0.0520364 4.31891 -1.79636 0.0520364 4.31891 -1.79636
58 1 1.14477 5.96721 -0.185247 1.14477 5.96721 -0.185247
59 2 3.25294 5.96979 1.42711 3.25294 5.96979 1.42711
60 2 3.2543 5.9643 -1.79591 3.2543 5.9643 -1.79591
61 1 4.34978 4.32084 -0.181208 4.34978 4.32084 -0.181208
62 2 6.45847 4.32552 1.43059 6.45847 4.32552 1.43059
63 2 6.45888 4.31579 -1.79242 6.45888 4.31579 -1.79242
64 1 7.5535 5.9672 -0.185784 7.5535 5.9672 -0.185784
65 2 9.66421 5.97308 1.42331 9.66421 5.97308 1.42331
66 2 9.66045 5.96092 -1.7997 9.66045 5.96092 -1.7997
67 1 10.7584 4.32082 -0.1833 10.7584 4.32082 -0.1833
68 2 12.869 4.32815 1.42584 12.869 4.32815 1.42584
69 2 12.8654 4.31309 -1.79718 12.8654 4.31309 -1.79718
70 1 13.9619 5.96712 -0.19458 13.9619 5.96712 -0.19458
71 2 16.0723 5.97379 1.41452 16.0723 5.97379 1.41452
72 2 16.0686 5.95997 -1.80852 16.0686 5.95997 -1.80852
73 1 17.1666 4.32077 -0.191147 17.1666 4.32077 -0.191147
74 2 19.276 4.32695 1.41933 19.276 4.32695 1.41933
75 2 19.2745 4.31413 -1.80373 19.2745 4.31413 -1.80373
76 1 20.3699 5.96697 -0.199211 20.3699 5.96697 -0.199211
77 2 22.4766 5.96982 1.41462 22.4766 5.96982 1.41462
78 2 22.4803 5.96361 -1.80846 22.4803 5.96361 -1.80846
79 1 23.5746 4.32068 -0.192442 23.5746 4.32068 -0.192442
80 2 25.6815 4.32199 1.42124 25.6815 4.32199 1.42124
81 2 25.6849 4.3189 -1.80184 25.6849 4.3189 -1.80184
82 1 26.778 5.96681 -0.190758 26.778 5.96681 -0.190758
83 2 28.8833 5.96427 1.425 28.8833 5.96427 1.425
84 2 28.89 5.96887 -1.79808 28.89 5.96887 -1.79808
85 1 29.9829 4.32057 -0.186686 29.9829 4.32057 -0.186686
86 2 32.09 4.31752 1.42678 32.09 4.31752 1.42678
87 2 32.0931 4.32316 -1.79629 32.0931 4.32316 -1.79629
88 1 33.1864 5.96671 -0.18094 33.1864 5.96671 -0.18094
89 2 35.2942 5.96043 1.43179 35.2942 5.96043 1.43179
90 2 35.2961 5.97258 -1.79126 35.2961 5.97258 -1.79126
91 1 36.3915 4.3205 -0.185368 36.3915 4.3205 -0.185368
92 2 38.5008 4.31565 1.42538 38.5008 4.31565 1.42538
93 2 38.4998 4.32499 -1.79766 38.4998 4.32499 -1.79766
94 1 39.5952 5.96677 -0.181784 39.5952 5.96677 -0.181784
95 2 41.705 5.9598 1.42836 41.705 5.9598 1.42836
96 2 41.7031 5.97348 -1.79465 41.7031 5.97348 -1.79465
97 1 42.8004 4.32059 -0.190818 42.8004 4.32059 -0.190818
98 2 44.9097 4.3167 1.42008 44.9097 4.3167 1.42008
99 2 44.9091 4.32418 -1.80294 44.9091 4.32418 -1.80294
100 1 46.0043 5.96697 -0.187823 46.0043 5.96697 -0.187823
101 2 48.1135 5.96233 1.42335 48.1135 5.96233 1.42335
102 2 48.1132 5.97135 -1.79966 48.1132 5.97135 -1.79966
103 1 49.2096 4.32071 -0.192868 49.2096 4.32071 -0.192868
104 2 51.317 4.3193 1.42056 51.317 4.3193 1.42056
105 2 51.3203 4.32183 -1.80247 51.3203 4.32183 -1.80247
106 1 52.4135 5.96712 -0.18858 52.4135 5.96712 -0.18858
107 2 54.5213 5.96616 1.42419 54.5213 5.96616 1.42419
108 2 54.5234 5.96781 -1.79884 54.5234 5.96781 -1.79884
109 1 -2.06023 7.61354 -0.185763 -2.06023 7.61354 -0.185763
110 2 0.0484786 7.61372 1.4259 0.0484786 7.61372 1.4259
111 2 0.0488066 7.61311 -1.79714 0.0488066 7.61311 -1.79714
112 1 1.14356 9.25995 -0.185833 1.14356 9.25995 -0.185833
113 2 3.25385 9.26178 1.4238 3.25385 9.26178 1.4238
114 2 3.25102 9.25789 -1.79922 3.25102 9.25789 -1.79922
115 1 4.34851 7.61359 -0.186785 4.34851 7.61359 -0.186785
116 2 6.45902 7.61758 1.42264 6.45902 7.61758 1.42264
117 2 6.45579 7.60927 -1.80037 6.45579 7.60927 -1.80037
118 1 7.55233 9.25994 -0.194214 7.55233 9.25994 -0.194214
119 2 9.66456 9.26498 1.41286 9.66456 9.26498 1.41286
120 2 9.65773 9.25455 -1.81014 9.65773 9.25455 -1.81014
121 1 10.7571 7.61352 -0.195662 10.7571 7.61352 -0.195662
122 2 12.8686 7.61975 1.41222 12.8686 7.61975 1.41222
123 2 12.8631 7.60685 -1.8108 12.8631 7.60685 -1.8108
124 1 13.9607 9.25977 -0.207689 13.9607 9.25977 -0.207689
125 2 16.0707 9.26476 1.40187 16.0707 9.26476 1.40187
126 2 16.0678 9.25429 -1.82117 16.0678 9.25429 -1.82117
127 1 17.1652 7.61333 -0.205206 17.1652 7.61333 -0.205206
128 2 19.2732 7.61774 1.40703 19.2732 7.61774 1.40703
129 2 19.2744 7.60839 -1.81603 19.2744 7.60839 -1.81603
130 1 20.3686 9.25946 -0.208755 20.3686 9.25946 -0.208755
131 2 22.473 9.26091 1.40807 22.473 9.26091 1.40807
132 2 22.4814 9.25747 -1.815 22.4814 9.25747 -1.815
133 1 23.5732 7.6131 -0.198823 23.5732 7.6131 -0.198823
134 2 25.6774 7.61238 1.41829 25.6774 7.61238 1.41829
135 2 25.6861 7.6133 -1.80478 25.6861 7.6133 -1.80478
136 1 26.7767 9.25919 -0.189861 26.7767 9.25919 -0.189861
137 2 28.8794 9.25511 1.42939 28.8794 9.25511 1.42939
138 2 28.8913 9.26282 -1.79366 28.8913 9.26282 -1.79366
139 1 29.9815 7.61293 -0.182063 29.9815 7.61293 -0.182063
140 2 32.0866 7.60706 1.43404 32.0866 7.60706 1.43404
141 2 32.0937 7.61836 -1.789 32.0937 7.61836 -1.789
142 1 33.185 9.25908 -0.169441 33.185 9.25908 -0.169441
143 2 35.2913 9.25062 1.44538 35.2913 9.25062 1.44538
144 2 35.2963 9.26725 -1.77764 35.2963 9.26725 -1.77764
145 1 36.39 7.61292 -0.172995 36.39 7.61292 -0.172995
146 2 38.4989 7.60431 1.43846 38.4989 7.60431 1.43846
147 2 38.4988 7.62126 -1.78455 38.4988 7.62126 -1.78455
148 1 39.5937 9.25924 -0.164501 39.5937 9.25924 -0.164501
149 2 41.7039 9.24971 1.44526 41.7039 9.24971 1.44526
150 2 41.7013 9.26865 -1.77772 41.7013 9.26865 -1.77772
151 1 42.7989 7.61314 -0.176854 42.7989 7.61314 -0.176854
152 2 44.9095 7.60548 1.4325 44.9095 7.60548 1.4325
153 2 44.9064 7.62061 -1.79049 44.9064 7.62061 -1.79049
154 1 46.0029 9.25956 -0.172328 46.0029 9.25956 -0.172328
155 2 48.114 9.2526 1.43636 48.114 9.2526 1.43636
156 2 48.1098 9.26635 -1.78664 48.1098 9.26635 -1.78664
157 1 49.2082 7.61338 -0.183618 49.2082 7.61338 -0.183618
158 2 51.3177 7.6094 1.42721 51.3177 7.6094 1.42721
159 2 51.3168 7.61713 -1.79581 51.3168 7.61713 -1.79581
160 1 52.4121 9.25979 -0.180622 52.4121 9.25979 -0.180622
161 2 54.5224 9.25727 1.42916 54.5224 9.25727 1.42916
162 2 54.5198 9.26216 -1.79387 54.5198 9.26216 -1.79387
163 1 -2.06139 10.9062 -0.180689 -2.06139 10.9062 -0.180689
164 2 0.049759 10.9056 1.42787 0.049759 10.9056 1.42787
165 2 0.0452989 10.9068 -1.79516 0.0452989 10.9068 -1.79516
166 1 1.14266 12.5526 -0.184539 1.14266 12.5526 -0.184539
167 2 3.2555 12.5543 1.42184 3.2555 12.5543 1.42184
168 2 3.24763 12.5509 -1.80116 3.24763 12.5509 -1.80116
169 1 4.34748 10.9063 -0.190663 4.34748 10.9063 -0.190663
170 2 6.46 10.9098 1.41616 6.46 10.9098 1.41616
171 2 6.45278 10.9027 -1.80685 6.45278 10.9027 -1.80685
172 1 7.55153 12.5527 -0.201416 7.55153 12.5527 -0.201416
173 2 9.66506 12.557 1.40397 9.66506 12.557 1.40397
174 2 9.65564 12.5482 -1.81903 9.65564 12.5482 -1.81903
175 1 10.7561 10.9062 -0.206224 10.7561 10.9062 -0.206224
176 2 12.8682 10.9111 1.40091 12.8682 10.9111 1.40091
177 2 12.8615 10.901 -1.82211 12.8615 10.901 -1.82211
178 1 13.9599 12.5525 -0.217868 13.9599 12.5525 -0.217868
179 2 16.0693 12.5558 1.39246 16.0693 12.5558 1.39246
180 2 16.0676 12.5486 -1.83059 16.0676 12.5486 -1.83059
181 1 17.1642 10.9059 -0.215844 17.1642 10.9059 -0.215844
182 2 19.2707 10.9086 1.39823 19.2707 10.9086 1.39823
183 2 19.2748 10.9027 -1.82482 19.2748 10.9027 -1.82482
184 1 20.3678 12.552 -0.214804 20.3678 12.552 -0.214804
185 2 22.4702 12.5521 1.40454 22.4702 12.5521 1.40454
186 2 22.4825 12.5513 -1.81851 22.4825 12.5513 -1.81851
187 1 23.5721 10.9055 -0.202338 23.5721 10.9055 -0.202338
188 2 25.6735 10.9038 1.41834 25.6735 10.9038 1.41834
189 2 25.6878 10.9068 -1.8047 25.6878 10.9068 -1.8047
190 1 26.7757 12.5516 -0.186857 26.7757 12.5516 -0.186857
191 2 28.8758 12.5473 1.43575 28.8758 12.5473 1.43575
192 2 28.8929 12.5556 -1.78727 28.8929 12.5556 -1.78727
193 1 29.9802 10.9053 -0.17425 29.9802 10.9053 -0.17425
194 2 32.083 10.8985 1.44492 32.083 10.8985 1.44492
195 2 32.0947 10.9117 -1.77809 32.0947 10.9117 -1.77809
196 1 33.1839 12.5515 -0.156009 33.1839 12.5515 -0.156009
197 2 35.2883 12.543 1.4612 35.2883 12.543 1.4612
198 2 35.2969 12.5598 -1.7618 35.2969 12.5598 -1.7618
199 1 36.3887 10.9053 -0.156064 36.3887 10.9053 -0.156064
200 2 38.4967 10.8955 1.45654 38.4967 10.8955 1.45654
201 2 38.4983 10.9151 -1.76646 38.4983 10.9151 -1.76646
202 1 39.5925 12.5517 -0.14456 39.5925 12.5517 -0.14456
203 2 41.703 12.5422 1.4649 41.703 12.5422 1.4649
204 2 41.6997 12.5613 -1.75807 41.6997 12.5613 -1.75807
205 1 42.7976 10.9057 -0.157513 42.7976 10.9057 -0.157513
206 2 44.9095 10.8967 1.45028 44.9095 10.8967 1.45028
207 2 44.9037 10.9146 -1.7727 44.9037 10.9146 -1.7727
208 1 46.0017 12.5521 -0.154015 46.0017 12.5521 -0.154015
209 2 48.1149 12.5449 1.45211 48.1149 12.5449 1.45211
210 2 48.1066 12.5592 -1.77088 48.1066 12.5592 -1.77088
211 1 49.2069 10.906 -0.169531 49.2069 10.906 -0.169531
212 2 51.3189 10.9008 1.43813 51.3189 10.9008 1.43813
213 2 51.3131 10.911 -1.78488 51.3131 10.911 -1.78488
214 1 52.4111 12.5524 -0.170085 52.4111 12.5524 -0.170085
215 2 54.5239 12.5495 1.43644 54.5239 12.5495 1.43644
216 2 54.5162 12.5553 -1.78658 54.5162 12.5553 -1.78658
217 1 -2.06217 14.1988 -0.174624 -2.06217 14.1988 -0.174624
218 2 0.0516228 14.1986 1.43059 0.0516228 14.1986 1.43059
219 2 0.0419638 14.1992 -1.79243 0.0419638 14.1992 -1.79243
220 1 1.1422 15.8453 -0.183886 1.1422 15.8453 -0.183886
221 2 3.2574 15.8475 1.41948 3.2574 15.8475 1.41948
222 2 3.24491 15.8431 -1.80351 3.24491 15.8431 -1.80351
223 1 4.34686 14.199 -0.194064 4.34686 14.199 -0.194064
224 2 6.46134 14.2026 1.41024 6.46134 14.2026 1.41024
225 2 6.45025 14.1955 -1.81275 6.45025 14.1955 -1.81275
226 1 7.55121 15.8454 -0.208567 7.55121 15.8454 -0.208567
227 2 9.66543 15.8493 1.39592 9.66543 15.8493 1.39592
228 2 9.65469 15.8414 -1.82708 9.65469 15.8414 -1.82708
229 1 10.7556 14.199 -0.215107 10.7556 14.199 -0.215107
230 2 12.8678 14.2028 1.39185 12.8678 14.2028 1.39185
231 2 12.8608 14.1949 -1.83117 12.8608 14.1949 -1.83117
232 1 13.9596 15.8452 -0.225899 13.9596 15.8452 -0.225899
233 2 16.0679 15.8471 1.38585 16.0679 15.8471 1.38585
234 2 16.0685 15.8428 -1.8372 16.0685 15.8428 -1.8372
235 1 17.1636 14.1986 -0.223153 17.1636 14.1986 -0.223153
236 2 19.2687 14.1998 1.39272 19.2687 14.1998 1.39272
237 2 19.2757 14.1968 -1.83032 19.2757 14.1968 -1.83032
238 1 20.3675 15.8446 -0.217843 20.3675 15.8446 -0.217843
239 2 22.4682 15.8436 1.40369 22.4682 15.8436 1.40369
240 2 22.4839 15.8451 -1.81934 22.4839 15.8451 -1.81934
241 1 23.5715 14.198 -0.203192 23.5715 14.198 -0.203192
242 2 25.6707 14.1959 1.4203 25.6707 14.1959 1.4203
243 2 25.6893 14.1998 -1.8027 25.6893 14.1998 -1.8027
244 1 26.7753 15.8441 -0.182939 26.7753 15.8441 -0.182939
245 2 28.8732 15.8402 1.44236 28.8732 15.8402 1.44236
246 2 28.8945 15.8478 -1.78063 28.8945 15.8478 -1.78063
247 1 29.9794 14.1978 -0.165824 29.9794 14.1978 -0.165824
248 2 32.08 14.1916 1.45625 32.08 14.1916 1.45625
249 2 32.0961 14.2037 -1.76675 32.0961 14.2037 -1.76675
250 1 33.1832 15.844 -0.143783 33.1832 15.844 -0.143783
251 2 35.2859 15.837 1.47574 35.2859 15.837 1.47574
252 2 35.2979 15.8511 -1.74726 35.2979 15.8511 -1.74726
253 1 36.3877 14.1978 -0.138959 36.3877 14.1978 -0.138959
254 2 38.4948 14.189 1.4749 38.4948 14.189 1.4749
255 2 38.4981 14.2066 -1.74811 38.4981 14.2066 -1.74811
256 1 39.5917 15.8442 -0.126631 39.5917 15.8442 -0.126631
257 2 41.7023 15.8364 1.48278 41.7023 15.8364 1.48278
258 2 41.6988 15.8522 -1.74021 41.6988 15.8522 -1.74021
259 1 42.7965 14.1982 -0.138036 42.7965 14.1982 -0.138036
260 2 44.9095 14.1902 1.46839 44.9095 14.1902 1.46839
261 2 44.9015 14.2062 -1.75459 44.9015 14.2062 -1.75459
262 1 46.0009 15.8446 -0.137657 46.0009 15.8446 -0.137657
263 2 48.1157 15.8387 1.46654 48.1157 15.8387 1.46654
264 2 48.1043 15.8506 -1.75644 48.1043 15.8506 -1.75644
265 1 49.206 14.1985 -0.15487 49.206 14.1985 -0.15487
266 2 51.3203 14.1938 1.44984 51.3203 14.1938 1.44984
267 2 51.3098 14.2033 -1.77316 51.3098 14.2033 -1.77316
268 1 52.4104 15.8449 -0.160322 52.4104 15.8449 -0.160322
269 2 54.5255 15.8428 1.4433 54.5255 15.8428 1.4433
270 2 54.5134 15.8473 -1.77971 54.5134 15.8473 -1.77971
271 1 -2.06246 17.4913 -0.170013 -2.06246 17.4913 -0.170013
272 2 0.0536373 17.4917 1.43224 0.0536373 17.4917 1.43224
273 2 0.0394678 17.4913 -1.79076 0.0394678 17.4913 -1.79076
274 1 1.14226 19.1378 -0.18428 1.14226 19.1378 -0.18428
275 2 3.25923 19.1397 1.41677 3.25923 19.1397 1.41677
276 2 3.24329 19.1363 -1.80621 3.24329 19.1363 -1.80621
277 1 4.34674 17.4917 -0.198453 4.34674 17.4917 -0.198453
278 2 6.46252 17.4951 1.40414 6.46252 17.4951 1.40414
279 2 6.44891 17.4885 -1.81884 6.44891 17.4885 -1.81884
280 1 7.55143 19.1381 -0.21526 7.55143 19.1381 -0.21526
281 2 9.66557 19.1406 1.38928 9.66557 19.1406 1.38928
282 2 9.65508 19.1357 -1.83373 9.65508 19.1357 -1.83373
283 1 10.7556 17.4917 -0.223167 10.7556 17.4917 -0.223167
284 2 12.8671 17.4942 1.38465 12.8671 17.4942 1.38465
285 2 12.8616 17.489 -1.83839 12.8616 17.489 -1.83839
286 1 13.96 19.1379 -0.231282 13.96 19.1379 -0.231282
287 2 16.0666 19.1376 1.38261 16.0666 19.1376 1.38261
288 2 16.0706 19.1378 -1.84044 16.0706 19.1378 -1.84044
289 1 17.1637 17.4912 -0.227526 17.1637 17.4912 -0.227526
290 2 19.2672 17.4907 1.39042 19.2672 17.4907 1.39042
291 2 19.2773 17.4913 -1.83262 19.2773 17.4913 -1.83262
292 1 20.3679 19.1372 -0.217238 20.3679 19.1372 -0.217238
293 2 22.4671 19.1344 1.40614 22.4671 19.1344 1.40614
294 2 22.4856 19.1397 -1.81688 22.4856 19.1397 -1.81688
295 1 23.5715 17.4906 -0.2017 23.5715 17.4906 -0.2017
296 2 25.669 17.4878 1.42386 25.669 17.4878 1.42386
297 2 25.6908 17.4931 -1.79912 25.6908 17.4931 -1.79912
298 1 26.7754 19.1367 -0.177542 26.7754 19.1367 -0.177542
299 2 28.872 19.1326 1.44941 28.872 19.1326 1.44941
300 2 28.8959 19.1407 -1.77356 28.8959 19.1407 -1.77356
301 1 29.9792 17.4903 -0.158172 29.9792 17.4903 -0.158172
302 2 32.0778 17.4853 1.46624 32.0778 17.4853 1.46624
303 2 32.0976 17.4953 -1.75674 32.0976 17.4953 -1.75674
304 1 33.1832 19.1366 -0.133561 33.1832 19.1366 -0.133561
305 2 35.2844 19.1312 1.48763 35.2844 19.1312 1.48763
306 2 35.2991 19.1422 -1.73537 35.2991 19.1422 -1.73537
307 1 36.3872 17.4904 -0.124662 36.3872 17.4904 -0.124662
308 2 38.4935 17.4836 1.49032 38.4935 17.4836 1.49032
309 2 38.4985 17.4973 -1.7327 38.4985 17.4973 -1.7327
310 1 39.5915 19.1368 -0.112642 39.5915 19.1368 -0.112642
311 2 41.7019 19.1307 1.49705 41.7019 19.1307 1.49705
312 2 41.6987 19.1432 -1.72596 41.6987 19.1432 -1.72596
313 1 42.796 17.4907 -0.121951 42.796 17.4907 -0.121951
314 2 44.9097 17.4843 1.48366 44.9097 17.4843 1.48366
315 2 44.9004 17.4973 -1.73933 44.9004 17.4973 -1.73933
316 1 46.0007 19.1371 -0.124395 46.0007 19.1371 -0.124395
317 2 48.1166 19.1323 1.47836 48.1166 19.1323 1.47836
318 2 48.103 19.1421 -1.74462 48.103 19.1421 -1.74462
319 1 49.2055 17.491 -0.14273 49.2055 17.491 -0.14273
320 2 51.3216 17.4873 1.45974 51.3216 17.4873 1.45974
321 2 51.3077 17.4948 -1.76326 51.3077 17.4948 -1.76326
322 1 52.4103 19.1374 -0.152635 52.4103 19.1374 -0.152635
323 2 54.5272 19.1358 1.44865 54.5272 19.1358 1.44865
324 2 54.5116 19.1393 -1.77435 54.5116 19.1393 -1.77435
325 1 -2.06221 20.7838 -0.166332 -2.06221 20.7838 -0.166332
326 2 0.0556222 20.7836 1.43366 0.0556222 20.7836 1.43366
327 2 0.0380552 20.7845 -1.78932 0.0380552 20.7845 -1.78932
328 1 1.14282 22.4303 -0.183333 1.14282 22.4303 -0.183333
329 2 3.26085 22.4301 1.41634 3.26085 22.4301 1.41634
330 2 3.24287 22.4311 -1.80663 3.24287 22.4311 -1.80663
331 1 4.34713 20.7843 -0.201778 4.34713 20.7843 -0.201778
332 2 6.46358 20.7857 1.39993 6.46358 20.7857 1.39993
333 2 6.44874 20.7832 -1.82306 6.44874 20.7832 -1.82306
334 1 7.55214 22.4307 -0.21779 7.55214 22.4307 -0.21779
335 2 9.66579 22.4299 1.38738 9.66579 22.4299 1.38738
336 2 9.65639 22.4318 -1.83564 9.65639 22.4318 -1.83564
337 1 10.7561 20.7844 -0.228193 10.7561 20.7844 -0.228193
338 2 12.8663 20.7841 1.38128 12.8663 20.7841 1.38128
339 2 12.8635 20.7846 -1.84177 12.8635 20.7846 -1.84177
340 1 13.9608 22.4305 -0.230824 13.9608 22.4305 -0.230824
341 2 16.0658 22.427 1.38513 16.0658 22.427 1.38513
342 2 16.0731 22.4339 -1.83791 16.0731 22.4339 -1.83791
343 1 17.1643 20.7839 -0.227334 17.1643 20.7839 -0.227334
344 2 19.2661 20.7807 1.39271 19.2661 20.7807 1.39271
345 2 19.2796 20.7868 -1.83031 19.2796 20.7868 -1.83031
346 1 20.3687 22.4299 -0.211046 20.3687 22.4299 -0.211046
347 2 22.4669 22.4243 1.41365 22.4669 22.4243 1.41365
348 2 22.4875 22.4352 -1.80933 22.4875 22.4352 -1.80933
349 1 23.572 20.7832 -0.196363 23.572 20.7832 -0.196363
350 2 25.6685 20.7787 1.43041 25.6685 20.7787 1.43041
351 2 25.6922 20.7876 -1.79255 25.6922 20.7876 -1.79255
352 1 26.7762 22.4294 -0.168539 26.7762 22.4294 -0.168539
353 2 28.8725 22.4243 1.45861 28.8725 22.4243 1.45861
354 2 28.8967 22.4345 -1.76435 28.8967 22.4345 -1.76435
355 1 29.9795 20.7829 -0.149933 29.9795 20.7829 -0.149933
356 2 32.0772 20.7783 1.47559 32.0772 20.7783 1.47559
357 2 32.0987 20.7877 -1.74738 32.0987 20.7877 -1.74738
358 1 33.1837 22.4293 -0.123895 33.1837 22.4293 -0.123895
359 2 35.2847 22.425 1.4976 35.2847 22.425 1.4976
360 2 35.2998 22.4338 -1.72541 35.2998 22.4338 -1.72541
361 1 36.3874 20.783 -0.113442 36.3874 20.783 -0.113442
362 2 38.493 20.7779 1.5023 38.493 20.7779 1.5023
363 2 38.4992 20.7884 -1.72073 38.4992 20.7884 -1.72073
364 1 39.5919 22.4294 -0.10192 39.5919 22.4294 -0.10192
365 2 41.702 22.4248 1.50808 41.702 22.4248 1.50808
366 2 41.6994 22.4343 -1.71493 41.6994 22.4343 -1.71493
367 1 42.7961 20.7832 -0.109278 42.7961 20.7832 -0.109278
368 2 44.91 20.778 1.49595 44.91 20.778 1.49595
369 2 44.9002 20.7887 -1.72704 44.9002 20.7887 -1.72704
370 1 46.0011 22.4295 -0.113553 46.0011 22.4295 -0.113553
371 2 48.1178 22.4255 1.48819 48.1178 22.4255 1.48819
372 2 48.1026 22.4339 -1.73478 48.1026 22.4339 -1.73478
373 1 49.2057 20.7834 -0.132782 49.2057 20.7834 -0.132782
374 2 51.3231 20.7802 1.46794 51.3231 20.7802 1.46794
375 2 51.3065 20.787 -1.75504 51.3065 20.787 -1.75504
376 1 52.4108 22.4298 -0.145736 52.4108 22.4298 -0.145736
377 2 54.5291 22.4279 1.45369 54.5291 22.4279 1.45369
378 2 54.5107 22.4322 -1.76929 54.5107 22.4322 -1.76929
379 1 -2.06147 24.0762 -0.161838 -2.06147 24.0762 -0.161838
380 2 0.0572882 24.0744 1.43694 0.0572882 24.0744 1.43694
381 2 0.0379137 24.0787 -1.78603 0.0379137 24.0787 -1.78603
382 1 1.14379 25.7227 -0.178924 1.14379 25.7227 -0.178924
383 2 3.26184 25.7193 1.42072 3.26184 25.7193 1.42072
384 2 3.24388 25.7268 -1.80225 3.24388 25.7268 -1.80225
385 1 4.34798 24.0768 -0.200651 4.34798 24.0768 -0.200651
386 2 6.46439 24.0746 1.4011 6.46439 24.0746 1.4011
387 2 6.44971 24.0795 -1.8219 6.44971 24.0795 -1.8219
388 1 7.55324 25.7232 -0.212803 7.55324 25.7232 -0.212803
389 2 9.66605 25.7179 1.39349 9.66605 25.7179 1.39349
390 2 9.65843 25.729 -1.82952 9.65843 25.729 -1.82952
391 1 10.7571 24.077 -0.226186 10.7571 24.077 -0.226186
392 2 12.866 24.0728 1.38496 12.866 24.0728 1.38496
393 2 12.8659 24.0813 -1.83809 12.8659 24.0813 -1.83809
394 1 13.9621 25.7232 -0.222118 13.9621 25.7232 -0.222118
395 2 16.0659 25.7157 1.39539 16.0659 25.7157 1.39539
396 2 16.0756 25.7306 -1.82763 16.0756 25.7306 -1.82763
397 1 17.1654 24.0766 -0.220313 17.1654 24.0766 -0.220313
398 2 19.266 24.0702 1.40138 19.266 24.0702 1.40138
399 2 19.282 24.0828 -1.82162 19.282 24.0828 -1.82162
400 1 20.37 25.7226 -0.198175 20.37 25.7226 -0.198175
401 2 22.4678 25.7146 1.42702 22.4678 25.7146 1.42702
402 2 22.4891 25.7304 -1.79596 22.4891 25.7304 -1.79596
403 1 23.573 24.0759 -0.18529 23.573 24.0759 -0.18529
404 2 25.6696 24.0695 1.44148 25.6696 24.0695 1.44148
405 2 25.6932 24.0823 -1.78147 25.6932 24.0823 -1.78147
406 1 26.7773 25.7221 -0.155455 26.7773 25.7221 -0.155455
407 2 28.8747 25.7165 1.47036 28.8747 25.7165 1.47036
408 2 28.8967 25.7278 -1.75262 28.8967 25.7278 -1.75262
409 1 29.9804 24.0756 -0.139557 29.9804 24.0756 -0.139557
410 2 32.0785 24.0713 1.48535 32.0785 24.0713 1.48535
411 2 32.0991 24.0802 -1.73763 32.0991 24.0802 -1.73763
412 1 33.1847 25.722 -0.114683 33.1847 25.722 -0.114683
413 2 35.2864 25.7191 1.50584 35.2864 25.7191 1.50584
414 2 35.3001 25.7253 -1.71718 35.3001 25.7253 -1.71718
415 1 36.3881 24.0757 -0.104417 36.3881 24.0757 -0.104417
416 2 38.4936 24.0722 1.5114 38.4936 24.0722 1.5114
417 2 38.5 24.0796 -1.71163 38.5 24.0796 -1.71163
418 1 39.5928 25.722 -0.0943254 39.5928 25.722 -0.0943254
419 2 41.7028 25.7192 1.51591 41.7028 25.7192 1.51591
420 2 41.7005 25.7252 -1.70711 41.7005 25.7252 -1.70711
421 1 42.7967 24.0758 -0.0996172 42.7967 24.0758 -0.0996172
422 2 44.9108 24.0718 1.50555 44.9108 24.0718 1.50555
423 2 44.9008 24.0799 -1.71745 44.9008 24.0799 -1.71745
424 1 46.002 25.722 -0.105303 46.002 25.722 -0.105303
425 2 48.1189 25.7186 1.49627 48.1189 25.7186 1.49627
426 2 48.1035 25.7257 -1.72671 48.1035 25.7257 -1.72671
427 1 49.2064 24.0758 -0.12416 49.2064 24.0758 -0.12416
428 2 51.3247 24.0727 1.47545 51.3247 24.0727 1.47545
429 2 51.3064 24.0794 -1.74752 51.3064 24.0794 -1.74752
430 1 52.4117 25.7221 -0.138794 52.4117 25.7221 -0.138794
431 2 54.5308 25.7192 1.45971 54.5308 25.7192 1.45971
432 2 54.5109 25.7257 -1.76326 54.5109 25.7257 -1.76326
433 1 -2.06036 27.3685 -0.155226 -2.06036 27.3685 -0.155226
434 2 0.0584549 27.3647 1.4435 0.0584549 27.3647 1.4435
435 2 0.0389756 27.3732 -1.77947 0.0389756 27.3732 -1.77947
436 1 1.14502 29.015 -0.170231 1.14502 29.015 -0.170231
437 2 3.26228 29.0091 1.43049 3.26228 29.0091 1.43049
438 2 3.2459 29.0218 -1.79248 3.2459 29.0218 -1.79248
439 1 4.34914 27.3692 -0.19298 4.34914 27.3692 -0.19298
440 2 6.46484 27.363 1.40976 6.46484 27.363 1.40976
441 2 6.45167 27.3761 -1.81323 6.45167 27.3761 -1.81323
442 1 7.55455 29.0156 -0.1994 7.55455 29.0156 -0.1994
443 2 9.66643 29.0065 1.40822 9.66643 29.0065 1.40822
444 2 9.66075 29.0254 -1.81477 9.66075 29.0254 -1.81477
445 1 10.7585 27.3695 -0.21475 10.7585 27.3695 -0.21475
446 2 12.8665 27.361 1.39759 12.8665 27.361 1.39759
447 2 12.8682 27.3784 -1.82544 12.8682 27.3784 -1.82544
448 1 13.9635 29.0157 -0.204317 13.9635 29.0157 -0.204317
449 2 16.067 29.005 1.41368 16.067 29.005 1.41368
450 2 16.0774 29.0264 -1.80931 16.0774 29.0264 -1.80931
451 1 17.1669 27.3692 -0.205164 17.1669 27.3692 -0.205164
452 2 19.267 27.3599 1.41707 19.267 27.3599 1.41707
453 2 19.2838 27.3785 -1.80591 19.2838 27.3785 -1.80591
454 1 20.3715 29.0152 -0.179139 20.3715 29.0152 -0.179139
455 2 22.4703 29.0065 1.44478 22.4703 29.0065 1.44478
456 2 22.4895 29.024 -1.77821 22.4895 29.024 -1.77821
457 1 23.5744 27.3686 -0.169174 23.5744 27.3686 -0.169174
458 2 25.672 27.3614 1.45627 25.672 27.3614 1.45627
459 2 25.6935 27.376 -1.7667 25.6935 27.376 -1.7667
460 1 26.7788 29.0148 -0.140455 26.7788 29.0148 -0.140455
461 2 28.8785 29.0104 1.48249 28.8785 29.0104 1.48249
462 2 28.8958 29.0195 -1.74053 28.8958 29.0195 -1.74053
463 1 29.9817 27.3684 -0.1279 29.9817 27.3684 -0.1279
464 2 32.0816 27.3651 1.49473 32.0816 27.3651 1.49473
465 2 32.0985 27.372 -1.72828 32.0985 27.372 -1.72828
466 1 33.1861 29.0148 -0.107539 33.1861 29.0148 -0.107539
467 2 35.2894 29.0143 1.51092 35.2894 29.0143 1.51092
468 2 35.2998 29.0156 -1.71212 35.2998 29.0156 -1.71212
469 1 36.3893 27.3684 -0.097937 36.3893 27.3684 -0.097937
470 2 38.4953 27.3669 1.51728 38.4953 27.3669 1.51728
471 2 38.5007 27.3703 -1.70576 38.5007 27.3703 -1.70576
472 1 39.5942 29.0147 -0.0907571 39.5942 29.0147 -0.0907571
473 2 41.704 29.0142 1.51961 41.704 29.0142 1.51961
474 2 41.702 29.0154 -1.70341 41.702 29.0154 -1.70341
475 1 42.7979 27.3683 -0.093379 42.7979 27.3683 -0.093379
476 2 44.9116 27.3658 1.51219 44.9116 27.3658 1.51219
477 2 44.9023 27.3711 -1.71081 44.9023 27.3711 -1.71081
478 1 46.0033 29.0145 -0.0998807 46.0033 29.0145 -0.0998807
479 2 48.1199 29.0124 1.50207 48.1199 29.0124 1.50207
480 2 48.105 29.0169 -1.72091 48.105 29.0169 -1.72091
481 1 49.2075 27.3682 -0.116843 49.2075 27.3682 -0.116843
482 2 51.326 27.3652 1.48248 51.326 27.3652 1.48248
483 2 51.3073 27.3718 -1.74049 51.3073 27.3718 -1.74049
484 1 52.413 29.0145 -0.131989 52.413 29.0145 -0.131989
485 2 54.5319 29.0112 1.46671 54.5319 29.0112 1.46671
486 2 54.5122 29.0185 -1.75626 54.5122 29.0185 -1.75626
487 1 -2.05906 30.6609 -0.147643 -2.05906 30.6609 -0.147643
488 2 0.0589295 30.6565 1.45221 0.0589295 30.6565 1.45221
489 2 0.0410602 30.6661 -1.77077 0.0410602 30.6661 -1.77077
490 1 1.14629 32.3074 -0.160332 1.14629 32.3074 -0.160332
491 2 3.26194 32.3012 1.44258 3.26194 32.3012 1.44258
492 2 3.24877 32.3144 -1.78041 3.24877 32.3144 -1.78041
493 1 4.35043 30.6616 -0.179989 4.35043 30.6616 -0.179989
494 2 6.4648 30.6531 1.42458 6.4648 30.6531 1.42458
495 2 6.45432 30.6708 -1.7984 6.45432 30.6708 -1.7984
496 1 7.55584 32.308 -0.181307 7.55584 32.308 -0.181307
497 2 9.66654 32.2976 1.42801 9.66654 32.2976 1.42801
498 2 9.66326 32.319 -1.79499 9.66326 32.319 -1.79499
499 1 10.7598 30.662 -0.195371 10.7598 30.662 -0.195371
500 2 12.8673 30.6507 1.41781 12.8673 30.6507 1.41781
501 2 12.8701 30.6736 -1.80519 12.8701 30.6736 -1.80519
502 1 13.9649 32.3081 -0.180887 13.9649 32.3081 -0.180887
503 2 16.069 32.2971 1.43645 16.069 32.2971 1.43645
504 2 16.0781 32.3193 -1.78655 16.0781 32.3193 -1.78655
505 1 17.1683 30.6617 -0.183258 17.1683 30.6617 -0.183258
506 2 19.2695 30.6515 1.43777 19.2695 30.6515 1.43777
507 2 19.2843 30.672 -1.78522 19.2843 30.672 -1.78522
508 1 20.3729 32.3078 -0.158194 20.3729 32.3078 -0.158194
509 2 22.4743 32.3009 1.46265 22.4743 32.3009 1.46265
510 2 22.4885 32.3149 -1.76039 22.4885 32.3149 -1.76039
511 1 23.5759 30.6613 -0.151223 23.5759 30.6613 -0.151223
512 2 25.6759 30.6557 1.47129 25.6759 30.6557 1.47129
513 2 25.6926 30.6671 -1.75173 25.6926 30.6671 -1.75173
514 1 26.7802 32.3076 -0.128634 26.7802 32.3076 -0.128634
515 2 28.883 32.3068 1.49038 28.883 32.3068 1.49038
516 2 28.8942 32.3087 -1.73269 28.8942 32.3087 -1.73269
517 1 29.9831 30.6611 -0.118417 29.9831 30.6611 -0.118417
518 2 32.0858 30.6607 1.5008 32.0858 30.6607 1.5008
519 2 32.0973 30.662 -1.72224 32.0973 30.662 -1.72224
520 1 33.1876 32.3075 -0.106142 33.1876 32.3075 -0.106142
521 2 35.2929 32.3109 1.50978 35.2929 32.3109 1.50978
522 2 35.2993 32.3045 -1.71327 35.2993 32.3045 -1.71327
523 1 36.3908 30.6611 -0.0963822 36.3908 30.6611 -0.0963822
524 2 38.4975 30.6629 1.51791 38.4975 30.6629 1.51791
525 2 38.5014 30.6597 -1.70513 38.5014 30.6597 -1.70513
526 1 39.5957 32.3074 -0.0939431 39.5957 32.3074 -0.0939431
527 2 41.7054 32.3109 1.51666 41.7054 32.3109 1.51666
528 2 41.7036 32.304 -1.70636 41.7036 32.304 -1.70636
529 1 42.7994 30.6609 -0.0920485 42.7994 30.6609 -0.0920485
530 2 44.9125 30.6612 1.51428 44.9125 30.6612 1.51428
531 2 44.9042 30.6607 -1.70872 44.9042 30.6607 -1.70872
532 1 46.0048 32.307 -0.100349 46.0048 32.307 -0.100349
533 2 48.1205 32.3082 1.50274 48.1205 32.3082 1.50274
534 2 48.1073 32.3061 -1.72024 48.1073 32.3061 -1.72024
535 1 49.2089 30.6607 -0.112227 49.2089 30.6607 -0.112227
536 2 51.3271 30.6589 1.48765 51.3271 30.6589 1.48765
537 2 51.309 30.6629 -1.73532 51.309 30.6629 -1.73532