ITEM: TIMESTEP
1189000
ITEM: NUMBER OF ATOMS
810
ITEM: BOX BOUNDS pp pp pp
-2.1863033847560027e+00 5.5203908384755067e+01
8.1394622342039402e-01 5.0202268776579182e+01
-1.0000000000000000e+01 1.0000000000000000e+01
ITEM: ATOMS id type x y z xu yu zu
1 1 -1.92001 1.02867 -0.13161 -1.92001 1.02867 -0.13161
2 2 0.176454 1.03698 1.48225 0.176454 1.03698 1.48225
3 2 0.178714 1.02052 -1.74196 0.178714 1.02052 -1.74196
4 1 1.268 2.67497 -0.137465 1.268 2.67497 -0.137465
5 2 3.36497 2.68471 1.47598 3.36497 2.68471 1.47598
6 2 3.3667 2.6653 -1.74819 3.3667 2.6653 -1.74819
7 1 4.45587 1.02868 -0.125538 4.45587 1.02868 -0.125538
8 2 6.55495 1.03372 1.48551 6.55495 1.03372 1.48551
9 2 6.55291 1.02365 -1.73869 6.55291 1.02365 -1.73869
10 1 7.64453 2.67486 -0.132413 7.64453 2.67486 -0.132413
11 2 9.74323 2.68013 1.47922 9.74323 2.68013 1.47922
12 2 9.7422 2.66954 -1.74497 9.7422 2.66954 -1.74497
13 1 10.8329 1.02852 -0.12775 10.8329 1.02852 -0.12775
14 2 12.9334 1.02984 1.48154 12.9334 1.02984 1.48154
15 2 12.9288 1.02707 -1.74265 12.9288 1.02707 -1.74265
16 1 14.0218 2.6746 -0.133537 14.0218 2.6746 -0.133537
17 2 16.1221 2.67631 1.4762 16.1221 2.67631 1.4762
18 2 16.1183 2.67276 -1.748 16.1183 2.67276 -1.748
19 1 17.2104 1.0282 -0.135359 17.2104 1.0282 -0.135359
20 2 19.3118 1.02807 1.47304 19.3118 1.02807 1.47304
21 2 19.3059 1.02821 -1.75113 19.3059 1.02821 -1.75113
22 1 20.3997 2.67427 -0.140959 20.3997 2.67427 -0.140959
23 2 22.5012 2.67501 1.46733 22.5012 2.67501 1.46733
24 2 22.4952 2.67349 -1.75685 22.4952 2.67349 -1.75685
25 1 23.5883 1.0279 -0.145981 23.5883 1.0279 -0.145981
26 2 25.6895 1.02928 1.46263 25.6895 1.02928 1.46263
27 2 25.6841 1.02657 -1.76156 25.6841 1.02657 -1.76156
28 1 26.7776 2.67407 -0.152661 26.7776 2.67407 -0.152661
29 2 28.879 2.67693 1.45543 28.879 2.67693 1.45543
30 2 28.8728 2.67139 -1.76874 28.8728 2.67139 -1.76874
31 1 29.9659 1.02779 -0.1559 29.9659 1.02779 -0.1559
32 2 32.0661 1.03209 1.45364 32.0661 1.03209 1.45364
33 2 32.0622 1.02375 -1.77054 32.0622 1.02375 -1.77054
34 1 33.155 2.67411 -0.163979 33.155 2.67411 -0.163979
35 2 35.2551 2.67998 1.44558 35.2551 2.67998 1.44558
36 2 35.2513 2.66861 -1.77861 35.2513 2.66861 -1.77861
37 1 36.343 1.0279 -0.161976 36.343 1.0279 -0.161976
38 2 38.4415 1.03403 1.44952 38.4415 1.03403 1.44952
39 2 38.4406 1.02217 -1.77468 38.4406 1.02217 -1.77468
40 1 39.5316 2.67434 -0.16887 39.5316 2.67434 -0.16887
41 2 41.629 2.68242 1.44389 41.629 2.68242 1.44389
42 2 41.63 2.66673 -1.7803 41.63 2.66673 -1.7803
43 1 42.7192 1.02817 -0.159748 42.7192 1.02817 -0.159748
44 2 44.8148 1.03533 1.45526 44.8148 1.03533 1.45526
45 2 44.8192 1.02144 -1.76894 44.8192 1.02144 -1.76894
46 1 45.9074 2.67468 -0.162375 45.9074 2.67468 -0.162375
47 2 48.0025 2.68521 1.45325 48.0025 2.68521 1.45325
48 2 48.0078 2.66453 -1.77091 48.0078 2.66453 -1.77091
49 1 49.0949 1.02848 -0.146417 49.0949 1.02848 -0.146417
50 2 51.1895 1.03702 1.46992 51.1895 1.03702 1.46992
51 2 51.1957 1.02026 -1.75429 51.1957 1.02026 -1.75429
52 1 52.2829 2.67492 -0.1486 52.2829 2.67492 -0.1486
53 2 54.3781 2.6869 1.46674 54.3781 2.6869 1.46674
54 2 54.3828 2.66316 -1.75743 54.3828 2.66316 -1.75743
55 1 -1.91942 4.32125 -0.155851 -1.91942 4.32125 -0.155851
56 2 0.175926 4.3348 1.45925 0.175926 4.3348 1.45925
57 2 0.180381 4.3078 -1.76488 0.180381 4.3078 -1.76488
58 1 1.26862 5.96747 -0.165085 1.26862 5.96747 -0.165085
59 2 3.36317 5.9803 1.45127 3.36317 5.9803 1.45127
60 2 3.36972 5.95468 -1.77285 3.36972 5.95468 -1.77285
61 1 4.4564 4.32117 -0.145434 4.4564 4.32117 -0.145434
62 2 6.55285 4.33062 1.46887 6.55285 4.33062 1.46887
63 2 6.55605 4.31173 -1.75529 6.55605 4.31173 -1.75529
64 1 7.64509 5.96731 -0.151812 7.64509 5.96731 -0.151812
65 2 9.74074 5.97514 1.46365 9.74074 5.97514 1.46365
66 2 9.74581 5.95941 -1.76053 9.74581 5.95941 -1.76053
67 1 10.8334 4.32097 -0.138655 10.8334 4.32097 -0.138655
68 2 12.9315 4.32557 1.4737 12.9315 4.32557 1.4737
69 2 12.9317 4.31626 -1.75049 12.9317 4.31626 -1.75049
70 1 14.0224 5.96703 -0.143154 14.0224 5.96703 -0.143154
71 2 16.1204 5.97021 1.46947 16.1204 5.97021 1.46947
72 2 16.1211 5.96369 -1.75473 16.1211 5.96369 -1.75473
73 1 17.211 4.32065 -0.139056 17.211 4.32065 -0.139056
74 2 19.3113 4.32216 1.47075 19.3113 4.32216 1.47075
75 2 19.3076 4.31902 -1.75343 19.3076 4.31902 -1.75343
76 1 20.4003 5.96669 -0.144248 20.4003 5.96669 -0.144248
77 2 22.501 5.96745 1.46514 22.501 5.96745 1.46514
78 2 22.4968 5.9659 -1.75905 22.4968 5.9659 -1.75905
79 1 23.5891 4.32037 -0.147593 23.5891 4.32037 -0.147593
80 2 25.6908 4.3218 1.46024 25.6908 4.3218 1.46024
81 2 25.6842 4.31901 -1.76395 25.6842 4.31901 -1.76395
82 1 26.7783 5.96654 -0.15555 26.7783 5.96654 -0.15555
83 2 28.8806 5.96841 1.45141 28.8806 5.96841 1.45141
84 2 28.8728 5.96489 -1.77278 28.8728 5.96489 -1.77278
85 1 29.9667 4.32032 -0.161551 29.9667 4.32032 -0.161551
86 2 32.0684 4.32453 1.4462 32.0684 4.32453 1.4462
87 2 32.0618 4.31643 -1.77798 32.0618 4.31643 -1.77798
88 1 33.1558 5.96668 -0.172242 33.1558 5.96668 -0.172242
89 2 35.2573 5.97206 1.43545 35.2573 5.97206 1.43545
90 2 35.2507 5.96172 -1.78874 35.2507 5.96172 -1.78874
91 1 36.3439 4.32052 -0.17357 36.3439 4.32052 -0.17357
92 2 38.4433 4.32807 1.43663 38.4433 4.32807 1.43663
93 2 38.4405 4.31342 -1.78755 38.4405 4.31342 -1.78755
94 1 39.5324 5.96702 -0.183838 39.5324 5.96702 -0.183838
95 2 41.6309 5.9764 1.42731 41.6309 5.9764 1.42731
96 2 41.6297 5.95812 -1.79686 41.6297 5.95812 -1.79686
97 1 42.72 4.32086 -0.17581 42.72 4.32086 -0.17581
98 2 44.8164 4.33168 1.43794 44.8164 4.33168 1.43794
99 2 44.819 4.31048 -1.78622 44.819 4.31048 -1.78622
100 1 45.9081 5.96737 -0.184051 45.9081 5.96737 -0.184051
101 2 48.0043 5.98077 1.42994 48.0043 5.98077 1.42994
102 2 48.0074 5.95431 -1.79418 48.0074 5.95431 -1.79418
103 1 49.0956 4.32115 -0.167547 49.0956 4.32115 -0.167547
104 2 51.1907 4.33488 1.44786 51.1907 4.33488 1.44786
105 2 51.1957 4.30771 -1.77627 51.1957 4.30771 -1.77627
106 1 52.2835 5.96753 -0.176365 52.2835 5.96753 -0.176365
107 2 54.3786 5.9828 1.43895 54.3786 5.9828 1.43895
108 2 54.3836 5.95239 -1.78516 54.3836 5.95239 -1.78516
109 1 -1.91877 7.61378 -0.18693 -1.91877 7.61378 -0.18693
110 2 0.175253 7.6283 1.42969 0.175253 7.6283 1.42969
111 2 0.182363 7.5993 -1.79441 0.182363 7.5993 -1.79441
112 1 1.26927 9.25996 -0.194757 1.26927 9.25996 -0.194757
113 2 3.36162 9.27204 1.4243 3.36162 9.27204 1.4243
114 2 3.37257 9.24788 -1.79981 3.37257 9.24788 -1.79981
115 1 4.45703 7.61363 -0.17169 4.45703 7.61363 -0.17169
116 2 6.55049 7.6242 1.44632 6.55049 7.6242 1.44632
117 2 6.55965 7.60305 -1.77782 6.55965 7.60305 -1.77782
118 1 7.64571 9.25976 -0.173526 7.64571 9.25976 -0.173526
119 2 9.73825 9.26718 1.44582 9.73825 9.26718 1.44582
120 2 9.74948 9.25224 -1.77834 9.74948 9.25224 -1.77834
121 1 10.8339 7.6134 -0.154834 10.8339 7.6134 -0.154834
122 2 12.9291 7.61874 1.46131 12.9291 7.61874 1.46131
123 2 12.9353 7.60792 -1.76287 12.9353 7.60792 -1.76287
124 1 14.0229 9.25943 -0.154329 14.0229 9.25943 -0.154329
125 2 16.1183 9.26175 1.46176 16.1183 9.26175 1.46176
126 2 16.1244 9.25691 -1.76243 16.1244 9.25691 -1.76243
127 1 17.2116 7.61305 -0.145827 17.2116 7.61305 -0.145827
128 2 19.3099 7.61425 1.46648 19.3099 7.61425 1.46648
129 2 19.3102 7.6117 -1.75771 19.3102 7.6117 -1.75771
130 1 20.4009 9.25907 -0.146947 20.4009 9.25907 -0.146947
131 2 22.5002 9.25827 1.46418 22.5002 9.25827 1.46418
132 2 22.4987 9.25979 -1.76002 22.4987 9.25979 -1.76002
133 1 23.5897 7.61278 -0.149268 23.5897 7.61278 -0.149268
134 2 25.6914 7.61278 1.45875 25.6914 7.61278 1.45875
135 2 25.6851 7.61286 -1.76545 25.6851 7.61286 -1.76545
136 1 26.7789 9.25896 -0.155535 26.7789 9.25896 -0.155535
137 2 28.8817 9.25831 1.45076 28.8817 9.25831 1.45076
138 2 28.8729 9.25987 -1.77343 28.8729 9.25987 -1.77343
139 1 29.9675 7.61282 -0.165176 29.9675 7.61282 -0.165176
140 2 32.0704 7.61509 1.44085 32.0704 7.61509 1.44085
141 2 32.0612 7.61093 -1.78333 32.0612 7.61093 -1.78333
142 1 33.1565 9.25926 -0.176497 33.1565 9.25926 -0.176497
143 2 35.2597 9.26186 1.42893 35.2597 9.26186 1.42893
144 2 35.2496 9.25714 -1.79526 35.2496 9.25714 -1.79526
145 1 36.3446 7.61316 -0.184143 36.3446 7.61316 -0.184143
146 2 38.4456 7.61964 1.42389 38.4456 7.61964 1.42389
147 2 38.4396 7.60717 -1.80029 38.4396 7.60717 -1.80029
148 1 39.533 9.25973 -0.196582 39.533 9.25973 -0.196582
149 2 41.6336 9.2674 1.4118 41.6336 9.2674 1.4118
150 2 41.6282 9.25252 -1.81238 41.6282 9.25252 -1.81238
151 1 42.7207 7.61357 -0.194517 42.7207 7.61357 -0.194517
152 2 44.8188 7.62486 1.41693 44.8188 7.62486 1.41693
153 2 44.818 7.60268 -1.80721 44.818 7.60268 -1.80721
154 1 45.9087 9.26007 -0.206703 45.9087 9.26007 -0.206703
155 2 48.0066 9.27254 1.40499 48.0066 9.27254 1.40499
156 2 48.0063 9.24787 -1.81914 48.0063 9.24787 -1.81914
157 1 49.0962 7.61381 -0.194583 49.0962 7.61381 -0.194583
158 2 51.1922 7.62862 1.41952 51.1922 7.62862 1.41952
159 2 51.1955 7.59919 -1.80458 51.1955 7.59919 -1.80458
160 1 52.2842 9.26012 -0.206426 52.2842 9.26012 -0.206426
161 2 54.3792 9.27436 1.40883 54.3792 9.27436 1.40883
162 2 54.3843 9.24593 -1.81529 54.3843 9.24593 -1.81529
163 1 -1.91816 10.9063 -0.215977 -1.91816 10.9063 -0.215977
164 2 0.174779 10.9182 1.40195 0.174779 10.9182 1.40195
165 2 0.184092 10.8944 -1.82218 0.184092 10.8944 -1.82218
166 1 1.26985 12.5525 -0.219099 1.26985 12.5525 -0.219099
167 2 3.36065 12.5613 1.40191 3.36065 12.5613 1.40191
168 2 3.37471 12.5437 -1.82223 3.37471 12.5437 -1.82223
169 1 4.45766 10.9061 -0.196412 4.45766 10.9061 -0.196412
170 2 6.54854 10.9148 1.42481 6.54854 10.9148 1.42481
171 2 6.56282 10.8974 -1.79932 6.56282 10.8974 -1.79932
172 1 7.64625 12.5523 -0.19138 7.64625 12.5523 -0.19138
173 2 9.73615 12.5571 1.4313 9.73615 12.5571 1.4313
174 2 9.75262 12.5472 -1.79285 9.75262 12.5472 -1.79285
175 1 10.8345 10.9058 -0.17018 10.8345 10.9058 -0.17018
176 2 12.9266 10.9096 1.44978 12.9266 10.9096 1.44978
177 2 12.9388 10.9019 -1.7744 12.9388 10.9019 -1.7744
178 1 14.0234 12.5519 -0.162225 14.0234 12.5519 -0.162225
179 2 16.1161 12.552 1.45721 16.1161 12.552 1.45721
180 2 16.1274 12.5514 -1.76698 16.1274 12.5514 -1.76698
181 1 17.2121 10.9054 -0.150869 17.2121 10.9054 -0.150869
182 2 19.3082 10.9047 1.46426 19.3082 10.9047 1.46426
183 2 19.3129 10.9059 -1.75994 19.3129 10.9059 -1.75994
184 1 20.4013 12.5514 -0.145808 20.4013 12.5514 -0.145808
185 2 22.4992 12.5484 1.46709 22.4992 12.5484 1.46709
186 2 22.5004 12.5544 -1.7571 22.5004 12.5544 -1.7571
187 1 23.5902 10.9051 -0.14779 23.5902 10.9051 -0.14779
188 2 25.6912 10.9026 1.46099 25.6912 10.9026 1.46099
189 2 25.6862 10.9077 -1.76321 25.6862 10.9077 -1.76321
190 1 26.7793 12.5514 -0.15035 26.7793 12.5514 -0.15035
191 2 28.8823 12.5476 1.4557 28.8823 12.5476 1.4557
192 2 28.873 12.5554 -1.76848 28.873 12.5554 -1.76848
193 1 29.968 10.9053 -0.163609 29.968 10.9053 -0.163609
194 2 32.0721 10.9042 1.44092 32.0721 10.9042 1.44092
195 2 32.0606 10.9069 -1.78326 32.0606 10.9069 -1.78326
196 1 33.1568 12.5518 -0.173714 33.1568 12.5518 -0.173714
197 2 35.2616 12.5503 1.42954 35.2616 12.5503 1.42954
198 2 35.2483 12.5539 -1.79463 35.2483 12.5539 -1.79463
199 1 36.3451 10.9058 -0.188979 36.3451 10.9058 -0.188979
200 2 38.4482 10.9088 1.41624 38.4482 10.9088 1.41624
201 2 38.4379 10.9034 -1.80795 38.4379 10.9034 -1.80795
202 1 39.5333 12.5525 -0.202103 39.5333 12.5525 -0.202103
203 2 41.6366 12.5559 1.40274 41.6366 12.5559 1.40274
204 2 41.6258 12.5494 -1.82145 41.6258 12.5494 -1.82145
205 1 42.7211 10.9063 -0.209714 42.7211 10.9063 -0.209714
206 2 44.8215 10.9148 1.39869 44.8215 10.9148 1.39869
207 2 44.8162 10.8981 -1.82548 44.8162 10.8981 -1.82548
208 1 45.9091 12.5528 -0.223679 45.9091 12.5528 -0.223679
209 2 48.0091 12.5612 1.38529 48.0091 12.5612 1.38529
210 2 48.0046 12.5445 -1.83889 48.0046 12.5445 -1.83889
211 1 49.0967 10.9065 -0.219758 49.0967 10.9065 -0.219758
212 2 51.1938 10.9186 1.39287 51.1938 10.9186 1.39287
213 2 51.195 10.8944 -1.83127 51.195 10.8944 -1.83127
214 1 52.2846 12.5527 -0.231112 52.2846 12.5527 -0.231112
215 2 54.3798 12.5629 1.38394 54.3798 12.5629 1.38394
216 2 54.3847 12.5425 -1.84024 54.3847 12.5425 -1.84024
217 1 -1.91771 14.1989 -0.236866 -1.91771 14.1989 -0.236866
218 2 0.174707 14.2064 1.38175 0.174707 14.2064 1.38175
219 2 0.185137 14.1914 -1.84243 0.185137 14.1914 -1.84243
220 1 1.27023 15.8451 -0.234437 1.27023 15.8451 -0.234437
221 2 3.36026 15.8497 1.38759 3.36026 15.8497 1.38759
222 2 3.37589 15.8403 -1.83657 3.37589 15.8403 -1.83657
223 1 4.45815 14.1987 -0.214376 4.45815 14.1987 -0.214376
224 2 6.54719 14.2039 1.40919 6.54719 14.2039 1.40919
225 2 6.56513 14.1933 -1.81496 6.56513 14.1933 -1.81496
226 1 7.64661 15.8448 -0.202293 7.64661 15.8448 -0.202293
227 2 9.73462 15.8468 1.42279 9.73462 15.8468 1.42279
228 2 9.7548 15.8426 -1.80135 9.7548 15.8426 -1.80135
229 1 10.8349 14.1983 -0.180346 10.8349 14.1983 -0.180346
230 2 12.9245 14.1995 1.44278 12.9245 14.1995 1.44278
231 2 12.9416 14.1968 -1.78138 12.9416 14.1968 -1.78138
232 1 14.0236 15.8443 -0.164992 14.0236 15.8443 -0.164992
233 2 16.1142 15.8425 1.45711 16.1142 15.8425 1.45711
234 2 16.1296 15.8456 -1.76706 16.1296 15.8456 -1.76706
235 1 17.2123 14.1978 -0.151467 17.2123 14.1978 -0.151467
236 2 19.3065 14.1951 1.46618 19.3065 14.1951 1.46618
237 2 19.3151 14.2003 -1.758 19.3151 14.2003 -1.758
238 1 20.4013 15.8438 -0.14052 20.4013 15.8438 -0.14052
239 2 22.4981 15.8392 1.47395 22.4981 15.8392 1.47395
240 2 22.5016 15.8482 -1.75023 22.5016 15.8482 -1.75023
241 1 23.5904 14.1975 -0.141681 23.5904 14.1975 -0.141681
242 2 25.6907 14.1927 1.46808 25.6907 14.1927 1.46808
243 2 25.6871 14.2024 -1.75611 25.6871 14.2024 -1.75611
244 1 26.7793 15.8438 -0.140416 26.7793 15.8438 -0.140416
245 2 28.882 15.8377 1.46594 28.882 15.8377 1.46594
246 2 28.8732 15.8502 -1.75821 28.8732 15.8502 -1.75821
247 1 29.9681 14.1978 -0.15563 29.9681 14.1978 -0.15563
248 2 32.0729 14.193 1.44796 32.0729 14.193 1.44796
249 2 32.06 14.203 -1.7762 32.06 14.203 -1.7762
250 1 33.1567 15.8444 -0.163472 33.1567 15.8444 -0.163472
251 2 35.2628 15.8388 1.43827 35.2628 15.8388 1.43827
252 2 35.247 15.8506 -1.78588 35.247 15.8506 -1.78588
253 1 36.3452 14.1985 -0.185241 36.3452 14.1985 -0.185241
254 2 38.4506 14.1968 1.41707 38.4506 14.1968 1.41707
255 2 38.4358 14.2007 -1.8071 38.4358 14.2007 -1.8071
256 1 39.5333 15.8452 -0.19799 39.5333 15.8452 -0.19799
257 2 41.6394 15.8434 1.40329 41.6394 15.8434 1.40329
258 2 41.623 15.8473 -1.82089 41.623 15.8473 -1.82089
259 1 42.7213 14.199 -0.216329 42.7213 14.199 -0.216329
260 2 44.8244 14.2026 1.38856 44.8244 14.2026 1.38856
261 2 44.8137 14.1957 -1.83564 44.8137 14.1957 -1.83564
262 1 45.9092 15.8455 -0.230607 45.9092 15.8455 -0.230607
263 2 48.0116 15.8485 1.37531 48.0116 15.8485 1.37531
264 2 48.0024 15.8425 -1.84889 48.0024 15.8425 -1.84889
265 1 49.097 14.1992 -0.236772 49.097 14.1992 -0.236772
266 2 51.1955 14.2063 1.37409 51.1955 14.2063 1.37409
267 2 51.194 14.1919 -1.85011 51.194 14.1919 -1.85011
268 1 52.2849 15.8454 -0.245779 52.2849 15.8454 -0.245779
269 2 54.3807 15.8505 1.36857 54.3807 15.8505 1.36857
270 2 54.3845 15.8401 -1.85566 54.3845 15.8401 -1.85566
271 1 -1.91749 17.4916 -0.247458 -1.91749 17.4916 -0.247458
272 2 0.175124 17.4946 1.37097 0.175124 17.4946 1.37097
273 2 0.185219 17.4883 -1.85325 0.185219 17.4883 -1.85325
274 1 1.27035 19.1377 -0.240869 1.27035 19.1377 -0.240869
275 2 3.36027 19.139 1.38133 3.36027 19.139 1.38133
276 2 3.37612 19.1363 -1.84285 3.37612 19.1363 -1.84285
277 1 4.45841 17.4913 -0.223974 4.45841 17.4913 -0.223974
278 2 6.54652 17.4934 1.40081 6.54652 17.4934 1.40081
279 2 6.5663 17.4889 -1.82333 6.5663 17.4889 -1.82333
280 1 7.64669 19.1374 -0.206836 7.64669 19.1374 -0.206836
281 2 9.73371 19.1376 1.41953 9.73371 19.1376 1.41953
282 2 9.75582 19.1368 -1.8046 9.75582 19.1368 -1.8046
283 1 10.8351 17.4909 -0.184655 10.8351 17.4909 -0.184655
284 2 12.9231 17.4904 1.44057 12.9231 17.4904 1.44057
285 2 12.9433 17.4909 -1.78357 12.9433 17.4909 -1.78357
286 1 14.0235 19.1368 -0.164457 14.0235 19.1368 -0.164457
287 2 16.1128 19.135 1.45934 16.1128 19.135 1.45934
288 2 16.1308 19.138 -1.76481 16.1308 19.138 -1.76481
289 1 17.2124 17.4903 -0.148301 17.2124 17.4903 -0.148301
290 2 19.3052 17.4868 1.47116 19.3052 17.4868 1.47116
291 2 19.3163 17.4932 -1.75301 19.3163 17.4932 -1.75301
292 1 20.4011 19.1362 -0.134011 20.4011 19.1362 -0.134011
293 2 22.4967 19.1321 1.48189 22.4967 19.1321 1.48189
294 2 22.5024 19.14 -1.74229 22.5024 19.14 -1.74229
295 1 23.5902 17.4899 -0.132473 23.5902 17.4899 -0.132473
296 2 25.6898 17.4842 1.47834 25.6898 17.4842 1.47834
297 2 25.6876 17.4956 -1.74585 25.6876 17.4956 -1.74585
298 1 26.7789 19.1362 -0.128805 26.7789 19.1362 -0.128805
299 2 28.8809 19.1297 1.47862 28.8809 19.1297 1.47862
300 2 28.8735 19.143 -1.74554 28.8735 19.143 -1.74554
301 1 29.9679 17.4902 -0.142865 29.9679 17.4902 -0.142865
302 2 32.0728 17.4831 1.46071 32.0728 17.4831 1.46071
303 2 32.0596 17.4979 -1.76343 32.0596 17.4979 -1.76343
304 1 33.1563 19.1369 -0.148302 33.1563 19.1369 -0.148302
305 2 35.2628 19.1291 1.45291 35.2628 19.1291 1.45291
306 2 35.2461 19.1453 -1.77122 35.2461 19.1453 -1.77122
307 1 36.345 17.4911 -0.173178 36.345 17.4911 -0.173178
308 2 38.4523 17.4852 1.42671 38.4523 17.4852 1.42671
309 2 38.4337 17.4975 -1.79743 38.4337 17.4975 -1.79743
310 1 39.533 19.1378 -0.185429 39.533 19.1378 -0.185429
311 2 41.6414 19.132 1.41288 41.6414 19.132 1.41288
312 2 41.6203 19.1438 -1.81126 41.6203 19.1438 -1.81126
313 1 42.7212 17.4917 -0.212352 42.7212 17.4917 -0.212352
314 2 44.8273 17.4901 1.38881 44.8273 17.4901 1.38881
315 2 44.8107 17.4935 -1.83537 44.8107 17.4935 -1.83537
316 1 45.909 19.1381 -0.227044 45.909 19.1381 -0.227044
317 2 48.014 19.1365 1.37565 48.014 19.1365 1.37565
318 2 47.9998 19.1397 -1.84855 47.9998 19.1397 -1.84855
319 1 49.0971 17.4918 -0.242845 49.0971 17.4918 -0.242845
320 2 51.1974 17.4938 1.36581 51.1974 17.4938 1.36581
321 2 51.1924 17.4896 -1.85843 51.1924 17.4896 -1.85843
322 1 52.2849 19.138 -0.249963 52.2849 19.138 -0.249963
323 2 54.3818 19.1388 1.36303 54.3818 19.1388 1.36303
324 2 54.3835 19.1369 -1.86122 54.3835 19.1369 -1.86122
325 1 -1.91756 20.7842 -0.249331 -1.91756 20.7842 -0.249331
326 2 0.175649 20.7838 1.36837 0.175649 20.7838 1.36837
327 2 0.184612 20.7843 -1.85585 0.184612 20.7843 -1.85585
328 1 1.27017 22.4304 -0.240359 1.27017 22.4304 -0.240359
329 2 3.36039 22.429 1.38145 3.36039 22.429 1.38145
330 2 3.37565 22.4315 -1.84272 3.37565 22.4315 -1.84272
331 1 4.45838 20.7839 -0.226709 4.45838 20.7839 -0.226709
332 2 6.54626 20.7838 1.39837 6.54626 20.7838 1.39837
333 2 6.56647 20.7838 -1.82578 6.56647 20.7838 -1.82578
334 1 7.64649 22.43 -0.206851 7.64649 22.43 -0.206851
335 2 9.73347 22.4293 1.41955 9.73347 22.4293 1.41955
336 2 9.75561 22.4303 -1.80458 9.75561 22.4303 -1.80458
337 1 10.835 20.7835 -0.185514 10.835 20.7835 -0.185514
338 2 12.9221 20.7827 1.44074 12.9221 20.7827 1.44074
339 2 12.944 20.7836 -1.78338 12.944 20.7836 -1.78338
340 1 14.0232 22.4294 -0.16353 14.0232 22.4294 -0.16353
341 2 16.1121 22.4288 1.46083 16.1121 22.4288 1.46083
342 2 16.1308 22.4293 -1.76331 16.1308 22.4293 -1.76331
343 1 17.2121 20.7828 -0.145249 17.2121 20.7828 -0.145249
344 2 19.3038 20.7806 1.47559 19.3038 20.7806 1.47559
345 2 19.3171 20.7843 -1.74857 19.3171 20.7843 -1.74857
346 1 20.4006 22.4287 -0.130222 20.4006 22.4287 -0.130222
347 2 22.495 22.4265 1.48717 22.495 22.4265 1.48717
348 2 22.5029 22.4305 -1.737 22.5029 22.4305 -1.737
349 1 23.5898 20.7824 -0.124375 23.5898 20.7824 -0.124375
350 2 25.6881 20.7777 1.48802 25.6881 20.7777 1.48802
351 2 25.6883 20.7869 -1.73617 25.6883 20.7869 -1.73617
352 1 26.7782 22.4287 -0.119425 26.7782 22.4287 -0.119425
353 2 28.8787 22.4235 1.48989 28.8787 22.4235 1.48989
354 2 28.8742 22.4341 -1.73428 28.8742 22.4341 -1.73428
355 1 29.9673 20.7827 -0.129233 29.9673 20.7827 -0.129233
356 2 32.0713 20.7754 1.47549 32.0713 20.7754 1.47549
357 2 32.0599 20.7905 -1.74865 32.0599 20.7905 -1.74865
358 1 33.1556 22.4294 -0.132822 33.1556 22.4294 -0.132822
359 2 35.2617 22.4217 1.46903 35.2617 22.4217 1.46903
360 2 35.2458 22.4376 -1.7551 35.2458 22.4376 -1.7551
361 1 36.3444 20.7836 -0.156626 36.3444 20.7836 -0.156626
362 2 38.4528 20.7757 1.44201 38.4528 20.7757 1.44201
363 2 38.4321 20.792 -1.7821 38.4321 20.792 -1.7821
364 1 39.5324 22.4303 -0.168802 39.5324 22.4303 -0.168802
365 2 41.6423 22.4227 1.42777 41.6423 22.4227 1.42777
366 2 41.6184 22.4381 -1.79633 41.6184 22.4381 -1.79633
367 1 42.7208 20.7843 -0.200272 42.7208 20.7843 -0.200272
368 2 44.8294 20.779 1.39775 44.8294 20.779 1.39775
369 2 44.8079 20.7897 -1.82639 44.8079 20.7897 -1.82639
370 1 45.9086 22.4307 -0.215984 45.9086 22.4307 -0.215984
371 2 48.0158 22.4256 1.38391 48.0158 22.4256 1.38391
372 2 47.9972 22.4356 -1.84025 47.9972 22.4356 -1.84025
373 1 49.0969 20.7844 -0.239427 49.0969 20.7844 -0.239427
374 2 51.199 20.7824 1.3669 51.199 20.7824 1.3669
375 2 51.1904 20.7862 -1.85733 51.1904 20.7862 -1.85733
376 1 52.2847 22.4306 -0.245971 52.2847 22.4306 -0.245971
377 2 54.3828 22.428 1.36539 54.3828 22.428 1.36539
378 2 54.382 22.4328 -1.85886 54.382 22.4328 -1.85886
379 1 -1.9179 24.0768 -0.244392 -1.9179 24.0768 -0.244392
380 2 0.176059 24.0735 1.37234 0.176059 24.0735 1.37234
381 2 0.183551 24.0798 -1.85188 0.183551 24.0798 -1.85188
382 1 1.26973 25.723 -0.233904 1.26973 25.723 -0.233904
383 2 3.36062 25.7191 1.38703 3.36062 25.7191 1.38703
384 2 3.37454 25.7266 -1.83715 3.37454 25.7266 -1.83715
385 1 4.45806 24.0766 -0.224111 4.45806 24.0766 -0.224111
386 2 6.54639 24.0747 1.40038 6.54639 24.0747 1.40038
387 2 6.56569 24.0781 -1.82377 6.56569 24.0781 -1.82377
388 1 7.64605 25.7227 -0.203418 7.64605 25.7227 -0.203418
389 2 9.73398 25.7214 1.42174 9.73398 25.7214 1.42174
390 2 9.7542 25.7235 -1.8024 9.7542 25.7235 -1.8024
391 1 10.8346 24.0761 -0.18456 10.8346 24.0761 -0.18456
392 2 12.9221 24.0759 1.44129 12.9221 24.0759 1.44129
393 2 12.9432 24.0756 -1.78283 12.9432 24.0756 -1.78283
394 1 14.0227 25.722 -0.163745 14.0227 25.722 -0.163745
395 2 16.112 25.7231 1.45997 16.112 25.7231 1.45997
396 2 16.1298 25.7202 -1.76416 16.1298 25.7202 -1.76416
397 1 17.2116 24.0753 -0.144686 17.2116 24.0753 -0.144686
398 2 19.3028 24.0754 1.47676 19.3028 24.0754 1.47676
399 2 19.317 24.0746 -1.74738 19.317 24.0746 -1.74738
400 1 20.3999 25.7213 -0.130946 20.3999 25.7213 -0.130946
401 2 22.4933 25.7219 1.4877 22.4933 25.7219 1.4877
402 2 22.5032 25.7203 -1.73646 22.5032 25.7203 -1.73646
403 1 23.5891 24.0749 -0.120306 23.5891 24.0749 -0.120306
404 2 25.6859 24.0726 1.49399 25.6859 24.0726 1.49399
405 2 25.689 24.0771 -1.7302 25.689 24.0771 -1.7302
406 1 26.7774 25.7212 -0.114866 26.7774 25.7212 -0.114866
407 2 28.8761 25.7187 1.49674 28.8761 25.7187 1.49674
408 2 28.8751 25.7239 -1.72745 28.8751 25.7239 -1.72745
409 1 29.9664 24.0752 -0.118407 29.9664 24.0752 -0.118407
410 2 32.0691 24.0697 1.48818 32.0691 24.0697 1.48818
411 2 32.0604 24.0812 -1.73598 32.0604 24.0812 -1.73598
412 1 33.1547 25.7219 -0.121074 33.1547 25.7219 -0.121074
413 2 35.2597 25.7163 1.48235 35.2597 25.7163 1.48235
414 2 35.2461 25.728 -1.74182 35.2461 25.728 -1.74182
415 1 36.3436 24.0761 -0.140399 36.3436 24.0761 -0.140399
416 2 38.4521 24.0685 1.45834 38.4521 24.0685 1.45834
417 2 38.4314 24.0842 -1.76578 38.4314 24.0842 -1.76578
418 1 39.5316 25.7227 -0.152785 39.5316 25.7227 -0.152785
419 2 41.6418 25.7153 1.44357 41.6418 25.7153 1.44357
420 2 41.6174 25.7304 -1.78054 41.6174 25.7304 -1.78054
421 1 42.7202 24.0768 -0.184437 42.7202 24.0768 -0.184437
422 2 44.8303 24.0695 1.41168 44.8303 24.0695 1.41168
423 2 44.8058 24.084 -1.81243 44.8058 24.084 -1.81243
424 1 45.908 25.7231 -0.201197 45.908 25.7231 -0.201197
425 2 48.0165 25.716 1.39707 48.0165 25.716 1.39707
426 2 47.9953 25.73 -1.82707 47.9953 25.73 -1.82707
427 1 49.0964 24.0769 -0.229178 49.0964 24.0769 -0.229178
428 2 51.2002 24.0718 1.37503 51.2002 24.0718 1.37503
429 2 51.1884 24.0817 -1.84918 51.1884 24.0817 -1.84918
430 1 52.2842 25.7231 -0.235862 52.2842 25.7231 -0.235862
431 2 54.3834 25.7175 1.3741 54.3834 25.7175 1.3741
432 2 54.3805 25.7284 -1.85014 54.3805 25.7284 -1.85014
433 1 -1.91845 27.3693 -0.233326 -1.91845 27.3693 -0.233326
434 2 0.176309 27.3631 1.38236 0.176309 27.3631 1.38236
435 2 0.182208 27.3753 -1.84185 0.182208 27.3753 -1.84185
436 1 1.26911 29.0156 -0.221396 1.26911 29.0156 -0.221396
437 2 3.36114 29.0091 1.39806 3.36114 29.0091 1.39806
438 2 3.37281 29.0218 -1.82611 3.37281 29.0218 -1.82611
439 1 4.45753 27.3692 -0.216477 4.45753 27.3692 -0.216477
440 2 6.54712 27.3656 1.40639 6.54712 27.3656 1.40639
441 2 6.5639 27.3724 -1.81777 6.5639 27.3724 -1.81777
442 1 7.64546 29.0154 -0.196565 7.64546 29.0154 -0.196565
443 2 9.73542 29.0133 1.42598 9.73542 29.0133 1.42598
444 2 9.75161 29.0168 -1.79817 9.75161 29.0168 -1.79817
445 1 10.8341 27.3687 -0.182424 10.8341 27.3687 -0.182424
446 2 12.923 27.3691 1.44147 12.923 27.3691 1.44147
447 2 12.9412 27.3677 -1.78266 12.9412 27.3677 -1.78266
448 1 14.0221 29.0147 -0.165191 14.0221 29.0147 -0.165191
449 2 16.1128 29.017 1.45672 16.1128 29.017 1.45672
450 2 16.1278 29.0116 -1.76742 16.1278 29.0116 -1.76742
451 1 17.211 27.368 -0.147558 17.211 27.368 -0.147558
452 2 19.3022 27.3703 1.47368 19.3022 27.3703 1.47368
453 2 19.3162 27.3649 -1.75045 19.3162 27.3649 -1.75045
454 1 20.3993 29.014 -0.136471 20.3993 29.014 -0.136471
455 2 22.492 29.0172 1.48292 22.492 29.0172 1.48292
456 2 22.5031 29.0103 -1.74122 22.5031 29.0103 -1.74122
457 1 23.5883 27.3675 -0.121926 23.5883 27.3675 -0.121926
458 2 25.6835 27.3683 1.49433 25.6835 27.3683 1.49433
459 2 25.6897 27.3666 -1.72986 25.6897 27.3666 -1.72986
460 1 26.7765 29.0139 -0.116657 26.7765 29.0139 -0.116657
461 2 28.8734 29.0147 1.49726 28.8734 29.0147 1.49726
462 2 28.876 29.0131 -1.72692 28.876 29.0131 -1.72692
463 1 29.9655 27.3678 -0.11319 29.9655 27.3678 -0.11319
464 2 32.0665 27.3654 1.49555 32.0665 27.3654 1.49555
465 2 32.0611 27.3705 -1.72864 32.0611 27.3705 -1.72864
466 1 33.1537 29.0144 -0.115907 33.1537 29.0144 -0.115907
467 2 35.2572 29.0123 1.48962 35.2572 29.0123 1.48962
468 2 35.2468 29.017 -1.73458 35.2468 29.017 -1.73458
469 1 36.3427 27.3686 -0.128489 36.3427 27.3686 -0.128489
470 2 38.4503 27.3631 1.4715 38.4503 27.3631 1.4715
471 2 38.4314 27.3744 -1.75265 38.4314 27.3744 -1.75265
472 1 39.5308 29.0151 -0.14129 39.5308 29.0151 -0.14129
473 2 41.64 29.0095 1.45645 41.64 29.0095 1.45645
474 2 41.6176 29.0209 -1.7677 41.6176 29.0209 -1.7677
475 1 42.7194 27.3692 -0.169005 42.7194 27.3692 -0.169005
476 2 44.8299 27.3617 1.42688 44.8299 27.3617 1.42688
477 2 44.8049 27.3766 -1.79724 44.8049 27.3766 -1.79724
478 1 45.9073 29.0155 -0.185929 45.9073 29.0155 -0.185929
479 2 48.0158 29.0073 1.41246 48.0158 29.0073 1.41246
480 2 47.9947 29.0235 -1.81168 47.9947 29.0235 -1.81168
481 1 49.0958 27.3693 -0.214814 49.0958 27.3693 -0.214814
482 2 51.2006 27.3618 1.38822 51.2006 27.3618 1.38822
483 2 51.1869 27.3766 -1.83597 51.1869 27.3766 -1.83597
484 1 52.2835 29.0155 -0.220798 52.2835 29.0155 -0.220798
485 2 54.3833 29.0071 1.3885 54.3833 29.0071 1.3885
486 2 54.3793 29.0238 -1.83572 54.3793 29.0238 -1.83572
487 1 -1.91911 30.6618 -0.216287 -1.91911 30.6618 -0.216287
488 2 0.176363 30.6526 1.39848 0.176363 30.6526 1.39848
489 2 0.180834 30.6709 -1.82571 0.180834 30.6709 -1.82571
490 1 1.26845 32.3081 -0.202667 1.26845 32.3081 -0.202667
491 2 3.36211 32.2991 1.41473 3.36211 32.2991 1.41473
492 2 3.37052 32.317 -1.80944 3.37052 32.317 -1.80944
493 1 4.45689 30.6618 -0.203604 4.45689 30.6618 -0.203604
494 2 6.54849 30.6563 1.41668 6.54849 30.6563 1.41668
495 2 6.56128 30.667 -1.80749 6.56128 30.667 -1.80749
496 1 7.64484 32.308 -0.185597 7.64484 32.308 -0.185597
497 2 9.73778 32.3045 1.43314 9.73778 32.3045 1.43314
498 2 9.74805 32.311 -1.79103 9.74805 32.311 -1.79103
499 1 10.8335 30.6614 -0.178822 10.8335 30.6614 -0.178822
500 2 12.9248 30.6615 1.44194 12.9248 30.6615 1.44194
501 2 12.9382 30.6606 -1.78222 12.9382 30.6606 -1.78222
502 1 14.0216 32.3074 -0.166037 14.0216 32.3074 -0.166037
503 2 16.1143 32.3094 1.45307 16.1143 32.3094 1.45307
504 2 16.1252 32.3047 -1.77108 16.1252 32.3047 -1.77108
505 1 17.2104 30.6607 -0.152983 17.2104 30.6607 -0.152983
506 2 19.3023 30.6643 1.46728 19.3023 30.6643 1.46728
507 2 19.3149 30.6563 -1.75685 19.3149 30.6563 -1.75685
508 1 20.3987 32.3067 -0.144612 20.3987 32.3067 -0.144612
509 2 22.4913 32.3109 1.47479 22.4913 32.3109 1.47479
510 2 22.5026 32.302 -1.74934 22.5026 32.302 -1.74934
511 1 23.5876 30.6602 -0.128939 23.5876 30.6602 -0.128939
512 2 25.6814 30.6635 1.48896 25.6814 30.6635 1.48896
513 2 25.6903 30.6566 -1.73521 25.6903 30.6566 -1.73521
514 1 26.7758 32.3065 -0.123767 26.7758 32.3065 -0.123767
515 2 28.8712 32.3099 1.49198 28.8712 32.3099 1.49198
516 2 28.8768 32.3032 -1.73219 28.8768 32.3032 -1.73219
517 1 29.9647 30.6604 -0.114928 29.9647 30.6604 -0.114928
518 2 32.0639 30.6614 1.49607 32.0639 30.6614 1.49607
519 2 32.062 30.6597 -1.72812 32.062 30.6597 -1.72812
520 1 33.153 32.307 -0.11767 33.153 32.307 -0.11767
521 2 35.2547 32.3078 1.49008 35.2547 32.3078 1.49008
522 2 35.2477 32.3064 -1.73413 35.2477 32.3064 -1.73413
523 1 36.3419 30.661 -0.123738 36.3419 30.661 -0.123738
524 2 38.4477 30.6586 1.47864 38.4477 30.6586 1.47864
525 2 38.4324 30.6638 -1.74555 38.4324 30.6638 -1.74555
526 1 39.53 32.3075 -0.136074 39.53 32.3075 -0.136074
527 2 41.6372 32.3041 1.46439 41.6372 32.3041 1.46439
528 2 41.619 32.3111 -1.7598 41.619 32.3111 -1.7598
529 1 42.7187 30.6615 -0.157361 42.7187 30.6615 -0.157361
530 2 44.8278 30.6549 1.44036 44.8278 30.6549 1.44036
531 2 44.8055 30.6682 -1.78378 44.8055 30.6682 -1.78378
532 1 45.9066 32.3078 -0.172405 45.9066 32.3078 -0.172405
533 2 48.0135 32.2994 1.42818 48.0135 32.2994 1.42818
534 2 47.9958 32.3162 -1.79598 47.9958 32.3162 -1.79598
535 1 49.0952 30.6617 -0.198332 49.0952 30.6617 -0.198332
536 2 51.1996 30.6522 1.40517 51.1996 30.6522 1.40517
537 2 51.1865 30.6711 -1.81901 51.1865 30.6711 -1.81901
538 1 52.2829 32.308 -0.201531 52.2829 32.308 -0.201531