ITEM: TIMESTEP
336000
ITEM: NUMBER OF ATOMS
810
ITEM: BOX BOUNDS pp pp pp
1.2849001395617288e-03 5.3016320099859506e+01
8.1394622342039402e-01 5.0202268776579182e+01
-1.0000000000000000e+01 1.0000000000000000e+01
ITEM: ATOMS id type x y z xu yu zu
1 1 0.220715 1.02898 -0.1075 0.220715 1.02898 -0.1075
2 2 2.18569 1.04902 1.49927 2.18569 1.04902 1.49927
3 2 2.15682 1.0087 -1.74886 2.15682 1.0087 -1.74886
4 1 3.16596 2.67498 -0.154254 3.16596 2.67498 -0.154254
5 2 5.13304 2.69222 1.44993 5.13304 2.69222 1.44993
6 2 5.09995 2.65746 -1.79822 5.09995 2.65746 -1.79822
7 1 6.11127 1.02855 -0.166586 6.11127 1.02855 -0.166586
8 2 8.08192 1.04343 1.43328 8.08192 1.04343 1.43328
9 2 8.04164 1.01334 -1.81484 8.04164 1.01334 -1.81484
10 1 9.05647 2.67454 -0.218501 9.05647 2.67454 -0.218501
11 2 11.0241 2.68503 1.38509 11.0241 2.68503 1.38509
12 2 10.9899 2.66381 -1.86317 10.9899 2.66381 -1.86317
13 1 12.0017 1.02806 -0.238625 12.0017 1.02806 -0.238625
14 2 13.9675 1.03842 1.36718 13.9675 1.03842 1.36718
15 2 13.937 1.01745 -1.88113 13.937 1.01745 -1.88113
16 1 14.9469 2.67418 -0.276985 14.9469 2.67418 -0.276985
17 2 16.906 2.68132 1.33691 16.906 2.68132 1.33691
18 2 16.8889 2.66688 -1.91153 16.8889 2.66688 -1.91153
19 1 17.8921 1.02772 -0.285126 17.8921 1.02772 -0.285126
20 2 19.8449 1.03747 1.33648 19.8449 1.03747 1.33648
21 2 19.8406 1.01786 -1.91197 19.8406 1.01786 -1.91197
22 1 20.8375 2.67397 -0.298951 20.8375 2.67397 -0.298951
23 2 22.7836 2.68338 1.33061 22.7836 2.68338 1.33061
24 2 22.7925 2.66451 -1.91782 22.7925 2.66451 -1.91782
25 1 23.7828 1.02762 -0.281227 23.7828 1.02762 -0.281227
26 2 25.7224 1.04076 1.35616 25.7224 1.04076 1.35616
27 2 25.7444 1.01455 -1.89216 25.7444 1.01455 -1.89216
28 1 26.7282 2.67396 -0.274485 26.7282 2.67396 -0.274485
29 2 28.6651 2.68875 1.36599 28.6651 2.68875 1.36599
30 2 28.6924 2.65928 -1.88226 28.6924 2.65928 -1.88226
31 1 29.6734 1.0278 -0.234827 29.6734 1.0278 -0.234827
32 2 31.6077 1.04528 1.40882 31.6077 1.04528 1.40882
33 2 31.6402 1.01053 -1.83935 31.6402 1.01053 -1.83935
34 1 32.6187 2.6742 -0.222906 32.6187 2.6742 -0.222906
35 2 34.554 2.69452 1.41947 34.554 2.69452 1.41947
36 2 34.5844 2.65414 -1.82866 34.5844 2.65414 -1.82866
37 1 35.5638 1.02819 -0.174767 35.5638 1.02819 -0.174767
38 2 37.4991 1.04975 1.4676 37.4991 1.04975 1.4676
39 2 37.5295 1.00694 -1.78049 37.5295 1.00694 -1.78049
40 1 38.509 2.67463 -0.168831 38.509 2.67463 -0.168831
41 2 40.4471 2.69983 1.47012 40.4471 2.69983 1.47012
42 2 40.4719 2.64973 -1.77792 40.4719 2.64973 -1.77792
43 1 41.4542 1.02869 -0.120891 41.4542 1.02869 -0.120891
44 2 43.395 1.05297 1.51496 43.395 1.05297 1.51496
45 2 43.4145 1.00468 -1.73312 43.4145 1.00468 -1.73312
46 1 44.3996 2.67507 -0.127642 44.3996 2.67507 -0.127642
47 2 46.3452 2.70184 1.5024 46.3452 2.70184 1.5024
48 2 46.3552 2.64848 -1.74564 46.3552 2.64848 -1.74564
49 1 47.345 1.02905 -0.0915133 47.345 1.02905 -0.0915133
50 2 49.2973 1.05257 1.5306 49.2973 1.05257 1.5306
51 2 49.2939 1.00555 -1.71756 49.2939 1.00555 -1.71756
52 1 50.2904 2.67524 -0.118516 50.2904 2.67524 -0.118516
53 2 52.2481 2.69876 1.49701 52.2481 2.69876 1.49701
54 2 52.2339 2.65161 -1.75113 52.2339 2.65161 -1.75113
55 1 0.220662 4.32131 -0.155554 0.220662 4.32131 -0.155554
56 2 2.18165 4.34119 1.45596 2.18165 4.34119 1.45596
57 2 2.16076 4.30127 -1.79225 2.16076 4.30127 -1.79225
58 1 3.16592 5.96737 -0.195042 3.16592 5.96737 -0.195042
59 2 5.12748 5.98005 1.4158 5.12748 5.98005 1.4158
60 2 5.10548 5.95454 -1.83254 5.10548 5.95454 -1.83254
61 1 6.11121 4.32098 -0.202106 6.11121 4.32098 -0.202106
62 2 8.07723 4.33236 1.40338 8.07723 4.33236 1.40338
63 2 8.0463 4.3094 -1.8449 8.0463 4.3094 -1.8449
64 1 9.05649 5.9671 -0.242075 9.05649 5.9671 -0.242075
65 2 11.0193 5.97094 1.36729 11.0193 5.97094 1.36729
66 2 10.9948 5.9631 -1.88112 10.9948 5.9631 -1.88112
67 1 12.0017 4.32065 -0.26037 12.0017 4.32065 -0.26037
68 2 13.9643 4.32572 1.34927 13.9643 4.32572 1.34927
69 2 13.9402 4.3154 -1.89914 13.9402 4.3154 -1.89914
70 1 14.947 5.96686 -0.287631 14.947 5.96686 -0.287631
71 2 16.9044 5.96708 1.32824 16.9044 5.96708 1.32824
72 2 16.8906 5.96651 -1.92025 16.8906 5.96651 -1.92025
73 1 17.8922 4.3204 -0.299873 17.8922 4.3204 -0.299873
74 2 19.8449 4.32513 1.3217 19.8449 4.32513 1.3217
75 2 19.8406 4.31555 -1.92679 19.8406 4.31555 -1.92679
76 1 20.8375 5.96668 -0.308703 20.8375 5.96668 -0.308703
77 2 22.7854 5.97007 1.31872 22.7854 5.97007 1.31872
78 2 22.7908 5.96319 -1.92977 22.7908 5.96319 -1.92977
79 1 23.7828 4.32027 -0.300364 23.7828 4.32027 -0.300364
80 2 25.7246 4.3301 1.33434 25.7246 4.3301 1.33434
81 2 25.7422 4.31042 -1.91406 25.7422 4.31042 -1.91406
82 1 26.7282 5.96659 -0.294418 26.7282 5.96659 -0.294418
83 2 28.6682 5.97704 1.34243 28.6682 5.97704 1.34243
84 2 28.6895 5.95617 -1.90593 28.6895 5.95617 -1.90593
85 1 29.6735 4.32032 -0.264704 29.6735 4.32032 -0.264704
86 2 31.6102 4.33689 1.37602 31.6102 4.33689 1.37602
87 2 31.6379 4.30392 -1.87221 31.6379 4.30392 -1.87221
88 1 32.6188 5.9667 -0.256332 32.6188 5.9667 -0.256332
89 2 34.557 5.98484 1.38255 34.557 5.98484 1.38255
90 2 34.5817 5.94875 -1.86568 34.5817 5.94875 -1.86568
91 1 35.5639 4.32061 -0.21574 35.5639 4.32061 -0.21574
92 2 37.5014 4.34371 1.42395 37.5014 4.34371 1.42395
93 2 37.5275 4.29777 -1.82415 37.5275 4.29777 -1.82415
94 1 38.5092 5.96699 -0.215445 38.5092 5.96699 -0.215445
95 2 40.4494 5.99187 1.42091 40.4494 5.99187 1.42091
96 2 40.47 5.94238 -1.82717 40.47 5.94238 -1.82717
97 1 41.4543 4.32101 -0.171746 41.4543 4.32101 -0.171746
98 2 43.3959 4.34855 1.46305 43.3959 4.34855 1.46305
99 2 43.4139 4.29374 -1.78495 43.4139 4.29374 -1.78495
100 1 44.3997 5.96733 -0.183341 44.3997 5.96733 -0.183341
101 2 46.3446 5.99437 1.44746 46.3446 5.99437 1.44746
102 2 46.356 5.94051 -1.80058 46.356 5.94051 -1.80058
103 1 47.345 4.32134 -0.145766 47.345 4.32134 -0.145766
104 2 49.2954 4.34768 1.47864 49.2954 4.34768 1.47864
105 2 49.296 4.29506 -1.76945 49.296 4.29506 -1.76945
106 1 50.2904 5.96751 -0.172125 50.2904 5.96751 -0.172125
107 2 52.2442 5.98958 1.44809 52.2442 5.98958 1.44809
108 2 52.2378 5.94543 -1.80013 52.2378 5.94543 -1.80013
109 1 0.22067 7.61368 -0.200628 0.22067 7.61368 -0.200628
110 2 2.1759 7.62764 1.41781 2.1759 7.62764 1.41781
111 2 2.16654 7.59968 -1.83059 2.16654 7.59968 -1.83059
112 1 3.16597 9.2599 -0.223732 3.16597 9.2599 -0.223732
113 2 5.12091 9.26332 1.39509 5.12091 9.26332 1.39509
114 2 5.11218 9.25641 -1.85341 5.11218 9.25641 -1.85341
115 1 6.11123 7.61352 -0.228299 6.11123 7.61352 -0.228299
116 2 8.07128 7.61689 1.38441 8.07128 7.61689 1.38441
117 2 8.05237 7.61002 -1.86404 8.05237 7.61002 -1.86404
118 1 9.05659 9.25975 -0.249324 9.05659 9.25975 -0.249324
119 2 11.0144 9.25381 1.36604 11.0144 9.25381 1.36604
120 2 10.9999 9.26556 -1.88242 10.9999 9.26556 -1.88242
121 1 12.0018 7.61332 -0.268566 12.0018 7.61332 -0.268566
122 2 13.9609 7.6099 1.34521 13.9609 7.6099 1.34521
123 2 13.9438 7.6166 -1.90325 13.9438 7.6166 -1.90325
124 1 14.9471 9.25957 -0.280985 14.9471 9.25957 -0.280985
125 2 16.9033 9.25051 1.33628 16.9033 9.25051 1.33628
126 2 16.892 9.26849 -1.91216 16.892 9.26849 -1.91216
127 1 17.8922 7.61313 -0.300549 17.8922 7.61313 -0.300549
128 2 19.8454 7.60989 1.32039 19.8454 7.60989 1.32039
129 2 19.8402 7.61624 -1.9281 19.8402 7.61624 -1.9281
130 1 20.8376 9.25941 -0.302246 20.8376 9.25941 -0.302246
131 2 22.7878 9.25402 1.32222 22.7878 9.25402 1.32222
132 2 22.7885 9.26468 -1.92626 22.7885 9.26468 -1.92626
133 1 23.7829 7.61297 -0.307313 23.7829 7.61297 -0.307313
134 2 25.7278 7.6157 1.32361 25.7278 7.6157 1.32361
135 2 25.7392 7.61018 -1.92486 25.7392 7.61018 -1.92486
136 1 26.7283 9.25929 -0.299933 26.7283 9.25929 -0.299933
137 2 28.6722 9.26147 1.3322 28.6722 9.26147 1.3322
138 2 28.6856 9.25709 -1.91626 28.6856 9.25709 -1.91626
139 1 29.6736 7.61293 -0.285821 29.6736 7.61293 -0.285821
140 2 31.6139 7.62381 1.35064 31.6139 7.62381 1.35064
141 2 31.6345 7.60215 -1.89774 31.6345 7.60215 -1.89774
142 1 32.6189 9.25931 -0.27824 32.6189 9.25931 -0.27824
143 2 34.5609 9.26995 1.35604 34.5609 9.26995 1.35604
144 2 34.578 9.24879 -1.89237 34.578 9.24879 -1.89237
145 1 35.5641 7.61308 -0.252333 35.5641 7.61308 -0.252333
146 2 37.5047 7.63201 1.38359 37.5047 7.63201 1.38359
147 2 37.5245 7.59436 -1.86466 37.5245 7.59436 -1.86466
148 1 38.5094 9.25948 -0.253624 38.5094 9.25948 -0.253624
149 2 40.4522 9.27736 1.37953 40.4522 9.27736 1.37953
150 2 40.4675 9.24181 -1.86876 40.4675 9.24181 -1.86876
151 1 41.4545 7.61335 -0.221989 41.4545 7.61335 -0.221989
152 2 43.3972 7.6376 1.41144 43.3972 7.6376 1.41144
153 2 43.413 7.58935 -1.83668 43.413 7.58935 -1.83668
154 1 44.3999 9.25972 -0.232382 44.3999 9.25972 -0.232382
155 2 46.3441 9.27992 1.39928 46.3441 9.27992 1.39928
156 2 46.3569 9.23974 -1.84896 46.3569 9.23974 -1.84896
157 1 47.3451 7.61362 -0.200567 47.3451 7.61362 -0.200567
158 2 49.2926 7.63628 1.42715 49.2926 7.63628 1.42715
159 2 49.2989 7.5911 -1.82105 49.2989 7.5911 -1.82105
160 1 50.2905 9.25991 -0.218199 50.2905 9.25991 -0.218199
161 2 52.2393 9.27431 1.40794 52.2393 9.27431 1.40794
162 2 52.2428 9.2456 -1.84047 52.2428 9.2456 -1.84047
163 1 0.220758 10.9062 -0.230029 0.220758 10.9062 -0.230029
164 2 2.16965 10.9097 1.39602 2.16965 10.9097 1.39602
165 2 2.17296 10.9028 -1.85251 2.17296 10.9028 -1.85251
166 1 3.16609 12.5526 -0.230998 3.16609 12.5526 -0.230998
167 2 5.11467 12.5446 1.39544 5.11467 12.5446 1.39544
168 2 5.11867 12.5604 -1.85304 5.11867 12.5604 -1.85304
169 1 6.11134 10.9062 -0.235604 6.11134 10.9062 -0.235604
170 2 8.06532 10.8988 1.38439 8.06532 10.8988 1.38439
171 2 8.05858 10.9134 -1.86409 8.05858 10.9134 -1.86409
172 1 9.05674 12.5524 -0.234716 9.05674 12.5524 -0.234716
173 2 11.0103 12.5361 1.38568 11.0103 12.5361 1.38568
174 2 11.0043 12.5685 -1.86266 11.0043 12.5685 -1.86266
175 1 12.0019 10.906 -0.25683 12.0019 10.906 -0.25683
176 2 13.9582 10.8925 1.36034 13.9582 10.8925 1.36034
177 2 13.9468 10.9193 -1.88804 13.9468 10.9193 -1.88804
178 1 14.9472 12.5522 -0.253842 14.9472 12.5522 -0.253842
179 2 16.9031 12.5337 1.36378 16.9031 12.5337 1.36378
180 2 16.8925 12.5705 -1.8845 16.8925 12.5705 -1.8845
181 1 17.8924 10.9058 -0.282352 17.8924 10.9058 -0.282352
182 2 19.8467 10.8931 1.33716 19.8467 10.8931 1.33716
183 2 19.8391 10.9184 -1.91123 19.8391 10.9184 -1.91123
184 1 20.8377 12.552 -0.276511 20.8377 12.552 -0.276511
185 2 22.7908 12.5372 1.34443 22.7908 12.5372 1.34443
186 2 22.7856 12.5667 -1.90393 22.7856 12.5667 -1.90393
187 1 23.7829 10.9057 -0.296405 23.7829 10.9057 -0.296405
188 2 25.7316 10.8989 1.33005 25.7316 10.8989 1.33005
189 2 25.7355 10.9124 -1.91842 25.7355 10.9124 -1.91842
190 1 26.7283 12.552 -0.286111 26.7283 12.552 -0.286111
191 2 28.6765 12.544 1.34088 28.6765 12.544 1.34088
192 2 28.6814 12.56 -1.90758 28.6814 12.56 -1.90758
193 1 29.6737 10.9056 -0.290152 29.6737 10.9056 -0.290152
194 2 31.6182 10.9069 1.3412 31.6182 10.9069 1.3412
195 2 31.6303 10.9044 -1.90729 31.6303 10.9044 -1.90729
196 1 32.619 12.552 -0.280609 32.619 12.552 -0.280609
197 2 34.5652 12.5514 1.34873 34.5652 12.5514 1.34873
198 2 34.5739 12.5528 -1.89978 34.5739 12.5528 -1.89978
199 1 35.5642 10.9057 -0.273734 35.5642 10.9057 -0.273734
200 2 37.5085 10.9148 1.35782 37.5085 10.9148 1.35782
201 2 37.521 10.8968 -1.89063 37.521 10.8968 -1.89063
202 1 38.5094 12.5522 -0.271731 38.5094 12.5522 -0.271731
203 2 40.4552 12.5576 1.35801 40.4552 12.5576 1.35801
204 2 40.4647 12.5469 -1.89048 40.4647 12.5469 -1.89048
205 1 41.4546 10.9059 -0.25806 41.4546 10.9059 -0.25806
206 2 43.3987 10.92 1.3737 43.3987 10.92 1.3737
207 2 43.4117 10.892 -1.87467 43.4117 10.892 -1.87467
208 1 44.4 12.5524 -0.26084 44.4 12.5524 -0.26084
209 2 46.3439 12.5599 1.37118 46.3439 12.5599 1.37118
210 2 46.3573 12.545 -1.87728 46.3573 12.545 -1.87728
211 1 47.3453 10.9061 -0.241465 47.3453 10.9061 -0.241465
212 2 49.2899 10.9187 1.3897 49.2899 10.9187 1.3897
213 2 49.3018 10.8937 -1.8587 49.3018 10.8937 -1.8587
214 1 50.2906 12.5525 -0.243735 50.2906 12.5525 -0.243735
215 2 52.2348 12.5549 1.38797 52.2348 12.5549 1.38797
216 2 52.2476 12.5502 -1.86054 52.2476 12.5502 -1.86054
217 1 0.220886 14.1989 -0.23496 0.220886 14.1989 -0.23496
218 2 2.1644 14.1905 1.3975 2.1644 14.1905 1.3975
219 2 2.17845 14.2073 -1.85095 2.17845 14.2073 -1.85095
220 1 3.1662 15.8452 -0.214057 3.1662 15.8452 -0.214057
221 2 5.10998 15.8275 1.41811 5.10998 15.8275 1.41811
222 2 5.12359 15.8627 -1.83019 5.12359 15.8627 -1.83019
223 1 6.11147 14.1988 -0.219785 6.11147 14.1988 -0.219785
224 2 8.06043 14.1812 1.4062 8.06043 14.1812 1.4062
225 2 8.06375 14.2162 -1.84212 8.06375 14.2162 -1.84212
226 1 9.05687 15.8449 -0.19937 9.05687 15.8449 -0.19937
227 2 11.0076 15.821 1.42438 11.0076 15.821 1.42438
228 2 11.0073 15.8685 -1.82378 11.0073 15.8685 -1.82378
229 1 12.0021 14.1985 -0.223999 12.0021 14.1985 -0.223999
230 2 13.9566 14.1763 1.39523 13.9566 14.1763 1.39523
231 2 13.9487 14.2206 -1.85297 13.9487 14.2206 -1.85297
232 1 14.9474 15.8446 -0.208869 14.9474 15.8446 -0.208869
233 2 16.9038 15.8196 1.40805 16.9038 15.8196 1.40805
234 2 16.892 15.8694 -1.84007 16.892 15.8694 -1.84007
235 1 17.8925 14.1983 -0.244968 17.8925 14.1983 -0.244968
236 2 19.8486 14.1773 1.37237 19.8486 14.1773 1.37237
237 2 19.8375 14.2192 -1.87584 19.8375 14.2192 -1.87584
238 1 20.8378 15.8445 -0.233804 20.8378 15.8445 -0.233804
239 2 22.7939 15.8226 1.38346 22.7939 15.8226 1.38346
240 2 22.7827 15.8663 -1.86473 22.7827 15.8663 -1.86473
241 1 23.783 14.1983 -0.266332 23.783 14.1983 -0.266332
242 2 25.7354 14.1823 1.35553 25.7354 14.1823 1.35553
243 2 25.7318 14.2142 -1.89281 25.7318 14.2142 -1.89281
244 1 26.7284 15.8445 -0.253487 26.7284 15.8445 -0.253487
245 2 28.6805 15.8274 1.36883 28.6805 15.8274 1.36883
246 2 28.6776 15.8616 -1.87949 28.6776 15.8616 -1.87949
247 1 29.6737 14.1983 -0.273723 29.6737 14.1983 -0.273723
248 2 31.6224 14.1885 1.35258 31.6224 14.1885 1.35258
249 2 31.6262 14.2081 -1.89587 31.6262 14.2081 -1.89587
250 1 32.619 15.8446 -0.260585 32.619 15.8446 -0.260585
251 2 34.5688 15.8322 1.36445 34.5688 15.8322 1.36445
252 2 34.5704 15.8572 -1.88398 34.5704 15.8572 -1.88398
253 1 35.5642 14.1984 -0.272162 35.5642 14.1984 -0.272162
254 2 37.512 14.1944 1.35519 37.512 14.1944 1.35519
255 2 37.5175 14.2026 -1.89332 37.5175 14.2026 -1.89332
256 1 38.5095 15.8449 -0.263266 38.5095 15.8449 -0.263266
257 2 40.458 15.8362 1.36325 40.458 15.8362 1.36325
258 2 40.4621 15.8538 -1.88522 40.4621 15.8538 -1.88522
259 1 41.4547 14.1986 -0.268804 41.4547 14.1986 -0.268804
260 2 43.4006 14.1985 1.36089 43.4006 14.1985 1.36089
261 2 43.41 14.199 -1.88761 43.41 14.199 -1.88761
262 1 44.4001 15.8451 -0.260272 44.4001 15.8451 -0.260272
263 2 46.3446 15.8383 1.37103 46.3446 15.8383 1.37103
264 2 46.3567 15.8522 -1.87743 46.3567 15.8522 -1.87743
265 1 47.3454 14.1989 -0.256652 47.3454 14.1989 -0.256652
266 2 49.2881 14.1979 1.37684 49.2881 14.1979 1.37684
267 2 49.3039 14.2 -1.87164 49.3039 14.2 -1.87164
268 1 50.2907 15.8453 -0.24158 50.2907 15.8453 -0.24158
269 2 52.2319 15.8352 1.39377 52.2319 15.8352 1.39377
270 2 52.2507 15.8554 -1.85465 52.2507 15.8554 -1.85465
271 1 0.220982 17.4916 -0.214506 0.220982 17.4916 -0.214506
272 2 2.16126 17.4738 1.42181 2.16126 17.4738 1.42181
273 2 2.18177 17.5092 -1.82646 2.18177 17.5092 -1.82646
274 1 3.16626 19.1377 -0.17815 3.16626 19.1377 -0.17815
275 2 5.10759 19.1152 1.45699 5.10759 19.1152 1.45699
276 2 5.1261 19.1598 -1.79117 5.1261 19.1598 -1.79117
277 1 6.11157 17.4913 -0.184136 6.11157 17.4913 -0.184136
278 2 8.05734 17.4676 1.44567 8.05734 17.4676 1.44567
279 2 8.06703 17.5146 -1.80248 8.06703 17.5146 -1.80248
280 1 9.05695 19.1372 -0.151649 9.05695 19.1372 -0.151649
281 2 11.0066 19.1117 1.47351 11.0066 19.1117 1.47351
282 2 11.0085 19.1624 -1.77461 11.0085 19.1624 -1.77461
283 1 12.0022 17.4909 -0.175782 12.0022 17.4909 -0.175782
284 2 13.9563 17.4645 1.44404 13.9563 17.4645 1.44404
285 2 13.9493 17.517 -1.80405 13.9493 17.517 -1.80405
286 1 14.9475 19.1369 -0.155494 14.9475 19.1369 -0.155494
287 2 16.9052 19.1114 1.45996 16.9052 19.1114 1.45996
288 2 16.8909 19.1622 -1.78813 16.8909 19.1622 -1.78813
289 1 17.8926 17.4907 -0.194334 17.8926 17.4907 -0.194334
290 2 19.8508 17.4656 1.42044 19.8508 17.4656 1.42044
291 2 19.8355 17.5156 -1.82765 19.8355 17.5156 -1.82765
292 1 20.8379 19.1368 -0.182836 20.8379 19.1368 -0.182836
293 2 22.7967 19.1132 1.4313 22.7967 19.1132 1.4313
294 2 22.7801 19.1604 -1.81683 22.7801 19.1604 -1.81683
295 1 23.7831 17.4907 -0.221858 23.7831 17.4907 -0.221858
296 2 25.7388 17.4689 1.39602 25.7388 17.4689 1.39602
297 2 25.7285 17.5125 -1.85217 25.7285 17.5125 -1.85217
298 1 26.7285 19.1369 -0.208984 26.7285 19.1369 -0.208984
299 2 28.6832 19.115 1.41013 28.6832 19.115 1.41013
300 2 28.6749 19.1588 -1.83807 28.6749 19.1588 -1.83807
301 1 29.6738 17.4908 -0.238818 29.6738 17.4908 -0.238818
302 2 31.6258 17.4721 1.38356 31.6258 17.4721 1.38356
303 2 31.623 17.5096 -1.86474 31.623 17.5096 -1.86474
304 1 32.6191 19.1371 -0.22244 32.6191 19.1371 -0.22244
305 2 34.5711 19.1162 1.39987 34.5711 19.1162 1.39987
306 2 34.5682 19.1582 -1.84839 34.5682 19.1582 -1.84839
307 1 35.5643 17.491 -0.246574 35.5643 17.491 -0.246574
308 2 37.5148 17.475 1.37748 37.5148 17.475 1.37748
309 2 37.5148 17.5073 -1.87088 37.5148 17.5073 -1.87088
310 1 38.5095 19.1374 -0.23029 38.5095 19.1374 -0.23029
311 2 40.4601 19.1177 1.39368 40.4601 19.1177 1.39368
312 2 40.46 19.1575 -1.85459 40.46 19.1575 -1.85459
313 1 41.4548 17.4914 -0.250802 41.4548 17.4914 -0.250802
314 2 43.4026 17.4776 1.37649 43.4026 17.4776 1.37649
315 2 43.4081 17.5054 -1.8719 43.4081 17.5054 -1.8719
316 1 44.4001 19.1378 -0.2319 44.4001 19.1378 -0.2319
317 2 46.3461 19.1195 1.39762 46.3461 19.1195 1.39762
318 2 46.3553 19.1562 -1.85067 46.3553 19.1562 -1.85067
319 1 47.3454 17.4916 -0.242446 47.3454 17.4916 -0.242446
320 2 49.2878 17.478 1.39145 49.2878 17.478 1.39145
321 2 49.3043 17.5052 -1.85691 49.3043 17.5052 -1.85691
322 1 50.2908 19.1379 -0.213862 50.2908 19.1379 -0.213862
323 2 52.2311 19.119 1.42252 52.2311 19.119 1.42252
324 2 52.2516 19.1567 -1.82573 52.2516 19.1567 -1.82573
325 1 0.221009 20.784 -0.176135 0.221009 20.784 -0.176135
326 2 2.16058 20.7624 1.46108 2.16058 20.7624 1.46108
327 2 2.1825 20.8054 -1.78708 2.1825 20.8054 -1.78708
328 1 3.16627 22.43 -0.134429 3.16627 22.43 -0.134429
329 2 5.1077 22.4092 1.50071 5.1077 22.4092 1.50071
330 2 5.126 22.4506 -1.74749 5.126 22.4506 -1.74749
331 1 6.1116 20.7836 -0.1388 6.1116 20.7836 -0.1388
332 2 8.0564 20.7604 1.4923 8.0564 20.7604 1.4923
333 2 8.06805 20.8065 -1.75586 8.06805 20.8065 -1.75586
334 1 9.05698 22.4296 -0.104826 9.05698 22.4296 -0.104826
335 2 11.0073 22.4096 1.51983 11.0073 22.4096 1.51983
336 2 11.008 22.4493 -1.72844 11.008 22.4493 -1.72844
337 1 12.0023 20.7832 -0.124276 12.0023 20.7832 -0.124276
338 2 13.957 20.7597 1.49489 13.957 20.7597 1.49489
339 2 13.9487 20.8064 -1.75328 13.9487 20.8064 -1.75328
340 1 14.9476 22.4292 -0.107988 14.9476 22.4292 -0.107988
341 2 16.9068 22.4104 1.50588 16.9068 22.4104 1.50588
342 2 16.8894 22.448 -1.74238 16.8894 22.448 -1.74238
343 1 17.8928 20.783 -0.142618 17.8928 20.783 -0.142618
344 2 19.8529 20.7605 1.46993 19.8529 20.7605 1.46993
345 2 19.8336 20.8053 -1.77822 19.8336 20.8053 -1.77822
346 1 20.838 22.4292 -0.13721 20.838 22.4292 -0.13721
347 2 22.7983 22.4104 1.47532 22.7983 22.4104 1.47532
348 2 22.7787 22.4479 -1.77292 22.7787 22.4479 -1.77292
349 1 23.7832 20.783 -0.173786 23.7832 20.783 -0.173786
350 2 25.741 20.7612 1.4417 25.741 20.7612 1.4417
351 2 25.7265 20.8048 -1.80649 25.7265 20.8048 -1.80649
352 1 26.7285 22.4292 -0.164583 26.7285 22.4292 -0.164583
353 2 28.684 22.4087 1.45375 28.684 22.4087 1.45375
354 2 28.6742 22.4498 -1.79449 28.6742 22.4498 -1.79449
355 1 29.6738 20.7831 -0.194231 29.6738 20.7831 -0.194231
356 2 31.6274 20.7608 1.42636 31.6274 20.7608 1.42636
357 2 31.6215 20.8057 -1.82185 31.6215 20.8057 -1.82185
358 1 32.6191 22.4294 -0.176692 32.6191 22.4294 -0.176692
359 2 34.5715 22.4061 1.44521 34.5715 22.4061 1.44521
360 2 34.5678 22.453 -1.80298 34.5678 22.453 -1.80298
361 1 35.5643 20.7834 -0.203859 35.5643 20.7834 -0.203859
362 2 37.5163 20.7602 1.41848 37.5163 20.7602 1.41848
363 2 37.5134 20.8069 -1.82972 37.5134 20.8069 -1.82972
364 1 38.5095 22.4298 -0.18279 38.5095 22.4298 -0.18279
365 2 40.4613 22.4051 1.43984 40.4613 22.4051 1.43984
366 2 40.4589 22.4548 -1.8083 40.4589 22.4548 -1.8083
367 1 41.4548 20.7838 -0.210265 41.4548 20.7838 -0.210265
368 2 43.4045 20.7613 1.41478 43.4045 20.7613 1.41478
369 2 43.4062 20.8066 -1.83342 43.4062 20.8066 -1.83342
370 1 44.4001 22.4302 -0.185728 44.4001 22.4302 -0.185728
371 2 46.348 22.4065 1.44157 46.348 22.4065 1.44157
372 2 46.3534 22.4541 -1.80659 46.3534 22.4541 -1.80659
373 1 47.3455 20.7841 -0.205026 47.3455 20.7841 -0.205026
374 2 49.289 20.7629 1.42752 49.289 20.7629 1.42752
375 2 49.3031 20.8054 -1.82069 49.3031 20.8054 -1.82069
376 1 50.2908 22.4303 -0.170589 50.2908 22.4303 -0.170589
377 2 52.2322 22.4085 1.4645 52.2322 22.4085 1.4645
378 2 52.2505 22.4521 -1.78369 52.2505 22.4521 -1.78369
379 1 0.220981 24.0764 -0.131765 0.220981 24.0764 -0.131765
380 2 2.16217 24.0569 1.50365 2.16217 24.0569 1.50365
381 2 2.18088 24.0957 -1.74458 2.18088 24.0957 -1.74458
382 1 3.16625 25.7225 -0.0949599 3.16625 25.7225 -0.0949599
383 2 5.11014 25.7085 1.53739 5.11014 25.7085 1.53739
384 2 5.12355 25.7362 -1.71097 5.12355 25.7362 -1.71097
385 1 6.1116 24.076 -0.0967583 6.1116 24.076 -0.0967583
386 2 8.05765 24.0597 1.53303 8.05765 24.0597 1.53303
387 2 8.06684 24.0921 -1.71529 8.06684 24.0921 -1.71529
388 1 9.057 25.7221 -0.0717737 9.057 25.7221 -0.0717737
389 2 11.0093 25.7129 1.5506 11.0093 25.7129 1.5506
390 2 11.0059 25.7311 -1.69786 11.0059 25.7311 -1.69786
391 1 12.0023 24.0757 -0.0839051 12.0023 24.0757 -0.0839051
392 2 13.9585 24.0617 1.53371 13.9585 24.0617 1.53371
393 2 13.9473 24.0894 -1.71467 13.9473 24.0894 -1.71467
394 1 14.9476 25.7219 -0.0797687 14.9476 25.7219 -0.0797687
395 2 16.9079 25.7148 1.53288 16.9079 25.7148 1.53288
396 2 16.8883 25.7288 -1.71555 16.8883 25.7288 -1.71555
397 1 17.8928 24.0754 -0.104391 17.8928 24.0754 -0.104391
398 2 19.854 24.062 1.50708 19.854 24.062 1.50708
399 2 19.8326 24.0888 -1.74126 19.8326 24.0888 -1.74126
400 1 20.838 25.7217 -0.109939 20.838 25.7217 -0.109939
401 2 22.7979 25.7128 1.5032 22.7979 25.7128 1.5032
402 2 22.7791 25.7306 -1.74522 22.7791 25.7306 -1.74522
403 1 23.7832 24.0754 -0.135635 23.7832 24.0754 -0.135635
404 2 25.7411 24.0597 1.47993 25.7411 24.0597 1.47993
405 2 25.7265 24.0912 -1.76841 25.7265 24.0912 -1.76841
406 1 26.7285 25.7217 -0.132669 26.7285 25.7217 -0.132669
407 2 28.6824 25.7079 1.48774 28.6824 25.7079 1.48774
408 2 28.6758 25.7356 -1.76065 28.6758 25.7356 -1.76065
409 1 29.6739 24.0755 -0.152445 29.6739 24.0755 -0.152445
410 2 31.6266 24.0555 1.46915 31.6266 24.0555 1.46915
411 2 31.6222 24.0957 -1.77913 31.6222 24.0957 -1.77913
412 1 32.6191 25.7219 -0.135938 32.6191 25.7219 -0.135938
413 2 34.5698 25.7021 1.48812 34.5698 25.7021 1.48812
414 2 34.5695 25.7418 -1.76016 34.5695 25.7418 -1.76016
415 1 35.5643 24.0758 -0.156213 35.5643 24.0758 -0.156213
416 2 37.5161 24.0519 1.46643 37.5161 24.0519 1.46643
417 2 37.5136 24.0999 -1.78174 37.5136 24.0999 -1.78174
418 1 38.5095 25.7222 -0.134069 38.5095 25.7222 -0.134069
419 2 40.4611 25.6988 1.48886 40.4611 25.6988 1.48886
420 2 40.459 25.7458 -1.75932 40.459 25.7458 -1.75932
421 1 41.4548 24.0762 -0.159685 41.4548 24.0762 -0.159685
422 2 43.4058 24.0514 1.46389 43.4058 24.0514 1.46389
423 2 43.4049 24.1012 -1.78423 43.4049 24.1012 -1.78423
424 1 44.4 25.7225 -0.135084 44.4 25.7225 -0.135084
425 2 46.3496 25.6994 1.49035 46.3496 25.6994 1.49035
426 2 46.3517 25.7459 -1.75782 46.3517 25.7459 -1.75782
427 1 47.3454 24.0765 -0.156616 47.3454 24.0765 -0.156616
428 2 49.291 24.0537 1.47355 49.291 24.0537 1.47355
429 2 49.3011 24.0993 -1.77463 49.3011 24.0993 -1.77463
430 1 50.2907 25.7227 -0.124204 50.2907 25.7227 -0.124204
431 2 52.2347 25.7033 1.50794 52.2347 25.7033 1.50794
432 2 52.2479 25.742 -1.74032 52.2479 25.742 -1.74032
433 1 0.220936 27.3689 -0.0923891 0.220936 27.3689 -0.0923891
434 2 2.16554 27.3555 1.53906 2.16554 27.3555 1.53906
435 2 2.17745 27.3821 -1.70933 2.17745 27.3821 -1.70933
436 1 3.16623 29.0151 -0.0679 3.16623 29.0151 -0.0679
437 2 5.11437 29.0098 1.55942 5.11437 29.0098 1.55942
438 2 5.11932 29.0201 -1.68906 5.11932 29.0201 -1.68906
439 1 6.11161 27.3686 -0.068544 6.11161 27.3686 -0.068544
440 2 8.0608 27.3626 1.55758 8.0608 27.3626 1.55758
441 2 8.06371 27.3744 -1.69089 8.06371 27.3744 -1.69089
442 1 9.05701 29.0148 -0.059687 9.05701 29.0148 -0.059687
443 2 11.0124 29.0175 1.55899 11.0124 29.0175 1.55899
444 2 11.0029 29.012 -1.6895 11.0029 29.012 -1.6895
445 1 12.0024 27.3683 -0.0653445 12.0024 27.3683 -0.0653445
446 2 13.9604 27.3671 1.55014 13.9604 27.3671 1.55014
447 2 13.9455 27.3694 -1.69835 13.9455 27.3694 -1.69835
448 1 14.9476 29.0146 -0.0774435 14.9476 29.0146 -0.0774435
449 2 16.9083 29.0201 1.53462 16.9083 29.0201 1.53462
450 2 16.8878 29.0089 -1.71383 16.8878 29.0089 -1.71383
451 1 17.8928 27.3681 -0.090112 17.8928 27.3681 -0.090112
452 2 19.8537 27.3668 1.52182 19.8537 27.3668 1.52182
453 2 19.8329 27.3693 -1.72665 19.8329 27.3693 -1.72665
454 1 20.8379 29.0144 -0.107415 20.8379 29.0144 -0.107415
455 2 22.7956 29.0166 1.50849 22.7956 29.0166 1.50849
456 2 22.7813 29.0121 -1.74001 22.7813 29.0121 -1.74001
457 1 23.7832 27.368 -0.117641 23.7832 27.368 -0.117641
458 2 25.7389 27.362 1.50065 25.7389 27.362 1.50065
459 2 25.7286 27.374 -1.74784 25.7286 27.374 -1.74784
460 1 26.7285 29.0143 -0.120562 26.7285 29.0143 -0.120562
461 2 28.6787 29.0095 1.50436 28.6787 29.0095 1.50436
462 2 28.6795 29.0192 -1.74415 28.6795 29.0192 -1.74415
463 1 29.6738 27.3681 -0.12433 29.6738 27.3681 -0.12433
464 2 31.6236 27.3551 1.50092 31.6236 27.3551 1.50092
465 2 31.6251 27.3811 -1.74751 31.6251 27.3811 -1.74751
466 1 32.619 29.0144 -0.109633 32.619 29.0144 -0.109633
467 2 34.5662 29.002 1.51872 34.5662 29.002 1.51872
468 2 34.5729 29.027 -1.72971 34.5729 29.027 -1.72971
469 1 35.5643 27.3682 -0.115989 35.5643 27.3682 -0.115989
470 2 37.5141 27.3492 1.50908 37.5141 27.3492 1.50908
471 2 37.5154 27.3875 -1.73922 37.5154 27.3875 -1.73922
472 1 38.5094 29.0147 -0.0952238 38.5094 29.0147 -0.0952238
473 2 40.4592 28.9968 1.52988 40.4592 28.9968 1.52988
474 2 40.4606 29.0327 -1.71844 40.4606 29.0327 -1.71844
475 1 41.4547 27.3686 -0.112001 41.4547 27.3686 -0.112001
476 2 43.4059 27.3469 1.51147 43.4059 27.3469 1.51147
477 2 43.4047 27.3905 -1.73674 43.4047 27.3905 -1.73674
478 1 44.4 29.015 -0.0908335 44.4 29.015 -0.0908335
479 2 46.3503 28.9962 1.53371 46.3503 28.9962 1.53371
480 2 46.3508 29.0341 -1.71456 46.3508 29.0341 -1.71456
481 1 47.3453 27.3689 -0.10943 47.3453 27.3689 -0.10943
482 2 49.2932 27.3493 1.51812 49.2932 27.3493 1.51812
483 2 49.2987 27.3886 -1.73014 49.2987 27.3886 -1.73014
484 1 50.2907 29.0152 -0.0842637 50.2907 29.0152 -0.0842637
485 2 52.2379 29.0012 1.54399 52.2379 29.0012 1.54399
486 2 52.2445 29.0292 -1.7044 52.2445 29.0292 -1.7044
487 1 0.220893 30.6615 -0.0638501 0.220893 30.6615 -0.0638501
488 2 2.17005 30.6548 1.56217 2.17005 30.6548 1.56217
489 2 2.17289 30.668 -1.68631 2.17289 30.668 -1.68631
490 1 3.16621 32.3077 -0.0544249 3.16621 32.3077 -0.0544249
491 2 5.11971 32.3093 1.5664 5.11971 32.3093 1.5664
492 2 5.11393 32.306 -1.6821 5.11393 32.306 -1.6821
493 1 6.11161 30.6613 -0.0579915 6.11161 30.6613 -0.0579915
494 2 8.06528 30.6649 1.56271 8.06528 30.6649 1.56271
495 2 8.05921 30.6575 -1.68578 8.05921 30.6575 -1.68578
496 1 9.05697 32.3075 -0.0670629 9.05697 32.3075 -0.0670629
497 2 11.0161 32.3188 1.54694 11.0161 32.3188 1.54694
498 2 10.999 32.296 -1.70145 10.999 32.296 -1.70145
499 1 12.0023 30.6611 -0.0709096 12.0023 30.6611 -0.0709096
500 2 13.9623 30.6711 1.54215 13.9623 30.6711 1.54215
501 2 13.9435 30.6508 -1.70626 13.9435 30.6508 -1.70626
502 1 14.9475 32.3072 -0.0980481 14.9475 32.3072 -0.0980481
503 2 16.9082 32.3218 1.51394 16.9082 32.3218 1.51394
504 2 16.8877 32.2925 -1.73441 16.8877 32.2925 -1.73441
505 1 17.8927 30.6608 -0.101483 17.8927 30.6608 -0.101483
506 2 19.852 30.6703 1.5123 19.852 30.6703 1.5123
507 2 19.8344 30.6512 -1.73614 19.8344 30.6512 -1.73614
508 1 20.8378 32.307 -0.126977 20.8378 32.307 -0.126977
509 2 22.7919 32.3176 1.49306 22.7919 32.3176 1.49306
510 2 22.7848 32.2963 -1.7554 22.7848 32.2963 -1.7554
511 1 23.7831 30.6607 -0.122319 23.7831 30.6607 -0.122319
512 2 25.7349 30.6641 1.5007 25.7349 30.6641 1.5007
513 2 25.7325 30.6572 -1.74782 25.7325 30.6572 -1.74782
514 1 26.7284 32.307 -0.127731 26.7284 32.307 -0.127731
515 2 28.6737 32.3101 1.50295 28.6737 32.3101 1.50295
516 2 28.6842 32.3039 -1.74555 28.6842 32.3039 -1.74555
517 1 29.6737 30.6607 -0.114736 29.6737 30.6607 -0.114736
518 2 31.6191 30.6562 1.5159 31.6191 30.6562 1.5159
519 2 31.6295 30.6653 -1.7326 31.6295 30.6653 -1.7326
520 1 32.6189 32.3071 -0.10056 32.6189 32.3071 -0.10056
521 2 34.5616 32.3025 1.53321 34.5616 32.3025 1.53321
522 2 34.5773 32.3119 -1.71527 34.5773 32.3119 -1.71527
523 1 35.5641 30.6608 -0.090857 35.5641 30.6608 -0.090857
524 2 37.5105 30.6491 1.53842 37.5105 30.6491 1.53842
525 2 37.5188 30.6728 -1.71 37.5188 30.6728 -1.71
526 1 38.5093 32.3073 -0.0712662 38.5093 32.3073 -0.0712662
527 2 40.456 32.2961 1.55761 40.456 32.2961 1.55761
528 2 40.4636 32.3187 -1.6908 40.4636 32.3187 -1.6908
529 1 41.4546 30.6611 -0.0756664 41.4546 30.6611 -0.0756664
530 2 43.4045 30.645 1.54934 43.4045 30.645 1.54934
531 2 43.4058 30.6775 -1.69899 43.4058 30.6775 -1.69899
532 1 44.3998 32.3076 -0.0579905 44.3998 32.3076 -0.0579905
533 2 46.35 32.2939 1.56686 46.35 32.2939 1.56686
534 2 46.351 32.3215 -1.68152 46.351 32.3215 -1.68152
535 1 47.3453 30.6614 -0.0709779 47.3453 30.6614 -0.0709779
536 2 49.2951 30.6468 1.55428 49.2951 30.6468 1.55428
537 2 49.2967 30.6761 -1.69409 49.2967 30.6761 -1.69409
538 1 50.2906 32.3078 -0.0544289 50.2906 32.3078 -0.0544289