ITEM: TIMESTEP
3302000
ITEM: NUMBER OF ATOMS
810
ITEM: BOX BOUNDS pp pp pp
-7.6052647516778418e+00 6.0622869751676902e+01
8.1394622342039402e-01 5.0202268776579182e+01
-1.0000000000000000e+01 1.0000000000000000e+01
ITEM: ATOMS id type x y z xu yu zu
1 1 -0.55551 1.03263 -0.461019 -0.55551 1.03263 -0.461019
2 2 1.28979 1.02538 1.23302 1.28979 1.02538 1.23302
3 2 1.39972 1.03889 -2.02723 1.39972 1.03889 -2.02723
4 1 2.29452 2.67872 -0.358095 2.29452 2.67872 -0.358095
5 2 4.15757 2.66119 1.3158 4.15757 2.66119 1.3158
6 2 4.23278 2.69489 -1.9454 4.23278 2.69489 -1.9454
7 1 5.14563 1.03135 -0.309987 5.14563 1.03135 -0.309987
8 2 7.0174 1.0227 1.35434 7.0174 1.0227 1.35434
9 2 7.07541 1.03874 -1.90739 7.07541 1.03874 -1.90739
10 1 7.99674 2.67695 -0.251813 7.99674 2.67695 -0.251813
11 2 9.87982 2.65416 1.3995 9.87982 2.65416 1.3995
12 2 9.91563 2.69827 -1.86229 9.91563 2.69827 -1.86229
13 1 10.8484 1.02975 -0.24351 10.8484 1.02975 -0.24351
14 2 12.7394 1.0183 1.39887 12.7394 1.0183 1.39887
15 2 12.7594 1.0399 -1.86328 12.7594 1.0399 -1.86328
16 1 13.7 2.67529 -0.215276 13.7 2.67529 -0.215276
17 2 15.5952 2.65892 1.42247 15.5952 2.65892 1.42247
18 2 15.607 2.69043 -1.83963 15.607 2.69043 -1.83963
19 1 16.5518 1.02829 -0.221168 16.5518 1.02829 -0.221168
20 2 18.4497 1.01528 1.41343 18.4497 1.01528 1.41343
21 2 18.4561 1.04055 -1.84874 18.4561 1.04055 -1.84874
22 1 19.4035 2.67417 -0.2029 19.4035 2.67417 -0.2029
23 2 21.3031 2.66269 1.43013 21.3031 2.66269 1.43013
24 2 21.3063 2.68536 -1.83205 21.3063 2.68536 -1.83205
25 1 22.2554 1.02773 -0.21166 22.2554 1.02773 -0.21166
26 2 24.1537 1.0201 1.42275 24.1537 1.0201 1.42275
27 2 24.1594 1.03537 -1.83948 24.1594 1.03537 -1.83948
28 1 25.1072 2.67407 -0.198905 25.1072 2.67407 -0.198905
29 2 27.0105 2.66395 1.42975 27.0105 2.66395 1.42975
30 2 27.0063 2.68422 -1.83244 27.0063 2.68422 -1.83244
31 1 27.9591 1.02773 -0.212941 27.9591 1.02773 -0.212941
32 2 29.8643 1.02036 1.41313 29.8643 1.02036 1.41313
33 2 29.8561 1.03489 -1.84908 29.8561 1.03489 -1.84908
34 1 30.811 2.67389 -0.213119 30.811 2.67389 -0.213119
35 2 32.7205 2.65944 1.40806 32.7205 2.65944 1.40806
36 2 32.7039 2.6878 -1.85401 32.7039 2.6878 -1.85401
37 1 33.6629 1.02722 -0.242174 33.6629 1.02722 -0.242174
38 2 35.5595 1.01368 1.39427 35.5595 1.01368 1.39427
39 2 35.5688 1.03988 -1.86784 35.5688 1.03988 -1.86784
40 1 36.5151 2.67285 -0.220671 36.5151 2.67285 -0.220671
41 2 38.4079 2.65157 1.4204 38.4079 2.65157 1.4204
42 2 38.4247 2.69299 -1.84152 38.4247 2.69299 -1.84152
43 1 39.367 1.02587 -0.22683 39.367 1.02587 -0.22683
44 2 41.2682 0.993475 1.40364 41.2682 0.993475 1.40364
45 2 41.2683 1.05791 -1.85823 41.2683 1.05791 -1.85823
46 1 42.2187 2.67127 -0.193265 42.2187 2.67127 -0.193265
47 2 44.0967 2.69487 1.40627 44.0967 2.69487 1.40627
48 2 44.0984 2.64686 -1.7903 44.0984 2.64686 -1.7903
49 1 45.1386 1.02475 -0.170485 45.1386 1.02475 -0.170485
50 2 -4.15635 1.03111 1.18878 64.0718 1.03111 1.18878
51 2 -4.95752 1.0331 -1.56102 63.2706 1.0331 -1.56102
52 1 -3.38966 2.68036 -0.524621 64.8385 2.68036 -0.524621
53 2 -1.56497 2.65018 1.17802 66.6632 2.65018 1.17802
54 2 -1.45378 2.70956 -2.10031 66.7744 2.70956 -2.10031
55 1 -0.556561 4.32624 -0.402049 -0.556561 4.32624 -0.402049
56 2 1.29811 4.29187 1.2803 1.29811 4.29187 1.2803
57 2 1.38989 4.35907 -1.97984 1.38989 4.35907 -1.97984
58 1 2.29358 5.97146 -0.288613 2.29358 5.97146 -0.288613
59 2 4.16248 5.92773 1.37892 4.16248 5.92773 1.37892
60 2 4.22642 6.01345 -1.88155 4.22642 6.01345 -1.88155
61 1 5.14526 4.32427 -0.276068 5.14526 4.32427 -0.276068
62 2 7.01529 4.29461 1.39019 7.01529 4.29461 1.39019
63 2 7.07685 4.35223 -1.87099 7.07685 4.35223 -1.87099
64 1 7.99633 5.96922 -0.192985 7.99633 5.96922 -0.192985
65 2 9.88401 5.94012 1.45337 9.88401 5.94012 1.45337
66 2 9.91082 5.99692 -1.80829 9.91082 5.99692 -1.80829
67 1 10.8482 4.32222 -0.198614 10.8482 4.32222 -0.198614
68 2 12.7452 4.29864 1.43689 12.7452 4.29864 1.43689
69 2 12.7534 4.3446 -1.82504 12.7534 4.3446 -1.82504
70 1 13.6998 5.96772 -0.168057 13.6998 5.96772 -0.168057
71 2 15.604 5.95192 1.45946 15.604 5.95192 1.45946
72 2 15.5979 5.98253 -1.80265 15.5979 5.98253 -1.80265
73 1 16.5517 4.32087 -0.189044 16.5517 4.32087 -0.189044
74 2 18.4533 4.30771 1.44147 18.4533 4.30771 1.44147
75 2 18.4524 4.33328 -1.8207 18.4524 4.33328 -1.8207
76 1 19.4034 5.96681 -0.176834 19.4034 5.96681 -0.176834
77 2 21.3063 5.95813 1.45233 21.3063 5.95813 1.45233
78 2 21.3028 5.97522 -1.80988 21.3028 5.97522 -1.80988
79 1 22.2553 4.32036 -0.18841 22.2553 4.32036 -0.18841
80 2 24.1571 4.31091 1.44215 24.1571 4.31091 1.44215
81 2 24.1559 4.32983 -1.82005 24.1559 4.32983 -1.82005
82 1 25.1072 5.9667 -0.179666 25.1072 5.9667 -0.179666
83 2 27.0108 5.95835 1.44865 27.0108 5.95835 1.44865
84 2 27.006 5.97504 -1.81355 27.006 5.97504 -1.81355
85 1 27.9591 4.32037 -0.192278 27.9591 4.32037 -0.192278
86 2 29.8659 4.30947 1.43226 29.8659 4.30947 1.43226
87 2 29.8547 4.33103 -1.8299 29.8547 4.33103 -1.8299
88 1 30.8112 5.96643 -0.191198 30.8112 5.96643 -0.191198
89 2 32.7178 5.95316 1.43371 32.7178 5.95316 1.43371
90 2 32.7072 5.97908 -1.82841 32.7072 5.97908 -1.82841
91 1 33.6631 4.31976 -0.213369 33.6631 4.31976 -0.213369
92 2 35.5606 4.30504 1.42254 35.5606 4.30504 1.42254
93 2 35.5683 4.33347 -1.83956 35.5683 4.33347 -1.83956
94 1 36.5155 5.96525 -0.191347 36.5155 5.96525 -0.191347
95 2 38.4091 5.95707 1.44948 38.4091 5.95707 1.44948
96 2 38.4246 5.97225 -1.8127 38.4246 5.97225 -1.8127
97 1 39.3673 4.31822 -0.184323 39.3673 4.31822 -0.184323
98 2 41.2576 4.29016 1.45997 41.2576 4.29016 1.45997
99 2 41.2797 4.3445 -1.80201 41.2797 4.3445 -1.80201
100 1 42.2197 5.96352 -0.136081 42.2197 5.96352 -0.136081
101 2 44.144 5.96724 1.41095 44.144 5.96724 1.41095
102 2 44.0534 5.95908 -1.7845 44.0534 5.95908 -1.7845
103 1 45.1391 4.31673 -0.212385 45.1391 4.31673 -0.212385
104 2 -4.15517 4.28591 1.22744 64.073 4.28591 1.22744
105 2 -4.96961 4.35049 -1.5085 63.2585 4.35049 -1.5085
106 1 -3.39182 5.97696 -0.452837 64.8363 5.97696 -0.452837
107 2 -1.57991 5.90518 1.26581 66.6482 5.90518 1.26581
108 2 -1.43881 6.04118 -2.00753 66.7893 6.04118 -2.00753
109 1 -0.558507 7.6181 -0.261135 -0.558507 7.6181 -0.261135
110 2 1.32434 7.55959 1.38936 1.32434 7.55959 1.38936
111 2 1.36121 7.67517 -1.87062 1.36121 7.67517 -1.87062
112 1 2.29275 9.26254 -0.171898 2.29275 9.26254 -0.171898
113 2 4.17866 9.21961 1.47629 4.17866 9.21961 1.47629
114 2 4.2088 9.30458 -1.78475 4.2088 9.30458 -1.78475
115 1 5.14453 7.61608 -0.188906 5.14453 7.61608 -0.188906
116 2 7.02889 7.58282 1.46131 7.02889 7.58282 1.46131
117 2 7.06226 7.64809 -1.80013 7.06226 7.64809 -1.80013
118 1 7.9959 9.26135 -0.126217 7.9959 9.26135 -0.126217
119 2 9.89493 9.24285 1.50741 9.89493 9.24285 1.50741
120 2 9.89928 9.27887 -1.75464 9.89928 9.27887 -1.75464
121 1 10.8479 7.61449 -0.140731 10.8479 7.61449 -0.140731
122 2 12.7538 7.59552 1.48464 12.7538 7.59552 1.48464
123 2 12.7445 7.63256 -1.77738 12.7445 7.63256 -1.77738
124 1 13.6997 9.2603 -0.130291 13.6997 9.2603 -0.130291
125 2 15.6113 9.25109 1.48853 15.6113 9.25109 1.48853
126 2 15.5904 9.26871 -1.7736 15.5904 9.26871 -1.7736
127 1 16.5515 7.61351 -0.15767 16.5515 7.61351 -0.15767
128 2 18.4599 7.60658 1.4651 18.4599 7.60658 1.4651
129 2 18.4456 7.61982 -1.79709 18.4456 7.61982 -1.79709
130 1 19.4034 9.25956 -0.163443 19.4034 9.25956 -0.163443
131 2 21.3067 9.25507 1.46532 21.3067 9.25507 1.46532
132 2 21.3025 9.26373 -1.79691 21.3025 9.26373 -1.79691
133 1 22.2553 7.61303 -0.171221 22.2553 7.61303 -0.171221
134 2 24.1572 7.60571 1.45917 24.1572 7.60571 1.45917
135 2 24.1557 7.62031 -1.80305 24.1557 7.62031 -1.80305
136 1 25.1073 9.25928 -0.165104 25.1073 9.25928 -0.165104
137 2 27.0098 9.25099 1.46463 27.0098 9.25099 1.46463
138 2 27.0074 9.26751 -1.79757 27.0074 9.26751 -1.79757
139 1 27.9593 7.61292 -0.175469 27.9593 7.61292 -0.175469
140 2 29.8645 7.60413 1.45091 29.8645 7.60413 1.45091
141 2 29.8565 7.62144 -1.81127 29.8565 7.62144 -1.81127
142 1 30.8116 9.25889 -0.173783 30.8116 9.25889 -0.173783
143 2 32.7155 9.2494 1.45441 32.7155 9.2494 1.45441
144 2 32.7104 9.2677 -1.80776 32.7104 9.2677 -1.80776
145 1 33.6636 7.61217 -0.187264 33.6636 7.61217 -0.187264
146 2 35.5648 7.60708 1.44425 35.5648 7.60708 1.44425
147 2 35.5651 7.61628 -1.81798 35.5651 7.61628 -1.81798
148 1 36.5161 9.25765 -0.181711 36.5161 9.25765 -0.181711
149 2 38.4158 9.26657 1.4516 38.4158 9.26657 1.4516
150 2 38.4192 9.2476 -1.81056 38.4192 9.2476 -1.81056
151 1 39.3681 7.61061 -0.168697 39.3681 7.61061 -0.168697
152 2 41.2612 7.62704 1.47265 41.2612 7.62704 1.47265
153 2 41.2778 7.5936 -1.78962 41.2778 7.5936 -1.78962
154 1 42.2202 9.25617 -0.171413 42.2202 9.25617 -0.171413
155 2 44.1159 9.23522 1.40764 44.1159 9.23522 1.40764
156 2 44.0821 9.27624 -1.78881 44.0821 9.27624 -1.78881
157 1 45.1395 7.60927 -0.219511 45.1395 7.60927 -0.219511
158 2 -4.17081 7.49297 1.36381 64.0573 7.49297 1.36381
159 2 -4.87982 7.71863 -1.4657 63.3483 7.71863 -1.4657
160 1 -3.38953 9.26244 -0.21803 64.8386 9.26244 -0.21803
161 2 -1.53012 9.20282 1.43595 66.698 9.20282 1.43595
162 2 -1.50535 9.3227 -1.84395 66.7228 9.3227 -1.84395
163 1 -0.559803 10.9075 -0.132371 -0.559803 10.9075 -0.132371
164 2 1.33142 10.8492 1.5108 1.33142 10.8492 1.5108
165 2 1.35182 10.9663 -1.74928 1.35182 10.9663 -1.74928
166 1 2.29137 12.5535 -0.0533638 2.29137 12.5535 -0.0533638
167 2 4.20231 12.5225 1.56646 4.20231 12.5225 1.56646
168 2 4.18314 12.5851 -1.69508 4.18314 12.5851 -1.69508
169 1 5.1438 10.9079 -0.101749 5.1438 10.9079 -0.101749
170 2 7.0447 10.8827 1.52979 7.0447 10.8827 1.52979
171 2 7.04532 10.9324 -1.73208 7.04532 10.9324 -1.73208
172 1 7.99542 12.5538 -0.0755381 7.99542 12.5538 -0.0755381
173 2 9.9096 12.5478 1.54043 9.9096 12.5478 1.54043
174 2 9.88376 12.559 -1.72168 9.88376 12.559 -1.72168
175 1 10.8476 10.9071 -0.103917 10.8476 10.9071 -0.103917
176 2 12.7606 10.9008 1.51343 12.7606 10.9008 1.51343
177 2 12.7372 10.9126 -1.7487 12.7372 10.9126 -1.7487
178 1 13.6994 12.553 -0.118748 13.6994 12.553 -0.118748
179 2 15.6114 12.55 1.49987 15.6114 12.55 1.49987
180 2 15.59 12.5552 -1.76229 15.59 12.5552 -1.76229
181 1 16.5515 10.9062 -0.139892 16.5515 10.9062 -0.139892
182 2 18.4631 10.9006 1.47902 18.4631 10.9006 1.47902
183 2 18.4423 10.9113 -1.78313 18.4423 10.9113 -1.78313
184 1 19.4035 12.5522 -0.152922 19.4035 12.5522 -0.152922
185 2 21.3066 12.5453 1.4762 21.3066 12.5453 1.4762
186 2 21.3031 12.5589 -1.786 21.3031 12.5589 -1.786
187 1 22.2554 10.9057 -0.162728 22.2554 10.9057 -0.162728
188 2 24.1544 10.8991 1.47114 24.1544 10.8991 1.47114
189 2 24.159 10.9122 -1.79107 24.159 10.9122 -1.79107
190 1 25.1077 12.5518 -0.152115 25.1077 12.5518 -0.152115
191 2 27.0075 12.5424 1.48073 27.0075 12.5424 1.48073
192 2 27.0106 12.5611 -1.78145 27.0106 12.5611 -1.78145
193 1 27.9597 10.9054 -0.1589 27.9597 10.9054 -0.1589
194 2 29.8641 10.8958 1.46855 29.8641 10.8958 1.46855
195 2 29.8579 10.9147 -1.79362 29.8579 10.9147 -1.79362
196 1 30.8122 12.5513 -0.154819 30.8122 12.5513 -0.154819
197 2 32.7167 12.5429 1.47243 32.7167 12.5429 1.47243
198 2 32.7104 12.559 -1.78975 32.7104 12.559 -1.78975
199 1 33.6642 10.9046 -0.168893 33.6642 10.9046 -0.168893
200 2 35.573 10.9047 1.45327 35.573 10.9047 1.45327
201 2 35.5581 10.9035 -1.80892 35.5581 10.9035 -1.80892
202 1 36.5168 12.5501 -0.182855 36.5168 12.5501 -0.182855
203 2 38.4246 12.5564 1.44028 38.4246 12.5564 1.44028
204 2 38.4118 12.5427 -1.82188 38.4118 12.5427 -1.82188
205 1 39.3687 10.9031 -0.188051 39.3687 10.9031 -0.188051
206 2 41.2751 10.9263 1.43712 41.2751 10.9263 1.43712
207 2 41.2652 10.8785 -1.82504 41.2652 10.8785 -1.82504
208 1 42.221 12.5485 -0.222247 42.221 12.5485 -0.222247
209 2 44.0686 12.5304 1.41095 44.0686 12.5304 1.41095
210 2 44.1313 12.5658 -1.78503 44.1313 12.5658 -1.78503
211 1 45.1408 10.9016 -0.183176 45.1408 10.9016 -0.183176
212 2 -4.8885 10.8005 1.02565 63.3396 10.8005 1.02565
213 2 -4.15523 11.0377 -1.80037 64.0729 11.0377 -1.80037
214 1 -3.39533 12.547 0.0298453 64.8328 12.547 0.0298453
215 2 -1.46303 12.4771 1.60917 66.7651 12.4771 1.60917
216 2 -1.56279 12.6265 -1.66517 66.6653 12.6265 -1.66517
217 1 -0.560708 14.1987 0.0223868 -0.560708 14.1987 0.0223868
218 2 1.36674 14.1692 1.62375 1.36674 14.1692 1.62375
219 2 1.31417 14.2298 -1.63736 1.31417 14.2298 -1.63736
220 1 2.29063 15.8462 0.00947368 2.29063 15.8462 0.00947368
221 2 4.21288 15.835 1.61648 4.21288 15.835 1.61648
222 2 4.17088 15.8578 -1.64535 4.17088 15.8578 -1.64535
223 1 5.14301 14.2002 -0.0380909 5.14301 14.2002 -0.0380909
224 2 7.05908 14.1886 1.57581 7.05908 14.1886 1.57581
225 2 7.02955 14.2115 -1.68618 7.02955 14.2115 -1.68618
226 1 7.99489 15.8464 -0.0523024 7.99489 15.8464 -0.0523024
227 2 9.91662 15.8419 1.55457 9.91662 15.8419 1.55457
228 2 9.87569 15.8501 -1.70736 9.87569 15.8501 -1.70736
229 1 10.8472 14.1998 -0.0925333 10.8472 14.1998 -0.0925333
230 2 12.7632 14.1986 1.52133 12.7632 14.1986 1.52133
231 2 12.7338 14.2001 -1.74075 12.7338 14.2001 -1.74075
232 1 13.6992 15.8456 -0.117822 13.6992 15.8456 -0.117822
233 2 15.607 15.8389 1.50579 15.607 15.8389 1.50579
234 2 15.5943 15.8515 -1.75637 15.5943 15.8515 -1.75637
235 1 16.5515 14.1989 -0.135196 16.5515 14.1989 -0.135196
236 2 18.4584 14.1906 1.48934 18.4584 14.1906 1.48934
237 2 18.4473 14.2066 -1.77282 18.4473 14.2066 -1.77282
238 1 19.4038 15.8448 -0.137102 19.4038 15.8448 -0.137102
239 2 21.3039 15.8307 1.49538 21.3039 15.8307 1.49538
240 2 21.3064 15.8585 -1.76672 21.3064 15.8585 -1.76672
241 1 22.2558 14.1983 -0.149042 22.2558 14.1983 -0.149042
242 2 24.1528 14.1875 1.48718 24.1528 14.1875 1.48718
243 2 24.1615 14.2088 -1.77497 24.1615 14.2088 -1.77497
244 1 25.1082 15.8443 -0.13049 25.1082 15.8443 -0.13049
245 2 27.0071 15.8304 1.50348 27.0071 15.8304 1.50348
246 2 27.0121 15.8579 -1.75863 27.0121 15.8579 -1.75863
247 1 27.9602 14.1978 -0.140046 27.9602 14.1978 -0.140046
248 2 29.8623 14.1845 1.49005 29.8623 14.1845 1.49005
249 2 29.8609 14.2108 -1.77207 29.8609 14.2108 -1.77207
250 1 30.8128 15.8436 -0.128049 30.8128 15.8436 -0.128049
251 2 32.7218 15.8328 1.49403 32.7218 15.8328 1.49403
252 2 32.7067 15.8538 -1.76808 32.7067 15.8538 -1.76808
253 1 33.6649 14.1969 -0.152377 33.6649 14.1969 -0.152377
254 2 35.5791 14.1894 1.46323 35.5791 14.1894 1.46323
255 2 35.5533 14.2036 -1.79885 35.5533 14.2036 -1.79885
256 1 36.5174 15.8425 -0.16828 36.5174 15.8425 -0.16828
257 2 38.4335 15.8346 1.44539 38.4335 15.8346 1.44539
258 2 38.4041 15.8494 -1.81665 38.4041 15.8494 -1.81665
259 1 39.3694 14.1956 -0.201887 39.3694 14.1956 -0.201887
260 2 41.277 14.1856 1.42208 41.277 14.1856 1.42208
261 2 41.265 14.2047 -1.84035 41.265 14.2047 -1.84035
262 1 42.2215 15.8413 -0.202715 42.2215 15.8413 -0.202715
263 2 44.0717 15.8434 1.42831 44.0717 15.8434 1.42831
264 2 44.1288 15.8382 -1.76803 44.1288 15.8382 -1.76803
265 1 45.1409 14.1942 -0.150185 45.1409 14.1942 -0.150185
266 2 -4.97387 14.1677 1.09246 63.2543 14.1677 1.09246
267 2 -4.15219 14.2449 -1.64526 64.0759 14.2449 -1.64526
268 1 -3.39538 15.8435 0.116583 64.8328 15.8435 0.116583
269 2 -1.47344 15.8192 1.70909 66.7547 15.8192 1.70909
270 2 -1.55636 15.8707 -1.57023 66.6718 15.8707 -1.57023
271 1 -0.561359 17.4923 0.0737536 -0.561359 17.4923 0.0737536
272 2 1.37541 17.4904 1.6632 1.37541 17.4904 1.6632
273 2 1.30393 17.495 -1.59809 1.30393 17.495 -1.59809
274 1 2.29002 19.1393 0.013999 2.29002 19.1393 0.013999
275 2 4.21054 19.1428 1.62301 4.21054 19.1428 1.62301
276 2 4.17222 19.1358 -1.6389 4.17222 19.1358 -1.6389
277 1 5.14245 17.4929 -0.0152516 5.14245 17.4929 -0.0152516
278 2 7.06216 17.4877 1.59442 7.06216 17.4877 1.59442
279 2 7.02543 17.4976 -1.66753 7.02543 17.4976 -1.66753
280 1 7.99465 19.1389 -0.0426451 7.99465 19.1389 -0.0426451
281 2 9.91302 19.1268 1.56835 9.91302 19.1268 1.56835
282 2 9.87903 19.1503 -1.69357 9.87903 19.1503 -1.69357
283 1 10.8469 17.4923 -0.0844474 10.8469 17.4923 -0.0844474
284 2 12.7607 17.4803 1.53205 12.7607 17.4803 1.53205
285 2 12.736 17.5034 -1.72997 12.736 17.5034 -1.72997
286 1 13.6993 19.138 -0.0944503 13.6993 19.138 -0.0944503
287 2 15.6077 19.1222 1.52831 15.6077 19.1222 1.52831
288 2 15.5937 19.1531 -1.73373 15.5937 19.1531 -1.73373
289 1 16.5516 17.4914 -0.122654 16.5516 17.4914 -0.122654
290 2 18.4535 17.4776 1.5078 18.4535 17.4776 1.5078
291 2 18.4525 17.5046 -1.7543 18.4525 17.5046 -1.7543
292 1 19.404 19.1372 -0.10974 19.404 19.1372 -0.10974
293 2 21.3036 19.1226 1.52365 21.3036 19.1226 1.52365
294 2 21.3073 19.1513 -1.73844 21.3073 19.1513 -1.73844
295 1 22.2562 17.4907 -0.120795 22.2562 17.4907 -0.120795
296 2 24.1541 17.475 1.51441 24.1541 17.475 1.51441
297 2 24.161 17.5062 -1.74765 24.161 17.5062 -1.74765
298 1 25.1087 19.1366 -0.0985309 25.1087 19.1366 -0.0985309
299 2 27.0126 19.1276 1.52969 27.0126 19.1276 1.52969
300 2 27.0075 19.1454 -1.73247 27.0075 19.1454 -1.73247
301 1 27.9608 17.4902 -0.111995 27.9608 17.4902 -0.111995
302 2 29.8652 17.4795 1.51553 29.8652 17.4795 1.51553
303 2 29.8591 17.5004 -1.74662 29.8591 17.5004 -1.74662
304 1 30.8134 19.136 -0.106609 30.8134 19.136 -0.106609
305 2 32.7245 19.1287 1.51304 32.7245 19.1287 1.51304
306 2 32.705 19.1426 -1.74907 32.705 19.1426 -1.74907
307 1 33.6655 17.4893 -0.13082 33.6655 17.4893 -0.13082
308 2 35.5808 17.4764 1.48367 35.5808 17.4764 1.48367
309 2 35.5529 17.5013 -1.77832 35.5529 17.5013 -1.77832
310 1 36.5179 19.135 -0.143041 36.5179 19.135 -0.143041
311 2 38.4342 19.1176 1.47036 38.4342 19.1176 1.47036
312 2 38.4043 19.1514 -1.79152 38.4043 19.1514 -1.79152
313 1 39.3698 17.4881 -0.186641 39.3698 17.4881 -0.186641
314 2 41.272 17.4734 1.4438 41.272 17.4734 1.4438
315 2 41.2708 17.502 -1.81862 41.2708 17.502 -1.81862
316 1 42.2216 19.1338 -0.172519 42.2216 19.1338 -0.172519
317 2 44.0981 19.1497 1.42891 44.0981 19.1497 1.42891
318 2 44.103 19.1172 -1.76781 44.103 19.1172 -1.76781
319 1 45.1415 17.487 -0.153197 45.1415 17.487 -0.153197
320 2 -4.97203 17.4879 1.1441 63.2561 17.4879 1.1441
321 2 -4.15076 17.496 -1.5989 64.0774 17.496 -1.5989
322 1 -3.39634 19.1386 0.12406 64.8318 19.1386 0.12406
323 2 -1.47905 19.1489 1.72204 66.7491 19.1489 1.72204
324 2 -1.55323 19.1294 -1.55765 66.6749 19.1294 -1.55765
325 1 -0.562008 20.7859 0.0531528 -0.562008 20.7859 0.0531528
326 2 1.36685 20.7945 1.65168 1.36685 20.7945 1.65168
327 2 1.31156 20.7772 -1.6099 1.31156 20.7772 -1.6099
328 1 2.28998 22.4322 -0.00418071 2.28998 22.4322 -0.00418071
329 2 4.2029 22.4327 1.61384 4.2029 22.4327 1.61384
330 2 4.18007 22.4314 -1.64823 4.18007 22.4314 -1.64823
331 1 5.14225 20.7856 -0.0228678 5.14225 20.7856 -0.0228678
332 2 7.05358 20.7825 1.59682 7.05358 20.7825 1.59682
333 2 7.03385 20.7881 -1.66528 7.03385 20.7881 -1.66528
334 1 7.99484 22.4315 -0.0371563 7.99484 22.4315 -0.0371563
335 2 9.90382 22.4204 1.58527 9.90382 22.4204 1.58527
336 2 9.88876 22.4417 -1.67681 9.88876 22.4417 -1.67681
337 1 10.8471 20.7847 -0.0607011 10.8471 20.7847 -0.0607011
338 2 12.7577 20.7668 1.5597 12.7577 20.7668 1.5597
339 2 12.7393 20.8016 -1.70226 12.7393 20.8016 -1.70226
340 1 13.6996 22.4303 -0.0586039 13.6996 22.4303 -0.0586039
341 2 15.6148 22.4222 1.55642 15.6148 22.4222 1.55642
342 2 15.5872 22.4377 -1.70564 15.5872 22.4377 -1.70564
343 1 16.5518 20.7837 -0.0907264 16.5518 20.7837 -0.0907264
344 2 18.4576 20.772 1.53542 18.4576 20.772 1.53542
345 2 18.4487 20.7948 -1.72671 18.4487 20.7948 -1.72671
346 1 19.4042 22.4295 -0.086396 19.4042 22.4295 -0.086396
347 2 21.3071 22.4264 1.54331 21.3071 22.4264 1.54331
348 2 21.3041 22.4322 -1.7189 21.3041 22.4322 -1.7189
349 1 22.2565 20.7831 -0.0915444 22.2565 20.7831 -0.0915444
350 2 24.1584 20.7767 1.53919 24.1584 20.7767 1.53919
351 2 24.1574 20.7892 -1.723 24.1574 20.7892 -1.723
352 1 25.1089 22.4291 -0.0857411 25.1089 22.4291 -0.0857411
353 2 27.016 22.4311 1.53866 27.016 22.4311 1.53866
354 2 27.0046 22.4268 -1.72353 27.0046 22.4268 -1.72353
355 1 27.9612 20.7826 -0.093642 27.9612 20.7826 -0.093642
356 2 29.8708 20.7837 1.52793 29.8708 20.7837 1.52793
357 2 29.8544 20.7811 -1.73424 29.8544 20.7811 -1.73424
358 1 30.8136 22.4286 -0.109142 30.8136 22.4286 -0.109142
359 2 32.7219 22.4321 1.51407 32.7219 22.4321 1.51407
360 2 32.708 22.4244 -1.74809 32.708 22.4244 -1.74809
361 1 33.6658 20.7818 -0.116781 33.6658 20.7818 -0.116781
362 2 35.577 20.7721 1.503 35.577 20.7721 1.503
363 2 35.5574 20.7907 -1.75908 35.5574 20.7907 -1.75908
364 1 36.5182 22.4276 -0.124453 36.5182 22.4276 -0.124453
365 2 38.4314 22.4207 1.49276 38.4314 22.4207 1.49276
366 2 38.4077 22.4336 -1.76932 38.4077 22.4336 -1.76932
367 1 39.3702 20.7807 -0.151793 39.3702 20.7807 -0.151793
368 2 41.2814 20.777 1.46829 41.2814 20.777 1.46829
369 2 41.2619 20.7836 -1.79421 41.2619 20.7836 -1.79421
370 1 42.2218 22.4265 -0.164714 42.2218 22.4265 -0.164714
371 2 44.1194 22.442 1.41195 44.1194 22.442 1.41195
372 2 44.0819 22.4103 -1.78455 44.0819 22.4103 -1.78455
373 1 45.1418 20.7797 -0.183154 45.1418 20.7797 -0.183154
374 2 -4.97746 20.7902 1.13314 63.2507 20.7902 1.13314
375 2 -4.14276 20.7778 -1.60686 64.0854 20.7778 -1.60686
376 1 -3.39639 22.4326 0.108501 64.8317 22.4326 0.108501
377 2 -1.47926 22.4386 1.706 66.7489 22.4386 1.706
378 2 -1.55379 22.4269 -1.57365 66.6743 22.4269 -1.57365
379 1 -0.561635 24.0793 0.0411885 -0.561635 24.0793 0.0411885
380 2 1.36698 24.0811 1.64022 1.36698 24.0811 1.64022
381 2 1.31218 24.0768 -1.62142 1.31218 24.0768 -1.62142
382 1 2.29066 25.7252 -0.00844558 2.29066 25.7252 -0.00844558
383 2 4.2023 25.726 1.61124 4.2023 25.726 1.61124
384 2 4.18194 25.7237 -1.65086 4.18194 25.7237 -1.65086
385 1 5.14265 24.0783 -0.0244542 5.14265 24.0783 -0.0244542
386 2 7.05054 24.076 1.59944 7.05054 24.076 1.59944
387 2 7.03768 24.0799 -1.6627 7.03768 24.0799 -1.6627
388 1 7.99527 25.7241 -0.0330763 7.99527 25.7241 -0.0330763
389 2 9.9026 25.7276 1.59136 9.9026 25.7276 1.59136
390 2 9.89075 25.7197 -1.6708 9.89075 25.7197 -1.6708
391 1 10.8474 24.0772 -0.0391612 10.8474 24.0772 -0.0391612
392 2 12.7593 24.0758 1.57976 12.7593 24.0758 1.57976
393 2 12.7383 24.0777 -1.68237 12.7383 24.0777 -1.68237
394 1 13.6998 25.7229 -0.0562089 13.6998 25.7229 -0.0562089
395 2 15.6174 25.7322 1.55597 15.6174 25.7322 1.55597
396 2 15.585 25.7128 -1.70604 15.585 25.7128 -1.70604
397 1 16.552 24.0761 -0.0744943 16.552 24.0761 -0.0744943
398 2 18.462 24.0787 1.54677 18.462 24.0787 1.54677
399 2 18.4447 24.0729 -1.71541 18.4447 24.0729 -1.71541
400 1 19.4043 25.7219 -0.0921308 19.4043 25.7219 -0.0921308
401 2 21.3082 25.732 1.53633 21.3082 25.732 1.53633
402 2 21.3031 25.7114 -1.72583 21.3031 25.7114 -1.72583
403 1 22.2566 24.0755 -0.0855867 22.2566 24.0755 -0.0855867
404 2 24.1605 24.0792 1.54289 24.1605 24.0792 1.54289
405 2 24.1555 24.0716 -1.71931 24.1555 24.0716 -1.71931
406 1 25.1089 25.7216 -0.0934666 25.1089 25.7216 -0.0934666
407 2 27.02 25.7339 1.52617 27.02 25.7339 1.52617
408 2 27.0007 25.7089 -1.73589 27.0007 25.7089 -1.73589
409 1 27.9613 24.0751 -0.0979132 27.9613 24.0751 -0.0979132
410 2 29.8739 24.0831 1.51998 29.8739 24.0831 1.51998
411 2 29.8514 24.0667 -1.7421 29.8514 24.0667 -1.7421
412 1 30.8135 25.7211 -0.126058 30.8135 25.7211 -0.126058
413 2 32.7192 25.729 1.50011 32.7192 25.729 1.50011
414 2 32.7106 25.7126 -1.76203 32.7106 25.7126 -1.76203
415 1 33.6659 24.0745 -0.124937 33.6659 24.0745 -0.124937
416 2 35.5695 24.078 1.50372 35.5695 24.078 1.50372
417 2 35.565 24.0702 -1.75846 35.565 24.0702 -1.75846
418 1 36.5181 25.7203 -0.132761 36.5181 25.7203 -0.132761
419 2 38.4252 25.7237 1.49163 38.4252 25.7237 1.49163
420 2 38.4139 25.7161 -1.77053 38.4139 25.7161 -1.77053
421 1 39.3704 24.0734 -0.138757 39.3704 24.0734 -0.138757
422 2 41.2858 24.0717 1.47623 41.2858 24.0717 1.47623
423 2 41.258 24.0742 -1.78618 41.258 24.0742 -1.78618
424 1 42.2221 25.7193 -0.161613 42.2221 25.7193 -0.161613
425 2 44.13 25.7196 1.40293 44.13 25.7196 1.40293
426 2 44.0714 25.7184 -1.7934 44.0714 25.7184 -1.7934
427 1 45.1416 24.0725 -0.213384 45.1416 24.0725 -0.213384
428 2 -4.97121 24.0793 1.13562 63.2569 24.0793 1.13562
429 2 -4.14792 24.0808 -1.61013 64.0802 24.0808 -1.61013
430 1 -3.3952 25.7264 0.111851 64.8329 25.7264 0.111851
431 2 -1.47326 25.7255 1.70372 66.7549 25.7255 1.70372
432 2 -1.55781 25.7271 -1.57575 66.6703 25.7271 -1.57575
433 1 -0.56055 27.3727 0.0431159 -0.56055 27.3727 0.0431159
434 2 1.372 27.375 1.63763 1.372 27.375 1.63763
435 2 1.30904 27.369 -1.62389 1.30904 27.369 -1.62389
436 1 2.29147 29.0183 -0.013965 2.29147 29.0183 -0.013965
437 2 4.2084 29.0313 1.59955 4.2084 29.0313 1.59955
438 2 4.17714 29.004 -1.66238 4.17714 29.004 -1.66238
439 1 5.14325 27.3711 -0.0265564 5.14325 27.3711 -0.0265564
440 2 7.05231 27.3768 1.59606 7.05231 27.3768 1.59606
441 2 7.03696 27.3644 -1.66608 7.03696 27.3644 -1.66608
442 1 7.99565 29.0168 -0.0455235 7.99565 29.0168 -0.0455235
443 2 9.90976 29.0369 1.57071 9.90976 29.0369 1.57071
444 2 9.8842 28.9957 -1.69113 9.8842 28.9957 -1.69113
445 1 10.8477 27.3698 -0.0468509 10.8477 27.3698 -0.0468509
446 2 12.7648 27.3872 1.56574 12.7648 27.3872 1.56574
447 2 12.7333 27.3514 -1.69612 12.7333 27.3514 -1.69612
448 1 13.6999 29.0153 -0.092558 13.6999 29.0153 -0.092558
449 2 15.6147 29.0362 1.52252 15.6147 29.0362 1.52252
450 2 15.5876 28.9934 -1.73932 15.5876 28.9934 -1.73932
451 1 16.552 27.3685 -0.0943897 16.552 27.3685 -0.0943897
452 2 18.4626 27.3861 1.52592 18.4626 27.3861 1.52592
453 2 18.4441 27.3502 -1.73607 18.4441 27.3502 -1.73607
454 1 19.4041 29.0142 -0.128669 19.4041 29.0142 -0.128669
455 2 21.3032 29.0313 1.50527 21.3032 29.0313 1.50527
456 2 21.3077 28.9967 -1.75678 21.3077 28.9967 -1.75678
457 1 22.2565 27.3679 -0.106707 22.2565 27.3679 -0.106707
458 2 24.1587 27.3821 1.52348 24.1587 27.3821 1.52348
459 2 24.157 27.3533 -1.73861 24.157 27.3533 -1.73861
460 1 25.1086 29.014 -0.122801 25.1086 29.014 -0.122801
461 2 27.018 29.0275 1.49855 27.018 29.0275 1.49855
462 2 27.0018 29.0001 -1.76351 27.0018 29.0001 -1.76351
463 1 27.9611 27.3676 -0.123263 27.9611 27.3676 -0.123263
464 2 29.8695 27.3766 1.49958 29.8695 27.3766 1.49958
465 2 29.8554 27.3582 -1.76254 29.8554 27.3582 -1.76254
466 1 30.8132 29.0136 -0.145046 30.8132 29.0136 -0.145046
467 2 32.7174 29.0215 1.48273 32.7174 29.0215 1.48273
468 2 32.7118 29.0052 -1.77941 32.7118 29.0052 -1.77941
469 1 33.6657 27.3671 -0.141683 33.6657 27.3671 -0.141683
470 2 35.567 27.3749 1.48974 35.567 27.3749 1.48974
471 2 35.5673 27.3584 -1.7724 35.5673 27.3584 -1.7724
472 1 36.5179 29.0129 -0.149504 36.5179 29.0129 -0.149504
473 2 38.4231 29.0214 1.47723 38.4231 29.0214 1.47723
474 2 38.4156 29.0036 -1.7849 38.4156 29.0036 -1.7849
475 1 39.3704 27.3661 -0.146767 39.3704 27.3661 -0.146767
476 2 41.2808 27.3663 1.47412 41.2808 27.3663 1.47412
477 2 41.2631 27.3652 -1.78836 41.2631 27.3652 -1.78836
478 1 42.222 29.0121 -0.163053 42.222 29.0121 -0.163053
479 2 44.1219 28.9977 1.41107 44.1219 28.9977 1.41107
480 2 44.0798 29.0261 -1.78537 44.0798 29.0261 -1.78537
481 1 45.1417 27.3654 -0.214191 45.1417 27.3654 -0.214191
482 2 -4.96301 27.374 1.1483 63.2651 27.374 1.1483
483 2 -4.15686 27.3736 -1.60262 64.0713 27.3736 -1.60262
484 1 -3.39369 29.0205 0.1139 64.8344 29.0205 0.1139
485 2 -1.46596 29.0288 1.69904 66.7622 29.0288 1.69904
486 2 -1.5627 29.0108 -1.58017 66.6654 29.0108 -1.58017
487 1 -0.559741 30.6661 0.0255618 -0.559741 30.6661 0.0255618
488 2 1.37674 30.6865 1.61532 1.37674 30.6865 1.61532
489 2 1.30564 30.6436 -1.64577 1.30564 30.6436 -1.64577
490 1 2.29181 32.311 -0.0578159 2.29181 32.311 -0.0578159
491 2 4.20731 32.3378 1.5571 4.20731 32.3378 1.5571
492 2 4.17881 32.2829 -1.70452 4.17881 32.2829 -1.70452
493 1 5.14366 30.6638 -0.0540501 5.14366 30.6638 -0.0540501
494 2 7.05307 30.6852 1.56785 7.05307 30.6852 1.56785
495 2 7.03689 30.6414 -1.69402 7.03689 30.6414 -1.69402
496 1 7.99582 32.3093 -0.090119 7.99582 32.3093 -0.090119
497 2 9.90882 32.3308 1.52694 9.90882 32.3308 1.52694
498 2 9.88535 32.2865 -1.7349 9.88535 32.2865 -1.7349
499 1 10.8478 30.6623 -0.0885368 10.8478 30.6623 -0.0885368
500 2 12.7669 30.6886 1.52121 12.7669 30.6886 1.52121
501 2 12.7312 30.6346 -1.74037 12.7312 30.6346 -1.74037
502 1 13.6997 32.3075 -0.147393 13.6997 32.3075 -0.147393
503 2 15.6092 32.3299 1.47398 15.6092 32.3299 1.47398
504 2 15.5929 32.2841 -1.78789 15.5929 32.2841 -1.78789
505 1 16.5519 30.6608 -0.138331 16.5519 30.6608 -0.138331
506 2 18.4596 30.6808 1.48519 18.4596 30.6808 1.48519
507 2 18.4467 30.64 -1.77676 18.4467 30.64 -1.77676
508 1 19.4039 32.3065 -0.170298 19.4039 32.3065 -0.170298
509 2 21.2988 32.323 1.46834 21.2988 32.323 1.46834
510 2 21.3115 32.2897 -1.7937 21.3115 32.2897 -1.7937
511 1 22.2561 30.6602 -0.142003 22.2561 30.6602 -0.142003
512 2 24.1555 30.6756 1.49139 24.1555 30.6756 1.49139
513 2 24.1594 30.6446 -1.77069 24.1594 30.6446 -1.77069
514 1 25.108 32.3064 -0.154407 25.108 32.3064 -0.154407
515 2 27.0123 32.3146 1.47299 27.0123 32.3146 1.47299
516 2 27.0064 32.2978 -1.78918 27.0064 32.2978 -1.78918
517 1 27.9606 30.66 -0.151204 27.9606 30.66 -0.151204
518 2 29.8634 30.6684 1.4782 29.8634 30.6684 1.4782
519 2 29.8605 30.6513 -1.78395 29.8605 30.6513 -1.78395
520 1 30.8126 32.3061 -0.162282 30.8126 32.3061 -0.162282
521 2 32.7163 32.3136 1.46625 32.7163 32.3136 1.46625
522 2 32.7118 32.2981 -1.7959 32.7118 32.2981 -1.7959
523 1 33.6653 30.6596 -0.158181 33.6653 30.6596 -0.158181
524 2 35.5664 30.6671 1.47347 35.5664 30.6671 1.47347
525 2 35.5671 30.6514 -1.78867 35.5671 30.6514 -1.78867
526 1 36.5174 32.3055 -0.165163 36.5174 32.3055 -0.165163
527 2 38.4253 32.3159 1.45862 38.4253 32.3159 1.45862
528 2 38.4125 32.2942 -1.80347 38.4125 32.2942 -1.80347
529 1 39.3701 30.6588 -0.164986 39.3701 30.6588 -0.164986
530 2 41.2782 30.6711 1.45847 41.2782 30.6711 1.45847
531 2 41.265 30.6457 -1.80393 41.265 30.6457 -1.80393
532 1 42.2215 32.3047 -0.190118 42.2215 32.3047 -0.190118
533 2 44.0935 32.2938 1.41619 44.0935 32.2938 1.41619
534 2 44.1075 32.3155 -1.78057 44.1075 32.3155 -1.78057
535 1 45.1419 30.6583 -0.187452 45.1419 30.6583 -0.187452
536 2 -4.95097 30.6805 1.1459 63.2772 30.6805 1.1459