ITEM: TIMESTEP
2087000
ITEM: NUMBER OF ATOMS
810
ITEM: BOX BOUNDS pp pp pp
-4.4892978511525055e+00 5.7506902851151573e+01
8.1394622342039402e-01 5.0202268776579182e+01
-1.0000000000000000e+01 1.0000000000000000e+01
ITEM: ATOMS id type x y z xu yu zu
1 1 -4.1938 1.02762 -0.187551 -4.1938 1.02762 -0.187551
2 2 -1.90234 1.02607 1.40908 -1.90234 1.02607 1.40908
3 2 -1.91432 1.02965 -1.80136 -1.91432 1.02965 -1.80136
4 1 -0.749847 2.67419 -0.198421 -0.749847 2.67419 -0.198421
5 2 1.53839 2.67211 1.4019 1.53839 2.67211 1.4019
6 2 1.53209 2.67688 -1.80856 1.53209 2.67688 -1.80856
7 1 2.69318 1.02815 -0.20791 2.69318 1.02815 -0.20791
8 2 4.97837 1.02758 1.39702 4.97837 1.02758 1.39702
9 2 4.97829 1.0293 -1.81344 4.97829 1.0293 -1.81344
10 1 6.13684 2.67475 -0.207044 6.13684 2.67475 -0.207044
11 2 8.41753 2.67437 1.40438 8.41753 2.67437 1.40438
12 2 8.42691 2.67563 -1.80608 8.42691 2.67563 -1.80608
13 1 9.58026 1.02866 -0.197988 9.58026 1.02866 -0.197988
14 2 11.8578 1.02883 1.41817 11.8578 1.02883 1.41817
15 2 11.8735 1.02876 -1.79226 11.8735 1.02876 -1.79226
16 1 13.0242 2.67503 -0.181298 13.0242 2.67503 -0.181298
17 2 15.3004 2.67581 1.43712 15.3004 2.67581 1.43712
18 2 15.3191 2.67452 -1.7733 15.3191 2.67452 -1.7733
19 1 16.4678 1.02879 -0.160646 16.4678 1.02879 -0.160646
20 2 18.7444 1.0275 1.45782 18.7444 1.0275 1.45782
21 2 18.7626 1.0303 -1.75257 18.7626 1.0303 -1.75257
22 1 19.9123 2.6751 -0.139238 19.9123 2.6751 -0.139238
23 2 22.1888 2.6757 1.4798 22.1888 2.6757 1.4798
24 2 22.2079 2.67485 -1.73058 22.2079 2.67485 -1.73058
25 1 23.3565 1.02891 -0.118115 23.3565 1.02891 -0.118115
26 2 25.6356 1.02699 1.49803 25.6356 1.02699 1.49803
27 2 25.6503 1.0311 -1.71237 25.6503 1.0311 -1.71237
28 1 26.8019 2.67518 -0.0998376 26.8019 2.67518 -0.0998376
29 2 29.0848 2.67667 1.51133 29.0848 2.67667 1.51133
30 2 29.0923 2.67388 -1.69908 29.0923 2.67388 -1.69908
31 1 30.2467 1.02885 -0.0899051 30.2467 1.02885 -0.0899051
32 2 32.534 1.02593 1.51523 32.534 1.02593 1.51523
33 2 32.5328 1.03167 -1.69519 32.5328 1.03167 -1.69519
34 1 33.6925 2.67488 -0.0875289 33.6925 2.67488 -0.0875289
35 2 35.982 2.67343 1.51401 35.982 2.67343 1.51401
36 2 35.9761 2.67613 -1.69643 35.9761 2.67613 -1.69643
37 1 37.1371 1.02827 -0.0948319 37.1371 1.02827 -0.0948319
38 2 39.4299 1.02435 1.50169 39.4299 1.02435 1.50169
39 2 39.417 1.03185 -1.70871 39.417 1.03185 -1.70871
40 1 40.5824 2.6742 -0.104267 40.5824 2.6742 -0.104267
41 2 42.8758 2.67165 1.49088 42.8758 2.67165 1.49088
42 2 42.8614 2.67656 -1.71952 42.8614 2.67656 -1.71952
43 1 44.0265 1.02759 -0.122052 44.0265 1.02759 -0.122052
44 2 46.3204 1.0234 1.47217 46.3204 1.0234 1.47217
45 2 46.3048 1.03171 -1.73823 46.3048 1.03171 -1.73823
46 1 47.4714 2.67375 -0.13438 47.4714 2.67375 -0.13438
47 2 49.7647 2.66937 1.46008 49.7647 2.66937 1.46008
48 2 49.7496 2.6783 -1.75033 49.7496 2.6783 -1.75033
49 1 50.915 1.02739 -0.155178 50.915 1.02739 -0.155178
50 2 53.2086 1.02258 1.43848 53.2086 1.02258 1.43848
51 2 53.1923 1.03246 -1.77192 53.1923 1.03246 -1.77192
52 1 54.3591 2.6738 -0.16749 54.3591 2.6738 -0.16749
53 2 56.6521 2.67052 1.42675 56.6521 2.67052 1.42675
54 2 56.6368 2.67751 -1.78365 56.6368 2.67751 -1.78365
55 1 -4.19304 4.3203 -0.180314 -4.19304 4.3203 -0.180314
56 2 -1.90094 4.31688 1.41526 -1.90094 4.31688 1.41526
57 2 -1.91432 4.3243 -1.79516 -1.91432 4.3243 -1.79516
58 1 -0.748951 5.96685 -0.190801 -0.748951 5.96685 -0.190801
59 2 1.54012 5.96365 1.40855 1.54012 5.96365 1.40855
60 2 1.53209 5.97074 -1.80191 1.53209 5.97074 -1.80191
61 1 2.69381 4.32079 -0.203012 2.69381 4.32079 -0.203012
62 2 4.979 4.31744 1.40175 4.979 4.31744 1.40175
63 2 4.97886 4.32479 -1.80871 4.97886 4.32479 -1.80871
64 1 6.13769 5.96732 -0.199658 6.13769 5.96732 -0.199658
65 2 8.42067 5.96553 1.40883 8.42067 5.96553 1.40883
66 2 8.42552 5.96971 -1.80163 8.42552 5.96971 -1.80163
67 1 9.58089 4.32122 -0.19662 9.58089 4.32122 -0.19662
68 2 11.8593 4.32192 1.41826 11.8593 4.32192 1.41826
69 2 11.8733 4.32093 -1.79218 11.8733 4.32093 -1.79218
70 1 13.0252 5.96755 -0.182241 13.0252 5.96755 -0.182241
71 2 15.3019 5.96907 1.4354 15.3019 5.96907 1.4354
72 2 15.3197 5.9664 -1.77503 15.3197 5.9664 -1.77503
73 1 16.4686 4.32131 -0.161967 16.4686 4.32131 -0.161967
74 2 18.7444 4.32276 1.45742 18.7444 4.32276 1.45742
75 2 18.7642 4.32021 -1.75297 18.7642 4.32021 -1.75297
76 1 19.9134 5.96755 -0.14194 19.9134 5.96755 -0.14194
77 2 22.1911 5.9724 1.47549 22.1911 5.9724 1.47549
78 2 22.208 5.96314 -1.7349 22.208 5.96314 -1.7349
79 1 23.3574 4.32137 -0.118963 23.3574 4.32137 -0.118963
80 2 25.6369 4.32541 1.49654 25.6369 4.32541 1.49654
81 2 25.6508 4.31773 -1.71386 25.6508 4.31773 -1.71386
82 1 26.8031 5.9676 -0.107644 26.8031 5.9676 -0.107644
83 2 29.0858 5.97373 1.50363 29.0858 5.97373 1.50363
84 2 29.0937 5.96178 -1.70677 29.0937 5.96178 -1.70677
85 1 30.2477 4.32133 -0.0926514 30.2477 4.32133 -0.0926514
86 2 32.5335 4.32386 1.51448 32.5335 4.32386 1.51448
87 2 32.5354 4.31886 -1.69594 32.5354 4.31886 -1.69594
88 1 33.6937 5.96739 -0.0927409 33.6937 5.96739 -0.0927409
89 2 35.9825 5.97211 1.50994 35.9825 5.97211 1.50994
90 2 35.9781 5.96261 -1.70049 35.9781 5.96261 -1.70049
91 1 37.1382 4.32084 -0.0920943 37.1382 4.32084 -0.0920943
92 2 39.4305 4.32087 1.50511 39.4305 4.32087 1.50511
93 2 39.4185 4.3206 -1.70531 39.4185 4.3206 -1.70531
94 1 40.5836 5.96682 -0.104622 40.5836 5.96682 -0.104622
95 2 42.8757 5.96691 1.49235 42.8757 5.96691 1.49235
96 2 42.8637 5.96665 -1.71806 42.8637 5.96665 -1.71806
97 1 44.0276 4.32024 -0.116996 44.0276 4.32024 -0.116996
98 2 46.3205 4.31765 1.47848 46.3205 4.31765 1.47848
99 2 46.3066 4.32287 -1.73193 46.3066 4.32287 -1.73193
100 1 47.4724 5.96645 -0.129055 47.4724 5.96645 -0.129055
101 2 49.7651 5.96438 1.46644 49.7651 5.96438 1.46644
102 2 49.7513 5.96877 -1.74398 49.7513 5.96877 -1.74398
103 1 50.9159 4.32007 -0.146056 50.9159 4.32007 -0.146056
104 2 53.2093 4.31605 1.4478 53.2093 4.31605 1.4478
105 2 53.1932 4.32446 -1.7626 53.1932 4.32446 -1.7626
106 1 54.3601 5.9665 -0.158944 54.3601 5.9665 -0.158944
107 2 56.6536 5.96284 1.43474 56.6536 5.96284 1.43474
108 2 56.6373 5.97067 -1.77566 56.6373 5.97067 -1.77566
109 1 -4.19194 7.613 -0.172243 -4.19194 7.613 -0.172243
110 2 -1.89982 7.60918 1.42334 -1.89982 7.60918 1.42334
111 2 -1.91326 7.61744 -1.78709 -1.91326 7.61744 -1.78709
112 1 -0.747711 9.25951 -0.182338 -0.747711 9.25951 -0.182338
113 2 1.54141 9.25536 1.41689 1.54141 9.25536 1.41689
114 2 1.53331 9.26436 -1.79357 1.53331 9.26436 -1.79357
115 1 2.69488 7.6134 -0.195692 2.69488 7.6134 -0.195692
116 2 4.9804 7.61094 1.40863 4.9804 7.61094 1.40863
117 2 4.97962 7.61655 -1.80183 4.97962 7.61655 -1.80183
118 1 6.13898 9.25987 -0.193853 6.13898 9.25987 -0.193853
119 2 8.42233 9.25748 1.41402 8.42233 9.25748 1.41402
120 2 8.42649 9.26287 -1.79645 8.42649 9.26287 -1.79645
121 1 9.58202 7.61374 -0.192331 9.58202 7.61374 -0.192331
122 2 11.8623 7.61309 1.42003 11.8623 7.61309 1.42003
123 2 11.8727 7.61487 -1.79043 11.8727 7.61487 -1.79043
124 1 13.0266 9.26001 -0.180414 13.0266 9.26001 -0.180414
125 2 15.3057 9.26193 1.434 15.3057 9.26193 1.434
126 2 15.3188 9.25851 -1.77646 15.3188 9.25851 -1.77646
127 1 16.4698 7.61378 -0.164691 16.4698 7.61378 -0.164691
128 2 18.7469 7.61785 1.45298 18.7469 7.61785 1.45298
129 2 18.7644 7.61009 -1.75742 18.7644 7.61009 -1.75742
130 1 19.9149 9.25996 -0.149903 19.9149 9.25996 -0.149903
131 2 22.1947 9.26769 1.46453 22.1947 9.26769 1.46453
132 2 22.2074 9.25265 -1.74586 22.2074 9.25265 -1.74586
133 1 23.3588 7.61377 -0.128408 23.3588 7.61377 -0.128408
134 2 25.6394 7.62179 1.48541 25.6394 7.62179 1.48541
135 2 25.6511 7.60619 -1.72498 25.6511 7.60619 -1.72498
136 1 26.8046 9.25997 -0.123592 26.8046 9.25997 -0.123592
137 2 29.0868 9.26911 1.48799 29.0868 9.26911 1.48799
138 2 29.0955 9.2512 -1.72239 29.0955 9.2512 -1.72239
139 1 30.2491 7.61376 -0.104934 30.2491 7.61376 -0.104934
140 2 32.5338 7.62149 1.50336 32.5338 7.62149 1.50336
141 2 32.5377 7.6062 -1.70703 32.5377 7.6062 -1.70703
142 1 33.695 9.25987 -0.10839 33.695 9.25987 -0.10839
143 2 35.9821 9.26721 1.49636 35.9821 9.26721 1.49636
144 2 35.9809 9.25254 -1.71406 35.9809 9.25254 -1.71406
145 1 37.1394 7.6134 -0.101752 37.1394 7.6134 -0.101752
146 2 39.4289 7.61702 1.49914 39.4289 7.61702 1.49914
147 2 39.4225 7.60968 -1.71128 39.4225 7.60968 -1.71128
148 1 40.5848 9.25945 -0.112271 40.5848 9.25945 -0.112271
149 2 42.8745 9.26192 1.48799 42.8745 9.26192 1.48799
150 2 42.8672 9.25698 -1.72244 42.8672 9.25698 -1.72244
151 1 44.0287 7.61292 -0.117308 44.0287 7.61292 -0.117308
152 2 46.3203 7.61315 1.48005 46.3203 7.61315 1.48005
153 2 46.309 7.61281 -1.73037 46.309 7.61281 -1.73037
154 1 47.4736 9.25917 -0.1294 47.4736 9.25917 -0.1294
155 2 49.7647 9.25855 1.46832 49.7647 9.25855 1.46832
156 2 49.754 9.26006 -1.74212 49.754 9.26006 -1.74212
157 1 50.917 7.61279 -0.141539 50.917 7.61279 -0.141539
158 2 53.2091 7.61007 1.45417 53.2091 7.61007 1.45417
159 2 53.1957 7.61593 -1.75626 53.1957 7.61593 -1.75626
160 1 54.3612 9.25921 -0.152963 54.3612 9.25921 -0.152963
161 2 56.654 9.25574 1.44201 56.654 9.25574 1.44201
162 2 56.6393 9.26324 -1.76841 56.6393 9.26324 -1.76841
163 1 -4.19065 10.9057 -0.164609 -4.19065 10.9057 -0.164609
164 2 -1.89903 10.9014 1.43188 -1.89903 10.9014 1.43188
165 2 -1.91136 10.9106 -1.77855 -1.91136 10.9106 -1.77855
166 1 -0.746287 12.5521 -0.173 -0.746287 12.5521 -0.173
167 2 1.54256 12.547 1.42683 1.54256 12.547 1.42683
168 2 1.53511 12.5579 -1.78362 1.53511 12.5579 -1.78362
169 1 2.69629 10.906 -0.186518 2.69629 10.906 -0.186518
170 2 4.98279 10.9021 1.41654 4.98279 10.9021 1.41654
171 2 4.9801 10.9105 -1.79392 4.9801 10.9105 -1.79392
172 1 6.1405 12.5524 -0.185166 6.1405 12.5524 -0.185166
173 2 8.42511 12.5494 1.42103 8.42511 12.5494 1.42103
174 2 8.42678 12.5559 -1.78944 8.42678 12.5559 -1.78944
175 1 9.58348 10.9062 -0.186851 9.58348 10.9062 -0.186851
176 2 11.8652 10.905 1.42351 11.8652 10.905 1.42351
177 2 11.8728 10.9079 -1.78696 11.8728 10.9079 -1.78696
178 1 13.0281 12.5525 -0.177488 13.0281 12.5525 -0.177488
179 2 15.3101 12.5541 1.43284 15.3101 12.5541 1.43284
180 2 15.3174 12.5511 -1.77763 15.3174 12.5511 -1.77763
181 1 16.4714 10.9062 -0.168198 16.4714 10.9062 -0.168198
182 2 18.7514 10.9122 1.4452 18.7514 10.9122 1.4452
183 2 18.763 10.9005 -1.76521 18.763 10.9005 -1.76521
184 1 19.9164 12.5523 -0.161763 19.9164 12.5523 -0.161763
185 2 22.1979 12.5604 1.44999 22.1979 12.5604 1.44999
186 2 22.2073 12.5447 -1.7604 22.2073 12.5447 -1.7604
187 1 23.3604 10.9061 -0.143795 23.3604 10.9061 -0.143795
188 2 25.6417 10.9155 1.46861 25.6417 10.9155 1.46861
189 2 25.6517 10.8972 -1.74177 25.6517 10.8972 -1.74177
190 1 26.806 12.5523 -0.142385 26.806 12.5523 -0.142385
191 2 29.0885 12.563 1.4684 29.0885 12.563 1.4684
192 2 29.0964 12.5421 -1.74196 29.0964 12.5421 -1.74196
193 1 30.2504 10.9062 -0.123347 30.2504 10.9062 -0.123347
194 2 32.535 10.9164 1.48501 32.535 10.9164 1.48501
195 2 32.5391 10.8961 -1.72535 32.5391 10.8961 -1.72535
196 1 33.6961 12.5523 -0.12911 33.6961 12.5523 -0.12911
197 2 35.9811 12.5611 1.47833 35.9811 12.5611 1.47833
198 2 35.9841 12.5436 -1.73208 35.9841 12.5436 -1.73208
199 1 37.1406 10.9059 -0.116847 37.1406 10.9059 -0.116847
200 2 39.4276 10.9119 1.48742 39.4276 10.9119 1.48742
201 2 39.426 10.9 -1.723 39.426 10.9 -1.723
202 1 40.5858 12.5521 -0.124577 40.5858 12.5521 -0.124577
203 2 42.8733 12.5569 1.47881 42.8733 12.5569 1.47881
204 2 42.8705 12.5472 -1.73161 42.8705 12.5472 -1.73161
205 1 44.0298 10.9056 -0.12248 44.0298 10.9056 -0.12248
206 2 46.3199 10.9073 1.47709 46.3199 10.9073 1.47709
207 2 46.3116 10.904 -1.73334 46.3116 10.904 -1.73334
208 1 47.4747 12.5519 -0.132843 47.4747 12.5519 -0.132843
209 2 49.7641 12.5526 1.46724 49.7641 12.5526 1.46724
210 2 49.7567 12.5513 -1.74321 49.7567 12.5513 -1.74321
211 1 50.9182 10.9055 -0.140032 50.9182 10.9055 -0.140032
212 2 53.2092 10.9047 1.45739 53.2092 10.9047 1.45739
213 2 53.198 10.9067 -1.75305 53.198 10.9067 -1.75305
214 1 54.3624 12.5519 -0.150802 54.3624 12.5519 -0.150802
215 2 56.6534 12.55 1.44673 56.6534 12.55 1.44673
216 2 56.6425 12.5543 -1.7637 56.6425 12.5543 -1.7637
217 1 -4.18936 14.1983 -0.160184 -4.18936 14.1983 -0.160184
218 2 -1.89967 14.1946 1.43917 -1.89967 14.1946 1.43917
219 2 -1.90795 14.2026 -1.77129 -1.90795 14.2026 -1.77129
220 1 -0.744952 15.8447 -0.164951 -0.744952 15.8447 -0.164951
221 2 1.54298 15.8404 1.43638 1.54298 15.8404 1.43638
222 2 1.53752 15.8495 -1.77409 1.53752 15.8495 -1.77409
223 1 2.69779 14.1985 -0.175451 2.69779 14.1985 -0.175451
224 2 4.98522 14.1939 1.42656 4.98522 14.1939 1.42656
225 2 4.98074 14.2037 -1.78389 4.98074 14.2037 -1.78389
226 1 6.14196 15.8449 -0.175134 6.14196 15.8449 -0.175134
227 2 8.42801 15.8416 1.4291 8.42801 15.8416 1.4291
228 2 8.42679 15.8486 -1.78137 8.42679 15.8486 -1.78137
229 1 9.58501 14.1987 -0.180134 9.58501 14.1987 -0.180134
230 2 11.8687 14.1978 1.42753 11.8687 14.1978 1.42753
231 2 11.8723 14.2 -1.78294 11.8723 14.2 -1.78294
232 1 13.0295 15.8449 -0.175261 13.0295 15.8449 -0.175261
233 2 15.314 15.8466 1.43153 15.314 15.8466 1.43153
234 2 15.3163 15.8435 -1.77895 15.3163 15.8435 -1.77895
235 1 16.4729 14.1986 -0.171341 16.4729 14.1986 -0.171341
236 2 18.7564 14.2032 1.43716 18.7564 14.2032 1.43716
237 2 18.761 14.1943 -1.77327 18.761 14.1943 -1.77327
238 1 19.9177 15.8448 -0.170936 19.9177 15.8448 -0.170936
239 2 22.2018 15.8515 1.43709 22.2018 15.8515 1.43709
240 2 22.2059 15.8383 -1.77333 22.2059 15.8383 -1.77333
241 1 23.3618 14.1985 -0.159868 23.3618 14.1985 -0.159868
242 2 25.6441 14.2077 1.45078 25.6441 14.2077 1.45078
243 2 25.652 14.1897 -1.75961 25.652 14.1897 -1.75961
244 1 26.8071 15.8448 -0.160868 26.8071 15.8448 -0.160868
245 2 29.0906 15.8548 1.4483 29.0906 15.8548 1.4483
246 2 29.0963 15.835 -1.76207 29.0963 15.835 -1.76207
247 1 30.2515 14.1986 -0.144741 30.2515 14.1986 -0.144741
248 2 32.5355 14.2087 1.46404 32.5355 14.2087 1.46404
249 2 32.5405 14.1887 -1.74633 32.5405 14.1887 -1.74633
250 1 33.6969 15.8448 -0.149624 33.6969 15.8448 -0.149624
251 2 35.9804 15.8535 1.45951 35.9804 15.8535 1.45951
252 2 35.9861 15.8361 -1.7509 35.9861 15.8361 -1.7509
253 1 37.1415 14.1985 -0.134837 37.1415 14.1985 -0.134837
254 2 39.4266 14.2061 1.47205 39.4266 14.2061 1.47205
255 2 39.4288 14.1908 -1.73836 39.4288 14.1908 -1.73836
256 1 40.5864 15.8446 -0.140234 40.5864 15.8446 -0.140234
257 2 42.8715 15.8498 1.46663 42.8715 15.8498 1.46663
258 2 42.8737 15.8394 -1.74381 42.8737 15.8394 -1.74381
259 1 44.0307 14.1983 -0.132485 44.0307 14.1983 -0.132485
260 2 46.318 14.2006 1.47098 46.318 14.2006 1.47098
261 2 46.3154 14.196 -1.73946 46.3154 14.196 -1.73946
262 1 47.4755 15.8445 -0.137684 47.4755 15.8445 -0.137684
263 2 49.764 15.8465 1.46398 49.764 15.8465 1.46398
264 2 49.7587 15.8428 -1.74649 49.7587 15.8428 -1.74649
265 1 50.9192 14.1982 -0.141368 50.9192 14.1982 -0.141368
266 2 53.2093 14.1985 1.45757 53.2093 14.1985 1.45757
267 2 53.2002 14.1982 -1.75289 53.2002 14.1982 -1.75289
268 1 54.3635 15.8445 -0.151039 54.3635 15.8445 -0.151039
269 2 56.6526 15.8432 1.44918 56.6526 15.8432 1.44918
270 2 56.6456 15.8463 -1.76128 56.6456 15.8463 -1.76128
271 1 -4.1883 17.4909 -0.156884 -4.1883 17.4909 -0.156884
272 2 -1.90055 17.4877 1.4453 -1.90055 17.4877 1.4453
273 2 -1.90477 17.4945 -1.76517 -1.90477 17.4945 -1.76517
274 1 -0.743985 19.1372 -0.15797 -0.743985 19.1372 -0.15797
275 2 1.54374 19.1343 1.44405 1.54374 19.1343 1.44405
276 2 1.53883 19.1406 -1.76643 1.53883 19.1406 -1.76643
277 1 2.69906 17.4911 -0.166105 2.69906 17.4911 -0.166105
278 2 4.98624 17.4865 1.43634 4.98624 17.4865 1.43634
279 2 4.98233 17.4961 -1.77412 4.98233 17.4961 -1.77412
280 1 6.14305 19.1374 -0.165377 6.14305 19.1374 -0.165377
281 2 8.43037 19.1339 1.4373 8.43037 19.1339 1.4373
282 2 8.4266 19.1411 -1.77317 8.4266 19.1411 -1.77317
283 1 9.5863 17.4912 -0.172885 9.5863 17.4912 -0.172885
284 2 11.872 17.4896 1.43187 11.872 17.4896 1.43187
285 2 11.8715 17.4929 -1.77861 11.8715 17.4929 -1.77861
286 1 13.0305 19.1374 -0.171869 13.0305 19.1374 -0.171869
287 2 15.3177 19.1381 1.4312 15.3177 19.1381 1.4312
288 2 15.3146 19.1367 -1.77928 15.3146 19.1367 -1.77928
289 1 16.4741 17.4911 -0.174443 16.4741 17.4911 -0.174443
290 2 18.7596 17.4941 1.431 18.7596 17.4941 1.431
291 2 18.76 17.4881 -1.77945 18.76 17.4881 -1.77945
292 1 19.9186 19.1372 -0.177164 19.9186 19.1372 -0.177164
293 2 22.2048 19.1417 1.42756 22.2048 19.1417 1.42756
294 2 22.2044 19.1329 -1.78288 22.2044 19.1329 -1.78288
295 1 23.3628 17.491 -0.173309 23.3628 17.491 -0.173309
296 2 25.6468 17.4991 1.43466 25.6468 17.4991 1.43466
297 2 25.6511 17.4831 -1.77574 25.6511 17.4831 -1.77574
298 1 26.8077 19.1373 -0.177186 26.8077 19.1373 -0.177186
299 2 29.0915 19.1444 1.43118 29.0915 19.1444 1.43118
300 2 29.0963 19.1303 -1.77922 29.0963 19.1303 -1.77922
301 1 30.2522 17.4911 -0.16497 30.2522 17.4911 -0.16497
302 2 32.5352 17.4991 1.44491 32.5352 17.4991 1.44491
303 2 32.542 17.4831 -1.76548 32.542 17.4831 -1.76548
304 1 33.6972 19.1373 -0.166101 33.6972 19.1373 -0.166101
305 2 35.9808 19.1447 1.443 35.9808 19.1447 1.443
306 2 35.9862 19.1298 -1.76742 35.9862 19.1298 -1.76742
307 1 37.1419 17.491 -0.152575 37.1419 17.491 -0.152575
308 2 39.4257 17.4979 1.45613 39.4257 17.4979 1.45613
309 2 39.4306 17.484 -1.75429 39.4306 17.484 -1.75429
310 1 40.5867 19.1372 -0.154451 40.5867 19.1372 -0.154451
311 2 42.8706 19.1431 1.45419 42.8706 19.1431 1.45419
312 2 42.8753 19.1311 -1.75624 42.8753 19.1311 -1.75624
313 1 44.0313 17.4908 -0.143205 44.0313 17.4908 -0.143205
314 2 46.3169 17.4953 1.46277 46.3169 17.4953 1.46277
315 2 46.3178 17.4864 -1.74767 46.3178 17.4864 -1.74767
316 1 47.4759 19.1371 -0.146821 47.4759 19.1371 -0.146821
317 2 49.7631 19.1409 1.45708 49.7631 19.1409 1.45708
318 2 49.7607 19.1334 -1.75339 49.7607 19.1334 -1.75339
319 1 50.92 17.4908 -0.145129 50.92 17.4908 -0.145129
320 2 53.2085 17.491 1.45619 53.2085 17.491 1.45619
321 2 53.2027 17.4909 -1.75428 53.2027 17.4909 -1.75428
322 1 54.3642 19.1371 -0.15117 54.3642 19.1371 -0.15117
323 2 56.6522 19.1361 1.45104 56.6522 19.1361 1.45104
324 2 56.6476 19.1383 -1.75943 56.6476 19.1383 -1.75943
325 1 -4.18772 20.7834 -0.154689 -4.18772 20.7834 -0.154689
326 2 -1.90039 20.7834 1.44855 -1.90039 20.7834 1.44855
327 2 -1.90358 20.7837 -1.76194 -1.90358 20.7837 -1.76194
328 1 -0.743607 22.4298 -0.157626 -0.743607 22.4298 -0.157626
329 2 1.54277 22.4298 1.4463 1.54277 22.4298 1.4463
330 2 1.54068 22.4299 -1.7642 1.54068 22.4299 -1.7642
331 1 2.69984 20.7836 -0.159668 2.69984 20.7836 -0.159668
332 2 4.98701 20.7819 1.44307 4.98701 20.7819 1.44307
333 2 4.98318 20.7856 -1.76741 4.98318 20.7856 -1.76741
334 1 6.14355 22.4299 -0.161616 6.14355 22.4299 -0.161616
335 2 8.43088 22.4299 1.44106 8.43088 22.4299 1.44106
336 2 8.4271 22.43 -1.76942 8.4271 22.43 -1.76942
337 1 9.58711 20.7837 -0.165651 9.58711 20.7837 -0.165651
338 2 11.8753 20.7831 1.43593 11.8753 20.7831 1.43593
339 2 11.8698 20.7843 -1.77454 11.8698 20.7843 -1.77454
340 1 13.031 22.4299 -0.170612 13.031 22.4299 -0.170612
341 2 15.3193 22.4305 1.43073 15.3193 22.4305 1.43073
342 2 15.3138 22.4292 -1.77975 15.3138 22.4292 -1.77975
343 1 16.4747 20.7836 -0.175836 16.4747 20.7836 -0.175836
344 2 18.7621 20.7859 1.42685 18.7621 20.7859 1.42685
345 2 18.7587 20.7812 -1.78359 18.7587 20.7812 -1.78359
346 1 19.9189 22.4298 -0.182011 19.9189 22.4298 -0.182011
347 2 22.2059 22.4321 1.42135 22.2059 22.4321 1.42135
348 2 22.2037 22.4275 -1.78909 22.2037 22.4275 -1.78909
349 1 23.3632 20.7835 -0.182325 23.3632 20.7835 -0.182325
350 2 25.649 20.7882 1.42306 25.649 20.7882 1.42306
351 2 25.6496 20.7789 -1.78738 25.6496 20.7789 -1.78738
352 1 26.8078 22.4299 -0.186652 26.8078 22.4299 -0.186652
353 2 29.092 22.4331 1.42094 29.092 22.4331 1.42094
354 2 29.0959 22.4266 -1.78949 29.0959 22.4266 -1.78949
355 1 30.2525 20.7836 -0.179568 30.2525 20.7836 -0.179568
356 2 32.5356 20.7906 1.42978 32.5356 20.7906 1.42978
357 2 32.5419 20.7766 -1.78063 32.5419 20.7766 -1.78063
358 1 33.6971 22.4299 -0.180329 33.6971 22.4299 -0.180329
359 2 35.9799 22.4348 1.42958 35.9799 22.4348 1.42958
360 2 35.9869 22.4247 -1.78086 35.9869 22.4247 -1.78086
361 1 37.142 20.7835 -0.167929 37.142 20.7835 -0.167929
362 2 39.4249 20.7898 1.44184 39.4249 20.7898 1.44184
363 2 39.4315 20.777 -1.76858 39.4315 20.777 -1.76858
364 1 40.5866 22.4297 -0.167632 40.5866 22.4297 -0.167632
365 2 42.8699 22.4354 1.44166 42.8699 22.4354 1.44166
366 2 42.8757 22.4237 -1.76877 42.8757 22.4237 -1.76877
367 1 44.0314 20.7834 -0.155566 44.0314 20.7834 -0.155566
368 2 46.3165 20.7895 1.45136 46.3165 20.7895 1.45136
369 2 46.3186 20.7772 -1.75908 46.3186 20.7772 -1.75908
370 1 47.4759 22.4296 -0.159417 47.4759 22.4296 -0.159417
371 2 49.7612 22.4344 1.44692 49.7612 22.4344 1.44692
372 2 49.7627 22.4247 -1.76355 49.7627 22.4247 -1.76355
373 1 50.9204 20.7833 -0.152821 50.9204 20.7833 -0.152821
374 2 53.2068 20.7864 1.45147 53.2068 20.7864 1.45147
375 2 53.2052 20.7803 -1.759 53.2052 20.7803 -1.759
376 1 54.3644 22.4296 -0.157406 54.3644 22.4296 -0.157406
377 2 56.6501 22.4321 1.448 56.6501 22.4321 1.448
378 2 56.6502 22.4272 -1.76248 56.6502 22.4272 -1.76248
379 1 -4.18777 24.0759 -0.159719 -4.18777 24.0759 -0.159719
380 2 -1.90167 24.0783 1.44536 -1.90167 24.0783 1.44536
381 2 -1.90227 24.0736 -1.76513 -1.90227 24.0736 -1.76513
382 1 -0.743917 25.7222 -0.162503 -0.743917 25.7222 -0.162503
383 2 1.54201 25.7257 1.44233 1.54201 25.7257 1.44233
384 2 1.54094 25.7188 -1.76816 1.54094 25.7188 -1.76816
385 1 2.69995 24.0761 -0.159695 2.69995 24.0761 -0.159695
386 2 4.98668 24.077 1.44374 4.98668 24.077 1.44374
387 2 4.98381 24.0753 -1.76674 4.98381 24.0753 -1.76674
388 1 6.14336 25.7225 -0.163455 6.14336 25.7225 -0.163455
389 2 8.43133 25.7253 1.43855 8.43133 25.7253 1.43855
390 2 8.42633 25.7195 -1.77192 8.42633 25.7195 -1.77192
391 1 9.58728 24.0762 -0.165501 9.58728 24.0762 -0.165501
392 2 11.8756 24.0771 1.43575 11.8756 24.0771 1.43575
393 2 11.8698 24.0752 -1.77472 11.8698 24.0752 -1.77472
394 1 13.0308 25.7225 -0.17255 13.0308 25.7225 -0.17255
395 2 15.3191 25.7236 1.4288 15.3191 25.7236 1.4288
396 2 15.3136 25.7211 -1.78168 15.3136 25.7211 -1.78168
397 1 16.4748 24.0761 -0.177149 16.4748 24.0761 -0.177149
398 2 18.7631 24.0769 1.42423 18.7631 24.0769 1.42423
399 2 18.7578 24.0752 -1.78621 18.7578 24.0752 -1.78621
400 1 19.9187 25.7224 -0.183748 19.9187 25.7224 -0.183748
401 2 22.2059 25.7219 1.41948 22.2059 25.7219 1.41948
402 2 22.2033 25.7228 -1.79096 22.2033 25.7228 -1.79096
403 1 23.3632 24.0761 -0.187022 23.3632 24.0761 -0.187022
404 2 25.6491 24.0764 1.41811 25.6491 24.0764 1.41811
405 2 25.6494 24.0758 -1.79233 25.6494 24.0758 -1.79233
406 1 26.8074 25.7225 -0.18736 26.8074 25.7225 -0.18736
407 2 29.0931 25.7228 1.41834 29.0931 25.7228 1.41834
408 2 29.094 25.7221 -1.7921 29.094 25.7221 -1.7921
409 1 30.2523 24.0762 -0.186219 30.2523 24.0762 -0.186219
410 2 32.5368 24.0785 1.42118 32.5368 24.0785 1.42118
411 2 32.5401 24.0737 -1.78925 32.5401 24.0737 -1.78925
412 1 33.6967 25.7225 -0.185282 33.6967 25.7225 -0.185282
413 2 35.9803 25.7239 1.42337 35.9803 25.7239 1.42337
414 2 35.9855 25.7206 -1.78709 35.9855 25.7206 -1.78709
415 1 37.1416 24.076 -0.178366 37.1416 24.076 -0.178366
416 2 39.4247 24.0799 1.43119 39.4247 24.0799 1.43119
417 2 39.431 24.0718 -1.77925 39.431 24.0718 -1.77925
418 1 40.586 25.7222 -0.175989 40.586 25.7222 -0.175989
419 2 42.8708 25.7272 1.43139 42.8708 25.7272 1.43139
420 2 42.8737 25.7168 -1.77905 42.8737 25.7168 -1.77905
421 1 44.0311 24.0759 -0.167512 44.0311 24.0759 -0.167512
422 2 46.3159 24.0807 1.43974 46.3159 24.0807 1.43974
423 2 46.3186 24.0708 -1.77071 46.3186 24.0708 -1.77071
424 1 47.4754 25.722 -0.169655 47.4754 25.722 -0.169655
425 2 49.7611 25.7277 1.43626 49.7611 25.7277 1.43626
426 2 49.7618 25.7161 -1.77421 49.7618 25.7161 -1.77421
427 1 50.9201 24.0758 -0.162743 50.9201 24.0758 -0.162743
428 2 53.2058 24.0804 1.44287 53.2058 24.0804 1.44287
429 2 53.206 24.0711 -1.7676 53.206 24.0711 -1.7676
430 1 54.364 25.722 -0.166979 54.364 25.722 -0.166979
431 2 56.6492 25.7277 1.43923 56.6492 25.7277 1.43923
432 2 56.6503 25.7163 -1.77123 56.6503 25.7163 -1.77123
433 1 -4.18845 27.3683 -0.171332 -4.18845 27.3683 -0.171332
434 2 -1.90344 27.375 1.43518 -1.90344 27.375 1.43518
435 2 -1.90178 27.3616 -1.77528 -1.90178 27.3616 -1.77528
436 1 -0.744827 29.0147 -0.176337 -0.744827 29.0147 -0.176337
437 2 1.53971 29.022 1.4302 1.53971 29.022 1.4302
438 2 1.54149 29.0073 -1.78026 1.54149 29.0073 -1.78026
439 1 2.69937 27.3686 -0.166864 2.69937 27.3686 -0.166864
440 2 4.98557 27.3734 1.43743 4.98557 27.3734 1.43743
441 2 4.98387 27.3637 -1.77304 4.98387 27.3637 -1.77304
442 1 6.14255 29.015 -0.173462 6.14255 29.015 -0.173462
443 2 8.42931 29.0192 1.43021 8.42931 29.0192 1.43021
444 2 8.42682 29.0106 -1.78026 8.42682 29.0106 -1.78026
445 1 9.5868 27.3688 -0.17142 9.5868 27.3688 -0.17142
446 2 11.8742 27.3716 1.4311 11.8742 27.3716 1.4311
447 2 11.8703 27.3657 -1.77937 11.8703 27.3657 -1.77937
448 1 13.0301 29.015 -0.178533 13.0301 29.015 -0.178533
449 2 15.3169 29.0163 1.42493 15.3169 29.0163 1.42493
450 2 15.3144 29.0135 -1.78555 15.3144 29.0135 -1.78555
451 1 16.4744 27.3687 -0.179724 16.4744 27.3687 -0.179724
452 2 18.7616 27.368 1.42318 18.7616 27.368 1.42318
453 2 18.7584 27.3692 -1.78727 18.7584 27.3692 -1.78727
454 1 19.918 29.015 -0.182604 19.918 29.015 -0.182604
455 2 22.204 29.0119 1.42225 22.204 29.0119 1.42225
456 2 22.2037 29.018 -1.78819 22.2037 29.018 -1.78819
457 1 23.3627 27.3688 -0.186233 23.3627 27.3688 -0.186233
458 2 25.6485 27.3676 1.41895 25.6485 27.3676 1.41895
459 2 25.6489 27.3698 -1.79149 25.6489 27.3698 -1.79149
460 1 26.8067 29.0152 -0.185 26.8067 29.0152 -0.185
461 2 29.0923 29.0124 1.42071 29.0923 29.0124 1.42071
462 2 29.0933 29.0178 -1.78972 29.0933 29.0178 -1.78972
463 1 30.2517 27.3689 -0.186896 30.2517 27.3689 -0.186896
464 2 32.5361 27.367 1.4204 32.5361 27.367 1.4204
465 2 32.5395 27.3703 -1.79003 32.5395 27.3703 -1.79003
466 1 33.6958 29.0151 -0.182026 33.6958 29.0151 -0.182026
467 2 35.9807 29.0127 1.42486 35.9807 29.0127 1.42486
468 2 35.9833 29.0169 -1.7856 35.9833 29.0169 -1.7856
469 1 37.1409 27.3686 -0.181693 37.1409 27.3686 -0.181693
470 2 39.4254 27.3706 1.42576 39.4254 27.3706 1.42576
471 2 39.4288 27.366 -1.78469 39.4288 27.366 -1.78469
472 1 40.585 29.0147 -0.180661 40.585 29.0147 -0.180661
473 2 42.8711 29.0168 1.42459 42.8711 29.0168 1.42459
474 2 42.8714 29.012 -1.78587 42.8714 29.012 -1.78587
475 1 44.0303 27.3683 -0.178042 44.0303 27.3683 -0.178042
476 2 46.3153 27.374 1.42873 46.3153 27.374 1.42873
477 2 46.3177 27.3622 -1.78171 46.3177 27.3622 -1.78171
478 1 47.4744 29.0144 -0.181677 47.4744 29.0144 -0.181677
479 2 49.7595 29.0193 1.4247 49.7595 29.0193 1.4247
480 2 49.7614 29.0092 -1.78577 49.7614 29.0092 -1.78577
481 1 50.9194 27.3682 -0.174644 50.9194 27.3682 -0.174644
482 2 53.2043 27.3737 1.43182 53.2043 27.3737 1.43182
483 2 53.206 27.3625 -1.77865 53.206 27.3625 -1.77865
484 1 54.363 29.0145 -0.178602 54.363 29.0145 -0.178602
485 2 56.6486 29.0209 1.42701 56.6486 29.0209 1.42701
486 2 56.649 29.0079 -1.78345 56.649 29.0079 -1.78345
487 1 -4.1896 30.6608 -0.184725 -4.1896 30.6608 -0.184725
488 2 -1.90401 30.6683 1.42084 -1.90401 30.6683 1.42084
489 2 -1.9035 30.6531 -1.78962 -1.9035 30.6531 -1.78962
490 1 -0.746122 32.3071 -0.19196 -0.746122 32.3071 -0.19196
491 2 1.53793 32.3142 1.415 1.53793 32.3142 1.415
492 2 1.54071 32.3 -1.79546 1.54071 32.3 -1.79546
493 1 2.69827 30.6611 -0.181976 2.69827 30.6611 -0.181976
494 2 4.98287 30.6677 1.4244 4.98287 30.6677 1.4244
495 2 4.98446 30.6544 -1.78606 4.98446 30.6544 -1.78606
496 1 6.14133 32.3075 -0.187145 6.14133 32.3075 -0.187145
497 2 8.42591 32.3121 1.41938 8.42591 32.3121 1.41938
498 2 8.42783 32.3028 -1.79108 8.42783 32.3028 -1.79108
499 1 9.5858 30.6613 -0.180424 9.5858 30.6613 -0.180424
500 2 11.8721 30.6647 1.42367 11.8721 30.6647 1.42367
501 2 11.8704 30.6577 -1.7868 11.8704 30.6577 -1.7868
502 1 13.029 32.3077 -0.185744 13.029 32.3077 -0.185744
503 2 15.3132 32.3079 1.42118 15.3132 32.3079 1.42118
504 2 15.3158 32.3071 -1.7893 15.3158 32.3071 -1.7893
505 1 16.4734 30.6613 -0.182645 16.4734 30.6613 -0.182645
506 2 18.7583 30.6598 1.42353 18.7583 30.6598 1.42353
507 2 18.7598 30.6626 -1.78692 18.7598 30.6626 -1.78692
508 1 19.9169 32.3077 -0.179765 19.9169 32.3077 -0.179765
509 2 22.2014 32.3046 1.42738 22.2014 32.3046 1.42738
510 2 22.2042 32.3106 -1.78305 22.2042 32.3106 -1.78305
511 1 23.3618 30.6614 -0.180053 23.3618 30.6614 -0.180053
512 2 25.6484 30.6577 1.42441 25.6484 30.6577 1.42441
513 2 25.6472 30.6651 -1.78602 25.6472 30.6651 -1.78602
514 1 26.8057 32.3079 -0.1774 26.8057 32.3079 -0.1774
515 2 29.0909 32.3021 1.42893 29.0909 32.3021 1.42893
516 2 29.0927 32.3134 -1.78148 29.0927 32.3134 -1.78148
517 1 30.2508 30.6615 -0.181363 30.2508 30.6615 -0.181363
518 2 32.5351 30.6574 1.42604 32.5351 30.6574 1.42604
519 2 32.5386 30.6652 -1.78438 32.5386 30.6652 -1.78438
520 1 33.6948 32.3077 -0.174021 33.6948 32.3077 -0.174021
521 2 35.9808 32.304 1.43128 35.9808 32.304 1.43128
522 2 35.981 32.3107 -1.77917 35.981 32.3107 -1.77917
523 1 37.1399 30.6612 -0.17745 37.1399 30.6612 -0.17745
524 2 39.4269 30.6597 1.42646 39.4269 30.6597 1.42646
525 2 39.425 30.6619 -1.78399 39.425 30.6619 -1.78399
526 1 40.5838 32.3072 -0.178335 40.5838 32.3072 -0.178335
527 2 42.8718 32.3061 1.42422 42.8718 32.3061 1.42422
528 2 42.8683 32.3076 -1.78624 42.8683 32.3076 -1.78624
529 1 44.0291 30.6608 -0.183104 44.0291 30.6608 -0.183104
530 2 46.3161 30.6636 1.42092 46.3161 30.6636 1.42092
531 2 46.3146 30.6574 -1.78954 46.3146 30.6574 -1.78954
532 1 47.4731 32.3069 -0.187934 47.4731 32.3069 -0.187934
533 2 49.7592 32.3098 1.41697 49.7592 32.3098 1.41697
534 2 49.7592 32.3036 -1.7935 49.7592 32.3036 -1.7935
535 1 50.9182 30.6606 -0.185121 50.9182 30.6606 -0.185121
536 2 53.2034 30.6658 1.42079 53.2034 30.6658 1.42079
537 2 53.2045 30.6551 -1.78968 53.2045 30.6551 -1.78968
538 1 54.3617 32.3069 -0.189592 54.3617 32.3069 -0.189592