ITEM: TIMESTEP
4944000
ITEM: NUMBER OF ATOMS
810
ITEM: BOX BOUNDS pp pp pp
-1.1816308085556525e+01 6.4833913085555594e+01
8.1394622342039402e-01 5.0202268776579182e+01
-1.0000000000000000e+01 1.0000000000000000e+01
ITEM: ATOMS id type x y z xu yu zu
1 1 -2.08194 1.02939 -0.439508 -2.08194 1.02939 -0.439508
2 2 -0.232255 1.02205 1.25042 -0.232255 1.02205 1.25042
3 2 -0.129591 1.03492 -2.00997 -0.129591 1.03492 -2.00997
4 1 0.770648 2.67419 -0.343177 0.770648 2.67419 -0.343177
5 2 2.64834 2.66741 1.31501 2.64834 2.66741 1.31501
6 2 2.69632 2.68101 -1.94676 2.69632 2.68101 -1.94676
7 1 3.62302 1.02791 -0.309208 3.62302 1.02791 -0.309208
8 2 5.50884 1.03446 1.33935 5.50884 1.03446 1.33935
9 2 5.53999 1.02184 -1.92268 5.53999 1.02184 -1.92268
10 1 6.47541 2.67445 -0.289272 6.47541 2.67445 -0.289272
11 2 8.36667 2.67624 1.35307 8.36667 2.67624 1.35307
12 2 8.38674 2.67276 -1.90909 8.38674 2.67276 -1.90909
13 1 9.32759 1.02821 -0.270668 9.32759 1.02821 -0.270668
14 2 11.2195 1.03881 1.37112 11.2195 1.03881 1.37112
15 2 11.2384 1.01753 -1.89096 11.2384 1.01753 -1.89096
16 1 12.1798 2.67457 -0.265554 12.1798 2.67457 -0.265554
17 2 14.0687 2.66934 1.37963 14.0687 2.66934 1.37963
18 2 14.0935 2.6802 -1.88246 14.0935 2.6802 -1.88246
19 1 15.0318 1.0283 -0.249736 15.0318 1.0283 -0.249736
20 2 16.9252 1.02739 1.39027 16.9252 1.02739 1.39027
21 2 16.941 1.02888 -1.87193 16.941 1.02888 -1.87193
22 1 17.8837 2.67457 -0.23563 17.8837 2.67457 -0.23563
23 2 19.7776 2.66012 1.40386 19.7776 2.66012 1.40386
24 2 19.7923 2.68807 -1.85817 19.7923 2.68807 -1.85817
25 1 20.7354 1.02746 -0.236996 20.7354 1.02746 -0.236996
26 2 22.6313 1.01684 1.40007 22.6313 1.01684 1.40007
27 2 22.6418 1.03795 -1.86206 22.6418 1.03795 -1.86206
28 1 23.5868 2.67416 -0.217242 23.5868 2.67416 -0.217242
29 2 25.4878 2.65794 1.4139 25.4878 2.65794 1.4139
30 2 25.4882 2.69096 -1.84814 25.4882 2.69096 -1.84814
31 1 26.4389 1.02795 -0.233731 26.4389 1.02795 -0.233731
32 2 28.341 1.01299 1.39629 28.341 1.01299 1.39629
33 2 28.3395 1.04187 -1.86572 28.3395 1.04187 -1.86572
34 1 29.2905 2.67403 -0.220561 29.2905 2.67403 -0.220561
35 2 31.1921 2.65231 1.40994 31.1921 2.65231 1.40994
36 2 31.1914 2.69427 -1.85194 31.1914 2.69427 -1.85194
37 1 32.1424 1.02665 -0.242302 32.1424 1.02665 -0.242302
38 2 34.0408 1.00364 1.39184 34.0408 1.00364 1.39184
39 2 34.0462 1.04964 -1.87004 34.0462 1.04964 -1.87004
40 1 34.9939 2.67312 -0.214169 34.9939 2.67312 -0.214169
41 2 36.8899 2.6524 1.42304 36.8899 2.6524 1.42304
42 2 36.9005 2.69313 -1.83888 36.9005 2.69313 -1.83888
43 1 37.8463 1.02664 -0.225749 37.8463 1.02664 -0.225749
44 2 39.7457 1.0175 1.40801 39.7457 1.0175 1.40801
45 2 39.7503 1.03625 -1.85444 39.7503 1.03625 -1.85444
46 1 40.6982 2.67311 -0.212166 40.6982 2.67311 -0.212166
47 2 42.5889 2.65763 1.3731 42.5889 2.65763 1.3731
48 2 42.5655 2.6902 -1.82344 42.5655 2.6902 -1.82344
49 1 43.6187 1.02815 -0.249147 43.6187 1.02815 -0.249147
50 2 -5.68229 1.02691 1.20745 70.9679 1.02691 1.20745
51 2 -6.48459 1.03359 -1.54402 70.1656 1.03359 -1.54402
52 1 -4.91637 2.67749 -0.503852 71.7339 2.67749 -0.503852
53 2 -3.0876 2.65454 1.19413 73.5626 2.65454 1.19413
54 2 -2.98505 2.69756 -2.08472 73.6652 2.69756 -2.08472
55 1 -2.08115 4.32125 -0.396724 -2.08115 4.32125 -0.396724
56 2 -0.224107 4.29938 1.28384 -0.224107 4.29938 1.28384
57 2 -0.136231 4.34144 -1.9768 -0.136231 4.34144 -1.9768
58 1 0.77081 5.96621 -0.299184 0.77081 5.96621 -0.299184
59 2 2.65472 5.94 1.352 2.65472 5.94 1.352
60 2 2.69005 5.99291 -1.90956 2.69005 5.99291 -1.90956
61 1 3.62337 4.32043 -0.295272 3.62337 4.32043 -0.295272
62 2 5.51227 4.30587 1.34987 5.51227 4.30587 1.34987
63 2 5.53725 4.33576 -1.91213 5.53725 4.33576 -1.91213
64 1 6.4756 5.96692 -0.258812 6.4756 5.96692 -0.258812
65 2 8.37464 5.94861 1.37463 8.37464 5.94861 1.37463
66 2 8.37917 5.98556 -1.88742 8.37917 5.98556 -1.88742
67 1 9.3276 4.32081 -0.273948 9.3276 4.32081 -0.273948
68 2 11.218 4.31039 1.36975 11.218 4.31039 1.36975
69 2 11.2397 4.3313 -1.89234 11.2397 4.3313 -1.89234
70 1 12.1792 5.96735 -0.244167 12.1792 5.96735 -0.244167
71 2 14.0707 5.95571 1.39842 14.0707 5.95571 1.39842
72 2 14.0901 5.97929 -1.86364 14.0901 5.97929 -1.86364
73 1 15.0316 4.32124 -0.238804 15.0316 4.32124 -0.238804
74 2 16.9237 4.30835 1.40293 16.9237 4.30835 1.40293
75 2 16.9421 4.33386 -1.85911 16.9421 4.33386 -1.85911
76 1 17.8831 5.96776 -0.209804 17.8831 5.96776 -0.209804
77 2 19.7751 5.95257 1.4321 19.7751 5.95257 1.4321
78 2 19.7937 5.98252 -1.82987 19.7937 5.98252 -1.82987
79 1 20.7351 4.32085 -0.208674 20.7351 4.32085 -0.208674
80 2 22.6333 4.30717 1.42589 22.6333 4.30717 1.42589
81 2 22.6393 4.3343 -1.83621 22.6393 4.3343 -1.83621
82 1 23.5862 5.96754 -0.189585 23.5862 5.96754 -0.189585
83 2 25.4852 5.95306 1.44384 25.4852 5.95306 1.44384
84 2 25.4894 5.9817 -1.81825 25.4894 5.9817 -1.81825
85 1 26.4383 4.32097 -0.200431 26.4383 4.32097 -0.200431
86 2 28.341 4.30335 1.42883 28.341 4.30335 1.42883
87 2 28.3382 4.338 -1.83312 28.3382 4.338 -1.83312
88 1 29.2899 5.96734 -0.18552 29.2899 5.96734 -0.18552
89 2 31.1853 5.94194 1.45239 31.1853 5.94194 1.45239
90 2 31.1971 5.99183 -1.80935 31.1971 5.99183 -1.80935
91 1 32.1419 4.3201 -0.200087 32.1419 4.3201 -0.200087
92 2 34.0347 4.29131 1.44047 34.0347 4.29131 1.44047
93 2 34.0512 4.34781 -1.82118 34.0512 4.34781 -1.82118
94 1 34.9933 5.96586 -0.156895 34.9933 5.96586 -0.156895
95 2 36.8974 5.9437 1.47074 36.8974 5.9437 1.47074
96 2 36.8919 5.98669 -1.79115 36.8919 5.98669 -1.79115
97 1 37.8458 4.31898 -0.183939 37.8458 4.31898 -0.183939
98 2 39.7572 4.30773 1.43574 39.7572 4.30773 1.43574
99 2 39.7377 4.32995 -1.82668 39.7377 4.32995 -1.82668
100 1 40.6972 5.96512 -0.190272 40.6972 5.96512 -0.190272
101 2 42.5803 5.95168 1.40165 42.5803 5.95168 1.40165
102 2 42.5722 5.97862 -1.79505 42.5722 5.97862 -1.79505
103 1 43.6183 4.31987 -0.215034 43.6183 4.31987 -0.215034
104 2 -5.68182 4.29393 1.23738 70.9684 4.29393 1.23738
105 2 -6.49091 4.34176 -1.50481 70.1593 4.34176 -1.50481
106 1 -4.91629 5.97223 -0.452537 71.7339 5.97223 -0.452537
107 2 -3.09861 5.91455 1.26025 73.5516 5.91455 1.26025
108 2 -2.96932 6.02117 -2.01475 73.6809 6.02117 -2.01475
109 1 -2.08158 7.61297 -0.285892 -2.08158 7.61297 -0.285892
110 2 -0.193196 7.57766 1.35914 -0.193196 7.57766 1.35914
111 2 -0.166909 7.64678 -1.90226 -0.166909 7.64678 -1.90226
112 1 0.770512 9.25801 -0.229744 0.770512 9.25801 -0.229744
113 2 2.66064 9.22696 1.41397 2.66064 9.22696 1.41397
114 2 2.68275 9.2893 -1.84761 2.68275 9.2893 -1.84761
115 1 3.62308 7.61242 -0.24196 3.62308 7.61242 -0.24196
116 2 5.51717 7.58392 1.39725 5.51717 7.58392 1.39725
117 2 5.53187 7.64169 -1.86444 5.53187 7.64169 -1.86444
118 1 6.4746 9.25908 -0.200279 6.4746 9.25908 -0.200279
119 2 8.37775 9.2278 1.42815 8.37775 9.2278 1.42815
120 2 8.37411 9.29107 -1.83345 8.37411 9.29107 -1.83345
121 1 9.32709 7.61353 -0.236142 9.32709 7.61353 -0.236142
122 2 11.2237 7.59813 1.40011 11.2237 7.59813 1.40011
123 2 11.2328 7.62909 -1.86198 11.2328 7.62909 -1.86198
124 1 12.178 9.26043 -0.212222 12.178 9.26043 -0.212222
125 2 14.0715 9.24447 1.42781 14.0715 9.24447 1.42781
126 2 14.0869 9.2766 -1.83418 14.0869 9.2766 -1.83418
127 1 15.0305 7.61421 -0.214974 15.0305 7.61421 -0.214974
128 2 16.9225 7.60308 1.4269 16.9225 7.60308 1.4269
129 2 16.9411 7.62523 -1.83512 16.9411 7.62523 -1.83512
130 1 17.8815 9.2611 -0.187382 17.8815 9.2611 -0.187382
131 2 19.7714 9.24972 1.45705 19.7714 9.24972 1.45705
132 2 19.7942 9.27207 -1.80495 19.7942 9.27207 -1.80495
133 1 20.7341 7.61438 -0.178453 20.7341 7.61438 -0.178453
134 2 22.6333 7.59968 1.45486 22.6333 7.59968 1.45486
135 2 22.6373 7.62849 -1.80722 22.6373 7.62849 -1.80722
136 1 23.5852 9.26075 -0.160582 23.5852 9.26075 -0.160582
137 2 25.485 9.24705 1.47198 25.485 9.24705 1.47198
138 2 25.4878 9.27355 -1.79011 25.4878 9.27355 -1.79011
139 1 26.4376 7.61396 -0.171613 26.4376 7.61396 -0.171613
140 2 28.3366 7.59586 1.46207 28.3366 7.59586 1.46207
141 2 28.3412 7.63185 -1.79988 28.3412 7.63185 -1.79988
142 1 29.2891 9.26048 -0.149439 29.2891 9.26048 -0.149439
143 2 31.1802 9.24179 1.49366 31.1802 9.24179 1.49366
144 2 31.2008 9.27855 -1.76821 31.2008 9.27855 -1.76821
145 1 32.1413 7.61342 -0.149712 32.1413 7.61342 -0.149712
146 2 34.033 7.58887 1.49253 34.033 7.58887 1.49253
147 2 34.0521 7.63635 -1.76922 34.0521 7.63635 -1.76922
148 1 34.9932 9.25881 -0.108814 34.9932 9.25881 -0.108814
149 2 36.8965 9.23058 1.51975 36.8965 9.23058 1.51975
150 2 36.8927 9.28549 -1.74193 36.8927 9.28549 -1.74193
151 1 37.8452 7.61148 -0.140076 37.8452 7.61148 -0.140076
152 2 39.7628 7.59032 1.47176 39.7628 7.59032 1.47176
153 2 39.7303 7.63155 -1.79039 39.7303 7.63155 -1.79039
154 1 40.6963 9.25724 -0.14714 40.6963 9.25724 -0.14714
155 2 42.6003 9.26887 1.42012 42.6003 9.26887 1.42012
156 2 42.5494 9.24503 -1.77631 42.5494 9.24503 -1.77631
157 1 43.6168 7.61142 -0.185145 43.6168 7.61142 -0.185145
158 2 -5.6849 7.51269 1.3476 70.9653 7.51269 1.3476
159 2 -6.41384 7.69782 -1.47747 70.2364 7.69782 -1.47747
160 1 -4.91278 9.25855 -0.264596 71.7374 9.25855 -0.264596
161 2 -3.05215 9.22156 1.38897 73.5981 9.22156 1.38897
162 2 -3.02937 9.29479 -1.89237 73.6209 9.29479 -1.89237
163 1 -2.0822 10.9032 -0.204293 -2.0822 10.9032 -0.204293
164 2 -0.189744 10.8609 1.43787 -0.189744 10.8609 1.43787
165 2 -0.171656 10.9463 -1.8232 -0.171656 10.9463 -1.8232
166 1 0.769019 12.5499 -0.144134 0.769019 12.5499 -0.144134
167 2 2.66869 12.5129 1.48867 2.66869 12.5129 1.48867
168 2 2.67192 12.5875 -1.77266 2.67192 12.5875 -1.77266
169 1 3.62168 10.9045 -0.178679 3.62168 10.9045 -0.178679
170 2 5.51608 10.8714 1.46022 5.51608 10.8714 1.46022
171 2 5.52981 10.9381 -1.80127 5.52981 10.9381 -1.80127
172 1 6.47282 12.5513 -0.132607 6.47282 12.5513 -0.132607
173 2 8.37913 12.5226 1.49213 8.37913 12.5226 1.49213
174 2 8.36909 12.5812 -1.76948 8.36909 12.5812 -1.76948
175 1 9.32565 10.9061 -0.171538 9.32565 10.9061 -0.171538
176 2 11.237 10.8845 1.44734 11.237 10.8845 1.44734
177 2 11.2166 10.9287 -1.81448 11.2166 10.9287 -1.81448
178 1 12.1763 12.5537 -0.166673 12.1763 12.5537 -0.166673
179 2 14.0809 12.5443 1.46058 14.0809 12.5443 1.46058
180 2 14.0741 12.5638 -1.8015 14.0741 12.5638 -1.8015
181 1 15.0288 10.9075 -0.182381 15.0288 10.9075 -0.182381
182 2 16.9252 10.894 1.45439 16.9252 10.894 1.45439
183 2 16.9348 10.9211 -1.80761 16.9348 10.9211 -1.80761
184 1 17.88 12.5545 -0.160321 17.88 12.5545 -0.160321
185 2 19.7701 12.5384 1.48405 19.7701 12.5384 1.48405
186 2 19.7926 12.57 -1.77784 19.7926 12.57 -1.77784
187 1 20.7326 10.9077 -0.156174 20.7326 10.9077 -0.156174
188 2 22.6268 10.8907 1.48289 22.6268 10.8907 1.48289
189 2 22.6409 10.9237 -1.77909 22.6409 10.9237 -1.77909
190 1 23.584 12.5537 -0.127523 23.584 12.5537 -0.127523
191 2 25.4844 12.535 1.50422 25.4844 12.535 1.50422
192 2 25.4862 12.5713 -1.75776 25.4862 12.5713 -1.75776
193 1 26.4366 10.9069 -0.144808 26.4366 10.9069 -0.144808
194 2 28.3317 10.8915 1.4934 28.3317 10.8915 1.4934
195 2 28.3442 10.9223 -1.76859 28.3442 10.9223 -1.76859
196 1 29.2886 12.5533 -0.118199 29.2886 12.5533 -0.118199
197 2 31.1781 12.5374 1.52693 31.1781 12.5374 1.52693
198 2 31.202 12.5686 -1.73497 31.202 12.5686 -1.73497
199 1 32.1411 10.9065 -0.112621 32.1411 10.9065 -0.112621
200 2 34.0278 10.8836 1.53558 34.0278 10.8836 1.53558
201 2 34.0571 10.9274 -1.72613 34.0571 10.9274 -1.72613
202 1 34.9933 12.5516 -0.0643133 34.9933 12.5516 -0.0643133
203 2 36.8952 12.532 1.5663 36.8952 12.532 1.5663
204 2 36.8942 12.5698 -1.69562 36.8942 12.5698 -1.69562
205 1 37.8453 10.9042 -0.0842347 37.8453 10.9042 -0.0842347
206 2 39.773 10.8889 1.51543 39.773 10.8889 1.51543
207 2 39.72 10.9184 -1.74657 39.72 10.9184 -1.74657
208 1 40.6968 12.5498 -0.11528 40.6968 12.5498 -0.11528
209 2 42.6306 12.5615 1.41651 42.6306 12.5615 1.41651
210 2 42.5185 12.5367 -1.77835 42.5185 12.5367 -1.77835
211 1 43.6154 10.9031 -0.20584 43.6154 10.9031 -0.20584
212 2 -6.4068 10.8091 0.967931 70.2434 10.8091 0.967931
213 2 -5.68414 11.0159 -1.86417 70.9661 11.0159 -1.86417
214 1 -4.9179 12.544 -0.054088 71.7323 12.544 -0.054088
215 2 -2.98246 12.4917 1.52164 73.6678 12.4917 1.52164
216 2 -3.08849 12.6048 -1.75394 73.5617 12.6048 -1.75394
217 1 -2.08333 14.1954 -0.0863056 -2.08333 14.1954 -0.0863056
218 2 -0.166783 14.1638 1.52799 -0.166783 14.1638 1.52799
219 2 -0.197104 14.2279 -1.73334 -0.197104 14.2279 -1.73334
220 1 0.767747 15.8427 -0.0780496 0.767747 15.8427 -0.0780496
221 2 2.66967 15.8173 1.55314 2.66967 15.8173 1.55314
222 2 2.66875 15.8686 -1.70861 2.66875 15.8686 -1.70861
223 1 3.62024 14.1967 -0.103379 3.62024 14.1967 -0.103379
224 2 5.52033 14.166 1.52916 5.52033 14.166 1.52916
225 2 5.52265 14.2284 -1.73239 5.52265 14.2284 -1.73239
226 1 6.47145 15.8441 -0.0691983 6.47145 15.8441 -0.0691983
227 2 8.38499 15.8245 1.54728 8.38499 15.8245 1.54728
228 2 8.36039 15.8659 -1.71449 8.36039 15.8659 -1.71449
229 1 9.32383 14.1989 -0.111967 9.32383 14.1989 -0.111967
230 2 11.2439 14.1793 1.4963 11.2439 14.1793 1.4963
231 2 11.206 14.2204 -1.76535 11.206 14.2204 -1.76535
232 1 12.1749 15.847 -0.124886 12.1749 15.847 -0.124886
233 2 14.0891 15.833 1.49088 14.0891 15.833 1.49088
234 2 14.0632 15.8619 -1.77099 14.0632 15.8619 -1.77099
235 1 15.0274 14.2011 -0.162358 15.0274 14.2011 -0.162358
236 2 16.9213 14.1894 1.47772 16.9213 14.1894 1.47772
237 2 16.9364 14.2128 -1.78426 16.9364 14.2128 -1.78426
238 1 17.8795 15.8477 -0.137049 17.8795 15.8477 -0.137049
239 2 19.7649 15.8316 1.51295 19.7649 15.8316 1.51295
240 2 19.7969 15.8635 -1.74886 19.7969 15.8635 -1.74886
241 1 20.7316 14.2008 -0.124467 20.7316 14.2008 -0.124467
242 2 22.6236 14.181 1.51746 22.6236 14.181 1.51746
243 2 22.6423 14.2194 -1.74442 22.6423 14.2194 -1.74442
244 1 23.5837 15.8465 -0.0885516 23.5837 15.8465 -0.0885516
245 2 25.4865 15.8297 1.54065 25.4865 15.8297 1.54065
246 2 25.4837 15.862 -1.72136 25.4837 15.862 -1.72136
247 1 26.436 14.1995 -0.107658 26.436 14.1995 -0.107658
248 2 28.3351 14.1853 1.52601 28.3351 14.1853 1.52601
249 2 28.3397 14.2139 -1.73602 28.3397 14.2139 -1.73602
250 1 29.2887 15.8457 -0.0887366 29.2887 15.8457 -0.0887366
251 2 31.1845 15.8432 1.54936 31.1845 15.8432 1.54936
252 2 31.196 15.8481 -1.71276 31.196 15.8481 -1.71276
253 1 32.141 14.1991 -0.0807861 32.141 14.1991 -0.0807861
254 2 34.0314 14.1944 1.56381 34.0314 14.1944 1.56381
255 2 34.0536 14.2021 -1.69826 34.0536 14.2021 -1.69826
256 1 34.9938 15.8443 -0.0564186 34.9938 15.8443 -0.0564186
257 2 36.8932 15.8503 1.57719 36.8932 15.8503 1.57719
258 2 36.8971 15.8371 -1.68498 36.8971 15.8371 -1.68498
259 1 37.846 14.1971 -0.0459168 37.846 14.1971 -0.0459168
260 2 39.7816 14.1881 1.54464 39.7816 14.1881 1.54464
261 2 39.7132 14.2047 -1.71709 39.7132 14.2047 -1.71709
262 1 40.6981 15.8424 -0.0978459 40.6981 15.8424 -0.0978459
263 2 42.6441 15.8351 1.4193 42.6441 15.8351 1.4193
264 2 42.507 15.848 -1.77457 42.507 15.848 -1.77457
265 1 43.615 14.1951 -0.228455 43.615 14.1951 -0.228455
266 2 -6.50908 14.1648 0.988833 70.1411 14.1648 0.988833
267 2 -5.6614 14.2393 -1.73792 70.9888 14.2393 -1.73792
268 1 -4.91839 15.8388 0.0296265 71.7318 15.8388 0.0296265
269 2 -2.99348 15.7991 1.61766 73.6567 15.7991 1.61766
270 2 -3.08254 15.8821 -1.66075 73.5677 15.8821 -1.66075
271 1 -2.08503 17.4879 -0.00357056 -2.08503 17.4879 -0.00357056
272 2 -0.15505 17.4644 1.59389 -0.15505 17.4644 1.59389
273 2 -0.212686 17.5126 -1.66731 -0.212686 17.5126 -1.66731
274 1 0.765901 19.1357 -0.0287452 0.765901 19.1357 -0.0287452
275 2 2.67175 19.1193 1.59817 2.67175 19.1193 1.59817
276 2 2.66348 19.1528 -1.66368 2.66348 19.1528 -1.66368
277 1 3.61907 17.4899 -0.0519456 3.61907 17.4899 -0.0519456
278 2 5.52025 17.4728 1.57951 5.52025 17.4728 1.57951
279 2 5.52064 17.5082 -1.68242 5.52064 17.5082 -1.68242
280 1 6.4705 19.1376 -0.0334742 6.4705 19.1376 -0.0334742
281 2 8.38423 19.1242 1.58284 8.38423 19.1242 1.58284
282 2 8.35935 19.1529 -1.67909 8.35935 19.1529 -1.67909
283 1 9.32277 17.4923 -0.069957 9.32277 17.4923 -0.069957
284 2 11.2458 17.4775 1.53496 11.2458 17.4775 1.53496
285 2 11.2021 17.5094 -1.72671 11.2021 17.5094 -1.72671
286 1 12.1745 19.1402 -0.0926594 12.1745 19.1402 -0.0926594
287 2 14.0886 19.123 1.52327 14.0886 19.123 1.52327
288 2 14.0632 19.158 -1.73861 14.0632 19.158 -1.73861
289 1 15.0268 17.4942 -0.132839 15.0268 17.4942 -0.132839
290 2 16.9222 17.4786 1.50578 16.9222 17.4786 1.50578
291 2 16.9346 17.5096 -1.75618 16.9346 17.5096 -1.75618
292 1 17.8793 19.1403 -0.105617 17.8793 19.1403 -0.105617
293 2 19.7644 19.1245 1.54484 19.7644 19.1245 1.54484
294 2 19.7972 19.1558 -1.717 19.7972 19.1558 -1.717
295 1 20.7318 17.4938 -0.0923733 20.7318 17.4938 -0.0923733
296 2 22.6233 17.48 1.55018 22.6233 17.48 1.55018
297 2 22.6431 17.5065 -1.7118 22.6431 17.5065 -1.7118
298 1 23.5845 19.1393 -0.0613772 23.5845 19.1393 -0.0613772
299 2 25.4922 19.1366 1.56231 25.4922 19.1366 1.56231
300 2 25.4799 19.1407 -1.69983 25.4799 19.1407 -1.69983
301 1 26.4364 17.492 -0.0745847 26.4364 17.492 -0.0745847
302 2 28.3458 17.4918 1.54728 28.3458 17.4918 1.54728
303 2 28.33 17.4922 -1.71487 28.33 17.4922 -1.71487
304 1 29.2896 19.1379 -0.0878653 29.2896 19.1379 -0.0878653
305 2 31.1924 19.1516 1.54208 31.1924 19.1516 1.54208
306 2 31.19 19.1244 -1.72 31.19 19.1244 -1.72
307 1 32.1418 17.4916 -0.0756115 32.1418 17.4916 -0.0756115
308 2 34.0375 17.499 1.56278 34.0375 17.499 1.56278
309 2 34.0491 17.4827 -1.69935 34.0491 17.4827 -1.69935
310 1 34.995 19.1366 -0.0729325 34.995 19.1366 -0.0729325
311 2 36.9025 19.159 1.5513 36.9025 19.159 1.5513
312 2 36.8904 19.1128 -1.71058 36.8904 19.1128 -1.71058
313 1 37.8468 17.4895 -0.0594699 37.8468 17.4895 -0.0594699
314 2 39.7747 17.4965 1.54043 39.7747 17.4965 1.54043
315 2 39.7216 17.4815 -1.72166 39.7216 17.4815 -1.72166
316 1 40.6983 19.1351 -0.114775 40.6983 19.1351 -0.114775
317 2 42.6234 19.1184 1.42744 42.6234 19.1184 1.42744
318 2 42.5292 19.15 -1.76794 42.5292 19.15 -1.76794
319 1 43.6163 17.4877 -0.215509 43.6163 17.4877 -0.215509
320 2 -6.48549 17.4714 1.09021 70.1647 17.4714 1.09021
321 2 -5.68201 17.5089 -1.66302 70.9682 17.5089 -1.66302
322 1 -4.92022 19.1331 0.0738714 71.73 19.1331 0.0738714
323 2 -3.00264 19.1187 1.67067 73.6476 19.1187 1.67067
324 2 -3.07896 19.1495 -1.60891 73.5713 19.1495 -1.60891
325 1 -2.08734 20.7817 0.0269322 -2.08734 20.7817 0.0269322
326 2 -0.161939 20.7673 1.63021 -0.161939 20.7673 1.63021
327 2 -0.209512 20.7965 -1.63125 -0.209512 20.7965 -1.63125
328 1 0.764671 22.4291 0.000663426 0.764671 22.4291 0.000663426
329 2 2.67442 22.4244 1.62285 2.67442 22.4244 1.62285
330 2 2.65833 22.4347 -1.63913 2.65833 22.4347 -1.63913
331 1 3.61777 20.7832 -0.0178477 3.61777 20.7832 -0.0178477
332 2 5.52362 20.7753 1.60864 5.52362 20.7753 1.60864
333 2 5.51499 20.7926 -1.65339 5.51499 20.7926 -1.65339
334 1 6.46955 22.4309 -0.0161313 6.46955 22.4309 -0.0161313
335 2 8.38128 22.4244 1.603 8.38128 22.4244 1.603
336 2 8.36089 22.4389 -1.659 8.36089 22.4389 -1.659
337 1 9.32229 20.7854 -0.0411552 9.32229 20.7854 -0.0411552
338 2 11.2446 20.7722 1.56495 11.2446 20.7722 1.56495
339 2 11.2027 20.8007 -1.6968 11.2027 20.8007 -1.6968
340 1 12.1743 22.4329 -0.0637502 12.1743 22.4329 -0.0637502
341 2 14.0879 22.4206 1.55322 14.0879 22.4206 1.55322
342 2 14.0637 22.4455 -1.7088 14.0637 22.4455 -1.7088
343 1 15.0268 20.7868 -0.0972868 15.0268 20.7868 -0.0972868
344 2 16.9229 20.7684 1.54048 16.9229 20.7684 1.54048
345 2 16.9336 20.8045 -1.7215 16.9336 20.8045 -1.7215
346 1 17.8794 22.4325 -0.0686297 17.8794 22.4325 -0.0686297
347 2 19.7732 22.4271 1.57184 19.7732 22.4271 1.57184
348 2 19.7886 22.4376 -1.69027 19.7886 22.4376 -1.69027
349 1 20.732 20.7861 -0.0602063 20.732 20.7861 -0.0602063
350 2 22.6315 20.7808 1.57352 22.6315 20.7808 1.57352
351 2 22.6359 20.7907 -1.68859 22.6359 20.7907 -1.68859
352 1 23.5855 22.4316 -0.0511759 23.5855 22.4316 -0.0511759
353 2 25.5019 22.4381 1.56237 25.5019 22.4381 1.56237
354 2 25.4727 22.424 -1.69961 25.4727 22.424 -1.69961
355 1 26.4378 20.7846 -0.0702374 26.4378 20.7846 -0.0702374
356 2 28.3538 20.7923 1.54349 28.3538 20.7923 1.54349
357 2 28.3246 20.7761 -1.71856 28.3246 20.7761 -1.71856
358 1 29.2909 22.43 -0.104346 29.2909 22.43 -0.104346
359 2 31.1992 22.4428 1.5188 31.1992 22.4428 1.5188
360 2 31.1856 22.4171 -1.74328 31.1856 22.4171 -1.74328
361 1 32.143 20.7836 -0.103247 32.143 20.7836 -0.103247
362 2 34.0389 20.8027 1.53458 34.0389 20.8027 1.53458
363 2 34.0502 20.7633 -1.72736 34.0502 20.7633 -1.72736
364 1 34.9957 22.429 -0.113168 34.9957 22.429 -0.113168
365 2 36.9032 22.4458 1.51036 36.9032 22.4458 1.51036
366 2 36.8907 22.4109 -1.75168 36.8907 22.4109 -1.75168
367 1 37.8473 20.7819 -0.106553 37.8473 20.7819 -0.106553
368 2 39.7666 20.8042 1.5031 39.7666 20.8042 1.5031
369 2 39.7302 20.7592 -1.75902 39.7302 20.7592 -1.75902
370 1 40.698 22.4278 -0.162282 40.698 22.4278 -0.162282
371 2 42.5871 22.421 1.42265 42.5871 22.421 1.42265
372 2 42.5661 22.4334 -1.77425 42.5661 22.4334 -1.77425
373 1 43.6173 20.7805 -0.187189 43.6173 20.7805 -0.187189
374 2 -6.49825 20.7667 1.11688 70.152 20.7667 1.11688
375 2 -5.67521 20.7999 -1.62633 70.975 20.7999 -1.62633
376 1 -4.92296 22.4281 0.112854 71.7273 22.4281 0.112854
377 2 -2.99816 22.4158 1.70216 73.6521 22.4158 1.70216
378 2 -3.08691 22.441 -1.57685 73.5633 22.441 -1.57685
379 1 -2.08792 24.0756 0.0524164 -2.08792 24.0756 0.0524164
380 2 -0.157927 24.0732 1.6504 -0.157927 24.0732 1.6504
381 2 -0.214903 24.0782 -1.61103 -0.214903 24.0782 -1.61103
382 1 0.763733 25.723 0.00588127 0.763733 25.723 0.00588127
383 2 2.67287 25.7222 1.62873 2.67287 25.7222 1.62873
384 2 2.65777 25.7245 -1.63326 2.65777 25.7245 -1.63326
385 1 3.61655 24.0767 -0.0075758 3.61655 24.0767 -0.0075758
386 2 5.52181 24.0748 1.61943 5.52181 24.0748 1.61943
387 2 5.51449 24.0798 -1.64262 5.51449 24.0798 -1.64262
388 1 6.4687 25.7241 -0.011069 6.4687 25.7241 -0.011069
389 2 8.3778 25.7218 1.61124 8.3778 25.7218 1.61124
390 2 8.3629 25.7273 -1.65081 8.3629 25.7273 -1.65081
391 1 9.32169 24.0784 -0.0268008 9.32169 24.0784 -0.0268008
392 2 11.2399 24.0716 1.58444 11.2399 24.0716 1.58444
393 2 11.2065 24.0865 -1.67753 11.2065 24.0865 -1.67753
394 1 12.1742 25.7252 -0.0487992 12.1742 25.7252 -0.0487992
395 2 14.0866 25.7209 1.56963 14.0866 25.7209 1.56963
396 2 14.065 25.7294 -1.6925 14.065 25.7294 -1.6925
397 1 15.0269 24.079 -0.0719823 15.0269 24.079 -0.0719823
398 2 16.9253 24.0762 1.56316 16.9253 24.0762 1.56316
399 2 16.9315 24.0812 -1.69904 16.9315 24.0812 -1.69904
400 1 17.8799 25.7246 -0.0632296 17.8799 25.7246 -0.0632296
401 2 19.7767 25.7296 1.57378 19.7767 25.7296 1.57378
402 2 19.7863 25.7194 -1.68832 19.7863 25.7194 -1.68832
403 1 20.7326 24.0783 -0.0492475 20.7326 24.0783 -0.0492475
404 2 22.6366 24.0801 1.5792 22.6366 24.0801 1.5792
405 2 22.6322 24.0757 -1.6829 22.6322 24.0757 -1.6829
406 1 23.5861 25.7238 -0.0553676 23.5861 25.7238 -0.0553676
407 2 25.5082 25.7305 1.55145 25.5082 25.7305 1.55145
408 2 25.4674 25.7159 -1.7104 25.4674 25.7159 -1.7104
409 1 26.4387 24.0769 -0.0842321 26.4387 24.0769 -0.0842321
410 2 28.3576 24.087 1.52611 28.3576 24.087 1.52611
411 2 28.3228 24.0657 -1.73584 28.3228 24.0657 -1.73584
412 1 29.2914 25.7223 -0.125676 29.2914 25.7223 -0.125676
413 2 31.2014 25.7332 1.49562 31.2014 25.7332 1.49562
414 2 31.1843 25.7111 -1.76647 31.1843 25.7111 -1.76647
415 1 32.1437 24.0759 -0.129101 32.1437 24.0759 -0.129101
416 2 34.0435 24.0883 1.50407 34.0435 24.0883 1.50407
417 2 34.0467 24.0626 -1.75802 34.0467 24.0626 -1.75802
418 1 34.996 25.7217 -0.13904 34.996 25.7217 -0.13904
419 2 36.9021 25.7272 1.48613 36.9021 25.7272 1.48613
420 2 36.8922 25.7154 -1.77611 36.8922 25.7154 -1.77611
421 1 37.8474 24.0747 -0.142239 37.8474 24.0747 -0.142239
422 2 39.7674 24.0877 1.46621 39.7674 24.0877 1.46621
423 2 39.7294 24.0609 -1.7961 39.7294 24.0609 -1.7961
424 1 40.6987 25.7203 -0.189816 40.6987 25.7203 -0.189816
425 2 42.574 25.7248 1.41163 42.574 25.7248 1.41163
426 2 42.581 25.7145 -1.78525 42.581 25.7145 -1.78525
427 1 43.6181 24.0731 -0.178932 43.6181 24.0731 -0.178932
428 2 -6.49241 24.073 1.15224 70.1578 24.073 1.15224
429 2 -5.68361 24.0826 -1.59679 70.9666 24.0826 -1.59679
430 1 -4.92181 25.7238 0.125081 71.7284 25.7238 0.125081
431 2 -2.99563 25.7263 1.71271 73.6546 25.7263 1.71271
432 2 -3.0876 25.7198 -1.56648 73.5626 25.7198 -1.56648
433 1 -2.08812 27.3705 0.045908 -2.08812 27.3705 0.045908
434 2 -0.157785 27.3803 1.64301 -0.157785 27.3803 1.64301
435 2 -0.216042 27.3598 -1.61841 -0.216042 27.3598 -1.61841
436 1 0.763302 29.017 -0.0146956 0.763302 29.017 -0.0146956
437 2 2.66613 29.0269 1.61584 2.66613 29.0269 1.61584
438 2 2.66372 29.0073 -1.64614 2.66372 29.0073 -1.64614
439 1 3.61581 27.3703 -0.0055477 3.61581 27.3703 -0.0055477
440 2 5.521 27.371 1.62161 5.521 27.371 1.62161
441 2 5.51381 27.37 -1.64045 5.51381 27.37 -1.64045
442 1 6.46841 29.0171 -0.011864 6.46841 29.0171 -0.011864
443 2 8.37654 29.0187 1.61184 8.37654 29.0187 1.61184
444 2 8.36369 29.0156 -1.65023 8.36369 29.0156 -1.65023
445 1 9.32139 27.371 -0.0214243 9.32139 27.371 -0.0214243
446 2 11.2379 27.37 1.59206 11.2379 27.37 1.59206
447 2 11.2082 27.3724 -1.66997 11.2082 27.3724 -1.66997
448 1 12.1746 29.017 -0.0463073 12.1746 29.017 -0.0463073
449 2 14.0894 29.0228 1.56942 14.0894 29.0228 1.56942
450 2 14.0632 29.0109 -1.69268 14.0632 29.0109 -1.69268
451 1 15.0273 27.3709 -0.0632659 15.0273 27.3709 -0.0632659
452 2 16.9334 27.3782 1.56284 16.9334 27.3782 1.56284
453 2 16.9243 27.3632 -1.69933 16.9243 27.3632 -1.69933
454 1 17.8805 29.0165 -0.0781263 17.8805 29.0165 -0.0781263
455 2 19.7823 29.035 1.55294 19.7823 29.035 1.55294
456 2 19.7818 28.9982 -1.70904 19.7818 28.9982 -1.70904
457 1 20.7332 27.3704 -0.0594372 20.7332 27.3704 -0.0594372
458 2 22.641 27.3846 1.56451 22.641 27.3846 1.56451
459 2 22.6287 27.3555 -1.69745 22.6287 27.3555 -1.69745
460 1 23.5863 29.0159 -0.0848425 23.5863 29.0159 -0.0848425
461 2 25.5072 29.035 1.52333 25.5072 29.035 1.52333
462 2 25.4686 28.9956 -1.73837 25.4686 28.9956 -1.73837
463 1 26.439 27.3691 -0.0987962 26.439 27.3691 -0.0987962
464 2 28.3643 27.3834 1.50413 28.3643 27.3834 1.50413
465 2 28.3165 27.3538 -1.75755 28.3165 27.3538 -1.75755
466 1 29.2915 29.0145 -0.155549 29.2915 29.0145 -0.155549
467 2 31.2002 29.0305 1.46726 31.2002 29.0305 1.46726
468 2 31.1859 28.9983 -1.79475 31.1859 28.9983 -1.79475
469 1 32.144 27.3682 -0.151547 32.144 27.3682 -0.151547
470 2 34.0461 27.3814 1.47908 34.0461 27.3814 1.47908
471 2 34.0448 27.355 -1.78303 34.0448 27.355 -1.78303
472 1 34.9969 29.014 -0.165599 34.9969 29.014 -0.165599
473 2 36.8969 29.0225 1.46721 36.8969 29.0225 1.46721
474 2 36.8996 29.0053 -1.79501 36.8996 29.0053 -1.79501
475 1 37.8483 27.3673 -0.154279 37.8483 27.3673 -0.154279
476 2 39.7635 27.3568 1.46037 39.7635 27.3568 1.46037
477 2 39.7355 27.377 -1.8021 39.7355 27.377 -1.8021
478 1 40.7004 29.0126 -0.168358 40.7004 29.0126 -0.168358
479 2 42.5937 29.0176 1.41304 42.5937 29.0176 1.41304
480 2 42.5642 29.006 -1.78375 42.5642 29.006 -1.78375
481 1 43.6194 27.3653 -0.189825 43.6194 27.3653 -0.189825
482 2 -6.49679 27.38 1.1379 70.1534 27.38 1.1379
483 2 -5.67948 27.3577 -1.60629 70.9707 27.3577 -1.60629
484 1 -4.9224 29.0194 0.0983179 71.7278 29.0194 0.0983179
485 2 -3.00086 29.0342 1.69083 73.6494 29.0342 1.69083
486 2 -3.08475 29.0019 -1.58851 73.5655 29.0019 -1.58851
487 1 -2.08867 30.6649 0.0137109 -2.08867 30.6649 0.0137109
488 2 -0.157865 30.6858 1.61044 -0.157865 30.6858 1.61044
489 2 -0.216855 30.6424 -1.6507 -0.216855 30.6424 -1.6507
490 1 0.763718 32.3104 -0.0595493 0.763718 32.3104 -0.0595493
491 2 2.66087 32.335 1.57749 2.66087 32.335 1.57749
492 2 2.66995 32.2859 -1.68418 2.66995 32.2859 -1.68418
493 1 3.61585 30.6637 -0.0256821 3.61585 30.6637 -0.0256821
494 2 5.51684 30.6758 1.60626 5.51684 30.6758 1.60626
495 2 5.51796 30.6514 -1.65572 5.51796 30.6514 -1.65572
496 1 6.46888 32.3098 -0.0368258 6.46888 32.3098 -0.0368258
497 2 8.36947 32.3196 1.5955 8.36947 32.3196 1.5955
498 2 8.37173 32.2991 -1.66654 8.37173 32.2991 -1.66654
499 1 9.32173 30.6632 -0.0245288 9.32173 30.6632 -0.0245288
500 2 11.2381 30.6671 1.58924 11.2381 30.6671 1.58924
501 2 11.2089 30.659 -1.67279 11.2089 30.659 -1.67279
502 1 12.1751 32.3087 -0.0544114 12.1751 32.3087 -0.0544114
503 2 14.0933 32.317 1.55706 14.0933 32.317 1.55706
504 2 14.0601 32.2998 -1.70497 14.0601 32.2998 -1.70497
505 1 15.0278 30.6625 -0.0751213 15.0278 30.6625 -0.0751213
506 2 16.9381 30.6745 1.54576 16.9381 30.6745 1.54576
507 2 16.9205 30.6502 -1.71637 16.9205 30.6502 -1.71637
508 1 17.8806 32.3081 -0.102512 17.8806 32.3081 -0.102512
509 2 19.7927 32.3325 1.51606 19.7927 32.3325 1.51606
510 2 19.7713 32.2838 -1.74576 19.7713 32.2838 -1.74576
511 1 20.7334 30.6623 -0.0965488 20.7334 30.6623 -0.0965488
512 2 22.6437 30.6884 1.52424 22.6437 30.6884 1.52424
513 2 22.6263 30.6356 -1.73747 22.6263 30.6356 -1.73747
514 1 23.5863 32.3075 -0.138668 23.5863 32.3075 -0.138668
515 2 25.5003 32.3281 1.47743 25.5003 32.3281 1.47743
516 2 25.4753 32.2855 -1.78443 25.4753 32.2855 -1.78443
517 1 26.4391 30.6609 -0.13913 26.4391 30.6609 -0.13913
518 2 28.3588 30.6763 1.47018 28.3588 30.6763 1.47018
519 2 28.3223 30.6449 -1.79168 28.3223 30.6449 -1.79168
520 1 29.2922 32.3062 -0.187272 29.2922 32.3062 -0.187272
521 2 31.2021 32.3231 1.43442 31.2021 32.3231 1.43442
522 2 31.1856 32.2891 -1.82755 31.1856 32.2891 -1.82755
523 1 32.1448 30.6601 -0.184061 32.1448 30.6601 -0.184061
524 2 34.0445 30.6747 1.44955 34.0445 30.6747 1.44955
525 2 34.0483 30.6456 -1.81254 34.0483 30.6456 -1.81254
526 1 34.9982 32.3058 -0.194768 34.9982 32.3058 -0.194768
527 2 36.8973 32.3229 1.43989 36.8973 32.3229 1.43989
528 2 36.9022 32.2889 -1.82221 36.9022 32.2889 -1.82221
529 1 37.8499 30.6597 -0.171844 37.8499 30.6597 -0.171844
530 2 39.7469 30.6551 1.46484 39.7469 30.6551 1.46484
531 2 39.7557 30.6634 -1.79777 39.7557 30.6634 -1.79777
532 1 40.7018 32.3053 -0.159537 40.7018 32.3053 -0.159537
533 2 42.6024 32.3012 1.4147 42.6024 32.3012 1.4147
534 2 42.5588 32.3073 -1.78189 42.5588 32.3073 -1.78189