ITEM: TIMESTEP
2197000
ITEM: NUMBER OF ATOMS
810
ITEM: BOX BOUNDS pp pp pp
-4.7714018503770212e+00 5.7789006850376090e+01
8.1394622342039402e-01 5.0202268776579182e+01
-1.0000000000000000e+01 1.0000000000000000e+01
ITEM: ATOMS id type x y z xu yu zu
1 1 -4.47235 1.02622 -0.142226 -4.47235 1.02622 -0.142226
2 2 -2.16193 1.03044 1.46359 -2.16193 1.03044 1.46359
3 2 -2.16071 1.02308 -1.74588 -2.16071 1.02308 -1.74588
4 1 -0.997587 2.67346 -0.144579 -0.997587 2.67346 -0.144579
5 2 1.31437 2.67825 1.45856 1.31437 2.67825 1.45856
6 2 1.3118 2.67006 -1.75093 1.3118 2.67006 -1.75093
7 1 2.4773 1.02801 -0.142967 2.4773 1.02801 -0.142967
8 2 4.79087 1.03101 1.45745 4.79087 1.03101 1.45745
9 2 4.7845 1.02635 -1.75204 4.7845 1.02635 -1.75204
10 1 5.95133 2.67535 -0.152126 5.95133 2.67535 -0.152126
11 2 8.26695 2.67851 1.44552 8.26695 2.67851 1.44552
12 2 8.25667 2.67334 -1.76396 8.25667 2.67334 -1.76396
13 1 9.42604 1.02976 -0.160293 9.42604 1.02976 -0.160293
14 2 11.7434 1.03081 1.43505 11.7434 1.03081 1.43505
15 2 11.73 1.02939 -1.77441 11.73 1.02939 -1.77441
16 1 12.9006 2.67656 -0.175233 12.9006 2.67656 -0.175233
17 2 15.2182 2.67741 1.4206 15.2182 2.67741 1.4206
18 2 15.2057 2.67598 -1.78886 15.2057 2.67598 -1.78886
19 1 16.3764 1.03047 -0.187873 16.3764 1.03047 -0.187873
20 2 18.6943 1.02943 1.408 18.6943 1.02943 1.408
21 2 18.6821 1.03142 -1.80148 18.6821 1.03142 -1.80148
22 1 19.8523 2.67673 -0.200204 19.8523 2.67673 -0.200204
23 2 22.1689 2.67553 1.39704 22.1689 2.67553 1.39704
24 2 22.1585 2.67766 -1.81247 22.1585 2.67766 -1.81247
25 1 23.328 1.03034 -0.212457 23.328 1.03034 -0.212457
26 2 25.6417 1.03071 1.38829 25.6417 1.03071 1.38829
27 2 25.6366 1.02928 -1.82124 25.6366 1.02928 -1.82124
28 1 26.8031 2.67625 -0.218982 26.8031 2.67625 -0.218982
29 2 29.1149 2.67558 1.38453 29.1149 2.67558 1.38453
30 2 29.1137 2.67596 -1.82499 29.1137 2.67596 -1.82499
31 1 30.2787 1.02947 -0.220773 30.2787 1.02947 -0.220773
32 2 32.5877 1.0301 1.38692 32.5877 1.0301 1.38692
33 2 32.5925 1.02753 -1.82257 32.5925 1.02753 -1.82257
34 1 33.7543 2.67496 -0.217411 33.7543 2.67496 -0.217411
35 2 36.0623 2.67392 1.39299 36.0623 2.67392 1.39299
36 2 36.0706 2.67454 -1.81648 36.0706 2.67454 -1.81648
37 1 37.231 1.02787 -0.208935 37.231 1.02787 -0.208935
38 2 39.5363 1.02928 1.40565 39.5363 1.02928 1.40565
39 2 39.5507 1.02495 -1.8038 39.5507 1.02495 -1.8038
40 1 40.7078 2.67318 -0.196195 40.7078 2.67318 -0.196195
41 2 43.0135 2.67408 1.41784 43.0135 2.67408 1.41784
42 2 43.0266 2.67103 -1.79162 43.0266 2.67103 -1.79162
43 1 44.1844 1.0262 -0.180639 44.1844 1.0262 -0.180639
44 2 46.4899 1.02893 1.43337 46.4899 1.02893 1.43337
45 2 46.503 1.02253 -1.77607 46.503 1.02253 -1.77607
46 1 47.6607 2.67192 -0.170037 47.6607 2.67192 -0.170037
47 2 49.9676 2.67381 1.44193 49.9676 2.67381 1.44193
48 2 49.9776 2.66973 -1.76753 49.9776 2.66973 -1.76753
49 1 51.1368 1.02548 -0.157076 51.1368 1.02548 -0.157076
50 2 53.4439 1.02929 1.45409 53.4439 1.02929 1.45409
51 2 53.4529 1.02184 -1.75536 53.4529 1.02184 -1.75536
52 1 54.6125 2.67203 -0.151332 54.6125 2.67203 -0.151332
53 2 56.9215 2.67639 1.45684 56.9215 2.67639 1.45684
54 2 56.9261 2.66846 -1.75262 56.9261 2.66846 -1.75262
55 1 -4.47267 4.31903 -0.150361 -4.47267 4.31903 -0.150361
56 2 -2.16213 4.32443 1.45505 -2.16213 4.32443 1.45505
57 2 -2.16135 4.31489 -1.75441 -2.16135 4.31489 -1.75441
58 1 -0.997792 5.96628 -0.154338 -0.997792 5.96628 -0.154338
59 2 1.3139 5.97204 1.44903 1.3139 5.97204 1.44903
60 2 1.31187 5.96204 -1.76045 1.31187 5.96204 -1.76045
61 1 2.47683 4.32082 -0.151377 2.47683 4.32082 -0.151377
62 2 4.78981 4.32617 1.44985 4.78981 4.32617 1.44985
63 2 4.78469 4.3169 -1.75963 4.78469 4.3169 -1.75963
64 1 5.95125 5.96806 -0.161545 5.95125 5.96806 -0.161545
65 2 8.26569 5.97267 1.43781 8.26569 5.97267 1.43781
66 2 8.25795 5.96468 -1.77168 8.25795 5.96468 -1.77168
67 1 9.42572 4.32242 -0.165651 9.42572 4.32242 -0.165651
68 2 11.7419 4.32487 1.43133 11.7419 4.32487 1.43133
69 2 11.731 4.32074 -1.77814 11.731 4.32074 -1.77814
70 1 12.9008 5.96911 -0.179489 12.9008 5.96911 -0.179489
71 2 15.217 5.96992 1.41827 15.217 5.96992 1.41827
72 2 15.2073 5.96872 -1.79121 15.2073 5.96872 -1.79121
73 1 16.3762 4.32299 -0.18933 16.3762 4.32299 -0.18933
74 2 18.6928 4.32255 1.40845 18.6928 4.32255 1.40845
75 2 18.6834 4.32349 -1.80104 18.6834 4.32349 -1.80104
76 1 19.8525 5.96923 -0.19927 19.8525 5.96923 -0.19927
77 2 22.1674 5.96615 1.40009 22.1674 5.96615 1.40009
78 2 22.1602 5.97219 -1.80943 22.1602 5.97219 -1.80943
79 1 23.3278 4.32283 -0.210336 23.3278 4.32283 -0.210336
80 2 25.642 4.3209 1.38967 25.642 4.3209 1.38967
81 2 25.6357 4.32422 -1.81985 25.6357 4.32422 -1.81985
82 1 26.8031 5.96872 -0.215562 26.8031 5.96872 -0.215562
83 2 29.1147 5.96485 1.38812 29.1147 5.96485 1.38812
84 2 29.1139 5.97175 -1.82139 29.1139 5.97175 -1.82139
85 1 30.2784 4.32192 -0.220392 30.2784 4.32192 -0.220392
86 2 32.5877 4.31999 1.38705 32.5877 4.31999 1.38705
87 2 32.5921 4.32265 -1.82244 32.5921 4.32265 -1.82244
88 1 33.7543 5.96737 -0.214669 33.7543 5.96737 -0.214669
89 2 36.0615 5.96259 1.39682 36.0615 5.96259 1.39682
90 2 36.0717 5.9708 -1.81263 36.0717 5.9708 -1.81263
91 1 37.2309 4.32027 -0.208393 37.2309 4.32027 -0.208393
92 2 39.5374 4.3189 1.40485 39.5374 4.3189 1.40485
93 2 39.5497 4.32025 -1.80461 39.5497 4.32025 -1.80461
94 1 40.7081 5.96558 -0.194778 40.7081 5.96558 -0.194778
95 2 43.0148 5.96422 1.41781 43.0148 5.96422 1.41781
96 2 43.026 5.96588 -1.79165 43.026 5.96588 -1.79165
97 1 44.1845 4.31864 -0.183765 44.1845 4.31864 -0.183765
98 2 46.4909 4.31985 1.42905 46.4909 4.31985 1.42905
99 2 46.5022 4.3167 -1.7804 46.5022 4.3167 -1.7804
100 1 47.661 5.96448 -0.173246 47.661 5.96448 -0.173246
101 2 49.9676 5.9653 1.4388 49.9676 5.9653 1.4388
102 2 49.9779 5.9636 -1.77066 49.9779 5.9636 -1.77066
103 1 51.1368 4.31811 -0.16141 51.1368 4.31811 -0.16141
104 2 53.4448 4.32076 1.44846 53.4448 4.32076 1.44846
105 2 53.4518 4.31586 -1.76099 53.4518 4.31586 -1.76099
106 1 54.6124 5.9648 -0.156347 54.6124 5.9648 -0.156347
107 2 56.9227 5.96894 1.44997 56.9227 5.96894 1.44997
108 2 56.9246 5.96165 -1.75949 56.9246 5.96165 -1.75949
109 1 -4.47263 7.61184 -0.157848 -4.47263 7.61184 -0.157848
110 2 -2.1611 7.61718 1.44611 -2.1611 7.61718 1.44611
111 2 -2.16229 7.60792 -1.76335 -2.16229 7.60792 -1.76335
112 1 -0.997428 9.25904 -0.163803 -0.997428 9.25904 -0.163803
113 2 1.31496 9.26557 1.43852 1.31496 9.26557 1.43852
114 2 1.31171 9.25413 -1.77097 1.31171 9.25413 -1.77097
115 1 2.47698 7.61356 -0.161655 2.47698 7.61356 -0.161655
116 2 4.79029 7.62018 1.43926 4.79029 7.62018 1.43926
117 2 4.78467 7.60846 -1.77022 4.78467 7.60846 -1.77022
118 1 5.95187 9.26066 -0.173499 5.95187 9.26066 -0.173499
119 2 8.26538 9.267 1.42714 8.26538 9.267 1.42714
120 2 8.25973 9.25565 -1.78235 8.25973 9.25565 -1.78235
121 1 9.42614 7.615 -0.173892 9.42614 7.615 -0.173892
122 2 11.7412 7.61877 1.42489 11.7412 7.61877 1.42489
123 2 11.7327 7.61213 -1.7846 11.7327 7.61213 -1.7846
124 1 12.9017 9.26161 -0.186335 12.9017 9.26161 -0.186335
125 2 15.2157 9.26335 1.41454 15.2157 9.26335 1.41454
126 2 15.2105 9.26046 -1.79495 15.2105 9.26046 -1.79495
127 1 16.3768 7.6155 -0.190619 16.3768 7.6155 -0.190619
128 2 18.6922 7.61465 1.40901 18.6922 7.61465 1.40901
129 2 18.6851 7.61658 -1.80049 18.6851 7.61658 -1.80049
130 1 19.8533 9.26175 -0.197311 19.8533 9.26175 -0.197311
131 2 22.166 9.25842 1.40507 22.166 9.25842 1.40507
132 2 22.1629 9.26511 -1.80446 22.1629 9.26511 -1.80446
133 1 23.3282 7.61532 -0.204299 23.3282 7.61532 -0.204299
134 2 25.6418 7.60973 1.39654 25.6418 7.60973 1.39654
135 2 25.6365 7.62052 -1.81298 25.6365 7.62052 -1.81298
136 1 26.8036 9.26119 -0.204616 26.8036 9.26119 -0.204616
137 2 29.1153 9.25343 1.39923 29.1153 9.25343 1.39923
138 2 29.1143 9.2682 -1.81025 29.1143 9.2682 -1.81025
139 1 30.2787 7.61436 -0.213303 30.2787 7.61436 -0.213303
140 2 32.5877 7.60757 1.39453 32.5877 7.60757 1.39453
141 2 32.5927 7.62004 -1.81494 32.5927 7.62004 -1.81494
142 1 33.7549 9.25975 -0.201986 33.7549 9.25975 -0.201986
143 2 36.0628 9.25204 1.40874 36.0628 9.25204 1.40874
144 2 36.0717 9.26624 -1.80069 36.0717 9.26624 -1.80069
145 1 37.2313 7.61266 -0.200141 37.2313 7.61266 -0.200141
146 2 39.5392 7.60736 1.41131 39.5392 7.60736 1.41131
147 2 39.5489 7.61672 -1.79814 39.5489 7.61672 -1.79814
148 1 40.7088 9.25803 -0.185181 40.7088 9.25803 -0.185181
149 2 43.0167 9.25186 1.4255 43.0167 9.25186 1.4255
150 2 43.0252 9.26336 -1.78393 43.0252 9.26336 -1.78393
151 1 44.185 7.61115 -0.182046 44.185 7.61115 -0.182046
152 2 46.4917 7.60877 1.42992 46.4917 7.60877 1.42992
153 2 46.5022 7.61303 -1.77952 46.5022 7.61303 -1.77952
154 1 47.6615 9.25712 -0.168951 47.6615 9.25712 -0.168951
155 2 49.9696 9.25573 1.44066 49.9696 9.25573 1.44066
156 2 49.9766 9.25867 -1.7688 49.9766 9.25867 -1.7688
157 1 51.1371 7.61081 -0.163228 51.1371 7.61081 -0.163228
158 2 53.4461 7.61296 1.44492 53.4461 7.61296 1.44492
159 2 53.4508 7.60928 -1.76453 53.4508 7.60928 -1.76453
160 1 54.6127 9.25758 -0.160101 54.6127 9.25758 -0.160101
161 2 56.9238 9.26027 1.44474 56.9238 9.26027 1.44474
162 2 56.924 9.25605 -1.76473 56.924 9.25605 -1.76473
163 1 -4.4721 10.9046 -0.162177 -4.4721 10.9046 -0.162177
164 2 -2.15922 10.9078 1.43984 -2.15922 10.9078 1.43984
165 2 -2.16291 10.9029 -1.76964 -2.16291 10.9029 -1.76964
166 1 -0.996482 12.5517 -0.168825 -0.996482 12.5517 -0.168825
167 2 1.31814 12.5561 1.43056 1.31814 12.5561 1.43056
168 2 1.31066 12.549 -1.77894 1.31066 12.549 -1.77894
169 1 2.47779 10.9062 -0.173275 2.47779 10.9062 -0.173275
170 2 4.79097 10.9124 1.42759 4.79097 10.9124 1.42759
171 2 4.78581 10.9016 -1.7819 4.78581 10.9016 -1.7819
172 1 5.9531 12.5532 -0.184573 5.9531 12.5532 -0.184573
173 2 8.26595 12.5576 1.41696 8.26595 12.5576 1.41696
174 2 8.26177 12.5501 -1.79256 8.26177 12.5501 -1.79256
175 1 9.42722 10.9075 -0.185443 9.42722 10.9075 -0.185443
176 2 11.7398 10.9109 1.41667 11.7398 10.9109 1.41667
177 2 11.7365 10.9051 -1.79284 11.7365 10.9051 -1.79284
178 1 12.903 12.5541 -0.1923 12.903 12.5541 -0.1923
179 2 15.2148 12.5542 1.41175 15.2148 12.5542 1.41175
180 2 15.214 12.5548 -1.79775 15.214 12.5548 -1.79775
181 1 16.378 10.908 -0.19356 16.378 10.908 -0.19356
182 2 18.6903 10.9061 1.41006 18.6903 10.9061 1.41006
183 2 18.6891 10.9103 -1.79945 18.6891 10.9103 -1.79945
184 1 19.8545 12.5543 -0.193061 19.8545 12.5543 -0.193061
185 2 22.1651 12.5492 1.41229 22.1651 12.5492 1.41229
186 2 22.1661 12.5595 -1.79723 22.1661 12.5595 -1.79723
187 1 23.3291 10.9078 -0.197417 23.3291 10.9078 -0.197417
188 2 25.6403 10.9013 1.40683 25.6403 10.9013 1.40683
189 2 25.6398 10.9141 -1.80268 25.6398 10.9141 -1.80268
190 1 26.8047 12.5537 -0.191557 26.8047 12.5537 -0.191557
191 2 29.1142 12.5435 1.41529 29.1142 12.5435 1.41529
192 2 29.1175 12.5631 -1.79416 29.1175 12.5631 -1.79416
193 1 30.2795 10.9068 -0.198218 30.2795 10.9068 -0.198218
194 2 32.5884 10.8972 1.40999 32.5884 10.8972 1.40999
195 2 32.5936 10.9153 -1.79944 32.5936 10.9153 -1.79944
196 1 33.7559 12.5521 -0.183572 33.7559 12.5521 -0.183572
197 2 36.0649 12.5429 1.42572 36.0649 12.5429 1.42572
198 2 36.0715 12.5602 -1.78369 36.0715 12.5602 -1.78369
199 1 37.2321 10.9051 -0.185535 37.2321 10.9051 -0.185535
200 2 39.5411 10.897 1.42452 39.5411 10.897 1.42452
201 2 39.5486 10.912 -1.7849 39.5486 10.912 -1.7849
202 1 40.7096 12.5505 -0.169793 40.7096 12.5505 -0.169793
203 2 43.018 12.542 1.44015 43.018 12.542 1.44015
204 2 43.0255 12.5584 -1.76926 43.0255 12.5584 -1.76926
205 1 44.1856 10.9037 -0.170332 44.1856 10.9037 -0.170332
206 2 46.4942 10.8979 1.43918 46.4942 10.8979 1.43918
207 2 46.501 10.9092 -1.77024 46.501 10.9092 -1.77024
208 1 47.6621 12.5498 -0.157419 47.6621 12.5498 -0.157419
209 2 49.9733 12.5462 1.44815 49.9733 12.5462 1.44815
210 2 49.9742 12.5537 -1.76132 49.9742 12.5537 -1.76132
211 1 51.1376 10.9035 -0.160143 51.1376 10.9035 -0.160143
212 2 53.4483 10.9029 1.44542 53.4483 10.9029 1.44542
213 2 53.4495 10.905 -1.76403 53.4495 10.905 -1.76403
214 1 54.6134 12.5503 -0.157897 54.6134 12.5503 -0.157897
215 2 56.9267 12.551 1.44403 56.9267 12.551 1.44403
216 2 56.9226 12.5509 -1.76545 56.9226 12.5509 -1.76545
217 1 -4.4711 14.1973 -0.16228 -4.4711 14.1973 -0.16228
218 2 -2.15621 14.1996 1.4371 -2.15621 14.1996 1.4371
219 2 -2.16365 14.1965 -1.77239 -2.16365 14.1965 -1.77239
220 1 -0.995149 15.8443 -0.171976 -0.995149 15.8443 -0.171976
221 2 1.32066 15.8471 1.42574 1.32066 15.8471 1.42574
222 2 1.31103 15.8431 -1.78378 1.31103 15.8431 -1.78378
223 1 2.47912 14.1987 -0.180506 2.47912 14.1987 -0.180506
224 2 4.79342 14.2033 1.41891 4.79342 14.2033 1.41891
225 2 4.78619 14.1958 -1.7906 4.78619 14.1958 -1.7906
226 1 5.95465 15.8457 -0.192184 5.95465 15.8457 -0.192184
227 2 8.26691 15.8489 1.4101 8.26691 15.8489 1.4101
228 2 8.26394 15.8438 -1.79944 8.26394 15.8438 -1.79944
229 1 9.42871 14.2 -0.193119 9.42871 14.2 -0.193119
230 2 11.7399 14.2022 1.41098 11.7399 14.2022 1.41098
231 2 11.7393 14.1988 -1.79854 11.7393 14.1988 -1.79854
232 1 12.9045 15.8466 -0.195637 12.9045 15.8466 -0.195637
233 2 15.214 15.8458 1.41163 15.214 15.8458 1.41163
234 2 15.2177 15.8482 -1.79787 15.2177 15.8482 -1.79787
235 1 16.3794 14.2006 -0.192954 16.3794 14.2006 -0.192954
236 2 18.6895 14.1975 1.41394 18.6895 14.1975 1.41394
237 2 18.6926 14.2041 -1.79557 18.6926 14.2041 -1.79557
238 1 19.8559 15.8469 -0.186317 19.8559 15.8469 -0.186317
239 2 22.1644 15.8409 1.42218 22.1644 15.8409 1.42218
240 2 22.1696 15.853 -1.78733 22.1696 15.853 -1.78733
241 1 23.3304 14.2004 -0.186835 23.3304 14.2004 -0.186835
242 2 25.6395 14.1918 1.42047 25.6395 14.1918 1.42047
243 2 25.6431 14.2087 -1.78901 25.6431 14.2087 -1.78901
244 1 26.8061 15.8462 -0.174272 26.8061 15.8462 -0.174272
245 2 29.1139 15.8349 1.43526 29.1139 15.8349 1.43526
246 2 29.1205 15.8568 -1.77417 29.1205 15.8568 -1.77417
247 1 30.2807 14.1992 -0.178229 30.2807 14.1992 -0.178229
248 2 32.5892 14.1876 1.43048 32.5892 14.1876 1.43048
249 2 32.5951 14.2098 -1.77892 32.5951 14.2098 -1.77892
250 1 33.7571 15.8446 -0.160725 33.7571 15.8446 -0.160725
251 2 36.067 15.8324 1.44728 36.067 15.8324 1.44728
252 2 36.0714 15.8556 -1.7621 36.0714 15.8556 -1.7621
253 1 37.2331 14.1975 -0.167624 37.2331 14.1975 -0.167624
254 2 39.5418 14.1869 1.44248 39.5418 14.1869 1.44248
255 2 39.5496 14.2071 -1.76691 39.5496 14.2071 -1.76691
256 1 40.7105 15.843 -0.149061 40.7105 15.843 -0.149061
257 2 43.0201 15.8332 1.45919 43.0201 15.8332 1.45919
258 2 43.025 15.8522 -1.75022 43.025 15.8522 -1.75022
259 1 44.1864 14.1963 -0.15358 44.1864 14.1963 -0.15358
260 2 46.4969 14.1896 1.45324 46.4969 14.1896 1.45324
261 2 46.4997 14.2029 -1.75619 46.4997 14.2029 -1.75619
262 1 47.6629 15.8424 -0.143724 47.6629 15.8424 -0.143724
263 2 49.9758 15.8367 1.45934 49.9758 15.8367 1.45934
264 2 49.9734 15.8486 -1.75012 49.9734 15.8486 -1.75012
265 1 51.1383 14.1962 -0.152471 51.1383 14.1962 -0.152471
266 2 53.451 14.1943 1.45035 53.451 14.1943 1.45035
267 2 53.4484 14.1991 -1.75911 53.4484 14.1991 -1.75911
268 1 54.6144 15.843 -0.152938 54.6144 15.843 -0.152938
269 2 56.9295 15.8424 1.44646 56.9295 15.8424 1.44646
270 2 56.9221 15.8448 -1.76303 56.9221 15.8448 -1.76303
271 1 -4.46985 17.4898 -0.159829 -4.46985 17.4898 -0.159829
272 2 -2.15305 17.4905 1.43696 -2.15305 17.4905 1.43696
273 2 -2.16406 17.4907 -1.77253 -2.16406 17.4907 -1.77253
274 1 -0.993759 19.1368 -0.171648 -0.993759 19.1368 -0.171648
275 2 1.32306 19.1373 1.42471 1.32306 19.1373 1.42471
276 2 1.3116 19.1378 -1.78482 1.3116 19.1378 -1.78482
277 1 2.48064 17.4912 -0.184478 2.48064 17.4912 -0.184478
278 2 4.79546 17.4933 1.41415 4.79546 17.4933 1.41415
279 2 4.78732 17.4907 -1.79537 4.78732 17.4907 -1.79537
280 1 5.95617 19.1381 -0.19473 5.95617 19.1381 -0.19473
281 2 8.26822 19.1385 1.4077 8.26822 19.1385 1.4077
282 2 8.26561 19.139 -1.80184 8.26561 19.139 -1.80184
283 1 9.43026 17.4924 -0.198219 9.43026 17.4924 -0.198219
284 2 11.7399 17.4933 1.40785 11.7399 17.4933 1.40785
285 2 11.7423 17.4926 -1.80167 11.7423 17.4926 -1.80167
286 1 12.9059 19.1391 -0.196325 12.9059 19.1391 -0.196325
287 2 15.2131 19.1371 1.41386 15.2131 19.1371 1.41386
288 2 15.2213 19.142 -1.79564 15.2213 19.142 -1.79564
289 1 16.3808 17.4931 -0.190508 16.3808 17.4931 -0.190508
290 2 18.6889 17.4902 1.4192 18.6889 17.4902 1.4192
291 2 18.6959 17.4966 -1.7903 18.6959 17.4966 -1.7903
292 1 19.8572 19.1395 -0.17964 19.8572 19.1395 -0.17964
293 2 22.1632 19.1337 1.43248 22.1632 19.1337 1.43248
294 2 22.1736 19.1454 -1.77701 22.1736 19.1454 -1.77701
295 1 23.3318 17.493 -0.174505 23.3318 17.493 -0.174505
296 2 25.6386 17.4842 1.43625 25.6386 17.4842 1.43625
297 2 25.6468 17.5014 -1.77322 25.6468 17.5014 -1.77322
298 1 26.8075 19.1388 -0.156654 26.8075 19.1388 -0.156654
299 2 29.1141 19.1298 1.45455 29.1141 19.1298 1.45455
300 2 29.123 19.147 -1.7549 29.123 19.147 -1.7549
301 1 30.282 17.4917 -0.155885 30.282 17.4917 -0.155885
302 2 32.5912 17.4814 1.45238 32.5912 17.4814 1.45238
303 2 32.5956 17.501 -1.75703 32.5956 17.501 -1.75703
304 1 33.7583 19.1371 -0.14055 33.7583 19.1371 -0.14055
305 2 36.0674 19.1271 1.46837 36.0674 19.1271 1.46837
306 2 36.0732 19.1459 -1.74103 36.0732 19.1459 -1.74103
307 1 37.2341 17.49 -0.143881 37.2341 17.49 -0.143881
308 2 39.5443 17.4795 1.46428 39.5443 17.4795 1.46428
309 2 39.5488 17.4995 -1.74512 39.5488 17.4995 -1.74512
310 1 40.7113 19.1355 -0.128513 40.7113 19.1355 -0.128513
311 2 43.0224 19.128 1.47759 43.0224 19.128 1.47759
312 2 43.024 19.1425 -1.73185 43.024 19.1425 -1.73185
313 1 44.1871 17.4888 -0.134166 44.1871 17.4888 -0.134166
314 2 46.4999 17.4811 1.46959 46.4999 17.4811 1.46959
315 2 46.4981 17.4965 -1.73984 46.4981 17.4965 -1.73984
316 1 47.6636 19.135 -0.127988 47.6636 19.135 -0.127988
317 2 49.9788 19.1303 1.47213 49.9788 19.1303 1.47213
318 2 49.972 19.1401 -1.73734 49.972 19.1401 -1.73734
319 1 51.1392 17.4889 -0.14025 51.1392 17.4889 -0.14025
320 2 53.4549 17.4858 1.45857 53.4549 17.4858 1.45857
321 2 53.4465 17.4928 -1.7509 53.4465 17.4928 -1.7509
322 1 54.6154 19.1355 -0.145634 54.6154 19.1355 -0.145634
323 2 56.9326 19.1343 1.45103 56.9326 19.1343 1.45103
324 2 56.9214 19.138 -1.75846 56.9214 19.138 -1.75846
325 1 -4.46873 20.7823 -0.155885 -4.46873 20.7823 -0.155885
326 2 -2.15073 20.7816 1.43939 -2.15073 20.7816 1.43939
327 2 -2.16388 20.7845 -1.77011 -2.16388 20.7845 -1.77011
328 1 -0.992685 22.4292 -0.168605 -0.992685 22.4292 -0.168605
329 2 1.32494 22.4286 1.42683 1.32494 22.4286 1.42683
330 2 1.31203 22.4312 -1.7827 1.31203 22.4312 -1.7827
331 1 2.48202 20.7837 -0.183857 2.48202 20.7837 -0.183857
332 2 4.79713 20.7831 1.41442 4.79713 20.7831 1.41442
333 2 4.78844 20.7857 -1.7951 4.78844 20.7857 -1.7951
334 1 5.95737 22.4306 -0.191989 5.95737 22.4306 -0.191989
335 2 8.26982 22.4294 1.41009 8.26982 22.4294 1.41009
336 2 8.26633 22.433 -1.79945 8.26633 22.433 -1.79945
337 1 9.43159 20.7849 -0.197595 9.43159 20.7849 -0.197595
338 2 11.7406 20.7831 1.40945 11.7406 20.7831 1.40945
339 2 11.7442 20.7878 -1.80007 11.7442 20.7878 -1.80007
340 1 12.907 22.4316 -0.191416 12.907 22.4316 -0.191416
341 2 15.2146 22.4301 1.41857 15.2146 22.4301 1.41857
342 2 15.222 22.4339 -1.79093 15.222 22.4339 -1.79093
343 1 16.382 20.7856 -0.185397 16.382 20.7856 -0.185397
344 2 18.689 20.7815 1.42612 18.689 20.7815 1.42612
345 2 18.6984 20.7903 -1.78338 18.6984 20.7903 -1.78338
346 1 19.8583 22.432 -0.17064 19.8583 22.432 -0.17064
347 2 22.1636 22.4272 1.4429 22.1636 22.4272 1.4429
348 2 22.1755 22.437 -1.76659 22.1755 22.437 -1.76659
349 1 23.3331 20.7856 -0.162417 23.3331 20.7856 -0.162417
350 2 25.6378 20.7778 1.45133 25.6378 20.7778 1.45133
351 2 25.6503 20.7929 -1.75813 25.6503 20.7929 -1.75813
352 1 26.8087 22.4314 -0.141191 26.8087 22.4314 -0.141191
353 2 29.1156 22.4246 1.47006 29.1156 22.4246 1.47006
354 2 29.1239 22.4373 -1.73941 29.1239 22.4373 -1.73941
355 1 30.2833 20.7843 -0.138172 30.2833 20.7843 -0.138172
356 2 32.5915 20.7746 1.47127 32.5915 20.7746 1.47127
357 2 32.5977 20.793 -1.73814 32.5977 20.793 -1.73814
358 1 33.7593 22.4297 -0.121766 33.7593 22.4297 -0.121766
359 2 36.0692 22.4217 1.48625 36.0692 22.4217 1.48625
360 2 36.0732 22.4366 -1.72317 36.0732 22.4366 -1.72317
361 1 37.2351 20.7825 -0.124573 37.2351 20.7825 -0.124573
362 2 39.5454 20.774 1.48312 39.5454 20.774 1.48312
363 2 39.5494 20.7901 -1.72631 39.5494 20.7901 -1.72631
364 1 40.7119 22.4281 -0.111944 40.7119 22.4281 -0.111944
365 2 43.0244 22.4218 1.49228 43.0244 22.4218 1.49228
366 2 43.0232 22.4338 -1.71718 43.0232 22.4338 -1.71718
367 1 44.1878 20.7814 -0.119123 44.1878 20.7814 -0.119123
368 2 46.5011 20.7756 1.48377 46.5011 20.7756 1.48377
369 2 46.4982 20.7871 -1.72568 46.4982 20.7871 -1.72568
370 1 47.6642 22.4275 -0.116218 47.6642 22.4275 -0.116218
371 2 49.9809 22.4241 1.48186 49.9809 22.4241 1.48186
372 2 49.9711 22.4311 -1.72763 49.9711 22.4311 -1.72763
373 1 51.14 20.7814 -0.130071 51.14 20.7814 -0.130071
374 2 53.4573 20.7786 1.46659 53.4573 20.7786 1.46659
375 2 53.4458 20.785 -1.74288 53.4458 20.785 -1.74288
376 1 54.6162 22.428 -0.139059 54.6162 22.428 -0.139059
377 2 56.9347 22.4264 1.45599 56.9347 22.4264 1.45599
378 2 56.9211 22.4306 -1.7535 56.9211 22.4306 -1.7535
379 1 -4.46807 24.0747 -0.151492 -4.46807 24.0747 -0.151492
380 2 -2.14951 24.0736 1.44307 -2.14951 24.0736 1.44307
381 2 -2.16355 24.0771 -1.76643 -2.16355 24.0771 -1.76643
382 1 -0.992191 25.7216 -0.164902 -0.992191 25.7216 -0.164902
383 2 1.32501 25.7191 1.43108 1.32501 25.7191 1.43108
384 2 1.31314 25.7254 -1.77845 1.31314 25.7254 -1.77845
385 1 2.48292 24.0761 -0.181151 2.48292 24.0761 -0.181151
386 2 4.79773 24.0749 1.41754 4.79773 24.0749 1.41754
387 2 4.78975 24.0787 -1.79198 4.78975 24.0787 -1.79198
388 1 5.95806 25.7231 -0.187994 5.95806 25.7231 -0.187994
389 2 8.26985 25.7204 1.41485 8.26985 25.7204 1.41485
390 2 8.26774 25.7269 -1.79469 8.26774 25.7269 -1.79469
391 1 9.43253 24.0774 -0.193881 9.43253 24.0774 -0.193881
392 2 11.7414 24.0766 1.41327 11.7414 24.0766 1.41327
393 2 11.7452 24.0792 -1.79625 11.7452 24.0792 -1.79625
394 1 12.9077 25.7241 -0.188551 12.9077 25.7241 -0.188551
395 2 15.2149 25.723 1.42181 15.2149 25.723 1.42181
396 2 15.2231 25.726 -1.78769 15.2231 25.726 -1.78769
397 1 16.3829 24.0782 -0.181413 16.3829 24.0782 -0.181413
398 2 18.6887 24.0764 1.43178 18.6887 24.0764 1.43178
399 2 18.7005 24.0804 -1.77771 18.7005 24.0804 -1.77771
400 1 19.859 25.7246 -0.166532 19.859 25.7246 -0.166532
401 2 22.1633 25.7238 1.44818 22.1633 25.7238 1.44818
402 2 22.1772 25.7255 -1.76132 22.1772 25.7255 -1.76132
403 1 23.334 24.0782 -0.152429 23.334 24.0782 -0.152429
404 2 25.639 24.0758 1.46143 25.639 24.0758 1.46143
405 2 25.6511 24.0801 -1.74806 25.6511 24.0801 -1.74806
406 1 26.8095 25.7241 -0.136568 26.8095 25.7241 -0.136568
407 2 29.1151 25.723 1.47634 29.1151 25.723 1.47634
408 2 29.126 25.7243 -1.73315 29.126 25.7243 -1.73315
409 1 30.2843 24.077 -0.125106 30.2843 24.077 -0.125106
410 2 32.5922 24.0721 1.48494 32.5922 24.0721 1.48494
411 2 32.5988 24.0807 -1.72452 32.5988 24.0807 -1.72452
412 1 33.76 25.7225 -0.112924 33.76 25.7225 -0.112924
413 2 36.0696 25.7202 1.49544 36.0696 25.7202 1.49544
414 2 36.074 25.7235 -1.71401 36.074 25.7235 -1.71401
415 1 37.2358 24.0752 -0.109368 37.2358 24.0752 -0.109368
416 2 39.5474 24.0705 1.49665 39.5474 24.0705 1.49665
417 2 39.5485 24.0788 -1.71281 39.5485 24.0788 -1.71281
418 1 40.7124 25.7208 -0.10345 40.7124 25.7208 -0.10345
419 2 43.0253 25.7191 1.50011 43.0253 25.7191 1.50011
420 2 43.0231 25.7216 -1.70937 43.0231 25.7216 -1.70937
421 1 44.1883 24.0739 -0.106778 44.1883 24.0739 -0.106778
422 2 46.5033 24.071 1.49381 46.5033 24.071 1.49381
423 2 46.4969 24.0766 -1.71567 46.4969 24.0766 -1.71567
424 1 47.6645 25.72 -0.110412 47.6645 25.72 -0.110412
425 2 49.9813 25.7181 1.48746 49.9813 25.7181 1.48746
426 2 49.9712 25.7219 -1.72204 49.9712 25.7219 -1.72204
427 1 51.1404 24.0738 -0.122884 51.1404 24.0738 -0.122884
428 2 53.4582 24.0713 1.47311 53.4582 24.0713 1.47311
429 2 53.4459 24.077 -1.73637 53.4459 24.077 -1.73637
430 1 54.6164 25.7204 -0.133258 54.6164 25.7204 -0.133258
431 2 56.9354 25.7182 1.4612 56.9354 25.7182 1.4612
432 2 56.921 25.7234 -1.74829 56.921 25.7234 -1.74829
433 1 -4.468 27.3671 -0.146138 -4.468 27.3671 -0.146138
434 2 -2.14906 27.3646 1.44818 -2.14906 27.3646 1.44818
435 2 -2.16368 27.3706 -1.76131 -2.16368 27.3706 -1.76131
436 1 -0.992286 29.0139 -0.15869 -0.992286 29.0139 -0.15869
437 2 1.32473 29.0109 1.43787 1.32473 29.0109 1.43787
438 2 1.31342 29.0182 -1.77166 1.31342 29.0182 -1.77166
439 1 2.48323 27.3685 -0.174681 2.48323 27.3685 -0.174681
440 2 4.79834 27.3651 1.42388 4.79834 27.3651 1.42388
441 2 4.78993 27.3733 -1.78563 4.78993 27.3733 -1.78563
442 1 5.95821 29.0155 -0.179574 5.95821 29.0155 -0.179574
443 2 8.27146 29.0137 1.42158 8.27146 29.0137 1.42158
444 2 8.26656 29.0184 -1.78795 8.26656 29.0184 -1.78795
445 1 9.43302 27.3699 -0.187262 9.43302 27.3699 -0.187262
446 2 11.7435 27.3684 1.41785 11.7435 27.3684 1.41785
447 2 11.7441 27.3724 -1.79166 11.7441 27.3724 -1.79166
448 1 12.908 29.0167 -0.18441 12.908 29.0167 -0.18441
449 2 15.2164 29.017 1.42427 15.2164 29.017 1.42427
450 2 15.222 29.017 -1.78523 15.222 29.017 -1.78523
451 1 16.3834 27.3708 -0.178294 16.3834 27.3708 -0.178294
452 2 18.6894 27.3706 1.43441 18.6894 27.3706 1.43441
453 2 18.7006 27.3712 -1.77508 18.7006 27.3712 -1.77508
454 1 19.8592 29.0172 -0.16589 19.8592 29.0172 -0.16589
455 2 22.1649 29.0201 1.44704 22.1649 29.0201 1.44704
456 2 22.176 29.0143 -1.76246 22.176 29.0143 -1.76246
457 1 23.3345 27.3708 -0.150659 23.3345 27.3708 -0.150659
458 2 25.6397 27.3716 1.46281 25.6397 27.3716 1.46281
459 2 25.6514 27.3695 -1.74669 25.6514 27.3695 -1.74669
460 1 26.8097 29.0168 -0.13873 26.8097 29.0168 -0.13873
461 2 29.1157 29.0196 1.47381 29.1157 29.0196 1.47381
462 2 29.1261 29.013 -1.73567 29.1261 29.013 -1.73567
463 1 30.2849 27.3697 -0.12379 30.2849 27.3697 -0.12379
464 2 32.5919 27.3706 1.4873 32.5919 27.3706 1.4873
465 2 32.6002 27.3677 -1.72216 32.6002 27.3677 -1.72216
466 1 33.7603 29.0153 -0.115877 33.7603 29.0153 -0.115877
467 2 36.0689 29.0172 1.49369 36.0689 29.0172 1.49369
468 2 36.0752 29.0118 -1.71577 36.0752 29.0118 -1.71577
469 1 37.2362 27.368 -0.10604 37.2362 27.368 -0.10604
470 2 39.5476 27.3679 1.5002 39.5476 27.3679 1.5002
471 2 39.5491 27.3667 -1.70927 39.5491 27.3667 -1.70927
472 1 40.7126 29.0135 -0.104624 40.7126 29.0135 -0.104624
473 2 43.0253 29.0153 1.49893 43.0253 29.0153 1.49893
474 2 43.0232 29.0105 -1.71055 43.0232 29.0105 -1.71055
475 1 44.1885 27.3665 -0.104213 44.1885 27.3665 -0.104213
476 2 46.5034 27.3667 1.49629 46.5034 27.3667 1.49629
477 2 46.497 27.3659 -1.71319 46.497 27.3659 -1.71319
478 1 47.6643 29.0125 -0.11121 47.6643 29.0125 -0.11121
479 2 49.9799 29.0128 1.48814 49.9799 29.0128 1.48814
480 2 49.9721 29.012 -1.72136 49.9721 29.012 -1.72136
481 1 51.1404 27.3663 -0.119061 51.1404 27.3663 -0.119061
482 2 53.4582 27.3653 1.47711 53.4582 27.3653 1.47711
483 2 53.4459 27.3675 -1.73238 53.4459 27.3675 -1.73238
484 1 54.6161 29.0127 -0.130963 54.6161 29.0127 -0.130963
485 2 56.9342 29.0114 1.46485 56.9342 29.0114 1.46485
486 2 56.9217 29.0147 -1.74465 56.9217 29.0147 -1.74465
487 1 -4.46844 30.6594 -0.142782 -4.46844 30.6594 -0.142782
488 2 -2.15104 30.6564 1.45371 -2.15104 30.6564 1.45371
489 2 -2.16244 30.6633 -1.7558 -2.16244 30.6633 -1.7558
490 1 -0.992823 32.3062 -0.151649 -0.992823 32.3062 -0.151649
491 2 1.32387 32.3027 1.44557 1.32387 32.3027 1.44557
492 2 1.31337 32.3109 -1.76395 1.31337 32.3109 -1.76395
493 1 2.48302 30.6609 -0.167126 2.48302 30.6609 -0.167126
494 2 4.79812 30.6581 1.43156 4.79812 30.6581 1.43156
495 2 4.78989 30.6649 -1.77796 4.78989 30.6649 -1.77796
496 1 5.95785 32.3079 -0.172661 5.95785 32.3079 -0.172661
497 2 8.27222 32.3063 1.42698 8.27222 32.3063 1.42698
498 2 8.2652 32.3106 -1.78254 8.2652 32.3106 -1.78254
499 1 9.43299 30.6624 -0.182377 9.43299 30.6624 -0.182377
500 2 11.7443 30.6619 1.42146 11.7443 30.6619 1.42146
501 2 11.7433 30.6637 -1.78806 11.7433 30.6637 -1.78806
502 1 12.9077 32.3093 -0.182625 12.9077 32.3093 -0.182625
503 2 15.2179 32.3117 1.42341 15.2179 32.3117 1.42341
504 2 15.2199 32.3073 -1.78609 15.2199 32.3073 -1.78609
505 1 16.3833 30.6633 -0.178267 16.3833 30.6633 -0.178267
506 2 18.6909 30.667 1.43224 18.6909 30.667 1.43224
507 2 18.699 30.6599 -1.77725 18.699 30.6599 -1.77725
508 1 19.8589 32.3098 -0.173064 19.8589 32.3098 -0.173064
509 2 22.1654 32.3157 1.43848 22.1654 32.3157 1.43848
510 2 22.1749 32.3037 -1.77101 22.1749 32.3037 -1.77101
511 1 23.3345 30.6635 -0.156582 23.3345 30.6635 -0.156582
512 2 25.6399 30.6683 1.45654 25.6399 30.6683 1.45654
513 2 25.6513 30.658 -1.75294 25.6513 30.658 -1.75294
514 1 26.8095 32.3094 -0.149373 26.8095 32.3094 -0.149373
515 2 29.116 32.317 1.46242 29.116 32.317 1.46242
516 2 29.1253 32.3007 -1.74703 29.1253 32.3007 -1.74703
517 1 30.2849 30.6625 -0.130509 30.2849 30.6625 -0.130509
518 2 32.5921 30.6672 1.48039 32.5921 30.6672 1.48039
519 2 32.6001 30.6564 -1.72906 32.6001 30.6564 -1.72906
520 1 33.7601 32.308 -0.126944 33.7601 32.308 -0.126944
521 2 36.0686 32.315 1.48283 36.0686 32.315 1.48283
522 2 36.0751 32.2994 -1.72659 36.0751 32.2994 -1.72659
523 1 37.2363 30.6607 -0.111601 37.2363 30.6607 -0.111601
524 2 39.5472 30.6641 1.49515 39.5472 30.6641 1.49515
525 2 39.5494 30.6559 -1.71431 39.5494 30.6559 -1.71431
526 1 40.7123 32.3062 -0.113086 40.7123 32.3062 -0.113086
527 2 43.0247 32.3106 1.49105 43.0247 32.3106 1.49105
528 2 43.0231 32.3005 -1.71842 43.0231 32.3005 -1.71842
529 1 44.1883 30.6592 -0.109066 44.1883 30.6592 -0.109066
530 2 46.5021 30.661 1.49287 46.5021 30.661 1.49287
531 2 46.4978 30.6566 -1.71662 46.4978 30.6566 -1.71662
532 1 47.6638 32.3051 -0.115726 47.6638 32.3051 -0.115726
533 2 49.9785 32.307 1.4849 49.9785 32.307 1.4849
534 2 49.9724 32.3027 -1.72461 49.9724 32.3027 -1.72461
535 1 51.14 30.6587 -0.119914 51.14 30.6587 -0.119914
536 2 53.4564 30.6581 1.47803 53.4564 30.6581 1.47803
537 2 53.4468 30.6595 -1.73146 53.4468 30.6595 -1.73146