ITEM: TIMESTEP
3148000
ITEM: NUMBER OF ATOMS
810
ITEM: BOX BOUNDS pp pp pp
-7.2103191527635175e+00 6.0227924152762583e+01
8.1394622342039402e-01 5.0202268776579182e+01
-1.0000000000000000e+01 1.0000000000000000e+01
ITEM: ATOMS id type x y z xu yu zu
1 1 -0.416342 1.0175 -0.482094 -0.416342 1.0175 -0.482094
2 2 1.42841 1.00711 1.21292 1.42841 1.00711 1.21292
3 2 1.53976 1.02807 -2.04718 1.53976 1.02807 -2.04718
4 1 2.4343 2.66413 -0.373705 2.4343 2.66413 -0.373705
5 2 4.28814 2.649 1.311 4.28814 2.649 1.311
6 2 4.38167 2.67983 -1.94969 4.38167 2.67983 -1.94969
7 1 5.28531 1.01802 -0.307683 5.28531 1.01802 -0.307683
8 2 7.14756 1.00825 1.36788 7.14756 1.00825 1.36788
9 2 7.22478 1.02947 -1.89333 7.22478 1.02947 -1.89333
10 1 8.13691 2.66524 -0.229475 8.13691 2.66524 -0.229475
11 2 10.017 2.65581 1.42588 10.017 2.65581 1.42588
12 2 10.0593 2.67714 -1.83598 10.0593 2.67714 -1.83598
13 1 10.989 1.02051 -0.203728 10.989 1.02051 -0.203728
14 2 12.8847 1.01244 1.43371 12.8847 1.01244 1.43371
15 2 12.8963 1.03177 -1.82841 12.8963 1.03177 -1.82841
16 1 13.8415 2.66868 -0.18421 13.8415 2.66868 -0.18421
17 2 15.7428 2.66102 1.4468 15.7428 2.66102 1.4468
18 2 15.743 2.68002 -1.81533 15.743 2.68002 -1.81533
19 1 16.6941 1.02476 -0.193927 16.6941 1.02476 -0.193927
20 2 18.5893 1.01772 1.44458 18.5893 1.01772 1.44458
21 2 18.6019 1.03578 -1.81751 18.6019 1.03578 -1.81751
22 1 19.5466 2.6734 -0.173327 19.5466 2.6734 -0.173327
23 2 21.435 2.67239 1.47334 21.435 2.67239 1.47334
24 2 21.4612 2.67844 -1.78871 21.4612 2.67844 -1.78871
25 1 22.3993 1.02967 -0.153077 22.3993 1.02967 -0.153077
26 2 24.2864 1.02758 1.49511 24.2864 1.02758 1.49511
27 2 24.3153 1.03571 -1.76689 24.3153 1.03571 -1.76689
28 1 25.2519 2.6783 -0.123021 25.2519 2.6783 -0.123021
29 2 27.1503 2.68745 1.512 27.1503 2.68745 1.512
30 2 27.1569 2.67287 -1.75008 27.1569 2.67287 -1.75008
31 1 28.1049 1.03427 -0.109685 28.1049 1.03427 -0.109685
32 2 30.0173 1.03567 1.50882 30.0173 1.03567 1.50882
33 2 29.996 1.03606 -1.75323 29.996 1.03606 -1.75323
34 1 30.9577 2.68244 -0.128381 30.9577 2.68244 -0.128381
35 2 32.8797 2.69178 1.47831 32.8797 2.69178 1.47831
36 2 32.8387 2.6756 -1.78353 32.8387 2.6756 -1.78353
37 1 33.8104 1.03768 -0.15637 33.8104 1.03768 -0.15637
38 2 35.726 1.04524 1.4584 35.726 1.04524 1.4584
39 2 35.6979 1.03203 -1.8036 35.6979 1.03203 -1.8036
40 1 36.663 2.68503 -0.187701 36.663 2.68503 -0.187701
41 2 38.5693 2.69325 1.43776 38.5693 2.69325 1.43776
42 2 38.5598 2.6782 -1.82435 38.5598 2.6782 -1.82435
43 1 39.5154 1.03949 -0.188422 39.5154 1.03949 -0.188422
44 2 41.407 1.0664 1.45449 41.407 1.0664 1.45449
45 2 41.427 1.01356 -1.80749 41.427 1.01356 -1.80749
46 1 42.3675 2.6861 -0.198656 42.3675 2.6861 -0.198656
47 2 44.2215 2.6712 1.42799 44.2215 2.6712 1.42799
48 2 44.2711 2.70139 -1.76837 44.2711 2.70139 -1.76837
49 1 45.2875 1.03999 -0.167783 45.2875 1.03999 -0.167783
50 2 -4.00781 1.01217 1.17784 63.4304 1.01217 1.17784
51 2 -4.82836 1.02061 -1.56304 62.6099 1.02061 -1.56304
52 1 -3.25083 2.66531 -0.536327 64.1874 2.66531 -0.536327
53 2 -1.4201 2.635 1.16026 66.0181 2.635 1.16026
54 2 -1.31984 2.69436 -2.11836 66.1184 2.69436 -2.11836
55 1 -0.41672 4.31107 -0.422832 -0.41672 4.31107 -0.422832
56 2 1.43702 4.28008 1.261 1.43702 4.28008 1.261
57 2 1.53085 4.34151 -1.99914 1.53085 4.34151 -1.99914
58 1 2.43402 5.95688 -0.309971 2.43402 5.95688 -0.309971
59 2 4.29966 5.92879 1.362 4.29966 5.92879 1.362
60 2 4.37032 5.98528 -1.89893 4.37032 5.98528 -1.89893
61 1 5.28545 4.31071 -0.276411 5.28545 4.31071 -0.276411
62 2 7.15001 4.29506 1.39659 7.15001 4.29506 1.39659
63 2 7.22266 4.32779 -1.86464 7.22266 4.32779 -1.86464
64 1 8.1371 5.95775 -0.196185 8.1371 5.95775 -0.196185
65 2 10.0226 5.94603 1.45306 10.0226 5.94603 1.45306
66 2 10.0541 5.97198 -1.80889 10.0541 5.97198 -1.80889
67 1 10.9891 4.31296 -0.181923 10.9891 4.31296 -0.181923
68 2 12.8857 4.30438 1.45443 12.8857 4.30438 1.45443
69 2 12.8953 4.32472 -1.80769 12.8953 4.32472 -1.80769
70 1 13.8414 5.96119 -0.163563 13.8414 5.96119 -0.163563
71 2 15.7453 5.95665 1.46451 15.7453 5.95665 1.46451
72 2 15.7404 5.96937 -1.79765 15.7404 5.96937 -1.79765
73 1 16.6939 4.31718 -0.174456 16.6939 4.31718 -0.174456
74 2 18.592 4.31437 1.46064 18.592 4.31437 1.46064
75 2 18.5987 4.32393 -1.80151 18.5987 4.32393 -1.80151
76 1 19.5463 5.96585 -0.163346 19.5463 5.96585 -0.163346
77 2 21.4424 5.97468 1.47433 21.4424 5.97468 1.47433
78 2 21.4533 5.96101 -1.78779 21.4533 5.96101 -1.78779
79 1 22.3991 4.32209 -0.146631 22.3991 4.32209 -0.146631
80 2 24.2922 4.33242 1.49454 24.2922 4.33242 1.49454
81 2 24.3091 4.31572 -1.76751 24.3091 4.31572 -1.76751
82 1 25.2517 5.97072 -0.139981 25.2517 5.97072 -0.139981
83 2 27.1534 5.98771 1.49097 27.1534 5.98771 1.49097
84 2 27.1533 5.95734 -1.77103 27.1533 5.95734 -1.77103
85 1 28.1047 4.32676 -0.124568 28.1047 4.32676 -0.124568
86 2 30.0152 4.34009 1.49582 30.0152 4.34009 1.49582
87 2 29.9975 4.31657 -1.76618 29.9975 4.31657 -1.76618
88 1 30.9574 5.9748 -0.152844 30.9574 5.9748 -0.152844
89 2 32.8724 5.97978 1.46195 32.8724 5.97978 1.46195
90 2 32.8455 5.97232 -1.80008 32.8455 5.97232 -1.80008
91 1 33.8102 4.3301 -0.17311 33.8102 4.3301 -0.17311
92 2 35.723 4.33615 1.44465 35.723 4.33615 1.44465
93 2 35.7006 4.32599 -1.81741 35.7006 4.32599 -1.81741
94 1 36.6628 5.9775 -0.19842 36.6628 5.9775 -0.19842
95 2 38.5621 5.96968 1.43484 38.5621 5.96968 1.43484
96 2 38.5668 5.98677 -1.82729 38.5668 5.98677 -1.82729
97 1 39.5156 4.33209 -0.204048 39.5156 4.33209 -0.204048
98 2 41.4209 4.34346 1.4226 41.4209 4.34346 1.4226
99 2 41.4136 4.32115 -1.83975 41.4136 4.32115 -1.83975
100 1 42.3677 5.97905 -0.222342 42.3677 5.97905 -0.222342
101 2 44.2042 5.98846 1.42242 44.2042 5.98846 1.42242
102 2 44.2892 5.96993 -1.77315 44.2892 5.96993 -1.77315
103 1 45.287 4.33268 -0.140371 45.287 4.33268 -0.140371
104 2 -4.00684 4.26579 1.22493 63.4314 4.26579 1.22493
105 2 -4.83551 4.33862 -1.50698 62.6027 4.33862 -1.50698
106 1 -3.25244 5.96151 -0.453776 64.1858 5.96151 -0.453776
107 2 -1.42738 5.89173 1.25091 66.0109 5.89173 1.25091
108 2 -1.31165 6.02374 -2.02361 66.1266 6.02374 -2.02361
109 1 -0.417912 7.60308 -0.285829 -0.417912 7.60308 -0.285829
110 2 1.47138 7.5592 1.35802 1.47138 7.5592 1.35802
111 2 1.49566 7.64683 -1.90294 1.49566 7.64683 -1.90294
112 1 2.43412 9.24881 -0.221612 2.43412 9.24881 -0.221612
113 2 4.31824 9.22246 1.42931 4.31824 9.22246 1.42931
114 2 4.35213 9.27628 -1.83232 4.35213 9.27628 -1.83232
115 1 5.28557 7.60314 -0.219026 5.28557 7.60314 -0.219026
116 2 7.16297 7.58551 1.4396 7.16297 7.58551 1.4396
117 2 7.21027 7.62241 -1.82207 7.21027 7.62241 -1.82207
118 1 8.1373 9.25041 -0.15875 8.1373 9.25041 -0.15875
119 2 10.0293 9.23898 1.48296 10.0293 9.23898 1.48296
120 2 10.0478 9.26434 -1.7791 10.0478 9.26434 -1.7791
121 1 10.9892 7.60556 -0.1556 10.9892 7.60556 -0.1556
122 2 12.8899 7.5985 1.47596 12.8899 7.5985 1.47596
123 2 12.8912 7.61578 -1.7862 12.8912 7.61578 -1.7862
124 1 13.8414 9.25385 -0.146026 13.8414 9.25385 -0.146026
125 2 15.75 9.2532 1.47641 15.75 9.2532 1.47641
126 2 15.7355 9.25807 -1.78574 15.7355 9.25807 -1.78574
127 1 16.6937 7.60973 -0.161452 16.6937 7.60973 -0.161452
128 2 18.598 7.6147 1.46635 18.598 7.6147 1.46635
129 2 18.5924 7.60863 -1.79582 18.5924 7.60863 -1.79582
130 1 19.5461 9.25839 -0.169387 19.5461 9.25839 -0.169387
131 2 21.4471 9.26841 1.46222 21.4471 9.26841 1.46222
132 2 21.4481 9.2522 -1.7999 21.4481 9.2522 -1.7999
133 1 22.3988 7.61453 -0.160377 22.3988 7.61453 -0.160377
134 2 24.2966 7.62983 1.47517 24.2966 7.62983 1.47517
135 2 24.3042 7.60306 -1.78686 24.3042 7.60306 -1.78686
136 1 25.2514 9.26307 -0.167375 25.2514 9.26307 -0.167375
137 2 27.1513 9.27357 1.46547 27.1513 9.27357 1.46547
138 2 27.1547 9.25611 -1.79662 27.1547 9.25611 -1.79662
139 1 28.1044 7.61906 -0.155691 28.1044 7.61906 -0.155691
140 2 30.0097 7.62997 1.47079 30.0097 7.62997 1.47079
141 2 30.0023 7.61129 -1.79129 30.0023 7.61129 -1.79129
142 1 30.957 9.26713 -0.17216 30.957 9.26713 -0.17216
143 2 32.862 9.26517 1.4549 32.862 9.26517 1.4549
144 2 32.8554 9.27168 -1.80723 32.8554 9.27168 -1.80723
145 1 33.81 7.6225 -0.181197 33.81 7.6225 -0.181197
146 2 35.7153 7.61326 1.44539 35.7153 7.61326 1.44539
147 2 35.708 7.63381 -1.81669 35.708 7.63381 -1.81669
148 1 36.6626 9.26993 -0.177206 36.6626 9.26993 -0.177206
149 2 38.5605 9.25427 1.45864 38.5605 9.25427 1.45864
150 2 38.5679 9.287 -1.80335 38.5679 9.287 -1.80335
151 1 39.5153 7.62459 -0.186654 39.5153 7.62459 -0.186654
152 2 41.414 7.58695 1.44723 41.414 7.58695 1.44723
153 2 41.4196 7.66347 -1.8143 41.4196 7.66347 -1.8143
154 1 42.3672 9.27117 -0.141333 42.3672 9.27117 -0.141333
155 2 44.2641 9.29019 1.43737 44.2641 9.29019 1.43737
156 2 44.2283 9.25288 -1.75907 44.2283 9.25288 -1.75907
157 1 45.2877 7.62546 -0.155979 45.2877 7.62546 -0.155979
158 2 -4.01255 7.47839 1.37056 63.4257 7.47839 1.37056
159 2 -4.75456 7.70153 -1.44841 62.6837 7.70153 -1.44841
160 1 -3.24888 9.24703 -0.221204 64.1894 9.24703 -0.221204
161 2 -1.37059 9.19878 1.41169 66.0676 9.19878 1.41169
162 2 -1.3835 9.2969 -1.86893 66.0547 9.2969 -1.86893
163 1 -0.418272 10.8932 -0.179015 -0.418272 10.8932 -0.179015
164 2 1.48262 10.8488 1.45362 1.48262 10.8488 1.45362
165 2 1.48423 10.9398 -1.80731 1.48423 10.9398 -1.80731
166 1 2.4336 12.5407 -0.130131 2.4336 12.5407 -0.130131
167 2 4.33576 12.5093 1.50003 4.33576 12.5093 1.50003
168 2 4.3341 12.5742 -1.76151 4.3341 12.5742 -1.76151
169 1 5.28563 10.8958 -0.164038 5.28563 10.8958 -0.164038
170 2 7.1723 10.8765 1.4841 7.1723 10.8765 1.4841
171 2 7.20126 10.9168 -1.77775 7.20126 10.9168 -1.77775
172 1 8.13738 12.5432 -0.117825 8.13738 12.5432 -0.117825
173 2 10.0376 12.5309 1.51441 10.0376 12.5309 1.51441
174 2 10.0397 12.558 -1.74769 10.0397 12.558 -1.74769
175 1 10.9893 10.8983 -0.129846 10.9893 10.8983 -0.129846
176 2 12.8952 10.8922 1.49561 12.8952 10.8922 1.49561
177 2 12.886 10.9075 -1.76654 12.886 10.9075 -1.76654
178 1 13.8414 12.5466 -0.130458 13.8414 12.5466 -0.130458
179 2 15.755 12.5444 1.48595 15.755 12.5444 1.48595
180 2 15.7304 12.5523 -1.77614 15.7304 12.5523 -1.77614
181 1 16.6936 10.9024 -0.156459 16.6936 10.9024 -0.156459
182 2 18.6036 10.9067 1.46435 18.6036 10.9067 1.46435
183 2 18.5864 10.9018 -1.79778 18.5864 10.9018 -1.79778
184 1 19.5458 12.551 -0.174258 19.5458 12.551 -0.174258
185 2 21.4487 12.5525 1.45531 21.4487 12.5525 1.45531
186 2 21.446 12.5533 -1.80684 21.446 12.5533 -1.80684
187 1 22.3985 10.907 -0.176924 22.3985 10.907 -0.176924
188 2 24.2963 10.9118 1.45854 24.2963 10.9118 1.45854
189 2 24.3039 10.906 -1.8036 24.3039 10.906 -1.8036
190 1 25.2511 12.5556 -0.173382 25.2511 12.5556 -0.173382
191 2 27.1514 12.5551 1.45913 27.1514 12.5551 1.45913
192 2 27.154 12.5595 -1.803 27.154 12.5595 -1.803
193 1 28.104 10.9114 -0.173522 28.104 10.9114 -0.173522
194 2 30.0054 10.9137 1.45786 30.0054 10.9137 1.45786
195 2 30.006 10.9122 -1.80428 30.006 10.9122 -1.80428
196 1 30.9567 12.5595 -0.173667 30.9567 12.5595 -0.173667
197 2 32.8585 12.5596 1.45735 32.8585 12.5596 1.45735
198 2 32.8582 12.562 -1.80479 32.8582 12.562 -1.80479
199 1 33.8097 10.9149 -0.174771 33.8097 10.9149 -0.174771
200 2 35.7104 10.9112 1.45777 35.7104 10.9112 1.45777
201 2 35.7123 10.9205 -1.80437 35.7123 10.9205 -1.80437
202 1 36.6623 12.5623 -0.167516 36.6623 12.5623 -0.167516
203 2 38.5616 12.5724 1.46684 38.5616 12.5724 1.46684
204 2 38.5661 12.5538 -1.79528 38.5661 12.5538 -1.79528
205 1 39.5151 10.917 -0.152944 39.5151 10.917 -0.152944
206 2 41.4056 10.9098 1.49172 41.4056 10.9098 1.49172
207 2 41.4278 10.9249 -1.77061 41.4278 10.9249 -1.77061
208 1 42.367 12.5642 -0.125023 42.367 12.5642 -0.125023
209 2 44.2803 12.559 1.43535 44.2803 12.559 1.43535
210 2 44.2119 12.5698 -1.76068 44.2119 12.5698 -1.76068
211 1 45.2868 10.918 -0.188913 45.2868 10.918 -0.188913
212 2 -4.73232 10.7929 1.03119 62.7059 10.7929 1.03119
213 2 -4.03333 11.0121 -1.80607 63.4049 11.0121 -1.80607
214 1 -3.25226 12.5329 0.00456675 64.186 12.5329 0.00456675
215 2 -1.30354 12.472 1.5635 66.1347 12.472 1.5635
216 2 -1.43741 12.6038 -1.7103 66.0008 12.6038 -1.7103
217 1 -0.417821 14.185 -0.0423609 -0.417821 14.185 -0.0423609
218 2 1.51089 14.1465 1.55702 1.51089 14.1465 1.55702
219 2 1.4557 14.2263 -1.70365 1.4557 14.2263 -1.70365
220 1 2.43364 15.8332 -0.0481575 2.43364 15.8332 -0.0481575
221 2 4.34524 15.802 1.57116 4.34524 15.802 1.57116
222 2 4.32461 15.8665 -1.69032 4.32461 15.8665 -1.69032
223 1 5.28546 14.1883 -0.098253 5.28546 14.1883 -0.098253
224 2 7.1857 14.1681 1.53422 7.1857 14.1681 1.53422
225 2 7.18777 14.2105 -1.72771 7.18777 14.2105 -1.72771
226 1 8.13739 15.8359 -0.074319 8.13739 15.8359 -0.074319
227 2 10.0466 15.8235 1.54742 10.0466 15.8235 1.54742
228 2 10.0307 15.851 -1.71462 10.0307 15.851 -1.71462
229 1 10.9894 14.1911 -0.1023 10.9894 14.1911 -0.1023
230 2 12.9015 14.1841 1.51581 12.9015 14.1841 1.51581
231 2 12.8797 14.2013 -1.74627 12.8797 14.2013 -1.74627
232 1 13.8414 15.8395 -0.112884 13.8414 15.8395 -0.112884
233 2 15.7593 15.8352 1.49854 15.7593 15.8352 1.49854
234 2 15.726 15.8471 -1.76345 15.726 15.8471 -1.76345
235 1 16.6935 14.1951 -0.148358 16.6935 14.1951 -0.148358
236 2 18.6072 14.193 1.46809 18.6072 14.193 1.46809
237 2 18.5825 14.2009 -1.79398 18.5825 14.2009 -1.79398
238 1 19.5458 15.8437 -0.166072 19.5458 15.8437 -0.166072
239 2 21.4502 15.8405 1.46177 21.4502 15.8405 1.46177
240 2 21.4443 15.8505 -1.80037 21.4443 15.8505 -1.80037
241 1 22.3983 14.1996 -0.176091 22.3983 14.1996 -0.176091
242 2 24.2958 14.1969 1.45991 24.2958 14.1969 1.45991
243 2 24.304 14.2059 -1.80222 24.304 14.2059 -1.80222
244 1 25.2509 15.8481 -0.164131 25.2509 15.8481 -0.164131
245 2 27.1521 15.8446 1.46737 27.1521 15.8446 1.46737
246 2 27.1529 15.8549 -1.79475 27.1529 15.8549 -1.79475
247 1 28.1038 14.2039 -0.16882 28.1038 14.2039 -0.16882
248 2 30.0065 14.2026 1.46093 30.0065 14.2026 1.46093
249 2 30.0043 14.2082 -1.8012 30.0043 14.2082 -1.8012
250 1 30.9565 15.8519 -0.167807 30.9565 15.8519 -0.167807
251 2 32.8614 15.8545 1.4594 32.8614 15.8545 1.4594
252 2 32.8549 15.852 -1.80274 32.8549 15.852 -1.80274
253 1 33.8094 14.2073 -0.172439 33.8094 14.2073 -0.172439
254 2 35.7133 14.2169 1.45599 35.7133 14.2169 1.45599
255 2 35.7087 14.1997 -1.80612 35.7087 14.1997 -1.80612
256 1 36.662 15.8547 -0.185082 36.662 15.8547 -0.185082
257 2 38.5668 15.8747 1.44179 38.5668 15.8747 1.44179
258 2 38.5603 15.8362 -1.82015 38.5603 15.8362 -1.82015
259 1 39.5147 14.2095 -0.171809 39.5147 14.2095 -0.171809
260 2 41.4149 14.2524 1.46054 41.4149 14.2524 1.46054
261 2 41.4175 14.1679 -1.80082 41.4175 14.1679 -1.80082
262 1 42.3666 15.856 -0.213828 42.3666 15.856 -0.213828
263 2 44.2231 15.8487 1.40902 44.2231 15.8487 1.40902
264 2 44.2679 15.8643 -1.7875 44.2679 15.8643 -1.7875
265 1 45.2871 14.2106 -0.180608 45.2871 14.2106 -0.180608
266 2 -4.82819 14.1531 1.07162 62.61 14.1531 1.07162
267 2 -4.01457 14.2316 -1.66768 63.4237 14.2316 -1.66768
268 1 -3.25118 15.8286 0.0924806 64.1871 15.8286 0.0924806
269 2 -1.31873 15.7838 1.67097 66.1195 15.7838 1.67097
270 2 -1.42396 15.8766 -1.60675 66.0143 15.8766 -1.60675
271 1 -0.417591 17.4774 0.0503968 -0.417591 17.4774 0.0503968
272 2 1.51783 17.4411 1.64075 1.51783 17.4411 1.64075
273 2 1.44881 17.5167 -1.61976 1.44881 17.5167 -1.61976
274 1 2.43372 19.1257 0.0290272 2.43372 19.1257 0.0290272
275 2 4.35438 19.0995 1.63756 4.35438 19.0995 1.63756
276 2 4.31548 19.1542 -1.62391 4.31548 19.1542 -1.62391
277 1 5.2855 17.4809 -0.0325343 5.2855 17.4809 -0.0325343
278 2 7.19795 17.4601 1.58553 7.19795 17.4601 1.58553
279 2 7.17557 17.5039 -1.67628 7.17557 17.5039 -1.67628
280 1 8.13749 19.1287 -0.0293658 8.13749 19.1287 -0.0293658
281 2 10.058 19.1192 1.57917 10.058 19.1192 1.57917
282 2 10.0195 19.1409 -1.68271 10.0195 19.1409 -1.68271
283 1 10.9894 17.484 -0.0741585 10.9894 17.484 -0.0741585
284 2 12.9084 17.478 1.53609 12.9084 17.478 1.53609
285 2 12.8729 17.493 -1.72586 12.8729 17.493 -1.72586
286 1 13.8414 19.1323 -0.097522 13.8414 19.1323 -0.097522
287 2 15.7642 19.1332 1.50831 15.7642 19.1332 1.50831
288 2 15.7212 19.1348 -1.75358 15.7212 19.1348 -1.75358
289 1 16.6935 17.4879 -0.13606 16.6935 17.4879 -0.13606
290 2 18.6105 17.4872 1.47664 18.6105 17.4872 1.47664
291 2 18.5791 17.4922 -1.78537 18.5791 17.4922 -1.78537
292 1 19.5458 19.1364 -0.160851 19.5458 19.1364 -0.160851
293 2 21.451 19.1393 1.46622 21.451 19.1393 1.46622
294 2 21.4435 19.1371 -1.79592 21.4435 19.1371 -1.79592
295 1 22.3983 17.4922 -0.165803 22.3983 17.4922 -0.165803
296 2 24.2969 17.4903 1.46898 24.2969 17.4903 1.46898
297 2 24.3027 17.4976 -1.79316 24.3027 17.4976 -1.79316
298 1 25.2509 19.1407 -0.156633 25.2509 19.1407 -0.156633
299 2 27.1526 19.1409 1.47442 27.1526 19.1409 1.47442
300 2 27.1524 19.1437 -1.78772 27.1524 19.1437 -1.78772
301 1 28.1036 17.4964 -0.158173 28.1036 17.4964 -0.158173
302 2 30.0088 17.4947 1.46865 30.0088 17.4947 1.46865
303 2 30.0017 17.501 -1.79347 30.0017 17.501 -1.79347
304 1 30.9564 19.1444 -0.161347 30.9564 19.1444 -0.161347
305 2 32.865 19.145 1.46129 32.865 19.145 1.46129
306 2 32.851 19.1463 -1.80082 32.851 19.1463 -1.80082
307 1 33.8092 17.4997 -0.174858 33.8092 17.4997 -0.174858
308 2 35.719 17.5054 1.44626 35.719 17.5054 1.44626
309 2 35.7025 17.496 -1.81585 35.7025 17.496 -1.81585
310 1 36.6617 19.1471 -0.194681 36.6617 19.1471 -0.194681
311 2 38.571 19.1464 1.42682 38.571 19.1464 1.42682
312 2 38.5556 19.1493 -1.83533 38.5556 19.1493 -1.83533
313 1 39.5144 17.5018 -0.210951 39.5144 17.5018 -0.210951
314 2 41.4284 17.5204 1.40527 41.4284 17.5204 1.40527
315 2 41.4038 17.4837 -1.85688 41.4038 17.4837 -1.85688
316 1 42.3663 19.1487 -0.25172 42.3663 19.1487 -0.25172
317 2 44.2106 19.1714 1.38451 44.2106 19.1714 1.38451
318 2 44.2804 19.1269 -1.81118 44.2804 19.1269 -1.81118
319 1 45.2861 17.5031 -0.169582 45.2861 17.5031 -0.169582
320 2 -4.81619 17.4611 1.1556 62.6221 17.4611 1.1556
321 2 -4.01798 17.5002 -1.59822 63.4203 17.5002 -1.59822
322 1 -3.25181 19.123 0.137269 64.1864 19.123 0.137269
323 2 -1.33446 19.0978 1.73458 66.1038 19.0978 1.73458
324 2 -1.40979 19.1489 -1.5448 66.0285 19.1489 -1.5448
325 1 -0.417939 20.7707 0.101537 -0.417939 20.7707 0.101537
326 2 1.51025 20.7463 1.70107 1.51025 20.7463 1.70107
327 2 1.45619 20.7973 -1.56018 1.45619 20.7973 -1.56018
328 1 2.43372 22.4188 0.0807614 2.43372 22.4188 0.0807614
329 2 4.35995 22.4067 1.68265 4.35995 22.4067 1.68265
330 2 4.30991 22.4328 -1.57899 4.30991 22.4328 -1.57899
331 1 5.28561 20.7736 0.0237937 5.28561 20.7736 0.0237937
332 2 7.20892 20.7605 1.6291 7.20892 20.7605 1.6291
333 2 7.16474 20.7891 -1.63264 7.16474 20.7891 -1.63264
334 1 8.13761 22.4216 0.000132087 8.13761 22.4216 0.000132087
335 2 10.0669 22.4202 1.59828 10.0669 22.4202 1.59828
336 2 10.0107 22.4256 -1.6634 10.0107 22.4256 -1.6634
337 1 10.9895 20.7768 -0.0517881 10.9895 20.7768 -0.0517881
338 2 12.9159 20.7768 1.54974 12.9159 20.7768 1.54974
339 2 12.8655 20.78 -1.71204 12.8655 20.78 -1.71204
340 1 13.8415 22.4251 -0.0941432 13.8415 22.4251 -0.0941432
341 2 15.7692 22.4329 1.50576 15.7692 22.4329 1.50576
342 2 15.7162 22.4206 -1.75595 15.7162 22.4206 -1.75595
343 1 16.6935 20.7807 -0.134314 16.6935 20.7807 -0.134314
344 2 18.6129 20.7871 1.47575 18.6129 20.7871 1.47575
345 2 18.5768 20.7778 -1.7862 18.5768 20.7778 -1.7862
346 1 19.5459 22.4291 -0.170428 19.5459 22.4291 -0.170428
347 2 21.4513 22.4394 1.45642 21.4513 22.4394 1.45642
348 2 21.4435 22.4223 -1.80568 21.4435 22.4223 -1.80568
349 1 22.3983 20.7849 -0.16801 22.3983 20.7849 -0.16801
350 2 24.296 20.7906 1.46798 24.296 20.7906 1.46798
351 2 24.3038 20.7826 -1.79414 24.3038 20.7826 -1.79414
352 1 25.251 22.4333 -0.164903 25.251 22.4333 -0.164903
353 2 27.1499 22.4394 1.46945 27.1499 22.4394 1.46945
354 2 27.1553 22.4304 -1.79267 27.1553 22.4304 -1.79267
355 1 28.1037 20.7889 -0.155318 28.1037 20.7889 -0.155318
356 2 30.0085 20.7901 1.47198 30.0085 20.7901 1.47198
357 2 30.0021 20.7907 -1.79015 30.0021 20.7907 -1.79015
358 1 30.9564 22.4369 -0.160728 30.9564 22.4369 -0.160728
359 2 32.865 22.4378 1.4622 32.865 22.4378 1.4622
360 2 32.8511 22.4386 -1.79992 32.8511 22.4386 -1.79992
361 1 33.8091 20.7921 -0.173309 33.8091 20.7921 -0.173309
362 2 35.7191 20.7871 1.44772 35.7191 20.7871 1.44772
363 2 35.7022 20.7992 -1.81437 35.7022 20.7992 -1.81437
364 1 36.6617 22.4396 -0.182092 36.6617 22.4396 -0.182092
365 2 38.5725 22.4309 1.43839 38.5725 22.4309 1.43839
366 2 38.554 22.4498 -1.82368 38.554 22.4498 -1.82368
367 1 39.5141 20.7942 -0.207587 39.5141 20.7942 -0.207587
368 2 41.4241 20.7679 1.41327 41.4241 20.7679 1.41327
369 2 41.407 20.822 -1.8487 41.407 20.822 -1.8487
370 1 42.3661 22.441 -0.193536 42.3661 22.441 -0.193536
371 2 44.2702 22.4676 1.37684 44.2702 22.4676 1.37684
372 2 44.2198 22.4149 -1.8192 44.2198 22.4149 -1.8192
373 1 45.2866 20.7954 -0.212434 45.2866 20.7954 -0.212434
374 2 -4.83231 20.762 1.16692 62.6059 20.762 1.16692
375 2 -3.99943 20.7828 -1.57376 63.4388 20.7828 -1.57376
376 1 -3.25277 22.4171 0.160591 64.1855 22.4171 0.160591
377 2 -1.34226 22.4067 1.76679 66.096 22.4067 1.76679
378 2 -1.4027 22.428 -1.51316 66.0355 22.428 -1.51316
379 1 -0.418259 24.0646 0.123004 -0.418259 24.0646 0.123004
380 2 1.50618 24.0628 1.72748 1.50618 24.0628 1.72748
381 2 1.45985 24.0678 -1.53425 1.45985 24.0678 -1.53425
382 1 2.43356 25.7123 0.0859617 2.43356 25.7123 0.0859617
383 2 4.36132 25.7238 1.68607 4.36132 25.7238 1.68607
384 2 4.30827 25.7023 -1.57555 4.30827 25.7023 -1.57555
385 1 5.28566 24.0666 0.050763 5.28566 24.0666 0.050763
386 2 7.2157 24.0675 1.64809 7.2157 24.0675 1.64809
387 2 7.15799 24.068 -1.61354 7.15799 24.068 -1.61354
388 1 8.13759 25.7145 0.000665235 8.13759 25.7145 0.000665235
389 2 10.0693 25.7224 1.59579 10.0693 25.7224 1.59579
390 2 10.0082 25.7091 -1.66577 10.0082 25.7091 -1.66577
391 1 10.9896 24.0696 -0.0461207 10.9896 24.0696 -0.0461207
392 2 12.921 24.0762 1.54927 12.921 24.0762 1.54927
393 2 12.8604 24.0661 -1.71232 12.8604 24.0661 -1.71232
394 1 13.8415 25.7178 -0.104472 13.8415 25.7178 -0.104472
395 2 15.7703 25.7254 1.49403 15.7703 25.7254 1.49403
396 2 15.7151 25.7135 -1.76765 15.7151 25.7135 -1.76765
397 1 16.6936 24.0734 -0.146892 16.6936 24.0734 -0.146892
398 2 18.6133 24.0835 1.46263 18.6133 24.0835 1.46263
399 2 18.5766 24.0668 -1.79927 18.5766 24.0668 -1.79927
400 1 19.546 25.7218 -0.18758 19.546 25.7218 -0.18758
401 2 21.4498 25.729 1.44106 21.4498 25.729 1.44106
402 2 21.4454 25.7181 -1.82105 21.4454 25.7181 -1.82105
403 1 22.3985 24.0775 -0.185554 22.3985 24.0775 -0.185554
404 2 24.2935 24.0877 1.4535 24.2935 24.0877 1.4535
405 2 24.3067 24.0708 -1.80857 24.3067 24.0708 -1.80857
406 1 25.2513 25.7259 -0.182285 25.2513 25.7259 -0.182285
407 2 27.1457 25.7323 1.45713 27.1457 25.7323 1.45713
408 2 27.16 25.7227 -1.80496 27.16 25.7227 -1.80496
409 1 28.1038 24.0815 -0.164708 28.1038 24.0815 -0.164708
410 2 30.0051 24.0862 1.46676 30.0051 24.0862 1.46676
411 2 30.0057 24.0797 -1.79538 30.0057 24.0797 -1.79538
412 1 30.9566 25.7295 -0.167476 30.9566 25.7295 -0.167476
413 2 32.8627 25.7336 1.45824 32.8627 25.7336 1.45824
414 2 32.8536 25.7279 -1.80389 32.8536 25.7279 -1.80389
415 1 33.8091 24.0847 -0.172433 33.8091 24.0847 -0.172433
416 2 35.7169 24.0866 1.45156 35.7169 24.0866 1.45156
417 2 35.7045 24.0848 -1.81058 35.7045 24.0848 -1.81058
418 1 36.6617 25.7321 -0.183802 36.6617 25.7321 -0.183802
419 2 38.5705 25.7404 1.43918 38.5705 25.7404 1.43918
420 2 38.556 25.7255 -1.82295 38.556 25.7255 -1.82295
421 1 39.5142 24.0868 -0.188096 39.5142 24.0868 -0.188096
422 2 41.4166 24.0833 1.44269 41.4166 24.0833 1.44269
423 2 41.4151 24.0912 -1.8198 41.4151 24.0912 -1.8198
424 1 42.3662 25.7338 -0.184758 42.3662 25.7338 -0.184758
425 2 44.2855 25.7267 1.36824 44.2855 25.7267 1.36824
426 2 44.2045 25.7414 -1.82751 44.2045 25.7414 -1.82751
427 1 45.2855 24.0876 -0.261655 45.2855 24.0876 -0.261655
428 2 -4.83425 24.0659 1.17344 62.604 24.0659 1.17344
429 2 -3.997 24.061 -1.56641 63.4412 24.061 -1.56641
430 1 -3.25317 25.7114 0.15433 64.1851 25.7114 0.15433
431 2 -1.3456 25.723 1.76416 66.0926 25.723 1.76416
432 2 -1.40008 25.7 -1.5159 66.0382 25.7 -1.5159
433 1 -0.418529 27.3585 0.0998384 -0.418529 27.3585 0.0998384
434 2 1.50635 27.3852 1.70345 1.50635 27.3852 1.70345
435 2 1.45913 27.3324 -1.55786 1.45913 27.3324 -1.55786
436 1 2.43319 29.0052 0.0324778 2.43319 29.0052 0.0324778
437 2 4.35537 29.0374 1.63908 4.35537 29.0374 1.63908
438 2 4.31351 28.9742 -1.62219 4.31351 28.9742 -1.62219
439 1 5.28542 27.3597 0.0287833 5.28542 27.3597 0.0287833
440 2 7.21171 27.3758 1.63055 7.21171 27.3758 1.63055
441 2 7.16161 27.3454 -1.63108 7.16161 27.3454 -1.63108
442 1 8.13738 29.0071 -0.0305865 8.13738 29.0071 -0.0305865
443 2 10.062 29.0199 1.57301 10.062 29.0199 1.57301
444 2 10.0153 28.9968 -1.68876 10.0153 28.9968 -1.68876
445 1 10.9895 27.3623 -0.0597228 10.9895 27.3623 -0.0597228
446 2 12.9195 27.3695 1.53739 12.9195 27.3695 1.53739
447 2 12.862 27.3581 -1.72426 12.862 27.3581 -1.72426
448 1 13.8416 29.0104 -0.116274 13.8416 29.0104 -0.116274
449 2 15.7658 29.0096 1.48772 15.7658 29.0096 1.48772
450 2 15.7201 29.0145 -1.77412 15.7201 29.0145 -1.77412
451 1 16.6937 27.366 -0.159155 16.6937 27.366 -0.159155
452 2 18.6118 27.3687 1.45219 18.6118 27.3687 1.45219
453 2 18.5784 27.3669 -1.80978 18.5784 27.3669 -1.80978
454 1 19.5463 29.0145 -0.18952 19.5463 29.0145 -0.18952
455 2 21.4482 29.0095 1.44129 21.4482 29.0095 1.44129
456 2 21.4476 29.0231 -1.82082 21.4476 29.0231 -1.82082
457 1 22.3988 27.3702 -0.1969 22.3988 27.3702 -0.1969
458 2 24.2927 27.373 1.44318 24.2927 27.373 1.44318
459 2 24.308 27.3708 -1.81892 24.308 27.3708 -1.81892
460 1 25.2516 29.0186 -0.184421 25.2516 29.0186 -0.184421
461 2 27.1458 29.0171 1.45521 27.1458 29.0171 1.45521
462 2 27.1605 29.0233 -1.80689 27.1605 29.0233 -1.80689
463 1 28.104 27.3741 -0.174677 28.104 27.3741 -0.174677
464 2 30.002 27.3765 1.46049 30.002 27.3765 1.46049
465 2 30.0092 27.3747 -1.80165 30.0092 27.3747 -1.80165
466 1 30.9567 29.0222 -0.169528 30.9567 29.0222 -0.169528
467 2 32.8632 29.0236 1.45552 32.8632 29.0236 1.45552
468 2 32.8534 29.0232 -1.80661 32.8534 29.0232 -1.80661
469 1 33.8092 27.3773 -0.178327 33.8092 27.3773 -0.178327
470 2 35.7186 27.3864 1.44343 35.7186 27.3864 1.44343
471 2 35.7029 27.3701 -1.81865 35.7029 27.3701 -1.81865
472 1 36.6617 29.0248 -0.200538 36.6617 29.0248 -0.200538
473 2 38.5699 29.0347 1.42222 38.5699 29.0347 1.42222
474 2 38.5564 29.0162 -1.83988 38.5564 29.0162 -1.83988
475 1 39.514 27.3793 -0.203471 39.514 27.3793 -0.203471
476 2 41.4214 27.407 1.42079 41.4214 27.407 1.42079
477 2 41.4096 27.3528 -1.84123 41.4096 27.3528 -1.84123
478 1 42.3657 29.0261 -0.242595 42.3657 29.0261 -0.242595
479 2 44.2359 29.0037 1.3649 44.2359 29.0037 1.3649
480 2 44.2535 29.049 -1.8316 44.2535 29.049 -1.8316
481 1 45.286 27.3803 -0.248731 45.286 27.3803 -0.248731
482 2 -4.83527 27.3709 1.14862 62.603 27.3709 1.14862
483 2 -3.99606 27.3369 -1.59036 63.4422 27.3369 -1.59036
484 1 -3.25319 29.0053 0.11357 64.1851 29.0053 0.11357
485 2 -1.34422 29.0376 1.72104 66.094 29.0376 1.72104
486 2 -1.40207 28.9731 -1.55845 66.0362 28.9731 -1.55845
487 1 -0.418672 30.6517 0.0352262 -0.418672 30.6517 0.0352262
488 2 1.51091 30.6973 1.63246 1.51091 30.6973 1.63246
489 2 1.45396 30.6057 -1.62785 1.45396 30.6057 -1.62785
490 1 2.43277 32.2972 -0.0610005 2.43277 32.2972 -0.0610005
491 2 4.34282 32.3365 1.55988 4.34282 32.3365 1.55988
492 2 4.32542 32.2593 -1.70134 4.32542 32.2593 -1.70134
493 1 5.28501 30.652 -0.0361731 5.28501 30.652 -0.0361731
494 2 7.1979 30.678 1.58137 7.1979 30.678 1.58137
495 2 7.17483 30.6281 -1.68035 7.17483 30.6281 -1.68035
496 1 8.13713 32.2994 -0.0818811 8.13713 32.2994 -0.0818811
497 2 10.0465 32.3127 1.53985 10.0465 32.3127 1.53985
498 2 10.0306 32.2888 -1.72223 10.0306 32.2888 -1.72223
499 1 10.9895 30.6548 -0.0835171 10.9895 30.6548 -0.0835171
500 2 12.9102 30.6576 1.52473 12.9102 30.6576 1.52473
501 2 12.8715 30.6551 -1.73723 12.8715 30.6551 -1.73723
502 1 13.8418 32.3029 -0.118959 13.8418 32.3029 -0.118959
503 2 15.7589 32.2971 1.49364 15.7589 32.2971 1.49364
504 2 15.7276 32.312 -1.76836 15.7276 32.312 -1.76836
505 1 16.694 30.6587 -0.154175 16.694 30.6587 -0.154175
506 2 18.6097 30.6504 1.46008 18.6097 30.6504 1.46008
507 2 18.5812 30.6705 -1.80188 18.5812 30.6705 -1.80188
508 1 19.5467 32.3071 -0.168797 19.5467 32.3071 -0.168797
509 2 21.4502 32.2983 1.46021 21.4502 32.2983 1.46021
510 2 21.4463 32.3195 -1.80187 21.4463 32.3195 -1.80187
511 1 22.3991 30.6629 -0.1829 22.3991 30.6629 -0.1829
512 2 24.2969 30.6566 1.4527 24.2969 30.6566 1.4527
513 2 24.3045 30.6726 -1.80939 24.3045 30.6726 -1.80939
514 1 25.2518 32.3112 -0.167793 25.2518 32.3112 -0.167793
515 2 27.1495 32.3057 1.46787 27.1495 32.3057 1.46787
516 2 27.1572 32.3201 -1.79422 27.1572 32.3201 -1.79422
517 1 28.1043 30.6668 -0.168368 28.1043 30.6668 -0.168368
518 2 30.0033 30.663 1.46558 30.0033 30.663 1.46558
519 2 30.0084 30.6736 -1.79654 30.0084 30.6736 -1.79654
520 1 30.957 32.3149 -0.15866 30.957 32.3149 -0.15866
521 2 32.8657 32.3093 1.46373 32.8657 32.3093 1.46373
522 2 32.8513 32.323 -1.79836 32.8513 32.323 -1.79836
523 1 33.8093 30.67 -0.178762 33.8093 30.67 -0.178762
524 2 35.7217 30.6692 1.43901 35.7217 30.6692 1.43901
525 2 35.6998 30.6727 -1.82308 35.6998 30.6727 -1.82308
526 1 36.6618 32.3174 -0.196852 36.6618 32.3174 -0.196852
527 2 38.571 32.3069 1.42474 38.571 32.3069 1.42474
528 2 38.5555 32.3295 -1.83733 38.5555 32.3295 -1.83733
529 1 39.514 30.6719 -0.222654 39.514 30.6719 -0.222654
530 2 41.426 30.6704 1.39609 41.426 30.6704 1.39609
531 2 41.4052 30.6743 -1.86634 41.4052 30.6743 -1.86634
532 1 42.3659 32.3189 -0.23943 42.3659 32.3189 -0.23943
533 2 44.2218 32.3131 1.38404 44.2218 32.3131 1.38404
534 2 44.2679 32.3248 -1.81244 44.2679 32.3248 -1.81244
535 1 45.2857 30.6725 -0.206309 45.2857 30.6725 -0.206309
536 2 -4.83155 30.6714 1.10266 62.6067 30.6714 1.10266
537 2 -4.00283 30.6186 -1.63897 63.4354 30.6186 -1.63897
538 1 -3.25324 32.2989 0.0508526 64.185 32.2989 0.0508526