ITEM: TIMESTEP
3572000
ITEM: NUMBER OF ATOMS
810
ITEM: BOX BOUNDS pp pp pp
-8.2977018406834713e+00 6.1315306840682538e+01
8.1394622342039402e-01 5.0202268776579182e+01
-1.0000000000000000e+01 1.0000000000000000e+01
ITEM: ATOMS id type x y z xu yu zu
1 1 -0.81252 1.02268 -0.319164 -0.81252 1.02268 -0.319164
2 2 1.03867 1.0262 1.36879 1.03867 1.0262 1.36879
3 2 1.13742 1.01868 -1.89183 1.13742 1.01868 -1.89183
4 1 2.03936 2.66871 -0.236112 2.03936 2.66871 -0.236112
5 2 3.91735 2.67367 1.42122 3.91735 2.67367 1.42122
6 2 3.96376 2.66413 -1.84062 3.96376 2.66413 -1.84062
7 1 4.89042 1.02227 -0.191178 4.89042 1.02227 -0.191178
8 2 6.77117 1.03014 1.46352 6.77117 1.03014 1.46352
9 2 6.81213 1.01557 -1.79836 6.81213 1.01557 -1.79836
10 1 7.74295 2.66934 -0.162866 7.74295 2.66934 -0.162866
11 2 9.62837 2.68305 1.48657 9.62837 2.68305 1.48657
12 2 9.66005 2.65705 -1.77534 9.66005 2.65705 -1.77534
13 1 10.5944 1.02364 -0.121784 10.5944 1.02364 -0.121784
14 2 12.4839 1.02802 1.52327 12.4839 1.02802 1.52327
15 2 12.5078 1.02057 -1.73879 12.5078 1.02057 -1.73879
16 1 13.4472 2.6707 -0.104807 13.4472 2.6707 -0.104807
17 2 15.3508 2.67724 1.52364 15.3508 2.67724 1.52364
18 2 15.3466 2.66532 -1.73848 15.3466 2.66532 -1.73848
19 1 16.2995 1.025 -0.102784 16.2995 1.025 -0.102784
20 2 18.2223 1.02525 1.50269 18.2223 1.02525 1.50269
21 2 18.1795 1.02607 -1.75919 18.1795 1.02607 -1.75919
22 1 19.152 2.67211 -0.14048 19.152 2.67211 -0.14048
23 2 21.0698 2.66862 1.47122 21.0698 2.66862 1.47122
24 2 21.0369 2.67718 -1.79076 21.0369 2.67718 -1.79076
25 1 22.0045 1.02694 -0.174011 22.0045 1.02694 -0.174011
26 2 23.9166 1.02973 1.44466 23.9166 1.02973 1.44466
27 2 23.8956 1.02581 -1.81743 23.8956 1.02581 -1.81743
28 1 24.857 2.6742 -0.194253 24.857 2.6742 -0.194253
29 2 26.7662 2.67441 1.42789 26.7662 2.67441 1.42789
30 2 26.7509 2.67534 -1.83423 26.7509 2.67534 -1.83423
31 1 27.7103 1.02903 -0.208348 27.7103 1.02903 -0.208348
32 2 29.6068 1.03325 1.42878 29.6068 1.03325 1.42878
33 2 29.6171 1.02623 -1.83337 29.6171 1.02623 -1.83337
34 1 30.5625 2.67627 -0.202775 30.5625 2.67627 -0.202775
35 2 32.4703 2.67476 1.42091 32.4703 2.67476 1.42091
36 2 32.458 2.67953 -1.84123 32.458 2.67953 -1.84123
37 1 33.4156 1.03125 -0.216547 33.4156 1.03125 -0.216547
38 2 35.3145 1.03674 1.41725 35.3145 1.03674 1.41725
39 2 35.3197 1.02808 -1.84492 35.3197 1.02808 -1.84492
40 1 36.2676 2.67903 -0.216496 36.2676 2.67903 -0.216496
41 2 38.1638 2.67695 1.42088 38.1638 2.67695 1.42088
42 2 38.1742 2.68341 -1.84131 38.1742 2.68341 -1.84131
43 1 39.1202 1.03412 -0.210739 39.1202 1.03412 -0.210739
44 2 41.0232 1.02893 1.41806 41.0232 1.02893 1.41806
45 2 41.0201 1.04123 -1.84443 41.0201 1.04123 -1.84443
46 1 41.9716 2.68148 -0.207181 41.9716 2.68148 -0.207181
47 2 43.8247 2.69478 1.42095 43.8247 2.69478 1.42095
48 2 43.8758 2.6692 -1.77542 43.8758 2.6692 -1.77542
49 1 44.8911 1.03574 -0.148482 44.8911 1.03574 -0.148482
50 2 -4.41043 1.02212 1.31552 65.2026 1.02212 1.31552
51 2 -5.21999 1.02553 -1.42979 64.393 1.02553 -1.42979
52 1 -3.64615 2.67067 -0.398638 65.9669 2.67067 -0.398638
53 2 -1.82292 2.65178 1.30682 67.7901 2.65178 1.30682
54 2 -1.70798 2.6876 -1.97166 67.905 2.6876 -1.97166
55 1 -0.811395 4.31569 -0.283531 -0.811395 4.31569 -0.283531
56 2 1.05664 4.3077 1.38439 1.05664 4.3077 1.38439
57 2 1.12263 4.32337 -1.87704 1.12263 4.32337 -1.87704
58 1 2.04041 5.96194 -0.218775 2.04041 5.96194 -0.218775
59 2 3.92856 5.95711 1.42726 3.92856 5.95711 1.42726
60 2 3.9548 5.96707 -1.8348 3.9548 5.96707 -1.8348
61 1 4.89175 4.31539 -0.201198 4.89175 4.31539 -0.201198
62 2 6.774 4.32123 1.45169 6.774 4.32123 1.45169
63 2 6.81186 4.31058 -1.81026 6.81186 4.31058 -1.81026
64 1 7.74395 5.96246 -0.173689 7.74395 5.96246 -0.173689
65 2 9.63574 5.97193 1.46829 9.63574 5.97193 1.46829
66 2 9.65471 5.95403 -1.7938 9.65471 5.95403 -1.7938
67 1 10.5955 4.31647 -0.148126 10.5955 4.31647 -0.148126
68 2 12.4797 4.32995 1.50284 12.4797 4.32995 1.50284
69 2 12.5138 4.30414 -1.75905 12.5138 4.30414 -1.75905
70 1 13.4479 5.96348 -0.131387 13.4479 5.96348 -0.131387
71 2 15.3438 5.97056 1.50613 15.3438 5.97056 1.50613
72 2 15.3549 5.95772 -1.75598 15.3549 5.95772 -1.75598
73 1 16.2999 4.31774 -0.115004 16.2999 4.31774 -0.115004
74 2 18.2156 4.31831 1.49896 18.2156 4.31831 1.49896
75 2 18.1871 4.31852 -1.76307 18.1871 4.31852 -1.76307
76 1 19.1522 5.96508 -0.140216 19.1522 5.96508 -0.140216
77 2 21.0685 5.96739 1.47339 21.0685 5.96739 1.47339
78 2 21.0386 5.96425 -1.78862 21.0386 5.96425 -1.78862
79 1 22.0043 4.31947 -0.164808 22.0043 4.31947 -0.164808
80 2 23.9216 4.31886 1.44773 23.9216 4.31886 1.44773
81 2 23.8898 4.32156 -1.81426 23.8898 4.32156 -1.81426
82 1 24.8565 5.96685 -0.190765 24.8565 5.96685 -0.190765
83 2 26.7721 5.97597 1.42393 26.7721 5.97597 1.42393
84 2 26.7437 5.95901 -1.83804 26.7437 5.95901 -1.83804
85 1 27.7093 4.32142 -0.20669 27.7093 4.32142 -0.20669
86 2 29.6101 4.32424 1.42589 29.6101 4.32424 1.42589
87 2 29.6117 4.32 -1.83625 29.6117 4.32 -1.83625
88 1 30.5616 5.96879 -0.206678 30.5616 5.96879 -0.206678
89 2 32.4687 5.97457 1.41809 32.4687 5.97457 1.41809
90 2 32.4576 5.96473 -1.84402 32.4576 5.96473 -1.84402
91 1 33.4147 4.32377 -0.211126 33.4147 4.32377 -0.211126
92 2 35.3183 4.32304 1.4178 35.3183 4.32304 1.4178
93 2 35.3141 4.32673 -1.84438 35.3141 4.32673 -1.84438
94 1 36.2668 5.97149 -0.212332 36.2668 5.97149 -0.212332
95 2 38.1657 5.97646 1.42207 38.1657 5.97646 1.42207
96 2 38.1708 5.96869 -1.84013 38.1708 5.96869 -1.84013
97 1 39.1195 4.32668 -0.203748 39.1195 4.32668 -0.203748
98 2 41.0191 4.32143 1.42969 41.0191 4.32143 1.42969
99 2 41.023 4.33365 -1.83287 41.023 4.33365 -1.83287
100 1 41.9709 5.97389 -0.193801 41.9709 5.97389 -0.193801
101 2 43.8457 5.98702 1.41036 43.8457 5.98702 1.41036
102 2 43.8538 5.96156 -1.7864 43.8538 5.96156 -1.7864
103 1 44.8913 4.32829 -0.172966 44.8913 4.32829 -0.172966
104 2 -4.39893 4.29143 1.34481 65.2141 4.29143 1.34481
105 2 -5.23486 4.3325 -1.38292 64.3781 4.3325 -1.38292
106 1 -3.64557 5.96567 -0.357031 65.9674 5.96567 -0.357031
107 2 -1.82974 5.92591 1.35747 67.7833 5.92591 1.35747
108 2 -1.69807 5.99971 -1.91836 67.9149 5.99971 -1.91836
109 1 -0.811263 7.60869 -0.204449 -0.811263 7.60869 -0.204449
110 2 1.08441 7.58562 1.43233 1.08441 7.58562 1.43233
111 2 1.09613 7.63154 -1.82956 1.09613 7.63154 -1.82956
112 1 2.04087 9.25476 -0.172817 2.04087 9.25476 -0.172817
113 2 3.94671 9.24624 1.45251 3.94671 9.24624 1.45251
114 2 3.93728 9.26411 -1.80967 3.93728 9.26411 -1.80967
115 1 4.89247 7.60866 -0.190845 4.89247 7.60866 -0.190845
116 2 6.78434 7.61013 1.45102 6.78434 7.61013 1.45102
117 2 6.80298 7.60787 -1.81115 6.80298 7.60787 -1.81115
118 1 7.74429 9.25557 -0.175801 7.74429 9.25557 -0.175801
119 2 9.64106 9.25756 1.46054 9.64106 9.25756 1.46054
120 2 9.65011 9.25417 -1.80164 9.65011 9.25417 -1.80164
121 1 10.5962 7.60943 -0.166152 10.5962 7.60943 -0.166152
122 2 12.4842 7.62066 1.48073 12.4842 7.62066 1.48073
123 2 12.5109 7.59904 -1.78127 12.5109 7.59904 -1.78127
124 1 13.4484 9.25642 -0.153064 13.4484 9.25642 -0.153064
125 2 15.3435 9.27044 1.48538 15.3435 9.27044 1.48538
126 2 15.356 9.24387 -1.77666 15.356 9.24387 -1.77666
127 1 16.3003 7.61079 -0.12835 16.3003 7.61079 -0.12835
128 2 18.2123 7.61815 1.49018 18.2123 7.61815 1.49018
129 2 18.1912 7.60501 -1.77187 18.1912 7.60501 -1.77187
130 1 19.1526 9.2583 -0.153752 19.1526 9.2583 -0.153752
131 2 21.069 9.27142 1.45951 21.069 9.27142 1.45951
132 2 21.0387 9.24669 -1.8024 21.0387 9.24669 -1.8024
133 1 22.0044 7.61254 -0.167751 22.0044 7.61254 -0.167751
134 2 23.9258 7.6253 1.43969 23.9258 7.6253 1.43969
135 2 23.8856 7.60115 -1.82211 23.8856 7.60115 -1.82211
136 1 24.8565 9.25981 -0.215185 24.8565 9.25981 -0.215185
137 2 26.7739 9.27958 1.39691 26.7739 9.27958 1.39691
138 2 26.7418 9.24119 -1.86484 26.7418 9.24119 -1.86484
139 1 27.7088 7.61408 -0.223622 27.7088 7.61408 -0.223622
140 2 29.6116 7.63305 1.40637 29.6116 7.63305 1.40637
141 2 29.6089 7.59654 -1.85555 29.6089 7.59654 -1.85555
142 1 30.5612 9.26134 -0.243894 30.5612 9.26134 -0.243894
143 2 32.4606 9.28013 1.38968 32.4606 9.28013 1.38968
144 2 32.4648 9.24433 -1.87226 32.4648 9.24433 -1.87226
145 1 33.4139 7.61629 -0.221367 33.4139 7.61629 -0.221367
146 2 35.3143 7.62387 1.41135 35.3143 7.62387 1.41135
147 2 35.3166 7.61086 -1.85079 35.3166 7.61086 -1.85079
148 1 36.2662 9.26395 -0.225792 36.2662 9.26395 -0.225792
149 2 38.1645 9.27366 1.40912 38.1645 9.27366 1.40912
150 2 38.1709 9.25625 -1.85303 38.1709 9.25625 -1.85303
151 1 39.1189 7.61905 -0.21126 39.1189 7.61905 -0.21126
152 2 41.0158 7.62881 1.42541 41.0158 7.62881 1.42541
153 2 41.0251 7.61084 -1.83712 41.0251 7.61084 -1.83712
154 1 41.9704 9.26611 -0.212462 41.9704 9.26611 -0.212462
155 2 43.845 9.27336 1.39113 43.845 9.27336 1.39113
156 2 43.8536 9.25956 -1.80573 43.8536 9.25956 -1.80573
157 1 44.8908 7.62051 -0.197427 44.8908 7.62051 -0.197427
158 2 -4.43473 7.51704 1.42182 65.1783 7.51704 1.42182
159 2 -5.11605 7.68729 -1.42647 64.497 7.68729 -1.42647
160 1 -3.64212 9.25368 -0.190045 65.9709 9.25368 -0.190045
161 2 -1.77471 9.23567 1.45614 67.8383 9.23567 1.45614
162 2 -1.76567 9.27226 -1.82576 67.8473 9.27226 -1.82576
163 1 -0.811621 10.8997 -0.15988 -0.811621 10.8997 -0.15988
164 2 1.08792 10.8831 1.47433 1.08792 10.8831 1.47433
165 2 1.09176 10.9184 -1.78771 1.09176 10.9184 -1.78771
166 1 2.03973 12.5476 -0.137555 2.03973 12.5476 -0.137555
167 2 3.95604 12.5401 1.47579 3.95604 12.5401 1.47579
168 2 3.92608 12.5561 -1.78622 3.92608 12.5561 -1.78622
169 1 4.89222 10.9019 -0.171996 4.89222 10.9019 -0.171996
170 2 6.79472 10.9002 1.45794 6.79472 10.9002 1.45794
171 2 6.79226 10.9038 -1.80428 6.79226 10.9038 -1.80428
172 1 7.74393 12.5485 -0.171915 7.74393 12.5485 -0.171915
173 2 9.64424 12.5491 1.46052 9.64424 12.5491 1.46052
174 2 9.6464 12.5482 -1.80166 9.6464 12.5482 -1.80166
175 1 10.5963 10.9024 -0.169584 10.5963 10.9024 -0.169584
176 2 12.492 10.9094 1.4682 12.492 10.9094 1.4682
177 2 12.5034 10.8961 -1.79393 12.5034 10.8961 -1.79393
178 1 13.4484 12.5494 -0.165992 13.4484 12.5494 -0.165992
179 2 15.349 12.5592 1.46606 15.349 12.5592 1.46606
180 2 15.3506 12.5411 -1.79605 15.3506 12.5411 -1.79605
181 1 16.3006 10.9038 -0.155485 16.3006 10.9038 -0.155485
182 2 18.2093 10.9192 1.46667 18.2093 10.9192 1.46667
183 2 18.1946 10.8903 -1.79532 18.1946 10.8903 -1.79532
184 1 19.1527 12.5514 -0.18349 19.1527 12.5514 -0.18349
185 2 21.0656 12.5629 1.43372 21.0656 12.5629 1.43372
186 2 21.0425 12.5415 -1.82827 21.0425 12.5415 -1.82827
187 1 22.0046 10.9057 -0.193078 22.0046 10.9057 -0.193078
188 2 23.9269 10.9211 1.41295 23.9269 10.9211 1.41295
189 2 23.8849 10.8915 -1.84878 23.8849 10.8915 -1.84878
190 1 24.8566 12.5529 -0.245608 24.8566 12.5529 -0.245608
191 2 26.7723 12.5614 1.36829 26.7723 12.5614 1.36829
192 2 26.7437 12.5455 -1.89365 26.7437 12.5455 -1.89365
193 1 27.7087 10.9069 -0.262976 27.7087 10.9069 -0.262976
194 2 29.6097 10.9252 1.3687 29.6097 10.9252 1.3687
195 2 29.6108 10.8898 -1.89322 29.6108 10.8898 -1.89322
196 1 30.5612 12.5542 -0.280082 30.5612 12.5542 -0.280082
197 2 32.4531 12.5595 1.36215 32.4531 12.5595 1.36215
198 2 32.4723 12.5506 -1.8999 32.4723 12.5506 -1.8999
199 1 33.4136 10.9088 -0.258561 33.4136 10.9088 -0.258561
200 2 35.3035 10.922 1.38589 35.3035 10.922 1.38589
201 2 35.3268 10.8978 -1.87609 35.3268 10.8978 -1.87609
202 1 36.2661 12.5565 -0.250841 36.2661 12.5565 -0.250841
203 2 38.1545 12.5568 1.39513 38.1545 12.5568 1.39513
204 2 38.1807 12.5581 -1.86694 38.1807 12.5581 -1.86694
205 1 39.1185 10.9114 -0.22903 39.1185 10.9114 -0.22903
206 2 41.0167 10.9225 1.40605 41.0167 10.9225 1.40605
207 2 41.0236 10.9017 -1.85644 41.0236 10.9017 -1.85644
208 1 41.9705 12.5583 -0.233651 41.9705 12.5583 -0.233651
209 2 43.8415 12.5663 1.37359 43.8415 12.5663 1.37359
210 2 43.8573 12.5508 -1.8232 43.8573 12.5508 -1.8232
211 1 44.8905 10.9125 -0.211669 44.8905 10.9125 -0.211669
212 2 -5.15123 10.8306 0.991491 64.4618 10.8306 0.991491
213 2 -4.3981 10.9782 -1.83289 65.2149 10.9782 -1.83289
214 1 -3.64762 12.5426 -0.0468391 65.9654 12.5426 -0.0468391
215 2 -1.72088 12.5099 1.54034 67.8921 12.5099 1.54034
216 2 -1.80879 12.5813 -1.737 67.8042 12.5813 -1.737
217 1 -0.812702 14.1928 -0.0845086 -0.812702 14.1928 -0.0845086
218 2 1.11493 14.1866 1.51634 1.11493 14.1866 1.51634
219 2 1.06199 14.2007 -1.74533 1.06199 14.2007 -1.74533
220 1 2.03846 15.8404 -0.122132 2.03846 15.8404 -0.122132
221 2 3.95801 15.8381 1.48787 3.95801 15.8381 1.48787
222 2 3.92167 15.8435 -1.77409 3.92167 15.8435 -1.77409
223 1 4.8913 14.1947 -0.156138 4.8913 14.1947 -0.156138
224 2 6.79952 14.1907 1.46726 6.79952 14.1907 1.46726
225 2 6.78593 14.1988 -1.79489 6.78593 14.1988 -1.79489
226 1 7.74333 15.8412 -0.163608 7.74333 15.8412 -0.163608
227 2 9.65035 15.8444 1.46118 9.65035 15.8444 1.46118
228 2 9.63926 15.8384 -1.80095 9.63926 15.8384 -1.80095
229 1 10.596 14.1952 -0.170216 10.596 14.1952 -0.170216
230 2 12.4984 14.2017 1.45973 12.4984 14.2017 1.45973
231 2 12.4964 14.1896 -1.80241 12.4964 14.1896 -1.80241
232 1 13.448 15.8424 -0.177948 13.448 15.8424 -0.177948
233 2 15.3498 15.8478 1.45284 15.3498 15.8478 1.45284
234 2 15.3492 15.8385 -1.80929 15.3492 15.8385 -1.80929
235 1 16.3005 14.1969 -0.173845 16.3005 14.1969 -0.173845
236 2 18.2107 14.204 1.44651 18.2107 14.204 1.44651
237 2 18.1931 14.1916 -1.81556 18.1931 14.1916 -1.81556
238 1 19.1526 15.8446 -0.196283 19.1526 15.8446 -0.196283
239 2 21.0596 15.8363 1.42812 21.0596 15.8363 1.42812
240 2 21.0485 15.8544 -1.83394 21.0485 15.8544 -1.83394
241 1 22.0047 14.1989 -0.215429 22.0047 14.1989 -0.215429
242 2 23.9212 14.1966 1.39732 23.9212 14.1966 1.39732
243 2 23.891 14.2025 -1.86466 23.891 14.2025 -1.86466
244 1 24.8569 15.8463 -0.239838 24.8569 15.8463 -0.239838
245 2 26.7712 15.8312 1.37545 26.7712 15.8312 1.37545
246 2 26.7453 15.8624 -1.8864 26.7453 15.8624 -1.8864
247 1 27.7088 14.2002 -0.279169 27.7088 14.2002 -0.279169
248 2 29.611 14.2007 1.35121 29.611 14.2007 1.35121
249 2 29.6098 14.2006 -1.91088 29.6098 14.2006 -1.91088
250 1 30.5613 15.8475 -0.280023 30.5613 15.8475 -0.280023
251 2 32.452 15.8407 1.36385 32.452 15.8407 1.36385
252 2 32.4737 15.8553 -1.89816 32.4737 15.8553 -1.89816
253 1 33.4137 14.2017 -0.268044 33.4137 14.2017 -0.268044
254 2 35.3032 14.1988 1.3771 35.3032 14.1988 1.3771
255 2 35.3271 14.2065 -1.88495 35.3271 14.2065 -1.88495
256 1 36.2663 15.849 -0.242838 36.2663 15.849 -0.242838
257 2 38.1594 15.8496 1.39843 38.1594 15.8496 1.39843
258 2 38.1764 15.8501 -1.8637 38.1764 15.8501 -1.8637
259 1 39.1187 14.2038 -0.227879 39.1187 14.2038 -0.227879
260 2 41.0198 14.1984 1.4039 41.0198 14.1984 1.4039
261 2 41.0211 14.2105 -1.85862 41.0211 14.2105 -1.85862
262 1 41.971 15.8505 -0.220493 41.971 15.8505 -0.220493
263 2 43.8537 15.8486 1.37505 43.8537 15.8486 1.37505
264 2 43.8464 15.853 -1.82179 43.8464 15.853 -1.82179
265 1 44.891 14.2045 -0.227346 44.891 14.2045 -0.227346
266 2 -5.23955 14.1829 0.963251 64.3735 14.1829 0.963251
267 2 -4.38691 14.205 -1.76495 65.2261 14.205 -1.76495
268 1 -3.64853 15.8377 -0.0275783 65.9645 15.8377 -0.0275783
269 2 -1.74128 15.8251 1.58184 67.8717 15.8251 1.58184
270 2 -1.79486 15.852 -1.69834 67.8182 15.852 -1.69834
271 1 -0.814092 17.4855 -0.0583512 -0.814092 17.4855 -0.0583512
272 2 1.11756 17.4764 1.53668 1.11756 17.4764 1.53668
273 2 1.05655 17.4962 -1.72482 1.05655 17.4962 -1.72482
274 1 2.03764 19.1328 -0.101918 2.03764 19.1328 -0.101918
275 2 3.9626 19.1259 1.50149 3.9626 19.1259 1.50149
276 2 3.91535 19.1407 -1.76028 3.91535 19.1407 -1.76028
277 1 4.89039 17.4873 -0.150804 4.89039 17.4873 -0.150804
278 2 6.79958 17.4876 1.47159 6.79958 17.4876 1.47159
279 2 6.78437 17.4871 -1.79053 6.78437 17.4871 -1.79053
280 1 7.74269 19.1338 -0.164088 7.74269 19.1338 -0.164088
281 2 9.65266 19.137 1.4571 9.65266 19.137 1.4571
282 2 9.6358 19.1314 -1.80497 9.6358 19.1314 -1.80497
283 1 10.5954 17.488 -0.176071 10.5954 17.488 -0.176071
284 2 12.502 17.4955 1.44905 12.502 17.4955 1.44905
285 2 12.4918 17.4817 -1.81304 12.4918 17.4817 -1.81304
286 1 13.4474 19.1354 -0.191934 13.4474 19.1354 -0.191934
287 2 15.3454 19.1382 1.44348 15.3454 19.1382 1.44348
288 2 15.3524 19.1342 -1.81864 15.3524 19.1342 -1.81864
289 1 16.3001 17.4899 -0.18335 16.3001 17.4899 -0.18335
290 2 18.2062 17.4861 1.44215 18.2062 17.4861 1.44215
291 2 18.1969 17.4955 -1.81996 18.1969 17.4955 -1.81996
292 1 19.1523 19.1375 -0.186984 19.1523 19.1375 -0.186984
293 2 21.0514 19.1239 1.44695 21.0514 19.1239 1.44695
294 2 21.0561 19.1527 -1.81505 21.0561 19.1527 -1.81505
295 1 22.0048 17.492 -0.197258 22.0048 17.492 -0.197258
296 2 23.9175 17.4707 1.42024 23.9175 17.4707 1.42024
297 2 23.8951 17.5147 -1.84151 23.8951 17.5147 -1.84151
298 1 24.8572 19.1392 -0.194967 24.8572 19.1392 -0.194967
299 2 26.7718 19.1114 1.42025 26.7718 19.1114 1.42025
300 2 26.7455 19.168 -1.84127 26.7455 19.168 -1.84127
301 1 27.7092 17.4935 -0.247229 27.7092 17.4935 -0.247229
302 2 29.6152 17.4699 1.37817 29.6152 17.4699 1.37817
303 2 29.6061 17.518 -1.88356 29.6061 17.518 -1.88356
304 1 30.5618 19.1404 -0.230833 30.5618 19.1404 -0.230833
305 2 32.4611 19.1154 1.40269 32.4611 19.1154 1.40269
306 2 32.4655 19.1663 -1.85903 32.4655 19.1663 -1.85903
307 1 33.414 17.4946 -0.253162 33.414 17.4946 -0.253162
308 2 35.305 17.4874 1.38999 35.305 17.4874 1.38999
309 2 35.326 17.503 -1.87205 35.326 17.503 -1.87205
310 1 36.2668 19.1416 -0.226889 36.2668 19.1416 -0.226889
311 2 38.1639 19.1342 1.40926 38.1639 19.1342 1.40926
312 2 38.173 19.1502 -1.85285 38.173 19.1502 -1.85285
313 1 39.1193 17.4961 -0.227406 39.1193 17.4961 -0.227406
314 2 41.0191 17.5001 1.40575 41.0191 17.5001 1.40575
315 2 41.0229 17.4933 -1.85676 41.0229 17.4933 -1.85676
316 1 41.9715 19.1429 -0.228347 41.9715 19.1429 -0.228347
317 2 43.8405 19.1307 1.38143 43.8405 19.1307 1.38143
318 2 43.8606 19.1557 -1.81524 43.8606 19.1557 -1.81524
319 1 44.8916 17.4969 -0.222902 44.8916 17.4969 -0.222902
320 2 -5.23492 17.4826 0.983332 64.3781 17.4826 0.983332
321 2 -4.38394 17.4872 -1.75349 65.2291 17.4872 -1.75349
322 1 -3.64922 19.131 -0.0233033 65.9638 19.131 -0.0233033
323 2 -1.75036 19.126 1.59568 67.8626 19.126 1.59568
324 2 -1.78854 19.1375 -1.68468 67.8245 19.1375 -1.68468
325 1 -0.814504 20.7783 -0.0472518 -0.814504 20.7783 -0.0472518
326 2 1.11242 20.7695 1.5533 1.11242 20.7695 1.5533
327 2 1.06088 20.7882 -1.70841 1.06088 20.7882 -1.70841
328 1 2.03734 22.4253 -0.083229 2.03734 22.4253 -0.083229
329 2 3.96241 22.4154 1.51979 3.96241 22.4154 1.51979
330 2 3.91495 22.4361 -1.74194 3.91495 22.4361 -1.74194
331 1 4.88982 20.7797 -0.135474 4.88982 20.7797 -0.135474
332 2 6.80574 20.7764 1.47901 6.80574 20.7764 1.47901
333 2 6.77701 20.7835 -1.78297 6.77701 20.7835 -1.78297
334 1 7.74212 22.4266 -0.156568 7.74212 22.4266 -0.156568
335 2 9.65779 22.427 1.45788 9.65779 22.427 1.45788
336 2 9.62947 22.4276 -1.8041 9.62947 22.4276 -1.8041
337 1 10.5948 20.781 -0.18172 10.5948 20.781 -0.18172
338 2 12.5045 20.7856 1.43975 12.5045 20.7856 1.43975
339 2 12.488 20.7778 -1.82231 12.488 20.7778 -1.82231
340 1 13.4469 22.4285 -0.199994 13.4469 22.4285 -0.199994
341 2 15.3443 22.4333 1.43631 15.3443 22.4333 1.43631
342 2 15.3526 22.425 -1.82579 15.3526 22.425 -1.82579
343 1 16.2996 20.7829 -0.187721 16.2996 20.7829 -0.187721
344 2 18.1966 20.776 1.44884 18.1966 20.776 1.44884
345 2 18.2056 20.7914 -1.81325 18.2056 20.7914 -1.81325
346 1 19.152 22.4303 -0.171951 19.152 22.4303 -0.171951
347 2 21.0466 22.4227 1.46736 21.0466 22.4227 1.46736
348 2 21.0605 22.4393 -1.79469 21.0605 22.4393 -1.79469
349 1 22.0047 20.7848 -0.168008 22.0047 20.7848 -0.168008
350 2 23.911 20.767 1.4574 23.911 20.767 1.4574
351 2 23.9015 20.8039 -1.8045 23.9015 20.8039 -1.8045
352 1 24.8573 22.4319 -0.157678 24.8573 22.4319 -0.157678
353 2 26.7671 22.4153 1.46357 26.7671 22.4153 1.46357
354 2 26.7506 22.4495 -1.79833 26.7506 22.4495 -1.79833
355 1 27.7097 20.7861 -0.189407 27.7097 20.7861 -0.189407
356 2 29.618 20.7574 1.4337 29.618 20.7574 1.4337
357 2 29.6045 20.8159 -1.82785 29.6045 20.8159 -1.82785
358 1 30.5625 22.4329 -0.171271 30.5625 22.4329 -0.171271
359 2 32.4685 22.4123 1.45454 32.4685 22.4123 1.45454
360 2 32.4595 22.4545 -1.8073 32.4595 22.4545 -1.8073
361 1 33.4146 20.7871 -0.200766 33.4146 20.7871 -0.200766
362 2 35.3187 20.7669 1.42709 35.3187 20.7669 1.42709
363 2 35.3134 20.8086 -1.83478 35.3134 20.8086 -1.83478
364 1 36.2673 22.434 -0.184169 36.2673 22.434 -0.184169
365 2 38.1727 22.4149 1.44237 38.1727 22.4149 1.44237
366 2 38.165 22.4544 -1.81953 38.165 22.4544 -1.81953
367 1 39.1197 20.7885 -0.21117 39.1197 20.7885 -0.21117
368 2 41.0254 20.7794 1.41502 41.0254 20.7794 1.41502
369 2 41.0174 20.7989 -1.84742 41.0174 20.7989 -1.84742
370 1 41.9716 22.4355 -0.208502 41.9716 22.4355 -0.208502
371 2 43.8413 22.4314 1.40031 43.8413 22.4314 1.40031
372 2 43.8599 22.44 -1.79648 43.8599 22.44 -1.79648
373 1 44.8917 20.7894 -0.197538 44.8917 20.7894 -0.197538
374 2 -5.23483 20.7679 1.00168 64.3782 20.7679 1.00168
375 2 -4.38215 20.7935 -1.7363 65.2309 20.7935 -1.7363
376 1 -3.64916 22.4238 0.00786832 65.9638 22.4238 0.00786832
377 2 -1.74474 22.4087 1.62053 67.8683 22.4087 1.62053
378 2 -1.79359 22.4405 -1.65956 67.8194 22.4405 -1.65956
379 1 -0.814583 24.0711 -0.0148968 -0.814583 24.0711 -0.0148968
380 2 1.11776 24.0578 1.57953 1.11776 24.0578 1.57953
381 2 1.05523 24.0849 -1.68192 1.05523 24.0849 -1.68192
382 1 2.03701 25.7179 -0.0554878 2.03701 25.7179 -0.0554878
383 2 3.96748 25.7105 1.54135 3.96748 25.7105 1.54135
384 2 3.90909 25.726 -1.72023 3.90909 25.726 -1.72023
385 1 4.88947 24.0722 -0.114382 4.88947 24.0722 -0.114382
386 2 6.80957 24.0635 1.49487 6.80957 24.0635 1.49487
387 2 6.77237 24.0821 -1.76698 6.77237 24.0821 -1.76698
388 1 7.74179 25.7194 -0.137616 7.74179 25.7194 -0.137616
389 2 9.66177 25.7097 1.47167 9.66177 25.7097 1.47167
390 2 9.62481 25.7309 -1.79015 9.62481 25.7309 -1.79015
391 1 10.5943 24.0741 -0.181097 10.5943 24.0741 -0.181097
392 2 12.5051 24.0724 1.4389 12.5051 24.0724 1.4389
393 2 12.4866 24.0774 -1.82314 12.4866 24.0774 -1.82314
394 1 13.4469 25.7216 -0.195059 13.4469 25.7216 -0.195059
395 2 15.3443 25.7135 1.44094 15.3443 25.7135 1.44094
396 2 15.3527 25.7309 -1.8211 15.3527 25.7309 -1.8211
397 1 16.2994 24.0758 -0.196441 16.2994 24.0758 -0.196441
398 2 18.186 24.0742 1.45222 18.186 24.0742 1.45222
399 2 18.2159 24.0788 -1.80977 18.2159 24.0788 -1.80977
400 1 19.152 25.723 -0.167647 19.152 25.723 -0.167647
401 2 21.0448 25.7245 1.47373 21.0448 25.7245 1.47373
402 2 21.0624 25.723 -1.78836 21.0624 25.723 -1.78836
403 1 22.0046 24.0775 -0.151146 22.0046 24.0775 -0.151146
404 2 23.9056 24.0704 1.4807 23.9056 24.0704 1.4807
405 2 23.9068 24.086 -1.78138 23.9068 24.086 -1.78138
406 1 24.8575 25.7245 -0.142275 24.8575 25.7245 -0.142275
407 2 26.7641 25.7209 1.48301 26.7641 25.7209 1.48301
408 2 26.7541 25.7293 -1.77908 26.7541 25.7293 -1.77908
409 1 27.7101 24.0788 -0.154826 27.7101 24.0788 -0.154826
410 2 29.6123 24.0637 1.47574 29.6123 24.0637 1.47574
411 2 29.6111 24.0949 -1.78622 29.6111 24.0949 -1.78622
412 1 30.5629 25.7257 -0.139843 30.5629 25.7257 -0.139843
413 2 32.4694 25.7171 1.48554 32.4694 25.7171 1.48554
414 2 32.4596 25.7354 -1.77652 32.4596 25.7354 -1.77652
415 1 33.4152 24.0798 -0.157446 33.4152 24.0798 -0.157446
416 2 35.3205 24.0602 1.46932 35.3205 24.0602 1.46932
417 2 35.313 24.1005 -1.79255 35.313 24.1005 -1.79255
418 1 36.2679 25.7268 -0.143485 36.2679 25.7268 -0.143485
419 2 38.1741 25.709 1.48197 38.1741 25.709 1.48197
420 2 38.1647 25.7457 -1.77994 38.1647 25.7457 -1.77994
421 1 39.12 24.0811 -0.170677 39.12 24.0811 -0.170677
422 2 41.0347 24.0679 1.44482 41.0347 24.0679 1.44482
423 2 41.0084 24.0957 -1.81746 41.0084 24.0957 -1.81746
424 1 41.9718 25.7282 -0.179471 41.9718 25.7282 -0.179471
425 2 43.8569 25.7344 1.41112 43.8569 25.7344 1.41112
426 2 43.8445 25.7226 -1.78572 43.8445 25.7226 -1.78572
427 1 44.8918 24.0821 -0.187086 44.8918 24.0821 -0.187086
428 2 -5.23308 24.0565 1.0428 64.3799 24.0565 1.0428
429 2 -4.38957 24.0923 -1.69545 65.2234 24.0923 -1.69545
430 1 -3.64954 25.7164 0.0526771 65.9635 25.7164 0.0526771
431 2 -1.73572 25.7049 1.6546 67.8773 25.7049 1.6546
432 2 -1.80342 25.7299 -1.62527 67.8096 25.7299 -1.62527
433 1 -0.815368 27.364 0.0105148 -0.815368 27.364 0.0105148
434 2 1.12212 27.3615 1.59896 1.12212 27.3615 1.59896
435 2 1.04944 27.3665 -1.66232 1.04944 27.3665 -1.66232
436 1 2.03634 29.0105 -0.050072 2.03634 29.0105 -0.050072
437 2 3.96875 29.016 1.54479 3.96875 29.016 1.54479
438 2 3.90648 29.0057 -1.71674 3.90648 29.0057 -1.71674
439 1 4.88902 27.3648 -0.0985419 4.88902 27.3648 -0.0985419
440 2 6.81008 27.3601 1.51008 6.81008 27.3601 1.51008
441 2 6.771 27.3709 -1.75178 6.771 27.3709 -1.75178
442 1 7.74152 29.012 -0.126929 7.74152 29.012 -0.126929
443 2 9.65711 29.0049 1.48786 9.65711 29.0049 1.48786
444 2 9.62915 29.021 -1.7741 9.62915 29.021 -1.7741
445 1 10.5943 27.3669 -0.159364 10.5943 27.3669 -0.159364
446 2 12.5069 27.3515 1.45891 12.5069 27.3515 1.45891
447 2 12.485 27.3842 -1.80295 12.485 27.3842 -1.80295
448 1 13.4472 29.0143 -0.161706 13.4472 29.0143 -0.161706
449 2 15.3519 29.0037 1.46603 15.3519 29.0037 1.46603
450 2 15.3459 29.0263 -1.796 15.3459 29.0263 -1.796
451 1 16.2997 27.3687 -0.178433 16.2997 27.3687 -0.178433
452 2 18.1927 27.3649 1.46285 18.1927 27.3649 1.46285
453 2 18.2098 27.3736 -1.79922 18.2098 27.3736 -1.79922
454 1 19.1525 29.0157 -0.158629 19.1525 29.0157 -0.158629
455 2 21.0501 29.0152 1.47699 21.0501 29.0152 1.47699
456 2 21.058 29.0176 -1.78515 21.058 29.0176 -1.78515
457 1 22.0048 27.3701 -0.152986 22.0048 27.3701 -0.152986
458 2 23.9021 27.3735 1.48317 23.9021 27.3735 1.48317
459 2 23.9108 27.3681 -1.77894 23.9108 27.3681 -1.77894
460 1 24.8578 29.0171 -0.148358 24.8578 29.0171 -0.148358
461 2 26.758 29.0167 1.48418 26.758 29.0167 1.48418
462 2 26.761 29.0188 -1.77794 26.761 29.0188 -1.77794
463 1 27.7104 27.3715 -0.146747 27.7104 27.3715 -0.146747
464 2 29.6086 27.3726 1.48847 29.6086 27.3726 1.48847
465 2 29.6154 27.3716 -1.77364 29.6154 27.3716 -1.77364
466 1 30.5632 29.0185 -0.141238 30.5632 29.0185 -0.141238
467 2 32.4624 29.0164 1.49263 32.4624 29.0164 1.49263
468 2 32.4671 29.0217 -1.7695 32.4671 29.0217 -1.7695
469 1 33.4156 27.3727 -0.139229 33.4156 27.3727 -0.139229
470 2 35.3148 27.3643 1.4949 35.3148 27.3643 1.4949
471 2 35.3195 27.3821 -1.76718 35.3195 27.3821 -1.76718
472 1 36.2683 29.0196 -0.125676 36.2683 29.0196 -0.125676
473 2 38.1711 29.0144 1.50423 38.1711 29.0144 1.50423
474 2 38.1687 29.0262 -1.75789 38.1687 29.0262 -1.75789
475 1 39.1205 27.3738 -0.133283 39.1205 27.3738 -0.133283
476 2 41.0379 27.357 1.47925 41.0379 27.357 1.47925
477 2 41.0063 27.392 -1.7829 41.0063 27.392 -1.7829
478 1 41.9726 29.021 -0.142757 41.9726 29.021 -0.142757
479 2 43.8832 29.0261 1.41875 43.8832 29.0261 1.41875
480 2 43.8193 29.0163 -1.77746 43.8193 29.0163 -1.77746
481 1 44.892 27.3748 -0.196026 44.892 27.3748 -0.196026
482 2 -5.22284 27.3525 1.09867 64.3902 27.3525 1.09867
483 2 -4.40706 27.3789 -1.64838 65.206 27.3789 -1.64838
484 1 -3.65054 29.01 0.0862311 65.9625 29.01 0.0862311
485 2 -1.72454 29.01 1.67445 67.8885 29.01 1.67445
486 2 -1.8163 29.0105 -1.60489 67.7967 29.0105 -1.60489
487 1 -0.815857 30.6568 0.0116632 -0.815857 30.6568 0.0116632
488 2 1.13145 30.6753 1.58811 1.13145 30.6753 1.58811
489 2 1.03865 30.6379 -1.67243 1.03865 30.6379 -1.67243
490 1 2.03562 32.3027 -0.0886042 2.03562 32.3027 -0.0886042
491 2 3.95589 32.3139 1.52089 3.95589 32.3139 1.52089
492 2 3.91837 32.2924 -1.74098 3.91837 32.2924 -1.74098
493 1 4.88848 30.6572 -0.109618 4.88848 30.6572 -0.109618
494 2 6.80014 30.6575 1.51014 6.80014 30.6575 1.51014
495 2 6.78011 30.6585 -1.75194 6.78011 30.6585 -1.75194
496 1 7.74123 32.3043 -0.126413 7.74123 32.3043 -0.126413
497 2 9.65019 32.3013 1.49616 9.65019 32.3013 1.49616
498 2 9.63565 32.3092 -1.76595 9.63565 32.3092 -1.76595
499 1 10.5943 30.6594 -0.143066 10.5943 30.6594 -0.143066
500 2 12.5016 30.6514 1.48156 12.5016 30.6514 1.48156
501 2 12.4906 30.6693 -1.78049 12.4906 30.6693 -1.78049
502 1 13.4474 32.3066 -0.143703 13.4474 32.3066 -0.143703
503 2 15.3498 32.2972 1.48671 15.3498 32.2972 1.48671
504 2 15.3485 32.3178 -1.77536 15.3485 32.3178 -1.77536
505 1 16.3002 30.6614 -0.15515 16.3002 30.6614 -0.15515
506 2 18.2002 30.6561 1.47781 18.2002 30.6561 1.47781
507 2 18.2034 30.668 -1.78431 18.2034 30.668 -1.78431
508 1 19.1531 32.3084 -0.146198 19.1531 32.3084 -0.146198
509 2 21.0517 32.2995 1.48829 21.0517 32.2995 1.48829
510 2 21.0577 32.3185 -1.77382 21.0577 32.3185 -1.77382
511 1 22.0054 30.6627 -0.150672 22.0054 30.6627 -0.150672
512 2 23.9026 30.658 1.48546 23.9026 30.658 1.48546
513 2 23.9114 30.6686 -1.77665 23.9114 30.6686 -1.77665
514 1 24.8584 32.3096 -0.137746 24.8584 32.3096 -0.137746
515 2 26.7593 32.3022 1.49378 26.7593 32.3022 1.49378
516 2 26.7607 32.3184 -1.76833 26.7607 32.3184 -1.76833
517 1 27.7108 30.6641 -0.145166 27.7108 30.6641 -0.145166
518 2 29.6093 30.6632 1.48947 29.6093 30.6632 1.48947
519 2 29.6155 30.6664 -1.77267 29.6155 30.6664 -1.77267
520 1 30.5637 32.3111 -0.138302 30.5637 32.3111 -0.138302
521 2 32.4581 32.303 1.50097 32.4581 32.303 1.50097
522 2 32.4723 32.3204 -1.76112 32.4723 32.3204 -1.76112
523 1 33.416 30.6654 -0.134565 33.416 30.6654 -0.134565
524 2 35.3113 30.6636 1.50387 35.3113 30.6636 1.50387
525 2 35.3238 30.6683 -1.75825 35.3238 30.6683 -1.75825
526 1 36.2688 32.3123 -0.121039 36.2688 32.3123 -0.121039
527 2 38.17 32.3118 1.51042 38.17 32.3118 1.51042
528 2 38.1706 32.3142 -1.75174 38.1706 32.3142 -1.75174
529 1 39.1211 30.6667 -0.121546 39.1211 30.6667 -0.121546
530 2 41.0354 30.6685 1.49472 41.0354 30.6685 1.49472
531 2 41.0101 30.6665 -1.76767 41.0101 30.6665 -1.76767
532 1 41.9731 32.3138 -0.145132 41.9731 32.3138 -0.145132
533 2 43.8811 32.3084 1.4186 43.8811 32.3084 1.4186
534 2 43.8225 32.3197 -1.77768 43.8225 32.3197 -1.77768
535 1 44.8924 30.6675 -0.204063 44.8924 30.6675 -0.204063
536 2 -5.21778 30.6631 1.11454 64.3952 30.6631 1.11454