ITEM: TIMESTEP
2759000
ITEM: NUMBER OF ATOMS
810
ITEM: BOX BOUNDS pp pp pp
-6.2126968282331845e+00 5.9230301828232250e+01
8.1394622342039402e-01 5.0202268776579182e+01
-1.0000000000000000e+01 1.0000000000000000e+01
ITEM: ATOMS id type x y z xu yu zu
1 1 -5.91423 1.02714 -0.171024 -5.91423 1.02714 -0.171024
2 2 -3.46258 1.02568 1.43701 -3.46258 1.02568 1.43701
3 2 -3.45805 1.02784 -1.77192 -3.45805 1.02784 -1.77192
4 1 -2.27739 2.67276 -0.164757 -2.27739 2.67276 -0.164757
5 2 0.175937 2.67144 1.44093 0.175937 2.67144 1.44093
6 2 0.177591 2.67357 -1.76803 0.177591 2.67357 -1.76803
7 1 1.35909 1.02618 -0.164142 1.35909 1.02618 -0.164142
8 2 3.81259 1.02729 1.44058 3.81259 1.02729 1.44058
9 2 3.81282 1.02475 -1.76834 3.81282 1.02475 -1.76834
10 1 4.99569 2.67207 -0.165113 4.99569 2.67207 -0.165113
11 2 7.44985 2.67485 1.43767 7.44985 2.67485 1.43767
12 2 7.44782 2.66947 -1.77123 7.44782 2.66947 -1.77123
13 1 8.63114 1.02584 -0.164907 8.63114 1.02584 -0.164907
14 2 11.0861 1.03084 1.43682 11.0861 1.03084 1.43682
15 2 11.0823 1.02134 -1.77205 11.0823 1.02134 -1.77205
16 1 12.267 2.67237 -0.173848 12.267 2.67237 -0.173848
17 2 14.722 2.67773 1.42693 14.722 2.67773 1.42693
18 2 14.7174 2.66828 -1.7819 14.7174 2.66828 -1.7819
19 1 15.9019 1.02668 -0.174322 15.9019 1.02668 -0.174322
20 2 18.3571 1.03166 1.42613 18.3571 1.03166 1.42613
21 2 18.3519 1.02328 -1.78269 18.3519 1.02328 -1.78269
22 1 19.5374 2.67388 -0.184488 19.5374 2.67388 -0.184488
23 2 21.9923 2.67775 1.4166 21.9923 2.67775 1.4166
24 2 21.9881 2.67171 -1.79225 21.9881 2.67171 -1.79225
25 1 23.1724 1.02837 -0.186405 23.1724 1.02837 -0.186405
26 2 25.6285 1.03025 1.41254 25.6285 1.03025 1.41254
27 2 25.6212 1.02799 -1.79631 25.6212 1.02799 -1.79631
28 1 26.8077 2.67547 -0.195657 26.8077 2.67547 -0.195657
29 2 29.2615 2.67448 1.40647 29.2615 2.67448 1.40647
30 2 29.2589 2.67786 -1.80238 29.2589 2.67786 -1.80238
31 1 30.4424 1.02978 -0.200677 30.4424 1.02978 -0.200677
32 2 32.8972 1.02776 1.40102 32.8972 1.02776 1.40102
33 2 32.894 1.03289 -1.80782 32.894 1.03289 -1.80782
34 1 34.0784 2.6767 -0.201943 34.0784 2.6767 -0.201943
35 2 36.532 2.67218 1.40169 36.532 2.67218 1.40169
36 2 36.5313 2.68208 -1.80715 36.5313 2.68208 -1.80715
37 1 37.7141 1.0307 -0.208097 37.7141 1.0307 -0.208097
38 2 40.1668 1.02653 1.39628 40.1668 1.02653 1.39628
39 2 40.1673 1.03494 -1.81256 40.1673 1.03494 -1.81256
40 1 41.3496 2.67706 -0.20361 41.3496 2.67706 -0.20361
41 2 43.8005 2.67052 1.40368 43.8005 2.67052 1.40368
42 2 43.805 2.68301 -1.80515 43.805 2.68301 -1.80515
43 1 44.9852 1.0302 -0.205552 44.9852 1.0302 -0.205552
44 2 47.4347 1.02632 1.40405 47.4347 1.02632 1.40405
45 2 47.4422 1.03277 -1.80479 47.4422 1.03277 -1.80479
46 1 48.621 2.67577 -0.19428 48.621 2.67577 -0.19428
47 2 51.0689 2.66881 1.41726 51.0689 2.66881 1.41726
48 2 51.0789 2.68126 -1.7916 51.0789 2.68126 -1.7916
49 1 52.2565 1.02855 -0.189936 52.2565 1.02855 -0.189936
50 2 54.7047 1.02528 1.42194 54.7047 1.02528 1.42194
51 2 54.7148 1.03046 -1.78693 54.7148 1.03046 -1.78693
52 1 55.8924 2.67395 -0.176151 55.8924 2.67395 -0.176151
53 2 58.3424 2.67024 1.43409 58.3424 2.67024 1.43409
54 2 58.3502 2.67675 -1.77484 58.3502 2.67675 -1.77484
55 1 -5.91367 4.31946 -0.16428 -5.91367 4.31946 -0.16428
56 2 -3.46119 4.3153 1.4426 -3.46119 4.3153 1.4426
57 2 -3.45805 4.32302 -1.76632 -3.45805 4.32302 -1.76632
58 1 -2.27632 5.96505 -0.156901 -2.27632 5.96505 -0.156901
59 2 0.179124 5.96254 1.44593 0.179124 5.96254 1.44593
60 2 0.176647 5.96724 -1.76302 0.176647 5.96724 -1.76302
61 1 1.35992 4.31845 -0.161925 1.35992 4.31845 -0.161925
62 2 3.81473 4.31808 1.44067 3.81473 4.31808 1.44067
63 2 3.81227 4.3188 -1.76824 3.81227 4.3188 -1.76824
64 1 4.99665 5.96451 -0.164426 4.99665 5.96451 -0.164426
65 2 7.45318 5.96665 1.43476 7.45318 5.96665 1.43476
66 2 7.44619 5.96279 -1.77413 7.44619 5.96279 -1.77413
67 1 8.6318 4.31833 -0.170375 8.6318 4.31833 -0.170375
68 2 11.0879 4.3221 1.42937 11.0879 4.3221 1.42937
69 2 11.0818 4.31534 -1.7795 11.0818 4.31534 -1.7795
70 1 12.2679 5.96497 -0.180749 12.2679 5.96497 -0.180749
71 2 14.7233 5.96871 1.41933 14.7233 5.96871 1.41933
72 2 14.7178 5.96271 -1.78952 14.7178 5.96271 -1.78952
73 1 15.9026 4.31936 -0.183997 15.9026 4.31936 -0.183997
74 2 18.3569 4.32369 1.41765 18.3569 4.32369 1.41765
75 2 18.3537 4.31677 -1.79119 18.3537 4.31677 -1.79119
76 1 19.5383 5.96659 -0.191514 19.5383 5.96659 -0.191514
77 2 21.9926 5.96961 1.41077 21.9926 5.96961 1.41077
78 2 21.9899 5.96531 -1.7981 21.9899 5.96531 -1.7981
79 1 23.1733 4.32107 -0.192443 23.1733 4.32107 -0.192443
80 2 25.627 4.32153 1.40998 25.627 4.32153 1.40998
81 2 25.6245 4.32225 -1.79889 25.6245 4.32225 -1.79889
82 1 26.8089 5.96817 -0.19499 26.8089 5.96817 -0.19499
83 2 29.2609 5.96597 1.40997 29.2609 5.96597 1.40997
84 2 29.2618 5.97187 -1.79889 29.2618 5.97187 -1.79889
85 1 30.4433 4.32247 -0.197203 30.4433 4.32247 -0.197203
86 2 32.8963 4.31883 1.40696 32.8963 4.31883 1.40696
87 2 32.8962 4.32741 -1.80189 32.8962 4.32741 -1.80189
88 1 34.0793 5.96938 -0.193096 34.0793 5.96938 -0.193096
89 2 36.5311 5.96263 1.41305 36.5311 5.96263 1.41305
90 2 36.5337 5.97714 -1.79579 36.5337 5.97714 -1.79579
91 1 37.7145 4.32342 -0.197913 37.7145 4.32342 -0.197913
92 2 40.1663 4.31587 1.4079 40.1663 4.31587 1.4079
93 2 40.1685 4.33132 -1.80093 40.1685 4.33132 -1.80093
94 1 41.3504 5.96973 -0.187767 41.3504 5.96973 -0.187767
95 2 43.801 5.95958 1.42016 43.801 5.95958 1.42016
96 2 43.8059 5.97951 -1.78864 43.8059 5.97951 -1.78864
97 1 44.9855 4.32291 -0.19266 44.9855 4.32291 -0.19266
98 2 47.4351 4.31335 1.41677 47.4351 4.31335 1.41677
99 2 47.4422 4.33139 -1.79204 47.4422 4.33139 -1.79204
100 1 48.6217 5.96836 -0.175803 48.6217 5.96836 -0.175803
101 2 51.0711 5.95882 1.43386 51.0711 5.95882 1.43386
102 2 51.0781 5.97658 -1.77498 51.0781 5.97658 -1.77498
103 1 52.2567 4.32108 -0.177213 52.2567 4.32108 -0.177213
104 2 54.7066 4.31376 1.43259 54.7066 4.31376 1.43259
105 2 54.7137 4.32714 -1.77626 54.7137 4.32714 -1.77626
106 1 55.8933 5.96637 -0.162426 55.8933 5.96637 -0.162426
107 2 58.3454 5.96015 1.4449 58.3454 5.96015 1.4449
108 2 58.3491 5.97176 -1.76402 58.3491 5.97176 -1.76402
109 1 -5.91241 7.61183 -0.152308 -5.91241 7.61183 -0.152308
110 2 -3.4582 7.60734 1.45211 -3.4582 7.60734 1.45211
111 2 -3.45836 7.61579 -1.75681 -3.45836 7.61579 -1.75681
112 1 -2.27485 9.25747 -0.148139 -2.27485 9.25747 -0.148139
113 2 0.182092 9.25492 1.45204 0.182092 9.25492 1.45204
114 2 0.176409 9.25982 -1.75689 0.176409 9.25982 -1.75689
115 1 1.36118 7.61086 -0.157111 1.36118 7.61086 -0.157111
116 2 3.81787 7.61098 1.44249 3.81787 7.61098 1.44249
117 2 3.8114 7.61092 -1.76641 3.8114 7.61092 -1.76641
118 1 4.99783 9.25705 -0.164428 4.99783 9.25705 -0.164428
119 2 7.4556 9.25843 1.43263 7.4556 9.25843 1.43263
120 2 7.44599 9.25622 -1.77625 7.44599 9.25622 -1.77625
121 1 8.63278 7.61089 -0.174224 8.63278 7.61089 -0.174224
122 2 11.0898 7.61378 1.42408 11.0898 7.61378 1.42408
123 2 11.0819 7.60894 -1.78479 11.0819 7.60894 -1.78479
124 1 12.2689 9.25762 -0.185722 12.2689 9.25762 -0.185722
125 2 14.7248 9.26167 1.41336 14.7248 9.26167 1.41336
126 2 14.7181 9.2551 -1.7955 14.7181 9.2551 -1.7955
127 1 15.9035 7.61205 -0.19016 15.9035 7.61205 -0.19016
128 2 18.3585 7.61665 1.41075 18.3585 7.61665 1.41075
129 2 18.354 7.60923 -1.7981 18.354 7.60923 -1.7981
130 1 19.5393 9.25926 -0.198956 19.5393 9.25926 -0.198956
131 2 21.9921 9.262 1.4055 21.9921 9.262 1.4055
132 2 21.9925 9.25824 -1.80338 21.9925 9.25824 -1.80338
133 1 23.1743 7.61376 -0.196759 23.1743 7.61376 -0.196759
134 2 25.6259 7.61419 1.40909 25.6259 7.61419 1.40909
135 2 25.628 7.61498 -1.7998 25.628 7.61498 -1.7998
136 1 26.8101 9.26084 -0.194124 26.8101 9.26084 -0.194124
137 2 29.2597 9.25832 1.4146 29.2597 9.25832 1.4146
138 2 29.2654 9.26485 -1.79428 29.2654 9.26485 -1.79428
139 1 30.4445 7.61516 -0.191098 30.4445 7.61516 -0.191098
140 2 32.8954 7.6097 1.41621 32.8954 7.6097 1.41621
141 2 32.8993 7.62195 -1.79264 32.8993 7.62195 -1.79264
142 1 34.0806 9.26199 -0.1805 34.0806 9.26199 -0.1805
143 2 36.5306 9.25341 1.42859 36.5306 9.25341 1.42859
144 2 36.5366 9.27163 -1.78024 36.5366 9.27163 -1.78024
145 1 37.7155 7.61604 -0.182969 37.7155 7.61604 -0.182969
146 2 40.1658 7.60605 1.42525 40.1658 7.60605 1.42525
147 2 40.171 7.62652 -1.78357 40.171 7.62652 -1.78357
148 1 41.3517 9.26224 -0.166719 41.3517 9.26224 -0.166719
149 2 43.8018 9.25014 1.4423 43.8018 9.25014 1.4423
150 2 43.8079 9.27412 -1.76649 43.8079 9.27412 -1.76649
151 1 44.9867 7.61549 -0.172154 44.9867 7.61549 -0.172154
152 2 47.4364 7.60423 1.43725 47.4364 7.60423 1.43725
153 2 47.4432 7.62584 -1.77155 47.4432 7.62584 -1.77155
154 1 48.6231 9.26086 -0.153595 48.6231 9.26086 -0.153595
155 2 51.0737 9.24992 1.45448 51.0737 9.24992 1.45448
156 2 51.0785 9.27063 -1.75436 51.0785 9.27063 -1.75436
157 1 52.2578 7.61357 -0.158893 52.2578 7.61357 -0.158893
158 2 54.7091 7.60457 1.44903 54.7091 7.60457 1.44903
159 2 54.7137 7.6214 -1.75981 54.7137 7.6214 -1.75981
160 1 55.8948 9.25883 -0.145144 55.8948 9.25883 -0.145144
161 2 58.3484 9.25077 1.45986 58.3484 9.25077 1.45986
162 2 58.3491 9.26609 -1.74904 58.3491 9.26609 -1.74904
163 1 -5.91076 10.9043 -0.136632 -5.91076 10.9043 -0.136632
164 2 -3.4538 10.8991 1.46361 -3.4538 10.8991 1.46361
165 2 -3.45965 10.909 -1.74528 -3.45965 10.909 -1.74528
166 1 -2.27333 12.55 -0.137995 -2.27333 12.55 -0.137995
167 2 0.185481 12.547 1.45905 0.185481 12.547 1.45905
168 2 0.175597 12.5529 -1.74985 0.175597 12.5529 -1.74985
169 1 1.36251 10.9034 -0.152117 1.36251 10.9034 -0.152117
170 2 3.8208 10.9026 1.44472 3.8208 10.9026 1.44472
171 2 3.81087 10.9045 -1.76417 3.81087 10.9045 -1.76417
172 1 4.99894 12.5497 -0.162457 4.99894 12.5497 -0.162457
173 2 7.45797 12.5498 1.43259 7.45797 12.5498 1.43259
174 2 7.44574 12.5501 -1.77627 7.44574 12.5501 -1.77627
175 1 8.6339 10.9035 -0.176462 8.6339 10.9035 -0.176462
176 2 11.0915 10.9056 1.42051 11.0915 10.9056 1.42051
177 2 11.0821 10.9024 -1.78836 11.0821 10.9024 -1.78836
178 1 12.2698 12.5503 -0.189007 12.2698 12.5503 -0.189007
179 2 14.7265 12.5529 1.40875 14.7265 12.5529 1.40875
180 2 14.7181 12.5492 -1.80012 14.7181 12.5492 -1.80012
181 1 15.9044 10.9047 -0.196806 15.9044 10.9047 -0.196806
182 2 18.3591 10.9079 1.40437 18.3591 10.9079 1.40437
183 2 18.3553 10.9033 -1.8045 18.3553 10.9033 -1.8045
184 1 19.5402 12.5519 -0.20368 19.5402 12.5519 -0.20368
185 2 21.9922 12.5536 1.40206 21.9922 12.5536 1.40206
186 2 21.9945 12.5519 -1.80684 21.9945 12.5519 -1.80684
187 1 23.1754 10.9064 -0.200564 23.1754 10.9064 -0.200564
188 2 25.6251 10.9071 1.40818 25.6251 10.9071 1.40818
189 2 25.6311 10.9073 -1.80072 25.6311 10.9073 -1.80072
190 1 26.8111 12.5534 -0.193827 26.8111 12.5534 -0.193827
191 2 29.2582 12.5514 1.41885 29.2582 12.5514 1.41885
192 2 29.2692 12.5569 -1.79003 29.2692 12.5569 -1.79003
193 1 30.4457 10.9078 -0.184366 30.4457 10.9078 -0.184366
194 2 32.8944 10.9026 1.42678 32.8944 10.9026 1.42678
195 2 32.9029 10.9143 -1.78208 32.9029 10.9143 -1.78208
196 1 34.0819 12.5545 -0.168423 34.0819 12.5545 -0.168423
197 2 36.5301 12.5477 1.44399 36.5301 12.5477 1.44399
198 2 36.5402 12.5623 -1.76487 36.5402 12.5623 -1.76487
199 1 37.7169 10.9085 -0.164241 37.7169 10.9085 -0.164241
200 2 40.1664 10.8984 1.44576 40.1664 10.8984 1.44576
201 2 40.1734 10.9191 -1.76308 40.1734 10.9191 -1.76308
202 1 41.3533 12.5547 -0.145431 41.3533 12.5547 -0.145431
203 2 43.8028 12.5439 1.46502 43.8028 12.5439 1.46502
204 2 43.8103 12.5652 -1.74382 43.8103 12.5652 -1.74382
205 1 44.9883 10.9079 -0.147607 44.9883 10.9079 -0.147607
206 2 47.4389 10.8961 1.46081 47.4389 10.8961 1.46081
207 2 47.4439 10.919 -1.748 47.4439 10.919 -1.748
208 1 48.6248 12.5533 -0.130012 48.6248 12.5533 -0.130012
209 2 51.0768 12.5427 1.4764 51.0768 12.5427 1.4764
210 2 51.0789 12.5628 -1.73246 51.0789 12.5628 -1.73246
211 1 52.2595 10.9061 -0.137582 52.2595 10.9061 -0.137582
212 2 54.7122 10.8962 1.46829 54.7122 10.8962 1.46829
213 2 54.7139 10.9148 -1.74054 54.7139 10.9148 -1.74054
214 1 55.8966 12.5513 -0.126035 55.8966 12.5513 -0.126035
215 2 58.3524 12.5446 1.47585 58.3524 12.5446 1.47585
216 2 58.3486 12.5573 -1.73305 58.3486 12.5573 -1.73305
217 1 -5.909 14.1969 -0.123617 -5.909 14.1969 -0.123617
218 2 -3.45048 14.1927 1.474 -3.45048 14.1927 1.474
219 2 -3.45997 14.2006 -1.73487 -3.45997 14.2006 -1.73487
220 1 -2.27199 15.8427 -0.129966 -2.27199 15.8427 -0.129966
221 2 0.188343 15.8416 1.46443 0.188343 15.8416 1.46443
222 2 0.17482 15.8437 -1.74444 0.17482 15.8437 -1.74444
223 1 1.36366 14.1961 -0.146098 1.36366 14.1961 -0.146098
224 2 3.82382 14.1954 1.44789 3.82382 14.1954 1.44789
225 2 3.80989 14.197 -1.76097 3.80989 14.197 -1.76097
226 1 4.99981 15.8424 -0.16087 4.99981 15.8424 -0.16087
227 2 7.45983 15.8436 1.43255 7.45983 15.8436 1.43255
228 2 7.44549 15.8417 -1.7763 7.44549 15.8417 -1.7763
229 1 8.63483 14.1962 -0.176195 8.63483 14.1962 -0.176195
230 2 11.0939 14.1979 1.41865 11.0939 14.1979 1.41865
231 2 11.0814 14.1954 -1.79021 11.0814 14.1954 -1.79021
232 1 12.2705 15.843 -0.191563 12.2705 15.843 -0.191563
233 2 14.7274 15.8448 1.40579 14.7274 15.8448 1.40579
234 2 14.7185 15.8424 -1.80308 14.7185 15.8424 -1.80308
235 1 15.9052 14.1973 -0.200538 15.9052 14.1973 -0.200538
236 2 18.3598 14.1993 1.40078 18.3598 14.1993 1.40078
237 2 18.3562 14.197 -1.80811 18.3562 14.197 -1.80811
238 1 19.541 15.8444 -0.205975 19.541 15.8444 -0.205975
239 2 21.9928 15.846 1.4002 21.9928 15.846 1.4002
240 2 21.9955 15.8444 -1.80872 21.9955 15.8444 -1.80872
241 1 23.1763 14.199 -0.202257 23.1763 14.199 -0.202257
242 2 25.625 14.1992 1.4081 25.625 14.1992 1.4081
243 2 25.6331 14.2003 -1.8008 25.6331 14.2003 -1.8008
244 1 26.812 15.846 -0.192597 26.812 15.846 -0.192597
245 2 29.2575 15.8446 1.42261 29.2575 15.8446 1.42261
246 2 29.2718 15.8486 -1.78629 29.2718 15.8486 -1.78629
247 1 30.4468 14.2004 -0.178628 30.4468 14.2004 -0.178628
248 2 32.8933 14.1961 1.4361 32.8933 14.1961 1.4361
249 2 32.9066 14.2058 -1.77277 32.9066 14.2058 -1.77277
250 1 34.0832 15.847 -0.158455 34.0832 15.847 -0.158455
251 2 36.5301 15.8415 1.45646 36.5301 15.8415 1.45646
252 2 36.5433 15.8534 -1.75242 36.5433 15.8534 -1.75242
253 1 37.7186 14.201 -0.149165 37.7186 14.201 -0.149165
254 2 40.1663 14.1929 1.46365 40.1663 14.1929 1.46365
255 2 40.1769 14.2095 -1.74522 40.1769 14.2095 -1.74522
256 1 41.355 15.8471 -0.128345 41.355 15.8471 -0.128345
257 2 43.8037 15.8393 1.48332 43.8037 15.8393 1.48332
258 2 43.8126 15.8546 -1.72555 43.8126 15.8546 -1.72555
259 1 44.99 14.2004 -0.12574 44.99 14.2004 -0.12574
260 2 47.4408 14.1904 1.48265 47.4408 14.1904 1.48265
261 2 47.4453 14.2096 -1.7262 47.4453 14.2096 -1.7262
262 1 48.6265 15.8458 -0.110292 48.6265 15.8458 -0.110292
263 2 51.0795 15.8381 1.4948 51.0795 15.8381 1.4948
264 2 51.0797 15.8524 -1.71408 51.0797 15.8524 -1.71408
265 1 52.2613 14.1986 -0.116971 52.2613 14.1986 -0.116971
266 2 54.7161 14.1915 1.48609 54.7161 14.1915 1.48609
267 2 54.7137 14.2046 -1.72277 54.7137 14.2046 -1.72277
268 1 55.8983 15.8439 -0.112501 55.8983 15.8439 -0.112501
269 2 58.3555 15.8399 1.48712 58.3555 15.8399 1.48712
270 2 58.3488 15.8472 -1.72177 58.3488 15.8472 -1.72177
271 1 -5.90753 17.4896 -0.116089 -5.90753 17.4896 -0.116089
272 2 -3.44883 17.4873 1.48052 -3.44883 17.4873 1.48052
273 2 -3.45925 17.4914 -1.72833 -3.45925 17.4914 -1.72833
274 1 -2.27103 19.1355 -0.125762 -2.27103 19.1355 -0.125762
275 2 0.190413 19.1351 1.46666 0.190413 19.1351 1.46666
276 2 0.174313 19.1356 -1.74219 0.174313 19.1356 -1.74219
277 1 1.36454 17.4889 -0.14392 1.36454 17.4889 -0.14392
278 2 3.82516 17.489 1.44893 3.82516 17.489 1.44893
279 2 3.81009 17.4887 -1.7599 3.81009 17.4887 -1.7599
280 1 5.00048 19.1352 -0.161227 5.00048 19.1352 -0.161227
281 2 7.4608 19.1357 1.43149 7.4608 19.1357 1.43149
282 2 7.44565 19.135 -1.77735 7.44565 19.135 -1.77735
283 1 8.6355 17.4889 -0.178079 8.6355 17.4889 -0.178079
284 2 11.0945 17.4901 1.41651 11.0945 17.4901 1.41651
285 2 11.082 17.4884 -1.79235 11.082 17.4884 -1.79235
286 1 12.271 19.1356 -0.193346 12.271 19.1356 -0.193346
287 2 14.7278 19.1366 1.404 14.7278 19.1366 1.404
288 2 14.719 19.1356 -1.80489 14.719 19.1356 -1.80489
289 1 15.9058 17.4899 -0.203017 15.9058 17.4899 -0.203017
290 2 18.3603 17.4916 1.3985 18.3603 17.4916 1.3985
291 2 18.357 17.4897 -1.8104 18.357 17.4897 -1.8104
292 1 19.5415 19.1369 -0.207974 19.5415 19.1369 -0.207974
293 2 21.9926 19.1374 1.39914 21.9926 19.1374 1.39914
294 2 21.9968 19.138 -1.80978 21.9968 19.138 -1.80978
295 1 23.1771 17.4915 -0.203851 23.1771 17.4915 -0.203851
296 2 25.6244 17.4916 1.40839 25.6244 17.4916 1.40839
297 2 25.6352 17.4928 -1.80052 25.6352 17.4928 -1.80052
298 1 26.8126 19.1385 -0.1913 26.8126 19.1385 -0.1913
299 2 29.2572 19.1379 1.42522 29.2572 19.1379 1.42522
300 2 29.2733 19.1402 -1.78366 29.2733 19.1402 -1.78366
301 1 30.4476 17.4928 -0.174393 30.4476 17.4928 -0.174393
302 2 32.8926 17.49 1.44311 32.8926 17.49 1.44311
303 2 32.9095 17.4966 -1.76577 32.9095 17.4966 -1.76577
304 1 34.0841 19.1395 -0.151741 34.0841 19.1395 -0.151741
305 2 36.53 19.1361 1.46535 36.53 19.1361 1.46535
306 2 36.5458 19.1435 -1.74355 36.5458 19.1435 -1.74355
307 1 37.72 17.4934 -0.136986 37.72 17.4934 -0.136986
308 2 40.1669 17.4877 1.4775 40.1669 17.4877 1.4775
309 2 40.1794 17.4994 -1.73139 40.1794 17.4994 -1.73139
310 1 41.3564 19.1395 -0.116349 41.3564 19.1395 -0.116349
311 2 43.8054 19.1357 1.49513 43.8054 19.1357 1.49513
312 2 43.8137 19.143 -1.71377 43.8137 19.143 -1.71377
313 1 44.9915 17.4928 -0.110042 44.9915 17.4928 -0.110042
314 2 47.4423 17.4866 1.49851 47.4423 17.4866 1.49851
315 2 47.4469 17.4982 -1.71038 47.4469 17.4982 -1.71038
316 1 48.6279 19.1383 -0.0983568 48.6279 19.1383 -0.0983568
317 2 51.0817 19.1345 1.50598 51.0817 19.1345 1.50598
318 2 51.0806 19.1411 -1.70293 51.0806 19.1411 -1.70293
319 1 52.2629 17.4911 -0.102327 52.2629 17.4911 -0.102327
320 2 54.719 17.4858 1.49875 54.719 17.4858 1.49875
321 2 54.714 17.4955 -1.71011 54.714 17.4955 -1.71011
322 1 55.8999 19.1366 -0.102679 55.8999 19.1366 -0.102679
323 2 58.3584 19.1336 1.49472 58.3584 19.1336 1.49472
324 2 58.3485 19.1389 -1.71416 58.3485 19.1389 -1.71416
325 1 -5.90648 20.7824 -0.110712 -5.90648 20.7824 -0.110712
326 2 -3.44627 20.7826 1.48341 -3.44627 20.7826 1.48341
327 2 -3.46026 20.7816 -1.72542 -3.46026 20.7816 -1.72542
328 1 -2.27049 22.4283 -0.126673 -2.27049 22.4283 -0.126673
329 2 0.190651 22.429 1.46584 0.190651 22.429 1.46584
330 2 0.17497 22.4272 -1.74301 0.17497 22.4272 -1.74301
331 1 1.36517 20.7816 -0.143472 1.36517 20.7816 -0.143472
332 2 3.82632 20.7823 1.44846 3.82632 20.7823 1.44846
333 2 3.81002 20.7809 -1.76037 3.81002 20.7809 -1.76037
334 1 5.00083 22.4279 -0.162649 5.00083 22.4279 -0.162649
335 2 7.46064 22.4281 1.4306 7.46064 22.4281 1.4306
336 2 7.44634 22.4278 -1.77826 7.44634 22.4278 -1.77826
337 1 8.63594 20.7816 -0.178877 8.63594 20.7816 -0.178877
338 2 11.0951 20.7821 1.41549 11.0951 20.7821 1.41549
339 2 11.0822 20.7816 -1.79338 11.0822 20.7816 -1.79338
340 1 12.2712 22.4282 -0.193872 12.2712 22.4282 -0.193872
341 2 14.7276 22.4277 1.40402 14.7276 22.4277 1.40402
342 2 14.7197 22.4295 -1.80487 14.7197 22.4295 -1.80487
343 1 15.9061 20.7824 -0.204119 15.9061 20.7824 -0.204119
344 2 18.3605 20.7829 1.39756 18.3605 20.7829 1.39756
345 2 18.3575 20.7833 -1.81135 18.3575 20.7833 -1.81135
346 1 19.5417 22.4294 -0.207619 19.5417 22.4294 -0.207619
347 2 21.9919 22.4282 1.40068 21.9919 22.4282 1.40068
348 2 21.9979 22.4319 -1.80824 21.9979 22.4319 -1.80824
349 1 23.1775 20.784 -0.203344 23.1775 20.784 -0.203344
350 2 25.6243 20.7836 1.40966 25.6243 20.7836 1.40966
351 2 25.6361 20.7856 -1.79924 25.6361 20.7856 -1.79924
352 1 26.8128 22.4309 -0.189285 26.8128 22.4309 -0.189285
353 2 29.2571 22.4297 1.42786 29.2571 22.4297 1.42786
354 2 29.274 22.4332 -1.78102 29.274 22.4332 -1.78102
355 1 30.448 20.7853 -0.172015 30.448 20.7853 -0.172015
356 2 32.8921 20.7843 1.44711 32.8921 20.7843 1.44711
357 2 32.9112 20.7871 -1.76177 32.9112 20.7871 -1.76177
358 1 34.0845 22.4319 -0.148809 34.0845 22.4319 -0.148809
359 2 36.5301 22.4319 1.46895 36.5301 22.4319 1.46895
360 2 36.547 22.4323 -1.73994 36.547 22.4323 -1.73994
361 1 37.7209 20.7858 -0.129482 37.7209 20.7858 -0.129482
362 2 40.168 20.7843 1.4852 40.168 20.7843 1.4852
363 2 40.1806 20.7875 -1.72371 40.1806 20.7875 -1.72371
364 1 41.3572 22.4319 -0.112937 41.3572 22.4319 -0.112937
365 2 43.8058 22.4311 1.49919 43.8058 22.4311 1.49919
366 2 43.8153 22.4324 -1.70972 43.8153 22.4324 -1.70972
367 1 44.9927 20.7853 -0.102524 44.9927 20.7853 -0.102524
368 2 47.4438 20.7837 1.50578 47.4438 20.7837 1.50578
369 2 47.4481 20.786 -1.70314 47.4481 20.786 -1.70314
370 1 48.6291 22.4308 -0.0960009 48.6291 22.4308 -0.0960009
371 2 51.0826 22.4308 1.50864 51.0826 22.4308 1.50864
372 2 51.0822 22.4298 -1.70028 51.0822 22.4298 -1.70028
373 1 52.2644 20.7837 -0.095542 52.2644 20.7837 -0.095542
374 2 54.7209 20.7824 1.50493 54.7209 20.7824 1.50493
375 2 54.7149 20.7842 -1.70393 54.7149 20.7842 -1.70393
376 1 55.901 22.4293 -0.100832 55.901 22.4293 -0.100832
377 2 58.359 22.4296 1.49668 58.359 22.4296 1.49668
378 2 58.3495 22.4283 -1.71219 58.3495 22.4283 -1.71219
379 1 -5.90598 24.0752 -0.112044 -5.90598 24.0752 -0.112044
380 2 -3.44569 24.0761 1.48171 -3.44569 24.0761 1.48171
381 2 -3.46016 24.0735 -1.72711 -3.46016 24.0735 -1.72711
382 1 -2.27036 25.7211 -0.129463 -2.27036 25.7211 -0.129463
383 2 0.190727 25.7228 1.46299 0.190727 25.7228 1.46299
384 2 0.174875 25.7189 -1.74585 0.174875 25.7189 -1.74585
385 1 1.36538 24.0744 -0.145277 1.36538 24.0744 -0.145277
386 2 3.82621 24.0749 1.44691 3.82621 24.0749 1.44691
387 2 3.81036 24.0736 -1.76192 3.81036 24.0736 -1.76192
388 1 5.00072 25.7206 -0.163999 5.00072 25.7206 -0.163999
389 2 7.45951 25.7196 1.43065 7.45951 25.7196 1.43065
390 2 7.44711 25.7215 -1.77822 7.44711 25.7215 -1.77822
391 1 8.63599 24.0743 -0.179307 8.63599 24.0743 -0.179307
392 2 11.0942 24.0728 1.4162 11.0942 24.0728 1.4162
393 2 11.083 24.0759 -1.79269 11.083 24.0759 -1.79269
394 1 12.271 25.7207 -0.190764 12.271 25.7207 -0.190764
395 2 14.7266 25.7171 1.40835 14.7266 25.7171 1.40835
396 2 14.7202 25.7249 -1.80054 14.7202 25.7249 -1.80054
397 1 15.9062 24.0749 -0.202344 15.9062 24.0749 -0.202344
398 2 18.3596 24.072 1.40058 18.3596 24.072 1.40058
399 2 18.3584 24.0789 -1.80832 18.3584 24.0789 -1.80832
400 1 19.5415 25.7218 -0.200697 19.5415 25.7218 -0.200697
401 2 21.9924 25.7189 1.40673 21.9924 25.7189 1.40673
402 2 21.9969 25.7259 -1.80219 21.9969 25.7259 -1.80219
403 1 23.1775 24.0764 -0.199541 23.1775 24.0764 -0.199541
404 2 25.6245 24.0747 1.41317 25.6245 24.0747 1.41317
405 2 25.6358 24.0793 -1.79573 25.6358 24.0793 -1.79573
406 1 26.8126 25.7234 -0.184606 26.8126 25.7234 -0.184606
407 2 29.2577 25.7226 1.43146 29.2577 25.7226 1.43146
408 2 29.2732 25.7251 -1.77742 29.2732 25.7251 -1.77742
409 1 30.4482 24.0777 -0.168467 30.4482 24.0777 -0.168467
410 2 32.8932 24.0777 1.44949 32.8932 24.0777 1.44949
411 2 32.9107 24.0784 -1.75939 32.9107 24.0784 -1.75939
412 1 34.0846 25.7243 -0.148182 34.0846 25.7243 -0.148182
413 2 36.5315 25.7269 1.46759 36.5315 25.7269 1.46759
414 2 36.5459 25.722 -1.74131 36.5459 25.722 -1.74131
415 1 37.7213 24.0783 -0.129094 37.7213 24.0783 -0.129094
416 2 40.1685 24.0795 1.48555 40.1685 24.0795 1.48555
417 2 40.1811 24.077 -1.72336 40.1811 24.077 -1.72336
418 1 41.3576 25.7244 -0.115575 41.3576 25.7244 -0.115575
419 2 43.8064 25.7271 1.49669 43.8064 25.7271 1.49669
420 2 43.8159 25.7211 -1.71223 43.8159 25.7211 -1.71223
421 1 44.9935 24.0777 -0.101234 44.9935 24.0777 -0.101234
422 2 47.4452 24.0778 1.50663 47.4452 24.0778 1.50663
423 2 47.4488 24.0768 -1.70229 47.4488 24.0768 -1.70229
424 1 48.6299 25.7233 -0.0971878 48.6299 25.7233 -0.0971878
425 2 51.0845 25.7259 1.50584 51.0845 25.7259 1.50584
426 2 51.0817 25.7197 -1.70307 51.0817 25.7197 -1.70307
427 1 52.2654 24.0763 -0.0965036 52.2654 24.0763 -0.0965036
428 2 54.7216 24.0776 1.50397 54.7216 24.0776 1.50397
429 2 54.7159 24.0742 -1.70488 54.7159 24.0742 -1.70488
430 1 55.9015 25.7221 -0.104454 55.9015 25.7221 -0.104454
431 2 58.3596 25.725 1.49274 58.3596 25.725 1.49274
432 2 58.3496 25.7184 -1.71611 58.3496 25.7184 -1.71611
433 1 -5.90587 27.368 -0.118844 -5.90587 27.368 -0.118844
434 2 -3.44685 27.3707 1.47634 -3.44685 27.3707 1.47634
435 2 -3.45912 27.3644 -1.73249 -3.45912 27.3644 -1.73249
436 1 -2.27062 29.0139 -0.135882 -2.27062 29.0139 -0.135882
437 2 0.189065 29.0152 1.45836 0.189065 29.0152 1.45836
438 2 0.175722 29.0119 -1.7505 0.175722 29.0119 -1.7505
439 1 1.36516 27.3672 -0.149238 1.36516 27.3672 -0.149238
440 2 3.82449 27.3671 1.44498 3.82449 27.3671 1.44498
441 2 3.81148 27.3667 -1.76386 3.81148 27.3667 -1.76386
442 1 5.00023 29.0133 -0.164427 5.00023 29.0133 -0.164427
443 2 7.4572 29.0105 1.43293 7.4572 29.0105 1.43293
444 2 7.44832 29.0156 -1.77595 7.44832 29.0156 -1.77595
445 1 8.63562 27.3669 -0.17738 8.63562 27.3669 -0.17738
446 2 11.0925 27.3634 1.42023 11.0925 27.3634 1.42023
447 2 11.0839 27.3702 -1.78866 11.0839 27.3702 -1.78866
448 1 12.2704 29.0132 -0.183849 12.2704 29.0132 -0.183849
449 2 14.7249 29.0078 1.41716 14.7249 29.0078 1.41716
450 2 14.7207 29.0189 -1.79172 14.7207 29.0189 -1.79172
451 1 15.9058 27.3674 -0.194337 15.9058 27.3674 -0.194337
452 2 18.3588 27.3624 1.40936 18.3588 27.3624 1.40936
453 2 18.3584 27.3732 -1.79953 18.3584 27.3732 -1.79953
454 1 19.5409 29.0143 -0.1896 19.5409 29.0143 -0.1896
455 2 21.9929 29.0095 1.41651 21.9929 29.0095 1.41651
456 2 21.9952 29.0201 -1.79239 21.9952 29.0201 -1.79239
457 1 23.177 27.3688 -0.192272 23.177 27.3688 -0.192272
458 2 25.6248 27.3662 1.41929 25.6248 27.3662 1.41929
459 2 25.6347 27.3725 -1.78961 25.6347 27.3725 -1.78961
460 1 26.812 29.0158 -0.178166 26.812 29.0158 -0.178166
461 2 29.2592 29.0154 1.43506 29.2592 29.0154 1.43506
462 2 29.2708 29.0171 -1.77384 29.2708 29.0171 -1.77384
463 1 30.4479 27.3702 -0.165938 30.4479 27.3702 -0.165938
464 2 32.8944 27.3714 1.44988 32.8944 27.3714 1.44988
465 2 32.9093 27.3695 -1.75901 32.9093 27.3695 -1.75901
466 1 34.0842 29.0168 -0.150019 34.0842 29.0168 -0.150019
467 2 36.5325 29.0191 1.46371 36.5325 29.0191 1.46371
468 2 36.5443 29.0146 -1.7452 36.5443 29.0146 -1.7452
469 1 37.7213 27.3707 -0.133982 37.7213 27.3707 -0.133982
470 2 40.1685 27.3742 1.48047 40.1685 27.3742 1.48047
471 2 40.1813 27.367 -1.72844 40.1813 27.367 -1.72844
472 1 41.3574 29.0168 -0.122981 41.3574 29.0168 -0.122981
473 2 43.807 29.0222 1.48814 43.807 29.0222 1.48814
474 2 43.8153 29.0107 -1.72076 43.8153 29.0107 -1.72076
475 1 44.9938 27.3702 -0.107439 44.9938 27.3702 -0.107439
476 2 47.4453 27.3747 1.50075 47.4453 27.3747 1.50075
477 2 47.4495 27.3647 -1.70815 47.4495 27.3647 -1.70815
478 1 48.63 29.0159 -0.107362 48.63 29.0159 -0.107362
479 2 51.0837 29.0203 1.49681 51.0837 29.0203 1.49681
480 2 51.0827 29.0103 -1.7121 51.0827 29.0103 -1.7121
481 1 52.2658 27.369 -0.102882 52.2658 27.369 -0.102882
482 2 54.7217 27.3728 1.49776 54.7217 27.3728 1.49776
483 2 54.7164 27.3644 -1.71109 54.7164 27.3644 -1.71109
484 1 55.9015 29.0148 -0.113023 55.9015 29.0148 -0.113023
485 2 58.359 29.0185 1.48479 58.359 29.0185 1.48479
486 2 58.35 29.0103 -1.72408 58.35 29.0103 -1.72408
487 1 -5.9062 30.6607 -0.127238 -5.9062 30.6607 -0.127238
488 2 -3.44799 30.6639 1.46894 -3.44799 30.6639 1.46894
489 2 -3.45894 30.6566 -1.73989 -3.45894 30.6566 -1.73989
490 1 -2.27134 32.3066 -0.143204 -2.27134 32.3066 -0.143204
491 2 0.18609 32.3071 1.4542 0.18609 32.3071 1.4542
492 2 0.177014 32.3054 -1.75469 0.177014 32.3054 -1.75469
493 1 1.36455 30.66 -0.152665 1.36455 30.66 -0.152665
494 2 3.82197 30.6586 1.44437 3.82197 30.6586 1.44437
495 2 3.81261 30.6605 -1.7645 3.81261 30.6605 -1.7645
496 1 4.99934 32.306 -0.162529 4.99934 32.306 -0.162529
497 2 7.45468 32.3026 1.43739 7.45468 32.3026 1.43739
498 2 7.44904 32.3085 -1.77149 7.44904 32.3085 -1.77149
499 1 8.6349 30.6594 -0.17216 8.6349 30.6594 -0.17216
500 2 11.0906 30.6548 1.42736 11.0906 30.6548 1.42736
501 2 11.0843 30.6636 -1.78153 11.0843 30.6636 -1.78153
502 1 12.2695 32.3056 -0.174807 12.2695 32.3056 -0.174807
503 2 14.7231 32.3005 1.42757 14.7231 32.3005 1.42757
504 2 14.7206 32.311 -1.78131 14.7206 32.311 -1.78131
505 1 15.9049 30.6598 -0.183105 15.9049 30.6598 -0.183105
506 2 18.3585 30.6551 1.42035 18.3585 30.6551 1.42035
507 2 18.3572 30.6652 -1.78854 18.3572 30.6652 -1.78854
508 1 19.54 32.3066 -0.17924 19.54 32.3066 -0.17924
509 2 21.9926 32.3033 1.4262 21.9926 32.3033 1.4262
510 2 21.994 32.311 -1.78271 21.994 32.311 -1.78271
511 1 23.1763 30.6612 -0.181545 23.1763 30.6612 -0.181545
512 2 25.6264 30.659 1.427 25.6264 30.659 1.427
513 2 25.6318 30.6645 -1.78191 25.6318 30.6645 -1.78191
514 1 26.8113 32.3082 -0.172496 26.8113 32.3082 -0.172496
515 2 29.2614 32.3105 1.43628 29.2614 32.3105 1.43628
516 2 29.2669 32.3068 -1.77263 29.2669 32.3068 -1.77263
517 1 30.4472 30.6627 -0.164146 30.4472 30.6627 -0.164146
518 2 32.8964 30.6656 1.44799 32.8964 30.6656 1.44799
519 2 32.906 30.6601 -1.76092 32.906 30.6601 -1.76092
520 1 34.0833 32.3093 -0.155618 34.0833 32.3093 -0.155618
521 2 36.5336 32.3164 1.45538 36.5336 32.3164 1.45538
522 2 36.5417 32.3022 -1.75351 36.5417 32.3022 -1.75351
523 1 37.7207 30.6632 -0.138745 37.7207 30.6632 -0.138745
524 2 40.1705 30.6689 1.47238 40.1705 30.6689 1.47238
525 2 40.1786 30.657 -1.73653 40.1786 30.657 -1.73653
526 1 41.3568 32.3093 -0.13519 41.3568 32.3093 -0.13519
527 2 43.8077 32.3176 1.4741 43.8077 32.3176 1.4741
528 2 43.8135 32.3001 -1.73478 43.8135 32.3001 -1.73478
529 1 44.9936 30.6627 -0.11925 44.9936 30.6627 -0.11925
530 2 47.4455 30.6696 1.48827 47.4455 30.6696 1.48827
531 2 47.4488 30.6547 -1.72061 47.4488 30.6547 -1.72061
532 1 48.6294 32.3084 -0.122591 48.6294 32.3084 -0.122591
533 2 51.0822 32.3159 1.48273 51.0822 32.3159 1.48273
534 2 51.0829 32.2997 -1.72616 51.0829 32.2997 -1.72616
535 1 52.2655 30.6616 -0.1133 52.2655 30.6616 -0.1133
536 2 54.7213 30.6668 1.48761 54.7213 30.6668 1.48761
537 2 54.7161 30.6555 -1.72124 54.7161 30.6555 -1.72124