ITEM: TIMESTEP
5821000
ITEM: NUMBER OF ATOMS
810
ITEM: BOX BOUNDS pp pp pp
-1.4065446333919256e+01 6.7083051333918320e+01
8.1394622342039402e-01 5.0202268776579182e+01
-1.0000000000000000e+01 1.0000000000000000e+01
ITEM: ATOMS id type x y z xu yu zu
1 1 -2.89511 1.03456 -0.417133 -2.89511 1.03456 -0.417133
2 2 -1.05085 1.03973 1.27761 -1.05085 1.03973 1.27761
3 2 -0.939099 1.02933 -1.98269 -0.939099 1.02933 -1.98269
4 1 -0.0452032 2.68107 -0.32497 -0.0452032 2.68107 -0.32497
5 2 1.82512 2.68192 1.3404 1.82512 2.68192 1.3404
6 2 1.88576 2.67898 -1.92141 1.88576 2.67898 -1.92141
7 1 2.80608 1.03422 -0.271393 2.80608 1.03422 -0.271393
8 2 4.68341 1.0413 1.3865 4.68341 1.0413 1.3865
9 2 4.73025 1.02566 -1.8755 4.73025 1.02566 -1.8755
10 1 5.65704 2.67962 -0.238919 5.65704 2.67962 -0.238919
11 2 7.53369 2.68563 1.42013 7.53369 2.68563 1.42013
12 2 7.58174 2.67218 -1.8418 7.58174 2.67218 -1.8418
13 1 8.50788 1.03206 -0.189846 8.50788 1.03206 -0.189846
14 2 10.3813 1.03756 1.47288 10.3813 1.03756 1.47288
15 2 10.4356 1.02431 -1.78891 10.4356 1.02431 -1.78891
16 1 11.3587 2.67735 -0.148933 11.3587 2.67735 -0.148933
17 2 13.2356 2.67785 1.50988 13.2356 2.67785 1.50988
18 2 13.2834 2.67479 -1.752 13.2834 2.67479 -1.752
19 1 14.2106 1.02989 -0.105514 14.2106 1.02989 -0.105514
20 2 16.1046 1.02718 1.53389 16.1046 1.02718 1.53389
21 2 16.1195 1.03107 -1.72819 16.1195 1.03107 -1.72819
22 1 17.0629 2.67524 -0.09084 17.0629 2.67524 -0.09084
23 2 18.9652 2.66686 1.53907 18.9652 2.66686 1.53907
24 2 18.9635 2.68056 -1.72305 18.9635 2.68056 -1.72305
25 1 19.9149 1.02659 -0.0993393 19.9149 1.02659 -0.0993393
26 2 21.8217 1.01102 1.52515 21.8217 1.01102 1.52515
27 2 21.8107 1.03895 -1.73686 21.8107 1.03895 -1.73686
28 1 22.7671 2.6712 -0.0948542 22.7671 2.6712 -0.0948542
29 2 24.6683 2.65305 1.5364 24.6683 2.65305 1.5364
30 2 24.6685 2.68718 -1.72562 24.6685 2.68718 -1.72562
31 1 25.6191 1.02359 -0.11185 25.6191 1.02359 -0.11185
32 2 27.5157 1.00225 1.52491 27.5157 1.00225 1.52491
33 2 27.5254 1.04382 -1.737 27.5254 1.04382 -1.737
34 1 28.471 2.66943 -0.0819217 28.471 2.66943 -0.0819217
35 2 30.3752 2.64963 1.54589 30.3752 2.64963 1.54589
36 2 30.3694 2.68891 -1.71611 30.3694 2.68891 -1.71611
37 1 31.3233 1.02339 -0.10681 31.3233 1.02339 -0.10681
38 2 33.2278 1.00301 1.52003 33.2278 1.00301 1.52003
39 2 33.221 1.04469 -1.74205 33.221 1.04469 -1.74205
40 1 34.1747 2.67003 -0.0917238 34.1747 2.67003 -0.0917238
41 2 36.0881 2.65802 1.52516 36.0881 2.65802 1.52516
42 2 36.0633 2.68253 -1.73699 36.0633 2.68253 -1.73699
43 1 37.0265 1.02421 -0.125731 37.0265 1.02421 -0.125731
44 2 38.9492 1.01126 1.47968 38.9492 1.01126 1.47968
45 2 38.9059 1.03732 -1.78256 38.9059 1.03732 -1.78256
46 1 39.8778 2.67025 -0.150525 39.8778 2.67025 -0.150525
47 2 41.7862 2.66194 1.4134 41.7862 2.66194 1.4134
48 2 41.7264 2.67908 -1.78293 41.7264 2.67908 -1.78293
49 1 42.7977 1.02524 -0.213086 42.7977 1.02524 -0.213086
50 2 -6.52159 1.02745 1.1855 74.6269 1.02745 1.1855
51 2 -7.27769 1.03811 -1.57892 73.8708 1.03811 -1.57892
52 1 -5.72869 2.68189 -0.508855 75.4198 2.68189 -0.508855
53 2 -3.92004 2.65305 1.21093 77.2285 2.65305 1.21093
54 2 -3.77814 2.70936 -2.06631 77.3704 2.70936 -2.06631
55 1 -2.89657 4.32742 -0.361354 -2.89657 4.32742 -0.361354
56 2 -1.03318 4.30182 1.31114 -1.03318 4.30182 1.31114
57 2 -0.958415 4.35338 -1.94982 -0.958415 4.35338 -1.94982
58 1 -0.0463236 5.97356 -0.271164 -0.0463236 5.97356 -0.271164
59 2 1.84321 5.9506 1.3729 1.84321 5.9506 1.3729
60 2 1.86639 5.99512 -1.88906 1.86639 5.99512 -1.88906
61 1 2.80557 4.32663 -0.274369 2.80557 4.32663 -0.274369
62 2 4.68564 4.32539 1.38048 4.68564 4.32539 1.38048
63 2 4.72723 4.32645 -1.88161 4.72723 4.32645 -1.88161
64 1 5.65655 5.9723 -0.237894 5.65655 5.9723 -0.237894
65 2 7.53727 5.97129 1.41649 7.53727 5.97129 1.41649
66 2 7.57727 5.97268 -1.84563 7.57727 5.97268 -1.84563
67 1 8.50772 4.32531 -0.20356 8.50772 4.32531 -0.20356
68 2 10.3822 4.3325 1.45806 10.3822 4.3325 1.45806
69 2 10.4343 4.31557 -1.80381 10.4343 4.31557 -1.80381
70 1 11.3587 5.97015 -0.165715 11.3587 5.97015 -0.165715
71 2 13.2376 5.98622 1.49122 13.2376 5.98622 1.49122
72 2 13.2817 5.95094 -1.77052 13.2817 5.95094 -1.77052
73 1 14.2104 4.32239 -0.108733 14.2104 4.32239 -0.108733
74 2 16.105 4.32748 1.53038 16.105 4.32748 1.53038
75 2 16.1188 4.31614 -1.73179 16.1188 4.31614 -1.73179
76 1 17.063 5.96763 -0.102588 17.063 5.96763 -0.102588
77 2 18.9581 5.97167 1.53612 18.9581 5.97167 1.53612
78 2 18.971 5.96119 -1.72601 18.971 5.96119 -1.72601
79 1 19.9153 4.31972 -0.0856633 19.9153 4.31972 -0.0856633
80 2 21.8175 4.31045 1.54446 21.8175 4.31045 1.54446
81 2 21.8159 4.32596 -1.71767 21.8159 4.32596 -1.71767
82 1 22.7673 5.96458 -0.0791231 22.7673 5.96458 -0.0791231
83 2 24.6673 5.96323 1.55351 24.6673 5.96323 1.55351
84 2 24.6697 5.96368 -1.7087 24.6697 5.96368 -1.7087
85 1 25.6189 4.31657 -0.0769362 25.6189 4.31657 -0.0769362
86 2 27.5171 4.30521 1.55813 27.5171 4.30521 1.55813
87 2 27.5232 4.32668 -1.70398 27.5232 4.32668 -1.70398
88 1 28.4708 5.96246 -0.0601746 28.4708 5.96246 -0.0601746
89 2 30.3755 5.96178 1.5669 30.3755 5.96178 1.5669
90 2 30.3687 5.96271 -1.6953 30.3687 5.96271 -1.6953
91 1 31.3227 4.31575 -0.066616 31.3227 4.31575 -0.066616
92 2 33.2331 4.30689 1.55386 33.2331 4.30689 1.55386
93 2 33.2145 4.32494 -1.70835 33.2145 4.32494 -1.70835
94 1 34.1747 5.96211 -0.0735385 34.1747 5.96211 -0.0735385
95 2 36.0894 5.95938 1.54155 36.0894 5.95938 1.54155
96 2 36.0623 5.96499 -1.72062 36.0623 5.96499 -1.72062
97 1 37.0267 4.31624 -0.100559 37.0267 4.31624 -0.100559
98 2 38.9563 4.31586 1.49714 38.9563 4.31586 1.49714
99 2 38.8996 4.31666 -1.765 38.8996 4.31666 -1.765
100 1 39.8784 5.96201 -0.150578 39.8784 5.96201 -0.150578
101 2 41.7777 5.95743 1.42242 41.7777 5.95743 1.42242
102 2 41.7367 5.96649 -1.77421 41.7367 5.96649 -1.77421
103 1 42.7978 4.31609 -0.194815 42.7978 4.31609 -0.194815
104 2 -6.49931 4.28219 1.24685 74.6492 4.28219 1.24685
105 2 -7.30729 4.35395 -1.4903 73.8412 4.35395 -1.4903
106 1 -5.73177 5.97695 -0.426218 75.4167 5.97695 -0.426218
107 2 -3.92244 5.91601 1.29546 77.2261 5.91601 1.29546
108 2 -3.77737 6.03149 -1.97868 77.3711 6.03149 -1.97868
109 1 -2.89921 7.61917 -0.240676 -2.89921 7.61917 -0.240676
110 2 -1.00285 7.58154 1.3951 -1.00285 7.58154 1.3951
111 2 -0.992172 7.65713 -1.86635 -0.992172 7.65713 -1.86635
112 1 -0.047802 9.26485 -0.195043 -0.047802 9.26485 -0.195043
113 2 1.85906 9.24135 1.42923 1.85906 9.24135 1.42923
114 2 1.84786 9.2875 -1.83275 1.84786 9.2875 -1.83275
115 1 2.80487 7.6188 -0.228684 2.80487 7.6188 -0.228684
116 2 4.7015 7.60202 1.40755 4.7015 7.60202 1.40755
117 2 4.71026 7.63508 -1.85462 4.71026 7.63508 -1.85462
118 1 5.65557 9.26506 -0.20409 5.65557 9.26506 -0.20409
119 2 7.55214 9.25971 1.43227 7.55214 9.25971 1.43227
120 2 7.56083 9.26992 -1.83008 7.56083 9.26992 -1.83008
121 1 8.5072 7.6183 -0.201934 8.5072 7.6183 -0.201934
122 2 10.3925 7.62593 1.44724 10.3925 7.62593 1.44724
123 2 10.4236 7.60783 -1.81485 10.4236 7.60783 -1.81485
124 1 11.3589 9.26276 -0.183673 11.3589 9.26276 -0.183673
125 2 13.2466 9.27614 1.46339 13.2466 9.27614 1.46339
126 2 13.2737 9.24621 -1.79853 13.2737 9.24621 -1.79853
127 1 14.2107 7.61459 -0.144546 14.2107 7.61459 -0.144546
128 2 16.0986 7.63163 1.50198 16.0986 7.63163 1.50198
129 2 16.1254 7.59589 -1.75994 16.1254 7.59589 -1.75994
130 1 17.0629 9.2598 -0.1393 17.0629 9.2598 -0.1393
131 2 18.9517 9.27869 1.50646 18.9517 9.27869 1.50646
132 2 18.9769 9.23887 -1.75536 18.9769 9.23887 -1.75536
133 1 19.9154 7.61253 -0.0965657 19.9154 7.61253 -0.0965657
134 2 21.8126 7.62115 1.53946 21.8126 7.62115 1.53946
135 2 21.821 7.60174 -1.72262 21.821 7.60174 -1.72262
136 1 22.7674 9.25788 -0.0991554 22.7674 9.25788 -0.0991554
137 2 24.6626 9.26795 1.53917 24.6626 9.26795 1.53917
138 2 24.6749 9.2455 -1.72292 24.6749 9.2455 -1.72292
139 1 25.6192 7.60992 -0.076648 25.6192 7.60992 -0.076648
140 2 27.5132 7.61275 1.56308 27.5132 7.61275 1.56308
141 2 27.5277 7.60573 -1.69907 27.5277 7.60573 -1.69907
142 1 28.4717 9.25541 -0.0673781 28.4717 9.25541 -0.0673781
143 2 30.3748 9.25995 1.56156 30.3748 9.25995 1.56156
144 2 30.3712 9.25058 -1.70066 30.3712 9.25058 -1.70066
145 1 31.3231 7.60858 -0.0657623 31.3231 7.60858 -0.0657623
146 2 33.2276 7.60667 1.56131 33.2276 7.60667 1.56131
147 2 33.2208 7.61011 -1.70097 33.2208 7.61011 -1.70097
148 1 34.1754 9.25452 -0.0700825 34.1754 9.25452 -0.0700825
149 2 36.0896 9.25221 1.54595 36.0896 9.25221 1.54595
150 2 36.0636 9.25629 -1.71617 36.0636 9.25629 -1.71617
151 1 37.0272 7.60807 -0.0947676 37.0272 7.60807 -0.0947676
152 2 38.9564 7.6015 1.50342 38.9564 7.6015 1.50342
153 2 38.9007 7.6143 -1.75866 38.9007 7.6143 -1.75866
154 1 39.8794 9.25369 -0.137064 39.8794 9.25369 -0.137064
155 2 41.7889 9.26293 1.42443 41.7889 9.26293 1.42443
156 2 41.7273 9.24396 -1.77171 41.7273 9.24396 -1.77171
157 1 42.7991 7.60741 -0.184878 42.7991 7.60741 -0.184878
158 2 -6.51596 7.49407 1.38645 74.6325 7.49407 1.38645
159 2 -7.21819 7.71596 -1.44507 73.9303 7.71596 -1.44507
160 1 -5.73186 9.26168 -0.195729 75.4166 9.26168 -0.195729
161 2 -3.86099 9.22124 1.44576 77.2875 9.22124 1.44576
162 2 -3.85958 9.30481 -1.83537 77.2889 9.30481 -1.83537
163 1 -2.90221 10.9085 -0.148098 -2.90221 10.9085 -0.148098
164 2 -0.992708 10.875 1.47459 -0.992708 10.875 1.47459
165 2 -1.00831 10.9441 -1.78689 -1.00831 10.9441 -1.78689
166 1 -0.0509979 12.5562 -0.12574 -0.0509979 12.5562 -0.12574
167 2 1.86731 12.53 1.48557 1.86731 12.53 1.48557
168 2 1.83387 12.5825 -1.77594 1.83387 12.5825 -1.77594
169 1 2.80295 10.911 -0.181481 2.80295 10.911 -0.181481
170 2 4.70534 10.8905 1.44837 4.70534 10.8905 1.44837
171 2 4.70315 10.9314 -1.81363 4.70315 10.9314 -1.81363
172 1 5.65408 12.5574 -0.162481 5.65408 12.5574 -0.162481
173 2 7.56552 12.5469 1.45679 7.56552 12.5469 1.45679
174 2 7.5456 12.5671 -1.80532 7.5456 12.5671 -1.80532
175 1 8.50682 10.9108 -0.190741 8.50682 10.9108 -0.190741
176 2 10.4084 10.9168 1.44017 10.4084 10.9168 1.44017
177 2 10.4079 10.9021 -1.82202 10.4079 10.9021 -1.82202
178 1 11.3593 12.5553 -0.198045 11.3593 12.5553 -0.198045
179 2 13.2602 12.5765 1.43354 13.2602 12.5765 1.43354
180 2 13.2613 12.532 -1.82831 13.2613 12.532 -1.82831
181 1 14.2111 10.9074 -0.174608 14.2111 10.9074 -0.174608
182 2 16.1059 10.9296 1.46398 16.1059 10.9296 1.46398
183 2 16.1187 10.8829 -1.79785 16.1187 10.8829 -1.79785
184 1 17.0632 12.5525 -0.187095 17.0632 12.5525 -0.187095
185 2 18.9491 12.5736 1.46184 18.9491 12.5736 1.46184
186 2 18.9799 12.5294 -1.79983 18.9799 12.5294 -1.79983
187 1 19.9151 10.9051 -0.137506 19.9151 10.9051 -0.137506
188 2 21.8067 10.925 1.50479 21.8067 10.925 1.50479
189 2 21.8264 10.8838 -1.75703 21.8264 10.8838 -1.75703
190 1 22.7677 12.5505 -0.141518 22.7677 12.5505 -0.141518
191 2 24.6551 12.5657 1.50593 24.6551 12.5657 1.50593
192 2 24.6833 12.5326 -1.75591 24.6833 12.5326 -1.75591
193 1 25.6199 10.9027 -0.0996727 25.6199 10.9027 -0.0996727
194 2 27.5097 10.9133 1.54525 27.5097 10.9133 1.54525
195 2 27.5331 10.8906 -1.71679 27.5331 10.8906 -1.71679
196 1 28.4726 12.5481 -0.0903359 28.4726 12.5481 -0.0903359
197 2 30.3753 12.5655 1.53897 30.3753 12.5655 1.53897
198 2 30.3727 12.5306 -1.72306 30.3727 12.5306 -1.72306
199 1 31.3241 10.9015 -0.0750972 31.3241 10.9015 -0.0750972
200 2 33.2291 10.9122 1.55176 33.2291 10.9122 1.55176
201 2 33.2215 10.89 -1.71042 33.2215 10.89 -1.71042
202 1 34.1767 12.5472 -0.0927568 34.1767 12.5472 -0.0927568
203 2 36.0825 12.5566 1.53304 36.0825 12.5566 1.53304
204 2 36.0733 12.5371 -1.72909 36.0733 12.5371 -1.72909
205 1 37.0283 10.9003 -0.0907171 37.0283 10.9003 -0.0907171
206 2 38.9564 10.9008 1.50904 38.9564 10.9008 1.50904
207 2 38.9032 10.899 -1.75305 38.9032 10.899 -1.75305
208 1 39.8804 12.5459 -0.138232 39.8804 12.5459 -0.138232
209 2 41.7989 12.5518 1.41322 41.7989 12.5518 1.41322
210 2 41.7189 12.5386 -1.78258 41.7189 12.5386 -1.78258
211 1 42.7996 10.8991 -0.203411 42.7996 10.8991 -0.203411
212 2 -7.23049 10.8165 1.02781 73.918 10.8165 1.02781
213 2 -6.5051 11.0139 -1.80009 74.6434 11.0139 -1.80009
214 1 -5.73813 12.5492 0.00600533 75.4104 12.5492 0.00600533
215 2 -3.79479 12.5066 1.5729 77.3537 12.5066 1.5729
216 2 -3.91633 12.601 -1.70263 77.2322 12.601 -1.70263
217 1 -2.90382 14.2015 -0.0490752 -2.90382 14.2015 -0.0490752
218 2 -0.969827 14.182 1.54443 -0.969827 14.182 1.54443
219 2 -1.03547 14.2222 -1.71666 -1.03547 14.2222 -1.71666
220 1 -0.0527576 15.8492 -0.0843684 -0.0527576 15.8492 -0.0843684
221 2 1.86516 15.8331 1.5279 1.86516 15.8331 1.5279
222 2 1.83209 15.8652 -1.73388 1.83209 15.8652 -1.73388
223 1 2.80038 14.2031 -0.128443 2.80038 14.2031 -0.128443
224 2 4.7111 14.1853 1.49214 4.7111 14.1853 1.49214
225 2 4.69268 14.2209 -1.76979 4.69268 14.2209 -1.76979
226 1 5.65286 15.8491 -0.126141 5.65286 15.8491 -0.126141
227 2 7.57196 15.8355 1.4846 7.57196 15.8355 1.4846
228 2 7.53759 15.8613 -1.77723 7.53759 15.8613 -1.77723
229 1 8.5067 14.2027 -0.169819 8.5067 14.2027 -0.169819
230 2 10.4235 14.2009 1.44322 10.4235 14.2009 1.44322
231 2 10.3935 14.2026 -1.81881 10.3935 14.2026 -1.81881
232 1 11.3596 15.8477 -0.195678 11.3596 15.8477 -0.195678
233 2 13.2741 15.8467 1.42004 13.2741 15.8467 1.42004
234 2 13.2479 15.8478 -1.84206 13.2479 15.8478 -1.84206
235 1 14.2116 14.2004 -0.219496 14.2116 14.2004 -0.219496
236 2 16.1044 14.2164 1.42135 16.1044 14.2164 1.42135
237 2 16.1214 14.1822 -1.84058 16.1214 14.1822 -1.84058
238 1 17.0638 15.8457 -0.221816 17.0638 15.8457 -0.221816
239 2 18.9519 15.8604 1.42469 18.9519 15.8604 1.42469
240 2 18.9783 15.8291 -1.83718 18.9783 15.8291 -1.83718
241 1 19.9155 14.1979 -0.182535 19.9155 14.1979 -0.182535
242 2 21.8024 14.2121 1.46553 21.8024 14.2121 1.46553
243 2 21.8316 14.1824 -1.7963 21.8316 14.1824 -1.7963
244 1 22.7683 15.8434 -0.172019 22.7683 15.8434 -0.172019
245 2 24.6585 15.8606 1.47228 24.6585 15.8606 1.47228
246 2 24.6815 15.8234 -1.78949 24.6815 15.8234 -1.78949
247 1 25.6204 14.1953 -0.133252 25.6204 14.1953 -0.133252
248 2 27.5109 14.2175 1.51061 27.5109 14.2175 1.51061
249 2 27.533 14.171 -1.75115 27.533 14.171 -1.75115
250 1 28.4735 15.8403 -0.137324 28.4735 15.8403 -0.137324
251 2 30.3735 15.8639 1.49521 30.3735 15.8639 1.49521
252 2 30.3764 15.8167 -1.76664 30.3764 15.8167 -1.76664
253 1 31.3254 14.194 -0.110615 31.3254 14.194 -0.110615
254 2 33.2267 14.211 1.52053 33.2267 14.211 1.52053
255 2 33.2267 14.1766 -1.74149 33.2267 14.1766 -1.74149
256 1 34.178 15.84 -0.127897 34.178 15.84 -0.127897
257 2 36.0815 15.8599 1.50077 36.0815 15.8599 1.50077
258 2 36.077 15.8196 -1.76118 36.077 15.8196 -1.76118
259 1 37.0294 14.193 -0.110776 37.0294 14.193 -0.110776
260 2 38.9507 14.2 1.49693 38.9507 14.2 1.49693
261 2 38.9108 14.1852 -1.76531 38.9108 14.1852 -1.76531
262 1 39.881 15.8388 -0.153703 39.881 15.8388 -0.153703
263 2 41.7899 15.8275 1.40954 41.7899 15.8275 1.40954
264 2 41.7292 15.8484 -1.78669 41.7292 15.8484 -1.78669
265 1 42.7999 14.1914 -0.217369 42.7999 14.1914 -0.217369
266 2 -7.31302 14.1832 1.0542 73.8355 14.1832 1.0542
267 2 -6.49902 14.2265 -1.68783 74.6495 14.2265 -1.68783
268 1 -5.73789 15.8469 0.0523865 75.4106 15.8469 0.0523865
269 2 -3.80659 15.8322 1.63311 77.3419 15.8322 1.63311
270 2 -3.90914 15.864 -1.64574 77.2394 15.864 -1.64574
271 1 -2.90474 17.4954 -0.0180872 -2.90474 17.4954 -0.0180872
272 2 -0.970118 17.4876 1.57389 -0.970118 17.4876 1.57389
273 2 -1.03707 17.5041 -1.68741 -1.03707 17.5041 -1.68741
274 1 -0.0532061 19.1426 -0.0679578 -0.0532061 19.1426 -0.0679578
275 2 1.85779 19.1297 1.55242 1.85779 19.1297 1.55242
276 2 1.83909 19.1549 -1.70953 1.83909 19.1549 -1.70953
277 1 2.79934 17.4957 -0.0965012 2.79934 17.4957 -0.0965012
278 2 4.7101 17.4813 1.52407 4.7101 17.4813 1.52407
279 2 4.69184 17.5088 -1.73789 4.69184 17.5088 -1.73789
280 1 5.65297 19.1404 -0.0984901 5.65297 19.1404 -0.0984901
281 2 7.57185 19.1254 1.51221 7.57185 19.1254 1.51221
282 2 7.53782 19.1537 -1.74964 7.53782 19.1537 -1.74964
283 1 8.50647 17.4939 -0.143331 8.50647 17.4939 -0.143331
284 2 10.4332 17.4857 1.45801 10.4332 17.4857 1.45801
285 2 10.3832 17.5013 -1.80375 10.3832 17.5013 -1.80375
286 1 11.3591 19.1396 -0.179534 11.3591 19.1396 -0.179534
287 2 13.2776 19.1316 1.43134 13.2776 19.1316 1.43134
288 2 13.2435 19.1473 -1.83063 13.2435 19.1473 -1.83063
289 1 14.2118 17.4933 -0.217927 14.2118 17.4933 -0.217927
290 2 16.1175 17.4964 1.40822 16.1175 17.4964 1.40822
291 2 16.109 17.4888 -1.85391 16.109 17.4888 -1.85391
292 1 17.064 19.139 -0.228882 17.064 19.139 -0.228882
293 2 18.9584 19.1397 1.41088 18.9584 19.1397 1.41088
294 2 18.9727 19.1363 -1.85121 18.9727 19.1363 -1.85121
295 1 19.9162 17.4911 -0.214291 19.9162 17.4911 -0.214291
296 2 21.8001 17.5014 1.4372 21.8001 17.5014 1.4372
297 2 21.8351 17.4788 -1.82463 21.8351 17.4788 -1.82463
298 1 22.7695 19.1359 -0.194787 22.7695 19.1359 -0.194787
299 2 24.6684 19.154 1.43938 24.6684 19.154 1.43938
300 2 24.6744 19.1152 -1.82248 24.6744 19.1152 -1.82248
301 1 25.6217 17.4879 -0.170389 25.6217 17.4879 -0.170389
302 2 27.5175 17.5095 1.46728 27.5175 17.5095 1.46728
303 2 27.5291 17.4641 -1.79455 27.5291 17.4641 -1.79455
304 1 28.4747 19.1328 -0.183352 28.4747 19.1328 -0.183352
305 2 30.3738 19.1534 1.45 30.3738 19.1534 1.45
306 2 30.3782 19.1119 -1.81197 30.3782 19.1119 -1.81197
307 1 31.3263 17.4863 -0.158825 31.3263 17.4863 -0.158825
308 2 33.2244 17.5112 1.47582 33.2244 17.5112 1.47582
309 2 33.231 17.4618 -1.78597 33.231 17.4618 -1.78597
310 1 34.1785 19.1329 -0.178398 34.1785 19.1329 -0.178398
311 2 36.0726 19.1464 1.46086 36.0726 19.1464 1.46086
312 2 36.0872 19.1192 -1.80117 36.0872 19.1192 -1.80117
313 1 37.0301 17.4861 -0.152195 37.0301 17.4861 -0.152195
314 2 38.9418 17.5017 1.46641 38.9418 17.5017 1.46641
315 2 38.9209 17.4696 -1.7959 38.9209 17.4696 -1.7959
316 1 39.8814 19.132 -0.188045 39.8814 19.132 -0.188045
317 2 41.7604 19.1228 1.40839 41.7604 19.1228 1.40839
318 2 41.7597 19.1396 -1.78855 41.7597 19.1396 -1.78855
319 1 42.8008 17.4844 -0.198495 42.8008 17.4844 -0.198495
320 2 -7.30445 17.4961 1.0877 73.844 17.4961 1.0877
321 2 -6.50167 17.4916 -1.66618 74.6468 17.4916 -1.66618
322 1 -5.73955 19.1421 0.0447898 75.4089 19.1421 0.0447898
323 2 -3.82211 19.1405 1.64176 77.3264 19.1405 1.64176
324 2 -3.89808 19.1429 -1.63793 77.2504 19.1429 -1.63793
325 1 -2.90601 20.7889 -0.0167627 -2.90601 20.7889 -0.0167627
326 2 -0.983791 20.7735 1.59025 -0.983791 20.7735 1.59025
327 2 -1.02483 20.8044 -1.67139 -1.02483 20.8044 -1.67139
328 1 -0.0530708 22.435 -0.0367701 -0.0530708 22.435 -0.0367701
329 2 1.85927 22.4182 1.58226 1.85927 22.4182 1.58226
330 2 1.83835 22.4502 -1.67963 1.83835 22.4502 -1.67963
331 1 2.80006 20.788 -0.071084 2.80006 20.788 -0.071084
332 2 4.70708 20.7683 1.55401 4.70708 20.7683 1.55401
333 2 4.69671 20.8049 -1.70791 4.69671 20.8049 -1.70791
334 1 5.65374 22.432 -0.0615005 5.65374 22.432 -0.0615005
335 2 7.57627 22.4152 1.54489 7.57627 22.4152 1.54489
336 2 7.53445 22.4469 -1.71691 7.53445 22.4469 -1.71691
337 1 8.5064 20.7852 -0.114393 8.5064 20.7852 -0.114393
338 2 10.4342 20.7671 1.48532 10.4342 20.7671 1.48532
339 2 10.3815 20.8035 -1.77623 10.3815 20.8035 -1.77623
340 1 11.3587 22.4315 -0.142289 11.3587 22.4315 -0.142289
341 2 13.2881 22.4224 1.45559 13.2881 22.4224 1.45559
342 2 13.2315 22.4409 -1.80607 13.2315 22.4409 -1.80607
343 1 14.2113 20.7858 -0.201412 14.2113 20.7858 -0.201412
344 2 16.1248 20.7791 1.41578 16.1248 20.7791 1.41578
345 2 16.101 20.792 -1.8462 16.101 20.792 -1.8462
346 1 17.064 22.4317 -0.21529 17.064 22.4317 -0.21529
347 2 18.9675 22.4311 1.41448 18.9675 22.4311 1.41448
348 2 18.9644 22.4304 -1.8476 18.9644 22.4304 -1.8476
349 1 19.9169 20.784 -0.217248 19.9169 20.784 -0.217248
350 2 21.8115 20.7925 1.4223 21.8115 20.7925 1.4223
351 2 21.8256 20.7723 -1.83973 21.8256 20.7723 -1.83973
352 1 22.7702 22.4281 -0.214504 22.7702 22.4281 -0.214504
353 2 24.6797 22.4454 1.40732 24.6797 22.4454 1.40732
354 2 24.6642 22.408 -1.85458 24.6642 22.408 -1.85458
355 1 25.623 20.7803 -0.209319 25.623 20.7803 -0.209319
356 2 27.522 20.8006 1.42466 27.522 20.8006 1.42466
357 2 27.5271 20.7582 -1.83723 27.5271 20.7582 -1.83723
358 1 28.475 22.4259 -0.226366 28.475 22.4259 -0.226366
359 2 30.3734 22.4456 1.40804 30.3734 22.4456 1.40804
360 2 30.379 22.4057 -1.85393 30.379 22.4057 -1.85393
361 1 31.3266 20.7791 -0.200879 31.3266 20.7791 -0.200879
362 2 33.2214 20.7902 1.43783 33.2214 20.7902 1.43783
363 2 33.2343 20.7685 -1.82424 33.2343 20.7685 -1.82424
364 1 34.1789 22.4257 -0.20037 34.1789 22.4257 -0.20037
365 2 36.0744 22.4351 1.43817 36.0744 22.4351 1.43817
366 2 36.0866 22.4165 -1.82392 36.0866 22.4165 -1.82392
367 1 37.0308 20.7792 -0.179837 37.0308 20.7792 -0.179837
368 2 38.9366 20.7786 1.44625 38.9366 20.7786 1.44625
369 2 38.9277 20.7793 -1.8163 38.9277 20.7793 -1.8163
370 1 39.882 22.4254 -0.186963 39.882 22.4254 -0.186963
371 2 41.763 22.4331 1.40837 41.763 22.4331 1.40837
372 2 41.758 22.4167 -1.78859 41.758 22.4167 -1.78859
373 1 42.801 20.7778 -0.183292 42.801 20.7778 -0.183292
374 2 -7.31614 20.7929 1.06196 73.8324 20.7929 1.06196
375 2 -6.48851 20.783 -1.68393 74.66 20.783 -1.68393
376 1 -5.74108 22.4368 0.0306307 75.4074 22.4368 0.0306307
377 2 -3.83645 22.4275 1.64276 77.312 22.4275 1.64276
378 2 -3.88643 22.4434 -1.63726 77.2621 22.4434 -1.63726
379 1 -2.90606 24.0822 -0.00102091 -2.90606 24.0822 -0.00102091
380 2 -0.990418 24.0696 1.61399 -0.990418 24.0696 1.61399
381 2 -1.01817 24.0928 -1.64785 -1.01817 24.0928 -1.64785
382 1 -0.0525043 25.7271 -0.0130461 -0.0525043 25.7271 -0.0130461
383 2 1.85844 25.7166 1.60749 1.85844 25.7166 1.60749
384 2 1.84008 25.7354 -1.65449 1.84008 25.7354 -1.65449
385 1 2.80061 24.0797 -0.0381862 2.80061 24.0797 -0.0381862
386 2 4.70689 24.0622 1.58819 4.70689 24.0622 1.58819
387 2 4.69815 24.0941 -1.67378 4.69815 24.0941 -1.67378
388 1 5.65385 25.7239 -0.029139 5.65385 25.7239 -0.029139
389 2 7.57712 25.7089 1.57606 7.57712 25.7089 1.57606
390 2 7.53359 25.7369 -1.68575 7.53359 25.7369 -1.68575
391 1 8.50637 24.0771 -0.0819389 8.50637 24.0771 -0.0819389
392 2 10.4355 24.0665 1.51608 10.4355 24.0665 1.51608
393 2 10.3796 24.0884 -1.74562 10.3796 24.0884 -1.74562
394 1 11.3582 25.7236 -0.119949 11.3582 25.7236 -0.119949
395 2 13.2905 25.7168 1.47399 13.2905 25.7168 1.47399
396 2 13.2279 25.7306 -1.78759 13.2279 25.7306 -1.78759
397 1 14.2107 24.0779 -0.182103 14.2107 24.0779 -0.182103
398 2 16.1311 24.0773 1.42707 16.1311 24.0773 1.42707
399 2 16.0933 24.0783 -1.83482 16.0933 24.0783 -1.83482
400 1 17.0636 25.7236 -0.214168 17.0636 25.7236 -0.214168
401 2 18.9724 25.7309 1.40915 18.9724 25.7309 1.40915
402 2 18.9587 25.7145 -1.8529 18.9587 25.7145 -1.8529
403 1 19.9173 24.0764 -0.217547 19.9173 24.0764 -0.217547
404 2 21.8259 24.0892 1.40587 21.8259 24.0892 1.40587
405 2 21.8124 24.0599 -1.85613 21.8124 24.0599 -1.85613
406 1 22.7698 25.7204 -0.244012 22.7698 25.7204 -0.244012
407 2 24.6827 25.7357 1.37348 24.6827 25.7357 1.37348
408 2 24.6599 25.7021 -1.88845 24.6599 25.7021 -1.88845
409 1 25.6227 24.0728 -0.247032 25.6227 24.0728 -0.247032
410 2 27.5246 24.093 1.38373 27.5246 24.093 1.38373
411 2 27.5239 24.0517 -1.87816 27.5239 24.0517 -1.87816
412 1 28.4746 25.7189 -0.268482 28.4746 25.7189 -0.268482
413 2 30.3716 25.7376 1.36758 30.3716 25.7376 1.36758
414 2 30.3803 25.6998 -1.89434 30.3803 25.6998 -1.89434
415 1 31.3268 24.0721 -0.241488 31.3268 24.0721 -0.241488
416 2 33.215 24.0893 1.40505 33.215 24.0893 1.40505
417 2 33.2412 24.0545 -1.85684 33.2412 24.0545 -1.85684
418 1 34.179 25.7182 -0.236002 34.179 25.7182 -0.236002
419 2 36.0646 25.7274 1.41382 36.0646 25.7274 1.41382
420 2 36.0965 25.7097 -1.84812 36.0965 25.7097 -1.84812
421 1 37.0312 24.0722 -0.198742 37.0312 24.0722 -0.198742
422 2 38.9279 24.0763 1.4378 38.9279 24.0763 1.4378
423 2 38.9374 24.0681 -1.82476 38.9374 24.0681 -1.82476
424 1 39.8829 25.7185 -0.194708 39.8829 25.7185 -0.194708
425 2 41.7657 25.717 1.40013 41.7657 25.717 1.40013
426 2 41.7579 25.7192 -1.79671 41.7579 25.7192 -1.79671
427 1 42.8022 24.071 -0.200653 42.8022 24.071 -0.200653
428 2 -7.3206 24.0844 1.04885 73.8279 24.0844 1.04885
429 2 -6.47955 24.0859 -1.69429 74.6689 24.0859 -1.69429
430 1 -5.7402 25.7314 0.0322126 75.4083 25.7314 0.0322126
431 2 -3.8426 25.7237 1.65275 77.3059 25.7237 1.65275
432 2 -3.87832 25.7357 -1.62755 77.2702 25.7357 -1.62755
433 1 -2.90428 27.3759 0.0113892 -2.90428 27.3759 0.0113892
434 2 -0.988159 27.3745 1.6259 -0.988159 27.3745 1.6259
435 2 -1.01711 27.3739 -1.636 -1.01711 27.3739 -1.636
436 1 -0.0510152 29.0203 -0.0136387 -0.0510152 29.0203 -0.0136387
437 2 1.85638 29.0226 1.61112 1.85638 29.0226 1.61112
438 2 1.84466 29.0154 -1.65096 1.84466 29.0154 -1.65096
439 1 2.8009 27.3719 -0.0192133 2.8009 27.3719 -0.0192133
440 2 4.70423 27.3629 1.61035 4.70423 27.3629 1.61035
441 2 4.70095 27.3776 -1.65171 4.70095 27.3776 -1.65171
442 1 5.65374 29.0164 -0.0141697 5.65374 29.0164 -0.0141697
443 2 7.57401 29.0093 1.59471 7.57401 29.0093 1.59471
444 2 7.53635 29.0213 -1.66725 7.53635 29.0213 -1.66725
445 1 8.5061 27.3691 -0.053432 8.5061 27.3691 -0.053432
446 2 10.4389 27.3593 1.53989 10.4389 27.3593 1.53989
447 2 10.3753 27.3794 -1.72172 10.3753 27.3794 -1.72172
448 1 11.3578 29.0154 -0.0994063 11.3578 29.0154 -0.0994063
449 2 13.29 29.0016 1.49473 13.29 29.0016 1.49473
450 2 13.2277 29.0292 -1.76677 13.2277 29.0292 -1.76677
451 1 14.2103 27.3697 -0.168317 14.2103 27.3697 -0.168317
452 2 16.1345 27.364 1.43589 16.1345 27.364 1.43589
453 2 16.0892 27.3753 -1.82588 16.0892 27.3753 -1.82588
454 1 17.0629 29.0157 -0.202444 17.0629 29.0157 -0.202444
455 2 18.9781 29.0071 1.41283 18.9781 29.0071 1.41283
456 2 18.9513 29.0228 -1.84912 18.9513 29.0228 -1.84912
457 1 19.9163 27.3686 -0.234233 19.9163 27.3686 -0.234233
458 2 21.8272 27.3733 1.38576 21.8272 27.3733 1.38576
459 2 21.8088 27.3601 -1.87631 21.8088 27.3601 -1.87631
460 1 22.7687 29.0127 -0.25778 22.7687 29.0127 -0.25778
461 2 24.6804 29.0064 1.36085 24.6804 29.0064 1.36085
462 2 24.6602 29.0163 -1.9012 24.6602 29.0163 -1.9012
463 1 25.6218 27.3652 -0.281283 25.6218 27.3652 -0.281283
464 2 27.5229 27.3771 1.35026 27.5229 27.3771 1.35026
465 2 27.5239 27.3534 -1.9118 27.5239 27.3534 -1.9118
466 1 28.4739 29.0118 -0.292528 28.4739 29.0118 -0.292528
467 2 30.3716 29.0172 1.34292 30.3716 29.0172 1.34292
468 2 30.3793 29.0059 -1.91919 30.3793 29.0059 -1.91919
469 1 31.3266 27.365 -0.280012 31.3266 27.365 -0.280012
470 2 33.2115 27.3784 1.37064 33.2115 27.3784 1.37064
471 2 33.2446 27.3503 -1.89124 33.2446 27.3503 -1.89124
472 1 34.179 29.0106 -0.26471 34.179 29.0106 -0.26471
473 2 36.0619 29.0259 1.38799 36.0619 29.0259 1.38799
474 2 36.0991 28.9959 -1.87383 36.0991 28.9959 -1.87383
475 1 37.0315 27.3649 -0.216874 37.0315 27.3649 -0.216874
476 2 38.9278 27.3773 1.42043 38.9278 27.3773 1.42043
477 2 38.9385 27.3526 -1.84203 38.9385 27.3526 -1.84203
478 1 39.8834 29.0111 -0.220888 39.8834 29.0111 -0.220888
479 2 41.747 29.004 1.39486 41.747 29.004 1.39486
480 2 41.7774 29.0178 -1.80179 41.7774 29.0178 -1.80179
481 1 42.8034 27.3643 -0.199938 42.8034 27.3643 -0.199938
482 2 -7.3241 27.3774 1.04718 73.8244 27.3774 1.04718
483 2 -6.47878 27.3832 -1.68922 74.6697 27.3832 -1.68922
484 1 -5.73783 29.0256 0.0411914 75.4107 29.0256 0.0411914
485 2 -3.83383 29.0317 1.65473 77.3147 29.0317 1.65473
486 2 -3.8819 29.0158 -1.62547 77.2666 29.0158 -1.62547
487 1 -2.90229 30.6696 -0.00401308 -2.90229 30.6696 -0.00401308
488 2 -0.985027 30.6847 1.60876 -0.985027 30.6847 1.60876
489 2 -1.01688 30.6504 -1.65301 -1.01688 30.6504 -1.65301
490 1 -0.0499743 32.3136 -0.048807 -0.0499743 32.3136 -0.048807
491 2 1.85131 32.3323 1.58304 1.85131 32.3323 1.58304
492 2 1.85158 32.2918 -1.67888 1.85158 32.2918 -1.67888
493 1 2.80175 30.665 -0.0268272 2.80175 30.665 -0.0268272
494 2 4.7032 30.6751 1.6048 4.7032 30.6751 1.6048
495 2 4.70323 30.6516 -1.65727 4.70323 30.6516 -1.65727
496 1 5.65422 32.3093 -0.0380318 5.65422 32.3093 -0.0380318
497 2 7.56348 32.3183 1.58369 7.56348 32.3183 1.58369
498 2 7.54746 32.2981 -1.67847 7.54746 32.2981 -1.67847
499 1 8.50591 30.6616 -0.0415392 8.50591 30.6616 -0.0415392
500 2 10.4357 30.6546 1.5553 10.4357 30.6546 1.5553
501 2 10.378 30.6682 -1.70643 10.378 30.6682 -1.70643
502 1 11.3578 32.3074 -0.085827 11.3578 32.3074 -0.085827
503 2 13.2815 32.2923 1.51866 13.2815 32.2923 1.51866
504 2 13.2364 32.322 -1.74314 13.2364 32.322 -1.74314
505 1 14.21 30.6614 -0.140473 14.21 30.6614 -0.140473
506 2 16.1376 30.6464 1.4594 16.1376 30.6464 1.4594
507 2 16.0851 30.6768 -1.80219 16.0851 30.6768 -1.80219
508 1 17.0628 32.3075 -0.171277 17.0628 32.3075 -0.171277
509 2 18.9784 32.2848 1.44348 18.9784 32.2848 1.44348
510 2 18.9505 32.3294 -1.81821 18.9505 32.3294 -1.81821
511 1 19.9157 30.6608 -0.218147 19.9157 30.6608 -0.218147
512 2 21.8281 30.6388 1.40017 21.8281 30.6388 1.40017
513 2 21.8066 30.6792 -1.86164 21.8066 30.6792 -1.86164
514 1 22.7683 32.305 -0.216558 22.7683 32.305 -0.216558
515 2 24.6869 32.2809 1.3937 24.6869 32.2809 1.3937
516 2 24.6523 32.3268 -1.86795 24.6523 32.3268 -1.86795
517 1 25.6209 30.6578 -0.27103 25.6209 30.6578 -0.27103
518 2 27.529 30.6487 1.3521 27.529 30.6487 1.3521
519 2 27.5158 30.6673 -1.90998 27.5158 30.6673 -1.90998
520 1 28.4732 32.3043 -0.273282 28.4732 32.3043 -0.273282
521 2 30.3792 32.2937 1.35261 30.3792 32.2937 1.35261
522 2 30.3705 32.3144 -1.90945 30.3705 32.3144 -1.90945
523 1 31.3263 30.6577 -0.291582 31.3263 30.6577 -0.291582
524 2 33.2142 30.6596 1.35562 33.2142 30.6596 1.35562
525 2 33.2416 30.6542 -1.90637 33.2416 30.6542 -1.90637
526 1 34.179 32.3033 -0.269939 34.179 32.3033 -0.269939
527 2 36.0711 32.3092 1.37227 36.0711 32.3092 1.37227
528 2 36.0901 32.2978 -1.88977 36.0901 32.2978 -1.88977
529 1 37.0315 30.6573 -0.247403 37.0315 30.6573 -0.247403
530 2 38.9219 30.6639 1.39674 38.9219 30.6639 1.39674
531 2 38.9443 30.6509 -1.86567 38.9443 30.6509 -1.86567
532 1 39.8831 32.304 -0.234826 39.8831 32.304 -0.234826
533 2 41.7382 32.3088 1.39062 41.7382 32.3088 1.39062
534 2 41.7854 32.2988 -1.80592 41.7854 32.2988 -1.80592