ITEM: TIMESTEP
1059000
ITEM: NUMBER OF ATOMS
810
ITEM: BOX BOUNDS pp pp pp
-1.8529077493088477e+00 5.4870512749307913e+01
8.1394622342039402e-01 5.0202268776579182e+01
-1.0000000000000000e+01 1.0000000000000000e+01
ITEM: ATOMS id type x y z xu yu zu
1 1 -1.58905 1.0279 -0.0844394 -1.58905 1.0279 -0.0844394
2 2 0.487245 1.0277 1.52655 0.487245 1.0277 1.52655
3 2 0.482686 1.02784 -1.7006 0.482686 1.02784 -1.7006
4 1 1.56237 2.67407 -0.0885508 1.56237 2.67407 -0.0885508
5 2 3.64125 2.67546 1.51911 3.64125 2.67546 1.51911
6 2 3.63154 2.67247 -1.70802 3.63154 2.67247 -1.70802
7 1 4.71408 1.02771 -0.0961516 4.71408 1.02771 -0.0961516
8 2 6.79708 1.02411 1.50614 6.79708 1.02411 1.50614
9 2 6.779 1.03119 -1.72096 6.779 1.03119 -1.72096
10 1 7.86534 2.67399 -0.109856 7.86534 2.67399 -0.109856
11 2 9.94962 2.6723 1.4906 9.94962 2.6723 1.4906
12 2 9.92874 2.67564 -1.73651 9.92874 2.67564 -1.73651
13 1 11.0167 1.02773 -0.13155 11.0167 1.02773 -0.13155
14 2 13.1022 1.02238 1.46696 13.1022 1.02238 1.46696
15 2 13.0784 1.03314 -1.76014 13.0784 1.03314 -1.76014
16 1 14.1674 2.67413 -0.148961 14.1674 2.67413 -0.148961
17 2 16.2518 2.67058 1.45077 16.2518 2.67058 1.45077
18 2 16.23 2.67778 -1.77636 16.23 2.67778 -1.77636
19 1 17.3183 1.02797 -0.173611 17.3183 1.02797 -0.173611
20 2 19.4009 1.02208 1.42842 19.4009 1.02208 1.42842
21 2 19.3828 1.03401 -1.79872 19.3828 1.03401 -1.79872
22 1 20.4689 2.67443 -0.18496 20.4689 2.67443 -0.18496
23 2 22.5481 2.66984 1.42122 22.5481 2.66984 1.42122
24 2 22.5365 2.67915 -1.80596 22.5365 2.67915 -1.80596
25 1 23.6198 1.02828 -0.200829 23.6198 1.02828 -0.200829
26 2 25.6954 1.02276 1.41001 25.6954 1.02276 1.41001
27 2 25.6912 1.03393 -1.81717 25.6912 1.03393 -1.81717
28 1 26.7704 2.67471 -0.199149 26.7704 2.67471 -0.199149
29 2 28.8427 2.6708 1.41599 28.8427 2.6708 1.41599
30 2 28.8452 2.67866 -1.81119 28.8452 2.67866 -1.81119
31 1 29.9215 1.02851 -0.200645 29.9215 1.02851 -0.200645
32 2 31.9902 1.02503 1.41926 31.9902 1.02503 1.41926
33 2 32.0002 1.03201 -1.8079 32.0002 1.03201 -1.8079
34 1 33.0725 2.67484 -0.18736 33.0725 2.67484 -0.18736
35 2 35.1396 2.67398 1.43474 35.1396 2.67398 1.43474
36 2 35.1529 2.67562 -1.79241 35.1529 2.67562 -1.79241
37 1 36.2239 1.02858 -0.175153 36.2239 1.02858 -0.175153
38 2 38.2885 1.02874 1.4503 38.2885 1.02874 1.4503
39 2 38.3071 1.02829 -1.77681 38.3071 1.02829 -1.77681
40 1 39.3752 2.67479 -0.157252 39.3752 2.67479 -0.157252
41 2 41.4403 2.67818 1.46778 41.4403 2.67818 1.46778
42 2 41.4581 2.67116 -1.75931 41.4581 2.67116 -1.75931
43 1 42.527 1.02846 -0.13622 42.527 1.02846 -0.13622
44 2 44.5919 1.03157 1.48933 44.5919 1.03157 1.48933
45 2 44.6104 1.02508 -1.73774 44.6104 1.02508 -1.73774
46 1 45.6787 2.67457 -0.121338 45.6787 2.67457 -0.121338
47 2 47.7456 2.6804 1.50181 47.7456 2.6804 1.50181
48 2 47.7604 2.66842 -1.72526 47.7604 2.66842 -1.72526
49 1 48.8308 1.02819 -0.100719 48.8308 1.02819 -0.100719
50 2 50.9002 1.031 1.5193 50.9002 1.031 1.5193
51 2 50.9099 1.02507 -1.70781 50.9099 1.02507 -1.70781
52 1 51.9825 2.6743 -0.0941141 51.9825 2.6743 -0.0941141
53 2 54.0544 2.67907 1.52262 54.0544 2.67907 1.52262
54 2 54.059 2.66922 -1.70451 54.059 2.66922 -1.70451
55 1 -1.58939 4.32044 -0.0945405 -1.58939 4.32044 -0.0945405
56 2 0.484877 4.32646 1.51892 0.484877 4.32646 1.51892
57 2 0.484348 4.31414 -1.70821 0.484348 4.31414 -1.70821
58 1 1.56191 5.96663 -0.101217 1.56191 5.96663 -0.101217
59 2 3.63853 5.97318 1.50921 3.63853 5.97318 1.50921
60 2 3.63333 5.95986 -1.71791 3.63333 5.95986 -1.71791
61 1 4.71371 4.3203 -0.0993022 4.71371 4.3203 -0.0993022
62 2 6.79464 4.32293 1.50558 6.79464 4.32293 1.50558
63 2 6.78068 4.31754 -1.72154 6.78068 4.31754 -1.72154
64 1 7.86486 5.9666 -0.115459 7.86486 5.9666 -0.115459
65 2 9.94708 5.96981 1.48757 9.94708 5.96981 1.48757
66 2 9.93032 5.96331 -1.73956 9.93032 5.96331 -1.73956
67 1 11.0163 4.32034 -0.12821 11.0163 4.32034 -0.12821
68 2 13.1006 4.32005 1.47191 13.1006 4.32005 1.47191
69 2 13.0793 4.32065 -1.75522 13.0793 4.32065 -1.75522
70 1 14.1669 5.96675 -0.148422 14.1669 5.96675 -0.148422
71 2 16.2498 5.96691 1.45325 16.2498 5.96691 1.45325
72 2 16.2311 5.96666 -1.7739 16.2311 5.96666 -1.7739
73 1 17.3179 4.32058 -0.166295 17.3179 4.32058 -0.166295
74 2 19.3998 4.31807 1.43664 19.3998 4.31807 1.43664
75 2 19.3831 4.3232 -1.79052 19.3831 4.3232 -1.79052
76 1 20.4684 5.96704 -0.179802 20.4684 5.96704 -0.179802
77 2 22.5466 5.96468 1.42768 22.5466 5.96468 1.42768
78 2 22.5371 5.9695 -1.79951 22.5371 5.9695 -1.79951
79 1 23.6194 4.32088 -0.19137 23.6194 4.32088 -0.19137
80 2 25.695 4.31728 1.41944 25.695 4.31728 1.41944
81 2 25.6908 4.32456 -1.80775 25.6908 4.32456 -1.80775
82 1 26.7699 5.9673 -0.191805 26.7699 5.9673 -0.191805
83 2 28.8425 5.96436 1.42308 28.8425 5.96436 1.42308
84 2 28.8446 5.97023 -1.80411 28.8446 5.97023 -1.80411
85 1 29.9211 4.32108 -0.192681 29.9211 4.32108 -0.192681
86 2 31.991 4.31899 1.42571 31.991 4.31899 1.42571
87 2 31.9986 4.32313 -1.80146 31.9986 4.32313 -1.80146
88 1 33.072 5.9674 -0.183209 33.072 5.9674 -0.183209
89 2 35.1407 5.96714 1.43681 35.1407 5.96714 1.43681
90 2 35.1509 5.9675 -1.79035 35.1509 5.9675 -1.79035
91 1 36.2235 4.32111 -0.17351 36.2235 4.32111 -0.17351
92 2 38.2902 4.32312 1.4493 38.2902 4.32312 1.4493
93 2 38.3047 4.3189 -1.77783 38.3047 4.3189 -1.77783
94 1 39.3748 5.9673 -0.161584 39.3748 5.9673 -0.161584
95 2 41.4419 5.97188 1.46074 41.4419 5.97188 1.46074
96 2 41.4557 5.9624 -1.76637 41.4557 5.9624 -1.76637
97 1 42.5266 4.32094 -0.143386 42.5266 4.32094 -0.143386
98 2 44.593 4.32732 1.48027 44.593 4.32732 1.48027
99 2 44.6087 4.31423 -1.74678 44.6087 4.31423 -1.74678
100 1 45.6783 5.96704 -0.134698 45.6783 5.96704 -0.134698
101 2 47.746 5.97555 1.48732 47.746 5.97555 1.48732
102 2 47.7592 5.95817 -1.73974 47.7592 5.95817 -1.73974
103 1 48.8305 4.32067 -0.112961 48.8305 4.32067 -0.112961
104 2 50.8993 4.32853 1.50765 50.8993 4.32853 1.50765
105 2 50.9101 4.31247 -1.71943 50.9101 4.31247 -1.71943
106 1 51.9821 5.96679 -0.110552 51.9821 5.96679 -0.110552
107 2 54.0529 5.9758 1.50744 54.0529 5.9758 1.50744
108 2 54.0596 5.95746 -1.71965 54.0596 5.95746 -1.71965
109 1 -1.58988 7.61295 -0.113306 -1.58988 7.61295 -0.113306
110 2 0.482717 7.622 1.5021 0.482717 7.622 1.5021
111 2 0.485479 7.60365 -1.725 0.485479 7.60365 -1.725
112 1 1.56134 9.25917 -0.120014 1.56134 9.25917 -0.120014
113 2 3.6362 9.26758 1.49251 3.6362 9.26758 1.49251
114 2 3.63449 9.25057 -1.73459 3.63449 9.25057 -1.73459
115 1 4.71316 7.61288 -0.112989 4.71316 7.61288 -0.112989
116 2 6.79183 7.61924 1.49469 6.79183 7.61924 1.49469
117 2 6.7824 7.60638 -1.73243 6.7824 7.60638 -1.73243
118 1 7.86426 9.25919 -0.12867 7.86426 9.25919 -0.12867
119 2 9.94425 9.2646 1.47714 9.94425 9.2646 1.47714
120 2 9.93197 9.25372 -1.75 9.93197 9.25372 -1.75
121 1 11.0157 7.61295 -0.134946 11.0157 7.61295 -0.134946
122 2 13.0979 7.61586 1.4678 13.0979 7.61586 1.4678
123 2 13.0808 7.61005 -1.75935 13.0808 7.61005 -1.75935
124 1 14.1664 9.25936 -0.154441 14.1664 9.25936 -0.154441
125 2 16.247 9.26083 1.45009 16.247 9.26083 1.45009
126 2 16.2328 9.25797 -1.77709 16.2328 9.25797 -1.77709
127 1 17.3174 7.61319 -0.166646 17.3174 7.61319 -0.166646
128 2 19.3974 7.61263 1.4386 19.3974 7.61263 1.4386
129 2 19.3844 7.61386 -1.78859 19.3844 7.61386 -1.78859
130 1 20.4679 9.25965 -0.17865 20.4679 9.25965 -0.17865
131 2 22.5443 9.25754 1.43108 22.5443 9.25754 1.43108
132 2 22.5384 9.26186 -1.79612 22.5384 9.26186 -1.79612
133 1 23.6189 7.61349 -0.186565 23.6189 7.61349 -0.186565
134 2 25.6935 7.61055 1.42546 25.6935 7.61055 1.42546
135 2 25.6913 7.61647 -1.80174 25.6913 7.61647 -1.80174
136 1 26.7694 9.25989 -0.185865 26.7694 9.25989 -0.185865
137 2 28.8415 9.25605 1.42959 28.8415 9.25605 1.42959
138 2 28.8446 9.26369 -1.7976 28.8446 9.26369 -1.7976
139 1 29.9206 7.61366 -0.1868 29.9206 7.61366 -0.1868
140 2 31.9912 7.61121 1.43068 31.9912 7.61121 1.43068
141 2 31.9975 7.61601 -1.79649 31.9975 7.61601 -1.79649
142 1 33.0715 9.25995 -0.178398 33.0715 9.25995 -0.178398
143 2 35.1416 9.25798 1.4398 35.1416 9.25798 1.4398
144 2 35.149 9.26172 -1.78736 35.149 9.26172 -1.78736
145 1 36.2231 7.61364 -0.173214 36.2231 7.61364 -0.173214
146 2 38.2918 7.61503 1.44694 38.2918 7.61503 1.44694
147 2 38.3022 7.61198 -1.7802 38.3022 7.61198 -1.7802
148 1 39.3743 9.25981 -0.164732 39.3743 9.25981 -0.164732
149 2 41.4438 9.26255 1.45451 41.4438 9.26255 1.45451
150 2 41.4528 9.25673 -1.77261 41.4528 9.25673 -1.77261
151 1 42.5262 7.61343 -0.153083 42.5262 7.61343 -0.153083
152 2 44.5944 7.61992 1.46805 44.5944 7.61992 1.46805
153 2 44.6063 7.60656 -1.75902 44.6063 7.60656 -1.75902
154 1 45.6778 9.25953 -0.148316 45.6778 9.25953 -0.148316
155 2 47.747 9.26704 1.47163 47.747 9.26704 1.47163
156 2 47.7572 9.25165 -1.75544 47.7572 9.25165 -1.75544
157 1 48.83 7.61314 -0.130707 48.83 7.61314 -0.130707
158 2 50.899 7.62266 1.4896 50.899 7.62266 1.4896
159 2 50.9096 7.60328 -1.73746 50.9096 7.60328 -1.73746
160 1 51.9816 9.25928 -0.130353 51.9816 9.25928 -0.130353
161 2 54.052 9.26875 1.48798 54.052 9.26875 1.48798
162 2 54.0595 9.24952 -1.7391 54.0595 9.24952 -1.7391
163 1 -1.59046 10.9055 -0.132934 -1.59046 10.9055 -0.132934
164 2 0.481486 10.9143 1.48319 0.481486 10.9143 1.48319
165 2 0.485535 10.8965 -1.74391 0.485535 10.8965 -1.74391
166 1 1.56075 12.5517 -0.138179 1.56075 12.5517 -0.138179
167 2 3.63481 12.5595 1.47529 3.63481 12.5595 1.47529
168 2 3.63468 12.5438 -1.75182 3.63468 12.5438 -1.75182
169 1 4.71255 10.9054 -0.130396 4.71255 10.9054 -0.130396
170 2 6.78945 10.9127 1.47946 6.78945 10.9127 1.47946
171 2 6.78356 10.8981 -1.74766 6.78356 10.8981 -1.74766
172 1 7.86366 12.5518 -0.14357 7.86366 12.5518 -0.14357
173 2 9.94163 12.5571 1.46478 9.94163 12.5571 1.46478
174 2 9.93341 12.5464 -1.76237 9.93341 12.5464 -1.76237
175 1 11.0151 10.9056 -0.146119 11.0151 10.9056 -0.146119
176 2 13.095 10.9091 1.4596 13.095 10.9091 1.4596
177 2 13.0826 10.902 -1.76757 13.0826 10.902 -1.76757
178 1 14.1658 12.552 -0.1617 14.1658 12.552 -0.1617
179 2 16.2439 12.5528 1.44609 16.2439 12.5528 1.44609
180 2 16.2348 12.5513 -1.7811 16.2348 12.5513 -1.7811
181 1 17.3169 10.9058 -0.169652 17.3169 10.9058 -0.169652
182 2 19.3946 10.905 1.4385 19.3946 10.905 1.4385
183 2 19.3862 10.9067 -1.7887 19.3862 10.9067 -1.7887
184 1 20.4674 12.5523 -0.177001 20.4674 12.5523 -0.177001
185 2 22.5418 12.549 1.43527 22.5418 12.549 1.43527
186 2 22.5399 12.5556 -1.79194 22.5399 12.5556 -1.79194
187 1 23.6184 10.9061 -0.182256 23.6184 10.9061 -0.182256
188 2 25.6916 10.9021 1.43156 25.6916 10.9021 1.43156
189 2 25.6922 10.9101 -1.79563 25.6922 10.9101 -1.79563
190 1 26.769 12.5525 -0.177762 26.769 12.5525 -0.177762
191 2 28.8404 12.5471 1.4385 28.8404 12.5471 1.4385
192 2 28.8448 12.5578 -1.78867 28.8448 12.5578 -1.78867
193 1 29.9202 10.9062 -0.179102 29.9202 10.9062 -0.179102
194 2 31.9911 10.9018 1.43783 31.9911 10.9018 1.43783
195 2 31.9966 10.9105 -1.78933 31.9966 10.9105 -1.78933
196 1 33.071 12.5525 -0.169539 33.071 12.5525 -0.169539
197 2 35.1424 12.548 1.44707 35.1424 12.548 1.44707
198 2 35.1473 12.5568 -1.78008 35.1473 12.5568 -1.78008
199 1 36.2226 10.9062 -0.169456 36.2226 10.9062 -0.169456
200 2 38.2934 10.9048 1.44803 38.2934 10.9048 1.44803
201 2 38.2996 10.9073 -1.77912 38.2996 10.9073 -1.77912
202 1 39.3738 12.5523 -0.162237 39.3738 12.5523 -0.162237
203 2 41.4459 12.5517 1.45376 41.4459 12.5517 1.45376
204 2 41.4498 12.5527 -1.77338 41.4498 12.5527 -1.77338
205 1 42.5257 10.9059 -0.159037 42.5257 10.9059 -0.159037
206 2 44.5963 10.9096 1.45894 44.5963 10.9096 1.45894
207 2 44.6034 10.9019 -1.76816 44.6034 10.9019 -1.76816
208 1 45.6773 12.5521 -0.156199 45.6773 12.5521 -0.156199
209 2 47.7487 12.5563 1.46086 47.7487 12.5563 1.46086
210 2 47.7544 12.5475 -1.76624 47.7544 12.5475 -1.76624
211 1 48.8295 10.9057 -0.146395 48.8295 10.9057 -0.146395
212 2 50.8996 10.9134 1.4724 50.8996 10.9134 1.4724
213 2 50.9079 10.8976 -1.75468 50.9079 10.8976 -1.75468
214 1 51.9811 12.5518 -0.146442 51.9811 12.5518 -0.146442
215 2 54.052 12.5592 1.471 54.052 12.5592 1.471
216 2 54.0583 12.5442 -1.75611 54.0583 12.5442 -1.75611
217 1 -1.59101 14.198 -0.148146 -1.59101 14.198 -0.148146
218 2 0.481362 14.2049 1.46738 0.481362 14.2049 1.46738
219 2 0.484534 14.191 -1.75974 0.484534 14.191 -1.75974
220 1 1.56023 15.8443 -0.152209 1.56023 15.8443 -0.152209
221 2 3.63445 15.8505 1.46106 3.63445 15.8505 1.46106
222 2 3.63401 15.838 -1.76606 3.63401 15.838 -1.76606
223 1 4.71198 14.198 -0.146374 4.71198 14.198 -0.146374
224 2 6.78782 14.2044 1.46481 6.78782 14.2044 1.46481
225 2 6.78406 14.1916 -1.76232 6.78406 14.1916 -1.76232
226 1 7.86317 15.8444 -0.156524 7.86317 15.8444 -0.156524
227 2 9.93952 15.8486 1.4539 9.93952 15.8486 1.4539
228 2 9.93455 15.8401 -1.77327 9.93455 15.8401 -1.77327
229 1 11.0146 14.1981 -0.156992 11.0146 14.1981 -0.156992
230 2 13.0921 14.2008 1.45174 13.0921 14.2008 1.45174
231 2 13.0845 14.1956 -1.77545 13.0845 14.1956 -1.77545
232 1 14.1654 15.8446 -0.167021 14.1654 15.8446 -0.167021
233 2 16.241 15.8445 1.44385 16.241 15.8445 1.44385
234 2 16.2368 15.8448 -1.78335 16.2368 15.8448 -1.78335
235 1 17.3164 14.1984 -0.171253 17.3164 14.1984 -0.171253
236 2 19.3918 14.1964 1.43985 19.3918 14.1964 1.43985
237 2 19.388 14.2005 -1.78735 19.388 14.2005 -1.78735
238 1 20.467 15.8448 -0.172904 20.467 15.8448 -0.172904
239 2 22.5398 15.841 1.44153 22.5398 15.841 1.44153
240 2 22.5412 15.8488 -1.78567 22.5412 15.8488 -1.78567
241 1 23.618 14.1987 -0.175568 23.618 14.1987 -0.175568
242 2 25.6899 14.1936 1.43994 25.6899 14.1936 1.43994
243 2 25.6931 14.2038 -1.78724 25.6931 14.2038 -1.78724
244 1 26.7686 15.845 -0.167412 26.7686 15.845 -0.167412
245 2 28.8397 15.8394 1.44942 28.8397 15.8394 1.44942
246 2 28.8448 15.8506 -1.77775 28.8448 15.8506 -1.77775
247 1 29.9198 14.1988 -0.168198 29.9198 14.1988 -0.168198
248 2 31.991 14.1929 1.44842 31.991 14.1929 1.44842
249 2 31.9959 14.2046 -1.77873 31.9959 14.2046 -1.77873
250 1 33.0707 15.845 -0.157638 33.0707 15.845 -0.157638
251 2 35.1431 15.8396 1.45776 35.1431 15.8396 1.45776
252 2 35.1459 15.8503 -1.76939 35.1459 15.8503 -1.76939
253 1 36.2221 14.1987 -0.160404 36.2221 14.1987 -0.160404
254 2 38.2949 14.1947 1.45459 38.2949 14.1947 1.45459
255 2 38.2972 14.2025 -1.77255 38.2972 14.2025 -1.77255
256 1 39.3734 15.8449 -0.154292 39.3734 15.8449 -0.154292
257 2 41.4478 15.8419 1.45878 41.4478 15.8419 1.45878
258 2 41.4471 15.8476 -1.76835 41.4471 15.8476 -1.76835
259 1 42.5252 14.1985 -0.158011 42.5252 14.1985 -0.158011
260 2 44.5985 14.1986 1.45657 44.5985 14.1986 1.45657
261 2 44.6003 14.1981 -1.77054 44.6003 14.1981 -1.77054
262 1 45.6769 15.8446 -0.156637 45.6769 15.8446 -0.156637
263 2 47.7509 15.8455 1.45714 47.7509 15.8455 1.45714
264 2 47.7514 15.8434 -1.76997 47.7514 15.8434 -1.76997
265 1 48.829 14.1982 -0.155229 48.829 14.1982 -0.155229
266 2 50.901 14.2026 1.46108 50.901 14.2026 1.46108
267 2 50.9055 14.1936 -1.76603 50.9055 14.1936 -1.76603
268 1 51.9806 15.8444 -0.15555 51.9806 15.8444 -0.15555
269 2 54.0532 15.849 1.45976 54.0532 15.849 1.45976
270 2 54.0561 15.8396 -1.76737 54.0561 15.8396 -1.76737
271 1 -1.59145 17.4907 -0.15764 -1.59145 17.4907 -0.15764
272 2 0.482301 17.4956 1.45616 0.482301 17.4956 1.45616
273 2 0.482711 17.4855 -1.77097 0.482711 17.4855 -1.77097
274 1 1.55988 19.1369 -0.162406 1.55988 19.1369 -0.162406
275 2 3.63485 19.1421 1.44994 3.63485 19.1421 1.44994
276 2 3.63292 19.1317 -1.77719 3.63292 19.1317 -1.77719
277 1 4.71155 17.4906 -0.159026 4.71155 17.4906 -0.159026
278 2 6.78693 17.4958 1.45274 6.78693 17.4958 1.45274
279 2 6.78409 17.4854 -1.77439 6.78409 17.4854 -1.77439
280 1 7.86284 19.1369 -0.167026 7.86284 19.1369 -0.167026
281 2 9.93808 19.1408 1.44485 9.93808 19.1408 1.44485
282 2 9.93536 19.1331 -1.78231 9.93536 19.1331 -1.78231
283 1 11.0142 17.4907 -0.165676 11.0142 17.4907 -0.165676
284 2 13.0897 17.4928 1.44569 13.0897 17.4928 1.44569
285 2 13.0861 17.4888 -1.7815 13.0861 17.4888 -1.7815
286 1 14.1651 19.1371 -0.17104 14.1651 19.1371 -0.17104
287 2 16.2389 19.1376 1.44236 16.2389 19.1376 1.44236
288 2 16.2385 19.1369 -1.78484 16.2385 19.1369 -1.78484
289 1 17.3161 17.491 -0.17095 17.3161 17.491 -0.17095
290 2 19.3896 17.489 1.44271 19.3896 17.489 1.44271
291 2 19.3897 17.4931 -1.7845 19.3897 17.4931 -1.7845
292 1 20.4668 19.1374 -0.168689 20.4668 19.1374 -0.168689
293 2 22.5385 19.135 1.44733 22.5385 19.135 1.44733
294 2 22.5422 19.14 -1.77988 22.5422 19.14 -1.77988
295 1 23.6177 17.4912 -0.167548 23.6177 17.4912 -0.167548
296 2 25.6889 17.4869 1.44906 25.6889 17.4869 1.44906
297 2 25.6936 17.4956 -1.77812 25.6936 17.4956 -1.77812
298 1 26.7685 19.1376 -0.158455 26.7685 19.1376 -0.158455
299 2 28.8393 19.134 1.45868 28.8393 19.134 1.45868
300 2 28.8448 19.1412 -1.7685 28.8448 19.1412 -1.7685
301 1 29.9195 17.4913 -0.156742 29.9195 17.4913 -0.156742
302 2 31.991 17.4863 1.45968 31.991 17.4863 1.45968
303 2 31.9954 17.4963 -1.76748 31.9954 17.4963 -1.76748
304 1 33.0705 19.1376 -0.147326 33.0705 19.1376 -0.147326
305 2 35.1435 19.1339 1.46736 35.1435 19.1339 1.46736
306 2 35.1451 19.1412 -1.7598 35.1451 19.1412 -1.7598
307 1 36.2219 17.4913 -0.149442 36.2219 17.4913 -0.149442
308 2 38.2961 17.487 1.4638 38.2961 17.487 1.4638
309 2 38.2955 17.4953 -1.76334 38.2955 17.4953 -1.76334
310 1 39.3732 19.1375 -0.145727 39.3732 19.1375 -0.145727
311 2 41.4491 19.1347 1.46549 41.4491 19.1347 1.46549
312 2 41.4453 19.14 -1.76164 41.4453 19.14 -1.76164
313 1 42.5249 17.4911 -0.152109 42.5249 17.4911 -0.152109
314 2 44.6005 17.4893 1.45957 44.6005 17.4893 1.45957
315 2 44.5976 17.4925 -1.76754 44.5976 17.4925 -1.76754
316 1 45.6766 19.1373 -0.15328 45.6766 19.1373 -0.15328
317 2 47.7528 19.137 1.45776 47.7528 19.137 1.45776
318 2 47.7489 19.1373 -1.76935 47.7489 19.1373 -1.76935
319 1 48.8286 17.4908 -0.15728 48.8286 17.4908 -0.15728
320 2 50.9029 17.4928 1.45605 50.9029 17.4928 1.45605
321 2 50.9027 17.4886 -1.77108 50.9027 17.4886 -1.77108
322 1 51.9802 19.137 -0.159664 51.9802 19.137 -0.159664
323 2 54.0549 19.1402 1.4531 54.0549 19.1402 1.4531
324 2 54.0537 19.1337 -1.77403 54.0537 19.1337 -1.77403
325 1 -1.59169 20.7833 -0.164116 -1.59169 20.7833 -0.164116
326 2 0.483588 20.7875 1.44775 0.483588 20.7875 1.44775
327 2 0.480931 20.779 -1.77938 0.480931 20.779 -1.77938
328 1 1.55975 22.4295 -0.171008 1.55975 22.4295 -0.171008
329 2 3.63552 22.4343 1.4403 3.63552 22.4343 1.4403
330 2 3.63198 22.4247 -1.78682 3.63198 22.4247 -1.78682
331 1 4.71131 20.7832 -0.169525 4.71131 20.7832 -0.169525
332 2 6.7866 20.7881 1.44239 6.7866 20.7881 1.44239
333 2 6.78396 20.7783 -1.78475 6.78396 20.7783 -1.78475
334 1 7.86273 22.4295 -0.17703 7.86273 22.4295 -0.17703
335 2 9.93725 22.4341 1.43578 9.93725 22.4341 1.43578
336 2 9.936 22.425 -1.79138 9.936 22.425 -1.79138
337 1 11.014 20.7833 -0.173522 11.014 20.7833 -0.173522
338 2 13.088 20.7862 1.43979 13.088 20.7862 1.43979
339 2 13.0875 20.7805 -1.7874 13.0875 20.7805 -1.7874
340 1 14.165 22.4297 -0.176779 14.165 22.4297 -0.176779
341 2 16.2374 22.4324 1.43841 16.2374 22.4324 1.43841
342 2 16.2398 22.4271 -1.78879 16.2398 22.4271 -1.78879
343 1 17.3159 20.7835 -0.171641 17.3159 20.7835 -0.171641
344 2 19.388 20.7836 1.4439 19.388 20.7836 1.4439
345 2 19.3909 20.7837 -1.78331 19.3909 20.7837 -1.78331
346 1 20.4668 22.4299 -0.168642 20.4668 22.4299 -0.168642
347 2 22.5377 22.431 1.44839 22.5377 22.431 1.44839
348 2 22.5429 22.429 -1.77882 22.5429 22.429 -1.77882
349 1 23.6176 20.7838 -0.162423 23.6176 20.7838 -0.162423
350 2 25.6884 20.7824 1.45479 25.6884 20.7824 1.45479
351 2 25.6939 20.7853 -1.7724 25.6939 20.7853 -1.7724
352 1 26.7685 22.4301 -0.155411 26.7685 22.4301 -0.155411
353 2 28.8393 22.4306 1.46184 28.8393 22.4306 1.46184
354 2 28.8449 22.4297 -1.76534 28.8449 22.4297 -1.76534
355 1 29.9194 20.7839 -0.149454 29.9194 20.7839 -0.149454
356 2 31.9911 20.7821 1.46683 31.9911 20.7821 1.46683
357 2 31.9951 20.7857 -1.76034 31.9951 20.7857 -1.76034
358 1 33.0706 22.4302 -0.143549 33.0706 22.4302 -0.143549
359 2 35.1436 22.4301 1.47112 35.1436 22.4301 1.47112
360 2 35.1451 22.4302 -1.75605 35.1451 22.4302 -1.75605
361 1 36.2218 20.7838 -0.142038 36.2218 20.7838 -0.142038
362 2 38.2966 20.7818 1.47052 38.2966 20.7818 1.47052
363 2 38.2948 20.7858 -1.75663 38.2948 20.7858 -1.75663
364 1 39.3732 22.4301 -0.141648 39.3732 22.4301 -0.141648
365 2 41.4495 22.4294 1.46915 41.4495 22.4294 1.46915
366 2 41.4449 22.4307 -1.75799 41.4449 22.4307 -1.75799
367 1 42.5248 20.7837 -0.146606 42.5248 20.7837 -0.146606
368 2 44.6017 20.7824 1.46337 44.6017 20.7824 1.46337
369 2 44.596 20.7847 -1.76374 44.596 20.7847 -1.76374
370 1 45.6765 22.4299 -0.150883 45.6765 22.4299 -0.150883
371 2 47.754 22.43 1.45858 47.754 22.43 1.45858
372 2 47.7475 22.4296 -1.76853 47.7475 22.4296 -1.76853
373 1 48.8284 20.7835 -0.156896 48.8284 20.7835 -0.156896
374 2 50.9047 20.7848 1.45392 50.9047 20.7848 1.45392
375 2 50.9004 20.782 -1.7732 50.9004 20.782 -1.7732
376 1 51.9801 22.4297 -0.162449 51.9801 22.4297 -0.162449
377 2 54.0565 22.4324 1.44814 54.0565 22.4324 1.44814
378 2 54.0519 22.4268 -1.77899 54.0519 22.4268 -1.77899
379 1 -1.5917 24.0759 -0.169808 -1.5917 24.0759 -0.169808
380 2 0.484817 24.0796 1.44045 0.484817 24.0796 1.44045
381 2 0.479678 24.0721 -1.78668 0.479678 24.0721 -1.78668
382 1 1.55986 25.7221 -0.178619 1.55986 25.7221 -0.178619
383 2 3.63639 25.7263 1.43168 3.63639 25.7263 1.43168
384 2 3.63133 25.718 -1.79545 3.63133 25.718 -1.79545
385 1 4.7113 24.0758 -0.17931 4.7113 24.0758 -0.17931
386 2 6.78674 24.0808 1.43239 6.78674 24.0808 1.43239
387 2 6.78381 24.0708 -1.79474 6.78381 24.0708 -1.79474
388 1 7.86285 25.7221 -0.18716 7.86285 25.7221 -0.18716
389 2 9.93733 25.7274 1.42569 9.93733 25.7274 1.42569
390 2 9.93618 25.7168 -1.80147 9.93618 25.7168 -1.80147
391 1 11.014 24.0758 -0.182794 11.014 24.0758 -0.182794
392 2 13.0871 24.0806 1.43162 13.0871 24.0806 1.43162
393 2 13.0884 24.0713 -1.79556 13.0884 24.0713 -1.79556
394 1 14.1652 25.7222 -0.186201 14.1652 25.7222 -0.186201
395 2 16.2371 25.7279 1.42967 16.2371 25.7279 1.42967
396 2 16.2405 25.7168 -1.79751 16.2405 25.7168 -1.79751
397 1 17.316 24.0761 -0.17702 17.316 24.0761 -0.17702
398 2 19.3872 24.0798 1.43967 19.3872 24.0798 1.43967
399 2 19.3919 24.0726 -1.78752 19.3919 24.0726 -1.78752
400 1 20.467 25.7224 -0.175957 20.467 25.7224 -0.175957
401 2 22.5375 25.728 1.44161 22.5375 25.728 1.44161
402 2 22.5435 25.7172 -1.78558 22.5435 25.7172 -1.78558
403 1 23.6177 24.0763 -0.164433 23.6177 24.0763 -0.164433
404 2 25.6883 24.0794 1.45315 25.6883 24.0794 1.45315
405 2 25.6943 24.0735 -1.77404 25.6943 24.0735 -1.77404
406 1 26.7687 25.7227 -0.161402 26.7687 25.7227 -0.161402
407 2 28.8395 25.728 1.45601 28.8395 25.728 1.45601
408 2 28.8452 25.7176 -1.77117 28.8452 25.7176 -1.77117
409 1 29.9196 24.0765 -0.15035 29.9196 24.0765 -0.15035
410 2 31.9912 24.0791 1.46605 31.9912 24.0791 1.46605
411 2 31.9953 24.0739 -1.76112 31.9953 24.0739 -1.76112
412 1 33.0708 25.7228 -0.148766 33.0708 25.7228 -0.148766
413 2 35.1432 25.7268 1.46667 35.1432 25.7268 1.46667
414 2 35.1459 25.7188 -1.76048 35.1459 25.7188 -1.76048
415 1 36.2219 24.0764 -0.141969 36.2219 24.0764 -0.141969
416 2 38.2963 24.0777 1.47105 38.2963 24.0777 1.47105
417 2 38.2953 24.0752 -1.75611 38.2953 24.0752 -1.75611
418 1 39.3734 25.7227 -0.144212 39.3734 25.7227 -0.144212
419 2 41.4488 25.7242 1.46762 41.4488 25.7242 1.46762
420 2 41.446 25.7211 -1.75952 41.446 25.7211 -1.75952
421 1 42.5248 24.0763 -0.145292 42.5248 24.0763 -0.145292
422 2 44.602 24.0764 1.46447 44.602 24.0764 1.46447
423 2 44.5959 24.076 -1.76264 44.5959 24.076 -1.76264
424 1 45.6767 25.7225 -0.151342 45.6767 25.7225 -0.151342
425 2 47.7543 25.723 1.45789 47.7543 25.723 1.45789
426 2 47.7475 25.7219 -1.76922 47.7475 25.7219 -1.76922
427 1 48.8284 24.0761 -0.157336 48.8284 24.0761 -0.157336
428 2 50.9059 24.0774 1.45194 50.9059 24.0774 1.45194
429 2 50.8992 24.0747 -1.77518 50.8992 24.0747 -1.77518
430 1 51.9802 25.7223 -0.165239 51.9802 25.7223 -0.165239
431 2 54.0577 25.7243 1.44391 54.0577 25.7243 1.44391
432 2 54.0509 25.7202 -1.78322 54.0509 25.7202 -1.78322
433 1 -1.59148 27.3685 -0.174069 -1.59148 27.3685 -0.174069
434 2 0.48598 27.3708 1.43495 0.48598 27.3708 1.43495
435 2 0.47896 27.3662 -1.79219 0.47896 27.3662 -1.79219
436 1 1.56018 29.0147 -0.183285 1.56018 29.0147 -0.183285
437 2 3.63761 29.0169 1.42582 3.63761 29.0169 1.42582
438 2 3.63077 29.0125 -1.80131 3.63077 29.0125 -1.80131
439 1 4.71152 27.3684 -0.187768 4.71152 27.3684 -0.187768
440 2 6.78749 27.3728 1.42321 6.78749 27.3728 1.42321
441 2 6.78351 27.364 -1.80393 6.78351 27.364 -1.80393
442 1 7.86318 29.0146 -0.196119 7.86318 29.0146 -0.196119
443 2 9.93839 29.0196 1.41575 9.93839 29.0196 1.41575
444 2 9.9358 29.0098 -1.81141 9.9358 29.0098 -1.81141
445 1 11.0143 27.3684 -0.193619 11.0143 27.3684 -0.193619
446 2 13.0875 27.3746 1.42067 13.0875 27.3746 1.42067
447 2 13.0886 27.3623 -1.8065 13.0886 27.3623 -1.8065
448 1 14.1656 29.0147 -0.198765 14.1656 29.0147 -0.198765
449 2 16.2377 29.0223 1.41662 16.2377 29.0223 1.41662
450 2 16.2406 29.0074 -1.81055 16.2406 29.0074 -1.81055
451 1 17.3163 27.3686 -0.188372 17.3163 27.3686 -0.188372
452 2 19.3873 27.3759 1.42856 19.3873 27.3759 1.42856
453 2 19.3924 27.3616 -1.79861 19.3924 27.3616 -1.79861
454 1 20.4674 29.0149 -0.190564 20.4674 29.0149 -0.190564
455 2 22.5379 29.024 1.42697 22.5379 29.024 1.42697
456 2 22.544 29.0062 -1.80018 22.544 29.0062 -1.80018
457 1 23.618 27.3688 -0.175428 23.618 27.3688 -0.175428
458 2 25.6884 27.3764 1.44238 25.6884 27.3764 1.44238
459 2 25.6948 27.3615 -1.78478 25.6948 27.3615 -1.78478
460 1 26.7691 29.0152 -0.176653 26.7691 29.0152 -0.176653
461 2 28.8394 29.0243 1.44124 28.8394 29.0243 1.44124
462 2 28.8461 29.0063 -1.7859 28.8461 29.0063 -1.7859
463 1 29.9199 27.369 -0.160948 29.9199 27.369 -0.160948
464 2 31.9909 27.3758 1.45616 31.9909 27.3758 1.45616
465 2 31.9963 27.3624 -1.77099 31.9963 27.3624 -1.77099
466 1 33.0712 29.0153 -0.162508 33.0712 29.0153 -0.162508
467 2 35.1421 29.0221 1.45474 35.1421 29.0221 1.45474
468 2 35.1478 29.0086 -1.77239 35.1478 29.0086 -1.77239
469 1 36.2222 27.369 -0.150096 36.2222 27.369 -0.150096
470 2 38.2952 27.373 1.4647 38.2952 27.373 1.4647
471 2 38.297 27.365 -1.76244 38.297 27.365 -1.76244
472 1 39.3738 29.0153 -0.152437 39.3738 29.0153 -0.152437
473 2 41.4471 29.0178 1.46203 41.4471 29.0178 1.46203
474 2 41.4484 29.0128 -1.76511 41.4484 29.0128 -1.76511
475 1 42.5251 27.3689 -0.148599 42.5251 27.3689 -0.148599
476 2 44.6011 27.3698 1.46256 44.6011 27.3698 1.46256
477 2 44.5973 27.368 -1.76455 44.5973 27.368 -1.76455
478 1 45.677 29.0151 -0.1533 45.677 29.0151 -0.1533
479 2 47.7537 29.0147 1.45713 47.7537 29.0147 1.45713
480 2 47.7488 29.0156 -1.76999 47.7488 29.0156 -1.76999
481 1 48.8287 27.3687 -0.158556 48.8287 27.3687 -0.158556
482 2 50.9065 27.3691 1.45031 50.9065 27.3691 1.45031
483 2 50.8992 27.3683 -1.77681 50.8992 27.3683 -1.77681
484 1 51.9806 29.015 -0.166173 51.9806 29.015 -0.166173
485 2 54.0586 29.0148 1.44224 54.0586 29.0148 1.44224
486 2 54.0507 29.015 -1.7849 54.0507 29.015 -1.7849
487 1 -1.59106 30.6611 -0.173936 -1.59106 30.6611 -0.173936
488 2 0.487241 30.6604 1.43397 0.487241 30.6604 1.43397
489 2 0.478542 30.6619 -1.79317 0.478542 30.6619 -1.79317
490 1 1.56068 32.3073 -0.18174 1.56068 32.3073 -0.18174
491 2 3.6393 32.3059 1.4258 3.6393 32.3059 1.4258
492 2 3.63007 32.3087 -1.80134 3.63007 32.3087 -1.80134
493 1 4.71194 30.6609 -0.192246 4.71194 30.6609 -0.192246
494 2 6.78906 30.6632 1.41721 6.78906 30.6632 1.41721
495 2 6.78278 30.6587 -1.80994 6.78278 30.6587 -1.80994
496 1 7.86367 32.3072 -0.200743 7.86367 32.3072 -0.200743
497 2 9.9404 32.3098 1.40911 9.9404 32.3098 1.40911
498 2 9.93476 32.3046 -1.81806 9.93476 32.3046 -1.81806
499 1 11.0147 30.6609 -0.203656 11.0147 30.6609 -0.203656
500 2 13.089 30.6669 1.40914 13.089 30.6669 1.40914
501 2 13.0879 30.6551 -1.81803 13.0879 30.6551 -1.81803
502 1 14.166 32.3072 -0.21076 14.166 32.3072 -0.21076
503 2 16.2395 32.3142 1.40288 16.2395 32.3142 1.40288
504 2 16.2398 32.3004 -1.82429 16.2398 32.3004 -1.82429
505 1 17.3167 30.661 -0.203544 17.3167 30.661 -0.203544
506 2 19.3883 30.67 1.41261 19.3883 30.67 1.41261
507 2 19.3924 30.6524 -1.81455 19.3924 30.6524 -1.81455
508 1 20.4679 32.3074 -0.208588 20.4679 32.3074 -0.208588
509 2 22.5389 32.3174 1.40818 22.5389 32.3174 1.40818
510 2 22.544 32.2977 -1.81897 22.544 32.2977 -1.81897
511 1 23.6185 30.6613 -0.193631 23.6185 30.6613 -0.193631
512 2 25.6887 30.6716 1.42427 25.6887 30.6716 1.42427
513 2 25.6954 30.6513 -1.80286 25.6954 30.6513 -1.80286
514 1 26.7697 32.3077 -0.197402 26.7697 32.3077 -0.197402
515 2 28.8393 32.318 1.42121 28.8393 32.318 1.42121
516 2 28.8472 32.2976 -1.80591 28.8472 32.2976 -1.80591
517 1 29.9204 30.6615 -0.17927 29.9204 30.6615 -0.17927
518 2 31.9902 30.6706 1.43927 31.9902 30.6706 1.43927
519 2 31.9979 30.6526 -1.78785 31.9979 30.6526 -1.78785
520 1 33.0717 32.3078 -0.18091 33.0717 32.3078 -0.18091
521 2 35.1404 32.315 1.43911 35.1404 32.315 1.43911
522 2 35.1505 32.3008 -1.78801 35.1505 32.3008 -1.78801
523 1 36.2227 30.6616 -0.163838 36.2227 30.6616 -0.163838
524 2 38.2932 30.6664 1.45402 38.2932 30.6664 1.45402
525 2 38.2999 30.6568 -1.77311 38.2999 30.6568 -1.77311
526 1 39.3743 32.3079 -0.16231 39.3743 32.3079 -0.16231
527 2 41.4445 32.3094 1.45595 41.4445 32.3094 1.45595
528 2 41.4519 32.3064 -1.77119 41.4519 32.3064 -1.77119
529 1 42.5255 30.6615 -0.153728 42.5255 30.6615 -0.153728
530 2 44.5993 30.6614 1.46021 44.5993 30.6614 1.46021
531 2 44.5999 30.6616 -1.76691 44.5999 30.6616 -1.76691
532 1 45.6775 32.3078 -0.153191 45.6775 32.3078 -0.153191
533 2 47.7524 32.3047 1.45952 47.7524 32.3047 1.45952
534 2 47.7511 32.3109 -1.7676 47.7511 32.3109 -1.7676
535 1 48.8291 30.6614 -0.157694 48.8291 30.6614 -0.157694
536 2 50.9064 30.6592 1.45175 50.9064 30.6592 1.45175
537 2 50.9001 30.6635 -1.77538 50.9001 30.6635 -1.77538
538 1 51.9811 32.3076 -0.161833 51.9811 32.3076 -0.161833
539 2 54.0593 32.3038 1.44629 54.0593 32.3038 1.44629