LAMMPS (29 Aug 2024 - Update 2)
#!/bin/bash
units           metal
atom_style      atomic
boundary        p p p

# ---- System setup ----
read_data	MoSe2_nve.data
Reading data file ...
  orthogonal box = (0.84137701 0.80961581 -10) to (52.176228 50.206599 10)
  1 by 1 by 1 MPI processor grid
  reading atoms ...
  810 atoms
  reading velocities ...
  810 velocities
  read_data CPU = 0.004 seconds

# ---- Potential ----
pair_style      tersoff
pair_coeff      * * Potential.tersoff Mo Se

# ---- Settings ----
neighbor        2 bin
neigh_modify    every 10 delay 0 check yes

fix		1 all npt temp 0.1 0.1 0.1 x 0.0 0.0 1.0 y 0.0 0.0 1.0 couple none

timestep        0.001

thermo          10
thermo_style    custom step pe ke etotal temp lx ly lz pxx pyy

shell		mkdir coord
dump            1 all custom 1000 coord/dump.*.lammpstrj id type x y z xu yu zu
dump_modify     1 sort id flush yes pad 9


# ---- Dynamics ----
run             100000
Neighbor list info ...
  update: every = 10 steps, delay = 0 steps, check = yes
  max neighbors/atom: 2000, page size: 100000
  master list distance cutoff = 6.68
  ghost atom cutoff = 6.68
  binsize = 3.34, bins = 16 15 6
  1 neighbor lists, perpetual/occasional/extra = 1 0 0
  (1) pair tersoff, perpetual
      attributes: full, newton on
      pair build: full/bin/atomonly
      stencil: full/bin/3d
      bin: standard
Per MPI rank memory allocation (min/avg/max) = 3.084 | 3.084 | 3.084 Mbytes
   Step         PotEng         KinEng         TotEng          Temp            Lx             Ly             Lz            Pxx            Pyy      
         0  -4100.4094      31.06328      -4069.3462      297.05314      51.334851      49.396983      20             1089.0623      570.19163    
        10  -4101.6737      0.17893493    -4101.4948      1.711126       51.449887      49.418297      20            -957.00594     -594.52027    
        20  -4103.6034      0.18606194    -4103.4173      1.7792804      51.338455      49.354594      20             318.42095      270.46981    
        30  -4105.4186      0.18556826    -4105.2331      1.7745594      51.327101      49.362787      20             334.93593      106.36337    
        40  -4107.1117      0.1807757     -4106.9309      1.7287289      51.404717      49.380342      20            -657.35684     -336.09183    
        50  -4108.6984      0.17470139    -4108.5237      1.6706412      51.290448      49.330142      20             648.6162       402.21463    
        60  -4110.1755      0.16670594    -4110.0088      1.5941821      51.371461      49.374761      20            -428.36797     -351.03391    
        70  -4111.5398      0.15845191    -4111.3813      1.5152501      51.325643      49.330021      20             110.88657      200.64341    
        80  -4112.7922      0.15003049    -4112.6422      1.4347174      51.311088      49.345065      20             182.29961     -2.6132002    
        90  -4113.9422      0.14143812    -4113.8007      1.3525499      51.352706      49.348201      20            -346.93228     -172.20819    
       100  -4115.0021      0.13347693    -4114.8686      1.2764184      51.291472      49.316506      20             357.65688      277.09988    
       110  -4115.9798      0.12552913    -4115.8542      1.2004148      51.33421       49.354018      20            -246.71624     -287.73953    
       120  -4116.8809      0.11820366    -4116.7627      1.1303626      51.30967       49.313834      20             71.571003      196.87941    
       130  -4117.7097      0.11125234    -4117.5984      1.0638882      51.30096       49.333001      20             92.794136     -41.90478     
       140  -4118.472       0.10464146    -4118.3674      1.0006694      51.323013      49.333097      20            -188.91757     -114.53398    
       150  -4119.1753      0.098622426   -4119.0767      0.94311038     51.290084      49.308183      20             203.66021      219.5491     
       160  -4119.8256      0.092825171   -4119.7328      0.88767216     51.31328       49.341566      20            -154.24403     -240.04032    
       170  -4120.4278      0.08754933    -4120.3403      0.83722014     51.29758       49.307605      20             68.492223      171.06772    
       180  -4120.9848      0.082575493   -4120.9022      0.78965614     51.296962      49.324823      20             17.486777     -46.520692    
       190  -4121.4999      0.077923364   -4121.4219      0.74516858     51.303629      49.325413      20            -78.775508     -81.155704    
       200  -4121.9772      0.073659821   -4121.9035      0.704397       51.289151      49.305735      20             107.31987      166.44054    
       210  -4122.4207      0.0695977     -4122.3511      0.66555159     51.301621      49.332379      20            -104.79177     -182.44374    
       220  -4122.8337      0.06589065    -4122.7678      0.63010167     51.288924      49.307159      20             76.008026      129.58593    
       230  -4123.218       0.062388502   -4123.1556      0.5966112      51.295093      49.319564      20            -32.56039      -36.889911    
       240  -4123.5755      0.059128831   -4123.5164      0.56543949     51.292205      49.321073      20            -15.048747     -56.043259    
       250  -4123.9087      0.056112516   -4123.8526      0.53659495     51.287539      49.306699      20             56.680413      116.05458    
       260  -4124.2199      0.053251284   -4124.1666      0.50923345     51.295508      49.325481      20            -81.833582     -125.96756    
       270  -4124.5112      0.050623561   -4124.4605      0.48410496     51.28327       49.308844      20             81.910591      89.35211     
       280  -4124.7837      0.048132517   -4124.7356      0.4602835      51.29342       49.316754      20            -56.893025     -27.909882    
       290  -4125.0389      0.04581504    -4124.9931      0.43812184     51.286314      49.31805       20             13.380166     -32.401201    
       300  -4125.278       0.043651297   -4125.2343      0.41743032     51.285482      49.309141      20             34.794458      71.079962    
       310  -4125.5024      0.041602011   -4125.4608      0.39783333     51.292208      49.320547      20            -70.533938     -78.935375    
       320  -4125.7134      0.039707124   -4125.6737      0.37971283     51.280188      49.310641      20             80.253727      59.310054    
       330  -4125.912       0.037904983   -4125.8741      0.36247925     51.291339      49.315769      20            -60.954586     -25.090788    
       340  -4126.0989      0.036225847   -4126.0627      0.34642194     51.283809      49.315623      20             19.880339     -9.9946546    
       350  -4126.2749      0.034646841   -4126.2403      0.33132216     51.283552      49.311699      20             26.931692      35.260653    
       360  -4126.4409      0.033151679   -4126.4077      0.31702417     51.290004      49.317387      20            -61.234976     -45.686632    
       370  -4126.5977      0.031760832   -4126.5659      0.30372372     51.279089      49.311715      20             70.291095      41.653386    
       380  -4126.7459      0.030435028   -4126.7155      0.29104527     51.288941      49.315854      20            -52.444745     -27.598018    
       390  -4126.8862      0.029196953   -4126.857       0.27920576     51.282996      49.313733      20             16.169866      8.2895666    
       400  -4127.0189      0.028026931   -4126.9908      0.26801703     51.282188      49.313552      20             23.061716      11.221131    
       410  -4127.1445      0.02691884    -4127.1176      0.25742053     51.288042      49.315708      20            -49.813294     -26.514721    
       420  -4127.2638      0.025883245   -4127.2379      0.24751731     51.279231      49.311993      20             54.994723      33.981851    
       430  -4127.377       0.024895037   -4127.3521      0.23806722     51.28661       49.316279      20            -39.176421     -31.770838    
       440  -4127.4846      0.023970257   -4127.4607      0.2292237      51.28271       49.312499      20             10.631483      19.735356    
       450  -4127.5869      0.023093787   -4127.5639      0.22084216     51.281524      49.314413      20             18.184507     -1.0849851    
       460  -4127.6843      0.02226369    -4127.662       0.21290408     51.286094      49.315054      20            -36.429913     -18.370684    
       470  -4127.777       0.021485397   -4127.7555      0.20546139     51.279867      49.311781      20             38.84468       31.781107    
       480  -4127.8655      0.020742713   -4127.8447      0.19835922     51.284708      49.316504      20            -27.112682     -34.050161    
       490  -4127.9499      0.020046578   -4127.9299      0.1917022      51.282329      49.311933      20             7.5834956      23.655652    
       500  -4128.0306      0.019385908   -4128.0112      0.18538432     51.2814        49.314404      20             11.433955     -4.2968052    
       510  -4128.1076      0.018760348   -4128.0889      0.17940218     51.284273      49.3149        20            -23.451976     -16.615007    
       520  -4128.1814      0.018172628   -4128.1632      0.17378191     51.28042       49.311448      20             25.662699      30.790476    
       530  -4128.252       0.017612102   -4128.2344      0.1684217      51.283397      49.316275      20            -19.267673     -32.681525    
       540  -4128.3198      0.017086142   -4128.3027      0.16339202     51.28168       49.311872      20             7.7739809      21.580906    
       550  -4128.3848      0.016586706   -4128.3682      0.15861599     51.281501      49.313862      20             4.3103414     -2.3514737    
       560  -4128.4472      0.016113949   -4128.4311      0.1540951      51.282776      49.314809      20            -13.373572     -16.951293    
       570  -4128.5072      0.01566922    -4128.4915      0.14984223     51.280587      49.31123       20             17.324412      28.474832    
       580  -4128.5649      0.015245278   -4128.5496      0.14578814     51.28261       49.315609      20            -15.847995     -27.983416    
       590  -4128.6205      0.014847157   -4128.6056      0.14198098     51.280867      49.312046      20             9.7963284      16.286143    
       600  -4128.674       0.01446898    -4128.6596      0.13836453     51.281523      49.313139      20            -1.190901       1.0818947    
       610  -4128.7257      0.014110981   -4128.7116      0.13494104     51.281709      49.314526      20            -7.4874976     -16.673533    
       620  -4128.7756      0.013773877   -4128.7618      0.13171736     51.280328      49.311175      20             13.634754      24.296579    
       630  -4128.8238      0.013452501   -4128.8103      0.1286441      51.282137      49.314679      20            -15.307726     -21.585127    
       640  -4128.8704      0.013150416   -4128.8572      0.12575531     51.280076      49.312195      20             11.686492      10.503113    
       650  -4128.9155      0.012863281   -4128.9026      0.12300948     51.281285      49.312472      20            -3.8468895      3.6502507    
       660  -4128.9592      0.012591235   -4128.9466      0.12040796     51.28104       49.313991      20            -5.5722719     -14.911706    
       670  -4129.0015      0.012334788   -4128.9892      0.11795559     51.279776      49.311203      20             13.052698      19.087396    
       680  -4129.0426      0.012090058   -4129.0305      0.11561528     51.281748      49.313697      20            -15.638093     -15.342366    
       690  -4129.0825      0.011859676   -4129.0707      0.11341217     51.279449      49.312157      20             12.054753      6.0122578    
       700  -4129.1213      0.011640435   -4129.1097      0.11131561     51.280757      49.311951      20            -3.6117212      4.5536514    
       710  -4129.159       0.01143231    -4129.1476      0.10932534     51.280636      49.313281      20            -6.3469098     -12.111558    
       720  -4129.1957      0.011235826   -4129.1844      0.10744639     51.279118      49.311191      20             13.679962      14.109192    
       730  -4129.2314      0.011047929   -4129.2204      0.10564957     51.281275      49.312813      20            -15.317046     -10.522071    
       740  -4129.2662      0.010870635   -4129.2553      0.10395414     51.279028      49.311893      20             10.503744      3.38506      
       750  -4129.3001      0.010701616   -4129.2894      0.10233783     51.280022      49.311546      20            -1.3444204      4.142991     
       760  -4129.3332      0.010540657   -4129.3227      0.10079861     51.280332      49.312519      20            -8.2103483     -9.2324116    
       770  -4129.3656      0.01038839    -4129.3552      0.099342497    51.278504      49.311046      20             14.02397       10.308632    
       780  -4129.3971      0.010242346   -4129.3869      0.097945905    51.280655      49.312086      20            -13.688776     -7.5053122    
       790  -4129.428       0.010104084   -4129.4179      0.096623728    51.278768      49.311455      20             7.4655727      2.2587309    
       800  -4129.4582      0.0099719859  -4129.4482      0.095360495    51.279205      49.311179      20             1.7481477      3.2626417    
       810  -4129.4877      0.0098456554  -4129.4778      0.094152417    51.279999      49.311811      20            -9.8508251     -7.0814625    
       820  -4129.5166      0.0097258375  -4129.5068      0.093006617    51.278013      49.310743      20             13.325664      7.9904243    
       830  -4129.5449      0.0096105191  -4129.5353      0.091903846    51.279904      49.311495      20            -10.862566     -5.9388635    
       840  -4129.5726      0.0095008829  -4129.5631      0.090855413    51.278585      49.310937      20             3.7698925      1.8451157    
       850  -4129.5998      0.0093958927  -4129.5904      0.089851408    51.278419      49.310777      20             4.607467       2.6802254    
       860  -4129.6264      0.0092949955  -4129.6171      0.088886544    51.279567      49.311206      20            -10.532793     -5.982343     
       870  -4129.6525      0.0091990132  -4129.6434      0.087968681    51.27765       49.310315      20             11.502097      6.8724853    
       880  -4129.6782      0.0091063187  -4129.6691      0.087082259    51.279088      49.310979      20            -7.3732594     -5.1093242    
       890  -4129.7034      0.0090177613  -4129.6944      0.086235398    51.278394      49.310425      20             0.22937482     1.3986913    
       900  -4129.7281      0.0089327781  -4129.7192      0.085422718    51.277733      49.310303      20             6.5845536      2.7756378    
       910  -4129.7524      0.0088506986  -4129.7436      0.084637804    51.279025      49.310699      20            -10.079627     -5.7655586    
       920  -4129.7763      0.0087723636  -4129.7676      0.0838887      51.27738       49.309827      20             8.8846345      6.3518586    
       930  -4129.7998      0.0086964941  -4129.7911      0.083163172    51.278277      49.310472      20            -3.8346244     -4.3180853    
       940  -4129.8229      0.0086236338  -4129.8143      0.082466421    51.278143      49.30997       20            -2.6025417      0.4946587    
       950  -4129.8456      0.0085535962  -4129.8371      0.081796662    51.277169      49.309765      20             7.4609331      3.49455      
       960  -4129.868       0.0084856396  -4129.8595      0.081146805    51.278402      49.310251      20            -8.6830872     -5.9545195    
       970  -4129.89        0.0084205624  -4129.8816      0.080524482    51.277152      49.309345      20             5.9358499      5.8035571    
       980  -4129.9116      0.0083574095  -4129.9033      0.079920561    51.277523      49.309934      20            -0.7189078     -3.1263373    
       990  -4129.933       0.0082964456  -4129.9247      0.079337573    51.277809      49.309585      20            -4.4824141     -0.90275583   
      1000  -4129.954       0.0082377702  -4129.9458      0.07877647     51.276717      49.309199      20             7.3214901      4.4765702    
      1010  -4129.9747      0.0081806233  -4129.9665      0.078229983    51.27774       49.309812      20            -6.6823751     -6.0060923    
      1020  -4129.9951      0.0081257024  -4129.987       0.077704783    51.276925      49.308918      20             3.0579476      4.798509     
      1030  -4130.0152      0.0080723572  -4130.0071      0.077194652    51.276856      49.309354      20             1.710896      -1.4389541    
      1040  -4130.035       0.0080206063  -4130.027       0.076699766    51.277399      49.309248      20            -5.4004246     -2.5232876    
      1050  -4130.0546      0.0079707486  -4130.0466      0.076222985    51.276349      49.308654      20             6.3904554      5.2495161    
      1060  -4130.0738      0.0079220613  -4130.0659      0.075757396    51.277077      49.309344      20            -4.4072877     -5.5079301    
      1070  -4130.0928      0.0078750924  -4130.085       0.07530824     51.276674      49.308563      20             0.52239097     3.2021696    
      1080  -4130.1116      0.0078294748  -4130.1038      0.074872006    51.27628       49.308752      20             3.3602776      0.53946401   
      1090  -4130.1301      0.0077850236  -4130.1223      0.074446927    51.27693       49.308923      20            -5.4642856     -3.945204     
      1100  -4130.1484      0.0077421534  -4130.1406      0.074036965    51.276039      49.308171      20             4.9104674      5.4090092    
      1110  -4130.1664      0.0077002332  -4130.1587      0.07363609     51.276441      49.30883       20            -2.1162309     -4.2909504    
      1120  -4130.1842      0.0076596272  -4130.1765      0.073247781    51.276386      49.308271      20            -1.5092411      1.1671996    
      1130  -4130.2018      0.0076202203  -4130.1941      0.072870939    51.275793      49.308164      20             4.2231393      2.4214708    
      1140  -4130.2191      0.0075816806  -4130.2115      0.07250239     51.276423      49.308572      20            -4.8117105     -4.7574071    
      1150  -4130.2363      0.0075444547  -4130.2287      0.072146405    51.275764      49.307772      20             3.0959046      4.7426261    
      1160  -4130.2532      0.0075080545  -4130.2457      0.071798315    51.275849      49.308275      20            -0.0096168935  -2.4559532    
      1170  -4130.2699      0.0074726432  -4130.2624      0.071459683    51.276059      49.308014      20            -2.9287946     -0.94598126   
      1180  -4130.2864      0.0074383129  -4130.279       0.071131388    51.275386      49.307627      20             4.3216162      3.7787755    
      1190  -4130.3028      0.0074046534  -4130.2954      0.070809508    51.275894      49.30817       20            -3.5824292     -4.6918054    
      1200  -4130.3189      0.0073720655  -4130.3115      0.070497875    51.275507      49.307459      20             1.1487955      3.2877664    
      1210  -4130.3349      0.0073402397  -4130.3275      0.07019353     51.275315      49.307707      20             1.7266506     -0.33093713   
      1220  -4130.3506      0.0073091474  -4130.3433      0.069896199    51.275692      49.307753      20            -3.6419179     -2.6884441    
      1230  -4130.3662      0.0072790248  -4130.3589      0.069608142    51.27505       49.307173      20             3.6965485      4.2778417    
      1240  -4130.3816      0.00724946    -4130.3744      0.069325418    51.275362      49.307713      20            -1.9433982     -3.7087211    
      1250  -4130.3969      0.0072207424  -4130.3896      0.069050796    51.275252      49.307211      20            -0.70066152     1.3255304    
      1260  -4130.4119      0.0071927549  -4130.4047      0.068783156    51.27485       49.307164      20             2.8951051      1.6229072    
      1270  -4130.4268      0.0071653132  -4130.4197      0.068520736    51.275284      49.307454      20            -3.5760965     -3.6576218    
      1280  -4130.4416      0.00713872    -4130.4344      0.068266429    51.274775      49.306815      20             2.4462837      3.7886603    
      1290  -4130.4561      0.0071126361  -4130.449       0.068016993    51.274845      49.307214      20            -0.13382652    -2.0257129    
      1300  -4130.4706      0.0070871975  -4130.4635      0.067773728    51.274981      49.306991      20            -2.1740235     -0.68539064   
      1310  -4130.4848      0.007062462   -4130.4778      0.067537187    51.274462      49.306683      20             3.3094041      2.9408271    
      1320  -4130.499       0.0070381527  -4130.4919      0.06730472     51.274842      49.307098      20            -2.7367936     -3.6264237    
      1330  -4130.5129      0.0070145553  -4130.5059      0.067079063    51.274545      49.306545      20             0.7832546      2.4475823    
      1340  -4130.5267      0.0069914613  -4130.5198      0.066858218    51.274367      49.306709      20             1.5146921     -0.080428947  
      1350  -4130.5404      0.0069688448  -4130.5335      0.066641941    51.274676      49.30676       20            -2.978646      -2.2294698    
      1360  -4130.554       0.006946889   -4130.547       0.066431981    51.274159      49.306293      20             2.8687537      3.2997714    
      1370  -4130.5674      0.0069253032  -4130.5605      0.066225559    51.274377      49.306685      20            -1.2816489     -2.6391834    
      1380  -4130.5806      0.006904284   -4130.5737      0.066024555    51.274332      49.306332      20            -0.93819627     0.65175324   
      1390  -4130.5938      0.006883779   -4130.5869      0.065828469    51.273953      49.306239      20             2.6199848      1.5783007    
      1400  -4130.6068      0.0068636317  -4130.5999      0.065635805    51.274324      49.306483      20            -2.9019703     -2.8936019    
      1410  -4130.6197      0.0068440752  -4130.6128      0.065448789    51.27393       49.305999      20             1.6540185      2.6458872    
      1420  -4130.6324      0.0068248838  -4130.6256      0.065265265    51.273919      49.306241      20             0.43823938    -1.0385634    
      1430  -4130.645       0.0068061204  -4130.6382      0.065085833    51.274105      49.306135      20            -2.2658455     -1.0338659    
      1440  -4130.6575      0.0067878738  -4130.6507      0.064911344    51.273627      49.305843      20             2.8625077      2.4602829    
      1450  -4130.6699      0.0067699215  -4130.6631      0.064739668    51.273927      49.306147      20            -1.934693      -2.5264304    
      1460  -4130.6821      0.0067524636  -4130.6754      0.064572722    51.27375       49.305781      20            -0.01097458     1.2558923    
      1470  -4130.6943      0.006735395   -4130.6876      0.064409497    51.273502      49.305807      20             1.9208676      0.60980391   
      1480  -4130.7063      0.0067186437  -4130.6996      0.064249308    51.273834      49.30591       20            -2.7806641     -2.0544611    
      1490  -4130.7182      0.0067023843  -4130.7115      0.064093822    51.273393      49.30554       20             2.137213       2.32292      
      1500  -4130.73        0.0066864091  -4130.7233      0.063941053    51.273507      49.305766      20            -0.3577075     -1.3355898    
      1510  -4130.7417      0.0066708203  -4130.735       0.06379198     51.273581      49.305599      20            -1.5940535     -0.31661081   
      1520  -4130.7533      0.0066556465  -4130.7466      0.063646875    51.273165      49.305429      20             2.6607606      1.7014389    
      1530  -4130.7647      0.006640725   -4130.7581      0.063504183    51.273505      49.305631      20            -2.2809183     -2.0846141    
      1540  -4130.7761      0.0066262367  -4130.7695      0.063365634    51.273233      49.305322      20             0.67016162     1.3046782    
      1550  -4130.7873      0.0066120596  -4130.7807      0.063230061    51.273105      49.305379      20             1.2813728      0.14372332   
      1560  -4130.7985      0.0065981722  -4130.7919      0.063097258    51.273377      49.305405      20            -2.5154261     -1.4286666    
      1570  -4130.8095      0.0065847028  -4130.803       0.062968452    51.272928      49.305138      20             2.3652053      1.8404433    
      1580  -4130.8205      0.006571472   -4130.8139      0.062841928    51.273132      49.305303      20            -0.93329278    -1.1996865    
      1590  -4130.8313      0.0065585923  -4130.8248      0.062718761    51.273105      49.305151      20            -0.9886781     -0.081575627  
      1600  -4130.8421      0.0065460608  -4130.8355      0.062598925    51.27277       49.305035      20             2.3416008      1.2399357    
      1610  -4130.8527      0.0065337575  -4130.8462      0.06248127     51.273112      49.305164      20            -2.3978233     -1.6241832    
      1620  -4130.8633      0.0065218395  -4130.8568      0.0623673      51.272781      49.304933      20             1.140902       1.047296     
      1630  -4130.8738      0.0065101871  -4130.8672      0.06225587     51.272758      49.30496       20             0.71615274     0.10674343   
      1640  -4130.8841      0.0064988039  -4130.8776      0.062147015    51.272956      49.304978      20            -2.1482485     -1.1414719    
      1650  -4130.8944      0.0064877877  -4130.8879      0.062041668    51.272535      49.304771      20             2.3723845      1.4492272    
      1660  -4130.9046      0.0064769859  -4130.8981      0.061938373    51.272791      49.304873      20            -1.2921498     -0.87971331   
      1670  -4130.9147      0.0064665071  -4130.9082      0.061838166    51.272682      49.304779      20            -0.47486253    -0.19982611   
      1680  -4130.9247      0.0064563361  -4130.9182      0.061740902    51.272438      49.304654      20             1.9357404      1.1205502    
      1690  -4130.9346      0.0064463796  -4130.9282      0.061645689    51.272746      49.30476       20            -2.2944288     -1.3320812    
      1700  -4130.9444      0.0064367735  -4130.938       0.061553828    51.272399      49.304592      20             1.3765678      0.71640412   
      1710  -4130.9542      0.0064274095  -4130.9478      0.061464282    51.272454      49.304565      20             0.27139265     0.33259581   
      1720  -4130.9638      0.0064182996  -4130.9574      0.061377165    51.272573      49.304624      20            -1.7174291     -1.1676208    
      1730  -4130.9734      0.0064095245  -4130.967       0.06129325     51.272215      49.304426      20             2.1611288      1.2699223    
      1740  -4130.9829      0.0064009534  -4130.9765      0.061211286    51.272474      49.304493      20            -1.3924048     -0.57900949   
      1750  -4130.9923      0.0063926839  -4130.9859      0.061132206    51.27232       49.304464      20            -0.12033201    -0.4839273    
      1760  -4131.0016      0.0063847011  -4130.9953      0.061055868    51.272161      49.304294      20             1.5004797      1.2585986    
      1770  -4131.0109      0.0063769262  -4131.0045      0.060981518    51.272406      49.304424      20            -1.9834485     -1.2620838    
      1780  -4131.0201      0.0063694781  -4131.0137      0.060910293    51.272092      49.304283      20             1.3332665      0.47467247   
      1790  -4131.0291      0.006362264   -4131.0228      0.060841306    51.27218       49.304211      20             0.029154738    0.62856271   
      1800  -4131.0382      0.0063552933  -4131.0318      0.060774646    51.272236      49.30433       20            -1.3026738     -1.3748215    
      1810  -4131.0471      0.0063486396  -4131.0407      0.060711018    51.271962      49.304105      20             1.7669912      1.2910643    
      1820  -4131.056       0.0063421891  -4131.0496      0.060649333    51.272176      49.304174      20            -1.2044162     -0.4101793    
      1830  -4131.0647      0.0063360249  -4131.0584      0.060590386    51.272028      49.304187      20            -0.0084702293  -0.75160602   
      1840  -4131.0735      0.0063301406  -4131.0671      0.060534115    51.271927      49.303972      20             1.1338687      1.4883069    
      1850  -4131.0821      0.0063244626  -4131.0758      0.060479817    51.272096      49.304147      20            -1.5298638     -1.3426535    
      1860  -4131.0907      0.006319097   -4131.0843      0.060428506    51.271859      49.304001      20             1.0100641      0.3780113    
      1870  -4131.0991      0.0063139681  -4131.0928      0.06037946     51.271925      49.303913      20             0.058053252    0.83811672   
      1880  -4131.1076      0.0063090761  -4131.1013      0.060332679    51.271956      49.304078      20            -1.0097357     -1.5803327    
      1890  -4131.1159      0.0063044939  -4131.1096      0.060288859    51.271764      49.303819      20             1.2841435      1.3906576    
      1900  -4131.1242      0.0063001213  -4131.1179      0.060247045    51.271898      49.303913      20            -0.76635074    -0.37014543   
      1910  -4131.1324      0.0062960248  -4131.1261      0.060207871    51.271809      49.303938      20            -0.17665785    -0.88563043   
      1920  -4131.1405      0.0062922112  -4131.1342      0.060171402    51.271721      49.303703      20             0.93420233     1.6285014    
      1930  -4131.1486      0.0062886074  -4131.1423      0.060136939    51.27183       49.303913      20            -1.0499552     -1.4158765    
      1940  -4131.1566      0.0062853077  -4131.1503      0.060105385    51.271692      49.303751      20             0.48858266     0.3676266    
      1950  -4131.1646      0.0062822558  -4131.1583      0.0600762      51.271689      49.303675      20             0.35028368     0.89333981   
      1960  -4131.1724      0.0062794382  -4131.1662      0.060049256    51.271742      49.303851      20            -0.91210484    -1.6235518    
      1970  -4131.1802      0.00627693    -4131.174       0.060025271    51.271607      49.303585      20             0.83809918     1.3939951    
      1980  -4131.188       0.0062746442  -4131.1817      0.060003412    51.271653      49.303698      20            -0.20061106    -0.35427298   
      1990  -4131.1957      0.0062726282  -4131.1894      0.059984133    51.271657      49.303714      20            -0.5631421     -0.87205188   
      2000  -4131.2033      0.0062709048  -4131.197       0.059967653    51.271537      49.303498      20             0.93382027     1.5566548    
      2010  -4131.2108      0.0062693996  -4131.2046      0.059953258    51.271619      49.303704      20            -0.66164548    -1.3125491    
      2020  -4131.2183      0.0062681943  -4131.2121      0.059941732    51.271572      49.303546      20            -0.077855244    0.30942906   
      2030  -4131.2257      0.0062672537  -4131.2195      0.059932738    51.271481      49.303491      20             0.78867577     0.83197141   
      2040  -4131.2331      0.006266549   -4131.2268      0.059925999    51.271591      49.303643      20            -0.98866571    -1.4334892    
      2050  -4131.2404      0.0062661571  -4131.2342      0.059922251    51.271476      49.303415      20             0.52129278     1.1605641    
      2060  -4131.2477      0.0062660059  -4131.2414      0.059920805    51.271456      49.303514      20             0.32446085    -0.22091903   
      2070  -4131.2549      0.0062661214  -4131.2486      0.05992191     51.271553      49.303525      20            -1.0023324     -0.7904179    
      2080  -4131.262       0.0062665429  -4131.2557      0.05992594     51.271381      49.303356      20             1.0529575      1.2605244    
      2090  -4131.2691      0.0062671961  -4131.2628      0.059932186    51.271467      49.30351       20            -0.41619711    -0.94192295   
      2100  -4131.2761      0.0062681469  -4131.2698      0.059941279    51.27148       49.3034        20            -0.52569913     0.079180218  
      2110  -4131.283       0.0062693837  -4131.2768      0.059953106    51.27132       49.303349      20             1.1746367      0.75841816   
      2120  -4131.2899      0.0062708622  -4131.2837      0.059967245    51.271489      49.303458      20            -1.1048888     -1.055791     
      2130  -4131.2968      0.0062726579  -4131.2905      0.059984417    51.271372      49.303312      20             0.33372655     0.66506045   
      2140  -4131.3036      0.0062747174  -4131.2973      0.060004112    51.27132       49.303351      20             0.67055842     0.1119902    
      2150  -4131.3103      0.0062770434  -4131.304       0.060026355    51.271476      49.303382      20            -1.2848876     -0.74782841   
      2160  -4131.317       0.0062796895  -4131.3107      0.060051659    51.27127       49.303265      20             1.1162422      0.8343182    
      2170  -4131.3236      0.0062825863  -4131.3173      0.060079361    51.271368      49.303336      20            -0.26075718    -0.35157985   
      2180  -4131.3302      0.0062857792  -4131.3239      0.060109894    51.271405      49.303314      20            -0.75945075    -0.34259506   
      2190  -4131.3367      0.0062892809  -4131.3304      0.06014338     51.271223      49.303237      20             1.3143595      0.75846981   
      2200  -4131.3431      0.006293035   -4131.3368      0.06017928     51.271414      49.30331       20            -1.0675347     -0.61620163   
      2210  -4131.3495      0.0062971097  -4131.3432      0.060218245    51.271302      49.303262      20             0.17809139     0.025116614  
      2220  -4131.3559      0.0063014747  -4131.3496      0.060259987    51.271247      49.303211      20             0.79603745     0.58913333   
      2230  -4131.3622      0.0063061088  -4131.3559      0.060304303    51.271409      49.303292      20            -1.2587549     -0.78697554   
      2240  -4131.3685      0.0063110755  -4131.3621      0.060351798    51.27122       49.303211      20             0.94197727     0.41320135   
      2250  -4131.3747      0.0063163166  -4131.3683      0.060401918    51.271307      49.303198      20            -0.072000172    0.28422104   
      2260  -4131.3808      0.0063218526  -4131.3745      0.060454858    51.271351      49.303278      20            -0.79326035    -0.82503179   
      2270  -4131.3869      0.0063277189  -4131.3806      0.060510956    51.271198      49.303154      20             1.1194396      0.81688634   
      2280  -4131.393       0.0063338538  -4131.3866      0.060569623    51.271349      49.303213      20            -0.73800999    -0.2358728    
      2290  -4131.399       0.0063403099  -4131.3926      0.060631362    51.27128       49.303245      20            -0.068869844   -0.55114447   
      2300  -4131.4049      0.0063470836  -4131.3986      0.060696138    51.271227      49.303114      20             0.76261362     1.0165165    
      2310  -4131.4108      0.0063541332  -4131.4045      0.060763552    51.271351      49.303247      20            -0.91248371    -0.83052921   
      2320  -4131.4167      0.006361523   -4131.4103      0.06083422     51.271238      49.303183      20             0.46291911     0.084050614  
      2330  -4131.4225      0.0063692143  -4131.4161      0.06090777     51.271269      49.303117      20             0.24350245     0.75220697   
      2340  -4131.4283      0.0063772002  -4131.4219      0.060984139    51.271328      49.303267      20            -0.71882284    -1.1358802    
      2350  -4131.434       0.0063855333  -4131.4276      0.061063826    51.271234      49.303114      20             0.65738831     0.80339419   
      2360  -4131.4397      0.0063941559  -4131.4333      0.061146283    51.271297      49.303168      20            -0.14002732     0.045065096  
      2370  -4131.4453      0.0064030974  -4131.4389      0.061231789    51.271313      49.303244      20            -0.44313785    -0.8754672    
      2380  -4131.4509      0.0064123808  -4131.4445      0.061320565    51.271246      49.30308       20             0.6683912      1.1582947    
      2390  -4131.4564      0.0064219517  -4131.45        0.061412089    51.271316      49.303231      20            -0.38216696    -0.7176858    
      2400  -4131.4619      0.0064318638  -4131.4555      0.061506877    51.271313      49.303185      20            -0.20021936    -0.16146128   
      2410  -4131.4674      0.0064421045  -4131.4609      0.061604808    51.271256      49.303104      20             0.64494647     0.91539662   
      2420  -4131.4728      0.0064526419  -4131.4663      0.061705575    51.271346      49.303264      20            -0.61565215    -1.0746792    
      2430  -4131.4781      0.0064635346  -4131.4717      0.061809741    51.271311      49.303133      20             0.11154357     0.55962923   
      2440  -4131.4834      0.0064747412  -4131.477       0.061916907    51.271275      49.303168      20             0.51858147     0.27280338   
      2450  -4131.4887      0.006486262   -4131.4822      0.062027079    51.271388      49.303253      20            -0.82145474    -0.8795652    
      2460  -4131.4939      0.0064981412  -4131.4874      0.062140677    51.271297      49.303123      20             0.5540834      0.88637254   
      2470  -4131.4991      0.0065103239  -4131.4926      0.062257179    51.271324      49.303229      20             0.1300794     -0.33079682   
      2480  -4131.5043      0.0065228417  -4131.4977      0.062376884    51.271416      49.303226      20            -0.77848666    -0.38638087   
      2490  -4131.5094      0.0065357103  -4131.5028      0.062499945    51.271286      49.303156      20             0.93834728     0.77963487   
      2500  -4131.5144      0.0065488808  -4131.5079      0.062625892    51.271404      49.303265      20            -0.4754588     -0.61344075   
      2510  -4131.5194      0.0065624038  -4131.5129      0.062755211    51.271411      49.303216      20            -0.32767743     0.044433356  
      2520  -4131.5244      0.0065762638  -4131.5178      0.062887751    51.271312      49.303204      20             0.9464693      0.49993872   
      2530  -4131.5294      0.0065904327  -4131.5228      0.063023247    51.271482      49.303284      20            -0.96808035    -0.63551265   
      2540  -4131.5343      0.0066049639  -4131.5277      0.063162206    51.271385      49.303232      20             0.36616052     0.28553094   
      2550  -4131.5391      0.0066198169  -4131.5325      0.063304242    51.271388      49.303246      20             0.47152043     0.269237     
      2560  -4131.5439      0.0066349922  -4131.5373      0.063449362    51.271524      49.303311      20            -1.0035537     -0.60583346   
      2570  -4131.5487      0.0066505296  -4131.5421      0.063597943    51.27138       49.303257      20             0.88942713     0.46437233   
      2580  -4131.5534      0.0066663768  -4131.5468      0.063749487    51.27149       49.303288      20            -0.21813804     0.056163302  
      2590  -4131.5581      0.0066825618  -4131.5515      0.063904262    51.271526      49.303351      20            -0.56188182    -0.57156608   
      2600  -4131.5628      0.0066990992  -4131.5561      0.064062407    51.271423      49.303276      20             0.94272862     0.68513228   
      2610  -4131.5674      0.0067159409  -4131.5607      0.064223461    51.271575      49.303351      20            -0.70009934    -0.28438583   
      2620  -4131.572       0.0067331329  -4131.5653      0.064387866    51.271523      49.303384      20             0.028277369   -0.37057614   
      2630  -4131.5766      0.0067506612  -4131.5698      0.064555485    51.271506      49.303303      20             0.60183654     0.81641283   
      2640  -4131.5811      0.0067684951  -4131.5743      0.064726028    51.271627      49.303434      20            -0.7765824     -0.71725788   
      2650  -4131.5855      0.006786685   -4131.5788      0.064899976    51.271548      49.303395      20             0.4136886      0.10619855   
      2660  -4131.59        0.0068051921  -4131.5832      0.065076956    51.271595      49.303363      20             0.19282736     0.6183516    
      2670  -4131.5944      0.006824012   -4131.5875      0.065256928    51.271663      49.303509      20            -0.59963208    -0.96369294   
      2680  -4131.5987      0.0068431841  -4131.5919      0.065440267    51.271604      49.303399      20             0.52909281     0.67870464   
      2690  -4131.603       0.0068626558  -4131.5962      0.065626472    51.27167       49.303464      20            -0.065150436    0.061648992  
      2700  -4131.6073      0.0068824496  -4131.6005      0.065815757    51.271711      49.303552      20            -0.4241822     -0.77256093   
      2710  -4131.6116      0.0069025818  -4131.6047      0.066008278    51.271669      49.303431      20             0.55985986     0.98205647   
      2720  -4131.6158      0.0069230012  -4131.6089      0.066203545    51.27174       49.303576      20            -0.23769005    -0.55601503   
      2730  -4131.62        0.0069437494  -4131.613       0.066401957    51.271774      49.303567      20            -0.29826532    -0.21631064   
      2740  -4131.6241      0.0069648145  -4131.6172      0.066603399    51.271728      49.303511      20             0.63143151     0.81799477   
      2750  -4131.6282      0.0069861608  -4131.6212      0.06680753     51.271828      49.303666      20            -0.48749322    -0.86212525   
      2760  -4131.6323      0.0070078357  -4131.6253      0.067014804    51.271832      49.303588      20            -0.058474011    0.3463652    
      2770  -4131.6363      0.0070298023  -4131.6293      0.067224867    51.271794      49.303622      20             0.62000896     0.35337297   
      2780  -4131.6404      0.0070520491  -4131.6333      0.067437609    51.271931      49.303724      20            -0.77735732    -0.75784396   
      2790  -4131.6443      0.0070746146  -4131.6373      0.0676534      51.271871      49.303645      20             0.38153955     0.61455157   
      2800  -4131.6483      0.0070974474  -4131.6412      0.067871746    51.271892      49.30373       20             0.31987235    -0.06701151   
      2810  -4131.6522      0.0071205609  -4131.645       0.068092777    51.272021      49.303774      20            -0.84853058    -0.46835882   
      2820  -4131.656       0.0071439739  -4131.6489      0.068316672    51.271911      49.303731      20             0.8243872      0.60688302   
      2830  -4131.6599      0.0071676332  -4131.6527      0.068542921    51.272023      49.303821      20            -0.2426337     -0.27564042   
      2840  -4131.6637      0.0071915713  -4131.6565      0.068771837    51.272078      49.303843      20            -0.51685434    -0.2484915    
      2850  -4131.6674      0.0072157821  -4131.6602      0.069003362    51.271984      49.303823      20             0.94283018     0.55008248   
      2860  -4131.6712      0.0072402227  -4131.6639      0.069237083    51.272156      49.30391       20            -0.74967125    -0.39358905   
      2870  -4131.6749      0.0072649347  -4131.6676      0.0694734      51.272114      49.303927      20             0.071253446   -0.10260772   
      2880  -4131.6786      0.007289888   -4131.6713      0.069712024    51.272104      49.303909      20             0.62923366     0.54985604   
      2890  -4131.6822      0.0073150585  -4131.6749      0.069952726    51.272257      49.304018      20            -0.88607212    -0.5858266    
      2900  -4131.6858      0.0073404855  -4131.6785      0.07019588     51.272168      49.304007      20             0.54766963     0.14933822   
      2910  -4131.6894      0.0073661206  -4131.682       0.070441025    51.272244      49.304005      20             0.12370511     0.45676583   
      2920  -4131.6929      0.0073919628  -4131.6855      0.07068815     51.272329      49.304137      20            -0.65205841    -0.78263666   
      2930  -4131.6964      0.0074180381  -4131.689       0.070937503    51.27226       49.304072      20             0.68490379     0.55852533   
      2940  -4131.6999      0.0074442894  -4131.6925      0.071188541    51.272372      49.304134      20            -0.24038683     0.091717778  
      2950  -4131.7034      0.0074707379  -4131.6959      0.071441463    51.272401      49.304241      20            -0.32610918    -0.72748071   
      2960  -4131.7068      0.0074973877  -4131.6993      0.071696311    51.272377      49.304146      20             0.58985175     0.89489213   
      2970  -4131.7102      0.0075241851  -4131.7026      0.07195257     51.27248       49.304288      20            -0.37482023    -0.45732259   
      2980  -4131.7135      0.007551167   -4131.706       0.072210593    51.272496      49.304315      20            -0.12750167    -0.30178006   
      2990  -4131.7168      0.0075783117  -4131.7093      0.072470174    51.272492      49.304259      20             0.50790237     0.86696697   
      3000  -4131.7201      0.0076055809  -4131.7125      0.072730945    51.272591      49.304435      20            -0.45907874    -0.85461697   
      3010  -4131.7234      0.0076330157  -4131.7158      0.0729933      51.272604      49.304381      20             0.009349681    0.27846915   
      3020  -4131.7266      0.0076605719  -4131.719       0.073256815    51.2726        49.304412      20             0.49068531     0.4581006    
      3030  -4131.7298      0.0076882341  -4131.7221      0.073521344    51.272722      49.304551      20            -0.6366411     -0.85287322   
      3040  -4131.733       0.0077160349  -4131.7253      0.073787199    51.2727        49.304472      20             0.2791069      0.65448416   
      3050  -4131.7362      0.0077439167  -4131.7284      0.074053828    51.272723      49.304576      20             0.3450835     -0.035495547  
      3060  -4131.7393      0.0077718883  -4131.7315      0.074321315    51.272859      49.304646      20            -0.77897751    -0.54795177   
      3070  -4131.7424      0.0077999635  -4131.7346      0.074589795    51.272784      49.304602      20             0.677068       0.6884605    
      3080  -4131.7454      0.0078280837  -4131.7376      0.074858703    51.272879      49.304723      20            -0.074303593   -0.32229575   
      3090  -4131.7484      0.0078562763  -4131.7406      0.075128305    51.272973      49.304752      20            -0.62582296    -0.24228916   
      3100  -4131.7514      0.0078845321  -4131.7436      0.075398511    51.272884      49.304748      20             0.92802862     0.56390364   
      3110  -4131.7544      0.0079128024  -4131.7465      0.075668854    51.273053      49.304856      20            -0.60565114    -0.40746114   
      3120  -4131.7574      0.0079411243  -4131.7494      0.075939692    51.273058      49.304881      20            -0.13307527    -0.08557674   
      3130  -4131.7603      0.0079694666  -4131.7523      0.076210725    51.273026      49.304889      20             0.7822976      0.50776985   
      3140  -4131.7632      0.007997798   -4131.7552      0.076481653    51.27321       49.305         20            -0.89942909    -0.50755556   
      3150  -4131.766       0.0080261557  -4131.758       0.076752834    51.273142      49.305017      20             0.41464948     0.062725601  
      3160  -4131.7689      0.0080544914  -4131.7608      0.077023804    51.273203      49.305026      20             0.31961491     0.48932208   
      3170  -4131.7717      0.0080827953  -4131.7636      0.077294469    51.273332      49.305164      20            -0.78991784    -0.70738138   
      3180  -4131.7744      0.0081110957  -4131.7663      0.077565101    51.273259      49.30514       20             0.687004       0.38348523   
      3190  -4131.7772      0.0081393341  -4131.769       0.077835141    51.273379      49.305186      20            -0.12394058     0.27942256   
      3200  -4131.7799      0.0081675233  -4131.7717      0.078104709    51.27344       49.305328      20            -0.46506029    -0.80521695   
      3210  -4131.7826      0.0081956745  -4131.7744      0.078373915    51.27341       49.305255      20             0.65017618     0.78810167   
      3220  -4131.7853      0.008223729   -4131.777       0.078642195    51.273533      49.30538       20            -0.32686252    -0.20464135   
      3230  -4131.7879      0.0082517187  -4131.7797      0.078909856    51.273566      49.305465      20            -0.22176923    -0.55624301   
      3240  -4131.7905      0.0082796321  -4131.7822      0.079176788    51.273568      49.305395      20             0.54856297     0.96027916   
      3250  -4131.7931      0.0083074215  -4131.7848      0.079442533    51.273678      49.305584      20            -0.39502004    -0.71656918   
      3260  -4131.7957      0.0083351298  -4131.7873      0.079707503    51.273713      49.30558       20            -0.11188629    -0.011737031  
      3270  -4131.7982      0.008362722   -4131.7899      0.079971363    51.273713      49.30558       20             0.55441057     0.7169395    
      3280  -4131.8007      0.0083901713  -4131.7923      0.080233857    51.273841      49.305763      20            -0.55498504    -0.91461183   
      3290  -4131.8032      0.0084175196  -4131.7948      0.080495384    51.273856      49.305704      20             0.074927419    0.48623551   
      3300  -4131.8057      0.0084447146  -4131.7972      0.080755445    51.273862      49.30579       20             0.53585986     0.23884874   
      3310  -4131.8081      0.0084717547  -4131.7996      0.081014026    51.274022      49.305913      20            -0.79938295    -0.7360537    
      3320  -4131.8105      0.0084986693  -4131.802       0.081271405    51.273979      49.305866      20             0.4727149      0.6682863    
      3330  -4131.8129      0.0085253995  -4131.8044      0.081527022    51.274041      49.305991      20             0.24651749    -0.12959692   
      3340  -4131.8153      0.0085519667  -4131.8067      0.08178108     51.274191      49.306061      20            -0.85124538    -0.44462036   
      3350  -4131.8176      0.0085783806  -4131.809       0.082033672    51.274101      49.306053      20             0.88846828     0.6132509    
      3360  -4131.8199      0.0086045868  -4131.8113      0.082284277    51.274252      49.306173      20            -0.30364243    -0.26969494   
      3370  -4131.8222      0.0086306228  -4131.8136      0.082533255    51.274326      49.306232      20            -0.50942678    -0.28747428   
      3380  -4131.8245      0.0086564768  -4131.8158      0.082780493    51.274257      49.306238      20             0.98168222     0.59037718   
      3390  -4131.8267      0.0086821074  -4131.818       0.083025594    51.274461      49.306358      20            -0.78394588    -0.37750882   
      3400  -4131.8289      0.0087075598  -4131.8202      0.083268992    51.274441      49.306418      20             0.06245838    -0.19738308   
      3410  -4131.8311      0.0087328027  -4131.8224      0.083510385    51.274456      49.306412      20             0.66495028     0.67277976   
      3420  -4131.8333      0.0087578132  -4131.8246      0.083749557    51.274637      49.306568      20            -0.89219131    -0.64156204   
      3430  -4131.8355      0.008782636   -4131.8267      0.083986933    51.274578      49.306589      20             0.48772301     0.075447831  
      3440  -4131.8376      0.0088072239  -4131.8288      0.084222064    51.27467       49.3066        20             0.21627063     0.62694171   
      3450  -4131.8397      0.0088315766  -4131.8309      0.084454945    51.274787      49.306789      20            -0.68789638    -0.93162972   
      3460  -4131.8418      0.0088557293  -4131.8329      0.084685913    51.274751      49.306741      20             0.5949021      0.57104704   
      3470  -4131.8438      0.0088796257  -4131.835       0.08491443     51.274864      49.306826      20            -0.052331353    0.23310216   
      3480  -4131.8459      0.0089032889  -4131.837       0.085140717    51.274945      49.306989      20            -0.48376301    -0.91871955   
      3490  -4131.8479      0.0089267359  -4131.839       0.085364937    51.274938      49.306902      20             0.57581226     0.9862629    
      3500  -4131.8499      0.0089499113  -4131.8409      0.08558656     51.275044      49.307079      20            -0.15440884    -0.37441838   
      3510  -4131.8519      0.0089728577  -4131.8429      0.085805992    51.275128      49.307153      20            -0.4299708     -0.49065581   
      3520  -4131.8538      0.0089955681  -4131.8448      0.086023169    51.27511       49.307105      20             0.67972316     0.99859804   
      3530  -4131.8558      0.0090179998  -4131.8467      0.086237679    51.275239      49.307319      20            -0.35370629    -0.80420517   
      3540  -4131.8577      0.0090402049  -4131.8486      0.086450024    51.275312      49.30731       20            -0.33005253     0.072349649  
      3550  -4131.8596      0.0090621533  -4131.8505      0.086659913    51.275275      49.307346      20             0.84178595     0.64826369   
      3560  -4131.8614      0.0090838233  -4131.8524      0.086867139    51.275461      49.307525      20            -0.74963344    -0.84278045   
      3570  -4131.8633      0.009105265   -4131.8542      0.087072182    51.275469      49.307496      20             0.063316983    0.40733958   
      3580  -4131.8651      0.0091264314  -4131.856       0.087274593    51.275467      49.307589      20             0.74257547     0.28258882   
      3590  -4131.8669      0.0091473248  -4131.8578      0.087474393    51.275684      49.307718      20            -1.0727725     -0.6777543    
      3600  -4131.8687      0.0091679833  -4131.8596      0.087671948    51.275606      49.307713      20             0.65460776     0.4807645    
      3610  -4131.8705      0.0091883525  -4131.8613      0.087866735    51.275703      49.307811      20             0.23940739     0.1215169    
      3620  -4131.8723      0.0092084566  -4131.8631      0.088058987    51.275869      49.30793       20            -0.98222704    -0.6157583    
      3630  -4131.874       0.0092283154  -4131.8648      0.088248894    51.275765      49.307929      20             1.0451031      0.57122453   
      3640  -4131.8757      0.0092478763  -4131.8665      0.088435951    51.275955      49.308031      20            -0.39206219     0.0037076271 
      3650  -4131.8774      0.00926718    -4131.8682      0.08862055     51.27602       49.308162      20            -0.49802509    -0.65773989   
      3660  -4131.8791      0.0092862261  -4131.8698      0.088802684    51.275972      49.308126      20             0.98448644     0.8404303    
      3670  -4131.8808      0.0093049708  -4131.8715      0.088981936    51.27618       49.30828       20            -0.74429126    -0.34791066   
      3680  -4131.8824      0.0093234657  -4131.8731      0.089158801    51.276175      49.308379      20            -0.00035198348 -0.49598224   
      3690  -4131.8841      0.0093416891  -4131.8747      0.089333068    51.276206      49.308327      20             0.660769       1.0594941    
      3700  -4131.8857      0.0093596135  -4131.8763      0.089504476    51.276372      49.308554      20            -0.74394076    -0.88424466   
      3710  -4131.8873      0.0093772937  -4131.8779      0.089673549    51.276364      49.308563      20             0.22494776     0.045853773  
      3720  -4131.8889      0.0093946884  -4131.8795      0.089839892    51.276426      49.308569      20             0.44129804     0.87336256   
      3730  -4131.8904      0.0094117929  -4131.881       0.090003459    51.276565      49.308814      20            -0.69338177    -1.2090425    
      3740  -4131.892       0.009428655   -4131.8826      0.090164709    51.276571      49.308736      20             0.31252395     0.70629895   
      3750  -4131.8935      0.0094452201  -4131.8841      0.090323118    51.276626      49.308853      20             0.39104667     0.27818464   
      3760  -4131.895       0.0094615093  -4131.8856      0.09047889     51.276786      49.30903       20            -0.8233485     -1.0394947    
      3770  -4131.8965      0.009477553   -4131.8871      0.090632312    51.276759      49.308945      20             0.58040946     1.0426617    
      3780  -4131.898       0.0094932946  -4131.8885      0.090782847    51.276841      49.30914       20             0.20546456    -0.32160227   
      3790  -4131.8995      0.0095087769  -4131.89        0.090930901    51.277014      49.309222      20            -0.9450014     -0.56109352   
      3800  -4131.9009      0.0095240068  -4131.8914      0.091076543    51.276924      49.309198      20             1.0334546      0.94526388   
      3810  -4131.9024      0.0095389378  -4131.8928      0.091219325    51.277097      49.309393      20            -0.33573514    -0.58059667   
      3820  -4131.9038      0.0095536253  -4131.8942      0.09135978     51.277206      49.309434      20            -0.68241448    -0.19724103   
      3830  -4131.9052      0.0095680532  -4131.8956      0.091497752    51.27711       49.309461      20             1.2777935      0.73949235   
      3840  -4131.9066      0.009582193   -4131.897       0.091632968    51.27737       49.309627      20            -0.99017817    -0.60865978   
      3850  -4131.908       0.0095961027  -4131.8984      0.091765984    51.277358      49.309676      20            -0.0021675159  -0.075252158  
      3860  -4131.9094      0.009609748   -4131.8997      0.091896472    51.27735       49.309702      20             0.99486908     0.72541734   
      3870  -4131.9107      0.0096231218  -4131.9011      0.092024363    51.277609      49.309881      20            -1.2794517     -0.76638447   
      3880  -4131.912       0.0096362766  -4131.9024      0.092150161    51.277514      49.309916      20             0.66716911     0.10683811   
      3890  -4131.9134      0.009649166   -4131.9037      0.09227342     51.277625      49.309936      20             0.36856109     0.75639364   
      3900  -4131.9147      0.0096618051  -4131.905       0.092394285    51.2778        49.310163      20            -1.0589573     -1.1168703    
      3910  -4131.916       0.0096742342  -4131.9063      0.092513143    51.277717      49.310122      20             0.92012869     0.61701971   
      3920  -4131.9173      0.0096864013  -4131.9076      0.092629495    51.277883      49.310206      20            -0.11714734     0.43538675   
      3930  -4131.9185      0.0096983427  -4131.9088      0.092743689    51.277981      49.310433      20            -0.68488834    -1.2728625    
      3940  -4131.9198      0.0097100808  -4131.9101      0.092855938    51.277953      49.310317      20             0.84871039     1.2385072    
      3950  -4131.9211      0.0097215656  -4131.9113      0.092965766    51.278105      49.310521      20            -0.27345252    -0.3053277    
      3960  -4131.9223      0.0097328517  -4131.9126      0.093073692    51.278194      49.310653      20            -0.53417278    -0.88007094   
      3970  -4131.9235      0.0097439378  -4131.9138      0.093179708    51.278175      49.310551      20             0.86894128     1.4616414    
      3980  -4131.9247      0.0097547865  -4131.915       0.093283452    51.278328      49.310837      20            -0.41094502    -1.0188078    
      3990  -4131.9259      0.0097654623  -4131.9162      0.093385543    51.278426      49.31084       20            -0.49938356    -0.11730301   
      4000  -4131.9271      0.0097759399  -4131.9173      0.093485739    51.27837       49.310842      20             1.109315       1.1072044    
      4010  -4131.9283      0.0097862031  -4131.9185      0.093583884    51.27859       49.311106      20            -0.85867821    -1.2422705    
      4020  -4131.9294      0.0097963148  -4131.9196      0.09368058     51.278627      49.31105       20            -0.14985423     0.47350831   
      4030  -4131.9306      0.0098062311  -4131.9208      0.093775408    51.278579      49.31115       20             1.1834128      0.56133517   
      4040  -4131.9317      0.0098159611  -4131.9219      0.093868454    51.278871      49.311339      20            -1.4282748     -1.0504776    
      4050  -4131.9329      0.0098255547  -4131.923       0.093960197    51.278783      49.311307      20             0.62540468     0.64266352   
      4060  -4131.934       0.0098349594  -4131.9242      0.094050133    51.278847      49.311427      20             0.69078592     0.27860144   
      4070  -4131.9351      0.0098442071  -4131.9252      0.094138567    51.279113      49.311586      20            -1.5711188     -0.916984     
      4080  -4131.9362      0.0098533282  -4131.9263      0.09422579     51.278943      49.311574      20             1.3578918      0.71118278   
      4090  -4131.9373      0.0098622711  -4131.9274      0.09431131     51.279155      49.311684      20            -0.19581399     0.19130508   
      4100  -4131.9384      0.0098710845  -4131.9285      0.09439559     51.279293      49.311868      20            -1.0692324     -1.0391191    
      4110  -4131.9394      0.0098797768  -4131.9295      0.094478714    51.279163      49.311808      20             1.5207798      1.0738999    
      4120  -4131.9405      0.0098883049  -4131.9306      0.094560267    51.279441      49.31197       20            -0.86779191    -0.1678611    
      4130  -4131.9415      0.0098967278  -4131.9316      0.094640813    51.279455      49.312144      20            -0.34741006    -1.0321168    
      4140  -4131.9426      0.0099050319  -4131.9327      0.094720224    51.279433      49.312024      20             1.1764795      1.5750469    
      4150  -4131.9436      0.0099131879  -4131.9337      0.094798219    51.279672      49.312305      20            -1.0116728     -0.95811977   
      4160  -4131.9446      0.0099212589  -4131.9347      0.094875401    51.279659      49.312365      20             0.050650303   -0.446371     
      4170  -4131.9456      0.00992921    -4131.9357      0.094951436    51.279693      49.312282      20             0.87211749     1.6269831    
      4180  -4131.9466      0.0099370318  -4131.9367      0.095026234    51.279888      49.312639      20            -0.97200254    -1.6914402    
      4190  -4131.9476      0.0099447827  -4131.9376      0.095100355    51.279897      49.312546      20             0.15622398     0.55403563   
      4200  -4131.9486      0.0099524104  -4131.9386      0.095173297    51.279914      49.31261       20             0.88271711     0.97079294   
      4210  -4131.9495      0.0099599298  -4131.9396      0.095245204    51.280143      49.312913      20            -1.2268114     -1.7754037    
      4220  -4131.9505      0.0099673843  -4131.9405      0.095316491    51.280111      49.312756      20             0.49137274     1.292641     
      4230  -4131.9515      0.0099747131  -4131.9415      0.095386574    51.280139      49.312961      20             0.81457559     0.070833226  
      4240  -4131.9524      0.0099819548  -4131.9424      0.095455825    51.280425      49.313132      20            -1.6544391     -1.2601329    
      4250  -4131.9533      0.009989129   -4131.9433      0.095524432    51.280274      49.313033      20             1.2759855      1.390583     
      4260  -4131.9543      0.0099961784  -4131.9443      0.095591844    51.280427      49.313269      20             0.15148266    -0.43637373   
      4270  -4131.9552      0.010003159   -4131.9452      0.095658594    51.280664      49.313363      20            -1.6131492     -0.77118883   
      4280  -4131.9561      0.010010062   -4131.9461      0.095724615    51.280439      49.313333      20             1.9949643      1.2195838    
      4290  -4131.957       0.010016847   -4131.947       0.095789491    51.280763      49.313537      20            -0.95266895    -0.54546946   
      4300  -4131.9579      0.010023574   -4131.9479      0.095853819    51.280825      49.313642      20            -0.79380119    -0.66606242   
      4310  -4131.9588      0.010030213   -4131.9487      0.095917307    51.280679      49.313597      20             1.9759497      1.3481001    
      4320  -4131.9597      0.01003674    -4131.9496      0.095979728    51.281067      49.313827      20            -1.7379354     -0.83926574   
      4330  -4131.9605      0.010043216   -4131.9505      0.096041654    51.280963      49.313924      20             0.28764058    -0.54019387   
      4340  -4131.9614      0.010049591   -4131.9513      0.096102623    51.280987      49.313833      20             1.2602095      1.6912126    
      4350  -4131.9623      0.010055865   -4131.9522      0.096162618    51.281293      49.314173      20            -1.7518686     -1.6038731    
      4360  -4131.9631      0.010062087   -4131.953       0.096222119    51.281156      49.314147      20             0.88349886     0.19539597   
      4370  -4131.9639      0.010068198   -4131.9539      0.096280554    51.281286      49.314114      20             0.57367023     1.5481817    
      4380  -4131.9648      0.010074217   -4131.9547      0.096338117    51.281488      49.31452       20            -1.4097294     -2.2948311    
      4390  -4131.9656      0.01008018    -4131.9555      0.096395142    51.281407      49.31432       20             0.95495522     1.3980435    
      4400  -4131.9664      0.010086022   -4131.9563      0.096451003    51.281527      49.31448       20             0.3688864      0.55541231   
      4410  -4131.9672      0.010091784   -4131.9572      0.096506109    51.281726      49.314788      20            -1.3944835     -2.1535777    
      4420  -4131.9681      0.010097481   -4131.958       0.096560581    51.281638      49.314532      20             1.1712722      2.2177263    
      4430  -4131.9689      0.010103049   -4131.9588      0.096613829    51.281759      49.314873      20             0.21439854    -0.71466108   
      4440  -4131.9696      0.010108551   -4131.9595      0.096666441    51.282005      49.314983      20            -1.658698      -1.2135713    
      4450  -4131.9704      0.010113971   -4131.9603      0.096718271    51.281808      49.314835      20             1.9018407      2.1242668    
      4460  -4131.9712      0.010119263   -4131.9611      0.096768883    51.282061      49.315204      20            -0.57734841    -1.394326     
      4470  -4131.972       0.010124498   -4131.9619      0.096818946    51.282236      49.315189      20            -1.41862       -0.31169834   
      4480  -4131.9728      0.010129634   -4131.9626      0.09686806     51.281977      49.315177      20             2.5591835      1.5839031    
      4490  -4131.9735      0.01013465    -4131.9634      0.096916029    51.28242       49.31547       20            -1.8756914     -1.4113924    
      4500  -4131.9743      0.010139613   -4131.9641      0.096963482    51.282371      49.315465      20            -0.24154627    -0.0032924948 
      4510  -4131.975       0.01014446    -4131.9649      0.097009837    51.28224       49.315474      20             2.2743772      1.4060535    
      4520  -4131.9758      0.0101492     -4131.9656      0.097055166    51.282736      49.315754      20            -2.7146076     -1.5324394    
      4530  -4131.9765      0.010153884   -4131.9664      0.097099957    51.282477      49.315758      20             1.2251683      0.17575449   
      4540  -4131.9773      0.010158442   -4131.9671      0.097143547    51.282594      49.315726      20             1.0763414      1.5817589    
      4550  -4131.978       0.010162908   -4131.9678      0.097186247    51.282942      49.316105      20            -2.4715554     -2.2171688    
      4560  -4131.9787      0.01016731    -4131.9685      0.097228351    51.282662      49.315981      20             1.9653869      1.0224208    
      4570  -4131.9794      0.010171582   -4131.9693      0.097269198    51.282933      49.316027      20            -0.055124227    1.2328863    
      4580  -4131.9801      0.010175775   -4131.97        0.097309297    51.283099      49.31646       20            -1.6867323     -2.8271192    
      4590  -4131.9809      0.010179897   -4131.9707      0.097348718    51.282933      49.316144      20             1.8775896      2.416616     
      4600  -4131.9816      0.010183887   -4131.9714      0.097386871    51.283187      49.316433      20            -0.44362453    -0.14844925   
      4610  -4131.9823      0.010187813   -4131.9721      0.097424419    51.283314      49.316713      20            -1.3307741     -2.3710933    
      4620  -4131.9829      0.010191658   -4131.9728      0.097461186    51.283188      49.316357      20             1.8631493      3.2619509    
      4630  -4131.9836      0.010195374   -4131.9734      0.097496723    51.283416      49.316869      20            -0.61004354    -1.827994     
      4640  -4131.9843      0.010199042   -4131.9741      0.097531795    51.283588      49.316869      20            -1.4327487     -0.87782726   
      4650  -4131.985       0.010202614   -4131.9748      0.097565953    51.283363      49.316695      20             2.4952852      2.8367813    
      4660  -4131.9857      0.010206069   -4131.9755      0.097598993    51.283726      49.317217      20            -1.4979124     -2.6244606    
      4670  -4131.9863      0.010209486   -4131.9761      0.097631668    51.283808      49.317043      20            -0.98337975     0.5096656    
      4680  -4131.987       0.010212793   -4131.9768      0.097663295    51.283533      49.31709       20             3.0611295      1.7698554    
      4690  -4131.9877      0.010216003   -4131.9774      0.097693987    51.284108      49.317466      20            -2.9956853     -2.4087498    
      4700  -4131.9883      0.010219177   -4131.9781      0.097724345    51.283907      49.317317      20             0.62119414     0.98229525   
      4710  -4131.989       0.010222232   -4131.9787      0.097753559    51.283824      49.317422      20             2.409572       1.2124949    
      4720  -4131.9896      0.010225213   -4131.9794      0.097782062    51.284429      49.31773       20            -3.8351686     -2.2364235    
      4730  -4131.9902      0.010228154   -4131.98        0.097810191    51.283972      49.317626      20             2.5302215      1.1305286    
      4740  -4131.9909      0.010230974   -4131.9806      0.097837152    51.284235      49.317684      20             0.57474809     1.2296569    
      4750  -4131.9915      0.010233741   -4131.9813      0.097863621    51.284598      49.318083      20            -3.1736917     -2.8035722    
      4760  -4131.9921      0.010236462   -4131.9819      0.097889633    51.28415       49.317849      20             3.354541       2.0626842    
      4770  -4131.9928      0.010239064   -4131.9825      0.097914524    51.28462       49.318003      20            -1.0887479      0.6596861    
      4780  -4131.9934      0.010241635   -4131.9831      0.097939109    51.284699      49.318444      20            -1.7641569     -3.3061821    
      4790  -4131.994       0.010244149   -4131.9837      0.097963146    51.284453      49.317993      20             2.9452416      3.6697549    
      4800  -4131.9946      0.010246555   -4131.9844      0.097986153    51.284878      49.318455      20            -1.6133956     -1.2046491    
      4810  -4131.9952      0.010248946   -4131.985       0.098009018    51.284881      49.318671      20            -0.98964673    -2.4139248    
      4820  -4131.9958      0.010251269   -4131.9856      0.098031232    51.284741      49.318209      20             2.568277       4.485428     
      4830  -4131.9964      0.010253498   -4131.9862      0.098052551    51.28509       49.318942      20            -1.6969656     -3.3717029    
      4840  -4131.997       0.010255728   -4131.9868      0.098073871    51.285152      49.318767      20            -0.94693255    -0.17792121   
      4850  -4131.9976      0.010257876   -4131.9873      0.098094414    51.284918      49.318596      20             3.0731953      3.5370283    
      4860  -4131.9982      0.010259952   -4131.9879      0.098114264    51.285405      49.319297      20            -2.6656927     -4.2163767    
      4870  -4131.9988      0.010262036   -4131.9885      0.0981342      51.285359      49.318896      20            -0.26544721     1.7998571    
      4880  -4131.9993      0.010264027   -4131.9891      0.098153235    51.285085      49.31906       20             3.524602       1.729001     
      4890  -4131.9999      0.010265973   -4131.9897      0.098171848    51.285816      49.319509      20            -4.4040727     -3.5767693    
      4900  -4132.0005      0.010267927   -4131.9902      0.098190536    51.285406      49.319175      20             1.8930494      2.3779335    
      4910  -4132.0011      0.01026978    -4131.9908      0.098208256    51.285415      49.31943       20             2.3562332      0.70665773   
      4920  -4132.0016      0.01027162    -4131.9914      0.098225851    51.286136      49.319739      20            -5.182387      -2.963126     
      4930  -4132.0022      0.010273457   -4131.9919      0.098243412    51.285416      49.319508      20             4.3471888      2.3875686    
      4940  -4132.0027      0.010275195   -4131.9925      0.098260039    51.285903      49.319695      20            -0.3508758      0.58938131   
      4950  -4132.0033      0.010276948   -4131.993       0.098276794    51.286245      49.320094      20            -3.8687165     -3.3901457    
      4960  -4132.0039      0.01027868    -4131.9936      0.098293361    51.285593      49.319728      20             5.1730414      3.402241     
      4970  -4132.0044      0.010280327   -4131.9941      0.098309112    51.286343      49.32003       20            -2.6725902     -0.23919613   
      4980  -4132.0049      0.010282007   -4131.9947      0.098325173    51.286263      49.320461      20            -1.5776096     -3.7594015    
      4990  -4132.0055      0.010283651   -4131.9952      0.098340894    51.28595       49.319843      20             4.2133227      5.2844672    
      5000  -4132.006       0.010285226   -4131.9957      0.098355958    51.286594      49.320544      20            -3.2593379     -2.755        
      5010  -4132.0066      0.010286847   -4131.9963      0.098371459    51.286405      49.320643      20            -0.2915274     -2.239643     
      5020  -4132.0071      0.010288416   -4131.9968      0.098386468    51.286282      49.320064      20             3.3083072      5.9958382    
      5030  -4132.0076      0.010289937   -4131.9973      0.098401009    51.286774      49.321092      20            -3.1372041     -5.5408527    
      5040  -4132.0081      0.010291512   -4131.9978      0.098416073    51.28668       49.320652      20            -0.13852606     1.03209      
      5050  -4132.0087      0.010293018   -4131.9984      0.098430471    51.286456      49.320525      20             3.6754223      4.2356943    
      5060  -4132.0092      0.0102945     -4131.9989      0.098444649    51.287096      49.321445      20            -4.2022618     -6.3301809    
      5070  -4132.0097      0.010296038   -4131.9994      0.098459355    51.28687       49.320724      20             0.83139592     3.7495889    
      5080  -4132.0102      0.010297489   -4131.9999      0.098473225    51.286617      49.321084      20             3.9833727      1.3783774    
      5090  -4132.0107      0.010298949   -4132.0004      0.098487192    51.287546      49.321593      20            -6.2702107     -4.9893522    
      5100  -4132.0112      0.010300451   -4132.0009      0.098501555    51.286842      49.321016      20             3.765493       4.338085     
      5110  -4132.0117      0.010301856   -4132.0014      0.098514992    51.287006      49.321495      20             2.0525464     -0.2112709    
      5120  -4132.0122      0.010303305   -4132.0019      0.09852885     51.287859      49.321772      20            -6.8918602     -3.7462084    
      5130  -4132.0127      0.010304769   -4132.0024      0.098542842    51.286778      49.321389      20             6.9288061      4.0692951    
      5140  -4132.0132      0.01030614    -4132.0029      0.09855596     51.287604      49.321753      20            -1.8934454     -0.42124011   
      5150  -4132.0137      0.01030758    -4132.0034      0.098569731    51.287872      49.322134      20            -4.563938      -4.0325501    
      5160  -4132.0142      0.010309002   -4132.0039      0.098583327    51.286966      49.321599      20             7.6217952      5.206392     
      5170  -4132.0147      0.01031035    -4132.0044      0.098596214    51.288113      49.322109      20            -5.0497525     -1.5964312    
      5180  -4132.0152      0.010311777   -4132.0048      0.098609858    51.287774      49.322507      20            -1.0197064     -4.2266512    
      5190  -4132.0156      0.010313156   -4132.0053      0.098623052    51.287409      49.321668      20             5.7742272      7.4829696    
      5200  -4132.0161      0.010314483   -4132.0058      0.098635737    51.28834       49.322711      20            -5.5755655     -5.0553237    
      5210  -4132.0166      0.010315891   -4132.0063      0.098649202    51.28787       49.322618      20             0.88563755    -1.7599075    
      5220  -4132.017       0.010317226   -4132.0067      0.09866197     51.287803      49.321901      20             4.1327654      7.9639071    
      5230  -4132.0175      0.010318531   -4132.0072      0.098674445    51.288469      49.323342      20            -5.0902974     -8.6614497    
      5240  -4132.018       0.010319914   -4132.0077      0.098687677    51.28816       49.322497      20             1.0933565      3.003177     
      5250  -4132.0184      0.010321198   -4132.0081      0.098699954    51.287963      49.322476      20             4.3831501      4.9386644    
      5260  -4132.0189      0.010322481   -4132.0086      0.098712224    51.288808      49.323674      20            -6.3284051     -9.2182817    
      5270  -4132.0194      0.010323831   -4132.009       0.09872513     51.288323      49.322494      20             2.4799227      6.6628767    
      5280  -4132.0198      0.010325056   -4132.0095      0.098736846    51.288115      49.323169      20             4.4916463      0.58701043   
      5290  -4132.0203      0.010326319   -4132.0099      0.098748929    51.289317      49.323718      20            -8.8831369     -6.7643046    
      5300  -4132.0207      0.010327619   -4132.0104      0.098761354    51.288182      49.322821      20             6.5691631      7.1014309    
      5310  -4132.0212      0.010328784   -4132.0108      0.098772494    51.288599      49.323625      20             1.3821451     -1.6832059    
      5320  -4132.0216      0.010330026   -4132.0113      0.09878437     51.28961       49.323828      20            -9.1757656     -4.6591257    
[...]
     98740  -4132.1232      0.010485384   -4132.1127      0.10027004     51.292951      49.397078      20            -41.667314     -22.844223    
     98750  -4132.1232      0.010485728   -4132.1128      0.10027333     51.288937      49.396223      20             4.2901071     -5.520381     
     98760  -4132.1231      0.010486157   -4132.1127      0.10027743     51.286684      49.393302      20             34.918267      32.139213    
     98770  -4132.1231      0.010486443   -4132.1126      0.10028016     51.293093      49.397662      20            -44.888753     -30.410928    
     98780  -4132.1231      0.010486806   -4132.1126      0.10028364     51.287553      49.396073      20             19.452174     -1.7276541    
     98790  -4132.123       0.010487234   -4132.1125      0.10028773     51.288338      49.39242       20             17.934725      38.472851    
     98800  -4132.1229      0.010487489   -4132.1125      0.10029017     51.291846      49.399314      20            -34.792194     -47.557396    
     98810  -4132.123       0.010487897   -4132.1125      0.10029407     51.287991      49.39418       20             18.017937      18.549826    
     98820  -4132.1229      0.010488284   -4132.1124      0.10029777     51.288404      49.393355      20             14.98148       27.013735    
     98830  -4132.1228      0.010488544   -4132.1123      0.10030026     51.291495      49.399776      20            -32.166115     -52.78336     
     98840  -4132.1228      0.010488974   -4132.1123      0.10030437     51.288483      49.392332      20             15.960831      38.207928    
     98850  -4132.1228      0.010489316   -4132.1123      0.10030764     51.28752       49.395445      20             20.311461      4.1411461    
     98860  -4132.1227      0.010489607   -4132.1122      0.10031043     51.292758      49.398327      20            -43.50157      -39.196302    
     98870  -4132.1227      0.010490019   -4132.1122      0.10031436     51.287181      49.392395      20             30.018761      39.38703     
     98880  -4132.1227      0.01049035    -4132.1122      0.10031753     51.288057      49.396333      20             12.385664     -7.6835199    
     98890  -4132.1226      0.010490649   -4132.1121      0.10032038     51.293549      49.396978      20            -49.737108     -25.85094     
     98900  -4132.1225      0.010491045   -4132.1121      0.10032417     51.285148      49.393411      20             50.347748      31.047437    
     98910  -4132.1226      0.010491379   -4132.1121      0.10032737     51.290383      49.395592      20            -11.998244     -4.2509876    
     98920  -4132.1225      0.010491656   -4132.112       0.10033001     51.29216       49.397398      20            -35.301214     -28.595203    
     98930  -4132.1224      0.010492071   -4132.1119      0.10033398     51.284861      49.393042      20             54.201071      35.24417     
     98940  -4132.1225      0.010492371   -4132.112       0.10033685     51.292124      49.395433      20            -30.996015     -6.3823209    
     98950  -4132.1224      0.010492647   -4132.1119      0.10033949     51.290004      49.398254      20            -13.167792     -34.85319     
     98960  -4132.1223      0.010493081   -4132.1118      0.10034364     51.286385      49.391269      20             40.872802      52.054465    
     98970  -4132.1224      0.010493319   -4132.1119      0.10034592     51.291746      49.397254      20            -30.412591     -27.130757    
     98980  -4132.1224      0.01049364    -4132.1119      0.10034899     51.289543      49.397216      20            -5.9350616     -22.661156    
     98990  -4132.1222      0.010494038   -4132.1117      0.1003528      51.287198      49.390568      20             33.368409      57.938254    
     99000  -4132.1222      0.010494248   -4132.1117      0.10035481     51.290959      49.399303      20            -25.688898     -49.715336    
     99010  -4132.1223      0.010494609   -4132.1118      0.10035826     51.290466      49.394661      20            -10.901249      4.2780264    
     99020  -4132.1222      0.010494943   -4132.1117      0.10036145     51.2861        49.392111      20             42.605828      41.750779    
     99030  -4132.1221      0.010495174   -4132.1116      0.10036366     51.292079      49.399253      20            -37.784849     -51.880113    
     99040  -4132.1222      0.010495518   -4132.1117      0.10036694     51.290111      49.393253      20            -3.9337068      20.526899    
     99050  -4132.1221      0.010495825   -4132.1116      0.10036988     51.285197      49.393851      20             49.370395      22.936515    
     99060  -4132.122       0.010496063   -4132.1115      0.10037216     51.2943        49.397804      20            -59.182636     -40.127314    
     99070  -4132.1221      0.010496374   -4132.1116      0.10037513     51.287661      49.39388       20             22.240726      17.470616    
     99080  -4132.1221      0.010496691   -4132.1116      0.10037817     51.286696      49.393622      20             33.569602      22.098036    
     99090  -4132.1219      0.010496882   -4132.1114      0.10037999     51.294772      49.397656      20            -63.74219      -39.913182    
     99100  -4132.122       0.010497208   -4132.1115      0.10038311     51.285604      49.394232      20             44.704407      16.813355    
     99110  -4132.122       0.010497501   -4132.1115      0.10038591     51.289373      49.392554      20             6.4807565      28.615884    
     99120  -4132.1219      0.010497651   -4132.1114      0.10038735     51.292992      49.399254      20            -46.803797     -55.399413    
     99130  -4132.1219      0.010498021   -4132.1114      0.10039089     51.286004      49.392408      20             44.394598      36.395272    
     99140  -4132.122       0.010498226   -4132.1115      0.10039285     51.290326      49.393384      20            -5.2373739      16.678263    
     99150  -4132.1218      0.010498403   -4132.1113      0.10039454     51.291679      49.399956      20            -33.151142     -61.495606    
     99160  -4132.1218      0.010498762   -4132.1113      0.10039797     51.28728       49.390029      20             35.584719      60.672611    
     99170  -4132.1219      0.010498896   -4132.1114      0.10039925     51.289455      49.396118      20            -0.4787008     -13.583273    
     99180  -4132.1218      0.01049913    -4132.1113      0.10040149     51.292579      49.398087      20            -38.773742     -42.360672    
     99190  -4132.1218      0.010499411   -4132.1113      0.10040418     51.286632      49.389881      20             43.69357       63.060306    
     99200  -4132.1219      0.010499546   -4132.1114      0.10040547     51.289664      49.397837      20            -5.5691894     -34.264472    
     99210  -4132.1218      0.010499777   -4132.1113      0.10040767     51.293667      49.395653      20            -45.25822      -17.107212    
     99220  -4132.1217      0.010500004   -4132.1112      0.10040985     51.284499      49.391596      20             64.595649      46.929501    
     99230  -4132.1218      0.010500157   -4132.1113      0.10041131     51.292291      49.397132      20            -32.486842     -31.787652    
     99240  -4132.1218      0.010500332   -4132.1113      0.10041299     51.292244      49.395341      20            -28.116363     -11.336228    
     99250  -4132.1217      0.010500574   -4132.1112      0.10041529     51.284036      49.392156      20             69.398434      40.839048    
     99260  -4132.1217      0.010500675   -4132.1112      0.10041626     51.294831      49.396312      20            -58.113421     -27.818227    
     99270  -4132.1218      0.010500841   -4132.1113      0.10041785     51.289252      49.396332      20             3.8706966     -17.486802    
     99280  -4132.1217      0.010501089   -4132.1112      0.10042022     51.286241      49.390608      20             48.961221      53.813672    
     99290  -4132.1217      0.010501101   -4132.1112      0.10042034     51.294674      49.397794      20            -58.424917     -45.047498    
     99300  -4132.1218      0.010501331   -4132.1113      0.10042253     51.287986      49.395547      20             20.390499     -6.5854848    
     99310  -4132.1217      0.010501494   -4132.1112      0.10042409     51.288306      49.389655      20             28.975283      60.240482    
     99320  -4132.1216      0.01050149    -4132.1111      0.10042405     51.293153      49.400193      20            -45.400251     -70.15725     
     99330  -4132.1218      0.010501757   -4132.1113      0.10042661     51.289043      49.39253       20             15.748791      25.466951    
     99340  -4132.1217      0.010501803   -4132.1112      0.10042705     51.287923      49.391487      20             30.591509      39.417632    
     99350  -4132.1216      0.010501861   -4132.1111      0.10042761     51.293488      49.400322      20            -48.287845     -72.804176    
     99360  -4132.1217      0.010502065   -4132.1112      0.10042955     51.289385      49.390342      20             17.441345      49.402211    
     99370  -4132.1218      0.010502076   -4132.1112      0.10042966     51.286918      49.39427       20             37.278708      8.9113562    
     99380  -4132.1216      0.010502163   -4132.1111      0.10043049     51.295694      49.398126      20            -67.153263     -52.382314    
     99390  -4132.1217      0.010502282   -4132.1112      0.10043163     51.287133      49.390917      20             42.40117       46.637569    
     99400  -4132.1218      0.010502324   -4132.1113      0.10043203     51.288424      49.394874      20             20.595957     -1.4365205    
     99410  -4132.1216      0.010502347   -4132.1111      0.10043226     51.296441      49.396823      20            -71.583888     -39.383065    
     99420  -4132.1217      0.010502467   -4132.1112      0.1004334      51.284654      49.392064      20             68.821716      37.745949    
     99430  -4132.1218      0.010502485   -4132.1113      0.10043358     51.291898      49.393716      20            -14.246316      4.6729448    
     99440  -4132.1217      0.010502455   -4132.1112      0.10043329     51.294223      49.397904      20            -47.888069     -47.993659    
     99450  -4132.1217      0.010502622   -4132.1112      0.10043488     51.285004      49.390907      20             68.601419      49.868157    
     99460  -4132.1218      0.010502524   -4132.1113      0.10043394     51.293803      49.394088      20            -34.708031     -3.7508343    
     99470  -4132.1218      0.010502546   -4132.1113      0.10043415     51.29179       49.398767      20            -21.312169     -53.699619    
     99480  -4132.1217      0.010502674   -4132.1112      0.10043538     51.287196      49.388457      20             50.651786      73.296919    
     99490  -4132.1218      0.010502494   -4132.1113      0.10043366     51.293023      49.396941      20            -30.332179     -35.438105    
     99500  -4132.1219      0.010502606   -4132.1114      0.10043473     51.291951      49.396793      20            -17.678243     -31.837269    
     99510  -4132.1217      0.010502597   -4132.1112      0.10043465     51.287728      49.388131      20             46.909963      75.549079    
     99520  -4132.1218      0.010502455   -4132.1113      0.10043328     51.292548      49.39925       20            -28.160885     -61.45934     
     99530  -4132.1219      0.010502557   -4132.1114      0.10043426     51.293232      49.393524      20            -23.767423      2.7440164    
     99540  -4132.1218      0.010502459   -4132.1113      0.10043332     51.28607       49.390441      20             62.215732      51.777768    
     99550  -4132.1218      0.010502382   -4132.1113      0.10043258     51.294731      49.398622      20            -49.463054     -58.901003    
     99560  -4132.122       0.010502387   -4132.1115      0.10043264     51.292234      49.392379      20            -8.8168682      17.36144     
     99570  -4132.1219      0.010502311   -4132.1114      0.10043191     51.285522      49.392161      20             66.491076      32.652362    
     99580  -4132.1218      0.010502196   -4132.1113      0.10043081     51.297509      49.396962      20            -75.199088     -45.638208    
     99590  -4132.122       0.01050217    -4132.1115      0.10043056     51.289044      49.39341       20             26.130273      11.250513    
     99600  -4132.122       0.010502115   -4132.1115      0.10043003     51.288046      49.391332      20             41.924237      36.8824      
     99610  -4132.1219      0.010501904   -4132.1114      0.10042802     51.297535      49.397446      20            -74.711471     -51.660818    
     99620  -4132.1221      0.010501947   -4132.1116      0.10042843     51.287211      49.39331       20             48.391102      15.519463    
     99630  -4132.1221      0.010501795   -4132.1116      0.10042698     51.29115       49.390276      20             11.460729      42.608247    
     99640  -4132.122       0.010501585   -4132.1115      0.10042497     51.295359      49.399518      20            -52.965274     -71.633241    
     99650  -4132.1221      0.010501666   -4132.1116      0.10042574     51.28831       49.390672      20             43.356066      43.277733    
     99660  -4132.1222      0.010501376   -4132.1117      0.10042296     51.291716      49.391904      20             3.8117458      22.447652    
     99670  -4132.1221      0.010501272   -4132.1116      0.10042198     51.294537      49.399749      20            -42.445012     -73.093637    
     99680  -4132.1221      0.010501254   -4132.1116      0.1004218      51.289582      49.388258      20             36.009718      68.156354    
     99690  -4132.1223      0.01050094    -4132.1118      0.1004188      51.290769      49.395095      20             9.8502984     -12.72416     
     99700  -4132.1222      0.010500899   -4132.1117      0.10041841     51.296087      49.397207      20            -52.548293     -47.30101     
     99710  -4132.1222      0.010500751   -4132.1117      0.10041699     51.288343      49.388736      20             50.762498      64.690111    
     99720  -4132.1224      0.010500511   -4132.1119      0.1004147      51.291746      49.396392      20            -1.5569219     -29.835772    
     99730  -4132.1223      0.010500404   -4132.1118      0.10041367     51.296976      49.39491       20            -55.768888     -23.016903    
     99740  -4132.1223      0.01050024    -4132.1118      0.1004121      51.286192      49.390595      20             72.907402      47.147622    
     99750  -4132.1225      0.010500014   -4132.112       0.10040994     51.29503       49.395293      20            -33.624987     -23.904123    
     99760  -4132.1225      0.010499837   -4132.112       0.10040825     51.294952      49.395146      20            -31.758865     -22.173219    
     99770  -4132.1224      0.010499726   -4132.1119      0.10040719     51.286495      49.390586      20             71.679106      46.326254    
     99780  -4132.1225      0.010499401   -4132.112       0.10040408     51.297313      49.394882      20            -55.916347     -23.904553    
     99790  -4132.1226      0.010499276   -4132.1121      0.10040288     51.29209       49.396032      20             0.29009044    -27.154424    
     99800  -4132.1226      0.010499131   -4132.1121      0.10040149     51.289149      49.388789      20             48.069887      61.526253    
     99810  -4132.1226      0.010498737   -4132.1121      0.10039773     51.296702      49.39689       20            -50.971185     -46.072374    
     99820  -4132.1228      0.01049871    -4132.1123      0.10039748     51.291579      49.394614      20             10.999946     -10.214036    
     99830  -4132.1227      0.010498419   -4132.1122      0.10039469     51.290816      49.388381      20             32.680546      62.688499    
     99840  -4132.1227      0.010498095   -4132.1122      0.10039159     51.295523      49.398998      20            -39.870786     -68.271716    
     99850  -4132.1229      0.010498055   -4132.1124      0.10039121     51.292877      49.391544      20             5.0641708      22.227049    
     99860  -4132.1229      0.010497668   -4132.1124      0.10038751     51.290119      49.39062       20             38.217974      38.056179    
     99870  -4132.1228      0.010497449   -4132.1123      0.10038541     51.296551      49.398483      20            -47.899998     -64.623693    
     99880  -4132.123       0.010497291   -4132.1125      0.1003839      51.292766      49.390046      20             11.624866      39.354684    
     99890  -4132.123       0.010496941   -4132.1125      0.10038055     51.28963       49.392919      20             41.38562       12.338935    
     99900  -4132.123       0.010496716   -4132.1125      0.10037841     51.298712      49.396386      20            -65.232115     -44.988919    
     99910  -4132.1231      0.010496498   -4132.1126      0.10037632     51.290479      49.390959      20             37.516363      33.026946    
     99920  -4132.1232      0.0104962     -4132.1127      0.10037347     51.291697      49.392901      20             20.962215      8.3168471    
     99930  -4132.1232      0.010495893   -4132.1127      0.10037054     51.298884      49.39576       20            -63.442577     -38.385054    
     99940  -4132.1232      0.010495727   -4132.1127      0.10036895     51.288835      49.391624      20             56.844593      28.332824    
     99950  -4132.1234      0.010495368   -4132.1129      0.10036551     51.29478       49.391939      20            -8.7599244      13.193924    
     99960  -4132.1234      0.010495062   -4132.1129      0.10036259     51.296788      49.396939      20            -40.121854     -48.099654    
     99970  -4132.1234      0.010494929   -4132.1129      0.10036132     51.28982       49.390161      20             51.379102      43.008308    
     99980  -4132.1235      0.01049446    -4132.113       0.10035683     51.295906      49.392795      20            -20.407087      0.99030489   
     99990  -4132.1235      0.010494259   -4132.113       0.1003549      51.295316      49.397212      20            -21.844686     -48.605406    
    100000  -4132.1235      0.010494034   -4132.113       0.10035276     51.291636      49.388323      20             37.509486      60.411402    
Loop time of 648.845 on 1 procs for 100000 steps with 810 atoms

Performance: 13.316 ns/day, 1.802 hours/ns, 154.120 timesteps/s, 124.837 katom-step/s
99.6% CPU use with 1 MPI tasks x no OpenMP threads

MPI task timing breakdown:
Section |  min time  |  avg time  |  max time  |%varavg| %total
---------------------------------------------------------------
Pair    | 646.97     | 646.97     | 646.97     |   0.0 | 99.71
Neigh   | 0.0024241  | 0.0024241  | 0.0024241  |   0.0 |  0.00
Comm    | 0.11501    | 0.11501    | 0.11501    |   0.0 |  0.02
Output  | 0.20134    | 0.20134    | 0.20134    |   0.0 |  0.03
Modify  | 1.4789     | 1.4789     | 1.4789     |   0.0 |  0.23
Other   |            | 0.07563    |            |       |  0.01

Nlocal:            810 ave         810 max         810 min
Histogram: 1 0 0 0 0 0 0 0 0 0
Nghost:            501 ave         501 max         501 min
Histogram: 1 0 0 0 0 0 0 0 0 0
Neighs:              0 ave           0 max           0 min
Histogram: 1 0 0 0 0 0 0 0 0 0
FullNghs:        34560 ave       34560 max       34560 min
Histogram: 1 0 0 0 0 0 0 0 0 0

Total # of neighbors = 34560
Ave neighs/atom = 42.666667
Neighbor list builds = 4
Dangerous builds = 0

write_data      MoSe2_npt0.data
System init for write_data ...
Total wall time: 0:10:48
