ITEM: TIMESTEP
0
ITEM: NUMBER OF ATOMS
810
ITEM: BOX BOUNDS pp pp pp
0.0000000000000000e+00 5.3017604999999996e+01
0.0000000000000000e+00 5.1016215000000003e+01
-3.7999999999999998e+00 3.7999999999999998e+00
ITEM: ATOMS id type x y z xu yu zu
1 1 0 0 0 0 0 0
2 2 1.96362 0 1.73297 1.96362 0 1.73297
3 2 1.96362 0 -1.73297 1.96362 0 -1.73297
4 1 2.94542 1.70054 0 2.94542 1.70054 0
5 2 4.90904 1.70054 1.73297 4.90904 1.70054 1.73297
6 2 4.90904 1.70054 -1.73297 4.90904 1.70054 -1.73297
7 1 5.89084 0 0 5.89084 0 0
8 2 7.85446 0 1.73297 7.85446 0 1.73297
9 2 7.85446 0 -1.73297 7.85446 0 -1.73297
10 1 8.83627 1.70054 0 8.83627 1.70054 0
11 2 10.7999 1.70054 1.73297 10.7999 1.70054 1.73297
12 2 10.7999 1.70054 -1.73297 10.7999 1.70054 -1.73297
13 1 11.7817 0 0 11.7817 0 0
14 2 13.7453 0 1.73297 13.7453 0 1.73297
15 2 13.7453 0 -1.73297 13.7453 0 -1.73297
16 1 14.7271 1.70054 0 14.7271 1.70054 0
17 2 16.6907 1.70054 1.73297 16.6907 1.70054 1.73297
18 2 16.6907 1.70054 -1.73297 16.6907 1.70054 -1.73297
19 1 17.6725 0 0 17.6725 0 0
20 2 19.6362 0 1.73297 19.6362 0 1.73297
21 2 19.6362 0 -1.73297 19.6362 0 -1.73297
22 1 20.618 1.70054 0 20.618 1.70054 0
23 2 22.5816 1.70054 1.73297 22.5816 1.70054 1.73297
24 2 22.5816 1.70054 -1.73297 22.5816 1.70054 -1.73297
25 1 23.5634 0 0 23.5634 0 0
26 2 25.527 0 1.73297 25.527 0 1.73297
27 2 25.527 0 -1.73297 25.527 0 -1.73297
28 1 26.5088 1.70054 0 26.5088 1.70054 0
29 2 28.4724 1.70054 1.73297 28.4724 1.70054 1.73297
30 2 28.4724 1.70054 -1.73297 28.4724 1.70054 -1.73297
31 1 29.4542 0 0 29.4542 0 0
32 2 31.4178 0 1.73297 31.4178 0 1.73297
33 2 31.4178 0 -1.73297 31.4178 0 -1.73297
34 1 32.3996 1.70054 0 32.3996 1.70054 0
35 2 34.3633 1.70054 1.73297 34.3633 1.70054 1.73297
36 2 34.3633 1.70054 -1.73297 34.3633 1.70054 -1.73297
37 1 35.3451 0 0 35.3451 0 0
38 2 37.3087 0 1.73297 37.3087 0 1.73297
39 2 37.3087 0 -1.73297 37.3087 0 -1.73297
40 1 38.2905 1.70054 0 38.2905 1.70054 0
41 2 40.2541 1.70054 1.73297 40.2541 1.70054 1.73297
42 2 40.2541 1.70054 -1.73297 40.2541 1.70054 -1.73297
43 1 41.2359 0 0 41.2359 0 0
44 2 43.1995 0 1.73297 43.1995 0 1.73297
45 2 43.1995 0 -1.73297 43.1995 0 -1.73297
46 1 44.1813 1.70054 0 44.1813 1.70054 0
47 2 46.145 1.70054 1.73297 46.145 1.70054 1.73297
48 2 46.145 1.70054 -1.73297 46.145 1.70054 -1.73297
49 1 47.1268 0 0 47.1268 0 0
50 2 49.0904 0 1.73297 49.0904 0 1.73297
51 2 49.0904 0 -1.73297 49.0904 0 -1.73297
52 1 50.0722 1.70054 0 50.0722 1.70054 0
53 2 52.0358 1.70054 1.73297 52.0358 1.70054 1.73297
54 2 52.0358 1.70054 -1.73297 52.0358 1.70054 -1.73297
55 1 0 3.40108 0 0 3.40108 0
56 2 1.96362 3.40108 1.73297 1.96362 3.40108 1.73297
57 2 1.96362 3.40108 -1.73297 1.96362 3.40108 -1.73297
58 1 2.94542 5.10162 0 2.94542 5.10162 0
59 2 4.90904 5.10162 1.73297 4.90904 5.10162 1.73297
60 2 4.90904 5.10162 -1.73297 4.90904 5.10162 -1.73297
61 1 5.89084 3.40108 0 5.89084 3.40108 0
62 2 7.85446 3.40108 1.73297 7.85446 3.40108 1.73297
63 2 7.85446 3.40108 -1.73297 7.85446 3.40108 -1.73297
64 1 8.83627 5.10162 0 8.83627 5.10162 0
65 2 10.7999 5.10162 1.73297 10.7999 5.10162 1.73297
66 2 10.7999 5.10162 -1.73297 10.7999 5.10162 -1.73297
67 1 11.7817 3.40108 0 11.7817 3.40108 0
68 2 13.7453 3.40108 1.73297 13.7453 3.40108 1.73297
69 2 13.7453 3.40108 -1.73297 13.7453 3.40108 -1.73297
70 1 14.7271 5.10162 0 14.7271 5.10162 0
71 2 16.6907 5.10162 1.73297 16.6907 5.10162 1.73297
72 2 16.6907 5.10162 -1.73297 16.6907 5.10162 -1.73297
73 1 17.6725 3.40108 0 17.6725 3.40108 0
74 2 19.6362 3.40108 1.73297 19.6362 3.40108 1.73297
75 2 19.6362 3.40108 -1.73297 19.6362 3.40108 -1.73297
76 1 20.618 5.10162 0 20.618 5.10162 0
77 2 22.5816 5.10162 1.73297 22.5816 5.10162 1.73297
78 2 22.5816 5.10162 -1.73297 22.5816 5.10162 -1.73297
79 1 23.5634 3.40108 0 23.5634 3.40108 0
80 2 25.527 3.40108 1.73297 25.527 3.40108 1.73297
81 2 25.527 3.40108 -1.73297 25.527 3.40108 -1.73297
82 1 26.5088 5.10162 0 26.5088 5.10162 0
83 2 28.4724 5.10162 1.73297 28.4724 5.10162 1.73297
84 2 28.4724 5.10162 -1.73297 28.4724 5.10162 -1.73297
85 1 29.4542 3.40108 0 29.4542 3.40108 0
86 2 31.4178 3.40108 1.73297 31.4178 3.40108 1.73297
87 2 31.4178 3.40108 -1.73297 31.4178 3.40108 -1.73297
88 1 32.3996 5.10162 0 32.3996 5.10162 0
89 2 34.3633 5.10162 1.73297 34.3633 5.10162 1.73297
90 2 34.3633 5.10162 -1.73297 34.3633 5.10162 -1.73297
91 1 35.3451 3.40108 0 35.3451 3.40108 0
92 2 37.3087 3.40108 1.73297 37.3087 3.40108 1.73297
93 2 37.3087 3.40108 -1.73297 37.3087 3.40108 -1.73297
94 1 38.2905 5.10162 0 38.2905 5.10162 0
95 2 40.2541 5.10162 1.73297 40.2541 5.10162 1.73297
96 2 40.2541 5.10162 -1.73297 40.2541 5.10162 -1.73297
97 1 41.2359 3.40108 0 41.2359 3.40108 0
98 2 43.1995 3.40108 1.73297 43.1995 3.40108 1.73297
99 2 43.1995 3.40108 -1.73297 43.1995 3.40108 -1.73297
100 1 44.1813 5.10162 0 44.1813 5.10162 0
101 2 46.145 5.10162 1.73297 46.145 5.10162 1.73297
102 2 46.145 5.10162 -1.73297 46.145 5.10162 -1.73297
103 1 47.1268 3.40108 0 47.1268 3.40108 0
104 2 49.0904 3.40108 1.73297 49.0904 3.40108 1.73297
105 2 49.0904 3.40108 -1.73297 49.0904 3.40108 -1.73297
106 1 50.0722 5.10162 0 50.0722 5.10162 0
107 2 52.0358 5.10162 1.73297 52.0358 5.10162 1.73297
108 2 52.0358 5.10162 -1.73297 52.0358 5.10162 -1.73297
109 1 0 6.80216 0 0 6.80216 0
110 2 1.96362 6.80216 1.73297 1.96362 6.80216 1.73297
111 2 1.96362 6.80216 -1.73297 1.96362 6.80216 -1.73297
112 1 2.94542 8.5027 0 2.94542 8.5027 0
113 2 4.90904 8.5027 1.73297 4.90904 8.5027 1.73297
114 2 4.90904 8.5027 -1.73297 4.90904 8.5027 -1.73297
115 1 5.89084 6.80216 0 5.89084 6.80216 0
116 2 7.85446 6.80216 1.73297 7.85446 6.80216 1.73297
117 2 7.85446 6.80216 -1.73297 7.85446 6.80216 -1.73297
118 1 8.83627 8.5027 0 8.83627 8.5027 0
119 2 10.7999 8.5027 1.73297 10.7999 8.5027 1.73297
120 2 10.7999 8.5027 -1.73297 10.7999 8.5027 -1.73297
121 1 11.7817 6.80216 0 11.7817 6.80216 0
122 2 13.7453 6.80216 1.73297 13.7453 6.80216 1.73297
123 2 13.7453 6.80216 -1.73297 13.7453 6.80216 -1.73297
124 1 14.7271 8.5027 0 14.7271 8.5027 0
125 2 16.6907 8.5027 1.73297 16.6907 8.5027 1.73297
126 2 16.6907 8.5027 -1.73297 16.6907 8.5027 -1.73297
127 1 17.6725 6.80216 0 17.6725 6.80216 0
128 2 19.6362 6.80216 1.73297 19.6362 6.80216 1.73297
129 2 19.6362 6.80216 -1.73297 19.6362 6.80216 -1.73297
130 1 20.618 8.5027 0 20.618 8.5027 0
131 2 22.5816 8.5027 1.73297 22.5816 8.5027 1.73297
132 2 22.5816 8.5027 -1.73297 22.5816 8.5027 -1.73297
133 1 23.5634 6.80216 0 23.5634 6.80216 0
134 2 25.527 6.80216 1.73297 25.527 6.80216 1.73297
135 2 25.527 6.80216 -1.73297 25.527 6.80216 -1.73297
136 1 26.5088 8.5027 0 26.5088 8.5027 0
137 2 28.4724 8.5027 1.73297 28.4724 8.5027 1.73297
138 2 28.4724 8.5027 -1.73297 28.4724 8.5027 -1.73297
139 1 29.4542 6.80216 0 29.4542 6.80216 0
140 2 31.4178 6.80216 1.73297 31.4178 6.80216 1.73297
141 2 31.4178 6.80216 -1.73297 31.4178 6.80216 -1.73297
142 1 32.3996 8.5027 0 32.3996 8.5027 0
143 2 34.3633 8.5027 1.73297 34.3633 8.5027 1.73297
144 2 34.3633 8.5027 -1.73297 34.3633 8.5027 -1.73297
145 1 35.3451 6.80216 0 35.3451 6.80216 0
146 2 37.3087 6.80216 1.73297 37.3087 6.80216 1.73297
147 2 37.3087 6.80216 -1.73297 37.3087 6.80216 -1.73297
148 1 38.2905 8.5027 0 38.2905 8.5027 0
149 2 40.2541 8.5027 1.73297 40.2541 8.5027 1.73297
150 2 40.2541 8.5027 -1.73297 40.2541 8.5027 -1.73297
151 1 41.2359 6.80216 0 41.2359 6.80216 0
152 2 43.1995 6.80216 1.73297 43.1995 6.80216 1.73297
153 2 43.1995 6.80216 -1.73297 43.1995 6.80216 -1.73297
154 1 44.1813 8.5027 0 44.1813 8.5027 0
155 2 46.145 8.5027 1.73297 46.145 8.5027 1.73297
156 2 46.145 8.5027 -1.73297 46.145 8.5027 -1.73297
157 1 47.1268 6.80216 0 47.1268 6.80216 0
158 2 49.0904 6.80216 1.73297 49.0904 6.80216 1.73297
159 2 49.0904 6.80216 -1.73297 49.0904 6.80216 -1.73297
160 1 50.0722 8.5027 0 50.0722 8.5027 0
161 2 52.0358 8.5027 1.73297 52.0358 8.5027 1.73297
162 2 52.0358 8.5027 -1.73297 52.0358 8.5027 -1.73297
163 1 0 10.2032 0 0 10.2032 0
164 2 1.96362 10.2032 1.73297 1.96362 10.2032 1.73297
165 2 1.96362 10.2032 -1.73297 1.96362 10.2032 -1.73297
166 1 2.94542 11.9038 0 2.94542 11.9038 0
167 2 4.90904 11.9038 1.73297 4.90904 11.9038 1.73297
168 2 4.90904 11.9038 -1.73297 4.90904 11.9038 -1.73297
169 1 5.89084 10.2032 0 5.89084 10.2032 0
170 2 7.85446 10.2032 1.73297 7.85446 10.2032 1.73297
171 2 7.85446 10.2032 -1.73297 7.85446 10.2032 -1.73297
172 1 8.83627 11.9038 0 8.83627 11.9038 0
173 2 10.7999 11.9038 1.73297 10.7999 11.9038 1.73297
174 2 10.7999 11.9038 -1.73297 10.7999 11.9038 -1.73297
175 1 11.7817 10.2032 0 11.7817 10.2032 0
176 2 13.7453 10.2032 1.73297 13.7453 10.2032 1.73297
177 2 13.7453 10.2032 -1.73297 13.7453 10.2032 -1.73297
178 1 14.7271 11.9038 0 14.7271 11.9038 0
179 2 16.6907 11.9038 1.73297 16.6907 11.9038 1.73297
180 2 16.6907 11.9038 -1.73297 16.6907 11.9038 -1.73297
181 1 17.6725 10.2032 0 17.6725 10.2032 0
182 2 19.6362 10.2032 1.73297 19.6362 10.2032 1.73297
183 2 19.6362 10.2032 -1.73297 19.6362 10.2032 -1.73297
184 1 20.618 11.9038 0 20.618 11.9038 0
185 2 22.5816 11.9038 1.73297 22.5816 11.9038 1.73297
186 2 22.5816 11.9038 -1.73297 22.5816 11.9038 -1.73297
187 1 23.5634 10.2032 0 23.5634 10.2032 0
188 2 25.527 10.2032 1.73297 25.527 10.2032 1.73297
189 2 25.527 10.2032 -1.73297 25.527 10.2032 -1.73297
190 1 26.5088 11.9038 0 26.5088 11.9038 0
191 2 28.4724 11.9038 1.73297 28.4724 11.9038 1.73297
192 2 28.4724 11.9038 -1.73297 28.4724 11.9038 -1.73297
193 1 29.4542 10.2032 0 29.4542 10.2032 0
194 2 31.4178 10.2032 1.73297 31.4178 10.2032 1.73297
195 2 31.4178 10.2032 -1.73297 31.4178 10.2032 -1.73297
196 1 32.3996 11.9038 0 32.3996 11.9038 0
197 2 34.3633 11.9038 1.73297 34.3633 11.9038 1.73297
198 2 34.3633 11.9038 -1.73297 34.3633 11.9038 -1.73297
199 1 35.3451 10.2032 0 35.3451 10.2032 0
200 2 37.3087 10.2032 1.73297 37.3087 10.2032 1.73297
201 2 37.3087 10.2032 -1.73297 37.3087 10.2032 -1.73297
202 1 38.2905 11.9038 0 38.2905 11.9038 0
203 2 40.2541 11.9038 1.73297 40.2541 11.9038 1.73297
204 2 40.2541 11.9038 -1.73297 40.2541 11.9038 -1.73297
205 1 41.2359 10.2032 0 41.2359 10.2032 0
206 2 43.1995 10.2032 1.73297 43.1995 10.2032 1.73297
207 2 43.1995 10.2032 -1.73297 43.1995 10.2032 -1.73297
208 1 44.1813 11.9038 0 44.1813 11.9038 0
209 2 46.145 11.9038 1.73297 46.145 11.9038 1.73297
210 2 46.145 11.9038 -1.73297 46.145 11.9038 -1.73297
211 1 47.1268 10.2032 0 47.1268 10.2032 0
212 2 49.0904 10.2032 1.73297 49.0904 10.2032 1.73297
213 2 49.0904 10.2032 -1.73297 49.0904 10.2032 -1.73297
214 1 50.0722 11.9038 0 50.0722 11.9038 0
215 2 52.0358 11.9038 1.73297 52.0358 11.9038 1.73297
216 2 52.0358 11.9038 -1.73297 52.0358 11.9038 -1.73297
217 1 0 13.6043 0 0 13.6043 0
218 2 1.96362 13.6043 1.73297 1.96362 13.6043 1.73297
219 2 1.96362 13.6043 -1.73297 1.96362 13.6043 -1.73297
220 1 2.94542 15.3049 0 2.94542 15.3049 0
221 2 4.90904 15.3049 1.73297 4.90904 15.3049 1.73297
222 2 4.90904 15.3049 -1.73297 4.90904 15.3049 -1.73297
223 1 5.89084 13.6043 0 5.89084 13.6043 0
224 2 7.85446 13.6043 1.73297 7.85446 13.6043 1.73297
225 2 7.85446 13.6043 -1.73297 7.85446 13.6043 -1.73297
226 1 8.83627 15.3049 0 8.83627 15.3049 0
227 2 10.7999 15.3049 1.73297 10.7999 15.3049 1.73297
228 2 10.7999 15.3049 -1.73297 10.7999 15.3049 -1.73297
229 1 11.7817 13.6043 0 11.7817 13.6043 0
230 2 13.7453 13.6043 1.73297 13.7453 13.6043 1.73297
231 2 13.7453 13.6043 -1.73297 13.7453 13.6043 -1.73297
232 1 14.7271 15.3049 0 14.7271 15.3049 0
233 2 16.6907 15.3049 1.73297 16.6907 15.3049 1.73297
234 2 16.6907 15.3049 -1.73297 16.6907 15.3049 -1.73297
235 1 17.6725 13.6043 0 17.6725 13.6043 0
236 2 19.6362 13.6043 1.73297 19.6362 13.6043 1.73297
237 2 19.6362 13.6043 -1.73297 19.6362 13.6043 -1.73297
238 1 20.618 15.3049 0 20.618 15.3049 0
239 2 22.5816 15.3049 1.73297 22.5816 15.3049 1.73297
240 2 22.5816 15.3049 -1.73297 22.5816 15.3049 -1.73297
241 1 23.5634 13.6043 0 23.5634 13.6043 0
242 2 25.527 13.6043 1.73297 25.527 13.6043 1.73297
243 2 25.527 13.6043 -1.73297 25.527 13.6043 -1.73297
244 1 26.5088 15.3049 0 26.5088 15.3049 0
245 2 28.4724 15.3049 1.73297 28.4724 15.3049 1.73297
246 2 28.4724 15.3049 -1.73297 28.4724 15.3049 -1.73297
247 1 29.4542 13.6043 0 29.4542 13.6043 0
248 2 31.4178 13.6043 1.73297 31.4178 13.6043 1.73297
249 2 31.4178 13.6043 -1.73297 31.4178 13.6043 -1.73297
250 1 32.3996 15.3049 0 32.3996 15.3049 0
251 2 34.3633 15.3049 1.73297 34.3633 15.3049 1.73297
252 2 34.3633 15.3049 -1.73297 34.3633 15.3049 -1.73297
253 1 35.3451 13.6043 0 35.3451 13.6043 0
254 2 37.3087 13.6043 1.73297 37.3087 13.6043 1.73297
255 2 37.3087 13.6043 -1.73297 37.3087 13.6043 -1.73297
256 1 38.2905 15.3049 0 38.2905 15.3049 0
257 2 40.2541 15.3049 1.73297 40.2541 15.3049 1.73297
258 2 40.2541 15.3049 -1.73297 40.2541 15.3049 -1.73297
259 1 41.2359 13.6043 0 41.2359 13.6043 0
260 2 43.1995 13.6043 1.73297 43.1995 13.6043 1.73297
261 2 43.1995 13.6043 -1.73297 43.1995 13.6043 -1.73297
262 1 44.1813 15.3049 0 44.1813 15.3049 0
263 2 46.145 15.3049 1.73297 46.145 15.3049 1.73297
264 2 46.145 15.3049 -1.73297 46.145 15.3049 -1.73297
265 1 47.1268 13.6043 0 47.1268 13.6043 0
266 2 49.0904 13.6043 1.73297 49.0904 13.6043 1.73297
267 2 49.0904 13.6043 -1.73297 49.0904 13.6043 -1.73297
268 1 50.0722 15.3049 0 50.0722 15.3049 0
269 2 52.0358 15.3049 1.73297 52.0358 15.3049 1.73297
270 2 52.0358 15.3049 -1.73297 52.0358 15.3049 -1.73297
271 1 0 17.0054 0 0 17.0054 0
272 2 1.96362 17.0054 1.73297 1.96362 17.0054 1.73297
273 2 1.96362 17.0054 -1.73297 1.96362 17.0054 -1.73297
274 1 2.94542 18.7059 0 2.94542 18.7059 0
275 2 4.90904 18.7059 1.73297 4.90904 18.7059 1.73297
276 2 4.90904 18.7059 -1.73297 4.90904 18.7059 -1.73297
277 1 5.89084 17.0054 0 5.89084 17.0054 0
278 2 7.85446 17.0054 1.73297 7.85446 17.0054 1.73297
279 2 7.85446 17.0054 -1.73297 7.85446 17.0054 -1.73297
280 1 8.83627 18.7059 0 8.83627 18.7059 0
281 2 10.7999 18.7059 1.73297 10.7999 18.7059 1.73297
282 2 10.7999 18.7059 -1.73297 10.7999 18.7059 -1.73297
283 1 11.7817 17.0054 0 11.7817 17.0054 0
284 2 13.7453 17.0054 1.73297 13.7453 17.0054 1.73297
285 2 13.7453 17.0054 -1.73297 13.7453 17.0054 -1.73297
286 1 14.7271 18.7059 0 14.7271 18.7059 0
287 2 16.6907 18.7059 1.73297 16.6907 18.7059 1.73297
288 2 16.6907 18.7059 -1.73297 16.6907 18.7059 -1.73297
289 1 17.6725 17.0054 0 17.6725 17.0054 0
290 2 19.6362 17.0054 1.73297 19.6362 17.0054 1.73297
291 2 19.6362 17.0054 -1.73297 19.6362 17.0054 -1.73297
292 1 20.618 18.7059 0 20.618 18.7059 0
293 2 22.5816 18.7059 1.73297 22.5816 18.7059 1.73297
294 2 22.5816 18.7059 -1.73297 22.5816 18.7059 -1.73297
295 1 23.5634 17.0054 0 23.5634 17.0054 0
296 2 25.527 17.0054 1.73297 25.527 17.0054 1.73297
297 2 25.527 17.0054 -1.73297 25.527 17.0054 -1.73297
298 1 26.5088 18.7059 0 26.5088 18.7059 0
299 2 28.4724 18.7059 1.73297 28.4724 18.7059 1.73297
300 2 28.4724 18.7059 -1.73297 28.4724 18.7059 -1.73297
301 1 29.4542 17.0054 0 29.4542 17.0054 0
302 2 31.4178 17.0054 1.73297 31.4178 17.0054 1.73297
303 2 31.4178 17.0054 -1.73297 31.4178 17.0054 -1.73297
304 1 32.3996 18.7059 0 32.3996 18.7059 0
305 2 34.3633 18.7059 1.73297 34.3633 18.7059 1.73297
306 2 34.3633 18.7059 -1.73297 34.3633 18.7059 -1.73297
307 1 35.3451 17.0054 0 35.3451 17.0054 0
308 2 37.3087 17.0054 1.73297 37.3087 17.0054 1.73297
309 2 37.3087 17.0054 -1.73297 37.3087 17.0054 -1.73297
310 1 38.2905 18.7059 0 38.2905 18.7059 0
311 2 40.2541 18.7059 1.73297 40.2541 18.7059 1.73297
312 2 40.2541 18.7059 -1.73297 40.2541 18.7059 -1.73297
313 1 41.2359 17.0054 0 41.2359 17.0054 0
314 2 43.1995 17.0054 1.73297 43.1995 17.0054 1.73297
315 2 43.1995 17.0054 -1.73297 43.1995 17.0054 -1.73297
316 1 44.1813 18.7059 0 44.1813 18.7059 0
317 2 46.145 18.7059 1.73297 46.145 18.7059 1.73297
318 2 46.145 18.7059 -1.73297 46.145 18.7059 -1.73297
319 1 47.1268 17.0054 0 47.1268 17.0054 0
320 2 49.0904 17.0054 1.73297 49.0904 17.0054 1.73297
321 2 49.0904 17.0054 -1.73297 49.0904 17.0054 -1.73297
322 1 50.0722 18.7059 0 50.0722 18.7059 0
323 2 52.0358 18.7059 1.73297 52.0358 18.7059 1.73297
324 2 52.0358 18.7059 -1.73297 52.0358 18.7059 -1.73297
325 1 0 20.4065 0 0 20.4065 0
326 2 1.96362 20.4065 1.73297 1.96362 20.4065 1.73297
327 2 1.96362 20.4065 -1.73297 1.96362 20.4065 -1.73297
328 1 2.94542 22.107 0 2.94542 22.107 0
329 2 4.90904 22.107 1.73297 4.90904 22.107 1.73297
330 2 4.90904 22.107 -1.73297 4.90904 22.107 -1.73297
331 1 5.89084 20.4065 0 5.89084 20.4065 0
332 2 7.85446 20.4065 1.73297 7.85446 20.4065 1.73297
333 2 7.85446 20.4065 -1.73297 7.85446 20.4065 -1.73297
334 1 8.83627 22.107 0 8.83627 22.107 0
335 2 10.7999 22.107 1.73297 10.7999 22.107 1.73297
336 2 10.7999 22.107 -1.73297 10.7999 22.107 -1.73297
337 1 11.7817 20.4065 0 11.7817 20.4065 0
338 2 13.7453 20.4065 1.73297 13.7453 20.4065 1.73297
339 2 13.7453 20.4065 -1.73297 13.7453 20.4065 -1.73297
340 1 14.7271 22.107 0 14.7271 22.107 0
341 2 16.6907 22.107 1.73297 16.6907 22.107 1.73297
342 2 16.6907 22.107 -1.73297 16.6907 22.107 -1.73297
343 1 17.6725 20.4065 0 17.6725 20.4065 0
344 2 19.6362 20.4065 1.73297 19.6362 20.4065 1.73297
345 2 19.6362 20.4065 -1.73297 19.6362 20.4065 -1.73297
346 1 20.618 22.107 0 20.618 22.107 0
347 2 22.5816 22.107 1.73297 22.5816 22.107 1.73297
348 2 22.5816 22.107 -1.73297 22.5816 22.107 -1.73297
349 1 23.5634 20.4065 0 23.5634 20.4065 0
350 2 25.527 20.4065 1.73297 25.527 20.4065 1.73297
351 2 25.527 20.4065 -1.73297 25.527 20.4065 -1.73297
352 1 26.5088 22.107 0 26.5088 22.107 0
353 2 28.4724 22.107 1.73297 28.4724 22.107 1.73297
354 2 28.4724 22.107 -1.73297 28.4724 22.107 -1.73297
355 1 29.4542 20.4065 0 29.4542 20.4065 0
356 2 31.4178 20.4065 1.73297 31.4178 20.4065 1.73297
357 2 31.4178 20.4065 -1.73297 31.4178 20.4065 -1.73297
358 1 32.3996 22.107 0 32.3996 22.107 0
359 2 34.3633 22.107 1.73297 34.3633 22.107 1.73297
360 2 34.3633 22.107 -1.73297 34.3633 22.107 -1.73297
361 1 35.3451 20.4065 0 35.3451 20.4065 0
362 2 37.3087 20.4065 1.73297 37.3087 20.4065 1.73297
363 2 37.3087 20.4065 -1.73297 37.3087 20.4065 -1.73297
364 1 38.2905 22.107 0 38.2905 22.107 0
365 2 40.2541 22.107 1.73297 40.2541 22.107 1.73297
366 2 40.2541 22.107 -1.73297 40.2541 22.107 -1.73297
367 1 41.2359 20.4065 0 41.2359 20.4065 0
368 2 43.1995 20.4065 1.73297 43.1995 20.4065 1.73297
369 2 43.1995 20.4065 -1.73297 43.1995 20.4065 -1.73297
370 1 44.1813 22.107 0 44.1813 22.107 0
371 2 46.145 22.107 1.73297 46.145 22.107 1.73297
372 2 46.145 22.107 -1.73297 46.145 22.107 -1.73297
373 1 47.1268 20.4065 0 47.1268 20.4065 0
374 2 49.0904 20.4065 1.73297 49.0904 20.4065 1.73297
375 2 49.0904 20.4065 -1.73297 49.0904 20.4065 -1.73297
376 1 50.0722 22.107 0 50.0722 22.107 0
377 2 52.0358 22.107 1.73297 52.0358 22.107 1.73297
378 2 52.0358 22.107 -1.73297 52.0358 22.107 -1.73297
379 1 0 23.8076 0 0 23.8076 0
380 2 1.96362 23.8076 1.73297 1.96362 23.8076 1.73297
381 2 1.96362 23.8076 -1.73297 1.96362 23.8076 -1.73297
382 1 2.94542 25.5081 0 2.94542 25.5081 0
383 2 4.90904 25.5081 1.73297 4.90904 25.5081 1.73297
384 2 4.90904 25.5081 -1.73297 4.90904 25.5081 -1.73297
385 1 5.89084 23.8076 0 5.89084 23.8076 0
386 2 7.85446 23.8076 1.73297 7.85446 23.8076 1.73297
387 2 7.85446 23.8076 -1.73297 7.85446 23.8076 -1.73297
388 1 8.83627 25.5081 0 8.83627 25.5081 0
389 2 10.7999 25.5081 1.73297 10.7999 25.5081 1.73297
390 2 10.7999 25.5081 -1.73297 10.7999 25.5081 -1.73297
391 1 11.7817 23.8076 0 11.7817 23.8076 0
392 2 13.7453 23.8076 1.73297 13.7453 23.8076 1.73297
393 2 13.7453 23.8076 -1.73297 13.7453 23.8076 -1.73297
394 1 14.7271 25.5081 0 14.7271 25.5081 0
395 2 16.6907 25.5081 1.73297 16.6907 25.5081 1.73297
396 2 16.6907 25.5081 -1.73297 16.6907 25.5081 -1.73297
397 1 17.6725 23.8076 0 17.6725 23.8076 0
398 2 19.6362 23.8076 1.73297 19.6362 23.8076 1.73297
399 2 19.6362 23.8076 -1.73297 19.6362 23.8076 -1.73297
400 1 20.618 25.5081 0 20.618 25.5081 0
401 2 22.5816 25.5081 1.73297 22.5816 25.5081 1.73297
402 2 22.5816 25.5081 -1.73297 22.5816 25.5081 -1.73297
403 1 23.5634 23.8076 0 23.5634 23.8076 0
404 2 25.527 23.8076 1.73297 25.527 23.8076 1.73297
405 2 25.527 23.8076 -1.73297 25.527 23.8076 -1.73297
406 1 26.5088 25.5081 0 26.5088 25.5081 0
407 2 28.4724 25.5081 1.73297 28.4724 25.5081 1.73297
408 2 28.4724 25.5081 -1.73297 28.4724 25.5081 -1.73297
409 1 29.4542 23.8076 0 29.4542 23.8076 0
410 2 31.4178 23.8076 1.73297 31.4178 23.8076 1.73297
411 2 31.4178 23.8076 -1.73297 31.4178 23.8076 -1.73297
412 1 32.3996 25.5081 0 32.3996 25.5081 0
413 2 34.3633 25.5081 1.73297 34.3633 25.5081 1.73297
414 2 34.3633 25.5081 -1.73297 34.3633 25.5081 -1.73297
415 1 35.3451 23.8076 0 35.3451 23.8076 0
416 2 37.3087 23.8076 1.73297 37.3087 23.8076 1.73297
417 2 37.3087 23.8076 -1.73297 37.3087 23.8076 -1.73297
418 1 38.2905 25.5081 0 38.2905 25.5081 0
419 2 40.2541 25.5081 1.73297 40.2541 25.5081 1.73297
420 2 40.2541 25.5081 -1.73297 40.2541 25.5081 -1.73297
421 1 41.2359 23.8076 0 41.2359 23.8076 0
422 2 43.1995 23.8076 1.73297 43.1995 23.8076 1.73297
423 2 43.1995 23.8076 -1.73297 43.1995 23.8076 -1.73297
424 1 44.1813 25.5081 0 44.1813 25.5081 0
425 2 46.145 25.5081 1.73297 46.145 25.5081 1.73297
426 2 46.145 25.5081 -1.73297 46.145 25.5081 -1.73297
427 1 47.1268 23.8076 0 47.1268 23.8076 0
428 2 49.0904 23.8076 1.73297 49.0904 23.8076 1.73297
429 2 49.0904 23.8076 -1.73297 49.0904 23.8076 -1.73297
430 1 50.0722 25.5081 0 50.0722 25.5081 0
431 2 52.0358 25.5081 1.73297 52.0358 25.5081 1.73297
432 2 52.0358 25.5081 -1.73297 52.0358 25.5081 -1.73297
433 1 0 27.2086 0 0 27.2086 0
434 2 1.96362 27.2086 1.73297 1.96362 27.2086 1.73297
435 2 1.96362 27.2086 -1.73297 1.96362 27.2086 -1.73297
436 1 2.94542 28.9092 0 2.94542 28.9092 0
437 2 4.90904 28.9092 1.73297 4.90904 28.9092 1.73297
438 2 4.90904 28.9092 -1.73297 4.90904 28.9092 -1.73297
439 1 5.89084 27.2086 0 5.89084 27.2086 0
440 2 7.85446 27.2086 1.73297 7.85446 27.2086 1.73297
441 2 7.85446 27.2086 -1.73297 7.85446 27.2086 -1.73297
442 1 8.83627 28.9092 0 8.83627 28.9092 0
443 2 10.7999 28.9092 1.73297 10.7999 28.9092 1.73297
444 2 10.7999 28.9092 -1.73297 10.7999 28.9092 -1.73297
445 1 11.7817 27.2086 0 11.7817 27.2086 0
446 2 13.7453 27.2086 1.73297 13.7453 27.2086 1.73297
447 2 13.7453 27.2086 -1.73297 13.7453 27.2086 -1.73297
448 1 14.7271 28.9092 0 14.7271 28.9092 0
449 2 16.6907 28.9092 1.73297 16.6907 28.9092 1.73297
450 2 16.6907 28.9092 -1.73297 16.6907 28.9092 -1.73297
451 1 17.6725 27.2086 0 17.6725 27.2086 0
452 2 19.6362 27.2086 1.73297 19.6362 27.2086 1.73297
453 2 19.6362 27.2086 -1.73297 19.6362 27.2086 -1.73297
454 1 20.618 28.9092 0 20.618 28.9092 0
455 2 22.5816 28.9092 1.73297 22.5816 28.9092 1.73297
456 2 22.5816 28.9092 -1.73297 22.5816 28.9092 -1.73297
457 1 23.5634 27.2086 0 23.5634 27.2086 0
458 2 25.527 27.2086 1.73297 25.527 27.2086 1.73297
459 2 25.527 27.2086 -1.73297 25.527 27.2086 -1.73297
460 1 26.5088 28.9092 0 26.5088 28.9092 0
461 2 28.4724 28.9092 1.73297 28.4724 28.9092 1.73297
462 2 28.4724 28.9092 -1.73297 28.4724 28.9092 -1.73297
463 1 29.4542 27.2086 0 29.4542 27.2086 0
464 2 31.4178 27.2086 1.73297 31.4178 27.2086 1.73297
465 2 31.4178 27.2086 -1.73297 31.4178 27.2086 -1.73297
466 1 32.3996 28.9092 0 32.3996 28.9092 0
467 2 34.3633 28.9092 1.73297 34.3633 28.9092 1.73297
468 2 34.3633 28.9092 -1.73297 34.3633 28.9092 -1.73297
469 1 35.3451 27.2086 0 35.3451 27.2086 0
470 2 37.3087 27.2086 1.73297 37.3087 27.2086 1.73297
471 2 37.3087 27.2086 -1.73297 37.3087 27.2086 -1.73297
472 1 38.2905 28.9092 0 38.2905 28.9092 0
473 2 40.2541 28.9092 1.73297 40.2541 28.9092 1.73297
474 2 40.2541 28.9092 -1.73297 40.2541 28.9092 -1.73297
475 1 41.2359 27.2086 0 41.2359 27.2086 0
476 2 43.1995 27.2086 1.73297 43.1995 27.2086 1.73297
477 2 43.1995 27.2086 -1.73297 43.1995 27.2086 -1.73297
478 1 44.1813 28.9092 0 44.1813 28.9092 0
479 2 46.145 28.9092 1.73297 46.145 28.9092 1.73297
480 2 46.145 28.9092 -1.73297 46.145 28.9092 -1.73297
481 1 47.1268 27.2086 0 47.1268 27.2086 0
482 2 49.0904 27.2086 1.73297 49.0904 27.2086 1.73297
483 2 49.0904 27.2086 -1.73297 49.0904 27.2086 -1.73297
484 1 50.0722 28.9092 0 50.0722 28.9092 0
485 2 52.0358 28.9092 1.73297 52.0358 28.9092 1.73297
486 2 52.0358 28.9092 -1.73297 52.0358 28.9092 -1.73297
487 1 0 30.6097 0 0 30.6097 0
488 2 1.96362 30.6097 1.73297 1.96362 30.6097 1.73297
489 2 1.96362 30.6097 -1.73297 1.96362 30.6097 -1.73297
490 1 2.94542 32.3103 0 2.94542 32.3103 0
491 2 4.90904 32.3103 1.73297 4.90904 32.3103 1.73297
492 2 4.90904 32.3103 -1.73297 4.90904 32.3103 -1.73297
493 1 5.89084 30.6097 0 5.89084 30.6097 0
494 2 7.85446 30.6097 1.73297 7.85446 30.6097 1.73297
495 2 7.85446 30.6097 -1.73297 7.85446 30.6097 -1.73297
496 1 8.83627 32.3103 0 8.83627 32.3103 0
497 2 10.7999 32.3103 1.73297 10.7999 32.3103 1.73297
498 2 10.7999 32.3103 -1.73297 10.7999 32.3103 -1.73297
499 1 11.7817 30.6097 0 11.7817 30.6097 0
500 2 13.7453 30.6097 1.73297 13.7453 30.6097 1.73297
501 2 13.7453 30.6097 -1.73297 13.7453 30.6097 -1.73297
502 1 14.7271 32.3103 0 14.7271 32.3103 0
503 2 16.6907 32.3103 1.73297 16.6907 32.3103 1.73297
504 2 16.6907 32.3103 -1.73297 16.6907 32.3103 -1.73297
505 1 17.6725 30.6097 0 17.6725 30.6097 0
506 2 19.6362 30.6097 1.73297 19.6362 30.6097 1.73297
507 2 19.6362 30.6097 -1.73297 19.6362 30.6097 -1.73297
508 1 20.618 32.3103 0 20.618 32.3103 0
509 2 22.5816 32.3103 1.73297 22.5816 32.3103 1.73297
510 2 22.5816 32.3103 -1.73297 22.5816 32.3103 -1.73297
511 1 23.5634 30.6097 0 23.5634 30.6097 0
512 2 25.527 30.6097 1.73297 25.527 30.6097 1.73297
513 2 25.527 30.6097 -1.73297 25.527 30.6097 -1.73297
514 1 26.5088 32.3103 0 26.5088 32.3103 0
515 2 28.4724 32.3103 1.73297 28.4724 32.3103 1.73297
516 2 28.4724 32.3103 -1.73297 28.4724 32.3103 -1.73297
517 1 29.4542 30.6097 0 29.4542 30.6097 0
518 2 31.4178 30.6097 1.73297 31.4178 30.6097 1.73297
519 2 31.4178 30.6097 -1.73297 31.4178 30.6097 -1.73297
520 1 32.3996 32.3103 0 32.3996 32.3103 0
521 2 34.3633 32.3103 1.73297 34.3633 32.3103 1.73297
522 2 34.3633 32.3103 -1.73297 34.3633 32.3103 -1.73297
523 1 35.3451 30.6097 0 35.3451 30.6097 0
524 2 37.3087 30.6097 1.73297 37.3087 30.6097 1.73297
525 2 37.3087 30.6097 -1.73297 37.3087 30.6097 -1.73297
526 1 38.2905 32.3103 0 38.2905 32.3103 0
527 2 40.2541 32.3103 1.73297 40.2541 32.3103 1.73297
528 2 40.2541 32.3103 -1.73297 40.2541 32.3103 -1.73297
529 1 41.2359 30.6097 0 41.2359 30.6097 0
530 2 43.1995 30.6097 1.73297 43.1995 30.6097 1.73297
531 2 43.1995 30.6097 -1.73297 43.1995 30.6097 -1.73297
532 1 44.1813 32.3103 0 44.1813 32.3103 0
533 2 46.145 32.3103 1.73297 46.145 32.3103 1.73297
534 2 46.145 32.3103 -1.73297 46.145 32.3103 -1.73297
535 1 47.1268 30.6097 0 47.1268 30.6097 0
536 2 49.0904 30.6097 1.73297 49.0904 30.6097 1.73297
537 2 49.0904 30.6097 -1.73297 49.0904 30.6097 -1.73297
538 1 50.0722 32.3103 0 50.0722 32.3103 0
539 2 52.0358 32.3103 1.73297 52.0358 32.3103 1.73297
540 2 52.0358 32.3103 -1.73297 52.0358 32.3103 -1.73297
541 1 0 34.0108 0 0 34.0108 0
542 2 1.96362 34.0108 1.73297 1.96362 34.0108 1.73297
543 2 1.96362 34.0108 -1.73297 1.96362 34.0108 -1.73297
544 1 2.94542 35.7114 0 2.94542 35.7114 0
545 2 4.90904 35.7114 1.73297 4.90904 35.7114 1.73297
546 2 4.90904 35.7114 -1.73297 4.90904 35.7114 -1.73297
547 1 5.89084 34.0108 0 5.89084 34.0108 0
548 2 7.85446 34.0108 1.73297 7.85446 34.0108 1.73297
549 2 7.85446 34.0108 -1.73297 7.85446 34.0108 -1.73297
550 1 8.83627 35.7114 0 8.83627 35.7114 0
551 2 10.7999 35.7114 1.73297 10.7999 35.7114 1.73297
552 2 10.7999 35.7114 -1.73297 10.7999 35.7114 -1.73297
553 1 11.7817 34.0108 0 11.7817 34.0108 0
554 2 13.7453 34.0108 1.73297 13.7453 34.0108 1.73297
555 2 13.7453 34.0108 -1.73297 13.7453 34.0108 -1.73297
556 1 14.7271 35.7114 0 14.7271 35.7114 0
557 2 16.6907 35.7114 1.73297 16.6907 35.7114 1.73297
558 2 16.6907 35.7114 -1.73297 16.6907 35.7114 -1.73297
559 1 17.6725 34.0108 0 17.6725 34.0108 0
560 2 19.6362 34.0108 1.73297 19.6362 34.0108 1.73297
561 2 19.6362 34.0108 -1.73297 19.6362 34.0108 -1.73297
562 1 20.618 35.7114 0 20.618 35.7114 0
563 2 22.5816 35.7114 1.73297 22.5816 35.7114 1.73297
564 2 22.5816 35.7114 -1.73297 22.5816 35.7114 -1.73297
565 1 23.5634 34.0108 0 23.5634 34.0108 0
566 2 25.527 34.0108 1.73297 25.527 34.0108 1.73297
567 2 25.527 34.0108 -1.73297 25.527 34.0108 -1.73297
568 1 26.5088 35.7114 0 26.5088 35.7114 0
569 2 28.4724 35.7114 1.73297 28.4724 35.7114 1.73297
570 2 28.4724 35.7114 -1.73297 28.4724 35.7114 -1.73297
571 1 29.4542 34.0108 0 29.4542 34.0108 0
572 2 31.4178 34.0108 1.73297 31.4178 34.0108 1.73297
573 2 31.4178 34.0108 -1.73297 31.4178 34.0108 -1.73297
574 1 32.3996 35.7114 0 32.3996 35.7114 0
575 2 34.3633 35.7114 1.73297 34.3633 35.7114 1.73297
576 2 34.3633 35.7114 -1.73297 34.3633 35.7114 -1.73297
577 1 35.3451 34.0108 0 35.3451 34.0108 0
578 2 37.3087 34.0108 1.73297 37.3087 34.0108 1.73297
579 2 37.3087 34.0108 -1.73297 37.3087 34.0108 -1.73297
580 1 38.2905 35.7114 0 38.2905 35.7114 0
581 2 40.2541 35.7114 1.73297 40.2541 35.7114 1.73297
582 2 40.2541 35.7114 -1.73297 40.2541 35.7114 -1.73297
583 1 41.2359 34.0108 0 41.2359 34.0108 0
584 2 43.1995 34.0108 1.73297 43.1995 34.0108 1.73297
585 2 43.1995 34.0108 -1.73297 43.1995 34.0108 -1.73297
586 1 44.1813 35.7114 0 44.1813 35.7114 0
587 2 46.145 35.7114 1.73297 46.145 35.7114 1.73297
588 2 46.145 35.7114 -1.73297 46.145 35.7114 -1.73297
589 1 47.1268 34.0108 0 47.1268 34.0108 0
590 2 49.0904 34.0108 1.73297 49.0904 34.0108 1.73297
591 2 49.0904 34.0108 -1.73297 49.0904 34.0108 -1.73297
592 1 50.0722 35.7114 0 50.0722 35.7114 0
593 2 52.0358 35.7114 1.73297 52.0358 35.7114 1.73297
594 2 52.0358 35.7114 -1.73297 52.0358 35.7114 -1.73297
595 1 0 37.4119 0 0 37.4119 0
596 2 1.96362 37.4119 1.73297 1.96362 37.4119 1.73297
597 2 1.96362 37.4119 -1.73297 1.96362 37.4119 -1.73297
598 1 2.94542 39.1124 0 2.94542 39.1124 0
599 2 4.90904 39.1124 1.73297 4.90904 39.1124 1.73297
600 2 4.90904 39.1124 -1.73297 4.90904 39.1124 -1.73297
601 1 5.89084 37.4119 0 5.89084 37.4119 0
602 2 7.85446 37.4119 1.73297 7.85446 37.4119 1.73297