LAMMPS (29 Aug 2024 - Update 2)
# Tersoff potential example: crystalline silicon

units           metal
atom_style      atomic
boundary        p p p

# ---- System setup ----
read_data	MoSe2.data
Reading data file ...
  orthogonal box = (0 0 -3.8) to (5.890845 3.401081 3.8)
  1 by 1 by 1 MPI processor grid
  reading atoms ...
  6 atoms
  read_data CPU = 0.000 seconds
replicate	9 15 1
Replication is creating a 9x15x1 = 135 times larger system...
  orthogonal box = (0 0 -3.8) to (53.017605 51.016215 3.8)
  1 by 1 by 1 MPI processor grid
  810 atoms
  replicate CPU = 0.000 seconds
# ---- Potential ----
pair_style      tersoff
pair_coeff      * * Potential.tersoff Mo Se

# ---- Settings ----
neighbor        2 bin
neigh_modify    every 10 delay 0 check yes

# ---- Minimization ----
reset_timestep  0

fix		3 all box/relax x 0.0 y 0.0
thermo          10
thermo_style    custom step pe lx ly lz press

# ---- Dynamics ----
#timestep        0.001
#fix             1 all nvt temp 1.0 1.0 0.1
#run             1000

dump            DYN all custom 1000 dump.emin.lammpstrj id type x y z xu yu zu
dump_modify     DYN sort id flush yes

min_style       cg
minimize        0 0 10000 100000
Switching to 'neigh_modify every 1 delay 0 check yes' setting during minimization
Neighbor list info ...
  update: every = 1 steps, delay = 0 steps, check = yes
  max neighbors/atom: 2000, page size: 100000
  master list distance cutoff = 6.68
  ghost atom cutoff = 6.68
  binsize = 3.34, bins = 16 16 3
  1 neighbor lists, perpetual/occasional/extra = 1 0 0
  (1) pair tersoff, perpetual
      attributes: full, newton on
      pair build: full/bin/atomonly
      stencil: full/bin/3d
      bin: standard
WARNING: Energy due to 3 extra global DOFs will be included in minimizer energies
 (src/min.cpp:219)
Per MPI rank memory allocation (min/avg/max) = 4.381 | 4.381 | 4.381 Mbytes
   Step         PotEng           Lx             Ly             Lz           Press     
         0  -4057.2832      53.017605      51.016215      7.6           -78331.272    
        10  -4058.7098      52.964587      50.965199      7.6           -77621.073    
        20  -4060.106       52.91157       50.914183      7.6           -76901.445    
        30  -4061.4714      52.858552      50.863166      7.6           -76172.281    
        40  -4062.806       52.805535      50.81215       7.6           -75433.474    
        50  -4064.1093      52.752517      50.761134      7.6           -74684.916    
        60  -4065.3813      52.699499      50.710118      7.6           -73926.496    
        70  -4066.6217      52.646482      50.659101      7.6           -73158.103    
        80  -4067.8302      52.593464      50.608085      7.6           -72379.623    
        90  -4069.0066      52.540447      50.557069      7.6           -71590.942    
       100  -4070.1507      52.487429      50.506053      7.6           -70791.944    
       110  -4071.2623      52.434412      50.455037      7.6           -69982.511    
       120  -4072.341       52.381394      50.40402       7.6           -69162.523    
       130  -4073.3867      52.328376      50.353004      7.6           -68331.86     
       140  -4074.3991      52.275359      50.301988      7.6           -67490.397    
       150  -4075.378       52.222341      50.250972      7.6           -66638.012    
       160  -4076.3232      52.169324      50.199956      7.6           -65774.576    
       170  -4077.2343      52.116306      50.148939      7.6           -64899.961    
       180  -4078.1111      52.063288      50.097923      7.6           -64014.036    
       190  -4078.9534      52.010271      50.046907      7.6           -63116.669    
       200  -4079.7609      51.957253      49.995891      7.6           -62207.723    
       210  -4080.5335      51.904236      49.944874      7.6           -61287.061    
       220  -4081.2707      51.851218      49.893858      7.6           -60354.542    
       230  -4081.9725      51.7982        49.842842      7.6           -59410.022    
       240  -4082.6384      51.745183      49.791826      7.6           -58453.354    
       250  -4083.2684      51.692165      49.74081       7.6           -57484.386    
       260  -4083.8621      51.639148      49.689793      7.6           -56502.963    
       270  -4084.4193      51.58613       49.638777      7.6           -55508.923    
       280  -4084.9397      51.533113      49.587761      7.6           -54502.099    
       290  -4085.4231      51.480095      49.536745      7.6           -53482.316    
       300  -4085.8694      51.427077      49.485729      7.6           -52449.388    
       310  -4086.2783      51.37406       49.434712      7.6           -51403.116    
       320  -4086.6496      51.321042      49.383696      7.6           -50343.281    
       330  -4086.9832      51.268025      49.33268       7.6           -49269.638    
       340  -4087.279       51.215007      49.281664      7.6           -48181.903    
       350  -4087.5371      51.161989      49.230647      7.6           -47079.722    
       360  -4087.7577      51.108972      49.179631      7.6           -45962.627    
       370  -4087.9414      51.055954      49.128615      7.6           -44829.924    
       380  -4088.0898      51.002937      49.077599      7.6           -43680.403    
       390  -4088.2069      50.949919      49.026583      7.6           -42511.36     
       400  -4088.3096      50.896902      48.975566      7.6           -41312.778    
       410  -4089.672       50.865091      48.944957      7.6           -39833.312    
       420  -4091.5106      50.875695      48.95516       7.6           -39001.035    
       430  -4093.517       50.886298      48.965363      7.6           -38041.275    
       440  -4094.8758      50.896902      48.975566      7.6           -37450.128    
       450  -4097.4947      50.907505      48.98577       7.6           -36040.953    
       460  -4098.8824      50.918109      48.995973      7.6           -35381.257    
       470  -4100.8262      50.928712      49.006176      7.6           -34325.876    
       480  -4102.1107      50.939316      49.016379      7.6           -33687.909    
       490  -4103.3968      50.939316      49.016379      7.6           -32783.195    
       500  -4104.6085      50.949919      49.026583      7.6           -32156.972    
       510  -4105.6862      50.960523      49.036786      7.6           -31610.561    
       520  -4107.4523      50.971126      49.046989      7.6           -30519.665    
       530  -4115.6729      51.002937      49.077599      7.6           -24217.496    
       540  -4116.8591      51.045351      49.118412      7.6           -24087.347    
       550  -4117.9056      51.055954      49.128615      7.6           -23280.413    
       560  -4118.695       51.055954      49.128615      7.6           -22450.382    
       570  -4119.6718      51.066558      49.138818      7.6           -21645.021    
       580  -4120.2979      51.077161      49.149022      7.6           -21199.26     
       590  -4120.8327      51.077161      49.149022      7.6           -20581.325    
       600  -4121.7492      51.087765      49.159225      7.6           -19746.139    
       610  -4123.0777      51.108972      49.179631      7.6           -18587.669    
       620  -4123.5293      51.108972      49.179631      7.6           -17987.073    
       630  -4124.2955      51.119576      49.189835      7.6           -17192.338    
       640  -4124.6147      51.119576      49.189835      7.6           -16735.167    
       650  -4124.92        51.130179      49.200038      7.6           -16553.845    
       660  -4125.6331      51.140783      49.210241      7.6           -15737.069    
       670  -4126.2836      51.151386      49.220444      7.6           -14961.485    
       680  -4126.5803      51.151386      49.220444      7.6           -14466.539    
       690  -4126.7877      51.151386      49.220444      7.6           -14111.969    
       700  -4127.4466      51.16199       49.230647      7.6           -13204.487    
       710  -4128.2314      51.183197      49.251054      7.6           -12226.562    
       720  -4128.4336      51.183197      49.251054      7.6           -11811.347    
       730  -4128.5668      51.183197      49.251054      7.6           -11530.886    
       740  -4129.0628      51.1938        49.261257      7.6           -10708.854    
       750  -4131.0225      51.225611      49.291867      7.6           -5889.6799    
       760  -4131.0697      51.246818      49.312273      7.6           -6278.6715    
       770  -4131.2689      51.257421      49.322477      7.6           -5740.2815    
       780  -4131.3072      51.257421      49.322477      7.6           -5572.9516    
       790  -4131.3762      51.268025      49.33268       7.6           -5539.0512    
       800  -4131.4102      51.268025      49.33268       7.6           -5381.6651    
       810  -4131.4484      51.268025      49.33268       7.6           -5199.7586    
       820  -4131.5153      51.268025      49.33268       7.6           -4868.2592    
       830  -4131.5477      51.268025      49.33268       7.6           -4701.5723    
       840  -4131.6146      51.278628      49.342883      7.6           -4621.2099    
       850  -4131.641       51.278628      49.342883      7.6           -4473.7925    
       860  -4131.6889      51.278628      49.342883      7.6           -4196.2859    
       870  -4131.7175      51.278628      49.342883      7.6           -4023.3902    
       880  -4131.7447      51.278628      49.342883      7.6           -3853.6383    
       890  -4131.788       51.289232      49.353086      7.6           -3851.2735    
       900  -4131.8101      51.289232      49.353086      7.6           -3702.1911    
       910  -4131.8383      51.289232      49.353086      7.6           -3504.134     
       920  -4131.882       51.289232      49.353086      7.6           -3178.7692    
       930  -4131.9071      51.289232      49.353086      7.6           -2978.938     
       940  -4131.9386      51.299835      49.36329       7.6           -2996.978     
       950  -4131.958       51.299835      49.36329       7.6           -2825.7369    
       960  -4132.0041      51.299835      49.36329       7.6           -2382.7704    
       970  -4132.027       51.299835      49.36329       7.6           -2137.0628    
       980  -4132.0835      51.310439      49.373493      7.6           -1711.6076    
       990  -4132.1164      51.319715      49.383718      7.6           -1438.58      
      1000  -4132.13        51.320962      49.382717      7.6           -1167.3643    
      1010  -4132.1555      51.332732      49.387055      7.6           -642.29334    
      1020  -4132.1604      51.329563      49.390499      7.6           -411.03005    
      1030  -4132.1652      51.334849      49.396981      7.6            0.042913096  
      1040  -4132.1652      51.334851      49.396983      7.6            0.00010540284
      1050  -4132.1652      51.334851      49.396983      7.6            3.4380489e-08
      1060  -4132.1652      51.334851      49.396983      7.6            1.0992743e-07
      1070  -4132.1652      51.334851      49.396983      7.6           -2.9836858e-08
      1080  -4132.1652      51.334851      49.396983      7.6           -1.3726782e-09
      1090  -4132.1652      51.334851      49.396983      7.6            1.4704986e-09
      1100  -4132.1652      51.334851      49.396983      7.6            2.7003251e-09
      1110  -4132.1652      51.334851      49.396983      7.6            2.2426355e-09
      1120  -4132.1652      51.334851      49.396983      7.6            5.4316089e-09
      1130  -4132.1652      51.334851      49.396983      7.6            3.5286127e-10
      1140  -4132.1652      51.334851      49.396983      7.6            2.8313879e-10
      1150  -4132.1652      51.334851      49.396983      7.6            1.4481326e-09
      1160  -4132.1652      51.334851      49.396983      7.6           -9.5546715e-10
      1170  -4132.1652      51.334851      49.396983      7.6            7.8376569e-10
      1180  -4132.1652      51.334851      49.396983      7.6            1.8194075e-10
      1190  -4132.1652      51.334851      49.396983      7.6            4.5606145e-10
      1200  -4132.1652      51.334851      49.396983      7.6            1.0233097e-09
      1210  -4132.1652      51.334851      49.396983      7.6            5.3337878e-10
      1220  -4132.1652      51.334851      49.396983      7.6            8.143564e-11 
      1230  -4132.1652      51.334851      49.396983      7.6           -1.6763483e-10
      1240  -4132.1652      51.334851      49.396983      7.6           -9.7712872e-10
      1250  -4132.1652      51.334851      49.396983      7.6            7.7843441e-10
      1260  -4132.1652      51.334851      49.396983      7.6           -1.8937171e-09
      1270  -4132.1652      51.334851      49.396983      7.6            1.0069843e-09
      1280  -4132.1652      51.334851      49.396983      7.6           -9.2639261e-10
      1290  -4132.1652      51.334851      49.396983      7.6            1.9783357e-09
      1300  -4132.1652      51.334851      49.396983      7.6           -1.8724459e-09
      1310  -4132.1652      51.334851      49.396983      7.6            1.4220743e-09
      1320  -4132.1652      51.334851      49.396983      7.6           -1.3374675e-09
      1330  -4132.1652      51.334851      49.396983      7.6            9.0186469e-10
      1340  -4132.1652      51.334851      49.396983      7.6           -1.987754e-09 
      1350  -4132.1652      51.334851      49.396983      7.6            1.8265566e-09
      1360  -4132.1652      51.334851      49.396983      7.6           -1.0614947e-09
      1370  -4132.1652      51.334851      49.396983      7.6            1.0972735e-11
      1380  -4132.1652      51.334851      49.396983      7.6            1.6462343e-09
      1390  -4132.1652      51.334851      49.396983      7.6           -1.0852621e-09
      1400  -4132.1652      51.334851      49.396983      7.6            9.3038839e-10
      1410  -4132.1652      51.334851      49.396983      7.6            4.0156408e-10
      1420  -4132.1652      51.334851      49.396983      7.6            1.0179792e-11
      1430  -4132.1652      51.334851      49.396983      7.6           -6.3071463e-10
      1440  -4132.1652      51.334851      49.396983      7.6           -4.5095126e-10
      1450  -4132.1652      51.334851      49.396983      7.6           -1.9817599e-10
      1460  -4132.1652      51.334851      49.396983      7.6           -3.9589696e-10
      1470  -4132.1652      51.334851      49.396983      7.6            9.8225294e-10
      1480  -4132.1652      51.334851      49.396983      7.6           -1.8376401e-10
      1490  -4132.1652      51.334851      49.396983      7.6            1.5401431e-10
      1500  -4132.1652      51.334851      49.396983      7.6            5.6027707e-10
      1510  -4132.1652      51.334851      49.396983      7.6            4.1249117e-11
      1520  -4132.1652      51.334851      49.396983      7.6            2.6457883e-10
      1530  -4132.1652      51.334851      49.396983      7.6            1.539076e-09 
      1540  -4132.1652      51.334851      49.396983      7.6           -3.3358294e-10
      1550  -4132.1652      51.334851      49.396983      7.6            2.018563e-10 
      1560  -4132.1652      51.334851      49.396983      7.6           -4.7709579e-10
      1570  -4132.1652      51.334851      49.396983      7.6            1.3222027e-09
      1580  -4132.1652      51.334851      49.396983      7.6            4.6353193e-10
      1590  -4132.1652      51.334851      49.396983      7.6           -9.3653366e-11
      1600  -4132.1652      51.334851      49.396983      7.6            3.3407023e-10
      1610  -4132.1652      51.334851      49.396983      7.6            7.1395056e-10
      1620  -4132.1652      51.334851      49.396983      7.6           -1.905435e-09 
      1630  -4132.1652      51.334851      49.396983      7.6            2.2371918e-09
      1640  -4132.1652      51.334851      49.396983      7.6           -1.6894091e-09
      1650  -4132.1652      51.334851      49.396983      7.6           -1.3846455e-10
      1660  -4132.1652      51.334851      49.396983      7.6            5.8701967e-10
      1670  -4132.1652      51.334851      49.396983      7.6           -2.8029075e-09
      1680  -4132.1652      51.334851      49.396983      7.6            8.2673178e-10
      1690  -4132.1652      51.334851      49.396983      7.6            6.5064777e-10
      1700  -4132.1652      51.334851      49.396983      7.6            5.3078771e-10
      1710  -4132.1652      51.334851      49.396983      7.6            5.6669202e-10
      1720  -4132.1652      51.334851      49.396983      7.6           -6.7734409e-11
      1730  -4132.1652      51.334851      49.396983      7.6           -9.0999316e-10
      1740  -4132.1652      51.334851      49.396983      7.6           -1.7702155e-10
      1750  -4132.1652      51.334851      49.396983      7.6            1.552743e-09 
      1760  -4132.1652      51.334851      49.396983      7.6            5.6877922e-10
      1770  -4132.1652      51.334851      49.396983      7.6            2.9126125e-09
      1780  -4132.1652      51.334851      49.396983      7.6            4.5433624e-10
      1790  -4132.1652      51.334851      49.396983      7.6            2.3239048e-09
      1800  -4132.1652      51.334851      49.396983      7.6           -2.6310169e-10
      1810  -4132.1652      51.334851      49.396983      7.6            2.1006893e-09
      1820  -4132.1652      51.334851      49.396983      7.6           -1.906824e-09 
      1830  -4132.1652      51.334851      49.396983      7.6            1.6392501e-09
      1840  -4132.1652      51.334851      49.396983      7.6           -2.7532193e-09
      1850  -4132.1652      51.334851      49.396983      7.6            1.3669726e-09
      1860  -4132.1652      51.334851      49.396983      7.6           -3.3454605e-09
      1870  -4132.1652      51.334851      49.396983      7.6            4.4065214e-10
      1880  -4132.1652      51.334851      49.396983      7.6            5.2466185e-10
      1890  -4132.1652      51.334851      49.396983      7.6           -2.0005247e-10
      1900  -4132.1652      51.334851      49.396983      7.6            7.6996897e-10
      1910  -4132.1652      51.334851      49.396983      7.6            4.07768e-10  
      1920  -4132.1652      51.334851      49.396983      7.6            1.9319614e-10
      1930  -4132.1652      51.334851      49.396983      7.6           -9.9543607e-10
      1940  -4132.1652      51.334851      49.396983      7.6            6.9469855e-10
      1950  -4132.1652      51.334851      49.396983      7.6            9.3787265e-10
      1960  -4132.1652      51.334851      49.396983      7.6           -1.3408177e-09
      1970  -4132.1652      51.334851      49.396983      7.6            1.0607516e-09
      1980  -4132.1652      51.334851      49.396983      7.6           -1.0148195e-09
      1990  -4132.1652      51.334851      49.396983      7.6            6.3293501e-10
      2000  -4132.1652      51.334851      49.396983      7.6            5.2491119e-10
      2010  -4132.1652      51.334851      49.396983      7.6           -1.2237701e-09
      2020  -4132.1652      51.334851      49.396983      7.6           -1.0271034e-10
      2030  -4132.1652      51.334851      49.396983      7.6            1.6728626e-09
      2040  -4132.1652      51.334851      49.396983      7.6            1.768673e-11 
      2050  -4132.1652      51.334851      49.396983      7.6            3.9212056e-10
      2060  -4132.1652      51.334851      49.396983      7.6            8.4970245e-10
      2070  -4132.1652      51.334851      49.396983      7.6            1.3773312e-10
      2080  -4132.1652      51.334851      49.396983      7.6            6.5963651e-10
      2090  -4132.1652      51.334851      49.396983      7.6           -2.3449334e-10
      2100  -4132.1652      51.334851      49.396983      7.6            8.5047898e-10
      2110  -4132.1652      51.334851      49.396983      7.6            2.3219181e-09
      2120  -4132.1652      51.334851      49.396983      7.6            5.9213827e-10
      2130  -4132.1652      51.334851      49.396983      7.6            7.2799274e-11
      2140  -4132.1652      51.334851      49.396983      7.6            1.8763689e-10
      2150  -4132.1652      51.334851      49.396983      7.6           -2.6191327e-11
      2160  -4132.1652      51.334851      49.396983      7.6           -1.7034695e-10
      2170  -4132.1652      51.334851      49.396983      7.6           -1.306375e-10 
      2180  -4132.1652      51.334851      49.396983      7.6            4.6253804e-10
      2190  -4132.1652      51.334851      49.396983      7.6           -3.5031229e-10
      2200  -4132.1652      51.334851      49.396983      7.6            5.9996196e-10
      2210  -4132.1652      51.334851      49.396983      7.6           -1.8001191e-10
      2220  -4132.1652      51.334851      49.396983      7.6            4.1725312e-10
      2230  -4132.1652      51.334851      49.396983      7.6            9.4180959e-10
      2240  -4132.1652      51.334851      49.396983      7.6            2.9561956e-10
      2250  -4132.1652      51.334851      49.396983      7.6            1.4046712e-09
      2260  -4132.1652      51.334851      49.396983      7.6           -1.0344959e-09
      2270  -4132.1652      51.334851      49.396983      7.6            1.2398884e-09
      2280  -4132.1652      51.334851      49.396983      7.6           -1.9235738e-09
      2290  -4132.1652      51.334851      49.396983      7.6            1.2413461e-09
      2300  -4132.1652      51.334851      49.396983      7.6           -1.7205373e-09
      2310  -4132.1652      51.334851      49.396983      7.6            2.0917415e-09
      2320  -4132.1652      51.334851      49.396983      7.6           -4.8145991e-12
      2330  -4132.1652      51.334851      49.396983      7.6            1.272709e-10 
      2340  -4132.1652      51.334851      49.396983      7.6            6.4042153e-10
      2350  -4132.1652      51.334851      49.396983      7.6           -5.9089901e-10
      2360  -4132.1652      51.334851      49.396983      7.6            1.4286796e-09
      2370  -4132.1652      51.334851      49.396983      7.6           -2.7429452e-09
      2380  -4132.1652      51.334851      49.396983      7.6            6.7250398e-10
      2390  -4132.1652      51.334851      49.396983      7.6           -8.247467e-10 
      2400  -4132.1652      51.334851      49.396983      7.6            3.8543075e-10
      2410  -4132.1652      51.334851      49.396983      7.6            2.0698091e-09
      2420  -4132.1652      51.334851      49.396983      7.6            3.6147091e-10
      2430  -4132.1652      51.334851      49.396983      7.6            7.142809e-10 
      2440  -4132.1652      51.334851      49.396983      7.6            1.2468005e-09
      2450  -4132.1652      51.334851      49.396983      7.6            1.2970005e-09
      2460  -4132.1652      51.334851      49.396983      7.6            4.290233e-10 
      2470  -4132.1652      51.334851      49.396983      7.6           -1.4889558e-10
      2480  -4132.1652      51.334851      49.396983      7.6            9.6535662e-11
      2490  -4132.1652      51.334851      49.396983      7.6            8.4630699e-10
      2500  -4132.1652      51.334851      49.396983      7.6            9.7601047e-10
      2510  -4132.1652      51.334851      49.396983      7.6            5.4211556e-10
      2520  -4132.1652      51.334851      49.396983      7.6            7.1637786e-11
      2530  -4132.1652      51.334851      49.396983      7.6           -4.0681619e-10
      2540  -4132.1652      51.334851      49.396983      7.6            1.0245507e-09
      2550  -4132.1652      51.334851      49.396983      7.6           -1.3769419e-09
      2560  -4132.1652      51.334851      49.396983      7.6            9.2197718e-10
      2570  -4132.1652      51.334851      49.396983      7.6           -1.4318865e-09
      2580  -4132.1652      51.334851      49.396983      7.6            9.1575431e-10
      2590  -4132.1652      51.334851      49.396983      7.6           -2.2717403e-09
      2600  -4132.1652      51.334851      49.396983      7.6            4.1994465e-10
      2610  -4132.1652      51.334851      49.396983      7.6            4.8014753e-10
      2620  -4132.1652      51.334851      49.396983      7.6            2.7484948e-09
      2630  -4132.1652      51.334851      49.396983      7.6            3.5367518e-10
      2640  -4132.1652      51.334851      49.396983      7.6           -6.6183104e-10
      2650  -4132.1652      51.334851      49.396983      7.6           -1.5096272e-11
      2660  -4132.1652      51.334851      49.396983      7.6            4.7912355e-10
      2670  -4132.1652      51.334851      49.396983      7.6            1.3197021e-09
      2680  -4132.1652      51.334851      49.396983      7.6            6.5371905e-10
      2690  -4132.1652      51.334851      49.396983      7.6           -1.1581697e-09
      2700  -4132.1652      51.334851      49.396983      7.6            2.6833609e-10
      2710  -4132.1652      51.334851      49.396983      7.6            4.3994033e-11
      2720  -4132.1652      51.334851      49.396983      7.6            8.9604437e-10
      2730  -4132.1652      51.334851      49.396983      7.6           -1.7494115e-09
      2740  -4132.1652      51.334851      49.396983      7.6            5.4569201e-10
      2750  -4132.1652      51.334851      49.396983      7.6            2.2504094e-10
      2760  -4132.1652      51.334851      49.396983      7.6           -8.907368e-10 
      2770  -4132.1652      51.334851      49.396983      7.6            1.1073064e-10
      2780  -4132.1652      51.334851      49.396983      7.6           -6.5409583e-11
      2790  -4132.1652      51.334851      49.396983      7.6            4.9981494e-10
      2800  -4132.1652      51.334851      49.396983      7.6            4.9072556e-10
      2810  -4132.1652      51.334851      49.396983      7.6           -1.2861258e-09
      2820  -4132.1652      51.334851      49.396983      7.6            5.6919919e-10
      2830  -4132.1652      51.334851      49.396983      7.6            7.4932338e-11
      2840  -4132.1652      51.334851      49.396983      7.6            1.6894682e-10
      2850  -4132.1652      51.334851      49.396983      7.6            2.6846829e-10
      2860  -4132.1652      51.334851      49.396983      7.6            1.5732548e-10
      2870  -4132.1652      51.334851      49.396983      7.6            8.803849e-10 
      2880  -4132.1652      51.334851      49.396983      7.6           -1.0260605e-09
      2890  -4132.1652      51.334851      49.396983      7.6           -3.563537e-10 
      2900  -4132.1652      51.334851      49.396983      7.6            1.7072952e-09
      2910  -4132.1652      51.334851      49.396983      7.6            8.2809281e-10
      2920  -4132.1652      51.334851      49.396983      7.6            5.6068545e-10
      2930  -4132.1652      51.334851      49.396983      7.6            4.1858018e-10
      2940  -4132.1652      51.334851      49.396983      7.6            1.7636031e-10
      2950  -4132.1652      51.334851      49.396983      7.6            3.5532877e-10
      2960  -4132.1652      51.334851      49.396983      7.6            1.7236636e-10
      2970  -4132.1652      51.334851      49.396983      7.6           -5.5637525e-11
      2980  -4132.1652      51.334851      49.396983      7.6            1.0120544e-09
      2990  -4132.1652      51.334851      49.396983      7.6            2.4394236e-10
      3000  -4132.1652      51.334851      49.396983      7.6           -1.3732502e-10
      3010  -4132.1652      51.334851      49.396983      7.6            1.8331196e-09
      3020  -4132.1652      51.334851      49.396983      7.6           -1.2903344e-09
      3030  -4132.1652      51.334851      49.396983      7.6            1.5539583e-09
      3040  -4132.1652      51.334851      49.396983      7.6           -6.4300702e-10
      3050  -4132.1652      51.334851      49.396983      7.6           -7.311958e-10 
      3060  -4132.1652      51.334851      49.396983      7.6            1.0283098e-09
      3070  -4132.1652      51.334851      49.396983      7.6           -6.7678743e-10
      3080  -4132.1652      51.334851      49.396983      7.6            1.2629798e-09
      3090  -4132.1652      51.334851      49.396983      7.6           -4.5636239e-10
      3100  -4132.1652      51.334851      49.396983      7.6            6.6062084e-10
      3110  -4132.1652      51.334851      49.396983      7.6            4.4137689e-10
      3120  -4132.1652      51.334851      49.396983      7.6           -1.8056187e-10
      3130  -4132.1652      51.334851      49.396983      7.6            1.6879425e-09
      3140  -4132.1652      51.334851      49.396983      7.6           -2.9305037e-09
      3150  -4132.1652      51.334851      49.396983      7.6            1.2103361e-09
      3160  -4132.1652      51.334851      49.396983      7.6           -1.1047512e-09
      3170  -4132.1652      51.334851      49.396983      7.6            1.0055696e-09
      3180  -4132.1652      51.334851      49.396983      7.6           -3.312458e-10 
      3190  -4132.1652      51.334851      49.396983      7.6           -1.0518128e-10
      3200  -4132.1652      51.334851      49.396983      7.6            9.5393778e-10
      3210  -4132.1652      51.334851      49.396983      7.6           -1.0124443e-09
      3220  -4132.1652      51.334851      49.396983      7.6            2.5262846e-09
      3230  -4132.1652      51.334851      49.396983      7.6           -1.2946172e-09
      3240  -4132.1652      51.334851      49.396983      7.6            2.0852899e-09
      3250  -4132.1652      51.334851      49.396983      7.6           -4.0389657e-09
      3260  -4132.1652      51.334851      49.396983      7.6            1.3983442e-09
      3270  -4132.1652      51.334851      49.396983      7.6            1.0299462e-10
      3280  -4132.1652      51.334851      49.396983      7.6            2.3211729e-10
      3290  -4132.1652      51.334851      49.396983      7.6           -1.2081502e-10
      3300  -4132.1652      51.334851      49.396983      7.6           -8.8382795e-10
      3310  -4132.1652      51.334851      49.396983      7.6            1.3849479e-09
      3320  -4132.1652      51.334851      49.396983      7.6           -1.8664596e-09
      3330  -4132.1652      51.334851      49.396983      7.6            1.7634762e-09
      3340  -4132.1652      51.334851      49.396983      7.6           -2.4993918e-09
      3350  -4132.1652      51.334851      49.396983      7.6            1.1578611e-09
      3360  -4132.1652      51.334851      49.396983      7.6           -1.0662266e-10
      3370  -4132.1652      51.334851      49.396983      7.6            8.0838264e-10
      3380  -4132.1652      51.334851      49.396983      7.6            4.2429573e-10
      3390  -4132.1652      51.334851      49.396983      7.6            2.4912754e-10
      3400  -4132.1652      51.334851      49.396983      7.6           -8.1325115e-11
      3410  -4132.1652      51.334851      49.396983      7.6           -5.9119111e-10
      3420  -4132.1652      51.334851      49.396983      7.6            9.2012746e-10
      3430  -4132.1652      51.334851      49.396983      7.6            2.841846e-10 
      3440  -4132.1652      51.334851      49.396983      7.6            7.4632074e-10
      3450  -4132.1652      51.334851      49.396983      7.6           -3.7072204e-10
      3460  -4132.1652      51.334851      49.396983      7.6           -5.9566964e-10
      3470  -4132.1652      51.334851      49.396983      7.6           -5.9940227e-11
      3480  -4132.1652      51.334851      49.396983      7.6           -1.8052458e-09
      3490  -4132.1652      51.334851      49.396983      7.6           -5.4349126e-10
      3500  -4132.1652      51.334851      49.396983      7.6            4.8314158e-10
      3510  -4132.1652      51.334851      49.396983      7.6            2.5444692e-10
      3520  -4132.1652      51.334851      49.396983      7.6            6.2806067e-10
      3530  -4132.1652      51.334851      49.396983      7.6           -1.8319566e-10
      3540  -4132.1652      51.334851      49.396983      7.6            3.9519713e-10
      3550  -4132.1652      51.334851      49.396983      7.6            4.9533478e-10
      3560  -4132.1652      51.334851      49.396983      7.6            6.6947581e-10
      3570  -4132.1652      51.334851      49.396983      7.6            1.6025442e-09
      3580  -4132.1652      51.334851      49.396983      7.6            8.2055711e-11
      3590  -4132.1652      51.334851      49.396983      7.6            1.215618e-10 
      3600  -4132.1652      51.334851      49.396983      7.6            7.1438126e-11
      3610  -4132.1652      51.334851      49.396983      7.6            1.4664053e-09
      3620  -4132.1652      51.334851      49.396983      7.6           -6.2485494e-11
      3630  -4132.1652      51.334851      49.396983      7.6           -1.2896406e-09
      3640  -4132.1652      51.334851      49.396983      7.6            8.5158194e-11
      3650  -4132.1652      51.334851      49.396983      7.6            1.8642101e-09
      3660  -4132.1652      51.334851      49.396983      7.6            1.3689387e-10
      3670  -4132.1652      51.334851      49.396983      7.6            7.2808539e-10
      3680  -4132.1652      51.334851      49.396983      7.6           -5.3228093e-10
      3690  -4132.1652      51.334851      49.396983      7.6            2.5393443e-10
      3700  -4132.1652      51.334851      49.396983      7.6            4.8534169e-10
      3710  -4132.1652      51.334851      49.396983      7.6           -1.7118193e-09
      3720  -4132.1652      51.334851      49.396983      7.6            6.2863506e-10
      3730  -4132.1652      51.334851      49.396983      7.6           -1.0228369e-09
      3740  -4132.1652      51.334851      49.396983      7.6            1.2901206e-10
      3750  -4132.1652      51.334851      49.396983      7.6            5.781256e-10 
      3760  -4132.1652      51.334851      49.396983      7.6           -7.9951388e-10
      3770  -4132.1652      51.334851      49.396983      7.6            1.5362202e-09
      3780  -4132.1652      51.334851      49.396983      7.6            1.1091336e-10
      3790  -4132.1652      51.334851      49.396983      7.6            6.1305821e-10
      3800  -4132.1652      51.334851      49.396983      7.6            3.2569022e-09
      3810  -4132.1652      51.334851      49.396983      7.6           -7.4659705e-10
      3820  -4132.1652      51.334851      49.396983      7.6           -2.4438648e-10
      3830  -4132.1652      51.334851      49.396983      7.6           -8.0416333e-10
      3840  -4132.1652      51.334851      49.396983      7.6            3.4285821e-10
      3850  -4132.1652      51.334851      49.396983      7.6           -5.1844502e-10
      3860  -4132.1652      51.334851      49.396983      7.6            1.1194601e-09
      3870  -4132.1652      51.334851      49.396983      7.6           -5.8321944e-11
      3880  -4132.1652      51.334851      49.396983      7.6           -1.8783785e-09
      3890  -4132.1652      51.334851      49.396983      7.6            9.2423262e-10
      3900  -4132.1652      51.334851      49.396983      7.6            1.2546955e-09
      3910  -4132.1652      51.334851      49.396983      7.6            2.6890025e-10
      3920  -4132.1652      51.334851      49.396983      7.6           -1.6709988e-11
      3930  -4132.1652      51.334851      49.396983      7.6            9.8651649e-10
      3940  -4132.1652      51.334851      49.396983      7.6            2.742397e-09 
      3950  -4132.1652      51.334851      49.396983      7.6            2.3357845e-10
      3960  -4132.1652      51.334851      49.396983      7.6            5.0585302e-10
      3970  -4132.1652      51.334851      49.396983      7.6            1.169089e-09 
      3980  -4132.1652      51.334851      49.396983      7.6            6.7048987e-11
      3990  -4132.1652      51.334851      49.396983      7.6           -4.9843144e-10
      4000  -4132.1652      51.334851      49.396983      7.6           -4.5068763e-10
      4010  -4132.1652      51.334851      49.396983      7.6            1.1114734e-09
      4020  -4132.1652      51.334851      49.396983      7.6           -3.8158292e-10
      4030  -4132.1652      51.334851      49.396983      7.6            1.1257713e-10
      4040  -4132.1652      51.334851      49.396983      7.6            1.460246e-09 
      4050  -4132.1652      51.334851      49.396983      7.6            1.1310599e-10
      4060  -4132.1652      51.334851      49.396983      7.6           -8.901591e-10 
      4070  -4132.1652      51.334851      49.396983      7.6           -1.1641675e-09
      4080  -4132.1652      51.334851      49.396983      7.6            8.8547063e-10
      4090  -4132.1652      51.334851      49.396983      7.6            7.0991798e-10
      4100  -4132.1652      51.334851      49.396983      7.6           -2.8830034e-10
      4110  -4132.1652      51.334851      49.396983      7.6            4.9584194e-10
      4120  -4132.1652      51.334851      49.396983      7.6            6.302018e-10 
      4130  -4132.1652      51.334851      49.396983      7.6           -5.4042028e-10
      4140  -4132.1652      51.334851      49.396983      7.6           -2.5735266e-10
      4150  -4132.1652      51.334851      49.396983      7.6           -1.4692225e-09
      4160  -4132.1652      51.334851      49.396983      7.6            2.3061033e-10
      4170  -4132.1652      51.334851      49.396983      7.6            9.7085128e-10
      4180  -4132.1652      51.334851      49.396983      7.6            3.6803114e-09
      4190  -4132.1652      51.334851      49.396983      7.6            7.7763851e-10
      4200  -4132.1652      51.334851      49.396983      7.6           -5.9320996e-10
      4210  -4132.1652      51.334851      49.396983      7.6            2.4207429e-11
      4220  -4132.1652      51.334851      49.396983      7.6            1.325982e-11 
      4230  -4132.1652      51.334851      49.396983      7.6           -9.8938452e-10
      4240  -4132.1652      51.334851      49.396983      7.6            7.945437e-10 
      4250  -4132.1652      51.334851      49.396983      7.6            2.6088523e-10
      4260  -4132.1652      51.334851      49.396983      7.6            1.8301635e-10
      4270  -4132.1652      51.334851      49.396983      7.6            1.5027989e-09
      4280  -4132.1652      51.334851      49.396983      7.6           -8.0852589e-11
      4290  -4132.1652      51.334851      49.396983      7.6            4.0867305e-10
      4300  -4132.1652      51.334851      49.396983      7.6           -4.9937438e-10
      4310  -4132.1652      51.334851      49.396983      7.6            1.2909368e-09
      4320  -4132.1652      51.334851      49.396983      7.6            3.4401168e-10
      4330  -4132.1652      51.334851      49.396983      7.6           -6.6105883e-10
      4340  -4132.1652      51.334851      49.396983      7.6            1.9768297e-09
      4350  -4132.1652      51.334851      49.396983      7.6           -9.0393397e-10
      4360  -4132.1652      51.334851      49.396983      7.6            1.7995661e-09
      4370  -4132.1652      51.334851      49.396983      7.6           -3.9141741e-10
      4380  -4132.1652      51.334851      49.396983      7.6            7.7754807e-10
      4390  -4132.1652      51.334851      49.396983      7.6            4.6806473e-10
      4400  -4132.1652      51.334851      49.396983      7.6           -1.1180297e-09
      4410  -4132.1652      51.334851      49.396983      7.6            1.852229e-09 
      4420  -4132.1652      51.334851      49.396983      7.6           -1.3990434e-09
      4430  -4132.1652      51.334851      49.396983      7.6           -4.9275718e-12
      4440  -4132.1652      51.334851      49.396983      7.6            1.9906221e-09
      4450  -4132.1652      51.334851      49.396983      7.6           -6.4397766e-10
      4460  -4132.1652      51.334851      49.396983      7.6            1.4569448e-11
      4470  -4132.1652      51.334851      49.396983      7.6            6.3570033e-10
      4480  -4132.1652      51.334851      49.396983      7.6           -4.3296657e-10
      4490  -4132.1652      51.334851      49.396983      7.6           -3.9224157e-10
      4500  -4132.1652      51.334851      49.396983      7.6            1.0859936e-09
      4510  -4132.1652      51.334851      49.396983      7.6           -1.605702e-09 
      4520  -4132.1652      51.334851      49.396983      7.6            6.1789758e-10
      4530  -4132.1652      51.334851      49.396983      7.6           -2.2937437e-09
      4540  -4132.1652      51.334851      49.396983      7.6           -9.3301515e-10
      4550  -4132.1652      51.334851      49.396983      7.6           -1.1382275e-09
      4560  -4132.1652      51.334851      49.396983      7.6            5.2275777e-10
      4570  -4132.1652      51.334851      49.396983      7.6            2.7612296e-09
      4580  -4132.1652      51.334851      49.396983      7.6           -3.141524e-11 
      4590  -4132.1652      51.334851      49.396983      7.6            5.9084613e-10
      4600  -4132.1652      51.334851      49.396983      7.6            9.4046797e-10
      4610  -4132.1652      51.334851      49.396983      7.6           -5.0291293e-10
      4620  -4132.1652      51.334851      49.396983      7.6            1.4960755e-09
      4630  -4132.1652      51.334851      49.396983      7.6            3.6057616e-10
      4640  -4132.1652      51.334851      49.396983      7.6           -1.6254488e-10
      4650  -4132.1652      51.334851      49.396983      7.6            1.1578785e-09
      4660  -4132.1652      51.334851      49.396983      7.6           -3.1073717e-11
      4670  -4132.1652      51.334851      49.396983      7.6            8.4379726e-10
      4680  -4132.1652      51.334851      49.396983      7.6           -1.373995e-09 
      4690  -4132.1652      51.334851      49.396983      7.6            8.137097e-10 
      4700  -4132.1652      51.334851      49.396983      7.6           -1.6312498e-09
      4710  -4132.1652      51.334851      49.396983      7.6            4.9624139e-10
      4720  -4132.1652      51.334851      49.396983      7.6           -1.1311477e-09
      4730  -4132.1652      51.334851      49.396983      7.6            2.4345027e-10
      4740  -4132.1652      51.334851      49.396983      7.6            5.5888442e-10
      4750  -4132.1652      51.334851      49.396983      7.6           -6.3024373e-10
      4760  -4132.1652      51.334851      49.396983      7.6            1.5591039e-09
      4770  -4132.1652      51.334851      49.396983      7.6            1.8344464e-09
      4780  -4132.1652      51.334851      49.396983      7.6           -5.6115086e-10
      4790  -4132.1652      51.334851      49.396983      7.6            3.3364579e-10
      4800  -4132.1652      51.334851      49.396983      7.6            5.7988651e-11
      4810  -4132.1652      51.334851      49.396983      7.6            2.9817448e-10
      4820  -4132.1652      51.334851      49.396983      7.6            5.5307194e-10
      4830  -4132.1652      51.334851      49.396983      7.6            9.4365128e-10
      4840  -4132.1652      51.334851      49.396983      7.6           -5.4492318e-10
      4850  -4132.1652      51.334851      49.396983      7.6            9.6226175e-10
      4860  -4132.1652      51.334851      49.396983      7.6           -5.5604606e-10
      4870  -4132.1652      51.334851      49.396983      7.6            3.3086024e-10
      4880  -4132.1652      51.334851      49.396983      7.6           -4.1917654e-11
      4890  -4132.1652      51.334851      49.396983      7.6            5.8563907e-10
      4900  -4132.1652      51.334851      49.396983      7.6            1.1203408e-09
      4910  -4132.1652      51.334851      49.396983      7.6           -9.8214398e-10
      4920  -4132.1652      51.334851      49.396983      7.6           -1.3855545e-10
      4930  -4132.1652      51.334851      49.396983      7.6            5.209216e-10 
      4940  -4132.1652      51.334851      49.396983      7.6            5.0061866e-10
      4950  -4132.1652      51.334851      49.396983      7.6            3.8222489e-10
      4960  -4132.1652      51.334851      49.396983      7.6            4.1608681e-10
      4970  -4132.1652      51.334851      49.396983      7.6           -1.8375448e-10
      4980  -4132.1652      51.334851      49.396983      7.6            6.1146715e-10
      4990  -4132.1652      51.334851      49.396983      7.6            2.7481297e-10
      5000  -4132.1652      51.334851      49.396983      7.6            1.2017569e-09
      5010  -4132.1652      51.334851      49.396983      7.6           -2.3991926e-09
      5020  -4132.1652      51.334851      49.396983      7.6            9.2034599e-10
      5030  -4132.1652      51.334851      49.396983      7.6           -2.184421e-09 
      5040  -4132.1652      51.334851      49.396983      7.6            4.2417846e-11
      5050  -4132.1652      51.334851      49.396983      7.6            1.0146386e-10
      5060  -4132.1652      51.334851      49.396983      7.6           -9.6655066e-10
      5070  -4132.1652      51.334851      49.396983      7.6            1.5442946e-09
      5080  -4132.1652      51.334851      49.396983      7.6           -4.4220336e-10
      5090  -4132.1652      51.334851      49.396983      7.6            2.9334384e-09
      5100  -4132.1652      51.334851      49.396983      7.6            6.4493798e-11
      5110  -4132.1652      51.334851      49.396983      7.6            4.1084153e-10
      5120  -4132.1652      51.334851      49.396983      7.6            1.0284106e-09
      5130  -4132.1652      51.334851      49.396983      7.6           -1.2034809e-09
      5140  -4132.1652      51.334851      49.396983      7.6           -2.9826638e-09
      5150  -4132.1652      51.334851      49.396983      7.6            4.1878684e-10
      5160  -4132.1652      51.334851      49.396983      7.6            8.9059608e-10
      5170  -4132.1652      51.334851      49.396983      7.6            1.0510081e-09
      5180  -4132.1652      51.334851      49.396983      7.6            7.307624e-10 
      5190  -4132.1652      51.334851      49.396983      7.6            6.2115987e-10
      5200  -4132.1652      51.334851      49.396983      7.6           -2.1427748e-10
      5210  -4132.1652      51.334851      49.396983      7.6            6.3127409e-10
      5220  -4132.1652      51.334851      49.396983      7.6            1.2716151e-09
      5230  -4132.1652      51.334851      49.396983      7.6           -5.6030529e-10
      5240  -4132.1652      51.334851      49.396983      7.6            1.4275181e-09
      5250  -4132.1652      51.334851      49.396983      7.6           -2.4978185e-09
      5260  -4132.1652      51.334851      49.396983      7.6            6.2409429e-10
      5270  -4132.1652      51.334851      49.396983      7.6           -1.6051225e-09
      5280  -4132.1652      51.334851      49.396983      7.6            3.7707024e-10
      5290  -4132.1652      51.334851      49.396983      7.6            2.1775929e-10
      5300  -4132.1652      51.334851      49.396983      7.6           -5.0371439e-10
      5310  -4132.1652      51.334851      49.396983      7.6            9.5295514e-11
      5320  -4132.1652      51.334851      49.396983      7.6            3.1304425e-10
      5330  -4132.1652      51.334851      49.396983      7.6            3.2235893e-09
      5340  -4132.1652      51.334851      49.396983      7.6            1.813621e-10 
      5350  -4132.1652      51.334851      49.396983      7.6            9.1184021e-10
      5360  -4132.1652      51.334851      49.396983      7.6            5.7402955e-10
      5370  -4132.1652      51.334851      49.396983      7.6           -1.6068701e-09
      5380  -4132.1652      51.334851      49.396983      7.6            2.95931e-10  
      5390  -4132.1652      51.334851      49.396983      7.6            1.3332271e-10
      5400  -4132.1652      51.334851      49.396983      7.6           -6.2508665e-10
      5410  -4132.1652      51.334851      49.396983      7.6            4.5997251e-10
      5420  -4132.1652      51.334851      49.396983      7.6           -2.510385e-09 
      5430  -4132.1652      51.334851      49.396983      7.6           -4.0236725e-10
      5440  -4132.1652      51.334851      49.396983      7.6            9.7119041e-10
      5450  -4132.1652      51.334851      49.396983      7.6            3.708056e-10 
      5460  -4132.1652      51.334851      49.396983      7.6           -1.1106498e-09
      5470  -4132.1652      51.334851      49.396983      7.6            8.5501218e-10
      5480  -4132.1652      51.334851      49.396983      7.6           -3.3411725e-09
      5490  -4132.1652      51.334851      49.396983      7.6            8.9419562e-10
      5500  -4132.1652      51.334851      49.396983      7.6            4.5256498e-10
      5510  -4132.1652      51.334851      49.396983      7.6           -1.304091e-09 
      5520  -4132.1652      51.334851      49.396983      7.6            6.3168006e-10
      5530  -4132.1652      51.334851      49.396983      7.6           -1.6928067e-10
      5540  -4132.1652      51.334851      49.396983      7.6            1.8651605e-09
      5550  -4132.1652      51.334851      49.396983      7.6           -1.3494608e-09
      5560  -4132.1652      51.334851      49.396983      7.6            6.5138027e-10
      5570  -4132.1652      51.334851      49.396983      7.6           -1.2601646e-09
      5580  -4132.1652      51.334851      49.396983      7.6           -1.0678314e-09
      5590  -4132.1652      51.334851      49.396983      7.6            1.4035917e-09
      5600  -4132.1652      51.334851      49.396983      7.6           -9.2798262e-10
      5610  -4132.1652      51.334851      49.396983      7.6            6.1683474e-10
      5620  -4132.1652      51.334851      49.396983      7.6           -1.4296662e-10
      5630  -4132.1652      51.334851      49.396983      7.6           -1.0456281e-10
      5640  -4132.1652      51.334851      49.396983      7.6           -1.1424346e-10
      5650  -4132.1652      51.334851      49.396983      7.6           -1.7788404e-09
      5660  -4132.1652      51.334851      49.396983      7.6            9.9406564e-10
      5670  -4132.1652      51.334851      49.396983      7.6            4.1122797e-11
      5680  -4132.1652      51.334851      49.396983      7.6            2.0829478e-10
      5690  -4132.1652      51.334851      49.396983      7.6            2.635827e-09 
      5700  -4132.1652      51.334851      49.396983      7.6           -3.8329504e-10
      5710  -4132.1652      51.334851      49.396983      7.6            7.8016202e-10
      5720  -4132.1652      51.334851      49.396983      7.6            2.0439402e-10
      5730  -4132.1652      51.334851      49.396983      7.6            2.8606744e-10
      5740  -4132.1652      51.334851      49.396983      7.6            1.3052504e-09
      5750  -4132.1652      51.334851      49.396983      7.6           -1.6368356e-09
      5760  -4132.1652      51.334851      49.396983      7.6           -1.7020709e-09
      5770  -4132.1652      51.334851      49.396983      7.6            6.9057889e-11
      5780  -4132.1652      51.334851      49.396983      7.6            4.7767545e-11
      5790  -4132.1652      51.334851      49.396983      7.6            3.1608014e-09
      5800  -4132.1652      51.334851      49.396983      7.6            1.3319304e-09
      5810  -4132.1652      51.334851      49.396983      7.6            6.6734547e-10
      5820  -4132.1652      51.334851      49.396983      7.6            1.1784857e-10
      5830  -4132.1652      51.334851      49.396983      7.6            3.5075961e-10
      5840  -4132.1652      51.334851      49.396983      7.6           -3.6846175e-12
      5850  -4132.1652      51.334851      49.396983      7.6            1.196953e-09 
      5860  -4132.1652      51.334851      49.396983      7.6           -8.0212427e-10
      5870  -4132.1652      51.334851      49.396983      7.6            1.6354251e-10
      5880  -4132.1652      51.334851      49.396983      7.6            1.1006838e-09
      5890  -4132.1652      51.334851      49.396983      7.6           -8.9067102e-11
      5900  -4132.1652      51.334851      49.396983      7.6            5.1856542e-10
      5910  -4132.1652      51.334851      49.396983      7.6            6.688534e-10 
      5920  -4132.1652      51.334851      49.396983      7.6           -3.9551382e-10
      5930  -4132.1652      51.334851      49.396983      7.6            1.5916729e-09
      5940  -4132.1652      51.334851      49.396983      7.6           -1.6366088e-09
      5950  -4132.1652      51.334851      49.396983      7.6            1.3827002e-09
      5960  -4132.1652      51.334851      49.396983      7.6           -1.8032608e-09
      5970  -4132.1652      51.334851      49.396983      7.6           -3.3217374e-10
      5980  -4132.1652      51.334851      49.396983      7.6            1.2963707e-09
      5990  -4132.1652      51.334851      49.396983      7.6            6.7198755e-10
      6000  -4132.1652      51.334851      49.396983      7.6            8.3721041e-10
      6010  -4132.1652      51.334851      49.396983      7.6            3.91081e-10  
      6020  -4132.1652      51.334851      49.396983      7.6            4.7067299e-10
      6030  -4132.1652      51.334851      49.396983      7.6           -1.5460631e-09
      6040  -4132.1652      51.334851      49.396983      7.6            3.0347296e-10
      6050  -4132.1652      51.334851      49.396983      7.6           -4.2072699e-10
      6060  -4132.1652      51.334851      49.396983      7.6            1.4672493e-09
      6070  -4132.1652      51.334851      49.396983      7.6           -1.2443209e-09
      6080  -4132.1652      51.334851      49.396983      7.6            1.4422129e-09
      6090  -4132.1652      51.334851      49.396983      7.6           -5.2854813e-10
      6100  -4132.1652      51.334851      49.396983      7.6            1.3118575e-11
      6110  -4132.1652      51.334851      49.396983      7.6            9.485449e-10 
      6120  -4132.1652      51.334851      49.396983      7.6            3.6193947e-10
      6130  -4132.1652      51.334851      49.396983      7.6            5.2540794e-10
      6140  -4132.1652      51.334851      49.396983      7.6            3.0966021e-10
      6150  -4132.1652      51.334851      49.396983      7.6           -1.904327e-09 
      6160  -4132.1652      51.334851      49.396983      7.6            1.7713697e-09
      6170  -4132.1652      51.334851      49.396983      7.6            3.1585039e-10
      6180  -4132.1652      51.334851      49.396983      7.6           -1.0659271e-09
      6190  -4132.1652      51.334851      49.396983      7.6            2.2632369e-10
      6200  -4132.1652      51.334851      49.396983      7.6            1.2484754e-09
      6210  -4132.1652      51.334851      49.396983      7.6            7.7931011e-10
      6220  -4132.1652      51.334851      49.396983      7.6            2.6297313e-10
      6230  -4132.1652      51.334851      49.396983      7.6            1.4968322e-10
      6240  -4132.1652      51.334851      49.396983      7.6            3.9289709e-10
      6250  -4132.1652      51.334851      49.396983      7.6            4.5139307e-10
      6260  -4132.1652      51.334851      49.396983      7.6            4.0792631e-10
      6270  -4132.1652      51.334851      49.396983      7.6            5.1830705e-10
      6280  -4132.1652      51.334851      49.396983      7.6            7.6643176e-10
      6290  -4132.1652      51.334851      49.396983      7.6            1.9498112e-10
      6300  -4132.1652      51.334851      49.396983      7.6           -1.1772556e-09
      6310  -4132.1652      51.334851      49.396983      7.6            1.1438991e-09
      6320  -4132.1652      51.334851      49.396983      7.6           -2.2918663e-09
      6330  -4132.1652      51.334851      49.396983      7.6            6.091341e-10 
      6340  -4132.1652      51.334851      49.396983      7.6            6.0662776e-10
      6350  -4132.1652      51.334851      49.396983      7.6            4.4413103e-10
      6360  -4132.1652      51.334851      49.396983      7.6           -1.4582249e-10
      6370  -4132.1652      51.334851      49.396983      7.6            6.4294375e-10
      6380  -4132.1652      51.334851      49.396983      7.6            6.9060229e-10
      6390  -4132.1652      51.334851      49.396983      7.6            3.3917925e-10
      6400  -4132.1652      51.334851      49.396983      7.6           -3.3343178e-10
      6410  -4132.1652      51.334851      49.396983      7.6            1.3181272e-10
      6420  -4132.1652      51.334851      49.396983      7.6           -2.0334298e-10
      6430  -4132.1652      51.334851      49.396983      7.6            4.9290856e-10
      6440  -4132.1652      51.334851      49.396983      7.6            1.3103436e-09
      6450  -4132.1652      51.334851      49.396983      7.6            5.3018002e-11
      6460  -4132.1652      51.334851      49.396983      7.6            7.51404e-10  
      6470  -4132.1652      51.334851      49.396983      7.6            1.4496393e-09
      6480  -4132.1652      51.334851      49.396983      7.6           -1.1488097e-09
      6490  -4132.1652      51.334851      49.396983      7.6            2.155684e-09 
      6500  -4132.1652      51.334851      49.396983      7.6           -2.7277551e-09
      6510  -4132.1652      51.334851      49.396983      7.6           -1.1139254e-09
      6520  -4132.1652      51.334851      49.396983      7.6            3.2798451e-10
      6530  -4132.1652      51.334851      49.396983      7.6            4.1763669e-10
      6540  -4132.1652      51.334851      49.396983      7.6            7.4025317e-10
      6550  -4132.1652      51.334851      49.396983      7.6           -6.8779871e-10
      6560  -4132.1652      51.334851      49.396983      7.6           -5.6717146e-10
      6570  -4132.1652      51.334851      49.396983      7.6           -4.8601315e-12
      6580  -4132.1652      51.334851      49.396983      7.6            6.947293e-10 
      6590  -4132.1652      51.334851      49.396983      7.6            6.0474461e-10
      6600  -4132.1652      51.334851      49.396983      7.6            2.2968193e-11
      6610  -4132.1652      51.334851      49.396983      7.6            6.9335167e-10
      6620  -4132.1652      51.334851      49.396983      7.6           -9.4932315e-10
      6630  -4132.1652      51.334851      49.396983      7.6            1.6961743e-09
      6640  -4132.1652      51.334851      49.396983      7.6            3.8015675e-10
      6650  -4132.1652      51.334851      49.396983      7.6           -2.4689094e-11
      6660  -4132.1652      51.334851      49.396983      7.6            4.4644308e-10
      6670  -4132.1652      51.334851      49.396983      7.6            1.4591697e-10
      6680  -4132.1652      51.334851      49.396983      7.6           -1.8243661e-09
      6690  -4132.1652      51.334851      49.396983      7.6            6.8243287e-10
      6700  -4132.1652      51.334851      49.396983      7.6            2.4997639e-10
      6710  -4132.1652      51.334851      49.396983      7.6            7.8328069e-10
      6720  -4132.1652      51.334851      49.396983      7.6            2.8052687e-09
      6730  -4132.1652      51.334851      49.396983      7.6            8.1507187e-10
      6740  -4132.1652      51.334851      49.396983      7.6            1.6298999e-10
      6750  -4132.1652      51.334851      49.396983      7.6            6.841106e-10 
      6760  -4132.1652      51.334851      49.396983      7.6            1.9266715e-10
      6770  -4132.1652      51.334851      49.396983      7.6            2.3338207e-10
      6780  -4132.1652      51.334851      49.396983      7.6           -6.3172978e-10
      6790  -4132.1652      51.334851      49.396983      7.6            2.8476298e-10
      6800  -4132.1652      51.334851      49.396983      7.6           -8.9023387e-11
      6810  -4132.1652      51.334851      49.396983      7.6           -2.0812871e-09
      6820  -4132.1652      51.334851      49.396983      7.6            2.0124516e-09
      6830  -4132.1652      51.334851      49.396983      7.6            1.016065e-09 
      6840  -4132.1652      51.334851      49.396983      7.6            9.4713901e-10
      6850  -4132.1652      51.334851      49.396983      7.6            5.0915884e-10
      6860  -4132.1652      51.334851      49.396983      7.6            4.6748364e-10
      6870  -4132.1652      51.334851      49.396983      7.6            6.7600408e-10
      6880  -4132.1652      51.334851      49.396983      7.6            1.0214079e-09
      6890  -4132.1652      51.334851      49.396983      7.6           -7.3821923e-10
      6900  -4132.1652      51.334851      49.396983      7.6            1.4546454e-09
      6910  -4132.1652      51.334851      49.396983      7.6           -7.0925478e-10
      6920  -4132.1652      51.334851      49.396983      7.6            1.2275722e-09
      6930  -4132.1652      51.334851      49.396983      7.6           -1.0928421e-09
      6940  -4132.1652      51.334851      49.396983      7.6           -6.0084566e-10
      6950  -4132.1652      51.334851      49.396983      7.6            5.2408863e-10
      6960  -4132.1652      51.334851      49.396983      7.6            2.0649237e-09
      6970  -4132.1652      51.334851      49.396983      7.6            5.9779513e-11
      6980  -4132.1652      51.334851      49.396983      7.6           -2.2735382e-10
      6990  -4132.1652      51.334851      49.396983      7.6            9.4980767e-11
      7000  -4132.1652      51.334851      49.396983      7.6            3.3653032e-10
      7010  -4132.1652      51.334851      49.396983      7.6            1.6591793e-09
      7020  -4132.1652      51.334851      49.396983      7.6            5.5240765e-10
      7030  -4132.1652      51.334851      49.396983      7.6           -7.9808049e-10
      7040  -4132.1652      51.334851      49.396983      7.6            2.8103801e-10
      7050  -4132.1652      51.334851      49.396983      7.6            3.3604253e-11
      7060  -4132.1652      51.334851      49.396983      7.6           -4.3993856e-10
      7070  -4132.1652      51.334851      49.396983      7.6            5.9454282e-10
      7080  -4132.1652      51.334851      49.396983      7.6            2.6721635e-09
      7090  -4132.1652      51.334851      49.396983      7.6            2.6866008e-10
      7100  -4132.1652      51.334851      49.396983      7.6           -9.4520638e-10
      7110  -4132.1652      51.334851      49.396983      7.6            8.644115e-11 
      7120  -4132.1652      51.334851      49.396983      7.6            1.6712913e-09
      7130  -4132.1652      51.334851      49.396983      7.6           -1.1148159e-09
      7140  -4132.1652      51.334851      49.396983      7.6            1.869932e-09 
      7150  -4132.1652      51.334851      49.396983      7.6           -2.169438e-09 
      7160  -4132.1652      51.334851      49.396983      7.6            5.1845975e-10
      7170  -4132.1652      51.334851      49.396983      7.6            6.8969513e-10
      7180  -4132.1652      51.334851      49.396983      7.6           -8.4646644e-10
      7190  -4132.1652      51.334851      49.396983      7.6           -1.6000099e-10
      7200  -4132.1652      51.334851      49.396983      7.6            5.8384519e-10
      7210  -4132.1652      51.334851      49.396983      7.6            6.0984048e-10
      7220  -4132.1652      51.334851      49.396983      7.6           -9.9686525e-11
      7230  -4132.1652      51.334851      49.396983      7.6            7.3299828e-10
      7240  -4132.1652      51.334851      49.396983      7.6            7.2594696e-11
      7250  -4132.1652      51.334851      49.396983      7.6           -3.4331765e-10
      7260  -4132.1652      51.334851      49.396983      7.6            6.8676299e-10
      7270  -4132.1652      51.334851      49.396983      7.6           -3.5628727e-10
      7280  -4132.1652      51.334851      49.396983      7.6            1.8608838e-09
      7290  -4132.1652      51.334851      49.396983      7.6           -2.21326e-09  
      7300  -4132.1652      51.334851      49.396983      7.6            1.8152371e-09
      7310  -4132.1652      51.334851      49.396983      7.6            2.9322824e-10
      7320  -4132.1652      51.334851      49.396983      7.6           -8.7799895e-10
      7330  -4132.1652      51.334851      49.396983      7.6           -4.8129939e-10
      7340  -4132.1652      51.334851      49.396983      7.6           -1.0973759e-09
      7350  -4132.1652      51.334851      49.396983      7.6            1.4858536e-09
      7360  -4132.1652      51.334851      49.396983      7.6           -3.7588374e-10
      7370  -4132.1652      51.334851      49.396983      7.6            6.7277232e-10
      7380  -4132.1652      51.334851      49.396983      7.6            4.3126154e-10
      7390  -4132.1652      51.334851      49.396983      7.6           -8.3953128e-10
      7400  -4132.1652      51.334851      49.396983      7.6            1.1760155e-09
      7410  -4132.1652      51.334851      49.396983      7.6           -1.8915431e-09
      7420  -4132.1652      51.334851      49.396983      7.6           -2.6780211e-11
      7430  -4132.1652      51.334851      49.396983      7.6           -2.9474685e-10
      7440  -4132.1652      51.334851      49.396983      7.6            2.9035689e-10
      7450  -4132.1652      51.334851      49.396983      7.6           -1.7839415e-10
      7460  -4132.1652      51.334851      49.396983      7.6           -3.7335759e-10
      7470  -4132.1652      51.334851      49.396983      7.6            4.2272267e-10
      7480  -4132.1652      51.334851      49.396983      7.6            8.1729574e-10
      7490  -4132.1652      51.334851      49.396983      7.6           -9.5614325e-10
      7500  -4132.1652      51.334851      49.396983      7.6            2.949066e-10 
      7510  -4132.1652      51.334851      49.396983      7.6            1.5042068e-10
      7520  -4132.1652      51.334851      49.396983      7.6            3.4995327e-10
      7530  -4132.1652      51.334851      49.396983      7.6            8.4171751e-10
      7540  -4132.1652      51.334851      49.396983      7.6           -2.2251868e-09
      7550  -4132.1652      51.334851      49.396983      7.6            5.5802092e-10
      7560  -4132.1652      51.334851      49.396983      7.6           -9.9842688e-10
      7570  -4132.1652      51.334851      49.396983      7.6            7.7297024e-11
      7580  -4132.1652      51.334851      49.396983      7.6           -3.5060836e-10
      7590  -4132.1652      51.334851      49.396983      7.6           -1.0698363e-09
      7600  -4132.1652      51.334851      49.396983      7.6            9.3590187e-10
      7610  -4132.1652      51.334851      49.396983      7.6           -2.137537e-09 
      7620  -4132.1652      51.334851      49.396983      7.6            2.941349e-09 
      7630  -4132.1652      51.334851      49.396983      7.6           -2.0343838e-09
      7640  -4132.1652      51.334851      49.396983      7.6            1.8581539e-09
      7650  -4132.1652      51.334851      49.396983      7.6           -1.22334e-09  
      7660  -4132.1652      51.334851      49.396983      7.6            3.1171976e-10
      7670  -4132.1652      51.334851      49.396983      7.6            2.2483432e-09
      7680  -4132.1652      51.334851      49.396983      7.6            3.6299186e-10
      7690  -4132.1652      51.334851      49.396983      7.6           -8.0494666e-11
      7700  -4132.1652      51.334851      49.396983      7.6            9.3206757e-10
      7710  -4132.1652      51.334851      49.396983      7.6           -7.8683888e-10
      7720  -4132.1652      51.334851      49.396983      7.6            2.6038309e-09
      7730  -4132.1652      51.334851      49.396983      7.6           -1.6154745e-09
      7740  -4132.1652      51.334851      49.396983      7.6            1.054514e-09 
      7750  -4132.1652      51.334851      49.396983      7.6           -1.0112302e-09
      7760  -4132.1652      51.334851      49.396983      7.6           -8.1766475e-10
      7770  -4132.1652      51.334851      49.396983      7.6           -1.4831647e-10
      7780  -4132.1652      51.334851      49.396983      7.6           -1.3706017e-09
      7790  -4132.1652      51.334851      49.396983      7.6           -1.2569107e-09
      7800  -4132.1652      51.334851      49.396983      7.6            7.5380445e-10
      7810  -4132.1652      51.334851      49.396983      7.6           -4.5014681e-10
      7820  -4132.1652      51.334851      49.396983      7.6            1.3352535e-09
      7830  -4132.1652      51.334851      49.396983      7.6           -3.559578e-12 
      7840  -4132.1652      51.334851      49.396983      7.6           -1.3966901e-09
      7850  -4132.1652      51.334851      49.396983      7.6           -9.7597174e-11
      7860  -4132.1652      51.334851      49.396983      7.6            1.4506228e-10
      7870  -4132.1652      51.334851      49.396983      7.6            5.4388038e-10
      7880  -4132.1652      51.334851      49.396983      7.6            6.2735303e-10
      7890  -4132.1652      51.334851      49.396983      7.6           -9.6374511e-11
      7900  -4132.1652      51.334851      49.396983      7.6            1.2442384e-09
      7910  -4132.1652      51.334851      49.396983      7.6            1.4457911e-09
      7920  -4132.1652      51.334851      49.396983      7.6            4.0886026e-10
      7930  -4132.1652      51.334851      49.396983      7.6            2.074073e-10 
      7940  -4132.1652      51.334851      49.396983      7.6            2.4778221e-10
      7950  -4132.1652      51.334851      49.396983      7.6           -7.9185198e-10
      7960  -4132.1652      51.334851      49.396983      7.6            7.3536552e-10
      7970  -4132.1652      51.334851      49.396983      7.6           -1.4605532e-09
      7980  -4132.1652      51.334851      49.396983      7.6            1.3489685e-09
      7990  -4132.1652      51.334851      49.396983      7.6           -2.1373407e-09
      8000  -4132.1652      51.334851      49.396983      7.6            5.1252551e-10
      8010  -4132.1652      51.334851      49.396983      7.6            7.3431311e-10
      8020  -4132.1652      51.334851      49.396983      7.6           -5.3480258e-10
      8030  -4132.1652      51.334851      49.396983      7.6            4.0313523e-10
      8040  -4132.1652      51.334851      49.396983      7.6            4.4684454e-10
      8050  -4132.1652      51.334851      49.396983      7.6           -4.4350808e-10
      8060  -4132.1652      51.334851      49.396983      7.6            1.1826637e-09
      8070  -4132.1652      51.334851      49.396983      7.6            7.469593e-11 
      8080  -4132.1652      51.334851      49.396983      7.6           -2.0807936e-10
      8090  -4132.1652      51.334851      49.396983      7.6           -4.8025248e-10
      8100  -4132.1652      51.334851      49.396983      7.6           -6.5414181e-10
      8110  -4132.1652      51.334851      49.396983      7.6            1.8360125e-09
      8120  -4132.1652      51.334851      49.396983      7.6            3.4728256e-10
      8130  -4132.1652      51.334851      49.396983      7.6            7.2044269e-10
      8140  -4132.1652      51.334851      49.396983      7.6            4.6878799e-10
      8150  -4132.1652      51.334851      49.396983      7.6           -2.2679542e-10
      8160  -4132.1652      51.334851      49.396983      7.6            1.7662637e-10
      8170  -4132.1652      51.334851      49.396983      7.6           -9.6311872e-11
      8180  -4132.1652      51.334851      49.396983      7.6            1.1983441e-09
      8190  -4132.1652      51.334851      49.396983      7.6            5.6041826e-10
      8200  -4132.1652      51.334851      49.396983      7.6           -1.5372003e-09
      8210  -4132.1652      51.334851      49.396983      7.6           -1.2779978e-10
      8220  -4132.1652      51.334851      49.396983      7.6            3.0118602e-10
      8230  -4132.1652      51.334851      49.396983      7.6            8.8965173e-10
      8240  -4132.1652      51.334851      49.396983      7.6            1.6733409e-10
      8250  -4132.1652      51.334851      49.396983      7.6            2.8215056e-10
      8260  -4132.1652      51.334851      49.396983      7.6            8.1535107e-10
      8270  -4132.1652      51.334851      49.396983      7.6           -1.8304124e-09
      8280  -4132.1652      51.334851      49.396983      7.6            6.6424821e-10
      8290  -4132.1652      51.334851      49.396983      7.6           -1.4135536e-09
      8300  -4132.1652      51.334851      49.396983      7.6            1.9054014e-09
      8310  -4132.1652      51.334851      49.396983      7.6           -1.8909601e-09
      8320  -4132.1652      51.334851      49.396983      7.6            2.4740832e-09
      8330  -4132.1652      51.334851      49.396983      7.6            2.9220179e-10
      8340  -4132.1652      51.334851      49.396983      7.6            1.2175795e-09
      8350  -4132.1652      51.334851      49.396983      7.6            5.8299522e-10
      8360  -4132.1652      51.334851      49.396983      7.6            1.7380293e-10
      8370  -4132.1652      51.334851      49.396983      7.6            2.4530694e-09
      8380  -4132.1652      51.334851      49.396983      7.6           -4.1906482e-10
      8390  -4132.1652      51.334851      49.396983      7.6            7.2386393e-10
      8400  -4132.1652      51.334851      49.396983      7.6            7.8717509e-10
      8410  -4132.1652      51.334851      49.396983      7.6           -3.1806726e-10
      8420  -4132.1652      51.334851      49.396983      7.6            2.1418442e-09
      8430  -4132.1652      51.334851      49.396983      7.6           -2.906851e-10 
      8440  -4132.1652      51.334851      49.396983      7.6            1.2965469e-09
      8450  -4132.1652      51.334851      49.396983      7.6           -7.2420395e-10
      8460  -4132.1652      51.334851      49.396983      7.6            5.4604427e-10
      8470  -4132.1652      51.334851      49.396983      7.6           -2.4312719e-11
      8480  -4132.1652      51.334851      49.396983      7.6           -1.1415912e-09
      8490  -4132.1652      51.334851      49.396983      7.6           -3.1973929e-09
      8500  -4132.1652      51.334851      49.396983      7.6            2.3714635e-10
      8510  -4132.1652      51.334851      49.396983      7.6            2.9267393e-10
      8520  -4132.1652      51.334851      49.396983      7.6            9.2505914e-10
      8530  -4132.1652      51.334851      49.396983      7.6            5.4172836e-10
      8540  -4132.1652      51.334851      49.396983      7.6            5.1266985e-10
      8550  -4132.1652      51.334851      49.396983      7.6           -2.6113348e-10
      8560  -4132.1652      51.334851      49.396983      7.6            2.5443697e-10
      8570  -4132.1652      51.334851      49.396983      7.6            1.6766648e-09
      8580  -4132.1652      51.334851      49.396983      7.6           -1.2396435e-09
      8590  -4132.1652      51.334851      49.396983      7.6            2.1169558e-09
      8600  -4132.1652      51.334851      49.396983      7.6           -1.6973915e-09
      8610  -4132.1652      51.334851      49.396983      7.6            1.4967606e-09
      8620  -4132.1652      51.334851      49.396983      7.6           -9.3435215e-11
      8630  -4132.1652      51.334851      49.396983      7.6           -1.0943081e-09
      8640  -4132.1652      51.334851      49.396983      7.6            5.7218491e-10
      8650  -4132.1652      51.334851      49.396983      7.6           -2.6518958e-10
      8660  -4132.1652      51.334851      49.396983      7.6            1.5592287e-09
      8670  -4132.1652      51.334851      49.396983      7.6           -5.7813263e-10
      8680  -4132.1652      51.334851      49.396983      7.6            1.3663166e-09
      8690  -4132.1652      51.334851      49.396983      7.6           -1.166577e-10 
      8700  -4132.1652      51.334851      49.396983      7.6            9.5996762e-10
      8710  -4132.1652      51.334851      49.396983      7.6            4.9257692e-10
      8720  -4132.1652      51.334851      49.396983      7.6           -7.7310809e-11
      8730  -4132.1652      51.334851      49.396983      7.6            2.3411644e-09
      8740  -4132.1652      51.334851      49.396983      7.6           -2.1959218e-10
      8750  -4132.1652      51.334851      49.396983      7.6            1.3974567e-10
      8760  -4132.1652      51.334851      49.396983      7.6            1.3261832e-09
      8770  -4132.1652      51.334851      49.396983      7.6           -2.9240147e-10
      8780  -4132.1652      51.334851      49.396983      7.6            5.9031106e-10
      8790  -4132.1652      51.334851      49.396983      7.6            4.7110627e-11
      8800  -4132.1652      51.334851      49.396983      7.6            8.7427743e-10
      8810  -4132.1652      51.334851      49.396983      7.6           -1.1678519e-09
      8820  -4132.1652      51.334851      49.396983      7.6            1.3818213e-09
      8830  -4132.1652      51.334851      49.396983      7.6           -5.1796333e-10
      8840  -4132.1652      51.334851      49.396983      7.6            3.5008216e-10
      8850  -4132.1652      51.334851      49.396983      7.6           -3.2787452e-10
      8860  -4132.1652      51.334851      49.396983      7.6           -2.1537051e-10
      8870  -4132.1652      51.334851      49.396983      7.6            7.1131562e-10
      8880  -4132.1652      51.334851      49.396983      7.6           -1.3798085e-09
      8890  -4132.1652      51.334851      49.396983      7.6            1.5765327e-09
      8900  -4132.1652      51.334851      49.396983      7.6            4.6953859e-10
      8910  -4132.1652      51.334851      49.396983      7.6            4.0775282e-10
      8920  -4132.1652      51.334851      49.396983      7.6           -1.7560555e-09
      8930  -4132.1652      51.334851      49.396983      7.6            2.4154053e-10
      8940  -4132.1652      51.334851      49.396983      7.6            3.8041908e-10
      8950  -4132.1652      51.334851      49.396983      7.6            7.5488392e-10
      8960  -4132.1652      51.334851      49.396983      7.6           -9.1666724e-10
      8970  -4132.1652      51.334851      49.396983      7.6            2.6407432e-10
      8980  -4132.1652      51.334851      49.396983      7.6            7.2285834e-10
      8990  -4132.1652      51.334851      49.396983      7.6            1.119033e-09 
      9000  -4132.1652      51.334851      49.396983      7.6            1.5997542e-09
      9010  -4132.1652      51.334851      49.396983      7.6            7.9472077e-11
      9020  -4132.1652      51.334851      49.396983      7.6            3.3239471e-10
      9030  -4132.1652      51.334851      49.396983      7.6            3.4609476e-10
      9040  -4132.1652      51.334851      49.396983      7.6           -1.4142975e-10
      9050  -4132.1652      51.334851      49.396983      7.6            5.1271972e-11
      9060  -4132.1652      51.334851      49.396983      7.6           -2.4388201e-10
      9070  -4132.1652      51.334851      49.396983      7.6            3.5301225e-10
      9080  -4132.1652      51.334851      49.396983      7.6            2.4570041e-09
      9090  -4132.1652      51.334851      49.396983      7.6            7.0348887e-10
      9100  -4132.1652      51.334851      49.396983      7.6            2.1733828e-10
      9110  -4132.1652      51.334851      49.396983      7.6            5.9078211e-10
      9120  -4132.1652      51.334851      49.396983      7.6            5.484274e-10 
      9130  -4132.1652      51.334851      49.396983      7.6           -8.1900047e-10
      9140  -4132.1652      51.334851      49.396983      7.6            1.1667399e-09
      9150  -4132.1652      51.334851      49.396983      7.6            3.5447897e-10
      9160  -4132.1652      51.334851      49.396983      7.6            3.5996628e-10
      9170  -4132.1652      51.334851      49.396983      7.6            4.3897769e-10
      9180  -4132.1652      51.334851      49.396983      7.6           -9.7755224e-11
      9190  -4132.1652      51.334851      49.396983      7.6           -5.7690359e-11
      9200  -4132.1652      51.334851      49.396983      7.6            3.7318923e-10
      9210  -4132.1652      51.334851      49.396983      7.6           -6.190435e-10 
      9220  -4132.1652      51.334851      49.396983      7.6            6.7480149e-11
      9230  -4132.1652      51.334851      49.396983      7.6            6.7523219e-10
      9240  -4132.1652      51.334851      49.396983      7.6           -1.264155e-09 
      9250  -4132.1652      51.334851      49.396983      7.6            1.6043901e-09
      9260  -4132.1652      51.334851      49.396983      7.6           -1.2709957e-09
      9270  -4132.1652      51.334851      49.396983      7.6           -4.6215504e-10
      9280  -4132.1652      51.334851      49.396983      7.6            1.5474902e-09
      9290  -4132.1652      51.334851      49.396983      7.6           -2.2782091e-10
      9300  -4132.1652      51.334851      49.396983      7.6            5.5266256e-10
      9310  -4132.1652      51.334851      49.396983      7.6            1.1921191e-09
      9320  -4132.1652      51.334851      49.396983      7.6            5.658166e-10 
      9330  -4132.1652      51.334851      49.396983      7.6           -1.1232214e-09
      9340  -4132.1652      51.334851      49.396983      7.6            4.8624832e-10
      9350  -4132.1652      51.334851      49.396983      7.6           -6.4437497e-10
      9360  -4132.1652      51.334851      49.396983      7.6           -8.8526888e-10
      9370  -4132.1652      51.334851      49.396983      7.6            1.2672619e-10
      9380  -4132.1652      51.334851      49.396983      7.6            5.6292909e-10
      9390  -4132.1652      51.334851      49.396983      7.6           -9.9720645e-11
      9400  -4132.1652      51.334851      49.396983      7.6            1.1586911e-09
      9410  -4132.1652      51.334851      49.396983      7.6           -5.3679474e-10
      9420  -4132.1652      51.334851      49.396983      7.6            1.4022241e-09
      9430  -4132.1652      51.334851      49.396983      7.6           -3.6758002e-10
      9440  -4132.1652      51.334851      49.396983      7.6            1.9927567e-10
      9450  -4132.1652      51.334851      49.396983      7.6            5.9952967e-10
      9460  -4132.1652      51.334851      49.396983      7.6           -8.9279529e-10
      9470  -4132.1652      51.334851      49.396983      7.6            1.851022e-09 
      9480  -4132.1652      51.334851      49.396983      7.6           -1.8196467e-09
      9490  -4132.1652      51.334851      49.396983      7.6            1.4938678e-10
      9500  -4132.1652      51.334851      49.396983      7.6            1.9856889e-10
      9510  -4132.1652      51.334851      49.396983      7.6           -4.8675925e-10
      9520  -4132.1652      51.334851      49.396983      7.6           -1.6718719e-10
      9530  -4132.1652      51.334851      49.396983      7.6            7.1081463e-10
      9540  -4132.1652      51.334851      49.396983      7.6            1.7160015e-09
      9550  -4132.1652      51.334851      49.396983      7.6           -8.127815e-10 
      9560  -4132.1652      51.334851      49.396983      7.6            2.8324897e-09
      9570  -4132.1652      51.334851      49.396983      7.6           -6.2512109e-10
      9580  -4132.1652      51.334851      49.396983      7.6            2.576119e-09 
      9590  -4132.1652      51.334851      49.396983      7.6            9.0970688e-10
      9600  -4132.1652      51.334851      49.396983      7.6            3.3891317e-10
      9610  -4132.1652      51.334851      49.396983      7.6            9.2724071e-10
      9620  -4132.1652      51.334851      49.396983      7.6            8.6068495e-10
      9630  -4132.1652      51.334851      49.396983      7.6           -2.8373694e-10
      9640  -4132.1652      51.334851      49.396983      7.6            1.0220902e-10
      9650  -4132.1652      51.334851      49.396983      7.6           -1.0405204e-10
      9660  -4132.1652      51.334851      49.396983      7.6           -3.3590261e-10
      9670  -4132.1652      51.334851      49.396983      7.6            2.5137841e-09
      9680  -4132.1652      51.334851      49.396983      7.6            5.6687876e-10
      9690  -4132.1652      51.334851      49.396983      7.6            3.1287091e-10
      9700  -4132.1652      51.334851      49.396983      7.6            7.9457429e-10
      9710  -4132.1652      51.334851      49.396983      7.6            5.5123859e-11
      9720  -4132.1652      51.334851      49.396983      7.6            8.1690272e-10
      9730  -4132.1652      51.334851      49.396983      7.6            2.6238144e-10
      9740  -4132.1652      51.334851      49.396983      7.6            8.8187378e-10
      9750  -4132.1652      51.334851      49.396983      7.6            4.7478106e-10
      9760  -4132.1652      51.334851      49.396983      7.6            2.7109975e-11
      9770  -4132.1652      51.334851      49.396983      7.6           -1.4140427e-09
      9780  -4132.1652      51.334851      49.396983      7.6            1.590727e-10 
      9790  -4132.1652      51.334851      49.396983      7.6            4.8709401e-10
      9800  -4132.1652      51.334851      49.396983      7.6            3.1216878e-10
      9810  -4132.1652      51.334851      49.396983      7.6            4.8343362e-10
      9820  -4132.1652      51.334851      49.396983      7.6           -8.8422129e-10
      9830  -4132.1652      51.334851      49.396983      7.6            1.8706193e-09
      9840  -4132.1652      51.334851      49.396983      7.6           -1.2172142e-09
      9850  -4132.1652      51.334851      49.396983      7.6            5.5650818e-10
      9860  -4132.1652      51.334851      49.396983      7.6            7.9028286e-10
      9870  -4132.1652      51.334851      49.396983      7.6            8.4743392e-10
      9880  -4132.1652      51.334851      49.396983      7.6           -1.0382965e-09
      9890  -4132.1652      51.334851      49.396983      7.6            8.995991e-10 
      9900  -4132.1652      51.334851      49.396983      7.6           -1.4171968e-09
      9910  -4132.1652      51.334851      49.396983      7.6            7.1033202e-10
      9920  -4132.1652      51.334851      49.396983      7.6           -1.902772e-09 
      9930  -4132.1652      51.334851      49.396983      7.6            9.9370524e-11
      9940  -4132.1652      51.334851      49.396983      7.6           -1.9598821e-10
      9950  -4132.1652      51.334851      49.396983      7.6           -6.6027517e-10
      9960  -4132.1652      51.334851      49.396983      7.6            3.5786427e-09
      9970  -4132.1652      51.334851      49.396983      7.6            3.5226047e-10
      9980  -4132.1652      51.334851      49.396983      7.6            5.4602602e-10
      9990  -4132.1652      51.334851      49.396983      7.6            9.8850905e-10
     10000  -4132.1652      51.334851      49.396983      7.6           -1.165362e-09 
Loop time of 105.467 on 1 procs for 10000 steps with 810 atoms

99.5% CPU use with 1 MPI tasks x no OpenMP threads

Minimization stats:
  Stopping criterion = max iterations
  Energy initial, next-to-last, final = 
     -4057.28315451272  -4132.16518584284  -4132.16518584283
  Force two-norm initial, final = 1018.7622 2.2966252e-11
  Force max component initial, final = 719.84246 1.5868332e-11
  Final line search alpha, max atom move = 1 1.5868332e-11
  Iterations, force evaluations = 10000 18977

MPI task timing breakdown:
Section |  min time  |  avg time  |  max time  |%varavg| %total
---------------------------------------------------------------
Pair    | 104.71     | 104.71     | 104.71     |   0.0 | 99.29
Neigh   | 0.0011223  | 0.0011223  | 0.0011223  |   0.0 |  0.00
Comm    | 0.11544    | 0.11544    | 0.11544    |   0.0 |  0.11
Output  | 0.015573   | 0.015573   | 0.015573   |   0.0 |  0.01
Modify  | 0          | 0          | 0          |   0.0 |  0.00
Other   |            | 0.6202     |            |       |  0.59

Nlocal:            810 ave         810 max         810 min
Histogram: 1 0 0 0 0 0 0 0 0 0
Nghost:           3111 ave        3111 max        3111 min
Histogram: 1 0 0 0 0 0 0 0 0 0
Neighs:              0 ave           0 max           0 min
Histogram: 1 0 0 0 0 0 0 0 0 0
FullNghs:        38340 ave       38340 max       38340 min
Histogram: 1 0 0 0 0 0 0 0 0 0

Total # of neighbors = 38340
Ave neighs/atom = 47.333333
Neighbor list builds = 2
Dangerous builds = 0
write_data      MoSe2_tersoff.data
System init for write_data ...
Total wall time: 0:01:45
