# converting xyz file to data file.

6	 atoms
2	 atom types

0.000000 5.890845	 xlo xhi
0.000000 3.401081	 ylo yhi
-3.80000 3.800000	 zlo zhi

Masses

1	 95.950000
2	 78.960000

Atoms

1	 1	 0.000000	 0.000000	 0.000000
2	 2	 1.963615	 0.000000	 1.732965
3	 2	 1.963615	 0.000000	 -1.732965
4	 1	 2.945422	 1.700540	 0.000000
5	 2	 4.909037	 1.700540	 1.732965
6	 2	 4.909037	 1.700540	 -1.732965
