ITEM: TIMESTEP
46300
ITEM: NUMBER OF ATOMS
810
ITEM: BOX BOUNDS pp pp pp
8.4137701477268123e-01 5.2176227985227342e+01
8.0961581116522285e-01 5.0206599188834083e+01
-1.0000000000000000e+01 1.0000000000000000e+01
ITEM: ATOMS id type x y z xu yu zu
1 1 1.06289 1.04298 0.749081 1.06289 1.04298 0.749081
2 2 3.13783 0.874409 2.13152 3.13783 0.874409 2.13152
3 2 2.91947 1.10834 -1.04372 2.91947 1.10834 -1.04372
4 1 3.9323 2.6772 0.576105 3.9323 2.6772 0.576105
5 2 5.96726 2.50153 2.13908 5.96726 2.50153 2.13908
6 2 5.67172 2.76154 -1.27335 5.67172 2.76154 -1.27335
7 1 6.77966 0.975022 0.193176 6.77966 0.975022 0.193176
8 2 8.74183 0.741416 1.65747 8.74183 0.741416 1.65747
9 2 8.53492 1.23844 -1.51612 8.53492 1.23844 -1.51612
10 1 9.62819 2.56656 0.335462 9.62819 2.56656 0.335462
11 2 11.7419 2.39395 1.64537 11.7419 2.39395 1.64537
12 2 11.2422 2.7302 -1.5687 11.2422 2.7302 -1.5687
13 1 12.4076 0.942443 -0.364532 12.4076 0.942443 -0.364532
14 2 14.2716 0.884494 1.27906 14.2716 0.884494 1.27906
15 2 14.4453 1.02675 -1.96557 14.4453 1.02675 -1.96557
16 1 15.2312 2.61444 -0.16632 15.2312 2.61444 -0.16632
17 2 17.1322 2.50597 1.41724 17.1322 2.50597 1.41724
18 2 17.0554 2.71079 -1.84129 17.0554 2.71079 -1.84129
19 1 18.0649 1.00488 -0.354533 18.0649 1.00488 -0.354533
20 2 20.0599 0.999632 1.29575 20.0599 0.999632 1.29575
21 2 19.948 0.891845 -1.96674 19.948 0.891845 -1.96674
22 1 20.9135 2.65344 -0.427163 20.9135 2.65344 -0.427163
23 2 23.0491 2.67646 0.932693 23.0491 2.67646 0.932693
24 2 22.6354 2.53824 -2.22319 22.6354 2.53824 -2.22319
25 1 23.7865 0.950601 -0.595425 23.7865 0.950601 -0.595425
26 2 25.733 0.974683 0.985528 25.733 0.974683 0.985528
27 2 25.6073 1.22564 -2.33385 25.6073 1.22564 -2.33385
28 1 26.6936 2.71091 -0.632985 26.6936 2.71091 -0.632985
29 2 28.5155 2.50222 1.11549 28.5155 2.50222 1.11549
30 2 28.802 2.90127 -2.03393 28.802 2.90127 -2.03393
31 1 29.5584 1.04786 -0.539201 29.5584 1.04786 -0.539201
32 2 31.3939 0.829123 1.18283 31.3939 0.829123 1.18283
33 2 31.4355 1.26431 -2.05278 31.4355 1.26431 -2.05278
34 1 32.435 2.74461 -0.153912 32.435 2.74461 -0.153912
35 2 34.3729 2.75001 1.35394 34.3729 2.75001 1.35394
36 2 34.1937 2.75747 -1.9852 34.1937 2.75747 -1.9852
37 1 35.2913 1.14833 -0.449168 35.2913 1.14833 -0.449168
38 2 37.0685 1.11087 1.33016 37.0685 1.11087 1.33016
39 2 37.3392 1.17686 -2.07668 37.3392 1.17686 -2.07668
40 1 38.0868 2.69617 -0.233792 38.0868 2.69617 -0.233792
41 2 39.8724 2.9153 1.46016 39.8724 2.9153 1.46016
42 2 40.0768 2.73827 -1.67608 40.0768 2.73827 -1.67608
43 1 40.9962 1.17649 0.0865405 40.9962 1.17649 0.0865405
44 2 42.9181 1.05722 1.69476 42.9181 1.05722 1.69476
45 2 43.0342 1.22538 -1.6047 43.0342 1.22538 -1.6047
46 1 43.8959 2.77181 0.207928 43.8959 2.77181 0.207928
47 2 45.6399 2.71116 1.90744 45.6399 2.71116 1.90744
48 2 45.9074 2.82669 -1.32858 45.9074 2.82669 -1.32858
49 1 46.7039 1.10373 0.213963 46.7039 1.10373 0.213963
50 2 48.4027 1.03086 2.039 48.4027 1.03086 2.039
51 2 48.8387 1.0914 -1.21871 48.8387 1.0914 -1.21871
52 1 49.5886 2.69219 0.585557 49.5886 2.69219 0.585557
53 2 51.3642 2.62975 2.26986 51.3642 2.62975 2.26986
54 2 51.5588 2.86875 -0.910912 51.5588 2.86875 -0.910912
55 1 1.14118 4.41765 0.911551 1.14118 4.41765 0.911551
56 2 3.10346 4.10565 2.41215 3.10346 4.10565 2.41215
57 2 2.89703 4.46565 -0.824736 2.89703 4.46565 -0.824736
58 1 3.89466 5.93936 0.914999 3.89466 5.93936 0.914999
59 2 6.05633 5.85435 2.29901 6.05633 5.85435 2.29901
60 2 5.71776 6.0199 -0.894175 5.71776 6.0199 -0.894175
61 1 6.78547 4.17805 0.477612 6.78547 4.17805 0.477612
62 2 8.79008 4.13971 2.07962 8.79008 4.13971 2.07962
63 2 8.61223 4.18727 -1.26086 8.61223 4.18727 -1.26086
64 1 9.60394 5.83377 0.474038 9.60394 5.83377 0.474038
65 2 11.5809 5.75255 1.84087 11.5809 5.75255 1.84087
66 2 11.2635 5.98831 -1.4054 11.2635 5.98831 -1.4054
67 1 12.4239 4.24512 0.010599 12.4239 4.24512 0.010599
68 2 14.4142 4.3119 1.52924 14.4142 4.3119 1.52924
69 2 14.1775 4.19263 -1.71052 14.1775 4.19263 -1.71052
70 1 15.2817 5.91892 -0.280133 15.2817 5.91892 -0.280133
71 2 17.0947 6.05261 1.41342 17.0947 6.05261 1.41342
72 2 17.1203 5.78996 -1.9088 17.1203 5.78996 -1.9088
73 1 18.0394 4.27231 -0.0580794 18.0394 4.27231 -0.0580794
74 2 20.2052 4.21819 1.29822 20.2052 4.21819 1.29822
75 2 19.7701 4.20007 -1.91838 19.7701 4.20007 -1.91838
76 1 20.9444 5.86904 -0.353094 20.9444 5.86904 -0.353094
77 2 23.0496 5.80104 1.07452 23.0496 5.80104 1.07452
78 2 22.6148 5.85462 -2.28816 22.6148 5.85462 -2.28816
79 1 23.8398 4.28776 -0.843963 23.8398 4.28776 -0.843963
80 2 25.5523 4.1976 1.09294 25.5523 4.1976 1.09294
81 2 26.0495 4.47216 -2.23457 26.0495 4.47216 -2.23457
82 1 26.6203 5.89485 -0.285123 26.6203 5.89485 -0.285123
83 2 28.5006 5.95478 1.33679 28.5006 5.95478 1.33679
84 2 28.7134 6.0387 -1.81737 28.7134 6.0387 -1.81737
85 1 29.6253 4.35548 -0.189796 29.6253 4.35548 -0.189796
86 2 31.4519 4.45914 1.44793 31.4519 4.45914 1.44793
87 2 31.4902 4.46558 -1.86601 31.4902 4.46558 -1.86601
88 1 32.3742 6.10948 -0.249408 32.3742 6.10948 -0.249408
89 2 34.2529 5.88811 1.37062 34.2529 5.88811 1.37062
90 2 34.3689 6.15007 -1.82262 34.3689 6.15007 -1.82262
91 1 35.1956 4.38677 -0.378015 35.1956 4.38677 -0.378015
92 2 36.936 4.3149 1.42187 36.936 4.3149 1.42187
93 2 37.254 4.37993 -1.89902 37.254 4.37993 -1.89902
94 1 38.1038 6.07064 -0.0459852 38.1038 6.07064 -0.0459852
95 2 39.9566 5.88672 1.71494 39.9566 5.88672 1.71494
96 2 40.0272 6.41632 -1.58471 40.0272 6.41632 -1.58471
97 1 40.9231 4.43096 -0.142559 40.9231 4.43096 -0.142559
98 2 42.7364 4.37007 1.77229 42.7364 4.37007 1.77229
99 2 43.0213 4.30159 -1.5199 43.0213 4.30159 -1.5199
100 1 43.7604 6.00284 0.195919 43.7604 6.00284 0.195919
101 2 45.5054 5.94455 2.09387 45.5054 5.94455 2.09387
102 2 45.8725 6.15339 -1.16447 45.8725 6.15339 -1.16447
103 1 46.7308 4.46477 0.528398 46.7308 4.46477 0.528398
104 2 48.5578 4.42647 2.23309 48.5578 4.42647 2.23309
105 2 48.7833 4.40754 -1.02616 48.7833 4.40754 -1.02616
106 1 49.5945 6.04166 0.643634 49.5945 6.04166 0.643634
107 2 51.4549 5.98283 2.41378 51.4549 5.98283 2.41378
108 2 51.5707 5.96827 -0.864006 51.5707 5.96827 -0.864006
109 1 1.09597 7.6037 0.788557 1.09597 7.6037 0.788557
110 2 2.81058 7.55783 2.52423 2.81058 7.55783 2.52423
111 2 3.0819 7.66608 -0.761141 3.0819 7.66608 -0.761141
112 1 3.91527 9.20736 0.927323 3.91527 9.20736 0.927323
113 2 6.01641 9.13838 2.4513 6.01641 9.13838 2.4513
114 2 5.71204 9.28429 -0.854399 5.71204 9.28429 -0.854399
115 1 6.82226 7.57847 0.67622 6.82226 7.57847 0.67622
116 2 8.88768 7.52169 2.07347 8.88768 7.52169 2.07347
117 2 8.55854 7.52117 -1.16883 8.55854 7.52117 -1.16883
118 1 9.63176 9.15768 0.356037 9.63176 9.15768 0.356037
119 2 11.5447 9.14762 1.8943 11.5447 9.14762 1.8943
120 2 11.4263 9.19516 -1.45264 11.4263 9.19516 -1.45264
121 1 12.4864 7.54007 0.153595 12.4864 7.54007 0.153595
122 2 14.5605 7.43564 1.52033 14.5605 7.43564 1.52033
123 2 14.1935 7.61535 -1.64939 14.1935 7.61535 -1.64939
124 1 15.3373 9.2503 -0.121085 15.3373 9.2503 -0.121085
125 2 17.369 9.32618 1.31132 17.369 9.32618 1.31132
126 2 16.9998 9.01291 -1.92187 16.9998 9.01291 -1.92187
127 1 18.1277 7.51007 -0.254678 18.1277 7.51007 -0.254678
128 2 20.1751 7.64733 1.22871 20.1751 7.64733 1.22871
129 2 19.7974 7.38425 -2.06508 19.7974 7.38425 -2.06508
130 1 21.0097 9.06644 -0.642172 21.0097 9.06644 -0.642172
131 2 22.7941 9.01777 1.08951 22.7941 9.01777 1.08951
132 2 23.0127 9.20157 -2.21422 23.0127 9.20157 -2.21422
133 1 23.8087 7.59926 -0.558096 23.8087 7.59926 -0.558096
134 2 25.4509 7.57019 1.34969 25.4509 7.57019 1.34969
135 2 25.9421 7.64583 -1.90369 25.9421 7.64583 -1.90369
136 1 26.7301 9.22495 -0.137163 26.7301 9.22495 -0.137163
137 2 28.4726 9.0846 1.6182 28.4726 9.0846 1.6182
138 2 28.7609 9.52905 -1.62617 28.7609 9.52905 -1.62617
139 1 29.5762 7.56639 -0.0467225 29.5762 7.56639 -0.0467225
140 2 31.6344 7.69597 1.47432 31.6344 7.69597 1.47432
141 2 31.4009 7.75165 -1.71529 31.4009 7.75165 -1.71529
142 1 32.3725 9.36301 -0.0870554 32.3725 9.36301 -0.0870554
143 2 34.2614 9.13242 1.64809 34.2614 9.13242 1.64809
144 2 34.3409 9.3379 -1.63079 34.3409 9.3379 -1.63079
145 1 35.2947 7.70461 -0.0383551 35.2947 7.70461 -0.0383551
146 2 37.003 7.32361 1.79895 37.003 7.32361 1.79895
147 2 37.3002 7.88822 -1.42312 37.3002 7.88822 -1.42312
148 1 38.0557 9.26331 0.533821 38.0557 9.26331 0.533821
149 2 39.9207 9.12896 2.1372 39.9207 9.12896 2.1372
150 2 39.8957 9.41026 -1.09763 39.8957 9.41026 -1.09763
151 1 40.9171 7.68882 0.279228 40.9171 7.68882 0.279228
152 2 42.8795 7.48827 1.93145 42.8795 7.48827 1.93145
153 2 42.8009 7.82832 -1.32336 42.8009 7.82832 -1.32336
154 1 43.7996 9.28823 0.466525 43.7996 9.28823 0.466525
155 2 45.4529 9.09116 2.38737 45.4529 9.09116 2.38737
156 2 45.8303 9.43469 -0.860426 45.8303 9.43469 -0.860426
157 1 46.7231 7.6655 0.697826 46.7231 7.6655 0.697826
158 2 48.5644 7.69424 2.32871 48.5644 7.69424 2.32871
159 2 48.6701 7.80649 -0.945095 48.6701 7.80649 -0.945095
160 1 49.6251 9.28716 0.75285 49.6251 9.28716 0.75285
161 2 51.269 8.93341 2.52468 51.269 8.93341 2.52468
162 2 51.5585 9.38219 -0.690416 51.5585 9.38219 -0.690416
163 1 1.04155 10.927 1.28313 1.04155 10.927 1.28313
164 2 3.16402 10.7469 2.68089 3.16402 10.7469 2.68089
165 2 2.74015 10.8125 -0.536769 2.74015 10.8125 -0.536769
166 1 4.0294 12.4488 0.987044 4.0294 12.4488 0.987044
167 2 6.08621 12.4815 2.39011 6.08621 12.4815 2.39011
168 2 5.61727 12.4556 -0.868622 5.61727 12.4556 -0.868622
169 1 6.83454 10.7806 0.742135 6.83454 10.7806 0.742135
170 2 8.93381 10.8314 2.06279 8.93381 10.8314 2.06279
171 2 8.35281 10.7941 -1.13326 8.35281 10.7941 -1.13326
172 1 9.55147 12.4508 0.311435 9.55147 12.4508 0.311435
173 2 11.7381 12.6145 1.67855 11.7381 12.6145 1.67855
174 2 11.3626 12.2907 -1.51234 11.3626 12.2907 -1.51234
175 1 12.424 10.7832 0.221234 12.424 10.7832 0.221234
176 2 14.5988 10.9251 1.52814 14.5988 10.9251 1.52814
177 2 14.0322 10.7365 -1.65755 14.0322 10.7365 -1.65755
178 1 15.2663 12.4718 -0.275675 15.2663 12.4718 -0.275675
179 2 17.2776 12.5679 1.17622 17.2776 12.5679 1.17622
180 2 16.9925 12.2884 -2.13608 16.9925 12.2884 -2.13608
181 1 18.0701 10.7939 -0.527263 18.0701 10.7939 -0.527263
182 2 20.2193 10.7423 1.06956 20.2193 10.7423 1.06956
183 2 20.0101 10.7323 -2.27518 20.0101 10.7323 -2.27518
184 1 21.0571 12.401 -0.708386 21.0571 12.401 -0.708386
185 2 22.9134 12.4658 1.10497 22.9134 12.4658 1.10497
186 2 23.0738 12.4602 -2.13401 23.0738 12.4602 -2.13401
187 1 23.8727 10.7488 -0.416192 23.8727 10.7488 -0.416192
188 2 25.564 10.8734 1.40349 25.564 10.8734 1.40349
189 2 25.8792 10.8112 -1.82261 25.8792 10.8112 -1.82261
190 1 26.688 12.4928 -0.0605687 26.688 12.4928 -0.0605687
191 2 28.3825 12.4702 1.8278 28.3825 12.4702 1.8278
192 2 28.7302 12.5748 -1.46529 28.7302 12.5748 -1.46529
193 1 29.4794 10.9024 0.337374 29.4794 10.9024 0.337374
194 2 31.6022 10.8503 1.72564 31.6022 10.8503 1.72564
195 2 31.4409 11.1852 -1.48614 31.4409 11.1852 -1.48614
196 1 32.3989 12.6298 0.250404 32.3989 12.6298 0.250404
197 2 34.3125 12.5342 1.84768 34.3125 12.5342 1.84768
198 2 34.2632 12.6474 -1.40031 34.2632 12.6474 -1.40031
199 1 35.2774 11.0289 0.108513 35.2774 11.0289 0.108513
200 2 36.8517 10.8147 1.9926 36.8517 10.8147 1.9926
201 2 37.3499 11.0308 -1.26862 37.3499 11.0308 -1.26862
202 1 37.9853 12.597 0.573766 37.9853 12.597 0.573766
203 2 39.7896 12.5225 2.31979 39.7896 12.5225 2.31979
204 2 40.0456 12.7429 -1.02646 40.0456 12.7429 -1.02646
205 1 40.8876 10.8746 0.627474 40.8876 10.8746 0.627474
206 2 42.7506 10.7378 2.3297 42.7506 10.7378 2.3297
207 2 42.8244 11.0903 -0.944505 42.8244 11.0903 -0.944505
208 1 43.7994 12.5818 0.901982 43.7994 12.5818 0.901982
209 2 45.588 12.6496 2.61445 45.588 12.6496 2.61445
210 2 45.9057 12.5549 -0.682444 45.9057 12.5549 -0.682444
211 1 46.6582 10.8403 1.0742 46.6582 10.8403 1.0742
212 2 48.6756 10.7316 2.60293 48.6756 10.7316 2.60293
213 2 48.5971 11.1546 -0.563307 48.5971 11.1546 -0.563307
214 1 49.4971 12.5735 1.21523 49.4971 12.5735 1.21523
215 2 51.3589 12.5801 2.87274 51.3589 12.5801 2.87274
216 2 51.4988 12.5799 -0.41248 51.4988 12.5799 -0.41248
217 1 1.14969 14.1889 1.2751 1.14969 14.1889 1.2751
218 2 3.25233 14.3387 2.61781 3.25233 14.3387 2.61781
219 2 2.91311 13.9976 -0.657804 2.91311 13.9976 -0.657804
220 1 3.88163 15.7861 0.76211 3.88163 15.7861 0.76211
221 2 5.9547 15.7977 2.20357 5.9547 15.7977 2.20357
222 2 5.5315 15.7405 -1.06737 5.5315 15.7405 -1.06737
223 1 6.707 14.2055 0.485068 6.707 14.2055 0.485068
224 2 8.79943 14.1809 1.97921 8.79943 14.1809 1.97921
225 2 8.37137 14.1055 -1.23346 8.37137 14.1055 -1.23346
226 1 9.56774 15.6931 0.167251 9.56774 15.6931 0.167251
227 2 11.6721 15.8876 1.53334 11.6721 15.8876 1.53334
228 2 11.3094 15.572 -1.68965 11.3094 15.572 -1.68965
229 1 12.4249 14.1396 -0.174235 12.4249 14.1396 -0.174235
230 2 14.4116 14.3671 1.28331 14.4116 14.3671 1.28331
231 2 14.1547 13.9354 -1.99452 14.1547 13.9354 -1.99452
232 1 15.2148 15.7195 -0.694482 15.2148 15.7195 -0.694482
233 2 17.2339 15.9213 0.883431 17.2339 15.9213 0.883431
234 2 17.0613 15.4846 -2.42725 17.0613 15.4846 -2.42725
235 1 18.1036 14.0685 -0.630743 18.1036 14.0685 -0.630743
236 2 20.0901 14.0286 0.89826 20.0901 14.0286 0.89826
237 2 20.0732 13.9896 -2.29235 20.0732 13.9896 -2.29235
238 1 20.9981 15.7751 -0.735437 20.9981 15.7751 -0.735437
239 2 22.7126 15.8042 1.07985 22.7126 15.8042 1.07985
240 2 23.0906 15.8757 -2.13436 23.0906 15.8757 -2.13436
241 1 23.7998 14.1825 -0.492073 23.7998 14.1825 -0.492073
242 2 25.5632 14.3315 1.34748 25.5632 14.3315 1.34748
243 2 25.8757 14.0971 -1.89528 25.8757 14.0971 -1.89528
244 1 26.6759 15.7993 -0.22877 26.6759 15.7993 -0.22877
245 2 28.3988 15.8696 1.6435 28.3988 15.8696 1.6435
246 2 28.7393 15.6745 -1.63001 28.7393 15.6745 -1.63001
247 1 29.5192 14.1459 0.233675 29.5192 14.1459 0.233675
248 2 31.308 14.2432 1.87031 31.308 14.2432 1.87031
249 2 31.353 14.2704 -1.41198 31.353 14.2704 -1.41198
250 1 32.3159 15.96 0.239987 32.3159 15.96 0.239987
251 2 34.1159 15.8662 1.9238 34.1159 15.8662 1.9238
252 2 34.4244 15.9022 -1.29642 34.4244 15.9022 -1.29642
253 1 35.285 14.24 0.37385 35.285 14.24 0.37385
254 2 36.9326 14.2286 2.18535 36.9326 14.2286 2.18535
255 2 37.2701 14.3136 -1.13379 37.2701 14.3136 -1.13379
256 1 38.2057 15.8304 0.668319 38.2057 15.8304 0.668319
257 2 39.9391 15.7704 2.45267 39.9391 15.7704 2.45267
258 2 40.1247 15.9708 -0.887037 40.1247 15.9708 -0.887037
259 1 40.9441 14.2451 0.764066 40.9441 14.2451 0.764066
260 2 42.6164 14.1656 2.51409 42.6164 14.1656 2.51409
261 2 43.0018 14.3258 -0.721146 43.0018 14.3258 -0.721146
262 1 43.7833 15.8119 1.2061 43.7833 15.8119 1.2061
263 2 45.7653 15.7486 2.8101 45.7653 15.7486 2.8101
264 2 45.7122 15.9274 -0.474755 45.7122 15.9274 -0.474755
265 1 46.718 14.2266 1.0594 46.718 14.2266 1.0594
266 2 48.4195 14.2967 2.7465 48.4195 14.2967 2.7465
267 2 48.6153 14.1978 -0.468963 48.6153 14.1978 -0.468963
268 1 49.4763 15.809 1.11275 49.4763 15.809 1.11275
269 2 51.3642 15.9881 2.71877 51.3642 15.9881 2.71877
270 2 51.4923 15.8082 -0.461476 51.4923 15.8082 -0.461476
271 1 1.05681 17.5523 0.978032 1.05681 17.5523 0.978032
272 2 3.07876 17.551 2.38397 3.07876 17.551 2.38397
273 2 2.74593 17.3177 -0.857621 2.74593 17.3177 -0.857621
274 1 3.936 19.0154 0.404142 3.936 19.0154 0.404142
275 2 5.88576 19.2854 1.85732 5.88576 19.2854 1.85732
276 2 5.65038 18.7576 -1.4504 5.65038 18.7576 -1.4504
277 1 6.72496 17.3214 0.351448 6.72496 17.3214 0.351448
278 2 8.65406 17.5135 1.80199 8.65406 17.5135 1.80199
279 2 8.53143 17.3465 -1.44275 8.53143 17.3465 -1.44275
280 1 9.63501 19.1247 -0.017518 9.63501 19.1247 -0.017518
281 2 11.6131 19.0161 1.28763 11.6131 19.0161 1.28763
282 2 11.3133 19.087 -1.78872 11.3133 19.087 -1.78872
283 1 12.3624 17.3691 -0.350864 12.3624 17.3691 -0.350864
284 2 14.6309 17.3998 0.991521 14.6309 17.3998 0.991521
285 2 13.9945 17.3677 -2.16123 13.9945 17.3677 -2.16123
286 1 15.269 19.0055 -0.883554 15.269 19.0055 -0.883554
287 2 17.1656 18.9611 0.591399 17.1656 18.9611 0.591399
288 2 17.0764 18.9749 -2.59832 17.0764 18.9749 -2.59832
289 1 18.1066 17.2823 -1.10375 18.1066 17.2823 -1.10375
290 2 20.021 17.4136 0.799755 20.021 17.4136 0.799755
291 2 20.1856 17.3789 -2.50419 20.1856 17.3789 -2.50419
292 1 20.88 19.108 -0.859757 20.88 19.108 -0.859757
293 2 22.683 19.2337 0.932308 22.683 19.2337 0.932308
294 2 23.0526 19.0832 -2.2477 23.0526 19.0832 -2.2477
295 1 23.8201 17.4974 -0.361585 23.8201 17.4974 -0.361585
296 2 25.6049 17.3485 1.42534 25.6049 17.3485 1.42534
297 2 25.7407 17.4119 -1.85602 25.7407 17.4119 -1.85602
298 1 26.6334 19.109 -0.12668 26.6334 19.109 -0.12668
299 2 28.3351 19.1892 1.57978 28.3351 19.1892 1.57978
300 2 28.6193 19.0064 -1.60201 28.6193 19.0064 -1.60201
301 1 29.466 17.5013 0.166779 29.466 17.5013 0.166779
302 2 31.2535 17.4736 1.87849 31.2535 17.4736 1.87849
303 2 31.3975 17.5366 -1.37979 31.3975 17.5366 -1.37979
304 1 32.3789 19.1084 0.252008 32.3789 19.1084 0.252008
305 2 34.172 18.9969 1.97666 34.172 18.9969 1.97666
306 2 34.392 19.3296 -1.23759 34.392 19.3296 -1.23759
307 1 35.3184 17.4846 0.263869 35.3184 17.4846 0.263869
308 2 36.9389 17.3448 2.18774 36.9389 17.3448 2.18774
309 2 37.4762 17.5665 -0.909508 37.4762 17.5665 -0.909508
310 1 38.0363 19.1145 0.941816 38.0363 19.1145 0.941816
311 2 39.9367 19.3153 2.51139 39.9367 19.3153 2.51139
312 2 39.9541 19.1933 -0.704267 39.9541 19.1933 -0.704267
313 1 40.9324 17.5253 0.949104 40.9324 17.5253 0.949104
314 2 42.7164 17.4823 2.71298 42.7164 17.4823 2.71298
315 2 43.1713 17.4609 -0.506913 43.1713 17.4609 -0.506913
316 1 43.8216 19.1256 1.10019 43.8216 19.1256 1.10019
317 2 45.7891 19.2436 2.63024 45.7891 19.2436 2.63024
318 2 45.6189 19.0925 -0.595155 45.6189 19.0925 -0.595155
319 1 46.6808 17.5178 1.10032 46.6808 17.5178 1.10032
320 2 48.6102 17.5713 2.65661 48.6102 17.5713 2.65661
321 2 48.5253 17.3782 -0.533658 48.5253 17.3782 -0.533658
322 1 49.52 19.1597 0.963743 49.52 19.1597 0.963743
323 2 51.6255 19.394 2.32032 51.6255 19.394 2.32032
324 2 51.2261 18.8105 -0.862416 51.2261 18.8105 -0.862416
325 1 1.02661 20.7464 0.344445 1.02661 20.7464 0.344445
326 2 3.06146 20.9424 1.83644 3.06146 20.9424 1.83644
327 2 2.85459 20.5553 -1.39699 2.85459 20.5553 -1.39699
328 1 3.92187 22.3246 -0.0855709 3.92187 22.3246 -0.0855709
329 2 5.91209 22.5112 1.4483 5.91209 22.5112 1.4483
330 2 5.69891 22.1745 -1.80025 5.69891 22.1745 -1.80025
331 1 6.80887 20.5883 -0.0906481 6.80887 20.5883 -0.0906481
332 2 8.59568 20.8123 1.61106 8.59568 20.8123 1.61106
333 2 8.67312 20.6446 -1.73961 8.67312 20.6446 -1.73961
334 1 9.62763 22.3496 -0.130754 9.62763 22.3496 -0.130754
335 2 11.5807 22.4342 1.33276 11.5807 22.4342 1.33276
336 2 11.3907 22.1935 -1.91692 11.3907 22.1935 -1.91692
337 1 12.501 20.7128 -0.232644 12.501 20.7128 -0.232644
338 2 14.5968 20.6033 0.979012 14.5968 20.6033 0.979012
339 2 14.2201 20.767 -2.26095 14.2201 20.767 -2.26095
340 1 15.4305 22.388 -0.680642 15.4305 22.388 -0.680642
341 2 17.4926 22.2969 0.740225 17.4926 22.2969 0.740225
342 2 17.0713 22.5132 -2.43077 17.0713 22.5132 -2.43077
343 1 18.1397 20.6497 -1.03223 18.1397 20.6497 -1.03223
344 2 19.9212 20.6925 0.775098 19.9212 20.6925 0.775098
345 2 20.0597 20.7182 -2.53111 20.0597 20.7182 -2.53111
346 1 20.9564 22.3495 -0.815637 20.9564 22.3495 -0.815637
347 2 22.9103 22.4587 0.89617 22.9103 22.4587 0.89617
348 2 22.9454 22.3622 -2.35211 22.9454 22.3622 -2.35211
349 1 23.7504 20.7551 -0.712715 23.7504 20.7551 -0.712715
350 2 25.336 20.8332 1.31269 25.336 20.8332 1.31269
351 2 25.9148 20.7566 -1.9839 25.9148 20.7566 -1.9839
352 1 26.5586 22.4143 -0.23159 26.5586 22.4143 -0.23159
353 2 28.3581 22.3936 1.53589 28.3581 22.3936 1.53589
354 2 28.5754 22.3939 -1.76662 28.5754 22.3939 -1.76662
355 1 29.5068 20.7118 -0.0712079 29.5068 20.7118 -0.0712079
356 2 31.1735 20.7261 1.7746 31.1735 20.7261 1.7746
357 2 31.5504 20.7674 -1.47166 31.5504 20.7674 -1.47166
358 1 32.35 22.323 0.29079 32.35 22.323 0.29079
359 2 34.0368 22.2558 2.09217 34.0368 22.2558 2.09217
360 2 34.517 22.3675 -1.12157 34.517 22.3675 -1.12157
361 1 35.2617 20.7913 0.643484 35.2617 20.7913 0.643484
362 2 37.0489 20.7502 2.50225 37.0489 20.7502 2.50225
363 2 37.3461 20.7668 -0.721718 37.3461 20.7668 -0.721718
364 1 38.1812 22.4177 0.969384 38.1812 22.4177 0.969384
365 2 40.2131 22.536 2.46471 40.2131 22.536 2.46471
366 2 39.9828 22.4167 -0.752754 39.9828 22.4167 -0.752754
367 1 40.9289 20.7943 0.871059 40.9289 20.7943 0.871059
368 2 42.9032 21.0389 2.57705 42.9032 21.0389 2.57705
369 2 42.7891 20.7952 -0.724926 42.7891 20.7952 -0.724926
370 1 43.7776 22.4884 0.846508 43.7776 22.4884 0.846508
371 2 45.6447 22.605 2.47937 45.6447 22.605 2.47937
372 2 45.7106 22.3479 -0.861092 45.7106 22.3479 -0.861092
373 1 46.6837 20.8398 1.00554 46.6837 20.8398 1.00554
374 2 48.6316 20.948 2.58923 48.6316 20.948 2.58923
375 2 48.4881 20.6382 -0.770116 48.4881 20.6382 -0.770116
376 1 49.436 22.4346 0.782219 49.436 22.4346 0.782219
377 2 51.5803 22.2937 1.99858 51.5803 22.2937 1.99858
378 2 51.2105 22.3287 -1.10706 51.2105 22.3287 -1.10706
379 1 1.02405 24.0118 0.359579 1.02405 24.0118 0.359579
380 2 3.17819 24.2001 1.47149 3.17819 24.2001 1.47149
381 2 2.69189 23.8351 -1.63193 2.69189 23.8351 -1.63193
382 1 3.9204 25.7482 -0.391014 3.9204 25.7482 -0.391014
383 2 5.82361 25.8707 1.16521 5.82361 25.8707 1.16521
384 2 5.71194 25.7284 -2.16204 5.71194 25.7284 -2.16204
385 1 6.67612 24.0509 -0.438339 6.67612 24.0509 -0.438339
386 2 8.65888 24.2767 1.23556 8.65888 24.2767 1.23556
387 2 8.59368 23.8009 -2.00844 8.59368 23.8009 -2.00844
388 1 9.58473 25.6338 -0.574562 9.58473 25.6338 -0.574562
389 2 11.4726 25.7914 0.98072 11.4726 25.7914 0.98072
390 2 11.5019 25.4514 -2.33015 11.5019 25.4514 -2.33015
391 1 12.5186 23.9627 -0.542037 12.5186 23.9627 -0.542037
392 2 14.6744 24.1697 0.916148 14.6744 24.1697 0.916148
393 2 14.2889 23.874 -2.32964 14.2889 23.874 -2.32964
394 1 15.374 25.6325 -0.849107 15.374 25.6325 -0.849107
395 2 17.3594 25.6659 0.727898 17.3594 25.6659 0.727898
396 2 17.2589 25.5712 -2.48304 17.2589 25.5712 -2.48304
397 1 18.2788 23.9191 -0.852699 18.2788 23.9191 -0.852699
398 2 20.139 24.0011 0.785208 20.139 24.0011 0.785208
399 2 20.2358 24.0178 -2.38311 20.2358 24.0178 -2.38311
400 1 21.0619 25.7692 -0.714982 21.0619 25.7692 -0.714982
401 2 22.9374 25.7619 0.889779 22.9374 25.7619 0.889779
402 2 22.8926 25.6497 -2.36166 22.8926 25.6497 -2.36166
403 1 23.8882 24.1105 -0.736405 23.8882 24.1105 -0.736405
404 2 25.5376 24.1318 1.19303 25.5376 24.1318 1.19303
405 2 25.8705 23.9673 -2.09932 25.8705 23.9673 -2.09932
406 1 26.6277 25.6405 -0.423194 26.6277 25.6405 -0.423194
407 2 28.3061 25.6567 1.46362 28.3061 25.6567 1.46362
408 2 28.7769 25.6584 -1.73115 28.7769 25.6584 -1.73115
409 1 29.4733 24.0371 -0.0349155 29.4733 24.0371 -0.0349155
410 2 31.3446 24.128 1.8058 31.3446 24.128 1.8058
411 2 31.5482 24.0601 -1.46721 31.5482 24.0601 -1.46721
412 1 32.3742 25.6854 0.258526 32.3742 25.6854 0.258526
413 2 34.2736 25.7778 2.04637 34.2736 25.7778 2.04637
414 2 34.3919 25.5575 -1.16028 34.3919 25.5575 -1.16028
415 1 35.2266 23.9523 0.616225 35.2266 23.9523 0.616225
416 2 37.0918 24.2532 2.27848 37.0918 24.2532 2.27848
417 2 37.1818 23.8888 -0.912915 37.1818 23.8888 -0.912915
418 1 38.0659 25.6868 0.553075 38.0659 25.6868 0.553075
419 2 39.9589 25.956 2.06749 39.9589 25.956 2.06749
420 2 39.9594 25.4232 -1.1263 39.9594 25.4232 -1.1263
421 1 41.0305 24.1513 0.698542 41.0305 24.1513 0.698542
422 2 42.898 24.317 2.26201 42.898 24.317 2.26201
423 2 42.8464 23.9193 -0.933862 42.8464 23.9193 -0.933862
424 1 43.7096 25.8267 0.484557 43.7096 25.8267 0.484557
425 2 45.5302 25.9313 2.20679 45.5302 25.9313 2.20679
426 2 45.7677 25.5728 -1.03843 45.7677 25.5728 -1.03843
427 1 46.6335 24.1667 0.821193 46.6335 24.1667 0.821193
428 2 48.5515 24.4483 2.25644 48.5515 24.4483 2.25644
429 2 48.3747 23.848 -0.869733 48.3747 23.848 -0.869733
430 1 49.482 25.7234 0.402578 49.482 25.7234 0.402578
431 2 51.595 26.0144 1.85244 51.595 26.0144 1.85244
432 2 51.2635 25.4709 -1.38196 51.2635 25.4709 -1.38196
433 1 0.986745 27.3296 -0.13372 0.986745 27.3296 -0.13372
434 2 3.11314 27.2624 1.38482 3.11314 27.2624 1.38482
435 2 2.81142 27.4014 -1.87688 2.81142 27.4014 -1.87688
436 1 3.94731 29.0727 -0.271847 3.94731 29.0727 -0.271847
437 2 6.02373 28.8579 1.13466 6.02373 28.8579 1.13466
438 2 5.73902 29.0681 -2.09233 5.73902 29.0681 -2.09233
439 1 6.77935 27.3653 -0.650742 6.77935 27.3653 -0.650742
440 2 8.75416 27.3819 1.00636 8.75416 27.3819 1.00636
441 2 8.74768 27.3199 -2.29962 8.74768 27.3199 -2.29962
442 1 9.72003 29.0084 -0.788541 9.72003 29.0084 -0.788541
443 2 11.7516 28.9659 0.770621 11.7516 28.9659 0.770621
444 2 11.5779 28.8736 -2.45861 11.5779 28.8736 -2.45861
445 1 12.5182 27.2817 -0.792686 12.5182 27.2817 -0.792686
446 2 14.6036 27.3669 0.737322 14.6036 27.3669 0.737322
447 2 14.3518 27.0662 -2.53697 14.3518 27.0662 -2.53697
448 1 15.401 28.929 -1.10806 15.401 28.929 -1.10806
449 2 17.3222 29.1014 0.528043 17.3222 29.1014 0.528043
450 2 17.3652 28.7449 -2.76456 17.3652 28.7449 -2.76456
451 1 18.1799 27.3395 -0.895553 18.1799 27.3395 -0.895553
452 2 19.9864 27.6657 0.677318 19.9864 27.6657 0.677318
453 2 20.0707 27.1116 -2.49698 20.0707 27.1116 -2.49698
454 1 20.9807 29.0385 -1.05579 20.9807 29.0385 -1.05579
455 2 22.7409 28.9111 0.766323 22.7409 28.9111 0.766323
456 2 23.0472 29.0327 -2.45145 23.0472 29.0327 -2.45145
457 1 23.8214 27.334 -0.791169 23.8214 27.334 -0.791169
458 2 25.5288 27.3054 1.14179 25.5288 27.3054 1.14179
459 2 26.0667 27.345 -2.12566 26.0667 27.345 -2.12566
460 1 26.6428 28.9708 -0.366668 26.6428 28.9708 -0.366668
461 2 28.4955 28.9837 1.47553 28.4955 28.9837 1.47553
462 2 28.6996 28.7701 -1.79518 28.6996 28.7701 -1.79518
463 1 29.4697 27.3118 -0.00206831 29.4697 27.3118 -0.00206831
464 2 31.3272 27.4624 1.68826 31.3272 27.4624 1.68826
465 2 31.6247 27.2433 -1.56329 31.6247 27.2433 -1.56329
466 1 32.4077 29.0329 0.0533854 32.4077 29.0329 0.0533854
467 2 34.1747 29.1277 1.80329 34.1747 29.1277 1.80329
468 2 34.3292 28.7316 -1.45163 34.3292 28.7316 -1.45163
469 1 35.2424 27.3519 0.397052 35.2424 27.3519 0.397052
470 2 37.1312 27.5243 1.99454 37.1312 27.5243 1.99454
471 2 37.0932 27.0739 -1.29091 37.0932 27.0739 -1.29091
472 1 38.101 28.96 0.142597 38.101 28.96 0.142597
473 2 40.0464 29.1701 1.64417 40.0464 29.1701 1.64417
474 2 39.8571 28.8425 -1.5778 39.8571 28.8425 -1.5778
475 1 40.8877 27.3344 0.205967 40.8877 27.3344 0.205967
476 2 42.7748 27.6994 1.82091 42.7748 27.6994 1.82091
477 2 42.7551 27.243 -1.38381 42.7551 27.243 -1.38381
478 1 43.7417 29.1528 -0.0402711 43.7417 29.1528 -0.0402711
479 2 45.6483 29.424 1.72081 45.6483 29.424 1.72081
480 2 45.7322 28.7418 -1.51251 45.7322 28.7418 -1.51251
481 1 46.6052 27.4201 0.448856 46.6052 27.4201 0.448856
482 2 48.6886 27.4826 1.94612 48.6886 27.4826 1.94612
483 2 48.4718 27.2037 -1.33329 48.4718 27.2037 -1.33329
484 1 49.4748 29.0128 0.120832 49.4748 29.0128 0.120832
485 2 51.4984 28.897 1.65664 51.4984 28.897 1.65664
486 2 51.2329 29.0374 -1.59266 51.2329 29.0374 -1.59266
487 1 1.13607 30.5526 0.0276941 1.13607 30.5526 0.0276941
488 2 3.1731 30.7849 1.44336 3.1731 30.7849 1.44336
489 2 2.85385 30.6813 -1.75364 2.85385 30.6813 -1.75364
490 1 3.94188 32.2852 -0.229875 3.94188 32.2852 -0.229875
491 2 6.00541 32.344 1.15534 6.00541 32.344 1.15534
492 2 5.69964 32.1515 -2.08685 5.69964 32.1515 -2.08685
493 1 6.81877 30.6439 -0.466619 6.81877 30.6439 -0.466619
494 2 8.91222 30.7029 0.941928 8.91222 30.7029 0.941928
495 2 8.58543 30.5901 -2.31846 8.58543 30.5901 -2.31846
496 1 9.67282 32.2521 -0.892316 9.67282 32.2521 -0.892316
497 2 11.6569 32.3939 0.566865 11.6569 32.3939 0.566865
498 2 11.5505 32.0949 -2.57142 11.5505 32.0949 -2.57142
499 1 12.6528 30.5879 -0.951442 12.6528 30.5879 -0.951442
500 2 14.8007 30.8713 0.454196 14.8007 30.8713 0.454196
501 2 14.2232 30.4611 -2.75966 14.2232 30.4611 -2.75966
502 1 15.4465 32.2832 -1.47492 15.4465 32.2832 -1.47492
503 2 17.2448 32.4151 0.245586 17.2448 32.4151 0.245586
504 2 17.3658 32.0337 -3.11656 17.3658 32.0337 -3.11656
505 1 18.2517 30.6394 -1.27022 18.2517 30.6394 -1.27022
506 2 19.9786 30.751 0.486093 19.9786 30.751 0.486093
507 2 20.1283 30.7352 -2.75299 20.1283 30.7352 -2.75299
508 1 21.0419 32.3408 -1.08042 21.0419 32.3408 -1.08042
509 2 22.7477 32.4445 0.860175 22.7477 32.4445 0.860175
510 2 23.0766 32.3367 -2.44676 23.0766 32.3367 -2.44676
511 1 23.8037 30.6391 -0.64568 23.8037 30.6391 -0.64568
512 2 25.5764 30.6913 1.17357 25.5764 30.6913 1.17357
513 2 25.8833 30.6326 -2.11547 25.8833 30.6326 -2.11547
514 1 26.6949 32.3215 -0.430345 26.6949 32.3215 -0.430345
515 2 28.5404 32.4563 1.21832 28.5404 32.4563 1.21832
516 2 28.7232 32.0119 -2.04193 28.7232 32.0119 -2.04193
517 1 29.5506 30.6652 -0.122806 29.5506 30.6652 -0.122806
518 2 31.5275 30.9531 1.37235 31.5275 30.9531 1.37235
519 2 31.3681 30.3488 -1.7544 31.3681 30.3488 -1.7544
520 1 32.4121 32.3215 -0.522692 32.4121 32.3215 -0.522692
521 2 34.2875 32.6573 1.19779 34.2875 32.6573 1.19779
522 2 34.5343 31.9863 -2.03649 34.5343 31.9863 -2.03649
523 1 35.1974 30.6103 0.0112884 35.1974 30.6103 0.0112884
524 2 37.1225 30.7586 1.51102 37.1225 30.7586 1.51102
525 2 37.0482 30.4974 -1.60569 37.0482 30.4974 -1.60569
526 1 38.1195 32.2149 -0.172129 38.1195 32.2149 -0.172129
527 2 40.0428 32.5705 1.35329 40.0428 32.5705 1.35329
528 2 39.8448 32.1027 -1.9347 39.8448 32.1027 -1.9347
529 1 40.8786 30.6032 -0.138464 40.8786 30.6032 -0.138464
530 2 42.8097 30.9444 1.49978 42.8097 30.9444 1.49978
531 2 42.748 30.5787 -1.86474 42.748 30.5787 -1.86474
532 1 43.7829 32.3545 -0.327426 43.7829 32.3545 -0.327426
533 2 45.785 32.4344 1.35504 45.785 32.4344 1.35504
534 2 45.7115 32.2621 -1.96538 45.7115 32.2621 -1.96538
535 1 46.693 30.5729 -0.21579 46.693 30.5729 -0.21579
536 2 48.4538 30.8811 1.61543 48.4538 30.8811 1.61543
537 2 48.6466 30.4751 -1.73638 48.6466 30.4751 -1.73638
538 1 49.5399 32.3151 -0.0694938 49.5399 32.3151 -0.0694938
539 2 51.4974 32.4033 1.49258 51.4974 32.4033 1.49258