ITEM: TIMESTEP
14900
ITEM: NUMBER OF ATOMS
810
ITEM: BOX BOUNDS pp pp pp
8.4137701477268123e-01 5.2176227985227342e+01
8.0961581116522285e-01 5.0206599188834083e+01
-1.0000000000000000e+01 1.0000000000000000e+01
ITEM: ATOMS id type x y z xu yu zu
1 1 0.984207 1.03132 0.334456 0.984207 1.03132 0.334456
2 2 2.90365 0.907457 1.97079 2.90365 0.907457 1.97079
3 2 2.78274 1.09787 -1.26124 2.78274 1.09787 -1.26124
4 1 3.82129 2.62893 0.431905 3.82129 2.62893 0.431905
5 2 5.90169 2.63376 2.02369 5.90169 2.63376 2.02369
6 2 5.69824 2.54609 -1.19135 5.69824 2.54609 -1.19135
7 1 6.75397 1.03864 0.341215 6.75397 1.03864 0.341215
8 2 8.8011 1.03089 1.91287 8.8011 1.03089 1.91287
9 2 8.49424 1.03142 -1.40727 8.49424 1.03142 -1.40727
10 1 9.55872 2.68909 0.232113 9.55872 2.68909 0.232113
11 2 11.4558 2.67002 1.73056 11.4558 2.67002 1.73056
12 2 11.3708 2.44401 -1.56873 11.3708 2.44401 -1.56873
13 1 12.4999 0.993093 0.132455 12.4999 0.993093 0.132455
14 2 14.4413 0.938331 1.70591 14.4413 0.938331 1.70591
15 2 14.3775 1.17989 -1.63426 14.3775 1.17989 -1.63426
16 1 15.2968 2.7058 0.0473109 15.2968 2.7058 0.0473109
17 2 17.0581 2.65292 1.77797 17.0581 2.65292 1.77797
18 2 17.2771 2.84943 -1.37544 17.2771 2.84943 -1.37544
19 1 18.2016 1.07791 0.19706 18.2016 1.07791 0.19706
20 2 20.1739 0.866128 1.91306 20.1739 0.866128 1.91306
21 2 20.0856 1.24563 -1.38312 20.0856 1.24563 -1.38312
22 1 20.9901 2.73516 0.371122 20.9901 2.73516 0.371122
23 2 23.1823 2.70879 1.69808 23.1823 2.70879 1.69808
24 2 22.7514 2.72119 -1.58914 22.7514 2.72119 -1.58914
25 1 23.7753 1.00085 0.00244167 23.7753 1.00085 0.00244167
26 2 25.8207 0.87424 1.44193 25.8207 0.87424 1.44193
27 2 25.4416 1.128 -1.80517 25.4416 1.128 -1.80517
28 1 26.6399 2.66926 -0.102045 26.6399 2.66926 -0.102045
29 2 28.6908 2.40401 1.43724 28.6908 2.40401 1.43724
30 2 28.5527 2.76385 -1.85989 28.5527 2.76385 -1.85989
31 1 29.5612 0.972562 -0.389789 29.5612 0.972562 -0.389789
32 2 31.5904 0.908691 1.10712 31.5904 0.908691 1.10712
33 2 31.3469 1.10812 -2.15056 31.3469 1.10812 -2.15056
34 1 32.3952 2.72919 -0.471944 32.3952 2.72919 -0.471944
35 2 34.3552 2.5495 1.05992 34.3552 2.5495 1.05992
36 2 34.3202 2.67128 -2.0839 34.3202 2.67128 -2.0839
37 1 35.3009 1.0135 -0.576921 35.3009 1.0135 -0.576921
38 2 37.0148 50.3507 1.25179 37.0148 0.953668 1.25179
39 2 37.3494 0.855606 -2.0147 37.3494 0.855606 -2.0147
40 1 38.0917 2.65512 -0.222251 38.0917 2.65512 -0.222251
41 2 39.8373 2.60975 1.65414 39.8373 2.60975 1.65414
42 2 40.0855 2.88751 -1.616 40.0855 2.88751 -1.616
43 1 40.9034 1.0032 0.00660831 40.9034 1.0032 0.00660831
44 2 42.5316 0.858697 1.92745 42.5316 0.858697 1.92745
45 2 43.033 0.980992 -1.31321 43.033 0.980992 -1.31321
46 1 43.7663 2.65052 0.509939 43.7663 2.65052 0.509939
47 2 45.5781 2.6363 2.21148 45.5781 2.6363 2.21148
48 2 45.7203 2.48914 -1.02973 45.7203 2.48914 -1.02973
49 1 46.6209 0.90398 0.617958 46.6209 0.90398 0.617958
50 2 48.8399 0.992713 1.97074 48.8399 0.992713 1.97074
51 2 48.3589 0.991435 -1.26266 48.3589 0.991435 -1.26266
52 1 49.6179 2.63705 0.242564 49.6179 2.63705 0.242564
53 2 51.5075 2.6171 1.98316 51.5075 2.6171 1.98316
54 2 51.5555 2.85962 -1.29709 51.5555 2.85962 -1.29709
55 1 0.994575 4.28972 0.452045 0.994575 4.28972 0.452045
56 2 2.89083 4.13593 2.05736 2.89083 4.13593 2.05736
57 2 3.04814 4.36975 -1.23522 3.04814 4.36975 -1.23522
58 1 3.90176 5.87123 0.493879 3.90176 5.87123 0.493879
59 2 5.93361 5.82076 2.00568 5.93361 5.82076 2.00568
60 2 5.59205 6.01782 -1.18677 5.59205 6.01782 -1.18677
61 1 6.80368 4.25398 0.335905 6.80368 4.25398 0.335905
62 2 8.78446 4.25078 1.95948 8.78446 4.25078 1.95948
63 2 8.63982 4.2916 -1.34429 8.63982 4.2916 -1.34429
64 1 9.59753 5.91959 0.285402 9.59753 5.91959 0.285402
65 2 11.7245 6.02131 1.64501 11.7245 6.02131 1.64501
66 2 11.2627 5.91453 -1.57457 11.2627 5.91453 -1.57457
67 1 12.4236 4.25167 -0.108247 12.4236 4.25167 -0.108247
68 2 14.3021 4.39348 1.4973 14.3021 4.39348 1.4973
69 2 14.4016 4.28245 -1.68482 14.4016 4.28245 -1.68482
70 1 15.3278 5.95204 -0.094533 15.3278 5.95204 -0.094533
71 2 17.0491 6.02824 1.7943 17.0491 6.02824 1.7943
72 2 17.411 5.86583 -1.44272 17.411 5.86583 -1.44272
73 1 18.1724 4.27313 0.338218 18.1724 4.27313 0.338218
74 2 20.1076 4.43241 1.89031 20.1076 4.43241 1.89031
75 2 20.0093 4.41207 -1.42571 20.0093 4.41207 -1.42571
76 1 20.9835 5.97038 0.117723 20.9835 5.97038 0.117723
77 2 22.9383 6.00419 1.75492 22.9383 6.00419 1.75492
78 2 22.7421 6.19407 -1.57377 22.7421 6.19407 -1.57377
79 1 23.8281 4.41134 -0.0556247 23.8281 4.41134 -0.0556247
80 2 25.7902 4.3716 1.54034 25.7902 4.3716 1.54034
81 2 25.5763 4.26235 -1.75944 25.5763 4.26235 -1.75944
82 1 26.6626 6.0149 -0.199941 26.6626 6.0149 -0.199941
83 2 28.61 5.97237 1.54152 28.61 5.97237 1.54152
84 2 28.5294 5.8688 -1.74572 28.5294 5.8688 -1.74572
85 1 29.5028 4.28006 -0.0556538 29.5028 4.28006 -0.0556538
86 2 31.4835 4.26991 1.32101 31.4835 4.26991 1.32101
87 2 31.1951 4.39059 -1.88717 31.1951 4.39059 -1.88717
88 1 32.3634 5.98712 -0.326464 32.3634 5.98712 -0.326464
89 2 34.1362 5.74465 1.35184 34.1362 5.74465 1.35184
90 2 34.3969 6.14007 -1.85808 34.3969 6.14007 -1.85808
91 1 35.2911 4.32408 -0.328717 35.2911 4.32408 -0.328717
92 2 36.9776 4.05901 1.50008 36.9776 4.05901 1.50008
93 2 37.2977 4.57788 -1.79049 37.2977 4.57788 -1.79049
94 1 38.0442 5.96153 0.089707 38.0442 5.96153 0.089707
95 2 39.7485 5.77376 1.90971 39.7485 5.77376 1.90971
96 2 40.0923 6.16129 -1.32869 40.0923 6.16129 -1.32869
97 1 40.8745 4.31341 0.135095 40.8745 4.31341 0.135095
98 2 42.5566 4.3016 1.99333 42.5566 4.3016 1.99333
99 2 42.9491 4.21453 -1.29472 42.9491 4.21453 -1.29472
100 1 43.7918 5.94795 0.406016 43.7918 5.94795 0.406016
101 2 45.4968 5.89285 2.23565 45.4968 5.89285 2.23565
102 2 45.861 5.94995 -1.0801 45.861 5.94995 -1.0801
103 1 46.6033 4.15359 0.583536 46.6033 4.15359 0.583536
104 2 48.6008 3.99351 2.05752 48.6008 3.99351 2.05752
105 2 48.552 4.35385 -1.20092 48.552 4.35385 -1.20092
106 1 49.4931 5.85054 0.597598 49.4931 5.85054 0.597598
107 2 51.4653 5.86827 2.17324 51.4653 5.86827 2.17324
108 2 51.3368 5.98496 -1.13519 51.3368 5.98496 -1.13519
109 1 0.903641 7.56196 0.582705 0.903641 7.56196 0.582705
110 2 3.01393 7.48738 2.22114 3.01393 7.48738 2.22114
111 2 2.82064 7.42087 -1.13371 2.82064 7.42087 -1.13371
112 1 3.81083 9.17208 0.501144 3.81083 9.17208 0.501144
113 2 5.88598 9.36449 1.94311 5.88598 9.36449 1.94311
114 2 5.64815 9.10395 -1.22074 5.64815 9.10395 -1.22074
115 1 6.73961 7.6276 0.434979 6.73961 7.6276 0.434979
116 2 8.87238 7.63998 1.87492 8.87238 7.63998 1.87492
117 2 8.37826 7.56312 -1.39485 8.37826 7.56312 -1.39485
118 1 9.52998 9.20093 0.101912 9.52998 9.20093 0.101912
119 2 11.5607 9.13486 1.52502 11.5607 9.13486 1.52502
120 2 11.3607 9.20874 -1.73031 11.3607 9.20874 -1.73031
121 1 12.437 7.52781 -0.261105 12.437 7.52781 -0.261105
122 2 14.3052 7.65174 1.43359 14.3052 7.65174 1.43359
123 2 14.2753 7.47834 -1.83904 14.2753 7.47834 -1.83904
124 1 15.3264 9.30916 -0.254573 15.3264 9.30916 -0.254573
125 2 17.0403 9.25015 1.61007 17.0403 9.25015 1.61007
126 2 17.3855 9.04885 -1.68269 17.3855 9.04885 -1.68269
127 1 18.1485 7.57473 0.139852 18.1485 7.57473 0.139852
128 2 20.1264 7.58385 1.739 20.1264 7.58385 1.739
129 2 20.0138 7.58739 -1.61765 20.0138 7.58739 -1.61765
130 1 21.0166 9.26238 -0.00391842 21.0166 9.26238 -0.00391842
131 2 22.9589 9.47833 1.61491 22.9589 9.47833 1.61491
132 2 22.9653 9.17306 -1.71802 22.9653 9.17306 -1.71802
133 1 23.8688 7.6881 0.117518 23.8688 7.6881 0.117518
134 2 25.8988 7.46368 1.6767 25.8988 7.46368 1.6767
135 2 25.6378 7.73931 -1.65085 25.6378 7.73931 -1.65085
136 1 26.6863 9.2638 0.116183 26.6863 9.2638 0.116183
137 2 28.5949 9.05323 1.62166 28.5949 9.05323 1.62166
138 2 28.6375 9.51086 -1.65657 28.6375 9.51086 -1.65657
139 1 29.5035 7.68321 -0.218286 29.5035 7.68321 -0.218286
140 2 31.4168 7.52173 1.45308 31.4168 7.52173 1.45308
141 2 31.4488 7.9038 -1.76923 31.4488 7.9038 -1.76923
142 1 32.4358 9.2831 0.0457672 32.4358 9.2831 0.0457672
143 2 34.2216 9.18009 1.72352 34.2216 9.18009 1.72352
144 2 34.241 9.29728 -1.5523 34.241 9.29728 -1.5523
145 1 35.2576 7.59998 0.105347 35.2576 7.59998 0.105347
146 2 37.0907 7.53646 1.80776 37.0907 7.53646 1.80776
147 2 37.2464 7.82434 -1.56743 37.2464 7.82434 -1.56743
148 1 38.09 9.23763 0.26457 38.09 9.23763 0.26457
149 2 39.8009 9.54281 2.02615 39.8009 9.54281 2.02615
150 2 40.1142 9.15861 -1.29242 40.1142 9.15861 -1.29242
151 1 40.8644 7.64422 0.594537 40.8644 7.64422 0.594537
152 2 42.8587 7.41624 2.21187 42.8587 7.41624 2.21187
153 2 42.7663 7.70527 -1.00115 42.7663 7.70527 -1.00115
154 1 43.6481 9.20654 0.708695 43.6481 9.20654 0.708695
155 2 45.5391 9.18132 2.32544 45.5391 9.18132 2.32544
156 2 45.5521 9.09191 -0.92038 45.5521 9.09191 -0.92038
157 1 46.6764 7.53505 0.735418 46.6764 7.53505 0.735418
158 2 48.6611 7.48634 2.29393 48.6611 7.48634 2.29393
159 2 48.5881 7.52361 -1.00054 48.5881 7.52361 -1.00054
160 1 49.4755 9.16569 0.646707 49.4755 9.16569 0.646707
161 2 51.3646 9.23418 2.25204 51.3646 9.23418 2.25204
162 2 51.3233 9.30958 -1.04253 51.3233 9.30958 -1.04253
163 1 1.00911 10.8588 0.554036 1.00911 10.8588 0.554036
164 2 2.83307 10.7754 2.27149 2.83307 10.7754 2.27149
165 2 2.79253 10.8142 -1.14494 2.79253 10.8142 -1.14494
166 1 3.78779 12.4421 0.64134 3.78779 12.4421 0.64134
167 2 5.81561 12.3749 2.03465 5.81561 12.3749 2.03465
168 2 5.46055 12.562 -1.24639 5.46055 12.562 -1.24639
169 1 6.59995 10.9126 0.205417 6.59995 10.9126 0.205417
170 2 8.71452 10.8372 1.71163 8.71452 10.8372 1.71163
171 2 8.48051 10.7893 -1.50219 8.48051 10.7893 -1.50219
172 1 9.54379 12.5372 0.0172702 9.54379 12.5372 0.0172702
173 2 11.535 12.439 1.58861 11.535 12.439 1.58861
174 2 11.5579 12.5546 -1.6265 11.5579 12.5546 -1.6265
175 1 12.3955 10.7733 -0.141854 12.3955 10.7733 -0.141854
176 2 14.3184 10.9495 1.37697 14.3184 10.9495 1.37697
177 2 14.3632 10.9742 -1.82143 14.3632 10.9742 -1.82143
178 1 15.2803 12.6183 -0.24099 15.2803 12.6183 -0.24099
179 2 17.1042 12.5659 1.44913 17.1042 12.5659 1.44913
180 2 17.2073 12.5111 -1.81443 17.2073 12.5111 -1.81443
181 1 18.1349 10.8477 -0.107443 18.1349 10.8477 -0.107443
182 2 19.9498 11.1369 1.48722 19.9498 11.1369 1.48722
183 2 19.9858 10.7714 -1.7303 19.9858 10.7714 -1.7303
184 1 20.9121 12.5577 -0.303099 20.9121 12.5577 -0.303099
185 2 22.8179 12.6059 1.39631 22.8179 12.6059 1.39631
186 2 22.8431 12.6506 -1.88716 22.8431 12.6506 -1.88716
187 1 23.8146 10.9345 -0.180536 23.8146 10.9345 -0.180536
188 2 25.6126 10.9461 1.62181 25.6126 10.9461 1.62181
189 2 25.8896 10.9086 -1.68168 25.8896 10.9086 -1.68168
190 1 26.6497 12.5279 0.0669226 26.6497 12.5279 0.0669226
191 2 28.5607 12.6169 1.68911 28.5607 12.6169 1.68911
192 2 28.5448 12.4212 -1.56381 28.5448 12.4212 -1.56381
193 1 29.5032 10.9356 0.114152 29.5032 10.9356 0.114152
194 2 31.489 11.072 1.75017 31.489 11.072 1.75017
195 2 31.3255 10.8783 -1.58324 31.3255 10.8783 -1.58324
196 1 32.3415 12.5646 0.0426572 32.3415 12.5646 0.0426572
197 2 34.1832 12.8018 1.72347 34.1832 12.8018 1.72347
198 2 34.1493 12.3843 -1.62836 34.1493 12.3843 -1.62836
199 1 35.1678 10.9166 0.204899 35.1678 10.9166 0.204899
200 2 37.0273 10.8705 1.94812 37.0273 10.8705 1.94812
201 2 37.1606 10.8889 -1.36995 37.1606 10.8889 -1.36995
202 1 38.0041 12.5979 0.442072 38.0041 12.5979 0.442072
203 2 39.94 12.4606 1.95496 39.94 12.4606 1.95496
204 2 39.7572 12.5166 -1.2188 39.7572 12.5166 -1.2188
205 1 40.9228 10.8597 0.2999 40.9228 10.8597 0.2999
206 2 42.7272 11.0465 2.21501 42.7272 11.0465 2.21501
207 2 42.9397 10.6782 -1.20893 42.9397 10.6782 -1.20893
208 1 43.7472 12.4592 0.513768 43.7472 12.4592 0.513768
209 2 45.6969 12.6208 2.07339 45.6969 12.6208 2.07339
210 2 45.6148 12.3835 -1.19546 45.6148 12.3835 -1.19546
211 1 46.5538 10.8579 0.540263 46.5538 10.8579 0.540263
212 2 48.6658 10.8842 2.15521 48.6658 10.8842 2.15521
213 2 48.4644 10.7846 -1.04722 48.4644 10.7846 -1.04722
214 1 49.4857 12.5115 0.352311 49.4857 12.5115 0.352311
215 2 51.3157 12.5055 2.04367 51.3157 12.5055 2.04367
216 2 51.4844 12.4019 -1.23092 51.4844 12.4019 -1.23092
217 1 1.02545 14.123 0.425151 1.02545 14.123 0.425151
218 2 2.87341 14.1909 2.19642 2.87341 14.1909 2.19642
219 2 2.98222 14.0778 -1.13297 2.98222 14.0778 -1.13297
220 1 3.82251 15.8001 0.579414 3.82251 15.8001 0.579414
221 2 5.83017 15.8517 1.99523 5.83017 15.8517 1.99523
222 2 5.52414 15.6494 -1.21619 5.52414 15.6494 -1.21619
223 1 6.68728 14.1576 0.401399 6.68728 14.1576 0.401399
224 2 8.71784 14.1194 1.80638 8.71784 14.1194 1.80638
225 2 8.38153 14.1634 -1.49126 8.38153 14.1634 -1.49126
226 1 9.50779 15.871 0.048851 9.50779 15.871 0.048851
227 2 11.3343 15.6008 1.79682 11.3343 15.6008 1.79682
228 2 11.536 15.83 -1.42256 11.536 15.83 -1.42256
229 1 12.4045 14.0519 0.0962235 12.4045 14.0519 0.0962235
230 2 14.4842 14.0662 1.55468 14.4842 14.0662 1.55468
231 2 14.1898 14.27 -1.66882 14.1898 14.27 -1.66882
232 1 15.2551 15.922 0.0336105 15.2551 15.922 0.0336105
233 2 17.2416 15.8041 1.58727 17.2416 15.8041 1.58727
234 2 16.9338 15.8924 -1.77669 16.9338 15.8924 -1.77669
235 1 18.1485 14.2781 -0.138251 18.1485 14.2781 -0.138251
236 2 20.1812 14.3063 1.33335 20.1812 14.3063 1.33335
237 2 19.9515 14.1533 -1.90605 19.9515 14.1533 -1.90605
238 1 20.9092 15.8265 -0.362886 20.9092 15.8265 -0.362886
239 2 22.7406 15.9318 1.26398 22.7406 15.9318 1.26398
240 2 22.7986 15.7749 -1.96697 22.7986 15.7749 -1.96697
241 1 23.735 14.1957 -0.251471 23.735 14.1957 -0.251471
242 2 25.6186 14.2758 1.49506 25.6186 14.2758 1.49506
243 2 25.9011 14.1358 -1.69863 25.9011 14.1358 -1.69863
244 1 26.6813 15.87 -0.153013 26.6813 15.87 -0.153013
245 2 28.6463 15.9351 1.41828 28.6463 15.9351 1.41828
246 2 28.5752 15.6086 -1.91947 28.5752 15.6086 -1.91947
247 1 29.4916 14.1779 -0.127914 29.4916 14.1779 -0.127914
248 2 31.458 14.3987 1.53113 31.458 14.3987 1.53113
249 2 31.4113 14.1104 -1.73912 31.4113 14.1104 -1.73912
250 1 32.3608 15.8553 -0.251423 32.3608 15.8553 -0.251423
251 2 34.1521 15.9671 1.38786 34.1521 15.9671 1.38786
252 2 34.4196 15.714 -1.82308 34.4196 15.714 -1.82308
253 1 35.2729 14.131 -0.0472617 35.2729 14.131 -0.0472617
254 2 36.9753 14.4352 1.78149 36.9753 14.4352 1.78149
255 2 37.2294 13.9815 -1.4866 37.2294 13.9815 -1.4866
256 1 38.0625 15.793 -0.0189658 38.0625 15.793 -0.0189658
257 2 39.9532 15.9936 1.65567 39.9532 15.9936 1.65567
258 2 39.9568 15.6243 -1.57595 39.9568 15.6243 -1.57595
259 1 40.9122 14.154 0.250379 40.9122 14.154 0.250379
260 2 42.754 14.3045 1.85868 42.754 14.3045 1.85868
261 2 42.9002 13.9206 -1.32072 42.9002 13.9206 -1.32072
262 1 43.8719 15.7263 0.0484373 43.8719 15.7263 0.0484373
263 2 45.7074 15.9131 1.77499 45.7074 15.9131 1.77499
264 2 45.8102 15.5618 -1.51318 45.8102 15.5618 -1.51318
265 1 46.6602 14.1276 0.363198 46.6602 14.1276 0.363198
266 2 48.5176 14.0107 2.10079 48.5176 14.0107 2.10079
267 2 48.544 14.2626 -1.31274 48.544 14.2626 -1.31274
268 1 49.6052 15.7455 0.448115 49.6052 15.7455 0.448115
269 2 51.4678 15.7066 2.06869 51.4678 15.7066 2.06869
270 2 51.3967 15.7373 -1.20062 51.3967 15.7373 -1.20062
271 1 0.950049 17.4229 0.407085 0.950049 17.4229 0.407085
272 2 2.8316 17.5058 2.0835 2.8316 17.5058 2.0835
273 2 2.87931 17.4285 -1.17452 2.87931 17.4285 -1.17452
274 1 3.78774 19.0815 0.326898 3.78774 19.0815 0.326898
275 2 5.88373 19.1847 1.86535 5.88373 19.1847 1.86535
276 2 5.45218 19.0572 -1.46579 5.45218 19.0572 -1.46579
277 1 6.61093 17.4875 0.180847 6.61093 17.4875 0.180847
278 2 8.59636 17.4275 1.84864 8.59636 17.4275 1.84864
279 2 8.68206 17.6416 -1.45829 8.68206 17.6416 -1.45829
280 1 9.52605 19.1264 0.357543 9.52605 19.1264 0.357543
281 2 11.4092 19.1973 1.94172 11.4092 19.1973 1.94172
282 2 11.3967 19.0063 -1.31451 11.3967 19.0063 -1.31451
283 1 12.399 17.4198 0.284929 12.399 17.4198 0.284929
284 2 14.4315 17.4406 1.80783 14.4315 17.4406 1.80783
285 2 14.1211 17.6358 -1.41717 14.1211 17.6358 -1.41717
286 1 15.1854 19.1907 0.249988 15.1854 19.1907 0.249988
287 2 17.2853 19.3169 1.54252 17.2853 19.3169 1.54252
288 2 16.8167 19.1346 -1.60154 16.8167 19.1346 -1.60154
289 1 18.0692 17.5099 -0.120534 18.0692 17.5099 -0.120534
290 2 20.0331 17.3473 1.45189 20.0331 17.3473 1.45189
291 2 19.8453 17.5936 -1.83401 19.8453 17.5936 -1.83401
292 1 20.954 19.1716 -0.0653029 20.954 19.1716 -0.0653029
293 2 23.0167 19.1061 1.36415 23.0167 19.1061 1.36415
294 2 22.4941 19.1708 -1.92507 22.4941 19.1708 -1.92507
295 1 23.7397 17.4895 -0.4327 23.7397 17.4895 -0.4327
296 2 25.6077 17.5471 1.32566 25.6077 17.5471 1.32566
297 2 25.787 17.3363 -1.83105 25.787 17.3363 -1.83105
298 1 26.6589 19.172 -0.355788 26.6589 19.172 -0.355788
299 2 28.5262 19.1167 1.1908 28.5262 19.1167 1.1908
300 2 28.5339 19.2173 -2.14391 28.5339 19.2173 -2.14391
301 1 29.5335 17.542 -0.643191 29.5335 17.542 -0.643191
302 2 31.2302 17.5739 1.21683 31.2302 17.5739 1.21683
303 2 31.6331 17.3478 -1.99014 31.6331 17.3478 -1.99014
304 1 32.3418 19.1588 -0.319152 32.3418 19.1588 -0.319152
305 2 34.1767 18.9666 1.38924 34.1767 18.9666 1.38924
306 2 34.446 19.3007 -1.82364 34.446 19.3007 -1.82364
307 1 35.3044 17.4907 -0.271312 35.3044 17.4907 -0.271312
308 2 37.0378 17.5164 1.53516 37.0378 17.5164 1.53516
309 2 37.2833 17.2876 -1.71991 37.2833 17.2876 -1.71991
310 1 38.083 19.0672 -0.149924 38.083 19.0672 -0.149924
311 2 39.9686 18.9611 1.48786 39.9686 18.9611 1.48786
312 2 39.9744 19.1517 -1.74941 39.9744 19.1517 -1.74941
313 1 40.9502 17.4631 -0.228049 40.9502 17.4631 -0.228049
314 2 42.7654 17.406 1.53694 42.7654 17.406 1.53694
315 2 42.9289 17.3307 -1.69299 42.9289 17.3307 -1.69299
316 1 43.7262 19.0458 -0.0232884 43.7262 19.0458 -0.0232884
317 2 45.6767 18.9066 1.61973 45.6767 18.9066 1.61973
318 2 45.7139 18.9306 -1.696 45.7139 18.9306 -1.696
319 1 46.6475 17.338 -0.0524765 46.6475 17.338 -0.0524765
320 2 48.4206 17.5714 1.79545 48.4206 17.5714 1.79545
321 2 48.779 17.3389 -1.44885 48.779 17.3389 -1.44885
322 1 49.3596 19.1337 0.135475 49.3596 19.1337 0.135475
323 2 51.2625 19.1572 1.78831 51.2625 19.1572 1.78831
324 2 51.2833 18.8666 -1.36173 51.2833 18.8666 -1.36173
325 1 0.843455 20.6815 0.134415 0.843455 20.6815 0.134415
326 2 2.68909 20.9161 1.76341 2.68909 20.9161 1.76341
327 2 2.80922 20.586 -1.43637 2.80922 20.586 -1.43637
328 1 3.75346 22.3538 0.0933132 3.75346 22.3538 0.0933132
329 2 5.64628 22.2706 1.70499 5.64628 22.2706 1.70499
330 2 5.67062 22.5116 -1.57424 5.67062 22.5116 -1.57424
331 1 6.61906 20.7209 -0.0332256 6.61906 20.7209 -0.0332256
332 2 8.38288 20.9075 1.7524 8.38288 20.9075 1.7524
333 2 8.68771 20.7405 -1.43242 8.68771 20.7405 -1.43242
334 1 9.48017 22.3818 0.116929 9.48017 22.3818 0.116929
335 2 11.4022 22.539 1.76552 11.4022 22.539 1.76552
336 2 11.4334 22.3017 -1.49938 11.4334 22.3017 -1.49938
337 1 12.2899 20.7301 0.193525 12.2899 20.7301 0.193525
338 2 14.2374 20.9362 1.77711 14.2374 20.9362 1.77711
339 2 14.2468 20.8177 -1.35224 14.2468 20.8177 -1.35224
340 1 15.1684 22.516 0.173514 15.1684 22.516 0.173514
341 2 17.2327 22.4401 1.56109 17.2327 22.4401 1.56109
342 2 16.84 22.4258 -1.71471 16.84 22.4258 -1.71471
343 1 18.0262 20.8709 -0.199383 18.0262 20.8709 -0.199383
344 2 19.9784 20.8958 1.41167 19.9784 20.8958 1.41167
345 2 19.905 20.7572 -1.80986 19.905 20.7572 -1.80986
346 1 20.8845 22.432 -0.280925 20.8845 22.432 -0.280925
347 2 22.8689 22.4305 1.26922 22.8689 22.4305 1.26922
348 2 22.6983 22.5781 -1.92998 22.6983 22.5781 -1.92998
349 1 23.7913 20.7533 -0.360458 23.7913 20.7533 -0.360458
350 2 25.7138 20.7474 1.27912 25.7138 20.7474 1.27912
351 2 25.6415 20.7932 -2.00786 25.6415 20.7932 -2.00786
352 1 26.5572 22.5029 -0.263621 26.5572 22.5029 -0.263621
353 2 28.4399 22.3285 1.47588 28.4399 22.3285 1.47588
354 2 28.4371 22.6042 -1.87935 28.4371 22.6042 -1.87935
355 1 29.444 20.8735 -0.309511 29.444 20.8735 -0.309511
356 2 31.3313 20.725 1.34242 31.3313 20.725 1.34242
357 2 31.4639 20.8975 -1.94312 31.4639 20.8975 -1.94312
358 1 32.2681 22.3913 -0.169468 32.2681 22.3913 -0.169468
359 2 34.2222 22.5244 1.59184 34.2222 22.5244 1.59184
360 2 34.1995 22.351 -1.73598 34.1995 22.351 -1.73598
361 1 35.1366 20.792 0.0107842 35.1366 20.792 0.0107842
362 2 37.3251 20.6732 1.63313 37.3251 20.6732 1.63313
363 2 37.052 20.9267 -1.65307 37.052 20.9267 -1.65307
364 1 38.0486 22.425 0.0182114 38.0486 22.425 0.0182114
365 2 40.0065 22.4719 1.64458 40.0065 22.4719 1.64458
366 2 39.877 22.3746 -1.70088 39.877 22.3746 -1.70088
367 1 40.9054 20.7931 -0.00541317 40.9054 20.7931 -0.00541317
368 2 42.7001 20.6349 1.72187 42.7001 20.6349 1.72187
369 2 42.7769 20.7076 -1.71218 42.7769 20.7076 -1.71218
370 1 43.7544 22.3152 0.0202866 43.7544 22.3152 0.0202866
371 2 45.644 22.2781 1.64105 45.644 22.2781 1.64105
372 2 45.6614 22.317 -1.57306 45.6614 22.317 -1.57306
373 1 46.56 20.5772 0.00510905 46.56 20.5772 0.00510905
374 2 48.4243 20.7401 1.66835 48.4243 20.7401 1.66835
375 2 48.4956 20.6835 -1.48555 48.4956 20.6835 -1.48555
376 1 49.3874 22.3537 0.0756061 49.3874 22.3537 0.0756061
377 2 51.2676 22.3475 1.75585 51.2676 22.3475 1.75585
378 2 51.2762 22.2889 -1.5321 51.2762 22.2889 -1.5321
379 1 0.841237 24.0062 0.15031 0.841237 24.0062 0.15031
380 2 2.92883 24.0795 1.76851 2.92883 24.0795 1.76851
381 2 2.76773 24.0937 -1.475 2.76773 24.0937 -1.475
382 1 3.76333 25.7122 0.0956496 3.76333 25.7122 0.0956496
383 2 5.63488 25.8482 1.73638 5.63488 25.8482 1.73638
384 2 5.73874 25.6825 -1.50388 5.73874 25.6825 -1.50388
385 1 6.65778 24.1062 0.206199 6.65778 24.1062 0.206199
386 2 8.68943 24.1573 1.83397 8.68943 24.1573 1.83397
387 2 8.49304 24.1431 -1.47943 8.49304 24.1431 -1.47943
388 1 9.44071 25.8553 0.0869416 9.44071 25.8553 0.0869416
389 2 11.3236 25.8654 1.79194 11.3236 25.8654 1.79194
390 2 11.4241 25.7815 -1.539 11.4241 25.7815 -1.539
391 1 12.263 24.1809 0.0814791 12.263 24.1809 0.0814791
392 2 14.214 24.3061 1.6504 14.214 24.3061 1.6504
393 2 14.2443 23.8905 -1.58834 14.2443 23.8905 -1.58834
394 1 15.1392 25.7378 -0.231002 15.1392 25.7378 -0.231002
395 2 17.0699 25.8702 1.25534 17.0699 25.8702 1.25534
396 2 17.0001 25.7224 -1.90754 17.0001 25.7224 -1.90754
397 1 18.057 24.1211 -0.187256 18.057 24.1211 -0.187256
398 2 20.0208 24.2913 1.33383 20.0208 24.2913 1.33383
399 2 19.8558 24.0276 -1.96545 19.8558 24.0276 -1.96545
400 1 20.8967 25.7522 -0.486802 20.8967 25.7522 -0.486802
401 2 22.8824 26.0214 1.05994 22.8824 26.0214 1.05994
402 2 22.7633 25.7707 -2.18822 22.7633 25.7707 -2.18822
403 1 23.8007 24.1889 -0.398826 23.8007 24.1889 -0.398826
404 2 25.6328 24.2187 1.25775 25.6328 24.2187 1.25775
405 2 25.7765 24.1151 -2.06761 25.7765 24.1151 -2.06761
406 1 26.6524 25.8094 -0.464609 26.6524 25.8094 -0.464609
407 2 28.5304 25.9721 1.25154 28.5304 25.9721 1.25154
408 2 28.6805 25.5242 -1.98971 28.6805 25.5242 -1.98971
409 1 29.4218 24.1125 -0.173752 29.4218 24.1125 -0.173752
410 2 31.314 24.1144 1.42627 31.314 24.1144 1.42627
411 2 31.249 23.9185 -1.80151 31.249 23.9185 -1.80151
412 1 32.3571 25.6326 -0.293606 32.3571 25.6326 -0.293606
413 2 34.1112 25.4985 1.5245 34.1112 25.4985 1.5245
414 2 34.2489 25.7355 -1.81026 34.2489 25.7355 -1.81026
415 1 35.2296 23.9496 -0.202736 35.2296 23.9496 -0.202736
416 2 36.9211 24.0753 1.55005 36.9211 24.0753 1.55005
417 2 37.1786 23.898 -1.75217 37.1786 23.898 -1.75217
418 1 38.0179 25.5822 -0.214948 38.0179 25.5822 -0.214948
419 2 39.8791 25.8123 1.44832 39.8791 25.8123 1.44832
420 2 39.8791 25.7124 -1.76821 39.8791 25.7124 -1.76821
421 1 40.8601 24.0851 -0.128167 40.8601 24.0851 -0.128167
422 2 42.593 23.9358 1.71012 42.593 23.9358 1.71012
423 2 42.9122 24.1108 -1.53556 42.9122 24.1108 -1.53556
424 1 43.7551 25.6743 0.282334 43.7551 25.6743 0.282334
425 2 45.7667 25.6928 1.83551 45.7667 25.6928 1.83551
426 2 45.4499 25.7609 -1.48948 45.4499 25.7609 -1.48948
427 1 46.5574 24.0351 0.106349 46.5574 24.0351 0.106349
428 2 48.5149 24.0374 1.67642 48.5149 24.0374 1.67642
429 2 48.4069 24.0186 -1.57091 48.4069 24.0186 -1.57091
430 1 49.3458 25.6814 -0.033652 49.3458 25.6814 -0.033652
431 2 51.2584 25.7381 1.70122 51.2584 25.7381 1.70122
432 2 51.3431 25.5859 -1.63098 51.3431 25.5859 -1.63098
433 1 0.900353 27.3486 -0.0300455 0.900353 27.3486 -0.0300455
434 2 2.79197 27.5752 1.65741 2.79197 27.5752 1.65741
435 2 2.76693 27.2445 -1.64393 2.76693 27.2445 -1.64393
436 1 3.74834 29.0126 -0.0876843 3.74834 29.0126 -0.0876843
437 2 5.59978 29.0229 1.6687 5.59978 29.0229 1.6687
438 2 5.6331 29.1869 -1.60116 5.6331 29.1869 -1.60116
439 1 6.65276 27.4375 0.0661757 6.65276 27.4375 0.0661757
440 2 8.4772 27.5631 1.71965 8.4772 27.5631 1.71965
441 2 8.44621 27.5045 -1.55795 8.44621 27.5045 -1.55795
442 1 9.50595 29.1117 0.139041 9.50595 29.1117 0.139041
443 2 11.5409 29.1655 1.74608 11.5409 29.1655 1.74608
444 2 11.2452 28.8892 -1.61799 11.2452 28.8892 -1.61799
445 1 12.2717 27.4295 0.156101 12.2717 27.4295 0.156101
446 2 14.3731 27.4332 1.49086 14.3731 27.4332 1.49086
447 2 13.9637 27.2856 -1.80456 13.9637 27.2856 -1.80456
448 1 15.0987 28.9853 -0.279846 15.0987 28.9853 -0.279846
449 2 17.1204 29.031 1.23485 17.1204 29.031 1.23485
450 2 16.9488 29.0666 -2.05524 16.9488 29.0666 -2.05524
451 1 18.0255 27.4971 -0.460433 18.0255 27.4971 -0.460433
452 2 19.9577 27.6475 1.02773 19.9577 27.6475 1.02773
453 2 19.793 27.2743 -2.31172 19.793 27.2743 -2.31172
454 1 20.7923 28.9926 -0.778826 20.7923 28.9926 -0.778826
455 2 22.7429 29.1264 0.830926 22.7429 29.1264 0.830926
456 2 22.6842 28.8892 -2.47315 22.6842 28.8892 -2.47315
457 1 23.7599 27.4209 -0.769516 23.7599 27.4209 -0.769516
458 2 25.6861 27.6106 1.04055 25.6861 27.6106 1.04055
459 2 25.8015 27.2821 -2.2298 25.8015 27.2821 -2.2298
460 1 26.7378 29.032 -0.673525 26.7378 29.032 -0.673525
461 2 28.5529 28.9948 0.999037 28.5529 28.9948 0.999037
462 2 28.6957 29.0198 -2.2103 28.6957 29.0198 -2.2103
463 1 29.5922 27.4149 -0.505378 29.5922 27.4149 -0.505378
464 2 31.3464 27.2443 1.28341 31.3464 27.2443 1.28341
465 2 31.5432 27.3474 -1.94886 31.5432 27.3474 -1.94886
466 1 32.2706 28.9783 -0.282912 32.2706 28.9783 -0.282912
467 2 34.0204 28.9305 1.49578 34.0204 28.9305 1.49578
468 2 34.2907 28.8175 -1.73359 34.2907 28.8175 -1.73359
469 1 35.158 27.2447 -0.0136647 35.158 27.2447 -0.0136647
470 2 37.0245 27.2343 1.56626 37.0245 27.2343 1.56626
471 2 37.023 27.3532 -1.69906 37.023 27.3532 -1.69906
472 1 38.0304 28.9092 -0.00826125 38.0304 28.9092 -0.00826125
473 2 39.9632 28.8781 1.52281 39.9632 28.8781 1.52281
474 2 39.8295 28.9214 -1.651 39.8295 28.9214 -1.651
475 1 40.9022 27.3159 -0.121259 40.9022 27.3159 -0.121259
476 2 42.5739 27.4732 1.69412 42.5739 27.4732 1.69412
477 2 42.9137 27.1893 -1.57904 42.9137 27.1893 -1.57904
478 1 43.7456 28.9754 0.027473 43.7456 28.9754 0.027473
479 2 45.576 28.965 1.67963 45.576 28.965 1.67963
480 2 45.5883 29.0457 -1.63075 45.5883 29.0457 -1.63075
481 1 46.5067 27.429 0.0269227 46.5067 27.429 0.0269227
482 2 48.374 27.2702 1.62314 48.374 27.2702 1.62314
483 2 48.3628 27.3329 -1.66358 48.3628 27.3329 -1.66358
484 1 49.3135 28.9894 -0.0210886 49.3135 28.9894 -0.0210886
485 2 51.273 29.1187 1.47897 51.273 29.1187 1.47897
486 2 51.1926 28.8546 -1.69014 51.1926 28.8546 -1.69014
487 1 0.887588 30.5806 -0.376808 0.887588 30.5806 -0.376808
488 2 2.64533 30.6337 1.54711 2.64533 30.6337 1.54711
489 2 2.95108 30.7947 -1.75223 2.95108 30.7947 -1.75223
490 1 3.79461 32.3801 -0.015262 3.79461 32.3801 -0.015262
491 2 5.55521 32.3958 1.68938 5.55521 32.3958 1.68938
492 2 5.74685 32.3423 -1.50672 5.74685 32.3423 -1.50672
493 1 6.6273 30.6994 0.171737 6.6273 30.6994 0.171737
494 2 8.52041 30.5993 1.86401 8.52041 30.5993 1.86401
495 2 8.62996 30.8005 -1.39707 8.62996 30.8005 -1.39707
496 1 9.53086 32.3165 0.371212 9.53086 32.3165 0.371212
497 2 11.5632 32.1401 1.84515 11.5632 32.1401 1.84515
498 2 11.2592 32.3445 -1.50101 11.2592 32.3445 -1.50101
499 1 12.399 30.6034 -0.0730079 12.399 30.6034 -0.0730079
500 2 14.3878 30.6567 1.45188 14.3878 30.6567 1.45188
501 2 14.1449 30.8013 -1.84626 14.1449 30.8013 -1.84626
502 1 15.1964 32.2482 -0.187828 15.1964 32.2482 -0.187828
503 2 17.2317 32.2184 1.16471 17.2317 32.2184 1.16471
504 2 16.8812 32.3275 -1.97685 16.8812 32.3275 -1.97685
505 1 18.0169 30.6607 -0.511613 18.0169 30.6607 -0.511613
506 2 20.0448 30.754 0.934815 20.0448 30.754 0.934815
507 2 19.7671 30.6037 -2.26829 19.7671 30.6037 -2.26829
508 1 20.8793 32.2933 -0.825509 20.8793 32.2933 -0.825509
509 2 22.8593 32.0965 0.723613 22.8593 32.0965 0.723613
510 2 22.7489 32.3471 -2.51121 22.7489 32.3471 -2.51121
511 1 23.7556 30.5565 -1.00328 23.7556 30.5565 -1.00328
512 2 25.4311 30.598 0.860724 25.4311 30.598 0.860724
513 2 25.8996 30.5756 -2.41449 25.8996 30.5756 -2.41449
514 1 26.6796 32.2696 -0.578236 26.6796 32.2696 -0.578236
515 2 28.4673 32.2093 1.16248 28.4673 32.2093 1.16248
516 2 28.5391 32.3834 -2.07536 28.5391 32.3834 -2.07536
517 1 29.4898 30.6819 -0.519054 29.4898 30.6819 -0.519054
518 2 31.3143 30.6445 1.20859 31.3143 30.6445 1.20859
519 2 31.4866 30.5174 -2.08672 31.4866 30.5174 -2.08672
520 1 32.3283 32.2237 -0.458247 32.3283 32.2237 -0.458247
521 2 34.1828 32.3562 1.30715 34.1828 32.3562 1.30715
522 2 34.3077 32.0201 -1.96259 34.3077 32.0201 -1.96259
523 1 35.1593 30.5631 -0.122631 35.1593 30.5631 -0.122631
524 2 37.1006 30.7177 1.44709 37.1006 30.7177 1.44709
525 2 37.0845 30.4725 -1.81754 37.0845 30.4725 -1.81754
526 1 38.0301 32.2385 -0.219331 38.0301 32.2385 -0.219331
527 2 40.0666 32.4469 1.30753 40.0666 32.4469 1.30753
528 2 39.7253 31.9079 -1.92553 39.7253 31.9079 -1.92553
529 1 40.8855 30.5623 -0.0982262 40.8855 30.5623 -0.0982262
530 2 42.8012 30.6948 1.50896 42.8012 30.6948 1.50896
531 2 42.718 30.502 -1.77902 42.718 30.502 -1.77902
532 1 43.6514 32.2964 -0.335467 43.6514 32.2964 -0.335467
533 2 45.4617 32.4284 1.42769 45.4617 32.4284 1.42769
534 2 45.6337 32.2066 -1.87281 45.6337 32.2066 -1.87281
535 1 46.5411 30.666 0.0301627 46.5411 30.666 0.0301627
536 2 48.5922 30.6585 1.59024 48.5922 30.6585 1.59024
537 2 48.3175 30.6029 -1.63929 48.3175 30.6029 -1.63929
538 1 49.4263 32.2327 -0.117873 49.4263 32.2327 -0.117873
539 2 51.4042 32.1997 1.37853 51.4042 32.1997 1.37853