ITEM: TIMESTEP
2500
ITEM: NUMBER OF ATOMS
810
ITEM: BOX BOUNDS pp pp pp
8.4137701477268123e-01 5.2176227985227342e+01
8.0961581116522285e-01 5.0206599188834083e+01
-1.0000000000000000e+01 1.0000000000000000e+01
ITEM: ATOMS id type x y z xu yu zu
1 1 52.1661 50.2721 0.155007 0.831258 0.875134 0.155007
2 2 2.74523 50.2043 1.90318 2.74523 0.807344 1.90318
3 2 2.79316 50.1113 -1.38084 2.79316 0.714284 -1.38084
4 1 3.6637 2.50278 0.223994 3.6637 2.50278 0.223994
5 2 5.54931 2.35288 1.85534 5.54931 2.35288 1.85534
6 2 5.6123 2.7015 -1.32221 5.6123 2.7015 -1.32221
7 1 6.52952 50.3399 0.182144 6.52952 0.942902 0.182144
8 2 8.30415 50.2818 1.85937 8.30415 0.884823 1.85937
9 2 8.46622 50.4658 -1.36705 8.46622 1.06882 -1.36705
10 1 9.40044 2.555 0.422624 9.40044 2.555 0.422624
11 2 11.4138 2.54139 1.82277 11.4138 2.54139 1.82277
12 2 11.156 2.66482 -1.41468 11.156 2.66482 -1.41468
13 1 12.2611 50.3192 0.0528641 12.2611 0.92224 0.0528641
14 2 14.0846 50.3848 1.70253 14.0846 0.987849 1.70253
15 2 14.1173 50.422 -1.55961 14.1173 1.02503 -1.55961
16 1 15.0598 2.64204 0.157222 15.0598 2.64204 0.157222
17 2 16.933 2.69288 1.86376 16.933 2.69288 1.86376
18 2 17.0023 2.52029 -1.25731 17.0023 2.52029 -1.25731
19 1 17.9532 50.3741 0.484124 17.9532 0.977095 0.484124
20 2 19.8649 50.4115 2.03821 19.8649 1.01452 2.03821
21 2 19.8205 50.4088 -1.28402 19.8205 1.01178 -1.28402
22 1 20.7698 2.61052 0.369528 20.7698 2.61052 0.369528
23 2 22.7419 2.49318 1.9796 22.7419 2.49318 1.9796
24 2 22.606 2.61755 -1.33707 22.606 2.61755 -1.33707
25 1 23.5956 50.3529 0.194883 23.5956 0.955889 0.194883
26 2 25.53 50.3515 1.80376 25.53 0.954528 1.80376
27 2 25.5469 50.4077 -1.47914 25.5469 1.01076 -1.47914
28 1 26.5596 2.60751 0.16911 26.5596 2.60751 0.16911
29 2 28.4441 2.4813 1.7806 28.4441 2.4813 1.7806
30 2 28.5281 2.52747 -1.41698 28.5281 2.52747 -1.41698
31 1 29.4372 50.3118 0.186463 29.4372 0.914774 0.186463
32 2 31.3582 50.2105 1.80177 31.3582 0.81356 1.80177
33 2 31.3787 50.4093 -1.47062 31.3787 1.01228 -1.47062
34 1 32.2827 2.50127 0.255751 32.2827 2.50127 0.255751
35 2 34.206 2.25323 1.76502 34.206 2.25323 1.76502
36 2 34.0858 2.60432 -1.49678 34.0858 2.60432 -1.49678
37 1 35.1554 50.2418 -0.0869916 35.1554 0.844843 -0.0869916
38 2 36.8981 50.2643 1.65528 36.8981 0.867339 1.65528
39 2 37.1123 50.1857 -1.58952 37.1123 0.788706 -1.58952
40 1 38.0132 2.49722 -0.0372112 38.0132 2.49722 -0.0372112
41 2 39.753 2.41711 1.7411 39.753 2.41711 1.7411
42 2 39.9581 2.75718 -1.53241 39.9581 2.75718 -1.53241
43 1 40.8397 50.3167 0.0258528 40.8397 0.919716 0.0258528
44 2 42.7152 50.3515 1.64828 42.7152 0.954479 1.64828
45 2 42.7522 50.3305 -1.59253 42.7522 0.933545 -1.59253
46 1 43.6648 2.59266 0.0262868 43.6648 2.59266 0.0262868
47 2 45.596 2.43772 1.76525 45.596 2.43772 1.76525
48 2 45.5939 2.64592 -1.63644 45.5939 2.64592 -1.63644
49 1 46.5522 50.2846 0.0258878 46.5522 0.887627 0.0258878
50 2 48.4792 50.0929 1.58134 48.4792 0.695931 1.58134
51 2 48.4658 50.3169 -1.70984 48.4658 0.919964 -1.70984
52 1 49.367 2.57002 0.0365655 49.367 2.57002 0.0365655
53 2 51.2085 2.37284 1.77582 51.2085 2.37284 1.77582
54 2 51.3752 2.68109 -1.48528 51.3752 2.68109 -1.48528
55 1 52.1515 4.22154 0.339545 0.816697 4.22154 0.339545
56 2 2.7683 4.1105 1.94787 2.7683 4.1105 1.94787
57 2 2.621 4.08122 -1.36983 2.621 4.08122 -1.36983
58 1 3.67742 5.73456 0.304478 3.67742 5.73456 0.304478
59 2 5.47622 5.87259 2.02899 5.47622 5.87259 2.02899
60 2 5.56147 5.69198 -1.26086 5.56147 5.69198 -1.26086
61 1 6.46838 4.20538 0.517919 6.46838 4.20538 0.517919
62 2 8.52328 4.13762 2.17859 8.52328 4.13762 2.17859
63 2 8.33296 4.2555 -1.072 8.33296 4.2555 -1.072
64 1 9.39016 5.88465 0.573459 9.39016 5.88465 0.573459
65 2 11.5907 5.95781 1.90989 11.5907 5.95781 1.90989
66 2 10.9424 5.81238 -1.31179 10.9424 5.81238 -1.31179
67 1 12.2032 4.24382 0.212025 12.2032 4.24382 0.212025
68 2 14.1767 4.35019 1.76005 14.1767 4.35019 1.76005
69 2 14.0995 4.26127 -1.49873 14.0995 4.26127 -1.49873
70 1 15.0441 5.9415 0.130556 15.0441 5.9415 0.130556
71 2 16.891 5.98336 1.69987 16.891 5.98336 1.69987
72 2 16.9906 5.76842 -1.52313 16.9906 5.76842 -1.52313
73 1 17.9426 4.27106 0.288803 17.9426 4.27106 0.288803
74 2 19.9118 4.47099 1.72831 19.9118 4.47099 1.72831
75 2 19.8301 3.95864 -1.43755 19.8301 3.95864 -1.43755
76 1 20.8232 5.83983 -0.128338 20.8232 5.83983 -0.128338
77 2 22.5082 5.80974 1.79362 22.5082 5.80974 1.79362
78 2 22.8592 5.76279 -1.45093 22.8592 5.76279 -1.45093
79 1 23.6958 4.21337 0.306722 23.6958 4.21337 0.306722
80 2 25.4973 4.1126 1.91375 25.4973 4.1126 1.91375
81 2 25.5336 4.25046 -1.34388 25.5336 4.25046 -1.34388
82 1 26.5118 5.87141 0.347169 26.5118 5.87141 0.347169
83 2 28.4035 5.69553 1.91717 28.4035 5.69553 1.91717
84 2 28.3886 5.80543 -1.28568 28.3886 5.80543 -1.28568
85 1 29.4256 4.21001 0.241822 29.4256 4.21001 0.241822
86 2 31.3665 4.0736 1.8688 31.3665 4.0736 1.8688
87 2 31.4515 4.11471 -1.46877 31.4515 4.11471 -1.46877
88 1 32.3803 5.7634 0.174212 32.3803 5.7634 0.174212
89 2 34.2739 5.74955 1.90297 34.2739 5.74955 1.90297
90 2 34.3049 5.88793 -1.33027 34.3049 5.88793 -1.33027
91 1 35.1559 4.10402 0.175102 35.1559 4.10402 0.175102
92 2 37.0351 3.94317 1.78843 37.0351 3.94317 1.78843
93 2 37.0882 4.26158 -1.58731 37.0882 4.26158 -1.58731
94 1 37.9205 5.69617 0.253047 37.9205 5.69617 0.253047
95 2 39.7018 5.64831 1.9144 39.7018 5.64831 1.9144
96 2 39.9767 5.93377 -1.25642 39.9767 5.93377 -1.25642
97 1 40.7758 4.21213 0.270479 40.7758 4.21213 0.270479
98 2 42.664 4.01892 1.89014 42.664 4.01892 1.89014
99 2 42.6471 4.24891 -1.45164 42.6471 4.24891 -1.45164
100 1 43.5927 5.85054 0.368813 43.5927 5.85054 0.368813
101 2 45.671 5.72591 1.96425 45.671 5.72591 1.96425
102 2 45.3955 5.91399 -1.26473 45.3955 5.91399 -1.26473
103 1 46.4532 4.18164 0.193914 46.4532 4.18164 0.193914
104 2 48.3427 4.06589 1.8221 48.3427 4.06589 1.8221
105 2 48.2417 4.20774 -1.55885 48.2417 4.20774 -1.55885
106 1 49.263 5.82272 0.205561 49.263 5.82272 0.205561
107 2 51.0711 5.88541 1.91135 51.0711 5.88541 1.91135
108 2 51.2282 5.85319 -1.307 51.2282 5.85319 -1.307
109 1 52.2163 7.50289 0.392086 0.881482 7.50289 0.392086
110 2 2.71689 7.45883 2.1122 2.71689 7.45883 2.1122
111 2 2.83015 7.59437 -1.20295 2.83015 7.59437 -1.20295
112 1 3.82826 9.17026 0.513054 3.82826 9.17026 0.513054
113 2 5.87998 9.30513 1.88489 5.87998 9.30513 1.88489
114 2 5.45663 8.92518 -1.31147 5.45663 8.92518 -1.31147
115 1 6.49353 7.45244 0.370305 6.49353 7.45244 0.370305
116 2 8.49882 7.67485 1.96577 8.49882 7.67485 1.96577
117 2 8.35921 7.38605 -1.29094 8.35921 7.38605 -1.29094
118 1 9.44235 9.13075 0.201507 9.44235 9.13075 0.201507
119 2 11.5242 9.20999 1.5789 11.5242 9.20999 1.5789
120 2 11.0795 8.98728 -1.60734 11.0795 8.98728 -1.60734
121 1 12.2692 7.47456 0.0674013 12.2692 7.47456 0.0674013
122 2 14.1837 7.66355 1.66072 14.1837 7.66355 1.66072
123 2 14.1505 7.3295 -1.64373 14.1505 7.3295 -1.64373
124 1 15.0748 9.19367 -0.136187 15.0748 9.19367 -0.136187
125 2 17.0382 9.24538 1.48396 17.0382 9.24538 1.48396
126 2 16.9789 9.06084 -1.72307 16.9789 9.06084 -1.72307
127 1 17.9593 7.49558 -0.0716516 17.9593 7.49558 -0.0716516
128 2 19.868 7.45281 1.51708 19.868 7.45281 1.51708
129 2 19.9766 7.57362 -1.73627 19.9766 7.57362 -1.73627
130 1 20.8692 9.1566 -0.0645469 20.8692 9.1566 -0.0645469
131 2 22.5575 9.14576 1.82623 22.5575 9.14576 1.82623
132 2 22.9046 9.27371 -1.46291 22.9046 9.27371 -1.46291
133 1 23.6079 7.55177 0.309255 23.6079 7.55177 0.309255
134 2 25.6218 7.62284 1.82905 25.6218 7.62284 1.82905
135 2 25.5542 7.37081 -1.42001 25.5542 7.37081 -1.42001
136 1 26.5292 9.07963 0.127765 26.5292 9.07963 0.127765
137 2 28.1999 8.91671 1.96906 28.1999 8.91671 1.96906
138 2 28.5324 9.10487 -1.33195 28.5324 9.10487 -1.33195
139 1 29.4541 7.40975 0.374694 29.4541 7.40975 0.374694
140 2 31.4982 7.30364 1.8464 31.4982 7.30364 1.8464
141 2 31.1664 7.43253 -1.40894 31.1664 7.43253 -1.40894
142 1 32.2148 9.0177 0.233916 32.2148 9.0177 0.233916
143 2 34.193 9.01443 1.88563 34.193 9.01443 1.88563
144 2 34.2386 9.07166 -1.40687 34.2386 9.07166 -1.40687
145 1 35.1766 7.43137 0.313826 35.1766 7.43137 0.313826
146 2 37.0458 7.29103 1.95324 37.0458 7.29103 1.95324
147 2 37.0914 7.3785 -1.31987 37.0914 7.3785 -1.31987
148 1 37.9114 9.10517 0.556678 37.9114 9.10517 0.556678
149 2 39.8006 9.16698 2.16642 39.8006 9.16698 2.16642
150 2 39.8098 9.16497 -1.0435 39.8098 9.16497 -1.0435
151 1 40.7337 7.5428 0.491616 40.7337 7.5428 0.491616
152 2 42.7526 7.57755 1.92898 42.7526 7.57755 1.92898
153 2 42.6443 7.48989 -1.20844 42.6443 7.48989 -1.20844
154 1 43.71 9.15692 0.281468 43.71 9.15692 0.281468
155 2 45.6163 9.18916 1.91854 45.6163 9.18916 1.91854
156 2 45.6988 9.1173 -1.37135 45.6988 9.1173 -1.37135
157 1 46.4824 7.54239 0.277192 46.4824 7.54239 0.277192
158 2 48.4772 7.50467 1.75861 48.4772 7.50467 1.75861
159 2 48.2164 7.46812 -1.40988 48.2164 7.46812 -1.40988
160 1 49.3858 9.09051 -0.0101697 49.3858 9.09051 -0.0101697
161 2 51.166 9.26837 1.73837 51.166 9.26837 1.73837
162 2 51.3536 8.86246 -1.55952 51.3536 8.86246 -1.55952
163 1 52.219 10.6853 -0.0696246 0.884112 10.6853 -0.0696246
164 2 2.49413 10.7944 1.88925 2.49413 10.7944 1.88925
165 2 3.01671 10.5998 -1.31658 3.01671 10.5998 -1.31658
166 1 3.6734 12.4243 0.32409 3.6734 12.4243 0.32409
167 2 5.76627 12.6024 1.71166 5.76627 12.6024 1.71166
168 2 5.35192 12.4034 -1.51067 5.35192 12.4034 -1.51067
169 1 6.53621 10.7716 0.0469933 6.53621 10.7716 0.0469933
170 2 8.45653 11.0884 1.71275 8.45653 11.0884 1.71275
171 2 8.29852 10.5914 -1.62005 8.29852 10.5914 -1.62005
172 1 9.28672 12.4161 -0.163457 9.28672 12.4161 -0.163457
173 2 11.2718 12.4505 1.42266 11.2718 12.4505 1.42266
174 2 11.1746 12.3794 -1.88978 11.1746 12.3794 -1.88978
175 1 12.1953 10.7549 -0.223097 12.1953 10.7549 -0.223097
176 2 14.0122 10.9094 1.38453 14.0122 10.9094 1.38453
177 2 14.0721 10.5749 -1.92431 14.0721 10.5749 -1.92431
178 1 15.1183 12.3566 -0.448399 15.1183 12.3566 -0.448399
179 2 16.955 12.3035 1.39039 16.955 12.3035 1.39039
180 2 17.2252 12.3394 -1.86641 17.2252 12.3394 -1.86641
181 1 18.0338 10.7562 -0.224455 18.0338 10.7562 -0.224455
182 2 19.7758 10.7424 1.5662 19.7758 10.7424 1.5662
183 2 20.1072 10.8852 -1.72174 20.1072 10.8852 -1.72174
184 1 20.8096 12.4037 0.0396713 20.8096 12.4037 0.0396713
185 2 22.653 12.5886 1.73571 22.653 12.5886 1.73571
186 2 22.8118 12.3558 -1.45643 22.8118 12.3558 -1.45643
187 1 23.668 10.8295 0.297597 23.668 10.8295 0.297597
188 2 25.5385 10.529 1.89241 25.5385 10.529 1.89241
189 2 25.462 10.9548 -1.35775 25.462 10.9548 -1.35775
190 1 26.5516 12.3825 0.429612 26.5516 12.3825 0.429612
191 2 28.2739 12.3304 2.18637 28.2739 12.3304 2.18637
192 2 28.4448 12.3947 -1.13364 28.4448 12.3947 -1.13364
193 1 29.3742 10.6678 0.430497 29.3742 10.6678 0.430497
194 2 31.3594 10.583 2.00907 31.3594 10.583 2.00907
195 2 31.1555 10.742 -1.26492 31.1555 10.742 -1.26492
196 1 32.1695 12.4022 0.387369 32.1695 12.4022 0.387369
197 2 34.2077 12.4595 1.90591 34.2077 12.4595 1.90591
198 2 34.0708 12.3637 -1.32392 34.0708 12.3637 -1.32392
199 1 35.0366 10.7516 0.306484 35.0366 10.7516 0.306484
200 2 36.6438 10.695 2.05455 36.6438 10.695 2.05455
201 2 37.0853 10.8067 -1.14736 37.0853 10.8067 -1.14736
202 1 37.9262 12.3528 0.606543 37.9262 12.3528 0.606543
203 2 39.776 12.5551 2.14647 39.776 12.5551 2.14647
204 2 39.7931 12.3116 -1.03957 39.7931 12.3116 -1.03957
205 1 40.7628 10.7641 0.639601 40.7628 10.7641 0.639601
206 2 42.8737 10.7464 2.08193 42.8737 10.7464 2.08193
207 2 42.5294 10.7287 -1.15011 42.5294 10.7287 -1.15011
208 1 43.6258 12.4169 0.326834 43.6258 12.4169 0.326834
209 2 45.5863 12.6046 1.85263 45.5863 12.6046 1.85263
210 2 45.4598 12.3126 -1.31866 45.4598 12.3126 -1.31866
211 1 46.5217 10.8364 0.305583 46.5217 10.8364 0.305583
212 2 48.5781 10.8133 1.72043 48.5781 10.8133 1.72043
213 2 48.3549 10.6168 -1.54065 48.3549 10.6168 -1.54065
214 1 49.3861 12.4134 -0.00938248 49.3861 12.4134 -0.00938248
215 2 51.2544 12.3356 1.57326 51.2544 12.3356 1.57326
216 2 51.3164 12.4315 -1.69718 51.3164 12.4315 -1.69718
217 1 52.1778 14.0912 0.0601802 0.842976 14.0912 0.0601802
218 2 2.52544 14.121 1.84657 2.52544 14.121 1.84657
219 2 2.76949 14.0887 -1.42112 2.76949 14.0887 -1.42112
220 1 3.6719 15.7702 0.249588 3.6719 15.7702 0.249588
221 2 5.69277 15.8535 1.62114 5.69277 15.8535 1.62114
222 2 5.41778 15.728 -1.66486 5.41778 15.728 -1.66486
223 1 6.50725 14.1728 -0.0820523 6.50725 14.1728 -0.0820523
224 2 8.48601 14.0858 1.46755 8.48601 14.0858 1.46755
225 2 8.36535 14.1811 -1.76003 8.36535 14.1811 -1.76003
226 1 9.3742 15.7998 -0.0764919 9.3742 15.7998 -0.0764919
227 2 11.3039 15.6226 1.51036 11.3039 15.6226 1.51036
228 2 11.3119 15.8525 -1.78714 11.3119 15.8525 -1.78714
229 1 12.2526 14.1369 -0.271142 12.2526 14.1369 -0.271142
230 2 14.103 13.9075 1.40164 14.103 13.9075 1.40164
231 2 14.1794 14.198 -1.8669 14.1794 14.198 -1.8669
232 1 15.1163 15.8013 -0.0215261 15.1163 15.8013 -0.0215261
233 2 17.0706 15.5775 1.59962 17.0706 15.5775 1.59962
234 2 16.9785 15.7257 -1.73681 16.9785 15.7257 -1.73681
235 1 17.9701 14.0433 -0.106063 17.9701 14.0433 -0.106063
236 2 19.6867 13.9518 1.7474 19.6867 13.9518 1.7474
237 2 19.9513 14.0643 -1.61557 19.9513 14.0643 -1.61557
238 1 20.8093 15.6715 0.149439 20.8093 15.6715 0.149439
239 2 22.6442 15.7573 1.78679 22.6442 15.7573 1.78679
240 2 22.6512 15.6867 -1.53526 22.6512 15.6867 -1.53526
241 1 23.6779 14.1016 0.194216 23.6779 14.1016 0.194216
242 2 25.4569 14.0237 1.9509 25.4569 14.0237 1.9509
243 2 25.7011 14.0541 -1.2778 25.7011 14.0541 -1.2778
244 1 26.4719 15.6985 0.385481 26.4719 15.6985 0.385481
245 2 28.4236 15.8631 2.03435 28.4236 15.8631 2.03435
246 2 28.3824 15.5145 -1.13324 28.3824 15.5145 -1.13324
247 1 29.4141 14.0107 0.585055 29.4141 14.0107 0.585055
248 2 31.4999 14.0772 2.05001 31.4999 14.0772 2.05001
249 2 31.1129 13.923 -1.23335 31.1129 13.923 -1.23335
250 1 32.1649 15.7428 0.188354 32.1649 15.7428 0.188354
251 2 33.9768 15.6677 1.79819 33.9768 15.6677 1.79819
252 2 34.161 15.8891 -1.53355 34.161 15.8891 -1.53355
253 1 35.1518 14.1441 0.125946 35.1518 14.1441 0.125946
254 2 36.8354 14.2624 1.9939 36.8354 14.2624 1.9939
255 2 37.2042 13.9799 -1.26102 37.2042 13.9799 -1.26102
256 1 37.9605 15.6731 0.343494 37.9605 15.6731 0.343494
257 2 39.8982 15.8006 1.8971 39.8982 15.8006 1.8971
258 2 39.7115 15.567 -1.38149 39.7115 15.567 -1.38149
259 1 40.8099 14.013 0.431084 40.8099 14.013 0.431084
260 2 42.7753 14.149 1.86994 42.7753 14.149 1.86994
261 2 42.5688 13.9368 -1.40715 42.5688 13.9368 -1.40715
262 1 43.5732 15.7211 0.0915114 43.5732 15.7211 0.0915114
263 2 45.5437 15.746 1.65341 45.5437 15.746 1.65341
264 2 45.5857 15.7608 -1.60537 45.5857 15.7608 -1.60537
265 1 46.5388 14.0831 0.142207 46.5388 14.0831 0.142207
266 2 48.4855 14.0262 1.63089 48.4855 14.0262 1.63089
267 2 48.4203 14.0925 -1.58543 48.4203 14.0925 -1.58543
268 1 49.3612 15.8182 -0.00226822 49.3612 15.8182 -0.00226822
269 2 51.2539 15.8656 1.63958 51.2539 15.8656 1.63958
270 2 51.2621 15.6953 -1.65845 51.2621 15.6953 -1.65845
271 1 52.1844 17.386 -0.141285 0.849527 17.386 -0.141285
272 2 2.57651 17.5053 1.62514 2.57651 17.5053 1.62514
273 2 2.88575 17.2931 -1.60868 2.88575 17.2931 -1.60868
274 1 3.70856 19.0513 -0.00893931 3.70856 19.0513 -0.00893931
275 2 5.66311 19.0495 1.58161 5.66311 19.0495 1.58161
276 2 5.55603 19.0166 -1.73182 5.55603 19.0166 -1.73182
277 1 6.46446 17.4623 -0.0854472 6.46446 17.4623 -0.0854472
278 2 8.27014 17.405 1.53786 8.27014 17.405 1.53786
279 2 8.47609 17.4961 -1.58549 8.47609 17.4961 -1.58549
280 1 9.38826 19.1011 0.0667845 9.38826 19.1011 0.0667845
281 2 11.3169 18.9527 1.65345 11.3169 18.9527 1.65345
282 2 11.2364 19.048 -1.61911 11.2364 19.048 -1.61911
283 1 12.2311 17.4452 0.0218307 12.2311 17.4452 0.0218307
284 2 14.2889 17.521 1.59832 14.2889 17.521 1.59832
285 2 14.0241 17.2787 -1.69964 14.0241 17.2787 -1.69964
286 1 15.0174 19.0885 -0.230129 15.0174 19.0885 -0.230129
287 2 16.9202 18.8351 1.4906 16.9202 18.8351 1.4906
288 2 17.0259 19.0192 -1.75655 17.0259 19.0192 -1.75655
289 1 17.983 17.2423 -0.104834 17.983 17.2423 -0.104834
290 2 19.8393 17.3559 1.71108 19.8393 17.3559 1.71108
291 2 19.9087 17.3872 -1.64806 19.9087 17.3872 -1.64806
292 1 20.7682 18.9973 0.126128 20.7682 18.9973 0.126128
293 2 22.6862 19.0491 1.78082 22.6862 19.0491 1.78082
294 2 22.6021 19.0844 -1.49142 22.6021 19.0844 -1.49142
295 1 23.6385 17.3841 0.0961548 23.6385 17.3841 0.0961548
296 2 25.4551 17.4608 1.87081 25.4551 17.4608 1.87081
297 2 25.538 17.2093 -1.55328 25.538 17.2093 -1.55328
298 1 26.438 18.9761 0.101971 26.438 18.9761 0.101971
299 2 28.3231 19.1436 1.76574 28.3231 19.1436 1.76574
300 2 28.3661 18.7628 -1.45711 28.3661 18.7628 -1.45711
301 1 29.3211 17.3566 0.31827 29.3211 17.3566 0.31827
302 2 31.1572 17.4011 1.89429 31.1572 17.4011 1.89429
303 2 31.1344 17.5148 -1.36324 31.1344 17.5148 -1.36324
304 1 32.1983 19.0013 0.288456 32.1983 19.0013 0.288456
305 2 34.1797 18.9638 1.97309 34.1797 18.9638 1.97309
306 2 34.0118 19.0426 -1.29544 34.0118 19.0426 -1.29544
307 1 35.0069 17.4075 0.29866 35.0069 17.4075 0.29866
308 2 36.9596 17.4946 1.88048 36.9596 17.4946 1.88048
309 2 36.9161 17.2601 -1.27663 36.9161 17.2601 -1.27663
310 1 37.947 18.8807 0.11322 37.947 18.8807 0.11322
311 2 39.9329 19.0711 1.73332 39.9329 19.0711 1.73332
312 2 39.8525 18.9408 -1.54306 39.8525 18.9408 -1.54306
313 1 40.7868 17.3339 0.136007 40.7868 17.3339 0.136007
314 2 42.6537 17.3196 1.82323 42.6537 17.3196 1.82323
315 2 42.6257 17.3529 -1.44894 42.6257 17.3529 -1.44894
316 1 43.6375 18.9804 0.211875 43.6375 18.9804 0.211875
317 2 45.674 19.1355 1.66992 45.674 19.1355 1.66992
318 2 45.3491 18.988 -1.63899 45.3491 18.988 -1.63899
319 1 46.4122 17.3825 0.0711165 46.4122 17.3825 0.0711165
320 2 48.5857 17.6088 1.58378 48.5857 17.6088 1.58378
321 2 48.2326 17.2968 -1.74533 48.2326 17.2968 -1.74533
322 1 49.3006 19.0363 -0.276851 49.3006 19.0363 -0.276851
323 2 51.2122 19.1327 1.45246 51.2122 19.1327 1.45246
324 2 51.1984 18.9732 -1.74117 51.1984 18.9732 -1.74117
325 1 52.2199 20.7415 -0.19766 0.885047 20.7415 -0.19766
326 2 2.72386 20.8113 1.47528 2.72386 20.8113 1.47528
327 2 2.80908 20.6491 -1.82047 2.80908 20.6491 -1.82047
328 1 3.7458 22.3084 -0.244171 3.7458 22.3084 -0.244171
329 2 5.72084 22.5043 1.46027 5.72084 22.5043 1.46027
330 2 5.63786 22.2996 -1.90438 5.63786 22.2996 -1.90438
331 1 6.5688 20.7239 -0.10486 6.5688 20.7239 -0.10486
332 2 8.33072 20.6518 1.65591 8.33072 20.6518 1.65591
333 2 8.6207 20.7477 -1.63326 8.6207 20.7477 -1.63326
334 1 9.32556 22.3503 0.157733 9.32556 22.3503 0.157733
335 2 11.2643 22.4268 1.73734 11.2643 22.4268 1.73734
336 2 11.2445 22.451 -1.53663 11.2445 22.451 -1.53663
337 1 12.1453 20.7187 0.116531 12.1453 20.7187 0.116531
338 2 14.1216 20.6452 1.60177 14.1216 20.6452 1.60177
339 2 13.9703 20.8301 -1.65902 13.9703 20.8301 -1.65902
340 1 15.0221 22.4164 -0.00848323 15.0221 22.4164 -0.00848323
341 2 16.9859 22.3196 1.6386 16.9859 22.3196 1.6386
342 2 16.9629 22.2656 -1.69797 16.9629 22.2656 -1.69797
343 1 17.9081 20.6533 -0.00720839 17.9081 20.6533 -0.00720839
344 2 19.7721 20.5875 1.68918 19.7721 20.5875 1.68918
345 2 19.8536 20.7468 -1.50026 19.8536 20.7468 -1.50026
346 1 20.6865 22.3306 0.216661 20.6865 22.3306 0.216661
347 2 22.4408 22.2148 1.93382 22.4408 22.2148 1.93382
348 2 22.6066 22.3434 -1.42597 22.6066 22.3434 -1.42597
349 1 23.5883 20.6745 0.135633 23.5883 20.6745 0.135633
350 2 25.4522 20.6387 1.71597 25.4522 20.6387 1.71597
351 2 25.445 20.6584 -1.52956 25.445 20.6584 -1.52956
352 1 26.4252 22.3155 0.0211037 26.4252 22.3155 0.0211037
353 2 28.2912 22.3735 1.72072 28.2912 22.3735 1.72072
354 2 28.3291 22.3491 -1.63057 28.3291 22.3491 -1.63057
355 1 29.2398 20.6509 -0.177544 29.2398 20.6509 -0.177544
356 2 30.9098 20.5417 1.69305 30.9098 20.5417 1.69305
357 2 31.4745 20.7021 -1.45777 31.4745 20.7021 -1.45777
358 1 32.1441 22.2629 0.275992 32.1441 22.2629 0.275992
359 2 34.1793 22.2436 1.96844 34.1793 22.2436 1.96844
360 2 34.0765 22.2423 -1.37252 34.0765 22.2423 -1.37252
361 1 35.0736 20.6136 0.350462 35.0736 20.6136 0.350462
362 2 37.0549 20.5655 1.80643 37.0549 20.5655 1.80643
363 2 36.8426 20.57 -1.42029 36.8426 20.57 -1.42029
364 1 37.8803 22.2502 0.129707 37.8803 22.2502 0.129707
365 2 39.8759 22.3915 1.63613 39.8759 22.3915 1.63613
366 2 39.7167 22.1158 -1.62449 39.7167 22.1158 -1.62449
367 1 40.7798 20.7167 0.0550835 40.7798 20.7167 0.0550835
368 2 42.6593 20.7537 1.65556 42.6593 20.7537 1.65556
369 2 42.5847 20.5067 -1.51578 42.5847 20.5067 -1.51578
370 1 43.5941 22.1712 -0.0795755 43.5941 22.1712 -0.0795755
371 2 45.2937 22.075 1.58846 45.2937 22.075 1.58846
372 2 45.4923 22.456 -1.74896 45.4923 22.456 -1.74896
373 1 46.4472 20.7108 -0.13627 46.4472 20.7108 -0.13627
374 2 48.3205 20.5964 1.48427 48.3205 20.5964 1.48427
375 2 48.4033 20.9355 -1.75001 48.4033 20.9355 -1.75001
376 1 49.3239 22.317 0.106036 49.3239 22.317 0.106036
377 2 51.3986 22.2742 1.60411 51.3986 22.2742 1.60411
378 2 51.1221 22.465 -1.61507 51.1221 22.465 -1.61507
379 1 52.2397 24.0452 -0.0697706 0.904862 24.0452 -0.0697706
380 2 2.88091 24.0517 1.36969 2.88091 24.0517 1.36969
381 2 2.63779 23.9243 -1.83903 2.63779 23.9243 -1.83903
382 1 3.75379 25.6693 -0.314868 3.75379 25.6693 -0.314868
383 2 5.55903 25.464 1.41096 5.55903 25.464 1.41096
384 2 5.8349 25.7463 -1.86046 5.8349 25.7463 -1.86046
385 1 6.65387 23.9897 -0.280099 6.65387 23.9897 -0.280099
386 2 8.29689 24.1118 1.6091 8.29689 24.1118 1.6091
387 2 8.62494 23.8189 -1.7049 8.62494 23.8189 -1.7049
388 1 9.39179 25.6797 -0.0886193 9.39179 25.6797 -0.0886193
389 2 11.098 25.6927 1.74011 11.098 25.6927 1.74011
390 2 11.3893 25.7657 -1.60991 11.3893 25.7657 -1.60991
391 1 12.1245 24.0421 0.0496172 12.1245 24.0421 0.0496172
392 2 14.0488 24.0677 1.67992 14.0488 24.0677 1.67992
393 2 13.947 24.066 -1.6367 13.947 24.066 -1.6367
394 1 15.043 25.6351 -0.0703166 15.043 25.6351 -0.0703166
395 2 16.915 25.6555 1.63914 16.915 25.6555 1.63914
396 2 16.906 25.5043 -1.67121 16.906 25.5043 -1.67121
397 1 17.8702 23.9992 0.0821364 17.8702 23.9992 0.0821364
398 2 19.5892 23.9301 1.81096 19.5892 23.9301 1.81096
399 2 19.8399 24.1452 -1.42609 19.8399 24.1452 -1.42609
400 1 20.7632 25.6213 0.304334 20.7632 25.6213 0.304334
401 2 22.6362 25.7171 1.95946 22.6362 25.7171 1.95946
402 2 22.6754 25.5754 -1.26221 22.6754 25.5754 -1.26221
403 1 23.5684 23.9851 0.408856 23.5684 23.9851 0.408856
404 2 25.7698 23.9267 1.73149 25.7698 23.9267 1.73149
405 2 25.243 23.9598 -1.50833 25.243 23.9598 -1.50833
406 1 26.4594 25.5939 0.00133019 26.4594 25.5939 0.00133019
407 2 28.2437 25.5577 1.65539 28.2437 25.5577 1.65539
408 2 28.3931 25.6928 -1.54282 28.3931 25.6928 -1.54282
409 1 29.2543 23.8954 0.0327952 29.2543 23.8954 0.0327952
410 2 30.9906 23.9482 1.81901 30.9906 23.9482 1.81901
411 2 31.2778 23.8251 -1.41073 31.2778 23.8251 -1.41073
412 1 32.1739 25.6166 0.169906 32.1739 25.6166 0.169906
413 2 33.9646 25.5294 1.92452 33.9646 25.5294 1.92452
414 2 34.153 25.5942 -1.22687 34.153 25.5942 -1.22687
415 1 35.0396 23.961 0.330681 35.0396 23.961 0.330681
416 2 37.0486 23.9246 1.82462 37.0486 23.9246 1.82462
417 2 36.8539 23.8387 -1.41726 36.8539 23.8387 -1.41726
418 1 37.9134 25.5284 0.0934213 37.9134 25.5284 0.0934213
419 2 39.9514 25.4507 1.53193 39.9514 25.4507 1.53193
420 2 39.6149 25.4328 -1.68259 39.6149 25.4328 -1.68259
421 1 40.7809 23.9008 -0.229835 40.7809 23.9008 -0.229835
422 2 42.7809 23.8411 1.41902 42.7809 23.8411 1.41902
423 2 42.8075 23.8081 -1.87057 42.8075 23.8081 -1.87057
424 1 43.682 25.5712 -0.168259 43.682 25.5712 -0.168259
425 2 45.3372 25.6329 1.60734 45.3372 25.6329 1.60734
426 2 45.635 25.5958 -1.65963 45.635 25.5958 -1.65963
427 1 46.4301 23.9467 0.128701 46.4301 23.9467 0.128701
428 2 48.4841 24.0172 1.72443 48.4841 24.0172 1.72443
429 2 48.3018 23.8165 -1.56486 48.3018 23.8165 -1.56486
430 1 49.2786 25.5611 -0.119325 49.2786 25.5611 -0.119325
431 2 51.1835 25.5489 1.65966 51.1835 25.5489 1.65966
432 2 51.4287 25.6978 -1.61381 51.4287 25.6978 -1.61381
433 1 52.2508 27.2757 0.0820701 0.915915 27.2757 0.0820701
434 2 2.7968 27.1923 1.57917 2.7968 27.1923 1.57917
435 2 2.7383 27.4336 -1.68906 2.7383 27.4336 -1.68906
436 1 3.74084 28.8998 0.062596 3.74084 28.8998 0.062596
437 2 5.66933 29.0347 1.67038 5.66933 29.0347 1.67038
438 2 5.66184 28.9441 -1.62212 5.66184 28.9441 -1.62212
439 1 6.51788 27.2677 0.00356585 6.51788 27.2677 0.00356585
440 2 8.41288 27.2135 1.62239 8.41288 27.2135 1.62239
441 2 8.43762 27.3982 -1.70437 8.43762 27.3982 -1.70437
442 1 9.31693 28.9048 0.0652043 9.31693 28.9048 0.0652043
443 2 11.1607 28.9554 1.86957 11.1607 28.9554 1.86957
444 2 11.3306 29.0702 -1.43156 11.3306 29.0702 -1.43156
445 1 12.2875 27.3602 0.182602 12.2875 27.3602 0.182602
446 2 14.2946 27.1447 1.66258 14.2946 27.1447 1.66258
447 2 14.0532 27.3825 -1.56744 14.0532 27.3825 -1.56744
448 1 15.119 28.8812 0.133369 15.119 28.8812 0.133369
449 2 17.061 28.7629 1.7733 17.061 28.7629 1.7733
450 2 17.0253 29.0151 -1.5578 17.0253 29.0151 -1.5578
451 1 17.9279 27.2001 -0.0728994 17.9279 27.2001 -0.0728994
452 2 19.6285 27.3402 1.79662 19.6285 27.3402 1.79662
453 2 20.0029 27.2617 -1.41875 20.0029 27.2617 -1.41875
454 1 20.7201 28.8448 0.286508 20.7201 28.8448 0.286508
455 2 22.7321 28.9553 1.86218 22.7321 28.9553 1.86218
456 2 22.6634 28.9344 -1.42855 22.6634 28.9344 -1.42855
457 1 23.6148 27.2774 0.241924 23.6148 27.2774 0.241924
458 2 25.6536 27.1669 1.71242 25.6536 27.1669 1.71242
459 2 25.2733 27.1844 -1.55982 25.2733 27.1844 -1.55982
460 1 26.4038 28.8321 -0.0374664 26.4038 28.8321 -0.0374664
461 2 28.3181 29.0202 1.65875 28.3181 29.0202 1.65875
462 2 28.3851 28.7036 -1.64476 28.3851 28.7036 -1.64476
463 1 29.3589 27.2659 0.162545 29.3589 27.2659 0.162545
464 2 31.168 27.1582 1.80139 31.168 27.1582 1.80139
465 2 31.115 27.3372 -1.42499 31.115 27.3372 -1.42499
466 1 32.1609 28.872 0.364459 32.1609 28.872 0.364459
467 2 34.0322 29.1063 1.94159 34.0322 29.1063 1.94159
468 2 34.0133 28.6588 -1.32712 34.0133 28.6588 -1.32712
469 1 35.0876 27.2802 0.431631 35.0876 27.2802 0.431631
470 2 37.1343 27.1507 1.84507 37.1343 27.1507 1.84507
471 2 36.9096 27.147 -1.54354 36.9096 27.147 -1.54354
472 1 37.9408 28.8183 0.0131751 37.9408 28.8183 0.0131751
473 2 39.8895 28.9124 1.52101 39.8895 28.9124 1.52101
474 2 39.7214 28.739 -1.80411 39.7214 28.739 -1.80411
475 1 40.7958 27.1433 -0.157695 40.7958 27.1433 -0.157695
476 2 42.7036 27.3411 1.40272 42.7036 27.3411 1.40272
477 2 42.5957 27.1489 -1.9308 42.5957 27.1489 -1.9308
478 1 43.6429 28.8522 -0.410563 43.6429 28.8522 -0.410563
479 2 45.3998 29.0424 1.38113 45.3998 29.0424 1.38113
480 2 45.6521 28.5748 -1.91076 45.6521 28.5748 -1.91076
481 1 46.4837 27.191 -0.00980625 46.4837 27.191 -0.00980625
482 2 48.3977 27.2526 1.6074 48.3977 27.2526 1.6074
483 2 48.3823 27.1974 -1.72361 48.3823 27.1974 -1.72361
484 1 49.3169 28.8718 -0.146894 49.3169 28.8718 -0.146894
485 2 51.1219 28.8725 1.57584 51.1219 28.8725 1.57584
486 2 51.2974 28.9343 -1.65622 51.2974 28.9343 -1.65622
487 1 52.1516 30.6271 0.00293295 0.816796 30.6271 0.00293295
488 2 2.6811 30.5086 1.66064 2.6811 30.5086 1.66064
489 2 2.79286 30.5405 -1.59049 2.79286 30.5405 -1.59049
490 1 3.70413 32.212 0.0474779 3.70413 32.212 0.0474779
491 2 5.65334 32.228 1.57671 5.65334 32.228 1.57671
492 2 5.5991 32.1539 -1.64977 5.5991 32.1539 -1.64977
493 1 6.59683 30.5654 -0.0135721 6.59683 30.5654 -0.0135721
494 2 8.4367 30.5231 1.67341 8.4367 30.5231 1.67341
495 2 8.47201 30.6263 -1.5843 8.47201 30.6263 -1.5843
496 1 9.37907 32.1924 0.112845 9.37907 32.1924 0.112845
497 2 11.2134 32.2408 1.84383 11.2134 32.2408 1.84383
498 2 11.3548 32.1281 -1.45341 11.3548 32.1281 -1.45341
499 1 12.2409 30.5898 0.290681 12.2409 30.5898 0.290681
500 2 14.1936 30.6279 1.84468 14.1936 30.6279 1.84468
501 2 14.1193 30.6901 -1.41156 14.1193 30.6901 -1.41156
502 1 15.0691 32.2444 0.285321 15.0691 32.2444 0.285321
503 2 17.0601 32.3465 1.80524 17.0601 32.3465 1.80524
504 2 16.8486 32.0501 -1.42136 16.8486 32.0501 -1.42136
505 1 17.9088 30.5342 0.238665 17.9088 30.5342 0.238665
506 2 19.7972 30.5702 1.86176 19.7972 30.5702 1.86176
507 2 19.7615 30.4639 -1.40551 19.7615 30.4639 -1.40551
508 1 20.7376 32.165 0.178061 20.7376 32.165 0.178061
509 2 22.7666 32.1769 1.72057 22.7666 32.1769 1.72057
510 2 22.5851 32.1581 -1.54892 22.5851 32.1581 -1.54892
511 1 23.6233 30.5549 0.126415 23.6233 30.5549 0.126415
512 2 25.6525 30.6259 1.5671 25.6525 30.6259 1.5671
513 2 25.3143 30.535 -1.7343 25.3143 30.535 -1.7343
514 1 26.5875 32.1528 -0.247944 26.5875 32.1528 -0.247944
515 2 28.3867 32.18 1.42363 28.3867 32.18 1.42363
516 2 28.5691 32.0379 -1.88267 28.5691 32.0379 -1.88267
517 1 29.3192 30.4154 -0.14115 29.3192 30.4154 -0.14115
518 2 31.0056 30.692 1.68502 31.0056 30.692 1.68502
519 2 31.4518 30.4334 -1.52173 31.4518 30.4334 -1.52173
520 1 32.1143 32.2292 -0.0276764 32.1143 32.2292 -0.0276764
521 2 34.0597 32.3051 1.59233 34.0597 32.3051 1.59233
522 2 33.9633 32.2854 -1.73412 33.9633 32.2854 -1.73412
523 1 34.9952 30.5388 0.0819201 34.9952 30.5388 0.0819201
524 2 37.0619 30.7293 1.38991 37.0619 30.7293 1.38991
525 2 36.8312 30.1921 -1.82747 36.8312 30.1921 -1.82747
526 1 37.8709 32.1162 -0.485491 37.8709 32.1162 -0.485491
527 2 39.7373 32.0388 1.15103 39.7373 32.0388 1.15103
528 2 39.8832 32.0457 -2.05654 39.8832 32.0457 -2.05654
529 1 40.8221 30.4883 -0.35197 40.8221 30.4883 -0.35197
530 2 42.7556 30.5522 1.26581 42.7556 30.5522 1.26581
531 2 42.707 30.5175 -2.02693 42.707 30.5175 -2.02693
532 1 43.5634 32.2153 -0.397195 43.5634 32.2153 -0.397195
533 2 45.3719 32.2547 1.35259 45.3719 32.2547 1.35259
534 2 45.5302 32.2557 -1.90371 45.5302 32.2557 -1.90371
535 1 46.4422 30.5404 -0.301693 46.4422 30.5404 -0.301693
536 2 48.3971 30.5037 1.5039 48.3971 30.5037 1.5039
537 2 48.4835 30.5694 -1.81865 48.4835 30.5694 -1.81865
538 1 49.3075 32.2044 -0.0222655 49.3075 32.2044 -0.0222655
539 2 51.3104 32.3504 1.53964 51.3104 32.3504 1.53964
540 2 51.2617 32.1429 -1.67518 51.2617 32.1429 -1.67518