ITEM: TIMESTEP
26200
ITEM: NUMBER OF ATOMS
810
ITEM: BOX BOUNDS pp pp pp
8.4137701477268123e-01 5.2176227985227342e+01
8.0961581116522285e-01 5.0206599188834083e+01
-1.0000000000000000e+01 1.0000000000000000e+01
ITEM: ATOMS id type x y z xu yu zu
1 1 1.02727 1.1042 0.230456 1.02727 1.1042 0.230456
2 2 3.02525 1.1349 1.97843 3.02525 1.1349 1.97843
3 2 3.07672 1.23541 -1.36076 3.07672 1.23541 -1.36076
4 1 3.93368 2.84115 0.31723 3.93368 2.84115 0.31723
5 2 5.64444 2.74148 2.13763 5.64444 2.74148 2.13763
6 2 5.88726 2.96718 -1.16074 5.88726 2.96718 -1.16074
7 1 6.74426 1.26507 0.420412 6.74426 1.26507 0.420412
8 2 8.59767 0.81391 1.99848 8.59767 0.81391 1.99848
9 2 8.59124 1.35611 -1.23343 8.59124 1.35611 -1.23343
10 1 9.70028 2.59903 0.61914 9.70028 2.59903 0.61914
11 2 11.8185 2.52418 1.92859 11.8185 2.52418 1.92859
12 2 11.362 2.838 -1.28601 11.362 2.838 -1.28601
13 1 12.5426 1.06663 -0.0912785 12.5426 1.06663 -0.0912785
14 2 14.5077 0.833322 1.46114 14.5077 0.833322 1.46114
15 2 14.3797 1.07951 -1.77362 14.3797 1.07951 -1.77362
16 1 15.3814 2.69191 -0.0617257 15.3814 2.69191 -0.0617257
17 2 17.5345 2.48921 1.2591 17.5345 2.48921 1.2591
18 2 17.0691 2.88114 -1.84002 17.0691 2.88114 -1.84002
19 1 18.2057 1.06212 -0.623136 18.2057 1.06212 -0.623136
20 2 20.1946 1.00855 0.84816 20.1946 1.00855 0.84816
21 2 19.9968 1.10739 -2.32858 19.9968 1.10739 -2.32858
22 1 21.0483 2.64907 -0.71596 21.0483 2.64907 -0.71596
23 2 22.8894 2.59423 0.878122 22.8894 2.59423 0.878122
24 2 22.8854 2.86459 -2.4764 22.8854 2.86459 -2.4764
25 1 23.851 1.02495 -0.969516 23.851 1.02495 -0.969516
26 2 25.6992 0.776133 0.835081 25.6992 0.776133 0.835081
27 2 25.8379 1.21043 -2.41851 25.8379 1.21043 -2.41851
28 1 26.7286 2.65685 -0.586131 26.7286 2.65685 -0.586131
29 2 28.7776 2.75373 0.887831 28.7776 2.75373 0.887831
30 2 28.5127 2.57698 -2.4126 28.5127 2.57698 -2.4126
31 1 29.5669 1.08188 -0.756158 29.5669 1.08188 -0.756158
32 2 31.3668 1.23545 0.989144 31.3668 1.23545 0.989144
33 2 31.6402 0.911379 -2.25348 31.6402 0.911379 -2.25348
34 1 32.5336 2.76179 -0.724118 32.5336 2.76179 -0.724118
35 2 34.2203 2.55572 1.04928 34.2203 2.55572 1.04928
36 2 34.5518 2.8256 -2.13201 34.5518 2.8256 -2.13201
37 1 35.2452 0.969998 -0.716034 35.2452 0.969998 -0.716034
38 2 36.9443 1.09046 1.07251 36.9443 1.09046 1.07251
39 2 37.3369 0.922536 -2.10989 37.3369 0.922536 -2.10989
40 1 38.0266 2.64147 -0.445494 38.0266 2.64147 -0.445494
41 2 39.6512 2.61118 1.42529 39.6512 2.61118 1.42529
42 2 40.1964 2.5695 -1.7542 40.1964 2.5695 -1.7542
43 1 40.9842 1.02493 0.0706682 40.9842 1.02493 0.0706682
44 2 42.9599 0.987173 1.7499 42.9599 0.987173 1.7499
45 2 42.906 1.03513 -1.48589 42.906 1.03513 -1.48589
46 1 43.8924 2.73329 0.150383 43.8924 2.73329 0.150383
47 2 45.7273 2.62224 1.89053 45.7273 2.62224 1.89053
48 2 45.7661 2.90721 -1.50613 45.7661 2.90721 -1.50613
49 1 46.744 1.0903 0.0434449 46.744 1.0903 0.0434449
50 2 48.5555 0.89422 1.61429 48.5555 0.89422 1.61429
51 2 48.6266 1.34578 -1.53357 48.6266 1.34578 -1.53357
52 1 49.627 2.80252 0.267278 49.627 2.80252 0.267278
53 2 51.5939 2.68785 1.90334 51.5939 2.68785 1.90334
54 2 51.4414 2.79283 -1.38497 51.4414 2.79283 -1.38497
55 1 1.14488 4.36983 0.240332 1.14488 4.36983 0.240332
56 2 3.02416 4.3741 2.00012 3.02416 4.3741 2.00012
57 2 3.079 4.52804 -1.30244 3.079 4.52804 -1.30244
58 1 4.00413 6.13018 0.420959 4.00413 6.13018 0.420959
59 2 5.78624 6.12806 2.19113 5.78624 6.12806 2.19113
60 2 5.95856 5.99645 -1.08334 5.95856 5.99645 -1.08334
61 1 6.8707 4.36361 0.685096 6.8707 4.36361 0.685096
62 2 8.76586 4.31392 2.24521 8.76586 4.31392 2.24521
63 2 8.71184 4.39259 -1.03904 8.71184 4.39259 -1.03904
64 1 9.70713 5.93384 0.599568 9.70713 5.93384 0.599568
65 2 11.7868 5.88836 2.17372 11.7868 5.88836 2.17372
66 2 11.5206 6.12924 -1.14235 11.5206 6.12924 -1.14235
67 1 12.6455 4.30744 0.354225 12.6455 4.30744 0.354225
68 2 14.6567 4.26967 1.77193 14.6567 4.26967 1.77193
69 2 14.3267 4.38944 -1.51679 14.3267 4.38944 -1.51679
70 1 15.3555 5.98606 0.197978 15.3555 5.98606 0.197978
71 2 17.5414 6.01734 1.47939 17.5414 6.01734 1.47939
72 2 17.0011 5.91903 -1.70763 17.0011 5.91903 -1.70763
73 1 18.2313 4.32286 -0.140517 18.2313 4.32286 -0.140517
74 2 20.2915 4.2219 1.2187 20.2915 4.2219 1.2187
75 2 19.8449 4.37931 -2.00931 19.8449 4.37931 -2.00931
76 1 21.0237 5.93511 -0.409288 21.0237 5.93511 -0.409288
77 2 22.9973 5.91975 1.0668 22.9973 5.91975 1.0668
78 2 22.809 6.0852 -2.2178 22.809 6.0852 -2.2178
79 1 23.9057 4.37724 -0.737971 23.9057 4.37724 -0.737971
80 2 25.7353 4.25298 1.06594 25.7353 4.25298 1.06594
81 2 25.8555 4.42052 -2.21744 25.8555 4.42052 -2.21744
82 1 26.7263 5.9789 -0.526104 26.7263 5.9789 -0.526104
83 2 28.7689 5.90874 1.03413 28.7689 5.90874 1.03413
84 2 28.6131 6.32767 -2.14751 28.6131 6.32767 -2.14751
85 1 29.5745 4.39722 -0.869898 29.5745 4.39722 -0.869898
86 2 31.3793 4.31326 0.978001 31.3793 4.31326 0.978001
87 2 31.6049 4.57918 -2.36539 31.6049 4.57918 -2.36539
88 1 32.4203 6.08306 -0.504554 32.4203 6.08306 -0.504554
89 2 34.1217 5.91113 1.36831 34.1217 5.91113 1.36831
90 2 34.5206 6.15596 -1.90243 34.5206 6.15596 -1.90243
91 1 35.2096 4.37579 -0.249098 35.2096 4.37579 -0.249098
92 2 37.1568 4.1968 1.40136 37.1568 4.1968 1.40136
93 2 37.1816 4.65436 -1.92633 37.1816 4.65436 -1.92633
94 1 38.1182 6.0137 -0.0392111 38.1182 6.0137 -0.0392111
95 2 40.0411 5.95173 1.66751 40.0411 5.95173 1.66751
96 2 40.0976 6.03824 -1.65118 40.0976 6.03824 -1.65118
97 1 40.9335 4.26297 -0.0349186 40.9335 4.26297 -0.0349186
98 2 42.826 4.27264 1.78046 42.826 4.27264 1.78046
99 2 42.8727 4.3739 -1.47291 42.8727 4.3739 -1.47291
100 1 43.8868 5.97497 0.307655 43.8868 5.97497 0.307655
101 2 45.7279 6.00241 1.97231 45.7279 6.00241 1.97231
102 2 45.7505 6.08288 -1.28384 45.7505 6.08288 -1.28384
103 1 46.7371 4.41376 0.42376 46.7371 4.41376 0.42376
104 2 48.571 4.37418 2.00009 48.571 4.37418 2.00009
105 2 48.5749 4.44026 -1.3212 48.5749 4.44026 -1.3212
106 1 49.6947 6.07152 0.323191 49.6947 6.07152 0.323191
107 2 51.4172 5.92975 2.03212 51.4172 5.92975 2.03212
108 2 51.574 6.15142 -1.37078 51.574 6.15142 -1.37078
109 1 1.18464 7.66262 0.460745 1.18464 7.66262 0.460745
110 2 3.01797 7.81199 2.02505 3.01797 7.81199 2.02505
111 2 2.97738 7.76765 -1.36699 2.97738 7.76765 -1.36699
112 1 4.00355 9.33182 0.335193 4.00355 9.33182 0.335193
113 2 5.84032 9.32657 2.05156 5.84032 9.32657 2.05156
114 2 6.02372 9.34272 -1.18706 6.02372 9.34272 -1.18706
115 1 6.90064 7.66559 0.520707 6.90064 7.66559 0.520707
116 2 8.75078 7.60095 2.26008 8.75078 7.60095 2.26008
117 2 8.82653 7.48787 -1.01146 8.82653 7.48787 -1.01146
118 1 9.72808 9.25759 0.587842 9.72808 9.25759 0.587842
119 2 11.8525 9.42681 2.02489 11.8525 9.42681 2.02489
120 2 11.6008 9.08315 -1.24636 11.6008 9.08315 -1.24636
121 1 12.5969 7.6753 0.511878 12.5969 7.6753 0.511878
122 2 14.7978 7.84936 1.7824 14.7978 7.84936 1.7824
123 2 14.1979 7.52411 -1.34084 14.1979 7.52411 -1.34084
124 1 15.428 9.23592 -0.0751651 15.428 9.23592 -0.0751651
125 2 17.606 9.18958 1.33462 17.606 9.18958 1.33462
126 2 17.0578 9.25676 -1.91788 17.0578 9.25676 -1.91788
127 1 18.2262 7.60361 -0.424928 18.2262 7.60361 -0.424928
128 2 20.1941 7.60296 1.15163 20.1941 7.60296 1.15163
129 2 20.085 7.56381 -2.15193 20.085 7.56381 -2.15193
130 1 21.079 9.29885 -0.464412 21.079 9.29885 -0.464412
131 2 22.9205 9.1926 1.17172 22.9205 9.1926 1.17172
132 2 22.9456 9.30384 -2.19959 22.9456 9.30384 -2.19959
133 1 23.8808 7.5601 -0.609931 23.8808 7.5601 -0.609931
134 2 25.7304 7.6959 1.04715 25.7304 7.6959 1.04715
135 2 25.7748 7.58672 -2.19624 25.7748 7.58672 -2.19624
136 1 26.6978 9.26207 -0.676945 26.6978 9.26207 -0.676945
137 2 28.4321 9.42883 1.24549 28.4321 9.42883 1.24549
138 2 28.6838 9.2623 -2.11306 28.6838 9.2623 -2.11306
139 1 29.535 7.7754 -0.353917 29.535 7.7754 -0.353917
140 2 31.453 7.71151 1.19008 31.453 7.71151 1.19008
141 2 31.4703 7.78362 -2.00815 31.4703 7.78362 -2.00815
142 1 32.421 9.39635 -0.276877 32.421 9.39635 -0.276877
143 2 34.2494 9.31888 1.58736 34.2494 9.31888 1.58736
144 2 34.4762 9.28508 -1.6994 34.4762 9.28508 -1.6994
145 1 35.2838 7.67258 0.0543874 35.2838 7.67258 0.0543874
146 2 37.1785 7.51567 1.6326 37.1785 7.51567 1.6326
147 2 37.1541 7.84557 -1.5491 37.1541 7.84557 -1.5491
148 1 38.1445 9.31413 0.203817 38.1445 9.31413 0.203817
149 2 39.9734 9.24392 1.88769 39.9734 9.24392 1.88769
150 2 40.0473 9.46341 -1.36332 40.0473 9.46341 -1.36332
151 1 41.0315 7.62064 0.129741 41.0315 7.62064 0.129741
152 2 42.823 7.60965 1.92066 42.823 7.60965 1.92066
153 2 43.0297 7.62803 -1.34281 43.0297 7.62803 -1.34281
154 1 43.8228 9.26391 0.288729 43.8228 9.26391 0.288729
155 2 45.7645 9.25662 1.96807 45.7645 9.25662 1.96807
156 2 45.7095 9.26972 -1.28582 45.7095 9.26972 -1.28582
157 1 46.7227 7.67353 0.393953 46.7227 7.67353 0.393953
158 2 48.6267 7.62995 2.01026 48.6267 7.62995 2.01026
159 2 48.5832 7.80332 -1.21948 48.5832 7.80332 -1.21948
160 1 49.5519 9.3325 0.554563 49.5519 9.3325 0.554563
161 2 51.4649 9.28178 2.08528 51.4649 9.28178 2.08528
162 2 51.3786 9.19797 -1.14963 51.3786 9.19797 -1.14963
163 1 1.08701 10.9624 0.467418 1.08701 10.9624 0.467418
164 2 3.07093 10.903 2.01285 3.07093 10.903 2.01285
165 2 2.94781 11.0099 -1.2573 2.94781 11.0099 -1.2573
166 1 4.04881 12.5311 0.461881 4.04881 12.5311 0.461881
167 2 5.9815 12.6339 2.10723 5.9815 12.6339 2.10723
168 2 5.81297 12.3473 -1.1689 5.81297 12.3473 -1.1689
169 1 6.9632 10.9459 0.53062 6.9632 10.9459 0.53062
170 2 8.79686 11.0018 2.17937 8.79686 11.0018 2.17937
171 2 8.81162 10.9353 -1.13894 8.81162 10.9353 -1.13894
172 1 9.76437 12.6337 0.481693 9.76437 12.6337 0.481693
173 2 11.9117 12.7247 1.66614 11.9117 12.7247 1.66614
174 2 11.3059 12.2886 -1.47936 11.3059 12.2886 -1.47936
175 1 12.5764 10.8298 0.0792709 12.5764 10.8298 0.0792709
176 2 14.633 11.0243 1.54805 14.633 11.0243 1.54805
177 2 14.3476 10.7158 -1.70673 14.3476 10.7158 -1.70673
178 1 15.4297 12.4516 -0.222047 15.4297 12.4516 -0.222047
179 2 17.3486 12.3088 1.31176 17.3486 12.3088 1.31176
180 2 17.2715 12.5212 -1.97215 17.2715 12.5212 -1.97215
181 1 18.2546 10.842 -0.407795 18.2546 10.842 -0.407795
182 2 20.2054 10.8123 1.28853 20.2054 10.8123 1.28853
183 2 20.1242 10.8803 -2.01414 20.1242 10.8803 -2.01414
184 1 21.0935 12.5156 -0.26252 21.0935 12.5156 -0.26252
185 2 23.0741 12.5179 1.17142 23.0741 12.5179 1.17142
186 2 22.8496 12.6193 -1.96187 22.8496 12.6193 -1.96187
187 1 23.8902 10.886 -0.46972 23.8902 10.886 -0.46972
188 2 25.6806 10.6994 1.09482 25.6806 10.6994 1.09482
189 2 25.7186 11.0408 -2.09859 25.7186 11.0408 -2.09859
190 1 26.6868 12.5538 -0.355086 26.6868 12.5538 -0.355086
191 2 28.6657 12.6043 1.22763 28.6657 12.6043 1.22763
192 2 28.5264 12.5952 -1.99135 28.5264 12.5952 -1.99135
193 1 29.5135 10.915 -0.444057 29.5135 10.915 -0.444057
194 2 31.3506 11.05 1.33315 31.3506 11.05 1.33315
195 2 31.4902 11.0422 -1.95537 31.4902 11.0422 -1.95537
196 1 32.4136 12.5814 -0.2416 32.4136 12.5814 -0.2416
197 2 34.0859 12.5728 1.56885 34.0859 12.5728 1.56885
198 2 34.3291 12.6129 -1.71553 34.3291 12.6129 -1.71553
199 1 35.2297 10.9784 -0.0420216 35.2297 10.9784 -0.0420216
200 2 36.9566 10.9327 1.74657 36.9566 10.9327 1.74657
201 2 37.408 11.0171 -1.50393 37.408 11.0171 -1.50393
202 1 38.0818 12.6559 0.208426 38.0818 12.6559 0.208426
203 2 39.8928 12.7287 1.91443 39.8928 12.7287 1.91443
204 2 40.1441 12.6092 -1.31477 40.1441 12.6092 -1.31477
205 1 40.9696 11.0069 0.451051 40.9696 11.0069 0.451051
206 2 42.9109 10.8884 2.01318 42.9109 10.8884 2.01318
207 2 42.8324 10.9171 -1.28631 42.8324 10.9171 -1.28631
208 1 43.8798 12.5057 0.425931 43.8798 12.5057 0.425931
209 2 45.7204 12.598 2.041 45.7204 12.598 2.041
210 2 45.8245 12.5117 -1.2875 45.8245 12.5117 -1.2875
211 1 46.7418 10.8409 0.417001 46.7418 10.8409 0.417001
212 2 48.5791 10.8725 2.09503 48.5791 10.8725 2.09503
213 2 48.7143 10.8064 -1.11589 48.7143 10.8064 -1.11589
214 1 49.5882 12.597 0.397914 49.5882 12.597 0.397914
215 2 51.5461 12.607 2.02491 51.5461 12.607 2.02491
216 2 51.4007 12.4975 -1.34281 51.4007 12.4975 -1.34281
217 1 1.16956 14.2207 0.25534 1.16956 14.2207 0.25534
218 2 3.09617 14.3271 1.86256 3.09617 14.3271 1.86256
219 2 3.11665 14.004 -1.31142 3.11665 14.004 -1.31142
220 1 4.07934 15.8758 0.144173 4.07934 15.8758 0.144173
221 2 6.03087 15.9818 1.77805 6.03087 15.9818 1.77805
222 2 5.95935 15.6652 -1.58223 5.95935 15.6652 -1.58223
223 1 6.92652 14.1681 0.278259 6.92652 14.1681 0.278259
224 2 8.81284 14.5122 1.80953 8.81284 14.5122 1.80953
225 2 8.8266 13.9635 -1.38801 8.8266 13.9635 -1.38801
226 1 9.74382 15.9038 -0.00826067 9.74382 15.9038 -0.00826067
227 2 11.8598 15.8203 1.39548 11.8598 15.8203 1.39548
228 2 11.4588 15.8738 -1.77859 11.4588 15.8738 -1.77859
229 1 12.5695 14.097 -0.287415 12.5695 14.097 -0.287415
230 2 14.5881 14.189 1.23757 14.5881 14.189 1.23757
231 2 14.4035 13.9559 -1.99523 14.4035 13.9559 -1.99523
232 1 15.4217 15.769 -0.553601 15.4217 15.769 -0.553601
233 2 17.1732 15.798 1.28204 17.1732 15.798 1.28204
234 2 17.4009 15.7636 -2.0027 17.4009 15.7636 -2.0027
235 1 18.2634 14.0996 -0.323847 18.2634 14.0996 -0.323847
236 2 20.0061 14.1531 1.40379 20.0061 14.1531 1.40379
237 2 20.2331 14.1251 -1.84241 20.2331 14.1251 -1.84241
238 1 21.0804 15.8377 -0.254122 21.0804 15.8377 -0.254122
239 2 23.0579 15.9602 1.27332 23.0579 15.9602 1.27332
240 2 22.7987 15.9346 -2.03642 22.7987 15.9346 -2.03642
241 1 23.8537 14.2448 -0.373844 23.8537 14.2448 -0.373844
242 2 25.7139 14.2762 1.29984 25.7139 14.2762 1.29984
243 2 25.7801 14.2279 -1.94789 25.7801 14.2279 -1.94789
244 1 26.7965 15.8842 -0.384975 26.7965 15.8842 -0.384975
245 2 28.5355 15.974 1.25261 28.5355 15.974 1.25261
246 2 28.6923 15.8561 -2.02361 28.6923 15.8561 -2.02361
247 1 29.6247 14.221 -0.359198 29.6247 14.221 -0.359198
248 2 31.5005 14.3413 1.35796 31.5005 14.3413 1.35796
249 2 31.5009 14.1988 -1.9472 31.5009 14.1988 -1.9472
250 1 32.4999 15.9777 -0.383906 32.4999 15.9777 -0.383906
251 2 34.2461 16.0275 1.41034 34.2461 16.0275 1.41034
252 2 34.3868 15.8135 -1.86125 34.3868 15.8135 -1.86125
253 1 35.2127 14.1356 -0.0705153 35.2127 14.1356 -0.0705153
254 2 36.9179 14.2859 1.68107 36.9179 14.2859 1.68107
255 2 37.4219 14.224 -1.45964 37.4219 14.224 -1.45964
256 1 38.0442 15.9734 0.134831 38.0442 15.9734 0.134831
257 2 39.9526 15.8828 1.90775 39.9526 15.8828 1.90775
258 2 40.2 16.0786 -1.35073 40.2 16.0786 -1.35073
259 1 40.9222 14.3023 0.266828 40.9222 14.3023 0.266828
260 2 42.8551 14.1632 1.98084 42.8551 14.1632 1.98084
261 2 42.9962 14.2405 -1.21286 42.9962 14.2405 -1.21286
262 1 43.9586 15.8967 0.482415 43.9586 15.8967 0.482415
263 2 45.8476 16.0373 2.06857 45.8476 16.0373 2.06857
264 2 45.8127 15.8524 -1.20151 45.8127 15.8524 -1.20151
265 1 46.709 14.2552 0.402662 46.709 14.2552 0.402662
266 2 48.5987 14.4188 1.98782 48.5987 14.4188 1.98782
267 2 48.5237 14.2399 -1.24066 48.5237 14.2399 -1.24066
268 1 49.6505 15.9073 0.311265 49.6505 15.9073 0.311265
269 2 51.4374 15.7563 1.9661 51.4374 15.7563 1.9661
270 2 51.538 15.9858 -1.27131 51.538 15.9858 -1.27131
271 1 1.13552 17.5241 0.470371 1.13552 17.5241 0.470371
272 2 3.24558 17.504 1.86324 3.24558 17.504 1.86324
273 2 2.90192 17.5655 -1.40754 2.90192 17.5655 -1.40754
274 1 4.08708 19.1611 0.113608 4.08708 19.1611 0.113608
275 2 6.05409 19.2099 1.62455 6.05409 19.2099 1.62455
276 2 5.9158 19.1181 -1.60712 5.9158 19.1181 -1.60712
277 1 6.90194 17.4436 0.00348219 6.90194 17.4436 0.00348219
278 2 8.90646 17.6186 1.53547 8.90646 17.6186 1.53547
279 2 8.7446 17.4535 -1.64814 8.7446 17.4535 -1.64814
280 1 9.80114 19.1954 -0.13601 9.80114 19.1954 -0.13601
281 2 11.7551 19.2118 1.38675 11.7551 19.2118 1.38675
282 2 11.514 19.0236 -1.88004 11.514 19.0236 -1.88004
283 1 12.6197 17.4805 -0.286364 12.6197 17.4805 -0.286364
284 2 14.5065 17.4408 1.16331 14.5065 17.4408 1.16331
285 2 14.5337 17.6278 -2.00251 14.5337 17.6278 -2.00251
286 1 15.5241 19.1217 -0.338383 15.5241 19.1217 -0.338383
287 2 17.323 19.1668 1.24712 17.323 19.1668 1.24712
288 2 17.1759 19.0675 -2.08274 17.1759 19.0675 -2.08274
289 1 18.2553 17.3953 -0.31207 18.2553 17.3953 -0.31207
290 2 20.1224 17.5399 1.24939 20.1224 17.5399 1.24939
291 2 20.0391 17.2784 -1.99221 20.0391 17.2784 -1.99221
292 1 21.0416 19.1349 -0.520046 21.0416 19.1349 -0.520046
293 2 22.9056 19.3239 1.07814 22.9056 19.3239 1.07814
294 2 22.8836 18.9544 -2.17654 22.8836 18.9544 -2.17654
295 1 23.9261 17.4891 -0.43002 23.9261 17.4891 -0.43002
296 2 25.7337 17.3791 1.23412 25.7337 17.3791 1.23412
297 2 25.9055 17.5021 -2.01536 25.9055 17.5021 -2.01536
298 1 26.8112 19.0256 -0.402972 26.8112 19.0256 -0.402972
299 2 28.8209 19.2993 1.01756 28.8209 19.2993 1.01756
300 2 28.5651 19.0312 -2.1009 28.5651 19.0312 -2.1009
301 1 29.7089 17.5158 -0.467056 29.7089 17.5158 -0.467056
302 2 31.5474 17.6752 1.14469 31.5474 17.6752 1.14469
303 2 31.508 17.475 -2.18832 31.508 17.475 -2.18832
304 1 32.5515 19.2436 -0.734499 32.5515 19.2436 -0.734499
305 2 34.2404 19.4049 1.08569 34.2404 19.4049 1.08569
306 2 34.6394 19.0092 -2.15692 34.6394 19.0092 -2.15692
307 1 35.2956 17.5871 -0.272628 35.2956 17.5871 -0.272628
308 2 36.9348 17.6916 1.53823 36.9348 17.6916 1.53823
309 2 37.3735 17.659 -1.61609 37.3735 17.659 -1.61609
310 1 38.1718 19.2553 0.109263 38.1718 19.2553 0.109263
311 2 39.9165 19.4224 1.87174 39.9165 19.4224 1.87174
312 2 40.2834 19.0157 -1.33603 40.2834 19.0157 -1.33603
313 1 41.0661 17.5809 0.480354 41.0661 17.5809 0.480354
314 2 43.0305 17.597 2.0352 43.0305 17.597 2.0352
315 2 42.9393 17.5018 -1.26876 42.9393 17.5018 -1.26876
316 1 43.8584 19.2601 0.382852 43.8584 19.2601 0.382852
317 2 45.8977 19.4625 1.84979 45.8977 19.4625 1.84979
318 2 45.6693 19.0627 -1.36724 45.6693 19.0627 -1.36724
319 1 46.7446 17.5483 0.376955 46.7446 17.5483 0.376955
320 2 48.8117 17.6385 1.80238 48.8117 17.6385 1.80238
321 2 48.5006 17.4048 -1.44336 48.5006 17.4048 -1.44336
322 1 49.5304 19.1382 -0.0462544 49.5304 19.1382 -0.0462544
323 2 51.3438 19.2967 1.84311 51.3438 19.2967 1.84311
324 2 51.6365 19.053 -1.3761 51.6365 19.053 -1.3761
325 1 1.18958 20.7878 0.142153 1.18958 20.7878 0.142153
326 2 3.16617 20.7396 1.73271 3.16617 20.7396 1.73271
327 2 3.18958 20.7444 -1.52249 3.18958 20.7444 -1.52249
328 1 4.0931 22.4685 0.112089 4.0931 22.4685 0.112089
329 2 6.06938 22.4866 1.556 6.06938 22.4866 1.556
330 2 5.86244 22.3437 -1.64433 5.86244 22.3437 -1.64433
331 1 7.02516 20.8189 -0.0693292 7.02516 20.8189 -0.0693292
332 2 8.84848 20.9513 1.43123 8.84848 20.9513 1.43123
333 2 8.85891 20.6663 -1.74373 8.85891 20.6663 -1.74373
334 1 9.76384 22.4842 -0.277855 9.76384 22.4842 -0.277855
335 2 11.6905 22.5664 1.3409 11.6905 22.5664 1.3409
336 2 11.6437 22.4111 -1.94825 11.6437 22.4111 -1.94825
337 1 12.6192 20.7069 -0.361779 12.6192 20.7069 -0.361779
338 2 14.5404 20.9011 1.23738 14.5404 20.9011 1.23738
339 2 14.4794 20.6821 -1.97159 14.4794 20.6821 -1.97159
340 1 15.5024 22.4505 -0.619652 15.5024 22.4505 -0.619652
341 2 17.333 22.4201 1.02645 17.333 22.4201 1.02645
342 2 17.4657 22.6039 -2.10517 17.4657 22.6039 -2.10517
343 1 18.2568 20.7557 -0.58252 18.2568 20.7557 -0.58252
344 2 20.1216 20.7791 1.11729 20.1216 20.7791 1.11729
345 2 20.2326 20.8066 -2.17685 20.2326 20.8066 -2.17685
346 1 21.1344 22.3798 -0.572075 21.1344 22.3798 -0.572075
347 2 23.141 22.3223 0.962775 23.141 22.3223 0.962775
348 2 23.0173 22.5601 -2.20909 23.0173 22.5601 -2.20909
349 1 24.0097 20.7728 -0.729739 24.0097 20.7728 -0.729739
350 2 25.7078 20.8238 1.12183 25.7078 20.8238 1.12183
351 2 25.9783 20.7297 -2.09011 25.9783 20.7297 -2.09011
352 1 26.8498 22.4611 -0.470641 26.8498 22.4611 -0.470641
353 2 28.9193 22.4472 0.968536 28.9193 22.4472 0.968536
354 2 28.6197 22.4193 -2.2746 28.6197 22.4193 -2.2746
355 1 29.7598 20.8391 -0.760736 29.7598 20.8391 -0.760736
356 2 31.4302 20.9167 0.894317 31.4302 20.9167 0.894317
357 2 31.5726 20.8864 -2.46101 31.5726 20.8864 -2.46101
358 1 32.599 22.522 -0.701188 32.599 22.522 -0.701188
359 2 34.2993 22.3682 1.07357 34.2993 22.3682 1.07357
360 2 34.5647 22.6355 -2.22884 34.5647 22.6355 -2.22884
361 1 35.3714 20.8849 -0.625063 35.3714 20.8849 -0.625063
362 2 37.0193 21.0111 1.36912 37.0193 21.0111 1.36912
363 2 37.5362 20.6729 -1.83764 37.5362 20.6729 -1.83764
364 1 38.1783 22.5032 -0.271254 38.1783 22.5032 -0.271254
365 2 39.9133 22.5822 1.5623 39.9133 22.5822 1.5623
366 2 40.2283 22.2029 -1.72547 40.2283 22.2029 -1.72547
367 1 41.0075 20.8553 0.121967 41.0075 20.8553 0.121967
368 2 42.8035 20.9443 1.87543 42.8035 20.9443 1.87543
369 2 42.9664 20.7733 -1.44277 42.9664 20.7733 -1.44277
370 1 43.8753 22.5 0.230668 43.8753 22.5 0.230668
371 2 45.8599 22.5622 1.72917 45.8599 22.5622 1.72917
372 2 45.5811 22.4531 -1.5652 45.5811 22.4531 -1.5652
373 1 46.7294 20.9041 0.0320244 46.7294 20.9041 0.0320244
374 2 48.6732 20.8219 1.62385 48.6732 20.8219 1.62385
375 2 48.6237 20.7342 -1.6977 48.6237 20.7342 -1.6977
376 1 49.5737 22.4163 -0.0861371 49.5737 22.4163 -0.0861371
377 2 51.4 22.5656 1.59634 51.4 22.5656 1.59634
378 2 51.4469 22.2609 -1.66134 51.4469 22.2609 -1.66134
379 1 1.09207 24.0432 -0.0858106 1.09207 24.0432 -0.0858106
380 2 2.97118 24.3004 1.56622 2.97118 24.3004 1.56622
381 2 3.1181 23.938 -1.60641 3.1181 23.938 -1.60641
382 1 3.98651 25.7107 -0.170553 3.98651 25.7107 -0.170553
383 2 5.74929 25.7028 1.51782 5.74929 25.7028 1.51782
384 2 5.82599 25.7904 -1.74295 5.82599 25.7904 -1.74295
385 1 6.89699 24.1034 -0.205803 6.89699 24.1034 -0.205803
386 2 8.85519 24.0751 1.43581 8.85519 24.0751 1.43581
387 2 8.87528 24.1588 -1.90117 8.87528 24.1588 -1.90117
388 1 9.72649 25.7355 -0.259087 9.72649 25.7355 -0.259087
389 2 11.6906 25.5383 1.40346 11.6906 25.5383 1.40346
390 2 11.7519 25.9193 -1.88046 11.7519 25.9193 -1.88046
391 1 12.6644 24.0527 -0.406342 12.6644 24.0527 -0.406342
392 2 14.5521 23.9636 1.202 14.5521 23.9636 1.202
393 2 14.5455 24.1387 -2.10321 14.5455 24.1387 -2.10321
394 1 15.4661 25.7348 -0.271107 15.4661 25.7348 -0.271107
395 2 17.3803 25.8021 1.31234 17.3803 25.8021 1.31234
396 2 17.3074 25.779 -1.94722 17.3074 25.779 -1.94722
397 1 18.2847 24.1319 -0.38111 18.2847 24.1319 -0.38111
398 2 20.2084 24.0171 1.26097 20.2084 24.0171 1.26097
399 2 20.1229 24.201 -2.05078 20.1229 24.201 -2.05078
400 1 20.9853 25.7852 -0.30448 20.9853 25.7852 -0.30448
401 2 22.9911 25.862 1.08022 22.9911 25.862 1.08022
402 2 22.7297 25.749 -2.13306 22.7297 25.749 -2.13306
403 1 23.8588 24.1363 -0.555986 23.8588 24.1363 -0.555986
404 2 25.6745 23.9988 1.27648 25.6745 23.9988 1.27648
405 2 25.9577 24.068 -2.07989 25.9577 24.068 -2.07989
406 1 26.7745 25.7294 -0.332729 26.7745 25.7294 -0.332729
407 2 28.7153 25.5656 1.15515 28.7153 25.5656 1.15515
408 2 28.6129 25.7774 -2.16726 28.6129 25.7774 -2.16726
409 1 29.6296 24.0138 -0.741705 29.6296 24.0138 -0.741705
410 2 31.5629 24.0392 0.907258 31.5629 24.0392 0.907258
411 2 31.6212 24.1747 -2.35217 31.6212 24.1747 -2.35217
412 1 32.4606 25.7719 -0.642655 32.4606 25.7719 -0.642655
413 2 34.3592 25.7643 1.06971 34.3592 25.7643 1.06971
414 2 34.4609 25.768 -2.12959 34.4609 25.768 -2.12959
415 1 35.3459 24.1327 -0.469251 35.3459 24.1327 -0.469251
416 2 37.0921 24.1964 1.30709 37.0921 24.1964 1.30709
417 2 37.339 24.1094 -1.89143 37.339 24.1094 -1.89143
418 1 38.3015 25.7374 -0.164217 38.3015 25.7374 -0.164217
419 2 40.1698 25.8931 1.3552 40.1698 25.8931 1.3552
420 2 40.1016 25.5044 -1.92379 40.1016 25.5044 -1.92379
421 1 41.0044 24.0606 -0.1447 41.0044 24.0606 -0.1447
422 2 42.7854 24.2873 1.53826 42.7854 24.2873 1.53826
423 2 42.8617 23.888 -1.6842 42.8617 23.888 -1.6842
424 1 43.8798 25.7069 -0.260799 43.8798 25.7069 -0.260799
425 2 45.6822 25.7063 1.44421 45.6822 25.7063 1.44421
426 2 45.9183 25.7893 -1.8143 45.9183 25.7893 -1.8143
427 1 46.7365 24.1301 -0.161791 46.7365 24.1301 -0.161791
428 2 48.5546 24.1187 1.56038 48.5546 24.1187 1.56038
429 2 48.6869 24.1797 -1.70017 48.6869 24.1797 -1.70017
430 1 49.5602 25.7809 0.0740233 49.5602 25.7809 0.0740233
431 2 51.5427 25.7349 1.54871 51.5427 25.7349 1.54871
432 2 51.462 25.6731 -1.63279 51.462 25.6731 -1.63279
433 1 1.06455 27.4172 -0.0987947 1.06455 27.4172 -0.0987947
434 2 2.96966 27.43 1.41162 2.96966 27.43 1.41162
435 2 2.95404 27.3127 -1.80264 2.95404 27.3127 -1.80264
436 1 3.878 29.0243 -0.326113 3.878 29.0243 -0.326113
437 2 5.71615 29.0829 1.39282 5.71615 29.0829 1.39282
438 2 5.915 28.8513 -1.78073 5.915 28.8513 -1.78073
439 1 6.82679 27.3867 0.0494768 6.82679 27.3867 0.0494768
440 2 8.89707 27.3087 1.47288 8.89707 27.3087 1.47288
441 2 8.61923 27.3589 -1.73727 8.61923 27.3589 -1.73727
442 1 9.63644 29.1095 -0.202943 9.63644 29.1095 -0.202943
443 2 11.7124 29.2053 1.314 11.7124 29.2053 1.314
444 2 11.4286 28.9702 -1.85903 11.4286 28.9702 -1.85903
445 1 12.5567 27.3941 -0.142314 12.5567 27.3941 -0.142314
446 2 14.5977 27.4454 1.3621 14.5977 27.4454 1.3621
447 2 14.3352 27.3985 -1.8041 14.3352 27.3985 -1.8041
448 1 15.4482 29.0209 -0.343448 15.4482 29.0209 -0.343448
449 2 17.3947 29.0379 1.27253 17.3947 29.0379 1.27253
450 2 17.3002 28.89 -2.01422 17.3002 28.89 -2.01422
451 1 18.279 27.4199 -0.345351 18.279 27.4199 -0.345351
452 2 20.1401 27.4858 1.35968 20.1401 27.4858 1.35968
453 2 20.1992 27.4447 -1.98628 20.1992 27.4447 -1.98628
454 1 21.1587 29.0549 -0.278544 21.1587 29.0549 -0.278544
455 2 23.0846 28.9922 1.16755 23.0846 28.9922 1.16755
456 2 22.8108 29.1621 -2.10149 22.8108 29.1621 -2.10149
457 1 23.8857 27.4211 -0.654839 23.8857 27.4211 -0.654839
458 2 25.6041 27.3812 1.21236 25.6041 27.3812 1.21236
459 2 25.98 27.4624 -2.01081 25.98 27.4624 -2.01081
460 1 26.6989 28.9988 -0.251896 26.6989 28.9988 -0.251896
461 2 28.64 28.8689 1.32284 28.64 28.8689 1.32284
462 2 28.5755 29.0977 -1.85018 28.5755 29.0977 -1.85018
463 1 29.6072 27.2898 -0.437771 29.6072 27.2898 -0.437771
464 2 31.3918 27.1629 1.18216 31.3918 27.1629 1.18216
465 2 31.5211 27.551 -2.04664 31.5211 27.551 -2.04664
466 1 32.4218 28.9933 -0.391373 32.4218 28.9933 -0.391373
467 2 34.174 28.7486 1.30541 34.174 28.7486 1.30541
468 2 34.3515 29.2914 -1.93061 34.3515 29.2914 -1.93061
469 1 35.3561 27.4013 -0.502894 35.3561 27.4013 -0.502894
470 2 37.2312 27.5407 1.28844 37.2312 27.5407 1.28844
471 2 37.4573 27.346 -1.94138 37.4573 27.346 -1.94138
472 1 38.2148 29.0526 -0.357638 38.2148 29.0526 -0.357638
473 2 40.1431 28.9699 1.23164 40.1431 28.9699 1.23164
474 2 40.1431 29.2314 -1.99617 40.1431 29.2314 -1.99617
475 1 41.0475 27.385 -0.4653 41.0475 27.385 -0.4653
476 2 42.7402 27.408 1.36665 42.7402 27.408 1.36665
477 2 43.0166 27.3585 -1.99701 43.0166 27.3585 -1.99701
478 1 43.8999 29.0293 -0.310285 43.8999 29.0293 -0.310285
479 2 45.7488 29.0749 1.46899 45.7488 29.0749 1.46899
480 2 45.9124 29.0091 -1.83871 45.9124 29.0091 -1.83871
481 1 46.7547 27.3769 -0.15364 46.7547 27.3769 -0.15364
482 2 48.6197 27.4872 1.55536 48.6197 27.4872 1.55536
483 2 48.7436 27.3303 -1.69073 48.7436 27.3303 -1.69073
484 1 49.5912 29.0943 -0.00289562 49.5912 29.0943 -0.00289562
485 2 51.4813 29.1087 1.58374 51.4813 29.1087 1.58374
486 2 51.379 29.0673 -1.80055 51.379 29.0673 -1.80055
487 1 1.03146 30.6393 -0.117497 1.03146 30.6393 -0.117497
488 2 3.11565 30.739 1.30007 3.11565 30.739 1.30007
489 2 2.85591 30.7261 -1.84074 2.85591 30.7261 -1.84074
490 1 3.92201 32.3805 -0.255966 3.92201 32.3805 -0.255966
491 2 5.66219 32.2122 1.56725 5.66219 32.2122 1.56725
492 2 5.84914 32.5607 -1.80662 5.84914 32.5607 -1.80662
493 1 6.74285 30.7225 -0.225109 6.74285 30.7225 -0.225109
494 2 8.61478 30.702 1.41382 8.61478 30.702 1.41382
495 2 8.76338 30.8027 -1.89343 8.76338 30.8027 -1.89343
496 1 9.66432 32.3927 -0.166586 9.66432 32.3927 -0.166586
497 2 11.8019 32.404 1.21567 11.8019 32.404 1.21567
498 2 11.3539 32.2744 -2.02613 11.3539 32.2744 -2.02613
499 1 12.5367 30.7758 -0.458463 12.5367 30.7758 -0.458463
500 2 14.408 30.785 1.14447 14.408 30.785 1.14447
501 2 14.4167 30.6699 -2.14056 14.4167 30.6699 -2.14056
502 1 15.4488 32.3472 -0.528608 15.4488 32.3472 -0.528608
503 2 17.1617 32.3199 1.23131 17.1617 32.3199 1.23131
504 2 17.3508 32.3237 -2.04921 17.3508 32.3237 -2.04921
505 1 18.2408 30.6952 -0.355151 18.2408 30.6952 -0.355151
506 2 20.128 30.9616 1.30914 20.128 30.9616 1.30914
507 2 20.1211 30.6825 -1.92236 20.1211 30.6825 -1.92236
508 1 20.9922 32.3862 -0.435975 20.9922 32.3862 -0.435975
509 2 22.8174 32.2279 1.22874 22.8174 32.2279 1.22874
510 2 22.9904 32.3042 -2.03359 22.9904 32.3042 -2.03359
511 1 23.8693 30.6635 -0.416446 23.8693 30.6635 -0.416446
512 2 25.7871 30.5939 1.37431 25.7871 30.5939 1.37431
513 2 25.7881 30.5313 -1.94519 25.7881 30.5313 -1.94519
514 1 26.72 32.294 -0.34043 26.72 32.294 -0.34043
515 2 28.5654 32.1611 1.41494 28.5654 32.1611 1.41494
516 2 28.7047 32.2938 -1.87292 28.7047 32.2938 -1.87292
517 1 29.5862 30.618 -0.208328 29.5862 30.618 -0.208328
518 2 31.3882 30.4648 1.41626 31.3882 30.4648 1.41626
519 2 31.4855 30.9049 -1.76706 31.4855 30.9049 -1.76706
520 1 32.4463 32.366 0.0558326 32.4463 32.366 0.0558326
521 2 34.3487 32.266 1.64616 34.3487 32.266 1.64616
522 2 34.2718 32.3164 -1.61098 34.2718 32.3164 -1.61098
523 1 35.2451 30.6148 -0.0517665 35.2451 30.6148 -0.0517665
524 2 37.377 30.5886 1.36568 37.377 30.5886 1.36568
525 2 37.0364 30.7724 -1.81122 37.0364 30.7724 -1.81122
526 1 38.1748 32.3223 -0.281908 38.1748 32.3223 -0.281908
527 2 40.0637 32.4164 1.28724 40.0637 32.4164 1.28724
528 2 40.1311 32.3439 -1.94325 40.1311 32.3439 -1.94325
529 1 41.1029 30.6708 -0.299871 41.1029 30.6708 -0.299871
530 2 43.0127 30.6625 1.29844 43.0127 30.6625 1.29844
531 2 42.9473 30.6449 -1.94101 42.9473 30.6449 -1.94101
532 1 43.9187 32.324 -0.291499 43.9187 32.324 -0.291499
533 2 45.81 32.2966 1.3398 45.81 32.2966 1.3398
534 2 45.7302 32.2565 -1.93128 45.7302 32.2565 -1.93128
535 1 46.7321 30.681 -0.229393 46.7321 30.681 -0.229393
536 2 48.5722 30.8346 1.4854 48.5722 30.8346 1.4854
537 2 48.6831 30.6048 -1.83211 48.6831 30.6048 -1.83211
538 1 49.6011 32.3797 -0.22272 49.6011 32.3797 -0.22272
539 2 51.3895 32.3693 1.45814 51.3895 32.3693 1.45814
540 2 51.5312 32.2529 -1.86974 51.5312 32.2529 -1.86974
541 1 1.08748 33.9911 -0.187071 1.08748 33.9911 -0.187071