ITEM: TIMESTEP
22800
ITEM: NUMBER OF ATOMS
810
ITEM: BOX BOUNDS pp pp pp
8.4137701477268123e-01 5.2176227985227342e+01
8.0961581116522285e-01 5.0206599188834083e+01
-1.0000000000000000e+01 1.0000000000000000e+01
ITEM: ATOMS id type x y z xu yu zu
1 1 0.947559 1.00036 -0.0020542 0.947559 1.00036 -0.0020542
2 2 2.86651 0.850881 1.6321 2.86651 0.850881 1.6321
3 2 2.97376 1.07854 -1.57898 2.97376 1.07854 -1.57898
4 1 3.85153 2.60093 0.213129 3.85153 2.60093 0.213129
5 2 5.74054 2.41385 1.73205 5.74054 2.41385 1.73205
6 2 5.57188 2.9125 -1.46146 5.57188 2.9125 -1.46146
7 1 6.71708 1.06022 -0.18585 6.71708 1.06022 -0.18585
8 2 8.56112 0.835295 1.50035 8.56112 0.835295 1.50035
9 2 8.58229 1.2023 -1.75226 8.58229 1.2023 -1.75226
10 1 9.60336 2.57103 0.0283176 9.60336 2.57103 0.0283176
11 2 11.6489 2.39591 1.50372 11.6489 2.39591 1.50372
12 2 11.354 2.75722 -1.58579 11.354 2.75722 -1.58579
13 1 12.4239 0.862734 -0.317742 12.4239 0.862734 -0.317742
14 2 14.3629 0.802096 1.19766 14.3629 0.802096 1.19766
15 2 14.2333 1.10852 -2.09873 14.2333 1.10852 -2.09873
16 1 15.1799 2.63059 -0.333278 15.1799 2.63059 -0.333278
17 2 17.2422 2.43355 1.14839 17.2422 2.43355 1.14839
18 2 17.0705 2.72476 -2.10341 17.0705 2.72476 -2.10341
19 1 18.0967 0.922931 -0.643078 18.0967 0.922931 -0.643078
20 2 20.0216 1.08205 0.804929 20.0216 1.08205 0.804929
21 2 19.7837 0.904692 -2.60032 19.7837 0.904692 -2.60032
22 1 20.8629 2.71561 -1.03479 20.8629 2.71561 -1.03479
23 2 22.8017 2.59178 0.622318 22.8017 2.59178 0.622318
24 2 22.9367 2.76847 -2.6439 22.9367 2.76847 -2.6439
25 1 23.7888 1.03785 -1.02087 23.7888 1.03785 -1.02087
26 2 25.509 0.858466 0.675666 25.509 0.858466 0.675666
27 2 25.7786 1.22146 -2.62021 25.7786 1.22146 -2.62021
28 1 26.6448 2.70552 -0.701879 26.6448 2.70552 -0.701879
29 2 28.5634 2.50365 0.816306 28.5634 2.50365 0.816306
30 2 28.5225 2.77658 -2.44659 28.5225 2.77658 -2.44659
31 1 29.483 0.979421 -1.00764 29.483 0.979421 -1.00764
32 2 31.1844 0.765207 0.800521 31.1844 0.765207 0.800521
33 2 31.5151 1.20318 -2.40669 31.5151 1.20318 -2.40669
34 1 32.3141 2.69888 -0.5044 32.3141 2.69888 -0.5044
35 2 34.1557 2.61533 1.26191 34.1557 2.61533 1.26191
36 2 34.3994 2.64494 -2.01949 34.3994 2.64494 -2.01949
37 1 35.1424 0.956839 -0.415024 35.1424 0.956839 -0.415024
38 2 36.8313 0.919726 1.42972 36.8313 0.919726 1.42972
39 2 37.1412 1.01594 -1.82739 37.1412 1.01594 -1.82739
40 1 38.0129 2.62511 -0.11626 38.0129 2.62511 -0.11626
41 2 39.6854 2.52087 1.65923 39.6854 2.52087 1.65923
42 2 40.0259 2.70461 -1.5675 40.0259 2.70461 -1.5675
43 1 40.956 0.938009 0.0164831 40.956 0.938009 0.0164831
44 2 42.8698 50.303 1.64501 42.8698 0.906002 1.64501
45 2 42.8703 0.984465 -1.65763 42.8703 0.984465 -1.65763
46 1 43.8683 2.69709 -0.00380388 43.8683 2.69709 -0.00380388
47 2 45.7062 2.64146 1.6851 45.7062 2.64146 1.6851
48 2 45.6213 2.60865 -1.66455 45.6213 2.60865 -1.66455
49 1 46.6208 0.945538 0.0190039 46.6208 0.945538 0.0190039
50 2 48.3024 0.830371 1.71178 48.3024 0.830371 1.71178
51 2 48.6621 1.15451 -1.56241 48.6621 1.15451 -1.56241
52 1 49.3643 2.65287 0.220817 49.3643 2.65287 0.220817
53 2 51.3774 2.44998 1.84296 51.3774 2.44998 1.84296
54 2 51.322 2.79526 -1.4287 51.322 2.79526 -1.4287
55 1 0.919628 4.31951 0.402044 0.919628 4.31951 0.402044
56 2 2.86156 4.19072 1.97671 2.86156 4.19072 1.97671
57 2 2.77 4.35724 -1.26284 2.77 4.35724 -1.26284
58 1 3.81599 5.90675 0.384422 3.81599 5.90675 0.384422
59 2 5.72494 5.76828 2.1154 5.72494 5.76828 2.1154
60 2 5.82293 5.88611 -1.18928 5.82293 5.88611 -1.18928
61 1 6.64313 4.24335 0.389127 6.64313 4.24335 0.389127
62 2 8.81862 4.21098 1.79856 8.81862 4.21098 1.79856
63 2 8.51058 4.38907 -1.35923 8.51058 4.38907 -1.35923
64 1 9.63274 5.92683 0.162913 9.63274 5.92683 0.162913
65 2 11.6356 5.88674 1.71615 11.6356 5.88674 1.71615
66 2 11.4534 5.88531 -1.5524 11.4534 5.88531 -1.5524
67 1 12.4031 4.24464 0.0825153 12.4031 4.24464 0.0825153
68 2 14.3403 4.16751 1.58536 14.3403 4.16751 1.58536
69 2 14.1174 4.43195 -1.65791 14.1174 4.43195 -1.65791
70 1 15.283 5.95987 0.140481 15.283 5.95987 0.140481
71 2 17.5243 5.96664 1.36594 17.5243 5.96664 1.36594
72 2 16.8125 5.84651 -1.78511 16.8125 5.84651 -1.78511
73 1 18.088 4.21855 -0.324021 18.088 4.21855 -0.324021
74 2 20.191 4.21807 0.876304 20.191 4.21807 0.876304
75 2 19.5456 4.45077 -2.34777 19.5456 4.45077 -2.34777
76 1 20.8736 5.96721 -0.820811 20.8736 5.96721 -0.820811
77 2 22.8364 5.92392 0.80386 22.8364 5.92392 0.80386
78 2 22.7414 6.08207 -2.55388 22.7414 6.08207 -2.55388
79 1 23.8101 4.36786 -0.933688 23.8101 4.36786 -0.933688
80 2 25.4636 4.33254 0.873481 25.4636 4.33254 0.873481
81 2 25.8402 4.38453 -2.36919 25.8402 4.38453 -2.36919
82 1 26.6049 6.00814 -0.53179 26.6049 6.00814 -0.53179
83 2 28.3901 5.83408 1.05217 28.3901 5.83408 1.05217
84 2 28.3905 6.02775 -2.17519 28.3905 6.02775 -2.17519
85 1 29.4025 4.22128 -0.702562 29.4025 4.22128 -0.702562
86 2 31.1196 4.12468 1.18141 31.1196 4.12468 1.18141
87 2 31.52 4.5017 -2.11329 31.52 4.5017 -2.11329
88 1 32.2577 6.00099 -0.191819 32.2577 6.00099 -0.191819
89 2 34.1744 5.90292 1.35952 34.1744 5.90292 1.35952
90 2 34.0424 5.91153 -2.00022 34.0424 5.91153 -2.00022
91 1 35.1545 4.28225 -0.346347 35.1545 4.28225 -0.346347
92 2 36.8963 4.28419 1.43507 36.8963 4.28419 1.43507
93 2 37.2058 4.37072 -1.72633 37.2058 4.37072 -1.72633
94 1 38.0458 5.9467 -0.0250184 38.0458 5.9467 -0.0250184
95 2 39.9285 5.98716 1.67183 39.9285 5.98716 1.67183
96 2 39.9287 5.84634 -1.68885 39.9287 5.84634 -1.68885
97 1 40.9208 4.26076 0.205211 40.9208 4.26076 0.205211
98 2 42.803 4.31656 1.75418 42.803 4.31656 1.75418
99 2 42.7209 4.42944 -1.53564 42.7209 4.42944 -1.53564
100 1 43.7403 5.99376 0.202428 43.7403 5.99376 0.202428
101 2 45.6865 5.72952 1.79538 45.6865 5.72952 1.79538
102 2 45.6548 5.94138 -1.52891 45.6548 5.94138 -1.52891
103 1 46.5884 4.30944 -0.0337677 46.5884 4.30944 -0.0337677
104 2 48.3343 4.30958 1.72135 48.3343 4.30958 1.72135
105 2 48.6319 4.25564 -1.561 48.6319 4.25564 -1.561
106 1 49.4434 5.93622 0.124669 49.4434 5.93622 0.124669
107 2 51.2751 6.07866 1.81572 51.2751 6.07866 1.81572
108 2 51.5172 5.82279 -1.40693 51.5172 5.82279 -1.40693
109 1 1.00547 7.58996 0.178671 1.00547 7.58996 0.178671
110 2 2.84654 7.52599 1.9212 2.84654 7.52599 1.9212
111 2 3.00778 7.51464 -1.39346 3.00778 7.51464 -1.39346
112 1 3.80275 9.22135 0.409417 3.80275 9.22135 0.409417
113 2 5.79736 9.33624 2.02813 5.79736 9.33624 2.02813
114 2 5.67954 9.24806 -1.24382 5.67954 9.24806 -1.24382
115 1 6.74052 7.56102 0.536243 6.74052 7.56102 0.536243
116 2 8.82803 7.51603 1.84934 8.82803 7.51603 1.84934
117 2 8.52237 7.57903 -1.36391 8.52237 7.57903 -1.36391
118 1 9.60806 9.22704 0.105775 9.60806 9.22704 0.105775
119 2 11.4666 9.09785 1.82084 11.4666 9.09785 1.82084
120 2 11.457 9.28685 -1.51578 11.457 9.28685 -1.51578
121 1 12.4752 7.61402 0.0392308 12.4752 7.61402 0.0392308
122 2 14.2841 7.55668 1.76848 14.2841 7.55668 1.76848
123 2 14.361 7.45743 -1.54191 14.361 7.45743 -1.54191
124 1 15.217 9.1747 0.14111 15.217 9.1747 0.14111
125 2 17.4311 9.14451 1.3637 17.4311 9.14451 1.3637
126 2 16.7787 9.177 -1.82673 16.7787 9.177 -1.82673
127 1 18.0435 7.58292 -0.490275 18.0435 7.58292 -0.490275
128 2 20.1006 7.58819 0.904083 20.1006 7.58819 0.904083
129 2 19.7345 7.59926 -2.28652 19.7345 7.59926 -2.28652
130 1 20.9143 9.18676 -0.716377 20.9143 9.18676 -0.716377
131 2 22.8971 9.23506 0.961435 22.8971 9.23506 0.961435
132 2 22.7512 9.27483 -2.40155 22.7512 9.27483 -2.40155
133 1 23.6998 7.64326 -0.733627 23.6998 7.64326 -0.733627
134 2 25.5807 7.77925 1.01241 25.5807 7.77925 1.01241
135 2 25.6466 7.50815 -2.28861 25.6466 7.50815 -2.28861
136 1 26.6088 9.25649 -0.745511 26.6088 9.25649 -0.745511
137 2 28.4062 9.16023 1.13925 28.4062 9.16023 1.13925
138 2 28.6587 9.14773 -2.20561 28.6587 9.14773 -2.20561
139 1 29.3756 7.52128 -0.512441 29.3756 7.52128 -0.512441
140 2 31.1778 7.71737 1.16907 31.1778 7.71737 1.16907
141 2 31.3566 7.45258 -1.99658 31.3566 7.45258 -1.99658
142 1 32.3556 9.21055 -0.520236 32.3556 9.21055 -0.520236
143 2 34.0808 9.10582 1.16346 34.0808 9.10582 1.16346
144 2 34.3153 9.17045 -2.10164 34.3153 9.17045 -2.10164
145 1 35.1575 7.47169 -0.410131 35.1575 7.47169 -0.410131
146 2 36.8626 7.546 1.42003 36.8626 7.546 1.42003
147 2 37.26 7.42959 -1.83738 37.26 7.42959 -1.83738
148 1 38.0318 9.10103 -0.149345 38.0318 9.10103 -0.149345
149 2 39.7786 9.1646 1.56776 39.7786 9.1646 1.56776
150 2 39.9593 9.22875 -1.70236 39.9593 9.22875 -1.70236
151 1 40.8438 7.57337 -0.0555804 40.8438 7.57337 -0.0555804
152 2 42.6366 7.53417 1.80951 42.6366 7.53417 1.80951
153 2 42.9359 7.72193 -1.45777 42.9359 7.72193 -1.45777
154 1 43.7258 9.22944 0.298672 43.7258 9.22944 0.298672
155 2 45.6079 9.02268 1.92257 45.6079 9.02268 1.92257
156 2 45.6236 9.38004 -1.22962 45.6236 9.38004 -1.22962
157 1 46.5312 7.52352 0.17155 46.5312 7.52352 0.17155
158 2 48.3908 7.40943 1.7828 48.3908 7.40943 1.7828
159 2 48.5241 7.6395 -1.34776 48.5241 7.6395 -1.34776
160 1 49.5285 9.25082 0.309018 49.5285 9.25082 0.309018
161 2 51.4684 9.10996 1.9328 51.4684 9.10996 1.9328
162 2 51.3768 9.35742 -1.36323 51.3768 9.35742 -1.36323
163 1 0.991151 10.8784 0.366391 0.991151 10.8784 0.366391
164 2 3.03835 11.0319 1.98678 3.03835 11.0319 1.98678
165 2 2.86045 10.8189 -1.25872 2.86045 10.8189 -1.25872
166 1 3.90104 12.5755 0.253474 3.90104 12.5755 0.253474
167 2 5.90299 12.7217 1.83563 5.90299 12.7217 1.83563
168 2 5.77904 12.4076 -1.43305 5.77904 12.4076 -1.43305
169 1 6.68634 10.9184 0.279775 6.68634 10.9184 0.279775
170 2 8.75235 11.1561 1.77219 8.75235 11.1561 1.77219
171 2 8.48437 10.6157 -1.56187 8.48437 10.6157 -1.56187
172 1 9.51107 12.5213 -0.250316 9.51107 12.5213 -0.250316
173 2 11.295 12.8213 1.45283 11.295 12.8213 1.45283
174 2 11.5181 12.4371 -1.7013 11.5181 12.4371 -1.7013
175 1 12.3873 11.0135 0.260034 12.3873 11.0135 0.260034
176 2 14.3045 10.9007 1.80709 14.3045 10.9007 1.80709
177 2 14.1766 10.8086 -1.45424 14.1766 10.8086 -1.45424
178 1 15.2719 12.6038 0.0698275 15.2719 12.6038 0.0698275
179 2 17.372 12.6584 1.40794 17.372 12.6584 1.40794
180 2 16.9284 12.5179 -1.79364 16.9284 12.5179 -1.79364
181 1 18.0991 10.8841 -0.336873 18.0991 10.8841 -0.336873
182 2 20.1297 10.9094 1.01322 20.1297 10.9094 1.01322
183 2 19.659 10.8974 -2.25274 19.659 10.8974 -2.25274
184 1 20.8413 12.5543 -0.760179 20.8413 12.5543 -0.760179
185 2 22.6191 12.5029 0.959919 22.6191 12.5029 0.959919
186 2 22.7409 12.6978 -2.33558 22.7409 12.6978 -2.33558
187 1 23.7088 10.8384 -0.727804 23.7088 10.8384 -0.727804
188 2 25.6027 10.8829 0.904894 25.6027 10.8829 0.904894
189 2 25.7054 10.7897 -2.31423 25.7054 10.7897 -2.31423
190 1 26.5967 12.4969 -0.738508 26.5967 12.4969 -0.738508
191 2 28.402 12.6307 1.02597 28.402 12.6307 1.02597
192 2 28.5626 12.5648 -2.27285 28.5626 12.5648 -2.27285
193 1 29.4973 10.8884 -0.507786 29.4973 10.8884 -0.507786
194 2 31.3842 10.7789 1.21454 31.3842 10.7789 1.21454
195 2 31.4431 11.0076 -2.0625 31.4431 11.0076 -2.0625
196 1 32.369 12.5056 -0.329168 32.369 12.5056 -0.329168
197 2 34.2769 12.3366 1.34827 34.2769 12.3366 1.34827
198 2 34.2813 12.6505 -1.89794 34.2813 12.6505 -1.89794
199 1 35.1632 10.7444 -0.409954 35.1632 10.7444 -0.409954
200 2 36.8738 10.7611 1.34702 36.8738 10.7611 1.34702
201 2 37.2889 10.7172 -1.88742 37.2889 10.7172 -1.88742
202 1 38.0367 12.4122 -0.187033 38.0367 12.4122 -0.187033
203 2 39.6605 12.3752 1.65883 39.6605 12.3752 1.65883
204 2 40.0579 12.5414 -1.64107 40.0579 12.5414 -1.64107
205 1 40.8412 10.8701 0.0287169 40.8412 10.8701 0.0287169
206 2 42.652 10.8496 1.8496 42.652 10.8496 1.8496
207 2 42.9257 11.0319 -1.32452 42.9257 11.0319 -1.32452
208 1 43.7219 12.5644 0.35546 43.7219 12.5644 0.35546
209 2 45.5353 12.4602 2.17099 45.5353 12.4602 2.17099
210 2 45.688 12.5672 -1.13321 45.688 12.5672 -1.13321
211 1 46.6005 10.8873 0.553461 46.6005 10.8873 0.553461
212 2 48.7067 10.8415 1.98751 48.7067 10.8415 1.98751
213 2 48.4267 10.9409 -1.27191 48.4267 10.9409 -1.27191
214 1 49.4828 12.5274 0.374892 49.4828 12.5274 0.374892
215 2 51.4749 12.5989 1.94643 51.4749 12.5989 1.94643
216 2 51.2734 12.5378 -1.23184 51.2734 12.5378 -1.23184
217 1 1.09233 14.1527 0.30294 1.09233 14.1527 0.30294
218 2 3.13047 14.1441 1.96027 3.13047 14.1441 1.96027
219 2 2.859 14.2607 -1.31641 2.859 14.2607 -1.31641
220 1 3.95623 15.7835 0.297601 3.95623 15.7835 0.297601
221 2 6.01354 15.9567 1.68038 6.01354 15.9567 1.68038
222 2 5.68375 15.6721 -1.57044 5.68375 15.6721 -1.57044
223 1 6.75393 14.1976 0.0279137 6.75393 14.1976 0.0279137
224 2 8.81262 14.2638 1.53612 8.81262 14.2638 1.53612
225 2 8.5154 14.1291 -1.75349 8.5154 14.1291 -1.75349
226 1 9.53033 15.9475 -0.322684 9.53033 15.9475 -0.322684
227 2 11.5879 16.0578 1.24103 11.5879 16.0578 1.24103
228 2 11.3985 15.7294 -1.99885 11.3985 15.7294 -1.99885
229 1 12.3733 14.2999 -0.199573 12.3733 14.2999 -0.199573
230 2 14.2411 14.4413 1.46762 14.2411 14.4413 1.46762
231 2 14.2716 13.9518 -1.91974 14.2716 13.9518 -1.91974
232 1 15.323 15.8804 -0.537284 15.323 15.8804 -0.537284
233 2 17.1662 15.8855 1.19288 17.1662 15.8855 1.19288
234 2 17.1648 15.7857 -2.08989 17.1648 15.7857 -2.08989
235 1 18.0622 14.3008 -0.403672 18.0622 14.3008 -0.403672
236 2 20.0298 14.0352 1.17099 20.0298 14.0352 1.17099
237 2 19.8789 14.527 -2.0943 19.8789 14.527 -2.0943
238 1 20.8906 15.8104 -0.309946 20.8906 15.8104 -0.309946
239 2 22.8969 15.6947 1.22128 22.8969 15.6947 1.22128
240 2 22.8503 15.8925 -2.114 22.8503 15.8925 -2.114
241 1 23.7102 14.1916 -0.583681 23.7102 14.1916 -0.583681
242 2 25.7125 13.9377 1.00874 25.7125 13.9377 1.00874
243 2 25.5499 14.4462 -2.24916 25.5499 14.4462 -2.24916
244 1 26.6698 15.8071 -0.458308 26.6698 15.8071 -0.458308
245 2 28.5565 15.5922 1.15876 28.5565 15.5922 1.15876
246 2 28.5384 16.123 -2.14364 28.5384 16.123 -2.14364
247 1 29.502 14.2344 -0.671698 29.502 14.2344 -0.671698
248 2 31.1903 14.0703 1.18224 31.1903 14.0703 1.18224
249 2 31.5974 14.0872 -2.04371 31.5974 14.0872 -2.04371
250 1 32.4008 15.6958 -0.317683 32.4008 15.6958 -0.317683
251 2 34.1621 15.6867 1.51104 34.1621 15.6867 1.51104
252 2 34.3275 15.6429 -1.87991 34.3275 15.6429 -1.87991
253 1 35.2135 14.0512 -0.169976 35.2135 14.0512 -0.169976
254 2 37.0486 13.9013 1.63244 37.0486 13.9013 1.63244
255 2 37.2415 14.2912 -1.61064 37.2415 14.2912 -1.61064
256 1 37.9982 15.7511 0.180151 37.9982 15.7511 0.180151
257 2 39.8538 15.7171 1.90519 39.8538 15.7171 1.90519
258 2 40.0294 15.6677 -1.35335 40.0294 15.6677 -1.35335
259 1 40.8669 14.104 0.266962 40.8669 14.104 0.266962
260 2 42.6405 14.013 2.0252 42.6405 14.013 2.0252
261 2 42.8255 14.3002 -1.22229 42.8255 14.3002 -1.22229
262 1 43.7711 15.8062 0.589283 43.7711 15.8062 0.589283
263 2 45.6063 15.9894 2.18576 45.6063 15.9894 2.18576
264 2 45.6145 15.6858 -1.06606 45.6145 15.6858 -1.06606
265 1 46.6799 14.2627 0.649774 46.6799 14.2627 0.649774
266 2 48.7221 14.3538 2.07723 48.7221 14.3538 2.07723
267 2 48.3959 14.1196 -1.18299 48.3959 14.1196 -1.18299
268 1 49.4979 15.8158 0.22774 49.4979 15.8158 0.22774
269 2 51.3301 15.8182 1.86249 51.3301 15.8182 1.86249
270 2 51.406 15.7934 -1.42084 51.406 15.7934 -1.42084
271 1 1.05277 17.4709 0.150692 1.05277 17.4709 0.150692
272 2 2.90795 17.444 1.7663 2.90795 17.444 1.7663
273 2 2.8329 17.3423 -1.48264 2.8329 17.3423 -1.48264
274 1 3.79052 19.0762 0.117395 3.79052 19.0762 0.117395
275 2 5.86158 19.0914 1.5958 5.86158 19.0914 1.5958
276 2 5.65357 19.1329 -1.62477 5.65357 19.1329 -1.62477
277 1 6.79833 17.4758 -0.18305 6.79833 17.4758 -0.18305
278 2 8.86665 17.5661 1.3556 8.86665 17.5661 1.3556
279 2 8.52066 17.5014 -1.95882 8.52066 17.5014 -1.95882
280 1 9.54283 19.1728 -0.365922 9.54283 19.1728 -0.365922
281 2 11.5339 19.2475 1.25936 11.5339 19.2475 1.25936
282 2 11.3816 19.1217 -2.06 11.3816 19.1217 -2.06
283 1 12.4125 17.5212 -0.498064 12.4125 17.5212 -0.498064
284 2 14.3018 17.4962 1.09052 14.3018 17.4962 1.09052
285 2 14.3136 17.5366 -2.18317 14.3136 17.5366 -2.18317
286 1 15.2491 19.1577 -0.559599 15.2491 19.1577 -0.559599
287 2 17.1537 19.1046 1.18482 17.1537 19.1046 1.18482
288 2 17.3482 19.171 -2.11122 17.3482 19.171 -2.11122
289 1 18.0837 17.5031 -0.478164 18.0837 17.5031 -0.478164
290 2 19.971 17.5668 1.33664 19.971 17.5668 1.33664
291 2 20.0684 17.5427 -1.95368 20.0684 17.5427 -1.95368
292 1 20.9977 19.1323 -0.258909 20.9977 19.1323 -0.258909
293 2 22.7896 19.0458 1.45801 22.7896 19.0458 1.45801
294 2 23.052 19.0108 -1.85275 23.052 19.0108 -1.85275
295 1 23.8385 17.4097 -0.229765 23.8385 17.4097 -0.229765
296 2 25.7689 17.3683 1.37018 25.7689 17.3683 1.37018
297 2 25.7158 17.5447 -1.88695 25.7158 17.5447 -1.88695
298 1 26.624 19.1711 -0.201605 26.624 19.1711 -0.201605
299 2 28.4075 19.1349 1.39313 28.4075 19.1349 1.39313
300 2 28.4744 19.1601 -1.9003 28.4744 19.1601 -1.9003
301 1 29.4657 17.4906 -0.274239 29.4657 17.4906 -0.274239
302 2 31.489 17.4628 1.25796 31.489 17.4628 1.25796
303 2 31.5131 17.3671 -1.9468 31.5131 17.3671 -1.9468
304 1 32.3796 19.0464 -0.390842 32.3796 19.0464 -0.390842
305 2 34.1434 19.0008 1.27541 34.1434 19.0008 1.27541
306 2 34.3265 18.9276 -2.02145 34.3265 18.9276 -2.02145
307 1 35.177 17.349 -0.214337 35.177 17.349 -0.214337
308 2 36.96 17.5534 1.56297 36.96 17.5534 1.56297
309 2 37.2201 17.2792 -1.68683 37.2201 17.2792 -1.68683
310 1 37.9907 19.0241 -0.117041 37.9907 19.0241 -0.117041
311 2 39.6904 19.1571 1.76376 39.6904 19.1571 1.76376
312 2 40.0889 18.8507 -1.5187 40.0889 18.8507 -1.5187
313 1 40.8743 17.3616 0.371401 40.8743 17.3616 0.371401
314 2 42.7895 17.4353 2.18059 42.7895 17.4353 2.18059
315 2 42.8823 17.3436 -1.20958 42.8823 17.3436 -1.20958
316 1 43.707 19.0859 0.451487 43.707 19.0859 0.451487
317 2 45.7773 19.22 1.99382 45.7773 19.22 1.99382
318 2 45.5046 19.0014 -1.30286 45.5046 19.0014 -1.30286
319 1 46.5266 17.5052 0.441479 46.5266 17.5052 0.441479
320 2 48.6417 17.5059 1.88409 48.6417 17.5059 1.88409
321 2 48.4338 17.541 -1.3061 48.4338 17.541 -1.3061
322 1 49.5341 19.1966 0.334113 49.5341 19.1966 0.334113
323 2 51.6953 19.2338 1.7985 51.6953 19.2338 1.7985
324 2 51.2992 19.0216 -1.41911 51.2992 19.0216 -1.41911
325 1 0.979003 20.7784 -0.00260033 0.979003 20.7784 -0.00260033
326 2 2.80772 20.9115 1.76749 2.80772 20.9115 1.76749
327 2 2.96239 20.6565 -1.61147 2.96239 20.6565 -1.61147
328 1 3.82953 22.3677 0.0729924 3.82953 22.3677 0.0729924
329 2 5.80432 22.4195 1.67891 5.80432 22.4195 1.67891
330 2 5.65124 22.3725 -1.66326 5.65124 22.3725 -1.66326
331 1 6.68426 20.7393 -0.0513248 6.68426 20.7393 -0.0513248
332 2 8.7395 20.737 1.29363 8.7395 20.737 1.29363
333 2 8.37014 20.7081 -1.92774 8.37014 20.7081 -1.92774
334 1 9.52445 22.3962 -0.412907 9.52445 22.3962 -0.412907
335 2 11.3678 22.3647 1.22261 11.3678 22.3647 1.22261
336 2 11.5421 22.6412 -2.03634 11.5421 22.6412 -2.03634
337 1 12.3803 20.8921 -0.440556 12.3803 20.8921 -0.440556
338 2 14.31 20.7579 1.23497 14.31 20.7579 1.23497
339 2 14.3236 20.9463 -2.1164 14.3236 20.9463 -2.1164
340 1 15.2683 22.4368 -0.247248 15.2683 22.4368 -0.247248
341 2 17.1955 22.395 1.25696 17.1955 22.395 1.25696
342 2 17.0168 22.4026 -2.03436 17.0168 22.4026 -2.03436
343 1 18.1084 20.7803 -0.40776 18.1084 20.7803 -0.40776
344 2 20.0178 20.8392 1.3252 20.0178 20.8392 1.3252
345 2 20.0935 20.5735 -1.988 20.0935 20.5735 -1.988
346 1 20.94 22.3871 -0.379484 20.94 22.3871 -0.379484
347 2 22.8278 22.3922 1.36725 22.8278 22.3922 1.36725
348 2 22.8232 22.1845 -1.95821 22.8232 22.1845 -1.95821
349 1 23.7493 20.7341 -0.198672 23.7493 20.7341 -0.198672
350 2 25.6262 20.9028 1.38279 25.6262 20.9028 1.38279
351 2 25.6637 20.7588 -1.77579 25.6637 20.7588 -1.77579
352 1 26.6613 22.4382 -0.231688 26.6613 22.4382 -0.231688
353 2 28.7029 22.6367 1.31071 28.7029 22.6367 1.31071
354 2 28.5564 22.3251 -1.95666 28.5564 22.3251 -1.95666
355 1 29.4501 20.7412 -0.190609 29.4501 20.7412 -0.190609
356 2 31.6017 20.7073 1.18019 31.6017 20.7073 1.18019
357 2 31.3744 20.6626 -1.94422 31.3744 20.6626 -1.94422
358 1 32.3475 22.3425 -0.467465 32.3475 22.3425 -0.467465
359 2 34.2715 22.3444 1.11516 34.2715 22.3444 1.11516
360 2 34.3016 22.2417 -2.10562 34.3016 22.2417 -2.10562
361 1 35.2391 20.6746 -0.449515 35.2391 20.6746 -0.449515
362 2 37.1355 20.8223 1.24061 37.1355 20.8223 1.24061
363 2 37.1432 20.4048 -1.94603 37.1432 20.4048 -1.94603
364 1 38.1372 22.2834 -0.413061 38.1372 22.2834 -0.413061
365 2 39.851 22.619 1.40354 39.851 22.619 1.40354
366 2 40.0586 21.9817 -1.86266 40.0586 21.9817 -1.86266
367 1 40.8733 20.642 0.153299 40.8733 20.642 0.153299
368 2 42.8228 21.0279 1.70922 42.8228 21.0279 1.70922
369 2 42.7249 20.438 -1.48316 42.7249 20.438 -1.48316
370 1 43.8023 22.3296 -0.215179 43.8023 22.3296 -0.215179
371 2 45.4687 22.5091 1.55428 45.4687 22.5091 1.55428
372 2 45.7593 22.1968 -1.75889 45.7593 22.1968 -1.75889
373 1 46.5782 20.7358 0.0965748 46.5782 20.7358 0.0965748
374 2 48.5892 21.0166 1.64573 48.5892 21.0166 1.64573
375 2 48.5921 20.5274 -1.54063 48.5921 20.5274 -1.54063
376 1 49.4648 22.4048 -0.25378 49.4648 22.4048 -0.25378
377 2 51.3072 22.4972 1.45356 51.3072 22.4972 1.45356
378 2 51.4597 22.3356 -1.87073 51.4597 22.3356 -1.87073
379 1 1.01197 24.0482 -0.226266 1.01197 24.0482 -0.226266
380 2 2.73611 24.0756 1.52143 2.73611 24.0756 1.52143
381 2 2.96812 23.9633 -1.65785 2.96812 23.9633 -1.65785
382 1 3.85334 25.6289 -0.0406826 3.85334 25.6289 -0.0406826
383 2 5.80148 25.5726 1.52957 5.80148 25.5726 1.52957
384 2 5.73158 25.7913 -1.73011 5.73158 25.7913 -1.73011
385 1 6.75088 24.0804 -0.172604 6.75088 24.0804 -0.172604
386 2 8.67037 23.9573 1.38824 8.67037 23.9573 1.38824
387 2 8.47758 24.1655 -1.98644 8.47758 24.1655 -1.98644
388 1 9.5766 25.7608 -0.213994 9.5766 25.7608 -0.213994
389 2 11.3892 25.7242 1.58329 11.3892 25.7242 1.58329
390 2 11.574 25.8851 -1.73907 11.574 25.8851 -1.73907
391 1 12.38 24.1303 -0.223547 12.38 24.1303 -0.223547
392 2 14.3832 24.1171 1.38616 14.3832 24.1171 1.38616
393 2 14.279 24.1645 -1.79541 14.279 24.1645 -1.79541
394 1 15.2465 25.7322 -0.246337 15.2465 25.7322 -0.246337
395 2 17.2128 25.6843 1.30059 17.2128 25.6843 1.30059
396 2 17.0702 25.6457 -1.94915 17.0702 25.6457 -1.94915
397 1 18.0489 24.0233 -0.369135 18.0489 24.0233 -0.369135
398 2 19.9443 24.189 1.06492 19.9443 24.189 1.06492
399 2 19.8677 23.7135 -2.03071 19.8677 23.7135 -2.03071
400 1 20.8813 25.6996 -0.583216 20.8813 25.6996 -0.583216
401 2 22.7976 25.8072 1.06863 22.7976 25.8072 1.06863
402 2 22.675 25.5461 -2.19475 22.675 25.5461 -2.19475
403 1 23.7724 24.073 -0.435814 23.7724 24.073 -0.435814
404 2 25.671 24.2926 1.16669 25.671 24.2926 1.16669
405 2 25.7262 23.7883 -2.11291 25.7262 23.7883 -2.11291
406 1 26.6192 25.707 -0.624465 26.6192 25.707 -0.624465
407 2 28.551 25.8363 1.0003 28.551 25.8363 1.0003
408 2 28.5956 25.5382 -2.27975 28.5956 25.5382 -2.27975
409 1 29.5591 24.0478 -0.590866 29.5591 24.0478 -0.590866
410 2 31.3929 23.9562 1.17342 31.3929 23.9562 1.17342
411 2 31.4368 24.0885 -2.11595 31.4368 24.0885 -2.11595
412 1 32.4371 25.6699 -0.410098 32.4371 25.6699 -0.410098
413 2 34.3354 25.6372 1.11753 34.3354 25.6372 1.11753
414 2 34.2904 25.7276 -2.15528 34.2904 25.7276 -2.15528
415 1 35.2433 23.9634 -0.549045 35.2433 23.9634 -0.549045
416 2 37.0813 24.0462 1.15735 37.0813 24.0462 1.15735
417 2 37.2796 23.8469 -2.18199 37.2796 23.8469 -2.18199
418 1 38.0964 25.5787 -0.528676 38.0964 25.5787 -0.528676
419 2 39.9693 25.792 1.10836 39.9693 25.792 1.10836
420 2 39.9532 25.454 -2.16556 39.9532 25.454 -2.16556
421 1 40.92 23.9975 -0.363369 40.92 23.9975 -0.363369
422 2 42.8653 24.1006 1.31754 42.8653 24.1006 1.31754
423 2 42.8908 23.9433 -1.93038 42.8908 23.9433 -1.93038
424 1 43.8008 25.5698 -0.351532 43.8008 25.5698 -0.351532
425 2 45.7634 25.592 1.43177 45.7634 25.592 1.43177
426 2 45.8298 25.5366 -1.89771 45.8298 25.5366 -1.89771
427 1 46.613 23.9928 -0.196755 46.613 23.9928 -0.196755
428 2 48.6086 24.1057 1.41576 48.6086 24.1057 1.41576
429 2 48.4219 24.1152 -1.82712 48.4219 24.1152 -1.82712
430 1 49.477 25.7471 -0.208473 49.477 25.7471 -0.208473
431 2 51.4085 25.5891 1.48195 51.4085 25.5891 1.48195
432 2 51.4341 25.7495 -1.77427 51.4341 25.7495 -1.77427
433 1 52.3541 27.378 -0.0717663 1.01927 27.378 -0.0717663
434 2 2.99655 27.3419 1.49478 2.99655 27.3419 1.49478
435 2 2.87558 27.2873 -1.71284 2.87558 27.2873 -1.71284
436 1 3.84779 28.9799 -0.192923 3.84779 28.9799 -0.192923
437 2 5.55214 28.8841 1.65593 5.55214 28.8841 1.65593
438 2 5.9186 28.906 -1.68084 5.9186 28.906 -1.68084
439 1 6.68279 27.3236 -0.0224796 6.68279 27.3236 -0.0224796
440 2 8.63512 27.2742 1.52463 8.63512 27.2742 1.52463
441 2 8.53218 27.423 -1.70751 8.53218 27.423 -1.70751
442 1 9.55776 28.9458 0.00907306 9.55776 28.9458 0.00907306
443 2 11.522 29.204 1.58956 11.522 29.204 1.58956
444 2 11.357 28.8566 -1.70495 11.357 28.8566 -1.70495
445 1 12.4904 27.3951 -0.0274202 12.4904 27.3951 -0.0274202
446 2 14.4794 27.5209 1.44081 14.4794 27.5209 1.44081
447 2 14.1991 27.4232 -1.82987 14.1991 27.4232 -1.82987
448 1 15.3055 29.0722 -0.339968 15.3055 29.0722 -0.339968
449 2 17.2388 28.9786 1.24601 17.2388 28.9786 1.24601
450 2 17.1197 29.0504 -2.06117 17.1197 29.0504 -2.06117
451 1 18.1535 27.3243 -0.408342 18.1535 27.3243 -0.408342
452 2 20.1434 27.3529 1.17286 20.1434 27.3529 1.17286
453 2 19.8752 27.32 -2.16329 19.8752 27.32 -2.16329
454 1 20.9426 28.9687 -0.571298 20.9426 28.9687 -0.571298
455 2 22.8479 28.969 1.04312 22.8479 28.969 1.04312
456 2 22.753 29.11 -2.29397 22.753 29.11 -2.29397
457 1 23.765 27.3464 -0.687646 23.765 27.3464 -0.687646
458 2 25.8151 27.4857 0.90377 25.8151 27.4857 0.90377
459 2 25.6644 27.2723 -2.31195 25.6644 27.2723 -2.31195
460 1 26.6551 28.985 -0.796999 26.6551 28.985 -0.796999
461 2 28.5971 28.8746 0.922506 28.5971 28.8746 0.922506
462 2 28.6281 29.0996 -2.33691 28.6281 29.0996 -2.33691
463 1 29.5135 27.2849 -0.725655 29.5135 27.2849 -0.725655
464 2 31.3473 27.3318 1.09612 31.3473 27.3318 1.09612
465 2 31.5526 27.1218 -2.24056 31.5526 27.1218 -2.24056
466 1 32.3724 28.8887 -0.646174 32.3724 28.8887 -0.646174
467 2 34.2414 28.7263 1.16475 34.2414 28.7263 1.16475
468 2 34.368 28.8959 -2.19898 34.368 28.8959 -2.19898
469 1 35.2646 27.2681 -0.524372 35.2646 27.2681 -0.524372
470 2 37.1125 27.2571 1.08087 37.1125 27.2571 1.08087
471 2 37.1184 27.0894 -2.15805 37.1184 27.0894 -2.15805
472 1 37.9467 28.8356 -0.637734 37.9467 28.8356 -0.637734
473 2 39.9983 28.9116 0.945478 39.9983 28.9116 0.945478
474 2 39.7621 28.8668 -2.2655 39.7621 28.8668 -2.2655
475 1 40.9277 27.2672 -0.671681 40.9277 27.2672 -0.671681
476 2 42.7028 27.3291 1.12254 42.7028 27.3291 1.12254
477 2 43.0601 27.2519 -2.13396 43.0601 27.2519 -2.13396
478 1 43.7266 28.9884 -0.457488 43.7266 28.9884 -0.457488
479 2 45.5018 29.0305 1.31266 45.5018 29.0305 1.31266
480 2 45.7409 28.9341 -1.94552 45.7409 28.9341 -1.94552
481 1 46.5802 27.3028 -0.17519 46.5802 27.3028 -0.17519
482 2 48.4099 27.2676 1.46266 48.4099 27.2676 1.46266
483 2 48.5377 27.476 -1.77186 48.5377 27.476 -1.77186
484 1 49.4217 28.9896 0.0207446 49.4217 28.9896 0.0207446
485 2 51.396 28.9538 1.6561 51.396 28.9538 1.6561
486 2 51.3372 29.1047 -1.59671 51.3372 29.1047 -1.59671
487 1 0.950136 30.6347 0.162001 0.950136 30.6347 0.162001
488 2 2.91738 30.4964 1.69232 2.91738 30.4964 1.69232
489 2 2.71254 30.6299 -1.57783 2.71254 30.6299 -1.57783
490 1 3.85279 32.2328 0.0998068 3.85279 32.2328 0.0998068
491 2 5.80768 32.2472 1.63825 5.80768 32.2472 1.63825
492 2 5.68991 32.1305 -1.65692 5.68991 32.1305 -1.65692
493 1 6.64156 30.5508 0.0652932 6.64156 30.5508 0.0652932
494 2 8.54777 30.5559 1.66964 8.54777 30.5559 1.66964
495 2 8.60485 30.6545 -1.56933 8.60485 30.6545 -1.56933
496 1 9.59793 32.2041 0.114712 9.59793 32.2041 0.114712
497 2 11.6375 32.2558 1.56724 11.6375 32.2558 1.56724
498 2 11.2906 32.3532 -1.72622 11.2906 32.3532 -1.72622
499 1 12.4132 30.6357 -0.212108 12.4132 30.6357 -0.212108
500 2 14.303 30.6968 1.34557 14.303 30.6968 1.34557
501 2 14.3148 30.7473 -1.87705 14.3148 30.7473 -1.87705
502 1 15.2899 32.292 -0.199382 15.2899 32.292 -0.199382
503 2 17.3674 32.2653 1.22945 17.3674 32.2653 1.22945
504 2 17.0745 32.0859 -2.00122 17.0745 32.0859 -2.00122
505 1 18.1443 30.6319 -0.395681 18.1443 30.6319 -0.395681
506 2 20.0441 30.6131 1.16672 20.0441 30.6131 1.16672
507 2 19.9441 30.7153 -2.12059 19.9441 30.7153 -2.12059
508 1 21.0207 32.2928 -0.416828 21.0207 32.2928 -0.416828
509 2 23.0048 32.1911 1.29062 23.0048 32.1911 1.29062
510 2 22.8791 32.2634 -2.03321 22.8791 32.2634 -2.03321
511 1 23.905 30.6084 -0.437562 23.905 30.6084 -0.437562
512 2 25.8813 30.4493 1.01183 25.8813 30.4493 1.01183
513 2 25.7481 30.7133 -2.23255 25.7481 30.7133 -2.23255
514 1 26.7386 32.2794 -0.564057 26.7386 32.2794 -0.564057
515 2 28.5516 32.1387 1.11162 28.5516 32.1387 1.11162
516 2 28.8153 32.3623 -2.07692 28.8153 32.3623 -2.07692
517 1 29.6232 30.6005 -0.543679 29.6232 30.6005 -0.543679
518 2 31.5364 30.4497 1.17935 31.5364 30.4497 1.17935
519 2 31.5163 30.6184 -2.1505 31.5163 30.6184 -2.1505
520 1 32.4086 32.2499 -0.333118 32.4086 32.2499 -0.333118
521 2 34.2581 32.1552 1.32151 34.2581 32.1552 1.32151
522 2 34.1868 32.3048 -2.00301 34.1868 32.3048 -2.00301
523 1 35.1616 30.5718 -0.400932 35.1616 30.5718 -0.400932
524 2 37.18 30.4483 1.10919 37.18 30.4483 1.10919
525 2 36.9178 30.5509 -2.173 36.9178 30.5509 -2.173
526 1 38.0007 32.2073 -0.57601 38.0007 32.2073 -0.57601
527 2 39.9949 32.2114 0.931323 39.9949 32.2114 0.931323
528 2 39.8045 32.233 -2.27212 39.8045 32.233 -2.27212
529 1 40.8899 30.5201 -0.683877 40.8899 30.5201 -0.683877
530 2 42.6583 30.6015 1.15156 42.6583 30.6015 1.15156
531 2 42.9349 30.5113 -2.20822 42.9349 30.5113 -2.20822
532 1 43.7577 32.3492 -0.515029 43.7577 32.3492 -0.515029
533 2 45.4494 32.2742 1.33932 45.4494 32.2742 1.33932
534 2 45.9018 32.4714 -1.85528 45.9018 32.4714 -1.85528
535 1 46.5929 30.6787 -0.190007 46.5929 30.6787 -0.190007
536 2 48.4584 30.5968 1.56057 48.4584 30.5968 1.56057
537 2 48.6708 30.6871 -1.65977 48.6708 30.6871 -1.65977
538 1 49.4857 32.1868 0.132152 49.4857 32.1868 0.132152
539 2 51.4205 32.4053 1.71338 51.4205 32.4053 1.71338