ITEM: TIMESTEP
38600
ITEM: NUMBER OF ATOMS
810
ITEM: BOX BOUNDS pp pp pp
8.4137701477268123e-01 5.2176227985227342e+01
8.0961581116522285e-01 5.0206599188834083e+01
-1.0000000000000000e+01 1.0000000000000000e+01
ITEM: ATOMS id type x y z xu yu zu
1 1 1.29893 0.90183 0.705727 1.29893 0.90183 0.705727
2 2 3.47451 50.2229 2.14887 3.47451 0.825957 2.14887
3 2 3.09686 1.04609 -1.13693 3.09686 1.04609 -1.13693
4 1 4.15224 2.56992 0.493306 4.15224 2.56992 0.493306
5 2 6.069 2.69246 2.02429 6.069 2.69246 2.02429
6 2 5.94956 2.64562 -1.21725 5.94956 2.64562 -1.21725
7 1 6.89438 0.977497 0.31927 6.89438 0.977497 0.31927
8 2 8.94174 0.988777 1.84422 8.94174 0.988777 1.84422
9 2 8.69754 1.06896 -1.43592 8.69754 1.06896 -1.43592
10 1 9.80351 2.59374 0.209978 9.80351 2.59374 0.209978
11 2 11.842 2.34769 1.5615 11.842 2.34769 1.5615
12 2 11.4363 2.6373 -1.64885 11.4363 2.6373 -1.64885
13 1 12.65 0.900871 -0.307668 12.65 0.900871 -0.307668
14 2 14.513 50.1718 1.43359 14.513 0.774773 1.43359
15 2 14.6463 0.988184 -1.85524 14.6463 0.988184 -1.85524
16 1 15.4258 2.51186 -0.104729 15.4258 2.51186 -0.104729
17 2 17.4431 2.41858 1.49852 17.4431 2.41858 1.49852
18 2 17.3397 2.65864 -1.73558 17.3397 2.65864 -1.73558
19 1 18.3506 0.801303 -0.273934 18.3506 0.801303 -0.273934
20 2 20.3309 50.0337 1.35783 20.3309 0.636738 1.35783
21 2 20.2074 1.03012 -2.00382 20.2074 1.03012 -2.00382
22 1 21.1664 2.39604 -0.131593 21.1664 2.39604 -0.131593
23 2 23.1794 2.40674 1.43981 23.1794 2.40674 1.43981
24 2 23.0549 2.53494 -1.86294 23.0549 2.53494 -1.86294
25 1 24.065 0.874565 -0.279249 24.065 0.874565 -0.279249
26 2 25.973 0.927639 1.335 25.973 0.927639 1.335
27 2 25.9577 1.03495 -1.93838 25.9577 1.03495 -1.93838
28 1 26.9018 2.6327 -0.234523 26.9018 2.6327 -0.234523
29 2 28.8063 2.73465 1.33396 28.8063 2.73465 1.33396
30 2 28.7205 2.42373 -1.94627 28.7205 2.42373 -1.94627
31 1 29.7418 0.97084 -0.265478 29.7418 0.97084 -0.265478
32 2 31.6521 0.948139 1.31621 31.6521 0.948139 1.31621
33 2 31.5264 1.05179 -1.97331 31.5264 1.05179 -1.97331
34 1 32.5408 2.61601 -0.270864 32.5408 2.61601 -0.270864
35 2 34.6299 2.62908 1.36086 34.6299 2.62908 1.36086
36 2 34.4405 2.6623 -1.84738 34.4405 2.6623 -1.84738
37 1 35.4618 1.0053 -0.277239 35.4618 1.0053 -0.277239
38 2 37.4604 0.963766 1.43445 37.4604 0.963766 1.43445
39 2 37.4094 0.990556 -1.85891 37.4094 0.990556 -1.85891
40 1 38.4621 2.57007 -0.240237 38.4621 2.57007 -0.240237
41 2 40.1907 2.55943 1.56056 40.1907 2.55943 1.56056
42 2 40.3499 2.67494 -1.70694 40.3499 2.67494 -1.70694
43 1 41.1716 0.896628 -0.0105792 41.1716 0.896628 -0.0105792
44 2 42.9644 0.925392 1.61643 42.9644 0.925392 1.61643
45 2 43.0609 1.00326 -1.63377 43.0609 1.00326 -1.63377
46 1 44.019 2.66685 0.0232138 44.019 2.66685 0.0232138
47 2 45.6286 2.34476 1.91492 45.6286 2.34476 1.91492
48 2 46.2221 2.7415 -1.21052 46.2221 2.7415 -1.21052
49 1 46.8303 0.960891 0.355815 46.8303 0.960891 0.355815
50 2 48.6918 50.0681 2.12266 48.6918 0.67108 2.12266
51 2 48.8546 1.14318 -1.1927 48.8546 1.14318 -1.1927
52 1 49.7178 2.57041 0.756879 49.7178 2.57041 0.756879
53 2 51.5627 2.46264 2.61328 51.5627 2.46264 2.61328
54 2 51.7123 2.75269 -0.708751 51.7123 2.75269 -0.708751
55 1 1.243 4.16773 1.15078 1.243 4.16773 1.15078
56 2 3.35703 4.04446 2.3981 3.35703 4.04446 2.3981
57 2 2.98022 4.30818 -0.889907 2.98022 4.30818 -0.889907
58 1 4.13404 5.87681 0.827725 4.13404 5.87681 0.827725
59 2 6.21876 5.86144 2.22472 6.21876 5.86144 2.22472
60 2 5.89879 5.8594 -1.06865 5.89879 5.8594 -1.06865
61 1 6.97119 4.20272 0.422744 6.97119 4.20272 0.422744
62 2 8.88425 4.24392 1.88225 8.88425 4.24392 1.88225
63 2 8.64394 4.25016 -1.477 8.64394 4.25016 -1.477
64 1 9.72455 5.83095 0.14407 9.72455 5.83095 0.14407
65 2 11.7837 5.85843 1.68888 11.7837 5.85843 1.68888
66 2 11.5119 5.70886 -1.59613 11.5119 5.70886 -1.59613
67 1 12.6084 4.16986 0.0299594 12.6084 4.16986 0.0299594
68 2 14.698 4.23906 1.56345 14.698 4.23906 1.56345
69 2 14.419 4.10001 -1.73893 14.419 4.10001 -1.73893
70 1 15.4621 5.88688 -0.184701 15.4621 5.88688 -0.184701
71 2 17.376 5.89647 1.43765 17.376 5.89647 1.43765
72 2 17.3624 5.56255 -1.90244 17.3624 5.56255 -1.90244
73 1 18.3218 4.14814 -0.0646466 18.3218 4.14814 -0.0646466
74 2 20.2901 4.11338 1.43145 20.2901 4.11338 1.43145
75 2 20.1221 3.97218 -1.87831 20.1221 3.97218 -1.87831
76 1 21.1333 5.69558 -0.371018 21.1333 5.69558 -0.371018
77 2 23.1009 5.99606 1.25344 23.1009 5.99606 1.25344
78 2 23.0594 5.54735 -2.0818 23.0594 5.54735 -2.0818
79 1 23.958 4.16509 -0.227742 23.958 4.16509 -0.227742
80 2 25.9393 4.23712 1.41481 25.9393 4.23712 1.41481
81 2 25.8197 4.21955 -1.89563 25.8197 4.21955 -1.89563
82 1 26.8231 5.90176 -0.261032 26.8231 5.90176 -0.261032
83 2 28.8629 5.89325 1.28179 28.8629 5.89325 1.28179
84 2 28.7389 5.97041 -2.02664 28.7389 5.97041 -2.02664
85 1 29.656 4.24155 -0.471867 29.656 4.24155 -0.471867
86 2 31.4998 4.22831 1.19951 31.4998 4.22831 1.19951
87 2 31.6338 4.23914 -1.9651 31.6338 4.23914 -1.9651
88 1 32.6451 5.86765 -0.344338 32.6451 5.86765 -0.344338
89 2 34.5232 5.81827 1.34571 34.5232 5.81827 1.34571
90 2 34.5056 5.95596 -2.00822 34.5056 5.95596 -2.00822
91 1 35.4825 4.31814 -0.290308 35.4825 4.31814 -0.290308
92 2 37.5109 4.22477 1.30262 37.5109 4.22477 1.30262
93 2 37.4355 4.26624 -1.84904 37.4355 4.26624 -1.84904
94 1 38.4052 5.89554 -0.278597 38.4052 5.89554 -0.278597
95 2 40.0488 5.95095 1.58039 40.0488 5.95095 1.58039
96 2 40.3553 5.99733 -1.74312 40.3553 5.99733 -1.74312
97 1 41.1957 4.29196 0.0705696 41.1957 4.29196 0.0705696
98 2 43.0148 4.12726 1.81209 43.0148 4.12726 1.81209
99 2 43.1911 4.48797 -1.39761 43.1911 4.48797 -1.39761
100 1 44.0088 5.9959 0.52721 44.0088 5.9959 0.52721
101 2 45.7976 5.74875 2.30916 45.7976 5.74875 2.30916
102 2 46.0889 5.92066 -0.900696 46.0889 5.92066 -0.900696
103 1 46.8716 4.24053 0.728272 46.8716 4.24053 0.728272
104 2 48.5631 4.19322 2.43212 48.5631 4.19322 2.43212
105 2 48.8713 4.22978 -0.85185 48.8713 4.22978 -0.85185
106 1 49.7435 5.81884 0.91885 49.7435 5.81884 0.91885
107 2 51.6022 5.99171 2.64721 51.6022 5.99171 2.64721
108 2 51.6409 5.68874 -0.673947 51.6409 5.68874 -0.673947
109 1 1.22991 7.50356 0.862746 1.22991 7.50356 0.862746
110 2 3.28529 7.46255 2.44493 3.28529 7.46255 2.44493
111 2 3.10956 7.4367 -0.768393 3.10956 7.4367 -0.768393
112 1 4.01324 9.15255 0.819199 4.01324 9.15255 0.819199
113 2 6.05866 9.26647 2.19871 6.05866 9.26647 2.19871
114 2 5.84396 9.06523 -1.09469 5.84396 9.06523 -1.09469
115 1 6.96836 7.52929 0.405659 6.96836 7.52929 0.405659
116 2 8.94351 7.48405 1.83226 8.94351 7.48405 1.83226
117 2 8.66943 7.56948 -1.42822 8.66943 7.56948 -1.42822
118 1 9.76404 9.21946 0.140336 9.76404 9.21946 0.140336
119 2 11.7588 9.27549 1.6251 11.7588 9.27549 1.6251
120 2 11.3995 9.02808 -1.67451 11.3995 9.02808 -1.67451
121 1 12.6032 7.48405 0.00588064 12.6032 7.48405 0.00588064
122 2 14.6627 7.5733 1.41366 14.6627 7.5733 1.41366
123 2 14.2917 7.52523 -1.73313 14.2917 7.52523 -1.73313
124 1 15.459 9.19246 -0.244105 15.459 9.19246 -0.244105
125 2 17.4828 9.20739 1.20952 17.4828 9.20739 1.20952
126 2 17.2024 8.82819 -2.04347 17.2024 8.82819 -2.04347
127 1 18.3038 7.43703 -0.448548 18.3038 7.43703 -0.448548
128 2 20.293 7.59747 1.14434 20.293 7.59747 1.14434
129 2 20.0388 7.24574 -2.16144 20.0388 7.24574 -2.16144
130 1 21.0955 9.05686 -0.771881 21.0955 9.05686 -0.771881
131 2 23.0486 9.1147 0.887008 23.0486 9.1147 0.887008
132 2 23.0528 8.85591 -2.35292 23.0528 8.85591 -2.35292
133 1 23.9585 7.40832 -0.613352 23.9585 7.40832 -0.613352
134 2 25.789 7.78512 0.988865 25.789 7.78512 0.988865
135 2 25.9349 7.19489 -2.25191 25.9349 7.19489 -2.25191
136 1 26.7946 9.16084 -0.766469 26.7946 9.16084 -0.766469
137 2 28.5445 9.19368 1.08821 28.5445 9.19368 1.08821
138 2 28.9239 9.0253 -2.03118 28.9239 9.0253 -2.03118
139 1 29.7366 7.46764 -0.362316 29.7366 7.46764 -0.362316
140 2 31.7113 7.61625 1.209 31.7113 7.61625 1.209
141 2 31.6493 7.37021 -1.98628 31.6493 7.37021 -1.98628
142 1 32.5115 9.18614 -0.491841 32.5115 9.18614 -0.491841
143 2 34.3402 9.28801 1.2874 34.3402 9.28801 1.2874
144 2 34.5528 9.17448 -1.97657 34.5528 9.17448 -1.97657
145 1 35.3935 7.4648 -0.280313 35.3935 7.4648 -0.280313
146 2 37.3214 7.33582 1.41559 37.3214 7.33582 1.41559
147 2 37.3129 7.61962 -1.81888 37.3129 7.61962 -1.81888
148 1 38.2542 9.20623 -0.115611 38.2542 9.20623 -0.115611
149 2 40.0246 9.18138 1.6976 40.0246 9.18138 1.6976
150 2 40.3588 9.29404 -1.57926 40.3588 9.29404 -1.57926
151 1 41.2441 7.66299 0.0891712 41.2441 7.66299 0.0891712
152 2 42.9023 7.62126 2.0028 42.9023 7.62126 2.0028
153 2 43.2621 7.69398 -1.35398 43.2621 7.69398 -1.35398
154 1 44.0117 9.20808 0.469172 44.0117 9.20808 0.469172
155 2 45.8569 9.2663 2.2474 45.8569 9.2663 2.2474
156 2 46.0556 9.05599 -1.05627 46.0556 9.05599 -1.05627
157 1 46.8724 7.58129 0.763731 46.8724 7.58129 0.763731
158 2 48.7237 7.67986 2.47764 48.7237 7.67986 2.47764
159 2 48.8004 7.38898 -0.721895 48.8004 7.38898 -0.721895
160 1 49.6504 9.1732 0.777637 49.6504 9.1732 0.777637
161 2 51.6061 9.22321 2.46945 51.6061 9.22321 2.46945
162 2 51.5754 9.0449 -0.84601 51.5754 9.0449 -0.84601
163 1 1.18776 10.8752 0.737628 1.18776 10.8752 0.737628
164 2 3.18214 10.9567 2.36562 3.18214 10.9567 2.36562
165 2 3.06362 10.7578 -0.928544 3.06362 10.7578 -0.928544
166 1 3.97191 12.4513 0.542443 3.97191 12.4513 0.542443
167 2 5.86081 12.4515 2.04462 5.86081 12.4515 2.04462
168 2 5.75014 12.5556 -1.25109 5.75014 12.5556 -1.25109
169 1 6.8404 10.9069 0.302738 6.8404 10.9069 0.302738
170 2 8.84203 10.865 1.83459 8.84203 10.865 1.83459
171 2 8.66033 10.8976 -1.41217 8.66033 10.8976 -1.41217
172 1 9.6434 12.5251 0.163783 9.6434 12.5251 0.163783
173 2 11.7882 12.4984 1.46658 11.7882 12.4984 1.46658
174 2 11.339 12.4296 -1.72925 11.339 12.4296 -1.72925
175 1 12.4451 10.7712 -0.17102 12.4451 10.7712 -0.17102
176 2 14.4737 10.7324 1.37052 14.4737 10.7324 1.37052
177 2 14.3801 10.7286 -1.8499 14.3801 10.7286 -1.8499
178 1 15.3512 12.4124 -0.286889 15.3512 12.4124 -0.286889
179 2 17.5529 12.5187 0.99617 17.5529 12.5187 0.99617
180 2 16.8776 12.3172 -2.24818 16.8776 12.3172 -2.24818
181 1 18.1762 10.7166 -0.650437 18.1762 10.7166 -0.650437
182 2 20.1839 10.8249 0.861276 20.1839 10.8249 0.861276
183 2 20.0134 10.6435 -2.40718 20.0134 10.6435 -2.40718
184 1 20.998 12.396 -0.876509 20.998 12.396 -0.876509
185 2 22.8702 12.1916 0.796977 22.8702 12.1916 0.796977
186 2 22.9731 12.5938 -2.49195 22.9731 12.5938 -2.49195
187 1 23.9355 10.7476 -0.948676 23.9355 10.7476 -0.948676
188 2 25.7134 10.6944 0.902501 25.7134 10.6944 0.902501
189 2 26.0423 10.9143 -2.4033 26.0423 10.9143 -2.4033
190 1 26.807 12.5158 -0.522989 26.807 12.5158 -0.522989
191 2 28.6201 12.2938 1.13293 28.6201 12.2938 1.13293
192 2 28.8301 12.6758 -2.01255 28.8301 12.6758 -2.01255
193 1 29.6545 10.8573 -0.545266 29.6545 10.8573 -0.545266
194 2 31.4994 10.8041 1.24636 31.4994 10.8041 1.24636
195 2 31.7129 10.8829 -2.10197 31.7129 10.8829 -2.10197
196 1 32.5271 12.4688 -0.332117 32.5271 12.4688 -0.332117
197 2 34.2267 12.3201 1.36455 34.2267 12.3201 1.36455
198 2 34.4773 12.6524 -1.7903 34.4773 12.6524 -1.7903
199 1 35.3755 10.8659 -0.278549 35.3755 10.8659 -0.278549
200 2 37.2418 10.8405 1.55956 37.2418 10.8405 1.55956
201 2 37.4684 10.9151 -1.77557 37.4684 10.9151 -1.77557
202 1 38.2631 12.4972 -0.0216451 38.2631 12.4972 -0.0216451
203 2 40.0922 12.3718 1.78862 40.0922 12.3718 1.78862
204 2 40.2757 12.6127 -1.42323 40.2757 12.6127 -1.42323
205 1 41.1342 10.8426 0.148489 41.1342 10.8426 0.148489
206 2 42.9954 10.8848 1.95148 42.9954 10.8848 1.95148
207 2 43.202 10.8109 -1.36099 43.202 10.8109 -1.36099
208 1 43.9593 12.5756 0.340241 43.9593 12.5756 0.340241
209 2 45.8714 12.5141 2.02814 45.8714 12.5141 2.02814
210 2 45.9614 12.3457 -1.28629 45.9614 12.3457 -1.28629
211 1 46.8516 10.7665 0.46467 46.8516 10.7665 0.46467
212 2 48.6058 11.0143 2.20547 48.6058 11.0143 2.20547
213 2 48.8096 10.5786 -1.08171 48.8096 10.5786 -1.08171
214 1 49.6448 12.5019 0.453201 49.6448 12.5019 0.453201
215 2 51.4729 12.7057 2.21348 51.4729 12.7057 2.21348
216 2 51.6833 12.3564 -1.11334 51.6833 12.3564 -1.11334
217 1 1.07898 14.2219 0.487607 1.07898 14.2219 0.487607
218 2 3.08532 14.3857 2.07224 3.08532 14.3857 2.07224
219 2 2.95964 13.9594 -1.20571 2.95964 13.9594 -1.20571
220 1 3.95112 15.7638 0.223259 3.95112 15.7638 0.223259
221 2 5.87529 15.8892 1.78933 5.87529 15.8892 1.78933
222 2 5.87336 15.7539 -1.43237 5.87336 15.7539 -1.43237
223 1 6.8068 14.2006 0.322571 6.8068 14.2006 0.322571
224 2 8.88578 14.1871 1.7763 8.88578 14.1871 1.7763
225 2 8.51791 14.0224 -1.44487 8.51791 14.0224 -1.44487
226 1 9.63363 15.7116 -0.0504127 9.63363 15.7116 -0.0504127
227 2 11.7294 15.6797 1.34183 11.7294 15.6797 1.34183
228 2 11.457 15.7036 -1.83463 11.457 15.7036 -1.83463
229 1 12.5647 14.072 -0.348584 12.5647 14.072 -0.348584
230 2 14.5057 14.1632 1.20825 14.5057 14.1632 1.20825
231 2 14.3472 13.942 -2.01023 14.3472 13.942 -2.01023
232 1 15.3845 15.7182 -0.624431 15.3845 15.7182 -0.624431
233 2 17.2725 15.6198 0.922774 17.2725 15.6198 0.922774
234 2 17.1243 15.7432 -2.26807 17.1243 15.7432 -2.26807
235 1 18.2052 14.0285 -0.801743 18.2052 14.0285 -0.801743
236 2 20.1198 14.1114 0.904086 20.1198 14.1114 0.904086
237 2 19.9822 14.1267 -2.45279 19.9822 14.1267 -2.45279
238 1 21.1414 15.7141 -0.791149 21.1414 15.7141 -0.791149
239 2 22.9958 15.6998 1.01542 22.9958 15.6998 1.01542
240 2 23.1915 15.7505 -2.18577 23.1915 15.7505 -2.18577
241 1 23.8859 13.9937 -0.600255 23.8859 13.9937 -0.600255
242 2 25.6425 13.8537 1.21046 25.6425 13.8537 1.21046
243 2 25.8617 14.3162 -2.06815 25.8617 14.3162 -2.06815
244 1 26.7207 15.723 -0.0597633 26.7207 15.723 -0.0597633
245 2 28.5465 15.6871 1.50461 28.5465 15.6871 1.50461
246 2 28.6592 15.8594 -1.703 28.6592 15.8594 -1.703
247 1 29.649 14.1601 -0.217166 29.649 14.1601 -0.217166
248 2 31.4962 13.8894 1.50763 31.4962 13.8894 1.50763
249 2 31.648 14.385 -1.66683 31.648 14.385 -1.66683
250 1 32.4571 15.8076 0.200566 32.4571 15.8076 0.200566
251 2 34.4051 15.6757 1.81353 34.4051 15.6757 1.81353
252 2 34.3937 15.8851 -1.35011 34.3937 15.8851 -1.35011
253 1 35.3982 14.1698 0.088458 35.3982 14.1698 0.088458
254 2 37.3268 13.9998 1.74189 37.3268 13.9998 1.74189
255 2 37.289 14.3122 -1.5252 37.289 14.3122 -1.5252
256 1 38.1898 15.7904 0.27824 38.1898 15.7904 0.27824
257 2 40.1422 15.6012 2.0095 40.1422 15.6012 2.0095
258 2 40.1293 15.8388 -1.32923 40.1293 15.8388 -1.32923
259 1 41.0996 14.1861 0.332431 41.0996 14.1861 0.332431
260 2 42.933 14.1206 2.01858 42.933 14.1206 2.01858
261 2 43.0228 14.3098 -1.23875 43.0228 14.3098 -1.23875
262 1 43.8803 15.9183 0.452728 43.8803 15.9183 0.452728
263 2 45.8824 15.6734 2.02733 45.8824 15.6734 2.02733
264 2 45.7798 15.9387 -1.18826 45.7798 15.9387 -1.18826
265 1 46.7961 14.166 0.2279 46.7961 14.166 0.2279
266 2 48.5935 14.0869 1.99316 48.5935 14.0869 1.99316
267 2 48.8292 14.101 -1.22494 48.8292 14.101 -1.22494
268 1 49.5785 15.8168 0.568773 49.5785 15.8168 0.568773
269 2 51.5605 16.0558 2.15513 51.5605 16.0558 2.15513
270 2 51.5121 15.7245 -1.17937 51.5121 15.7245 -1.17937
271 1 1.1283 17.4972 0.384949 1.1283 17.4972 0.384949
272 2 3.17533 17.5771 1.88899 3.17533 17.5771 1.88899
273 2 2.98532 17.4889 -1.41281 2.98532 17.4889 -1.41281
274 1 3.96578 19.1713 0.149443 3.96578 19.1713 0.149443
275 2 6.00583 19.2143 1.75482 6.00583 19.2143 1.75482
276 2 5.84483 19.0999 -1.49588 5.84483 19.0999 -1.49588
277 1 6.79982 17.466 0.11384 6.79982 17.466 0.11384
278 2 8.77108 17.3662 1.67689 8.77108 17.3662 1.67689
279 2 8.60281 17.5657 -1.55251 8.60281 17.5657 -1.55251
280 1 9.66888 19.1359 0.0447191 9.66888 19.1359 0.0447191
281 2 11.8405 19.0918 1.2466 11.8405 19.0918 1.2466
282 2 11.3604 18.979 -1.86374 11.3604 18.979 -1.86374
283 1 12.5633 17.3283 -0.402082 12.5633 17.3283 -0.402082
284 2 14.6 17.4606 0.958694 14.6 17.4606 0.958694
285 2 14.2172 17.3846 -2.18543 14.2172 17.3846 -2.18543
286 1 15.401 19.1002 -0.841855 15.401 19.1002 -0.841855
287 2 17.2678 19.127 0.89295 17.2678 19.127 0.89295
288 2 17.4326 19.0764 -2.36577 17.4326 19.0764 -2.36577
289 1 18.24 17.3766 -0.674533 18.24 17.3766 -0.674533
290 2 20.1619 17.2945 0.909445 20.1619 17.2945 0.909445
291 2 20.1874 17.4128 -2.36502 20.1874 17.4128 -2.36502
292 1 21.1452 19.0911 -0.695478 21.1452 19.0911 -0.695478
293 2 22.8788 18.9574 1.12048 22.8788 18.9574 1.12048
294 2 23.1995 19.074 -2.15703 23.1995 19.074 -2.15703
295 1 23.9422 17.3313 -0.422616 23.9422 17.3313 -0.422616
296 2 25.5548 17.42 1.44394 25.5548 17.42 1.44394
297 2 26.0509 17.3872 -1.79196 26.0509 17.3872 -1.79196
298 1 26.7685 19.0663 -0.0898884 26.7685 19.0663 -0.0898884
299 2 28.5112 19.0705 1.68837 28.5112 19.0705 1.68837
300 2 28.8555 19.1777 -1.5473 28.8555 19.1777 -1.5473
301 1 29.5648 17.4121 0.0403274 29.5648 17.4121 0.0403274
302 2 31.3193 17.2636 1.89349 31.3193 17.2636 1.89349
303 2 31.5561 17.5046 -1.40589 31.5561 17.5046 -1.40589
304 1 32.3753 19.0747 0.380313 32.3753 19.0747 0.380313
305 2 34.4017 19.1016 1.98954 34.4017 19.1016 1.98954
306 2 34.3163 19.1237 -1.2306 34.3163 19.1237 -1.2306
307 1 35.2726 17.4703 0.394985 35.2726 17.4703 0.394985
308 2 37.2316 17.4012 2.00859 37.2316 17.4012 2.00859
309 2 37.2185 17.4415 -1.20019 37.2185 17.4415 -1.20019
310 1 38.2394 19.0569 0.461336 38.2394 19.0569 0.461336
311 2 40.1226 19.1726 2.01501 40.1226 19.1726 2.01501
312 2 40.2369 19.021 -1.22102 40.2369 19.021 -1.22102
313 1 41.0389 17.4356 0.482025 41.0389 17.4356 0.482025
314 2 42.9116 17.498 2.07265 42.9116 17.498 2.07265
315 2 42.7981 17.4925 -1.18446 42.7981 17.4925 -1.18446
316 1 43.8656 19.1092 0.425399 43.8656 19.1092 0.425399
317 2 45.7524 19.0373 2.16217 45.7524 19.0373 2.16217
318 2 45.9467 19.1845 -1.16359 45.9467 19.1845 -1.16359
319 1 46.7725 17.5102 0.484258 46.7725 17.5102 0.484258
320 2 48.4978 17.4642 2.21813 48.4978 17.4642 2.21813
321 2 48.6727 17.4567 -1.06611 48.6727 17.4567 -1.06611
322 1 49.5983 19.1675 0.674077 49.5983 19.1675 0.674077
323 2 51.7398 19.2983 2.04533 51.7398 19.2983 2.04533
324 2 51.2374 18.9099 -1.28369 51.2374 18.9099 -1.28369
325 1 1.10768 20.7451 0.131386 1.10768 20.7451 0.131386
326 2 3.02231 20.8678 1.71691 3.02231 20.8678 1.71691
327 2 2.95293 20.7477 -1.56089 2.95293 20.7477 -1.56089
328 1 4.01765 22.3989 0.00756238 4.01765 22.3989 0.00756238
329 2 5.9718 22.4418 1.66657 5.9718 22.4418 1.66657
330 2 5.8658 22.2932 -1.6378 5.8658 22.2932 -1.6378
331 1 6.848 20.7919 0.0954298 6.848 20.7919 0.0954298
332 2 8.86163 20.9444 1.57287 8.86163 20.9444 1.57287
333 2 8.66646 20.6381 -1.66174 8.66646 20.6381 -1.66174
334 1 9.64193 22.3993 -0.287122 9.64193 22.3993 -0.287122
335 2 11.7353 22.334 1.20887 11.7353 22.334 1.20887
336 2 11.3351 22.2933 -2.14404 11.3351 22.2933 -2.14404
337 1 12.5251 20.7195 -0.503567 12.5251 20.7195 -0.503567
338 2 14.4828 20.8001 0.959226 14.4828 20.8001 0.959226
339 2 14.3436 20.8737 -2.31766 14.3436 20.8737 -2.31766
340 1 15.4323 22.4193 -0.70898 15.4323 22.4193 -0.70898
341 2 17.3538 22.3399 0.976114 17.3538 22.3399 0.976114
342 2 17.314 22.3594 -2.36442 17.314 22.3594 -2.36442
343 1 18.2688 20.7904 -0.708086 18.2688 20.7904 -0.708086
344 2 20.1053 20.6189 1.00646 20.1053 20.6189 1.00646
345 2 20.3449 20.7987 -2.19135 20.3449 20.7987 -2.19135
346 1 21.1913 22.3441 -0.430082 21.1913 22.3441 -0.430082
347 2 23.0564 22.3327 1.35851 23.0564 22.3327 1.35851
348 2 23.16 22.3024 -2.00009 23.16 22.3024 -2.00009
349 1 23.9813 20.6619 -0.420226 23.9813 20.6619 -0.420226
350 2 25.6553 20.7951 1.36803 25.6553 20.7951 1.36803
351 2 25.9762 20.6817 -1.85104 25.9762 20.6817 -1.85104
352 1 26.7506 22.388 -0.108526 26.7506 22.388 -0.108526
353 2 28.4791 22.4999 1.64972 28.4791 22.4999 1.64972
354 2 28.7361 22.2505 -1.62406 28.7361 22.2505 -1.62406
355 1 29.6016 20.7528 0.249866 29.6016 20.7528 0.249866
356 2 31.5265 20.671 2.03238 31.5265 20.671 2.03238
357 2 31.5679 20.6449 -1.29377 31.5679 20.6449 -1.29377
358 1 32.4636 22.2933 0.372926 32.4636 22.2933 0.372926
359 2 34.3684 22.2103 2.03579 34.3684 22.2103 2.03579
360 2 34.3663 22.3584 -1.26883 34.3663 22.3584 -1.26883
361 1 35.3302 20.6864 0.330561 35.3302 20.6864 0.330561
362 2 37.1502 20.8654 2.04861 37.1502 20.8654 2.04861
363 2 37.3608 20.6579 -1.29584 37.3608 20.6579 -1.29584
364 1 38.1782 22.4537 0.463269 38.1782 22.4537 0.463269
365 2 40.2482 22.5428 1.90951 40.2482 22.5428 1.90951
366 2 39.9825 22.3886 -1.37756 39.9825 22.3886 -1.37756
367 1 41.0451 20.7396 0.370215 41.0451 20.7396 0.370215
368 2 42.9537 20.7835 2.06663 42.9537 20.7835 2.06663
369 2 42.9068 20.6784 -1.25866 42.9068 20.6784 -1.25866
370 1 43.9393 22.3739 0.427667 43.9393 22.3739 0.427667
371 2 45.7775 22.475 2.09852 45.7775 22.475 2.09852
372 2 45.8673 22.2274 -1.15181 45.8673 22.2274 -1.15181
373 1 46.7783 20.7549 0.620267 46.7783 20.7549 0.620267
374 2 48.7339 21.0944 2.03232 48.7339 21.0944 2.03232
375 2 48.6273 20.5918 -1.16064 48.6273 20.5918 -1.16064
376 1 49.5883 22.3898 0.118815 49.5883 22.3898 0.118815
377 2 51.46 22.3203 1.81223 51.46 22.3203 1.81223
378 2 51.4468 22.5034 -1.45452 51.4468 22.5034 -1.45452
379 1 1.12604 24.0518 0.212166 1.12604 24.0518 0.212166
380 2 3.13693 24.0796 1.60942 3.13693 24.0796 1.60942
381 2 2.99627 23.9229 -1.58945 2.99627 23.9229 -1.58945
382 1 3.95684 25.6709 -0.157367 3.95684 25.6709 -0.157367
383 2 5.93989 25.8397 1.38122 5.93989 25.8397 1.38122
384 2 5.75299 25.4784 -1.83582 5.75299 25.4784 -1.83582
385 1 6.79824 24.086 -0.176848 6.79824 24.086 -0.176848
386 2 8.86108 24.0787 1.37515 8.86108 24.0787 1.37515
387 2 8.6224 23.9506 -1.99305 8.6224 23.9506 -1.99305
388 1 9.65499 25.6681 -0.523143 9.65499 25.6681 -0.523143
389 2 11.5436 25.5966 1.05045 11.5436 25.5966 1.05045
390 2 11.347 25.6041 -2.23152 11.347 25.6041 -2.23152
391 1 12.4336 24.0003 -0.714887 12.4336 24.0003 -0.714887
392 2 14.3023 24.1085 0.89639 14.3023 24.1085 0.89639
393 2 14.4092 23.9657 -2.31977 14.4092 23.9657 -2.31977
394 1 15.3896 25.6858 -0.738832 15.3896 25.6858 -0.738832
395 2 17.3971 25.7489 0.844717 17.3971 25.7489 0.844717
396 2 17.3869 25.5572 -2.4598 17.3869 25.5572 -2.4598
397 1 18.3343 24.0276 -0.67387 18.3343 24.0276 -0.67387
398 2 20.1473 24.1168 1.01793 20.1473 24.1168 1.01793
399 2 20.2455 23.8356 -2.24877 20.2455 23.8356 -2.24877
400 1 21.1219 25.6094 -0.730486 21.1219 25.6094 -0.730486
401 2 22.8554 25.9434 1.02645 22.8554 25.9434 1.02645
402 2 23.1628 25.3494 -2.12052 23.1628 25.3494 -2.12052
403 1 23.9727 23.9991 -0.208775 23.9727 23.9991 -0.208775
404 2 25.7879 24.0812 1.50191 25.7879 24.0812 1.50191
405 2 25.7629 23.9679 -1.88277 25.7629 23.9679 -1.88277
406 1 26.8487 25.5707 -0.214815 26.8487 25.5707 -0.214815
407 2 28.4732 25.5244 1.6141 28.4732 25.5244 1.6141
408 2 28.8378 25.66 -1.58729 28.8378 25.66 -1.58729
409 1 29.6171 24.0118 0.00158853 29.6171 24.0118 0.00158853
410 2 31.3684 24.0259 1.81785 31.3684 24.0259 1.81785
411 2 31.7011 23.9602 -1.35202 31.7011 23.9602 -1.35202
412 1 32.5488 25.6438 0.363887 32.5488 25.6438 0.363887
413 2 34.3241 25.7327 2.05817 34.3241 25.7327 2.05817
414 2 34.426 25.631 -1.12532 34.426 25.631 -1.12532
415 1 35.3045 24.0072 0.583387 35.3045 24.0072 0.583387
416 2 37.2405 23.9836 2.1235 37.2405 23.9836 2.1235
417 2 37.1291 24.0122 -1.10091 37.1291 24.0122 -1.10091
418 1 38.1862 25.7425 0.455831 38.1862 25.7425 0.455831
419 2 40.3599 25.7477 1.76517 40.3599 25.7477 1.76517
420 2 39.8902 25.777 -1.43567 39.8902 25.777 -1.43567
421 1 41.0309 24.0551 0.0438161 41.0309 24.0551 0.0438161
422 2 42.7704 23.9337 1.92807 42.7704 23.9337 1.92807
423 2 43.0414 24.0495 -1.36695 43.0414 24.0495 -1.36695
424 1 43.8852 25.7227 0.413451 43.8852 25.7227 0.413451
425 2 45.7742 25.7526 2.01038 45.7742 25.7526 2.01038
426 2 45.866 25.5459 -1.26351 45.866 25.5459 -1.26351
427 1 46.8567 24.0396 0.389533 46.8567 24.0396 0.389533
428 2 48.7905 24.0297 1.89222 48.7905 24.0297 1.89222
429 2 48.5602 24.1507 -1.44794 48.5602 24.1507 -1.44794
430 1 49.6499 25.6756 0.221265 49.6499 25.6756 0.221265
431 2 51.5723 25.6921 1.82424 51.5723 25.6921 1.82424
432 2 51.4526 25.6519 -1.38566 51.4526 25.6519 -1.38566
433 1 1.15555 27.3045 0.103279 1.15555 27.3045 0.103279
434 2 3.23001 27.317 1.59738 3.23001 27.317 1.59738
435 2 2.85109 27.4581 -1.69476 2.85109 27.4581 -1.69476
436 1 3.97001 28.9166 -0.109295 3.97001 28.9166 -0.109295
437 2 6.01159 29.0737 1.32406 6.01159 29.0737 1.32406
438 2 5.61923 28.9547 -1.98785 5.61923 28.9547 -1.98785
439 1 6.80856 27.3425 -0.403204 6.80856 27.3425 -0.403204
440 2 8.81592 27.2743 1.21488 8.81592 27.2743 1.21488
441 2 8.66751 27.3238 -2.08783 8.66751 27.3238 -2.08783
442 1 9.61555 28.9521 -0.447707 9.61555 28.9521 -0.447707
443 2 11.5838 29.0676 1.09989 11.5838 29.0676 1.09989
444 2 11.4141 28.9253 -2.2074 11.4141 28.9253 -2.2074
445 1 12.4724 27.3034 -0.601813 12.4724 27.3034 -0.601813
446 2 14.5204 27.3551 0.891079 14.5204 27.3551 0.891079
447 2 14.2327 27.3087 -2.33522 14.2327 27.3087 -2.33522
448 1 15.3736 28.8871 -0.850968 15.3736 28.8871 -0.850968
449 2 17.3626 28.8876 0.662002 17.3626 28.8876 0.662002
450 2 17.2582 28.8555 -2.60842 17.2582 28.8555 -2.60842
451 1 18.3055 27.2794 -1.00193 18.3055 27.2794 -1.00193
452 2 20.1344 27.4197 0.787185 20.1344 27.4197 0.787185
453 2 20.2046 27.0667 -2.52461 20.2046 27.0667 -2.52461
454 1 21.2261 28.8779 -1.0423 21.2261 28.8779 -1.0423
455 2 22.9757 29.0321 0.626087 22.9757 29.0321 0.626087
456 2 23.2095 28.7902 -2.58087 23.2095 28.7902 -2.58087
457 1 24.0306 27.2366 -0.741337 24.0306 27.2366 -0.741337
458 2 25.7759 27.458 1.09784 25.7759 27.458 1.09784
459 2 26.1325 27.078 -2.19785 26.1325 27.078 -2.19785
460 1 26.8758 28.8429 -0.585545 26.8758 28.8429 -0.585545
461 2 28.4772 29.2339 1.28799 28.4772 29.2339 1.28799
462 2 28.982 28.6346 -1.89642 28.982 28.6346 -1.89642
463 1 29.5387 27.2674 0.163186 29.5387 27.2674 0.163186
464 2 31.4508 27.4438 1.79865 31.4508 27.4438 1.79865
465 2 31.5032 27.2038 -1.48746 31.5032 27.2038 -1.48746
466 1 32.4777 28.8991 -0.0200015 32.4777 28.8991 -0.0200015
467 2 34.2906 29.1889 1.71245 34.2906 29.1889 1.71245
468 2 34.4453 28.7694 -1.55422 34.4453 28.7694 -1.55422
469 1 35.3315 27.3938 0.443677 35.3315 27.3938 0.443677
470 2 37.2529 27.4832 1.9931 37.2529 27.4832 1.9931
471 2 37.2428 27.1959 -1.2085 37.2428 27.1959 -1.2085
472 1 38.2212 29.0494 0.206761 38.2212 29.0494 0.206761
473 2 40.2431 28.9662 1.82903 40.2431 28.9662 1.82903
474 2 40.0539 29.0515 -1.38598 40.0539 29.0515 -1.38598
475 1 41.0769 27.3853 0.0814176 41.0769 27.3853 0.0814176
476 2 42.8498 27.3112 1.93903 42.8498 27.3112 1.93903
477 2 43.1598 27.3247 -1.31722 43.1598 27.3247 -1.31722
478 1 43.8874 29.0134 0.379654 43.8874 29.0134 0.379654
479 2 45.8757 29.0463 1.83242 45.8757 29.0463 1.83242
480 2 45.6918 28.8974 -1.40218 45.6918 28.8974 -1.40218
481 1 46.7934 27.3708 0.238767 46.7934 27.3708 0.238767
482 2 48.7348 27.3968 1.83388 48.7348 27.3968 1.83388
483 2 48.6312 27.2914 -1.47668 48.6312 27.2914 -1.47668
484 1 49.6497 28.9191 0.174768 49.6497 28.9191 0.174768
485 2 51.6126 28.9969 1.76662 51.6126 28.9969 1.76662
486 2 51.5124 28.8565 -1.48968 51.5124 28.8565 -1.48968
487 1 1.1537 30.6546 0.0106978 1.1537 30.6546 0.0106978
488 2 3.04934 30.6891 1.53941 3.04934 30.6891 1.53941
489 2 2.93119 30.6332 -1.69787 2.93119 30.6332 -1.69787
490 1 4.00095 32.2743 -0.237823 4.00095 32.2743 -0.237823
491 2 6.00903 32.3308 1.2745 6.00903 32.3308 1.2745
492 2 5.74359 32.3472 -1.95337 5.74359 32.3472 -1.95337
493 1 6.77259 30.6129 -0.488228 6.77259 30.6129 -0.488228
494 2 8.73893 30.739 0.993712 8.73893 30.739 0.993712
495 2 8.70684 30.4422 -2.11793 8.70684 30.4422 -2.11793
496 1 9.7021 32.1864 -0.667719 9.7021 32.1864 -0.667719
497 2 11.6529 32.1347 0.864132 11.6529 32.1347 0.864132
498 2 11.5976 32.2176 -2.3692 11.5976 32.2176 -2.3692
499 1 12.5735 30.4981 -0.707444 12.5735 30.4981 -0.707444
500 2 14.6527 30.614 0.735122 14.6527 30.614 0.735122
501 2 14.1919 30.4041 -2.55532 14.1919 30.4041 -2.55532
502 1 15.3736 32.1795 -1.17388 15.3736 32.1795 -1.17388
503 2 17.272 32.1768 0.573028 17.272 32.1768 0.573028
504 2 17.3827 32.1056 -2.66086 17.3827 32.1056 -2.66086
505 1 18.2951 30.482 -0.994894 18.2951 30.482 -0.994894
506 2 20.1802 30.5476 0.600034 20.1802 30.5476 0.600034
507 2 20.3117 30.5335 -2.59154 20.3117 30.5335 -2.59154
508 1 21.1946 32.1812 -0.972404 21.1946 32.1812 -0.972404
509 2 23.1995 32.2016 0.615183 23.1995 32.2016 0.615183
510 2 23.1271 32.2027 -2.62765 23.1271 32.2027 -2.62765
511 1 24.1 30.4932 -1.02856 24.1 30.4932 -1.02856
512 2 25.8727 30.8064 0.702458 25.8727 30.8064 0.702458
513 2 26.0958 30.2647 -2.4935 26.0958 30.2647 -2.4935
514 1 26.8469 32.1677 -1.15279 26.8469 32.1677 -1.15279
515 2 28.483 32.2135 0.873058 28.483 32.2135 0.873058
516 2 28.9636 31.9971 -2.41386 28.9636 31.9971 -2.41386
517 1 29.6598 30.5558 -0.511167 29.6598 30.5558 -0.511167
518 2 31.3308 30.7356 1.27825 31.3308 30.7356 1.27825
519 2 31.7406 30.4114 -1.94428 31.7406 30.4114 -1.94428
520 1 32.5281 32.2103 -0.42535 32.5281 32.2103 -0.42535
521 2 34.2049 32.3297 1.3785 34.2049 32.3297 1.3785
522 2 34.6451 32.1988 -1.87627 34.6451 32.1988 -1.87627
523 1 35.3102 30.6272 -0.0690909 35.3102 30.6272 -0.0690909
524 2 37.0216 30.7706 1.64215 37.0216 30.7706 1.64215
525 2 37.281 30.5402 -1.55803 37.281 30.5402 -1.55803
526 1 38.1846 32.2667 -0.044305 38.1846 32.2667 -0.044305
527 2 39.9471 32.4786 1.81103 39.9471 32.4786 1.81103
528 2 40.269 32.24 -1.40969 40.269 32.24 -1.40969
529 1 41.0543 30.6998 0.303214 41.0543 30.6998 0.303214
530 2 43.1589 30.8204 1.89487 43.1589 30.8204 1.89487
531 2 42.885 30.482 -1.43396 42.885 30.482 -1.43396
532 1 43.9802 32.2767 0.104386 43.9802 32.2767 0.104386
533 2 45.8461 32.3227 1.72689 45.8461 32.3227 1.72689
534 2 45.8777 32.3051 -1.59805 45.8777 32.3051 -1.59805
535 1 46.7852 30.656 0.0319684 46.7852 30.656 0.0319684
536 2 48.638 30.6376 1.75953 48.638 30.6376 1.75953
537 2 48.7156 30.5835 -1.52411 48.7156 30.5835 -1.52411
538 1 49.5489 32.3184 0.136791 49.5489 32.3184 0.136791
539 2 51.6224 32.3489 1.54274 51.6224 32.3489 1.54274
540 2 51.458 32.2304 -1.55031 51.458 32.2304 -1.55031