ITEM: TIMESTEP
29400
ITEM: NUMBER OF ATOMS
810
ITEM: BOX BOUNDS pp pp pp
8.4137701477268123e-01 5.2176227985227342e+01
8.0961581116522285e-01 5.0206599188834083e+01
-1.0000000000000000e+01 1.0000000000000000e+01
ITEM: ATOMS id type x y z xu yu zu
1 1 1.0159 0.976242 0.335516 1.0159 0.976242 0.335516
2 2 2.95037 0.893585 2.01023 2.95037 0.893585 2.01023
3 2 2.74631 1.19293 -1.22228 2.74631 1.19293 -1.22228
4 1 3.91817 2.72756 0.3215 3.91817 2.72756 0.3215
5 2 5.86619 2.63007 1.83946 5.86619 2.63007 1.83946
6 2 5.78104 2.83924 -1.37896 5.78104 2.83924 -1.37896
7 1 6.83666 1.07384 0.108566 6.83666 1.07384 0.108566
8 2 8.71614 1.04737 1.62275 8.71614 1.04737 1.62275
9 2 8.6025 1.07738 -1.63793 8.6025 1.07738 -1.63793
10 1 9.65726 2.68676 -0.142927 9.65726 2.68676 -0.142927
11 2 11.6466 2.5131 1.35931 11.6466 2.5131 1.35931
12 2 11.4957 2.85029 -1.9638 11.4957 2.85029 -1.9638
13 1 12.4262 1.01303 -0.445852 12.4262 1.01303 -0.445852
14 2 14.326 0.784944 1.2254 14.326 0.784944 1.2254
15 2 14.2456 1.00029 -2.08416 14.2456 1.00029 -2.08416
16 1 15.2977 2.6069 -0.249969 15.2977 2.6069 -0.249969
17 2 17.2322 2.43972 1.25467 17.2322 2.43972 1.25467
18 2 17.1424 2.79475 -1.87534 17.1424 2.79475 -1.87534
19 1 18.1551 1.03378 -0.462832 18.1551 1.03378 -0.462832
20 2 20.0045 0.755853 1.20598 20.0045 0.755853 1.20598
21 2 20.0943 1.31885 -1.99838 20.0943 1.31885 -1.99838
22 1 21.0747 2.63581 -0.128031 21.0747 2.63581 -0.128031
23 2 23.2525 2.5107 1.28908 23.2525 2.5107 1.28908
24 2 22.7175 2.73211 -1.92137 22.7175 2.73211 -1.92137
25 1 24.0364 1.02624 -0.564046 24.0364 1.02624 -0.564046
26 2 25.9949 0.869433 0.866508 25.9949 0.869433 0.866508
27 2 25.8016 1.14399 -2.32266 25.8016 1.14399 -2.32266
28 1 26.8831 2.64635 -0.572909 26.8831 2.64635 -0.572909
29 2 28.8777 2.71868 0.887229 28.8777 2.71868 0.887229
30 2 28.5556 2.56513 -2.38408 28.5556 2.56513 -2.38408
31 1 29.6161 0.951702 -0.750543 29.6161 0.951702 -0.750543
32 2 31.5184 0.747783 0.871011 31.5184 0.747783 0.871011
33 2 31.58 1.13705 -2.32833 31.58 1.13705 -2.32833
34 1 32.4264 2.62715 -0.515405 32.4264 2.62715 -0.515405
35 2 34.2704 2.59236 1.1877 34.2704 2.59236 1.1877
36 2 34.4289 2.60787 -2.00293 34.4289 2.60787 -2.00293
37 1 35.3912 1.01164 -0.342392 35.3912 1.01164 -0.342392
38 2 37.1848 0.86251 1.42746 37.1848 0.86251 1.42746
39 2 37.3558 0.946964 -1.80477 37.3558 0.946964 -1.80477
40 1 38.1577 2.63722 -0.193369 38.1577 2.63722 -0.193369
41 2 39.9447 2.65764 1.65735 39.9447 2.65764 1.65735
42 2 40.1112 2.54289 -1.62782 40.1112 2.54289 -1.62782
43 1 40.9303 0.917993 0.173829 40.9303 0.917993 0.173829
44 2 42.8637 0.995028 1.80353 42.8637 0.995028 1.80353
45 2 42.9146 1.1064 -1.40675 42.9146 1.1064 -1.40675
46 1 43.894 2.69847 0.306643 43.894 2.69847 0.306643
47 2 45.6961 2.61569 2.05019 45.6961 2.61569 2.05019
48 2 45.8826 2.74532 -1.20769 45.8826 2.74532 -1.20769
49 1 46.7028 1.03494 0.386999 46.7028 1.03494 0.386999
50 2 48.6268 1.05241 1.94724 48.6268 1.05241 1.94724
51 2 48.6403 1.09423 -1.28827 48.6403 1.09423 -1.28827
52 1 49.5957 2.80538 0.337726 49.5957 2.80538 0.337726
53 2 51.468 2.58046 2.04043 51.468 2.58046 2.04043
54 2 51.6289 2.87364 -1.13694 51.6289 2.87364 -1.13694
55 1 1.10939 4.36127 0.655563 1.10939 4.36127 0.655563
56 2 3.01243 4.12846 2.27124 3.01243 4.12846 2.27124
57 2 2.90452 4.51165 -1.05911 2.90452 4.51165 -1.05911
58 1 3.93307 6.00096 0.685901 3.93307 6.00096 0.685901
59 2 5.94149 5.90304 2.10435 5.94149 5.90304 2.10435
60 2 5.67622 6.01243 -1.19824 5.67622 6.01243 -1.19824
61 1 6.82853 4.40242 0.297515 6.82853 4.40242 0.297515
62 2 8.96208 4.29349 1.67356 8.96208 4.29349 1.67356
63 2 8.64753 4.51898 -1.58828 8.64753 4.51898 -1.58828
64 1 9.68786 5.94199 0.0585063 9.68786 5.94199 0.0585063
65 2 11.7127 5.95124 1.52212 11.7127 5.95124 1.52212
66 2 11.4707 5.98406 -1.66826 11.4707 5.98406 -1.66826
67 1 12.5587 4.34019 -0.18698 12.5587 4.34019 -0.18698
68 2 14.4555 4.14013 1.43776 14.4555 4.14013 1.43776
69 2 14.4758 4.42828 -1.7698 14.4758 4.42828 -1.7698
70 1 15.3517 5.9039 -0.051869 15.3517 5.9039 -0.051869
71 2 17.2598 5.89384 1.48714 17.2598 5.89384 1.48714
72 2 17.1537 5.92363 -1.64714 17.1537 5.92363 -1.64714
73 1 18.1425 4.23102 -0.118751 18.1425 4.23102 -0.118751
74 2 20.1095 4.32982 1.53068 20.1095 4.32982 1.53068
75 2 20.1047 4.37492 -1.65384 20.1047 4.37492 -1.65384
76 1 21.124 5.95592 -0.0612134 21.124 5.95592 -0.0612134
77 2 23.1486 5.936 1.41108 23.1486 5.936 1.41108
78 2 22.8837 6.09241 -1.84041 22.8837 6.09241 -1.84041
79 1 23.9736 4.34962 -0.317744 23.9736 4.34962 -0.317744
80 2 26.0105 4.29925 1.17988 26.0105 4.29925 1.17988
81 2 25.7989 4.37266 -2.08913 25.7989 4.37266 -2.08913
82 1 26.8432 5.91985 -0.501638 26.8432 5.91985 -0.501638
83 2 28.8589 5.97373 0.889091 28.8589 5.97373 0.889091
84 2 28.6022 6.02101 -2.35138 28.6022 6.02101 -2.35138
85 1 29.6089 4.32698 -0.876336 29.6089 4.32698 -0.876336
86 2 31.4164 4.4404 0.927329 31.4164 4.4404 0.927329
87 2 31.6396 4.22951 -2.31135 31.6396 4.22951 -2.31135
88 1 32.5506 5.91582 -0.728047 32.5506 5.91582 -0.728047
89 2 34.2095 5.7723 1.06112 34.2095 5.7723 1.06112
90 2 34.692 6.02422 -2.0372 34.692 6.02422 -2.0372
91 1 35.374 4.22582 -0.370461 35.374 4.22582 -0.370461
92 2 37.1462 4.35204 1.3791 37.1462 4.35204 1.3791
93 2 37.4629 4.38044 -1.93654 37.4629 4.38044 -1.93654
94 1 38.2586 5.97778 -0.225633 38.2586 5.97778 -0.225633
95 2 40.0027 5.91327 1.58079 40.0027 5.91327 1.58079
96 2 40.4293 6.04715 -1.60859 40.4293 6.04715 -1.60859
97 1 41.0354 4.26408 0.06458 41.0354 4.26408 0.06458
98 2 42.8896 4.42314 1.81246 42.8896 4.42314 1.81246
99 2 43.0321 4.16728 -1.53683 43.0321 4.16728 -1.53683
100 1 43.9405 5.98582 0.171083 43.9405 5.98582 0.171083
101 2 45.672 6.06609 1.98021 45.672 6.06609 1.98021
102 2 45.939 5.90708 -1.222 45.939 5.90708 -1.222
103 1 46.7578 4.43758 0.575736 46.7578 4.43758 0.575736
104 2 48.6794 4.30679 2.2048 48.6794 4.30679 2.2048
105 2 48.6389 4.62998 -1.16502 48.6389 4.62998 -1.16502
106 1 49.5568 6.06876 0.640556 49.5568 6.06876 0.640556
107 2 51.3121 6.01039 2.2786 51.3121 6.01039 2.2786
108 2 51.5315 6.09697 -0.859144 51.5315 6.09697 -0.859144
109 1 1.10309 7.62185 0.872441 1.10309 7.62185 0.872441
110 2 3.08475 7.59422 2.41994 3.08475 7.59422 2.41994
111 2 2.94641 7.76278 -0.818446 2.94641 7.76278 -0.818446
112 1 4.03199 9.30814 0.892512 4.03199 9.30814 0.892512
113 2 6.041 9.24646 2.21802 6.041 9.24646 2.21802
114 2 5.6213 9.26722 -0.985875 5.6213 9.26722 -0.985875
115 1 6.78958 7.63268 0.460707 6.78958 7.63268 0.460707
116 2 8.85519 7.48231 1.79969 8.85519 7.48231 1.79969
117 2 8.39758 7.76119 -1.42748 8.39758 7.76119 -1.42748
118 1 9.6347 9.26332 0.117345 9.6347 9.26332 0.117345
119 2 11.7367 9.24982 1.56493 11.7367 9.24982 1.56493
120 2 11.3284 9.27938 -1.68842 11.3284 9.27938 -1.68842
121 1 12.4862 7.73395 -0.191739 12.4862 7.73395 -0.191739
122 2 14.3017 7.62239 1.51109 14.3017 7.62239 1.51109
123 2 14.417 7.65313 -1.73921 14.417 7.65313 -1.73921
124 1 15.3351 9.21086 -0.15135 15.3351 9.21086 -0.15135
125 2 17.2188 9.21742 1.48652 17.2188 9.21742 1.48652
126 2 17.1938 9.30438 -1.84141 17.1938 9.30438 -1.84141
127 1 18.2171 7.58271 -0.151518 18.2171 7.58271 -0.151518
128 2 20.0709 7.59783 1.45055 20.0709 7.59783 1.45055
129 2 20.1507 7.60208 -1.7201 20.1507 7.60208 -1.7201
130 1 21.0738 9.17555 -0.119541 21.0738 9.17555 -0.119541
131 2 23.1236 9.3603 1.31208 23.1236 9.3603 1.31208
132 2 22.8988 9.09925 -1.76322 22.8988 9.09925 -1.76322
133 1 24.0628 7.54693 -0.207326 24.0628 7.54693 -0.207326
134 2 26.2701 7.65058 1.17642 26.2701 7.65058 1.17642
135 2 25.6484 7.49501 -2.04338 25.6484 7.49501 -2.04338
136 1 26.9145 9.18477 -0.689153 26.9145 9.18477 -0.689153
137 2 28.9473 9.071 0.906774 28.9473 9.071 0.906774
138 2 28.7903 9.33169 -2.31463 28.7903 9.33169 -2.31463
139 1 29.7465 7.56966 -0.889577 29.7465 7.56966 -0.889577
140 2 31.4898 7.51657 0.900652 31.4898 7.51657 0.900652
141 2 31.7377 7.59707 -2.35 31.7377 7.59707 -2.35
142 1 32.5842 9.21023 -0.672888 32.5842 9.21023 -0.672888
143 2 34.2532 9.23541 1.15204 34.2532 9.23541 1.15204
144 2 34.7024 9.23723 -2.02791 34.7024 9.23723 -2.02791
145 1 35.4098 7.47744 -0.188182 35.4098 7.47744 -0.188182
146 2 37.3641 7.58344 1.46476 37.3641 7.58344 1.46476
147 2 37.3297 7.53322 -1.90033 37.3297 7.53322 -1.90033
148 1 38.2175 9.20324 -0.276545 38.2175 9.20324 -0.276545
149 2 39.9189 9.29719 1.57712 39.9189 9.29719 1.57712
150 2 40.347 9.23273 -1.64358 40.347 9.23273 -1.64358
151 1 41.1105 7.66284 0.145044 41.1105 7.66284 0.145044
152 2 42.9484 7.56963 1.85987 42.9484 7.56963 1.85987
153 2 43.1368 7.71656 -1.42484 43.1368 7.71656 -1.42484
154 1 44.0321 9.34306 0.344424 44.0321 9.34306 0.344424
155 2 45.7147 9.21373 2.12878 45.7147 9.21373 2.12878
156 2 45.9085 9.37812 -1.24534 45.9085 9.37812 -1.24534
157 1 46.8196 7.72955 0.41976 46.8196 7.72955 0.41976
158 2 48.4625 7.4669 2.25535 48.4625 7.4669 2.25535
159 2 48.8408 7.83527 -0.942787 48.8408 7.83527 -0.942787
160 1 49.6486 9.2943 0.829773 49.6486 9.2943 0.829773
161 2 51.5245 9.16052 2.594 51.5245 9.16052 2.594
162 2 51.5694 9.39421 -0.690569 51.5694 9.39421 -0.690569
163 1 1.11745 10.9481 0.949892 1.11745 10.9481 0.949892
164 2 3.13911 11.2238 2.41064 3.13911 11.2238 2.41064
165 2 2.92454 10.9255 -0.772138 2.92454 10.9255 -0.772138
166 1 3.9809 12.6118 0.590576 3.9809 12.6118 0.590576
167 2 5.96876 12.7688 2.10235 5.96876 12.7688 2.10235
168 2 5.83162 12.5344 -1.17118 5.83162 12.5344 -1.17118
169 1 6.88088 10.9397 0.47032 6.88088 10.9397 0.47032
170 2 8.9857 10.9722 1.91086 8.9857 10.9722 1.91086
171 2 8.53302 10.8919 -1.39816 8.53302 10.8919 -1.39816
172 1 9.67464 12.5757 0.0890017 9.67464 12.5757 0.0890017
173 2 11.6911 12.5884 1.69266 11.6911 12.5884 1.69266
174 2 11.3425 12.6783 -1.7249 11.3425 12.6783 -1.7249
175 1 12.4012 10.9594 -0.134808 12.4012 10.9594 -0.134808
176 2 14.3103 10.9728 1.42767 14.3103 10.9728 1.42767
177 2 14.347 10.961 -1.68132 14.347 10.961 -1.68132
178 1 15.3329 12.5678 -0.136953 15.3329 12.5678 -0.136953
179 2 17.295 12.5643 1.39075 17.295 12.5643 1.39075
180 2 17.1815 12.2995 -1.85929 17.1815 12.2995 -1.85929
181 1 18.1481 10.8111 -0.169833 18.1481 10.8111 -0.169833
182 2 20.0848 10.9112 1.37891 20.0848 10.9112 1.37891
183 2 20.1623 10.8378 -1.81718 20.1623 10.8378 -1.81718
184 1 21.0914 12.503 -0.177988 21.0914 12.503 -0.177988
185 2 23.1758 12.3893 1.38897 23.1758 12.3893 1.38897
186 2 22.9664 12.5483 -1.86354 22.9664 12.5483 -1.86354
187 1 24.0161 10.851 -0.482989 24.0161 10.851 -0.482989
188 2 26.0048 10.8441 0.982374 26.0048 10.8441 0.982374
189 2 25.8813 10.9589 -2.29851 25.8813 10.9589 -2.29851
190 1 26.7981 12.5754 -0.608055 26.7981 12.5754 -0.608055
191 2 28.6395 12.3464 1.09441 28.6395 12.3464 1.09441
192 2 28.7657 12.5981 -2.21414 28.7657 12.5981 -2.21414
193 1 29.785 10.897 -0.610876 29.785 10.897 -0.610876
194 2 31.7552 10.9207 0.901903 31.7552 10.9207 0.901903
195 2 31.5629 10.8193 -2.3154 31.5629 10.8193 -2.3154
196 1 32.6566 12.5284 -0.704966 32.6566 12.5284 -0.704966
197 2 34.4229 12.6195 1.09893 34.4229 12.6195 1.09893
198 2 34.6215 12.4847 -2.24919 34.6215 12.4847 -2.24919
199 1 35.4179 10.8644 -0.432369 35.4179 10.8644 -0.432369
200 2 37.151 10.6739 1.36552 37.151 10.6739 1.36552
201 2 37.4551 11.0488 -1.9302 37.4551 11.0488 -1.9302
202 1 38.2066 12.5341 -0.0507681 38.2066 12.5341 -0.0507681
203 2 39.9816 12.4238 1.70702 39.9816 12.4238 1.70702
204 2 40.2882 12.5585 -1.48528 40.2882 12.5585 -1.48528
205 1 41.1751 10.9054 0.0795073 41.1751 10.9054 0.0795073
206 2 42.8383 10.8702 1.9691 42.8383 10.8702 1.9691
207 2 43.2403 11.0092 -1.34663 43.2403 11.0092 -1.34663
208 1 43.886 12.5293 0.415621 43.886 12.5293 0.415621
209 2 45.7916 12.7346 2.11941 45.7916 12.7346 2.11941
210 2 45.8929 12.6134 -1.14051 45.8929 12.6134 -1.14051
211 1 46.8234 10.9771 0.5666 46.8234 10.9771 0.5666
212 2 48.6318 11.0219 2.35289 48.6318 11.0219 2.35289
213 2 48.8227 10.9169 -0.915823 48.8227 10.9169 -0.915823
214 1 49.6585 12.6549 0.634268 49.6585 12.6549 0.634268
215 2 51.5891 12.8284 2.23874 51.5891 12.8284 2.23874
216 2 51.5114 12.3998 -0.907973 51.5114 12.3998 -0.907973
217 1 1.14302 14.3094 0.47419 1.14302 14.3094 0.47419
218 2 3.05265 14.456 2.12766 3.05265 14.456 2.12766
219 2 3.103 14.2156 -1.09949 3.103 14.2156 -1.09949
220 1 3.96221 15.9268 0.447088 3.96221 15.9268 0.447088
221 2 6.0883 16.0256 1.82219 6.0883 16.0256 1.82219
222 2 5.66438 15.6863 -1.46516 5.66438 15.6863 -1.46516
223 1 6.84902 14.2566 0.311014 6.84902 14.2566 0.311014
224 2 8.88215 14.4338 1.74215 8.88215 14.4338 1.74215
225 2 8.56005 14.1079 -1.54706 8.56005 14.1079 -1.54706
226 1 9.71718 15.8192 -0.0984016 9.71718 15.8192 -0.0984016
227 2 11.5648 16.0519 1.41592 11.5648 16.0519 1.41592
228 2 11.5104 15.7024 -1.83556 11.5104 15.7024 -1.83556
229 1 12.4998 14.2461 -0.0578492 12.4998 14.2461 -0.0578492
230 2 14.4426 14.4247 1.4043 14.4426 14.4247 1.4043
231 2 14.2479 14.1488 -1.74148 14.2479 14.1488 -1.74148
232 1 15.4571 15.8507 -0.395579 15.4571 15.8507 -0.395579
233 2 17.4262 15.8428 1.10268 17.4262 15.8428 1.10268
234 2 17.24 15.6686 -2.06362 17.24 15.6686 -2.06362
235 1 18.1825 14.0312 -0.399344 18.1825 14.0312 -0.399344
236 2 19.9313 14.0783 1.32304 19.9313 14.0783 1.32304
237 2 20.1682 14.1507 -1.90472 20.1682 14.1507 -1.90472
238 1 21.1383 15.7689 -0.203958 21.1383 15.7689 -0.203958
239 2 23.0371 15.8869 1.40062 23.0371 15.8869 1.40062
240 2 22.9229 15.7216 -2.00311 22.9229 15.7216 -2.00311
241 1 23.9036 14.2137 -0.269522 23.9036 14.2137 -0.269522
242 2 25.9625 13.9638 1.25605 25.9625 13.9638 1.25605
243 2 25.8072 14.4823 -1.94103 25.8072 14.4823 -1.94103
244 1 26.7722 15.8277 -0.0901681 26.7722 15.8277 -0.0901681
245 2 28.7872 15.7575 1.35912 28.7872 15.7575 1.35912
246 2 28.5896 15.8796 -1.93699 28.5896 15.8796 -1.93699
247 1 29.6659 14.139 -0.424786 29.6659 14.139 -0.424786
248 2 31.6111 14.0367 1.11786 31.6111 14.0367 1.11786
249 2 31.4899 14.3973 -2.12782 31.4899 14.3973 -2.12782
250 1 32.4757 15.804 -0.388 32.4757 15.804 -0.388
251 2 34.4667 15.7748 1.18772 34.4667 15.7748 1.18772
252 2 34.3626 16.0814 -2.01996 34.3626 16.0814 -2.01996
253 1 35.4635 14.2255 -0.526306 35.4635 14.2255 -0.526306
254 2 37.0442 14.1721 1.36516 37.0442 14.1721 1.36516
255 2 37.5813 14.2459 -1.86115 37.5813 14.2459 -1.86115
256 1 38.2315 15.9324 -0.0697142 38.2315 15.9324 -0.0697142
257 2 39.9223 16.0062 1.69372 39.9223 16.0062 1.69372
258 2 40.2932 15.7237 -1.60536 40.2932 15.7237 -1.60536
259 1 41.0787 14.148 0.323119 41.0787 14.148 0.323119
260 2 42.9935 14.228 1.96108 42.9935 14.228 1.96108
261 2 43.0854 14.0509 -1.32082 43.0854 14.0509 -1.32082
262 1 43.901 15.8541 0.135045 43.901 15.8541 0.135045
263 2 45.8673 16.076 1.78226 45.8673 16.076 1.78226
264 2 45.9588 15.7431 -1.33246 45.9588 15.7431 -1.33246
265 1 46.7915 14.2724 0.42618 46.7915 14.2724 0.42618
266 2 48.7319 14.5966 1.99647 48.7319 14.5966 1.99647
267 2 48.6821 13.988 -1.23784 48.6821 13.988 -1.23784
268 1 49.6273 15.91 0.0887635 49.6273 15.91 0.0887635
269 2 51.4027 16.0713 1.76525 51.4027 16.0713 1.76525
270 2 51.5996 15.8409 -1.3556 51.5996 15.8409 -1.3556
271 1 1.17103 17.6195 0.172484 1.17103 17.6195 0.172484
272 2 3.01141 17.8231 1.80349 3.01141 17.8231 1.80349
273 2 3.02442 17.4491 -1.54092 3.02442 17.4491 -1.54092
274 1 4.00636 19.2079 -0.111096 4.00636 19.2079 -0.111096
275 2 6.09226 19.3217 1.38652 6.09226 19.3217 1.38652
276 2 5.79561 18.9832 -1.91817 5.79561 18.9832 -1.91817
277 1 6.81744 17.4825 -0.139692 6.81744 17.4825 -0.139692
278 2 8.76025 17.6653 1.36314 8.76025 17.6653 1.36314
279 2 8.72784 17.3185 -1.86113 8.72784 17.3185 -1.86113
280 1 9.749 19.1673 -0.50757 9.749 19.1673 -0.50757
281 2 11.6404 19.377 1.11992 11.6404 19.377 1.11992
282 2 11.5331 19.0458 -2.17083 11.5331 19.0458 -2.17083
283 1 12.486 17.461 -0.415209 12.486 17.461 -0.415209
284 2 14.5302 17.7472 0.963105 14.5302 17.7472 0.963105
285 2 14.3904 17.1968 -2.22474 14.3904 17.1968 -2.22474
286 1 15.4549 19.0811 -0.975817 15.4549 19.0811 -0.975817
287 2 17.2518 19.1273 0.883671 17.2518 19.1273 0.883671
288 2 17.5141 19.1072 -2.42519 17.5141 19.1072 -2.42519
289 1 18.2424 17.443 -0.681498 18.2424 17.443 -0.681498
290 2 19.9334 17.6334 1.10334 19.9334 17.6334 1.10334
291 2 20.2418 17.1841 -2.12908 20.2418 17.1841 -2.12908
292 1 21.096 19.0452 -0.561327 21.096 19.0452 -0.561327
293 2 22.9669 19.1026 1.16121 22.9669 19.1026 1.16121
294 2 23.0516 18.8821 -2.10943 23.0516 18.8821 -2.10943
295 1 23.954 17.3968 -0.361791 23.954 17.3968 -0.361791
296 2 25.751 17.6474 1.34991 25.751 17.6474 1.34991
297 2 25.8276 17.3242 -1.93376 25.8276 17.3242 -1.93376
298 1 26.7247 19.1095 -0.417131 26.7247 19.1095 -0.417131
299 2 28.6489 19.3263 1.16649 28.6489 19.3263 1.16649
300 2 28.6683 19.0903 -2.05752 28.6683 19.0903 -2.05752
301 1 29.6032 17.4437 -0.299935 29.6032 17.4437 -0.299935
302 2 31.6434 17.6227 1.2179 31.6434 17.6227 1.2179
303 2 31.403 17.5306 -2.05631 31.403 17.5306 -2.05631
304 1 32.5346 19.1982 -0.595248 32.5346 19.1982 -0.595248
305 2 34.2489 19.2102 1.27256 34.2489 19.2102 1.27256
306 2 34.54 19.3701 -2.05778 34.54 19.3701 -2.05778
307 1 35.4101 17.6352 -0.335054 35.4101 17.6352 -0.335054
308 2 37.171 17.6019 1.36827 37.171 17.6019 1.36827
309 2 37.2874 17.3288 -1.85209 37.2874 17.3288 -1.85209
310 1 38.2335 19.0589 -0.393235 38.2335 19.0589 -0.393235
311 2 40.1403 19.1886 1.38565 40.1403 19.1886 1.38565
312 2 40.3293 18.8373 -1.83654 40.3293 18.8373 -1.83654
313 1 41.0745 17.4046 0.0107963 41.0745 17.4046 0.0107963
314 2 43.0779 17.5598 1.64489 43.0779 17.5598 1.64489
315 2 43.0454 17.3897 -1.60344 43.0454 17.3897 -1.60344
316 1 43.9677 19.1206 -0.0710088 43.9677 19.1206 -0.0710088
317 2 45.8185 19.4198 1.55321 45.8185 19.4198 1.55321
318 2 45.9566 19.0291 -1.67945 45.9566 19.0291 -1.67945
319 1 46.7922 17.54 0.137422 46.7922 17.54 0.137422
320 2 48.712 17.6885 1.59476 48.712 17.6885 1.59476
321 2 48.6146 17.3218 -1.677 48.6146 17.3218 -1.677
322 1 49.5765 19.1625 -0.302273 49.5765 19.1625 -0.302273
323 2 51.4507 19.4004 1.4466 51.4507 19.4004 1.4466
324 2 51.5988 18.9884 -1.78213 51.5988 18.9884 -1.78213
325 1 1.10078 20.8858 -0.386938 1.10078 20.8858 -0.386938
326 2 2.81791 20.8153 1.40869 2.81791 20.8153 1.40869
327 2 3.08446 20.8027 -1.82284 3.08446 20.8027 -1.82284
328 1 3.98565 22.5171 -0.172561 3.98565 22.5171 -0.172561
329 2 6.07496 22.4889 1.26692 6.07496 22.4889 1.26692
330 2 5.67387 22.443 -2.03073 5.67387 22.443 -2.03073
331 1 6.85558 20.8191 -0.466665 6.85558 20.8191 -0.466665
332 2 8.7767 20.7415 1.13765 8.7767 20.7415 1.13765
333 2 8.77771 20.9191 -2.11443 8.77771 20.9191 -2.11443
334 1 9.6897 22.4329 -0.342256 9.6897 22.4329 -0.342256
335 2 11.8405 22.3556 1.08256 11.8405 22.3556 1.08256
336 2 11.5435 22.4024 -2.25528 11.5435 22.4024 -2.25528
337 1 12.6789 20.7348 -0.730966 12.6789 20.7348 -0.730966
338 2 14.5803 20.7239 0.848399 14.5803 20.7239 0.848399
339 2 14.4508 20.9869 -2.41912 14.4508 20.9869 -2.41912
340 1 15.5469 22.4074 -0.70606 15.5469 22.4074 -0.70606
341 2 17.3781 22.4095 0.948742 17.3781 22.4095 0.948742
342 2 17.401 22.4991 -2.41748 17.401 22.4991 -2.41748
343 1 18.3025 20.7568 -0.735411 18.3025 20.7568 -0.735411
344 2 20.1255 20.9041 0.877499 20.1255 20.9041 0.877499
345 2 20.1906 20.5887 -2.3077 20.1906 20.5887 -2.3077
346 1 21.141 22.4242 -0.936228 21.141 22.4242 -0.936228
347 2 22.735 22.4334 0.993805 22.735 22.4334 0.993805
348 2 23.1696 22.362 -2.26356 23.1696 22.362 -2.26356
349 1 23.9002 20.7279 -0.512768 23.9002 20.7279 -0.512768
350 2 25.8504 20.8766 1.06779 25.8504 20.8766 1.06779
351 2 25.7968 20.5629 -2.17961 25.7968 20.5629 -2.17961
352 1 26.7438 22.4563 -0.671158 26.7438 22.4563 -0.671158
353 2 28.659 22.3623 0.978575 28.659 22.3623 0.978575
354 2 28.6324 22.5321 -2.2561 28.6324 22.5321 -2.2561
355 1 29.6734 20.8355 -0.700674 29.6734 20.8355 -0.700674
356 2 31.4022 20.6913 1.06247 31.4022 20.6913 1.06247
357 2 31.7221 21.0816 -2.1043 31.7221 21.0816 -2.1043
358 1 32.4501 22.4805 -0.239919 32.4501 22.4805 -0.239919
359 2 34.2436 22.3845 1.5569 34.2436 22.3845 1.5569
360 2 34.4614 22.5847 -1.80145 34.4614 22.5847 -1.80145
361 1 35.3569 20.8466 -0.189365 35.3569 20.8466 -0.189365
362 2 37.2668 20.6004 1.4065 37.2668 20.6004 1.4065
363 2 37.1929 21.0112 -1.86823 37.1929 21.0112 -1.86823
364 1 38.249 22.4119 -0.155051 38.249 22.4119 -0.155051
365 2 40.2024 22.4683 1.39263 40.2024 22.4683 1.39263
366 2 40.0504 22.3872 -1.83754 40.0504 22.3872 -1.83754
367 1 41.0814 20.7029 -0.252135 41.0814 20.7029 -0.252135
368 2 42.9136 20.7921 1.60012 42.9136 20.7921 1.60012
369 2 43.0469 20.7049 -1.70868 43.0469 20.7049 -1.70868
370 1 43.8632 22.5508 0.0140176 43.8632 22.5508 0.0140176
371 2 45.9378 22.5088 1.38894 45.9378 22.5088 1.38894
372 2 45.4919 22.4309 -1.8187 45.4919 22.4309 -1.8187
373 1 46.7617 20.8483 -0.252429 46.7617 20.8483 -0.252429
374 2 48.5621 20.8788 1.3886 48.5621 20.8788 1.3886
375 2 48.7175 20.8491 -1.88927 48.7175 20.8491 -1.88927
376 1 49.5494 22.4546 -0.207127 49.5494 22.4546 -0.207127
377 2 51.5303 22.5447 1.35742 51.5303 22.5447 1.35742
378 2 51.4345 22.5065 -1.95058 51.4345 22.5065 -1.95058
379 1 1.1111 24.2207 -0.268084 1.1111 24.2207 -0.268084
380 2 2.9927 24.246 1.44551 2.9927 24.246 1.44551
381 2 3.03601 24.2252 -1.8617 3.03601 24.2252 -1.8617
382 1 4.04864 25.8776 -0.235364 4.04864 25.8776 -0.235364
383 2 6.04236 25.7985 1.32451 6.04236 25.7985 1.32451
384 2 5.79563 25.8036 -2.11716 5.79563 25.8036 -2.11716
385 1 6.81553 24.113 -0.414844 6.81553 24.113 -0.414844
386 2 8.70754 24.0181 1.26285 8.70754 24.0181 1.26285
387 2 8.79915 24.0159 -1.93425 8.79915 24.0159 -1.93425
388 1 9.74909 25.7285 -0.293624 9.74909 25.7285 -0.293624
389 2 11.7269 25.7437 1.09406 11.7269 25.7437 1.09406
390 2 11.4085 25.7718 -2.06265 11.4085 25.7718 -2.06265
391 1 12.5619 24.0108 -0.59263 12.5619 24.0108 -0.59263
392 2 14.6014 23.9422 0.934369 14.6014 23.9422 0.934369
393 2 14.5175 24.0691 -2.37242 14.5175 24.0691 -2.37242
394 1 15.4612 25.8254 -0.657223 15.4612 25.8254 -0.657223
395 2 17.325 25.7056 1.09675 17.325 25.7056 1.09675
396 2 17.3281 25.8476 -2.23545 17.3281 25.8476 -2.23545
397 1 18.3011 24.1446 -0.665274 18.3011 24.1446 -0.665274
398 2 20.2351 23.8742 0.931223 20.2351 23.8742 0.931223
399 2 20.1513 24.3188 -2.3198 20.1513 24.3188 -2.3198
400 1 21.1006 25.6736 -0.395921 21.1006 25.6736 -0.395921
401 2 23.0504 25.7245 1.18391 23.0504 25.7245 1.18391
402 2 22.9522 25.7196 -2.13398 22.9522 25.7196 -2.13398
403 1 23.9266 24.0558 -0.471085 23.9266 24.0558 -0.471085
404 2 25.9179 24.0646 1.02022 25.9179 24.0646 1.02022
405 2 25.741 24.2038 -2.2129 25.741 24.2038 -2.2129
406 1 26.8751 25.7441 -0.604648 26.8751 25.7441 -0.604648
407 2 28.6665 25.7671 1.09611 28.6665 25.7671 1.09611
408 2 28.7461 25.6702 -2.18376 28.7461 25.6702 -2.18376
409 1 29.6571 24.0637 -0.396708 29.6571 24.0637 -0.396708
410 2 31.5193 23.9864 1.35972 31.5193 23.9864 1.35972
411 2 31.5484 24.2227 -1.95523 31.5484 24.2227 -1.95523
412 1 32.4552 25.8015 -0.165441 32.4552 25.8015 -0.165441
413 2 34.2297 25.7286 1.52187 34.2297 25.7286 1.52187
414 2 34.4919 25.8219 -1.61789 34.4919 25.8219 -1.61789
415 1 35.4533 24.0969 0.0205672 35.4533 24.0969 0.0205672
416 2 37.4604 24.0241 1.56892 37.4604 24.0241 1.56892
417 2 37.2441 24.1101 -1.71074 37.2441 24.1101 -1.71074
418 1 38.2727 25.7552 -0.150107 38.2727 25.7552 -0.150107
419 2 40.2285 25.7594 1.44005 40.2285 25.7594 1.44005
420 2 40.0767 25.8192 -1.8855 40.0767 25.8192 -1.8855
421 1 40.9614 24.1442 -0.237837 40.9614 24.1442 -0.237837
422 2 42.7676 24.1958 1.57093 42.7676 24.1958 1.57093
423 2 42.9646 24.1454 -1.7386 42.9646 24.1454 -1.7386
424 1 43.7917 25.7476 -0.150437 43.7917 25.7476 -0.150437
425 2 45.7284 25.7812 1.39349 45.7284 25.7812 1.39349
426 2 45.6772 25.7873 -1.96035 45.6772 25.7873 -1.96035
427 1 46.7079 24.1275 -0.322323 46.7079 24.1275 -0.322323
428 2 48.4614 24.0745 1.39244 48.4614 24.0745 1.39244
429 2 48.6053 24.1688 -1.9156 48.6053 24.1688 -1.9156
430 1 49.6223 25.7449 -0.182979 49.6223 25.7449 -0.182979
431 2 51.5098 25.9215 1.32979 51.5098 25.9215 1.32979
432 2 51.4408 25.7614 -1.90826 51.4408 25.7614 -1.90826
433 1 1.15504 27.4526 -0.293048 1.15504 27.4526 -0.293048
434 2 3.17329 27.5114 1.27743 3.17329 27.5114 1.27743
435 2 3.13673 27.4473 -1.96315 3.13673 27.4473 -1.96315
436 1 4.08126 29.1433 -0.403088 4.08126 29.1433 -0.403088
437 2 6.06729 29.0625 1.12713 6.06729 29.0625 1.12713
438 2 5.92399 29.0339 -2.07581 5.92399 29.0339 -2.07581
439 1 6.89312 27.3574 -0.499591 6.89312 27.3574 -0.499591
440 2 8.67633 27.4495 1.19226 8.67633 27.4495 1.19226
441 2 8.86735 27.3322 -1.99281 8.86735 27.3322 -1.99281
442 1 9.75692 29.089 -0.35268 9.75692 29.089 -0.35268
443 2 11.7944 28.9729 1.13797 11.7944 28.9729 1.13797
444 2 11.4471 29.0459 -2.10069 11.4471 29.0459 -2.10069
445 1 12.5797 27.3726 -0.61521 12.5797 27.3726 -0.61521
446 2 14.5313 27.4992 0.869206 14.5313 27.4992 0.869206
447 2 14.3742 27.3172 -2.31401 14.3742 27.3172 -2.31401
448 1 15.4033 29.0292 -0.886229 15.4033 29.0292 -0.886229
449 2 17.2007 29.1848 1.00172 17.2007 29.1848 1.00172
450 2 17.5541 29.0123 -2.27766 17.5541 29.0123 -2.27766
451 1 18.2558 27.3916 -0.475004 18.2558 27.3916 -0.475004
452 2 20.1735 27.3991 1.16722 20.1735 27.3991 1.16722
453 2 20.1284 27.2678 -2.11071 20.1284 27.2678 -2.11071
454 1 20.986 28.9742 -0.576879 20.986 28.9742 -0.576879
455 2 22.9469 28.8322 1.09872 22.9469 28.8322 1.09872
456 2 22.9259 28.9613 -2.08004 22.9259 28.9613 -2.08004
457 1 23.9046 27.2845 -0.535179 23.9046 27.2845 -0.535179
458 2 25.9109 27.3401 0.978029 25.9109 27.3401 0.978029
459 2 25.716 27.298 -2.22089 25.716 27.298 -2.22089
460 1 26.7358 29.0173 -0.65606 26.7358 29.0173 -0.65606
461 2 28.6114 29.0625 0.978874 28.6114 29.0625 0.978874
462 2 28.6543 28.9321 -2.22748 28.6543 28.9321 -2.22748
463 1 29.6415 27.3407 -0.549181 29.6415 27.3407 -0.549181
464 2 31.3431 27.5297 1.2803 31.3431 27.5297 1.2803
465 2 31.6653 27.3754 -1.98804 31.6653 27.3754 -1.98804
466 1 32.3878 29.0239 -0.443554 32.3878 29.0239 -0.443554
467 2 34.169 29.0915 1.50351 34.169 29.0915 1.50351
468 2 34.5353 29.051 -1.79839 34.5353 29.051 -1.79839
469 1 35.3461 27.3726 0.0446095 35.3461 27.3726 0.0446095
470 2 37.1083 27.1779 1.69031 37.1083 27.1779 1.69031
471 2 37.2689 27.5841 -1.59303 37.2689 27.5841 -1.59303
472 1 38.1439 29.0604 0.19553 38.1439 29.0604 0.19553
473 2 40.291 29.0432 1.56427 40.291 29.0432 1.56427
474 2 40.0079 29.1749 -1.55931 40.0079 29.1749 -1.55931
475 1 41.0533 27.3896 -0.129178 41.0533 27.3896 -0.129178
476 2 42.9848 27.4626 1.49094 42.9848 27.4626 1.49094
477 2 42.8633 27.4236 -1.7534 42.8633 27.4236 -1.7534
478 1 43.8885 29.1 -0.191525 43.8885 29.1 -0.191525
479 2 45.95 29.0539 1.27059 45.95 29.0539 1.27059
480 2 45.6522 29.0451 -1.97945 45.6522 29.0451 -1.97945
481 1 46.7704 27.4224 -0.341242 46.7704 27.4224 -0.341242
482 2 48.6368 27.447 1.33677 48.6368 27.447 1.33677
483 2 48.8363 27.3849 -1.87168 48.8363 27.3849 -1.87168
484 1 49.7322 29.1027 -0.318431 49.7322 29.1027 -0.318431
485 2 51.6463 29.3351 1.25184 51.6463 29.3351 1.25184
486 2 51.6085 28.9825 -1.99347 51.6085 28.9825 -1.99347
487 1 1.20905 30.7581 -0.513323 1.20905 30.7581 -0.513323
488 2 3.12669 30.8753 1.17014 3.12669 30.8753 1.17014
489 2 3.16808 30.6113 -2.23737 3.16808 30.6113 -2.23737
490 1 3.99617 32.3391 -0.616156 3.99617 32.3391 -0.616156
491 2 5.95122 32.2401 1.06443 5.95122 32.2401 1.06443
492 2 6.03148 32.4291 -2.14395 6.03148 32.4291 -2.14395
493 1 6.94503 30.6961 -0.531528 6.94503 30.6961 -0.531528
494 2 8.78845 30.7882 1.16762 8.78845 30.7882 1.16762
495 2 8.81298 30.6036 -2.04874 8.81298 30.6036 -2.04874
496 1 9.70159 32.3764 -0.547965 9.70159 32.3764 -0.547965
497 2 11.7277 32.403 1.03499 11.7277 32.403 1.03499
498 2 11.5999 32.2323 -2.27536 11.5999 32.2323 -2.27536
499 1 12.5918 30.6421 -0.597448 12.5918 30.6421 -0.597448
500 2 14.4792 30.5638 0.929451 14.4792 30.5638 0.929451
501 2 14.4306 30.7475 -2.30155 14.4306 30.7475 -2.30155
502 1 15.5164 32.3674 -0.634444 15.5164 32.3674 -0.634444
503 2 17.4312 32.4924 1.00504 17.4312 32.4924 1.00504
504 2 17.3169 32.1724 -2.23404 17.3169 32.1724 -2.23404
505 1 18.2246 30.69 -0.575256 18.2246 30.69 -0.575256
506 2 20.2483 30.7276 1.07764 20.2483 30.7276 1.07764
507 2 20.1994 30.7327 -2.22351 20.1994 30.7327 -2.22351
508 1 21.1117 32.3467 -0.621808 21.1117 32.3467 -0.621808
509 2 22.9675 32.3326 1.01531 22.9675 32.3326 1.01531
510 2 22.9893 32.2503 -2.26771 22.9893 32.2503 -2.26771
511 1 23.8929 30.6147 -0.571684 23.8929 30.6147 -0.571684
512 2 25.6986 30.6014 0.995348 25.6986 30.6014 0.995348
513 2 25.8083 30.6295 -2.2626 25.8083 30.6295 -2.2626
514 1 26.7174 32.3565 -0.573195 26.7174 32.3565 -0.573195
515 2 28.7647 32.3109 0.990478 28.7647 32.3109 0.990478
516 2 28.468 32.3168 -2.28909 28.468 32.3168 -2.28909
517 1 29.5994 30.7117 -0.70115 29.5994 30.7117 -0.70115
518 2 31.3531 30.6732 1.09683 31.3531 30.6732 1.09683
519 2 31.7075 30.755 -2.01453 31.7075 30.755 -2.01453
520 1 32.5254 32.3268 -0.34252 32.5254 32.3268 -0.34252
521 2 34.2138 32.2032 1.45542 34.2138 32.2032 1.45542
522 2 34.5492 32.3775 -1.78281 34.5492 32.3775 -1.78281
523 1 35.3082 30.6799 -0.157305 35.3082 30.6799 -0.157305
524 2 37.0258 30.7163 1.67472 37.0258 30.7163 1.67472
525 2 37.3288 30.6616 -1.58042 37.3288 30.6616 -1.58042
526 1 38.2085 32.3098 0.217283 38.2085 32.3098 0.217283
527 2 40.1587 32.544 1.69408 40.1587 32.544 1.69408
528 2 39.8482 32.1194 -1.61996 39.8482 32.1194 -1.61996
529 1 41.0042 30.7498 0.0218085 41.0042 30.7498 0.0218085
530 2 43.0806 30.8624 1.37516 43.0806 30.8624 1.37516
531 2 42.6403 30.6909 -1.85911 42.6403 30.6909 -1.85911
532 1 43.8884 32.3709 -0.440095 43.8884 32.3709 -0.440095
533 2 45.8574 32.4468 1.09433 45.8574 32.4468 1.09433
534 2 45.697 32.3351 -2.17306 45.697 32.3351 -2.17306
535 1 46.7604 30.669 -0.484147 46.7604 30.669 -0.484147
536 2 48.8097 30.7999 1.12427 48.8097 30.7999 1.12427
537 2 48.7844 30.6625 -2.09732 48.7844 30.6625 -2.09732
538 1 49.6872 32.3435 -0.596503 49.6872 32.3435 -0.596503
539 2 51.5038 32.3811 1.20227 51.5038 32.3811 1.20227