ITEM: TIMESTEP
4200
ITEM: NUMBER OF ATOMS
810
ITEM: BOX BOUNDS pp pp pp
8.4137701477268123e-01 5.2176227985227342e+01
8.0961581116522285e-01 5.0206599188834083e+01
-1.0000000000000000e+01 1.0000000000000000e+01
ITEM: ATOMS id type x y z xu yu zu
1 1 52.1517 50.318 -0.126723 0.816894 0.920973 -0.126723
2 2 2.60785 50.0011 1.64775 2.60785 0.604122 1.64775
3 2 2.78268 50.414 -1.69281 2.78268 1.01703 -1.69281
4 1 3.60632 2.53775 0.152687 3.60632 2.53775 0.152687
5 2 5.45764 2.45802 1.75967 5.45764 2.45802 1.75967
6 2 5.53173 2.76663 -1.42191 5.53173 2.76663 -1.42191
7 1 6.46231 50.2867 0.0565897 6.46231 0.889668 0.0565897
8 2 8.14402 50.0906 1.8721 8.14402 0.693638 1.8721
9 2 8.49186 50.2597 -1.37281 8.49186 0.862746 -1.37281
10 1 9.26364 2.47248 0.523026 9.26364 2.47248 0.523026
11 2 11.2932 2.55101 2.02385 11.2932 2.55101 2.02385
12 2 11.0537 2.36457 -1.21804 11.0537 2.36457 -1.21804
13 1 12.061 50.2289 0.43607 12.061 0.831887 0.43607
14 2 14.067 50.2193 1.95721 14.067 0.822351 1.95721
15 2 13.9784 50.1628 -1.28874 13.9784 0.765785 -1.28874
16 1 15.055 2.46873 0.376024 15.055 2.46873 0.376024
17 2 17.0492 2.61066 1.97502 17.0492 2.61066 1.97502
18 2 16.8777 2.38214 -1.38742 16.8777 2.38214 -1.38742
19 1 17.9557 50.3456 0.400445 17.9557 0.948611 0.400445
20 2 19.8371 50.322 2.05716 19.8371 0.925029 2.05716
21 2 19.8695 50.2436 -1.18791 19.8695 0.846625 -1.18791
22 1 20.7256 2.59398 0.374343 20.7256 2.59398 0.374343
23 2 22.8099 2.4732 1.90906 22.8099 2.4732 1.90906
24 2 22.6786 2.61277 -1.30251 22.6786 2.61277 -1.30251
25 1 23.6448 50.2858 0.257441 23.6448 0.88877 0.257441
26 2 25.7899 50.2951 1.54143 25.7899 0.898078 1.54143
27 2 25.2008 50.5171 -1.62058 25.2008 1.1201 -1.62058
28 1 26.5093 2.56964 -0.108837 26.5093 2.56964 -0.108837
29 2 28.3372 2.5369 1.70921 28.3372 2.5369 1.70921
30 2 28.5176 2.7595 -1.60385 28.5176 2.7595 -1.60385
31 1 29.4347 50.3859 -0.0919346 29.4347 0.988922 -0.0919346
32 2 31.2129 50.433 1.60584 31.2129 1.03606 1.60584
33 2 31.4005 50.3478 -1.65593 31.4005 0.950833 -1.65593
34 1 32.1922 2.57413 0.0535272 32.1922 2.57413 0.0535272
35 2 34.0279 2.46971 1.8223 34.0279 2.46971 1.8223
36 2 34.1709 2.7056 -1.47629 34.1709 2.7056 -1.47629
37 1 35.0827 50.2622 0.167557 35.0827 0.865214 0.167557
38 2 36.97 50.258 1.88079 36.97 0.861031 1.88079
39 2 36.9504 50.2254 -1.40961 36.9504 0.828409 -1.40961
40 1 37.9308 2.47104 0.127578 37.9308 2.47104 0.127578
41 2 39.7955 2.54421 1.76582 39.7955 2.54421 1.76582
42 2 39.8825 2.50961 -1.53339 39.8825 2.50961 -1.53339
43 1 40.7389 50.1838 0.0377037 40.7389 0.786825 0.0377037
44 2 42.4987 49.992 1.75096 42.4987 0.594974 1.75096
45 2 42.6345 50.4243 -1.55527 42.6345 1.02728 -1.55527
46 1 43.5452 2.49759 0.327509 43.5452 2.49759 0.327509
47 2 45.5508 2.48247 1.96657 45.5508 2.48247 1.96657
48 2 45.4334 2.65725 -1.34648 45.4334 2.65725 -1.34648
49 1 46.3859 50.3369 0.289514 46.3859 0.939955 0.289514
50 2 48.456 50.2657 1.71245 48.456 0.868742 1.71245
51 2 48.1895 50.3898 -1.482 48.1895 0.992803 -1.482
52 1 49.3266 2.56119 0.118338 49.3266 2.56119 0.118338
53 2 51.3661 2.45225 1.70204 51.3661 2.45225 1.70204
54 2 51.2441 2.6106 -1.5416 51.2441 2.6106 -1.5416
55 1 52.2032 4.16573 0.179659 0.868307 4.16573 0.179659
56 2 2.54591 3.93976 1.89013 2.54591 3.93976 1.89013
57 2 2.82799 4.32312 -1.44496 2.82799 4.32312 -1.44496
58 1 3.65554 5.84005 0.405516 3.65554 5.84005 0.405516
59 2 5.53851 5.84705 2.02597 5.53851 5.84705 2.02597
60 2 5.48489 5.72367 -1.2594 5.48489 5.72367 -1.2594
61 1 6.52267 4.19417 0.41635 6.52267 4.19417 0.41635
62 2 8.27622 4.14426 2.07125 8.27622 4.14426 2.07125
63 2 8.4688 4.19418 -1.1259 8.4688 4.19418 -1.1259
64 1 9.31912 5.7976 0.46395 9.31912 5.7976 0.46395
65 2 11.31 5.75301 1.95868 11.31 5.75301 1.95868
66 2 11.0972 5.83401 -1.29076 11.0972 5.83401 -1.29076
67 1 12.1665 4.12931 0.247784 12.1665 4.12931 0.247784
68 2 14.0616 3.99205 1.98853 14.0616 3.99205 1.98853
69 2 14.1377 4.12885 -1.35217 14.1377 4.12885 -1.35217
70 1 15.0568 5.73422 0.34412 15.0568 5.73422 0.34412
71 2 17.155 5.8246 1.81357 17.155 5.8246 1.81357
72 2 16.6888 5.77393 -1.42001 16.6888 5.77393 -1.42001
73 1 17.8145 4.14373 0.0731471 17.8145 4.14373 0.0731471
74 2 19.6879 4.2039 1.85088 19.6879 4.2039 1.85088
75 2 19.7951 4.00146 -1.50847 19.7951 4.00146 -1.50847
76 1 20.6425 5.81661 0.0452332 20.6425 5.81661 0.0452332
77 2 22.5904 5.78928 1.79271 22.5904 5.78928 1.79271
78 2 22.6827 5.81935 -1.53597 22.6827 5.81935 -1.53597
79 1 23.7097 4.19198 0.255267 23.7097 4.19198 0.255267
80 2 25.7243 3.96376 1.83349 25.7243 3.96376 1.83349
81 2 25.5485 4.40281 -1.35018 25.5485 4.40281 -1.35018
82 1 26.5187 5.80488 0.40397 26.5187 5.80488 0.40397
83 2 28.4494 5.84285 1.94417 28.4494 5.84285 1.94417
84 2 28.2704 5.93342 -1.34221 28.2704 5.93342 -1.34221
85 1 29.3533 4.2967 0.147652 29.3533 4.2967 0.147652
86 2 31.2711 4.23936 1.81011 31.2711 4.23936 1.81011
87 2 31.3452 4.34647 -1.38651 31.3452 4.34647 -1.38651
88 1 32.2689 5.86084 0.373858 32.2689 5.86084 0.373858
89 2 34.1192 5.77001 2.02131 34.1192 5.77001 2.02131
90 2 34.1145 5.82413 -1.23086 34.1145 5.82413 -1.23086
91 1 35.0778 4.13935 0.356032 35.0778 4.13935 0.356032
92 2 37.1363 4.14432 1.88259 37.1363 4.14432 1.88259
93 2 36.801 4.12175 -1.36456 36.801 4.12175 -1.36456
94 1 37.8801 5.85132 0.205506 37.8801 5.85132 0.205506
95 2 39.905 5.82726 1.81933 39.905 5.82726 1.81933
96 2 39.7279 5.99916 -1.41845 39.7279 5.99916 -1.41845
97 1 40.7576 4.19615 0.101336 40.7576 4.19615 0.101336
98 2 42.6352 4.18765 1.80103 42.6352 4.18765 1.80103
99 2 42.6765 4.17386 -1.44901 42.6765 4.17386 -1.44901
100 1 43.6067 5.84844 0.10819 43.6067 5.84844 0.10819
101 2 45.4007 5.92557 1.79006 45.4007 5.92557 1.79006
102 2 45.6139 5.79743 -1.40461 45.6139 5.79743 -1.40461
103 1 46.4289 4.19687 0.391606 46.4289 4.19687 0.391606
104 2 48.3774 4.04048 1.90666 48.3774 4.04048 1.90666
105 2 48.3517 4.43482 -1.22707 48.3517 4.43482 -1.22707
106 1 49.3126 5.91638 0.519384 49.3126 5.91638 0.519384
107 2 51.3654 5.81115 1.89392 51.3654 5.81115 1.89392
108 2 51.1038 5.87461 -1.29379 51.1038 5.87461 -1.29379
109 1 52.1977 7.50425 0.234641 0.862807 7.50425 0.234641
110 2 2.72772 7.54268 1.95368 2.72772 7.54268 1.95368
111 2 2.76948 7.55687 -1.33788 2.76948 7.55687 -1.33788
112 1 3.68048 9.21165 0.376116 3.68048 9.21165 0.376116
113 2 5.74557 9.35484 1.8155 5.74557 9.35484 1.8155
114 2 5.50742 8.97345 -1.42016 5.50742 8.97345 -1.42016
115 1 6.46387 7.41728 0.349922 6.46387 7.41728 0.349922
116 2 8.43114 7.64864 1.88011 8.43114 7.64864 1.88011
117 2 8.39212 7.294 -1.28694 8.39212 7.294 -1.28694
118 1 9.34203 9.11138 0.156102 9.34203 9.11138 0.156102
119 2 11.3029 9.36603 1.65885 11.3029 9.36603 1.65885
120 2 11.1569 8.78139 -1.51006 11.1569 8.78139 -1.51006
121 1 12.133 7.43495 0.349241 12.133 7.43495 0.349241
122 2 14.2597 7.67932 1.77728 14.2597 7.67932 1.77728
123 2 14.0273 7.28084 -1.4331 14.0273 7.28084 -1.4331
124 1 14.9951 9.10049 -0.0694556 14.9951 9.10049 -0.0694556
125 2 16.9119 9.12949 1.59832 16.9119 9.12949 1.59832
126 2 16.8921 9.03637 -1.76194 16.8921 9.03637 -1.76194
127 1 17.8557 7.49125 -0.0492217 17.8557 7.49125 -0.0492217
128 2 19.8273 7.51613 1.60687 19.8273 7.51613 1.60687
129 2 19.7717 7.48928 -1.63934 19.7717 7.48928 -1.63934
130 1 20.8277 9.11703 -0.061893 20.8277 9.11703 -0.061893
131 2 22.5768 9.17191 1.73769 22.5768 9.17191 1.73769
132 2 22.8486 9.1076 -1.51109 22.8486 9.1076 -1.51109
133 1 23.5969 7.48744 0.207156 23.5969 7.48744 0.207156
134 2 25.6088 7.51257 2.02018 25.6088 7.51257 2.02018
135 2 25.6327 7.51612 -1.34052 25.6327 7.51612 -1.34052
136 1 26.5494 9.21799 0.341925 26.5494 9.21799 0.341925
137 2 28.4189 9.21667 1.99723 28.4189 9.21667 1.99723
138 2 28.5253 9.18176 -1.27138 28.5253 9.18176 -1.27138
139 1 29.389 7.56545 0.359175 29.389 7.56545 0.359175
140 2 31.2885 7.5023 2.00576 31.2885 7.5023 2.00576
141 2 31.3483 7.5802 -1.2584 31.3483 7.5802 -1.2584
142 1 32.2575 9.13819 0.310893 32.2575 9.13819 0.310893
143 2 34.1096 8.98617 1.9444 34.1096 8.98617 1.9444
144 2 34.1872 9.30325 -1.27306 34.1872 9.30325 -1.27306
145 1 35.078 7.47848 0.309557 35.078 7.47848 0.309557
146 2 36.8488 7.19124 1.96181 36.8488 7.19124 1.96181
147 2 36.9638 7.82447 -1.21768 36.9638 7.82447 -1.21768
148 1 37.8293 9.13976 0.674971 37.8293 9.13976 0.674971
149 2 39.8762 9.15601 2.04051 39.8762 9.15601 2.04051
150 2 39.5288 9.21668 -1.21182 39.5288 9.21668 -1.21182
151 1 40.7008 7.54832 0.261415 40.7008 7.54832 0.261415
152 2 42.6739 7.43889 1.88774 42.6739 7.43889 1.88774
153 2 42.552 7.71392 -1.28501 42.552 7.71392 -1.28501
154 1 43.5535 9.30075 0.40353 43.5535 9.30075 0.40353
155 2 45.593 9.27694 1.93311 45.593 9.27694 1.93311
156 2 45.4287 9.21535 -1.25648 45.4287 9.21535 -1.25648
157 1 46.4629 7.55574 0.303102 46.4629 7.55574 0.303102
158 2 48.3153 7.67284 1.97718 48.3153 7.67284 1.97718
159 2 48.3762 7.47116 -1.24355 48.3762 7.47116 -1.24355
160 1 49.3003 9.15328 0.198156 49.3003 9.15328 0.198156
161 2 51.3289 9.16836 1.81054 51.3289 9.16836 1.81054
162 2 51.2243 9.00563 -1.43099 51.2243 9.00563 -1.43099
163 1 52.1081 10.817 0.127961 0.773295 10.817 0.127961
164 2 2.65024 10.9767 1.82877 2.65024 10.9767 1.82877
165 2 2.66747 10.5534 -1.46902 2.66747 10.5534 -1.46902
166 1 3.61948 12.4145 -0.00825815 3.61948 12.4145 -0.00825815
167 2 5.55566 12.4535 1.66079 5.55566 12.4535 1.66079
168 2 5.61553 12.4739 -1.6154 5.61553 12.4739 -1.6154
169 1 6.50656 10.7631 -0.0463024 6.50656 10.7631 -0.0463024
170 2 8.44285 10.9819 1.58956 8.44285 10.9819 1.58956
171 2 8.50128 10.6577 -1.75566 8.50128 10.6577 -1.75566
172 1 9.37682 12.421 -0.232317 9.37682 12.421 -0.232317
173 2 11.3509 12.5205 1.28249 11.3509 12.5205 1.28249
174 2 11.1511 12.1441 -1.9923 11.1511 12.1441 -1.9923
175 1 12.1528 10.7567 -0.172907 12.1528 10.7567 -0.172907
176 2 14.1959 10.8456 1.53421 14.1959 10.8456 1.53421
177 2 14.0617 10.7319 -1.73122 14.0617 10.7319 -1.73122
178 1 15.0602 12.5457 -0.211363 15.0602 12.5457 -0.211363
179 2 16.9359 12.64 1.46974 16.9359 12.64 1.46974
180 2 17.0053 12.259 -1.8303 17.0053 12.259 -1.8303
181 1 17.8816 10.7342 -0.0654516 17.8816 10.7342 -0.0654516
182 2 19.8703 10.9173 1.39949 19.8703 10.9173 1.39949
183 2 19.8811 10.6486 -1.83756 19.8811 10.6486 -1.83756
184 1 20.7971 12.3691 -0.331571 20.7971 12.3691 -0.331571
185 2 22.5656 12.5399 1.49112 22.5656 12.5399 1.49112
186 2 22.9479 12.3143 -1.71686 22.9479 12.3143 -1.71686
187 1 23.5641 10.7923 0.121536 23.5641 10.7923 0.121536
188 2 25.4114 10.9402 1.93796 25.4114 10.9402 1.93796
189 2 25.5926 10.7522 -1.42306 25.5926 10.7522 -1.42306
190 1 26.4991 12.3677 0.237948 26.4991 12.3677 0.237948
191 2 28.2705 12.4252 1.97234 28.2705 12.4252 1.97234
192 2 28.5079 12.5005 -1.27529 28.5079 12.5005 -1.27529
193 1 29.3708 10.8369 0.382752 29.3708 10.8369 0.382752
194 2 31.33 10.7898 1.98593 31.33 10.7898 1.98593
195 2 31.283 10.818 -1.26852 31.283 10.818 -1.26852
196 1 32.1373 12.5147 0.355283 32.1373 12.5147 0.355283
197 2 34.0355 12.4953 2.03528 34.0355 12.4953 2.03528
198 2 34.1356 12.592 -1.18187 34.1356 12.592 -1.18187
199 1 35.0412 10.9109 0.43321 35.0412 10.9109 0.43321
200 2 36.7363 10.907 2.20735 36.7363 10.907 2.20735
201 2 37.0328 10.7665 -1.10279 37.0328 10.7665 -1.10279
202 1 37.9186 12.474 0.586767 37.9186 12.474 0.586767
203 2 39.9328 12.4813 1.97154 39.9328 12.4813 1.97154
204 2 39.7201 12.5799 -1.21581 39.7201 12.5799 -1.21581
205 1 40.6697 10.8221 0.294116 40.6697 10.8221 0.294116
206 2 42.5556 10.9464 1.91149 42.5556 10.9464 1.91149
207 2 42.603 10.7644 -1.30191 42.603 10.7644 -1.30191
208 1 43.5431 12.5484 0.221759 43.5431 12.5484 0.221759
209 2 45.4644 12.6023 1.84567 45.4644 12.6023 1.84567
210 2 45.4041 12.6664 -1.42622 45.4041 12.6664 -1.42622
211 1 46.4816 10.9425 0.252448 46.4816 10.9425 0.252448
212 2 48.3796 10.8298 1.81628 48.3796 10.8298 1.81628
213 2 48.2616 10.6986 -1.45151 48.2616 10.6986 -1.45151
214 1 49.3278 12.457 0.0360307 49.3278 12.457 0.0360307
215 2 51.2531 12.5359 1.57109 51.2531 12.5359 1.57109
216 2 51.1048 12.2907 -1.57451 51.1048 12.2907 -1.57451
217 1 52.0305 14.0322 -0.214283 0.695606 14.0322 -0.214283
218 2 2.54808 14.0337 1.48954 2.54808 14.0337 1.48954
219 2 2.71849 13.9763 -1.69686 2.71849 13.9763 -1.69686
220 1 3.66334 15.6398 -0.00232427 3.66334 15.6398 -0.00232427
221 2 5.58116 15.7241 1.65684 5.58116 15.7241 1.65684
222 2 5.57515 15.6064 -1.71653 5.57515 15.6064 -1.71653
223 1 6.54261 14.0394 -0.0132702 6.54261 14.0394 -0.0132702
224 2 8.53387 14.0106 1.47418 8.53387 14.0106 1.47418
225 2 8.2863 14.046 -1.83707 8.2863 14.046 -1.83707
226 1 9.33767 15.7027 -0.324678 9.33767 15.7027 -0.324678
227 2 11.396 15.6024 1.07521 11.396 15.6024 1.07521
228 2 11.2008 15.7424 -2.19227 11.2008 15.7424 -2.19227
229 1 12.3347 14.0228 -0.675671 12.3347 14.0228 -0.675671
230 2 13.9657 14.1666 1.1926 13.9657 14.1666 1.1926
231 2 14.2394 13.9786 -2.10657 14.2394 13.9786 -2.10657
232 1 15.1465 15.7097 -0.480432 15.1465 15.7097 -0.480432
233 2 16.8482 15.6289 1.37092 16.8482 15.6289 1.37092
234 2 17.1387 15.7395 -1.94584 17.1387 15.7395 -1.94584
235 1 18.0111 14.0423 -0.2675 18.0111 14.0423 -0.2675
236 2 19.7547 13.8751 1.47262 19.7547 13.8751 1.47262
237 2 19.8621 14.2104 -1.778 19.8621 14.2104 -1.778
238 1 20.7977 15.6687 -0.0483375 20.7977 15.6687 -0.0483375
239 2 22.588 15.5836 1.74331 22.588 15.5836 1.74331
240 2 22.7578 15.9027 -1.55216 22.7578 15.9027 -1.55216
241 1 23.694 14.1132 -0.182593 23.694 14.1132 -0.182593
242 2 25.2373 14.0666 1.72448 25.2373 14.0666 1.72448
243 2 25.753 14.1905 -1.46282 25.753 14.1905 -1.46282
244 1 26.4822 15.764 0.281317 26.4822 15.764 0.281317
245 2 28.2818 15.7753 2.06806 28.2818 15.7753 2.06806
246 2 28.4599 15.6884 -1.1564 28.4599 15.6884 -1.1564
247 1 29.3204 14.1235 0.574654 29.3204 14.1235 0.574654
248 2 31.3143 14.1479 2.03466 31.3143 14.1479 2.03466
249 2 31.0586 14.0182 -1.27195 31.0586 14.0182 -1.27195
250 1 32.1345 15.7195 0.271945 32.1345 15.7195 0.271945
251 2 34.0042 16.0378 1.97183 34.0042 16.0378 1.97183
252 2 34.1072 15.5097 -1.28735 34.1072 15.5097 -1.28735
253 1 35.0432 14.2052 0.543763 35.0432 14.2052 0.543763
254 2 37.034 14.4577 2.03771 37.034 14.4577 2.03771
255 2 36.9399 13.9828 -1.17606 36.9399 13.9828 -1.17606
256 1 38.0124 15.7965 0.16257 38.0124 15.7965 0.16257
257 2 39.8138 15.8261 1.91491 39.8138 15.8261 1.91491
258 2 39.9121 15.7597 -1.41021 39.9121 15.7597 -1.41021
259 1 40.7606 14.1775 0.360319 40.7606 14.1775 0.360319
260 2 42.723 14.2596 1.92413 42.723 14.2596 1.92413
261 2 42.4438 14.074 -1.38011 42.4438 14.074 -1.38011
262 1 43.5732 15.7869 0.124534 43.5732 15.7869 0.124534
263 2 45.4197 15.8865 1.7967 45.4197 15.8865 1.7967
264 2 45.5166 15.7807 -1.49444 45.5166 15.7807 -1.49444
265 1 46.4879 14.2641 0.0908418 46.4879 14.2641 0.0908418
266 2 48.3758 14.1993 1.70217 48.3758 14.1993 1.70217
267 2 48.3768 14.2139 -1.55583 48.3768 14.2139 -1.55583
268 1 49.3316 15.7776 -0.0240071 49.3316 15.7776 -0.0240071
269 2 51.2437 15.5833 1.58918 51.2437 15.5833 1.58918
270 2 51.112 15.9325 -1.66533 51.112 15.9325 -1.66533
271 1 52.1219 17.4123 -0.00986939 0.787087 17.4123 -0.00986939
272 2 2.74342 17.2688 1.61233 2.74342 17.2688 1.61233
273 2 2.8168 17.3093 -1.63987 2.8168 17.3093 -1.63987
274 1 3.73657 18.9252 -0.0362252 3.73657 18.9252 -0.0362252
275 2 5.52186 18.9458 1.648 5.52186 18.9458 1.648
276 2 5.61624 19.0954 -1.59264 5.61624 19.0954 -1.59264
277 1 6.50402 17.3798 -0.0148343 6.50402 17.3798 -0.0148343
278 2 8.53354 17.3181 1.39035 8.53354 17.3181 1.39035
279 2 8.22563 17.249 -1.84312 8.22563 17.249 -1.84312
280 1 9.27172 19.0247 -0.358479 9.27172 19.0247 -0.358479
281 2 11.3174 18.8973 1.27162 11.3174 18.8973 1.27162
282 2 11.239 19.0448 -2.06164 11.239 19.0448 -2.06164
283 1 12.1482 17.3405 -0.434164 12.1482 17.3405 -0.434164
284 2 14.114 17.2351 1.17241 14.114 17.2351 1.17241
285 2 14.1504 17.2629 -2.03486 14.1504 17.2629 -2.03486
286 1 15.0977 18.9903 -0.44885 15.0977 18.9903 -0.44885
287 2 16.7642 19.0766 1.42255 16.7642 19.0766 1.42255
288 2 17.1166 19.1952 -1.78404 17.1166 19.1952 -1.78404
289 1 17.9297 17.371 -0.151724 17.9297 17.371 -0.151724
290 2 19.7716 17.408 1.53304 19.7716 17.408 1.53304
291 2 19.9682 17.3194 -1.84961 19.9682 17.3194 -1.84961
292 1 20.7262 19.0398 -0.0642724 20.7262 19.0398 -0.0642724
293 2 22.3814 19.0121 1.80498 22.3814 19.0121 1.80498
294 2 22.8826 19.1504 -1.38957 22.8826 19.1504 -1.38957
295 1 23.5624 17.3969 0.329045 23.5624 17.3969 0.329045
296 2 25.4615 17.2653 1.93514 25.4615 17.2653 1.93514
297 2 25.4454 17.3718 -1.32226 25.4454 17.3718 -1.32226
298 1 26.5088 19.0593 0.305444 26.5088 19.0593 0.305444
299 2 28.2101 19.1875 2.08414 28.2101 19.1875 2.08414
300 2 28.4371 18.9985 -1.14198 28.4371 18.9985 -1.14198
301 1 29.3055 17.4626 0.59362 29.3055 17.4626 0.59362
302 2 31.2478 17.2403 2.10054 31.2478 17.2403 2.10054
303 2 31.1261 17.6028 -1.12907 31.1261 17.6028 -1.12907
304 1 32.2633 19 0.618726 32.2633 19 0.618726
305 2 34.397 19.0641 1.95594 34.397 19.0641 1.95594
306 2 33.8001 19.051 -1.33238 33.8001 19.051 -1.33238
307 1 35.0785 17.4146 0.165847 35.0785 17.4146 0.165847
308 2 36.9236 17.5322 1.82043 36.9236 17.5322 1.82043
309 2 37.0329 17.4521 -1.48119 37.0329 17.4521 -1.48119
310 1 37.8327 19.0878 0.13588 37.8327 19.0878 0.13588
311 2 39.7049 19.4149 1.69096 39.7049 19.4149 1.69096
312 2 39.7509 18.9114 -1.38691 39.7509 18.9114 -1.38691
313 1 40.7567 17.488 0.354032 40.7567 17.488 0.354032
314 2 42.6848 17.4392 1.82912 42.6848 17.4392 1.82912
315 2 42.6442 17.3948 -1.45882 42.6442 17.3948 -1.45882
316 1 43.549 19.1643 0.0671542 43.549 19.1643 0.0671542
317 2 45.5636 19.238 1.6858 45.5636 19.238 1.6858
318 2 45.3569 18.9603 -1.59887 45.3569 18.9603 -1.59887
319 1 46.433 17.4772 0.0999481 46.433 17.4772 0.0999481
320 2 48.4423 17.3369 1.66916 48.4423 17.3369 1.66916
321 2 48.2612 17.4716 -1.59316 48.2612 17.4716 -1.59316
322 1 49.2492 19.1051 0.0497273 49.2492 19.1051 0.0497273
323 2 51.1335 18.9913 1.69943 51.1335 18.9913 1.69943
324 2 51.0522 19.033 -1.65826 51.0522 19.033 -1.65826
325 1 52.0881 20.6397 -0.129718 0.753209 20.6397 -0.129718
326 2 2.58809 20.5811 1.57138 2.58809 20.5811 1.57138
327 2 2.77194 20.6966 -1.67229 2.77194 20.6966 -1.67229
328 1 3.63736 22.3029 0.0655159 3.63736 22.3029 0.0655159
329 2 5.50054 22.3276 1.7591 5.50054 22.3276 1.7591
330 2 5.61437 22.3182 -1.54751 5.61437 22.3182 -1.54751
331 1 6.53729 20.6651 0.143381 6.53729 20.6651 0.143381
332 2 8.51975 20.4697 1.59172 8.51975 20.4697 1.59172
333 2 8.28548 20.9954 -1.59162 8.28548 20.9954 -1.59162
334 1 9.37764 22.3082 0.154641 9.37764 22.3082 0.154641
335 2 11.4277 22.2326 1.63046 11.4277 22.2326 1.63046
336 2 11.0017 22.4074 -1.64566 11.0017 22.4074 -1.64566
337 1 12.1723 20.6242 -0.316369 12.1723 20.6242 -0.316369
338 2 13.9805 20.3907 1.39637 13.9805 20.3907 1.39637
339 2 14.1574 20.9411 -1.79158 14.1574 20.9411 -1.79158
340 1 15.133 22.1972 0.0951942 15.133 22.1972 0.0951942
341 2 17.1025 22.4644 1.61379 17.1025 22.4644 1.61379
342 2 16.8782 22.4416 -1.72111 16.8782 22.4416 -1.72111
343 1 17.9338 20.8059 -0.154629 17.9338 20.8059 -0.154629
344 2 19.7196 20.6418 1.58753 19.7196 20.6418 1.58753
345 2 19.9546 20.8682 -1.66961 19.9546 20.8682 -1.66961
346 1 20.8386 22.2314 0.252707 20.8386 22.2314 0.252707
347 2 22.5673 22.2834 1.97623 22.5673 22.2834 1.97623
348 2 22.8618 22.3195 -1.36017 22.8618 22.3195 -1.36017
349 1 23.6947 20.6391 0.366453 23.6947 20.6391 0.366453
350 2 25.6309 20.6586 1.91594 25.6309 20.6586 1.91594
351 2 25.3825 20.5864 -1.39287 25.3825 20.5864 -1.39287
352 1 26.4547 22.3415 0.161672 26.4547 22.3415 0.161672
353 2 28.157 22.4207 1.98067 28.157 22.4207 1.98067
354 2 28.5218 22.3812 -1.27473 28.5218 22.3812 -1.27473
355 1 29.3026 20.707 0.420054 29.3026 20.707 0.420054
356 2 31.1917 20.7377 2.08748 31.1917 20.7377 2.08748
357 2 31.2235 20.6177 -1.10879 31.2235 20.6177 -1.10879
358 1 32.1791 22.2478 0.404164 32.1791 22.2478 0.404164
359 2 34.2465 22.1253 1.86613 34.2465 22.1253 1.86613
360 2 33.9097 22.4484 -1.42521 33.9097 22.4484 -1.42521
361 1 35.0073 20.7019 0.0809457 35.0073 20.7019 0.0809457
362 2 36.9754 20.8232 1.63889 36.9754 20.8232 1.63889
363 2 36.808 20.6708 -1.59804 36.808 20.6708 -1.59804
364 1 37.8548 22.3206 -0.0411001 37.8548 22.3206 -0.0411001
365 2 39.8644 22.3599 1.53282 39.8644 22.3599 1.53282
366 2 39.5988 22.4458 -1.70259 39.5988 22.4458 -1.70259
367 1 40.7086 20.7793 -0.13323 40.7086 20.7793 -0.13323
368 2 42.4914 20.8359 1.60632 42.4914 20.8359 1.60632
369 2 42.6148 20.742 -1.69676 42.6148 20.742 -1.69676
370 1 43.5361 22.3892 -0.0936391 43.5361 22.3892 -0.0936391
371 2 45.6671 22.5353 1.41199 45.6671 22.5353 1.41199
372 2 45.3569 22.285 -1.88732 45.3569 22.285 -1.88732
373 1 46.3852 20.7334 -0.174808 46.3852 20.7334 -0.174808
374 2 48.2694 20.6804 1.60918 48.2694 20.6804 1.60918
375 2 48.3511 20.4893 -1.73064 48.3511 20.4893 -1.73064
376 1 49.2694 22.3537 -0.159513 49.2694 22.3537 -0.159513
377 2 51.0338 22.2122 1.5335 51.0338 22.2122 1.5335
378 2 51.2829 22.4078 -1.69088 51.2829 22.4078 -1.69088
379 1 52.1381 23.9643 0.095559 0.803244 23.9643 0.095559
380 2 2.62855 24.0135 1.70788 2.62855 24.0135 1.70788
381 2 2.64738 24.0244 -1.53323 2.64738 24.0244 -1.53323
382 1 3.64393 25.5932 0.157437 3.64393 25.5932 0.157437
383 2 5.58442 25.5019 1.8597 5.58442 25.5019 1.8597
384 2 5.55947 25.5505 -1.4167 5.55947 25.5505 -1.4167
385 1 6.56499 23.9731 0.18616 6.56499 23.9731 0.18616
386 2 8.56784 24.0038 1.83235 8.56784 24.0038 1.83235
387 2 8.45957 23.9569 -1.38947 8.45957 23.9569 -1.38947
388 1 9.50248 25.5209 0.226892 9.50248 25.5209 0.226892
389 2 11.5565 25.4809 1.68932 11.5565 25.4809 1.68932
390 2 11.2675 25.5274 -1.63602 11.2675 25.5274 -1.63602
391 1 12.3111 23.8495 -0.0201392 12.3111 23.8495 -0.0201392
392 2 14.1589 23.8611 1.74431 14.1589 23.8611 1.74431
393 2 14.2515 23.7345 -1.52749 14.2515 23.7345 -1.52749
394 1 15.0055 25.4973 0.121124 15.0055 25.4973 0.121124
395 2 17.1137 25.5561 1.67365 17.1137 25.5561 1.67365
396 2 16.835 25.6314 -1.70243 16.835 25.6314 -1.70243
397 1 17.935 23.9457 -0.144855 17.935 23.9457 -0.144855
398 2 19.6579 23.9227 1.79072 19.6579 23.9227 1.79072
399 2 20.0606 23.79 -1.54213 20.0606 23.79 -1.54213
400 1 20.7127 25.5313 0.257685 20.7127 25.5313 0.257685
401 2 22.5659 25.529 2.01552 22.5659 25.529 2.01552
402 2 22.6414 25.6071 -1.25266 22.6414 25.6071 -1.25266
403 1 23.5617 23.9984 0.327822 23.5617 23.9984 0.327822
404 2 25.3581 23.7258 1.94435 25.3581 23.7258 1.94435
405 2 25.5815 24.2149 -1.23976 25.5815 24.2149 -1.23976
406 1 26.4733 25.5887 0.612978 26.4733 25.5887 0.612978
407 2 28.5354 25.6692 2.07029 28.5354 25.6692 2.07029
408 2 28.4912 25.628 -1.22827 28.4912 25.628 -1.22827
409 1 29.3587 23.9707 0.435543 29.3587 23.9707 0.435543
410 2 31.19 23.9858 2.01856 31.19 23.9858 2.01856
411 2 31.2357 23.9058 -1.23096 31.2357 23.9058 -1.23096
412 1 32.1766 25.5462 0.257251 32.1766 25.5462 0.257251
413 2 34.1611 25.5216 1.95197 34.1611 25.5216 1.95197
414 2 34.0202 25.6224 -1.40227 34.0202 25.6224 -1.40227
415 1 35.0475 23.9403 0.232004 35.0475 23.9403 0.232004
416 2 37.0698 23.9674 1.77286 37.0698 23.9674 1.77286
417 2 36.8803 23.9751 -1.5511 36.8803 23.9751 -1.5511
418 1 37.9243 25.6032 0.0584477 37.9243 25.6032 0.0584477
419 2 39.931 25.7743 1.56222 39.931 25.7743 1.56222
420 2 39.6675 25.5937 -1.71182 39.6675 25.5937 -1.71182
421 1 40.7493 24.1246 -0.0975261 40.7493 24.1246 -0.0975261
422 2 42.6591 24.1121 1.49489 42.6591 24.1121 1.49489
423 2 42.5907 24.0893 -1.75472 42.5907 24.0893 -1.75472
424 1 43.6239 25.6573 -0.254483 43.6239 25.6573 -0.254483
425 2 45.6389 25.6837 1.38738 45.6389 25.6837 1.38738
426 2 45.419 25.6744 -1.97085 45.419 25.6744 -1.97085
427 1 46.4334 24.0312 -0.404731 46.4334 24.0312 -0.404731
428 2 48.2551 23.972 1.43777 48.2551 23.972 1.43777
429 2 48.4252 24.0622 -1.89622 48.4252 24.0622 -1.89622
430 1 49.2189 25.6331 -0.140476 49.2189 25.6331 -0.140476
431 2 51.0648 25.6752 1.6065 51.0648 25.6752 1.6065
432 2 51.231 25.4792 -1.62204 51.231 25.4792 -1.62204
433 1 52.1664 27.2691 -0.0272623 0.831512 27.2691 -0.0272623
434 2 2.6552 27.2734 1.60236 2.6552 27.2734 1.60236
435 2 2.69199 27.0519 -1.60627 2.69199 27.0519 -1.60627
436 1 3.70195 28.8455 -0.120696 3.70195 28.8455 -0.120696
437 2 5.44056 29.012 1.64941 5.44056 29.012 1.64941
438 2 5.74804 28.7581 -1.51048 5.74804 28.7581 -1.51048
439 1 6.57521 27.2001 0.245491 6.57521 27.2001 0.245491
440 2 8.50408 27.2656 1.8763 8.50408 27.2656 1.8763
441 2 8.40502 27.108 -1.45768 8.40502 27.108 -1.45768
442 1 9.33688 28.8924 0.10897 9.33688 28.8924 0.10897
443 2 11.2564 28.8638 1.68292 11.2564 28.8638 1.68292
444 2 11.1726 28.9023 -1.63491 11.1726 28.9023 -1.63491
445 1 12.2502 27.1916 -0.00448357 12.2502 27.1916 -0.00448357
446 2 14.1306 27.4938 1.55705 14.1306 27.4938 1.55705
447 2 14.0358 26.9038 -1.68782 14.0358 26.9038 -1.68782
448 1 15.0414 28.8164 -0.351451 15.0414 28.8164 -0.351451
449 2 16.8175 28.8487 1.45805 16.8175 28.8487 1.45805
450 2 17.0442 28.8322 -1.72462 17.0442 28.8322 -1.72462
451 1 17.8877 27.2494 -0.0587474 17.8877 27.2494 -0.0587474
452 2 19.6165 27.4343 1.63345 19.6165 27.4343 1.63345
453 2 19.8938 27.0702 -1.57277 19.8938 27.0702 -1.57277
454 1 20.8148 28.9106 0.00445411 20.8148 28.9106 0.00445411
455 2 22.4345 28.9794 1.82596 22.4345 28.9794 1.82596
456 2 22.8471 28.7518 -1.34982 22.8471 28.7518 -1.34982
457 1 23.5066 27.1868 0.430327 23.5066 27.1868 0.430327
458 2 25.4027 27.3334 2.12898 25.4027 27.3334 2.12898
459 2 25.5583 27.1405 -1.14783 25.5583 27.1405 -1.14783
460 1 26.4943 28.7988 0.442366 26.4943 28.7988 0.442366
461 2 28.4543 28.7788 2.007 28.4543 28.7788 2.007
462 2 28.3513 28.8561 -1.36042 28.3513 28.8561 -1.36042
463 1 29.4613 27.261 0.285222 29.4613 27.261 0.285222
464 2 31.3681 27.2408 1.99183 31.3681 27.2408 1.99183
465 2 31.2122 27.2842 -1.3746 31.2122 27.2842 -1.3746
466 1 32.2267 28.8801 0.225802 32.2267 28.8801 0.225802
467 2 34.1165 28.7887 1.88777 34.1165 28.7887 1.88777
468 2 34.1232 28.8237 -1.35678 34.1232 28.8237 -1.35678
469 1 35.0724 27.2285 0.272794 35.0724 27.2285 0.272794
470 2 36.9798 27.2279 1.70848 36.9798 27.2279 1.70848
471 2 36.7982 27.3602 -1.51318 36.7982 27.3602 -1.51318
472 1 37.8424 28.9769 0.0273457 37.8424 28.9769 0.0273457
473 2 39.8922 29.0181 1.54635 39.8922 29.0181 1.54635
474 2 39.5359 28.9829 -1.80086 39.5359 28.9829 -1.80086
475 1 40.6804 27.3232 -0.258032 40.6804 27.3232 -0.258032
476 2 42.5749 27.2198 1.4408 42.5749 27.2198 1.4408
477 2 42.7234 27.4766 -1.83526 42.7234 27.4766 -1.83526
478 1 43.6316 28.9302 -0.157688 43.6316 28.9302 -0.157688
479 2 45.661 28.7973 1.41024 45.661 28.7973 1.41024
480 2 45.4625 28.9167 -1.86219 45.4625 28.9167 -1.86219
481 1 46.418 27.2671 -0.294299 46.418 27.2671 -0.294299
482 2 48.3994 27.3462 1.40958 48.3994 27.3462 1.40958
483 2 48.2259 27.0902 -1.94263 48.2259 27.0902 -1.94263
484 1 49.3656 28.9519 -0.359217 49.3656 28.9519 -0.359217
485 2 51.1143 28.8857 1.46567 51.1143 28.8857 1.46567
486 2 51.4352 28.8639 -1.84846 51.4352 28.8639 -1.84846
487 1 52.1975 30.5591 -0.275855 0.862622 30.5591 -0.275855
488 2 2.71646 30.4912 1.36185 2.71646 30.4912 1.36185
489 2 2.75364 30.3199 -1.82368 2.75364 30.3199 -1.82368
490 1 3.79795 32.0786 -0.349958 3.79795 32.0786 -0.349958
491 2 5.58863 32.2212 1.46174 5.58863 32.2212 1.46174
492 2 5.75786 32.0174 -1.80194 5.75786 32.0174 -1.80194
493 1 6.55261 30.4813 -0.0237655 6.55261 30.4813 -0.0237655
494 2 8.34754 30.7169 1.63443 8.34754 30.7169 1.63443
495 2 8.57802 30.456 -1.69901 8.57802 30.456 -1.69901
496 1 9.42139 32.1842 -0.0580653 9.42139 32.1842 -0.0580653
497 2 11.2683 32.1515 1.59484 11.2683 32.1515 1.59484
498 2 11.3322 32.0887 -1.59832 11.3322 32.0887 -1.59832
499 1 12.2501 30.4533 -0.0524296 12.2501 30.4533 -0.0524296
500 2 14.2031 30.4879 1.51562 14.2031 30.4879 1.51562
501 2 14.0135 30.4784 -1.79938 14.0135 30.4784 -1.79938
502 1 15.0463 32.0913 -0.20365 15.0463 32.0913 -0.20365
503 2 16.9238 32.1755 1.53216 16.9238 32.1755 1.53216
504 2 16.9443 32.0549 -1.75634 16.9443 32.0549 -1.75634
505 1 17.9267 30.5184 -0.0506269 17.9267 30.5184 -0.0506269
506 2 19.8988 30.6161 1.49266 19.8988 30.6161 1.49266
507 2 19.7758 30.4278 -1.73696 19.7758 30.4278 -1.73696
508 1 20.789 32.2202 -0.276056 20.789 32.2202 -0.276056
509 2 22.5418 32.2421 1.63422 22.5418 32.2421 1.63422
510 2 22.9204 32.2045 -1.66754 22.9204 32.2045 -1.66754
511 1 23.58 30.4876 0.213814 23.58 30.4876 0.213814
512 2 25.4126 30.4282 1.99477 25.4126 30.4282 1.99477
513 2 25.6334 30.5278 -1.23012 25.6334 30.5278 -1.23012
514 1 26.5351 32.1568 0.514446 26.5351 32.1568 0.514446
515 2 28.5471 32.43 1.90689 28.5471 32.43 1.90689
516 2 28.2476 31.9406 -1.27439 28.2476 31.9406 -1.27439
517 1 29.3549 30.5446 0.403379 29.3549 30.5446 0.403379
518 2 31.3251 30.488 1.92313 31.3251 30.488 1.92313
519 2 31.2155 30.5035 -1.41527 31.2155 30.5035 -1.41527
520 1 32.1496 32.1921 0.245366 32.1496 32.1921 0.245366
521 2 34.1105 32.3689 1.80189 34.1105 32.3689 1.80189
522 2 33.9466 32.0205 -1.49853 33.9466 32.0205 -1.49853
523 1 34.9239 30.5605 0.239716 34.9239 30.5605 0.239716
524 2 37.1479 30.6367 1.62229 37.1479 30.6367 1.62229
525 2 36.5658 30.5712 -1.63606 36.5658 30.5712 -1.63606
526 1 37.8411 32.2231 -0.249924 37.8411 32.2231 -0.249924
527 2 39.7559 32.1876 1.3834 39.7559 32.1876 1.3834
528 2 39.85 32.2435 -1.83399 39.85 32.2435 -1.83399
529 1 40.7557 30.5856 -0.314673 40.7557 30.5856 -0.314673
530 2 42.5764 30.6907 1.37528 42.5764 30.6907 1.37528
531 2 42.703 30.502 -1.88689 42.703 30.502 -1.88689
532 1 43.5787 32.2672 -0.295084 43.5787 32.2672 -0.295084
533 2 45.4015 31.9988 1.38005 45.4015 31.9988 1.38005
534 2 45.4942 32.2479 -1.88633 45.4942 32.2479 -1.88633
535 1 46.4823 30.4923 -0.293046 46.4823 30.4923 -0.293046
536 2 48.4314 30.5634 1.29909 48.4314 30.5634 1.29909
537 2 48.3911 30.6455 -1.99197 48.3911 30.6455 -1.99197
538 1 49.2661 32.2487 -0.327024 49.2661 32.2487 -0.327024
539 2 51.1792 32.216 1.30934 51.1792 32.216 1.30934
540 2 51.2056 32.09 -2.01923 51.2056 32.09 -2.01923
541 1 52.2338 33.7551 -0.367971 0.898938 33.7551 -0.367971