ITEM: TIMESTEP
26800
ITEM: NUMBER OF ATOMS
810
ITEM: BOX BOUNDS pp pp pp
8.4137701477268123e-01 5.2176227985227342e+01
8.0961581116522285e-01 5.0206599188834083e+01
-1.0000000000000000e+01 1.0000000000000000e+01
ITEM: ATOMS id type x y z xu yu zu
1 1 1.12363 1.06812 0.274127 1.12363 1.06812 0.274127
2 2 3.02236 1.07746 2.02133 3.02236 1.07746 2.02133
3 2 3.06269 1.0782 -1.20054 3.06269 1.0782 -1.20054
4 1 4.00962 2.72132 0.398599 4.00962 2.72132 0.398599
5 2 5.98978 2.73305 1.89298 5.98978 2.73305 1.89298
6 2 5.88902 2.59675 -1.27894 5.88902 2.59675 -1.27894
7 1 6.89028 1.03259 0.335664 6.89028 1.03259 0.335664
8 2 8.88887 1.06132 1.72432 8.88887 1.06132 1.72432
9 2 8.56963 1.0129 -1.55108 8.56963 1.0129 -1.55108
10 1 9.77229 2.61041 0.0181492 9.77229 2.61041 0.0181492
11 2 11.6562 2.57194 1.6456 11.6562 2.57194 1.6456
12 2 11.7544 2.76568 -1.70323 11.7544 2.76568 -1.70323
13 1 12.5151 0.971685 -0.194882 12.5151 0.971685 -0.194882
14 2 14.3161 1.08973 1.52269 14.3161 1.08973 1.52269
15 2 14.4135 1.05875 -1.69876 14.4135 1.05875 -1.69876
16 1 15.3693 2.66649 -0.0366564 15.3693 2.66649 -0.0366564
17 2 17.5063 2.62459 1.25031 17.5063 2.62459 1.25031
18 2 17.1535 2.66449 -2.00461 17.1535 2.66449 -2.00461
19 1 18.2076 0.956172 -0.434666 18.2076 0.956172 -0.434666
20 2 20.0131 0.998819 1.31638 20.0131 0.998819 1.31638
21 2 20.0657 1.03233 -2.04176 20.0657 1.03233 -2.04176
22 1 21.042 2.63836 -0.40343 21.042 2.63836 -0.40343
23 2 22.9712 2.54283 1.07501 22.9712 2.54283 1.07501
24 2 22.7278 2.79885 -2.14217 22.7278 2.79885 -2.14217
25 1 23.8348 1.02212 -0.737881 23.8348 1.02212 -0.737881
26 2 25.7985 0.858734 0.861157 25.7985 0.858734 0.861157
27 2 25.6816 0.985465 -2.39475 25.6816 0.985465 -2.39475
28 1 26.6691 2.59462 -0.723742 26.6691 2.59462 -0.723742
29 2 28.5364 2.59681 0.897221 28.5364 2.59681 0.897221
30 2 28.5973 2.53991 -2.28372 28.5973 2.53991 -2.28372
31 1 29.6143 0.952479 -0.561577 29.6143 0.952479 -0.561577
32 2 31.5231 0.983136 1.09406 31.5231 0.983136 1.09406
33 2 31.5676 0.911007 -2.18593 31.5676 0.911007 -2.18593
34 1 32.4721 2.68789 -0.68731 32.4721 2.68789 -0.68731
35 2 34.1693 2.52098 1.09202 34.1693 2.52098 1.09202
36 2 34.4507 2.87024 -2.19977 34.4507 2.87024 -2.19977
37 1 35.2889 1.07893 -0.624894 35.2889 1.07893 -0.624894
38 2 37.142 1.11955 1.0731 37.142 1.11955 1.0731
39 2 37.2476 1.13331 -2.26845 37.2476 1.13331 -2.26845
40 1 38.2915 2.64861 -0.498744 38.2915 2.64861 -0.498744
41 2 40.0302 2.46397 1.28547 40.0302 2.46397 1.28547
42 2 40.3656 2.8249 -1.99486 40.3656 2.8249 -1.99486
43 1 41.0553 0.871585 -0.26813 41.0553 0.871585 -0.26813
44 2 42.789 1.17037 1.57767 42.789 1.17037 1.57767
45 2 43.2342 0.920463 -1.63763 43.2342 0.920463 -1.63763
46 1 43.9792 2.68258 -0.0280791 43.9792 2.68258 -0.0280791
47 2 45.6247 2.66698 1.88038 45.6247 2.66698 1.88038
48 2 46.1915 2.63051 -1.31151 46.1915 2.63051 -1.31151
49 1 46.8222 1.06727 0.397625 46.8222 1.06727 0.397625
50 2 48.6377 1.03558 2.18163 48.6377 1.03558 2.18163
51 2 48.8676 1.06486 -1.12571 48.8676 1.06486 -1.12571
52 1 49.6638 2.70309 0.598042 49.6638 2.70309 0.598042
53 2 51.5954 2.51654 2.1562 51.5954 2.51654 2.1562
54 2 51.447 2.86549 -1.13087 51.447 2.86549 -1.13087
55 1 1.19868 4.31057 0.652212 1.19868 4.31057 0.652212
56 2 3.23689 4.36665 2.09755 3.23689 4.36665 2.09755
57 2 2.96301 4.19204 -1.20941 2.96301 4.19204 -1.20941
58 1 4.01948 5.88845 0.250983 4.01948 5.88845 0.250983
59 2 5.89156 5.74828 1.99095 5.89156 5.74828 1.99095
60 2 5.9466 6.09814 -1.35372 5.9466 6.09814 -1.35372
61 1 6.96524 4.40528 0.185715 6.96524 4.40528 0.185715
62 2 8.76074 4.13632 1.79273 8.76074 4.13632 1.79273
63 2 8.89795 4.49243 -1.3273 8.89795 4.49243 -1.3273
64 1 9.81995 5.97966 0.490753 9.81995 5.97966 0.490753
65 2 11.8327 5.94896 1.77719 11.8327 5.94896 1.77719
66 2 11.4171 6.01028 -1.37624 11.4171 6.01028 -1.37624
67 1 12.6126 4.3127 0.0949417 12.6126 4.3127 0.0949417
68 2 14.5894 4.40972 1.62425 14.5894 4.40972 1.62425
69 2 14.3833 4.32165 -1.71611 14.3833 4.32165 -1.71611
70 1 15.4366 5.97548 -0.119547 15.4366 5.97548 -0.119547
71 2 17.4345 5.96207 1.28836 17.4345 5.96207 1.28836
72 2 17.0427 5.96464 -1.94354 17.0427 5.96464 -1.94354
73 1 18.1773 4.27335 -0.498396 18.1773 4.27335 -0.498396
74 2 20.16 4.32766 1.24794 20.16 4.32766 1.24794
75 2 20.2615 4.39285 -2.18234 20.2615 4.39285 -2.18234
76 1 21.1073 5.98502 -0.413594 21.1073 5.98502 -0.413594
77 2 23.0125 6.00281 1.16683 23.0125 6.00281 1.16683
78 2 22.9169 5.83719 -2.0982 22.9169 5.83719 -2.0982
79 1 23.9133 4.3332 -0.476351 23.9133 4.3332 -0.476351
80 2 25.8546 4.11734 1.05154 25.8546 4.11734 1.05154
81 2 25.7226 4.33291 -2.20265 25.7226 4.33291 -2.20265
82 1 26.8015 5.87633 -0.628903 26.8015 5.87633 -0.628903
83 2 28.7485 6.04003 0.841833 28.7485 6.04003 0.841833
84 2 28.6131 5.78087 -2.48388 28.6131 5.78087 -2.48388
85 1 29.593 4.21586 -0.726321 29.593 4.21586 -0.726321
86 2 31.3802 4.16878 0.930781 31.3802 4.16878 0.930781
87 2 31.5364 4.34172 -2.36544 31.5364 4.34172 -2.36544
88 1 32.4408 5.89423 -0.602892 32.4408 5.89423 -0.602892
89 2 34.1595 5.88667 1.22921 34.1595 5.88667 1.22921
90 2 34.5352 6.02478 -1.99359 34.5352 6.02478 -1.99359
91 1 35.3055 4.30851 -0.410768 35.3055 4.30851 -0.410768
92 2 37.0181 4.05096 1.31465 37.0181 4.05096 1.31465
93 2 37.3878 4.45833 -1.97035 37.3878 4.45833 -1.97035
94 1 38.185 5.9199 0.00706639 38.185 5.9199 0.00706639
95 2 40.0659 5.64501 1.59474 40.0659 5.64501 1.59474
96 2 40.0472 6.25518 -1.5321 40.0472 6.25518 -1.5321
97 1 41.0662 4.29385 -0.19939 41.0662 4.29385 -0.19939
98 2 42.7292 4.23885 1.62068 42.7292 4.23885 1.62068
99 2 43.0088 4.41517 -1.62403 43.0088 4.41517 -1.62403
100 1 43.8271 5.98546 0.193877 43.8271 5.98546 0.193877
101 2 45.5188 5.90257 1.9638 45.5188 5.90257 1.9638
102 2 45.9329 6.05102 -1.19429 45.9329 6.05102 -1.19429
103 1 46.7132 4.36647 0.379869 46.7132 4.36647 0.379869
104 2 48.4191 4.28976 2.27201 48.4191 4.28976 2.27201
105 2 48.7454 4.46019 -1.02186 48.7454 4.46019 -1.02186
106 1 49.5522 6.00266 0.798445 49.5522 6.00266 0.798445
107 2 51.6058 6.14892 2.32254 51.6058 6.14892 2.32254
108 2 51.4639 5.9561 -0.910174 51.4639 5.9561 -0.910174
109 1 1.14411 7.63625 0.602077 1.14411 7.63625 0.602077
110 2 3.12715 7.43083 2.03643 3.12715 7.43083 2.03643
111 2 3.00964 7.63164 -1.20032 3.00964 7.63164 -1.20032
112 1 4.06482 9.22847 0.425665 4.06482 9.22847 0.425665
113 2 5.9346 9.13406 2.23118 5.9346 9.13406 2.23118
114 2 6.04616 9.27782 -1.05426 6.04616 9.27782 -1.05426
115 1 6.86147 7.60605 0.583967 6.86147 7.60605 0.583967
116 2 8.76428 7.68942 2.19837 8.76428 7.68942 2.19837
117 2 8.6577 7.62599 -1.13797 8.6577 7.62599 -1.13797
118 1 9.66923 9.25548 0.591067 9.66923 9.25548 0.591067
119 2 11.8591 9.22079 1.90568 11.8591 9.22079 1.90568
120 2 11.302 9.26509 -1.34568 11.302 9.26509 -1.34568
121 1 12.6089 7.66376 0.174157 12.6089 7.66376 0.174157
122 2 14.7304 7.68968 1.5041 14.7304 7.68968 1.5041
123 2 14.2752 7.75065 -1.66798 14.2752 7.75065 -1.66798
124 1 15.3154 9.38959 -0.176815 15.3154 9.38959 -0.176815
125 2 17.4658 9.25926 1.35988 17.4658 9.25926 1.35988
126 2 17.1385 9.32989 -1.94485 17.1385 9.32989 -1.94485
127 1 18.1804 7.62126 -0.42464 18.1804 7.62126 -0.42464
128 2 20.0598 7.75246 1.16552 20.0598 7.75246 1.16552
129 2 20.0555 7.67576 -2.06994 20.0555 7.67576 -2.06994
130 1 21.0714 9.24929 -0.516765 21.0714 9.24929 -0.516765
131 2 22.9742 8.94348 1.16659 22.9742 8.94348 1.16659
132 2 23.0542 9.38481 -2.02382 23.0542 9.38481 -2.02382
133 1 23.9505 7.57522 -0.576049 23.9505 7.57522 -0.576049
134 2 25.9193 7.46606 1.04853 25.9193 7.46606 1.04853
135 2 25.8625 7.52623 -2.28321 25.8625 7.52623 -2.28321
136 1 26.6801 9.21638 -0.667986 26.6801 9.21638 -0.667986
137 2 28.7459 9.16838 0.895565 28.7459 9.16838 0.895565
138 2 28.4524 9.29769 -2.46576 28.4524 9.29769 -2.46576
139 1 29.6916 7.52406 -0.97159 29.6916 7.52406 -0.97159
140 2 31.4068 7.65869 0.852792 31.4068 7.65869 0.852792
141 2 31.7579 7.45011 -2.36104 31.7579 7.45011 -2.36104
142 1 32.4845 9.21049 -0.772344 32.4845 9.21049 -0.772344
143 2 34.0733 9.2758 1.19437 34.0733 9.2758 1.19437
144 2 34.7375 9.07748 -2.0277 34.7375 9.07748 -2.0277
145 1 35.3185 7.61851 -0.194629 35.3185 7.61851 -0.194629
146 2 37.0154 7.57461 1.70758 37.0154 7.57461 1.70758
147 2 37.3818 7.6554 -1.59401 37.3818 7.6554 -1.59401
148 1 38.0512 9.30676 0.25127 38.0512 9.30676 0.25127
149 2 39.8629 9.20142 1.96339 39.8629 9.20142 1.96339
150 2 40.1077 9.30142 -1.37591 40.1077 9.30142 -1.37591
151 1 40.961 7.60054 0.345902 40.961 7.60054 0.345902
152 2 42.881 7.51618 1.96513 42.881 7.51618 1.96513
153 2 42.7255 7.67503 -1.37596 42.7255 7.67503 -1.37596
154 1 43.8578 9.34062 0.328807 43.8578 9.34062 0.328807
155 2 45.6634 9.24044 2.021 45.6634 9.24044 2.021
156 2 45.8036 9.17499 -1.15184 45.8036 9.17499 -1.15184
157 1 46.6793 7.63502 0.523789 46.6793 7.63502 0.523789
158 2 48.5214 7.70041 2.21718 48.5214 7.70041 2.21718
159 2 48.7396 7.5595 -1.01273 48.7396 7.5595 -1.01273
160 1 49.6213 9.26624 0.570915 49.6213 9.26624 0.570915
161 2 51.5571 9.30797 2.15981 51.5571 9.30797 2.15981
162 2 51.565 9.31475 -1.0681 51.565 9.31475 -1.0681
163 1 1.13156 10.9411 0.468554 1.13156 10.9411 0.468554
164 2 3.04572 10.9084 2.01084 3.04572 10.9084 2.01084
165 2 3.03242 10.854 -1.18363 3.03242 10.854 -1.18363
166 1 4.09678 12.5508 0.316347 4.09678 12.5508 0.316347
167 2 5.95917 12.6936 2.07368 5.95917 12.6936 2.07368
168 2 5.99811 12.4522 -1.22229 5.99811 12.4522 -1.22229
169 1 6.89025 10.9022 0.626972 6.89025 10.9022 0.626972
170 2 8.91731 10.9475 2.18199 8.91731 10.9475 2.18199
171 2 8.64571 10.8654 -1.10374 8.64571 10.8654 -1.10374
172 1 9.74306 12.5649 0.339413 9.74306 12.5649 0.339413
173 2 11.7989 12.8343 1.80265 11.7989 12.8343 1.80265
174 2 11.472 12.2896 -1.47798 11.472 12.2896 -1.47798
175 1 12.5427 10.9231 0.249148 12.5427 10.9231 0.249148
176 2 14.692 11.0649 1.55894 14.692 11.0649 1.55894
177 2 14.1005 10.8483 -1.70537 14.1005 10.8483 -1.70537
178 1 15.3267 12.5215 -0.38227 15.3267 12.5215 -0.38227
179 2 17.2335 12.4848 1.24928 17.2335 12.4848 1.24928
180 2 17.2274 12.4908 -2.06039 17.2274 12.4908 -2.06039
181 1 18.3032 10.9688 -0.332782 18.3032 10.9688 -0.332782
182 2 20.1678 10.8917 1.2182 20.1678 10.8917 1.2182
183 2 20.0331 10.9273 -2.06803 20.0331 10.9273 -2.06803
184 1 21.0788 12.4867 -0.416627 21.0788 12.4867 -0.416627
185 2 22.8038 12.6317 1.29778 22.8038 12.6317 1.29778
186 2 22.9399 12.4273 -1.98578 22.9399 12.4273 -1.98578
187 1 23.9145 10.8411 -0.203033 23.9145 10.8411 -0.203033
188 2 26.0558 10.8743 1.16372 26.0558 10.8743 1.16372
189 2 25.6209 10.9843 -2.09151 25.6209 10.9843 -2.09151
190 1 26.7723 12.5906 -0.504508 26.7723 12.5906 -0.504508
191 2 28.8802 12.5442 1.01055 28.8802 12.5442 1.01055
192 2 28.5896 12.5513 -2.41244 28.5896 12.5513 -2.41244
193 1 29.5269 10.8333 -0.831179 29.5269 10.8333 -0.831179
194 2 31.3748 10.8139 0.835037 31.3748 10.8139 0.835037
195 2 31.4693 10.8434 -2.39833 31.4693 10.8434 -2.39833
196 1 32.4248 12.5686 -0.76358 32.4248 12.5686 -0.76358
197 2 34.0928 12.672 1.11892 34.0928 12.672 1.11892
198 2 34.6416 12.503 -2.07654 34.6416 12.503 -2.07654
199 1 35.2874 10.9888 -0.239245 35.2874 10.9888 -0.239245
200 2 36.8483 11.1087 1.68973 36.8483 11.1087 1.68973
201 2 37.4029 10.8177 -1.55721 37.4029 10.8177 -1.55721
202 1 38.0437 12.6413 0.165539 38.0437 12.6413 0.165539
203 2 39.798 12.6254 1.92819 39.798 12.6254 1.92819
204 2 40.0819 12.6503 -1.27901 40.0819 12.6503 -1.27901
205 1 40.9179 10.8996 0.415501 40.9179 10.8996 0.415501
206 2 42.9081 10.8249 2.01741 42.9081 10.8249 2.01741
207 2 42.8645 11.0021 -1.23868 42.8645 11.0021 -1.23868
208 1 43.8294 12.6337 0.485893 43.8294 12.6337 0.485893
209 2 45.8608 12.4747 2.16095 45.8608 12.4747 2.16095
210 2 45.6863 12.6857 -1.08778 45.6863 12.6857 -1.08778
211 1 46.7619 10.9546 0.439985 46.7619 10.9546 0.439985
212 2 48.6332 10.905 2.16159 48.6332 10.905 2.16159
213 2 48.8305 10.9939 -1.13816 48.8305 10.9939 -1.13816
214 1 49.613 12.6286 0.527924 49.613 12.6286 0.527924
215 2 51.6058 12.4768 2.21298 51.6058 12.4768 2.21298
216 2 51.5333 12.5729 -1.14194 51.5333 12.5729 -1.14194
217 1 1.18045 14.1298 0.559896 1.18045 14.1298 0.559896
218 2 3.26494 14.1054 2.06931 3.26494 14.1054 2.06931
219 2 3.00232 14.1597 -1.18684 3.00232 14.1597 -1.18684
220 1 4.08719 15.8124 0.393522 4.08719 15.8124 0.393522
221 2 6.02635 15.8641 1.96659 6.02635 15.8641 1.96659
222 2 5.90449 15.8111 -1.30691 5.90449 15.8111 -1.30691
223 1 6.91034 14.2246 0.340535 6.91034 14.2246 0.340535
224 2 8.9396 14.402 1.87022 8.9396 14.402 1.87022
225 2 8.70711 13.9163 -1.40447 8.70711 13.9163 -1.40447
226 1 9.76184 15.7952 0.0219564 9.76184 15.7952 0.0219564
227 2 11.792 15.9257 1.48124 11.792 15.9257 1.48124
228 2 11.5421 15.6483 -1.78947 11.5421 15.6483 -1.78947
229 1 12.5247 14.146 -0.129073 12.5247 14.146 -0.129073
230 2 14.6365 14.2666 1.19165 14.6365 14.2666 1.19165
231 2 14.2485 13.9447 -2.01914 14.2485 13.9447 -2.01914
232 1 15.4457 15.8131 -0.615254 15.4457 15.8131 -0.615254
233 2 17.264 15.9359 1.05659 17.264 15.9359 1.05659
234 2 17.3463 15.8422 -2.13752 17.3463 15.8422 -2.13752
235 1 18.1932 14.1336 -0.425249 18.1932 14.1336 -0.425249
236 2 20.1668 14.2218 1.19834 20.1668 14.2218 1.19834
237 2 20.081 14.0792 -1.99386 20.081 14.0792 -1.99386
238 1 21.052 15.7647 -0.543516 21.052 15.7647 -0.543516
239 2 22.9421 16.0879 1.11285 22.9421 16.0879 1.11285
240 2 23.0103 15.6483 -2.16315 23.0103 15.6483 -2.16315
241 1 23.8511 14.2009 -0.409474 23.8511 14.2009 -0.409474
242 2 25.8228 14.1412 1.15808 25.8228 14.1412 1.15808
243 2 25.5912 14.0927 -2.06002 25.5912 14.0927 -2.06002
244 1 26.8162 15.7878 -0.53423 26.8162 15.7878 -0.53423
245 2 28.7902 15.7807 1.03301 28.7902 15.7807 1.03301
246 2 28.6689 15.8618 -2.26956 28.6689 15.8618 -2.26956
247 1 29.5916 14.2026 -0.770125 29.5916 14.2026 -0.770125
248 2 31.4205 14.0684 0.918967 31.4205 14.0684 0.918967
249 2 31.6075 14.4439 -2.3442 31.6075 14.4439 -2.3442
250 1 32.5016 15.8575 -0.487814 32.5016 15.8575 -0.487814
251 2 34.3034 15.9662 1.31655 34.3034 15.9662 1.31655
252 2 34.462 15.7808 -2.11517 34.462 15.7808 -2.11517
253 1 35.2761 14.2272 -0.331886 35.2761 14.2272 -0.331886
254 2 36.9864 14.4752 1.57402 36.9864 14.4752 1.57402
255 2 37.3522 13.9914 -1.71678 37.3522 13.9914 -1.71678
256 1 38.2244 15.9153 -0.126686 38.2244 15.9153 -0.126686
257 2 39.8815 16.2254 1.7534 39.8815 16.2254 1.7534
258 2 40.2186 15.7942 -1.54859 40.2186 15.7942 -1.54859
259 1 40.8922 14.3047 0.392419 40.8922 14.3047 0.392419
260 2 42.7997 14.3079 2.11866 42.7997 14.3079 2.11866
261 2 42.8865 14.1555 -1.21892 42.8865 14.1555 -1.21892
262 1 43.8548 15.8619 0.406469 43.8548 15.8619 0.406469
263 2 45.5956 16.002 2.09455 45.5956 16.002 2.09455
264 2 45.8191 15.7862 -1.15433 45.8191 15.7862 -1.15433
265 1 46.7661 14.3162 0.541479 46.7661 14.3162 0.541479
266 2 48.6981 14.314 2.08936 48.6981 14.314 2.08936
267 2 48.6227 14.1804 -1.07677 48.6227 14.1804 -1.07677
268 1 49.6136 15.8073 0.435714 49.6136 15.8073 0.435714
269 2 51.5288 15.7934 2.13312 51.5288 15.7934 2.13312
270 2 51.6351 15.7713 -1.07321 51.6351 15.7713 -1.07321
271 1 1.1817 17.4836 0.542558 1.1817 17.4836 0.542558
272 2 3.25031 17.5841 2.07583 3.25031 17.5841 2.07583
273 2 2.91269 17.4346 -1.15645 2.91269 17.4346 -1.15645
274 1 4.04171 19.1937 0.319157 4.04171 19.1937 0.319157
275 2 6.04407 19.213 1.81957 6.04407 19.213 1.81957
276 2 5.7949 19.1569 -1.35081 5.7949 19.1569 -1.35081
277 1 6.91236 17.4989 0.221832 6.91236 17.4989 0.221832
278 2 9.03575 17.6691 1.61563 9.03575 17.6691 1.61563
279 2 8.67319 17.4458 -1.65674 8.67319 17.4458 -1.65674
280 1 9.84901 19.1557 -0.270832 9.84901 19.1557 -0.270832
281 2 11.8933 19.153 1.24024 11.8933 19.153 1.24024
282 2 11.6344 19.2065 -1.972 11.6344 19.2065 -1.972
283 1 12.7036 17.52 -0.455765 12.7036 17.52 -0.455765
284 2 14.6183 17.4726 1.13684 14.6183 17.4726 1.13684
285 2 14.4582 17.6475 -2.21328 14.4582 17.6475 -2.21328
286 1 15.4965 19.1824 -0.493676 15.4965 19.1824 -0.493676
287 2 17.3411 19.2175 1.08523 17.3411 19.2175 1.08523
288 2 17.3426 19.1634 -2.16371 17.3426 19.1634 -2.16371
289 1 18.2773 17.56 -0.555802 18.2773 17.56 -0.555802
290 2 20.1154 17.2887 1.1215 20.1154 17.2887 1.1215
291 2 20.2448 17.4825 -2.08285 20.2448 17.4825 -2.08285
292 1 21.1027 19.0594 -0.409103 21.1027 19.0594 -0.409103
293 2 23.0329 18.984 1.12268 23.0329 18.984 1.12268
294 2 22.9029 19.2462 -2.13572 22.9029 19.2462 -2.13572
295 1 23.9328 17.4463 -0.69293 23.9328 17.4463 -0.69293
296 2 25.6948 17.3458 1.10919 25.6948 17.3458 1.10919
297 2 25.952 17.6019 -2.18297 25.952 17.6019 -2.18297
298 1 26.7463 19.117 -0.424842 26.7463 19.117 -0.424842
299 2 28.7708 19.0433 1.10762 28.7708 19.0433 1.10762
300 2 28.5949 19.3208 -2.1789 28.5949 19.3208 -2.1789
301 1 29.672 17.4972 -0.635309 29.672 17.4972 -0.635309
302 2 31.457 17.5214 1.02884 31.457 17.5214 1.02884
303 2 31.6004 17.5072 -2.30998 31.6004 17.5072 -2.30998
304 1 32.4638 19.1501 -0.512687 32.4638 19.1501 -0.512687
305 2 34.3991 19.143 1.05704 34.3991 19.143 1.05704
306 2 34.4436 19.0535 -2.13728 34.4436 19.0535 -2.13728
307 1 35.3949 17.4523 -0.456286 35.3949 17.4523 -0.456286
308 2 37.048 17.5303 1.49778 37.048 17.5303 1.49778
309 2 37.3954 17.5341 -1.88447 37.3954 17.5341 -1.88447
310 1 38.1006 19.2404 -0.169914 38.1006 19.2404 -0.169914
311 2 39.9929 19.3565 1.55262 39.9929 19.3565 1.55262
312 2 40.1309 19.1254 -1.74238 40.1309 19.1254 -1.74238
313 1 40.9431 17.559 -0.00620912 40.9431 17.559 -0.00620912
314 2 42.7455 17.7235 1.80488 42.7455 17.7235 1.80488
315 2 43.0528 17.4706 -1.372 43.0528 17.4706 -1.372
316 1 43.8885 19.1315 0.184664 43.8885 19.1315 0.184664
317 2 45.6828 19.2612 1.88817 45.6828 19.2612 1.88817
318 2 45.7501 18.8831 -1.41787 45.7501 18.8831 -1.41787
319 1 46.7778 17.5333 0.432625 46.7778 17.5333 0.432625
320 2 48.6428 17.5418 2.04996 48.6428 17.5418 2.04996
321 2 48.645 17.4521 -1.24511 48.645 17.4521 -1.24511
322 1 49.691 19.1283 0.329223 49.691 19.1283 0.329223
323 2 51.5968 19.3115 1.95716 51.5968 19.3115 1.95716
324 2 51.5535 18.934 -1.39099 51.5535 18.934 -1.39099
325 1 1.1386 20.7846 0.0102103 1.1386 20.7846 0.0102103
326 2 3.03733 20.9232 1.71237 3.03733 20.9232 1.71237
327 2 3.06567 20.5454 -1.48063 3.06567 20.5454 -1.48063
328 1 4.06647 22.4404 -0.155377 4.06647 22.4404 -0.155377
329 2 5.88648 22.5337 1.57464 5.88648 22.5337 1.57464
330 2 6.03605 22.2994 -1.64328 6.03605 22.2994 -1.64328
331 1 6.9481 20.8061 0.154144 6.9481 20.8061 0.154144
332 2 8.97971 20.7565 1.51904 8.97971 20.7565 1.51904
333 2 8.68594 20.7432 -1.76961 8.68594 20.7432 -1.76961
334 1 9.6748 22.4644 -0.210649 9.6748 22.4644 -0.210649
335 2 11.7654 22.3784 1.36055 11.7654 22.3784 1.36055
336 2 11.539 22.8037 -1.8657 11.539 22.8037 -1.8657
337 1 12.6783 20.933 -0.483681 12.6783 20.933 -0.483681
338 2 14.5107 20.9367 1.09758 14.5107 20.9367 1.09758
339 2 14.5606 21.0007 -2.19815 14.5606 21.0007 -2.19815
340 1 15.4298 22.5358 -0.496585 15.4298 22.5358 -0.496585
341 2 17.376 22.5168 1.07378 17.376 22.5168 1.07378
342 2 17.2207 22.4935 -2.17407 17.2207 22.4935 -2.17407
343 1 18.2485 20.841 -0.593989 18.2485 20.841 -0.593989
344 2 20.1109 20.8285 1.15551 20.1109 20.8285 1.15551
345 2 20.2803 20.8102 -2.12984 20.2803 20.8102 -2.12984
346 1 21.1984 22.466 -0.409336 21.1984 22.466 -0.409336
347 2 23.178 22.5405 1.14889 23.178 22.5405 1.14889
348 2 22.9681 22.3558 -2.08075 22.9681 22.3558 -2.08075
349 1 23.8851 20.7699 -0.436078 23.8851 20.7699 -0.436078
350 2 25.8663 21.0049 1.1606 25.8663 21.0049 1.1606
351 2 25.7269 20.7782 -2.0679 25.7269 20.7782 -2.0679
352 1 26.8102 22.4061 -0.536337 26.8102 22.4061 -0.536337
353 2 28.7116 22.5292 1.12332 28.7116 22.5292 1.12332
354 2 28.8066 22.4877 -2.05548 28.8066 22.4877 -2.05548
355 1 29.6176 20.8632 -0.494387 29.6176 20.8632 -0.494387
356 2 31.4593 20.9121 1.08536 31.4593 20.9121 1.08536
357 2 31.5942 20.7609 -2.18856 31.5942 20.7609 -2.18856
358 1 32.5994 22.4978 -0.665431 32.5994 22.4978 -0.665431
359 2 34.3907 22.3938 1.08503 34.3907 22.3938 1.08503
360 2 34.463 22.644 -2.27685 34.463 22.644 -2.27685
361 1 35.3466 20.8583 -0.668143 35.3466 20.8583 -0.668143
362 2 36.9987 20.7734 1.28265 36.9987 20.7734 1.28265
363 2 37.3847 20.8359 -1.84581 37.3847 20.8359 -1.84581
364 1 38.1845 22.4789 -0.160713 38.1845 22.4789 -0.160713
365 2 40.0549 22.5303 1.5085 40.0549 22.5303 1.5085
366 2 40.1113 22.4391 -1.79178 40.1113 22.4391 -1.79178
367 1 41.0026 20.8769 -0.147997 41.0026 20.8769 -0.147997
368 2 42.6737 20.8494 1.6924 42.6737 20.8494 1.6924
369 2 43.089 20.8228 -1.55867 43.089 20.8228 -1.55867
370 1 43.8775 22.3888 0.243335 43.8775 22.3888 0.243335
371 2 45.853 22.3958 1.7796 45.853 22.3958 1.7796
372 2 45.8379 22.5078 -1.38994 45.8379 22.5078 -1.38994
373 1 46.7142 20.7696 0.150158 46.7142 20.7696 0.150158
374 2 48.6704 21.0005 1.84311 48.6704 21.0005 1.84311
375 2 48.6543 20.6565 -1.45594 48.6543 20.6565 -1.45594
376 1 49.6119 22.4374 0.0191263 49.6119 22.4374 0.0191263
377 2 51.4368 22.4405 1.68164 51.4368 22.4405 1.68164
378 2 51.4809 22.5017 -1.55156 51.4809 22.5017 -1.55156
379 1 1.14183 24.0523 0.175183 1.14183 24.0523 0.175183
380 2 3.05559 23.8697 1.72776 3.05559 23.8697 1.72776
381 2 3.00426 24.2458 -1.61612 3.00426 24.2458 -1.61612
382 1 4.02163 25.7584 0.137815 4.02163 25.7584 0.137815
383 2 6.19868 25.8161 1.63599 6.19868 25.8161 1.63599
384 2 5.8857 25.8275 -1.64401 5.8857 25.8275 -1.64401
385 1 6.89413 24.0952 -0.0885697 6.89413 24.0952 -0.0885697
386 2 8.85174 24.0678 1.48592 8.85174 24.0678 1.48592
387 2 8.82069 24.2598 -1.74933 8.82069 24.2598 -1.74933
388 1 9.67989 25.7906 -0.0832176 9.67989 25.7906 -0.0832176
389 2 11.4873 25.7079 1.52756 11.4873 25.7079 1.52756
390 2 11.5289 25.8788 -1.75398 11.5289 25.8788 -1.75398
391 1 12.5442 24.1523 -0.186445 12.5442 24.1523 -0.186445
392 2 14.5761 24.0757 1.35736 14.5761 24.0757 1.35736
393 2 14.4427 24.2879 -1.93774 14.4427 24.2879 -1.93774
394 1 15.5218 25.7832 -0.247244 15.5218 25.7832 -0.247244
395 2 17.5416 25.6857 1.13043 17.5416 25.6857 1.13043
396 2 17.1092 25.7849 -2.08317 17.1092 25.7849 -2.08317
397 1 18.2623 24.0169 -0.571871 18.2623 24.0169 -0.571871
398 2 20.0221 24.1123 1.23677 20.0221 24.1123 1.23677
399 2 20.3 24.1022 -2.06691 20.3 24.1022 -2.06691
400 1 21.1839 25.7025 -0.354286 21.1839 25.7025 -0.354286
401 2 23.0658 25.5551 1.25729 23.0658 25.5551 1.25729
402 2 22.996 25.7354 -2.09767 22.996 25.7354 -2.09767
403 1 24.01 24.0808 -0.561695 24.01 24.0808 -0.561695
404 2 25.9076 24.191 1.09156 25.9076 24.191 1.09156
405 2 25.901 24.0414 -2.10637 25.901 24.0414 -2.10637
406 1 26.8834 25.766 -0.505794 26.8834 25.766 -0.505794
407 2 28.6484 25.8821 1.17632 28.6484 25.8821 1.17632
408 2 28.818 25.7393 -2.02855 28.818 25.7393 -2.02855
409 1 29.7111 24.0763 -0.384927 29.7111 24.0763 -0.384927
410 2 31.6415 23.9585 1.15213 31.6415 23.9585 1.15213
411 2 31.5439 24.2766 -2.07752 31.5439 24.2766 -2.07752
412 1 32.5143 25.7558 -0.31198 32.5143 25.7558 -0.31198
413 2 34.3848 25.6922 1.32017 34.3848 25.6922 1.32017
414 2 34.5333 25.9526 -1.96168 34.5333 25.9526 -1.96168
415 1 35.4309 24.173 -0.467533 35.4309 24.173 -0.467533
416 2 37.1265 24.2811 1.32719 37.1265 24.2811 1.32719
417 2 37.3262 24.1139 -1.95658 37.3262 24.1139 -1.95658
418 1 38.1641 25.7463 -0.347302 38.1641 25.7463 -0.347302
419 2 40.0164 25.5764 1.40918 40.0164 25.5764 1.40918
420 2 40.1627 25.6423 -1.80847 40.1627 25.6423 -1.80847
421 1 41.0175 24.0664 -0.156498 41.0175 24.0664 -0.156498
422 2 42.7262 24.0699 1.69917 42.7262 24.0699 1.69917
423 2 43.052 24.0195 -1.57178 43.052 24.0195 -1.57178
424 1 43.9166 25.7468 0.0825432 43.9166 25.7468 0.0825432
425 2 46.0549 26.0477 1.56976 46.0549 26.0477 1.56976
426 2 45.6574 25.4657 -1.63016 45.6574 25.4657 -1.63016
427 1 46.8583 24.1551 0.127706 46.8583 24.1551 0.127706
428 2 48.8468 24.0669 1.69458 48.8468 24.0669 1.69458
429 2 48.5476 24.0293 -1.53547 48.5476 24.0293 -1.53547
430 1 49.6784 25.7696 0.00848685 49.6784 25.7696 0.00848685
431 2 51.606 25.8637 1.61033 51.606 25.8637 1.61033
432 2 51.5443 25.617 -1.71018 51.5443 25.617 -1.71018
433 1 1.13244 27.4293 -0.267303 1.13244 27.4293 -0.267303
434 2 2.90602 27.4833 1.55502 2.90602 27.4833 1.55502
435 2 3.18483 27.2582 -1.59803 3.18483 27.2582 -1.59803
436 1 4.12345 29.1078 -0.050106 4.12345 29.1078 -0.050106
437 2 6.06204 29.0982 1.59471 6.06204 29.0982 1.59471
438 2 6.00002 29.0814 -1.68085 6.00002 29.0814 -1.68085
439 1 6.95895 27.4965 -0.0694615 6.95895 27.4965 -0.0694615
440 2 8.89032 27.4813 1.59459 8.89032 27.4813 1.59459
441 2 8.80611 27.5225 -1.71187 8.80611 27.5225 -1.71187
442 1 9.76977 29.1297 -0.037645 9.76977 29.1297 -0.037645
443 2 11.783 29.2493 1.44073 11.783 29.2493 1.44073
444 2 11.5901 28.9357 -1.77529 11.5901 28.9357 -1.77529
445 1 12.5596 27.3978 -0.0869225 12.5596 27.3978 -0.0869225
446 2 14.6405 27.4879 1.42248 14.6405 27.4879 1.42248
447 2 14.3425 27.3597 -1.82161 14.3425 27.3597 -1.82161
448 1 15.4255 29.0287 -0.294705 15.4255 29.0287 -0.294705
449 2 17.4754 29.0034 1.19761 17.4754 29.0034 1.19761
450 2 17.121 29.0693 -2.0839 17.121 29.0693 -2.0839
451 1 18.274 27.4519 -0.575718 18.274 27.4519 -0.575718
452 2 20.0671 27.4193 1.21345 20.0671 27.4193 1.21345
453 2 20.2817 27.4086 -2.0854 20.2817 27.4086 -2.0854
454 1 21.1015 29.0167 -0.400296 21.1015 29.0167 -0.400296
455 2 23.0249 29.017 1.1262 23.0249 29.017 1.1262
456 2 23.0525 28.8972 -2.05085 23.0525 28.8972 -2.05085
457 1 23.9659 27.3275 -0.321204 23.9659 27.3275 -0.321204
458 2 25.995 27.3882 1.08089 25.995 27.3882 1.08089
459 2 25.7299 27.2711 -2.09038 25.7299 27.2711 -2.09038
460 1 26.7327 29.0045 -0.536948 26.7327 29.0045 -0.536948
461 2 28.5687 28.9584 1.18979 28.5687 28.9584 1.18979
462 2 28.6745 29.2261 -2.0437 28.6745 29.2261 -2.0437
463 1 29.6154 27.4817 -0.487247 29.6154 27.4817 -0.487247
464 2 31.3197 27.2812 1.27765 31.3197 27.2812 1.27765
465 2 31.6142 27.5338 -1.98295 31.6142 27.5338 -1.98295
466 1 32.4854 29.0486 -0.201313 32.4854 29.0486 -0.201313
467 2 34.3572 28.9412 1.51398 34.3572 28.9412 1.51398
468 2 34.4534 29.1594 -1.79847 34.4534 29.1594 -1.79847
469 1 35.389 27.4674 -0.152747 35.389 27.4674 -0.152747
470 2 37.2036 27.252 1.46363 37.2036 27.252 1.46363
471 2 37.264 27.59 -1.82 37.264 27.59 -1.82
472 1 38.2014 29.0052 -0.00378672 38.2014 29.0052 -0.00378672
473 2 40.2596 29.1043 1.47703 40.2596 29.1043 1.47703
474 2 40.0427 28.9264 -1.83272 40.0427 28.9264 -1.83272
475 1 41.0576 27.3612 -0.154595 41.0576 27.3612 -0.154595
476 2 43.0098 27.5359 1.50052 43.0098 27.5359 1.50052
477 2 42.9879 27.173 -1.75204 42.9879 27.173 -1.75204
478 1 43.9699 29.0857 -0.251176 43.9699 29.0857 -0.251176
479 2 45.9621 29.0912 1.37602 45.9621 29.0912 1.37602
480 2 45.8887 29.1801 -1.93743 45.8887 29.1801 -1.93743
481 1 46.7368 27.5371 -0.412877 46.7368 27.5371 -0.412877
482 2 48.5582 27.5819 1.23452 48.5582 27.5819 1.23452
483 2 48.8883 27.3242 -1.86888 48.8883 27.3242 -1.86888
484 1 49.6789 29.1228 -0.379038 49.6789 29.1228 -0.379038
485 2 51.4114 29.0368 1.39287 51.4114 29.0368 1.39287
486 2 51.5698 29.2188 -1.93822 51.5698 29.2188 -1.93822
487 1 1.10675 30.7669 -0.155653 1.10675 30.7669 -0.155653
488 2 3.03539 30.7179 1.58358 3.03539 30.7179 1.58358
489 2 3.13952 30.6764 -1.73351 3.13952 30.6764 -1.73351
490 1 4.08852 32.3827 0.0325663 4.08852 32.3827 0.0325663
491 2 6.17193 32.5113 1.51746 6.17193 32.5113 1.51746
492 2 5.94398 32.1756 -1.68448 5.94398 32.1756 -1.68448
493 1 6.98372 30.8165 -0.0220829 6.98372 30.8165 -0.0220829
494 2 9.00623 30.9681 1.4919 9.00623 30.9681 1.4919
495 2 8.76307 30.678 -1.79392 8.76307 30.678 -1.79392
496 1 9.78826 32.4087 -0.374516 9.78826 32.4087 -0.374516
497 2 11.7079 32.4209 1.20596 11.7079 32.4209 1.20596
498 2 11.5727 32.276 -2.01435 11.5727 32.276 -2.01435
499 1 12.5657 30.7583 -0.396592 12.5657 30.7583 -0.396592
500 2 14.4494 30.6472 1.30135 14.4494 30.6472 1.30135
501 2 14.5294 30.7155 -1.97618 14.5294 30.7155 -1.97618
502 1 15.3898 32.3719 -0.275262 15.3898 32.3719 -0.275262
503 2 17.4804 32.417 1.18994 17.4804 32.417 1.18994
504 2 17.1802 32.3225 -2.10831 17.1802 32.3225 -2.10831
505 1 18.2219 30.7021 -0.478303 18.2219 30.7021 -0.478303
506 2 20.0378 30.787 1.1915 20.0378 30.787 1.1915
507 2 20.0933 30.5796 -2.09084 20.0933 30.5796 -2.09084
508 1 21.0551 32.3197 -0.603873 21.0551 32.3197 -0.603873
509 2 22.8046 32.0338 1.1003 22.8046 32.0338 1.1003
510 2 23.1122 32.4116 -2.12663 23.1122 32.4116 -2.12663
511 1 23.9451 30.6232 -0.593499 23.9451 30.6232 -0.593499
512 2 25.6848 30.5832 1.18756 25.6848 30.5832 1.18756
513 2 25.8885 30.9145 -2.1348 25.8885 30.9145 -2.1348
514 1 26.8044 32.356 -0.32618 26.8044 32.356 -0.32618
515 2 28.673 32.3476 1.43789 28.673 32.3476 1.43789
516 2 28.8134 32.487 -1.84914 28.8134 32.487 -1.84914
517 1 29.6713 30.6863 -0.207942 29.6713 30.6863 -0.207942
518 2 31.4612 30.6286 1.47287 31.4612 30.6286 1.47287
519 2 31.6319 30.8057 -1.76569 31.6319 30.8057 -1.76569
520 1 32.4101 32.3788 -0.00989887 32.4101 32.3788 -0.00989887
521 2 34.2952 32.3521 1.63616 34.2952 32.3521 1.63616
522 2 34.417 32.3259 -1.63086 34.417 32.3259 -1.63086
523 1 35.2887 30.6931 0.0186299 35.2887 30.6931 0.0186299
524 2 37.2731 30.8039 1.64798 37.2731 30.8039 1.64798
525 2 37.2696 30.5771 -1.59352 37.2696 30.5771 -1.59352
526 1 38.1822 32.3792 -0.0388563 38.1822 32.3792 -0.0388563
527 2 40.2076 32.4095 1.29131 40.2076 32.4095 1.29131
528 2 39.8905 32.1597 -1.94557 39.8905 32.1597 -1.94557
529 1 41.0705 30.667 -0.314738 41.0705 30.667 -0.314738
530 2 43.0319 30.6548 1.35509 43.0319 30.6548 1.35509
531 2 43.023 30.7531 -1.96718 43.023 30.7531 -1.96718
532 1 43.9391 32.3324 -0.306157 43.9391 32.3324 -0.306157
533 2 45.7408 32.2303 1.45702 45.7408 32.2303 1.45702
534 2 46.0091 32.3423 -1.84482 46.0091 32.3423 -1.84482
535 1 46.9014 30.7414 -0.211218 46.9014 30.7414 -0.211218
536 2 48.7492 30.735 1.39975 48.7492 30.735 1.39975
537 2 48.7398 30.8016 -1.90083 48.7398 30.8016 -1.90083
538 1 49.6408 32.4311 -0.177987 49.6408 32.4311 -0.177987
539 2 51.5507 32.4103 1.41605 51.5507 32.4103 1.41605