ITEM: TIMESTEP
37800
ITEM: NUMBER OF ATOMS
810
ITEM: BOX BOUNDS pp pp pp
8.4137701477268123e-01 5.2176227985227342e+01
8.0961581116522285e-01 5.0206599188834083e+01
-1.0000000000000000e+01 1.0000000000000000e+01
ITEM: ATOMS id type x y z xu yu zu
1 1 1.18271 0.807778 0.801734 1.18271 0.807778 0.801734
2 2 3.26195 0.701761 2.22083 3.26195 0.701761 2.22083
3 2 3.02041 1.02212 -0.968084 3.02041 1.02212 -0.968084
4 1 4.04431 2.5286 0.746183 4.04431 2.5286 0.746183
5 2 6.21741 2.61975 2.15309 6.21741 2.61975 2.15309
6 2 5.73818 2.34957 -1.03205 5.73818 2.34957 -1.03205
7 1 6.83239 0.756287 0.59129 6.83239 0.756287 0.59129
8 2 8.9175 50.2989 2.04566 8.9175 0.901944 2.04566
9 2 8.62424 0.708428 -1.12127 8.62424 0.708428 -1.12127
10 1 9.78969 2.52845 0.330883 9.78969 2.52845 0.330883
11 2 11.9814 2.62286 1.63322 11.9814 2.62286 1.63322
12 2 11.2802 2.32557 -1.63472 11.2802 2.32557 -1.63472
13 1 12.6225 0.839613 -0.0454438 12.6225 0.839613 -0.0454438
14 2 14.6083 50.1643 1.34464 14.6083 0.767275 1.34464
15 2 14.4453 0.938352 -1.91066 14.4453 0.938352 -1.91066
16 1 15.4432 2.43741 -0.191641 15.4432 2.43741 -0.191641
17 2 17.3761 2.53155 1.52361 17.3761 2.53155 1.52361
18 2 17.3956 2.62591 -1.74319 17.3956 2.62591 -1.74319
19 1 18.3431 0.956487 -0.198322 18.3431 0.956487 -0.198322
20 2 20.3711 0.976194 1.32736 20.3711 0.976194 1.32736
21 2 20.0448 1.24484 -1.94644 20.0448 1.24484 -1.94644
22 1 21.1775 2.65582 -0.247643 21.1775 2.65582 -0.247643
23 2 23.0741 2.51258 1.46248 23.0741 2.51258 1.46248
24 2 23.0556 2.78783 -1.76025 23.0556 2.78783 -1.76025
25 1 24.0457 0.854161 -0.23476 24.0457 0.854161 -0.23476
26 2 26.0114 50.2566 1.19418 26.0114 0.859638 1.19418
27 2 25.8755 1.19257 -2.04553 25.8755 1.19257 -2.04553
28 1 26.7376 2.64 -0.419159 26.7376 2.64 -0.419159
29 2 28.7945 2.6688 1.15685 28.7945 2.6688 1.15685
30 2 28.7439 2.51722 -2.05085 28.7439 2.51722 -2.05085
31 1 29.7796 0.987436 -0.451683 29.7796 0.987436 -0.451683
32 2 31.7865 0.917242 1.24152 31.7865 0.917242 1.24152
33 2 31.7183 1.15199 -2.06965 31.7183 1.15199 -2.06965
34 1 32.7043 2.66366 -0.329747 32.7043 2.66366 -0.329747
35 2 34.613 2.54016 1.37269 34.613 2.54016 1.37269
36 2 34.6911 2.73061 -1.91874 34.6911 2.73061 -1.91874
37 1 35.4901 0.982511 -0.390476 35.4901 0.982511 -0.390476
38 2 37.3519 0.820513 1.41516 37.3519 0.820513 1.41516
39 2 37.452 1.22685 -1.86069 37.452 1.22685 -1.86069
40 1 38.2981 2.66499 -0.0484434 38.2981 2.66499 -0.0484434
41 2 40.247 2.64113 1.50539 40.247 2.64113 1.50539
42 2 40.16 2.68496 -1.72399 40.16 2.68496 -1.72399
43 1 41.1587 0.931818 -0.131547 41.1587 0.931818 -0.131547
44 2 43.0609 50.2093 1.45437 43.0609 0.812322 1.45437
45 2 42.9567 1.15313 -1.81603 42.9567 1.15313 -1.81603
46 1 43.9938 2.58605 -0.0206418 43.9938 2.58605 -0.0206418
47 2 45.8305 2.41191 1.74268 45.8305 2.41191 1.74268
48 2 46.135 2.94949 -1.39585 46.135 2.94949 -1.39585
49 1 46.8981 1.07547 0.0390729 46.8981 1.07547 0.0390729
50 2 48.4678 50.0734 1.95599 48.4678 0.676442 1.95599
51 2 49.0034 1.25987 -1.32592 49.0034 1.25987 -1.32592
52 1 49.6684 2.5244 0.833971 49.6684 2.5244 0.833971
53 2 51.6106 2.48057 2.49849 51.6106 2.48057 2.49849
54 2 51.5615 2.58094 -0.835555 51.5615 2.58094 -0.835555
55 1 1.18607 4.10809 0.980176 1.18607 4.10809 0.980176
56 2 3.31813 4.19065 2.43342 3.31813 4.19065 2.43342
57 2 2.8976 4.24546 -0.810624 2.8976 4.24546 -0.810624
58 1 4.04329 5.84171 0.799351 4.04329 5.84171 0.799351
59 2 6.08828 5.75472 2.19201 6.08828 5.75472 2.19201
60 2 5.71281 5.80921 -1.03868 5.71281 5.80921 -1.03868
61 1 6.91504 4.18754 0.348672 6.91504 4.18754 0.348672
62 2 8.86295 4.38229 1.82923 8.86295 4.38229 1.82923
63 2 8.85082 4.1221 -1.39854 8.85082 4.1221 -1.39854
64 1 9.83968 5.79353 0.089751 9.83968 5.79353 0.089751
65 2 11.9979 5.78618 1.44342 11.9979 5.78618 1.44342
66 2 11.4684 5.93967 -1.72887 11.4684 5.93967 -1.72887
67 1 12.5567 4.07513 -0.286661 12.5567 4.07513 -0.286661
68 2 14.4684 4.10597 1.43909 14.4684 4.10597 1.43909
69 2 14.5576 4.21976 -1.83719 14.5576 4.21976 -1.83719
70 1 15.5156 5.80496 -0.188444 15.5156 5.80496 -0.188444
71 2 17.555 6.01095 1.36985 17.555 6.01095 1.36985
72 2 17.3349 5.7321 -1.7918 17.3349 5.7321 -1.7918
73 1 18.2959 4.2074 -0.19747 18.2959 4.2074 -0.19747
74 2 20.1716 4.12963 1.43313 20.1716 4.12963 1.43313
75 2 20.1476 4.31444 -1.80956 20.1476 4.31444 -1.80956
76 1 21.137 5.9068 -0.0474936 21.137 5.9068 -0.0474936
77 2 23.1471 6.0397 1.50093 23.1471 6.0397 1.50093
78 2 22.9363 5.71406 -1.8062 22.9363 5.71406 -1.8062
79 1 23.9887 4.27025 -0.0197193 23.9887 4.27025 -0.0197193
80 2 25.9326 4.12759 1.43305 25.9326 4.12759 1.43305
81 2 25.6538 4.35866 -1.8258 25.6538 4.35866 -1.8258
82 1 26.8992 5.91706 -0.174443 26.8992 5.91706 -0.174443
83 2 29.0478 5.93876 1.19439 29.0478 5.93876 1.19439
84 2 28.7085 5.96516 -1.99828 28.7085 5.96516 -1.99828
85 1 29.7513 4.26288 -0.488784 29.7513 4.26288 -0.488784
86 2 31.6949 4.34392 1.18678 31.6949 4.34392 1.18678
87 2 31.7337 4.35211 -2.04067 31.7337 4.35211 -2.04067
88 1 32.745 5.95818 -0.34219 32.745 5.95818 -0.34219
89 2 34.5781 5.88678 1.42858 34.5781 5.88678 1.42858
90 2 34.7114 5.96876 -1.89643 34.7114 5.96876 -1.89643
91 1 35.52 4.32173 -0.222522 35.52 4.32173 -0.222522
92 2 37.2317 4.32779 1.56222 37.2317 4.32779 1.56222
93 2 37.6049 4.3603 -1.69799 37.6049 4.3603 -1.69799
94 1 38.4052 5.91015 0.0897937 38.4052 5.91015 0.0897937
95 2 40.1945 5.7609 1.70033 40.1945 5.7609 1.70033
96 2 40.1271 6.08675 -1.65446 40.1271 6.08675 -1.65446
97 1 41.2495 4.33385 -0.131721 41.2495 4.33385 -0.131721
98 2 42.9397 4.11331 1.62743 42.9397 4.11331 1.62743
99 2 43.179 4.27747 -1.57928 43.179 4.27747 -1.57928
100 1 44.0045 5.9042 0.139228 44.0045 5.9042 0.139228
101 2 45.7981 5.96803 1.97118 45.7981 5.96803 1.97118
102 2 46.0909 6.00642 -1.24978 46.0909 6.00642 -1.24978
103 1 46.9156 4.33565 0.551411 46.9156 4.33565 0.551411
104 2 48.5324 4.15218 2.40733 48.5324 4.15218 2.40733
105 2 49.0108 4.4341 -0.738992 49.0108 4.4341 -0.738992
106 1 49.7494 5.93902 1.05635 49.7494 5.93902 1.05635
107 2 51.606 5.98159 2.62918 51.606 5.98159 2.62918
108 2 51.6373 5.74076 -0.67842 51.6373 5.74076 -0.67842
109 1 1.2638 7.37048 0.873543 1.2638 7.37048 0.873543
110 2 3.21896 7.51499 2.3907 3.21896 7.51499 2.3907
111 2 3.02993 7.47306 -0.863545 3.02993 7.47306 -0.863545
112 1 4.11226 9.13902 0.691995 4.11226 9.13902 0.691995
113 2 6.13697 8.91475 2.22501 6.13697 8.91475 2.22501
114 2 5.9363 9.15681 -1.06309 5.9363 9.15681 -1.06309
115 1 7.00825 7.43914 0.441782 7.00825 7.43914 0.441782
116 2 9.07445 7.3424 1.8054 9.07445 7.3424 1.8054
117 2 8.6355 7.44727 -1.40511 8.6355 7.44727 -1.40511
118 1 9.79545 9.06621 0.107885 9.79545 9.06621 0.107885
119 2 11.8733 9.05885 1.53353 11.8733 9.05885 1.53353
120 2 11.5297 9.10381 -1.73043 11.5297 9.10381 -1.73043
121 1 12.7388 7.51617 -0.26762 12.7388 7.51617 -0.26762
122 2 14.4869 7.51953 1.35717 14.4869 7.51953 1.35717
123 2 14.5558 7.28164 -1.93237 14.5558 7.28164 -1.93237
124 1 15.467 9.07459 -0.325846 15.467 9.07459 -0.325846
125 2 17.4478 9.20102 1.22765 17.4478 9.20102 1.22765
126 2 17.2392 9.00376 -2.01659 17.2392 9.00376 -2.01659
127 1 18.3693 7.616 -0.46845 18.3693 7.616 -0.46845
128 2 20.1487 7.8147 1.23118 20.1487 7.8147 1.23118
129 2 20.2617 7.31668 -2.00484 20.2617 7.31668 -2.00484
130 1 21.2031 9.18456 -0.529696 21.2031 9.18456 -0.529696
131 2 23.1737 9.35706 1.09258 23.1737 9.35706 1.09258
132 2 22.9812 8.90374 -2.1121 22.9812 8.90374 -2.1121
133 1 24.0539 7.55296 -0.353908 24.0539 7.55296 -0.353908
134 2 25.9352 7.66591 1.25036 25.9352 7.66591 1.25036
135 2 25.9054 7.3646 -1.97225 25.9054 7.3646 -1.97225
136 1 26.8497 9.17225 -0.623161 26.8497 9.17225 -0.623161
137 2 28.7318 9.1412 1.01043 28.7318 9.1412 1.01043
138 2 28.7568 9.11582 -2.21146 28.7568 9.11582 -2.21146
139 1 29.8448 7.52837 -0.542535 29.8448 7.52837 -0.542535
140 2 31.5286 7.47204 1.37109 31.5286 7.47204 1.37109
141 2 31.875 7.7989 -1.94831 31.875 7.7989 -1.94831
142 1 32.6821 9.24925 0.058886 32.6821 9.24925 0.058886
143 2 34.7148 9.13441 1.50232 34.7148 9.13441 1.50232
144 2 34.5489 9.23475 -1.76418 34.5489 9.23475 -1.76418
145 1 35.5489 7.53209 -0.135433 35.5489 7.53209 -0.135433
146 2 37.358 7.69188 1.62081 37.358 7.69188 1.62081
147 2 37.3872 7.47344 -1.67867 37.3872 7.47344 -1.67867
148 1 38.4253 9.23618 -0.0655962 38.4253 9.23618 -0.0655962
149 2 40.134 9.17135 1.68316 40.134 9.17135 1.68316
150 2 40.4528 9.31817 -1.5927 40.4528 9.31817 -1.5927
151 1 41.1783 7.56014 0.0683953 41.1783 7.56014 0.0683953
152 2 43.0097 7.57902 1.80505 43.0097 7.57902 1.80505
153 2 43.1595 7.64826 -1.47378 43.1595 7.64826 -1.47378
154 1 44.0809 9.25384 0.267807 44.0809 9.25384 0.267807
155 2 45.7746 9.37538 2.13133 45.7746 9.37538 2.13133
156 2 46.0907 9.21364 -1.21375 46.0907 9.21364 -1.21375
157 1 46.8961 7.63626 0.540281 46.8961 7.63626 0.540281
158 2 48.6084 7.75176 2.46687 48.6084 7.75176 2.46687
159 2 48.8729 7.47837 -0.748253 48.8729 7.47837 -0.748253
160 1 49.7658 9.22707 0.770338 49.7658 9.22707 0.770338
161 2 51.5799 9.26331 2.32592 51.5799 9.26331 2.32592
162 2 51.6819 8.91756 -0.839439 51.6819 8.91756 -0.839439
163 1 1.22646 10.732 0.6105 1.22646 10.732 0.6105
164 2 3.12191 10.722 2.30133 3.12191 10.722 2.30133
165 2 3.21348 10.721 -0.89673 3.21348 10.721 -0.89673
166 1 4.03792 12.4105 0.825448 4.03792 12.4105 0.825448
167 2 6.20511 12.3542 2.34006 6.20511 12.3542 2.34006
168 2 5.81427 12.3136 -0.913537 5.81427 12.3136 -0.913537
169 1 6.90146 10.6962 0.625323 6.90146 10.6962 0.625323
170 2 9.04541 10.5558 2.01189 9.04541 10.5558 2.01189
171 2 8.62877 11.029 -1.19233 8.62877 11.029 -1.19233
172 1 9.81274 12.3555 0.557187 9.81274 12.3555 0.557187
173 2 12.0971 12.5251 1.6347 12.0971 12.5251 1.6347
174 2 11.2373 12.4245 -1.49812 11.2373 12.4245 -1.49812
175 1 12.5741 10.7599 -0.157092 12.5741 10.7599 -0.157092
176 2 14.6132 10.8163 1.24274 14.6132 10.8163 1.24274
177 2 14.3597 10.6745 -1.92434 14.3597 10.6745 -1.92434
178 1 15.4947 12.3868 -0.56633 15.4947 12.3868 -0.56633
179 2 17.4492 12.5819 0.944202 17.4492 12.5819 0.944202
180 2 17.289 12.3039 -2.29551 17.289 12.3039 -2.29551
181 1 18.3191 10.7803 -0.526198 18.3191 10.7803 -0.526198
182 2 20.3915 10.9999 0.967482 20.3915 10.9999 0.967482
183 2 20.171 10.5805 -2.21463 20.171 10.5805 -2.21463
184 1 21.1313 12.4405 -0.839297 21.1313 12.4405 -0.839297
185 2 23.0432 12.5647 0.950159 23.0432 12.5647 0.950159
186 2 23.086 12.3912 -2.43358 23.086 12.3912 -2.43358
187 1 24.0173 10.8333 -0.734025 24.0173 10.8333 -0.734025
188 2 25.858 11.0041 0.890706 25.858 11.0041 0.890706
189 2 25.8509 10.7696 -2.30351 25.8509 10.7696 -2.30351
190 1 26.9313 12.4858 -0.776911 26.9313 12.4858 -0.776911
191 2 28.6367 12.4101 1.04678 28.6367 12.4101 1.04678
192 2 28.995 12.6242 -2.19056 28.995 12.6242 -2.19056
193 1 29.726 10.7614 -0.622984 29.726 10.7614 -0.622984
194 2 31.3636 10.9685 1.29554 31.3636 10.9685 1.29554
195 2 31.9532 10.6881 -1.73301 31.9532 10.6881 -1.73301
196 1 32.584 12.4749 -0.153364 32.584 12.4749 -0.153364
197 2 34.4357 12.2482 1.53226 34.4357 12.2482 1.53226
198 2 34.5378 12.6278 -1.64303 34.5378 12.6278 -1.64303
199 1 35.5194 10.8481 -0.283632 35.5194 10.8481 -0.283632
200 2 37.3125 10.8032 1.66359 37.3125 10.8032 1.66359
201 2 37.7264 10.9348 -1.57852 37.7264 10.9348 -1.57852
202 1 38.3811 12.53 0.273232 38.3811 12.53 0.273232
203 2 40.2741 12.3724 1.97813 40.2741 12.3724 1.97813
204 2 40.2211 12.7478 -1.30818 40.2211 12.7478 -1.30818
205 1 41.1739 10.8898 0.115361 41.1739 10.8898 0.115361
206 2 43.0923 10.8885 1.86794 43.0923 10.8885 1.86794
207 2 43.1764 10.9626 -1.34424 43.1764 10.9626 -1.34424
208 1 43.9856 12.5557 0.345904 43.9856 12.5557 0.345904
209 2 45.8642 12.4104 2.06783 45.8642 12.4104 2.06783
210 2 46.0691 12.6959 -1.1052 46.0691 12.6959 -1.1052
211 1 46.8641 10.9061 0.437817 46.8641 10.9061 0.437817
212 2 48.6571 10.9039 2.23044 48.6571 10.9039 2.23044
213 2 48.875 10.628 -1.08103 48.875 10.628 -1.08103
214 1 49.673 12.5081 0.528129 49.673 12.5081 0.528129
215 2 51.4786 12.3326 2.27343 51.4786 12.3326 2.27343
216 2 51.7239 12.4248 -0.976366 51.7239 12.4248 -0.976366
217 1 1.19791 14.0594 0.733412 1.19791 14.0594 0.733412
218 2 3.03673 14.2281 2.25473 3.03673 14.2281 2.25473
219 2 3.04012 13.9053 -0.979388 3.04012 13.9053 -0.979388
220 1 4.05157 15.7389 0.411737 4.05157 15.7389 0.411737
221 2 6.03299 15.947 1.90853 6.03299 15.947 1.90853
222 2 5.87508 15.4125 -1.31148 5.87508 15.4125 -1.31148
223 1 6.88788 14.0255 0.573027 6.88788 14.0255 0.573027
224 2 8.90712 14.1995 1.96002 8.90712 14.1995 1.96002
225 2 8.65996 13.8723 -1.24593 8.65996 13.8723 -1.24593
226 1 9.7579 15.6251 0.11745 9.7579 15.6251 0.11745
227 2 11.8812 15.6607 1.48274 11.8812 15.6607 1.48274
228 2 11.4129 15.6919 -1.82789 11.4129 15.6919 -1.82789
229 1 12.5717 14.0551 -0.28319 12.5717 14.0551 -0.28319
230 2 14.6593 14.237 1.08426 14.6593 14.237 1.08426
231 2 14.3402 14.0073 -2.11601 14.3402 14.0073 -2.11601
232 1 15.462 15.8159 -0.724673 15.462 15.8159 -0.724673
233 2 17.3594 15.6511 0.866294 17.3594 15.6511 0.866294
234 2 17.2665 15.8818 -2.3555 17.2665 15.8818 -2.3555
235 1 18.2663 14.1479 -0.796547 18.2663 14.1479 -0.796547
236 2 20.1062 14.0497 0.901146 20.1062 14.0497 0.901146
237 2 20.2155 14.1302 -2.40064 20.2155 14.1302 -2.40064
238 1 21.1363 15.7593 -0.724472 21.1363 15.7593 -0.724472
239 2 23.0134 15.745 0.977848 23.0134 15.745 0.977848
240 2 23.0059 15.9133 -2.32877 23.0059 15.9133 -2.32877
241 1 23.9978 14.1414 -0.777991 23.9978 14.1414 -0.777991
242 2 25.8573 13.9735 0.937459 25.8573 13.9735 0.937459
243 2 25.9687 14.2209 -2.35787 25.9687 14.2209 -2.35787
244 1 26.8285 15.6537 -0.54325 26.8285 15.6537 -0.54325
245 2 28.5409 15.465 1.31811 28.5409 15.465 1.31811
246 2 28.8767 15.9076 -1.92393 28.8767 15.9076 -1.92393
247 1 29.7451 14.1074 -0.362396 29.7451 14.1074 -0.362396
248 2 31.5489 13.9706 1.47329 31.5489 13.9706 1.47329
249 2 31.8023 14.0635 -1.78288 31.8023 14.0635 -1.78288
250 1 32.6151 15.6803 0.0198876 32.6151 15.6803 0.0198876
251 2 34.3251 15.6781 1.82869 34.3251 15.6781 1.82869
252 2 34.6781 15.9123 -1.4123 34.6781 15.9123 -1.4123
253 1 35.4154 14.1267 0.240718 35.4154 14.1267 0.240718
254 2 37.272 13.9556 1.90302 37.272 13.9556 1.90302
255 2 37.387 14.2499 -1.31545 37.387 14.2499 -1.31545
256 1 38.3251 15.7653 0.398287 38.3251 15.7653 0.398287
257 2 40.1446 15.6563 2.11924 40.1446 15.6563 2.11924
258 2 40.2153 15.966 -1.15402 40.2153 15.966 -1.15402
259 1 41.2145 14.2359 0.421525 41.2145 14.2359 0.421525
260 2 43.0244 14.1971 2.06374 43.0244 14.1971 2.06374
261 2 43.0778 14.2435 -1.21416 43.0778 14.2435 -1.21416
262 1 44.0037 15.8953 0.366723 44.0037 15.8953 0.366723
263 2 45.7934 16.001 2.16403 45.7934 16.001 2.16403
264 2 46.2157 15.6718 -1.11965 46.2157 15.6718 -1.11965
265 1 46.865 14.1589 0.684107 46.865 14.1589 0.684107
266 2 48.7112 14.0134 2.37101 48.7112 14.0134 2.37101
267 2 48.7405 14.2236 -0.946327 48.7405 14.2236 -0.946327
268 1 49.7655 15.8094 0.825972 49.7655 15.8094 0.825972
269 2 51.8692 15.9833 2.31836 51.8692 15.9833 2.31836
270 2 51.4902 15.587 -0.974577 51.4902 15.587 -0.974577
271 1 1.25951 17.4247 0.369042 1.25951 17.4247 0.369042
272 2 3.23048 17.6265 1.86313 3.23048 17.6265 1.86313
273 2 3.05181 17.1527 -1.3644 3.05181 17.1527 -1.3644
274 1 4.07974 19.0911 -0.0268732 4.07974 19.0911 -0.0268732
275 2 6.01644 19.0754 1.57673 6.01644 19.0754 1.57673
276 2 5.86527 18.9181 -1.67737 5.86527 18.9181 -1.67737
277 1 6.8294 17.2545 0.00272777 6.8294 17.2545 0.00272777
278 2 8.77839 17.3953 1.58917 8.77839 17.3953 1.58917
279 2 8.85347 17.1377 -1.59624 8.85347 17.1377 -1.59624
280 1 9.77945 18.9413 -0.183038 9.77945 18.9413 -0.183038
281 2 11.8124 19.1153 1.22993 11.8124 19.1153 1.22993
282 2 11.3333 18.8896 -1.97874 11.3333 18.8896 -1.97874
283 1 12.5839 17.316 -0.36227 12.5839 17.316 -0.36227
284 2 14.6032 17.2645 1.10077 14.6032 17.2645 1.10077
285 2 14.2577 17.4763 -2.11591 14.2577 17.4763 -2.11591
286 1 15.351 19.1575 -0.55515 15.351 19.1575 -0.55515
287 2 17.3565 19.1707 0.950962 17.3565 19.1707 0.950962
288 2 17.1629 18.9795 -2.29826 17.1629 18.9795 -2.29826
289 1 18.3564 17.4616 -0.731748 18.3564 17.4616 -0.731748
290 2 20.2583 17.5459 0.820478 20.2583 17.5459 0.820478
291 2 20.1117 17.2868 -2.49922 20.1117 17.2868 -2.49922
292 1 21.1168 19.1082 -1.01689 21.1168 19.1082 -1.01689
293 2 22.8791 18.9628 0.854168 22.8791 18.9628 0.854168
294 2 23.1951 19.0296 -2.38826 23.1951 19.0296 -2.38826
295 1 24.0232 17.3608 -0.688941 24.0232 17.3608 -0.688941
296 2 25.8532 17.0827 1.10621 25.8532 17.0827 1.10621
297 2 26.0703 17.6198 -2.20055 26.0703 17.6198 -2.20055
298 1 26.7624 19.0008 -0.231024 26.7624 19.0008 -0.231024
299 2 28.5179 18.8476 1.56639 28.5179 18.8476 1.56639
300 2 28.9786 19.0442 -1.55989 28.9786 19.0442 -1.55989
301 1 29.6399 17.3652 0.0196955 29.6399 17.3652 0.0196955
302 2 31.5272 17.2643 1.69337 31.5272 17.2643 1.69337
303 2 31.6902 17.334 -1.5614 31.6902 17.334 -1.5614
304 1 32.5185 19.067 0.0988082 32.5185 19.067 0.0988082
305 2 34.1142 18.8391 1.96365 34.1142 18.8391 1.96365
306 2 34.6085 19.1099 -1.26966 34.6085 19.1099 -1.26966
307 1 35.445 17.4353 0.425894 35.445 17.4353 0.425894
308 2 37.382 17.4353 2.07237 37.382 17.4353 2.07237
309 2 37.4108 17.5057 -1.22411 37.4108 17.5057 -1.22411
310 1 38.3311 19.1039 0.524995 38.3311 19.1039 0.524995
311 2 40.3269 19.2415 2.04834 40.3269 19.2415 2.04834
312 2 40.2139 19.0452 -1.19447 40.2139 19.0452 -1.19447
313 1 41.1557 17.5448 0.496506 41.1557 17.5448 0.496506
314 2 43.1694 17.6339 1.96717 43.1694 17.6339 1.96717
315 2 42.8538 17.376 -1.25987 42.8538 17.376 -1.25987
316 1 44.0212 19.2138 0.0598476 44.0212 19.2138 0.0598476
317 2 45.8729 19.2723 1.82508 45.8729 19.2723 1.82508
318 2 45.9693 18.9881 -1.34842 45.9693 18.9881 -1.34842
319 1 46.8926 17.4638 0.466532 46.8926 17.4638 0.466532
320 2 48.7541 17.609 2.26219 48.7541 17.609 2.26219
321 2 48.8746 17.33 -0.998722 48.8746 17.33 -0.998722
322 1 49.6738 19.1246 0.524419 49.6738 19.1246 0.524419
323 2 51.8234 19.1988 1.87243 51.8234 19.1988 1.87243
324 2 51.5662 19.0772 -1.35503 51.5662 19.0772 -1.35503
325 1 1.264 20.7834 0.0539254 1.264 20.7834 0.0539254
326 2 3.27985 20.711 1.60484 3.27985 20.711 1.60484
327 2 3.06706 20.6712 -1.58724 3.06706 20.6712 -1.58724
328 1 4.0094 22.3344 -0.135784 4.0094 22.3344 -0.135784
329 2 6.01496 22.2204 1.47406 6.01496 22.2204 1.47406
330 2 5.97495 22.3777 -1.7634 5.97495 22.3777 -1.7634
331 1 6.94706 20.6018 -0.120502 6.94706 20.6018 -0.120502
332 2 8.92635 20.7011 1.39744 8.92635 20.7011 1.39744
333 2 8.59127 20.3987 -1.91843 8.59127 20.3987 -1.91843
334 1 9.63977 22.2983 -0.538975 9.63977 22.2983 -0.538975
335 2 11.6961 22.3489 0.999963 11.6961 22.3489 0.999963
336 2 11.5085 22.3507 -2.29788 11.5085 22.3507 -2.29788
337 1 12.5297 20.6656 -0.724107 12.5297 20.6656 -0.724107
338 2 14.3619 20.859 0.880702 14.3619 20.859 0.880702
339 2 14.5858 20.6956 -2.26027 14.5858 20.6956 -2.26027
340 1 15.3726 22.4071 -0.719277 15.3726 22.4071 -0.719277
341 2 17.3798 22.337 0.832121 17.3798 22.337 0.832121
342 2 17.2197 22.4128 -2.40889 17.2197 22.4128 -2.40889
343 1 18.2941 20.7231 -0.839169 18.2941 20.7231 -0.839169
344 2 20.1755 20.6718 0.746615 20.1755 20.6718 0.746615
345 2 20.0989 20.8449 -2.44052 20.0989 20.8449 -2.44052
346 1 21.2007 22.3938 -0.81815 21.2007 22.3938 -0.81815
347 2 22.9648 22.4147 0.933505 22.9648 22.4147 0.933505
348 2 23.0909 22.2187 -2.29772 23.0909 22.2187 -2.29772
349 1 23.9497 20.6675 -0.585402 23.9497 20.6675 -0.585402
350 2 25.5805 20.5662 1.32854 25.5805 20.5662 1.32854
351 2 25.972 20.7563 -1.90343 25.972 20.7563 -1.90343
352 1 26.8265 22.3214 -0.0767089 26.8265 22.3214 -0.0767089
353 2 28.5927 22.5849 1.68684 28.5927 22.5849 1.68684
354 2 28.9073 22.2493 -1.56765 28.9073 22.2493 -1.56765
355 1 29.6682 20.6903 0.211426 29.6682 20.6903 0.211426
356 2 31.4721 20.4679 1.88964 31.4721 20.4679 1.88964
357 2 31.608 20.7462 -1.38094 31.608 20.7462 -1.38094
358 1 32.48 22.285 0.388401 32.48 22.285 0.388401
359 2 34.3233 22.4164 2.04307 34.3233 22.4164 2.04307
360 2 34.4267 22.1335 -1.17948 34.4267 22.1335 -1.17948
361 1 35.3671 20.6451 0.610433 35.3671 20.6451 0.610433
362 2 37.2525 20.57 2.2565 37.2525 20.57 2.2565
363 2 37.2312 20.9221 -1.01125 37.2312 20.9221 -1.01125
364 1 38.2224 22.4597 0.66516 38.2224 22.4597 0.66516
365 2 40.3345 22.2839 2.14922 40.3345 22.2839 2.14922
366 2 39.9656 22.4206 -1.06951 39.9656 22.4206 -1.06951
367 1 41.1799 20.7991 0.32411 41.1799 20.7991 0.32411
368 2 43.3317 20.7249 1.86202 43.3317 20.7249 1.86202
369 2 42.9872 20.9537 -1.33646 42.9872 20.9537 -1.33646
370 1 44.0494 22.5211 0.189847 44.0494 22.5211 0.189847
371 2 45.8848 22.3812 1.76113 45.8848 22.3812 1.76113
372 2 45.8721 22.4275 -1.48347 45.8721 22.4275 -1.48347
373 1 46.8272 20.8092 0.125318 46.8272 20.8092 0.125318
374 2 48.5914 20.9175 1.95227 48.5914 20.9175 1.95227
375 2 48.8821 20.6373 -1.27586 48.8821 20.6373 -1.27586
376 1 49.7036 22.3529 0.27192 49.7036 22.3529 0.27192
377 2 51.687 22.3795 1.7792 51.687 22.3795 1.7792
378 2 51.5516 22.529 -1.51146 51.5516 22.529 -1.51146
379 1 1.17112 24.0841 0.122246 1.17112 24.0841 0.122246
380 2 3.19638 23.9165 1.64609 3.19638 23.9165 1.64609
381 2 2.92431 23.9903 -1.61238 2.92431 23.9903 -1.61238
382 1 4.03119 25.6132 0.0416305 4.03119 25.6132 0.0416305
383 2 5.96919 25.6513 1.63343 5.96919 25.6513 1.63343
384 2 5.89766 25.6161 -1.6923 5.89766 25.6161 -1.6923
385 1 6.85925 23.944 -0.131216 6.85925 23.944 -0.131216
386 2 9.06929 23.992 1.20216 9.06929 23.992 1.20216
387 2 8.50875 23.9186 -2.01073 8.50875 23.9186 -2.01073
388 1 9.70964 25.6187 -0.480848 9.70964 25.6187 -0.480848
389 2 11.6994 25.7837 1.02513 11.6994 25.7837 1.02513
390 2 11.5606 25.6371 -2.08221 11.5606 25.6371 -2.08221
391 1 12.5475 24.0028 -0.594767 12.5475 24.0028 -0.594767
392 2 14.5096 24.0613 0.957497 14.5096 24.0613 0.957497
393 2 14.4979 24.0667 -2.29548 14.4979 24.0667 -2.29548
394 1 15.4029 25.639 -0.651479 15.4029 25.639 -0.651479
395 2 17.4796 25.6362 0.817455 17.4796 25.6362 0.817455
396 2 17.1943 25.5276 -2.43217 17.1943 25.5276 -2.43217
397 1 18.3408 24.0568 -0.811936 18.3408 24.0568 -0.811936
398 2 20.218 24.0469 0.79162 20.218 24.0469 0.79162
399 2 20.2103 23.978 -2.38349 20.2103 23.978 -2.38349
400 1 21.1984 25.644 -0.880291 21.1984 25.644 -0.880291
401 2 23.0421 25.7379 0.85828 23.0421 25.7379 0.85828
402 2 23.1873 25.5944 -2.39211 23.1873 25.5944 -2.39211
403 1 24.0129 23.9567 -0.704194 24.0129 23.9567 -0.704194
404 2 25.6894 24.1532 1.18763 25.6894 24.1532 1.18763
405 2 26.1319 23.7821 -1.97364 26.1319 23.7821 -1.97364
406 1 26.8619 25.5952 -0.471915 26.8619 25.5952 -0.471915
407 2 28.5417 25.767 1.42191 28.5417 25.767 1.42191
408 2 28.9173 25.3367 -1.88339 28.9173 25.3367 -1.88339
409 1 29.6293 23.9917 0.0564344 29.6293 23.9917 0.0564344
410 2 31.3666 24.1258 1.89499 31.3666 24.1258 1.89499
411 2 31.7428 23.8044 -1.48252 31.7428 23.8044 -1.48252
412 1 32.4344 25.6433 0.146062 32.4344 25.6433 0.146062
413 2 34.1659 25.7873 1.92517 34.1659 25.7873 1.92517
414 2 34.5716 25.6811 -1.30523 34.5716 25.6811 -1.30523
415 1 35.3077 24.0437 0.474831 35.3077 24.0437 0.474831
416 2 37.0696 24.167 2.07072 37.0696 24.167 2.07072
417 2 37.193 24.1373 -1.114 37.193 24.1373 -1.114
418 1 38.1713 25.7003 0.381958 38.1713 25.7003 0.381958
419 2 40.0487 25.7156 2.05761 40.0487 25.7156 2.05761
420 2 40.164 25.6395 -1.23375 40.164 25.6395 -1.23375
421 1 41.0867 24.0083 0.428749 41.0867 24.0083 0.428749
422 2 43.0395 23.9635 1.94949 43.0395 23.9635 1.94949
423 2 42.9858 24.2221 -1.37255 42.9858 24.2221 -1.37255
424 1 43.899 25.7926 0.246944 43.899 25.7926 0.246944
425 2 45.8053 25.6456 1.91415 45.8053 25.6456 1.91415
426 2 45.7658 25.7949 -1.36296 45.7658 25.7949 -1.36296
427 1 46.8169 24.0471 0.186872 46.8169 24.0471 0.186872
428 2 48.7702 24.1621 1.7922 48.7702 24.1621 1.7922
429 2 48.6225 23.8382 -1.52602 48.6225 23.8382 -1.52602
430 1 49.5637 25.6957 -0.0529547 49.5637 25.6957 -0.0529547
431 2 51.4453 25.8215 1.69077 51.4453 25.8215 1.69077
432 2 51.6757 25.7032 -1.55416 51.6757 25.7032 -1.55416
433 1 1.18503 27.3864 0.114808 1.18503 27.3864 0.114808
434 2 3.10988 27.4306 1.60039 3.10988 27.4306 1.60039
435 2 3.0061 27.2324 -1.63193 3.0061 27.2324 -1.63193
436 1 4.03051 28.9834 -0.111247 4.03051 28.9834 -0.111247
437 2 6.035 29.1397 1.39257 6.035 29.1397 1.39257
438 2 5.91661 28.7512 -1.75667 5.91661 28.7512 -1.75667
439 1 6.90586 27.3401 -0.102621 6.90586 27.3401 -0.102621
440 2 8.99655 27.3989 1.22081 8.99655 27.3989 1.22081
441 2 8.59651 27.3386 -2.08641 8.59651 27.3386 -2.08641
442 1 9.76578 29.0108 -0.579928 9.76578 29.0108 -0.579928
443 2 11.6793 29.0586 0.875749 11.6793 29.0586 0.875749
444 2 11.5442 29.0252 -2.33682 11.5442 29.0252 -2.33682
445 1 12.6054 27.3306 -0.681263 12.6054 27.3306 -0.681263
446 2 14.7095 27.4344 0.824365 14.7095 27.4344 0.824365
447 2 14.4856 27.1434 -2.43405 14.4856 27.1434 -2.43405
448 1 15.5049 28.9373 -1.04539 15.5049 28.9373 -1.04539
449 2 17.5419 29.025 0.584997 17.5419 29.025 0.584997
450 2 17.4555 28.84 -2.59172 17.4555 28.84 -2.59172
451 1 18.3723 27.206 -0.982084 18.3723 27.206 -0.982084
452 2 20.1753 27.3314 0.687552 20.1753 27.3314 0.687552
453 2 20.2628 27.1777 -2.61269 20.2628 27.1777 -2.61269
454 1 21.2268 28.8769 -0.912727 21.2268 28.8769 -0.912727
455 2 23.1068 28.8629 0.795067 23.1068 28.8629 0.795067
456 2 23.1681 28.8525 -2.46147 23.1681 28.8525 -2.46147
457 1 24.1553 27.2078 -0.806205 24.1553 27.2078 -0.806205
458 2 25.8315 27.4021 1.02379 25.8315 27.4021 1.02379
459 2 26.1496 27.1871 -2.20751 26.1496 27.1871 -2.20751
460 1 26.864 28.9141 -0.662019 26.864 28.9141 -0.662019
461 2 28.7513 28.9563 0.937423 28.7513 28.9563 0.937423
462 2 28.8212 28.6286 -2.32269 28.8212 28.6286 -2.32269
463 1 29.7168 27.0929 -0.410244 29.7168 27.0929 -0.410244
464 2 31.4527 27.4777 1.52248 31.4527 27.4777 1.52248
465 2 31.8768 27.1358 -1.65252 31.8768 27.1358 -1.65252
466 1 32.5576 28.9331 -0.140586 32.5576 28.9331 -0.140586
467 2 34.1219 29.1036 1.73054 34.1219 29.1036 1.73054
468 2 34.621 28.8658 -1.42197 34.621 28.8658 -1.42197
469 1 35.3166 27.2981 0.396092 35.3166 27.2981 0.396092
470 2 37.1792 27.3257 1.98435 37.1792 27.3257 1.98435
471 2 37.1305 27.3 -1.29442 37.1305 27.3 -1.29442
472 1 38.227 28.931 0.269603 38.227 28.931 0.269603
473 2 40.0723 28.7652 1.96168 40.0723 28.7652 1.96168
474 2 40.1851 28.9734 -1.25578 40.1851 28.9734 -1.25578
475 1 41.0711 27.2969 0.335762 41.0711 27.2969 0.335762
476 2 42.9801 27.2981 1.93735 42.9801 27.2981 1.93735
477 2 42.9609 27.4036 -1.34997 42.9609 27.4036 -1.34997
478 1 43.9077 28.8888 0.318705 43.9077 28.8888 0.318705
479 2 45.7899 28.964 1.98195 45.7899 28.964 1.98195
480 2 45.7284 28.9627 -1.32113 45.7284 28.9627 -1.32113
481 1 46.7442 27.3153 0.23978 46.7442 27.3153 0.23978
482 2 48.6539 27.2213 1.76825 48.6539 27.2213 1.76825
483 2 48.4351 27.3118 -1.5655 48.4351 27.3118 -1.5655
484 1 49.5762 28.9387 0.0999157 49.5762 28.9387 0.0999157
485 2 51.4271 28.9927 1.76688 51.4271 28.9927 1.76688
486 2 51.5683 29.0309 -1.56949 51.5683 29.0309 -1.56949
487 1 1.07643 30.7068 0.0923647 1.07643 30.7068 0.0923647
488 2 3.08041 30.6665 1.56037 3.08041 30.6665 1.56037
489 2 2.91154 30.6063 -1.66213 2.91154 30.6063 -1.66213
490 1 4.07695 32.1303 -0.21888 4.07695 32.1303 -0.21888
491 2 6.15473 32.3622 1.14193 6.15473 32.3622 1.14193
492 2 5.8601 32.0373 -2.12826 5.8601 32.0373 -2.12826
493 1 6.9536 30.5887 -0.398858 6.9536 30.5887 -0.398858
494 2 8.93213 30.7768 1.04809 8.93213 30.7768 1.04809
495 2 8.63685 30.5158 -2.21139 8.63685 30.5158 -2.21139
496 1 9.84704 32.3376 -0.731392 9.84704 32.3376 -0.731392
497 2 11.6732 32.4351 0.89928 11.6732 32.4351 0.89928
498 2 11.5128 32.239 -2.43947 11.5128 32.239 -2.43947
499 1 12.6483 30.6271 -0.749808 12.6483 30.6271 -0.749808
500 2 14.715 30.5118 0.670664 14.715 30.5118 0.670664
501 2 14.4308 30.6201 -2.5399 14.4308 30.6201 -2.5399
502 1 15.5354 32.2778 -1.01176 15.5354 32.2778 -1.01176
503 2 17.5337 32.3656 0.567781 17.5337 32.3656 0.567781
504 2 17.4406 32.2663 -2.66789 17.4406 32.2663 -2.66789
505 1 18.4075 30.6559 -1.0662 18.4075 30.6559 -1.0662
506 2 20.3035 30.7458 0.565965 20.3035 30.7458 0.565965
507 2 20.3339 30.4419 -2.69252 20.3339 30.4419 -2.69252
508 1 21.2724 32.2265 -1.12997 21.2724 32.2265 -1.12997
509 2 23.0949 32.3549 0.527689 23.0949 32.3549 0.527689
510 2 23.2287 32.1245 -2.57761 23.2287 32.1245 -2.57761
511 1 24.0864 30.533 -0.857793 24.0864 30.533 -0.857793
512 2 25.9661 30.7539 0.763192 25.9661 30.7539 0.763192
513 2 26.0082 30.5123 -2.35508 26.0082 30.5123 -2.35508
514 1 26.9003 32.2645 -0.89356 26.9003 32.2645 -0.89356
515 2 28.7752 32.2449 0.745687 28.7752 32.2449 0.745687
516 2 28.7682 31.9654 -2.51289 28.7682 31.9654 -2.51289
517 1 29.7641 30.4298 -0.833968 29.7641 30.4298 -0.833968
518 2 31.4008 30.8071 1.0289 31.4008 30.8071 1.0289
519 2 31.9737 30.3436 -2.11229 31.9737 30.3436 -2.11229
520 1 32.5388 32.1884 -0.596425 32.5388 32.1884 -0.596425
521 2 34.0929 32.3929 1.33747 34.0929 32.3929 1.33747
522 2 34.751 32.0191 -1.89332 34.751 32.0191 -1.89332
523 1 35.3114 30.5754 0.0726953 35.3114 30.5754 0.0726953
524 2 37.1866 30.6898 1.7424 37.1866 30.6898 1.7424
525 2 37.2599 30.4926 -1.47025 37.2599 30.4926 -1.47025
526 1 38.1945 32.2847 0.129642 38.1945 32.2847 0.129642
527 2 40.0077 32.5821 1.85674 40.0077 32.5821 1.85674
528 2 40.2227 32.1033 -1.37146 40.2227 32.1033 -1.37146
529 1 40.9943 30.5832 0.395049 40.9943 30.5832 0.395049
530 2 42.9853 30.6946 1.90042 42.9853 30.6946 1.90042
531 2 42.9423 30.6455 -1.28314 42.9423 30.6455 -1.28314
532 1 43.7833 32.3544 0.394062 43.7833 32.3544 0.394062
533 2 45.7292 32.4241 1.8696 45.7292 32.4241 1.8696
534 2 45.6284 32.2257 -1.41362 45.6284 32.2257 -1.41362
535 1 46.682 30.6536 0.278252 46.682 30.6536 0.278252
536 2 48.5741 30.5566 1.8117 48.5741 30.5566 1.8117
537 2 48.525 30.6238 -1.49408 48.525 30.6238 -1.49408
538 1 49.5667 32.2642 0.133699 49.5667 32.2642 0.133699
539 2 51.5569 32.459 1.5766 51.5569 32.459 1.5766
540 2 51.287 32.1713 -1.66855 51.287 32.1713 -1.66855