ITEM: TIMESTEP
4300
ITEM: NUMBER OF ATOMS
810
ITEM: BOX BOUNDS pp pp pp
8.4137701477268123e-01 5.2176227985227342e+01
8.0961581116522285e-01 5.0206599188834083e+01
-1.0000000000000000e+01 1.0000000000000000e+01
ITEM: ATOMS id type x y z xu yu zu
1 1 52.0891 50.3409 -0.113617 0.754265 0.943889 -0.113617
2 2 2.61973 50.1795 1.5829 2.61973 0.782485 1.5829
3 2 2.68754 50.383 -1.66514 2.68754 0.986047 -1.66514
4 1 3.61524 2.45334 0.111562 3.61524 2.45334 0.111562
5 2 5.4872 2.32636 1.84519 5.4872 2.32636 1.84519
6 2 5.5672 2.56759 -1.43154 5.5672 2.56759 -1.43154
7 1 6.50991 50.2457 0.0566339 6.50991 0.848691 0.0566339
8 2 8.22035 50.0645 1.88624 8.22035 0.667515 1.88624
9 2 8.62207 50.4574 -1.29674 8.62207 1.06038 -1.29674
10 1 9.33745 2.5219 0.555216 9.33745 2.5219 0.555216
11 2 11.349 2.50692 2.05843 11.349 2.50692 2.05843
12 2 11.2112 2.49611 -1.23983 11.2112 2.49611 -1.23983
13 1 12.1949 50.2298 0.35876 12.1949 0.832833 0.35876
14 2 14.2143 50.2417 1.88433 14.2143 0.844727 1.88433
15 2 14.0515 50.2462 -1.38296 14.0515 0.849191 -1.38296
16 1 15.0397 2.48697 0.277343 15.0397 2.48697 0.277343
17 2 16.9181 2.56527 1.80387 16.9181 2.56527 1.80387
18 2 16.9225 2.31517 -1.42881 16.9225 2.31517 -1.42881
19 1 17.9588 50.2106 0.263728 17.9588 0.81363 0.263728
20 2 19.8831 50.2199 1.9382 19.8831 0.822871 1.9382
21 2 19.8485 50.3894 -1.3703 19.8485 0.992383 -1.3703
22 1 20.7951 2.48445 0.347763 20.7951 2.48445 0.347763
23 2 22.8154 2.71095 2.0158 22.8154 2.71095 2.0158
24 2 22.6942 2.34518 -1.31079 22.6942 2.34518 -1.31079
25 1 23.7408 50.2413 0.43753 23.7408 0.844299 0.43753
26 2 25.908 50.1894 1.66216 25.908 0.792415 1.66216
27 2 25.392 50.3833 -1.4971 25.392 0.986333 -1.4971
28 1 26.4992 2.64957 -0.0789835 26.4992 2.64957 -0.0789835
29 2 28.4402 2.37002 1.61865 28.4402 2.37002 1.61865
30 2 28.5301 2.72175 -1.54695 28.5301 2.72175 -1.54695
31 1 29.3244 50.2892 -0.203378 29.3244 0.892236 -0.203378
32 2 31.0805 50.2505 1.53588 31.0805 0.853556 1.53588
33 2 31.288 50.3032 -1.67331 31.288 0.906235 -1.67331
34 1 32.0948 2.58261 0.0615575 32.0948 2.58261 0.0615575
35 2 33.8908 2.41334 1.87318 33.8908 2.41334 1.87318
36 2 34.0974 2.68351 -1.35584 34.0974 2.68351 -1.35584
37 1 34.9645 50.3099 0.150837 34.9645 0.912917 0.150837
38 2 36.9171 50.3238 1.73184 36.9171 0.926829 1.73184
39 2 36.91 50.2928 -1.48075 36.91 0.895829 -1.48075
40 1 37.9123 2.53038 0.132772 37.9123 2.53038 0.132772
41 2 39.8798 2.50926 1.7572 39.8798 2.50926 1.7572
42 2 39.7167 2.52997 -1.54708 39.7167 2.52997 -1.54708
43 1 40.754 50.275 0.0947999 40.754 0.878064 0.0947999
44 2 42.6042 50.0432 1.77932 42.6042 0.646241 1.77932
45 2 42.5195 50.4634 -1.49701 42.5195 1.06641 -1.49701
46 1 43.4905 2.50879 0.362263 43.4905 2.50879 0.362263
47 2 45.332 2.4252 1.95248 45.332 2.4252 1.95248
48 2 45.4798 2.58977 -1.30788 45.4798 2.58977 -1.30788
49 1 46.4121 50.3402 0.254756 46.4121 0.943211 0.254756
50 2 48.3158 50.2517 1.80835 48.3158 0.854766 1.80835
51 2 48.3308 50.5083 -1.50258 48.3308 1.11129 -1.50258
52 1 49.1536 2.60699 0.204395 49.1536 2.60699 0.204395
53 2 51.1182 2.26687 1.70572 51.1182 2.26687 1.70572
54 2 51.0287 2.67785 -1.48893 51.0287 2.67785 -1.48893
55 1 52.1261 4.15239 0.287543 0.791294 4.15239 0.287543
56 2 2.64602 4.00012 1.90141 2.64602 4.00012 1.90141
57 2 2.63212 4.32202 -1.30358 2.63212 4.32202 -1.30358
58 1 3.61384 5.79789 0.514318 3.61384 5.79789 0.514318
59 2 5.67571 5.86584 2.03257 5.67571 5.86584 2.03257
60 2 5.42627 5.85777 -1.23794 5.42627 5.85777 -1.23794
61 1 6.47392 4.1507 0.362378 6.47392 4.1507 0.362378
62 2 8.34564 4.28287 1.97476 8.34564 4.28287 1.97476
63 2 8.35487 4.05568 -1.13315 8.35487 4.05568 -1.13315
64 1 9.33623 5.85174 0.335326 9.33623 5.85174 0.335326
65 2 11.2981 5.79399 2.0094 11.2981 5.79399 2.0094
66 2 11.2197 5.76457 -1.28064 11.2197 5.76457 -1.28064
67 1 12.1833 4.14578 0.336329 12.1833 4.14578 0.336329
68 2 14.0106 4.11849 2.03173 14.0106 4.11849 2.03173
69 2 14.0581 4.22758 -1.26885 14.0581 4.22758 -1.26885
70 1 15.0603 5.78854 0.409721 15.0603 5.78854 0.409721
71 2 17.0989 5.84059 1.84228 17.0989 5.84059 1.84228
72 2 16.6794 5.64376 -1.45332 16.6794 5.64376 -1.45332
73 1 17.88 4.13259 0.14483 17.88 4.13259 0.14483
74 2 19.8984 4.26676 1.76915 19.8984 4.26676 1.76915
75 2 19.8519 3.92095 -1.48034 19.8519 3.92095 -1.48034
76 1 20.8096 5.79298 0.0426273 20.8096 5.79298 0.0426273
77 2 22.5497 5.72306 1.86619 22.5497 5.72306 1.86619
78 2 22.9028 6.065 -1.41004 22.9028 6.065 -1.41004
79 1 23.6445 4.1569 0.125787 23.6445 4.1569 0.125787
80 2 25.543 4.00767 1.77866 25.543 4.00767 1.77866
81 2 25.5673 4.57896 -1.43229 25.5673 4.57896 -1.43229
82 1 26.4848 5.91479 0.479543 26.4848 5.91479 0.479543
83 2 28.4101 5.79441 2.01878 28.4101 5.79441 2.01878
84 2 28.3025 6.0043 -1.25393 28.3025 6.0043 -1.25393
85 1 29.3867 4.34113 0.201937 29.3867 4.34113 0.201937
86 2 31.2437 4.06895 1.82113 31.2437 4.06895 1.82113
87 2 31.2419 4.34238 -1.54534 31.2419 4.34238 -1.54534
88 1 32.1941 5.86917 0.238029 32.1941 5.86917 0.238029
89 2 34.0276 5.90673 1.87634 34.0276 5.90673 1.87634
90 2 34.207 5.74352 -1.33599 34.207 5.74352 -1.33599
91 1 35.0425 4.2364 0.338493 35.0425 4.2364 0.338493
92 2 37.0403 4.17333 1.85008 37.0403 4.17333 1.85008
93 2 36.8573 4.21099 -1.33152 36.8573 4.21099 -1.33152
94 1 37.8768 5.86468 0.16121 37.8768 5.86468 0.16121
95 2 39.7609 5.75463 1.75246 39.7609 5.75463 1.75246
96 2 39.8632 5.91453 -1.46776 39.8632 5.91453 -1.46776
97 1 40.699 4.17856 0.0693798 40.699 4.17856 0.0693798
98 2 42.5115 4.35362 1.8531 42.5115 4.35362 1.8531
99 2 42.8092 4.09066 -1.34705 42.8092 4.09066 -1.34705
100 1 43.5973 5.83721 0.26804 43.5973 5.83721 0.26804
101 2 45.3061 5.93195 1.97326 45.3061 5.93195 1.97326
102 2 45.5786 5.71255 -1.19812 45.5786 5.71255 -1.19812
103 1 46.4023 4.17361 0.510174 46.4023 4.17361 0.510174
104 2 48.3982 4.07066 2.06752 48.3982 4.07066 2.06752
105 2 48.1563 4.2997 -1.24354 48.1563 4.2997 -1.24354
106 1 49.2288 5.87479 0.477702 49.2288 5.87479 0.477702
107 2 51.2977 5.76083 2.0197 51.2977 5.76083 2.0197
108 2 51.0207 5.96422 -1.27085 51.0207 5.96422 -1.27085
109 1 52.1275 7.51197 0.293121 0.79266 7.51197 0.293121
110 2 2.74844 7.56325 1.9202 2.74844 7.56325 1.9202
111 2 2.86884 7.31401 -1.30077 2.86884 7.31401 -1.30077
112 1 3.6264 9.12223 0.260574 3.6264 9.12223 0.260574
113 2 5.61887 9.3791 1.74868 5.61887 9.3791 1.74868
114 2 5.45584 8.91245 -1.42137 5.45584 8.91245 -1.42137
115 1 6.48175 7.52831 0.303572 6.48175 7.52831 0.303572
116 2 8.36384 7.57561 1.93196 8.36384 7.57561 1.93196
117 2 8.37696 7.37484 -1.4204 8.37696 7.37484 -1.4204
118 1 9.36863 9.09632 0.183008 9.36863 9.09632 0.183008
119 2 11.4399 9.41645 1.65539 11.4399 9.41645 1.65539
120 2 11.2318 8.87486 -1.58555 11.2318 8.87486 -1.58555
121 1 12.2009 7.46357 0.362086 12.2009 7.46357 0.362086
122 2 14.1634 7.68024 1.97265 14.1634 7.68024 1.97265
123 2 14.0658 7.13381 -1.37753 14.0658 7.13381 -1.37753
124 1 15.0055 9.05165 0.00228014 15.0055 9.05165 0.00228014
125 2 16.9925 9.07259 1.55414 16.9925 9.07259 1.55414
126 2 16.952 9.06703 -1.65134 16.952 9.06703 -1.65134
127 1 17.8239 7.39225 -0.0182908 17.8239 7.39225 -0.0182908
128 2 19.7636 7.41673 1.64449 19.7636 7.41673 1.64449
129 2 19.7609 7.36589 -1.62565 19.7609 7.36589 -1.62565
130 1 20.7961 9.03934 0.0671776 20.7961 9.03934 0.0671776
131 2 22.5496 9.18806 1.84323 22.5496 9.18806 1.84323
132 2 22.8219 9.08423 -1.38402 22.8219 9.08423 -1.38402
133 1 23.5881 7.51648 0.407657 23.5881 7.51648 0.407657
134 2 25.4526 7.70683 2.02882 25.4526 7.70683 2.02882
135 2 25.5683 7.63799 -1.21115 25.5683 7.63799 -1.21115
136 1 26.5101 9.26479 0.268583 26.5101 9.26479 0.268583
137 2 28.3888 9.16442 2.0065 28.3888 9.16442 2.0065
138 2 28.3507 9.08048 -1.32104 28.3507 9.08048 -1.32104
139 1 29.2633 7.59758 0.424266 29.2633 7.59758 0.424266
140 2 31.1727 7.4589 2.03056 31.1727 7.4589 2.03056
141 2 31.0986 7.6328 -1.2404 31.0986 7.6328 -1.2404
142 1 32.1923 9.17449 0.435342 32.1923 9.17449 0.435342
143 2 34.1813 9.09969 1.99497 34.1813 9.09969 1.99497
144 2 34.0374 9.25746 -1.26881 34.0374 9.25746 -1.26881
145 1 35.0527 7.48293 0.289976 35.0527 7.48293 0.289976
146 2 36.8669 7.23817 2.03164 36.8669 7.23817 2.03164
147 2 36.9835 7.66771 -1.20993 36.9835 7.66771 -1.20993
148 1 37.9194 9.16603 0.675062 37.9194 9.16603 0.675062
149 2 39.9973 9.15429 2.04876 39.9973 9.15429 2.04876
150 2 39.5341 9.26728 -1.08622 39.5341 9.26728 -1.08622
151 1 40.7928 7.50343 0.224675 40.7928 7.50343 0.224675
152 2 42.4936 7.35525 1.94425 42.4936 7.35525 1.94425
153 2 42.8325 7.63298 -1.27766 42.8325 7.63298 -1.27766
154 1 43.5964 9.25554 0.484494 43.5964 9.25554 0.484494
155 2 45.5697 9.21334 1.93885 45.5697 9.21334 1.93885
156 2 45.3725 9.1479 -1.3363 45.3725 9.1479 -1.3363
157 1 46.3454 7.55872 0.363356 46.3454 7.55872 0.363356
158 2 48.2278 7.63336 1.94737 48.2278 7.63336 1.94737
159 2 48.2802 7.41253 -1.20862 48.2802 7.41253 -1.20862
160 1 49.24 9.18268 0.274286 49.24 9.18268 0.274286
161 2 51.1112 9.23223 1.91471 51.1112 9.23223 1.91471
162 2 50.9689 9.06732 -1.41492 50.9689 9.06732 -1.41492
163 1 52.1596 10.8079 0.0579266 0.824731 10.8079 0.0579266
164 2 2.69966 10.8795 1.7373 2.69966 10.8795 1.7373
165 2 2.77381 10.484 -1.55277 2.77381 10.484 -1.55277
166 1 3.69171 12.4088 -0.0742276 3.69171 12.4088 -0.0742276
167 2 5.57052 12.3155 1.56107 5.57052 12.3155 1.56107
168 2 5.55005 12.3728 -1.73314 5.55005 12.3728 -1.73314
169 1 6.47536 10.7135 -0.126363 6.47536 10.7135 -0.126363
170 2 8.33071 11.0164 1.54251 8.33071 11.0164 1.54251
171 2 8.41886 10.5086 -1.68723 8.41886 10.5086 -1.68723
172 1 9.33134 12.4276 -0.173111 9.33134 12.4276 -0.173111
173 2 11.4501 12.534 1.23912 11.4501 12.534 1.23912
174 2 11.1275 12.2483 -1.99317 11.1275 12.2483 -1.99317
175 1 12.2465 10.6899 -0.366835 12.2465 10.6899 -0.366835
176 2 14.0785 10.9207 1.40836 14.0785 10.9207 1.40836
177 2 14.319 10.6106 -1.95743 14.319 10.6106 -1.95743
178 1 15.117 12.3292 -0.283413 15.117 12.3292 -0.283413
179 2 16.9917 12.363 1.39016 16.9917 12.363 1.39016
180 2 17.0869 12.4419 -1.90503 17.0869 12.4419 -1.90503
181 1 18.0017 10.683 -0.0738843 18.0017 10.683 -0.0738843
182 2 19.8655 10.8439 1.51395 19.8655 10.8439 1.51395
183 2 19.8206 10.5512 -1.70377 19.8206 10.5512 -1.70377
184 1 20.7943 12.31 -0.241783 20.7943 12.31 -0.241783
185 2 22.4554 12.509 1.63983 22.4554 12.509 1.63983
186 2 22.8198 12.1576 -1.65833 22.8198 12.1576 -1.65833
187 1 23.6099 10.7982 0.220259 23.6099 10.7982 0.220259
188 2 25.5927 10.9316 1.7958 25.5927 10.9316 1.7958
189 2 25.5848 10.7636 -1.38231 25.5848 10.7636 -1.38231
190 1 26.5363 12.5092 0.205872 26.5363 12.5092 0.205872
191 2 28.2274 12.3921 1.97067 28.2274 12.3921 1.97067
192 2 28.5901 12.4508 -1.26604 28.5901 12.4508 -1.26604
193 1 29.3778 10.7212 0.386908 29.3778 10.7212 0.386908
194 2 31.3292 10.9526 1.97002 31.3292 10.9526 1.97002
195 2 31.169 10.668 -1.25662 31.169 10.668 -1.25662
196 1 32.2117 12.4361 0.243889 32.2117 12.4361 0.243889
197 2 33.9572 12.3443 2.10727 33.9572 12.3443 2.10727
198 2 34.3605 12.4659 -1.11681 34.3605 12.4659 -1.11681
199 1 35.1084 10.7644 0.462361 35.1084 10.7644 0.462361
200 2 37.1476 10.8849 2.18829 37.1476 10.8849 2.18829
201 2 37.0577 10.7592 -1.09275 37.0577 10.7592 -1.09275
202 1 37.9172 12.5747 0.587269 37.9172 12.5747 0.587269
203 2 39.8961 12.6295 2.18858 39.8961 12.6295 2.18858
204 2 39.6978 12.4949 -1.11988 39.6978 12.4949 -1.11988
205 1 40.6511 10.871 0.486204 40.6511 10.871 0.486204
206 2 42.6674 10.9362 2.02899 42.6674 10.9362 2.02899
207 2 42.514 10.7342 -1.24904 42.514 10.7342 -1.24904
208 1 43.6147 12.5244 0.223074 43.6147 12.5244 0.223074
209 2 45.477 12.4567 1.86943 45.477 12.4567 1.86943
210 2 45.5108 12.5505 -1.44062 45.5108 12.5505 -1.44062
211 1 46.4539 10.8313 0.141887 46.4539 10.8313 0.141887
212 2 48.3107 10.9515 1.81266 48.3107 10.9515 1.81266
213 2 48.3791 10.8065 -1.40755 48.3791 10.8065 -1.40755
214 1 49.3475 12.5119 0.0959204 49.3475 12.5119 0.0959204
215 2 51.1763 12.5756 1.68509 51.1763 12.5756 1.68509
216 2 51.1401 12.389 -1.57938 51.1401 12.389 -1.57938
217 1 52.1294 14.0568 -0.00335773 0.794575 14.0568 -0.00335773
218 2 2.78506 14.0398 1.70273 2.78506 14.0398 1.70273
219 2 2.84778 14.136 -1.69632 2.84778 14.136 -1.69632
220 1 3.69969 15.7287 0.116358 3.69969 15.7287 0.116358
221 2 5.58926 15.6702 1.60308 5.58926 15.6702 1.60308
222 2 5.44814 15.7095 -1.65377 5.44814 15.7095 -1.65377
223 1 6.46147 14.0194 -0.0386371 6.46147 14.0194 -0.0386371
224 2 8.55466 14.1981 1.35396 8.55466 14.1981 1.35396
225 2 8.30018 13.8597 -1.84207 8.30018 13.8597 -1.84207
226 1 9.3343 15.723 -0.505769 9.3343 15.723 -0.505769
227 2 11.3705 15.7082 1.11759 11.3705 15.7082 1.11759
228 2 11.1296 15.7029 -2.16923 11.1296 15.7029 -2.16923
229 1 12.2053 13.9955 -0.615904 12.2053 13.9955 -0.615904
230 2 13.9993 14.1508 1.13133 13.9993 14.1508 1.13133
231 2 14.4318 13.9121 -1.94216 14.4318 13.9121 -1.94216
232 1 15.1195 15.7591 -0.420057 15.1195 15.7591 -0.420057
233 2 16.8872 15.6894 1.33026 16.8872 15.6894 1.33026
234 2 17.2244 15.8628 -1.8891 17.2244 15.8628 -1.8891
235 1 18.0276 14.0898 -0.303141 18.0276 14.0898 -0.303141
236 2 19.8039 14.1054 1.41478 19.8039 14.1054 1.41478
237 2 19.9935 14.1085 -1.85152 19.9935 14.1085 -1.85152
238 1 20.7985 15.781 -0.17061 20.7985 15.781 -0.17061
239 2 22.5619 15.6458 1.66912 22.5619 15.6458 1.66912
240 2 22.8797 15.9177 -1.58479 22.8797 15.9177 -1.58479
241 1 23.6214 14.1172 -0.0639894 23.6214 14.1172 -0.0639894
242 2 25.3655 14.0452 1.87622 25.3655 14.0452 1.87622
243 2 25.6142 14.2037 -1.46938 25.6142 14.2037 -1.46938
244 1 26.4547 15.7991 0.424414 26.4547 15.7991 0.424414
245 2 28.3448 15.7741 2.08779 28.3448 15.7741 2.08779
246 2 28.4415 15.8475 -1.19581 28.4415 15.8475 -1.19581
247 1 29.3387 14.0354 0.479566 29.3387 14.0354 0.479566
248 2 31.395 14.0848 1.99271 31.395 14.0848 1.99271
249 2 31.1759 14.1482 -1.3082 31.1759 14.1482 -1.3082
250 1 32.2296 15.7778 0.296301 32.2296 15.7778 0.296301
251 2 34.0557 15.9345 1.93342 34.0557 15.9345 1.93342
252 2 34.0923 15.6426 -1.29637 34.0923 15.6426 -1.29637
253 1 35.0185 14.0784 0.600769 35.0185 14.0784 0.600769
254 2 37.0382 14.3419 2.06841 37.0382 14.3419 2.06841
255 2 36.764 14.0578 -1.12668 36.764 14.0578 -1.12668
256 1 37.9291 15.7973 0.181993 37.9291 15.7973 0.181993
257 2 39.6956 15.9948 1.86927 39.6956 15.9948 1.86927
258 2 39.8116 15.7825 -1.37474 39.8116 15.7825 -1.37474
259 1 40.755 14.165 0.343742 40.755 14.165 0.343742
260 2 42.7787 14.0867 1.90188 42.7787 14.0867 1.90188
261 2 42.6245 14.1072 -1.45359 42.6245 14.1072 -1.45359
262 1 43.5646 15.8357 0.229238 43.5646 15.8357 0.229238
263 2 45.5597 15.8994 1.79246 45.5597 15.8994 1.79246
264 2 45.4622 15.7913 -1.47148 45.4622 15.7913 -1.47148
265 1 46.4687 14.1467 0.229023 46.4687 14.1467 0.229023
266 2 48.4683 14.1593 1.77138 48.4683 14.1593 1.77138
267 2 48.2205 14.1029 -1.48242 48.2205 14.1029 -1.48242
268 1 49.2646 15.7943 0.0335204 49.2646 15.7943 0.0335204
269 2 51.1662 15.7234 1.53593 51.1662 15.7234 1.53593
270 2 51.204 15.6977 -1.62551 51.204 15.6977 -1.62551
271 1 52.2263 17.3058 0.03874 0.891446 17.3058 0.03874
272 2 2.77311 17.4967 1.76561 2.77311 17.4967 1.76561
273 2 2.67397 17.4431 -1.55776 2.67397 17.4431 -1.55776
274 1 3.66359 19.0347 0.139765 3.66359 19.0347 0.139765
275 2 5.59089 18.8485 1.70445 5.59089 18.8485 1.70445
276 2 5.57559 19.1199 -1.52521 5.57559 19.1199 -1.52521
277 1 6.47996 17.3955 -0.0824927 6.47996 17.3955 -0.0824927
278 2 8.58419 17.3675 1.31433 8.58419 17.3675 1.31433
279 2 8.12151 17.4927 -1.98683 8.12151 17.4927 -1.98683
280 1 9.32494 18.9027 -0.471384 9.32494 18.9027 -0.471384
281 2 11.198 18.9076 1.20951 11.198 18.9076 1.20951
282 2 11.2213 19.2173 -2.03468 11.2213 19.2173 -2.03468
283 1 12.2703 17.3152 -0.569417 12.2703 17.3152 -0.569417
284 2 13.9405 17.3855 1.19312 13.9405 17.3855 1.19312
285 2 14.3242 17.4424 -2.16221 14.3242 17.4424 -2.16221
286 1 15.143 18.9275 -0.481691 15.143 18.9275 -0.481691
287 2 16.8922 18.9455 1.35896 16.8922 18.9455 1.35896
288 2 17.2517 18.8968 -1.81748 17.2517 18.8968 -1.81748
289 1 18.0699 17.3065 -0.0892857 18.0699 17.3065 -0.0892857
290 2 19.8721 17.2924 1.60091 19.8721 17.2924 1.60091
291 2 19.8162 17.3959 -1.74803 19.8162 17.3959 -1.74803
292 1 20.8586 18.9851 -0.00831955 20.8586 18.9851 -0.00831955
293 2 22.4091 18.9781 1.76546 22.4091 18.9781 1.76546
294 2 22.8502 19.0121 -1.48664 22.8502 19.0121 -1.48664
295 1 23.6804 17.3847 0.23426 23.6804 17.3847 0.23426
296 2 25.4145 17.6235 1.90043 25.4145 17.6235 1.90043
297 2 25.6037 17.2553 -1.3007 25.6037 17.2553 -1.3007
298 1 26.4751 19.1401 0.287099 26.4751 19.1401 0.287099
299 2 28.2298 19.1053 2.02494 28.2298 19.1053 2.02494
300 2 28.3925 18.9921 -1.24082 28.3925 18.9921 -1.24082
301 1 29.4112 17.3399 0.475705 29.4112 17.3399 0.475705
302 2 31.1972 17.2649 2.13885 31.1972 17.2649 2.13885
303 2 31.292 17.5019 -1.16081 31.292 17.5019 -1.16081
304 1 32.1226 19.123 0.620219 32.1226 19.123 0.620219
305 2 34.3214 19.1379 1.83976 34.3214 19.1379 1.83976
306 2 33.9093 18.9236 -1.36067 33.9093 18.9236 -1.36067
307 1 35.0428 17.3942 0.270533 35.0428 17.3942 0.270533
308 2 37.1313 17.6101 1.77861 37.1313 17.6101 1.77861
309 2 36.8542 17.3592 -1.50305 36.8542 17.3592 -1.50305
310 1 37.9098 19.1395 -0.0148032 37.9098 19.1395 -0.0148032
311 2 39.8078 19.2559 1.5987 39.8078 19.2559 1.5987
312 2 39.7689 18.9408 -1.63717 39.7689 18.9408 -1.63717
313 1 40.7301 17.4956 0.205306 40.7301 17.4956 0.205306
314 2 42.5428 17.5825 1.7558 42.5428 17.5825 1.7558
315 2 42.5124 17.3489 -1.53295 42.5124 17.3489 -1.53295
316 1 43.4828 19.1072 0.03002 43.4828 19.1072 0.03002
317 2 45.5301 19.2248 1.5688 45.5301 19.2248 1.5688
318 2 45.3218 18.9283 -1.60562 45.3218 18.9283 -1.60562
319 1 46.4667 17.4378 0.0836244 46.4667 17.4378 0.0836244
320 2 48.3928 17.4645 1.71833 48.3928 17.4645 1.71833
321 2 48.2043 17.3667 -1.64115 48.2043 17.3667 -1.64115
322 1 49.3011 19.107 -0.103619 49.3011 19.107 -0.103619
323 2 51.2166 19.0278 1.58678 51.2166 19.0278 1.58678
324 2 51.2414 18.9354 -1.6847 51.2414 18.9354 -1.6847
325 1 52.167 20.7134 -0.0883555 0.832175 20.7134 -0.0883555
326 2 2.6593 20.6139 1.76382 2.6593 20.6139 1.76382
327 2 2.81528 20.6328 -1.5908 2.81528 20.6328 -1.5908
328 1 3.64339 22.3272 0.251309 3.64339 22.3272 0.251309
329 2 5.53115 22.2393 1.75737 5.53115 22.2393 1.75737
330 2 5.45402 22.2778 -1.4387 5.45402 22.2778 -1.4387
331 1 6.51718 20.6315 0.156664 6.51718 20.6315 0.156664
332 2 8.57748 20.3058 1.55055 8.57748 20.3058 1.55055
333 2 8.27901 20.8973 -1.61878 8.27901 20.8973 -1.61878
334 1 9.46391 22.2682 0.145264 9.46391 22.2682 0.145264
335 2 11.6343 22.1234 1.63697 11.6343 22.1234 1.63697
336 2 11.2734 22.3847 -1.71607 11.2734 22.3847 -1.71607
337 1 12.258 20.5876 -0.283824 12.258 20.5876 -0.283824
338 2 13.9802 20.3034 1.43835 13.9802 20.3034 1.43835
339 2 14.2082 20.8186 -1.8809 14.2082 20.8186 -1.8809
340 1 15.0267 22.1608 0.138609 15.0267 22.1608 0.138609
341 2 17.0357 22.2693 1.54859 17.0357 22.2693 1.54859
342 2 16.7913 22.2413 -1.56942 16.7913 22.2413 -1.56942
343 1 17.8999 20.6256 -0.197005 17.8999 20.6256 -0.197005
344 2 19.6681 20.5819 1.60529 19.6681 20.5819 1.60529
345 2 19.8611 20.7533 -1.67414 19.8611 20.7533 -1.67414
346 1 20.7967 22.2657 0.0527084 20.7967 22.2657 0.0527084
347 2 22.5759 22.2939 1.91012 22.5759 22.2939 1.91012
348 2 22.8581 22.3575 -1.38518 22.8581 22.3575 -1.38518
349 1 23.5767 20.6564 0.343051 23.5767 20.6564 0.343051
350 2 25.48 20.784 1.96722 25.48 20.784 1.96722
351 2 25.429 20.5931 -1.3508 25.429 20.5931 -1.3508
352 1 26.3746 22.3363 0.176 26.3746 22.3363 0.176
353 2 28.1695 22.4366 1.92576 28.1695 22.4366 1.92576
354 2 28.4001 22.3529 -1.32224 28.4001 22.3529 -1.32224
355 1 29.2437 20.8036 0.422681 29.2437 20.8036 0.422681
356 2 31.1502 20.7857 2.15091 31.1502 20.7857 2.15091
357 2 31.2417 20.5726 -1.07832 31.2417 20.5726 -1.07832
358 1 32.1883 22.318 0.460224 32.1883 22.318 0.460224
359 2 34.3705 22.3242 1.81897 34.3705 22.3242 1.81897
360 2 33.8926 22.332 -1.40012 33.8926 22.332 -1.40012
361 1 35.0081 20.6634 0.034961 35.0081 20.6634 0.034961
362 2 36.9861 20.7389 1.67368 36.9861 20.7389 1.67368
363 2 37.0209 20.7763 -1.65715 37.0209 20.7763 -1.65715
364 1 37.8432 22.3829 -0.0833537 37.8432 22.3829 -0.0833537
365 2 39.8673 22.4164 1.46896 39.8673 22.4164 1.46896
366 2 39.769 22.4763 -1.79513 39.769 22.4763 -1.79513
367 1 40.697 20.7633 -0.176673 40.697 20.7633 -0.176673
368 2 42.5089 20.9187 1.51013 42.5089 20.9187 1.51013
369 2 42.7096 20.7285 -1.67937 42.7096 20.7285 -1.67937
370 1 43.6567 22.4191 -0.125976 43.6567 22.4191 -0.125976
371 2 45.513 22.4399 1.49732 45.513 22.4399 1.49732
372 2 45.5145 22.4091 -1.85476 45.5145 22.4091 -1.85476
373 1 46.4056 20.6893 -0.165811 46.4056 20.6893 -0.165811
374 2 48.2694 20.771 1.43493 48.2694 20.771 1.43493
375 2 48.308 20.624 -1.73274 48.308 20.624 -1.73274
376 1 49.2535 22.411 -0.156547 49.2535 22.411 -0.156547
377 2 51.0925 22.2625 1.52067 51.0925 22.2625 1.52067
378 2 51.2376 22.4106 -1.7198 51.2376 22.4106 -1.7198
379 1 52.0785 23.9613 0.0663907 0.743693 23.9613 0.0663907
380 2 2.58377 23.8543 1.82964 2.58377 23.8543 1.82964
381 2 2.75731 23.8972 -1.42763 2.75731 23.8972 -1.42763
382 1 3.49662 25.589 0.159512 3.49662 25.589 0.159512
383 2 5.43737 25.5224 1.86042 5.43737 25.5224 1.86042
384 2 5.62301 25.5428 -1.50189 5.62301 25.5428 -1.50189
385 1 6.50399 23.9002 0.116633 6.50399 23.9002 0.116633
386 2 8.37909 23.8046 1.84596 8.37909 23.8046 1.84596
387 2 8.49489 23.8697 -1.46712 8.49489 23.8697 -1.46712
388 1 9.38751 25.5186 0.293757 9.38751 25.5186 0.293757
389 2 11.442 25.5853 1.69402 11.442 25.5853 1.69402
390 2 11.0705 25.4809 -1.63589 11.0705 25.4809 -1.63589
391 1 12.2433 23.955 -0.0478508 12.2433 23.955 -0.0478508
392 2 14.0242 23.8655 1.75774 14.0242 23.8655 1.75774
393 2 14.2538 23.9532 -1.57343 14.2538 23.9532 -1.57343
394 1 15.0801 25.4871 0.187231 15.0801 25.4871 0.187231
395 2 17.1108 25.6959 1.5806 17.1108 25.6959 1.5806
396 2 16.8125 25.4682 -1.6882 16.8125 25.4682 -1.6882
397 1 17.9699 23.9219 -0.124763 17.9699 23.9219 -0.124763
398 2 19.7106 23.7843 1.65352 19.7106 23.7843 1.65352
399 2 19.9844 24.1589 -1.54311 19.9844 24.1589 -1.54311
400 1 20.8409 25.6442 0.259639 20.8409 25.6442 0.259639
401 2 22.4978 25.4251 2.01729 22.4978 25.4251 2.01729
402 2 22.8092 25.8233 -1.19912 22.8092 25.8233 -1.19912
403 1 23.6722 24.0103 0.326142 23.6722 24.0103 0.326142
404 2 25.4471 23.84 1.96899 25.4471 23.84 1.96899
405 2 25.5575 24.1068 -1.28446 25.5575 24.1068 -1.28446
406 1 26.4551 25.6193 0.604397 26.4551 25.6193 0.604397
407 2 28.4539 25.6236 2.14557 28.4539 25.6236 2.14557
408 2 28.0951 25.6109 -1.21236 28.0951 25.6109 -1.21236
409 1 29.3158 23.9896 0.418108 29.3158 23.9896 0.418108
410 2 31.3083 23.9614 2.01543 31.3083 23.9614 2.01543
411 2 31.3124 23.9042 -1.29865 31.3124 23.9042 -1.29865
412 1 32.2529 25.6351 0.327048 32.2529 25.6351 0.327048
413 2 34.1752 25.6465 1.87141 34.1752 25.6465 1.87141
414 2 33.9951 25.6518 -1.39978 33.9951 25.6518 -1.39978
415 1 35.02 23.9686 0.204705 35.02 23.9686 0.204705
416 2 37.0976 23.9407 1.68449 37.0976 23.9407 1.68449
417 2 36.79 24.0632 -1.56697 36.79 24.0632 -1.56697
418 1 37.9162 25.7317 0.0612437 37.9162 25.7317 0.0612437
419 2 39.9653 25.7256 1.51215 39.9653 25.7256 1.51215
420 2 39.5707 25.7384 -1.76746 39.5707 25.7384 -1.76746
421 1 40.7551 24.0647 -0.203901 40.7551 24.0647 -0.203901
422 2 42.5979 23.9956 1.50888 42.5979 23.9956 1.50888
423 2 42.7181 23.9519 -1.83426 42.7181 23.9519 -1.83426
424 1 43.5881 25.7211 -0.224756 43.5881 25.7211 -0.224756
425 2 45.4586 25.6791 1.3842 45.4586 25.6791 1.3842
426 2 45.423 25.6526 -2.00658 45.423 25.6526 -2.00658
427 1 46.4271 24.0514 -0.218393 46.4271 24.0514 -0.218393
428 2 48.3013 23.9446 1.44493 48.3013 23.9446 1.44493
429 2 48.4296 24.0629 -1.82436 48.4296 24.0629 -1.82436
430 1 49.3079 25.6285 -0.15957 49.3079 25.6285 -0.15957
431 2 51.0728 25.7504 1.595 51.0728 25.7504 1.595
432 2 51.3246 25.527 -1.71443 51.3246 25.527 -1.71443
433 1 52.1278 27.2707 -0.0965986 0.792976 27.2707 -0.0965986
434 2 2.51446 27.3588 1.63412 2.51446 27.3588 1.63412
435 2 2.69532 27.0599 -1.69264 2.69532 27.0599 -1.69264
436 1 3.63946 28.8287 -0.155833 3.63946 28.8287 -0.155833
437 2 5.42266 29.0186 1.68945 5.42266 29.0186 1.68945
438 2 5.62581 28.6036 -1.68222 5.62581 28.6036 -1.68222
439 1 6.48139 27.2199 0.242349 6.48139 27.2199 0.242349
440 2 8.48447 27.3584 1.85746 8.48447 27.3584 1.85746
441 2 8.45981 27.1042 -1.41018 8.45981 27.1042 -1.41018
442 1 9.34738 28.894 0.0326463 9.34738 28.894 0.0326463
443 2 11.3738 28.857 1.5951 11.3738 28.857 1.5951
444 2 11.2358 28.9362 -1.69685 11.2358 28.9362 -1.69685
445 1 12.2347 27.208 -0.0957015 12.2347 27.208 -0.0957015
446 2 13.9867 27.3498 1.56038 13.9867 27.3498 1.56038
447 2 14.1815 27.0082 -1.66535 14.1815 27.0082 -1.66535
448 1 15.0709 28.8113 -0.279553 15.0709 28.8113 -0.279553
449 2 16.913 28.8507 1.494 16.913 28.8507 1.494
450 2 16.9209 28.95 -1.83498 16.9209 28.95 -1.83498
451 1 17.9369 27.2676 -0.164335 17.9369 27.2676 -0.164335
452 2 19.7135 27.3437 1.65874 19.7135 27.3437 1.65874
453 2 20.0049 27.0915 -1.60342 20.0049 27.0915 -1.60342
454 1 20.8292 28.8525 -0.0182936 20.8292 28.8525 -0.0182936
455 2 22.4601 29.0739 1.82974 22.4601 29.0739 1.82974
456 2 22.8824 28.7869 -1.36865 22.8824 28.7869 -1.36865
457 1 23.6264 27.2949 0.620888 23.6264 27.2949 0.620888
458 2 25.6981 27.3592 2.16387 25.6981 27.3592 2.16387
459 2 25.4516 27.1836 -1.1725 25.4516 27.1836 -1.1725
460 1 26.4603 28.8795 0.465075 26.4603 28.8795 0.465075
461 2 28.3282 28.7438 2.04899 28.3282 28.7438 2.04899
462 2 28.3688 28.9104 -1.17397 28.3688 28.9104 -1.17397
463 1 29.3036 27.1413 0.352072 29.3036 27.1413 0.352072
464 2 31.1756 27.3253 1.92567 31.1756 27.3253 1.92567
465 2 31.2548 27.1465 -1.32114 31.2548 27.1465 -1.32114
466 1 32.2007 28.9249 0.208352 32.2007 28.9249 0.208352
467 2 33.9563 28.8672 1.92282 33.9563 28.8672 1.92282
468 2 34.2687 29.0398 -1.29569 34.2687 29.0398 -1.29569
469 1 35.0551 27.295 0.296438 35.0551 27.295 0.296438
470 2 37.094 27.332 1.74775 37.094 27.332 1.74775
471 2 36.7931 27.2214 -1.52033 36.7931 27.2214 -1.52033
472 1 37.8236 28.9976 0.0591558 37.8236 28.9976 0.0591558
473 2 39.8802 28.9739 1.49531 39.8802 28.9739 1.49531
474 2 39.628 28.7877 -1.74524 39.628 28.7877 -1.74524
475 1 40.725 27.308 -0.184261 40.725 27.308 -0.184261
476 2 42.6232 27.4252 1.45324 42.6232 27.4252 1.45324
477 2 42.5815 27.2503 -1.8164 42.5815 27.2503 -1.8164
478 1 43.5394 28.9126 -0.225908 43.5394 28.9126 -0.225908
479 2 45.5417 29.1333 1.30819 45.5417 29.1333 1.30819
480 2 45.2715 28.874 -1.92833 45.2715 28.874 -1.92833
481 1 46.4658 27.3386 -0.356733 46.4658 27.3386 -0.356733
482 2 48.2363 27.4509 1.27237 48.2363 27.4509 1.27237
483 2 48.4064 27.2256 -1.96856 48.4064 27.2256 -1.96856
484 1 49.2922 29.0207 -0.368146 49.2922 29.0207 -0.368146
485 2 51.1044 29.0961 1.29024 51.1044 29.0961 1.29024
486 2 51.3405 28.874 -1.84461 51.3405 28.874 -1.84461
487 1 52.2095 30.5686 -0.299282 0.87464 30.5686 -0.299282
488 2 2.65976 30.5183 1.40496 2.65976 30.5183 1.40496
489 2 2.82533 30.3914 -1.84097 2.82533 30.3914 -1.84097
490 1 3.7111 32.0652 -0.271381 3.7111 32.0652 -0.271381
491 2 5.58721 32.1695 1.46603 5.58721 32.1695 1.46603
492 2 5.67653 32.0502 -1.86035 5.67653 32.0502 -1.86035
493 1 6.54003 30.4883 -0.104389 6.54003 30.4883 -0.104389
494 2 8.45673 30.5115 1.55758 8.45673 30.5115 1.55758
495 2 8.4619 30.3702 -1.76825 8.4619 30.3702 -1.76825
496 1 9.39314 32.0815 -0.0873768 9.39314 32.0815 -0.0873768
497 2 11.1915 32.038 1.64152 11.1915 32.038 1.64152
498 2 11.3588 32.3325 -1.64349 11.3588 32.3325 -1.64349
499 1 12.239 30.5688 -0.100324 12.239 30.5688 -0.100324
500 2 14.231 30.4598 1.45716 14.231 30.4598 1.45716
501 2 13.9596 30.4784 -1.78278 13.9596 30.4784 -1.78278
502 1 15.1061 32.1384 -0.245085 15.1061 32.1384 -0.245085
503 2 16.8311 32.2819 1.46001 16.8311 32.2819 1.46001
504 2 17.0702 32.0936 -1.81873 17.0702 32.0936 -1.81873
505 1 17.9453 30.4861 -0.129544 17.9453 30.4861 -0.129544
506 2 19.8013 30.6182 1.48565 19.8013 30.6182 1.48565
507 2 19.8453 30.3944 -1.847 19.8453 30.3944 -1.847
508 1 20.7215 32.1572 -0.233261 20.7215 32.1572 -0.233261
509 2 22.4246 32.2538 1.57012 22.4246 32.2538 1.57012
510 2 22.8262 32.0625 -1.58829 22.8262 32.0625 -1.58829
511 1 23.6608 30.4976 0.199408 23.6608 30.4976 0.199408
512 2 25.4153 30.5866 1.94984 25.4153 30.5866 1.94984
513 2 25.6542 30.4519 -1.33872 25.6542 30.4519 -1.33872
514 1 26.5524 32.1034 0.360468 26.5524 32.1034 0.360468
515 2 28.5344 32.2652 1.91248 28.5344 32.2652 1.91248
516 2 28.3423 31.9501 -1.30507 28.3423 31.9501 -1.30507
517 1 29.2911 30.449 0.486479 29.2911 30.449 0.486479
518 2 31.4065 30.6023 1.95526 31.4065 30.6023 1.95526
519 2 31.0887 30.5287 -1.35984 31.0887 30.5287 -1.35984
520 1 32.1477 32.189 0.275815 32.1477 32.189 0.275815
521 2 34.132 32.4409 1.75182 34.132 32.4409 1.75182
522 2 34.1313 32.0105 -1.36656 34.1313 32.0105 -1.36656
523 1 35.0887 30.679 0.419312 35.0887 30.679 0.419312
524 2 37.2385 30.7983 1.73732 37.2385 30.7983 1.73732
525 2 36.7729 30.5203 -1.51883 36.7729 30.5203 -1.51883
526 1 37.9248 32.2889 -0.190157 37.9248 32.2889 -0.190157
527 2 39.8099 32.1578 1.37693 39.8099 32.1578 1.37693
528 2 39.7194 32.3231 -1.86218 39.7194 32.3231 -1.86218
529 1 40.6927 30.5502 -0.342797 40.6927 30.5502 -0.342797
530 2 42.5394 30.567 1.39123 42.5394 30.567 1.39123
531 2 42.571 30.4123 -1.9133 42.571 30.4123 -1.9133
532 1 43.5377 32.2 -0.353953 43.5377 32.2 -0.353953
533 2 45.3869 32.0452 1.41895 45.3869 32.0452 1.41895
534 2 45.5221 32.456 -1.90781 45.5221 32.456 -1.90781
535 1 46.4201 30.6072 -0.462296 46.4201 30.6072 -0.462296
536 2 48.2677 30.4963 1.23454 48.2677 30.4963 1.23454
537 2 48.3387 30.6275 -2.05337 48.3387 30.6275 -2.05337
538 1 49.269 32.1463 -0.33847 49.269 32.1463 -0.33847
539 2 51.3252 32.1708 1.35844 51.3252 32.1708 1.35844
540 2 51.2355 32.1583 -1.89816 51.2355 32.1583 -1.89816
541 1 52.2982 33.8029 -0.235875 0.963347 33.8029 -0.235875