ITEM: TIMESTEP
9800
ITEM: NUMBER OF ATOMS
810
ITEM: BOX BOUNDS pp pp pp
8.4137701477268123e-01 5.2176227985227342e+01
8.0961581116522285e-01 5.0206599188834083e+01
-1.0000000000000000e+01 1.0000000000000000e+01
ITEM: ATOMS id type x y z xu yu zu
1 1 52.2057 50.4331 0.0327863 0.870853 1.03613 0.0327863
2 2 2.72897 50.3726 1.64137 2.72897 0.975604 1.64137
3 2 2.75049 50.4552 -1.56863 2.75049 1.05818 -1.56863
4 1 3.69136 2.57393 0.102495 3.69136 2.57393 0.102495
5 2 5.45432 2.58892 1.87485 5.45432 2.58892 1.87485
6 2 5.77267 2.6169 -1.34624 5.77267 2.6169 -1.34624
7 1 6.61071 50.3574 0.327351 6.61071 0.960412 0.327351
8 2 8.39789 50.1665 2.052 8.39789 0.769476 2.052
9 2 8.60655 50.5657 -1.17459 8.60655 1.16874 -1.17459
10 1 9.46503 2.6199 0.695097 9.46503 2.6199 0.695097
11 2 11.3889 2.5345 2.1822 11.3889 2.5345 2.1822
12 2 11.3657 2.76735 -0.985834 11.3657 2.76735 -0.985834
13 1 12.3367 50.3813 0.453302 12.3367 0.984325 0.453302
14 2 14.4974 50.4144 1.95529 14.4974 1.01745 1.95529
15 2 14.1319 50.2738 -1.26813 14.1319 0.876767 -1.26813
16 1 15.193 2.65128 0.248554 15.193 2.65128 0.248554
17 2 17.1291 2.55332 1.74399 17.1291 2.55332 1.74399
18 2 17.0016 2.64962 -1.48998 17.0016 2.64962 -1.48998
19 1 18.0354 50.4072 0.0426952 18.0354 1.01019 0.0426952
20 2 19.8429 50.3383 1.74246 19.8429 0.941292 1.74246
21 2 20.0304 50.4073 -1.5389 20.0304 1.01032 -1.5389
22 1 20.8554 2.67262 0.218681 20.8554 2.67262 0.218681
23 2 22.8278 2.46006 1.78726 22.8278 2.46006 1.78726
24 2 22.7753 2.5203 -1.41516 22.7753 2.5203 -1.41516
25 1 23.6104 50.2798 0.0834086 23.6104 0.882841 0.0834086
26 2 25.6729 50.272 1.6408 25.6729 0.875029 1.6408
27 2 25.4806 50.3827 -1.66131 25.4806 0.98569 -1.66131
28 1 26.6237 2.57784 0.0231032 26.6237 2.57784 0.0231032
29 2 28.4107 2.59485 1.60573 28.4107 2.59485 1.60573
30 2 28.5156 2.71098 -1.64331 28.5156 2.71098 -1.64331
31 1 29.4212 50.3599 -0.121277 29.4212 0.962943 -0.121277
32 2 31.2503 50.1541 1.5899 31.2503 0.757126 1.5899
33 2 31.2896 50.5762 -1.65199 31.2896 1.17924 -1.65199
34 1 32.2495 2.58357 0.219514 32.2495 2.58357 0.219514
35 2 34.1745 2.38876 1.75998 34.1745 2.38876 1.75998
36 2 34.2009 2.72079 -1.43064 34.2009 2.72079 -1.43064
37 1 35.0251 50.2885 0.0912913 35.0251 0.891549 0.0912913
38 2 37.0148 50.2331 1.6209 37.0148 0.836122 1.6209
39 2 36.916 50.4322 -1.67532 36.916 1.0352 -1.67532
40 1 37.961 2.63597 0.0186724 37.961 2.63597 0.0186724
41 2 39.7782 2.50996 1.64331 39.7782 2.50996 1.64331
42 2 39.8288 2.68809 -1.63496 39.8288 2.68809 -1.63496
43 1 40.751 50.3993 0.00191659 40.751 1.00235 0.00191659
44 2 42.6861 50.2664 1.65558 42.6861 0.869398 1.65558
45 2 42.5339 50.6096 -1.6182 42.5339 1.21264 -1.6182
46 1 43.688 2.74325 0.137956 43.688 2.74325 0.137956
47 2 45.7541 2.79491 1.59274 45.7541 2.79491 1.59274
48 2 45.5411 2.74162 -1.58068 45.5411 2.74162 -1.58068
49 1 46.5283 50.5192 -0.0233815 46.5283 1.12225 -0.0233815
50 2 48.4088 50.376 1.55021 48.4088 0.979008 1.55021
51 2 48.4753 50.6763 -1.69393 48.4753 1.27935 -1.69393
52 1 49.4067 2.81314 0.13767 49.4067 2.81314 0.13767
53 2 51.24 2.56054 1.7546 51.24 2.56054 1.7546
54 2 51.337 2.82041 -1.46359 51.337 2.82041 -1.46359
55 1 52.2419 4.2497 0.328257 0.907094 4.2497 0.328257
56 2 2.92562 4.3649 1.84679 2.92562 4.3649 1.84679
57 2 2.72462 4.20677 -1.49263 2.72462 4.20677 -1.49263
58 1 3.8014 5.84993 0.0992554 3.8014 5.84993 0.0992554
59 2 5.75796 6.04723 1.86203 5.75796 6.04723 1.86203
60 2 5.79094 5.75372 -1.40886 5.79094 5.75372 -1.40886
61 1 6.6189 4.26413 0.432994 6.6189 4.26413 0.432994
62 2 8.44197 4.52346 2.04574 8.44197 4.52346 2.04574
63 2 8.66432 4.14242 -1.14067 8.66432 4.14242 -1.14067
64 1 9.53492 5.9322 0.296171 9.53492 5.9322 0.296171
65 2 11.4316 6.21343 1.88167 11.4316 6.21343 1.88167
66 2 11.3878 5.71275 -1.31663 11.3878 5.71275 -1.31663
67 1 12.4291 4.27744 0.615441 12.4291 4.27744 0.615441
68 2 14.5374 4.334 1.90184 14.5374 4.334 1.90184
69 2 14.0274 4.29179 -1.31486 14.0274 4.29179 -1.31486
70 1 15.1797 5.91987 0.0779945 15.1797 5.91987 0.0779945
71 2 17.1247 5.90061 1.75641 17.1247 5.90061 1.75641
72 2 17.1724 5.89627 -1.52693 17.1724 5.89627 -1.52693
73 1 18.0154 4.24959 0.160101 18.0154 4.24959 0.160101
74 2 19.9025 4.37274 1.91735 19.9025 4.37274 1.91735
75 2 20.0039 4.2751 -1.40425 20.0039 4.2751 -1.40425
76 1 20.8563 5.8824 0.292035 20.8563 5.8824 0.292035
77 2 22.7811 5.79107 1.93948 22.7811 5.79107 1.93948
78 2 22.635 5.8789 -1.2864 22.635 5.8789 -1.2864
79 1 23.6676 4.18562 0.245416 23.6676 4.18562 0.245416
80 2 25.5789 4.10137 1.81446 25.5789 4.10137 1.81446
81 2 25.5327 4.32535 -1.41215 25.5327 4.32535 -1.41215
82 1 26.5946 5.76683 0.347528 26.5946 5.76683 0.347528
83 2 28.5759 5.77606 1.84842 28.5759 5.77606 1.84842
84 2 28.4698 6.0154 -1.35202 28.4698 6.0154 -1.35202
85 1 29.5076 4.23288 0.0394753 29.5076 4.23288 0.0394753
86 2 31.2244 4.23436 1.75852 31.2244 4.23436 1.75852
87 2 31.315 4.32872 -1.54691 31.315 4.32872 -1.54691
88 1 32.2138 5.88403 0.235211 32.2138 5.88403 0.235211
89 2 34.1378 5.84205 1.98593 34.1378 5.84205 1.98593
90 2 34.155 5.80624 -1.39529 34.155 5.80624 -1.39529
91 1 35.0725 4.15725 0.351316 35.0725 4.15725 0.351316
92 2 36.9886 3.92486 1.84888 36.9886 3.92486 1.84888
93 2 36.9065 4.36909 -1.32479 36.9065 4.36909 -1.32479
94 1 37.8782 5.90378 0.399276 37.8782 5.90378 0.399276
95 2 39.8143 5.8746 1.89067 39.8143 5.8746 1.89067
96 2 39.6831 5.98073 -1.40374 39.6831 5.98073 -1.40374
97 1 40.7327 4.16897 0.0761825 40.7327 4.16897 0.0761825
98 2 42.7344 4.38836 1.77958 42.7344 4.38836 1.77958
99 2 42.7526 4.23142 -1.61263 42.7526 4.23142 -1.61263
100 1 43.6107 5.93561 0.0432494 43.6107 5.93561 0.0432494
101 2 45.4355 5.87908 1.78779 45.4355 5.87908 1.78779
102 2 45.5445 6.13412 -1.4809 45.5445 6.13412 -1.4809
103 1 46.4844 4.4587 -0.0356579 46.4844 4.4587 -0.0356579
104 2 48.3393 4.30017 1.74743 48.3393 4.30017 1.74743
105 2 48.3745 4.29872 -1.54839 48.3745 4.29872 -1.54839
106 1 49.3733 5.95444 0.171406 49.3733 5.95444 0.171406
107 2 51.2375 5.9894 1.86557 51.2375 5.9894 1.86557
108 2 51.4627 5.89898 -1.36896 51.4627 5.89898 -1.36896
109 1 52.3445 7.55692 0.309486 1.00969 7.55692 0.309486
110 2 2.8759 7.37618 1.84319 2.8759 7.37618 1.84319
111 2 2.80811 7.51634 -1.41189 2.80811 7.51634 -1.41189
112 1 3.81384 9.19259 0.290826 3.81384 9.19259 0.290826
113 2 5.85509 8.96633 1.82281 5.85509 8.96633 1.82281
114 2 5.64893 9.32077 -1.37689 5.64893 9.32077 -1.37689
115 1 6.68428 7.51224 0.0728198 6.68428 7.51224 0.0728198
116 2 8.64372 7.77281 1.81164 8.64372 7.77281 1.81164
117 2 8.5122 7.4452 -1.46465 8.5122 7.4452 -1.46465
118 1 9.4664 9.26247 -0.0192938 9.4664 9.26247 -0.0192938
119 2 11.4561 9.3661 1.49444 11.4561 9.3661 1.49444
120 2 11.3065 9.15361 -1.67149 11.3065 9.15361 -1.67149
121 1 12.3436 7.55282 -0.0646633 12.3436 7.55282 -0.0646633
122 2 14.2788 7.65896 1.52051 14.2788 7.65896 1.52051
123 2 14.2273 7.41664 -1.73624 14.2273 7.41664 -1.73624
124 1 15.1346 9.16787 -0.270706 15.1346 9.16787 -0.270706
125 2 16.9193 9.39212 1.39018 16.9193 9.39212 1.39018
126 2 17.1011 8.9519 -1.79861 17.1011 8.9519 -1.79861
127 1 18.0001 7.55189 0.12841 18.0001 7.55189 0.12841
128 2 19.9392 7.667 1.76376 19.9392 7.667 1.76376
129 2 19.8997 7.41634 -1.49587 19.8997 7.41634 -1.49587
130 1 20.9095 9.14197 -0.0467971 20.9095 9.14197 -0.0467971
131 2 22.6375 9.19147 1.83314 22.6375 9.19147 1.83314
132 2 22.9239 8.97489 -1.42207 22.9239 8.97489 -1.42207
133 1 23.7277 7.44077 0.436711 23.7277 7.44077 0.436711
134 2 25.6593 7.50852 1.95703 25.6593 7.50852 1.95703
135 2 25.4421 7.40254 -1.2163 25.4421 7.40254 -1.2163
136 1 26.6364 9.13096 0.269778 26.6364 9.13096 0.269778
137 2 28.5096 9.38693 1.82733 28.5096 9.38693 1.82733
138 2 28.4773 9.19388 -1.44874 28.4773 9.19388 -1.44874
139 1 29.3333 7.57206 0.336713 29.3333 7.57206 0.336713
140 2 31.3982 7.50388 1.8495 31.3982 7.50388 1.8495
141 2 31.1108 7.51403 -1.36574 31.1108 7.51403 -1.36574
142 1 32.2221 9.1512 0.301634 32.2221 9.1512 0.301634
143 2 34.2463 9.31883 1.90015 34.2463 9.31883 1.90015
144 2 34.1021 9.02305 -1.42492 34.1021 9.02305 -1.42492
145 1 35.0226 7.52271 0.320623 35.0226 7.52271 0.320623
146 2 37.0254 7.7003 1.86003 37.0254 7.7003 1.86003
147 2 36.9992 7.42431 -1.32165 36.9992 7.42431 -1.32165
148 1 37.9694 9.21428 0.126572 37.9694 9.21428 0.126572
149 2 39.7656 9.12967 1.84284 39.7656 9.12967 1.84284
150 2 39.9046 9.30419 -1.34536 39.9046 9.30419 -1.34536
151 1 40.8633 7.55573 0.218011 40.8633 7.55573 0.218011
152 2 42.7228 7.45251 1.81279 42.7228 7.45251 1.81279
153 2 42.7052 7.69295 -1.46054 42.7052 7.69295 -1.46054
154 1 43.6567 9.23391 0.344871 43.6567 9.23391 0.344871
155 2 45.7269 9.32722 1.82356 45.7269 9.32722 1.82356
156 2 45.3912 9.30275 -1.35914 45.3912 9.30275 -1.35914
157 1 46.5546 7.65636 0.257585 46.5546 7.65636 0.257585
158 2 48.4878 7.57277 1.84806 48.4878 7.57277 1.84806
159 2 48.4298 7.7353 -1.46277 48.4298 7.7353 -1.46277
160 1 49.4239 9.25255 0.182974 49.4239 9.25255 0.182974
161 2 51.3731 9.28101 1.83707 51.3731 9.28101 1.83707
162 2 51.3589 9.19517 -1.38671 51.3589 9.19517 -1.38671
163 1 52.3452 10.8372 0.159422 1.01032 10.8372 0.159422
164 2 2.87994 11.1005 1.87487 2.87994 11.1005 1.87487
165 2 2.87378 10.7396 -1.48476 2.87378 10.7396 -1.48476
166 1 3.80532 12.5674 0.00592947 3.80532 12.5674 0.00592947
167 2 5.53752 12.5126 1.86084 5.53752 12.5126 1.86084
168 2 5.88073 12.3915 -1.47397 5.88073 12.3915 -1.47397
169 1 6.66652 10.85 0.368032 6.66652 10.85 0.368032
170 2 8.67552 10.8564 1.81406 8.67552 10.8564 1.81406
171 2 8.40751 11.0291 -1.52058 8.40751 11.0291 -1.52058
172 1 9.46315 12.5848 0.126865 9.46315 12.5848 0.126865
173 2 11.5174 12.5274 1.46176 11.5174 12.5274 1.46176
174 2 11.1231 12.5047 -1.79009 11.1231 12.5047 -1.79009
175 1 12.3457 10.8361 -0.129872 12.3457 10.8361 -0.129872
176 2 14.4853 10.9806 1.34436 14.4853 10.9806 1.34436
177 2 13.9975 10.8124 -1.83321 13.9975 10.8124 -1.83321
178 1 15.1516 12.5769 -0.526447 15.1516 12.5769 -0.526447
179 2 16.9053 12.5827 1.16825 16.9053 12.5827 1.16825
180 2 17.0915 12.4025 -2.11262 17.0915 12.4025 -2.11262
181 1 17.9528 10.7967 -0.36072 17.9528 10.7967 -0.36072
182 2 19.6822 10.7615 1.46382 19.6822 10.7615 1.46382
183 2 20.0269 10.8305 -1.76945 20.0269 10.8305 -1.76945
184 1 20.7707 12.4674 -0.0327904 20.7707 12.4674 -0.0327904
185 2 22.7054 12.5341 1.67388 22.7054 12.5341 1.67388
186 2 22.8199 12.3779 -1.49046 22.8199 12.3779 -1.49046
187 1 23.7081 10.727 0.293177 23.7081 10.727 0.293177
188 2 25.7082 10.8422 1.88032 25.7082 10.8422 1.88032
189 2 25.5591 10.6608 -1.41307 25.5591 10.6608 -1.41307
190 1 26.5307 12.3787 0.165564 26.5307 12.3787 0.165564
191 2 28.6503 12.6494 1.68319 28.6503 12.6494 1.68319
192 2 28.4368 12.4304 -1.5643 28.4368 12.4304 -1.5643
193 1 29.4845 10.9009 0.0106931 29.4845 10.9009 0.0106931
194 2 31.2289 10.9037 1.76699 31.2289 10.9037 1.76699
195 2 31.5535 10.786 -1.45662 31.5535 10.786 -1.45662
196 1 32.2641 12.5139 0.253616 32.2641 12.5139 0.253616
197 2 34.3594 12.5587 1.72084 34.3594 12.5587 1.72084
198 2 34.1071 12.5664 -1.44839 34.1071 12.5664 -1.44839
199 1 35.0571 10.796 0.0724619 35.0571 10.796 0.0724619
200 2 36.8302 10.7659 1.76819 36.8302 10.7659 1.76819
201 2 37.1856 11.0263 -1.43609 37.1856 11.0263 -1.43609
202 1 37.9394 12.5272 0.397991 37.9394 12.5272 0.397991
203 2 39.7961 12.481 2.05 39.7961 12.481 2.05
204 2 39.9144 12.5796 -1.24394 39.9144 12.5796 -1.24394
205 1 40.8304 10.8991 0.43023 40.8304 10.8991 0.43023
206 2 42.747 10.9226 2.06786 42.747 10.9226 2.06786
207 2 42.7626 10.9218 -1.266 42.7626 10.9218 -1.266
208 1 43.5933 12.5691 0.345583 43.5933 12.5691 0.345583
209 2 45.6727 12.4053 1.94742 45.6727 12.4053 1.94742
210 2 45.5971 12.6873 -1.33743 45.5971 12.6873 -1.33743
211 1 46.6271 10.8888 0.161599 46.6271 10.8888 0.161599
212 2 48.552 10.9683 1.80718 48.552 10.9683 1.80718
213 2 48.5171 10.7955 -1.49548 48.5171 10.7955 -1.49548
214 1 49.4865 12.5099 0.0398945 49.4865 12.5099 0.0398945
215 2 51.3693 12.5306 1.72193 51.3693 12.5306 1.72193
216 2 51.4022 12.3738 -1.56254 51.4022 12.3738 -1.56254
217 1 52.2539 14.1389 0.0741134 0.919002 14.1389 0.0741134
218 2 2.79473 14.1502 1.6908 2.79473 14.1502 1.6908
219 2 2.87107 14.2265 -1.65326 2.87107 14.2265 -1.65326
220 1 3.77163 15.8478 0.0823676 3.77163 15.8478 0.0823676
221 2 5.72567 15.8445 1.72726 5.72567 15.8445 1.72726
222 2 5.64031 15.5843 -1.56302 5.64031 15.5843 -1.56302
223 1 6.66266 14.152 0.215756 6.66266 14.152 0.215756
224 2 8.67916 14.2768 1.70403 8.67916 14.2768 1.70403
225 2 8.43788 14.1462 -1.53101 8.43788 14.1462 -1.53101
226 1 9.47639 15.908 -0.129219 9.47639 15.908 -0.129219
227 2 11.3394 15.8063 1.44365 11.3394 15.8063 1.44365
228 2 11.3386 15.7664 -1.85887 11.3386 15.7664 -1.85887
229 1 12.2728 14.1585 -0.280164 12.2728 14.1585 -0.280164
230 2 14.2604 14.2429 1.22567 14.2604 14.2429 1.22567
231 2 13.9484 14.1307 -2.09071 13.9484 14.1307 -2.09071
232 1 15.2245 15.9061 -0.602742 15.2245 15.9061 -0.602742
233 2 17.0839 15.8231 1.06495 17.0839 15.8231 1.06495
234 2 17.0345 15.8568 -2.17403 17.0345 15.8568 -2.17403
235 1 17.9423 14.2275 -0.593849 17.9423 14.2275 -0.593849
236 2 19.6732 14.3959 1.32232 19.6732 14.3959 1.32232
237 2 20.0364 13.9953 -1.92467 20.0364 13.9953 -1.92467
238 1 20.7964 15.7498 -0.382565 20.7964 15.7498 -0.382565
239 2 22.6058 15.8685 1.38806 22.6058 15.8685 1.38806
240 2 22.97 15.6147 -1.74484 22.97 15.6147 -1.74484
241 1 23.8086 14.1479 0.0413411 23.8086 14.1479 0.0413411
242 2 25.6527 14.105 1.69478 25.6527 14.105 1.69478
243 2 25.687 13.8963 -1.63013 25.687 13.8963 -1.63013
244 1 26.5884 15.6241 -0.11335 26.5884 15.6241 -0.11335
245 2 28.4996 15.8296 1.55654 28.4996 15.8296 1.55654
246 2 28.5456 15.7532 -1.65123 28.5456 15.7532 -1.65123
247 1 29.493 14.1778 -0.0517609 29.493 14.1778 -0.0517609
248 2 31.198 14.1143 1.79747 31.198 14.1143 1.79747
249 2 31.4931 14.1504 -1.5577 31.4931 14.1504 -1.5577
250 1 32.2644 15.8147 0.20023 32.2644 15.8147 0.20023
251 2 34.2542 15.8336 1.78161 34.2542 15.8336 1.78161
252 2 34.2271 15.7576 -1.47883 34.2271 15.7576 -1.47883
253 1 35.1912 14.1883 0.133787 35.1912 14.1883 0.133787
254 2 37.0272 14.2462 1.86584 37.0272 14.2462 1.86584
255 2 37.0564 14.0496 -1.3668 37.0564 14.0496 -1.3668
256 1 37.9635 15.7569 0.0897878 37.9635 15.7569 0.0897878
257 2 39.768 15.9445 1.88969 39.768 15.9445 1.88969
258 2 39.9236 15.8365 -1.35668 39.9236 15.8365 -1.35668
259 1 40.8459 14.185 0.478204 40.8459 14.185 0.478204
260 2 42.7463 14.2085 2.08573 42.7463 14.2085 2.08573
261 2 42.6421 14.1982 -1.18721 42.6421 14.1982 -1.18721
262 1 43.7687 15.8301 0.438559 43.7687 15.8301 0.438559
263 2 45.7327 15.9537 1.98197 45.7327 15.9537 1.98197
264 2 45.5847 15.6394 -1.2346 45.5847 15.6394 -1.2346
265 1 46.6193 14.1237 0.438413 46.6193 14.1237 0.438413
266 2 48.6999 14.1177 1.85279 48.6999 14.1177 1.85279
267 2 48.3552 14.151 -1.39002 48.3552 14.151 -1.39002
268 1 49.4876 15.8211 0.237567 49.4876 15.8211 0.237567
269 2 51.4389 15.6568 1.82029 51.4389 15.6568 1.82029
270 2 51.2253 15.8641 -1.45301 51.2253 15.8641 -1.45301
271 1 52.2927 17.4076 0.230895 0.957882 17.4076 0.230895
272 2 2.99545 17.5984 1.687 2.99545 17.5984 1.687
273 2 2.70652 17.2691 -1.55237 2.70652 17.2691 -1.55237
274 1 3.81536 19.1724 -0.306538 3.81536 19.1724 -0.306538
275 2 5.58625 19.138 1.55504 5.58625 19.138 1.55504
276 2 5.7783 19.0382 -1.87001 5.7783 19.0382 -1.87001
277 1 6.55726 17.4349 -0.0364236 6.55726 17.4349 -0.0364236
278 2 8.60197 17.4968 1.57022 8.60197 17.4968 1.57022
279 2 8.39699 17.5217 -1.68473 8.39699 17.5217 -1.68473
280 1 9.4708 19.1697 -0.0733964 9.4708 19.1697 -0.0733964
281 2 11.491 19.2506 1.42273 11.491 19.2506 1.42273
282 2 11.2956 18.9906 -1.80419 11.2956 18.9906 -1.80419
283 1 12.2996 17.4292 -0.177341 12.2996 17.4292 -0.177341
284 2 14.4543 17.4208 1.3404 14.4543 17.4208 1.3404
285 2 14.0184 17.6619 -1.96461 14.0184 17.6619 -1.96461
286 1 15.1793 19.1286 -0.327764 15.1793 19.1286 -0.327764
287 2 17.121 19.014 1.19123 17.121 19.014 1.19123
288 2 16.8974 19.2203 -2.05121 16.8974 19.2203 -2.05121
289 1 17.9992 17.4293 -0.602497 17.9992 17.4293 -0.602497
290 2 19.8847 17.3859 1.24051 19.8847 17.3859 1.24051
291 2 20.0745 17.462 -2.06895 20.0745 17.462 -2.06895
292 1 20.8495 19.0195 -0.316473 20.8495 19.0195 -0.316473
293 2 22.7708 19.1824 1.21058 22.7708 19.1824 1.21058
294 2 22.6963 18.7976 -2.06154 22.6963 18.7976 -2.06154
295 1 23.7182 17.4109 -0.2274 23.7182 17.4109 -0.2274
296 2 25.6123 17.493 1.37118 25.6123 17.493 1.37118
297 2 25.6672 17.2697 -1.83991 25.6672 17.2697 -1.83991
298 1 26.548 19.0517 -0.324788 26.548 19.0517 -0.324788
299 2 28.3602 18.9923 1.39208 28.3602 18.9923 1.39208
300 2 28.599 19.0442 -1.85468 28.599 19.0442 -1.85468
301 1 29.3969 17.4345 -0.15717 29.3969 17.4345 -0.15717
302 2 31.123 17.5899 1.63364 31.123 17.5899 1.63364
303 2 31.3903 17.2263 -1.66319 31.3903 17.2263 -1.66319
304 1 32.2673 19.0277 0.0610787 32.2673 19.0277 0.0610787
305 2 34.1519 19.2125 1.67823 34.1519 19.2125 1.67823
306 2 34.0234 18.9055 -1.71051 34.0234 18.9055 -1.71051
307 1 35.1352 17.4349 0.0820773 35.1352 17.4349 0.0820773
308 2 37.0158 17.444 1.61647 37.0158 17.444 1.61647
309 2 37.0369 17.2995 -1.5731 37.0369 17.2995 -1.5731
310 1 37.994 19.077 -0.0858461 37.994 19.077 -0.0858461
311 2 39.8864 19.1451 1.79895 39.8864 19.1451 1.79895
312 2 40.0534 19.074 -1.61913 40.0534 19.074 -1.61913
313 1 40.83 17.427 0.176676 40.83 17.427 0.176676
314 2 42.7486 17.587 1.88458 42.7486 17.587 1.88458
315 2 42.8425 17.3153 -1.43979 42.8425 17.3153 -1.43979
316 1 43.6169 19.1256 0.0418025 43.6169 19.1256 0.0418025
317 2 45.5565 19.358 1.65662 45.5565 19.358 1.65662
318 2 45.5387 18.9992 -1.53328 45.5387 18.9992 -1.53328
319 1 46.5332 17.4467 0.235306 46.5332 17.4467 0.235306
320 2 48.4339 17.6422 1.7131 48.4339 17.6422 1.7131
321 2 48.3054 17.391 -1.56369 48.3054 17.391 -1.56369
322 1 49.4205 19.172 -0.0953122 49.4205 19.172 -0.0953122
323 2 51.2156 19.2041 1.69818 51.2156 19.2041 1.69818
324 2 51.4425 19.1235 -1.57211 51.4425 19.1235 -1.57211
325 1 52.3461 20.7772 -0.0650135 1.01128 20.7772 -0.0650135
326 2 2.98894 20.6242 1.42625 2.98894 20.6242 1.42625
327 2 2.80767 20.9273 -1.82433 2.80767 20.9273 -1.82433
328 1 3.85882 22.3997 -0.109951 3.85882 22.3997 -0.109951
329 2 5.66296 22.1893 1.52836 5.66296 22.1893 1.52836
330 2 5.82824 22.543 -1.66557 5.82824 22.543 -1.66557
331 1 6.664 20.749 -0.206445 6.664 20.749 -0.206445
332 2 8.40087 20.7688 1.50073 8.40087 20.7688 1.50073
333 2 8.60951 20.7858 -1.6999 8.60951 20.7858 -1.6999
334 1 9.43712 22.436 0.0476503 9.43712 22.436 0.0476503
335 2 11.535 22.4223 1.50597 11.535 22.4223 1.50597
336 2 11.1735 22.5274 -1.68322 11.1735 22.5274 -1.68322
337 1 12.2784 20.7541 -0.304101 12.2784 20.7541 -0.304101
338 2 14.2581 20.7056 1.25672 14.2581 20.7056 1.25672
339 2 14.0486 20.7232 -2.05617 14.0486 20.7232 -2.05617
340 1 15.0649 22.352 -0.451974 15.0649 22.352 -0.451974
341 2 16.8145 22.1794 1.28773 16.8145 22.1794 1.28773
342 2 17.1546 22.4883 -1.96197 17.1546 22.4883 -1.96197
343 1 18.0591 20.7372 -0.384291 18.0591 20.7372 -0.384291
344 2 19.8932 20.7942 1.13995 19.8932 20.7942 1.13995
345 2 19.8625 20.5113 -2.09696 19.8625 20.5113 -2.09696
346 1 20.9054 22.3621 -0.546368 20.9054 22.3621 -0.546368
347 2 22.6215 22.1296 1.24207 22.6215 22.1296 1.24207
348 2 22.9511 22.5567 -2.05482 22.9511 22.5567 -2.05482
349 1 23.7473 20.6728 -0.54637 23.7473 20.6728 -0.54637
350 2 25.4946 20.7788 1.18475 25.4946 20.7788 1.18475
351 2 25.7434 20.6793 -2.06159 25.7434 20.6793 -2.06159
352 1 26.5693 22.3335 -0.363135 26.5693 22.3335 -0.363135
353 2 28.3692 22.3398 1.38141 28.3692 22.3398 1.38141
354 2 28.5474 22.4243 -1.97581 28.5474 22.4243 -1.97581
355 1 29.4485 20.7836 -0.275047 29.4485 20.7836 -0.275047
356 2 31.232 20.9504 1.49069 31.232 20.9504 1.49069
357 2 31.3771 20.5666 -1.82208 31.3771 20.5666 -1.82208
358 1 32.2771 22.4242 -0.255878 32.2771 22.4242 -0.255878
359 2 34.142 22.357 1.49485 34.142 22.357 1.49485
360 2 34.1908 22.4465 -1.85018 34.1908 22.4465 -1.85018
361 1 35.0053 20.7603 -0.194864 35.0053 20.7603 -0.194864
362 2 36.912 20.7843 1.51582 36.912 20.7843 1.51582
363 2 36.9723 20.804 -1.74806 36.9723 20.804 -1.74806
364 1 37.8602 22.5711 -0.0261502 37.8602 22.5711 -0.0261502
365 2 39.7725 22.4787 1.63477 39.7725 22.4787 1.63477
366 2 39.9286 22.4836 -1.58906 39.9286 22.4836 -1.58906
367 1 40.7452 20.8039 0.0335537 40.7452 20.8039 0.0335537
368 2 42.6046 20.7715 1.65835 42.6046 20.7715 1.65835
369 2 42.6569 20.8874 -1.5815 42.6569 20.8874 -1.5815
370 1 43.5908 22.336 0.086789 43.5908 22.336 0.086789
371 2 45.5302 22.4016 1.66356 45.5302 22.4016 1.66356
372 2 45.4961 22.5848 -1.57628 45.4961 22.5848 -1.57628
373 1 46.4755 20.8268 -0.0658412 46.4755 20.8268 -0.0658412
374 2 48.4696 20.8154 1.59397 48.4696 20.8154 1.59397
375 2 48.3624 20.8397 -1.70666 48.3624 20.8397 -1.70666
376 1 49.4349 22.3899 -0.124914 49.4349 22.3899 -0.124914
377 2 51.2955 22.3951 1.52357 51.2955 22.3951 1.52357
378 2 51.4849 22.441 -1.70954 51.4849 22.441 -1.70954
379 1 52.3681 24.0801 0.124179 1.03329 24.0801 0.124179
380 2 2.84596 23.7252 1.78315 2.84596 23.7252 1.78315
381 2 3.07577 24.3806 -1.39824 3.07577 24.3806 -1.39824
382 1 3.8213 25.7164 0.503389 3.8213 25.7164 0.503389
383 2 5.78165 25.4682 2.06303 5.78165 25.4682 2.06303
384 2 5.6656 25.9009 -1.23008 5.6656 25.9009 -1.23008
385 1 6.60028 24.0169 0.162707 6.60028 24.0169 0.162707
386 2 8.51518 23.9949 1.81895 8.51518 23.9949 1.81895
387 2 8.3566 24.111 -1.48596 8.3566 24.111 -1.48596
388 1 9.38114 25.6249 0.195393 9.38114 25.6249 0.195393
389 2 11.41 25.502 1.70829 11.41 25.502 1.70829
390 2 11.281 25.8333 -1.54884 11.281 25.8333 -1.54884
391 1 12.2832 24.105 -0.0889331 12.2832 24.105 -0.0889331
392 2 14.2749 23.7517 1.32662 14.2749 23.7517 1.32662
393 2 14.0543 24.2317 -1.88094 14.0543 24.2317 -1.88094
394 1 15.2014 25.6743 -0.0433749 15.2014 25.6743 -0.0433749
395 2 17.0882 25.4857 1.66804 17.0882 25.4857 1.66804
396 2 17.0934 25.7185 -1.68372 17.0934 25.7185 -1.68372
397 1 17.978 23.9388 -0.107697 17.978 23.9388 -0.107697
398 2 19.9685 23.8386 1.35858 19.9685 23.8386 1.35858
399 2 19.8479 24.123 -1.91534 19.8479 24.123 -1.91534
400 1 20.9013 25.6781 -0.143533 20.9013 25.6781 -0.143533
401 2 22.7623 25.6615 1.47807 22.7623 25.6615 1.47807
402 2 22.8009 25.6775 -1.73584 22.8009 25.6775 -1.73584
403 1 23.7154 23.9801 -0.144998 23.7154 23.9801 -0.144998
404 2 25.7399 23.9714 1.34518 25.7399 23.9714 1.34518
405 2 25.6159 23.9406 -1.91095 25.6159 23.9406 -1.91095
406 1 26.6284 25.6614 -0.333791 26.6284 25.6614 -0.333791
407 2 28.386 25.6108 1.39519 28.386 25.6108 1.39519
408 2 28.6252 25.6973 -1.87842 28.6252 25.6973 -1.87842
409 1 29.4039 24.0333 -0.236609 29.4039 24.0333 -0.236609
410 2 31.2838 24.1087 1.37735 31.2838 24.1087 1.37735
411 2 31.2706 23.9404 -1.97312 31.2706 23.9404 -1.97312
412 1 32.2341 25.6257 -0.382843 32.2341 25.6257 -0.382843
413 2 34.047 25.4815 1.53551 34.047 25.4815 1.53551
414 2 34.4108 25.9173 -1.7764 34.4108 25.9173 -1.7764
415 1 35.1522 24.1192 -0.127171 35.1522 24.1192 -0.127171
416 2 36.8464 24.1079 1.65027 36.8464 24.1079 1.65027
417 2 37.1216 24.328 -1.60153 37.1216 24.328 -1.60153
418 1 37.9649 25.772 0.207598 37.9649 25.772 0.207598
419 2 39.8186 25.5466 1.85258 39.8186 25.5466 1.85258
420 2 39.8424 25.9059 -1.39849 39.8424 25.9059 -1.39849
421 1 40.8059 24.1434 0.016596 40.8059 24.1434 0.016596
422 2 42.5385 24.0313 1.73361 42.5385 24.0313 1.73361
423 2 42.7953 24.1327 -1.4637 42.7953 24.1327 -1.4637
424 1 43.726 25.6207 0.34893 43.726 25.6207 0.34893
425 2 45.7121 25.6835 1.76737 45.7121 25.6835 1.76737
426 2 45.4453 25.7536 -1.42872 45.4453 25.7536 -1.42872
427 1 46.5692 24.1149 0.115051 46.5692 24.1149 0.115051
428 2 48.5461 24.0431 1.6253 48.5461 24.0431 1.6253
429 2 48.3785 24.0471 -1.66967 48.3785 24.0471 -1.66967
430 1 49.3928 25.6833 -0.0161951 49.3928 25.6833 -0.0161951
431 2 51.2376 25.6526 1.82356 51.2376 25.6526 1.82356
432 2 51.3547 25.7624 -1.45848 51.3547 25.7624 -1.45848
433 1 52.2539 27.3692 0.320766 0.919037 27.3692 0.320766
434 2 2.74688 27.4563 2.08246 2.74688 27.4563 2.08246
435 2 2.86796 27.3722 -1.20285 2.86796 27.3722 -1.20285
436 1 3.72085 29.08 0.410623 3.72085 29.08 0.410623
437 2 5.64795 29.1532 2.05404 5.64795 29.1532 2.05404
438 2 5.62094 28.9263 -1.20799 5.62094 28.9263 -1.20799
439 1 6.60261 27.3844 0.583663 6.60261 27.3844 0.583663
440 2 8.75911 27.2864 1.98235 8.75911 27.2864 1.98235
441 2 8.31349 27.3166 -1.24858 8.31349 27.3166 -1.24858
442 1 9.41763 29.013 0.312335 9.41763 29.013 0.312335
443 2 11.4949 29.0504 1.85624 11.4949 29.0504 1.85624
444 2 11.3464 28.9625 -1.36864 11.3464 28.9625 -1.36864
445 1 12.3637 27.3083 0.23259 12.3637 27.3083 0.23259
446 2 14.4088 27.2941 1.6888 14.4088 27.2941 1.6888
447 2 14.096 27.4046 -1.44928 14.096 27.4046 -1.44928
448 1 15.072 28.9554 0.1054 15.072 28.9554 0.1054
449 2 17.0664 28.89 1.70522 17.0664 28.89 1.70522
450 2 17.0732 28.9132 -1.51488 17.0732 28.9132 -1.51488
451 1 17.9631 27.2465 0.144566 17.9631 27.2465 0.144566
452 2 19.9558 27.0495 1.60196 19.9558 27.0495 1.60196
453 2 19.939 27.3471 -1.61894 19.939 27.3471 -1.61894
454 1 20.8323 28.8766 0.0858316 20.8323 28.8766 0.0858316
455 2 22.7915 28.8948 1.63755 22.7915 28.8948 1.63755
456 2 22.7047 28.9047 -1.65776 22.7047 28.9047 -1.65776
457 1 23.7274 27.1933 -0.107346 23.7274 27.1933 -0.107346
458 2 25.5856 27.0768 1.43208 25.5856 27.0768 1.43208
459 2 25.5244 27.4072 -1.84351 25.5244 27.4072 -1.84351
460 1 26.4943 28.899 -0.169593 26.4943 28.899 -0.169593
461 2 28.4431 28.8713 1.52611 28.4431 28.8713 1.52611
462 2 28.4199 28.9987 -1.68211 28.4199 28.9987 -1.68211
463 1 29.4043 27.3511 -0.185606 29.4043 27.3511 -0.185606
464 2 31.2427 27.2729 1.41642 31.2427 27.2729 1.41642
465 2 31.2173 27.4107 -1.82477 31.2173 27.4107 -1.82477
466 1 32.2948 28.9407 -0.144385 32.2948 28.9407 -0.144385
467 2 33.9087 28.898 1.74308 33.9087 28.898 1.74308
468 2 34.3346 28.9548 -1.58956 34.3346 28.9548 -1.58956
469 1 35.0349 27.3279 0.161292 35.0349 27.3279 0.161292
470 2 36.8513 27.3279 1.78637 36.8513 27.3279 1.78637
471 2 37.1222 27.2967 -1.44161 37.1222 27.2967 -1.44161
472 1 37.9701 28.9698 0.219266 37.9701 28.9698 0.219266
473 2 39.8784 28.9969 1.94108 39.8784 28.9969 1.94108
474 2 39.8926 29.0111 -1.32934 39.8926 29.0111 -1.32934
475 1 40.8444 27.2772 0.320705 40.8444 27.2772 0.320705
476 2 42.6934 27.3127 1.99427 42.6934 27.3127 1.99427
477 2 42.7973 27.2802 -1.25721 42.7973 27.2802 -1.25721
478 1 43.6117 28.9529 0.373277 43.6117 28.9529 0.373277
479 2 45.7153 29.0175 1.87071 45.7153 29.0175 1.87071
480 2 45.433 28.9756 -1.41488 45.433 28.9756 -1.41488
481 1 46.5703 27.316 0.161804 46.5703 27.316 0.161804
482 2 48.5674 27.2939 1.72706 48.5674 27.2939 1.72706
483 2 48.2963 27.4032 -1.58601 48.2963 27.4032 -1.58601
484 1 49.39 28.9299 0.116631 49.39 28.9299 0.116631
485 2 51.2082 29.0919 1.79194 51.2082 29.0919 1.79194
486 2 51.4759 28.873 -1.50415 51.4759 28.873 -1.50415
487 1 52.2894 30.6555 0.132169 0.954582 30.6555 0.132169
488 2 2.66122 30.7778 1.90157 2.66122 30.7778 1.90157
489 2 3.02506 30.613 -1.36081 3.02506 30.613 -1.36081
490 1 3.77051 32.3648 0.265703 3.77051 32.3648 0.265703
491 2 5.70509 32.4228 1.85964 5.70509 32.4228 1.85964
492 2 5.59304 32.3524 -1.40914 5.59304 32.3524 -1.40914
493 1 6.63564 30.6918 0.22251 6.63564 30.6918 0.22251
494 2 8.53105 30.8167 1.83789 8.53105 30.8167 1.83789
495 2 8.50143 30.5591 -1.44143 8.50143 30.5591 -1.44143
496 1 9.43638 32.2345 0.0819977 9.43638 32.2345 0.0819977
497 2 11.3042 32.3238 1.75066 11.3042 32.3238 1.75066
498 2 11.2983 32.4126 -1.47269 11.2983 32.4126 -1.47269
499 1 12.2525 30.6678 0.161594 12.2525 30.6678 0.161594
500 2 14.1408 30.5875 1.74935 14.1408 30.5875 1.74935
501 2 14.1257 30.5281 -1.54393 14.1257 30.5281 -1.54393
502 1 15.0592 32.229 0.162509 15.0592 32.229 0.162509
503 2 17.1451 32.3403 1.68419 17.1451 32.3403 1.68419
504 2 16.97 32.1411 -1.5584 16.97 32.1411 -1.5584
505 1 17.9673 30.6205 0.0997505 17.9673 30.6205 0.0997505
506 2 19.908 30.5004 1.73278 19.908 30.5004 1.73278
507 2 19.8756 30.5462 -1.46686 19.8756 30.5462 -1.46686
508 1 20.8171 32.1622 0.112904 20.8171 32.1622 0.112904
509 2 22.88 32.3207 1.60397 22.88 32.3207 1.60397
510 2 22.5755 32.1939 -1.74213 22.5755 32.1939 -1.74213
511 1 23.7098 30.5928 -0.0633609 23.7098 30.5928 -0.0633609
512 2 25.7246 30.6974 1.49129 25.7246 30.6974 1.49129
513 2 25.5375 30.5069 -1.85694 25.5375 30.5069 -1.85694
514 1 26.5798 32.2529 -0.310605 26.5798 32.2529 -0.310605
515 2 28.4272 32.2383 1.45051 28.4272 32.2383 1.45051
516 2 28.6009 32.2714 -1.75701 28.6009 32.2714 -1.75701
517 1 29.4216 30.5963 -0.00914287 29.4216 30.5963 -0.00914287
518 2 31.2956 30.5478 1.56881 31.2956 30.5478 1.56881
519 2 31.4026 30.7865 -1.63071 31.4026 30.7865 -1.63071
520 1 32.3266 32.3041 0.028156 32.3266 32.3041 0.028156
521 2 34.1222 32.2569 1.73466 34.1222 32.2569 1.73466
522 2 34.341 32.2206 -1.50079 34.341 32.2206 -1.50079
523 1 35.1103 30.5419 0.113806 35.1103 30.5419 0.113806
524 2 37.0442 30.7605 1.66828 37.0442 30.7605 1.66828
525 2 37.0346 30.4828 -1.46391 37.0346 30.4828 -1.46391
526 1 37.9986 32.2986 -0.0693461 37.9986 32.2986 -0.0693461
527 2 39.7903 32.4044 1.70708 39.7903 32.4044 1.70708
528 2 39.8746 31.9843 -1.65487 39.8746 31.9843 -1.65487
529 1 40.7901 30.6455 0.324539 40.7901 30.6455 0.324539
530 2 42.6912 30.5814 1.9461 42.6912 30.5814 1.9461
531 2 42.8504 30.6222 -1.31802 42.8504 30.6222 -1.31802
532 1 43.7183 32.2209 0.234219 43.7183 32.2209 0.234219
533 2 45.5881 32.3559 1.75921 45.5881 32.3559 1.75921
534 2 45.5176 32.1407 -1.49828 45.5176 32.1407 -1.49828
535 1 46.5685 30.66 0.168226 46.5685 30.66 0.168226
536 2 48.4869 30.6097 1.83729 48.4869 30.6097 1.83729
537 2 48.42 30.6778 -1.39147 48.42 30.6778 -1.39147
538 1 49.4366 32.265 0.281574 49.4366 32.265 0.281574
539 2 51.3609 32.2022 1.87416 51.3609 32.2022 1.87416
540 2 51.1833 32.3357 -1.3971 51.1833 32.3357 -1.3971
541 1 52.2712 33.9695 0.250949 0.936302 33.9695 0.250949
542 2 2.88983 34.2947 1.60931 2.88983 34.2947 1.60931