ITEM: TIMESTEP
46100
ITEM: NUMBER OF ATOMS
810
ITEM: BOX BOUNDS pp pp pp
8.4137701477268123e-01 5.2176227985227342e+01
8.0961581116522285e-01 5.0206599188834083e+01
-1.0000000000000000e+01 1.0000000000000000e+01
ITEM: ATOMS id type x y z xu yu zu
1 1 1.10346 0.947852 0.712734 1.10346 0.947852 0.712734
2 2 3.13444 0.77381 2.19965 3.13444 0.77381 2.19965
3 2 2.88324 1.03956 -1.09719 2.88324 1.03956 -1.09719
4 1 4.02024 2.5032 0.549214 4.02024 2.5032 0.549214
5 2 6.01301 2.37451 2.02764 6.01301 2.37451 2.02764
6 2 5.83769 2.7185 -1.26716 5.83769 2.7185 -1.26716
7 1 6.83727 0.945724 0.193905 6.83727 0.945724 0.193905
8 2 8.95403 0.757955 1.82061 8.95403 0.757955 1.82061
9 2 8.68334 1.11758 -1.40574 8.68334 1.11758 -1.40574
10 1 9.75066 2.56479 0.29185 9.75066 2.56479 0.29185
11 2 11.8357 2.52285 1.64739 11.8357 2.52285 1.64739
12 2 11.3412 2.68705 -1.63183 11.3412 2.68705 -1.63183
13 1 12.4925 0.951603 -0.298747 12.4925 0.951603 -0.298747
14 2 14.2792 0.846795 1.36609 14.2792 0.846795 1.36609
15 2 14.479 1.10757 -1.83338 14.479 1.10757 -1.83338
16 1 15.4263 2.60619 -0.108715 15.4263 2.60619 -0.108715
17 2 17.3604 2.57777 1.3573 17.3604 2.57777 1.3573
18 2 17.2673 2.7372 -1.89 17.2673 2.7372 -1.89
19 1 18.207 1.00871 -0.449892 18.207 1.00871 -0.449892
20 2 20.0635 0.991367 1.28442 20.0635 0.991367 1.28442
21 2 20.0755 1.0618 -2.09657 20.0755 1.0618 -2.09657
22 1 20.9885 2.64572 -0.31473 20.9885 2.64572 -0.31473
23 2 23.1579 2.64064 1.05049 23.1579 2.64064 1.05049
24 2 22.641 2.58576 -2.09025 22.641 2.58576 -2.09025
25 1 23.8496 0.987215 -0.594131 23.8496 0.987215 -0.594131
26 2 25.7859 1.07466 0.963055 25.7859 1.07466 0.963055
27 2 25.7437 1.00893 -2.32969 25.7437 1.00893 -2.32969
28 1 26.7265 2.71322 -0.789845 26.7265 2.71322 -0.789845
29 2 28.406 2.58348 1.07565 28.406 2.58348 1.07565
30 2 28.7364 2.72778 -2.25062 28.7364 2.72778 -2.25062
31 1 29.5028 0.999053 -0.620227 29.5028 0.999053 -0.620227
32 2 31.3295 1.00605 1.01927 31.3295 1.00605 1.01927
33 2 31.3657 1.14596 -2.1312 31.3657 1.14596 -2.1312
34 1 32.377 2.67345 -0.385352 32.377 2.67345 -0.385352
35 2 34.327 2.69713 1.28166 34.327 2.69713 1.28166
36 2 34.3979 2.79543 -1.96345 34.3979 2.79543 -1.96345
37 1 35.2803 1.1298 -0.335064 35.2803 1.1298 -0.335064
38 2 37.1032 0.99743 1.37141 37.1032 0.99743 1.37141
39 2 37.2201 1.22129 -1.79688 37.2201 1.22129 -1.79688
40 1 38.1318 2.7308 -0.102167 38.1318 2.7308 -0.102167
41 2 40.0492 2.75581 1.47822 40.0492 2.75581 1.47822
42 2 39.9998 2.6257 -1.74503 39.9998 2.6257 -1.74503
43 1 40.9509 0.993015 -0.105224 40.9509 0.993015 -0.105224
44 2 42.8133 0.996915 1.64085 42.8133 0.996915 1.64085
45 2 42.9573 1.10439 -1.66153 42.9573 1.10439 -1.66153
46 1 43.846 2.69486 0.0561704 43.846 2.69486 0.0561704
47 2 45.5285 2.72265 1.89398 45.5285 2.72265 1.89398
48 2 45.8977 2.74423 -1.3834 45.8977 2.74423 -1.3834
49 1 46.6539 1.05629 0.322073 46.6539 1.05629 0.322073
50 2 48.4393 0.977104 2.11801 48.4393 0.977104 2.11801
51 2 48.7051 1.18695 -1.10846 48.7051 1.18695 -1.10846
52 1 49.5235 2.66212 0.64182 49.5235 2.66212 0.64182
53 2 51.3759 2.50953 2.4752 51.3759 2.50953 2.4752
54 2 51.5588 2.72171 -0.838328 51.5588 2.72171 -0.838328
55 1 1.09639 4.20674 0.999779 1.09639 4.20674 0.999779
56 2 3.16988 4.05262 2.42332 3.16988 4.05262 2.42332
57 2 2.92217 4.32105 -0.829543 2.92217 4.32105 -0.829543
58 1 3.88081 5.8716 0.906924 3.88081 5.8716 0.906924
59 2 5.95292 5.73414 2.38035 5.95292 5.73414 2.38035
60 2 5.84508 5.95398 -0.850808 5.84508 5.95398 -0.850808
61 1 6.8157 4.20329 0.493947 6.8157 4.20329 0.493947
62 2 8.81003 4.10226 2.02782 8.81003 4.10226 2.02782
63 2 8.62496 4.2406 -1.29003 8.62496 4.2406 -1.29003
64 1 9.56642 5.84252 0.372054 9.56642 5.84252 0.372054
65 2 11.6455 5.76634 1.73227 11.6455 5.76634 1.73227
66 2 11.3405 6.01404 -1.41116 11.3405 6.01404 -1.41116
67 1 12.5803 4.3066 -0.0766979 12.5803 4.3066 -0.0766979
68 2 14.5096 4.1794 1.54536 14.5096 4.1794 1.54536
69 2 14.4817 4.25361 -1.71899 14.4817 4.25361 -1.71899
70 1 15.3881 5.8315 -0.123786 15.3881 5.8315 -0.123786
71 2 17.3315 5.97245 1.41578 17.3315 5.97245 1.41578
72 2 17.1418 5.91111 -1.84333 17.1418 5.91111 -1.84333
73 1 18.1758 4.37321 -0.229641 18.1758 4.37321 -0.229641
74 2 20.1684 4.3672 1.27994 20.1684 4.3672 1.27994
75 2 20.0586 4.2018 -1.99589 20.0586 4.2018 -1.99589
76 1 21.1124 5.9261 -0.445296 21.1124 5.9261 -0.445296
77 2 22.949 5.86443 1.08642 22.949 5.86443 1.08642
78 2 22.9363 5.92685 -2.16703 22.9363 5.92685 -2.16703
79 1 23.9089 4.20969 -0.596862 23.9089 4.20969 -0.596862
80 2 25.7755 4.04576 1.00792 25.7755 4.04576 1.00792
81 2 25.8183 4.37606 -2.32283 25.8183 4.37606 -2.32283
82 1 26.6731 5.91256 -0.496415 26.6731 5.91256 -0.496415
83 2 28.4991 5.88214 1.31168 28.4991 5.88214 1.31168
84 2 28.6952 6.06323 -1.86672 28.6952 6.06323 -1.86672
85 1 29.5585 4.35922 -0.416462 29.5585 4.35922 -0.416462
86 2 31.3643 4.29145 1.31682 31.3643 4.29145 1.31682
87 2 31.5822 4.4114 -2.00017 31.5822 4.4114 -2.00017
88 1 32.4385 5.9313 -0.20175 32.4385 5.9313 -0.20175
89 2 34.2845 5.86014 1.43726 34.2845 5.86014 1.43726
90 2 34.3237 6.23112 -1.85585 34.3237 6.23112 -1.85585
91 1 35.2487 4.46022 -0.239689 35.2487 4.46022 -0.239689
92 2 37.102 4.33446 1.39248 37.102 4.33446 1.39248
93 2 37.2045 4.37355 -1.78987 37.2045 4.37355 -1.78987
94 1 38.1195 6.04738 -0.0437096 38.1195 6.04738 -0.0437096
95 2 39.8689 5.80755 1.64725 39.8689 5.80755 1.64725
96 2 40.1294 6.35433 -1.4924 40.1294 6.35433 -1.4924
97 1 41.0429 4.33751 -0.221411 41.0429 4.33751 -0.221411
98 2 42.7382 4.3912 1.55367 42.7382 4.3912 1.55367
99 2 43.0793 4.46381 -1.58835 43.0793 4.46381 -1.58835
100 1 43.8467 6.12019 0.191706 43.8467 6.12019 0.191706
101 2 45.6637 5.97987 2.01794 45.6637 5.97987 2.01794
102 2 45.9457 6.13403 -1.28534 45.9457 6.13403 -1.28534
103 1 46.6831 4.3881 0.31708 46.6831 4.3881 0.31708
104 2 48.3127 4.28054 2.16387 48.3127 4.28054 2.16387
105 2 48.8136 4.28373 -1.01611 48.8136 4.28373 -1.01611
106 1 49.5406 5.95412 0.73116 49.5406 5.95412 0.73116
107 2 51.2682 5.79602 2.52601 51.2682 5.79602 2.52601
108 2 51.5411 5.89238 -0.761909 51.5411 5.89238 -0.761909
109 1 0.984262 7.47829 1.01 0.984262 7.47829 1.01
110 2 2.86364 7.43849 2.66447 2.86364 7.43849 2.66447
111 2 2.91539 7.66024 -0.61473 2.91539 7.66024 -0.61473
112 1 3.91907 9.21657 1.09271 3.91907 9.21657 1.09271
113 2 5.91979 9.09114 2.59789 5.91979 9.09114 2.59789
114 2 5.66672 9.23083 -0.619258 5.66672 9.23083 -0.619258
115 1 6.7759 7.55083 0.835109 6.7759 7.55083 0.835109
116 2 8.82847 7.35032 2.22288 8.82847 7.35032 2.22288
117 2 8.41904 7.6623 -0.978664 8.41904 7.6623 -0.978664
118 1 9.60814 9.11456 0.643785 9.60814 9.11456 0.643785
119 2 11.7094 9.23148 1.9837 11.7094 9.23148 1.9837
120 2 11.359 9.19126 -1.28478 11.359 9.19126 -1.28478
121 1 12.538 7.5061 0.176414 12.538 7.5061 0.176414
122 2 14.6294 7.48442 1.64283 14.6294 7.48442 1.64283
123 2 14.2671 7.46568 -1.6581 14.2671 7.46568 -1.6581
124 1 15.385 9.20524 -0.150243 15.385 9.20524 -0.150243
125 2 17.363 9.35789 1.35274 17.363 9.35789 1.35274
126 2 17.1568 9.15308 -1.86845 17.1568 9.15308 -1.86845
127 1 18.286 7.54659 -0.21792 18.286 7.54659 -0.21792
128 2 20.3024 7.68922 1.22741 20.3024 7.68922 1.22741
129 2 20.1311 7.46545 -2.11479 20.1311 7.46545 -2.11479
130 1 21.0967 9.23859 -0.495139 21.0967 9.23859 -0.495139
131 2 22.9586 9.17659 1.08203 22.9586 9.17659 1.08203
132 2 22.8595 9.15688 -2.09448 22.8595 9.15688 -2.09448
133 1 23.8809 7.53355 -0.508419 23.8809 7.53355 -0.508419
134 2 25.7096 7.52078 1.27375 25.7096 7.52078 1.27375
135 2 25.9302 7.61597 -2.02976 25.9302 7.61597 -2.02976
136 1 26.7908 9.28915 -0.218842 26.7908 9.28915 -0.218842
137 2 28.5256 9.02296 1.64336 28.5256 9.02296 1.64336
138 2 28.8356 9.3674 -1.66053 28.8356 9.3674 -1.66053
139 1 29.6101 7.58546 -0.0730111 29.6101 7.58546 -0.0730111
140 2 31.5314 7.59665 1.55001 31.5314 7.59665 1.55001
141 2 31.3981 7.54901 -1.77492 31.3981 7.54901 -1.77492
142 1 32.4346 9.19565 -0.0744116 32.4346 9.19565 -0.0744116
143 2 34.2539 9.19607 1.63783 34.2539 9.19607 1.63783
144 2 34.3147 9.47916 -1.52149 34.3147 9.47916 -1.52149
145 1 35.2424 7.67283 -0.0190608 35.2424 7.67283 -0.0190608
146 2 37.0789 7.50229 1.70319 37.0789 7.50229 1.70319
147 2 37.1518 7.81615 -1.57505 37.1518 7.81615 -1.57505
148 1 38.1113 9.32554 0.278789 38.1113 9.32554 0.278789
149 2 39.8237 9.2885 2.05283 39.8237 9.2885 2.05283
150 2 40.0724 9.36749 -1.20554 40.0724 9.36749 -1.20554
151 1 40.9412 7.70793 0.436893 40.9412 7.70793 0.436893
152 2 42.9145 7.62192 1.91363 42.9145 7.62192 1.91363
153 2 42.8605 7.80117 -1.32299 42.8605 7.80117 -1.32299
154 1 43.8415 9.36663 0.362128 43.8415 9.36663 0.362128
155 2 45.5345 8.95486 2.26002 45.5345 8.95486 2.26002
156 2 45.8115 9.66237 -1.09959 45.8115 9.66237 -1.09959
157 1 46.7116 7.59685 0.462696 46.7116 7.59685 0.462696
158 2 48.509 7.53572 2.3615 48.509 7.53572 2.3615
159 2 48.8725 7.68083 -0.85311 48.8725 7.68083 -0.85311
160 1 49.6164 9.243 0.940526 49.6164 9.243 0.940526
161 2 51.3082 8.99476 2.75269 51.3082 8.99476 2.75269
162 2 51.6844 9.30128 -0.585702 51.6844 9.30128 -0.585702
163 1 1.05925 10.7801 1.32873 1.05925 10.7801 1.32873
164 2 3.16306 10.9503 2.75342 3.16306 10.9503 2.75342
165 2 2.73258 10.8177 -0.503812 2.73258 10.8177 -0.503812
166 1 3.8869 12.443 1.05062 3.8869 12.443 1.05062
167 2 5.91788 12.6685 2.5317 5.91788 12.6685 2.5317
168 2 5.72562 12.2941 -0.769616 5.72562 12.2941 -0.769616
169 1 6.74697 10.8323 1.03994 6.74697 10.8323 1.03994
170 2 9.0425 10.9259 2.2068 9.0425 10.9259 2.2068
171 2 8.26229 10.6495 -0.957714 8.26229 10.6495 -0.957714
172 1 9.53642 12.4229 0.184585 9.53642 12.4229 0.184585
173 2 11.5644 12.3638 1.7713 11.5644 12.3638 1.7713
174 2 11.4114 12.4657 -1.48651 11.4114 12.4657 -1.48651
175 1 12.4908 10.7781 0.113859 12.4908 10.7781 0.113859
176 2 14.5067 10.8182 1.62803 14.5067 10.8182 1.62803
177 2 14.1578 10.7922 -1.68733 14.1578 10.7922 -1.68733
178 1 15.2435 12.5331 -0.163653 15.2435 12.5331 -0.163653
179 2 17.2691 12.6737 1.17778 17.2691 12.6737 1.17778
180 2 16.9761 12.3372 -2.07142 16.9761 12.3372 -2.07142
181 1 18.1159 10.8686 -0.298755 18.1159 10.8686 -0.298755
182 2 20.2254 10.9936 1.11317 20.2254 10.9936 1.11317
183 2 19.818 10.7973 -2.1328 19.818 10.7973 -2.1328
184 1 21.057 12.4855 -0.686845 21.057 12.4855 -0.686845
185 2 22.9038 12.4949 1.08899 22.9038 12.4949 1.08899
186 2 22.9589 12.5434 -2.22279 22.9589 12.5434 -2.22279
187 1 23.8711 10.7982 -0.556449 23.8711 10.7982 -0.556449
188 2 25.5631 10.7882 1.27964 25.5631 10.7882 1.27964
189 2 25.9804 10.8753 -1.95583 25.9804 10.8753 -1.95583
190 1 26.7041 12.4578 -0.100104 26.7041 12.4578 -0.100104
191 2 28.3988 12.5344 1.70515 28.3988 12.5344 1.70515
192 2 28.7792 12.5686 -1.50748 28.7792 12.5686 -1.50748
193 1 29.6246 10.9319 0.251676 29.6246 10.9319 0.251676
194 2 31.4945 10.6053 1.78594 31.4945 10.6053 1.78594
195 2 31.4138 11.0154 -1.46558 31.4138 11.0154 -1.46558
196 1 32.3752 12.558 0.330151 32.3752 12.558 0.330151
197 2 34.3712 12.5695 1.95793 34.3712 12.5695 1.95793
198 2 34.324 12.6074 -1.3262 34.324 12.6074 -1.3262
199 1 35.2745 10.9736 0.247239 35.2745 10.9736 0.247239
200 2 37.0893 10.7951 2.00236 37.0893 10.7951 2.00236
201 2 37.2973 11.2333 -1.15785 37.2973 11.2333 -1.15785
202 1 38.0889 12.6049 0.732585 38.0889 12.6049 0.732585
203 2 40.0283 12.5927 2.28337 40.0283 12.5927 2.28337
204 2 39.9899 12.6652 -1.00352 39.9899 12.6652 -1.00352
205 1 40.8945 10.9902 0.592123 40.8945 10.9902 0.592123
206 2 42.9135 10.6829 2.24194 42.9135 10.6829 2.24194
207 2 42.9241 11.1612 -1.0302 42.9241 11.1612 -1.0302
208 1 43.8558 12.5938 0.863694 43.8558 12.5938 0.863694
209 2 45.6113 12.5418 2.62339 45.6113 12.5418 2.62339
210 2 45.8937 12.6607 -0.66799 45.8937 12.6607 -0.66799
211 1 46.608 10.8872 0.999213 46.608 10.8872 0.999213
212 2 48.6245 10.5695 2.71709 48.6245 10.5695 2.71709
213 2 48.5769 11.0338 -0.481403 48.5769 11.0338 -0.481403
214 1 49.4609 12.4396 1.45531 49.4609 12.4396 1.45531
215 2 51.3759 12.4339 2.98566 51.3759 12.4339 2.98566
216 2 51.4157 12.4463 -0.248808 51.4157 12.4463 -0.248808
217 1 0.927968 14.1278 1.3036 0.927968 14.1278 1.3036
218 2 3.05786 14.1393 2.76722 3.05786 14.1393 2.76722
219 2 2.87234 14.0208 -0.554998 2.87234 14.0208 -0.554998
220 1 3.90876 15.8281 0.978124 3.90876 15.8281 0.978124
221 2 6.18965 15.7218 2.17737 6.18965 15.7218 2.17737
222 2 5.47985 15.697 -1.02674 5.47985 15.697 -1.02674
223 1 6.76811 14.0692 0.577598 6.76811 14.0692 0.577598
224 2 8.88947 14.0695 2.0007 8.88947 14.0695 2.0007
225 2 8.45693 14.09 -1.32031 8.45693 14.09 -1.32031
226 1 9.67751 15.7266 0.247074 9.67751 15.7266 0.247074
227 2 11.696 16.0185 1.70789 11.696 16.0185 1.70789
228 2 11.3891 15.5615 -1.56744 11.3891 15.5615 -1.56744
229 1 12.4618 14.0174 0.171782 12.4618 14.0174 0.171782
230 2 14.6277 14.4518 1.37384 14.6277 14.4518 1.37384
231 2 14.0502 13.8166 -1.87736 14.0502 13.8166 -1.87736
232 1 15.2345 15.7791 -0.676071 15.2345 15.7791 -0.676071
233 2 17.2598 15.8925 0.74365 17.2598 15.8925 0.74365
234 2 16.9818 15.6944 -2.47232 16.9818 15.6944 -2.47232
235 1 18.1113 14.0723 -0.748545 18.1113 14.0723 -0.748545
236 2 20.0446 14.2549 0.813439 20.0446 14.2549 0.813439
237 2 20.118 14.0103 -2.48213 20.118 14.0103 -2.48213
238 1 21.0938 15.6992 -0.913524 21.0938 15.6992 -0.913524
239 2 22.6867 15.8178 1.00182 22.6867 15.8178 1.00182
240 2 23.1812 15.7375 -2.30927 23.1812 15.7375 -2.30927
241 1 23.9595 14.1036 -0.474383 23.9595 14.1036 -0.474383
242 2 25.5719 14.2976 1.3731 25.5719 14.2976 1.3731
243 2 25.9996 14.0905 -1.93764 25.9996 14.0905 -1.93764
244 1 26.7357 15.813 -0.246563 26.7357 15.813 -0.246563
245 2 28.367 15.8369 1.73406 28.367 15.8369 1.73406
246 2 28.7027 15.8888 -1.60866 28.7027 15.8888 -1.60866
247 1 29.5144 14.208 0.194468 29.5144 14.208 0.194468
248 2 31.3388 14.1718 1.93458 31.3388 14.1718 1.93458
249 2 31.4715 14.1862 -1.41465 31.4715 14.1862 -1.41465
250 1 32.3529 15.8186 0.279884 32.3529 15.8186 0.279884
251 2 34.1169 15.7953 2.06907 34.1169 15.7953 2.06907
252 2 34.3946 15.9709 -1.30073 34.3946 15.9709 -1.30073
253 1 35.241 14.2276 0.334416 35.241 14.2276 0.334416
254 2 37.025 14.4013 2.14221 37.025 14.4013 2.14221
255 2 37.2614 14.0281 -1.14035 37.2614 14.0281 -1.14035
256 1 38.0189 15.8536 0.523129 38.0189 15.8536 0.523129
257 2 39.8341 15.7712 2.29468 39.8341 15.7712 2.29468
258 2 40.0395 16.083 -0.908928 40.0395 16.083 -0.908928
259 1 40.8493 14.2127 0.654709 40.8493 14.2127 0.654709
260 2 42.7042 14.142 2.48314 42.7042 14.142 2.48314
261 2 42.9133 14.3179 -0.767247 42.9133 14.3179 -0.767247
262 1 43.7804 15.7922 1.06431 43.7804 15.7922 1.06431
263 2 45.615 15.7709 2.70348 45.615 15.7709 2.70348
264 2 45.7068 15.7191 -0.569418 45.7068 15.7191 -0.569418
265 1 46.6757 14.1945 1.1813 46.6757 14.1945 1.1813
266 2 48.5041 14.2808 2.91187 48.5041 14.2808 2.91187
267 2 48.6688 13.9373 -0.346232 48.6688 13.9373 -0.346232
268 1 49.5376 15.7442 1.13444 49.5376 15.7442 1.13444
269 2 51.3972 15.9912 2.85131 51.3972 15.9912 2.85131
270 2 51.4459 15.7297 -0.551767 51.4459 15.7297 -0.551767
271 1 1.01277 17.4496 0.936873 1.01277 17.4496 0.936873
272 2 3.0973 17.5874 2.41837 3.0973 17.5874 2.41837
273 2 2.84051 17.1364 -0.814635 2.84051 17.1364 -0.814635
274 1 3.89798 19.0024 0.45496 3.89798 19.0024 0.45496
275 2 5.94803 19.2542 1.79719 5.94803 19.2542 1.79719
276 2 5.61223 18.9515 -1.4134 5.61223 18.9515 -1.4134
277 1 6.68928 17.4244 0.251935 6.68928 17.4244 0.251935
278 2 8.70461 17.4602 1.86001 8.70461 17.4602 1.86001
279 2 8.64939 17.1312 -1.40562 8.64939 17.1312 -1.40562
280 1 9.6078 19.0374 0.0918805 9.6078 19.0374 0.0918805
281 2 11.6712 19.0126 1.44862 11.6712 19.0126 1.44862
282 2 11.3205 18.9391 -1.85378 11.3205 18.9391 -1.85378
283 1 12.5367 17.4174 -0.330399 12.5367 17.4174 -0.330399
284 2 14.5278 17.4473 1.07502 14.5278 17.4473 1.07502
285 2 14.0641 17.2989 -2.29685 14.0641 17.2989 -2.29685
286 1 15.2734 19.0336 -0.895743 15.2734 19.0336 -0.895743
287 2 17.2408 18.9562 0.643431 17.2408 18.9562 0.643431
288 2 17.1245 19.1038 -2.60759 17.1245 19.1038 -2.60759
289 1 18.1504 17.3916 -1.07945 18.1504 17.3916 -1.07945
290 2 19.9909 17.3605 0.625241 19.9909 17.3605 0.625241
291 2 20.227 17.3271 -2.56223 20.227 17.3271 -2.56223
292 1 20.9243 18.9966 -0.921743 20.9243 18.9966 -0.921743
293 2 22.6533 19.1143 0.864741 22.6533 19.1143 0.864741
294 2 23.0143 18.9193 -2.30701 23.0143 18.9193 -2.30701
295 1 23.8265 17.3842 -0.481428 23.8265 17.3842 -0.481428
296 2 25.5276 17.3698 1.33318 25.5276 17.3698 1.33318
297 2 25.8738 17.4851 -1.89729 25.8738 17.4851 -1.89729
298 1 26.5828 19.1162 -0.122319 26.5828 19.1162 -0.122319
299 2 28.4608 19.3509 1.63439 28.4608 19.3509 1.63439
300 2 28.5512 18.8141 -1.67181 28.5512 18.8141 -1.67181
301 1 29.514 17.4859 0.245985 29.514 17.4859 0.245985
302 2 31.3454 17.5297 1.9302 31.3454 17.5297 1.9302
303 2 31.4362 17.5245 -1.36231 31.4362 17.5245 -1.36231
304 1 32.2782 19.0712 0.329211 32.2782 19.0712 0.329211
305 2 34.272 19.1469 2.02613 34.272 19.1469 2.02613
306 2 34.3203 19.1782 -1.24831 34.3203 19.1782 -1.24831
307 1 35.2043 17.5834 0.456146 35.2043 17.5834 0.456146
308 2 37.0877 17.5029 2.20649 37.0877 17.5029 2.20649
309 2 37.0823 17.5767 -1.1104 37.0823 17.5767 -1.1104
310 1 38.0907 19.2006 0.595482 38.0907 19.2006 0.595482
311 2 39.7115 19.2624 2.47484 39.7115 19.2624 2.47484
312 2 40.0678 19.092 -0.864869 40.0678 19.092 -0.864869
313 1 40.9104 17.5415 0.904593 40.9104 17.5415 0.904593
314 2 42.8607 17.5008 2.58479 42.8607 17.5008 2.58479
315 2 42.854 17.3313 -0.601017 42.854 17.3313 -0.601017
316 1 43.7978 19.1848 0.877698 43.7978 19.1848 0.877698
317 2 45.5648 19.2289 2.65974 45.5648 19.2289 2.65974
318 2 45.7594 19.1522 -0.570666 45.7594 19.1522 -0.570666
319 1 46.6483 17.4463 1.11041 46.6483 17.4463 1.11041
320 2 48.5521 17.3938 2.80593 48.5521 17.3938 2.80593
321 2 48.6581 17.3917 -0.463467 48.6581 17.3917 -0.463467
322 1 49.5013 19.0671 1.19263 49.5013 19.0671 1.19263
323 2 51.5899 19.3048 2.57035 51.5899 19.3048 2.57035
324 2 51.2446 18.9305 -0.718001 51.2446 18.9305 -0.718001
325 1 1.08232 20.7345 0.684666 1.08232 20.7345 0.684666
326 2 3.20538 20.9952 1.95024 3.20538 20.9952 1.95024
327 2 2.76683 20.4625 -1.33208 2.76683 20.4625 -1.33208
328 1 3.84966 22.3548 -0.187989 3.84966 22.3548 -0.187989
329 2 5.845 22.4204 1.49525 5.845 22.4204 1.49525
330 2 5.82023 22.3225 -1.81574 5.82023 22.3225 -1.81574
331 1 6.77562 20.777 -0.0995271 6.77562 20.777 -0.0995271
332 2 8.7652 20.9328 1.51245 8.7652 20.9328 1.51245
333 2 8.67432 20.5135 -1.70112 8.67432 20.5135 -1.70112
334 1 9.67668 22.2957 -0.260799 9.67668 22.2957 -0.260799
335 2 11.6546 22.3123 1.27058 11.6546 22.3123 1.27058
336 2 11.5264 22.1225 -1.97877 11.5264 22.1225 -1.97877
337 1 12.5466 20.7096 -0.31004 12.5466 20.7096 -0.31004
338 2 14.5835 20.6155 1.00463 14.5835 20.6155 1.00463
339 2 14.0815 20.8149 -2.31458 14.0815 20.8149 -2.31458
340 1 15.2813 22.3884 -0.71422 15.2813 22.3884 -0.71422
341 2 17.3361 22.3951 0.885029 17.3361 22.3951 0.885029
342 2 17.0457 22.3566 -2.44657 17.0457 22.3566 -2.44657
343 1 18.0903 20.7653 -0.915497 18.0903 20.7653 -0.915497
344 2 19.9321 20.7788 0.666276 19.9321 20.7788 0.666276
345 2 20.0322 20.7501 -2.53715 20.0322 20.7501 -2.53715
346 1 20.9848 22.3677 -0.85358 20.9848 22.3677 -0.85358
347 2 22.8276 22.3393 0.837986 22.8276 22.3393 0.837986
348 2 23.023 22.4079 -2.421 23.023 22.4079 -2.421
349 1 23.8089 20.7221 -0.76893 23.8089 20.7221 -0.76893
350 2 25.331 20.8456 1.17003 25.331 20.8456 1.17003
351 2 26.0081 20.5751 -1.9931 26.0081 20.5751 -1.9931
352 1 26.6386 22.3775 -0.444704 26.6386 22.3775 -0.444704
353 2 28.4426 22.2444 1.42179 28.4426 22.2444 1.42179
354 2 28.7405 22.4491 -1.86917 28.7405 22.4491 -1.86917
355 1 29.506 20.7245 -0.296894 29.506 20.7245 -0.296894
356 2 31.0913 20.7577 1.69184 31.0913 20.7577 1.69184
357 2 31.6837 20.672 -1.5154 31.6837 20.672 -1.5154
358 1 32.3797 22.4434 0.164571 32.3797 22.4434 0.164571
359 2 34.0678 22.5608 1.94352 34.0678 22.5608 1.94352
360 2 34.3847 22.5649 -1.19889 34.3847 22.5649 -1.19889
361 1 35.2445 20.8108 0.473375 35.2445 20.8108 0.473375
362 2 36.9474 20.674 2.291 36.9474 20.674 2.291
363 2 37.3143 20.9308 -0.981327 37.3143 20.9308 -0.981327
364 1 38.0821 22.4374 0.905184 38.0821 22.4374 0.905184
365 2 40.1342 22.5422 2.44594 40.1342 22.5422 2.44594
366 2 39.8982 22.3314 -0.796973 39.8982 22.3314 -0.796973
367 1 40.971 20.8008 0.828355 40.971 20.8008 0.828355
368 2 42.8118 20.7527 2.49993 42.8118 20.7527 2.49993
369 2 42.7898 20.7474 -0.757473 42.7898 20.7474 -0.757473
370 1 43.7857 22.4195 0.770821 43.7857 22.4195 0.770821
371 2 45.692 22.5707 2.40037 45.692 22.5707 2.40037
372 2 45.624 22.2673 -0.759531 45.624 22.2673 -0.759531
373 1 46.6174 20.7414 1.04457 46.6174 20.7414 1.04457
374 2 48.6678 20.967 2.46414 48.6678 20.967 2.46414
375 2 48.5302 20.5762 -0.569796 48.5302 20.5762 -0.569796
376 1 49.6244 22.4634 0.700173 49.6244 22.4634 0.700173
377 2 51.6289 22.6161 2.14956 51.6289 22.6161 2.14956
378 2 51.4139 22.1118 -1.0877 51.4139 22.1118 -1.0877
379 1 1.11383 24.0652 0.160433 1.11383 24.0652 0.160433
380 2 3.19557 24.0279 1.59329 3.19557 24.0279 1.59329
381 2 2.80504 24.0333 -1.66058 2.80504 24.0333 -1.66058
382 1 4.00637 25.6748 -0.144583 4.00637 25.6748 -0.144583
383 2 5.93943 25.779 1.34754 5.93943 25.779 1.34754
384 2 5.75584 25.5072 -1.92784 5.75584 25.5072 -1.92784
385 1 6.83768 24.0034 -0.263135 6.83768 24.0034 -0.263135
386 2 8.84808 24.0728 1.29836 8.84808 24.0728 1.29836
387 2 8.65097 23.8883 -1.95459 8.65097 23.8883 -1.95459
388 1 9.69927 25.6406 -0.513698 9.69927 25.6406 -0.513698
389 2 11.6337 25.9462 1.07493 11.6337 25.9462 1.07493
390 2 11.5072 25.5522 -2.15423 11.5072 25.5522 -2.15423
391 1 12.5194 24.0498 -0.55216 12.5194 24.0498 -0.55216
392 2 14.4695 24.1659 0.981708 14.4695 24.1659 0.981708
393 2 14.2379 24.0127 -2.31086 14.2379 24.0127 -2.31086
394 1 15.3322 25.6322 -0.805858 15.3322 25.6322 -0.805858
395 2 17.3323 25.773 0.697482 17.3323 25.773 0.697482
396 2 17.16 25.6098 -2.57865 17.16 25.6098 -2.57865
397 1 18.1748 24.0197 -0.889281 18.1748 24.0197 -0.889281
398 2 20.035 24.1118 0.801352 20.035 24.1118 0.801352
399 2 20.0229 23.95 -2.46529 20.0229 23.95 -2.46529
400 1 21.0799 25.6645 -0.888266 21.0799 25.6645 -0.888266
401 2 22.7764 25.5607 1.00123 22.7764 25.5607 1.00123
402 2 23.0275 25.8054 -2.36261 23.0275 25.8054 -2.36261
403 1 23.9116 24.017 -0.682093 23.9116 24.017 -0.682093
404 2 25.7525 24.0859 1.10159 25.7525 24.0859 1.10159
405 2 25.9929 23.973 -2.18672 25.9929 23.973 -2.18672
406 1 26.7699 25.6871 -0.500304 26.7699 25.6871 -0.500304
407 2 28.2767 25.8192 1.44413 28.2767 25.8192 1.44413
408 2 28.8949 25.5757 -1.83982 28.8949 25.5757 -1.83982
409 1 29.5657 24.015 -0.015855 29.5657 24.015 -0.015855
410 2 31.3079 23.9807 1.76443 31.3079 23.9807 1.76443
411 2 31.5676 24.1505 -1.51644 31.5676 24.1505 -1.51644
412 1 32.394 25.6879 0.299081 32.394 25.6879 0.299081
413 2 34.2793 25.8753 2.02607 34.2793 25.8753 2.02607
414 2 34.3885 25.5999 -1.26994 34.3885 25.5999 -1.26994
415 1 35.2518 24.1793 0.565634 35.2518 24.1793 0.565634
416 2 37.083 24.3029 2.25946 37.083 24.3029 2.25946
417 2 37.1175 23.853 -0.997637 37.1175 23.853 -0.997637
418 1 38.0355 25.7179 0.421112 38.0355 25.7179 0.421112
419 2 39.9386 25.8802 2.094 39.9386 25.8802 2.094
420 2 39.9419 25.4245 -1.16342 39.9419 25.4245 -1.16342
421 1 40.8693 24.0586 0.674194 40.8693 24.0586 0.674194
422 2 42.8381 24.2582 2.23016 42.8381 24.2582 2.23016
423 2 42.8989 23.8932 -1.0116 42.8989 23.8932 -1.0116
424 1 43.7761 25.7113 0.407086 43.7761 25.7113 0.407086
425 2 45.7475 25.987 2.0517 45.7475 25.987 2.0517
426 2 45.7345 25.4843 -1.13279 45.7345 25.4843 -1.13279
427 1 46.6393 24.1178 0.747572 46.6393 24.1178 0.747572
428 2 48.8264 24.3416 2.1951 48.8264 24.3416 2.1951
429 2 48.4307 23.8498 -0.958614 48.4307 23.8498 -0.958614
430 1 49.6272 25.7817 0.255178 49.6272 25.7817 0.255178
431 2 51.6291 25.8884 1.80422 51.6291 25.8884 1.80422
432 2 51.42 25.6073 -1.58729 51.42 25.6073 -1.58729
433 1 1.0912 27.3741 -0.0518249 1.0912 27.3741 -0.0518249
434 2 3.07614 27.4049 1.41261 3.07614 27.4049 1.41261
435 2 2.93222 27.2596 -1.78687 2.93222 27.2596 -1.78687
436 1 3.98247 29.0555 -0.266592 3.98247 29.0555 -0.266592
437 2 6.07128 28.9337 1.12978 6.07128 28.9337 1.12978
438 2 5.75112 28.8477 -2.16199 5.75112 28.8477 -2.16199
439 1 6.8536 27.218 -0.54634 6.8536 27.218 -0.54634
440 2 8.77726 27.3853 0.967696 8.77726 27.3853 0.967696
441 2 8.77612 27.0993 -2.3317 8.77612 27.0993 -2.3317
442 1 9.67477 28.9677 -0.8324 9.67477 28.9677 -0.8324
443 2 11.8325 29.1784 0.598533 11.8325 29.1784 0.598533
444 2 11.4903 28.9645 -2.66658 11.4903 28.9645 -2.66658
445 1 12.5328 27.3869 -0.868515 12.5328 27.3869 -0.868515
446 2 14.539 27.5692 0.626262 14.539 27.5692 0.626262
447 2 14.1937 26.9114 -2.63865 14.1937 26.9114 -2.63865
448 1 15.3475 28.8885 -1.27906 15.3475 28.8885 -1.27906
449 2 17.2934 29.0865 0.316938 17.2934 29.0865 0.316938
450 2 17.3822 28.7693 -2.77702 17.3822 28.7693 -2.77702
451 1 18.1974 27.2674 -1.06003 18.1974 27.2674 -1.06003
452 2 20.049 27.3921 0.60779 20.049 27.3921 0.60779
453 2 20.1702 27.2444 -2.61147 20.1702 27.2444 -2.61147
454 1 21.0913 28.9997 -0.999287 21.0913 28.9997 -0.999287
455 2 22.7629 29.0624 0.896927 22.7629 29.0624 0.896927
456 2 23.2809 29.0285 -2.30993 23.2809 29.0285 -2.30993
457 1 23.8708 27.3422 -0.521768 23.8708 27.3422 -0.521768
458 2 25.8174 27.3344 1.10302 25.8174 27.3344 1.10302
459 2 25.8371 27.3941 -2.07175 25.8371 27.3941 -2.07175
460 1 26.784 28.9924 -0.353517 26.784 28.9924 -0.353517
461 2 28.5815 29.1978 1.43406 28.5815 29.1978 1.43406
462 2 28.9036 28.8861 -1.79129 28.9036 28.8861 -1.79129
463 1 29.5884 27.2815 -0.045714 29.5884 27.2815 -0.045714
464 2 31.208 27.2843 1.83085 31.208 27.2843 1.83085
465 2 31.6904 27.2708 -1.41586 31.6904 27.2708 -1.41586
466 1 32.3845 28.9944 0.326126 32.3845 28.9944 0.326126
467 2 34.4354 29.2769 1.85724 34.4354 29.2769 1.85724
468 2 34.3 28.8036 -1.40748 34.3 28.8036 -1.40748
469 1 35.1909 27.3793 0.34377 35.1909 27.3793 0.34377
470 2 37.1473 27.3527 1.96247 37.1473 27.3527 1.96247
471 2 37.0237 27.1671 -1.29722 37.0237 27.1671 -1.29722
472 1 38.0852 28.9885 0.151797 38.0852 28.9885 0.151797
473 2 40.0741 29.1788 1.62588 40.0741 29.1788 1.62588
474 2 39.9773 28.7244 -1.57277 39.9773 28.7244 -1.57277
475 1 40.9151 27.3396 0.209151 40.9151 27.3396 0.209151
476 2 42.8756 27.6109 1.86358 42.8756 27.6109 1.86358
477 2 42.8509 27.1881 -1.39077 42.8509 27.1881 -1.39077
478 1 43.8425 29.0248 0.0681793 43.8425 29.0248 0.0681793
479 2 45.7956 29.2454 1.69203 45.7956 29.2454 1.69203
480 2 45.6621 28.7932 -1.61791 45.6621 28.7932 -1.61791
481 1 46.7348 27.3598 0.220112 46.7348 27.3598 0.220112
482 2 48.6882 27.4172 1.84879 48.6882 27.4172 1.84879
483 2 48.5558 27.4107 -1.37418 48.5558 27.4107 -1.37418
484 1 49.5514 29.0553 0.215474 49.5514 29.0553 0.215474
485 2 51.5693 28.9641 1.78506 51.5693 28.9641 1.78506
486 2 51.313 29.0402 -1.45646 51.313 29.0402 -1.45646
487 1 1.01973 30.6906 0.0290815 1.01973 30.6906 0.0290815
488 2 3.16699 30.7446 1.48089 3.16699 30.7446 1.48089
489 2 2.7516 30.5732 -1.80305 2.7516 30.5732 -1.80305
490 1 3.9504 32.3105 -0.329712 3.9504 32.3105 -0.329712
491 2 6.00507 32.3615 1.0627 6.00507 32.3615 1.0627
492 2 5.6173 32.194 -2.11995 5.6173 32.194 -2.11995
493 1 6.87034 30.5911 -0.613298 6.87034 30.5911 -0.613298
494 2 8.79473 30.5889 0.984674 8.79473 30.5889 0.984674
495 2 8.74219 30.6133 -2.37758 8.74219 30.6133 -2.37758
496 1 9.75942 32.2545 -0.739918 9.75942 32.2545 -0.739918
497 2 11.9502 32.2649 0.549246 11.9502 32.2649 0.549246
498 2 11.3836 32.2381 -2.66339 11.3836 32.2381 -2.66339
499 1 12.5476 30.656 -1.23631 12.5476 30.656 -1.23631
500 2 14.5714 30.7138 0.305167 14.5714 30.7138 0.305167
501 2 14.3266 30.443 -2.91204 14.3266 30.443 -2.91204
502 1 15.4296 32.1677 -1.51616 15.4296 32.1677 -1.51616
503 2 17.2047 32.3715 0.24604 17.2047 32.3715 0.24604
504 2 17.4252 32.1945 -3.03189 17.4252 32.1945 -3.03189
505 1 18.2519 30.5452 -1.32579 18.2519 30.5452 -1.32579
506 2 19.8387 30.585 0.594378 19.8387 30.585 0.594378
507 2 20.2816 30.6979 -2.74722 20.2816 30.6979 -2.74722
508 1 20.9723 32.2582 -0.890672 20.9723 32.2582 -0.890672
509 2 22.6875 32.3854 0.944267 22.6875 32.3854 0.944267
510 2 23.0834 32.2043 -2.36938 23.0834 32.2043 -2.36938
511 1 23.9598 30.7046 -0.568491 23.9598 30.7046 -0.568491
512 2 25.7642 30.7163 1.12047 25.7642 30.7163 1.12047
513 2 25.8678 30.6291 -2.2234 25.8678 30.6291 -2.2234
514 1 26.806 32.2365 -0.553692 26.806 32.2365 -0.553692
515 2 28.5599 32.363 1.18283 28.5599 32.363 1.18283
516 2 28.8775 32.1302 -2.01009 28.8775 32.1302 -2.01009
517 1 29.6685 30.6723 -0.21082 29.6685 30.6723 -0.21082
518 2 31.4049 31.0259 1.50488 31.4049 31.0259 1.50488
519 2 31.5754 30.1942 -1.68893 31.5754 30.1942 -1.68893
520 1 32.4968 32.2282 -0.441538 32.4968 32.2282 -0.441538
521 2 34.2695 32.3948 1.31805 34.2695 32.3948 1.31805
522 2 34.4867 32.0815 -1.96144 34.4867 32.0815 -1.96144
523 1 35.2242 30.6529 -0.184691 35.2242 30.6529 -0.184691
524 2 37.1313 30.9124 1.41286 37.1313 30.9124 1.41286
525 2 37.2344 30.4344 -1.72505 37.2344 30.4344 -1.72505
526 1 38.092 32.3512 -0.294529 38.092 32.3512 -0.294529
527 2 40.1104 32.4858 1.215 40.1104 32.4858 1.215
528 2 39.9381 32.0635 -2.09866 39.9381 32.0635 -2.09866
529 1 40.9536 30.6097 -0.265446 40.9536 30.6097 -0.265446
530 2 42.6882 30.7109 1.44127 42.6882 30.7109 1.44127
531 2 42.9691 30.4581 -1.71795 42.9691 30.4581 -1.71795
532 1 43.7786 32.296 -0.275258 43.7786 32.296 -0.275258
533 2 45.8224 32.3774 1.35932 45.8224 32.3774 1.35932
534 2 45.5893 32.2156 -1.97068 45.5893 32.2156 -1.97068
535 1 46.6998 30.6295 -0.187927 46.6998 30.6295 -0.187927
536 2 48.4412 30.8724 1.54678 48.4412 30.8724 1.54678
537 2 48.6206 30.4399 -1.75 48.6206 30.4399 -1.75
538 1 49.4582 32.2412 -0.191216 49.4582 32.2412 -0.191216
539 2 51.33 32.4603 1.3742 51.33 32.4603 1.3742
540 2 51.4261 32.0442 -1.82552 51.4261 32.0442 -1.82552
541 1 1.06802 33.843 -0.429732 1.06802 33.843 -0.429732