ITEM: TIMESTEP
17900
ITEM: NUMBER OF ATOMS
810
ITEM: BOX BOUNDS pp pp pp
8.4137701477268123e-01 5.2176227985227342e+01
8.0961581116522285e-01 5.0206599188834083e+01
-1.0000000000000000e+01 1.0000000000000000e+01
ITEM: ATOMS id type x y z xu yu zu
1 1 0.993611 1.00234 0.505885 0.993611 1.00234 0.505885
2 2 2.9063 0.93109 2.13104 2.9063 0.93109 2.13104
3 2 2.90526 1.15987 -1.12977 2.90526 1.15987 -1.12977
4 1 3.80708 2.70099 0.59993 3.80708 2.70099 0.59993
5 2 5.77819 2.86583 2.12508 5.77819 2.86583 2.12508
6 2 5.59232 2.77573 -1.30867 5.59232 2.77573 -1.30867
7 1 6.66369 1.14533 0.481177 6.66369 1.14533 0.481177
8 2 8.87393 1.15087 1.81769 8.87393 1.15087 1.81769
9 2 8.27552 0.947926 -1.38687 8.27552 0.947926 -1.38687
10 1 9.5476 2.67673 0.0909123 9.5476 2.67673 0.0909123
11 2 11.4438 2.67969 1.65902 11.4438 2.67969 1.65902
12 2 11.2836 2.61623 -1.67059 11.2836 2.61623 -1.67059
13 1 12.4467 1.01728 -0.0213531 12.4467 1.01728 -0.0213531
14 2 14.2712 1.03092 1.65843 14.2712 1.03092 1.65843
15 2 14.4529 0.866356 -1.54988 14.4529 0.866356 -1.54988
16 1 15.2547 2.62024 0.000266418 15.2547 2.62024 0.000266418
17 2 17.4376 2.6596 1.45937 17.4376 2.6596 1.45937
18 2 17.1485 2.59342 -1.78037 17.1485 2.59342 -1.78037
19 1 18.1187 0.92278 -0.079659 18.1187 0.92278 -0.079659
20 2 20.0385 0.819656 1.46231 20.0385 0.819656 1.46231
21 2 20.0012 1.01008 -1.75261 20.0012 1.01008 -1.75261
22 1 20.983 2.62156 -0.0864842 20.983 2.62156 -0.0864842
23 2 23.1209 2.59717 1.25255 23.1209 2.59717 1.25255
24 2 22.6306 2.59801 -1.97682 22.6306 2.59801 -1.97682
25 1 23.818 0.929327 -0.593758 23.818 0.929327 -0.593758
26 2 25.8159 1.01099 0.830949 25.8159 1.01099 0.830949
27 2 25.7048 0.941615 -2.38637 25.7048 0.941615 -2.38637
28 1 26.6622 2.6014 -0.893241 26.6622 2.6014 -0.893241
29 2 28.475 2.80988 0.849614 28.475 2.80988 0.849614
30 2 28.7007 2.50487 -2.45461 28.7007 2.50487 -2.45461
31 1 29.48 0.920603 -0.657206 29.48 0.920603 -0.657206
32 2 31.4437 0.852965 0.811187 31.4437 0.852965 0.811187
33 2 31.3298 1.09689 -2.40688 31.3298 1.09689 -2.40688
34 1 32.4216 2.65809 -0.742566 32.4216 2.65809 -0.742566
35 2 34.3184 2.7159 1.09781 34.3184 2.7159 1.09781
36 2 34.5007 2.66187 -2.1048 34.5007 2.66187 -2.1048
37 1 35.2377 1.01335 -0.409067 35.2377 1.01335 -0.409067
38 2 36.9802 50.4177 1.38761 36.9802 1.02069 1.38761
39 2 37.2316 1.06188 -1.79365 37.2316 1.06188 -1.79365
40 1 38.1224 2.64891 -0.0849738 38.1224 2.64891 -0.0849738
41 2 40.0304 2.49982 1.517 40.0304 2.49982 1.517
42 2 40.0195 2.75236 -1.69922 40.0195 2.75236 -1.69922
43 1 40.9343 0.954965 -0.224364 40.9343 0.954965 -0.224364
44 2 42.7366 0.941237 1.54698 42.7366 0.941237 1.54698
45 2 42.9377 1.06718 -1.82272 42.9377 1.06718 -1.82272
46 1 43.8151 2.73645 0.0461972 43.8151 2.73645 0.0461972
47 2 45.5385 2.39573 1.89041 45.5385 2.39573 1.89041
48 2 45.8052 3.09472 -1.37755 45.8052 3.09472 -1.37755
49 1 46.6153 1.10009 0.0785544 46.6153 1.10009 0.0785544
50 2 48.2651 0.550666 1.82501 48.2651 0.550666 1.82501
51 2 48.6912 1.41642 -1.28854 48.6912 1.41642 -1.28854
52 1 49.4575 2.55477 0.791881 49.4575 2.55477 0.791881
53 2 51.5681 2.6901 2.24122 51.5681 2.6901 2.24122
54 2 51.2561 2.7491 -0.999955 51.2561 2.7491 -0.999955
55 1 0.981374 4.33835 0.630726 0.981374 4.33835 0.630726
56 2 2.69762 4.33337 2.33104 2.69762 4.33337 2.33104
57 2 2.93902 4.37767 -0.870608 2.93902 4.37767 -0.870608
58 1 3.84727 6.06586 0.908357 3.84727 6.06586 0.908357
59 2 6.01379 5.9225 2.11528 6.01379 5.9225 2.11528
60 2 5.41555 6.12992 -1.13073 5.41555 6.12992 -1.13073
61 1 6.64968 4.35225 0.262432 6.64968 4.35225 0.262432
62 2 8.60383 4.29776 1.76554 8.60383 4.29776 1.76554
63 2 8.4054 4.33221 -1.47634 8.4054 4.33221 -1.47634
64 1 9.39293 5.93261 0.0543073 9.39293 5.93261 0.0543073
65 2 11.3093 5.86675 1.6366 11.3093 5.86675 1.6366
66 2 11.3077 6.09498 -1.61011 11.3077 6.09498 -1.61011
67 1 12.2551 4.25723 -0.0321859 12.2551 4.25723 -0.0321859
68 2 14.1318 4.23537 1.59243 14.1318 4.23537 1.59243
69 2 14.1504 4.25951 -1.64672 14.1504 4.25951 -1.64672
70 1 15.1824 5.84325 0.0043912 15.1824 5.84325 0.0043912
71 2 17.1248 5.79873 1.51008 17.1248 5.79873 1.51008
72 2 17.0264 5.95598 -1.67701 17.0264 5.95598 -1.67701
73 1 18.1586 4.30864 -0.293176 18.1586 4.30864 -0.293176
74 2 19.8574 4.35062 1.39163 19.8574 4.35062 1.39163
75 2 20.115 4.28468 -1.80664 20.115 4.28468 -1.80664
76 1 20.9454 5.90648 -0.10492 20.9454 5.90648 -0.10492
77 2 23.0109 5.88678 1.34598 23.0109 5.88678 1.34598
78 2 22.637 5.87362 -1.95135 22.637 5.87362 -1.95135
79 1 23.7959 4.23146 -0.483069 23.7959 4.23146 -0.483069
80 2 25.8541 4.23402 0.864252 25.8541 4.23402 0.864252
81 2 25.4753 4.26654 -2.37853 25.4753 4.26654 -2.37853
82 1 26.6614 5.94062 -0.869667 26.6614 5.94062 -0.869667
83 2 28.5783 5.93551 0.723572 28.5783 5.93551 0.723572
84 2 28.6 5.86051 -2.44504 28.6 5.86051 -2.44504
85 1 29.5181 4.21611 -0.848891 29.5181 4.21611 -0.848891
86 2 31.3944 4.30462 0.868193 31.3944 4.30462 0.868193
87 2 31.4878 4.50071 -2.33101 31.4878 4.50071 -2.33101
88 1 32.487 5.93226 -0.561101 32.487 5.93226 -0.561101
89 2 34.1765 5.84923 1.12962 34.1765 5.84923 1.12962
90 2 34.4489 6.19238 -2.11088 34.4489 6.19238 -2.11088
91 1 35.3484 4.34595 -0.490022 35.3484 4.34595 -0.490022
92 2 36.8959 4.38727 1.3956 36.8959 4.38727 1.3956
93 2 37.4139 4.32154 -1.87907 37.4139 4.32154 -1.87907
94 1 38.2056 6.01885 -0.21334 38.2056 6.01885 -0.21334
95 2 39.9166 5.82359 1.59861 39.9166 5.82359 1.59861
96 2 40.2648 6.0905 -1.60837 40.2648 6.0905 -1.60837
97 1 41.0284 4.26816 -0.025607 41.0284 4.26816 -0.025607
98 2 42.8169 4.23827 1.77992 42.8169 4.23827 1.77992
99 2 42.9393 4.48487 -1.60283 42.9393 4.48487 -1.60283
100 1 43.8146 5.96381 0.337711 43.8146 5.96381 0.337711
101 2 45.4411 5.84173 2.1985 45.4411 5.84173 2.1985
102 2 45.8735 6.1074 -1.03956 45.8735 6.1074 -1.03956
103 1 46.6429 4.41249 0.674938 46.6429 4.41249 0.674938
104 2 48.5053 4.35902 2.33354 48.5053 4.35902 2.33354
105 2 48.6965 4.32969 -0.855855 48.6965 4.32969 -0.855855
106 1 49.4791 6.02848 0.7465 49.4791 6.02848 0.7465
107 2 51.347 5.70123 2.42408 51.347 5.70123 2.42408
108 2 51.489 6.19941 -0.795635 51.489 6.19941 -0.795635
109 1 0.962 7.6626 1.00068 0.962 7.6626 1.00068
110 2 2.92368 7.69914 2.46827 2.92368 7.69914 2.46827
111 2 2.77364 7.54556 -0.782893 2.77364 7.54556 -0.782893
112 1 3.81943 9.28565 0.686028 3.81943 9.28565 0.686028
113 2 5.88279 9.22275 2.10471 5.88279 9.22275 2.10471
114 2 5.49413 9.3065 -1.20895 5.49413 9.3065 -1.20895
115 1 6.61377 7.69941 0.389997 6.61377 7.69941 0.389997
116 2 8.78666 7.65448 1.69995 8.78666 7.65448 1.69995
117 2 8.25386 7.52452 -1.50743 8.25386 7.52452 -1.50743
118 1 9.46035 9.19456 -0.155847 9.46035 9.19456 -0.155847
119 2 11.269 9.38301 1.52829 11.269 9.38301 1.52829
120 2 11.5223 9.05038 -1.65557 11.5223 9.05038 -1.65557
121 1 12.4055 7.55951 0.115286 12.4055 7.55951 0.115286
122 2 14.318 7.7075 1.57089 14.318 7.7075 1.57089
123 2 14.1496 7.45992 -1.60172 14.1496 7.45992 -1.60172
124 1 15.1809 9.20283 -0.229 15.1809 9.20283 -0.229
125 2 17.0319 9.22278 1.48059 17.0319 9.22278 1.48059
126 2 17.3798 9.16477 -1.66609 17.3798 9.16477 -1.66609
127 1 18.1111 7.56315 -0.0088603 18.1111 7.56315 -0.0088603
128 2 20.0579 7.58261 1.52378 20.0579 7.58261 1.52378
129 2 19.8627 7.43544 -1.76593 19.8627 7.43544 -1.76593
130 1 20.8833 9.22397 -0.184488 20.8833 9.22397 -0.184488
131 2 22.8109 9.09914 1.39664 22.8109 9.09914 1.39664
132 2 22.7675 9.34577 -1.84237 22.7675 9.34577 -1.84237
133 1 23.7452 7.57203 -0.474101 23.7452 7.57203 -0.474101
134 2 25.8826 7.4605 0.931058 25.8826 7.4605 0.931058
135 2 25.4488 7.65485 -2.34162 25.4488 7.65485 -2.34162
136 1 26.5464 9.22517 -0.741451 26.5464 9.22517 -0.741451
137 2 28.5 9.03074 0.822503 28.5 9.03074 0.822503
138 2 28.5054 9.46622 -2.26479 28.5054 9.46622 -2.26479
139 1 29.4812 7.6056 -0.957015 29.4812 7.6056 -0.957015
140 2 31.2216 7.54286 0.976593 31.2216 7.54286 0.976593
141 2 31.6709 7.62072 -2.25781 31.6709 7.62072 -2.25781
142 1 32.3457 9.2209 -0.365718 32.3457 9.2209 -0.365718
143 2 34.1765 9.14354 1.33886 34.1765 9.14354 1.33886
144 2 34.2901 9.37654 -1.9398 34.2901 9.37654 -1.9398
145 1 35.2639 7.65638 -0.376994 35.2639 7.65638 -0.376994
146 2 37.0037 7.3534 1.44126 37.0037 7.3534 1.44126
147 2 37.4031 7.8226 -1.63831 37.4031 7.8226 -1.63831
148 1 38.0781 9.18645 0.238413 38.0781 9.18645 0.238413
149 2 39.919 9.06652 1.93508 39.919 9.06652 1.93508
150 2 40.0659 9.26577 -1.36706 40.0659 9.26577 -1.36706
151 1 40.9677 7.55295 0.239385 40.9677 7.55295 0.239385
152 2 42.7475 7.52415 1.84913 42.7475 7.52415 1.84913
153 2 42.8733 7.77583 -1.24003 42.8733 7.77583 -1.24003
154 1 43.7863 9.27583 0.444745 43.7863 9.27583 0.444745
155 2 45.4269 9.21108 2.22069 45.4269 9.21108 2.22069
156 2 45.7992 9.22948 -1.01793 45.7992 9.22948 -1.01793
157 1 46.5577 7.61524 0.710577 46.5577 7.61524 0.710577
158 2 48.5496 7.70495 2.46677 48.5496 7.70495 2.46677
159 2 48.5467 7.80067 -0.920098 48.5467 7.80067 -0.920098
160 1 49.4558 9.30758 0.784095 49.4558 9.30758 0.784095
161 2 51.2234 9.52871 2.45121 51.2234 9.52871 2.45121
162 2 51.4019 9.22861 -0.815536 51.4019 9.22861 -0.815536
163 1 0.981596 10.9975 0.762547 0.981596 10.9975 0.762547
164 2 2.96932 11.0119 2.19256 2.96932 11.0119 2.19256
165 2 2.83839 10.8323 -1.02016 2.83839 10.8323 -1.02016
166 1 3.74732 12.6395 0.437403 3.74732 12.6395 0.437403
167 2 5.72919 12.6009 1.98976 5.72919 12.6009 1.98976
168 2 5.53522 12.576 -1.26421 5.53522 12.576 -1.26421
169 1 6.60432 10.9451 0.392346 6.60432 10.9451 0.392346
170 2 8.79341 10.8282 1.59615 8.79341 10.8282 1.59615
171 2 8.18385 10.8387 -1.6327 8.18385 10.8387 -1.6327
172 1 9.54685 12.5876 -0.2077 9.54685 12.5876 -0.2077
173 2 11.3801 12.4318 1.40442 11.3801 12.4318 1.40442
174 2 11.388 12.645 -1.85077 11.388 12.645 -1.85077
175 1 12.4025 10.9243 -0.235811 12.4025 10.9243 -0.235811
176 2 14.2992 10.7212 1.39001 14.2992 10.7212 1.39001
177 2 14.3451 11.0121 -1.80325 14.3451 11.0121 -1.80325
178 1 15.2207 12.5393 -0.0718051 15.2207 12.5393 -0.0718051
179 2 17.0845 12.5194 1.60556 17.0845 12.5194 1.60556
180 2 17.1551 12.3992 -1.76726 17.1551 12.3992 -1.76726
181 1 18.0505 10.8745 0.0184651 18.0505 10.8745 0.0184651
182 2 19.9606 10.7096 1.53485 19.9606 10.7096 1.53485
183 2 19.9186 10.8769 -1.68799 19.9186 10.8769 -1.68799
184 1 20.9124 12.4193 -0.0748595 20.9124 12.4193 -0.0748595
185 2 22.9154 12.5032 1.39068 22.9154 12.5032 1.39068
186 2 22.7406 12.4191 -1.81552 22.7406 12.4191 -1.81552
187 1 23.87 10.8392 -0.174471 23.87 10.8392 -0.174471
188 2 25.9094 10.8067 1.14256 25.9094 10.8067 1.14256
189 2 25.3994 10.9936 -2.08615 25.3994 10.9936 -2.08615
190 1 26.6562 12.5166 -0.495941 26.6562 12.5166 -0.495941
191 2 28.5395 12.7065 1.19134 28.5395 12.7065 1.19134
192 2 28.6006 12.4693 -2.09909 28.6006 12.4693 -2.09909
193 1 29.4676 10.9302 -0.466718 29.4676 10.9302 -0.466718
194 2 31.4523 10.9953 1.15462 31.4523 10.9953 1.15462
195 2 31.4792 10.8984 -2.00352 31.4792 10.8984 -2.00352
196 1 32.3626 12.5979 -0.364507 32.3626 12.5979 -0.364507
197 2 34.1772 12.5982 1.42065 34.1772 12.5982 1.42065
198 2 34.3778 12.4972 -1.86778 34.3778 12.4972 -1.86778
199 1 35.2542 10.8472 -0.0844575 35.2542 10.8472 -0.0844575
200 2 36.9858 10.8456 1.73552 36.9858 10.8456 1.73552
201 2 37.3105 10.9221 -1.51641 37.3105 10.9221 -1.51641
202 1 38.0576 12.5715 0.243475 38.0576 12.5715 0.243475
203 2 39.8809 12.4991 1.97008 39.8809 12.4991 1.97008
204 2 40.1259 12.4602 -1.29799 40.1259 12.4602 -1.29799
205 1 40.9011 10.8506 0.383257 40.9011 10.8506 0.383257
206 2 42.6249 10.7625 2.1318 42.6249 10.7625 2.1318
207 2 42.8238 10.9032 -1.21875 42.8238 10.9032 -1.21875
208 1 43.7248 12.5444 0.558188 43.7248 12.5444 0.558188
209 2 45.6014 12.7129 2.10799 45.6014 12.7129 2.10799
210 2 45.5718 12.3252 -1.13154 45.5718 12.3252 -1.13154
211 1 46.5731 10.8489 0.720608 46.5731 10.8489 0.720608
212 2 48.4876 10.9598 2.36569 48.4876 10.9598 2.36569
213 2 48.4205 10.9669 -0.835104 48.4205 10.9669 -0.835104
214 1 49.4398 12.6344 0.792944 49.4398 12.6344 0.792944
215 2 51.5311 12.9174 2.24538 51.5311 12.9174 2.24538
216 2 51.22 12.3703 -0.95945 51.22 12.3703 -0.95945
217 1 0.894954 14.1965 0.372738 0.894954 14.1965 0.372738
218 2 2.84406 14.448 1.9205 2.84406 14.448 1.9205
219 2 2.8062 14.1866 -1.35738 2.8062 14.1866 -1.35738
220 1 3.71824 15.9953 0.0749395 3.71824 15.9953 0.0749395
221 2 5.6677 16.0742 1.63161 5.6677 16.0742 1.63161
222 2 5.62345 15.7453 -1.57823 5.62345 15.7453 -1.57823
223 1 6.59807 14.1886 0.262099 6.59807 14.1886 0.262099
224 2 8.65575 14.2294 1.56773 8.65575 14.2294 1.56773
225 2 8.31178 14.266 -1.61707 8.31178 14.266 -1.61707
226 1 9.53598 15.8954 -0.105038 9.53598 15.8954 -0.105038
227 2 11.5281 15.8701 1.40593 11.5281 15.8701 1.40593
228 2 11.2346 15.7937 -1.84361 11.2346 15.7937 -1.84361
229 1 12.371 14.2354 -0.188999 12.371 14.2354 -0.188999
230 2 14.0895 14.1452 1.58588 14.0895 14.1452 1.58588
231 2 14.2372 14.255 -1.80334 14.2372 14.255 -1.80334
232 1 15.2441 15.7896 -0.00487861 15.2441 15.7896 -0.00487861
233 2 17.2535 15.7478 1.57173 17.2535 15.7478 1.57173
234 2 17.1355 15.8888 -1.65536 17.1355 15.8888 -1.65536
235 1 18.0741 14.1596 -0.132293 18.0741 14.1596 -0.132293
236 2 19.9422 14.0975 1.53716 19.9422 14.0975 1.53716
237 2 20.0524 14.0682 -1.74662 20.0524 14.0682 -1.74662
238 1 21.0368 15.7399 -0.154685 21.0368 15.7399 -0.154685
239 2 23.0679 15.8208 1.24545 23.0679 15.8208 1.24545
240 2 22.6549 15.6668 -2.00092 22.6549 15.6668 -2.00092
241 1 23.759 14.1695 -0.34621 23.759 14.1695 -0.34621
242 2 25.8053 14.1257 1.27674 25.8053 14.1257 1.27674
243 2 25.5237 14.1805 -1.99496 25.5237 14.1805 -1.99496
244 1 26.6867 15.7898 -0.342319 26.6867 15.7898 -0.342319
245 2 28.688 16.0404 1.11648 28.688 16.0404 1.11648
246 2 28.4756 15.8781 -2.09116 28.4756 15.8781 -2.09116
247 1 29.514 14.269 -0.506269 29.514 14.269 -0.506269
248 2 31.4405 14.2801 1.24487 31.4405 14.2801 1.24487
249 2 31.4628 14.2797 -1.99354 31.4628 14.2797 -1.99354
250 1 32.3706 15.8868 -0.410271 32.3706 15.8868 -0.410271
251 2 34.1558 15.8895 1.33308 34.1558 15.8895 1.33308
252 2 34.4069 15.7656 -1.90124 34.4069 15.7656 -1.90124
253 1 35.1743 14.1461 -0.175418 35.1743 14.1461 -0.175418
254 2 36.9012 14.2953 1.79593 36.9012 14.2953 1.79593
255 2 37.305 14.2723 -1.47444 37.305 14.2723 -1.47444
256 1 38.0067 15.926 0.305297 38.0067 15.926 0.305297
257 2 39.8552 15.7148 1.93741 39.8552 15.7148 1.93741
258 2 40.0045 15.8406 -1.32666 40.0045 15.8406 -1.32666
259 1 40.8803 14.1533 0.297247 40.8803 14.1533 0.297247
260 2 42.6549 14.2028 2.06177 42.6549 14.2028 2.06177
261 2 42.803 13.9499 -1.20985 42.803 13.9499 -1.20985
262 1 43.8042 15.8972 0.374678 43.8042 15.8972 0.374678
263 2 45.6611 15.7954 1.91168 45.6611 15.7954 1.91168
264 2 45.5853 15.8613 -1.39487 45.5853 15.8613 -1.39487
265 1 46.5543 14.2103 0.322545 46.5543 14.2103 0.322545
266 2 48.3145 14.4327 2.11357 48.3145 14.4327 2.11357
267 2 48.6778 13.9763 -1.10414 48.6778 13.9763 -1.10414
268 1 49.3586 15.8188 0.451693 49.3586 15.8188 0.451693
269 2 51.3792 15.9928 1.94221 51.3792 15.9928 1.94221
270 2 51.0826 15.6951 -1.29407 51.0826 15.6951 -1.29407
271 1 0.802042 17.5004 0.000416882 0.802042 17.5004 0.000416882
272 2 2.80344 17.7835 1.54479 2.80344 17.7835 1.54479
273 2 2.70859 17.3557 -1.65739 2.70859 17.3557 -1.65739
274 1 3.73283 19.131 -0.285212 3.73283 19.131 -0.285212
275 2 5.55974 19.1479 1.45876 5.55974 19.1479 1.45876
276 2 5.79557 19.2175 -1.74211 5.79557 19.2175 -1.74211
277 1 6.66674 17.5228 -0.139829 6.66674 17.5228 -0.139829
278 2 8.54913 17.5358 1.47478 8.54913 17.5358 1.47478
279 2 8.52136 17.5416 -1.81172 8.52136 17.5416 -1.81172
280 1 9.51314 19.1301 -0.0968973 9.51314 19.1301 -0.0968973
281 2 11.4708 19.0126 1.49338 11.4708 19.0126 1.49338
282 2 11.3992 19.3163 -1.71078 11.3992 19.3163 -1.71078
283 1 12.3861 17.4979 -0.312568 12.3861 17.4979 -0.312568
284 2 14.16 17.6645 1.42417 14.16 17.6645 1.42417
285 2 14.3864 17.3863 -1.82561 14.3864 17.3863 -1.82561
286 1 15.3031 19.0379 -0.238555 15.3031 19.0379 -0.238555
287 2 17.065 19.1396 1.582 17.065 19.1396 1.582
288 2 17.2684 19.1486 -1.70333 17.2684 19.1486 -1.70333
289 1 18.1698 17.4648 0.0241581 18.1698 17.4648 0.0241581
290 2 20.1047 17.4724 1.5333 20.1047 17.4724 1.5333
291 2 19.9666 17.3598 -1.778 19.9666 17.3598 -1.778
292 1 20.9294 19.0336 -0.19597 20.9294 19.0336 -0.19597
293 2 22.9386 18.9866 1.32171 22.9386 18.9866 1.32171
294 2 22.7345 18.995 -1.9273 22.7345 18.995 -1.9273
295 1 23.8418 17.426 -0.434633 23.8418 17.426 -0.434633
296 2 25.731 17.4395 1.24046 25.731 17.4395 1.24046
297 2 25.755 17.4159 -2.05642 25.755 17.4159 -2.05642
298 1 26.8263 19.1229 -0.387144 26.8263 19.1229 -0.387144
299 2 28.7916 19.1803 1.11304 28.7916 19.1803 1.11304
300 2 28.4377 19.2456 -2.18727 28.4377 19.2456 -2.18727
301 1 29.5864 17.5851 -0.625369 29.5864 17.5851 -0.625369
302 2 31.4018 17.5317 1.07657 31.4018 17.5317 1.07657
303 2 31.4304 17.5406 -2.14706 31.4304 17.5406 -2.14706
304 1 32.3535 19.1651 -0.527788 32.3535 19.1651 -0.527788
305 2 34.0963 19.2804 1.26296 34.0963 19.2804 1.26296
306 2 34.3465 19.033 -2.00066 34.3465 19.033 -2.00066
307 1 35.187 17.5148 -0.258961 35.187 17.5148 -0.258961
308 2 36.9387 17.7469 1.53977 36.9387 17.7469 1.53977
309 2 37.3113 17.3304 -1.65878 37.3113 17.3304 -1.65878
310 1 38.0981 19.168 -0.148471 38.0981 19.168 -0.148471
311 2 39.8353 19.3087 1.67556 39.8353 19.3087 1.67556
312 2 40.0689 18.877 -1.59522 40.0689 18.877 -1.59522
313 1 40.9419 17.4965 0.401696 40.9419 17.4965 0.401696
314 2 42.9484 17.6866 1.95379 42.9484 17.6866 1.95379
315 2 42.7574 17.3695 -1.3023 42.7574 17.3695 -1.3023
316 1 43.7604 19.1495 0.0444831 43.7604 19.1495 0.0444831
317 2 45.6282 19.3141 1.7792 45.6282 19.3141 1.7792
318 2 45.7748 19.1011 -1.54994 45.7748 19.1011 -1.54994
319 1 46.5437 17.5158 0.298576 46.5437 17.5158 0.298576
320 2 48.3878 17.7622 1.89891 48.3878 17.7622 1.89891
321 2 48.4566 17.3309 -1.31976 48.4566 17.3309 -1.31976
322 1 49.4511 19.2307 0.178389 49.4511 19.2307 0.178389
323 2 51.2765 19.0831 1.6843 51.2765 19.0831 1.6843
324 2 51.2551 19.3103 -1.51302 51.2551 19.3103 -1.51302
325 1 0.935574 20.8135 0.06316 0.935574 20.8135 0.06316
326 2 2.90236 20.7158 1.6339 2.90236 20.7158 1.6339
327 2 2.76867 20.9725 -1.63359 2.76867 20.9725 -1.63359
328 1 3.86955 22.4332 0.0743431 3.86955 22.4332 0.0743431
329 2 5.83624 22.4629 1.65103 5.83624 22.4629 1.65103
330 2 5.77454 22.4715 -1.63443 5.77454 22.4715 -1.63443
331 1 6.67535 20.8621 0.0501734 6.67535 20.8621 0.0501734
332 2 8.53917 20.7704 1.61858 8.53917 20.7704 1.61858
333 2 8.49159 20.9574 -1.55667 8.49159 20.9574 -1.55667
334 1 9.53797 22.4797 0.149531 9.53797 22.4797 0.149531
335 2 11.544 22.4096 1.64723 11.544 22.4096 1.64723
336 2 11.359 22.3634 -1.59047 11.359 22.3634 -1.59047
337 1 12.3939 20.75 0.0803141 12.3939 20.75 0.0803141
338 2 14.467 20.5962 1.48406 14.467 20.5962 1.48406
339 2 14.1892 20.7411 -1.68866 14.1892 20.7411 -1.68866
340 1 15.2762 22.3821 -0.0141214 15.2762 22.3821 -0.0141214
341 2 17.3015 22.4049 1.64913 17.3015 22.4049 1.64913
342 2 17.239 22.2423 -1.64438 17.239 22.2423 -1.64438
343 1 18.0989 20.7196 0.0175134 18.0989 20.7196 0.0175134
344 2 20.1153 20.8857 1.41923 20.1153 20.8857 1.41923
345 2 19.8289 20.5573 -1.78641 19.8289 20.5573 -1.78641
346 1 20.9274 22.3266 -0.468209 20.9274 22.3266 -0.468209
347 2 22.8782 22.3278 1.1796 22.8782 22.3278 1.1796
348 2 22.8184 22.2837 -2.04172 22.8184 22.2837 -2.04172
349 1 23.8141 20.6641 -0.378371 23.8141 20.6641 -0.378371
350 2 25.7859 20.7341 1.24066 25.7859 20.7341 1.24066
351 2 25.7636 20.7884 -2.04711 25.7636 20.7884 -2.04711
352 1 26.7268 22.4264 -0.396262 26.7268 22.4264 -0.396262
353 2 28.6765 22.5025 1.13044 28.6765 22.5025 1.13044
354 2 28.5712 22.5419 -2.12661 28.5712 22.5419 -2.12661
355 1 29.4856 20.846 -0.600156 29.4856 20.846 -0.600156
356 2 31.3303 20.7839 1.14388 31.3303 20.7839 1.14388
357 2 31.4255 20.8781 -2.06421 31.4255 20.8781 -2.06421
358 1 32.3961 22.5407 -0.516232 32.3961 22.5407 -0.516232
359 2 34.0791 22.4212 1.30508 34.0791 22.4212 1.30508
360 2 34.4335 22.4919 -1.94539 34.4335 22.4919 -1.94539
361 1 35.2043 20.8096 -0.357318 35.2043 20.8096 -0.357318
362 2 36.9864 20.6867 1.43879 36.9864 20.6867 1.43879
363 2 37.3285 20.7331 -1.8473 37.3285 20.7331 -1.8473
364 1 38.1288 22.3576 -0.179412 38.1288 22.3576 -0.179412
365 2 40.042 22.5131 1.39599 40.042 22.5131 1.39599
366 2 39.9492 22.2132 -1.98298 39.9492 22.2132 -1.98298
367 1 40.9496 20.7364 -0.179093 40.9496 20.7364 -0.179093
368 2 42.75 20.9659 1.57052 42.75 20.9659 1.57052
369 2 42.8272 20.6011 -1.80441 42.8272 20.6011 -1.80441
370 1 43.6683 22.3946 -0.259736 43.6683 22.3946 -0.259736
371 2 45.5125 22.5228 1.59931 45.5125 22.5228 1.59931
372 2 45.7169 22.3531 -1.70083 45.7169 22.3531 -1.70083
373 1 46.5592 20.8005 0.142487 46.5592 20.8005 0.142487
374 2 48.5728 21.0024 1.76297 48.5728 21.0024 1.76297
375 2 48.4391 20.7523 -1.53865 48.4391 20.7523 -1.53865
376 1 49.4648 22.5188 0.0632168 49.4648 22.5188 0.0632168
377 2 51.4019 22.4058 1.72858 51.4019 22.4058 1.72858
378 2 51.4103 22.485 -1.57426 51.4103 22.485 -1.57426
379 1 1.09306 24.1843 0.0470754 1.09306 24.1843 0.0470754
380 2 3.06482 24.1372 1.67491 3.06482 24.1372 1.67491
381 2 2.96046 24.1316 -1.57122 2.96046 24.1316 -1.57122
382 1 3.81296 25.8344 0.0267072 3.81296 25.8344 0.0267072
383 2 5.68107 25.7324 1.72271 5.68107 25.7324 1.72271
384 2 5.774 25.8115 -1.55603 5.774 25.8115 -1.55603
385 1 6.71209 24.1142 0.00923015 6.71209 24.1142 0.00923015
386 2 8.56516 24.2023 1.70414 8.56516 24.2023 1.70414
387 2 8.6109 24.1296 -1.58405 8.6109 24.1296 -1.58405
388 1 9.67146 25.6787 0.103695 9.67146 25.6787 0.103695
389 2 11.6812 25.4388 1.66704 11.6812 25.4388 1.66704
390 2 11.5257 25.7815 -1.58123 11.5257 25.7815 -1.58123
391 1 12.4929 24.0087 -0.184681 12.4929 24.0087 -0.184681
392 2 14.2297 24.0789 1.56775 14.2297 24.0789 1.56775
393 2 14.5836 24.0378 -1.78655 14.5836 24.0378 -1.78655
394 1 15.3092 25.6682 -0.00987687 15.3092 25.6682 -0.00987687
395 2 17.1235 25.5571 1.68393 17.1235 25.5571 1.68393
396 2 17.232 25.7813 -1.60461 17.232 25.7813 -1.60461
397 1 18.1341 23.9904 -0.0632276 18.1341 23.9904 -0.0632276
398 2 20.1827 23.8711 1.36901 20.1827 23.8711 1.36901
399 2 19.8211 24.1886 -1.79879 19.8211 24.1886 -1.79879
400 1 20.9788 25.605 -0.196917 20.9788 25.605 -0.196917
401 2 22.9931 25.5994 1.28348 22.9931 25.5994 1.28348
402 2 22.6733 25.6494 -1.95372 22.6733 25.6494 -1.95372
403 1 23.8227 23.9787 -0.474395 23.8227 23.9787 -0.474395
404 2 25.6785 23.9843 1.24195 25.6785 23.9843 1.24195
405 2 25.7843 23.9889 -2.11599 25.7843 23.9889 -2.11599
406 1 26.6168 25.6039 -0.406373 26.6168 25.6039 -0.406373
407 2 28.5142 25.3133 1.28705 28.5142 25.3133 1.28705
408 2 28.5818 25.9489 -1.90647 28.5818 25.9489 -1.90647
409 1 29.567 24.1206 -0.547775 29.567 24.1206 -0.547775
410 2 31.2715 24.0145 1.15923 31.2715 24.0145 1.15923
411 2 31.4155 24.2847 -2.20478 31.4155 24.2847 -2.20478
412 1 32.3252 25.7465 -0.232863 32.3252 25.7465 -0.232863
413 2 34.2234 25.5687 1.47275 34.2234 25.5687 1.47275
414 2 34.2994 25.6269 -1.77718 34.2994 25.6269 -1.77718
415 1 35.2684 24.006 -0.187476 35.2684 24.006 -0.187476
416 2 37.1439 24.1622 1.39764 37.1439 24.1622 1.39764
417 2 37.2248 23.8231 -1.89659 37.2248 23.8231 -1.89659
418 1 38.1187 25.7439 -0.41493 38.1187 25.7439 -0.41493
419 2 39.9195 25.4752 1.33162 39.9195 25.4752 1.33162
420 2 40.043 25.9369 -1.87581 40.043 25.9369 -1.87581
421 1 40.9091 24.0011 -0.434769 40.9091 24.0011 -0.434769
422 2 42.7569 24.0538 1.38752 42.7569 24.0538 1.38752
423 2 42.8422 24.0465 -1.95137 42.8422 24.0465 -1.95137
424 1 43.797 25.7213 -0.292421 43.797 25.7213 -0.292421
425 2 45.5454 25.6299 1.48627 45.5454 25.6299 1.48627
426 2 45.6576 25.6907 -1.83124 45.6576 25.6907 -1.83124
427 1 46.5765 24.0861 -0.165067 46.5765 24.0861 -0.165067
428 2 48.4878 24.4195 1.44669 48.4878 24.4195 1.44669
429 2 48.5767 24.0607 -1.74994 48.5767 24.0607 -1.74994
430 1 49.4454 25.7695 -0.255132 49.4454 25.7695 -0.255132
431 2 51.3123 25.8069 1.61911 51.3123 25.8069 1.61911
432 2 51.4352 25.7556 -1.73898 51.4352 25.7556 -1.73898
433 1 0.92508 27.4076 -0.0160689 0.92508 27.4076 -0.0160689
434 2 2.90006 27.4888 1.60959 2.90006 27.4888 1.60959
435 2 2.81941 27.3363 -1.63108 2.81941 27.3363 -1.63108
436 1 3.97078 29.0618 -0.080842 3.97078 29.0618 -0.080842
437 2 5.66322 29.1997 1.68917 5.66322 29.1997 1.68917
438 2 5.98232 28.972 -1.51693 5.98232 28.972 -1.51693
439 1 6.67583 27.3832 0.231401 6.67583 27.3832 0.231401
440 2 8.67992 27.2981 1.80154 8.67992 27.2981 1.80154
441 2 8.57843 27.3277 -1.49396 8.57843 27.3277 -1.49396
442 1 9.64496 28.9879 0.0157591 9.64496 28.9879 0.0157591
443 2 11.4697 29.0717 1.65875 11.4697 29.0717 1.65875
444 2 11.5244 28.8849 -1.62323 11.5244 28.8849 -1.62323
445 1 12.4979 27.3106 0.138118 12.4979 27.3106 0.138118
446 2 14.5624 27.4335 1.59781 14.5624 27.4335 1.59781
447 2 14.3206 27.2615 -1.68685 14.3206 27.2615 -1.68685
448 1 15.2815 28.9741 -0.104152 15.2815 28.9741 -0.104152
449 2 17.096 29.0453 1.65342 17.096 29.0453 1.65342
450 2 17.2282 28.8228 -1.65924 17.2282 28.8228 -1.65924
451 1 18.1237 27.2261 0.167322 18.1237 27.2261 0.167322
452 2 20.1387 27.2897 1.60631 20.1387 27.2897 1.60631
453 2 19.8681 27.2984 -1.61729 19.8681 27.2984 -1.61729
454 1 20.9612 28.9016 -0.149761 20.9612 28.9016 -0.149761
455 2 23.1233 29.027 1.23745 23.1233 29.027 1.23745
456 2 22.6833 28.8722 -2.00311 22.6833 28.8722 -2.00311
457 1 23.8493 27.2179 -0.47138 23.8493 27.2179 -0.47138
458 2 25.6465 27.2369 1.19242 25.6465 27.2369 1.19242
459 2 25.755 27.357 -1.99059 25.755 27.357 -1.99059
460 1 26.6154 28.9669 -0.290105 26.6154 28.9669 -0.290105
461 2 28.6125 29.1757 1.36249 28.6125 29.1757 1.36249
462 2 28.5384 28.9337 -1.81841 28.5384 28.9337 -1.81841
463 1 29.451 27.31 -0.055241 29.451 27.31 -0.055241
464 2 31.5391 27.4182 1.4945 31.5391 27.4182 1.4945
465 2 31.2541 27.3621 -1.81547 31.2541 27.3621 -1.81547
466 1 32.3957 29.1002 -0.131613 32.3957 29.1002 -0.131613
467 2 34.257 29.0899 1.45842 34.257 29.0899 1.45842
468 2 34.2922 28.8684 -1.74725 34.2922 28.8684 -1.74725
469 1 35.1959 27.2701 -0.0599713 35.1959 27.2701 -0.0599713
470 2 37.2036 27.0716 1.45417 37.2036 27.0716 1.45417
471 2 37.0115 27.4556 -1.85066 37.0115 27.4556 -1.85066
472 1 38.0152 28.9097 -0.161057 38.0152 28.9097 -0.161057
473 2 39.9522 29.1869 1.47933 39.9522 29.1869 1.47933
474 2 39.9154 28.8404 -1.76079 39.9154 28.8404 -1.76079
475 1 40.9291 27.3098 0.0428157 40.9291 27.3098 0.0428157
476 2 43.0276 27.193 1.49085 43.0276 27.193 1.49085
477 2 42.759 27.4914 -1.82519 42.759 27.4914 -1.82519
478 1 43.804 29.0113 -0.192746 43.804 29.0113 -0.192746
479 2 45.6031 28.9761 1.46221 45.6031 28.9761 1.46221
480 2 45.6828 28.932 -1.81512 45.6828 28.932 -1.81512
481 1 46.5679 27.427 -0.123223 46.5679 27.427 -0.123223
482 2 48.4897 27.2519 1.48838 48.4897 27.2519 1.48838
483 2 48.3976 27.5161 -1.81698 48.3976 27.5161 -1.81698
484 1 49.4323 29.0278 -0.0780412 49.4323 29.0278 -0.0780412
485 2 51.3571 29.1358 1.53558 51.3571 29.1358 1.53558
486 2 51.3407 28.9885 -1.69076 51.3407 28.9885 -1.69076
487 1 1.05004 30.6752 -0.133983 1.05004 30.6752 -0.133983
488 2 2.83124 30.5668 1.67397 2.83124 30.5668 1.67397
489 2 3.05438 30.7802 -1.62446 3.05438 30.7802 -1.62446
490 1 3.93121 32.325 0.274978 3.93121 32.325 0.274978
491 2 5.93197 32.2057 1.75039 5.93197 32.2057 1.75039
492 2 5.57228 32.2783 -1.54524 5.57228 32.2783 -1.54524
493 1 6.78033 30.6452 -0.00608565 6.78033 30.6452 -0.00608565
494 2 8.57878 30.4963 1.6615 8.57878 30.4963 1.6615
495 2 8.6838 30.7004 -1.57485 8.6838 30.7004 -1.57485
496 1 9.55494 32.2074 0.173019 9.55494 32.2074 0.173019
497 2 11.4116 32.2258 1.74118 11.4116 32.2258 1.74118
498 2 11.3953 32.2639 -1.52892 11.3953 32.2639 -1.52892
499 1 12.4477 30.5925 0.0338381 12.4477 30.5925 0.0338381
500 2 14.4736 30.6793 1.57065 14.4736 30.6793 1.57065
501 2 14.2741 30.6012 -1.6603 14.2741 30.6012 -1.6603
502 1 15.331 32.2842 -0.0947632 15.331 32.2842 -0.0947632
503 2 17.2273 32.5825 1.42206 17.2273 32.5825 1.42206
504 2 17.0639 31.959 -1.78009 17.0639 31.959 -1.78009
505 1 18.1076 30.5753 -0.0406191 18.1076 30.5753 -0.0406191
506 2 20.1215 30.666 1.45088 20.1215 30.666 1.45088
507 2 19.8952 30.5203 -1.73969 19.8952 30.5203 -1.73969
508 1 20.9511 32.24 -0.290226 20.9511 32.24 -0.290226
509 2 22.9028 32.2755 1.18253 22.9028 32.2755 1.18253
510 2 22.725 32.2363 -2.05929 22.725 32.2363 -2.05929
511 1 23.8338 30.6368 -0.504896 23.8338 30.6368 -0.504896
512 2 25.6536 30.7821 1.17415 25.6536 30.7821 1.17415
513 2 25.869 30.5997 -2.10974 25.869 30.5997 -2.10974
514 1 26.6479 32.3386 -0.500679 26.6479 32.3386 -0.500679
515 2 28.6077 32.4842 1.22077 28.6077 32.4842 1.22077
516 2 28.7147 32.3006 -2.10367 28.7147 32.3006 -2.10367
517 1 29.5197 30.6836 -0.388403 29.5197 30.6836 -0.388403
518 2 31.3895 30.9617 1.29811 31.3895 30.9617 1.29811
519 2 31.4372 30.5024 -1.92406 31.4372 30.5024 -1.92406
520 1 32.4035 32.3568 -0.496557 32.4035 32.3568 -0.496557
521 2 34.2755 32.3397 1.20429 34.2755 32.3397 1.20429
522 2 34.281 32.1311 -2.12124 34.281 32.1311 -2.12124
523 1 35.2236 30.5988 -0.260178 35.2236 30.5988 -0.260178
524 2 37.0802 30.8328 1.22679 37.0802 30.8328 1.22679
525 2 37.0634 30.5269 -1.88124 37.0634 30.5269 -1.88124
526 1 38.0946 32.2386 -0.467321 38.0946 32.2386 -0.467321
527 2 39.9094 32.2827 1.29637 39.9094 32.2827 1.29637
528 2 40.0453 32.2843 -1.94816 40.0453 32.2843 -1.94816
529 1 40.9731 30.6827 -0.312284 40.9731 30.6827 -0.312284
530 2 42.8127 30.7715 1.30975 42.8127 30.7715 1.30975
531 2 42.9624 30.5202 -1.93451 42.9624 30.5202 -1.93451
532 1 43.8578 32.2457 -0.388786 43.8578 32.2457 -0.388786
533 2 45.4669 32.1849 1.43033 45.4669 32.1849 1.43033
534 2 45.666 32.1062 -2.00061 45.666 32.1062 -2.00061
535 1 46.6219 30.607 -0.186429 46.6219 30.607 -0.186429
536 2 48.4698 30.6981 1.50498 48.4698 30.6981 1.50498
537 2 48.6108 30.5721 -1.71516 48.6108 30.5721 -1.71516
538 1 49.4939 32.2996 -0.166479 49.4939 32.2996 -0.166479