ITEM: TIMESTEP
12600
ITEM: NUMBER OF ATOMS
810
ITEM: BOX BOUNDS pp pp pp
8.4137701477268123e-01 5.2176227985227342e+01
8.0961581116522285e-01 5.0206599188834083e+01
-1.0000000000000000e+01 1.0000000000000000e+01
ITEM: ATOMS id type x y z xu yu zu
1 1 52.2617 50.4308 0.260643 0.92681 1.03384 0.260643
2 2 2.82105 50.3017 1.94137 2.82105 0.904721 1.94137
3 2 2.83246 50.4976 -1.31738 2.83246 1.10064 -1.31738
4 1 3.74677 2.60651 0.410253 3.74677 2.60651 0.410253
5 2 5.73539 2.55038 2.06445 5.73539 2.55038 2.06445
6 2 5.71255 2.62527 -1.22758 5.71255 2.62527 -1.22758
7 1 6.58861 50.4353 0.428127 6.58861 1.03834 0.428127
8 2 8.6341 50.3569 1.96542 8.6341 0.959884 1.96542
9 2 8.43343 50.4815 -1.22282 8.43343 1.08451 -1.22282
10 1 9.51726 2.66111 0.332174 9.51726 2.66111 0.332174
11 2 11.5813 2.79807 1.88814 11.5813 2.79807 1.88814
12 2 11.349 2.41653 -1.29683 11.349 2.41653 -1.29683
13 1 12.4571 50.4135 0.425586 12.4571 1.01648 0.425586
14 2 14.5798 50.367 1.73269 14.5798 0.970014 1.73269
15 2 14.0177 50.546 -1.55535 14.0177 1.14898 -1.55535
16 1 15.2128 2.63558 0.0617441 15.2128 2.63558 0.0617441
17 2 17.1809 2.47375 1.64175 17.1809 2.47375 1.64175
18 2 17.0609 2.48695 -1.59059 17.0609 2.48695 -1.59059
19 1 18.1553 50.303 0.0744365 18.1553 0.906004 0.0744365
20 2 20.2465 50.3209 1.67769 20.2465 0.923964 1.67769
21 2 19.8772 50.4818 -1.66461 19.8772 1.08484 -1.66461
22 1 20.9275 2.57493 -0.0235552 20.9275 2.57493 -0.0235552
23 2 22.9211 2.56102 1.56133 22.9211 2.56102 1.56133
24 2 22.7854 2.4872 -1.75917 22.7854 2.4872 -1.75917
25 1 23.8748 50.2807 -0.123587 23.8748 0.883729 -0.123587
26 2 25.7498 50.2588 1.50998 25.7498 0.861779 1.50998
27 2 25.7979 50.5102 -1.8638 25.7979 1.11319 -1.8638
28 1 26.7476 2.61782 -0.101117 26.7476 2.61782 -0.101117
29 2 28.6282 2.52034 1.49235 28.6282 2.52034 1.49235
30 2 28.5654 2.64757 -1.81008 28.5654 2.64757 -1.81008
31 1 29.5113 50.3177 -0.251517 29.5113 0.920757 -0.251517
32 2 31.4103 50.1794 1.28207 31.4103 0.782451 1.28207
33 2 31.3499 50.5304 -2.01339 31.3499 1.13341 -2.01339
34 1 32.3748 2.55272 -0.148768 32.3748 2.55272 -0.148768
35 2 34.2867 2.3698 1.40944 34.2867 2.3698 1.40944
36 2 34.19 2.93398 -1.76926 34.19 2.93398 -1.76926
37 1 35.2124 50.3681 -0.425572 35.2124 0.971145 -0.425572
38 2 36.8566 50.2788 1.44097 36.8566 0.881786 1.44097
39 2 37.157 50.5997 -1.92993 37.157 1.20268 -1.92993
40 1 37.9542 2.67069 0.0275805 37.9542 2.67069 0.0275805
41 2 39.9583 2.55129 1.683 39.9583 2.55129 1.683
42 2 39.8319 2.69888 -1.62248 39.8319 2.69888 -1.62248
43 1 40.8241 50.4539 -0.184634 40.8241 1.05689 -0.184634
44 2 42.6382 50.4748 1.53929 42.6382 1.07785 1.53929
45 2 42.791 50.3434 -1.66075 42.791 0.946455 -1.66075
46 1 43.6571 2.68259 -0.00372453 43.6571 2.68259 -0.00372453
47 2 45.4891 2.73226 1.66818 45.4891 2.73226 1.66818
48 2 45.6194 2.57418 -1.59602 45.6194 2.57418 -1.59602
49 1 46.4024 50.382 0.17595 46.4024 0.985038 0.17595
50 2 48.3264 50.4182 1.74773 48.3264 1.02123 1.74773
51 2 48.3614 50.2843 -1.45709 48.3614 0.887327 -1.45709
52 1 49.2883 2.66187 0.0858153 49.2883 2.66187 0.0858153
53 2 51.0713 2.48594 1.91346 51.0713 2.48594 1.91346
54 2 51.3373 2.77663 -1.34021 51.3373 2.77663 -1.34021
55 1 52.1479 4.1706 0.547936 0.813051 4.1706 0.547936
56 2 2.69664 4.22726 2.16281 2.69664 4.22726 2.16281
57 2 2.79279 4.34498 -1.10062 2.79279 4.34498 -1.10062
58 1 3.74363 5.92036 0.652888 3.74363 5.92036 0.652888
59 2 5.62169 5.81487 2.24502 5.62169 5.81487 2.24502
60 2 5.53723 5.91324 -1.09878 5.53723 5.91324 -1.09878
61 1 6.58348 4.25086 0.483085 6.58348 4.25086 0.483085
62 2 8.56412 4.34377 1.99673 8.56412 4.34377 1.99673
63 2 8.43394 4.14752 -1.23413 8.43394 4.14752 -1.23413
64 1 9.49096 5.90133 0.284201 9.49096 5.90133 0.284201
65 2 11.4404 5.96344 1.82612 11.4404 5.96344 1.82612
66 2 11.234 5.82854 -1.42305 11.234 5.82854 -1.42305
67 1 12.3842 4.33825 0.12852 12.3842 4.33825 0.12852
68 2 14.3258 4.42372 1.73512 14.3258 4.42372 1.73512
69 2 14.1441 4.1215 -1.53405 14.1441 4.1215 -1.53405
70 1 15.2255 5.90597 -0.00438147 15.2255 5.90597 -0.00438147
71 2 17.132 5.72738 1.73975 17.132 5.72738 1.73975
72 2 17.2484 6.01306 -1.5253 17.2484 6.01306 -1.5253
73 1 18.0888 4.23548 0.0164347 18.0888 4.23548 0.0164347
74 2 20.063 4.2339 1.51927 20.063 4.2339 1.51927
75 2 19.9034 4.18095 -1.64693 19.9034 4.18095 -1.64693
76 1 20.9461 5.9673 -0.0964496 20.9461 5.9673 -0.0964496
77 2 22.8422 5.87956 1.45994 22.8422 5.87956 1.45994
78 2 22.7477 5.90863 -1.836 22.7477 5.90863 -1.836
79 1 23.7424 4.22344 -0.19037 23.7424 4.22344 -0.19037
80 2 25.6864 4.24875 1.49785 25.6864 4.24875 1.49785
81 2 25.6949 4.22259 -1.78505 25.6949 4.22259 -1.78505
82 1 26.6033 5.86951 -0.0728168 26.6033 5.86951 -0.0728168
83 2 28.4723 5.85342 1.56457 28.4723 5.85342 1.56457
84 2 28.5154 5.8861 -1.59716 28.5154 5.8861 -1.59716
85 1 29.4151 4.23432 -0.128332 29.4151 4.23432 -0.128332
86 2 31.3522 3.99522 1.52499 31.3522 3.99522 1.52499
87 2 31.4601 4.3881 -1.74359 31.4601 4.3881 -1.74359
88 1 32.3602 5.89179 -0.0857684 32.3602 5.89179 -0.0857684
89 2 34.0692 5.81205 1.74337 34.0692 5.81205 1.74337
90 2 34.2994 6.15607 -1.50069 34.2994 6.15607 -1.50069
91 1 35.148 4.31603 0.112746 35.148 4.31603 0.112746
92 2 37.0431 4.15397 1.78647 37.0431 4.15397 1.78647
93 2 37.059 4.51889 -1.5128 37.059 4.51889 -1.5128
94 1 37.9229 6.00204 0.244213 37.9229 6.00204 0.244213
95 2 39.8944 6.05453 1.87078 39.8944 6.05453 1.87078
96 2 39.8956 6.00848 -1.43065 39.8956 6.00848 -1.43065
97 1 40.7803 4.3816 0.168878 40.7803 4.3816 0.168878
98 2 42.776 4.35361 1.60642 42.776 4.35361 1.60642
99 2 42.631 4.38149 -1.56459 42.631 4.38149 -1.56459
100 1 43.7227 6.03256 0.0135068 43.7227 6.03256 0.0135068
101 2 45.5272 5.84132 1.89107 45.5272 5.84132 1.89107
102 2 45.6545 6.15007 -1.49413 45.6545 6.15007 -1.49413
103 1 46.4321 4.35486 0.0704951 46.4321 4.35486 0.0704951
104 2 48.3613 4.09801 1.86489 48.3613 4.09801 1.86489
105 2 48.5491 4.58916 -1.35105 48.5491 4.58916 -1.35105
106 1 49.4196 5.9099 0.601695 49.4196 5.9099 0.601695
107 2 51.3273 5.72615 2.27321 51.3273 5.72615 2.27321
108 2 51.3745 6.03445 -0.970677 51.3745 6.03445 -0.970677
109 1 52.2492 7.52977 0.823514 0.91437 7.52977 0.823514
110 2 2.93226 7.58014 2.41345 2.93226 7.58014 2.41345
111 2 2.72721 7.6585 -0.882497 2.72721 7.6585 -0.882497
112 1 3.79578 9.20375 0.752857 3.79578 9.20375 0.752857
113 2 5.84623 9.07543 2.1775 5.84623 9.07543 2.1775
114 2 5.59211 9.16077 -1.0154 5.59211 9.16077 -1.0154
115 1 6.53746 7.44628 0.559983 6.53746 7.44628 0.559983
116 2 8.603 7.37759 2.06704 8.603 7.37759 2.06704
117 2 8.36267 7.57302 -1.16031 8.36267 7.57302 -1.16031
118 1 9.46022 9.13258 0.551983 9.46022 9.13258 0.551983
119 2 11.6417 9.12838 1.81893 11.6417 9.12838 1.81893
120 2 11.0853 9.20158 -1.42644 11.0853 9.20158 -1.42644
121 1 12.3328 7.48605 -0.0186579 12.3328 7.48605 -0.0186579
122 2 14.2147 7.45798 1.64715 14.2147 7.45798 1.64715
123 2 14.3289 7.75276 -1.55978 14.3289 7.75276 -1.55978
124 1 15.2026 9.20872 0.165042 15.2026 9.20872 0.165042
125 2 17.1603 9.24015 1.80138 17.1603 9.24015 1.80138
126 2 17.0839 9.09955 -1.39552 17.0839 9.09955 -1.39552
127 1 18.0233 7.50024 0.276151 18.0233 7.50024 0.276151
128 2 20.1303 7.55369 1.57886 20.1303 7.55369 1.57886
129 2 19.7912 7.49007 -1.57484 19.7912 7.49007 -1.57484
130 1 20.9251 9.16745 -0.174369 20.9251 9.16745 -0.174369
131 2 22.7062 9.04794 1.50027 22.7062 9.04794 1.50027
132 2 22.8194 9.36842 -1.73606 22.8194 9.36842 -1.73606
133 1 23.8232 7.53789 -0.186508 23.8232 7.53789 -0.186508
134 2 25.5854 7.51759 1.45649 25.5854 7.51759 1.45649
135 2 25.8088 7.57545 -1.74094 25.8088 7.57545 -1.74094
136 1 26.6898 9.12896 -0.100317 26.6898 9.12896 -0.100317
137 2 28.4604 9.21026 1.57437 28.4604 9.21026 1.57437
138 2 28.6058 9.20877 -1.6745 28.6058 9.20877 -1.6745
139 1 29.4168 7.56403 0.0132834 29.4168 7.56403 0.0132834
140 2 31.3186 7.44612 1.6064 31.3186 7.44612 1.6064
141 2 31.264 7.55656 -1.68662 31.264 7.55656 -1.68662
142 1 32.2726 9.10868 0.0173846 32.2726 9.10868 0.0173846
143 2 33.9977 9.14855 1.89631 33.9977 9.14855 1.89631
144 2 34.3865 9.28931 -1.30051 34.3865 9.28931 -1.30051
145 1 35.1331 7.57311 0.361045 35.1331 7.57311 0.361045
146 2 36.9334 7.33669 2.07785 36.9334 7.33669 2.07785
147 2 37.0632 7.77466 -1.22031 37.0632 7.77466 -1.22031
148 1 38.0049 9.18367 0.673991 38.0049 9.18367 0.673991
149 2 40.0267 9.06783 2.11341 40.0267 9.06783 2.11341
150 2 39.6856 9.36906 -1.19222 39.6856 9.36906 -1.19222
151 1 40.8174 7.59135 0.192699 40.8174 7.59135 0.192699
152 2 42.6666 7.34653 1.82947 42.6666 7.34653 1.82947
153 2 42.789 7.85492 -1.2889 42.789 7.85492 -1.2889
154 1 43.6893 9.27769 0.572033 43.6893 9.27769 0.572033
155 2 45.8027 9.17589 2.08151 45.8027 9.17589 2.08151
156 2 45.5524 9.19243 -1.1266 45.5524 9.19243 -1.1266
157 1 46.6455 7.55295 0.333675 46.6455 7.55295 0.333675
158 2 48.403 7.49837 2.22907 48.403 7.49837 2.22907
159 2 48.7732 7.66228 -1.05312 48.7732 7.66228 -1.05312
160 1 49.3973 9.18009 0.790816 49.3973 9.18009 0.790816
161 2 51.2764 9.16205 2.42617 51.2764 9.16205 2.42617
162 2 51.2815 9.14615 -0.822616 51.2815 9.14615 -0.822616
163 1 52.1881 10.886 0.885925 0.853215 10.886 0.885925
164 2 2.87285 10.8072 2.39851 2.87285 10.8072 2.39851
165 2 2.67114 10.8313 -0.860449 2.67114 10.8313 -0.860449
166 1 3.81077 12.4647 0.666405 3.81077 12.4647 0.666405
167 2 5.8795 12.6115 2.1771 5.8795 12.6115 2.1771
168 2 5.54627 12.3126 -1.21766 5.54627 12.3126 -1.21766
169 1 6.6245 10.8398 0.570354 6.6245 10.8398 0.570354
170 2 8.69134 11.1362 2.0092 8.69134 11.1362 2.0092
171 2 8.36409 10.6753 -1.17534 8.36409 10.6753 -1.17534
172 1 9.48367 12.515 0.0918517 9.48367 12.515 0.0918517
173 2 11.4687 12.661 1.53381 11.4687 12.661 1.53381
174 2 11.1477 12.1865 -1.68767 11.1477 12.1865 -1.68767
175 1 12.3115 10.8696 0.0406765 12.3115 10.8696 0.0406765
176 2 14.1388 10.9006 1.65117 14.1388 10.9006 1.65117
177 2 14.2015 10.6717 -1.57369 14.2015 10.6717 -1.57369
178 1 15.1183 12.4476 -0.0266572 15.1183 12.4476 -0.0266572
179 2 17.0587 12.4936 1.65892 17.0587 12.4936 1.65892
180 2 17.0375 12.3595 -1.62489 17.0375 12.3595 -1.62489
181 1 18.0432 10.8472 0.133302 18.0432 10.8472 0.133302
182 2 19.9756 10.7598 1.6248 19.9756 10.7598 1.6248
183 2 19.8216 10.8497 -1.70435 19.8216 10.8497 -1.70435
184 1 20.9445 12.4716 -0.0901395 20.9445 12.4716 -0.0901395
185 2 22.7428 12.6659 1.61783 22.7428 12.6659 1.61783
186 2 22.9457 12.2784 -1.6032 22.9457 12.2784 -1.6032
187 1 23.8507 10.8304 0.129791 23.8507 10.8304 0.129791
188 2 25.7822 10.6329 1.74156 25.7822 10.6329 1.74156
189 2 25.6293 10.8257 -1.56972 25.6293 10.8257 -1.56972
190 1 26.7233 12.4789 0.119027 26.7233 12.4789 0.119027
191 2 28.6551 12.616 1.60282 28.6551 12.616 1.60282
192 2 28.5021 12.4834 -1.69272 28.5021 12.4834 -1.69272
193 1 29.4534 10.8483 -0.0397989 29.4534 10.8483 -0.0397989
194 2 31.2688 10.6498 1.63042 31.2688 10.6498 1.63042
195 2 31.3692 10.7557 -1.68575 31.3692 10.7557 -1.68575
196 1 32.3562 12.5005 0.0692324 32.3562 12.5005 0.0692324
197 2 34.0852 12.6227 1.89074 34.0852 12.6227 1.89074
198 2 34.3999 12.4399 -1.39117 34.3999 12.4399 -1.39117
199 1 35.1876 10.8592 0.405332 35.1876 10.8592 0.405332
200 2 36.9464 10.8777 2.14978 36.9464 10.8777 2.14978
201 2 37.1449 10.831 -1.10315 37.1449 10.831 -1.10315
202 1 37.946 12.5728 0.483707 37.946 12.5728 0.483707
203 2 39.8135 12.5739 2.03056 39.8135 12.5739 2.03056
204 2 39.8393 12.3364 -1.16794 39.8393 12.3364 -1.16794
205 1 40.8274 10.8596 0.509977 40.8274 10.8596 0.509977
206 2 42.7279 10.9463 2.1345 42.7279 10.9463 2.1345
207 2 42.6823 10.8739 -1.18088 42.6823 10.8739 -1.18088
208 1 43.7548 12.513 0.418623 43.7548 12.513 0.418623
209 2 45.7143 12.5837 2.06589 45.7143 12.5837 2.06589
210 2 45.5722 12.3897 -1.21614 45.5722 12.3897 -1.21614
211 1 46.6127 10.7902 0.422592 46.6127 10.7902 0.422592
212 2 48.3663 10.9745 2.16572 48.3663 10.9745 2.16572
213 2 48.5681 10.7569 -1.00856 48.5681 10.7569 -1.00856
214 1 49.4356 12.51 0.536932 49.4356 12.51 0.536932
215 2 51.3004 12.8456 2.28303 51.3004 12.8456 2.28303
216 2 51.3426 12.2935 -0.988547 51.3426 12.2935 -0.988547
217 1 52.2627 14.1245 0.362794 0.927802 14.1245 0.362794
218 2 2.77541 14.2808 2.06762 2.77541 14.2808 2.06762
219 2 2.84703 14.0542 -1.08581 2.84703 14.0542 -1.08581
220 1 3.77996 15.8382 0.40159 3.77996 15.8382 0.40159
221 2 5.87528 15.9475 1.79723 5.87528 15.9475 1.79723
222 2 5.43353 15.8497 -1.45933 5.43353 15.8497 -1.45933
223 1 6.58484 14.2389 0.15418 6.58484 14.2389 0.15418
224 2 8.65107 14.3455 1.62957 8.65107 14.3455 1.62957
225 2 8.52283 13.9608 -1.62164 8.52283 13.9608 -1.62164
226 1 9.52502 15.766 -0.207539 9.52502 15.766 -0.207539
227 2 11.462 15.7895 1.30063 11.462 15.7895 1.30063
228 2 11.2188 15.6579 -2.05524 11.2188 15.6579 -2.05524
229 1 12.2694 14.0881 -0.384008 12.2694 14.0881 -0.384008
230 2 14.1204 14.2336 1.36283 14.1204 14.2336 1.36283
231 2 14.2553 13.9928 -1.95974 14.2553 13.9928 -1.95974
232 1 15.2036 15.7494 -0.367276 15.2036 15.7494 -0.367276
233 2 17.0252 15.8655 1.42674 17.0252 15.8655 1.42674
234 2 17.277 15.6997 -1.96441 17.277 15.6997 -1.96441
235 1 18.0128 14.1083 -0.0627294 18.0128 14.1083 -0.0627294
236 2 19.8598 14.0704 1.62068 19.8598 14.0704 1.62068
237 2 19.9398 14.118 -1.67671 19.9398 14.118 -1.67671
238 1 20.8497 15.6137 0.0247238 20.8497 15.6137 0.0247238
239 2 22.7844 15.6812 1.63849 22.7844 15.6812 1.63849
240 2 22.8134 15.806 -1.71384 22.8134 15.806 -1.71384
241 1 23.8179 14.1257 -0.101981 23.8179 14.1257 -0.101981
242 2 25.6543 14.2719 1.54433 25.6543 14.2719 1.54433
243 2 25.7283 13.9136 -1.70232 25.7283 13.9136 -1.70232
244 1 26.6399 15.7675 -0.252838 26.6399 15.7675 -0.252838
245 2 28.4652 15.7599 1.43626 28.4652 15.7599 1.43626
246 2 28.5658 15.7516 -1.84392 28.5658 15.7516 -1.84392
247 1 29.47 14.0768 -0.1585 29.47 14.0768 -0.1585
248 2 31.3099 14.1664 1.64439 31.3099 14.1664 1.64439
249 2 31.461 14.1427 -1.60761 31.461 14.1427 -1.60761
250 1 32.3002 15.7546 0.0503935 32.3002 15.7546 0.0503935
251 2 34.1917 15.8923 1.76424 34.1917 15.8923 1.76424
252 2 34.3305 15.6792 -1.44961 34.3305 15.6792 -1.44961
253 1 35.2531 14.1239 0.273618 35.2531 14.1239 0.273618
254 2 37.0047 14.293 1.93482 37.0047 14.293 1.93482
255 2 37.2058 14.0707 -1.27387 37.2058 14.0707 -1.27387
256 1 38.048 15.7935 0.256969 38.048 15.7935 0.256969
257 2 40.0479 16.0298 1.83849 40.0479 16.0298 1.83849
258 2 39.8261 15.5199 -1.44621 39.8261 15.5199 -1.44621
259 1 40.854 14.0876 0.362196 40.854 14.0876 0.362196
260 2 42.7331 14.4176 1.82599 42.7331 14.4176 1.82599
261 2 42.7594 13.9689 -1.42171 42.7594 13.9689 -1.42171
262 1 43.6728 15.8222 -0.171009 43.6728 15.8222 -0.171009
263 2 45.5313 16.1 1.58076 45.5313 16.1 1.58076
264 2 45.8085 15.7147 -1.68003 45.8085 15.7147 -1.68003
265 1 46.5666 14.1853 0.304308 46.5666 14.1853 0.304308
266 2 48.4548 14.3296 2.10521 48.4548 14.3296 2.10521
267 2 48.5366 14.2024 -1.20351 48.5366 14.2024 -1.20351
268 1 49.4615 15.905 0.414869 49.4615 15.905 0.414869
269 2 51.3865 15.8016 2.01528 51.3865 15.8016 2.01528
270 2 51.3443 15.8207 -1.28921 51.3443 15.8207 -1.28921
271 1 52.3265 17.4078 0.383466 0.991631 17.4078 0.383466
272 2 2.95407 17.6181 1.86551 2.95407 17.6181 1.86551
273 2 2.71074 17.2051 -1.38649 2.71074 17.2051 -1.38649
274 1 3.83989 19.0345 -0.00842372 3.83989 19.0345 -0.00842372
275 2 5.76022 19.1916 1.52743 5.76022 19.1916 1.52743
276 2 5.61864 19.068 -1.75829 5.61864 19.068 -1.75829
277 1 6.63632 17.4693 -0.00515462 6.63632 17.4693 -0.00515462
278 2 8.68379 17.5727 1.36489 8.68379 17.5727 1.36489
279 2 8.41243 17.359 -1.77408 8.41243 17.359 -1.77408
280 1 9.50098 19.1002 -0.414028 9.50098 19.1002 -0.414028
281 2 11.3637 18.7785 1.32933 11.3637 18.7785 1.32933
282 2 11.4174 19.2071 -2.00925 11.4174 19.2071 -2.00925
283 1 12.3077 17.3643 -0.613068 12.3077 17.3643 -0.613068
284 2 14.1016 17.306 1.23172 14.1016 17.306 1.23172
285 2 14.312 17.3017 -2.10681 14.312 17.3017 -2.10681
286 1 15.1543 18.8965 -0.295353 15.1543 18.8965 -0.295353
287 2 17.033 19.042 1.45466 17.033 19.042 1.45466
288 2 17.0147 18.8556 -1.9507 17.0147 18.8556 -1.9507
289 1 17.9193 17.3178 -0.251055 17.9193 17.3178 -0.251055
290 2 19.8768 17.3602 1.46809 19.8768 17.3602 1.46809
291 2 20.1003 17.3234 -1.84033 20.1003 17.3234 -1.84033
292 1 20.8518 18.9634 -0.164567 20.8518 18.9634 -0.164567
293 2 22.7481 19.0219 1.54184 22.7481 19.0219 1.54184
294 2 22.8208 18.9821 -1.73308 22.8208 18.9821 -1.73308
295 1 23.769 17.4213 -0.0278736 23.769 17.4213 -0.0278736
296 2 25.6449 17.3241 1.53403 25.6449 17.3241 1.53403
297 2 25.5721 17.4105 -1.77505 25.5721 17.4105 -1.77505
298 1 26.5828 19.0237 -0.10203 26.5828 19.0237 -0.10203
299 2 28.443 19.1021 1.50829 28.443 19.1021 1.50829
300 2 28.3505 18.9957 -1.69632 28.3505 18.9957 -1.69632
301 1 29.4704 17.4178 -0.164464 29.4704 17.4178 -0.164464
302 2 31.2672 17.4749 1.54348 31.2672 17.4749 1.54348
303 2 31.4948 17.2983 -1.72161 31.4948 17.2983 -1.72161
304 1 32.3661 18.9992 -0.228315 32.3661 18.9992 -0.228315
305 2 34.1021 19.1819 1.5581 34.1021 19.1819 1.5581
306 2 34.4086 18.939 -1.77923 34.4086 18.939 -1.77923
307 1 35.2132 17.4716 0.0480033 35.2132 17.4716 0.0480033
308 2 37.0743 17.6531 1.76468 37.0743 17.6531 1.76468
309 2 37.0858 17.3046 -1.52777 37.0858 17.3046 -1.52777
310 1 38.0693 19.1529 0.0426478 38.0693 19.1529 0.0426478
311 2 40.0556 19.1891 1.6218 40.0556 19.1891 1.6218
312 2 39.9523 19.0746 -1.5832 39.9523 19.0746 -1.5832
313 1 40.9132 17.4484 0.0252583 40.9132 17.4484 0.0252583
314 2 42.8185 17.5699 1.46352 42.8185 17.5699 1.46352
315 2 42.7686 17.4876 -1.76682 42.7686 17.4876 -1.76682
316 1 43.742 19.2002 -0.306257 43.742 19.2002 -0.306257
317 2 45.5961 19.0938 1.59591 45.5961 19.0938 1.59591
318 2 45.7861 19.2289 -1.74689 45.7861 19.2289 -1.74689
319 1 46.5204 17.4839 -0.0894395 46.5204 17.4839 -0.0894395
320 2 48.1565 17.5737 1.72177 48.1565 17.5737 1.72177
321 2 48.5852 17.3363 -1.44394 48.5852 17.3363 -1.44394
322 1 49.4757 19.1241 0.141275 49.4757 19.1241 0.141275
323 2 51.304 19.1168 1.94591 51.304 19.1168 1.94591
324 2 51.5102 18.883 -1.34335 51.5102 18.883 -1.34335
325 1 52.3594 20.7021 0.263304 1.02455 20.7021 0.263304
326 2 2.96839 20.7195 1.7114 2.96839 20.7195 1.7114
327 2 2.7589 20.7786 -1.50312 2.7589 20.7786 -1.50312
328 1 3.87962 22.4344 0.0642449 3.87962 22.4344 0.0642449
329 2 5.85133 22.1943 1.53532 5.85133 22.1943 1.53532
330 2 5.63589 22.6584 -1.70893 5.63589 22.6584 -1.70893
331 1 6.70363 20.7239 -0.272725 6.70363 20.7239 -0.272725
332 2 8.57196 20.5117 1.44327 8.57196 20.5117 1.44327
333 2 8.62401 20.9084 -1.85849 8.62401 20.9084 -1.85849
334 1 9.47686 22.3867 -0.119405 9.47686 22.3867 -0.119405
335 2 11.3351 22.3257 1.58351 11.3351 22.3257 1.58351
336 2 11.584 22.3435 -1.68476 11.584 22.3435 -1.68476
337 1 12.3188 20.5293 -0.165084 12.3188 20.5293 -0.165084
338 2 14.3316 20.5651 1.36057 14.3316 20.5651 1.36057
339 2 14.1384 20.4472 -1.9319 14.1384 20.4472 -1.9319
340 1 15.1201 22.2679 -0.285386 15.1201 22.2679 -0.285386
341 2 16.989 22.1024 1.30016 16.989 22.1024 1.30016
342 2 17.0703 22.2463 -1.91907 17.0703 22.2463 -1.91907
343 1 17.9561 20.5831 -0.313439 17.9561 20.5831 -0.313439
344 2 19.8058 20.6039 1.34679 19.8058 20.6039 1.34679
345 2 19.8715 20.525 -1.83136 19.8715 20.525 -1.83136
346 1 20.7739 22.2695 -0.247436 20.7739 22.2695 -0.247436
347 2 22.7953 22.4472 1.30086 22.7953 22.4472 1.30086
348 2 22.5885 22.0166 -1.90363 22.5885 22.0166 -1.90363
349 1 23.7567 20.6194 -0.104135 23.7567 20.6194 -0.104135
350 2 25.7405 20.8402 1.44159 25.7405 20.8402 1.44159
351 2 25.4779 20.5657 -1.8495 25.4779 20.5657 -1.8495
352 1 26.6464 22.3056 -0.324788 26.6464 22.3056 -0.324788
353 2 28.4011 22.4584 1.33436 28.4011 22.4584 1.33436
354 2 28.6486 22.2654 -1.88931 28.6486 22.2654 -1.88931
355 1 29.4601 20.7151 -0.153935 29.4601 20.7151 -0.153935
356 2 31.305 20.7069 1.47608 31.305 20.7069 1.47608
357 2 31.3602 20.5844 -1.83899 31.3602 20.5844 -1.83899
358 1 32.2601 22.3015 -0.132382 32.2601 22.3015 -0.132382
359 2 34.1855 22.1653 1.47509 34.1855 22.1653 1.47509
360 2 34.1736 22.4509 -1.74966 34.1736 22.4509 -1.74966
361 1 35.2202 20.7501 -0.201442 35.2202 20.7501 -0.201442
362 2 36.9596 20.8427 1.57626 36.9596 20.8427 1.57626
363 2 37.203 20.6892 -1.74077 37.203 20.6892 -1.74077
364 1 37.9769 22.432 -0.069404 37.9769 22.432 -0.069404
365 2 39.7962 22.3554 1.68548 39.7962 22.3554 1.68548
366 2 39.9467 22.467 -1.56606 39.9467 22.467 -1.56606
367 1 40.9134 20.8025 0.0197018 40.9134 20.8025 0.0197018
368 2 42.9003 20.7832 1.41607 42.9003 20.7832 1.41607
369 2 42.6881 20.7987 -1.82898 42.6881 20.7987 -1.82898
370 1 43.7128 22.4224 -0.159866 43.7128 22.4224 -0.159866
371 2 45.6061 22.407 1.69011 45.6061 22.407 1.69011
372 2 45.7306 22.4113 -1.5529 45.7306 22.4113 -1.5529
373 1 46.6289 20.7879 -0.0156442 46.6289 20.7879 -0.0156442
374 2 48.3673 20.6863 1.69592 48.3673 20.6863 1.69592
375 2 48.6446 20.8485 -1.62885 48.6446 20.8485 -1.62885
376 1 49.4514 22.3613 0.229515 49.4514 22.3613 0.229515
377 2 51.3502 22.4793 1.88345 51.3502 22.4793 1.88345
378 2 51.3204 22.1937 -1.5022 51.3204 22.1937 -1.5022
379 1 52.3155 23.9563 0.0869544 0.980661 23.9563 0.0869544
380 2 2.86961 24.0029 1.70644 2.86961 24.0029 1.70644
381 2 2.93146 24.1321 -1.66022 2.93146 24.1321 -1.66022
382 1 3.72823 25.6999 0.082872 3.72823 25.6999 0.082872
383 2 5.65777 25.5237 1.77232 5.65777 25.5237 1.77232
384 2 5.80847 25.8339 -1.40675 5.80847 25.8339 -1.40675
385 1 6.77115 24.0669 0.072683 6.77115 24.0669 0.072683
386 2 8.65925 23.8226 1.66606 8.65925 23.8226 1.66606
387 2 8.62064 24.1891 -1.61267 8.62064 24.1891 -1.61267
388 1 9.51107 25.6141 0.210333 9.51107 25.6141 0.210333
389 2 11.5436 25.5438 1.68802 11.5436 25.5438 1.68802
390 2 11.3318 25.6215 -1.50369 11.3318 25.6215 -1.50369
391 1 12.3322 23.9526 0.0433711 12.3322 23.9526 0.0433711
392 2 14.3266 23.6724 1.58801 14.3266 23.6724 1.58801
393 2 14.1885 24.1717 -1.69069 14.1885 24.1717 -1.69069
394 1 15.2316 25.5578 0.173494 15.2316 25.5578 0.173494
395 2 17.3592 25.5863 1.56383 17.3592 25.5863 1.56383
396 2 16.8533 25.5953 -1.66084 16.8533 25.5953 -1.66084
397 1 17.9097 23.8978 -0.194541 17.9097 23.8978 -0.194541
398 2 20.0244 24.0298 1.32049 20.0244 24.0298 1.32049
399 2 19.6961 23.7453 -1.88746 19.6961 23.7453 -1.88746
400 1 20.6961 25.5246 -0.486371 20.6961 25.5246 -0.486371
401 2 22.6726 25.5121 1.09733 22.6726 25.5121 1.09733
402 2 22.6702 25.586 -2.17014 22.6702 25.586 -2.17014
403 1 23.6487 23.9502 -0.5733 23.6487 23.9502 -0.5733
404 2 25.5882 24.0112 1.20584 25.5882 24.0112 1.20584
405 2 25.7238 23.7632 -2.09938 25.7238 23.7632 -2.09938
406 1 26.4863 25.5432 -0.524666 26.4863 25.5432 -0.524666
407 2 28.3204 25.7046 1.25802 28.3204 25.7046 1.25802
408 2 28.5008 25.5126 -2.03611 28.5008 25.5126 -2.03611
409 1 29.4118 24.0552 -0.230455 29.4118 24.0552 -0.230455
410 2 31.2144 24.0089 1.54799 31.2144 24.0089 1.54799
411 2 31.3854 24.003 -1.87217 31.3854 24.003 -1.87217
412 1 32.2983 25.5391 -0.133751 32.2983 25.5391 -0.133751
413 2 34.016 25.7138 1.66655 34.016 25.7138 1.66655
414 2 34.2403 25.631 -1.6611 34.2403 25.631 -1.6611
415 1 35.0832 24.0206 0.0550381 35.0832 24.0206 0.0550381
416 2 36.9867 23.9903 1.58561 36.9867 23.9903 1.58561
417 2 37.0439 23.9894 -1.64997 37.0439 23.9894 -1.64997
418 1 38.056 25.6942 0.0599063 38.056 25.6942 0.0599063
419 2 39.8228 25.74 1.60446 39.8228 25.74 1.60446
420 2 40.0138 25.6593 -1.57813 40.0138 25.6593 -1.57813
421 1 40.8614 24.0357 0.139219 40.8614 24.0357 0.139219
422 2 42.8145 23.8662 1.7562 42.8145 23.8662 1.7562
423 2 42.772 24.3257 -1.46266 42.772 24.3257 -1.46266
424 1 43.7291 25.7425 0.459885 43.7291 25.7425 0.459885
425 2 45.7697 25.8041 1.84908 45.7697 25.8041 1.84908
426 2 45.4465 25.5956 -1.40018 45.4465 25.5956 -1.40018
427 1 46.5844 24.0485 0.123554 46.5844 24.0485 0.123554
428 2 48.3943 24.1312 1.77276 48.3943 24.1312 1.77276
429 2 48.6274 23.8237 -1.52291 48.6274 23.8237 -1.52291
430 1 49.4445 25.6282 -0.00386576 49.4445 25.6282 -0.00386576
431 2 51.3012 25.7631 1.68982 51.3012 25.7631 1.68982
432 2 51.2738 25.4367 -1.67365 51.2738 25.4367 -1.67365
433 1 52.2939 27.3692 -0.236332 0.959052 27.3692 -0.236332
434 2 2.53733 27.1521 1.65046 2.53733 27.1521 1.65046
435 2 3.08122 27.4567 -1.57046 3.08122 27.4567 -1.57046
436 1 3.76842 28.9902 0.348806 3.76842 28.9902 0.348806
437 2 5.69404 28.9995 2.02875 5.69404 28.9995 2.02875
438 2 5.73065 29.034 -1.21487 5.73065 29.034 -1.21487
439 1 6.65433 27.3182 0.476577 6.65433 27.3182 0.476577
440 2 8.62464 27.2157 1.96737 8.62464 27.2157 1.96737
441 2 8.43957 27.3515 -1.25384 8.43957 27.3515 -1.25384
442 1 9.47779 28.9412 0.312484 9.47779 28.9412 0.312484
443 2 11.5415 28.94 1.8711 11.5415 28.94 1.8711
444 2 11.2977 28.9647 -1.49176 11.2977 28.9647 -1.49176
445 1 12.3835 27.252 0.0314482 12.3835 27.252 0.0314482
446 2 14.1504 27.1824 1.7912 14.1504 27.1824 1.7912
447 2 14.341 27.2967 -1.52089 14.341 27.2967 -1.52089
448 1 15.1617 28.9123 0.226613 15.1617 28.9123 0.226613
449 2 17.2544 28.9003 1.59647 17.2544 28.9003 1.59647
450 2 16.7758 28.9648 -1.70844 16.7758 28.9648 -1.70844
451 1 17.8821 27.3016 -0.165432 17.8821 27.3016 -0.165432
452 2 19.8805 27.2429 1.19436 19.8805 27.2429 1.19436
453 2 19.6224 27.1366 -2.05995 19.6224 27.1366 -2.05995
454 1 20.782 28.8792 -0.578682 20.782 28.8792 -0.578682
455 2 22.7207 28.8819 1.02913 22.7207 28.8819 1.02913
456 2 22.7007 28.9029 -2.30211 22.7007 28.9029 -2.30211
457 1 23.6168 27.2226 -0.585996 23.6168 27.2226 -0.585996
458 2 25.6738 27.3673 1.03271 25.6738 27.3673 1.03271
459 2 25.532 26.9934 -2.2493 25.532 26.9934 -2.2493
460 1 26.5288 28.8848 -0.826317 26.5288 28.8848 -0.826317
461 2 28.5111 29.0354 0.928023 28.5111 29.0354 0.928023
462 2 28.4659 28.7715 -2.39268 28.4659 28.7715 -2.39268
463 1 29.3641 27.3048 -0.486397 29.3641 27.3048 -0.486397
464 2 31.296 27.2143 1.30552 31.296 27.2143 1.30552
465 2 31.3743 27.1671 -1.83239 31.3743 27.1671 -1.83239
466 1 32.325 28.8796 -0.217082 32.325 28.8796 -0.217082
467 2 33.9931 28.9262 1.55767 33.9931 28.9262 1.55767
468 2 34.434 28.8921 -1.70343 34.434 28.8921 -1.70343
469 1 35.1199 27.2562 0.0127385 35.1199 27.2562 0.0127385
470 2 36.9179 27.2237 1.71212 36.9179 27.2237 1.71212
471 2 37.0099 27.2488 -1.56672 37.0099 27.2488 -1.56672
472 1 38.0457 28.899 0.145148 38.0457 28.899 0.145148
473 2 39.9941 29.002 1.70044 39.9941 29.002 1.70044
474 2 39.9354 28.9404 -1.6359 39.9354 28.9404 -1.6359
475 1 40.8852 27.3078 0.0462806 40.8852 27.3078 0.0462806
476 2 42.7373 27.4977 1.87799 42.7373 27.4977 1.87799
477 2 42.9353 27.3181 -1.35162 42.9353 27.3181 -1.35162
478 1 43.8243 28.9931 0.269679 43.8243 28.9931 0.269679
479 2 45.936 28.9804 1.64548 45.936 28.9804 1.64548
480 2 45.5962 29.1009 -1.60476 45.5962 29.1009 -1.60476
481 1 46.5518 27.334 -0.0230154 46.5518 27.334 -0.0230154
482 2 48.5176 27.4459 1.56046 48.5176 27.4459 1.56046
483 2 48.4535 27.2537 -1.66171 48.4535 27.2537 -1.66171
484 1 49.4732 28.9716 -0.104172 49.4732 28.9716 -0.104172
485 2 51.3525 28.8863 1.63378 51.3525 28.8863 1.63378
486 2 51.3885 29.185 -1.66125 51.3885 29.185 -1.66125
487 1 52.2237 30.6415 0.143222 0.88885 30.6415 0.143222
488 2 2.90968 30.7772 1.80424 2.90968 30.7772 1.80424
489 2 2.74549 30.5761 -1.37034 2.74549 30.5761 -1.37034
490 1 3.71337 32.3039 0.0890402 3.71337 32.3039 0.0890402
491 2 5.46857 32.3883 1.77708 5.46857 32.3883 1.77708
492 2 5.6854 32.1655 -1.3954 5.6854 32.1655 -1.3954
493 1 6.60055 30.6306 0.411784 6.60055 30.6306 0.411784
494 2 8.72032 30.755 1.92332 8.72032 30.755 1.92332
495 2 8.34603 30.5568 -1.27094 8.34603 30.5568 -1.27094
496 1 9.47426 32.2603 0.102735 9.47426 32.2603 0.102735
497 2 11.4593 32.231 1.78061 11.4593 32.231 1.78061
498 2 11.328 32.1745 -1.487 11.328 32.1745 -1.487
499 1 12.366 30.5887 0.155778 12.366 30.5887 0.155778
500 2 14.2378 30.6874 1.72881 14.2378 30.6874 1.72881
501 2 14.2501 30.513 -1.44816 14.2501 30.513 -1.44816
502 1 15.2112 32.2317 0.0387862 15.2112 32.2317 0.0387862
503 2 17.0737 32.1306 1.55918 17.0737 32.1306 1.55918
504 2 16.864 32.3041 -1.80671 16.864 32.3041 -1.80671
505 1 17.939 30.5413 -0.266374 17.939 30.5413 -0.266374
506 2 19.9211 30.4643 1.23133 19.9211 30.4643 1.23133
507 2 19.6847 30.5517 -2.0694 19.6847 30.5517 -2.0694
508 1 20.7163 32.2192 -0.320881 20.7163 32.2192 -0.320881
509 2 22.785 32.133 1.20329 22.785 32.133 1.20329
510 2 22.4825 32.2202 -2.0955 22.4825 32.2202 -2.0955
511 1 23.6145 30.5508 -0.633043 23.6145 30.5508 -0.633043
512 2 25.6473 30.6648 0.753021 25.6473 30.6648 0.753021
513 2 25.5143 30.7118 -2.41989 25.5143 30.7118 -2.41989
514 1 26.6035 32.2059 -0.835146 26.6035 32.2059 -0.835146
515 2 28.4045 32.0498 0.826619 28.4045 32.0498 0.826619
516 2 28.571 32.3012 -2.38847 28.571 32.3012 -2.38847
517 1 29.4442 30.5243 -0.852098 29.4442 30.5243 -0.852098
518 2 31.1236 30.5387 1.17126 31.1236 30.5387 1.17126
519 2 31.7148 30.4018 -2.13753 31.7148 30.4018 -2.13753
520 1 32.2704 32.1818 -0.402116 32.2704 32.1818 -0.402116
521 2 33.9707 32.2944 1.39856 33.9707 32.2944 1.39856
522 2 34.4059 32.1229 -1.77506 34.4059 32.1229 -1.77506
523 1 35.1378 30.5049 0.112186 35.1378 30.5049 0.112186
524 2 37.047 30.6925 1.57736 37.047 30.6925 1.57736
525 2 37.04 30.3327 -1.64604 37.04 30.3327 -1.64604
526 1 38.035 32.255 -0.235779 38.035 32.255 -0.235779
527 2 39.7391 32.3961 1.5623 39.7391 32.3961 1.5623
528 2 40.0775 32.2464 -1.68921 40.0775 32.2464 -1.68921
529 1 40.8545 30.6514 0.106418 40.8545 30.6514 0.106418
530 2 42.8209 30.7796 1.70851 42.8209 30.7796 1.70851
531 2 42.7396 30.3581 -1.57697 42.7396 30.3581 -1.57697
532 1 43.7314 32.251 -0.124924 43.7314 32.251 -0.124924
533 2 45.5757 32.4119 1.46805 45.5757 32.4119 1.46805
534 2 45.5879 32.1291 -1.80534 45.5879 32.1291 -1.80534
535 1 46.6074 30.6375 -0.0438153 46.6074 30.6375 -0.0438153
536 2 48.739 30.6657 1.49191 48.739 30.6657 1.49191
537 2 48.3531 30.6446 -1.704 48.3531 30.6446 -1.704
538 1 49.389 32.3858 -0.150652 49.389 32.3858 -0.150652
539 2 51.3499 32.6137 1.52703 51.3499 32.6137 1.52703
540 2 51.4355 32.1586 -1.63202 51.4355 32.1586 -1.63202