ITEM: TIMESTEP
25100
ITEM: NUMBER OF ATOMS
810
ITEM: BOX BOUNDS pp pp pp
8.4137701477268123e-01 5.2176227985227342e+01
8.0961581116522285e-01 5.0206599188834083e+01
-1.0000000000000000e+01 1.0000000000000000e+01
ITEM: ATOMS id type x y z xu yu zu
1 1 0.935748 0.987177 0.221972 0.935748 0.987177 0.221972
2 2 2.81563 0.914633 1.84248 2.81563 0.914633 1.84248
3 2 2.7897 1.07716 -1.35831 2.7897 1.07716 -1.35831
4 1 3.83921 2.60311 0.333668 3.83921 2.60311 0.333668
5 2 5.75231 2.4238 1.96641 5.75231 2.4238 1.96641
6 2 5.76334 2.57214 -1.30513 5.76334 2.57214 -1.30513
7 1 6.76639 0.925714 0.259301 6.76639 0.925714 0.259301
8 2 8.80637 0.992328 1.84075 8.80637 0.992328 1.84075
9 2 8.54651 0.963962 -1.39302 8.54651 0.963962 -1.39302
10 1 9.5897 2.6842 0.20109 9.5897 2.6842 0.20109
11 2 11.5581 2.60422 1.71615 11.5581 2.60422 1.71615
12 2 11.3806 2.814 -1.59103 11.3806 2.814 -1.59103
13 1 12.4414 1.04091 -0.0104703 12.4414 1.04091 -0.0104703
14 2 14.4881 0.969125 1.5393 14.4881 0.969125 1.5393
15 2 14.2589 1.11688 -1.68802 14.2589 1.11688 -1.68802
16 1 15.3158 2.74175 -0.016932 15.3158 2.74175 -0.016932
17 2 17.4066 2.52448 1.33954 17.4066 2.52448 1.33954
18 2 16.9475 2.9232 -1.87986 16.9475 2.9232 -1.87986
19 1 18.1976 1.10029 -0.565563 18.1976 1.10029 -0.565563
20 2 20.0478 0.955747 0.983068 20.0478 0.955747 0.983068
21 2 20.1194 1.11235 -2.32624 20.1194 1.11235 -2.32624
22 1 20.9432 2.7436 -0.580326 20.9432 2.7436 -0.580326
23 2 22.9322 2.67781 0.929205 22.9322 2.67781 0.929205
24 2 22.7679 2.67836 -2.45017 22.7679 2.67836 -2.45017
25 1 23.821 0.987917 -0.807311 23.821 0.987917 -0.807311
26 2 25.7614 1.0494 0.661415 25.7614 1.0494 0.661415
27 2 25.665 0.910493 -2.49668 25.665 0.910493 -2.49668
28 1 26.5983 2.7259 -0.967919 26.5983 2.7259 -0.967919
29 2 28.4597 2.74298 0.769579 28.4597 2.74298 0.769579
30 2 28.6094 2.71654 -2.64039 28.6094 2.71654 -2.64039
31 1 29.4771 1.10885 -0.875787 29.4771 1.10885 -0.875787
32 2 31.1316 0.993808 1.02343 31.1316 0.993808 1.02343
33 2 31.6513 1.1533 -2.19473 31.6513 1.1533 -2.19473
34 1 32.3198 2.72099 -0.409599 32.3198 2.72099 -0.409599
35 2 34.1391 2.73808 1.39477 34.1391 2.73808 1.39477
36 2 34.3499 2.47368 -1.84612 34.3499 2.47368 -1.84612
37 1 35.1887 1.01781 -0.0801259 35.1887 1.01781 -0.0801259
38 2 37.0836 0.80985 1.5428 37.0836 0.80985 1.5428
39 2 37.0779 1.17439 -1.63296 37.0779 1.17439 -1.63296
40 1 38.0897 2.60979 0.121184 38.0897 2.60979 0.121184
41 2 39.9605 2.60776 1.87595 39.9605 2.60776 1.87595
42 2 40.0259 2.7216 -1.48217 40.0259 2.7216 -1.48217
43 1 40.9036 0.995097 0.14541 40.9036 0.995097 0.14541
44 2 42.6772 0.963615 1.87757 42.6772 0.963615 1.87757
45 2 42.9199 1.22212 -1.21034 42.9199 1.22212 -1.21034
46 1 43.7322 2.70137 0.617473 43.7322 2.70137 0.617473
47 2 45.8305 2.57312 2.11268 45.8305 2.57312 2.11268
48 2 45.5813 2.75443 -1.13011 45.5813 2.75443 -1.13011
49 1 46.6813 1.08683 0.397468 46.6813 1.08683 0.397468
50 2 48.6382 1.14315 2.00323 48.6382 1.14315 2.00323
51 2 48.4764 0.960088 -1.31572 48.4764 0.960088 -1.31572
52 1 49.5385 2.70673 0.252964 49.5385 2.70673 0.252964
53 2 51.4851 2.71594 1.79939 51.4851 2.71594 1.79939
54 2 51.4229 2.69269 -1.47037 51.4229 2.69269 -1.47037
55 1 1.02847 4.31329 0.0925227 1.02847 4.31329 0.0925227
56 2 2.82546 4.32434 1.88925 2.82546 4.32434 1.88925
57 2 2.98787 4.43727 -1.40472 2.98787 4.43727 -1.40472
58 1 3.90211 6.00722 0.401818 3.90211 6.00722 0.401818
59 2 5.81396 5.82813 2.04423 5.81396 5.82813 2.04423
60 2 5.86261 6.00549 -1.1804 5.86261 6.00549 -1.1804
61 1 6.70314 4.22041 0.386403 6.70314 4.22041 0.386403
62 2 8.62983 4.18609 1.86683 8.62983 4.18609 1.86683
63 2 8.44342 4.32176 -1.40396 8.44342 4.32176 -1.40396
64 1 9.52602 5.87184 0.178488 9.52602 5.87184 0.178488
65 2 11.313 5.72223 1.88295 11.313 5.72223 1.88295
66 2 11.4243 6.13052 -1.33138 11.4243 6.13052 -1.33138
67 1 12.4105 4.37494 0.094334 12.4105 4.37494 0.094334
68 2 14.3611 4.29883 1.71815 14.3611 4.29883 1.71815
69 2 14.2509 4.51681 -1.56042 14.2509 4.51681 -1.56042
70 1 15.2206 6.07742 0.183643 15.2206 6.07742 0.183643
71 2 17.2935 6.00244 1.65348 17.2935 6.00244 1.65348
72 2 16.8707 6.08387 -1.7041 16.8707 6.08387 -1.7041
73 1 18.1726 4.45868 -0.177152 18.1726 4.45868 -0.177152
74 2 20.2662 4.37116 1.13749 20.2662 4.37116 1.13749
75 2 19.8418 4.39506 -2.12564 19.8418 4.39506 -2.12564
76 1 21.035 6.08 -0.625198 21.035 6.08 -0.625198
77 2 22.9288 6.01552 0.910524 22.9288 6.01552 0.910524
78 2 22.7461 6.03226 -2.36454 22.7461 6.03226 -2.36454
79 1 23.8083 4.37295 -0.819059 23.8083 4.37295 -0.819059
80 2 25.7701 4.25417 0.7439 25.7701 4.25417 0.7439
81 2 25.685 4.39781 -2.58001 25.685 4.39781 -2.58001
82 1 26.6828 5.94439 -0.918132 26.6828 5.94439 -0.918132
83 2 28.3812 5.86613 0.89383 28.3812 5.86613 0.89383
84 2 28.7745 6.21597 -2.35317 28.7745 6.21597 -2.35317
85 1 29.4826 4.37274 -0.859848 29.4826 4.37274 -0.859848
86 2 31.1476 4.32527 1.08235 31.1476 4.32527 1.08235
87 2 31.552 4.33888 -2.22639 31.552 4.33888 -2.22639
88 1 32.348 5.90997 -0.349974 32.348 5.90997 -0.349974
89 2 34.2684 5.88635 1.30261 34.2684 5.88635 1.30261
90 2 34.2981 5.96422 -1.9796 34.2981 5.96422 -1.9796
91 1 35.2423 4.2896 -0.269324 35.2423 4.2896 -0.269324
92 2 37.0188 4.46951 1.52108 37.0188 4.46951 1.52108
93 2 37.251 4.18046 -1.75836 37.251 4.18046 -1.75836
94 1 38.1601 5.91381 -0.173225 38.1601 5.91381 -0.173225
95 2 39.7442 5.87012 1.77314 39.7442 5.87012 1.77314
96 2 40.289 5.94401 -1.67274 40.289 5.94401 -1.67274
97 1 40.8996 4.26751 0.247012 40.8996 4.26751 0.247012
98 2 42.7937 4.398 2.07436 42.7937 4.398 2.07436
99 2 42.936 4.21087 -1.21469 42.936 4.21087 -1.21469
100 1 43.725 5.87878 0.439803 43.725 5.87878 0.439803
101 2 45.606 5.93902 2.08156 45.606 5.93902 2.08156
102 2 45.7097 5.82571 -1.2252 45.7097 5.82571 -1.2252
103 1 46.6336 4.27415 0.460341 46.6336 4.27415 0.460341
104 2 48.632 4.19826 1.93059 48.632 4.19826 1.93059
105 2 48.3885 4.16247 -1.3199 48.3885 4.16247 -1.3199
106 1 49.4935 5.90812 0.245302 49.4935 5.90812 0.245302
107 2 51.4075 5.92272 1.84565 51.4075 5.92272 1.84565
108 2 51.3316 6.1075 -1.4298 51.3316 6.1075 -1.4298
109 1 1.02222 7.57331 0.328787 1.02222 7.57331 0.328787
110 2 2.95026 7.53224 2.0431 2.95026 7.53224 2.0431
111 2 2.97042 7.7673 -1.27136 2.97042 7.7673 -1.27136
112 1 3.8725 9.27226 0.448555 3.8725 9.27226 0.448555
113 2 5.68974 9.19402 2.0642 5.68974 9.19402 2.0642
114 2 5.81177 9.194 -1.11344 5.81177 9.194 -1.11344
115 1 6.75874 7.5872 0.508151 6.75874 7.5872 0.508151
116 2 8.73661 7.49307 2.00757 8.73661 7.49307 2.00757
117 2 8.62874 7.70178 -1.20851 8.62874 7.70178 -1.20851
118 1 9.67858 9.28411 0.485202 9.67858 9.28411 0.485202
119 2 11.4756 9.3083 2.13563 11.4756 9.3083 2.13563
120 2 11.6008 9.28458 -1.17748 11.6008 9.28458 -1.17748
121 1 12.416 7.63908 0.486679 12.416 7.63908 0.486679
122 2 14.4145 7.63797 1.99875 14.4145 7.63797 1.99875
123 2 14.1027 7.75703 -1.26058 14.1027 7.75703 -1.26058
124 1 15.2305 9.45501 0.365125 15.2305 9.45501 0.365125
125 2 17.3986 9.30739 1.65588 17.3986 9.30739 1.65588
126 2 16.8418 9.46884 -1.63669 16.8418 9.46884 -1.63669
127 1 18.0759 7.78796 -0.180437 18.0759 7.78796 -0.180437
128 2 20.2369 7.59642 1.21432 20.2369 7.59642 1.21432
129 2 19.8307 7.85389 -2.15747 19.8307 7.85389 -2.15747
130 1 20.8899 9.30892 -0.473464 20.8899 9.30892 -0.473464
131 2 22.8731 9.1039 1.12197 22.8731 9.1039 1.12197
132 2 22.8176 9.33412 -2.14841 22.8176 9.33412 -2.14841
133 1 23.8569 7.64677 -0.71041 23.8569 7.64677 -0.71041
134 2 25.7558 7.37788 0.939721 25.7558 7.37788 0.939721
135 2 25.9223 7.88293 -2.25682 25.9223 7.88293 -2.25682
136 1 26.6746 9.24275 -0.343338 26.6746 9.24275 -0.343338
137 2 28.5681 9.08769 1.28991 28.5681 9.08769 1.28991
138 2 28.6238 9.35029 -2.0396 28.6238 9.35029 -2.0396
139 1 29.575 7.61443 -0.485723 29.575 7.61443 -0.485723
140 2 31.2953 7.54135 1.21667 31.2953 7.54135 1.21667
141 2 31.5818 7.51305 -2.04752 31.5818 7.51305 -2.04752
142 1 32.3921 9.21112 -0.362841 32.3921 9.21112 -0.362841
143 2 34.3385 9.22367 1.34522 34.3385 9.22367 1.34522
144 2 34.3189 9.18753 -2.01948 34.3189 9.18753 -2.01948
145 1 35.2201 7.61516 -0.265154 35.2201 7.61516 -0.265154
146 2 37.0767 7.47475 1.41802 37.0767 7.47475 1.41802
147 2 37.2595 7.61692 -1.80468 37.2595 7.61692 -1.80468
148 1 38.0674 9.33941 -0.100589 38.0674 9.33941 -0.100589
149 2 39.7534 9.10775 1.831 39.7534 9.10775 1.831
150 2 40.1106 9.47235 -1.48172 40.1106 9.47235 -1.48172
151 1 40.8001 7.56508 0.248691 40.8001 7.56508 0.248691
152 2 42.5559 7.58359 1.94516 42.5559 7.58359 1.94516
153 2 42.8579 7.4489 -1.2298 42.8579 7.4489 -1.2298
154 1 43.6731 9.18566 0.344248 43.6731 9.18566 0.344248
155 2 45.51 9.01093 2.15213 45.51 9.01093 2.15213
156 2 45.6094 9.24552 -1.18219 45.6094 9.24552 -1.18219
157 1 46.6155 7.51329 0.430803 46.6155 7.51329 0.430803
158 2 48.5868 7.48126 1.91628 48.5868 7.48126 1.91628
159 2 48.604 7.75401 -1.26642 48.604 7.75401 -1.26642
160 1 49.5046 9.2016 0.440717 49.5046 9.2016 0.440717
161 2 51.338 9.13745 2.13268 51.338 9.13745 2.13268
162 2 51.5062 9.24843 -1.20257 51.5062 9.24843 -1.20257
163 1 0.999605 10.8629 0.506614 0.999605 10.8629 0.506614
164 2 3.02318 10.9676 2.1265 3.02318 10.9676 2.1265
165 2 2.84412 10.8655 -1.17649 2.84412 10.8655 -1.17649
166 1 3.83243 12.5352 0.440477 3.83243 12.5352 0.440477
167 2 5.75934 12.5071 1.98617 5.75934 12.5071 1.98617
168 2 5.68201 12.4577 -1.21347 5.68201 12.4577 -1.21347
169 1 6.68237 10.8545 0.379767 6.68237 10.8545 0.379767
170 2 8.69693 10.9864 2.01565 8.69693 10.9864 2.01565
171 2 8.68849 10.9306 -1.22825 8.68849 10.9306 -1.22825
172 1 9.66865 12.5713 0.410045 9.66865 12.5713 0.410045
173 2 11.5055 12.672 2.15275 11.5055 12.672 2.15275
174 2 11.532 12.4977 -1.20292 11.532 12.4977 -1.20292
175 1 12.4962 10.9958 0.536171 12.4962 10.9958 0.536171
176 2 14.5822 11.1575 1.95053 14.5822 11.1575 1.95053
177 2 14.2272 10.9291 -1.24128 14.2272 10.9291 -1.24128
178 1 15.3465 12.6366 0.148523 15.3465 12.6366 0.148523
179 2 17.4076 12.4239 1.63683 17.4076 12.4239 1.63683
180 2 17.1443 12.6959 -1.60945 17.1443 12.6959 -1.60945
181 1 18.168 10.9638 -0.142618 18.168 10.9638 -0.142618
182 2 20.1801 10.8637 1.33704 20.1801 10.8637 1.33704
183 2 19.8484 10.9552 -1.89354 19.8484 10.9552 -1.89354
184 1 21.0166 12.5749 -0.348927 21.0166 12.5749 -0.348927
185 2 22.9871 12.5253 1.24855 22.9871 12.5253 1.24855
186 2 22.9527 12.6646 -2.01914 22.9527 12.6646 -2.01914
187 1 23.8115 10.9337 -0.380004 23.8115 10.9337 -0.380004
188 2 25.5762 10.7093 1.36914 25.5762 10.7093 1.36914
189 2 25.7088 10.9884 -1.8859 25.7088 10.9884 -1.8859
190 1 26.6411 12.5565 -0.0396527 26.6411 12.5565 -0.0396527
191 2 28.6248 12.4136 1.51268 28.6248 12.4136 1.51268
192 2 28.4599 12.5246 -1.73515 28.4599 12.5246 -1.73515
193 1 29.5406 10.879 -0.172803 29.5406 10.879 -0.172803
194 2 31.5288 10.9447 1.27696 31.5288 10.9447 1.27696
195 2 31.2948 10.8092 -2.02737 31.2948 10.8092 -2.02737
196 1 32.4015 12.5014 -0.464835 32.4015 12.5014 -0.464835
197 2 34.2199 12.5971 1.24653 34.2199 12.5971 1.24653
198 2 34.3763 12.5033 -1.97751 34.3763 12.5033 -1.97751
199 1 35.2065 10.9176 -0.283309 35.2065 10.9176 -0.283309
200 2 37.006 10.8596 1.46547 37.006 10.8596 1.46547
201 2 37.2306 11.0497 -1.70691 37.2306 11.0497 -1.70691
202 1 38.0803 12.6838 0.0747484 38.0803 12.6838 0.0747484
203 2 39.6506 12.7503 1.88749 39.6506 12.7503 1.88749
204 2 40.1111 12.4683 -1.25533 40.1111 12.4683 -1.25533
205 1 40.8612 10.945 0.524059 40.8612 10.945 0.524059
206 2 42.8837 10.8836 2.11058 42.8837 10.8836 2.11058
207 2 42.7865 10.9871 -1.17824 42.7865 10.9871 -1.17824
208 1 43.7011 12.478 0.52217 43.7011 12.478 0.52217
209 2 45.6535 12.4959 2.09583 45.6535 12.4959 2.09583
210 2 45.5814 12.405 -1.08632 45.5814 12.405 -1.08632
211 1 46.6068 10.7891 0.555048 46.6068 10.7891 0.555048
212 2 48.495 10.6552 2.14171 48.495 10.6552 2.14171
213 2 48.5814 10.8609 -1.147 48.5814 10.8609 -1.147
214 1 49.4764 12.4282 0.619811 49.4764 12.4282 0.619811
215 2 51.4237 12.5322 2.17701 51.4237 12.5322 2.17701
216 2 51.3431 12.412 -1.08593 51.3431 12.412 -1.08593
217 1 1.03409 14.177 0.451857 1.03409 14.177 0.451857
218 2 2.9759 14.3591 2.02021 2.9759 14.3591 2.02021
219 2 2.92004 13.9731 -1.17033 2.92004 13.9731 -1.17033
220 1 3.86856 15.8348 0.202101 3.86856 15.8348 0.202101
221 2 5.85154 16.1318 1.78623 5.85154 16.1318 1.78623
222 2 5.71297 15.5456 -1.37656 5.71297 15.5456 -1.37656
223 1 6.72096 14.2018 0.452506 6.72096 14.2018 0.452506
224 2 8.69195 14.3068 2.02932 8.69195 14.3068 2.02932
225 2 8.64016 14.0641 -1.25248 8.64016 14.0641 -1.25248
226 1 9.5872 15.8477 0.230099 9.5872 15.8477 0.230099
227 2 11.5138 15.8982 1.90497 11.5138 15.8982 1.90497
228 2 11.3997 15.7286 -1.33094 11.3997 15.7286 -1.33094
229 1 12.4597 14.1693 0.332926 12.4597 14.1693 0.332926
230 2 14.4346 14.333 1.74973 14.4346 14.333 1.74973
231 2 14.209 14.131 -1.47108 14.209 14.131 -1.47108
232 1 15.3316 15.7922 0.0377462 15.3316 15.7922 0.0377462
233 2 17.2417 15.968 1.55468 17.2417 15.968 1.55468
234 2 17.2224 15.7553 -1.62184 17.2224 15.7553 -1.62184
235 1 18.1664 14.2226 0.108898 18.1664 14.2226 0.108898
236 2 20.3207 14.2596 1.41925 20.3207 14.2596 1.41925
237 2 19.8281 14.1926 -1.78153 19.8281 14.1926 -1.78153
238 1 21.0867 15.8335 -0.429634 21.0867 15.8335 -0.429634
239 2 22.8892 15.909 1.27116 22.8892 15.909 1.27116
240 2 23.0187 15.8881 -1.99756 23.0187 15.8881 -1.99756
241 1 23.9131 14.2038 -0.314836 23.9131 14.2038 -0.314836
242 2 25.7162 14.2614 1.41594 25.7162 14.2614 1.41594
243 2 25.6947 13.9905 -1.92559 25.6947 13.9905 -1.92559
244 1 26.614 15.775 -0.346937 26.614 15.775 -0.346937
245 2 28.6437 16.0436 1.25659 28.6437 16.0436 1.25659
246 2 28.4988 15.5305 -1.96934 28.4988 15.5305 -1.96934
247 1 29.5644 14.0905 -0.188645 29.5644 14.0905 -0.188645
248 2 31.6482 14.2181 1.22773 31.6482 14.2181 1.22773
249 2 31.4003 14.0935 -1.95509 31.4003 14.0935 -1.95509
250 1 32.4393 15.8558 -0.457248 32.4393 15.8558 -0.457248
251 2 34.2364 15.9059 1.28715 34.2364 15.9059 1.28715
252 2 34.3702 15.8554 -1.98137 34.3702 15.8554 -1.98137
253 1 35.1878 14.1604 -0.268428 35.1878 14.1604 -0.268428
254 2 36.9382 14.3016 1.4925 36.9382 14.3016 1.4925
255 2 37.3858 14.2022 -1.66625 37.3858 14.2022 -1.66625
256 1 38.0921 15.8702 -0.0715593 38.0921 15.8702 -0.0715593
257 2 39.8018 15.9569 1.79332 39.8018 15.9569 1.79332
258 2 40.0817 15.9019 -1.48866 40.0817 15.9019 -1.48866
259 1 40.8874 14.3155 0.272197 40.8874 14.3155 0.272197
260 2 42.6079 14.1712 1.98441 42.6079 14.1712 1.98441
261 2 42.9823 14.1869 -1.17694 42.9823 14.1869 -1.17694
262 1 43.8709 15.8946 0.456487 43.8709 15.8946 0.456487
263 2 45.7668 15.7967 2.02327 45.7668 15.7967 2.02327
264 2 45.7226 15.7278 -1.14032 45.7226 15.7278 -1.14032
265 1 46.6266 14.1066 0.469081 46.6266 14.1066 0.469081
266 2 48.475 14.1902 2.11002 48.475 14.1902 2.11002
267 2 48.5326 13.9462 -1.09922 48.5326 13.9462 -1.09922
268 1 49.473 15.811 0.411242 49.473 15.811 0.411242
269 2 51.3994 15.8477 2.0185 51.3994 15.8477 2.0185
270 2 51.3634 15.754 -1.24485 51.3634 15.754 -1.24485
271 1 1.0468 17.3777 0.305047 1.0468 17.3777 0.305047
272 2 3.0018 17.4607 1.84853 3.0018 17.4607 1.84853
273 2 2.88542 17.3609 -1.42281 2.88542 17.3609 -1.42281
274 1 3.77072 19.115 -0.0101479 3.77072 19.115 -0.0101479
275 2 5.81896 19.2436 1.54204 5.81896 19.2436 1.54204
276 2 5.63789 19.1802 -1.73031 5.63789 19.1802 -1.73031
277 1 6.61623 17.5078 -0.0742427 6.61623 17.5078 -0.0742427
278 2 8.37724 17.5113 1.69391 8.37724 17.5113 1.69391
279 2 8.68794 17.3895 -1.50866 8.68794 17.3895 -1.50866
280 1 9.55592 19.1305 0.0121872 9.55592 19.1305 0.0121872
281 2 11.5195 19.163 1.77026 11.5195 19.163 1.77026
282 2 11.4134 19.1061 -1.58555 11.4134 19.1061 -1.58555
283 1 12.4003 17.4286 0.0661673 12.4003 17.4286 0.0661673
284 2 14.4417 17.4648 1.58993 14.4417 17.4648 1.58993
285 2 14.2748 17.2168 -1.61925 14.2748 17.2168 -1.61925
286 1 15.2331 19.0883 -0.090791 15.2331 19.0883 -0.090791
287 2 17.0453 18.9632 1.55284 17.0453 18.9632 1.55284
288 2 17.2044 19.2374 -1.61611 17.2044 19.2374 -1.61611
289 1 18.1787 17.4853 -0.221869 18.1787 17.4853 -0.221869
290 2 20.1453 17.4105 1.34084 20.1453 17.4105 1.34084
291 2 20.0929 17.5554 -1.85531 20.0929 17.5554 -1.85531
292 1 21.0681 19.1537 -0.237579 21.0681 19.1537 -0.237579
293 2 22.959 19.107 1.41244 22.959 19.107 1.41244
294 2 22.8801 19.1685 -1.86107 22.8801 19.1685 -1.86107
295 1 23.8865 17.5423 -0.306066 23.8865 17.5423 -0.306066
296 2 25.8201 17.5108 1.29694 25.8201 17.5108 1.29694
297 2 25.6747 17.374 -1.9196 25.6747 17.374 -1.9196
298 1 26.7108 19.0911 -0.509368 26.7108 19.0911 -0.509368
299 2 28.7233 19.0884 0.971467 28.7233 19.0884 0.971467
300 2 28.5199 19.108 -2.25383 28.5199 19.108 -2.25383
301 1 29.543 17.4147 -0.698202 29.543 17.4147 -0.698202
302 2 31.4325 17.6079 0.973098 31.4325 17.6079 0.973098
303 2 31.4785 17.185 -2.22091 31.4785 17.185 -2.22091
304 1 32.4807 19.0372 -0.81696 32.4807 19.0372 -0.81696
305 2 34.1986 19.2314 1.05298 34.1986 19.2314 1.05298
306 2 34.5468 19.0299 -2.15322 34.5468 19.0299 -2.15322
307 1 35.2971 17.4539 -0.274503 35.2971 17.4539 -0.274503
308 2 37.0965 17.5595 1.40339 37.0965 17.5595 1.40339
309 2 37.2398 17.3995 -1.82605 37.2398 17.3995 -1.82605
310 1 38.0405 19.1599 -0.257111 38.0405 19.1599 -0.257111
311 2 39.9016 19.3493 1.60362 39.9016 19.3493 1.60362
312 2 40.2186 19.149 -1.68991 40.2186 19.149 -1.68991
313 1 40.9619 17.5309 0.142937 40.9619 17.5309 0.142937
314 2 42.7638 17.5974 1.99229 42.7638 17.5974 1.99229
315 2 43.0645 17.4975 -1.35318 43.0645 17.4975 -1.35318
316 1 43.9011 19.1385 0.31535 43.9011 19.1385 0.31535
317 2 45.8804 19.1971 1.9405 45.8804 19.1971 1.9405
318 2 45.8349 19.1608 -1.32343 45.8349 19.1608 -1.32343
319 1 46.7688 17.5064 0.416497 46.7688 17.5064 0.416497
320 2 48.706 17.6519 1.94424 48.706 17.6519 1.94424
321 2 48.5653 17.3033 -1.33964 48.5653 17.3033 -1.33964
322 1 49.6231 19.1182 0.0701038 49.6231 19.1182 0.0701038
323 2 51.4742 19.2389 1.75577 51.4742 19.2389 1.75577
324 2 51.4501 18.9029 -1.50774 51.4501 18.9029 -1.50774
325 1 1.0532 20.8821 -0.104859 1.0532 20.8821 -0.104859
326 2 2.92805 20.926 1.53505 2.92805 20.926 1.53505
327 2 2.88403 20.8485 -1.75923 2.88403 20.8485 -1.75923
328 1 3.91689 22.3987 -0.151704 3.91689 22.3987 -0.151704
329 2 5.68727 22.4001 1.50839 5.68727 22.4001 1.50839
330 2 5.83185 22.5022 -1.75898 5.83185 22.5022 -1.75898
331 1 6.74092 20.8115 -0.240587 6.74092 20.8115 -0.240587
332 2 8.43713 20.7656 1.62868 8.43713 20.7656 1.62868
333 2 8.65238 20.7836 -1.72635 8.65238 20.7836 -1.72635
334 1 9.53349 22.3929 0.113397 9.53349 22.3929 0.113397
335 2 11.6026 22.4987 1.55985 11.6026 22.4987 1.55985
336 2 11.3205 22.346 -1.70727 11.3205 22.346 -1.70727
337 1 12.4026 20.7315 -0.0560946 12.4026 20.7315 -0.0560946
338 2 14.2278 20.682 1.65274 14.2278 20.682 1.65274
339 2 14.2654 20.9153 -1.66107 14.2654 20.9153 -1.66107
340 1 15.207 22.397 0.100663 15.207 22.397 0.100663
341 2 17.1567 22.4068 1.67162 17.1567 22.4068 1.67162
342 2 17.041 22.2057 -1.53282 17.041 22.2057 -1.53282
343 1 18.1074 20.6999 0.0939214 18.1074 20.6999 0.0939214
344 2 20.2189 20.7564 1.45924 20.2189 20.7564 1.45924
345 2 19.8402 20.8094 -1.78982 19.8402 20.8094 -1.78982
346 1 20.9476 22.466 -0.340185 20.9476 22.466 -0.340185
347 2 22.7921 22.5054 1.29167 22.7921 22.5054 1.29167
348 2 22.9336 22.3443 -1.8896 22.9336 22.3443 -1.8896
349 1 23.9123 20.8034 -0.213805 23.9123 20.8034 -0.213805
350 2 25.9377 20.8042 1.20505 25.9377 20.8042 1.20505
351 2 25.5502 20.7174 -2.08966 25.5502 20.7174 -2.08966
352 1 26.8186 22.3382 -0.56533 26.8186 22.3382 -0.56533
353 2 28.7684 22.3015 1.025 28.7684 22.3015 1.025
354 2 28.6989 22.3873 -2.22989 28.6989 22.3873 -2.22989
355 1 29.543 20.686 -0.67378 29.543 20.686 -0.67378
356 2 31.5217 20.6715 0.882222 31.5217 20.6715 0.882222
357 2 31.3795 20.8236 -2.38798 31.3795 20.8236 -2.38798
358 1 32.3546 22.37 -0.735452 32.3546 22.37 -0.735452
359 2 34.2736 22.6152 0.952218 34.2736 22.6152 0.952218
360 2 34.2797 22.4027 -2.32133 34.2797 22.4027 -2.32133
361 1 35.2207 20.8006 -0.541103 35.2207 20.8006 -0.541103
362 2 37.0879 20.8558 1.35089 37.0879 20.8558 1.35089
363 2 37.3224 20.9485 -1.92834 37.3224 20.9485 -1.92834
364 1 38.279 22.4899 -0.280813 38.279 22.4899 -0.280813
365 2 40.0112 22.5892 1.38592 40.0112 22.5892 1.38592
366 2 40.1728 22.2195 -1.82302 40.1728 22.2195 -1.82302
367 1 40.9896 20.7881 -0.0131198 40.9896 20.7881 -0.0131198
368 2 42.8569 20.8996 1.79959 42.8569 20.8996 1.79959
369 2 42.9449 20.6553 -1.56025 42.9449 20.6553 -1.56025
370 1 43.7822 22.3755 0.00635483 43.7822 22.3755 0.00635483
371 2 45.6508 22.5683 1.65235 45.6508 22.5683 1.65235
372 2 45.7187 22.4978 -1.5718 45.7187 22.4978 -1.5718
373 1 46.776 20.8283 0.258307 46.776 20.8283 0.258307
374 2 48.6813 20.7213 1.81463 48.6813 20.7213 1.81463
375 2 48.6593 20.8714 -1.42191 48.6593 20.8714 -1.42191
376 1 49.5864 22.5047 0.0989982 49.5864 22.5047 0.0989982
377 2 51.6053 22.5592 1.53568 51.6053 22.5592 1.53568
378 2 51.3286 22.4159 -1.74187 51.3286 22.4159 -1.74187
379 1 1.07042 24.1461 -0.209118 1.07042 24.1461 -0.209118
380 2 3.01386 23.958 1.42452 3.01386 23.958 1.42452
381 2 2.944 24.113 -1.86313 2.944 24.113 -1.86313
382 1 3.8662 25.7856 -0.183891 3.8662 25.7856 -0.183891
383 2 5.81828 25.7836 1.48901 5.81828 25.7836 1.48901
384 2 5.8939 25.7347 -1.71974 5.8939 25.7347 -1.71974
385 1 6.72579 24.0741 -0.0739603 6.72579 24.0741 -0.0739603
386 2 8.55185 24.1119 1.68957 8.55185 24.1119 1.68957
387 2 8.68063 24.0062 -1.65749 8.68063 24.0062 -1.65749
388 1 9.55159 25.71 -0.0483106 9.55159 25.71 -0.0483106
389 2 11.6372 25.6975 1.46228 11.6372 25.6975 1.46228
390 2 11.3674 25.7395 -1.73136 11.3674 25.7395 -1.73136
391 1 12.3932 23.997 -0.177853 12.3932 23.997 -0.177853
392 2 14.222 24.1206 1.57838 14.222 24.1206 1.57838
393 2 14.5603 23.9191 -1.68997 14.5603 23.9191 -1.68997
394 1 15.2029 25.6567 0.00441867 15.2029 25.6567 0.00441867
395 2 17.2657 25.6651 1.49945 17.2657 25.6651 1.49945
396 2 17.0912 25.4974 -1.73839 17.0912 25.4974 -1.73839
397 1 18.0994 23.9212 -0.0735339 18.0994 23.9212 -0.0735339
398 2 20.1076 24.0907 1.34765 20.1076 24.0907 1.34765
399 2 19.7437 24.0646 -1.92779 19.7437 24.0646 -1.92779
400 1 20.9194 25.7014 -0.423808 20.9194 25.7014 -0.423808
401 2 22.8 25.6549 1.17767 22.8 25.6549 1.17767
402 2 22.8979 25.6807 -2.10536 22.8979 25.6807 -2.10536
403 1 23.8557 24.1196 -0.385273 23.8557 24.1196 -0.385273
404 2 25.838 24.0454 1.14032 25.838 24.0454 1.14032
405 2 25.653 23.9546 -2.08284 25.653 23.9546 -2.08284
406 1 26.6197 25.6008 -0.564483 26.6197 25.6008 -0.564483
407 2 28.578 25.5653 1.06341 28.578 25.5653 1.06341
408 2 28.5319 25.7392 -2.20109 28.5319 25.7392 -2.20109
409 1 29.6349 23.9847 -0.650583 29.6349 23.9847 -0.650583
410 2 31.6107 24.044 0.980664 31.6107 24.044 0.980664
411 2 31.4262 24.1352 -2.3983 31.4262 24.1352 -2.3983
412 1 32.4194 25.7081 -0.65163 32.4194 25.7081 -0.65163
413 2 34.4291 25.7111 0.903941 34.4291 25.7111 0.903941
414 2 34.3444 25.8094 -2.32353 34.3444 25.8094 -2.32353
415 1 35.3007 24.0418 -0.783487 35.3007 24.0418 -0.783487
416 2 37.0003 24.017 1.09547 37.0003 24.017 1.09547
417 2 37.46 23.9903 -2.05135 37.46 23.9903 -2.05135
418 1 38.1032 25.7616 -0.433247 38.1032 25.7616 -0.433247
419 2 40.0932 25.7131 1.214 40.0932 25.7131 1.214
420 2 39.9639 25.7838 -2.07229 39.9639 25.7838 -2.07229
421 1 40.9905 24.1236 -0.360208 40.9905 24.1236 -0.360208
422 2 42.7767 24.2002 1.36715 42.7767 24.2002 1.36715
423 2 43.1144 24.039 -1.81347 43.1144 24.039 -1.81347
424 1 43.7828 25.7657 -0.179267 43.7828 25.7657 -0.179267
425 2 45.7056 25.8101 1.48002 45.7056 25.8101 1.48002
426 2 45.9007 25.6033 -1.7236 45.9007 25.6033 -1.7236
427 1 46.7032 24.1003 -0.0386594 46.7032 24.1003 -0.0386594
428 2 48.5939 24.0824 1.70139 48.5939 24.0824 1.70139
429 2 48.74 24.1151 -1.55746 48.74 24.1151 -1.55746
430 1 49.5346 25.8285 0.0965444 49.5346 25.8285 0.0965444
431 2 51.5807 25.6422 1.61615 51.5807 25.6422 1.61615
432 2 51.3354 25.9728 -1.66483 51.3354 25.9728 -1.66483
433 1 1.11322 27.4323 0.0667699 1.11322 27.4323 0.0667699
434 2 3.03709 27.3617 1.56034 3.03709 27.3617 1.56034
435 2 2.76604 27.4914 -1.753 2.76604 27.4914 -1.753
436 1 3.88756 29.1136 -0.20309 3.88756 29.1136 -0.20309
437 2 5.71055 29.0407 1.51116 5.71055 29.0407 1.51116
438 2 5.76371 29.0023 -1.79705 5.76371 29.0023 -1.79705
439 1 6.68906 27.3579 -0.0552 6.68906 27.3579 -0.0552
440 2 8.68586 27.4599 1.45474 8.68586 27.4599 1.45474
441 2 8.60721 27.325 -1.74826 8.60721 27.325 -1.74826
442 1 9.51926 28.9906 -0.198532 9.51926 28.9906 -0.198532
443 2 11.5343 28.9917 1.3554 11.5343 28.9917 1.3554
444 2 11.3931 28.8629 -1.85285 11.3931 28.8629 -1.85285
445 1 12.4553 27.2728 -0.156006 12.4553 27.2728 -0.156006
446 2 14.4036 27.468 1.44158 14.4036 27.468 1.44158
447 2 14.3628 27.2118 -1.85527 14.3628 27.2118 -1.85527
448 1 15.3598 28.9609 -0.319821 15.3598 28.9609 -0.319821
449 2 17.0943 28.8903 1.33412 17.0943 28.8903 1.33412
450 2 17.3119 28.8183 -1.94589 17.3119 28.8183 -1.94589
451 1 18.1602 27.2218 -0.221313 18.1602 27.2218 -0.221313
452 2 20.1225 27.358 1.22109 20.1225 27.358 1.22109
453 2 19.8372 27.2024 -2.01904 19.8372 27.2024 -2.01904
454 1 20.8444 28.9731 -0.63503 20.8444 28.9731 -0.63503
455 2 22.976 29.0097 1.08237 22.976 29.0097 1.08237
456 2 22.8113 28.866 -2.23161 22.8113 28.866 -2.23161
457 1 23.7855 27.2979 -0.488562 23.7855 27.2979 -0.488562
458 2 25.5731 27.1022 1.19786 25.5731 27.1022 1.19786
459 2 25.6569 27.4417 -2.08228 25.6569 27.4417 -2.08228
460 1 26.6036 28.9731 -0.305967 26.6036 28.9731 -0.305967
461 2 28.5322 28.917 1.26118 28.5322 28.917 1.26118
462 2 28.4802 28.975 -2.00844 28.4802 28.975 -2.00844
463 1 29.4924 27.2927 -0.52141 29.4924 27.2927 -0.52141
464 2 31.4148 27.2524 1.12887 31.4148 27.2524 1.12887
465 2 31.3791 27.5264 -2.12566 31.3791 27.5264 -2.12566
466 1 32.3792 29.0373 -0.380687 32.3792 29.0373 -0.380687
467 2 34.3577 28.9307 1.18779 34.3577 28.9307 1.18779
468 2 34.3104 29.238 -2.03869 34.3104 29.238 -2.03869
469 1 35.2567 27.4893 -0.640319 35.2567 27.4893 -0.640319
470 2 36.9595 27.3929 1.25858 36.9595 27.3929 1.25858
471 2 37.2873 27.5551 -2.07345 37.2873 27.5551 -2.07345
472 1 38.0345 29.152 -0.268408 38.0345 29.152 -0.268408
473 2 39.951 29.0037 1.23961 39.951 29.0037 1.23961
474 2 39.9954 29.1785 -1.97834 39.9954 29.1785 -1.97834
475 1 40.9081 27.3815 -0.534277 40.9081 27.3815 -0.534277
476 2 42.668 27.5502 1.19281 42.668 27.5502 1.19281
477 2 43.008 27.3486 -2.00492 43.008 27.3486 -2.00492
478 1 43.7635 29.0765 -0.501256 43.7635 29.0765 -0.501256
479 2 45.6625 29.2453 1.23033 45.6625 29.2453 1.23033
480 2 45.766 28.846 -2.02346 45.766 28.846 -2.02346
481 1 46.6683 27.4107 -0.12779 46.6683 27.4107 -0.12779
482 2 48.5105 27.395 1.61265 48.5105 27.395 1.61265
483 2 48.6533 27.3527 -1.66591 48.6533 27.3527 -1.66591
484 1 49.5362 29.0151 -0.00379062 49.5362 29.0151 -0.00379062
485 2 51.312 28.981 1.68931 51.312 28.981 1.68931
486 2 51.3817 29.1968 -1.61212 51.3817 29.1968 -1.61212
487 1 0.94533 30.6962 0.0710925 0.94533 30.6962 0.0710925
488 2 3.07849 30.8106 1.55279 3.07849 30.8106 1.55279
489 2 2.77127 30.6267 -1.70715 2.77127 30.6267 -1.70715
490 1 3.95771 32.3306 -0.161074 3.95771 32.3306 -0.161074
491 2 5.79743 32.2554 1.6168 5.79743 32.2554 1.6168
492 2 5.82731 32.2434 -1.75779 5.82731 32.2434 -1.75779
493 1 6.66654 30.6116 -0.0803876 6.66654 30.6116 -0.0803876
494 2 8.65937 30.5903 1.48275 8.65937 30.5903 1.48275
495 2 8.65044 30.7687 -1.73931 8.65044 30.7687 -1.73931
496 1 9.5408 32.2888 -0.0789439 9.5408 32.2888 -0.0789439
497 2 11.7016 32.2565 1.42231 11.7016 32.2565 1.42231
498 2 11.3749 32.3359 -1.81098 11.3749 32.3359 -1.81098
499 1 12.4914 30.6325 -0.310869 12.4914 30.6325 -0.310869
500 2 14.4163 30.677 1.26012 14.4163 30.677 1.26012
501 2 14.3361 30.4559 -1.91721 14.3361 30.4559 -1.91721
502 1 15.2725 32.3273 -0.385301 15.2725 32.3273 -0.385301
503 2 17.1737 32.4857 1.10499 17.1737 32.4857 1.10499
504 2 17.083 32.1661 -2.05872 17.083 32.1661 -2.05872
505 1 18.0499 30.5908 -0.335961 18.0499 30.5908 -0.335961
506 2 20.0194 30.6422 1.03141 20.0194 30.6422 1.03141
507 2 19.7223 30.5618 -2.15754 19.7223 30.5618 -2.15754
508 1 20.9112 32.2279 -0.689085 20.9112 32.2279 -0.689085
509 2 22.792 32.3841 0.929473 22.792 32.3841 0.929473
510 2 22.8472 32.1357 -2.38383 22.8472 32.1357 -2.38383
511 1 23.8038 30.6409 -0.656783 23.8038 30.6409 -0.656783
512 2 25.5208 30.913 1.03472 25.5208 30.913 1.03472
513 2 25.8017 30.4396 -2.12622 25.8017 30.4396 -2.12622
514 1 26.6849 32.3288 -0.696554 26.6849 32.3288 -0.696554
515 2 28.3567 32.3554 1.17914 28.3567 32.3554 1.17914
516 2 28.774 32.248 -2.03946 28.774 32.248 -2.03946
517 1 29.46 30.5585 -0.383807 29.46 30.5585 -0.383807
518 2 31.3175 30.5319 1.36939 31.3175 30.5319 1.36939
519 2 31.4647 30.8099 -1.95333 31.4647 30.8099 -1.95333
520 1 32.2925 32.2758 -0.149262 32.2925 32.2758 -0.149262
521 2 34.2733 32.2033 1.54062 34.2733 32.2033 1.54062
522 2 34.2039 32.5811 -1.7172 34.2039 32.5811 -1.7172
523 1 35.2044 30.7874 -0.252363 35.2044 30.7874 -0.252363
524 2 37.0126 30.6245 1.44826 37.0126 30.6245 1.44826
525 2 37.181 30.8997 -1.70318 37.181 30.8997 -1.70318
526 1 38.0777 32.4135 0.129173 38.0777 32.4135 0.129173
527 2 40.1793 32.234 1.56211 40.1793 32.234 1.56211
528 2 39.8907 32.6451 -1.63471 39.8907 32.6451 -1.63471
529 1 40.9036 30.787 -0.309706 40.9036 30.787 -0.309706
530 2 42.9043 30.7491 1.20069 42.9043 30.7491 1.20069
531 2 42.7458 30.7299 -2.09918 42.7458 30.7299 -2.09918
532 1 43.8064 32.4248 -0.515927 43.8064 32.4248 -0.515927
533 2 45.6212 32.3121 1.19522 45.6212 32.3121 1.19522
534 2 45.7136 32.5842 -2.12133 45.7136 32.5842 -2.12133
535 1 46.6148 30.6796 -0.560736 46.6148 30.6796 -0.560736
536 2 48.208 30.6102 1.35664 48.208 30.6102 1.35664
537 2 48.831 30.7044 -1.87547 48.831 30.7044 -1.87547
538 1 49.4467 32.3169 -0.00796785 49.4467 32.3169 -0.00796785
539 2 51.2913 32.4416 1.66366 51.2913 32.4416 1.66366
540 2 51.3774 32.2667 -1.68223 51.3774 32.2667 -1.68223