ITEM: TIMESTEP
33900
ITEM: NUMBER OF ATOMS
810
ITEM: BOX BOUNDS pp pp pp
8.4137701477268123e-01 5.2176227985227342e+01
8.0961581116522285e-01 5.0206599188834083e+01
-1.0000000000000000e+01 1.0000000000000000e+01
ITEM: ATOMS id type x y z xu yu zu
1 1 1.05833 0.966322 0.712541 1.05833 0.966322 0.712541
2 2 3.12845 0.874612 2.10545 3.12845 0.874612 2.10545
3 2 2.81322 0.921246 -1.11493 2.81322 0.921246 -1.11493
4 1 3.97317 2.55343 0.51601 3.97317 2.55343 0.51601
5 2 6.02978 2.4634 2.08936 6.02978 2.4634 2.08936
6 2 5.85264 2.83218 -1.25399 5.85264 2.83218 -1.25399
7 1 6.85006 0.959076 0.182441 6.85006 0.959076 0.182441
8 2 8.7856 0.974355 1.77097 8.7856 0.974355 1.77097
9 2 8.70386 1.00108 -1.44593 8.70386 1.00108 -1.44593
10 1 9.74116 2.6379 0.187073 9.74116 2.6379 0.187073
11 2 11.7945 2.60993 1.76374 11.7945 2.60993 1.76374
12 2 11.4573 2.57283 -1.50342 11.4573 2.57283 -1.50342
13 1 12.5522 0.933409 0.0280345 12.5522 0.933409 0.0280345
14 2 14.3608 1.02526 1.70473 14.3608 1.02526 1.70473
15 2 14.4716 1.10395 -1.51903 14.4716 1.10395 -1.51903
16 1 15.408 2.715 0.243009 15.408 2.715 0.243009
17 2 17.2589 2.75152 1.91069 17.2589 2.75152 1.91069
18 2 17.298 2.69155 -1.43353 17.298 2.69155 -1.43353
19 1 18.3007 0.958667 0.287087 18.3007 0.958667 0.287087
20 2 20.3248 0.90461 1.64929 20.3248 0.90461 1.64929
21 2 20.0554 1.17417 -1.55212 20.0554 1.17417 -1.55212
22 1 21.1436 2.67056 0.0752006 21.1436 2.67056 0.0752006
23 2 23.2974 2.58611 1.4922 23.2974 2.58611 1.4922
24 2 22.8007 2.71178 -1.84661 22.8007 2.71178 -1.84661
25 1 23.9615 1.04842 -0.377495 23.9615 1.04842 -0.377495
26 2 26.0609 1.03766 1.05858 26.0609 1.03766 1.05858
27 2 25.6656 1.0434 -2.11025 25.6656 1.0434 -2.11025
28 1 26.8706 2.58502 -0.637659 26.8706 2.58502 -0.637659
29 2 28.9012 2.47154 0.851697 28.9012 2.47154 0.851697
30 2 28.545 2.75429 -2.43136 28.545 2.75429 -2.43136
31 1 29.589 0.950981 -0.957751 29.589 0.950981 -0.957751
32 2 31.5918 50.3958 0.689962 31.5918 0.998852 0.689962
33 2 31.5024 1.0653 -2.59315 31.5024 1.0653 -2.59315
34 1 32.5152 2.61558 -0.853961 32.5152 2.61558 -0.853961
35 2 34.1746 2.56822 1.07633 34.1746 2.56822 1.07633
36 2 34.613 2.68869 -2.23544 34.613 2.68869 -2.23544
37 1 35.2651 0.963096 -0.39527 35.2651 0.963096 -0.39527
38 2 37.0247 50.18 1.26372 37.0247 0.783015 1.26372
39 2 37.3121 1.03905 -1.9564 37.3121 1.03905 -1.9564
40 1 38.1365 2.51878 -0.0949297 38.1365 2.51878 -0.0949297
41 2 39.9148 2.58876 1.47879 39.9148 2.58876 1.47879
42 2 40.0137 2.56154 -1.71521 40.0137 2.56154 -1.71521
43 1 41.0211 0.955712 -0.00685009 41.0211 0.955712 -0.00685009
44 2 42.6141 0.781212 1.85923 42.6141 0.781212 1.85923
45 2 43.1312 1.11052 -1.32243 43.1312 1.11052 -1.32243
46 1 43.8045 2.55249 0.587135 43.8045 2.55249 0.587135
47 2 45.6623 2.40392 2.18474 45.6623 2.40392 2.18474
48 2 45.6772 2.65927 -1.05188 45.6772 2.65927 -1.05188
49 1 46.6916 0.911509 0.420798 46.6916 0.911509 0.420798
50 2 48.5201 0.772129 2.23408 48.5201 0.772129 2.23408
51 2 48.6646 1.13533 -1.00701 48.6646 1.13533 -1.00701
52 1 49.5461 2.55916 0.794642 49.5461 2.55916 0.794642
53 2 51.4482 2.59074 2.42412 51.4482 2.59074 2.42412
54 2 51.4553 2.67699 -0.850123 51.4553 2.67699 -0.850123
55 1 1.02699 4.19073 0.866463 1.02699 4.19073 0.866463
56 2 3.13605 4.11204 2.27382 3.13605 4.11204 2.27382
57 2 2.88333 4.31122 -0.899084 2.88333 4.31122 -0.899084
58 1 3.92521 5.82619 0.665034 3.92521 5.82619 0.665034
59 2 5.88837 5.87729 2.21381 5.88837 5.87729 2.21381
60 2 5.76339 5.83132 -1.11811 5.76339 5.83132 -1.11811
61 1 6.84346 4.27607 0.534503 6.84346 4.27607 0.534503
62 2 8.81038 4.29783 1.93695 8.81038 4.29783 1.93695
63 2 8.5848 4.29922 -1.23898 8.5848 4.29922 -1.23898
64 1 9.63233 5.9224 0.276294 9.63233 5.9224 0.276294
65 2 11.6389 5.77474 1.81478 11.6389 5.77474 1.81478
66 2 11.5349 6.03378 -1.51475 11.5349 6.03378 -1.51475
67 1 12.53 4.29469 0.00298151 12.53 4.29469 0.00298151
68 2 14.2842 4.38518 1.76296 14.2842 4.38518 1.76296
69 2 14.495 4.24752 -1.47591 14.495 4.24752 -1.47591
70 1 15.4499 6.00079 0.156229 15.4499 6.00079 0.156229
71 2 17.2622 6.11957 1.76851 17.2622 6.11957 1.76851
72 2 17.3277 5.96078 -1.55497 17.3277 5.96078 -1.55497
73 1 18.2903 4.3968 0.216862 18.2903 4.3968 0.216862
74 2 20.3663 4.42074 1.72074 20.3663 4.42074 1.72074
75 2 20.278 4.35612 -1.44806 20.278 4.35612 -1.44806
76 1 21.2781 5.99643 0.0369357 21.2781 5.99643 0.0369357
77 2 23.3153 6.07432 1.4067 23.3153 6.07432 1.4067
78 2 22.9189 5.93632 -1.74449 22.9189 5.93632 -1.74449
79 1 23.995 4.24547 -0.210614 23.995 4.24547 -0.210614
80 2 26.1551 4.07175 1.24836 26.1551 4.07175 1.24836
81 2 25.6971 4.3325 -1.98373 25.6971 4.3325 -1.98373
82 1 26.7969 5.89343 -0.367868 26.7969 5.89343 -0.367868
83 2 28.8867 5.88758 0.983778 28.8867 5.88758 0.983778
84 2 28.4825 5.9174 -2.28955 28.4825 5.9174 -2.28955
85 1 29.6491 4.27138 -0.804542 29.6491 4.27138 -0.804542
86 2 31.5507 4.08172 0.907345 31.5507 4.08172 0.907345
87 2 31.5463 4.40068 -2.29677 31.5463 4.40068 -2.29677
88 1 32.5045 5.838 -0.429614 32.5045 5.838 -0.429614
89 2 34.3926 5.76718 1.2269 34.3926 5.76718 1.2269
90 2 34.4982 5.74728 -2.07737 34.4982 5.74728 -2.07737
91 1 35.3513 4.18753 -0.381414 35.3513 4.18753 -0.381414
92 2 37.0008 4.19312 1.47663 37.0008 4.19312 1.47663
93 2 37.4988 4.21197 -1.78689 37.4988 4.21197 -1.78689
94 1 38.1972 5.75837 -0.0407116 38.1972 5.75837 -0.0407116
95 2 39.9427 5.68606 1.67565 39.9427 5.68606 1.67565
96 2 40.2215 6.03389 -1.60819 40.2215 6.03389 -1.60819
97 1 41.0219 4.26896 -0.0736212 41.0219 4.26896 -0.0736212
98 2 42.5454 4.39532 1.92374 42.5454 4.39532 1.92374
99 2 43.3928 4.16761 -1.29531 43.3928 4.16761 -1.29531
100 1 43.8557 5.96381 0.538116 43.8557 5.96381 0.538116
101 2 45.6175 5.78233 2.26637 45.6175 5.78233 2.26637
102 2 45.8486 5.9156 -0.963424 45.8486 5.9156 -0.963424
103 1 46.6817 4.12858 0.729073 46.6817 4.12858 0.729073
104 2 48.4959 4.08981 2.4913 48.4959 4.08981 2.4913
105 2 48.7296 4.43933 -0.84394 48.7296 4.43933 -0.84394
106 1 49.51 5.89212 1.04944 49.51 5.89212 1.04944
107 2 51.5318 5.89441 2.5298 51.5318 5.89441 2.5298
108 2 51.3501 5.87015 -0.661793 51.3501 5.87015 -0.661793
109 1 1.09953 7.46968 0.847295 1.09953 7.46968 0.847295
110 2 3.17219 7.7222 2.26045 3.17219 7.7222 2.26045
111 2 2.80918 7.43566 -0.941412 2.80918 7.43566 -0.941412
112 1 4.0165 9.09942 0.431521 4.0165 9.09942 0.431521
113 2 5.89076 9.21695 2.02076 5.89076 9.21695 2.02076
114 2 5.94114 9.09052 -1.20085 5.94114 9.09052 -1.20085
115 1 6.77811 7.49356 0.485444 6.77811 7.49356 0.485444
116 2 8.78753 7.49024 2.04284 8.78753 7.49024 2.04284
117 2 8.68855 7.54357 -1.23895 8.68855 7.54357 -1.23895
118 1 9.70985 9.21219 0.410592 9.70985 9.21219 0.410592
119 2 11.7542 9.23673 1.9375 11.7542 9.23673 1.9375
120 2 11.5265 9.20957 -1.35399 11.5265 9.20957 -1.35399
121 1 12.5163 7.52859 0.272613 12.5163 7.52859 0.272613
122 2 14.4815 7.61265 1.8087 14.4815 7.61265 1.8087
123 2 14.4055 7.5897 -1.56636 14.4055 7.5897 -1.56636
124 1 15.5065 9.29911 0.099306 15.5065 9.29911 0.099306
125 2 17.5803 9.38507 1.59387 17.5803 9.38507 1.59387
126 2 17.3495 9.26625 -1.6784 17.3495 9.26625 -1.6784
127 1 18.2985 7.59966 0.042668 18.2985 7.59966 0.042668
128 2 20.4167 7.71941 1.64839 20.4167 7.71941 1.64839
129 2 20.0994 7.46294 -1.7108 20.0994 7.46294 -1.7108
130 1 21.186 9.21205 -0.305832 21.186 9.21205 -0.305832
131 2 23.1061 9.36065 1.27906 23.1061 9.36065 1.27906
132 2 22.8953 9.22139 -2.02312 22.8953 9.22139 -2.02312
133 1 24.0064 7.69278 -0.358927 24.0064 7.69278 -0.358927
134 2 25.8718 7.63006 1.26217 25.8718 7.63006 1.26217
135 2 25.7212 7.42477 -2.09802 25.7212 7.42477 -2.09802
136 1 26.8425 9.13881 -0.652544 26.8425 9.13881 -0.652544
137 2 28.784 8.86895 0.898847 28.784 8.86895 0.898847
138 2 28.7633 9.38043 -2.26246 28.7633 9.38043 -2.26246
139 1 29.742 7.47417 -0.779113 29.742 7.47417 -0.779113
140 2 31.5001 7.50414 1.01422 31.5001 7.50414 1.01422
141 2 31.8811 7.39753 -2.28114 31.8811 7.39753 -2.28114
142 1 32.5269 9.16767 -0.658545 32.5269 9.16767 -0.658545
143 2 34.3188 9.11166 1.12266 34.3188 9.11166 1.12266
144 2 34.6189 9.34804 -2.151 34.6189 9.34804 -2.151
145 1 35.3141 7.47745 -0.460602 35.3141 7.47745 -0.460602
146 2 37.0904 7.41596 1.50418 37.0904 7.41596 1.50418
147 2 37.4321 7.44577 -1.70399 37.4321 7.44577 -1.70399
148 1 38.1769 9.14118 0.0843567 38.1769 9.14118 0.0843567
149 2 39.954 8.9675 1.94955 39.954 8.9675 1.94955
150 2 40.222 9.19498 -1.3272 40.222 9.19498 -1.3272
151 1 41.0241 7.51484 0.267821 41.0241 7.51484 0.267821
152 2 42.7305 7.63341 2.06505 42.7305 7.63341 2.06505
153 2 42.983 7.51751 -1.23164 42.983 7.51751 -1.23164
154 1 43.9502 9.15506 0.510783 43.9502 9.15506 0.510783
155 2 45.7593 9.38361 2.12903 45.7593 9.38361 2.12903
156 2 45.7606 9.06893 -1.14739 45.7606 9.06893 -1.14739
157 1 46.6356 7.47882 0.735874 46.6356 7.47882 0.735874
158 2 48.4793 7.73229 2.49925 48.4793 7.73229 2.49925
159 2 48.5863 7.31696 -0.809477 48.5863 7.31696 -0.809477
160 1 49.5582 9.08785 0.823079 49.5582 9.08785 0.823079
161 2 51.4765 9.06747 2.37535 51.4765 9.06747 2.37535
162 2 51.3966 9.12644 -0.785358 51.3966 9.12644 -0.785358
163 1 1.1668 10.7169 0.743595 1.1668 10.7169 0.743595
164 2 3.31605 10.8278 2.10253 3.31605 10.8278 2.10253
165 2 2.88565 10.7815 -1.1419 2.88565 10.7815 -1.1419
166 1 4.05691 12.5071 0.380877 4.05691 12.5071 0.380877
167 2 6.03423 12.8776 1.92675 6.03423 12.8776 1.92675
168 2 5.84768 12.2465 -1.37691 5.84768 12.2465 -1.37691
169 1 6.89174 10.8905 0.372137 6.89174 10.8905 0.372137
170 2 8.86029 10.9398 2.00765 8.86029 10.9398 2.00765
171 2 8.73539 10.7565 -1.24855 8.73539 10.7565 -1.24855
172 1 9.75545 12.5355 0.23862 9.75545 12.5355 0.23862
173 2 11.7366 12.603 1.79193 11.7366 12.603 1.79193
174 2 11.5416 12.3718 -1.53286 11.5416 12.3718 -1.53286
175 1 12.5973 10.795 0.215952 12.5973 10.795 0.215952
176 2 14.5688 10.9814 1.7069 14.5688 10.9814 1.7069
177 2 14.4982 10.8231 -1.59698 14.4982 10.8231 -1.59698
178 1 15.4169 12.4979 -0.0852106 15.4169 12.4979 -0.0852106
179 2 17.419 12.5881 1.45577 17.419 12.5881 1.45577
180 2 17.2251 12.3705 -1.7851 17.2251 12.3705 -1.7851
181 1 18.4074 10.8591 -0.166525 18.4074 10.8591 -0.166525
182 2 20.3961 10.9159 1.26254 20.3961 10.9159 1.26254
183 2 20.184 10.7227 -1.93926 20.184 10.7227 -1.93926
184 1 21.1934 12.5898 -0.581406 21.1934 12.5898 -0.581406
185 2 23.0985 12.5826 1.10294 23.0985 12.5826 1.10294
186 2 23.2611 12.6748 -2.18266 23.2611 12.6748 -2.18266
187 1 23.9812 10.8859 -0.512536 23.9812 10.8859 -0.512536
188 2 25.9244 10.7641 1.0973 25.9244 10.7641 1.0973
189 2 25.7499 10.9619 -2.2197 25.7499 10.9619 -2.2197
190 1 26.7619 12.4802 -0.529512 26.7619 12.4802 -0.529512
191 2 28.6046 12.3812 1.1996 28.6046 12.3812 1.1996
192 2 28.7442 12.4787 -2.10157 28.7442 12.4787 -2.10157
193 1 29.7132 10.8575 -0.435698 29.7132 10.8575 -0.435698
194 2 31.7069 10.5791 1.07752 31.7069 10.5791 1.07752
195 2 31.5337 10.9977 -2.07783 31.5337 10.9977 -2.07783
196 1 32.5116 12.3697 -0.340803 32.5116 12.3697 -0.340803
197 2 34.4319 12.3974 1.37323 34.4319 12.3974 1.37323
198 2 34.5127 12.5 -2.02655 34.5127 12.5 -2.02655
199 1 35.5184 10.8623 -0.264841 35.5184 10.8623 -0.264841
200 2 37.0843 10.862 1.61781 37.0843 10.862 1.61781
201 2 37.5573 10.8388 -1.62537 37.5573 10.8388 -1.62537
202 1 38.3432 12.4169 0.100356 38.3432 12.4169 0.100356
203 2 40.0828 12.6742 1.86018 40.0828 12.6742 1.86018
204 2 40.3256 12.2805 -1.40247 40.3256 12.2805 -1.40247
205 1 41.0726 10.7436 0.54684 41.0726 10.7436 0.54684
206 2 43.0696 10.9411 2.00324 43.0696 10.9411 2.00324
207 2 42.9022 10.627 -1.15526 42.9022 10.627 -1.15526
208 1 43.9555 12.4937 0.193824 43.9555 12.4937 0.193824
209 2 45.849 12.4869 1.94865 45.849 12.4869 1.94865
210 2 45.8868 12.5071 -1.30406 45.8868 12.5071 -1.30406
211 1 46.7219 10.8623 0.311931 46.7219 10.8623 0.311931
212 2 48.4285 10.9842 2.21401 48.4285 10.9842 2.21401
213 2 48.8209 10.7432 -1.0234 48.8209 10.7432 -1.0234
214 1 49.6562 12.4401 0.606413 49.6562 12.4401 0.606413
215 2 51.5184 12.5542 2.24579 51.5184 12.5542 2.24579
216 2 51.571 12.306 -0.958781 51.571 12.306 -0.958781
217 1 1.09176 14.1311 0.421916 1.09176 14.1311 0.421916
218 2 3.08916 14.1813 1.94148 3.08916 14.1813 1.94148
219 2 3.00125 13.995 -1.34639 3.00125 13.995 -1.34639
220 1 3.93469 15.7488 0.0438979 3.93469 15.7488 0.0438979
221 2 6.03511 15.7918 1.4714 6.03511 15.7918 1.4714
222 2 5.65833 15.7157 -1.7799 5.65833 15.7157 -1.7799
223 1 6.89707 14.0795 -0.0942056 6.89707 14.0795 -0.0942056
224 2 8.73546 14.3458 1.648 8.73546 14.3458 1.648
225 2 9.0071 13.98 -1.65142 9.0071 13.98 -1.65142
226 1 9.75866 15.767 -0.233294 9.75866 15.767 -0.233294
227 2 11.7006 15.897 1.34382 11.7006 15.897 1.34382
228 2 11.7563 15.6359 -1.9383 11.7563 15.6359 -1.9383
229 1 12.6394 14.1153 -0.124186 12.6394 14.1153 -0.124186
230 2 14.685 14.2447 1.43139 14.685 14.2447 1.43139
231 2 14.4509 14.0512 -1.83898 14.4509 14.0512 -1.83898
232 1 15.4708 15.7608 -0.348559 15.4708 15.7608 -0.348559
233 2 17.4771 16.0332 1.18818 17.4771 16.0332 1.18818
234 2 17.2341 15.6727 -2.05217 17.2341 15.6727 -2.05217
235 1 18.3497 14.2168 -0.372332 18.3497 14.2168 -0.372332
236 2 20.3171 14.1509 1.23365 20.3171 14.1509 1.23365
237 2 20.2364 14.2513 -2.17477 20.2364 14.2513 -2.17477
238 1 21.148 15.8015 -0.451047 21.148 15.8015 -0.451047
239 2 23.1195 15.876 1.12795 23.1195 15.876 1.12795
240 2 22.946 15.6757 -2.17678 22.946 15.6757 -2.17678
241 1 24.0618 14.2216 -0.473544 24.0618 14.2216 -0.473544
242 2 25.9508 14.1429 1.15189 25.9508 14.1429 1.15189
243 2 25.8318 14.2279 -2.12552 25.8318 14.2279 -2.12552
244 1 26.9752 15.7919 -0.487711 26.9752 15.7919 -0.487711
245 2 28.7716 15.8772 1.1034 28.7716 15.8772 1.1034
246 2 28.7393 15.5181 -2.1448 28.7393 15.5181 -2.1448
247 1 29.7005 14.0454 -0.381332 29.7005 14.0454 -0.381332
248 2 31.5521 14.0621 1.33582 31.5521 14.0621 1.33582
249 2 31.613 14.12 -1.93778 31.613 14.12 -1.93778
250 1 32.5571 15.7084 -0.275459 32.5571 15.7084 -0.275459
251 2 34.4904 15.7099 1.33596 34.4904 15.7099 1.33596
252 2 34.4942 15.667 -1.95311 34.4942 15.667 -1.95311
253 1 35.4096 14.1114 -0.35047 35.4096 14.1114 -0.35047
254 2 37.2287 14.2746 1.39719 37.2287 14.2746 1.39719
255 2 37.54 13.8763 -1.71929 37.54 13.8763 -1.71929
256 1 38.3533 15.7539 -0.279759 38.3533 15.7539 -0.279759
257 2 40.1727 15.7845 1.6363 40.1727 15.7845 1.6363
258 2 40.3763 15.691 -1.69605 40.3763 15.691 -1.69605
259 1 41.2127 14.1278 -0.00275235 41.2127 14.1278 -0.00275235
260 2 42.8434 14.173 1.8189 42.8434 14.173 1.8189
261 2 43.2906 14.1849 -1.45808 43.2906 14.1849 -1.45808
262 1 44.0196 15.7733 0.378501 44.0196 15.7733 0.378501
263 2 45.8939 15.7161 2.01157 45.8939 15.7161 2.01157
264 2 45.9928 15.8421 -1.21189 45.9928 15.8421 -1.21189
265 1 46.8672 14.1525 0.326428 46.8672 14.1525 0.326428
266 2 48.6894 14.163 2.07765 48.6894 14.163 2.07765
267 2 48.7979 13.9174 -1.15094 48.7979 13.9174 -1.15094
268 1 49.7076 15.743 0.362002 49.7076 15.743 0.362002
269 2 51.4797 15.7143 2.02978 51.4797 15.7143 2.02978
270 2 51.6164 15.6337 -1.31181 51.6164 15.6337 -1.31181
271 1 1.21215 17.3978 0.282894 1.21215 17.3978 0.282894
272 2 3.12869 17.3121 1.76412 3.12869 17.3121 1.76412
273 2 3.0846 17.5256 -1.43171 3.0846 17.5256 -1.43171
274 1 4.04633 19.0444 0.197525 4.04633 19.0444 0.197525
275 2 6.23703 18.9777 1.49048 6.23703 18.9777 1.49048
276 2 5.60546 19.1241 -1.76509 5.60546 19.1241 -1.76509
277 1 6.86011 17.4346 -0.351793 6.86011 17.4346 -0.351793
278 2 9.01852 17.6744 1.2266 9.01852 17.6744 1.2266
279 2 8.77656 17.1118 -2.02206 8.77656 17.1118 -2.02206
280 1 9.88453 19.0493 -0.653292 9.88453 19.0493 -0.653292
281 2 11.8203 19.2562 0.978013 11.8203 19.2562 0.978013
282 2 11.7331 18.8406 -2.36159 11.7331 18.8406 -2.36159
283 1 12.6504 17.3576 -0.453971 12.6504 17.3576 -0.453971
284 2 14.5797 17.4837 1.21663 14.5797 17.4837 1.21663
285 2 14.5463 17.2956 -2.08668 14.5463 17.2956 -2.08668
286 1 15.4447 19.0431 -0.559004 15.4447 19.0431 -0.559004
287 2 17.2484 19.0459 1.00375 17.2484 19.0459 1.00375
288 2 17.295 19.2607 -2.22861 17.295 19.2607 -2.22861
289 1 18.2993 17.5263 -0.592931 18.2993 17.5263 -0.592931
290 2 20.2906 17.689 1.01075 20.2906 17.689 1.01075
291 2 20.0962 17.3142 -2.22964 20.0962 17.3142 -2.22964
292 1 21.1864 19.0683 -0.83753 21.1864 19.0683 -0.83753
293 2 23.0641 19.0232 0.924254 23.0641 19.0232 0.924254
294 2 23.1696 19.0243 -2.36004 23.1696 19.0243 -2.36004
295 1 24.0887 17.4645 -0.644808 24.0887 17.4645 -0.644808
296 2 25.9693 17.5491 1.09684 25.9693 17.5491 1.09684
297 2 25.9742 17.4479 -2.25059 25.9742 17.4479 -2.25059
298 1 26.8902 19.1339 -0.605678 26.8902 19.1339 -0.605678
299 2 28.8439 19.0569 1.04905 28.8439 19.0569 1.04905
300 2 28.8061 19.0392 -2.26495 28.8061 19.0392 -2.26495
301 1 29.7128 17.3899 -0.63926 29.7128 17.3899 -0.63926
302 2 31.4232 17.5237 1.1753 31.4232 17.5237 1.1753
303 2 31.6599 17.2394 -1.99327 31.6599 17.2394 -1.99327
304 1 32.5116 19.008 -0.465919 32.5116 19.008 -0.465919
305 2 34.4475 18.9045 1.25074 34.4475 18.9045 1.25074
306 2 34.3956 19.0773 -1.99782 34.3956 19.0773 -1.99782
307 1 35.4161 17.31 -0.373591 35.4161 17.31 -0.373591
308 2 37.2398 17.3265 1.32294 37.2398 17.3265 1.32294
309 2 37.4573 17.3445 -1.93077 37.4573 17.3445 -1.93077
310 1 38.2497 19.0399 -0.180462 38.2497 19.0399 -0.180462
311 2 39.8794 18.986 1.54883 39.8794 18.986 1.54883
312 2 40.1758 18.9164 -1.74472 40.1758 18.9164 -1.74472
313 1 41.1525 17.3142 -0.0538863 41.1525 17.3142 -0.0538863
314 2 42.8 17.2228 1.913 42.8 17.2228 1.913
315 2 43.3203 17.4587 -1.30731 43.3203 17.4587 -1.30731
316 1 43.9558 19.0517 0.495102 43.9558 19.0517 0.495102
317 2 45.9012 19.1671 1.96099 45.9012 19.1671 1.96099
318 2 45.754 19.0889 -1.24337 45.754 19.0889 -1.24337
319 1 46.8465 17.4484 0.424717 46.8465 17.4484 0.424717
320 2 48.8771 17.5339 1.89576 48.8771 17.5339 1.89576
321 2 48.6747 17.342 -1.2924 48.6747 17.342 -1.2924
322 1 49.6318 19.0498 0.170285 49.6318 19.0498 0.170285
323 2 51.5128 19.1353 1.82959 51.5128 19.1353 1.82959
324 2 51.5755 18.9008 -1.44933 51.5755 18.9008 -1.44933
325 1 1.1458 20.7517 0.0918 1.1458 20.7517 0.0918
326 2 3.13101 20.8277 1.77525 3.13101 20.8277 1.77525
327 2 2.99839 20.5912 -1.57697 2.99839 20.5912 -1.57697
328 1 3.98655 22.3307 -0.0266666 3.98655 22.3307 -0.0266666
329 2 6.11867 22.3379 1.37751 6.11867 22.3379 1.37751
330 2 5.63002 22.271 -1.91794 5.63002 22.271 -1.91794
331 1 6.91549 20.7282 -0.21303 6.91549 20.7282 -0.21303
332 2 8.99699 20.6475 1.16762 8.99699 20.6475 1.16762
333 2 8.55822 20.6183 -2.09476 8.55822 20.6183 -2.09476
334 1 9.75118 22.2888 -0.654694 9.75118 22.2888 -0.654694
335 2 11.8099 22.4007 0.819982 11.8099 22.4007 0.819982
336 2 11.47 22.4356 -2.44225 11.47 22.4356 -2.44225
337 1 12.6671 20.6446 -0.900615 12.6671 20.6446 -0.900615
338 2 14.4924 20.7421 0.863273 14.4924 20.7421 0.863273
339 2 14.6838 20.6708 -2.24807 14.6838 20.6708 -2.24807
340 1 15.3689 22.3874 -0.609105 15.3689 22.3874 -0.609105
341 2 17.4103 22.333 0.947205 17.4103 22.333 0.947205
342 2 17.2562 22.3362 -2.20248 17.2562 22.3362 -2.20248
343 1 18.2873 20.7362 -0.544385 18.2873 20.7362 -0.544385
344 2 20.308 20.795 0.861813 20.308 20.795 0.861813
345 2 19.9894 20.7502 -2.38687 19.9894 20.7502 -2.38687
346 1 21.1311 22.3339 -0.813895 21.1311 22.3339 -0.813895
347 2 22.9833 22.371 0.91657 22.9833 22.371 0.91657
348 2 23.109 22.3192 -2.36132 23.109 22.3192 -2.36132
349 1 24.0483 20.72 -0.641408 24.0483 20.72 -0.641408
350 2 25.9074 20.8729 1.04327 25.9074 20.8729 1.04327
351 2 25.8507 20.6506 -2.24114 25.8507 20.6506 -2.24114
352 1 26.868 22.4128 -0.654864 26.868 22.4128 -0.654864
353 2 28.7215 22.3372 1.10317 28.7215 22.3372 1.10317
354 2 28.8468 22.3355 -2.22254 28.8468 22.3355 -2.22254
355 1 29.6998 20.6879 -0.647513 29.6998 20.6879 -0.647513
356 2 31.4596 20.8094 1.11387 31.4596 20.8094 1.11387
357 2 31.7257 20.7392 -2.10668 31.7257 20.7392 -2.10668
358 1 32.6017 22.358 -0.347581 32.6017 22.358 -0.347581
359 2 34.4357 22.2052 1.40799 34.4357 22.2052 1.40799
360 2 34.6112 22.4926 -1.84711 34.6112 22.4926 -1.84711
361 1 35.3641 20.6251 -0.317762 35.3641 20.6251 -0.317762
362 2 37.1242 20.6539 1.41057 37.1242 20.6539 1.41057
363 2 37.483 20.7225 -1.87325 37.483 20.7225 -1.87325
364 1 38.225 22.3712 -0.122414 38.225 22.3712 -0.122414
365 2 40.0215 22.2421 1.65973 40.0215 22.2421 1.65973
366 2 40.2307 22.452 -1.6477 40.2307 22.452 -1.6477
367 1 41.0574 20.647 0.0310915 41.0574 20.647 0.0310915
368 2 42.7452 20.8879 1.91751 42.7452 20.8879 1.91751
369 2 43.1513 20.6438 -1.40264 43.1513 20.6438 -1.40264
370 1 43.8541 22.3766 0.280437 43.8541 22.3766 0.280437
371 2 45.8483 22.5587 1.82767 45.8483 22.5587 1.82767
372 2 45.6904 22.2791 -1.49816 45.6904 22.2791 -1.49816
373 1 46.7954 20.7329 0.309691 46.7954 20.7329 0.309691
374 2 48.7674 20.657 1.74674 48.7674 20.657 1.74674
375 2 48.5791 20.597 -1.47064 48.5791 20.597 -1.47064
376 1 49.6079 22.2921 0.059775 49.6079 22.2921 0.059775
377 2 51.4212 22.2834 1.76574 51.4212 22.2834 1.76574
378 2 51.4278 22.441 -1.54437 51.4278 22.441 -1.54437
379 1 1.11855 24.0033 0.192285 1.11855 24.0033 0.192285
380 2 3.28596 24.0034 1.56157 3.28596 24.0034 1.56157
381 2 2.90576 23.8713 -1.66556 2.90576 23.8713 -1.66556
382 1 4.0262 25.5567 -0.156013 4.0262 25.5567 -0.156013
383 2 6.0562 25.5918 1.22805 6.0562 25.5918 1.22805
384 2 5.74225 25.5965 -2.01561 5.74225 25.5965 -2.01561
385 1 6.86082 23.9975 -0.466406 6.86082 23.9975 -0.466406
386 2 8.87907 23.9549 1.08272 8.87907 23.9549 1.08272
387 2 8.65685 23.9422 -2.14029 8.65685 23.9422 -2.14029
388 1 9.69188 25.617 -0.605869 9.69188 25.617 -0.605869
389 2 11.6917 25.6488 0.98623 11.6917 25.6488 0.98623
390 2 11.436 25.7331 -2.35388 11.436 25.7331 -2.35388
391 1 12.4952 24.0384 -0.848304 12.4952 24.0384 -0.848304
392 2 14.3206 24.2351 0.845682 14.3206 24.2351 0.845682
393 2 14.4848 23.9933 -2.39087 14.4848 23.9933 -2.39087
394 1 15.4809 25.6624 -0.821438 15.4809 25.6624 -0.821438
395 2 17.2205 25.6777 0.865574 17.2205 25.6777 0.865574
396 2 17.3293 25.4453 -2.54083 17.3293 25.4453 -2.54083
397 1 18.2177 24.0012 -0.731287 18.2177 24.0012 -0.731287
398 2 20.1929 24.0742 0.76471 20.1929 24.0742 0.76471
399 2 20.0581 23.8929 -2.46428 20.0581 23.8929 -2.46428
400 1 21.1061 25.6619 -0.958411 21.1061 25.6619 -0.958411
401 2 22.9503 25.7215 0.773362 22.9503 25.7215 0.773362
402 2 23.0622 25.5561 -2.456 23.0622 25.5561 -2.456
403 1 23.9356 24.0024 -0.69587 23.9356 24.0024 -0.69587
404 2 25.9549 24.1123 0.99495 25.9549 24.1123 0.99495
405 2 25.7856 24.0089 -2.32279 25.7856 24.0089 -2.32279
406 1 26.8498 25.6401 -0.69154 26.8498 25.6401 -0.69154
407 2 28.6623 25.6949 1.04914 28.6623 25.6949 1.04914
408 2 28.9237 25.5586 -2.19009 28.9237 25.5586 -2.19009
409 1 29.8438 24.0591 -0.487546 29.8438 24.0591 -0.487546
410 2 31.6524 24.0328 1.24904 31.6524 24.0328 1.24904
411 2 31.7267 24.0413 -2.00933 31.7267 24.0413 -2.00933
412 1 32.5506 25.6474 -0.32849 32.5506 25.6474 -0.32849
413 2 34.2526 25.6963 1.41485 34.2526 25.6963 1.41485
414 2 34.7618 25.6043 -1.75548 34.7618 25.6043 -1.75548
415 1 35.4384 23.9908 -0.057672 35.4384 23.9908 -0.057672
416 2 37.3691 24.0494 1.53165 37.3691 24.0494 1.53165
417 2 37.3989 24.1556 -1.70681 37.3989 24.1556 -1.70681
418 1 38.2962 25.7623 -0.0463157 38.2962 25.7623 -0.0463157
419 2 40.0933 25.7641 1.67828 40.0933 25.7641 1.67828
420 2 40.2487 25.5365 -1.59506 40.2487 25.5365 -1.59506
421 1 41.1182 23.981 0.175583 41.1182 23.981 0.175583
422 2 43.0632 24.283 1.69025 43.0632 24.283 1.69025
423 2 42.9719 23.8851 -1.46619 42.9719 23.8851 -1.46619
424 1 43.9668 25.6801 -0.0352864 43.9668 25.6801 -0.0352864
425 2 45.8681 25.7927 1.56627 45.8681 25.7927 1.56627
426 2 45.7682 25.5869 -1.78777 45.7682 25.5869 -1.78777
427 1 46.7384 24.0315 -0.012823 46.7384 24.0315 -0.012823
428 2 48.6774 23.9953 1.67065 48.6774 23.9953 1.67065
429 2 48.6559 24.0499 -1.53536 48.6559 24.0499 -1.53536
430 1 49.6287 25.5821 0.0891334 49.6287 25.5821 0.0891334
431 2 51.5545 25.7207 1.70955 51.5545 25.7207 1.70955
432 2 51.429 25.4456 -1.5926 51.429 25.4456 -1.5926
433 1 1.15562 27.196 -0.0452538 1.15562 27.196 -0.0452538
434 2 3.15538 27.3046 1.46128 3.15538 27.3046 1.46128
435 2 3.01632 27.0948 -1.83742 3.01632 27.0948 -1.83742
436 1 4.04333 28.9053 -0.354788 4.04333 28.9053 -0.354788
437 2 5.96471 28.8887 1.14088 5.96471 28.8887 1.14088
438 2 5.89512 28.7807 -2.07969 5.89512 28.7807 -2.07969
439 1 6.89106 27.299 -0.397377 6.89106 27.299 -0.397377
440 2 8.97224 27.2723 1.01146 8.97224 27.2723 1.01146
441 2 8.66961 27.2578 -2.14895 8.66961 27.2578 -2.14895
442 1 9.76229 28.9003 -0.627229 9.76229 28.9003 -0.627229
443 2 11.5569 28.924 0.954493 11.5569 28.924 0.954493
444 2 11.6943 28.9638 -2.26191 11.6943 28.9638 -2.26191
445 1 12.5527 27.1893 -0.668384 12.5527 27.1893 -0.668384
446 2 14.5926 27.261 0.940316 14.5926 27.261 0.940316
447 2 14.4203 27.2563 -2.40785 14.4203 27.2563 -2.40785
448 1 15.3619 28.9386 -0.898721 15.3619 28.9386 -0.898721
449 2 17.3311 28.9043 0.719359 17.3311 28.9043 0.719359
450 2 17.3565 29.0214 -2.4636 17.3565 29.0214 -2.4636
451 1 18.2635 27.2961 -0.868752 18.2635 27.2961 -0.868752
452 2 20.1159 27.11 0.790591 20.1159 27.11 0.790591
453 2 20.1432 27.4662 -2.41089 20.1432 27.4662 -2.41089
454 1 21.0345 28.9206 -0.627046 21.0345 28.9206 -0.627046
455 2 23.0678 28.88 0.863845 23.0678 28.88 0.863845
456 2 22.9146 28.9914 -2.43541 22.9146 28.9914 -2.43541
457 1 23.9402 27.3372 -0.89506 23.9402 27.3372 -0.89506
458 2 25.873 27.3079 0.913564 25.873 27.3079 0.913564
459 2 26.0383 27.4002 -2.34319 26.0383 27.4002 -2.34319
460 1 26.8909 28.9862 -0.613832 26.8909 28.9862 -0.613832
461 2 28.7467 29.0565 0.956524 28.7467 29.0565 0.956524
462 2 28.8153 28.9922 -2.29617 28.8153 28.9922 -2.29617
463 1 29.6903 27.2966 -0.571744 29.6903 27.2966 -0.571744
464 2 31.4726 27.4104 1.12927 31.4726 27.4104 1.12927
465 2 31.6635 27.0612 -2.10259 31.6635 27.0612 -2.10259
466 1 32.4742 28.9385 -0.567187 32.4742 28.9385 -0.567187
467 2 34.397 29.2453 1.20153 34.397 29.2453 1.20153
468 2 34.5789 28.7445 -2.0203 34.5789 28.7445 -2.0203
469 1 35.4035 27.3096 -0.109198 35.4035 27.3096 -0.109198
470 2 37.1785 27.4881 1.49821 37.1785 27.4881 1.49821
471 2 37.351 27.3969 -1.69197 37.351 27.3969 -1.69197
472 1 38.2224 29.088 -0.085158 38.2224 29.088 -0.085158
473 2 40.227 29.0983 1.49328 40.227 29.0983 1.49328
474 2 40.1351 28.9912 -1.72044 40.1351 28.9912 -1.72044
475 1 41.0837 27.3501 -0.0289823 41.0837 27.3501 -0.0289823
476 2 43.0194 27.4938 1.48002 43.0194 27.4938 1.48002
477 2 42.9293 27.2081 -1.77013 42.9293 27.2081 -1.77013
478 1 44.0265 28.9315 -0.307636 44.0265 28.9315 -0.307636
479 2 46.0484 29.152 1.23556 46.0484 29.152 1.23556
480 2 45.8176 28.7914 -2.01181 45.8176 28.7914 -2.01181
481 1 46.8597 27.3227 -0.276684 46.8597 27.3227 -0.276684
482 2 48.6634 27.3436 1.6464 48.6634 27.3436 1.6464
483 2 48.8419 27.1519 -1.73523 48.8419 27.1519 -1.73523
484 1 49.7017 28.8527 -0.0353493 49.7017 28.8527 -0.0353493
485 2 51.7133 28.9021 1.52079 51.7133 28.9021 1.52079
486 2 51.4945 28.7553 -1.79307 51.4945 28.7553 -1.79307
487 1 1.15219 30.5278 -0.236938 1.15219 30.5278 -0.236938
488 2 3.06623 30.6729 1.29472 3.06623 30.6729 1.29472
489 2 3.08123 30.4729 -1.94608 3.08123 30.4729 -1.94608
490 1 4.02179 32.2589 -0.379532 4.02179 32.2589 -0.379532
491 2 5.91794 31.999 1.28558 5.91794 31.999 1.28558
492 2 5.90112 32.4347 -2.03845 5.90112 32.4347 -2.03845
493 1 6.86785 30.5712 -0.521256 6.86785 30.5712 -0.521256
494 2 8.91482 30.5402 1.06976 8.91482 30.5402 1.06976
495 2 8.60906 30.5533 -2.20031 8.60906 30.5533 -2.20031
496 1 9.6361 32.2191 -0.661208 9.6361 32.2191 -0.661208
497 2 11.4815 32.0219 1.02545 11.4815 32.0219 1.02545
498 2 11.7203 32.3504 -2.17213 11.7203 32.3504 -2.17213
499 1 12.5866 30.551 -0.674709 12.5866 30.551 -0.674709
500 2 14.5569 30.5495 0.830005 14.5569 30.5495 0.830005
501 2 14.5052 30.5584 -2.50356 14.5052 30.5584 -2.50356
502 1 15.3853 32.1938 -0.850877 15.3853 32.1938 -0.850877
503 2 17.1986 32.1257 0.805477 17.1986 32.1257 0.805477
504 2 17.2513 32.1864 -2.47233 17.2513 32.1864 -2.47233
505 1 18.2779 30.6071 -0.813695 18.2779 30.6071 -0.813695
506 2 20.07 30.7491 0.848435 20.07 30.7491 0.848435
507 2 20.1267 30.5914 -2.35524 20.1267 30.5914 -2.35524
508 1 21.1645 32.3002 -0.78011 21.1645 32.3002 -0.78011
509 2 22.9667 32.2148 0.837897 22.9667 32.2148 0.837897
510 2 23.0155 32.2713 -2.42984 23.0155 32.2713 -2.42984
511 1 23.9517 30.6224 -0.777443 23.9517 30.6224 -0.777443
512 2 25.9475 30.682 0.844607 25.9475 30.682 0.844607
513 2 25.8645 30.492 -2.27711 25.8645 30.492 -2.27711
514 1 26.8759 32.3325 -0.839119 26.8759 32.3325 -0.839119
515 2 28.793 32.4578 0.779314 28.793 32.4578 0.779314
516 2 28.8577 32.3905 -2.46237 28.8577 32.3905 -2.46237
517 1 29.6475 30.6703 -0.783126 29.6475 30.6703 -0.783126
518 2 31.4626 30.7108 0.886475 31.4626 30.7108 0.886475
519 2 31.7022 30.6272 -2.27787 31.7022 30.6272 -2.27787
520 1 32.4658 32.3129 -0.708138 32.4658 32.3129 -0.708138
521 2 34.2049 32.4032 0.987048 34.2049 32.4032 0.987048
522 2 34.4054 32.3434 -2.23525 34.4054 32.3434 -2.23525
523 1 35.3659 30.6317 -0.576558 35.3659 30.6317 -0.576558
524 2 37.1267 30.8113 1.18593 37.1267 30.8113 1.18593
525 2 37.3988 30.4245 -2.03273 37.3988 30.4245 -2.03273
526 1 38.2434 32.219 -0.473455 38.2434 32.219 -0.473455
527 2 40.1498 32.322 1.35486 40.1498 32.322 1.35486
528 2 40.1777 32.2335 -1.90395 40.1777 32.2335 -1.90395
529 1 41.1053 30.6176 -0.190602 41.1053 30.6176 -0.190602
530 2 43.1045 30.6371 1.33561 43.1045 30.6371 1.33561
531 2 42.8686 30.5514 -2.01976 42.8686 30.5514 -2.01976
532 1 43.9315 32.2562 -0.459838 43.9315 32.2562 -0.459838
533 2 45.9026 32.2343 1.02269 45.9026 32.2343 1.02269
534 2 45.7032 32.2165 -2.21933 45.7032 32.2165 -2.21933
535 1 46.8502 30.6083 -0.576012 46.8502 30.6083 -0.576012
536 2 48.5561 30.7598 1.36249 48.5561 30.7598 1.36249
537 2 48.9898 30.3844 -1.9148 48.9898 30.3844 -1.9148
538 1 49.6559 32.2345 -0.424279 49.6559 32.2345 -0.424279
539 2 51.4694 32.2293 1.27929 51.4694 32.2293 1.27929