ITEM: TIMESTEP
43900
ITEM: NUMBER OF ATOMS
810
ITEM: BOX BOUNDS pp pp pp
8.4137701477268123e-01 5.2176227985227342e+01
8.0961581116522285e-01 5.0206599188834083e+01
-1.0000000000000000e+01 1.0000000000000000e+01
ITEM: ATOMS id type x y z xu yu zu
1 1 1.10224 0.914101 0.099426 1.10224 0.914101 0.099426
2 2 2.87104 0.709493 1.81688 2.87104 0.709493 1.81688
3 2 3.00619 1.2169 -1.45012 3.00619 1.2169 -1.45012
4 1 3.9055 2.6256 0.375528 3.9055 2.6256 0.375528
5 2 5.88501 2.36621 1.98137 5.88501 2.36621 1.98137
6 2 5.72494 2.6723 -1.34661 5.72494 2.6723 -1.34661
7 1 6.81439 0.865629 0.0671406 6.81439 0.865629 0.0671406
8 2 8.72741 0.741916 1.62992 8.72741 0.741916 1.62992
9 2 8.56267 1.03076 -1.64262 8.56267 1.03076 -1.64262
10 1 9.63906 2.54901 0.0770223 9.63906 2.54901 0.0770223
11 2 11.5389 2.414 1.66153 11.5389 2.414 1.66153
12 2 11.4077 2.72506 -1.59244 11.4077 2.72506 -1.59244
13 1 12.4575 0.956952 -0.0663675 12.4575 0.956952 -0.0663675
14 2 14.3736 0.964652 1.62018 14.3736 0.964652 1.62018
15 2 14.4276 0.931648 -1.67749 14.4276 0.931648 -1.67749
16 1 15.3576 2.56002 -0.031251 15.3576 2.56002 -0.031251
17 2 17.3822 2.61135 1.43071 17.3822 2.61135 1.43071
18 2 17.0277 2.43046 -1.79164 17.0277 2.43046 -1.79164
19 1 18.112 0.933649 -0.136088 18.112 0.933649 -0.136088
20 2 20.1697 0.896914 1.25321 20.1697 0.896914 1.25321
21 2 19.939 0.977381 -2.03212 19.939 0.977381 -2.03212
22 1 21.026 2.59998 -0.336464 21.026 2.59998 -0.336464
23 2 23.145 2.73046 1.10727 23.145 2.73046 1.10727
24 2 22.8086 2.59852 -2.13164 22.8086 2.59852 -2.13164
25 1 23.8904 1.02281 -0.564523 23.8904 1.02281 -0.564523
26 2 25.8907 0.76959 0.909715 25.8907 0.76959 0.909715
27 2 25.6328 1.01277 -2.26893 25.6328 1.01277 -2.26893
28 1 26.6943 2.61609 -0.743014 26.6943 2.61609 -0.743014
29 2 28.5225 2.52314 0.918418 28.5225 2.52314 0.918418
30 2 28.6371 2.78657 -2.37631 28.6371 2.78657 -2.37631
31 1 29.606 1.00872 -0.901382 29.606 1.00872 -0.901382
32 2 31.3115 1.00434 0.966349 31.3115 1.00434 0.966349
33 2 31.7268 1.02569 -2.20581 31.7268 1.02569 -2.20581
34 1 32.4816 2.60172 -0.441147 32.4816 2.60172 -0.441147
35 2 34.1272 2.67261 1.40713 34.1272 2.67261 1.40713
36 2 34.5226 2.69512 -1.80819 34.5226 2.69512 -1.80819
37 1 35.2063 0.993231 -0.146044 35.2063 0.993231 -0.146044
38 2 37.0425 0.85076 1.63669 37.0425 0.85076 1.63669
39 2 37.2952 1.0865 -1.61281 37.2952 1.0865 -1.61281
40 1 38.1124 2.60334 0.159859 38.1124 2.60334 0.159859
41 2 40.0985 2.46301 1.689 40.0985 2.46301 1.689
42 2 39.9798 2.79616 -1.56508 39.9798 2.79616 -1.56508
43 1 41.0387 0.991017 -0.229909 41.0387 0.991017 -0.229909
44 2 42.8521 0.738595 1.50122 42.8521 0.738595 1.50122
45 2 43.0166 1.19789 -1.75311 43.0166 1.19789 -1.75311
46 1 43.9042 2.57996 0.182719 43.9042 2.57996 0.182719
47 2 45.7308 2.41757 1.84573 45.7308 2.41757 1.84573
48 2 45.7214 2.7404 -1.51035 45.7214 2.7404 -1.51035
49 1 46.7252 1.02902 -0.0448057 46.7252 1.02902 -0.0448057
50 2 48.5699 0.901934 1.68521 48.5699 0.901934 1.68521
51 2 48.697 1.10475 -1.57965 48.697 1.10475 -1.57965
52 1 49.5964 2.66797 0.194315 49.5964 2.66797 0.194315
53 2 51.5977 2.4977 1.73245 51.5977 2.4977 1.73245
54 2 51.611 2.77966 -1.4049 51.611 2.77966 -1.4049
55 1 1.15354 4.33918 0.337447 1.15354 4.33918 0.337447
56 2 2.85925 4.14966 2.06322 2.85925 4.14966 2.06322
57 2 3.09048 4.42945 -1.19851 3.09048 4.42945 -1.19851
58 1 3.92852 5.94391 0.675149 3.92852 5.94391 0.675149
59 2 5.99853 5.87553 2.14742 5.99853 5.87553 2.14742
60 2 5.83287 5.95234 -1.03119 5.83287 5.95234 -1.03119
61 1 6.74865 4.2122 0.489942 6.74865 4.2122 0.489942
62 2 8.90597 4.06945 1.88744 8.90597 4.06945 1.88744
63 2 8.50489 4.43987 -1.29545 8.50489 4.43987 -1.29545
64 1 9.61852 5.90117 0.347398 9.61852 5.90117 0.347398
65 2 11.6639 5.76866 1.95086 11.6639 5.76866 1.95086
66 2 11.4518 5.9265 -1.32447 11.4518 5.9265 -1.32447
67 1 12.4519 4.20079 0.118146 12.4519 4.20079 0.118146
68 2 14.4926 4.3774 1.58506 14.4926 4.3774 1.58506
69 2 14.2121 4.09439 -1.70094 14.2121 4.09439 -1.70094
70 1 15.2933 5.8418 -0.276948 15.2933 5.8418 -0.276948
71 2 17.2465 5.95883 1.25046 17.2465 5.95883 1.25046
72 2 17.03 5.84753 -1.97436 17.03 5.84753 -1.97436
73 1 18.119 4.26184 -0.371332 18.119 4.26184 -0.371332
74 2 19.9801 4.20752 1.31495 19.9801 4.20752 1.31495
75 2 20.0943 4.30475 -1.95884 20.0943 4.30475 -1.95884
76 1 20.9347 5.86653 -0.289252 20.9347 5.86653 -0.289252
77 2 23.108 5.83666 1.18174 23.108 5.83666 1.18174
78 2 22.6215 5.95099 -2.15233 22.6215 5.95099 -2.15233
79 1 23.8521 4.35279 -0.667051 23.8521 4.35279 -0.667051
80 2 25.7036 4.16635 0.970024 25.7036 4.16635 0.970024
81 2 25.7256 4.40036 -2.29872 25.7256 4.40036 -2.29872
82 1 26.7703 5.90759 -0.520612 26.7703 5.90759 -0.520612
83 2 28.6597 5.82745 1.10386 28.6597 5.82745 1.10386
84 2 28.6301 5.9764 -2.12462 28.6301 5.9764 -2.12462
85 1 29.5538 4.21918 -0.541637 29.5538 4.21918 -0.541637
86 2 31.3181 3.97124 1.23297 31.3181 3.97124 1.23297
87 2 31.7474 4.39443 -1.88932 31.7474 4.39443 -1.88932
88 1 32.2564 5.94878 -0.109734 32.2564 5.94878 -0.109734
89 2 34.2162 6.0478 1.43681 34.2162 6.0478 1.43681
90 2 34.2582 5.81924 -1.81534 34.2582 5.81924 -1.81534
91 1 35.2435 4.31623 -0.071986 35.2435 4.31623 -0.071986
92 2 37.0939 4.42676 1.59212 37.0939 4.42676 1.59212
93 2 37.1601 4.12462 -1.62838 37.1601 4.12462 -1.62838
94 1 38.1098 5.96558 -0.113532 38.1098 5.96558 -0.113532
95 2 39.9353 5.91825 1.60708 39.9353 5.91825 1.60708
96 2 40.2529 5.95405 -1.53089 40.2529 5.95405 -1.53089
97 1 41.005 4.22635 0.11885 41.005 4.22635 0.11885
98 2 42.7368 4.09404 1.88309 42.7368 4.09404 1.88309
99 2 43.1341 4.34284 -1.38997 43.1341 4.34284 -1.38997
100 1 43.6871 5.93894 0.429074 43.6871 5.93894 0.429074
101 2 45.6228 5.82301 2.06097 45.6228 5.82301 2.06097
102 2 45.6505 6.03619 -1.19595 45.6505 6.03619 -1.19595
103 1 46.6561 4.23935 0.40126 46.6561 4.23935 0.40126
104 2 48.5384 4.13335 1.9886 48.5384 4.13335 1.9886
105 2 48.6086 4.52148 -1.19456 48.6086 4.52148 -1.19456
106 1 49.5274 5.9452 0.575347 49.5274 5.9452 0.575347
107 2 51.4206 5.66092 2.18041 51.4206 5.66092 2.18041
108 2 51.524 6.28605 -0.927665 51.524 6.28605 -0.927665
109 1 1.0975 7.7043 0.962733 1.0975 7.7043 0.962733
110 2 3.0431 7.68017 2.46991 3.0431 7.68017 2.46991
111 2 2.94477 7.61647 -0.739331 2.94477 7.61647 -0.739331
112 1 3.95052 9.23674 0.79757 3.95052 9.23674 0.79757
113 2 5.88455 9.18807 2.29177 5.88455 9.18807 2.29177
114 2 5.81665 9.34109 -0.902737 5.81665 9.34109 -0.902737
115 1 6.85393 7.53654 0.540053 6.85393 7.53654 0.540053
116 2 8.69368 7.47041 2.14958 8.69368 7.47041 2.14958
117 2 8.62781 7.5431 -1.18521 8.62781 7.5431 -1.18521
118 1 9.66385 9.232 0.475161 9.66385 9.232 0.475161
119 2 11.7005 9.35044 1.81414 11.7005 9.35044 1.81414
120 2 11.3158 9.02108 -1.31103 11.3158 9.02108 -1.31103
121 1 12.459 7.49884 0.311792 12.459 7.49884 0.311792
122 2 14.6294 7.59668 1.50019 14.6294 7.59668 1.50019
123 2 14.0363 7.48036 -1.75841 14.0363 7.48036 -1.75841
124 1 15.2041 9.20342 -0.364841 15.2041 9.20342 -0.364841
125 2 17.2699 9.25011 1.12118 17.2699 9.25011 1.12118
126 2 17.1026 9.10759 -2.06697 17.1026 9.10759 -2.06697
127 1 18.0598 7.48758 -0.442198 18.0598 7.48758 -0.442198
128 2 19.9519 7.68364 1.14175 19.9519 7.68364 1.14175
129 2 19.9603 7.3924 -2.05507 19.9603 7.3924 -2.05507
130 1 20.9222 9.14961 -0.734237 20.9222 9.14961 -0.734237
131 2 22.8998 9.20873 1.03417 22.8998 9.20873 1.03417
132 2 22.9562 9.12039 -2.30895 22.9562 9.12039 -2.30895
133 1 23.8976 7.57155 -0.550577 23.8976 7.57155 -0.550577
134 2 25.818 7.55479 1.07982 25.818 7.55479 1.07982
135 2 25.7512 7.51368 -2.20447 25.7512 7.51368 -2.20447
136 1 26.7508 9.17288 -0.673452 26.7508 9.17288 -0.673452
137 2 28.5254 9.19059 1.04557 28.5254 9.19059 1.04557
138 2 28.7994 9.45197 -2.16811 28.7994 9.45197 -2.16811
139 1 29.5907 7.65273 -0.518006 29.5907 7.65273 -0.518006
140 2 31.2398 7.79493 1.30052 31.2398 7.79493 1.30052
141 2 31.6434 7.52883 -1.90877 31.6434 7.52883 -1.90877
142 1 32.4267 9.25154 -0.270808 32.4267 9.25154 -0.270808
143 2 34.3098 9.22631 1.48642 34.3098 9.22631 1.48642
144 2 34.251 9.37203 -1.80184 34.251 9.37203 -1.80184
145 1 35.2049 7.60338 -0.252087 35.2049 7.60338 -0.252087
146 2 37.0467 7.59444 1.41254 37.0467 7.59444 1.41254
147 2 37.1048 7.52049 -1.83384 37.1048 7.52049 -1.83384
148 1 38.0214 9.18564 -0.164287 38.0214 9.18564 -0.164287
149 2 39.8251 9.29888 1.65963 39.8251 9.29888 1.65963
150 2 40.1327 9.39538 -1.53453 40.1327 9.39538 -1.53453
151 1 41.0042 7.69657 0.0819586 41.0042 7.69657 0.0819586
152 2 42.6577 7.55984 2.01306 42.6577 7.55984 2.01306
153 2 43.0542 7.61151 -1.28183 43.0542 7.61151 -1.28183
154 1 43.8249 9.25043 0.555125 43.8249 9.25043 0.555125
155 2 45.5904 9.23065 2.31724 45.5904 9.23065 2.31724
156 2 45.847 9.35699 -0.925898 45.847 9.35699 -0.925898
157 1 46.617 7.64571 0.594791 46.617 7.64571 0.594791
158 2 48.4462 7.44028 2.28392 48.4462 7.44028 2.28392
159 2 48.5081 7.71925 -1.05142 48.5081 7.71925 -1.05142
160 1 49.4876 9.1723 0.801138 49.4876 9.1723 0.801138
161 2 51.3874 9.34874 2.55756 51.3874 9.34874 2.55756
162 2 51.4278 9.4013 -0.799405 51.4278 9.4013 -0.799405
163 1 1.03189 10.9092 0.942091 1.03189 10.9092 0.942091
164 2 3.11929 10.7921 2.48809 3.11929 10.7921 2.48809
165 2 2.93914 10.9073 -0.736942 2.93914 10.9073 -0.736942
166 1 3.93921 12.521 0.828504 3.93921 12.521 0.828504
167 2 5.95779 12.6942 2.40738 5.95779 12.6942 2.40738
168 2 5.67417 12.4544 -0.893681 5.67417 12.4544 -0.893681
169 1 6.77553 10.8968 0.777948 6.77553 10.8968 0.777948
170 2 8.83339 11.0951 2.16434 8.83339 11.0951 2.16434
171 2 8.41953 10.7536 -1.10458 8.41953 10.7536 -1.10458
172 1 9.56946 12.4473 0.298276 9.56946 12.4473 0.298276
173 2 11.7752 12.5371 1.61648 11.7752 12.5371 1.61648
174 2 11.1747 12.4046 -1.57784 11.1747 12.4046 -1.57784
175 1 12.4659 10.7857 -0.0985898 12.4659 10.7857 -0.0985898
176 2 14.6243 10.829 1.24178 14.6243 10.829 1.24178
177 2 14.1636 10.8087 -2.01338 14.1636 10.8087 -2.01338
178 1 15.3077 12.4776 -0.480375 15.3077 12.4776 -0.480375
179 2 17.3309 12.5091 1.025 17.3309 12.5091 1.025
180 2 17.1067 12.2816 -2.22415 17.1067 12.2816 -2.22415
181 1 18.1625 10.7994 -0.563654 18.1625 10.7994 -0.563654
182 2 20.2217 10.8721 1.0076 20.2217 10.8721 1.0076
183 2 19.9869 10.8855 -2.31608 19.9869 10.8855 -2.31608
184 1 20.969 12.471 -0.782694 20.969 12.471 -0.782694
185 2 22.9736 12.5645 0.955274 22.9736 12.5645 0.955274
186 2 22.8783 12.3819 -2.43065 22.8783 12.3819 -2.43065
187 1 23.8398 10.8246 -0.709635 23.8398 10.8246 -0.709635
188 2 25.7393 10.773 0.937686 25.7393 10.773 0.937686
189 2 25.7806 10.885 -2.23462 25.7806 10.885 -2.23462
190 1 26.6892 12.5456 -0.629626 26.6892 12.5456 -0.629626
191 2 28.3997 12.5636 1.25626 28.3997 12.5636 1.25626
192 2 28.7252 12.6307 -2.14381 28.7252 12.6307 -2.14381
193 1 29.5291 11.0143 -0.402036 29.5291 11.0143 -0.402036
194 2 31.3127 10.7628 1.38796 31.3127 10.7628 1.38796
195 2 31.509 10.895 -1.91373 31.509 10.895 -1.91373
196 1 32.3643 12.601 -0.110826 32.3643 12.601 -0.110826
197 2 34.1426 12.415 1.54888 34.1426 12.415 1.54888
198 2 34.2791 12.5681 -1.6035 34.2791 12.5681 -1.6035
199 1 35.2125 10.8466 -0.0783475 35.2125 10.8466 -0.0783475
200 2 37.1405 10.5608 1.70404 37.1405 10.5608 1.70404
201 2 37.1347 11.1083 -1.58822 37.1347 11.1083 -1.58822
202 1 38.0422 12.4452 0.30542 38.0422 12.4452 0.30542
203 2 39.9324 12.4554 1.9458 39.9324 12.4554 1.9458
204 2 39.8923 12.7223 -1.26851 39.8923 12.7223 -1.26851
205 1 40.9164 10.9721 0.232524 40.9164 10.9721 0.232524
206 2 42.5309 10.8837 2.15495 42.5309 10.8837 2.15495
207 2 43.0294 10.87 -1.22187 43.0294 10.87 -1.22187
208 1 43.845 12.4925 0.735772 43.845 12.4925 0.735772
209 2 45.775 12.68 2.38036 45.775 12.68 2.38036
210 2 45.7561 12.3621 -0.930397 45.7561 12.3621 -0.930397
211 1 46.7127 10.8459 0.835648 46.7127 10.8459 0.835648
212 2 48.52 10.8207 2.45808 48.52 10.8207 2.45808
213 2 48.6661 10.9558 -0.762525 48.6661 10.9558 -0.762525
214 1 49.5163 12.4656 0.86513 49.5163 12.4656 0.86513
215 2 51.3632 12.5106 2.55744 51.3632 12.5106 2.55744
216 2 51.3877 12.4226 -0.698414 51.3877 12.4226 -0.698414
217 1 0.942069 14.1555 0.823394 0.942069 14.1555 0.823394
218 2 2.97483 14.1025 2.44931 2.97483 14.1025 2.44931
219 2 2.85601 14.1276 -0.773297 2.85601 14.1276 -0.773297
220 1 3.85644 15.7744 0.712779 3.85644 15.7744 0.712779
221 2 5.80297 15.9366 2.21136 5.80297 15.9366 2.21136
222 2 5.79345 15.7436 -1.04779 5.79345 15.7436 -1.04779
223 1 6.76002 14.2147 0.635523 6.76002 14.2147 0.635523
224 2 8.92988 14.2879 1.84462 8.92988 14.2879 1.84462
225 2 8.32328 14.0414 -1.28614 8.32328 14.0414 -1.28614
226 1 9.61687 15.7823 0.0591325 9.61687 15.7823 0.0591325
227 2 11.6671 15.8371 1.41045 11.6671 15.8371 1.41045
228 2 11.3495 15.7954 -1.77577 11.3495 15.7954 -1.77577
229 1 12.4274 14.1656 -0.281911 12.4274 14.1656 -0.281911
230 2 14.5165 14.2225 1.12444 14.5165 14.2225 1.12444
231 2 14.1634 14.0417 -2.14178 14.1634 14.0417 -2.14178
232 1 15.249 15.768 -0.736081 15.249 15.768 -0.736081
233 2 17.1715 16.0045 0.763376 17.1715 16.0045 0.763376
234 2 17.1244 15.7376 -2.54737 17.1244 15.7376 -2.54737
235 1 18.1588 14.1718 -0.826812 18.1588 14.1718 -0.826812
236 2 20.0802 14.2302 0.6926 20.0802 14.2302 0.6926
237 2 19.9947 14.0433 -2.5303 19.9947 14.0433 -2.5303
238 1 20.943 15.7317 -1.02602 20.943 15.7317 -1.02602
239 2 22.8346 15.942 0.648277 22.8346 15.942 0.648277
240 2 22.9089 15.5451 -2.73568 22.9089 15.5451 -2.73568
241 1 23.8815 14.1946 -0.764861 23.8815 14.1946 -0.764861
242 2 25.6447 14.3138 0.889238 25.6447 14.3138 0.889238
243 2 25.8632 14.204 -2.29461 25.8632 14.204 -2.29461
244 1 26.6921 15.9052 -0.738686 26.6921 15.9052 -0.738686
245 2 28.2162 15.9336 1.21935 28.2162 15.9336 1.21935
246 2 28.8968 15.9976 -1.92769 28.8968 15.9976 -1.92769
247 1 29.591 14.2956 -0.210812 29.591 14.2956 -0.210812
248 2 31.4059 14.1489 1.5605 31.4059 14.1489 1.5605
249 2 31.5161 14.4088 -1.78178 31.5161 14.4088 -1.78178
250 1 32.5326 15.907 0.0378475 32.5326 15.907 0.0378475
251 2 34.3631 15.8598 1.74997 34.3631 15.8598 1.74997
252 2 34.3696 15.8628 -1.58764 34.3696 15.8628 -1.58764
253 1 35.1938 14.1763 0.109708 35.1938 14.1763 0.109708
254 2 37.1239 14.1657 1.89082 37.1239 14.1657 1.89082
255 2 37.1541 14.1299 -1.40906 37.1541 14.1299 -1.40906
256 1 38.0139 15.7897 0.216341 38.0139 15.7897 0.216341
257 2 39.8386 15.861 2.05822 39.8386 15.861 2.05822
258 2 40.0087 15.9765 -1.26307 40.0087 15.9765 -1.26307
259 1 40.8424 14.1805 0.421087 40.8424 14.1805 0.421087
260 2 42.664 14.3211 2.21157 42.664 14.3211 2.21157
261 2 42.9101 14.1715 -1.07421 42.9101 14.1715 -1.07421
262 1 43.7528 15.869 0.614166 43.7528 15.869 0.614166
263 2 45.7626 15.8301 2.09958 45.7626 15.8301 2.09958
264 2 45.5314 15.6239 -1.12219 45.5314 15.6239 -1.12219
265 1 46.6493 14.1481 0.566216 46.6493 14.1481 0.566216
266 2 48.4089 14.2487 2.32653 48.4089 14.2487 2.32653
267 2 48.7134 14.1484 -0.94327 48.7134 14.1484 -0.94327
268 1 49.4956 15.8247 0.634635 49.4956 15.8247 0.634635
269 2 51.3101 15.818 2.35563 51.3101 15.818 2.35563
270 2 51.4468 15.8081 -0.878688 51.4468 15.8081 -0.878688
271 1 1.03222 17.4603 0.742644 1.03222 17.4603 0.742644
272 2 3.11613 17.6188 2.18546 3.11613 17.6188 2.18546
273 2 2.82676 17.3286 -0.988491 2.82676 17.3286 -0.988491
274 1 3.88446 19.1819 0.343001 3.88446 19.1819 0.343001
275 2 5.81218 19.172 1.97309 5.81218 19.172 1.97309
276 2 5.79155 18.9475 -1.24543 5.79155 18.9475 -1.24543
277 1 6.78844 17.4233 0.433656 6.78844 17.4233 0.433656
278 2 8.98303 17.5411 1.74764 8.98303 17.5411 1.74764
279 2 8.45932 17.4541 -1.44412 8.45932 17.4541 -1.44412
280 1 9.60478 19.1234 -0.0276669 9.60478 19.1234 -0.0276669
281 2 11.6828 19.1657 1.29425 11.6828 19.1657 1.29425
282 2 11.2608 19.0902 -1.88882 11.2608 19.0902 -1.88882
283 1 12.5008 17.4519 -0.380135 12.5008 17.4519 -0.380135
284 2 14.5748 17.5271 0.938638 14.5748 17.5271 0.938638
285 2 14.0576 17.2286 -2.35682 14.0576 17.2286 -2.35682
286 1 15.2881 19.0947 -1.01045 15.2881 19.0947 -1.01045
287 2 17.3459 19.0677 0.583748 17.3459 19.0677 0.583748
288 2 17.2114 19.1682 -2.677 17.2114 19.1682 -2.677
289 1 18.1247 17.425 -1.09957 18.1247 17.425 -1.09957
290 2 19.9067 17.3002 0.53316 19.9067 17.3002 0.53316
291 2 19.9719 17.452 -2.71415 19.9719 17.452 -2.71415
292 1 20.9396 19.0586 -0.924027 20.9396 19.0586 -0.924027
293 2 22.9094 18.9993 0.753188 22.9094 18.9993 0.753188
294 2 22.8966 19.273 -2.61397 22.8966 19.273 -2.61397
295 1 23.8094 17.4907 -1.08173 23.8094 17.4907 -1.08173
296 2 25.4099 17.3533 0.784545 25.4099 17.3533 0.784545
297 2 25.8763 17.5611 -2.34083 25.8763 17.5611 -2.34083
298 1 26.6599 19.1062 -0.504826 26.6599 19.1062 -0.504826
299 2 28.3917 19.0873 1.37604 28.3917 19.0873 1.37604
300 2 28.7704 19.1676 -1.83284 28.7704 19.1676 -1.83284
301 1 29.5876 17.552 -0.132233 29.5876 17.552 -0.132233
302 2 31.4411 17.4377 1.60934 31.4411 17.4377 1.60934
303 2 31.6625 17.6109 -1.64609 31.6625 17.6109 -1.64609
304 1 32.5069 19.1456 0.18179 32.5069 19.1456 0.18179
305 2 34.5012 19.1074 1.81609 34.5012 19.1074 1.81609
306 2 34.4061 19.1371 -1.48121 34.4061 19.1371 -1.48121
307 1 35.3026 17.495 0.0831397 35.3026 17.495 0.0831397
308 2 37.0277 17.3414 1.8856 37.0277 17.3414 1.8856
309 2 37.4049 17.5416 -1.28701 37.4049 17.5416 -1.28701
310 1 38.0478 19.1058 0.51262 38.0478 19.1058 0.51262
311 2 39.7708 19.0903 2.22202 39.7708 19.0903 2.22202
312 2 40.072 19.1808 -0.982751 40.072 19.1808 -0.982751
313 1 40.866 17.4857 0.559192 40.866 17.4857 0.559192
314 2 42.7075 17.4223 2.25699 42.7075 17.4223 2.25699
315 2 42.8065 17.5613 -1.02915 42.8065 17.5613 -1.02915
316 1 43.7688 19.1057 0.727328 43.7688 19.1057 0.727328
317 2 45.7879 18.966 2.13923 45.7879 18.966 2.13923
318 2 45.4905 19.214 -1.11738 45.4905 19.214 -1.11738
319 1 46.6208 17.4958 0.334019 46.6208 17.4958 0.334019
320 2 48.3168 17.4464 2.121 48.3168 17.4464 2.121
321 2 48.6011 17.4494 -1.04069 48.6011 17.4494 -1.04069
322 1 49.523 19.0459 0.650448 49.523 19.0459 0.650448
323 2 51.2677 19.0098 2.35635 51.2677 19.0098 2.35635
324 2 51.4839 19.0135 -0.869858 51.4839 19.0135 -0.869858
325 1 1.0406 20.7306 0.827797 1.0406 20.7306 0.827797
326 2 3.1451 20.7792 2.06484 3.1451 20.7792 2.06484
327 2 2.75812 20.8992 -1.16622 2.75812 20.8992 -1.16622
328 1 3.97497 22.4467 0.458894 3.97497 22.4467 0.458894
329 2 6.00981 22.4862 1.80607 6.00981 22.4862 1.80607
330 2 5.61412 22.2992 -1.49098 5.61412 22.2992 -1.49098
331 1 6.79525 20.6796 0.142113 6.79525 20.6796 0.142113
332 2 8.84014 20.8731 1.47424 8.84014 20.8731 1.47424
333 2 8.49876 20.5211 -1.70743 8.49876 20.5211 -1.70743
334 1 9.69264 22.3507 -0.390347 9.69264 22.3507 -0.390347
335 2 11.6373 22.5135 1.15416 11.6373 22.5135 1.15416
336 2 11.5465 22.3728 -2.1504 11.5465 22.3728 -2.1504
337 1 12.526 20.7604 -0.460245 12.526 20.7604 -0.460245
338 2 14.6591 20.6535 0.859361 14.6591 20.6535 0.859361
339 2 14.093 20.8107 -2.34288 14.093 20.8107 -2.34288
340 1 15.2449 22.4008 -0.808761 15.2449 22.4008 -0.808761
341 2 17.3824 22.3422 0.638174 17.3824 22.3422 0.638174
342 2 17.1107 22.4596 -2.552 17.1107 22.4596 -2.552
343 1 18.1802 20.738 -1.06283 18.1802 20.738 -1.06283
344 2 20.0271 20.655 0.684781 20.0271 20.655 0.684781
345 2 20.1106 20.6712 -2.5982 20.1106 20.6712 -2.5982
346 1 20.999 22.3999 -0.978792 20.999 22.3999 -0.978792
347 2 22.7684 22.4332 0.797597 22.7684 22.4332 0.797597
348 2 22.9866 22.2662 -2.45946 22.9866 22.2662 -2.45946
349 1 23.866 20.7102 -0.72941 23.866 20.7102 -0.72941
350 2 25.583 20.5945 1.10792 25.583 20.5945 1.10792
351 2 25.8714 20.8955 -2.13466 25.8714 20.8955 -2.13466
352 1 26.722 22.3496 -0.320468 26.722 22.3496 -0.320468
353 2 28.4915 22.4686 1.53366 28.4915 22.4686 1.53366
354 2 28.87 22.4883 -1.68523 28.87 22.4883 -1.68523
355 1 29.5417 20.7729 -0.0255418 29.5417 20.7729 -0.0255418
356 2 31.262 20.7574 1.79279 31.262 20.7574 1.79279
357 2 31.5695 20.9894 -1.51867 31.5695 20.9894 -1.51867
358 1 32.3796 22.4391 0.329414 32.3796 22.4391 0.329414
359 2 34.2877 22.2478 2.03151 34.2877 22.2478 2.03151
360 2 34.3169 22.6572 -1.2656 34.3169 22.6572 -1.2656
361 1 35.2579 20.7978 0.138293 35.2579 20.7978 0.138293
362 2 36.8321 20.7021 2.05931 36.8321 20.7021 2.05931
363 2 37.4199 20.8026 -1.1717 37.4199 20.8026 -1.1717
364 1 38.0778 22.3987 0.804105 38.0778 22.3987 0.804105
365 2 40.1037 22.3455 2.44385 40.1037 22.3455 2.44385
366 2 39.9865 22.4814 -0.835593 39.9865 22.4814 -0.835593
367 1 40.9617 20.6993 0.815339 40.9617 20.6993 0.815339
368 2 42.8872 20.6594 2.55569 42.8872 20.6594 2.55569
369 2 42.9541 20.893 -0.723867 42.9541 20.893 -0.723867
370 1 43.8754 22.4457 1.06858 43.8754 22.4457 1.06858
371 2 46.1186 22.504 2.38529 46.1186 22.504 2.38529
372 2 45.5176 22.2176 -0.86551 45.5176 22.2176 -0.86551
373 1 46.6827 20.6816 0.692392 46.6827 20.6816 0.692392
374 2 48.6688 20.6309 2.38693 48.6688 20.6309 2.38693
375 2 48.4359 20.7312 -0.935925 48.4359 20.7312 -0.935925
376 1 49.546 22.3304 0.76223 49.546 22.3304 0.76223
377 2 51.4805 22.402 2.43106 51.4805 22.402 2.43106
378 2 51.4806 22.3566 -0.820883 51.4806 22.3566 -0.820883
379 1 1.08073 24.0396 0.648933 1.08073 24.0396 0.648933
380 2 3.1192 24.0514 2.08579 3.1192 24.0514 2.08579
381 2 2.83341 23.9166 -1.21267 2.83341 23.9166 -1.21267
382 1 3.87298 25.6547 0.306441 3.87298 25.6547 0.306441
383 2 6.06717 25.7805 1.54466 6.06717 25.7805 1.54466
384 2 5.49039 25.5385 -1.63878 5.49039 25.5385 -1.63878
385 1 6.80447 23.9935 -0.0925702 6.80447 23.9935 -0.0925702
386 2 8.94103 24.1613 1.30351 8.94103 24.1613 1.30351
387 2 8.41644 23.8079 -2.0055 8.41644 23.8079 -2.0055
388 1 9.59057 25.7201 -0.581046 9.59057 25.7201 -0.581046
389 2 11.4975 25.6783 1.0968 11.4975 25.6783 1.0968
390 2 11.5898 25.753 -2.20619 11.5898 25.753 -2.20619
391 1 12.4594 24.0363 -0.576909 12.4594 24.0363 -0.576909
392 2 14.2634 23.9139 0.991429 14.2634 23.9139 0.991429
393 2 14.2679 24.1765 -2.25129 14.2679 24.1765 -2.25129
394 1 15.3301 25.7375 -0.684003 15.3301 25.7375 -0.684003
395 2 17.403 25.8138 0.84333 17.403 25.8138 0.84333
396 2 17.0447 25.6858 -2.51035 17.0447 25.6858 -2.51035
397 1 18.1878 24.05 -0.882139 18.1878 24.05 -0.882139
398 2 20.1333 24.0177 0.723358 20.1333 24.0177 0.723358
399 2 20.0331 24.0322 -2.50277 20.0331 24.0322 -2.50277
400 1 21.0544 25.678 -0.915232 21.0544 25.678 -0.915232
401 2 22.7596 25.8066 0.835388 22.7596 25.8066 0.835388
402 2 22.9795 25.8175 -2.50328 22.9795 25.8175 -2.50328
403 1 23.8495 24.1165 -0.849378 23.8495 24.1165 -0.849378
404 2 25.5384 24.0241 1.10557 25.5384 24.0241 1.10557
405 2 26.06 23.9577 -2.10433 26.06 23.9577 -2.10433
406 1 26.7369 25.7082 -0.436451 26.7369 25.7082 -0.436451
407 2 28.3793 25.8673 1.35486 28.3793 25.8673 1.35486
408 2 28.8058 25.6765 -1.79032 28.8058 25.6765 -1.79032
409 1 29.5171 24.1265 0.0439314 29.5171 24.1265 0.0439314
410 2 31.3184 24.1222 1.81277 31.3184 24.1222 1.81277
411 2 31.6092 24.0902 -1.37483 31.6092 24.0902 -1.37483
412 1 32.3809 25.7786 0.271862 32.3809 25.7786 0.271862
413 2 34.0636 25.7846 2.07612 34.0636 25.7846 2.07612
414 2 34.4214 25.6607 -1.08495 34.4214 25.6607 -1.08495
415 1 35.1761 24.0821 0.729681 35.1761 24.0821 0.729681
416 2 37.148 24.1988 2.42789 37.148 24.1988 2.42789
417 2 37.0662 23.9591 -0.884622 37.0662 23.9591 -0.884622
418 1 38.0581 25.7279 0.612156 38.0581 25.7279 0.612156
419 2 40.0185 25.7593 2.32235 40.0185 25.7593 2.32235
420 2 40 25.5503 -1.03589 40 25.5503 -1.03589
421 1 40.9589 24.0364 0.800451 40.9589 24.0364 0.800451
422 2 42.855 24.4371 2.42467 42.855 24.4371 2.42467
423 2 42.86 23.7433 -0.840378 42.86 23.7433 -0.840378
424 1 43.8132 25.6376 0.524601 43.8132 25.6376 0.524601
425 2 45.8264 25.5981 2.08355 45.8264 25.5981 2.08355
426 2 45.8064 25.7092 -1.19181 45.8064 25.7092 -1.19181
427 1 46.7588 24.0137 0.466017 46.7588 24.0137 0.466017
428 2 48.643 24.1141 2.16517 48.643 24.1141 2.16517
429 2 48.7038 23.87 -1.12192 48.7038 23.87 -1.12192
430 1 49.6607 25.5749 0.475421 49.6607 25.5749 0.475421
431 2 51.4836 25.8268 2.09037 51.4836 25.8268 2.09037
432 2 51.3769 25.44 -1.17118 51.3769 25.44 -1.17118
433 1 1.09987 27.3125 0.347052 1.09987 27.3125 0.347052
434 2 3.12389 27.5162 1.75823 3.12389 27.5162 1.75823
435 2 2.77313 27.0205 -1.47819 2.77313 27.0205 -1.47819
436 1 3.83973 28.8529 -0.261025 3.83973 28.8529 -0.261025
437 2 5.93004 29.1019 1.1535 5.93004 29.1019 1.1535
438 2 5.78291 28.7553 -2.11602 5.78291 28.7553 -2.11602
439 1 6.69944 27.2971 -0.323454 6.69944 27.2971 -0.323454
440 2 8.78218 27.5156 1.14582 8.78218 27.5156 1.14582
441 2 8.46221 27.2804 -2.18465 8.46221 27.2804 -2.18465
442 1 9.63074 29.0142 -0.699345 9.63074 29.0142 -0.699345
443 2 11.5537 29.2235 0.955619 11.5537 29.2235 0.955619
444 2 11.5615 28.7285 -2.3809 11.5615 28.7285 -2.3809
445 1 12.433 27.394 -0.526836 12.433 27.394 -0.526836
446 2 14.4425 27.5537 0.885 14.4425 27.5537 0.885
447 2 14.1428 27.3081 -2.32439 14.1428 27.3081 -2.32439
448 1 15.2741 29.0307 -1.00052 15.2741 29.0307 -1.00052
449 2 17.122 29.1038 0.66839 17.122 29.1038 0.66839
450 2 17.1523 29.0535 -2.64513 17.1523 29.0535 -2.64513
451 1 18.1521 27.4273 -0.981486 18.1521 27.4273 -0.981486
452 2 19.9894 27.2744 0.698339 19.9894 27.2744 0.698339
453 2 20.15 27.4009 -2.54068 20.15 27.4009 -2.54068
454 1 21.0282 28.9099 -0.883437 21.0282 28.9099 -0.883437
455 2 22.9238 28.8873 0.818484 22.9238 28.8873 0.818484
456 2 22.8608 29.0909 -2.48635 22.8608 29.0909 -2.48635
457 1 23.9477 27.3188 -0.859735 23.9477 27.3188 -0.859735
458 2 25.686 27.4047 1.05496 25.686 27.4047 1.05496
459 2 26.0971 27.3878 -2.17832 26.0971 27.3878 -2.17832
460 1 26.7474 29.111 -0.521407 26.7474 29.111 -0.521407
461 2 28.569 29.0413 1.25833 28.569 29.0413 1.25833
462 2 28.6557 28.8056 -2.09717 28.6557 28.8056 -2.09717
463 1 29.6452 27.3146 -0.267841 29.6452 27.3146 -0.267841
464 2 31.2153 27.5175 1.66491 31.2153 27.5175 1.66491
465 2 31.8055 27.4131 -1.60659 31.8055 27.4131 -1.60659
466 1 32.372 29.0403 0.151761 32.372 29.0403 0.151761
467 2 34.2806 29.2104 1.98383 34.2806 29.2104 1.98383
468 2 34.5275 28.8133 -1.32059 34.5275 28.8133 -1.32059
469 1 35.2931 27.3371 0.498688 35.2931 27.3371 0.498688
470 2 37.0879 27.4757 2.14893 37.0879 27.4757 2.14893
471 2 37.0522 27.1856 -1.13093 37.0522 27.1856 -1.13093
472 1 38.0351 28.9823 0.340447 38.0351 28.9823 0.340447
473 2 39.9282 29.1987 2.02651 39.9282 29.1987 2.02651
474 2 39.9228 28.9418 -1.25094 39.9228 28.9418 -1.25094
475 1 40.9227 27.3693 0.560544 40.9227 27.3693 0.560544
476 2 42.9274 27.4772 2.09757 42.9274 27.4772 2.09757
477 2 42.6835 27.1582 -1.16541 42.6835 27.1582 -1.16541
478 1 43.8809 28.9576 0.243555 43.8809 28.9576 0.243555
479 2 45.7531 29.1047 1.90644 45.7531 29.1047 1.90644
480 2 45.7104 28.6401 -1.43718 45.7104 28.6401 -1.43718
481 1 46.7871 27.2878 0.475859 46.7871 27.2878 0.475859
482 2 48.8616 27.4236 1.91433 48.8616 27.4236 1.91433
483 2 48.5254 26.9992 -1.28396 48.5254 26.9992 -1.28396
484 1 49.5968 28.9008 0.101436 49.5968 28.9008 0.101436
485 2 51.3888 29.2867 1.72449 51.3888 29.2867 1.72449
486 2 51.5263 28.5984 -1.47505 51.5263 28.5984 -1.47505
487 1 0.966686 30.6059 -0.108829 0.966686 30.6059 -0.108829
488 2 3.02583 30.5608 1.35196 3.02583 30.5608 1.35196
489 2 2.7307 30.4565 -1.96572 2.7307 30.4565 -1.96572
490 1 3.85036 32.2024 -0.50794 3.85036 32.2024 -0.50794
491 2 5.9079 32.2457 1.03796 5.9079 32.2457 1.03796
492 2 5.72495 32.2665 -2.28276 5.72495 32.2665 -2.28276
493 1 6.72652 30.552 -0.689154 6.72652 30.552 -0.689154
494 2 8.78966 30.8241 0.776736 8.78966 30.8241 0.776736
495 2 8.44658 30.3991 -2.47547 8.44658 30.3991 -2.47547
496 1 9.60149 32.2489 -1.22802 9.60149 32.2489 -1.22802
497 2 11.4962 32.3583 0.468533 11.4962 32.3583 0.468533
498 2 11.5047 32.0953 -2.80359 11.5047 32.0953 -2.80359
499 1 12.4268 30.5992 -0.976175 12.4268 30.5992 -0.976175
500 2 14.4424 30.8531 0.469825 14.4424 30.8531 0.469825
501 2 14.22 30.5836 -2.70594 14.22 30.5836 -2.70594
502 1 15.2674 32.3477 -1.37241 15.2674 32.3477 -1.37241
503 2 16.8695 32.3211 0.520275 16.8695 32.3211 0.520275
504 2 17.3691 32.3394 -2.73802 17.3691 32.3394 -2.73802
505 1 18.164 30.6692 -0.952086 18.164 30.6692 -0.952086
506 2 20.1475 30.7588 0.595525 20.1475 30.7588 0.595525
507 2 20.0949 30.5737 -2.64872 20.0949 30.5737 -2.64872
508 1 21.0986 32.3306 -1.14963 21.0986 32.3306 -1.14963
509 2 22.7979 32.4854 0.672793 22.7979 32.4854 0.672793
510 2 23.1032 32.2951 -2.69573 23.1032 32.2951 -2.69573
511 1 23.8972 30.6046 -0.805603 23.8972 30.6046 -0.805603
512 2 25.7707 30.8965 0.862127 25.7707 30.8965 0.862127
513 2 25.8517 30.5317 -2.34477 25.8517 30.5317 -2.34477
514 1 26.7029 32.3341 -0.86793 26.7029 32.3341 -0.86793
515 2 28.4922 32.4305 0.934786 28.4922 32.4305 0.934786
516 2 28.8169 32.1752 -2.33357 28.8169 32.1752 -2.33357
517 1 29.5686 30.5984 -0.491648 29.5686 30.5984 -0.491648
518 2 31.1637 30.7561 1.43423 31.1637 30.7561 1.43423
519 2 31.7307 30.4686 -1.74735 31.7307 30.4686 -1.74735
520 1 32.4618 32.293 -0.197713 32.4618 32.293 -0.197713
521 2 34.1143 32.5045 1.61134 34.1143 32.5045 1.61134
522 2 34.4649 32.0006 -1.64184 34.4649 32.0006 -1.64184
523 1 35.3001 30.6992 0.305712 35.3001 30.6992 0.305712
524 2 37.2431 30.774 1.8133 37.2431 30.774 1.8133
525 2 37.1458 30.5058 -1.36805 37.1458 30.5058 -1.36805
526 1 38.1649 32.322 0.0854251 38.1649 32.322 0.0854251
527 2 40.0943 32.5795 1.5901 40.0943 32.5795 1.5901
528 2 39.984 32.0288 -1.61705 39.984 32.0288 -1.61705
529 1 40.924 30.6604 0.224503 40.924 30.6604 0.224503
530 2 42.8298 30.5987 1.77848 42.8298 30.5987 1.77848
531 2 42.741 30.4483 -1.52441 42.741 30.4483 -1.52441
532 1 43.7704 32.2138 -0.0919372 43.7704 32.2138 -0.0919372
533 2 45.6713 32.2568 1.61041 45.6713 32.2568 1.61041
534 2 45.7048 32.1053 -1.74561 45.7048 32.1053 -1.74561
535 1 46.6373 30.5262 0.022789 46.6373 30.5262 0.022789
536 2 48.514 30.743 1.64003 48.514 30.743 1.64003
537 2 48.6366 30.5538 -1.57995 48.6366 30.5538 -1.57995
538 1 49.4732 32.2753 -0.0852997 49.4732 32.2753 -0.0852997
539 2 51.557 32.5156 1.30346 51.557 32.5156 1.30346
540 2 51.2546 31.9866 -1.93928 51.2546 31.9866 -1.93928