ITEM: TIMESTEP
11100
ITEM: NUMBER OF ATOMS
810
ITEM: BOX BOUNDS pp pp pp
8.4137701477268123e-01 5.2176227985227342e+01
8.0961581116522285e-01 5.0206599188834083e+01
-1.0000000000000000e+01 1.0000000000000000e+01
ITEM: ATOMS id type x y z xu yu zu
1 1 52.2421 50.4615 0.36333 0.907243 1.06451 0.36333
2 2 2.84758 50.3307 1.95285 2.84758 0.933713 1.95285
3 2 2.81953 50.4451 -1.31582 2.81953 1.04815 -1.31582
4 1 3.78776 2.59228 0.365159 3.78776 2.59228 0.365159
5 2 5.55591 2.61428 2.21921 5.55591 2.61428 2.21921
6 2 5.85804 2.51027 -1.07643 5.85804 2.51027 -1.07643
7 1 6.69716 50.3634 0.673811 6.69716 0.966372 0.673811
8 2 8.67256 50.3234 2.11596 8.67256 0.926437 2.11596
9 2 8.38316 50.3367 -1.11226 8.38316 0.939761 -1.11226
10 1 9.50872 2.57207 0.380098 9.50872 2.57207 0.380098
11 2 11.4973 2.63092 1.88532 11.4973 2.63092 1.88532
12 2 11.4094 2.60471 -1.3068 11.4094 2.60471 -1.3068
13 1 12.313 50.3099 0.263638 12.313 0.912871 0.263638
14 2 14.2688 50.3538 1.76807 14.2688 0.956832 1.76807
15 2 14.1954 50.328 -1.49484 14.1954 0.930979 -1.49484
16 1 15.1839 2.56208 0.0688871 15.1839 2.56208 0.0688871
17 2 17.0516 2.72943 1.74323 17.0516 2.72943 1.74323
18 2 17.0022 2.39642 -1.58614 17.0022 2.39642 -1.58614
19 1 18.0565 50.348 0.161363 18.0565 0.951003 0.161363
20 2 20.0941 50.2487 1.67963 20.0941 0.851718 1.67963
21 2 19.808 50.3367 -1.62306 19.808 0.939669 -1.62306
22 1 20.8969 2.60309 0.0195901 20.8969 2.60309 0.0195901
23 2 22.8888 2.71589 1.58502 22.8888 2.71589 1.58502
24 2 22.7373 2.48895 -1.67384 22.7373 2.48895 -1.67384
25 1 23.683 50.3046 0.067077 23.683 0.907634 0.067077
26 2 25.8232 50.293 1.54767 25.8232 0.896029 1.54767
27 2 25.4255 50.4031 -1.78236 25.4255 1.00614 -1.78236
28 1 26.5823 2.57302 -0.211047 26.5823 2.57302 -0.211047
29 2 28.3982 2.60386 1.44639 28.3982 2.60386 1.44639
30 2 28.5057 2.76729 -1.76465 28.5057 2.76729 -1.76465
31 1 29.4643 50.4269 -0.254099 29.4643 1.02993 -0.254099
32 2 31.4572 50.2594 1.37351 31.4572 0.862455 1.37351
33 2 31.3187 50.5478 -1.82488 31.3187 1.15084 -1.82488
34 1 32.2864 2.59357 -0.169148 32.2864 2.59357 -0.169148
35 2 34.2262 2.64517 1.42109 34.2262 2.64517 1.42109
36 2 34.2263 2.53017 -1.78723 34.2263 2.53017 -1.78723
37 1 35.2501 50.3763 -0.148171 35.2501 0.979289 -0.148171
38 2 37.24 50.3175 1.35946 37.24 0.920516 1.35946
39 2 36.92 50.4682 -1.94011 36.92 1.07119 -1.94011
40 1 38.053 2.53314 -0.275473 38.053 2.53314 -0.275473
41 2 39.7072 2.62985 1.59324 39.7072 2.62985 1.59324
42 2 40.1344 2.64619 -1.72235 40.1344 2.64619 -1.72235
43 1 40.8986 50.3932 -0.0147693 40.8986 0.99626 -0.0147693
44 2 42.6791 50.4826 1.72641 42.6791 1.08566 1.72641
45 2 42.8851 50.382 -1.48511 42.8851 0.985025 -1.48511
46 1 43.8082 2.59673 0.0762553 43.8082 2.59673 0.0762553
47 2 45.6073 2.50733 1.77091 45.6073 2.50733 1.77091
48 2 45.6878 2.7505 -1.48175 45.6878 2.7505 -1.48175
49 1 46.6901 50.3891 -0.0343413 46.6901 0.992107 -0.0343413
50 2 48.3488 50.5037 1.7809 48.3488 1.10667 1.7809
51 2 48.6516 50.33 -1.52908 48.6516 0.932984 -1.52908
52 1 49.4889 2.65573 0.149763 49.4889 2.65573 0.149763
53 2 51.2773 2.72558 1.94296 51.2773 2.72558 1.94296
54 2 51.3639 2.6051 -1.40753 51.3639 2.6051 -1.40753
55 1 52.2822 4.26945 0.24468 0.947348 4.26945 0.24468
56 2 2.79423 4.29938 1.90978 2.79423 4.29938 1.90978
57 2 2.91498 4.12893 -1.36551 2.91498 4.12893 -1.36551
58 1 3.76457 5.8597 0.208823 3.76457 5.8597 0.208823
59 2 5.39096 5.78609 1.962 5.39096 5.78609 1.962
60 2 5.81565 5.82651 -1.2999 5.81565 5.82651 -1.2999
61 1 6.65676 4.2306 0.509065 6.65676 4.2306 0.509065
62 2 8.62957 4.16448 2.0829 8.62957 4.16448 2.0829
63 2 8.47356 4.34682 -1.17838 8.47356 4.34682 -1.17838
64 1 9.50022 5.96809 0.480707 9.50022 5.96809 0.480707
65 2 11.4953 5.74588 2.03517 11.4953 5.74588 2.03517
66 2 11.4113 5.9951 -1.28084 11.4113 5.9951 -1.28084
67 1 12.3601 4.27166 0.25204 12.3601 4.27166 0.25204
68 2 14.3333 4.23797 1.77857 14.3333 4.23797 1.77857
69 2 14.1638 4.19336 -1.54786 14.1638 4.19336 -1.54786
70 1 15.0861 5.90467 -0.00966994 15.0861 5.90467 -0.00966994
71 2 17.0979 5.63992 1.6085 17.0979 5.63992 1.6085
72 2 16.9488 6.04296 -1.6553 16.9488 6.04296 -1.6553
73 1 17.9654 4.2283 -0.145767 17.9654 4.2283 -0.145767
74 2 19.7938 4.23616 1.61276 19.7938 4.23616 1.61276
75 2 20.0479 4.25644 -1.64544 20.0479 4.25644 -1.64544
76 1 20.7824 5.87647 0.0273472 20.7824 5.87647 0.0273472
77 2 22.7415 5.66107 1.61784 22.7415 5.66107 1.61784
78 2 22.7545 6.05341 -1.56838 22.7545 6.05341 -1.56838
79 1 23.7719 4.1876 -0.196448 23.7719 4.1876 -0.196448
80 2 25.6346 4.21161 1.49518 25.6346 4.21161 1.49518
81 2 25.5858 4.36116 -1.88045 25.5858 4.36116 -1.88045
82 1 26.5337 5.88249 -0.170349 26.5337 5.88249 -0.170349
83 2 28.2763 5.84901 1.58986 28.2763 5.84901 1.58986
84 2 28.6037 6.02593 -1.68791 28.6037 6.02593 -1.68791
85 1 29.4348 4.31903 -0.0230052 29.4348 4.31903 -0.0230052
86 2 31.3895 4.20522 1.63228 31.3895 4.20522 1.63228
87 2 31.258 4.38804 -1.63998 31.258 4.38804 -1.63998
88 1 32.2799 5.92707 0.106074 32.2799 5.92707 0.106074
89 2 34.3459 5.73691 1.66708 34.3459 5.73691 1.66708
90 2 34.1326 6.0432 -1.67218 34.1326 6.0432 -1.67218
91 1 35.1482 4.23607 -0.217146 35.1482 4.23607 -0.217146
92 2 37.0167 4.05736 1.53594 37.0167 4.05736 1.53594
93 2 37.1044 4.32577 -1.7692 37.1044 4.32577 -1.7692
94 1 38.1253 5.79582 0.0837527 38.1253 5.79582 0.0837527
95 2 39.8046 5.68306 1.92676 39.8046 5.68306 1.92676
96 2 40.1697 6.03885 -1.41246 40.1697 6.03885 -1.41246
97 1 40.9504 4.28277 0.144571 40.9504 4.28277 0.144571
98 2 42.8642 4.22928 1.67512 42.8642 4.22928 1.67512
99 2 42.7696 4.31946 -1.49669 42.7696 4.31946 -1.49669
100 1 43.7431 5.97114 0.05297 43.7431 5.97114 0.05297
101 2 45.6902 5.94244 1.75216 45.6902 5.94244 1.75216
102 2 45.7126 5.86185 -1.44406 45.7126 5.86185 -1.44406
103 1 46.6367 4.23131 0.250884 46.6367 4.23131 0.250884
104 2 48.5318 4.20588 1.83871 48.5318 4.20588 1.83871
105 2 48.423 4.22747 -1.4352 48.423 4.22747 -1.4352
106 1 49.4157 5.91165 0.193481 49.4157 5.91165 0.193481
107 2 51.2691 5.87474 1.84809 51.2691 5.87474 1.84809
108 2 51.3236 5.84495 -1.46374 51.3236 5.84495 -1.46374
109 1 52.2678 7.48695 0.151484 0.932979 7.48695 0.151484
110 2 2.74841 7.52062 1.84752 2.74841 7.52062 1.84752
111 2 2.99271 7.58149 -1.42716 2.99271 7.58149 -1.42716
112 1 3.78379 9.19937 0.316381 3.78379 9.19937 0.316381
113 2 5.60258 9.34309 2.02757 5.60258 9.34309 2.02757
114 2 5.67589 9.03191 -1.24837 5.67589 9.03191 -1.24837
115 1 6.54596 7.49379 0.58 6.54596 7.49379 0.58
116 2 8.62252 7.58852 2.12047 8.62252 7.58852 2.12047
117 2 8.37933 7.46961 -1.13585 8.37933 7.46961 -1.13585
118 1 9.40347 9.30322 0.36588 9.40347 9.30322 0.36588
119 2 11.5655 9.4424 1.81564 11.5655 9.4424 1.81564
120 2 11.308 9.04666 -1.38076 11.308 9.04666 -1.38076
121 1 12.3353 7.59109 0.331855 12.3353 7.59109 0.331855
122 2 14.3386 7.50809 1.80174 14.3386 7.50809 1.80174
123 2 14.1141 7.64092 -1.44635 14.1141 7.64092 -1.44635
124 1 15.2282 9.24503 0.297337 15.2282 9.24503 0.297337
125 2 17.2646 9.28031 1.75418 17.2646 9.28031 1.75418
126 2 16.9931 9.09846 -1.46752 16.9931 9.09846 -1.46752
127 1 17.9979 7.45933 0.14168 17.9979 7.45933 0.14168
128 2 19.8969 7.37559 1.74972 19.8969 7.37559 1.74972
129 2 19.998 7.56206 -1.58249 19.998 7.56206 -1.58249
130 1 20.7989 9.17389 0.242579 20.7989 9.17389 0.242579
131 2 22.7187 9.04298 1.79707 22.7187 9.04298 1.79707
132 2 22.6455 9.15141 -1.43703 22.6455 9.15141 -1.43703
133 1 23.7153 7.48291 0.148973 23.7153 7.48291 0.148973
134 2 25.7241 7.37889 1.72522 25.7241 7.37889 1.72522
135 2 25.5705 7.82479 -1.4272 25.5705 7.82479 -1.4272
136 1 26.5604 9.20828 0.343756 26.5604 9.20828 0.343756
137 2 28.4933 9.0742 1.96848 28.4933 9.0742 1.96848
138 2 28.2677 9.26481 -1.32099 28.2677 9.26481 -1.32099
139 1 29.3827 7.52858 0.0951451 29.3827 7.52858 0.0951451
140 2 31.3473 7.66609 1.78483 31.3473 7.66609 1.78483
141 2 31.253 7.59391 -1.54349 31.253 7.59391 -1.54349
142 1 32.1881 9.25047 0.19202 32.1881 9.25047 0.19202
143 2 34.2403 9.02789 1.78075 34.2403 9.02789 1.78075
144 2 34.138 9.28058 -1.52052 34.138 9.28058 -1.52052
145 1 35.1814 7.52405 0.0399409 35.1814 7.52405 0.0399409
146 2 37.0562 7.26609 1.82784 37.0562 7.26609 1.82784
147 2 37.2508 7.56844 -1.44967 37.2508 7.56844 -1.44967
148 1 38.125 9.13814 0.319791 38.125 9.13814 0.319791
149 2 39.8737 9.11468 2.11981 39.8737 9.11468 2.11981
150 2 40.0622 9.22046 -1.1484 40.0622 9.22046 -1.1484
151 1 40.8951 7.49164 0.52978 40.8951 7.49164 0.52978
152 2 42.9687 7.37822 1.92618 42.9687 7.37822 1.92618
153 2 42.6489 7.79715 -1.27429 42.6489 7.79715 -1.27429
154 1 43.7663 9.23784 0.458716 43.7663 9.23784 0.458716
155 2 45.7656 9.00874 2.02168 45.7656 9.00874 2.02168
156 2 45.5463 9.29256 -1.24047 45.5463 9.29256 -1.24047
157 1 46.5816 7.56651 0.126707 46.5816 7.56651 0.126707
158 2 48.5266 7.54363 1.85727 48.5266 7.54363 1.85727
159 2 48.4364 7.527 -1.40818 48.4364 7.527 -1.40818
160 1 49.3955 9.12688 0.235518 49.3955 9.12688 0.235518
161 2 51.3566 9.13767 1.81006 51.3566 9.13767 1.81006
162 2 51.3156 9.14917 -1.42602 51.3156 9.14917 -1.42602
163 1 52.2209 10.8608 0.242225 0.886076 10.8608 0.242225
164 2 2.65424 10.9727 1.89476 2.65424 10.9727 1.89476
165 2 2.86214 10.7151 -1.4239 2.86214 10.7151 -1.4239
166 1 3.74794 12.3879 0.174208 3.74794 12.3879 0.174208
167 2 5.609 12.3887 1.84604 5.609 12.3887 1.84604
168 2 5.69794 12.5667 -1.44981 5.69794 12.5667 -1.44981
169 1 6.60976 10.7986 0.190038 6.60976 10.7986 0.190038
170 2 8.45045 11.0125 1.8989 8.45045 11.0125 1.8989
171 2 8.41337 10.717 -1.49804 8.41337 10.717 -1.49804
172 1 9.37386 12.4636 0.0169483 9.37386 12.4636 0.0169483
173 2 11.497 12.7029 1.4564 11.497 12.7029 1.4564
174 2 11.2716 12.2921 -1.77334 11.2716 12.2921 -1.77334
175 1 12.2299 10.8596 0.00848256 12.2299 10.8596 0.00848256
176 2 14.1737 11.118 1.62564 14.1737 11.118 1.62564
177 2 14.0926 10.6234 -1.56786 14.0926 10.6234 -1.56786
178 1 15.1186 12.4156 -0.366997 15.1186 12.4156 -0.366997
179 2 16.9906 12.7164 1.27915 16.9906 12.7164 1.27915
180 2 17.1203 12.2181 -1.88321 17.1203 12.2181 -1.88321
181 1 18.0568 10.8378 -0.0932722 18.0568 10.8378 -0.0932722
182 2 19.9223 11.1468 1.52015 19.9223 11.1468 1.52015
183 2 19.9994 10.7318 -1.59684 19.9994 10.7318 -1.59684
184 1 20.8466 12.5311 -0.227848 20.8466 12.5311 -0.227848
185 2 22.7708 12.6518 1.56163 22.7708 12.6518 1.56163
186 2 22.7945 12.2921 -1.74128 22.7945 12.2921 -1.74128
187 1 23.6545 10.6957 0.156216 23.6545 10.6957 0.156216
188 2 25.5381 10.9211 1.90078 25.5381 10.9211 1.90078
189 2 25.6661 10.6775 -1.36058 25.6661 10.6775 -1.36058
190 1 26.4916 12.442 0.178657 26.4916 12.442 0.178657
191 2 28.3803 12.7419 1.81572 28.3803 12.7419 1.81572
192 2 28.4073 12.2458 -1.54118 28.4073 12.2458 -1.54118
193 1 29.3208 10.84 0.372998 29.3208 10.84 0.372998
194 2 31.3305 11.0254 1.81293 31.3305 11.0254 1.81293
195 2 31.0528 10.8341 -1.41724 31.0528 10.8341 -1.41724
196 1 32.2337 12.5271 -0.0553855 32.2337 12.5271 -0.0553855
197 2 34.0644 12.5485 1.61092 34.0644 12.5485 1.61092
198 2 34.2276 12.328 -1.66278 34.2276 12.328 -1.66278
199 1 35.1517 10.8017 0.116671 35.1517 10.8017 0.116671
200 2 37.008 10.6292 1.98768 37.008 10.6292 1.98768
201 2 37.274 10.742 -1.36025 37.274 10.742 -1.36025
202 1 38.0534 12.4087 0.389005 38.0534 12.4087 0.389005
203 2 39.8609 12.5264 2.17003 39.8609 12.5264 2.17003
204 2 40.0973 12.4815 -1.12422 40.0973 12.4815 -1.12422
205 1 40.8857 10.8787 0.551588 40.8857 10.8787 0.551588
206 2 42.7371 10.6051 2.25187 42.7371 10.6051 2.25187
207 2 42.7318 10.9866 -0.969414 42.7318 10.9866 -0.969414
208 1 43.6725 12.4549 0.794969 43.6725 12.4549 0.794969
209 2 45.7007 12.4646 2.22027 45.7007 12.4646 2.22027
210 2 45.4673 12.5107 -1.08275 45.4673 12.5107 -1.08275
211 1 46.6242 10.8349 0.452632 46.6242 10.8349 0.452632
212 2 48.6279 10.8609 1.89518 48.6279 10.8609 1.89518
213 2 48.3075 10.8722 -1.27614 48.3075 10.8722 -1.27614
214 1 49.3621 12.487 0.261582 49.3621 12.487 0.261582
215 2 51.1589 12.5742 1.8539 51.1589 12.5742 1.8539
216 2 51.2508 12.5782 -1.35531 51.2508 12.5782 -1.35531
217 1 52.3172 14.1251 0.242089 0.98232 14.1251 0.242089
218 2 2.95556 14.2352 1.80146 2.95556 14.2352 1.80146
219 2 2.81494 13.9533 -1.46781 2.81494 13.9533 -1.46781
220 1 3.78639 15.7308 -0.0182062 3.78639 15.7308 -0.0182062
221 2 5.58578 15.9491 1.74954 5.58578 15.9491 1.74954
222 2 5.72973 15.6156 -1.57409 5.72973 15.6156 -1.57409
223 1 6.56322 14.1147 0.324797 6.56322 14.1147 0.324797
224 2 8.69699 14.3368 1.63921 8.69699 14.3368 1.63921
225 2 8.29493 13.9655 -1.58341 8.29493 13.9655 -1.58341
226 1 9.45338 15.7895 -0.214063 9.45338 15.7895 -0.214063
227 2 11.5931 15.7622 1.34366 11.5931 15.7622 1.34366
228 2 11.2971 15.7324 -1.97929 11.2971 15.7324 -1.97929
229 1 12.2604 14.1057 -0.400333 12.2604 14.1057 -0.400333
230 2 14.1515 14.1825 1.12899 14.1515 14.1825 1.12899
231 2 14.1401 13.9856 -2.11035 14.1401 13.9856 -2.11035
232 1 15.1607 15.7611 -0.646828 15.1607 15.7611 -0.646828
233 2 16.9047 15.7248 1.07571 16.9047 15.7248 1.07571
234 2 16.9712 15.716 -2.31051 16.9712 15.716 -2.31051
235 1 17.9701 14.1107 -0.526753 17.9701 14.1107 -0.526753
236 2 19.8224 14.421 1.25365 19.8224 14.421 1.25365
237 2 19.9314 13.9417 -2.05197 19.9314 13.9417 -2.05197
238 1 20.8364 15.7965 -0.613754 20.8364 15.7965 -0.613754
239 2 22.5041 15.913 1.21503 22.5041 15.913 1.21503
240 2 22.9492 15.6817 -2.02926 22.9492 15.6817 -2.02926
241 1 23.6869 14.1095 -0.258495 23.6869 14.1095 -0.258495
242 2 25.4673 14.1434 1.56701 25.4673 14.1434 1.56701
243 2 25.8046 13.8531 -1.67589 25.8046 13.8531 -1.67589
244 1 26.5536 15.7637 -0.135832 26.5536 15.7637 -0.135832
245 2 28.4066 15.8043 1.36132 28.4066 15.8043 1.36132
246 2 28.3805 15.549 -1.80221 28.3805 15.549 -1.80221
247 1 29.417 14.0566 -0.048033 29.417 14.0566 -0.048033
248 2 31.3804 14.0854 1.52121 31.3804 14.0854 1.52121
249 2 31.1551 13.9598 -1.85347 31.1551 13.9598 -1.85347
250 1 32.2224 15.7281 -0.304609 32.2224 15.7281 -0.304609
251 2 34.071 15.6054 1.51351 34.071 15.6054 1.51351
252 2 34.2936 15.6748 -1.80317 34.2936 15.6748 -1.80317
253 1 35.1606 14.0315 -0.132585 35.1606 14.0315 -0.132585
254 2 36.7625 14.0474 1.72797 36.7625 14.0474 1.72797
255 2 37.3746 14.0446 -1.43265 37.3746 14.0446 -1.43265
256 1 37.94 15.6879 0.197655 37.94 15.6879 0.197655
257 2 39.666 15.8731 2.03108 39.666 15.8731 2.03108
258 2 40.0031 15.5316 -1.26605 40.0031 15.5316 -1.26605
259 1 40.8261 14.1195 0.571339 40.8261 14.1195 0.571339
260 2 42.771 14.3136 2.13608 42.771 14.3136 2.13608
261 2 42.6871 13.8938 -1.01328 42.6871 13.8938 -1.01328
262 1 43.563 15.812 0.321101 43.563 15.812 0.321101
263 2 45.5706 15.8837 1.86928 45.5706 15.8837 1.86928
264 2 45.4254 15.5378 -1.38909 45.4254 15.5378 -1.38909
265 1 46.5118 14.1082 0.439683 46.5118 14.1082 0.439683
266 2 48.4257 13.9892 1.96157 48.4257 13.9892 1.96157
267 2 48.3402 14.1665 -1.26912 48.3402 14.1665 -1.26912
268 1 49.3329 15.8402 0.366676 49.3329 15.8402 0.366676
269 2 51.2545 15.8662 1.86396 51.2545 15.8662 1.86396
270 2 51.2284 15.7344 -1.34178 51.2284 15.7344 -1.34178
271 1 52.2589 17.4001 0.104829 0.92404 17.4001 0.104829
272 2 2.83813 17.3264 1.67117 2.83813 17.3264 1.67117
273 2 2.86581 17.5318 -1.52846 2.86581 17.5318 -1.52846
274 1 3.90064 19.0444 0.147182 3.90064 19.0444 0.147182
275 2 5.81177 18.8768 1.76119 5.81177 18.8768 1.76119
276 2 5.7061 19.0742 -1.56956 5.7061 19.0742 -1.56956
277 1 6.62232 17.4155 -0.105539 6.62232 17.4155 -0.105539
278 2 8.60171 17.3493 1.45475 8.60171 17.3493 1.45475
279 2 8.51795 17.4158 -1.77958 8.51795 17.4158 -1.77958
280 1 9.45653 19.0572 -0.195363 9.45653 19.0572 -0.195363
281 2 11.4436 19.0415 1.33744 11.4436 19.0415 1.33744
282 2 11.3592 19.1293 -1.88527 11.3592 19.1293 -1.88527
283 1 12.3264 17.4172 -0.442982 12.3264 17.4172 -0.442982
284 2 14.3 17.4811 1.01447 14.3 17.4811 1.01447
285 2 14.1703 17.3682 -2.2436 14.1703 17.3682 -2.2436
286 1 15.027 19.0746 -0.654579 15.027 19.0746 -0.654579
287 2 16.9886 19.2126 0.92129 16.9886 19.2126 0.92129
288 2 16.8811 19.0667 -2.33756 16.8811 19.0667 -2.33756
289 1 17.8839 17.405 -0.660086 17.8839 17.405 -0.660086
290 2 19.815 17.5155 0.996351 19.815 17.5155 0.996351
291 2 19.9466 17.3846 -2.23713 19.9466 17.3846 -2.23713
292 1 20.7825 19.1312 -0.572303 20.7825 19.1312 -0.572303
293 2 22.5332 19.2225 1.15723 22.5332 19.2225 1.15723
294 2 22.8525 19.1386 -2.06976 22.8525 19.1386 -2.06976
295 1 23.6268 17.478 -0.378341 23.6268 17.478 -0.378341
296 2 25.5155 17.6432 1.24319 25.5155 17.6432 1.24319
297 2 25.5165 17.1051 -1.99821 25.5165 17.1051 -1.99821
298 1 26.5428 18.9988 -0.613167 26.5428 18.9988 -0.613167
299 2 28.3972 19.0323 1.1395 28.3972 19.0323 1.1395
300 2 28.6833 18.8909 -2.0184 28.6833 18.8909 -2.0184
301 1 29.4497 17.3002 -0.299462 29.4497 17.3002 -0.299462
302 2 31.3849 17.4086 1.29922 31.3849 17.4086 1.29922
303 2 31.3313 17.2543 -2.03134 31.3313 17.2543 -2.03134
304 1 32.3089 19.0092 -0.47349 32.3089 19.0092 -0.47349
305 2 34.0911 18.9778 1.37758 34.0911 18.9778 1.37758
306 2 34.346 18.8722 -1.8139 34.346 18.8722 -1.8139
307 1 35.1476 17.3014 -0.091346 35.1476 17.3014 -0.091346
308 2 36.8544 17.3733 1.74819 36.8544 17.3733 1.74819
309 2 37.2433 17.4376 -1.47947 37.2433 17.4376 -1.47947
310 1 37.9995 19.0354 0.307078 37.9995 19.0354 0.307078
311 2 39.818 19.0487 1.93311 39.818 19.0487 1.93311
312 2 39.8691 19.0813 -1.2142 39.8691 19.0813 -1.2142
313 1 40.7436 17.3728 0.35675 40.7436 17.3728 0.35675
314 2 42.6963 17.5489 1.98682 42.6963 17.5489 1.98682
315 2 42.6821 17.4367 -1.3507 42.6821 17.4367 -1.3507
316 1 43.6443 19.0267 0.213112 43.6443 19.0267 0.213112
317 2 45.5863 19.1869 1.7093 45.5863 19.1869 1.7093
318 2 45.5531 18.9423 -1.5589 45.5531 18.9423 -1.5589
319 1 46.4899 17.415 0.0448969 46.4899 17.415 0.0448969
320 2 48.2777 17.5183 1.85293 48.2777 17.5183 1.85293
321 2 48.4839 17.4277 -1.36584 48.4839 17.4277 -1.36584
322 1 49.3816 19.0359 0.244637 49.3816 19.0359 0.244637
323 2 51.2288 19.0081 1.91353 51.2288 19.0081 1.91353
324 2 51.2982 19.1598 -1.37926 51.2982 19.1598 -1.37926
325 1 52.2199 20.6714 0.381587 0.885095 20.6714 0.381587
326 2 2.87754 20.6936 1.89163 2.87754 20.6936 1.89163
327 2 2.69195 20.7098 -1.33311 2.69195 20.7098 -1.33311
328 1 3.76817 22.3601 0.240441 3.76817 22.3601 0.240441
329 2 5.78105 22.3968 1.77319 5.78105 22.3968 1.77319
330 2 5.5482 22.2922 -1.54203 5.5482 22.2922 -1.54203
331 1 6.64149 20.6645 0.137217 6.64149 20.6645 0.137217
332 2 8.53772 20.6374 1.60306 8.53772 20.6374 1.60306
333 2 8.36395 20.8745 -1.61706 8.36395 20.8745 -1.61706
334 1 9.38497 22.3424 0.0316459 9.38497 22.3424 0.0316459
335 2 11.2995 22.0434 1.65093 11.2995 22.0434 1.65093
336 2 11.3035 22.5308 -1.61109 11.3035 22.5308 -1.61109
337 1 12.3397 20.7516 -0.228399 12.3397 20.7516 -0.228399
338 2 14.2845 20.5363 1.30426 14.2845 20.5363 1.30426
339 2 14.0045 20.9819 -1.97935 14.0045 20.9819 -1.97935
340 1 15.1121 22.4168 -0.216144 15.1121 22.4168 -0.216144
341 2 17.1071 22.2461 1.22727 17.1071 22.2461 1.22727
342 2 16.7575 22.7443 -2.06211 16.7575 22.7443 -2.06211
343 1 17.8439 20.793 -0.79376 17.8439 20.793 -0.79376
344 2 19.6028 20.6234 1.08787 19.6028 20.6234 1.08787
345 2 19.8375 20.8671 -2.22747 19.8375 20.8671 -2.22747
346 1 20.8539 22.2837 -0.401591 20.8539 22.2837 -0.401591
347 2 22.8296 22.421 1.11851 22.8296 22.421 1.11851
348 2 22.8138 22.4124 -2.03329 22.8138 22.4124 -2.03329
349 1 23.7034 20.7361 -0.414235 23.7034 20.7361 -0.414235
350 2 25.7126 20.7181 0.971749 25.7126 20.7181 0.971749
351 2 25.5176 20.7441 -2.13364 25.5176 20.7441 -2.13364
352 1 26.6999 22.344 -0.575329 26.6999 22.344 -0.575329
353 2 28.5307 22.4894 0.990108 28.5307 22.4894 0.990108
354 2 28.5754 22.2413 -2.25612 28.5754 22.2413 -2.25612
355 1 29.4491 20.6461 -0.487338 29.4491 20.6461 -0.487338
356 2 31.355 20.536 1.18522 31.355 20.536 1.18522
357 2 31.3864 20.6513 -2.12136 31.3864 20.6513 -2.12136
358 1 32.3229 22.2169 -0.333198 32.3229 22.2169 -0.333198
359 2 34.0291 22.1787 1.52069 34.0291 22.1787 1.52069
360 2 34.3218 22.2985 -1.77561 34.3218 22.2985 -1.77561
361 1 35.1153 20.5602 -0.132223 35.1153 20.5602 -0.132223
362 2 36.8117 20.7081 1.6952 36.8117 20.7081 1.6952
363 2 37.2076 20.5117 -1.51298 37.2076 20.5117 -1.51298
364 1 38.0022 22.3119 0.197141 38.0022 22.3119 0.197141
365 2 39.779 22.3153 1.97579 39.779 22.3153 1.97579
366 2 39.8809 22.3155 -1.33171 39.8809 22.3155 -1.33171
367 1 40.7764 20.6554 0.387819 40.7764 20.6554 0.387819
368 2 42.7737 20.7086 1.97136 42.7737 20.7086 1.97136
369 2 42.6196 20.6726 -1.29503 42.6196 20.6726 -1.29503
370 1 43.677 22.2961 0.262326 43.677 22.2961 0.262326
371 2 45.6921 22.3527 1.79032 45.6921 22.3527 1.79032
372 2 45.5401 22.4804 -1.52355 45.5401 22.4804 -1.52355
373 1 46.5876 20.6359 -0.0281407 46.5876 20.6359 -0.0281407
374 2 48.215 20.5939 1.82467 48.215 20.5939 1.82467
375 2 48.5945 20.7985 -1.42529 48.5945 20.7985 -1.42529
376 1 49.3889 22.3585 0.32887 49.3889 22.3585 0.32887
377 2 51.268 22.4286 1.92075 51.268 22.4286 1.92075
378 2 51.2772 22.3022 -1.35727 51.2772 22.3022 -1.35727
379 1 52.2737 23.9475 0.177026 0.938834 23.9475 0.177026
380 2 2.91239 24.2182 1.70699 2.91239 24.2182 1.70699
381 2 2.76041 23.9697 -1.58309 2.76041 23.9697 -1.58309
382 1 3.63577 25.6695 -0.0871319 3.63577 25.6695 -0.0871319
383 2 5.48478 25.7409 1.75024 5.48478 25.7409 1.75024
384 2 5.69463 25.577 -1.57943 5.69463 25.577 -1.57943
385 1 6.52642 23.9989 0.0820566 6.52642 23.9989 0.0820566
386 2 8.28621 23.8761 1.84873 8.28621 23.8761 1.84873
387 2 8.54257 24.0752 -1.52321 8.54257 24.0752 -1.52321
388 1 9.41961 25.542 0.370649 9.41961 25.542 0.370649
389 2 11.2786 25.4817 2.04011 11.2786 25.4817 2.04011
390 2 11.34 25.6722 -1.21598 11.34 25.6722 -1.21598
391 1 12.1984 23.9558 0.267572 12.1984 23.9558 0.267572
392 2 14.234 23.7965 1.61935 14.234 23.7965 1.61935
393 2 13.9923 24.1894 -1.60082 13.9923 24.1894 -1.60082
394 1 15.175 25.6056 0.029579 15.175 25.6056 0.029579
395 2 17.204 25.5738 1.45692 17.204 25.5738 1.45692
396 2 16.9686 25.685 -1.80174 16.9686 25.685 -1.80174
397 1 18.0617 24.0524 -0.305232 18.0617 24.0524 -0.305232
398 2 20.1031 23.921 1.24398 20.1031 23.921 1.24398
399 2 20.0414 23.8972 -2.01182 20.0414 23.8972 -2.01182
400 1 20.9542 25.5454 -0.427421 20.9542 25.5454 -0.427421
401 2 22.9765 25.5196 1.16283 22.9765 25.5196 1.16283
402 2 22.8943 25.6572 -2.17948 22.8943 25.6572 -2.17948
403 1 23.8155 24.0592 -0.578665 23.8155 24.0592 -0.578665
404 2 25.7308 24.165 1.08121 25.7308 24.165 1.08121
405 2 25.8135 23.9614 -2.16498 25.8135 23.9614 -2.16498
406 1 26.7495 25.6692 -0.533093 26.7495 25.6692 -0.533093
407 2 28.7274 25.617 0.975575 28.7274 25.617 0.975575
408 2 28.5276 25.5823 -2.2632 28.5276 25.5823 -2.2632
409 1 29.4945 23.9399 -0.729983 29.4945 23.9399 -0.729983
410 2 31.1315 23.9199 1.26359 31.1315 23.9199 1.26359
411 2 31.501 23.8034 -2.08267 31.501 23.8034 -2.08267
412 1 32.2782 25.5687 -0.368015 32.2782 25.5687 -0.368015
413 2 33.8499 25.4 1.47465 33.8499 25.4 1.47465
414 2 34.4281 25.5783 -1.70397 34.4281 25.5783 -1.70397
415 1 35.0966 23.8359 -0.0861188 35.0966 23.8359 -0.0861188
416 2 36.8432 23.7656 1.72516 36.8432 23.7656 1.72516
417 2 37.264 24.0213 -1.51452 37.264 24.0213 -1.51452
418 1 37.9861 25.5424 0.274267 37.9861 25.5424 0.274267
419 2 39.7977 25.6333 1.99738 39.7977 25.6333 1.99738
420 2 39.8311 25.5212 -1.32986 39.8311 25.5212 -1.32986
421 1 40.7853 23.9955 0.376931 40.7853 23.9955 0.376931
422 2 42.7332 24.0903 1.98788 42.7332 24.0903 1.98788
423 2 42.6397 23.8729 -1.28646 42.6397 23.8729 -1.28646
424 1 43.5969 25.6531 0.266205 43.5969 25.6531 0.266205
425 2 45.6103 25.6954 1.70987 45.6103 25.6954 1.70987
426 2 45.333 25.6584 -1.5187 45.333 25.6584 -1.5187
427 1 46.5401 24.0321 0.124501 46.5401 24.0321 0.124501
428 2 48.4333 23.9821 1.81687 48.4333 23.9821 1.81687
429 2 48.5003 24.0153 -1.32048 48.5003 24.0153 -1.32048
430 1 49.4282 25.6303 0.237456 49.4282 25.6303 0.237456
431 2 51.301 25.6106 1.77455 51.301 25.6106 1.77455
432 2 51.2521 25.5196 -1.51436 51.2521 25.5196 -1.51436
433 1 52.2134 27.2705 0.0216989 0.878523 27.2705 0.0216989
434 2 2.8212 27.326 1.61162 2.8212 27.326 1.61162
435 2 2.65465 27.3571 -1.63928 2.65465 27.3571 -1.63928
436 1 3.65407 29.0572 0.0115052 3.65407 29.0572 0.0115052
437 2 5.63245 28.9375 1.69145 5.63245 28.9375 1.69145
438 2 5.67802 28.9402 -1.59372 5.67802 28.9402 -1.59372
439 1 6.60499 27.3106 0.142381 6.60499 27.3106 0.142381
440 2 8.38597 27.2281 1.9477 8.38597 27.2281 1.9477
441 2 8.64603 27.2403 -1.32778 8.64603 27.2403 -1.32778
442 1 9.44365 28.9266 0.330301 9.44365 28.9266 0.330301
443 2 11.1978 29.0447 2.14136 11.1978 29.0447 2.14136
444 2 11.4344 28.9205 -1.12489 11.4344 28.9205 -1.12489
445 1 12.3329 27.2247 0.617253 12.3329 27.2247 0.617253
446 2 14.5122 27.3025 1.86719 14.5122 27.3025 1.86719
447 2 13.8777 27.3008 -1.32243 13.8777 27.3008 -1.32243
448 1 15.1189 28.9483 0.137915 15.1189 28.9483 0.137915
449 2 17.1274 28.9486 1.69496 17.1274 28.9486 1.69496
450 2 16.938 28.9667 -1.57905 16.938 28.9667 -1.57905
451 1 18.0052 27.2326 -0.076639 18.0052 27.2326 -0.076639
452 2 20.1373 27.2019 1.19124 20.1373 27.2019 1.19124
453 2 19.7639 27.2649 -1.9196 19.7639 27.2649 -1.9196
454 1 20.787 28.8942 -0.474584 20.787 28.8942 -0.474584
455 2 22.7912 28.9492 1.17418 22.7912 28.9492 1.17418
456 2 22.7433 28.8304 -2.10985 22.7433 28.8304 -2.10985
457 1 23.7284 27.2953 -0.49421 23.7284 27.2953 -0.49421
458 2 25.6601 27.1022 1.07591 25.6601 27.1022 1.07591
459 2 25.4839 27.328 -2.15533 25.4839 27.328 -2.15533
460 1 26.5471 28.94 -0.538489 26.5471 28.94 -0.538489
461 2 28.6124 28.9796 0.968028 28.6124 28.9796 0.968028
462 2 28.4028 28.906 -2.27938 28.4028 28.906 -2.27938
463 1 29.5721 27.2373 -0.652907 29.5721 27.2373 -0.652907
464 2 31.2165 27.3193 1.22867 31.2165 27.3193 1.22867
465 2 31.4949 27.143 -2.17877 31.4949 27.143 -2.17877
466 1 32.3152 28.896 -0.533504 32.3152 28.896 -0.533504
467 2 33.8742 28.9709 1.43296 33.8742 28.9709 1.43296
468 2 34.4556 28.759 -1.78593 34.4556 28.759 -1.78593
469 1 35.1028 27.1957 0.10956 35.1028 27.1957 0.10956
470 2 36.8873 27.1995 1.79336 36.8873 27.1995 1.79336
471 2 37.1008 27.1437 -1.39004 37.1008 27.1437 -1.39004
472 1 37.9325 28.9438 0.300156 37.9325 28.9438 0.300156
473 2 39.8668 29.0687 1.86864 39.8668 29.0687 1.86864
474 2 39.8008 28.8487 -1.34988 39.8008 28.8487 -1.34988
475 1 40.7588 27.2949 0.321267 40.7588 27.2949 0.321267
476 2 42.6259 27.5653 1.93083 42.6259 27.5653 1.93083
477 2 42.6255 27.3009 -1.40776 42.6255 27.3009 -1.40776
478 1 43.6267 28.9856 0.165414 43.6267 28.9856 0.165414
479 2 45.6312 28.9694 1.65562 45.6312 28.9694 1.65562
480 2 45.4684 28.9996 -1.59235 45.4684 28.9996 -1.59235
481 1 46.4557 27.2822 -0.0282615 46.4557 27.2822 -0.0282615
482 2 48.5148 27.4342 1.65495 48.5148 27.4342 1.65495
483 2 48.5074 27.1577 -1.5524 48.5074 27.1577 -1.5524
484 1 49.3956 28.9373 -0.0890055 49.3956 28.9373 -0.0890055
485 2 51.2697 28.919 1.60295 51.2697 28.919 1.60295
486 2 51.3608 28.9454 -1.66693 51.3608 28.9454 -1.66693
487 1 52.2943 30.653 -0.0181023 0.959442 30.653 -0.0181023
488 2 2.77259 30.6685 1.68822 2.77259 30.6685 1.68822
489 2 2.78461 30.6193 -1.6773 2.78461 30.6193 -1.6773
490 1 3.82743 32.2521 0.0275094 3.82743 32.2521 0.0275094
491 2 5.74093 32.3095 1.6496 5.74093 32.3095 1.6496
492 2 5.70872 32.1801 -1.68989 5.70872 32.1801 -1.68989
493 1 6.60491 30.6087 0.0317764 6.60491 30.6087 0.0317764
494 2 8.44503 30.598 1.87403 8.44503 30.598 1.87403
495 2 8.55912 30.5398 -1.43707 8.55912 30.5398 -1.43707
496 1 9.43808 32.2464 0.336521 9.43808 32.2464 0.336521
497 2 11.2223 32.3319 2.03997 11.2223 32.3319 2.03997
498 2 11.4251 32.2049 -1.21005 11.4251 32.2049 -1.21005
499 1 12.319 30.5845 0.538315 12.319 30.5845 0.538315
500 2 14.4788 30.6381 1.86609 14.4788 30.6381 1.86609
501 2 13.9423 30.6296 -1.30607 13.9423 30.6296 -1.30607
502 1 15.1396 32.2836 0.240746 15.1396 32.2836 0.240746
503 2 17.2498 32.3132 1.6923 17.2498 32.3132 1.6923
504 2 17.0156 32.1749 -1.58653 17.0156 32.1749 -1.58653
505 1 18.0136 30.6274 0.0201722 18.0136 30.6274 0.0201722
506 2 20.0577 30.588 1.44113 20.0577 30.588 1.44113
507 2 19.6092 30.6702 -1.84076 19.6092 30.6702 -1.84076
508 1 20.8144 32.2598 -0.286293 20.8144 32.2598 -0.286293
509 2 22.8185 31.9969 1.39369 22.8185 31.9969 1.39369
510 2 22.6509 32.4374 -1.96476 22.6509 32.4374 -1.96476
511 1 23.6153 30.554 -0.550439 23.6153 30.554 -0.550439
512 2 25.447 30.3591 1.25653 25.447 30.3591 1.25653
513 2 25.6687 30.8631 -1.99764 25.6687 30.8631 -1.99764
514 1 26.5232 32.3014 -0.215481 26.5232 32.3014 -0.215481
515 2 28.5508 32.0397 1.20105 28.5508 32.0397 1.20105
516 2 28.3128 32.3912 -2.00513 28.3128 32.3912 -2.00513
517 1 29.4166 30.5678 -0.610398 29.4166 30.5678 -0.610398
518 2 31.0893 30.3895 1.1392 31.0893 30.3895 1.1392
519 2 31.4153 30.7127 -2.07336 31.4153 30.7127 -2.07336
520 1 32.2084 32.2537 -0.164923 32.2084 32.2537 -0.164923
521 2 34.1561 32.1983 1.50834 34.1561 32.1983 1.50834
522 2 34.2078 32.1719 -1.6799 34.2078 32.1719 -1.6799
523 1 35.1007 30.5575 -0.0908215 35.1007 30.5575 -0.0908215
524 2 36.8842 30.6729 1.73166 36.8842 30.6729 1.73166
525 2 37.1258 30.407 -1.62366 37.1258 30.407 -1.62366
526 1 37.9676 32.2802 -0.0801533 37.9676 32.2802 -0.0801533
527 2 39.8994 32.0656 1.6702 39.8994 32.0656 1.6702
528 2 40.0468 32.1563 -1.67424 40.0468 32.1563 -1.67424
529 1 40.8016 30.5248 0.0896285 40.8016 30.5248 0.0896285
530 2 42.6817 30.7937 1.65893 42.6817 30.7937 1.65893
531 2 42.7152 30.3805 -1.56537 42.7152 30.3805 -1.56537
532 1 43.6537 32.2115 -0.196504 43.6537 32.2115 -0.196504
533 2 45.5214 32.3233 1.43722 45.5214 32.3233 1.43722
534 2 45.6132 32.155 -1.72849 45.6132 32.155 -1.72849
535 1 46.5596 30.5736 -0.00300937 46.5596 30.5736 -0.00300937
536 2 48.6134 30.7204 1.49901 48.6134 30.7204 1.49901
537 2 48.3658 30.6257 -1.71926 48.3658 30.6257 -1.71926
538 1 49.3912 32.2549 -0.191776 49.3912 32.2549 -0.191776
539 2 51.2128 32.342 1.59565 51.2128 32.342 1.59565
540 2 51.3958 32.2386 -1.6217 51.3958 32.2386 -1.6217