ITEM: TIMESTEP
47900
ITEM: NUMBER OF ATOMS
810
ITEM: BOX BOUNDS pp pp pp
8.4137701477268123e-01 5.2176227985227342e+01
8.0961581116522285e-01 5.0206599188834083e+01
-1.0000000000000000e+01 1.0000000000000000e+01
ITEM: ATOMS id type x y z xu yu zu
1 1 1.04628 0.951809 0.701777 1.04628 0.951809 0.701777
2 2 2.91795 1.0314 2.37926 2.91795 1.0314 2.37926
3 2 2.90326 0.984272 -0.950955 2.90326 0.984272 -0.950955
4 1 3.8153 2.72866 0.745814 3.8153 2.72866 0.745814
5 2 5.74988 2.67067 2.30943 5.74988 2.67067 2.30943
6 2 5.58142 2.82844 -0.877601 5.58142 2.82844 -0.877601
7 1 6.68835 1.03107 0.703205 6.68835 1.03107 0.703205
8 2 8.8924 50.436 1.81381 8.8924 1.03902 1.81381
9 2 8.28273 1.06865 -1.39027 8.28273 1.06865 -1.39027
10 1 9.59981 2.69331 0.0379621 9.59981 2.69331 0.0379621
11 2 11.7176 2.66903 1.44279 11.7176 2.66903 1.44279
12 2 11.2722 2.76503 -1.79981 11.2722 2.76503 -1.79981
13 1 12.4352 1.09311 -0.351633 12.4352 1.09311 -0.351633
14 2 14.3593 50.3138 1.28145 14.3593 0.916813 1.28145
15 2 14.2952 1.16381 -2.05927 14.2952 1.16381 -2.05927
16 1 15.2766 2.78485 -0.292511 15.2766 2.78485 -0.292511
17 2 17.2467 2.76056 1.21654 17.2467 2.76056 1.21654
18 2 17.1314 2.87869 -1.98421 17.1314 2.87869 -1.98421
19 1 18.1895 1.1349 -0.464979 18.1895 1.1349 -0.464979
20 2 20.3593 0.992936 0.977225 20.3593 0.992936 0.977225
21 2 20.0086 1.29196 -2.25647 20.0086 1.29196 -2.25647
22 1 21.1507 2.72731 -0.541405 21.1507 2.72731 -0.541405
23 2 23.1442 2.67296 1.06973 23.1442 2.67296 1.06973
24 2 22.9812 2.76822 -2.23412 22.9812 2.76822 -2.23412
25 1 23.9099 1.14252 -0.656761 23.9099 1.14252 -0.656761
26 2 25.8255 50.2339 0.943008 25.8255 0.836901 0.943008
27 2 25.7652 1.52787 -2.30152 25.7652 1.52787 -2.30152
28 1 26.8391 2.76242 -0.380001 26.8391 2.76242 -0.380001
29 2 28.6722 2.42102 1.25408 28.6722 2.42102 1.25408
30 2 28.7778 2.99942 -1.92774 28.7778 2.99942 -1.92774
31 1 29.7024 1.1017 -0.53487 29.7024 1.1017 -0.53487
32 2 31.593 1.03361 1.17961 31.593 1.03361 1.17961
33 2 31.5323 1.07233 -2.15062 31.5323 1.07233 -2.15062
34 1 32.5035 2.72206 -0.360653 32.5035 2.72206 -0.360653
35 2 34.2364 2.47284 1.47738 34.2364 2.47284 1.47738
36 2 34.5468 2.95677 -1.72069 34.5468 2.95677 -1.72069
37 1 35.4516 1.05709 -0.253368 35.4516 1.05709 -0.253368
38 2 37.3692 0.988734 1.33388 37.3692 0.988734 1.33388
39 2 37.3051 1.18908 -1.85239 37.3051 1.18908 -1.85239
40 1 38.2317 2.70807 -0.180876 38.2317 2.70807 -0.180876
41 2 40.07 2.70837 1.44824 40.07 2.70837 1.44824
42 2 40.1468 2.84744 -1.78352 40.1468 2.84744 -1.78352
43 1 41.1141 1.18983 -0.235045 41.1141 1.18983 -0.235045
44 2 42.8275 1.14045 1.57381 42.8275 1.14045 1.57381
45 2 43.0545 1.23013 -1.72853 43.0545 1.23013 -1.72853
46 1 43.8828 2.78808 0.151834 43.8828 2.78808 0.151834
47 2 45.7025 2.585 1.81015 45.7025 2.585 1.81015
48 2 45.7079 2.89921 -1.48742 45.7079 2.89921 -1.48742
49 1 46.7224 1.117 0.00923501 46.7224 1.117 0.00923501
50 2 48.2581 0.893152 2.02454 48.2581 0.893152 2.02454
51 2 48.8281 1.25562 -1.24257 48.8281 1.25562 -1.24257
52 1 49.4759 2.67949 0.770346 49.4759 2.67949 0.770346
53 2 51.3932 2.64622 2.27257 51.3932 2.64622 2.27257
54 2 51.32 2.64955 -0.918369 51.32 2.64955 -0.918369
55 1 0.976371 4.34101 0.722416 0.976371 4.34101 0.722416
56 2 2.78171 4.48316 2.43717 2.78171 4.48316 2.43717
57 2 2.8991 4.33089 -0.895432 2.8991 4.33089 -0.895432
58 1 3.82009 6.06305 0.691304 3.82009 6.06305 0.691304
59 2 5.81494 6.08134 2.23876 5.81494 6.08134 2.23876
60 2 5.70869 5.99495 -1.05504 5.70869 5.99495 -1.05504
61 1 6.66335 4.39505 0.572915 6.66335 4.39505 0.572915
62 2 8.7372 4.19583 1.80789 8.7372 4.19583 1.80789
63 2 8.33769 4.36458 -1.35169 8.33769 4.36458 -1.35169
64 1 9.5524 5.93633 0.0776519 9.5524 5.93633 0.0776519
65 2 11.6982 5.98521 1.46729 11.6982 5.98521 1.46729
66 2 11.2853 5.98329 -1.76538 11.2853 5.98329 -1.76538
67 1 12.4865 4.4077 -0.26604 12.4865 4.4077 -0.26604
68 2 14.3117 4.34685 1.39248 14.3117 4.34685 1.39248
69 2 14.4747 4.48204 -1.86151 14.4747 4.48204 -1.86151
70 1 15.3247 6.10603 -0.0866663 15.3247 6.10603 -0.0866663
71 2 17.3951 6.03507 1.34394 17.3951 6.03507 1.34394
72 2 16.9802 6.06472 -1.87625 16.9802 6.06472 -1.87625
73 1 18.1891 4.42104 -0.364815 18.1891 4.42104 -0.364815
74 2 20.1428 4.38622 1.19111 20.1428 4.38622 1.19111
75 2 20.0158 4.44333 -2.15945 20.0158 4.44333 -2.15945
76 1 21.0805 6.00746 -0.4611 21.0805 6.00746 -0.4611
77 2 23.0558 6.03789 1.09195 23.0558 6.03789 1.09195
78 2 22.9675 5.96254 -2.19835 22.9675 5.96254 -2.19835
79 1 23.9062 4.36708 -0.663127 23.9062 4.36708 -0.663127
80 2 25.6839 4.22789 1.21343 25.6839 4.22789 1.21343
81 2 26.1242 4.50521 -2.06071 26.1242 4.50521 -2.06071
82 1 26.8013 5.96058 -0.170726 26.8013 5.96058 -0.170726
83 2 28.5716 5.99693 1.53891 28.5716 5.99693 1.53891
84 2 28.747 5.95633 -1.65348 28.747 5.95633 -1.65348
85 1 29.6961 4.34921 -0.0245177 29.6961 4.34921 -0.0245177
86 2 31.6958 4.21715 1.55871 31.6958 4.21715 1.55871
87 2 31.527 4.5309 -1.68398 31.527 4.5309 -1.68398
88 1 32.4697 6.05785 0.15901 32.4697 6.05785 0.15901
89 2 34.3529 6.03073 1.78354 34.3529 6.03073 1.78354
90 2 34.3487 6.07764 -1.4524 34.3487 6.07764 -1.4524
91 1 35.3071 4.31552 0.187372 35.3071 4.31552 0.187372
92 2 37.2792 4.28278 1.63427 37.2792 4.28278 1.63427
93 2 37.0564 4.32577 -1.67025 37.0564 4.32577 -1.67025
94 1 38.1402 6.00644 -0.13219 38.1402 6.00644 -0.13219
95 2 39.9359 5.92386 1.70962 39.9359 5.92386 1.70962
96 2 40.1169 6.31544 -1.63471 40.1169 6.31544 -1.63471
97 1 41.0173 4.44506 -0.113423 41.0173 4.44506 -0.113423
98 2 42.7184 4.30156 1.81383 42.7184 4.30156 1.81383
99 2 43.0925 4.55199 -1.38496 43.0925 4.55199 -1.38496
100 1 43.7743 6.11872 0.360355 43.7743 6.11872 0.360355
101 2 45.5281 5.99176 2.06122 45.5281 5.99176 2.06122
102 2 45.7946 6.36127 -1.18166 45.7946 6.36127 -1.18166
103 1 46.6319 4.43968 0.275569 46.6319 4.43968 0.275569
104 2 48.2346 4.29456 2.26402 48.2346 4.29456 2.26402
105 2 48.7729 4.42415 -0.984834 48.7729 4.42415 -0.984834
106 1 49.4961 6.01485 0.949079 49.4961 6.01485 0.949079
107 2 51.5102 5.94331 2.3978 51.5102 5.94331 2.3978
108 2 51.2717 6.15868 -0.846553 51.2717 6.15868 -0.846553
109 1 1.01013 7.65281 0.801672 1.01013 7.65281 0.801672
110 2 3.01939 7.79766 2.34846 3.01939 7.79766 2.34846
111 2 2.67865 7.70699 -1.01215 2.67865 7.70699 -1.01215
112 1 3.86376 9.34427 0.516679 3.86376 9.34427 0.516679
113 2 5.81854 9.24472 2.1661 5.81854 9.24472 2.1661
114 2 5.88999 9.19064 -1.09918 5.88999 9.19064 -1.09918
115 1 6.68819 7.63792 0.585599 6.68819 7.63792 0.585599
116 2 8.81424 7.55463 1.85771 8.81424 7.55463 1.85771
117 2 8.46732 7.53081 -1.40367 8.46732 7.53081 -1.40367
118 1 9.60711 9.25264 0.15321 9.60711 9.25264 0.15321
119 2 11.7282 9.18286 1.50018 11.7282 9.18286 1.50018
120 2 11.188 9.25499 -1.79507 11.188 9.25499 -1.79507
121 1 12.3997 7.57768 -0.235913 12.3997 7.57768 -0.235913
122 2 14.3921 7.85659 1.44236 14.3921 7.85659 1.44236
123 2 14.3639 7.49994 -1.93418 14.3639 7.49994 -1.93418
124 1 15.2977 9.33093 -0.423497 15.2977 9.33093 -0.423497
125 2 17.225 9.27862 1.17132 17.225 9.27862 1.17132
126 2 17.2828 9.21153 -2.13995 17.2828 9.21153 -2.13995
127 1 18.213 7.68301 -0.388985 18.213 7.68301 -0.388985
128 2 20.2273 7.69985 1.14718 20.2273 7.69985 1.14718
129 2 20.0712 7.63302 -2.0728 20.0712 7.63302 -2.0728
130 1 21.1052 9.29765 -0.537554 21.1052 9.29765 -0.537554
131 2 22.9559 9.24002 1.14738 22.9559 9.24002 1.14738
132 2 23.0363 9.51521 -2.05414 23.0363 9.51521 -2.05414
133 1 23.9608 7.60969 -0.583207 23.9608 7.60969 -0.583207
134 2 25.6924 7.59817 1.29671 25.6924 7.59817 1.29671
135 2 26.1484 7.75035 -1.8893 26.1484 7.75035 -1.8893
136 1 26.7424 9.38464 -0.133402 26.7424 9.38464 -0.133402
137 2 28.5082 9.23077 1.62877 28.5082 9.23077 1.62877
138 2 28.8101 9.53934 -1.55182 28.8101 9.53934 -1.55182
139 1 29.6154 7.70456 0.0410836 29.6154 7.70456 0.0410836
140 2 31.2889 7.77533 1.75679 31.2889 7.77533 1.75679
141 2 31.5837 7.61501 -1.5189 31.5837 7.61501 -1.5189
142 1 32.4455 9.34051 0.186251 32.4455 9.34051 0.186251
143 2 34.3871 9.06141 1.81812 34.3871 9.06141 1.81812
144 2 34.4856 9.51724 -1.3964 34.4856 9.51724 -1.3964
145 1 35.3528 7.63843 0.0999123 35.3528 7.63843 0.0999123
146 2 37.2326 7.42927 1.87876 37.2326 7.42927 1.87876
147 2 37.3275 7.89495 -1.46344 37.3275 7.89495 -1.46344
148 1 38.1828 9.31838 0.541872 38.1828 9.31838 0.541872
149 2 40.2297 9.32033 2.07047 40.2297 9.32033 2.07047
150 2 39.9215 9.43194 -1.25136 39.9215 9.43194 -1.25136
151 1 40.9814 7.78594 0.256319 40.9814 7.78594 0.256319
152 2 42.8 7.5031 2.14688 42.8 7.5031 2.14688
153 2 43.0037 7.89254 -1.23558 43.0037 7.89254 -1.23558
154 1 43.8596 9.41232 0.701537 43.8596 9.41232 0.701537
155 2 45.5958 9.47523 2.40601 45.5958 9.47523 2.40601
156 2 45.7936 9.42912 -0.894788 45.7936 9.42912 -0.894788
157 1 46.6664 7.69177 0.813547 46.6664 7.69177 0.813547
158 2 48.5008 7.67501 2.59084 48.5008 7.67501 2.59084
159 2 48.5701 7.63168 -0.823331 48.5701 7.63168 -0.823331
160 1 49.4767 9.2615 0.95122 49.4767 9.2615 0.95122
161 2 51.5714 9.2036 2.4542 51.5714 9.2036 2.4542
162 2 51.2755 9.31568 -0.783858 51.2755 9.31568 -0.783858
163 1 0.982974 10.9244 0.720592 0.982974 10.9244 0.720592
164 2 2.94789 10.9633 2.26385 2.94789 10.9633 2.26385
165 2 2.78681 10.9475 -1.01469 2.78681 10.9475 -1.01469
166 1 3.85795 12.6457 0.63191 3.85795 12.6457 0.63191
167 2 5.90943 12.6911 2.17249 5.90943 12.6911 2.17249
168 2 5.6505 12.3952 -1.08853 5.6505 12.3952 -1.08853
169 1 6.74225 10.9155 0.553594 6.74225 10.9155 0.553594
170 2 8.93157 10.9826 1.79863 8.93157 10.9826 1.79863
171 2 8.49375 10.8486 -1.34121 8.49375 10.8486 -1.34121
172 1 9.58357 12.5944 0.108809 9.58357 12.5944 0.108809
173 2 11.8006 12.7671 1.40324 11.8006 12.7671 1.40324
174 2 11.2161 12.5282 -1.76868 11.2161 12.5282 -1.76868
175 1 12.4392 10.9559 -0.279573 12.4392 10.9559 -0.279573
176 2 14.4175 11.0954 1.29796 14.4175 11.0954 1.29796
177 2 14.2796 10.9182 -1.98772 14.2796 10.9182 -1.98772
178 1 15.3859 12.5356 -0.527966 15.3859 12.5356 -0.527966
179 2 17.1509 12.389 1.2545 17.1509 12.389 1.2545
180 2 17.3089 12.7323 -2.02277 17.3089 12.7323 -2.02277
181 1 18.2134 10.93 -0.563068 18.2134 10.93 -0.563068
182 2 20.2445 11.0547 0.999656 20.2445 11.0547 0.999656
183 2 20.1599 10.9587 -2.25955 20.1599 10.9587 -2.25955
184 1 21.0076 12.6552 -0.695754 21.0076 12.6552 -0.695754
185 2 22.5382 12.603 1.28651 22.5382 12.603 1.28651
186 2 23.1696 12.797 -1.93573 23.1696 12.797 -1.93573
187 1 23.8623 10.9936 -0.257155 23.8623 10.9936 -0.257155
188 2 25.6707 11.0042 1.4646 25.6707 11.0042 1.4646
189 2 25.9261 11.0713 -1.70651 25.9261 11.0713 -1.70651
190 1 26.7885 12.6656 0.0439868 26.7885 12.6656 0.0439868
191 2 28.5511 12.6336 1.7836 28.5511 12.6336 1.7836
192 2 28.7905 12.6608 -1.48839 28.7905 12.6608 -1.48839
193 1 29.6238 10.9556 0.187779 29.6238 10.9556 0.187779
194 2 31.5787 10.9344 1.86248 31.5787 10.9344 1.86248
195 2 31.6439 11.1021 -1.38591 31.6439 11.1021 -1.38591
196 1 32.5336 12.6206 0.297122 32.5336 12.6206 0.297122
197 2 34.0992 12.4056 2.25974 34.0992 12.4056 2.25974
198 2 34.6097 12.7678 -1.02126 34.6097 12.7678 -1.02126
199 1 35.3796 11.0224 0.568936 35.3796 11.0224 0.568936
200 2 37.3129 10.8733 2.27615 37.3129 10.8733 2.27615
201 2 37.285 11.0878 -1.09304 37.285 11.0878 -1.09304
202 1 38.1905 12.5408 0.738109 38.1905 12.5408 0.738109
203 2 40.068 12.3275 2.34847 40.068 12.3275 2.34847
204 2 40.0635 12.7508 -0.910287 40.0635 12.7508 -0.910287
205 1 41.0437 10.9754 0.423991 41.0437 10.9754 0.423991
206 2 42.6254 10.8576 2.36024 42.6254 10.8576 2.36024
207 2 43.1363 11.1933 -0.924057 43.1363 11.1933 -0.924057
208 1 43.7954 12.6796 0.98196 43.7954 12.6796 0.98196
209 2 45.7484 12.4636 2.58664 45.7484 12.4636 2.58664
210 2 45.6655 12.8226 -0.684355 45.6655 12.8226 -0.684355
211 1 46.737 11.0542 0.796148 46.737 11.0542 0.796148
212 2 48.564 10.9018 2.55526 48.564 10.9018 2.55526
213 2 48.705 11.0797 -0.662789 48.705 11.0797 -0.662789
214 1 49.5242 12.6143 1.02562 49.5242 12.6143 1.02562
215 2 51.4911 12.5087 2.41421 51.4911 12.5087 2.41421
216 2 51.3068 12.6206 -0.770697 51.3068 12.6206 -0.770697
217 1 1.01608 14.204 0.86215 1.01608 14.204 0.86215
218 2 3.01334 14.0716 2.43195 3.01334 14.0716 2.43195
219 2 2.90167 14.3863 -0.893416 2.90167 14.3863 -0.893416
220 1 3.93043 15.9247 0.782278 3.93043 15.9247 0.782278
221 2 6.02571 15.9723 2.07991 6.02571 15.9723 2.07991
222 2 5.51922 15.8858 -1.10416 5.51922 15.8858 -1.10416
223 1 6.74203 14.2294 0.386578 6.74203 14.2294 0.386578
224 2 8.78421 14.2322 1.83119 8.78421 14.2322 1.83119
225 2 8.58218 14.1993 -1.40126 8.58218 14.1993 -1.40126
226 1 9.58977 15.9061 0.0786558 9.58977 15.9061 0.0786558
227 2 11.7896 15.8863 1.24003 11.7896 15.8863 1.24003
228 2 11.2953 15.7266 -1.9463 11.2953 15.7266 -1.9463
229 1 12.473 14.1978 -0.411359 12.473 14.1978 -0.411359
230 2 14.4725 14.1821 1.12005 14.4725 14.1821 1.12005
231 2 14.2857 14.1605 -2.10773 14.2857 14.1605 -2.10773
232 1 15.2891 15.8125 -0.523791 15.2891 15.8125 -0.523791
233 2 17.1058 16.0633 1.1635 17.1058 16.0633 1.1635
234 2 17.2344 15.696 -2.1699 17.2344 15.696 -2.1699
235 1 18.1285 14.2556 -0.212567 18.1285 14.2556 -0.212567
236 2 20.1504 14.239 1.15458 20.1504 14.239 1.15458
237 2 19.8947 14.4537 -2.03775 19.8947 14.4537 -2.03775
238 1 20.9029 15.987 -0.374447 20.9029 15.987 -0.374447
239 2 22.6034 16.0704 1.42495 22.6034 16.0704 1.42495
240 2 23.0618 15.8048 -1.79365 23.0618 15.8048 -1.79365
241 1 23.8085 14.2698 0.0465467 23.8085 14.2698 0.0465467
242 2 25.7147 14.2399 1.69069 25.7147 14.2399 1.69069
243 2 25.775 14.3148 -1.59365 25.775 14.3148 -1.59365
244 1 26.7336 15.8633 0.0854692 26.7336 15.8633 0.0854692
245 2 28.7197 16.0164 1.73922 28.7197 16.0164 1.73922
246 2 28.6653 16.0211 -1.563 28.6653 16.0211 -1.563
247 1 29.64 14.3177 0.207846 29.64 14.3177 0.207846
248 2 31.5317 14.2434 1.93892 31.5317 14.2434 1.93892
249 2 31.5848 14.3278 -1.24208 31.5848 14.3278 -1.24208
250 1 32.4203 15.9534 0.370196 32.4203 15.9534 0.370196
251 2 34.0152 15.9466 2.394 34.0152 15.9466 2.394
252 2 34.5638 15.8681 -0.903191 34.5638 15.8681 -0.903191
253 1 35.2743 14.2226 0.929075 35.2743 14.2226 0.929075
254 2 37.1986 14.0424 2.45346 37.1986 14.0424 2.45346
255 2 37.245 14.3561 -0.724567 37.245 14.3561 -0.724567
256 1 38.0283 15.8643 0.974901 38.0283 15.8643 0.974901
257 2 40.1333 15.8373 2.55217 40.1333 15.8373 2.55217
258 2 39.8841 15.8914 -0.627779 39.8841 15.8914 -0.627779
259 1 40.9593 14.2463 0.948058 40.9593 14.2463 0.948058
260 2 42.8431 14.2168 2.59927 42.8431 14.2168 2.59927
261 2 42.9894 14.1778 -0.697124 42.9894 14.1778 -0.697124
262 1 43.8511 15.8848 1.16264 43.8511 15.8848 1.16264
263 2 45.7112 15.7576 2.83577 45.7112 15.7576 2.83577
264 2 45.7594 16.1093 -0.382934 45.7594 16.1093 -0.382934
265 1 46.6989 14.3024 1.11199 46.6989 14.3024 1.11199
266 2 48.5519 14.2422 2.74359 48.5519 14.2422 2.74359
267 2 48.6066 14.3526 -0.562221 48.6066 14.3526 -0.562221
268 1 49.5339 15.8927 1.17796 49.5339 15.8927 1.17796
269 2 51.6585 15.7502 2.62479 51.6585 15.7502 2.62479
270 2 51.2698 15.9417 -0.643381 51.2698 15.9417 -0.643381
271 1 1.01282 17.4641 0.90983 1.01282 17.4641 0.90983
272 2 3.03668 17.5793 2.32718 3.03668 17.5793 2.32718
273 2 2.82937 17.3974 -0.815463 2.82937 17.3974 -0.815463
274 1 3.92208 19.1887 0.554163 3.92208 19.1887 0.554163
275 2 5.99619 19.3148 1.90758 5.99619 19.3148 1.90758
276 2 5.58213 19.1323 -1.38233 5.58213 19.1323 -1.38233
277 1 6.69238 17.5118 0.214765 6.69238 17.5118 0.214765
278 2 8.85532 17.6626 1.6407 8.85532 17.6626 1.6407
279 2 8.39298 17.3857 -1.63442 8.39298 17.3857 -1.63442
280 1 9.51046 19.1776 -0.265262 9.51046 19.1776 -0.265262
281 2 11.5508 19.2713 1.07395 11.5508 19.2713 1.07395
282 2 11.3139 19.1022 -2.12434 11.3139 19.1022 -2.12434
283 1 12.3704 17.5281 -0.638235 12.3704 17.5281 -0.638235
284 2 14.335 17.5998 1.0263 14.335 17.5998 1.0263
285 2 14.3308 17.3681 -2.27268 14.3308 17.3681 -2.27268
286 1 15.2973 19.207 -0.840307 15.2973 19.207 -0.840307
287 2 17.1127 19.2566 0.929051 17.1127 19.2566 0.929051
288 2 17.2637 19.2409 -2.39858 17.2637 19.2409 -2.39858
289 1 18.0447 17.594 -0.718976 18.0447 17.594 -0.718976
290 2 19.9341 17.6999 1.05405 19.9341 17.6999 1.05405
291 2 20.1792 17.5912 -2.18511 20.1792 17.5912 -2.18511
292 1 21.0277 19.3185 -0.551579 21.0277 19.3185 -0.551579
293 2 22.7889 19.2923 1.18271 22.7889 19.2923 1.18271
294 2 23.0968 19.1059 -1.99126 23.0968 19.1059 -1.99126
295 1 23.8615 17.5321 -0.183083 23.8615 17.5321 -0.183083
296 2 25.4972 17.5493 1.57558 25.4972 17.5493 1.57558
297 2 25.8734 17.5773 -1.6351 25.8734 17.5773 -1.6351
298 1 26.6943 19.247 0.0182945 26.6943 19.247 0.0182945
299 2 28.4472 19.2306 1.67598 28.4472 19.2306 1.67598
300 2 28.6412 19.3376 -1.61512 28.6412 19.3376 -1.61512
301 1 29.6179 17.6122 0.062941 29.6179 17.6122 0.062941
302 2 31.2706 17.6966 1.9296 31.2706 17.6966 1.9296
303 2 31.5971 17.5979 -1.36893 31.5971 17.5979 -1.36893
304 1 32.4416 19.2685 0.299418 32.4416 19.2685 0.299418
305 2 34.0473 19.1514 2.23822 34.0473 19.1514 2.23822
306 2 34.5541 19.076 -0.940282 34.5541 19.076 -0.940282
307 1 35.2935 17.5268 0.7968 35.2935 17.5268 0.7968
308 2 37.0717 17.6061 2.50212 37.0717 17.6061 2.50212
309 2 37.3284 17.5955 -0.664905 37.3284 17.5955 -0.664905
310 1 38.1422 19.1911 0.953568 38.1422 19.1911 0.953568
311 2 40.1762 19.2221 2.47026 40.1762 19.2221 2.47026
312 2 40.0458 19.2748 -0.776089 40.0458 19.2748 -0.776089
313 1 40.9619 17.5428 0.85886 40.9619 17.5428 0.85886
314 2 42.6996 17.4104 2.71242 42.6996 17.4104 2.71242
315 2 43.0467 17.5709 -0.534862 43.0467 17.5709 -0.534862
316 1 43.7788 19.2087 1.30605 43.7788 19.2087 1.30605
317 2 45.6894 19.3647 2.99457 45.6894 19.3647 2.99457
318 2 45.7171 19.2523 -0.211642 45.7171 19.2523 -0.211642
319 1 46.6264 17.6453 1.45094 46.6264 17.6453 1.45094
320 2 48.63 17.412 2.97597 48.63 17.412 2.97597
321 2 48.497 17.6713 -0.303895 48.497 17.6713 -0.303895
322 1 49.504 19.1984 1.42925 49.504 19.1984 1.42925
323 2 51.6305 19.0721 2.68866 51.6305 19.0721 2.68866
324 2 51.0248 19.2241 -0.51984 51.0248 19.2241 -0.51984
325 1 1.08649 20.8007 0.872369 1.08649 20.8007 0.872369
326 2 3.20861 21.0614 2.08792 3.20861 21.0614 2.08792
327 2 2.68757 20.6263 -1.13042 2.68757 20.6263 -1.13042
328 1 3.9563 22.424 0.0595392 3.9563 22.424 0.0595392
329 2 5.87615 22.6382 1.65982 5.87615 22.6382 1.65982
330 2 5.78337 22.3743 -1.68016 5.78337 22.3743 -1.68016
331 1 6.82002 20.7586 0.0905679 6.82002 20.7586 0.0905679
332 2 8.89649 21.0012 1.42451 8.89649 21.0012 1.42451
333 2 8.47773 20.8827 -1.83163 8.47773 20.8827 -1.83163
334 1 9.66155 22.5743 -0.347531 9.66155 22.5743 -0.347531
335 2 11.7278 22.4354 0.968236 11.7278 22.4354 0.968236
336 2 11.4225 22.4191 -2.2208 11.4225 22.4191 -2.2208
337 1 12.4713 20.8277 -0.762509 12.4713 20.8277 -0.762509
338 2 14.4902 20.8182 0.732417 14.4902 20.8182 0.732417
339 2 14.2453 20.809 -2.42304 14.2453 20.809 -2.42304
340 1 15.321 22.5182 -0.942206 15.321 22.5182 -0.942206
341 2 17.2072 22.603 0.788465 17.2072 22.603 0.788465
342 2 17.2928 22.3105 -2.43478 17.2928 22.3105 -2.43478
343 1 18.1905 20.8435 -0.635217 18.1905 20.8435 -0.635217
344 2 19.9844 20.9704 0.980935 19.9844 20.9704 0.980935
345 2 20.1007 20.8092 -2.3163 20.1007 20.8092 -2.3163
346 1 20.9983 22.5594 -0.691657 20.9983 22.5594 -0.691657
347 2 22.8345 22.4568 1.06923 22.8345 22.4568 1.06923
348 2 23.1298 22.5486 -2.1433 23.1298 22.5486 -2.1433
349 1 23.9161 20.8403 -0.430687 23.9161 20.8403 -0.430687
350 2 25.5206 20.9454 1.41471 25.5206 20.9454 1.41471
351 2 26.0325 20.853 -1.82821 26.0325 20.853 -1.82821
352 1 26.6677 22.5254 -0.0509473 26.6677 22.5254 -0.0509473
353 2 28.5347 22.4424 1.69817 28.5347 22.4424 1.69817
354 2 28.7152 22.5553 -1.57536 28.7152 22.5553 -1.57536
355 1 29.5762 20.8434 0.129169 29.5762 20.8434 0.129169
356 2 31.3039 20.856 1.97447 31.3039 20.856 1.97447
357 2 31.605 20.8986 -1.37751 31.605 20.8986 -1.37751
358 1 32.3592 22.5529 0.45638 32.3592 22.5529 0.45638
359 2 34.2272 22.7988 2.00512 34.2272 22.7988 2.00512
360 2 34.2237 22.1077 -1.14586 34.2237 22.1077 -1.14586
361 1 35.2311 20.8086 0.704031 35.2311 20.8086 0.704031
362 2 37.1407 21.0604 2.42829 37.1407 21.0604 2.42829
363 2 37.0805 20.7547 -0.927221 37.0805 20.7547 -0.927221
364 1 38.113 22.5053 0.567908 38.113 22.5053 0.567908
365 2 39.807 22.66 2.32377 39.807 22.66 2.32377
366 2 40.1697 22.4366 -0.905561 40.1697 22.4366 -0.905561
367 1 40.9331 20.9547 0.866658 40.9331 20.9547 0.866658
368 2 42.8611 21.1026 2.68519 42.8611 21.1026 2.68519
369 2 42.8795 20.575 -0.606419 42.8795 20.575 -0.606419
370 1 43.8102 22.4826 0.898872 43.8102 22.4826 0.898872
371 2 45.7374 22.9472 2.52237 45.7374 22.9472 2.52237
372 2 45.694 22.1742 -0.672822 45.694 22.1742 -0.672822
373 1 46.6361 20.936 1.30736 46.6361 20.936 1.30736
374 2 48.6214 21.0696 2.81227 48.6214 21.0696 2.81227
375 2 48.6136 20.7935 -0.422861 48.6136 20.7935 -0.422861
376 1 49.6058 22.4497 1.02035 49.6058 22.4497 1.02035
377 2 51.807 22.8003 2.2529 51.807 22.8003 2.2529
378 2 51.2331 22.1529 -0.841534 51.2331 22.1529 -0.841534
379 1 1.1037 24.084 0.206847 1.1037 24.084 0.206847
380 2 3.16492 24.1044 1.76174 3.16492 24.1044 1.76174
381 2 2.87254 24.0406 -1.55854 2.87254 24.0406 -1.55854
382 1 3.96992 25.8092 -0.0645129 3.96992 25.8092 -0.0645129
383 2 5.97348 25.9244 1.29046 5.97348 25.9244 1.29046
384 2 5.7031 25.5889 -1.85357 5.7031 25.5889 -1.85357
385 1 6.77064 24.0487 -0.187358 6.77064 24.0487 -0.187358
386 2 8.76194 24.1461 1.33507 8.76194 24.1461 1.33507
387 2 8.51369 24.1404 -1.9887 8.51369 24.1404 -1.9887
388 1 9.61671 25.7248 -0.420968 9.61671 25.7248 -0.420968
389 2 11.6776 25.8356 0.954277 11.6776 25.8356 0.954277
390 2 11.3996 25.5903 -2.35438 11.3996 25.5903 -2.35438
391 1 12.5188 24.1365 -0.735519 12.5188 24.1365 -0.735519
392 2 14.4746 24.1306 0.70007 14.4746 24.1306 0.70007
393 2 14.2441 24.2164 -2.53031 14.2441 24.2164 -2.53031
394 1 15.3197 25.7605 -0.991367 15.3197 25.7605 -0.991367
395 2 17.2367 25.8495 0.575436 17.2367 25.8495 0.575436
396 2 17.2491 25.8692 -2.62986 17.2491 25.8692 -2.62986
397 1 18.1877 24.1648 -0.99417 18.1877 24.1648 -0.99417
398 2 20.0565 24.2855 0.7977 20.0565 24.2855 0.7977
399 2 20.4345 24.0589 -2.51094 20.4345 24.0589 -2.51094
400 1 21.1245 25.8456 -0.911582 21.1245 25.8456 -0.911582
401 2 22.7356 25.806 1.03956 22.7356 25.806 1.03956
402 2 23.19 25.9124 -2.22434 23.19 25.9124 -2.22434
403 1 23.8666 24.2054 -0.478185 23.8666 24.2054 -0.478185
404 2 25.4356 24.2504 1.38807 25.4356 24.2504 1.38807
405 2 25.9348 24.1079 -1.97913 25.9348 24.1079 -1.97913
406 1 26.7374 25.8694 -0.290413 26.7374 25.8694 -0.290413
407 2 28.4354 26.1294 1.51932 28.4354 26.1294 1.51932
408 2 28.813 25.5044 -1.83546 28.813 25.5044 -1.83546
409 1 29.5678 24.2523 0.221343 29.5678 24.2523 0.221343
410 2 31.4273 24.4013 1.83995 31.4273 24.4013 1.83995
411 2 31.5248 23.9659 -1.38414 31.5248 23.9659 -1.38414
412 1 32.4792 25.7988 0.0260611 32.4792 25.7988 0.0260611
413 2 34.3932 25.9152 1.54117 34.3932 25.9152 1.54117
414 2 34.3374 25.4929 -1.70358 34.3374 25.4929 -1.70358
415 1 35.3031 24.0544 0.0273042 35.3031 24.0544 0.0273042
416 2 36.962 24.3584 1.81442 36.962 24.3584 1.81442
417 2 37.4213 23.9023 -1.42817 37.4213 23.9023 -1.42817
418 1 38.1876 25.6668 0.0744419 38.1876 25.6668 0.0744419
419 2 39.7587 25.9739 1.9047 39.7587 25.9739 1.9047
420 2 40.304 25.5002 -1.35175 40.304 25.5002 -1.35175
421 1 40.9817 24.2753 0.663299 40.9817 24.2753 0.663299
422 2 42.8524 24.4284 2.35232 42.8524 24.4284 2.35232
423 2 42.9236 23.9495 -0.829837 42.9236 23.9495 -0.829837
424 1 43.8564 25.8178 0.610356 43.8564 25.8178 0.610356
425 2 45.9347 25.8781 2.08756 45.9347 25.8781 2.08756
426 2 45.5687 25.6631 -1.25817 45.5687 25.6631 -1.25817
427 1 46.8153 24.1262 0.517308 46.8153 24.1262 0.517308
428 2 48.6109 24.4841 2.25154 48.6109 24.4841 2.25154
429 2 48.7871 23.7517 -0.966684 48.7871 23.7517 -0.966684
430 1 49.5694 25.7173 0.362103 49.5694 25.7173 0.362103
431 2 51.6858 25.8608 1.82852 51.6858 25.8608 1.82852
432 2 51.3739 25.618 -1.42592 51.3739 25.618 -1.42592
433 1 1.15655 27.4019 0.0726315 1.15655 27.4019 0.0726315
434 2 3.18678 27.6206 1.48976 3.18678 27.6206 1.48976
435 2 2.92601 27.2611 -1.71229 2.92601 27.2611 -1.71229
436 1 4.01178 29.0891 -0.302169 4.01178 29.0891 -0.302169
437 2 6.14654 29.0744 1.16864 6.14654 29.0744 1.16864
438 2 5.6759 28.9344 -2.05129 5.6759 28.9344 -2.05129
439 1 6.84878 27.3695 -0.56568 6.84878 27.3695 -0.56568
440 2 8.61965 27.4106 1.10244 8.61965 27.4106 1.10244
441 2 8.74298 27.2509 -2.19433 8.74298 27.2509 -2.19433
442 1 9.73178 28.9932 -0.6033 9.73178 28.9932 -0.6033
443 2 11.6925 29.1113 0.795593 11.6925 29.1113 0.795593
444 2 11.3237 28.895 -2.50089 11.3237 28.895 -2.50089
445 1 12.4676 27.3747 -0.835452 12.4676 27.3747 -0.835452
446 2 14.3593 27.3381 0.743866 14.3593 27.3381 0.743866
447 2 14.2527 27.4365 -2.58778 14.2527 27.4365 -2.58778
448 1 15.2902 29.0522 -0.913969 15.2902 29.0522 -0.913969
449 2 17.1665 29.0346 0.62174 17.1665 29.0346 0.62174
450 2 17.0842 29.1199 -2.59163 17.0842 29.1199 -2.59163
451 1 18.2678 27.439 -1.07327 18.2678 27.439 -1.07327
452 2 20.0997 27.3794 0.644985 20.0997 27.3794 0.644985
453 2 20.1238 27.456 -2.72775 20.1238 27.456 -2.72775
454 1 21.1214 29.1091 -0.987449 21.1214 29.1091 -0.987449
455 2 22.7584 29.5538 0.879229 22.7584 29.5538 0.879229
456 2 23.1857 28.9347 -2.26668 23.1857 28.9347 -2.26668
457 1 23.8774 27.5265 -0.343841 23.8774 27.5265 -0.343841
458 2 25.8118 27.648 1.24286 25.8118 27.648 1.24286
459 2 25.7645 27.4603 -2.04666 25.7645 27.4603 -2.04666
460 1 26.7978 29.1749 -0.499706 26.7978 29.1749 -0.499706
461 2 28.6996 29.163 1.16323 28.6996 29.163 1.16323
462 2 28.9767 29.0638 -2.0258 28.9767 29.0638 -2.0258
463 1 29.6697 27.4522 -0.361607 29.6697 27.4522 -0.361607
464 2 31.2605 27.4824 1.42114 31.2605 27.4824 1.42114
465 2 31.7867 27.2998 -1.79615 31.7867 27.2998 -1.79615
466 1 32.5254 29.0341 -0.161131 32.5254 29.0341 -0.161131
467 2 34.4358 28.9869 1.30833 34.4358 28.9869 1.30833
468 2 34.3583 28.9757 -1.82382 34.3583 28.9757 -1.82382
469 1 35.4133 27.3099 -0.237756 35.4133 27.3099 -0.237756
470 2 37.0928 27.2912 1.61031 37.0928 27.2912 1.61031
471 2 37.4111 27.3349 -1.71807 37.4111 27.3349 -1.71807
472 1 38.1479 29.0513 0.0246592 38.1479 29.0513 0.0246592
473 2 40.1039 29.2205 1.71447 40.1039 29.2205 1.71447
474 2 40.1533 28.7977 -1.60512 40.1533 28.7977 -1.60512
475 1 40.9735 27.3775 0.218382 40.9735 27.3775 0.218382
476 2 42.8643 27.7935 1.86596 42.8643 27.7935 1.86596
477 2 42.9666 27.0509 -1.34523 42.9666 27.0509 -1.34523
478 1 43.8853 29.0472 -0.00745522 43.8853 29.0472 -0.00745522
479 2 45.6744 29.2091 1.62192 45.6744 29.2091 1.62192
480 2 45.666 28.6928 -1.59884 45.666 28.6928 -1.59884
481 1 46.7569 27.4613 0.185168 46.7569 27.4613 0.185168
482 2 48.7639 27.6555 1.67395 48.7639 27.6555 1.67395
483 2 48.6081 27.0606 -1.51508 48.6081 27.0606 -1.51508
484 1 49.6519 29.0209 -0.24952 49.6519 29.0209 -0.24952
485 2 51.512 29.3124 1.37221 51.512 29.3124 1.37221
486 2 51.4274 28.6686 -1.90161 51.4274 28.6686 -1.90161
487 1 1.12292 30.6199 -0.537131 1.12292 30.6199 -0.537131
488 2 3.07081 30.8601 1.03153 3.07081 30.8601 1.03153
489 2 2.9823 30.4032 -2.16511 2.9823 30.4032 -2.16511
490 1 3.94465 32.2809 -0.769616 3.94465 32.2809 -0.769616
491 2 5.89909 32.4481 0.901744 5.89909 32.4481 0.901744
492 2 5.84424 32.2202 -2.3652 5.84424 32.2202 -2.3652
493 1 6.81316 30.6589 -0.647066 6.81316 30.6589 -0.647066
494 2 8.9193 30.7854 0.802227 8.9193 30.7854 0.802227
495 2 8.57825 30.394 -2.37056 8.57825 30.394 -2.37056
496 1 9.61615 32.2945 -1.00755 9.61615 32.2945 -1.00755
497 2 11.4679 32.6019 0.479169 11.4679 32.6019 0.479169
498 2 11.4316 32.2304 -2.70149 11.4316 32.2304 -2.70149
499 1 12.4135 30.7328 -0.871207 12.4135 30.7328 -0.871207
500 2 14.364 30.6588 0.677513 14.364 30.6588 0.677513
501 2 14.3335 30.6617 -2.61159 14.3335 30.6617 -2.61159
502 1 15.2847 32.3022 -1.08573 15.2847 32.3022 -1.08573
503 2 17.1606 32.4066 0.560811 17.1606 32.4066 0.560811
504 2 17.216 32.324 -2.67775 17.216 32.324 -2.67775
505 1 18.1687 30.631 -1.02654 18.1687 30.631 -1.02654
506 2 19.9605 30.6652 0.631239 19.9605 30.6652 0.631239
507 2 20.0946 30.6752 -2.64553 20.0946 30.6752 -2.64553
508 1 20.9912 32.376 -0.88834 20.9912 32.376 -0.88834
509 2 22.9628 32.5976 0.625239 22.9628 32.5976 0.625239
510 2 22.8489 32.3563 -2.56033 22.8489 32.3563 -2.56033
511 1 23.9438 30.832 -0.867413 23.9438 30.832 -0.867413
512 2 25.688 30.8788 0.93199 25.688 30.8788 0.93199
513 2 26.019 30.776 -2.26193 26.019 30.776 -2.26193
514 1 26.7382 32.4814 -0.649588 26.7382 32.4814 -0.649588
515 2 28.5104 32.5958 0.950137 28.5104 32.5958 0.950137
516 2 28.856 32.3661 -2.18023 28.856 32.3661 -2.18023
517 1 29.6823 30.8101 -0.42118 29.6823 30.8101 -0.42118
518 2 31.5435 30.8867 1.41233 31.5435 30.8867 1.41233
519 2 31.7015 30.6605 -1.83917 31.7015 30.6605 -1.83917
520 1 32.4382 32.4026 -0.271412 32.4382 32.4026 -0.271412
521 2 34.3069 32.3697 1.39701 34.3069 32.3697 1.39701
522 2 34.4804 32.4003 -1.81434 34.4804 32.4003 -1.81434
523 1 35.3052 30.7082 -0.220465 35.3052 30.7082 -0.220465
524 2 37.189 30.907 1.48415 37.189 30.907 1.48415
525 2 37.309 30.5071 -1.72973 37.309 30.5071 -1.72973
526 1 38.1136 32.4116 -0.266726 38.1136 32.4116 -0.266726
527 2 39.9099 32.3823 1.488 39.9099 32.3823 1.488
528 2 39.9565 32.2347 -1.78597 39.9565 32.2347 -1.78597
529 1 40.9973 30.6338 -0.0905347 40.9973 30.6338 -0.0905347
530 2 42.9052 30.8601 1.44343 42.9052 30.8601 1.44343
531 2 42.8285 30.5826 -1.66276 42.8285 30.5826 -1.66276
532 1 43.8583 32.408 -0.199047 43.8583 32.408 -0.199047
533 2 45.7668 32.2513 1.47474 45.7668 32.2513 1.47474
534 2 45.6732 32.3493 -1.83101 45.6732 32.3493 -1.83101
535 1 46.6517 30.658 -0.216647 46.6517 30.658 -0.216647
536 2 48.6466 30.6652 1.43221 48.6466 30.6652 1.43221
537 2 48.5277 30.5364 -1.84579 48.5277 30.5364 -1.84579
538 1 49.4858 32.3295 -0.255117 49.4858 32.3295 -0.255117
539 2 51.5766 32.2409 1.15782 51.5766 32.2409 1.15782