ITEM: TIMESTEP
29300
ITEM: NUMBER OF ATOMS
810
ITEM: BOX BOUNDS pp pp pp
8.4137701477268123e-01 5.2176227985227342e+01
8.0961581116522285e-01 5.0206599188834083e+01
-1.0000000000000000e+01 1.0000000000000000e+01
ITEM: ATOMS id type x y z xu yu zu
1 1 1.156 1.1885 0.394479 1.156 1.1885 0.394479
2 2 3.16554 0.96549 1.92144 3.16554 0.96549 1.92144
3 2 2.9797 1.19841 -1.32391 2.9797 1.19841 -1.32391
4 1 4.00869 2.78441 0.377661 4.00869 2.78441 0.377661
5 2 5.95007 2.51189 2.0024 5.95007 2.51189 2.0024
6 2 5.64594 2.79553 -1.40005 5.64594 2.79553 -1.40005
7 1 6.79309 1.12325 0.0724358 6.79309 1.12325 0.0724358
8 2 8.87708 1.1788 1.57299 8.87708 1.1788 1.57299
9 2 8.54814 1.04045 -1.72326 8.54814 1.04045 -1.72326
10 1 9.63269 2.76056 -0.148742 9.63269 2.76056 -0.148742
11 2 11.5033 2.64026 1.40871 11.5033 2.64026 1.40871
12 2 11.5139 2.9012 -1.79179 11.5139 2.9012 -1.79179
13 1 12.4139 1.09936 -0.405226 12.4139 1.09936 -0.405226
14 2 14.281 0.885888 1.22609 14.281 0.885888 1.22609
15 2 14.455 1.23445 -1.97165 14.455 1.23445 -1.97165
16 1 15.3356 2.65694 -0.162435 15.3356 2.65694 -0.162435
17 2 17.2718 2.52614 1.42599 17.2718 2.52614 1.42599
18 2 17.1639 2.79492 -1.86955 17.1639 2.79492 -1.86955
19 1 18.153 1.04417 -0.401732 18.153 1.04417 -0.401732
20 2 20.0885 0.822447 1.28577 20.0885 0.822447 1.28577
21 2 20.1787 1.25039 -1.99294 20.1787 1.25039 -1.99294
22 1 20.9968 2.64778 -0.139596 20.9968 2.64778 -0.139596
23 2 23.1804 2.58585 1.22203 23.1804 2.58585 1.22203
24 2 22.8559 2.71419 -2.01401 22.8559 2.71419 -2.01401
25 1 23.9394 1.00079 -0.639096 23.9394 1.00079 -0.639096
26 2 25.9366 0.889518 0.913391 25.9366 0.889518 0.913391
27 2 25.7989 1.01018 -2.37829 25.7989 1.01018 -2.37829
28 1 26.7519 2.57686 -0.57079 26.7519 2.57686 -0.57079
29 2 28.798 2.53396 0.80889 28.798 2.53396 0.80889
30 2 28.5629 2.64756 -2.3046 28.5629 2.64756 -2.3046
31 1 29.619 0.969379 -0.804083 29.619 0.969379 -0.804083
32 2 31.3953 0.872203 0.928519 31.3953 0.872203 0.928519
33 2 31.6982 1.08663 -2.40989 31.6982 1.08663 -2.40989
34 1 32.5035 2.57352 -0.506603 32.5035 2.57352 -0.506603
35 2 34.4328 2.69702 1.12991 34.4328 2.69702 1.12991
36 2 34.4881 2.4679 -2.09615 34.4881 2.4679 -2.09615
37 1 35.4072 0.970799 -0.428666 35.4072 0.970799 -0.428666
38 2 37.086 0.978934 1.45335 37.086 0.978934 1.45335
39 2 37.4933 1.02105 -1.84854 37.4933 1.02105 -1.84854
40 1 38.2671 2.64321 -0.143271 38.2671 2.64321 -0.143271
41 2 40.0858 2.73134 1.58703 40.0858 2.73134 1.58703
42 2 40.2596 2.60049 -1.60882 40.2596 2.60049 -1.60882
43 1 41.1708 0.945652 0.16511 41.1708 0.945652 0.16511
44 2 42.9218 0.894909 1.86755 42.9218 0.894909 1.86755
45 2 42.9918 0.953348 -1.47057 42.9918 0.953348 -1.47057
46 1 43.9343 2.57782 0.329833 43.9343 2.57782 0.329833
47 2 45.8545 2.68386 2.05541 45.8545 2.68386 2.05541
48 2 45.8674 2.83586 -1.23674 45.8674 2.83586 -1.23674
49 1 46.7527 1.11094 0.366399 46.7527 1.11094 0.366399
50 2 48.7396 1.03872 1.91704 48.7396 1.03872 1.91704
51 2 48.6113 1.32304 -1.39066 48.6113 1.32304 -1.39066
52 1 49.5982 2.76309 0.40255 49.5982 2.76309 0.40255
53 2 51.315 2.70513 2.15727 51.315 2.70513 2.15727
54 2 51.5854 2.86892 -1.12333 51.5854 2.86892 -1.12333
55 1 1.16209 4.34152 0.661281 1.16209 4.34152 0.661281
56 2 3.03141 4.13398 2.21341 3.03141 4.13398 2.21341
57 2 2.97658 4.486 -1.01337 2.97658 4.486 -1.01337
58 1 3.97869 5.999 0.704285 3.97869 5.999 0.704285
59 2 6.01941 5.84821 2.0991 6.01941 5.84821 2.0991
60 2 5.69452 6.05564 -1.12298 5.69452 6.05564 -1.12298
61 1 6.78097 4.32937 0.349935 6.78097 4.32937 0.349935
62 2 8.84012 4.35799 1.68308 8.84012 4.35799 1.68308
63 2 8.38138 4.42285 -1.5264 8.38138 4.42285 -1.5264
64 1 9.59961 6.0785 -0.0359741 9.59961 6.0785 -0.0359741
65 2 11.5186 5.98014 1.62862 11.5186 5.98014 1.62862
66 2 11.506 5.98327 -1.68131 11.506 5.98327 -1.68131
67 1 12.4435 4.42803 -0.0734721 12.4435 4.42803 -0.0734721
68 2 14.3749 4.27893 1.4648 14.3749 4.27893 1.4648
69 2 14.3901 4.37004 -1.74106 14.3901 4.37004 -1.74106
70 1 15.4559 5.90116 -0.089082 15.4559 5.90116 -0.089082
71 2 17.3164 6.00939 1.54554 17.3164 6.00939 1.54554
72 2 17.219 5.90303 -1.79515 17.219 5.90303 -1.79515
73 1 18.1545 4.41661 -0.0553368 18.1545 4.41661 -0.0553368
74 2 20.1379 4.298 1.53798 20.1379 4.298 1.53798
75 2 20.0418 4.29774 -1.69117 20.0418 4.29774 -1.69117
76 1 21.1706 5.92344 -0.144979 21.1706 5.92344 -0.144979
77 2 23.1389 5.70509 1.39098 23.1389 5.70509 1.39098
78 2 22.9993 5.94336 -1.86455 22.9993 5.94336 -1.86455
79 1 23.9916 4.26496 -0.378914 23.9916 4.26496 -0.378914
80 2 25.9943 4.34347 1.06938 25.9943 4.34347 1.06938
81 2 25.8181 4.22708 -2.14948 25.8181 4.22708 -2.14948
82 1 26.9215 6.00348 -0.567737 26.9215 6.00348 -0.567737
83 2 29.0303 5.88586 0.865026 29.0303 5.88586 0.865026
84 2 28.6764 5.89786 -2.34702 28.6764 5.89786 -2.34702
85 1 29.6878 4.26696 -0.796522 29.6878 4.26696 -0.796522
86 2 31.5436 4.28667 0.944991 31.5436 4.28667 0.944991
87 2 31.7304 4.15629 -2.33147 31.7304 4.15629 -2.33147
88 1 32.5939 5.88706 -0.70722 32.5939 5.88706 -0.70722
89 2 34.3391 5.8062 1.15179 34.3391 5.8062 1.15179
90 2 34.6283 5.99032 -2.03423 34.6283 5.99032 -2.03423
91 1 35.4052 4.27357 -0.427229 35.4052 4.27357 -0.427229
92 2 37.0832 4.3664 1.35732 37.0832 4.3664 1.35732
93 2 37.4179 4.12811 -1.943 37.4179 4.12811 -1.943
94 1 38.3032 5.82697 -0.254339 38.3032 5.82697 -0.254339
95 2 40.0141 5.9387 1.59393 40.0141 5.9387 1.59393
96 2 40.3054 5.93389 -1.72791 40.3054 5.93389 -1.72791
97 1 41.1865 4.30928 0.0200657 41.1865 4.30928 0.0200657
98 2 42.9819 4.2821 1.87681 42.9819 4.2821 1.87681
99 2 43.1723 4.40015 -1.48077 43.1723 4.40015 -1.48077
100 1 43.9492 5.97051 0.200992 43.9492 5.97051 0.200992
101 2 45.63 6.01867 2.01409 45.63 6.01867 2.01409
102 2 46.0337 5.97712 -1.28476 46.0337 5.97712 -1.28476
103 1 46.7155 4.41893 0.499315 46.7155 4.41893 0.499315
104 2 48.7084 4.25299 2.23813 48.7084 4.25299 2.23813
105 2 48.6764 4.56721 -1.05422 48.6764 4.56721 -1.05422
106 1 49.6393 6.06723 0.747479 49.6393 6.06723 0.747479
107 2 51.5047 5.9445 2.35764 51.5047 5.9445 2.35764
108 2 51.526 6.11913 -0.889015 51.526 6.11913 -0.889015
109 1 1.13206 7.63194 0.861698 1.13206 7.63194 0.861698
110 2 3.10988 7.59169 2.43023 3.10988 7.59169 2.43023
111 2 2.98271 7.59324 -0.933071 2.98271 7.59324 -0.933071
112 1 3.98567 9.29841 0.770938 3.98567 9.29841 0.770938
113 2 5.98825 9.20478 2.23821 5.98825 9.20478 2.23821
114 2 5.72216 9.41486 -0.974826 5.72216 9.41486 -0.974826
115 1 6.78221 7.66642 0.513673 6.78221 7.66642 0.513673
116 2 8.93685 7.61037 1.91497 8.93685 7.61037 1.91497
117 2 8.48122 7.75157 -1.39795 8.48122 7.75157 -1.39795
118 1 9.57765 9.36231 0.220742 9.57765 9.36231 0.220742
119 2 11.7777 9.22641 1.60292 11.7777 9.22641 1.60292
120 2 11.3109 9.23861 -1.57135 11.3109 9.23861 -1.57135
121 1 12.553 7.59558 -0.0387471 12.553 7.59558 -0.0387471
122 2 14.5344 7.60998 1.61173 14.5344 7.60998 1.61173
123 2 14.4855 7.54088 -1.76844 14.4855 7.54088 -1.76844
124 1 15.3667 9.19629 -0.0701816 15.3667 9.19629 -0.0701816
125 2 17.4267 9.28102 1.58607 17.4267 9.28102 1.58607
126 2 17.2702 9.12304 -1.73432 17.2702 9.12304 -1.73432
127 1 18.2658 7.57189 -0.127786 18.2658 7.57189 -0.127786
128 2 20.221 7.57943 1.47862 20.221 7.57943 1.47862
129 2 20.121 7.57199 -1.77724 20.121 7.57199 -1.77724
130 1 21.1505 9.22731 -0.0678847 21.1505 9.22731 -0.0678847
131 2 23.1012 9.32544 1.47858 23.1012 9.32544 1.47858
132 2 22.952 9.14725 -1.90354 22.952 9.14725 -1.90354
133 1 24.0184 7.60574 -0.192463 24.0184 7.60574 -0.192463
134 2 26.16 7.72379 1.03141 26.16 7.72379 1.03141
135 2 25.5674 7.46518 -2.12592 25.5674 7.46518 -2.12592
136 1 26.7464 9.2267 -0.874811 26.7464 9.2267 -0.874811
137 2 28.6549 9.14077 0.781585 28.6549 9.14077 0.781585
138 2 28.706 9.3409 -2.51479 28.706 9.3409 -2.51479
139 1 29.7647 7.6644 -0.946123 29.7647 7.6644 -0.946123
140 2 31.6212 7.64044 0.901206 31.6212 7.64044 0.901206
141 2 31.8276 7.65488 -2.42965 31.8276 7.65488 -2.42965
142 1 32.6255 9.26694 -0.646021 32.6255 9.26694 -0.646021
143 2 34.3467 9.37063 1.16229 34.3467 9.37063 1.16229
144 2 34.6863 9.06683 -2.03282 34.6863 9.06683 -2.03282
145 1 35.3344 7.54288 -0.191566 35.3344 7.54288 -0.191566
146 2 37.4274 7.50278 1.39151 37.4274 7.50278 1.39151
147 2 37.3534 7.55523 -1.84896 37.3534 7.55523 -1.84896
148 1 38.2814 9.22321 -0.214571 38.2814 9.22321 -0.214571
149 2 40.1022 9.23948 1.64734 40.1022 9.23948 1.64734
150 2 40.3223 9.16344 -1.66997 40.3223 9.16344 -1.66997
151 1 41.111 7.54219 0.0607706 41.111 7.54219 0.0607706
152 2 42.9941 7.59248 1.87406 42.9941 7.59248 1.87406
153 2 43.1093 7.67303 -1.45755 43.1093 7.67303 -1.45755
154 1 43.9338 9.22698 0.268983 43.9338 9.22698 0.268983
155 2 45.6828 9.25487 2.05813 45.6828 9.25487 2.05813
156 2 46.004 9.37471 -1.1221 46.004 9.37471 -1.1221
157 1 46.8586 7.68502 0.434229 46.8586 7.68502 0.434229
158 2 48.5476 7.68622 2.24758 48.5476 7.68622 2.24758
159 2 48.8582 7.7557 -0.973927 48.8582 7.7557 -0.973927
160 1 49.6451 9.3151 0.736929 49.6451 9.3151 0.736929
161 2 51.5922 9.31595 2.43352 51.5922 9.31595 2.43352
162 2 51.5128 9.28563 -0.818959 51.5128 9.28563 -0.818959
163 1 1.16203 10.9049 0.867058 1.16203 10.9049 0.867058
164 2 3.30419 11.1359 2.36429 3.30419 11.1359 2.36429
165 2 2.87753 10.8652 -0.890869 2.87753 10.8652 -0.890869
166 1 4.04685 12.6549 0.458712 4.04685 12.6549 0.458712
167 2 5.99006 12.8385 2.13928 5.99006 12.8385 2.13928
168 2 5.84319 12.4886 -1.19338 5.84319 12.4886 -1.19338
169 1 6.81457 10.9368 0.665938 6.81457 10.9368 0.665938
170 2 8.88519 10.9711 2.02604 8.88519 10.9711 2.02604
171 2 8.41811 10.8886 -1.24733 8.41811 10.8886 -1.24733
172 1 9.62191 12.5623 0.164973 9.62191 12.5623 0.164973
173 2 11.704 12.5901 1.66883 11.704 12.5901 1.66883
174 2 11.4288 12.3895 -1.59621 11.4288 12.3895 -1.59621
175 1 12.5493 10.8666 -0.0363941 12.5493 10.8666 -0.0363941
176 2 14.4398 11.0491 1.58165 14.4398 11.0491 1.58165
177 2 14.4263 10.8569 -1.74133 14.4263 10.8569 -1.74133
178 1 15.3609 12.5498 -0.142168 15.3609 12.5498 -0.142168
179 2 17.4557 12.7399 1.28791 17.4557 12.7399 1.28791
180 2 17.2021 12.4345 -1.88041 17.2021 12.4345 -1.88041
181 1 18.2078 10.8771 -0.158568 18.2078 10.8771 -0.158568
182 2 20.0902 10.9465 1.54329 20.0902 10.9465 1.54329
183 2 20.1048 10.8585 -1.73698 20.1048 10.8585 -1.73698
184 1 20.9848 12.5357 -0.115642 20.9848 12.5357 -0.115642
185 2 23.0428 12.4651 1.28249 23.0428 12.4651 1.28249
186 2 22.8806 12.5927 -1.93964 22.8806 12.5927 -1.93964
187 1 23.9318 10.9068 -0.430686 23.9318 10.9068 -0.430686
188 2 26.0106 10.7377 1.0913 26.0106 10.7377 1.0913
189 2 25.5847 10.9725 -2.24392 25.5847 10.9725 -2.24392
190 1 26.7799 12.5303 -0.519549 26.7799 12.5303 -0.519549
191 2 28.746 12.379 0.965685 28.746 12.379 0.965685
192 2 28.6706 12.6011 -2.14537 28.6706 12.6011 -2.14537
193 1 29.7222 10.891 -0.722625 29.7222 10.891 -0.722625
194 2 31.6739 10.9704 0.879913 31.6739 10.9704 0.879913
195 2 31.5679 10.953 -2.36066 31.5679 10.953 -2.36066
196 1 32.5339 12.5787 -0.720851 32.5339 12.5787 -0.720851
197 2 34.2953 12.6729 0.96855 34.2953 12.6729 0.96855
198 2 34.5195 12.4003 -2.28391 34.5195 12.4003 -2.28391
199 1 35.3568 10.8518 -0.454623 35.3568 10.8518 -0.454623
200 2 37.1835 10.8994 1.37287 37.1835 10.8994 1.37287
201 2 37.4696 10.8723 -1.89575 37.4696 10.8723 -1.89575
202 1 38.1687 12.6054 -0.121717 38.1687 12.6054 -0.121717
203 2 39.9828 12.4331 1.63956 39.9828 12.4331 1.63956
204 2 40.2919 12.5813 -1.58724 40.2919 12.5813 -1.58724
205 1 41.0297 10.9241 0.0567065 41.0297 10.9241 0.0567065
206 2 42.8365 10.7591 1.86043 42.8365 10.7591 1.86043
207 2 43.0868 10.9122 -1.32748 43.0868 10.9122 -1.32748
208 1 43.9391 12.5159 0.476785 43.9391 12.5159 0.476785
209 2 45.868 12.548 2.20929 45.868 12.548 2.20929
210 2 45.8321 12.4856 -1.18 45.8321 12.4856 -1.18
211 1 46.8166 10.9583 0.630856 46.8166 10.9583 0.630856
212 2 48.5614 11.0878 2.3432 48.5614 11.0878 2.3432
213 2 48.7052 10.8825 -0.882453 48.7052 10.8825 -0.882453
214 1 49.7248 12.5356 0.691605 49.7248 12.5356 0.691605
215 2 51.604 12.7838 2.27108 51.604 12.7838 2.27108
216 2 51.5237 12.3885 -0.923512 51.5237 12.3885 -0.923512
217 1 1.13732 14.2819 0.470127 1.13732 14.2819 0.470127
218 2 2.99913 14.2788 2.00268 2.99913 14.2788 2.00268
219 2 3.0144 14.243 -1.23 3.0144 14.243 -1.23
220 1 4.01068 15.9288 0.274602 4.01068 15.9288 0.274602
221 2 6.0138 16.228 1.65448 6.0138 16.228 1.65448
222 2 5.82924 15.6506 -1.52971 5.82924 15.6506 -1.52971
223 1 6.8388 14.1804 0.325284 6.8388 14.1804 0.325284
224 2 8.88333 14.3621 1.73018 8.88333 14.3621 1.73018
225 2 8.54358 14.1058 -1.56013 8.54358 14.1058 -1.56013
226 1 9.64996 15.919 -0.10325 9.64996 15.919 -0.10325
227 2 11.6681 16.0701 1.39264 11.6681 16.0701 1.39264
228 2 11.379 15.6783 -1.89057 11.379 15.6783 -1.89057
229 1 12.4995 14.192 -0.117031 12.4995 14.192 -0.117031
230 2 14.4991 14.1966 1.51075 14.4991 14.1966 1.51075
231 2 14.3319 14.0859 -1.79111 14.3319 14.0859 -1.79111
232 1 15.3752 15.8207 -0.286874 15.3752 15.8207 -0.286874
233 2 17.4607 15.9374 1.09755 17.4607 15.9374 1.09755
234 2 17.1448 15.7479 -2.11826 17.1448 15.7479 -2.11826
235 1 18.1991 14.1512 -0.496898 18.1991 14.1512 -0.496898
236 2 20.0601 14.2829 1.37688 20.0601 14.2829 1.37688
237 2 20.323 14.0959 -1.99429 20.323 14.0959 -1.99429
238 1 20.9964 15.8483 -0.265872 20.9964 15.8483 -0.265872
239 2 23.0227 15.9094 1.28595 23.0227 15.9094 1.28595
240 2 22.888 15.8118 -1.91259 22.888 15.8118 -1.91259
241 1 23.9241 14.1526 -0.372641 23.9241 14.1526 -0.372641
242 2 25.7628 14.0082 1.24419 25.7628 14.0082 1.24419
243 2 25.793 14.2544 -2.10222 25.793 14.2544 -2.10222
244 1 26.7619 15.7842 -0.249601 26.7619 15.7842 -0.249601
245 2 28.8423 15.6794 1.20362 28.8423 15.6794 1.20362
246 2 28.5973 15.8517 -2.01864 28.5973 15.8517 -2.01864
247 1 29.7113 14.1513 -0.526478 29.7113 14.1513 -0.526478
248 2 31.7117 14.0265 1.08603 31.7117 14.0265 1.08603
249 2 31.6524 14.3801 -2.12724 31.6524 14.3801 -2.12724
250 1 32.4688 15.8528 -0.316933 32.4688 15.8528 -0.316933
251 2 34.4698 15.6874 1.18983 34.4698 15.6874 1.18983
252 2 34.2416 16.0085 -2.04625 34.2416 16.0085 -2.04625
253 1 35.4215 14.1641 -0.609245 35.4215 14.1641 -0.609245
254 2 36.9878 14.1727 1.34245 36.9878 14.1727 1.34245
255 2 37.6103 14.1609 -1.85704 37.6103 14.1609 -1.85704
256 1 38.2181 15.9033 0.0269878 38.2181 15.9033 0.0269878
257 2 40.086 15.8423 1.71035 40.086 15.8423 1.71035
258 2 40.1456 15.7073 -1.49476 40.1456 15.7073 -1.49476
259 1 41.0878 14.1405 0.238884 41.0878 14.1405 0.238884
260 2 42.8911 14.3562 1.93759 42.8911 14.3562 1.93759
261 2 43.041 14.0684 -1.30381 43.041 14.0684 -1.30381
262 1 43.9591 15.8115 0.269705 43.9591 15.8115 0.269705
263 2 45.8572 15.9868 1.85893 45.8572 15.9868 1.85893
264 2 45.835 15.6671 -1.35445 45.835 15.6671 -1.35445
265 1 46.7996 14.3063 0.421474 46.7996 14.3063 0.421474
266 2 48.7241 14.4747 1.99609 48.7241 14.4747 1.99609
267 2 48.7409 13.9966 -1.21629 48.7409 13.9966 -1.21629
268 1 49.7403 15.8428 0.201427 49.7403 15.8428 0.201427
269 2 51.5566 16.0075 1.89346 51.5566 16.0075 1.89346
270 2 51.6768 15.7956 -1.35932 51.6768 15.7956 -1.35932
271 1 1.12042 17.5379 0.208379 1.12042 17.5379 0.208379
272 2 3.17568 17.7627 1.71784 3.17568 17.7627 1.71784
273 2 3.03382 17.3925 -1.52412 3.03382 17.3925 -1.52412
274 1 3.92611 19.2875 -0.174684 3.92611 19.2875 -0.174684
275 2 6.01304 19.4452 1.33955 6.01304 19.4452 1.33955
276 2 5.72529 19.0639 -1.83483 5.72529 19.0639 -1.83483
277 1 6.83276 17.5712 -0.128003 6.83276 17.5712 -0.128003
278 2 8.79082 17.7131 1.37376 8.79082 17.7131 1.37376
279 2 8.64062 17.4067 -1.92412 8.64062 17.4067 -1.92412
280 1 9.73412 19.1657 -0.545562 9.73412 19.1657 -0.545562
281 2 11.6388 19.239 0.981509 11.6388 19.239 0.981509
282 2 11.6328 18.9952 -2.23774 11.6328 18.9952 -2.23774
283 1 12.5553 17.4432 -0.463274 12.5553 17.4432 -0.463274
284 2 14.5557 17.7887 1.04189 14.5557 17.7887 1.04189
285 2 14.3067 17.0606 -2.1442 14.3067 17.0606 -2.1442
286 1 15.4166 19.1476 -0.954969 15.4166 19.1476 -0.954969
287 2 17.1345 19.0853 0.864389 17.1345 19.0853 0.864389
288 2 17.4959 19.1095 -2.35173 17.4959 19.1095 -2.35173
289 1 18.1935 17.4722 -0.687729 18.1935 17.4722 -0.687729
290 2 20.0285 17.6229 1.12007 20.0285 17.6229 1.12007
291 2 20.3483 17.3346 -2.12305 20.3483 17.3346 -2.12305
292 1 21.0552 19.1577 -0.555713 21.0552 19.1577 -0.555713
293 2 22.8878 19.2592 1.14653 22.8878 19.2592 1.14653
294 2 23.0252 19.1906 -2.13272 23.0252 19.1906 -2.13272
295 1 23.9716 17.4572 -0.388024 23.9716 17.4572 -0.388024
296 2 25.7904 17.4688 1.26405 25.7904 17.4688 1.26405
297 2 25.9083 17.4296 -1.96183 25.9083 17.4296 -1.96183
298 1 26.7914 19.1045 -0.356198 26.7914 19.1045 -0.356198
299 2 28.8249 19.2279 1.16116 28.8249 19.2279 1.16116
300 2 28.6181 18.8586 -2.134 28.6181 18.8586 -2.134
301 1 29.6315 17.4912 -0.411567 29.6315 17.4912 -0.411567
302 2 31.4847 17.6794 1.21622 31.4847 17.6794 1.21622
303 2 31.589 17.4719 -1.97391 31.589 17.4719 -1.97391
304 1 32.4955 19.2041 -0.457091 32.4955 19.2041 -0.457091
305 2 34.298 19.2072 1.3344 34.298 19.2072 1.3344
306 2 34.5945 19.2197 -1.90068 34.5945 19.2197 -1.90068
307 1 35.3546 17.4263 -0.246526 35.3546 17.4263 -0.246526
308 2 37.1306 17.6859 1.32671 37.1306 17.6859 1.32671
309 2 37.2843 17.2605 -1.81245 37.2843 17.2605 -1.81245
310 1 38.242 19.1221 -0.366751 38.242 19.1221 -0.366751
311 2 40.027 19.1812 1.53266 40.027 19.1812 1.53266
312 2 40.3339 19.0362 -1.85546 40.3339 19.0362 -1.85546
313 1 41.095 17.4068 0.0917892 41.095 17.4068 0.0917892
314 2 43.0125 17.6059 1.77919 43.0125 17.6059 1.77919
315 2 43.0276 17.2975 -1.56255 43.0276 17.2975 -1.56255
316 1 43.9757 19.1179 -0.0942892 43.9757 19.1179 -0.0942892
317 2 45.8591 19.2576 1.53471 45.8591 19.2576 1.53471
318 2 45.766 18.8267 -1.73436 45.766 18.8267 -1.73436
319 1 46.8172 17.4413 0.151112 46.8172 17.4413 0.151112
320 2 48.8551 17.7344 1.69222 48.8551 17.7344 1.69222
321 2 48.6624 17.3876 -1.58038 48.6624 17.3876 -1.58038
322 1 49.7068 19.232 -0.241325 49.7068 19.232 -0.241325
323 2 51.4311 19.4999 1.52116 51.4311 19.4999 1.52116
324 2 51.6018 18.9897 -1.73749 51.6018 18.9897 -1.73749
325 1 1.19966 20.8858 -0.379308 1.19966 20.8858 -0.379308
326 2 2.9499 21.0126 1.37543 2.9499 21.0126 1.37543
327 2 3.22215 20.9879 -1.90886 3.22215 20.9879 -1.90886
328 1 4.03793 22.5812 -0.166161 4.03793 22.5812 -0.166161
329 2 5.97698 22.3874 1.30713 5.97698 22.3874 1.30713
330 2 5.8267 22.5961 -1.92056 5.8267 22.5961 -1.92056
331 1 6.77272 20.8649 -0.516173 6.77272 20.8649 -0.516173
332 2 8.682 20.7307 1.15677 8.682 20.7307 1.15677
333 2 8.67205 20.7916 -2.19447 8.67205 20.7916 -2.19447
334 1 9.70367 22.4777 -0.390348 9.70367 22.4777 -0.390348
335 2 11.8602 22.3563 0.914278 11.8602 22.3563 0.914278
336 2 11.3911 22.5964 -2.27905 11.3911 22.5964 -2.27905
337 1 12.5418 20.7765 -0.874907 12.5418 20.7765 -0.874907
338 2 14.4619 20.6477 0.762787 14.4619 20.6477 0.762787
339 2 14.5356 20.8895 -2.48829 14.5356 20.8895 -2.48829
340 1 15.3621 22.4311 -0.637197 15.3621 22.4311 -0.637197
341 2 17.3062 22.4382 0.98525 17.3062 22.4382 0.98525
342 2 17.2828 22.3664 -2.25178 17.2828 22.3664 -2.25178
343 1 18.2709 20.7675 -0.618942 18.2709 20.7675 -0.618942
344 2 20.12 20.8537 0.980609 20.12 20.8537 0.980609
345 2 20.0874 20.5538 -2.30771 20.0874 20.5538 -2.30771
346 1 21.0668 22.3651 -0.883935 21.0668 22.3651 -0.883935
347 2 22.7409 22.4544 0.951049 22.7409 22.4544 0.951049
348 2 23.1992 22.4414 -2.35496 23.1992 22.4414 -2.35496
349 1 23.9768 20.8304 -0.520886 23.9768 20.8304 -0.520886
350 2 25.7464 20.7693 1.18846 25.7464 20.7693 1.18846
351 2 25.8485 20.749 -2.11347 25.8485 20.749 -2.11347
352 1 26.756 22.4048 -0.533877 26.756 22.4048 -0.533877
353 2 28.6004 22.3519 1.03164 28.6004 22.3519 1.03164
354 2 28.6572 22.5158 -2.26692 28.6572 22.5158 -2.26692
355 1 29.6341 20.8024 -0.690255 29.6341 20.8024 -0.690255
356 2 31.3907 20.8635 1.15795 31.3907 20.8635 1.15795
357 2 31.6887 20.8064 -2.06073 31.6887 20.8064 -2.06073
358 1 32.4811 22.4981 -0.287857 32.4811 22.4981 -0.287857
359 2 34.3057 22.5026 1.51227 34.3057 22.5026 1.51227
360 2 34.5146 22.6521 -1.77402 34.5146 22.6521 -1.77402
361 1 35.404 20.8614 -0.199902 35.404 20.8614 -0.199902
362 2 37.3715 20.7837 1.34754 37.3715 20.7837 1.34754
363 2 37.2653 20.8344 -1.86019 37.2653 20.8344 -1.86019
364 1 38.2729 22.5138 -0.112811 38.2729 22.5138 -0.112811
365 2 40.2147 22.4537 1.37914 40.2147 22.4537 1.37914
366 2 39.9939 22.3427 -1.85165 39.9939 22.3427 -1.85165
367 1 41.0835 20.8258 -0.224437 41.0835 20.8258 -0.224437
368 2 42.8961 20.657 1.52818 42.8961 20.657 1.52818
369 2 43.0636 21.0031 -1.8072 43.0636 21.0031 -1.8072
370 1 43.9187 22.4207 -0.1121 43.9187 22.4207 -0.1121
371 2 45.8729 22.5268 1.34083 45.8729 22.5268 1.34083
372 2 45.6104 22.2951 -1.91329 45.6104 22.2951 -1.91329
373 1 46.7595 20.749 -0.249959 46.7595 20.749 -0.249959
374 2 48.6169 20.8207 1.36186 48.6169 20.8207 1.36186
375 2 48.5642 20.7423 -1.8691 48.5642 20.7423 -1.8691
376 1 49.5802 22.4309 -0.278002 49.5802 22.4309 -0.278002
377 2 51.4952 22.4219 1.31695 51.4952 22.4219 1.31695
378 2 51.5156 22.6335 -1.90559 51.5156 22.6335 -1.90559
379 1 1.14178 24.2008 -0.123891 1.14178 24.2008 -0.123891
380 2 3.06507 24.2295 1.47974 3.06507 24.2295 1.47974
381 2 3.03008 24.103 -1.81165 3.03008 24.103 -1.81165
382 1 4.01637 25.8246 -0.371162 4.01637 25.8246 -0.371162
383 2 5.87428 25.7646 1.19293 5.87428 25.7646 1.19293
384 2 5.95158 25.6739 -1.967 5.95158 25.6739 -1.967
385 1 6.84882 24.0599 -0.290837 6.84882 24.0599 -0.290837
386 2 8.74949 23.9885 1.2443 8.74949 23.9885 1.2443
387 2 8.7522 24.1654 -1.94231 8.7522 24.1654 -1.94231
388 1 9.73663 25.7572 -0.299788 9.73663 25.7572 -0.299788
389 2 11.8145 25.6299 1.16663 11.8145 25.6299 1.16663
390 2 11.4624 25.7165 -2.15497 11.4624 25.7165 -2.15497
391 1 12.5479 24.0497 -0.632582 12.5479 24.0497 -0.632582
392 2 14.4362 24.1194 1.01144 14.4362 24.1194 1.01144
393 2 14.3788 24.051 -2.34549 14.3788 24.051 -2.34549
394 1 15.3529 25.7857 -0.630724 15.3529 25.7857 -0.630724
395 2 17.1324 25.6494 1.05253 17.1324 25.6494 1.05253
396 2 17.2625 25.8741 -2.18704 17.2625 25.8741 -2.18704
397 1 18.2329 24.0883 -0.732398 18.2329 24.0883 -0.732398
398 2 19.9945 23.8645 0.921968 19.9945 23.8645 0.921968
399 2 20.0803 24.2309 -2.3345 20.0803 24.2309 -2.3345
400 1 21.0445 25.6974 -0.451046 21.0445 25.6974 -0.451046
401 2 23.0469 25.7135 1.02889 23.0469 25.7135 1.02889
402 2 22.8259 25.7747 -2.24399 22.8259 25.7747 -2.24399
403 1 23.9046 24.0496 -0.593124 23.9046 24.0496 -0.593124
404 2 25.857 24.0463 1.06921 25.857 24.0463 1.06921
405 2 25.8687 23.9737 -2.22588 25.8687 23.9737 -2.22588
406 1 26.7042 25.6482 -0.60759 26.7042 25.6482 -0.60759
407 2 28.5605 25.6677 1.09763 28.5605 25.6677 1.09763
408 2 28.6632 25.6605 -2.22232 28.6632 25.6605 -2.22232
409 1 29.6607 24.0072 -0.503141 29.6607 24.0072 -0.503141
410 2 31.4202 24.0491 1.28474 31.4202 24.0491 1.28474
411 2 31.7031 24.1972 -1.91354 31.7031 24.1972 -1.91354
412 1 32.502 25.826 -0.0853614 32.502 25.826 -0.0853614
413 2 34.2744 25.8819 1.59317 34.2744 25.8819 1.59317
414 2 34.3585 25.7475 -1.73094 34.3585 25.7475 -1.73094
415 1 35.337 24.2477 0.0103597 35.337 24.2477 0.0103597
416 2 37.2352 24.2618 1.54124 37.2352 24.2618 1.54124
417 2 37.1447 24.0738 -1.68633 37.1447 24.0738 -1.68633
418 1 38.2187 25.7595 -0.213631 38.2187 25.7595 -0.213631
419 2 40.0421 25.6092 1.39439 40.0421 25.6092 1.39439
420 2 40.1534 25.8882 -1.86609 40.1534 25.8882 -1.86609
421 1 41.1128 24.1217 -0.370939 41.1128 24.1217 -0.370939
422 2 42.8655 24.21 1.43297 42.8655 24.21 1.43297
423 2 43.1168 24.0962 -1.892 43.1168 24.0962 -1.892
424 1 43.8863 25.8877 -0.114407 43.8863 25.8877 -0.114407
425 2 45.9759 25.7729 1.25155 45.9759 25.7729 1.25155
426 2 45.5637 25.8372 -1.87282 45.5637 25.8372 -1.87282
427 1 46.6683 24.0818 -0.457573 46.6683 24.0818 -0.457573
428 2 48.5686 24.0263 1.31464 48.5686 24.0263 1.31464
429 2 48.7463 24.1188 -2.00398 48.7463 24.1188 -2.00398
430 1 49.5337 25.7522 -0.160074 49.5337 25.7522 -0.160074
431 2 51.5021 25.9347 1.46827 51.5021 25.9347 1.46827
432 2 51.5388 25.7986 -1.86808 51.5388 25.7986 -1.86808
433 1 1.14325 27.4804 -0.229 1.14325 27.4804 -0.229
434 2 3.09266 27.5505 1.24852 3.09266 27.5505 1.24852
435 2 2.88402 27.4092 -1.90834 2.88402 27.4092 -1.90834
436 1 4.02223 29.0635 -0.350133 4.02223 29.0635 -0.350133
437 2 5.96458 29.0026 1.27216 5.96458 29.0026 1.27216
438 2 5.92854 29.0454 -1.93409 5.92854 29.0454 -1.93409
439 1 6.95107 27.3894 -0.356674 6.95107 27.3894 -0.356674
440 2 8.7863 27.462 1.29756 8.7863 27.462 1.29756
441 2 8.88834 27.3757 -1.95316 8.88834 27.3757 -1.95316
442 1 9.86142 29.0372 -0.419178 9.86142 29.0372 -0.419178
443 2 11.8748 28.9987 1.06441 11.8748 28.9987 1.06441
444 2 11.6552 28.9309 -2.27455 11.6552 28.9309 -2.27455
445 1 12.6109 27.375 -0.604558 12.6109 27.375 -0.604558
446 2 14.533 27.4821 0.948988 14.533 27.4821 0.948988
447 2 14.3391 27.3781 -2.31994 14.3391 27.3781 -2.31994
448 1 15.4705 29.0599 -0.862088 15.4705 29.0599 -0.862088
449 2 17.2291 29.1282 1.01904 17.2291 29.1282 1.01904
450 2 17.5449 28.9802 -2.295 17.5449 28.9802 -2.295
451 1 18.1714 27.364 -0.467553 18.1714 27.364 -0.467553
452 2 20.1568 27.3351 1.14918 20.1568 27.3351 1.14918
453 2 20.1355 27.3163 -2.16903 20.1355 27.3163 -2.16903
454 1 21.1045 28.9086 -0.480786 21.1045 28.9086 -0.480786
455 2 23.1144 28.9858 1.16808 23.1144 28.9858 1.16808
456 2 23.0288 29.0086 -2.21595 23.0288 29.0086 -2.21595
457 1 23.9526 27.3906 -0.637429 23.9526 27.3906 -0.637429
458 2 25.8679 27.3845 1.02015 25.8679 27.3845 1.02015
459 2 25.8376 27.4577 -2.30679 25.8376 27.4577 -2.30679
460 1 26.7275 28.8791 -0.609034 26.7275 28.8791 -0.609034
461 2 28.6453 29.0708 0.942715 28.6453 29.0708 0.942715
462 2 28.6583 28.8151 -2.30187 28.6583 28.8151 -2.30187
463 1 29.5995 27.3416 -0.562888 29.5995 27.3416 -0.562888
464 2 31.3505 27.4977 1.25145 31.3505 27.4977 1.25145
465 2 31.7138 27.2931 -1.80823 31.7138 27.2931 -1.80823
466 1 32.4792 29.0692 -0.331598 32.4792 29.0692 -0.331598
467 2 34.2082 29.095 1.5412 34.2082 29.095 1.5412
468 2 34.4857 28.9967 -1.81779 34.4857 28.9967 -1.81779
469 1 35.3296 27.4684 -0.0289591 35.3296 27.4684 -0.0289591
470 2 37.275 27.2216 1.62423 37.275 27.2216 1.62423
471 2 37.2107 27.5121 -1.69877 37.2107 27.5121 -1.69877
472 1 38.2213 29.0926 0.160385 38.2213 29.0926 0.160385
473 2 40.1572 28.9626 1.74166 40.1572 28.9626 1.74166
474 2 39.9119 29.1355 -1.62512 39.9119 29.1355 -1.62512
475 1 40.9797 27.3983 -0.0792991 40.9797 27.3983 -0.0792991
476 2 42.9085 27.5857 1.46947 42.9085 27.5857 1.46947
477 2 42.8858 27.5594 -1.79083 42.8858 27.5594 -1.79083
478 1 43.9308 29.119 -0.162236 43.9308 29.119 -0.162236
479 2 45.9609 29.0764 1.26897 45.9609 29.0764 1.26897
480 2 45.7479 29.0897 -1.88661 45.7479 29.0897 -1.88661
481 1 46.799 27.4125 -0.386085 46.799 27.4125 -0.386085
482 2 48.611 27.5984 1.33654 48.611 27.5984 1.33654
483 2 48.6267 27.3287 -1.8967 48.6267 27.3287 -1.8967
484 1 49.6443 29.1268 -0.3067 49.6443 29.1268 -0.3067
485 2 51.572 29.1204 1.31344 51.572 29.1204 1.31344
486 2 51.5153 28.9414 -1.98995 51.5153 28.9414 -1.98995
487 1 1.17357 30.7489 -0.479165 1.17357 30.7489 -0.479165
488 2 3.08701 30.8636 1.22843 3.08701 30.8636 1.22843
489 2 3.11163 30.5879 -2.02604 3.11163 30.5879 -2.02604
490 1 4.12134 32.2918 -0.497005 4.12134 32.2918 -0.497005
491 2 5.86908 32.2748 1.12279 5.86908 32.2748 1.12279
492 2 6.03292 32.3049 -2.06669 6.03292 32.3049 -2.06669
493 1 6.92369 30.7092 -0.385461 6.92369 30.7092 -0.385461
494 2 8.92522 30.756 1.12859 8.92522 30.756 1.12859
495 2 8.84846 30.5522 -2.13441 8.84846 30.5522 -2.13441
496 1 9.72233 32.2535 -0.667023 9.72233 32.2535 -0.667023
497 2 11.7962 32.3634 0.928957 11.7962 32.3634 0.928957
498 2 11.7176 32.2408 -2.37217 11.7176 32.2408 -2.37217
499 1 12.6964 30.6746 -0.665167 12.6964 30.6746 -0.665167
500 2 14.6155 30.5135 0.867901 14.6155 30.5135 0.867901
501 2 14.4352 30.8949 -2.34907 14.4352 30.8949 -2.34907
502 1 15.4273 32.3782 -0.670172 15.4273 32.3782 -0.670172
503 2 17.2408 32.4411 0.925514 17.2408 32.4411 0.925514
504 2 17.2406 32.2226 -2.29795 17.2406 32.2226 -2.29795
505 1 18.2633 30.6081 -0.623836 18.2633 30.6081 -0.623836
506 2 20.2103 30.7692 1.10025 20.2103 30.7692 1.10025
507 2 20.1601 30.5023 -2.24925 20.1601 30.5023 -2.24925
508 1 21.0816 32.3557 -0.651305 21.0816 32.3557 -0.651305
509 2 22.9283 32.2408 1.14132 22.9283 32.2408 1.14132
510 2 22.9921 32.3743 -2.24535 22.9921 32.3743 -2.24535
511 1 23.9315 30.623 -0.442857 23.9315 30.623 -0.442857
512 2 25.9503 30.4849 1.13744 25.9503 30.4849 1.13744
513 2 25.7306 30.6551 -2.16753 25.7306 30.6551 -2.16753
514 1 26.7831 32.2435 -0.69797 26.7831 32.2435 -0.69797
515 2 28.6468 32.1598 0.942968 28.6468 32.1598 0.942968
516 2 28.737 32.2442 -2.36767 28.737 32.2442 -2.36767
517 1 29.625 30.6135 -0.771889 29.625 30.6135 -0.771889
518 2 31.3377 30.7227 1.06968 31.3377 30.7227 1.06968
519 2 31.6584 30.4832 -2.18093 31.6584 30.4832 -2.18093
520 1 32.5361 32.1903 -0.457868 32.5361 32.1903 -0.457868
521 2 34.2176 32.3796 1.33409 34.2176 32.3796 1.33409
522 2 34.5983 32.3728 -1.89535 34.5983 32.3728 -1.89535
523 1 35.3155 30.6365 -0.139508 35.3155 30.6365 -0.139508
524 2 37.0633 30.7223 1.67233 37.0633 30.7223 1.67233
525 2 37.3848 30.7399 -1.55837 37.3848 30.7399 -1.55837
526 1 38.2316 32.3009 0.0984273 38.2316 32.3009 0.0984273
527 2 40.1778 32.3377 1.63801 40.1778 32.3377 1.63801
528 2 40.0455 32.3216 -1.62384 40.0455 32.3216 -1.62384
529 1 41.0772 30.6451 0.00457368 41.0772 30.6451 0.00457368
530 2 43.1405 30.8805 1.44643 43.1405 30.8805 1.44643
531 2 42.8468 30.5611 -1.76306 42.8468 30.5611 -1.76306
532 1 43.9133 32.3544 -0.336485 43.9133 32.3544 -0.336485
533 2 45.9268 32.3884 1.20475 45.9268 32.3884 1.20475
534 2 45.7198 32.2917 -2.00141 45.7198 32.2917 -2.00141
535 1 46.7901 30.7239 -0.380561 46.7901 30.7239 -0.380561
536 2 48.7069 30.8903 1.20197 48.7069 30.8903 1.20197
537 2 48.6959 30.586 -2.05564 48.6959 30.586 -2.05564
538 1 49.6532 32.3594 -0.502586 49.6532 32.3594 -0.502586