ITEM: TIMESTEP
48800
ITEM: NUMBER OF ATOMS
810
ITEM: BOX BOUNDS pp pp pp
8.4137701477268123e-01 5.2176227985227342e+01
8.0961581116522285e-01 5.0206599188834083e+01
-1.0000000000000000e+01 1.0000000000000000e+01
ITEM: ATOMS id type x y z xu yu zu
1 1 1.03943 1.01104 0.66844 1.03943 1.01104 0.66844
2 2 3.05386 0.86899 2.21896 3.05386 0.86899 2.21896
3 2 2.89738 1.14271 -1.08 2.89738 1.14271 -1.08
4 1 3.9378 2.63874 0.695189 3.9378 2.63874 0.695189
5 2 6.00143 2.54257 2.06801 6.00143 2.54257 2.06801
6 2 5.57473 2.66074 -1.14447 5.57473 2.66074 -1.14447
7 1 6.7908 0.938739 0.24985 6.7908 0.938739 0.24985
8 2 8.77159 50.1677 1.70578 8.77159 0.770725 1.70578
9 2 8.47624 1.20347 -1.54546 8.47624 1.20347 -1.54546
10 1 9.66945 2.53781 0.182934 9.66945 2.53781 0.182934
11 2 11.7728 2.35737 1.60284 11.7728 2.35737 1.60284
12 2 11.403 2.74418 -1.62595 11.403 2.74418 -1.62595
13 1 12.5058 0.959355 -0.35113 12.5058 0.959355 -0.35113
14 2 14.4095 50.1605 1.17992 14.4095 0.763509 1.17992
15 2 14.2958 1.07338 -2.07953 14.2958 1.07338 -2.07953
16 1 15.3063 2.70903 -0.425434 15.3063 2.70903 -0.425434
17 2 17.1516 2.58449 1.20607 17.1516 2.58449 1.20607
18 2 17.1577 2.74812 -2.02159 17.1577 2.74812 -2.02159
19 1 18.1066 0.999925 -0.47414 18.1066 0.999925 -0.47414
20 2 19.9142 0.915675 1.17992 19.9142 0.915675 1.17992
21 2 20.0404 1.31465 -2.03777 20.0404 1.31465 -2.03777
22 1 20.9932 2.74781 -0.212198 20.9932 2.74781 -0.212198
23 2 23.1017 2.72394 1.16602 23.1017 2.72394 1.16602
24 2 22.71 2.7834 -2.04723 22.71 2.7834 -2.04723
25 1 23.8738 1.02242 -0.53415 23.8738 1.02242 -0.53415
26 2 25.8836 50.2698 0.9102 25.8836 0.87282 0.9102
27 2 25.6535 1.36416 -2.27245 25.6535 1.36416 -2.27245
28 1 26.8205 2.75599 -0.591353 26.8205 2.75599 -0.591353
29 2 28.5481 2.54455 1.23295 28.5481 2.54455 1.23295
30 2 28.74 2.82617 -2.16783 28.74 2.82617 -2.16783
31 1 29.6187 1.02738 -0.610161 29.6187 1.02738 -0.610161
32 2 31.488 0.970277 1.14083 31.488 0.970277 1.14083
33 2 31.7587 1.16852 -2.17241 31.7587 1.16852 -2.17241
34 1 32.4785 2.67113 -0.270087 32.4785 2.67113 -0.270087
35 2 34.4296 2.46086 1.28618 34.4296 2.46086 1.28618
36 2 34.4014 2.88361 -1.84178 34.4014 2.88361 -1.84178
37 1 35.4238 0.996284 -0.458072 35.4238 0.996284 -0.458072
38 2 37.1808 1.08016 1.35195 37.1808 1.08016 1.35195
39 2 37.5035 1.19869 -1.93595 37.5035 1.19869 -1.93595
40 1 38.2492 2.739 -0.182713 38.2492 2.739 -0.182713
41 2 39.953 2.6267 1.65805 39.953 2.6267 1.65805
42 2 40.3767 2.94392 -1.60178 40.3767 2.94392 -1.60178
43 1 41.122 1.04916 -0.0535551 41.122 1.04916 -0.0535551
44 2 43.0736 0.956316 1.60166 43.0736 0.956316 1.60166
45 2 42.9589 1.38161 -1.70458 42.9589 1.38161 -1.70458
46 1 43.9058 2.81078 0.178666 43.9058 2.81078 0.178666
47 2 45.6955 2.57704 2.03054 45.6955 2.57704 2.03054
48 2 45.9977 3.01353 -1.29755 45.9977 3.01353 -1.29755
49 1 46.8121 1.19826 0.238878 46.8121 1.19826 0.238878
50 2 48.4364 0.859949 2.08473 48.4364 0.859949 2.08473
51 2 48.8289 1.41187 -1.12956 48.8289 1.41187 -1.12956
52 1 49.5604 2.84524 0.861603 49.5604 2.84524 0.861603
53 2 51.4379 2.81353 2.43299 51.4379 2.81353 2.43299
54 2 51.4159 2.85314 -0.811487 51.4159 2.85314 -0.811487
55 1 1.14019 4.41389 0.684145 1.14019 4.41389 0.684145
56 2 3.05442 4.21029 2.39287 3.05442 4.21029 2.39287
57 2 3.05657 4.33013 -0.87069 3.05657 4.33013 -0.87069
58 1 3.8932 5.95744 0.880858 3.8932 5.95744 0.880858
59 2 6.10288 6.01589 2.17669 6.10288 6.01589 2.17669
60 2 5.52488 6.06009 -1.02222 5.52488 6.06009 -1.02222
61 1 6.77328 4.30458 0.407767 6.77328 4.30458 0.407767
62 2 8.8986 4.2852 1.8271 8.8986 4.2852 1.8271
63 2 8.48993 4.26513 -1.382 8.48993 4.26513 -1.382
64 1 9.58609 5.92812 0.14504 9.58609 5.92812 0.14504
65 2 11.6008 6.07178 1.73925 11.6008 6.07178 1.73925
66 2 11.3418 5.98403 -1.60155 11.3418 5.98403 -1.60155
67 1 12.4541 4.35455 0.121023 12.4541 4.35455 0.121023
68 2 14.4813 4.15153 1.4995 14.4813 4.15153 1.4995
69 2 14.1673 4.53269 -1.71908 14.1673 4.53269 -1.71908
70 1 15.3394 5.91945 -0.0217569 15.3394 5.91945 -0.0217569
71 2 17.3088 5.92551 1.47749 17.3088 5.92551 1.47749
72 2 17.1064 6.12122 -1.74645 17.1064 6.12122 -1.74645
73 1 18.158 4.36192 -0.324884 18.158 4.36192 -0.324884
74 2 20.0675 4.43645 1.27273 20.0675 4.43645 1.27273
75 2 20.1456 4.36072 -1.9327 20.1456 4.36072 -1.9327
76 1 21.1511 6.0327 -0.330955 21.1511 6.0327 -0.330955
77 2 23.1258 5.83147 1.26885 23.1258 5.83147 1.26885
78 2 22.9295 5.93979 -2.02795 22.9295 5.93979 -2.02795
79 1 23.886 4.37197 -0.508428 23.886 4.37197 -0.508428
80 2 25.7898 4.09298 1.23805 25.7898 4.09298 1.23805
81 2 25.8312 4.49919 -2.0155 25.8312 4.49919 -2.0155
82 1 26.7041 5.94848 -0.181627 26.7041 5.94848 -0.181627
83 2 28.5879 5.92254 1.45513 28.5879 5.92254 1.45513
84 2 28.7395 6.0093 -1.76304 28.7395 6.0093 -1.76304
85 1 29.5655 4.20922 -0.158679 29.5655 4.20922 -0.158679
86 2 31.5307 4.33869 1.3959 31.5307 4.33869 1.3959
87 2 31.4879 4.4164 -1.80248 31.4879 4.4164 -1.80248
88 1 32.5282 5.97403 -0.230795 32.5282 5.97403 -0.230795
89 2 34.3202 5.77786 1.55993 34.3202 5.77786 1.55993
90 2 34.6423 6.17558 -1.74386 34.6423 6.17558 -1.74386
91 1 35.3819 4.2748 -0.186187 35.3819 4.2748 -0.186187
92 2 37.1795 4.09112 1.5998 37.1795 4.09112 1.5998
93 2 37.3802 4.5364 -1.65262 37.3802 4.5364 -1.65262
94 1 38.2313 6.06751 0.322874 38.2313 6.06751 0.322874
95 2 40.0809 5.87753 2.04587 40.0809 5.87753 2.04587
96 2 40.1947 6.39902 -1.26248 40.1947 6.39902 -1.26248
97 1 41.0477 4.45181 0.227082 41.0477 4.45181 0.227082
98 2 42.878 4.21686 1.96615 42.878 4.21686 1.96615
99 2 43.1103 4.67117 -1.30159 43.1103 4.67117 -1.30159
100 1 43.9003 6.08413 0.582933 43.9003 6.08413 0.582933
101 2 45.6147 5.93022 2.3524 45.6147 5.93022 2.3524
102 2 45.8819 6.03396 -0.825147 45.8819 6.03396 -0.825147
103 1 46.6829 4.39837 0.666985 46.6829 4.39837 0.666985
104 2 48.5203 4.42735 2.52691 48.5203 4.42735 2.52691
105 2 48.6869 4.50612 -0.81485 48.6869 4.50612 -0.81485
106 1 49.5832 6.07982 0.902077 49.5832 6.07982 0.902077
107 2 51.5996 5.9632 2.42668 51.5996 5.9632 2.42668
108 2 51.3372 6.10321 -0.823774 51.3372 6.10321 -0.823774
109 1 1.11412 7.68209 0.830186 1.11412 7.68209 0.830186
110 2 2.95131 7.67286 2.45401 2.95131 7.67286 2.45401
111 2 2.87186 7.49826 -0.759081 2.87186 7.49826 -0.759081
112 1 3.89598 9.23572 0.698325 3.89598 9.23572 0.698325
113 2 5.9217 9.54143 2.09875 5.9217 9.54143 2.09875
114 2 5.61069 9.06896 -1.14384 5.61069 9.06896 -1.14384
115 1 6.78141 7.66882 0.466638 6.78141 7.66882 0.466638
116 2 8.67352 7.58298 1.93948 8.67352 7.58298 1.93948
117 2 8.5086 7.65006 -1.44923 8.5086 7.65006 -1.44923
118 1 9.57621 9.2306 0.202447 9.57621 9.2306 0.202447
119 2 11.5901 9.40476 1.73762 11.5901 9.40476 1.73762
120 2 11.4494 9.18187 -1.59491 11.4494 9.18187 -1.59491
121 1 12.4732 7.63751 0.104809 12.4732 7.63751 0.104809
122 2 14.4293 7.5692 1.70966 14.4293 7.5692 1.70966
123 2 14.3587 7.63479 -1.63555 14.3587 7.63479 -1.63555
124 1 15.2783 9.29783 0.0296308 15.2783 9.29783 0.0296308
125 2 17.2581 9.35008 1.52286 17.2581 9.35008 1.52286
126 2 17.0979 9.16786 -1.79403 17.0979 9.16786 -1.79403
127 1 18.1292 7.63718 -0.0872227 18.1292 7.63718 -0.0872227
128 2 20.1646 7.60547 1.37828 20.1646 7.60547 1.37828
129 2 19.9503 7.5146 -1.92478 19.9503 7.5146 -1.92478
130 1 20.9451 9.27838 -0.404347 20.9451 9.27838 -0.404347
131 2 22.7423 9.27913 1.33555 22.7423 9.27913 1.33555
132 2 22.7531 9.27235 -1.95214 22.7531 9.27235 -1.95214
133 1 23.8429 7.6204 -0.340859 23.8429 7.6204 -0.340859
134 2 25.6307 7.6162 1.37643 25.6307 7.6162 1.37643
135 2 25.8023 7.6043 -1.82655 25.8023 7.6043 -1.82655
136 1 26.7192 9.23531 -0.173581 26.7192 9.23531 -0.173581
137 2 28.5109 9.21775 1.57077 28.5109 9.21775 1.57077
138 2 28.7653 9.3186 -1.64325 28.7653 9.3186 -1.64325
139 1 29.6158 7.55606 -0.100378 29.6158 7.55606 -0.100378
140 2 31.5883 7.4244 1.5798 31.5883 7.4244 1.5798
141 2 31.5535 7.70022 -1.74662 31.5535 7.70022 -1.74662
142 1 32.4936 9.2367 0.0333397 32.4936 9.2367 0.0333397
143 2 34.3401 9.14476 1.79156 34.3401 9.14476 1.79156
144 2 34.5639 9.35463 -1.49558 34.5639 9.35463 -1.49558
145 1 35.3412 7.6034 0.108443 35.3412 7.6034 0.108443
146 2 37.1318 7.6161 1.86645 37.1318 7.6161 1.86645
147 2 37.4936 7.61891 -1.32901 37.4936 7.61891 -1.32901
148 1 38.1567 9.33921 0.525891 38.1567 9.33921 0.525891
149 2 39.898 9.25565 2.38439 39.898 9.25565 2.38439
150 2 40.1887 9.43426 -0.927315 40.1887 9.43426 -0.927315
151 1 40.9712 7.66515 0.726974 40.9712 7.66515 0.726974
152 2 42.8554 7.47147 2.41153 42.8554 7.47147 2.41153
153 2 42.9089 7.96541 -0.80623 42.9089 7.96541 -0.80623
154 1 43.7453 9.32886 1.08551 43.7453 9.32886 1.08551
155 2 45.6131 9.22551 2.65215 45.6131 9.22551 2.65215
156 2 45.7505 9.31559 -0.622555 45.7505 9.31559 -0.622555
157 1 46.7394 7.73117 0.986102 46.7394 7.73117 0.986102
158 2 48.5731 7.62265 2.64403 48.5731 7.62265 2.64403
159 2 48.692 7.76171 -0.677142 48.692 7.76171 -0.677142
160 1 49.5755 9.35137 1.07175 49.5755 9.35137 1.07175
161 2 51.6127 9.27297 2.50282 51.6127 9.27297 2.50282
162 2 51.445 9.47411 -0.648394 51.445 9.47411 -0.648394
163 1 1.059 11.0002 0.930981 1.059 11.0002 0.930981
164 2 3.07963 10.9645 2.51409 3.07963 10.9645 2.51409
165 2 2.87795 11.0365 -0.766996 2.87795 11.0365 -0.766996
166 1 3.93708 12.6221 0.843298 3.93708 12.6221 0.843298
167 2 6.17877 12.5649 1.99624 6.17877 12.5649 1.99624
168 2 5.43657 12.5424 -1.15927 5.43657 12.5424 -1.15927
169 1 6.69232 10.9627 0.188237 6.69232 10.9627 0.188237
170 2 8.61739 10.797 1.76526 8.61739 10.797 1.76526
171 2 8.61382 10.9543 -1.47528 8.61382 10.9543 -1.47528
172 1 9.57516 12.5526 0.110432 9.57516 12.5526 0.110432
173 2 11.566 12.714 1.59674 11.566 12.714 1.59674
174 2 11.4657 12.4564 -1.68872 11.4657 12.4564 -1.68872
175 1 12.3729 10.9137 -0.0785276 12.3729 10.9137 -0.0785276
176 2 14.3037 11.0473 1.48052 14.3037 11.0473 1.48052
177 2 14.3798 10.751 -1.73424 14.3798 10.751 -1.73424
178 1 15.2367 12.5443 -0.294918 15.2367 12.5443 -0.294918
179 2 17.1681 12.5107 1.3572 17.1681 12.5107 1.3572
180 2 17.2313 12.6791 -1.93334 17.2313 12.6791 -1.93334
181 1 18.0925 10.8936 -0.256338 18.0925 10.8936 -0.256338
182 2 20.1008 10.803 1.26673 20.1008 10.803 1.26673
183 2 19.9598 11.0419 -1.92321 19.9598 11.0419 -1.92321
184 1 20.9331 12.5949 -0.224839 20.9331 12.5949 -0.224839
185 2 22.8053 12.5156 1.44925 22.8053 12.5156 1.44925
186 2 22.8613 12.6611 -1.86858 22.8613 12.6611 -1.86858
187 1 23.8148 10.9337 -0.305348 23.8148 10.9337 -0.305348
188 2 25.6757 10.8931 1.32703 25.6757 10.8931 1.32703
189 2 25.829 10.8861 -1.74971 25.829 10.8861 -1.74971
190 1 26.6851 12.5454 -0.245934 26.6851 12.5454 -0.245934
191 2 28.2997 12.5049 1.6032 28.2997 12.5049 1.6032
192 2 28.7708 12.5976 -1.61128 28.7708 12.5976 -1.61128
193 1 29.6064 10.928 0.0771579 29.6064 10.928 0.0771579
194 2 31.6727 10.7507 1.74118 31.6727 10.7507 1.74118
195 2 31.4752 11.0729 -1.5003 31.4752 11.0729 -1.5003
196 1 32.3956 12.6168 0.317281 32.3956 12.6168 0.317281
197 2 34.2961 12.2883 2.01801 34.2961 12.2883 2.01801
198 2 34.5403 12.8653 -1.25273 34.5403 12.8653 -1.25273
199 1 35.3858 10.9722 0.275559 35.3858 10.9722 0.275559
200 2 37.0698 10.8945 2.10029 37.0698 10.8945 2.10029
201 2 37.4553 10.9802 -1.13722 37.4553 10.9802 -1.13722
202 1 38.0833 12.6416 0.693103 38.0833 12.6416 0.693103
203 2 39.8139 12.6352 2.54307 39.8139 12.6352 2.54307
204 2 40.2027 12.7646 -0.792906 40.2027 12.7646 -0.792906
205 1 40.9723 11.0234 0.930823 40.9723 11.0234 0.930823
206 2 42.8746 10.8581 2.74327 42.8746 10.8581 2.74327
207 2 42.9529 11.0994 -0.580958 42.9529 11.0994 -0.580958
208 1 43.7869 12.6504 1.21316 43.7869 12.6504 1.21316
209 2 45.8429 12.6098 2.8294 45.8429 12.6098 2.8294
210 2 45.6397 12.6993 -0.499839 45.6397 12.6993 -0.499839
211 1 46.6638 11.0658 1.13826 46.6638 11.0658 1.13826
212 2 48.6082 11.0749 2.69639 48.6082 11.0749 2.69639
213 2 48.5239 10.9441 -0.495273 48.5239 10.9441 -0.495273
214 1 49.5101 12.6774 1.01203 49.5101 12.6774 1.01203
215 2 51.4089 12.5018 2.65303 51.4089 12.5018 2.65303
216 2 51.4947 12.8659 -0.536477 51.4947 12.8659 -0.536477
217 1 1.0619 14.2937 1.24962 1.0619 14.2937 1.24962
218 2 3.16964 14.3847 2.54355 3.16964 14.3847 2.54355
219 2 2.82617 14.1906 -0.69737 2.82617 14.1906 -0.69737
220 1 3.973 15.8403 0.749944 3.973 15.8403 0.749944
221 2 6.09446 15.9285 1.95947 6.09446 15.9285 1.95947
222 2 5.43971 15.8918 -1.24083 5.43971 15.8918 -1.24083
223 1 6.81737 14.2911 0.215016 6.81737 14.2911 0.215016
224 2 8.85848 14.2696 1.66237 8.85848 14.2696 1.66237
225 2 8.59285 14.1759 -1.58449 8.59285 14.1759 -1.58449
226 1 9.65244 15.9176 -0.152804 9.65244 15.9176 -0.152804
227 2 11.5936 16.1151 1.33108 11.5936 16.1151 1.33108
228 2 11.4538 15.8758 -1.86419 11.4538 15.8758 -1.86419
229 1 12.449 14.2552 -0.190065 12.449 14.2552 -0.190065
230 2 14.4468 14.3367 1.26077 14.4468 14.3367 1.26077
231 2 14.2172 14.0305 -1.92119 14.2172 14.0305 -1.92119
232 1 15.2987 15.8792 -0.555864 15.2987 15.8792 -0.555864
233 2 17.0568 15.8972 1.20107 17.0568 15.8972 1.20107
234 2 17.3246 15.8414 -2.05339 17.3246 15.8414 -2.05339
235 1 18.1263 14.2601 -0.277423 18.1263 14.2601 -0.277423
236 2 19.9979 14.2504 1.35675 19.9979 14.2504 1.35675
237 2 20.0512 14.3245 -1.9282 20.0512 14.3245 -1.9282
238 1 20.962 15.9738 -0.198958 20.962 15.9738 -0.198958
239 2 22.6857 15.7628 1.58885 22.6857 15.7628 1.58885
240 2 23.0819 15.9882 -1.72964 23.0819 15.9882 -1.72964
241 1 23.7925 14.2136 -0.0551925 23.7925 14.2136 -0.0551925
242 2 25.8647 14.1726 1.39028 25.8647 14.1726 1.39028
243 2 25.6024 14.2557 -1.76687 25.6024 14.2557 -1.76687
244 1 26.6899 15.8574 -0.138245 26.6899 15.8574 -0.138245
245 2 28.4056 15.9006 1.7837 28.4056 15.9006 1.7837
246 2 28.7428 15.9248 -1.51984 28.7428 15.9248 -1.51984
247 1 29.4994 14.1831 0.256242 29.4994 14.1831 0.256242
248 2 31.3872 14.2163 1.85285 31.3872 14.2163 1.85285
249 2 31.4795 14.1607 -1.32926 31.4795 14.1607 -1.32926
250 1 32.3817 15.9198 0.211099 32.3817 15.9198 0.211099
251 2 34.0884 15.9143 2.15296 34.0884 15.9143 2.15296
252 2 34.5398 15.8832 -1.07848 34.5398 15.8832 -1.07848
253 1 35.2073 14.247 0.705888 35.2073 14.247 0.705888
254 2 37.0674 14.2365 2.39778 37.0674 14.2365 2.39778
255 2 37.1567 14.2666 -0.883416 37.1567 14.2666 -0.883416
256 1 38.0174 15.9027 0.869725 38.0174 15.9027 0.869725
257 2 39.7819 15.9556 2.51978 39.7819 15.9556 2.51978
258 2 40.0568 15.9096 -0.682005 40.0568 15.9096 -0.682005
259 1 40.922 14.3463 1.02486 40.922 14.3463 1.02486
260 2 42.7765 14.3121 2.78322 42.7765 14.3121 2.78322
261 2 42.8974 14.3902 -0.487097 42.8974 14.3902 -0.487097
262 1 43.8314 15.9488 1.24672 43.8314 15.9488 1.24672
263 2 45.6957 16.1003 2.84522 45.6957 16.1003 2.84522
264 2 45.6315 16.0264 -0.401241 45.6315 16.0264 -0.401241
265 1 46.6111 14.3025 1.17968 46.6111 14.3025 1.17968
266 2 48.6729 14.2655 2.80358 48.6729 14.2655 2.80358
267 2 48.5147 14.4917 -0.449656 48.5147 14.4917 -0.449656
268 1 49.5106 16.0179 1.2389 49.5106 16.0179 1.2389
269 2 51.4441 16.0003 2.86837 51.4441 16.0003 2.86837
270 2 51.4106 15.9902 -0.402548 51.4106 15.9902 -0.402548
271 1 1.12413 17.6177 1.16702 1.12413 17.6177 1.16702
272 2 3.2835 17.5588 2.40173 3.2835 17.5588 2.40173
273 2 2.69233 17.3898 -0.751689 2.69233 17.3898 -0.751689
274 1 3.85476 19.1335 0.564993 3.85476 19.1335 0.564993
275 2 6.01173 19.2903 1.9128 6.01173 19.2903 1.9128
276 2 5.34699 18.9539 -1.35554 5.34699 18.9539 -1.35554
277 1 6.70611 17.4617 0.185422 6.70611 17.4617 0.185422
278 2 8.74117 17.4545 1.59116 8.74117 17.4545 1.59116
279 2 8.50087 17.5215 -1.81139 8.50087 17.5215 -1.81139
280 1 9.54842 19.1943 -0.174779 9.54842 19.1943 -0.174779
281 2 11.5793 19.4598 1.18517 11.5793 19.4598 1.18517
282 2 11.2598 19.1091 -2.05119 11.2598 19.1091 -2.05119
283 1 12.4211 17.6563 -0.371652 12.4211 17.6563 -0.371652
284 2 14.5414 17.6904 1.04525 14.5414 17.6904 1.04525
285 2 14.2509 17.4303 -2.14238 14.2509 17.4303 -2.14238
286 1 15.2059 19.25 -0.820344 15.2059 19.25 -0.820344
287 2 16.9422 19.392 0.972031 16.9422 19.392 0.972031
288 2 17.3416 19.1778 -2.16751 17.3416 19.1778 -2.16751
289 1 18.0605 17.5451 -0.496588 18.0605 17.5451 -0.496588
290 2 19.8456 17.5692 1.33293 19.8456 17.5692 1.33293
291 2 20.0621 17.4713 -1.90282 20.0621 17.4713 -1.90282
292 1 20.905 19.194 -0.303966 20.905 19.194 -0.303966
293 2 22.5415 19.1934 1.5393 22.5415 19.1934 1.5393
294 2 22.9546 19.1282 -1.70574 22.9546 19.1282 -1.70574
295 1 23.7591 17.524 0.0755019 23.7591 17.524 0.0755019
296 2 25.6819 17.3897 1.62096 25.6819 17.3897 1.62096
297 2 25.6647 17.6236 -1.59185 25.6647 17.6236 -1.59185
298 1 26.7132 19.1673 0.116126 26.7132 19.1673 0.116126
299 2 28.628 19.1539 1.77659 28.628 19.1539 1.77659
300 2 28.6228 19.1575 -1.50746 28.6228 19.1575 -1.50746
301 1 29.5409 17.5305 0.129933 29.5409 17.5305 0.129933
302 2 31.2322 17.24 1.94038 31.2322 17.24 1.94038
303 2 31.5799 17.6377 -1.38405 31.5799 17.6377 -1.38405
304 1 32.2883 19.1003 0.471999 32.2883 19.1003 0.471999
305 2 34.1207 19.1685 2.19747 34.1207 19.1685 2.19747
306 2 34.4036 19.2068 -1.00252 34.4036 19.2068 -1.00252
307 1 35.2184 17.5805 0.66863 35.2184 17.5805 0.66863
308 2 37.0804 17.5381 2.43156 37.0804 17.5381 2.43156
309 2 37.1408 17.5213 -0.798424 37.1408 17.5213 -0.798424
310 1 38.0662 19.2122 0.94716 38.0662 19.2122 0.94716
311 2 39.9856 19.3259 2.47514 39.9856 19.3259 2.47514
312 2 39.8757 19.1602 -0.6922 39.8757 19.1602 -0.6922
313 1 40.8856 17.5611 0.961409 40.8856 17.5611 0.961409
314 2 42.7956 17.7885 2.70465 42.7956 17.7885 2.70465
315 2 42.8763 17.4488 -0.487157 42.8763 17.4488 -0.487157
316 1 43.7951 19.2228 0.977817 43.7951 19.2228 0.977817
317 2 45.4375 19.2964 2.79539 45.4375 19.2964 2.79539
318 2 45.7663 19.308 -0.445357 45.7663 19.308 -0.445357
319 1 46.6315 17.6428 1.18757 46.6315 17.6428 1.18757
320 2 48.5284 17.7466 2.86562 48.5284 17.7466 2.86562
321 2 48.6312 17.7051 -0.362699 48.6312 17.7051 -0.362699
322 1 49.5718 19.3162 1.30147 49.5718 19.3162 1.30147
323 2 51.5714 19.5312 2.68937 51.5714 19.5312 2.68937
324 2 51.2514 19.107 -0.465071 51.2514 19.107 -0.465071
325 1 1.11621 20.9495 0.877765 1.11621 20.9495 0.877765
326 2 3.25979 21.0412 2.07663 3.25979 21.0412 2.07663
327 2 2.61767 20.7181 -1.05148 2.61767 20.7181 -1.05148
328 1 3.86735 22.4516 0.18242 3.86735 22.4516 0.18242
329 2 6.05676 22.6304 1.42639 6.05676 22.6304 1.42639
330 2 5.45592 22.2379 -1.77037 5.45592 22.2379 -1.77037
331 1 6.62994 20.8057 -0.131349 6.62994 20.8057 -0.131349
332 2 8.66369 21.06 1.29106 8.66369 21.06 1.29106
333 2 8.44693 20.6266 -1.99724 8.44693 20.6266 -1.99724
334 1 9.48311 22.3643 -0.623184 9.48311 22.3643 -0.623184
335 2 11.5028 22.4864 0.881875 11.5028 22.4864 0.881875
336 2 11.2042 22.598 -2.34094 11.2042 22.598 -2.34094
337 1 12.3758 20.9579 -0.722473 12.3758 20.9579 -0.722473
338 2 14.3439 21.0126 0.847154 14.3439 21.0126 0.847154
339 2 14.2334 20.9406 -2.49006 14.2334 20.9406 -2.49006
340 1 15.19 22.5536 -0.964149 15.19 22.5536 -0.964149
341 2 17.0222 22.7739 0.840461 17.0222 22.7739 0.840461
342 2 17.2057 22.3617 -2.46152 17.2057 22.3617 -2.46152
343 1 18.0064 20.9494 -0.570462 18.0064 20.9494 -0.570462
344 2 19.8558 20.9554 1.14362 19.8558 20.9554 1.14362
345 2 20.0377 20.7628 -2.03145 20.0377 20.7628 -2.03145
346 1 20.9365 22.3984 -0.531922 20.9365 22.3984 -0.531922
347 2 22.713 22.6609 1.17905 22.713 22.6609 1.17905
348 2 22.9968 22.2142 -1.93692 22.9968 22.2142 -1.93692
349 1 23.7335 20.7371 -0.0748581 23.7335 20.7371 -0.0748581
350 2 25.5291 20.9938 1.53712 25.5291 20.9938 1.53712
351 2 25.745 20.6904 -1.6111 25.745 20.6904 -1.6111
352 1 26.6266 22.5236 -0.117025 26.6266 22.5236 -0.117025
353 2 28.5532 22.6707 1.54052 28.5532 22.6707 1.54052
354 2 28.6106 22.2308 -1.75617 28.6106 22.2308 -1.75617
355 1 29.5217 20.8859 0.148087 29.5217 20.8859 0.148087
356 2 31.3416 21.1089 1.85742 31.3416 21.1089 1.85742
357 2 31.4487 20.624 -1.41196 31.4487 20.624 -1.41196
358 1 32.3793 22.4812 0.0629687 32.3793 22.4812 0.0629687
359 2 34.1079 22.7536 1.87976 34.1079 22.7536 1.87976
360 2 34.5419 22.178 -1.30884 34.5419 22.178 -1.30884
361 1 35.2128 20.8306 0.635802 35.2128 20.8306 0.635802
362 2 37.0305 21.0774 2.37388 37.0305 21.0774 2.37388
363 2 37.3118 20.5815 -0.948316 37.3118 20.5815 -0.948316
364 1 38.1324 22.4511 0.510451 38.1324 22.4511 0.510451
365 2 39.8508 22.6329 2.25353 39.8508 22.6329 2.25353
366 2 40.0314 22.3286 -1.06541 40.0314 22.3286 -1.06541
367 1 40.8806 20.8852 0.826842 40.8806 20.8852 0.826842
368 2 42.7263 20.8737 2.48399 42.7263 20.8737 2.48399
369 2 42.8482 20.6595 -0.789972 42.8482 20.6595 -0.789972
370 1 43.7954 22.5332 0.860648 43.7954 22.5332 0.860648
371 2 45.5828 22.6748 2.58311 45.5828 22.6748 2.58311
372 2 45.9315 22.3182 -0.599731 45.9315 22.3182 -0.599731
373 1 46.7034 20.7838 1.27016 46.7034 20.7838 1.27016
374 2 48.6879 20.965 2.83368 48.6879 20.965 2.83368
375 2 48.5949 20.8619 -0.422158 48.5949 20.8619 -0.422158
376 1 49.6162 22.5881 0.993136 49.6162 22.5881 0.993136
377 2 51.802 22.8729 2.3555 51.802 22.8729 2.3555
378 2 51.2154 22.2951 -0.889321 51.2154 22.2951 -0.889321
379 1 1.09087 24.1757 0.233928 1.09087 24.1757 0.233928
380 2 3.17696 24.3909 1.61791 3.17696 24.3909 1.61791
381 2 2.79239 23.8516 -1.5868 2.79239 23.8516 -1.5868
382 1 3.87789 25.7235 -0.373829 3.87789 25.7235 -0.373829
383 2 5.8731 25.699 1.17977 5.8731 25.699 1.17977
384 2 5.74366 25.7596 -2.10965 5.74366 25.7596 -2.10965
385 1 6.66285 24.069 -0.641739 6.66285 24.069 -0.641739
386 2 8.56644 24.1446 0.875548 8.56644 24.1446 0.875548
387 2 8.56037 23.9602 -2.34564 8.56037 23.9602 -2.34564
388 1 9.62134 25.698 -0.788008 9.62134 25.698 -0.788008
389 2 11.477 25.7812 0.84854 11.477 25.7812 0.84854
390 2 11.4334 25.7456 -2.4671 11.4334 25.7456 -2.4671
391 1 12.4144 24.1689 -0.778906 12.4144 24.1689 -0.778906
392 2 14.3425 24.1289 0.808928 14.3425 24.1289 0.808928
393 2 14.3089 24.2239 -2.44651 14.3089 24.2239 -2.44651
394 1 15.3457 25.8437 -0.758743 15.3457 25.8437 -0.758743
395 2 17.3136 25.7614 0.69448 17.3136 25.7614 0.69448
396 2 17.146 25.7587 -2.51905 17.146 25.7587 -2.51905
397 1 18.1253 24.1171 -0.981526 18.1253 24.1171 -0.981526
398 2 19.9245 24.3055 0.875111 19.9245 24.3055 0.875111
399 2 20.2723 23.9675 -2.3889 20.2723 23.9675 -2.3889
400 1 21.0712 25.6873 -0.761754 21.0712 25.6873 -0.761754
401 2 22.6971 25.8161 1.06032 22.6971 25.8161 1.06032
402 2 22.9758 25.5298 -2.19037 22.9758 25.5298 -2.19037
403 1 23.8343 24.0598 -0.468797 23.8343 24.0598 -0.468797
404 2 25.5523 24.216 1.3598 25.5523 24.216 1.3598
405 2 25.7846 23.9493 -1.98811 25.7846 23.9493 -1.98811
406 1 26.6469 25.7447 -0.36149 26.6469 25.7447 -0.36149
407 2 28.6396 25.773 1.29663 28.6396 25.773 1.29663
408 2 28.6093 25.8229 -2.05755 28.6093 25.8229 -2.05755
409 1 29.5507 24.0921 -0.358311 29.5507 24.0921 -0.358311
410 2 31.367 24.233 1.49662 31.367 24.233 1.49662
411 2 31.6171 24.0219 -1.78182 31.6171 24.0219 -1.78182
412 1 32.3633 25.7223 -0.195654 32.3633 25.7223 -0.195654
413 2 34.2105 25.8573 1.53824 34.2105 25.8573 1.53824
414 2 34.3589 25.449 -1.79499 34.3589 25.449 -1.79499
415 1 35.2284 24.0778 0.0974083 35.2284 24.0778 0.0974083
416 2 37.0718 24.2441 1.88012 37.0718 24.2441 1.88012
417 2 37.2221 23.9223 -1.33711 37.2221 23.9223 -1.33711
418 1 38.0953 25.7891 0.0730241 38.0953 25.7891 0.0730241
419 2 39.8234 25.9551 1.79288 39.8234 25.9551 1.79288
420 2 40.012 25.7011 -1.38152 40.012 25.7011 -1.38152
421 1 40.8288 24.1634 0.440463 40.8288 24.1634 0.440463
422 2 42.6555 24.3262 2.18724 42.6555 24.3262 2.18724
423 2 42.89 23.8735 -1.06491 42.89 23.8735 -1.06491
424 1 43.7938 25.7166 0.442643 43.7938 25.7166 0.442643
425 2 45.5851 26.1401 2.12099 45.5851 26.1401 2.12099
426 2 45.7598 25.3922 -1.03583 45.7598 25.3922 -1.03583
427 1 46.729 24.1901 0.907034 46.729 24.1901 0.907034
428 2 48.7945 24.6977 2.18507 48.7945 24.6977 2.18507
429 2 48.4623 23.7519 -0.866486 48.4623 23.7519 -0.866486
430 1 49.5566 25.7785 0.120731 49.5566 25.7785 0.120731
431 2 51.3835 26.0261 1.69543 51.3835 26.0261 1.69543
432 2 51.4028 25.5222 -1.65195 51.4028 25.5222 -1.65195
433 1 1.05064 27.3761 -0.276909 1.05064 27.3761 -0.276909
434 2 2.98117 27.3806 1.3159 2.98117 27.3806 1.3159
435 2 2.79075 27.3404 -1.94702 2.79075 27.3404 -1.94702
436 1 3.99676 29.0057 -0.364947 3.99676 29.0057 -0.364947
437 2 5.9528 29.1078 1.06081 5.9528 29.1078 1.06081
438 2 5.68134 28.8287 -2.24085 5.68134 28.8287 -2.24085
439 1 6.79748 27.3731 -0.565087 6.79748 27.3731 -0.565087
440 2 8.85412 27.4483 0.831522 8.85412 27.4483 0.831522
441 2 8.50527 27.276 -2.42066 8.50527 27.276 -2.42066
442 1 9.58002 29.0131 -0.974609 9.58002 29.0131 -0.974609
443 2 11.3258 29.0795 0.723557 11.3258 29.0795 0.723557
444 2 11.5084 28.9188 -2.5951 11.5084 28.9188 -2.5951
445 1 12.3989 27.38 -0.86831 12.3989 27.38 -0.86831
446 2 14.3018 27.5862 0.858184 14.3018 27.5862 0.858184
447 2 14.2885 27.4242 -2.4303 14.2885 27.4242 -2.4303
448 1 15.3518 29.0727 -0.870093 15.3518 29.0727 -0.870093
449 2 17.1456 29.0226 0.699748 17.1456 29.0226 0.699748
450 2 17.1739 29.1149 -2.5131 17.1739 29.1149 -2.5131
451 1 18.1808 27.4558 -0.93652 18.1808 27.4558 -0.93652
452 2 20.1257 27.4727 0.662813 20.1257 27.4727 0.662813
453 2 20.0577 27.1 -2.54428 20.0577 27.1 -2.54428
454 1 20.9701 29.0782 -1.0685 20.9701 29.0782 -1.0685
455 2 22.767 29.3373 0.71964 22.767 29.3373 0.71964
456 2 22.9795 28.815 -2.51966 22.9795 28.815 -2.51966
457 1 23.8048 27.3358 -0.515153 23.8048 27.3358 -0.515153
458 2 25.8187 27.4972 1.16344 25.8187 27.4972 1.16344
459 2 25.7426 27.2284 -2.14298 25.7426 27.2284 -2.14298
460 1 26.6486 28.9655 -0.63451 26.6486 28.9655 -0.63451
461 2 28.3603 29.0985 1.19917 28.3603 29.0985 1.19917
462 2 28.7624 29.0721 -2.06768 28.7624 29.0721 -2.06768
463 1 29.5303 27.3841 -0.302419 29.5303 27.3841 -0.302419
464 2 31.4619 27.5077 1.40341 31.4619 27.5077 1.40341
465 2 31.3941 27.283 -1.8964 31.3941 27.283 -1.8964
466 1 32.4164 29.0784 -0.418108 32.4164 29.0784 -0.418108
467 2 34.2419 29.0157 1.24224 34.2419 29.0157 1.24224
468 2 34.4214 29.0202 -1.95791 34.4214 29.0202 -1.95791
469 1 35.2829 27.3626 -0.335228 35.2829 27.3626 -0.335228
470 2 37.1315 27.5898 1.43764 37.1315 27.5898 1.43764
471 2 37.2418 26.9672 -1.83018 37.2418 26.9672 -1.83018
472 1 38.1181 28.9483 -0.406489 38.1181 28.9483 -0.406489
473 2 39.8536 29.0685 1.37611 39.8536 29.0685 1.37611
474 2 40.1815 29.0026 -1.80279 40.1815 29.0026 -1.80279
475 1 40.9047 27.4594 0.0429033 40.9047 27.4594 0.0429033
476 2 42.6694 27.636 1.76935 42.6694 27.636 1.76935
477 2 42.9211 27.0738 -1.51865 42.9211 27.0738 -1.51865
478 1 43.8372 28.9382 0.013868 43.8372 28.9382 0.013868
479 2 45.7023 29.191 1.67467 45.7023 29.191 1.67467
480 2 45.7645 28.7308 -1.63836 45.7645 28.7308 -1.63836
481 1 46.6653 27.3578 0.218359 46.6653 27.3578 0.218359
482 2 48.7027 27.6187 1.62877 48.7027 27.6187 1.62877
483 2 48.4083 27.2247 -1.56657 48.4083 27.2247 -1.56657
484 1 49.5105 29.0544 -0.284256 49.5105 29.0544 -0.284256
485 2 51.3199 28.9462 1.5094 51.3199 28.9462 1.5094
486 2 51.5077 29.1034 -1.75059 51.5077 29.1034 -1.75059
487 1 1.04454 30.7013 -6.18756e-05 1.04454 30.7013 -6.18756e-05
488 2 3.16856 30.7834 1.34239 3.16856 30.7834 1.34239
489 2 2.69897 30.5104 -1.93378 2.69897 30.5104 -1.93378
490 1 3.87311 32.2022 -0.460964 3.87311 32.2022 -0.460964
491 2 5.9583 32.0859 1.03112 5.9583 32.0859 1.03112
492 2 5.58702 32.2405 -2.26305 5.58702 32.2405 -2.26305
493 1 6.84144 30.6059 -0.696899 6.84144 30.6059 -0.696899
494 2 8.80896 30.5535 0.837241 8.80896 30.5535 0.837241
495 2 8.53809 30.6304 -2.50008 8.53809 30.6304 -2.50008
496 1 9.57047 32.215 -0.932401 9.57047 32.215 -0.932401
497 2 11.4808 32.3053 0.666267 11.4808 32.3053 0.666267
498 2 11.4329 32.1856 -2.57489 11.4329 32.1856 -2.57489
499 1 12.3648 30.6235 -0.847371 12.3648 30.6235 -0.847371
500 2 14.4044 30.6586 0.803717 14.4044 30.6586 0.803717
501 2 14.2082 30.6758 -2.47957 14.2082 30.6758 -2.47957
502 1 15.3271 32.3003 -0.851646 15.3271 32.3003 -0.851646
503 2 17.3521 32.4131 0.685059 17.3521 32.4131 0.685059
504 2 17.1349 32.1678 -2.57174 17.1349 32.1678 -2.57174
505 1 18.168 30.688 -0.922329 18.168 30.688 -0.922329
506 2 20.1395 30.8017 0.562136 20.1395 30.8017 0.562136
507 2 19.8941 30.6667 -2.71249 19.8941 30.6667 -2.71249
508 1 20.9983 32.3642 -1.12016 20.9983 32.3642 -1.12016
509 2 22.8903 32.3036 0.583123 22.8903 32.3036 0.583123
510 2 22.901 32.3599 -2.62996 22.901 32.3599 -2.62996
511 1 23.8238 30.677 -1.04385 23.8238 30.677 -1.04385
512 2 25.5477 30.6364 0.855496 25.5477 30.6364 0.855496
513 2 25.9331 30.5238 -2.47533 25.9331 30.5238 -2.47533
514 1 26.6815 32.2637 -0.735263 26.6815 32.2637 -0.735263
515 2 28.4356 32.4494 1.02166 28.4356 32.4494 1.02166
516 2 28.7573 32.2166 -2.21747 28.7573 32.2166 -2.21747
517 1 29.5841 30.7548 -0.396844 29.5841 30.7548 -0.396844
518 2 31.5361 30.6139 1.23687 31.5361 30.6139 1.23687
519 2 31.3076 30.677 -2.07588 31.3076 30.677 -2.07588
520 1 32.4485 32.2841 -0.462204 32.4485 32.2841 -0.462204
521 2 34.2257 32.4345 1.19822 34.2257 32.4345 1.19822
522 2 34.3283 32.1109 -2.02915 34.3283 32.1109 -2.02915
523 1 35.2858 30.6895 -0.325516 35.2858 30.6895 -0.325516
524 2 37.2868 30.605 1.24758 37.2868 30.605 1.24758
525 2 37.2131 30.7195 -2.06272 37.2131 30.7195 -2.06272
526 1 38.1464 32.307 -0.392811 38.1464 32.307 -0.392811
527 2 39.9243 32.4471 1.34981 39.9243 32.4471 1.34981
528 2 40.173 32.4676 -1.84688 40.173 32.4676 -1.84688
529 1 40.9551 30.7088 -0.22915 40.9551 30.7088 -0.22915
530 2 42.7404 30.6668 1.54158 42.7404 30.6668 1.54158
531 2 42.9696 30.5606 -1.71007 42.9696 30.5606 -1.71007
532 1 43.8818 32.3565 0.00624499 43.8818 32.3565 0.00624499
533 2 45.8121 32.3066 1.5914 45.8121 32.3066 1.5914
534 2 45.65 32.4134 -1.75197 45.65 32.4134 -1.75197
535 1 46.6359 30.6216 -0.186283 46.6359 30.6216 -0.186283
536 2 48.5666 30.6419 1.44729 48.5666 30.6419 1.44729
537 2 48.5821 30.6024 -1.88169 48.5821 30.6024 -1.88169
538 1 49.4865 32.2871 -0.228301 49.4865 32.2871 -0.228301
539 2 51.3785 32.426 1.49213 51.3785 32.426 1.49213
540 2 51.5107 32.1513 -1.74823 51.5107 32.1513 -1.74823