ITEM: TIMESTEP
0
ITEM: NUMBER OF ATOMS
810
ITEM: BOX BOUNDS pp pp pp
8.4137701477268123e-01 5.2176227985227342e+01
8.0961581116522285e-01 5.0206599188834083e+01
-1.0000000000000000e+01 1.0000000000000000e+01
ITEM: ATOMS id type x y z xu yu zu
1 1 52.1762 50.2066 -2.61413e-12 0.841377 0.809616 -2.61413e-12
2 2 2.74267 50.2066 1.63109 2.74267 0.809616 1.63109
3 2 2.74267 50.2066 -1.63109 2.74267 0.809616 -1.63109
4 1 3.69331 2.45618 -2.55778e-12 3.69331 2.45618 -2.55778e-12
5 2 5.5946 2.45618 1.63109 5.5946 2.45618 1.63109
6 2 5.5946 2.45618 -1.63109 5.5946 2.45618 -1.63109
7 1 6.54525 50.2066 -2.52381e-12 6.54525 0.809616 -2.52381e-12
8 2 8.44654 50.2066 1.63109 8.44654 0.809616 1.63109
9 2 8.44654 50.2066 -1.63109 8.44654 0.809616 -1.63109
10 1 9.39719 2.45618 -2.48417e-12 9.39719 2.45618 -2.48417e-12
11 2 11.2985 2.45618 1.63109 11.2985 2.45618 1.63109
12 2 11.2985 2.45618 -1.63109 11.2985 2.45618 -1.63109
13 1 12.2491 50.2066 -2.516e-12 12.2491 0.809616 -2.516e-12
14 2 14.1504 50.2066 1.63109 14.1504 0.809616 1.63109
15 2 14.1504 50.2066 -1.63109 14.1504 0.809616 -1.63109
16 1 15.1011 2.45618 -2.49744e-12 15.1011 2.45618 -2.49744e-12
17 2 17.0023 2.45618 1.63109 17.0023 2.45618 1.63109
18 2 17.0023 2.45618 -1.63109 17.0023 2.45618 -1.63109
19 1 17.953 50.2066 -2.57185e-12 17.953 0.809616 -2.57185e-12
20 2 19.8543 50.2066 1.63109 19.8543 0.809616 1.63109
21 2 19.8543 50.2066 -1.63109 19.8543 0.809616 -1.63109
22 1 20.8049 2.45618 -2.57476e-12 20.8049 2.45618 -2.57476e-12
23 2 22.7062 2.45618 1.63109 22.7062 2.45618 1.63109
24 2 22.7062 2.45618 -1.63109 22.7062 2.45618 -1.63109
25 1 23.6569 50.2066 -2.59928e-12 23.6569 0.809616 -2.59928e-12
26 2 25.5582 50.2066 1.63109 25.5582 0.809616 1.63109
27 2 25.5582 50.2066 -1.63109 25.5582 0.809616 -1.63109
28 1 26.5088 2.45618 -2.586e-12 26.5088 2.45618 -2.586e-12
29 2 28.4101 2.45618 1.63109 28.4101 2.45618 1.63109
30 2 28.4101 2.45618 -1.63109 28.4101 2.45618 -1.63109
31 1 29.3607 50.2066 -2.65876e-12 29.3607 0.809616 -2.65876e-12
32 2 31.262 50.2066 1.63109 31.262 0.809616 1.63109
33 2 31.262 50.2066 -1.63109 31.262 0.809616 -1.63109
34 1 32.2127 2.45618 -2.6481e-12 32.2127 2.45618 -2.6481e-12
35 2 34.114 2.45618 1.63109 34.114 2.45618 1.63109
36 2 34.114 2.45618 -1.63109 34.114 2.45618 -1.63109
37 1 35.0646 50.2066 -2.73753e-12 35.0646 0.809616 -2.73753e-12
38 2 36.9659 50.2066 1.63109 36.9659 0.809616 1.63109
39 2 36.9659 50.2066 -1.63109 36.9659 0.809616 -1.63109
40 1 37.9165 2.45618 -2.72381e-12 37.9165 2.45618 -2.72381e-12
41 2 39.8178 2.45618 1.63109 39.8178 2.45618 1.63109
42 2 39.8178 2.45618 -1.63109 39.8178 2.45618 -1.63109
43 1 40.7685 50.2066 -2.72901e-12 40.7685 0.809616 -2.72901e-12
44 2 42.6698 50.2066 1.63109 42.6698 0.809616 1.63109
45 2 42.6698 50.2066 -1.63109 42.6698 0.809616 -1.63109
46 1 43.6204 2.45618 -2.746e-12 43.6204 2.45618 -2.746e-12
47 2 45.5217 2.45618 1.63109 45.5217 2.45618 1.63109
48 2 45.5217 2.45618 -1.63109 45.5217 2.45618 -1.63109
49 1 46.4724 50.2066 -2.69047e-12 46.4724 0.809616 -2.69047e-12
50 2 48.3736 50.2066 1.63109 48.3736 0.809616 1.63109
51 2 48.3736 50.2066 -1.63109 48.3736 0.809616 -1.63109
52 1 49.3243 2.45618 -2.65812e-12 49.3243 2.45618 -2.65812e-12
53 2 51.2256 2.45618 1.63109 51.2256 2.45618 1.63109
54 2 51.2256 2.45618 -1.63109 51.2256 2.45618 -1.63109
55 1 52.1762 4.10275 -2.57544e-12 0.841377 4.10275 -2.57544e-12
56 2 2.74267 4.10275 1.63109 2.74267 4.10275 1.63109
57 2 2.74267 4.10275 -1.63109 2.74267 4.10275 -1.63109
58 1 3.69331 5.74931 -2.48565e-12 3.69331 5.74931 -2.48565e-12
59 2 5.5946 5.74931 1.63109 5.5946 5.74931 1.63109
60 2 5.5946 5.74931 -1.63109 5.5946 5.74931 -1.63109
61 1 6.54525 4.10275 -2.46436e-12 6.54525 4.10275 -2.46436e-12
62 2 8.44654 4.10275 1.63109 8.44654 4.10275 1.63109
63 2 8.44654 4.10275 -1.63109 8.44654 4.10275 -1.63109
64 1 9.39719 5.74931 -2.42338e-12 9.39719 5.74931 -2.42338e-12
65 2 11.2985 5.74931 1.63109 11.2985 5.74931 1.63109
66 2 11.2985 5.74931 -1.63109 11.2985 5.74931 -1.63109
67 1 12.2491 4.10275 -2.44291e-12 12.2491 4.10275 -2.44291e-12
68 2 14.1504 4.10275 1.63109 14.1504 4.10275 1.63109
69 2 14.1504 4.10275 -1.63109 14.1504 4.10275 -1.63109
70 1 15.1011 5.74931 -2.42975e-12 15.1011 5.74931 -2.42975e-12
71 2 17.0023 5.74931 1.63109 17.0023 5.74931 1.63109
72 2 17.0023 5.74931 -1.63109 17.0023 5.74931 -1.63109
73 1 17.953 4.10275 -2.4985e-12 17.953 4.10275 -2.4985e-12
74 2 19.8543 4.10275 1.63109 19.8543 4.10275 1.63109
75 2 19.8543 4.10275 -1.63109 19.8543 4.10275 -1.63109
76 1 20.8049 5.74931 -2.52705e-12 20.8049 5.74931 -2.52705e-12
77 2 22.7062 5.74931 1.63109 22.7062 5.74931 1.63109
78 2 22.7062 5.74931 -1.63109 22.7062 5.74931 -1.63109
79 1 23.6569 4.10275 -2.55092e-12 23.6569 4.10275 -2.55092e-12
80 2 25.5582 4.10275 1.63109 25.5582 4.10275 1.63109
81 2 25.5582 4.10275 -1.63109 25.5582 4.10275 -1.63109
82 1 26.5088 5.74931 -2.56128e-12 26.5088 5.74931 -2.56128e-12
83 2 28.4101 5.74931 1.63109 28.4101 5.74931 1.63109
84 2 28.4101 5.74931 -1.63109 28.4101 5.74931 -1.63109
85 1 29.3607 4.10275 -2.59524e-12 29.3607 4.10275 -2.59524e-12
86 2 31.262 4.10275 1.63109 31.262 4.10275 1.63109
87 2 31.262 4.10275 -1.63109 31.262 4.10275 -1.63109
88 1 32.2127 5.74931 -2.63707e-12 32.2127 5.74931 -2.63707e-12
89 2 34.114 5.74931 1.63109 34.114 5.74931 1.63109
90 2 34.114 5.74931 -1.63109 34.114 5.74931 -1.63109
91 1 35.0646 4.10275 -2.68428e-12 35.0646 4.10275 -2.68428e-12
92 2 36.9659 4.10275 1.63109 36.9659 4.10275 1.63109
93 2 36.9659 4.10275 -1.63109 36.9659 4.10275 -1.63109
94 1 37.9165 5.74931 -2.69939e-12 37.9165 5.74931 -2.69939e-12
95 2 39.8178 5.74931 1.63109 39.8178 5.74931 1.63109
96 2 39.8178 5.74931 -1.63109 39.8178 5.74931 -1.63109
97 1 40.7685 4.10275 -2.72785e-12 40.7685 4.10275 -2.72785e-12
98 2 42.6698 4.10275 1.63109 42.6698 4.10275 1.63109
99 2 42.6698 4.10275 -1.63109 42.6698 4.10275 -1.63109
100 1 43.6204 5.74931 -2.69437e-12 43.6204 5.74931 -2.69437e-12
101 2 45.5217 5.74931 1.63109 45.5217 5.74931 1.63109
102 2 45.5217 5.74931 -1.63109 45.5217 5.74931 -1.63109
103 1 46.4724 4.10275 -2.64933e-12 46.4724 4.10275 -2.64933e-12
104 2 48.3736 4.10275 1.63109 48.3736 4.10275 1.63109
105 2 48.3736 4.10275 -1.63109 48.3736 4.10275 -1.63109
106 1 49.3243 5.74931 -2.62673e-12 49.3243 5.74931 -2.62673e-12
107 2 51.2256 5.74931 1.63109 51.2256 5.74931 1.63109
108 2 51.2256 5.74931 -1.63109 51.2256 5.74931 -1.63109
109 1 52.1762 7.39588 -2.53858e-12 0.841377 7.39588 -2.53858e-12
110 2 2.74267 7.39588 1.63109 2.74267 7.39588 1.63109
111 2 2.74267 7.39588 -1.63109 2.74267 7.39588 -1.63109
112 1 3.69331 9.04245 -2.46344e-12 3.69331 9.04245 -2.46344e-12
113 2 5.5946 9.04245 1.63109 5.5946 9.04245 1.63109
114 2 5.5946 9.04245 -1.63109 5.5946 9.04245 -1.63109
115 1 6.54525 7.39588 -2.42485e-12 6.54525 7.39588 -2.42485e-12
116 2 8.44654 7.39588 1.63109 8.44654 7.39588 1.63109
117 2 8.44654 7.39588 -1.63109 8.44654 7.39588 -1.63109
118 1 9.39719 9.04245 -2.40798e-12 9.39719 9.04245 -2.40798e-12
119 2 11.2985 9.04245 1.63109 11.2985 9.04245 1.63109
120 2 11.2985 9.04245 -1.63109 11.2985 9.04245 -1.63109
121 1 12.2491 7.39588 -2.40053e-12 12.2491 7.39588 -2.40053e-12
122 2 14.1504 7.39588 1.63109 14.1504 7.39588 1.63109
123 2 14.1504 7.39588 -1.63109 14.1504 7.39588 -1.63109
124 1 15.1011 9.04245 -2.40719e-12 15.1011 9.04245 -2.40719e-12
125 2 17.0023 9.04245 1.63109 17.0023 9.04245 1.63109
126 2 17.0023 9.04245 -1.63109 17.0023 9.04245 -1.63109
127 1 17.953 7.39588 -2.47638e-12 17.953 7.39588 -2.47638e-12
128 2 19.8543 7.39588 1.63109 19.8543 7.39588 1.63109
129 2 19.8543 7.39588 -1.63109 19.8543 7.39588 -1.63109
130 1 20.8049 9.04245 -2.50517e-12 20.8049 9.04245 -2.50517e-12
131 2 22.7062 9.04245 1.63109 22.7062 9.04245 1.63109
132 2 22.7062 9.04245 -1.63109 22.7062 9.04245 -1.63109
133 1 23.6569 7.39588 -2.51428e-12 23.6569 7.39588 -2.51428e-12
134 2 25.5582 7.39588 1.63109 25.5582 7.39588 1.63109
135 2 25.5582 7.39588 -1.63109 25.5582 7.39588 -1.63109
136 1 26.5088 9.04245 -2.54663e-12 26.5088 9.04245 -2.54663e-12
137 2 28.4101 9.04245 1.63109 28.4101 9.04245 1.63109
138 2 28.4101 9.04245 -1.63109 28.4101 9.04245 -1.63109
139 1 29.3607 7.39588 -2.58987e-12 29.3607 7.39588 -2.58987e-12
140 2 31.262 7.39588 1.63109 31.262 7.39588 1.63109
141 2 31.262 7.39588 -1.63109 31.262 7.39588 -1.63109
142 1 32.2127 9.04245 -2.64515e-12 32.2127 9.04245 -2.64515e-12
143 2 34.114 9.04245 1.63109 34.114 9.04245 1.63109
144 2 34.114 9.04245 -1.63109 34.114 9.04245 -1.63109
145 1 35.0646 7.39588 -2.69277e-12 35.0646 7.39588 -2.69277e-12
146 2 36.9659 7.39588 1.63109 36.9659 7.39588 1.63109
147 2 36.9659 7.39588 -1.63109 36.9659 7.39588 -1.63109
148 1 37.9165 9.04245 -2.6977e-12 37.9165 9.04245 -2.6977e-12
149 2 39.8178 9.04245 1.63109 39.8178 9.04245 1.63109
150 2 39.8178 9.04245 -1.63109 39.8178 9.04245 -1.63109
151 1 40.7685 7.39588 -2.68593e-12 40.7685 7.39588 -2.68593e-12
152 2 42.6698 7.39588 1.63109 42.6698 7.39588 1.63109
153 2 42.6698 7.39588 -1.63109 42.6698 7.39588 -1.63109
154 1 43.6204 9.04245 -2.67037e-12 43.6204 9.04245 -2.67037e-12
155 2 45.5217 9.04245 1.63109 45.5217 9.04245 1.63109
156 2 45.5217 9.04245 -1.63109 45.5217 9.04245 -1.63109
157 1 46.4724 7.39588 -2.63853e-12 46.4724 7.39588 -2.63853e-12
158 2 48.3736 7.39588 1.63109 48.3736 7.39588 1.63109
159 2 48.3736 7.39588 -1.63109 48.3736 7.39588 -1.63109
160 1 49.3243 9.04245 -2.60338e-12 49.3243 9.04245 -2.60338e-12
161 2 51.2256 9.04245 1.63109 51.2256 9.04245 1.63109
162 2 51.2256 9.04245 -1.63109 51.2256 9.04245 -1.63109
163 1 52.1762 10.689 -2.53912e-12 0.841377 10.689 -2.53912e-12
164 2 2.74267 10.689 1.63109 2.74267 10.689 1.63109
165 2 2.74267 10.689 -1.63109 2.74267 10.689 -1.63109
166 1 3.69331 12.3356 -2.46537e-12 3.69331 12.3356 -2.46537e-12
167 2 5.5946 12.3356 1.63109 5.5946 12.3356 1.63109
168 2 5.5946 12.3356 -1.63109 5.5946 12.3356 -1.63109
169 1 6.54525 10.689 -2.39731e-12 6.54525 10.689 -2.39731e-12
170 2 8.44654 10.689 1.63109 8.44654 10.689 1.63109
171 2 8.44654 10.689 -1.63109 8.44654 10.689 -1.63109
172 1 9.39719 12.3356 -2.40739e-12 9.39719 12.3356 -2.40739e-12
173 2 11.2985 12.3356 1.63109 11.2985 12.3356 1.63109
174 2 11.2985 12.3356 -1.63109 11.2985 12.3356 -1.63109
175 1 12.2491 10.689 -2.39844e-12 12.2491 10.689 -2.39844e-12
176 2 14.1504 10.689 1.63109 14.1504 10.689 1.63109
177 2 14.1504 10.689 -1.63109 14.1504 10.689 -1.63109
178 1 15.1011 12.3356 -2.41555e-12 15.1011 12.3356 -2.41555e-12
179 2 17.0023 12.3356 1.63109 17.0023 12.3356 1.63109
180 2 17.0023 12.3356 -1.63109 17.0023 12.3356 -1.63109
181 1 17.953 10.689 -2.48165e-12 17.953 10.689 -2.48165e-12
182 2 19.8543 10.689 1.63109 19.8543 10.689 1.63109
183 2 19.8543 10.689 -1.63109 19.8543 10.689 -1.63109
184 1 20.8049 12.3356 -2.51e-12 20.8049 12.3356 -2.51e-12
185 2 22.7062 12.3356 1.63109 22.7062 12.3356 1.63109
186 2 22.7062 12.3356 -1.63109 22.7062 12.3356 -1.63109
187 1 23.6569 10.689 -2.50891e-12 23.6569 10.689 -2.50891e-12
188 2 25.5582 10.689 1.63109 25.5582 10.689 1.63109
189 2 25.5582 10.689 -1.63109 25.5582 10.689 -1.63109
190 1 26.5088 12.3356 -2.56931e-12 26.5088 12.3356 -2.56931e-12
191 2 28.4101 12.3356 1.63109 28.4101 12.3356 1.63109
192 2 28.4101 12.3356 -1.63109 28.4101 12.3356 -1.63109
193 1 29.3607 10.689 -2.59493e-12 29.3607 10.689 -2.59493e-12
194 2 31.262 10.689 1.63109 31.262 10.689 1.63109
195 2 31.262 10.689 -1.63109 31.262 10.689 -1.63109
196 1 32.2127 12.3356 -2.63199e-12 32.2127 12.3356 -2.63199e-12
197 2 34.114 12.3356 1.63109 34.114 12.3356 1.63109
198 2 34.114 12.3356 -1.63109 34.114 12.3356 -1.63109
199 1 35.0646 10.689 -2.67924e-12 35.0646 10.689 -2.67924e-12
200 2 36.9659 10.689 1.63109 36.9659 10.689 1.63109
201 2 36.9659 10.689 -1.63109 36.9659 10.689 -1.63109
202 1 37.9165 12.3356 -2.69858e-12 37.9165 12.3356 -2.69858e-12
203 2 39.8178 12.3356 1.63109 39.8178 12.3356 1.63109
204 2 39.8178 12.3356 -1.63109 39.8178 12.3356 -1.63109
205 1 40.7685 10.689 -2.68741e-12 40.7685 10.689 -2.68741e-12
206 2 42.6698 10.689 1.63109 42.6698 10.689 1.63109
207 2 42.6698 10.689 -1.63109 42.6698 10.689 -1.63109
208 1 43.6204 12.3356 -2.65539e-12 43.6204 12.3356 -2.65539e-12
209 2 45.5217 12.3356 1.63109 45.5217 12.3356 1.63109
210 2 45.5217 12.3356 -1.63109 45.5217 12.3356 -1.63109
211 1 46.4724 10.689 -2.63369e-12 46.4724 10.689 -2.63369e-12
212 2 48.3736 10.689 1.63109 48.3736 10.689 1.63109
213 2 48.3736 10.689 -1.63109 48.3736 10.689 -1.63109
214 1 49.3243 12.3356 -2.58903e-12 49.3243 12.3356 -2.58903e-12
215 2 51.2256 12.3356 1.63109 51.2256 12.3356 1.63109
216 2 51.2256 12.3356 -1.63109 51.2256 12.3356 -1.63109
217 1 52.1762 13.9821 -2.54912e-12 0.841377 13.9821 -2.54912e-12
218 2 2.74267 13.9821 1.63109 2.74267 13.9821 1.63109
219 2 2.74267 13.9821 -1.63109 2.74267 13.9821 -1.63109
220 1 3.69331 15.6287 -2.49197e-12 3.69331 15.6287 -2.49197e-12
221 2 5.5946 15.6287 1.63109 5.5946 15.6287 1.63109
222 2 5.5946 15.6287 -1.63109 5.5946 15.6287 -1.63109
223 1 6.54525 13.9821 -2.42579e-12 6.54525 13.9821 -2.42579e-12
224 2 8.44654 13.9821 1.63109 8.44654 13.9821 1.63109
225 2 8.44654 13.9821 -1.63109 8.44654 13.9821 -1.63109
226 1 9.39719 15.6287 -2.42661e-12 9.39719 15.6287 -2.42661e-12
227 2 11.2985 15.6287 1.63109 11.2985 15.6287 1.63109
228 2 11.2985 15.6287 -1.63109 11.2985 15.6287 -1.63109
229 1 12.2491 13.9821 -2.40705e-12 12.2491 13.9821 -2.40705e-12
230 2 14.1504 13.9821 1.63109 14.1504 13.9821 1.63109
231 2 14.1504 13.9821 -1.63109 14.1504 13.9821 -1.63109
232 1 15.1011 15.6287 -2.4487e-12 15.1011 15.6287 -2.4487e-12
233 2 17.0023 15.6287 1.63109 17.0023 15.6287 1.63109
234 2 17.0023 15.6287 -1.63109 17.0023 15.6287 -1.63109
235 1 17.953 13.9821 -2.4829e-12 17.953 13.9821 -2.4829e-12
236 2 19.8543 13.9821 1.63109 19.8543 13.9821 1.63109
237 2 19.8543 13.9821 -1.63109 19.8543 13.9821 -1.63109
238 1 20.8049 15.6287 -2.5171e-12 20.8049 15.6287 -2.5171e-12
239 2 22.7062 15.6287 1.63109 22.7062 15.6287 1.63109
240 2 22.7062 15.6287 -1.63109 22.7062 15.6287 -1.63109
241 1 23.6569 13.9821 -2.5186e-12 23.6569 13.9821 -2.5186e-12
242 2 25.5582 13.9821 1.63109 25.5582 13.9821 1.63109
243 2 25.5582 13.9821 -1.63109 25.5582 13.9821 -1.63109
244 1 26.5088 15.6287 -2.55872e-12 26.5088 15.6287 -2.55872e-12
245 2 28.4101 15.6287 1.63109 28.4101 15.6287 1.63109
246 2 28.4101 15.6287 -1.63109 28.4101 15.6287 -1.63109
247 1 29.3607 13.9821 -2.60189e-12 29.3607 13.9821 -2.60189e-12
248 2 31.262 13.9821 1.63109 31.262 13.9821 1.63109
249 2 31.262 13.9821 -1.63109 31.262 13.9821 -1.63109
250 1 32.2127 15.6287 -2.63327e-12 32.2127 15.6287 -2.63327e-12
251 2 34.114 15.6287 1.63109 34.114 15.6287 1.63109
252 2 34.114 15.6287 -1.63109 34.114 15.6287 -1.63109
253 1 35.0646 13.9821 -2.67522e-12 35.0646 13.9821 -2.67522e-12
254 2 36.9659 13.9821 1.63109 36.9659 13.9821 1.63109
255 2 36.9659 13.9821 -1.63109 36.9659 13.9821 -1.63109
256 1 37.9165 15.6287 -2.69803e-12 37.9165 15.6287 -2.69803e-12
257 2 39.8178 15.6287 1.63109 39.8178 15.6287 1.63109
258 2 39.8178 15.6287 -1.63109 39.8178 15.6287 -1.63109
259 1 40.7685 13.9821 -2.69753e-12 40.7685 13.9821 -2.69753e-12
260 2 42.6698 13.9821 1.63109 42.6698 13.9821 1.63109
261 2 42.6698 13.9821 -1.63109 42.6698 13.9821 -1.63109
262 1 43.6204 15.6287 -2.69242e-12 43.6204 15.6287 -2.69242e-12
263 2 45.5217 15.6287 1.63109 45.5217 15.6287 1.63109
264 2 45.5217 15.6287 -1.63109 45.5217 15.6287 -1.63109
265 1 46.4724 13.9821 -2.65844e-12 46.4724 13.9821 -2.65844e-12
266 2 48.3736 13.9821 1.63109 48.3736 13.9821 1.63109
267 2 48.3736 13.9821 -1.63109 48.3736 13.9821 -1.63109
268 1 49.3243 15.6287 -2.61225e-12 49.3243 15.6287 -2.61225e-12
269 2 51.2256 15.6287 1.63109 51.2256 15.6287 1.63109
270 2 51.2256 15.6287 -1.63109 51.2256 15.6287 -1.63109
271 1 52.1762 17.2753 -2.55776e-12 0.841377 17.2753 -2.55776e-12
272 2 2.74267 17.2753 1.63109 2.74267 17.2753 1.63109
273 2 2.74267 17.2753 -1.63109 2.74267 17.2753 -1.63109
274 1 3.69331 18.9218 -2.49317e-12 3.69331 18.9218 -2.49317e-12
275 2 5.5946 18.9218 1.63109 5.5946 18.9218 1.63109
276 2 5.5946 18.9218 -1.63109 5.5946 18.9218 -1.63109
277 1 6.54525 17.2753 -2.43721e-12 6.54525 17.2753 -2.43721e-12
278 2 8.44654 17.2753 1.63109 8.44654 17.2753 1.63109
279 2 8.44654 17.2753 -1.63109 8.44654 17.2753 -1.63109
280 1 9.39719 18.9218 -2.44074e-12 9.39719 18.9218 -2.44074e-12
281 2 11.2985 18.9218 1.63109 11.2985 18.9218 1.63109
282 2 11.2985 18.9218 -1.63109 11.2985 18.9218 -1.63109
283 1 12.2491 17.2753 -2.43402e-12 12.2491 17.2753 -2.43402e-12
284 2 14.1504 17.2753 1.63109 14.1504 17.2753 1.63109
285 2 14.1504 17.2753 -1.63109 14.1504 17.2753 -1.63109
286 1 15.1011 18.9218 -2.47318e-12 15.1011 18.9218 -2.47318e-12
287 2 17.0023 18.9218 1.63109 17.0023 18.9218 1.63109
288 2 17.0023 18.9218 -1.63109 17.0023 18.9218 -1.63109
289 1 17.953 17.2753 -2.49055e-12 17.953 17.2753 -2.49055e-12
290 2 19.8543 17.2753 1.63109 19.8543 17.2753 1.63109
291 2 19.8543 17.2753 -1.63109 19.8543 17.2753 -1.63109
292 1 20.8049 18.9218 -2.51899e-12 20.8049 18.9218 -2.51899e-12
293 2 22.7062 18.9218 1.63109 22.7062 18.9218 1.63109
294 2 22.7062 18.9218 -1.63109 22.7062 18.9218 -1.63109
295 1 23.6569 17.2753 -2.52424e-12 23.6569 17.2753 -2.52424e-12
296 2 25.5582 17.2753 1.63109 25.5582 17.2753 1.63109
297 2 25.5582 17.2753 -1.63109 25.5582 17.2753 -1.63109
298 1 26.5088 18.9218 -2.56457e-12 26.5088 18.9218 -2.56457e-12
299 2 28.4101 18.9218 1.63109 28.4101 18.9218 1.63109
300 2 28.4101 18.9218 -1.63109 28.4101 18.9218 -1.63109
301 1 29.3607 17.2753 -2.60822e-12 29.3607 17.2753 -2.60822e-12
302 2 31.262 17.2753 1.63109 31.262 17.2753 1.63109
303 2 31.262 17.2753 -1.63109 31.262 17.2753 -1.63109
304 1 32.2127 18.9218 -2.62156e-12 32.2127 18.9218 -2.62156e-12
305 2 34.114 18.9218 1.63109 34.114 18.9218 1.63109
306 2 34.114 18.9218 -1.63109 34.114 18.9218 -1.63109
307 1 35.0646 17.2753 -2.66503e-12 35.0646 17.2753 -2.66503e-12
308 2 36.9659 17.2753 1.63109 36.9659 17.2753 1.63109
309 2 36.9659 17.2753 -1.63109 36.9659 17.2753 -1.63109
310 1 37.9165 18.9218 -2.68191e-12 37.9165 18.9218 -2.68191e-12
311 2 39.8178 18.9218 1.63109 39.8178 18.9218 1.63109
312 2 39.8178 18.9218 -1.63109 39.8178 18.9218 -1.63109
313 1 40.7685 17.2753 -2.7098e-12 40.7685 17.2753 -2.7098e-12
314 2 42.6698 17.2753 1.63109 42.6698 17.2753 1.63109
315 2 42.6698 17.2753 -1.63109 42.6698 17.2753 -1.63109
316 1 43.6204 18.9218 -2.70072e-12 43.6204 18.9218 -2.70072e-12
317 2 45.5217 18.9218 1.63109 45.5217 18.9218 1.63109
318 2 45.5217 18.9218 -1.63109 45.5217 18.9218 -1.63109
319 1 46.4724 17.2753 -2.65538e-12 46.4724 17.2753 -2.65538e-12
320 2 48.3736 17.2753 1.63109 48.3736 17.2753 1.63109
321 2 48.3736 17.2753 -1.63109 48.3736 17.2753 -1.63109
322 1 49.3243 18.9218 -2.61903e-12 49.3243 18.9218 -2.61903e-12
323 2 51.2256 18.9218 1.63109 51.2256 18.9218 1.63109
324 2 51.2256 18.9218 -1.63109 51.2256 18.9218 -1.63109
325 1 52.1762 20.5684 -2.56905e-12 0.841377 20.5684 -2.56905e-12
326 2 2.74267 20.5684 1.63109 2.74267 20.5684 1.63109
327 2 2.74267 20.5684 -1.63109 2.74267 20.5684 -1.63109
328 1 3.69331 22.215 -2.49096e-12 3.69331 22.215 -2.49096e-12
329 2 5.5946 22.215 1.63109 5.5946 22.215 1.63109
330 2 5.5946 22.215 -1.63109 5.5946 22.215 -1.63109
331 1 6.54525 20.5684 -2.45137e-12 6.54525 20.5684 -2.45137e-12
332 2 8.44654 20.5684 1.63109 8.44654 20.5684 1.63109
333 2 8.44654 20.5684 -1.63109 8.44654 20.5684 -1.63109
334 1 9.39719 22.215 -2.46549e-12 9.39719 22.215 -2.46549e-12
335 2 11.2985 22.215 1.63109 11.2985 22.215 1.63109
336 2 11.2985 22.215 -1.63109 11.2985 22.215 -1.63109
337 1 12.2491 20.5684 -2.45882e-12 12.2491 20.5684 -2.45882e-12
338 2 14.1504 20.5684 1.63109 14.1504 20.5684 1.63109
339 2 14.1504 20.5684 -1.63109 14.1504 20.5684 -1.63109
340 1 15.1011 22.215 -2.49316e-12 15.1011 22.215 -2.49316e-12
341 2 17.0023 22.215 1.63109 17.0023 22.215 1.63109
342 2 17.0023 22.215 -1.63109 17.0023 22.215 -1.63109
343 1 17.953 20.5684 -2.50243e-12 17.953 20.5684 -2.50243e-12
344 2 19.8543 20.5684 1.63109 19.8543 20.5684 1.63109
345 2 19.8543 20.5684 -1.63109 19.8543 20.5684 -1.63109
346 1 20.8049 22.215 -2.51006e-12 20.8049 22.215 -2.51006e-12
347 2 22.7062 22.215 1.63109 22.7062 22.215 1.63109
348 2 22.7062 22.215 -1.63109 22.7062 22.215 -1.63109
349 1 23.6569 20.5684 -2.5353e-12 23.6569 20.5684 -2.5353e-12
350 2 25.5582 20.5684 1.63109 25.5582 20.5684 1.63109
351 2 25.5582 20.5684 -1.63109 25.5582 20.5684 -1.63109
352 1 26.5088 22.215 -2.58638e-12 26.5088 22.215 -2.58638e-12
353 2 28.4101 22.215 1.63109 28.4101 22.215 1.63109
354 2 28.4101 22.215 -1.63109 28.4101 22.215 -1.63109
355 1 29.3607 20.5684 -2.59941e-12 29.3607 20.5684 -2.59941e-12
356 2 31.262 20.5684 1.63109 31.262 20.5684 1.63109
357 2 31.262 20.5684 -1.63109 31.262 20.5684 -1.63109
358 1 32.2127 22.215 -2.6261e-12 32.2127 22.215 -2.6261e-12
359 2 34.114 22.215 1.63109 34.114 22.215 1.63109
360 2 34.114 22.215 -1.63109 34.114 22.215 -1.63109
361 1 35.0646 20.5684 -2.66096e-12 35.0646 20.5684 -2.66096e-12
362 2 36.9659 20.5684 1.63109 36.9659 20.5684 1.63109
363 2 36.9659 20.5684 -1.63109 36.9659 20.5684 -1.63109
364 1 37.9165 22.215 -2.67559e-12 37.9165 22.215 -2.67559e-12
365 2 39.8178 22.215 1.63109 39.8178 22.215 1.63109
366 2 39.8178 22.215 -1.63109 39.8178 22.215 -1.63109
367 1 40.7685 20.5684 -2.67794e-12 40.7685 20.5684 -2.67794e-12
368 2 42.6698 20.5684 1.63109 42.6698 20.5684 1.63109
369 2 42.6698 20.5684 -1.63109 42.6698 20.5684 -1.63109
370 1 43.6204 22.215 -2.69444e-12 43.6204 22.215 -2.69444e-12
371 2 45.5217 22.215 1.63109 45.5217 22.215 1.63109
372 2 45.5217 22.215 -1.63109 45.5217 22.215 -1.63109
373 1 46.4724 20.5684 -2.62333e-12 46.4724 20.5684 -2.62333e-12
374 2 48.3736 20.5684 1.63109 48.3736 20.5684 1.63109
375 2 48.3736 20.5684 -1.63109 48.3736 20.5684 -1.63109
376 1 49.3243 22.215 -2.61922e-12 49.3243 22.215 -2.61922e-12
377 2 51.2256 22.215 1.63109 51.2256 22.215 1.63109
378 2 51.2256 22.215 -1.63109 51.2256 22.215 -1.63109
379 1 52.1762 23.8615 -2.60159e-12 0.841377 23.8615 -2.60159e-12
380 2 2.74267 23.8615 1.63109 2.74267 23.8615 1.63109
381 2 2.74267 23.8615 -1.63109 2.74267 23.8615 -1.63109
382 1 3.69331 25.5081 -2.57773e-12 3.69331 25.5081 -2.57773e-12
383 2 5.5946 25.5081 1.63109 5.5946 25.5081 1.63109
384 2 5.5946 25.5081 -1.63109 5.5946 25.5081 -1.63109
385 1 6.54525 23.8615 -2.50831e-12 6.54525 23.8615 -2.50831e-12
386 2 8.44654 23.8615 1.63109 8.44654 23.8615 1.63109
387 2 8.44654 23.8615 -1.63109 8.44654 23.8615 -1.63109
388 1 9.39719 25.5081 -2.51659e-12 9.39719 25.5081 -2.51659e-12
389 2 11.2985 25.5081 1.63109 11.2985 25.5081 1.63109
390 2 11.2985 25.5081 -1.63109 11.2985 25.5081 -1.63109
391 1 12.2491 23.8615 -2.50252e-12 12.2491 23.8615 -2.50252e-12
392 2 14.1504 23.8615 1.63109 14.1504 23.8615 1.63109
393 2 14.1504 23.8615 -1.63109 14.1504 23.8615 -1.63109
394 1 15.1011 25.5081 -2.53458e-12 15.1011 25.5081 -2.53458e-12
395 2 17.0023 25.5081 1.63109 17.0023 25.5081 1.63109
396 2 17.0023 25.5081 -1.63109 17.0023 25.5081 -1.63109
397 1 17.953 23.8615 -2.53353e-12 17.953 23.8615 -2.53353e-12
398 2 19.8543 23.8615 1.63109 19.8543 23.8615 1.63109
399 2 19.8543 23.8615 -1.63109 19.8543 23.8615 -1.63109
400 1 20.8049 25.5081 -2.52348e-12 20.8049 25.5081 -2.52348e-12
401 2 22.7062 25.5081 1.63109 22.7062 25.5081 1.63109
402 2 22.7062 25.5081 -1.63109 22.7062 25.5081 -1.63109
403 1 23.6569 23.8615 -2.58032e-12 23.6569 23.8615 -2.58032e-12
404 2 25.5582 23.8615 1.63109 25.5582 23.8615 1.63109
405 2 25.5582 23.8615 -1.63109 25.5582 23.8615 -1.63109
406 1 26.5088 25.5081 -2.57488e-12 26.5088 25.5081 -2.57488e-12
407 2 28.4101 25.5081 1.63109 28.4101 25.5081 1.63109
408 2 28.4101 25.5081 -1.63109 28.4101 25.5081 -1.63109
409 1 29.3607 23.8615 -2.59188e-12 29.3607 23.8615 -2.59188e-12
410 2 31.262 23.8615 1.63109 31.262 23.8615 1.63109
411 2 31.262 23.8615 -1.63109 31.262 23.8615 -1.63109
412 1 32.2127 25.5081 -2.6262e-12 32.2127 25.5081 -2.6262e-12
413 2 34.114 25.5081 1.63109 34.114 25.5081 1.63109
414 2 34.114 25.5081 -1.63109 34.114 25.5081 -1.63109
415 1 35.0646 23.8615 -2.64104e-12 35.0646 23.8615 -2.64104e-12
416 2 36.9659 23.8615 1.63109 36.9659 23.8615 1.63109
417 2 36.9659 23.8615 -1.63109 36.9659 23.8615 -1.63109
418 1 37.9165 25.5081 -2.7036e-12 37.9165 25.5081 -2.7036e-12
419 2 39.8178 25.5081 1.63109 39.8178 25.5081 1.63109
420 2 39.8178 25.5081 -1.63109 39.8178 25.5081 -1.63109
421 1 40.7685 23.8615 -2.6968e-12 40.7685 23.8615 -2.6968e-12
422 2 42.6698 23.8615 1.63109 42.6698 23.8615 1.63109
423 2 42.6698 23.8615 -1.63109 42.6698 23.8615 -1.63109
424 1 43.6204 25.5081 -2.71977e-12 43.6204 25.5081 -2.71977e-12
425 2 45.5217 25.5081 1.63109 45.5217 25.5081 1.63109
426 2 45.5217 25.5081 -1.63109 45.5217 25.5081 -1.63109
427 1 46.4724 23.8615 -2.67809e-12 46.4724 23.8615 -2.67809e-12
428 2 48.3736 23.8615 1.63109 48.3736 23.8615 1.63109
429 2 48.3736 23.8615 -1.63109 48.3736 23.8615 -1.63109
430 1 49.3243 25.5081 -2.66767e-12 49.3243 25.5081 -2.66767e-12
431 2 51.2256 25.5081 1.63109 51.2256 25.5081 1.63109
432 2 51.2256 25.5081 -1.63109 51.2256 25.5081 -1.63109
433 1 52.1762 27.1547 -2.67599e-12 0.841377 27.1547 -2.67599e-12
434 2 2.74267 27.1547 1.63109 2.74267 27.1547 1.63109
435 2 2.74267 27.1547 -1.63109 2.74267 27.1547 -1.63109
436 1 3.69331 28.8012 -2.68488e-12 3.69331 28.8012 -2.68488e-12
437 2 5.5946 28.8012 1.63109 5.5946 28.8012 1.63109
438 2 5.5946 28.8012 -1.63109 5.5946 28.8012 -1.63109
439 1 6.54525 27.1547 -2.5865e-12 6.54525 27.1547 -2.5865e-12
440 2 8.44654 27.1547 1.63109 8.44654 27.1547 1.63109
441 2 8.44654 27.1547 -1.63109 8.44654 27.1547 -1.63109
442 1 9.39719 28.8012 -2.58414e-12 9.39719 28.8012 -2.58414e-12
443 2 11.2985 28.8012 1.63109 11.2985 28.8012 1.63109
444 2 11.2985 28.8012 -1.63109 11.2985 28.8012 -1.63109
445 1 12.2491 27.1547 -2.56571e-12 12.2491 27.1547 -2.56571e-12
446 2 14.1504 27.1547 1.63109 14.1504 27.1547 1.63109
447 2 14.1504 27.1547 -1.63109 14.1504 27.1547 -1.63109
448 1 15.1011 28.8012 -2.56801e-12 15.1011 28.8012 -2.56801e-12
449 2 17.0023 28.8012 1.63109 17.0023 28.8012 1.63109
450 2 17.0023 28.8012 -1.63109 17.0023 28.8012 -1.63109
451 1 17.953 27.1547 -2.57395e-12 17.953 27.1547 -2.57395e-12
452 2 19.8543 27.1547 1.63109 19.8543 27.1547 1.63109
453 2 19.8543 27.1547 -1.63109 19.8543 27.1547 -1.63109
454 1 20.8049 28.8012 -2.60691e-12 20.8049 28.8012 -2.60691e-12
455 2 22.7062 28.8012 1.63109 22.7062 28.8012 1.63109
456 2 22.7062 28.8012 -1.63109 22.7062 28.8012 -1.63109
457 1 23.6569 27.1547 -2.60087e-12 23.6569 27.1547 -2.60087e-12
458 2 25.5582 27.1547 1.63109 25.5582 27.1547 1.63109
459 2 25.5582 27.1547 -1.63109 25.5582 27.1547 -1.63109
460 1 26.5088 28.8012 -2.66564e-12 26.5088 28.8012 -2.66564e-12
461 2 28.4101 28.8012 1.63109 28.4101 28.8012 1.63109
462 2 28.4101 28.8012 -1.63109 28.4101 28.8012 -1.63109
463 1 29.3607 27.1547 -2.63509e-12 29.3607 27.1547 -2.63509e-12
464 2 31.262 27.1547 1.63109 31.262 27.1547 1.63109
465 2 31.262 27.1547 -1.63109 31.262 27.1547 -1.63109
466 1 32.2127 28.8012 -2.70487e-12 32.2127 28.8012 -2.70487e-12
467 2 34.114 28.8012 1.63109 34.114 28.8012 1.63109
468 2 34.114 28.8012 -1.63109 34.114 28.8012 -1.63109
469 1 35.0646 27.1547 -2.69398e-12 35.0646 27.1547 -2.69398e-12
470 2 36.9659 27.1547 1.63109 36.9659 27.1547 1.63109
471 2 36.9659 27.1547 -1.63109 36.9659 27.1547 -1.63109
472 1 37.9165 28.8012 -2.75709e-12 37.9165 28.8012 -2.75709e-12
473 2 39.8178 28.8012 1.63109 39.8178 28.8012 1.63109
474 2 39.8178 28.8012 -1.63109 39.8178 28.8012 -1.63109
475 1 40.7685 27.1547 -2.74181e-12 40.7685 27.1547 -2.74181e-12
476 2 42.6698 27.1547 1.63109 42.6698 27.1547 1.63109
477 2 42.6698 27.1547 -1.63109 42.6698 27.1547 -1.63109
478 1 43.6204 28.8012 -2.77166e-12 43.6204 28.8012 -2.77166e-12
479 2 45.5217 28.8012 1.63109 45.5217 28.8012 1.63109
480 2 45.5217 28.8012 -1.63109 45.5217 28.8012 -1.63109
481 1 46.4724 27.1547 -2.75305e-12 46.4724 27.1547 -2.75305e-12
482 2 48.3736 27.1547 1.63109 48.3736 27.1547 1.63109
483 2 48.3736 27.1547 -1.63109 48.3736 27.1547 -1.63109
484 1 49.3243 28.8012 -2.75334e-12 49.3243 28.8012 -2.75334e-12
485 2 51.2256 28.8012 1.63109 51.2256 28.8012 1.63109
486 2 51.2256 28.8012 -1.63109 51.2256 28.8012 -1.63109
487 1 52.1762 30.4478 -2.72445e-12 0.841377 30.4478 -2.72445e-12
488 2 2.74267 30.4478 1.63109 2.74267 30.4478 1.63109
489 2 2.74267 30.4478 -1.63109 2.74267 30.4478 -1.63109
490 1 3.69331 32.0944 -2.71198e-12 3.69331 32.0944 -2.71198e-12
491 2 5.5946 32.0944 1.63109 5.5946 32.0944 1.63109
492 2 5.5946 32.0944 -1.63109 5.5946 32.0944 -1.63109
493 1 6.54525 30.4478 -2.62671e-12 6.54525 30.4478 -2.62671e-12
494 2 8.44654 30.4478 1.63109 8.44654 30.4478 1.63109
495 2 8.44654 30.4478 -1.63109 8.44654 30.4478 -1.63109
496 1 9.39719 32.0944 -2.65224e-12 9.39719 32.0944 -2.65224e-12
497 2 11.2985 32.0944 1.63109 11.2985 32.0944 1.63109
498 2 11.2985 32.0944 -1.63109 11.2985 32.0944 -1.63109
499 1 12.2491 30.4478 -2.59255e-12 12.2491 30.4478 -2.59255e-12
500 2 14.1504 30.4478 1.63109 14.1504 30.4478 1.63109
501 2 14.1504 30.4478 -1.63109 14.1504 30.4478 -1.63109
502 1 15.1011 32.0944 -2.65272e-12 15.1011 32.0944 -2.65272e-12
503 2 17.0023 32.0944 1.63109 17.0023 32.0944 1.63109
504 2 17.0023 32.0944 -1.63109 17.0023 32.0944 -1.63109
505 1 17.953 30.4478 -2.61173e-12 17.953 30.4478 -2.61173e-12
506 2 19.8543 30.4478 1.63109 19.8543 30.4478 1.63109
507 2 19.8543 30.4478 -1.63109 19.8543 30.4478 -1.63109
508 1 20.8049 32.0944 -2.66922e-12 20.8049 32.0944 -2.66922e-12
509 2 22.7062 32.0944 1.63109 22.7062 32.0944 1.63109
510 2 22.7062 32.0944 -1.63109 22.7062 32.0944 -1.63109
511 1 23.6569 30.4478 -2.6358e-12 23.6569 30.4478 -2.6358e-12
512 2 25.5582 30.4478 1.63109 25.5582 30.4478 1.63109
513 2 25.5582 30.4478 -1.63109 25.5582 30.4478 -1.63109
514 1 26.5088 32.0944 -2.68818e-12 26.5088 32.0944 -2.68818e-12
515 2 28.4101 32.0944 1.63109 28.4101 32.0944 1.63109
516 2 28.4101 32.0944 -1.63109 28.4101 32.0944 -1.63109
517 1 29.3607 30.4478 -2.69512e-12 29.3607 30.4478 -2.69512e-12
518 2 31.262 30.4478 1.63109 31.262 30.4478 1.63109
519 2 31.262 30.4478 -1.63109 31.262 30.4478 -1.63109