ITEM: TIMESTEP
24500
ITEM: NUMBER OF ATOMS
810
ITEM: BOX BOUNDS pp pp pp
8.4137701477268123e-01 5.2176227985227342e+01
8.0961581116522285e-01 5.0206599188834083e+01
-1.0000000000000000e+01 1.0000000000000000e+01
ITEM: ATOMS id type x y z xu yu zu
1 1 0.960776 0.996181 0.270508 0.960776 0.996181 0.270508
2 2 2.81744 0.933514 1.93193 2.81744 0.933514 1.93193
3 2 2.89661 1.18786 -1.32441 2.89661 1.18786 -1.32441
4 1 3.83885 2.7113 0.37246 3.83885 2.7113 0.37246
5 2 5.84697 2.74044 1.89307 5.84697 2.74044 1.89307
6 2 5.67279 2.73613 -1.29922 5.67279 2.73613 -1.29922
7 1 6.65945 0.977531 0.178629 6.65945 0.977531 0.178629
8 2 8.53045 0.9898 1.85927 8.53045 0.9898 1.85927
9 2 8.51333 1.10571 -1.44717 8.51333 1.10571 -1.44717
10 1 9.48074 2.68286 0.252537 9.48074 2.68286 0.252537
11 2 11.4582 2.39703 1.92981 11.4582 2.39703 1.92981
12 2 11.381 2.95212 -1.4052 11.381 2.95212 -1.4052
13 1 12.4513 1.01098 -0.00890243 12.4513 1.01098 -0.00890243
14 2 14.3665 0.971068 1.58389 14.3665 0.971068 1.58389
15 2 14.229 1.15915 -1.73618 14.229 1.15915 -1.73618
16 1 15.2275 2.77837 -0.0189416 15.2275 2.77837 -0.0189416
17 2 17.3831 2.70819 1.36454 17.3831 2.70819 1.36454
18 2 17.0536 2.77462 -1.92271 17.0536 2.77462 -1.92271
19 1 18.0696 1.06744 -0.483299 18.0696 1.06744 -0.483299
20 2 20.1016 0.988583 1.02397 20.1016 0.988583 1.02397
21 2 19.8737 1.15341 -2.21254 19.8737 1.15341 -2.21254
22 1 20.945 2.71992 -0.571535 20.945 2.71992 -0.571535
23 2 23.1156 2.59718 0.819596 23.1156 2.59718 0.819596
24 2 22.688 2.66789 -2.44258 22.688 2.66789 -2.44258
25 1 23.7741 1.09379 -0.866379 23.7741 1.09379 -0.866379
26 2 25.6969 1.08757 0.647751 25.6969 1.08757 0.647751
27 2 25.6427 1.03068 -2.56632 25.6427 1.03068 -2.56632
28 1 26.5969 2.70739 -0.929296 26.5969 2.70739 -0.929296
29 2 28.4937 2.74351 0.775702 28.4937 2.74351 0.775702
30 2 28.539 2.80118 -2.55821 28.539 2.80118 -2.55821
31 1 29.4927 1.21916 -0.971237 29.4927 1.21916 -0.971237
32 2 31.0352 1.13081 0.901174 31.0352 1.13081 0.901174
33 2 31.5455 1.07594 -2.33995 31.5455 1.07594 -2.33995
34 1 32.416 2.7249 -0.635708 32.416 2.7249 -0.635708
35 2 33.8995 2.90124 1.29658 33.8995 2.90124 1.29658
36 2 34.5809 2.51585 -1.90467 34.5809 2.51585 -1.90467
37 1 35.0967 0.97162 -0.0126135 35.0967 0.97162 -0.0126135
38 2 36.8379 1.07491 1.78403 36.8379 1.07491 1.78403
39 2 37.1528 0.924608 -1.44547 37.1528 0.924608 -1.44547
40 1 38.0443 2.6172 0.197801 38.0443 2.6172 0.197801
41 2 39.8426 2.6 1.94617 39.8426 2.6 1.94617
42 2 40.1185 2.70399 -1.42781 40.1185 2.70399 -1.42781
43 1 40.9134 1.00877 0.336631 40.9134 1.00877 0.336631
44 2 42.9357 50.4127 1.90402 42.9357 1.01569 1.90402
45 2 42.7696 1.07478 -1.40642 42.7696 1.07478 -1.40642
46 1 43.7771 2.70222 0.265278 43.7771 2.70222 0.265278
47 2 45.6353 2.63494 1.89262 45.6353 2.63494 1.89262
48 2 45.6883 2.57674 -1.33269 45.6883 2.57674 -1.33269
49 1 46.6231 0.945879 0.27235 46.6231 0.945879 0.27235
50 2 48.5592 0.906205 1.84861 48.5592 0.906205 1.84861
51 2 48.5969 1.07937 -1.42798 48.5969 1.07937 -1.42798
52 1 49.4911 2.61852 0.262862 49.4911 2.61852 0.262862
53 2 51.4213 2.61302 1.95114 51.4213 2.61302 1.95114
54 2 51.3944 2.81497 -1.32564 51.3944 2.81497 -1.32564
55 1 1.03771 4.30629 0.39638 1.03771 4.30629 0.39638
56 2 2.92748 4.30736 2.00714 2.92748 4.30736 2.00714
57 2 2.9014 4.44566 -1.22918 2.9014 4.44566 -1.22918
58 1 3.89252 6.04159 0.4262 3.89252 6.04159 0.4262
59 2 5.80043 5.77291 2.00193 5.80043 5.77291 2.00193
60 2 5.61532 5.98245 -1.30585 5.61532 5.98245 -1.30585
61 1 6.6569 4.35827 0.156387 6.6569 4.35827 0.156387
62 2 8.4541 4.22489 1.89618 8.4541 4.22489 1.89618
63 2 8.6314 4.36729 -1.28446 8.6314 4.36729 -1.28446
64 1 9.53694 5.9549 0.448666 9.53694 5.9549 0.448666
65 2 11.4458 5.97396 2.03294 11.4458 5.97396 2.03294
66 2 11.4066 5.97475 -1.26275 11.4066 5.97475 -1.26275
67 1 12.3711 4.39467 0.392503 12.3711 4.39467 0.392503
68 2 14.3841 4.25206 1.82695 14.3841 4.25206 1.82695
69 2 14.0578 4.49105 -1.50837 14.0578 4.49105 -1.50837
70 1 15.2105 6.02043 0.170801 15.2105 6.02043 0.170801
71 2 17.41 6.1333 1.47331 17.41 6.1333 1.47331
72 2 16.7827 6.00354 -1.73408 16.7827 6.00354 -1.73408
73 1 17.9777 4.36065 -0.354334 17.9777 4.36065 -0.354334
74 2 20.1041 4.346 1.05021 20.1041 4.346 1.05021
75 2 19.8244 4.42635 -2.1333 19.8244 4.42635 -2.1333
76 1 20.8761 6.07359 -0.501736 20.8761 6.07359 -0.501736
77 2 22.8146 5.80124 1.04083 22.8146 5.80124 1.04083
78 2 22.707 6.18282 -2.21432 22.707 6.18282 -2.21432
79 1 23.704 4.36851 -0.849199 23.704 4.36851 -0.849199
80 2 25.6583 4.30344 0.749702 25.6583 4.30344 0.749702
81 2 25.5279 4.35238 -2.47416 25.5279 4.35238 -2.47416
82 1 26.6865 6.02162 -0.779327 26.6865 6.02162 -0.779327
83 2 28.4902 5.80318 0.930933 28.4902 5.80318 0.930933
84 2 28.5013 6.21622 -2.32577 28.5013 6.21622 -2.32577
85 1 29.5113 4.36648 -0.865339 29.5113 4.36648 -0.865339
86 2 31.4071 4.43789 0.836304 31.4071 4.43789 0.836304
87 2 31.3962 4.28482 -2.39888 31.3962 4.28482 -2.39888
88 1 32.4255 5.92446 -0.838854 32.4255 5.92446 -0.838854
89 2 34.1613 6.05819 1.10101 34.1613 6.05819 1.10101
90 2 34.5692 5.84603 -2.08128 34.5692 5.84603 -2.08128
91 1 35.24 4.31873 -0.188803 35.24 4.31873 -0.188803
92 2 37.0851 4.5022 1.53644 37.0851 4.5022 1.53644
93 2 37.3093 4.10014 -1.71972 37.3093 4.10014 -1.71972
94 1 38.131 5.96394 -0.271416 38.131 5.96394 -0.271416
95 2 39.7933 5.91982 1.71144 39.7933 5.91982 1.71144
96 2 40.2835 5.95386 -1.48028 40.2835 5.95386 -1.48028
97 1 40.9408 4.27726 0.262174 40.9408 4.27726 0.262174
98 2 42.861 4.2828 1.95363 42.861 4.2828 1.95363
99 2 43.001 4.42303 -1.34703 43.001 4.42303 -1.34703
100 1 43.8685 5.95507 0.405575 43.8685 5.95507 0.405575
101 2 45.6768 5.83241 2.05717 45.6768 5.83241 2.05717
102 2 45.8545 6.11003 -1.24363 45.8545 6.11003 -1.24363
103 1 46.6185 4.29296 0.319796 46.6185 4.29296 0.319796
104 2 48.409 4.20201 1.97126 48.409 4.20201 1.97126
105 2 48.6387 4.37895 -1.25204 48.6387 4.37895 -1.25204
106 1 49.4306 5.90152 0.51596 49.4306 5.90152 0.51596
107 2 51.3574 5.87229 2.04023 51.3574 5.87229 2.04023
108 2 51.371 5.97781 -1.18096 51.371 5.97781 -1.18096
109 1 1.05769 7.61855 0.462155 1.05769 7.61855 0.462155
110 2 3.0045 7.78556 2.0043 3.0045 7.78556 2.0043
111 2 2.89282 7.55721 -1.33701 2.89282 7.55721 -1.33701
112 1 3.8728 9.24316 0.263005 3.8728 9.24316 0.263005
113 2 5.80949 9.36165 1.9561 5.80949 9.36165 1.9561
114 2 5.63513 9.04358 -1.38697 5.63513 9.04358 -1.38697
115 1 6.67188 7.57023 0.37021 6.67188 7.57023 0.37021
116 2 8.46783 7.67898 2.01566 8.46783 7.67898 2.01566
117 2 8.53384 7.53307 -1.24951 8.53384 7.53307 -1.24951
118 1 9.59958 9.17609 0.379222 9.59958 9.17609 0.379222
119 2 11.6454 9.23029 2.00597 11.6454 9.23029 2.00597
120 2 11.4537 9.20974 -1.3736 11.4537 9.20974 -1.3736
121 1 12.468 7.57442 0.318033 12.468 7.57442 0.318033
122 2 14.4512 7.8191 1.69411 14.4512 7.8191 1.69411
123 2 14.1984 7.53854 -1.54782 14.1984 7.53854 -1.54782
124 1 15.245 9.29738 -0.0850443 15.245 9.29738 -0.0850443
125 2 17.2059 9.17407 1.45489 17.2059 9.17407 1.45489
126 2 17.0415 9.43283 -1.77901 17.0415 9.43283 -1.77901
127 1 18.0825 7.70972 -0.284841 18.0825 7.70972 -0.284841
128 2 20.0596 7.74521 1.19325 20.0596 7.74521 1.19325
129 2 19.8431 7.76122 -2.02526 19.8431 7.76122 -2.02526
130 1 20.9565 9.24347 -0.413012 20.9565 9.24347 -0.413012
131 2 22.8624 9.00832 1.30446 22.8624 9.00832 1.30446
132 2 22.8045 9.35752 -2.01335 22.8045 9.35752 -2.01335
133 1 23.7943 7.59032 -0.479673 23.7943 7.59032 -0.479673
134 2 25.7401 7.47586 1.03606 25.7401 7.47586 1.03606
135 2 25.6383 7.80533 -2.17088 25.6383 7.80533 -2.17088
136 1 26.7102 9.23731 -0.46777 26.7102 9.23731 -0.46777
137 2 28.6363 9.24737 1.15067 28.6363 9.24737 1.15067
138 2 28.568 9.18858 -2.22032 28.568 9.18858 -2.22032
139 1 29.5554 7.52136 -0.450692 29.5554 7.52136 -0.450692
140 2 31.5095 7.38823 0.986618 31.5095 7.38823 0.986618
141 2 31.2056 7.69203 -2.23808 31.2056 7.69203 -2.23808
142 1 32.3229 9.15649 -0.525985 32.3229 9.15649 -0.525985
143 2 34.2074 9.14169 1.1184 34.2074 9.14169 1.1184
144 2 34.2212 9.23157 -2.02466 34.2212 9.23157 -2.02466
145 1 35.3355 7.57925 -0.4891 35.3355 7.57925 -0.4891
146 2 37.132 7.5614 1.24095 37.132 7.5614 1.24095
147 2 37.315 7.62618 -1.97031 37.315 7.62618 -1.97031
148 1 38.1943 9.1341 -0.17554 38.1943 9.1341 -0.17554
149 2 39.7714 9.16172 1.81815 39.7714 9.16172 1.81815
150 2 40.2976 9.17364 -1.45255 40.2976 9.17364 -1.45255
151 1 41.0286 7.57286 0.253352 41.0286 7.57286 0.253352
152 2 42.7391 7.52584 2.09546 42.7391 7.52584 2.09546
153 2 42.9331 7.66327 -1.25753 42.9331 7.66327 -1.25753
154 1 43.8112 9.14786 0.561234 43.8112 9.14786 0.561234
155 2 45.6929 9.1088 2.30009 45.6929 9.1088 2.30009
156 2 45.7046 9.20821 -1.0844 45.7046 9.20821 -1.0844
157 1 46.6209 7.53449 0.548141 46.6209 7.53449 0.548141
158 2 48.5178 7.64001 2.12277 48.5178 7.64001 2.12277
159 2 48.4247 7.53434 -1.13192 48.4247 7.53434 -1.13192
160 1 49.4265 9.23904 0.449529 49.4265 9.23904 0.449529
161 2 51.4007 9.19743 2.04446 51.4007 9.19743 2.04446
162 2 51.2937 9.12267 -1.1107 51.2937 9.12267 -1.1107
163 1 0.868433 10.8281 0.414531 0.868433 10.8281 0.414531
164 2 2.84632 10.8977 1.9395 2.84632 10.8977 1.9395
165 2 2.77272 10.8541 -1.25211 2.77272 10.8541 -1.25211
166 1 3.81511 12.5745 0.246457 3.81511 12.5745 0.246457
167 2 5.79839 12.4986 1.78887 5.79839 12.4986 1.78887
168 2 5.70956 12.6568 -1.39352 5.70956 12.6568 -1.39352
169 1 6.66343 10.8128 0.109201 6.66343 10.8128 0.109201
170 2 8.50992 10.8829 1.85577 8.50992 10.8829 1.85577
171 2 8.81671 10.6818 -1.35762 8.81671 10.6818 -1.35762
172 1 9.6012 12.4845 0.220315 9.6012 12.4845 0.220315
173 2 11.5832 12.5408 1.80551 11.5832 12.5408 1.80551
174 2 11.3927 12.4825 -1.43972 11.3927 12.4825 -1.43972
175 1 12.5063 10.9 0.223167 12.5063 10.9 0.223167
176 2 14.507 10.8793 1.78047 14.507 10.8793 1.78047
177 2 14.3425 11.0604 -1.53847 14.3425 11.0604 -1.53847
178 1 15.2853 12.5479 0.0837222 15.2853 12.5479 0.0837222
179 2 17.3132 12.6166 1.5801 17.3132 12.6166 1.5801
180 2 17.0284 12.4691 -1.72924 17.0284 12.4691 -1.72924
181 1 18.0991 10.9154 -0.0762222 18.0991 10.9154 -0.0762222
182 2 20.0272 10.7371 1.40928 20.0272 10.7371 1.40928
183 2 19.8974 10.977 -1.82726 19.8974 10.977 -1.82726
184 1 20.8888 12.5129 -0.202854 20.8888 12.5129 -0.202854
185 2 22.8367 12.4518 1.35638 22.8367 12.4518 1.35638
186 2 22.7469 12.4664 -1.87669 22.7469 12.4664 -1.87669
187 1 23.8273 10.8345 -0.269714 23.8273 10.8345 -0.269714
188 2 25.7711 10.7199 1.28026 25.7711 10.7199 1.28026
189 2 25.5742 11.1832 -1.88262 25.5742 11.1832 -1.88262
190 1 26.5833 12.5631 -0.179789 26.5833 12.5631 -0.179789
191 2 28.6218 12.4306 1.35054 28.6218 12.4306 1.35054
192 2 28.3658 12.6606 -1.90729 28.3658 12.6606 -1.90729
193 1 29.4521 10.8547 -0.494762 29.4521 10.8547 -0.494762
194 2 31.3447 10.7756 1.14912 31.3447 10.7756 1.14912
195 2 31.4131 11.0238 -2.07682 31.4131 11.0238 -2.07682
196 1 32.3416 12.4969 -0.342082 32.3416 12.4969 -0.342082
197 2 34.3202 12.4371 1.27486 34.3202 12.4371 1.27486
198 2 34.3123 12.5504 -2.05078 34.3123 12.5504 -2.05078
199 1 35.1582 10.8101 -0.440318 35.1582 10.8101 -0.440318
200 2 36.9804 10.7279 1.35251 36.9804 10.7279 1.35251
201 2 37.2496 10.7032 -1.87741 37.2496 10.7032 -1.87741
202 1 38.0886 12.4366 -0.321335 38.0886 12.4366 -0.321335
203 2 39.5926 12.501 1.70568 39.5926 12.501 1.70568
204 2 40.3473 12.3748 -1.46475 40.3473 12.3748 -1.46475
205 1 40.8904 10.8172 0.326331 40.8904 10.8172 0.326331
206 2 42.5755 10.7706 2.10336 42.5755 10.7706 2.10336
207 2 42.9775 10.7455 -1.08947 42.9775 10.7455 -1.08947
208 1 43.7944 12.4846 0.56831 43.7944 12.4846 0.56831
209 2 45.6259 12.434 2.32846 45.6259 12.434 2.32846
210 2 45.7713 12.4229 -0.987985 45.7713 12.4229 -0.987985
211 1 46.5905 10.7235 0.673626 46.5905 10.7235 0.673626
212 2 48.5113 10.6081 2.24742 48.5113 10.6081 2.24742
213 2 48.4533 10.9503 -0.995235 48.4533 10.9503 -0.995235
214 1 49.3629 12.4907 0.760671 49.3629 12.4907 0.760671
215 2 51.3721 12.5173 2.23147 51.3721 12.5173 2.23147
216 2 51.2416 12.5678 -1.08255 51.2416 12.5678 -1.08255
217 1 0.862052 14.1711 0.583733 0.862052 14.1711 0.583733
218 2 2.97862 14.1596 1.99043 2.97862 14.1596 1.99043
219 2 2.64339 14.0629 -1.25297 2.64339 14.0629 -1.25297
220 1 3.81592 15.7518 0.280027 3.81592 15.7518 0.280027
221 2 5.82938 15.7464 2.01393 5.82938 15.7464 2.01393
222 2 5.63462 15.6209 -1.39127 5.63462 15.6209 -1.39127
223 1 6.68307 14.1055 0.2613 6.68307 14.1055 0.2613
224 2 8.65277 14.0902 1.85468 8.65277 14.0902 1.85468
225 2 8.4593 14.1063 -1.40985 8.4593 14.1063 -1.40985
226 1 9.4624 15.7655 0.201964 9.4624 15.7655 0.201964
227 2 11.4604 15.903 1.56428 11.4604 15.903 1.56428
228 2 11.2543 15.6697 -1.59382 11.2543 15.6697 -1.59382
229 1 12.3903 14.1395 -0.0283285 12.3903 14.1395 -0.0283285
230 2 14.241 14.3605 1.59917 14.241 14.3605 1.59917
231 2 14.3068 14.0244 -1.71062 14.3068 14.0244 -1.71062
232 1 15.0785 15.8206 -0.307035 15.0785 15.8206 -0.307035
233 2 17.1418 16.016 1.26996 17.1418 16.016 1.26996
234 2 16.9746 15.7682 -1.99205 16.9746 15.7682 -1.99205
235 1 18.0074 14.2412 -0.24975 18.0074 14.2412 -0.24975
236 2 19.9972 14.2711 1.39089 19.9972 14.2711 1.39089
237 2 19.8977 14.1117 -1.88758 19.8977 14.1117 -1.88758
238 1 20.8893 15.839 -0.361594 20.8893 15.839 -0.361594
239 2 22.8533 15.9399 1.32241 22.8533 15.9399 1.32241
240 2 22.8465 15.7196 -1.95864 22.8465 15.7196 -1.95864
241 1 23.7417 14.187 -0.165983 23.7417 14.187 -0.165983
242 2 25.5276 14.3106 1.45971 25.5276 14.3106 1.45971
243 2 25.6573 14.1688 -1.82403 25.6573 14.1688 -1.82403
244 1 26.6518 15.8251 -0.222189 26.6518 15.8251 -0.222189
245 2 28.697 15.8232 1.35545 28.697 15.8232 1.35545
246 2 28.4772 15.6021 -1.9706 28.4772 15.6021 -1.9706
247 1 29.4183 14.0621 -0.241472 29.4183 14.0621 -0.241472
248 2 31.3665 14.128 1.31031 31.3665 14.128 1.31031
249 2 31.3681 14.1949 -1.90517 31.3681 14.1949 -1.90517
250 1 32.3411 15.7999 -0.325846 32.3411 15.7999 -0.325846
251 2 34.2395 15.7798 1.31648 34.2395 15.7798 1.31648
252 2 34.3426 15.9022 -1.94907 34.3426 15.9022 -1.94907
253 1 35.2442 14.1288 -0.419696 35.2442 14.1288 -0.419696
254 2 37.1074 13.9916 1.42675 37.1074 13.9916 1.42675
255 2 37.286 14.2397 -1.85088 37.286 14.2397 -1.85088
256 1 38.1836 15.7616 -0.034937 38.1836 15.7616 -0.034937
257 2 39.9245 15.9165 1.76739 39.9245 15.9165 1.76739
258 2 40.168 15.6138 -1.47859 40.168 15.6138 -1.47859
259 1 40.9485 14.1727 0.30707 40.9485 14.1727 0.30707
260 2 42.7432 14.2887 1.99848 42.7432 14.2887 1.99848
261 2 42.8989 14.0329 -1.33304 42.8989 14.0329 -1.33304
262 1 43.7533 15.8043 0.374357 43.7533 15.8043 0.374357
263 2 45.6022 15.8214 2.15213 45.6022 15.8214 2.15213
264 2 45.7623 15.6141 -1.09165 45.7623 15.6141 -1.09165
265 1 46.563 14.0807 0.661576 46.563 14.0807 0.661576
266 2 48.4057 14.0684 2.35952 48.4057 14.0684 2.35952
267 2 48.4081 14.2039 -0.983132 48.4081 14.2039 -0.983132
268 1 49.4375 15.7324 0.626538 49.4375 15.7324 0.626538
269 2 51.3868 15.894 2.13399 51.3868 15.894 2.13399
270 2 51.1805 15.6388 -1.15067 51.1805 15.6388 -1.15067
271 1 1.05411 17.3526 0.315618 1.05411 17.3526 0.315618
272 2 2.92689 17.3054 2.02902 2.92689 17.3054 2.02902
273 2 2.9664 17.4568 -1.27751 2.9664 17.4568 -1.27751
274 1 3.82072 19.0678 0.532758 3.82072 19.0678 0.532758
275 2 5.82046 19.1438 1.98785 5.82046 19.1438 1.98785
276 2 5.65583 18.9927 -1.38449 5.65583 18.9927 -1.38449
277 1 6.60195 17.3976 0.294239 6.60195 17.3976 0.294239
278 2 8.6113 17.3469 1.85571 8.6113 17.3469 1.85571
279 2 8.39102 17.4429 -1.36125 8.39102 17.4429 -1.36125
280 1 9.51633 19.0257 0.198073 9.51633 19.0257 0.198073
281 2 11.5605 19.0871 1.60904 11.5605 19.0871 1.60904
282 2 11.2847 19.0628 -1.69636 11.2847 19.0628 -1.69636
283 1 12.3579 17.4767 -0.204545 12.3579 17.4767 -0.204545
284 2 14.3412 17.4244 1.32816 14.3412 17.4244 1.32816
285 2 14.2048 17.5431 -1.91896 14.2048 17.5431 -1.91896
286 1 15.1407 19.2219 -0.281813 15.1407 19.2219 -0.281813
287 2 17.1662 19.0705 1.34366 17.1662 19.0705 1.34366
288 2 16.9809 19.4111 -2.009 16.9809 19.4111 -2.009
289 1 17.9466 17.5247 -0.484414 17.9466 17.5247 -0.484414
290 2 19.823 17.4808 1.27951 19.823 17.4808 1.27951
291 2 19.988 17.4338 -1.99166 19.988 17.4338 -1.99166
292 1 20.8794 19.0539 -0.393316 20.8794 19.0539 -0.393316
293 2 22.91 19.1709 1.06751 22.91 19.1709 1.06751
294 2 22.7314 19.0401 -2.09136 22.7314 19.0401 -2.09136
295 1 23.8045 17.4771 -0.520321 23.8045 17.4771 -0.520321
296 2 25.6463 17.5126 1.28556 25.6463 17.5126 1.28556
297 2 25.9555 17.5193 -1.99761 25.9555 17.5193 -1.99761
298 1 26.596 19.1902 -0.387642 26.596 19.1902 -0.387642
299 2 28.6232 19.1277 1.23527 28.6232 19.1277 1.23527
300 2 28.5747 19.0995 -2.01009 28.5747 19.0995 -2.01009
301 1 29.5121 17.414 -0.288439 29.5121 17.414 -0.288439
302 2 31.4313 17.4344 1.25381 31.4313 17.4344 1.25381
303 2 31.3629 17.3483 -1.98204 31.3629 17.3483 -1.98204
304 1 32.3707 19.0943 -0.453571 32.3707 19.0943 -0.453571
305 2 34.0958 19.1299 1.31711 34.0958 19.1299 1.31711
306 2 34.406 18.9956 -2.02107 34.406 18.9956 -2.02107
307 1 35.2526 17.462 -0.257684 35.2526 17.462 -0.257684
308 2 37.029 17.3725 1.50021 37.029 17.3725 1.50021
309 2 37.311 17.4298 -1.72122 37.311 17.4298 -1.72122
310 1 38.1036 19.16 0.066067 38.1036 19.16 0.066067
311 2 40.0635 19.2958 1.62297 40.0635 19.2958 1.62297
312 2 39.948 19.0691 -1.67428 39.948 19.0691 -1.67428
313 1 40.8539 17.4932 0.0407269 40.8539 17.4932 0.0407269
314 2 42.6486 17.5491 1.81697 42.6486 17.5491 1.81697
315 2 42.9616 17.4355 -1.41074 42.9616 17.4355 -1.41074
316 1 43.7983 19.0154 0.24861 43.7983 19.0154 0.24861
317 2 45.6919 19.0879 1.86102 45.6919 19.0879 1.86102
318 2 45.7455 18.8096 -1.39897 45.7455 18.8096 -1.39897
319 1 46.698 17.3382 0.417939 46.698 17.3382 0.417939
320 2 48.5076 17.6305 2.05504 48.5076 17.6305 2.05504
321 2 48.6298 17.1715 -1.23838 48.6298 17.1715 -1.23838
322 1 49.5074 18.9736 0.194953 49.5074 18.9736 0.194953
323 2 51.4133 19.0266 1.86392 51.4133 19.0266 1.86392
324 2 51.373 18.9092 -1.37677 51.373 18.9092 -1.37677
325 1 0.994933 20.7124 0.177112 0.994933 20.7124 0.177112
326 2 2.84121 20.9147 1.87711 2.84121 20.9147 1.87711
327 2 2.88111 20.5381 -1.37672 2.88111 20.5381 -1.37672
328 1 3.81188 22.3436 0.100115 3.81188 22.3436 0.100115
329 2 5.71532 22.5086 1.72142 5.71532 22.5086 1.72142
330 2 5.76725 22.2513 -1.53801 5.76725 22.2513 -1.53801
331 1 6.71872 20.6956 0.249495 6.71872 20.6956 0.249495
332 2 8.59567 20.5821 1.87526 8.59567 20.5821 1.87526
333 2 8.52744 20.6218 -1.44237 8.52744 20.6218 -1.44237
334 1 9.44705 22.3589 0.213264 9.44705 22.3589 0.213264
335 2 11.6046 22.4301 1.61459 11.6046 22.4301 1.61459
336 2 11.269 22.5341 -1.6304 11.269 22.5341 -1.6304
337 1 12.3544 20.7968 -0.148261 12.3544 20.7968 -0.148261
338 2 14.2304 20.6774 1.43217 14.2304 20.6774 1.43217
339 2 14.2921 20.9352 -1.75856 14.2921 20.9352 -1.75856
340 1 15.1568 22.4617 -0.112433 15.1568 22.4617 -0.112433
341 2 17.2364 22.3499 1.40644 17.2364 22.3499 1.40644
342 2 17.0367 22.4907 -1.88089 17.0367 22.4907 -1.88089
343 1 18.0681 20.7746 -0.34893 18.0681 20.7746 -0.34893
344 2 19.9479 20.6397 1.2544 19.9479 20.6397 1.2544
345 2 19.9642 20.7817 -2.02234 19.9642 20.7817 -2.02234
346 1 20.9299 22.3614 -0.355043 20.9299 22.3614 -0.355043
347 2 22.8863 22.2236 1.2906 22.8863 22.2236 1.2906
348 2 22.6206 22.5536 -2.07861 22.6206 22.5536 -2.07861
349 1 23.7506 20.7832 -0.587002 23.7506 20.7832 -0.587002
350 2 25.6536 21.0227 1.05146 25.6536 21.0227 1.05146
351 2 25.7425 20.5944 -2.22181 25.7425 20.5944 -2.22181
352 1 26.6967 22.406 -0.742962 26.6967 22.406 -0.742962
353 2 28.6038 22.569 0.873328 28.6038 22.569 0.873328
354 2 28.6096 22.1682 -2.30105 28.6096 22.1682 -2.30105
355 1 29.5 20.6521 -0.501507 29.5 20.6521 -0.501507
356 2 31.3677 20.7303 1.15586 31.3677 20.7303 1.15586
357 2 31.3738 20.5775 -2.14286 31.3738 20.5775 -2.14286
358 1 32.4058 22.3407 -0.508693 32.4058 22.3407 -0.508693
359 2 34.3129 22.4134 1.1035 34.3129 22.4134 1.1035
360 2 34.4054 22.4249 -2.16271 34.4054 22.4249 -2.16271
361 1 35.2117 20.6669 -0.430852 35.2117 20.6669 -0.430852
362 2 36.8584 20.9556 1.34485 36.8584 20.9556 1.34485
363 2 37.2572 20.6376 -1.848 37.2572 20.6376 -1.848
364 1 38.1282 22.4083 -0.427495 38.1282 22.4083 -0.427495
365 2 39.8723 22.4557 1.33017 39.8723 22.4557 1.33017
366 2 40.2105 22.32 -1.93104 40.2105 22.32 -1.93104
367 1 40.9001 20.7023 -0.124541 40.9001 20.7023 -0.124541
368 2 42.7325 20.7222 1.67473 42.7325 20.7222 1.67473
369 2 42.9399 20.5789 -1.53164 42.9399 20.5789 -1.53164
370 1 43.7547 22.4205 0.0956579 43.7547 22.4205 0.0956579
371 2 45.6691 22.4426 1.77391 45.6691 22.4426 1.77391
372 2 45.7072 22.3698 -1.51147 45.7072 22.3698 -1.51147
373 1 46.5998 20.7255 0.0607928 46.5998 20.7255 0.0607928
374 2 48.495 20.6623 1.72089 48.495 20.6623 1.72089
375 2 48.4673 20.5639 -1.4558 48.4673 20.5639 -1.4558
376 1 49.4438 22.346 0.165239 49.4438 22.346 0.165239
377 2 51.3762 22.4246 1.81296 51.3762 22.4246 1.81296
378 2 51.3437 22.2674 -1.57663 51.3437 22.2674 -1.57663
379 1 0.990024 23.9884 0.0606796 0.990024 23.9884 0.0606796
380 2 2.98169 24.1183 1.58104 2.98169 24.1183 1.58104
381 2 2.82525 23.843 -1.66257 2.82525 23.843 -1.66257
382 1 3.83679 25.6355 -0.134191 3.83679 25.6355 -0.134191
383 2 5.69317 25.7481 1.51174 5.69317 25.7481 1.51174
384 2 5.77054 25.5181 -1.6561 5.77054 25.5181 -1.6561
385 1 6.63136 24.0103 0.0311347 6.63136 24.0103 0.0311347
386 2 8.50116 24.2208 1.61884 8.50116 24.2208 1.61884
387 2 8.64879 23.8399 -1.61723 8.64879 23.8399 -1.61723
388 1 9.48882 25.6457 -0.154816 9.48882 25.6457 -0.154816
389 2 11.3661 25.7061 1.52371 11.3661 25.7061 1.52371
390 2 11.4117 25.7193 -1.6549 11.4117 25.7193 -1.6549
391 1 12.3937 24.1206 -0.0256662 12.3937 24.1206 -0.0256662
392 2 14.3104 24.1957 1.53858 14.3104 24.1957 1.53858
393 2 14.2285 24.0248 -1.83535 14.2285 24.0248 -1.83535
394 1 15.1799 25.6808 -0.326079 15.1799 25.6808 -0.326079
395 2 17.2007 25.7404 1.32247 17.2007 25.7404 1.32247
396 2 17.1084 25.5414 -1.91232 17.1084 25.5414 -1.91232
397 1 18.0291 23.908 -0.175568 18.0291 23.908 -0.175568
398 2 20.1002 24.1132 1.21302 20.1002 24.1132 1.21302
399 2 19.7241 23.8799 -1.99542 19.7241 23.8799 -1.99542
400 1 20.8577 25.6601 -0.580563 20.8577 25.6601 -0.580563
401 2 22.9809 25.7288 1.08697 22.9809 25.7288 1.08697
402 2 22.8457 25.6446 -2.12477 22.8457 25.6446 -2.12477
403 1 23.8003 24.0343 -0.425817 23.8003 24.0343 -0.425817
404 2 25.9124 24.022 1.08927 25.9124 24.022 1.08927
405 2 25.5977 23.9599 -2.26763 25.5977 23.9599 -2.26763
406 1 26.7738 25.6024 -0.602144 26.7738 25.6024 -0.602144
407 2 28.7501 25.5864 0.956608 28.7501 25.5864 0.956608
408 2 28.629 25.7224 -2.36076 28.629 25.7224 -2.36076
409 1 29.6085 23.9953 -0.925413 29.6085 23.9953 -0.925413
410 2 31.3082 24.114 0.851951 31.3082 24.114 0.851951
411 2 31.624 23.853 -2.32539 31.624 23.853 -2.32539
412 1 32.4816 25.6575 -0.771977 32.4816 25.6575 -0.771977
413 2 34.2496 25.676 1.11602 34.2496 25.676 1.11602
414 2 34.5216 25.7181 -2.16869 34.5216 25.7181 -2.16869
415 1 35.3262 24.0075 -0.485434 35.3262 24.0075 -0.485434
416 2 37.2232 24.1311 1.05811 37.2232 24.1311 1.05811
417 2 37.2266 23.9128 -2.06804 37.2266 23.9128 -2.06804
418 1 38.1442 25.6913 -0.664898 38.1442 25.6913 -0.664898
419 2 39.9063 25.702 1.12993 39.9063 25.702 1.12993
420 2 40.071 25.4795 -2.15933 40.071 25.4795 -2.15933
421 1 41.0043 24.0286 -0.301194 41.0043 24.0286 -0.301194
422 2 42.7197 24.1416 1.5156 42.7197 24.1416 1.5156
423 2 43.0015 23.953 -1.8024 43.0015 23.953 -1.8024
424 1 43.8261 25.695 -0.161694 43.8261 25.695 -0.161694
425 2 45.5846 25.9447 1.4914 45.5846 25.9447 1.4914
426 2 45.7376 25.621 -1.74696 45.7376 25.621 -1.74696
427 1 46.5514 24.0387 0.133981 46.5514 24.0387 0.133981
428 2 48.5091 24.1801 1.62047 48.5091 24.1801 1.62047
429 2 48.3907 23.8225 -1.64959 48.3907 23.8225 -1.64959
430 1 49.3461 25.703 -0.291376 49.3461 25.703 -0.291376
431 2 51.1377 25.7491 1.41629 51.1377 25.7491 1.41629
432 2 51.2721 25.392 -1.83249 51.2721 25.392 -1.83249
433 1 52.2621 27.2475 -0.230419 0.927294 27.2475 -0.230419
434 2 2.74668 27.2925 1.52953 2.74668 27.2925 1.52953
435 2 2.92614 27.3598 -1.77404 2.92614 27.3598 -1.77404
436 1 3.82896 28.972 -0.0497333 3.82896 28.972 -0.0497333
437 2 5.77072 28.905 1.56152 5.77072 28.905 1.56152
438 2 5.75093 29.001 -1.66152 5.75093 29.001 -1.66152
439 1 6.73321 27.3024 -0.155406 6.73321 27.3024 -0.155406
440 2 8.54575 27.216 1.52531 8.54575 27.216 1.52531
441 2 8.62383 27.3856 -1.75056 8.62383 27.3856 -1.75056
442 1 9.55633 28.979 -0.0788771 9.55633 28.979 -0.0788771
443 2 11.4297 29.0056 1.53328 11.4297 29.0056 1.53328
444 2 11.3462 29.0292 -1.6404 11.3462 29.0292 -1.6404
445 1 12.4071 27.3722 -0.00874265 12.4071 27.3722 -0.00874265
446 2 14.4857 27.303 1.39922 14.4857 27.303 1.39922
447 2 14.0638 27.3282 -1.89562 14.0638 27.3282 -1.89562
448 1 15.2169 29.0064 -0.287281 15.2169 29.0064 -0.287281
449 2 17.1519 28.7693 1.29439 17.1519 28.7693 1.29439
450 2 17.1454 29.0552 -1.867 17.1454 29.0552 -1.867
451 1 18.0907 27.2904 -0.366099 18.0907 27.2904 -0.366099
452 2 20.0594 27.1933 1.06283 20.0594 27.1933 1.06283
453 2 19.8106 27.2201 -2.12625 19.8106 27.2201 -2.12625
454 1 20.9293 28.9164 -0.612474 20.9293 28.9164 -0.612474
455 2 22.8886 29.0564 0.906461 22.8886 29.0564 0.906461
456 2 22.8638 28.7444 -2.35235 22.8638 28.7444 -2.35235
457 1 23.8815 27.2489 -0.58134 23.8815 27.2489 -0.58134
458 2 25.8177 27.2938 1.11166 25.8177 27.2938 1.11166
459 2 25.6679 27.3597 -2.18954 25.6679 27.3597 -2.18954
460 1 26.7088 28.9592 -0.588646 26.7088 28.9592 -0.588646
461 2 28.5846 28.7619 1.05211 28.5846 28.7619 1.05211
462 2 28.6115 29.0438 -2.17871 28.6115 29.0438 -2.17871
463 1 29.6027 27.3019 -0.75661 29.6027 27.3019 -0.75661
464 2 31.4169 27.2839 0.893647 31.4169 27.2839 0.893647
465 2 31.4792 27.3571 -2.41536 31.4792 27.3571 -2.41536
466 1 32.4063 28.9387 -0.651718 32.4063 28.9387 -0.651718
467 2 34.2321 28.9301 1.13583 34.2321 28.9301 1.13583
468 2 34.4109 28.999 -2.14515 34.4109 28.999 -2.14515
469 1 35.292 27.3417 -0.443101 35.292 27.3417 -0.443101
470 2 37.3586 27.3331 0.973433 37.3586 27.3331 0.973433
471 2 36.9724 27.4067 -2.21636 36.9724 27.4067 -2.21636
472 1 38.1431 28.9634 -0.675706 38.1431 28.9634 -0.675706
473 2 39.8445 28.8048 1.11903 39.8445 28.8048 1.11903
474 2 40.2419 29.0046 -2.00062 40.2419 29.0046 -2.00062
475 1 40.9513 27.2363 -0.519876 40.9513 27.2363 -0.519876
476 2 42.7001 27.4049 1.29739 42.7001 27.4049 1.29739
477 2 42.9962 27.2437 -2.02976 42.9962 27.2437 -2.02976
478 1 43.7213 29.0394 -0.23472 43.7213 29.0394 -0.23472
479 2 45.5967 28.9874 1.35958 45.5967 28.9874 1.35958
480 2 45.6654 28.9763 -1.90619 45.6654 28.9763 -1.90619
481 1 46.5977 27.3961 -0.227853 46.5977 27.3961 -0.227853
482 2 48.5869 27.4403 1.33364 48.5869 27.4403 1.33364
483 2 48.49 27.4421 -1.94016 48.49 27.4421 -1.94016
484 1 49.5679 28.993 -0.329474 49.5679 28.993 -0.329474
485 2 51.415 29.0489 1.43573 51.415 29.0489 1.43573
486 2 51.418 29.0905 -1.95052 51.418 29.0905 -1.95052
487 1 1.06029 30.6098 -0.167344 1.06029 30.6098 -0.167344
488 2 2.8311 30.6321 1.53547 2.8311 30.6321 1.53547
489 2 3.03006 30.7044 -1.66394 3.03006 30.7044 -1.66394
490 1 3.7889 32.2862 0.125365 3.7889 32.2862 0.125365
491 2 5.85082 32.3582 1.56069 5.85082 32.3582 1.56069
492 2 5.49358 32.2347 -1.66949 5.49358 32.2347 -1.66949
493 1 6.68844 30.6209 -0.0928062 6.68844 30.6209 -0.0928062
494 2 8.72364 30.707 1.47254 8.72364 30.707 1.47254
495 2 8.4995 30.553 -1.76961 8.4995 30.553 -1.76961
496 1 9.56743 32.3612 -0.280474 9.56743 32.3612 -0.280474
497 2 11.2205 32.3125 1.45101 11.2205 32.3125 1.45101
498 2 11.5206 32.1988 -1.83456 11.5206 32.1988 -1.83456
499 1 12.3306 30.6363 -0.0860667 12.3306 30.6363 -0.0860667
500 2 14.4543 30.5968 1.39646 14.4543 30.5968 1.39646
501 2 14.2159 30.709 -1.87478 14.2159 30.709 -1.87478
502 1 15.2246 32.3406 -0.307086 15.2246 32.3406 -0.307086
503 2 17.0876 32.4078 1.405 17.0876 32.4078 1.405
504 2 17.2065 32.2383 -1.89341 17.2065 32.2383 -1.89341
505 1 18.1162 30.6356 -0.213867 18.1162 30.6356 -0.213867
506 2 20.2238 30.6414 1.09195 20.2238 30.6414 1.09195
507 2 19.8482 30.6639 -2.09298 19.8482 30.6639 -2.09298
508 1 20.9752 32.3064 -0.569259 20.9752 32.3064 -0.569259
509 2 23.0906 32.19 0.859803 23.0906 32.19 0.859803
510 2 22.7242 32.3163 -2.34654 22.7242 32.3163 -2.34654
511 1 23.8414 30.5598 -0.906271 23.8414 30.5598 -0.906271
512 2 25.5388 30.5281 0.956882 25.5388 30.5281 0.956882
513 2 25.9553 30.5192 -2.27104 25.9553 30.5192 -2.27104
514 1 26.6765 32.2725 -0.529479 26.6765 32.2725 -0.529479
515 2 28.5529 32.3621 1.23447 28.5529 32.3621 1.23447
516 2 28.6296 32.241 -2.07507 28.6296 32.241 -2.07507
517 1 29.4859 30.5654 -0.315586 29.4859 30.5654 -0.315586
518 2 31.575 30.6032 1.19999 31.575 30.6032 1.19999
519 2 31.3574 30.8971 -1.9991 31.3574 30.8971 -1.9991
520 1 32.3409 32.257 -0.253006 32.3409 32.257 -0.253006
521 2 34.2713 32.4333 1.33257 34.2713 32.4333 1.33257
522 2 34.1497 32.2864 -1.97963 34.1497 32.2864 -1.97963
523 1 35.148 30.6345 -0.421265 35.148 30.6345 -0.421265
524 2 37.07 30.5173 1.13582 37.07 30.5173 1.13582
525 2 36.9214 30.7147 -2.16204 36.9214 30.7147 -2.16204
526 1 37.9727 32.2727 -0.36305 37.9727 32.2727 -0.36305
527 2 39.8353 32.2986 1.29484 39.8353 32.2986 1.29484
528 2 39.9997 32.1892 -1.91964 39.9997 32.1892 -1.91964
529 1 40.8856 30.6039 -0.145168 40.8856 30.6039 -0.145168
530 2 42.8913 30.5461 1.46763 42.8913 30.5461 1.46763
531 2 42.8 30.7288 -1.83035 42.8 30.7288 -1.83035
532 1 43.7452 32.242 -0.130842 43.7452 32.242 -0.130842
533 2 45.7228 32.2244 1.35653 45.7228 32.2244 1.35653
534 2 45.5739 32.2551 -1.86369 45.5739 32.2551 -1.86369
535 1 46.5563 30.6172 -0.332155 46.5563 30.6172 -0.332155
536 2 48.487 30.6871 1.33597 48.487 30.6871 1.33597
537 2 48.645 30.5252 -1.96004 48.645 30.5252 -1.96004
538 1 49.4671 32.2332 -0.383567 49.4671 32.2332 -0.383567
539 2 51.2017 32.2193 1.43887 51.2017 32.2193 1.43887
540 2 51.5258 32.2226 -1.82257 51.5258 32.2226 -1.82257