ITEM: TIMESTEP
47200
ITEM: NUMBER OF ATOMS
810
ITEM: BOX BOUNDS pp pp pp
8.4137701477268123e-01 5.2176227985227342e+01
8.0961581116522285e-01 5.0206599188834083e+01
-1.0000000000000000e+01 1.0000000000000000e+01
ITEM: ATOMS id type x y z xu yu zu
1 1 1.08707 1.00706 0.645292 1.08707 1.00706 0.645292
2 2 3.05591 0.99263 2.239 3.05591 0.99263 2.239
3 2 2.93924 1.15239 -1.03822 2.93924 1.15239 -1.03822
4 1 3.89601 2.69705 0.620938 3.89601 2.69705 0.620938
5 2 5.87352 2.7513 2.28128 5.87352 2.7513 2.28128
6 2 5.83124 2.61677 -0.959126 5.83124 2.61677 -0.959126
7 1 6.82803 0.950221 0.57328 6.82803 0.950221 0.57328
8 2 8.9936 50.0778 1.82827 8.9936 0.68083 1.82827
9 2 8.48639 1.25486 -1.33354 8.48639 1.25486 -1.33354
10 1 9.59883 2.6639 0.306152 9.59883 2.6639 0.306152
11 2 11.6101 2.75101 1.65708 11.6101 2.75101 1.65708
12 2 11.1621 2.71292 -1.58166 11.1621 2.71292 -1.58166
13 1 12.4613 0.937435 -0.0383372 12.4613 0.937435 -0.0383372
14 2 14.58 50.1655 1.35404 14.58 0.768509 1.35404
15 2 14.1643 1.10893 -1.80464 14.1643 1.10893 -1.80464
16 1 15.2553 2.70244 -0.173979 15.2553 2.70244 -0.173979
17 2 17.3147 2.65971 1.36992 17.3147 2.65971 1.36992
18 2 17.0889 2.68343 -1.84958 17.0889 2.68343 -1.84958
19 1 18.2006 0.994388 -0.30071 18.2006 0.994388 -0.30071
20 2 20.2943 0.918185 1.19347 20.2943 0.918185 1.19347
21 2 19.8613 1.18159 -2.09559 19.8613 1.18159 -2.09559
22 1 21.0085 2.69409 -0.389732 21.0085 2.69409 -0.389732
23 2 22.9547 2.6434 1.17168 22.9547 2.6434 1.17168
24 2 22.7608 2.66707 -2.17128 22.7608 2.66707 -2.17128
25 1 23.8725 1.03847 -0.500361 23.8725 1.03847 -0.500361
26 2 25.8211 50.3646 1.08892 25.8211 0.967658 1.08892
27 2 25.7789 1.2727 -2.25631 25.7789 1.2727 -2.25631
28 1 26.6833 2.77065 -0.458315 26.6833 2.77065 -0.458315
29 2 28.6395 2.46736 1.163 28.6395 2.46736 1.163
30 2 28.6531 2.99682 -2.08123 28.6531 2.99682 -2.08123
31 1 29.5984 1.17424 -0.687117 29.5984 1.17424 -0.687117
32 2 31.4919 0.850967 1.07833 31.4919 0.850967 1.07833
33 2 31.667 1.29403 -2.11921 31.667 1.29403 -2.11921
34 1 32.4698 2.71635 -0.252417 32.4698 2.71635 -0.252417
35 2 34.4196 2.62675 1.43717 34.4196 2.62675 1.43717
36 2 34.4671 2.78574 -1.84276 34.4671 2.78574 -1.84276
37 1 35.4139 1.08843 -0.203985 35.4139 1.08843 -0.203985
38 2 37.2591 0.856962 1.39517 37.2591 0.856962 1.39517
39 2 37.2759 1.13792 -1.93905 37.2759 1.13792 -1.93905
40 1 38.2261 2.62776 -0.263388 38.2261 2.62776 -0.263388
41 2 40.0887 2.59277 1.46574 40.0887 2.59277 1.46574
42 2 40.1878 2.78827 -1.76365 40.1878 2.78827 -1.76365
43 1 41.0665 1.05602 -0.234904 41.0665 1.05602 -0.234904
44 2 42.68 0.911645 1.55288 42.68 0.911645 1.55288
45 2 43.0515 1.24194 -1.70309 43.0515 1.24194 -1.70309
46 1 43.815 2.6645 0.179858 43.815 2.6645 0.179858
47 2 45.5856 2.57306 2.00817 45.5856 2.57306 2.00817
48 2 45.8186 2.55423 -1.21747 45.8186 2.55423 -1.21747
49 1 46.7787 0.985724 0.489927 46.7787 0.985724 0.489927
50 2 48.5198 1.02194 2.13369 48.5198 1.02194 2.13369
51 2 48.6267 0.885124 -1.09951 48.6267 0.885124 -1.09951
52 1 49.4978 2.68937 0.520676 49.4978 2.68937 0.520676
53 2 51.321 2.69954 2.1183 51.321 2.69954 2.1183
54 2 51.5099 2.58153 -1.07704 51.5099 2.58153 -1.07704
55 1 0.985347 4.37749 0.498041 0.985347 4.37749 0.498041
56 2 2.94886 4.36051 2.12671 2.94886 4.36051 2.12671
57 2 3.01566 4.35255 -1.03065 3.01566 4.35255 -1.03065
58 1 3.9988 6.01657 0.549583 3.9988 6.01657 0.549583
59 2 5.87918 5.88131 2.253 5.87918 5.88131 2.253
60 2 5.98487 5.98184 -0.95406 5.98487 5.98184 -0.95406
61 1 6.89973 4.34837 0.62456 6.89973 4.34837 0.62456
62 2 9.01615 4.38749 2.00781 9.01615 4.38749 2.00781
63 2 8.48487 4.39127 -1.29827 8.48487 4.39127 -1.29827
64 1 9.58133 6.01432 0.253153 9.58133 6.01432 0.253153
65 2 11.6735 5.99832 1.69409 11.6735 5.99832 1.69409
66 2 11.2217 6.06304 -1.5667 11.2217 6.06304 -1.5667
67 1 12.4373 4.33349 -0.00485539 12.4373 4.33349 -0.00485539
68 2 14.4865 4.27848 1.49384 14.4865 4.27848 1.49384
69 2 14.2448 4.31106 -1.75819 14.2448 4.31106 -1.75819
70 1 15.3101 5.95887 -0.271441 15.3101 5.95887 -0.271441
71 2 17.2903 6.06925 1.29475 17.2903 6.06925 1.29475
72 2 17.0509 5.81764 -2.04404 17.0509 5.81764 -2.04404
73 1 18.0817 4.37851 -0.364694 18.0817 4.37851 -0.364694
74 2 20.0706 4.43828 1.14491 20.0706 4.43828 1.14491
75 2 19.8664 4.29974 -2.09519 19.8664 4.29974 -2.09519
76 1 21.0236 6.01788 -0.533456 21.0236 6.01788 -0.533456
77 2 22.8572 5.88511 1.18777 22.8572 5.88511 1.18777
78 2 22.9335 6.18176 -2.0729 22.9335 6.18176 -2.0729
79 1 23.8236 4.36308 -0.567054 23.8236 4.36308 -0.567054
80 2 25.6409 4.42161 1.1381 25.6409 4.42161 1.1381
81 2 25.7353 4.52239 -2.07405 25.7353 4.52239 -2.07405
82 1 26.6867 6.145 -0.359861 26.6867 6.145 -0.359861
83 2 28.4074 5.91605 1.45335 28.4074 5.91605 1.45335
84 2 28.7908 6.14905 -1.71748 28.7908 6.14905 -1.71748
85 1 29.557 4.39522 -0.172862 29.557 4.39522 -0.172862
86 2 31.4852 4.36277 1.50536 31.4852 4.36277 1.50536
87 2 31.4932 4.40371 -1.8227 31.4932 4.40371 -1.8227
88 1 32.4184 6.03317 -0.122924 32.4184 6.03317 -0.122924
89 2 34.308 5.94835 1.52979 34.308 5.94835 1.52979
90 2 34.2214 5.98484 -1.76763 34.2214 5.98484 -1.76763
91 1 35.3184 4.31067 -0.186659 35.3184 4.31067 -0.186659
92 2 37.176 4.21028 1.45878 37.176 4.21028 1.45878
93 2 37.2736 4.38527 -1.77221 37.2736 4.38527 -1.77221
94 1 38.1572 5.96777 0.0450218 38.1572 5.96777 0.0450218
95 2 40.1242 5.8908 1.73277 40.1242 5.8908 1.73277
96 2 40.1201 6.275 -1.50414 40.1201 6.275 -1.50414
97 1 41.0385 4.37718 -0.086653 41.0385 4.37718 -0.086653
98 2 42.6782 4.33203 1.79787 42.6782 4.33203 1.79787
99 2 43.112 4.39253 -1.52633 43.112 4.39253 -1.52633
100 1 43.7791 6.14278 0.220467 43.7791 6.14278 0.220467
101 2 45.4502 5.98106 2.09866 45.4502 5.98106 2.09866
102 2 45.7692 6.20966 -1.12354 45.7692 6.20966 -1.12354
103 1 46.5152 4.39936 0.455613 46.5152 4.39936 0.455613
104 2 48.4093 4.33781 2.08011 48.4093 4.33781 2.08011
105 2 48.5402 4.45227 -1.15841 48.5402 4.45227 -1.15841
106 1 49.4712 6.04512 0.475659 49.4712 6.04512 0.475659
107 2 51.3151 5.97738 2.13828 51.3151 5.97738 2.13828
108 2 51.4489 5.96907 -1.1525 51.4489 5.96907 -1.1525
109 1 1.1106 7.60349 0.641472 1.1106 7.60349 0.641472
110 2 2.99652 7.61959 2.16786 2.99652 7.61959 2.16786
111 2 2.83633 7.66746 -1.09858 2.83633 7.66746 -1.09858
112 1 3.88239 9.23511 0.533422 3.88239 9.23511 0.533422
113 2 5.87193 9.38987 2.2084 5.87193 9.38987 2.2084
114 2 5.84091 9.26266 -1.05496 5.84091 9.26266 -1.05496
115 1 6.78049 7.66473 0.707188 6.78049 7.66473 0.707188
116 2 9.03925 7.73782 1.90446 9.03925 7.73782 1.90446
117 2 8.43032 7.6872 -1.25645 8.43032 7.6872 -1.25645
118 1 9.58976 9.38972 0.0842665 9.58976 9.38972 0.0842665
119 2 11.5924 9.44997 1.46503 11.5924 9.44997 1.46503
120 2 11.3474 9.20503 -1.69411 11.3474 9.20503 -1.69411
121 1 12.3913 7.6689 -0.0630317 12.3913 7.6689 -0.0630317
122 2 14.429 7.71607 1.3811 14.429 7.71607 1.3811
123 2 14.1854 7.50328 -1.92585 14.1854 7.50328 -1.92585
124 1 15.2595 9.25174 -0.397863 15.2595 9.25174 -0.397863
125 2 17.2824 9.2985 1.17188 17.2824 9.2985 1.17188
126 2 17.1331 9.17783 -2.15594 17.1331 9.17783 -2.15594
127 1 18.1297 7.58145 -0.529035 18.1297 7.58145 -0.529035
128 2 20.1019 7.6705 1.12327 20.1019 7.6705 1.12327
129 2 20.0556 7.66565 -2.2049 20.0556 7.66565 -2.2049
130 1 21.0103 9.38574 -0.564821 21.0103 9.38574 -0.564821
131 2 22.7533 9.32372 1.1911 22.7533 9.32372 1.1911
132 2 22.9874 9.43957 -2.03854 22.9874 9.43957 -2.03854
133 1 23.8018 7.74828 -0.310049 23.8018 7.74828 -0.310049
134 2 25.6455 7.5699 1.43017 25.6455 7.5699 1.43017
135 2 25.8058 8.009 -1.86245 25.8058 8.009 -1.86245
136 1 26.7999 9.38841 -0.0512874 26.7999 9.38841 -0.0512874
137 2 28.5387 9.32221 1.65683 28.5387 9.32221 1.65683
138 2 28.8644 9.3011 -1.59433 28.8644 9.3011 -1.59433
139 1 29.5029 7.64437 0.115042 29.5029 7.64437 0.115042
140 2 31.4186 7.47075 1.61408 31.4186 7.47075 1.61408
141 2 31.3443 7.77915 -1.629 31.3443 7.77915 -1.629
142 1 32.3782 9.26941 0.181946 32.3782 9.26941 0.181946
143 2 34.3376 8.9727 1.82953 34.3376 8.9727 1.82953
144 2 34.2285 9.45174 -1.41375 34.2285 9.45174 -1.41375
145 1 35.3143 7.60506 -0.052463 35.3143 7.60506 -0.052463
146 2 37.1767 7.48533 1.70655 37.1767 7.48533 1.70655
147 2 37.2905 7.72876 -1.48641 37.2905 7.72876 -1.48641
148 1 38.2315 9.29631 0.389359 38.2315 9.29631 0.389359
149 2 39.9439 9.13264 2.14636 39.9439 9.13264 2.14636
150 2 40.1681 9.52568 -1.18509 40.1681 9.52568 -1.18509
151 1 40.9951 7.71252 0.379742 40.9951 7.71252 0.379742
152 2 42.8263 7.44225 2.08652 42.8263 7.44225 2.08652
153 2 42.9465 8.10278 -1.15124 42.9465 8.10278 -1.15124
154 1 43.8688 9.38175 0.80098 43.8688 9.38175 0.80098
155 2 45.63 9.0188 2.54007 45.63 9.0188 2.54007
156 2 45.7958 9.53583 -0.740932 45.7958 9.53583 -0.740932
157 1 46.6758 7.65433 0.745747 46.6758 7.65433 0.745747
158 2 48.5964 7.427 2.32802 48.5964 7.427 2.32802
159 2 48.4406 7.8131 -0.920786 48.4406 7.8131 -0.920786
160 1 49.4818 9.20878 0.815313 49.4818 9.20878 0.815313
161 2 51.3609 9.07381 2.36876 51.3609 9.07381 2.36876
162 2 51.5152 9.36781 -0.818798 51.5152 9.36781 -0.818798
163 1 1.08307 10.912 0.89017 1.08307 10.912 0.89017
164 2 3.1437 10.8825 2.32185 3.1437 10.8825 2.32185
165 2 2.76904 10.9906 -0.896776 2.76904 10.9906 -0.896776
166 1 3.88915 12.5831 0.685512 3.88915 12.5831 0.685512
167 2 6.02628 12.6761 2.13176 6.02628 12.6761 2.13176
168 2 5.64765 12.5403 -1.12908 5.64765 12.5403 -1.12908
169 1 6.66315 10.898 0.495315 6.66315 10.898 0.495315
170 2 8.78976 11.0483 1.79961 8.78976 11.0483 1.79961
171 2 8.34615 10.9227 -1.36545 8.34615 10.9227 -1.36545
172 1 9.58236 12.5874 0.0148884 9.58236 12.5874 0.0148884
173 2 11.6592 12.6366 1.4034 11.6592 12.6366 1.4034
174 2 11.294 12.4822 -1.81635 11.294 12.4822 -1.81635
175 1 12.3918 10.9418 -0.258643 12.3918 10.9418 -0.258643
176 2 14.4732 11.0256 1.21096 14.4732 11.0256 1.21096
177 2 14.1719 10.8176 -2.06249 14.1719 10.8176 -2.06249
178 1 15.258 12.6754 -0.593085 15.258 12.6754 -0.593085
179 2 17.1677 12.4418 1.04224 17.1677 12.4418 1.04224
180 2 17.2201 12.5575 -2.21265 17.2201 12.5575 -2.21265
181 1 18.1426 10.8689 -0.645242 18.1426 10.8689 -0.645242
182 2 19.976 11.0364 1.03943 19.976 11.0364 1.03943
183 2 20.0766 10.9124 -2.23368 20.0766 10.9124 -2.23368
184 1 21.0056 12.5944 -0.624841 21.0056 12.5944 -0.624841
185 2 22.7985 12.6939 1.06671 22.7985 12.6939 1.06671
186 2 23.1219 12.5481 -2.07226 23.1219 12.5481 -2.07226
187 1 23.8535 10.9451 -0.340889 23.8535 10.9451 -0.340889
188 2 25.5489 10.8562 1.45944 25.5489 10.8562 1.45944
189 2 26.0506 10.9845 -1.78085 26.0506 10.9845 -1.78085
190 1 26.7874 12.6602 0.0363833 26.7874 12.6602 0.0363833
191 2 28.6178 12.7546 1.72957 28.6178 12.7546 1.72957
192 2 28.6778 12.6372 -1.69337 28.6778 12.6372 -1.69337
193 1 29.5583 11.0158 0.140292 29.5583 11.0158 0.140292
194 2 31.3984 10.9173 1.83415 31.3984 10.9173 1.83415
195 2 31.5291 10.8936 -1.44648 31.5291 10.8936 -1.44648
196 1 32.4039 12.5566 0.196663 32.4039 12.5566 0.196663
197 2 34.3206 12.6327 1.97891 34.3206 12.6327 1.97891
198 2 34.5133 12.3931 -1.30099 34.5133 12.3931 -1.30099
199 1 35.3413 10.9029 0.435726 35.3413 10.9029 0.435726
200 2 37.3828 10.949 2.07663 37.3828 10.949 2.07663
201 2 37.3101 10.8895 -1.20616 37.3101 10.8895 -1.20616
202 1 38.2235 12.5909 0.404176 38.2235 12.5909 0.404176
203 2 39.8769 12.7325 2.23074 39.8769 12.7325 2.23074
204 2 40.2422 12.6852 -1.0065 40.2422 12.6852 -1.0065
205 1 41 10.9605 0.787671 41 10.9605 0.787671
206 2 42.7621 10.8272 2.48213 42.7621 10.8272 2.48213
207 2 42.9118 11.1693 -0.78242 42.9118 11.1693 -0.78242
208 1 43.8051 12.5889 1.08604 43.8051 12.5889 1.08604
209 2 45.5856 12.4919 2.76585 45.5856 12.4919 2.76585
210 2 45.7074 12.6951 -0.466921 45.7074 12.6951 -0.466921
211 1 46.6177 10.965 1.16124 46.6177 10.965 1.16124
212 2 48.7077 10.8406 2.64585 48.7077 10.8406 2.64585
213 2 48.2763 10.9764 -0.561676 48.2763 10.9764 -0.561676
214 1 49.5041 12.5461 0.995398 49.5041 12.5461 0.995398
215 2 51.4822 12.3613 2.66858 51.4822 12.3613 2.66858
216 2 51.4681 12.5046 -0.670576 51.4681 12.5046 -0.670576
217 1 1.12428 14.0978 1.14308 1.12428 14.0978 1.14308
218 2 3.15915 14.1648 2.49079 3.15915 14.1648 2.49079
219 2 2.7298 14.1375 -0.781169 2.7298 14.1375 -0.781169
220 1 3.9138 15.7828 0.791414 3.9138 15.7828 0.791414
221 2 6.14547 15.8956 2.00864 6.14547 15.8956 2.00864
222 2 5.48272 15.7486 -1.1718 5.48272 15.7486 -1.1718
223 1 6.76575 14.2261 0.282784 6.76575 14.2261 0.282784
224 2 8.69319 14.1267 1.7814 8.69319 14.1267 1.7814
225 2 8.61736 14.2882 -1.49325 8.61736 14.2882 -1.49325
226 1 9.53075 15.8955 0.0977464 9.53075 15.8955 0.0977464
227 2 11.7192 15.8827 1.47597 11.7192 15.8827 1.47597
228 2 11.1217 16.0589 -1.77419 11.1217 16.0589 -1.77419
229 1 12.3797 14.2781 -0.354217 12.3797 14.2781 -0.354217
230 2 14.486 14.3236 1.10186 14.486 14.3236 1.10186
231 2 14.1651 14.212 -2.19522 14.1651 14.212 -2.19522
232 1 15.2237 15.8786 -0.638127 15.2237 15.8786 -0.638127
233 2 17.1368 15.9822 1.00579 17.1368 15.9822 1.00579
234 2 17.1202 15.7373 -2.2457 17.1202 15.7373 -2.2457
235 1 18.1011 14.1409 -0.555023 18.1011 14.1409 -0.555023
236 2 20.0092 14.3208 1.0144 20.0092 14.3208 1.0144
237 2 19.9804 14.3002 -2.23649 19.9804 14.3002 -2.23649
238 1 20.991 15.9144 -0.646406 20.991 15.9144 -0.646406
239 2 22.9636 15.9904 1.11742 22.9636 15.9904 1.11742
240 2 22.9403 15.7845 -2.15454 22.9403 15.7845 -2.15454
241 1 23.8758 14.2008 -0.449602 23.8758 14.2008 -0.449602
242 2 25.5365 14.3565 1.406 25.5365 14.3565 1.406
243 2 26.0213 14.1167 -1.8139 26.0213 14.1167 -1.8139
244 1 26.7282 15.8562 -0.180856 26.7282 15.8562 -0.180856
245 2 28.4639 15.9465 1.69988 28.4639 15.9465 1.69988
246 2 28.8484 16.0581 -1.52646 28.8484 16.0581 -1.52646
247 1 29.6756 14.3219 -0.0170203 29.6756 14.3219 -0.0170203
248 2 31.3964 14.0907 1.83728 31.3964 14.0907 1.83728
249 2 31.7797 14.405 -1.41101 31.7797 14.405 -1.41101
250 1 32.4998 15.8885 0.386021 32.4998 15.8885 0.386021
251 2 34.2732 15.7979 2.06773 34.2732 15.7979 2.06773
252 2 34.5456 15.9773 -1.03812 34.5456 15.9773 -1.03812
253 1 35.3442 14.1507 0.411254 35.3442 14.1507 0.411254
254 2 37.1532 14.0097 2.15462 37.1532 14.0097 2.15462
255 2 37.3472 14.4162 -1.13775 37.3472 14.4162 -1.13775
256 1 38.1639 15.8568 0.744948 38.1639 15.8568 0.744948
257 2 39.9343 15.7186 2.54832 39.9343 15.7186 2.54832
258 2 40.1734 16.0905 -0.701431 40.1734 16.0905 -0.701431
259 1 41.0687 14.2825 0.761928 41.0687 14.2825 0.761928
260 2 42.7136 14.1071 2.60486 42.7136 14.1071 2.60486
261 2 43.1646 14.2385 -0.606807 43.1646 14.2385 -0.606807
262 1 43.8743 15.8788 1.23711 43.8743 15.8788 1.23711
263 2 45.6743 15.8298 2.8878 45.6743 15.8298 2.8878
264 2 45.8345 16.0303 -0.362019 45.8345 16.0303 -0.362019
265 1 46.6389 14.2283 1.2441 46.6389 14.2283 1.2441
266 2 48.5382 13.9565 2.83797 48.5382 13.9565 2.83797
267 2 48.5413 14.3498 -0.459921 48.5413 14.3498 -0.459921
268 1 49.5688 15.7604 1.27277 49.5688 15.7604 1.27277
269 2 51.725 15.8296 2.85693 51.725 15.8296 2.85693
270 2 51.4267 15.7786 -0.385369 51.4267 15.7786 -0.385369
271 1 1.10915 17.4943 1.22677 1.10915 17.4943 1.22677
272 2 3.22704 17.5324 2.55936 3.22704 17.5324 2.55936
273 2 2.7612 17.3531 -0.745169 2.7612 17.3531 -0.745169
274 1 3.88337 19.1196 0.64213 3.88337 19.1196 0.64213
275 2 5.95458 19.2967 1.84683 5.95458 19.2967 1.84683
276 2 5.44062 18.9325 -1.35738 5.44062 18.9325 -1.35738
277 1 6.68867 17.5516 0.188153 6.68867 17.5516 0.188153
278 2 8.77508 17.7639 1.60289 8.77508 17.7639 1.60289
279 2 8.3875 17.4558 -1.5676 8.3875 17.4558 -1.5676
280 1 9.56188 19.2139 -0.287099 9.56188 19.2139 -0.287099
281 2 11.5524 19.4359 1.27006 11.5524 19.4359 1.27006
282 2 11.3757 19.073 -1.99218 11.3757 19.073 -1.99218
283 1 12.3883 17.5208 -0.17135 12.3883 17.5208 -0.17135
284 2 14.4752 17.4458 1.13009 14.4752 17.4458 1.13009
285 2 14.0859 17.7352 -2.00912 14.0859 17.7352 -2.00912
286 1 15.2763 19.2848 -0.56305 15.2763 19.2848 -0.56305
287 2 17.3019 19.2529 0.8853 17.3019 19.2529 0.8853
288 2 17.0507 19.0863 -2.40547 17.0507 19.0863 -2.40547
289 1 18.1643 17.566 -0.759661 18.1643 17.566 -0.759661
290 2 20.045 17.5298 0.931672 20.045 17.5298 0.931672
291 2 20.1528 17.4958 -2.44429 20.1528 17.4958 -2.44429
292 1 21.1159 19.1836 -0.785973 21.1159 19.1836 -0.785973
293 2 22.8554 19.2035 1.04264 22.8554 19.2035 1.04264
294 2 23.1629 19.0087 -2.30058 23.1629 19.0087 -2.30058
295 1 23.9208 17.4443 -0.528001 23.9208 17.4443 -0.528001
296 2 25.7664 17.5789 1.36056 25.7664 17.5789 1.36056
297 2 25.8976 17.53 -1.97806 25.8976 17.53 -1.97806
298 1 26.7425 19.2662 -0.232527 26.7425 19.2662 -0.232527
299 2 28.4982 19.1864 1.71977 28.4982 19.1864 1.71977
300 2 28.9936 19.181 -1.59129 28.9936 19.181 -1.59129
301 1 29.6548 17.603 0.232916 29.6548 17.603 0.232916
302 2 31.3563 17.5037 1.95502 31.3563 17.5037 1.95502
303 2 31.6772 17.6062 -1.29381 31.6772 17.6062 -1.29381
304 1 32.4754 19.1856 0.517666 32.4754 19.1856 0.517666
305 2 34.2742 19.2164 2.19774 34.2742 19.2164 2.19774
306 2 34.3668 19.1679 -1.0191 34.3668 19.1679 -1.0191
307 1 35.2981 17.5569 0.639699 35.2981 17.5569 0.639699
308 2 37.1151 17.5492 2.38487 37.1151 17.5492 2.38487
309 2 37.3302 17.554 -0.951931 37.3302 17.554 -0.951931
310 1 38.2134 19.2565 0.744934 38.2134 19.2565 0.744934
311 2 39.8469 19.5511 2.55151 39.8469 19.5511 2.55151
312 2 40.2943 18.9113 -0.681157 40.2943 18.9113 -0.681157
313 1 40.9623 17.58 1.26119 40.9623 17.58 1.26119
314 2 42.9379 17.526 2.84261 42.9379 17.526 2.84261
315 2 42.8713 17.3652 -0.410471 42.8713 17.3652 -0.410471
316 1 43.772 19.1259 1.06347 43.772 19.1259 1.06347
317 2 45.4959 19.2947 2.7808 45.4959 19.2947 2.7808
318 2 45.8059 18.9844 -0.412103 45.8059 18.9844 -0.412103
319 1 46.7123 17.4934 1.31266 46.7123 17.4934 1.31266
320 2 48.7392 17.4442 2.86402 48.7392 17.4442 2.86402
321 2 48.5334 17.403 -0.330895 48.5334 17.403 -0.330895
322 1 49.5351 18.9825 1.13455 49.5351 18.9825 1.13455
323 2 51.4674 19.3108 2.70873 51.4674 19.3108 2.70873
324 2 51.378 19.0097 -0.536341 51.378 19.0097 -0.536341
325 1 0.945359 20.8131 0.786627 0.945359 20.8131 0.786627
326 2 3.09842 20.9228 2.13725 3.09842 20.9228 2.13725
327 2 2.68473 20.6079 -0.976967 2.68473 20.6079 -0.976967
328 1 3.7511 22.4908 0.320597 3.7511 22.4908 0.320597
329 2 6.02272 22.7238 1.45428 6.02272 22.7238 1.45428
330 2 5.2189 22.2087 -1.67683 5.2189 22.2087 -1.67683
331 1 6.54352 20.8592 -0.102681 6.54352 20.8592 -0.102681
332 2 8.58008 20.9377 1.32996 8.58008 20.9377 1.32996
333 2 8.37813 20.7243 -1.94165 8.37813 20.7243 -1.94165
334 1 9.57985 22.4707 -0.599496 9.57985 22.4707 -0.599496
335 2 11.5418 22.5458 1.04995 11.5418 22.5458 1.04995
336 2 11.4691 22.4179 -2.1975 11.4691 22.4179 -2.1975
337 1 12.4528 20.9003 -0.555408 12.4528 20.9003 -0.555408
338 2 14.4378 21.0658 1.00522 14.4378 21.0658 1.00522
339 2 14.2255 20.9357 -2.28573 14.2255 20.9357 -2.28573
340 1 15.3104 22.5812 -0.802201 15.3104 22.5812 -0.802201
341 2 17.2519 22.5126 0.738249 17.2519 22.5126 0.738249
342 2 17.1241 22.4215 -2.46061 17.1241 22.4215 -2.46061
343 1 18.241 20.7122 -0.879114 18.241 20.7122 -0.879114
344 2 20.0509 20.6212 0.933937 20.0509 20.6212 0.933937
345 2 20.2647 21.0363 -2.35181 20.2647 21.0363 -2.35181
346 1 21.0708 22.5184 -0.511639 21.0708 22.5184 -0.511639
347 2 22.9309 22.2977 1.17754 22.9309 22.2977 1.17754
348 2 23.0273 22.6077 -2.04222 23.0273 22.6077 -2.04222
349 1 23.8702 20.7633 -0.593723 23.8702 20.7633 -0.593723
350 2 25.5545 20.9037 1.26503 25.5545 20.9037 1.26503
351 2 25.9861 20.8504 -1.9334 25.9861 20.8504 -1.9334
352 1 26.7412 22.4567 -0.261908 26.7412 22.4567 -0.261908
353 2 28.3614 22.5823 1.61452 28.3614 22.5823 1.61452
354 2 28.8733 22.5282 -1.66176 28.8733 22.5282 -1.66176
355 1 29.6602 20.929 0.203977 29.6602 20.929 0.203977
356 2 31.2885 20.9207 1.96914 31.2885 20.9207 1.96914
357 2 31.6483 20.8771 -1.26333 31.6483 20.8771 -1.26333
358 1 32.4183 22.448 0.523383 32.4183 22.448 0.523383
359 2 34.3869 22.6688 2.12102 34.3869 22.6688 2.12102
360 2 34.301 22.4562 -1.10254 34.301 22.4562 -1.10254
361 1 35.316 20.8977 0.635316 35.316 20.8977 0.635316
362 2 37.3314 21.0464 2.27931 37.3314 21.0464 2.27931
363 2 37.1659 20.6491 -0.945166 37.1659 20.6491 -0.945166
364 1 38.1445 22.5096 0.466211 38.1445 22.5096 0.466211
365 2 39.9748 22.607 2.12444 39.9748 22.607 2.12444
366 2 40.1527 22.3743 -1.02461 40.1527 22.3743 -1.02461
367 1 41.0284 20.8219 0.733777 41.0284 20.8219 0.733777
368 2 42.7589 20.8487 2.48029 42.7589 20.8487 2.48029
369 2 43.0443 20.6347 -0.687014 43.0443 20.6347 -0.687014
370 1 43.9612 22.3935 0.904249 43.9612 22.3935 0.904249
371 2 45.6084 22.6186 2.61897 45.6084 22.6186 2.61897
372 2 45.9127 22.3415 -0.688926 45.9127 22.3415 -0.688926
373 1 46.6762 20.7607 1.16763 46.6762 20.7607 1.16763
374 2 48.6658 20.7405 2.81032 48.6658 20.7405 2.81032
375 2 48.5156 20.7113 -0.457919 48.5156 20.7113 -0.457919
376 1 49.4856 22.4111 1.0293 49.4856 22.4111 1.0293
377 2 51.6894 22.7709 2.26195 51.6894 22.7709 2.26195
378 2 51.0897 22.3004 -0.84592 51.0897 22.3004 -0.84592
379 1 0.990558 24.1337 0.305512 0.990558 24.1337 0.305512
380 2 2.95951 24.3555 1.8313 2.95951 24.3555 1.8313
381 2 2.66457 23.9923 -1.56287 2.66457 23.9923 -1.56287
382 1 3.79029 25.6982 -0.149614 3.79029 25.6982 -0.149614
383 2 5.92876 25.9146 1.12358 5.92876 25.9146 1.12358
384 2 5.32493 25.5879 -2.07674 5.32493 25.5879 -2.07674
385 1 6.5802 24.0974 -0.565339 6.5802 24.0974 -0.565339
386 2 8.50182 24.1912 1.06057 8.50182 24.1912 1.06057
387 2 8.4155 24.113 -2.32092 8.4155 24.113 -2.32092
388 1 9.59601 25.7484 -0.638558 9.59601 25.7484 -0.638558
389 2 11.4642 26.0346 0.844206 11.4642 26.0346 0.844206
390 2 11.3892 25.6155 -2.31737 11.3892 25.6155 -2.31737
391 1 12.3651 24.2205 -0.685374 12.3651 24.2205 -0.685374
392 2 14.4772 24.2916 0.672521 14.4772 24.2916 0.672521
393 2 14.1517 24.0165 -2.5124 14.1517 24.0165 -2.5124
394 1 15.297 25.7593 -1.16214 15.297 25.7593 -1.16214
395 2 17.1169 25.9419 0.570643 17.1169 25.9419 0.570643
396 2 17.3739 25.7302 -2.66428 17.3739 25.7302 -2.66428
397 1 18.1523 24.1284 -0.880472 18.1523 24.1284 -0.880472
398 2 19.9547 24.2428 0.904801 19.9547 24.2428 0.904801
399 2 20.134 23.9299 -2.28635 20.134 23.9299 -2.28635
400 1 21.0157 25.7381 -0.776855 21.0157 25.7381 -0.776855
401 2 22.7776 25.8269 1.1053 22.7776 25.8269 1.1053
402 2 23.1779 25.6642 -2.16004 23.1779 25.6642 -2.16004
403 1 23.922 24.1171 -0.290432 23.922 24.1171 -0.290432
404 2 25.8188 24.1132 1.35057 25.8188 24.1132 1.35057
405 2 25.8102 24.2233 -1.91912 25.8102 24.2233 -1.91912
406 1 26.7629 25.7802 -0.248251 26.7629 25.7802 -0.248251
407 2 28.6691 25.9116 1.46156 28.6691 25.9116 1.46156
408 2 28.8319 25.6769 -1.70804 28.8319 25.6769 -1.70804
409 1 29.5739 24.1826 0.0791242 29.5739 24.1826 0.0791242
410 2 31.2384 24.2447 1.9899 31.2384 24.2447 1.9899
411 2 31.6417 24.0501 -1.35023 31.6417 24.0501 -1.35023
412 1 32.5038 25.8069 0.309344 32.5038 25.8069 0.309344
413 2 34.3041 25.8744 1.94064 34.3041 25.8744 1.94064
414 2 34.5803 25.6872 -1.26086 34.5803 25.6872 -1.26086
415 1 35.2917 24.2002 0.467641 35.2917 24.2002 0.467641
416 2 37.334 24.2605 2.0272 37.334 24.2605 2.0272
417 2 37.0988 23.9259 -1.23655 37.0988 23.9259 -1.23655
418 1 38.13 25.7336 0.290708 38.13 25.7336 0.290708
419 2 40.0628 25.898 1.90069 40.0628 25.898 1.90069
420 2 40.0858 25.5213 -1.30618 40.0858 25.5213 -1.30618
421 1 41.0424 24.0764 0.508278 41.0424 24.0764 0.508278
422 2 42.8458 24.1945 2.32274 42.8458 24.1945 2.32274
423 2 43.0776 23.8379 -0.92027 43.0776 23.8379 -0.92027
424 1 43.8717 25.7424 0.547509 43.8717 25.7424 0.547509
425 2 45.7342 26.0291 2.09818 45.7342 26.0291 2.09818
426 2 45.6906 25.3822 -1.11768 45.6906 25.3822 -1.11768
427 1 46.6917 24.1357 0.873103 46.6917 24.1357 0.873103
428 2 48.6965 24.3236 2.4657 48.6965 24.3236 2.4657
429 2 48.5725 23.8518 -0.853093 48.5725 23.8518 -0.853093
430 1 49.4993 25.7867 0.548575 49.4993 25.7867 0.548575
431 2 51.6049 25.8131 1.98944 51.6049 25.8131 1.98944
432 2 51.2779 25.8063 -1.26525 51.2779 25.8063 -1.26525
433 1 1.11936 27.3728 0.227501 1.11936 27.3728 0.227501
434 2 3.25776 27.5693 1.42833 3.25776 27.5693 1.42833
435 2 2.67963 27.2191 -1.79525 2.67963 27.2191 -1.79525
436 1 3.81026 28.9853 -0.479872 3.81026 28.9853 -0.479872
437 2 5.93211 29.0939 0.910392 5.93211 29.0939 0.910392
438 2 5.53057 28.9542 -2.28134 5.53057 28.9542 -2.28134
439 1 6.70282 27.3229 -0.799441 6.70282 27.3229 -0.799441
440 2 8.6153 27.5415 0.854934 8.6153 27.5415 0.854934
441 2 8.68418 27.2861 -2.47864 8.68418 27.2861 -2.47864
442 1 9.52246 28.9761 -0.9244 9.52246 28.9761 -0.9244
443 2 11.3953 29.1689 0.679177 11.3953 29.1689 0.679177
444 2 11.3351 28.8587 -2.64506 11.3351 28.8587 -2.64506
445 1 12.4094 27.5281 -0.905034 12.4094 27.5281 -0.905034
446 2 14.4009 27.2795 0.631442 14.4009 27.2795 0.631442
447 2 14.1909 27.5586 -2.72028 14.1909 27.5586 -2.72028
448 1 15.1949 29.0209 -0.994626 15.1949 29.0209 -0.994626
449 2 17.1692 28.995 0.59771 17.1692 28.995 0.59771
450 2 17.0674 28.9254 -2.66126 17.0674 28.9254 -2.66126
451 1 18.1391 27.4089 -1.06235 18.1391 27.4089 -1.06235
452 2 19.8772 27.385 0.752228 19.8772 27.385 0.752228
453 2 20.1978 27.2693 -2.60873 20.1978 27.2693 -2.60873
454 1 20.9854 28.9647 -0.866348 20.9854 28.9647 -0.866348
455 2 22.7038 29.1023 0.994673 22.7038 29.1023 0.994673
456 2 23.1444 28.9096 -2.27484 23.1444 28.9096 -2.27484
457 1 23.8791 27.4079 -0.502404 23.8791 27.4079 -0.502404
458 2 25.787 27.4706 1.32529 25.787 27.4706 1.32529
459 2 25.9419 27.3375 -2.04213 25.9419 27.3375 -2.04213
460 1 26.7958 29.0133 -0.408304 26.7958 29.0133 -0.408304
461 2 28.6424 29.278 1.19123 28.6424 29.278 1.19123
462 2 28.7858 28.9189 -2.01904 28.7858 28.9189 -2.01904
463 1 29.6738 27.4837 -0.211788 29.6738 27.4837 -0.211788
464 2 31.4568 27.7472 1.5771 31.4568 27.7472 1.5771
465 2 31.8055 27.1358 -1.69534 31.8055 27.1358 -1.69534
466 1 32.5804 29.0229 -0.232775 32.5804 29.0229 -0.232775
467 2 34.1991 29.253 1.5313 34.1991 29.253 1.5313
468 2 34.5615 28.7949 -1.64246 34.5615 28.7949 -1.64246
469 1 35.3616 27.4542 0.352548 35.3616 27.4542 0.352548
470 2 37.2957 27.5231 1.80385 37.2957 27.5231 1.80385
471 2 37.2455 27.2915 -1.39162 37.2455 27.2915 -1.39162
472 1 38.121 28.9968 0.00484692 38.121 28.9968 0.00484692
473 2 40.0627 29.2574 1.57377 40.0627 29.2574 1.57377
474 2 39.9676 28.7951 -1.63496 39.9676 28.7951 -1.63496
475 1 40.9465 27.3498 0.190914 40.9465 27.3498 0.190914
476 2 42.8967 27.781 1.72644 42.8967 27.781 1.72644
477 2 42.9376 26.9671 -1.42656 42.9376 26.9671 -1.42656
478 1 43.7962 28.9996 -0.29296 43.7962 28.9996 -0.29296
479 2 45.6407 29.2847 1.43752 45.6407 29.2847 1.43752
480 2 45.7511 28.6884 -1.77204 45.7511 28.6884 -1.77204
481 1 46.6115 27.3655 0.104957 46.6115 27.3655 0.104957
482 2 48.4653 27.6207 1.86265 48.4653 27.6207 1.86265
483 2 48.6124 27.1928 -1.44467 48.6124 27.1928 -1.44467
484 1 49.4961 29.0189 0.0127216 49.4961 29.0189 0.0127216
485 2 51.4105 29.145 1.63336 51.4105 29.145 1.63336
486 2 51.5753 28.8848 -1.59269 51.5753 28.8848 -1.59269
487 1 1.04177 30.6836 -0.0218304 1.04177 30.6836 -0.0218304
488 2 3.23228 30.7583 1.24276 3.23228 30.7583 1.24276
489 2 2.6306 30.622 -1.98392 2.6306 30.622 -1.98392
490 1 3.8399 32.3619 -0.596048 3.8399 32.3619 -0.596048
491 2 5.92894 32.2857 0.890149 5.92894 32.2857 0.890149
492 2 5.57364 32.425 -2.3878 5.57364 32.425 -2.3878
493 1 6.7081 30.6988 -0.824995 6.7081 30.6988 -0.824995
494 2 8.82042 30.7837 0.677242 8.82042 30.7837 0.677242
495 2 8.44534 30.5503 -2.61016 8.44534 30.5503 -2.61016
496 1 9.52962 32.3638 -1.23616 9.52962 32.3638 -1.23616
497 2 11.5296 32.4608 0.380029 11.5296 32.4608 0.380029
498 2 11.3586 32.357 -2.91871 11.3586 32.357 -2.91871
499 1 12.2703 30.7178 -1.25322 12.2703 30.7178 -1.25322
500 2 14.1298 30.7177 0.474511 14.1298 30.7177 0.474511
501 2 14.4181 30.5455 -2.73872 14.4181 30.5455 -2.73872
502 1 15.2156 32.3256 -1.19182 15.2156 32.3256 -1.19182
503 2 17.0798 32.4427 0.446986 17.0798 32.4427 0.446986
504 2 17.0976 32.1623 -2.80404 17.0976 32.1623 -2.80404
505 1 18.0303 30.6539 -0.97776 18.0303 30.6539 -0.97776
506 2 20.0122 30.5703 0.694934 20.0122 30.5703 0.694934
507 2 20.032 30.5525 -2.56857 20.032 30.5525 -2.56857
508 1 20.9914 32.2354 -0.9764 20.9914 32.2354 -0.9764
509 2 22.6663 32.2621 0.72611 22.6663 32.2621 0.72611
510 2 23.0062 32.081 -2.56259 23.0062 32.081 -2.56259
511 1 23.8359 30.6075 -0.674354 23.8359 30.6075 -0.674354
512 2 25.6862 30.8094 0.924388 25.6862 30.8094 0.924388
513 2 25.9309 30.5201 -2.13714 25.9309 30.5201 -2.13714
514 1 26.7013 32.332 -0.736399 26.7013 32.332 -0.736399
515 2 28.5312 32.3863 0.970107 28.5312 32.3863 0.970107
516 2 28.7883 32.1975 -2.26724 28.7883 32.1975 -2.26724
517 1 29.667 30.6555 -0.43944 29.667 30.6555 -0.43944
518 2 31.5474 30.7718 1.21525 31.5474 30.7718 1.21525
519 2 31.5785 30.5898 -1.94645 31.5785 30.5898 -1.94645
520 1 32.4512 32.3926 -0.525479 32.4512 32.3926 -0.525479
521 2 34.4072 32.6401 1.09877 34.4072 32.6401 1.09877
522 2 34.4051 32.0282 -2.14198 34.4051 32.0282 -2.14198
523 1 35.3007 30.6605 -0.224021 35.3007 30.6605 -0.224021
524 2 37.0483 30.7033 1.52367 37.0483 30.7033 1.52367
525 2 37.2182 30.6418 -1.70418 37.2182 30.6418 -1.70418
526 1 38.0966 32.3274 -0.196756 38.0966 32.3274 -0.196756
527 2 40.0766 32.31 1.34048 40.0766 32.31 1.34048
528 2 40.0259 32.1994 -1.93946 40.0259 32.1994 -1.93946
529 1 40.9325 30.624 -0.322186 40.9325 30.624 -0.322186
530 2 42.9058 30.7511 1.25039 42.9058 30.7511 1.25039
531 2 42.8306 30.6043 -2.02853 42.8306 30.6043 -2.02853
532 1 43.7827 32.3383 -0.557498 43.7827 32.3383 -0.557498
533 2 45.6039 32.2752 1.15274 45.6039 32.2752 1.15274
534 2 45.7675 32.43 -2.06479 45.7675 32.43 -2.06479
535 1 46.6252 30.5783 -0.426794 46.6252 30.5783 -0.426794
536 2 48.3993 30.7832 1.5031 48.3993 30.7832 1.5031
537 2 48.7491 30.6238 -1.77968 48.7491 30.6238 -1.77968
538 1 49.5101 32.3533 -0.0994697 49.5101 32.3533 -0.0994697
539 2 51.3783 32.483 1.44805 51.3783 32.483 1.44805
540 2 51.2758 32.1715 -1.77399 51.2758 32.1715 -1.77399