ITEM: TIMESTEP
28200
ITEM: NUMBER OF ATOMS
810
ITEM: BOX BOUNDS pp pp pp
8.4137701477268123e-01 5.2176227985227342e+01
8.0961581116522285e-01 5.0206599188834083e+01
-1.0000000000000000e+01 1.0000000000000000e+01
ITEM: ATOMS id type x y z xu yu zu
1 1 1.13222 1.14184 0.435859 1.13222 1.14184 0.435859
2 2 3.08171 1.16481 2.06848 3.08171 1.16481 2.06848
3 2 3.10078 1.01378 -1.29179 3.10078 1.01378 -1.29179
4 1 3.95899 2.75967 0.377115 3.95899 2.75967 0.377115
5 2 5.87448 2.6131 1.84233 5.87448 2.6131 1.84233
6 2 5.70935 2.72979 -1.41867 5.70935 2.72979 -1.41867
7 1 6.78734 1.06029 0.031392 6.78734 1.06029 0.031392
8 2 8.74685 0.917229 1.55933 8.74685 0.917229 1.55933
9 2 8.75142 0.956831 -1.57336 8.75142 0.956831 -1.57336
10 1 9.66101 2.686 -0.011141 9.66101 2.686 -0.011141
11 2 11.6615 2.665 1.56771 11.6615 2.665 1.56771
12 2 11.3738 2.63627 -1.73833 11.3738 2.63627 -1.73833
13 1 12.5004 0.944806 -0.142427 12.5004 0.944806 -0.142427
14 2 14.4375 1.01495 1.50045 14.4375 1.01495 1.50045
15 2 14.4183 1.0755 -1.72131 14.4183 1.0755 -1.72131
16 1 15.3688 2.70693 -0.139854 15.3688 2.70693 -0.139854
17 2 17.2536 2.59562 1.42678 17.2536 2.59562 1.42678
18 2 17.2794 2.78272 -1.83013 17.2794 2.78272 -1.83013
19 1 18.2896 0.9923 -0.360145 18.2896 0.9923 -0.360145
20 2 20.1297 1.11808 1.25813 20.1297 1.11808 1.25813
21 2 20.0916 1.04971 -2.00036 20.0916 1.04971 -2.00036
22 1 21.0591 2.73002 -0.464696 21.0591 2.73002 -0.464696
23 2 22.9426 2.76838 1.13497 22.9426 2.76838 1.13497
24 2 23.0352 2.72555 -2.05973 23.0352 2.72555 -2.05973
25 1 23.9242 1.02526 -0.503695 23.9242 1.02526 -0.503695
26 2 25.9824 1.16575 1.02588 25.9824 1.16575 1.02588
27 2 25.68 0.867369 -2.31261 25.68 0.867369 -2.31261
28 1 26.8285 2.74583 -0.846334 26.8285 2.74583 -0.846334
29 2 28.574 2.79213 0.986122 28.574 2.79213 0.986122
30 2 28.8518 2.58394 -2.33424 28.8518 2.58394 -2.33424
31 1 29.6213 1.02534 -0.492635 29.6213 1.02534 -0.492635
32 2 31.4846 1.00062 1.22365 31.4846 1.00062 1.22365
33 2 31.4912 1.03896 -2.14731 31.4912 1.03896 -2.14731
34 1 32.4458 2.69408 -0.518429 32.4458 2.69408 -0.518429
35 2 34.3523 2.75359 1.14734 34.3523 2.75359 1.14734
36 2 34.4552 2.79578 -2.09214 34.4552 2.79578 -2.09214
37 1 35.3414 1.12079 -0.437358 35.3414 1.12079 -0.437358
38 2 37.1514 1.27609 1.22833 37.1514 1.27609 1.22833
39 2 37.2749 0.940403 -2.11467 37.2749 0.940403 -2.11467
40 1 38.1846 2.8025 -0.535372 38.1846 2.8025 -0.535372
41 2 39.8503 2.61022 1.33269 39.8503 2.61022 1.33269
42 2 40.334 2.80567 -1.86528 40.334 2.80567 -1.86528
43 1 41.0317 1.03414 -0.284794 41.0317 1.03414 -0.284794
44 2 42.6323 0.974154 1.5379 42.6323 0.974154 1.5379
45 2 43.1886 1.22395 -1.59193 43.1886 1.22395 -1.59193
46 1 43.8075 2.73413 0.297912 43.8075 2.73413 0.297912
47 2 45.4625 2.47979 2.05532 45.4625 2.47979 2.05532
48 2 45.9074 2.82382 -1.15907 45.9074 2.82382 -1.15907
49 1 46.7125 1.03141 0.420774 46.7125 1.03141 0.420774
50 2 48.5408 1.00144 1.98936 48.5408 1.00144 1.98936
51 2 48.761 1.13756 -1.19866 48.761 1.13756 -1.19866
52 1 49.5908 2.73512 0.539514 49.5908 2.73512 0.539514
53 2 51.438 2.63678 2.1514 51.438 2.63678 2.1514
54 2 51.4747 2.79353 -1.09379 51.4747 2.79353 -1.09379
55 1 1.08374 4.35896 0.655917 1.08374 4.35896 0.655917
56 2 3.20379 4.40957 2.19957 3.20379 4.40957 2.19957
57 2 2.98518 4.38928 -1.06176 2.98518 4.38928 -1.06176
58 1 3.99355 6.08204 0.494566 3.99355 6.08204 0.494566
59 2 5.86364 5.78903 2.05273 5.86364 5.78903 2.05273
60 2 5.75907 6.14074 -1.17007 5.75907 6.14074 -1.17007
61 1 6.80245 4.38762 0.260333 6.80245 4.38762 0.260333
62 2 8.84188 4.28051 1.81573 8.84188 4.28051 1.81573
63 2 8.67588 4.41707 -1.44877 8.67588 4.41707 -1.44877
64 1 9.70191 5.93679 0.217677 9.70191 5.93679 0.217677
65 2 11.6684 5.75939 1.66486 11.6684 5.75939 1.66486
66 2 11.5017 6.17273 -1.47931 11.5017 6.17273 -1.47931
67 1 12.5249 4.27799 -0.160893 12.5249 4.27799 -0.160893
68 2 14.3432 4.20345 1.61122 14.3432 4.20345 1.61122
69 2 14.5466 4.29791 -1.74856 14.5466 4.29791 -1.74856
70 1 15.4225 5.81916 0.155205 15.4225 5.81916 0.155205
71 2 17.4264 5.76075 1.70912 17.4264 5.76075 1.70912
72 2 17.1652 6.0009 -1.67106 17.1652 6.0009 -1.67106
73 1 18.2992 4.35255 -0.120172 18.2992 4.35255 -0.120172
74 2 20.3457 4.33794 1.29311 20.3457 4.33794 1.29311
75 2 20.0653 4.34632 -1.96056 20.0653 4.34632 -1.96056
76 1 21.141 5.98679 -0.328755 21.141 5.98679 -0.328755
77 2 23.1885 5.94726 1.21895 23.1885 5.94726 1.21895
78 2 22.9855 5.84781 -2.03271 22.9855 5.84781 -2.03271
79 1 24 4.36385 -0.413401 24 4.36385 -0.413401
80 2 25.9395 4.33349 0.995953 25.9395 4.33349 0.995953
81 2 25.6251 4.44098 -2.24244 25.6251 4.44098 -2.24244
82 1 26.7406 5.959 -0.61495 26.7406 5.959 -0.61495
83 2 28.6882 6.0503 0.921057 28.6882 6.0503 0.921057
84 2 28.4505 5.77793 -2.3821 28.4505 5.77793 -2.3821
85 1 29.655 4.3217 -0.677017 29.655 4.3217 -0.677017
86 2 31.4182 4.39739 1.0956 31.4182 4.39739 1.0956
87 2 31.4884 4.31779 -2.21273 31.4884 4.31779 -2.21273
88 1 32.4574 5.97537 -0.566205 32.4574 5.97537 -0.566205
89 2 34.2229 6.08893 1.10763 34.2229 6.08893 1.10763
90 2 34.471 6.17729 -2.10489 34.471 6.17729 -2.10489
91 1 35.2263 4.46354 -0.534346 35.2263 4.46354 -0.534346
92 2 37.0874 4.39731 1.22965 37.0874 4.39731 1.22965
93 2 37.2405 4.67452 -2.01931 37.2405 4.67452 -2.01931
94 1 38.108 6.12589 -0.253609 38.108 6.12589 -0.253609
95 2 39.8164 6.01049 1.57676 39.8164 6.01049 1.57676
96 2 40.1751 6.05311 -1.69158 40.1751 6.05311 -1.69158
97 1 40.9496 4.36942 -0.0464145 40.9496 4.36942 -0.0464145
98 2 42.5725 4.18333 1.83416 42.5725 4.18333 1.83416
99 2 43.1388 4.54953 -1.19795 43.1388 4.54953 -1.19795
100 1 43.7707 6.06959 0.634693 43.7707 6.06959 0.634693
101 2 45.5979 5.88899 2.3698 45.5979 5.88899 2.3698
102 2 45.8383 6.08666 -0.94273 45.8383 6.08666 -0.94273
103 1 46.6108 4.34435 0.773237 46.6108 4.34435 0.773237
104 2 48.6392 4.26758 2.37773 48.6392 4.26758 2.37773
105 2 48.5116 4.45238 -0.986348 48.5116 4.45238 -0.986348
106 1 49.5735 6.01022 0.863986 49.5735 6.01022 0.863986
107 2 51.6394 6.01597 2.327 51.6394 6.01597 2.327
108 2 51.2925 6.03049 -0.95171 51.2925 6.03049 -0.95171
109 1 1.12929 7.68078 0.666412 1.12929 7.68078 0.666412
110 2 2.96911 7.55756 2.27654 2.96911 7.55756 2.27654
111 2 2.9748 7.81828 -0.957801 2.9748 7.81828 -0.957801
112 1 3.90772 9.30685 0.66848 3.90772 9.30685 0.66848
113 2 5.86167 9.25227 2.25816 5.86167 9.25227 2.25816
114 2 5.71051 9.33436 -1.03267 5.71051 9.33436 -1.03267
115 1 6.81615 7.64093 0.623533 6.81615 7.64093 0.623533
116 2 8.87849 7.51038 1.95961 8.87849 7.51038 1.95961
117 2 8.54749 7.60652 -1.34444 8.54749 7.60652 -1.34444
118 1 9.69461 9.29204 0.219818 9.69461 9.29204 0.219818
119 2 11.6665 9.29463 1.84561 11.6665 9.29463 1.84561
120 2 11.6733 9.27108 -1.46353 11.6733 9.27108 -1.46353
121 1 12.6089 7.62019 0.203465 12.6089 7.62019 0.203465
122 2 14.5093 7.55133 1.77184 14.5093 7.55133 1.77184
123 2 14.5688 7.56733 -1.5036 14.5688 7.56733 -1.5036
124 1 15.4251 9.09591 0.148687 15.4251 9.09591 0.148687
125 2 17.419 9.15632 1.71521 17.419 9.15632 1.71521
126 2 17.309 9.17051 -1.53058 17.309 9.17051 -1.53058
127 1 18.256 7.54135 0.0356173 18.256 7.54135 0.0356173
128 2 20.4512 7.74264 1.38802 20.4512 7.74264 1.38802
129 2 19.8252 7.58818 -1.87739 19.8252 7.58818 -1.87739
130 1 21.076 9.23759 -0.495346 21.076 9.23759 -0.495346
131 2 23.009 9.37655 1.13955 23.009 9.37655 1.13955
132 2 22.9396 9.16569 -2.16675 22.9396 9.16569 -2.16675
133 1 23.9354 7.59182 -0.455215 23.9354 7.59182 -0.455215
134 2 25.9738 7.62429 1.00447 25.9738 7.62429 1.00447
135 2 25.6942 7.4538 -2.24251 25.6942 7.4538 -2.24251
136 1 26.8031 9.22385 -0.799071 26.8031 9.22385 -0.799071
137 2 28.7188 9.26319 0.834375 28.7188 9.26319 0.834375
138 2 28.5615 9.20757 -2.52055 28.5615 9.20757 -2.52055
139 1 29.6595 7.63592 -0.87963 29.6595 7.63592 -0.87963
140 2 31.3828 7.73396 0.896065 31.3828 7.73396 0.896065
141 2 31.6678 7.55897 -2.27777 31.6678 7.55897 -2.27777
142 1 32.4657 9.31032 -0.754222 32.4657 9.31032 -0.754222
143 2 34.1761 9.33508 1.08159 34.1761 9.33508 1.08159
144 2 34.5679 9.16025 -2.16998 34.5679 9.16025 -2.16998
145 1 35.2797 7.63953 -0.378244 35.2797 7.63953 -0.378244
146 2 37.0558 7.58628 1.37474 37.0558 7.58628 1.37474
147 2 37.3278 7.71198 -1.82428 37.3278 7.71198 -1.82428
148 1 38.113 9.39205 -0.103412 38.113 9.39205 -0.103412
149 2 39.9137 9.35909 1.66925 39.9137 9.35909 1.66925
150 2 40.186 9.24736 -1.61875 40.186 9.24736 -1.61875
151 1 40.9562 7.65407 0.183088 40.9562 7.65407 0.183088
152 2 42.5804 7.90477 2.01623 42.5804 7.90477 2.01623
153 2 42.9949 7.60007 -1.26826 42.9949 7.60007 -1.26826
154 1 43.8963 9.26829 0.323426 43.8963 9.26829 0.323426
155 2 45.6405 9.44785 2.14352 45.6405 9.44785 2.14352
156 2 45.9805 9.19139 -1.16032 45.9805 9.19139 -1.16032
157 1 46.721 7.69461 0.755362 46.721 7.69461 0.755362
158 2 48.653 7.79895 2.3475 48.653 7.79895 2.3475
159 2 48.6717 7.58835 -0.895719 48.6717 7.58835 -0.895719
160 1 49.6086 9.36309 0.57656 49.6086 9.36309 0.57656
161 2 51.4699 9.35627 2.15608 51.4699 9.35627 2.15608
162 2 51.6042 9.26353 -0.990721 51.6042 9.26353 -0.990721
163 1 1.12196 11.0562 0.59754 1.12196 11.0562 0.59754
164 2 2.9443 11.0493 2.30837 2.9443 11.0493 2.30837
165 2 2.99078 11.0364 -0.92053 2.99078 11.0364 -0.92053
166 1 3.96688 12.6263 0.756026 3.96688 12.6263 0.756026
167 2 5.84481 12.5262 2.34759 5.84481 12.5262 2.34759
168 2 5.6988 12.4884 -0.985715 5.6988 12.4884 -0.985715
169 1 6.76905 10.9339 0.686104 6.76905 10.9339 0.686104
170 2 8.8989 10.8713 1.98834 8.8989 10.8713 1.98834
171 2 8.42633 10.8427 -1.22705 8.42633 10.8427 -1.22705
172 1 9.70897 12.5738 0.159551 9.70897 12.5738 0.159551
173 2 11.7268 12.5267 1.72136 11.7268 12.5267 1.72136
174 2 11.576 12.4808 -1.53421 11.576 12.4808 -1.53421
175 1 12.6353 10.9289 0.114684 12.6353 10.9289 0.114684
176 2 14.566 10.7297 1.7363 14.566 10.7297 1.7363
177 2 14.5214 10.872 -1.56407 14.5214 10.872 -1.56407
178 1 15.4591 12.4806 0.186711 15.4591 12.4806 0.186711
179 2 17.5247 12.7553 1.5251 17.5247 12.7553 1.5251
180 2 17.2011 12.5073 -1.58997 17.2011 12.5073 -1.58997
181 1 18.2353 10.9022 0.0442932 18.2353 10.9022 0.0442932
182 2 20.407 10.7418 1.29641 20.407 10.7418 1.29641
183 2 19.9615 10.8896 -1.9562 19.9615 10.8896 -1.9562
184 1 21.1234 12.5314 -0.395101 21.1234 12.5314 -0.395101
185 2 22.9699 12.4025 1.1807 22.9699 12.4025 1.1807
186 2 22.9987 12.5988 -2.05593 22.9987 12.5988 -2.05593
187 1 23.8837 10.8432 -0.550604 23.8837 10.8432 -0.550604
188 2 25.9003 10.8627 0.875313 25.9003 10.8627 0.875313
189 2 25.6871 10.8631 -2.40303 25.6871 10.8631 -2.40303
190 1 26.7555 12.5469 -0.867062 26.7555 12.5469 -0.867062
191 2 28.5997 12.4596 0.854163 28.5997 12.4596 0.854163
192 2 28.6497 12.6607 -2.45874 28.6497 12.6607 -2.45874
193 1 29.5793 10.8691 -0.916673 29.5793 10.8691 -0.916673
194 2 31.3572 11.022 0.840674 31.3572 11.022 0.840674
195 2 31.5906 10.7952 -2.5016 31.5906 10.7952 -2.5016
196 1 32.38 12.5779 -0.838392 32.38 12.5779 -0.838392
197 2 34.0674 12.5199 1.08696 34.0674 12.5199 1.08696
198 2 34.4126 12.7326 -2.22024 34.4126 12.7326 -2.22024
199 1 35.2638 10.8938 -0.574919 35.2638 10.8938 -0.574919
200 2 36.888 10.8939 1.33238 36.888 10.8939 1.33238
201 2 37.363 11.0347 -1.8402 37.363 11.0347 -1.8402
202 1 38.0783 12.6136 -0.0688386 38.0783 12.6136 -0.0688386
203 2 39.9932 12.7313 1.64173 39.9932 12.7313 1.64173
204 2 40.0555 12.5875 -1.66002 40.0555 12.5875 -1.66002
205 1 40.9013 10.9517 0.0516421 40.9013 10.9517 0.0516421
206 2 42.8146 11.0134 1.69317 42.8146 11.0134 1.69317
207 2 42.9182 10.6804 -1.51741 42.9182 10.6804 -1.51741
208 1 43.835 12.5542 -0.04097 43.835 12.5542 -0.04097
209 2 45.4655 12.6126 1.83156 45.4655 12.6126 1.83156
210 2 45.9699 12.5337 -1.26749 45.9699 12.5337 -1.26749
211 1 46.7614 10.9312 0.452599 46.7614 10.9312 0.452599
212 2 48.6023 11.049 2.09173 48.6023 11.049 2.09173
213 2 48.5714 10.7645 -1.22841 48.5714 10.7645 -1.22841
214 1 49.5302 12.5664 0.463226 49.5302 12.5664 0.463226
215 2 51.5161 12.7496 2.03822 51.5161 12.7496 2.03822
216 2 51.5087 12.6091 -1.1459 51.5087 12.6091 -1.1459
217 1 1.09984 14.2688 0.444273 1.09984 14.2688 0.444273
218 2 2.88696 14.4654 2.09445 2.88696 14.4654 2.09445
219 2 2.94839 14.1458 -1.16691 2.94839 14.1458 -1.16691
220 1 3.9594 15.8459 0.298602 3.9594 15.8459 0.298602
221 2 5.91465 15.9962 1.85931 5.91465 15.9962 1.85931
222 2 5.83387 15.5958 -1.37107 5.83387 15.5958 -1.37107
223 1 6.78797 14.1284 0.546823 6.78797 14.1284 0.546823
224 2 8.85093 14.2041 1.92531 8.85093 14.2041 1.92531
225 2 8.40352 14.1973 -1.32385 8.40352 14.1973 -1.32385
226 1 9.60901 15.8452 0.240123 9.60901 15.8452 0.240123
227 2 11.7724 16.1269 1.5084 11.7724 16.1269 1.5084
228 2 11.1951 15.5705 -1.68267 11.1951 15.5705 -1.68267
229 1 12.5128 14.1984 -0.0140991 12.5128 14.1984 -0.0140991
230 2 14.5136 14.3733 1.5982 14.5136 14.3733 1.5982
231 2 14.4269 13.8804 -1.67338 14.4269 13.8804 -1.67338
232 1 15.4284 15.8103 -0.416469 15.4284 15.8103 -0.416469
233 2 17.3605 15.874 1.24138 17.3605 15.874 1.24138
234 2 17.2801 15.6018 -2.03966 17.2801 15.6018 -2.03966
235 1 18.2533 14.189 -0.298411 18.2533 14.189 -0.298411
236 2 20.2652 14.2721 1.34185 20.2652 14.2721 1.34185
237 2 20.055 14.0994 -2.01472 20.055 14.0994 -2.01472
238 1 21.1219 15.75 -0.394879 21.1219 15.75 -0.394879
239 2 23.0809 15.8247 1.25804 23.0809 15.8247 1.25804
240 2 22.9896 15.7224 -2.08631 22.9896 15.7224 -2.08631
241 1 24.0243 14.1928 -0.401902 24.0243 14.1928 -0.401902
242 2 25.9654 14.1458 0.985977 25.9654 14.1458 0.985977
243 2 25.589 14.28 -2.31739 25.589 14.28 -2.31739
244 1 26.7314 15.7832 -0.630679 26.7314 15.7832 -0.630679
245 2 28.6497 15.912 0.950248 28.6497 15.912 0.950248
246 2 28.5217 15.7858 -2.29053 28.5217 15.7858 -2.29053
247 1 29.6114 14.1908 -0.685942 29.6114 14.1908 -0.685942
248 2 31.5589 14.1071 0.886804 31.5589 14.1071 0.886804
249 2 31.4399 14.2039 -2.38655 31.4399 14.2039 -2.38655
250 1 32.4425 15.815 -0.701393 32.4425 15.815 -0.701393
251 2 34.0193 15.7831 1.16983 34.0193 15.7831 1.16983
252 2 34.5894 15.9548 -1.97921 34.5894 15.9548 -1.97921
253 1 35.2683 14.2777 -0.288314 35.2683 14.2777 -0.288314
254 2 37.0501 14.289 1.50015 37.0501 14.289 1.50015
255 2 37.3111 14.2249 -1.7789 37.3111 14.2249 -1.7789
256 1 38.1704 15.9019 -0.112804 38.1704 15.9019 -0.112804
257 2 39.9307 15.8112 1.64808 39.9307 15.8112 1.64808
258 2 40.0774 16.0582 -1.64916 40.0774 16.0582 -1.64916
259 1 41.0575 14.3429 -0.0589376 41.0575 14.3429 -0.0589376
260 2 42.8407 14.2115 1.67636 42.8407 14.2115 1.67636
261 2 43.0238 14.3477 -1.66626 43.0238 14.3477 -1.66626
262 1 43.8225 15.8552 0.160026 43.8225 15.8552 0.160026
263 2 45.682 15.8519 1.93681 45.682 15.8519 1.93681
264 2 45.779 15.8186 -1.40672 45.779 15.8186 -1.40672
265 1 46.716 14.2018 0.404033 46.716 14.2018 0.404033
266 2 48.5084 14.2659 1.99604 48.5084 14.2659 1.99604
267 2 48.607 14.1534 -1.24069 48.607 14.1534 -1.24069
268 1 49.5735 15.8411 0.321707 49.5735 15.8411 0.321707
269 2 51.4551 15.9411 2.07648 51.4551 15.9411 2.07648
270 2 51.5278 15.973 -1.26317 51.5278 15.973 -1.26317
271 1 1.09783 17.5535 0.408867 1.09783 17.5535 0.408867
272 2 3.12794 17.4938 1.97651 3.12794 17.4938 1.97651
273 2 2.93457 17.4786 -1.29914 2.93457 17.4786 -1.29914
274 1 3.91541 19.0844 0.233519 3.91541 19.0844 0.233519
275 2 5.88939 19.1133 1.76047 5.88939 19.1133 1.76047
276 2 5.83761 19.0304 -1.51707 5.83761 19.0304 -1.51707
277 1 6.86841 17.4875 0.0996047 6.86841 17.4875 0.0996047
278 2 8.7708 17.7184 1.7856 8.7708 17.7184 1.7856
279 2 8.71953 17.3413 -1.49249 8.71953 17.3413 -1.49249
280 1 9.65168 19.1314 0.0153601 9.65168 19.1314 0.0153601
281 2 11.7441 19.1608 1.22432 11.7441 19.1608 1.22432
282 2 11.2474 19.0241 -1.95302 11.2474 19.0241 -1.95302
283 1 12.4565 17.4805 -0.528645 12.4565 17.4805 -0.528645
284 2 14.4679 17.525 1.06881 14.4679 17.525 1.06881
285 2 14.3089 17.2244 -2.22632 14.3089 17.2244 -2.22632
286 1 15.3246 19.1505 -0.87916 15.3246 19.1505 -0.87916
287 2 17.1516 19.122 0.890905 17.1516 19.122 0.890905
288 2 17.2891 18.9894 -2.34659 17.2891 18.9894 -2.34659
289 1 18.2474 17.3471 -0.631137 18.2474 17.3471 -0.631137
290 2 20.2118 17.5693 1.13658 20.2118 17.5693 1.13658
291 2 20.3529 17.3259 -2.09371 20.3529 17.3259 -2.09371
292 1 21.127 19.175 -0.620058 21.127 19.175 -0.620058
293 2 22.9153 19.1628 1.08431 22.9153 19.1628 1.08431
294 2 22.9861 19.2047 -2.16438 22.9861 19.2047 -2.16438
295 1 23.9489 17.4491 -0.442364 23.9489 17.4491 -0.442364
296 2 25.8395 17.4617 1.06279 25.8395 17.4617 1.06279
297 2 25.644 17.4311 -2.2776 25.644 17.4311 -2.2776
298 1 26.7455 19.1563 -0.771718 26.7455 19.1563 -0.771718
299 2 28.5756 19.174 0.929589 28.5756 19.174 0.929589
300 2 28.7589 19.2211 -2.28871 28.7589 19.2211 -2.28871
301 1 29.6034 17.4779 -0.794987 29.6034 17.4779 -0.794987
302 2 31.3973 17.3357 1.00009 31.3973 17.3357 1.00009
303 2 31.5368 17.6126 -2.34948 31.5368 17.6126 -2.34948
304 1 32.5026 19.135 -0.436711 32.5026 19.135 -0.436711
305 2 34.227 19.1608 1.25391 34.227 19.1608 1.25391
306 2 34.552 18.9778 -1.9851 34.552 18.9778 -1.9851
307 1 35.1991 17.4882 -0.197819 35.1991 17.4882 -0.197819
308 2 37.1071 17.6462 1.45099 37.1071 17.6462 1.45099
309 2 37.1765 17.4741 -1.81969 37.1765 17.4741 -1.81969
310 1 38.094 19.1836 -0.337321 38.094 19.1836 -0.337321
311 2 39.8399 19.3209 1.53747 39.8399 19.3209 1.53747
312 2 40.2769 19.3109 -1.66618 40.2769 19.3109 -1.66618
313 1 40.9758 17.6356 0.120102 40.9758 17.6356 0.120102
314 2 42.6458 17.5052 1.89485 42.6458 17.5052 1.89485
315 2 42.9426 17.6105 -1.40769 42.9426 17.6105 -1.40769
316 1 43.8085 19.2181 0.472952 43.8085 19.2181 0.472952
317 2 45.8093 19.2883 1.98705 45.8093 19.2883 1.98705
318 2 45.5916 19.1454 -1.26979 45.5916 19.1454 -1.26979
319 1 46.6624 17.5181 0.267211 46.6624 17.5181 0.267211
320 2 48.5328 17.6383 1.84256 48.5328 17.6383 1.84256
321 2 48.4892 17.3474 -1.38803 48.4892 17.3474 -1.38803
322 1 49.4638 19.2288 0.0512092 49.4638 19.2288 0.0512092
323 2 51.3621 19.2621 1.72581 51.3621 19.2621 1.72581
324 2 51.4015 18.9204 -1.62626 51.4015 18.9204 -1.62626
325 1 1.02075 20.7049 -0.0828545 1.02075 20.7049 -0.0828545
326 2 2.691 20.6842 1.78078 2.691 20.6842 1.78078
327 2 3.12201 20.6763 -1.48436 3.12201 20.6763 -1.48436
328 1 3.88543 22.363 0.244758 3.88543 22.363 0.244758
329 2 5.91876 22.3533 1.80801 5.91876 22.3533 1.80801
330 2 5.79086 22.3681 -1.50841 5.79086 22.3681 -1.50841
331 1 6.73403 20.8432 0.155114 6.73403 20.8432 0.155114
332 2 8.82666 20.9453 1.55305 8.82666 20.9453 1.55305
333 2 8.48868 20.6183 -1.67339 8.48868 20.6183 -1.67339
334 1 9.61945 22.4066 -0.318205 9.61945 22.4066 -0.318205
335 2 11.587 22.588 1.13218 11.587 22.588 1.13218
336 2 11.3335 22.3729 -2.10916 11.3335 22.3729 -2.10916
337 1 12.4411 20.7625 -0.472957 12.4411 20.7625 -0.472957
338 2 14.4753 20.7311 0.956557 14.4753 20.7311 0.956557
339 2 14.1545 20.8529 -2.35953 14.1545 20.8529 -2.35953
340 1 15.3304 22.4134 -0.742786 15.3304 22.4134 -0.742786
341 2 17.2578 22.4645 0.953262 17.2578 22.4645 0.953262
342 2 17.2695 22.5781 -2.26826 17.2695 22.5781 -2.26826
343 1 18.1958 20.6445 -0.672351 18.1958 20.6445 -0.672351
344 2 19.9713 20.7345 1.07815 19.9713 20.7345 1.07815
345 2 20.2288 20.8259 -2.27377 20.2288 20.8259 -2.27377
346 1 20.9996 22.4654 -0.524224 20.9996 22.4654 -0.524224
347 2 22.9975 22.4162 1.09762 22.9975 22.4162 1.09762
348 2 22.959 22.5066 -2.102 22.959 22.5066 -2.102
349 1 24.0029 20.8747 -0.593734 24.0029 20.8747 -0.593734
350 2 26.0518 20.9047 0.842997 26.0518 20.9047 0.842997
351 2 25.6942 20.7751 -2.43002 25.6942 20.7751 -2.43002
352 1 26.8288 22.453 -0.996451 26.8288 22.453 -0.996451
353 2 28.4775 22.4999 0.967641 28.4775 22.4999 0.967641
354 2 28.7888 22.3295 -2.45232 28.7888 22.3295 -2.45232
355 1 29.5998 20.8429 -0.599968 29.5998 20.8429 -0.599968
356 2 31.4908 20.8033 1.12374 31.4908 20.8033 1.12374
357 2 31.6489 20.6974 -2.13351 31.6489 20.6974 -2.13351
358 1 32.4367 22.3954 -0.499726 32.4367 22.3954 -0.499726
359 2 34.1973 22.3525 1.33031 34.1973 22.3525 1.33031
360 2 34.33 22.4048 -1.95789 34.33 22.4048 -1.95789
361 1 35.2997 20.791 -0.400859 35.2997 20.791 -0.400859
362 2 37.1027 20.7473 1.37216 37.1027 20.7473 1.37216
363 2 37.3102 20.8636 -1.95363 37.3102 20.8636 -1.95363
364 1 38.1371 22.408 -0.184863 38.1371 22.408 -0.184863
365 2 39.9522 22.4443 1.53921 39.9522 22.4443 1.53921
366 2 40.1567 22.487 -1.69698 40.1567 22.487 -1.69698
367 1 40.9849 20.8993 0.0600976 40.9849 20.8993 0.0600976
368 2 42.6235 20.8827 1.92855 42.6235 20.8827 1.92855
369 2 43.0981 20.8265 -1.24946 43.0981 20.8265 -1.24946
370 1 43.8066 22.4763 0.464634 43.8066 22.4763 0.464634
371 2 45.8414 22.5894 1.9969 45.8414 22.5894 1.9969
372 2 45.6121 22.4292 -1.30654 45.6121 22.4292 -1.30654
373 1 46.6757 20.8705 0.335025 46.6757 20.8705 0.335025
374 2 48.7467 20.9535 1.68975 48.7467 20.9535 1.68975
375 2 48.3133 20.7214 -1.50364 48.3133 20.7214 -1.50364
376 1 49.4138 22.4857 -0.164074 49.4138 22.4857 -0.164074
377 2 51.4452 22.3956 1.54189 51.4452 22.3956 1.54189
378 2 51.4128 22.3674 -1.68871 51.4128 22.3674 -1.68871
379 1 1.16046 24.0189 -0.0461192 1.16046 24.0189 -0.0461192
380 2 2.93792 24.2788 1.68467 2.93792 24.2788 1.68467
381 2 3.19218 23.9035 -1.51686 3.19218 23.9035 -1.51686
382 1 3.95434 25.7229 0.00654815 3.95434 25.7229 0.00654815
383 2 5.75241 25.6647 1.72613 5.75241 25.6647 1.72613
384 2 5.87829 25.6497 -1.53417 5.87829 25.6497 -1.53417
385 1 6.84088 24.0797 0.0842761 6.84088 24.0797 0.0842761
386 2 8.92682 23.941 1.49008 8.92682 23.941 1.49008
387 2 8.60651 24.2049 -1.72855 8.60651 24.2049 -1.72855
388 1 9.66641 25.7528 -0.0538398 9.66641 25.7528 -0.0538398
389 2 11.8615 25.7808 1.12706 11.8615 25.7808 1.12706
390 2 11.2186 25.559 -2.02457 11.2186 25.559 -2.02457
391 1 12.4677 24.0706 -0.590238 12.4677 24.0706 -0.590238
392 2 14.4489 24.0461 0.95281 14.4489 24.0461 0.95281
393 2 14.33 24.0719 -2.45098 14.33 24.0719 -2.45098
394 1 15.2546 25.7748 -0.816871 15.2546 25.7748 -0.816871
395 2 17.0887 25.7463 0.976187 17.0887 25.7463 0.976187
396 2 17.3783 25.7238 -2.33535 17.3783 25.7238 -2.33535
397 1 18.233 24.1575 -0.56439 18.233 24.1575 -0.56439
398 2 20.0276 23.9624 1.23458 20.0276 23.9624 1.23458
399 2 20.1682 24.2586 -2.08794 20.1682 24.2586 -2.08794
400 1 21.009 25.7752 -0.220919 21.009 25.7752 -0.220919
401 2 22.9956 25.7351 1.34602 22.9956 25.7351 1.34602
402 2 22.8265 25.8851 -1.94123 22.8265 25.8851 -1.94123
403 1 23.8786 24.1645 -0.501388 23.8786 24.1645 -0.501388
404 2 25.9161 23.8565 0.925659 25.9161 23.8565 0.925659
405 2 25.6525 24.3065 -2.29082 25.6525 24.3065 -2.29082
406 1 26.6985 25.7893 -0.579784 26.6985 25.7893 -0.579784
407 2 28.5841 25.7449 0.932964 28.5841 25.7449 0.932964
408 2 28.6394 25.7736 -2.31652 28.6394 25.7736 -2.31652
409 1 29.5259 24.1287 -0.731364 29.5259 24.1287 -0.731364
410 2 31.3011 23.9692 1.05584 31.3011 23.9692 1.05584
411 2 31.7333 24.0077 -2.13135 31.7333 24.0077 -2.13135
412 1 32.3812 25.7121 -0.398727 32.3812 25.7121 -0.398727
413 2 34.1735 25.7475 1.32583 34.1735 25.7475 1.32583
414 2 34.3721 25.6606 -1.90602 34.3721 25.6606 -1.90602
415 1 35.1746 24.0525 -0.202477 35.1746 24.0525 -0.202477
416 2 37.1527 24.1086 1.35852 37.1527 24.1086 1.35852
417 2 37.0909 24.0789 -1.81968 37.0909 24.0789 -1.81968
418 1 38.135 25.7221 -0.214772 38.135 25.7221 -0.214772
419 2 39.9373 25.716 1.49826 39.9373 25.716 1.49826
420 2 40.0403 25.6171 -1.74835 40.0403 25.6171 -1.74835
421 1 40.9885 24.099 -0.0911693 40.9885 24.099 -0.0911693
422 2 42.7225 24.2809 1.75185 42.7225 24.2809 1.75185
423 2 43.0927 23.8769 -1.40571 43.0927 23.8769 -1.40571
424 1 43.798 25.7635 0.0522483 43.798 25.7635 0.0522483
425 2 45.7196 26.0131 1.68469 45.7196 26.0131 1.68469
426 2 45.7752 25.7922 -1.58893 45.7752 25.7922 -1.58893
427 1 46.6365 24.1807 0.197681 46.6365 24.1807 0.197681
428 2 48.6736 24.0989 1.67792 48.6736 24.0989 1.67792
429 2 48.3612 24.1479 -1.62169 48.3612 24.1479 -1.62169
430 1 49.4856 25.699 0.0257271 49.4856 25.699 0.0257271
431 2 51.388 25.6757 1.65413 51.388 25.6757 1.65413
432 2 51.4973 25.66 -1.57128 51.4973 25.66 -1.57128
433 1 1.11759 27.4106 0.0637456 1.11759 27.4106 0.0637456
434 2 3.08976 27.4325 1.61737 3.08976 27.4325 1.61737
435 2 2.94129 27.4089 -1.59384 2.94129 27.4089 -1.59384
436 1 3.99686 29.0197 0.0395793 3.99686 29.0197 0.0395793
437 2 5.80626 29.1219 1.63748 5.80626 29.1219 1.63748
438 2 5.89545 29.0943 -1.67176 5.89545 29.0943 -1.67176
439 1 6.78032 27.4384 0.105107 6.78032 27.4384 0.105107
440 2 8.75352 27.3098 1.60022 8.75352 27.3098 1.60022
441 2 8.54234 27.2669 -1.66934 8.54234 27.2669 -1.66934
442 1 9.61764 29.033 -0.159043 9.61764 29.033 -0.159043
443 2 11.828 29.0103 1.08277 11.828 29.0103 1.08277
444 2 11.2265 29.0135 -2.1039 11.2265 29.0135 -2.1039
445 1 12.4821 27.2846 -0.691613 12.4821 27.2846 -0.691613
446 2 14.3209 27.1285 0.896796 14.3209 27.1285 0.896796
447 2 14.2594 27.5784 -2.3133 14.2594 27.5784 -2.3133
448 1 15.2834 29.0738 -0.503538 15.2834 29.0738 -0.503538
449 2 17.2328 29.1169 1.08131 17.2328 29.1169 1.08131
450 2 17.319 28.9643 -2.1791 17.319 28.9643 -2.1791
451 1 18.1577 27.4749 -0.480279 18.1577 27.4749 -0.480279
452 2 19.9434 27.4576 1.2642 19.9434 27.4576 1.2642
453 2 20.1692 27.4466 -1.95925 20.1692 27.4466 -1.95925
454 1 21.0484 29.1227 -0.238851 21.0484 29.1227 -0.238851
455 2 22.8099 29.1026 1.33345 22.8099 29.1026 1.33345
456 2 22.9422 29.0771 -1.84484 22.9422 29.0771 -1.84484
457 1 23.9531 27.502 -0.235084 23.9531 27.502 -0.235084
458 2 25.9418 27.2529 1.27 25.9418 27.2529 1.27
459 2 25.7211 27.5844 -2.03602 25.7211 27.5844 -2.03602
460 1 26.8269 29.0856 -0.263095 26.8269 29.0856 -0.263095
461 2 28.8092 29.0494 1.1003 28.8092 29.0494 1.1003
462 2 28.5604 29.2126 -2.10875 28.5604 29.2126 -2.10875
463 1 29.6235 27.5195 -0.610896 29.6235 27.5195 -0.610896
464 2 31.5497 27.4448 1.01756 31.5497 27.4448 1.01756
465 2 31.5932 27.3012 -2.1181 31.5932 27.3012 -2.1181
466 1 32.6272 28.9652 -0.591061 32.6272 28.9652 -0.591061
467 2 34.3504 29.0158 1.1496 34.3504 29.0158 1.1496
468 2 34.5903 29.0263 -2.01492 34.5903 29.0263 -2.01492
469 1 35.3361 27.3093 -0.296519 35.3361 27.3093 -0.296519
470 2 37.1718 27.3011 1.35648 37.1718 27.3011 1.35648
471 2 37.2396 27.5211 -1.88881 37.2396 27.5211 -1.88881
472 1 38.2126 29.0468 -0.158086 38.2126 29.0468 -0.158086
473 2 40.091 28.9716 1.55701 40.091 28.9716 1.55701
474 2 40.1985 29.0883 -1.64792 40.1985 29.0883 -1.64792
475 1 41.0549 27.3594 -0.0299131 41.0549 27.3594 -0.0299131
476 2 42.8701 27.3728 1.61395 42.8701 27.3728 1.61395
477 2 42.9497 27.2627 -1.63091 42.9497 27.2627 -1.63091
478 1 43.7739 29.1204 0.0235522 43.7739 29.1204 0.0235522
479 2 45.7899 29.1895 1.54972 45.7899 29.1895 1.54972
480 2 45.629 29.0296 -1.69208 45.629 29.0296 -1.69208
481 1 46.7261 27.5189 -0.0172232 46.7261 27.5189 -0.0172232
482 2 48.6207 27.4288 1.60218 48.6207 27.4288 1.60218
483 2 48.4912 27.329 -1.65265 48.4912 27.329 -1.65265
484 1 49.6808 29.0166 -0.230247 49.6808 29.0166 -0.230247
485 2 51.3479 29.092 1.58112 51.3479 29.092 1.58112
486 2 51.8222 28.9669 -1.59015 51.8222 28.9669 -1.59015
487 1 1.12033 30.6998 0.0366191 1.12033 30.6998 0.0366191
488 2 3.04242 30.6689 1.66355 3.04242 30.6689 1.66355
489 2 3.02271 30.7406 -1.60507 3.02271 30.7406 -1.60507
490 1 3.92559 32.2968 4.80105e-05 3.92559 32.2968 4.80105e-05
491 2 5.95889 32.4141 1.50552 5.95889 32.4141 1.50552
492 2 5.78433 32.2063 -1.72867 5.78433 32.2063 -1.72867
493 1 6.84425 30.7088 0.00124236 6.84425 30.7088 0.00124236
494 2 8.75385 30.7411 1.46101 8.75385 30.7411 1.46101
495 2 8.65175 30.5381 -1.87693 8.65175 30.5381 -1.87693
496 1 9.58144 32.3007 -0.352992 9.58144 32.3007 -0.352992
497 2 11.7096 32.3689 0.889194 11.7096 32.3689 0.889194
498 2 11.2272 32.2037 -2.34877 11.2272 32.2037 -2.34877
499 1 12.4805 30.6836 -0.813863 12.4805 30.6836 -0.813863
500 2 14.3436 30.8163 0.878518 14.3436 30.8163 0.878518
501 2 14.6182 30.5482 -2.35493 14.6182 30.5482 -2.35493
502 1 15.4227 32.3693 -0.854327 15.4227 32.3693 -0.854327
503 2 17.1503 32.3905 0.869208 17.1503 32.3905 0.869208
504 2 17.4068 32.2866 -2.33726 17.4068 32.2866 -2.33726
505 1 18.2142 30.6721 -0.626598 18.2142 30.6721 -0.626598
506 2 19.9399 30.8159 1.18828 19.9399 30.8159 1.18828
507 2 20.2332 30.6132 -2.05377 20.2332 30.6132 -2.05377
508 1 21.0743 32.3993 -0.41641 21.0743 32.3993 -0.41641
509 2 22.8486 32.4889 1.25 22.8486 32.4889 1.25
510 2 23.1237 32.3239 -1.92448 23.1237 32.3239 -1.92448
511 1 23.9194 30.7584 -0.193482 23.9194 30.7584 -0.193482
512 2 25.8295 30.7148 1.36917 25.8295 30.7148 1.36917
513 2 25.7968 30.7479 -1.82645 25.7968 30.7479 -1.82645
514 1 26.8768 32.3442 -0.237998 26.8768 32.3442 -0.237998
515 2 28.8612 32.4062 1.2083 28.8612 32.4062 1.2083
516 2 28.736 32.4966 -2.08598 28.736 32.4966 -2.08598
517 1 29.7152 30.7164 -0.486817 29.7152 30.7164 -0.486817
518 2 31.6127 30.6311 1.08663 31.6127 30.6311 1.08663
519 2 31.5964 30.6349 -2.15982 31.5964 30.6349 -2.15982
520 1 32.5058 32.3882 -0.553244 32.5058 32.3882 -0.553244
521 2 34.2327 32.2444 1.31597 34.2327 32.2444 1.31597
522 2 34.5525 32.5595 -1.99142 34.5525 32.5595 -1.99142
523 1 35.3621 30.7075 -0.357563 35.3621 30.7075 -0.357563
524 2 37.1903 30.6295 1.43109 37.1903 30.6295 1.43109
525 2 37.3693 30.6091 -1.85538 37.3693 30.6091 -1.85538
526 1 38.1022 32.3262 -0.121072 38.1022 32.3262 -0.121072
527 2 39.9983 32.5483 1.54754 39.9983 32.5483 1.54754
528 2 39.9877 32.3287 -1.68877 39.9877 32.3287 -1.68877
529 1 41.0489 30.7204 0.0138781 41.0489 30.7204 0.0138781
530 2 42.8564 30.7642 1.59522 42.8564 30.7642 1.59522
531 2 42.795 30.5767 -1.69288 42.795 30.5767 -1.69288
532 1 43.8155 32.3137 -0.141654 43.8155 32.3137 -0.141654
533 2 45.8529 32.5492 1.29802 45.8529 32.5492 1.29802
534 2 45.535 32.2769 -1.86144 45.535 32.2769 -1.86144
535 1 46.7539 30.7417 -0.236798 46.7539 30.7417 -0.236798
536 2 48.5915 30.5931 1.40872 48.5915 30.5931 1.40872
537 2 48.6553 30.7239 -1.81842 48.6553 30.7239 -1.81842
538 1 49.5386 32.3508 -0.111018 49.5386 32.3508 -0.111018
539 2 51.4958 32.6217 1.44735 51.4958 32.6217 1.44735