ITEM: TIMESTEP
37700
ITEM: NUMBER OF ATOMS
810
ITEM: BOX BOUNDS pp pp pp
8.4137701477268123e-01 5.2176227985227342e+01
8.0961581116522285e-01 5.0206599188834083e+01
-1.0000000000000000e+01 1.0000000000000000e+01
ITEM: ATOMS id type x y z xu yu zu
1 1 1.24546 0.935244 0.74029 1.24546 0.935244 0.74029
2 2 3.11056 0.617623 2.33282 3.11056 0.617623 2.33282
3 2 2.99633 0.992846 -0.99015 2.99633 0.992846 -0.99015
4 1 4.06063 2.49142 0.759778 4.06063 2.49142 0.759778
5 2 5.99765 2.63003 2.1279 5.99765 2.63003 2.1279
6 2 5.77832 2.41349 -1.04291 5.77832 2.41349 -1.04291
7 1 6.93493 0.818226 0.604294 6.93493 0.818226 0.604294
8 2 9.01718 50.1743 1.98637 9.01718 0.777299 1.98637
9 2 8.59939 0.850274 -1.19876 8.59939 0.850274 -1.19876
10 1 9.82923 2.46276 0.276648 9.82923 2.46276 0.276648
11 2 11.8549 2.76644 1.62323 11.8549 2.76644 1.62323
12 2 11.6029 2.38174 -1.64307 11.6029 2.38174 -1.64307
13 1 12.627 0.884077 0.137199 12.627 0.884077 0.137199
14 2 14.6753 50.0673 1.46254 14.6753 0.670358 1.46254
15 2 14.2095 0.969886 -1.72053 14.2095 0.969886 -1.72053
16 1 15.4832 2.45471 -0.163665 15.4832 2.45471 -0.163665
17 2 17.4159 2.48573 1.39677 17.4159 2.48573 1.39677
18 2 17.2688 2.55693 -1.86424 17.2688 2.55693 -1.86424
19 1 18.313 0.823338 -0.275751 18.313 0.823338 -0.275751
20 2 20.2074 0.616275 1.25123 20.2074 0.616275 1.25123
21 2 20.1411 1.12401 -1.97977 20.1411 1.12401 -1.97977
22 1 21.1573 2.52834 -0.14801 21.1573 2.52834 -0.14801
23 2 22.9523 2.48824 1.40956 22.9523 2.48824 1.40956
24 2 23.1131 2.64989 -1.89908 23.1131 2.64989 -1.89908
25 1 24.012 0.930177 -0.360839 24.012 0.930177 -0.360839
26 2 26.0647 50.1485 1.09605 26.0647 0.751489 1.09605
27 2 25.819 1.13204 -2.04506 25.819 1.13204 -2.04506
28 1 26.9346 2.58296 -0.403036 26.9346 2.58296 -0.403036
29 2 28.8079 2.63999 1.28026 28.8079 2.63999 1.28026
30 2 28.7695 2.62062 -2.09314 28.7695 2.62062 -2.09314
31 1 29.688 1.01402 -0.481501 29.688 1.01402 -0.481501
32 2 31.6608 1.04742 1.14213 31.6608 1.04742 1.14213
33 2 31.5708 1.08788 -2.08954 31.5708 1.08788 -2.08954
34 1 32.5826 2.6446 -0.395655 32.5826 2.6446 -0.395655
35 2 34.4614 2.51122 1.28827 34.4614 2.51122 1.28827
36 2 34.5146 2.66151 -1.99463 34.5146 2.66151 -1.99463
37 1 35.4951 1.01139 -0.42314 35.4951 1.01139 -0.42314
38 2 37.2781 0.788098 1.31456 37.2781 0.788098 1.31456
39 2 37.5024 1.19892 -1.89173 37.5024 1.19892 -1.89173
40 1 38.3097 2.59298 0.0235121 38.3097 2.59298 0.0235121
41 2 40.3046 2.73103 1.57338 40.3046 2.73103 1.57338
42 2 40.0266 2.55243 -1.77363 40.0266 2.55243 -1.77363
43 1 41.2006 1.02401 -0.120418 41.2006 1.02401 -0.120418
44 2 43.1805 50.2951 1.39328 43.1805 0.898092 1.39328
45 2 43.065 1.31944 -1.86678 43.065 1.31944 -1.86678
46 1 44.063 2.69574 -0.14619 44.063 2.69574 -0.14619
47 2 45.6587 2.45054 1.66769 45.6587 2.45054 1.66769
48 2 46.101 2.9549 -1.49327 46.101 2.9549 -1.49327
49 1 46.7921 1.05756 -0.0461066 46.7921 1.05756 -0.0461066
50 2 48.4726 50.0457 1.90983 48.4726 0.648677 1.90983
51 2 49.0691 1.30406 -1.28677 49.0691 1.30406 -1.28677
52 1 49.6922 2.59251 0.777098 49.6922 2.59251 0.777098
53 2 51.4805 2.44838 2.44511 51.4805 2.44838 2.44511
54 2 51.6414 2.76718 -0.802167 51.6414 2.76718 -0.802167
55 1 1.14161 4.1763 0.94115 1.14161 4.1763 0.94115
56 2 3.10965 4.16318 2.43435 3.10965 4.16318 2.43435
57 2 3.01008 4.2319 -0.804946 3.01008 4.2319 -0.804946
58 1 4.04883 5.79854 0.774705 4.04883 5.79854 0.774705
59 2 6.19579 5.67306 2.04116 6.19579 5.67306 2.04116
60 2 5.72616 5.8559 -1.07435 5.72616 5.8559 -1.07435
61 1 6.92282 4.09847 0.303257 6.92282 4.09847 0.303257
62 2 8.9113 4.15725 1.92379 8.9113 4.15725 1.92379
63 2 8.69938 3.97097 -1.37078 8.69938 3.97097 -1.37078
64 1 9.7539 5.76323 0.125218 9.7539 5.76323 0.125218
65 2 11.8623 5.74078 1.4374 11.8623 5.74078 1.4374
66 2 11.4324 5.80442 -1.85734 11.4324 5.80442 -1.85734
67 1 12.6896 4.19496 -0.33611 12.6896 4.19496 -0.33611
68 2 14.402 4.09753 1.42877 14.402 4.09753 1.42877
69 2 14.758 4.18385 -1.8614 14.758 4.18385 -1.8614
70 1 15.572 5.77648 -0.180377 15.572 5.77648 -0.180377
71 2 17.4269 5.77859 1.47758 17.4269 5.77859 1.47758
72 2 17.3791 5.74267 -1.91256 17.3791 5.74267 -1.91256
73 1 18.3998 4.15568 -0.270442 18.3998 4.15568 -0.270442
74 2 20.2806 4.12794 1.5845 20.2806 4.12794 1.5845
75 2 20.4435 4.35757 -1.70005 20.4435 4.35757 -1.70005
76 1 21.2044 5.97585 0.0709479 21.2044 5.97585 0.0709479
77 2 23.2114 5.94523 1.48667 23.2114 5.94523 1.48667
78 2 22.9863 5.84954 -1.8615 22.9863 5.84954 -1.8615
79 1 23.9748 4.20031 -0.238468 23.9748 4.20031 -0.238468
80 2 25.9376 4.1708 1.35585 25.9376 4.1708 1.35585
81 2 25.8787 4.37186 -1.92687 25.8787 4.37186 -1.92687
82 1 26.817 5.89411 -0.156816 26.817 5.89411 -0.156816
83 2 28.8756 5.86795 1.18387 28.8756 5.86795 1.18387
84 2 28.5267 5.81196 -2.04015 28.5267 5.81196 -2.04015
85 1 29.7634 4.30087 -0.47864 29.7634 4.30087 -0.47864
86 2 31.5056 4.2079 1.27707 31.5056 4.2079 1.27707
87 2 31.8208 4.3057 -2.07811 31.8208 4.3057 -2.07811
88 1 32.6111 5.85119 -0.293104 32.6111 5.85119 -0.293104
89 2 34.2783 5.87781 1.39798 34.2783 5.87781 1.39798
90 2 34.6095 5.93803 -1.88391 34.6095 5.93803 -1.88391
91 1 35.4393 4.22251 -0.226256 35.4393 4.22251 -0.226256
92 2 37.2526 4.31262 1.57202 37.2526 4.31262 1.57202
93 2 37.5499 4.19385 -1.75771 37.5499 4.19385 -1.75771
94 1 38.3339 5.87136 -0.0247794 38.3339 5.87136 -0.0247794
95 2 40.2763 5.833 1.53383 40.2763 5.833 1.53383
96 2 40.1536 6.07511 -1.64426 40.1536 6.07511 -1.64426
97 1 41.1682 4.25214 -0.265182 41.1682 4.25214 -0.265182
98 2 42.9548 4.22356 1.59563 42.9548 4.22356 1.59563
99 2 43.2767 4.49322 -1.68182 43.2767 4.49322 -1.68182
100 1 44.0183 5.97569 0.224831 44.0183 5.97569 0.224831
101 2 45.7153 5.87451 2.10518 45.7153 5.87451 2.10518
102 2 46.1798 6.06715 -1.05657 46.1798 6.06715 -1.05657
103 1 46.8497 4.3035 0.499835 46.8497 4.3035 0.499835
104 2 48.4081 4.16689 2.32458 48.4081 4.16689 2.32458
105 2 48.9875 4.42923 -0.899485 48.9875 4.42923 -0.899485
106 1 49.6509 5.92519 1.02913 49.6509 5.92519 1.02913
107 2 51.6159 5.906 2.63815 51.6159 5.906 2.63815
108 2 51.5833 5.9425 -0.63485 51.5833 5.9425 -0.63485
109 1 1.20588 7.48725 0.907371 1.20588 7.48725 0.907371
110 2 3.1892 7.5147 2.45349 3.1892 7.5147 2.45349
111 2 3.00028 7.42376 -0.839913 3.00028 7.42376 -0.839913
112 1 4.10811 9.05311 0.698514 4.10811 9.05311 0.698514
113 2 6.00214 8.93623 2.33213 6.00214 8.93623 2.33213
114 2 5.99668 9.07658 -0.947176 5.99668 9.07658 -0.947176
115 1 6.94988 7.41967 0.515085 6.94988 7.41967 0.515085
116 2 9.01204 7.38098 1.90009 9.01204 7.38098 1.90009
117 2 8.63258 7.36416 -1.34159 8.63258 7.36416 -1.34159
118 1 9.77234 9.06511 0.134738 9.77234 9.06511 0.134738
119 2 11.8881 9.02422 1.5275 11.8881 9.02422 1.5275
120 2 11.5274 9.1329 -1.67937 11.5274 9.1329 -1.67937
121 1 12.6378 7.40489 -0.284337 12.6378 7.40489 -0.284337
122 2 14.6148 7.48085 1.45831 14.6148 7.48085 1.45831
123 2 14.5974 7.4196 -1.82542 14.5974 7.4196 -1.82542
124 1 15.5623 9.15236 -0.237263 15.5623 9.15236 -0.237263
125 2 17.5493 9.12534 1.20951 17.5493 9.12534 1.20951
126 2 17.3331 9.23292 -1.9626 17.3331 9.23292 -1.9626
127 1 18.3513 7.51004 -0.477265 18.3513 7.51004 -0.477265
128 2 20.1345 7.78713 1.29817 20.1345 7.78713 1.29817
129 2 20.29 7.26654 -1.90343 20.29 7.26654 -1.90343
130 1 21.1701 9.19046 -0.577448 21.1701 9.19046 -0.577448
131 2 23.0405 9.2928 0.999141 23.0405 9.2928 0.999141
132 2 23.1463 8.96911 -2.21958 23.1463 8.96911 -2.21958
133 1 24.0336 7.54814 -0.383547 24.0336 7.54814 -0.383547
134 2 25.864 7.6601 1.25917 25.864 7.6601 1.25917
135 2 25.9777 7.3971 -2.07627 25.9777 7.3971 -2.07627
136 1 26.8807 9.18731 -0.604768 26.8807 9.18731 -0.604768
137 2 28.8073 9.28837 1.06433 28.8073 9.28837 1.06433
138 2 28.8717 9.17404 -2.2333 28.8717 9.17404 -2.2333
139 1 29.6485 7.46447 -0.542374 29.6485 7.46447 -0.542374
140 2 31.4527 7.47785 1.28662 31.4527 7.47785 1.28662
141 2 31.7736 7.59425 -1.94191 31.7736 7.59425 -1.94191
142 1 32.5584 9.22938 -0.149702 32.5584 9.22938 -0.149702
143 2 34.3755 9.21758 1.48678 34.3755 9.21758 1.48678
144 2 34.4225 9.15783 -1.7533 34.4225 9.15783 -1.7533
145 1 35.4606 7.58029 -0.110531 35.4606 7.58029 -0.110531
146 2 37.3066 7.53161 1.60335 37.3066 7.53161 1.60335
147 2 37.5106 7.53013 -1.69559 37.5106 7.53013 -1.69559
148 1 38.3446 9.20259 0.0308115 38.3446 9.20259 0.0308115
149 2 40.3019 9.17617 1.69401 40.3019 9.17617 1.69401
150 2 40.2203 9.26106 -1.56255 40.2203 9.26106 -1.56255
151 1 41.245 7.58233 0.0538353 41.245 7.58233 0.0538353
152 2 43.0722 7.60053 1.7912 43.0722 7.60053 1.7912
153 2 43.198 7.6503 -1.47492 43.198 7.6503 -1.47492
154 1 44.0516 9.16168 0.286736 44.0516 9.16168 0.286736
155 2 45.721 9.39459 2.01995 45.721 9.39459 2.01995
156 2 46.1694 9.11929 -1.19435 46.1694 9.11929 -1.19435
157 1 46.8768 7.57356 0.659648 46.8768 7.57356 0.659648
158 2 48.7147 7.73249 2.47695 48.7147 7.73249 2.47695
159 2 48.8694 7.51913 -0.806108 48.8694 7.51913 -0.806108
160 1 49.7106 9.32061 0.80672 49.7106 9.32061 0.80672
161 2 51.6989 9.3293 2.46788 51.6989 9.3293 2.46788
162 2 51.4713 9.07696 -0.817684 51.4713 9.07696 -0.817684
163 1 1.26581 10.819 0.615103 1.26581 10.819 0.615103
164 2 3.11709 10.6742 2.25514 3.11709 10.6742 2.25514
165 2 3.21943 10.6822 -0.911932 3.21943 10.6822 -0.911932
166 1 4.15047 12.303 0.753367 4.15047 12.303 0.753367
167 2 6.1247 12.4614 2.25739 6.1247 12.4614 2.25739
168 2 5.88818 12.2417 -1.0084 5.88818 12.2417 -1.0084
169 1 6.93891 10.6611 0.644352 6.93891 10.6611 0.644352
170 2 8.96832 10.4625 1.99663 8.96832 10.4625 1.99663
171 2 8.81848 10.7701 -1.16443 8.81848 10.7701 -1.16443
172 1 9.84686 12.3946 0.637931 9.84686 12.3946 0.637931
173 2 12.1343 12.5859 1.5887 12.1343 12.5859 1.5887
174 2 11.3032 12.2904 -1.51972 11.3032 12.2904 -1.51972
175 1 12.6798 10.6757 -0.06086 12.6798 10.6757 -0.06086
176 2 14.7934 10.9611 1.41152 14.7934 10.9611 1.41152
177 2 14.335 10.5678 -1.94251 14.335 10.5678 -1.94251
178 1 15.452 12.4593 -0.57374 15.452 12.4593 -0.57374
179 2 17.4122 12.5935 1.05187 17.4122 12.5935 1.05187
180 2 17.2721 12.2341 -2.2494 17.2721 12.2341 -2.2494
181 1 18.314 10.8039 -0.411455 18.314 10.8039 -0.411455
182 2 20.3489 10.9145 1.06407 20.3489 10.9145 1.06407
183 2 20.0291 10.9 -2.17508 20.0291 10.9 -2.17508
184 1 21.1353 12.4586 -0.743506 21.1353 12.4586 -0.743506
185 2 23.1156 12.3907 0.848514 23.1156 12.3907 0.848514
186 2 22.9889 12.6649 -2.38099 22.9889 12.6649 -2.38099
187 1 24.0562 10.7588 -0.868344 24.0562 10.7588 -0.868344
188 2 25.8416 10.7975 0.914014 25.8416 10.7975 0.914014
189 2 26.0233 10.7067 -2.32805 26.0233 10.7067 -2.32805
190 1 26.8563 12.4357 -0.722197 26.8563 12.4357 -0.722197
191 2 28.6404 12.2393 1.0057 28.6404 12.2393 1.0057
192 2 28.8713 12.6926 -2.19706 28.8713 12.6926 -2.19706
193 1 29.7665 10.8723 -0.655258 29.7665 10.8723 -0.655258
194 2 31.2627 10.66 1.43137 31.2627 10.66 1.43137
195 2 32.0187 11.0868 -1.85454 32.0187 11.0868 -1.85454
196 1 32.5343 12.4968 0.123581 32.5343 12.4968 0.123581
197 2 34.5016 12.226 1.79617 34.5016 12.226 1.79617
198 2 34.59 12.6777 -1.43614 34.59 12.6777 -1.43614
199 1 35.353 10.8358 -0.11211 35.353 10.8358 -0.11211
200 2 37.1395 10.6956 1.69076 37.1395 10.6956 1.69076
201 2 37.3946 10.922 -1.65689 37.3946 10.922 -1.65689
202 1 38.2777 12.4579 0.186512 38.2777 12.4579 0.186512
203 2 40.0991 12.3798 1.8883 40.0991 12.3798 1.8883
204 2 40.2903 12.6157 -1.38948 40.2903 12.6157 -1.38948
205 1 41.1396 10.8975 0.131264 41.1396 10.8975 0.131264
206 2 43.0636 10.836 1.87796 43.0636 10.836 1.87796
207 2 43.1332 10.88 -1.41579 43.1332 10.88 -1.41579
208 1 44.0703 12.4709 0.275711 44.0703 12.4709 0.275711
209 2 45.7855 12.5222 2.04085 45.7855 12.5222 2.04085
210 2 45.9817 12.6779 -1.24203 45.9817 12.6779 -1.24203
211 1 46.8236 11.0081 0.38652 46.8236 11.0081 0.38652
212 2 48.514 11.0768 2.21503 48.514 11.0768 2.21503
213 2 48.9596 10.8475 -1.10406 48.9596 10.8475 -1.10406
214 1 49.7817 12.5334 0.540348 49.7817 12.5334 0.540348
215 2 51.6321 12.3856 2.20956 51.6321 12.3856 2.20956
216 2 51.708 12.5619 -1.04061 51.708 12.5619 -1.04061
217 1 1.29558 14.111 0.787525 1.29558 14.111 0.787525
218 2 3.30737 14.1826 2.23563 3.30737 14.1826 2.23563
219 2 3.09408 13.8015 -0.991757 3.09408 13.8015 -0.991757
220 1 4.0101 15.7435 0.41629 4.0101 15.7435 0.41629
221 2 6.0642 15.9539 1.85464 6.0642 15.9539 1.85464
222 2 5.83863 15.447 -1.29717 5.83863 15.447 -1.29717
223 1 6.8356 14.0361 0.465721 6.8356 14.0361 0.465721
224 2 8.98107 14.3285 2.03597 8.98107 14.3285 2.03597
225 2 8.74005 13.7845 -1.25406 8.74005 13.7845 -1.25406
226 1 9.71649 15.6934 0.0776562 9.71649 15.6934 0.0776562
227 2 11.7882 15.7387 1.43699 11.7882 15.7387 1.43699
228 2 11.3533 15.7435 -1.73551 11.3533 15.7435 -1.73551
229 1 12.6029 14.0631 -0.317378 12.6029 14.0631 -0.317378
230 2 14.6708 14.1416 1.11223 14.6708 14.1416 1.11223
231 2 14.2894 14.038 -2.11128 14.2894 14.038 -2.11128
232 1 15.4194 15.707 -0.669107 15.4194 15.707 -0.669107
233 2 17.4517 15.6609 0.850027 17.4517 15.6609 0.850027
234 2 17.259 15.7734 -2.4139 17.259 15.7734 -2.4139
235 1 18.376 14.0484 -0.85021 18.376 14.0484 -0.85021
236 2 20.1754 14.0513 0.909246 20.1754 14.0513 0.909246
237 2 20.4545 14.3542 -2.28866 20.4545 14.3542 -2.28866
238 1 21.1537 15.8443 -0.555714 21.1537 15.8443 -0.555714
239 2 23.1367 15.6485 1.0158 23.1367 15.6485 1.0158
240 2 23.0315 15.8254 -2.19292 23.0315 15.8254 -2.19292
241 1 24.0844 14.1202 -0.713878 24.0844 14.1202 -0.713878
242 2 25.7768 13.9542 0.934719 25.7768 13.9542 0.934719
243 2 26.0109 14.2193 -2.30986 26.0109 14.2193 -2.30986
244 1 26.7777 15.7088 -0.470217 26.7777 15.7088 -0.470217
245 2 28.6268 15.6127 1.26947 28.6268 15.6127 1.26947
246 2 28.9882 15.7998 -1.9264 28.9882 15.7998 -1.9264
247 1 29.6886 14.1334 -0.335983 29.6886 14.1334 -0.335983
248 2 31.322 14.1821 1.56305 31.322 14.1821 1.56305
249 2 31.794 14.1665 -1.68261 31.794 14.1665 -1.68261
250 1 32.5085 15.7937 -0.00859462 32.5085 15.7937 -0.00859462
251 2 34.1542 15.6852 1.85564 34.1542 15.6852 1.85564
252 2 34.5619 15.6621 -1.39546 34.5619 15.6621 -1.39546
253 1 35.435 14.0841 0.39647 35.435 14.0841 0.39647
254 2 37.3794 14.0812 1.94991 37.3794 14.0812 1.94991
255 2 37.3934 14.1909 -1.30532 37.3934 14.1909 -1.30532
256 1 38.2199 15.7928 0.308744 38.2199 15.7928 0.308744
257 2 40.0681 15.8741 2.11567 40.0681 15.8741 2.11567
258 2 40.2751 15.7574 -1.24718 40.2751 15.7574 -1.24718
259 1 41.1303 14.1666 0.427887 41.1303 14.1666 0.427887
260 2 43.1345 14.0947 1.95361 43.1345 14.0947 1.95361
261 2 42.966 14.2128 -1.29946 42.966 14.2128 -1.29946
262 1 43.9625 15.8306 0.466532 43.9625 15.8306 0.466532
263 2 45.8424 15.8333 2.15718 45.8424 15.8333 2.15718
264 2 45.8427 15.8293 -1.08387 45.8427 15.8293 -1.08387
265 1 46.8815 14.2275 0.521896 46.8815 14.2275 0.521896
266 2 48.7001 13.9583 2.2301 48.7001 13.9583 2.2301
267 2 48.7275 14.1415 -0.951581 48.7275 14.1415 -0.951581
268 1 49.6815 15.7668 0.803008 49.6815 15.7668 0.803008
269 2 51.8118 15.9493 2.27606 51.8118 15.9493 2.27606
270 2 51.3871 15.5478 -0.945012 51.3871 15.5478 -0.945012
271 1 1.18916 17.4545 0.360344 1.18916 17.4545 0.360344
272 2 3.12614 17.4916 1.96558 3.12614 17.4916 1.96558
273 2 3.06691 17.2386 -1.31402 3.06691 17.2386 -1.31402
274 1 4.0818 19.0502 0.118784 4.0818 19.0502 0.118784
275 2 5.99441 19.0772 1.62059 5.99441 19.0772 1.62059
276 2 5.95393 18.9007 -1.65732 5.95393 18.9007 -1.65732
277 1 6.86987 17.3261 0.0304042 6.86987 17.3261 0.0304042
278 2 8.81306 17.5043 1.56872 8.81306 17.5043 1.56872
279 2 8.65057 17.2019 -1.68545 8.65057 17.2019 -1.68545
280 1 9.76134 18.9629 -0.27703 9.76134 18.9629 -0.27703
281 2 11.76 19.1396 1.15443 11.76 19.1396 1.15443
282 2 11.5073 18.7681 -2.07968 11.5073 18.7681 -2.07968
283 1 12.6201 17.3414 -0.303535 12.6201 17.3414 -0.303535
284 2 14.6364 17.3229 1.10226 14.6364 17.3229 1.10226
285 2 14.3144 17.4587 -2.19373 14.3144 17.4587 -2.19373
286 1 15.3903 19.0992 -0.674593 15.3903 19.0992 -0.674593
287 2 17.365 19.1798 0.89076 17.365 19.1798 0.89076
288 2 17.3054 19.1702 -2.31427 17.3054 19.1702 -2.31427
289 1 18.2421 17.4643 -0.710606 18.2421 17.4643 -0.710606
290 2 20.1656 17.6607 0.919698 20.1656 17.6607 0.919698
291 2 20.1681 17.3027 -2.34879 20.1681 17.3027 -2.34879
292 1 21.1035 19.1165 -0.979464 21.1035 19.1165 -0.979464
293 2 22.7888 19.0752 0.900204 22.7888 19.0752 0.900204
294 2 23.3024 19.1937 -2.30523 23.3024 19.1937 -2.30523
295 1 23.9292 17.4474 -0.602707 23.9292 17.4474 -0.602707
296 2 25.7566 17.3618 1.0981 25.7566 17.3618 1.0981
297 2 26.0321 17.4483 -2.07866 26.0321 17.4483 -2.07866
298 1 26.8844 19.0447 -0.337124 26.8844 19.0447 -0.337124
299 2 28.4805 18.9445 1.52737 28.4805 18.9445 1.52737
300 2 29.0198 19.2443 -1.71237 29.0198 19.2443 -1.71237
301 1 29.7272 17.4189 -0.12155 29.7272 17.4189 -0.12155
302 2 31.4986 17.3749 1.61776 31.4986 17.3749 1.61776
303 2 31.6522 17.3838 -1.78002 31.6522 17.3838 -1.78002
304 1 32.5946 19.0294 -0.0934084 32.5946 19.0294 -0.0934084
305 2 34.1991 19.0314 1.94619 34.1991 19.0314 1.94619
306 2 34.7352 19.1679 -1.27956 34.7352 19.1679 -1.27956
307 1 35.3234 17.4347 0.440944 35.3234 17.4347 0.440944
308 2 37.2693 17.3375 2.05412 37.2693 17.3375 2.05412
309 2 37.2703 17.497 -1.25252 37.2703 17.497 -1.25252
310 1 38.2576 19.0835 0.543234 38.2576 19.0835 0.543234
311 2 40.2336 19.1524 2.16605 40.2336 19.1524 2.16605
312 2 40.1715 18.9567 -1.1827 40.1715 18.9567 -1.1827
313 1 41.1155 17.449 0.505092 41.1155 17.449 0.505092
314 2 43.1389 17.504 2.07506 43.1389 17.504 2.07506
315 2 42.9724 17.2355 -1.25865 42.9724 17.2355 -1.25865
316 1 43.9739 19.0624 0.111384 43.9739 19.0624 0.111384
317 2 45.826 19.3868 1.8482 45.826 19.3868 1.8482
318 2 46.0372 18.9423 -1.35001 46.0372 18.9423 -1.35001
319 1 46.878 17.4998 0.529727 46.878 17.4998 0.529727
320 2 48.7291 17.7126 2.22972 48.7291 17.7126 2.22972
321 2 48.8217 17.239 -1.05617 48.8217 17.239 -1.05617
322 1 49.6957 19.0712 0.381008 49.6957 19.0712 0.381008
323 2 51.6971 19.1865 1.96273 51.6971 19.1865 1.96273
324 2 51.4929 19.033 -1.27857 51.4929 19.033 -1.27857
325 1 1.20198 20.8173 0.155402 1.20198 20.8173 0.155402
326 2 3.2403 20.9043 1.60855 3.2403 20.9043 1.60855
327 2 3.04812 20.6815 -1.56643 3.04812 20.6815 -1.56643
328 1 4.09575 22.3401 -0.078303 4.09575 22.3401 -0.078303
329 2 5.92805 22.3612 1.59939 5.92805 22.3612 1.59939
330 2 5.93488 22.2733 -1.72506 5.93488 22.2733 -1.72506
331 1 6.92331 20.638 -0.138413 6.92331 20.638 -0.138413
332 2 8.9244 20.9034 1.28378 8.9244 20.9034 1.28378
333 2 8.7611 20.6054 -1.92945 8.7611 20.6054 -1.92945
334 1 9.69139 22.3587 -0.508484 9.69139 22.3587 -0.508484
335 2 11.7113 22.2918 1.08392 11.7113 22.2918 1.08392
336 2 11.4916 22.4484 -2.25709 11.4916 22.4484 -2.25709
337 1 12.5135 20.6462 -0.723464 12.5135 20.6462 -0.723464
338 2 14.3953 20.6936 0.978488 14.3953 20.6936 0.978488
339 2 14.4673 20.7482 -2.27365 14.4673 20.7482 -2.27365
340 1 15.385 22.3803 -0.592173 15.385 22.3803 -0.592173
341 2 17.3783 22.4756 0.920411 17.3783 22.4756 0.920411
342 2 17.2963 22.426 -2.34647 17.2963 22.426 -2.34647
343 1 18.2347 20.7519 -0.713355 18.2347 20.7519 -0.713355
344 2 20.2823 20.6584 0.772941 20.2823 20.6584 0.772941
345 2 20.1555 20.8086 -2.55442 20.1555 20.8086 -2.55442
346 1 21.1663 22.3539 -0.938212 21.1663 22.3539 -0.938212
347 2 22.8641 22.3434 0.955997 22.8641 22.3434 0.955997
348 2 23.1601 22.2976 -2.35261 23.1601 22.2976 -2.35261
349 1 24.0669 20.7368 -0.503581 24.0669 20.7368 -0.503581
350 2 25.8236 20.5149 1.30899 25.8236 20.5149 1.30899
351 2 26.166 20.7834 -1.99088 26.166 20.7834 -1.99088
352 1 26.809 22.3643 -0.0809359 26.809 22.3643 -0.0809359
353 2 28.7358 22.3787 1.65753 28.7358 22.3787 1.65753
354 2 28.8003 22.1876 -1.65929 28.8003 22.1876 -1.65929
355 1 29.7499 20.5979 0.195372 29.7499 20.5979 0.195372
356 2 31.6484 20.5416 1.79029 31.6484 20.5416 1.79029
357 2 31.5546 20.7612 -1.48847 31.5546 20.7612 -1.48847
358 1 32.5594 22.2832 0.282739 32.5594 22.2832 0.282739
359 2 34.2887 22.5343 2.15467 34.2887 22.5343 2.15467
360 2 34.4771 22.2606 -1.22366 34.4771 22.2606 -1.22366
361 1 35.3509 20.8015 0.569845 35.3509 20.8015 0.569845
362 2 37.3022 20.6883 2.22916 37.3022 20.6883 2.22916
363 2 37.2635 20.7406 -1.07523 37.2635 20.7406 -1.07523
364 1 38.1813 22.3676 0.552585 38.1813 22.3676 0.552585
365 2 40.2283 22.4112 2.07302 40.2283 22.4112 2.07302
366 2 40.0422 22.3576 -1.2081 40.0422 22.3576 -1.2081
367 1 41.1013 20.69 0.369649 41.1013 20.69 0.369649
368 2 43.1233 20.7212 1.85807 43.1233 20.7212 1.85807
369 2 42.8878 20.7271 -1.39405 42.8878 20.7271 -1.39405
370 1 43.9334 22.3686 0.210838 43.9334 22.3686 0.210838
371 2 46.0372 22.4261 1.79822 46.0372 22.4261 1.79822
372 2 45.8855 22.3574 -1.54996 45.8855 22.3574 -1.54996
373 1 46.813 20.7095 0.0279596 46.813 20.7095 0.0279596
374 2 48.5838 20.8752 1.74488 48.5838 20.8752 1.74488
375 2 48.8482 20.5413 -1.46697 48.8482 20.5413 -1.46697
376 1 49.6292 22.4394 0.159929 49.6292 22.4394 0.159929
377 2 51.5176 22.4126 1.84943 51.5176 22.4126 1.84943
378 2 51.5663 22.3998 -1.47917 51.5663 22.3998 -1.47917
379 1 1.1517 24.0222 0.145224 1.1517 24.0222 0.145224
380 2 3.19437 24.0517 1.68009 3.19437 24.0517 1.68009
381 2 3.04965 24.1514 -1.46031 3.04965 24.1514 -1.46031
382 1 4.05304 25.739 0.059549 4.05304 25.739 0.059549
383 2 6.01674 25.7575 1.55737 6.01674 25.7575 1.55737
384 2 5.96748 25.7337 -1.68889 5.96748 25.7337 -1.68889
385 1 6.93669 23.9945 -0.107816 6.93669 23.9945 -0.107816
386 2 9.08736 24.0476 1.25883 9.08736 24.0476 1.25883
387 2 8.59612 24.0342 -1.97639 8.59612 24.0342 -1.97639
388 1 9.72721 25.6476 -0.567416 9.72721 25.6476 -0.567416
389 2 11.7522 25.7226 0.952873 11.7522 25.7226 0.952873
390 2 11.5506 25.644 -2.36728 11.5506 25.644 -2.36728
391 1 12.4965 24.0513 -0.653141 12.4965 24.0513 -0.653141
392 2 14.4666 24.0935 0.995739 14.4666 24.0935 0.995739
393 2 14.3673 23.8382 -2.34806 14.3673 23.8382 -2.34806
394 1 15.4515 25.6353 -0.745987 15.4515 25.6353 -0.745987
395 2 17.3929 25.7686 0.814617 17.3929 25.7686 0.814617
396 2 17.3062 25.5434 -2.50674 17.3062 25.5434 -2.50674
397 1 18.3515 24.0451 -0.818572 18.3515 24.0451 -0.818572
398 2 20.227 24.0146 0.782899 20.227 24.0146 0.782899
399 2 20.1132 23.9773 -2.46963 20.1132 23.9773 -2.46963
400 1 21.0847 25.6708 -0.861846 21.0847 25.6708 -0.861846
401 2 22.9055 25.6385 0.830978 22.9055 25.6385 0.830978
402 2 23.0761 25.4535 -2.37897 23.0761 25.4535 -2.37897
403 1 23.933 23.9709 -0.665682 23.933 23.9709 -0.665682
404 2 25.6608 24.1106 1.32237 25.6608 24.1106 1.32237
405 2 26.1112 23.7415 -1.9855 26.1112 23.7415 -1.9855
406 1 26.8146 25.5812 -0.520031 26.8146 25.5812 -0.520031
407 2 28.6956 25.7901 1.24527 28.6956 25.7901 1.24527
408 2 28.8827 25.4502 -1.86405 28.8827 25.4502 -1.86405
409 1 29.6773 23.9585 -0.0843828 29.6773 23.9585 -0.0843828
410 2 31.319 24.0056 1.74183 31.319 24.0056 1.74183
411 2 31.734 24.0309 -1.48971 31.734 24.0309 -1.48971
412 1 32.459 25.6531 0.147634 32.459 25.6531 0.147634
413 2 34.2953 25.6433 1.95986 34.2953 25.6433 1.95986
414 2 34.4346 25.6492 -1.39718 34.4346 25.6492 -1.39718
415 1 35.3415 23.9438 0.41743 35.3415 23.9438 0.41743
416 2 37.2616 24.1632 2.08441 37.2616 24.1632 2.08441
417 2 37.2381 23.7012 -1.17938 37.2381 23.7012 -1.17938
418 1 38.2385 25.6465 0.394458 38.2385 25.6465 0.394458
419 2 40.1358 25.7089 1.94741 40.1358 25.7089 1.94741
420 2 40.0191 25.6839 -1.29471 40.0191 25.6839 -1.29471
421 1 41.0253 23.9558 0.33707 41.0253 23.9558 0.33707
422 2 43.0905 24.1595 1.95503 43.0905 24.1595 1.95503
423 2 42.8737 24.0838 -1.2969 42.8737 24.0838 -1.2969
424 1 43.9729 25.7256 0.340636 43.9729 25.7256 0.340636
425 2 46.0496 25.6658 1.82114 46.0496 25.6658 1.82114
426 2 45.7633 25.7815 -1.40842 45.7633 25.7815 -1.40842
427 1 46.8637 24.0246 0.0418437 46.8637 24.0246 0.0418437
428 2 48.7343 24.1019 1.7298 48.7343 24.1019 1.7298
429 2 48.7203 24.0001 -1.62882 48.7203 24.0001 -1.62882
430 1 49.6101 25.7207 -0.0170593 49.6101 25.7207 -0.0170593
431 2 51.422 25.6572 1.74668 51.422 25.6572 1.74668
432 2 51.6611 25.6687 -1.60224 51.6611 25.6687 -1.60224
433 1 1.15217 27.3383 0.0990719 1.15217 27.3383 0.0990719
434 2 3.19233 27.4431 1.6082 3.19233 27.4431 1.6082
435 2 3.05918 27.2706 -1.65978 3.05918 27.2706 -1.65978
436 1 4.00408 28.9611 -0.087803 4.00408 28.9611 -0.087803
437 2 6.01553 29.1892 1.44574 6.01553 29.1892 1.44574
438 2 5.81176 28.8469 -1.78896 5.81176 28.8469 -1.78896
439 1 6.89912 27.3594 -0.106162 6.89912 27.3594 -0.106162
440 2 9.06161 27.3108 1.24067 9.06161 27.3108 1.24067
441 2 8.47932 27.3461 -2.01521 8.47932 27.3461 -2.01521
442 1 9.77714 29.0123 -0.417043 9.77714 29.0123 -0.417043
443 2 11.8098 28.907 1.10889 11.8098 28.907 1.10889
444 2 11.5961 28.9806 -2.2371 11.5961 28.9806 -2.2371
445 1 12.588 27.2885 -0.709727 12.588 27.2885 -0.709727
446 2 14.5992 27.4183 0.752267 14.5992 27.4183 0.752267
447 2 14.3629 27.1706 -2.49371 14.3629 27.1706 -2.49371
448 1 15.4813 28.9945 -1.11454 15.4813 28.9945 -1.11454
449 2 17.2344 29.0066 0.562303 17.2344 29.0066 0.562303
450 2 17.5014 28.9802 -2.69874 17.5014 28.9802 -2.69874
451 1 18.2444 27.2933 -0.993156 18.2444 27.2933 -0.993156
452 2 20.098 27.3555 0.699249 20.098 27.3555 0.699249
453 2 20.2244 27.3386 -2.54454 20.2244 27.3386 -2.54454
454 1 21.1998 28.9574 -0.868905 21.1998 28.9574 -0.868905
455 2 22.9386 28.8941 0.849163 22.9386 28.8941 0.849163
456 2 23.1956 28.9494 -2.4356 23.1956 28.9494 -2.4356
457 1 23.9952 27.2605 -0.703556 23.9952 27.2605 -0.703556
458 2 25.7584 27.3399 0.932823 25.7584 27.3399 0.932823
459 2 25.9636 27.0828 -2.31371 25.9636 27.0828 -2.31371
460 1 26.8656 28.8714 -0.724293 26.8656 28.8714 -0.724293
461 2 28.7129 29.1049 1.07373 28.7129 29.1049 1.07373
462 2 28.8706 28.6756 -2.30828 28.8706 28.6756 -2.30828
463 1 29.702 27.2332 -0.421505 29.702 27.2332 -0.421505
464 2 31.3093 27.3954 1.47006 31.3093 27.3954 1.47006
465 2 31.8644 27.0864 -1.67567 31.8644 27.0864 -1.67567
466 1 32.5227 28.9413 -0.23394 32.5227 28.9413 -0.23394
467 2 34.0834 29.0436 1.62922 34.0834 29.0436 1.62922
468 2 34.5834 28.9677 -1.53971 34.5834 28.9677 -1.53971
469 1 35.3633 27.2999 0.284356 35.3633 27.2999 0.284356
470 2 37.1747 27.3771 1.92427 37.1747 27.3771 1.92427
471 2 37.2768 27.1239 -1.34263 37.2768 27.1239 -1.34263
472 1 38.1276 29.0116 0.332553 38.1276 29.0116 0.332553
473 2 39.967 28.9558 2.02215 39.967 28.9558 2.02215
474 2 39.9895 28.9773 -1.23258 39.9895 28.9773 -1.23258
475 1 41.0516 27.3753 0.328349 41.0516 27.3753 0.328349
476 2 42.984 27.3938 1.94667 42.984 27.3938 1.94667
477 2 42.9383 27.3378 -1.2809 42.9383 27.3378 -1.2809
478 1 43.8489 29.0821 0.338679 43.8489 29.0821 0.338679
479 2 45.7927 28.9967 1.98853 45.7927 28.9967 1.98853
480 2 45.6872 29.1626 -1.33053 45.6872 29.1626 -1.33053
481 1 46.7313 27.4363 0.173373 46.7313 27.4363 0.173373
482 2 48.8446 27.3854 1.69742 48.8446 27.3854 1.69742
483 2 48.5875 27.475 -1.52951 48.5875 27.475 -1.52951
484 1 49.6884 29.0385 0.0617107 49.6884 29.0385 0.0617107
485 2 51.7055 29.0418 1.7477 51.7055 29.0418 1.7477
486 2 51.6057 28.9189 -1.59538 51.6057 28.9189 -1.59538
487 1 1.24682 30.6449 0.0192245 1.24682 30.6449 0.0192245
488 2 3.18746 30.7948 1.50507 3.18746 30.7948 1.50507
489 2 2.90266 30.4497 -1.75113 2.90266 30.4497 -1.75113
490 1 3.98379 32.2258 -0.280569 3.98379 32.2258 -0.280569
491 2 5.95852 32.4608 1.17255 5.95852 32.4608 1.17255
492 2 5.72821 32.0111 -2.05367 5.72821 32.0111 -2.05367
493 1 6.8278 30.6313 -0.316632 6.8278 30.6313 -0.316632
494 2 8.88142 30.5849 1.15414 8.88142 30.5849 1.15414
495 2 8.6275 30.4564 -2.12046 8.6275 30.4564 -2.12046
496 1 9.74666 32.2648 -0.751316 9.74666 32.2648 -0.751316
497 2 11.6913 32.351 0.833229 11.6913 32.351 0.833229
498 2 11.6718 32.0968 -2.35359 11.6718 32.0968 -2.35359
499 1 12.6192 30.6429 -0.57614 12.6192 30.6429 -0.57614
500 2 14.6542 30.5855 0.83612 14.6542 30.5855 0.83612
501 2 14.4066 30.7481 -2.47119 14.4066 30.7481 -2.47119
502 1 15.5037 32.2326 -0.909905 15.5037 32.2326 -0.909905
503 2 17.476 32.1961 0.59345 17.476 32.1961 0.59345
504 2 17.3507 32.2658 -2.67959 17.3507 32.2658 -2.67959
505 1 18.4163 30.6325 -1.10403 18.4163 30.6325 -1.10403
506 2 20.2223 30.687 0.592099 20.2223 30.687 0.592099
507 2 20.4063 30.5148 -2.68443 20.4063 30.5148 -2.68443
508 1 21.2074 32.3311 -1.13992 21.2074 32.3311 -1.13992
509 2 22.8997 32.4072 0.710866 22.8997 32.4072 0.710866
510 2 23.2037 32.1602 -2.57798 23.2037 32.1602 -2.57798
511 1 23.9914 30.6173 -0.775983 23.9914 30.6173 -0.775983
512 2 26.0801 30.502 0.817503 26.0801 30.502 0.817503
513 2 25.8911 30.4062 -2.47514 25.8911 30.4062 -2.47514
514 1 26.8772 32.1402 -0.914756 26.8772 32.1402 -0.914756
515 2 28.8216 32.3536 0.65599 28.8216 32.3536 0.65599
516 2 28.7511 31.9851 -2.55486 28.7511 31.9851 -2.55486
517 1 29.6683 30.5429 -0.777814 29.6683 30.5429 -0.777814
518 2 31.4358 30.8134 1.04145 31.4358 30.8134 1.04145
519 2 31.6947 30.229 -2.23611 31.6947 30.229 -2.23611
520 1 32.5561 32.1808 -0.693483 32.5561 32.1808 -0.693483
521 2 34.0807 32.5277 1.26915 34.0807 32.5277 1.26915
522 2 34.8765 32.0254 -1.84741 34.8765 32.0254 -1.84741
523 1 35.3362 30.6459 0.182055 35.3362 30.6459 0.182055
524 2 37.2251 30.7144 1.90023 37.2251 30.7144 1.90023
525 2 37.3516 30.5175 -1.40368 37.3516 30.5175 -1.40368
526 1 38.196 32.2847 0.16668 38.196 32.2847 0.16668
527 2 39.9699 32.4535 1.89245 39.9699 32.4535 1.89245
528 2 40.1508 32.1009 -1.33768 40.1508 32.1009 -1.33768
529 1 40.958 30.6421 0.47178 40.958 30.6421 0.47178
530 2 42.9898 30.7781 2.0721 42.9898 30.7781 2.0721
531 2 42.7306 30.711 -1.29126 42.7306 30.711 -1.29126
532 1 43.8706 32.3543 0.300079 43.8706 32.3543 0.300079
533 2 45.7841 32.3831 1.87602 45.7841 32.3831 1.87602
534 2 45.6957 32.2004 -1.36155 45.6957 32.2004 -1.36155
535 1 46.7898 30.6217 0.42562 46.7898 30.6217 0.42562
536 2 48.9752 30.5744 1.80048 48.9752 30.5744 1.80048
537 2 48.5423 30.6902 -1.43263 48.5423 30.6902 -1.43263
538 1 49.6688 32.3339 0.234692 49.6688 32.3339 0.234692
539 2 51.7872 32.4058 1.60258 51.7872 32.4058 1.60258
540 2 51.328 31.9862 -1.61306 51.328 31.9862 -1.61306