ITEM: TIMESTEP
14600
ITEM: NUMBER OF ATOMS
810
ITEM: BOX BOUNDS pp pp pp
8.4137701477268123e-01 5.2176227985227342e+01
8.0961581116522285e-01 5.0206599188834083e+01
-1.0000000000000000e+01 1.0000000000000000e+01
ITEM: ATOMS id type x y z xu yu zu
1 1 0.981034 0.981533 0.315294 0.981034 0.981533 0.315294
2 2 2.83132 0.854386 1.93117 2.83132 0.854386 1.93117
3 2 2.82894 0.92838 -1.33353 2.82894 0.92838 -1.33353
4 1 3.87971 2.59257 0.300181 3.87971 2.59257 0.300181
5 2 5.71298 2.59757 1.97512 5.71298 2.59757 1.97512
6 2 5.91993 2.82124 -1.22064 5.91993 2.82124 -1.22064
7 1 6.72217 1.02619 0.273379 6.72217 1.02619 0.273379
8 2 8.73069 1.13502 1.768 8.73069 1.13502 1.768
9 2 8.3947 0.894869 -1.48407 8.3947 0.894869 -1.48407
10 1 9.55021 2.6357 -0.00868844 9.55021 2.6357 -0.00868844
11 2 11.3896 2.70169 1.75168 11.3896 2.70169 1.75168
12 2 11.6525 2.56292 -1.4941 11.6525 2.56292 -1.4941
13 1 12.4465 1.08545 0.23737 12.4465 1.08545 0.23737
14 2 14.2578 1.00825 1.91905 14.2578 1.00825 1.91905
15 2 14.3091 0.966637 -1.40522 14.3091 0.966637 -1.40522
16 1 15.3197 2.67061 0.222814 15.3197 2.67061 0.222814
17 2 17.2278 2.69825 1.82491 17.2278 2.69825 1.82491
18 2 17.2447 2.56173 -1.44173 17.2447 2.56173 -1.44173
19 1 18.2014 0.981955 0.313521 18.2014 0.981955 0.313521
20 2 20.0751 0.928735 1.84743 20.0751 0.928735 1.84743
21 2 19.9644 1.01997 -1.42765 19.9644 1.01997 -1.42765
22 1 21.0751 2.5724 0.272712 21.0751 2.5724 0.272712
23 2 23.1594 2.4754 1.6293 23.1594 2.4754 1.6293
24 2 22.7171 2.76225 -1.59717 22.7171 2.76225 -1.59717
25 1 23.8757 1.0194 -0.232439 23.8757 1.0194 -0.232439
26 2 25.7938 1.03423 1.43258 25.7938 1.03423 1.43258
27 2 25.6152 1.15107 -1.93456 25.6152 1.15107 -1.93456
28 1 26.6747 2.753 -0.248789 26.6747 2.753 -0.248789
29 2 28.6465 2.55934 1.3518 28.6465 2.55934 1.3518
30 2 28.5101 2.83116 -1.80147 28.5101 2.83116 -1.80147
31 1 29.5356 1.00722 -0.412392 29.5356 1.00722 -0.412392
32 2 31.602 0.956704 1.05427 31.602 0.956704 1.05427
33 2 31.3399 1.17161 -2.17097 31.3399 1.17161 -2.17097
34 1 32.3643 2.8152 -0.472017 32.3643 2.8152 -0.472017
35 2 34.3439 2.55707 1.30007 34.3439 2.55707 1.30007
36 2 34.3541 2.87273 -2.05126 34.3541 2.87273 -2.05126
37 1 35.2056 0.936451 -0.613239 35.2056 0.936451 -0.613239
38 2 36.9625 50.3118 1.15516 36.9625 0.914778 1.15516
39 2 37.3698 0.99961 -2.09573 37.3698 0.99961 -2.09573
40 1 38.131 2.69152 -0.353676 38.131 2.69152 -0.353676
41 2 39.6215 2.57726 1.59617 39.6215 2.57726 1.59617
42 2 40.3597 2.90057 -1.55473 40.3597 2.90057 -1.55473
43 1 40.8805 1.04177 0.128948 40.8805 1.04177 0.128948
44 2 42.4899 0.977868 1.98812 42.4899 0.977868 1.98812
45 2 42.9848 1.04013 -1.33908 42.9848 1.04013 -1.33908
46 1 43.7616 2.63707 0.523059 43.7616 2.63707 0.523059
47 2 45.6169 2.65561 2.2446 45.6169 2.65561 2.2446
48 2 45.6682 2.68201 -0.995903 45.6682 2.68201 -0.995903
49 1 46.5682 0.963734 0.65982 46.5682 0.963734 0.65982
50 2 48.5332 0.864102 2.05969 48.5332 0.864102 2.05969
51 2 48.2959 0.981106 -1.16551 48.2959 0.981106 -1.16551
52 1 49.4423 2.63042 0.375863 49.4423 2.63042 0.375863
53 2 51.2988 2.52013 2.04017 51.2988 2.52013 2.04017
54 2 51.5018 2.76485 -1.19718 51.5018 2.76485 -1.19718
55 1 1.08346 4.30348 0.63649 1.08346 4.30348 0.63649
56 2 3.00495 4.04834 2.14575 3.00495 4.04834 2.14575
57 2 2.82024 4.42073 -1.08292 2.82024 4.42073 -1.08292
58 1 3.84622 5.88327 0.759602 3.84622 5.88327 0.759602
59 2 5.93954 5.9811 2.17798 5.93954 5.9811 2.17798
60 2 5.50345 5.91329 -1.03656 5.50345 5.91329 -1.03656
61 1 6.73576 4.37104 0.482363 6.73576 4.37104 0.482363
62 2 8.8833 4.29813 1.83396 8.8833 4.29813 1.83396
63 2 8.31926 4.47808 -1.3973 8.31926 4.47808 -1.3973
64 1 9.47394 5.96794 0.176583 9.47394 5.96794 0.176583
65 2 11.5538 6.06334 1.64739 11.5538 6.06334 1.64739
66 2 11.3444 5.62838 -1.60833 11.3444 5.62838 -1.60833
67 1 12.4499 4.30759 0.120008 12.4499 4.30759 0.120008
68 2 14.3371 4.41778 1.75596 14.3371 4.41778 1.75596
69 2 14.4102 4.12741 -1.55995 14.4102 4.12741 -1.55995
70 1 15.2617 5.9784 0.0168361 15.2617 5.9784 0.0168361
71 2 17.1578 6.10146 1.71632 17.1578 6.10146 1.71632
72 2 17.303 5.66131 -1.66306 17.303 5.66131 -1.66306
73 1 18.2102 4.32127 0.207875 18.2102 4.32127 0.207875
74 2 20.1326 4.34806 1.91318 20.1326 4.34806 1.91318
75 2 20.0569 4.33475 -1.41175 20.0569 4.33475 -1.41175
76 1 20.9979 6.02391 0.157609 20.9979 6.02391 0.157609
77 2 22.8382 5.93629 1.77034 22.8382 5.93629 1.77034
78 2 22.9088 6.1386 -1.48779 22.9088 6.1386 -1.48779
79 1 23.7397 4.35856 -0.00109255 23.7397 4.35856 -0.00109255
80 2 25.7863 4.42128 1.53389 25.7863 4.42128 1.53389
81 2 25.6056 4.45456 -1.77739 25.6056 4.45456 -1.77739
82 1 26.677 6.04798 -0.155423 26.677 6.04798 -0.155423
83 2 28.4668 6.04877 1.67681 28.4668 6.04877 1.67681
84 2 28.633 6.04417 -1.6148 28.633 6.04417 -1.6148
85 1 29.5365 4.33159 -0.0867605 29.5365 4.33159 -0.0867605
86 2 31.4417 4.24643 1.40591 31.4417 4.24643 1.40591
87 2 31.2499 4.57142 -1.87536 31.2499 4.57142 -1.87536
88 1 32.3164 5.98807 -0.142078 32.3164 5.98807 -0.142078
89 2 34.3233 5.82498 1.50337 34.3233 5.82498 1.50337
90 2 34.1785 6.04603 -1.80235 34.1785 6.04603 -1.80235
91 1 35.2417 4.31755 -0.220816 35.2417 4.31755 -0.220816
92 2 36.9907 4.09521 1.53701 36.9907 4.09521 1.53701
93 2 37.1941 4.52379 -1.76825 37.1941 4.52379 -1.76825
94 1 38.1146 5.96544 0.198387 38.1146 5.96544 0.198387
95 2 39.6916 5.84885 1.97476 39.6916 5.84885 1.97476
96 2 40.1134 6.0664 -1.35621 40.1134 6.0664 -1.35621
97 1 40.8842 4.38842 0.3426 40.8842 4.38842 0.3426
98 2 42.7007 4.34148 2.13923 42.7007 4.34148 2.13923
99 2 42.8504 4.37113 -1.12055 42.8504 4.37113 -1.12055
100 1 43.7479 5.9028 0.612396 43.7479 5.9028 0.612396
101 2 45.6439 5.75717 2.27608 45.6439 5.75717 2.27608
102 2 45.6008 5.98509 -1.07846 45.6008 5.98509 -1.07846
103 1 46.6577 4.32018 0.563271 46.6577 4.32018 0.563271
104 2 48.6345 4.11775 2.06521 48.6345 4.11775 2.06521
105 2 48.458 4.22087 -1.24541 48.458 4.22087 -1.24541
106 1 49.5132 5.8794 0.421247 49.5132 5.8794 0.421247
107 2 51.2867 5.91138 2.28037 51.2867 5.91138 2.28037
108 2 51.5382 5.9089 -1.00706 51.5382 5.9089 -1.00706
109 1 1.01055 7.5994 0.753901 1.01055 7.5994 0.753901
110 2 2.93943 7.70182 2.28932 2.93943 7.70182 2.28932
111 2 2.89768 7.54311 -1.01848 2.89768 7.54311 -1.01848
112 1 3.86135 9.2681 0.456477 3.86135 9.2681 0.456477
113 2 5.84715 9.26476 2.10452 5.84715 9.26476 2.10452
114 2 5.70922 9.19315 -1.15122 5.70922 9.19315 -1.15122
115 1 6.66029 7.64643 0.39519 6.66029 7.64643 0.39519
116 2 8.74196 7.80814 1.76737 8.74196 7.80814 1.76737
117 2 8.42696 7.53265 -1.52582 8.42696 7.53265 -1.52582
118 1 9.58779 9.29673 -0.117672 9.58779 9.29673 -0.117672
119 2 11.5753 9.26243 1.38081 11.5753 9.26243 1.38081
120 2 11.3859 9.16459 -1.92753 11.3859 9.16459 -1.92753
121 1 12.3242 7.52447 -0.280521 12.3242 7.52447 -0.280521
122 2 14.1891 7.75362 1.38501 14.1891 7.75362 1.38501
123 2 14.3257 7.36547 -1.84039 14.3257 7.36547 -1.84039
124 1 15.3443 9.29565 -0.376615 15.3443 9.29565 -0.376615
125 2 17.0886 9.22683 1.36907 17.0886 9.22683 1.36907
126 2 17.3525 9.18655 -1.94526 17.3525 9.18655 -1.94526
127 1 18.1642 7.57345 -0.203947 18.1642 7.57345 -0.203947
128 2 19.8738 7.68859 1.52179 19.8738 7.68859 1.52179
129 2 20.2026 7.53721 -1.64724 20.2026 7.53721 -1.64724
130 1 20.9835 9.1696 -0.0721497 20.9835 9.1696 -0.0721497
131 2 22.8555 9.41139 1.73878 22.8555 9.41139 1.73878
132 2 22.9014 9.26001 -1.57789 22.9014 9.26001 -1.57789
133 1 23.8572 7.67737 0.246729 23.8572 7.67737 0.246729
134 2 25.925 7.75035 1.64291 25.925 7.75035 1.64291
135 2 25.4396 7.69259 -1.6133 25.4396 7.69259 -1.6133
136 1 26.6723 9.357 -0.0374246 26.6723 9.357 -0.0374246
137 2 28.5567 9.45392 1.65433 28.5567 9.45392 1.65433
138 2 28.5843 9.1203 -1.68409 28.5843 9.1203 -1.68409
139 1 29.4902 7.67642 0.103449 29.4902 7.67642 0.103449
140 2 31.4858 7.43426 1.60593 31.4858 7.43426 1.60593
141 2 31.2877 7.6947 -1.5774 31.2877 7.6947 -1.5774
142 1 32.3697 9.25523 0.0517278 32.3697 9.25523 0.0517278
143 2 34.2167 8.96972 1.71974 34.2167 8.96972 1.71974
144 2 34.3023 9.20038 -1.50599 34.3023 9.20038 -1.50599
145 1 35.1841 7.4857 -0.0305128 35.1841 7.4857 -0.0305128
146 2 36.8671 7.38491 1.77465 36.8671 7.38491 1.77465
147 2 37.2035 7.78123 -1.38221 37.2035 7.78123 -1.38221
148 1 37.9269 9.19367 0.413148 37.9269 9.19367 0.413148
149 2 39.9083 9.09278 2.0884 39.9083 9.09278 2.0884
150 2 39.7922 9.20951 -1.10347 39.7922 9.20951 -1.10347
151 1 40.851 7.54036 0.489143 40.851 7.54036 0.489143
152 2 42.6017 7.46078 2.18358 42.6017 7.46078 2.18358
153 2 42.8403 7.67092 -1.02861 42.8403 7.67092 -1.02861
154 1 43.6452 9.24626 0.706622 43.6452 9.24626 0.706622
155 2 45.5297 9.14444 2.3189 45.5297 9.14444 2.3189
156 2 45.5547 9.22615 -0.966905 45.5547 9.22615 -0.966905
157 1 46.5292 7.5257 0.643925 46.5292 7.5257 0.643925
158 2 48.6358 7.46225 2.12212 48.6358 7.46225 2.12212
159 2 48.3644 7.56715 -1.14903 48.3644 7.56715 -1.14903
160 1 49.3584 9.2529 0.492406 49.3584 9.2529 0.492406
161 2 51.3575 9.51655 2.19459 51.3575 9.51655 2.19459
162 2 51.2121 9.27446 -1.07205 51.2121 9.27446 -1.07205
163 1 0.922369 10.9218 0.41403 0.922369 10.9218 0.41403
164 2 2.82714 10.8997 2.06789 2.82714 10.8997 2.06789
165 2 2.92315 10.8627 -1.25456 2.92315 10.8627 -1.25456
166 1 3.78121 12.5216 0.430238 3.78121 12.5216 0.430238
167 2 5.7778 12.5804 2.05151 5.7778 12.5804 2.05151
168 2 5.71733 12.5695 -1.25301 5.71733 12.5695 -1.25301
169 1 6.69802 10.8699 0.421745 6.69802 10.8699 0.421745
170 2 8.91705 10.7276 1.8592 8.91705 10.7276 1.8592
171 2 8.40916 11.06 -1.4385 8.40916 11.06 -1.4385
172 1 9.58346 12.5334 0.118788 9.58346 12.5334 0.118788
173 2 11.7833 12.3174 1.35815 11.7833 12.3174 1.35815
174 2 11.3866 12.5948 -1.76791 11.3866 12.5948 -1.76791
175 1 12.5051 10.8122 -0.429409 12.5051 10.8122 -0.429409
176 2 14.3261 10.7714 1.27924 14.3261 10.7714 1.27924
177 2 14.445 11.0429 -2.0084 14.445 11.0429 -2.0084
178 1 15.1956 12.6085 -0.229486 15.1956 12.6085 -0.229486
179 2 17.0193 12.446 1.42688 17.0193 12.446 1.42688
180 2 17.2724 12.6073 -1.75985 17.2724 12.6073 -1.75985
181 1 18.1204 10.8552 -0.210634 18.1204 10.8552 -0.210634
182 2 19.9498 10.9228 1.53228 19.9498 10.9228 1.53228
183 2 20.0097 10.9262 -1.75846 20.0097 10.9262 -1.75846
184 1 20.9554 12.4801 -0.0807992 20.9554 12.4801 -0.0807992
185 2 22.8192 12.7246 1.49211 22.8192 12.7246 1.49211
186 2 22.8293 12.341 -1.74955 22.8293 12.341 -1.74955
187 1 23.7999 10.9628 0.042759 23.7999 10.9628 0.042759
188 2 25.7342 11.021 1.69761 25.7342 11.021 1.69761
189 2 25.6718 10.9347 -1.68015 25.6718 10.9347 -1.68015
190 1 26.6993 12.5413 0.017434 26.6993 12.5413 0.017434
191 2 28.615 12.4314 1.63288 28.615 12.4314 1.63288
192 2 28.4775 12.7453 -1.67752 28.4775 12.7453 -1.67752
193 1 29.5875 10.941 -0.203417 29.5875 10.941 -0.203417
194 2 31.3176 10.915 1.55415 31.3176 10.915 1.55415
195 2 31.5876 10.9332 -1.68775 31.5876 10.9332 -1.68775
196 1 32.3382 12.6277 0.0704779 32.3382 12.6277 0.0704779
197 2 34.1014 12.369 1.79849 34.1014 12.369 1.79849
198 2 34.3884 12.6701 -1.46783 34.3884 12.6701 -1.46783
199 1 35.1559 10.8435 0.254544 35.1559 10.8435 0.254544
200 2 36.8677 10.7994 1.9533 36.8677 10.7994 1.9533
201 2 37.0636 10.8094 -1.24443 37.0636 10.8094 -1.24443
202 1 37.9796 12.464 0.394083 37.9796 12.464 0.394083
203 2 39.7664 12.5804 2.08775 39.7664 12.5804 2.08775
204 2 39.9696 12.3056 -1.07968 39.9696 12.3056 -1.07968
205 1 40.8681 10.8247 0.609403 40.8681 10.8247 0.609403
206 2 42.6533 10.7144 2.34236 42.6533 10.7144 2.34236
207 2 42.9264 10.9924 -0.89508 42.9264 10.9924 -0.89508
208 1 43.6883 12.5609 0.840391 43.6883 12.5609 0.840391
209 2 45.7842 12.6316 2.3732 45.7842 12.6316 2.3732
210 2 45.4915 12.3766 -0.885449 45.4915 12.3766 -0.885449
211 1 46.5731 10.9168 0.785088 46.5731 10.9168 0.785088
212 2 48.5074 10.791 2.27979 48.5074 10.791 2.27979
213 2 48.2642 11.018 -1.00388 48.2642 11.018 -1.00388
214 1 49.348 12.5269 0.669067 49.348 12.5269 0.669067
215 2 51.5271 12.6491 2.09972 51.5271 12.6491 2.09972
216 2 51.0973 12.6248 -1.08013 51.0973 12.6248 -1.08013
217 1 0.940629 14.2464 0.53591 0.940629 14.2464 0.53591
218 2 2.91722 14.2217 2.04567 2.91722 14.2217 2.04567
219 2 2.92767 14.1887 -1.18504 2.92767 14.1887 -1.18504
220 1 3.82725 15.798 0.512339 3.82725 15.798 0.512339
221 2 5.84618 15.7778 1.98513 5.84618 15.7778 1.98513
222 2 5.63642 15.8806 -1.25127 5.63642 15.8806 -1.25127
223 1 6.68579 14.1852 0.318039 6.68579 14.1852 0.318039
224 2 8.73003 14.2149 1.78508 8.73003 14.2149 1.78508
225 2 8.53543 14.3595 -1.46256 8.53543 14.3595 -1.46256
226 1 9.59934 15.8789 0.121443 9.59934 15.8789 0.121443
227 2 11.6137 15.6502 1.72336 11.6137 15.6502 1.72336
228 2 11.3348 15.996 -1.55658 11.3348 15.996 -1.55658
229 1 12.4596 14.1903 -0.118533 12.4596 14.1903 -0.118533
230 2 14.2883 14.0741 1.48596 14.2883 14.0741 1.48596
231 2 14.3706 14.4035 -1.72232 14.3706 14.4035 -1.72232
232 1 15.2614 15.9397 0.0366627 15.2614 15.9397 0.0366627
233 2 17.0735 15.8672 1.70472 17.0735 15.8672 1.70472
234 2 17.2058 15.884 -1.64543 17.2058 15.884 -1.64543
235 1 18.1508 14.2415 0.00405815 18.1508 14.2415 0.00405815
236 2 20.0514 14.155 1.6525 20.0514 14.155 1.6525
237 2 19.9981 14.2163 -1.68058 19.9981 14.2163 -1.68058
238 1 20.9405 15.8673 -0.0064341 20.9405 15.8673 -0.0064341
239 2 23.043 16.0066 1.22284 23.043 16.0066 1.22284
240 2 22.6335 15.7226 -2.01573 22.6335 15.7226 -2.01573
241 1 23.8825 14.1631 -0.381607 23.8825 14.1631 -0.381607
242 2 25.6856 14.4558 1.38035 25.6856 14.4558 1.38035
243 2 25.6545 13.9323 -1.91894 25.6545 13.9323 -1.91894
244 1 26.5589 15.8417 -0.553207 26.5589 15.8417 -0.553207
245 2 28.1548 16.1084 1.2807 28.1548 16.1084 1.2807
246 2 28.5303 15.6867 -1.96378 28.5303 15.6867 -1.96378
247 1 29.4371 14.33 0.0538062 29.4371 14.33 0.0538062
248 2 31.4296 14.4176 1.59 31.4296 14.4176 1.59
249 2 31.2493 14.0652 -1.68623 31.2493 14.0652 -1.68623
250 1 32.3185 15.842 -0.248616 32.3185 15.842 -0.248616
251 2 34.1423 16.0123 1.54781 34.1423 16.0123 1.54781
252 2 34.3601 15.5205 -1.64818 34.3601 15.5205 -1.64818
253 1 35.1768 14.1745 0.361924 35.1768 14.1745 0.361924
254 2 36.9937 14.2037 2.02921 36.9937 14.2037 2.02921
255 2 37.0063 14.0499 -1.28431 37.0063 14.0499 -1.28431
256 1 38.0204 15.7148 0.211679 38.0204 15.7148 0.211679
257 2 39.8455 15.9271 1.88171 39.8455 15.9271 1.88171
258 2 40.0068 15.7558 -1.30202 40.0068 15.7558 -1.30202
259 1 40.8755 14.1617 0.382965 40.8755 14.1617 0.382965
260 2 42.6483 14.4227 2.05883 42.6483 14.4227 2.05883
261 2 42.8259 13.7559 -1.10189 42.8259 13.7559 -1.10189
262 1 43.677 15.8021 0.13707 43.677 15.8021 0.13707
263 2 45.5106 15.8518 1.95089 45.5106 15.8518 1.95089
264 2 45.7953 15.7431 -1.38779 45.7953 15.7431 -1.38779
265 1 46.5702 14.1577 0.513743 46.5702 14.1577 0.513743
266 2 48.407 14.3526 2.094 48.407 14.3526 2.094
267 2 48.5299 14.0544 -1.15484 48.5299 14.0544 -1.15484
268 1 49.39 15.8088 0.273083 49.39 15.8088 0.273083
269 2 51.2333 16.0781 2.01538 51.2333 16.0781 2.01538
270 2 51.3614 15.6429 -1.28523 51.3614 15.6429 -1.28523
271 1 0.947349 17.4544 0.248808 0.947349 17.4544 0.248808
272 2 2.8267 17.6467 1.8869 2.8267 17.6467 1.8869
273 2 2.81805 17.2644 -1.27364 2.81805 17.2644 -1.27364
274 1 3.89832 19.1272 0.163785 3.89832 19.1272 0.163785
275 2 5.65101 19.1704 1.89296 5.65101 19.1704 1.89296
276 2 5.84837 19.0151 -1.40279 5.84837 19.0151 -1.40279
277 1 6.69682 17.5009 0.34422 6.69682 17.5009 0.34422
278 2 8.63505 17.5042 1.79097 8.63505 17.5042 1.79097
279 2 8.50373 17.5008 -1.38063 8.50373 17.5008 -1.38063
280 1 9.5404 19.1936 0.15163 9.5404 19.1936 0.15163
281 2 11.4371 19.1615 1.80676 11.4371 19.1615 1.80676
282 2 11.4508 19.3212 -1.52569 11.4508 19.3212 -1.52569
283 1 12.3484 17.5267 0.0773823 12.3484 17.5267 0.0773823
284 2 14.2736 17.5289 1.61519 14.2736 17.5289 1.61519
285 2 14.1381 17.6762 -1.57905 14.1381 17.6762 -1.57905
286 1 15.3102 19.1874 0.0567202 15.3102 19.1874 0.0567202
287 2 17.236 19.2022 1.73088 17.236 19.2022 1.73088
288 2 17.2526 19.2006 -1.50452 17.2526 19.2006 -1.50452
289 1 18.0931 17.5247 0.177529 18.0931 17.5247 0.177529
290 2 20.1008 17.6879 1.67142 20.1008 17.6879 1.67142
291 2 19.7432 17.4422 -1.61605 19.7432 17.4422 -1.61605
292 1 20.8514 19.209 -0.206036 20.8514 19.209 -0.206036
293 2 22.8719 19.16 1.37533 22.8719 19.16 1.37533
294 2 22.4958 19.2335 -2.01176 22.4958 19.2335 -2.01176
295 1 23.6931 17.5347 -0.540848 23.6931 17.5347 -0.540848
296 2 25.4638 17.5019 1.21003 25.4638 17.5019 1.21003
297 2 25.5365 17.7571 -2.06296 25.5365 17.7571 -2.06296
298 1 26.5283 19.1829 -0.228403 26.5283 19.1829 -0.228403
299 2 28.5502 19.1001 1.24164 28.5502 19.1001 1.24164
300 2 28.3611 19.231 -1.92654 28.3611 19.231 -1.92654
301 1 29.4216 17.4876 -0.466244 29.4216 17.4876 -0.466244
302 2 31.2529 17.5055 1.31344 31.2529 17.5055 1.31344
303 2 31.4079 17.5263 -2.02933 31.4079 17.5263 -2.02933
304 1 32.343 19.1519 -0.348249 32.343 19.1519 -0.348249
305 2 34.1076 19.0416 1.33444 34.1076 19.0416 1.33444
306 2 34.18 19.0766 -1.912 34.18 19.0766 -1.912
307 1 35.1997 17.5014 -0.259321 35.1997 17.5014 -0.259321
308 2 36.7847 17.5282 1.59289 36.7847 17.5282 1.59289
309 2 37.2941 17.3786 -1.62598 37.2941 17.3786 -1.62598
310 1 38.0497 19.0191 0.0244485 38.0497 19.0191 0.0244485
311 2 39.8481 19.2767 1.7925 39.8481 19.2767 1.7925
312 2 39.8966 18.8705 -1.51663 39.8966 18.8705 -1.51663
313 1 40.8849 17.4655 0.305303 40.8849 17.4655 0.305303
314 2 42.7844 17.552 1.82156 42.7844 17.552 1.82156
315 2 42.5535 17.3826 -1.44892 42.5535 17.3826 -1.44892
316 1 43.6949 19.1421 0.140005 43.6949 19.1421 0.140005
317 2 45.5886 19.2151 1.81876 45.5886 19.2151 1.81876
318 2 45.651 19.1373 -1.50761 45.651 19.1373 -1.50761
319 1 46.5587 17.467 0.238723 46.5587 17.467 0.238723
320 2 48.4431 17.5415 1.79678 48.4431 17.5415 1.79678
321 2 48.5801 17.3252 -1.41859 48.5801 17.3252 -1.41859
322 1 49.4511 19.1524 0.0706928 49.4511 19.1524 0.0706928
323 2 51.3907 19.3069 1.71005 51.3907 19.3069 1.71005
324 2 51.3588 18.9597 -1.51919 51.3588 18.9597 -1.51919
325 1 1.03338 20.8738 -0.0375762 1.03338 20.8738 -0.0375762
326 2 2.86976 20.8785 1.72462 2.86976 20.8785 1.72462
327 2 3.05295 20.853 -1.47104 3.05295 20.853 -1.47104
328 1 3.84709 22.5334 0.157836 3.84709 22.5334 0.157836
329 2 5.77397 22.7057 1.73258 5.77397 22.7057 1.73258
330 2 5.78047 22.3841 -1.55905 5.78047 22.3841 -1.55905
331 1 6.68076 20.8803 0.218003 6.68076 20.8803 0.218003
332 2 8.56369 20.9589 1.77596 8.56369 20.9589 1.77596
333 2 8.54156 20.8379 -1.4362 8.54156 20.8379 -1.4362
334 1 9.53435 22.4101 0.0977159 9.53435 22.4101 0.0977159
335 2 11.4903 22.5083 1.76702 11.4903 22.5083 1.76702
336 2 11.5336 22.3178 -1.54373 11.5336 22.3178 -1.54373
337 1 12.4455 20.8581 0.221528 12.4455 20.8581 0.221528
338 2 14.5093 20.8158 1.60849 14.5093 20.8158 1.60849
339 2 14.288 20.7403 -1.51055 14.288 20.7403 -1.51055
340 1 15.2548 22.4247 -0.000654896 15.2548 22.4247 -0.000654896
341 2 17.307 22.7538 1.42164 17.307 22.7538 1.42164
342 2 17.0303 22.1317 -1.81207 17.0303 22.1317 -1.81207
343 1 18.1816 20.8628 0.0907881 18.1816 20.8628 0.0907881
344 2 20.2118 20.847 1.50165 20.2118 20.847 1.50165
345 2 19.8458 20.7806 -1.7344 19.8458 20.7806 -1.7344
346 1 20.8888 22.5341 -0.267712 20.8888 22.5341 -0.267712
347 2 22.8533 22.4598 1.26595 22.8533 22.4598 1.26595
348 2 22.6476 22.487 -1.96841 22.6476 22.487 -1.96841
349 1 23.6846 20.8757 -0.40225 23.6846 20.8757 -0.40225
350 2 25.5422 20.8649 1.35927 25.5422 20.8649 1.35927
351 2 25.7387 20.8615 -1.88248 25.7387 20.8615 -1.88248
352 1 26.627 22.5195 -0.110824 26.627 22.5195 -0.110824
353 2 28.6153 22.3787 1.46984 28.6153 22.3787 1.46984
354 2 28.392 22.5557 -1.83409 28.392 22.5557 -1.83409
355 1 29.4542 20.8001 -0.290695 29.4542 20.8001 -0.290695
356 2 31.394 20.5846 1.39983 31.394 20.5846 1.39983
357 2 31.3752 20.9753 -1.86452 31.3752 20.9753 -1.86452
358 1 32.2765 22.3843 -0.0909072 32.2765 22.3843 -0.0909072
359 2 34.265 22.2749 1.56156 34.265 22.2749 1.56156
360 2 34.1878 22.5059 -1.77496 34.1878 22.5059 -1.77496
361 1 35.1199 20.7564 -0.206167 35.1199 20.7564 -0.206167
362 2 36.995 20.7559 1.46094 36.995 20.7559 1.46094
363 2 37.1195 20.5954 -1.77389 37.1195 20.5954 -1.77389
364 1 37.9208 22.365 -0.168812 37.9208 22.365 -0.168812
365 2 39.725 22.5036 1.60314 39.725 22.5036 1.60314
366 2 39.8974 22.4337 -1.69162 39.8974 22.4337 -1.69162
367 1 40.7681 20.7719 -0.0202361 40.7681 20.7719 -0.0202361
368 2 42.5313 20.8081 1.73748 42.5313 20.8081 1.73748
369 2 42.8621 20.9263 -1.59544 42.8621 20.9263 -1.59544
370 1 43.7136 22.3959 0.248158 43.7136 22.3959 0.248158
371 2 45.7394 22.3048 1.75072 45.7394 22.3048 1.75072
372 2 45.5927 22.5073 -1.49093 45.5927 22.5073 -1.49093
373 1 46.5913 20.7889 0.0380809 46.5913 20.7889 0.0380809
374 2 48.4502 20.8445 1.64862 48.4502 20.8445 1.64862
375 2 48.4596 20.607 -1.57783 48.4596 20.607 -1.57783
376 1 49.4825 22.4578 0.0459537 49.4825 22.4578 0.0459537
377 2 51.4752 22.428 1.55495 51.4752 22.428 1.55495
378 2 51.4189 22.6768 -1.70651 51.4189 22.6768 -1.70651
379 1 1.03253 24.2222 -0.0143691 1.03253 24.2222 -0.0143691
380 2 2.87169 24.2995 1.59635 2.87169 24.2995 1.59635
381 2 2.92163 23.9569 -1.59373 2.92163 23.9569 -1.59373
382 1 3.77095 25.7783 -0.194331 3.77095 25.7783 -0.194331
383 2 5.68955 25.7456 1.49658 5.68955 25.7456 1.49658
384 2 5.80973 25.7597 -1.77192 5.80973 25.7597 -1.77192
385 1 6.82463 24.082 -0.121726 6.82463 24.082 -0.121726
386 2 8.60858 24.0182 1.70666 8.60858 24.0182 1.70666
387 2 8.7701 24.1991 -1.61037 8.7701 24.1991 -1.61037
388 1 9.55786 25.6867 0.221352 9.55786 25.6867 0.221352
389 2 11.5872 25.6242 1.76455 11.5872 25.6242 1.76455
390 2 11.3384 25.7383 -1.53341 11.3384 25.7383 -1.53341
391 1 12.3752 24.0501 -0.0174085 12.3752 24.0501 -0.0174085
392 2 14.3588 24.1125 1.57042 14.3588 24.1125 1.57042
393 2 14.1313 23.9263 -1.66691 14.1313 23.9263 -1.66691
394 1 15.1264 25.7178 -0.247962 15.1264 25.7178 -0.247962
395 2 17.2647 25.8816 1.25492 17.2647 25.8816 1.25492
396 2 16.9347 25.8442 -1.91908 16.9347 25.8442 -1.91908
397 1 18.0032 24.0733 -0.473565 18.0032 24.0733 -0.473565
398 2 19.9223 24.2053 1.22046 19.9223 24.2053 1.22046
399 2 19.847 24.1043 -1.99379 19.847 24.1043 -1.99379
400 1 20.8776 25.7686 -0.48209 20.8776 25.7686 -0.48209
401 2 22.8521 25.8459 1.11236 22.8521 25.8459 1.11236
402 2 22.7538 25.6595 -2.14715 22.7538 25.6595 -2.14715
403 1 23.7391 24.1513 -0.436921 23.7391 24.1513 -0.436921
404 2 25.5192 24.2769 1.36983 25.5192 24.2769 1.36983
405 2 25.769 24.0737 -1.88191 25.769 24.0737 -1.88191
406 1 26.6623 25.7332 -0.301747 26.6623 25.7332 -0.301747
407 2 28.5268 25.9578 1.29056 28.5268 25.9578 1.29056
408 2 28.5333 25.5536 -1.9521 28.5333 25.5536 -1.9521
409 1 29.392 24.1137 -0.1302 29.392 24.1137 -0.1302
410 2 31.3855 24.2367 1.35529 31.3855 24.2367 1.35529
411 2 31.2916 23.9319 -1.67747 31.2916 23.9319 -1.67747
412 1 32.351 25.6743 -0.322059 32.351 25.6743 -0.322059
413 2 34.0007 25.6788 1.51688 34.0007 25.6788 1.51688
414 2 34.3739 25.6107 -1.80974 34.3739 25.6107 -1.80974
415 1 35.152 24.0797 -0.0260608 35.152 24.0797 -0.0260608
416 2 37.0305 24.039 1.59663 37.0305 24.039 1.59663
417 2 37.1282 24.1113 -1.72518 37.1282 24.1113 -1.72518
418 1 38.0009 25.6985 0.0152287 38.0009 25.6985 0.0152287
419 2 39.8698 25.4291 1.64156 39.8698 25.4291 1.64156
420 2 39.8784 25.8033 -1.62141 39.8784 25.8033 -1.62141
421 1 40.8524 24.0123 -0.0752638 40.8524 24.0123 -0.0752638
422 2 42.6554 24.0927 1.60155 42.6554 24.0927 1.60155
423 2 42.8089 23.8174 -1.5578 42.8089 23.8174 -1.5578
424 1 43.673 25.6511 -0.06909 43.673 25.6511 -0.06909
425 2 45.5829 25.7952 1.701 45.5829 25.7952 1.701
426 2 45.7435 25.7053 -1.54112 45.7435 25.7053 -1.54112
427 1 46.6487 24.0915 0.183908 46.6487 24.0915 0.183908
428 2 48.6114 24.1889 1.67055 48.6114 24.1889 1.67055
429 2 48.3999 24.0072 -1.59569 48.3999 24.0072 -1.59569
430 1 49.5163 25.7395 -0.0720005 49.5163 25.7395 -0.0720005
431 2 51.3225 25.8554 1.51955 51.3225 25.8554 1.51955
432 2 51.414 25.7554 -1.76131 51.414 25.7554 -1.76131
433 1 0.901124 27.4474 -0.169943 0.901124 27.4474 -0.169943
434 2 2.76529 27.4539 1.43515 2.76529 27.4539 1.43515
435 2 2.82905 27.6019 -1.78845 2.82905 27.6019 -1.78845
436 1 3.79675 29.0504 -0.0657529 3.79675 29.0504 -0.0657529
437 2 5.72875 28.9944 1.68627 5.72875 28.9944 1.68627
438 2 5.80317 29.1021 -1.65235 5.80317 29.1021 -1.65235
439 1 6.64745 27.4458 -0.0809806 6.64745 27.4458 -0.0809806
440 2 8.40091 27.4332 1.66025 8.40091 27.4332 1.66025
441 2 8.7341 27.2639 -1.62995 8.7341 27.2639 -1.62995
442 1 9.53956 29.0512 0.0948991 9.53956 29.0512 0.0948991
443 2 11.3771 29.1235 1.69003 11.3771 29.1235 1.69003
444 2 11.2819 29.0501 -1.5578 11.2819 29.0501 -1.5578
445 1 12.3573 27.3112 0.0555717 12.3573 27.3112 0.0555717
446 2 14.4165 27.4841 1.4737 14.4165 27.4841 1.4737
447 2 14.0063 27.0994 -1.8815 14.0063 27.0994 -1.8815
448 1 15.1213 29.0953 -0.50055 15.1213 29.0953 -0.50055
449 2 17.0059 29.3072 1.0657 17.0059 29.3072 1.0657
450 2 16.903 28.9005 -2.18083 16.903 28.9005 -2.18083
451 1 18.0061 27.5575 -0.356571 18.0061 27.5575 -0.356571
452 2 19.9808 27.4341 1.14176 19.9808 27.4341 1.14176
453 2 19.6934 27.2967 -2.17846 19.6934 27.2967 -2.17846
454 1 20.8812 29.0461 -0.769338 20.8812 29.0461 -0.769338
455 2 22.7789 29.0656 1.0132 22.7789 29.0656 1.0132
456 2 22.7682 28.9085 -2.34459 22.7682 28.9085 -2.34459
457 1 23.7654 27.4035 -0.650687 23.7654 27.4035 -0.650687
458 2 25.6313 27.5879 1.01832 25.6313 27.5879 1.01832
459 2 25.7059 27.077 -2.18017 25.7059 27.077 -2.18017
460 1 26.6468 28.9194 -0.858755 26.6468 28.9194 -0.858755
461 2 28.4066 29.0376 0.889998 28.4066 29.0376 0.889998
462 2 28.7133 28.8211 -2.27785 28.7133 28.8211 -2.27785
463 1 29.5144 27.3297 -0.552945 29.5144 27.3297 -0.552945
464 2 31.3169 27.4095 1.14579 31.3169 27.4095 1.14579
465 2 31.4397 27.2488 -2.12069 31.4397 27.2488 -2.12069
466 1 32.2798 28.9303 -0.377751 32.2798 28.9303 -0.377751
467 2 34.2081 29.0885 1.43109 34.2081 29.0885 1.43109
468 2 34.3179 28.8496 -1.88927 34.3179 28.8496 -1.88927
469 1 35.0839 27.321 -0.131313 35.0839 27.321 -0.131313
470 2 37.0586 27.3773 1.59239 37.0586 27.3773 1.59239
471 2 37.2222 27.4497 -1.67426 37.2222 27.4497 -1.67426
472 1 38.0305 29.0059 0.0402073 38.0305 29.0059 0.0402073
473 2 39.8623 29.1232 1.68448 39.8623 29.1232 1.68448
474 2 39.8465 28.8505 -1.53595 39.8465 28.8505 -1.53595
475 1 40.8235 27.3186 0.154127 40.8235 27.3186 0.154127
476 2 42.9153 27.2019 1.60057 42.9153 27.2019 1.60057
477 2 42.7573 27.2437 -1.56968 42.7573 27.2437 -1.56968
478 1 43.6126 28.9295 -0.0539748 43.6126 28.9295 -0.0539748
479 2 45.5522 29.0937 1.64797 45.5522 29.0937 1.64797
480 2 45.4883 28.9467 -1.66585 45.4883 28.9467 -1.66585
481 1 46.4809 27.3708 0.0812424 46.4809 27.3708 0.0812424
482 2 48.4856 27.3435 1.6881 48.4856 27.3435 1.6881
483 2 48.4801 27.437 -1.48522 48.4801 27.437 -1.48522
484 1 49.411 29.0676 0.137818 49.411 29.0676 0.137818
485 2 51.5292 29.1099 1.53709 51.5292 29.1099 1.53709
486 2 51.0642 29.1456 -1.71241 51.0642 29.1456 -1.71241
487 1 0.938994 30.8205 -0.195201 0.938994 30.8205 -0.195201
488 2 2.85383 30.8131 1.49045 2.85383 30.8131 1.49045
489 2 2.83693 30.6314 -1.81202 2.83693 30.6314 -1.81202
490 1 3.7757 32.2648 -0.281132 3.7757 32.2648 -0.281132
491 2 5.45249 32.3882 1.65353 5.45249 32.3882 1.65353
492 2 5.84275 32.4286 -1.58842 5.84275 32.4286 -1.58842
493 1 6.65034 30.7722 0.0485071 6.65034 30.7722 0.0485071
494 2 8.44643 30.6394 1.7117 8.44643 30.6394 1.7117
495 2 8.64357 30.9277 -1.4545 8.64357 30.9277 -1.4545
496 1 9.47595 32.3852 0.315273 9.47595 32.3852 0.315273
497 2 11.3891 32.0846 1.84628 11.3891 32.0846 1.84628
498 2 11.2756 32.393 -1.39339 11.2756 32.393 -1.39339
499 1 12.358 30.7398 -0.056156 12.358 30.7398 -0.056156
500 2 14.461 30.5251 1.34998 14.461 30.5251 1.34998
501 2 13.9609 30.9862 -1.86277 13.9609 30.9862 -1.86277
502 1 15.1502 32.3711 -0.22187 15.1502 32.3711 -0.22187
503 2 17.29 32.3154 1.09629 17.29 32.3154 1.09629
504 2 16.649 32.317 -2.14506 16.649 32.317 -2.14506
505 1 18.011 30.7433 -0.798709 18.011 30.7433 -0.798709
506 2 19.9173 30.7915 0.76647 19.9173 30.7915 0.76647
507 2 19.8915 30.6461 -2.45824 19.8915 30.6461 -2.45824
508 1 20.8964 32.3626 -0.976559 20.8964 32.3626 -0.976559
509 2 22.6895 32.3817 0.731525 22.6895 32.3817 0.731525
510 2 22.9396 32.2102 -2.45248 22.9396 32.2102 -2.45248
511 1 23.7716 30.6267 -0.694347 23.7716 30.6267 -0.694347
512 2 25.7025 30.5316 0.894251 25.7025 30.5316 0.894251
513 2 25.7694 30.5831 -2.36823 25.7694 30.5831 -2.36823
514 1 26.6271 32.2863 -0.637351 26.6271 32.2863 -0.637351
515 2 28.5421 32.3366 1.04997 28.5421 32.3366 1.04997
516 2 28.4658 32.335 -2.25905 28.4658 32.335 -2.25905
517 1 29.4228 30.6679 -0.665273 29.4228 30.6679 -0.665273
518 2 31.2097 30.5194 1.15498 31.2097 30.5194 1.15498
519 2 31.5826 30.7588 -2.05443 31.5826 30.7588 -2.05443
520 1 32.2879 32.3154 -0.241854 32.2879 32.3154 -0.241854
521 2 34.232 32.2467 1.44704 34.232 32.2467 1.44704
522 2 34.1673 32.2789 -1.93012 34.1673 32.2789 -1.93012
523 1 35.175 30.6136 -0.246086 35.175 30.6136 -0.246086
524 2 36.9685 30.8624 1.39879 36.9685 30.8624 1.39879
525 2 37.0928 30.3822 -1.92654 37.0928 30.3822 -1.92654
526 1 37.9733 32.231 -0.556586 37.9733 32.231 -0.556586
527 2 39.6916 32.5483 1.28093 39.6916 32.5483 1.28093
528 2 39.9277 32.0163 -1.93209 39.9277 32.0163 -1.93209
529 1 40.8169 30.679 0.0208374 40.8169 30.679 0.0208374
530 2 42.7485 30.6758 1.64378 42.7485 30.6758 1.64378
531 2 42.5697 30.5382 -1.73879 42.5697 30.5382 -1.73879
532 1 43.6343 32.2498 -0.0548181 43.6343 32.2498 -0.0548181
533 2 45.6503 32.4277 1.5698 45.6503 32.4277 1.5698
534 2 45.5386 32.2481 -1.79823 45.5386 32.2481 -1.79823
535 1 46.4918 30.6784 -0.100134 46.4918 30.6784 -0.100134
536 2 48.2731 30.8116 1.57575 48.2731 30.8116 1.57575
537 2 48.4865 30.5015 -1.61111 48.4865 30.5015 -1.61111
538 1 49.4141 32.3322 -0.0754599 49.4141 32.3322 -0.0754599
539 2 51.3149 32.4058 1.41897 51.3149 32.4058 1.41897
540 2 51.1921 32.3188 -1.82038 51.1921 32.3188 -1.82038