ITEM: TIMESTEP
22200
ITEM: NUMBER OF ATOMS
810
ITEM: BOX BOUNDS pp pp pp
8.4137701477268123e-01 5.2176227985227342e+01
8.0961581116522285e-01 5.0206599188834083e+01
-1.0000000000000000e+01 1.0000000000000000e+01
ITEM: ATOMS id type x y z xu yu zu
1 1 0.965108 0.859507 0.186439 0.965108 0.859507 0.186439
2 2 2.69943 50.1077 1.94759 2.69943 0.710699 1.94759
3 2 2.90086 1.02083 -1.3803 2.90086 1.02083 -1.3803
4 1 3.76325 2.49028 0.459751 3.76325 2.49028 0.459751
5 2 5.79971 2.57103 2.00685 5.79971 2.57103 2.00685
6 2 5.53943 2.5397 -1.22167 5.53943 2.5397 -1.22167
7 1 6.65151 0.967973 0.319108 6.65151 0.967973 0.319108
8 2 8.5503 0.946683 1.86981 8.5503 0.946683 1.86981
9 2 8.52496 1.00846 -1.35346 8.52496 1.00846 -1.35346
10 1 9.4644 2.54639 0.240911 9.4644 2.54639 0.240911
11 2 11.469 2.59578 1.69407 11.469 2.59578 1.69407
12 2 11.2063 2.56018 -1.45833 11.2063 2.56018 -1.45833
13 1 12.3199 0.910636 0.102622 12.3199 0.910636 0.102622
14 2 14.4217 0.969115 1.37894 14.4217 0.969115 1.37894
15 2 13.9225 1.08395 -1.86086 13.9225 1.08395 -1.86086
16 1 15.2315 2.63972 -0.459953 15.2315 2.63972 -0.459953
17 2 17.2315 2.46907 0.958673 17.2315 2.46907 0.958673
18 2 17.0871 2.7044 -2.28051 17.0871 2.7044 -2.28051
19 1 18.1009 0.90028 -0.775815 18.1009 0.90028 -0.775815
20 2 20.0393 0.965276 0.723886 20.0393 0.965276 0.723886
21 2 19.7932 0.968966 -2.57339 19.7932 0.968966 -2.57339
22 1 20.9107 2.59497 -0.955855 20.9107 2.59497 -0.955855
23 2 22.8534 2.56719 0.636717 22.8534 2.56719 0.636717
24 2 22.7916 2.62201 -2.65444 22.7916 2.62201 -2.65444
25 1 23.8234 0.903289 -0.976412 23.8234 0.903289 -0.976412
26 2 25.5766 0.916285 0.751252 25.5766 0.916285 0.751252
27 2 25.677 1.00431 -2.59402 25.677 1.00431 -2.59402
28 1 26.5961 2.56408 -0.894493 26.5961 2.56408 -0.894493
29 2 28.4031 2.47332 0.917523 28.4031 2.47332 0.917523
30 2 28.6748 2.94383 -2.34457 28.6748 2.94383 -2.34457
31 1 29.5042 1.12979 -0.807888 29.5042 1.12979 -0.807888
32 2 31.2971 1.00201 0.863595 31.2971 1.00201 0.863595
33 2 31.4882 1.12374 -2.30735 31.4882 1.12374 -2.30735
34 1 32.3529 2.67913 -0.617977 32.3529 2.67913 -0.617977
35 2 34.2426 2.64759 1.03233 34.2426 2.64759 1.03233
36 2 34.3197 2.77276 -2.19802 34.3197 2.77276 -2.19802
37 1 35.2963 1.11045 -0.686459 35.2963 1.11045 -0.686459
38 2 36.8804 1.06671 1.17493 36.8804 1.06671 1.17493
39 2 37.4103 0.943075 -2.02718 37.4103 0.943075 -2.02718
40 1 38.1676 2.53257 -0.35606 38.1676 2.53257 -0.35606
41 2 39.902 2.66294 1.56019 39.902 2.66294 1.56019
42 2 40.2522 2.54762 -1.68082 40.2522 2.54762 -1.68082
43 1 40.951 0.811123 0.0717597 40.951 0.811123 0.0717597
44 2 42.8418 0.769467 1.70407 42.8418 0.769467 1.70407
45 2 42.8013 1.01473 -1.58889 42.8013 1.01473 -1.58889
46 1 43.7517 2.57979 0.14593 43.7517 2.57979 0.14593
47 2 45.7852 2.51943 1.58222 45.7852 2.51943 1.58222
48 2 45.4236 2.7376 -1.72971 45.4236 2.7376 -1.72971
49 1 46.638 1.01628 -0.150679 46.638 1.01628 -0.150679
50 2 48.4131 0.912801 1.55527 48.4131 0.912801 1.55527
51 2 48.5884 0.976966 -1.75773 48.5884 0.976966 -1.75773
52 1 49.4279 2.56199 -0.0645409 49.4279 2.56199 -0.0645409
53 2 51.369 2.55238 1.68723 51.369 2.55238 1.68723
54 2 51.4117 2.53009 -1.57454 51.4117 2.53009 -1.57454
55 1 0.982091 4.20554 0.052651 0.982091 4.20554 0.052651
56 2 2.74994 4.37056 1.88072 2.74994 4.37056 1.88072
57 2 2.88932 4.01073 -1.41142 2.88932 4.01073 -1.41142
58 1 3.82039 5.80818 0.0670103 3.82039 5.80818 0.0670103
59 2 5.62498 6.03999 1.79123 5.62498 6.03999 1.79123
60 2 5.72796 5.82541 -1.43305 5.72796 5.82541 -1.43305
61 1 6.60033 4.25218 0.290015 6.60033 4.25218 0.290015
62 2 8.59986 4.24238 1.84561 8.59986 4.24238 1.84561
63 2 8.33428 4.29344 -1.37994 8.33428 4.29344 -1.37994
64 1 9.58604 5.80347 0.18687 9.58604 5.80347 0.18687
65 2 11.5529 5.7368 1.7871 11.5529 5.7368 1.7871
66 2 11.4446 5.90341 -1.43776 11.4446 5.90341 -1.43776
67 1 12.3703 4.12821 0.0725309 12.3703 4.12821 0.0725309
68 2 14.4589 4.02881 1.50792 14.4589 4.02881 1.50792
69 2 14.0775 4.50307 -1.76118 14.0775 4.50307 -1.76118
70 1 15.2205 5.86205 0.037916 15.2205 5.86205 0.037916
71 2 17.4927 5.6387 1.38666 17.4927 5.6387 1.38666
72 2 17.0048 6.05729 -1.85319 17.0048 6.05729 -1.85319
73 1 18.1124 4.22411 -0.637928 18.1124 4.22411 -0.637928
74 2 20.1645 4.0407 0.835828 20.1645 4.0407 0.835828
75 2 19.9153 4.2588 -2.38192 19.9153 4.2588 -2.38192
76 1 20.8685 5.8436 -0.771446 20.8685 5.8436 -0.771446
77 2 22.8439 5.66459 0.746576 22.8439 5.66459 0.746576
78 2 22.7437 5.94612 -2.5105 22.7437 5.94612 -2.5105
79 1 23.7425 4.29354 -0.982998 23.7425 4.29354 -0.982998
80 2 25.5413 4.15861 0.812188 25.5413 4.15861 0.812188
81 2 25.8371 4.32416 -2.4369 25.8371 4.32416 -2.4369
82 1 26.572 5.8891 -0.607538 26.572 5.8891 -0.607538
83 2 28.2523 5.72102 1.26594 28.2523 5.72102 1.26594
84 2 28.6176 6.1628 -1.93239 28.6176 6.1628 -1.93239
85 1 29.4215 4.35775 -0.386942 29.4215 4.35775 -0.386942
86 2 31.4013 4.18317 1.19764 31.4013 4.18317 1.19764
87 2 31.4363 4.43172 -2.11527 31.4363 4.43172 -2.11527
88 1 32.3355 5.94653 -0.259111 32.3355 5.94653 -0.259111
89 2 34.3047 5.88222 1.19944 34.3047 5.88222 1.19944
90 2 34.1538 5.84508 -2.00983 34.1538 5.84508 -2.00983
91 1 35.2482 4.2669 -0.399163 35.2482 4.2669 -0.399163
92 2 37.1159 4.15113 1.32344 37.1159 4.15113 1.32344
93 2 37.1637 4.30645 -1.89868 37.1637 4.30645 -1.89868
94 1 38.1062 5.90961 -0.19811 38.1062 5.90961 -0.19811
95 2 39.9273 5.88752 1.56601 39.9273 5.88752 1.56601
96 2 40.0212 5.91271 -1.64525 40.0212 5.91271 -1.64525
97 1 40.9021 4.24727 -0.0227567 40.9021 4.24727 -0.0227567
98 2 42.6902 4.20543 1.78134 42.6902 4.20543 1.78134
99 2 42.8386 4.28983 -1.55641 42.8386 4.28983 -1.55641
100 1 43.6851 5.83025 0.171862 43.6851 5.83025 0.171862
101 2 45.6703 5.7232 1.81091 45.6703 5.7232 1.81091
102 2 45.6772 6.0406 -1.41803 45.6772 6.0406 -1.41803
103 1 46.6273 4.2568 -0.079522 46.6273 4.2568 -0.079522
104 2 48.4432 4.14391 1.61762 48.4432 4.14391 1.61762
105 2 48.5558 4.37812 -1.68414 48.5558 4.37812 -1.68414
106 1 49.4342 5.87954 0.0786305 49.4342 5.87954 0.0786305
107 2 51.2645 5.71022 1.85576 51.2645 5.71022 1.85576
108 2 51.5357 6.17185 -1.44039 51.5357 6.17185 -1.44039
109 1 1.04088 7.53549 0.423704 1.04088 7.53549 0.423704
110 2 3.14587 7.59126 1.78157 3.14587 7.59126 1.78157
111 2 2.67744 7.58027 -1.45078 2.67744 7.58027 -1.45078
112 1 3.85379 9.18005 0.0487029 3.85379 9.18005 0.0487029
113 2 5.76297 9.22418 1.77547 5.76297 9.22418 1.77547
114 2 5.74228 9.09992 -1.52108 5.74228 9.09992 -1.52108
115 1 6.71142 7.55571 0.176884 6.71142 7.55571 0.176884
116 2 8.64807 7.41745 1.89874 8.64807 7.41745 1.89874
117 2 8.64304 7.45327 -1.37052 8.64304 7.45327 -1.37052
118 1 9.54513 9.08192 0.297988 9.54513 9.08192 0.297988
119 2 11.4609 9.05591 1.97452 11.4609 9.05591 1.97452
120 2 11.5183 9.10093 -1.43657 11.5183 9.10093 -1.43657
121 1 12.4839 7.47494 0.27563 12.4839 7.47494 0.27563
122 2 14.5659 7.45652 1.70889 14.5659 7.45652 1.70889
123 2 14.1849 7.54505 -1.44323 14.1849 7.54505 -1.44323
124 1 15.3069 9.17612 0.0212686 15.3069 9.17612 0.0212686
125 2 17.3721 9.21705 1.51711 17.3721 9.21705 1.51711
126 2 16.9951 9.17996 -1.74673 16.9951 9.17996 -1.74673
127 1 18.1995 7.55684 -0.158782 18.1995 7.55684 -0.158782
128 2 20.362 7.40134 1.17293 20.362 7.40134 1.17293
129 2 19.762 7.69919 -2.09176 19.762 7.69919 -2.09176
130 1 20.9463 9.25151 -0.517298 20.9463 9.25151 -0.517298
131 2 22.9944 9.1524 0.937366 22.9944 9.1524 0.937366
132 2 22.7185 9.10166 -2.3389 22.7185 9.10166 -2.3389
133 1 23.733 7.47225 -0.700905 23.733 7.47225 -0.700905
134 2 25.5758 7.5708 0.914384 25.5758 7.5708 0.914384
135 2 25.6684 7.63205 -2.245 25.6684 7.63205 -2.245
136 1 26.6569 9.2344 -0.626478 26.6569 9.2344 -0.626478
137 2 28.3024 9.41545 1.19652 28.3024 9.41545 1.19652
138 2 28.6009 8.99603 -2.0321 28.6009 8.99603 -2.0321
139 1 29.4407 7.62415 -0.0882762 29.4407 7.62415 -0.0882762
140 2 31.4025 7.6073 1.40096 31.4025 7.6073 1.40096
141 2 31.2419 7.54485 -1.85962 31.2419 7.54485 -1.85962
142 1 32.3697 9.14975 -0.326231 32.3697 9.14975 -0.326231
143 2 34.2633 9.18518 1.40536 34.2633 9.18518 1.40536
144 2 34.3778 9.3952 -1.84289 34.3778 9.3952 -1.84289
145 1 35.303 7.60775 -0.335692 35.303 7.60775 -0.335692
146 2 37.1582 7.62117 1.4103 37.1582 7.62117 1.4103
147 2 37.2489 7.46731 -1.93027 37.2489 7.46731 -1.93027
148 1 38.1037 9.16782 -0.222981 38.1037 9.16782 -0.222981
149 2 39.6617 9.0732 1.696 39.6617 9.0732 1.696
150 2 40.1367 9.36414 -1.52043 40.1367 9.36414 -1.52043
151 1 40.9013 7.56286 0.0932498 40.9013 7.56286 0.0932498
152 2 42.6584 7.47822 1.8771 42.6584 7.47822 1.8771
153 2 42.9349 7.60749 -1.36292 42.9349 7.60749 -1.36292
154 1 43.8006 9.22309 0.462201 43.8006 9.22309 0.462201
155 2 45.7132 9.0512 2.14528 45.7132 9.0512 2.14528
156 2 45.7345 9.37829 -1.14345 45.7345 9.37829 -1.14345
157 1 46.5671 7.51192 0.418686 46.5671 7.51192 0.418686
158 2 48.6108 7.27879 1.90921 48.6108 7.27879 1.90921
159 2 48.3626 7.79636 -1.27244 48.3626 7.79636 -1.27244
160 1 49.4942 9.12752 0.516535 49.4942 9.12752 0.516535
161 2 51.47 9.17989 2.0702 51.47 9.17989 2.0702
162 2 51.2226 9.11886 -1.22976 51.2226 9.11886 -1.22976
163 1 0.964861 10.7806 0.361024 0.964861 10.7806 0.361024
164 2 3.11779 10.7576 1.72385 3.11779 10.7576 1.72385
165 2 2.72788 10.7105 -1.46352 2.72788 10.7105 -1.46352
166 1 3.77308 12.5163 0.00514511 3.77308 12.5163 0.00514511
167 2 5.66637 12.4991 1.62495 5.66637 12.4991 1.62495
168 2 5.71105 12.5118 -1.58029 5.71105 12.5118 -1.58029
169 1 6.6825 10.7647 -0.0252769 6.6825 10.7647 -0.0252769
170 2 8.46712 10.9852 1.62407 8.46712 10.9852 1.62407
171 2 8.49535 10.4751 -1.59533 8.49535 10.4751 -1.59533
172 1 9.44858 12.4298 -0.155179 9.44858 12.4298 -0.155179
173 2 11.428 12.7096 1.53647 11.428 12.7096 1.53647
174 2 11.426 12.2067 -1.71087 11.426 12.2067 -1.71087
175 1 12.3481 10.7894 0.188073 12.3481 10.7894 0.188073
176 2 14.3834 10.8677 1.61058 14.3834 10.8677 1.61058
177 2 14.1282 10.6812 -1.55951 14.1282 10.6812 -1.55951
178 1 15.2273 12.5319 -0.103481 15.2273 12.5319 -0.103481
179 2 17.2637 12.5886 1.41213 17.2637 12.5886 1.41213
180 2 16.9688 12.3775 -1.78282 16.9688 12.3775 -1.78282
181 1 18.0842 10.8123 -0.20508 18.0842 10.8123 -0.20508
182 2 20.1715 10.8479 1.18358 20.1715 10.8479 1.18358
183 2 19.7376 10.7943 -2.07136 19.7376 10.7943 -2.07136
184 1 20.9559 12.4686 -0.564927 20.9559 12.4686 -0.564927
185 2 22.9038 12.3612 1.05461 22.9038 12.3612 1.05461
186 2 22.85 12.6448 -2.25316 22.85 12.6448 -2.25316
187 1 23.8335 10.8334 -0.782188 23.8335 10.8334 -0.782188
188 2 25.5845 10.8797 0.950383 25.5845 10.8797 0.950383
189 2 25.8259 10.8468 -2.34657 25.8259 10.8468 -2.34657
190 1 26.6471 12.5213 -0.652373 26.6471 12.5213 -0.652373
191 2 28.5273 12.5252 1.03205 28.5273 12.5252 1.03205
192 2 28.5755 12.4696 -2.18222 28.5755 12.4696 -2.18222
193 1 29.5421 10.8287 -0.558052 29.5421 10.8287 -0.558052
194 2 31.2661 10.6646 1.26531 31.2661 10.6646 1.26531
195 2 31.4518 10.723 -2.03652 31.4518 10.723 -2.03652
196 1 32.3962 12.4027 -0.322508 32.3962 12.4027 -0.322508
197 2 34.2852 12.5651 1.33044 34.2852 12.5651 1.33044
198 2 34.285 12.3541 -1.87517 34.285 12.3541 -1.87517
199 1 35.2504 10.9179 -0.137229 35.2504 10.9179 -0.137229
200 2 37.0649 10.6981 1.5464 37.0649 10.6981 1.5464
201 2 37.165 10.8756 -1.80113 37.165 10.8756 -1.80113
202 1 38.0269 12.4423 0.0649864 38.0269 12.4423 0.0649864
203 2 39.8002 12.4707 1.85825 39.8002 12.4707 1.85825
204 2 40.1364 12.5825 -1.38428 40.1364 12.5825 -1.38428
205 1 40.9839 10.8194 0.293185 40.9839 10.8194 0.293185
206 2 42.6798 10.8124 2.17888 42.6798 10.8124 2.17888
207 2 43.0193 10.9995 -1.10834 43.0193 10.9995 -1.10834
208 1 43.736 12.4494 0.812407 43.736 12.4494 0.812407
209 2 45.8455 12.3975 2.33748 45.8455 12.3975 2.33748
210 2 45.3903 12.4836 -0.985861 45.3903 12.4836 -0.985861
211 1 46.6288 10.8099 0.612037 46.6288 10.8099 0.612037
212 2 48.5628 10.73 2.21518 48.5628 10.73 2.21518
213 2 48.4137 10.866 -1.11791 48.4137 10.866 -1.11791
214 1 49.4803 12.447 0.498345 49.4803 12.447 0.498345
215 2 51.4561 12.4232 1.98449 51.4561 12.4232 1.98449
216 2 51.286 12.3643 -1.3054 51.286 12.3643 -1.3054
217 1 0.928999 14.0674 0.113468 0.928999 14.0674 0.113468
218 2 2.81581 14.1648 1.65032 2.81581 14.1648 1.65032
219 2 2.75952 14.1623 -1.53646 2.75952 14.1623 -1.53646
220 1 3.78824 15.8207 -0.0400707 3.78824 15.8207 -0.0400707
221 2 5.93504 15.9889 1.64917 5.93504 15.9889 1.64917
222 2 5.50544 15.7348 -1.70863 5.50544 15.7348 -1.70863
223 1 6.61576 14.1367 0.129454 6.61576 14.1367 0.129454
224 2 8.69443 14.197 1.50612 8.69443 14.197 1.50612
225 2 8.31399 14.0659 -1.63426 8.31399 14.0659 -1.63426
226 1 9.51442 15.8187 -0.237652 9.51442 15.8187 -0.237652
227 2 11.5142 15.936 1.25465 11.5142 15.936 1.25465
228 2 11.2934 15.6474 -2.02364 11.2934 15.6474 -2.02364
229 1 12.2928 14.0679 -0.362007 12.2928 14.0679 -0.362007
230 2 14.1852 14.2477 1.36722 14.1852 14.2477 1.36722
231 2 14.2155 13.9086 -1.99664 14.2155 13.9086 -1.99664
232 1 15.1451 15.6884 -0.49232 15.1451 15.6884 -0.49232
233 2 17.1144 15.8821 1.19689 17.1144 15.8821 1.19689
234 2 17.0933 15.7952 -1.97083 17.0933 15.7952 -1.97083
235 1 18.1018 14.1325 -0.322472 18.1018 14.1325 -0.322472
236 2 20.1243 14.1551 1.11152 20.1243 14.1551 1.11152
237 2 19.7508 14.0764 -2.20831 19.7508 14.0764 -2.20831
238 1 20.9019 15.7435 -0.590144 20.9019 15.7435 -0.590144
239 2 22.7366 15.6238 1.11428 22.7366 15.6238 1.11428
240 2 22.8854 15.8734 -2.08781 22.8854 15.8734 -2.08781
241 1 23.8175 14.082 -0.528497 23.8175 14.082 -0.528497
242 2 25.7616 14.1264 1.0405 25.7616 14.1264 1.0405
243 2 25.6591 14.1485 -2.24704 25.6591 14.1485 -2.24704
244 1 26.6622 15.7127 -0.612318 26.6622 15.7127 -0.612318
245 2 28.5744 15.6481 1.09692 28.5744 15.6481 1.09692
246 2 28.6185 15.844 -2.16242 28.6185 15.844 -2.16242
247 1 29.5266 14.1125 -0.584459 29.5266 14.1125 -0.584459
248 2 31.3777 14.0835 1.25639 31.3777 14.0835 1.25639
249 2 31.5266 14.0205 -2.06276 31.5266 14.0205 -2.06276
250 1 32.3691 15.7256 -0.403372 32.3691 15.7256 -0.403372
251 2 34.261 15.8061 1.1199 34.261 15.8061 1.1199
252 2 34.1474 15.7831 -2.11609 34.1474 15.7831 -2.11609
253 1 35.2323 14.0444 -0.454856 35.2323 14.0444 -0.454856
254 2 36.8297 14.2257 1.42174 36.8297 14.2257 1.42174
255 2 37.4351 13.9507 -1.76489 37.4351 13.9507 -1.76489
256 1 38.0716 15.7426 -0.146613 38.0716 15.7426 -0.146613
257 2 39.703 15.8555 1.7056 39.703 15.8555 1.7056
258 2 40.2534 15.5586 -1.42139 40.2534 15.5586 -1.42139
259 1 40.8458 14.1511 0.468932 40.8458 14.1511 0.468932
260 2 42.5743 14.1684 2.3773 42.5743 14.1684 2.3773
261 2 42.986 14.1164 -0.847199 42.986 14.1164 -0.847199
262 1 43.7339 15.8191 0.81148 43.7339 15.8191 0.81148
263 2 45.7926 15.9827 2.19261 45.7926 15.9827 2.19261
264 2 45.4822 15.609 -0.992151 45.4822 15.609 -0.992151
265 1 46.583 14.0968 0.627345 46.583 14.0968 0.627345
266 2 48.633 14.2526 2.07104 48.633 14.2526 2.07104
267 2 48.287 13.9471 -1.19705 48.287 13.9471 -1.19705
268 1 49.3879 15.7833 0.102963 49.3879 15.7833 0.102963
269 2 51.2422 15.8706 1.6861 51.2422 15.8706 1.6861
270 2 51.2983 15.7215 -1.64462 51.2983 15.7215 -1.64462
271 1 0.882382 17.4402 -0.0731173 0.882382 17.4402 -0.0731173
272 2 2.76634 17.4931 1.53752 2.76634 17.4931 1.53752
273 2 2.74908 17.3678 -1.63753 2.74908 17.3678 -1.63753
274 1 3.70033 19.0979 -0.159513 3.70033 19.0979 -0.159513
275 2 5.62289 19.1254 1.47092 5.62289 19.1254 1.47092
276 2 5.75022 19.2685 -1.81025 5.75022 19.2685 -1.81025
277 1 6.65343 17.4238 -0.220368 6.65343 17.4238 -0.220368
278 2 8.55804 17.4202 1.4095 8.55804 17.4202 1.4095
279 2 8.55065 17.4251 -1.89949 8.55065 17.4251 -1.89949
280 1 9.51093 19.0426 -0.296096 9.51093 19.0426 -0.296096
281 2 11.6002 19.0494 1.09983 11.6002 19.0494 1.09983
282 2 11.2337 19.2309 -2.14707 11.2337 19.2309 -2.14707
283 1 12.3442 17.445 -0.609603 12.3442 17.445 -0.609603
284 2 14.2402 17.3775 1.1789 14.2402 17.3775 1.1789
285 2 14.3979 17.3652 -2.19964 14.3979 17.3652 -2.19964
286 1 15.2118 19.0461 -0.479116 15.2118 19.0461 -0.479116
287 2 17.0535 19.106 1.17427 17.0535 19.106 1.17427
288 2 17.0786 19.1811 -2.08298 17.0786 19.1811 -2.08298
289 1 18.1474 17.4265 -0.485217 18.1474 17.4265 -0.485217
290 2 20.0495 17.3063 1.16168 20.0495 17.3063 1.16168
291 2 20.0885 17.5409 -2.05688 20.0885 17.5409 -2.05688
292 1 21.0952 19.1062 -0.254907 21.0952 19.1062 -0.254907
293 2 22.9379 18.9908 1.33146 22.9379 18.9908 1.33146
294 2 22.9108 19.1032 -1.98695 22.9108 19.1032 -1.98695
295 1 23.8293 17.392 -0.332875 23.8293 17.392 -0.332875
296 2 25.7988 17.2936 1.16378 25.7988 17.2936 1.16378
297 2 25.6999 17.5108 -2.0926 25.6999 17.5108 -2.0926
298 1 26.6885 18.9727 -0.398154 26.6885 18.9727 -0.398154
299 2 28.4824 19.0562 1.2824 28.4824 19.0562 1.2824
300 2 28.5966 18.9464 -1.97389 28.5966 18.9464 -1.97389
301 1 29.4984 17.2884 -0.404765 29.4984 17.2884 -0.404765
302 2 31.3828 17.41 1.07142 31.3828 17.41 1.07142
303 2 31.2619 17.173 -2.10922 31.2619 17.173 -2.10922
304 1 32.2948 19.013 -0.662309 32.2948 19.013 -0.662309
305 2 34.1234 18.9024 1.15156 34.1234 18.9024 1.15156
306 2 34.2805 19.0914 -2.18466 34.2805 19.0914 -2.18466
307 1 35.2352 17.4013 -0.49111 35.2352 17.4013 -0.49111
308 2 36.9588 17.5133 1.29699 36.9588 17.5133 1.29699
309 2 37.3996 17.3428 -1.89461 37.3996 17.3428 -1.89461
310 1 38.0129 19.0838 -0.215491 38.0129 19.0838 -0.215491
311 2 39.6485 19.0728 1.61349 39.6485 19.0728 1.61349
312 2 40.0666 18.8478 -1.62368 40.0666 18.8478 -1.62368
313 1 40.8614 17.3652 0.185303 40.8614 17.3652 0.185303
314 2 42.5035 17.573 2.10734 42.5035 17.573 2.10734
315 2 43.0041 17.2209 -1.099 43.0041 17.2209 -1.099
316 1 43.6438 19.131 0.380161 43.6438 19.131 0.380161
317 2 45.6954 19.1475 1.82233 45.6954 19.1475 1.82233
318 2 45.5346 18.9084 -1.43539 45.5346 18.9084 -1.43539
319 1 46.5283 17.4145 0.306447 46.5283 17.4145 0.306447
320 2 48.5686 17.4083 1.8411 48.5686 17.4083 1.8411
321 2 48.3134 17.5072 -1.52916 48.3134 17.5072 -1.52916
322 1 49.3115 19.0259 0.0820525 49.3115 19.0259 0.0820525
323 2 51.3944 19.1629 1.5456 51.3944 19.1629 1.5456
324 2 51.139 18.919 -1.7054 51.139 18.919 -1.7054
325 1 0.793631 20.6577 -0.284542 0.793631 20.6577 -0.284542
326 2 2.80869 20.8022 1.37163 2.80869 20.8022 1.37163
327 2 2.75847 20.7454 -1.92036 2.75847 20.7454 -1.92036
328 1 3.72998 22.3949 -0.280375 3.72998 22.3949 -0.280375
329 2 5.50883 22.3616 1.45453 5.50883 22.3616 1.45453
330 2 5.74057 22.3877 -1.67731 5.74057 22.3877 -1.67731
331 1 6.63427 20.8376 -0.0932058 6.63427 20.8376 -0.0932058
332 2 8.62319 20.6779 1.39499 8.62319 20.6779 1.39499
333 2 8.58375 20.8273 -1.86775 8.58375 20.8273 -1.86775
334 1 9.48785 22.3444 -0.218241 9.48785 22.3444 -0.218241
335 2 11.5243 22.2881 1.20576 11.5243 22.2881 1.20576
336 2 11.2577 22.4867 -1.98374 11.2577 22.4867 -1.98374
337 1 12.4105 20.7767 -0.573622 12.4105 20.7767 -0.573622
338 2 14.2913 20.6207 1.08255 14.2913 20.6207 1.08255
339 2 14.4476 20.7001 -2.12058 14.4476 20.7001 -2.12058
340 1 15.3182 22.296 -0.459355 15.3182 22.296 -0.459355
341 2 17.1757 22.369 1.15785 17.1757 22.369 1.15785
342 2 17.1771 22.285 -2.11475 17.1771 22.285 -2.11475
343 1 18.1087 20.7513 -0.379552 18.1087 20.7513 -0.379552
344 2 20.0041 20.7936 1.22 20.0041 20.7936 1.22
345 2 20.1129 20.5088 -2.06442 20.1129 20.5088 -2.06442
346 1 20.9711 22.2743 -0.579128 20.9711 22.2743 -0.579128
347 2 22.7543 22.4293 1.23909 22.7543 22.4293 1.23909
348 2 22.9703 22.2067 -2.07392 22.9703 22.2067 -2.07392
349 1 23.8681 20.6506 -0.263163 23.8681 20.6506 -0.263163
350 2 25.7199 20.6072 1.31328 25.7199 20.6072 1.31328
351 2 25.6879 20.8187 -1.96346 25.6879 20.8187 -1.96346
352 1 26.6628 22.3303 -0.212028 26.6628 22.3303 -0.212028
353 2 28.6983 22.4574 1.24128 28.6983 22.4574 1.24128
354 2 28.373 22.3063 -2.03157 28.373 22.3063 -2.03157
355 1 29.4546 20.6881 -0.409309 29.4546 20.6881 -0.409309
356 2 31.3632 20.5154 1.16918 31.3632 20.5154 1.16918
357 2 31.1966 20.856 -2.22021 31.1966 20.856 -2.22021
358 1 32.255 22.2433 -0.40749 32.255 22.2433 -0.40749
359 2 34.208 22.3519 1.13142 34.208 22.3519 1.13142
360 2 34.0832 22.3729 -1.99576 34.0832 22.3729 -1.99576
361 1 35.1202 20.7112 -0.372476 35.1202 20.7112 -0.372476
362 2 37.0071 20.7883 1.29263 37.0071 20.7883 1.29263
363 2 37.081 20.5514 -1.95966 37.081 20.5514 -1.95966
364 1 38.0193 22.322 -0.4104 38.0193 22.322 -0.4104
365 2 39.64 22.2835 1.39535 39.64 22.2835 1.39535
366 2 40.1379 22.3627 -1.76623 40.1379 22.3627 -1.76623
367 1 40.8549 20.6829 -0.0114519 40.8549 20.6829 -0.0114519
368 2 42.6213 20.9476 1.7469 42.6213 20.9476 1.7469
369 2 42.7761 20.3885 -1.58018 42.7761 20.3885 -1.58018
370 1 43.6029 22.3604 -0.14293 43.6029 22.3604 -0.14293
371 2 45.424 22.2404 1.55514 45.424 22.2404 1.55514
372 2 45.5748 22.2383 -1.59447 45.5748 22.2383 -1.59447
373 1 46.549 20.7126 0.0474614 46.549 20.7126 0.0474614
374 2 48.5284 20.8173 1.61836 48.5284 20.8173 1.61836
375 2 48.3432 20.5608 -1.67252 48.3432 20.5608 -1.67252
376 1 49.3186 22.2277 -0.254595 49.3186 22.2277 -0.254595
377 2 51.1531 22.0787 1.44808 51.1531 22.0787 1.44808
378 2 51.285 22.3361 -1.87457 51.285 22.3361 -1.87457
379 1 0.850604 23.8891 -0.00968734 0.850604 23.8891 -0.00968734
380 2 2.88484 23.9367 1.48553 2.88484 23.9367 1.48553
381 2 2.61865 24.0576 -1.76085 2.61865 24.0576 -1.76085
382 1 3.73515 25.6752 -0.117243 3.73515 25.6752 -0.117243
383 2 5.57555 25.7006 1.59585 5.57555 25.7006 1.59585
384 2 5.75371 25.6194 -1.70199 5.75371 25.6194 -1.70199
385 1 6.62721 23.9742 -0.00586545 6.62721 23.9742 -0.00586545
386 2 8.41815 23.9201 1.63396 8.41815 23.9201 1.63396
387 2 8.44318 24.1204 -1.71764 8.44318 24.1204 -1.71764
388 1 9.52638 25.4934 0.00105353 9.52638 25.4934 0.00105353
389 2 11.6413 25.4642 1.45713 11.6413 25.4642 1.45713
390 2 11.2082 25.5855 -1.79238 11.2082 25.5855 -1.79238
391 1 12.4504 23.9403 -0.336101 12.4504 23.9403 -0.336101
392 2 14.345 23.8445 1.2029 14.345 23.8445 1.2029
393 2 14.2425 23.9787 -2.01425 14.2425 23.9787 -2.01425
394 1 15.2307 25.5575 -0.439691 15.2307 25.5575 -0.439691
395 2 17.1608 25.6273 1.04536 17.1608 25.6273 1.04536
396 2 17.0293 25.5645 -2.24303 17.0293 25.5645 -2.24303
397 1 18.1115 23.952 -0.545694 18.1115 23.952 -0.545694
398 2 20.0093 23.9014 1.04486 20.0093 23.9014 1.04486
399 2 19.9698 24.0328 -2.13949 19.9698 24.0328 -2.13949
400 1 20.9721 25.6097 -0.523638 20.9721 25.6097 -0.523638
401 2 22.8721 25.7668 1.08104 22.8721 25.7668 1.08104
402 2 22.8548 25.431 -2.13162 22.8548 25.431 -2.13162
403 1 23.8537 23.9968 -0.347908 23.8537 23.9968 -0.347908
404 2 25.8419 24.3105 1.09295 25.8419 24.3105 1.09295
405 2 25.6758 23.7015 -2.05087 25.6758 23.7015 -2.05087
406 1 26.5639 25.6418 -0.848825 26.5639 25.6418 -0.848825
407 2 28.3936 25.6526 0.94946 28.3936 25.6526 0.94946
408 2 28.6349 25.7293 -2.2254 28.6349 25.7293 -2.2254
409 1 29.3889 24.0362 -0.485115 29.3889 24.0362 -0.485115
410 2 31.3149 24.0277 1.0993 31.3149 24.0277 1.0993
411 2 31.282 23.8787 -2.08789 31.282 23.8787 -2.08789
412 1 32.3597 25.6462 -0.584236 32.3597 25.6462 -0.584236
413 2 34.1666 25.4921 1.15999 34.1666 25.4921 1.15999
414 2 34.3405 25.6391 -2.06156 34.3405 25.6391 -2.06156
415 1 35.1809 23.9075 -0.455546 35.1809 23.9075 -0.455546
416 2 36.9389 23.9359 1.27357 36.9389 23.9359 1.27357
417 2 37.1482 23.9373 -1.93923 37.1482 23.9373 -1.93923
418 1 37.9661 25.5645 -0.337537 37.9661 25.5645 -0.337537
419 2 39.7679 25.7653 1.39994 39.7679 25.7653 1.39994
420 2 39.9683 25.5288 -1.77341 39.9683 25.5288 -1.77341
421 1 40.8543 24.028 -0.0131129 40.8543 24.028 -0.0131129
422 2 42.811 23.9983 1.52683 42.811 23.9983 1.52683
423 2 42.6492 24.0433 -1.68035 42.6492 24.0433 -1.68035
424 1 43.7567 25.6705 -0.162364 43.7567 25.6705 -0.162364
425 2 45.5428 25.6842 1.53262 45.5428 25.6842 1.53262
426 2 45.5956 25.5398 -1.80574 45.5956 25.5398 -1.80574
427 1 46.5319 23.9098 -0.069219 46.5319 23.9098 -0.069219
428 2 48.3106 23.7972 1.52985 48.3106 23.7972 1.52985
429 2 48.299 24.0354 -1.79569 48.299 24.0354 -1.79569
430 1 49.3797 25.4832 -0.0361989 49.3797 25.4832 -0.0361989
431 2 51.3167 25.4656 1.74047 51.3167 25.4656 1.74047
432 2 51.2807 25.688 -1.53306 51.2807 25.688 -1.53306
433 1 0.824513 27.2953 0.176225 0.824513 27.2953 0.176225
434 2 2.9228 27.3538 1.64292 2.9228 27.3538 1.64292
435 2 2.69821 27.3182 -1.59506 2.69821 27.3182 -1.59506
436 1 3.8228 28.9672 -0.0475502 3.8228 28.9672 -0.0475502
437 2 5.66119 28.9648 1.60489 5.66119 28.9648 1.60489
438 2 5.75127 28.838 -1.65603 5.75127 28.838 -1.65603
439 1 6.65033 27.2195 0.0263838 6.65033 27.2195 0.0263838
440 2 8.53502 27.1045 1.60194 8.53502 27.1045 1.60194
441 2 8.65895 27.2483 -1.59603 8.65895 27.2483 -1.59603
442 1 9.47053 28.8771 0.0947474 9.47053 28.8771 0.0947474
443 2 11.6792 28.8818 1.5235 11.6792 28.8818 1.5235
444 2 11.2311 28.8829 -1.70336 11.2311 28.8829 -1.70336
445 1 12.36 27.1631 -0.276406 12.36 27.1631 -0.276406
446 2 14.3907 27.1813 1.30736 14.3907 27.1813 1.30736
447 2 14.1801 27.2685 -1.93576 14.1801 27.2685 -1.93576
448 1 15.1702 28.8946 -0.33467 15.1702 28.8946 -0.33467
449 2 17.1569 28.7994 1.19495 17.1569 28.7994 1.19495
450 2 16.886 29.0691 -2.1316 16.886 29.0691 -2.1316
451 1 18.0522 27.2657 -0.693615 18.0522 27.2657 -0.693615
452 2 19.8598 27.3107 1.09637 19.8598 27.3107 1.09637
453 2 20.1249 27.3077 -2.18724 20.1249 27.3077 -2.18724
454 1 20.7896 28.939 -0.450103 20.7896 28.939 -0.450103
455 2 22.8706 28.8752 1.06676 22.8706 28.8752 1.06676
456 2 22.6226 29.0905 -2.16569 22.6226 29.0905 -2.16569
457 1 23.7742 27.2774 -0.720538 23.7742 27.2774 -0.720538
458 2 25.7136 27.2047 0.890864 25.7136 27.2047 0.890864
459 2 25.6591 27.3828 -2.37764 25.6591 27.3828 -2.37764
460 1 26.6479 28.8999 -0.652161 26.6479 28.8999 -0.652161
461 2 28.317 28.9621 1.11759 28.317 28.9621 1.11759
462 2 28.571 28.9825 -2.20552 28.571 28.9825 -2.20552
463 1 29.5478 27.3726 -0.579913 29.5478 27.3726 -0.579913
464 2 31.392 27.2669 1.14015 31.392 27.2669 1.14015
465 2 31.5073 27.4613 -2.07812 31.5073 27.4613 -2.07812
466 1 32.4403 28.9477 -0.349326 32.4403 28.9477 -0.349326
467 2 34.2589 28.8853 1.29062 34.2589 28.8853 1.29062
468 2 34.2381 28.7077 -2.01122 34.2381 28.7077 -2.01122
469 1 35.247 27.199 -0.345019 35.247 27.199 -0.345019
470 2 37.1693 27.3259 1.25032 37.1693 27.3259 1.25032
471 2 37.0741 27.2256 -2.09184 37.0741 27.2256 -2.09184
472 1 38.067 28.894 -0.521624 38.067 28.894 -0.521624
473 2 39.8769 29.0994 1.16472 39.8769 29.0994 1.16472
474 2 40.0739 28.8143 -2.10402 40.0739 28.8143 -2.10402
475 1 40.9008 27.2864 -0.250572 40.9008 27.2864 -0.250572
476 2 42.8191 27.2076 1.40739 42.8191 27.2076 1.40739
477 2 42.7775 27.2962 -1.80567 42.7775 27.2962 -1.80567
478 1 43.7359 28.9191 -0.216124 43.7359 28.9191 -0.216124
479 2 45.7374 29.0228 1.34138 45.7374 29.0228 1.34138
480 2 45.6224 28.6912 -1.91191 45.6224 28.6912 -1.91191
481 1 46.5823 27.198 -0.136651 46.5823 27.198 -0.136651
482 2 48.4528 27.3354 1.50261 48.4528 27.3354 1.50261
483 2 48.4592 27.1492 -1.72117 48.4592 27.1492 -1.72117
484 1 49.3311 28.9261 -0.279646 49.3311 28.9261 -0.279646
485 2 51.0592 29.1496 1.58255 51.0592 29.1496 1.58255
486 2 51.3447 28.8281 -1.65719 51.3447 28.8281 -1.65719
487 1 0.909137 30.5743 -0.0302238 0.909137 30.5743 -0.0302238
488 2 2.79643 30.5234 1.53659 2.79643 30.5234 1.53659
489 2 2.8183 30.5546 -1.75845 2.8183 30.5546 -1.75845
490 1 3.83571 32.2446 -0.111292 3.83571 32.2446 -0.111292
491 2 5.75217 32.2796 1.67759 5.75217 32.2796 1.67759
492 2 5.8032 32.1756 -1.59241 5.8032 32.1756 -1.59241
493 1 6.67112 30.5145 0.0142515 6.67112 30.5145 0.0142515
494 2 8.50003 30.4665 1.6259 8.50003 30.4665 1.6259
495 2 8.58455 30.6418 -1.55505 8.58455 30.6418 -1.55505
496 1 9.5104 32.187 0.138695 9.5104 32.187 0.138695
497 2 11.5936 32.0708 1.5084 11.5936 32.0708 1.5084
498 2 11.2315 32.2779 -1.65136 11.2315 32.2779 -1.65136
499 1 12.3034 30.5232 -0.244949 12.3034 30.5232 -0.244949
500 2 14.1716 30.4893 1.43207 14.1716 30.4893 1.43207
501 2 14.2623 30.5965 -1.86358 14.2623 30.5965 -1.86358
502 1 15.2077 32.2352 -0.112487 15.2077 32.2352 -0.112487
503 2 17.1044 32.0513 1.37007 17.1044 32.0513 1.37007
504 2 17.026 32.3042 -1.72186 17.026 32.3042 -1.72186
505 1 18.0051 30.5712 -0.277693 18.0051 30.5712 -0.277693
506 2 19.9138 30.6475 1.27732 19.9138 30.6475 1.27732
507 2 19.8061 30.6887 -2.01666 19.8061 30.6887 -2.01666
508 1 20.8054 32.2515 -0.412249 20.8054 32.2515 -0.412249
509 2 22.6792 32.0861 1.12702 22.6792 32.0861 1.12702
510 2 22.8053 32.2781 -2.03681 22.8053 32.2781 -2.03681
511 1 23.794 30.5556 -0.571644 23.794 30.5556 -0.571644
512 2 25.6483 30.5174 1.01378 25.6483 30.5174 1.01378
513 2 25.6571 30.6948 -2.2063 25.6571 30.6948 -2.2063
514 1 26.7076 32.1474 -0.525292 26.7076 32.1474 -0.525292
515 2 28.4281 32.1054 1.22096 28.4281 32.1054 1.22096
516 2 28.7223 32.3385 -1.9946 28.7223 32.3385 -1.9946
517 1 29.5281 30.5728 -0.349624 29.5281 30.5728 -0.349624
518 2 31.4318 30.6393 1.36011 31.4318 30.6393 1.36011
519 2 31.5294 30.5724 -2.03007 31.5294 30.5724 -2.03007
520 1 32.2256 32.2345 -0.3113 32.2256 32.2345 -0.3113
521 2 34.2037 32.2053 1.33989 34.2037 32.2053 1.33989
522 2 34.1822 32.2612 -1.95861 34.1822 32.2612 -1.95861
523 1 35.1328 30.5685 -0.349638 35.1328 30.5685 -0.349638
524 2 37.1924 30.6447 1.03677 37.1924 30.6447 1.03677
525 2 36.9458 30.4488 -2.22031 36.9458 30.4488 -2.22031
526 1 37.9638 32.1639 -0.686653 37.9638 32.1639 -0.686653
527 2 39.9806 32.2544 0.992302 39.9806 32.2544 0.992302
528 2 39.9164 32.2229 -2.2955 39.9164 32.2229 -2.2955
529 1 40.8974 30.5954 -0.585212 40.8974 30.5954 -0.585212
530 2 42.6092 30.6868 1.12857 42.6092 30.6868 1.12857
531 2 43.0309 30.4423 -2.11161 43.0309 30.4423 -2.11161
532 1 43.6962 32.1788 -0.487726 43.6962 32.1788 -0.487726
533 2 45.4873 32.1146 1.26718 45.4873 32.1146 1.26718
534 2 45.7285 32.1621 -2.0548 45.7285 32.1621 -2.0548
535 1 46.5636 30.5612 -0.421357 46.5636 30.5612 -0.421357
536 2 48.2965 30.4255 1.34072 48.2965 30.4255 1.34072
537 2 48.5133 30.6272 -1.97271 48.5133 30.6272 -1.97271
538 1 49.4343 32.214 -0.152129 49.4343 32.214 -0.152129