ITEM: TIMESTEP
6600
ITEM: NUMBER OF ATOMS
810
ITEM: BOX BOUNDS pp pp pp
8.4137701477268123e-01 5.2176227985227342e+01
8.0961581116522285e-01 5.0206599188834083e+01
-1.0000000000000000e+01 1.0000000000000000e+01
ITEM: ATOMS id type x y z xu yu zu
1 1 52.1762 50.3613 0.500278 0.841347 0.96433 0.500278
2 2 2.78637 50.3272 2.00132 2.78637 0.930231 2.00132
3 2 2.6239 50.4598 -1.15776 2.6239 1.0628 -1.15776
4 1 3.69757 2.68527 0.370765 3.69757 2.68527 0.370765
5 2 5.42752 2.6993 2.11041 5.42752 2.6993 2.11041
6 2 5.51962 2.42382 -1.13516 5.51962 2.42382 -1.13516
7 1 6.54812 50.4297 0.693247 6.54812 1.03274 0.693247
8 2 8.45518 50.2008 2.18243 8.45518 0.803866 2.18243
9 2 8.30706 50.4344 -1.09693 8.30706 1.03746 -1.09693
10 1 9.47164 2.50801 0.651666 9.47164 2.50801 0.651666
11 2 11.5978 2.66389 2.09042 11.5978 2.66389 2.09042
12 2 11.1055 2.59158 -1.12988 11.1055 2.59158 -1.12988
13 1 12.2005 50.36 0.314347 12.2005 0.963007 0.314347
14 2 14.145 50.4723 1.91227 14.145 1.07535 1.91227
15 2 14.082 50.3061 -1.33806 14.082 0.909094 -1.33806
16 1 15.092 2.63792 0.059173 15.092 2.63792 0.059173
17 2 16.9657 2.68301 1.89402 16.9657 2.68301 1.89402
18 2 17.121 2.49329 -1.43286 17.121 2.49329 -1.43286
19 1 17.9685 50.3415 0.33348 17.9685 0.944509 0.33348
20 2 20.0052 50.0697 1.8717 20.0052 0.672677 1.8717
21 2 19.654 50.4203 -1.4067 19.654 1.02336 -1.4067
22 1 20.8891 2.49968 0.257942 20.8891 2.49968 0.257942
23 2 22.724 2.2082 1.8958 22.724 2.2082 1.8958
24 2 22.7918 2.76779 -1.35387 22.7918 2.76779 -1.35387
25 1 23.6583 50.3337 0.0330388 23.6583 0.936683 0.0330388
26 2 25.4732 50.2309 1.86941 25.4732 0.833897 1.86941
27 2 25.5639 50.4267 -1.48223 25.5639 1.02969 -1.48223
28 1 26.5515 2.56481 0.241907 26.5515 2.56481 0.241907
29 2 28.441 2.38639 1.79681 28.441 2.38639 1.79681
30 2 28.4724 2.8265 -1.33212 28.4724 2.8265 -1.33212
31 1 29.3796 50.3007 -0.00972717 29.3796 0.903714 -0.00972717
32 2 31.3579 50.2861 1.52648 31.3579 0.889087 1.52648
33 2 31.2579 50.3775 -1.73658 31.2579 0.980468 -1.73658
34 1 32.1636 2.68066 -0.0456638 32.1636 2.68066 -0.0456638
35 2 34.0973 2.50764 1.71464 34.0973 2.50764 1.71464
36 2 34.1636 2.7542 -1.55409 34.1636 2.7542 -1.55409
37 1 35.0648 50.3196 0.0358484 35.0648 0.92265 0.0358484
38 2 37.1447 50.2454 1.61905 37.1447 0.848392 1.61905
39 2 36.9363 50.3922 -1.64047 36.9363 0.995221 -1.64047
40 1 37.8438 2.57897 0.0605432 37.8438 2.57897 0.0605432
41 2 39.8334 2.46253 1.61469 39.8334 2.46253 1.61469
42 2 39.7453 2.80751 -1.59568 39.7453 2.80751 -1.59568
43 1 40.6631 50.3796 -0.211927 40.6631 0.982663 -0.211927
44 2 42.5231 50.2958 1.49572 42.5231 0.898858 1.49572
45 2 42.6712 50.4981 -1.68447 42.6712 1.1011 -1.68447
46 1 43.6155 2.61951 0.081983 43.6155 2.61951 0.081983
47 2 45.4949 2.67569 1.76831 45.4949 2.67569 1.76831
48 2 45.5095 2.48412 -1.52879 45.5095 2.48412 -1.52879
49 1 46.5314 50.2992 0.141083 46.5314 0.902176 0.141083
50 2 48.243 50.2147 1.82589 48.243 0.81768 1.82589
51 2 48.5282 50.5162 -1.4159 48.5282 1.11918 -1.4159
52 1 49.2877 2.59693 0.411575 49.2877 2.59693 0.411575
53 2 51.1453 2.80737 1.96695 51.1453 2.80737 1.96695
54 2 51.2349 2.50705 -1.21879 51.2349 2.50705 -1.21879
55 1 52.2071 4.2907 0.183413 0.872216 4.2907 0.183413
56 2 2.59516 4.33106 1.94866 2.59516 4.33106 1.94866
57 2 2.84511 4.38191 -1.2662 2.84511 4.38191 -1.2662
58 1 3.63594 5.9789 0.397089 3.63594 5.9789 0.397089
59 2 5.62429 5.90453 1.98648 5.62429 5.90453 1.98648
60 2 5.55247 5.86772 -1.30882 5.55247 5.86772 -1.30882
61 1 6.52777 4.20528 0.311617 6.52777 4.20528 0.311617
62 2 8.30435 4.33064 2.07806 8.30435 4.33064 2.07806
63 2 8.51883 4.11145 -1.24745 8.51883 4.11145 -1.24745
64 1 9.3557 5.89553 0.43139 9.3557 5.89553 0.43139
65 2 11.3197 5.81726 1.93279 11.3197 5.81726 1.93279
66 2 11.2237 5.85439 -1.22803 11.2237 5.85439 -1.22803
67 1 12.2627 4.13454 0.317213 12.2627 4.13454 0.317213
68 2 14.3637 4.20165 1.77127 14.3637 4.20165 1.77127
69 2 13.9868 4.29651 -1.47505 13.9868 4.29651 -1.47505
70 1 15.159 5.81581 0.115615 15.159 5.81581 0.115615
71 2 17.1057 5.85576 1.83212 17.1057 5.85576 1.83212
72 2 17.111 5.77444 -1.46848 17.111 5.77444 -1.46848
73 1 18.071 4.19093 0.214587 18.071 4.19093 0.214587
74 2 19.9445 4.15516 2.01887 19.9445 4.15516 2.01887
75 2 19.9423 4.27754 -1.33097 19.9423 4.27754 -1.33097
76 1 20.817 5.8686 0.417648 20.817 5.8686 0.417648
77 2 22.5704 5.85503 2.25354 22.5704 5.85503 2.25354
78 2 22.8109 5.81928 -1.0475 22.8109 5.81928 -1.0475
79 1 23.6662 4.14464 0.52147 23.6662 4.14464 0.52147
80 2 25.6114 3.96573 2.04165 25.6114 3.96573 2.04165
81 2 25.5341 4.33588 -1.21081 25.5341 4.33588 -1.21081
82 1 26.4668 5.89385 0.589928 26.4668 5.89385 0.589928
83 2 28.3743 5.60809 2.14415 28.3743 5.60809 2.14415
84 2 28.4018 6.05468 -1.02116 28.4018 6.05468 -1.02116
85 1 29.4397 4.20336 0.418642 29.4397 4.20336 0.418642
86 2 31.3691 4.00427 1.9188 31.3691 4.00427 1.9188
87 2 31.1719 4.58539 -1.35082 31.1719 4.58539 -1.35082
88 1 32.1834 5.88321 0.606846 32.1834 5.88321 0.606846
89 2 34.1901 5.80223 2.05492 34.1901 5.80223 2.05492
90 2 33.9557 6.08298 -1.15226 33.9557 6.08298 -1.15226
91 1 35.0672 4.26673 0.123239 35.0672 4.26673 0.123239
92 2 36.9222 4.20626 1.89256 36.9222 4.20626 1.89256
93 2 37.0782 4.46219 -1.32813 37.0782 4.46219 -1.32813
94 1 37.9922 5.95401 0.395257 37.9922 5.95401 0.395257
95 2 39.9471 5.71858 1.9305 39.9471 5.71858 1.9305
96 2 39.8216 5.99634 -1.27999 39.8216 5.99634 -1.27999
97 1 40.7553 4.18981 0.158466 40.7553 4.18981 0.158466
98 2 42.5978 4.21725 1.82824 42.5978 4.21725 1.82824
99 2 42.7444 4.28337 -1.5051 42.7444 4.28337 -1.5051
100 1 43.6055 5.88792 0.327559 43.6055 5.88792 0.327559
101 2 45.7226 5.88169 1.85295 45.7226 5.88169 1.85295
102 2 45.361 5.94192 -1.44008 45.361 5.94192 -1.44008
103 1 46.439 4.24649 0.122722 46.439 4.24649 0.122722
104 2 48.3455 4.36561 1.86566 48.3455 4.36561 1.86566
105 2 48.3416 4.12602 -1.36445 48.3416 4.12602 -1.36445
106 1 49.3327 5.83205 0.0935204 49.3327 5.83205 0.0935204
107 2 51.1989 5.97275 1.75348 51.1989 5.97275 1.75348
108 2 51.3457 5.83192 -1.5002 51.3457 5.83192 -1.5002
109 1 52.2036 7.61626 0.140582 0.868774 7.61626 0.140582
110 2 2.65397 7.71104 1.81305 2.65397 7.71104 1.81305
111 2 2.78246 7.47096 -1.40851 2.78246 7.47096 -1.40851
112 1 3.66742 9.24888 0.0864008 3.66742 9.24888 0.0864008
113 2 5.45825 9.26663 1.8324 5.45825 9.26663 1.8324
114 2 5.63828 9.00484 -1.52815 5.63828 9.00484 -1.52815
115 1 6.47262 7.47461 0.319022 6.47262 7.47461 0.319022
116 2 8.48281 7.73721 1.88353 8.48281 7.73721 1.88353
117 2 8.43476 7.35188 -1.3218 8.43476 7.35188 -1.3218
118 1 9.47808 9.19737 0.169716 9.47808 9.19737 0.169716
119 2 11.3695 9.15465 1.966 11.3695 9.15465 1.966
120 2 11.392 9.12024 -1.40522 11.392 9.12024 -1.40522
121 1 12.2977 7.49236 0.333832 12.2977 7.49236 0.333832
122 2 14.2338 7.46396 1.85963 14.2338 7.46396 1.85963
123 2 14.0552 7.4544 -1.46718 14.0552 7.4544 -1.46718
124 1 15.0567 9.11222 0.0662179 15.0567 9.11222 0.0662179
125 2 16.9048 9.34113 1.72618 16.9048 9.34113 1.72618
126 2 17.0396 8.91176 -1.55707 17.0396 8.91176 -1.55707
127 1 17.9108 7.43267 0.264496 17.9108 7.43267 0.264496
128 2 19.7153 7.54203 1.97036 19.7153 7.54203 1.97036
129 2 19.9486 7.40229 -1.28286 19.9486 7.40229 -1.28286
130 1 20.6797 9.13414 0.309528 20.6797 9.13414 0.309528
131 2 22.461 9.31804 1.98568 22.461 9.31804 1.98568
132 2 22.7738 9.01874 -1.25858 22.7738 9.01874 -1.25858
133 1 23.6674 7.56346 0.655113 23.6674 7.56346 0.655113
134 2 25.5816 7.27534 2.32586 25.5816 7.27534 2.32586
135 2 25.4931 7.48524 -1.06787 25.4931 7.48524 -1.06787
136 1 26.5283 9.13885 0.785251 26.5283 9.13885 0.785251
137 2 28.5065 9.27561 2.32407 28.5065 9.27561 2.32407
138 2 28.3558 9.03228 -0.888056 28.3558 9.03228 -0.888056
139 1 29.3973 7.51305 0.722527 29.3973 7.51305 0.722527
140 2 31.3417 7.37888 2.35924 31.3417 7.37888 2.35924
141 2 31.272 7.57926 -0.92153 31.272 7.57926 -0.92153
142 1 32.2477 9.19787 0.824834 32.2477 9.19787 0.824834
143 2 34.2038 9.07128 2.32949 34.2038 9.07128 2.32949
144 2 34.0094 9.27789 -0.907477 34.0094 9.27789 -0.907477
145 1 35.0785 7.53701 0.492506 35.0785 7.53701 0.492506
146 2 37.0175 7.58146 2.04824 37.0175 7.58146 2.04824
147 2 36.9902 7.54423 -1.30351 36.9902 7.54423 -1.30351
148 1 37.8175 9.14038 0.28725 37.8175 9.14038 0.28725
149 2 39.8164 9.23051 1.96434 39.8164 9.23051 1.96434
150 2 39.9085 9.14099 -1.30707 39.9085 9.14099 -1.30707
151 1 40.8608 7.56596 0.393222 40.8608 7.56596 0.393222
152 2 42.8483 7.65528 1.95323 42.8483 7.65528 1.95323
153 2 42.6142 7.58539 -1.34693 42.6142 7.58539 -1.34693
154 1 43.6489 9.20679 0.243414 43.6489 9.20679 0.243414
155 2 45.5762 9.15491 1.88949 45.5762 9.15491 1.88949
156 2 45.4053 9.1803 -1.48896 45.4053 9.1803 -1.48896
157 1 46.5159 7.57099 0.133309 46.5159 7.57099 0.133309
158 2 48.5436 7.47643 1.76707 48.5436 7.47643 1.76707
159 2 48.3595 7.5685 -1.56667 48.3595 7.5685 -1.56667
160 1 49.3935 9.14545 0.0649011 49.3935 9.14545 0.0649011
161 2 51.176 9.23603 1.75597 51.176 9.23603 1.75597
162 2 51.3645 9.17908 -1.53772 51.3645 9.17908 -1.53772
163 1 52.1393 10.8385 0.119992 0.804408 10.8385 0.119992
164 2 2.62572 10.7994 1.84997 2.62572 10.7994 1.84997
165 2 2.8185 10.9027 -1.49177 2.8185 10.9027 -1.49177
166 1 3.72182 12.5423 0.248562 3.72182 12.5423 0.248562
167 2 5.8344 12.5382 1.79401 5.8344 12.5382 1.79401
168 2 5.64017 12.4606 -1.54157 5.64017 12.4606 -1.54157
169 1 6.56015 10.842 0.0699332 6.56015 10.842 0.0699332
170 2 8.46174 10.9428 1.7105 8.46174 10.9428 1.7105
171 2 8.49468 10.7496 -1.53044 8.49468 10.7496 -1.53044
172 1 9.48461 12.4512 0.0289898 9.48461 12.4512 0.0289898
173 2 11.2971 12.5148 1.742 11.2971 12.5148 1.742
174 2 11.3736 12.2637 -1.50897 11.3736 12.2637 -1.50897
175 1 12.2883 10.7332 0.28476 12.2883 10.7332 0.28476
176 2 14.3752 10.9334 1.65359 14.3752 10.9334 1.65359
177 2 14.0653 10.5812 -1.60151 14.0653 10.5812 -1.60151
178 1 15.0932 12.4171 -0.270629 15.0932 12.4171 -0.270629
179 2 17.053 12.554 1.33093 17.053 12.554 1.33093
180 2 17.0152 12.1624 -1.92297 17.0152 12.1624 -1.92297
181 1 17.9384 10.735 -0.123522 17.9384 10.735 -0.123522
182 2 19.6095 10.9538 1.71723 19.6095 10.9538 1.71723
183 2 20.0881 10.6249 -1.6231 20.0881 10.6249 -1.6231
184 1 20.7596 12.4114 -0.007592 20.7596 12.4114 -0.007592
185 2 22.6717 12.7954 1.60597 22.6717 12.7954 1.60597
186 2 22.8782 12.2318 -1.55294 22.8782 12.2318 -1.55294
187 1 23.664 10.8096 0.327398 23.664 10.8096 0.327398
188 2 25.4468 10.9394 2.13376 25.4468 10.9394 2.13376
189 2 25.6892 10.5771 -1.15423 25.6892 10.5771 -1.15423
190 1 26.5407 12.3875 0.327677 26.5407 12.3875 0.327677
191 2 28.3412 12.4182 2.08606 28.3412 12.4182 2.08606
192 2 28.6494 12.3586 -1.224 28.6494 12.3586 -1.224
193 1 29.3725 10.756 0.512377 29.3725 10.756 0.512377
194 2 31.2772 11.0296 2.20605 31.2772 11.0296 2.20605
195 2 31.2641 10.6238 -1.07614 31.2641 10.6238 -1.07614
196 1 32.2072 12.4313 0.377017 32.2072 12.4313 0.377017
197 2 33.938 12.686 2.08016 33.938 12.686 2.08016
198 2 34.0992 12.2172 -1.09106 34.0992 12.2172 -1.09106
199 1 35.0335 10.9001 0.732702 35.0335 10.9001 0.732702
200 2 37.0484 10.7455 2.1348 37.0484 10.7455 2.1348
201 2 36.7354 10.9842 -1.16855 36.7354 10.9842 -1.16855
202 1 38.0058 12.4811 0.444026 38.0058 12.4811 0.444026
203 2 40.0803 12.696 1.95002 40.0803 12.696 1.95002
204 2 39.6698 12.3342 -1.3784 39.6698 12.3342 -1.3784
205 1 40.8484 10.8425 0.368749 40.8484 10.8425 0.368749
206 2 42.8315 10.8988 1.87798 42.8315 10.8988 1.87798
207 2 42.5955 10.7041 -1.39297 42.5955 10.7041 -1.39297
208 1 43.587 12.4306 0.0764202 43.587 12.4306 0.0764202
209 2 45.3414 12.4575 1.78229 45.3414 12.4575 1.78229
210 2 45.6437 12.4542 -1.47837 45.6437 12.4542 -1.47837
211 1 46.46 10.7268 0.181084 46.46 10.7268 0.181084
212 2 48.4641 10.7809 1.83613 48.4641 10.7809 1.83613
213 2 48.3046 10.8566 -1.48174 48.3046 10.8566 -1.48174
214 1 49.3149 12.4409 0.174641 49.3149 12.4409 0.174641
215 2 51.3374 12.3811 1.91057 51.3374 12.3811 1.91057
216 2 51.297 12.6514 -1.37334 51.297 12.6514 -1.37334
217 1 52.1521 14.1331 0.351888 0.817294 14.1331 0.351888
218 2 2.75896 14.2089 1.93973 2.75896 14.2089 1.93973
219 2 2.60802 14.1897 -1.34227 2.60802 14.1897 -1.34227
220 1 3.71719 15.744 0.181962 3.71719 15.744 0.181962
221 2 5.79356 15.7436 1.68949 5.79356 15.7436 1.68949
222 2 5.49452 15.8037 -1.60084 5.49452 15.8037 -1.60084
223 1 6.61715 14.1208 -0.0475194 6.61715 14.1208 -0.0475194
224 2 8.59443 14.253 1.47921 8.59443 14.253 1.47921
225 2 8.54223 13.9677 -1.72199 8.54223 13.9677 -1.72199
226 1 9.43171 15.7513 -0.24416 9.43171 15.7513 -0.24416
227 2 11.1597 15.7646 1.45928 11.1597 15.7646 1.45928
228 2 11.3864 15.5989 -1.81707 11.3864 15.5989 -1.81707
229 1 12.2058 14.0595 -0.0784821 12.2058 14.0595 -0.0784821
230 2 14.2499 14.1813 1.39394 14.2499 14.1813 1.39394
231 2 13.9437 13.9004 -1.86998 13.9437 13.9004 -1.86998
232 1 15.0898 15.7037 -0.581166 15.0898 15.7037 -0.581166
233 2 16.907 15.7688 1.0511 16.907 15.7688 1.0511
234 2 16.9792 15.4445 -2.14178 16.9792 15.4445 -2.14178
235 1 17.9578 14.0154 -0.405517 17.9578 14.0154 -0.405517
236 2 19.7371 14.2816 1.28065 19.7371 14.2816 1.28065
237 2 19.9656 13.8021 -1.89796 19.9656 13.8021 -1.89796
238 1 20.8353 15.6599 -0.376668 20.8353 15.6599 -0.376668
239 2 22.5567 15.8444 1.34143 22.5567 15.8444 1.34143
240 2 22.8221 15.6521 -1.98215 22.8221 15.6521 -1.98215
241 1 23.7697 14.1096 -0.149685 23.7697 14.1096 -0.149685
242 2 25.3849 14.1865 1.75648 25.3849 14.1865 1.75648
243 2 25.8319 14.059 -1.46892 25.8319 14.059 -1.46892
244 1 26.5481 15.8385 0.301645 26.5481 15.8385 0.301645
245 2 28.3569 15.7839 1.99444 28.3569 15.7839 1.99444
246 2 28.425 15.8115 -1.31094 28.425 15.8115 -1.31094
247 1 29.3825 14.1488 0.443828 29.3825 14.1488 0.443828
248 2 31.3179 14.3126 1.92881 31.3179 14.3126 1.92881
249 2 31.0477 14.0911 -1.29277 31.0477 14.0911 -1.29277
250 1 32.1258 15.8608 0.200749 32.1258 15.8608 0.200749
251 2 33.9882 15.925 1.82434 33.9882 15.925 1.82434
252 2 34.14 15.5987 -1.51245 34.14 15.5987 -1.51245
253 1 35.0078 14.0684 0.319664 35.0078 14.0684 0.319664
254 2 36.944 14.2685 1.79159 36.944 14.2685 1.79159
255 2 36.8447 14.0393 -1.3699 36.8447 14.0393 -1.3699
256 1 37.9429 15.7736 0.0400079 37.9429 15.7736 0.0400079
257 2 39.9475 15.8312 1.54469 39.9475 15.8312 1.54469
258 2 39.8126 15.7225 -1.71523 39.8126 15.7225 -1.71523
259 1 40.7961 14.1471 0.00742376 40.7961 14.1471 0.00742376
260 2 42.6142 14.098 1.61996 42.6142 14.098 1.61996
261 2 42.7221 14.087 -1.62819 42.7221 14.087 -1.62819
262 1 43.618 15.7689 0.0564149 43.618 15.7689 0.0564149
263 2 45.5116 15.9096 1.62742 45.5116 15.9096 1.62742
264 2 45.5251 15.6835 -1.50423 45.5251 15.6835 -1.50423
265 1 46.4839 14.071 0.20429 46.4839 14.071 0.20429
266 2 48.3965 14.0106 1.92687 48.3965 14.0106 1.92687
267 2 48.4258 14.2913 -1.28495 48.4258 14.2913 -1.28495
268 1 49.2868 15.7737 0.391804 49.2868 15.7737 0.391804
269 2 51.2584 15.7546 1.99063 51.2584 15.7546 1.99063
270 2 51.1363 15.7632 -1.25486 51.1363 15.7632 -1.25486
271 1 52.0685 17.4214 0.319363 0.733653 17.4214 0.319363
272 2 2.79106 17.6715 1.6618 2.79106 17.6715 1.6618
273 2 2.5645 17.2607 -1.47753 2.5645 17.2607 -1.47753
274 1 3.62626 19.1431 -0.237816 3.62626 19.1431 -0.237816
275 2 5.45554 19.0945 1.53464 5.45554 19.0945 1.53464
276 2 5.6463 19.0865 -1.73285 5.6463 19.0865 -1.73285
277 1 6.57053 17.5127 -0.118465 6.57053 17.5127 -0.118465
278 2 8.56153 17.2586 1.54476 8.56153 17.2586 1.54476
279 2 8.42009 17.6562 -1.73403 8.42009 17.6562 -1.73403
280 1 9.33608 19.1032 0.0677449 9.33608 19.1032 0.0677449
281 2 11.2693 18.969 1.69771 11.2693 18.969 1.69771
282 2 11.1355 19.1533 -1.6242 11.1355 19.1533 -1.6242
283 1 12.2489 17.3981 -0.152144 12.2489 17.3981 -0.152144
284 2 14.2845 17.2882 1.28474 14.2845 17.2882 1.28474
285 2 13.8223 17.4243 -1.99632 13.8223 17.4243 -1.99632
286 1 15.0273 19.0358 -0.400119 15.0273 19.0358 -0.400119
287 2 17.0893 18.8501 1.09628 17.0893 18.8501 1.09628
288 2 16.8267 19.0846 -2.1801 16.8267 19.0846 -2.1801
289 1 17.9062 17.3072 -0.747367 17.9062 17.3072 -0.747367
290 2 19.6637 17.2557 1.09614 19.6637 17.2557 1.09614
291 2 20.0828 17.2324 -2.14909 20.0828 17.2324 -2.14909
292 1 20.7633 18.9947 -0.418913 20.7633 18.9947 -0.418913
293 2 22.5216 18.9175 1.36871 22.5216 18.9175 1.36871
294 2 22.78 19.1663 -1.82105 22.78 19.1663 -1.82105
295 1 23.5923 17.372 -0.356982 23.5923 17.372 -0.356982
296 2 25.182 17.4499 1.63612 25.182 17.4499 1.63612
297 2 25.7507 17.3821 -1.65612 25.7507 17.3821 -1.65612
298 1 26.3773 19.0084 0.18934 26.3773 19.0084 0.18934
299 2 28.2338 19.0258 1.90775 28.2338 19.0258 1.90775
300 2 28.3908 19.0619 -1.46887 28.3908 19.0619 -1.46887
301 1 29.3847 17.4169 0.38281 29.3847 17.4169 0.38281
302 2 31.3594 17.4159 2.00371 31.3594 17.4159 2.00371
303 2 31.1982 17.5159 -1.32605 31.1982 17.5159 -1.32605
304 1 32.2225 19.0609 0.251455 32.2225 19.0609 0.251455
305 2 34.22 18.9595 1.68422 34.22 18.9595 1.68422
306 2 34.0589 18.9265 -1.55218 34.0589 18.9265 -1.55218
307 1 35.0847 17.3498 0.0262629 35.0847 17.3498 0.0262629
308 2 36.9762 17.5627 1.56752 36.9762 17.5627 1.56752
309 2 36.8764 17.3439 -1.65204 36.8764 17.3439 -1.65204
310 1 37.899 19.0831 -0.196009 37.899 19.0831 -0.196009
311 2 39.8759 19.0128 1.37773 39.8759 19.0128 1.37773
312 2 39.7519 19.083 -1.83068 39.7519 19.083 -1.83068
313 1 40.7556 17.4101 -0.223323 40.7556 17.4101 -0.223323
314 2 42.6155 17.5435 1.45454 42.6155 17.5435 1.45454
315 2 42.6077 17.1744 -1.80305 42.6077 17.1744 -1.80305
316 1 43.6356 19.0559 -0.320213 43.6356 19.0559 -0.320213
317 2 45.328 19.0416 1.47712 45.328 19.0416 1.47712
318 2 45.6403 19.0983 -1.79177 45.6403 19.0983 -1.79177
319 1 46.4268 17.3768 -0.0756611 46.4268 17.3768 -0.0756611
320 2 48.0673 17.5177 1.72138 48.0673 17.5177 1.72138
321 2 48.5637 17.3585 -1.42222 48.5637 17.3585 -1.42222
322 1 49.2097 19.0791 0.195729 49.2097 19.0791 0.195729
323 2 51.2608 19.3017 1.72118 51.2608 19.3017 1.72118
324 2 51.0361 18.8137 -1.53215 51.0361 18.8137 -1.53215
325 1 52.1225 20.7346 -0.118997 0.787662 20.7346 -0.118997
326 2 2.6597 20.7346 1.549 2.6597 20.7346 1.549
327 2 2.56983 20.8775 -1.8068 2.56983 20.8775 -1.8068
328 1 3.59083 22.4339 -0.0265639 3.59083 22.4339 -0.0265639
329 2 5.59981 22.5162 1.56814 5.59981 22.5162 1.56814
330 2 5.61665 22.4788 -1.70465 5.61665 22.4788 -1.70465
331 1 6.49198 20.7864 -0.0731889 6.49198 20.7864 -0.0731889
332 2 8.34546 20.5886 1.63655 8.34546 20.5886 1.63655
333 2 8.45732 20.8255 -1.63651 8.45732 20.8255 -1.63651
334 1 9.35102 22.4218 0.157841 9.35102 22.4218 0.157841
335 2 11.2612 22.4548 1.74567 11.2612 22.4548 1.74567
336 2 11.1195 22.3872 -1.58755 11.1195 22.3872 -1.58755
337 1 12.1477 20.7361 0.0693443 12.1477 20.7361 0.0693443
338 2 14.2901 20.6157 1.47705 14.2901 20.6157 1.47705
339 2 13.8511 20.745 -1.76775 13.8511 20.745 -1.76775
340 1 15.0508 22.3295 -0.137051 15.0508 22.3295 -0.137051
341 2 17.1043 22.1796 1.39257 17.1043 22.1796 1.39257
342 2 16.8977 22.563 -1.87433 16.8977 22.563 -1.87433
343 1 17.8567 20.6861 -0.401161 17.8567 20.6861 -0.401161
344 2 19.6789 20.5023 1.39472 19.6789 20.5023 1.39472
345 2 19.8837 20.8991 -1.7957 19.8837 20.8991 -1.7957
346 1 20.8277 22.3368 0.0540113 20.8277 22.3368 0.0540113
347 2 22.7083 22.3372 1.72059 22.7083 22.3372 1.72059
348 2 22.719 22.4358 -1.60801 22.719 22.4358 -1.60801
349 1 23.5961 20.6628 0.00655475 23.5961 20.6628 0.00655475
350 2 25.3566 20.7301 1.75358 25.3566 20.7301 1.75358
351 2 25.5119 20.6208 -1.57797 25.5119 20.6208 -1.57797
352 1 26.4901 22.288 0.105288 26.4901 22.288 0.105288
353 2 28.3222 22.3393 1.84345 28.3222 22.3393 1.84345
354 2 28.4564 22.421 -1.39635 28.4564 22.421 -1.39635
355 1 29.2179 20.6368 0.201904 29.2179 20.6368 0.201904
356 2 31.1042 20.6594 1.89235 31.1042 20.6594 1.89235
357 2 31.1436 20.7175 -1.42449 31.1436 20.7175 -1.42449
358 1 32.1593 22.2391 0.36907 32.1593 22.2391 0.36907
359 2 34.2228 22.1955 1.8803 34.2228 22.1955 1.8803
360 2 34.0911 22.2579 -1.47437 34.0911 22.2579 -1.47437
361 1 35.0836 20.6089 0.0742138 35.0836 20.6089 0.0742138
362 2 36.99 20.7542 1.55445 36.99 20.7542 1.55445
363 2 36.8038 20.6274 -1.77289 36.8038 20.6274 -1.77289
364 1 38.0042 22.3091 -0.155482 38.0042 22.3091 -0.155482
365 2 39.7903 22.1173 1.38416 39.7903 22.1173 1.38416
366 2 39.7709 22.2224 -1.84501 39.7709 22.2224 -1.84501
367 1 40.8091 20.6948 -0.280037 40.8091 20.6948 -0.280037
368 2 42.7521 20.6654 1.32913 42.7521 20.6654 1.32913
369 2 42.7055 20.6898 -1.84423 42.7055 20.6898 -1.84423
370 1 43.5995 22.2948 -0.196686 43.5995 22.2948 -0.196686
371 2 45.5869 22.303 1.40949 45.5869 22.303 1.40949
372 2 45.5311 22.3449 -1.77035 45.5311 22.3449 -1.77035
373 1 46.5403 20.6554 -0.101303 46.5403 20.6554 -0.101303
374 2 48.3165 20.8718 1.62836 48.3165 20.8718 1.62836
375 2 48.505 20.6241 -1.63381 48.505 20.6241 -1.63381
376 1 49.4052 22.3541 -0.130389 49.4052 22.3541 -0.130389
377 2 51.2965 22.5324 1.37711 51.2965 22.5324 1.37711
378 2 51.1171 22.2613 -1.89127 51.1171 22.2613 -1.89127
379 1 52.1613 24.0426 -0.41736 0.826487 24.0426 -0.41736
380 2 2.48631 24.0864 1.45733 2.48631 24.0864 1.45733
381 2 2.86774 24.0309 -1.78738 2.86774 24.0309 -1.78738
382 1 3.63047 25.7542 -0.0525618 3.63047 25.7542 -0.0525618
383 2 5.62914 25.8191 1.43402 5.62914 25.8191 1.43402
384 2 5.43956 25.6942 -1.74582 5.43956 25.6942 -1.74582
385 1 6.47875 24.0796 -0.174071 6.47875 24.0796 -0.174071
386 2 8.34534 24.0958 1.64553 8.34534 24.0958 1.64553
387 2 8.63577 24.0162 -1.64945 8.63577 24.0162 -1.64945
388 1 9.34184 25.7066 0.0809207 9.34184 25.7066 0.0809207
389 2 11.3807 25.5556 1.6214 11.3807 25.5556 1.6214
390 2 11.2054 25.6771 -1.5384 11.2054 25.6771 -1.5384
391 1 12.2722 23.9307 -0.0492477 12.2722 23.9307 -0.0492477
392 2 14.0912 24.0362 1.57927 14.0912 24.0362 1.57927
393 2 14.0461 23.9656 -1.70638 14.0461 23.9656 -1.70638
394 1 15.0868 25.5544 -0.147859 15.0868 25.5544 -0.147859
395 2 16.9908 25.4954 1.64056 16.9908 25.4954 1.64056
396 2 17.0011 25.6874 -1.75139 17.0011 25.6874 -1.75139
397 1 17.9511 23.9566 -0.00948533 17.9511 23.9566 -0.00948533
398 2 19.6844 23.8238 1.73445 19.6844 23.8238 1.73445
399 2 20.0619 24.1275 -1.40915 20.0619 24.1275 -1.40915
400 1 20.7676 25.6534 0.38112 20.7676 25.6534 0.38112
401 2 22.7759 25.5428 1.84021 22.7759 25.5428 1.84021
402 2 22.6166 25.5375 -1.41676 22.6166 25.5375 -1.41676
403 1 23.6795 23.9646 0.182223 23.6795 23.9646 0.182223
404 2 25.499 23.8013 1.87179 25.499 23.8013 1.87179
405 2 25.5814 24.1067 -1.37088 25.5814 24.1067 -1.37088
406 1 26.5361 25.6221 0.344114 26.5361 25.6221 0.344114
407 2 28.4376 25.5729 1.90074 28.4376 25.5729 1.90074
408 2 28.3597 25.5521 -1.27938 28.3597 25.5521 -1.27938
409 1 29.3808 23.9779 0.325253 29.3808 23.9779 0.325253
410 2 31.2175 23.8482 2.03371 31.2175 23.8482 2.03371
411 2 31.3799 23.9537 -1.17872 31.3799 23.9537 -1.17872
412 1 32.2576 25.516 0.491363 32.2576 25.516 0.491363
413 2 34.3064 25.5636 1.93269 34.3064 25.5636 1.93269
414 2 33.9614 25.4701 -1.32089 33.9614 25.4701 -1.32089
415 1 35.071 23.8589 0.156404 35.071 23.8589 0.156404
416 2 37.1785 23.954 1.55947 37.1785 23.954 1.55947
417 2 36.8489 23.8599 -1.65803 36.8489 23.8599 -1.65803
418 1 37.9561 25.5764 -0.178243 37.9561 25.5764 -0.178243
419 2 39.6865 25.5367 1.51877 39.6865 25.5367 1.51877
420 2 39.8936 25.7091 -1.64665 39.8936 25.7091 -1.64665
421 1 40.6936 23.9275 -0.145959 40.6936 23.9275 -0.145959
422 2 42.5471 23.9196 1.52393 42.5471 23.9196 1.52393
423 2 42.74 24.0197 -1.82374 42.74 24.0197 -1.82374
424 1 43.538 25.5957 -0.0920441 43.538 25.5957 -0.0920441
425 2 45.6525 25.5148 1.405 45.6525 25.5148 1.405
426 2 45.3979 25.6188 -1.8546 45.3979 25.6188 -1.8546
427 1 46.4737 23.9866 -0.222517 46.4737 23.9866 -0.222517
428 2 48.3582 24.0159 1.50717 48.3582 24.0159 1.50717
429 2 48.4409 24.03 -1.78684 48.4409 24.03 -1.78684
430 1 49.3157 25.7083 -0.0433629 49.3157 25.7083 -0.0433629
431 2 51.3667 25.7198 1.32767 51.3667 25.7198 1.32767
432 2 50.9331 25.7528 -1.94536 50.9331 25.7528 -1.94536
433 1 52.1201 27.3259 -0.456007 0.785294 27.3259 -0.456007
434 2 2.48512 27.3423 1.53983 2.48512 27.3423 1.53983
435 2 2.86337 27.2424 -1.74743 2.86337 27.2424 -1.74743
436 1 3.6192 28.9953 -0.0925488 3.6192 28.9953 -0.0925488
437 2 5.47273 28.8212 1.47481 5.47273 28.8212 1.47481
438 2 5.52086 29.2742 -1.71015 5.52086 29.2742 -1.71015
439 1 6.53498 27.3631 -0.291523 6.53498 27.3631 -0.291523
440 2 8.12649 27.4034 1.57161 8.12649 27.4034 1.57161
441 2 8.70565 27.4314 -1.7083 8.70565 27.4314 -1.7083
442 1 9.43574 28.9126 0.125281 9.43574 28.9126 0.125281
443 2 11.3798 29.0476 1.65698 11.3798 29.0476 1.65698
444 2 11.3091 28.8755 -1.51521 11.3091 28.8755 -1.51521
445 1 12.3008 27.2507 0.122042 12.3008 27.2507 0.122042
446 2 14.411 27.203 1.58681 14.411 27.203 1.58681
447 2 14.0336 27.1961 -1.72033 14.0336 27.1961 -1.72033
448 1 15.1067 28.8538 -0.115117 15.1067 28.8538 -0.115117
449 2 16.9701 28.9577 1.71667 16.9701 28.9577 1.71667
450 2 17.0723 28.7768 -1.70546 17.0723 28.7768 -1.70546
451 1 17.999 27.2565 0.10465 17.999 27.2565 0.10465
452 2 19.7788 27.3962 1.70747 19.7788 27.3962 1.70747
453 2 19.9512 27.1971 -1.44433 19.9512 27.1971 -1.44433
454 1 20.85 28.9732 0.0184563 20.85 28.9732 0.0184563
455 2 22.622 28.912 1.62363 22.622 28.912 1.62363
456 2 22.7709 28.7904 -1.55254 22.7709 28.7904 -1.55254
457 1 23.6517 27.2994 0.106578 23.6517 27.2994 0.106578
458 2 25.4811 27.3445 1.81839 25.4811 27.3445 1.81839
459 2 25.6582 27.1712 -1.41151 25.6582 27.1712 -1.41151
460 1 26.4835 28.8252 0.171229 26.4835 28.8252 0.171229
461 2 28.3428 28.8612 1.90344 28.3428 28.8612 1.90344
462 2 28.5008 28.8656 -1.41872 28.5008 28.8656 -1.41872
463 1 29.4507 27.2699 0.331636 29.4507 27.2699 0.331636
464 2 31.3654 27.3778 1.96747 31.3654 27.3778 1.96747
465 2 31.2742 27.0915 -1.29444 31.2742 27.0915 -1.29444
466 1 32.2684 28.858 0.193915 32.2684 28.858 0.193915
467 2 34.1556 28.9179 1.75214 34.1556 28.9179 1.75214
468 2 34.104 28.7338 -1.44377 34.104 28.7338 -1.44377
469 1 35.0581 27.2117 0.224545 35.0581 27.2117 0.224545
470 2 37.0729 27.0621 1.68821 37.0729 27.0621 1.68821
471 2 36.9278 27.4013 -1.51954 36.9278 27.4013 -1.51954
472 1 37.8826 28.8627 0.269649 37.8826 28.8627 0.269649
473 2 39.7864 28.8152 1.81389 39.7864 28.8152 1.81389
474 2 39.6873 29.0033 -1.40035 39.6873 29.0033 -1.40035
475 1 40.7471 27.2896 0.0591559 40.7471 27.2896 0.0591559
476 2 42.6253 27.1884 1.74187 42.6253 27.1884 1.74187
477 2 42.5478 27.4502 -1.55624 42.5478 27.4502 -1.55624
478 1 43.6026 28.9347 0.184794 43.6026 28.9347 0.184794
479 2 45.5588 28.7886 1.66786 45.5588 28.7886 1.66786
480 2 45.3583 29.0729 -1.58882 45.3583 29.0729 -1.58882
481 1 46.4662 27.2245 -0.154723 46.4662 27.2245 -0.154723
482 2 48.3054 27.3548 1.47228 48.3054 27.3548 1.47228
483 2 48.4278 27.2775 -1.65261 48.4278 27.2775 -1.65261
484 1 49.3117 28.972 -0.0716162 49.3117 28.972 -0.0716162
485 2 51.3012 28.8293 1.41247 51.3012 28.8293 1.41247
486 2 51.1272 29.1667 -1.83405 51.1272 29.1667 -1.83405
487 1 52.1352 30.6222 -0.0455181 0.80036 30.6222 -0.0455181
488 2 2.70204 30.48 1.68099 2.70204 30.48 1.68099
489 2 2.69974 30.7892 -1.61405 2.69974 30.7892 -1.61405
490 1 3.71527 32.1938 0.230876 3.71527 32.1938 0.230876
491 2 5.62793 32.2426 1.83084 5.62793 32.2426 1.83084
492 2 5.56885 32.418 -1.39128 5.56885 32.418 -1.39128
493 1 6.52706 30.6121 0.100281 6.52706 30.6121 0.100281
494 2 8.28339 30.4337 1.81744 8.28339 30.4337 1.81744
495 2 8.66296 30.762 -1.51892 8.66296 30.762 -1.51892
496 1 9.49992 32.1843 0.308205 9.49992 32.1843 0.308205
497 2 11.4596 32.2626 1.85194 11.4596 32.2626 1.85194
498 2 11.3955 32.4119 -1.44004 11.3955 32.4119 -1.44004
499 1 12.317 30.58 -0.0709211 12.317 30.58 -0.0709211
500 2 14.1425 30.5318 1.50672 14.1425 30.5318 1.50672
501 2 14.1355 30.4694 -1.75041 14.1355 30.4694 -1.75041
502 1 15.0928 32.2474 -0.123894 15.0928 32.2474 -0.123894
503 2 16.9233 32.2928 1.59093 16.9233 32.2928 1.59093
504 2 17.0462 32.2038 -1.60972 17.0462 32.2038 -1.60972
505 1 17.8945 30.5599 0.0370346 17.8945 30.5599 0.0370346
506 2 19.9161 30.6887 1.58127 19.9161 30.6887 1.58127
507 2 20.0062 30.558 -1.49096 20.0062 30.558 -1.49096
508 1 20.8213 32.3425 -0.0283321 20.8213 32.3425 -0.0283321
509 2 22.6464 32.2843 1.61885 22.6464 32.2843 1.61885
510 2 22.7924 32.1612 -1.53239 22.7924 32.1612 -1.53239
511 1 23.7165 30.5841 0.0441387 23.7165 30.5841 0.0441387
512 2 25.6494 30.5586 1.68169 25.6494 30.5586 1.68169
513 2 25.5361 30.4973 -1.61898 25.5361 30.4973 -1.61898
514 1 26.5325 32.2668 0.0624709 26.5325 32.2668 0.0624709
515 2 28.3577 32.25 1.80007 28.3577 32.25 1.80007
516 2 28.5095 32.1256 -1.45659 28.5095 32.1256 -1.45659
517 1 29.2933 30.5384 0.284356 29.2933 30.5384 0.284356
518 2 31.3573 30.3614 1.86746 31.3573 30.3614 1.86746
519 2 31.2528 30.4292 -1.42092 31.2528 30.4292 -1.42092
520 1 32.2456 32.0899 0.200401 32.2456 32.0899 0.200401
521 2 34.2504 32.2127 1.62972 34.2504 32.2127 1.62972
522 2 34.0697 32.0013 -1.62923 34.0697 32.0013 -1.62923
523 1 35.038 30.486 0.0978704 35.038 30.486 0.0978704
524 2 36.87 30.5992 1.73943 36.87 30.5992 1.73943
525 2 36.9745 30.4346 -1.5563 36.9745 30.4346 -1.5563
526 1 37.9222 32.1556 0.0362263 37.9222 32.1556 0.0362263
527 2 39.6482 32.2425 1.87643 39.6482 32.2425 1.87643
528 2 39.8341 32.2421 -1.45645 39.8341 32.2421 -1.45645
529 1 40.7249 30.5865 0.206733 40.7249 30.5865 0.206733
530 2 42.5929 30.6161 1.84454 42.5929 30.6161 1.84454
531 2 42.6956 30.6736 -1.36913 42.6956 30.6736 -1.36913
532 1 43.6994 32.2639 0.245138 43.6994 32.2639 0.245138
533 2 45.6399 32.2327 1.69013 45.6399 32.2327 1.69013
534 2 45.4381 32.2097 -1.54667 45.4381 32.2097 -1.54667
535 1 46.443 30.586 0.0372999 46.443 30.586 0.0372999
536 2 48.5275 30.7687 1.55555 48.5275 30.7687 1.55555
537 2 48.2583 30.6011 -1.66289 48.2583 30.6011 -1.66289
538 1 49.3486 32.3316 -0.160131 49.3486 32.3316 -0.160131
539 2 51.2226 32.2912 1.47777 51.2226 32.2912 1.47777
540 2 51.2717 32.3019 -1.75233 51.2717 32.3019 -1.75233
541 1 52.205 33.9674 -0.129162 0.870126 33.9674 -0.129162