ITEM: TIMESTEP
42600
ITEM: NUMBER OF ATOMS
810
ITEM: BOX BOUNDS pp pp pp
8.4137701477268123e-01 5.2176227985227342e+01
8.0961581116522285e-01 5.0206599188834083e+01
-1.0000000000000000e+01 1.0000000000000000e+01
ITEM: ATOMS id type x y z xu yu zu
1 1 1.26159 0.993816 0.134881 1.26159 0.993816 0.134881
2 2 3.13765 0.760481 1.72488 3.13765 0.760481 1.72488
3 2 3.19075 1.25078 -1.50284 3.19075 1.25078 -1.50284
4 1 4.01953 2.65558 0.373381 4.01953 2.65558 0.373381
5 2 6.04309 2.32199 1.79451 6.04309 2.32199 1.79451
6 2 5.80981 2.92816 -1.33493 5.80981 2.92816 -1.33493
7 1 6.85631 1.05251 -0.142661 6.85631 1.05251 -0.142661
8 2 8.68556 0.836638 1.58126 8.68556 0.836638 1.58126
9 2 8.7999 1.1041 -1.6888 8.7999 1.1041 -1.6888
10 1 9.73114 2.56866 0.146029 9.73114 2.56866 0.146029
11 2 11.5752 2.58314 1.87973 11.5752 2.58314 1.87973
12 2 11.6697 2.5748 -1.40555 11.6697 2.5748 -1.40555
13 1 12.5516 0.888059 0.205493 12.5516 0.888059 0.205493
14 2 14.3076 0.826607 1.85405 14.3076 0.826607 1.85405
15 2 14.4062 1.01465 -1.37653 14.4062 1.01465 -1.37653
16 1 15.316 2.55588 0.310107 15.316 2.55588 0.310107
17 2 17.4736 2.50922 1.68819 17.4736 2.50922 1.68819
18 2 17.0136 2.62167 -1.66796 17.0136 2.62167 -1.66796
19 1 18.2103 0.910298 -0.26699 18.2103 0.910298 -0.26699
20 2 20.1781 1.01392 1.24146 20.1781 1.01392 1.24146
21 2 19.9945 0.940177 -2.1473 19.9945 0.940177 -2.1473
22 1 21.0809 2.58909 -0.498902 21.0809 2.58909 -0.498902
23 2 22.9486 2.67421 1.09027 22.9486 2.67421 1.09027
24 2 23.0062 2.56963 -2.21238 23.0062 2.56963 -2.21238
25 1 23.9721 1.01214 -0.548263 23.9721 1.01214 -0.548263
26 2 26.0093 0.846338 0.865605 26.0093 0.846338 0.865605
27 2 25.7588 1.03257 -2.35057 25.7588 1.03257 -2.35057
28 1 26.7989 2.61294 -0.725638 26.7989 2.61294 -0.725638
29 2 28.7042 2.59302 0.956966 28.7042 2.59302 0.956966
30 2 28.7287 2.63599 -2.34879 28.7287 2.63599 -2.34879
31 1 29.5669 1.00121 -0.688887 29.5669 1.00121 -0.688887
32 2 31.2585 0.930433 1.05324 31.2585 0.930433 1.05324
33 2 31.564 0.996202 -2.2845 31.564 0.996202 -2.2845
34 1 32.3247 2.65315 -0.506429 32.3247 2.65315 -0.506429
35 2 34.2484 2.57862 1.24167 34.2484 2.57862 1.24167
36 2 34.4236 2.53584 -1.95222 34.4236 2.53584 -1.95222
37 1 35.3007 0.905658 -0.370975 35.3007 0.905658 -0.370975
38 2 37.1569 0.845341 1.37062 37.1569 0.845341 1.37062
39 2 37.2524 0.888124 -1.94122 37.2524 0.888124 -1.94122
40 1 38.1066 2.572 -0.264103 38.1066 2.572 -0.264103
41 2 39.7091 2.53823 1.65306 39.7091 2.53823 1.65306
42 2 40.2216 2.60847 -1.55911 40.2216 2.60847 -1.55911
43 1 41.0247 0.894745 0.109087 41.0247 0.894745 0.109087
44 2 43.0456 0.867108 1.73419 43.0456 0.867108 1.73419
45 2 42.7959 1.12442 -1.60797 42.7959 1.12442 -1.60797
46 1 43.911 2.54567 0.0476146 43.911 2.54567 0.0476146
47 2 45.8677 2.43153 1.80226 45.8677 2.43153 1.80226
48 2 45.9682 2.91178 -1.46603 45.9682 2.91178 -1.46603
49 1 46.7685 1.02764 0.0238152 46.7685 1.02764 0.0238152
50 2 48.6049 0.822725 1.6831 48.6049 0.822725 1.6831
51 2 48.6477 1.05265 -1.56666 48.6477 1.05265 -1.56666
52 1 49.6414 2.55561 0.254673 49.6414 2.55561 0.254673
53 2 51.5054 2.38697 1.982 51.5054 2.38697 1.982
54 2 51.6158 2.82965 -1.2553 51.6158 2.82965 -1.2553
55 1 1.11357 4.212 0.536606 1.11357 4.212 0.536606
56 2 3.09827 4.14701 2.12906 3.09827 4.14701 2.12906
57 2 2.97655 4.42429 -1.15375 2.97655 4.42429 -1.15375
58 1 3.93465 5.88432 0.552283 3.93465 5.88432 0.552283
59 2 5.89035 5.95732 2.13148 5.89035 5.95732 2.13148
60 2 5.85203 5.95137 -1.09323 5.85203 5.95137 -1.09323
61 1 6.79267 4.27814 0.497014 6.79267 4.27814 0.497014
62 2 8.85316 4.01349 2.04201 8.85316 4.01349 2.04201
63 2 8.61658 4.34403 -1.21838 8.61658 4.34403 -1.21838
64 1 9.6515 5.83374 0.48538 9.6515 5.83374 0.48538
65 2 11.7104 5.81132 1.99789 11.7104 5.81132 1.99789
66 2 11.6007 5.92352 -1.24345 11.6007 5.92352 -1.24345
67 1 12.4782 4.16646 0.31662 12.4782 4.16646 0.31662
68 2 14.4388 4.29776 1.85938 14.4388 4.29776 1.85938
69 2 14.3676 4.12084 -1.45067 14.3676 4.12084 -1.45067
70 1 15.3361 5.84116 0.062755 15.3361 5.84116 0.062755
71 2 17.4335 6.01088 1.626 17.4335 6.01088 1.626
72 2 17.0744 5.86524 -1.67898 17.0744 5.86524 -1.67898
73 1 18.2448 4.30023 -0.100066 18.2448 4.30023 -0.100066
74 2 20.3379 4.15128 1.26422 20.3379 4.15128 1.26422
75 2 19.8638 4.31328 -2.04076 19.8638 4.31328 -2.04076
76 1 21.1835 5.82491 -0.4229 21.1835 5.82491 -0.4229
77 2 23.1956 5.87109 1.24866 23.1956 5.87109 1.24866
78 2 22.9782 6.02379 -2.06928 22.9782 6.02379 -2.06928
79 1 24.0119 4.20327 -0.530469 24.0119 4.20327 -0.530469
80 2 26.0212 4.13503 1.02053 26.0212 4.13503 1.02053
81 2 25.8352 4.27531 -2.25831 25.8352 4.27531 -2.25831
82 1 26.822 5.94401 -0.649429 26.822 5.94401 -0.649429
83 2 28.5976 5.90603 1.11776 28.5976 5.90603 1.11776
84 2 28.6896 6.09252 -2.14595 28.6896 6.09252 -2.14595
85 1 29.5919 4.31676 -0.60962 29.5919 4.31676 -0.60962
86 2 31.3622 4.26869 1.13173 31.3622 4.26869 1.13173
87 2 31.5574 4.35286 -2.16411 31.5574 4.35286 -2.16411
88 1 32.427 5.92443 -0.383278 32.427 5.92443 -0.383278
89 2 34.2911 5.72511 1.35216 34.2911 5.72511 1.35216
90 2 34.4806 5.97282 -1.91662 34.4806 5.97282 -1.91662
91 1 35.3516 4.24895 -0.39385 35.3516 4.24895 -0.39385
92 2 37.167 4.19083 1.31855 37.167 4.19083 1.31855
93 2 37.2473 4.20529 -1.89397 37.2473 4.20529 -1.89397
94 1 38.1015 5.8415 -0.139622 38.1015 5.8415 -0.139622
95 2 39.7566 5.75942 1.76599 39.7566 5.75942 1.76599
96 2 40.2271 5.93841 -1.56113 40.2271 5.93841 -1.56113
97 1 40.9973 4.17886 0.168232 40.9973 4.17886 0.168232
98 2 42.8698 4.13931 1.80229 42.8698 4.13931 1.80229
99 2 42.9241 4.40503 -1.38026 42.9241 4.40503 -1.38026
100 1 43.7242 5.91778 0.41664 43.7242 5.91778 0.41664
101 2 45.6109 5.91585 2.11781 45.6109 5.91585 2.11781
102 2 45.7105 5.99957 -1.23723 45.7105 5.99957 -1.23723
103 1 46.7681 4.30122 0.420193 46.7681 4.30122 0.420193
104 2 48.5926 4.04637 1.99707 48.5926 4.04637 1.99707
105 2 48.7608 4.34105 -1.2499 48.7608 4.34105 -1.2499
106 1 49.5691 5.88809 0.523537 49.5691 5.88809 0.523537
107 2 51.3654 5.84755 2.21637 51.3654 5.84755 2.21637
108 2 51.3894 5.82198 -1.09544 51.3894 5.82198 -1.09544
109 1 1.03265 7.4802 0.637312 1.03265 7.4802 0.637312
110 2 3.0413 7.43974 2.26504 3.0413 7.43974 2.26504
111 2 3.01849 7.64117 -0.928179 3.01849 7.64117 -0.928179
112 1 3.96734 9.24039 0.749179 3.96734 9.24039 0.749179
113 2 5.93191 9.13194 2.24918 5.93191 9.13194 2.24918
114 2 5.7422 9.2335 -0.937602 5.7422 9.2335 -0.937602
115 1 6.73759 7.56963 0.561187 6.73759 7.56963 0.561187
116 2 8.73764 7.45216 2.18898 8.73764 7.45216 2.18898
117 2 8.79875 7.54331 -1.09547 8.79875 7.54331 -1.09547
118 1 9.6591 9.1515 0.4188 9.6591 9.1515 0.4188
119 2 11.585 9.28358 1.9425 11.585 9.28358 1.9425
120 2 11.4701 8.95169 -1.30673 11.4701 8.95169 -1.30673
121 1 12.537 7.47457 0.360801 12.537 7.47457 0.360801
122 2 14.5448 7.62707 1.57993 14.5448 7.62707 1.57993
123 2 14.1265 7.34959 -1.58774 14.1265 7.34959 -1.58774
124 1 15.4819 9.09179 -0.245863 15.4819 9.09179 -0.245863
125 2 17.4647 9.28253 1.37723 17.4647 9.28253 1.37723
126 2 17.4091 9.0345 -1.87819 17.4091 9.0345 -1.87819
127 1 18.3826 7.4384 -0.192328 18.3826 7.4384 -0.192328
128 2 20.3488 7.42683 1.33391 20.3488 7.42683 1.33391
129 2 20.2659 7.51407 -1.9836 20.2659 7.51407 -1.9836
130 1 21.1398 9.1546 -0.274869 21.1398 9.1546 -0.274869
131 2 23.201 9.13969 1.33762 23.201 9.13969 1.33762
132 2 22.9593 9.2154 -1.93507 22.9593 9.2154 -1.93507
133 1 23.9989 7.50739 -0.388121 23.9989 7.50739 -0.388121
134 2 26.0626 7.58072 1.14754 26.0626 7.58072 1.14754
135 2 25.7899 7.51537 -2.21705 25.7899 7.51537 -2.21705
136 1 26.7694 9.24161 -0.669417 26.7694 9.24161 -0.669417
137 2 28.4745 9.28639 1.20572 28.4745 9.28639 1.20572
138 2 28.8797 9.29976 -2.08793 28.8797 9.29976 -2.08793
139 1 29.6022 7.56702 -0.366698 29.6022 7.56702 -0.366698
140 2 31.5223 7.51267 1.22799 31.5223 7.51267 1.22799
141 2 31.5457 7.52598 -2.01266 31.5457 7.52598 -2.01266
142 1 32.426 9.26375 -0.249578 32.426 9.26375 -0.249578
143 2 34.2918 9.31438 1.45366 34.2918 9.31438 1.45366
144 2 34.4508 9.40127 -1.77254 34.4508 9.40127 -1.77254
145 1 35.2137 7.58616 -0.213904 35.2137 7.58616 -0.213904
146 2 36.9069 7.57002 1.62757 36.9069 7.57002 1.62757
147 2 37.3084 7.71854 -1.57609 37.3084 7.71854 -1.57609
148 1 38.0183 9.24353 0.31287 38.0183 9.24353 0.31287
149 2 39.9813 9.26358 1.87113 39.9813 9.26358 1.87113
150 2 40.0338 9.09182 -1.34645 40.0338 9.09182 -1.34645
151 1 40.9155 7.50518 0.344785 40.9155 7.50518 0.344785
152 2 42.7101 7.67688 2.07628 42.7101 7.67688 2.07628
153 2 43.0086 7.60116 -1.18231 43.0086 7.60116 -1.18231
154 1 43.85 9.28248 0.51612 43.85 9.28248 0.51612
155 2 45.5386 9.09454 2.17853 45.5386 9.09454 2.17853
156 2 45.7707 9.34489 -1.15738 45.7707 9.34489 -1.15738
157 1 46.6341 7.62006 0.502233 46.6341 7.62006 0.502233
158 2 48.6331 7.5758 2.1765 48.6331 7.5758 2.1765
159 2 48.4129 7.58359 -1.1383 48.4129 7.58359 -1.1383
160 1 49.5121 9.27738 0.612976 49.5121 9.27738 0.612976
161 2 51.3166 9.08591 2.33236 51.3166 9.08591 2.33236
162 2 51.5147 9.25352 -0.985913 51.5147 9.25352 -0.985913
163 1 1.04637 10.7746 0.855676 1.04637 10.7746 0.855676
164 2 2.97404 10.9146 2.44755 2.97404 10.9146 2.44755
165 2 2.96277 10.8332 -0.8727 2.96277 10.8332 -0.8727
166 1 3.90023 12.4984 0.721756 3.90023 12.4984 0.721756
167 2 5.92596 12.4998 2.26283 5.92596 12.4998 2.26283
168 2 5.77077 12.3982 -1.04348 5.77077 12.3982 -1.04348
169 1 6.82276 10.9057 0.592456 6.82276 10.9057 0.592456
170 2 8.83357 10.9377 1.95667 8.83357 10.9377 1.95667
171 2 8.47847 10.6597 -1.25383 8.47847 10.6597 -1.25383
172 1 9.71719 12.375 0.181611 9.71719 12.375 0.181611
173 2 11.6874 12.6117 1.60619 11.6874 12.6117 1.60619
174 2 11.5144 12.268 -1.5906 11.5144 12.268 -1.5906
175 1 12.5258 10.7442 0.0708596 12.5258 10.7442 0.0708596
176 2 14.8139 10.8958 1.43222 14.8139 10.8958 1.43222
177 2 14.2108 10.5465 -1.8137 14.2108 10.5465 -1.8137
178 1 15.4026 12.4152 -0.374673 15.4026 12.4152 -0.374673
179 2 17.3284 12.574 1.1617 17.3284 12.574 1.1617
180 2 17.3209 12.341 -2.06184 17.3209 12.341 -2.06184
181 1 18.3084 10.8292 -0.368843 18.3084 10.8292 -0.368843
182 2 20.2691 11.0368 1.15243 20.2691 11.0368 1.15243
183 2 20.0355 10.6779 -2.0368 20.0355 10.6779 -2.0368
184 1 21.0835 12.4637 -0.723499 21.0835 12.4637 -0.723499
185 2 22.8855 12.5976 1.09524 22.8855 12.5976 1.09524
186 2 23.0374 12.2828 -2.18163 23.0374 12.2828 -2.18163
187 1 23.9239 10.8878 -0.33429 23.9239 10.8878 -0.33429
188 2 25.8708 10.8999 1.14294 25.8708 10.8999 1.14294
189 2 25.7219 10.8893 -2.10007 25.7219 10.8893 -2.10007
190 1 26.7958 12.4439 -0.545283 26.7958 12.4439 -0.545283
191 2 28.5753 12.513 1.22892 28.5753 12.513 1.22892
192 2 28.7811 12.3998 -2.07293 28.7811 12.3998 -2.07293
193 1 29.6719 10.8782 -0.322655 29.6719 10.8782 -0.322655
194 2 31.5271 10.894 1.40281 31.5271 10.894 1.40281
195 2 31.5689 10.8201 -2.00146 31.5689 10.8201 -2.00146
196 1 32.4863 12.6014 -0.171586 32.4863 12.6014 -0.171586
197 2 34.2815 12.5452 1.49807 34.2815 12.5452 1.49807
198 2 34.3814 12.6014 -1.71967 34.3814 12.6014 -1.71967
199 1 35.3422 10.9328 -0.0334067 35.3422 10.9328 -0.0334067
200 2 36.9052 11.0037 1.89302 36.9052 11.0037 1.89302
201 2 37.3403 10.9371 -1.45382 37.3403 10.9371 -1.45382
202 1 38.0966 12.5229 0.300013 38.0966 12.5229 0.300013
203 2 40.054 12.477 1.98802 40.054 12.477 1.98802
204 2 40.0513 12.6468 -1.38556 40.0513 12.6468 -1.38556
205 1 40.9665 10.8239 0.161534 40.9665 10.8239 0.161534
206 2 42.6569 10.7274 2.0677 42.6569 10.7274 2.0677
207 2 43.1043 11.1376 -1.07578 43.1043 11.1376 -1.07578
208 1 43.7713 12.5868 0.799733 43.7713 12.5868 0.799733
209 2 45.5819 12.4994 2.44688 45.5819 12.4994 2.44688
210 2 45.658 12.7069 -0.839992 45.658 12.7069 -0.839992
211 1 46.5368 10.8617 0.800486 46.5368 10.8617 0.800486
212 2 48.4709 10.776 2.38056 48.4709 10.776 2.38056
213 2 48.528 11.0354 -0.971114 48.528 11.0354 -0.971114
214 1 49.3935 12.5608 0.910694 49.3935 12.5608 0.910694
215 2 51.3837 12.3884 2.58099 51.3837 12.3884 2.58099
216 2 51.391 12.46 -0.64663 51.391 12.46 -0.64663
217 1 1.0178 14.1616 0.997914 1.0178 14.1616 0.997914
218 2 3.04724 14.125 2.4913 3.04724 14.125 2.4913
219 2 2.86954 14.1803 -0.801316 2.86954 14.1803 -0.801316
220 1 4.01157 15.7729 0.75721 4.01157 15.7729 0.75721
221 2 6.08792 15.7536 2.16905 6.08792 15.7536 2.16905
222 2 5.76646 15.77 -1.01923 5.76646 15.77 -1.01923
223 1 6.86418 14.124 0.552887 6.86418 14.124 0.552887
224 2 8.8828 14.1466 1.96018 8.8828 14.1466 1.96018
225 2 8.44644 14.0249 -1.31854 8.44644 14.0249 -1.31854
226 1 9.65185 15.7214 0.187643 9.65185 15.7214 0.187643
227 2 11.7507 15.7755 1.4757 11.7507 15.7755 1.4757
228 2 11.2081 15.7247 -1.71095 11.2081 15.7247 -1.71095
229 1 12.6001 14.102 -0.206042 12.6001 14.102 -0.206042
230 2 14.5661 14.033 1.32441 14.5661 14.033 1.32441
231 2 14.3515 14.0176 -1.93961 14.3515 14.0176 -1.93961
232 1 15.3315 15.7427 -0.373747 15.3315 15.7427 -0.373747
233 2 17.4784 15.7487 0.987927 17.4784 15.7487 0.987927
234 2 17.0807 15.6948 -2.18544 17.0807 15.6948 -2.18544
235 1 18.2066 14.1045 -0.636486 18.2066 14.1045 -0.636486
236 2 20.248 14.2125 0.982272 20.248 14.2125 0.982272
237 2 20.0881 14.2181 -2.25971 20.0881 14.2181 -2.25971
238 1 21.1355 15.794 -0.610983 21.1355 15.794 -0.610983
239 2 22.9162 15.6805 1.07268 22.9162 15.6805 1.07268
240 2 23.1208 15.8598 -2.21495 23.1208 15.8598 -2.21495
241 1 23.9085 14.0956 -0.618772 23.9085 14.0956 -0.618772
242 2 25.824 13.9088 1.19434 25.824 13.9088 1.19434
243 2 25.955 14.2377 -2.08182 25.955 14.2377 -2.08182
244 1 26.7967 15.6801 -0.267891 26.7967 15.6801 -0.267891
245 2 28.7339 15.6624 1.30994 28.7339 15.6624 1.30994
246 2 28.6987 15.8464 -1.91073 28.6987 15.8464 -1.91073
247 1 29.585 14.1042 -0.41892 29.585 14.1042 -0.41892
248 2 31.2717 14.1189 1.39359 31.2717 14.1189 1.39359
249 2 31.668 14.1215 -1.82233 31.668 14.1215 -1.82233
250 1 32.3943 15.8339 -0.0740799 32.3943 15.8339 -0.0740799
251 2 34.2472 15.7656 1.65792 34.2472 15.7656 1.65792
252 2 34.3322 15.9913 -1.62292 34.3322 15.9913 -1.62292
253 1 35.2847 14.2628 -0.0277025 35.2847 14.2628 -0.0277025
254 2 37.0817 14.3651 1.70095 37.0817 14.3651 1.70095
255 2 37.2629 14.1407 -1.51719 37.2629 14.1407 -1.51719
256 1 38.2007 15.8359 0.00370172 38.2007 15.8359 0.00370172
257 2 39.7632 15.8574 1.86807 39.7632 15.8574 1.86807
258 2 40.2688 15.8853 -1.43665 40.2688 15.8853 -1.43665
259 1 41.04 14.197 0.356594 41.04 14.197 0.356594
260 2 42.8475 14.4287 2.10192 42.8475 14.4287 2.10192
261 2 43.0525 13.9714 -1.07474 43.0525 13.9714 -1.07474
262 1 43.875 15.875 0.370111 43.875 15.875 0.370111
263 2 45.5325 15.9796 2.12987 45.5325 15.9796 2.12987
264 2 45.822 15.7568 -1.03858 45.822 15.7568 -1.03858
265 1 46.6179 14.2313 0.802325 46.6179 14.2313 0.802325
266 2 48.4565 14.4738 2.40634 48.4565 14.4738 2.40634
267 2 48.5317 14.0928 -0.910647 48.5317 14.0928 -0.910647
268 1 49.4558 15.8037 0.555199 49.4558 15.8037 0.555199
269 2 51.3025 16.0229 2.27367 51.3025 16.0229 2.27367
270 2 51.4732 15.6593 -0.93643 51.4732 15.6593 -0.93643
271 1 1.14757 17.3419 0.597546 1.14757 17.3419 0.597546
272 2 3.05385 17.4704 2.25836 3.05385 17.4704 2.25836
273 2 3.03826 17.3162 -1.04933 3.03826 17.3162 -1.04933
274 1 3.93132 19.0878 0.424387 3.93132 19.0878 0.424387
275 2 5.93797 19.1783 1.98269 5.93797 19.1783 1.98269
276 2 5.88316 18.9641 -1.30097 5.88316 18.9641 -1.30097
277 1 6.86156 17.4338 0.446728 6.86156 17.4338 0.446728
278 2 9.00268 17.5953 1.73052 9.00268 17.5953 1.73052
279 2 8.61554 17.1917 -1.46024 8.61554 17.1917 -1.46024
280 1 9.73584 19.0783 -0.124468 9.73584 19.0783 -0.124468
281 2 11.7107 19.122 1.29686 11.7107 19.122 1.29686
282 2 11.4342 19.0239 -1.97006 11.4342 19.0239 -1.97006
283 1 12.4659 17.4074 -0.300334 12.4659 17.4074 -0.300334
284 2 14.4689 17.521 1.15304 14.4689 17.521 1.15304
285 2 14.3057 17.2552 -2.06016 14.3057 17.2552 -2.06016
286 1 15.3595 19.032 -0.694624 15.3595 19.032 -0.694624
287 2 17.3464 19.1528 0.907692 17.3464 19.1528 0.907692
288 2 17.2353 19.1348 -2.39766 17.2353 19.1348 -2.39766
289 1 18.1782 17.4739 -0.654037 18.1782 17.4739 -0.654037
290 2 20.2259 17.5432 0.869134 20.2259 17.5432 0.869134
291 2 20.1346 17.2914 -2.39606 20.1346 17.2914 -2.39606
292 1 21.0942 19.0648 -0.867177 21.0942 19.0648 -0.867177
293 2 22.8003 19.1255 1.02134 22.8003 19.1255 1.02134
294 2 23.2931 19.0302 -2.26294 23.2931 19.0302 -2.26294
295 1 23.8698 17.4373 -0.453152 23.8698 17.4373 -0.453152
296 2 25.6438 17.3593 1.32822 25.6438 17.3593 1.32822
297 2 26.0081 17.4536 -1.94403 26.0081 17.4536 -1.94403
298 1 26.6879 19.0344 -0.0698878 26.6879 19.0344 -0.0698878
299 2 28.5521 19.1454 1.61444 28.5521 19.1454 1.61444
300 2 28.7083 19.1847 -1.73234 28.7083 19.1847 -1.73234
301 1 29.6334 17.5497 -0.0969857 29.6334 17.5497 -0.0969857
302 2 31.3702 17.4653 1.7382 31.3702 17.4653 1.7382
303 2 31.584 17.6129 -1.60004 31.584 17.6129 -1.60004
304 1 32.4671 19.1984 0.232948 32.4671 19.1984 0.232948
305 2 34.3381 19.1028 1.88092 34.3381 19.1028 1.88092
306 2 34.3296 19.121 -1.40302 34.3296 19.121 -1.40302
307 1 35.3105 17.4861 0.152326 35.3105 17.4861 0.152326
308 2 37.2211 17.333 1.79155 37.2211 17.333 1.79155
309 2 37.1838 17.5379 -1.5269 37.1838 17.5379 -1.5269
310 1 38.1866 19.036 0.279285 38.1866 19.036 0.279285
311 2 40.0047 19.0899 2.04176 40.0047 19.0899 2.04176
312 2 40.1385 19.1696 -1.31159 40.1385 19.1696 -1.31159
313 1 41.0605 17.4535 0.339473 41.0605 17.4535 0.339473
314 2 42.842 17.3753 1.99683 42.842 17.3753 1.99683
315 2 42.9961 17.5217 -1.18971 42.9961 17.5217 -1.18971
316 1 43.7718 19.1848 0.556599 43.7718 19.1848 0.556599
317 2 45.6343 19.0668 2.24498 45.6343 19.0668 2.24498
318 2 45.7239 19.253 -0.997546 45.7239 19.253 -0.997546
319 1 46.6607 17.4779 0.542647 46.6607 17.4779 0.542647
320 2 48.5519 17.4598 2.1215 48.5519 17.4598 2.1215
321 2 48.5842 17.3857 -1.10925 48.5842 17.3857 -1.10925
322 1 49.5929 19.0795 0.4997 49.5929 19.0795 0.4997
323 2 51.4205 19.1658 2.07992 51.4205 19.1658 2.07992
324 2 51.4802 18.8448 -1.09315 51.4802 18.8448 -1.09315
325 1 1.09348 20.7348 0.389227 1.09348 20.7348 0.389227
326 2 3.13983 20.8007 1.95324 3.13983 20.8007 1.95324
327 2 2.92881 20.6323 -1.29499 2.92881 20.6323 -1.29499
328 1 3.96008 22.3262 0.193993 3.96008 22.3262 0.193993
329 2 6.03612 22.457 1.66221 6.03612 22.457 1.66221
330 2 5.67715 22.1396 -1.54221 5.67715 22.1396 -1.54221
331 1 6.7994 20.7018 0.135004 6.7994 20.7018 0.135004
332 2 8.92688 20.8253 1.49479 8.92688 20.8253 1.49479
333 2 8.43896 20.5114 -1.70535 8.43896 20.5114 -1.70535
334 1 9.63071 22.3115 -0.462603 9.63071 22.3115 -0.462603
335 2 11.606 22.5542 0.992772 11.606 22.5542 0.992772
336 2 11.3629 22.1504 -2.3038 11.3629 22.1504 -2.3038
337 1 12.4786 20.7171 -0.437189 12.4786 20.7171 -0.437189
338 2 14.6187 20.7263 0.917603 14.6187 20.7263 0.917603
339 2 14.0731 20.6402 -2.30833 14.0731 20.6402 -2.30833
340 1 15.3574 22.3854 -0.880278 15.3574 22.3854 -0.880278
341 2 17.2995 22.5197 0.734392 17.2995 22.5197 0.734392
342 2 17.225 22.3397 -2.48798 17.225 22.3397 -2.48798
343 1 18.1214 20.7787 -0.805641 18.1214 20.7787 -0.805641
344 2 20.1303 20.709 0.71861 20.1303 20.709 0.71861
345 2 20.1774 20.8605 -2.42513 20.1774 20.8605 -2.42513
346 1 21.0683 22.4998 -0.736513 21.0683 22.4998 -0.736513
347 2 22.7855 22.3599 1.04055 22.7855 22.3599 1.04055
348 2 23.1154 22.4865 -2.18863 23.1154 22.4865 -2.18863
349 1 23.8993 20.7041 -0.556494 23.8993 20.7041 -0.556494
350 2 25.6868 20.8491 1.27554 25.6868 20.8491 1.27554
351 2 25.9647 20.5761 -1.94546 25.9647 20.5761 -1.94546
352 1 26.7401 22.3341 -0.450172 26.7401 22.3341 -0.450172
353 2 28.3735 22.4238 1.42848 28.3735 22.4238 1.42848
354 2 28.7865 22.4527 -1.80535 28.7865 22.4527 -1.80535
355 1 29.5863 20.785 -0.0492691 29.5863 20.785 -0.0492691
356 2 31.2653 20.894 1.95859 31.2653 20.894 1.95859
357 2 31.6318 20.8778 -1.41838 31.6318 20.8778 -1.41838
358 1 32.4146 22.3945 0.392653 32.4146 22.3945 0.392653
359 2 34.3392 22.2767 1.96828 34.3392 22.2767 1.96828
360 2 34.2747 22.5676 -1.23708 34.2747 22.5676 -1.23708
361 1 35.3163 20.7854 0.185606 35.3163 20.7854 0.185606
362 2 37.0404 20.535 1.98311 37.0404 20.535 1.98311
363 2 37.3914 20.8457 -1.25069 37.3914 20.8457 -1.25069
364 1 38.0639 22.4201 0.566708 38.0639 22.4201 0.566708
365 2 39.9341 22.2776 2.28222 39.9341 22.2776 2.28222
366 2 39.9735 22.524 -0.999708 39.9735 22.524 -0.999708
367 1 40.9175 20.7685 0.478533 40.9175 20.7685 0.478533
368 2 42.7632 20.8051 2.14123 42.7632 20.8051 2.14123
369 2 42.8201 20.7517 -1.0972 42.8201 20.7517 -1.0972
370 1 43.8467 22.5218 0.519625 43.8467 22.5218 0.519625
371 2 45.6723 22.5667 2.15926 45.6723 22.5667 2.15926
372 2 45.8104 22.2864 -1.13333 45.8104 22.2864 -1.13333
373 1 46.6567 20.7736 0.682986 46.6567 20.7736 0.682986
374 2 48.6772 20.7746 2.21781 48.6772 20.7746 2.21781
375 2 48.5612 20.7832 -1.02793 48.5612 20.7832 -1.02793
376 1 49.5762 22.4127 0.56143 49.5762 22.4127 0.56143
377 2 51.5346 22.4462 2.01142 51.5346 22.4462 2.01142
378 2 51.2413 22.3327 -1.22173 51.2413 22.3327 -1.22173
379 1 1.11436 24.0564 0.198318 1.11436 24.0564 0.198318
380 2 3.085 24.1909 1.78081 3.085 24.1909 1.78081
381 2 2.9565 23.9441 -1.49377 2.9565 23.9441 -1.49377
382 1 4.03124 25.6342 0.0118235 4.03124 25.6342 0.0118235
383 2 6.15053 25.8687 1.34469 6.15053 25.8687 1.34469
384 2 5.50844 25.503 -1.87786 5.50844 25.503 -1.87786
385 1 6.85212 23.999 -0.335525 6.85212 23.999 -0.335525
386 2 8.90409 24.0578 1.14226 8.90409 24.0578 1.14226
387 2 8.62612 23.9295 -2.12267 8.62612 23.9295 -2.12267
388 1 9.61884 25.7368 -0.494742 9.61884 25.7368 -0.494742
389 2 11.7412 25.6762 0.93753 11.7412 25.6762 0.93753
390 2 11.364 25.7413 -2.38173 11.364 25.7413 -2.38173
391 1 12.4795 24.0359 -0.849416 12.4795 24.0359 -0.849416
392 2 14.4017 24.1028 0.734511 14.4017 24.1028 0.734511
393 2 14.3598 23.9848 -2.46121 14.3598 23.9848 -2.46121
394 1 15.3977 25.7284 -0.916239 15.3977 25.7284 -0.916239
395 2 17.401 25.8478 0.502228 17.401 25.8478 0.502228
396 2 17.1262 25.6397 -2.67387 17.1262 25.6397 -2.67387
397 1 18.238 24.0172 -0.97674 18.238 24.0172 -0.97674
398 2 20.0641 24.0935 0.763631 20.0641 24.0935 0.763631
399 2 20.2913 23.954 -2.53058 20.2913 23.954 -2.53058
400 1 21.0575 25.7302 -0.894656 21.0575 25.7302 -0.894656
401 2 22.8336 25.8014 0.890934 22.8336 25.8014 0.890934
402 2 23.2601 25.5796 -2.4074 23.2601 25.5796 -2.4074
403 1 23.9564 24.0541 -0.482708 23.9564 24.0541 -0.482708
404 2 25.7813 24.1277 1.09445 25.7813 24.1277 1.09445
405 2 25.8796 24.0344 -2.17133 25.8796 24.0344 -2.17133
406 1 26.7854 25.6672 -0.470416 26.7854 25.6672 -0.470416
407 2 28.4598 25.7177 1.44764 28.4598 25.7177 1.44764
408 2 28.8957 25.6953 -1.76881 28.8957 25.6953 -1.76881
409 1 29.5289 24.011 -0.071592 29.5289 24.011 -0.071592
410 2 31.2058 24.1225 1.79938 31.2058 24.1225 1.79938
411 2 31.5459 23.9402 -1.45024 31.5459 23.9402 -1.45024
412 1 32.3641 25.6545 0.292564 32.3641 25.6545 0.292564
413 2 34.1836 25.7625 1.99197 34.1836 25.7625 1.99197
414 2 34.4037 25.7013 -1.28634 34.4037 25.7013 -1.28634
415 1 35.2478 24.0657 0.458012 35.2478 24.0657 0.458012
416 2 37.0714 23.9824 2.1576 37.0714 23.9824 2.1576
417 2 37.1554 24.0433 -1.06955 37.1554 24.0433 -1.06955
418 1 37.9769 25.6542 0.573965 37.9769 25.6542 0.573965
419 2 39.9227 25.9318 2.19421 39.9227 25.9318 2.19421
420 2 39.9334 25.5004 -1.12539 39.9334 25.5004 -1.12539
421 1 40.8685 24.0773 0.778862 40.8685 24.0773 0.778862
422 2 42.9765 24.12 2.16405 42.9765 24.12 2.16405
423 2 42.6114 24.1895 -1.12852 42.6114 24.1895 -1.12852
424 1 43.7381 25.7539 0.392446 43.7381 25.7539 0.392446
425 2 45.6842 25.6726 2.05312 45.6842 25.6726 2.05312
426 2 45.7455 25.622 -1.14579 45.7455 25.622 -1.14579
427 1 46.6773 24.0204 0.395912 46.6773 24.0204 0.395912
428 2 48.5062 24.1519 2.0094 48.5062 24.1519 2.0094
429 2 48.6366 23.8949 -1.18716 48.6366 23.8949 -1.18716
430 1 49.5476 25.6173 0.304457 49.5476 25.6173 0.304457
431 2 51.6295 25.7016 1.88143 51.6295 25.7016 1.88143
432 2 51.3949 25.545 -1.41617 51.3949 25.545 -1.41617
433 1 1.05699 27.345 0.125358 1.05699 27.345 0.125358
434 2 3.17565 27.5136 1.59606 3.17565 27.5136 1.59606
435 2 2.77651 27.128 -1.66311 2.77651 27.128 -1.66311
436 1 3.93741 28.9452 -0.438478 3.93741 28.9452 -0.438478
437 2 6.04247 29.2201 0.974853 6.04247 29.2201 0.974853
438 2 5.66442 28.7538 -2.22474 5.66442 28.7538 -2.22474
439 1 6.73138 27.3699 -0.516536 6.73138 27.3699 -0.516536
440 2 8.75339 27.6456 0.971898 8.75339 27.6456 0.971898
441 2 8.57428 27.1412 -2.24665 8.57428 27.1412 -2.24665
442 1 9.60453 28.9621 -0.986512 9.60453 28.9621 -0.986512
443 2 11.4878 29.0286 0.694991 11.4878 29.0286 0.694991
444 2 11.4679 28.9991 -2.5383 11.4679 28.9991 -2.5383
445 1 12.537 27.3348 -0.861735 12.537 27.3348 -0.861735
446 2 14.5442 27.5827 0.666482 14.5442 27.5827 0.666482
447 2 14.4119 27.2402 -2.6283 14.4119 27.2402 -2.6283
448 1 15.3318 29.0558 -1.15447 15.3318 29.0558 -1.15447
449 2 17.2556 29.1205 0.416327 17.2556 29.1205 0.416327
450 2 17.0097 28.9765 -2.92572 17.0097 28.9765 -2.92572
451 1 18.1506 27.3743 -1.26003 18.1506 27.3743 -1.26003
452 2 20.0048 27.349 0.537793 20.0048 27.349 0.537793
453 2 20.293 27.1938 -2.6961 20.293 27.1938 -2.6961
454 1 21.0387 28.9688 -1.1741 21.0387 28.9688 -1.1741
455 2 22.6383 29.0594 0.679619 22.6383 29.0594 0.679619
456 2 23.0482 28.9576 -2.65606 23.0482 28.9576 -2.65606
457 1 23.9406 27.3856 -0.798526 23.9406 27.3856 -0.798526
458 2 25.6546 27.4201 1.07786 25.6546 27.4201 1.07786
459 2 25.9731 27.3517 -2.10882 25.9731 27.3517 -2.10882
460 1 26.7527 28.969 -0.474 26.7527 28.969 -0.474
461 2 28.4118 29.0848 1.36075 28.4118 29.0848 1.36075
462 2 28.8638 28.8895 -1.85904 28.8638 28.8895 -1.85904
463 1 29.5802 27.3395 0.0101412 29.5802 27.3395 0.0101412
464 2 31.24 27.3823 1.81291 31.24 27.3823 1.81291
465 2 31.6615 27.3794 -1.42773 31.6615 27.3794 -1.42773
466 1 32.4348 29.0483 0.328873 32.4348 29.0483 0.328873
467 2 34.3165 29.0624 1.97268 34.3165 29.0624 1.97268
468 2 34.3395 29.0189 -1.31694 34.3395 29.0189 -1.31694
469 1 35.2221 27.4358 0.380088 35.2221 27.4358 0.380088
470 2 36.9316 27.3491 2.13258 36.9316 27.3491 2.13258
471 2 37.0916 27.3175 -1.13771 37.0916 27.3175 -1.13771
472 1 38.1142 29.0205 0.541608 38.1142 29.0205 0.541608
473 2 40.0782 29.1258 2.0729 40.0782 29.1258 2.0729
474 2 39.9165 28.9178 -1.23743 39.9165 28.9178 -1.23743
475 1 40.8983 27.4168 0.388762 40.8983 27.4168 0.388762
476 2 42.9412 27.5702 1.77104 42.9412 27.5702 1.77104
477 2 42.5818 27.2749 -1.35579 42.5818 27.2749 -1.35579
478 1 43.8136 29.0337 -0.0189802 43.8136 29.0337 -0.0189802
479 2 45.5642 29.1347 1.78528 45.5642 29.1347 1.78528
480 2 45.8679 28.7707 -1.47364 45.8679 28.7707 -1.47364
481 1 46.5771 27.3125 0.41499 46.5771 27.3125 0.41499
482 2 48.7016 27.4734 1.7806 48.7016 27.4734 1.7806
483 2 48.4858 27.0267 -1.42557 48.4858 27.0267 -1.42557
484 1 49.5085 28.8788 -0.104202 49.5085 28.8788 -0.104202
485 2 51.4357 29.1604 1.49915 51.4357 29.1604 1.49915
486 2 51.5457 28.5939 -1.63892 51.5457 28.5939 -1.63892
487 1 1.05218 30.6161 -0.307203 1.05218 30.6161 -0.307203
488 2 3.12302 30.9701 1.12955 3.12302 30.9701 1.12955
489 2 2.83875 30.3444 -2.12825 2.83875 30.3444 -2.12825
490 1 3.87269 32.2847 -0.795315 3.87269 32.2847 -0.795315
491 2 5.93683 32.3879 0.639197 5.93683 32.3879 0.639197
492 2 5.76908 32.2152 -2.64469 5.76908 32.2152 -2.64469
493 1 6.74678 30.5638 -1.01994 6.74678 30.5638 -1.01994
494 2 8.65712 30.7569 0.458633 8.65712 30.7569 0.458633
495 2 8.51498 30.3858 -2.85812 8.51498 30.3858 -2.85812
496 1 9.58878 32.3033 -1.35097 9.58878 32.3033 -1.35097
497 2 11.4815 32.3881 0.52042 11.4815 32.3881 0.52042
498 2 11.7074 32.2609 -2.84027 11.7074 32.2609 -2.84027
499 1 12.4178 30.6597 -0.982969 12.4178 30.6597 -0.982969
500 2 14.4618 30.6283 0.528602 14.4618 30.6283 0.528602
501 2 14.1727 30.6675 -2.70083 14.1727 30.6675 -2.70083
502 1 15.3491 32.3089 -1.07599 15.3491 32.3089 -1.07599
503 2 17.3004 32.1375 0.42826 17.3004 32.1375 0.42826
504 2 17.1416 32.4563 -2.8087 17.1416 32.4563 -2.8087
505 1 18.1522 30.6367 -1.45806 18.1522 30.6367 -1.45806
506 2 19.8468 30.5132 0.390775 19.8468 30.5132 0.390775
507 2 20.337 30.7353 -2.81352 20.337 30.7353 -2.81352
508 1 21.0407 32.2736 -1.01555 21.0407 32.2736 -1.01555
509 2 22.904 32.2223 0.67661 22.904 32.2223 0.67661
510 2 22.9985 32.3787 -2.66854 22.9985 32.3787 -2.66854
511 1 23.9484 30.6525 -0.953428 23.9484 30.6525 -0.953428
512 2 25.8292 30.9303 0.76942 25.8292 30.9303 0.76942
513 2 25.9764 30.3559 -2.4223 25.9764 30.3559 -2.4223
514 1 26.7892 32.2446 -0.99192 26.7892 32.2446 -0.99192
515 2 28.4776 32.6185 0.921813 28.4776 32.6185 0.921813
516 2 28.954 32.0195 -2.31317 28.954 32.0195 -2.31317
517 1 29.5447 30.6695 -0.233761 29.5447 30.6695 -0.233761
518 2 31.3111 30.9597 1.62623 31.3111 30.9597 1.62623
519 2 31.6976 30.4401 -1.538 31.6976 30.4401 -1.538
520 1 32.4687 32.3079 -0.152066 32.4687 32.3079 -0.152066
521 2 34.2203 32.5511 1.60545 34.2203 32.5511 1.60545
522 2 34.5782 32.1273 -1.57996 34.5782 32.1273 -1.57996
523 1 35.2988 30.702 0.302957 35.2988 30.702 0.302957
524 2 37.2775 30.9897 1.89395 37.2775 30.9897 1.89395
525 2 37.1631 30.4593 -1.38993 37.1631 30.4593 -1.38993
526 1 38.1418 32.3079 -0.0795117 38.1418 32.3079 -0.0795117
527 2 39.909 32.5412 1.58183 39.909 32.5412 1.58183
528 2 40.1581 32.0758 -1.66223 40.1581 32.0758 -1.66223
529 1 40.9928 30.6336 0.248036 40.9928 30.6336 0.248036
530 2 42.9698 30.7162 1.70735 42.9698 30.7162 1.70735
531 2 42.8297 30.6086 -1.55058 42.8297 30.6086 -1.55058
532 1 43.8905 32.3218 -0.0296789 43.8905 32.3218 -0.0296789
533 2 45.738 32.4551 1.57578 45.738 32.4551 1.57578
534 2 45.6249 32.0695 -1.73379 45.6249 32.0695 -1.73379
535 1 46.6446 30.55 0.0640366 46.6446 30.55 0.0640366
536 2 48.7876 30.5743 1.48573 48.7876 30.5743 1.48573
537 2 48.3556 30.4034 -1.75042 48.3556 30.4034 -1.75042
538 1 49.4757 32.2058 -0.342488 49.4757 32.2058 -0.342488
539 2 51.6136 32.4203 1.1736 51.6136 32.4203 1.1736
540 2 51.345 32.0968 -1.97601 51.345 32.0968 -1.97601