ITEM: TIMESTEP
4400
ITEM: NUMBER OF ATOMS
810
ITEM: BOX BOUNDS pp pp pp
8.4137701477268123e-01 5.2176227985227342e+01
8.0961581116522285e-01 5.0206599188834083e+01
-1.0000000000000000e+01 1.0000000000000000e+01
ITEM: ATOMS id type x y z xu yu zu
1 1 52.0369 50.3814 -0.0907909 0.702003 0.984453 -0.0907909
2 2 2.56447 50.2131 1.58441 2.56447 0.816095 1.58441
3 2 2.74312 50.306 -1.55924 2.74312 0.90905 -1.55924
4 1 3.62952 2.47135 0.16752 3.62952 2.47135 0.16752
5 2 5.45554 2.34517 1.82138 5.45554 2.34517 1.82138
6 2 5.51917 2.74358 -1.39654 5.51917 2.74358 -1.39654
7 1 6.47118 50.2647 0.100951 6.47118 0.86776 0.100951
8 2 8.27724 50.1262 1.90464 8.27724 0.729173 1.90464
9 2 8.57485 50.3524 -1.41717 8.57485 0.955394 -1.41717
10 1 9.28893 2.4841 0.475494 9.28893 2.4841 0.475494
11 2 11.3063 2.31278 2.11666 11.3063 2.31278 2.11666
12 2 11.2464 2.6762 -1.24633 11.2464 2.6762 -1.24633
13 1 12.2179 50.2633 0.271259 12.2179 0.866352 0.271259
14 2 14.1983 50.1629 1.90885 14.1983 0.765965 1.90885
15 2 14.0258 50.2395 -1.35937 14.0258 0.842469 -1.35937
16 1 15.086 2.41472 0.207468 15.086 2.41472 0.207468
17 2 16.9952 2.53027 1.79596 16.9952 2.53027 1.79596
18 2 16.9739 2.46717 -1.4503 16.9739 2.46717 -1.4503
19 1 17.8854 50.171 0.135047 17.8854 0.773977 0.135047
20 2 19.8517 49.9893 1.86262 19.8517 0.59227 1.86262
21 2 19.953 50.2474 -1.34008 19.953 0.850426 -1.34008
22 1 20.8269 2.38304 0.400653 20.8269 2.38304 0.400653
23 2 22.8077 2.49173 1.89022 22.8077 2.49173 1.89022
24 2 22.6927 2.41065 -1.28824 22.6927 2.41065 -1.28824
25 1 23.7912 50.2332 0.396246 23.7912 0.836253 0.396246
26 2 25.8994 50.136 1.75783 25.8994 0.739015 1.75783
27 2 25.4245 50.3737 -1.52161 25.4245 0.97676 -1.52161
28 1 26.5222 2.57505 0.0420318 26.5222 2.57505 0.0420318
29 2 28.3881 2.36706 1.62848 28.3881 2.36706 1.62848
30 2 28.3121 2.76231 -1.64008 28.3121 2.76231 -1.64008
31 1 29.4037 50.3192 -0.186239 29.4037 0.92222 -0.186239
32 2 31.2236 50.1244 1.51776 31.2236 0.727384 1.51776
33 2 31.2899 50.446 -1.7176 31.2899 1.04902 -1.7176
34 1 32.1752 2.5698 0.0312254 32.1752 2.5698 0.0312254
35 2 33.8399 2.48668 1.81968 33.8399 2.48668 1.81968
36 2 34.1597 2.62884 -1.47828 34.1597 2.62884 -1.47828
37 1 35.0122 50.3593 0.170269 35.0122 0.962363 0.170269
38 2 37.0263 50.3045 1.82964 37.0263 0.907501 1.82964
39 2 36.9195 50.2745 -1.49109 36.9195 0.877539 -1.49109
40 1 37.8205 2.60187 0.133123 37.8205 2.60187 0.133123
41 2 39.7607 2.58709 1.70149 39.7607 2.58709 1.70149
42 2 39.756 2.4714 -1.42534 39.756 2.4714 -1.42534
43 1 40.7346 50.2311 0.165645 40.7346 0.834092 0.165645
44 2 42.5997 50.025 1.70378 42.5997 0.628014 1.70378
45 2 42.7239 50.466 -1.44005 42.7239 1.06903 -1.44005
46 1 43.5453 2.52533 0.388401 43.5453 2.52533 0.388401
47 2 45.4872 2.36228 1.93125 45.4872 2.36228 1.93125
48 2 45.3416 2.85016 -1.2486 45.3416 2.85016 -1.2486
49 1 46.4088 50.353 0.182535 46.4088 0.956026 0.182535
50 2 48.2684 50.2822 1.75906 48.2684 0.885214 1.75906
51 2 48.2307 50.1265 -1.43209 48.2307 0.729508 -1.43209
52 1 49.2287 2.5034 0.124821 49.2287 2.5034 0.124821
53 2 51.1078 2.45056 1.74632 51.1078 2.45056 1.74632
54 2 51.0075 2.82686 -1.52236 51.0075 2.82686 -1.52236
55 1 52.0671 4.16601 0.344457 0.732279 4.16601 0.344457
56 2 2.69934 3.97255 1.8942 2.69934 3.97255 1.8942
57 2 2.67587 4.30308 -1.27118 2.67587 4.30308 -1.27118
58 1 3.60217 5.80438 0.456434 3.60217 5.80438 0.456434
59 2 5.60669 5.74088 2.0777 5.60669 5.74088 2.0777
60 2 5.47757 5.73008 -1.20065 5.47757 5.73008 -1.20065
61 1 6.47957 4.17581 0.358308 6.47957 4.17581 0.358308
62 2 8.4298 4.28765 2.08086 8.4298 4.28765 2.08086
63 2 8.45586 4.10812 -1.29482 8.45586 4.10812 -1.29482
64 1 9.39143 5.84276 0.329521 9.39143 5.84276 0.329521
65 2 11.1452 5.97017 2.03934 11.1452 5.97017 2.03934
66 2 11.2258 5.68009 -1.2882 11.2258 5.68009 -1.2882
67 1 12.1771 4.10239 0.503361 12.1771 4.10239 0.503361
68 2 14.2479 3.90762 1.98131 14.2479 3.90762 1.98131
69 2 13.9458 4.14839 -1.26329 13.9458 4.14839 -1.26329
70 1 15.021 5.7432 0.377929 15.021 5.7432 0.377929
71 2 17.098 5.80304 1.81649 17.098 5.80304 1.81649
72 2 16.669 5.67724 -1.33182 16.669 5.67724 -1.33182
73 1 17.9266 4.04212 0.175702 17.9266 4.04212 0.175702
74 2 19.723 4.30261 1.82803 19.723 4.30261 1.82803
75 2 19.9482 3.9794 -1.34344 19.9482 3.9794 -1.34344
76 1 20.7838 5.73126 0.139722 20.7838 5.73126 0.139722
77 2 22.5081 5.62161 1.89279 22.5081 5.62161 1.89279
78 2 22.6748 5.8623 -1.38833 22.6748 5.8623 -1.38833
79 1 23.6566 4.09731 0.147242 23.6566 4.09731 0.147242
80 2 25.3489 3.97669 1.8351 25.3489 3.97669 1.8351
81 2 25.6484 4.40642 -1.44962 25.6484 4.40642 -1.44962
82 1 26.3915 5.87787 0.525144 26.3915 5.87787 0.525144
83 2 28.496 5.94644 2.06962 28.496 5.94644 2.06962
84 2 28.23 5.93101 -1.25371 28.23 5.93101 -1.25371
85 1 29.3038 4.20622 0.241563 29.3038 4.20622 0.241563
86 2 31.2393 4.07427 1.76815 31.2393 4.07427 1.76815
87 2 31.1143 4.27563 -1.43108 31.1143 4.27563 -1.43108
88 1 32.1386 5.91818 0.233131 32.1386 5.91818 0.233131
89 2 34.0246 5.90277 1.96989 34.0246 5.90277 1.96989
90 2 34.0808 5.8709 -1.33049 34.0808 5.8709 -1.33049
91 1 34.961 4.23085 0.291988 34.961 4.23085 0.291988
92 2 37.0749 4.24961 1.89028 37.0749 4.24961 1.89028
93 2 36.8225 4.29624 -1.43029 36.8225 4.29624 -1.43029
94 1 37.8073 5.85913 0.110042 37.8073 5.85913 0.110042
95 2 39.8008 5.72348 1.80653 39.8008 5.72348 1.80653
96 2 39.709 6.00657 -1.48788 39.709 6.00657 -1.48788
97 1 40.7216 4.14611 0.0588363 40.7216 4.14611 0.0588363
98 2 42.4122 4.08395 1.88056 42.4122 4.08395 1.88056
99 2 42.6546 4.22318 -1.37677 42.6546 4.22318 -1.37677
100 1 43.5348 5.9062 0.344447 43.5348 5.9062 0.344447
101 2 45.3622 6.01346 2.01341 45.3622 6.01346 2.01341
102 2 45.4341 5.75667 -1.38895 45.4341 5.75667 -1.38895
103 1 46.3367 4.26133 0.488635 46.3367 4.26133 0.488635
104 2 48.4153 4.11538 1.98355 48.4153 4.11538 1.98355
105 2 48.1711 4.38806 -1.2771 48.1711 4.38806 -1.2771
106 1 49.1689 5.95042 0.405637 49.1689 5.95042 0.405637
107 2 51.1421 5.82031 1.97026 51.1421 5.82031 1.97026
108 2 50.9756 5.82767 -1.27998 50.9756 5.82767 -1.27998
109 1 52.0345 7.43519 0.401622 0.699655 7.43519 0.401622
110 2 2.59882 7.6141 1.93622 2.59882 7.6141 1.93622
111 2 2.52518 7.33487 -1.27157 2.52518 7.33487 -1.27157
112 1 3.58522 9.11385 0.130098 3.58522 9.11385 0.130098
113 2 5.52688 9.27073 1.76852 5.52688 9.27073 1.76852
114 2 5.46327 8.83795 -1.50168 5.46327 8.83795 -1.50168
115 1 6.51715 7.4569 0.387889 6.51715 7.4569 0.387889
116 2 8.54247 7.59345 1.92561 8.54247 7.59345 1.92561
117 2 8.31879 7.44698 -1.32118 8.31879 7.44698 -1.32118
118 1 9.4219 9.19888 0.18153 9.4219 9.19888 0.18153
119 2 11.4235 9.40303 1.67441 11.4235 9.40303 1.67441
120 2 11.0806 8.89248 -1.52109 11.0806 8.89248 -1.52109
121 1 12.0802 7.44765 0.232259 12.0802 7.44765 0.232259
122 2 14.0869 7.64002 1.76567 14.0869 7.64002 1.76567
123 2 14.0409 7.19862 -1.42997 14.0409 7.19862 -1.42997
124 1 15.0607 9.05678 -0.0614372 15.0607 9.05678 -0.0614372
125 2 16.9099 9.08835 1.56349 16.9099 9.08835 1.56349
126 2 16.8612 8.87113 -1.77705 16.8612 8.87113 -1.77705
127 1 17.923 7.40639 0.0268742 17.923 7.40639 0.0268742
128 2 19.8352 7.43784 1.66807 19.8352 7.43784 1.66807
129 2 19.8794 7.41489 -1.58013 19.8794 7.41489 -1.58013
130 1 20.7762 9.13002 0.0577258 20.7762 9.13002 0.0577258
131 2 22.4629 9.25048 1.83016 22.4629 9.25048 1.83016
132 2 22.8883 9.09944 -1.39861 22.8883 9.09944 -1.39861
133 1 23.5673 7.50238 0.420013 23.5673 7.50238 0.420013
134 2 25.5159 7.59379 2.02549 25.5159 7.59379 2.02549
135 2 25.443 7.45117 -1.2565 25.443 7.45117 -1.2565
136 1 26.4068 9.18577 0.347316 26.4068 9.18577 0.347316
137 2 28.2912 9.16814 2.03891 28.2912 9.16814 2.03891
138 2 28.3364 9.26971 -1.18968 28.3364 9.26971 -1.18968
139 1 29.3157 7.5725 0.351842 29.3157 7.5725 0.351842
140 2 31.2486 7.28406 2.00684 31.2486 7.28406 2.00684
141 2 31.377 7.7073 -1.26723 31.377 7.7073 -1.26723
142 1 32.1944 9.19284 0.519016 32.1944 9.19284 0.519016
143 2 34.1847 9.09422 2.15218 34.1847 9.09422 2.15218
144 2 34.0773 9.16899 -1.15766 34.0773 9.16899 -1.15766
145 1 34.9778 7.48434 0.377781 34.9778 7.48434 0.377781
146 2 36.9506 7.33077 2.00403 36.9506 7.33077 2.00403
147 2 36.955 7.80778 -1.24471 36.955 7.80778 -1.24471
148 1 37.903 9.23315 0.649414 37.903 9.23315 0.649414
149 2 39.9924 9.01885 2.11239 39.9924 9.01885 2.11239
150 2 39.7387 9.38957 -1.19568 39.7387 9.38957 -1.19568
151 1 40.6468 7.45999 0.290173 40.6468 7.45999 0.290173
152 2 42.5947 7.4269 2.00775 42.5947 7.4269 2.00775
153 2 42.561 7.5773 -1.28137 42.561 7.5773 -1.28137
154 1 43.5725 9.13943 0.511817 43.5725 9.13943 0.511817
155 2 45.5668 9.15618 2.00626 45.5668 9.15618 2.00626
156 2 45.3078 9.18799 -1.15802 45.3078 9.18799 -1.15802
157 1 46.3629 7.50829 0.253962 46.3629 7.50829 0.253962
158 2 48.1431 7.50356 1.96467 48.1431 7.50356 1.96467
159 2 48.3106 7.47218 -1.33716 48.3106 7.47218 -1.33716
160 1 49.2268 9.17601 0.258038 49.2268 9.17601 0.258038
161 2 51.1845 9.3042 1.88558 51.1845 9.3042 1.88558
162 2 51.1056 8.96918 -1.36385 51.1056 8.96918 -1.36385
163 1 52.0887 10.742 0.0264868 0.753841 10.742 0.0264868
164 2 2.65417 10.8621 1.6145 2.65417 10.8621 1.6145
165 2 2.56268 10.6363 -1.57226 2.56268 10.6363 -1.57226
166 1 3.64717 12.4519 -0.212991 3.64717 12.4519 -0.212991
167 2 5.49151 12.4306 1.49686 5.49151 12.4306 1.49686
168 2 5.51011 12.4995 -1.74112 5.51011 12.4995 -1.74112
169 1 6.4461 10.7553 -0.0926513 6.4461 10.7553 -0.0926513
170 2 8.32128 10.921 1.57179 8.32128 10.921 1.57179
171 2 8.52621 10.6187 -1.63066 8.52621 10.6187 -1.63066
172 1 9.35274 12.4549 -0.121236 9.35274 12.4549 -0.121236
173 2 11.4374 12.4728 1.39542 11.4374 12.4728 1.39542
174 2 11.1046 12.3477 -1.97766 11.1046 12.3477 -1.97766
175 1 12.3107 10.7135 -0.22271 12.3107 10.7135 -0.22271
176 2 14.2055 10.8632 1.3824 14.2055 10.8632 1.3824
177 2 14.2474 10.6136 -1.84286 14.2474 10.6136 -1.84286
178 1 15.1312 12.3981 -0.346469 15.1312 12.3981 -0.346469
179 2 17.0083 12.5404 1.44601 17.0083 12.5404 1.44601
180 2 17.1702 12.3237 -1.87851 17.1702 12.3237 -1.87851
181 1 17.8986 10.7084 -0.208965 17.8986 10.7084 -0.208965
182 2 19.5843 10.7655 1.56761 19.5843 10.7655 1.56761
183 2 20.0404 10.6514 -1.73381 20.0404 10.6514 -1.73381
184 1 20.7959 12.393 -0.0971944 20.7959 12.393 -0.0971944
185 2 22.5268 12.6063 1.81812 22.5268 12.6063 1.81812
186 2 22.8467 12.3219 -1.46705 22.8467 12.3219 -1.46705
187 1 23.6284 10.8091 0.340417 23.6284 10.8091 0.340417
188 2 25.5102 10.8565 1.91506 25.5102 10.8565 1.91506
189 2 25.5079 10.7228 -1.37611 25.5079 10.7228 -1.37611
190 1 26.5118 12.4782 0.179668 26.5118 12.4782 0.179668
191 2 28.2693 12.5043 2.00646 28.2693 12.5043 2.00646
192 2 28.4399 12.5596 -1.40109 28.4399 12.5596 -1.40109
193 1 29.2431 10.8425 0.374256 29.2431 10.8425 0.374256
194 2 31.1489 10.9789 2.00233 31.1489 10.9789 2.00233
195 2 31.2003 10.6216 -1.25242 31.2003 10.6216 -1.25242
196 1 32.1722 12.3535 0.171182 32.1722 12.3535 0.171182
197 2 33.9666 12.36 2.04126 33.9666 12.36 2.04126
198 2 34.2533 12.4596 -1.26842 34.2533 12.4596 -1.26842
199 1 35.1155 10.714 0.510638 35.1155 10.714 0.510638
200 2 36.8928 10.9152 2.22947 36.8928 10.9152 2.22947
201 2 37.0635 10.7003 -1.11853 37.0635 10.7003 -1.11853
202 1 37.9488 12.5354 0.482176 37.9488 12.5354 0.482176
203 2 39.8835 12.5748 2.04925 39.8835 12.5748 2.04925
204 2 39.8796 12.3809 -1.1929 39.8796 12.3809 -1.1929
205 1 40.8668 10.8109 0.502884 40.8668 10.8109 0.502884
206 2 42.8061 11.0576 2.09038 42.8061 11.0576 2.09038
207 2 42.6229 10.769 -1.21819 42.6229 10.769 -1.21819
208 1 43.5753 12.4975 0.283169 43.5753 12.4975 0.283169
209 2 45.4482 12.474 1.95494 45.4482 12.474 1.95494
210 2 45.4914 12.4587 -1.38575 45.4914 12.4587 -1.38575
211 1 46.4061 10.7777 0.297369 46.4061 10.7777 0.297369
212 2 48.3916 10.861 1.89105 48.3916 10.861 1.89105
213 2 48.2126 10.7419 -1.41217 48.2126 10.7419 -1.41217
214 1 49.2832 12.4626 0.11857 49.2832 12.4626 0.11857
215 2 51.2986 12.4065 1.61186 51.2986 12.4065 1.61186
216 2 51.1838 12.4534 -1.51349 51.1838 12.4534 -1.51349
217 1 52.1757 14.1782 0.0388929 0.840875 14.1782 0.0388929
218 2 2.6915 13.9665 1.53564 2.6915 13.9665 1.53564
219 2 2.65554 14.2106 -1.66604 2.65554 14.2106 -1.66604
220 1 3.7165 15.763 0.0560486 3.7165 15.763 0.0560486
221 2 5.74887 15.7216 1.5808 5.74887 15.7216 1.5808
222 2 5.5021 15.7477 -1.67479 5.5021 15.7477 -1.67479
223 1 6.50802 14.0918 -0.0708253 6.50802 14.0918 -0.0708253
224 2 8.62146 14.2872 1.35118 8.62146 14.2872 1.35118
225 2 8.2239 13.9865 -1.96985 8.2239 13.9865 -1.96985
226 1 9.38907 15.7058 -0.555694 9.38907 15.7058 -0.555694
227 2 11.257 15.8502 0.933545 11.257 15.8502 0.933545
228 2 11.185 15.5413 -2.29521 11.185 15.5413 -2.29521
229 1 12.2741 14.1161 -0.517402 12.2741 14.1161 -0.517402
230 2 14.1095 14.0822 1.23141 14.1095 14.0822 1.23141
231 2 14.2318 14.0952 -2.11365 14.2318 14.0952 -2.11365
232 1 15.0525 15.6044 -0.464722 15.0525 15.6044 -0.464722
233 2 16.8947 15.7297 1.38417 16.8947 15.7297 1.38417
234 2 17.1725 15.7367 -1.8571 17.1725 15.7367 -1.8571
235 1 17.9848 14.0852 -0.164597 17.9848 14.0852 -0.164597
236 2 19.8149 14.1571 1.49992 19.8149 14.1571 1.49992
237 2 19.9743 13.9785 -1.80297 19.9743 13.9785 -1.80297
238 1 20.7805 15.6979 -0.178168 20.7805 15.6979 -0.178168
239 2 22.607 15.6603 1.63617 22.607 15.6603 1.63617
240 2 22.8042 15.726 -1.65747 22.8042 15.726 -1.65747
241 1 23.6478 14.1644 -0.00966809 23.6478 14.1644 -0.00966809
242 2 25.3881 13.9015 1.80141 25.3881 13.9015 1.80141
243 2 25.7389 14.3014 -1.41582 25.7389 14.3014 -1.41582
244 1 26.4876 15.7396 0.474879 26.4876 15.7396 0.474879
245 2 28.4567 15.7273 2.0812 28.4567 15.7273 2.0812
246 2 28.3522 15.6462 -1.20248 28.3522 15.6462 -1.20248
247 1 29.366 14.0284 0.49419 29.366 14.0284 0.49419
248 2 31.3817 14.0379 2.05003 31.3817 14.0379 2.05003
249 2 31.0698 14.1485 -1.32784 31.0698 14.1485 -1.32784
250 1 32.1319 15.7019 0.315543 32.1319 15.7019 0.315543
251 2 33.9625 15.9736 1.98573 33.9625 15.9736 1.98573
252 2 34.1268 15.5306 -1.21781 34.1268 15.5306 -1.21781
253 1 35.0981 14.1238 0.565532 35.0981 14.1238 0.565532
254 2 37.093 14.2425 2.09504 37.093 14.2425 2.09504
255 2 36.9502 14.0806 -1.24217 36.9502 14.0806 -1.24217
256 1 37.8427 15.7698 0.274133 37.8427 15.7698 0.274133
257 2 39.7412 15.9001 1.93306 39.7412 15.9001 1.93306
258 2 39.7351 15.7074 -1.37169 39.7351 15.7074 -1.37169
259 1 40.6888 14.2039 0.325035 40.6888 14.2039 0.325035
260 2 42.7035 14.2362 1.90534 42.7035 14.2362 1.90534
261 2 42.5429 14.1044 -1.28683 42.5429 14.1044 -1.28683
262 1 43.5339 15.847 0.240711 43.5339 15.847 0.240711
263 2 45.4127 15.8332 1.79186 45.4127 15.8332 1.79186
264 2 45.4385 15.5775 -1.43974 45.4385 15.5775 -1.43974
265 1 46.384 14.1019 0.227429 46.384 14.1019 0.227429
266 2 48.3869 14.2477 1.76032 48.3869 14.2477 1.76032
267 2 48.2047 14.1052 -1.50842 48.2047 14.1052 -1.50842
268 1 49.255 15.8211 0.0245485 49.255 15.8211 0.0245485
269 2 51.0631 15.722 1.61263 51.0631 15.722 1.61263
270 2 51.1736 15.8956 -1.626 51.1736 15.8956 -1.626
271 1 52.1409 17.4226 0.00490295 0.806037 17.4226 0.00490295
272 2 2.56046 17.3037 1.68354 2.56046 17.3037 1.68354
273 2 2.77597 17.4084 -1.56113 2.77597 17.4084 -1.56113
274 1 3.57101 19.0307 0.148584 3.57101 19.0307 0.148584
275 2 5.52973 18.882 1.71404 5.52973 18.882 1.71404
276 2 5.45937 19.1806 -1.5571 5.45937 19.1806 -1.5571
277 1 6.44452 17.3547 -0.104573 6.44452 17.3547 -0.104573
278 2 8.59324 17.3548 1.22685 8.59324 17.3548 1.22685
279 2 8.08201 17.4389 -1.97599 8.08201 17.4389 -1.97599
280 1 9.31417 19.0521 -0.483317 9.31417 19.0521 -0.483317
281 2 11.2893 18.862 1.00704 11.2893 18.862 1.00704
282 2 11.066 19.3204 -2.23554 11.066 19.3204 -2.23554
283 1 12.227 17.3351 -0.827326 12.227 17.3351 -0.827326
284 2 13.945 17.2511 0.998199 13.945 17.2511 0.998199
285 2 14.2651 17.3451 -2.24301 14.2651 17.3451 -2.24301
286 1 15.0738 18.9591 -0.462614 15.0738 18.9591 -0.462614
287 2 16.7158 18.9568 1.47071 16.7158 18.9568 1.47071
288 2 17.1404 18.9798 -1.86218 17.1404 18.9798 -1.86218
289 1 17.9112 17.3893 -0.166237 17.9112 17.3893 -0.166237
290 2 19.8664 17.3336 1.49424 19.8664 17.3336 1.49424
291 2 19.9116 17.5089 -1.69835 19.9116 17.5089 -1.69835
292 1 20.8609 19.0578 0.0232854 20.8609 19.0578 0.0232854
293 2 22.6245 18.9312 1.78614 22.6245 18.9312 1.78614
294 2 22.7516 19.0938 -1.46299 22.7516 19.0938 -1.46299
295 1 23.6632 17.3409 0.131647 23.6632 17.3409 0.131647
296 2 25.3568 17.4252 1.92586 25.3568 17.4252 1.92586
297 2 25.642 17.385 -1.33781 25.642 17.385 -1.33781
298 1 26.4635 19.0171 0.326549 26.4635 19.0171 0.326549
299 2 28.3435 18.9821 2.05791 28.3435 18.9821 2.05791
300 2 28.5058 19.1515 -1.27754 28.5058 19.1515 -1.27754
301 1 29.3576 17.3674 0.357838 29.3576 17.3674 0.357838
302 2 31.271 17.3899 1.99881 31.271 17.3899 1.99881
303 2 31.2195 17.4813 -1.24309 31.2195 17.4813 -1.24309
304 1 32.2208 19.0926 0.505608 32.2208 19.0926 0.505608
305 2 34.3647 19.2055 1.84341 34.3647 19.2055 1.84341
306 2 33.8108 19.0064 -1.4084 33.8108 19.0064 -1.4084
307 1 34.9142 17.409 0.257904 34.9142 17.409 0.257904
308 2 36.9923 17.5565 1.71057 36.9923 17.5565 1.71057
309 2 36.721 17.2608 -1.49486 36.721 17.2608 -1.49486
310 1 37.829 19.1136 -0.0948622 37.829 19.1136 -0.0948622
311 2 39.6308 19.395 1.57931 39.6308 19.395 1.57931
312 2 39.8054 18.9689 -1.70549 39.8054 18.9689 -1.70549
313 1 40.7462 17.5187 0.217341 40.7462 17.5187 0.217341
314 2 42.6576 17.5722 1.80633 42.6576 17.5722 1.80633
315 2 42.6579 17.3627 -1.46395 42.6579 17.3627 -1.46395
316 1 43.6458 19.1225 -0.0117254 43.6458 19.1225 -0.0117254
317 2 45.476 19.2853 1.60819 45.476 19.2853 1.60819
318 2 45.4656 18.8643 -1.70855 45.4656 18.8643 -1.70855
319 1 46.4148 17.4378 0.0923384 46.4148 17.4378 0.0923384
320 2 48.48 17.6105 1.60539 48.48 17.6105 1.60539
321 2 48.2277 17.3154 -1.70781 48.2277 17.3154 -1.70781
322 1 49.266 19.0745 -0.285738 49.266 19.0745 -0.285738
323 2 51.0147 19.1401 1.6052 51.0147 19.1401 1.6052
324 2 51.3902 19.1209 -1.70583 51.3902 19.1209 -1.70583
325 1 52.0652 20.7387 0.066568 0.730348 20.7387 0.066568
326 2 2.51121 20.5995 1.76948 2.51121 20.5995 1.76948
327 2 2.84149 20.8295 -1.45274 2.84149 20.8295 -1.45274
328 1 3.64239 22.364 0.301117 3.64239 22.364 0.301117
329 2 5.50176 22.2113 1.89354 5.50176 22.2113 1.89354
330 2 5.60966 22.2649 -1.43262 5.60966 22.2649 -1.43262
331 1 6.49001 20.6663 0.127905 6.49001 20.6663 0.127905
332 2 8.58305 20.4089 1.54033 8.58305 20.4089 1.54033
333 2 8.14122 21.024 -1.71199 8.14122 21.024 -1.71199
334 1 9.32502 22.2787 0.0765419 9.32502 22.2787 0.0765419
335 2 11.4249 22.0282 1.50754 11.4249 22.0282 1.50754
336 2 11.078 22.4698 -1.65539 11.078 22.4698 -1.65539
337 1 12.2764 20.6278 -0.402206 12.2764 20.6278 -0.402206
338 2 14.0279 20.4174 1.33731 14.0279 20.4174 1.33731
339 2 14.2505 20.7425 -1.96202 14.2505 20.7425 -1.96202
340 1 15.1546 22.2208 -0.0491895 15.1546 22.2208 -0.0491895
341 2 16.9695 22.1339 1.64894 16.9695 22.1339 1.64894
342 2 16.9932 22.3414 -1.69118 16.9932 22.3414 -1.69118
343 1 17.9562 20.6238 -0.148284 17.9562 20.6238 -0.148284
344 2 19.7533 20.6773 1.59115 19.7533 20.6773 1.59115
345 2 19.8914 20.6506 -1.67161 19.8914 20.6506 -1.67161
346 1 20.6937 22.3551 0.0282612 20.6937 22.3551 0.0282612
347 2 22.4266 22.2841 1.84221 22.4266 22.2841 1.84221
348 2 22.7174 22.3173 -1.41201 22.7174 22.3173 -1.41201
349 1 23.6134 20.6541 0.298452 23.6134 20.6541 0.298452
350 2 25.6544 20.5714 1.88858 25.6544 20.5714 1.88858
351 2 25.5698 20.5964 -1.27845 25.5698 20.5964 -1.27845
352 1 26.4632 22.3025 0.356572 26.4632 22.3025 0.356572
353 2 28.3477 22.4439 2.09722 28.3477 22.4439 2.09722
354 2 28.409 22.2665 -1.28205 28.409 22.2665 -1.28205
355 1 29.3763 20.7413 0.50944 29.3763 20.7413 0.50944
356 2 31.2861 20.7622 2.14 31.2861 20.7622 2.14
357 2 31.1762 20.7017 -1.18215 31.1762 20.7017 -1.18215
358 1 32.1932 22.338 0.458532 32.1932 22.338 0.458532
359 2 34.2706 22.2201 1.72658 34.2706 22.2201 1.72658
360 2 33.895 22.4001 -1.45519 33.895 22.4001 -1.45519
361 1 35.047 20.7921 -0.0499025 35.047 20.7921 -0.0499025
362 2 36.8938 20.7787 1.5498 36.8938 20.7787 1.5498
363 2 36.9517 20.7507 -1.67561 36.9517 20.7507 -1.67561
364 1 37.8571 22.4021 -0.126019 37.8571 22.4021 -0.126019
365 2 39.8334 22.4849 1.50962 39.8334 22.4849 1.50962
366 2 39.6973 22.2863 -1.80863 39.6973 22.2863 -1.80863
367 1 40.6774 20.7177 -0.122873 40.6774 20.7177 -0.122873
368 2 42.5742 20.7052 1.5292 42.5742 20.7052 1.5292
369 2 42.6836 20.6776 -1.7485 42.6836 20.6776 -1.7485
370 1 43.5375 22.3746 -0.186465 43.5375 22.3746 -0.186465
371 2 45.5497 22.1858 1.34942 45.5497 22.1858 1.34942
372 2 45.4383 22.3536 -1.8347 45.4383 22.3536 -1.8347
373 1 46.4779 20.6629 -0.264374 46.4779 20.6629 -0.264374
374 2 48.4012 20.6612 1.40836 48.4012 20.6612 1.40836
375 2 48.4213 20.7834 -1.92786 48.4213 20.7834 -1.92786
376 1 49.3115 22.3513 -0.125537 49.3115 22.3513 -0.125537
377 2 51.2031 22.454 1.64367 51.2031 22.454 1.64367
378 2 51.2507 22.3271 -1.62336 51.2507 22.3271 -1.62336
379 1 52.0844 24.0794 -0.0379841 0.749593 24.0794 -0.0379841
380 2 2.60674 24.0954 1.83731 2.60674 24.0954 1.83731
381 2 2.81047 23.9087 -1.55931 2.81047 23.9087 -1.55931
382 1 3.64633 25.4986 0.195881 3.64633 25.4986 0.195881
383 2 5.56483 25.4937 1.98007 5.56483 25.4937 1.98007
384 2 5.56022 25.4654 -1.42276 5.56022 25.4654 -1.42276
385 1 6.49803 23.8656 0.199514 6.49803 23.8656 0.199514
386 2 8.40719 23.6374 1.91338 8.40719 23.6374 1.91338
387 2 8.41165 23.9433 -1.44184 8.41165 23.9433 -1.44184
388 1 9.29686 25.5253 0.391172 9.29686 25.5253 0.391172
389 2 11.486 25.6254 1.73993 11.486 25.6254 1.73993
390 2 10.9917 25.5395 -1.48245 10.9917 25.5395 -1.48245
391 1 12.2581 23.9038 0.0417951 12.2581 23.9038 0.0417951
392 2 14.2029 23.7926 1.64375 14.2029 23.7926 1.64375
393 2 14.1165 23.9345 -1.72178 14.1165 23.9345 -1.72178
394 1 15.0368 25.6516 0.0632596 15.0368 25.6516 0.0632596
395 2 17.0418 25.6352 1.6239 17.0418 25.6352 1.6239
396 2 16.8409 25.601 -1.62346 16.8409 25.601 -1.62346
397 1 17.8192 23.8933 0.0865484 17.8192 23.8933 0.0865484
398 2 19.6514 23.8203 1.73759 19.6514 23.8203 1.73759
399 2 19.7706 23.956 -1.51748 19.7706 23.956 -1.51748
400 1 20.7895 25.648 0.302622 20.7895 25.648 0.302622
401 2 22.6913 25.5721 2.02074 22.6913 25.5721 2.02074
402 2 22.7081 25.6848 -1.16499 22.7081 25.6848 -1.16499
403 1 23.5538 23.9089 0.332209 23.5538 23.9089 0.332209
404 2 25.4078 23.8213 2.00371 25.4078 23.8213 2.00371
405 2 25.5573 24.0201 -1.1818 25.5573 24.0201 -1.1818
406 1 26.4044 25.6108 0.508527 26.4044 25.6108 0.508527
407 2 28.3818 25.6187 2.02149 28.3818 25.6187 2.02149
408 2 28.2385 25.6727 -1.2029 28.2385 25.6727 -1.2029
409 1 29.2671 23.9792 0.372638 29.2671 23.9792 0.372638
410 2 31.1089 24.0081 2.07447 31.1089 24.0081 2.07447
411 2 31.205 23.9139 -1.19434 31.205 23.9139 -1.19434
412 1 32.1912 25.6182 0.509335 32.1912 25.6182 0.509335
413 2 34.2599 25.5953 1.95461 34.2599 25.5953 1.95461
414 2 33.974 25.8345 -1.25055 33.974 25.8345 -1.25055
415 1 34.9879 23.9973 0.139691 34.9879 23.9973 0.139691
416 2 37.0117 23.9518 1.67015 37.0117 23.9518 1.67015
417 2 36.8067 24.2044 -1.59502 36.8067 24.2044 -1.59502
418 1 37.8774 25.7264 0.122959 37.8774 25.7264 0.122959
419 2 39.9654 25.5968 1.55497 39.9654 25.5968 1.55497
420 2 39.7514 25.6246 -1.62161 39.7514 25.6246 -1.62161
421 1 40.7117 24.0138 -0.166819 40.7117 24.0138 -0.166819
422 2 42.6598 24.0295 1.42631 42.6598 24.0295 1.42631
423 2 42.5753 24.0498 -1.8444 42.5753 24.0498 -1.8444
424 1 43.5575 25.6322 -0.185844 43.5575 25.6322 -0.185844
425 2 45.6054 25.7929 1.3504 45.6054 25.7929 1.3504
426 2 45.4309 25.5029 -1.8386 45.4309 25.5029 -1.8386
427 1 46.4698 23.9736 -0.143405 46.4698 23.9736 -0.143405
428 2 48.4033 24.1107 1.3978 48.4033 24.1107 1.3978
429 2 48.4492 23.9582 -1.88744 48.4492 23.9582 -1.88744
430 1 49.1976 25.6911 -0.263624 49.1976 25.6911 -0.263624
431 2 51.0756 25.7526 1.51962 51.0756 25.7526 1.51962
432 2 51.2367 25.6614 -1.76088 51.2367 25.6614 -1.76088
433 1 52.1048 27.2924 -0.0831367 0.769996 27.2924 -0.0831367
434 2 2.70137 27.3364 1.63661 2.70137 27.3364 1.63661
435 2 2.7655 27.0591 -1.62265 2.7655 27.0591 -1.62265
436 1 3.59274 28.8731 -0.170227 3.59274 28.8731 -0.170227
437 2 5.32253 28.9694 1.60971 5.32253 28.9694 1.60971
438 2 5.58105 28.5964 -1.67287 5.58105 28.5964 -1.67287
439 1 6.40905 27.1639 0.212214 6.40905 27.1639 0.212214
440 2 8.33264 27.2313 1.92066 8.33264 27.2313 1.92066
441 2 8.3645 26.9857 -1.396 8.3645 26.9857 -1.396
442 1 9.32356 28.7818 0.141622 9.32356 28.7818 0.141622
443 2 11.396 28.9288 1.68718 11.396 28.9288 1.68718
444 2 11.1064 28.9546 -1.65069 11.1064 28.9546 -1.65069
445 1 12.1782 27.2503 -0.0507698 12.1782 27.2503 -0.0507698
446 2 14.0464 27.2724 1.48803 14.0464 27.2724 1.48803
447 2 14.1383 27.1349 -1.71489 14.1383 27.1349 -1.71489
448 1 15.0873 28.8504 -0.207605 15.0873 28.8504 -0.207605
449 2 16.9747 28.8771 1.50093 16.9747 28.8771 1.50093
450 2 17.1654 28.8705 -1.79291 17.1654 28.8705 -1.79291
451 1 17.933 27.2469 -0.0877169 17.933 27.2469 -0.0877169
452 2 19.6955 27.464 1.65568 19.6955 27.464 1.65568
453 2 20.0054 27.1215 -1.52738 20.0054 27.1215 -1.52738
454 1 20.7147 28.9075 -0.00757057 20.7147 28.9075 -0.00757057
455 2 22.4091 29.1854 1.9458 22.4091 29.1854 1.9458
456 2 22.9614 28.748 -1.29048 22.9614 28.748 -1.29048
457 1 23.5842 27.3423 0.611178 23.5842 27.3423 0.611178
458 2 25.5594 27.1896 2.17565 25.5594 27.1896 2.17565
459 2 25.5513 27.2681 -1.10569 25.5513 27.2681 -1.10569
460 1 26.443 28.9818 0.517817 26.443 28.9818 0.517817
461 2 28.436 28.9309 2.05091 28.436 28.9309 2.05091
462 2 28.3829 29.0029 -1.2143 28.3829 29.0029 -1.2143
463 1 29.3663 27.314 0.379094 29.3663 27.314 0.379094
464 2 31.3358 27.4848 1.98532 31.3358 27.4848 1.98532
465 2 31.1628 27.1672 -1.26802 31.1628 27.1672 -1.26802
466 1 32.2328 28.9247 0.20358 32.2328 28.9247 0.20358
467 2 34.099 28.9668 1.98685 34.099 28.9668 1.98685
468 2 34.2396 29.0055 -1.35318 34.2396 29.0055 -1.35318
469 1 35.0765 27.3536 0.395009 35.0765 27.3536 0.395009
470 2 37.1903 27.3975 1.80526 37.1903 27.3975 1.80526
471 2 36.7857 27.3174 -1.43259 36.7857 27.3174 -1.43259
472 1 37.8596 28.9289 0.0561877 37.8596 28.9289 0.0561877
473 2 39.9835 29.0354 1.5072 39.9835 29.0354 1.5072
474 2 39.5711 28.9319 -1.72079 39.5711 28.9319 -1.72079
475 1 40.7518 27.3588 -0.107524 40.7518 27.3588 -0.107524
476 2 42.7406 27.2337 1.41941 42.7406 27.2337 1.41941
477 2 42.5663 27.3271 -1.78612 42.5663 27.3271 -1.78612
478 1 43.5974 29.0162 -0.306414 43.5974 29.0162 -0.306414
479 2 45.5422 28.8603 1.23709 45.5422 28.8603 1.23709
480 2 45.3095 28.8848 -2.03951 45.3095 28.8848 -2.03951
481 1 46.4514 27.2981 -0.437896 46.4514 27.2981 -0.437896
482 2 48.217 27.3658 1.34803 48.217 27.3658 1.34803
483 2 48.3714 27.2808 -2.01451 48.3714 27.2808 -2.01451
484 1 49.2173 28.9538 -0.266857 49.2173 28.9538 -0.266857
485 2 51.0524 28.991 1.4577 51.0524 28.991 1.4577
486 2 51.1693 28.7871 -1.90451 51.1693 28.7871 -1.90451
487 1 52.0824 30.5073 -0.219142 0.747567 30.5073 -0.219142
488 2 2.67797 30.4887 1.43206 2.67797 30.4887 1.43206
489 2 2.72302 30.5085 -1.83906 2.72302 30.5085 -1.83906
490 1 3.67772 32.0664 -0.275033 3.67772 32.0664 -0.275033
491 2 5.54844 32.1071 1.3578 5.54844 32.1071 1.3578
492 2 5.48993 31.9679 -1.89983 5.48993 31.9679 -1.89983
493 1 6.50705 30.4178 -0.171793 6.50705 30.4178 -0.171793
494 2 8.33086 30.5988 1.52505 8.33086 30.5988 1.52505
495 2 8.5961 30.3787 -1.60356 8.5961 30.3787 -1.60356
496 1 9.40698 32.1435 -0.142177 9.40698 32.1435 -0.142177
497 2 11.2589 31.9805 1.54754 11.2589 31.9805 1.54754
498 2 11.321 32.2945 -1.68307 11.321 32.2945 -1.68307
499 1 12.2327 30.5281 -0.147262 12.2327 30.5281 -0.147262
500 2 14.0981 30.4637 1.51192 14.0981 30.4637 1.51192
501 2 14.1002 30.4614 -1.78231 14.1002 30.4614 -1.78231
502 1 15.0675 32.1449 -0.196635 15.0675 32.1449 -0.196635
503 2 16.9418 32.1069 1.52632 16.9418 32.1069 1.52632
504 2 16.9287 32.2715 -1.77407 16.9287 32.2715 -1.77407
505 1 17.9108 30.5415 -0.100663 17.9108 30.5415 -0.100663
506 2 19.7746 30.59 1.56542 19.7746 30.59 1.56542
507 2 19.7259 30.5677 -1.63903 19.7259 30.5677 -1.63903
508 1 20.7709 32.2226 -0.0227619 20.7709 32.2226 -0.0227619
509 2 22.5742 32.3482 1.65498 22.5742 32.3482 1.65498
510 2 22.7115 32.2057 -1.54717 22.7115 32.2057 -1.54717
511 1 23.6771 30.6862 0.229268 23.6771 30.6862 0.229268
512 2 25.4512 30.6841 1.96916 25.4512 30.6841 1.96916
513 2 25.517 30.5877 -1.29656 25.517 30.5877 -1.29656
514 1 26.4937 32.1824 0.2493 26.4937 32.1824 0.2493
515 2 28.3842 32.2469 1.93653 28.3842 32.2469 1.93653
516 2 28.3876 32.1216 -1.27912 28.3876 32.1216 -1.27912
517 1 29.312 30.5292 0.445166 29.312 30.5292 0.445166
518 2 31.4186 30.5464 1.89111 31.4186 30.5464 1.89111
519 2 31.1969 30.6922 -1.34338 31.1969 30.6922 -1.34338
520 1 32.2267 32.2732 0.273316 32.2267 32.2732 0.273316
521 2 34.1821 32.428 1.90836 34.1821 32.428 1.90836
522 2 34.0737 32.1074 -1.42821 34.0737 32.1074 -1.42821
523 1 35.0352 30.6859 0.405705 35.0352 30.6859 0.405705
524 2 37.172 30.5964 1.77503 37.172 30.5964 1.77503
525 2 36.7224 30.5955 -1.47647 36.7224 30.5955 -1.47647
526 1 37.854 32.3028 0.0450309 37.854 32.3028 0.0450309
527 2 39.7752 32.1003 1.5121 39.7752 32.1003 1.5121
528 2 39.7231 32.3522 -1.70739 39.7231 32.3522 -1.70739
529 1 40.6495 30.5923 -0.265825 40.6495 30.5923 -0.265825
530 2 42.5595 30.7156 1.34116 42.5595 30.7156 1.34116
531 2 42.5722 30.6879 -1.89634 42.5722 30.6879 -1.89634
532 1 43.4609 32.3598 -0.416614 43.4609 32.3598 -0.416614
533 2 45.3767 31.9217 1.28549 45.3767 31.9217 1.28549
534 2 45.4898 32.4741 -2.01222 45.4898 32.4741 -2.01222
535 1 46.4135 30.5367 -0.551082 46.4135 30.5367 -0.551082
536 2 48.1499 30.6428 1.23228 48.1499 30.6428 1.23228
537 2 48.4777 30.6682 -1.95918 48.4777 30.6682 -1.95918
538 1 49.3309 32.22 -0.291214 49.3309 32.22 -0.291214
539 2 51.0582 32.0538 1.3925 51.0582 32.0538 1.3925
540 2 51.1809 32.1782 -1.82724 51.1809 32.1782 -1.82724
541 1 52.1348 33.778 -0.195597 0.799903 33.778 -0.195597