ITEM: TIMESTEP
15000
ITEM: NUMBER OF ATOMS
810
ITEM: BOX BOUNDS pp pp pp
8.4137701477268123e-01 5.2176227985227342e+01
8.0961581116522285e-01 5.0206599188834083e+01
-1.0000000000000000e+01 1.0000000000000000e+01
ITEM: ATOMS id type x y z xu yu zu
1 1 1.01416 0.968098 0.276985 1.01416 0.968098 0.276985
2 2 2.923 0.919119 1.92509 2.923 0.919119 1.92509
3 2 3.05283 1.1398 -1.3369 3.05283 1.1398 -1.3369
4 1 3.89947 2.67042 0.397373 3.89947 2.67042 0.397373
5 2 5.84019 2.58068 2.04057 5.84019 2.58068 2.04057
6 2 5.74826 2.70672 -1.39013 5.74826 2.70672 -1.39013
7 1 6.78229 1.07591 0.154995 6.78229 1.07591 0.154995
8 2 8.6262 0.865375 1.88988 8.6262 0.865375 1.88988
9 2 8.6278 1.11253 -1.45477 8.6278 1.11253 -1.45477
10 1 9.56307 2.66572 0.339758 9.56307 2.66572 0.339758
11 2 11.6692 2.70006 1.8049 11.6692 2.70006 1.8049
12 2 11.4266 2.59442 -1.50084 11.4266 2.59442 -1.50084
13 1 12.5067 0.967634 0.111715 12.5067 0.967634 0.111715
14 2 14.4709 0.896003 1.59089 14.4709 0.896003 1.59089
15 2 14.2836 1.02564 -1.56408 14.2836 1.02564 -1.56408
16 1 15.3142 2.71271 0.0730524 15.3142 2.71271 0.0730524
17 2 17.1781 2.66365 1.71049 17.1781 2.66365 1.71049
18 2 17.1669 2.69566 -1.48989 17.1669 2.69566 -1.48989
19 1 18.1328 1.06984 0.114544 18.1328 1.06984 0.114544
20 2 19.8581 0.866942 1.77703 19.8581 0.866942 1.77703
21 2 20.0506 1.16424 -1.45985 20.0506 1.16424 -1.45985
22 1 21.0233 2.59352 0.430733 21.0233 2.59352 0.430733
23 2 23.0992 2.61321 1.74812 23.0992 2.61321 1.74812
24 2 22.6907 2.54043 -1.46855 22.6907 2.54043 -1.46855
25 1 23.8736 0.908257 -0.0622284 23.8736 0.908257 -0.0622284
26 2 25.8081 0.914631 1.40876 25.8081 0.914631 1.40876
27 2 25.6374 1.09604 -1.8806 25.6374 1.09604 -1.8806
28 1 26.6712 2.59982 -0.150007 26.6712 2.59982 -0.150007
29 2 28.5894 2.49883 1.32272 28.5894 2.49883 1.32272
30 2 28.448 2.75214 -1.87614 28.448 2.75214 -1.87614
31 1 29.5572 1.01301 -0.538051 29.5572 1.01301 -0.538051
32 2 31.5065 0.909594 1.02545 31.5065 0.909594 1.02545
33 2 31.4226 1.05207 -2.18141 31.4226 1.05207 -2.18141
34 1 32.3849 2.66384 -0.557183 32.3849 2.66384 -0.557183
35 2 34.2143 2.54898 1.06359 34.2143 2.54898 1.06359
36 2 34.2277 2.74213 -2.13133 34.2277 2.74213 -2.13133
37 1 35.2324 1.02774 -0.599662 35.2324 1.02774 -0.599662
38 2 36.929 50.4235 1.22685 36.929 1.02655 1.22685
39 2 37.3201 1.13948 -2.01154 37.3201 1.13948 -2.01154
40 1 38.0622 2.65158 -0.238307 38.0622 2.65158 -0.238307
41 2 39.7827 2.57335 1.66041 39.7827 2.57335 1.66041
42 2 40.2252 2.64992 -1.52637 40.2252 2.64992 -1.52637
43 1 40.8908 1.02416 0.0363867 40.8908 1.02416 0.0363867
44 2 42.6116 1.16669 1.86342 42.6116 1.16669 1.86342
45 2 43.0004 0.977246 -1.28588 43.0004 0.977246 -1.28588
46 1 43.832 2.66041 0.313028 43.832 2.66041 0.313028
47 2 45.5515 2.62043 2.10489 45.5515 2.62043 2.10489
48 2 45.8755 2.60921 -1.14411 45.8755 2.60921 -1.14411
49 1 46.6417 0.959647 0.587871 46.6417 0.959647 0.587871
50 2 48.8588 0.83022 2.04642 48.8588 0.83022 2.04642
51 2 48.3349 1.00318 -1.23873 48.3349 1.00318 -1.23873
52 1 49.5033 2.65986 0.272236 49.5033 2.65986 0.272236
53 2 51.4046 2.55343 1.90981 51.4046 2.55343 1.90981
54 2 51.4477 2.64282 -1.35669 51.4477 2.64282 -1.35669
55 1 1.03212 4.25667 0.324287 1.03212 4.25667 0.324287
56 2 2.95469 4.17294 2.12768 2.95469 4.17294 2.12768
57 2 3.04471 4.2996 -1.19286 3.04471 4.2996 -1.19286
58 1 3.88798 5.9231 0.580437 3.88798 5.9231 0.580437
59 2 5.95314 5.95125 2.15332 5.95314 5.95125 2.15332
60 2 5.69394 5.9937 -1.15268 5.69394 5.9937 -1.15268
61 1 6.75853 4.30046 0.353417 6.75853 4.30046 0.353417
62 2 8.62356 4.42037 1.92337 8.62356 4.42037 1.92337
63 2 8.56027 4.25334 -1.39818 8.56027 4.25334 -1.39818
64 1 9.56355 5.88489 0.229153 9.56355 5.88489 0.229153
65 2 11.5816 6.11281 1.66456 11.5816 6.11281 1.66456
66 2 11.3375 5.85513 -1.6423 11.3375 5.85513 -1.6423
67 1 12.4679 4.31169 0.0329709 12.4679 4.31169 0.0329709
68 2 14.4092 4.35312 1.69335 14.4092 4.35312 1.69335
69 2 14.2319 4.20073 -1.63733 14.2319 4.20073 -1.63733
70 1 15.305 5.89376 -0.10114 15.305 5.89376 -0.10114
71 2 17.022 5.93068 1.67738 17.022 5.93068 1.67738
72 2 17.2219 6.02127 -1.63168 17.2219 6.02127 -1.63168
73 1 18.0982 4.35453 0.0464683 18.0982 4.35453 0.0464683
74 2 19.9493 4.40998 1.89019 19.9493 4.40998 1.89019
75 2 20.2735 4.10653 -1.3886 20.2735 4.10653 -1.3886
76 1 21.0738 5.94415 0.16695 21.0738 5.94415 0.16695
77 2 23.0903 5.97721 1.64882 23.0903 5.97721 1.64882
78 2 22.841 5.87486 -1.63469 22.841 5.87486 -1.63469
79 1 23.9068 4.24958 -0.0566141 23.9068 4.24958 -0.0566141
80 2 25.7607 4.25242 1.55302 25.7607 4.25242 1.55302
81 2 25.7416 4.22452 -1.71055 25.7416 4.22452 -1.71055
82 1 26.6415 5.94848 -0.124158 26.6415 5.94848 -0.124158
83 2 28.4678 5.90338 1.52638 28.4678 5.90338 1.52638
84 2 28.5212 6.00584 -1.81823 28.5212 6.00584 -1.81823
85 1 29.5509 4.28679 -0.171503 29.5509 4.28679 -0.171503
86 2 31.5778 4.22077 1.23314 31.5778 4.22077 1.23314
87 2 31.2454 4.40066 -2.01873 31.2454 4.40066 -2.01873
88 1 32.2954 5.98527 -0.325647 32.2954 5.98527 -0.325647
89 2 34.2424 5.68939 1.34834 34.2424 5.68939 1.34834
90 2 34.3247 6.18287 -1.82232 34.3247 6.18287 -1.82232
91 1 35.2074 4.34313 -0.421414 35.2074 4.34313 -0.421414
92 2 36.9264 4.13154 1.3717 36.9264 4.13154 1.3717
93 2 37.506 4.54504 -1.80566 37.506 4.54504 -1.80566
94 1 38.1192 5.9718 0.109854 38.1192 5.9718 0.109854
95 2 39.8704 5.64036 1.94956 39.8704 5.64036 1.94956
96 2 40.1587 6.17821 -1.30928 40.1587 6.17821 -1.30928
97 1 40.9125 4.28032 0.192153 40.9125 4.28032 0.192153
98 2 42.7036 4.2214 1.99296 42.7036 4.2214 1.99296
99 2 42.9289 4.36618 -1.23334 42.9289 4.36618 -1.23334
100 1 43.7987 5.86207 0.595116 43.7987 5.86207 0.595116
101 2 45.6633 5.78188 2.21668 45.6633 5.78188 2.21668
102 2 45.6871 6.02167 -0.980358 45.6871 6.02167 -0.980358
103 1 46.6347 4.30828 0.584337 46.6347 4.30828 0.584337
104 2 48.7181 4.23001 2.07839 48.7181 4.23001 2.07839
105 2 48.4761 4.39178 -1.11731 48.4761 4.39178 -1.11731
106 1 49.4967 5.90333 0.554395 49.4967 5.90333 0.554395
107 2 51.6033 5.81101 2.13534 51.6033 5.81101 2.13534
108 2 51.3263 6.07597 -1.15502 51.3263 6.07597 -1.15502
109 1 1.01192 7.54763 0.573134 1.01192 7.54763 0.573134
110 2 2.92318 7.73181 2.24287 2.92318 7.73181 2.24287
111 2 2.90673 7.55487 -1.07984 2.90673 7.55487 -1.07984
112 1 3.91552 9.19729 0.483886 3.91552 9.19729 0.483886
113 2 5.68166 9.20589 2.0704 5.68166 9.20589 2.0704
114 2 5.68475 9.12528 -1.18587 5.68475 9.12528 -1.18587
115 1 6.76872 7.5556 0.398064 6.76872 7.5556 0.398064
116 2 8.82459 7.75327 1.86596 8.82459 7.75327 1.86596
117 2 8.5257 7.46089 -1.41093 8.5257 7.46089 -1.41093
118 1 9.58734 9.24855 0.0508595 9.58734 9.24855 0.0508595
119 2 11.6496 9.21564 1.48819 11.6496 9.21564 1.48819
120 2 11.4815 9.24846 -1.64408 11.4815 9.24846 -1.64408
121 1 12.476 7.52678 -0.194428 12.476 7.52678 -0.194428
122 2 14.2894 7.56251 1.60817 14.2894 7.56251 1.60817
123 2 14.3703 7.56546 -1.77751 14.3703 7.56546 -1.77751
124 1 15.2605 9.25292 -0.068748 15.2605 9.25292 -0.068748
125 2 17.1422 9.3028 1.57428 17.1422 9.3028 1.57428
126 2 17.1383 9.12044 -1.6934 17.1383 9.12044 -1.6934
127 1 18.1171 7.67079 0.0723769 18.1171 7.67079 0.0723769
128 2 20.0894 7.75049 1.73841 20.0894 7.75049 1.73841
129 2 20.1159 7.51916 -1.54438 20.1159 7.51916 -1.54438
130 1 20.9375 9.32329 0.0128895 20.9375 9.32329 0.0128895
131 2 22.8748 9.28486 1.56875 22.8748 9.28486 1.56875
132 2 22.7885 9.2361 -1.64333 22.7885 9.2361 -1.64333
133 1 23.8748 7.56243 -0.0589239 23.8748 7.56243 -0.0589239
134 2 25.6497 7.60827 1.61383 25.6497 7.60827 1.61383
135 2 25.7616 7.56355 -1.65655 25.7616 7.56355 -1.65655
136 1 26.6613 9.21862 -0.0156064 26.6613 9.21862 -0.0156064
137 2 28.6545 9.1284 1.67484 28.6545 9.1284 1.67484
138 2 28.6258 9.29125 -1.61037 28.6258 9.29125 -1.61037
139 1 29.506 7.59678 -0.0267836 29.506 7.59678 -0.0267836
140 2 31.4614 7.31364 1.45671 31.4614 7.31364 1.45671
141 2 31.3614 7.80369 -1.72638 31.3614 7.80369 -1.72638
142 1 32.4927 9.22669 -0.0131686 32.4927 9.22669 -0.0131686
143 2 34.3016 9.25011 1.68184 34.3016 9.25011 1.68184
144 2 34.3631 9.2573 -1.54768 34.3631 9.2573 -1.54768
145 1 35.2029 7.56054 0.127449 35.2029 7.56054 0.127449
146 2 37.0261 7.48618 1.77571 37.0261 7.48618 1.77571
147 2 37.1664 7.59631 -1.43939 37.1664 7.59631 -1.43939
148 1 38.0726 9.21683 0.266256 38.0726 9.21683 0.266256
149 2 39.7602 9.22724 2.14143 39.7602 9.22724 2.14143
150 2 40.1702 9.19122 -1.17163 40.1702 9.19122 -1.17163
151 1 40.9176 7.67081 0.629209 40.9176 7.67081 0.629209
152 2 42.8522 7.49922 2.24038 42.8522 7.49922 2.24038
153 2 42.8323 7.4599 -1.02664 42.8323 7.4599 -1.02664
154 1 43.7558 9.18989 0.55682 43.7558 9.18989 0.55682
155 2 45.6331 9.24713 2.25666 45.6331 9.24713 2.25666
156 2 45.6808 9.09325 -1.05291 45.6808 9.09325 -1.05291
157 1 46.637 7.55253 0.686126 46.637 7.55253 0.686126
158 2 48.6027 7.49995 2.28487 48.6027 7.49995 2.28487
159 2 48.471 7.58819 -1.02545 48.471 7.58819 -1.02545
160 1 49.5062 9.17367 0.674891 49.5062 9.17367 0.674891
161 2 51.4633 9.1028 2.20175 51.4633 9.1028 2.20175
162 2 51.3163 9.0846 -1.11896 51.3163 9.0846 -1.11896
163 1 0.931981 10.7714 0.487482 0.931981 10.7714 0.487482
164 2 2.80191 10.7702 2.13677 2.80191 10.7702 2.13677
165 2 2.93815 10.9076 -0.98732 2.93815 10.9076 -0.98732
166 1 3.86199 12.5115 0.659054 3.86199 12.5115 0.659054
167 2 5.8607 12.6122 2.09171 5.8607 12.6122 2.09171
168 2 5.62864 12.4037 -1.14105 5.62864 12.4037 -1.14105
169 1 6.69381 10.7828 0.403258 6.69381 10.7828 0.403258
170 2 8.76971 10.8127 1.80039 8.76971 10.8127 1.80039
171 2 8.47306 10.8149 -1.46272 8.47306 10.8149 -1.46272
172 1 9.53066 12.4551 -0.0532823 9.53066 12.4551 -0.0532823
173 2 11.4209 12.4451 1.57883 11.4209 12.4451 1.57883
174 2 11.3791 12.6144 -1.61956 11.3791 12.6144 -1.61956
175 1 12.4949 10.9111 -0.0502558 12.4949 10.9111 -0.0502558
176 2 14.4372 11.0245 1.52653 14.4372 11.0245 1.52653
177 2 14.1429 10.7617 -1.80197 14.1429 10.7617 -1.80197
178 1 15.2195 12.6307 -0.274559 15.2195 12.6307 -0.274559
179 2 17.208 12.6373 1.3884 17.208 12.6373 1.3884
180 2 17.2028 12.55 -2.01914 17.2028 12.55 -2.01914
181 1 18.1072 10.9517 -0.187736 18.1072 10.9517 -0.187736
182 2 20.0935 10.9398 1.46281 20.0935 10.9398 1.46281
183 2 20.0451 10.8536 -1.74863 20.0451 10.8536 -1.74863
184 1 20.9484 12.5953 -0.273375 20.9484 12.5953 -0.273375
185 2 22.7967 12.7605 1.38794 22.7967 12.7605 1.38794
186 2 22.9661 12.4341 -1.86976 22.9661 12.4341 -1.86976
187 1 23.7776 10.8508 -0.0664661 23.7776 10.8508 -0.0664661
188 2 25.6691 10.8629 1.55987 25.6691 10.8629 1.55987
189 2 25.8283 10.9424 -1.64556 25.8283 10.9424 -1.64556
190 1 26.6894 12.5803 0.104835 26.6894 12.5803 0.104835
191 2 28.6766 12.6474 1.73675 28.6766 12.6474 1.73675
192 2 28.6409 12.4162 -1.55167 28.6409 12.4162 -1.55167
193 1 29.603 10.9009 0.160125 29.603 10.9009 0.160125
194 2 31.6224 10.842 1.82663 31.6224 10.842 1.82663
195 2 31.4329 10.9498 -1.46811 31.4329 10.9498 -1.46811
196 1 32.4551 12.5648 0.130322 32.4551 12.5648 0.130322
197 2 34.386 12.4558 1.70452 34.386 12.4558 1.70452
198 2 34.4573 12.5605 -1.55674 34.4573 12.5605 -1.55674
199 1 35.3262 10.8945 0.0780352 35.3262 10.8945 0.0780352
200 2 37.1152 10.894 1.80461 37.1152 10.894 1.80461
201 2 37.2361 10.9724 -1.44606 37.2361 10.9724 -1.44606
202 1 38.1147 12.6091 0.251361 38.1147 12.6091 0.251361
203 2 40.0321 12.8431 1.94539 40.0321 12.8431 1.94539
204 2 40.0099 12.3576 -1.36806 40.0099 12.3576 -1.36806
205 1 40.8601 10.9268 0.533332 40.8601 10.9268 0.533332
206 2 42.7767 10.9676 2.1229 42.7767 10.9676 2.1229
207 2 42.7522 10.8389 -1.11378 42.7522 10.8389 -1.11378
208 1 43.8287 12.5128 0.385927 43.8287 12.5128 0.385927
209 2 45.6029 12.5025 2.06829 45.6029 12.5025 2.06829
210 2 45.7572 12.2167 -1.13805 45.7572 12.2167 -1.13805
211 1 46.6496 10.7651 0.531074 46.6496 10.7651 0.531074
212 2 48.4832 10.9244 2.26681 48.4832 10.9244 2.26681
213 2 48.5498 10.7497 -1.05346 48.5498 10.7497 -1.05346
214 1 49.5333 12.4936 0.537372 49.5333 12.4936 0.537372
215 2 51.5031 12.4727 2.13516 51.5031 12.4727 2.13516
216 2 51.4112 12.3939 -1.11956 51.4112 12.3939 -1.11956
217 1 0.991795 14.1398 0.448472 0.991795 14.1398 0.448472
218 2 2.81918 14.2637 2.10223 2.81918 14.2637 2.10223
219 2 2.9048 14.0225 -1.1569 2.9048 14.0225 -1.1569
220 1 3.83105 15.7445 0.434522 3.83105 15.7445 0.434522
221 2 5.87519 15.9019 1.863 5.87519 15.9019 1.863
222 2 5.66865 15.7599 -1.36095 5.66865 15.7599 -1.36095
223 1 6.6642 14.0755 0.342449 6.6642 14.0755 0.342449
224 2 8.75685 14.0446 1.67468 8.75685 14.0446 1.67468
225 2 8.35973 14.1466 -1.5197 8.35973 14.1466 -1.5197
226 1 9.56587 15.7734 -0.0168975 9.56587 15.7734 -0.0168975
227 2 11.4119 15.6496 1.75427 11.4119 15.6496 1.75427
228 2 11.536 15.9947 -1.53119 11.536 15.9947 -1.53119
229 1 12.3664 14.1982 0.0439421 12.3664 14.1982 0.0439421
230 2 14.4612 14.0891 1.58741 14.4612 14.0891 1.58741
231 2 14.245 14.3428 -1.69611 14.245 14.3428 -1.69611
232 1 15.2847 15.9097 0.0723544 15.2847 15.9097 0.0723544
233 2 17.3917 15.8592 1.46322 17.3917 15.8592 1.46322
234 2 17.027 15.9792 -1.75683 17.027 15.9792 -1.75683
235 1 18.172 14.2831 -0.290611 18.172 14.2831 -0.290611
236 2 19.9764 14.2702 1.30157 19.9764 14.2702 1.30157
237 2 19.8802 14.213 -1.89022 19.8802 14.213 -1.89022
238 1 20.9398 15.9002 -0.268018 20.9398 15.9002 -0.268018
239 2 22.9053 15.8678 1.35379 22.9053 15.8678 1.35379
240 2 22.8089 15.8174 -1.95309 22.8089 15.8174 -1.95309
241 1 23.7622 14.2094 -0.317727 23.7622 14.2094 -0.317727
242 2 25.4749 14.2032 1.55848 25.4749 14.2032 1.55848
243 2 25.8258 14.1092 -1.7109 25.8258 14.1092 -1.7109
244 1 26.6043 15.8417 -0.0517511 26.6043 15.8417 -0.0517511
245 2 28.7178 16.0253 1.42975 28.7178 16.0253 1.42975
246 2 28.3112 15.6574 -1.71636 28.3112 15.6574 -1.71636
247 1 29.5449 14.1928 -0.0630931 29.5449 14.1928 -0.0630931
248 2 31.4607 14.3783 1.52066 31.4607 14.3783 1.52066
249 2 31.3642 14.0339 -1.69993 31.3642 14.0339 -1.69993
250 1 32.2736 15.8662 -0.264018 32.2736 15.8662 -0.264018
251 2 34.1572 15.9722 1.4253 34.1572 15.9722 1.4253
252 2 34.2747 15.7165 -1.87343 34.2747 15.7165 -1.87343
253 1 35.2186 14.2503 -0.0235631 35.2186 14.2503 -0.0235631
254 2 37.0458 14.2967 1.64227 37.0458 14.2967 1.64227
255 2 37.2248 14.0518 -1.49405 37.2248 14.0518 -1.49405
256 1 38.2075 15.8276 -0.0347795 38.2075 15.8276 -0.0347795
257 2 40.0917 15.9382 1.58112 40.0917 15.9382 1.58112
258 2 40.002 15.5975 -1.71115 40.002 15.5975 -1.71115
259 1 41.0564 14.1374 0.085453 41.0564 14.1374 0.085453
260 2 42.885 14.3208 1.74981 42.885 14.3208 1.74981
261 2 42.9002 13.942 -1.47685 42.9002 13.942 -1.47685
262 1 43.7366 15.7879 -0.0232051 43.7366 15.7879 -0.0232051
263 2 45.4871 15.8958 1.71786 45.4871 15.8958 1.71786
264 2 45.7103 15.5794 -1.46868 45.7103 15.5794 -1.46868
265 1 46.598 14.0235 0.411552 46.598 14.0235 0.411552
266 2 48.61 14.1417 2.10628 48.61 14.1417 2.10628
267 2 48.706 14.1208 -1.10515 48.706 14.1208 -1.10515
268 1 49.5476 15.8242 0.504299 49.5476 15.8242 0.504299
269 2 51.4268 15.8333 2.06847 51.4268 15.8333 2.06847
270 2 51.3403 15.7075 -1.21322 51.3403 15.7075 -1.21322
271 1 0.94273 17.4758 0.340362 0.94273 17.4758 0.340362
272 2 2.92745 17.4301 2.00795 2.92745 17.4301 2.00795
273 2 2.89653 17.3167 -1.21641 2.89653 17.3167 -1.21641
274 1 3.76852 19.0583 0.294434 3.76852 19.0583 0.294434
275 2 5.83472 19.1845 1.72897 5.83472 19.1845 1.72897
276 2 5.57116 19.0142 -1.4874 5.57116 19.0142 -1.4874
277 1 6.67312 17.4554 0.101542 6.67312 17.4554 0.101542
278 2 8.59779 17.3058 1.64483 8.59779 17.3058 1.64483
279 2 8.49381 17.5055 -1.43927 8.49381 17.5055 -1.43927
280 1 9.4021 19.2196 0.346748 9.4021 19.2196 0.346748
281 2 11.432 19.1044 1.98063 11.432 19.1044 1.98063
282 2 11.2768 19.0858 -1.32906 11.2768 19.0858 -1.32906
283 1 12.234 17.4506 0.30259 12.234 17.4506 0.30259
284 2 14.3115 17.3147 1.80058 14.3115 17.3147 1.80058
285 2 14.1384 17.6758 -1.34954 14.1384 17.6758 -1.34954
286 1 15.1549 19.1915 0.294796 15.1549 19.1915 0.294796
287 2 17.3802 19.1483 1.66844 17.3802 19.1483 1.66844
288 2 16.8147 19.1987 -1.64767 16.8147 19.1987 -1.64767
289 1 18.1211 17.6579 -0.135463 18.1211 17.6579 -0.135463
290 2 20.0898 17.6663 1.40423 20.0898 17.6663 1.40423
291 2 19.9234 17.6517 -1.90759 19.9234 17.6517 -1.90759
292 1 20.9061 19.2452 -0.324292 20.9061 19.2452 -0.324292
293 2 22.8391 19.23 1.20419 22.8391 19.23 1.20419
294 2 22.8738 19.0482 -1.94657 22.8738 19.0482 -1.94657
295 1 23.833 17.4742 -0.314288 23.833 17.4742 -0.314288
296 2 25.5422 17.7885 1.34456 25.5422 17.7885 1.34456
297 2 25.712 17.2811 -1.91231 25.712 17.2811 -1.91231
298 1 26.5462 19.056 -0.379045 26.5462 19.056 -0.379045
299 2 28.4928 19.0233 1.30303 28.4928 19.0233 1.30303
300 2 28.4819 19.1557 -1.9923 28.4819 19.1557 -1.9923
301 1 29.4771 17.4779 -0.431495 29.4771 17.4779 -0.431495
302 2 31.3503 17.6059 1.25837 31.3503 17.6059 1.25837
303 2 31.3603 17.5963 -2.09021 31.3603 17.5963 -2.09021
304 1 32.3515 19.1959 -0.432124 32.3515 19.1959 -0.432124
305 2 34.1145 19.0502 1.31791 34.1145 19.0502 1.31791
306 2 34.4613 19.3097 -1.94689 34.4613 19.3097 -1.94689
307 1 35.3175 17.4364 -0.378722 35.3175 17.4364 -0.378722
308 2 36.9835 17.478 1.42526 36.9835 17.478 1.42526
309 2 37.3269 17.3728 -1.79768 37.3269 17.3728 -1.79768
310 1 38.0086 19.1515 -0.113811 38.0086 19.1515 -0.113811
311 2 39.9644 19.06 1.39742 39.9644 19.06 1.39742
312 2 39.8946 19.0877 -1.86309 39.8946 19.0877 -1.86309
313 1 41.0076 17.4742 -0.290147 41.0076 17.4742 -0.290147
314 2 42.6138 17.491 1.54282 42.6138 17.491 1.54282
315 2 43.0084 17.498 -1.79323 43.0084 17.498 -1.79323
316 1 43.8074 19.0093 0.102301 43.8074 19.0093 0.102301
317 2 45.7016 19.0322 1.67938 45.7016 19.0322 1.67938
318 2 45.6508 19.1204 -1.63387 45.6508 19.1204 -1.63387
319 1 46.6843 17.4262 0.0274199 46.6843 17.4262 0.0274199
320 2 48.4559 17.6195 1.8574 48.4559 17.6195 1.8574
321 2 48.6529 17.1187 -1.50675 48.6529 17.1187 -1.50675
322 1 49.4562 19.0812 0.0227899 49.4562 19.0812 0.0227899
323 2 51.1591 19.2604 1.80833 51.1591 19.2604 1.80833
324 2 51.5434 18.8973 -1.50875 51.5434 18.8973 -1.50875
325 1 0.923276 20.7091 0.0738787 0.923276 20.7091 0.0738787
326 2 2.78522 20.8693 1.83983 2.78522 20.8693 1.83983
327 2 2.86882 20.5183 -1.47898 2.86882 20.5183 -1.47898
328 1 3.70047 22.4197 -0.00919274 3.70047 22.4197 -0.00919274
329 2 5.44894 22.3676 1.67149 5.44894 22.3676 1.67149
330 2 5.56201 22.599 -1.50268 5.56201 22.599 -1.50268
331 1 6.5845 20.8321 -0.116438 6.5845 20.8321 -0.116438
332 2 8.19397 21.0664 1.72329 8.19397 21.0664 1.72329
333 2 8.69293 20.7583 -1.56602 8.69293 20.7583 -1.56602
334 1 9.35632 22.5223 0.0753095 9.35632 22.5223 0.0753095
335 2 11.2462 22.4477 1.76838 11.2462 22.4477 1.76838
336 2 11.3625 22.4099 -1.48528 11.3625 22.4099 -1.48528
337 1 12.2484 20.7668 0.231215 12.2484 20.7668 0.231215
338 2 14.2585 20.9284 1.92307 14.2585 20.9284 1.92307
339 2 14.1536 20.7784 -1.46849 14.1536 20.7784 -1.46849
340 1 15.1573 22.4692 0.0522845 15.1573 22.4692 0.0522845
341 2 17.2687 22.4671 1.48261 17.2687 22.4671 1.48261
342 2 16.98 22.61 -1.68908 16.98 22.61 -1.68908
343 1 18.0862 20.8214 -0.180412 18.0862 20.8214 -0.180412
344 2 19.9877 20.8342 1.45044 19.9877 20.8342 1.45044
345 2 19.9214 20.9151 -1.88849 19.9214 20.9151 -1.88849
346 1 20.8577 22.5396 -0.314507 20.8577 22.5396 -0.314507
347 2 22.8863 22.5719 1.21534 22.8863 22.5719 1.21534
348 2 22.6277 22.3776 -2.02468 22.6277 22.3776 -2.02468
349 1 23.7433 20.8726 -0.457084 23.7433 20.8726 -0.457084
350 2 25.6233 20.8233 1.19096 25.6233 20.8233 1.19096
351 2 25.7214 20.7652 -2.05271 25.7214 20.7652 -2.05271
352 1 26.5569 22.415 -0.438317 26.5569 22.415 -0.438317
353 2 28.3158 22.3384 1.30696 28.3158 22.3384 1.30696
354 2 28.5404 22.4315 -1.87116 28.5404 22.4315 -1.87116
355 1 29.4497 20.7593 -0.190282 29.4497 20.7593 -0.190282
356 2 31.3869 20.7022 1.30375 31.3869 20.7022 1.30375
357 2 31.348 20.9054 -1.89459 31.348 20.9054 -1.89459
358 1 32.2919 22.4446 -0.166833 32.2919 22.4446 -0.166833
359 2 34.2124 22.4524 1.50863 34.2124 22.4524 1.50863
360 2 34.2835 22.3986 -1.70312 34.2835 22.3986 -1.70312
361 1 35.1251 20.8219 -0.0988134 35.1251 20.8219 -0.0988134
362 2 36.9694 20.736 1.6003 36.9694 20.736 1.6003
363 2 37.0516 20.8381 -1.68374 37.0516 20.8381 -1.68374
364 1 38.0134 22.4455 -0.0146007 38.0134 22.4455 -0.0146007
365 2 39.9419 22.3237 1.46405 39.9419 22.3237 1.46405
366 2 39.8522 22.5156 -1.74674 39.8522 22.5156 -1.74674
367 1 40.8195 20.7347 -0.160704 40.8195 20.7347 -0.160704
368 2 42.6846 20.7642 1.60482 42.6846 20.7642 1.60482
369 2 42.8336 20.5414 -1.6565 42.8336 20.5414 -1.6565
370 1 43.6797 22.3764 -0.0936379 43.6797 22.3764 -0.0936379
371 2 45.4718 22.348 1.75916 45.4718 22.348 1.75916
372 2 45.671 22.4608 -1.61157 45.671 22.4608 -1.61157
373 1 46.6066 20.7328 0.0567376 46.6066 20.7328 0.0567376
374 2 48.5243 20.7938 1.63085 48.5243 20.7938 1.63085
375 2 48.4448 20.7011 -1.55134 48.4448 20.7011 -1.55134
376 1 49.4467 22.3501 0.015802 49.4467 22.3501 0.015802
377 2 51.3138 22.4185 1.72477 51.3138 22.4185 1.72477
378 2 51.4566 22.5148 -1.50781 51.4566 22.5148 -1.50781
379 1 0.946082 24.095 0.172731 0.946082 24.095 0.172731
380 2 2.84351 23.9879 1.72105 2.84351 23.9879 1.72105
381 2 2.73505 24.1064 -1.60186 2.73505 24.1064 -1.60186
382 1 3.75979 25.6625 0.0590989 3.75979 25.6625 0.0590989
383 2 5.59841 25.7991 1.80923 5.59841 25.7991 1.80923
384 2 5.68511 25.7766 -1.55602 5.68511 25.7766 -1.55602
385 1 6.4477 24.2004 0.257004 6.4477 24.2004 0.257004
386 2 8.50088 24.0964 1.84745 8.50088 24.0964 1.84745
387 2 8.29681 24.0862 -1.46783 8.29681 24.0862 -1.46783
388 1 9.38841 25.7666 0.13317 9.38841 25.7666 0.13317
389 2 11.3293 25.693 1.71227 11.3293 25.693 1.71227
390 2 11.2726 25.66 -1.59052 11.2726 25.66 -1.59052
391 1 12.2262 24.0698 0.179932 12.2262 24.0698 0.179932
392 2 14.3563 24.3257 1.59963 14.3563 24.3257 1.59963
393 2 13.9305 23.9755 -1.6391 13.9305 23.9755 -1.6391
394 1 15.0906 25.7434 -0.268281 15.0906 25.7434 -0.268281
395 2 17.1266 25.9168 1.34353 17.1266 25.9168 1.34353
396 2 16.9677 25.4093 -1.98983 16.9677 25.4093 -1.98983
397 1 18.049 24.1713 -0.119285 18.049 24.1713 -0.119285
398 2 20.0083 24.2676 1.31722 20.0083 24.2676 1.31722
399 2 19.7242 24.009 -1.96124 19.7242 24.009 -1.96124
400 1 20.921 25.7436 -0.511647 20.921 25.7436 -0.511647
401 2 22.8071 25.8961 1.09211 22.8071 25.8961 1.09211
402 2 22.7602 25.553 -2.22055 22.7602 25.553 -2.22055
403 1 23.711 24.1291 -0.418927 23.711 24.1291 -0.418927
404 2 25.5954 24.1018 1.12332 25.5954 24.1018 1.12332
405 2 25.576 24.1359 -2.02579 25.576 24.1359 -2.02579
406 1 26.5993 25.7902 -0.394387 26.5993 25.7902 -0.394387
407 2 28.4501 25.895 1.24644 28.4501 25.895 1.24644
408 2 28.5042 25.5441 -2.09889 28.5042 25.5441 -2.09889
409 1 29.4062 24.1112 -0.280185 29.4062 24.1112 -0.280185
410 2 31.2917 24.2011 1.50413 31.2917 24.2011 1.50413
411 2 31.3296 23.9872 -1.85574 31.3296 23.9872 -1.85574
412 1 32.2603 25.7532 -0.272889 32.2603 25.7532 -0.272889
413 2 34.138 25.7734 1.35821 34.138 25.7734 1.35821
414 2 34.2784 25.7659 -1.84679 34.2784 25.7659 -1.84679
415 1 35.1977 24.1075 -0.123953 35.1977 24.1075 -0.123953
416 2 37.1375 24.2766 1.48782 37.1375 24.2766 1.48782
417 2 37.067 24.008 -1.76606 37.067 24.008 -1.76606
418 1 38.1102 25.7505 -0.219214 38.1102 25.7505 -0.219214
419 2 39.9451 25.6856 1.50976 39.9451 25.6856 1.50976
420 2 40.0333 25.6994 -1.68206 40.0333 25.6994 -1.68206
421 1 40.8665 24.0284 -0.0924725 40.8665 24.0284 -0.0924725
422 2 42.7294 23.9383 1.69968 42.7294 23.9383 1.69968
423 2 42.8768 24.1843 -1.63258 42.8768 24.1843 -1.63258
424 1 43.7143 25.7157 0.262614 43.7143 25.7157 0.262614
425 2 45.7087 25.7912 1.76111 45.7087 25.7912 1.76111
426 2 45.545 25.6345 -1.50431 45.545 25.6345 -1.50431
427 1 46.5561 24.0208 0.179504 46.5561 24.0208 0.179504
428 2 48.4947 24.0346 1.70302 48.4947 24.0346 1.70302
429 2 48.4657 24.0646 -1.49053 48.4657 24.0646 -1.49053
430 1 49.4213 25.643 0.0582111 49.4213 25.643 0.0582111
431 2 51.2889 25.8231 1.67814 51.2889 25.8231 1.67814
432 2 51.2955 25.5382 -1.53975 51.2955 25.5382 -1.53975
433 1 0.90852 27.3924 -0.0939767 0.90852 27.3924 -0.0939767
434 2 2.75861 27.3948 1.59227 2.75861 27.3948 1.59227
435 2 2.76298 27.3774 -1.67496 2.76298 27.3774 -1.67496
436 1 3.7231 29.0652 -0.242106 3.7231 29.0652 -0.242106
437 2 5.4273 29.1333 1.58404 5.4273 29.1333 1.58404
438 2 5.99259 28.9762 -1.68031 5.99259 28.9762 -1.68031
439 1 6.5972 27.4369 0.124984 6.5972 27.4369 0.124984
440 2 8.59031 27.184 1.77387 8.59031 27.184 1.77387
441 2 8.66084 27.5769 -1.44187 8.66084 27.5769 -1.44187
442 1 9.47939 29.0379 0.278164 9.47939 29.0379 0.278164
443 2 11.5469 28.9146 1.63992 11.5469 28.9146 1.63992
444 2 11.3005 29.1411 -1.57337 11.3005 29.1411 -1.57337
445 1 12.3743 27.3658 -0.0498815 12.3743 27.3658 -0.0498815
446 2 14.3879 27.4693 1.42095 14.3879 27.4693 1.42095
447 2 14.0601 27.4451 -1.84445 14.0601 27.4451 -1.84445
448 1 15.2374 29.0334 -0.30849 15.2374 29.0334 -0.30849
449 2 17.1891 28.9889 1.19573 17.1891 28.9889 1.19573
450 2 16.9054 29.0562 -2.05183 16.9054 29.0562 -2.05183
451 1 17.9939 27.2894 -0.508156 17.9939 27.2894 -0.508156
452 2 20.0047 27.423 1.10529 20.0047 27.423 1.10529
453 2 19.914 27.1453 -2.17822 19.914 27.1453 -2.17822
454 1 20.7926 29.047 -0.796594 20.7926 29.047 -0.796594
455 2 22.8357 29.0719 0.798664 22.8357 29.0719 0.798664
456 2 22.7688 28.8969 -2.39761 22.7688 28.8969 -2.39761
457 1 23.7746 27.3489 -0.815895 23.7746 27.3489 -0.815895
458 2 25.6349 27.5099 0.938577 25.6349 27.5099 0.938577
459 2 25.8524 27.1811 -2.2175 25.8524 27.1811 -2.2175
460 1 26.5769 29.0371 -0.81332 26.5769 29.0371 -0.81332
461 2 28.3116 28.9394 1.10235 28.3116 28.9394 1.10235
462 2 28.77 29.0529 -2.23503 28.77 29.0529 -2.23503
463 1 29.4581 27.369 -0.487949 29.4581 27.369 -0.487949
464 2 31.1516 27.3248 1.24392 31.1516 27.3248 1.24392
465 2 31.5062 27.2772 -2.01854 31.5062 27.2772 -2.01854
466 1 32.2872 28.9661 -0.237728 32.2872 28.9661 -0.237728
467 2 34.1056 28.8672 1.5204 34.1056 28.8672 1.5204
468 2 34.2941 29.01 -1.72286 34.2941 29.01 -1.72286
469 1 35.2058 27.3699 -0.181941 35.2058 27.3699 -0.181941
470 2 37.0956 27.2299 1.54282 37.0956 27.2299 1.54282
471 2 37.0753 27.4102 -1.8193 37.0753 27.4102 -1.8193
472 1 38.1033 28.9421 0.0104699 38.1033 28.9421 0.0104699
473 2 40.0184 28.9649 1.64811 40.0184 28.9649 1.64811
474 2 39.8967 28.9732 -1.75512 39.8967 28.9732 -1.75512
475 1 40.8863 27.3586 -0.0891654 40.8863 27.3586 -0.0891654
476 2 42.6189 27.579 1.73166 42.6189 27.579 1.73166
477 2 42.8484 27.115 -1.57336 42.8484 27.115 -1.57336
478 1 43.6678 29.0159 -0.0616318 43.6678 29.0159 -0.0616318
479 2 45.5009 28.96 1.61745 45.5009 28.96 1.61745
480 2 45.5922 28.8744 -1.67412 45.5922 28.8744 -1.67412
481 1 46.4896 27.3685 0.013274 46.4896 27.3685 0.013274
482 2 48.5285 27.4479 1.56188 48.5285 27.4479 1.56188
483 2 48.4261 27.2982 -1.62402 48.4261 27.2982 -1.62402
484 1 49.4003 29.0092 -0.158335 49.4003 29.0092 -0.158335
485 2 51.3712 29.0939 1.46289 51.3712 29.0939 1.46289
486 2 51.2317 28.9008 -1.80585 51.2317 28.9008 -1.80585
487 1 0.88478 30.6782 -0.338591 0.88478 30.6782 -0.338591
488 2 2.63802 30.501 1.48223 2.63802 30.501 1.48223
489 2 2.93691 30.861 -1.80045 2.93691 30.861 -1.80045
490 1 3.72663 32.3371 0.14671 3.72663 32.3371 0.14671
491 2 5.74208 32.4379 1.73615 5.74208 32.4379 1.73615
492 2 5.60627 32.4302 -1.55465 5.60627 32.4302 -1.55465
493 1 6.62603 30.7174 0.0591253 6.62603 30.7174 0.0591253
494 2 8.42959 30.7164 1.76118 8.42959 30.7164 1.76118
495 2 8.53407 30.6996 -1.48277 8.53407 30.6996 -1.48277
496 1 9.52445 32.3975 0.262237 9.52445 32.3975 0.262237
497 2 11.5511 32.2433 1.79585 11.5511 32.2433 1.79585
498 2 11.3701 32.4352 -1.46202 11.3701 32.4352 -1.46202
499 1 12.3336 30.6729 -0.00141644 12.3336 30.6729 -0.00141644
500 2 14.4732 30.6182 1.4255 14.4732 30.6182 1.4255
501 2 14.0997 30.6957 -1.81144 14.0997 30.6957 -1.81144
502 1 15.205 32.293 -0.250757 15.205 32.293 -0.250757
503 2 17.1846 32.2415 1.25357 17.1846 32.2415 1.25357
504 2 16.9419 32.2841 -1.98174 16.9419 32.2841 -1.98174
505 1 18.0199 30.6248 -0.494785 18.0199 30.6248 -0.494785
506 2 20.1195 30.5545 0.914381 20.1195 30.5545 0.914381
507 2 19.6759 30.7653 -2.32376 19.6759 30.7653 -2.32376
508 1 20.7712 32.2337 -0.798161 20.7712 32.2337 -0.798161
509 2 22.8252 32.3145 0.806757 22.8252 32.3145 0.806757
510 2 22.6689 32.3467 -2.40244 22.6689 32.3467 -2.40244
511 1 23.7244 30.7205 -0.878218 23.7244 30.7205 -0.878218
512 2 25.5907 30.4616 0.863375 25.5907 30.4616 0.863375
513 2 25.7159 30.8091 -2.45043 25.7159 30.8091 -2.45043
514 1 26.6293 32.2345 -0.531576 26.6293 32.2345 -0.531576
515 2 28.4559 32.3114 1.19054 28.4559 32.3114 1.19054
516 2 28.5492 32.2663 -2.14283 28.5492 32.2663 -2.14283
517 1 29.5142 30.6846 -0.437981 29.5142 30.6846 -0.437981
518 2 31.3399 30.7423 1.33 31.3399 30.7423 1.33
519 2 31.503 30.6004 -1.93655 31.503 30.6004 -1.93655
520 1 32.4232 32.269 -0.396345 32.4232 32.269 -0.396345
521 2 34.2135 32.4326 1.30513 34.2135 32.4326 1.30513
522 2 34.3096 31.9494 -1.90347 34.3096 31.9494 -1.90347
523 1 35.2484 30.5968 0.022153 35.2484 30.5968 0.022153
524 2 37.1023 30.6569 1.67689 37.1023 30.6569 1.67689
525 2 37.0498 30.559 -1.68752 37.0498 30.559 -1.68752
526 1 38.005 32.2677 -0.084046 38.005 32.2677 -0.084046
527 2 40.0115 32.4883 1.42519 40.0115 32.4883 1.42519
528 2 39.9406 32.0839 -1.86771 39.9406 32.0839 -1.86771
529 1 40.8691 30.583 -0.0836469 40.8691 30.583 -0.0836469
530 2 42.7848 30.69 1.5742 42.7848 30.69 1.5742
531 2 42.7543 30.4938 -1.77292 42.7543 30.4938 -1.77292
532 1 43.7041 32.2747 -0.267937 43.7041 32.2747 -0.267937
533 2 45.473 32.4317 1.47656 45.473 32.4317 1.47656
534 2 45.6039 32.0809 -1.72826 45.6039 32.0809 -1.72826
535 1 46.5701 30.6677 0.0597866 46.5701 30.6677 0.0597866
536 2 48.5759 30.676 1.58712 48.5759 30.676 1.58712
537 2 48.3725 30.6645 -1.75911 48.3725 30.6645 -1.75911
538 1 49.3918 32.2354 -0.173594 49.3918 32.2354 -0.173594
539 2 51.3803 32.3159 1.37775 51.3803 32.3159 1.37775