ITEM: TIMESTEP
26100
ITEM: NUMBER OF ATOMS
810
ITEM: BOX BOUNDS pp pp pp
8.4137701477268123e-01 5.2176227985227342e+01
8.0961581116522285e-01 5.0206599188834083e+01
-1.0000000000000000e+01 1.0000000000000000e+01
ITEM: ATOMS id type x y z xu yu zu
1 1 1.11021 1.0835 0.166938 1.11021 1.0835 0.166938
2 2 2.9226 1.04601 1.84891 2.9226 1.04601 1.84891
3 2 3.04422 0.912964 -1.36553 3.04422 0.912964 -1.36553
4 1 3.93398 2.70349 0.211837 3.93398 2.70349 0.211837
5 2 5.78642 2.52033 1.97493 5.78642 2.52033 1.97493
6 2 5.94947 2.89233 -1.27138 5.94947 2.89233 -1.27138
7 1 6.80838 1.08188 0.231545 6.80838 1.08188 0.231545
8 2 8.67643 0.810365 1.92532 8.67643 0.810365 1.92532
9 2 8.82111 1.26222 -1.31322 8.82111 1.26222 -1.31322
10 1 9.61665 2.69606 0.610004 9.61665 2.69606 0.610004
11 2 11.8185 2.52814 1.91874 11.8185 2.52814 1.91874
12 2 11.3177 2.88847 -1.29465 11.3177 2.88847 -1.29465
13 1 12.5221 1.11025 0.0550088 12.5221 1.11025 0.0550088
14 2 14.5786 0.876297 1.55661 14.5786 0.876297 1.55661
15 2 14.3771 1.44679 -1.71432 14.3771 1.44679 -1.71432
16 1 15.4569 2.70119 0.0438676 15.4569 2.70119 0.0438676
17 2 17.5784 2.40203 1.42254 17.5784 2.40203 1.42254
18 2 17.0771 2.88506 -1.87306 17.0771 2.88506 -1.87306
19 1 18.2484 0.991738 -0.66455 18.2484 0.991738 -0.66455
20 2 20.1238 0.868895 0.930062 20.1238 0.868895 0.930062
21 2 19.918 1.05244 -2.35135 19.918 1.05244 -2.35135
22 1 20.9677 2.5776 -0.744262 20.9677 2.5776 -0.744262
23 2 22.9444 2.55056 0.885645 22.9444 2.55056 0.885645
24 2 22.835 2.80752 -2.33971 22.835 2.80752 -2.33971
25 1 23.816 0.938739 -0.905293 23.816 0.938739 -0.905293
26 2 25.7073 0.880174 0.789687 25.7073 0.880174 0.789687
27 2 25.7556 1.16471 -2.43158 25.7556 1.16471 -2.43158
28 1 26.7058 2.60008 -0.612694 26.7058 2.60008 -0.612694
29 2 28.6551 2.73237 0.96049 28.6551 2.73237 0.96049
30 2 28.5979 2.64541 -2.26013 28.5979 2.64541 -2.26013
31 1 29.5374 1.03238 -0.636145 29.5374 1.03238 -0.636145
32 2 31.3531 1.11586 1.02008 31.3531 1.11586 1.02008
33 2 31.4514 1.08016 -2.2598 31.4514 1.08016 -2.2598
34 1 32.4558 2.69395 -0.649567 32.4558 2.69395 -0.649567
35 2 34.183 2.58962 1.06208 34.183 2.58962 1.06208
36 2 34.3738 2.92191 -2.16015 34.3738 2.92191 -2.16015
37 1 35.181 1.08242 -0.649815 35.181 1.08242 -0.649815
38 2 36.9303 0.962768 1.1764 36.9303 0.962768 1.1764
39 2 37.2996 0.870971 -1.99899 37.2996 0.870971 -1.99899
40 1 38.0555 2.59967 -0.310045 38.0555 2.59967 -0.310045
41 2 39.6243 2.55451 1.54944 39.6243 2.55451 1.54944
42 2 40.1837 2.56912 -1.63055 40.1837 2.56912 -1.63055
43 1 41.0116 1.0355 0.0878378 41.0116 1.0355 0.0878378
44 2 42.7868 0.907451 1.80076 42.7868 0.907451 1.80076
45 2 42.9328 1.15861 -1.52289 42.9328 1.15861 -1.52289
46 1 43.8079 2.77378 0.204837 43.8079 2.77378 0.204837
47 2 45.6842 2.51139 1.76486 45.6842 2.51139 1.76486
48 2 45.6708 2.73395 -1.43921 45.6708 2.73395 -1.43921
49 1 46.7238 0.988543 0.0673701 46.7238 0.988543 0.0673701
50 2 48.5622 0.995844 1.7897 48.5622 0.995844 1.7897
51 2 48.6573 1.14996 -1.62135 48.6573 1.14996 -1.62135
52 1 49.5312 2.62095 0.201861 49.5312 2.62095 0.201861
53 2 51.4182 2.63933 1.89875 51.4182 2.63933 1.89875
54 2 51.441 2.84855 -1.35065 51.441 2.84855 -1.35065
55 1 1.08664 4.3371 0.244213 1.08664 4.3371 0.244213
56 2 3.01147 4.37499 2.00402 3.01147 4.37499 2.00402
57 2 3.12573 4.45523 -1.26515 3.12573 4.45523 -1.26515
58 1 4.011 6.09079 0.417068 4.011 6.09079 0.417068
59 2 5.83535 6.18912 2.13141 5.83535 6.18912 2.13141
60 2 5.93658 6.02958 -1.11205 5.93658 6.02958 -1.11205
61 1 6.77351 4.40778 0.661139 6.77351 4.40778 0.661139
62 2 8.71558 4.31591 2.31253 8.71558 4.31591 2.31253
63 2 8.63123 4.31211 -0.92191 8.63123 4.31211 -0.92191
64 1 9.73148 6.03234 0.578735 9.73148 6.03234 0.578735
65 2 11.8466 5.94793 2.10326 11.8466 5.94793 2.10326
66 2 11.5651 5.99714 -1.20726 11.5651 5.99714 -1.20726
67 1 12.4969 4.36728 0.347007 12.4969 4.36728 0.347007
68 2 14.6732 4.35504 1.70955 14.6732 4.35504 1.70955
69 2 14.2666 4.36177 -1.39014 14.2666 4.36177 -1.39014
70 1 15.4959 6.07605 0.0740234 15.4959 6.07605 0.0740234
71 2 17.5062 6.10211 1.54157 17.5062 6.10211 1.54157
72 2 17.0483 5.76269 -1.78031 17.0483 5.76269 -1.78031
73 1 18.2528 4.29742 -0.117056 18.2528 4.29742 -0.117056
74 2 20.2984 4.17782 1.064 20.2984 4.17782 1.064
75 2 19.8253 4.48349 -2.11674 19.8253 4.48349 -2.11674
76 1 21.0573 5.91466 -0.568525 21.0573 5.91466 -0.568525
77 2 22.9303 5.88277 1.01187 22.9303 5.88277 1.01187
78 2 22.9806 6.04071 -2.24831 22.9806 6.04071 -2.24831
79 1 23.8673 4.32851 -0.687937 23.8673 4.32851 -0.687937
80 2 25.7555 4.35285 0.986092 25.7555 4.35285 0.986092
81 2 25.9407 4.38253 -2.23187 25.9407 4.38253 -2.23187
82 1 26.7261 5.99532 -0.49822 26.7261 5.99532 -0.49822
83 2 28.5919 5.73902 1.1059 28.5919 5.73902 1.1059
84 2 28.6028 6.28596 -2.1727 28.6028 6.28596 -2.1727
85 1 29.5266 4.33313 -0.779343 29.5266 4.33313 -0.779343
86 2 31.3256 4.24718 1.04349 31.3256 4.24718 1.04349
87 2 31.6717 4.43911 -2.23635 31.6717 4.43911 -2.23635
88 1 32.3604 6.07077 -0.333153 32.3604 6.07077 -0.333153
89 2 34.2547 6.02218 1.37453 34.2547 6.02218 1.37453
90 2 34.4036 6.23982 -1.81126 34.4036 6.23982 -1.81126
91 1 35.1832 4.40282 -0.357938 35.1832 4.40282 -0.357938
92 2 37.0637 4.22647 1.37925 37.0637 4.22647 1.37925
93 2 37.1828 4.40018 -1.95234 37.1828 4.40018 -1.95234
94 1 38.1415 5.97547 -0.0830165 38.1415 5.97547 -0.0830165
95 2 39.8275 5.96167 1.65398 39.8275 5.96167 1.65398
96 2 40.2435 5.90459 -1.61501 40.2435 5.90459 -1.61501
97 1 40.8958 4.25141 0.0798151 40.8958 4.25141 0.0798151
98 2 42.6925 4.29925 1.81517 42.6925 4.29925 1.81517
99 2 42.8704 4.31816 -1.442 42.8704 4.31816 -1.442
100 1 43.7168 6.01541 0.188961 43.7168 6.01541 0.188961
101 2 45.6667 5.93194 1.8458 45.6667 5.93194 1.8458
102 2 45.8176 5.91016 -1.41484 45.8176 5.91016 -1.41484
103 1 46.6575 4.42556 0.214364 46.6575 4.42556 0.214364
104 2 48.4885 4.21796 1.78822 48.4885 4.21796 1.78822
105 2 48.6282 4.32979 -1.35134 48.6282 4.32979 -1.35134
106 1 49.6072 5.96343 0.335334 49.6072 5.96343 0.335334
107 2 51.4974 5.87561 2.03448 51.4974 5.87561 2.03448
108 2 51.4374 6.13733 -1.27624 51.4374 6.13733 -1.27624
109 1 1.09472 7.57263 0.530349 1.09472 7.57263 0.530349
110 2 3.15758 7.69637 2.03374 3.15758 7.69637 2.03374
111 2 2.99054 7.62348 -1.10918 2.99054 7.62348 -1.10918
112 1 3.99775 9.36292 0.470641 3.99775 9.36292 0.470641
113 2 5.83317 9.38676 2.01607 5.83317 9.38676 2.01607
114 2 5.989 9.24566 -1.13923 5.989 9.24566 -1.13923
115 1 6.83568 7.66336 0.439611 6.83568 7.66336 0.439611
116 2 8.84403 7.64682 2.16196 8.84403 7.64682 2.16196
117 2 8.85001 7.6165 -1.03536 8.85001 7.6165 -1.03536
118 1 9.73113 9.22754 0.488774 9.73113 9.22754 0.488774
119 2 11.6307 9.43456 2.01155 11.6307 9.43456 2.01155
120 2 11.5563 9.16693 -1.19584 11.5563 9.16693 -1.19584
121 1 12.5811 7.63798 0.428254 12.5811 7.63798 0.428254
122 2 14.7655 7.65039 1.86877 14.7655 7.65039 1.86877
123 2 14.2942 7.5978 -1.43842 14.2942 7.5978 -1.43842
124 1 15.4121 9.2066 -0.0409655 15.4121 9.2066 -0.0409655
125 2 17.5446 9.20662 1.32367 17.5446 9.20662 1.32367
126 2 17.0779 9.15913 -1.87837 17.0779 9.15913 -1.87837
127 1 18.256 7.57112 -0.451112 18.256 7.57112 -0.451112
128 2 20.2905 7.57592 1.15161 20.2905 7.57592 1.15161
129 2 20.1249 7.62097 -2.13889 20.1249 7.62097 -2.13889
130 1 21.092 9.16884 -0.450765 21.092 9.16884 -0.450765
131 2 22.9592 9.26373 1.1297 22.9592 9.26373 1.1297
132 2 22.9008 9.27679 -2.03709 22.9008 9.27679 -2.03709
133 1 23.866 7.56817 -0.517453 23.866 7.56817 -0.517453
134 2 25.7898 7.69642 1.09031 25.7898 7.69642 1.09031
135 2 25.6465 7.4991 -2.16479 25.6465 7.4991 -2.16479
136 1 26.6864 9.31232 -0.770508 26.6864 9.31232 -0.770508
137 2 28.321 9.29422 1.14919 28.321 9.29422 1.14919
138 2 28.8984 9.38983 -2.07695 28.8984 9.38983 -2.07695
139 1 29.5454 7.66086 -0.250717 29.5454 7.66086 -0.250717
140 2 31.578 7.53217 1.40549 31.578 7.53217 1.40549
141 2 31.4066 7.93938 -1.86918 31.4066 7.93938 -1.86918
142 1 32.5207 9.28904 -0.165498 32.5207 9.28904 -0.165498
143 2 34.342 9.53312 1.4908 34.342 9.53312 1.4908
144 2 34.3876 9.3049 -1.76444 34.3876 9.3049 -1.76444
145 1 35.3176 7.74432 -0.0134254 35.3176 7.74432 -0.0134254
146 2 37.1917 7.56567 1.64469 37.1917 7.56567 1.64469
147 2 37.2699 7.70432 -1.64665 37.2699 7.70432 -1.64665
148 1 38.2219 9.27875 0.0486612 38.2219 9.27875 0.0486612
149 2 40.0659 9.18417 1.79923 40.0659 9.18417 1.79923
150 2 40.1639 9.43143 -1.5208 40.1639 9.43143 -1.5208
151 1 40.9817 7.65974 0.0029159 40.9817 7.65974 0.0029159
152 2 42.6398 7.60695 1.86246 42.6398 7.60695 1.86246
153 2 42.9246 7.82641 -1.45634 42.9246 7.82641 -1.45634
154 1 43.8492 9.29193 0.398653 43.8492 9.29193 0.398653
155 2 45.7304 9.25942 2.09496 45.7304 9.25942 2.09496
156 2 45.68 9.36453 -1.23773 45.68 9.36453 -1.23773
157 1 46.6377 7.60782 0.283608 46.6377 7.60782 0.283608
158 2 48.5616 7.47701 1.97982 48.5616 7.47701 1.97982
159 2 48.6303 7.63425 -1.24405 48.6303 7.63425 -1.24405
160 1 49.5245 9.24146 0.504576 49.5245 9.24146 0.504576
161 2 51.6279 9.23804 2.13792 51.6279 9.23804 2.13792
162 2 51.4568 9.23644 -1.18419 51.4568 9.23644 -1.18419
163 1 1.14005 10.8927 0.427216 1.14005 10.8927 0.427216
164 2 2.87451 10.9094 2.09692 2.87451 10.9094 2.09692
165 2 3.05348 11.0237 -1.26524 3.05348 11.0237 -1.26524
166 1 3.97391 12.5795 0.432468 3.97391 12.5795 0.432468
167 2 5.87725 12.7861 1.97642 5.87725 12.7861 1.97642
168 2 5.91588 12.5333 -1.25677 5.91588 12.5333 -1.25677
169 1 6.83947 10.9405 0.47212 6.83947 10.9405 0.47212
170 2 8.75538 10.8869 2.03443 8.75538 10.8869 2.03443
171 2 8.69124 10.7716 -1.11875 8.69124 10.7716 -1.11875
172 1 9.72967 12.5732 0.407705 9.72967 12.5732 0.407705
173 2 11.8558 12.8281 1.73292 11.8558 12.8281 1.73292
174 2 11.3691 12.1891 -1.47608 11.3691 12.1891 -1.47608
175 1 12.5597 10.9045 0.25685 12.5597 10.9045 0.25685
176 2 14.7 11.0064 1.57212 14.7 11.0064 1.57212
177 2 14.2973 10.6424 -1.61246 14.2973 10.6424 -1.61246
178 1 15.4185 12.4923 -0.287123 15.4185 12.4923 -0.287123
179 2 17.3209 12.2768 1.24474 17.3209 12.2768 1.24474
180 2 17.3717 12.4305 -1.99298 17.3717 12.4305 -1.99298
181 1 18.3168 10.7912 -0.415971 18.3168 10.7912 -0.415971
182 2 20.1591 10.7179 1.21685 20.1591 10.7179 1.21685
183 2 20.1342 10.9637 -1.98541 20.1342 10.9637 -1.98541
184 1 21.1176 12.4275 -0.270128 21.1176 12.4275 -0.270128
185 2 23.1267 12.5316 1.29737 23.1267 12.5316 1.29737
186 2 22.7935 12.6352 -2.00391 22.7935 12.6352 -2.00391
187 1 23.8738 10.9379 -0.406961 23.8738 10.9379 -0.406961
188 2 25.7484 10.8121 1.14854 25.7484 10.8121 1.14854
189 2 25.5812 11.2225 -2.0692 25.5812 11.2225 -2.0692
190 1 26.7851 12.5284 -0.353729 26.7851 12.5284 -0.353729
191 2 28.6474 12.619 1.34204 28.6474 12.619 1.34204
192 2 28.5533 12.5566 -1.96697 28.5533 12.5566 -1.96697
193 1 29.5782 10.8804 -0.279952 29.5782 10.8804 -0.279952
194 2 31.4449 10.9243 1.46174 31.4449 10.9243 1.46174
195 2 31.6259 10.945 -1.82749 31.6259 10.945 -1.82749
196 1 32.4499 12.6094 -0.203308 32.4499 12.6094 -0.203308
197 2 34.3743 12.624 1.37571 34.3743 12.624 1.37571
198 2 34.2602 12.6847 -1.82354 34.2602 12.6847 -1.82354
199 1 35.3035 10.977 -0.264809 35.3035 10.977 -0.264809
200 2 37.1526 10.7829 1.70785 37.1526 10.7829 1.70785
201 2 37.3889 11.0388 -1.572 37.3889 11.0388 -1.572
202 1 38.1342 12.6269 0.223913 38.1342 12.6269 0.223913
203 2 40.0144 12.5494 1.99861 40.0144 12.5494 1.99861
204 2 40.0479 12.6596 -1.23534 40.0479 12.6596 -1.23534
205 1 40.9306 10.9292 0.419719 40.9306 10.9292 0.419719
206 2 42.9036 10.9489 1.96645 42.9036 10.9489 1.96645
207 2 42.7987 10.9654 -1.22205 42.7987 10.9654 -1.22205
208 1 43.7965 12.5912 0.396928 43.7965 12.5912 0.396928
209 2 45.7216 12.7175 1.94977 45.7216 12.7175 1.94977
210 2 45.747 12.4855 -1.25102 45.747 12.4855 -1.25102
211 1 46.6862 10.9366 0.550181 46.6862 10.9366 0.550181
212 2 48.4499 11.0323 2.19655 48.4499 11.0323 2.19655
213 2 48.5093 10.9461 -1.13643 48.5093 10.9461 -1.13643
214 1 49.612 12.4876 0.479438 49.612 12.4876 0.479438
215 2 51.6049 12.5873 1.98813 51.6049 12.5873 1.98813
216 2 51.3693 12.5286 -1.27203 51.3693 12.5286 -1.27203
217 1 1.1036 14.2618 0.314077 1.1036 14.2618 0.314077
218 2 3.16542 14.4486 1.95859 3.16542 14.4486 1.95859
219 2 2.99036 13.9941 -1.25858 2.99036 13.9941 -1.25858
220 1 4.0109 15.886 0.0970552 4.0109 15.886 0.0970552
221 2 5.87889 15.984 1.74172 5.87889 15.984 1.74172
222 2 5.94598 15.7984 -1.52049 5.94598 15.7984 -1.52049
223 1 6.86687 14.2708 0.252806 6.86687 14.2708 0.252806
224 2 8.80044 14.4185 1.71771 8.80044 14.4185 1.71771
225 2 8.72727 14.0105 -1.41577 8.72727 14.0105 -1.41577
226 1 9.77498 15.7572 -0.0860901 9.77498 15.7572 -0.0860901
227 2 11.7703 15.8456 1.41177 11.7703 15.8456 1.41177
228 2 11.5624 15.8104 -1.80031 11.5624 15.8104 -1.80031
229 1 12.6141 14.1466 -0.335707 12.6141 14.1466 -0.335707
230 2 14.4389 14.2289 1.26341 14.4389 14.2289 1.26341
231 2 14.4811 14.0406 -1.99146 14.4811 14.0406 -1.99146
232 1 15.4375 15.8133 -0.387876 15.4375 15.8133 -0.387876
233 2 17.174 15.8472 1.38657 17.174 15.8472 1.38657
234 2 17.3839 15.7239 -1.9024 17.3839 15.7239 -1.9024
235 1 18.2309 14.1117 -0.213553 18.2309 14.1117 -0.213553
236 2 20.1255 14.1074 1.46031 20.1255 14.1074 1.46031
237 2 20.0331 14.1284 -1.86897 20.0331 14.1284 -1.86897
238 1 21.1098 15.7706 -0.285704 21.1098 15.7706 -0.285704
239 2 23.0423 15.7178 1.31375 23.0423 15.7178 1.31375
240 2 22.9607 15.7667 -1.89949 22.9607 15.7667 -1.89949
241 1 23.9483 14.1372 -0.327511 23.9483 14.1372 -0.327511
242 2 25.8643 14.2477 1.32757 25.8643 14.2477 1.32757
243 2 25.7825 14.2041 -1.99203 25.7825 14.2041 -1.99203
244 1 26.7993 15.797 -0.37555 26.7993 15.797 -0.37555
245 2 28.8343 15.7455 1.27125 28.8343 15.7455 1.27125
246 2 28.644 15.775 -2.00407 28.644 15.775 -2.00407
247 1 29.5428 14.184 -0.402308 29.5428 14.184 -0.402308
248 2 31.3479 14.3725 1.34807 31.3479 14.3725 1.34807
249 2 31.523 14.2126 -1.94238 31.523 14.2126 -1.94238
250 1 32.3455 15.9577 -0.372246 32.3455 15.9577 -0.372246
251 2 34.1161 16.1416 1.33453 34.1161 16.1416 1.33453
252 2 34.4593 15.8179 -1.85122 34.4593 15.8179 -1.85122
253 1 35.3604 14.2965 -0.0816489 35.3604 14.2965 -0.0816489
254 2 37.0459 14.3277 1.74665 37.0459 14.3277 1.74665
255 2 37.2882 14.2388 -1.48571 37.2882 14.2388 -1.48571
256 1 38.1012 15.8936 0.184314 38.1012 15.8936 0.184314
257 2 39.7876 15.8764 2.03716 39.7876 15.8764 2.03716
258 2 40.1906 15.9607 -1.25141 40.1906 15.9607 -1.25141
259 1 41.0063 14.2463 0.392992 41.0063 14.2463 0.392992
260 2 42.8602 14.211 1.94672 42.8602 14.211 1.94672
261 2 42.8847 14.2303 -1.3062 42.8847 14.2303 -1.3062
262 1 43.8524 15.9148 0.355548 43.8524 15.9148 0.355548
263 2 45.8577 15.738 1.91943 45.8577 15.738 1.91943
264 2 45.7523 16.0515 -1.34455 45.7523 16.0515 -1.34455
265 1 46.6848 14.2207 0.164566 46.6848 14.2207 0.164566
266 2 48.629 14.2718 1.94251 48.629 14.2718 1.94251
267 2 48.7785 13.9955 -1.2585 48.7785 13.9955 -1.2585
268 1 49.5253 15.8712 0.24271 49.5253 15.8712 0.24271
269 2 51.4617 15.8072 1.91132 51.4617 15.8072 1.91132
270 2 51.5209 15.8099 -1.34728 51.5209 15.8099 -1.34728
271 1 1.07819 17.5285 0.37324 1.07819 17.5285 0.37324
272 2 3.2653 17.5041 1.79836 3.2653 17.5041 1.79836
273 2 2.92151 17.4288 -1.46915 2.92151 17.4288 -1.46915
274 1 3.97846 19.1489 0.0622475 3.97846 19.1489 0.0622475
275 2 5.94887 19.1821 1.69217 5.94887 19.1821 1.69217
276 2 5.91099 19.1001 -1.54694 5.91099 19.1001 -1.54694
277 1 6.94167 17.5119 0.0167211 6.94167 17.5119 0.0167211
278 2 8.88823 17.4207 1.64806 8.88823 17.4207 1.64806
279 2 8.85855 17.4838 -1.6906 8.85855 17.4838 -1.6906
280 1 9.81595 19.1269 -0.0532875 9.81595 19.1269 -0.0532875
281 2 11.8264 19.1715 1.40847 11.8264 19.1715 1.40847
282 2 11.5833 19.2768 -1.83431 11.5833 19.2768 -1.83431
283 1 12.5374 17.4747 -0.278493 12.5374 17.4747 -0.278493
284 2 14.4653 17.3115 1.30531 14.4653 17.3115 1.30531
285 2 14.3289 17.4601 -1.9397 14.3289 17.4601 -1.9397
286 1 15.4487 19.0868 -0.225513 15.4487 19.0868 -0.225513
287 2 17.5858 19.1565 1.31916 17.5858 19.1565 1.31916
288 2 17.2692 18.9619 -1.9442 17.2692 18.9619 -1.9442
289 1 18.3114 17.4423 -0.264945 18.3114 17.4423 -0.264945
290 2 20.3122 17.5658 1.2305 20.3122 17.5658 1.2305
291 2 20.1598 17.3696 -1.99248 20.1598 17.3696 -1.99248
292 1 21.1301 19.0554 -0.494069 21.1301 19.0554 -0.494069
293 2 23.0206 19.2919 1.09741 23.0206 19.2919 1.09741
294 2 23.0191 18.9992 -2.20442 23.0191 18.9992 -2.20442
295 1 23.9536 17.4353 -0.361073 23.9536 17.4353 -0.361073
296 2 25.833 17.5344 1.17533 25.833 17.5344 1.17533
297 2 25.7717 17.4617 -1.97937 25.7717 17.4617 -1.97937
298 1 26.8511 19.1442 -0.488139 26.8511 19.1442 -0.488139
299 2 28.7035 19.2718 1.25643 28.7035 19.2718 1.25643
300 2 28.6614 18.9362 -2.13551 28.6614 18.9362 -2.13551
301 1 29.5953 17.4903 -0.401653 29.5953 17.4903 -0.401653
302 2 31.5921 17.759 1.09298 31.5921 17.759 1.09298
303 2 31.4588 17.4809 -2.09443 31.4588 17.4809 -2.09443
304 1 32.4575 19.2674 -0.630888 32.4575 19.2674 -0.630888
305 2 34.2068 19.4326 1.1151 34.2068 19.4326 1.1151
306 2 34.4748 19.1353 -2.13548 34.4748 19.1353 -2.13548
307 1 35.1807 17.6215 -0.303911 35.1807 17.6215 -0.303911
308 2 37.0309 17.6245 1.54632 37.0309 17.6245 1.54632
309 2 37.3391 17.4655 -1.65372 37.3391 17.4655 -1.65372
310 1 38.0831 19.2001 -0.0217951 38.0831 19.2001 -0.0217951
311 2 39.8211 19.3537 1.78519 39.8211 19.3537 1.78519
312 2 40.1947 19.0149 -1.41157 40.1947 19.0149 -1.41157
313 1 40.9013 17.5861 0.515159 40.9013 17.5861 0.515159
314 2 42.9187 17.5513 2.0319 42.9187 17.5513 2.0319
315 2 42.862 17.5669 -1.21488 42.862 17.5669 -1.21488
316 1 43.8369 19.3056 0.480652 43.8369 19.3056 0.480652
317 2 45.9272 19.3968 1.81604 45.9272 19.3968 1.81604
318 2 45.6458 19.054 -1.36182 45.6458 19.054 -1.36182
319 1 46.8059 17.5523 0.366432 46.8059 17.5523 0.366432
320 2 48.7533 17.6622 1.79647 48.7533 17.6622 1.79647
321 2 48.5465 17.3678 -1.39692 48.5465 17.3678 -1.39692
322 1 49.6967 19.1971 -0.0349803 49.6967 19.1971 -0.0349803
323 2 51.405 19.4465 1.80571 51.405 19.4465 1.80571
324 2 51.6366 18.9008 -1.48132 51.6366 18.9008 -1.48132
325 1 1.15258 20.7754 -0.0288597 1.15258 20.7754 -0.0288597
326 2 3.08248 20.914 1.61305 3.08248 20.914 1.61305
327 2 3.04281 20.8242 -1.57027 3.04281 20.8242 -1.57027
328 1 4.03468 22.4682 -0.0751898 4.03468 22.4682 -0.0751898
329 2 5.97393 22.57 1.51694 5.97393 22.57 1.51694
330 2 5.91762 22.2516 -1.69938 5.91762 22.2516 -1.69938
331 1 6.88336 20.7929 0.0304335 6.88336 20.7929 0.0304335
332 2 9.04376 20.9686 1.50172 9.04376 20.9686 1.50172
333 2 8.5792 20.6881 -1.75302 8.5792 20.6881 -1.75302
334 1 9.78358 22.4086 -0.339762 9.78358 22.4086 -0.339762
335 2 11.6895 22.435 1.30094 11.6895 22.435 1.30094
336 2 11.6965 22.3707 -2.02591 11.6965 22.3707 -2.02591
337 1 12.6536 20.797 -0.273688 12.6536 20.797 -0.273688
338 2 14.5147 20.8946 1.24603 14.5147 20.8946 1.24603
339 2 14.3704 20.5039 -1.96026 14.3704 20.5039 -1.96026
340 1 15.4406 22.3215 -0.598979 15.4406 22.3215 -0.598979
341 2 17.2942 22.395 1.20362 17.2942 22.395 1.20362
342 2 17.3562 22.3009 -2.17763 17.3562 22.3009 -2.17763
343 1 18.2839 20.737 -0.46265 18.2839 20.737 -0.46265
344 2 20.1695 20.8074 1.2141 20.1695 20.8074 1.2141
345 2 20.1551 20.7614 -2.04384 20.1551 20.7614 -2.04384
346 1 21.0372 22.5142 -0.506558 21.0372 22.5142 -0.506558
347 2 22.9721 22.4528 1.08565 22.9721 22.4528 1.08565
348 2 22.8474 22.3717 -2.23871 22.8474 22.3717 -2.23871
349 1 23.9607 20.8184 -0.629465 23.9607 20.8184 -0.629465
350 2 25.6782 20.7817 1.10631 25.6782 20.7817 1.10631
351 2 25.9491 20.7071 -2.17135 25.9491 20.7071 -2.17135
352 1 26.8378 22.4424 -0.602029 26.8378 22.4424 -0.602029
353 2 28.744 22.2899 1.00113 28.744 22.2899 1.00113
354 2 28.6947 22.4617 -2.24224 28.6947 22.4617 -2.24224
355 1 29.6213 20.7166 -0.652062 29.6213 20.7166 -0.652062
356 2 31.5435 20.938 0.967245 31.5435 20.938 0.967245
357 2 31.4968 20.7214 -2.36315 31.4968 20.7214 -2.36315
358 1 32.456 22.5505 -0.772179 32.456 22.5505 -0.772179
359 2 34.1189 22.5469 0.982086 34.1189 22.5469 0.982086
360 2 34.5545 22.5128 -2.26694 34.5545 22.5128 -2.26694
361 1 35.2576 20.8519 -0.641749 35.2576 20.8519 -0.641749
362 2 36.8606 20.9451 1.28073 36.8606 20.9451 1.28073
363 2 37.4436 20.7068 -1.80816 37.4436 20.7068 -1.80816
364 1 38.1602 22.5601 -0.208885 38.1602 22.5601 -0.208885
365 2 39.9033 22.6772 1.54438 39.9033 22.6772 1.54438
366 2 40.1849 22.3378 -1.68104 40.1849 22.3378 -1.68104
367 1 40.9584 20.7992 0.0952878 40.9584 20.7992 0.0952878
368 2 42.7949 21.0654 1.87421 42.7949 21.0654 1.87421
369 2 42.8991 20.6531 -1.37563 42.8991 20.6531 -1.37563
370 1 43.8714 22.5713 0.141621 43.8714 22.5713 0.141621
371 2 45.945 22.5043 1.66892 45.945 22.5043 1.66892
372 2 45.6571 22.4331 -1.62699 45.6571 22.4331 -1.62699
373 1 46.7091 20.7627 -0.0335552 46.7091 20.7627 -0.0335552
374 2 48.633 20.8582 1.60781 48.633 20.8582 1.60781
375 2 48.7186 20.8066 -1.65631 48.7186 20.8066 -1.65631
376 1 49.601 22.4986 -0.0529312 49.601 22.4986 -0.0529312
377 2 51.609 22.4863 1.53453 51.609 22.4863 1.53453
378 2 51.5657 22.2522 -1.82326 51.5657 22.2522 -1.82326
379 1 1.06164 24.1187 -0.304673 1.06164 24.1187 -0.304673
380 2 2.98321 24.1693 1.47306 2.98321 24.1693 1.47306
381 2 3.07075 24.0345 -1.82028 3.07075 24.0345 -1.82028
382 1 4.0016 25.7167 -0.286006 4.0016 25.7167 -0.286006
383 2 5.84643 25.6093 1.37726 5.84643 25.6093 1.37726
384 2 6.02914 25.8744 -1.88337 6.02914 25.8744 -1.88337
385 1 6.87507 24.0678 -0.262423 6.87507 24.0678 -0.262423
386 2 8.80642 24.0462 1.37705 8.80642 24.0462 1.37705
387 2 8.71552 24.1803 -1.80484 8.71552 24.1803 -1.80484
388 1 9.76597 25.8148 -0.140654 9.76597 25.8148 -0.140654
389 2 11.9333 25.6565 1.44425 11.9333 25.6565 1.44425
390 2 11.6122 25.9072 -1.856 11.6122 25.9072 -1.856
391 1 12.6305 24.1209 -0.418769 12.6305 24.1209 -0.418769
392 2 14.4269 23.8606 1.27832 14.4269 23.8606 1.27832
393 2 14.5863 24.3717 -1.97568 14.5863 24.3717 -1.97568
394 1 15.4379 25.8772 -0.1528 15.4379 25.8772 -0.1528
395 2 17.4107 25.6624 1.3047 17.4107 25.6624 1.3047
396 2 17.2346 25.8712 -1.92382 17.2346 25.8712 -1.92382
397 1 18.1683 24.0899 -0.410027 18.1683 24.0899 -0.410027
398 2 20.1278 24.1981 1.14371 20.1278 24.1981 1.14371
399 2 20.1614 24.179 -1.99415 20.1614 24.179 -1.99415
400 1 21.1148 25.7952 -0.373196 21.1148 25.7952 -0.373196
401 2 23.1454 25.7286 1.04953 23.1454 25.7286 1.04953
402 2 22.849 25.7263 -2.14108 22.849 25.7263 -2.14108
403 1 23.9119 24.0877 -0.636689 23.9119 24.0877 -0.636689
404 2 25.7842 23.9897 1.05364 25.7842 23.9897 1.05364
405 2 25.9074 24.1758 -2.18704 25.9074 24.1758 -2.18704
406 1 26.7586 25.7131 -0.410181 26.7586 25.7131 -0.410181
407 2 28.7422 25.4937 1.16103 28.7422 25.4937 1.16103
408 2 28.6027 25.8493 -2.11058 28.6027 25.8493 -2.11058
409 1 29.6747 24.0766 -0.687129 29.6747 24.0766 -0.687129
410 2 31.5949 23.968 1.03045 31.5949 23.968 1.03045
411 2 31.5264 24.2455 -2.37553 31.5264 24.2455 -2.37553
412 1 32.5513 25.7385 -0.559439 32.5513 25.7385 -0.559439
413 2 34.3712 25.7283 1.10028 34.3712 25.7283 1.10028
414 2 34.496 25.8001 -2.1239 34.496 25.8001 -2.1239
415 1 35.3112 24.1442 -0.506442 35.3112 24.1442 -0.506442
416 2 37.0024 24.0932 1.37549 37.0024 24.0932 1.37549
417 2 37.3921 24.1523 -1.88784 37.3921 24.1523 -1.88784
418 1 38.1698 25.7711 -0.117 38.1698 25.7711 -0.117
419 2 40.1646 25.8942 1.42163 40.1646 25.8942 1.42163
420 2 39.9803 25.6945 -1.82701 39.9803 25.6945 -1.82701
421 1 40.9834 24.1419 -0.187536 40.9834 24.1419 -0.187536
422 2 42.9016 24.3883 1.50139 42.9016 24.3883 1.50139
423 2 42.9887 23.8722 -1.73915 42.9887 23.8722 -1.73915
424 1 43.8541 25.6851 -0.280293 43.8541 25.6851 -0.280293
425 2 45.5976 25.8905 1.58275 45.5976 25.8905 1.58275
426 2 45.9215 25.8449 -1.65201 45.9215 25.8449 -1.65201
427 1 46.7612 24.14 -0.0362358 46.7612 24.14 -0.0362358
428 2 48.6026 24.0966 1.60515 48.6026 24.0966 1.60515
429 2 48.6377 24.0808 -1.66574 48.6377 24.0808 -1.66574
430 1 49.556 25.7294 -0.0485734 49.556 25.7294 -0.0485734
431 2 51.4572 25.592 1.44768 51.4572 25.592 1.44768
432 2 51.3384 25.789 -1.90097 51.3384 25.789 -1.90097
433 1 1.11553 27.2949 -0.243466 1.11553 27.2949 -0.243466
434 2 3.17477 27.4091 1.36294 3.17477 27.4091 1.36294
435 2 3.01249 27.3671 -1.84394 3.01249 27.3671 -1.84394
436 1 3.93637 29.1063 -0.199565 3.93637 29.1063 -0.199565
437 2 5.8876 29.189 1.51889 5.8876 29.189 1.51889
438 2 5.84103 29.0828 -1.79925 5.84103 29.0828 -1.79925
439 1 6.83023 27.4791 -0.131807 6.83023 27.4791 -0.131807
440 2 8.75593 27.4503 1.44662 8.75593 27.4503 1.44662
441 2 8.7184 27.464 -1.78209 8.7184 27.464 -1.78209
442 1 9.72926 29.0206 -0.0989284 9.72926 29.0206 -0.0989284
443 2 11.6018 29.271 1.46808 11.6018 29.271 1.46808
444 2 11.6259 28.8771 -1.71869 11.6259 28.8771 -1.71869
445 1 12.6248 27.4633 -0.0575327 12.6248 27.4633 -0.0575327
446 2 14.5844 27.5124 1.49587 14.5844 27.5124 1.49587
447 2 14.4006 27.4776 -1.77342 14.4006 27.4776 -1.77342
448 1 15.434 29.1248 -0.280945 15.434 29.1248 -0.280945
449 2 17.3101 29.2936 1.2879 17.3101 29.2936 1.2879
450 2 17.2962 29.1419 -1.92096 17.2962 29.1419 -1.92096
451 1 18.227 27.4155 -0.289145 18.227 27.4155 -0.289145
452 2 20.2355 27.3774 1.26687 20.2355 27.3774 1.26687
453 2 20.2065 27.4379 -2.00486 20.2065 27.4379 -2.00486
454 1 21.0722 29.0819 -0.37776 21.0722 29.0819 -0.37776
455 2 23.0459 28.8745 1.08982 23.0459 28.8745 1.08982
456 2 22.8166 29.1904 -2.08019 22.8166 29.1904 -2.08019
457 1 23.867 27.448 -0.620518 23.867 27.448 -0.620518
458 2 25.6143 27.2212 1.25069 25.6143 27.2212 1.25069
459 2 26.0044 27.4407 -1.9468 26.0044 27.4407 -1.9468
460 1 26.8363 29.0638 -0.120685 26.8363 29.0638 -0.120685
461 2 28.8396 28.9655 1.47725 28.8396 28.9655 1.47725
462 2 28.6539 29.0928 -1.87028 28.6539 29.0928 -1.87028
463 1 29.5465 27.3259 -0.277924 29.5465 27.3259 -0.277924
464 2 31.6395 27.2752 1.14545 31.6395 27.2752 1.14545
465 2 31.3058 27.4296 -2.06017 31.3058 27.4296 -2.06017
466 1 32.4923 28.9933 -0.416446 32.4923 28.9933 -0.416446
467 2 34.3322 28.8164 1.34322 34.3322 28.8164 1.34322
468 2 34.5157 29.1979 -1.86285 34.5157 29.1979 -1.86285
469 1 35.36 27.4066 -0.446967 35.36 27.4066 -0.446967
470 2 37.0943 27.622 1.23486 37.0943 27.622 1.23486
471 2 37.2916 27.3685 -2.10788 37.2916 27.3685 -2.10788
472 1 38.1079 29.0429 -0.404809 38.1079 29.0429 -0.404809
473 2 39.9964 28.9943 1.29666 39.9964 28.9943 1.29666
474 2 40.0798 29.111 -2.00655 40.0798 29.111 -2.00655
475 1 41.0677 27.4703 -0.429999 41.0677 27.4703 -0.429999
476 2 42.9149 27.4106 1.26995 42.9149 27.4106 1.26995
477 2 43.0428 27.3357 -1.96763 43.0428 27.3357 -1.96763
478 1 43.8893 29.0285 -0.341674 43.8893 29.0285 -0.341674
479 2 45.6135 29.1469 1.43095 45.6135 29.1469 1.43095
480 2 45.9482 29.032 -1.79514 45.9482 29.032 -1.79514
481 1 46.7585 27.5144 0.0204449 46.7585 27.5144 0.0204449
482 2 48.6378 27.3467 1.68463 48.6378 27.3467 1.68463
483 2 48.5871 27.4009 -1.6192 48.5871 27.4009 -1.6192
484 1 49.5789 29.0631 -0.00425072 49.5789 29.0631 -0.00425072
485 2 51.4602 28.9429 1.44787 51.4602 28.9429 1.44787
486 2 51.3797 29.0099 -1.73319 51.3797 29.0099 -1.73319
487 1 1.16114 30.6132 -0.0540874 1.16114 30.6132 -0.0540874
488 2 3.0297 30.6852 1.54475 3.0297 30.6852 1.54475
489 2 2.98584 30.8219 -1.76164 2.98584 30.8219 -1.76164
490 1 4.00561 32.3884 -0.162224 4.00561 32.3884 -0.162224
491 2 5.84195 32.3112 1.50733 5.84195 32.3112 1.50733
492 2 5.94616 32.522 -1.80616 5.94616 32.522 -1.80616
493 1 6.73445 30.7716 -0.140958 6.73445 30.7716 -0.140958
494 2 8.58614 30.7017 1.57404 8.58614 30.7017 1.57404
495 2 8.7481 30.7601 -1.69144 8.7481 30.7601 -1.69144
496 1 9.70615 32.345 -0.0242941 9.70615 32.345 -0.0242941
497 2 11.8471 32.5069 1.29837 11.8471 32.5069 1.29837
498 2 11.3446 32.264 -1.91508 11.3446 32.264 -1.91508
499 1 12.5632 30.7543 -0.442793 12.5632 30.7543 -0.442793
500 2 14.4163 30.7558 1.22211 14.4163 30.7558 1.22211
501 2 14.5408 30.606 -2.06697 14.5408 30.606 -2.06697
502 1 15.4703 32.3636 -0.459461 15.4703 32.3636 -0.459461
503 2 17.3342 32.403 1.19646 17.3342 32.403 1.19646
504 2 17.2722 32.3988 -2.07926 17.2722 32.3988 -2.07926
505 1 18.2165 30.8285 -0.470534 18.2165 30.8285 -0.470534
506 2 20.0875 30.7559 1.17476 20.0875 30.7559 1.17476
507 2 20.1682 30.6837 -2.18074 20.1682 30.6837 -2.18074
508 1 21.0438 32.3492 -0.566652 21.0438 32.3492 -0.566652
509 2 22.7974 32.1965 1.15165 22.7974 32.1965 1.15165
510 2 23.1544 32.398 -2.05923 23.1544 32.398 -2.05923
511 1 23.8691 30.6465 -0.433109 23.8691 30.6465 -0.433109
512 2 25.5846 30.7789 1.33595 25.5846 30.7789 1.33595
513 2 25.9357 30.6547 -1.9001 25.9357 30.6547 -1.9001
514 1 26.847 32.236 -0.282109 26.847 32.236 -0.282109
515 2 28.6238 32.269 1.474 28.6238 32.269 1.474
516 2 28.8336 32.2809 -1.8511 28.8336 32.2809 -1.8511
517 1 29.6609 30.526 -0.157396 29.6609 30.526 -0.157396
518 2 31.5182 30.4516 1.46049 31.5182 30.4516 1.46049
519 2 31.5522 30.7416 -1.85587 31.5522 30.7416 -1.85587
520 1 32.434 32.2492 0.00693897 32.434 32.2492 0.00693897
521 2 34.3615 32.3184 1.55851 34.3615 32.3184 1.55851
522 2 34.2856 32.2145 -1.63561 34.2856 32.2145 -1.63561
523 1 35.3353 30.6713 0.00167877 35.3353 30.6713 0.00167877
524 2 37.3809 30.6823 1.36446 37.3809 30.6823 1.36446
525 2 36.9231 30.8543 -1.83586 36.9231 30.8543 -1.83586
526 1 38.145 32.346 -0.239722 38.145 32.346 -0.239722
527 2 40.1084 32.4331 1.35596 40.1084 32.4331 1.35596
528 2 40.0562 32.3638 -1.85947 40.0562 32.3638 -1.85947
529 1 41.0422 30.6802 -0.201158 41.0422 30.6802 -0.201158
530 2 42.9374 30.6483 1.38896 42.9374 30.6483 1.38896
531 2 42.8844 30.663 -1.95767 42.8844 30.663 -1.95767
532 1 43.9285 32.2799 -0.312252 43.9285 32.2799 -0.312252
533 2 45.6273 32.3055 1.4341 45.6273 32.3055 1.4341
534 2 45.9408 32.1801 -1.84579 45.9408 32.1801 -1.84579
535 1 46.7645 30.6487 -0.160981 46.7645 30.6487 -0.160981
536 2 48.59 30.7737 1.4263 48.59 30.7737 1.4263
537 2 48.71 30.6467 -1.80572 48.71 30.6467 -1.80572
538 1 49.5564 32.3393 -0.300697 49.5564 32.3393 -0.300697
539 2 51.3753 32.4121 1.38868 51.3753 32.4121 1.38868