ITEM: TIMESTEP
28300
ITEM: NUMBER OF ATOMS
810
ITEM: BOX BOUNDS pp pp pp
8.4137701477268123e-01 5.2176227985227342e+01
8.0961581116522285e-01 5.0206599188834083e+01
-1.0000000000000000e+01 1.0000000000000000e+01
ITEM: ATOMS id type x y z xu yu zu
1 1 1.13258 1.07986 0.40243 1.13258 1.07986 0.40243
2 2 2.9728 1.04627 2.03518 2.9728 1.04627 2.03518
3 2 3.02264 1.19346 -1.26055 3.02264 1.19346 -1.26055
4 1 3.92965 2.791 0.435447 3.92965 2.791 0.435447
5 2 6.0696 2.63387 1.86291 6.0696 2.63387 1.86291
6 2 5.76778 2.7661 -1.29949 5.76778 2.7661 -1.29949
7 1 6.868 1.07095 0.152025 6.868 1.07095 0.152025
8 2 8.82492 0.975492 1.76419 8.82492 0.975492 1.76419
9 2 8.65937 1.15819 -1.5906 8.65937 1.15819 -1.5906
10 1 9.60927 2.65901 0.0639532 9.60927 2.65901 0.0639532
11 2 11.6211 2.70713 1.59719 11.6211 2.70713 1.59719
12 2 11.4426 2.63648 -1.71821 11.4426 2.63648 -1.71821
13 1 12.4813 1.05373 -0.124697 12.4813 1.05373 -0.124697
14 2 14.2655 0.967393 1.6099 14.2655 0.967393 1.6099
15 2 14.3933 1.00073 -1.70024 14.3933 1.00073 -1.70024
16 1 15.3313 2.66464 0.00823102 15.3313 2.66464 0.00823102
17 2 17.4628 2.6216 1.54497 17.4628 2.6216 1.54497
18 2 17.2189 2.78567 -1.85384 17.2189 2.78567 -1.85384
19 1 18.2792 0.98006 -0.3091 18.2792 0.98006 -0.3091
20 2 20.1872 1.20843 1.31949 20.1872 1.20843 1.31949
21 2 20.1923 0.985885 -1.95622 20.1923 0.985885 -1.95622
22 1 21.1432 2.70454 -0.438437 21.1432 2.70454 -0.438437
23 2 23.0862 2.63058 1.20426 23.0862 2.63058 1.20426
24 2 23.0233 2.67539 -2.11575 23.0233 2.67539 -2.11575
25 1 23.9211 1.03675 -0.517512 23.9211 1.03675 -0.517512
26 2 25.8235 1.10619 1.04342 25.8235 1.10619 1.04342
27 2 25.7406 0.944406 -2.19294 25.7406 0.944406 -2.19294
28 1 26.8113 2.74287 -0.699086 26.8113 2.74287 -0.699086
29 2 28.5473 2.60953 1.06955 28.5473 2.60953 1.06955
30 2 28.7211 2.6929 -2.22749 28.7211 2.6929 -2.22749
31 1 29.5898 1.06373 -0.555069 29.5898 1.06373 -0.555069
32 2 31.4462 1.07639 1.10866 31.4462 1.07639 1.10866
33 2 31.6341 1.07175 -2.11278 31.6341 1.07175 -2.11278
34 1 32.5587 2.75121 -0.506996 32.5587 2.75121 -0.506996
35 2 34.3687 2.72177 1.14466 34.3687 2.72177 1.14466
36 2 34.3122 2.80893 -2.10799 34.3122 2.80893 -2.10799
37 1 35.2724 1.10919 -0.497827 35.2724 1.10919 -0.497827
38 2 37.1507 1.02592 1.11266 37.1507 1.02592 1.11266
39 2 37.2347 1.15676 -2.12885 37.2347 1.15676 -2.12885
40 1 38.2114 2.70092 -0.51793 38.2114 2.70092 -0.51793
41 2 39.9509 2.56345 1.24073 39.9509 2.56345 1.24073
42 2 40.1204 2.95947 -1.98735 40.1204 2.95947 -1.98735
43 1 40.9979 1.11012 -0.412324 40.9979 1.11012 -0.412324
44 2 42.6177 1.09288 1.55558 42.6177 1.09288 1.55558
45 2 43.1433 1.21227 -1.59762 43.1433 1.21227 -1.59762
46 1 43.814 2.81783 0.269712 43.814 2.81783 0.269712
47 2 45.5338 2.46935 2.04769 45.5338 2.46935 2.04769
48 2 45.9549 2.95562 -1.16836 45.9549 2.95562 -1.16836
49 1 46.6584 1.01884 0.381817 46.6584 1.01884 0.381817
50 2 48.5434 1.04634 2.04371 48.5434 1.04634 2.04371
51 2 48.6782 1.00777 -1.19514 48.6782 1.00777 -1.19514
52 1 49.5818 2.64144 0.486519 49.5818 2.64144 0.486519
53 2 51.495 2.61631 2.08132 51.495 2.61631 2.08132
54 2 51.4509 2.8325 -1.13667 51.4509 2.8325 -1.13667
55 1 0.999576 4.42378 0.640891 0.999576 4.42378 0.640891
56 2 2.99732 4.33772 2.10498 2.99732 4.33772 2.10498
57 2 2.80966 4.49171 -1.07979 2.80966 4.49171 -1.07979
58 1 3.99269 6.09684 0.468484 3.99269 6.09684 0.468484
59 2 5.99268 6.02036 2.00197 5.99268 6.02036 2.00197
60 2 5.78176 6.11953 -1.25091 5.78176 6.11953 -1.25091
61 1 6.76756 4.32207 0.225948 6.76756 4.32207 0.225948
62 2 8.66486 4.1689 1.88133 8.66486 4.1689 1.88133
63 2 8.59571 4.34305 -1.39708 8.59571 4.34305 -1.39708
64 1 9.63721 5.92182 0.218287 9.63721 5.92182 0.218287
65 2 11.72 5.82875 1.64716 11.72 5.82875 1.64716
66 2 11.3713 6.15421 -1.66831 11.3713 6.15421 -1.66831
67 1 12.447 4.41026 -0.223506 12.447 4.41026 -0.223506
68 2 14.2986 4.38438 1.47727 14.2986 4.38438 1.47727
69 2 14.5074 4.28845 -1.61623 14.5074 4.28845 -1.61623
70 1 15.4228 5.9417 -0.0340013 15.4228 5.9417 -0.0340013
71 2 17.2752 5.94773 1.60142 17.2752 5.94773 1.60142
72 2 17.2426 6.08657 -1.71199 17.2426 6.08657 -1.71199
73 1 18.2005 4.36721 -0.116196 18.2005 4.36721 -0.116196
74 2 20.225 4.25753 1.35202 20.225 4.25753 1.35202
75 2 19.9244 4.42627 -1.92806 19.9244 4.42627 -1.92806
76 1 21.0796 5.99702 -0.298517 21.0796 5.99702 -0.298517
77 2 23.0331 5.96752 1.17292 23.0331 5.96752 1.17292
78 2 22.8663 6.08877 -2.10097 22.8663 6.08877 -2.10097
79 1 23.9814 4.35559 -0.470988 23.9814 4.35559 -0.470988
80 2 25.982 4.37086 1.00752 25.982 4.37086 1.00752
81 2 25.6503 4.36493 -2.2477 25.6503 4.36493 -2.2477
82 1 26.8235 6.0255 -0.682732 26.8235 6.0255 -0.682732
83 2 28.7689 6.1619 1.00266 28.7689 6.1619 1.00266
84 2 28.6889 5.8019 -2.36958 28.6889 5.8019 -2.36958
85 1 29.6286 4.32159 -0.58448 29.6286 4.32159 -0.58448
86 2 31.4217 4.35116 1.10945 31.4217 4.35116 1.10945
87 2 31.6121 4.37562 -2.1478 31.6121 4.37562 -2.1478
88 1 32.4572 5.99078 -0.51099 32.4572 5.99078 -0.51099
89 2 34.3863 6.09689 1.1371 34.3863 6.09689 1.1371
90 2 34.363 5.90241 -2.17842 34.363 5.90241 -2.17842
91 1 35.3393 4.3272 -0.456652 35.3393 4.3272 -0.456652
92 2 37.2491 4.21003 1.21203 37.2491 4.21003 1.21203
93 2 37.1392 4.36973 -2.08448 37.1392 4.36973 -2.08448
94 1 38.2257 6.04797 -0.376693 38.2257 6.04797 -0.376693
95 2 39.9605 5.88027 1.56007 39.9605 5.88027 1.56007
96 2 40.3952 6.13851 -1.68029 40.3952 6.13851 -1.68029
97 1 41.071 4.41031 -0.130259 41.071 4.41031 -0.130259
98 2 42.6905 4.22049 1.96119 42.6905 4.22049 1.96119
99 2 43.1813 4.65745 -1.33485 43.1813 4.65745 -1.33485
100 1 43.8929 6.01775 0.656339 43.8929 6.01775 0.656339
101 2 45.7863 6.11678 2.32597 45.7863 6.11678 2.32597
102 2 45.8179 5.89356 -0.965437 45.8179 5.89356 -0.965437
103 1 46.6373 4.33967 0.748375 46.6373 4.33967 0.748375
104 2 48.635 4.01521 2.27792 48.635 4.01521 2.27792
105 2 48.6212 4.53002 -0.844883 48.6212 4.53002 -0.844883
106 1 49.5263 5.96713 0.919245 49.5263 5.96713 0.919245
107 2 51.524 6.03366 2.31378 51.524 6.03366 2.31378
108 2 51.3575 6.01341 -0.937371 51.3575 6.01341 -0.937371
109 1 1.0341 7.69041 0.601922 1.0341 7.69041 0.601922
110 2 3.01799 7.66936 2.20054 3.01799 7.66936 2.20054
111 2 3.12661 7.8178 -1.04717 3.12661 7.8178 -1.04717
112 1 4.00474 9.25503 0.648927 4.00474 9.25503 0.648927
113 2 6.03843 9.23161 2.25279 6.03843 9.23161 2.25279
114 2 5.86816 9.35983 -1.06858 5.86816 9.35983 -1.06858
115 1 6.89157 7.63931 0.514218 6.89157 7.63931 0.514218
116 2 9.0228 7.62181 1.91397 9.0228 7.62181 1.91397
117 2 8.58524 7.59183 -1.31053 8.58524 7.59183 -1.31053
118 1 9.67916 9.31032 0.161215 9.67916 9.31032 0.161215
119 2 11.6278 9.25286 1.77374 11.6278 9.25286 1.77374
120 2 11.4825 9.12495 -1.53727 11.4825 9.12495 -1.53727
121 1 12.5174 7.56591 0.134948 12.5174 7.56591 0.134948
122 2 14.6081 7.48467 1.66896 14.6081 7.48467 1.66896
123 2 14.266 7.53935 -1.57357 14.266 7.53935 -1.57357
124 1 15.4361 9.18108 0.105666 15.4361 9.18108 0.105666
125 2 17.3735 9.36269 1.62128 17.3735 9.36269 1.62128
126 2 17.3318 9.19968 -1.65106 17.3318 9.19968 -1.65106
127 1 18.244 7.645 -0.0368626 18.244 7.645 -0.0368626
128 2 20.4754 7.64733 1.37484 20.4754 7.64733 1.37484
129 2 19.9757 7.54704 -1.89062 19.9757 7.54704 -1.89062
130 1 21.1103 9.31418 -0.442406 21.1103 9.31418 -0.442406
131 2 23.0303 9.24315 1.09352 23.0303 9.24315 1.09352
132 2 23.0065 9.27259 -2.11272 23.0065 9.27259 -2.11272
133 1 23.9663 7.63013 -0.492933 23.9663 7.63013 -0.492933
134 2 26.0119 7.66543 0.973286 26.0119 7.66543 0.973286
135 2 25.7582 7.67646 -2.25747 25.7582 7.67646 -2.25747
136 1 26.8459 9.29467 -0.721154 26.8459 9.29467 -0.721154
137 2 28.7723 9.19898 0.69616 28.7723 9.19898 0.69616
138 2 28.591 9.19566 -2.5044 28.591 9.19566 -2.5044
139 1 29.6238 7.63581 -0.950887 29.6238 7.63581 -0.950887
140 2 31.3608 7.77939 0.80831 31.3608 7.77939 0.80831
141 2 31.6397 7.47862 -2.39986 31.6397 7.47862 -2.39986
142 1 32.4114 9.28845 -0.876361 32.4114 9.28845 -0.876361
143 2 34.2172 9.29402 0.948387 34.2172 9.29402 0.948387
144 2 34.4287 9.43558 -2.25741 34.4287 9.43558 -2.25741
145 1 35.3675 7.71804 -0.603773 35.3675 7.71804 -0.603773
146 2 37.0766 7.5284 1.34782 37.0766 7.5284 1.34782
147 2 37.3874 7.85527 -1.97156 37.3874 7.85527 -1.97156
148 1 38.1257 9.3551 0.0257994 38.1257 9.3551 0.0257994
149 2 39.923 9.33199 1.67132 39.923 9.33199 1.67132
150 2 40.1182 9.31894 -1.61237 40.1182 9.31894 -1.61237
151 1 41.0606 7.70671 0.180283 41.0606 7.70671 0.180283
152 2 42.7666 7.82272 1.98377 42.7666 7.82272 1.98377
153 2 43.1129 7.57269 -1.14528 43.1129 7.57269 -1.14528
154 1 43.808 9.32328 0.379362 43.808 9.32328 0.379362
155 2 45.5965 9.26682 2.16088 45.5965 9.26682 2.16088
156 2 45.8321 9.11183 -1.01349 45.8321 9.11183 -1.01349
157 1 46.7166 7.668 0.676559 46.7166 7.668 0.676559
158 2 48.5912 7.84785 2.36157 48.5912 7.84785 2.36157
159 2 48.5976 7.52645 -0.86709 48.5976 7.52645 -0.86709
160 1 49.5635 9.3536 0.569118 49.5635 9.3536 0.569118
161 2 51.5106 9.2355 2.22803 51.5106 9.2355 2.22803
162 2 51.5634 9.3634 -1.05011 51.5634 9.3634 -1.05011
163 1 1.07274 10.9084 0.599305 1.07274 10.9084 0.599305
164 2 3.03793 11.0088 2.24163 3.03793 11.0088 2.24163
165 2 3.08469 10.7503 -0.992092 3.08469 10.7503 -0.992092
166 1 3.99579 12.5158 0.510637 3.99579 12.5158 0.510637
167 2 5.96768 12.6893 2.16202 5.96768 12.6893 2.16202
168 2 5.88898 12.4548 -1.09726 5.88898 12.4548 -1.09726
169 1 6.85672 10.9688 0.695319 6.85672 10.9688 0.695319
170 2 9.03648 10.8846 1.99029 9.03648 10.8846 1.99029
171 2 8.46182 10.9153 -1.28459 8.46182 10.9153 -1.28459
172 1 9.62914 12.5423 0.275869 9.62914 12.5423 0.275869
173 2 11.7352 12.6719 1.68472 11.7352 12.6719 1.68472
174 2 11.3664 12.2322 -1.44894 11.3664 12.2322 -1.44894
175 1 12.5929 10.8123 0.0962623 12.5929 10.8123 0.0962623
176 2 14.4339 10.7564 1.82536 14.4339 10.7564 1.82536
177 2 14.4942 10.9344 -1.44373 14.4942 10.9344 -1.44373
178 1 15.4353 12.5404 0.281568 15.4353 12.5404 0.281568
179 2 17.6001 12.4971 1.59961 17.6001 12.4971 1.59961
180 2 17.0825 12.4148 -1.61448 17.0825 12.4148 -1.61448
181 1 18.2369 10.8294 -0.0825791 18.2369 10.8294 -0.0825791
182 2 20.318 10.8686 1.28041 20.318 10.8686 1.28041
183 2 20.0006 10.9717 -1.92284 20.0006 10.9717 -1.92284
184 1 21.1579 12.5097 -0.339288 21.1579 12.5097 -0.339288
185 2 23.1968 12.3817 1.18205 23.1968 12.3817 1.18205
186 2 22.8244 12.6753 -2.08785 22.8244 12.6753 -2.08785
187 1 23.9089 10.8749 -0.61008 23.9089 10.8749 -0.61008
188 2 25.9595 10.902 0.98459 25.9595 10.902 0.98459
189 2 25.83 10.828 -2.39779 25.83 10.828 -2.39779
190 1 26.7668 12.5529 -0.736614 26.7668 12.5529 -0.736614
191 2 28.6801 12.3679 0.860673 28.6801 12.3679 0.860673
192 2 28.6347 12.6324 -2.44836 28.6347 12.6324 -2.44836
193 1 29.6646 10.9075 -0.912649 29.6646 10.9075 -0.912649
194 2 31.4884 10.854 0.763482 31.4884 10.854 0.763482
195 2 31.5087 10.9113 -2.50164 31.5087 10.9113 -2.50164
196 1 32.4334 12.5815 -0.869348 32.4334 12.5815 -0.869348
197 2 34.2217 12.5483 1.00421 34.2217 12.5483 1.00421
198 2 34.6404 12.5539 -2.25658 34.6404 12.5539 -2.25658
199 1 35.3177 10.9671 -0.500873 35.3177 10.9671 -0.500873
200 2 36.9849 11.0642 1.43881 36.9849 11.0642 1.43881
201 2 37.5679 10.8624 -1.7761 37.5679 10.8624 -1.7761
202 1 38.1032 12.602 -0.0344964 38.1032 12.602 -0.0344964
203 2 40.0409 12.5925 1.70802 40.0409 12.5925 1.70802
204 2 39.9641 12.5598 -1.69558 39.9641 12.5598 -1.69558
205 1 40.9862 10.9589 0.025973 40.9862 10.9589 0.025973
206 2 42.8935 11.1528 1.82684 42.8935 11.1528 1.82684
207 2 42.8869 10.7516 -1.54544 42.8869 10.7516 -1.54544
208 1 43.8325 12.6205 -0.0756326 43.8325 12.6205 -0.0756326
209 2 45.4032 12.7842 1.88104 45.4032 12.7842 1.88104
210 2 45.9313 12.5481 -1.39697 45.9313 12.5481 -1.39697
211 1 46.6412 11.01 0.499033 46.6412 11.01 0.499033
212 2 48.6681 11.0267 2.22467 48.6681 11.0267 2.22467
213 2 48.5483 10.8922 -1.10888 48.5483 10.8922 -1.10888
214 1 49.5298 12.6394 0.464083 49.5298 12.6394 0.464083
215 2 51.4715 12.6624 2.06963 51.4715 12.6624 2.06963
216 2 51.5172 12.4972 -1.17876 51.5172 12.4972 -1.17876
217 1 1.06861 14.1896 0.401948 1.06861 14.1896 0.401948
218 2 3.02097 14.2415 2.09369 3.02097 14.2415 2.09369
219 2 3.09472 14.0775 -1.16959 3.09472 14.0775 -1.16959
220 1 4.00467 15.8308 0.380347 4.00467 15.8308 0.380347
221 2 5.87206 16.0651 2.05752 5.87206 16.0651 2.05752
222 2 5.98724 15.7298 -1.25045 5.98724 15.7298 -1.25045
223 1 6.87413 14.2925 0.529895 6.87413 14.2925 0.529895
224 2 8.88828 14.2789 2.02839 8.88828 14.2789 2.02839
225 2 8.61182 14.1162 -1.31734 8.61182 14.1162 -1.31734
226 1 9.68756 15.8773 0.205704 9.68756 15.8773 0.205704
227 2 11.8148 15.9065 1.48235 11.8148 15.9065 1.48235
228 2 11.3543 15.572 -1.72008 11.3543 15.572 -1.72008
229 1 12.5515 14.1254 -0.127321 12.5515 14.1254 -0.127321
230 2 14.4423 14.4937 1.46966 14.4423 14.4937 1.46966
231 2 14.5325 13.8845 -1.7162 14.5325 13.8845 -1.7162
232 1 15.4231 15.9148 -0.462998 15.4231 15.9148 -0.462998
233 2 17.3243 16.116 1.19673 17.3243 16.116 1.19673
234 2 17.2696 15.7464 -2.0385 17.2696 15.7464 -2.0385
235 1 18.2121 14.2223 -0.283726 18.2121 14.2223 -0.283726
236 2 20.2941 14.1688 1.27209 20.2941 14.1688 1.27209
237 2 20.1481 14.241 -1.89877 20.1481 14.241 -1.89877
238 1 21.0725 15.8706 -0.376656 21.0725 15.8706 -0.376656
239 2 22.9811 15.9686 1.26263 22.9811 15.9686 1.26263
240 2 22.8784 15.8273 -2.0928 22.8784 15.8273 -2.0928
241 1 23.8789 14.1989 -0.357993 23.8789 14.1989 -0.357993
242 2 25.9496 14.0598 1.10952 25.9496 14.0598 1.10952
243 2 25.6471 14.2532 -2.11326 25.6471 14.2532 -2.11326
244 1 26.6988 15.8069 -0.521723 26.6988 15.8069 -0.521723
245 2 28.672 15.9278 0.981924 28.672 15.9278 0.981924
246 2 28.5197 15.862 -2.26553 28.5197 15.862 -2.26553
247 1 29.6019 14.2339 -0.66454 29.6019 14.2339 -0.66454
248 2 31.512 14.1898 0.878295 31.512 14.1898 0.878295
249 2 31.3609 14.2709 -2.38297 31.3609 14.2709 -2.38297
250 1 32.4464 15.866 -0.680413 32.4464 15.866 -0.680413
251 2 34.0926 15.7527 1.12849 34.0926 15.7527 1.12849
252 2 34.6081 15.9508 -2.01987 34.6081 15.9508 -2.01987
253 1 35.2644 14.1944 -0.406602 35.2644 14.1944 -0.406602
254 2 37.0111 14.3668 1.4971 37.0111 14.3668 1.4971
255 2 37.3102 14.2857 -1.82527 37.3102 14.2857 -1.82527
256 1 38.1121 15.9049 -0.1527 38.1121 15.9049 -0.1527
257 2 39.9617 15.8985 1.62757 39.9617 15.8985 1.62757
258 2 40.1098 15.9777 -1.63224 40.1098 15.9777 -1.63224
259 1 40.8883 14.2056 -0.0726818 40.8883 14.2056 -0.0726818
260 2 42.7106 14.084 1.57529 42.7106 14.084 1.57529
261 2 42.8611 14.3512 -1.59915 42.8611 14.3512 -1.59915
262 1 43.815 15.8144 0.132334 43.815 15.8144 0.132334
263 2 45.5704 15.9204 1.92388 45.5704 15.9204 1.92388
264 2 45.7274 15.9092 -1.45786 45.7274 15.9092 -1.45786
265 1 46.5905 14.2857 0.263299 46.5905 14.2857 0.263299
266 2 48.6125 14.3735 1.94425 48.6125 14.3735 1.94425
267 2 48.6854 14.2198 -1.33877 48.6854 14.2198 -1.33877
268 1 49.561 15.863 0.273368 49.561 15.863 0.273368
269 2 51.5132 15.893 2.02816 51.5132 15.893 2.02816
270 2 51.4106 15.774 -1.42025 51.4106 15.774 -1.42025
271 1 1.11679 17.5307 0.338687 1.11679 17.5307 0.338687
272 2 2.98311 17.5533 1.84481 2.98311 17.5533 1.84481
273 2 3.01683 17.3217 -1.34958 3.01683 17.3217 -1.34958
274 1 3.96349 19.0641 0.14437 3.96349 19.0641 0.14437
275 2 5.81586 19.0891 1.83329 5.81586 19.0891 1.83329
276 2 5.91469 19.0934 -1.43943 5.91469 19.0934 -1.43943
277 1 6.79135 17.5161 0.246362 6.79135 17.5161 0.246362
278 2 8.70109 17.5701 1.75309 8.70109 17.5701 1.75309
279 2 8.64915 17.336 -1.48416 8.64915 17.336 -1.48416
280 1 9.64954 19.1777 -0.0219911 9.64954 19.1777 -0.0219911
281 2 11.8869 19.1732 1.18965 11.8869 19.1732 1.18965
282 2 11.3326 19.036 -1.99616 11.3326 19.036 -1.99616
283 1 12.4373 17.4297 -0.489692 12.4373 17.4297 -0.489692
284 2 14.4733 17.7598 1.07622 14.4733 17.7598 1.07622
285 2 14.3062 17.3155 -2.22146 14.3062 17.3155 -2.22146
286 1 15.3143 19.1552 -0.843948 15.3143 19.1552 -0.843948
287 2 17.1331 19.2686 0.969701 17.1331 19.2686 0.969701
288 2 17.3128 19.1469 -2.38941 17.3128 19.1469 -2.38941
289 1 18.2242 17.5875 -0.605062 18.2242 17.5875 -0.605062
290 2 20.0828 17.6437 1.0388 20.0828 17.6437 1.0388
291 2 20.1199 17.4089 -2.16181 20.1199 17.4089 -2.16181
292 1 21.1477 19.1492 -0.713322 21.1477 19.1492 -0.713322
293 2 22.9308 19.2474 1.08325 22.9308 19.2474 1.08325
294 2 23.0067 19.1039 -2.28784 23.0067 19.1039 -2.28784
295 1 23.8623 17.5109 -0.510368 23.8623 17.5109 -0.510368
296 2 25.8555 17.6988 1.00665 25.8555 17.6988 1.00665
297 2 25.7874 17.3725 -2.2356 25.7874 17.3725 -2.2356
298 1 26.809 19.123 -0.787245 26.809 19.123 -0.787245
299 2 28.6244 19.118 0.918373 28.6244 19.118 0.918373
300 2 28.6607 19.2262 -2.42346 28.6607 19.2262 -2.42346
301 1 29.555 17.6338 -0.848265 29.555 17.6338 -0.848265
302 2 31.4095 17.3174 1.00135 31.4095 17.3174 1.00135
303 2 31.5568 17.6222 -2.26656 31.5568 17.6222 -2.26656
304 1 32.4526 19.1855 -0.420078 32.4526 19.1855 -0.420078
305 2 34.1838 19.2289 1.36813 34.1838 19.2289 1.36813
306 2 34.3638 19.1156 -1.88513 34.3638 19.1156 -1.88513
307 1 35.3128 17.4825 -0.150613 35.3128 17.4825 -0.150613
308 2 37.3158 17.7175 1.48471 37.3158 17.7175 1.48471
309 2 37.1362 17.4101 -1.85423 37.1362 17.4101 -1.85423
310 1 38.1911 19.1883 -0.317393 38.1911 19.1883 -0.317393
311 2 39.8479 19.2386 1.54722 39.8479 19.2386 1.54722
312 2 40.2933 19.0096 -1.69756 40.2933 19.0096 -1.69756
313 1 41.0446 17.5653 0.137141 41.0446 17.5653 0.137141
314 2 42.8619 17.4195 1.8041 42.8619 17.4195 1.8041
315 2 43.0077 17.6237 -1.37356 43.0077 17.6237 -1.37356
316 1 43.8369 19.2421 0.350335 43.8369 19.2421 0.350335
317 2 45.9058 19.1386 1.94035 45.9058 19.1386 1.94035
318 2 45.66 19.1888 -1.3348 45.66 19.1888 -1.3348
319 1 46.6713 17.5639 0.265984 46.6713 17.5639 0.265984
320 2 48.673 17.5898 1.87293 48.673 17.5898 1.87293
321 2 48.5007 17.4153 -1.41716 48.5007 17.4153 -1.41716
322 1 49.5408 19.1467 0.0673149 49.5408 19.1467 0.0673149
323 2 51.3327 19.3934 1.69366 51.3327 19.3934 1.69366
324 2 51.4544 18.8342 -1.48568 51.4544 18.8342 -1.48568
325 1 1.07261 20.7387 -0.119793 1.07261 20.7387 -0.119793
326 2 2.84952 20.6449 1.69561 2.84952 20.6449 1.69561
327 2 3.17268 20.8431 -1.53275 3.17268 20.8431 -1.53275
328 1 3.91858 22.3949 0.218173 3.91858 22.3949 0.218173
329 2 5.87958 22.5072 1.75449 5.87958 22.5072 1.75449
330 2 5.76415 22.3829 -1.46503 5.76415 22.3829 -1.46503
331 1 6.79885 20.7513 0.221381 6.79885 20.7513 0.221381
332 2 8.86126 20.9096 1.55542 8.86126 20.9096 1.55542
333 2 8.5234 20.6704 -1.7657 8.5234 20.6704 -1.7657
334 1 9.51913 22.4322 -0.279724 9.51913 22.4322 -0.279724
335 2 11.65 22.4471 0.986028 11.65 22.4471 0.986028
336 2 11.194 22.2912 -2.24425 11.194 22.2912 -2.24425
337 1 12.4135 20.7592 -0.616161 12.4135 20.7592 -0.616161
338 2 14.3859 20.8055 0.903602 14.3859 20.8055 0.903602
339 2 14.2121 20.8021 -2.33839 14.2121 20.8021 -2.33839
340 1 15.2505 22.4348 -0.775013 15.2505 22.4348 -0.775013
341 2 17.0367 22.3293 0.995915 17.0367 22.3293 0.995915
342 2 17.3808 22.4999 -2.38682 17.3808 22.4999 -2.38682
343 1 18.1278 20.8236 -0.612482 18.1278 20.8236 -0.612482
344 2 19.9544 20.6935 1.05023 19.9544 20.6935 1.05023
345 2 20.1541 20.865 -2.10962 20.1541 20.865 -2.10962
346 1 21.0778 22.4154 -0.366959 21.0778 22.4154 -0.366959
347 2 22.9662 22.394 1.20157 22.9662 22.394 1.20157
348 2 22.8631 22.4778 -2.08522 22.8631 22.4778 -2.08522
349 1 23.9454 20.8258 -0.617868 23.9454 20.8258 -0.617868
350 2 25.9156 20.8564 0.793855 25.9156 20.8564 0.793855
351 2 25.6468 20.6781 -2.4031 25.6468 20.6781 -2.4031
352 1 26.6743 22.4677 -0.916378 26.6743 22.4677 -0.916378
353 2 28.6024 22.3611 0.89765 28.6024 22.3611 0.89765
354 2 28.842 22.4122 -2.40833 28.842 22.4122 -2.40833
355 1 29.6377 20.661 -0.693499 29.6377 20.661 -0.693499
356 2 31.3771 20.656 1.1051 31.3771 20.656 1.1051
357 2 31.6397 20.8925 -2.08395 31.6397 20.8925 -2.08395
358 1 32.3853 22.4213 -0.353551 32.3853 22.4213 -0.353551
359 2 34.2522 22.3591 1.3529 34.2522 22.3591 1.3529
360 2 34.406 22.5374 -1.883 34.406 22.5374 -1.883
361 1 35.2593 20.7604 -0.326612 35.2593 20.7604 -0.326612
362 2 37.1727 20.704 1.41665 37.1727 20.704 1.41665
363 2 37.2557 20.935 -1.8818 37.2557 20.935 -1.8818
364 1 38.1877 22.5226 -0.169221 38.1877 22.5226 -0.169221
365 2 39.8959 22.4867 1.57687 39.8959 22.4867 1.57687
366 2 40.2183 22.3705 -1.67804 40.2183 22.3705 -1.67804
367 1 40.997 20.7781 0.0456871 40.997 20.7781 0.0456871
368 2 42.6623 20.8529 1.88478 42.6623 20.8529 1.88478
369 2 43.1138 20.8966 -1.35948 43.1138 20.8966 -1.35948
370 1 43.7466 22.4837 0.331164 43.7466 22.4837 0.331164
371 2 45.8469 22.4433 1.88277 45.8469 22.4433 1.88277
372 2 45.6413 22.5071 -1.42684 45.6413 22.5071 -1.42684
373 1 46.7022 20.8727 0.230894 46.7022 20.8727 0.230894
374 2 48.7307 20.8121 1.67312 48.7307 20.8121 1.67312
375 2 48.5954 20.8222 -1.52303 48.5954 20.8222 -1.52303
376 1 49.5276 22.4607 -0.056609 49.5276 22.4607 -0.056609
377 2 51.4689 22.3686 1.5595 51.4689 22.3686 1.5595
378 2 51.4635 22.5097 -1.73178 51.4635 22.5097 -1.73178
379 1 1.13185 24.0763 0.0275839 1.13185 24.0763 0.0275839
380 2 2.91187 24.1162 1.85351 2.91187 24.1162 1.85351
381 2 2.90763 23.861 -1.55508 2.90763 23.861 -1.55508
382 1 3.98277 25.6571 -0.0181156 3.98277 25.6571 -0.0181156
383 2 5.78124 25.7735 1.67188 5.78124 25.7735 1.67188
384 2 5.95421 25.8667 -1.60949 5.95421 25.8667 -1.60949
385 1 6.77179 24.0986 0.0387838 6.77179 24.0986 0.0387838
386 2 8.80291 24.0178 1.50759 8.80291 24.0178 1.50759
387 2 8.49064 24.0496 -1.7668 8.49064 24.0496 -1.7668
388 1 9.67301 25.6833 -0.150271 9.67301 25.6833 -0.150271
389 2 11.8694 25.7045 1.01717 11.8694 25.7045 1.01717
390 2 11.1772 25.7242 -2.13762 11.1772 25.7242 -2.13762
391 1 12.3478 24.0744 -0.768124 12.3478 24.0744 -0.768124
392 2 14.4119 24.2084 0.835576 14.4119 24.2084 0.835576
393 2 14.2795 23.9989 -2.40319 14.2795 23.9989 -2.40319
394 1 15.3338 25.7331 -0.861942 15.3338 25.7331 -0.861942
395 2 16.974 25.7863 0.996877 16.974 25.7863 0.996877
396 2 17.5146 25.7991 -2.14656 17.5146 25.7991 -2.14656
397 1 18.1766 24.1024 -0.488967 18.1766 24.1024 -0.488967
398 2 19.9306 23.9172 1.28498 19.9306 23.9172 1.28498
399 2 20.1238 24.2447 -1.93834 20.1238 24.2447 -1.93834
400 1 20.9923 25.747 -0.13728 20.9923 25.747 -0.13728
401 2 22.873 25.7155 1.32531 22.873 25.7155 1.32531
402 2 22.8392 25.801 -1.90742 22.8392 25.801 -1.90742
403 1 23.8533 24.1089 -0.411261 23.8533 24.1089 -0.411261
404 2 25.8902 23.9701 1.05605 25.8902 23.9701 1.05605
405 2 25.5838 24.3761 -2.23306 25.5838 24.3761 -2.23306
406 1 26.694 25.8211 -0.419 26.694 25.8211 -0.419
407 2 28.7118 25.7857 1.04155 28.7118 25.7857 1.04155
408 2 28.3686 25.8373 -2.25946 28.3686 25.8373 -2.25946
409 1 29.5743 24.1016 -0.648572 29.5743 24.1016 -0.648572
410 2 31.2416 24.1161 1.13248 31.2416 24.1161 1.13248
411 2 31.6385 24.1678 -2.06662 31.6385 24.1678 -2.06662
412 1 32.4294 25.7045 -0.310799 32.4294 25.7045 -0.310799
413 2 34.2164 25.7062 1.35674 34.2164 25.7062 1.35674
414 2 34.3989 25.6723 -1.87762 34.3989 25.6723 -1.87762
415 1 35.3345 24.0378 -0.144962 35.3345 24.0378 -0.144962
416 2 37.1614 24.0113 1.51102 37.1614 24.0113 1.51102
417 2 37.2097 24.1299 -1.85402 37.2097 24.1299 -1.85402
418 1 38.0801 25.6652 -0.0988934 38.0801 25.6652 -0.0988934
419 2 39.9511 25.7485 1.53249 39.9511 25.7485 1.53249
420 2 40.1544 25.663 -1.67613 40.1544 25.663 -1.67613
421 1 40.9779 24.1505 -0.0996652 40.9779 24.1505 -0.0996652
422 2 42.7093 24.2314 1.73457 42.7093 24.2314 1.73457
423 2 43.063 24.0292 -1.48538 43.063 24.0292 -1.48538
424 1 43.8068 25.8597 0.152704 43.8068 25.8597 0.152704
425 2 45.8076 25.8841 1.75344 45.8076 25.8841 1.75344
426 2 45.7671 25.6981 -1.52239 45.7671 25.6981 -1.52239
427 1 46.7087 24.1338 0.209354 46.7087 24.1338 0.209354
428 2 48.7488 24.2226 1.57843 48.7488 24.2226 1.57843
429 2 48.4842 24.0109 -1.61718 48.4842 24.0109 -1.61718
430 1 49.6143 25.7703 -0.166006 49.6143 25.7703 -0.166006
431 2 51.4036 25.6475 1.56522 51.4036 25.6475 1.56522
432 2 51.5286 25.7904 -1.73562 51.5286 25.7904 -1.73562
433 1 1.12272 27.3832 -0.0640462 1.12272 27.3832 -0.0640462
434 2 2.98345 27.4384 1.57526 2.98345 27.4384 1.57526
435 2 3.07874 27.2999 -1.70326 3.07874 27.2999 -1.70326
436 1 3.9379 28.986 -0.0585147 3.9379 28.986 -0.0585147
437 2 5.75061 29.0977 1.54862 5.75061 29.0977 1.54862
438 2 5.7756 28.8766 -1.65062 5.7756 28.8766 -1.65062
439 1 6.8366 27.3956 0.0669516 6.8366 27.3956 0.0669516
440 2 8.83637 27.3166 1.60413 8.83637 27.3166 1.60413
441 2 8.55467 27.3925 -1.69305 8.55467 27.3925 -1.69305
442 1 9.57052 29.0742 -0.198809 9.57052 29.0742 -0.198809
443 2 11.83 29.1085 1.06071 11.83 29.1085 1.06071
444 2 11.1552 29.0613 -2.24671 11.1552 29.0613 -2.24671
445 1 12.4622 27.3872 -0.741882 12.4622 27.3872 -0.741882
446 2 14.4345 27.3558 0.904778 14.4345 27.3558 0.904778
447 2 14.4884 27.478 -2.41035 14.4884 27.478 -2.41035
448 1 15.3251 29.0852 -0.644703 15.3251 29.0852 -0.644703
449 2 17.1479 29.1053 1.02004 17.1479 29.1053 1.02004
450 2 17.2773 29.0627 -2.15736 17.2773 29.0627 -2.15736
451 1 18.1956 27.4071 -0.404119 18.1956 27.4071 -0.404119
452 2 19.9225 27.4836 1.3149 19.9225 27.4836 1.3149
453 2 20.2288 27.268 -1.9396 20.2288 27.268 -1.9396
454 1 21.0462 29.0677 -0.257499 21.0462 29.0677 -0.257499
455 2 22.9639 29.0741 1.35393 22.9639 29.0741 1.35393
456 2 22.9455 29.1537 -1.94315 22.9455 29.1537 -1.94315
457 1 23.7901 27.404 -0.300279 23.7901 27.404 -0.300279
458 2 25.7463 27.3149 1.36656 25.7463 27.3149 1.36656
459 2 25.6662 27.6694 -2.00218 25.6662 27.6694 -2.00218
460 1 26.7333 29.0991 -0.175222 26.7333 29.0991 -0.175222
461 2 28.9664 28.9197 1.19641 28.9664 28.9197 1.19641
462 2 28.4643 29.1165 -1.9969 28.4643 29.1165 -1.9969
463 1 29.624 27.3233 -0.625959 29.624 27.3233 -0.625959
464 2 31.4405 27.4516 1.1068 31.4405 27.4516 1.1068
465 2 31.5473 27.1825 -2.1856 31.5473 27.1825 -2.1856
466 1 32.4905 29.0086 -0.616998 32.4905 29.0086 -0.616998
467 2 34.1998 29.1386 1.21233 34.1998 29.1386 1.21233
468 2 34.5168 28.9987 -2.07739 34.5168 28.9987 -2.07739
469 1 35.2022 27.341 -0.245951 35.2022 27.341 -0.245951
470 2 37.0512 27.405 1.40325 37.0512 27.405 1.40325
471 2 37.2453 27.2447 -1.86941 37.2453 27.2447 -1.86941
472 1 38.1105 28.9542 -0.181228 38.1105 28.9542 -0.181228
473 2 39.8031 28.8682 1.59502 39.8031 28.8682 1.59502
474 2 40.089 29.1331 -1.66735 40.089 29.1331 -1.66735
475 1 40.9853 27.4145 -0.0051142 40.9853 27.4145 -0.0051142
476 2 42.7441 27.4732 1.68355 42.7441 27.4732 1.68355
477 2 42.9836 27.5827 -1.59912 42.9836 27.5827 -1.59912
478 1 43.844 29.0691 0.128492 43.844 29.0691 0.128492
479 2 45.8983 29.2025 1.51107 45.8983 29.2025 1.51107
480 2 45.5931 28.9325 -1.64674 45.5931 28.9325 -1.64674
481 1 46.8201 27.4241 -0.0417947 46.8201 27.4241 -0.0417947
482 2 48.7619 27.6143 1.41533 48.7619 27.6143 1.41533
483 2 48.5866 27.315 -1.83951 48.5866 27.315 -1.83951
484 1 49.5858 29.0549 -0.376563 49.5858 29.0549 -0.376563
485 2 51.3917 29.0097 1.48084 51.3917 29.0097 1.48084
486 2 51.6275 29.011 -1.7704 51.6275 29.011 -1.7704
487 1 1.13959 30.6171 -0.0384218 1.13959 30.6171 -0.0384218
488 2 3.05479 30.6617 1.58833 3.05479 30.6617 1.58833
489 2 2.96542 30.7691 -1.68583 2.96542 30.7691 -1.68583
490 1 3.85431 32.3592 -0.116277 3.85431 32.3592 -0.116277
491 2 5.80009 32.4453 1.50701 5.80009 32.4453 1.50701
492 2 5.76408 32.3299 -1.64325 5.76408 32.3299 -1.64325
493 1 6.74546 30.739 -0.0192277 6.74546 30.739 -0.0192277
494 2 8.67344 30.7523 1.42894 8.67344 30.7523 1.42894
495 2 8.49523 30.5984 -1.79978 8.49523 30.5984 -1.79978
496 1 9.72262 32.2457 -0.356699 9.72262 32.2457 -0.356699
497 2 11.7785 32.363 1.00631 11.7785 32.363 1.00631
498 2 11.269 32.2751 -2.254 11.269 32.2751 -2.254
499 1 12.4587 30.6583 -0.770406 12.4587 30.6583 -0.770406
500 2 14.3893 30.836 0.87007 14.3893 30.836 0.87007
501 2 14.4518 30.6922 -2.36026 14.4518 30.6922 -2.36026
502 1 15.3262 32.3243 -0.794361 15.3262 32.3243 -0.794361
503 2 17.1564 32.5077 0.915572 17.1564 32.5077 0.915572
504 2 17.2824 32.3303 -2.36503 17.2824 32.3303 -2.36503
505 1 18.1686 30.7358 -0.603966 18.1686 30.7358 -0.603966
506 2 19.9093 30.8316 1.25504 19.9093 30.8316 1.25504
507 2 20.1468 30.5306 -2.1184 20.1468 30.5306 -2.1184
508 1 21.0271 32.3724 -0.463146 21.0271 32.3724 -0.463146
509 2 22.9437 32.3978 1.29324 22.9437 32.3978 1.29324
510 2 23.0123 32.3016 -2.02557 23.0123 32.3016 -2.02557
511 1 23.9114 30.7906 -0.27192 23.9114 30.7906 -0.27192
512 2 25.9212 30.7385 1.35988 25.9212 30.7385 1.35988
513 2 25.8353 30.7278 -1.87393 25.8353 30.7278 -1.87393
514 1 26.9255 32.3092 -0.336832 26.9255 32.3092 -0.336832
515 2 28.8874 32.3869 1.20409 28.8874 32.3869 1.20409
516 2 28.7038 32.3227 -2.01254 28.7038 32.3227 -2.01254
517 1 29.6657 30.6561 -0.413675 29.6657 30.6561 -0.413675
518 2 31.5653 30.6757 1.07728 31.5653 30.6757 1.07728
519 2 31.5638 30.7372 -2.14114 31.5638 30.7372 -2.14114
520 1 32.5717 32.3332 -0.544171 32.5717 32.3332 -0.544171
521 2 34.2377 32.1863 1.33904 34.2377 32.1863 1.33904
522 2 34.6534 32.4629 -1.89453 34.6534 32.4629 -1.89453
523 1 35.2902 30.6598 -0.344415 35.2902 30.6598 -0.344415
524 2 37.1358 30.5484 1.40749 37.1358 30.5484 1.40749
525 2 37.2656 30.7049 -1.77004 37.2656 30.7049 -1.77004
526 1 38.1951 32.3645 -0.166386 38.1951 32.3645 -0.166386
527 2 39.8914 32.4707 1.57203 39.8914 32.4707 1.57203
528 2 40.0736 32.1556 -1.72493 40.0736 32.1556 -1.72493
529 1 40.9415 30.7179 0.166926 40.9415 30.7179 0.166926
530 2 42.9579 30.951 1.6074 42.9579 30.951 1.6074
531 2 42.8268 30.6019 -1.59346 42.8268 30.6019 -1.59346
532 1 43.9181 32.3516 -0.195684 43.9181 32.3516 -0.195684
533 2 45.8847 32.4132 1.2615 45.8847 32.4132 1.2615
534 2 45.7038 32.3868 -1.93961 45.7038 32.3868 -1.93961
535 1 46.6673 30.7019 -0.295204 46.6673 30.7019 -0.295204
536 2 48.6125 30.7122 1.36281 48.6125 30.7122 1.36281
537 2 48.5915 30.8088 -1.93879 48.5915 30.8088 -1.93879
538 1 49.5826 32.3754 -0.139006 49.5826 32.3754 -0.139006
539 2 51.4658 32.495 1.48614 51.4658 32.495 1.48614