ITEM: TIMESTEP
7000
ITEM: NUMBER OF ATOMS
810
ITEM: BOX BOUNDS pp pp pp
8.4137701477268123e-01 5.2176227985227342e+01
8.0961581116522285e-01 5.0206599188834083e+01
-1.0000000000000000e+01 1.0000000000000000e+01
ITEM: ATOMS id type x y z xu yu zu
1 1 52.2023 50.3928 0.255574 0.867464 0.9958 0.255574
2 2 2.69855 50.552 2.03357 2.69855 1.15501 2.03357
3 2 2.9771 50.4039 -1.23724 2.9771 1.00695 -1.23724
4 1 3.80286 2.6075 0.446332 3.80286 2.6075 0.446332
5 2 5.65369 2.58672 2.00793 5.65369 2.58672 2.00793
6 2 5.61554 2.62246 -1.2244 5.61554 2.62246 -1.2244
7 1 6.63557 50.3417 0.32826 6.63557 0.944737 0.32826
8 2 8.33362 50.349 2.07326 8.33362 0.952049 2.07326
9 2 8.56495 50.1746 -1.25271 8.56495 0.777587 -1.25271
10 1 9.50048 2.52172 0.466243 9.50048 2.52172 0.466243
11 2 11.3219 2.73769 2.22936 11.3219 2.73769 2.22936
12 2 11.3835 2.39415 -1.06195 11.3835 2.39415 -1.06195
13 1 12.2596 50.2254 0.677134 12.2596 0.828429 0.677134
14 2 14.309 50.3133 2.19887 14.309 0.916294 2.19887
15 2 14.0971 50.231 -1.09165 14.0971 0.834038 -1.09165
16 1 15.2361 2.52852 0.428128 15.2361 2.52852 0.428128
17 2 17.1294 2.5849 2.01076 17.1294 2.5849 2.01076
18 2 17.0504 2.27942 -1.20942 17.0504 2.27942 -1.20942
19 1 18.0148 50.1614 0.497068 18.0148 0.76439 0.497068
20 2 20.0404 50.0996 1.86781 20.0404 0.702573 1.86781
21 2 19.6658 50.3431 -1.38056 19.6658 0.946155 -1.38056
22 1 20.8212 2.43834 0.172188 20.8212 2.43834 0.172188
23 2 22.6542 2.34086 1.93712 22.6542 2.34086 1.93712
24 2 22.7676 2.67103 -1.37472 22.7676 2.67103 -1.37472
25 1 23.6427 50.2681 0.150715 23.6427 0.871145 0.150715
26 2 25.6269 50.1695 1.82531 25.6269 0.772558 1.82531
27 2 25.5498 50.4995 -1.49778 25.5498 1.10255 -1.49778
28 1 26.4133 2.52393 0.399472 26.4133 2.52393 0.399472
29 2 28.5448 2.34363 1.84869 28.5448 2.34363 1.84869
30 2 28.199 2.79215 -1.29515 28.199 2.79215 -1.29515
31 1 29.3456 50.335 -0.0306038 29.3456 0.938019 -0.0306038
32 2 31.3966 50.1894 1.573 31.3966 0.792401 1.573
33 2 31.3523 50.1995 -1.6819 31.3523 0.802519 -1.6819
34 1 32.2226 2.52783 -0.0622762 32.2226 2.52783 -0.0622762
35 2 34.0842 2.32727 1.66688 34.0842 2.32727 1.66688
36 2 34.0933 2.92046 -1.64659 34.0933 2.92046 -1.64659
37 1 35.0467 50.3446 -0.204037 35.0467 0.947586 -0.204037
38 2 37.0284 50.1773 1.42488 37.0284 0.780358 1.42488
39 2 36.9782 50.4039 -1.80992 36.9782 1.00689 -1.80992
40 1 37.9552 2.59628 -0.100056 37.9552 2.59628 -0.100056
41 2 39.7937 2.41524 1.55414 39.7937 2.41524 1.55414
42 2 39.8739 2.76316 -1.68624 39.8739 2.76316 -1.68624
43 1 40.8078 50.3522 -0.150263 40.8078 0.955211 -0.150263
44 2 42.6213 50.3027 1.63323 42.6213 0.905729 1.63323
45 2 42.7466 50.2996 -1.668 42.7466 0.902576 -1.668
46 1 43.5828 2.60147 0.209799 43.5828 2.60147 0.209799
47 2 45.5521 2.52946 1.54672 45.5521 2.52946 1.54672
48 2 45.3164 2.7273 -1.64604 45.3164 2.7273 -1.64604
49 1 46.4053 50.3528 -0.15798 46.4053 0.955801 -0.15798
50 2 48.2199 50.2125 1.6089 48.2199 0.815533 1.6089
51 2 48.3368 50.5719 -1.62963 48.3368 1.1749 -1.62963
52 1 49.2923 2.61359 0.189954 49.2923 2.61359 0.189954
53 2 51.2421 2.50437 1.91454 51.2421 2.50437 1.91454
54 2 51.2671 2.65658 -1.38413 51.2671 2.65658 -1.38413
55 1 52.2153 4.2882 0.195969 0.880451 4.2882 0.195969
56 2 2.774 4.31685 1.88299 2.774 4.31685 1.88299
57 2 3.01671 4.23587 -1.33986 3.01671 4.23587 -1.33986
58 1 3.77553 5.91974 0.305203 3.77553 5.91974 0.305203
59 2 5.60881 5.84988 1.90103 5.60881 5.84988 1.90103
60 2 5.76715 5.80544 -1.23054 5.76715 5.80544 -1.23054
61 1 6.6439 4.15831 0.408028 6.6439 4.15831 0.408028
62 2 8.5145 4.17109 2.07145 8.5145 4.17109 2.07145
63 2 8.5825 4.04615 -1.22425 8.5825 4.04615 -1.22425
64 1 9.47386 5.80311 0.396733 9.47386 5.80311 0.396733
65 2 11.4307 6.02376 1.88076 11.4307 6.02376 1.88076
66 2 11.3655 5.56722 -1.32843 11.3655 5.56722 -1.32843
67 1 12.3436 4.17608 0.470475 12.3436 4.17608 0.470475
68 2 14.2866 4.23934 2.08825 14.2866 4.23934 2.08825
69 2 14.1763 4.15681 -1.23297 14.1763 4.15681 -1.23297
70 1 15.2281 5.79413 0.38082 15.2281 5.79413 0.38082
71 2 17.2354 5.81173 1.92093 17.2354 5.81173 1.92093
72 2 17.0767 5.82537 -1.31782 17.0767 5.82537 -1.31782
73 1 18.0061 4.12187 0.222843 18.0061 4.12187 0.222843
74 2 20.0333 4.12481 1.8712 20.0333 4.12481 1.8712
75 2 19.8024 4.10745 -1.4226 19.8024 4.10745 -1.4226
76 1 20.815 5.73818 0.15231 20.815 5.73818 0.15231
77 2 22.5677 5.57029 2.0131 22.5677 5.57029 2.0131
78 2 22.9061 5.85527 -1.26548 22.9061 5.85527 -1.26548
79 1 23.6404 4.07174 0.382335 23.6404 4.07174 0.382335
80 2 25.5073 4.10116 2.06364 25.5073 4.10116 2.06364
81 2 25.4839 4.23978 -1.16108 25.4839 4.23978 -1.16108
82 1 26.4112 5.84183 0.518145 26.4112 5.84183 0.518145
83 2 28.3214 5.73366 2.07976 28.3214 5.73366 2.07976
84 2 28.2955 5.84851 -1.15652 28.2955 5.84851 -1.15652
85 1 29.3844 4.24374 0.37411 29.3844 4.24374 0.37411
86 2 31.2977 4.08762 1.85358 31.2977 4.08762 1.85358
87 2 31.197 4.38881 -1.34178 31.197 4.38881 -1.34178
88 1 32.246 5.85092 0.449124 32.246 5.85092 0.449124
89 2 34.1695 5.76688 2.08299 34.1695 5.76688 2.08299
90 2 34.264 5.99813 -1.07348 34.264 5.99813 -1.07348
91 1 35.1785 4.21117 0.415168 35.1785 4.21117 0.415168
92 2 37.3446 4.12524 1.76904 37.3446 4.12524 1.76904
93 2 36.7942 4.42284 -1.50518 36.7942 4.42284 -1.50518
94 1 37.9891 5.93266 0.15106 37.9891 5.93266 0.15106
95 2 39.8292 5.93892 1.86424 39.8292 5.93892 1.86424
96 2 39.896 5.88571 -1.40547 39.896 5.88571 -1.40547
97 1 40.745 4.27967 0.198677 40.745 4.27967 0.198677
98 2 42.7657 4.25366 1.71432 42.7657 4.25366 1.71432
99 2 42.6254 4.05163 -1.51705 42.6254 4.05163 -1.51705
100 1 43.679 5.79968 -0.0571936 43.679 5.79968 -0.0571936
101 2 45.4243 5.7099 1.60361 45.4243 5.7099 1.60361
102 2 45.5303 6.02848 -1.66734 45.5303 6.02848 -1.66734
103 1 46.4477 4.23584 -0.0644313 46.4477 4.23584 -0.0644313
104 2 48.2474 4.18221 1.72867 48.2474 4.18221 1.72867
105 2 48.5233 4.22189 -1.53579 48.5233 4.22189 -1.53579
106 1 49.242 5.87166 0.186783 49.242 5.87166 0.186783
107 2 51.2151 5.91779 1.74291 51.2151 5.91779 1.74291
108 2 51.185 5.93124 -1.44136 51.185 5.93124 -1.44136
109 1 52.1479 7.65719 0.114826 0.813056 7.65719 0.114826
110 2 2.62386 7.74047 1.86801 2.62386 7.74047 1.86801
111 2 2.97276 7.51183 -1.43025 2.97276 7.51183 -1.43025
112 1 3.72138 9.23566 0.232336 3.72138 9.23566 0.232336
113 2 5.57964 9.2317 1.95089 5.57964 9.2317 1.95089
114 2 5.65356 9.15834 -1.28965 5.65356 9.15834 -1.28965
115 1 6.53243 7.51743 0.365107 6.53243 7.51743 0.365107
116 2 8.52674 7.59284 1.84641 8.52674 7.59284 1.84641
117 2 8.47671 7.27014 -1.39013 8.47671 7.27014 -1.39013
118 1 9.43564 9.06461 0.140057 9.43564 9.06461 0.140057
119 2 11.5694 9.13707 1.57012 11.5694 9.13707 1.57012
120 2 11.179 8.92227 -1.68572 11.179 8.92227 -1.68572
121 1 12.3669 7.40682 0.0333921 12.3669 7.40682 0.0333921
122 2 14.296 7.65896 1.84059 14.296 7.65896 1.84059
123 2 14.3497 7.34566 -1.48058 14.3497 7.34566 -1.48058
124 1 15.2295 9.177 0.10494 15.2295 9.177 0.10494
125 2 17.2118 9.34135 1.659 17.2118 9.34135 1.659
126 2 17.1622 8.89226 -1.65866 17.1622 8.89226 -1.65866
127 1 18.0143 7.41012 0.184588 18.0143 7.41012 0.184588
128 2 19.835 7.50841 1.81558 19.835 7.50841 1.81558
129 2 19.9659 7.4497 -1.43515 19.9659 7.4497 -1.43515
130 1 20.8118 9.09474 0.261684 20.8118 9.09474 0.261684
131 2 22.5529 9.15028 1.97553 22.5529 9.15028 1.97553
132 2 22.695 9.05297 -1.25163 22.695 9.05297 -1.25163
133 1 23.655 7.48404 0.520466 23.655 7.48404 0.520466
134 2 25.4893 7.4938 2.10165 25.4893 7.4938 2.10165
135 2 25.5386 7.4435 -1.1522 25.5386 7.4435 -1.1522
136 1 26.4471 9.15158 0.545656 26.4471 9.15158 0.545656
137 2 28.4 8.98693 2.20656 28.4 8.98693 2.20656
138 2 28.3633 9.13876 -1.08361 28.3633 9.13876 -1.08361
139 1 29.3495 7.46999 0.455045 29.3495 7.46999 0.455045
140 2 31.136 7.29032 2.17942 31.136 7.29032 2.17942
141 2 31.3421 7.71781 -1.08183 31.3421 7.71781 -1.08183
142 1 32.148 9.17999 0.746367 32.148 9.17999 0.746367
143 2 34.2622 9.2876 2.32534 34.2622 9.2876 2.32534
144 2 33.9199 9.05345 -0.982657 33.9199 9.05345 -0.982657
145 1 35.1535 7.60128 0.67587 35.1535 7.60128 0.67587
146 2 37.3284 7.42541 1.94974 37.3284 7.42541 1.94974
147 2 36.7517 7.68231 -1.16967 36.7517 7.68231 -1.16967
148 1 38.0446 9.18956 0.334076 38.0446 9.18956 0.334076
149 2 39.997 9.07568 2.0595 39.997 9.07568 2.0595
150 2 39.9369 9.32869 -1.26955 39.9369 9.32869 -1.26955
151 1 40.8338 7.54272 0.269456 40.8338 7.54272 0.269456
152 2 42.8791 7.33761 1.82717 42.8791 7.33761 1.82717
153 2 42.69 7.62071 -1.46878 42.69 7.62071 -1.46878
154 1 43.6469 9.20041 0.381426 43.6469 9.20041 0.381426
155 2 45.562 9.2475 1.93507 45.562 9.2475 1.93507
156 2 45.4056 9.37324 -1.29525 45.4056 9.37324 -1.29525
157 1 46.4331 7.57187 0.204914 46.4331 7.57187 0.204914
158 2 48.3059 7.53349 1.77756 48.3059 7.53349 1.77756
159 2 48.2837 7.36465 -1.49972 48.2837 7.36465 -1.49972
160 1 49.3354 9.17942 0.0711267 49.3354 9.17942 0.0711267
161 2 51.1004 9.18082 1.76259 51.1004 9.18082 1.76259
162 2 51.3563 9.2446 -1.56874 51.3563 9.2446 -1.56874
163 1 52.1708 10.8079 0.158264 0.835974 10.8079 0.158264
164 2 2.66116 10.9481 1.77797 2.66116 10.9481 1.77797
165 2 2.83076 10.8825 -1.431 2.83076 10.8825 -1.431
166 1 3.65189 12.5578 0.16576 3.65189 12.5578 0.16576
167 2 5.55191 12.5342 1.7904 5.55191 12.5342 1.7904
168 2 5.66977 12.4167 -1.46933 5.66977 12.4167 -1.46933
169 1 6.53938 10.8409 0.235555 6.53938 10.8409 0.235555
170 2 8.64627 11.0086 1.70247 8.64627 11.0086 1.70247
171 2 8.34059 10.5348 -1.5209 8.34059 10.5348 -1.5209
172 1 9.4017 12.388 -0.21082 9.4017 12.388 -0.21082
173 2 11.3232 12.4076 1.43071 11.3232 12.4076 1.43071
174 2 11.2081 12.4298 -1.84169 11.2081 12.4298 -1.84169
175 1 12.3088 10.6937 -0.212594 12.3088 10.6937 -0.212594
176 2 14.1438 10.95 1.46067 14.1438 10.95 1.46067
177 2 14.2632 10.495 -1.81681 14.2632 10.495 -1.81681
178 1 15.1432 12.3883 -0.383265 15.1432 12.3883 -0.383265
179 2 17.1163 12.6017 1.27023 17.1163 12.6017 1.27023
180 2 17.133 12.3056 -1.93148 17.133 12.3056 -1.93148
181 1 18.0727 10.7784 -0.225724 18.0727 10.7784 -0.225724
182 2 19.7707 11.0658 1.56979 19.7707 11.0658 1.56979
183 2 20.0345 10.5302 -1.66827 20.0345 10.5302 -1.66827
184 1 20.8832 12.3519 -0.259211 20.8832 12.3519 -0.259211
185 2 22.5207 12.5962 1.67477 22.5207 12.5962 1.67477
186 2 23.0473 12.244 -1.604 23.0473 12.244 -1.604
187 1 23.6243 10.7757 0.363452 23.6243 10.7757 0.363452
188 2 25.6123 10.9088 2.01786 25.6123 10.9088 2.01786
189 2 25.5235 10.6325 -1.22692 25.5235 10.6325 -1.22692
190 1 26.4747 12.4562 0.248995 26.4747 12.4562 0.248995
191 2 28.1588 12.5228 2.06628 28.1588 12.5228 2.06628
192 2 28.5838 12.3426 -1.15787 28.5838 12.3426 -1.15787
193 1 29.362 10.7955 0.646467 29.362 10.7955 0.646467
194 2 31.1618 10.8166 2.30423 31.1618 10.8166 2.30423
195 2 31.2633 10.6461 -0.980839 31.2633 10.6461 -0.980839
196 1 32.1931 12.3667 0.656363 32.1931 12.3667 0.656363
197 2 34.2435 12.4257 2.06265 34.2435 12.4257 2.06265
198 2 34.0356 12.3978 -1.11537 34.0356 12.3978 -1.11537
199 1 35.0991 10.8217 0.455192 35.0991 10.8217 0.455192
200 2 37.1344 10.8701 2.0171 37.1344 10.8701 2.0171
201 2 36.9285 10.7608 -1.27357 36.9285 10.7608 -1.27357
202 1 37.9699 12.4529 0.358008 37.9699 12.4529 0.358008
203 2 39.8974 12.7285 1.97051 39.8974 12.7285 1.97051
204 2 39.9024 12.3164 -1.17435 39.9024 12.3164 -1.17435
205 1 40.913 10.936 0.592785 40.913 10.936 0.592785
206 2 42.8089 10.8365 2.13993 42.8089 10.8365 2.13993
207 2 42.6698 10.8643 -1.18325 42.6698 10.8643 -1.18325
208 1 43.6602 12.528 0.492002 43.6602 12.528 0.492002
209 2 45.5899 12.5592 1.9618 45.5899 12.5592 1.9618
210 2 45.4269 12.5748 -1.21863 45.4269 12.5748 -1.21863
211 1 46.4398 10.9075 0.338048 46.4398 10.9075 0.338048
212 2 48.4321 10.7081 1.81788 48.4321 10.7081 1.81788
213 2 48.3696 10.8929 -1.39967 48.3696 10.8929 -1.39967
214 1 49.4184 12.3702 0.329886 49.4184 12.3702 0.329886
215 2 51.4316 12.4062 1.83132 51.4316 12.4062 1.83132
216 2 51.2493 12.4712 -1.40087 51.2493 12.4712 -1.40087
217 1 52.2035 14.1897 0.245428 0.868682 14.1897 0.245428
218 2 2.78074 14.2517 1.74258 2.78074 14.2517 1.74258
219 2 2.71645 14.0975 -1.39279 2.71645 14.0975 -1.39279
220 1 3.67194 15.7774 0.0997459 3.67194 15.7774 0.0997459
221 2 5.46547 15.7823 1.83522 5.46547 15.7823 1.83522
222 2 5.52022 15.8857 -1.55835 5.52022 15.8857 -1.55835
223 1 6.59626 14.2533 0.171159 6.59626 14.2533 0.171159
224 2 8.59561 13.9156 1.69107 8.59561 13.9156 1.69107
225 2 8.39889 14.2757 -1.5665 8.39889 14.2757 -1.5665
226 1 9.42703 15.6833 0.184008 9.42703 15.6833 0.184008
227 2 11.5899 15.612 1.58922 11.5899 15.612 1.58922
228 2 11.1164 15.8401 -1.62804 11.1164 15.8401 -1.62804
229 1 12.2438 14.1266 -0.282749 12.2438 14.1266 -0.282749
230 2 14.2213 14.0302 1.21333 14.2213 14.0302 1.21333
231 2 14.0874 13.9815 -2.06037 14.0874 13.9815 -2.06037
232 1 15.1194 15.7413 -0.495309 15.1194 15.7413 -0.495309
233 2 17.1608 15.7411 1.08038 17.1608 15.7411 1.08038
234 2 17.1076 15.6341 -2.15474 17.1076 15.6341 -2.15474
235 1 18.0542 14.059 -0.437285 18.0542 14.059 -0.437285
236 2 19.8294 14.2143 1.17579 19.8294 14.2143 1.17579
237 2 20.0135 13.9762 -2.01559 20.0135 13.9762 -2.01559
238 1 20.8786 15.6978 -0.526238 20.8786 15.6978 -0.526238
239 2 22.4314 15.6755 1.46181 22.4314 15.6755 1.46181
240 2 23.0045 15.7163 -1.69726 23.0045 15.7163 -1.69726
241 1 23.6552 14.0541 0.026263 23.6552 14.0541 0.026263
242 2 25.3427 14.083 1.8403 25.3427 14.083 1.8403
243 2 25.6684 14.071 -1.49052 25.6684 14.071 -1.49052
244 1 26.5067 15.6519 0.13078 26.5067 15.6519 0.13078
245 2 28.253 15.7492 1.95102 28.253 15.7492 1.95102
246 2 28.529 15.6263 -1.33712 28.529 15.6263 -1.33712
247 1 29.3555 14.0758 0.461042 29.3555 14.0758 0.461042
248 2 31.3117 14.284 2.00002 31.3117 14.284 2.00002
249 2 31.2604 13.9372 -1.29772 31.2604 13.9372 -1.29772
250 1 32.32 15.6097 0.148558 32.32 15.6097 0.148558
251 2 34.1279 15.872 1.7764 34.1279 15.872 1.7764
252 2 34.1279 15.5482 -1.48946 34.1279 15.5482 -1.48946
253 1 35.0994 14.1061 0.394007 35.0994 14.1061 0.394007
254 2 37.0872 14.22 1.8872 37.0872 14.22 1.8872
255 2 36.9537 14.0113 -1.44879 36.9537 14.0113 -1.44879
256 1 37.8152 15.7394 -0.000415065 37.8152 15.7394 -0.000415065
257 2 39.7862 16.0234 1.52858 39.7862 16.0234 1.52858
258 2 39.7532 15.5739 -1.6149 39.7532 15.5739 -1.6149
259 1 40.7849 14.2295 0.128346 40.7849 14.2295 0.128346
260 2 42.5603 14.3114 1.89484 42.5603 14.3114 1.89484
261 2 42.8208 14.0353 -1.26682 42.8208 14.0353 -1.26682
262 1 43.6433 15.8176 0.192205 43.6433 15.8176 0.192205
263 2 45.3821 15.5728 1.99169 45.3821 15.5728 1.99169
264 2 45.7172 15.9364 -1.31259 45.7172 15.9364 -1.31259
265 1 46.5678 14.1209 0.366143 46.5678 14.1209 0.366143
266 2 48.4403 14.0642 1.93833 48.4403 14.0642 1.93833
267 2 48.4121 14.0707 -1.30516 48.4121 14.0707 -1.30516
268 1 49.3091 15.7077 0.375078 49.3091 15.7077 0.375078
269 2 51.2805 15.8491 1.92768 51.2805 15.8491 1.92768
270 2 51.1113 15.6775 -1.36717 51.1113 15.6775 -1.36717
271 1 52.1219 17.4851 0.118854 0.787091 17.4851 0.118854
272 2 2.83572 17.5065 1.64848 2.83572 17.5065 1.64848
273 2 2.67052 17.3905 -1.58831 2.67052 17.3905 -1.58831
274 1 3.70446 19.0906 -0.0736102 3.70446 19.0906 -0.0736102
275 2 5.54837 19.196 1.57274 5.54837 19.196 1.57274
276 2 5.78406 18.9593 -1.64569 5.78406 18.9593 -1.64569
277 1 6.5714 17.4029 0.144091 6.5714 17.4029 0.144091
278 2 8.42156 17.4362 1.82783 8.42156 17.4362 1.82783
279 2 8.39212 17.2079 -1.61083 8.39212 17.2079 -1.61083
280 1 9.41619 18.9079 0.0851638 9.41619 18.9079 0.0851638
281 2 11.4326 19.1205 1.53377 11.4326 19.1205 1.53377
282 2 11.1929 18.845 -1.67801 11.1929 18.845 -1.67801
283 1 12.3721 17.3632 -0.0598006 12.3721 17.3632 -0.0598006
284 2 14.4574 17.2325 1.33981 14.4574 17.2325 1.33981
285 2 14.0665 17.6003 -1.82301 14.0665 17.6003 -1.82301
286 1 15.265 19.0164 -0.191511 15.265 19.0164 -0.191511
287 2 17.2171 19.1557 1.21541 17.2171 19.1557 1.21541
288 2 17.0662 19.0236 -2.06983 17.0662 19.0236 -2.06983
289 1 18.0278 17.3097 -0.553503 18.0278 17.3097 -0.553503
290 2 19.7998 17.1538 1.20002 19.7998 17.1538 1.20002
291 2 19.9882 17.4373 -2.04086 19.9882 17.4373 -2.04086
292 1 20.8948 18.9461 -0.183188 20.8948 18.9461 -0.183188
293 2 22.6143 18.8901 1.69201 22.6143 18.8901 1.69201
294 2 22.8249 19.1036 -1.58353 22.8249 19.1036 -1.58353
295 1 23.6053 17.356 0.0300966 23.6053 17.356 0.0300966
296 2 25.444 17.2378 1.73296 25.444 17.2378 1.73296
297 2 25.5779 17.3109 -1.49137 25.5779 17.3109 -1.49137
298 1 26.4554 18.9975 0.187645 26.4554 18.9975 0.187645
299 2 28.3283 19.0346 1.85258 28.3283 19.0346 1.85258
300 2 28.4586 18.9935 -1.43074 28.4586 18.9935 -1.43074
301 1 29.3123 17.3419 0.276173 29.3123 17.3419 0.276173
302 2 31.3661 17.2926 1.74405 31.3661 17.2926 1.74405
303 2 31.125 17.2529 -1.51119 31.125 17.2529 -1.51119
304 1 32.1663 18.9079 0.0682336 32.1663 18.9079 0.0682336
305 2 34.1571 18.9906 1.62871 34.1571 18.9906 1.62871
306 2 34.0699 19.0582 -1.65452 34.0699 19.0582 -1.65452
307 1 35.0817 17.3945 -0.139138 35.0817 17.3945 -0.139138
308 2 37.0463 17.5811 1.49978 37.0463 17.5811 1.49978
309 2 37.0359 17.3291 -1.68132 37.0359 17.3291 -1.68132
310 1 38.0046 19.1206 -0.151727 38.0046 19.1206 -0.151727
311 2 40.0005 19.1369 1.35925 40.0005 19.1369 1.35925
312 2 39.7874 19.0194 -1.87472 39.7874 19.0194 -1.87472
313 1 40.802 17.4201 -0.277464 40.802 17.4201 -0.277464
314 2 42.4294 17.5322 1.60339 42.4294 17.5322 1.60339
315 2 42.7727 17.2535 -1.64879 42.7727 17.2535 -1.64879
316 1 43.6018 19.1259 -0.0159316 43.6018 19.1259 -0.0159316
317 2 45.3433 19.2565 1.84377 45.3433 19.2565 1.84377
318 2 45.674 18.9044 -1.44364 45.674 18.9044 -1.44364
319 1 46.419 17.4532 0.487144 46.419 17.4532 0.487144
320 2 48.4374 17.4988 1.99239 48.4374 17.4988 1.99239
321 2 48.3011 17.3539 -1.34418 48.3011 17.3539 -1.34418
322 1 49.256 19.1396 0.23262 49.256 19.1396 0.23262
323 2 51.2958 19.2229 1.68579 51.2958 19.2229 1.68579
324 2 50.9467 19.0051 -1.51863 50.9467 19.0051 -1.51863
325 1 52.169 20.738 -0.162718 0.834139 20.738 -0.162718
326 2 2.5984 20.8314 1.55729 2.5984 20.8314 1.55729
327 2 2.80971 20.8152 -1.70376 2.80971 20.8152 -1.70376
328 1 3.63076 22.4113 -0.0550041 3.63076 22.4113 -0.0550041
329 2 5.56501 22.5105 1.53945 5.56501 22.5105 1.53945
330 2 5.55456 22.3842 -1.7421 5.55456 22.3842 -1.7421
331 1 6.51556 20.6879 -0.0820375 6.51556 20.6879 -0.0820375
332 2 8.40315 20.5459 1.66588 8.40315 20.5459 1.66588
333 2 8.49239 20.628 -1.63771 8.49239 20.628 -1.63771
334 1 9.48718 22.239 0.114229 9.48718 22.239 0.114229
335 2 11.4815 22.0497 1.55106 11.4815 22.0497 1.55106
336 2 11.197 22.5013 -1.64471 11.197 22.5013 -1.64471
337 1 12.2967 20.6458 -0.321832 12.2967 20.6458 -0.321832
338 2 14.1433 20.6822 1.37215 14.1433 20.6822 1.37215
339 2 14.3016 20.6152 -1.86929 14.3016 20.6152 -1.86929
340 1 15.1954 22.3379 -0.207344 15.1954 22.3379 -0.207344
341 2 17.1074 22.0976 1.49168 17.1074 22.0976 1.49168
342 2 17.0762 22.5275 -1.86632 17.0762 22.5275 -1.86632
343 1 18.0602 20.7686 -0.416329 18.0602 20.7686 -0.416329
344 2 19.8161 20.6208 1.37361 19.8161 20.6208 1.37361
345 2 20.0535 20.7119 -1.75721 20.0535 20.7119 -1.75721
346 1 20.8224 22.3816 -0.161114 20.8224 22.3816 -0.161114
347 2 22.6742 22.3034 1.70765 22.6742 22.3034 1.70765
348 2 22.9124 22.2214 -1.5111 22.9124 22.2214 -1.5111
349 1 23.6767 20.5977 0.218886 23.6767 20.5977 0.218886
350 2 25.5157 20.7054 1.81372 25.5157 20.7054 1.81372
351 2 25.5464 20.5146 -1.47048 25.5464 20.5146 -1.47048
352 1 26.5704 22.3008 0.0964058 26.5704 22.3008 0.0964058
353 2 28.4679 22.3198 1.71833 28.4679 22.3198 1.71833
354 2 28.3842 22.3314 -1.45367 28.3842 22.3314 -1.45367
355 1 29.3139 20.6185 0.182681 29.3139 20.6185 0.182681
356 2 31.3213 20.5656 1.81279 31.3213 20.5656 1.81279
357 2 31.2458 20.5909 -1.46467 31.2458 20.5909 -1.46467
358 1 32.1328 22.34 0.206942 32.1328 22.34 0.206942
359 2 34.2117 22.2972 1.73942 34.2117 22.2972 1.73942
360 2 34.0094 22.4489 -1.56577 34.0094 22.4489 -1.56577
361 1 35.0088 20.6838 -0.0409 35.0088 20.6838 -0.0409
362 2 37.0525 20.8968 1.4631 37.0525 20.8968 1.4631
363 2 36.8799 20.5891 -1.78467 36.8799 20.5891 -1.78467
364 1 37.8712 22.3429 -0.376119 37.8712 22.3429 -0.376119
365 2 39.8021 22.1529 1.30184 39.8021 22.1529 1.30184
366 2 39.7832 22.5396 -1.94202 39.7832 22.5396 -1.94202
367 1 40.7677 20.7155 -0.379632 40.7677 20.7155 -0.379632
368 2 42.5258 20.7 1.51388 42.5258 20.7 1.51388
369 2 42.7026 20.7394 -1.77889 42.7026 20.7394 -1.77889
370 1 43.6215 22.3531 -0.0272304 43.6215 22.3531 -0.0272304
371 2 45.4365 22.5362 1.63856 45.4365 22.5362 1.63856
372 2 45.5169 22.3126 -1.67362 45.5169 22.3126 -1.67362
373 1 46.4387 20.7845 0.123567 46.4387 20.7845 0.123567
374 2 48.434 20.8832 1.63436 48.434 20.8832 1.63436
375 2 48.328 20.5783 -1.57173 48.328 20.5783 -1.57173
376 1 49.329 22.3057 -0.0979518 49.329 22.3057 -0.0979518
377 2 51.2903 22.4392 1.47351 51.2903 22.4392 1.47351
378 2 51.2082 22.3515 -1.86291 51.2082 22.3515 -1.86291
379 1 52.1559 24.0767 -0.104814 0.82109 24.0767 -0.104814
380 2 2.7242 24.1262 1.57207 2.7242 24.1262 1.57207
381 2 2.7983 24.1 -1.73133 2.7983 24.1 -1.73133
382 1 3.7735 25.7219 -0.0943833 3.7735 25.7219 -0.0943833
383 2 5.67332 25.7048 1.57966 5.67332 25.7048 1.57966
384 2 5.65837 25.6619 -1.69545 5.65837 25.6619 -1.69545
385 1 6.60556 24.0295 -0.100528 6.60556 24.0295 -0.100528
386 2 8.382 23.9886 1.55801 8.382 23.9886 1.55801
387 2 8.58849 23.8657 -1.60343 8.58849 23.8657 -1.60343
388 1 9.48146 25.559 -0.0536862 9.48146 25.559 -0.0536862
389 2 11.204 25.5855 1.73652 11.204 25.5855 1.73652
390 2 11.3259 25.5202 -1.62472 11.3259 25.5202 -1.62472
391 1 12.283 23.8787 0.0617841 12.283 23.8787 0.0617841
392 2 14.4236 23.8641 1.55167 14.4236 23.8641 1.55167
393 2 14.0638 23.959 -1.7614 14.0638 23.959 -1.7614
394 1 15.19 25.6083 -0.0081924 15.19 25.6083 -0.0081924
395 2 17.1229 25.7317 1.60321 17.1229 25.7317 1.60321
396 2 17.0794 25.6455 -1.66563 17.0794 25.6455 -1.66563
397 1 18.0508 24.0289 0.074626 18.0508 24.0289 0.074626
398 2 19.9888 23.8373 1.60805 19.9888 23.8373 1.60805
399 2 19.7977 24.1742 -1.69102 19.7977 24.1742 -1.69102
400 1 20.9021 25.5975 0.0518076 20.9021 25.5975 0.0518076
401 2 22.6892 25.6954 1.79626 22.6892 25.6954 1.79626
402 2 22.8395 25.5204 -1.47069 22.8395 25.5204 -1.47069
403 1 23.8073 23.9825 0.236256 23.8073 23.9825 0.236256
404 2 25.6913 24.02 1.81074 25.6913 24.02 1.81074
405 2 25.5563 23.9715 -1.51629 25.5563 23.9715 -1.51629
406 1 26.5926 25.596 0.0385479 26.5926 25.596 0.0385479
407 2 28.3649 25.6995 1.78748 28.3649 25.6995 1.78748
408 2 28.4849 25.5844 -1.59902 28.4849 25.5844 -1.59902
409 1 29.3685 23.977 0.178942 29.3685 23.977 0.178942
410 2 31.2562 24.016 1.77337 31.2562 24.016 1.77337
411 2 31.2389 23.9263 -1.5972 31.2389 23.9263 -1.5972
412 1 32.1909 25.6622 -0.000374256 32.1909 25.6622 -0.000374256
413 2 33.9534 25.7196 1.71297 33.9534 25.7196 1.71297
414 2 34.1173 25.5173 -1.6319 34.1173 25.5173 -1.6319
415 1 35.0185 24.0763 0.133366 35.0185 24.0763 0.133366
416 2 37.1719 23.8095 1.4154 37.1719 23.8095 1.4154
417 2 36.7047 24.0603 -1.83235 36.7047 24.0603 -1.83235
418 1 37.9447 25.6042 -0.180906 37.9447 25.6042 -0.180906
419 2 39.7791 25.593 1.4734 39.7791 25.593 1.4734
420 2 39.8636 25.5904 -1.73212 39.8636 25.5904 -1.73212
421 1 40.757 24.0252 -0.195645 40.757 24.0252 -0.195645
422 2 42.4535 24.1071 1.52311 42.4535 24.1071 1.52311
423 2 42.8465 24.0324 -1.72094 42.8465 24.0324 -1.72094
424 1 43.6589 25.6859 -0.0339836 43.6589 25.6859 -0.0339836
425 2 45.6116 25.7704 1.53403 45.6116 25.7704 1.53403
426 2 45.4434 25.6123 -1.75047 45.4434 25.6123 -1.75047
427 1 46.4237 24.0488 -0.121367 46.4237 24.0488 -0.121367
428 2 48.3793 24.1274 1.42525 48.3793 24.1274 1.42525
429 2 48.2713 23.9426 -1.81446 48.2713 23.9426 -1.81446
430 1 49.4072 25.66 -0.362385 49.4072 25.66 -0.362385
431 2 51.17 25.8528 1.36328 51.17 25.8528 1.36328
432 2 51.4206 25.6274 -1.89713 51.4206 25.6274 -1.89713
433 1 52.1945 27.3622 -0.25946 0.859683 27.3622 -0.25946
434 2 2.80042 27.3816 1.52528 2.80042 27.3816 1.52528
435 2 2.99929 27.4136 -1.69691 2.99929 27.4136 -1.69691
436 1 3.84393 29.0042 -0.104402 3.84393 29.0042 -0.104402
437 2 5.5421 28.7515 1.73009 5.5421 28.7515 1.73009
438 2 5.78785 29.1763 -1.59546 5.78785 29.1763 -1.59546
439 1 6.62064 27.2923 -0.0441932 6.62064 27.2923 -0.0441932
440 2 8.43286 27.2271 1.59571 8.43286 27.2271 1.59571
441 2 8.54573 27.3441 -1.60238 8.54573 27.3441 -1.60238
442 1 9.45949 28.9279 0.035 9.45949 28.9279 0.035
443 2 11.3118 29.015 1.70346 11.3118 29.015 1.70346
444 2 11.3652 28.6738 -1.68044 11.3652 28.6738 -1.68044
445 1 12.3319 27.2489 0.14504 12.3319 27.2489 0.14504
446 2 14.3726 27.1417 1.65987 14.3726 27.1417 1.65987
447 2 14.0998 27.2831 -1.52269 14.0998 27.2831 -1.52269
448 1 15.161 28.8337 0.0631831 15.161 28.8337 0.0631831
449 2 17.1017 28.8232 1.68078 17.1017 28.8232 1.68078
450 2 16.9595 29.0871 -1.62066 16.9595 29.0871 -1.62066
451 1 18.0061 27.3387 -0.0951972 18.0061 27.3387 -0.0951972
452 2 19.8198 27.2884 1.63434 19.8198 27.2884 1.63434
453 2 20.0277 27.3317 -1.52663 20.0277 27.3317 -1.52663
454 1 20.8687 28.974 0.0906564 20.8687 28.974 0.0906564
455 2 22.7218 28.9416 1.80533 22.7218 28.9416 1.80533
456 2 22.801 28.7924 -1.45625 22.801 28.7924 -1.45625
457 1 23.703 27.3188 0.235288 23.703 27.3188 0.235288
458 2 25.698 27.2557 1.73934 25.698 27.2557 1.73934
459 2 25.4672 27.1172 -1.51992 25.4672 27.1172 -1.51992
460 1 26.5528 28.8629 0.043339 26.5528 28.8629 0.043339
461 2 28.4563 28.8733 1.6792 28.4563 28.8733 1.6792
462 2 28.4215 28.9278 -1.50165 28.4215 28.9278 -1.50165
463 1 29.4234 27.3064 0.0869408 29.4234 27.3064 0.0869408
464 2 31.2689 27.2836 1.66346 31.2689 27.2836 1.66346
465 2 31.3288 27.2853 -1.56275 31.3288 27.2853 -1.56275
466 1 32.2645 28.8888 0.120383 32.2645 28.8888 0.120383
467 2 34.2227 28.8636 1.66456 34.2227 28.8636 1.66456
468 2 34.0913 29.1107 -1.51254 34.0913 29.1107 -1.51254
469 1 35.1437 27.2419 0.0215015 35.1437 27.2419 0.0215015
470 2 37.0013 27.1531 1.64985 37.0013 27.1531 1.64985
471 2 36.9511 27.4217 -1.6861 36.9511 27.4217 -1.6861
472 1 37.9155 28.9121 0.0415412 37.9155 28.9121 0.0415412
473 2 39.8088 28.7056 1.69181 39.8088 28.7056 1.69181
474 2 39.8193 29.1623 -1.54094 39.8193 29.1623 -1.54094
475 1 40.8299 27.2822 -0.127351 40.8299 27.2822 -0.127351
476 2 42.5773 27.2248 1.635 42.5773 27.2248 1.635
477 2 42.806 27.3114 -1.65195 42.806 27.3114 -1.65195
478 1 43.5402 28.9452 0.155169 43.5402 28.9452 0.155169
479 2 45.5761 28.8999 1.65657 45.5761 28.8999 1.65657
480 2 45.3272 28.9668 -1.59147 45.3272 28.9668 -1.59147
481 1 46.5031 27.314 -0.187107 46.5031 27.314 -0.187107
482 2 48.458 27.1691 1.32087 48.458 27.1691 1.32087
483 2 48.4174 27.3768 -1.88229 48.4174 27.3768 -1.88229
484 1 49.2504 28.9732 -0.145231 49.2504 28.9732 -0.145231
485 2 51.2694 28.8779 1.6241 51.2694 28.8779 1.6241
486 2 51.2611 29.0451 -1.75231 51.2611 29.0451 -1.75231
487 1 52.1928 30.6265 -0.0295411 0.857959 30.6265 -0.0295411
488 2 2.71131 30.35 1.69817 2.71131 30.35 1.69817
489 2 2.79181 30.6981 -1.65375 2.79181 30.6981 -1.65375
490 1 3.69747 32.2888 0.23249 3.69747 32.2888 0.23249
491 2 5.64529 32.2658 1.93124 5.64529 32.2658 1.93124
492 2 5.63967 32.2228 -1.33764 5.63967 32.2228 -1.33764
493 1 6.60552 30.5658 0.302703 6.60552 30.5658 0.302703
494 2 8.61647 30.4846 1.77671 8.61647 30.4846 1.77671
495 2 8.45079 30.6647 -1.46764 8.45079 30.6647 -1.46764
496 1 9.46803 32.2427 0.178311 9.46803 32.2427 0.178311
497 2 11.3178 32.0808 1.72455 11.3178 32.0808 1.72455
498 2 11.3843 32.2671 -1.5102 11.3843 32.2671 -1.5102
499 1 12.2368 30.5078 -0.0410222 12.2368 30.5078 -0.0410222
500 2 14.1567 30.6833 1.60351 14.1567 30.6833 1.60351
501 2 14.1408 30.3865 -1.72231 14.1408 30.3865 -1.72231
502 1 15.047 32.247 -0.0313038 15.047 32.247 -0.0313038
503 2 16.9624 32.3146 1.64835 16.9624 32.3146 1.64835
504 2 17.0832 32.1631 -1.60775 17.0832 32.1631 -1.60775
505 1 17.9754 30.5825 0.0978268 17.9754 30.5825 0.0978268
506 2 19.9171 30.652 1.72739 19.9171 30.652 1.72739
507 2 19.8957 30.5075 -1.58231 19.8957 30.5075 -1.58231
508 1 20.7345 32.1929 -0.00823791 20.7345 32.1929 -0.00823791
509 2 22.6081 32.3103 1.63386 22.6081 32.3103 1.63386
510 2 22.7155 32.0701 -1.55895 22.7155 32.0701 -1.55895
511 1 23.6811 30.5007 0.235736 23.6811 30.5007 0.235736
512 2 25.7048 30.3865 1.86267 25.7048 30.3865 1.86267
513 2 25.4319 30.4971 -1.51229 25.4319 30.4971 -1.51229
514 1 26.5513 32.1112 0.119196 26.5513 32.1112 0.119196
515 2 28.5509 32.3546 1.60781 28.5509 32.3546 1.60781
516 2 28.3477 32.2002 -1.61926 28.3477 32.2002 -1.61926
517 1 29.4344 30.4959 0.0576813 29.4344 30.4959 0.0576813
518 2 31.3283 30.6239 1.67031 31.3283 30.6239 1.67031
519 2 31.1531 30.4224 -1.58618 31.1531 30.4224 -1.58618
520 1 32.2119 32.2247 -0.132139 32.2119 32.2247 -0.132139
521 2 34.0846 32.4736 1.54647 34.0846 32.4736 1.54647
522 2 34.1514 32.0682 -1.70613 34.1514 32.0682 -1.70613
523 1 35.0763 30.5933 0.163198 35.0763 30.5933 0.163198
524 2 37.0123 30.618 1.67754 37.0123 30.618 1.67754
525 2 36.9783 30.5788 -1.59685 36.9783 30.5788 -1.59685
526 1 37.8933 32.252 0.0837096 37.8933 32.252 0.0837096
527 2 39.7609 32.4352 1.81744 39.7609 32.4352 1.81744
528 2 39.949 32.2031 -1.4291 39.949 32.2031 -1.4291
529 1 40.7023 30.6278 0.307577 40.7023 30.6278 0.307577
530 2 42.7722 30.6249 1.84004 42.7722 30.6249 1.84004
531 2 42.609 30.6484 -1.44332 42.609 30.6484 -1.44332
532 1 43.6003 32.2668 0.110107 43.6003 32.2668 0.110107
533 2 45.5875 32.3021 1.63479 45.5875 32.3021 1.63479
534 2 45.4589 32.2807 -1.5662 45.4589 32.2807 -1.5662
535 1 46.3958 30.6534 0.0455315 46.3958 30.6534 0.0455315
536 2 48.3419 30.4371 1.67773 48.3419 30.4371 1.67773
537 2 48.2914 30.7431 -1.61904 48.2914 30.7431 -1.61904
538 1 49.3437 32.1811 0.214436 49.3437 32.1811 0.214436
539 2 51.5265 32.2718 1.66029 51.5265 32.2718 1.66029
540 2 51.1009 32.2797 -1.56522 51.1009 32.2797 -1.56522
541 1 52.1857 33.9223 -0.0220138 0.850832 33.9223 -0.0220138
542 2 2.56503 33.9009 1.7302 2.56503 33.9009 1.7302