ITEM: TIMESTEP
9300
ITEM: NUMBER OF ATOMS
810
ITEM: BOX BOUNDS pp pp pp
8.4137701477268123e-01 5.2176227985227342e+01
8.0961581116522285e-01 5.0206599188834083e+01
-1.0000000000000000e+01 1.0000000000000000e+01
ITEM: ATOMS id type x y z xu yu zu
1 1 52.2281 50.2424 -0.0022823 0.893283 0.845465 -0.0022823
2 2 2.75242 50.4126 1.6985 2.75242 1.01564 1.6985
3 2 2.79979 50.3914 -1.5453 2.79979 0.994382 -1.5453
4 1 3.74687 2.66718 0.0497672 3.74687 2.66718 0.0497672
5 2 5.53995 2.60802 1.70751 5.53995 2.60802 1.70751
6 2 5.84691 2.64739 -1.57605 5.84691 2.64739 -1.57605
7 1 6.71089 50.4686 0.145096 6.71089 1.07158 0.145096
8 2 8.50942 50.5526 1.91167 8.50942 1.15561 1.91167
9 2 8.79184 50.488 -1.29757 8.79184 1.09104 -1.29757
10 1 9.53621 2.73328 0.432724 9.53621 2.73328 0.432724
11 2 11.3348 2.83193 2.19097 11.3348 2.83193 2.19097
12 2 11.4982 2.53818 -1.13371 11.4982 2.53818 -1.13371
13 1 12.28 50.4431 0.656876 12.28 1.04613 0.656876
14 2 14.2586 50.351 2.12571 14.2586 0.953986 2.12571
15 2 14.124 50.4843 -1.09778 14.124 1.08732 -1.09778
16 1 15.2748 2.68415 0.522044 15.2748 2.68415 0.522044
17 2 17.2748 2.56226 1.87768 17.2748 2.56226 1.87768
18 2 17.0395 2.62072 -1.32681 17.0395 2.62072 -1.32681
19 1 18.0574 50.3808 0.195561 18.0574 0.983853 0.195561
20 2 20.0909 50.2923 1.70086 20.0909 0.895346 1.70086
21 2 19.8887 50.3734 -1.57609 19.8887 0.976412 -1.57609
22 1 20.8813 2.51791 0.0403259 20.8813 2.51791 0.0403259
23 2 22.8818 2.54836 1.58959 22.8818 2.54836 1.58959
24 2 22.6201 2.62327 -1.70137 22.6201 2.62327 -1.70137
25 1 23.6395 50.281 -0.206737 23.6395 0.884007 -0.206737
26 2 25.5297 50.1161 1.53797 25.5297 0.719072 1.53797
27 2 25.6604 50.482 -1.75799 25.6604 1.08497 -1.75799
28 1 26.5953 2.52847 0.181343 26.5953 2.52847 0.181343
29 2 28.5153 2.29689 1.83736 28.5153 2.29689 1.83736
30 2 28.4536 2.64207 -1.49348 28.4536 2.64207 -1.49348
31 1 29.3898 50.2386 -0.0699591 29.3898 0.841602 -0.0699591
32 2 31.3396 50.2969 1.44107 31.3396 0.899949 1.44107
33 2 31.3289 50.4454 -1.84678 31.3289 1.04843 -1.84678
34 1 32.2603 2.59648 -0.113321 32.2603 2.59648 -0.113321
35 2 33.9711 2.44258 1.70475 33.9711 2.44258 1.70475
36 2 34.2266 2.55144 -1.64404 34.2266 2.55144 -1.64404
37 1 35.074 50.2885 0.0744399 35.074 0.891485 0.0744399
38 2 36.9466 50.0393 1.59484 36.9466 0.6423 1.59484
39 2 36.9799 50.4347 -1.61778 36.9799 1.03776 -1.61778
40 1 37.9297 2.49211 0.08564 37.9297 2.49211 0.08564
41 2 39.8053 2.4182 1.66801 39.8053 2.4182 1.66801
42 2 39.7759 2.80463 -1.61292 39.7759 2.80463 -1.61292
43 1 40.7777 50.3832 -0.241332 40.7777 0.98621 -0.241332
44 2 42.6823 50.4037 1.40072 42.6823 1.0067 1.40072
45 2 42.693 50.3299 -1.80519 42.693 0.932899 -1.80519
46 1 43.6404 2.59827 -0.193698 43.6404 2.59827 -0.193698
47 2 45.3923 2.60682 1.56328 45.3923 2.60682 1.56328
48 2 45.6453 2.53817 -1.7039 45.6453 2.53817 -1.7039
49 1 46.5623 50.4078 0.0346502 46.5623 1.01085 0.0346502
50 2 48.5787 50.2027 1.53703 48.5787 0.805678 1.53703
51 2 48.4047 50.4719 -1.66752 48.4047 1.07493 -1.66752
52 1 49.3838 2.5783 0.113452 49.3838 2.5783 0.113452
53 2 51.509 2.53718 1.58771 51.509 2.53718 1.58771
54 2 51.237 2.57188 -1.57058 51.237 2.57188 -1.57058
55 1 52.2465 4.31918 -0.0271996 0.911661 4.31918 -0.0271996
56 2 2.79889 4.35163 1.65293 2.79889 4.35163 1.65293
57 2 2.96689 4.23023 -1.60405 2.96689 4.23023 -1.60405
58 1 3.7672 6.02062 0.0840817 3.7672 6.02062 0.0840817
59 2 5.54671 5.88198 1.77004 5.54671 5.88198 1.77004
60 2 5.70422 5.83962 -1.53467 5.70422 5.83962 -1.53467
61 1 6.58147 4.32811 0.209916 6.58147 4.32811 0.209916
62 2 8.41561 4.5495 1.88409 8.41561 4.5495 1.88409
63 2 8.49264 4.30221 -1.32876 8.49264 4.30221 -1.32876
64 1 9.40565 5.99368 0.239707 9.40565 5.99368 0.239707
65 2 11.448 6.14309 1.80991 11.448 6.14309 1.80991
66 2 11.2324 5.84694 -1.47536 11.2324 5.84694 -1.47536
67 1 12.3386 4.32809 0.35554 12.3386 4.32809 0.35554
68 2 14.1019 4.43423 2.00211 14.1019 4.43423 2.00211
69 2 14.417 4.20151 -1.23426 14.417 4.20151 -1.23426
70 1 15.2021 5.98801 0.331489 15.2021 5.98801 0.331489
71 2 17.1473 5.98458 1.90958 17.1473 5.98458 1.90958
72 2 16.9288 5.75288 -1.42594 16.9288 5.75288 -1.42594
73 1 18.0533 4.26712 0.27483 18.0533 4.26712 0.27483
74 2 19.9932 4.22839 1.74029 19.9932 4.22839 1.74029
75 2 19.8239 4.32253 -1.43156 19.8239 4.32253 -1.43156
76 1 20.9666 5.85292 0.0859843 20.9666 5.85292 0.0859843
77 2 22.8148 5.61307 1.6324 22.8148 5.61307 1.6324
78 2 22.8435 6.04346 -1.57667 22.8435 6.04346 -1.57667
79 1 23.7247 4.19559 -0.055682 23.7247 4.19559 -0.055682
80 2 25.5657 4.24107 1.70426 25.5657 4.24107 1.70426
81 2 25.728 4.19287 -1.51228 25.728 4.19287 -1.51228
82 1 26.6389 5.84493 0.110344 26.6389 5.84493 0.110344
83 2 28.3523 5.93599 1.77831 28.3523 5.93599 1.77831
84 2 28.5642 5.81322 -1.36058 28.5642 5.81322 -1.36058
85 1 29.3703 4.16264 0.277547 29.3703 4.16264 0.277547
86 2 31.4804 4.21722 1.68953 31.4804 4.21722 1.68953
87 2 31.1423 4.3507 -1.53532 31.1423 4.3507 -1.53532
88 1 32.2739 5.87691 0.100151 32.2739 5.87691 0.100151
89 2 34.1308 5.80082 1.75713 34.1308 5.80082 1.75713
90 2 34.234 5.83735 -1.51663 34.234 5.83735 -1.51663
91 1 35.1138 4.19826 0.0801631 35.1138 4.19826 0.0801631
92 2 36.948 3.90852 1.82453 36.948 3.90852 1.82453
93 2 37.1545 4.30181 -1.34893 37.1545 4.30181 -1.34893
94 1 37.9811 5.81507 0.474635 37.9811 5.81507 0.474635
95 2 40.0157 5.89029 1.90924 40.0157 5.89029 1.90924
96 2 39.7562 5.91464 -1.34941 39.7562 5.91464 -1.34941
97 1 40.8698 4.28454 0.187394 40.8698 4.28454 0.187394
98 2 42.7988 4.08116 1.73334 42.7988 4.08116 1.73334
99 2 42.7145 4.5418 -1.53369 42.7145 4.5418 -1.53369
100 1 43.5985 5.96134 0.30269 43.5985 5.96134 0.30269
101 2 45.6345 5.76096 1.91177 45.6345 5.76096 1.91177
102 2 45.4327 6.04837 -1.45205 45.4327 6.04837 -1.45205
103 1 46.4631 4.24576 -0.0207922 46.4631 4.24576 -0.0207922
104 2 48.3748 4.21224 1.7332 48.3748 4.21224 1.7332
105 2 48.5256 4.19319 -1.52465 48.5256 4.19319 -1.52465
106 1 49.3627 5.8773 0.225174 49.3627 5.8773 0.225174
107 2 51.2975 5.80801 1.83826 51.2975 5.80801 1.83826
108 2 51.2465 6.11058 -1.42454 51.2465 6.11058 -1.42454
109 1 52.2422 7.65096 0.44369 0.907323 7.65096 0.44369
110 2 2.85191 7.50012 1.98542 2.85191 7.50012 1.98542
111 2 2.62279 7.80427 -1.3474 2.62279 7.80427 -1.3474
112 1 3.74355 9.26414 0.438589 3.74355 9.26414 0.438589
113 2 5.91126 9.39399 1.86356 5.91126 9.39399 1.86356
114 2 5.46329 9.12555 -1.41911 5.46329 9.12555 -1.41911
115 1 6.59842 7.55516 0.194333 6.59842 7.55516 0.194333
116 2 8.54336 7.73116 1.77369 8.54336 7.73116 1.77369
117 2 8.39547 7.59938 -1.50882 8.39547 7.59938 -1.50882
118 1 9.38946 9.22368 -0.0277588 9.38946 9.22368 -0.0277588
119 2 11.4126 9.46303 1.51222 11.4126 9.46303 1.51222
120 2 11.3677 9.08755 -1.73617 11.3677 9.08755 -1.73617
121 1 12.284 7.66279 0.0299402 12.284 7.66279 0.0299402
122 2 14.2063 7.90822 1.59212 14.2063 7.90822 1.59212
123 2 14.1174 7.28324 -1.61845 14.1174 7.28324 -1.61845
124 1 15.2029 9.20699 -0.2637 15.2029 9.20699 -0.2637
125 2 17.0717 9.44942 1.50103 17.0717 9.44942 1.50103
126 2 17.2255 8.98393 -1.70793 17.2255 8.98393 -1.70793
127 1 17.9849 7.56283 0.0691693 17.9849 7.56283 0.0691693
128 2 19.9391 7.50076 1.75237 19.9391 7.50076 1.75237
129 2 19.9114 7.55541 -1.48024 19.9114 7.55541 -1.48024
130 1 20.8539 9.10136 0.157673 20.8539 9.10136 0.157673
131 2 22.783 9.06332 1.85282 22.783 9.06332 1.85282
132 2 22.6981 9.04648 -1.47349 22.6981 9.04648 -1.47349
133 1 23.768 7.42895 0.283824 23.768 7.42895 0.283824
134 2 25.6641 7.49053 1.84523 25.6641 7.49053 1.84523
135 2 25.5272 7.40587 -1.47871 25.5272 7.40587 -1.47871
136 1 26.5558 9.12633 0.134221 26.5558 9.12633 0.134221
137 2 28.4337 9.11463 1.72007 28.4337 9.11463 1.72007
138 2 28.4597 9.09791 -1.49893 28.4597 9.09791 -1.49893
139 1 29.4139 7.47831 0.145343 29.4139 7.47831 0.145343
140 2 31.1416 7.26008 1.93453 31.1416 7.26008 1.93453
141 2 31.4004 7.6819 -1.43867 31.4004 7.6819 -1.43867
142 1 32.2697 9.06515 0.438045 32.2697 9.06515 0.438045
143 2 34.4441 9.13431 1.97419 34.4441 9.13431 1.97419
144 2 34.1216 9.05617 -1.37197 34.1216 9.05617 -1.37197
145 1 35.1459 7.50076 0.186646 35.1459 7.50076 0.186646
146 2 36.9006 7.56909 1.96556 36.9006 7.56909 1.96556
147 2 36.9937 7.39952 -1.34419 36.9937 7.39952 -1.34419
148 1 37.9559 9.09476 0.348495 37.9559 9.09476 0.348495
149 2 39.8497 9.0119 2.05552 39.8497 9.0119 2.05552
150 2 39.9327 9.21936 -1.26112 39.9327 9.21936 -1.26112
151 1 40.8306 7.57957 0.212272 40.8306 7.57957 0.212272
152 2 42.6213 7.4432 1.92539 42.6213 7.4432 1.92539
153 2 42.7563 7.65165 -1.40798 42.7563 7.65165 -1.40798
154 1 43.7105 9.17281 0.309331 43.7105 9.17281 0.309331
155 2 45.5522 8.97636 1.89764 45.5522 8.97636 1.89764
156 2 45.671 9.26498 -1.28678 45.671 9.26498 -1.28678
157 1 46.5365 7.48584 0.18608 46.5365 7.48584 0.18608
158 2 48.3755 7.38923 1.91729 48.3755 7.38923 1.91729
159 2 48.524 7.68708 -1.3491 48.524 7.68708 -1.3491
160 1 49.3577 9.27503 0.448464 49.3577 9.27503 0.448464
161 2 51.353 9.44903 1.94725 51.353 9.44903 1.94725
162 2 51.1577 9.13132 -1.28081 51.1577 9.13132 -1.28081
163 1 52.1899 10.9327 0.2604 0.855031 10.9327 0.2604
164 2 2.74268 11.0662 1.83144 2.74268 11.0662 1.83144
165 2 2.70222 10.6467 -1.36981 2.70222 10.6467 -1.36981
166 1 3.69991 12.5009 0.0835752 3.69991 12.5009 0.0835752
167 2 5.54025 12.532 1.67886 5.54025 12.532 1.67886
168 2 5.56505 12.5471 -1.67945 5.56505 12.5471 -1.67945
169 1 6.54758 10.9061 -0.0365989 6.54758 10.9061 -0.0365989
170 2 8.46857 10.9754 1.56283 8.46857 10.9754 1.56283
171 2 8.34705 10.7694 -1.72444 8.34705 10.7694 -1.72444
172 1 9.36934 12.4704 -0.288937 9.36934 12.4704 -0.288937
173 2 11.3485 12.5235 1.40738 11.3485 12.5235 1.40738
174 2 11.29 12.6769 -1.83815 11.29 12.6769 -1.83815
175 1 12.3456 10.912 -0.27791 12.3456 10.912 -0.27791
176 2 14.2565 11.0676 1.29964 14.2565 11.0676 1.29964
177 2 14.1961 10.6131 -1.98332 14.1961 10.6131 -1.98332
178 1 15.0983 12.5563 -0.491331 15.0983 12.5563 -0.491331
179 2 16.9664 12.6294 1.26325 16.9664 12.6294 1.26325
180 2 17.1557 12.3009 -2.13238 17.1557 12.3009 -2.13238
181 1 18.0204 10.7702 -0.261524 18.0204 10.7702 -0.261524
182 2 19.779 10.9843 1.44699 19.779 10.9843 1.44699
183 2 19.9938 10.4501 -1.70011 19.9938 10.4501 -1.70011
184 1 20.8694 12.4039 -0.295358 20.8694 12.4039 -0.295358
185 2 22.6366 12.359 1.50198 22.6366 12.359 1.50198
186 2 22.8519 12.2813 -1.76725 22.8519 12.2813 -1.76725
187 1 23.7155 10.7279 0.00395449 23.7155 10.7279 0.00395449
188 2 25.5147 10.81 1.77458 25.5147 10.81 1.77458
189 2 25.6675 10.8439 -1.57145 25.6675 10.8439 -1.57145
190 1 26.5625 12.474 0.180681 26.5625 12.474 0.180681
191 2 28.5056 12.3925 1.74731 28.5056 12.3925 1.74731
192 2 28.4714 12.4292 -1.4695 28.4714 12.4292 -1.4695
193 1 29.3426 10.7869 0.155483 29.3426 10.7869 0.155483
194 2 31.1717 10.7858 1.9204 31.1717 10.7858 1.9204
195 2 31.384 10.5735 -1.29585 31.384 10.5735 -1.29585
196 1 32.2441 12.3472 0.261591 32.2441 12.3472 0.261591
197 2 34.2479 12.4651 1.74212 34.2479 12.4651 1.74212
198 2 34.0582 12.2213 -1.52094 34.0582 12.2213 -1.52094
199 1 35.1063 10.6843 0.131183 35.1063 10.6843 0.131183
200 2 36.9382 10.8381 1.89213 36.9382 10.8381 1.89213
201 2 37.0248 10.6963 -1.44916 37.0248 10.6963 -1.44916
202 1 37.9434 12.402 0.166473 37.9434 12.402 0.166473
203 2 39.8272 12.7948 1.94735 39.8272 12.7948 1.94735
204 2 39.9365 12.2636 -1.25608 39.9365 12.2636 -1.25608
205 1 40.8192 10.8241 0.597831 40.8192 10.8241 0.597831
206 2 42.8446 10.7173 2.08887 42.8446 10.7173 2.08887
207 2 42.6279 10.9359 -1.13376 42.6279 10.9359 -1.13376
208 1 43.7159 12.4197 0.568046 43.7159 12.4197 0.568046
209 2 45.6365 12.2787 2.16737 45.6365 12.2787 2.16737
210 2 45.6498 12.3761 -1.07198 45.6498 12.3761 -1.07198
211 1 46.5529 10.6986 0.462881 46.5529 10.6986 0.462881
212 2 48.4053 10.9857 2.06418 48.4053 10.9857 2.06418
213 2 48.3797 10.8344 -1.22606 48.3797 10.8344 -1.22606
214 1 49.3605 12.4605 0.330037 49.3605 12.4605 0.330037
215 2 51.2175 12.5354 1.98541 51.2175 12.5354 1.98541
216 2 51.2258 12.6427 -1.35569 51.2258 12.6427 -1.35569
217 1 52.2546 14.1978 0.226821 0.919747 14.1978 0.226821
218 2 2.86126 14.2317 1.74107 2.86126 14.2317 1.74107
219 2 2.7109 14.2437 -1.51411 2.7109 14.2437 -1.51411
220 1 3.81105 15.7907 0.0650678 3.81105 15.7907 0.0650678
221 2 5.75432 15.7357 1.65683 5.75432 15.7357 1.65683
222 2 5.63328 15.8132 -1.6251 5.63328 15.8132 -1.6251
223 1 6.52258 14.1296 -0.0570964 6.52258 14.1296 -0.0570964
224 2 8.40354 13.9822 1.39726 8.40354 13.9822 1.39726
225 2 8.31339 14.2349 -1.69733 8.31339 14.2349 -1.69733
226 1 9.43546 15.8261 -0.121607 9.43546 15.8261 -0.121607
227 2 11.4355 15.8089 1.47764 11.4355 15.8089 1.47764
228 2 11.2549 15.8959 -1.81802 11.2549 15.8959 -1.81802
229 1 12.2502 14.2757 -0.263679 12.2502 14.2757 -0.263679
230 2 14.2904 14.1296 1.28696 14.2904 14.1296 1.28696
231 2 14.0602 14.1521 -2.00447 14.0602 14.1521 -2.00447
232 1 15.1317 15.7542 -0.358062 15.1317 15.7542 -0.358062
233 2 17.0547 15.6878 1.11369 17.0547 15.6878 1.11369
234 2 16.8813 15.9486 -2.11912 16.8813 15.9486 -2.11912
235 1 17.9767 14.0856 -0.612478 17.9767 14.0856 -0.612478
236 2 19.7991 14.1152 1.19602 19.7991 14.1152 1.19602
237 2 20.072 14.0576 -1.96618 20.072 14.0576 -1.96618
238 1 20.8169 15.7738 -0.367561 20.8169 15.7738 -0.367561
239 2 22.5539 15.8449 1.43445 22.5539 15.8449 1.43445
240 2 22.9564 15.6285 -1.78563 22.9564 15.6285 -1.78563
241 1 23.6394 14.019 -0.00267647 23.6394 14.019 -0.00267647
242 2 25.5891 14.1376 1.74261 25.5891 14.1376 1.74261
243 2 25.6172 14.1566 -1.47828 25.6172 14.1566 -1.47828
244 1 26.4866 15.7663 0.143821 26.4866 15.7663 0.143821
245 2 28.4932 15.8707 1.76605 28.4932 15.8707 1.76605
246 2 28.3922 15.6431 -1.50961 28.3922 15.6431 -1.50961
247 1 29.4213 14.0479 0.209297 29.4213 14.0479 0.209297
248 2 31.3475 14.1484 1.84187 31.3475 14.1484 1.84187
249 2 31.2099 13.9408 -1.47859 31.2099 13.9408 -1.47859
250 1 32.2727 15.7044 0.114576 32.2727 15.7044 0.114576
251 2 34.4035 15.6885 1.53372 34.4035 15.6885 1.53372
252 2 34.0439 15.5409 -1.69776 34.0439 15.5409 -1.69776
253 1 35.1278 13.9741 -0.0971194 35.1278 13.9741 -0.0971194
254 2 36.9135 14.1793 1.61384 36.9135 14.1793 1.61384
255 2 37.1478 13.9368 -1.6226 37.1478 13.9368 -1.6226
256 1 38.0524 15.6674 -0.104102 38.0524 15.6674 -0.104102
257 2 39.7401 15.7874 1.7446 39.7401 15.7874 1.7446
258 2 40.2006 15.704 -1.53899 40.2006 15.704 -1.53899
259 1 40.8088 14.111 0.175952 40.8088 14.111 0.175952
260 2 42.6127 14.1796 2.03586 42.6127 14.1796 2.03586
261 2 42.89 14.111 -1.20809 42.89 14.111 -1.20809
262 1 43.7533 15.7386 0.606846 43.7533 15.7386 0.606846
263 2 45.721 15.7853 2.08072 45.721 15.7853 2.08072
264 2 45.5481 15.5803 -1.12766 45.5481 15.5803 -1.12766
265 1 46.5412 14.0254 0.590626 46.5412 14.0254 0.590626
266 2 48.5671 14.2597 1.95569 48.5671 14.2597 1.95569
267 2 48.2616 14.0483 -1.30497 48.2616 14.0483 -1.30497
268 1 49.3677 15.8249 0.188151 49.3677 15.8249 0.188151
269 2 51.3517 15.8472 1.77107 51.3517 15.8472 1.77107
270 2 51.3112 15.7765 -1.37864 51.3112 15.7765 -1.37864
271 1 52.2376 17.4825 0.0949916 0.902731 17.4825 0.0949916
272 2 2.89444 17.5689 1.60878 2.89444 17.5689 1.60878
273 2 2.79054 17.239 -1.72381 2.79054 17.239 -1.72381
274 1 3.68087 19.0748 -0.232225 3.68087 19.0748 -0.232225
275 2 5.41624 19.1922 1.58948 5.41624 19.1922 1.58948
276 2 5.8663 19.0328 -1.71706 5.8663 19.0328 -1.71706
277 1 6.61399 17.4614 0.152023 6.61399 17.4614 0.152023
278 2 8.60907 17.4771 1.59605 8.60907 17.4771 1.59605
279 2 8.25526 17.4292 -1.63619 8.25526 17.4292 -1.63619
280 1 9.39272 19.17 -0.158472 9.39272 19.17 -0.158472
281 2 11.2165 19.1275 1.42964 11.2165 19.1275 1.42964
282 2 11.2736 19.0246 -1.85418 11.2736 19.0246 -1.85418
283 1 12.2793 17.4908 -0.195358 12.2793 17.4908 -0.195358
284 2 14.2611 17.4936 1.29914 14.2611 17.4936 1.29914
285 2 14.1359 17.341 -1.84861 14.1359 17.341 -1.84861
286 1 15.1071 19.0299 -0.476994 15.1071 19.0299 -0.476994
287 2 16.9768 19.0492 1.22085 16.9768 19.0492 1.22085
288 2 16.9953 19.0436 -2.01085 16.9953 19.0436 -2.01085
289 1 17.9654 17.5086 -0.463702 17.9654 17.5086 -0.463702
290 2 19.8198 17.4918 1.22989 19.8198 17.4918 1.22989
291 2 19.8816 17.3813 -2.04726 19.8816 17.3813 -2.04726
292 1 20.8511 19.0905 -0.463063 20.8511 19.0905 -0.463063
293 2 22.6197 19.1828 1.26413 22.6197 19.1828 1.26413
294 2 22.9539 18.8357 -1.91135 22.9539 18.8357 -1.91135
295 1 23.7382 17.3933 -0.166711 23.7382 17.3933 -0.166711
296 2 25.5122 17.4968 1.68537 25.5122 17.4968 1.68537
297 2 25.7959 17.4237 -1.5518 25.7959 17.4237 -1.5518
298 1 26.6237 19.0973 0.117472 26.6237 19.0973 0.117472
299 2 28.5891 19.1582 1.62443 28.5891 19.1582 1.62443
300 2 28.3754 19.0087 -1.63467 28.3754 19.0087 -1.63467
301 1 29.4708 17.3952 0.00499937 29.4708 17.3952 0.00499937
302 2 31.4122 17.532 1.54228 31.4122 17.532 1.54228
303 2 31.346 17.0764 -1.73552 31.346 17.0764 -1.73552
304 1 32.2875 18.9914 -0.404179 32.2875 18.9914 -0.404179
305 2 34.082 18.963 1.33589 34.082 18.963 1.33589
306 2 34.1906 18.9535 -1.97376 34.1906 18.9535 -1.97376
307 1 35.1192 17.2429 -0.24807 35.1192 17.2429 -0.24807
308 2 36.9199 17.3902 1.52212 36.9199 17.3902 1.52212
309 2 37.1015 17.2308 -1.71016 37.1015 17.2308 -1.71016
310 1 38.0358 18.9889 -0.0682654 38.0358 18.9889 -0.0682654
311 2 39.8881 19.2465 1.58479 39.8881 19.2465 1.58479
312 2 39.8541 18.8397 -1.79669 39.8541 18.8397 -1.79669
313 1 40.8223 17.3717 0.22081 40.8223 17.3717 0.22081
314 2 42.72 17.6345 1.95583 42.72 17.6345 1.95583
315 2 42.7988 17.1686 -1.29281 42.7988 17.1686 -1.29281
316 1 43.6904 19.019 0.152097 43.6904 19.019 0.152097
317 2 45.4162 19.0857 1.92357 45.4162 19.0857 1.92357
318 2 45.5863 19.0436 -1.36271 45.5863 19.0436 -1.36271
319 1 46.5939 17.4335 0.343787 46.5939 17.4335 0.343787
320 2 48.5617 17.4882 1.83134 48.5617 17.4882 1.83134
321 2 48.4822 17.5531 -1.42543 48.4822 17.5531 -1.42543
322 1 49.4546 19.1819 0.155656 49.4546 19.1819 0.155656
323 2 51.3257 19.2388 1.70186 51.3257 19.2388 1.70186
324 2 51.259 19.1832 -1.56037 51.259 19.1832 -1.56037
325 1 52.2375 20.8088 -0.0240822 0.90266 20.8088 -0.0240822
326 2 2.81978 20.6229 1.59552 2.81978 20.6229 1.59552
327 2 2.78071 20.931 -1.7299 2.78071 20.931 -1.7299
328 1 3.65372 22.4828 0.0283682 3.65372 22.4828 0.0283682
329 2 5.65367 22.3543 1.70778 5.65367 22.3543 1.70778
330 2 5.55812 22.5331 -1.53854 5.55812 22.5331 -1.53854
331 1 6.51702 20.7899 -0.0347676 6.51702 20.7899 -0.0347676
332 2 8.45509 20.7975 1.47237 8.45509 20.7975 1.47237
333 2 8.3711 20.7442 -1.78392 8.3711 20.7442 -1.78392
334 1 9.33429 22.4239 -0.232927 9.33429 22.4239 -0.232927
335 2 11.1446 22.2255 1.4847 11.1446 22.2255 1.4847
336 2 11.4132 22.3825 -1.77455 11.4132 22.3825 -1.77455
337 1 12.2062 20.7271 -0.183226 12.2062 20.7271 -0.183226
338 2 14.2829 20.5366 1.35513 14.2829 20.5366 1.35513
339 2 14.1408 20.7687 -1.93029 14.1408 20.7687 -1.93029
340 1 15.0848 22.2257 -0.180257 15.0848 22.2257 -0.180257
341 2 17.0109 22.0833 1.59504 17.0109 22.0833 1.59504
342 2 17.0455 22.5092 -1.76732 17.0455 22.5092 -1.76732
343 1 18.0118 20.6783 -0.376216 18.0118 20.6783 -0.376216
344 2 19.8936 20.6242 1.28266 19.8936 20.6242 1.28266
345 2 19.9542 20.7901 -2.01844 19.9542 20.7901 -2.01844
346 1 20.9008 22.2821 -0.219016 20.9008 22.2821 -0.219016
347 2 22.9522 22.3738 1.2779 22.9522 22.3738 1.2779
348 2 22.7489 22.234 -1.99843 22.7489 22.234 -1.99843
349 1 23.7811 20.6628 -0.398867 23.7811 20.6628 -0.398867
350 2 25.5267 21.0232 1.35216 25.5267 21.0232 1.35216
351 2 25.7842 20.3908 -1.81505 25.7842 20.3908 -1.81505
352 1 26.6136 22.4014 -0.596564 26.6136 22.4014 -0.596564
353 2 28.3537 22.4584 1.17889 28.3537 22.4584 1.17889
354 2 28.7571 22.2695 -2.02026 28.7571 22.2695 -2.02026
355 1 29.5071 20.6738 -0.192841 29.5071 20.6738 -0.192841
356 2 31.551 20.7735 1.26505 31.551 20.7735 1.26505
357 2 31.3363 20.6368 -1.97687 31.3363 20.6368 -1.97687
358 1 32.3936 22.3235 -0.408974 32.3936 22.3235 -0.408974
359 2 34.1787 22.1549 1.42903 34.1787 22.1549 1.42903
360 2 34.3791 22.3613 -1.8353 34.3791 22.3613 -1.8353
361 1 35.1858 20.6446 -0.330626 35.1858 20.6446 -0.330626
362 2 36.9556 20.701 1.49828 36.9556 20.701 1.49828
363 2 37.2745 20.5619 -1.88723 37.2745 20.5619 -1.88723
364 1 38.0861 22.2619 -0.128916 38.0861 22.2619 -0.128916
365 2 39.9743 22.3125 1.47385 39.9743 22.3125 1.47385
366 2 39.8759 22.4178 -1.80142 39.8759 22.4178 -1.80142
367 1 40.8938 20.6071 -0.273923 40.8938 20.6071 -0.273923
368 2 42.611 20.7559 1.60917 42.611 20.7559 1.60917
369 2 42.9179 20.5904 -1.64776 42.9179 20.5904 -1.64776
370 1 43.6885 22.3722 -0.121658 43.6885 22.3722 -0.121658
371 2 45.3378 22.4454 1.74793 45.3378 22.4454 1.74793
372 2 45.8591 22.3318 -1.39766 45.8591 22.3318 -1.39766
373 1 46.5802 20.7662 0.266473 46.5802 20.7662 0.266473
374 2 48.5401 20.8118 1.84227 48.5401 20.8118 1.84227
375 2 48.4671 20.8714 -1.38147 48.4671 20.8714 -1.38147
376 1 49.386 22.4675 0.252556 49.386 22.4675 0.252556
377 2 51.3745 22.2557 1.76904 51.3745 22.2557 1.76904
378 2 51.1755 22.578 -1.45797 51.1755 22.578 -1.45797
379 1 52.1443 24.098 0.256355 0.809423 24.098 0.256355
380 2 2.83473 23.9881 1.77716 2.83473 23.9881 1.77716
381 2 2.61598 24.1958 -1.49798 2.61598 24.1958 -1.49798
382 1 3.67548 25.7646 0.1387 3.67548 25.7646 0.1387
383 2 5.52165 25.7822 1.83399 5.52165 25.7822 1.83399
384 2 5.51013 25.8792 -1.51625 5.51013 25.8792 -1.51625
385 1 6.4731 24.0909 0.0924773 6.4731 24.0909 0.0924773
386 2 8.68463 24.0344 1.48198 8.68463 24.0344 1.48198
387 2 8.24778 24.2725 -1.6336 8.24778 24.2725 -1.6336
388 1 9.43876 25.7753 -0.0573289 9.43876 25.7753 -0.0573289
389 2 11.2571 25.6668 1.53159 11.2571 25.6668 1.53159
390 2 11.3532 25.6653 -1.77592 11.3532 25.6653 -1.77592
391 1 12.3063 23.9983 -0.084053 12.3063 23.9983 -0.084053
392 2 14.1558 23.7589 1.60351 14.1558 23.7589 1.60351
393 2 14.1559 24.0464 -1.77879 14.1559 24.0464 -1.77879
394 1 15.1069 25.6474 0.0287716 15.1069 25.6474 0.0287716
395 2 16.8386 25.5741 1.77314 16.8386 25.5741 1.77314
396 2 17.1359 25.6571 -1.499 17.1359 25.6571 -1.499
397 1 17.8548 23.9189 0.120319 17.8548 23.9189 0.120319
398 2 20.0944 23.7488 1.59729 20.0944 23.7488 1.59729
399 2 19.7584 24.0002 -1.67639 19.7584 24.0002 -1.67639
400 1 20.8036 25.6721 0.00611572 20.8036 25.6721 0.00611572
401 2 22.8382 25.3885 1.40772 22.8382 25.3885 1.40772
402 2 22.6932 25.8472 -1.85434 22.6932 25.8472 -1.85434
403 1 23.5783 23.9613 -0.477448 23.5783 23.9613 -0.477448
404 2 25.5337 23.9352 1.17333 25.5337 23.9352 1.17333
405 2 25.4221 23.9542 -2.14624 25.4221 23.9542 -2.14624
406 1 26.6291 25.5533 -0.544816 26.6291 25.5533 -0.544816
407 2 28.4889 25.5615 1.27802 28.4889 25.5615 1.27802
408 2 28.6228 25.5174 -2.06049 28.6228 25.5174 -2.06049
409 1 29.5556 24.0524 -0.417614 29.5556 24.0524 -0.417614
410 2 31.382 23.9113 1.204 31.382 23.9113 1.204
411 2 31.5041 24.1277 -2.01357 31.5041 24.1277 -2.01357
412 1 32.3885 25.6591 -0.277302 32.3885 25.6591 -0.277302
413 2 34.1095 25.6443 1.5908 34.1095 25.6443 1.5908
414 2 34.4452 25.5885 -1.70217 34.4452 25.5885 -1.70217
415 1 35.0959 23.9533 0.043754 35.0959 23.9533 0.043754
416 2 37.0328 23.8814 1.57497 37.0328 23.8814 1.57497
417 2 36.8969 23.8299 -1.6933 36.8969 23.8299 -1.6933
418 1 37.9469 25.574 -0.0772063 37.9469 25.574 -0.0772063
419 2 39.7977 25.5792 1.72554 39.7977 25.5792 1.72554
420 2 39.9562 25.7432 -1.66479 39.9562 25.7432 -1.66479
421 1 40.8423 23.9223 -0.0218074 40.8423 23.9223 -0.0218074
422 2 42.6148 23.761 1.60277 42.6148 23.761 1.60277
423 2 42.7148 24.2069 -1.61064 42.7148 24.2069 -1.61064
424 1 43.6423 25.6286 0.284096 43.6423 25.6286 0.284096
425 2 45.4322 25.8354 1.93641 45.4322 25.8354 1.93641
426 2 45.5895 25.6332 -1.34974 45.5895 25.6332 -1.34974
427 1 46.4165 24.0886 0.364873 46.4165 24.0886 0.364873
428 2 48.4251 24.1822 1.93234 48.4251 24.1822 1.93234
429 2 48.3633 24.2139 -1.33521 48.3633 24.2139 -1.33521
430 1 49.3743 25.8279 0.285518 49.3743 25.8279 0.285518
431 2 51.36 25.7316 1.92135 51.36 25.7316 1.92135
432 2 51.3557 25.7116 -1.36437 51.3557 25.7116 -1.36437
433 1 52.2308 27.3883 0.232829 0.89591 27.3883 0.232829
434 2 2.82569 27.3325 1.76871 2.82569 27.3325 1.76871
435 2 2.66225 27.3609 -1.42376 2.66225 27.3609 -1.42376
436 1 3.69812 29.0714 0.155195 3.69812 29.0714 0.155195
437 2 5.55551 28.9931 1.91116 5.55551 28.9931 1.91116
438 2 5.67396 29.16 -1.38985 5.67396 29.16 -1.38985
439 1 6.51716 27.4531 0.229474 6.51716 27.4531 0.229474
440 2 8.58338 27.388 1.71192 8.58338 27.388 1.71192
441 2 8.30338 27.4297 -1.52544 8.30338 27.4297 -1.52544
442 1 9.48686 29.0137 0.147307 9.48686 29.0137 0.147307
443 2 11.4699 28.8674 1.68111 11.4699 28.8674 1.68111
444 2 11.0976 29.1332 -1.64701 11.0976 29.1332 -1.64701
445 1 12.2382 27.3217 -0.144377 12.2382 27.3217 -0.144377
446 2 14.1176 27.2072 1.60857 14.1176 27.2072 1.60857
447 2 14.2043 27.2824 -1.61865 14.2043 27.2824 -1.61865
448 1 15.2073 28.9303 -0.0262794 15.2073 28.9303 -0.0262794
449 2 17.1184 28.87 1.72963 17.1184 28.87 1.72963
450 2 17.2047 28.8283 -1.56472 17.2047 28.8283 -1.56472
451 1 18.0142 27.2014 0.189278 18.0142 27.2014 0.189278
452 2 19.9237 27.1298 1.77683 19.9237 27.1298 1.77683
453 2 19.8685 27.329 -1.46981 19.8685 27.329 -1.46981
454 1 20.8749 28.8208 0.240876 20.8749 28.8208 0.240876
455 2 22.7829 28.7124 1.74378 22.7829 28.7124 1.74378
456 2 22.6399 28.9001 -1.49631 22.6399 28.9001 -1.49631
457 1 23.742 27.1833 -0.0870882 23.742 27.1833 -0.0870882
458 2 25.7666 26.8987 1.36092 25.7666 26.8987 1.36092
459 2 25.5891 27.367 -1.81404 25.5891 27.367 -1.81404
460 1 26.6155 28.8096 0.00338241 26.6155 28.8096 0.00338241
461 2 28.661 28.8105 1.42787 28.661 28.8105 1.42787
462 2 28.3932 29.0364 -1.81106 28.3932 29.0364 -1.81106
463 1 29.4437 27.2655 -0.318245 29.4437 27.2655 -0.318245
464 2 31.2002 27.1955 1.41682 31.2002 27.1955 1.41682
465 2 31.5181 27.4878 -1.85751 31.5181 27.4878 -1.85751
466 1 32.2762 28.9503 -0.145715 32.2762 28.9503 -0.145715
467 2 34.0095 28.9375 1.59891 34.0095 28.9375 1.59891
468 2 34.2677 28.9462 -1.60935 34.2677 28.9462 -1.60935
469 1 35.149 27.2852 0.0804188 35.149 27.2852 0.0804188
470 2 37.0621 27.1614 1.64557 37.0621 27.1614 1.64557
471 2 36.9567 27.3173 -1.55316 36.9567 27.3173 -1.55316
472 1 37.9497 28.9931 0.166257 37.9497 28.9931 0.166257
473 2 39.7341 28.8671 1.88576 39.7341 28.8671 1.88576
474 2 39.9995 28.9678 -1.39504 39.9995 28.9678 -1.39504
475 1 40.7661 27.2179 0.168853 40.7661 27.2179 0.168853
476 2 42.7027 27.2619 1.82189 42.7027 27.2619 1.82189
477 2 42.8082 27.2312 -1.43947 42.8082 27.2312 -1.43947
478 1 43.606 29.0393 0.170393 43.606 29.0393 0.170393
479 2 45.5805 28.9185 1.84877 45.5805 28.9185 1.84877
480 2 45.5828 29.0221 -1.41131 45.5828 29.0221 -1.41131
481 1 46.4853 27.3424 0.235158 46.4853 27.3424 0.235158
482 2 48.3956 27.4552 1.89075 48.3956 27.4552 1.89075
483 2 48.44 27.467 -1.38063 48.44 27.467 -1.38063
484 1 49.3804 29.0949 0.347169 49.3804 29.0949 0.347169
485 2 51.3551 29.1216 1.81498 51.3551 29.1216 1.81498
486 2 51.1368 29.0244 -1.4017 51.1368 29.0244 -1.4017
487 1 52.1821 30.7764 0.0430336 0.847213 30.7764 0.0430336
488 2 2.762 30.9173 1.64099 2.762 30.9173 1.64099
489 2 2.76675 30.7015 -1.64896 2.76675 30.7015 -1.64896
490 1 3.61018 32.3717 -0.125681 3.61018 32.3717 -0.125681
491 2 5.3995 32.4051 1.76844 5.3995 32.4051 1.76844
492 2 5.74706 32.2546 -1.50641 5.74706 32.2546 -1.50641
493 1 6.5827 30.6652 0.353533 6.5827 30.6652 0.353533
494 2 8.75006 30.7733 1.8033 8.75006 30.7733 1.8033
495 2 8.42818 30.5523 -1.44025 8.42818 30.5523 -1.44025
496 1 9.46771 32.3474 -0.0112697 9.46771 32.3474 -0.0112697
497 2 11.2831 32.291 1.71523 11.2831 32.291 1.71523
498 2 11.4855 32.3422 -1.6043 11.4855 32.3422 -1.6043
499 1 12.2742 30.5922 0.0521072 12.2742 30.5922 0.0521072
500 2 14.1934 30.4433 1.71733 14.1934 30.4433 1.71733
501 2 14.1373 30.6427 -1.60561 14.1373 30.6427 -1.60561
502 1 15.13 32.1944 0.0879118 15.13 32.1944 0.0879118
503 2 17.0797 32.2091 1.63474 17.0797 32.2091 1.63474
504 2 16.9476 31.9781 -1.58567 16.9476 31.9781 -1.58567
505 1 18.044 30.4503 0.0849715 18.044 30.4503 0.0849715
506 2 19.8495 30.6224 1.74664 19.8495 30.6224 1.74664
507 2 19.8802 30.3844 -1.63166 19.8802 30.3844 -1.63166
508 1 20.8625 32.1237 0.0649615 20.8625 32.1237 0.0649615
509 2 22.7478 32.1234 1.74544 22.7478 32.1234 1.74544
510 2 22.7491 31.9862 -1.61113 22.7491 31.9862 -1.61113
511 1 23.7154 30.5022 0.180211 23.7154 30.5022 0.180211
512 2 25.6973 30.6005 1.62574 25.6973 30.6005 1.62574
513 2 25.5306 30.3965 -1.56192 25.5306 30.3965 -1.56192
514 1 26.4736 32.1437 -0.112759 26.4736 32.1437 -0.112759
515 2 28.4049 32.1002 1.49006 28.4049 32.1002 1.49006
516 2 28.4158 32.2044 -1.77906 28.4158 32.2044 -1.77906
517 1 29.4733 30.5877 -0.218057 29.4733 30.5877 -0.218057
518 2 31.197 30.6474 1.59673 31.197 30.6474 1.59673
519 2 31.4956 30.7189 -1.72815 31.4956 30.7189 -1.72815
520 1 32.2022 32.2406 0.0673701 32.2022 32.2406 0.0673701
521 2 34.1082 32.187 1.76293 34.1082 32.187 1.76293
522 2 34.1572 32.1388 -1.54696 34.1572 32.1388 -1.54696
523 1 35.1244 30.5589 0.114951 35.1244 30.5589 0.114951
524 2 36.839 30.6958 1.80647 36.839 30.6958 1.80647
525 2 36.9916 30.6148 -1.49446 36.9916 30.6148 -1.49446
526 1 37.8119 32.2215 0.204317 37.8119 32.2215 0.204317
527 2 39.6987 32.3909 1.84722 39.6987 32.3909 1.84722
528 2 39.8005 32.237 -1.40325 39.8005 32.237 -1.40325
529 1 40.7363 30.638 0.381555 40.7363 30.638 0.381555
530 2 42.6999 30.5322 1.8226 42.6999 30.5322 1.8226
531 2 42.5663 30.6707 -1.39748 42.5663 30.6707 -1.39748
532 1 43.5695 32.3449 0.257293 43.5695 32.3449 0.257293
533 2 45.5477 32.4896 1.90874 45.5477 32.4896 1.90874
534 2 45.4808 32.2326 -1.36312 45.4808 32.2326 -1.36312
535 1 46.4955 30.6755 0.287969 46.4955 30.6755 0.287969
536 2 48.284 30.6845 1.89884 48.284 30.6845 1.89884
537 2 48.4576 30.66 -1.35052 48.4576 30.66 -1.35052
538 1 49.3539 32.362 0.318217 49.3539 32.362 0.318217
539 2 51.2778 32.3578 1.90829 51.2778 32.3578 1.90829
540 2 51.1153 32.46 -1.41743 51.1153 32.46 -1.41743