ITEM: TIMESTEP
7100
ITEM: NUMBER OF ATOMS
810
ITEM: BOX BOUNDS pp pp pp
8.4137701477268123e-01 5.2176227985227342e+01
8.0961581116522285e-01 5.0206599188834083e+01
-1.0000000000000000e+01 1.0000000000000000e+01
ITEM: ATOMS id type x y z xu yu zu
1 1 52.1861 50.3947 0.318629 0.851268 0.997708 0.318629
2 2 2.68251 50.3662 2.00001 2.68251 0.969195 2.00001
3 2 2.75157 50.403 -1.2586 2.75157 1.00599 -1.2586
4 1 3.75099 2.66053 0.426026 3.75099 2.66053 0.426026
5 2 5.71416 2.64584 2.01771 5.71416 2.64584 2.01771
6 2 5.68088 2.5701 -1.26136 5.68088 2.5701 -1.26136
7 1 6.64267 50.3681 0.471192 6.64267 0.97111 0.471192
8 2 8.47799 50.2564 2.12232 8.47799 0.85945 2.12232
9 2 8.52371 50.2785 -1.06532 8.52371 0.881536 -1.06532
10 1 9.53382 2.54821 0.469721 9.53382 2.54821 0.469721
11 2 11.4737 2.60297 2.12106 11.4737 2.60297 2.12106
12 2 11.4902 2.40469 -1.07175 11.4902 2.40469 -1.07175
13 1 12.4049 50.2037 0.734995 12.4049 0.806725 0.734995
14 2 14.3775 50.3281 2.30316 14.3775 0.931116 2.30316
15 2 14.1088 50.2039 -1.00708 14.1088 0.806951 -1.00708
16 1 15.2052 2.47669 0.460869 15.2052 2.47669 0.460869
17 2 17.1019 2.58166 2.01094 17.1019 2.58166 2.01094
18 2 16.9263 2.46169 -1.2271 16.9263 2.46169 -1.2271
19 1 18.0088 50.2293 0.446309 18.0088 0.832365 0.446309
20 2 20.1346 50.1868 1.87254 20.1346 0.789777 1.87254
21 2 19.7168 50.2326 -1.38252 19.7168 0.835598 -1.38252
22 1 20.8071 2.45961 0.17992 20.8071 2.45961 0.17992
23 2 22.8344 2.33624 1.90058 22.8344 2.33624 1.90058
24 2 22.7202 2.62758 -1.36672 22.7202 2.62758 -1.36672
25 1 23.6583 50.3353 0.156566 23.6583 0.938334 0.156566
26 2 25.5112 50.0446 1.84747 25.5112 0.647579 1.84747
27 2 25.59 50.4706 -1.39204 25.59 1.07358 -1.39204
28 1 26.5512 2.51847 0.408486 26.5512 2.51847 0.408486
29 2 28.5817 2.41776 1.9056 28.5817 2.41776 1.9056
30 2 28.4933 2.73014 -1.34475 28.4933 2.73014 -1.34475
31 1 29.4083 50.3086 -0.0602498 29.4083 0.91166 -0.0602498
32 2 31.2786 50.3352 1.5365 31.2786 0.938246 1.5365
33 2 31.3212 50.3727 -1.66308 31.3212 0.975703 -1.66308
34 1 32.2655 2.56858 -0.107337 32.2655 2.56858 -0.107337
35 2 33.9948 2.35163 1.64184 33.9948 2.35163 1.64184
36 2 34.3764 2.73195 -1.47756 34.3764 2.73195 -1.47756
37 1 35.0425 50.2906 -0.102257 35.0425 0.893574 -0.102257
38 2 36.983 50.1667 1.45038 36.983 0.769747 1.45038
39 2 36.7677 50.4843 -1.81755 36.7677 1.08733 -1.81755
40 1 37.8966 2.58386 -0.105394 37.8966 2.58386 -0.105394
41 2 39.7562 2.30618 1.56295 39.7562 2.30618 1.56295
42 2 39.7807 2.74475 -1.70432 39.7807 2.74475 -1.70432
43 1 40.7639 50.324 -0.237386 40.7639 0.927006 -0.237386
44 2 42.5709 50.1576 1.51114 42.5709 0.760628 1.51114
45 2 42.7507 50.3795 -1.784 42.7507 0.982556 -1.784
46 1 43.6307 2.63697 -0.00987695 43.6307 2.63697 -0.00987695
47 2 45.5535 2.67261 1.52116 45.5535 2.67261 1.52116
48 2 45.3986 2.46841 -1.78637 45.3986 2.46841 -1.78637
49 1 46.5274 50.2989 -0.104037 46.5274 0.901874 -0.104037
50 2 48.2823 50.3615 1.64944 48.2823 0.964519 1.64944
51 2 48.4985 50.4383 -1.6097 48.4985 1.04135 -1.6097
52 1 49.3332 2.56055 0.0541175 49.3332 2.56055 0.0541175
53 2 51.1586 2.85526 1.79418 51.1586 2.85526 1.79418
54 2 51.3222 2.51674 -1.49811 51.3222 2.51674 -1.49811
55 1 52.1392 4.30131 0.107982 0.804306 4.30131 0.107982
56 2 2.56478 4.38467 1.87468 2.56478 4.38467 1.87468
57 2 2.81277 4.25637 -1.39057 2.81277 4.25637 -1.39057
58 1 3.75167 5.88143 0.252826 3.75167 5.88143 0.252826
59 2 5.6387 5.90257 1.94423 5.6387 5.90257 1.94423
60 2 5.72327 6.02596 -1.28164 5.72327 6.02596 -1.28164
61 1 6.61939 4.28133 0.276022 6.61939 4.28133 0.276022
62 2 8.52299 4.3718 1.94564 8.52299 4.3718 1.94564
63 2 8.58763 4.08346 -1.26934 8.58763 4.08346 -1.26934
64 1 9.51564 5.82846 0.303962 9.51564 5.82846 0.303962
65 2 11.407 5.89254 1.95837 11.407 5.89254 1.95837
66 2 11.3715 5.68511 -1.29177 11.3715 5.68511 -1.29177
67 1 12.3405 4.18929 0.361525 12.3405 4.18929 0.361525
68 2 14.3058 4.28868 1.96653 14.3058 4.28868 1.96653
69 2 14.2721 4.06006 -1.22987 14.2721 4.06006 -1.22987
70 1 15.1839 5.80102 0.222389 15.1839 5.80102 0.222389
71 2 17.2176 5.80841 1.81473 17.2176 5.80841 1.81473
72 2 17.0495 5.6865 -1.48814 17.0495 5.6865 -1.48814
73 1 18.0212 4.08525 0.25171 18.0212 4.08525 0.25171
74 2 19.9598 4.11469 1.8859 19.9598 4.11469 1.8859
75 2 19.9802 4.18276 -1.38058 19.9802 4.18276 -1.38058
76 1 20.8231 5.83686 0.213157 20.8231 5.83686 0.213157
77 2 22.5442 5.853 2.07233 22.5442 5.853 2.07233
78 2 22.8739 5.8415 -1.26645 22.8739 5.8415 -1.26645
79 1 23.6522 4.19868 0.442855 23.6522 4.19868 0.442855
80 2 25.6349 4.09831 2.093 25.6349 4.09831 2.093
81 2 25.5711 4.24943 -1.13287 25.5711 4.24943 -1.13287
82 1 26.6118 5.82431 0.552947 26.6118 5.82431 0.552947
83 2 28.5484 5.96088 2.04267 28.5484 5.96088 2.04267
84 2 28.3353 5.86695 -1.20719 28.3353 5.86695 -1.20719
85 1 29.4418 4.15077 0.363722 29.4418 4.15077 0.363722
86 2 31.4081 3.89487 1.82904 31.4081 3.89487 1.82904
87 2 31.165 4.51537 -1.37585 31.165 4.51537 -1.37585
88 1 32.247 5.79251 0.431763 32.247 5.79251 0.431763
89 2 34.1456 5.79065 2.08728 34.1456 5.79065 2.08728
90 2 34.1937 6.02798 -1.17883 34.1937 6.02798 -1.17883
91 1 35.101 4.18682 0.368746 35.101 4.18682 0.368746
92 2 37.0914 4.11233 1.67782 37.0914 4.11233 1.67782
93 2 36.8332 4.31815 -1.46673 36.8332 4.31815 -1.46673
94 1 37.949 5.8735 0.143103 37.949 5.8735 0.143103
95 2 39.8392 5.83488 1.80439 39.8392 5.83488 1.80439
96 2 39.8549 5.77482 -1.5614 39.8549 5.77482 -1.5614
97 1 40.7337 4.25504 0.168724 40.7337 4.25504 0.168724
98 2 42.7148 4.25825 1.61674 42.7148 4.25825 1.61674
99 2 42.4757 4.31679 -1.61338 42.4757 4.31679 -1.61338
100 1 43.5793 5.94197 -0.0634186 43.5793 5.94197 -0.0634186
101 2 45.4999 5.72696 1.63846 45.4999 5.72696 1.63846
102 2 45.506 6.07964 -1.71734 45.506 6.07964 -1.71734
103 1 46.397 4.22015 -0.25982 46.397 4.22015 -0.25982
104 2 48.2474 4.19546 1.55307 48.2474 4.19546 1.55307
105 2 48.5565 4.2336 -1.59196 48.5565 4.2336 -1.59196
106 1 49.348 5.83318 0.157153 49.348 5.83318 0.157153
107 2 51.2086 5.83684 1.80418 51.2086 5.83684 1.80418
108 2 51.1418 5.73975 -1.48134 51.1418 5.73975 -1.48134
109 1 52.1546 7.46557 0.0665317 0.819784 7.46557 0.0665317
110 2 2.55997 7.38861 1.86345 2.55997 7.38861 1.86345
111 2 2.74344 7.51293 -1.37113 2.74344 7.51293 -1.37113
112 1 3.69097 9.11856 0.43219 3.69097 9.11856 0.43219
113 2 5.71228 9.31981 2.00505 5.71228 9.31981 2.00505
114 2 5.51318 9.25099 -1.27935 5.51318 9.25099 -1.27935
115 1 6.60798 7.63581 0.42358 6.60798 7.63581 0.42358
116 2 8.59385 7.58198 1.97436 8.59385 7.58198 1.97436
117 2 8.3471 7.48557 -1.28838 8.3471 7.48557 -1.28838
118 1 9.51199 9.1727 0.134632 9.51199 9.1727 0.134632
119 2 11.5223 9.33178 1.62178 11.5223 9.33178 1.62178
120 2 11.3467 8.8975 -1.54852 11.3467 8.8975 -1.54852
121 1 12.2852 7.46338 0.186319 12.2852 7.46338 0.186319
122 2 14.2735 7.59108 1.68009 14.2735 7.59108 1.68009
123 2 14.197 7.37187 -1.47593 14.197 7.37187 -1.47593
124 1 15.2009 9.1218 0.0311955 15.2009 9.1218 0.0311955
125 2 17.1569 9.22588 1.62219 17.1569 9.22588 1.62219
126 2 17.0491 9.02687 -1.6241 17.0491 9.02687 -1.6241
127 1 18.0053 7.49438 0.0469843 18.0053 7.49438 0.0469843
128 2 19.8619 7.36708 1.79276 19.8619 7.36708 1.79276
129 2 19.9416 7.5741 -1.44953 19.9416 7.5741 -1.44953
130 1 20.901 9.19326 0.247667 20.901 9.19326 0.247667
131 2 22.7427 9.26892 1.96732 22.7427 9.26892 1.96732
132 2 22.8696 9.1347 -1.32891 22.8696 9.1347 -1.32891
133 1 23.7262 7.48194 0.495841 23.7262 7.48194 0.495841
134 2 25.5053 7.40906 2.12317 25.5053 7.40906 2.12317
135 2 25.6978 7.48489 -1.08878 25.6978 7.48489 -1.08878
136 1 26.5205 9.21302 0.549988 26.5205 9.21302 0.549988
137 2 28.4304 9.06488 2.17999 28.4304 9.06488 2.17999
138 2 28.4059 9.26346 -1.18674 28.4059 9.26346 -1.18674
139 1 29.3943 7.50884 0.344257 29.3943 7.50884 0.344257
140 2 31.2935 7.35135 2.20976 31.2935 7.35135 2.20976
141 2 31.318 7.61273 -1.13308 31.318 7.61273 -1.13308
142 1 32.2266 9.15616 0.673191 32.2266 9.15616 0.673191
143 2 34.2708 9.27326 2.25393 34.2708 9.27326 2.25393
144 2 34.1176 9.03096 -1.01613 34.1176 9.03096 -1.01613
145 1 35.1282 7.48408 0.634913 35.1282 7.48408 0.634913
146 2 37.2525 7.4487 2.04115 37.2525 7.4487 2.04115
147 2 36.7723 7.62643 -1.19918 36.7723 7.62643 -1.19918
148 1 37.9618 9.21529 0.395948 37.9618 9.21529 0.395948
149 2 39.8858 9.07878 2.02791 39.8858 9.07878 2.02791
150 2 39.7868 9.48897 -1.22885 39.7868 9.48897 -1.22885
151 1 40.7171 7.5886 0.195932 40.7171 7.5886 0.195932
152 2 42.573 7.34504 1.86746 42.573 7.34504 1.86746
153 2 42.665 7.90332 -1.36937 42.665 7.90332 -1.36937
154 1 43.6244 9.25259 0.46137 43.6244 9.25259 0.46137
155 2 45.7007 9.12643 1.88973 45.7007 9.12643 1.88973
156 2 45.3972 9.11839 -1.35248 45.3972 9.11839 -1.35248
157 1 46.4938 7.54034 0.195623 46.4938 7.54034 0.195623
158 2 48.3693 7.44892 1.8211 48.3693 7.44892 1.8211
159 2 48.3623 7.52652 -1.44001 48.3623 7.52652 -1.44001
160 1 49.3642 9.19613 0.236624 49.3642 9.19613 0.236624
161 2 51.3295 9.15707 1.79096 51.3295 9.15707 1.79096
162 2 51.0881 9.18181 -1.40952 51.0881 9.18181 -1.40952
163 1 52.2054 10.8481 0.249003 0.870592 10.8481 0.249003
164 2 2.81174 10.9355 1.86394 2.81174 10.9355 1.86394
165 2 2.80585 10.5624 -1.33723 2.80585 10.5624 -1.33723
166 1 3.6986 12.4435 0.158834 3.6986 12.4435 0.158834
167 2 5.61857 12.4647 1.81761 5.61857 12.4647 1.81761
168 2 5.66728 12.4018 -1.36949 5.66728 12.4018 -1.36949
169 1 6.57841 10.8383 0.241714 6.57841 10.8383 0.241714
170 2 8.68243 10.8566 1.6391 8.68243 10.8566 1.6391
171 2 8.2917 10.6155 -1.5582 8.2917 10.6155 -1.5582
172 1 9.45931 12.3847 -0.175957 9.45931 12.3847 -0.175957
173 2 11.3735 12.3837 1.40611 11.3735 12.3837 1.40611
174 2 11.3906 12.3065 -1.97343 11.3906 12.3065 -1.97343
175 1 12.4258 10.7552 -0.209963 12.4258 10.7552 -0.209963
176 2 14.2462 11.0256 1.45357 14.2462 11.0256 1.45357
177 2 14.2846 10.5645 -1.86625 14.2846 10.5645 -1.86625
178 1 15.278 12.4188 -0.473535 15.278 12.4188 -0.473535
179 2 17.0255 12.6229 1.15139 17.0255 12.6229 1.15139
180 2 17.1932 12.028 -2.00671 17.1932 12.028 -2.00671
181 1 18.0672 10.7345 -0.0616319 18.0672 10.7345 -0.0616319
182 2 19.9773 11.0063 1.60775 19.9773 11.0063 1.60775
183 2 20.0278 10.5888 -1.64296 20.0278 10.5888 -1.64296
184 1 20.8931 12.4119 -0.239229 20.8931 12.4119 -0.239229
185 2 22.5397 12.5765 1.59138 22.5397 12.5765 1.59138
186 2 22.9661 12.2637 -1.57656 22.9661 12.2637 -1.57656
187 1 23.7296 10.7528 0.269773 23.7296 10.7528 0.269773
188 2 25.4828 10.9997 1.94607 25.4828 10.9997 1.94607
189 2 25.7033 10.72 -1.35053 25.7033 10.72 -1.35053
190 1 26.5619 12.4089 0.196185 26.5619 12.4089 0.196185
191 2 28.1831 12.517 2.03122 28.1831 12.517 2.03122
192 2 28.5606 12.3399 -1.25233 28.5606 12.3399 -1.25233
193 1 29.3813 10.766 0.540181 29.3813 10.766 0.540181
194 2 31.2648 10.8594 2.263 31.2648 10.8594 2.263
195 2 31.3357 10.7386 -0.938662 31.3357 10.7386 -0.938662
196 1 32.3362 12.423 0.650049 32.3362 12.423 0.650049
197 2 34.3424 12.5563 2.08711 34.3424 12.5563 2.08711
198 2 34.0117 12.2317 -1.26652 34.0117 12.2317 -1.26652
199 1 35.1276 10.81 0.381301 35.1276 10.81 0.381301
200 2 37.0617 10.8839 1.98858 37.0617 10.8839 1.98858
201 2 37.0583 10.8563 -1.23658 37.0583 10.8563 -1.23658
202 1 37.9223 12.5855 0.314823 37.9223 12.5855 0.314823
203 2 39.7409 12.7049 1.87963 39.7409 12.7049 1.87963
204 2 39.8806 12.4526 -1.27592 39.8806 12.4526 -1.27592
205 1 40.7471 10.8974 0.530649 40.7471 10.8974 0.530649
206 2 42.6705 10.6967 2.11474 42.6705 10.6967 2.11474
207 2 42.5989 10.903 -1.08825 42.5989 10.903 -1.08825
208 1 43.6239 12.4018 0.556326 43.6239 12.4018 0.556326
209 2 45.6241 12.3236 2.04376 45.6241 12.3236 2.04376
210 2 45.3487 12.4602 -1.29489 45.3487 12.4602 -1.29489
211 1 46.411 10.8582 0.245065 46.411 10.8582 0.245065
212 2 48.3667 10.77 1.87229 48.3667 10.77 1.87229
213 2 48.3654 10.8395 -1.36435 48.3654 10.8395 -1.36435
214 1 49.3177 12.4127 0.317621 49.3177 12.4127 0.317621
215 2 51.2392 12.4754 1.90543 51.2392 12.4754 1.90543
216 2 51.1898 12.5158 -1.4118 51.1898 12.5158 -1.4118
217 1 52.1227 14.1361 0.134 0.787898 14.1361 0.134
218 2 2.71145 14.1778 1.76504 2.71145 14.1778 1.76504
219 2 2.66705 14.0876 -1.58501 2.66705 14.0876 -1.58501
220 1 3.62636 15.7945 0.101144 3.62636 15.7945 0.101144
221 2 5.44365 15.7982 1.75734 5.44365 15.7982 1.75734
222 2 5.6768 15.7094 -1.38064 5.6768 15.7094 -1.38064
223 1 6.57989 14.0835 0.208566 6.57989 14.0835 0.208566
224 2 8.55084 13.8288 1.75897 8.55084 13.8288 1.75897
225 2 8.40478 14.2913 -1.40521 8.40478 14.2913 -1.40521
226 1 9.39998 15.7455 0.263194 9.39998 15.7455 0.263194
227 2 11.5805 15.4461 1.58692 11.5805 15.4461 1.58692
228 2 11.0479 15.7345 -1.63201 11.0479 15.7345 -1.63201
229 1 12.3329 14.0401 -0.328595 12.3329 14.0401 -0.328595
230 2 14.3783 14.0797 1.23158 14.3783 14.0797 1.23158
231 2 14.1938 14.0855 -2.05851 14.1938 14.0855 -2.05851
232 1 15.1876 15.7106 -0.408108 15.1876 15.7106 -0.408108
233 2 17.101 15.7802 1.07347 17.101 15.7802 1.07347
234 2 16.978 15.7144 -2.16955 16.978 15.7144 -2.16955
235 1 18.0679 13.9482 -0.593797 18.0679 13.9482 -0.593797
236 2 19.7749 14.1571 1.23897 19.7749 14.1571 1.23897
237 2 20.0607 13.9583 -2.03808 20.0607 13.9583 -2.03808
238 1 20.8451 15.7656 -0.419046 20.8451 15.7656 -0.419046
239 2 22.495 15.7102 1.49121 22.495 15.7102 1.49121
240 2 22.945 15.7992 -1.80615 22.945 15.7992 -1.80615
241 1 23.6652 14.0754 0.00637867 23.6652 14.0754 0.00637867
242 2 25.4567 14.1048 1.73467 25.4567 14.1048 1.73467
243 2 25.6343 13.9493 -1.57251 25.6343 13.9493 -1.57251
244 1 26.4293 15.6677 0.111353 26.4293 15.6677 0.111353
245 2 28.2219 15.7338 1.88116 28.2219 15.7338 1.88116
246 2 28.4646 15.4818 -1.3118 28.4646 15.4818 -1.3118
247 1 29.4017 14.0005 0.504613 29.4017 14.0005 0.504613
248 2 31.3353 14.3468 2.04573 31.3353 14.3468 2.04573
249 2 31.1776 13.7551 -1.16826 31.1776 13.7551 -1.16826
250 1 32.2175 15.6777 0.176601 32.2175 15.6777 0.176601
251 2 34.2407 15.8553 1.75558 34.2407 15.8553 1.75558
252 2 34.0671 15.5268 -1.51582 34.0671 15.5268 -1.51582
253 1 35.0388 14.0579 0.214309 35.0388 14.0579 0.214309
254 2 37.0253 14.367 1.83629 37.0253 14.367 1.83629
255 2 36.9628 14.0713 -1.44031 36.9628 14.0713 -1.44031
256 1 37.9901 15.8338 0.0322614 37.9901 15.8338 0.0322614
257 2 39.8742 16.0282 1.71175 39.8742 16.0282 1.71175
258 2 39.8439 15.6161 -1.65058 39.8439 15.6161 -1.65058
259 1 40.8306 14.139 0.15852 40.8306 14.139 0.15852
260 2 42.597 14.153 1.98752 42.597 14.153 1.98752
261 2 42.7677 14.0187 -1.26969 42.7677 14.0187 -1.26969
262 1 43.6077 15.7789 0.288877 43.6077 15.7789 0.288877
263 2 45.3452 15.7175 2.01074 45.3452 15.7175 2.01074
264 2 45.5548 15.773 -1.2052 45.5548 15.773 -1.2052
265 1 46.4984 14.0642 0.421408 46.4984 14.0642 0.421408
266 2 48.4996 14.0943 2.00286 48.4996 14.0943 2.00286
267 2 48.3603 14.1783 -1.30988 48.3603 14.1783 -1.30988
268 1 49.3025 15.72 0.360932 49.3025 15.72 0.360932
269 2 51.3243 15.8784 1.78563 51.3243 15.8784 1.78563
270 2 51.091 15.7742 -1.48147 51.091 15.7742 -1.48147
271 1 52.2208 17.3825 -0.0115696 0.885966 17.3825 -0.0115696
272 2 2.76598 17.6622 1.62384 2.76598 17.6622 1.62384
273 2 2.72187 17.3715 -1.62642 2.72187 17.3715 -1.62642
274 1 3.6541 19.1421 -0.145962 3.6541 19.1421 -0.145962
275 2 5.45495 19.2014 1.69112 5.45495 19.2014 1.69112
276 2 5.67797 18.8851 -1.60006 5.67797 18.8851 -1.60006
277 1 6.53255 17.4163 0.211681 6.53255 17.4163 0.211681
278 2 8.58486 17.4611 1.7958 8.58486 17.4611 1.7958
279 2 8.37278 17.2708 -1.47154 8.37278 17.2708 -1.47154
280 1 9.44536 19.0689 0.0227214 9.44536 19.0689 0.0227214
281 2 11.4621 19.1029 1.48421 11.4621 19.1029 1.48421
282 2 11.1487 18.9449 -1.88335 11.1487 18.9449 -1.88335
283 1 12.274 17.3064 -0.17184 12.274 17.3064 -0.17184
284 2 14.3093 17.2161 1.30891 14.3093 17.2161 1.30891
285 2 14.0468 17.3045 -1.86741 14.0468 17.3045 -1.86741
286 1 15.1666 18.9609 -0.285237 15.1666 18.9609 -0.285237
287 2 17.247 18.8704 1.21011 17.247 18.8704 1.21011
288 2 16.9869 19.1542 -2.09667 16.9869 19.1542 -2.09667
289 1 18.0774 17.3896 -0.585615 18.0774 17.3896 -0.585615
290 2 19.8116 17.2632 1.28022 19.8116 17.2632 1.28022
291 2 20.1356 17.6269 -1.97895 20.1356 17.6269 -1.97895
292 1 20.929 19.0358 -0.0995537 20.929 19.0358 -0.0995537
293 2 22.5338 18.8004 1.67947 22.5338 18.8004 1.67947
294 2 22.8998 19.0174 -1.61539 22.8998 19.0174 -1.61539
295 1 23.7118 17.3379 0.022669 23.7118 17.3379 0.022669
296 2 25.4276 17.2403 1.82614 25.4276 17.2403 1.82614
297 2 25.7065 17.4171 -1.47459 25.7065 17.4171 -1.47459
298 1 26.5612 18.9887 0.321631 26.5612 18.9887 0.321631
299 2 28.457 19.0086 1.85492 28.457 19.0086 1.85492
300 2 28.4597 18.8591 -1.38457 28.4597 18.8591 -1.38457
301 1 29.3203 17.2965 0.290515 29.3203 17.2965 0.290515
302 2 31.3072 17.2907 1.81387 31.3072 17.2907 1.81387
303 2 31.1508 17.3962 -1.43175 31.1508 17.3962 -1.43175
304 1 32.2247 18.9517 0.162522 32.2247 18.9517 0.162522
305 2 34.2291 19.0401 1.58139 34.2291 19.0401 1.58139
306 2 33.9671 18.8282 -1.6401 33.9671 18.8282 -1.6401
307 1 35.1062 17.3588 -0.0637841 35.1062 17.3588 -0.0637841
308 2 36.9466 17.4907 1.69263 36.9466 17.4907 1.69263
309 2 36.9313 17.3173 -1.68882 36.9313 17.3173 -1.68882
310 1 37.9623 19.0279 -0.219878 37.9623 19.0279 -0.219878
311 2 39.8444 19.0967 1.32732 39.8444 19.0967 1.32732
312 2 39.7202 18.9921 -1.95233 39.7202 18.9921 -1.95233
313 1 40.8147 17.4194 -0.210808 40.8147 17.4194 -0.210808
314 2 42.4939 17.4464 1.66761 42.4939 17.4464 1.66761
315 2 42.9492 17.4475 -1.55358 42.9492 17.4475 -1.55358
316 1 43.5968 19.1007 0.158815 43.5968 19.1007 0.158815
317 2 45.4171 19.3065 1.90136 45.4171 19.3065 1.90136
318 2 45.699 18.9606 -1.37657 45.699 18.9606 -1.37657
319 1 46.4112 17.4175 0.471878 46.4112 17.4175 0.471878
320 2 48.4146 17.4465 2.04358 48.4146 17.4465 2.04358
321 2 48.2618 17.3393 -1.19215 48.2618 17.3393 -1.19215
322 1 49.3403 19.0506 0.300438 49.3403 19.0506 0.300438
323 2 51.3641 19.1662 1.68057 51.3641 19.1662 1.68057
324 2 51.0841 19.0775 -1.52951 51.0841 19.0775 -1.52951
325 1 52.1078 20.7206 -0.0459057 0.772998 20.7206 -0.0459057
326 2 2.77664 20.5966 1.53082 2.77664 20.5966 1.53082
327 2 2.67306 20.7819 -1.66266 2.67306 20.7819 -1.66266
328 1 3.6929 22.3314 0.0853217 3.6929 22.3314 0.0853217
329 2 5.66563 22.3174 1.64604 5.66563 22.3174 1.64604
330 2 5.57216 22.3822 -1.65068 5.57216 22.3822 -1.65068
331 1 6.59246 20.7238 -0.0476645 6.59246 20.7238 -0.0476645
332 2 8.4398 20.7144 1.59795 8.4398 20.7144 1.59795
333 2 8.54316 20.6407 -1.71019 8.54316 20.6407 -1.71019
334 1 9.42292 22.3512 -0.0330106 9.42292 22.3512 -0.0330106
335 2 11.3644 22.1785 1.52847 11.3644 22.1785 1.52847
336 2 11.2999 22.5047 -1.71352 11.2999 22.5047 -1.71352
337 1 12.2618 20.6472 -0.331135 12.2618 20.6472 -0.331135
338 2 14.2433 20.5959 1.33661 14.2433 20.5959 1.33661
339 2 14.2211 20.612 -1.93202 14.2211 20.612 -1.93202
340 1 15.1333 22.294 -0.33473 15.1333 22.294 -0.33473
341 2 17.0271 22.0575 1.31669 17.0271 22.0575 1.31669
342 2 17.1203 22.47 -1.96228 17.1203 22.47 -1.96228
343 1 18.0894 20.6679 -0.436196 18.0894 20.6679 -0.436196
344 2 19.7541 20.772 1.40673 19.7541 20.772 1.40673
345 2 20.1725 20.6017 -1.87026 20.1725 20.6017 -1.87026
346 1 20.8331 22.2663 -0.118455 20.8331 22.2663 -0.118455
347 2 22.5321 22.3578 1.69171 22.5321 22.3578 1.69171
348 2 22.9079 22.2902 -1.56463 22.9079 22.2902 -1.56463
349 1 23.6526 20.6784 0.251712 23.6526 20.6784 0.251712
350 2 25.7993 20.7142 1.844 25.7993 20.7142 1.844
351 2 25.5369 20.6497 -1.40019 25.5369 20.6497 -1.40019
352 1 26.5133 22.319 0.131078 26.5133 22.319 0.131078
353 2 28.4423 22.3803 1.7375 28.4423 22.3803 1.7375
354 2 28.4254 22.2782 -1.59267 28.4254 22.2782 -1.59267
355 1 29.3656 20.6907 0.0921068 29.3656 20.6907 0.0921068
356 2 31.249 20.5723 1.81149 31.249 20.5723 1.81149
357 2 31.2679 20.6482 -1.53631 31.2679 20.6482 -1.53631
358 1 32.3471 22.2299 0.214374 32.3471 22.2299 0.214374
359 2 34.3158 22.1233 1.69127 34.3158 22.1233 1.69127
360 2 34.0647 22.2817 -1.62738 34.0647 22.2817 -1.62738
361 1 35.1287 20.6135 -0.0664977 35.1287 20.6135 -0.0664977
362 2 37.2069 20.7265 1.43598 37.2069 20.7265 1.43598
363 2 36.8218 20.5054 -1.90615 36.8218 20.5054 -1.90615
364 1 37.829 22.3155 -0.447101 37.829 22.3155 -0.447101
365 2 39.6475 22.3014 1.2197 39.6475 22.3014 1.2197
366 2 39.9746 22.4335 -1.93717 39.9746 22.4335 -1.93717
367 1 40.723 20.7022 -0.448474 40.723 20.7022 -0.448474
368 2 42.3906 20.8605 1.45826 42.3906 20.8605 1.45826
369 2 42.9851 20.6927 -1.64747 42.9851 20.6927 -1.64747
370 1 43.6227 22.3809 -0.0224303 43.6227 22.3809 -0.0224303
371 2 45.4508 22.592 1.69226 45.4508 22.592 1.69226
372 2 45.5647 22.2019 -1.60042 45.5647 22.2019 -1.60042
373 1 46.4662 20.7707 0.165705 46.4662 20.7707 0.165705
374 2 48.4071 20.9217 1.72696 48.4071 20.9217 1.72696
375 2 48.3161 20.5778 -1.50212 48.3161 20.5778 -1.50212
376 1 49.2394 22.3784 -0.114039 49.2394 22.3784 -0.114039
377 2 51.0991 22.4897 1.49238 51.0991 22.4897 1.49238
378 2 51.2623 22.4034 -1.71403 51.2623 22.4034 -1.71403
379 1 52.2159 24.003 -0.084877 0.881022 24.003 -0.084877
380 2 2.67374 24.056 1.65206 2.67374 24.056 1.65206
381 2 2.84508 23.9471 -1.60737 2.84508 23.9471 -1.60737
382 1 3.75825 25.6134 -0.0692137 3.75825 25.6134 -0.0692137
383 2 5.82525 25.5247 1.59439 5.82525 25.5247 1.59439
384 2 5.61005 25.6065 -1.69026 5.61005 25.6065 -1.69026
385 1 6.59056 23.9583 -0.0338808 6.59056 23.9583 -0.0338808
386 2 8.514 23.9823 1.61979 8.514 23.9823 1.61979
387 2 8.43164 23.9594 -1.67303 8.43164 23.9594 -1.67303
388 1 9.51553 25.5127 -0.0854374 9.51553 25.5127 -0.0854374
389 2 11.3164 25.3938 1.70307 11.3164 25.3938 1.70307
390 2 11.5818 25.7297 -1.49267 11.5818 25.7297 -1.49267
391 1 12.3005 23.8689 -0.00211419 12.3005 23.8689 -0.00211419
392 2 14.2698 23.7346 1.50351 14.2698 23.7346 1.50351
393 2 14.2077 24.0584 -1.71647 14.2077 24.0584 -1.71647
394 1 15.1739 25.5732 0.00489471 15.1739 25.5732 0.00489471
395 2 16.9761 25.6124 1.6443 16.9761 25.6124 1.6443
396 2 17.0278 25.5889 -1.6615 17.0278 25.5889 -1.6615
397 1 18.0043 24.0168 0.0173598 18.0043 24.0168 0.0173598
398 2 19.8892 23.9572 1.62638 19.8892 23.9572 1.62638
399 2 19.9341 23.9545 -1.63963 19.9341 23.9545 -1.63963
400 1 20.8076 25.5931 0.0418573 20.8076 25.5931 0.0418573
401 2 22.7241 25.5456 1.74055 22.7241 25.5456 1.74055
402 2 22.7898 25.701 -1.52386 22.7898 25.701 -1.52386
403 1 23.5992 23.9836 0.0840218 23.5992 23.9836 0.0840218
404 2 25.4228 23.9598 1.76121 25.4228 23.9598 1.76121
405 2 25.6041 23.902 -1.49909 25.6041 23.902 -1.49909
406 1 26.5176 25.5937 0.0975965 26.5176 25.5937 0.0975965
407 2 28.4554 25.4931 1.61005 28.4554 25.4931 1.61005
408 2 28.4545 25.6935 -1.56614 28.4545 25.6935 -1.56614
409 1 29.3889 23.8572 -0.0176879 29.3889 23.8572 -0.0176879
410 2 31.3949 23.9818 1.6358 31.3949 23.9818 1.6358
411 2 31.4561 23.8837 -1.56862 31.4561 23.8837 -1.56862
412 1 32.2533 25.6487 -0.0758648 32.2533 25.6487 -0.0758648
413 2 34.1756 25.6512 1.48302 34.1756 25.6512 1.48302
414 2 34.0883 25.5697 -1.71594 34.0883 25.5697 -1.71594
415 1 35.0244 23.9012 0.0638569 35.0244 23.9012 0.0638569
416 2 36.9989 23.9005 1.50662 36.9989 23.9005 1.50662
417 2 36.7392 24.1563 -1.74828 36.7392 24.1563 -1.74828
418 1 37.8521 25.5738 -0.114605 37.8521 25.5738 -0.114605
419 2 39.8302 25.6769 1.42003 39.8302 25.6769 1.42003
420 2 39.6378 25.7398 -1.84799 39.6378 25.7398 -1.84799
421 1 40.6695 24.0428 -0.129487 40.6695 24.0428 -0.129487
422 2 42.6512 23.9244 1.6162 42.6512 23.9244 1.6162
423 2 42.6788 24.1345 -1.67958 42.6788 24.1345 -1.67958
424 1 43.5553 25.6761 0.0415628 43.5553 25.6761 0.0415628
425 2 45.5504 25.6124 1.51378 45.5504 25.6124 1.51378
426 2 45.3421 25.6096 -1.72436 45.3421 25.6096 -1.72436
427 1 46.4738 24.007 -0.221789 46.4738 24.007 -0.221789
428 2 48.373 24.1224 1.46279 48.373 24.1224 1.46279
429 2 48.303 24.0029 -1.91144 48.303 24.0029 -1.91144
430 1 49.3846 25.6598 -0.229517 49.3846 25.6598 -0.229517
431 2 51.2795 25.5856 1.51363 51.2795 25.5856 1.51363
432 2 51.3678 25.7487 -1.79865 51.3678 25.7487 -1.79865
433 1 52.2631 27.2927 -0.165666 0.928222 27.2927 -0.165666
434 2 2.8255 27.3404 1.55197 2.8255 27.3404 1.55197
435 2 2.82284 27.1178 -1.77009 2.82284 27.1178 -1.77009
436 1 3.80886 28.9294 -0.225697 3.80886 28.9294 -0.225697
437 2 5.6126 28.7476 1.59562 5.6126 28.7476 1.59562
438 2 5.86101 28.9298 -1.6789 5.86101 28.9298 -1.6789
439 1 6.61051 27.1971 -0.0842473 6.61051 27.1971 -0.0842473
440 2 8.40822 27.2078 1.51997 8.40822 27.2078 1.51997
441 2 8.56078 27.1947 -1.67815 8.56078 27.1947 -1.67815
442 1 9.43477 28.8415 0.0265444 9.43477 28.8415 0.0265444
443 2 11.2843 28.8733 1.78233 11.2843 28.8733 1.78233
444 2 11.522 28.7264 -1.51803 11.522 28.7264 -1.51803
445 1 12.3566 27.1834 0.26935 12.3566 27.1834 0.26935
446 2 14.2936 27.0729 1.72869 14.2936 27.0729 1.72869
447 2 14.1294 27.2033 -1.47268 14.1294 27.2033 -1.47268
448 1 15.1513 28.8323 0.0767756 15.1513 28.8323 0.0767756
449 2 17.0307 28.8416 1.70241 17.0307 28.8416 1.70241
450 2 17.0903 28.7908 -1.53986 17.0903 28.7908 -1.53986
451 1 17.9635 27.1622 0.044923 17.9635 27.1622 0.044923
452 2 19.8988 27.1701 1.69141 19.8988 27.1701 1.69141
453 2 19.9717 27.266 -1.66048 19.9717 27.266 -1.66048
454 1 20.7799 28.8965 0.0250348 20.7799 28.8965 0.0250348
455 2 22.6925 28.9348 1.76227 22.6925 28.9348 1.76227
456 2 22.7606 28.8637 -1.56936 22.7606 28.8637 -1.56936
457 1 23.6917 27.3286 0.15277 23.6917 27.3286 0.15277
458 2 25.5792 27.352 1.80039 25.5792 27.352 1.80039
459 2 25.6018 27.2613 -1.56582 25.6018 27.2613 -1.56582
460 1 26.5345 28.8969 -0.0216544 26.5345 28.8969 -0.0216544
461 2 28.3259 28.9776 1.73736 28.3259 28.9776 1.73736
462 2 28.484 28.9347 -1.55745 28.484 28.9347 -1.55745
463 1 29.4141 27.3046 0.115572 29.4141 27.3046 0.115572
464 2 31.3498 27.188 1.64584 31.3498 27.188 1.64584
465 2 31.2305 27.3522 -1.57008 31.2305 27.3522 -1.57008
466 1 32.2464 28.8853 0.0693552 32.2464 28.8853 0.0693552
467 2 34.1999 28.8383 1.68029 34.1999 28.8383 1.68029
468 2 34.0104 28.9419 -1.70886 34.0104 28.9419 -1.70886
469 1 35.0169 27.3632 -0.131987 35.0169 27.3632 -0.131987
470 2 36.8765 27.2053 1.49489 36.8765 27.2053 1.49489
471 2 37.0735 27.3441 -1.70424 37.0735 27.3441 -1.70424
472 1 37.9111 28.9734 -0.031598 37.9111 28.9734 -0.031598
473 2 39.8402 28.6517 1.66693 39.8402 28.6517 1.66693
474 2 39.9088 29.0869 -1.62781 39.9088 29.0869 -1.62781
475 1 40.7552 27.2658 -0.243047 40.7552 27.2658 -0.243047
476 2 42.4585 27.2104 1.66529 42.4585 27.2104 1.66529
477 2 42.7902 27.295 -1.61841 42.7902 27.295 -1.61841
478 1 43.5707 28.9067 0.158862 43.5707 28.9067 0.158862
479 2 45.6356 28.6196 1.56931 45.6356 28.6196 1.56931
480 2 45.3312 29.1441 -1.67085 45.3312 29.1441 -1.67085
481 1 46.516 27.3303 -0.245854 46.516 27.3303 -0.245854
482 2 48.4548 27.2335 1.43134 48.4548 27.2335 1.43134
483 2 48.4701 27.2957 -1.8867 48.4701 27.2957 -1.8867
484 1 49.3747 28.9319 -0.20987 49.3747 28.9319 -0.20987
485 2 51.1317 28.8504 1.52628 51.1317 28.8504 1.52628
486 2 51.4021 29.0183 -1.75527 51.4021 29.0183 -1.75527
487 1 52.2224 30.648 0.0533366 0.887501 30.648 0.0533366
488 2 2.7957 30.4754 1.64312 2.7957 30.4754 1.64312
489 2 2.89008 30.8565 -1.66349 2.89008 30.8565 -1.66349
490 1 3.73316 32.3389 0.216115 3.73316 32.3389 0.216115
491 2 5.65592 32.1401 1.93492 5.65592 32.1401 1.93492
492 2 5.54132 32.3072 -1.41727 5.54132 32.3072 -1.41727
493 1 6.62832 30.535 0.215305 6.62832 30.535 0.215305
494 2 8.51352 30.3986 1.85926 8.51352 30.3986 1.85926
495 2 8.3577 30.5609 -1.4999 8.3577 30.5609 -1.4999
496 1 9.36214 32.1473 0.249893 9.36214 32.1473 0.249893
497 2 11.2357 32.0026 1.80817 11.2357 32.0026 1.80817
498 2 11.2245 32.31 -1.47689 11.2245 32.31 -1.47689
499 1 12.2065 30.4351 0.0785129 12.2065 30.4351 0.0785129
500 2 14.126 30.383 1.71941 14.126 30.383 1.71941
501 2 14.2878 30.5454 -1.67261 14.2878 30.5454 -1.67261
502 1 15.0599 32.2096 0.0411899 15.0599 32.2096 0.0411899
503 2 16.96 32.2009 1.62851 16.96 32.2009 1.62851
504 2 16.9916 32.1958 -1.66207 16.9916 32.1958 -1.66207
505 1 17.9346 30.5515 0.036425 17.9346 30.5515 0.036425
506 2 19.8567 30.4996 1.66195 19.8567 30.4996 1.66195
507 2 19.8492 30.5816 -1.59115 19.8492 30.5816 -1.59115
508 1 20.7785 32.27 0.00210683 20.7785 32.27 0.00210683
509 2 22.5955 32.3008 1.70326 22.5955 32.3008 1.70326
510 2 22.6913 32.0257 -1.67751 22.6913 32.0257 -1.67751
511 1 23.5719 30.5272 0.113559 23.5719 30.5272 0.113559
512 2 25.5338 30.518 1.63812 25.5338 30.518 1.63812
513 2 25.5227 30.6757 -1.52416 25.5227 30.6757 -1.52416
514 1 26.4934 32.2708 0.202185 26.4934 32.2708 0.202185
515 2 28.5253 32.4388 1.6435 28.5253 32.4388 1.6435
516 2 28.1753 32.0945 -1.56439 28.1753 32.0945 -1.56439
517 1 29.346 30.605 0.0883582 29.346 30.605 0.0883582
518 2 31.2968 30.5681 1.67161 31.2968 30.5681 1.67161
519 2 31.1858 30.5237 -1.59392 31.1858 30.5237 -1.59392
520 1 32.2474 32.27 -0.00901165 32.2474 32.27 -0.00901165
521 2 34.086 32.4339 1.57877 34.086 32.4339 1.57877
522 2 34.0265 32.0354 -1.69251 34.0265 32.0354 -1.69251
523 1 35.0595 30.6157 0.172127 35.0595 30.6157 0.172127
524 2 37.0851 30.6519 1.64012 37.0851 30.6519 1.64012
525 2 36.8134 30.5698 -1.61809 36.8134 30.5698 -1.61809
526 1 37.9234 32.2219 -0.126113 37.9234 32.2219 -0.126113
527 2 39.7775 32.4111 1.66629 39.7775 32.4111 1.66629
528 2 39.9834 31.9995 -1.51948 39.9834 31.9995 -1.51948
529 1 40.8324 30.6004 0.330102 40.8324 30.6004 0.330102
530 2 42.8107 30.6219 1.81148 42.8107 30.6219 1.81148
531 2 42.5703 30.5227 -1.44753 42.5703 30.5227 -1.44753
532 1 43.6363 32.2483 0.126571 43.6363 32.2483 0.126571
533 2 45.5283 32.3388 1.71879 45.5283 32.3388 1.71879
534 2 45.5652 32.123 -1.58059 45.5652 32.123 -1.58059
535 1 46.4642 30.5675 0.111306 46.4642 30.5675 0.111306
536 2 48.3621 30.491 1.58263 48.3621 30.491 1.58263
537 2 48.3457 30.7247 -1.67588 48.3457 30.7247 -1.67588
538 1 49.2341 32.2241 0.147445 49.2341 32.2241 0.147445
539 2 51.2262 32.2136 1.6596 51.2262 32.2136 1.6596
540 2 51.184 32.112 -1.58412 51.184 32.112 -1.58412
541 1 52.106 33.8761 0.0241985 0.77112 33.8761 0.0241985