ITEM: TIMESTEP
11000
ITEM: NUMBER OF ATOMS
810
ITEM: BOX BOUNDS pp pp pp
8.4137701477268123e-01 5.2176227985227342e+01
8.0961581116522285e-01 5.0206599188834083e+01
-1.0000000000000000e+01 1.0000000000000000e+01
ITEM: ATOMS id type x y z xu yu zu
1 1 52.2571 50.3795 0.275606 0.922247 0.982502 0.275606
2 2 2.82821 50.4272 1.96701 2.82821 1.03026 1.96701
3 2 2.81369 50.4172 -1.31111 2.81369 1.02026 -1.31111
4 1 3.74311 2.58879 0.304103 3.74311 2.58879 0.304103
5 2 5.54707 2.73958 2.10218 5.54707 2.73958 2.10218
6 2 5.75191 2.39932 -1.11556 5.75191 2.39932 -1.11556
7 1 6.66757 50.3455 0.583508 6.66757 0.948559 0.583508
8 2 8.72364 50.3327 2.03551 8.72364 0.935684 2.03551
9 2 8.56978 50.4232 -1.22485 8.56978 1.02626 -1.22485
10 1 9.51258 2.59574 0.446041 9.51258 2.59574 0.446041
11 2 11.4555 2.66314 1.9377 11.4555 2.66314 1.9377
12 2 11.3631 2.57025 -1.3316 11.3631 2.57025 -1.3316
13 1 12.3884 50.3838 0.35387 12.3884 0.986829 0.35387
14 2 14.3778 50.4155 1.86177 14.3778 1.01855 1.86177
15 2 14.2465 50.334 -1.33842 14.2465 0.937005 -1.33842
16 1 15.2772 2.6343 0.131506 15.2772 2.6343 0.131506
17 2 17.261 2.80548 1.73142 17.261 2.80548 1.73142
18 2 17.0343 2.36424 -1.59148 17.0343 2.36424 -1.59148
19 1 18.0339 50.3775 0.270981 18.0339 0.980483 0.270981
20 2 20.0432 50.4691 1.74987 20.0432 1.07211 1.74987
21 2 19.7941 50.3273 -1.57344 19.7941 0.930319 -1.57344
22 1 20.9351 2.56285 -0.0645421 20.9351 2.56285 -0.0645421
23 2 22.7892 2.54555 1.5741 22.7892 2.54555 1.5741
24 2 22.816 2.52722 -1.61757 22.816 2.52722 -1.61757
25 1 23.7653 50.3359 -0.0357703 23.7653 0.938881 -0.0357703
26 2 25.7856 50.2327 1.50958 25.7856 0.835725 1.50958
27 2 25.576 50.3755 -1.75334 25.576 0.978503 -1.75334
28 1 26.6432 2.63627 -0.140435 26.6432 2.63627 -0.140435
29 2 28.4683 2.50169 1.46112 28.4683 2.50169 1.46112
30 2 28.5156 2.89718 -1.80402 28.5156 2.89718 -1.80402
31 1 29.4037 50.35 -0.218445 29.4037 0.95305 -0.218445
32 2 31.3221 50.2892 1.35196 31.3221 0.892218 1.35196
33 2 31.2848 50.4825 -1.84773 31.2848 1.08556 -1.84773
34 1 32.3015 2.59157 -0.182147 32.3015 2.59157 -0.182147
35 2 34.1863 2.57983 1.50782 34.1863 2.57983 1.50782
36 2 34.2207 2.79425 -1.82299 34.2207 2.79425 -1.82299
37 1 35.1064 50.4263 -0.214975 35.1064 1.02928 -0.214975
38 2 37.2127 50.2261 1.26252 37.2127 0.829076 1.26252
39 2 37.017 50.4377 -1.9533 37.017 1.04071 -1.9533
40 1 38.1118 2.6468 -0.268373 38.1118 2.6468 -0.268373
41 2 39.7845 2.53252 1.54881 39.7845 2.53252 1.54881
42 2 40.18 2.70452 -1.56349 40.18 2.70452 -1.56349
43 1 40.9013 50.3551 0.0248281 40.9013 0.95812 0.0248281
44 2 42.7631 50.2833 1.73886 42.7631 0.886302 1.73886
45 2 42.8237 50.2696 -1.61193 42.8237 0.872594 -1.61193
46 1 43.734 2.52994 0.0709356 43.734 2.52994 0.0709356
47 2 45.5728 2.43838 1.70132 45.5728 2.43838 1.70132
48 2 45.6251 2.57591 -1.62482 45.6251 2.57591 -1.62482
49 1 46.5672 50.4153 -0.0538488 46.5672 1.0183 -0.0538488
50 2 48.4265 50.5295 1.79253 48.4265 1.13256 1.79253
51 2 48.6124 50.3582 -1.47962 48.6124 0.961217 -1.47962
52 1 49.3975 2.60869 0.1652 49.3975 2.60869 0.1652
53 2 51.1981 2.72169 1.82874 51.1981 2.72169 1.82874
54 2 51.3827 2.60525 -1.46633 51.3827 2.60525 -1.46633
55 1 52.1879 4.28739 0.183278 0.853034 4.28739 0.183278
56 2 2.70285 4.3148 1.87112 2.70285 4.3148 1.87112
57 2 2.7723 4.16411 -1.41303 2.7723 4.16411 -1.41303
58 1 3.80953 5.83332 0.25935 3.80953 5.83332 0.25935
59 2 5.60129 5.81071 2.1113 5.60129 5.81071 2.1113
60 2 5.85396 5.84755 -1.14891 5.85396 5.84755 -1.14891
61 1 6.63384 4.21097 0.500242 6.63384 4.21097 0.500242
62 2 8.53815 4.2578 2.09781 8.53815 4.2578 2.09781
63 2 8.59031 4.15047 -1.23321 8.59031 4.15047 -1.23321
64 1 9.46927 5.7901 0.390173 9.46927 5.7901 0.390173
65 2 11.4463 6.04039 1.93096 11.4463 6.04039 1.93096
66 2 11.3257 5.92844 -1.32281 11.3257 5.92844 -1.32281
67 1 12.3738 4.23638 0.254707 12.3738 4.23638 0.254707
68 2 14.3373 4.25011 1.7494 14.3373 4.25011 1.7494
69 2 14.0968 4.13331 -1.50806 14.0968 4.13331 -1.50806
70 1 15.1673 5.87114 -0.0325946 15.1673 5.87114 -0.0325946
71 2 17.0207 5.82276 1.56987 17.0207 5.82276 1.56987
72 2 17.0785 5.8629 -1.70222 17.0785 5.8629 -1.70222
73 1 18.107 4.23418 -0.194869 18.107 4.23418 -0.194869
74 2 19.9112 4.26165 1.51278 19.9112 4.26165 1.51278
75 2 20.0809 4.18905 -1.6516 20.0809 4.18905 -1.6516
76 1 20.9235 5.88345 -0.0318685 20.9235 5.88345 -0.0318685
77 2 22.7497 5.60516 1.73781 22.7497 5.60516 1.73781
78 2 22.9469 5.96524 -1.61233 22.9469 5.96524 -1.61233
79 1 23.7848 4.17975 -0.00746857 23.7848 4.17975 -0.00746857
80 2 25.7003 4.24818 1.52875 25.7003 4.24818 1.52875
81 2 25.603 4.32399 -1.74138 25.603 4.32399 -1.74138
82 1 26.5597 5.93561 -0.0771257 26.5597 5.93561 -0.0771257
83 2 28.3973 5.94511 1.67242 28.3973 5.94511 1.67242
84 2 28.5602 5.89982 -1.62404 28.5602 5.89982 -1.62404
85 1 29.4289 4.31317 0.0632939 29.4289 4.31317 0.0632939
86 2 31.4208 4.10921 1.63612 31.4208 4.10921 1.63612
87 2 31.3915 4.36657 -1.63773 31.3915 4.36657 -1.63773
88 1 32.3215 5.83056 0.111812 32.3215 5.83056 0.111812
89 2 34.2626 5.86481 1.76457 34.2626 5.86481 1.76457
90 2 34.1995 5.92177 -1.548 34.1995 5.92177 -1.548
91 1 35.1568 4.26236 -0.109688 35.1568 4.26236 -0.109688
92 2 37.0858 4.11694 1.53129 37.0858 4.11694 1.53129
93 2 37.0489 4.42148 -1.76967 37.0489 4.42148 -1.76967
94 1 38.0513 5.93056 -0.0312347 38.0513 5.93056 -0.0312347
95 2 39.8434 5.79528 1.75227 39.8434 5.79528 1.75227
96 2 40.1608 6.04908 -1.37573 40.1608 6.04908 -1.37573
97 1 40.9635 4.23903 0.140828 40.9635 4.23903 0.140828
98 2 42.8914 4.30338 1.7407 42.8914 4.30338 1.7407
99 2 42.8402 4.21779 -1.5289 42.8402 4.21779 -1.5289
100 1 43.7804 5.86367 0.0713663 43.7804 5.86367 0.0713663
101 2 45.5913 5.86454 1.76012 45.5913 5.86454 1.76012
102 2 45.8111 5.87723 -1.42621 45.8111 5.87723 -1.42621
103 1 46.5796 4.18033 0.184761 46.5796 4.18033 0.184761
104 2 48.4281 4.26539 1.78078 48.4281 4.26539 1.78078
105 2 48.3263 4.06726 -1.50018 48.3263 4.06726 -1.50018
106 1 49.3806 5.82751 0.069497 49.3806 5.82751 0.069497
107 2 51.2862 6.00266 1.72953 51.2862 6.00266 1.72953
108 2 51.3947 5.96971 -1.47822 51.3947 5.96971 -1.47822
109 1 52.2512 7.54983 0.245739 0.916375 7.54983 0.245739
110 2 2.91624 7.39791 1.92135 2.91624 7.39791 1.92135
111 2 2.80037 7.59558 -1.33639 2.80037 7.59558 -1.33639
112 1 3.78078 9.15323 0.374175 3.78078 9.15323 0.374175
113 2 5.66361 9.29909 1.95694 5.66361 9.29909 1.95694
114 2 5.61541 9.00348 -1.27252 5.61541 9.00348 -1.27252
115 1 6.62146 7.49111 0.529718 6.62146 7.49111 0.529718
116 2 8.58263 7.4625 2.01863 8.58263 7.4625 2.01863
117 2 8.43837 7.39933 -1.23943 8.43837 7.39933 -1.23943
118 1 9.4415 9.08255 0.311523 9.4415 9.08255 0.311523
119 2 11.3996 9.37002 1.77454 11.3996 9.37002 1.77454
120 2 11.225 9.08347 -1.38134 11.225 9.08347 -1.38134
121 1 12.3686 7.61827 0.268092 12.3686 7.61827 0.268092
122 2 14.3212 7.43128 1.77496 14.3212 7.43128 1.77496
123 2 14.1174 7.63803 -1.43898 14.1174 7.63803 -1.43898
124 1 15.199 9.18806 0.183456 15.199 9.18806 0.183456
125 2 17.2195 9.14824 1.69973 17.2195 9.14824 1.69973
126 2 17.0055 9.13335 -1.56748 17.0055 9.13335 -1.56748
127 1 18.0096 7.4825 0.0856221 18.0096 7.4825 0.0856221
128 2 19.9459 7.4792 1.66967 19.9459 7.4792 1.66967
129 2 19.9522 7.5905 -1.56291 19.9522 7.5905 -1.56291
130 1 20.9308 9.14961 0.111683 20.9308 9.14961 0.111683
131 2 22.7753 9.20999 1.82827 22.7753 9.20999 1.82827
132 2 22.9039 9.15021 -1.44257 22.9039 9.15021 -1.44257
133 1 23.7248 7.47163 0.201633 23.7248 7.47163 0.201633
134 2 25.649 7.29657 1.78555 25.649 7.29657 1.78555
135 2 25.4703 7.69411 -1.58841 25.4703 7.69411 -1.58841
136 1 26.4761 9.10652 0.209545 26.4761 9.10652 0.209545
137 2 28.5305 9.02742 1.87789 28.5305 9.02742 1.87789
138 2 28.3669 9.33632 -1.43866 28.3669 9.33632 -1.43866
139 1 29.434 7.52223 0.0163619 29.434 7.52223 0.0163619
140 2 31.261 7.45985 1.69437 31.261 7.45985 1.69437
141 2 31.3939 7.60988 -1.52231 31.3939 7.60988 -1.52231
142 1 32.2431 9.133 0.247406 32.2431 9.133 0.247406
143 2 34.1474 9.21127 1.78239 34.1474 9.21127 1.78239
144 2 34.1085 9.07139 -1.46351 34.1085 9.07139 -1.46351
145 1 35.0819 7.57035 0.205761 35.0819 7.57035 0.205761
146 2 37.0703 7.28665 1.83873 37.0703 7.28665 1.83873
147 2 37.0701 7.6558 -1.41595 37.0701 7.6558 -1.41595
148 1 37.9948 9.19966 0.411418 37.9948 9.19966 0.411418
149 2 39.7604 9.12885 2.12425 39.7604 9.12885 2.12425
150 2 39.9759 9.19313 -1.13069 39.9759 9.19313 -1.13069
151 1 40.9676 7.5721 0.446384 40.9676 7.5721 0.446384
152 2 42.8676 7.22448 1.91473 42.8676 7.22448 1.91473
153 2 42.6446 7.52791 -1.29382 42.6446 7.52791 -1.29382
154 1 43.7486 9.0667 0.35931 43.7486 9.0667 0.35931
155 2 45.6962 9.07007 1.93192 45.6962 9.07007 1.93192
156 2 45.5421 9.20855 -1.32245 45.5421 9.20855 -1.32245
157 1 46.5448 7.54198 0.130097 46.5448 7.54198 0.130097
158 2 48.4035 7.32761 1.82083 48.4035 7.32761 1.82083
159 2 48.5402 7.60482 -1.36748 48.5402 7.60482 -1.36748
160 1 49.4319 9.15126 0.400468 49.4319 9.15126 0.400468
161 2 51.4101 9.34026 1.92845 51.4101 9.34026 1.92845
162 2 51.2616 9.12603 -1.38726 51.2616 9.12603 -1.38726
163 1 52.2967 10.8126 0.188412 0.961836 10.8126 0.188412
164 2 2.85188 11.0213 1.86029 2.85188 11.0213 1.86029
165 2 2.87965 10.8063 -1.3433 2.87965 10.8063 -1.3433
166 1 3.78475 12.5348 0.14877 3.78475 12.5348 0.14877
167 2 5.63046 12.4563 1.85092 5.63046 12.4563 1.85092
168 2 5.72358 12.6392 -1.32709 5.72358 12.6392 -1.32709
169 1 6.62483 10.8201 0.198295 6.62483 10.8201 0.198295
170 2 8.62516 10.884 1.75649 8.62516 10.884 1.75649
171 2 8.54345 10.6539 -1.34768 8.54345 10.6539 -1.34768
172 1 9.43215 12.488 -0.0124912 9.43215 12.488 -0.0124912
173 2 11.4468 12.62 1.48582 11.4468 12.62 1.48582
174 2 11.19 12.3392 -1.84509 11.19 12.3392 -1.84509
175 1 12.3044 10.8552 -0.060439 12.3044 10.8552 -0.060439
176 2 14.3334 11.0752 1.46706 14.3334 11.0752 1.46706
177 2 14.2497 10.6403 -1.7556 14.2497 10.6403 -1.7556
178 1 15.2313 12.4732 -0.404083 15.2313 12.4732 -0.404083
179 2 17.049 12.5426 1.33793 17.049 12.5426 1.33793
180 2 17.1866 12.2444 -1.8153 17.1866 12.2444 -1.8153
181 1 18.05 10.7306 0.000268764 18.05 10.7306 0.000268764
182 2 19.9945 10.8956 1.57488 19.9945 10.8956 1.57488
183 2 19.8908 10.6336 -1.70953 19.8908 10.6336 -1.70953
184 1 20.7638 12.4337 -0.309566 20.7638 12.4337 -0.309566
185 2 22.5503 12.5922 1.65224 22.5503 12.5922 1.65224
186 2 22.8719 12.2493 -1.67552 22.8719 12.2493 -1.67552
187 1 23.6738 10.8301 0.195727 23.6738 10.8301 0.195727
188 2 25.5759 10.9003 1.81947 25.5759 10.9003 1.81947
189 2 25.547 10.7772 -1.4748 25.547 10.7772 -1.4748
190 1 26.4596 12.5276 0.155852 26.4596 12.5276 0.155852
191 2 28.3585 12.602 1.79894 28.3585 12.602 1.79894
192 2 28.3294 12.2391 -1.40601 28.3294 12.2391 -1.40601
193 1 29.414 10.8284 0.363363 29.414 10.8284 0.363363
194 2 31.5438 10.9497 1.74034 31.5438 10.9497 1.74034
195 2 31.1375 10.6264 -1.45139 31.1375 10.6264 -1.45139
196 1 32.2014 12.4345 -0.087095 32.2014 12.4345 -0.087095
197 2 34.1024 12.5124 1.56744 34.1024 12.5124 1.56744
198 2 34.1652 12.3311 -1.70291 34.1652 12.3311 -1.70291
199 1 35.1139 10.8049 0.0230755 35.1139 10.8049 0.0230755
200 2 36.8159 10.902 1.90238 36.8159 10.902 1.90238
201 2 37.2209 10.8373 -1.33143 37.2209 10.8373 -1.33143
202 1 37.996 12.4249 0.38509 37.996 12.4249 0.38509
203 2 39.8127 12.4352 2.07103 39.8127 12.4352 2.07103
204 2 40.0227 12.4432 -1.07754 40.0227 12.4432 -1.07754
205 1 40.8912 10.7797 0.520766 40.8912 10.7797 0.520766
206 2 42.8744 10.571 2.07752 42.8744 10.571 2.07752
207 2 42.7379 10.8115 -1.1175 42.7379 10.8115 -1.1175
208 1 43.6672 12.4322 0.599194 43.6672 12.4322 0.599194
209 2 45.7911 12.4549 2.15608 45.7911 12.4549 2.15608
210 2 45.492 12.4025 -1.12187 45.492 12.4025 -1.12187
211 1 46.5181 10.7168 0.378441 46.5181 10.7168 0.378441
212 2 48.4693 10.8567 1.9548 48.4693 10.8567 1.9548
213 2 48.3656 10.6897 -1.37766 48.3656 10.6897 -1.37766
214 1 49.4026 12.3881 0.240879 49.4026 12.3881 0.240879
215 2 51.3925 12.3677 1.77573 51.3925 12.3677 1.77573
216 2 51.334 12.4918 -1.45814 51.334 12.4918 -1.45814
217 1 52.185 14.1532 0.220069 0.850134 14.1532 0.220069
218 2 2.8896 14.263 1.74794 2.8896 14.263 1.74794
219 2 2.59408 14.2289 -1.49067 2.59408 14.2289 -1.49067
220 1 3.68839 15.8234 0.00695382 3.68839 15.8234 0.00695382
221 2 5.62929 16.0111 1.69857 5.62929 16.0111 1.69857
222 2 5.74813 15.5469 -1.52084 5.74813 15.5469 -1.52084
223 1 6.74121 14.1595 0.395728 6.74121 14.1595 0.395728
224 2 8.94359 14.1436 1.65698 8.94359 14.1436 1.65698
225 2 8.30934 13.9835 -1.58559 8.30934 13.9835 -1.58559
226 1 9.47612 15.7714 -0.275055 9.47612 15.7714 -0.275055
227 2 11.435 15.8113 1.26256 11.435 15.8113 1.26256
228 2 11.25 15.6808 -1.98046 11.25 15.6808 -1.98046
229 1 12.2836 14.0764 -0.355419 12.2836 14.0764 -0.355419
230 2 14.2406 14.1919 1.17942 14.2406 14.1919 1.17942
231 2 14.0909 13.8637 -2.06046 14.0909 13.8637 -2.06046
232 1 15.0986 15.7905 -0.620016 15.0986 15.7905 -0.620016
233 2 17.0208 15.9608 1.04459 17.0208 15.9608 1.04459
234 2 17.0662 15.6549 -2.17742 17.0662 15.6549 -2.17742
235 1 17.9819 14.0818 -0.436468 17.9819 14.0818 -0.436468
236 2 19.9618 14.2239 1.07836 19.9618 14.2239 1.07836
237 2 19.87 13.975 -2.09498 19.87 13.975 -2.09498
238 1 20.8241 15.8061 -0.653774 20.8241 15.8061 -0.653774
239 2 22.4238 15.7692 1.23818 22.4238 15.7692 1.23818
240 2 22.824 15.697 -2.00698 22.824 15.697 -2.00698
241 1 23.7165 14.1398 -0.118507 23.7165 14.1398 -0.118507
242 2 25.4832 14.342 1.5829 25.4832 14.342 1.5829
243 2 25.5422 13.9342 -1.76072 25.5422 13.9342 -1.76072
244 1 26.5232 15.7302 -0.18662 26.5232 15.7302 -0.18662
245 2 28.3512 15.9481 1.50583 28.3512 15.9481 1.50583
246 2 28.4768 15.542 -1.83774 28.4768 15.542 -1.83774
247 1 29.3042 14.1475 0.0338722 29.3042 14.1475 0.0338722
248 2 31.3862 14.2474 1.4444 31.3862 14.2474 1.4444
249 2 31.2261 13.8931 -1.76588 31.2261 13.8931 -1.76588
250 1 32.2446 15.7572 -0.443422 32.2446 15.7572 -0.443422
251 2 33.9639 15.7223 1.46844 33.9639 15.7223 1.46844
252 2 34.3038 15.8102 -1.88802 34.3038 15.8102 -1.88802
253 1 35.1062 14.0881 -0.0910643 35.1062 14.0881 -0.0910643
254 2 36.8905 14.2877 1.6918 36.8905 14.2877 1.6918
255 2 37.2182 13.9709 -1.46623 37.2182 13.9709 -1.46623
256 1 38.0477 15.82 0.233545 38.0477 15.82 0.233545
257 2 39.7682 15.8646 2.01448 39.7682 15.8646 2.01448
258 2 40.055 15.7417 -1.19012 40.055 15.7417 -1.19012
259 1 40.8674 14.1722 0.532013 40.8674 14.1722 0.532013
260 2 42.8296 14.304 2.10935 42.8296 14.304 2.10935
261 2 42.817 14.0669 -1.17123 42.817 14.0669 -1.17123
262 1 43.6719 15.8201 0.36662 43.6719 15.8201 0.36662
263 2 45.605 16.0666 1.95697 45.605 16.0666 1.95697
264 2 45.4955 15.6322 -1.30354 45.4955 15.6322 -1.30354
265 1 46.5103 14.1374 0.448616 46.5103 14.1374 0.448616
266 2 48.4949 14.0339 1.90935 48.4949 14.0339 1.90935
267 2 48.2715 14.1953 -1.29385 48.2715 14.1953 -1.29385
268 1 49.3642 15.7893 0.41275 49.3642 15.7893 0.41275
269 2 51.3018 15.9176 1.84326 51.3018 15.9176 1.84326
270 2 51.0728 15.7049 -1.31083 51.0728 15.7049 -1.31083
271 1 52.183 17.4692 0.100235 0.848127 17.4692 0.100235
272 2 2.74763 17.4942 1.73283 2.74763 17.4942 1.73283
273 2 2.73548 17.4986 -1.55734 2.73548 17.4986 -1.55734
274 1 3.70319 19.0911 0.100647 3.70319 19.0911 0.100647
275 2 5.68138 18.9834 1.66875 5.68138 18.9834 1.66875
276 2 5.48679 19.2745 -1.56162 5.48679 19.2745 -1.56162
277 1 6.56497 17.4346 -0.154021 6.56497 17.4346 -0.154021
278 2 8.62299 17.295 1.44993 8.62299 17.295 1.44993
279 2 8.46027 17.4926 -1.82821 8.46027 17.4926 -1.82821
280 1 9.5386 19.1192 -0.141243 9.5386 19.1192 -0.141243
281 2 11.4591 18.9757 1.36811 11.4591 18.9757 1.36811
282 2 11.19 19.2356 -1.93037 11.19 19.2356 -1.93037
283 1 12.2518 17.3782 -0.42574 12.2518 17.3782 -0.42574
284 2 14.26 17.3314 1.07527 14.26 17.3314 1.07527
285 2 14.0588 17.3491 -2.26223 14.0588 17.3491 -2.26223
286 1 15.145 19.0403 -0.59571 15.145 19.0403 -0.59571
287 2 17.0259 18.9797 1.03788 17.0259 18.9797 1.03788
288 2 16.9048 19.1088 -2.31633 16.9048 19.1088 -2.31633
289 1 17.8961 17.5175 -0.684174 17.8961 17.5175 -0.684174
290 2 19.8113 17.3975 1.00844 19.8113 17.3975 1.00844
291 2 19.9014 17.5485 -2.31264 19.9014 17.5485 -2.31264
292 1 20.7905 19.1353 -0.602633 20.7905 19.1353 -0.602633
293 2 22.6531 19.2561 1.0725 22.6531 19.2561 1.0725
294 2 22.742 19.0633 -2.14355 22.742 19.0633 -2.14355
295 1 23.63 17.4199 -0.37107 23.63 17.4199 -0.37107
296 2 25.5538 17.5788 1.20924 25.5538 17.5788 1.20924
297 2 25.5255 17.2847 -2.06571 25.5255 17.2847 -2.06571
298 1 26.5416 19.0221 -0.559927 26.5416 19.0221 -0.559927
299 2 28.3568 19.0805 1.23572 28.3568 19.0805 1.23572
300 2 28.4648 18.9175 -2.11735 28.4648 18.9175 -2.11735
301 1 29.3215 17.3499 -0.326153 29.3215 17.3499 -0.326153
302 2 31.3536 17.3871 1.23009 31.3536 17.3871 1.23009
303 2 31.1793 17.4044 -2.02673 31.1793 17.4044 -2.02673
304 1 32.3365 19.0521 -0.488958 32.3365 19.0521 -0.488958
305 2 33.9176 19.0846 1.40537 33.9176 19.0846 1.40537
306 2 34.3668 19.0082 -1.8411 34.3668 19.0082 -1.8411
307 1 35.1083 17.3784 -0.0652551 35.1083 17.3784 -0.0652551
308 2 36.7888 17.3627 1.79537 36.7888 17.3627 1.79537
309 2 37.1189 17.4239 -1.44976 37.1189 17.4239 -1.44976
310 1 37.908 19.0382 0.306934 37.908 19.0382 0.306934
311 2 39.7783 19.1224 2.0075 39.7783 19.1224 2.0075
312 2 39.9108 19.0998 -1.26763 39.9108 19.0998 -1.26763
313 1 40.8381 17.4188 0.352963 40.8381 17.4188 0.352963
314 2 42.7055 17.4854 2.00947 42.7055 17.4854 2.00947
315 2 42.646 17.3599 -1.39535 42.646 17.3599 -1.39535
316 1 43.6237 19.1016 0.234318 43.6237 19.1016 0.234318
317 2 45.6765 19.1444 1.72016 45.6765 19.1444 1.72016
318 2 45.4461 19.1356 -1.54913 45.4461 19.1356 -1.54913
319 1 46.499 17.4514 0.0862489 46.499 17.4514 0.0862489
320 2 48.3777 17.492 1.88965 48.3777 17.492 1.88965
321 2 48.4645 17.4573 -1.39281 48.4645 17.4573 -1.39281
322 1 49.3219 19.1211 0.205351 49.3219 19.1211 0.205351
323 2 51.2571 19.0238 1.85973 51.2571 19.0238 1.85973
324 2 51.2254 19.1958 -1.38457 51.2254 19.1958 -1.38457
325 1 52.2164 20.705 0.370938 0.881519 20.705 0.370938
326 2 2.89996 20.6883 1.8573 2.89996 20.6883 1.8573
327 2 2.6837 20.6792 -1.45316 2.6837 20.6792 -1.45316
328 1 3.69132 22.3502 0.194608 3.69132 22.3502 0.194608
329 2 5.59147 22.3207 1.72358 5.59147 22.3207 1.72358
330 2 5.52546 22.3417 -1.56051 5.52546 22.3417 -1.56051
331 1 6.57195 20.6646 0.130374 6.57195 20.6646 0.130374
332 2 8.67209 20.5152 1.71967 8.67209 20.5152 1.71967
333 2 8.36419 20.8319 -1.60962 8.36419 20.8319 -1.60962
334 1 9.36725 22.4076 0.130413 9.36725 22.4076 0.130413
335 2 11.325 22.2402 1.71159 11.325 22.2402 1.71159
336 2 11.304 22.701 -1.46096 11.304 22.701 -1.46096
337 1 12.2336 20.7525 -0.165483 12.2336 20.7525 -0.165483
338 2 14.1827 20.5698 1.2834 14.1827 20.5698 1.2834
339 2 14.0174 20.7772 -1.91662 14.0174 20.7772 -1.91662
340 1 15.1051 22.32 -0.176888 15.1051 22.32 -0.176888
341 2 17.1514 22.3115 1.23161 17.1514 22.3115 1.23161
342 2 16.8721 22.4937 -2.06529 16.8721 22.4937 -2.06529
343 1 17.8712 20.7244 -0.643155 17.8712 20.7244 -0.643155
344 2 19.7635 20.6169 1.08987 19.7635 20.6169 1.08987
345 2 19.9769 20.7802 -2.24568 19.9769 20.7802 -2.24568
346 1 20.803 22.3775 -0.463071 20.803 22.3775 -0.463071
347 2 22.7328 22.4014 1.22155 22.7328 22.4014 1.22155
348 2 22.6609 22.3031 -2.14318 22.6609 22.3031 -2.14318
349 1 23.6835 20.7572 -0.477494 23.6835 20.7572 -0.477494
350 2 25.6604 20.6527 1.13876 25.6604 20.6527 1.13876
351 2 25.623 20.7074 -2.17183 25.623 20.7074 -2.17183
352 1 26.6467 22.2385 -0.563427 26.6467 22.2385 -0.563427
353 2 28.5156 22.3665 1.11916 28.5156 22.3665 1.11916
354 2 28.4413 22.0438 -2.15914 28.4413 22.0438 -2.15914
355 1 29.3438 20.5943 -0.410063 29.3438 20.5943 -0.410063
356 2 31.2538 20.494 1.19886 31.2538 20.494 1.19886
357 2 31.3396 20.7288 -2.0448 31.3396 20.7288 -2.0448
358 1 32.3671 22.3149 -0.305819 32.3671 22.3149 -0.305819
359 2 34.1549 22.2313 1.47435 34.1549 22.2313 1.47435
360 2 34.2606 22.2518 -1.8406 34.2606 22.2518 -1.8406
361 1 35.1615 20.638 -0.0881399 35.1615 20.638 -0.0881399
362 2 36.866 20.8363 1.73302 36.866 20.8363 1.73302
363 2 37.1582 20.5405 -1.57005 37.1582 20.5405 -1.57005
364 1 38.0476 22.319 0.0471931 38.0476 22.319 0.0471931
365 2 39.6364 22.4154 1.83033 39.6364 22.4154 1.83033
366 2 40.1149 22.3523 -1.37066 40.1149 22.3523 -1.37066
367 1 40.7583 20.7118 0.335727 40.7583 20.7118 0.335727
368 2 42.8029 20.6309 1.97422 42.8029 20.6309 1.97422
369 2 42.7098 20.7114 -1.37689 42.7098 20.7114 -1.37689
370 1 43.6517 22.3369 0.223082 43.6517 22.3369 0.223082
371 2 45.6924 22.3131 1.81659 45.6924 22.3131 1.81659
372 2 45.4306 22.4123 -1.51821 45.4306 22.4123 -1.51821
373 1 46.6352 20.7836 -0.00810124 46.6352 20.7836 -0.00810124
374 2 48.4623 20.9251 1.79977 48.4623 20.9251 1.79977
375 2 48.6221 20.731 -1.50969 48.6221 20.731 -1.50969
376 1 49.4612 22.4826 0.217655 49.4612 22.4826 0.217655
377 2 51.3831 22.5115 1.93805 51.3831 22.5115 1.93805
378 2 51.3673 22.2655 -1.39251 51.3673 22.2655 -1.39251
379 1 52.1884 24.0196 0.169399 0.853589 24.0196 0.169399
380 2 2.81225 24.0741 1.70154 2.81225 24.0741 1.70154
381 2 2.78212 23.9051 -1.50852 2.78212 23.9051 -1.50852
382 1 3.71343 25.5832 -0.114912 3.71343 25.5832 -0.114912
383 2 5.57206 25.5653 1.61863 5.57206 25.5653 1.61863
384 2 5.65917 25.7162 -1.5937 5.65917 25.7162 -1.5937
385 1 6.54945 23.9493 0.000438101 6.54945 23.9493 0.000438101
386 2 8.30214 23.8621 1.79549 8.30214 23.8621 1.79549
387 2 8.49101 24.0879 -1.44532 8.49101 24.0879 -1.44532
388 1 9.39812 25.7138 0.322259 9.39812 25.7138 0.322259
389 2 11.1769 25.458 2.01625 11.1769 25.458 2.01625
390 2 11.3428 25.8966 -1.22298 11.3428 25.8966 -1.22298
391 1 12.3169 24.1492 0.353767 12.3169 24.1492 0.353767
392 2 14.5707 23.9229 1.77426 14.5707 23.9229 1.77426
393 2 13.9868 24.1677 -1.53662 13.9868 24.1677 -1.53662
394 1 15.2268 25.6531 0.231547 15.2268 25.6531 0.231547
395 2 17.3715 25.5322 1.48564 17.3715 25.5322 1.48564
396 2 16.7414 25.8373 -1.65616 16.7414 25.8373 -1.65616
397 1 17.9532 24.0325 -0.474354 17.9532 24.0325 -0.474354
398 2 19.8335 24.0413 1.19114 19.8335 24.0413 1.19114
399 2 19.8133 24.0148 -2.17592 19.8133 24.0148 -2.17592
400 1 20.7928 25.5785 -0.377906 20.7928 25.5785 -0.377906
401 2 22.8232 25.7175 1.14267 22.8232 25.7175 1.14267
402 2 22.7029 25.5306 -2.01293 22.7029 25.5306 -2.01293
403 1 23.7566 23.952 -0.431051 23.7566 23.952 -0.431051
404 2 25.8082 23.8471 1.13748 25.8082 23.8471 1.13748
405 2 25.5299 24.086 -2.13469 25.5299 24.086 -2.13469
406 1 26.5492 25.6212 -0.478019 26.5492 25.6212 -0.478019
407 2 28.5736 25.6087 0.971306 28.5736 25.6087 0.971306
408 2 28.377 25.7259 -2.27279 28.377 25.7259 -2.27279
409 1 29.4457 23.8463 -0.724646 29.4457 23.8463 -0.724646
410 2 31.1569 23.8569 1.17929 31.1569 23.8569 1.17929
411 2 31.6583 23.8738 -2.07735 31.6583 23.8738 -2.07735
412 1 32.2858 25.6236 -0.464388 32.2858 25.6236 -0.464388
413 2 34.0636 25.5344 1.34606 34.0636 25.5344 1.34606
414 2 34.3331 25.651 -1.77106 34.3331 25.651 -1.77106
415 1 35.1713 23.9148 -0.10475 35.1713 23.9148 -0.10475
416 2 36.9254 23.8942 1.71708 36.9254 23.8942 1.71708
417 2 37.1397 24.0488 -1.55423 37.1397 24.0488 -1.55423
418 1 38.0494 25.5611 0.271091 38.0494 25.5611 0.271091
419 2 39.863 25.548 1.8854 39.863 25.548 1.8854
420 2 39.9501 25.6469 -1.34035 39.9501 25.6469 -1.34035
421 1 40.8389 23.967 0.274584 40.8389 23.967 0.274584
422 2 42.8202 23.9219 1.96577 42.8202 23.9219 1.96577
423 2 42.6982 24.1527 -1.40039 42.6982 24.1527 -1.40039
424 1 43.7109 25.5812 0.285306 43.7109 25.5812 0.285306
425 2 45.7221 25.6377 1.82603 45.7221 25.6377 1.82603
426 2 45.5681 25.5574 -1.50522 45.5681 25.5574 -1.50522
427 1 46.5249 24.0312 0.152108 46.5249 24.0312 0.152108
428 2 48.3369 24.0754 1.76857 48.3369 24.0754 1.76857
429 2 48.464 24.0191 -1.48492 48.464 24.0191 -1.48492
430 1 49.3995 25.7161 0.126627 49.3995 25.7161 0.126627
431 2 51.2848 25.7976 1.68735 51.2848 25.7976 1.68735
432 2 51.2987 25.588 -1.48363 51.2987 25.588 -1.48363
433 1 52.2929 27.4154 0.104852 0.958001 27.4154 0.104852
434 2 2.86473 27.2536 1.7261 2.86473 27.2536 1.7261
435 2 2.75299 27.5093 -1.62102 2.75299 27.5093 -1.62102
436 1 3.85226 28.9981 0.11303 3.85226 28.9981 0.11303
437 2 5.64199 29.0218 1.74813 5.64199 29.0218 1.74813
438 2 5.74365 28.8351 -1.61778 5.74365 28.8351 -1.61778
439 1 6.55681 27.2203 0.135699 6.55681 27.2203 0.135699
440 2 8.24697 27.2662 1.88731 8.24697 27.2662 1.88731
441 2 8.61598 27.2834 -1.39567 8.61598 27.2834 -1.39567
442 1 9.37082 28.9059 0.317962 9.37082 28.9059 0.317962
443 2 11.0704 29.0077 2.11271 11.0704 29.0077 2.11271
444 2 11.4091 28.9661 -1.1433 11.4091 28.9661 -1.1433
445 1 12.273 27.3455 0.649508 12.273 27.3455 0.649508
446 2 14.3362 27.3117 1.9417 14.3362 27.3117 1.9417
447 2 13.9936 27.3034 -1.28801 13.9936 27.3034 -1.28801
448 1 15.1 28.9126 0.164052 15.1 28.9126 0.164052
449 2 17.1962 28.7609 1.66247 17.1962 28.7609 1.66247
450 2 16.9658 29.0668 -1.61611 16.9658 29.0668 -1.61611
451 1 18.0915 27.2278 -0.13113 18.0915 27.2278 -0.13113
452 2 20.1473 27.3221 1.28458 20.1473 27.3221 1.28458
453 2 19.7989 27.3411 -1.96864 19.7989 27.3411 -1.96864
454 1 20.886 28.8868 -0.487649 20.886 28.8868 -0.487649
455 2 22.8798 28.9546 1.16438 22.8798 28.9546 1.16438
456 2 22.7654 28.9969 -2.15487 22.7654 28.9969 -2.15487
457 1 23.7305 27.318 -0.53277 23.7305 27.318 -0.53277
458 2 25.6066 27.4802 1.25264 25.6066 27.4802 1.25264
459 2 25.7784 27.3596 -2.15469 25.7784 27.3596 -2.15469
460 1 26.6201 28.9166 -0.446685 26.6201 28.9166 -0.446685
461 2 28.4499 28.8736 1.13684 28.4499 28.8736 1.13684
462 2 28.3403 28.9551 -2.25548 28.3403 28.9551 -2.25548
463 1 29.3466 27.2812 -0.65739 29.3466 27.2812 -0.65739
464 2 31.1711 27.3009 1.04361 31.1711 27.3009 1.04361
465 2 31.3689 27.1984 -2.18434 31.3689 27.1984 -2.18434
466 1 32.3389 28.9536 -0.593736 32.3389 28.9536 -0.593736
467 2 33.8184 28.9695 1.36022 33.8184 28.9695 1.36022
468 2 34.4062 28.8423 -1.85102 34.4062 28.8423 -1.85102
469 1 35.0876 27.3239 0.00545205 35.0876 27.3239 0.00545205
470 2 36.9306 27.2355 1.78939 36.9306 27.2355 1.78939
471 2 37.0708 27.1418 -1.37435 37.0708 27.1418 -1.37435
472 1 37.9731 28.8738 0.243976 37.9731 28.8738 0.243976
473 2 39.8799 29.0095 1.77888 39.8799 29.0095 1.77888
474 2 39.8762 28.7535 -1.44814 39.8762 28.7535 -1.44814
475 1 40.8308 27.2854 0.271396 40.8308 27.2854 0.271396
476 2 42.777 27.2638 1.80806 42.777 27.2638 1.80806
477 2 42.601 27.2145 -1.36527 42.601 27.2145 -1.36527
478 1 43.5585 28.9149 0.122462 43.5585 28.9149 0.122462
479 2 45.6361 28.9204 1.72213 45.6361 28.9204 1.72213
480 2 45.5301 29.0755 -1.62414 45.5301 29.0755 -1.62414
481 1 46.4431 27.3282 -0.000842194 46.4431 27.3282 -0.000842194
482 2 48.2837 27.4091 1.64119 48.2837 27.4091 1.64119
483 2 48.4871 27.2707 -1.5899 48.4871 27.2707 -1.5899
484 1 49.3408 28.9359 0.0201517 49.3408 28.9359 0.0201517
485 2 51.2169 28.9821 1.74848 51.2169 28.9821 1.74848
486 2 51.3486 29.034 -1.46504 51.3486 29.034 -1.46504
487 1 52.2707 30.6787 0.142308 0.935857 30.6787 0.142308
488 2 2.88327 30.7299 1.61329 2.88327 30.7299 1.61329
489 2 2.74482 30.5997 -1.56845 2.74482 30.5997 -1.56845
490 1 3.82191 32.234 -0.0651194 3.82191 32.234 -0.0651194
491 2 5.65414 32.244 1.59722 5.65414 32.244 1.59722
492 2 5.78025 32.2 -1.65108 5.78025 32.2 -1.65108
493 1 6.63863 30.5643 0.00544411 6.63863 30.5643 0.00544411
494 2 8.28611 30.6374 1.73911 8.28611 30.6374 1.73911
495 2 8.67001 30.5277 -1.41488 8.67001 30.5277 -1.41488
496 1 9.39504 32.2748 0.151406 9.39504 32.2748 0.151406
497 2 11.1049 32.4154 1.92986 11.1049 32.4154 1.92986
498 2 11.4212 32.2326 -1.23589 11.4212 32.2326 -1.23589
499 1 12.2633 30.6347 0.539615 12.2633 30.6347 0.539615
500 2 14.3358 30.446 1.95273 14.3358 30.446 1.95273
501 2 14.0549 30.62 -1.39463 14.0549 30.62 -1.39463
502 1 15.0866 32.139 0.268064 15.0866 32.139 0.268064
503 2 17.1336 32.1834 1.65968 17.1336 32.1834 1.65968
504 2 16.8194 32.1294 -1.56132 16.8194 32.1294 -1.56132
505 1 18.0468 30.5294 0.0218582 18.0468 30.5294 0.0218582
506 2 20.0602 30.3658 1.45705 20.0602 30.3658 1.45705
507 2 19.7206 30.7124 -1.82093 19.7206 30.7124 -1.82093
508 1 20.8261 32.1182 -0.140741 20.8261 32.1182 -0.140741
509 2 22.8135 32.0042 1.38954 22.8135 32.0042 1.38954
510 2 22.6158 32.3256 -1.93583 22.6158 32.3256 -1.93583
511 1 23.7446 30.6127 -0.509963 23.7446 30.6127 -0.509963
512 2 25.5523 30.5237 1.19817 25.5523 30.5237 1.19817
513 2 25.8746 30.6362 -2.03229 25.8746 30.6362 -2.03229
514 1 26.5979 32.3299 -0.199647 26.5979 32.3299 -0.199647
515 2 28.6723 32.0778 1.30378 28.6723 32.0778 1.30378
516 2 28.3361 32.4143 -1.95308 28.3361 32.4143 -1.95308
517 1 29.4827 30.5261 -0.563015 29.4827 30.5261 -0.563015
518 2 31.1933 30.3793 1.24482 31.1933 30.3793 1.24482
519 2 31.5977 30.8766 -2.08695 31.5977 30.8766 -2.08695
520 1 32.4048 32.2514 -0.113922 32.4048 32.2514 -0.113922
521 2 34.1859 32.0904 1.56506 34.1859 32.0904 1.56506
522 2 34.3112 32.2736 -1.77488 34.3112 32.2736 -1.77488
523 1 35.1204 30.5625 -0.134288 35.1204 30.5625 -0.134288
524 2 36.8824 30.6578 1.59684 36.8824 30.6578 1.59684
525 2 37.1544 30.3478 -1.5916 37.1544 30.3478 -1.5916
526 1 37.9544 32.1697 -0.0178966 37.9544 32.1697 -0.0178966
527 2 39.8726 32.2923 1.63689 39.8726 32.2923 1.63689
528 2 39.8391 32.1912 -1.64855 39.8391 32.1912 -1.64855
529 1 40.8292 30.6042 0.0147573 40.8292 30.6042 0.0147573
530 2 42.6666 30.7548 1.59234 42.6666 30.7548 1.59234
531 2 42.6943 30.4196 -1.65199 42.6943 30.4196 -1.65199
532 1 43.7851 32.1835 -0.137182 43.7851 32.1835 -0.137182
533 2 45.6898 32.3992 1.55294 45.6898 32.3992 1.55294
534 2 45.7601 32.1704 -1.75241 45.7601 32.1704 -1.75241
535 1 46.4861 30.7211 0.0536351 46.4861 30.7211 0.0536351
536 2 48.4112 30.6067 1.62913 48.4112 30.6067 1.62913
537 2 48.461 30.6411 -1.60427 48.461 30.6411 -1.60427
538 1 49.4482 32.2876 -0.0853282 49.4482 32.2876 -0.0853282
539 2 51.3353 32.444 1.64632 51.3353 32.444 1.64632
540 2 51.4178 32.2091 -1.69118 51.4178 32.2091 -1.69118
541 1 52.3355 33.9156 -0.216675 1.00064 33.9156 -0.216675