ITEM: TIMESTEP
27500
ITEM: NUMBER OF ATOMS
810
ITEM: BOX BOUNDS pp pp pp
8.4137701477268123e-01 5.2176227985227342e+01
8.0961581116522285e-01 5.0206599188834083e+01
-1.0000000000000000e+01 1.0000000000000000e+01
ITEM: ATOMS id type x y z xu yu zu
1 1 1.05328 1.08009 0.60155 1.05328 1.08009 0.60155
2 2 3.02867 0.826914 2.05366 3.02867 0.826914 2.05366
3 2 2.92456 1.2171 -1.10825 2.92456 1.2171 -1.10825
4 1 3.97261 2.67667 0.67266 3.97261 2.67667 0.67266
5 2 5.9346 2.48055 2.1003 5.9346 2.48055 2.1003
6 2 5.65755 2.59667 -1.18905 5.65755 2.59667 -1.18905
7 1 6.76304 0.956886 0.251281 6.76304 0.956886 0.251281
8 2 8.83472 0.847675 1.6502 8.83472 0.847675 1.6502
9 2 8.63763 1.06389 -1.60458 8.63763 1.06389 -1.60458
10 1 9.71402 2.60603 0.0320574 9.71402 2.60603 0.0320574
11 2 11.642 2.49934 1.61732 11.642 2.49934 1.61732
12 2 11.469 2.92648 -1.68848 11.469 2.92648 -1.68848
13 1 12.5178 1.02899 -0.167799 12.5178 1.02899 -0.167799
14 2 14.3507 1.04619 1.50279 14.3507 1.04619 1.50279
15 2 14.4431 0.950086 -1.7543 14.4431 0.950086 -1.7543
16 1 15.423 2.63353 -0.234909 15.423 2.63353 -0.234909
17 2 17.2679 2.57107 1.45847 17.2679 2.57107 1.45847
18 2 17.3145 2.69969 -1.88803 17.3145 2.69969 -1.88803
19 1 18.2583 0.996486 -0.153594 18.2583 0.996486 -0.153594
20 2 20.3948 0.946099 1.06895 20.3948 0.946099 1.06895
21 2 19.8362 1.13739 -2.08046 19.8362 1.13739 -2.08046
22 1 20.9989 2.71187 -0.552572 20.9989 2.71187 -0.552572
23 2 22.8964 2.80767 1.02953 22.8964 2.80767 1.02953
24 2 22.8367 2.72973 -2.23698 22.8367 2.72973 -2.23698
25 1 23.8341 1.14507 -0.609295 23.8341 1.14507 -0.609295
26 2 25.8678 0.961121 0.887484 25.8678 0.961121 0.887484
27 2 25.5912 1.05947 -2.31307 25.5912 1.05947 -2.31307
28 1 26.6706 2.69034 -0.70948 26.6706 2.69034 -0.70948
29 2 28.5892 2.78742 1.03455 28.5892 2.78742 1.03455
30 2 28.587 2.54676 -2.17179 28.587 2.54676 -2.17179
31 1 29.58 1.02023 -0.398085 29.58 1.02023 -0.398085
32 2 31.6105 1.09377 1.04915 31.6105 1.09377 1.04915
33 2 31.3292 0.98665 -2.19622 31.3292 0.98665 -2.19622
34 1 32.4307 2.83058 -0.725654 32.4307 2.83058 -0.725654
35 2 34.2135 2.64584 0.947207 34.2135 2.64584 0.947207
36 2 34.3171 2.9132 -2.30347 34.3171 2.9132 -2.30347
37 1 35.2741 1.11486 -0.831278 35.2741 1.11486 -0.831278
38 2 36.8976 1.10477 1.13624 36.8976 1.10477 1.13624
39 2 37.3758 1.02233 -2.17634 37.3758 1.02233 -2.17634
40 1 38.1481 2.79232 -0.332071 38.1481 2.79232 -0.332071
41 2 39.9051 2.64604 1.57522 39.9051 2.64604 1.57522
42 2 40.1876 2.70097 -1.71255 40.1876 2.70097 -1.71255
43 1 41.0239 1.005 0.0160773 41.0239 1.005 0.0160773
44 2 42.8734 0.939061 1.81512 42.8734 0.939061 1.81512
45 2 42.9256 1.24561 -1.52175 42.9256 1.24561 -1.52175
46 1 43.852 2.66741 0.381849 43.852 2.66741 0.381849
47 2 45.7215 2.57032 2.16407 45.7215 2.57032 2.16407
48 2 45.8317 2.88473 -1.20825 45.8317 2.88473 -1.20825
49 1 46.6718 1.018 0.433584 46.6718 1.018 0.433584
50 2 48.6125 0.897618 2.16195 48.6125 0.897618 2.16195
51 2 48.6759 0.974393 -1.12063 48.6759 0.974393 -1.12063
52 1 49.5495 2.67884 0.585852 49.5495 2.67884 0.585852
53 2 51.3636 2.65058 2.31196 51.3636 2.65058 2.31196
54 2 51.3924 2.75371 -1.06948 51.3924 2.75371 -1.06948
55 1 1.07821 4.28015 0.676965 1.07821 4.28015 0.676965
56 2 2.9925 4.21418 2.33096 2.9925 4.21418 2.33096
57 2 3.00109 4.35435 -0.933257 3.00109 4.35435 -0.933257
58 1 4.00823 5.96475 0.749427 4.00823 5.96475 0.749427
59 2 6.16667 5.91634 2.12598 6.16667 5.91634 2.12598
60 2 5.56017 5.87888 -1.06256 5.56017 5.87888 -1.06256
61 1 6.83787 4.22627 0.499321 6.83787 4.22627 0.499321
62 2 8.89423 3.91267 1.93293 8.89423 3.91267 1.93293
63 2 8.68512 4.44902 -1.21007 8.68512 4.44902 -1.21007
64 1 9.71428 5.94526 0.56385 9.71428 5.94526 0.56385
65 2 11.8804 5.91939 1.98568 11.8804 5.91939 1.98568
66 2 11.3251 6.05493 -1.25643 11.3251 6.05493 -1.25643
67 1 12.57 4.40266 0.102113 12.57 4.40266 0.102113
68 2 14.6765 4.23354 1.61249 14.6765 4.23354 1.61249
69 2 14.2304 4.322 -1.76253 14.2304 4.322 -1.76253
70 1 15.4036 5.93759 -0.063321 15.4036 5.93759 -0.063321
71 2 17.256 5.86923 1.49293 17.256 5.86923 1.49293
72 2 17.2862 6.09613 -1.76174 17.2862 6.09613 -1.76174
73 1 18.1968 4.32906 -0.259133 18.1968 4.32906 -0.259133
74 2 20.1797 4.13136 1.30559 20.1797 4.13136 1.30559
75 2 19.8689 4.51579 -1.99456 19.8689 4.51579 -1.99456
76 1 21.0722 5.95811 -0.279999 21.0722 5.95811 -0.279999
77 2 23.1023 5.93307 1.2176 23.1023 5.93307 1.2176
78 2 22.8016 6.15505 -2.05387 22.8016 6.15505 -2.05387
79 1 23.8044 4.40582 -0.644773 23.8044 4.40582 -0.644773
80 2 25.7518 4.21955 0.985147 25.7518 4.21955 0.985147
81 2 25.7596 4.50815 -2.24836 25.7596 4.50815 -2.24836
82 1 26.7041 6.04504 -0.469012 26.7041 6.04504 -0.469012
83 2 28.7412 5.91578 1.08768 28.7412 5.91578 1.08768
84 2 28.5001 6.05816 -2.23112 28.5001 6.05816 -2.23112
85 1 29.532 4.29498 -0.642239 29.532 4.29498 -0.642239
86 2 31.4829 4.31562 1.00146 31.4829 4.31562 1.00146
87 2 31.3814 4.48225 -2.3443 31.3814 4.48225 -2.3443
88 1 32.4702 6.04926 -0.611684 32.4702 6.04926 -0.611684
89 2 34.3875 5.99839 1.06674 34.3875 5.99839 1.06674
90 2 34.4096 6.01136 -2.19434 34.4096 6.01136 -2.19434
91 1 35.3161 4.38832 -0.551635 35.3161 4.38832 -0.551635
92 2 37.0645 4.2909 1.32713 37.0645 4.2909 1.32713
93 2 37.417 4.40725 -2.02793 37.417 4.40725 -2.02793
94 1 38.2596 6.00271 -0.191248 38.2596 6.00271 -0.191248
95 2 39.9631 5.86877 1.69019 39.9631 5.86877 1.69019
96 2 40.3439 6.01301 -1.5475 40.3439 6.01301 -1.5475
97 1 40.9741 4.32629 0.120167 40.9741 4.32629 0.120167
98 2 42.6706 4.35316 1.93254 42.6706 4.35316 1.93254
99 2 43.0178 4.40004 -1.30548 43.0178 4.40004 -1.30548
100 1 43.8497 5.97598 0.398162 43.8497 5.97598 0.398162
101 2 45.6749 6.00803 2.11543 45.6749 6.00803 2.11543
102 2 45.8594 5.98114 -1.20199 45.8594 5.98114 -1.20199
103 1 46.7737 4.41145 0.605451 46.7737 4.41145 0.605451
104 2 48.7065 4.37519 2.17164 48.7065 4.37519 2.17164
105 2 48.5771 4.36906 -1.09 48.5771 4.36906 -1.09
106 1 49.6031 6.00203 0.517296 49.6031 6.00203 0.517296
107 2 51.5176 5.96217 2.24009 51.5176 5.96217 2.24009
108 2 51.3773 5.87701 -1.0062 51.3773 5.87701 -1.0062
109 1 1.08958 7.56203 0.628557 1.08958 7.56203 0.628557
110 2 2.93107 7.73838 2.24015 2.93107 7.73838 2.24015
111 2 3.04679 7.43722 -1.02492 3.04679 7.43722 -1.02492
112 1 3.98158 9.3013 0.368184 3.98158 9.3013 0.368184
113 2 5.91034 9.36098 1.99842 5.91034 9.36098 1.99842
114 2 5.94569 9.22888 -1.27544 5.94569 9.22888 -1.27544
115 1 6.76976 7.5583 0.40928 6.76976 7.5583 0.40928
116 2 8.69262 7.64041 2.0023 8.69262 7.64041 2.0023
117 2 8.67927 7.39382 -1.14122 8.67927 7.39382 -1.14122
118 1 9.71961 9.09115 0.391675 9.71961 9.09115 0.391675
119 2 11.6398 9.28715 2.00912 11.6398 9.28715 2.00912
120 2 11.5673 9.32995 -1.31539 11.5673 9.32995 -1.31539
121 1 12.5733 7.68918 0.258835 12.5733 7.68918 0.258835
122 2 14.6143 7.57503 1.77795 14.6143 7.57503 1.77795
123 2 14.3099 7.65206 -1.44756 14.3099 7.65206 -1.44756
124 1 15.4025 9.23914 0.150972 15.4025 9.23914 0.150972
125 2 17.4608 9.13171 1.74631 17.4608 9.13171 1.74631
126 2 17.1312 9.31599 -1.59741 17.1312 9.31599 -1.59741
127 1 18.1858 7.62189 -0.0692512 18.1858 7.62189 -0.0692512
128 2 20.2575 7.62159 1.41852 20.2575 7.62159 1.41852
129 2 20.0267 7.60477 -1.80231 20.0267 7.60477 -1.80231
130 1 21.0362 9.32459 -0.148497 21.0362 9.32459 -0.148497
131 2 23.1797 9.36429 1.22745 23.1797 9.36429 1.22745
132 2 22.6779 9.0989 -1.97755 22.6779 9.0989 -1.97755
133 1 23.8507 7.67375 -0.414101 23.8507 7.67375 -0.414101
134 2 25.9286 7.84822 1.06428 25.9286 7.84822 1.06428
135 2 25.5693 7.51906 -2.14352 25.5693 7.51906 -2.14352
136 1 26.7979 9.32187 -0.822484 26.7979 9.32187 -0.822484
137 2 28.5614 9.25274 0.89891 28.5614 9.25274 0.89891
138 2 28.5876 9.24981 -2.42669 28.5876 9.24981 -2.42669
139 1 29.6333 7.63836 -0.657641 29.6333 7.63836 -0.657641
140 2 31.4 7.55185 1.06498 31.4 7.55185 1.06498
141 2 31.5841 7.77105 -2.17619 31.5841 7.77105 -2.17619
142 1 32.4869 9.27278 -0.487607 32.4869 9.27278 -0.487607
143 2 34.2799 9.18885 1.24021 34.2799 9.18885 1.24021
144 2 34.3902 9.37567 -2.05053 34.3902 9.37567 -2.05053
145 1 35.3147 7.62811 -0.548107 35.3147 7.62811 -0.548107
146 2 37.0715 7.59118 1.31676 37.0715 7.59118 1.31676
147 2 37.4185 7.72469 -1.88671 37.4185 7.72469 -1.88671
148 1 38.2322 9.29274 -0.081398 38.2322 9.29274 -0.081398
149 2 39.9278 9.26749 1.81509 39.9278 9.26749 1.81509
150 2 40.2827 9.34499 -1.58197 40.2827 9.34499 -1.58197
151 1 41.058 7.68023 0.210634 41.058 7.68023 0.210634
152 2 42.865 7.62989 2.01084 42.865 7.62989 2.01084
153 2 43.0829 7.68978 -1.2723 43.0829 7.68978 -1.2723
154 1 43.9297 9.30407 0.482731 43.9297 9.30407 0.482731
155 2 45.6849 9.31189 2.05785 45.6849 9.31189 2.05785
156 2 45.8164 9.36092 -1.17919 45.8164 9.36092 -1.17919
157 1 46.7719 7.74502 0.467958 46.7719 7.74502 0.467958
158 2 48.6806 7.6209 2.07736 48.6806 7.6209 2.07736
159 2 48.7262 7.64352 -1.21179 48.7262 7.64352 -1.21179
160 1 49.6577 9.33282 0.426654 49.6577 9.33282 0.426654
161 2 51.3818 9.2792 2.18428 51.3818 9.2792 2.18428
162 2 51.6222 9.07911 -1.13008 51.6222 9.07911 -1.13008
163 1 1.16011 10.806 0.559121 1.16011 10.806 0.559121
164 2 3.1625 10.9036 2.09083 3.1625 10.9036 2.09083
165 2 2.87381 10.8393 -1.2115 2.87381 10.8393 -1.2115
166 1 4.01995 12.5409 0.247706 4.01995 12.5409 0.247706
167 2 5.94419 12.3966 1.88227 5.94419 12.3966 1.88227
168 2 5.91976 12.5574 -1.33865 5.91976 12.5574 -1.33865
169 1 6.84644 10.8341 0.292565 6.84644 10.8341 0.292565
170 2 8.67327 10.8706 2.02379 8.67327 10.8706 2.02379
171 2 8.81351 10.8309 -1.25584 8.81351 10.8309 -1.25584
172 1 9.69638 12.5501 0.345906 9.69638 12.5501 0.345906
173 2 11.7439 12.7367 1.88677 11.7439 12.7367 1.88677
174 2 11.5456 12.3333 -1.40508 11.5456 12.3333 -1.40508
175 1 12.5438 10.917 0.372965 12.5438 10.917 0.372965
176 2 14.5351 10.9562 1.86351 14.5351 10.9562 1.86351
177 2 14.3416 10.8761 -1.36534 14.3416 10.8761 -1.36534
178 1 15.3859 12.5726 0.114957 15.3859 12.5726 0.114957
179 2 17.3856 12.7543 1.60388 17.3856 12.7543 1.60388
180 2 17.1576 12.3226 -1.69578 17.1576 12.3226 -1.69578
181 1 18.1523 10.9265 0.0270437 18.1523 10.9265 0.0270437
182 2 20.2883 11.0542 1.38774 20.2883 11.0542 1.38774
183 2 19.9154 10.727 -1.82146 19.9154 10.727 -1.82146
184 1 21.062 12.5089 -0.480239 21.062 12.5089 -0.480239
185 2 23.136 12.4596 1.01163 23.136 12.4596 1.01163
186 2 22.96 12.4088 -2.16394 22.96 12.4088 -2.16394
187 1 23.9271 10.8491 -0.643694 23.9271 10.8491 -0.643694
188 2 25.9054 10.8844 0.877789 25.9054 10.8844 0.877789
189 2 25.7698 10.8857 -2.36586 25.7698 10.8857 -2.36586
190 1 26.8642 12.5311 -0.853308 26.8642 12.5311 -0.853308
191 2 28.645 12.5361 0.806146 28.645 12.5361 0.806146
192 2 28.7792 12.5449 -2.48978 28.7792 12.5449 -2.48978
193 1 29.5959 10.8596 -0.812823 29.5959 10.8596 -0.812823
194 2 31.3946 10.9581 1.00378 31.3946 10.9581 1.00378
195 2 31.6037 10.9651 -2.19116 31.6037 10.9651 -2.19116
196 1 32.4641 12.5788 -0.489217 32.4641 12.5788 -0.489217
197 2 34.2818 12.7508 1.19381 34.2818 12.7508 1.19381
198 2 34.4743 12.2965 -2.10738 34.4743 12.2965 -2.10738
199 1 35.3491 10.9286 -0.240331 35.3491 10.9286 -0.240331
200 2 37.1718 10.8187 1.58234 37.1718 10.8187 1.58234
201 2 37.3619 10.9775 -1.74604 37.3619 10.9775 -1.74604
202 1 38.1655 12.5737 0.0991539 38.1655 12.5737 0.0991539
203 2 40.0077 12.6809 1.85891 40.0077 12.6809 1.85891
204 2 40.2208 12.7073 -1.44146 40.2208 12.7073 -1.44146
205 1 41.0638 10.9653 0.238992 41.0638 10.9653 0.238992
206 2 42.7382 10.874 2.07386 42.7382 10.874 2.07386
207 2 43.1283 10.9847 -1.11513 43.1283 10.9847 -1.11513
208 1 43.9235 12.6253 0.736364 43.9235 12.6253 0.736364
209 2 46.0278 12.6041 2.20377 46.0278 12.6041 2.20377
210 2 45.6326 12.5921 -1.11526 45.6326 12.5921 -1.11526
211 1 46.7315 10.9949 0.414486 46.7315 10.9949 0.414486
212 2 48.5233 10.9805 2.06379 48.5233 10.9805 2.06379
213 2 48.5764 10.9632 -1.22998 48.5764 10.9632 -1.22998
214 1 49.5555 12.6053 0.438816 49.5555 12.6053 0.438816
215 2 51.4931 12.5687 2.14406 51.4931 12.5687 2.14406
216 2 51.4872 12.4404 -1.11469 51.4872 12.4404 -1.11469
217 1 1.18291 14.2208 0.498854 1.18291 14.2208 0.498854
218 2 3.26605 14.1407 2.01399 3.26605 14.1407 2.01399
219 2 2.95973 14.1968 -1.19365 2.95973 14.1968 -1.19365
220 1 4.057 15.8528 0.305496 4.057 15.8528 0.305496
221 2 6.07614 15.9679 1.81916 6.07614 15.9679 1.81916
222 2 5.91734 15.7941 -1.35337 5.91734 15.7941 -1.35337
223 1 6.9172 14.2115 0.268212 6.9172 14.2115 0.268212
224 2 8.8017 14.3314 1.88903 8.8017 14.3314 1.88903
225 2 8.75197 14.0118 -1.47031 8.75197 14.0118 -1.47031
226 1 9.77227 15.7991 0.103176 9.77227 15.7991 0.103176
227 2 11.7667 15.9422 1.55988 11.7667 15.9422 1.55988
228 2 11.6071 15.7325 -1.59625 11.6071 15.7325 -1.59625
229 1 12.6397 14.1618 0.0797632 12.6397 14.1618 0.0797632
230 2 14.5878 14.4113 1.53825 14.5878 14.4113 1.53825
231 2 14.3352 13.8462 -1.71878 14.3352 13.8462 -1.71878
232 1 15.4465 15.7568 -0.448004 15.4465 15.7568 -0.448004
233 2 17.3274 15.8278 1.1968 17.3274 15.8278 1.1968
234 2 17.2586 15.7303 -2.11773 17.2586 15.7303 -2.11773
235 1 18.2137 14.1458 -0.369092 18.2137 14.1458 -0.369092
236 2 20.2833 14.2682 1.14988 20.2833 14.2682 1.14988
237 2 20.0671 14.0996 -2.10509 20.0671 14.0996 -2.10509
238 1 21.1222 15.8527 -0.65561 21.1222 15.8527 -0.65561
239 2 22.8542 15.698 1.08092 22.8542 15.698 1.08092
240 2 23.0952 15.8941 -2.26546 23.0952 15.8941 -2.26546
241 1 23.9622 14.1328 -0.649899 23.9622 14.1328 -0.649899
242 2 25.8354 13.9587 1.0205 25.8354 13.9587 1.0205
243 2 25.8817 14.2813 -2.32665 25.8817 14.2813 -2.32665
244 1 26.6681 15.7829 -0.479665 26.6681 15.7829 -0.479665
245 2 28.7637 15.8672 0.868108 28.7637 15.8672 0.868108
246 2 28.4872 15.9821 -2.31163 28.4872 15.9821 -2.31163
247 1 29.6439 14.1841 -0.850005 29.6439 14.1841 -0.850005
248 2 31.4627 14.2982 0.925681 31.4627 14.2982 0.925681
249 2 31.6035 14.1232 -2.43233 31.6035 14.1232 -2.43233
250 1 32.4598 15.8869 -0.78651 32.4598 15.8869 -0.78651
251 2 34.2541 15.7904 1.04242 34.2541 15.7904 1.04242
252 2 34.4399 15.7732 -2.32862 34.4399 15.7732 -2.32862
253 1 35.3243 14.1578 -0.582425 35.3243 14.1578 -0.582425
254 2 36.8409 14.3608 1.4444 36.8409 14.3608 1.4444
255 2 37.6813 14.2658 -1.72423 37.6813 14.2658 -1.72423
256 1 38.1471 15.9261 0.0698617 38.1471 15.9261 0.0698617
257 2 39.9164 15.8772 1.77648 39.9164 15.8772 1.77648
258 2 40.2393 15.9354 -1.48079 40.2393 15.9354 -1.48079
259 1 41.1014 14.3293 0.274169 41.1014 14.3293 0.274169
260 2 42.8042 14.3743 2.07443 42.8042 14.3743 2.07443
261 2 43.2211 14.0739 -1.12359 43.2211 14.0739 -1.12359
262 1 43.9224 15.938 0.415992 43.9224 15.938 0.415992
263 2 45.8262 15.9325 2.07728 45.8262 15.9325 2.07728
264 2 45.8138 15.9744 -1.23796 45.8138 15.9744 -1.23796
265 1 46.7907 14.3098 0.416693 46.7907 14.3098 0.416693
266 2 48.5877 14.2292 2.14583 48.5877 14.2292 2.14583
267 2 48.7906 14.3397 -1.23056 48.7906 14.3397 -1.23056
268 1 49.6668 15.8834 0.632473 49.6668 15.8834 0.632473
269 2 51.6956 15.9915 2.20056 51.6956 15.9915 2.20056
270 2 51.5419 15.881 -1.04998 51.5419 15.881 -1.04998
271 1 1.22031 17.5447 0.579872 1.22031 17.5447 0.579872
272 2 3.325 17.4785 1.92696 3.325 17.4785 1.92696
273 2 2.93513 17.3942 -1.24642 2.93513 17.3942 -1.24642
274 1 4.06099 19.0965 0.193806 4.06099 19.0965 0.193806
275 2 6.00742 19.041 1.77845 6.00742 19.041 1.77845
276 2 5.90983 19.1176 -1.50596 5.90983 19.1176 -1.50596
277 1 6.87481 17.5247 0.0945171 6.87481 17.5247 0.0945171
278 2 8.74544 17.5483 1.64554 8.74544 17.5483 1.64554
279 2 8.77128 17.2876 -1.61124 8.77128 17.2876 -1.61124
280 1 9.75703 19.0761 -0.09461 9.75703 19.0761 -0.09461
281 2 11.6884 19.1696 1.57093 11.6884 19.1696 1.57093
282 2 11.5586 19.0581 -1.75052 11.5586 19.0581 -1.75052
283 1 12.5569 17.4787 -0.09326 12.5569 17.4787 -0.09326
284 2 14.6485 17.4066 1.22375 14.6485 17.4066 1.22375
285 2 14.3198 17.2538 -2.04376 14.3198 17.2538 -2.04376
286 1 15.3586 19.0395 -0.565025 15.3586 19.0395 -0.565025
287 2 17.2279 19.0205 1.06066 17.2279 19.0205 1.06066
288 2 17.181 19.0009 -2.17411 17.181 19.0009 -2.17411
289 1 18.2462 17.3612 -0.562844 18.2462 17.3612 -0.562844
290 2 20.1937 17.3459 1.0876 20.1937 17.3459 1.0876
291 2 20.1767 17.5285 -2.2234 20.1767 17.5285 -2.2234
292 1 21.0578 19.1289 -0.471936 21.0578 19.1289 -0.471936
293 2 22.9696 19.2529 1.03395 22.9696 19.2529 1.03395
294 2 22.8751 18.9957 -2.14368 22.8751 18.9957 -2.14368
295 1 23.8755 17.4458 -0.499958 23.8755 17.4458 -0.499958
296 2 25.8909 17.4203 1.15139 25.8909 17.4203 1.15139
297 2 25.8001 17.4684 -2.13835 25.8001 17.4684 -2.13835
298 1 26.791 19.1912 -0.462519 26.791 19.1912 -0.462519
299 2 28.8467 19.1237 1.02156 28.8467 19.1237 1.02156
300 2 28.4757 19.1697 -2.27838 28.4757 19.1697 -2.27838
301 1 29.5259 17.5304 -0.769368 29.5259 17.5304 -0.769368
302 2 31.3616 17.4635 0.888395 31.3616 17.4635 0.888395
303 2 31.5411 17.4265 -2.33443 31.5411 17.4265 -2.33443
304 1 32.4476 19.1447 -0.761388 32.4476 19.1447 -0.761388
305 2 34.2336 19.0555 1.04638 34.2336 19.0555 1.04638
306 2 34.4128 19.1542 -2.28013 34.4128 19.1542 -2.28013
307 1 35.2867 17.4675 -0.615793 35.2867 17.4675 -0.615793
308 2 36.8675 17.5779 1.34408 36.8675 17.5779 1.34408
309 2 37.5001 17.3402 -1.84272 37.5001 17.3402 -1.84272
310 1 38.0829 19.1293 -0.107092 38.0829 19.1293 -0.107092
311 2 39.7923 19.0354 1.73535 39.7923 19.0354 1.73535
312 2 40.197 19.1028 -1.42485 40.197 19.1028 -1.42485
313 1 40.9652 17.4922 0.238639 40.9652 17.4922 0.238639
314 2 42.7756 17.639 1.93939 42.7756 17.639 1.93939
315 2 43.0157 17.3522 -1.33597 43.0157 17.3522 -1.33597
316 1 43.8009 19.2055 0.247896 43.8009 19.2055 0.247896
317 2 45.8415 19.4803 1.8688 45.8415 19.4803 1.8688
318 2 45.7536 19.0997 -1.32349 45.7536 19.0997 -1.32349
319 1 46.7747 17.6597 0.415367 46.7747 17.6597 0.415367
320 2 48.7801 17.7645 2.04848 48.7801 17.7645 2.04848
321 2 48.6876 17.2867 -1.15414 48.6876 17.2867 -1.15414
322 1 49.6901 19.2245 0.273783 49.6901 19.2245 0.273783
323 2 51.4848 19.3306 1.97994 51.4848 19.3306 1.97994
324 2 51.5533 19.0146 -1.19951 51.5533 19.0146 -1.19951
325 1 1.18806 20.7652 0.259545 1.18806 20.7652 0.259545
326 2 3.09427 20.9206 1.77877 3.09427 20.9206 1.77877
327 2 2.9043 20.5936 -1.48914 2.9043 20.5936 -1.48914
328 1 3.97439 22.4392 -0.124961 3.97439 22.4392 -0.124961
329 2 5.75789 22.3976 1.62322 5.75789 22.3976 1.62322
330 2 6.02286 22.4452 -1.59856 6.02286 22.4452 -1.59856
331 1 6.86245 20.7044 0.0802867 6.86245 20.7044 0.0802867
332 2 8.85913 20.8735 1.53524 8.85913 20.8735 1.53524
333 2 8.69587 20.6796 -1.66648 8.69587 20.6796 -1.66648
334 1 9.82099 22.478 -0.13589 9.82099 22.478 -0.13589
335 2 11.7042 22.519 1.46614 11.7042 22.519 1.46614
336 2 11.6067 22.4479 -1.84427 11.6067 22.4479 -1.84427
337 1 12.5002 20.8016 -0.166594 12.5002 20.8016 -0.166594
338 2 14.5696 20.6605 1.24493 14.5696 20.6605 1.24493
339 2 14.1466 20.7515 -2.06689 14.1466 20.7515 -2.06689
340 1 15.3246 22.4596 -0.47841 15.3246 22.4596 -0.47841
341 2 17.1803 22.4651 1.16623 17.1803 22.4651 1.16623
342 2 17.2663 22.4762 -2.19946 17.2663 22.4762 -2.19946
343 1 18.1246 20.6766 -0.556043 18.1246 20.6766 -0.556043
344 2 20.0813 20.8055 1.10424 20.0813 20.8055 1.10424
345 2 20.0859 20.6215 -2.21381 20.0859 20.6215 -2.21381
346 1 21.0782 22.4091 -0.649162 21.0782 22.4091 -0.649162
347 2 22.9147 22.1647 1.00293 22.9147 22.1647 1.00293
348 2 22.9319 22.3896 -2.32627 22.9319 22.3896 -2.32627
349 1 23.8805 20.7263 -0.743331 23.8805 20.7263 -0.743331
350 2 25.6935 20.8421 1.08154 25.6935 20.8421 1.08154
351 2 25.9056 20.7158 -2.28021 25.9056 20.7158 -2.28021
352 1 26.6887 22.4706 -0.619419 26.6887 22.4706 -0.619419
353 2 28.4843 22.3672 1.05487 28.4843 22.3672 1.05487
354 2 28.5494 22.5127 -2.35161 28.5494 22.5127 -2.35161
355 1 29.5788 20.8309 -0.72534 29.5788 20.8309 -0.72534
356 2 31.5453 20.8672 0.825133 31.5453 20.8672 0.825133
357 2 31.4883 20.7791 -2.41003 31.4883 20.7791 -2.41003
358 1 32.4705 22.4785 -0.939029 32.4705 22.4785 -0.939029
359 2 34.1691 22.3782 0.896802 34.1691 22.3782 0.896802
360 2 34.6119 22.3967 -2.23768 34.6119 22.3967 -2.23768
361 1 35.2955 20.7627 -0.499653 35.2955 20.7627 -0.499653
362 2 36.9348 20.7016 1.40762 36.9348 20.7016 1.40762
363 2 37.5063 20.7346 -1.81015 37.5063 20.7346 -1.81015
364 1 38.1665 22.4369 -0.0758765 38.1665 22.4369 -0.0758765
365 2 39.9083 22.5928 1.69406 39.9083 22.5928 1.69406
366 2 40.1506 22.2977 -1.51008 40.1506 22.2977 -1.51008
367 1 40.9413 20.7683 0.29849 40.9413 20.7683 0.29849
368 2 42.8508 20.7856 1.92162 42.8508 20.7856 1.92162
369 2 42.8887 20.8017 -1.34424 42.8887 20.8017 -1.34424
370 1 43.9012 22.4929 0.327091 43.9012 22.4929 0.327091
371 2 45.9146 22.4929 1.83658 45.9146 22.4929 1.83658
372 2 45.7677 22.5071 -1.41589 45.7677 22.5071 -1.41589
373 1 46.7092 20.949 0.170963 46.7092 20.949 0.170963
374 2 48.6422 20.909 1.86164 48.6422 20.909 1.86164
375 2 48.6866 20.8155 -1.47088 48.6866 20.8155 -1.47088
376 1 49.6018 22.5028 0.185503 49.6018 22.5028 0.185503
377 2 51.5515 22.5322 1.72118 51.5515 22.5322 1.72118
378 2 51.4454 22.3274 -1.44754 51.4454 22.3274 -1.44754
379 1 1.14458 24.1271 -0.110972 1.14458 24.1271 -0.110972
380 2 2.93185 23.9751 1.64354 2.93185 23.9751 1.64354
381 2 3.15882 24.4825 -1.59252 3.15882 24.4825 -1.59252
382 1 4.07601 25.7179 0.413473 4.07601 25.7179 0.413473
383 2 6.24215 25.7986 1.80551 6.24215 25.7986 1.80551
384 2 5.84342 25.7123 -1.53548 5.84342 25.7123 -1.53548
385 1 6.96309 24.0927 0.0883973 6.96309 24.0927 0.0883973
386 2 9.00865 24.0521 1.60622 9.00865 24.0521 1.60622
387 2 8.73796 24.244 -1.61662 8.73796 24.244 -1.61662
388 1 9.76418 25.7342 0.0818263 9.76418 25.7342 0.0818263
389 2 11.9503 25.7979 1.44718 11.9503 25.7979 1.44718
390 2 11.4095 25.7716 -1.7488 11.4095 25.7716 -1.7488
391 1 12.5892 24.0498 -0.145096 12.5892 24.0498 -0.145096
392 2 14.5897 23.9371 1.35441 14.5897 23.9371 1.35441
393 2 14.2525 24.144 -1.9289 14.2525 24.144 -1.9289
394 1 15.367 25.7032 -0.278443 15.367 25.7032 -0.278443
395 2 17.4623 25.7466 1.30405 17.4623 25.7466 1.30405
396 2 17.2431 25.7534 -2.00088 17.2431 25.7534 -2.00088
397 1 18.2337 24.062 -0.410382 18.2337 24.062 -0.410382
398 2 20.1942 23.9926 1.16771 20.1942 23.9926 1.16771
399 2 20.062 24.2391 -2.05757 20.062 24.2391 -2.05757
400 1 21.1356 25.7647 -0.389914 21.1356 25.7647 -0.389914
401 2 23.0196 25.5857 1.15008 23.0196 25.5857 1.15008
402 2 22.87 25.7807 -2.14049 22.87 25.7807 -2.14049
403 1 23.857 23.996 -0.578323 23.857 23.996 -0.578323
404 2 25.7468 24.0048 1.10667 25.7468 24.0048 1.10667
405 2 25.7981 24.1781 -2.17946 25.7981 24.1781 -2.17946
406 1 26.6968 25.8012 -0.428927 26.6968 25.8012 -0.428927
407 2 28.6793 25.6095 1.04511 28.6793 25.6095 1.04511
408 2 28.5879 25.8687 -2.13091 28.5879 25.8687 -2.13091
409 1 29.6361 24.0646 -0.74849 29.6361 24.0646 -0.74849
410 2 31.5004 23.9828 0.815829 31.5004 23.9828 0.815829
411 2 31.5077 24.213 -2.44258 31.5077 24.213 -2.44258
412 1 32.5012 25.688 -0.748431 32.5012 25.688 -0.748431
413 2 34.1198 25.5411 1.10289 34.1198 25.5411 1.10289
414 2 34.5977 25.8472 -2.15327 34.5977 25.8472 -2.15327
415 1 35.3729 24.0488 -0.487884 35.3729 24.0488 -0.487884
416 2 36.9921 24.0369 1.41018 36.9921 24.0369 1.41018
417 2 37.4451 24.0886 -1.73505 37.4451 24.0886 -1.73505
418 1 38.2215 25.7091 -0.00300291 38.2215 25.7091 -0.00300291
419 2 40.0607 25.8663 1.58552 40.0607 25.8663 1.58552
420 2 40.06 25.6856 -1.72831 40.06 25.6856 -1.72831
421 1 41.0081 24.1284 0.113194 41.0081 24.1284 0.113194
422 2 42.9181 24.3306 1.73695 42.9181 24.3306 1.73695
423 2 42.8684 24.0255 -1.55582 42.8684 24.0255 -1.55582
424 1 43.8496 25.7838 -0.0867081 43.8496 25.7838 -0.0867081
425 2 45.7015 25.8848 1.69542 45.7015 25.8848 1.69542
426 2 45.8303 25.6439 -1.55651 45.8303 25.6439 -1.55651
427 1 46.7732 24.1659 0.155114 46.7732 24.1659 0.155114
428 2 48.6173 24.268 1.77128 48.6173 24.268 1.77128
429 2 48.6456 24.1105 -1.5331 48.6456 24.1105 -1.5331
430 1 49.7452 25.7434 0.0516648 49.7452 25.7434 0.0516648
431 2 51.6155 25.7284 1.63052 51.6155 25.7284 1.63052
432 2 51.5305 25.7849 -1.64276 51.5305 25.7849 -1.64276
433 1 1.20152 27.4035 0.158423 1.20152 27.4035 0.158423
434 2 3.1052 27.5575 1.8274 3.1052 27.5575 1.8274
435 2 3.10065 27.3391 -1.45998 3.10065 27.3391 -1.45998
436 1 4.08192 29.033 0.118321 4.08192 29.033 0.118321
437 2 5.87056 29.0214 1.7362 5.87056 29.0214 1.7362
438 2 5.91037 29.1157 -1.48575 5.91037 29.1157 -1.48575
439 1 6.86347 27.4343 0.0446716 6.86347 27.4343 0.0446716
440 2 8.78403 27.3249 1.68148 8.78403 27.3249 1.68148
441 2 8.88455 27.3734 -1.53946 8.88455 27.3734 -1.53946
442 1 9.82285 29.0584 0.119428 9.82285 29.0584 0.119428
443 2 11.808 29.1097 1.60035 11.808 29.1097 1.60035
444 2 11.4593 29.0178 -1.715 11.4593 29.0178 -1.715
445 1 12.6053 27.4353 -0.141974 12.6053 27.4353 -0.141974
446 2 14.6352 27.4925 1.35631 14.6352 27.4925 1.35631
447 2 14.3349 27.3361 -1.91415 14.3349 27.3361 -1.91415
448 1 15.4468 29.003 -0.46566 15.4468 29.003 -0.46566
449 2 17.3539 29.1274 1.21517 17.3539 29.1274 1.21517
450 2 17.3538 29.1334 -2.12022 17.3538 29.1334 -2.12022
451 1 18.2736 27.3587 -0.413712 18.2736 27.3587 -0.413712
452 2 20.0496 27.489 1.27574 20.0496 27.489 1.27574
453 2 20.086 27.4756 -2.03658 20.086 27.4756 -2.03658
454 1 21.0129 29.1546 -0.316547 21.0129 29.1546 -0.316547
455 2 23.0176 29.0886 1.20476 23.0176 29.0886 1.20476
456 2 22.9161 29.0519 -2.0224 22.9161 29.0519 -2.0224
457 1 23.9276 27.431 -0.406716 23.9276 27.431 -0.406716
458 2 25.7051 27.3169 1.33276 25.7051 27.3169 1.33276
459 2 25.8913 27.5296 -1.89491 25.8913 27.5296 -1.89491
460 1 26.7192 29.0832 -0.0606577 26.7192 29.0832 -0.0606577
461 2 28.6028 28.8466 1.38753 28.6028 28.8466 1.38753
462 2 28.5168 29.2457 -1.8566 28.5168 29.2457 -1.8566
463 1 29.514 27.424 -0.400433 29.514 27.424 -0.400433
464 2 31.551 27.1273 1.09678 31.551 27.1273 1.09678
465 2 31.4575 27.5418 -2.1225 31.4575 27.5418 -2.1225
466 1 32.5024 28.99 -0.375447 32.5024 28.99 -0.375447
467 2 34.5035 29.1263 1.22942 34.5035 29.1263 1.22942
468 2 34.3153 28.9423 -2.08995 34.3153 28.9423 -2.08995
469 1 35.3327 27.3675 -0.35369 35.3327 27.3675 -0.35369
470 2 37.0393 27.3613 1.46872 37.0393 27.3613 1.46872
471 2 37.3086 27.255 -1.76218 37.3086 27.255 -1.76218
472 1 38.049 29.0132 -0.131449 38.049 29.0132 -0.131449
473 2 40.0616 29.0805 1.45845 40.0616 29.0805 1.45845
474 2 40.0355 29.0208 -1.85032 40.0355 29.0208 -1.85032
475 1 40.9809 27.4182 -0.199989 40.9809 27.4182 -0.199989
476 2 42.7977 27.3109 1.55588 42.7977 27.3109 1.55588
477 2 42.8845 27.3799 -1.78527 42.8845 27.3799 -1.78527
478 1 43.863 28.9724 0.00390589 43.863 28.9724 0.00390589
479 2 45.8406 29.178 1.54067 45.8406 29.178 1.54067
480 2 45.5912 28.9254 -1.66207 45.5912 28.9254 -1.66207
481 1 46.734 27.4302 0.00671193 46.734 27.4302 0.00671193
482 2 48.5718 27.344 1.73099 48.5718 27.344 1.73099
483 2 48.6588 27.4119 -1.54675 48.6588 27.4119 -1.54675
484 1 49.6626 29.0549 0.147327 49.6626 29.0549 0.147327
485 2 51.527 29.1983 1.77409 51.527 29.1983 1.77409
486 2 51.5915 29.0655 -1.54563 51.5915 29.0655 -1.54563
487 1 1.17689 30.7786 0.0865683 1.17689 30.7786 0.0865683
488 2 3.03595 30.7705 1.69235 3.03595 30.7705 1.69235
489 2 3.13369 30.5687 -1.56817 3.13369 30.5687 -1.56817
490 1 4.07005 32.3121 -0.00622878 4.07005 32.3121 -0.00622878
491 2 5.88091 32.6581 1.48727 5.88091 32.6581 1.48727
492 2 5.88432 31.9891 -1.63802 5.88432 31.9891 -1.63802
493 1 6.83974 30.6921 0.261733 6.83974 30.6921 0.261733
494 2 8.99077 30.9216 1.57733 8.99077 30.9216 1.57733
495 2 8.54473 30.5023 -1.65222 8.54473 30.5023 -1.65222
496 1 9.69724 32.3258 -0.380237 9.69724 32.3258 -0.380237
497 2 11.6626 32.4921 1.20502 11.6626 32.4921 1.20502
498 2 11.6144 31.9874 -2.05702 11.6144 31.9874 -2.05702
499 1 12.5671 30.6206 -0.213322 12.5671 30.6206 -0.213322
500 2 14.6538 30.6954 1.24202 14.6538 30.6954 1.24202
501 2 14.2049 30.7054 -2.06209 14.2049 30.7054 -2.06209
502 1 15.4236 32.3168 -0.450533 15.4236 32.3168 -0.450533
503 2 17.2505 32.4613 1.27446 17.2505 32.4613 1.27446
504 2 17.2774 32.3763 -2.03877 17.2774 32.3763 -2.03877
505 1 18.1913 30.8065 -0.386263 18.1913 30.8065 -0.386263
506 2 20.1887 30.7851 1.24067 20.1887 30.7851 1.24067
507 2 20.0799 30.7104 -1.96083 20.0799 30.7104 -1.96083
508 1 21.1002 32.4068 -0.455963 21.1002 32.4068 -0.455963
509 2 22.8565 32.2827 1.29114 22.8565 32.2827 1.29114
510 2 23.1653 32.5291 -2.03722 23.1653 32.5291 -2.03722
511 1 23.8875 30.7863 -0.403846 23.8875 30.7863 -0.403846
512 2 25.7377 30.879 1.37449 25.7377 30.879 1.37449
513 2 25.9478 30.7045 -1.89472 25.9478 30.7045 -1.89472
514 1 26.8222 32.3293 -0.299837 26.8222 32.3293 -0.299837
515 2 28.6333 32.3982 1.28136 28.6333 32.3982 1.28136
516 2 28.681 32.2755 -1.96183 28.681 32.2755 -1.96183
517 1 29.6712 30.6565 -0.283876 29.6712 30.6565 -0.283876
518 2 31.53 30.6453 1.33135 31.53 30.6453 1.33135
519 2 31.5653 30.7593 -1.98024 31.5653 30.7593 -1.98024
520 1 32.4377 32.3591 -0.344438 32.4377 32.3591 -0.344438
521 2 34.4734 32.1164 1.25076 34.4734 32.1164 1.25076
522 2 34.3239 32.6569 -1.99975 34.3239 32.6569 -1.99975
523 1 35.3278 30.6598 -0.591413 35.3278 30.6598 -0.591413
524 2 36.9743 30.6608 1.3374 36.9743 30.6608 1.3374
525 2 37.4584 30.5203 -1.96456 37.4584 30.5203 -1.96456
526 1 38.1809 32.2769 -0.307033 38.1809 32.2769 -0.307033
527 2 39.9676 32.374 1.34864 39.9676 32.374 1.34864
528 2 40.1614 32.3274 -1.90085 40.1614 32.3274 -1.90085
529 1 41.0157 30.7166 -0.303495 41.0157 30.7166 -0.303495
530 2 42.869 30.8309 1.46066 42.869 30.8309 1.46066
531 2 43.0022 30.544 -1.78589 43.0022 30.544 -1.78589
532 1 43.8565 32.3353 -0.359108 43.8565 32.3353 -0.359108
533 2 45.7959 32.3851 1.28761 45.7959 32.3851 1.28761
534 2 45.9033 32.4206 -2.00367 45.9033 32.4206 -2.00367
535 1 46.7617 30.6562 -0.241832 46.7617 30.6562 -0.241832
536 2 48.5351 30.8167 1.49046 48.5351 30.8167 1.49046
537 2 48.8102 30.5004 -1.72871 48.8102 30.5004 -1.72871
538 1 49.6572 32.3164 -0.212474 49.6572 32.3164 -0.212474
539 2 51.4688 32.5034 1.57548 51.4688 32.5034 1.57548