ITEM: TIMESTEP
44800
ITEM: NUMBER OF ATOMS
810
ITEM: BOX BOUNDS pp pp pp
8.4137701477268123e-01 5.2176227985227342e+01
8.0961581116522285e-01 5.0206599188834083e+01
-1.0000000000000000e+01 1.0000000000000000e+01
ITEM: ATOMS id type x y z xu yu zu
1 1 1.1342 0.911474 0.264993 1.1342 0.911474 0.264993
2 2 3.12465 0.828805 1.93565 3.12465 0.828805 1.93565
3 2 3.02587 1.11817 -1.29431 3.02587 1.11817 -1.29431
4 1 3.9128 2.63704 0.44311 3.9128 2.63704 0.44311
5 2 5.95954 2.69045 1.76256 5.95954 2.69045 1.76256
6 2 5.5666 2.81129 -1.45832 5.5666 2.81129 -1.45832
7 1 6.74735 1.04425 -0.007864 6.74735 1.04425 -0.007864
8 2 8.7339 1.04672 1.64744 8.7339 1.04672 1.64744
9 2 8.62286 1.05242 -1.64508 8.62286 1.05242 -1.64508
10 1 9.58374 2.70179 0.0102052 9.58374 2.70179 0.0102052
11 2 11.5365 2.65749 1.68195 11.5365 2.65749 1.68195
12 2 11.5111 2.78033 -1.55253 11.5111 2.78033 -1.55253
13 1 12.3743 1.09323 -0.0776024 12.3743 1.09323 -0.0776024
14 2 14.2682 0.911072 1.55794 14.2682 0.911072 1.55794
15 2 14.4065 1.22042 -1.6976 14.4065 1.22042 -1.6976
16 1 15.4253 2.69162 0.0812848 15.4253 2.69162 0.0812848
17 2 17.4561 2.86059 1.55413 17.4561 2.86059 1.55413
18 2 17.165 2.64059 -1.75117 17.165 2.64059 -1.75117
19 1 18.2482 0.978876 -0.0792814 18.2482 0.978876 -0.0792814
20 2 20.2472 0.873415 1.28053 20.2472 0.873415 1.28053
21 2 19.8645 1.06761 -1.89256 19.8645 1.06761 -1.89256
22 1 21.0293 2.62871 -0.377147 21.0293 2.62871 -0.377147
23 2 22.959 2.53703 1.18754 22.959 2.53703 1.18754
24 2 22.8342 2.50417 -2.10482 22.8342 2.50417 -2.10482
25 1 23.8528 0.94887 -0.524744 23.8528 0.94887 -0.524744
26 2 25.961 1.00981 0.977991 25.961 1.00981 0.977991
27 2 25.6782 0.981941 -2.25248 25.6782 0.981941 -2.25248
28 1 26.6687 2.62177 -0.684228 26.6687 2.62177 -0.684228
29 2 28.5346 2.53159 0.990373 28.5346 2.53159 0.990373
30 2 28.6846 2.75413 -2.24513 28.6846 2.75413 -2.24513
31 1 29.5671 0.971419 -0.697023 29.5671 0.971419 -0.697023
32 2 31.2911 0.896608 1.02629 31.2911 0.896608 1.02629
33 2 31.5432 1.09585 -2.08732 31.5432 1.09585 -2.08732
34 1 32.4511 2.57784 -0.35834 32.4511 2.57784 -0.35834
35 2 34.3006 2.5767 1.43865 34.3006 2.5767 1.43865
36 2 34.3472 2.67092 -1.8689 34.3472 2.67092 -1.8689
37 1 35.1902 1.00311 -0.277153 35.1902 1.00311 -0.277153
38 2 37.0722 0.838238 1.419 37.0722 0.838238 1.419
39 2 37.2623 1.06603 -1.80668 37.2623 1.06603 -1.80668
40 1 38.1286 2.61659 0.0303137 38.1286 2.61659 0.0303137
41 2 40.0336 2.56662 1.65609 40.0336 2.56662 1.65609
42 2 40.113 2.78691 -1.65715 40.113 2.78691 -1.65715
43 1 40.9778 1.05542 -0.0840886 40.9778 1.05542 -0.0840886
44 2 42.9192 0.982681 1.49772 42.9192 0.982681 1.49772
45 2 42.9656 1.12913 -1.72497 42.9656 1.12913 -1.72497
46 1 43.8996 2.66042 -0.000262817 43.8996 2.66042 -0.000262817
47 2 45.7425 2.51906 1.7863 45.7425 2.51906 1.7863
48 2 45.8874 2.76348 -1.4822 45.8874 2.76348 -1.4822
49 1 46.6855 0.900012 0.0784746 46.6855 0.900012 0.0784746
50 2 48.4972 0.86216 1.77372 48.4972 0.86216 1.77372
51 2 48.588 1.05476 -1.41495 48.588 1.05476 -1.41495
52 1 49.5645 2.60626 0.299466 49.5645 2.60626 0.299466
53 2 51.5589 2.46295 1.96789 51.5589 2.46295 1.96789
54 2 51.4714 2.60946 -1.36527 51.4714 2.60946 -1.36527
55 1 1.10676 4.23759 0.377177 1.10676 4.23759 0.377177
56 2 2.81183 4.07623 2.23441 2.81183 4.07623 2.23441
57 2 3.11427 4.44298 -1.05742 3.11427 4.44298 -1.05742
58 1 4.01151 5.80903 0.857738 4.01151 5.80903 0.857738
59 2 6.15875 5.69736 2.01055 6.15875 5.69736 2.01055
60 2 5.56562 6.18921 -0.996598 5.56562 6.18921 -0.996598
61 1 6.77955 4.31672 0.0865279 6.77955 4.31672 0.0865279
62 2 8.67134 4.30768 1.78191 8.67134 4.30768 1.78191
63 2 8.64084 4.44625 -1.44406 8.64084 4.44625 -1.44406
64 1 9.59435 6.00856 0.293292 9.59435 6.00856 0.293292
65 2 11.6217 5.92929 1.8282 11.6217 5.92929 1.8282
66 2 11.424 6.03372 -1.47603 11.424 6.03372 -1.47603
67 1 12.5046 4.31356 0.107331 12.5046 4.31356 0.107331
68 2 14.5929 4.19037 1.76685 14.5929 4.19037 1.76685
69 2 14.433 4.29532 -1.49708 14.433 4.29532 -1.49708
70 1 15.4659 5.97171 0.102754 15.4659 5.97171 0.102754
71 2 17.6614 6.02511 1.42499 17.6614 6.02511 1.42499
72 2 17.0784 5.86204 -1.83199 17.0784 5.86204 -1.83199
73 1 18.294 4.36611 -0.320594 18.294 4.36611 -0.320594
74 2 20.3085 4.40634 1.23135 20.3085 4.40634 1.23135
75 2 20.055 4.01135 -2.04153 20.055 4.01135 -2.04153
76 1 21.1605 5.91867 -0.6816 21.1605 5.91867 -0.6816
77 2 22.9971 5.89396 1.00065 22.9971 5.89396 1.00065
78 2 23.021 5.7969 -2.19672 23.021 5.7969 -2.19672
79 1 23.8575 4.21833 -0.537178 23.8575 4.21833 -0.537178
80 2 25.854 4.26673 1.00512 25.854 4.26673 1.00512
81 2 25.6742 4.17977 -2.20937 25.6742 4.17977 -2.20937
82 1 26.7584 5.91017 -0.758209 26.7584 5.91017 -0.758209
83 2 28.393 5.89801 1.03186 28.393 5.89801 1.03186
84 2 28.6994 5.95378 -2.23652 28.6994 5.95378 -2.23652
85 1 29.5292 4.30536 -0.509572 29.5292 4.30536 -0.509572
86 2 31.3182 4.20992 1.1982 31.3182 4.20992 1.1982
87 2 31.5194 4.12851 -2.03966 31.5194 4.12851 -2.03966
88 1 32.4366 5.82955 -0.371895 32.4366 5.82955 -0.371895
89 2 34.2845 6.05802 1.42475 34.2845 6.05802 1.42475
90 2 34.3151 5.86985 -1.85435 34.3151 5.86985 -1.85435
91 1 35.2685 4.25536 -0.125464 35.2685 4.25536 -0.125464
92 2 37.0804 4.30818 1.59664 37.0804 4.30818 1.59664
93 2 37.2861 4.25931 -1.64493 37.2861 4.25931 -1.64493
94 1 38.2069 5.8664 -0.024334 38.2069 5.8664 -0.024334
95 2 40.0448 5.81809 1.75238 40.0448 5.81809 1.75238
96 2 40.2367 5.85484 -1.54827 40.2367 5.85484 -1.54827
97 1 41.0168 4.24093 0.124257 41.0168 4.24093 0.124257
98 2 42.9845 4.19377 1.76864 42.9845 4.19377 1.76864
99 2 42.9458 4.30857 -1.61213 42.9458 4.30857 -1.61213
100 1 43.8574 5.88976 0.230551 43.8574 5.88976 0.230551
101 2 45.701 5.70419 2.03078 45.701 5.70419 2.03078
102 2 45.9438 6.0125 -1.21432 45.9438 6.0125 -1.21432
103 1 46.7388 4.19007 0.311535 46.7388 4.19007 0.311535
104 2 48.5142 4.17517 2.05577 48.5142 4.17517 2.05577
105 2 48.7915 4.36067 -1.27637 48.7915 4.36067 -1.27637
106 1 49.6943 5.86447 0.55123 49.6943 5.86447 0.55123
107 2 51.4746 5.51446 2.23247 51.4746 5.51446 2.23247
108 2 51.609 6.11784 -1.02378 51.609 6.11784 -1.02378
109 1 1.10213 7.45839 1.0097 1.10213 7.45839 1.0097
110 2 2.99218 7.37383 2.6214 2.99218 7.37383 2.6214
111 2 2.96541 7.65192 -0.683383 2.96541 7.65192 -0.683383
112 1 3.9237 9.17294 1.14513 3.9237 9.17294 1.14513
113 2 6.16999 9.21359 2.37661 6.16999 9.21359 2.37661
114 2 5.51381 9.1771 -0.813127 5.51381 9.1771 -0.813127
115 1 6.85198 7.61712 0.651295 6.85198 7.61712 0.651295
116 2 8.87098 7.52994 2.14867 8.87098 7.52994 2.14867
117 2 8.47378 7.63582 -1.22966 8.47378 7.63582 -1.22966
118 1 9.65579 9.18568 0.325726 9.65579 9.18568 0.325726
119 2 11.6244 9.0934 1.93464 11.6244 9.0934 1.93464
120 2 11.5296 9.1591 -1.39428 11.5296 9.1591 -1.39428
121 1 12.582 7.6126 0.203527 12.582 7.6126 0.203527
122 2 14.6886 7.77816 1.64027 14.6886 7.77816 1.64027
123 2 14.2695 7.39413 -1.5554 14.2695 7.39413 -1.5554
124 1 15.3583 9.2267 -0.281538 15.3583 9.2267 -0.281538
125 2 17.4826 9.27587 1.0684 17.4826 9.27587 1.0684
126 2 17.0145 9.09721 -2.02852 17.0145 9.09721 -2.02852
127 1 18.2293 7.54187 -0.488607 18.2293 7.54187 -0.488607
128 2 20.2239 7.62788 0.979457 20.2239 7.62788 0.979457
129 2 20.0389 7.36783 -2.31722 20.0389 7.36783 -2.31722
130 1 21.0988 9.09548 -0.82044 21.0988 9.09548 -0.82044
131 2 22.9078 9.00646 0.900688 22.9078 9.00646 0.900688
132 2 23.0368 9.18822 -2.35526 23.0368 9.18822 -2.35526
133 1 24.0335 7.46561 -0.731842 24.0335 7.46561 -0.731842
134 2 25.8163 7.38717 1.0084 25.8163 7.38717 1.0084
135 2 25.9169 7.76817 -2.27445 25.9169 7.76817 -2.27445
136 1 26.7149 9.20719 -0.408741 26.7149 9.20719 -0.408741
137 2 28.7373 9.08774 1.16877 28.7373 9.08774 1.16877
138 2 28.6272 9.20422 -1.93334 28.6272 9.20422 -1.93334
139 1 29.5858 7.55153 -0.476111 29.5858 7.55153 -0.476111
140 2 31.2973 7.41302 1.29325 31.2973 7.41302 1.29325
141 2 31.5189 7.61384 -1.99066 31.5189 7.61384 -1.99066
142 1 32.4536 9.09591 -0.148157 32.4536 9.09591 -0.148157
143 2 34.4247 9.21848 1.49924 34.4247 9.21848 1.49924
144 2 34.3168 9.12197 -1.83846 34.3168 9.12197 -1.83846
145 1 35.3411 7.54394 -0.188699 35.3411 7.54394 -0.188699
146 2 37.0526 7.65055 1.55983 37.0526 7.65055 1.55983
147 2 37.3698 7.48628 -1.73045 37.3698 7.48628 -1.73045
148 1 38.1915 9.19919 0.0779421 38.1915 9.19919 0.0779421
149 2 40.0155 9.09077 1.78706 40.0155 9.09077 1.78706
150 2 40.1142 9.43302 -1.42531 40.1142 9.43302 -1.42531
151 1 41.0349 7.57016 0.132116 41.0349 7.57016 0.132116
152 2 42.8408 7.46764 1.86694 42.8408 7.46764 1.86694
153 2 42.9715 7.67027 -1.38291 42.9715 7.67027 -1.38291
154 1 43.8362 9.12172 0.452714 43.8362 9.12172 0.452714
155 2 45.7162 9.11363 2.09664 45.7162 9.11363 2.09664
156 2 45.7869 9.1521 -1.13258 45.7869 9.1521 -1.13258
157 1 46.8217 7.51746 0.535447 46.8217 7.51746 0.535447
158 2 48.5407 7.31752 2.25638 48.5407 7.31752 2.25638
159 2 48.8721 7.64464 -0.96019 48.8721 7.64464 -0.96019
160 1 49.5701 9.10286 0.952939 49.5701 9.10286 0.952939
161 2 51.3164 9.06191 2.67166 51.3164 9.06191 2.67166
162 2 51.6082 9.25183 -0.557482 51.6082 9.25183 -0.557482
163 1 1.00571 10.8184 1.15558 1.00571 10.8184 1.15558
164 2 2.96314 10.8005 2.71865 2.96314 10.8005 2.71865
165 2 2.93267 10.7314 -0.580962 2.93267 10.7314 -0.580962
166 1 3.94061 12.4128 0.963269 3.94061 12.4128 0.963269
167 2 5.98206 12.4029 2.32861 5.98206 12.4029 2.32861
168 2 5.73273 12.6363 -0.792978 5.73273 12.6363 -0.792978
169 1 6.80631 10.8617 0.600487 6.80631 10.8617 0.600487
170 2 8.85962 10.9112 1.96089 8.85962 10.9112 1.96089
171 2 8.62274 10.8401 -1.23659 8.62274 10.8401 -1.23659
172 1 9.73766 12.4969 0.198784 9.73766 12.4969 0.198784
173 2 11.8042 12.7008 1.61199 11.8042 12.7008 1.61199
174 2 11.5848 12.3537 -1.55244 11.5848 12.3537 -1.55244
175 1 12.5168 10.8492 0.146448 12.5168 10.8492 0.146448
176 2 14.6818 10.9471 1.35363 14.6818 10.9471 1.35363
177 2 14.0299 10.5642 -1.84715 14.0299 10.5642 -1.84715
178 1 15.3569 12.4349 -0.643416 15.3569 12.4349 -0.643416
179 2 17.3528 12.5154 0.819 17.3528 12.5154 0.819
180 2 17.0821 12.3546 -2.42702 17.0821 12.3546 -2.42702
181 1 18.2081 10.7341 -0.700432 18.2081 10.7341 -0.700432
182 2 20.2007 10.8142 0.77275 20.2007 10.8142 0.77275
183 2 19.9863 10.6053 -2.54472 19.9863 10.6053 -2.54472
184 1 20.9385 12.4012 -0.969261 20.9385 12.4012 -0.969261
185 2 22.7117 12.3617 0.877561 22.7117 12.3617 0.877561
186 2 23.0313 12.453 -2.44587 23.0313 12.453 -2.44587
187 1 23.8569 10.864 -0.670571 23.8569 10.864 -0.670571
188 2 25.5747 10.8678 1.10382 25.5747 10.8678 1.10382
189 2 25.8509 10.8509 -2.11867 25.8509 10.8509 -2.11867
190 1 26.6958 12.5571 -0.455871 26.6958 12.5571 -0.455871
191 2 28.5872 12.4212 1.25835 28.5872 12.4212 1.25835
192 2 28.6812 12.5441 -1.91052 28.6812 12.5441 -1.91052
193 1 29.6397 10.8371 -0.353374 29.6397 10.8371 -0.353374
194 2 31.3931 10.7778 1.43106 31.3931 10.7778 1.43106
195 2 31.6099 10.7719 -1.80479 31.6099 10.7719 -1.80479
196 1 32.4491 12.3856 -0.137097 32.4491 12.3856 -0.137097
197 2 34.3091 12.2737 1.61427 34.3091 12.2737 1.61427
198 2 34.3434 12.6302 -1.61226 34.3434 12.6302 -1.61226
199 1 35.2932 10.8831 -0.25845 35.2932 10.8831 -0.25845
200 2 36.9776 10.7923 1.64297 36.9776 10.7923 1.64297
201 2 37.4465 10.8857 -1.56836 37.4465 10.8857 -1.56836
202 1 38.1106 12.5009 0.280122 38.1106 12.5009 0.280122
203 2 39.9237 12.5207 2.02314 39.9237 12.5207 2.02314
204 2 40.1761 12.669 -1.24531 40.1761 12.669 -1.24531
205 1 40.9889 10.8985 0.430781 40.9889 10.8985 0.430781
206 2 42.8688 10.6794 2.13356 42.8688 10.6794 2.13356
207 2 42.9945 10.9513 -1.10776 42.9945 10.9513 -1.10776
208 1 43.8835 12.568 0.558851 43.8835 12.568 0.558851
209 2 45.7011 12.3837 2.26418 45.7011 12.3837 2.26418
210 2 45.9114 12.5502 -1.05913 45.9114 12.5502 -1.05913
211 1 46.7912 10.9 0.525307 46.7912 10.9 0.525307
212 2 48.3567 10.8266 2.43731 48.3567 10.8266 2.43731
213 2 48.9704 10.8166 -0.792569 48.9704 10.8166 -0.792569
214 1 49.6427 12.5298 0.927403 49.6427 12.5298 0.927403
215 2 51.3646 12.6808 2.55115 51.3646 12.6808 2.55115
216 2 51.5416 12.4108 -0.553551 51.5416 12.4108 -0.553551
217 1 1.07749 14.1813 0.95674 1.07749 14.1813 0.95674
218 2 3.11513 14.1753 2.4954 3.11513 14.1753 2.4954
219 2 2.81917 13.9247 -0.712299 2.81917 13.9247 -0.712299
220 1 3.90043 15.7626 0.717904 3.90043 15.7626 0.717904
221 2 5.82911 15.8789 2.30983 5.82911 15.8789 2.30983
222 2 5.8208 15.6804 -0.927611 5.8208 15.6804 -0.927611
223 1 6.83756 14.1171 0.851554 6.83756 14.1171 0.851554
224 2 9.09704 14.1209 1.93566 9.09704 14.1209 1.93566
225 2 8.3017 14.1284 -1.25198 8.3017 14.1284 -1.25198
226 1 9.63388 15.7478 0.109644 9.63388 15.7478 0.109644
227 2 11.8794 15.9536 1.34928 11.8794 15.9536 1.34928
228 2 11.1928 15.5566 -1.79501 11.1928 15.5566 -1.79501
229 1 12.5156 14.0711 -0.301248 12.5156 14.0711 -0.301248
230 2 14.6117 14.1867 1.05812 14.6117 14.1867 1.05812
231 2 14.0087 13.9982 -2.20198 14.0087 13.9982 -2.20198
232 1 15.3162 15.7569 -0.844974 15.3162 15.7569 -0.844974
233 2 17.3224 15.9222 0.654895 17.3224 15.9222 0.654895
234 2 17.1504 15.745 -2.58084 17.1504 15.745 -2.58084
235 1 18.2622 14.1765 -0.94269 18.2622 14.1765 -0.94269
236 2 20.2169 14.1637 0.611364 20.2169 14.1637 0.611364
237 2 20.0833 14.003 -2.64191 20.0833 14.003 -2.64191
238 1 21.0532 15.6817 -1.07991 21.0532 15.6817 -1.07991
239 2 22.7424 15.7896 0.792989 22.7424 15.7896 0.792989
240 2 23.1651 15.78 -2.44615 23.1651 15.78 -2.44615
241 1 23.8559 14.0832 -0.653948 23.8559 14.0832 -0.653948
242 2 25.6275 14.1722 1.15285 25.6275 14.1722 1.15285
243 2 25.7981 13.9955 -2.18961 25.7981 13.9955 -2.18961
244 1 26.6025 15.8309 -0.469532 26.6025 15.8309 -0.469532
245 2 28.5465 16.0083 1.19522 28.5465 16.0083 1.19522
246 2 28.692 15.7528 -2.08302 28.692 15.7528 -2.08302
247 1 29.5519 14.2447 -0.279427 29.5519 14.2447 -0.279427
248 2 31.3426 14.1192 1.48693 31.3426 14.1192 1.48693
249 2 31.5756 14.1519 -1.80853 31.5756 14.1519 -1.80853
250 1 32.4351 15.7601 -0.0450318 32.4351 15.7601 -0.0450318
251 2 34.1323 15.7246 1.82185 34.1323 15.7246 1.82185
252 2 34.4455 15.7773 -1.47987 34.4455 15.7773 -1.47987
253 1 35.2799 14.1495 0.22702 35.2799 14.1495 0.22702
254 2 37.1223 14.1412 1.9034 37.1223 14.1412 1.9034
255 2 37.1761 14.146 -1.34135 37.1761 14.146 -1.34135
256 1 38.0928 15.7732 0.343064 38.0928 15.7732 0.343064
257 2 39.7998 15.6935 2.20167 39.7998 15.6935 2.20167
258 2 40.2002 16.0357 -1.104 40.2002 16.0357 -1.104
259 1 41.0333 14.2321 0.588564 41.0333 14.2321 0.588564
260 2 42.8436 13.892 2.28108 42.8436 13.892 2.28108
261 2 43.0281 14.4253 -0.977386 43.0281 14.4253 -0.977386
262 1 43.8428 15.8493 0.953309 43.8428 15.8493 0.953309
263 2 45.8739 15.8166 2.44429 45.8739 15.8166 2.44429
264 2 45.6255 15.8201 -0.772038 45.6255 15.8201 -0.772038
265 1 46.7416 14.1461 0.815416 46.7416 14.1461 0.815416
266 2 48.426 14.1519 2.55226 48.426 14.1519 2.55226
267 2 48.688 14.1421 -0.713255 48.688 14.1421 -0.713255
268 1 49.5124 15.8494 0.926831 49.5124 15.8494 0.926831
269 2 51.4272 15.8828 2.49818 51.4272 15.8828 2.49818
270 2 51.458 15.8172 -0.714321 51.458 15.8172 -0.714321
271 1 1.06397 17.4759 0.805685 1.06397 17.4759 0.805685
272 2 2.95832 17.5724 2.31784 2.95832 17.5724 2.31784
273 2 2.77861 17.4482 -0.967308 2.77861 17.4482 -0.967308
274 1 3.85422 19.1501 0.575375 3.85422 19.1501 0.575375
275 2 5.88644 19.1454 2.05943 5.88644 19.1454 2.05943
276 2 5.56532 18.979 -1.19325 5.56532 18.979 -1.19325
277 1 6.8204 17.468 0.526786 6.8204 17.468 0.526786
278 2 8.90857 17.5652 1.73318 8.90857 17.5652 1.73318
279 2 8.38546 17.3908 -1.43996 8.38546 17.3908 -1.43996
280 1 9.64002 19.0064 -0.118883 9.64002 19.0064 -0.118883
281 2 11.7256 18.9858 1.18875 11.7256 18.9858 1.18875
282 2 11.2243 18.9927 -2.2225 11.2243 18.9927 -2.2225
283 1 12.4869 17.3615 -0.561911 12.4869 17.3615 -0.561911
284 2 14.7266 17.4533 0.791521 14.7266 17.4533 0.791521
285 2 14.1364 17.2557 -2.48081 14.1364 17.2557 -2.48081
286 1 15.2734 19.0935 -1.1567 15.2734 19.0935 -1.1567
287 2 17.2238 19.1892 0.529841 17.2238 19.1892 0.529841
288 2 17.1921 19.1279 -2.83464 17.1921 19.1279 -2.83464
289 1 18.1248 17.4916 -1.13413 18.1248 17.4916 -1.13413
290 2 20.0368 17.491 0.478071 20.0368 17.491 0.478071
291 2 20.1147 17.3074 -2.72718 20.1147 17.3074 -2.72718
292 1 21.0023 19.1677 -1.22552 21.0023 19.1677 -1.22552
293 2 22.6071 19.1527 0.675158 22.6071 19.1527 0.675158
294 2 23.1382 19.1107 -2.52022 23.1382 19.1107 -2.52022
295 1 23.8174 17.4645 -0.740048 23.8174 17.4645 -0.740048
296 2 25.5857 17.5657 1.05525 25.5857 17.5657 1.05525
297 2 25.8518 17.377 -2.20052 25.8518 17.377 -2.20052
298 1 26.7921 19.1623 -0.670235 26.7921 19.1623 -0.670235
299 2 28.592 18.9666 1.09448 28.592 18.9666 1.09448
300 2 28.7669 19.2528 -2.18446 28.7669 19.2528 -2.18446
301 1 29.6387 17.5232 -0.59134 29.6387 17.5232 -0.59134
302 2 31.1753 17.4914 1.32433 31.1753 17.4914 1.32433
303 2 31.8087 17.5056 -1.83436 31.8087 17.5056 -1.83436
304 1 32.5054 19.1117 -0.0339921 32.5054 19.1117 -0.0339921
305 2 34.0726 18.9637 1.86954 34.0726 18.9637 1.86954
306 2 34.5265 19.1004 -1.36232 34.5265 19.1004 -1.36232
307 1 35.2079 17.4424 0.333972 35.2079 17.4424 0.333972
308 2 37.0105 17.3312 2.05076 37.0105 17.3312 2.05076
309 2 37.094 17.3955 -1.25526 37.094 17.3955 -1.25526
310 1 38.0213 19.0497 0.48818 38.0213 19.0497 0.48818
311 2 39.8026 19.0566 2.29849 39.8026 19.0566 2.29849
312 2 40.0219 19.1813 -0.950961 40.0219 19.1813 -0.950961
313 1 40.9552 17.5075 0.7214 40.9552 17.5075 0.7214
314 2 42.7892 17.6155 2.46826 42.7892 17.6155 2.46826
315 2 43.0197 17.3822 -0.90123 43.0197 17.3822 -0.90123
316 1 43.7667 19.1139 0.741183 43.7667 19.1139 0.741183
317 2 45.5545 18.9322 2.56593 45.5545 18.9322 2.56593
318 2 45.6942 19.3884 -0.785549 45.6942 19.3884 -0.785549
319 1 46.6719 17.5299 0.841831 46.6719 17.5299 0.841831
320 2 48.5551 17.4656 2.54995 48.5551 17.4656 2.54995
321 2 48.7116 17.4438 -0.712346 48.7116 17.4438 -0.712346
322 1 49.5229 19.2056 0.944584 49.5229 19.2056 0.944584
323 2 51.5285 19.0431 2.54602 51.5285 19.0431 2.54602
324 2 51.3698 19.1783 -0.681002 51.3698 19.1783 -0.681002
325 1 1.10879 20.7809 1.01097 1.10879 20.7809 1.01097
326 2 3.3691 21.0101 2.20916 3.3691 21.0101 2.20916
327 2 2.703 20.5982 -0.983437 2.703 20.5982 -0.983437
328 1 3.90823 22.3926 0.284928 3.90823 22.3926 0.284928
329 2 5.86929 22.5001 1.86578 5.86929 22.5001 1.86578
330 2 5.7067 22.3295 -1.47282 5.7067 22.3295 -1.47282
331 1 6.7439 20.753 0.242651 6.7439 20.753 0.242651
332 2 8.82638 20.6434 1.62527 8.82638 20.6434 1.62527
333 2 8.30646 20.6371 -1.64412 8.30646 20.6371 -1.64412
334 1 9.49589 22.2951 -0.175885 9.49589 22.2951 -0.175885
335 2 11.6832 22.2799 1.03813 11.6832 22.2799 1.03813
336 2 11.1104 22.3654 -2.07078 11.1104 22.3654 -2.07078
337 1 12.4161 20.6851 -0.703315 12.4161 20.6851 -0.703315
338 2 14.4463 20.5761 0.803067 14.4463 20.5761 0.803067
339 2 14.1653 20.8794 -2.51681 14.1653 20.8794 -2.51681
340 1 15.2795 22.3301 -0.81311 15.2795 22.3301 -0.81311
341 2 17.3911 22.4376 0.638318 17.3911 22.4376 0.638318
342 2 17.0088 22.3558 -2.64227 17.0088 22.3558 -2.64227
343 1 18.1448 20.7642 -1.20816 18.1448 20.7642 -1.20816
344 2 20.2153 20.8286 0.466866 20.2153 20.8286 0.466866
345 2 20.169 20.8552 -2.82482 20.169 20.8552 -2.82482
346 1 21.1195 22.4609 -1.15224 21.1195 22.4609 -1.15224
347 2 22.8041 22.401 0.71874 22.8041 22.401 0.71874
348 2 23.1683 22.3673 -2.48505 23.1683 22.3673 -2.48505
349 1 23.9454 20.747 -0.778497 23.9454 20.747 -0.778497
350 2 25.7596 20.7547 0.988937 25.7596 20.7547 0.988937
351 2 25.9629 20.7691 -2.35594 25.9629 20.7691 -2.35594
352 1 26.7765 22.3797 -0.610219 26.7765 22.3797 -0.610219
353 2 28.4605 22.2488 1.23976 28.4605 22.2488 1.23976
354 2 28.8578 22.5415 -1.87779 28.8578 22.5415 -1.87779
355 1 29.6755 20.7295 -0.330394 29.6755 20.7295 -0.330394
356 2 31.276 20.5553 1.52282 31.276 20.5553 1.52282
357 2 31.8614 20.9161 -1.65749 31.8614 20.9161 -1.65749
358 1 32.4548 22.4363 0.251052 32.4548 22.4363 0.251052
359 2 34.0935 22.2336 2.06213 34.0935 22.2336 2.06213
360 2 34.6601 22.4463 -1.14483 34.6601 22.4463 -1.14483
361 1 35.3284 20.7451 0.468719 35.3284 20.7451 0.468719
362 2 37.1625 20.6546 2.23129 37.1625 20.6546 2.23129
363 2 37.2181 20.7527 -1.16232 37.2181 20.7527 -1.16232
364 1 38.1077 22.4054 0.606664 38.1077 22.4054 0.606664
365 2 40.0468 22.5301 2.31665 40.0468 22.5301 2.31665
366 2 39.964 22.2753 -1.02141 39.964 22.2753 -1.02141
367 1 40.896 20.7426 0.805299 40.896 20.7426 0.805299
368 2 42.9566 20.7774 2.32953 42.9566 20.7774 2.32953
369 2 42.7682 20.7216 -0.899978 42.7682 20.7216 -0.899978
370 1 43.7828 22.4894 0.704981 43.7828 22.4894 0.704981
371 2 45.6965 22.7857 2.3496 45.6965 22.7857 2.3496
372 2 45.6667 22.3164 -0.796863 45.6667 22.3164 -0.796863
373 1 46.6654 20.8312 1.02635 46.6654 20.8312 1.02635
374 2 48.8936 20.8999 2.49949 48.8936 20.8999 2.49949
375 2 48.5901 20.7551 -0.762193 48.5901 20.7551 -0.762193
376 1 49.6177 22.4512 0.713313 49.6177 22.4512 0.713313
377 2 51.6644 22.7872 2.23526 51.6644 22.7872 2.23526
378 2 51.5244 22.1109 -0.9049 51.5244 22.1109 -0.9049
379 1 1.03114 24.107 0.329655 1.03114 24.107 0.329655
380 2 2.93801 24.1298 1.84563 2.93801 24.1298 1.84563
381 2 2.8891 23.9414 -1.39818 2.8891 23.9414 -1.39818
382 1 3.83091 25.6414 0.0363857 3.83091 25.6414 0.0363857
383 2 5.78025 25.8246 1.50053 5.78025 25.8246 1.50053
384 2 5.69644 25.6298 -1.5992 5.69644 25.6298 -1.5992
385 1 6.74885 24.0568 0.0146673 6.74885 24.0568 0.0146673
386 2 8.81522 24.1152 1.35313 8.81522 24.1152 1.35313
387 2 8.39947 23.8523 -1.85448 8.39947 23.8523 -1.85448
388 1 9.59663 25.6095 -0.487867 9.59663 25.6095 -0.487867
389 2 11.6731 25.6851 0.944556 11.6731 25.6851 0.944556
390 2 11.2244 25.4108 -2.30457 11.2244 25.4108 -2.30457
391 1 12.4009 23.9361 -0.696267 12.4009 23.9361 -0.696267
392 2 14.3512 24.1765 0.780563 14.3512 24.1765 0.780563
393 2 14.2668 23.8997 -2.51685 14.2668 23.8997 -2.51685
394 1 15.2253 25.6478 -1.03306 15.2253 25.6478 -1.03306
395 2 17.1196 25.5428 0.644601 17.1196 25.5428 0.644601
396 2 17.0679 25.7588 -2.62153 17.0679 25.7588 -2.62153
397 1 18.1667 24.056 -1.11308 18.1667 24.056 -1.11308
398 2 20.0659 23.9922 0.526599 20.0659 23.9922 0.526599
399 2 20.0488 24.098 -2.78136 20.0488 24.098 -2.78136
400 1 21.0278 25.7014 -1.06753 21.0278 25.7014 -1.06753
401 2 22.7696 25.7096 0.696149 22.7696 25.7096 0.696149
402 2 22.9516 25.5691 -2.61867 22.9516 25.5691 -2.61867
403 1 23.8141 24.0383 -0.801232 23.8141 24.0383 -0.801232
404 2 25.6117 24.0015 1.00517 25.6117 24.0015 1.00517
405 2 25.9284 24.1053 -2.28388 25.9284 24.1053 -2.28388
406 1 26.6485 25.7426 -0.446719 26.6485 25.7426 -0.446719
407 2 28.2199 25.6339 1.44861 28.2199 25.6339 1.44861
408 2 28.7871 25.8681 -1.74726 28.7871 25.8681 -1.74726
409 1 29.6246 24.1197 -0.121371 29.6246 24.1197 -0.121371
410 2 31.1826 23.9421 1.77326 31.1826 23.9421 1.77326
411 2 31.771 24.1539 -1.43223 31.771 24.1539 -1.43223
412 1 32.3556 25.6897 0.389531 32.3556 25.6897 0.389531
413 2 34.1616 25.8541 2.07215 34.1616 25.8541 2.07215
414 2 34.386 25.739 -1.19621 34.386 25.739 -1.19621
415 1 35.2809 24.059 0.567037 35.2809 24.059 0.567037
416 2 37.2492 24.1225 2.15372 37.2492 24.1225 2.15372
417 2 37.1798 24.1044 -0.996183 37.1798 24.1044 -0.996183
418 1 38.0289 25.8147 0.573963 38.0289 25.8147 0.573963
419 2 40.1115 25.8971 2.04703 40.1115 25.8971 2.04703
420 2 39.8696 25.6598 -1.14738 39.8696 25.6598 -1.14738
421 1 40.9142 24.0778 0.516771 40.9142 24.0778 0.516771
422 2 42.7032 24.3521 2.15075 42.7032 24.3521 2.15075
423 2 42.8404 23.9981 -1.05923 42.8404 23.9981 -1.05923
424 1 43.763 25.7545 0.449488 43.763 25.7545 0.449488
425 2 45.7399 25.8993 2.07998 45.7399 25.8993 2.07998
426 2 45.6594 25.6785 -1.10671 45.6594 25.6785 -1.10671
427 1 46.692 24.1423 0.574413 46.692 24.1423 0.574413
428 2 48.701 24.2951 2.05356 48.701 24.2951 2.05356
429 2 48.5461 23.8035 -1.13276 48.5461 23.8035 -1.13276
430 1 49.433 25.778 0.231899 49.433 25.778 0.231899
431 2 51.3919 25.7778 1.84705 51.3919 25.7778 1.84705
432 2 51.364 25.6155 -1.37491 51.364 25.6155 -1.37491
433 1 1.01309 27.4561 0.131709 1.01309 27.4561 0.131709
434 2 2.97781 27.4658 1.70141 2.97781 27.4658 1.70141
435 2 2.80872 27.2357 -1.55714 2.80872 27.2357 -1.55714
436 1 3.89614 28.9841 0.00994418 3.89614 28.9841 0.00994418
437 2 5.8901 29.0846 1.40663 5.8901 29.0846 1.40663
438 2 5.6622 28.779 -1.91437 5.6622 28.779 -1.91437
439 1 6.69218 27.2971 -0.140207 6.69218 27.2971 -0.140207
440 2 8.75716 27.2638 1.24976 8.75716 27.2638 1.24976
441 2 8.45428 27.2356 -2.08975 8.45428 27.2356 -2.08975
442 1 9.57356 28.8846 -0.603455 9.57356 28.8846 -0.603455
443 2 11.7145 28.9772 0.722398 11.7145 28.9772 0.722398
444 2 11.213 28.7558 -2.47861 11.213 28.7558 -2.47861
445 1 12.3815 27.2318 -0.872315 12.3815 27.2318 -0.872315
446 2 14.4447 27.3937 0.640218 14.4447 27.3937 0.640218
447 2 14.1077 27.1942 -2.56875 14.1077 27.1942 -2.56875
448 1 15.2438 29.0241 -1.17878 15.2438 29.0241 -1.17878
449 2 16.9572 29.097 0.545017 16.9572 29.097 0.545017
450 2 17.2951 28.8889 -2.63536 17.2951 28.8889 -2.63536
451 1 18.0538 27.3281 -0.916383 18.0538 27.3281 -0.916383
452 2 20.2051 27.4357 0.531452 20.2051 27.4357 0.531452
453 2 19.9669 27.3063 -2.67812 19.9669 27.3063 -2.67812
454 1 21.0472 28.9915 -1.16313 21.0472 28.9915 -1.16313
455 2 22.8033 28.9088 0.572903 22.8033 28.9088 0.572903
456 2 22.9778 29.0978 -2.64375 22.9778 29.0978 -2.64375
457 1 23.8803 27.296 -0.979249 23.8803 27.296 -0.979249
458 2 25.5158 27.4651 0.927525 25.5158 27.4651 0.927525
459 2 26.0273 27.2374 -2.34292 26.0273 27.2374 -2.34292
460 1 26.6052 28.9832 -0.639465 26.6052 28.9832 -0.639465
461 2 28.0956 29.0907 1.43853 28.0956 29.0907 1.43853
462 2 28.7985 29.0355 -1.80569 28.7985 29.0355 -1.80569
463 1 29.3624 27.4452 0.12759 29.3624 27.4452 0.12759
464 2 31.2707 27.4049 1.92235 31.2707 27.4049 1.92235
465 2 31.4517 27.2954 -1.37496 31.4517 27.2954 -1.37496
466 1 32.3195 29.0186 0.318511 32.3195 29.0186 0.318511
467 2 34.2789 29.0774 2.03203 34.2789 29.0774 2.03203
468 2 34.1615 28.9021 -1.32881 34.1615 28.9021 -1.32881
469 1 35.2247 27.3959 0.449458 35.2247 27.3959 0.449458
470 2 37.109 27.6507 2.03183 37.109 27.6507 2.03183
471 2 37.0171 27.4058 -1.20367 37.0171 27.4058 -1.20367
472 1 38.0696 29.0887 0.26837 38.0696 29.0887 0.26837
473 2 39.9516 29.1417 1.90934 39.9516 29.1417 1.90934
474 2 40.0721 28.8864 -1.41499 40.0721 28.8864 -1.41499
475 1 40.9664 27.4666 0.333342 40.9664 27.4666 0.333342
476 2 42.8806 27.5425 1.95859 42.8806 27.5425 1.95859
477 2 42.8452 27.1966 -1.37012 42.8452 27.1966 -1.37012
478 1 43.872 29.0289 0.125841 43.872 29.0289 0.125841
479 2 45.7159 29.255 1.76365 45.7159 29.255 1.76365
480 2 45.6847 28.8311 -1.56356 45.6847 28.8311 -1.56356
481 1 46.704 27.4348 0.35274 46.704 27.4348 0.35274
482 2 48.6172 27.5025 1.81451 48.6172 27.5025 1.81451
483 2 48.399 27.262 -1.42354 48.399 27.262 -1.42354
484 1 49.488 29.0304 0.0885187 49.488 29.0304 0.0885187
485 2 51.4992 29.2757 1.59448 51.4992 29.2757 1.59448
486 2 51.3571 28.8926 -1.62381 51.3571 28.8926 -1.62381
487 1 1.07644 30.6729 -0.204562 1.07644 30.6729 -0.204562
488 2 3.08808 30.9098 1.36456 3.08808 30.9098 1.36456
489 2 2.88179 30.307 -1.84323 2.88179 30.307 -1.84323
490 1 3.87995 32.2951 -0.607536 3.87995 32.2951 -0.607536
491 2 5.79773 32.4472 1.07407 5.79773 32.4472 1.07407
492 2 5.73128 31.963 -2.26834 5.73128 31.963 -2.26834
493 1 6.69969 30.5946 -0.422984 6.69969 30.5946 -0.422984
494 2 8.8337 30.8326 0.975934 8.8337 30.8326 0.975934
495 2 8.37545 30.3544 -2.24066 8.37545 30.3544 -2.24066
496 1 9.50503 32.233 -1.01029 9.50503 32.233 -1.01029
497 2 11.6829 32.2671 0.400061 11.6829 32.2671 0.400061
498 2 11.2602 32.1322 -2.80372 11.2602 32.1322 -2.80372
499 1 12.4011 30.5665 -1.1995 12.4011 30.5665 -1.1995
500 2 14.3752 30.6478 0.402659 14.3752 30.6478 0.402659
501 2 14.2652 30.6072 -2.8727 14.2652 30.6072 -2.8727
502 1 15.2238 32.3045 -1.31162 15.2238 32.3045 -1.31162
503 2 17.0548 32.3482 0.385506 17.0548 32.3482 0.385506
504 2 17.2475 32.2867 -2.81329 17.2475 32.2867 -2.81329
505 1 18.0919 30.637 -1.08709 18.0919 30.637 -1.08709
506 2 20.0027 30.5993 0.543495 20.0027 30.5993 0.543495
507 2 19.9246 30.6944 -2.79725 19.9246 30.6944 -2.79725
508 1 20.8734 32.254 -1.04522 20.8734 32.254 -1.04522
509 2 22.8021 32.3996 0.568042 22.8021 32.3996 0.568042
510 2 22.8724 32.2335 -2.66646 22.8724 32.2335 -2.66646
511 1 23.8901 30.6465 -0.967759 23.8901 30.6465 -0.967759
512 2 25.4879 30.6034 0.890161 25.4879 30.6034 0.890161
513 2 25.8429 30.6229 -2.35535 25.8429 30.6229 -2.35535
514 1 26.7017 32.2049 -0.612639 26.7017 32.2049 -0.612639
515 2 28.419 32.627 1.13158 28.419 32.627 1.13158
516 2 28.7784 32.0764 -2.00458 28.7784 32.0764 -2.00458
517 1 29.4833 30.7079 -0.00397188 29.4833 30.7079 -0.00397188
518 2 31.3659 30.7431 1.72992 31.3659 30.7431 1.72992
519 2 31.4272 30.4925 -1.47046 31.4272 30.4925 -1.47046
520 1 32.3551 32.2223 0.0376001 32.3551 32.2223 0.0376001
521 2 34.3046 32.6334 1.5619 34.3046 32.6334 1.5619
522 2 34.2685 32.0476 -1.63616 34.2685 32.0476 -1.63616
523 1 35.2396 30.6856 0.227528 35.2396 30.6856 0.227528
524 2 37.2178 30.9668 1.72613 37.2178 30.9668 1.72613
525 2 37.0189 30.552 -1.44568 37.0189 30.552 -1.44568
526 1 38.216 32.2976 -0.176099 38.216 32.2976 -0.176099
527 2 40.1265 32.5903 1.42274 40.1265 32.5903 1.42274
528 2 39.9956 31.9948 -1.79581 39.9956 31.9948 -1.79581
529 1 41.0342 30.6544 0.0684573 41.0342 30.6544 0.0684573
530 2 42.9082 30.8585 1.52068 42.9082 30.8585 1.52068
531 2 42.8645 30.3076 -1.67375 42.8645 30.3076 -1.67375
532 1 43.8023 32.2901 -0.358255 43.8023 32.2901 -0.358255
533 2 45.5835 32.3985 1.36494 45.5835 32.3985 1.36494
534 2 45.7696 32.2964 -1.86551 45.7696 32.2964 -1.86551
535 1 46.6489 30.67 -0.167889 46.6489 30.67 -0.167889
536 2 48.4891 30.7587 1.60893 48.4891 30.7587 1.60893
537 2 48.6756 30.644 -1.70873 48.6756 30.644 -1.70873
538 1 49.5046 32.3724 -0.11791 49.5046 32.3724 -0.11791
539 2 51.5413 32.4597 1.36083 51.5413 32.4597 1.36083