ITEM: TIMESTEP
19700
ITEM: NUMBER OF ATOMS
810
ITEM: BOX BOUNDS pp pp pp
8.4137701477268123e-01 5.2176227985227342e+01
8.0961581116522285e-01 5.0206599188834083e+01
-1.0000000000000000e+01 1.0000000000000000e+01
ITEM: ATOMS id type x y z xu yu zu
1 1 0.992948 1.04086 0.287503 0.992948 1.04086 0.287503
2 2 2.7875 0.761552 2.03292 2.7875 0.761552 2.03292
3 2 2.94405 1.1376 -1.25682 2.94405 1.1376 -1.25682
4 1 3.91365 2.63323 0.614929 3.91365 2.63323 0.614929
5 2 5.91854 2.60546 2.0626 5.91854 2.60546 2.0626
6 2 5.65511 2.66138 -1.09499 5.65511 2.66138 -1.09499
7 1 6.67118 0.930996 0.341057 6.67118 0.930996 0.341057
8 2 8.8119 0.821892 1.66938 8.8119 0.821892 1.66938
9 2 8.29697 1.05175 -1.64931 8.29697 1.05175 -1.64931
10 1 9.55953 2.5379 -0.0579622 9.55953 2.5379 -0.0579622
11 2 11.541 2.44076 1.45417 11.541 2.44076 1.45417
12 2 11.4188 2.91643 -1.74024 11.4188 2.91643 -1.74024
13 1 12.3839 1.04632 -0.457954 12.3839 1.04632 -0.457954
14 2 14.2776 0.925464 1.29087 14.2776 0.925464 1.29087
15 2 14.4554 1.11482 -1.95395 14.4554 1.11482 -1.95395
16 1 15.2519 2.62855 -0.215641 15.2519 2.62855 -0.215641
17 2 17.1676 2.49743 1.37664 17.1676 2.49743 1.37664
18 2 17.1174 2.79383 -1.90156 17.1174 2.79383 -1.90156
19 1 18.0823 1.04901 -0.41755 18.0823 1.04901 -0.41755
20 2 19.9437 1.02947 1.30059 19.9437 1.02947 1.30059
21 2 20.0661 0.903749 -1.94969 20.0661 0.903749 -1.94969
22 1 21.0177 2.6002 -0.253931 21.0177 2.6002 -0.253931
23 2 23.0312 2.55924 1.17269 23.0312 2.55924 1.17269
24 2 22.8305 2.67819 -2.12932 22.8305 2.67819 -2.12932
25 1 23.8511 0.964166 -0.558946 23.8511 0.964166 -0.558946
26 2 25.7647 0.92546 0.996652 25.7647 0.92546 0.996652
27 2 25.5988 0.94849 -2.27013 25.5988 0.94849 -2.27013
28 1 26.6957 2.60935 -0.735811 26.6957 2.60935 -0.735811
29 2 28.5437 2.49064 0.945943 28.5437 2.49064 0.945943
30 2 28.5933 2.8125 -2.33437 28.5933 2.8125 -2.33437
31 1 29.517 1.07245 -0.734425 29.517 1.07245 -0.734425
32 2 31.3094 0.973282 1.09011 31.3094 0.973282 1.09011
33 2 31.6054 1.21903 -2.17565 31.6054 1.21903 -2.17565
34 1 32.3856 2.80057 -0.375702 32.3856 2.80057 -0.375702
35 2 34.3884 2.70406 1.278 34.3884 2.70406 1.278
36 2 34.3592 2.89336 -1.99795 34.3592 2.89336 -1.99795
37 1 35.2281 1.04413 -0.548481 35.2281 1.04413 -0.548481
38 2 36.997 50.4248 1.27927 36.997 1.02784 1.27927
39 2 37.3385 1.13989 -1.97613 37.3385 1.13989 -1.97613
40 1 37.9736 2.80245 -0.246096 37.9736 2.80245 -0.246096
41 2 39.7297 2.74217 1.55279 39.7297 2.74217 1.55279
42 2 40.024 2.85593 -1.78392 40.024 2.85593 -1.78392
43 1 40.8435 1.15626 -0.171843 40.8435 1.15626 -0.171843
44 2 42.6624 0.965613 1.64743 42.6624 0.965613 1.64743
45 2 42.8724 1.11828 -1.63117 42.8724 1.11828 -1.63117
46 1 43.7469 2.67865 0.241541 43.7469 2.67865 0.241541
47 2 45.6282 2.43887 1.9229 45.6282 2.43887 1.9229
48 2 45.6872 2.95607 -1.39485 45.6872 2.95607 -1.39485
49 1 46.6837 0.989375 -0.0318781 46.6837 0.989375 -0.0318781
50 2 48.3367 0.983712 1.7498 48.3367 0.983712 1.7498
51 2 48.6501 1.0332 -1.47264 48.6501 1.0332 -1.47264
52 1 49.4639 2.71305 0.203934 49.4639 2.71305 0.203934
53 2 51.2384 2.61197 1.95074 51.2384 2.61197 1.95074
54 2 51.4963 2.71179 -1.322 51.4963 2.71179 -1.322
55 1 1.05752 4.4309 0.499054 1.05752 4.4309 0.499054
56 2 2.83851 4.25203 2.22352 2.83851 4.25203 2.22352
57 2 3.07831 4.25188 -1.0778 3.07831 4.25188 -1.0778
58 1 3.88171 5.95533 0.633493 3.88171 5.95533 0.633493
59 2 6.01595 6.06261 1.97468 6.01595 6.06261 1.97468
60 2 5.53638 5.93579 -1.24505 5.53638 5.93579 -1.24505
61 1 6.74992 4.30097 0.332398 6.74992 4.30097 0.332398
62 2 8.79838 4.12572 1.72159 8.79838 4.12572 1.72159
63 2 8.44784 4.28984 -1.47791 8.44784 4.28984 -1.47791
64 1 9.57915 6.00765 0.148045 9.57915 6.00765 0.148045
65 2 11.4361 5.99925 1.77981 11.4361 5.99925 1.77981
66 2 11.4589 5.95598 -1.45714 11.4589 5.95598 -1.45714
67 1 12.4712 4.34207 0.130087 12.4712 4.34207 0.130087
68 2 14.4072 4.09784 1.6376 14.4072 4.09784 1.6376
69 2 14.1793 4.49197 -1.57677 14.1793 4.49197 -1.57677
70 1 15.2624 5.91929 0.152733 15.2624 5.91929 0.152733
71 2 17.1829 5.65248 1.6921 17.1829 5.65248 1.6921
72 2 17.1994 6.164 -1.54477 17.1994 6.164 -1.54477
73 1 18.082 4.30012 -0.154327 18.082 4.30012 -0.154327
74 2 20.062 4.31577 1.45871 20.062 4.31577 1.45871
75 2 19.9535 4.26285 -1.92051 19.9535 4.26285 -1.92051
76 1 20.9992 5.87301 -0.314708 20.9992 5.87301 -0.314708
77 2 22.9853 6.0025 1.19336 22.9853 6.0025 1.19336
78 2 22.8007 5.90662 -2.15751 22.8007 5.90662 -2.15751
79 1 23.8203 4.31186 -0.474833 23.8203 4.31186 -0.474833
80 2 25.7564 4.18156 1.08834 25.7564 4.18156 1.08834
81 2 25.6164 4.46866 -2.12687 25.6164 4.46866 -2.12687
82 1 26.6344 5.9748 -0.562168 26.6344 5.9748 -0.562168
83 2 28.6161 5.90962 1.0421 28.6161 5.90962 1.0421
84 2 28.5979 5.92478 -2.17864 28.5979 5.92478 -2.17864
85 1 29.4329 4.31217 -0.570309 29.4329 4.31217 -0.570309
86 2 31.0846 4.28781 1.24622 31.0846 4.28781 1.24622
87 2 31.5358 4.42482 -1.91832 31.5358 4.42482 -1.91832
88 1 32.3014 5.97287 -0.232227 32.3014 5.97287 -0.232227
89 2 34.1196 5.99173 1.46118 34.1196 5.99173 1.46118
90 2 34.3404 6.10098 -1.83591 34.3404 6.10098 -1.83591
91 1 35.2302 4.43983 -0.286695 35.2302 4.43983 -0.286695
92 2 37.038 4.32658 1.48787 37.038 4.32658 1.48787
93 2 37.2337 4.61068 -1.77028 37.2337 4.61068 -1.77028
94 1 38.1593 6.11464 0.100883 38.1593 6.11464 0.100883
95 2 40.0474 6.09326 1.73655 40.0474 6.09326 1.73655
96 2 40.0821 6.20776 -1.5141 40.0821 6.20776 -1.5141
97 1 40.9349 4.44662 -0.0459401 40.9349 4.44662 -0.0459401
98 2 42.5737 4.24817 1.84148 42.5737 4.24817 1.84148
99 2 42.9564 4.50594 -1.43975 42.9564 4.50594 -1.43975
100 1 43.7642 6.04473 0.459952 43.7642 6.04473 0.459952
101 2 45.6465 5.92724 2.10914 45.6465 5.92724 2.10914
102 2 45.6435 5.90803 -1.15338 45.6435 5.90803 -1.15338
103 1 46.5907 4.27678 0.523848 46.5907 4.27678 0.523848
104 2 48.6531 4.12633 2.00045 48.6531 4.12633 2.00045
105 2 48.4227 4.50617 -1.29007 48.4227 4.50617 -1.29007
106 1 49.552 5.97301 0.496842 49.552 5.97301 0.496842
107 2 51.3183 5.76968 2.19473 51.3183 5.76968 2.19473
108 2 51.5947 6.11566 -1.02808 51.5947 6.11566 -1.02808
109 1 0.993848 7.59041 0.996814 0.993848 7.59041 0.996814
110 2 3.10469 7.7506 2.38438 3.10469 7.7506 2.38438
111 2 2.69745 7.53698 -0.818791 2.69745 7.53698 -0.818791
112 1 3.81135 9.28336 0.590177 3.81135 9.28336 0.590177
113 2 5.98553 9.30912 1.95553 5.98553 9.30912 1.95553
114 2 5.59134 9.47183 -1.20889 5.59134 9.47183 -1.20889
115 1 6.68352 7.60163 0.158983 6.68352 7.60163 0.158983
116 2 8.72317 7.81111 1.6332 8.72317 7.81111 1.6332
117 2 8.46752 7.58597 -1.54225 8.46752 7.58597 -1.54225
118 1 9.55578 9.36773 -0.00798268 9.55578 9.36773 -0.00798268
119 2 11.3895 9.37375 1.76262 11.3895 9.37375 1.76262
120 2 11.5432 9.27414 -1.57916 11.5432 9.27414 -1.57916
121 1 12.4176 7.61199 0.139908 12.4176 7.61199 0.139908
122 2 14.2878 7.68563 1.75883 14.2878 7.68563 1.75883
123 2 14.3972 7.59941 -1.57349 14.3972 7.59941 -1.57349
124 1 15.3019 9.28717 0.017669 15.3019 9.28717 0.017669
125 2 17.3285 9.48339 1.61059 17.3285 9.48339 1.61059
126 2 17.1617 9.08386 -1.63514 17.1617 9.08386 -1.63514
127 1 18.2271 7.64641 0.17445 18.2271 7.64641 0.17445
128 2 20.37 7.66419 1.40832 20.37 7.66419 1.40832
129 2 19.7682 7.44773 -1.76869 19.7682 7.44773 -1.76869
130 1 20.9153 9.26936 -0.466546 20.9153 9.26936 -0.466546
131 2 22.89 9.32269 1.12813 22.89 9.32269 1.12813
132 2 22.8273 9.27125 -2.15004 22.8273 9.27125 -2.15004
133 1 23.8158 7.67174 -0.546327 23.8158 7.67174 -0.546327
134 2 25.6061 7.52503 1.16687 25.6061 7.52503 1.16687
135 2 25.863 7.609 -2.17747 25.863 7.609 -2.17747
136 1 26.6768 9.24586 -0.368563 26.6768 9.24586 -0.368563
137 2 28.5804 9.23316 1.11521 28.5804 9.23316 1.11521
138 2 28.4874 9.30108 -2.11528 28.4874 9.30108 -2.11528
139 1 29.4927 7.641 -0.523368 29.4927 7.641 -0.523368
140 2 31.1798 7.40426 1.28087 31.1798 7.40426 1.28087
141 2 31.5181 7.64808 -1.97668 31.5181 7.64808 -1.97668
142 1 32.3672 9.19729 -0.149683 32.3672 9.19729 -0.149683
143 2 34.1927 9.08941 1.65696 34.1927 9.08941 1.65696
144 2 34.338 9.35799 -1.59446 34.338 9.35799 -1.59446
145 1 35.1948 7.61847 -0.00962261 35.1948 7.61847 -0.00962261
146 2 36.9338 7.54082 1.70077 36.9338 7.54082 1.70077
147 2 37.308 7.81281 -1.38972 37.308 7.81281 -1.38972
148 1 38.0643 9.33359 0.34909 38.0643 9.33359 0.34909
149 2 39.9453 9.20896 1.91964 39.9453 9.20896 1.91964
150 2 39.9143 9.39106 -1.33944 39.9143 9.39106 -1.33944
151 1 40.9925 7.69348 0.15717 40.9925 7.69348 0.15717
152 2 42.4948 7.51058 2.10199 42.4948 7.51058 2.10199
153 2 43.1827 7.89497 -1.06684 43.1827 7.89497 -1.06684
154 1 43.7856 9.27261 0.842123 43.7856 9.27261 0.842123
155 2 45.8143 9.07044 2.42035 45.8143 9.07044 2.42035
156 2 45.6876 9.49801 -0.874317 45.6876 9.49801 -0.874317
157 1 46.5875 7.57085 0.469959 46.5875 7.57085 0.469959
158 2 48.4161 7.44978 2.1917 48.4161 7.44978 2.1917
159 2 48.566 7.77156 -1.0387 48.566 7.77156 -1.0387
160 1 49.443 9.23491 0.81401 49.443 9.23491 0.81401
161 2 51.3774 9.30613 2.42407 51.3774 9.30613 2.42407
162 2 51.3432 9.06239 -0.804969 51.3432 9.06239 -0.804969
163 1 0.958725 10.8756 0.649851 0.958725 10.8756 0.649851
164 2 2.90041 11.0164 2.20907 2.90041 11.0164 2.20907
165 2 2.78111 10.8563 -1.06232 2.78111 10.8563 -1.06232
166 1 3.77624 12.6984 0.460856 3.77624 12.6984 0.460856
167 2 5.82739 12.8224 1.93983 5.82739 12.8224 1.93983
168 2 5.45299 12.5436 -1.38035 5.45299 12.5436 -1.38035
169 1 6.7072 10.9853 0.294187 6.7072 10.9853 0.294187
170 2 8.775 11.0107 1.68947 8.775 11.0107 1.68947
171 2 8.38682 10.9269 -1.50694 8.38682 10.9269 -1.50694
172 1 9.56582 12.6804 -0.0334558 9.56582 12.6804 -0.0334558
173 2 11.5422 12.9263 1.4704 11.5422 12.9263 1.4704
174 2 11.3521 12.2958 -1.69995 11.3521 12.2958 -1.69995
175 1 12.3529 10.9687 0.126147 12.3529 10.9687 0.126147
176 2 14.4154 11.0551 1.53878 14.4154 11.0551 1.53878
177 2 14.2155 10.7403 -1.71934 14.2155 10.7403 -1.71934
178 1 15.2533 12.4611 -0.338845 15.2533 12.4611 -0.338845
179 2 17.1079 12.6254 1.31077 17.1079 12.6254 1.31077
180 2 17.2959 12.5423 -1.8716 17.2959 12.5423 -1.8716
181 1 18.1984 10.9204 -0.304345 18.1984 10.9204 -0.304345
182 2 20.0782 10.7771 1.30388 20.0782 10.7771 1.30388
183 2 20.0217 10.9685 -1.89481 20.0217 10.9685 -1.89481
184 1 20.9586 12.5363 -0.134701 20.9586 12.5363 -0.134701
185 2 23.0066 12.3582 1.19698 23.0066 12.3582 1.19698
186 2 22.787 12.7212 -1.94624 22.787 12.7212 -1.94624
187 1 23.8182 10.9194 -0.596172 23.8182 10.9194 -0.596172
188 2 25.6645 10.9764 1.13822 25.6645 10.9764 1.13822
189 2 25.7764 10.8259 -2.13282 25.7764 10.8259 -2.13282
190 1 26.6256 12.5568 -0.502432 26.6256 12.5568 -0.502432
191 2 28.4781 12.5768 1.18671 28.4781 12.5768 1.18671
192 2 28.5296 12.422 -2.06043 28.5296 12.422 -2.06043
193 1 29.4791 10.9249 -0.393428 29.4791 10.9249 -0.393428
194 2 31.2233 10.8635 1.37918 31.2233 10.8635 1.37918
195 2 31.5731 10.9716 -1.79864 31.5731 10.9716 -1.79864
196 1 32.3225 12.5234 -0.0560343 32.3225 12.5234 -0.0560343
197 2 34.0671 12.68 1.73998 34.0671 12.68 1.73998
198 2 34.3374 12.5176 -1.58524 34.3374 12.5176 -1.58524
199 1 35.156 11.0047 0.234507 35.156 11.0047 0.234507
200 2 37.1797 11.077 1.84911 37.1797 11.077 1.84911
201 2 37.0255 10.918 -1.42768 37.0255 10.918 -1.42768
202 1 38.1295 12.6436 0.0588132 38.1295 12.6436 0.0588132
203 2 39.8226 12.6166 1.92027 39.8226 12.6166 1.92027
204 2 40.2723 12.558 -1.31691 40.2723 12.558 -1.31691
205 1 40.9676 10.9693 0.37707 40.9676 10.9693 0.37707
206 2 42.4696 10.877 2.29998 42.4696 10.877 2.29998
207 2 43.061 10.991 -0.929613 43.061 10.991 -0.929613
208 1 43.8358 12.5606 0.896798 43.8358 12.5606 0.896798
209 2 45.7848 12.5503 2.67746 45.7848 12.5503 2.67746
210 2 45.7128 12.6731 -0.765157 45.7128 12.6731 -0.765157
211 1 46.6934 11.0178 0.957098 46.6934 11.0178 0.957098
212 2 48.6025 10.9614 2.51073 48.6025 10.9614 2.51073
213 2 48.5457 11.0145 -0.814885 48.5457 11.0145 -0.814885
214 1 49.4789 12.6098 0.907415 49.4789 12.6098 0.907415
215 2 51.5432 12.5984 2.31432 51.5432 12.5984 2.31432
216 2 51.3315 12.5515 -0.890172 51.3315 12.5515 -0.890172
217 1 0.904694 14.2595 0.637323 0.904694 14.2595 0.637323
218 2 3.01518 14.4585 2.04151 3.01518 14.4585 2.04151
219 2 2.54672 14.2185 -1.19432 2.54672 14.2185 -1.19432
220 1 3.79106 15.8945 0.140189 3.79106 15.8945 0.140189
221 2 5.77369 15.9226 1.63464 5.77369 15.9226 1.63464
222 2 5.58413 15.8341 -1.64801 5.58413 15.8341 -1.64801
223 1 6.71253 14.2576 0.025769 6.71253 14.2576 0.025769
224 2 8.73307 14.3894 1.52953 8.73307 14.3894 1.52953
225 2 8.55425 13.9886 -1.70789 8.55425 13.9886 -1.70789
226 1 9.4306 15.8828 -0.284295 9.4306 15.8828 -0.284295
227 2 11.4186 15.9429 1.30568 11.4186 15.9429 1.30568
228 2 11.3639 15.9294 -2.01271 11.3639 15.9294 -2.01271
229 1 12.3654 14.2595 -0.502809 12.3654 14.2595 -0.502809
230 2 14.1366 14.0283 1.19049 14.1366 14.0283 1.19049
231 2 14.3255 14.1891 -1.9735 14.3255 14.1891 -1.9735
232 1 15.2069 15.855 -0.308113 15.2069 15.855 -0.308113
233 2 17.2165 15.9059 1.33283 17.2165 15.9059 1.33283
234 2 17.0815 15.7994 -1.88684 17.0815 15.7994 -1.88684
235 1 18.143 14.2371 -0.208903 18.143 14.2371 -0.208903
236 2 20.0222 14.1982 1.5055 20.0222 14.1982 1.5055
237 2 20.0304 14.1655 -1.80018 20.0304 14.1655 -1.80018
238 1 20.9655 15.9305 -0.254719 20.9655 15.9305 -0.254719
239 2 22.8271 15.8614 1.38917 22.8271 15.8614 1.38917
240 2 22.7841 15.8295 -1.90411 22.7841 15.8295 -1.90411
241 1 23.7806 14.1802 -0.2032 23.7806 14.1802 -0.2032
242 2 25.8388 14.1139 1.22392 25.8388 14.1139 1.22392
243 2 25.5709 14.1283 -2.0582 25.5709 14.1283 -2.0582
244 1 26.5876 15.7733 -0.531996 26.5876 15.7733 -0.531996
245 2 28.5273 15.8314 1.05302 28.5273 15.8314 1.05302
246 2 28.4292 15.615 -2.25381 28.4292 15.615 -2.25381
247 1 29.4708 14.1272 -0.521241 29.4708 14.1272 -0.521241
248 2 31.176 14.3051 1.32788 31.176 14.3051 1.32788
249 2 31.5542 14.0526 -1.93526 31.5542 14.0526 -1.93526
250 1 32.3229 15.778 -0.366527 32.3229 15.778 -0.366527
251 2 34.0112 16.0207 1.51073 34.0112 16.0207 1.51073
252 2 34.3785 15.8388 -1.80665 34.3785 15.8388 -1.80665
253 1 35.2067 14.2523 0.0969166 35.2067 14.2523 0.0969166
254 2 37.1109 14.2989 1.69305 37.1109 14.2989 1.69305
255 2 37.0724 14.1728 -1.61547 37.0724 14.1728 -1.61547
256 1 38.0577 15.8034 -0.0259074 38.0577 15.8034 -0.0259074
257 2 39.7821 15.8804 1.90472 39.7821 15.8804 1.90472
258 2 40.0203 15.8218 -1.48154 40.0203 15.8218 -1.48154
259 1 40.9367 14.2936 0.356356 40.9367 14.2936 0.356356
260 2 42.7123 14.4114 2.21985 42.7123 14.4114 2.21985
261 2 43.0302 14.0879 -0.974031 43.0302 14.0879 -0.974031
262 1 43.7774 15.9226 0.558423 43.7774 15.9226 0.558423
263 2 45.4961 16.1967 2.2881 45.4961 16.1967 2.2881
264 2 45.831 15.6757 -0.916324 45.831 15.6757 -0.916324
265 1 46.589 14.2907 1.01251 46.589 14.2907 1.01251
266 2 48.5064 14.2789 2.48857 48.5064 14.2789 2.48857
267 2 48.518 14.124 -0.791404 48.518 14.124 -0.791404
268 1 49.4214 15.8418 0.79896 49.4214 15.8418 0.79896
269 2 51.4129 16.0446 2.21456 51.4129 16.0446 2.21456
270 2 51.1572 15.7617 -0.926988 51.1572 15.7617 -0.926988
271 1 0.95536 17.4955 0.421136 0.95536 17.4955 0.421136
272 2 3.0177 17.687 1.82895 3.0177 17.687 1.82895
273 2 2.62471 17.4845 -1.41962 2.62471 17.4845 -1.41962
274 1 3.81735 19.1313 -0.0326583 3.81735 19.1313 -0.0326583
275 2 5.76128 19.0246 1.64943 5.76128 19.0246 1.64943
276 2 5.63639 19.2579 -1.70248 5.63639 19.2579 -1.70248
277 1 6.65894 17.5726 -0.155739 6.65894 17.5726 -0.155739
278 2 8.46452 17.5013 1.46925 8.46452 17.5013 1.46925
279 2 8.4719 17.5654 -1.80992 8.4719 17.5654 -1.80992
280 1 9.48583 19.1234 -0.190879 9.48583 19.1234 -0.190879
281 2 11.4077 19.0555 1.37392 11.4077 19.0555 1.37392
282 2 11.4071 19.1219 -1.86246 11.4071 19.1219 -1.86246
283 1 12.3622 17.5326 -0.301741 12.3622 17.5326 -0.301741
284 2 14.2387 17.4776 1.32527 14.2387 17.4776 1.32527
285 2 14.306 17.5891 -1.9128 14.306 17.5891 -1.9128
286 1 15.2449 19.1896 -0.241361 15.2449 19.1896 -0.241361
287 2 17.1628 19.1291 1.37095 17.1628 19.1291 1.37095
288 2 17.1971 19.2335 -1.91322 17.1971 19.2335 -1.91322
289 1 18.0764 17.5012 -0.347785 18.0764 17.5012 -0.347785
290 2 20.0123 17.4852 1.43141 20.0123 17.4852 1.43141
291 2 20.18 17.6161 -1.90211 20.18 17.6161 -1.90211
292 1 20.9994 19.2278 -0.085177 20.9994 19.2278 -0.085177
293 2 22.9999 19.1529 1.4827 22.9999 19.1529 1.4827
294 2 22.7926 19.3184 -1.74703 22.7926 19.3184 -1.74703
295 1 23.82 17.544 -0.266246 23.82 17.544 -0.266246
296 2 25.843 17.4888 1.18424 25.843 17.4888 1.18424
297 2 25.4665 17.5231 -2.05593 25.4665 17.5231 -2.05593
298 1 26.6772 19.1415 -0.511591 26.6772 19.1415 -0.511591
299 2 28.6195 19.1581 1.02776 28.6195 19.1581 1.02776
300 2 28.4197 19.177 -2.2812 28.4197 19.177 -2.2812
301 1 29.4567 17.4564 -0.793736 29.4567 17.4564 -0.793736
302 2 31.2644 17.5118 0.992765 31.2644 17.5118 0.992765
303 2 31.4999 17.3124 -2.23354 31.4999 17.3124 -2.23354
304 1 32.4074 19.0406 -0.595925 32.4074 19.0406 -0.595925
305 2 34.1173 19.0576 1.31194 34.1173 19.0576 1.31194
306 2 34.6334 19.1647 -1.85165 34.6334 19.1647 -1.85165
307 1 35.2794 17.4866 -0.180895 35.2794 17.4866 -0.180895
308 2 37.0171 17.5665 1.53148 37.0171 17.5665 1.53148
309 2 36.9882 17.3665 -1.76216 36.9882 17.3665 -1.76216
310 1 37.9991 19.1661 -0.119653 37.9991 19.1661 -0.119653
311 2 39.8694 19.3799 1.59717 39.8694 19.3799 1.59717
312 2 40.1033 18.9259 -1.66277 40.1033 18.9259 -1.66277
313 1 40.8917 17.5577 0.232701 40.8917 17.5577 0.232701
314 2 42.7632 17.7825 1.96894 42.7632 17.7825 1.96894
315 2 42.8335 17.3115 -1.33774 42.8335 17.3115 -1.33774
316 1 43.7739 19.2026 0.110833 43.7739 19.2026 0.110833
317 2 45.5323 19.4336 1.81397 45.5323 19.4336 1.81397
318 2 45.7957 18.9436 -1.45249 45.7957 18.9436 -1.45249
319 1 46.6428 17.5915 0.511056 46.6428 17.5915 0.511056
320 2 48.5315 17.7441 2.18746 48.5315 17.7441 2.18746
321 2 48.6217 17.4412 -1.01816 48.6217 17.4412 -1.01816
322 1 49.483 19.1799 0.450136 49.483 19.1799 0.450136
323 2 51.451 19.2887 1.94196 51.451 19.2887 1.94196
324 2 51.2753 18.999 -1.28833 51.2753 18.999 -1.28833
325 1 1.01251 20.7436 0.180624 1.01251 20.7436 0.180624
326 2 3.00426 20.7771 1.67275 3.00426 20.7771 1.67275
327 2 2.78633 20.726 -1.55351 2.78633 20.726 -1.55351
328 1 3.82367 22.4074 -0.0611259 3.82367 22.4074 -0.0611259
329 2 5.62129 22.4423 1.64942 5.62129 22.4423 1.64942
330 2 5.88773 22.4727 -1.60748 5.88773 22.4727 -1.60748
331 1 6.66585 20.8303 0.0859444 6.66585 20.8303 0.0859444
332 2 8.78495 20.8139 1.51736 8.78495 20.8139 1.51736
333 2 8.38346 20.7151 -1.7426 8.38346 20.7151 -1.7426
334 1 9.57539 22.4171 -0.272958 9.57539 22.4171 -0.272958
335 2 11.5117 22.3991 1.43209 11.5117 22.3991 1.43209
336 2 11.3904 22.4256 -1.90807 11.3904 22.4256 -1.90807
337 1 12.3023 20.7779 -0.272746 12.3023 20.7779 -0.272746
338 2 14.4157 20.9455 1.27709 14.4157 20.9455 1.27709
339 2 14.2798 20.6213 -1.97119 14.2798 20.6213 -1.97119
340 1 15.2641 22.4045 -0.489487 15.2641 22.4045 -0.489487
341 2 17.0654 22.3652 1.31313 17.0654 22.3652 1.31313
342 2 17.3214 22.3864 -1.93613 17.3214 22.3864 -1.93613
343 1 18.1778 20.7455 -0.192281 18.1778 20.7455 -0.192281
344 2 19.9935 20.7468 1.555 19.9935 20.7468 1.555
345 2 20.0909 20.8912 -1.68527 20.0909 20.8912 -1.68527
346 1 21.0084 22.4351 0.00283091 21.0084 22.4351 0.00283091
347 2 23.035 22.4796 1.47811 23.035 22.4796 1.47811
348 2 22.8239 22.4064 -1.80613 22.8239 22.4064 -1.80613
349 1 23.8206 20.8304 -0.171215 23.8206 20.8304 -0.171215
350 2 25.9207 20.8304 1.17788 25.9207 20.8304 1.17788
351 2 25.5814 20.8144 -1.97608 25.5814 20.8144 -1.97608
352 1 26.7475 22.4338 -0.553647 26.7475 22.4338 -0.553647
353 2 28.5829 22.3581 1.15233 28.5829 22.3581 1.15233
354 2 28.607 22.4929 -2.1576 28.607 22.4929 -2.1576
355 1 29.5533 20.8221 -0.595861 29.5533 20.8221 -0.595861
356 2 31.4195 20.5922 1.08091 31.4195 20.5922 1.08091
357 2 31.6724 20.7617 -2.16181 31.6724 20.7617 -2.16181
358 1 32.3884 22.3567 -0.364745 32.3884 22.3567 -0.364745
359 2 34.2272 22.4004 1.4194 34.2272 22.4004 1.4194
360 2 34.4707 22.3217 -1.86469 34.4707 22.3217 -1.86469
361 1 35.2368 20.7698 -0.0596054 35.2368 20.7698 -0.0596054
362 2 37.1149 20.7558 1.58824 37.1149 20.7558 1.58824
363 2 37.0808 20.8319 -1.67764 37.0808 20.8319 -1.67764
364 1 38.0546 22.4102 0.0299454 38.0546 22.4102 0.0299454
365 2 40.1018 22.5575 1.39544 40.1018 22.5575 1.39544
366 2 39.694 22.4001 -1.87078 39.694 22.4001 -1.87078
367 1 40.8803 20.7752 -0.243653 40.8803 20.7752 -0.243653
368 2 42.6594 21.0349 1.43012 42.6594 21.0349 1.43012
369 2 42.8403 20.5967 -1.74989 42.8403 20.5967 -1.74989
370 1 43.7968 22.4918 -0.419318 43.7968 22.4918 -0.419318
371 2 45.6547 22.6742 1.23039 45.6547 22.6742 1.23039
372 2 45.808 22.1434 -1.90507 45.808 22.1434 -1.90507
373 1 46.662 20.7933 -0.00925684 46.662 20.7933 -0.00925684
374 2 48.5164 20.9329 1.82755 48.5164 20.9329 1.82755
375 2 48.6776 20.5352 -1.48533 48.6776 20.5352 -1.48533
376 1 49.5252 22.3573 -0.0292221 49.5252 22.3573 -0.0292221
377 2 51.3396 22.4404 1.71616 51.3396 22.4404 1.71616
378 2 51.4354 22.3456 -1.5074 51.4354 22.3456 -1.5074
379 1 0.996444 24.0615 0.0536334 0.996444 24.0615 0.0536334
380 2 2.87747 23.9411 1.68084 2.87747 23.9411 1.68084
381 2 2.85365 24.0454 -1.61641 2.85365 24.0454 -1.61641
382 1 3.83941 25.729 0.0488098 3.83941 25.729 0.0488098
383 2 5.72944 25.509 1.79206 5.72944 25.509 1.79206
384 2 5.84202 25.8998 -1.46411 5.84202 25.8998 -1.46411
385 1 6.70193 24.071 0.0266843 6.70193 24.071 0.0266843
386 2 8.82633 23.9115 1.52692 8.82633 23.9115 1.52692
387 2 8.34704 24.2264 -1.67272 8.34704 24.2264 -1.67272
388 1 9.58335 25.6747 -0.0427051 9.58335 25.6747 -0.0427051
389 2 11.5521 25.6151 1.48356 11.5521 25.6151 1.48356
390 2 11.5435 25.7556 -1.76573 11.5435 25.7556 -1.76573
391 1 12.4284 24.0545 -0.24019 12.4284 24.0545 -0.24019
392 2 14.4797 24.0702 1.26394 14.4797 24.0702 1.26394
393 2 14.0865 24.1073 -1.97353 14.0865 24.1073 -1.97353
394 1 15.2183 25.7449 -0.384233 15.2183 25.7449 -0.384233
395 2 17.1788 25.7861 1.36322 17.1788 25.7861 1.36322
396 2 17.0972 25.7074 -2.00142 17.0972 25.7074 -2.00142
397 1 18.1098 24.1593 -0.267121 18.1098 24.1593 -0.267121
398 2 20.0118 24.1494 1.52821 20.0118 24.1494 1.52821
399 2 20.2443 24.1258 -1.66659 20.2443 24.1258 -1.66659
400 1 21.1195 25.8026 -0.105291 21.1195 25.8026 -0.105291
401 2 23.0658 25.703 1.5128 23.0658 25.703 1.5128
402 2 23.0467 25.8039 -1.75517 23.0467 25.8039 -1.75517
403 1 23.8962 24.0538 -0.277736 23.8962 24.0538 -0.277736
404 2 25.7663 23.8291 1.36131 25.7663 23.8291 1.36131
405 2 25.8303 24.297 -1.91029 25.8303 24.297 -1.91029
406 1 26.6656 25.6594 -0.117858 26.6656 25.6594 -0.117858
407 2 28.6021 25.5281 1.39277 28.6021 25.5281 1.39277
408 2 28.5894 25.7896 -1.83981 28.5894 25.7896 -1.83981
409 1 29.5801 24.0313 -0.377187 29.5801 24.0313 -0.377187
410 2 31.3848 24.0294 1.30185 31.3848 24.0294 1.30185
411 2 31.5603 24.1701 -1.8752 31.5603 24.1701 -1.8752
412 1 32.3763 25.7463 -0.133467 32.3763 25.7463 -0.133467
413 2 34.2553 25.5593 1.49735 34.2553 25.5593 1.49735
414 2 34.2782 25.6376 -1.81436 34.2782 25.6376 -1.81436
415 1 35.2023 24.0328 -0.21892 35.2023 24.0328 -0.21892
416 2 37.0931 24.0962 1.56933 37.0931 24.0962 1.56933
417 2 37.17 24.0695 -1.78775 37.17 24.0695 -1.78775
418 1 38.0295 25.7192 -0.161896 38.0295 25.7192 -0.161896
419 2 39.9546 25.5191 1.26529 39.9546 25.5191 1.26529
420 2 39.6885 25.7036 -2.0125 39.6885 25.7036 -2.0125
421 1 40.8018 24.0609 -0.494071 40.8018 24.0609 -0.494071
422 2 42.835 24.2099 1.03623 42.835 24.2099 1.03623
423 2 42.6938 23.9757 -2.18867 42.6938 23.9757 -2.18867
424 1 43.7943 25.6042 -0.663846 43.7943 25.6042 -0.663846
425 2 45.525 25.5377 1.14473 45.525 25.5377 1.14473
426 2 45.779 25.864 -2.09701 45.779 25.864 -2.09701
427 1 46.6612 24.1283 -0.549492 46.6612 24.1283 -0.549492
428 2 48.365 24.1835 1.29016 48.365 24.1835 1.29016
429 2 48.7048 24.0204 -1.85907 48.7048 24.0204 -1.85907
430 1 49.627 25.7026 -0.14618 49.627 25.7026 -0.14618
431 2 51.3527 25.5518 1.62712 51.3527 25.5518 1.62712
432 2 51.556 25.751 -1.61679 51.556 25.751 -1.61679
433 1 1.01465 27.3494 0.213764 1.01465 27.3494 0.213764
434 2 2.92848 27.2191 1.7947 2.92848 27.2191 1.7947
435 2 2.82421 27.431 -1.47532 2.82421 27.431 -1.47532
436 1 3.83411 28.9759 0.252098 3.83411 28.9759 0.252098
437 2 5.73916 29.1776 1.85224 5.73916 29.1776 1.85224
438 2 5.78214 28.9725 -1.35447 5.78214 28.9725 -1.35447
439 1 6.73046 27.3834 0.433853 6.73046 27.3834 0.433853
440 2 8.88114 27.3162 1.68821 8.88114 27.3162 1.68821
441 2 8.47377 27.3784 -1.45046 8.47377 27.3784 -1.45046
442 1 9.64819 29.0706 0.0810133 9.64819 29.0706 0.0810133
443 2 11.6887 29.0445 1.68159 11.6887 29.0445 1.68159
444 2 11.4622 29.0777 -1.60132 11.4622 29.0777 -1.60132
445 1 12.4135 27.3963 -0.0080368 12.4135 27.3963 -0.0080368
446 2 14.4805 27.3487 1.40048 14.4805 27.3487 1.40048
447 2 14.1894 27.4673 -1.74208 14.1894 27.4673 -1.74208
448 1 15.3076 29.1092 -0.254489 15.3076 29.1092 -0.254489
449 2 17.2651 29.0044 1.30938 17.2651 29.0044 1.30938
450 2 17.0597 29.0609 -1.96219 17.0597 29.0609 -1.96219
451 1 18.0782 27.3865 -0.326208 18.0782 27.3865 -0.326208
452 2 19.8833 27.3575 1.4538 19.8833 27.3575 1.4538
453 2 20.0043 27.5086 -1.80871 20.0043 27.5086 -1.80871
454 1 20.9563 29.0808 -0.0898552 20.9563 29.0808 -0.0898552
455 2 22.9543 29.2561 1.46405 22.9543 29.2561 1.46405
456 2 22.817 28.9223 -1.84125 22.817 28.9223 -1.84125
457 1 23.9232 27.412 -0.0812478 23.9232 27.412 -0.0812478
458 2 25.8013 27.4249 1.56486 25.8013 27.4249 1.56486
459 2 25.7386 27.3956 -1.74209 25.7386 27.3956 -1.74209
460 1 26.7033 29.0003 -0.0420562 26.7033 29.0003 -0.0420562
461 2 28.661 29.0108 1.5611 28.661 29.0108 1.5611
462 2 28.5339 28.963 -1.80066 28.5339 28.963 -1.80066
463 1 29.5195 27.3309 -0.148597 29.5195 27.3309 -0.148597
464 2 31.3896 27.3101 1.51413 31.3896 27.3101 1.51413
465 2 31.44 27.3344 -1.70346 31.44 27.3344 -1.70346
466 1 32.3158 28.9572 -0.142495 32.3158 28.9572 -0.142495
467 2 34.132 28.9022 1.56457 34.132 28.9022 1.56457
468 2 34.3588 29.0172 -1.67873 34.3588 29.0172 -1.67873
469 1 35.1552 27.3573 -0.0437613 35.1552 27.3573 -0.0437613
470 2 37.2047 27.3515 1.45804 37.2047 27.3515 1.45804
471 2 36.8781 27.2953 -1.75528 36.8781 27.2953 -1.75528
472 1 38.0691 28.9616 -0.311562 38.0691 28.9616 -0.311562
473 2 39.9129 28.7314 1.36627 39.9129 28.7314 1.36627
474 2 40.1241 29.0581 -1.8725 40.1241 29.0581 -1.8725
475 1 40.8949 27.2291 -0.427343 40.8949 27.2291 -0.427343
476 2 42.8908 27.1652 1.05781 42.8908 27.1652 1.05781
477 2 42.7357 27.276 -2.20177 42.7357 27.276 -2.20177
478 1 43.741 28.9764 -0.446161 43.741 28.9764 -0.446161
479 2 45.5446 28.923 1.35736 45.5446 28.923 1.35736
480 2 45.9099 28.9652 -1.84445 45.9099 28.9652 -1.84445
481 1 46.6239 27.2991 -0.226912 46.6239 27.2991 -0.226912
482 2 48.5369 27.2745 1.46567 48.5369 27.2745 1.46567
483 2 48.5833 27.2287 -1.77275 48.5833 27.2287 -1.77275
484 1 49.4386 29.0083 -0.0570589 49.4386 29.0083 -0.0570589
485 2 51.2535 29.147 1.72235 51.2535 29.147 1.72235
486 2 51.4873 29.0337 -1.58451 51.4873 29.0337 -1.58451
487 1 1.00016 30.7129 0.0630637 1.00016 30.7129 0.0630637
488 2 2.86998 30.6783 1.79197 2.86998 30.6783 1.79197
489 2 2.96054 30.5789 -1.46377 2.96054 30.5789 -1.46377
490 1 3.89043 32.2636 0.0330742 3.89043 32.2636 0.0330742
491 2 5.74026 32.3247 1.77521 5.74026 32.3247 1.77521
492 2 5.75778 32.3492 -1.50782 5.75778 32.3492 -1.50782
493 1 6.76334 30.7492 0.178656 6.76334 30.7492 0.178656
494 2 8.62143 30.7308 1.72277 8.62143 30.7308 1.72277
495 2 8.6228 30.7826 -1.5306 8.6228 30.7826 -1.5306
496 1 9.59875 32.4289 0.070601 9.59875 32.4289 0.070601
497 2 11.5262 32.3307 1.64738 11.5262 32.3307 1.64738
498 2 11.4436 32.3465 -1.66709 11.4436 32.3465 -1.66709
499 1 12.4727 30.775 -0.0899092 12.4727 30.775 -0.0899092
500 2 14.4422 30.7912 1.36844 14.4422 30.7912 1.36844
501 2 14.1743 30.6989 -1.85411 14.1743 30.6989 -1.85411
502 1 15.2881 32.3456 -0.515195 15.2881 32.3456 -0.515195
503 2 17.1521 32.3553 1.10917 17.1521 32.3553 1.10917
504 2 17.0938 32.221 -2.11071 17.0938 32.221 -2.11071
505 1 18.1002 30.7215 -0.474444 18.1002 30.7215 -0.474444
506 2 20.0057 30.9095 1.18794 20.0057 30.9095 1.18794
507 2 20.1932 30.5512 -1.98347 20.1932 30.5512 -1.98347
508 1 20.9031 32.3712 -0.512407 20.9031 32.3712 -0.512407
509 2 22.8473 32.5732 1.14895 22.8473 32.5732 1.14895
510 2 22.7957 32.2771 -2.12737 22.7957 32.2771 -2.12737
511 1 23.7674 30.7332 -0.310274 23.7674 30.7332 -0.310274
512 2 25.4907 30.79 1.46077 25.4907 30.79 1.46077
513 2 25.7598 30.4584 -1.78118 25.7598 30.4584 -1.78118
514 1 26.6119 32.2946 -0.308085 26.6119 32.2946 -0.308085
515 2 28.6029 32.5252 1.27395 28.6029 32.5252 1.27395
516 2 28.4917 32.1291 -1.81288 28.4917 32.1291 -1.81288
517 1 29.5052 30.6258 -0.142587 29.5052 30.6258 -0.142587
518 2 31.3576 30.4118 1.45001 31.3576 30.4118 1.45001
519 2 31.4814 30.6743 -1.75134 31.4814 30.6743 -1.75134
520 1 32.3386 32.3008 -0.108119 32.3386 32.3008 -0.108119
521 2 34.3173 32.4559 1.50149 34.3173 32.4559 1.50149
522 2 34.3291 32.3599 -1.74934 34.3291 32.3599 -1.74934
523 1 35.1827 30.6188 -0.0601775 35.1827 30.6188 -0.0601775
524 2 37.2713 30.4844 1.50818 37.2713 30.4844 1.50818
525 2 36.9685 30.7618 -1.77612 36.9685 30.7618 -1.77612
526 1 38.0401 32.2973 -0.0753288 38.0401 32.2973 -0.0753288
527 2 39.8811 32.0997 1.47638 39.8811 32.0997 1.47638
528 2 39.9558 32.1612 -1.76143 39.9558 32.1612 -1.76143
529 1 40.8709 30.5638 -0.142461 40.8709 30.5638 -0.142461
530 2 42.8173 30.3239 1.53673 42.8173 30.3239 1.53673
531 2 42.7107 30.863 -1.6984 42.7107 30.863 -1.6984
532 1 43.724 32.23 0.120663 43.724 32.23 0.120663
533 2 45.7625 32.2457 1.56564 45.7625 32.2457 1.56564
534 2 45.4969 32.3347 -1.66938 45.4969 32.3347 -1.66938
535 1 46.6513 30.6414 -0.128346 46.6513 30.6414 -0.128346
536 2 48.4783 30.667 1.60001 48.4783 30.667 1.60001
537 2 48.5853 30.6319 -1.76784 48.5853 30.6319 -1.76784
538 1 49.4621 32.2595 -0.067203 49.4621 32.2595 -0.067203
539 2 51.2795 32.2899 1.62678 51.2795 32.2899 1.62678