ITEM: TIMESTEP
600
ITEM: NUMBER OF ATOMS
810
ITEM: BOX BOUNDS pp pp pp
8.4137701477268123e-01 5.2176227985227342e+01
8.0961581116522285e-01 5.0206599188834083e+01
-1.0000000000000000e+01 1.0000000000000000e+01
ITEM: ATOMS id type x y z xu yu zu
1 1 52.0878 50.1901 -0.175062 0.752901 0.793104 -0.175062
2 2 2.46465 50.1716 1.57024 2.46465 0.774604 1.57024
3 2 2.88594 50.2795 -1.65655 2.88594 0.882528 -1.65655
4 1 3.6481 2.50477 -0.00902317 3.6481 2.50477 -0.00902317
5 2 5.42952 2.11037 1.7078 5.42952 2.11037 1.7078
6 2 5.56528 2.54522 -1.65715 5.56528 2.54522 -1.65715
7 1 6.51556 50.1696 -0.0911136 6.51556 0.772642 -0.0911136
8 2 8.22906 50.0807 1.66651 8.22906 0.683749 1.66651
9 2 8.49146 50.2558 -1.59929 8.49146 0.858816 -1.59929
10 1 9.30135 2.46533 0.280575 9.30135 2.46533 0.280575
11 2 11.2616 2.41931 1.70402 11.2616 2.41931 1.70402
12 2 11.0882 2.45092 -1.58392 11.0882 2.45092 -1.58392
13 1 12.3197 50.2299 -0.0561725 12.3197 0.832962 -0.0561725
14 2 14.2483 50.1236 1.48935 14.2483 0.726645 1.48935
15 2 14.0798 50.4274 -1.71302 14.0798 1.0304 -1.71302
16 1 15.1453 2.53896 0.00983115 15.1453 2.53896 0.00983115
17 2 17.0665 2.51253 1.61048 17.0665 2.51253 1.61048
18 2 16.9888 2.43466 -1.72851 16.9888 2.43466 -1.72851
19 1 18.0274 50.3118 -0.0640479 18.0274 0.914838 -0.0640479
20 2 19.7995 50.1998 1.79831 19.7995 0.802811 1.79831
21 2 20.091 50.2217 -1.55367 20.091 0.824698 -1.55367
22 1 20.9267 2.42436 0.264276 20.9267 2.42436 0.264276
23 2 22.9697 2.40391 1.63501 22.9697 2.40391 1.63501
24 2 22.5717 2.44915 -1.59238 22.5717 2.44915 -1.59238
25 1 23.7143 50.2163 -0.138514 23.7143 0.81933 -0.138514
26 2 25.5146 49.9743 1.60742 25.5146 0.577277 1.60742
27 2 25.5746 50.425 -1.68314 25.5746 1.02804 -1.68314
28 1 26.5431 2.43852 0.204558 26.5431 2.43852 0.204558
29 2 28.4264 2.47357 1.84044 28.4264 2.47357 1.84044
30 2 28.3212 2.41729 -1.49948 28.3212 2.41729 -1.49948
31 1 29.3389 50.1832 0.192818 29.3389 0.78624 0.192818
32 2 31.2575 50.2265 1.77503 31.2575 0.829527 1.77503
33 2 31.1805 50.2265 -1.49614 31.1805 0.829513 -1.49614
34 1 32.2457 2.4736 0.0761827 32.2457 2.4736 0.0761827
35 2 34.0468 2.44459 1.75807 34.0468 2.44459 1.75807
36 2 33.9718 2.7502 -1.54492 33.9718 2.7502 -1.54492
37 1 34.9935 50.3194 0.0684658 34.9935 0.922399 0.0684658
38 2 36.7668 50.2912 1.72738 36.7668 0.894167 1.72738
39 2 36.9667 50.2826 -1.55576 36.9667 0.885636 -1.55576
40 1 37.9876 2.49679 0.165276 37.9876 2.49679 0.165276
41 2 39.8641 2.3791 1.75935 39.8641 2.3791 1.75935
42 2 39.9394 2.5339 -1.4807 39.9394 2.5339 -1.4807
43 1 40.7006 50.2161 0.00940667 40.7006 0.81914 0.00940667
44 2 42.7673 50.2559 1.52722 42.7673 0.858967 1.52722
45 2 42.5022 50.2311 -1.69367 42.5022 0.834164 -1.69367
46 1 43.6316 2.49529 -0.155176 43.6316 2.49529 -0.155176
47 2 45.4784 2.57737 1.52773 45.4784 2.57737 1.52773
48 2 45.6298 2.42246 -1.65475 45.6298 2.42246 -1.65475
49 1 46.3716 50.2231 0.0507502 46.3716 0.826133 0.0507502
50 2 48.2368 50.1631 1.6671 48.2368 0.766068 1.6671
51 2 48.2325 50.1896 -1.66506 48.2325 0.792622 -1.66506
52 1 49.2515 2.49714 -0.00866362 49.2515 2.49714 -0.00866362
53 2 51.2632 2.49524 1.42537 51.2632 2.49524 1.42537
54 2 51.0913 2.53171 -1.7422 51.0913 2.53171 -1.7422
55 1 52.1863 4.14147 -0.211975 0.851459 4.14147 -0.211975
56 2 2.57999 4.15329 1.51398 2.57999 4.15329 1.51398
57 2 2.92294 4.09211 -1.8048 2.92294 4.09211 -1.8048
58 1 3.62286 5.7157 -0.0435643 3.62286 5.7157 -0.0435643
59 2 5.45713 5.83272 1.6372 5.45713 5.83272 1.6372
60 2 5.61667 5.51388 -1.67369 5.61667 5.51388 -1.67369
61 1 6.42615 4.06344 0.238058 6.42615 4.06344 0.238058
62 2 8.38085 4.18674 1.83984 8.38085 4.18674 1.83984
63 2 8.27587 4.00637 -1.43631 8.27587 4.00637 -1.43631
64 1 9.3287 5.70282 0.0383582 9.3287 5.70282 0.0383582
65 2 11.334 5.76385 1.61756 11.334 5.76385 1.61756
66 2 11.3008 5.7911 -1.67527 11.3008 5.7911 -1.67527
67 1 12.1471 4.10203 -0.0298922 12.1471 4.10203 -0.0298922
68 2 14.1485 4.14188 1.51943 14.1485 4.14188 1.51943
69 2 14.0206 4.02992 -1.68938 14.0206 4.02992 -1.68938
70 1 15.1618 5.69689 -0.203207 15.1618 5.69689 -0.203207
71 2 16.8855 5.70424 1.54804 16.8855 5.70424 1.54804
72 2 17.2073 5.85144 -1.69251 17.2073 5.85144 -1.69251
73 1 18 4.11885 -0.0696207 18 4.11885 -0.0696207
74 2 19.7302 4.16644 1.70958 19.7302 4.16644 1.70958
75 2 20.0858 4.04406 -1.53706 20.0858 4.04406 -1.53706
76 1 20.8298 5.76278 0.0405039 20.8298 5.76278 0.0405039
77 2 22.8964 5.69435 1.55851 22.8964 5.69435 1.55851
78 2 22.7202 5.78353 -1.67167 22.7202 5.78353 -1.67167
79 1 23.7785 4.07341 -0.126347 23.7785 4.07341 -0.126347
80 2 25.5837 4.21271 1.63459 25.5837 4.21271 1.63459
81 2 25.7138 3.92192 -1.65658 25.7138 3.92192 -1.65658
82 1 26.5788 5.72814 -0.156202 26.5788 5.72814 -0.156202
83 2 28.418 5.83768 1.57831 28.418 5.83768 1.57831
84 2 28.4552 5.67567 -1.72867 28.4552 5.67567 -1.72867
85 1 29.3915 4.13351 -0.0256961 29.3915 4.13351 -0.0256961
86 2 31.179 4.19343 1.73485 31.179 4.19343 1.73485
87 2 31.3691 4.10014 -1.66443 31.3691 4.10014 -1.66443
88 1 32.2649 5.79012 0.013096 32.2649 5.79012 0.013096
89 2 34.0366 5.79639 1.82285 34.0366 5.79639 1.82285
90 2 34.1665 5.7868 -1.51362 34.1665 5.7868 -1.51362
91 1 35.034 4.18669 0.218391 35.034 4.18669 0.218391
92 2 36.9939 4.27834 1.77554 36.9939 4.27834 1.77554
93 2 36.8324 3.99636 -1.50818 36.8324 3.99636 -1.50818
94 1 37.9472 5.76174 0.0817498 37.9472 5.76174 0.0817498
95 2 39.7264 5.71628 1.68846 39.7264 5.71628 1.68846
96 2 39.7809 5.68428 -1.57841 39.7809 5.68428 -1.57841
97 1 40.8377 4.05755 0.129223 40.8377 4.05755 0.129223
98 2 42.8761 4.09838 1.66547 42.8761 4.09838 1.66547
99 2 42.5819 4.24172 -1.66673 42.5819 4.24172 -1.66673
100 1 43.6449 5.85121 0.0318839 43.6449 5.85121 0.0318839
101 2 45.4915 5.54952 1.63766 45.4915 5.54952 1.63766
102 2 45.537 5.89851 -1.62224 45.537 5.89851 -1.62224
103 1 46.4925 4.06911 -0.108617 46.4925 4.06911 -0.108617
104 2 48.1977 4.22945 1.6186 48.1977 4.22945 1.6186
105 2 48.4547 4.09713 -1.71327 48.4547 4.09713 -1.71327
106 1 49.306 5.77411 0.0438217 49.306 5.77411 0.0438217
107 2 51.2807 5.53511 1.61321 51.2807 5.53511 1.61321
108 2 51.1414 5.97535 -1.57364 51.1414 5.97535 -1.57364
109 1 52.055 7.38925 0.139564 0.720149 7.38925 0.139564
110 2 2.6082 7.31875 1.64999 2.6082 7.31875 1.64999
111 2 2.61546 7.37324 -1.65955 2.61546 7.37324 -1.65955
112 1 3.6094 8.97117 -0.0964682 3.6094 8.97117 -0.0964682
113 2 5.66867 9.07221 1.43798 5.66867 9.07221 1.43798
114 2 5.53758 9.11931 -1.81193 5.53758 9.11931 -1.81193
115 1 6.477 7.34508 -0.132929 6.477 7.34508 -0.132929
116 2 8.33085 7.48586 1.46737 8.33085 7.48586 1.46737
117 2 8.45314 7.31892 -1.7494 8.45314 7.31892 -1.7494
118 1 9.34621 9.06878 -0.155067 9.34621 9.06878 -0.155067
119 2 11.1938 9.01007 1.5301 11.1938 9.01007 1.5301
120 2 11.3469 9.04132 -1.68409 11.3469 9.04132 -1.68409
121 1 12.2328 7.45449 -0.0175263 12.2328 7.45449 -0.0175263
122 2 14.2611 7.28651 1.47879 14.2611 7.28651 1.47879
123 2 14.0446 7.47136 -1.79194 14.0446 7.47136 -1.79194
124 1 15.0273 8.97614 -0.0669102 15.0273 8.97614 -0.0669102
125 2 16.913 9.08921 1.61152 16.913 9.08921 1.61152
126 2 16.855 8.84724 -1.61306 16.855 8.84724 -1.61306
127 1 18.0304 7.35876 0.118138 18.0304 7.35876 0.118138
128 2 19.8596 7.40622 1.82559 19.8596 7.40622 1.82559
129 2 19.8925 7.45364 -1.56646 19.8925 7.45364 -1.56646
130 1 20.8236 9.03546 0.174178 20.8236 9.03546 0.174178
131 2 22.9014 9.06091 1.72856 22.9014 9.06091 1.72856
132 2 22.6723 8.92642 -1.61052 22.6723 8.92642 -1.61052
133 1 23.6871 7.37961 0.0048512 23.6871 7.37961 0.0048512
134 2 25.6517 7.34905 1.52051 25.6517 7.34905 1.52051
135 2 25.5629 7.37506 -1.71035 25.5629 7.37506 -1.71035
136 1 26.6076 9.06045 -0.130265 26.6076 9.06045 -0.130265
137 2 28.3662 8.97671 1.61971 28.3662 8.97671 1.61971
138 2 28.4624 9.03382 -1.70518 28.4624 9.03382 -1.70518
139 1 29.4036 7.35162 -0.0815458 29.4036 7.35162 -0.0815458
140 2 31.303 7.46486 1.62585 31.303 7.46486 1.62585
141 2 31.324 7.40219 -1.63935 31.324 7.40219 -1.63935
142 1 32.2018 9.01172 -0.00671917 32.2018 9.01172 -0.00671917
143 2 34.0801 9.05216 1.75348 34.0801 9.05216 1.75348
144 2 34.2473 8.97726 -1.38672 34.2473 8.97726 -1.38672
145 1 35.0895 7.37901 0.23688 35.0895 7.37901 0.23688
146 2 37.0563 7.27101 1.80483 37.0563 7.27101 1.80483
147 2 36.876 7.51624 -1.4161 36.876 7.51624 -1.4161
148 1 37.9713 8.99946 0.255934 37.9713 8.99946 0.255934
149 2 39.9567 9.03279 1.69306 39.9567 9.03279 1.69306
150 2 39.629 9.08598 -1.49543 39.629 9.08598 -1.49543
151 1 40.7698 7.35818 -0.03169 40.7698 7.35818 -0.03169
152 2 42.7222 7.48424 1.62222 42.7222 7.48424 1.62222
153 2 42.6785 7.37543 -1.60703 42.6785 7.37543 -1.60703
154 1 43.6261 9.11793 -0.117748 43.6261 9.11793 -0.117748
155 2 45.4685 9.05115 1.69532 45.4685 9.05115 1.69532
156 2 45.6387 9.03624 -1.66039 45.6387 9.03624 -1.66039
157 1 46.4893 7.33597 0.172712 46.4893 7.33597 0.172712
158 2 48.3872 7.35474 1.76248 48.3872 7.35474 1.76248
159 2 48.3466 7.55076 -1.57871 48.3466 7.55076 -1.57871
160 1 49.2921 9.08782 0.237413 49.2921 9.08782 0.237413
161 2 51.3146 9.08818 1.7877 51.3146 9.08818 1.7877
162 2 50.9649 9.08639 -1.50713 50.9649 9.08639 -1.50713
163 1 52.2023 10.6186 0.0220201 0.867409 10.6186 0.0220201
164 2 2.83054 10.7349 1.60484 2.83054 10.7349 1.60484
165 2 2.66035 10.6344 -1.74217 2.66035 10.6344 -1.74217
166 1 3.652 12.3469 -0.0767634 3.652 12.3469 -0.0767634
167 2 5.59825 12.3909 1.51289 5.59825 12.3909 1.51289
168 2 5.58112 12.3537 -1.75317 5.58112 12.3537 -1.75317
169 1 6.4429 10.7512 -0.168614 6.4429 10.7512 -0.168614
170 2 8.47541 10.743 1.42982 8.47541 10.743 1.42982
171 2 8.35088 10.6565 -1.80849 8.35088 10.6565 -1.80849
172 1 9.30632 12.3515 -0.209184 9.30632 12.3515 -0.209184
173 2 11.2493 12.5245 1.36787 11.2493 12.5245 1.36787
174 2 11.2798 12.2535 -1.87102 11.2798 12.2535 -1.87102
175 1 12.2007 10.6555 -0.0125886 12.2007 10.6555 -0.0125886
176 2 14.1016 10.6025 1.61212 14.1016 10.6025 1.61212
177 2 14.0264 10.6547 -1.68366 14.0264 10.6547 -1.68366
178 1 15.036 12.269 -0.128366 15.036 12.269 -0.128366
179 2 16.8302 12.3391 1.59681 16.8302 12.3391 1.59681
180 2 17.018 12.2912 -1.53263 17.018 12.2912 -1.53263
181 1 17.9735 10.6054 -0.00793815 17.9735 10.6054 -0.00793815
182 2 19.8764 10.627 1.70986 19.8764 10.627 1.70986
183 2 19.9187 10.5406 -1.62277 19.9187 10.5406 -1.62277
184 1 20.76 12.2567 -0.0320687 20.76 12.2567 -0.0320687
185 2 22.6975 12.3111 1.56701 22.6975 12.3111 1.56701
186 2 22.6007 12.2423 -1.70211 22.6007 12.2423 -1.70211
187 1 23.6801 10.6487 -0.0618167 23.6801 10.6487 -0.0618167
188 2 25.6911 10.6857 1.60465 25.6911 10.6857 1.60465
189 2 25.6704 10.5982 -1.72593 25.6704 10.5982 -1.72593
190 1 26.5085 12.2724 -0.0360527 26.5085 12.2724 -0.0360527
191 2 28.5031 12.4516 1.58697 28.5031 12.4516 1.58697
192 2 28.4761 12.1947 -1.63573 28.4761 12.1947 -1.63573
193 1 29.3551 10.6266 0.0281185 29.3551 10.6266 0.0281185
194 2 31.2001 10.4059 1.7877 31.2001 10.4059 1.7877
195 2 31.3102 10.7642 -1.49346 31.3102 10.7642 -1.49346
196 1 32.1889 12.2452 0.282279 32.1889 12.2452 0.282279
197 2 34.0132 12.1679 1.87224 34.0132 12.1679 1.87224
198 2 34.124 12.2584 -1.45378 34.124 12.2584 -1.45378
199 1 35.0278 10.64 0.144902 35.0278 10.64 0.144902
200 2 37.0091 10.637 1.85498 37.0091 10.637 1.85498
201 2 36.9883 10.623 -1.54807 36.9883 10.623 -1.54807
202 1 37.9457 12.2553 0.172488 37.9457 12.2553 0.172488
203 2 39.9424 12.3237 1.67042 39.9424 12.3237 1.67042
204 2 39.8506 12.4829 -1.53777 39.8506 12.4829 -1.53777
205 1 40.7687 10.7182 0.00265014 40.7687 10.7182 0.00265014
206 2 42.7468 10.6353 1.50481 42.7468 10.6353 1.50481
207 2 42.5454 10.6793 -1.7519 42.5454 10.6793 -1.7519
208 1 43.7439 12.2631 -0.0829783 43.7439 12.2631 -0.0829783
209 2 45.4518 12.3679 1.66601 45.4518 12.3679 1.66601
210 2 45.7716 12.4399 -1.62667 45.7716 12.4399 -1.62667
211 1 46.4825 10.6691 0.00297825 46.4825 10.6691 0.00297825
212 2 48.1779 10.7327 1.82851 48.1779 10.7327 1.82851
213 2 48.4994 10.844 -1.39011 48.4994 10.844 -1.39011
214 1 49.2406 12.3228 0.340354 49.2406 12.3228 0.340354
215 2 51.2924 12.1757 1.77791 51.2924 12.1757 1.77791
216 2 51.0512 12.4164 -1.36005 51.0512 12.4164 -1.36005
217 1 52.17 14.0605 0.212078 0.835139 14.0605 0.212078
218 2 2.87986 13.8561 1.67113 2.87986 13.8561 1.67113
219 2 2.59111 13.9551 -1.48995 2.59111 13.9551 -1.48995
220 1 3.65905 15.6347 0.0549469 3.65905 15.6347 0.0549469
221 2 5.67923 15.7106 1.52801 5.67923 15.7106 1.52801
222 2 5.33665 15.6721 -1.6625 5.33665 15.6721 -1.6625
223 1 6.53226 14.0505 -0.0954773 6.53226 14.0505 -0.0954773
224 2 8.48468 13.8991 1.40725 8.48468 13.8991 1.40725
225 2 8.48659 14.0135 -1.71817 8.48659 14.0135 -1.71817
226 1 9.41876 15.6379 -0.107474 9.41876 15.6379 -0.107474
227 2 11.3818 15.5452 1.46659 11.3818 15.5452 1.46659
228 2 11.3367 15.6612 -1.8605 11.3367 15.6612 -1.8605
229 1 12.2974 14.0024 -0.304711 12.2974 14.0024 -0.304711
230 2 14.1387 14.027 1.33452 14.1387 14.027 1.33452
231 2 14.116 13.8918 -1.90225 14.116 13.8918 -1.90225
232 1 15.1137 15.6508 -0.373172 15.1137 15.6508 -0.373172
233 2 16.7572 15.6571 1.54689 16.7572 15.6571 1.54689
234 2 17.3237 15.5143 -1.60156 17.3237 15.5143 -1.60156
235 1 17.9245 13.9364 0.166661 17.9245 13.9364 0.166661
236 2 19.9579 13.9995 1.59148 19.9579 13.9995 1.59148
237 2 19.793 13.7859 -1.68619 19.793 13.7859 -1.68619
238 1 20.6693 15.5143 -0.109322 20.6693 15.5143 -0.109322
239 2 22.5967 15.3621 1.60857 22.5967 15.3621 1.60857
240 2 22.5712 15.5512 -1.75261 22.5712 15.5512 -1.75261
241 1 23.6965 13.9032 -0.135784 23.6965 13.9032 -0.135784
242 2 25.5104 13.9274 1.52573 25.5104 13.9274 1.52573
243 2 25.5813 13.8822 -1.69376 25.5813 13.8822 -1.69376
244 1 26.5221 15.5965 -0.0309028 26.5221 15.5965 -0.0309028
245 2 28.3346 15.5263 1.58322 28.3346 15.5263 1.58322
246 2 28.5021 15.7895 -1.63941 28.5021 15.7895 -1.63941
247 1 29.4169 13.9705 -0.160629 29.4169 13.9705 -0.160629
248 2 31.0848 14.03 1.69397 31.0848 14.03 1.69397
249 2 31.5 13.9645 -1.55008 31.5 13.9645 -1.55008
250 1 32.1895 15.6272 0.184414 32.1895 15.6272 0.184414
251 2 34.124 15.5985 1.79257 34.124 15.5985 1.79257
252 2 34.026 15.5522 -1.48785 34.026 15.5522 -1.48785
253 1 35.0176 13.8662 0.255313 35.0176 13.8662 0.255313
254 2 37.0327 13.9052 1.79442 37.0327 13.9052 1.79442
255 2 36.9589 13.7883 -1.41331 36.9589 13.7883 -1.41331
256 1 37.924 15.5364 0.108858 37.924 15.5364 0.108858
257 2 39.9463 15.7494 1.56871 39.9463 15.7494 1.56871
258 2 39.7315 15.474 -1.72182 39.7315 15.474 -1.72182
259 1 40.8321 13.9602 0.0644616 40.8321 13.9602 0.0644616
260 2 42.7768 13.9925 1.60208 42.7768 13.9925 1.60208
261 2 42.6655 13.8586 -1.61216 42.6655 13.8586 -1.61216
262 1 43.6191 15.5573 -0.0723543 43.6191 15.5573 -0.0723543
263 2 45.3567 15.7081 1.67017 45.3567 15.7081 1.67017
264 2 45.6445 15.625 -1.52723 45.6445 15.625 -1.52723
265 1 46.5069 14.0871 0.16649 46.5069 14.0871 0.16649
266 2 48.3329 14.1365 1.88324 48.3329 14.1365 1.88324
267 2 48.4521 13.9855 -1.39231 48.4521 13.9855 -1.39231
268 1 49.3734 15.6381 0.203683 49.3734 15.6381 0.203683
269 2 51.2561 15.8412 1.70399 51.2561 15.8412 1.70399
270 2 51.2682 15.6118 -1.53286 51.2682 15.6118 -1.53286
271 1 52.2062 17.3584 0.0312019 0.871382 17.3584 0.0312019
272 2 2.7668 17.2512 1.6194 2.7668 17.2512 1.6194
273 2 2.74346 17.4299 -1.61408 2.74346 17.4299 -1.61408
274 1 3.76818 18.961 -0.0052409 3.76818 18.961 -0.0052409
275 2 5.59038 18.8058 1.61655 5.59038 18.8058 1.61655
276 2 5.59757 19.0846 -1.61877 5.59757 19.0846 -1.61877
277 1 6.56532 17.337 -0.209247 6.56532 17.337 -0.209247
278 2 8.39866 17.3877 1.47742 8.39866 17.3877 1.47742
279 2 8.52587 17.3506 -1.78737 8.52587 17.3506 -1.78737
280 1 9.41095 18.9467 -0.153961 9.41095 18.9467 -0.153961
281 2 11.2248 18.8763 1.65103 11.2248 18.8763 1.65103
282 2 11.313 19.0856 -1.69302 11.313 19.0856 -1.69302
283 1 12.2717 17.277 -0.115141 12.2717 17.277 -0.115141
284 2 14.2362 17.0453 1.46249 14.2362 17.0453 1.46249
285 2 14.0856 17.4688 -1.77682 14.0856 17.4688 -1.77682
286 1 15.0557 18.972 0.0275012 15.0557 18.972 0.0275012
287 2 17.0608 19.0839 1.65463 17.0608 19.0839 1.65463
288 2 17.0967 18.8546 -1.61716 17.0967 18.8546 -1.61716
289 1 17.8723 17.2783 0.053331 17.8723 17.2783 0.053331
290 2 19.856 17.1082 1.54754 19.856 17.1082 1.54754
291 2 19.7657 17.3257 -1.62765 19.7657 17.3257 -1.62765
292 1 20.8337 18.7911 -0.0499542 20.8337 18.7911 -0.0499542
293 2 22.7017 18.6879 1.64954 22.7017 18.6879 1.64954
294 2 22.7383 18.7554 -1.58283 22.7383 18.7554 -1.58283
295 1 23.5776 17.1074 0.0158244 23.5776 17.1074 0.0158244
296 2 25.5115 17.2009 1.66473 25.5115 17.2009 1.66473
297 2 25.5363 17.2305 -1.60739 25.5363 17.2305 -1.60739
298 1 26.4515 18.9076 0.127845 26.4515 18.9076 0.127845
299 2 28.3519 18.9688 1.65965 28.3519 18.9688 1.65965
300 2 28.2871 18.9069 -1.56945 28.2871 18.9069 -1.56945
301 1 29.3428 17.3493 0.123358 29.3428 17.3493 0.123358
302 2 31.2419 17.2986 1.83906 31.2419 17.2986 1.83906
303 2 31.2855 17.343 -1.47769 31.2855 17.343 -1.47769
304 1 32.1993 19.0079 0.0880629 32.1993 19.0079 0.0880629
305 2 34.0641 18.8488 1.72539 34.0641 18.8488 1.72539
306 2 34.1072 18.8794 -1.57286 34.1072 18.8794 -1.57286
307 1 35.0906 17.1451 0.0147013 35.0906 17.1451 0.0147013
308 2 37.0181 17.2009 1.69088 37.0181 17.2009 1.69088
309 2 36.943 17.0193 -1.645 36.943 17.0193 -1.645
310 1 37.8987 18.8283 -0.0986212 37.8987 18.8283 -0.0986212
311 2 39.8462 18.8624 1.44427 39.8462 18.8624 1.44427
312 2 39.6424 18.8227 -1.81322 39.6424 18.8227 -1.81322
313 1 40.7562 17.225 -0.206584 40.7562 17.225 -0.206584
314 2 42.6636 17.3752 1.5144 42.6636 17.3752 1.5144
315 2 42.6894 17.2326 -1.76434 42.6894 17.2326 -1.76434
316 1 43.5358 18.9858 -0.187015 43.5358 18.9858 -0.187015
317 2 45.4698 19.0668 1.4935 45.4698 19.0668 1.4935
318 2 45.4163 18.6797 -1.67831 45.4163 18.6797 -1.67831
319 1 46.4375 17.3248 0.1429 46.4375 17.3248 0.1429
320 2 48.409 17.3442 1.79616 48.409 17.3442 1.79616
321 2 48.3093 17.1756 -1.51429 48.3093 17.1756 -1.51429
322 1 49.242 18.9704 0.0134397 49.242 18.9704 0.0134397
323 2 51.1828 19.0543 1.62276 51.1828 19.0543 1.62276
324 2 51.1981 19.0731 -1.53374 51.1981 19.0731 -1.53374
325 1 52.1812 20.6301 0.0270855 0.846329 20.6301 0.0270855
326 2 2.71724 20.6184 1.57518 2.71724 20.6184 1.57518
327 2 2.71942 20.5236 -1.59319 2.71942 20.5236 -1.59319
328 1 3.59592 22.2487 -0.114604 3.59592 22.2487 -0.114604
329 2 5.46516 22.1626 1.5979 5.46516 22.1626 1.5979
330 2 5.68966 22.1128 -1.61659 5.68966 22.1128 -1.61659
331 1 6.61867 20.6493 0.12559 6.61867 20.6493 0.12559
332 2 8.54196 20.45 1.59912 8.54196 20.45 1.59912
333 2 8.42999 20.5356 -1.6164 8.42999 20.5356 -1.6164
334 1 9.44677 22.1392 0.0822892 9.44677 22.1392 0.0822892
335 2 11.4012 22.4056 1.59395 11.4012 22.4056 1.59395
336 2 11.2713 22.2414 -1.59107 11.2713 22.2414 -1.59107
337 1 12.2698 20.6094 0.0388494 12.2698 20.6094 0.0388494
338 2 14.124 20.6142 1.67249 14.124 20.6142 1.67249
339 2 14.1205 20.5439 -1.55021 14.1205 20.5439 -1.55021
340 1 15.0931 22.1931 -0.0688185 15.0931 22.1931 -0.0688185
341 2 17.0687 22.1065 1.59169 17.0687 22.1065 1.59169
342 2 17.0602 22.1578 -1.64468 17.0602 22.1578 -1.64468
343 1 18.0601 20.5197 -0.000967108 18.0601 20.5197 -0.000967108
344 2 19.9087 20.4417 1.55259 19.9087 20.4417 1.55259
345 2 19.8461 20.4426 -1.77201 19.8461 20.4426 -1.77201
346 1 20.8412 22.0887 -0.134591 20.8412 22.0887 -0.134591
347 2 22.6049 22.1979 1.61988 22.6049 22.1979 1.61988
348 2 22.7625 22.2249 -1.68682 22.7625 22.2249 -1.68682
349 1 23.5771 20.5302 0.0519349 23.5771 20.5302 0.0519349
350 2 25.5439 20.4581 1.68977 25.5439 20.4581 1.68977
351 2 25.5982 20.634 -1.51572 25.5982 20.634 -1.51572
352 1 26.4767 22.2187 0.132936 26.4767 22.2187 0.132936
353 2 28.3518 22.2495 1.70888 28.3518 22.2495 1.70888
354 2 28.3077 22.2333 -1.57121 28.3077 22.2333 -1.57121
355 1 29.3392 20.5856 0.0450418 29.3392 20.5856 0.0450418
356 2 31.3218 20.6372 1.683 31.3218 20.6372 1.683
357 2 31.2657 20.548 -1.61804 31.2657 20.548 -1.61804
358 1 32.2355 22.1763 0.0219736 32.2355 22.1763 0.0219736
359 2 34.0724 22.201 1.73231 34.0724 22.201 1.73231
360 2 34.1262 22.0923 -1.5469 34.1262 22.0923 -1.5469
361 1 35.0365 20.4671 0.147054 35.0365 20.4671 0.147054
362 2 37.0818 20.3913 1.63215 37.0818 20.3913 1.63215
363 2 36.9318 20.6225 -1.57098 36.9318 20.6225 -1.57098
364 1 37.8759 22.1752 0.149994 37.8759 22.1752 0.149994
365 2 39.9106 21.9571 1.65449 39.9106 21.9571 1.65449
366 2 39.7159 22.2255 -1.52211 39.7159 22.2255 -1.52211
367 1 40.7401 20.4727 -0.135649 40.7401 20.4727 -0.135649
368 2 42.4995 20.4854 1.55386 42.4995 20.4854 1.55386
369 2 42.6845 20.7163 -1.73534 42.6845 20.7163 -1.73534
370 1 43.555 22.2627 0.131367 43.555 22.2627 0.131367
371 2 45.5707 22.1658 1.62191 45.5707 22.1658 1.62191
372 2 45.3322 22.4067 -1.71918 45.3322 22.4067 -1.71918
373 1 46.41 20.5374 -0.290544 46.41 20.5374 -0.290544
374 2 48.1097 20.5098 1.6231 48.1097 20.5098 1.6231
375 2 48.48 20.6911 -1.62504 48.48 20.6911 -1.62504
376 1 49.2855 22.2147 0.17974 49.2855 22.2147 0.17974
377 2 51.3227 22.2156 1.64824 51.3227 22.2156 1.64824
378 2 51.0999 22.2357 -1.57537 51.0999 22.2357 -1.57537
379 1 52.1082 23.9024 0.04453 0.77339 23.9024 0.04453
380 2 2.82008 23.9344 1.48135 2.82008 23.9344 1.48135
381 2 2.51961 23.8288 -1.63254 2.51961 23.8288 -1.63254
382 1 3.70157 25.4825 -0.124035 3.70157 25.4825 -0.124035
383 2 5.63549 25.6191 1.44975 5.63549 25.6191 1.44975
384 2 5.51135 25.3904 -1.73433 5.51135 25.3904 -1.73433
385 1 6.52823 23.8525 -0.0771641 6.52823 23.8525 -0.0771641
386 2 8.43669 23.952 1.60352 8.43669 23.952 1.60352
387 2 8.52211 23.7491 -1.6439 8.52211 23.7491 -1.6439
388 1 9.44816 25.5469 -0.0760094 9.44816 25.5469 -0.0760094
389 2 11.3061 25.5385 1.5072 11.3061 25.5385 1.5072
390 2 11.4865 25.5071 -1.73735 11.4865 25.5071 -1.73735
391 1 12.3696 23.8862 -0.162147 12.3696 23.8862 -0.162147
392 2 14.135 23.8069 1.55315 14.135 23.8069 1.55315
393 2 14.3924 23.9195 -1.69971 14.3924 23.9195 -1.69971
394 1 15.0699 25.4775 0.0161741 15.0699 25.4775 0.0161741
395 2 16.9928 25.4333 1.61672 16.9928 25.4333 1.61672
396 2 17.0106 25.5285 -1.62278 17.0106 25.5285 -1.62278
397 1 17.9517 23.7907 -0.0329343 17.9517 23.7907 -0.0329343
398 2 19.9229 23.9323 1.48225 19.9229 23.9323 1.48225
399 2 19.6854 23.8409 -1.78298 19.6854 23.8409 -1.78298
400 1 20.7821 25.4681 -0.207594 20.7821 25.4681 -0.207594
401 2 22.6925 25.8021 1.41717 22.6925 25.8021 1.41717
402 2 22.613 25.2958 -1.82317 22.613 25.2958 -1.82317
403 1 23.5929 23.8753 0.0110556 23.5929 23.8753 0.0110556
404 2 25.5196 24.028 1.61652 25.5196 24.028 1.61652
405 2 25.418 23.6957 -1.63209 25.418 23.6957 -1.63209
406 1 26.4128 25.4766 -0.216177 26.4128 25.4766 -0.216177
407 2 28.3454 25.74 1.43558 28.3454 25.74 1.43558
408 2 28.3623 25.3342 -1.91686 28.3623 25.3342 -1.91686
409 1 29.2498 23.9034 0.0645042 29.2498 23.9034 0.0645042
410 2 31.31 23.8409 1.64789 31.31 23.8409 1.64789
411 2 31.1751 23.828 -1.58012 31.1751 23.828 -1.58012
412 1 32.2899 25.4846 -0.0137286 32.2899 25.4846 -0.0137286
413 2 34.1644 25.5972 1.70076 34.1644 25.5972 1.70076
414 2 34.2706 25.4095 -1.52221 34.2706 25.4095 -1.52221
415 1 35.0874 23.8056 0.19319 35.0874 23.8056 0.19319
416 2 37.0727 23.8697 1.74847 37.0727 23.8697 1.74847
417 2 36.9143 23.7552 -1.50617 36.9143 23.7552 -1.50617
418 1 37.9309 25.4525 0.0415656 37.9309 25.4525 0.0415656
419 2 39.7138 25.5842 1.69625 39.7138 25.5842 1.69625
420 2 39.8112 25.4837 -1.53982 39.8112 25.4837 -1.53982
421 1 40.718 23.8217 0.182782 40.718 23.8217 0.182782
422 2 42.5527 23.9773 1.73145 42.5527 23.9773 1.73145
423 2 42.5592 23.9222 -1.55906 42.5592 23.9222 -1.55906
424 1 43.5674 25.5381 0.044391 43.5674 25.5381 0.044391
425 2 45.554 25.5949 1.63322 45.554 25.5949 1.63322
426 2 45.3564 25.54 -1.6468 45.3564 25.54 -1.6468
427 1 46.3478 23.8712 -0.0352179 46.3478 23.8712 -0.0352179
428 2 48.2275 23.8435 1.66781 48.2275 23.8435 1.66781
429 2 48.3397 23.7862 -1.58324 48.3397 23.7862 -1.58324
430 1 49.2471 25.4975 -0.00883945 49.2471 25.4975 -0.00883945
431 2 51.1993 25.6113 1.59174 51.1993 25.6113 1.59174
432 2 51.1005 25.3823 -1.72601 51.1005 25.3823 -1.72601
433 1 52.1441 27.1931 -0.236703 0.809237 27.1931 -0.236703
434 2 2.66827 27.0958 1.5432 2.66827 27.0958 1.5432
435 2 2.84877 27.378 -1.70118 2.84877 27.378 -1.70118
436 1 3.70966 28.8848 0.146347 3.70966 28.8848 0.146347
437 2 5.82556 28.761 1.5668 5.82556 28.761 1.5668
438 2 5.58306 28.9389 -1.67537 5.58306 28.9389 -1.67537
439 1 6.5243 27.15 -0.266789 6.5243 27.15 -0.266789
440 2 8.31788 27.0084 1.57365 8.31788 27.0084 1.57365
441 2 8.65031 27.1491 -1.70614 8.65031 27.1491 -1.70614
442 1 9.39312 28.8368 0.0584089 9.39312 28.8368 0.0584089
443 2 11.1975 28.9215 1.62941 11.1975 28.9215 1.62941
444 2 11.1845 28.9629 -1.58963 11.1845 28.9629 -1.58963
445 1 12.2446 27.2617 -0.0741512 12.2446 27.2617 -0.0741512
446 2 14.0095 27.1268 1.66776 14.0095 27.1268 1.66776
447 2 14.1245 27.2307 -1.58316 14.1245 27.2307 -1.58316
448 1 15.0234 28.8039 0.199889 15.0234 28.8039 0.199889
449 2 17.0332 28.7467 1.75444 17.0332 28.7467 1.75444
450 2 16.8241 28.922 -1.56938 16.8241 28.922 -1.56938
451 1 17.9417 27.1083 -0.0659151 17.9417 27.1083 -0.0659151
452 2 19.769 27.044 1.51511 19.769 27.044 1.51511
453 2 19.7953 27.2388 -1.80024 19.7953 27.2388 -1.80024
454 1 20.7807 28.6961 -0.101672 20.7807 28.6961 -0.101672
455 2 22.8148 28.7275 1.50661 22.8148 28.7275 1.50661
456 2 22.6045 28.9397 -1.83385 22.6045 28.9397 -1.83385
457 1 23.673 27.1712 -0.449441 23.673 27.1712 -0.449441
458 2 25.5093 27.1402 1.3267 25.5093 27.1402 1.3267
459 2 25.6729 27.2395 -1.89126 25.6729 27.2395 -1.89126
460 1 26.5204 28.8663 -0.205842 26.5204 28.8663 -0.205842
461 2 28.3135 28.5827 1.41129 28.3135 28.5827 1.41129
462 2 28.4643 29.07 -1.84993 28.4643 29.07 -1.84993
463 1 29.3401 27.0955 -0.371357 29.3401 27.0955 -0.371357
464 2 31.1137 27.1542 1.37814 31.1137 27.1542 1.37814
465 2 31.4778 27.1528 -1.77004 31.4778 27.1528 -1.77004
466 1 32.2113 28.8815 -0.183874 32.2113 28.8815 -0.183874
467 2 34.1864 28.9047 1.46997 34.1864 28.9047 1.46997
468 2 34.0994 28.7583 -1.78134 34.0994 28.7583 -1.78134
469 1 35.1412 27.1741 -0.0415948 35.1412 27.1741 -0.0415948
470 2 37.1163 27.2531 1.57216 37.1163 27.2531 1.57216
471 2 37.0403 27.1372 -1.64945 37.0403 27.1372 -1.64945
472 1 37.8766 28.8714 -0.147698 37.8766 28.8714 -0.147698
473 2 39.6999 28.8365 1.58182 39.6999 28.8365 1.58182
474 2 39.9199 28.6945 -1.75366 39.9199 28.6945 -1.75366
475 1 40.7478 27.172 0.0107821 40.7478 27.172 0.0107821
476 2 42.5426 27.2267 1.5678 42.5426 27.2267 1.5678
477 2 42.7646 27.0974 -1.62674 42.7646 27.0974 -1.62674
478 1 43.5798 28.7969 -0.0967609 43.5798 28.7969 -0.0967609
479 2 45.541 28.8994 1.47229 45.541 28.8994 1.47229
480 2 45.4181 28.896 -1.85236 45.4181 28.896 -1.85236
481 1 46.3945 27.2672 -0.200494 46.3945 27.2672 -0.200494
482 2 48.2482 27.3391 1.5252 48.2482 27.3391 1.5252
483 2 48.338 26.9942 -1.75478 48.338 26.9942 -1.75478
484 1 49.2874 28.7783 -0.187671 49.2874 28.7783 -0.187671
485 2 51.1459 28.8429 1.49368 51.1459 28.8429 1.49368
486 2 51.1129 28.9269 -1.74471 51.1129 28.9269 -1.74471
487 1 52.0497 30.515 -0.0716323 0.714807 30.515 -0.0716323
488 2 2.69518 30.6851 1.5774 2.69518 30.6851 1.5774
489 2 2.74072 30.3384 -1.69674 2.74072 30.3384 -1.69674
490 1 3.69635 32.1403 -0.151557 3.69635 32.1403 -0.151557
491 2 5.47718 31.9474 1.57594 5.47718 31.9474 1.57594
492 2 5.63898 32.2015 -1.7208 5.63898 32.2015 -1.7208
493 1 6.59112 30.4388 -0.0888766 6.59112 30.4388 -0.0888766
494 2 8.49304 30.6432 1.67897 8.49304 30.6432 1.67897
495 2 8.52905 30.3634 -1.66141 8.52905 30.3634 -1.66141
496 1 9.3538 32.1392 -0.155888 9.3538 32.1392 -0.155888
497 2 11.0698 32.1995 1.66422 11.0698 32.1995 1.66422
498 2 11.3187 32.1219 -1.6175 11.3187 32.1219 -1.6175
499 1 12.0838 30.5494 0.0700428 12.0838 30.5494 0.0700428
500 2 14.0222 30.5192 1.72926 14.0222 30.5192 1.72926
501 2 14.1132 30.4476 -1.56403 14.1132 30.4476 -1.56403
502 1 15.0011 32.1203 0.0022035 15.0011 32.1203 0.0022035
503 2 16.9055 32.0127 1.73912 16.9055 32.0127 1.73912
504 2 17.0419 32.2079 -1.51852 17.0419 32.2079 -1.51852
505 1 17.8825 30.4369 0.0663421 17.8825 30.4369 0.0663421
506 2 19.825 30.1773 1.74207 19.825 30.1773 1.74207
507 2 19.7946 30.5257 -1.55879 19.7946 30.5257 -1.55879
508 1 20.733 31.9488 0.303219 20.733 31.9488 0.303219
509 2 22.7937 31.8071 1.78216 22.7937 31.8071 1.78216
510 2 22.5055 32.1065 -1.43559 22.5055 32.1065 -1.43559
511 1 23.6205 30.4027 -0.0576748 23.6205 30.4027 -0.0576748
512 2 25.5004 30.2451 1.64877 25.5004 30.2451 1.64877
513 2 25.4928 30.5824 -1.67972 25.4928 30.5824 -1.67972
514 1 26.4549 32.0916 0.24595 26.4549 32.0916 0.24595
515 2 28.4702 32.2034 1.76178 28.4702 32.2034 1.76178
516 2 28.2692 32.083 -1.49799 28.2692 32.083 -1.49799
517 1 29.3047 30.4735 0.0325902 29.3047 30.4735 0.0325902
518 2 31.2819 30.3582 1.61466 31.2819 30.3582 1.61466
519 2 31.154 30.5199 -1.65423 31.154 30.5199 -1.65423
520 1 32.2562 32.0986 -0.00296457 32.2562 32.0986 -0.00296457
521 2 34.2032 31.96 1.58424 34.2032 31.96 1.58424
522 2 34.0132 32.2155 -1.70253 34.0132 32.2155 -1.70253
523 1 35.0902 30.4604 -0.285457 35.0902 30.4604 -0.285457
524 2 36.945 30.4482 1.50318 36.945 30.4482 1.50318
525 2 37.0558 30.5198 -1.804 37.0558 30.5198 -1.804
526 1 37.9222 32.0958 0.0401101 37.9222 32.0958 0.0401101
527 2 39.8781 32.1411 1.66152 39.8781 32.1411 1.66152
528 2 39.6879 31.9494 -1.64834 39.6879 31.9494 -1.64834
529 1 40.7496 30.4101 -0.0838068 40.7496 30.4101 -0.0838068
530 2 42.5868 30.3647 1.56871 42.5868 30.3647 1.56871
531 2 42.7102 30.4751 -1.71366 42.7102 30.4751 -1.71366
532 1 43.6111 32.0296 0.0194314 43.6111 32.0296 0.0194314
533 2 45.5371 32.0843 1.44804 45.5371 32.0843 1.44804
534 2 45.3285 32.2943 -1.71541 45.3285 32.2943 -1.71541
535 1 46.4857 30.4767 -0.306934 46.4857 30.4767 -0.306934
536 2 48.2753 30.4471 1.4411 48.2753 30.4471 1.4411
537 2 48.4872 30.4994 -1.88757 48.4872 30.4994 -1.88757
538 1 49.2773 32.1398 -0.158168 49.2773 32.1398 -0.158168