ITEM: TIMESTEP
41500
ITEM: NUMBER OF ATOMS
810
ITEM: BOX BOUNDS pp pp pp
8.4137701477268123e-01 5.2176227985227342e+01
8.0961581116522285e-01 5.0206599188834083e+01
-1.0000000000000000e+01 1.0000000000000000e+01
ITEM: ATOMS id type x y z xu yu zu
1 1 1.13644 0.924327 0.187793 1.13644 0.924327 0.187793
2 2 2.96795 50.0931 1.86085 2.96795 0.696083 1.86085
3 2 3.0881 1.04199 -1.40494 3.0881 1.04199 -1.40494
4 1 3.97658 2.59776 0.406617 3.97658 2.59776 0.406617
5 2 5.97886 2.35663 1.93941 5.97886 2.35663 1.93941
6 2 5.83214 2.68945 -1.22201 5.83214 2.68945 -1.22201
7 1 6.84431 0.966821 0.129235 6.84431 0.966821 0.129235
8 2 8.71857 0.905813 1.74464 8.71857 0.905813 1.74464
9 2 8.73739 0.911783 -1.46034 8.73739 0.911783 -1.46034
10 1 9.76434 2.59487 0.135712 9.76434 2.59487 0.135712
11 2 11.6859 2.44954 1.65933 11.6859 2.44954 1.65933
12 2 11.622 2.60858 -1.63944 11.622 2.60858 -1.63944
13 1 12.6226 0.942908 -0.0732929 12.6226 0.942908 -0.0732929
14 2 14.6096 50.3209 1.52883 14.6096 0.923939 1.52883
15 2 14.5322 0.996254 -1.73982 14.5322 0.996254 -1.73982
16 1 15.3938 2.62162 -0.0451338 15.3938 2.62162 -0.0451338
17 2 17.3111 2.44514 1.53603 17.3111 2.44514 1.53603
18 2 17.2338 2.88825 -1.75916 17.2338 2.88825 -1.75916
19 1 18.2292 1.04222 -0.31329 18.2292 1.04222 -0.31329
20 2 20.1665 50.5828 1.33516 20.1665 1.18584 1.33516
21 2 19.9988 0.975455 -2.01003 19.9988 0.975455 -2.01003
22 1 21.0629 2.64797 -0.531464 21.0629 2.64797 -0.531464
23 2 22.9368 2.54436 1.18933 22.9368 2.54436 1.18933
24 2 22.9262 2.76585 -2.22832 22.9262 2.76585 -2.22832
25 1 24.0137 0.996079 -0.672228 24.0137 0.996079 -0.672228
26 2 26.0022 0.994451 0.885206 26.0022 0.994451 0.885206
27 2 25.9177 0.811551 -2.33278 25.9177 0.811551 -2.33278
28 1 26.9372 2.5362 -0.84154 26.9372 2.5362 -0.84154
29 2 28.663 2.64474 0.972153 28.663 2.64474 0.972153
30 2 28.9879 2.61532 -2.26846 28.9879 2.61532 -2.26846
31 1 29.7259 0.924661 -0.592407 29.7259 0.924661 -0.592407
32 2 31.5704 0.944167 0.984662 31.5704 0.944167 0.984662
33 2 31.6212 1.04206 -2.27651 31.6212 1.04206 -2.27651
34 1 32.4299 2.60444 -0.628443 32.4299 2.60444 -0.628443
35 2 34.1348 2.46094 1.33619 34.1348 2.46094 1.33619
36 2 34.6416 2.838 -1.81618 34.6416 2.838 -1.81618
37 1 35.3862 0.994283 -0.227857 35.3862 0.994283 -0.227857
38 2 37.193 0.585375 1.43147 37.193 0.585375 1.43147
39 2 37.4035 1.26223 -1.7178 37.4035 1.26223 -1.7178
40 1 38.1909 2.54397 0.229146 38.1909 2.54397 0.229146
41 2 40.2891 2.36771 1.86416 40.2891 2.36771 1.86416
42 2 40.0653 2.64335 -1.5289 40.0653 2.64335 -1.5289
43 1 41.0611 0.892064 -0.136081 41.0611 0.892064 -0.136081
44 2 42.9065 0.853679 1.5898 42.9065 0.853679 1.5898
45 2 43.0271 1.02515 -1.63245 43.0271 1.02515 -1.63245
46 1 43.9741 2.58164 0.0779572 43.9741 2.58164 0.0779572
47 2 45.6928 2.62003 1.94359 45.6928 2.62003 1.94359
48 2 45.9618 2.55796 -1.34483 45.9618 2.55796 -1.34483
49 1 46.826 0.937482 0.36945 46.826 0.937482 0.36945
50 2 48.7219 50.1741 2.05574 48.7219 0.777155 2.05574
51 2 48.7548 1.00259 -1.21409 48.7548 1.00259 -1.21409
52 1 49.6402 2.59451 0.431938 49.6402 2.59451 0.431938
53 2 51.6913 2.58591 1.95009 51.6913 2.58591 1.95009
54 2 51.5768 2.68131 -1.33337 51.5768 2.68131 -1.33337
55 1 1.19287 4.23134 0.380525 1.19287 4.23134 0.380525
56 2 2.93139 3.99765 2.21934 2.93139 3.99765 2.21934
57 2 3.24062 4.32961 -1.01881 3.24062 4.32961 -1.01881
58 1 3.95924 5.85303 0.806218 3.95924 5.85303 0.806218
59 2 6.00192 5.70756 2.21789 6.00192 5.70756 2.21789
60 2 5.79892 6.02485 -1.00304 5.79892 6.02485 -1.00304
61 1 6.81364 4.15012 0.485649 6.81364 4.15012 0.485649
62 2 8.7842 4.07093 2.04789 8.7842 4.07093 2.04789
63 2 8.63344 4.3972 -1.22575 8.63344 4.3972 -1.22575
64 1 9.61467 5.83077 0.515378 9.61467 5.83077 0.515378
65 2 11.589 5.72557 1.93495 11.589 5.72557 1.93495
66 2 11.3041 6.04917 -1.27664 11.3041 6.04917 -1.27664
67 1 12.4538 4.24601 0.0282005 12.4538 4.24601 0.0282005
68 2 14.3953 4.25832 1.59183 14.3953 4.25832 1.59183
69 2 14.2608 4.32333 -1.64335 14.2608 4.32333 -1.64335
70 1 15.1949 5.89785 -0.071785 15.1949 5.89785 -0.071785
71 2 17.1326 5.99127 1.6383 17.1326 5.99127 1.6383
72 2 17.2018 5.8694 -1.57209 17.2018 5.8694 -1.57209
73 1 18.1724 4.28115 0.041955 18.1724 4.28115 0.041955
74 2 20.3908 4.25732 1.30397 20.3908 4.25732 1.30397
75 2 19.8621 4.35514 -1.79661 19.8621 4.35514 -1.79661
76 1 21.0853 5.9293 -0.425447 21.0853 5.9293 -0.425447
77 2 23.1372 5.9086 1.09071 23.1372 5.9086 1.09071
78 2 22.8277 5.79314 -2.13326 22.8277 5.79314 -2.13326
79 1 23.9611 4.22424 -0.447718 23.9611 4.22424 -0.447718
80 2 26.0141 4.07876 1.04612 26.0141 4.07876 1.04612
81 2 25.7329 4.40248 -2.15492 25.7329 4.40248 -2.15492
82 1 26.7225 5.93201 -0.466627 26.7225 5.93201 -0.466627
83 2 28.7423 5.77656 1.23054 28.7423 5.77656 1.23054
84 2 28.6512 6.02199 -2.11488 28.6512 6.02199 -2.11488
85 1 29.593 4.29428 -0.559589 29.593 4.29428 -0.559589
86 2 31.4828 4.14075 1.15117 31.4828 4.14075 1.15117
87 2 31.5607 4.47738 -2.06169 31.5607 4.47738 -2.06169
88 1 32.5279 5.97452 -0.27636 32.5279 5.97452 -0.27636
89 2 34.3125 6.10169 1.64176 34.3125 6.10169 1.64176
90 2 34.6447 5.93618 -1.70089 34.6447 5.93618 -1.70089
91 1 35.3407 4.27672 0.105676 35.3407 4.27672 0.105676
92 2 37.1617 4.12551 1.86656 37.1617 4.12551 1.86656
93 2 37.3519 4.37855 -1.37533 37.3519 4.37855 -1.37533
94 1 38.1471 5.90966 0.398547 38.1471 5.90966 0.398547
95 2 40.0306 5.83902 1.94942 40.0306 5.83902 1.94942
96 2 39.9816 5.96129 -1.26063 39.9816 5.96129 -1.26063
97 1 41.0766 4.21285 0.300482 41.0766 4.21285 0.300482
98 2 43.0634 3.92927 1.86746 43.0634 3.92927 1.86746
99 2 42.8001 4.37946 -1.32977 42.8001 4.37946 -1.32977
100 1 43.7722 5.87378 0.419308 43.7722 5.87378 0.419308
101 2 45.8139 5.93378 2.11822 45.8139 5.93378 2.11822
102 2 45.6749 5.88128 -1.13514 45.6749 5.88128 -1.13514
103 1 46.7398 4.32144 0.425626 46.7398 4.32144 0.425626
104 2 48.4596 4.21716 2.16754 48.4596 4.21716 2.16754
105 2 48.6901 4.27875 -1.14293 48.6901 4.27875 -1.14293
106 1 49.5595 5.88207 0.537454 49.5595 5.88207 0.537454
107 2 51.5353 5.7433 2.13814 51.5353 5.7433 2.13814
108 2 51.508 6.05879 -1.15288 51.508 6.05879 -1.15288
109 1 1.12237 7.55122 0.698887 1.12237 7.55122 0.698887
110 2 3.00283 7.591 2.44124 3.00283 7.591 2.44124
111 2 3.08637 7.50283 -0.814336 3.08637 7.50283 -0.814336
112 1 3.98175 9.16561 0.800377 3.98175 9.16561 0.800377
113 2 6.04487 9.29962 2.30496 6.04487 9.29962 2.30496
114 2 5.74634 9.21664 -0.86214 5.74634 9.21664 -0.86214
115 1 6.86684 7.52801 0.707038 6.86684 7.52801 0.707038
116 2 8.93165 7.6095 2.18148 8.93165 7.6095 2.18148
117 2 8.63602 7.54007 -1.07226 8.63602 7.54007 -1.07226
118 1 9.65572 9.19819 0.482498 9.65572 9.19819 0.482498
119 2 11.6694 9.50406 1.84421 11.6694 9.50406 1.84421
120 2 11.238 9.02108 -1.4087 11.238 9.02108 -1.4087
121 1 12.4355 7.56654 0.396362 12.4355 7.56654 0.396362
122 2 14.5093 7.58598 1.74898 14.5093 7.58598 1.74898
123 2 14.0092 7.61577 -1.55077 14.0092 7.61577 -1.55077
124 1 15.2883 9.26915 0.0201694 15.2883 9.26915 0.0201694
125 2 17.2256 9.49415 1.51477 17.2256 9.49415 1.51477
126 2 17.1179 9.15335 -1.70796 17.1179 9.15335 -1.70796
127 1 18.1749 7.61022 0.0445431 18.1749 7.61022 0.0445431
128 2 20.3068 7.59294 1.35978 20.3068 7.59294 1.35978
129 2 19.7237 7.66045 -1.87248 19.7237 7.66045 -1.87248
130 1 21.0078 9.25633 -0.404078 21.0078 9.25633 -0.404078
131 2 23.0143 9.28837 1.04402 23.0143 9.28837 1.04402
132 2 22.8616 9.18114 -2.19153 22.8616 9.18114 -2.19153
133 1 23.9631 7.57782 -0.521601 23.9631 7.57782 -0.521601
134 2 25.7328 7.57359 1.20971 25.7328 7.57359 1.20971
135 2 25.913 7.53665 -2.08258 25.913 7.53665 -2.08258
136 1 26.7079 9.22913 -0.491833 26.7079 9.22913 -0.491833
137 2 28.4925 9.15082 1.29143 28.4925 9.15082 1.29143
138 2 28.7655 9.30257 -1.9461 28.7655 9.30257 -1.9461
139 1 29.6279 7.59235 -0.404842 29.6279 7.59235 -0.404842
140 2 31.4542 7.52127 1.37749 31.4542 7.52127 1.37749
141 2 31.509 7.6503 -1.87291 31.509 7.6503 -1.87291
142 1 32.4184 9.24608 -0.147531 32.4184 9.24608 -0.147531
143 2 34.404 9.25519 1.5051 34.404 9.25519 1.5051
144 2 34.4032 9.20412 -1.66179 34.4032 9.20412 -1.66179
145 1 35.362 7.604 0.0429605 35.362 7.604 0.0429605
146 2 37.1414 7.67986 1.77827 37.1414 7.67986 1.77827
147 2 37.2516 7.38602 -1.4642 37.2516 7.38602 -1.4642
148 1 38.1552 9.15644 0.00344469 38.1552 9.15644 0.00344469
149 2 39.8673 9.24772 1.89949 39.8673 9.24772 1.89949
150 2 40.1627 9.15075 -1.45449 40.1627 9.15075 -1.45449
151 1 40.9869 7.55924 0.334185 40.9869 7.55924 0.334185
152 2 42.7801 7.50314 2.07897 42.7801 7.50314 2.07897
153 2 42.9564 7.59481 -1.13085 42.9564 7.59481 -1.13085
154 1 43.7763 9.26026 0.547892 43.7763 9.26026 0.547892
155 2 45.6166 9.13239 2.26088 45.6166 9.13239 2.26088
156 2 45.7253 9.45541 -1.00041 45.7253 9.45541 -1.00041
157 1 46.6596 7.57702 0.503887 46.6596 7.57702 0.503887
158 2 48.5186 7.52285 2.21106 48.5186 7.52285 2.21106
159 2 48.6793 7.62544 -1.09349 48.6793 7.62544 -1.09349
160 1 49.584 9.18233 0.648216 49.584 9.18233 0.648216
161 2 51.3623 9.02358 2.29983 51.3623 9.02358 2.29983
162 2 51.6157 9.31375 -0.845018 51.6157 9.31375 -0.845018
163 1 1.08076 10.7729 0.920574 1.08076 10.7729 0.920574
164 2 3.06287 10.8933 2.40749 3.06287 10.8933 2.40749
165 2 2.84753 10.6771 -0.79668 2.84753 10.6771 -0.79668
166 1 3.93602 12.4508 0.593859 3.93602 12.4508 0.593859
167 2 5.94584 12.7145 2.22957 5.94584 12.7145 2.22957
168 2 5.83644 12.3665 -1.09051 5.83644 12.3665 -1.09051
169 1 6.85943 10.9323 0.626517 6.85943 10.9323 0.626517
170 2 8.98409 10.9835 2.10532 8.98409 10.9835 2.10532
171 2 8.65169 10.965 -1.10803 8.65169 10.965 -1.10803
172 1 9.68585 12.6431 0.309732 9.68585 12.6431 0.309732
173 2 11.7834 12.5327 1.7966 11.7834 12.5327 1.7966
174 2 11.3994 12.7617 -1.60798 11.3994 12.7617 -1.60798
175 1 12.4395 10.8919 -0.103625 12.4395 10.8919 -0.103625
176 2 14.2502 10.8875 1.53029 14.2502 10.8875 1.53029
177 2 14.4384 10.9971 -1.75088 14.4384 10.9971 -1.75088
178 1 15.36 12.5991 -0.119115 15.36 12.5991 -0.119115
179 2 17.3673 12.5884 1.39068 17.3673 12.5884 1.39068
180 2 17.0269 12.4096 -1.88351 17.0269 12.4096 -1.88351
181 1 18.1508 10.9034 -0.209792 18.1508 10.9034 -0.209792
182 2 20.2042 11.0242 1.21232 20.2042 11.0242 1.21232
183 2 19.8957 10.8575 -1.97705 19.8957 10.8575 -1.97705
184 1 21.0279 12.5781 -0.506884 21.0279 12.5781 -0.506884
185 2 23.0121 12.474 1.0008 23.0121 12.474 1.0008
186 2 22.9497 12.5944 -2.15044 22.9497 12.5944 -2.15044
187 1 23.8424 10.9261 -0.666238 23.8424 10.9261 -0.666238
188 2 25.6742 10.9281 0.993438 25.6742 10.9281 0.993438
189 2 25.7928 10.6809 -2.2741 25.7928 10.6809 -2.2741
190 1 26.6647 12.5139 -0.677372 26.6647 12.5139 -0.677372
191 2 28.3816 12.4799 1.25369 28.3816 12.4799 1.25369
192 2 28.7902 12.3504 -1.95434 28.7902 12.3504 -1.95434
193 1 29.5554 10.8161 -0.208317 29.5554 10.8161 -0.208317
194 2 31.4147 10.9281 1.46246 31.4147 10.9281 1.46246
195 2 31.5658 10.8012 -1.82243 31.5658 10.8012 -1.82243
196 1 32.4703 12.4978 -0.193086 32.4703 12.4978 -0.193086
197 2 34.3827 12.5073 1.52963 34.3827 12.5073 1.52963
198 2 34.5539 12.5736 -1.78046 34.5539 12.5736 -1.78046
199 1 35.4062 10.9566 -0.201065 35.4062 10.9566 -0.201065
200 2 37.1369 10.7981 1.5415 37.1369 10.7981 1.5415
201 2 37.4573 10.8462 -1.61274 37.4573 10.8462 -1.61274
202 1 38.172 12.5401 0.0813446 38.172 12.5401 0.0813446
203 2 39.9467 12.476 1.85303 39.9467 12.476 1.85303
204 2 40.2932 12.7101 -1.39169 40.2932 12.7101 -1.39169
205 1 40.9567 10.8995 0.203419 40.9567 10.8995 0.203419
206 2 42.6996 10.8993 2.06083 42.6996 10.8993 2.06083
207 2 43.0842 10.9938 -1.18092 43.0842 10.9938 -1.18092
208 1 43.8113 12.6066 0.598753 43.8113 12.6066 0.598753
209 2 45.6246 12.4636 2.37502 45.6246 12.4636 2.37502
210 2 45.857 12.5471 -0.841162 45.857 12.5471 -0.841162
211 1 46.7179 10.9031 0.833881 46.7179 10.9031 0.833881
212 2 48.7152 10.7075 2.42649 48.7152 10.7075 2.42649
213 2 48.5859 11.0256 -0.804298 48.5859 11.0256 -0.804298
214 1 49.5662 12.5811 0.909182 49.5662 12.5811 0.909182
215 2 51.5575 12.5154 2.44498 51.5575 12.5154 2.44498
216 2 51.3831 12.4053 -0.768085 51.3831 12.4053 -0.768085
217 1 1.11508 14.1174 0.751657 1.11508 14.1174 0.751657
218 2 3.10361 14.1304 2.21465 3.10361 14.1304 2.21465
219 2 2.88357 14.0175 -1.04362 2.88357 14.0175 -1.04362
220 1 3.90088 15.7734 0.439201 3.90088 15.7734 0.439201
221 2 5.90037 15.9019 1.93944 5.90037 15.9019 1.93944
222 2 5.59998 15.601 -1.3544 5.59998 15.601 -1.3544
223 1 6.75233 14.1951 0.374728 6.75233 14.1951 0.374728
224 2 8.74226 14.2855 1.90498 8.74226 14.2855 1.90498
225 2 8.58203 14.077 -1.39466 8.58203 14.077 -1.39466
226 1 9.62444 15.8035 0.144599 9.62444 15.8035 0.144599
227 2 11.5092 15.965 1.70946 11.5092 15.965 1.70946
228 2 11.4332 15.6917 -1.60664 11.4332 15.6917 -1.60664
229 1 12.5501 14.2408 0.096691 12.5501 14.2408 0.096691
230 2 14.564 14.3563 1.51029 14.564 14.3563 1.51029
231 2 14.2091 14.1691 -1.77204 14.2091 14.1691 -1.77204
232 1 15.3299 15.8498 -0.38845 15.3299 15.8498 -0.38845
233 2 17.2782 15.8696 1.31109 17.2782 15.8696 1.31109
234 2 17.1867 15.7883 -2.07107 17.1867 15.7883 -2.07107
235 1 18.1609 14.1918 -0.367178 18.1609 14.1918 -0.367178
236 2 20.0125 14.2129 1.20961 20.0125 14.2129 1.20961
237 2 19.9336 14.1715 -2.12647 19.9336 14.1715 -2.12647
238 1 21.0333 15.8256 -0.504767 21.0333 15.8256 -0.504767
239 2 22.8072 15.6827 1.27123 22.8072 15.6827 1.27123
240 2 22.9844 15.9262 -2.01426 22.9844 15.9262 -2.01426
241 1 23.8312 14.1621 -0.496895 23.8312 14.1621 -0.496895
242 2 25.6859 13.8903 1.19756 25.6859 13.8903 1.19756
243 2 25.727 14.4366 -2.05421 25.727 14.4366 -2.05421
244 1 26.7487 15.8189 -0.207129 26.7487 15.8189 -0.207129
245 2 28.5888 15.8059 1.42982 28.5888 15.8059 1.42982
246 2 28.6455 15.8319 -1.79831 28.6455 15.8319 -1.79831
247 1 29.5054 14.0478 -0.248283 29.5054 14.0478 -0.248283
248 2 31.2972 13.9923 1.49584 31.2972 13.9923 1.49584
249 2 31.5375 14.3361 -1.74 31.5375 14.3361 -1.74
250 1 32.3615 15.7439 0.24568 32.3615 15.7439 0.24568
251 2 34.3507 15.579 1.79531 34.3507 15.579 1.79531
252 2 34.2051 15.9763 -1.48309 34.2051 15.9763 -1.48309
253 1 35.313 14.2042 -0.0676652 35.313 14.2042 -0.0676652
254 2 37.1209 14.0869 1.75476 37.1209 14.0869 1.75476
255 2 37.4459 14.251 -1.58507 37.4459 14.251 -1.58507
256 1 38.1201 15.8392 0.261255 38.1201 15.8392 0.261255
257 2 39.9581 16.0953 1.94629 39.9581 16.0953 1.94629
258 2 39.9211 15.8054 -1.32837 39.9211 15.8054 -1.32837
259 1 41.0418 14.2733 0.414452 41.0418 14.2733 0.414452
260 2 42.8796 14.3947 2.08052 42.8796 14.3947 2.08052
261 2 42.9014 14.1568 -1.17475 42.9014 14.1568 -1.17475
262 1 43.9384 15.9062 0.39836 43.9384 15.9062 0.39836
263 2 45.5972 16.151 2.28652 45.5972 16.151 2.28652
264 2 45.9978 15.7084 -0.968915 45.9978 15.7084 -0.968915
265 1 46.6495 14.255 0.897984 46.6495 14.255 0.897984
266 2 48.587 14.2174 2.47543 48.587 14.2174 2.47543
267 2 48.5401 14.1388 -0.694023 48.5401 14.1388 -0.694023
268 1 49.5721 15.8435 0.873775 49.5721 15.8435 0.873775
269 2 51.5699 15.7709 2.5163 51.5699 15.7709 2.5163
270 2 51.4115 15.7693 -0.789481 51.4115 15.7693 -0.789481
271 1 1.07071 17.4665 0.841735 1.07071 17.4665 0.841735
272 2 3.27353 17.5555 2.18278 3.27353 17.5555 2.18278
273 2 2.64243 17.355 -1.11591 2.64243 17.355 -1.11591
274 1 3.80511 19.0495 0.340574 3.80511 19.0495 0.340574
275 2 5.88318 19.0122 1.7516 5.88318 19.0122 1.7516
276 2 5.56165 19.1306 -1.41999 5.56165 19.1306 -1.41999
277 1 6.6688 17.3852 0.097621 6.6688 17.3852 0.097621
278 2 8.53568 17.4554 1.67291 8.53568 17.4554 1.67291
279 2 8.58369 17.3857 -1.62648 8.58369 17.3857 -1.62648
280 1 9.51307 19.1201 0.0291998 9.51307 19.1201 0.0291998
281 2 11.5516 19.1459 1.56125 11.5516 19.1459 1.56125
282 2 11.273 19.0758 -1.64634 11.273 19.0758 -1.64634
283 1 12.4733 17.4475 -0.0964206 12.4733 17.4475 -0.0964206
284 2 14.6312 17.5511 1.18393 14.6312 17.5511 1.18393
285 2 14.0542 17.4014 -1.9948 14.0542 17.4014 -1.9948
286 1 15.3196 19.0645 -0.6424 15.3196 19.0645 -0.6424
287 2 17.1805 19.2284 1.0382 17.1805 19.2284 1.0382
288 2 17.3681 19.0119 -2.17517 17.3681 19.0119 -2.17517
289 1 18.1376 17.506 -0.452696 18.1376 17.506 -0.452696
290 2 19.9562 17.4248 1.18734 19.9562 17.4248 1.18734
291 2 20.0842 17.6307 -2.04713 20.0842 17.6307 -2.04713
292 1 20.9986 19.1656 -0.303533 20.9986 19.1656 -0.303533
293 2 22.8165 18.9607 1.29377 22.8165 18.9607 1.29377
294 2 22.9754 19.092 -1.90127 22.9754 19.092 -1.90127
295 1 23.8353 17.4235 -0.249548 23.8353 17.4235 -0.249548
296 2 25.6579 17.2797 1.50716 25.6579 17.2797 1.50716
297 2 25.881 17.6057 -1.75137 25.881 17.6057 -1.75137
298 1 26.6968 19.0633 0.0631154 26.6968 19.0633 0.0631154
299 2 28.767 18.9365 1.55817 28.767 18.9365 1.55817
300 2 28.5576 19.1315 -1.64584 28.5576 19.1315 -1.64584
301 1 29.605 17.4568 -0.118179 29.605 17.4568 -0.118179
302 2 31.2597 17.5082 1.78461 31.2597 17.5082 1.78461
303 2 31.6281 17.3963 -1.46385 31.6281 17.3963 -1.46385
304 1 32.4035 19.0422 0.246259 32.4035 19.0422 0.246259
305 2 34.1871 18.9748 1.9714 34.1871 18.9748 1.9714
306 2 34.3873 19.13 -1.26309 34.3873 19.13 -1.26309
307 1 35.2122 17.4062 0.323132 35.2122 17.4062 0.323132
308 2 37.1398 17.5019 1.89423 37.1398 17.5019 1.89423
309 2 37.2663 17.4738 -1.31357 37.2663 17.4738 -1.31357
310 1 38.1673 19.1264 0.332219 38.1673 19.1264 0.332219
311 2 40.0878 19.0502 1.90819 40.0878 19.0502 1.90819
312 2 40.0957 19.221 -1.25605 40.0957 19.221 -1.25605
313 1 41.0201 17.481 0.247995 41.0201 17.481 0.247995
314 2 42.9158 17.533 1.99636 42.9158 17.533 1.99636
315 2 42.9641 17.3614 -1.2746 42.9641 17.3614 -1.2746
316 1 43.8695 19.1068 0.418221 43.8695 19.1068 0.418221
317 2 45.5667 19.2269 2.1894 45.5667 19.2269 2.1894
318 2 45.9302 19.0573 -1.1435 45.9302 19.0573 -1.1435
319 1 46.7097 17.5723 0.635943 46.7097 17.5723 0.635943
320 2 48.4956 17.6382 2.32527 48.4956 17.6382 2.32527
321 2 48.6884 17.4481 -0.890599 48.6884 17.4481 -0.890599
322 1 49.5778 19.1268 0.754032 49.5778 19.1268 0.754032
323 2 51.6329 19.3219 2.27642 51.6329 19.3219 2.27642
324 2 51.3898 18.9016 -0.950461 51.3898 18.9016 -0.950461
325 1 1.01784 20.7374 0.343856 1.01784 20.7374 0.343856
326 2 2.97226 20.8184 1.87373 2.97226 20.8184 1.87373
327 2 2.90947 20.6902 -1.42262 2.90947 20.6902 -1.42262
328 1 3.94261 22.3916 0.190108 3.94261 22.3916 0.190108
329 2 5.93521 22.4663 1.71228 5.93521 22.4663 1.71228
330 2 5.65933 22.4059 -1.55062 5.65933 22.4059 -1.55062
331 1 6.74705 20.8232 0.0600169 6.74705 20.8232 0.0600169
332 2 8.73932 20.879 1.51326 8.73932 20.879 1.51326
333 2 8.47808 20.6841 -1.72251 8.47808 20.6841 -1.72251
334 1 9.58614 22.3924 -0.289394 9.58614 22.3924 -0.289394
335 2 11.5392 22.603 1.34124 11.5392 22.603 1.34124
336 2 11.5143 22.1214 -1.97308 11.5143 22.1214 -1.97308
337 1 12.4515 20.7027 -0.103149 12.4515 20.7027 -0.103149
338 2 14.5004 20.4346 1.19447 14.5004 20.4346 1.19447
339 2 14.0989 20.7314 -1.92065 14.0989 20.7314 -1.92065
340 1 15.1828 22.2879 -0.389939 15.1828 22.2879 -0.389939
341 2 17.3133 22.5323 0.887099 17.3133 22.5323 0.887099
342 2 16.8374 22.2643 -2.38512 16.8374 22.2643 -2.38512
343 1 18.1361 20.7451 -0.727028 18.1361 20.7451 -0.727028
344 2 19.9407 20.9236 1.00231 19.9407 20.9236 1.00231
345 2 20.1586 20.7064 -2.18632 20.1586 20.7064 -2.18632
346 1 21.0016 22.3981 -0.621026 21.0016 22.3981 -0.621026
347 2 22.7488 22.5288 1.23211 22.7488 22.5288 1.23211
348 2 23.1036 22.3663 -2.01218 23.1036 22.3663 -2.01218
349 1 23.8544 20.7145 -0.224982 23.8544 20.7145 -0.224982
350 2 25.66 20.7033 1.51356 25.66 20.7033 1.51356
351 2 25.9776 20.6528 -1.7838 25.9776 20.6528 -1.7838
352 1 26.7427 22.357 -0.101531 26.7427 22.357 -0.101531
353 2 28.5981 22.3107 1.54275 28.5981 22.3107 1.54275
354 2 28.6891 22.2859 -1.77323 28.6891 22.2859 -1.77323
355 1 29.7183 20.6688 -0.0496117 29.7183 20.6688 -0.0496117
356 2 31.3375 20.6385 1.7874 31.3375 20.6385 1.7874
357 2 31.7734 20.7277 -1.48003 31.7734 20.7277 -1.48003
358 1 32.4907 22.3039 0.304252 32.4907 22.3039 0.304252
359 2 34.1853 22.3787 2.16453 34.1853 22.3787 2.16453
360 2 34.4867 22.412 -1.23748 34.4867 22.412 -1.23748
361 1 35.3058 20.7015 0.497141 35.3058 20.7015 0.497141
362 2 37.3227 20.7032 2.02291 37.3227 20.7032 2.02291
363 2 37.083 20.7197 -1.23107 37.083 20.7197 -1.23107
364 1 38.2016 22.4266 0.326504 38.2016 22.4266 0.326504
365 2 40.0183 22.37 2.00424 40.0183 22.37 2.00424
366 2 40.1133 22.4505 -1.26071 40.1133 22.4505 -1.26071
367 1 41.0465 20.7694 0.429204 41.0465 20.7694 0.429204
368 2 43.0412 20.8489 2.01589 43.0412 20.8489 2.01589
369 2 42.7751 20.7428 -1.2453 42.7751 20.7428 -1.2453
370 1 43.8022 22.3961 0.260664 43.8022 22.3961 0.260664
371 2 45.738 22.6351 1.94808 45.738 22.6351 1.94808
372 2 45.6995 22.2096 -1.28334 45.6995 22.2096 -1.28334
373 1 46.7069 20.7776 0.550342 46.7069 20.7776 0.550342
374 2 48.5157 20.9209 2.18763 48.5157 20.9209 2.18763
375 2 48.5898 20.4773 -1.0495 48.5898 20.4773 -1.0495
376 1 49.5005 22.4186 0.364341 49.5005 22.4186 0.364341
377 2 51.4149 22.445 2.01056 51.4149 22.445 2.01056
378 2 51.4059 22.3791 -1.32994 51.4059 22.3791 -1.32994
379 1 1.09837 24.0443 0.33516 1.09837 24.0443 0.33516
380 2 3.1654 24.2228 1.73961 3.1654 24.2228 1.73961
381 2 2.78166 23.8965 -1.34243 2.78166 23.8965 -1.34243
382 1 3.9708 25.6769 0.000599858 3.9708 25.6769 0.000599858
383 2 6.06912 25.8126 1.47465 6.06912 25.8126 1.47465
384 2 5.63927 25.4661 -1.81716 5.63927 25.4661 -1.81716
385 1 6.76561 24.0611 -0.0702094 6.76561 24.0611 -0.0702094
386 2 8.85597 24.0379 1.40554 8.85597 24.0379 1.40554
387 2 8.51814 23.9735 -1.87977 8.51814 23.9735 -1.87977
388 1 9.67421 25.6639 -0.362678 9.67421 25.6639 -0.362678
389 2 11.7426 25.9024 0.885802 11.7426 25.9024 0.885802
390 2 11.2777 25.5441 -2.25655 11.2777 25.5441 -2.25655
391 1 12.4302 24.0223 -0.590096 12.4302 24.0223 -0.590096
392 2 14.3777 24.2611 1.02439 14.3777 24.2611 1.02439
393 2 14.2424 23.7145 -2.27069 14.2424 23.7145 -2.27069
394 1 15.2394 25.6027 -0.903014 15.2394 25.6027 -0.903014
395 2 17.2799 25.7229 0.598849 17.2799 25.7229 0.598849
396 2 17.0314 25.472 -2.66582 17.0314 25.472 -2.66582
397 1 18.0235 23.9835 -1.02564 18.0235 23.9835 -1.02564
398 2 19.8627 24.1635 0.796258 19.8627 24.1635 0.796258
399 2 20.0449 23.8426 -2.48369 20.0449 23.8426 -2.48369
400 1 20.9352 25.6012 -0.848383 20.9352 25.6012 -0.848383
401 2 22.7329 25.9289 0.939196 22.7329 25.9289 0.939196
402 2 22.8973 25.5051 -2.33921 22.8973 25.5051 -2.33921
403 1 23.8538 24.0969 -0.392268 23.8538 24.0969 -0.392268
404 2 25.7524 24.1252 1.34052 25.7524 24.1252 1.34052
405 2 25.9306 23.809 -1.96178 25.9306 23.809 -1.96178
406 1 26.7909 25.6584 -0.433453 26.7909 25.6584 -0.433453
407 2 28.5691 25.7546 1.37769 28.5691 25.7546 1.37769
408 2 28.833 25.5138 -1.92097 28.833 25.5138 -1.92097
409 1 29.635 23.904 -0.00750579 29.635 23.904 -0.00750579
410 2 31.3444 23.8943 1.83861 31.3444 23.8943 1.83861
411 2 31.7947 23.9304 -1.4333 31.7947 23.9304 -1.4333
412 1 32.4258 25.6016 0.289838 32.4258 25.6016 0.289838
413 2 34.2114 25.5271 1.97003 34.2114 25.5271 1.97003
414 2 34.4161 25.6626 -1.1949 34.4161 25.6626 -1.1949
415 1 35.2687 24.0155 0.463944 35.2687 24.0155 0.463944
416 2 37.1946 24.0581 2.02511 37.1946 24.0581 2.02511
417 2 37.1422 24.1432 -1.22167 37.1422 24.1432 -1.22167
418 1 38.1686 25.705 0.335513 38.1686 25.705 0.335513
419 2 39.9895 25.5649 2.00839 39.9895 25.5649 2.00839
420 2 40.0658 25.7734 -1.19365 40.0658 25.7734 -1.19365
421 1 41.0227 24.0946 0.300802 41.0227 24.0946 0.300802
422 2 42.9162 23.9526 1.96762 42.9162 23.9526 1.96762
423 2 42.8549 24.0102 -1.41723 42.8549 24.0102 -1.41723
424 1 43.8608 25.6276 0.248408 43.8608 25.6276 0.248408
425 2 45.897 25.8805 1.7228 45.897 25.8805 1.7228
426 2 45.6109 25.6815 -1.61635 45.6109 25.6815 -1.61635
427 1 46.6659 24.1167 0.118858 46.6659 24.1167 0.118858
428 2 48.4964 24.1725 1.74857 48.4964 24.1725 1.74857
429 2 48.69 23.9442 -1.37438 48.69 23.9442 -1.37438
430 1 49.6268 25.6545 0.121595 49.6268 25.6545 0.121595
431 2 51.4783 25.8497 1.7396 51.4783 25.8497 1.7396
432 2 51.5966 25.5605 -1.43556 51.5966 25.5605 -1.43556
433 1 1.15759 27.3072 0.118773 1.15759 27.3072 0.118773
434 2 3.24358 27.4677 1.48571 3.24358 27.4677 1.48571
435 2 2.93986 27.105 -1.70568 2.93986 27.105 -1.70568
436 1 3.97501 28.9781 -0.351384 3.97501 28.9781 -0.351384
437 2 6.0077 29.0714 1.14147 6.0077 29.0714 1.14147
438 2 5.81174 28.8992 -2.16485 5.81174 28.8992 -2.16485
439 1 6.86217 27.2284 -0.534898 6.86217 27.2284 -0.534898
440 2 8.81259 27.5036 1.0148 8.81259 27.5036 1.0148
441 2 8.63454 27.0065 -2.23059 8.63454 27.0065 -2.23059
442 1 9.6881 28.8635 -0.921329 9.6881 28.8635 -0.921329
443 2 11.7636 29.0085 0.644955 11.7636 29.0085 0.644955
444 2 11.4944 28.9592 -2.62863 11.4944 28.9592 -2.62863
445 1 12.5394 27.2979 -1.00101 12.5394 27.2979 -1.00101
446 2 14.5385 27.5056 0.527403 14.5385 27.5056 0.527403
447 2 14.3376 27.0457 -2.66699 14.3376 27.0457 -2.66699
448 1 15.4178 28.9696 -1.39127 15.4178 28.9696 -1.39127
449 2 17.1388 29.1548 0.35479 17.1388 29.1548 0.35479
450 2 17.3927 28.7699 -2.98008 17.3927 28.7699 -2.98008
451 1 18.1387 27.3187 -1.23723 18.1387 27.3187 -1.23723
452 2 20.0336 27.4488 0.461009 20.0336 27.4488 0.461009
453 2 20.1137 27.0023 -2.74673 20.1137 27.0023 -2.74673
454 1 21.0424 28.935 -1.31372 21.0424 28.935 -1.31372
455 2 22.7091 28.9514 0.617248 22.7091 28.9514 0.617248
456 2 23.1964 28.8318 -2.67469 23.1964 28.8318 -2.67469
457 1 23.8252 27.2418 -0.817076 23.8252 27.2418 -0.817076
458 2 25.6051 27.3206 1.04982 25.6051 27.3206 1.04982
459 2 25.9768 27.1567 -2.20704 25.9768 27.1567 -2.20704
460 1 26.6932 28.8948 -0.527857 26.6932 28.8948 -0.527857
461 2 28.6082 28.9419 1.33461 28.6082 28.9419 1.33461
462 2 28.7206 28.8663 -1.99441 28.7206 28.8663 -1.99441
463 1 29.5969 27.2926 -0.276901 29.5969 27.2926 -0.276901
464 2 31.2568 27.4111 1.66279 31.2568 27.4111 1.66279
465 2 31.7288 26.9577 -1.57399 31.7288 26.9577 -1.57399
466 1 32.5267 28.8433 0.0111354 32.5267 28.8433 0.0111354
467 2 34.1762 29.1609 1.8481 34.1762 29.1609 1.8481
468 2 34.725 28.753 -1.36709 34.725 28.753 -1.36709
469 1 35.385 27.319 0.499891 35.385 27.319 0.499891
470 2 37.3 27.4202 2.03462 37.3 27.4202 2.03462
471 2 37.1711 27.3 -1.34446 37.1711 27.3 -1.34446
472 1 38.2451 28.9929 0.308854 38.2451 28.9929 0.308854
473 2 40.1657 29.103 1.98944 40.1657 29.103 1.98944
474 2 40.2097 28.8131 -1.20361 40.2097 28.8131 -1.20361
475 1 41.0599 27.3422 0.546467 41.0599 27.3422 0.546467
476 2 43.0983 27.2595 1.97495 43.0983 27.2595 1.97495
477 2 42.758 27.2394 -1.32727 42.758 27.2394 -1.32727
478 1 43.8727 28.8221 0.189562 43.8727 28.8221 0.189562
479 2 45.8216 28.8623 1.71985 45.8216 28.8623 1.71985
480 2 45.674 29.0621 -1.53224 45.674 29.0621 -1.53224
481 1 46.7982 27.3039 -0.0909352 46.7982 27.3039 -0.0909352
482 2 48.7421 27.4903 1.57317 48.7421 27.4903 1.57317
483 2 48.7607 27.2438 -1.62887 48.7607 27.2438 -1.62887
484 1 49.6415 28.9653 -0.052513 49.6415 28.9653 -0.052513
485 2 51.5371 29.0532 1.60779 51.5371 29.0532 1.60779
486 2 51.5347 28.7431 -1.65303 51.5347 28.7431 -1.65303
487 1 1.18115 30.5828 -0.209746 1.18115 30.5828 -0.209746
488 2 3.11604 30.6733 1.19718 3.11604 30.6733 1.19718
489 2 2.88239 30.4343 -2.0732 2.88239 30.4343 -2.0732
490 1 4.00862 32.188 -0.563624 4.00862 32.188 -0.563624
491 2 6.03572 32.2862 0.882202 6.03572 32.2862 0.882202
492 2 5.7965 32.1148 -2.42527 5.7965 32.1148 -2.42527
493 1 6.76098 30.508 -0.672476 6.76098 30.508 -0.672476
494 2 8.88648 30.5957 0.706118 8.88648 30.5957 0.706118
495 2 8.48779 30.5736 -2.54448 8.48779 30.5736 -2.54448
496 1 9.63349 32.2347 -1.03031 9.63349 32.2347 -1.03031
497 2 11.7596 32.2681 0.567616 11.7596 32.2681 0.567616
498 2 11.413 32.1666 -2.69855 11.413 32.1666 -2.69855
499 1 12.5437 30.6466 -1.12407 12.5437 30.6466 -1.12407
500 2 14.6041 30.6958 0.340095 14.6041 30.6958 0.340095
501 2 14.2311 30.5153 -3.03505 14.2311 30.5153 -3.03505
502 1 15.3695 32.2097 -1.53207 15.3695 32.2097 -1.53207
503 2 17.2123 32.3088 0.0900308 17.2123 32.3088 0.0900308
504 2 17.2846 32.0597 -3.16061 17.2846 32.0597 -3.16061
505 1 18.281 30.6101 -1.35437 18.281 30.6101 -1.35437
506 2 20.0435 30.5771 0.437827 20.0435 30.5771 0.437827
507 2 20.3105 30.6452 -2.94312 20.3105 30.6452 -2.94312
508 1 21.054 32.1859 -1.16744 21.054 32.1859 -1.16744
509 2 22.8277 32.3218 0.576013 22.8277 32.3218 0.576013
510 2 23.1254 32.2274 -2.68214 23.1254 32.2274 -2.68214
511 1 23.8433 30.5595 -1.01213 23.8433 30.5595 -1.01213
512 2 25.6038 30.68 0.823649 25.6038 30.68 0.823649
513 2 26.0694 30.3396 -2.39469 26.0694 30.3396 -2.39469
514 1 26.7837 32.1536 -0.827486 26.7837 32.1536 -0.827486
515 2 28.4556 32.2259 0.990009 28.4556 32.2259 0.990009
516 2 28.8446 32.1234 -2.24846 28.8446 32.1234 -2.24846
517 1 29.6176 30.5311 -0.422997 29.6176 30.5311 -0.422997
518 2 31.2972 30.5553 1.42846 31.2972 30.5553 1.42846
519 2 31.683 30.4155 -1.78308 31.683 30.4155 -1.78308
520 1 32.5007 32.2908 -0.171045 32.5007 32.2908 -0.171045
521 2 34.4083 32.5787 1.45401 34.4083 32.5787 1.45401
522 2 34.3605 31.8728 -1.70046 34.3605 31.8728 -1.70046
523 1 35.4419 30.6358 0.144885 35.4419 30.6358 0.144885
524 2 37.2687 30.6898 1.86975 37.2687 30.6898 1.86975
525 2 37.3997 30.5539 -1.42199 37.3997 30.5539 -1.42199
526 1 38.3239 32.3222 0.20154 38.3239 32.3222 0.20154
527 2 40.3093 32.5194 1.70081 40.3093 32.5194 1.70081
528 2 40.0933 31.9567 -1.49622 40.0933 31.9567 -1.49622
529 1 41.14 30.6167 0.287311 41.14 30.6167 0.287311
530 2 43.1119 30.599 1.77509 43.1119 30.599 1.77509
531 2 42.9032 30.4832 -1.47597 42.9032 30.4832 -1.47597
532 1 44.0433 32.1577 -0.0737793 44.0433 32.1577 -0.0737793
533 2 45.9457 32.3825 1.55436 45.9457 32.3825 1.55436
534 2 45.9661 32.043 -1.77545 45.9661 32.043 -1.77545
535 1 46.895 30.5341 0.0454134 46.895 30.5341 0.0454134
536 2 48.8125 30.7646 1.5047 48.8125 30.7646 1.5047
537 2 48.6722 30.5572 -1.68722 48.6722 30.5572 -1.68722
538 1 49.6369 32.3096 -0.196084 49.6369 32.3096 -0.196084
539 2 51.6134 32.2448 1.41019 51.6134 32.2448 1.41019