ITEM: TIMESTEP
49900
ITEM: NUMBER OF ATOMS
810
ITEM: BOX BOUNDS pp pp pp
8.4137701477268123e-01 5.2176227985227342e+01
8.0961581116522285e-01 5.0206599188834083e+01
-1.0000000000000000e+01 1.0000000000000000e+01
ITEM: ATOMS id type x y z xu yu zu
1 1 0.969535 1.03463 0.250632 0.969535 1.03463 0.250632
2 2 2.93367 0.753049 1.83484 2.93367 0.753049 1.83484
3 2 2.73835 1.26156 -1.42751 2.73835 1.26156 -1.42751
4 1 3.86829 2.65362 0.400175 3.86829 2.65362 0.400175
5 2 5.91087 2.54401 1.78336 5.91087 2.54401 1.78336
6 2 5.51754 2.92955 -1.44784 5.51754 2.92955 -1.44784
7 1 6.68253 0.987172 -0.067075 6.68253 0.987172 -0.067075
8 2 8.46876 50.3583 1.75576 8.46876 0.961343 1.75576
9 2 8.6981 1.05194 -1.39397 8.6981 1.05194 -1.39397
10 1 9.51608 2.62188 0.271792 9.51608 2.62188 0.271792
11 2 11.5693 2.56371 1.90295 11.5693 2.56371 1.90295
12 2 11.4771 2.6453 -1.38423 11.4771 2.6453 -1.38423
13 1 12.5068 0.980168 0.266451 12.5068 0.980168 0.266451
14 2 14.5206 49.9804 1.53733 14.5206 0.583444 1.53733
15 2 14.0958 1.28765 -1.6729 14.0958 1.28765 -1.6729
16 1 15.2361 2.54039 0.190933 15.2361 2.54039 0.190933
17 2 17.3984 2.48316 1.56519 17.3984 2.48316 1.56519
18 2 16.8729 2.85289 -1.6962 16.8729 2.85289 -1.6962
19 1 18.0727 1.07577 -0.347062 18.0727 1.07577 -0.347062
20 2 20.102 0.969446 1.13434 20.102 0.969446 1.13434
21 2 19.9099 1.29356 -2.09655 19.9099 1.29356 -2.09655
22 1 20.954 2.66504 -0.430147 20.954 2.66504 -0.430147
23 2 22.984 2.55097 1.06831 22.984 2.55097 1.06831
24 2 22.6918 2.75992 -2.20843 22.6918 2.75992 -2.20843
25 1 23.8842 1.06116 -0.803073 23.8842 1.06116 -0.803073
26 2 25.7168 50.3355 0.941468 25.7168 0.938561 0.941468
27 2 25.9272 1.03093 -2.24853 25.9272 1.03093 -2.24853
28 1 26.7083 2.67319 -0.443693 26.7083 2.67319 -0.443693
29 2 28.7519 2.74357 1.10699 28.7519 2.74357 1.10699
30 2 28.43 2.65046 -2.18309 28.43 2.65046 -2.18309
31 1 29.5647 1.09812 -0.617365 29.5647 1.09812 -0.617365
32 2 31.482 0.831897 1.04378 31.482 0.831897 1.04378
33 2 31.6074 1.18321 -2.27015 31.6074 1.18321 -2.27015
34 1 32.4496 2.61728 -0.426706 32.4496 2.61728 -0.426706
35 2 34.253 2.60789 1.40731 34.253 2.60789 1.40731
36 2 34.5394 2.8076 -1.8998 34.5394 2.8076 -1.8998
37 1 35.2641 1.05364 -0.261104 35.2641 1.05364 -0.261104
38 2 36.9358 0.787443 1.51414 36.9358 0.787443 1.51414
39 2 37.3002 1.34686 -1.73978 37.3002 1.34686 -1.73978
40 1 38.1272 2.69639 0.229116 38.1272 2.69639 0.229116
41 2 40.0406 2.5553 1.8308 40.0406 2.5553 1.8308
42 2 39.9453 2.98779 -1.42974 39.9453 2.98779 -1.42974
43 1 40.9376 1.14733 0.00813803 40.9376 1.14733 0.00813803
44 2 42.7315 0.838004 1.84409 42.7315 0.838004 1.84409
45 2 43.0085 1.23454 -1.34286 43.0085 1.23454 -1.34286
46 1 43.7747 2.79422 0.517864 43.7747 2.79422 0.517864
47 2 45.7439 2.53836 2.12628 45.7439 2.53836 2.12628
48 2 45.66 2.89418 -1.23551 45.66 2.89418 -1.23551
49 1 46.5929 1.05287 0.250474 46.5929 1.05287 0.250474
50 2 48.4256 0.851005 1.9767 48.4256 0.851005 1.9767
51 2 48.5137 1.32341 -1.33754 48.5137 1.32341 -1.33754
52 1 49.55 2.58646 0.525667 49.55 2.58646 0.525667
53 2 51.5498 2.55309 2.02057 51.5498 2.55309 2.02057
54 2 51.3373 2.81943 -1.17036 51.3373 2.81943 -1.17036
55 1 0.983209 4.3012 0.47368 0.983209 4.3012 0.47368
56 2 2.90383 4.39203 1.95752 2.90383 4.39203 1.95752
57 2 2.79173 4.29677 -1.31055 2.79173 4.29677 -1.31055
58 1 3.84645 5.99075 0.264265 3.84645 5.99075 0.264265
59 2 5.752 5.89905 1.84427 5.752 5.89905 1.84427
60 2 5.67322 6.0759 -1.41335 5.67322 6.0759 -1.41335
61 1 6.70707 4.27655 0.177612 6.70707 4.27655 0.177612
62 2 8.52828 4.28107 1.78724 8.52828 4.28107 1.78724
63 2 8.6445 4.1831 -1.46604 8.6445 4.1831 -1.46604
64 1 9.65913 5.88991 0.167008 9.65913 5.88991 0.167008
65 2 11.3726 5.72699 1.89457 11.3726 5.72699 1.89457
66 2 11.7303 6.02529 -1.2492 11.7303 6.02529 -1.2492
67 1 12.4559 4.25098 0.28784 12.4559 4.25098 0.28784
68 2 14.4181 4.10281 1.84416 14.4181 4.10281 1.84416
69 2 14.3446 4.30726 -1.34557 14.3446 4.30726 -1.34557
70 1 15.3154 5.88518 0.304721 15.3154 5.88518 0.304721
71 2 17.2854 5.80112 1.76525 17.2854 5.80112 1.76525
72 2 17.2262 5.98813 -1.48548 17.2262 5.98813 -1.48548
73 1 18.1438 4.25828 -0.00943321 18.1438 4.25828 -0.00943321
74 2 20.274 4.15974 1.39194 20.274 4.15974 1.39194
75 2 19.9444 4.50662 -1.88215 19.9444 4.50662 -1.88215
76 1 21.0778 5.98846 -0.219923 21.0778 5.98846 -0.219923
77 2 22.9757 5.7945 1.35922 22.9757 5.7945 1.35922
78 2 22.8647 6.13851 -1.85413 22.8647 6.13851 -1.85413
79 1 23.8157 4.28404 -0.438439 23.8157 4.28404 -0.438439
80 2 25.7649 4.28991 1.15482 25.7649 4.28991 1.15482
81 2 25.8815 4.34256 -2.09204 25.8815 4.34256 -2.09204
82 1 26.7145 5.93825 -0.465826 26.7145 5.93825 -0.465826
83 2 28.6045 5.70882 1.24331 28.6045 5.70882 1.24331
84 2 28.6436 6.15344 -2.03807 28.6436 6.15344 -2.03807
85 1 29.5776 4.31658 -0.658441 29.5776 4.31658 -0.658441
86 2 31.2823 4.14278 1.10119 31.2823 4.14278 1.10119
87 2 31.6705 4.20669 -2.08128 31.6705 4.20669 -2.08128
88 1 32.3952 5.99615 -0.27764 32.3952 5.99615 -0.27764
89 2 34.0812 5.78978 1.59604 34.0812 5.78978 1.59604
90 2 34.5803 6.16731 -1.64579 34.5803 6.16731 -1.64579
91 1 35.2803 4.31955 -0.0832068 35.2803 4.31955 -0.0832068
92 2 36.8443 4.24813 1.74519 36.8443 4.24813 1.74519
93 2 37.4209 4.46415 -1.48872 37.4209 4.46415 -1.48872
94 1 38.0953 6.06425 0.322426 38.0953 6.06425 0.322426
95 2 39.8814 5.7508 2.12356 39.8814 5.7508 2.12356
96 2 40.1465 6.10195 -1.16409 40.1465 6.10195 -1.16409
97 1 40.9289 4.38506 0.36344 40.9289 4.38506 0.36344
98 2 42.7758 4.40691 2.14 42.7758 4.40691 2.14
99 2 42.9708 4.57458 -1.04299 42.9708 4.57458 -1.04299
100 1 43.8049 6.06602 0.768593 43.8049 6.06602 0.768593
101 2 45.7725 5.8226 2.33029 45.7725 5.8226 2.33029
102 2 45.6826 6.0369 -0.874094 45.6826 6.0369 -0.874094
103 1 46.6988 4.30802 0.625609 46.6988 4.30802 0.625609
104 2 48.5096 4.16411 2.34569 48.5096 4.16411 2.34569
105 2 48.7042 4.37642 -0.959812 48.7042 4.37642 -0.959812
106 1 49.5905 5.89708 0.83985 49.5905 5.89708 0.83985
107 2 51.6247 5.79522 2.31281 51.6247 5.79522 2.31281
108 2 51.2491 6.02439 -1.00572 51.2491 6.02439 -1.00572
109 1 1.09236 7.53693 0.535296 1.09236 7.53693 0.535296
110 2 3.05623 7.54254 2.04077 3.05623 7.54254 2.04077
111 2 2.91023 7.92179 -1.16426 2.91023 7.92179 -1.16426
112 1 3.97597 9.34539 0.480069 3.97597 9.34539 0.480069
113 2 5.88785 9.25145 2.00221 5.88785 9.25145 2.00221
114 2 5.7022 9.18059 -1.26635 5.7022 9.18059 -1.26635
115 1 6.73929 7.63343 0.340249 6.73929 7.63343 0.340249
116 2 8.73284 7.57955 1.81684 8.73284 7.57955 1.81684
117 2 8.63568 7.52849 -1.32869 8.63568 7.52849 -1.32869
118 1 9.69743 9.18815 0.225232 9.69743 9.18815 0.225232
119 2 11.3987 9.33346 1.99775 11.3987 9.33346 1.99775
120 2 11.7357 9.03583 -1.29036 11.7357 9.03583 -1.29036
121 1 12.5746 7.48196 0.491002 12.5746 7.48196 0.491002
122 2 14.4547 7.55716 2.04456 14.4547 7.55716 2.04456
123 2 14.4099 7.60103 -1.21731 14.4099 7.60103 -1.21731
124 1 15.3458 9.23435 0.406471 15.3458 9.23435 0.406471
125 2 17.4298 9.36826 1.69973 17.4298 9.36826 1.69973
126 2 17.0089 9.01103 -1.43404 17.0089 9.01103 -1.43404
127 1 18.1998 7.58921 0.264415 18.1998 7.58921 0.264415
128 2 20.3563 7.44812 1.58968 20.3563 7.44812 1.58968
129 2 19.9322 7.82381 -1.57087 19.9322 7.82381 -1.57087
130 1 21.051 9.24806 0.151309 21.051 9.24806 0.151309
131 2 22.9833 9.17647 1.81518 22.9833 9.17647 1.81518
132 2 22.9118 9.33631 -1.52132 22.9118 9.33631 -1.52132
133 1 23.8818 7.59765 -0.120526 23.8818 7.59765 -0.120526
134 2 25.9123 7.41139 1.37332 25.9123 7.41139 1.37332
135 2 25.7176 7.70367 -1.92584 25.7176 7.70367 -1.92584
136 1 26.7224 9.25371 -0.20708 26.7224 9.25371 -0.20708
137 2 28.6337 9.22245 1.40299 28.6337 9.22245 1.40299
138 2 28.6502 9.37772 -1.76354 28.6502 9.37772 -1.76354
139 1 29.6183 7.67616 -0.275112 29.6183 7.67616 -0.275112
140 2 31.3829 7.46327 1.46067 31.3829 7.46327 1.46067
141 2 31.6011 7.92322 -1.69198 31.6011 7.92322 -1.69198
142 1 32.4868 9.24807 0.11514 32.4868 9.24807 0.11514
143 2 34.1196 9.04693 2.02896 34.1196 9.04693 2.02896
144 2 34.5421 9.34888 -1.20802 34.5421 9.34888 -1.20802
145 1 35.1929 7.54656 0.312532 35.1929 7.54656 0.312532
146 2 37.0006 7.44389 2.01721 37.0006 7.44389 2.01721
147 2 37.2264 7.8033 -1.18453 37.2264 7.8033 -1.18453
148 1 38.0966 9.28598 0.58319 38.0966 9.28598 0.58319
149 2 39.9634 9.26031 2.2893 39.9634 9.26031 2.2893
150 2 40.0524 9.54113 -0.895543 40.0524 9.54113 -0.895543
151 1 41.0196 7.67351 0.691087 41.0196 7.67351 0.691087
152 2 42.8158 7.68546 2.39714 42.8158 7.68546 2.39714
153 2 42.9431 7.67931 -0.978034 42.9431 7.67931 -0.978034
154 1 43.8944 9.27805 0.810949 43.8944 9.27805 0.810949
155 2 45.6243 9.02971 2.5739 45.6243 9.02971 2.5739
156 2 46.0958 9.4259 -0.677446 46.0958 9.4259 -0.677446
157 1 46.7336 7.54768 0.80087 46.7336 7.54768 0.80087
158 2 48.5404 7.54662 2.49075 48.5404 7.54662 2.49075
159 2 48.6189 7.5928 -0.754706 48.6189 7.5928 -0.754706
160 1 49.5868 9.15603 0.965426 49.5868 9.15603 0.965426
161 2 51.5701 9.00978 2.4056 51.5701 9.00978 2.4056
162 2 51.3243 9.28659 -0.845438 51.3243 9.28659 -0.845438
163 1 1.08072 10.7791 0.956193 1.08072 10.7791 0.956193
164 2 3.16168 10.8798 2.41672 3.16168 10.8798 2.41672
165 2 2.82496 10.9698 -0.937967 2.82496 10.9698 -0.937967
166 1 3.93625 12.5049 0.729471 3.93625 12.5049 0.729471
167 2 5.99412 12.3634 2.1585 5.99412 12.3634 2.1585
168 2 5.78218 12.6429 -1.10955 5.78218 12.6429 -1.10955
169 1 6.76533 10.8794 0.396341 6.76533 10.8794 0.396341
170 2 8.70019 10.6784 1.96135 8.70019 10.6784 1.96135
171 2 8.68476 10.9271 -1.28282 8.68476 10.9271 -1.28282
172 1 9.61233 12.467 0.444331 9.61233 12.467 0.444331
173 2 11.7339 12.6913 1.89393 11.7339 12.6913 1.89393
174 2 11.3432 12.3359 -1.38625 11.3432 12.3359 -1.38625
175 1 12.4534 10.8451 0.341107 12.4534 10.8451 0.341107
176 2 14.5352 11.113 1.82005 14.5352 11.113 1.82005
177 2 14.2727 10.6515 -1.34061 14.2727 10.6515 -1.34061
178 1 15.4105 12.4946 0.00601789 15.4105 12.4946 0.00601789
179 2 17.3589 12.4499 1.55347 17.3589 12.4499 1.55347
180 2 17.2277 12.5132 -1.70596 17.2277 12.5132 -1.70596
181 1 18.2542 10.7616 -0.0612434 18.2542 10.7616 -0.0612434
182 2 20.024 10.7481 1.73533 20.024 10.7481 1.73533
183 2 20.1966 10.8158 -1.55787 20.1966 10.8158 -1.55787
184 1 21.0476 12.5686 0.0948004 21.0476 12.5686 0.0948004
185 2 23.0658 12.6179 1.60251 23.0658 12.6179 1.60251
186 2 22.8486 12.3937 -1.63711 22.8486 12.3937 -1.63711
187 1 23.9218 10.9153 0.123575 23.9218 10.9153 0.123575
188 2 25.8952 10.8433 1.63671 25.8952 10.8433 1.63671
189 2 25.8124 11.0667 -1.62559 25.8124 11.0667 -1.62559
190 1 26.7765 12.5766 0.0164366 26.7765 12.5766 0.0164366
191 2 28.7155 12.6111 1.63554 28.7155 12.6111 1.63554
192 2 28.6968 12.5594 -1.60543 28.6968 12.5594 -1.60543
193 1 29.6933 10.9466 -0.0376597 29.6933 10.9466 -0.0376597
194 2 31.3354 10.7674 1.82425 31.3354 10.7674 1.82425
195 2 31.7863 11.019 -1.42598 31.7863 11.019 -1.42598
196 1 32.4498 12.5259 0.416606 32.4498 12.5259 0.416606
197 2 34.2982 12.6194 2.29928 34.2982 12.6194 2.29928
198 2 34.4656 12.5626 -1.05572 34.4656 12.5626 -1.05572
199 1 35.2894 10.9023 0.584172 35.2894 10.9023 0.584172
200 2 37.1619 10.8152 2.41513 37.1619 10.8152 2.41513
201 2 37.2504 10.9645 -0.915716 37.2504 10.9645 -0.915716
202 1 38.1744 12.5788 0.798883 38.1744 12.5788 0.798883
203 2 39.9938 12.4791 2.49603 39.9938 12.4791 2.49603
204 2 40.1973 12.7217 -0.782358 40.1973 12.7217 -0.782358
205 1 41.056 10.9161 0.831531 41.056 10.9161 0.831531
206 2 42.9233 10.9716 2.47675 42.9233 10.9716 2.47675
207 2 42.9557 11.0169 -0.730315 42.9557 11.0169 -0.730315
208 1 43.891 12.604 0.882625 43.891 12.604 0.882625
209 2 45.5542 12.5805 2.72737 45.5542 12.5805 2.72737
210 2 45.936 12.5124 -0.416955 45.936 12.5124 -0.416955
211 1 46.7787 10.8895 1.2712 46.7787 10.8895 1.2712
212 2 48.7787 10.7551 2.75843 48.7787 10.7551 2.75843
213 2 48.5322 10.9067 -0.517987 48.5322 10.9067 -0.517987
214 1 49.6663 12.5991 1.10902 49.6663 12.5991 1.10902
215 2 51.4636 12.5081 2.80587 51.4636 12.5081 2.80587
216 2 51.5246 12.582 -0.517901 51.5246 12.582 -0.517901
217 1 1.14311 14.1704 1.29342 1.14311 14.1704 1.29342
218 2 3.29477 14.0821 2.57359 3.29477 14.0821 2.57359
219 2 2.80802 14.2857 -0.589841 2.80802 14.2857 -0.589841
220 1 3.96371 15.8592 1.02937 3.96371 15.8592 1.02937
221 2 6.2147 15.9149 2.25931 6.2147 15.9149 2.25931
222 2 5.59397 15.8875 -0.93616 5.59397 15.8875 -0.93616
223 1 6.82086 14.2212 0.521465 6.82086 14.2212 0.521465
224 2 8.91702 14.5078 1.91406 8.91702 14.5078 1.91406
225 2 8.58233 13.9748 -1.3426 8.58233 13.9748 -1.3426
226 1 9.65939 15.7884 -0.0381046 9.65939 15.7884 -0.0381046
227 2 11.7687 15.8602 1.47972 11.7687 15.8602 1.47972
228 2 11.4198 15.6084 -1.73324 11.4198 15.6084 -1.73324
229 1 12.4543 14.1505 -0.0269298 12.4543 14.1505 -0.0269298
230 2 14.3418 14.1603 1.58896 14.3418 14.1603 1.58896
231 2 14.3948 14.1595 -1.73642 14.3948 14.1595 -1.73642
232 1 15.3586 15.7539 -0.189164 15.3586 15.7539 -0.189164
233 2 17.2128 15.7914 1.49696 17.2128 15.7914 1.49696
234 2 17.2277 15.7828 -1.77741 17.2277 15.7828 -1.77741
235 1 18.2312 14.1466 -0.140532 18.2312 14.1466 -0.140532
236 2 20.0734 14.4532 1.53381 20.0734 14.4532 1.53381
237 2 20.1684 14.1763 -1.73631 20.1684 14.1763 -1.73631
238 1 21.0564 15.8561 -0.178799 21.0564 15.8561 -0.178799
239 2 22.9479 15.8397 1.51111 22.9479 15.8397 1.51111
240 2 22.928 15.802 -1.78455 22.928 15.802 -1.78455
241 1 23.9025 14.1889 -0.181336 23.9025 14.1889 -0.181336
242 2 25.6316 14.1207 1.58238 25.6316 14.1207 1.58238
243 2 25.9007 14.1175 -1.67999 25.9007 14.1175 -1.67999
244 1 26.6982 15.7894 -0.00170139 26.6982 15.7894 -0.00170139
245 2 28.5555 15.833 1.68107 28.5555 15.833 1.68107
246 2 28.6491 15.8983 -1.49967 28.6491 15.8983 -1.49967
247 1 29.6165 14.1915 -0.000985494 29.6165 14.1915 -0.000985494
248 2 31.3136 14.0911 1.93893 31.3136 14.0911 1.93893
249 2 31.5803 14.1887 -1.35371 31.5803 14.1887 -1.35371
250 1 32.4163 15.8557 0.458582 32.4163 15.8557 0.458582
251 2 34.1385 15.8769 2.15418 34.1385 15.8769 2.15418
252 2 34.4096 15.8244 -1.1561 34.4096 15.8244 -1.1561
253 1 35.2977 14.1985 0.638752 35.2977 14.1985 0.638752
254 2 37.0831 14.3619 2.24686 37.0831 14.3619 2.24686
255 2 37.3335 14.1529 -0.901455 37.3335 14.1529 -0.901455
256 1 38.1408 15.8882 0.664651 38.1408 15.8882 0.664651
257 2 39.8925 15.8283 2.45783 39.8925 15.8283 2.45783
258 2 40.2092 15.9133 -0.68124 40.2092 15.9133 -0.68124
259 1 41.0277 14.1393 0.940724 41.0277 14.1393 0.940724
260 2 42.8936 14.0418 2.66941 42.8936 14.0418 2.66941
261 2 43.0191 14.3959 -0.580483 43.0191 14.3959 -0.580483
262 1 43.8496 15.907 1.26757 43.8496 15.907 1.26757
263 2 45.7949 15.9282 2.86682 45.7949 15.9282 2.86682
264 2 45.777 15.8591 -0.369816 45.777 15.8591 -0.369816
265 1 46.7757 14.2305 1.23311 46.7757 14.2305 1.23311
266 2 48.6556 14.1983 2.79642 48.6556 14.1983 2.79642
267 2 48.6984 14.2009 -0.483589 48.6984 14.2009 -0.483589
268 1 49.5766 15.7818 1.1872 49.5766 15.7818 1.1872
269 2 51.4581 15.7747 2.88981 51.4581 15.7747 2.88981
270 2 51.4136 15.7618 -0.351577 51.4136 15.7618 -0.351577
271 1 1.16258 17.4746 1.1596 1.16258 17.4746 1.1596
272 2 3.11687 17.4528 2.65165 3.11687 17.4528 2.65165
273 2 2.89613 17.3813 -0.599157 2.89613 17.3813 -0.599157
274 1 3.99106 19.1649 0.878043 3.99106 19.1649 0.878043
275 2 6.1096 19.3754 2.05178 6.1096 19.3754 2.05178
276 2 5.56969 18.9605 -1.10335 5.56969 18.9605 -1.10335
277 1 6.86685 17.4511 0.467177 6.86685 17.4511 0.467177
278 2 9.0924 17.5493 1.60733 9.0924 17.5493 1.60733
279 2 8.43612 17.2763 -1.58669 8.43612 17.2763 -1.58669
280 1 9.59793 19.1848 -0.191524 9.59793 19.1848 -0.191524
281 2 11.6685 19.2117 1.28242 11.6685 19.2117 1.28242
282 2 11.3226 18.9595 -2.06983 11.3226 18.9595 -2.06983
283 1 12.4484 17.4216 -0.371882 12.4484 17.4216 -0.371882
284 2 14.3476 17.4544 1.35494 14.3476 17.4544 1.35494
285 2 14.415 17.2902 -1.92582 14.415 17.2902 -1.92582
286 1 15.3136 19.07 -0.364569 15.3136 19.07 -0.364569
287 2 17.2456 19.2455 1.34407 17.2456 19.2455 1.34407
288 2 17.2154 18.9125 -1.89545 17.2154 18.9125 -1.89545
289 1 18.159 17.4707 -0.0601117 18.159 17.4707 -0.0601117
290 2 20.1298 17.588 1.38185 20.1298 17.588 1.38185
291 2 19.9169 17.3815 -1.83191 19.9169 17.3815 -1.83191
292 1 20.8727 19.1115 -0.439623 20.8727 19.1115 -0.439623
293 2 22.7216 19.1404 1.26695 22.7216 19.1404 1.26695
294 2 23.0248 18.9088 -2.01812 23.0248 18.9088 -2.01812
295 1 23.8118 17.442 -0.114705 23.8118 17.442 -0.114705
296 2 25.6352 17.2687 1.70076 25.6352 17.2687 1.70076
297 2 25.8439 17.4952 -1.55802 25.8439 17.4952 -1.55802
298 1 26.662 19.0964 0.26402 26.662 19.0964 0.26402
299 2 28.562 19.1527 1.95115 28.562 19.1527 1.95115
300 2 28.5959 19.1188 -1.38957 28.5959 19.1188 -1.38957
301 1 29.5008 17.5374 0.247047 29.5008 17.5374 0.247047
302 2 31.268 17.5472 2.01517 31.268 17.5472 2.01517
303 2 31.5008 17.4797 -1.29678 31.5008 17.4797 -1.29678
304 1 32.4351 19.1443 0.425208 32.4351 19.1443 0.425208
305 2 34.3082 19.1907 2.03568 34.3082 19.1907 2.03568
306 2 34.3146 18.9633 -1.29554 34.3146 18.9633 -1.29554
307 1 35.2844 17.414 0.4484 35.2844 17.414 0.4484
308 2 37.0104 17.4945 2.25713 37.0104 17.4945 2.25713
309 2 37.2887 17.5616 -1.09375 37.2887 17.5616 -1.09375
310 1 38.197 19.1251 0.780669 38.197 19.1251 0.780669
311 2 39.9974 19.276 2.5966 39.9974 19.276 2.5966
312 2 40.1688 19.1274 -0.762026 40.1688 19.1274 -0.762026
313 1 41.0496 17.5238 0.997452 41.0496 17.5238 0.997452
314 2 42.8161 17.6128 2.78516 42.8161 17.6128 2.78516
315 2 43.0373 17.4322 -0.557093 43.0373 17.4322 -0.557093
316 1 43.9137 19.1696 1.1812 43.9137 19.1696 1.1812
317 2 45.812 19.4078 2.74716 45.812 19.4078 2.74716
318 2 45.6843 18.9743 -0.44855 45.6843 18.9743 -0.44855
319 1 46.815 17.5528 1.32713 46.815 17.5528 1.32713
320 2 48.796 17.577 2.87098 48.796 17.577 2.87098
321 2 48.6324 17.5003 -0.439037 48.6324 17.5003 -0.439037
322 1 49.69 19.0965 1.10926 49.69 19.0965 1.10926
323 2 51.6899 19.3624 2.60274 51.6899 19.3624 2.60274
324 2 51.5537 19.0229 -0.683499 51.5537 19.0229 -0.683499
325 1 1.17036 20.8188 0.657917 1.17036 20.8188 0.657917
326 2 3.07257 21.0839 2.17363 3.07257 21.0839 2.17363
327 2 2.97419 20.4637 -1.00808 2.97419 20.4637 -1.00808
328 1 3.97756 22.3769 0.123347 3.97756 22.3769 0.123347
329 2 6.13612 22.6553 1.5216 6.13612 22.6553 1.5216
330 2 5.69756 22.137 -1.76465 5.69756 22.137 -1.76465
331 1 6.74581 20.7748 0.081821 6.74581 20.7748 0.081821
332 2 8.89131 20.9796 1.39562 8.89131 20.9796 1.39562
333 2 8.293 20.6413 -1.90164 8.293 20.6413 -1.90164
334 1 9.53528 22.3993 -0.596112 9.53528 22.3993 -0.596112
335 2 11.5671 22.3491 1.00667 11.5671 22.3491 1.00667
336 2 11.4302 22.2616 -2.27883 11.4302 22.2616 -2.27883
337 1 12.4831 20.7098 -0.669741 12.4831 20.7098 -0.669741
338 2 14.2331 20.8979 1.03569 14.2331 20.8979 1.03569
339 2 14.4357 20.532 -2.22899 14.4357 20.532 -2.22899
340 1 15.242 22.3327 -0.666333 15.242 22.3327 -0.666333
341 2 17.1588 22.5838 0.954538 17.1588 22.5838 0.954538
342 2 17.2397 22.1505 -2.3251 17.2397 22.1505 -2.3251
343 1 18.1541 20.6923 -0.520442 18.1541 20.6923 -0.520442
344 2 20.1028 20.822 1.12169 20.1028 20.822 1.12169
345 2 19.9922 20.5806 -2.24108 19.9922 20.5806 -2.24108
346 1 21.0089 22.2046 -0.690766 21.0089 22.2046 -0.690766
347 2 22.8732 22.4536 1.10415 22.8732 22.4536 1.10415
348 2 23.0991 22.1775 -2.22106 23.0991 22.1775 -2.22106
349 1 23.8942 20.6809 -0.42529 23.8942 20.6809 -0.42529
350 2 25.4515 20.9368 1.48559 25.4515 20.9368 1.48559
351 2 25.9675 20.4501 -1.73477 25.9675 20.4501 -1.73477
352 1 26.689 22.3784 -0.205207 26.689 22.3784 -0.205207
353 2 28.2922 22.5602 1.62878 28.2922 22.5602 1.62878
354 2 28.6518 22.1681 -1.69014 28.6518 22.1681 -1.69014
355 1 29.5258 20.7431 0.220283 29.5258 20.7431 0.220283
356 2 31.4925 20.9945 1.77041 31.4925 20.9945 1.77041
357 2 31.3593 20.5507 -1.36121 31.3593 20.5507 -1.36121
358 1 32.4583 22.3862 -0.138042 32.4583 22.3862 -0.138042
359 2 34.2154 22.4923 1.66867 34.2154 22.4923 1.66867
360 2 34.6414 22.2414 -1.46674 34.6414 22.2414 -1.46674
361 1 35.3606 20.6785 0.261837 35.3606 20.6785 0.261837
362 2 36.9897 21.0121 2.08337 36.9897 21.0121 2.08337
363 2 37.451 20.4987 -1.06692 37.451 20.4987 -1.06692
364 1 38.1426 22.4418 0.319315 38.1426 22.4418 0.319315
365 2 39.7312 22.6703 2.06708 39.7312 22.6703 2.06708
366 2 40.2682 22.1142 -1.14209 40.2682 22.1142 -1.14209
367 1 40.9755 20.8164 0.914463 40.9755 20.8164 0.914463
368 2 42.7117 20.9305 2.65847 42.7117 20.9305 2.65847
369 2 43.0004 20.553 -0.638885 43.0004 20.553 -0.638885
370 1 43.7982 22.4301 1.01638 43.7982 22.4301 1.01638
371 2 45.937 22.5688 2.56494 45.937 22.5688 2.56494
372 2 45.6814 22.2791 -0.75386 45.6814 22.2791 -0.75386
373 1 46.7211 20.7968 0.967729 46.7211 20.7968 0.967729
374 2 48.7919 21.0567 2.45949 48.7919 21.0567 2.45949
375 2 48.5633 20.562 -0.744704 48.5633 20.562 -0.744704
376 1 49.6346 22.4618 0.555413 49.6346 22.4618 0.555413
377 2 51.5978 22.6016 2.09366 51.5978 22.6016 2.09366
378 2 51.4925 22.2762 -1.05313 51.4925 22.2762 -1.05313
379 1 1.12897 24.0708 0.278593 1.12897 24.0708 0.278593
380 2 3.16786 24.3687 1.63249 3.16786 24.3687 1.63249
381 2 2.75229 23.7842 -1.60084 2.75229 23.7842 -1.60084
382 1 3.93339 25.6509 -0.323732 3.93339 25.6509 -0.323732
383 2 6.01974 25.7302 1.16535 6.01974 25.7302 1.16535
384 2 5.76096 25.6214 -2.0934 5.76096 25.6214 -2.0934
385 1 6.79127 24.0093 -0.493088 6.79127 24.0093 -0.493088
386 2 8.84334 24.0868 1.03399 8.84334 24.0868 1.03399
387 2 8.48131 23.8349 -2.24689 8.48131 23.8349 -2.24689
388 1 9.66399 25.6421 -0.851641 9.66399 25.6421 -0.851641
389 2 11.4743 25.8211 0.721584 11.4743 25.8211 0.721584
390 2 11.4671 25.4699 -2.59987 11.4671 25.4699 -2.59987
391 1 12.4156 23.9575 -0.697649 12.4156 23.9575 -0.697649
392 2 14.3202 24.1147 0.899909 14.3202 24.1147 0.899909
393 2 14.2294 23.9461 -2.36627 14.2294 23.9461 -2.36627
394 1 15.32 25.6167 -0.894869 15.32 25.6167 -0.894869
395 2 17.2132 25.5723 0.809246 17.2132 25.5723 0.809246
396 2 17.159 25.6135 -2.47758 17.159 25.6135 -2.47758
397 1 18.1459 24.007 -0.878772 18.1459 24.007 -0.878772
398 2 19.8901 23.9643 0.859505 19.8901 23.9643 0.859505
399 2 20.2991 24.0807 -2.38128 20.2991 24.0807 -2.38128
400 1 20.9378 25.6791 -0.634664 20.9378 25.6791 -0.634664
401 2 22.6892 25.591 1.01567 22.6892 25.591 1.01567
402 2 22.9275 25.6742 -2.32313 22.9275 25.6742 -2.32313
403 1 23.8456 23.967 -0.646109 23.8456 23.967 -0.646109
404 2 25.5424 24.0769 1.21954 25.5424 24.0769 1.21954
405 2 25.9259 23.8453 -2.02902 25.9259 23.8453 -2.02902
406 1 26.6536 25.6608 -0.347054 26.6536 25.6608 -0.347054
407 2 28.5387 25.8283 1.27931 28.5387 25.8283 1.27931
408 2 28.605 25.3605 -1.97676 28.605 25.3605 -1.97676
409 1 29.4779 23.8952 -0.157135 29.4779 23.8952 -0.157135
410 2 31.5852 24.2104 1.23042 31.5852 24.2104 1.23042
411 2 31.2824 23.7667 -1.8432 31.2824 23.7667 -1.8432
412 1 32.365 25.5954 -0.596363 32.365 25.5954 -0.596363
413 2 34.0617 25.6911 1.29644 34.0617 25.6911 1.29644
414 2 34.5878 25.387 -1.85484 34.5878 25.387 -1.85484
415 1 35.3555 23.9638 0.0584788 35.3555 23.9638 0.0584788
416 2 37.0921 24.2006 1.80401 37.0921 24.2006 1.80401
417 2 37.2856 23.8472 -1.55322 37.2856 23.8472 -1.55322
418 1 38.0773 25.7372 0.00258679 38.0773 25.7372 0.00258679
419 2 40.0888 25.8335 1.71679 40.0888 25.8335 1.71679
420 2 40.0761 25.6004 -1.59645 40.0761 25.6004 -1.59645
421 1 40.9758 24.0794 0.297726 40.9758 24.0794 0.297726
422 2 42.6571 24.4243 2.07463 42.6571 24.4243 2.07463
423 2 43.1892 23.7737 -1.00116 43.1892 23.7737 -1.00116
424 1 43.8907 25.7174 0.355152 43.8907 25.7174 0.355152
425 2 45.7501 25.9172 2.00462 45.7501 25.9172 2.00462
426 2 45.8198 25.5557 -1.21289 45.8198 25.5557 -1.21289
427 1 46.7205 24.0966 0.676688 46.7205 24.0966 0.676688
428 2 48.8551 24.2633 2.06414 48.8551 24.2633 2.06414
429 2 48.4391 23.8421 -1.04968 48.4391 23.8421 -1.04968
430 1 49.6033 25.736 0.291904 49.6033 25.736 0.291904
431 2 51.6503 25.9957 1.63199 51.6503 25.9957 1.63199
432 2 51.2163 25.4463 -1.57021 51.2163 25.4463 -1.57021
433 1 1.07714 27.4125 -0.39694 1.07714 27.4125 -0.39694
434 2 2.95967 27.4289 1.203 2.95967 27.4289 1.203
435 2 2.86518 27.1994 -2.10431 2.86518 27.1994 -2.10431
436 1 3.76292 29.0011 -0.616296 3.76292 29.0011 -0.616296
437 2 5.71047 29.1166 0.90483 5.71047 29.1166 0.90483
438 2 5.66466 28.9209 -2.36083 5.66466 28.9209 -2.36083
439 1 6.70532 27.3713 -0.645227 6.70532 27.3713 -0.645227
440 2 8.72629 27.4027 0.766739 8.72629 27.4027 0.766739
441 2 8.47615 27.0886 -2.43177 8.47615 27.0886 -2.43177
442 1 9.51398 28.9464 -1.05193 9.51398 28.9464 -1.05193
443 2 11.4335 28.9426 0.547537 11.4335 28.9426 0.547537
444 2 11.3006 28.9183 -2.76847 11.3006 28.9183 -2.76847
445 1 12.4204 27.2602 -1.1263 12.4204 27.2602 -1.1263
446 2 14.2258 27.2714 0.624548 14.2258 27.2714 0.624548
447 2 14.4198 27.2527 -2.59653 14.4198 27.2527 -2.59653
448 1 15.2377 28.9145 -0.896007 15.2377 28.9145 -0.896007
449 2 17.1051 29.0338 0.736775 17.1051 29.0338 0.736775
450 2 17.1977 28.8177 -2.49126 17.1977 28.8177 -2.49126
451 1 18.0989 27.2262 -0.765568 18.0989 27.2262 -0.765568
452 2 19.9317 27.2875 0.965357 19.9317 27.2875 0.965357
453 2 20.0578 27.1968 -2.39021 20.0578 27.1968 -2.39021
454 1 20.9485 28.8231 -0.776294 20.9485 28.8231 -0.776294
455 2 22.722 28.8896 0.942069 22.722 28.8896 0.942069
456 2 22.9542 28.9459 -2.31643 22.9542 28.9459 -2.31643
457 1 23.7252 27.3187 -0.618003 23.7252 27.3187 -0.618003
458 2 25.5595 27.3912 1.12048 25.5595 27.3912 1.12048
459 2 25.6678 27.1986 -2.10012 25.6678 27.1986 -2.10012
460 1 26.6437 28.8825 -0.454459 26.6437 28.8825 -0.454459
461 2 28.6371 28.9699 1.152 28.6371 28.9699 1.152
462 2 28.5025 28.8865 -2.12703 28.5025 28.8865 -2.12703
463 1 29.5705 27.2783 -0.423157 29.5705 27.2783 -0.423157
464 2 31.4844 27.2056 1.17503 31.4844 27.2056 1.17503
465 2 31.378 27.3382 -2.07867 31.378 27.3382 -2.07867
466 1 32.3051 28.9877 -0.372327 32.3051 28.9877 -0.372327
467 2 34.0873 28.903 1.32211 34.0873 28.903 1.32211
468 2 34.2902 28.8542 -2.00518 34.2902 28.8542 -2.00518
469 1 35.1491 27.2116 -0.263476 35.1491 27.2116 -0.263476
470 2 36.972 27.3988 1.42884 36.972 27.3988 1.42884
471 2 37.1601 27.2753 -1.70982 37.1601 27.2753 -1.70982
472 1 38.1079 28.9356 -0.161484 38.1079 28.9356 -0.161484
473 2 39.839 29.0629 1.49108 39.839 29.0629 1.49108
474 2 40.132 28.9664 -1.78215 40.132 28.9664 -1.78215
475 1 41.0843 27.4206 -0.0177617 41.0843 27.4206 -0.0177617
476 2 42.9385 27.6526 1.74038 42.9385 27.6526 1.74038
477 2 43.0783 27.1585 -1.53427 43.0783 27.1585 -1.53427
478 1 43.8828 29.0428 -0.0396018 43.8828 29.0428 -0.0396018
479 2 45.8635 29.2486 1.61554 45.8635 29.2486 1.61554
480 2 45.7596 28.8248 -1.62013 45.7596 28.8248 -1.62013
481 1 46.7119 27.4138 0.213887 46.7119 27.4138 0.213887
482 2 48.6673 27.5156 1.75654 48.6673 27.5156 1.75654
483 2 48.6586 27.2478 -1.42809 48.6586 27.2478 -1.42809
484 1 49.5721 28.9861 -0.0178116 49.5721 28.9861 -0.0178116
485 2 51.5147 28.9973 1.40767 51.5147 28.9973 1.40767
486 2 51.3006 29.077 -1.81715 51.3006 29.077 -1.81715
487 1 0.982451 30.7223 -0.360081 0.982451 30.7223 -0.360081
488 2 3.00088 30.5926 1.14926 3.00088 30.5926 1.14926
489 2 2.75306 30.6752 -2.22802 2.75306 30.6752 -2.22802
490 1 3.76836 32.2694 -0.611558 3.76836 32.2694 -0.611558
491 2 5.96757 32.2711 0.919851 5.96757 32.2711 0.919851
492 2 5.75383 32.4338 -2.30211 5.75383 32.4338 -2.30211
493 1 6.71185 30.6372 -0.817031 6.71185 30.6372 -0.817031
494 2 8.70375 30.584 0.716533 8.70375 30.584 0.716533
495 2 8.47266 30.4911 -2.60313 8.47266 30.4911 -2.60313
496 1 9.53086 32.2653 -1.01309 9.53086 32.2653 -1.01309
497 2 11.4578 32.1991 0.554327 11.4578 32.1991 0.554327
498 2 11.3734 32.3 -2.65843 11.3734 32.3 -2.65843
499 1 12.3245 30.5564 -1.12834 12.3245 30.5564 -1.12834
500 2 14.2037 30.6501 0.644037 14.2037 30.6501 0.644037
501 2 14.3025 30.4503 -2.56793 14.3025 30.4503 -2.56793
502 1 15.2152 32.2604 -0.989705 15.2152 32.2604 -0.989705
503 2 17.2355 32.4136 0.601726 17.2355 32.4136 0.601726
504 2 17.0732 32.2741 -2.66904 17.0732 32.2741 -2.66904
505 1 18.0635 30.6684 -0.980713 18.0635 30.6684 -0.980713
506 2 19.9873 30.5442 0.723591 19.9873 30.5442 0.723591
507 2 19.9932 30.4687 -2.54079 19.9932 30.4687 -2.54079
508 1 21.0163 32.2546 -0.869521 21.0163 32.2546 -0.869521
509 2 22.8269 32.3428 0.73696 22.8269 32.3428 0.73696
510 2 22.9758 32.0502 -2.45564 22.9758 32.0502 -2.45564
511 1 23.7818 30.5658 -0.648756 23.7818 30.5658 -0.648756
512 2 25.5371 30.5604 1.11344 25.5371 30.5604 1.11344
513 2 25.6158 30.4812 -2.2002 25.6158 30.4812 -2.2002
514 1 26.6019 32.1623 -0.566337 26.6019 32.1623 -0.566337
515 2 28.6297 32.4474 1.05399 28.6297 32.4474 1.05399
516 2 28.5373 32.1859 -2.24052 28.5373 32.1859 -2.24052
517 1 29.4945 30.5795 -0.524645 29.4945 30.5795 -0.524645
518 2 31.1976 30.5244 1.24657 31.1976 30.5244 1.24657
519 2 31.4286 30.7833 -2.01791 31.4286 30.7833 -2.01791
520 1 32.3808 32.244 -0.238443 32.3808 32.244 -0.238443
521 2 34.3727 32.266 1.25146 34.3727 32.266 1.25146
522 2 34.1739 32.1495 -1.83788 34.1739 32.1495 -1.83788
523 1 35.1301 30.5247 -0.258177 35.1301 30.5247 -0.258177
524 2 36.9762 30.5247 1.39876 36.9762 30.5247 1.39876
525 2 37.1883 30.6821 -1.77161 37.1883 30.6821 -1.77161
526 1 38.0358 32.2569 -0.0374503 38.0358 32.2569 -0.0374503
527 2 40.0158 32.4663 1.46641 40.0158 32.4663 1.46641
528 2 39.8479 32.168 -1.70093 39.8479 32.168 -1.70093
529 1 40.921 30.6513 -0.0872345 40.921 30.6513 -0.0872345
530 2 42.7664 30.7383 1.51213 42.7664 30.7383 1.51213
531 2 42.8405 30.5772 -1.71871 42.8405 30.5772 -1.71871
532 1 43.788 32.3166 -0.180673 43.788 32.3166 -0.180673
533 2 45.7697 32.4597 1.29928 45.7697 32.4597 1.29928
534 2 45.6649 32.2587 -1.97068 45.6649 32.2587 -1.97068
535 1 46.6966 30.6655 -0.301466 46.6966 30.6655 -0.301466
536 2 48.653 30.842 1.40467 48.653 30.842 1.40467
537 2 48.6976 30.6021 -1.75523 48.6976 30.6021 -1.75523
538 1 49.488 32.4058 -0.247347 49.488 32.4058 -0.247347
539 2 51.4945 32.428 1.24945 51.4945 32.428 1.24945