ITEM: TIMESTEP
49600
ITEM: NUMBER OF ATOMS
810
ITEM: BOX BOUNDS pp pp pp
8.4137701477268123e-01 5.2176227985227342e+01
8.0961581116522285e-01 5.0206599188834083e+01
-1.0000000000000000e+01 1.0000000000000000e+01
ITEM: ATOMS id type x y z xu yu zu
1 1 1.05384 1.17673 0.463505 1.05384 1.17673 0.463505
2 2 2.93225 0.974857 1.96635 2.93225 0.974857 1.96635
3 2 2.78264 1.2746 -1.29591 2.78264 1.2746 -1.29591
4 1 3.85296 2.72826 0.346567 3.85296 2.72826 0.346567
5 2 5.89817 2.67 1.9249 5.89817 2.67 1.9249
6 2 5.66274 2.68964 -1.34511 5.66274 2.68964 -1.34511
7 1 6.7048 1.03555 0.27874 6.7048 1.03555 0.27874
8 2 8.5956 50.3834 1.99465 8.5956 0.986376 1.99465
9 2 8.61706 1.11079 -1.45766 8.61706 1.11079 -1.45766
10 1 9.58431 2.63189 0.268022 9.58431 2.63189 0.268022
11 2 11.5852 2.6646 1.78682 11.5852 2.6646 1.78682
12 2 11.4799 2.67479 -1.4622 11.4799 2.67479 -1.4622
13 1 12.4746 1.0116 0.225091 12.4746 1.0116 0.225091
14 2 14.5137 50.2085 1.67094 14.5137 0.811551 1.67094
15 2 14.1552 1.15684 -1.54797 14.1552 1.15684 -1.54797
16 1 15.3606 2.57367 0.0978028 15.3606 2.57367 0.0978028
17 2 17.4749 2.44293 1.37421 17.4749 2.44293 1.37421
18 2 17.0026 2.90096 -1.82303 17.0026 2.90096 -1.82303
19 1 18.1234 0.976807 -0.587265 18.1234 0.976807 -0.587265
20 2 19.995 0.871706 1.00059 19.995 0.871706 1.00059
21 2 19.9992 1.25712 -2.22526 19.9992 1.25712 -2.22526
22 1 21.0238 2.67473 -0.366517 21.0238 2.67473 -0.366517
23 2 23.0761 2.65802 1.01452 23.0761 2.65802 1.01452
24 2 22.8418 2.75689 -2.17994 22.8418 2.75689 -2.17994
25 1 23.9658 1.0647 -0.716472 23.9658 1.0647 -0.716472
26 2 25.8204 50.3463 0.922176 25.8204 0.949328 0.922176
27 2 25.8819 1.07148 -2.27644 25.8819 1.07148 -2.27644
28 1 26.7395 2.6747 -0.601365 26.7395 2.6747 -0.601365
29 2 28.5587 2.43532 1.04005 28.5587 2.43532 1.04005
30 2 28.6793 2.92751 -2.24733 28.6793 2.92751 -2.24733
31 1 29.5675 1.09722 -0.812143 29.5675 1.09722 -0.812143
32 2 31.5029 0.981082 0.969945 31.5029 0.981082 0.969945
33 2 31.5893 1.17321 -2.29412 31.5893 1.17321 -2.29412
34 1 32.4554 2.69049 -0.505673 32.4554 2.69049 -0.505673
35 2 34.1127 2.57989 1.30815 34.1127 2.57989 1.30815
36 2 34.4742 3.01576 -1.93243 34.4742 3.01576 -1.93243
37 1 35.267 1.11542 -0.418521 35.267 1.11542 -0.418521
38 2 36.9089 0.968652 1.42314 36.9089 0.968652 1.42314
39 2 37.4658 1.20363 -1.77174 37.4658 1.20363 -1.77174
40 1 38.1412 2.77144 0.09479 38.1412 2.77144 0.09479
41 2 39.864 2.64046 1.91229 39.864 2.64046 1.91229
42 2 40.2132 2.81057 -1.40423 40.2132 2.81057 -1.40423
43 1 40.978 1.00302 0.301032 40.978 1.00302 0.301032
44 2 42.8673 0.886424 2.02203 42.8673 0.886424 2.02203
45 2 42.914 1.17526 -1.2751 42.914 1.17526 -1.2751
46 1 43.7095 2.68314 0.399443 43.7095 2.68314 0.399443
47 2 45.5815 2.50337 2.03924 45.5815 2.50337 2.03924
48 2 45.6226 2.9706 -1.27013 45.6226 2.9706 -1.27013
49 1 46.6221 1.10901 0.219671 46.6221 1.10901 0.219671
50 2 48.4616 1.07733 2.02048 48.4616 1.07733 2.02048
51 2 48.621 1.30506 -1.2839 48.621 1.30506 -1.2839
52 1 49.429 2.72324 0.601214 49.429 2.72324 0.601214
53 2 51.3841 2.79443 2.19216 51.3841 2.79443 2.19216
54 2 51.3181 2.89878 -1.11798 51.3181 2.89878 -1.11798
55 1 0.973884 4.40673 0.569856 0.973884 4.40673 0.569856
56 2 3.00764 4.39386 1.96894 3.00764 4.39386 1.96894
57 2 2.71389 4.49212 -1.20573 2.71389 4.49212 -1.20573
58 1 3.85107 5.95762 0.334003 3.85107 5.95762 0.334003
59 2 5.80656 5.95983 1.81565 5.80656 5.95983 1.81565
60 2 5.69334 5.98491 -1.4314 5.69334 5.98491 -1.4314
61 1 6.77962 4.34169 0.2318 6.77962 4.34169 0.2318
62 2 8.80274 4.38084 1.8302 8.80274 4.38084 1.8302
63 2 8.61259 4.27245 -1.41592 8.61259 4.27245 -1.41592
64 1 9.6107 5.95099 0.0619701 9.6107 5.95099 0.0619701
65 2 11.4882 5.81727 1.78667 11.4882 5.81727 1.78667
66 2 11.6223 6.06332 -1.51218 11.6223 6.06332 -1.51218
67 1 12.4325 4.26364 0.0835118 12.4325 4.26364 0.0835118
68 2 14.3277 4.26261 1.70227 14.3277 4.26261 1.70227
69 2 14.2807 4.29023 -1.43304 14.2807 4.29023 -1.43304
70 1 15.2549 5.8973 0.151462 15.2549 5.8973 0.151462
71 2 17.2509 5.88987 1.73604 17.2509 5.88987 1.73604
72 2 17.0923 6.08605 -1.57568 17.0923 6.08605 -1.57568
73 1 18.106 4.32505 -0.0878073 18.106 4.32505 -0.0878073
74 2 20.1579 4.27678 1.42441 20.1579 4.27678 1.42441
75 2 19.9987 4.40006 -1.84214 19.9987 4.40006 -1.84214
76 1 21.0465 5.92727 -0.203707 21.0465 5.92727 -0.203707
77 2 23.0346 5.76453 1.35973 23.0346 5.76453 1.35973
78 2 22.8757 6.12728 -1.86914 22.8757 6.12728 -1.86914
79 1 23.8503 4.35259 -0.586206 23.8503 4.35259 -0.586206
80 2 25.7094 4.26274 1.10997 25.7094 4.26274 1.10997
81 2 25.7892 4.49941 -2.15892 25.7892 4.49941 -2.15892
82 1 26.6803 5.99354 -0.354234 26.6803 5.99354 -0.354234
83 2 28.6425 6.05755 1.37513 28.6425 6.05755 1.37513
84 2 28.5977 5.91952 -1.88605 28.5977 5.91952 -1.88605
85 1 29.5046 4.28272 -0.313505 29.5046 4.28272 -0.313505
86 2 31.4368 4.09858 1.353 31.4368 4.09858 1.353
87 2 31.4561 4.54456 -1.92214 31.4561 4.54456 -1.92214
88 1 32.3687 5.99232 -0.0835423 32.3687 5.99232 -0.0835423
89 2 34.2092 5.86695 1.61023 34.2092 5.86695 1.61023
90 2 34.2613 5.99506 -1.64617 34.2613 5.99506 -1.64617
91 1 35.2774 4.36405 -0.000156971 35.2774 4.36405 -0.000156971
92 2 37.0193 4.18993 1.76431 37.0193 4.18993 1.76431
93 2 37.3556 4.50058 -1.49584 37.3556 4.50058 -1.49584
94 1 38.1653 6.05966 0.461632 38.1653 6.05966 0.461632
95 2 40.0861 6.13776 1.98635 40.0861 6.13776 1.98635
96 2 39.9155 6.16322 -1.21365 39.9155 6.16322 -1.21365
97 1 40.9907 4.4645 0.353354 40.9907 4.4645 0.353354
98 2 42.7258 4.21557 2.08049 42.7258 4.21557 2.08049
99 2 42.9907 4.47696 -1.18208 42.9907 4.47696 -1.18208
100 1 43.8282 5.99405 0.634721 43.8282 5.99405 0.634721
101 2 45.5778 5.81105 2.27167 45.5778 5.81105 2.27167
102 2 45.8489 6.18853 -0.880896 45.8489 6.18853 -0.880896
103 1 46.6127 4.32054 0.587343 46.6127 4.32054 0.587343
104 2 48.4215 4.15028 2.37286 48.4215 4.15028 2.37286
105 2 48.6008 4.64984 -0.883215 48.6008 4.64984 -0.883215
106 1 49.454 5.9973 1.00307 49.454 5.9973 1.00307
107 2 51.5544 5.97994 2.35754 51.5544 5.97994 2.35754
108 2 51.2093 6.16782 -0.941074 51.2093 6.16782 -0.941074
109 1 0.986098 7.66013 0.644541 0.986098 7.66013 0.644541
110 2 3.01349 7.45924 2.08927 3.01349 7.45924 2.08927
111 2 2.73862 7.63655 -1.06226 2.73862 7.63655 -1.06226
112 1 3.92201 9.27644 0.415181 3.92201 9.27644 0.415181
113 2 5.92285 9.11808 1.88181 5.92285 9.11808 1.88181
114 2 5.65965 9.28855 -1.33604 5.65965 9.28855 -1.33604
115 1 6.73283 7.55677 0.126658 6.73283 7.55677 0.126658
116 2 8.71053 7.44589 1.82329 8.71053 7.44589 1.82329
117 2 8.57505 7.56512 -1.54005 8.57505 7.56512 -1.54005
118 1 9.57844 9.09483 0.224989 9.57844 9.09483 0.224989
119 2 11.552 9.26184 1.72911 11.552 9.26184 1.72911
120 2 11.4219 9.11501 -1.4695 11.4219 9.11501 -1.4695
121 1 12.4959 7.54323 0.244076 12.4959 7.54323 0.244076
122 2 14.4615 7.53125 1.80158 14.4615 7.53125 1.80158
123 2 14.2013 7.54753 -1.44506 14.2013 7.54753 -1.44506
124 1 15.3223 9.1812 0.176864 15.3223 9.1812 0.176864
125 2 17.2341 9.1864 1.71429 17.2341 9.1864 1.71429
126 2 17.2228 9.23207 -1.51006 17.2228 9.23207 -1.51006
127 1 18.0837 7.55001 0.0285417 18.0837 7.55001 0.0285417
128 2 20.1096 7.45605 1.5012 20.1096 7.45605 1.5012
129 2 19.8522 7.68468 -1.66329 19.8522 7.68468 -1.66329
130 1 21.0542 9.21492 -0.0228734 21.0542 9.21492 -0.0228734
131 2 23.0089 9.17786 1.55986 23.0089 9.17786 1.55986
132 2 22.8085 9.2613 -1.69818 22.8085 9.2613 -1.69818
133 1 23.8588 7.55955 -0.124578 23.8588 7.55955 -0.124578
134 2 25.7545 7.63242 1.45914 25.7545 7.63242 1.45914
135 2 25.5448 7.65208 -1.91196 25.5448 7.65208 -1.91196
136 1 26.6253 9.22624 -0.282415 26.6253 9.22624 -0.282415
137 2 28.6551 9.16941 1.36802 28.6551 9.16941 1.36802
138 2 28.6742 9.39279 -1.8189 28.6742 9.39279 -1.8189
139 1 29.5655 7.56865 -0.257638 29.5655 7.56865 -0.257638
140 2 31.3229 7.55405 1.52771 31.3229 7.55405 1.52771
141 2 31.7054 7.84633 -1.68706 31.7054 7.84633 -1.68706
142 1 32.523 9.25649 0.196192 32.523 9.25649 0.196192
143 2 34.3862 9.07457 1.92961 34.3862 9.07457 1.92961
144 2 34.4782 9.44756 -1.37959 34.4782 9.44756 -1.37959
145 1 35.3568 7.6534 0.0910012 35.3568 7.6534 0.0910012
146 2 36.9141 7.50292 1.9942 36.9141 7.50292 1.9942
147 2 37.5528 7.8168 -1.16953 37.5528 7.8168 -1.16953
148 1 38.1866 9.38127 0.72164 38.1866 9.38127 0.72164
149 2 40.1501 9.35077 2.26579 40.1501 9.35077 2.26579
150 2 39.9366 9.47461 -1.02994 39.9366 9.47461 -1.02994
151 1 41.0536 7.68777 0.386308 41.0536 7.68777 0.386308
152 2 42.6896 7.61795 2.21296 42.6896 7.61795 2.21296
153 2 43.1495 7.87187 -1.02037 43.1495 7.87187 -1.02037
154 1 43.9133 9.29121 0.755992 43.9133 9.29121 0.755992
155 2 45.6795 9.24099 2.52985 45.6795 9.24099 2.52985
156 2 45.8537 9.36442 -0.719834 45.8537 9.36442 -0.719834
157 1 46.6986 7.6898 0.920865 46.6986 7.6898 0.920865
158 2 48.5084 7.76383 2.57635 48.5084 7.76383 2.57635
159 2 48.6284 7.58359 -0.643169 48.6284 7.58359 -0.643169
160 1 49.5525 9.30326 0.872243 49.5525 9.30326 0.872243
161 2 51.5428 9.32043 2.41061 51.5428 9.32043 2.41061
162 2 51.3004 9.36134 -0.836658 51.3004 9.36134 -0.836658
163 1 1.04951 10.938 0.739516 1.04951 10.938 0.739516
164 2 3.12405 10.6538 2.28255 3.12405 10.6538 2.28255
165 2 2.86602 11.1144 -1.01878 2.86602 11.1144 -1.01878
166 1 3.91621 12.4564 0.694092 3.91621 12.4564 0.694092
167 2 5.99066 12.2072 2.15766 5.99066 12.2072 2.15766
168 2 5.67657 12.6954 -1.09059 5.67657 12.6954 -1.09059
169 1 6.8102 10.7763 0.265032 6.8102 10.7763 0.265032
170 2 8.71469 10.8401 1.81192 8.71469 10.8401 1.81192
171 2 8.63778 10.7122 -1.50143 8.63778 10.7122 -1.50143
172 1 9.61591 12.39 0.0608866 9.61591 12.39 0.0608866
173 2 11.5772 12.5495 1.67266 11.5772 12.5495 1.67266
174 2 11.3545 12.3547 -1.6603 11.3545 12.3547 -1.6603
175 1 12.3845 10.8437 0.0318414 12.3845 10.8437 0.0318414
176 2 14.287 10.8876 1.65247 14.287 10.8876 1.65247
177 2 14.3459 10.812 -1.57712 14.3459 10.812 -1.57712
178 1 15.3253 12.4117 0.0157973 15.3253 12.4117 0.0157973
179 2 17.2082 12.4679 1.68419 17.2082 12.4679 1.68419
180 2 17.1919 12.384 -1.67578 17.1919 12.384 -1.67578
181 1 18.1722 10.8051 0.0847847 18.1722 10.8051 0.0847847
182 2 19.9764 10.7457 1.79879 19.9764 10.7457 1.79879
183 2 20.1276 10.9 -1.59974 20.1276 10.9 -1.59974
184 1 21.0187 12.4116 0.0797708 21.0187 12.4116 0.0797708
185 2 22.9428 12.5292 1.60563 22.9428 12.5292 1.60563
186 2 22.8929 12.4873 -1.64056 22.8929 12.4873 -1.64056
187 1 23.8857 10.8803 -0.131376 23.8857 10.8803 -0.131376
188 2 25.8521 10.6837 1.39346 25.8521 10.6837 1.39346
189 2 25.7086 10.8664 -1.8634 25.7086 10.8664 -1.8634
190 1 26.6556 12.4767 -0.194796 26.6556 12.4767 -0.194796
191 2 28.446 12.3432 1.52592 28.446 12.3432 1.52592
192 2 28.7102 12.5353 -1.71789 28.7102 12.5353 -1.71789
193 1 29.6576 10.8775 -0.0419172 29.6576 10.8775 -0.0419172
194 2 31.4064 10.7908 1.84432 31.4064 10.7908 1.84432
195 2 31.7869 11.0056 -1.35482 31.7869 11.0056 -1.35482
196 1 32.5371 12.5572 0.551853 32.5371 12.5572 0.551853
197 2 34.4608 12.5316 2.21469 34.4608 12.5316 2.21469
198 2 34.4654 12.6218 -1.05847 34.4654 12.6218 -1.05847
199 1 35.3831 10.9005 0.501124 35.3831 10.9005 0.501124
200 2 37.1001 10.9707 2.25751 37.1001 10.9707 2.25751
201 2 37.2688 10.8997 -1.04469 37.2688 10.8997 -1.04469
202 1 38.2242 12.6508 0.586251 38.2242 12.6508 0.586251
203 2 40.1156 12.5118 2.3561 40.1156 12.5118 2.3561
204 2 40.1798 12.6683 -0.857104 40.1798 12.6683 -0.857104
205 1 41.0046 10.9744 0.625966 41.0046 10.9744 0.625966
206 2 42.8192 10.7176 2.43503 42.8192 10.7176 2.43503
207 2 43.0504 11.0611 -0.731186 43.0504 11.0611 -0.731186
208 1 43.881 12.622 1.02777 43.881 12.622 1.02777
209 2 45.7615 12.3939 2.7793 45.7615 12.3939 2.7793
210 2 45.8753 12.7376 -0.524744 45.8753 12.7376 -0.524744
211 1 46.7133 10.9115 1.04446 46.7133 10.9115 1.04446
212 2 48.842 10.9657 2.60505 48.842 10.9657 2.60505
213 2 48.6072 11.0817 -0.621724 48.6072 11.0817 -0.621724
214 1 49.5811 12.6099 0.963408 49.5811 12.6099 0.963408
215 2 51.5115 12.3176 2.62306 51.5115 12.3176 2.62306
216 2 51.4595 12.7696 -0.677602 51.4595 12.7696 -0.677602
217 1 1.10764 14.1608 1.1916 1.10764 14.1608 1.1916
218 2 3.22711 13.8719 2.61641 3.22711 13.8719 2.61641
219 2 2.78315 14.212 -0.628483 2.78315 14.212 -0.628483
220 1 4.01829 15.7705 1.0111 4.01829 15.7705 1.0111
221 2 6.20882 15.8662 2.32098 6.20882 15.8662 2.32098
222 2 5.56947 15.6084 -0.909815 5.56947 15.6084 -0.909815
223 1 6.78625 14.0951 0.623814 6.78625 14.0951 0.623814
224 2 8.98693 14.1503 1.7684 8.98693 14.1503 1.7684
225 2 8.23282 13.9499 -1.44032 8.23282 13.9499 -1.44032
226 1 9.59236 15.7136 -0.132336 9.59236 15.7136 -0.132336
227 2 11.583 15.959 1.29455 11.583 15.959 1.29455
228 2 11.4013 15.6326 -1.88057 11.4013 15.6326 -1.88057
229 1 12.4053 14.1135 -0.190973 12.4053 14.1135 -0.190973
230 2 14.3644 14.1133 1.53629 14.3644 14.1133 1.53629
231 2 14.4979 14.1297 -1.69429 14.4979 14.1297 -1.69429
232 1 15.294 15.8203 -0.0824148 15.294 15.8203 -0.0824148
233 2 17.2029 15.8732 1.53899 17.2029 15.8732 1.53899
234 2 17.2807 15.6635 -1.70113 17.2807 15.6635 -1.70113
235 1 18.135 14.0841 0.00548381 18.135 14.0841 0.00548381
236 2 20.0901 14.3494 1.55854 20.0901 14.3494 1.55854
237 2 20.0345 13.994 -1.67135 20.0345 13.994 -1.67135
238 1 20.979 15.8044 -0.213988 20.979 15.8044 -0.213988
239 2 22.8044 15.8405 1.52026 22.8044 15.8405 1.52026
240 2 23.0011 15.7004 -1.83193 23.0011 15.7004 -1.83193
241 1 23.9023 14.1557 -0.0111692 23.9023 14.1557 -0.0111692
242 2 25.798 13.9226 1.62526 25.798 13.9226 1.62526
243 2 25.7919 14.3947 -1.63209 25.7919 14.3947 -1.63209
244 1 26.7095 15.7826 0.166964 26.7095 15.7826 0.166964
245 2 28.5637 15.6329 1.75252 28.5637 15.6329 1.75252
246 2 28.5936 16.0288 -1.39594 28.5936 16.0288 -1.39594
247 1 29.5433 14.1861 0.0254684 29.5433 14.1861 0.0254684
248 2 31.3773 14.4006 1.73362 31.3773 14.4006 1.73362
249 2 31.6947 14.0169 -1.26571 31.6947 14.0169 -1.26571
250 1 32.4752 15.8978 0.291885 32.4752 15.8978 0.291885
251 2 34.1934 15.9884 2.04705 34.1934 15.9884 2.04705
252 2 34.3872 15.816 -1.21113 34.3872 15.816 -1.21113
253 1 35.3005 14.2392 0.637695 35.3005 14.2392 0.637695
254 2 37.2157 14.0247 2.318 37.2157 14.0247 2.318
255 2 37.3188 14.2918 -0.9472 37.3188 14.2918 -0.9472
256 1 38.2301 15.8253 0.826822 38.2301 15.8253 0.826822
257 2 40.0992 15.7998 2.69544 40.0992 15.7998 2.69544
258 2 40.2284 15.8968 -0.654301 40.2284 15.8968 -0.654301
259 1 41.071 14.3374 1.03928 41.071 14.3374 1.03928
260 2 42.9341 14.202 2.67823 42.9341 14.202 2.67823
261 2 43.0135 14.3207 -0.535306 43.0135 14.3207 -0.535306
262 1 43.9274 15.8357 1.12758 43.9274 15.8357 1.12758
263 2 45.6695 15.7318 2.86538 45.6695 15.7318 2.86538
264 2 45.8993 15.9183 -0.368934 45.8993 15.9183 -0.368934
265 1 46.8525 14.183 1.26137 46.8525 14.183 1.26137
266 2 48.5788 13.9737 2.85265 48.5788 13.9737 2.85265
267 2 48.6101 14.3402 -0.456752 48.6101 14.3402 -0.456752
268 1 49.6217 15.7768 1.52785 49.6217 15.7768 1.52785
269 2 51.6581 15.6642 3.02883 51.6581 15.6642 3.02883
270 2 51.3462 15.9961 -0.25671 51.3462 15.9961 -0.25671
271 1 1.16803 17.498 1.42311 1.16803 17.498 1.42311
272 2 3.46489 17.6645 2.61348 3.46489 17.6645 2.61348
273 2 2.63223 17.4025 -0.550296 2.63223 17.4025 -0.550296
274 1 3.9306 19.1406 0.620215 3.9306 19.1406 0.620215
275 2 6.05997 19.3116 1.82477 6.05997 19.3116 1.82477
276 2 5.52365 18.8296 -1.32607 5.52365 18.8296 -1.32607
277 1 6.66786 17.414 0.358626 6.66786 17.414 0.358626
278 2 8.89438 17.5155 1.57951 8.89438 17.5155 1.57951
279 2 8.21653 17.3075 -1.50555 8.21653 17.3075 -1.50555
280 1 9.44433 19.0809 -0.256812 9.44433 19.0809 -0.256812
281 2 11.4997 19.1096 1.13346 11.4997 19.1096 1.13346
282 2 11.1764 19.0391 -2.10877 11.1764 19.0391 -2.10877
283 1 12.4541 17.4472 -0.5643 12.4541 17.4472 -0.5643
284 2 14.1899 17.5141 1.21764 14.1899 17.5141 1.21764
285 2 14.4684 17.163 -1.96423 14.4684 17.163 -1.96423
286 1 15.3166 19.0114 -0.496949 15.3166 19.0114 -0.496949
287 2 17.1178 19.246 1.20089 17.1178 19.246 1.20089
288 2 17.3207 18.8566 -2.01556 17.3207 18.8566 -2.01556
289 1 18.124 17.3704 -0.14225 18.124 17.3704 -0.14225
290 2 20.13 17.5556 1.40219 20.13 17.5556 1.40219
291 2 20.0164 17.3145 -1.82292 20.0164 17.3145 -1.82292
292 1 21.0027 19.0524 -0.323165 21.0027 19.0524 -0.323165
293 2 22.8695 19.3038 1.3242 22.8695 19.3038 1.3242
294 2 23.0608 18.9669 -1.95422 23.0608 18.9669 -1.95422
295 1 23.8517 17.5339 -0.107238 23.8517 17.5339 -0.107238
296 2 25.6551 17.414 1.72387 25.6551 17.414 1.72387
297 2 25.9793 17.5557 -1.52045 25.9793 17.5557 -1.52045
298 1 26.645 19.1546 0.259602 26.645 19.1546 0.259602
299 2 28.5215 19.3375 1.88379 28.5215 19.3375 1.88379
300 2 28.5979 19.0769 -1.34668 28.5979 19.0769 -1.34668
301 1 29.5661 17.5309 0.358705 29.5661 17.5309 0.358705
302 2 31.4705 17.4958 1.94682 31.4705 17.4958 1.94682
303 2 31.5132 17.5874 -1.23146 31.5132 17.5874 -1.23146
304 1 32.4303 19.205 0.449523 32.4303 19.205 0.449523
305 2 34.4078 19.3156 2.03603 34.4078 19.3156 2.03603
306 2 34.3477 19.1875 -1.26637 34.3477 19.1875 -1.26637
307 1 35.3301 17.4824 0.384093 35.3301 17.4824 0.384093
308 2 37.136 17.4456 2.2689 37.136 17.4456 2.2689
309 2 37.402 17.3079 -1.05264 37.402 17.3079 -1.05264
310 1 38.2032 19.1288 0.613259 38.2032 19.1288 0.613259
311 2 39.9527 19.2146 2.51024 39.9527 19.2146 2.51024
312 2 40.2948 18.8975 -0.794123 40.2948 18.8975 -0.794123
313 1 41.0896 17.4543 1.13124 41.0896 17.4543 1.13124
314 2 42.9352 17.4467 2.766 42.9352 17.4467 2.766
315 2 42.9507 17.4719 -0.502851 42.9507 17.4719 -0.502851
316 1 43.8319 19.0982 1.10539 43.8319 19.0982 1.10539
317 2 45.7411 19.2567 2.86007 45.7411 19.2567 2.86007
318 2 45.7897 18.9059 -0.444349 45.7897 18.9059 -0.444349
319 1 46.7179 17.4611 1.39936 46.7179 17.4611 1.39936
320 2 48.6411 17.7313 3.03415 48.6411 17.7313 3.03415
321 2 48.6001 17.3003 -0.268831 48.6001 17.3003 -0.268831
322 1 49.5836 19.209 1.17576 49.5836 19.209 1.17576
323 2 51.5369 19.5109 2.77926 51.5369 19.5109 2.77926
324 2 51.4127 18.9347 -0.491632 51.4127 18.9347 -0.491632
325 1 1.15065 20.8874 0.802757 1.15065 20.8874 0.802757
326 2 3.31864 21.0863 2.08869 3.31864 21.0863 2.08869
327 2 2.69753 20.5323 -1.07145 2.69753 20.5323 -1.07145
328 1 3.87322 22.3763 0.0762537 3.87322 22.3763 0.0762537
329 2 5.93923 22.6016 1.53902 5.93923 22.6016 1.53902
330 2 5.65398 22.2223 -1.77446 5.65398 22.2223 -1.77446
331 1 6.73694 20.7198 -0.138734 6.73694 20.7198 -0.138734
332 2 8.70909 20.8507 1.35709 8.70909 20.8507 1.35709
333 2 8.40246 20.5587 -1.92916 8.40246 20.5587 -1.92916
334 1 9.50471 22.29 -0.567645 9.50471 22.29 -0.567645
335 2 11.539 22.5291 0.871712 11.539 22.5291 0.871712
336 2 11.3811 22.2135 -2.33519 11.3811 22.2135 -2.33519
337 1 12.2529 20.6271 -0.600246 12.2529 20.6271 -0.600246
338 2 14.3609 20.7722 0.979822 14.3609 20.7722 0.979822
339 2 14.1932 20.4296 -2.33996 14.1932 20.4296 -2.33996
340 1 15.1547 22.2912 -0.871407 15.1547 22.2912 -0.871407
341 2 16.9898 22.4998 0.914623 16.9898 22.4998 0.914623
342 2 17.3065 22.1714 -2.41228 17.3065 22.1714 -2.41228
343 1 18.1275 20.7525 -0.542621 18.1275 20.7525 -0.542621
344 2 20.0556 20.868 1.13679 20.0556 20.868 1.13679
345 2 20.0785 20.5578 -2.1877 20.0785 20.5578 -2.1877
346 1 20.9929 22.423 -0.648637 20.9929 22.423 -0.648637
347 2 22.7464 22.4538 1.13855 22.7464 22.4538 1.13855
348 2 23.028 22.4007 -2.10823 23.028 22.4007 -2.10823
349 1 23.8065 20.7105 -0.347697 23.8065 20.7105 -0.347697
350 2 25.4981 20.9072 1.57199 25.4981 20.9072 1.57199
351 2 25.9175 20.619 -1.64466 25.9175 20.619 -1.64466
352 1 26.6519 22.4345 -0.146693 26.6519 22.4345 -0.146693
353 2 28.5243 22.492 1.54255 28.5243 22.492 1.54255
354 2 28.7086 22.3834 -1.68996 28.7086 22.3834 -1.68996
355 1 29.5826 20.869 0.087798 29.5826 20.869 0.087798
356 2 31.481 21.1255 1.72376 31.481 21.1255 1.72376
357 2 31.5087 20.574 -1.4847 31.5087 20.574 -1.4847
358 1 32.3919 22.4946 -0.170752 32.3919 22.4946 -0.170752
359 2 34.2254 22.5695 1.63219 34.2254 22.5695 1.63219
360 2 34.4886 22.2877 -1.60455 34.4886 22.2877 -1.60455
361 1 35.3631 20.8305 0.249915 35.3631 20.8305 0.249915
362 2 37.1345 20.9978 2.05191 37.1345 20.9978 2.05191
363 2 37.3573 20.704 -1.16961 37.3573 20.704 -1.16961
364 1 38.1876 22.4651 0.442733 38.1876 22.4651 0.442733
365 2 40.0457 22.693 2.17013 40.0457 22.693 2.17013
366 2 40.2595 22.1519 -1.03763 40.2595 22.1519 -1.03763
367 1 41.0524 20.7295 0.906593 41.0524 20.7295 0.906593
368 2 42.9288 21.0742 2.59159 42.9288 21.0742 2.59159
369 2 42.9759 20.5236 -0.795579 42.9759 20.5236 -0.795579
370 1 43.8549 22.4517 0.6336 43.8549 22.4517 0.6336
371 2 45.6679 22.6706 2.48911 45.6679 22.6706 2.48911
372 2 45.8139 22.2449 -0.833834 45.8139 22.2449 -0.833834
373 1 46.7032 20.8009 1.10156 46.7032 20.8009 1.10156
374 2 48.6237 21.0182 2.59999 48.6237 21.0182 2.59999
375 2 48.4913 20.5848 -0.564793 48.4913 20.5848 -0.564793
376 1 49.5413 22.3912 0.790255 49.5413 22.3912 0.790255
377 2 51.5655 22.7765 2.22932 51.5655 22.7765 2.22932
378 2 51.3869 22.2498 -0.991636 51.3869 22.2498 -0.991636
379 1 1.1244 24.138 0.256076 1.1244 24.138 0.256076
380 2 3.21161 24.1971 1.7118 3.21161 24.1971 1.7118
381 2 2.73186 23.8737 -1.62123 2.73186 23.8737 -1.62123
382 1 3.96026 25.7083 -0.295394 3.96026 25.7083 -0.295394
383 2 6.00787 25.8457 1.03337 6.00787 25.8457 1.03337
384 2 5.74355 25.4927 -2.21834 5.74355 25.4927 -2.21834
385 1 6.65423 23.979 -0.422093 6.65423 23.979 -0.422093
386 2 8.88725 24.1356 1.00893 8.88725 24.1356 1.00893
387 2 8.53633 23.8932 -2.24797 8.53633 23.8932 -2.24797
388 1 9.64186 25.6531 -0.818394 9.64186 25.6531 -0.818394
389 2 11.5282 25.8696 0.736942 11.5282 25.8696 0.736942
390 2 11.3406 25.5513 -2.59368 11.3406 25.5513 -2.59368
391 1 12.4005 24.0527 -0.89644 12.4005 24.0527 -0.89644
392 2 14.2425 23.9344 0.750426 14.2425 23.9344 0.750426
393 2 14.4042 23.9826 -2.50772 14.4042 23.9826 -2.50772
394 1 15.2144 25.6306 -0.831441 15.2144 25.6306 -0.831441
395 2 17.1833 25.8997 0.691167 17.1833 25.8997 0.691167
396 2 17.106 25.6196 -2.54471 17.106 25.6196 -2.54471
397 1 18.0912 24.2128 -0.846779 18.0912 24.2128 -0.846779
398 2 20.0524 24.163 0.860155 20.0524 24.163 0.860155
399 2 20.0997 24.0257 -2.41798 20.0997 24.0257 -2.41798
400 1 20.9934 25.8222 -0.733292 20.9934 25.8222 -0.733292
401 2 22.866 25.9101 0.99932 22.866 25.9101 0.99932
402 2 23.1785 25.6912 -2.19974 23.1785 25.6912 -2.19974
403 1 23.8356 24.0834 -0.405315 23.8356 24.0834 -0.405315
404 2 25.609 24.1145 1.41969 25.609 24.1145 1.41969
405 2 25.8696 24.1127 -1.85371 25.8696 24.1127 -1.85371
406 1 26.665 25.7288 -0.197248 26.665 25.7288 -0.197248
407 2 28.6854 25.8111 1.44302 28.6854 25.8111 1.44302
408 2 28.6812 25.5604 -1.86981 28.6812 25.5604 -1.86981
409 1 29.4963 24.0599 -0.154092 29.4963 24.0599 -0.154092
410 2 31.4562 24.2734 1.30703 31.4562 24.2734 1.30703
411 2 31.397 24.1237 -1.81365 31.397 24.1237 -1.81365
412 1 32.4123 25.7254 -0.255032 32.4123 25.7254 -0.255032
413 2 34.2809 25.948 1.41942 34.2809 25.948 1.41942
414 2 34.385 25.5309 -1.79525 34.385 25.5309 -1.79525
415 1 35.3082 24.1292 -0.0132979 35.3082 24.1292 -0.0132979
416 2 37.1611 24.3184 1.77581 37.1611 24.3184 1.77581
417 2 37.3035 23.8591 -1.4758 37.3035 23.8591 -1.4758
418 1 38.1759 25.7032 -0.0962405 38.1759 25.7032 -0.0962405
419 2 39.9238 25.8853 1.72687 39.9238 25.8853 1.72687
420 2 40.2717 25.5127 -1.4733 40.2717 25.5127 -1.4733
421 1 41.0698 24.062 0.390274 41.0698 24.062 0.390274
422 2 42.8712 24.2309 2.10829 42.8712 24.2309 2.10829
423 2 43.1209 23.9467 -1.15491 43.1209 23.9467 -1.15491
424 1 43.9029 25.7143 0.363279 43.9029 25.7143 0.363279
425 2 45.7033 25.978 2.08156 45.7033 25.978 2.08156
426 2 45.8405 25.4656 -1.10749 45.8405 25.4656 -1.10749
427 1 46.7088 24.0522 0.739239 46.7088 24.0522 0.739239
428 2 48.7464 24.2902 2.20555 48.7464 24.2902 2.20555
429 2 48.566 23.7997 -1.05513 48.566 23.7997 -1.05513
430 1 49.5479 25.6379 0.228909 49.5479 25.6379 0.228909
431 2 51.3997 25.8904 1.76974 51.3997 25.8904 1.76974
432 2 51.3231 25.5944 -1.46921 51.3231 25.5944 -1.46921
433 1 1.09515 27.2891 -0.15106 1.09515 27.2891 -0.15106
434 2 2.95607 27.4444 1.36997 2.95607 27.4444 1.36997
435 2 2.75811 27.251 -1.91685 2.75811 27.251 -1.91685
436 1 3.89432 28.9671 -0.411756 3.89432 28.9671 -0.411756
437 2 6.02535 28.9089 0.905574 6.02535 28.9089 0.905574
438 2 5.51524 29.0602 -2.21138 5.51524 29.0602 -2.21138
439 1 6.76978 27.2927 -0.853079 6.76978 27.2927 -0.853079
440 2 8.74795 27.4136 0.796098 8.74795 27.4136 0.796098
441 2 8.64567 27.2466 -2.49658 8.64567 27.2466 -2.49658
442 1 9.53525 28.9258 -0.943388 9.53525 28.9258 -0.943388
443 2 11.6035 28.9581 0.67577 11.6035 28.9581 0.67577
444 2 11.2231 28.9899 -2.68191 11.2231 28.9899 -2.68191
445 1 12.3842 27.3574 -1.13425 12.3842 27.3574 -1.13425
446 2 14.1868 27.4796 0.497895 14.1868 27.4796 0.497895
447 2 14.5437 27.2114 -2.66603 14.5437 27.2114 -2.66603
448 1 15.2526 29.0455 -1.16117 15.2526 29.0455 -1.16117
449 2 17.0763 29.0105 0.545662 17.0763 29.0105 0.545662
450 2 17.2111 29.0494 -2.77266 17.2111 29.0494 -2.77266
451 1 18.1386 27.3949 -1.12295 18.1386 27.3949 -1.12295
452 2 19.7943 27.5261 0.66689 19.7943 27.5261 0.66689
453 2 20.2429 27.2325 -2.58868 20.2429 27.2325 -2.58868
454 1 21.0198 29.0225 -0.940251 21.0198 29.0225 -0.940251
455 2 22.8127 29.133 0.860789 22.8127 29.133 0.860789
456 2 22.9773 28.9471 -2.35976 22.9773 28.9471 -2.35976
457 1 23.8842 27.4276 -0.610685 23.8842 27.4276 -0.610685
458 2 25.6004 27.6219 1.16327 25.6004 27.6219 1.16327
459 2 25.9016 27.244 -2.13181 25.9016 27.244 -2.13181
460 1 26.648 29.0084 -0.655112 26.648 29.0084 -0.655112
461 2 28.2874 28.9646 1.13792 28.2874 28.9646 1.13792
462 2 28.7495 28.958 -2.03225 28.7495 28.958 -2.03225
463 1 29.471 27.3775 -0.326873 29.471 27.3775 -0.326873
464 2 31.4115 27.4551 1.29867 31.4115 27.4551 1.29867
465 2 31.4749 27.2674 -1.92681 31.4749 27.2674 -1.92681
466 1 32.3705 29.0483 -0.396893 32.3705 29.0483 -0.396893
467 2 34.1281 28.9822 1.27339 34.1281 28.9822 1.27339
468 2 34.2167 28.9046 -2.08345 34.2167 28.9046 -2.08345
469 1 35.2683 27.3701 -0.33679 35.2683 27.3701 -0.33679
470 2 37.0894 27.3886 1.37995 37.0894 27.3886 1.37995
471 2 37.2806 27.2778 -1.83235 37.2806 27.2778 -1.83235
472 1 38.1048 28.9919 -0.222037 38.1048 28.9919 -0.222037
473 2 39.9367 29.1886 1.43692 39.9367 29.1886 1.43692
474 2 40.0387 28.8856 -1.80944 40.0387 28.8856 -1.80944
475 1 41.0539 27.309 -0.0835195 41.0539 27.309 -0.0835195
476 2 42.7534 27.3435 1.81269 42.7534 27.3435 1.81269
477 2 43.0991 27.2967 -1.39252 43.0991 27.2967 -1.39252
478 1 43.7745 29.0295 0.328764 43.7745 29.0295 0.328764
479 2 45.8152 29.1184 1.74628 45.8152 29.1184 1.74628
480 2 45.6692 28.8312 -1.44322 45.6692 28.8312 -1.44322
481 1 46.6784 27.2899 0.301635 46.6784 27.2899 0.301635
482 2 48.7586 27.5679 1.76328 48.7586 27.5679 1.76328
483 2 48.3602 27.1514 -1.52633 48.3602 27.1514 -1.52633
484 1 49.4923 28.9493 -0.171214 49.4923 28.9493 -0.171214
485 2 51.5076 28.9672 1.40298 51.5076 28.9672 1.40298
486 2 51.2616 28.9702 -1.83991 51.2616 28.9702 -1.83991
487 1 1.08067 30.5822 -0.26003 1.08067 30.5822 -0.26003
488 2 3.14697 30.7765 1.12985 3.14697 30.7765 1.12985
489 2 2.80536 30.4221 -2.08368 2.80536 30.4221 -2.08368
490 1 3.97206 32.2449 -0.696825 3.97206 32.2449 -0.696825
491 2 5.90874 32.4147 0.817628 5.90874 32.4147 0.817628
492 2 5.90138 32.2927 -2.4083 5.90138 32.2927 -2.4083
493 1 6.76059 30.6818 -0.698939 6.76059 30.6818 -0.698939
494 2 8.81387 30.6254 0.75553 8.81387 30.6254 0.75553
495 2 8.44954 30.6149 -2.5081 8.44954 30.6149 -2.5081
496 1 9.46097 32.274 -1.05591 9.46097 32.274 -1.05591
497 2 11.483 32.3131 0.618612 11.483 32.3131 0.618612
498 2 11.4261 32.2235 -2.60965 11.4261 32.2235 -2.60965
499 1 12.3603 30.6581 -0.991634 12.3603 30.6581 -0.991634
500 2 14.3066 30.4652 0.68236 14.3066 30.4652 0.68236
501 2 14.2999 30.8013 -2.58897 14.2999 30.8013 -2.58897
502 1 15.3185 32.2499 -0.866441 15.3185 32.2499 -0.866441
503 2 17.2729 32.2448 0.714631 17.2729 32.2448 0.714631
504 2 17.1205 32.2179 -2.61825 17.1205 32.2179 -2.61825
505 1 18.1144 30.5686 -1.0306 18.1144 30.5686 -1.0306
506 2 19.9863 30.7301 0.624719 19.9863 30.7301 0.624719
507 2 19.9947 30.5808 -2.69611 19.9947 30.5808 -2.69611
508 1 20.8688 32.2228 -1.08852 20.8688 32.2228 -1.08852
509 2 22.6728 32.4233 0.67355 22.6728 32.4233 0.67355
510 2 22.9438 32.1535 -2.57862 22.9438 32.1535 -2.57862
511 1 23.8263 30.6374 -0.789462 23.8263 30.6374 -0.789462
512 2 25.5687 30.5656 0.949132 25.5687 30.5656 0.949132
513 2 25.7505 30.595 -2.30369 25.7505 30.595 -2.30369
514 1 26.6729 32.2034 -0.689115 26.6729 32.2034 -0.689115
515 2 28.5239 32.5156 1.12946 28.5239 32.5156 1.12946
516 2 28.6858 32.1102 -2.18452 28.6858 32.1102 -2.18452
517 1 29.3821 30.7011 -0.31093 29.3821 30.7011 -0.31093
518 2 31.5064 30.836 1.20455 31.5064 30.836 1.20455
519 2 31.3928 30.662 -2.01773 31.3928 30.662 -2.01773
520 1 32.3972 32.3445 -0.492559 32.3972 32.3445 -0.492559
521 2 34.2941 32.3416 1.15596 34.2941 32.3416 1.15596
522 2 34.3525 32.1751 -2.2263 34.3525 32.1751 -2.2263
523 1 35.2294 30.6592 -0.402401 35.2294 30.6592 -0.402401
524 2 37.0539 30.495 1.33416 37.0539 30.495 1.33416
525 2 37.2906 30.7497 -1.91359 37.2906 30.7497 -1.91359
526 1 38.0824 32.3434 -0.160154 38.0824 32.3434 -0.160154
527 2 39.9793 32.2194 1.44118 39.9793 32.2194 1.44118
528 2 39.8587 32.4207 -1.84695 39.8587 32.4207 -1.84695
529 1 40.9417 30.6134 -0.295354 40.9417 30.6134 -0.295354
530 2 42.6153 30.8946 1.51564 42.6153 30.8946 1.51564
531 2 42.9759 30.39 -1.66531 42.9759 30.39 -1.66531
532 1 43.7936 32.2982 -0.140087 43.7936 32.2982 -0.140087
533 2 45.7615 32.3293 1.4885 45.7615 32.3293 1.4885
534 2 45.657 32.4675 -1.76197 45.657 32.4675 -1.76197
535 1 46.6541 30.6682 -0.168088 46.6541 30.6682 -0.168088
536 2 48.5316 30.6858 1.42987 48.5316 30.6858 1.42987
537 2 48.5453 30.6085 -1.8885 48.5453 30.6085 -1.8885
538 1 49.5186 32.3056 -0.307323 49.5186 32.3056 -0.307323
539 2 51.365 32.3852 1.26311 51.365 32.3852 1.26311
540 2 51.376 32.0927 -2.02002 51.376 32.0927 -2.02002