ITEM: TIMESTEP
8100
ITEM: NUMBER OF ATOMS
810
ITEM: BOX BOUNDS pp pp pp
8.4137701477268123e-01 5.2176227985227342e+01
8.0961581116522285e-01 5.0206599188834083e+01
-1.0000000000000000e+01 1.0000000000000000e+01
ITEM: ATOMS id type x y z xu yu zu
1 1 52.2676 50.3818 -0.145621 0.932772 0.984797 -0.145621
2 2 2.68937 50.3668 1.8161 2.68937 0.969823 1.8161
3 2 3.04163 50.4078 -1.49457 3.04163 1.01084 -1.49457
4 1 3.77436 2.67302 0.296574 3.77436 2.67302 0.296574
5 2 5.53693 2.53696 2.01219 5.53693 2.53696 2.01219
6 2 5.80198 2.86207 -1.12478 5.80198 2.86207 -1.12478
7 1 6.5875 50.4032 0.343414 6.5875 1.00619 0.343414
8 2 8.37739 50.3665 2.12214 8.37739 0.969502 2.12214
9 2 8.69381 50.3819 -1.12696 8.69381 0.984876 -1.12696
10 1 9.52062 2.53837 0.620731 9.52062 2.53837 0.620731
11 2 11.6241 2.59414 1.99863 11.6241 2.59414 1.99863
12 2 11.272 2.60526 -1.16852 11.272 2.60526 -1.16852
13 1 12.3826 50.2788 0.279467 12.3826 0.881863 0.279467
14 2 14.3112 50.2437 1.84507 14.3112 0.84671 1.84507
15 2 14.1872 50.374 -1.41335 14.1872 0.977043 -1.41335
16 1 15.2295 2.58275 0.21362 15.2295 2.58275 0.21362
17 2 17.0464 2.56787 1.8495 17.0464 2.56787 1.8495
18 2 17.1201 2.50226 -1.36935 17.1201 2.50226 -1.36935
19 1 18.0063 50.336 0.356837 18.0063 0.938969 0.356837
20 2 19.9217 50.33 1.86652 19.9217 0.933023 1.86652
21 2 19.7377 50.2493 -1.42201 19.7377 0.8523 -1.42201
22 1 20.8411 2.56149 0.124298 20.8411 2.56149 0.124298
23 2 22.72 2.58219 1.81713 22.72 2.58219 1.81713
24 2 22.7646 2.40977 -1.45361 22.7646 2.40977 -1.45361
25 1 23.6774 50.2399 0.297889 23.6774 0.842912 0.297889
26 2 25.7821 50.2851 1.61565 25.7821 0.88815 1.61565
27 2 25.3653 50.332 -1.58273 25.3653 0.935007 -1.58273
28 1 26.5451 2.61693 0.0472621 26.5451 2.61693 0.0472621
29 2 28.3518 2.43918 1.68828 28.3518 2.43918 1.68828
30 2 28.438 2.89627 -1.58926 28.438 2.89627 -1.58926
31 1 29.3687 50.4149 -0.177804 29.3687 1.01788 -0.177804
32 2 31.1621 50.2426 1.45725 31.1621 0.845625 1.45725
33 2 31.2983 50.5287 -1.82197 31.2983 1.13172 -1.82197
34 1 32.2547 2.56855 -0.0264421 32.2547 2.56855 -0.0264421
35 2 34.1748 2.44832 1.47057 34.1748 2.44832 1.47057
36 2 33.9971 2.6835 -1.7476 33.9971 2.6835 -1.7476
37 1 35.0601 50.4038 -0.303695 35.0601 1.00682 -0.303695
38 2 36.9078 50.171 1.37344 36.9078 0.774052 1.37344
39 2 36.9234 50.6025 -1.85512 36.9234 1.20554 -1.85512
40 1 37.8666 2.63758 -0.0393775 37.8666 2.63758 -0.0393775
41 2 39.7139 2.33195 1.62075 39.7139 2.33195 1.62075
42 2 39.8466 2.711 -1.58659 39.8466 2.711 -1.58659
43 1 40.7489 50.2945 -0.144855 40.7489 0.897499 -0.144855
44 2 42.5727 50.1643 1.6652 42.5727 0.76731 1.6652
45 2 42.806 50.5145 -1.59455 42.806 1.11754 -1.59455
46 1 43.654 2.5576 0.277963 43.654 2.5576 0.277963
47 2 45.7067 2.59207 1.79342 45.7067 2.59207 1.79342
48 2 45.4607 2.42322 -1.42951 45.4607 2.42322 -1.42951
49 1 46.5354 50.3074 0.171565 46.5354 0.910414 0.171565
50 2 48.5987 50.431 1.55756 48.5987 1.03397 1.55756
51 2 48.2398 50.2709 -1.62614 48.2398 0.873959 -1.62614
52 1 49.3998 2.58004 -0.124683 49.3998 2.58004 -0.124683
53 2 51.2274 2.60736 1.55336 51.2274 2.60736 1.55336
54 2 51.4078 2.69615 -1.68596 51.4078 2.69615 -1.68596
55 1 52.3047 4.31302 -0.0424706 0.969846 4.31302 -0.0424706
56 2 2.6862 4.37121 1.80096 2.6862 4.37121 1.80096
57 2 3.0013 4.2387 -1.45861 3.0013 4.2387 -1.45861
58 1 3.8034 5.982 0.24182 3.8034 5.982 0.24182
59 2 5.40366 6.03738 2.07522 5.40366 6.03738 2.07522
60 2 5.85309 5.795 -1.14839 5.85309 5.795 -1.14839
61 1 6.60952 4.33568 0.738883 6.60952 4.33568 0.738883
62 2 8.71038 4.36544 2.1667 8.71038 4.36544 2.1667
63 2 8.40438 4.09025 -0.959856 8.40438 4.09025 -0.959856
64 1 9.51646 5.88196 0.4774 9.51646 5.88196 0.4774
65 2 11.4673 5.99573 1.95949 11.4673 5.99573 1.95949
66 2 11.2534 5.80158 -1.23999 11.2534 5.80158 -1.23999
67 1 12.3777 4.22668 0.302537 12.3777 4.22668 0.302537
68 2 14.4285 4.26799 1.837 14.4285 4.26799 1.837
69 2 14.1058 4.0864 -1.44781 14.1058 4.0864 -1.44781
70 1 15.1535 5.83279 0.0147884 15.1535 5.83279 0.0147884
71 2 17.0412 6.0417 1.58045 17.0412 6.0417 1.58045
72 2 17.0195 5.59322 -1.62865 17.0195 5.59322 -1.62865
73 1 18.0668 4.18303 0.269803 18.0668 4.18303 0.269803
74 2 20.1466 4.2283 1.78291 20.1466 4.2283 1.78291
75 2 19.8271 4.13362 -1.5176 19.8271 4.13362 -1.5176
76 1 20.8323 5.83937 0.0347822 20.8323 5.83937 0.0347822
77 2 22.692 5.89271 1.58818 22.692 5.89271 1.58818
78 2 22.798 5.67511 -1.67364 22.798 5.67511 -1.67364
79 1 23.7248 4.17898 0.0962333 23.7248 4.17898 0.0962333
80 2 25.6147 4.1706 1.77673 25.6147 4.1706 1.77673
81 2 25.6727 4.30863 -1.48665 25.6727 4.30863 -1.48665
82 1 26.5282 5.87397 0.210966 26.5282 5.87397 0.210966
83 2 28.3642 5.80765 1.91035 28.3642 5.80765 1.91035
84 2 28.5479 5.86104 -1.21919 28.5479 5.86104 -1.21919
85 1 29.3371 4.2297 0.331954 29.3371 4.2297 0.331954
86 2 31.3335 4.15962 1.6903 31.3335 4.15962 1.6903
87 2 31.1583 4.38942 -1.43983 31.1583 4.38942 -1.43983
88 1 32.2405 5.87592 0.138663 32.2405 5.87592 0.138663
89 2 34.0383 5.64078 1.74711 34.0383 5.64078 1.74711
90 2 34.1597 6.05787 -1.56611 34.1597 6.05787 -1.56611
91 1 35.0412 4.23763 -0.0199156 35.0412 4.23763 -0.0199156
92 2 36.8773 4.20516 1.5998 36.8773 4.20516 1.5998
93 2 36.9436 4.44469 -1.65564 36.9436 4.44469 -1.65564
94 1 37.9496 5.96566 0.22025 37.9496 5.96566 0.22025
95 2 39.7383 5.84744 1.94414 39.7383 5.84744 1.94414
96 2 39.9511 5.87552 -1.43805 39.9511 5.87552 -1.43805
97 1 40.7652 4.22875 0.237011 40.7652 4.22875 0.237011
98 2 42.7363 4.40627 1.74391 42.7363 4.40627 1.74391
99 2 42.7025 4.11256 -1.46387 42.7025 4.11256 -1.46387
100 1 43.6622 5.93638 -0.062037 43.6622 5.93638 -0.062037
101 2 45.6289 5.92806 1.68523 45.6289 5.92806 1.68523
102 2 45.5138 5.93623 -1.7474 45.5138 5.93623 -1.7474
103 1 46.5299 4.25361 -0.0625561 46.5299 4.25361 -0.0625561
104 2 48.4814 4.15383 1.57026 48.4814 4.15383 1.57026
105 2 48.3718 4.35254 -1.66393 48.3718 4.35254 -1.66393
106 1 49.3518 5.88878 -0.086305 49.3518 5.88878 -0.086305
107 2 51.239 6.03149 1.53644 51.239 6.03149 1.53644
108 2 51.3396 5.93497 -1.66251 51.3396 5.93497 -1.66251
109 1 52.232 7.60791 -0.0663837 0.897135 7.60791 -0.0663837
110 2 2.66139 7.77979 1.72868 2.66139 7.77979 1.72868
111 2 2.86132 7.41565 -1.43576 2.86132 7.41565 -1.43576
112 1 3.8274 9.30244 0.125347 3.8274 9.30244 0.125347
113 2 5.75685 9.42278 1.83714 5.75685 9.42278 1.83714
114 2 5.77427 9.20863 -1.45665 5.77427 9.20863 -1.45665
115 1 6.63914 7.5878 0.327289 6.63914 7.5878 0.327289
116 2 8.59732 7.66922 1.99203 8.59732 7.66922 1.99203
117 2 8.66654 7.57443 -1.28806 8.66654 7.57443 -1.28806
118 1 9.53564 9.26094 0.298887 9.53564 9.26094 0.298887
119 2 11.3697 9.26632 1.78949 11.3697 9.26632 1.78949
120 2 11.3557 9.17615 -1.41899 11.3557 9.17615 -1.41899
121 1 12.2872 7.51488 0.253988 12.2872 7.51488 0.253988
122 2 14.3413 7.47281 1.72333 14.3413 7.47281 1.72333
123 2 14.0767 7.4308 -1.55715 14.0767 7.4308 -1.55715
124 1 15.0973 9.04723 -0.137074 15.0973 9.04723 -0.137074
125 2 17.034 9.09982 1.50815 17.034 9.09982 1.50815
126 2 16.861 9.06134 -1.87185 16.861 9.06134 -1.87185
127 1 17.9979 7.45813 -0.197052 17.9979 7.45813 -0.197052
128 2 19.8131 7.65948 1.39801 19.8131 7.65948 1.39801
129 2 19.9213 7.3519 -1.8103 19.9213 7.3519 -1.8103
130 1 20.8413 9.085 -0.323181 20.8413 9.085 -0.323181
131 2 22.6357 9.03965 1.48305 22.6357 9.03965 1.48305
132 2 22.906 9.10864 -1.70166 22.906 9.10864 -1.70166
133 1 23.7087 7.48708 -0.123775 23.7087 7.48708 -0.123775
134 2 25.5181 7.48235 1.71595 25.5181 7.48235 1.71595
135 2 25.8397 7.49523 -1.53391 25.8397 7.49523 -1.53391
136 1 26.64 9.15838 0.152169 26.64 9.15838 0.152169
137 2 28.4019 9.32119 1.95302 28.4019 9.32119 1.95302
138 2 28.6484 9.13052 -1.29322 28.6484 9.13052 -1.29322
139 1 29.442 7.58488 0.432816 29.442 7.58488 0.432816
140 2 31.4169 7.3507 2.05827 31.4169 7.3507 2.05827
141 2 31.2393 7.5948 -1.34053 31.2393 7.5948 -1.34053
142 1 32.3071 9.08751 0.50216 32.3071 9.08751 0.50216
143 2 34.1937 9.04846 2.01607 34.1937 9.04846 2.01607
144 2 34.1005 9.19762 -1.1944 34.1005 9.19762 -1.1944
145 1 35.1473 7.47216 0.262507 35.1473 7.47216 0.262507
146 2 36.9322 7.4545 1.95709 36.9322 7.4545 1.95709
147 2 37.1111 7.61494 -1.36835 37.1111 7.61494 -1.36835
148 1 37.9255 9.15853 0.381626 37.9255 9.15853 0.381626
149 2 39.8572 9.12716 2.05282 39.8572 9.12716 2.05282
150 2 39.753 9.21238 -1.26121 39.753 9.21238 -1.26121
151 1 40.7636 7.54582 0.360156 40.7636 7.54582 0.360156
152 2 42.8014 7.49189 1.76302 42.8014 7.49189 1.76302
153 2 42.589 7.6897 -1.46488 42.589 7.6897 -1.46488
154 1 43.6587 9.21762 0.20323 43.6587 9.21762 0.20323
155 2 45.651 9.2118 1.72188 45.651 9.2118 1.72188
156 2 45.507 9.41387 -1.51987 45.507 9.41387 -1.51987
157 1 46.4835 7.64325 -0.0540706 46.4835 7.64325 -0.0540706
158 2 48.2417 7.46683 1.65745 48.2417 7.46683 1.65745
159 2 48.4048 7.69606 -1.62657 48.4048 7.69606 -1.62657
160 1 49.373 9.26475 0.134393 49.373 9.26475 0.134393
161 2 51.3139 9.09405 1.76634 51.3139 9.09405 1.76634
162 2 51.2745 9.35093 -1.55813 51.2745 9.35093 -1.55813
163 1 52.3436 10.8138 0.26786 1.00871 10.8138 0.26786
164 2 2.95687 10.8641 1.77064 2.95687 10.8641 1.77064
165 2 2.86164 10.8715 -1.46923 2.86164 10.8715 -1.46923
166 1 3.7797 12.5589 0.219654 3.7797 12.5589 0.219654
167 2 5.79159 12.5982 1.75552 5.79159 12.5982 1.75552
168 2 5.62971 12.6238 -1.49747 5.62971 12.6238 -1.49747
169 1 6.71431 10.9571 0.0409939 6.71431 10.9571 0.0409939
170 2 8.57515 10.9801 1.87037 8.57515 10.9801 1.87037
171 2 8.78557 10.7964 -1.47463 8.78557 10.7964 -1.47463
172 1 9.5684 12.4903 0.211636 9.5684 12.4903 0.211636
173 2 11.5068 12.5307 1.7162 11.5068 12.5307 1.7162
174 2 11.3057 12.4352 -1.56145 11.3057 12.4352 -1.56145
175 1 12.3013 10.7937 0.0022153 12.3013 10.7937 0.0022153
176 2 14.2843 10.6724 1.5441 14.2843 10.6724 1.5441
177 2 14.1324 10.798 -1.72549 14.1324 10.798 -1.72549
178 1 15.1872 12.3803 -0.0874518 15.1872 12.3803 -0.0874518
179 2 17.1784 12.468 1.43782 17.1784 12.468 1.43782
180 2 16.9001 12.3077 -1.83987 16.9001 12.3077 -1.83987
181 1 17.9735 10.7908 -0.117291 17.9735 10.7908 -0.117291
182 2 20.0643 10.8839 1.29855 20.0643 10.8839 1.29855
183 2 19.7207 10.6292 -1.86784 19.7207 10.6292 -1.86784
184 1 20.8658 12.3334 -0.485167 20.8658 12.3334 -0.485167
185 2 22.6935 12.5578 1.45433 22.6935 12.5578 1.45433
186 2 22.8904 12.1455 -1.88932 22.8904 12.1455 -1.88932
187 1 23.6787 10.7145 -0.00946262 23.6787 10.7145 -0.00946262
188 2 25.6277 10.8588 1.68039 25.6277 10.8588 1.68039
189 2 25.6381 10.6947 -1.61362 25.6381 10.6947 -1.61362
190 1 26.5691 12.3929 -0.0539683 26.5691 12.3929 -0.0539683
191 2 28.3576 12.6921 1.69769 28.3576 12.6921 1.69769
192 2 28.5972 12.2183 -1.46569 28.5972 12.2183 -1.46569
193 1 29.42 10.913 0.336273 29.42 10.913 0.336273
194 2 31.4342 11.0859 1.92878 31.4342 11.0859 1.92878
195 2 31.3054 10.5734 -1.32208 31.3054 10.5734 -1.32208
196 1 32.2387 12.4643 0.112246 32.2387 12.4643 0.112246
197 2 34.1868 12.5838 1.83412 34.1868 12.5838 1.83412
198 2 34.251 12.3632 -1.37949 34.251 12.3632 -1.37949
199 1 35.0637 10.8087 0.385859 35.0637 10.8087 0.385859
200 2 36.8936 10.6805 2.02069 36.8936 10.6805 2.02069
201 2 37.0399 10.7716 -1.15725 37.0399 10.7716 -1.15725
202 1 37.9411 12.372 0.496408 37.9411 12.372 0.496408
203 2 39.9278 12.4071 2.02952 39.9278 12.4071 2.02952
204 2 39.8157 12.4714 -1.16565 39.8157 12.4714 -1.16565
205 1 40.8174 10.8047 0.394373 40.8174 10.8047 0.394373
206 2 42.8427 10.887 1.88866 42.8427 10.887 1.88866
207 2 42.5886 10.7003 -1.43972 42.5886 10.7003 -1.43972
208 1 43.5953 12.4889 0.113426 43.5953 12.4889 0.113426
209 2 45.4502 12.5137 1.87654 45.4502 12.5137 1.87654
210 2 45.5666 12.5605 -1.36705 45.5666 12.5605 -1.36705
211 1 46.5282 10.9399 0.190635 46.5282 10.9399 0.190635
212 2 48.3449 10.7472 1.78765 48.3449 10.7472 1.78765
213 2 48.3738 10.8822 -1.51816 48.3738 10.8822 -1.51816
214 1 49.3586 12.4467 0.217194 49.3586 12.4467 0.217194
215 2 51.2417 12.3277 1.94529 51.2417 12.3277 1.94529
216 2 51.2841 12.5818 -1.30101 51.2841 12.5818 -1.30101
217 1 52.2302 14.1532 0.400602 0.895396 14.1532 0.400602
218 2 2.8614 14.3201 1.88037 2.8614 14.3201 1.88037
219 2 2.57448 14.0825 -1.40011 2.57448 14.0825 -1.40011
220 1 3.78846 15.7686 0.0293206 3.78846 15.7686 0.0293206
221 2 5.63964 15.7741 1.68158 5.63964 15.7741 1.68158
222 2 5.73491 15.7508 -1.547 5.73491 15.7508 -1.547
223 1 6.67201 14.1865 0.10244 6.67201 14.1865 0.10244
224 2 8.66258 14.295 1.73956 8.66258 14.295 1.73956
225 2 8.51917 13.8558 -1.5245 8.51917 13.8558 -1.5245
226 1 9.5143 15.8467 -0.117675 9.5143 15.8467 -0.117675
227 2 11.4262 15.877 1.50107 11.4262 15.877 1.50107
228 2 11.3138 15.6243 -1.76702 11.3138 15.6243 -1.76702
229 1 12.3853 14.0458 -0.022149 12.3853 14.0458 -0.022149
230 2 14.3935 14.1226 1.57068 14.3935 14.1226 1.57068
231 2 14.2694 13.9875 -1.74816 14.2694 13.9875 -1.74816
232 1 15.2182 15.7188 -0.214467 15.2182 15.7188 -0.214467
233 2 17.2623 15.8612 1.25361 17.2623 15.8612 1.25361
234 2 16.8981 15.4306 -2.07932 16.8981 15.4306 -2.07932
235 1 18.0121 14.0668 -0.32461 18.0121 14.0668 -0.32461
236 2 19.9012 13.9172 1.23736 19.9012 13.9172 1.23736
237 2 19.861 14.0237 -1.97077 19.861 14.0237 -1.97077
238 1 20.8441 15.6183 -0.285079 20.8441 15.6183 -0.285079
239 2 22.7456 15.7031 1.29832 22.7456 15.7031 1.29832
240 2 22.7106 15.7085 -1.92236 22.7106 15.7085 -1.92236
241 1 23.7134 13.9981 -0.379668 23.7134 13.9981 -0.379668
242 2 25.4456 14.0368 1.4377 25.4456 14.0368 1.4377
243 2 25.8202 14.0141 -1.80895 25.8202 14.0141 -1.80895
244 1 26.6331 15.7433 -0.0898825 26.6331 15.7433 -0.0898825
245 2 28.4101 15.8029 1.62721 28.4101 15.8029 1.62721
246 2 28.568 15.7525 -1.63347 28.568 15.7525 -1.63347
247 1 29.3812 14.1376 0.0582155 29.3812 14.1376 0.0582155
248 2 31.3637 14.2087 1.64762 31.3637 14.2087 1.64762
249 2 31.2411 13.897 -1.61817 31.2411 13.897 -1.61817
250 1 32.3041 15.6472 -0.22738 32.3041 15.6472 -0.22738
251 2 34.0956 15.8932 1.54303 34.0956 15.8932 1.54303
252 2 34.3314 15.5737 -1.76404 34.3314 15.5737 -1.76404
253 1 35.1646 14.0906 0.216376 35.1646 14.0906 0.216376
254 2 36.9308 14.1658 1.85608 36.9308 14.1658 1.85608
255 2 37.126 13.8861 -1.30451 37.126 13.8861 -1.30451
256 1 37.961 15.7609 0.176557 37.961 15.7609 0.176557
257 2 39.7519 15.9359 1.89832 39.7519 15.9359 1.89832
258 2 39.9479 15.5705 -1.32058 39.9479 15.5705 -1.32058
259 1 40.7794 14.079 0.452081 40.7794 14.079 0.452081
260 2 42.8431 13.8871 1.99654 42.8431 13.8871 1.99654
261 2 42.6505 14.2441 -1.30204 42.6505 14.2441 -1.30204
262 1 43.7446 15.715 0.416967 43.7446 15.715 0.416967
263 2 45.6903 15.7266 1.96661 45.6903 15.7266 1.96661
264 2 45.5349 15.6588 -1.24308 45.5349 15.6588 -1.24308
265 1 46.5537 14.1406 0.385541 46.5537 14.1406 0.385541
266 2 48.6404 14.0936 1.87107 48.6404 14.0936 1.87107
267 2 48.351 14.0941 -1.33752 48.351 14.0941 -1.33752
268 1 49.4914 15.7024 0.230559 49.4914 15.7024 0.230559
269 2 51.3728 15.9935 1.85192 51.3728 15.9935 1.85192
270 2 51.3388 15.649 -1.34164 51.3388 15.649 -1.34164
271 1 52.2907 17.448 0.0176041 0.955863 17.448 0.0176041
272 2 2.83739 17.3627 1.60258 2.83739 17.3627 1.60258
273 2 2.80114 17.3594 -1.61779 2.80114 17.3594 -1.61779
274 1 3.83181 19.0418 -0.085561 3.83181 19.0418 -0.085561
275 2 5.63536 19.1694 1.59725 5.63536 19.1694 1.59725
276 2 5.62281 19.0175 -1.65707 5.62281 19.0175 -1.65707
277 1 6.57581 17.423 0.0412326 6.57581 17.423 0.0412326
278 2 8.47738 17.3379 1.60952 8.47738 17.3379 1.60952
279 2 8.41958 17.4545 -1.71465 8.41958 17.4545 -1.71465
280 1 9.47223 19.0437 0.00110307 9.47223 19.0437 0.00110307
281 2 11.5233 18.9275 1.41641 11.5233 18.9275 1.41641
282 2 11.2788 18.954 -1.85453 11.2788 18.954 -1.85453
283 1 12.4225 17.29 -0.236557 12.4225 17.29 -0.236557
284 2 14.282 17.3064 1.42197 14.282 17.3064 1.42197
285 2 14.1556 17.2104 -1.83721 14.1556 17.2104 -1.83721
286 1 15.087 18.9199 -0.359295 15.087 18.9199 -0.359295
287 2 17.1035 18.84 1.13563 17.1035 18.84 1.13563
288 2 16.8556 19.0954 -2.10906 16.8556 19.0954 -2.10906
289 1 17.9269 17.269 -0.713125 17.9269 17.269 -0.713125
290 2 19.7262 17.2141 1.14544 19.7262 17.2141 1.14544
291 2 20.0478 17.3391 -2.18548 20.0478 17.3391 -2.18548
292 1 20.8652 18.9915 -0.440542 20.8652 18.9915 -0.440542
293 2 22.5873 18.8082 1.35179 22.5873 18.8082 1.35179
294 2 22.9795 19.1756 -1.90685 22.9795 19.1756 -1.90685
295 1 23.7806 17.3277 -0.326011 23.7806 17.3277 -0.326011
296 2 25.4371 17.3476 1.63436 25.4371 17.3476 1.63436
297 2 25.8689 17.4376 -1.72613 25.8689 17.4376 -1.72613
298 1 26.607 18.9638 0.0761411 26.607 18.9638 0.0761411
299 2 28.4821 18.8617 1.66113 28.4821 18.8617 1.66113
300 2 28.3814 19.0783 -1.64294 28.3814 19.0783 -1.64294
301 1 29.4995 17.331 -0.10942 29.4995 17.331 -0.10942
302 2 31.5481 17.3204 1.35678 31.5481 17.3204 1.35678
303 2 31.2316 17.2774 -1.86149 31.2316 17.2774 -1.86149
304 1 32.278 19.0572 -0.255756 32.278 19.0572 -0.255756
305 2 34.1485 19.0432 1.34897 34.1485 19.0432 1.34897
306 2 34.1999 18.9719 -1.87351 34.1999 18.9719 -1.87351
307 1 35.0863 17.3974 -0.241215 35.0863 17.3974 -0.241215
308 2 36.8741 17.5043 1.53196 36.8741 17.5043 1.53196
309 2 37.1572 17.3717 -1.58922 37.1572 17.3717 -1.58922
310 1 37.994 19.0042 0.0596535 37.994 19.0042 0.0596535
311 2 39.9565 18.948 1.729 39.9565 18.948 1.729
312 2 39.9977 18.9203 -1.59072 39.9977 18.9203 -1.59072
313 1 40.8761 17.2653 0.237208 40.8761 17.2653 0.237208
314 2 42.6202 17.4025 1.93921 42.6202 17.4025 1.93921
315 2 42.8495 17.0583 -1.41344 42.8495 17.0583 -1.41344
316 1 43.7737 18.9407 0.173451 43.7737 18.9407 0.173451
317 2 45.6093 19.0714 1.81323 45.6093 19.0714 1.81323
318 2 45.5392 18.9965 -1.41098 45.5392 18.9965 -1.41098
319 1 46.5513 17.3447 0.263452 46.5513 17.3447 0.263452
320 2 48.6639 17.5862 1.65035 48.6639 17.5862 1.65035
321 2 48.2316 17.1224 -1.52932 48.2316 17.1224 -1.52932
322 1 49.3856 19.0137 -0.299626 49.3856 19.0137 -0.299626
323 2 51.1713 19.1661 1.53059 51.1713 19.1661 1.53059
324 2 51.4035 18.9521 -1.69376 51.4035 18.9521 -1.69376
325 1 52.2512 20.6695 -0.165056 0.916345 20.6695 -0.165056
326 2 2.72308 20.7563 1.5606 2.72308 20.7563 1.5606
327 2 2.93128 20.7495 -1.64601 2.93128 20.7495 -1.64601
328 1 3.70867 22.4058 0.00777182 3.70867 22.4058 0.00777182
329 2 5.66026 22.2807 1.59088 5.66026 22.2807 1.59088
330 2 5.59074 22.469 -1.63123 5.59074 22.469 -1.63123
331 1 6.57852 20.6942 -0.125985 6.57852 20.6942 -0.125985
332 2 8.25185 20.499 1.66479 8.25185 20.499 1.66479
333 2 8.61762 20.7999 -1.61969 8.61762 20.7999 -1.61969
334 1 9.35046 22.3668 0.155589 9.35046 22.3668 0.155589
335 2 11.4888 22.2092 1.5759 11.4888 22.2092 1.5759
336 2 11.139 22.4337 -1.75848 11.139 22.4337 -1.75848
337 1 12.2263 20.6857 -0.269864 12.2263 20.6857 -0.269864
338 2 14.144 20.5378 1.29174 14.144 20.5378 1.29174
339 2 14.1754 20.7089 -1.89516 14.1754 20.7089 -1.89516
340 1 15.0788 22.2707 -0.202228 15.0788 22.2707 -0.202228
341 2 17.07 21.992 1.41615 17.07 21.992 1.41615
342 2 16.9803 22.3788 -1.788 16.9803 22.3788 -1.788
343 1 18.0032 20.5723 -0.397625 18.0032 20.5723 -0.397625
344 2 19.8059 20.4535 1.25132 19.8059 20.4535 1.25132
345 2 19.9317 20.7459 -2.00992 19.9317 20.7459 -2.00992
346 1 20.9073 22.2415 -0.152648 20.9073 22.2415 -0.152648
347 2 22.6242 22.1677 1.66055 22.6242 22.1677 1.66055
348 2 22.9471 22.3573 -1.62644 22.9471 22.3573 -1.62644
349 1 23.6813 20.5701 0.0559056 23.6813 20.5701 0.0559056
350 2 25.555 20.6623 1.69631 25.555 20.6623 1.69631
351 2 25.5303 20.5478 -1.6474 25.5303 20.5478 -1.6474
352 1 26.6221 22.3282 -0.0937657 26.6221 22.3282 -0.0937657
353 2 28.4951 22.2767 1.56435 28.4951 22.2767 1.56435
354 2 28.5571 22.3243 -1.67002 28.5571 22.3243 -1.67002
355 1 29.5218 20.6956 0.0399902 29.5218 20.6956 0.0399902
356 2 31.4815 20.521 1.61379 31.4815 20.521 1.61379
357 2 31.2296 20.7758 -1.62458 31.2296 20.7758 -1.62458
358 1 32.3464 22.2877 0.0601688 32.3464 22.2877 0.0601688
359 2 34.2914 22.2417 1.50121 34.2914 22.2417 1.50121
360 2 34.0954 22.3741 -1.71002 34.0954 22.3741 -1.71002
361 1 35.0958 20.6002 -0.223746 35.0958 20.6002 -0.223746
362 2 36.8975 20.6724 1.49843 36.8975 20.6724 1.49843
363 2 37.0881 20.5626 -1.63603 37.0881 20.5626 -1.63603
364 1 37.9362 22.2542 -0.0954795 37.9362 22.2542 -0.0954795
365 2 39.8212 22.2946 1.52181 39.8212 22.2946 1.52181
366 2 39.9411 22.1307 -1.61588 39.9411 22.1307 -1.61588
367 1 40.8361 20.6201 -0.0155372 40.8361 20.6201 -0.0155372
368 2 42.7216 20.7376 1.58599 42.7216 20.7376 1.58599
369 2 42.7985 20.5569 -1.68279 42.7985 20.5569 -1.68279
370 1 43.714 22.3097 -0.173886 43.714 22.3097 -0.173886
371 2 45.4742 22.297 1.64656 45.4742 22.297 1.64656
372 2 45.7805 22.3577 -1.57255 45.7805 22.3577 -1.57255
373 1 46.5472 20.7116 0.0972858 46.5472 20.7116 0.0972858
374 2 48.5326 20.6374 1.41859 48.5326 20.6374 1.41859
375 2 48.2604 20.7706 -1.64394 48.2604 20.7706 -1.64394
376 1 49.3882 22.3636 -0.132882 49.3882 22.3636 -0.132882
377 2 51.426 22.2827 1.4914 51.426 22.2827 1.4914
378 2 51.3089 22.4 -1.7409 51.3089 22.4 -1.7409
379 1 52.2133 24.0888 -0.0884714 0.878411 24.0888 -0.0884714
380 2 2.70746 24.1289 1.51804 2.70746 24.1289 1.51804
381 2 2.93437 24.0248 -1.65029 2.93437 24.0248 -1.65029
382 1 3.80661 25.8048 -0.131024 3.80661 25.8048 -0.131024
383 2 5.66695 25.8099 1.5469 5.66695 25.8099 1.5469
384 2 5.7111 25.7911 -1.71936 5.7111 25.7911 -1.71936
385 1 6.59425 24.1438 0.0110832 6.59425 24.1438 0.0110832
386 2 8.36356 24.0442 1.7544 8.36356 24.0442 1.7544
387 2 8.6625 24.113 -1.48444 8.6625 24.113 -1.48444
388 1 9.48395 25.676 0.153519 9.48395 25.676 0.153519
389 2 11.3443 25.4711 1.73024 11.3443 25.4711 1.73024
390 2 11.3221 25.8444 -1.58018 11.3221 25.8444 -1.58018
391 1 12.2838 23.9688 -0.0931281 12.2838 23.9688 -0.0931281
392 2 14.2583 23.692 1.55014 14.2583 23.692 1.55014
393 2 14.2036 24.198 -1.65354 14.2036 24.198 -1.65354
394 1 15.1169 25.5648 0.160684 15.1169 25.5648 0.160684
395 2 17.0833 25.5254 1.75642 17.0833 25.5254 1.75642
396 2 16.8758 25.5571 -1.58622 16.8758 25.5571 -1.58622
397 1 17.9923 23.8982 0.00426122 17.9923 23.8982 0.00426122
398 2 19.8943 23.6664 1.59424 19.8943 23.6664 1.59424
399 2 19.9004 24.2251 -1.50801 19.9004 24.2251 -1.50801
400 1 20.8505 25.6021 0.234535 20.8505 25.6021 0.234535
401 2 22.7362 25.4823 1.85732 22.7362 25.4823 1.85732
402 2 22.6856 25.5167 -1.31435 22.6856 25.5167 -1.31435
403 1 23.6957 23.8951 0.289585 23.6957 23.8951 0.289585
404 2 25.733 23.7184 1.72302 25.733 23.7184 1.72302
405 2 25.5561 24.1446 -1.42865 25.5561 24.1446 -1.42865
406 1 26.5275 25.6141 0.270926 26.5275 25.6141 0.270926
407 2 28.5739 25.6412 1.77097 28.5739 25.6412 1.77097
408 2 28.3582 25.6287 -1.49543 28.3582 25.6287 -1.49543
409 1 29.4495 24.032 0.0663009 29.4495 24.032 0.0663009
410 2 31.4825 23.8546 1.67543 31.4825 23.8546 1.67543
411 2 31.296 23.9421 -1.52094 31.296 23.9421 -1.52094
412 1 32.2429 25.608 0.107768 32.2429 25.608 0.107768
413 2 34.1662 25.5403 1.73711 34.1662 25.5403 1.73711
414 2 34.056 25.5982 -1.60244 34.056 25.5982 -1.60244
415 1 35.1356 23.9487 -0.0662019 35.1356 23.9487 -0.0662019
416 2 37.0507 23.8787 1.60389 37.0507 23.8787 1.60389
417 2 36.8777 24.0577 -1.71383 36.8777 24.0577 -1.71383
418 1 37.9112 25.5741 0.012109 37.9112 25.5741 0.012109
419 2 39.8033 25.6269 1.53421 39.8033 25.6269 1.53421
420 2 39.7971 25.6775 -1.68605 39.7971 25.6775 -1.68605
421 1 40.7561 23.9876 -0.0800527 40.7561 23.9876 -0.0800527
422 2 42.648 23.8922 1.51732 42.648 23.8922 1.51732
423 2 42.672 24.1586 -1.73231 42.672 24.1586 -1.73231
424 1 43.6828 25.5938 0.0114044 43.6828 25.5938 0.0114044
425 2 45.4727 25.5071 1.85133 45.4727 25.5071 1.85133
426 2 45.7107 25.6747 -1.50522 45.7107 25.6747 -1.50522
427 1 46.5758 23.9927 0.107611 46.5758 23.9927 0.107611
428 2 48.5806 23.8982 1.66549 48.5806 23.8982 1.66549
429 2 48.4201 24.1086 -1.61164 48.4201 24.1086 -1.61164
430 1 49.3853 25.7041 -0.0151732 49.3853 25.7041 -0.0151732
431 2 51.3807 25.7911 1.54092 51.3807 25.7911 1.54092
432 2 51.3269 25.8062 -1.75351 51.3269 25.8062 -1.75351
433 1 52.2706 27.3914 -0.0940682 0.935713 27.3914 -0.0940682
434 2 2.82718 27.4852 1.5303 2.82718 27.4852 1.5303
435 2 2.823 27.3714 -1.66949 2.823 27.3714 -1.66949
436 1 3.8754 29.0965 -0.0476993 3.8754 29.0965 -0.0476993
437 2 5.70769 28.9049 1.59006 5.70769 28.9049 1.59006
438 2 5.80328 29.1312 -1.69872 5.80328 29.1312 -1.69872
439 1 6.69322 27.4166 -0.130027 6.69322 27.4166 -0.130027
440 2 8.37027 27.3337 1.70205 8.37027 27.3337 1.70205
441 2 8.63698 27.3954 -1.58496 8.63698 27.3954 -1.58496
442 1 9.44669 29.0166 0.100638 9.44669 29.0166 0.100638
443 2 11.3108 28.9691 1.82 11.3108 28.9691 1.82
444 2 11.4206 29.0109 -1.36253 11.4206 29.0109 -1.36253
445 1 12.2357 27.2463 0.245958 12.2357 27.2463 0.245958
446 2 14.2047 27.2314 1.84401 14.2047 27.2314 1.84401
447 2 14.1846 27.2027 -1.43671 14.1846 27.2027 -1.43671
448 1 15.1572 28.9279 0.176497 15.1572 28.9279 0.176497
449 2 17.1348 28.8977 1.78253 17.1348 28.8977 1.78253
450 2 17.0931 28.9095 -1.47522 17.0931 28.9095 -1.47522
451 1 17.9983 27.1576 0.045361 17.9983 27.1576 0.045361
452 2 19.7837 27.2304 1.78026 19.7837 27.2304 1.78026
453 2 19.9139 27.2041 -1.54724 19.9139 27.2041 -1.54724
454 1 20.8176 28.8358 0.0862706 20.8176 28.8358 0.0862706
455 2 22.6241 28.8207 1.83273 22.6241 28.8207 1.83273
456 2 22.75 28.8725 -1.47297 22.75 28.8725 -1.47297
457 1 23.7175 27.1469 0.22083 23.7175 27.1469 0.22083
458 2 25.402 27.1111 1.93026 25.402 27.1111 1.93026
459 2 25.5976 27.2324 -1.30944 25.5976 27.2324 -1.30944
460 1 26.4453 28.8306 0.380779 26.4453 28.8306 0.380779
461 2 28.6003 29.1729 1.72535 28.6003 29.1729 1.72535
462 2 28.1984 28.7849 -1.42583 28.1984 28.7849 -1.42583
463 1 29.3093 27.2985 0.0931831 29.3093 27.2985 0.0931831
464 2 31.3969 27.4227 1.6288 31.3969 27.4227 1.6288
465 2 31.1624 27.1 -1.738 31.1624 27.1 -1.738
466 1 32.2444 28.9005 -0.320853 32.2444 28.9005 -0.320853
467 2 34.0236 29.0271 1.5787 34.0236 29.0271 1.5787
468 2 34.2958 28.8313 -1.70461 34.2958 28.8313 -1.70461
469 1 35.1306 27.3283 0.127395 35.1306 27.3283 0.127395
470 2 37.0718 27.2017 1.73143 37.0718 27.2017 1.73143
471 2 37.1441 27.3196 -1.5913 37.1441 27.3196 -1.5913
472 1 38.0071 28.9099 0.271946 38.0071 28.9099 0.271946
473 2 39.8894 28.7509 1.77449 39.8894 28.7509 1.77449
474 2 39.7396 29.0032 -1.39972 39.7396 29.0032 -1.39972
475 1 40.7727 27.2116 0.0547915 40.7727 27.2116 0.0547915
476 2 42.6194 27.1047 1.69618 42.6194 27.1047 1.69618
477 2 42.6942 27.4333 -1.59931 42.6942 27.4333 -1.59931
478 1 43.5797 28.8638 0.234021 43.5797 28.8638 0.234021
479 2 45.3967 28.9535 1.93474 45.3967 28.9535 1.93474
480 2 45.6546 28.9357 -1.29309 45.6546 28.9357 -1.29309
481 1 46.4455 27.2743 0.352796 46.4455 27.2743 0.352796
482 2 48.5343 27.1793 1.79442 48.5343 27.1793 1.79442
483 2 48.2157 27.4976 -1.42066 48.2157 27.4976 -1.42066
484 1 49.3525 28.9815 0.288629 49.3525 28.9815 0.288629
485 2 51.3198 29.0414 1.7938 51.3198 29.0414 1.7938
486 2 51.1066 29.1483 -1.45501 51.1066 29.1483 -1.45501
487 1 52.3414 30.614 0.0941618 1.00655 30.614 0.0941618
488 2 2.99062 30.7289 1.62851 2.99062 30.7289 1.62851
489 2 2.85138 30.8653 -1.63592 2.85138 30.8653 -1.63592
490 1 3.77651 32.3748 -0.0280987 3.77651 32.3748 -0.0280987
491 2 5.52262 32.065 1.77725 5.52262 32.065 1.77725
492 2 5.82372 32.5576 -1.47657 5.82372 32.5576 -1.47657
493 1 6.58133 30.7055 0.0156238 6.58133 30.7055 0.0156238
494 2 8.37459 30.5658 1.8166 8.37459 30.5658 1.8166
495 2 8.58347 30.8332 -1.46056 8.58347 30.8332 -1.46056
496 1 9.46491 32.2938 0.36364 9.46491 32.2938 0.36364
497 2 11.2258 32.163 1.96781 11.2258 32.163 1.96781
498 2 11.2556 32.3027 -1.35485 11.2556 32.3027 -1.35485
499 1 12.3235 30.5694 0.28287 12.3235 30.5694 0.28287
500 2 14.3223 30.709 1.86235 14.3223 30.709 1.86235
501 2 14.1251 30.5278 -1.40757 14.1251 30.5278 -1.40757
502 1 15.1857 32.2343 0.0875184 15.1857 32.2343 0.0875184
503 2 17.0726 32.3884 1.78123 17.0726 32.3884 1.78123
504 2 17.0884 32.0584 -1.5393 17.0884 32.0584 -1.5393
505 1 18.0014 30.5454 0.238602 18.0014 30.5454 0.238602
506 2 20.008 30.6332 1.80281 20.008 30.6332 1.80281
507 2 19.8352 30.5158 -1.55096 19.8352 30.5158 -1.55096
508 1 20.8268 32.2361 -0.0362214 20.8268 32.2361 -0.0362214
509 2 22.6338 32.514 1.63355 22.6338 32.514 1.63355
510 2 22.7386 31.912 -1.63068 22.7386 31.912 -1.63068
511 1 23.5491 30.5546 0.315232 23.5491 30.5546 0.315232
512 2 25.532 30.6533 1.84676 25.532 30.6533 1.84676
513 2 25.4149 30.4218 -1.40796 25.4149 30.4218 -1.40796
514 1 26.4059 32.21 0.0403741 26.4059 32.21 0.0403741
515 2 28.5106 32.2652 1.5173 28.5106 32.2652 1.5173
516 2 28.2181 32.1272 -1.72536 28.2181 32.1272 -1.72536
517 1 29.3468 30.5227 -0.194136 29.3468 30.5227 -0.194136
518 2 31.3114 30.4846 1.39658 31.3114 30.4846 1.39658
519 2 31.2467 30.5839 -1.94521 31.2467 30.5839 -1.94521
520 1 32.1183 32.2823 -0.186659 32.1183 32.2823 -0.186659
521 2 33.9526 32.2262 1.56229 33.9526 32.2262 1.56229
522 2 34.1794 32.2286 -1.71446 34.1794 32.2286 -1.71446
523 1 35.0836 30.6062 -0.0569742 35.0836 30.6062 -0.0569742
524 2 36.7531 30.628 1.79748 36.7531 30.628 1.79748
525 2 37.1858 30.507 -1.48051 37.1858 30.507 -1.48051
526 1 37.981 32.2115 0.249115 37.981 32.2115 0.249115
527 2 39.8111 32.2605 1.95765 39.8111 32.2605 1.95765
528 2 39.8992 32.3052 -1.30517 39.8992 32.3052 -1.30517
529 1 40.8069 30.5597 0.273059 40.8069 30.5597 0.273059
530 2 42.7329 30.5835 1.92153 42.7329 30.5835 1.92153
531 2 42.6885 30.3582 -1.36084 42.6885 30.3582 -1.36084
532 1 43.5932 32.2068 0.184899 43.5932 32.2068 0.184899
533 2 45.5265 32.3545 1.82129 45.5265 32.3545 1.82129
534 2 45.5666 31.9662 -1.40732 45.5666 31.9662 -1.40732
535 1 46.5096 30.5535 0.400151 46.5096 30.5535 0.400151
536 2 48.4194 30.7561 2.00917 48.4194 30.7561 2.00917
537 2 48.3375 30.7043 -1.2701 48.3375 30.7043 -1.2701
538 1 49.3843 32.2163 0.313201 49.3843 32.2163 0.313201
539 2 51.371 32.1849 1.822 51.371 32.1849 1.822
540 2 51.1798 32.312 -1.43459 51.1798 32.312 -1.43459
541 1 52.1887 33.8793 0.215074 0.853867 33.8793 0.215074
542 2 2.88514 34.0297 1.65587 2.88514 34.0297 1.65587