ITEM: TIMESTEP
6000
ITEM: NUMBER OF ATOMS
810
ITEM: BOX BOUNDS pp pp pp
8.4137701477268123e-01 5.2176227985227342e+01
8.0961581116522285e-01 5.0206599188834083e+01
-1.0000000000000000e+01 1.0000000000000000e+01
ITEM: ATOMS id type x y z xu yu zu
1 1 52.1253 50.3692 0.479064 0.790488 0.97217 0.479064
2 2 2.68887 50.6302 2.05228 2.68887 1.23324 2.05228
3 2 2.58999 50.1199 -1.16364 2.58999 0.72288 -1.16364
4 1 3.65631 2.59197 0.234106 3.65631 2.59197 0.234106
5 2 5.557 2.61391 2.02118 5.557 2.61391 2.02118
6 2 5.55361 2.55826 -1.3581 5.55361 2.55826 -1.3581
7 1 6.48941 50.3765 0.471965 6.48941 0.979508 0.471965
8 2 8.36553 50.3542 2.19417 8.36553 0.957252 2.19417
9 2 8.49434 50.3337 -1.14735 8.49434 0.93669 -1.14735
10 1 9.40391 2.54136 0.457137 9.40391 2.54136 0.457137
11 2 11.2357 2.553 2.06008 11.2357 2.553 2.06008
12 2 11.3504 2.49383 -1.1672 11.3504 2.49383 -1.1672
13 1 12.2809 50.2727 0.568001 12.2809 0.875703 0.568001
14 2 14.3979 50.4654 1.90611 14.3979 1.06839 1.90611
15 2 13.926 50.1822 -1.3857 13.926 0.785236 -1.3857
16 1 15.0786 2.50678 -0.0498152 15.0786 2.50678 -0.0498152
17 2 16.9736 2.61055 1.67481 16.9736 2.61055 1.67481
18 2 17.2022 2.53825 -1.59253 17.2022 2.53825 -1.59253
19 1 18.0522 50.282 0.159526 18.0522 0.885003 0.159526
20 2 20.1233 50.173 1.75634 20.1233 0.776048 1.75634
21 2 19.8689 50.3273 -1.52729 19.8689 0.930337 -1.52729
22 1 20.9015 2.52475 0.278155 20.9015 2.52475 0.278155
23 2 22.8969 2.6024 1.78 22.8969 2.6024 1.78
24 2 22.6219 2.67557 -1.52771 22.6219 2.67557 -1.52771
25 1 23.6594 50.357 0.0987557 23.6594 0.960023 0.0987557
26 2 25.6226 50.058 1.53366 25.6226 0.661004 1.53366
27 2 25.5534 50.5162 -1.72251 25.5534 1.11918 -1.72251
28 1 26.5046 2.54035 0.0813072 26.5046 2.54035 0.0813072
29 2 28.2681 2.48697 1.80534 28.2681 2.48697 1.80534
30 2 28.5066 2.65725 -1.44329 28.5066 2.65725 -1.44329
31 1 29.3539 50.2452 0.166419 29.3539 0.848213 0.166419
32 2 31.2748 49.9193 1.71051 31.2748 0.522286 1.71051
33 2 31.2338 50.5136 -1.42022 31.2338 1.11665 -1.42022
34 1 32.2356 2.4613 0.404354 32.2356 2.4613 0.404354
35 2 34.3295 2.25894 1.82851 34.3295 2.25894 1.82851
36 2 33.9662 2.78242 -1.41051 33.9662 2.78242 -1.41051
37 1 35.1063 50.2996 -0.122039 35.1063 0.902627 -0.122039
38 2 36.9558 50.3696 1.42092 36.9558 0.972663 1.42092
39 2 37.0261 50.3622 -1.76981 37.0261 0.965216 -1.76981
40 1 37.845 2.61265 -0.141659 37.845 2.61265 -0.141659
41 2 39.5988 2.7269 1.58193 39.5988 2.7269 1.58193
42 2 39.9162 2.5572 -1.65409 39.9162 2.5572 -1.65409
43 1 40.7133 50.3896 0.174901 40.7133 0.992567 0.174901
44 2 42.6203 50.2345 1.70162 42.6203 0.837535 1.70162
45 2 42.4582 50.3528 -1.53806 42.4582 0.955778 -1.53806
46 1 43.5307 2.53908 0.126795 43.5307 2.53908 0.126795
47 2 45.3469 2.61812 1.94792 45.3469 2.61812 1.94792
48 2 45.5786 2.6568 -1.34631 45.5786 2.6568 -1.34631
49 1 46.3758 50.4235 0.248149 46.3758 1.02654 0.248149
50 2 48.2447 50.3912 1.88881 48.2447 0.994253 1.88881
51 2 48.2628 50.5121 -1.39561 48.2628 1.11516 -1.39561
52 1 49.2645 2.64277 0.315944 49.2645 2.64277 0.315944
53 2 51.1864 2.71988 1.94376 51.1864 2.71988 1.94376
54 2 51.224 2.50192 -1.31864 51.224 2.50192 -1.31864
55 1 52.1666 4.31151 0.234697 0.831734 4.31151 0.234697
56 2 2.71424 4.28164 1.86124 2.71424 4.28164 1.86124
57 2 2.63013 4.3191 -1.49452 2.63013 4.3191 -1.49452
58 1 3.72953 5.93514 0.221082 3.72953 5.93514 0.221082
59 2 5.62825 5.91672 1.97138 5.62825 5.91672 1.97138
60 2 5.60159 5.84808 -1.37288 5.60159 5.84808 -1.37288
61 1 6.51521 4.18226 0.370574 6.51521 4.18226 0.370574
62 2 8.3343 4.11886 2.08774 8.3343 4.11886 2.08774
63 2 8.589 4.23944 -1.10034 8.589 4.23944 -1.10034
64 1 9.376 5.79397 0.614418 9.376 5.79397 0.614418
65 2 11.3572 5.84908 2.18922 11.3572 5.84908 2.18922
66 2 11.2107 5.92109 -1.21348 11.2107 5.92109 -1.21348
67 1 12.2415 4.25526 0.365401 12.2415 4.25526 0.365401
68 2 14.2653 4.05439 1.84193 14.2653 4.05439 1.84193
69 2 14.0703 4.30808 -1.45326 14.0703 4.30808 -1.45326
70 1 15.0851 5.83874 0.324907 15.0851 5.83874 0.324907
71 2 17.0236 5.78014 1.85571 17.0236 5.78014 1.85571
72 2 16.9457 5.96132 -1.28022 16.9457 5.96132 -1.28022
73 1 18.0063 4.24417 0.100908 18.0063 4.24417 0.100908
74 2 19.7879 4.01099 1.93114 19.7879 4.01099 1.93114
75 2 20.0373 4.22024 -1.39181 20.0373 4.22024 -1.39181
76 1 20.7943 5.86134 0.438169 20.7943 5.86134 0.438169
77 2 22.9021 5.73894 1.91246 22.9021 5.73894 1.91246
78 2 22.6868 6.07026 -1.25451 22.6868 6.07026 -1.25451
79 1 23.6678 4.26727 0.0743133 23.6678 4.26727 0.0743133
80 2 25.5037 4.1575 1.76705 25.5037 4.1575 1.76705
81 2 25.6418 4.45787 -1.43116 25.6418 4.45787 -1.43116
82 1 26.549 5.97393 0.459445 26.549 5.97393 0.459445
83 2 28.4769 5.81646 2.05232 28.4769 5.81646 2.05232
84 2 28.323 5.96395 -1.3043 28.323 5.96395 -1.3043
85 1 29.3877 4.25051 0.326462 29.3877 4.25051 0.326462
86 2 31.142 4.00728 2.07295 31.142 4.00728 2.07295
87 2 31.4097 4.13401 -1.11596 31.4097 4.13401 -1.11596
88 1 32.1923 5.7465 0.532064 32.1923 5.7465 0.532064
89 2 34.0305 5.56093 2.07506 34.0305 5.56093 2.07506
90 2 34.0826 6.05235 -1.11418 34.0826 6.05235 -1.11418
91 1 34.9824 4.15809 0.339802 34.9824 4.15809 0.339802
92 2 36.9523 4.00358 1.80249 36.9523 4.00358 1.80249
93 2 36.7143 4.40222 -1.36336 36.7143 4.40222 -1.36336
94 1 37.8504 5.91386 0.320567 37.8504 5.91386 0.320567
95 2 39.7797 5.67303 1.90931 39.7797 5.67303 1.90931
96 2 39.7837 6.00865 -1.30183 39.7837 6.00865 -1.30183
97 1 40.7751 4.26779 0.0758988 40.7751 4.26779 0.0758988
98 2 42.5583 4.10359 1.78493 42.5583 4.10359 1.78493
99 2 42.7514 4.31113 -1.42683 42.7514 4.31113 -1.42683
100 1 43.6338 5.84721 0.311412 43.6338 5.84721 0.311412
101 2 45.4389 5.82425 2.0373 45.4389 5.82425 2.0373
102 2 45.624 5.9215 -1.19 45.624 5.9215 -1.19
103 1 46.3798 4.24633 0.44916 46.3798 4.24633 0.44916
104 2 48.4387 4.2049 2.00602 48.4387 4.2049 2.00602
105 2 48.151 4.17884 -1.28922 48.151 4.17884 -1.28922
106 1 49.2793 5.86915 0.285906 49.2793 5.86915 0.285906
107 2 51.3274 5.92111 1.89589 51.3274 5.92111 1.89589
108 2 51.2004 5.92551 -1.45743 51.2004 5.92551 -1.45743
109 1 52.1709 7.51311 0.0983947 0.836016 7.51311 0.0983947
110 2 2.82101 7.69318 1.8258 2.82101 7.69318 1.8258
111 2 2.6812 7.47454 -1.53687 2.6812 7.47454 -1.53687
112 1 3.67131 9.22574 0.0272796 3.67131 9.22574 0.0272796
113 2 5.66941 9.28995 1.71572 5.66941 9.28995 1.71572
114 2 5.64116 9.02863 -1.52878 5.64116 9.02863 -1.52878
115 1 6.53868 7.51096 0.31449 6.53868 7.51096 0.31449
116 2 8.31055 7.60262 2.00846 8.31055 7.60262 2.00846
117 2 8.57259 7.38173 -1.1466 8.57259 7.38173 -1.1466
118 1 9.41571 9.13975 0.402958 9.41571 9.13975 0.402958
119 2 11.2439 9.16188 2.07691 11.2439 9.16188 2.07691
120 2 11.2848 9.09662 -1.21967 11.2848 9.09662 -1.21967
121 1 12.202 7.4603 0.477007 12.202 7.4603 0.477007
122 2 14.3216 7.41541 1.93181 14.3216 7.41541 1.93181
123 2 13.9982 7.43931 -1.27389 13.9982 7.43931 -1.27389
124 1 15.0197 9.13849 0.226502 15.0197 9.13849 0.226502
125 2 16.9255 9.35891 1.80691 16.9255 9.35891 1.80691
126 2 16.9434 9.13593 -1.41245 16.9434 9.13593 -1.41245
127 1 17.9616 7.52823 0.303786 17.9616 7.52823 0.303786
128 2 19.7209 7.58064 2.03836 19.7209 7.58064 2.03836
129 2 19.9501 7.51721 -1.24878 19.9501 7.51721 -1.24878
130 1 20.8037 9.1578 0.404289 20.8037 9.1578 0.404289
131 2 22.6976 9.22106 2.03264 22.6976 9.22106 2.03264
132 2 22.6578 9.23867 -1.2398 22.6578 9.23867 -1.2398
133 1 23.6406 7.61722 0.493097 23.6406 7.61722 0.493097
134 2 25.5793 7.46833 2.1318 25.5793 7.46833 2.1318
135 2 25.5439 7.64167 -1.10113 25.5439 7.64167 -1.10113
136 1 26.5345 9.22126 0.517479 26.5345 9.22126 0.517479
137 2 28.57 9.21425 2.05771 28.57 9.21425 2.05771
138 2 28.3842 9.21336 -1.15059 28.3842 9.21336 -1.15059
139 1 29.344 7.53246 0.362434 29.344 7.53246 0.362434
140 2 31.208 7.52206 2.0652 31.208 7.52206 2.0652
141 2 31.3125 7.48328 -1.14484 31.3125 7.48328 -1.14484
142 1 32.273 9.11363 0.452321 32.273 9.11363 0.452321
143 2 34.0993 9.19142 2.17142 34.0993 9.19142 2.17142
144 2 34.0167 9.14231 -1.1396 34.0167 9.14231 -1.1396
145 1 35.003 7.48201 0.635881 35.003 7.48201 0.635881
146 2 37.0177 7.34021 2.09574 37.0177 7.34021 2.09574
147 2 36.7793 7.57666 -1.14158 36.7793 7.57666 -1.14158
148 1 37.8289 9.14987 0.513866 37.8289 9.14987 0.513866
149 2 39.742 9.27287 2.16378 39.742 9.27287 2.16378
150 2 39.6384 9.15127 -1.16672 39.6384 9.15127 -1.16672
151 1 40.6338 7.49437 0.474877 40.6338 7.49437 0.474877
152 2 42.5496 7.39684 2.04842 42.5496 7.39684 2.04842
153 2 42.5128 7.63021 -1.21818 42.5128 7.63021 -1.21818
154 1 43.5044 9.23621 0.631985 43.5044 9.23621 0.631985
155 2 45.7046 9.22863 2.06788 45.7046 9.22863 2.06788
156 2 45.2821 9.09179 -1.12852 45.2821 9.09179 -1.12852
157 1 46.4987 7.48275 0.465635 46.4987 7.48275 0.465635
158 2 48.4591 7.49481 1.97657 48.4591 7.49481 1.97657
159 2 48.343 7.51395 -1.28449 48.343 7.51395 -1.28449
160 1 49.3212 9.14386 0.257379 49.3212 9.14386 0.257379
161 2 51.3194 9.06332 1.86236 51.3194 9.06332 1.86236
162 2 51.1844 9.25029 -1.43527 51.1844 9.25029 -1.43527
163 1 52.1253 10.8465 0.131495 0.790401 10.8465 0.131495
164 2 2.76263 10.9728 1.7335 2.76263 10.9728 1.7335
165 2 2.59801 10.9738 -1.57876 2.59801 10.9738 -1.57876
166 1 3.72884 12.5436 0.0191971 3.72884 12.5436 0.0191971
167 2 5.66536 12.4626 1.59021 5.66536 12.4626 1.59021
168 2 5.57681 12.4391 -1.68799 5.57681 12.4391 -1.68799
169 1 6.50987 10.7445 0.0204211 6.50987 10.7445 0.0204211
170 2 8.39732 10.9486 1.71047 8.39732 10.9486 1.71047
171 2 8.51743 10.5455 -1.49667 8.51743 10.5455 -1.49667
172 1 9.36897 12.3788 -0.0525342 9.36897 12.3788 -0.0525342
173 2 11.2364 12.5773 1.63234 11.2364 12.5773 1.63234
174 2 11.2439 12.1812 -1.56807 11.2439 12.1812 -1.56807
175 1 12.2748 10.7033 0.310663 12.2748 10.7033 0.310663
176 2 14.2945 11.0486 1.79525 14.2945 11.0486 1.79525
177 2 13.9534 10.5449 -1.53529 13.9534 10.5449 -1.53529
178 1 15.1102 12.3356 -0.137883 15.1102 12.3356 -0.137883
179 2 16.8883 12.5387 1.47923 16.8883 12.5387 1.47923
180 2 17.0328 12.246 -1.80144 17.0328 12.246 -1.80144
181 1 17.9356 10.7754 -0.0373814 17.9356 10.7754 -0.0373814
182 2 19.7133 11.1319 1.64963 19.7133 11.1319 1.64963
183 2 19.9392 10.4094 -1.43639 19.9392 10.4094 -1.43639
184 1 20.7933 12.371 -0.288025 20.7933 12.371 -0.288025
185 2 22.5486 12.6981 1.63595 22.5486 12.6981 1.63595
186 2 23.0151 12.2471 -1.62175 23.0151 12.2471 -1.62175
187 1 23.6838 10.8515 0.410564 23.6838 10.8515 0.410564
188 2 25.6028 10.9055 2.09789 25.6028 10.9055 2.09789
189 2 25.5036 10.8343 -1.16912 25.5036 10.8343 -1.16912
190 1 26.5102 12.4904 0.408279 26.5102 12.4904 0.408279
191 2 28.3405 12.4308 2.05983 28.3405 12.4308 2.05983
192 2 28.4965 12.5888 -1.19893 28.4965 12.5888 -1.19893
193 1 29.4192 10.7738 0.412743 29.4192 10.7738 0.412743
194 2 31.1239 10.6766 2.10033 31.1239 10.6766 2.10033
195 2 31.4591 10.958 -1.13828 31.4591 10.958 -1.13828
196 1 32.2179 12.4564 0.722056 32.2179 12.4564 0.722056
197 2 34.1947 12.3654 2.22859 34.1947 12.3654 2.22859
198 2 34.0432 12.5327 -1.05759 34.0432 12.5327 -1.05759
199 1 35.0259 10.8067 0.448829 35.0259 10.8067 0.448829
200 2 36.985 10.8766 2.03428 36.985 10.8766 2.03428
201 2 36.7589 10.6798 -1.20177 36.7589 10.6798 -1.20177
202 1 37.873 12.4149 0.258037 37.873 12.4149 0.258037
203 2 39.6614 12.6188 1.95167 39.6614 12.6188 1.95167
204 2 39.7798 12.2151 -1.35191 39.7798 12.2151 -1.35191
205 1 40.6853 10.8087 0.457544 40.6853 10.8087 0.457544
206 2 42.6009 10.9196 2.19657 42.6009 10.9196 2.19657
207 2 42.629 10.7507 -1.15192 42.629 10.7507 -1.15192
208 1 43.5879 12.468 0.444472 43.5879 12.468 0.444472
209 2 45.6734 12.4825 1.81281 45.6734 12.4825 1.81281
210 2 45.3104 12.3729 -1.37269 45.3104 12.3729 -1.37269
211 1 46.4437 10.7246 0.27133 46.4437 10.7246 0.27133
212 2 48.4814 10.9858 1.88989 48.4814 10.9858 1.88989
213 2 48.2796 10.6497 -1.49302 48.2796 10.6497 -1.49302
214 1 49.2753 12.5269 -0.0417953 49.2753 12.5269 -0.0417953
215 2 51.1097 12.4911 1.72988 51.1097 12.4911 1.72988
216 2 51.2149 12.5398 -1.55254 51.2149 12.5398 -1.55254
217 1 52.1944 14.1229 0.094137 0.859599 14.1229 0.094137
218 2 2.91497 14.2348 1.63734 2.91497 14.2348 1.63734
219 2 2.80848 14.0724 -1.69445 2.80848 14.0724 -1.69445
220 1 3.61746 15.8238 -0.20769 3.61746 15.8238 -0.20769
221 2 5.43893 15.6275 1.50715 5.43893 15.6275 1.50715
222 2 5.65668 15.7001 -1.73993 5.65668 15.7001 -1.73993
223 1 6.58131 14.1003 -0.0839704 6.58131 14.1003 -0.0839704
224 2 8.47402 14.1298 1.55642 8.47402 14.1298 1.55642
225 2 8.45949 14.0995 -1.77286 8.45949 14.0995 -1.77286
226 1 9.42457 15.7378 -0.161574 9.42457 15.7378 -0.161574
227 2 11.3982 15.7753 1.5115 11.3982 15.7753 1.5115
228 2 11.2484 15.5736 -1.79627 11.2484 15.5736 -1.79627
229 1 12.2213 13.9895 -0.094092 12.2213 13.9895 -0.094092
230 2 14.2417 14.0141 1.43294 14.2417 14.0141 1.43294
231 2 14.1169 13.8818 -1.75107 14.1169 13.8818 -1.75107
232 1 15.1468 15.6109 -0.285179 15.1468 15.6109 -0.285179
233 2 17.1168 15.6696 1.24261 17.1168 15.6696 1.24261
234 2 17.0228 15.7173 -1.98382 17.0228 15.7173 -1.98382
235 1 17.9986 14.0499 -0.406019 17.9986 14.0499 -0.406019
236 2 19.9291 14.2216 1.20285 19.9291 14.2216 1.20285
237 2 19.9064 13.9219 -1.96585 19.9064 13.9219 -1.96585
238 1 20.8594 15.7335 -0.493106 20.8594 15.7335 -0.493106
239 2 22.5794 15.6404 1.45469 22.5794 15.6404 1.45469
240 2 23.0343 15.6535 -1.8178 23.0343 15.6535 -1.8178
241 1 23.7144 14.0523 -0.0782193 23.7144 14.0523 -0.0782193
242 2 25.3888 14.1677 1.80446 25.3888 14.1677 1.80446
243 2 25.7802 14.032 -1.4037 25.7802 14.032 -1.4037
244 1 26.5023 15.7423 0.22339 26.5023 15.7423 0.22339
245 2 28.2037 15.6353 1.98692 28.2037 15.6353 1.98692
246 2 28.466 15.6469 -1.29059 28.466 15.6469 -1.29059
247 1 29.3889 14.0745 0.515099 29.3889 14.0745 0.515099
248 2 31.2531 14.2911 2.20465 31.2531 14.2911 2.20465
249 2 31.375 13.9003 -1.10578 31.375 13.9003 -1.10578
250 1 32.2054 15.7158 0.412118 32.2054 15.7158 0.412118
251 2 34.0113 15.8066 2.01756 34.0113 15.8066 2.01756
252 2 34.0411 15.5011 -1.31611 34.0411 15.5011 -1.31611
253 1 34.9961 14.1126 0.568954 34.9961 14.1126 0.568954
254 2 37.0839 14.187 1.88439 37.0839 14.187 1.88439
255 2 36.6241 13.9789 -1.31638 36.6241 13.9789 -1.31638
256 1 37.8708 15.6769 0.071804 37.8708 15.6769 0.071804
257 2 39.8816 15.7625 1.85661 39.8816 15.7625 1.85661
258 2 39.7801 15.5644 -1.47201 39.7801 15.5644 -1.47201
259 1 40.7167 14.063 0.237711 40.7167 14.063 0.237711
260 2 42.691 14.4248 1.80326 42.691 14.4248 1.80326
261 2 42.7014 13.8769 -1.41654 42.7014 13.8769 -1.41654
262 1 43.5878 15.776 -0.0215081 43.5878 15.776 -0.0215081
263 2 45.5347 15.7522 1.64812 45.5347 15.7522 1.64812
264 2 45.521 15.8343 -1.60543 45.521 15.8343 -1.60543
265 1 46.4818 14.1259 0.0326808 46.4818 14.1259 0.0326808
266 2 48.2904 14.0575 1.71397 48.2904 14.0575 1.71397
267 2 48.2933 14.1602 -1.60691 48.2933 14.1602 -1.60691
268 1 49.2629 15.7358 0.0554582 49.2629 15.7358 0.0554582
269 2 51.058 15.8933 1.7382 51.058 15.8933 1.7382
270 2 51.1136 15.6582 -1.55122 51.1136 15.6582 -1.55122
271 1 52.1387 17.3581 -0.0301141 0.803803 17.3581 -0.0301141
272 2 2.78494 17.4633 1.54142 2.78494 17.4633 1.54142
273 2 2.55403 17.4523 -1.71263 2.55403 17.4523 -1.71263
274 1 3.68082 19.0971 -0.0666684 3.68082 19.0971 -0.0666684
275 2 5.56263 19.0616 1.58054 5.56263 19.0616 1.58054
276 2 5.65039 19.0527 -1.70692 5.65039 19.0527 -1.70692
277 1 6.50212 17.38 0.00354514 6.50212 17.38 0.00354514
278 2 8.55326 17.1816 1.60979 8.55326 17.1816 1.60979
279 2 8.40802 17.4939 -1.69761 8.40802 17.4939 -1.69761
280 1 9.46718 19.0522 -0.00109393 9.46718 19.0522 -0.00109393
281 2 11.4993 18.9023 1.54412 11.4993 18.9023 1.54412
282 2 11.1747 19.0989 -1.78081 11.1747 19.0989 -1.78081
283 1 12.2803 17.3413 -0.174544 12.2803 17.3413 -0.174544
284 2 14.2257 17.2961 1.39453 14.2257 17.2961 1.39453
285 2 14.1925 17.2392 -1.82103 14.1925 17.2392 -1.82103
286 1 15.0665 18.9613 -0.208306 15.0665 18.9613 -0.208306
287 2 17.0409 18.9292 1.33263 17.0409 18.9292 1.33263
288 2 16.946 19.0849 -1.92389 16.946 19.0849 -1.92389
289 1 17.9907 17.3812 -0.357849 17.9907 17.3812 -0.357849
290 2 19.9998 17.2772 1.18268 19.9998 17.2772 1.18268
291 2 19.921 17.4382 -2.04697 19.921 17.4382 -2.04697
292 1 20.8364 19.043 -0.369221 20.8364 19.043 -0.369221
293 2 22.607 18.9692 1.47709 22.607 18.9692 1.47709
294 2 22.887 18.9449 -1.80629 22.887 18.9449 -1.80629
295 1 23.6545 17.3676 -0.0998281 23.6545 17.3676 -0.0998281
296 2 25.4041 17.4265 1.66912 25.4041 17.4265 1.66912
297 2 25.7387 17.248 -1.58066 25.7387 17.248 -1.58066
298 1 26.4728 19.0328 0.0204912 26.4728 19.0328 0.0204912
299 2 28.2428 18.8185 1.99019 28.2428 18.8185 1.99019
300 2 28.6489 18.8475 -1.4172 28.6489 18.8475 -1.4172
301 1 29.3532 17.3077 0.326372 29.3532 17.3077 0.326372
302 2 31.2359 17.6285 1.87127 31.2359 17.6285 1.87127
303 2 31.2798 17.2021 -1.41064 31.2798 17.2021 -1.41064
304 1 32.1836 19.0388 0.0297225 32.1836 19.0388 0.0297225
305 2 34.0798 19.1535 1.67429 34.0798 19.1535 1.67429
306 2 34.134 18.936 -1.65042 34.134 18.936 -1.65042
307 1 35.0037 17.3884 0.177953 35.0037 17.3884 0.177953
308 2 37.1096 17.5547 1.57348 37.1096 17.5547 1.57348
309 2 36.7395 17.1638 -1.61655 36.7395 17.1638 -1.61655
310 1 37.8632 19.022 -0.275608 37.8632 19.022 -0.275608
311 2 39.7097 19.2318 1.3348 39.7097 19.2318 1.3348
312 2 39.8878 18.8483 -1.77374 39.8878 18.8483 -1.77374
313 1 40.7382 17.3477 0.0505922 40.7382 17.3477 0.0505922
314 2 42.6621 17.5417 1.54252 42.6621 17.5417 1.54252
315 2 42.4704 17.3012 -1.69158 42.4704 17.3012 -1.69158
316 1 43.6501 19.0474 -0.202757 43.6501 19.0474 -0.202757
317 2 45.3795 19.153 1.56667 45.3795 19.153 1.56667
318 2 45.5616 18.8793 -1.67822 45.5616 18.8793 -1.67822
319 1 46.4821 17.4856 0.112188 46.4821 17.4856 0.112188
320 2 48.3223 17.5412 1.70285 48.3223 17.5412 1.70285
321 2 48.2157 17.3986 -1.68699 48.2157 17.3986 -1.68699
322 1 49.2716 19.0723 -0.0953539 49.2716 19.0723 -0.0953539
323 2 51.2316 19.0985 1.5439 51.2316 19.0985 1.5439
324 2 51.2059 18.9658 -1.72601 51.2059 18.9658 -1.72601
325 1 52.1682 20.7013 -0.152093 0.833338 20.7013 -0.152093
326 2 2.69904 20.6723 1.5305 2.69904 20.6723 1.5305
327 2 2.88643 20.7405 -1.70511 2.88643 20.7405 -1.70511
328 1 3.74625 22.3226 -0.0220534 3.74625 22.3226 -0.0220534
329 2 5.68511 22.4573 1.56251 5.68511 22.4573 1.56251
330 2 5.51602 22.3687 -1.6915 5.51602 22.3687 -1.6915
331 1 6.58393 20.7667 -0.040441 6.58393 20.7667 -0.040441
332 2 8.52164 20.756 1.52549 8.52164 20.756 1.52549
333 2 8.39655 20.6393 -1.63977 8.39655 20.6393 -1.63977
334 1 9.3424 22.4378 -0.175619 9.3424 22.4378 -0.175619
335 2 11.2089 22.3603 1.48119 11.2089 22.3603 1.48119
336 2 11.2856 22.4359 -1.77289 11.2856 22.4359 -1.77289
337 1 12.2341 20.6813 -0.118887 12.2341 20.6813 -0.118887
338 2 14.0313 20.6168 1.55959 14.0313 20.6168 1.55959
339 2 13.9641 20.5813 -1.76531 13.9641 20.5813 -1.76531
340 1 15.059 22.2959 -0.00250561 15.059 22.2959 -0.00250561
341 2 17.0729 22.3199 1.53002 17.0729 22.3199 1.53002
342 2 16.922 22.3319 -1.83555 16.922 22.3319 -1.83555
343 1 17.9734 20.6634 -0.193353 17.9734 20.6634 -0.193353
344 2 19.8543 20.5481 1.36845 19.8543 20.5481 1.36845
345 2 19.8393 20.8489 -1.80069 19.8393 20.8489 -1.80069
346 1 20.8405 22.3079 -0.113613 20.8405 22.3079 -0.113613
347 2 22.6474 22.287 1.66639 22.6474 22.287 1.66639
348 2 22.8269 22.4494 -1.70749 22.8269 22.4494 -1.70749
349 1 23.6138 20.6957 -0.105646 23.6138 20.6957 -0.105646
350 2 25.377 20.5687 1.64757 25.377 20.5687 1.64757
351 2 25.6356 20.8242 -1.60363 25.6356 20.8242 -1.60363
352 1 26.5186 22.3596 0.258085 26.5186 22.3596 0.258085
353 2 28.2527 22.2012 1.97023 28.2527 22.2012 1.97023
354 2 28.4216 22.4114 -1.27216 28.4216 22.4114 -1.27216
355 1 29.3108 20.5781 0.325491 29.3108 20.5781 0.325491
356 2 31.3517 20.5959 1.79533 31.3517 20.5959 1.79533
357 2 31.0722 20.6717 -1.45304 31.0722 20.6717 -1.45304
358 1 32.1387 22.2826 0.179525 32.1387 22.2826 0.179525
359 2 34.0862 22.2464 1.76598 34.0862 22.2464 1.76598
360 2 34.1041 22.3895 -1.54808 34.1041 22.3895 -1.54808
361 1 35.1154 20.6319 -0.00727363 35.1154 20.6319 -0.00727363
362 2 37.1091 20.5643 1.64186 37.1091 20.5643 1.64186
363 2 36.8542 20.8431 -1.74991 36.8542 20.8431 -1.74991
364 1 37.8968 22.3378 0.0548444 37.8968 22.3378 0.0548444
365 2 39.8951 22.2034 1.45756 39.8951 22.2034 1.45756
366 2 39.6595 22.5236 -1.71298 39.6595 22.5236 -1.71298
367 1 40.7028 20.6631 -0.411784 40.7028 20.6631 -0.411784
368 2 42.4091 20.5693 1.37305 42.4091 20.5693 1.37305
369 2 42.7411 20.6445 -1.85867 42.7411 20.6445 -1.85867
370 1 43.4997 22.3276 -0.0507695 43.4997 22.3276 -0.0507695
371 2 45.4787 22.4278 1.47254 45.4787 22.4278 1.47254
372 2 45.3345 22.2245 -1.82795 45.3345 22.2245 -1.82795
373 1 46.3781 20.7425 -0.0694959 46.3781 20.7425 -0.0694959
374 2 48.3806 20.6647 1.57727 48.3806 20.6647 1.57727
375 2 48.3303 20.7096 -1.76364 48.3303 20.7096 -1.76364
376 1 49.2799 22.4196 -0.0970954 49.2799 22.4196 -0.0970954
377 2 51.3106 22.3942 1.46448 51.3106 22.3942 1.46448
378 2 51.2036 22.3088 -1.80918 51.2036 22.3088 -1.80918
379 1 52.2018 24.046 -0.248298 0.866985 24.046 -0.248298
380 2 2.73596 24.047 1.44173 2.73596 24.047 1.44173
381 2 2.85219 23.9812 -1.69144 2.85219 23.9812 -1.69144
382 1 3.66978 25.645 -0.138895 3.66978 25.645 -0.138895
383 2 5.53076 25.6917 1.60176 5.53076 25.6917 1.60176
384 2 5.62996 25.6744 -1.75677 5.62996 25.6744 -1.75677
385 1 6.5198 24.0355 -0.109656 6.5198 24.0355 -0.109656
386 2 8.34745 24.1024 1.46499 8.34745 24.1024 1.46499
387 2 8.50033 24.2221 -1.78943 8.50033 24.2221 -1.78943
388 1 9.38252 25.7661 -0.126563 9.38252 25.7661 -0.126563
389 2 11.1168 25.7273 1.68834 11.1168 25.7273 1.68834
390 2 11.4416 25.7893 -1.5811 11.4416 25.7893 -1.5811
391 1 12.2687 24.0432 -0.0105857 12.2687 24.0432 -0.0105857
392 2 14.0379 23.9917 1.64492 14.0379 23.9917 1.64492
393 2 14.159 23.9741 -1.57105 14.159 23.9741 -1.57105
394 1 15.1067 25.6605 0.125273 15.1067 25.6605 0.125273
395 2 17.0874 25.6159 1.5913 17.0874 25.6159 1.5913
396 2 16.7854 25.5928 -1.62056 16.7854 25.5928 -1.62056
397 1 17.9312 24.0115 -0.209279 17.9312 24.0115 -0.209279
398 2 19.8018 23.9298 1.48442 19.8018 23.9298 1.48442
399 2 19.9152 23.8309 -1.78077 19.9152 23.8309 -1.78077
400 1 20.8239 25.5288 -0.0958856 20.8239 25.5288 -0.0958856
401 2 22.5278 25.4908 1.67669 22.5278 25.4908 1.67669
402 2 22.9465 25.6993 -1.64619 22.9465 25.6993 -1.64619
403 1 23.702 23.987 0.0529809 23.702 23.987 0.0529809
404 2 25.3919 23.937 1.84155 25.3919 23.937 1.84155
405 2 25.7017 24.1086 -1.36558 25.7017 24.1086 -1.36558
406 1 26.5111 25.6537 0.402808 26.5111 25.6537 0.402808
407 2 28.3521 25.5614 2.02814 28.3521 25.5614 2.02814
408 2 28.4479 25.5291 -1.22103 28.4479 25.5291 -1.22103
409 1 29.3812 23.947 0.410634 29.3812 23.947 0.410634
410 2 31.243 23.8368 2.03646 31.243 23.8368 2.03646
411 2 31.2862 24.159 -1.17785 31.2862 24.159 -1.17785
412 1 32.1647 25.6413 0.643471 32.1647 25.6413 0.643471
413 2 34.1989 25.421 2.03704 34.1989 25.421 2.03704
414 2 33.9981 25.7366 -1.20195 33.9981 25.7366 -1.20195
415 1 34.9783 23.9424 0.258458 34.9783 23.9424 0.258458
416 2 37.0036 23.9559 1.71672 37.0036 23.9559 1.71672
417 2 36.7658 24.0101 -1.4364 36.7658 24.0101 -1.4364
418 1 37.8798 25.7265 0.133621 37.8798 25.7265 0.133621
419 2 39.8972 25.6639 1.60399 39.8972 25.6639 1.60399
420 2 39.683 25.6476 -1.6183 39.683 25.6476 -1.6183
421 1 40.7753 24.036 -0.112227 40.7753 24.036 -0.112227
422 2 42.5447 24.0475 1.54769 42.5447 24.0475 1.54769
423 2 42.737 24.0899 -1.66619 42.737 24.0899 -1.66619
424 1 43.5944 25.7019 -0.0262436 43.5944 25.7019 -0.0262436
425 2 45.5493 25.52 1.49395 45.5493 25.52 1.49395
426 2 45.571 25.8103 -1.77496 45.571 25.8103 -1.77496
427 1 46.4397 23.9633 -0.34895 46.4397 23.9633 -0.34895
428 2 48.1589 24.0459 1.47061 48.1589 24.0459 1.47061
429 2 48.5651 24.0806 -1.7438 48.5651 24.0806 -1.7438
430 1 49.3463 25.6757 -0.0172084 49.3463 25.6757 -0.0172084
431 2 51.3968 25.4963 1.58369 51.3968 25.4963 1.58369
432 2 51.2551 25.8162 -1.6821 51.2551 25.8162 -1.6821
433 1 52.1289 27.2827 0.0529827 0.794044 27.2827 0.0529827
434 2 2.86762 27.2478 1.60223 2.86762 27.2478 1.60223
435 2 2.74898 27.3148 -1.64537 2.74898 27.3148 -1.64537
436 1 3.67549 28.9978 0.00755857 3.67549 28.9978 0.00755857
437 2 5.53342 28.7888 1.76337 5.53342 28.7888 1.76337
438 2 5.63782 29.2138 -1.49192 5.63782 29.2138 -1.49192
439 1 6.46727 27.4151 -0.0435226 6.46727 27.4151 -0.0435226
440 2 8.38302 27.3526 1.62907 8.38302 27.3526 1.62907
441 2 8.48754 27.6138 -1.56318 8.48754 27.6138 -1.56318
442 1 9.37687 29.0566 0.291565 9.37687 29.0566 0.291565
443 2 11.4546 29.0091 1.80711 11.4546 29.0091 1.80711
444 2 11.2904 29.004 -1.41926 11.2904 29.004 -1.41926
445 1 12.2298 27.3644 0.216752 12.2298 27.3644 0.216752
446 2 14.2031 27.3384 1.8107 14.2031 27.3384 1.8107
447 2 14.1501 27.4522 -1.42631 14.1501 27.4522 -1.42631
448 1 15.1505 29.0497 0.230953 15.1505 29.0497 0.230953
449 2 17.2088 28.9589 1.67587 17.2088 28.9589 1.67587
450 2 16.9242 28.8599 -1.59318 16.9242 28.8599 -1.59318
451 1 17.9527 27.2887 -0.0266231 17.9527 27.2887 -0.0266231
452 2 19.983 27.2584 1.51882 19.983 27.2584 1.51882
453 2 19.7409 27.1276 -1.75941 19.7409 27.1276 -1.75941
454 1 20.8371 28.9191 -0.1931 20.8371 28.9191 -0.1931
455 2 22.6114 28.9899 1.63193 22.6114 28.9899 1.63193
456 2 23.0288 28.9433 -1.60149 23.0288 28.9433 -1.60149
457 1 23.5936 27.259 0.167779 23.5936 27.259 0.167779
458 2 25.3718 27.3625 1.94584 25.3718 27.3625 1.94584
459 2 25.5878 27.4094 -1.26136 25.5878 27.4094 -1.26136
460 1 26.5008 29.0082 0.370137 26.5008 29.0082 0.370137
461 2 28.341 29.0331 2.0414 28.341 29.0331 2.0414
462 2 28.4145 28.8951 -1.21692 28.4145 28.8951 -1.21692
463 1 29.2891 27.2257 0.484325 29.2891 27.2257 0.484325
464 2 31.2499 27.3813 2.06005 31.2499 27.3813 2.06005
465 2 31.2375 27.089 -1.17023 31.2375 27.089 -1.17023
466 1 32.1682 28.9323 0.323217 32.1682 28.9323 0.323217
467 2 34.1102 29.0326 1.93731 34.1102 29.0326 1.93731
468 2 33.9212 28.7331 -1.3134 33.9212 28.7331 -1.3134
469 1 35.0721 27.2111 0.448299 35.0721 27.2111 0.448299
470 2 37.0803 27.3045 1.90766 37.0803 27.3045 1.90766
471 2 36.7499 27.2615 -1.3864 36.7499 27.2615 -1.3864
472 1 37.8269 28.9256 0.142334 37.8269 28.9256 0.142334
473 2 39.7288 29.0059 1.74515 39.7288 29.0059 1.74515
474 2 39.7801 28.9728 -1.53304 39.7801 28.9728 -1.53304
475 1 40.7112 27.3723 -0.028958 40.7112 27.3723 -0.028958
476 2 42.4829 27.249 1.6574 42.4829 27.249 1.6574
477 2 42.6217 27.36 -1.56442 42.6217 27.36 -1.56442
478 1 43.556 28.942 0.135909 43.556 28.942 0.135909
479 2 45.4713 28.8713 1.68501 45.4713 28.8713 1.68501
480 2 45.5317 28.9265 -1.54793 45.5317 28.9265 -1.54793
481 1 46.4581 27.2132 0.0265372 46.4581 27.2132 0.0265372
482 2 48.4539 27.3215 1.63825 48.4539 27.3215 1.63825
483 2 48.2823 27.2722 -1.60912 48.2823 27.2722 -1.60912
484 1 49.3891 28.8929 0.0211589 49.3891 28.8929 0.0211589
485 2 51.1659 28.9668 1.76729 51.1659 28.9668 1.76729
486 2 51.3444 29.0346 -1.56842 51.3444 29.0346 -1.56842
487 1 52.1648 30.595 0.161761 0.829912 30.595 0.161761
488 2 2.73589 30.5219 1.6744 2.73589 30.5219 1.6744
489 2 2.65883 30.8051 -1.48595 2.65883 30.8051 -1.48595
490 1 3.72271 32.2917 0.159652 3.72271 32.2917 0.159652
491 2 5.63017 32.378 1.85379 5.63017 32.378 1.85379
492 2 5.66558 32.1732 -1.45666 5.66558 32.1732 -1.45666
493 1 6.58199 30.7006 0.369535 6.58199 30.7006 0.369535
494 2 8.55875 30.6436 1.97098 8.55875 30.6436 1.97098
495 2 8.43565 30.8104 -1.25808 8.43565 30.8104 -1.25808
496 1 9.47155 32.2673 0.315234 9.47155 32.2673 0.315234
497 2 11.4062 32.3973 1.87833 11.4062 32.3973 1.87833
498 2 11.3245 32.131 -1.39695 11.3245 32.131 -1.39695
499 1 12.3173 30.6029 0.202297 12.3173 30.6029 0.202297
500 2 14.1658 30.6581 1.79114 14.1658 30.6581 1.79114
501 2 14.2256 30.5792 -1.44571 14.2256 30.5792 -1.44571
502 1 15.2095 32.259 0.119068 15.2095 32.259 0.119068
503 2 17.1151 32.114 1.72769 17.1151 32.114 1.72769
504 2 17.0532 32.2828 -1.67949 17.0532 32.2828 -1.67949
505 1 18.0137 30.5525 -0.189703 18.0137 30.5525 -0.189703
506 2 19.8331 30.4798 1.47437 19.8331 30.4798 1.47437
507 2 19.9207 30.5952 -1.77854 19.9207 30.5952 -1.77854
508 1 20.8724 32.2003 -0.0346249 20.8724 32.2003 -0.0346249
509 2 22.7956 32.1258 1.69422 22.7956 32.1258 1.69422
510 2 22.897 32.051 -1.68384 22.897 32.051 -1.68384
511 1 23.6447 30.5278 0.0906986 23.6447 30.5278 0.0906986
512 2 25.5602 30.8344 1.6912 25.5602 30.8344 1.6912
513 2 25.6643 30.4746 -1.49105 25.6643 30.4746 -1.49105
514 1 26.5989 32.2665 -0.0181556 26.5989 32.2665 -0.0181556
515 2 28.3362 32.3104 1.79339 28.3362 32.3104 1.79339
516 2 28.4644 32.0962 -1.5092 28.4644 32.0962 -1.5092
517 1 29.3772 30.6367 0.379472 29.3772 30.6367 0.379472
518 2 31.313 30.7226 1.93605 31.313 30.7226 1.93605
519 2 31.1579 30.5433 -1.34561 31.1579 30.5433 -1.34561
520 1 32.1724 32.2537 0.095529 32.1724 32.2537 0.095529
521 2 34.1982 32.4017 1.62562 34.1982 32.4017 1.62562
522 2 34.0713 32.2101 -1.53446 34.0713 32.2101 -1.53446
523 1 34.9426 30.5669 0.055846 34.9426 30.5669 0.055846
524 2 36.7806 30.6646 1.73938 36.7806 30.6646 1.73938
525 2 36.8699 30.5371 -1.53472 36.8699 30.5371 -1.53472
526 1 37.8308 32.1827 0.0381265 37.8308 32.1827 0.0381265
527 2 39.7115 32.3267 1.62653 39.7115 32.3267 1.62653
528 2 39.8128 32.0623 -1.59709 39.8128 32.0623 -1.59709
529 1 40.7011 30.5741 0.158635 40.7011 30.5741 0.158635
530 2 42.6297 30.7114 1.69398 42.6297 30.7114 1.69398
531 2 42.616 30.5463 -1.54496 42.616 30.5463 -1.54496
532 1 43.6817 32.2119 -0.0457292 43.6817 32.2119 -0.0457292
533 2 45.5766 32.3681 1.56448 45.5766 32.3681 1.56448
534 2 45.5221 32.0901 -1.707 45.5221 32.0901 -1.707
535 1 46.444 30.6505 0.0575726 46.444 30.6505 0.0575726
536 2 48.3853 30.5342 1.5794 48.3853 30.5342 1.5794
537 2 48.3839 30.5749 -1.63283 48.3839 30.5749 -1.63283
538 1 49.3727 32.2515 0.00595103 49.3727 32.2515 0.00595103
539 2 51.1466 32.232 1.70805 51.1466 32.232 1.70805
540 2 51.179 32.178 -1.65542 51.179 32.178 -1.65542