ITEM: TIMESTEP
3700
ITEM: NUMBER OF ATOMS
810
ITEM: BOX BOUNDS pp pp pp
8.4137701477268123e-01 5.2176227985227342e+01
8.0961581116522285e-01 5.0206599188834083e+01
-1.0000000000000000e+01 1.0000000000000000e+01
ITEM: ATOMS id type x y z xu yu zu
1 1 52.2808 50.2417 -0.0978138 0.945904 0.844739 -0.0978138
2 2 2.68591 50.1239 1.66888 2.68591 0.726922 1.66888
3 2 2.85591 50.4341 -1.60207 2.85591 1.03708 -1.60207
4 1 3.70542 2.58262 0.265075 3.70542 2.58262 0.265075
5 2 5.4027 2.37113 2.09552 5.4027 2.37113 2.09552
6 2 5.74594 2.6199 -1.15378 5.74594 2.6199 -1.15378
7 1 6.5806 50.2782 0.470152 6.5806 0.881257 0.470152
8 2 8.53946 50.2672 1.95334 8.53946 0.870178 1.95334
9 2 8.29349 50.3508 -1.31351 8.29349 0.953865 -1.31351
10 1 9.34904 2.49151 0.350789 9.34904 2.49151 0.350789
11 2 11.3987 2.60339 1.92859 11.3987 2.60339 1.92859
12 2 11.1668 2.40203 -1.34186 11.1668 2.40203 -1.34186
13 1 12.331 50.2505 0.27512 12.331 0.853561 0.27512
14 2 14.1573 50.2871 1.99178 14.1573 0.890142 1.99178
15 2 14.3064 50.1973 -1.28985 14.3064 0.800269 -1.28985
16 1 15.1434 2.52632 0.324582 15.1434 2.52632 0.324582
17 2 17.0359 2.58597 1.83191 17.0359 2.58597 1.83191
18 2 16.9677 2.46362 -1.43071 16.9677 2.46362 -1.43071
19 1 18.0657 50.2689 0.311766 18.0657 0.87192 0.311766
20 2 19.9742 50.2272 1.88168 19.9742 0.830176 1.88168
21 2 19.8111 50.3152 -1.38382 19.8111 0.918177 -1.38382
22 1 20.801 2.53121 0.196276 20.801 2.53121 0.196276
23 2 22.8729 2.29572 1.67358 22.8729 2.29572 1.67358
24 2 22.7438 2.58626 -1.41873 22.7438 2.58626 -1.41873
25 1 23.8022 50.2022 -0.0233615 23.8022 0.805189 -0.0233615
26 2 25.7259 50.3322 1.60252 25.7259 0.935248 1.60252
27 2 25.6176 50.2172 -1.63907 25.6176 0.820216 -1.63907
28 1 26.5211 2.50562 -0.121854 26.5211 2.50562 -0.121854
29 2 28.3051 2.44037 1.65523 28.3051 2.44037 1.65523
30 2 28.5267 2.70611 -1.65736 28.5267 2.70611 -1.65736
31 1 29.3799 50.3118 -0.0858284 29.3799 0.914818 -0.0858284
32 2 31.0673 50.2807 1.66907 31.0673 0.883705 1.66907
33 2 31.2834 50.3253 -1.65036 31.2834 0.928308 -1.65036
34 1 32.1624 2.55201 0.133184 32.1624 2.55201 0.133184
35 2 34.0167 2.29563 1.82976 34.0167 2.29563 1.82976
36 2 34.1951 2.74923 -1.38784 34.1951 2.74923 -1.38784
37 1 35.0327 50.327 -0.0344637 35.0327 0.929971 -0.0344637
38 2 36.9219 50.1325 1.58414 36.9219 0.73556 1.58414
39 2 36.9411 50.3757 -1.65344 36.9411 0.978754 -1.65344
40 1 37.8225 2.53792 0.213988 37.8225 2.53792 0.213988
41 2 39.8285 2.3417 1.83479 39.8285 2.3417 1.83479
42 2 39.8765 2.71069 -1.42743 39.8765 2.71069 -1.42743
43 1 40.7875 50.3131 -0.0527616 40.7875 0.916109 -0.0527616
44 2 42.5531 50.1123 1.63897 42.5531 0.71534 1.63897
45 2 42.7655 50.627 -1.55134 42.7655 1.23001 -1.55134
46 1 43.6535 2.59932 0.330893 43.6535 2.59932 0.330893
47 2 45.7147 2.41325 1.75189 45.7147 2.41325 1.75189
48 2 45.4826 2.75893 -1.49009 45.4826 2.75893 -1.49009
49 1 46.499 50.3227 -0.176073 46.499 0.925685 -0.176073
50 2 48.51 50.2445 1.44017 48.51 0.847496 1.44017
51 2 48.4484 50.3834 -1.78871 48.4484 0.986424 -1.78871
52 1 49.3675 2.51859 -0.164133 49.3675 2.51859 -0.164133
53 2 51.2487 2.52521 1.55788 51.2487 2.52521 1.55788
54 2 51.3365 2.43215 -1.69978 51.3365 2.43215 -1.69978
55 1 52.1386 4.14701 -0.0981289 0.803752 4.14701 -0.0981289
56 2 2.42693 4.05137 1.79249 2.42693 4.05137 1.79249
57 2 2.98079 4.3978 -1.40094 2.98079 4.3978 -1.40094
58 1 3.61941 5.86684 0.579761 3.61941 5.86684 0.579761
59 2 5.52497 6.02746 2.24389 5.52497 6.02746 2.24389
60 2 5.65951 5.83359 -1.00269 5.65951 5.83359 -1.00269
61 1 6.45915 4.18369 0.714442 6.45915 4.18369 0.714442
62 2 8.50142 4.10411 2.08899 8.50142 4.10411 2.08899
63 2 8.23605 4.19831 -1.06659 8.23605 4.19831 -1.06659
64 1 9.35438 5.82672 0.40548 9.35438 5.82672 0.40548
65 2 11.4891 5.70029 1.86195 11.4891 5.70029 1.86195
66 2 11.206 5.69905 -1.4185 11.206 5.69905 -1.4185
67 1 12.3219 4.16233 0.176838 12.3219 4.16233 0.176838
68 2 14.146 4.32104 1.80149 14.146 4.32104 1.80149
69 2 14.316 4.08102 -1.46349 14.316 4.08102 -1.46349
70 1 15.2102 5.79458 0.00714991 15.2102 5.79458 0.00714991
71 2 17.0345 5.90843 1.62971 17.0345 5.90843 1.62971
72 2 17.2296 5.74028 -1.61198 17.2296 5.74028 -1.61198
73 1 17.9811 4.18753 0.112657 17.9811 4.18753 0.112657
74 2 19.8349 4.35192 1.7445 19.8349 4.35192 1.7445
75 2 19.9305 4.08316 -1.57189 19.9305 4.08316 -1.57189
76 1 20.876 5.82294 0.0305045 20.876 5.82294 0.0305045
77 2 22.5918 5.61885 1.82952 22.5918 5.61885 1.82952
78 2 22.8985 5.95594 -1.41281 22.8985 5.95594 -1.41281
79 1 23.6783 4.1304 0.145936 23.6783 4.1304 0.145936
80 2 25.5801 3.95992 1.69752 25.5801 3.95992 1.69752
81 2 25.5435 4.28728 -1.58577 25.5435 4.28728 -1.58577
82 1 26.4588 5.81339 0.208577 26.4588 5.81339 0.208577
83 2 28.3633 5.7533 1.83204 28.3633 5.7533 1.83204
84 2 28.5142 5.92268 -1.39915 28.5142 5.92268 -1.39915
85 1 29.308 4.20176 0.222176 29.308 4.20176 0.222176
86 2 31.1863 4.16055 1.81373 31.1863 4.16055 1.81373
87 2 31.271 4.11914 -1.4579 31.271 4.11914 -1.4579
88 1 32.1824 5.7122 0.257958 32.1824 5.7122 0.257958
89 2 33.9471 5.76233 2.09581 33.9471 5.76233 2.09581
90 2 34.195 5.77676 -1.2121 34.195 5.77676 -1.2121
91 1 34.9439 4.11608 0.496997 34.9439 4.11608 0.496997
92 2 36.8768 4.06945 1.96167 36.8768 4.06945 1.96167
93 2 36.8244 4.25824 -1.27101 36.8244 4.25824 -1.27101
94 1 37.9198 5.79466 0.44363 37.9198 5.79466 0.44363
95 2 39.8524 5.94697 1.96497 39.8524 5.94697 1.96497
96 2 39.7803 5.7584 -1.24547 39.7803 5.7584 -1.24547
97 1 40.7469 4.20643 0.437089 40.7469 4.20643 0.437089
98 2 42.8112 4.30315 1.9493 42.8112 4.30315 1.9493
99 2 42.5624 4.26401 -1.24957 42.5624 4.26401 -1.24957
100 1 43.6023 5.88953 0.326187 43.6023 5.88953 0.326187
101 2 45.5295 5.99485 1.90616 45.5295 5.99485 1.90616
102 2 45.4862 5.83029 -1.36246 45.4862 5.83029 -1.36246
103 1 46.4312 4.22791 0.240006 46.4312 4.22791 0.240006
104 2 48.5269 4.11781 1.66928 48.5269 4.11781 1.66928
105 2 48.3659 4.18278 -1.53557 48.3659 4.18278 -1.53557
106 1 49.3473 5.89601 0.0352176 49.3473 5.89601 0.0352176
107 2 51.1606 5.74743 1.7152 51.1606 5.74743 1.7152
108 2 51.3004 5.9174 -1.58881 51.3004 5.9174 -1.58881
109 1 52.1598 7.4569 0.340566 0.824942 7.4569 0.340566
110 2 2.6128 7.65744 1.96658 2.6128 7.65744 1.96658
111 2 2.723 7.31506 -1.26999 2.723 7.31506 -1.26999
112 1 3.6206 9.13423 0.277515 3.6206 9.13423 0.277515
113 2 5.60752 9.4008 1.90028 5.60752 9.4008 1.90028
114 2 5.42979 8.79618 -1.31393 5.42979 8.79618 -1.31393
115 1 6.51509 7.53863 0.556912 6.51509 7.53863 0.556912
116 2 8.51125 7.59863 1.96443 8.51125 7.59863 1.96443
117 2 8.24227 7.45652 -1.18477 8.24227 7.45652 -1.18477
118 1 9.43401 9.04304 0.209768 9.43401 9.04304 0.209768
119 2 11.5469 9.2018 1.63128 11.5469 9.2018 1.63128
120 2 11.1136 8.81089 -1.57797 11.1136 8.81089 -1.57797
121 1 12.2404 7.39019 0.0776482 12.2404 7.39019 0.0776482
122 2 14.2585 7.57742 1.55733 14.2585 7.57742 1.55733
123 2 14.0665 7.20182 -1.58897 14.0665 7.20182 -1.58897
124 1 15.1415 9.00703 -0.214298 15.1415 9.00703 -0.214298
125 2 17.0968 9.25305 1.3536 17.0968 9.25305 1.3536
126 2 17.0435 8.87943 -1.8869 17.0435 8.87943 -1.8869
127 1 18.0662 7.44599 -0.0615849 18.0662 7.44599 -0.0615849
128 2 19.9591 7.43979 1.60428 19.9591 7.43979 1.60428
129 2 19.9899 7.3555 -1.71973 19.9899 7.3555 -1.71973
130 1 20.9271 9.12758 -0.0886352 20.9271 9.12758 -0.0886352
131 2 22.6595 9.07537 1.77857 22.6595 9.07537 1.77857
132 2 23.0914 9.05633 -1.42946 23.0914 9.05633 -1.42946
133 1 23.7031 7.47327 0.419205 23.7031 7.47327 0.419205
134 2 25.6485 7.40448 1.99196 25.6485 7.40448 1.99196
135 2 25.6105 7.58313 -1.28176 25.6105 7.58313 -1.28176
136 1 26.5327 9.07515 0.417884 26.5327 9.07515 0.417884
137 2 28.3159 9.00311 2.15046 28.3159 9.00311 2.15046
138 2 28.4947 9.12999 -1.09687 28.4947 9.12999 -1.09687
139 1 29.4846 7.4413 0.418126 29.4846 7.4413 0.418126
140 2 31.4542 7.47072 1.98763 31.4542 7.47072 1.98763
141 2 31.1225 7.36121 -1.3429 31.1225 7.36121 -1.3429
142 1 32.2017 9.17053 0.188929 32.2017 9.17053 0.188929
143 2 33.8363 9.16287 2.03117 33.8363 9.16287 2.03117
144 2 34.2919 9.14711 -1.25439 34.2919 9.14711 -1.25439
145 1 35.0175 7.46372 0.597 35.0175 7.46372 0.597
146 2 37.0358 7.53878 2.12189 37.0358 7.53878 2.12189
147 2 36.9601 7.44363 -1.17974 36.9601 7.44363 -1.17974
148 1 37.9765 9.13171 0.44164 37.9765 9.13171 0.44164
149 2 39.9437 9.27028 1.96366 39.9437 9.27028 1.96366
150 2 39.6339 9.16597 -1.24363 39.6339 9.16597 -1.24363
151 1 40.7812 7.55037 0.225411 40.7812 7.55037 0.225411
152 2 42.5342 7.54059 1.96681 42.5342 7.54059 1.96681
153 2 42.7043 7.65315 -1.37182 42.7043 7.65315 -1.37182
154 1 43.6561 9.14906 0.38811 43.6561 9.14906 0.38811
155 2 45.7256 9.0873 1.82405 45.7256 9.0873 1.82405
156 2 45.4697 9.20079 -1.36922 45.4697 9.20079 -1.36922
157 1 46.4739 7.50211 0.148271 46.4739 7.50211 0.148271
158 2 48.3683 7.40894 1.7185 48.3683 7.40894 1.7185
159 2 48.4179 7.53736 -1.5759 48.4179 7.53736 -1.5759
160 1 49.2852 9.17261 0.176222 49.2852 9.17261 0.176222
161 2 51.2825 9.27565 1.73681 51.2825 9.27565 1.73681
162 2 51.1918 8.85468 -1.42033 51.1918 8.85468 -1.42033
163 1 52.1068 10.8033 -0.0735969 0.771944 10.8033 -0.0735969
164 2 2.65736 10.836 1.75514 2.65736 10.836 1.75514
165 2 2.81504 10.6706 -1.53466 2.81504 10.6706 -1.53466
166 1 3.64776 12.3597 0.00188716 3.64776 12.3597 0.00188716
167 2 5.68064 12.2253 1.53939 5.68064 12.2253 1.53939
168 2 5.60955 12.2947 -1.68067 5.60955 12.2947 -1.68067
169 1 6.54728 10.6283 0.0149247 6.54728 10.6283 0.0149247
170 2 8.44484 10.8327 1.65107 8.44484 10.8327 1.65107
171 2 8.48932 10.4764 -1.65252 8.48932 10.4764 -1.65252
172 1 9.42805 12.2526 -0.201788 9.42805 12.2526 -0.201788
173 2 11.441 12.3448 1.27086 11.441 12.3448 1.27086
174 2 11.2102 12.2792 -1.99748 11.2102 12.2792 -1.99748
175 1 12.3219 10.6705 -0.342992 12.3219 10.6705 -0.342992
176 2 14.1431 10.693 1.355 14.1431 10.693 1.355
177 2 14.1578 10.6633 -1.94047 14.1578 10.6633 -1.94047
178 1 15.058 12.3769 -0.291216 15.058 12.3769 -0.291216
179 2 17.0062 12.2507 1.40659 17.0062 12.2507 1.40659
180 2 17.0029 12.4064 -1.89408 17.0029 12.4064 -1.89408
181 1 17.9628 10.7005 -0.358136 17.9628 10.7005 -0.358136
182 2 19.7695 10.8257 1.38603 19.7695 10.8257 1.38603
183 2 20.1046 10.7238 -1.84609 20.1046 10.7238 -1.84609
184 1 20.8382 12.5077 -0.175315 20.8382 12.5077 -0.175315
185 2 22.4795 12.3835 1.74895 22.4795 12.3835 1.74895
186 2 22.952 12.5123 -1.456 22.952 12.5123 -1.456
187 1 23.6419 10.7683 0.24899 23.6419 10.7683 0.24899
188 2 25.3363 10.6569 2.03521 25.3363 10.6569 2.03521
189 2 25.7259 10.865 -1.21796 25.7259 10.865 -1.21796
190 1 26.5051 12.4538 0.659899 26.5051 12.4538 0.659899
191 2 28.3801 12.3927 2.17029 28.3801 12.3927 2.17029
192 2 28.3303 12.4192 -0.999067 28.3303 12.4192 -0.999067
193 1 29.3569 10.7109 0.626208 29.3569 10.7109 0.626208
194 2 31.4048 10.7235 2.01156 31.4048 10.7235 2.01156
195 2 31.0048 10.9523 -1.23024 31.0048 10.9523 -1.23024
196 1 32.1903 12.4179 0.351252 32.1903 12.4179 0.351252
197 2 34.1389 12.4926 2.0965 34.1389 12.4926 2.0965
198 2 34.0942 12.3912 -1.19517 34.0942 12.3912 -1.19517
199 1 34.9977 10.7825 0.526034 34.9977 10.7825 0.526034
200 2 37.0143 10.7365 2.07329 37.0143 10.7365 2.07329
201 2 36.8049 10.7519 -1.14977 36.8049 10.7519 -1.14977
202 1 37.9468 12.4481 0.476628 37.9468 12.4481 0.476628
203 2 40.014 12.4863 1.92036 40.014 12.4863 1.92036
204 2 39.6913 12.5917 -1.29958 39.6913 12.5917 -1.29958
205 1 40.837 10.8628 0.186189 40.837 10.8628 0.186189
206 2 42.6613 11.0067 1.87912 42.6613 11.0067 1.87912
207 2 42.7521 10.6802 -1.38133 42.7521 10.6802 -1.38133
208 1 43.6108 12.5266 0.0412392 43.6108 12.5266 0.0412392
209 2 45.4146 12.5256 1.8047 45.4146 12.5256 1.8047
210 2 45.6076 12.5446 -1.50179 45.6076 12.5446 -1.50179
211 1 46.4075 10.7908 0.211291 46.4075 10.7908 0.211291
212 2 48.3758 10.9153 1.72945 48.3758 10.9153 1.72945
213 2 48.1026 10.7418 -1.55669 48.1026 10.7418 -1.55669
214 1 49.3345 12.4195 0.011219 49.3345 12.4195 0.011219
215 2 51.1488 12.4052 1.65319 51.1488 12.4052 1.65319
216 2 51.1435 12.529 -1.62995 51.1435 12.529 -1.62995
217 1 52.1274 14.0698 0.1634 0.792527 14.0698 0.1634
218 2 2.86904 14.0992 1.63994 2.86904 14.0992 1.63994
219 2 2.47332 13.9519 -1.63008 2.47332 13.9519 -1.63008
220 1 3.61806 15.6928 -0.102038 3.61806 15.6928 -0.102038
221 2 5.4697 15.6304 1.51816 5.4697 15.6304 1.51816
222 2 5.52189 15.7934 -1.72454 5.52189 15.7934 -1.72454
223 1 6.49407 14.0128 -0.149522 6.49407 14.0128 -0.149522
224 2 8.41876 13.8878 1.39939 8.41876 13.8878 1.39939
225 2 8.393 13.9984 -1.92288 8.393 13.9984 -1.92288
226 1 9.37799 15.6234 -0.23638 9.37799 15.6234 -0.23638
227 2 11.3372 15.573 1.30371 11.3372 15.573 1.30371
228 2 11.1901 15.769 -2.03052 11.1901 15.769 -2.03052
229 1 12.2471 14.0514 -0.4624 12.2471 14.0514 -0.4624
230 2 14.1243 14.0612 1.22381 14.1243 14.0612 1.22381
231 2 14.2491 13.9846 -1.95901 14.2491 13.9846 -1.95901
232 1 15.1405 15.6203 -0.384043 15.1405 15.6203 -0.384043
233 2 16.8725 15.5849 1.40652 16.8725 15.5849 1.40652
234 2 17.1892 15.8145 -1.76251 17.1892 15.8145 -1.76251
235 1 17.9562 13.985 -0.158044 17.9562 13.985 -0.158044
236 2 19.7883 13.9147 1.58791 19.7883 13.9147 1.58791
237 2 19.965 14.311 -1.64485 19.965 14.311 -1.64485
238 1 20.807 15.6866 0.300142 20.807 15.6866 0.300142
239 2 22.689 15.6268 1.98015 22.689 15.6268 1.98015
240 2 22.6522 15.6601 -1.32375 22.6522 15.6601 -1.32375
241 1 23.6335 14.0351 0.350646 23.6335 14.0351 0.350646
242 2 25.4618 14.0628 2.1686 25.4618 14.0628 2.1686
243 2 25.7165 14.0727 -1.07824 25.7165 14.0727 -1.07824
244 1 26.5179 15.7294 0.582586 26.5179 15.7294 0.582586
245 2 28.3994 15.9025 2.17017 28.3994 15.9025 2.17017
246 2 28.4068 15.6673 -1.08843 28.4068 15.6673 -1.08843
247 1 29.4228 14.0349 0.622798 29.4228 14.0349 0.622798
248 2 31.4054 13.9757 2.18549 31.4054 13.9757 2.18549
249 2 31.2295 14.1684 -1.12576 31.2295 14.1684 -1.12576
250 1 32.2697 15.7347 0.486377 32.2697 15.7347 0.486377
251 2 34.3021 15.8865 2.01049 34.3021 15.8865 2.01049
252 2 34.0423 15.6852 -1.27116 34.0423 15.6852 -1.27116
253 1 35.1003 14.088 0.374496 35.1003 14.088 0.374496
254 2 36.9631 14.1252 2.08472 36.9631 14.1252 2.08472
255 2 37.0864 14.1537 -1.23387 37.0864 14.1537 -1.23387
256 1 37.9373 15.7549 0.485959 37.9373 15.7549 0.485959
257 2 39.9822 15.8582 1.96784 39.9822 15.8582 1.96784
258 2 39.7123 15.7978 -1.3931 39.7123 15.7978 -1.3931
259 1 40.872 14.1914 0.270657 40.872 14.1914 0.270657
260 2 42.7808 14.2128 1.72442 42.7808 14.2128 1.72442
261 2 42.5845 14.127 -1.51719 42.5845 14.127 -1.51719
262 1 43.5776 15.848 0.0638686 43.5776 15.848 0.0638686
263 2 45.4876 15.8348 1.72783 45.4876 15.8348 1.72783
264 2 45.5735 15.7181 -1.52876 45.5735 15.7181 -1.52876
265 1 46.4292 14.1546 0.159289 46.4292 14.1546 0.159289
266 2 48.3661 14.122 1.72946 48.3661 14.122 1.72946
267 2 48.3302 14.0422 -1.56475 48.3302 14.0422 -1.56475
268 1 49.2485 15.7115 -0.0686616 49.2485 15.7115 -0.0686616
269 2 51.0618 15.9616 1.61848 51.0618 15.9616 1.61848
270 2 51.2053 15.6028 -1.64348 51.2053 15.6028 -1.64348
271 1 52.112 17.3641 -0.107778 0.777118 17.3641 -0.107778
272 2 2.69098 17.3754 1.64816 2.69098 17.3754 1.64816
273 2 2.79187 17.3741 -1.70062 2.79187 17.3741 -1.70062
274 1 3.69102 19.068 0.101968 3.69102 19.068 0.101968
275 2 5.6248 19.0329 1.6727 5.6248 19.0329 1.6727
276 2 5.43142 19.265 -1.54176 5.43142 19.265 -1.54176
277 1 6.43663 17.4091 0.0108328 6.43663 17.4091 0.0108328
278 2 8.45386 17.0967 1.57994 8.45386 17.0967 1.57994
279 2 8.25604 17.4304 -1.66239 8.25604 17.4304 -1.66239
280 1 9.40395 18.8651 -0.051833 9.40395 18.8651 -0.051833
281 2 11.4405 18.7565 1.39455 11.4405 18.7565 1.39455
282 2 11.277 19.0821 -1.82081 11.277 19.0821 -1.82081
283 1 12.2791 17.2756 -0.351517 12.2791 17.2756 -0.351517
284 2 14.2376 17.2138 1.27034 14.2376 17.2138 1.27034
285 2 14.2969 17.2645 -2.03304 14.2969 17.2645 -2.03304
286 1 15.1343 18.8944 -0.203939 15.1343 18.8944 -0.203939
287 2 16.9445 18.862 1.5547 16.9445 18.862 1.5547
288 2 16.9914 18.9865 -1.71034 16.9914 18.9865 -1.71034
289 1 17.9879 17.2856 -0.0697811 17.9879 17.2856 -0.0697811
290 2 19.7185 17.385 1.74944 19.7185 17.385 1.74944
291 2 20.0516 17.2362 -1.49597 20.0516 17.2362 -1.49597
292 1 20.7748 18.9684 0.117865 20.7748 18.9684 0.117865
293 2 22.5697 19.0238 1.85538 22.5697 19.0238 1.85538
294 2 22.8282 19.1461 -1.31082 22.8282 19.1461 -1.31082
295 1 23.6487 17.3815 0.333822 23.6487 17.3815 0.333822
296 2 25.3789 17.6421 2.03342 25.3789 17.6421 2.03342
297 2 25.6882 17.2796 -1.14679 25.6882 17.2796 -1.14679
298 1 26.5283 19.0371 0.379001 26.5283 19.0371 0.379001
299 2 28.4513 19.1554 2.0489 28.4513 19.1554 2.0489
300 2 28.4891 18.9918 -1.28075 28.4891 18.9918 -1.28075
301 1 29.4163 17.4356 0.50678 29.4163 17.4356 0.50678
302 2 31.3458 17.3852 2.13003 31.3458 17.3852 2.13003
303 2 31.2316 17.4056 -1.15985 31.2316 17.4056 -1.15985
304 1 32.262 19.0776 0.409292 32.262 19.0776 0.409292
305 2 34.1364 19.0259 1.9561 34.1364 19.0259 1.9561
306 2 34.054 19.1479 -1.29365 34.054 19.1479 -1.29365
307 1 35.1382 17.4488 0.271775 35.1382 17.4488 0.271775
308 2 36.9961 17.5921 1.94105 36.9961 17.5921 1.94105
309 2 37.0507 17.3421 -1.28347 37.0507 17.3421 -1.28347
310 1 37.9435 19.0038 0.175108 37.9435 19.0038 0.175108
311 2 39.8402 18.9857 1.79903 39.8402 18.9857 1.79903
312 2 39.8666 19.115 -1.46464 39.8666 19.115 -1.46464
313 1 40.7937 17.3721 0.13316 40.7937 17.3721 0.13316
314 2 42.7248 17.4788 1.65352 42.7248 17.4788 1.65352
315 2 42.5508 17.4777 -1.62262 42.5508 17.4777 -1.62262
316 1 43.5562 19.0192 -0.0986289 43.5562 19.0192 -0.0986289
317 2 45.3942 18.9994 1.63028 45.3942 18.9994 1.63028
318 2 45.6009 18.9204 -1.7402 45.6009 18.9204 -1.7402
319 1 46.4841 17.4098 0.0265626 46.4841 17.4098 0.0265626
320 2 48.3644 17.3089 1.67971 48.3644 17.3089 1.67971
321 2 48.3162 17.434 -1.5916 48.3162 17.434 -1.5916
322 1 49.2766 18.9769 0.0607785 49.2766 18.9769 0.0607785
323 2 51.2844 18.9047 1.65966 51.2844 18.9047 1.65966
324 2 51.0367 19.1827 -1.60161 51.0367 19.1827 -1.60161
325 1 52.1258 20.6734 0.0773326 0.790922 20.6734 0.0773326
326 2 2.67081 20.7814 1.72738 2.67081 20.7814 1.72738
327 2 2.80125 20.6838 -1.58655 2.80125 20.6838 -1.58655
328 1 3.73959 22.3484 0.081623 3.73959 22.3484 0.081623
329 2 5.49776 22.2863 1.81161 5.49776 22.2863 1.81161
330 2 5.68982 22.365 -1.42913 5.68982 22.365 -1.42913
331 1 6.55475 20.6625 0.14602 6.55475 20.6625 0.14602
332 2 8.43571 20.4955 1.70229 8.43571 20.4955 1.70229
333 2 8.44356 20.6096 -1.56891 8.44356 20.6096 -1.56891
334 1 9.2975 22.2591 0.16391 9.2975 22.2591 0.16391
335 2 11.4016 22.1297 1.63325 11.4016 22.1297 1.63325
336 2 10.9634 22.2266 -1.71716 10.9634 22.2266 -1.71716
337 1 12.2453 20.5844 -0.10795 12.2453 20.5844 -0.10795
338 2 14.082 20.4417 1.49492 14.082 20.4417 1.49492
339 2 14.1952 20.7048 -1.69984 14.1952 20.7048 -1.69984
340 1 15.1642 22.2181 0.142229 15.1642 22.2181 0.142229
341 2 17.1183 22.1156 1.80818 17.1183 22.1156 1.80818
342 2 17.0501 22.4159 -1.52572 17.0501 22.4159 -1.52572
343 1 17.94 20.5515 -0.0179536 17.94 20.5515 -0.0179536
344 2 19.6461 20.5078 1.69028 19.6461 20.5078 1.69028
345 2 19.8343 20.5698 -1.62217 19.8343 20.5698 -1.62217
346 1 20.7152 22.3282 0.111218 20.7152 22.3282 0.111218
347 2 22.5349 22.3672 1.88207 22.5349 22.3672 1.88207
348 2 22.6881 22.0894 -1.39753 22.6881 22.0894 -1.39753
349 1 23.711 20.7081 0.386206 23.711 20.7081 0.386206
350 2 25.6099 20.7399 2.069 25.6099 20.7399 2.069
351 2 25.5526 20.4967 -1.29684 25.5526 20.4967 -1.29684
352 1 26.5319 22.2714 0.339757 26.5319 22.2714 0.339757
353 2 28.4175 22.2497 2.02264 28.4175 22.2497 2.02264
354 2 28.3703 22.3899 -1.24384 28.3703 22.3899 -1.24384
355 1 29.4324 20.7976 0.229603 29.4324 20.7976 0.229603
356 2 31.2918 20.8179 1.94564 31.2918 20.8179 1.94564
357 2 31.4151 20.6191 -1.3427 31.4151 20.6191 -1.3427
358 1 32.348 22.3762 0.285577 32.348 22.3762 0.285577
359 2 34.2945 22.4185 1.9149 34.2945 22.4185 1.9149
360 2 34.0489 22.2512 -1.45113 34.0489 22.2512 -1.45113
361 1 35.119 20.7177 0.292375 35.119 20.7177 0.292375
362 2 37.158 20.626 1.78591 37.158 20.626 1.78591
363 2 37.0178 20.677 -1.4231 37.0178 20.677 -1.4231
364 1 38.0045 22.394 0.145964 38.0045 22.394 0.145964
365 2 39.7521 22.3131 1.83403 39.7521 22.3131 1.83403
366 2 39.8501 22.2186 -1.50047 39.8501 22.2186 -1.50047
367 1 40.7235 20.6173 0.221492 40.7235 20.6173 0.221492
368 2 42.6948 20.7171 1.69617 42.6948 20.7171 1.69617
369 2 42.5463 20.6988 -1.62889 42.5463 20.6988 -1.62889
370 1 43.6003 22.3007 0.0138861 43.6003 22.3007 0.0138861
371 2 45.526 22.321 1.54392 45.526 22.321 1.54392
372 2 45.4054 22.267 -1.72022 45.4054 22.267 -1.72022
373 1 46.4691 20.574 -0.116413 46.4691 20.574 -0.116413
374 2 48.3542 20.6505 1.60201 48.3542 20.6505 1.60201
375 2 48.3386 20.6743 -1.59115 48.3386 20.6743 -1.59115
376 1 49.2781 22.3451 -0.0423917 49.2781 22.3451 -0.0423917
377 2 51.1659 22.422 1.63943 51.1659 22.422 1.63943
378 2 51.2532 22.2772 -1.56664 51.2532 22.2772 -1.56664
379 1 52.1132 23.9461 -0.0433099 0.778334 23.9461 -0.0433099
380 2 2.64978 24.2084 1.64197 2.64978 24.2084 1.64197
381 2 2.81983 23.978 -1.549 2.81983 23.978 -1.549
382 1 3.69661 25.6882 -0.0236741 3.69661 25.6882 -0.0236741
383 2 5.41936 25.8301 1.73761 5.41936 25.8301 1.73761
384 2 5.67356 25.5968 -1.45404 5.67356 25.5968 -1.45404
385 1 6.46641 24.0291 0.253631 6.46641 24.0291 0.253631
386 2 8.43523 23.8547 1.83901 8.43523 23.8547 1.83901
387 2 8.38354 23.8909 -1.39233 8.38354 23.8909 -1.39233
388 1 9.31873 25.5442 0.245855 9.31873 25.5442 0.245855
389 2 11.2858 25.3466 1.74032 11.2858 25.3466 1.74032
390 2 11.136 25.6619 -1.44931 11.136 25.6619 -1.44931
391 1 12.1104 23.8705 -0.0380428 12.1104 23.8705 -0.0380428
392 2 13.887 23.8854 1.6414 13.887 23.8854 1.6414
393 2 14.1203 23.9206 -1.53769 14.1203 23.9206 -1.53769
394 1 15.0016 25.58 0.0676438 15.0016 25.58 0.0676438
395 2 16.8297 25.6146 1.86075 16.8297 25.6146 1.86075
396 2 17.0642 25.6435 -1.36031 17.0642 25.6435 -1.36031
397 1 17.9142 23.9014 0.286782 17.9142 23.9014 0.286782
398 2 19.8089 23.892 1.8748 19.8089 23.892 1.8748
399 2 19.7271 24.0917 -1.42633 19.7271 24.0917 -1.42633
400 1 20.6985 25.5892 0.309706 20.6985 25.5892 0.309706
401 2 22.739 25.5095 1.94495 22.739 25.5095 1.94495
402 2 22.4686 25.7062 -1.34265 22.4686 25.7062 -1.34265
403 1 23.5797 23.9481 0.15509 23.5797 23.9481 0.15509
404 2 25.4738 23.9337 1.97333 25.4738 23.9337 1.97333
405 2 25.6071 23.9665 -1.38732 25.6071 23.9665 -1.38732
406 1 26.4512 25.6017 0.464701 26.4512 25.6017 0.464701
407 2 28.3616 25.5196 2.13613 28.3616 25.5196 2.13613
408 2 28.371 25.6146 -1.22801 28.371 25.6146 -1.22801
409 1 29.3203 23.9634 0.400991 29.3203 23.9634 0.400991
410 2 31.4235 23.9629 1.89609 31.4235 23.9629 1.89609
411 2 31.2129 23.9739 -1.2404 31.2129 23.9739 -1.2404
412 1 32.2357 25.632 0.288662 32.2357 25.632 0.288662
413 2 34.2563 25.4898 1.67617 34.2563 25.4898 1.67617
414 2 34.0918 25.7061 -1.50614 34.0918 25.7061 -1.50614
415 1 35.141 23.955 -0.0297469 35.141 23.955 -0.0297469
416 2 36.8976 23.8651 1.76516 36.8976 23.8651 1.76516
417 2 37.0735 23.9653 -1.50688 37.0735 23.9653 -1.50688
418 1 37.9108 25.5491 0.217399 37.9108 25.5491 0.217399
419 2 39.8624 25.5978 1.78783 39.8624 25.5978 1.78783
420 2 39.7258 25.4386 -1.53307 39.7258 25.4386 -1.53307
421 1 40.8193 23.9039 0.159194 40.8193 23.9039 0.159194
422 2 42.7179 24.0836 1.65248 42.7179 24.0836 1.65248
423 2 42.5789 23.8395 -1.64341 42.5789 23.8395 -1.64341
424 1 43.6127 25.5388 -0.123242 43.6127 25.5388 -0.123242
425 2 45.4727 25.6172 1.44251 45.4727 25.6172 1.44251
426 2 45.4416 25.5085 -1.78998 45.4416 25.5085 -1.78998
427 1 46.4773 23.9721 -0.115024 46.4773 23.9721 -0.115024
428 2 48.3245 24.1342 1.43601 48.3245 24.1342 1.43601
429 2 48.3337 23.7834 -1.74338 48.3337 23.7834 -1.74338
430 1 49.3302 25.6538 -0.378837 49.3302 25.6538 -0.378837
431 2 51.1605 25.7884 1.40275 51.1605 25.7884 1.40275
432 2 51.3593 25.5674 -1.82209 51.3593 25.5674 -1.82209
433 1 52.159 27.2792 -0.260287 0.824155 27.2792 -0.260287
434 2 2.56391 27.4009 1.56228 2.56391 27.4009 1.56228
435 2 2.94792 27.3583 -1.79831 2.94792 27.3583 -1.79831
436 1 3.65768 28.9486 -0.116101 3.65768 28.9486 -0.116101
437 2 5.57624 29.1134 1.60241 5.57624 29.1134 1.60241
438 2 5.62516 28.8385 -1.68147 5.62516 28.8385 -1.68147
439 1 6.50509 27.3498 0.154893 6.50509 27.3498 0.154893
440 2 8.36162 27.2729 1.81114 8.36162 27.2729 1.81114
441 2 8.48105 27.1739 -1.37262 8.48105 27.1739 -1.37262
442 1 9.42956 28.8783 0.177219 9.42956 28.8783 0.177219
443 2 11.2315 28.863 1.73861 11.2315 28.863 1.73861
444 2 11.2452 28.7787 -1.52547 11.2452 28.7787 -1.52547
445 1 12.1836 27.1788 0.326808 12.1836 27.1788 0.326808
446 2 14.1337 27.1667 1.86429 14.1337 27.1667 1.86429
447 2 13.9963 27.2705 -1.45293 13.9963 27.2705 -1.45293
448 1 15.0778 28.8642 0.145735 15.0778 28.8642 0.145735
449 2 17.068 29.0587 1.78102 17.068 29.0587 1.78102
450 2 16.9544 28.7388 -1.49918 16.9544 28.7388 -1.49918
451 1 17.8722 27.251 0.320427 17.8722 27.251 0.320427
452 2 19.8034 27.1365 1.91132 19.8034 27.1365 1.91132
453 2 19.6798 27.1924 -1.3586 19.6798 27.1924 -1.3586
454 1 20.7346 28.8578 0.161191 20.7346 28.8578 0.161191
455 2 22.5072 29.0576 1.82638 22.5072 29.0576 1.82638
456 2 22.6454 28.7752 -1.42704 22.6454 28.7752 -1.42704
457 1 23.5682 27.1912 0.401675 23.5682 27.1912 0.401675
458 2 25.5241 27.2969 2.02909 25.5241 27.2969 2.02909
459 2 25.5042 27.1574 -1.22373 25.5042 27.1574 -1.22373
460 1 26.4787 28.8829 0.271162 26.4787 28.8829 0.271162
461 2 28.4047 29.1045 1.90242 28.4047 29.1045 1.90242
462 2 28.3703 28.6824 -1.29205 28.3703 28.6824 -1.29205
463 1 29.2791 27.2516 0.476912 29.2791 27.2516 0.476912
464 2 31.4285 27.373 1.87815 31.4285 27.373 1.87815
465 2 31.0153 27.1501 -1.30848 31.0153 27.1501 -1.30848
466 1 32.1395 28.9169 0.022368 32.1395 28.9169 0.022368
467 2 34.1274 28.9656 1.61254 34.1274 28.9656 1.61254
468 2 34.1544 28.8293 -1.61728 34.1544 28.8293 -1.61728
469 1 35.0997 27.25 0.066975 35.0997 27.25 0.066975
470 2 37.0556 27.3612 1.64676 37.0556 27.3612 1.64676
471 2 36.8829 27.0471 -1.56408 36.8829 27.0471 -1.56408
472 1 37.9947 28.8555 -0.237674 37.9947 28.8555 -0.237674
473 2 39.7679 28.9472 1.51973 39.7679 28.9472 1.51973
474 2 39.8709 28.8274 -1.8351 39.8709 28.8274 -1.8351
475 1 40.7904 27.2276 -0.0393367 40.7904 27.2276 -0.0393367
476 2 42.8538 27.387 1.43314 42.8538 27.387 1.43314
477 2 42.7501 27.1505 -1.7856 42.7501 27.1505 -1.7856
478 1 43.6956 28.8559 -0.404385 43.6956 28.8559 -0.404385
479 2 45.4638 28.9282 1.44331 45.4638 28.9282 1.44331
480 2 45.614 28.9473 -1.92733 45.614 28.9473 -1.92733
481 1 46.4052 27.2689 -0.254144 46.4052 27.2689 -0.254144
482 2 48.4488 27.3547 1.20498 48.4488 27.3547 1.20498
483 2 48.3657 27.3236 -2.03829 48.3657 27.3236 -2.03829
484 1 49.3344 28.9242 -0.389483 49.3344 28.9242 -0.389483
485 2 51.1548 28.9415 1.30166 51.1548 28.9415 1.30166
486 2 51.1798 29.0136 -1.88729 51.1798 29.0136 -1.88729
487 1 52.1911 30.599 -0.296307 0.856242 30.599 -0.296307
488 2 2.59518 30.6675 1.4396 2.59518 30.6675 1.4396
489 2 2.7914 30.5183 -1.83268 2.7914 30.5183 -1.83268
490 1 3.62427 32.1382 -0.234888 3.62427 32.1382 -0.234888
491 2 5.46025 32.2591 1.38878 5.46025 32.2591 1.38878
492 2 5.47307 32.2006 -1.85879 5.47307 32.2006 -1.85879
493 1 6.57761 30.6176 -0.150637 6.57761 30.6176 -0.150637
494 2 8.36633 30.5133 1.66127 8.36633 30.5133 1.66127
495 2 8.57972 30.3861 -1.54544 8.57972 30.3861 -1.54544
496 1 9.41666 32.1346 0.0298987 9.41666 32.1346 0.0298987
497 2 11.2742 32.2353 1.70078 11.2742 32.2353 1.70078
498 2 11.2899 32.317 -1.62707 11.2899 32.317 -1.62707
499 1 12.2107 30.5609 0.0765063 12.2107 30.5609 0.0765063
500 2 14.0762 30.6291 1.74954 14.0762 30.6291 1.74954
501 2 14.0987 30.4137 -1.58606 14.0987 30.4137 -1.58606
502 1 15.0303 32.1541 -0.045448 15.0303 32.1541 -0.045448
503 2 17.028 32.2303 1.58508 17.028 32.2303 1.58508
504 2 16.9286 32.1319 -1.70497 16.9286 32.1319 -1.70497
505 1 17.9099 30.5735 -0.0777853 17.9099 30.5735 -0.0777853
506 2 19.6009 30.5188 1.65111 19.6009 30.5188 1.65111
507 2 19.8947 30.4615 -1.55242 19.8947 30.4615 -1.55242
508 1 20.7291 32.153 0.0992995 20.7291 32.153 0.0992995
509 2 22.6724 32.2299 1.6498 22.6724 32.2299 1.6498
510 2 22.6899 32.1539 -1.49556 22.6899 32.1539 -1.49556
511 1 23.6134 30.4934 0.017735 23.6134 30.4934 0.017735
512 2 25.3638 30.506 1.86223 25.3638 30.506 1.86223
513 2 25.6796 30.584 -1.41809 25.6796 30.584 -1.41809
514 1 26.4624 32.1893 0.280961 26.4624 32.1893 0.280961
515 2 28.4759 32.3094 1.72372 28.4759 32.3094 1.72372
516 2 28.2183 32.0326 -1.61423 28.2183 32.0326 -1.61423
517 1 29.3343 30.5324 0.163405 29.3343 30.5324 0.163405
518 2 31.2419 30.4931 1.69044 31.2419 30.4931 1.69044
519 2 31.1558 30.6179 -1.58489 31.1558 30.6179 -1.58489
520 1 32.1754 32.1194 -0.036122 32.1754 32.1194 -0.036122
521 2 34.1831 32.1473 1.61247 34.1831 32.1473 1.61247
522 2 34.0684 32.1801 -1.7356 34.0684 32.1801 -1.7356
523 1 35.0763 30.5641 -0.114048 35.0763 30.5641 -0.114048
524 2 36.9909 30.6087 1.49341 36.9909 30.6087 1.49341
525 2 36.9162 30.5411 -1.72237 36.9162 30.5411 -1.72237
526 1 37.8701 32.1845 -0.111799 37.8701 32.1845 -0.111799
527 2 39.8102 32.194 1.38267 39.8102 32.194 1.38267
528 2 39.6317 32.0747 -1.88559 39.6317 32.0747 -1.88559
529 1 40.7132 30.4986 -0.311302 40.7132 30.4986 -0.311302
530 2 42.6778 30.3637 1.2537 42.6778 30.3637 1.2537
531 2 42.7355 30.6717 -1.96045 42.7355 30.6717 -1.96045
532 1 43.6482 32.0872 -0.127231 43.6482 32.0872 -0.127231
533 2 45.5607 32.0519 1.47242 45.5607 32.0519 1.47242
534 2 45.5467 32.2593 -1.75345 45.5467 32.2593 -1.75345
535 1 46.4252 30.5219 -0.222691 46.4252 30.5219 -0.222691
536 2 48.3496 30.5157 1.36965 48.3496 30.5157 1.36965
537 2 48.3511 30.7917 -1.86577 48.3511 30.7917 -1.86577
538 1 49.2596 32.2837 -0.117048 49.2596 32.2837 -0.117048
539 2 51.2146 32.2837 1.39019 51.2146 32.2837 1.39019
540 2 51.1197 32.1986 -1.83908 51.1197 32.1986 -1.83908
541 1 52.1678 33.802 -0.213752 0.832953 33.802 -0.213752