ITEM: TIMESTEP
28000
ITEM: NUMBER OF ATOMS
810
ITEM: BOX BOUNDS pp pp pp
8.4137701477268123e-01 5.2176227985227342e+01
8.0961581116522285e-01 5.0206599188834083e+01
-1.0000000000000000e+01 1.0000000000000000e+01
ITEM: ATOMS id type x y z xu yu zu
1 1 1.04892 1.13712 0.511766 1.04892 1.13712 0.511766
2 2 2.96972 1.03591 2.16855 2.96972 1.03591 2.16855
3 2 2.88317 1.02314 -1.16223 2.88317 1.02314 -1.16223
4 1 3.9411 2.63713 0.3921 3.9411 2.63713 0.3921
5 2 6.01343 2.72885 1.85027 6.01343 2.72885 1.85027
6 2 5.69708 2.67758 -1.46981 5.69708 2.67758 -1.46981
7 1 6.87537 1.01516 0.0124883 6.87537 1.01516 0.0124883
8 2 8.78749 0.980989 1.53721 8.78749 0.980989 1.53721
9 2 8.69669 0.981296 -1.64311 8.69669 0.981296 -1.64311
10 1 9.67693 2.67686 -0.058293 9.67693 2.67686 -0.058293
11 2 11.6283 2.5503 1.59028 11.6283 2.5503 1.59028
12 2 11.4821 2.67381 -1.68308 11.4821 2.67381 -1.68308
13 1 12.3845 1.01601 -0.201847 12.3845 1.01601 -0.201847
14 2 14.304 0.979303 1.46998 14.304 0.979303 1.46998
15 2 14.4261 0.929442 -1.81374 14.4261 0.929442 -1.81374
16 1 15.3271 2.5971 -0.187105 15.3271 2.5971 -0.187105
17 2 17.2066 2.58513 1.40194 17.2066 2.58513 1.40194
18 2 17.2589 2.71582 -1.8407 17.2589 2.71582 -1.8407
19 1 18.1814 1.00356 -0.252889 18.1814 1.00356 -0.252889
20 2 20.245 0.889386 1.23609 20.245 0.889386 1.23609
21 2 19.9404 1.06403 -2.03427 19.9404 1.06403 -2.03427
22 1 21.0411 2.63232 -0.407025 21.0411 2.63232 -0.407025
23 2 23.0784 2.52346 1.14424 23.0784 2.52346 1.14424
24 2 22.8737 2.77778 -2.15259 22.8737 2.77778 -2.15259
25 1 23.9083 1.00058 -0.753712 23.9083 1.00058 -0.753712
26 2 25.9516 0.879497 0.909718 25.9516 0.879497 0.909718
27 2 25.7095 1.1084 -2.39898 25.7095 1.1084 -2.39898
28 1 26.7723 2.65139 -0.72143 26.7723 2.65139 -0.72143
29 2 28.6739 2.71524 0.951631 28.6739 2.71524 0.951631
30 2 28.7374 2.5851 -2.27834 28.7374 2.5851 -2.27834
31 1 29.7164 1.02827 -0.522927 29.7164 1.02827 -0.522927
32 2 31.6396 1.09267 1.07768 31.6396 1.09267 1.07768
33 2 31.5445 1.11081 -2.272 31.5445 1.11081 -2.272
34 1 32.5275 2.71148 -0.732071 32.5275 2.71148 -0.732071
35 2 34.3202 2.78877 1.15783 34.3202 2.78877 1.15783
36 2 34.5267 2.73233 -2.25349 34.5267 2.73233 -2.25349
37 1 35.2494 1.07365 -0.4645 35.2494 1.07365 -0.4645
38 2 37.2172 1.24839 1.17963 37.2172 1.24839 1.17963
39 2 37.2495 1.00293 -2.08797 37.2495 1.00293 -2.08797
40 1 38.1638 2.76992 -0.492677 38.1638 2.76992 -0.492677
41 2 39.7623 2.7353 1.46083 39.7623 2.7353 1.46083
42 2 40.3918 2.92744 -1.83445 40.3918 2.92744 -1.83445
43 1 41.0384 1.24668 -0.166189 41.0384 1.24668 -0.166189
44 2 42.6346 0.991219 1.7496 42.6346 0.991219 1.7496
45 2 43.2714 1.36435 -1.45549 43.2714 1.36435 -1.45549
46 1 43.8243 2.74427 0.417874 43.8243 2.74427 0.417874
47 2 45.593 2.73643 2.16467 45.593 2.73643 2.16467
48 2 45.8902 2.86861 -1.22287 45.8902 2.86861 -1.22287
49 1 46.6358 1.18246 0.421021 46.6358 1.18246 0.421021
50 2 48.5148 0.770709 2.06099 48.5148 0.770709 2.06099
51 2 48.6424 1.32814 -1.12817 48.6424 1.32814 -1.12817
52 1 49.5011 2.69674 0.6997 49.5011 2.69674 0.6997
53 2 51.4252 2.76053 2.18006 51.4252 2.76053 2.18006
54 2 51.4718 2.7902 -0.978504 51.4718 2.7902 -0.978504
55 1 1.20559 4.36426 0.610268 1.20559 4.36426 0.610268
56 2 3.1767 4.38658 2.10315 3.1767 4.38658 2.10315
57 2 2.93026 4.48546 -1.05604 2.93026 4.48546 -1.05604
58 1 4.05404 6.02618 0.543079 4.05404 6.02618 0.543079
59 2 6.02694 5.82023 2.0097 6.02694 5.82023 2.0097
60 2 5.9037 6.20149 -1.21415 5.9037 6.20149 -1.21415
61 1 6.86386 4.33725 0.136717 6.86386 4.33725 0.136717
62 2 8.90404 4.24596 1.70995 8.90404 4.24596 1.70995
63 2 8.78715 4.55389 -1.55569 8.78715 4.55389 -1.55569
64 1 9.67813 5.99854 0.157254 9.67813 5.99854 0.157254
65 2 11.5939 5.92448 1.79706 11.5939 5.92448 1.79706
66 2 11.6007 6.06764 -1.55281 11.6007 6.06764 -1.55281
67 1 12.5315 4.30317 0.0139747 12.5315 4.30317 0.0139747
68 2 14.445 4.22677 1.51247 14.445 4.22677 1.51247
69 2 14.523 4.35432 -1.67092 14.523 4.35432 -1.67092
70 1 15.381 5.95432 0.061428 15.381 5.95432 0.061428
71 2 17.2688 5.95024 1.6945 17.2688 5.95024 1.6945
72 2 17.1455 6.18764 -1.59112 17.1455 6.18764 -1.59112
73 1 18.1786 4.34932 -0.14614 18.1786 4.34932 -0.14614
74 2 20.2497 4.27344 1.24365 20.2497 4.27344 1.24365
75 2 19.9423 4.16362 -1.99677 19.9423 4.16362 -1.99677
76 1 21.0494 5.91843 -0.534499 21.0494 5.91843 -0.534499
77 2 23.0582 6.03584 1.07267 23.0582 6.03584 1.07267
78 2 22.9105 5.88143 -2.2737 22.9105 5.88143 -2.2737
79 1 23.9181 4.30789 -0.482993 23.9181 4.30789 -0.482993
80 2 25.9873 4.27832 0.992544 25.9873 4.27832 0.992544
81 2 25.7276 4.3876 -2.23335 25.7276 4.3876 -2.23335
82 1 26.8124 5.92393 -0.608516 26.8124 5.92393 -0.608516
83 2 28.796 5.97387 0.965401 28.796 5.97387 0.965401
84 2 28.5565 5.77245 -2.31286 28.5565 5.77245 -2.31286
85 1 29.5979 4.30647 -0.657616 29.5979 4.30647 -0.657616
86 2 31.4371 4.20987 0.938753 31.4371 4.20987 0.938753
87 2 31.5471 4.33368 -2.30816 31.5471 4.33368 -2.30816
88 1 32.5248 5.97109 -0.574257 32.5248 5.97109 -0.574257
89 2 34.3113 5.97536 1.07753 34.3113 5.97536 1.07753
90 2 34.4307 6.02148 -2.18925 34.4307 6.02148 -2.18925
91 1 35.3728 4.4257 -0.475273 35.3728 4.4257 -0.475273
92 2 37.0767 4.41858 1.28086 37.0767 4.41858 1.28086
93 2 37.3265 4.55914 -1.95561 37.3265 4.55914 -1.95561
94 1 38.146 6.03224 -0.158694 38.146 6.03224 -0.158694
95 2 39.8934 6.06936 1.74263 39.8934 6.06936 1.74263
96 2 40.096 6.08624 -1.59647 40.096 6.08624 -1.59647
97 1 40.9953 4.45373 0.0719166 40.9953 4.45373 0.0719166
98 2 42.7736 4.56298 1.89388 42.7736 4.56298 1.89388
99 2 43.1317 4.39692 -1.31338 43.1317 4.39692 -1.31338
100 1 43.8657 6.14094 0.40283 43.8657 6.14094 0.40283
101 2 45.7006 6.09563 2.18826 45.7006 6.09563 2.18826
102 2 45.9603 6.13126 -1.11509 45.9603 6.13126 -1.11509
103 1 46.6976 4.41009 0.660924 46.6976 4.41009 0.660924
104 2 48.5945 4.38686 2.36446 48.5945 4.38686 2.36446
105 2 48.617 4.32869 -0.926956 48.617 4.32869 -0.926956
106 1 49.5819 5.99142 0.724091 49.5819 5.99142 0.724091
107 2 51.5037 5.99946 2.35708 51.5037 5.99946 2.35708
108 2 51.394 6.05468 -0.916536 51.394 6.05468 -0.916536
109 1 1.09869 7.61659 0.691991 1.09869 7.61659 0.691991
110 2 3.04828 7.3733 2.40566 3.04828 7.3733 2.40566
111 2 3.02423 7.69192 -0.950769 3.02423 7.69192 -0.950769
112 1 3.95335 9.26859 0.847748 3.95335 9.26859 0.847748
113 2 6.00964 9.31134 2.217 6.00964 9.31134 2.217
114 2 5.66818 9.32223 -0.990047 5.66818 9.32223 -0.990047
115 1 6.88062 7.64804 0.542611 6.88062 7.64804 0.542611
116 2 8.87798 7.65536 1.93705 8.87798 7.65536 1.93705
117 2 8.55576 7.84092 -1.24483 8.55576 7.84092 -1.24483
118 1 9.66166 9.37722 0.29124 9.66166 9.37722 0.29124
119 2 11.6041 9.37996 1.8321 11.6041 9.37996 1.8321
120 2 11.4699 9.28843 -1.39497 11.4699 9.28843 -1.39497
121 1 12.4739 7.66279 0.232903 12.4739 7.66279 0.232903
122 2 14.4767 7.42776 1.78899 14.4767 7.42776 1.78899
123 2 14.4136 7.75259 -1.36658 14.4136 7.75259 -1.36658
124 1 15.3314 9.27005 0.357267 15.3314 9.27005 0.357267
125 2 17.3408 9.23747 1.7311 17.3408 9.23747 1.7311
126 2 17.1105 9.33639 -1.49698 17.1105 9.33639 -1.49698
127 1 18.235 7.6673 0.0815349 18.235 7.6673 0.0815349
128 2 20.395 7.58414 1.30294 20.395 7.58414 1.30294
129 2 19.8699 7.75481 -1.90804 19.8699 7.75481 -1.90804
130 1 21.1697 9.16863 -0.395912 21.1697 9.16863 -0.395912
131 2 23.1647 9.27898 1.05926 23.1647 9.27898 1.05926
132 2 22.8491 9.28946 -2.22125 22.8491 9.28946 -2.22125
133 1 23.9547 7.61448 -0.667808 23.9547 7.61448 -0.667808
134 2 25.9168 7.67649 0.96705 25.9168 7.67649 0.96705
135 2 25.8461 7.5526 -2.31635 25.8461 7.5526 -2.31635
136 1 26.796 9.27454 -0.848184 26.796 9.27454 -0.848184
137 2 28.6776 9.21431 0.819556 28.6776 9.21431 0.819556
138 2 28.6622 9.15199 -2.42416 28.6622 9.15199 -2.42416
139 1 29.6153 7.54278 -0.799978 29.6153 7.54278 -0.799978
140 2 31.3613 7.56903 0.885743 31.3613 7.56903 0.885743
141 2 31.6449 7.50316 -2.20617 31.6449 7.50316 -2.20617
142 1 32.3876 9.22656 -0.646127 32.3876 9.22656 -0.646127
143 2 34.2309 9.21145 1.12605 34.2309 9.21145 1.12605
144 2 34.2147 9.13475 -2.19885 34.2147 9.13475 -2.19885
145 1 35.3073 7.59753 -0.565722 35.3073 7.59753 -0.565722
146 2 36.963 7.67799 1.32054 36.963 7.67799 1.32054
147 2 37.4103 7.59347 -1.95728 37.4103 7.59347 -1.95728
148 1 38.1334 9.2715 -0.329188 38.1334 9.2715 -0.329188
149 2 39.8404 9.40961 1.63976 39.8404 9.40961 1.63976
150 2 40.3264 9.28568 -1.63903 40.3264 9.28568 -1.63903
151 1 40.9551 7.68524 0.220873 40.9551 7.68524 0.220873
152 2 42.7987 7.76476 1.86534 42.7987 7.76476 1.86534
153 2 42.8983 7.72509 -1.35173 42.8983 7.72509 -1.35173
154 1 43.9239 9.35584 0.249377 43.9239 9.35584 0.249377
155 2 45.7525 9.60032 2.02901 45.7525 9.60032 2.02901
156 2 45.9654 9.20844 -1.28919 45.9654 9.20844 -1.28919
157 1 46.7261 7.69962 0.621938 46.7261 7.69962 0.621938
158 2 48.4567 7.71439 2.3231 48.4567 7.71439 2.3231
159 2 48.6774 7.65882 -1.01007 48.6774 7.65882 -1.01007
160 1 49.577 9.30735 0.63821 49.577 9.30735 0.63821
161 2 51.4438 9.19505 2.3254 51.4438 9.19505 2.3254
162 2 51.4564 9.18141 -0.96715 51.4564 9.18141 -0.96715
163 1 1.04283 10.8371 0.665026 1.04283 10.8371 0.665026
164 2 2.88736 10.9705 2.33297 2.88736 10.9705 2.33297
165 2 2.87764 10.7811 -0.969339 2.87764 10.7811 -0.969339
166 1 3.85382 12.5244 0.544144 3.85382 12.5244 0.544144
167 2 5.84571 12.695 2.10425 5.84571 12.695 2.10425
168 2 5.83326 12.4976 -1.12736 5.83326 12.4976 -1.12736
169 1 6.77521 10.9962 0.619818 6.77521 10.9962 0.619818
170 2 8.91731 11.1764 1.95136 8.91731 11.1764 1.95136
171 2 8.4051 10.8948 -1.30753 8.4051 10.8948 -1.30753
172 1 9.63935 12.548 0.00303412 9.63935 12.548 0.00303412
173 2 11.5837 12.5117 1.65563 11.5837 12.5117 1.65563
174 2 11.59 12.4312 -1.5718 11.59 12.4312 -1.5718
175 1 12.4857 10.8818 0.0849845 12.4857 10.8818 0.0849845
176 2 14.3078 11.0232 1.79639 14.3078 11.0232 1.79639
177 2 14.4859 10.9337 -1.38398 14.4859 10.9337 -1.38398
178 1 15.3972 12.6506 0.207216 15.3972 12.6506 0.207216
179 2 17.4427 12.7561 1.64078 17.4427 12.7561 1.64078
180 2 17.1439 12.5286 -1.62299 17.1439 12.5286 -1.62299
181 1 18.2458 10.9556 0.0143979 18.2458 10.9556 0.0143979
182 2 20.3567 10.8087 1.38247 20.3567 10.8087 1.38247
183 2 19.9775 10.8923 -1.82623 19.9775 10.8923 -1.82623
184 1 21.0981 12.5392 -0.280985 21.0981 12.5392 -0.280985
185 2 23.1433 12.378 1.12845 23.1433 12.378 1.12845
186 2 22.8074 12.5376 -2.09719 22.8074 12.5376 -2.09719
187 1 24.041 10.8523 -0.694219 24.041 10.8523 -0.694219
188 2 25.9348 10.8684 0.837995 25.9348 10.8684 0.837995
189 2 25.7872 10.9087 -2.42291 25.7872 10.9087 -2.42291
190 1 26.8284 12.4751 -0.871645 26.8284 12.4751 -0.871645
191 2 28.636 12.3885 0.845893 28.636 12.3885 0.845893
192 2 28.7591 12.5421 -2.44143 28.7591 12.5421 -2.44143
193 1 29.6235 10.8239 -0.786621 29.6235 10.8239 -0.786621
194 2 31.3552 10.8357 0.955682 31.3552 10.8357 0.955682
195 2 31.4881 10.8091 -2.29118 31.4881 10.8091 -2.29118
196 1 32.4346 12.4399 -0.605953 32.4346 12.4399 -0.605953
197 2 34.3138 12.5155 1.03293 34.3138 12.5155 1.03293
198 2 34.358 12.5358 -2.1851 34.358 12.5358 -2.1851
199 1 35.2285 10.8584 -0.533357 35.2285 10.8584 -0.533357
200 2 36.8725 10.8554 1.35855 36.8725 10.8554 1.35855
201 2 37.3012 11.0677 -1.91253 37.3012 11.0677 -1.91253
202 1 38.1119 12.5517 -0.135652 38.1119 12.5517 -0.135652
203 2 39.8795 12.5952 1.73186 39.8795 12.5952 1.73186
204 2 40.1913 12.4471 -1.54118 40.1913 12.4471 -1.54118
205 1 41.0372 10.9301 0.197987 41.0372 10.9301 0.197987
206 2 42.9036 10.8595 1.88493 42.9036 10.8595 1.88493
207 2 43.0069 11.0382 -1.42818 43.0069 11.0382 -1.42818
208 1 43.843 12.6955 0.328675 43.843 12.6955 0.328675
209 2 45.7031 12.6098 2.02041 45.7031 12.6098 2.02041
210 2 45.6789 12.6888 -1.28739 45.6789 12.6888 -1.28739
211 1 46.7199 11.01 0.251751 46.7199 11.01 0.251751
212 2 48.4583 11.0839 2.14438 48.4583 11.0839 2.14438
213 2 48.7821 10.9529 -1.23017 48.7821 10.9529 -1.23017
214 1 49.6362 12.6214 0.52139 49.6362 12.6214 0.52139
215 2 51.459 12.5645 2.26577 51.459 12.5645 2.26577
216 2 51.5109 12.4043 -1.05437 51.5109 12.4043 -1.05437
217 1 1.00488 14.1917 0.568132 1.00488 14.1917 0.568132
218 2 3.05863 14.3771 2.07347 3.05863 14.3771 2.07347
219 2 2.95044 13.9956 -1.19389 2.95044 13.9956 -1.19389
220 1 3.90089 15.8763 0.256897 3.90089 15.8763 0.256897
221 2 5.85699 16.1004 1.89032 5.85699 16.1004 1.89032
222 2 5.74242 15.7762 -1.307 5.74242 15.7762 -1.307
223 1 6.73904 14.275 0.35127 6.73904 14.275 0.35127
224 2 8.8667 14.1963 1.85268 8.8667 14.1963 1.85268
225 2 8.49599 14.3002 -1.4526 8.49599 14.3002 -1.4526
226 1 9.65291 15.8642 0.287861 9.65291 15.8642 0.287861
227 2 11.7764 16.0513 1.61104 11.7764 16.0513 1.61104
228 2 11.337 15.6614 -1.61966 11.337 15.6614 -1.61966
229 1 12.5231 14.142 -0.0470817 12.5231 14.142 -0.0470817
230 2 14.4013 14.3725 1.54873 14.4013 14.3725 1.54873
231 2 14.3767 14.0121 -1.7089 14.3767 14.0121 -1.7089
232 1 15.3788 15.8182 -0.347664 15.3788 15.8182 -0.347664
233 2 17.2733 15.9316 1.29367 17.2733 15.9316 1.29367
234 2 17.1877 15.7124 -2.00585 17.1877 15.7124 -2.00585
235 1 18.196 14.1889 -0.245496 18.196 14.1889 -0.245496
236 2 20.1997 14.1734 1.35412 20.1997 14.1734 1.35412
237 2 20.067 14.2047 -1.86618 20.067 14.2047 -1.86618
238 1 21.1165 15.8349 -0.135049 21.1165 15.8349 -0.135049
239 2 23.2188 15.6555 1.2131 23.2188 15.6555 1.2131
240 2 22.7443 15.688 -1.94625 22.7443 15.688 -1.94625
241 1 23.9334 14.0643 -0.557471 23.9334 14.0643 -0.557471
242 2 25.9899 14.0455 0.960721 25.9899 14.0455 0.960721
243 2 25.7011 14.1702 -2.26356 25.7011 14.1702 -2.26356
244 1 26.7591 15.7176 -0.62992 26.7591 15.7176 -0.62992
245 2 28.6969 15.7183 0.961005 28.6969 15.7183 0.961005
246 2 28.7052 15.727 -2.28478 28.7052 15.727 -2.28478
247 1 29.6457 14.015 -0.743704 29.6457 14.015 -0.743704
248 2 31.3926 14.1635 1.0299 31.3926 14.1635 1.0299
249 2 31.6471 14.1472 -2.35527 31.6471 14.1472 -2.35527
250 1 32.4729 15.7029 -0.558054 32.4729 15.7029 -0.558054
251 2 34.1335 15.7503 1.17187 34.1335 15.7503 1.17187
252 2 34.4663 15.8854 -2.12748 34.4663 15.8854 -2.12748
253 1 35.2686 14.1968 -0.461379 35.2686 14.1968 -0.461379
254 2 37.047 14.1633 1.47318 37.047 14.1633 1.47318
255 2 37.4834 14.1217 -1.77741 37.4834 14.1217 -1.77741
256 1 38.0222 15.7841 -0.0726267 38.0222 15.7841 -0.0726267
257 2 39.9572 15.7885 1.67129 39.9572 15.7885 1.67129
258 2 39.99 15.872 -1.55783 39.99 15.872 -1.55783
259 1 40.9011 14.1896 0.11993 40.9011 14.1896 0.11993
260 2 42.6438 14.2299 1.81792 42.6438 14.2299 1.81792
261 2 42.8078 14.2711 -1.34449 42.8078 14.2711 -1.34449
262 1 43.7828 15.9917 0.190431 43.7828 15.9917 0.190431
263 2 45.741 15.9835 1.97525 45.741 15.9835 1.97525
264 2 45.8421 15.8184 -1.3696 45.8421 15.8184 -1.3696
265 1 46.7326 14.3136 0.435663 46.7326 14.3136 0.435663
266 2 48.6235 14.4416 2.01277 48.6235 14.4416 2.01277
267 2 48.625 14.0361 -1.30182 48.625 14.0361 -1.30182
268 1 49.5452 15.8904 0.264439 49.5452 15.8904 0.264439
269 2 51.4977 15.9833 1.94353 51.4977 15.9833 1.94353
270 2 51.3726 15.6346 -1.3426 51.3726 15.6346 -1.3426
271 1 0.979456 17.515 0.0822989 0.979456 17.515 0.0822989
272 2 2.73279 17.4835 1.88062 2.73279 17.4835 1.88062
273 2 3.04356 17.636 -1.39821 3.04356 17.636 -1.39821
274 1 3.9685 19.1693 0.325827 3.9685 19.1693 0.325827
275 2 5.99868 19.3768 1.69878 5.99868 19.3768 1.69878
276 2 5.65785 19.0652 -1.52797 5.65785 19.0652 -1.52797
277 1 6.80442 17.57 0.162383 6.80442 17.57 0.162383
278 2 8.76059 17.7796 1.76467 8.76059 17.7796 1.76467
279 2 8.48053 17.3431 -1.57353 8.48053 17.3431 -1.57353
280 1 9.66608 19.249 -0.0993296 9.66608 19.249 -0.0993296
281 2 11.815 19.1366 1.38219 11.815 19.1366 1.38219
282 2 11.3075 19.1485 -1.9392 11.3075 19.1485 -1.9392
283 1 12.4456 17.4701 -0.431871 12.4456 17.4701 -0.431871
284 2 14.5101 17.6443 1.04296 14.5101 17.6443 1.04296
285 2 14.3021 17.171 -2.15602 14.3021 17.171 -2.15602
286 1 15.3664 18.9704 -0.803751 15.3664 18.9704 -0.803751
287 2 17.2793 19.0987 0.981317 17.2793 19.0987 0.981317
288 2 17.356 18.878 -2.23417 17.356 18.878 -2.23417
289 1 18.227 17.4793 -0.531308 18.227 17.4793 -0.531308
290 2 20.033 17.6153 1.29115 20.033 17.6153 1.29115
291 2 20.2833 17.2458 -1.99697 20.2833 17.2458 -1.99697
292 1 21.0673 19.0308 -0.411244 21.0673 19.0308 -0.411244
293 2 22.9724 18.9705 1.1518 22.9724 18.9705 1.1518
294 2 22.9306 19.0748 -2.09354 22.9306 19.0748 -2.09354
295 1 23.9165 17.3666 -0.543495 23.9165 17.3666 -0.543495
296 2 25.9574 17.4395 0.949845 25.9574 17.4395 0.949845
297 2 25.8229 17.3851 -2.32994 25.8229 17.3851 -2.32994
298 1 26.7919 19.0828 -0.740767 26.7919 19.0828 -0.740767
299 2 28.7505 19.1884 0.909049 28.7505 19.1884 0.909049
300 2 28.6904 18.8594 -2.33312 28.6904 18.8594 -2.33312
301 1 29.6042 17.3328 -0.575336 29.6042 17.3328 -0.575336
302 2 31.5517 17.4046 1.03117 31.5517 17.4046 1.03117
303 2 31.551 17.3669 -2.23814 31.551 17.3669 -2.23814
304 1 32.3824 19.0472 -0.623302 32.3824 19.0472 -0.623302
305 2 34.1621 19.0552 1.27838 34.1621 19.0552 1.27838
306 2 34.4432 18.9975 -2.04228 34.4432 18.9975 -2.04228
307 1 35.2485 17.534 -0.318545 35.2485 17.534 -0.318545
308 2 36.9998 17.535 1.4547 36.9998 17.535 1.4547
309 2 37.2301 17.3858 -1.85435 37.2301 17.3858 -1.85435
310 1 38.1066 19.1674 -0.230121 38.1066 19.1674 -0.230121
311 2 39.7846 19.0693 1.65755 39.7846 19.0693 1.65755
312 2 40.1539 19.2336 -1.55841 40.1539 19.2336 -1.55841
313 1 40.8496 17.5005 0.136958 40.8496 17.5005 0.136958
314 2 42.6956 17.5004 1.86528 42.6956 17.5004 1.86528
315 2 42.9877 17.6639 -1.4549 42.9877 17.6639 -1.4549
316 1 43.7568 19.1561 0.372062 43.7568 19.1561 0.372062
317 2 45.6988 19.2904 1.88433 45.6988 19.2904 1.88433
318 2 45.6546 19.2107 -1.3327 45.6546 19.2107 -1.3327
319 1 46.6407 17.6095 0.272859 46.6407 17.6095 0.272859
320 2 48.5989 17.6498 1.81462 48.5989 17.6498 1.81462
321 2 48.5604 17.494 -1.3727 48.5604 17.494 -1.3727
322 1 49.5183 19.2053 0.0993767 49.5183 19.2053 0.0993767
323 2 51.4828 19.2475 1.70247 51.4828 19.2475 1.70247
324 2 51.3506 19.2132 -1.602 51.3506 19.2132 -1.602
325 1 1.1273 20.804 0.0229571 1.1273 20.804 0.0229571
326 2 2.80429 20.9655 1.71469 2.80429 20.9655 1.71469
327 2 3.09159 20.7772 -1.48088 3.09159 20.7772 -1.48088
328 1 3.95171 22.5556 0.127377 3.95171 22.5556 0.127377
329 2 6.02482 22.4869 1.52179 6.02482 22.4869 1.52179
330 2 5.71753 22.5717 -1.59223 5.71753 22.5717 -1.59223
331 1 6.76414 20.8165 -0.170081 6.76414 20.8165 -0.170081
332 2 8.76255 20.951 1.46893 8.76255 20.951 1.46893
333 2 8.62461 20.8138 -1.81956 8.62461 20.8138 -1.81956
334 1 9.70138 22.548 -0.242004 9.70138 22.548 -0.242004
335 2 11.7163 22.2997 1.36054 11.7163 22.2997 1.36054
336 2 11.4608 22.4818 -2.03253 11.4608 22.4818 -2.03253
337 1 12.4799 20.7528 -0.376912 12.4799 20.7528 -0.376912
338 2 14.4943 20.6395 1.05452 14.4943 20.6395 1.05452
339 2 14.2567 20.7548 -2.26189 14.2567 20.7548 -2.26189
340 1 15.424 22.3241 -0.69391 15.424 22.3241 -0.69391
341 2 17.1866 22.2491 0.938768 17.1866 22.2491 0.938768
342 2 17.2366 22.3267 -2.35518 17.2366 22.3267 -2.35518
343 1 18.1709 20.6995 -0.733722 18.1709 20.6995 -0.733722
344 2 19.9824 20.7726 1.0126 19.9824 20.7726 1.0126
345 2 20.174 20.5144 -2.22202 20.174 20.5144 -2.22202
346 1 21.0876 22.3164 -0.670376 21.0876 22.3164 -0.670376
347 2 22.8546 22.3959 1.03213 22.8546 22.3959 1.03213
348 2 23.0982 22.3459 -2.18892 23.0982 22.3459 -2.18892
349 1 23.9482 20.7056 -0.450867 23.9482 20.7056 -0.450867
350 2 25.9137 20.7326 0.972647 25.9137 20.7326 0.972647
351 2 25.7069 20.7186 -2.26338 25.7069 20.7186 -2.26338
352 1 26.7223 22.402 -0.823142 26.7223 22.402 -0.823142
353 2 28.5161 22.3291 0.866585 28.5161 22.3291 0.866585
354 2 28.6847 22.3842 -2.31434 28.6847 22.3842 -2.31434
355 1 29.5856 20.6991 -0.795026 29.5856 20.6991 -0.795026
356 2 31.3772 20.6917 1.00064 31.3772 20.6917 1.00064
357 2 31.6833 20.907 -2.28971 31.6833 20.907 -2.28971
358 1 32.4951 22.4044 -0.442235 32.4951 22.4044 -0.442235
359 2 34.3275 22.5415 1.29668 34.3275 22.5415 1.29668
360 2 34.3885 22.5176 -1.96244 34.3885 22.5176 -1.96244
361 1 35.2392 20.7871 -0.293976 35.2392 20.7871 -0.293976
362 2 37.0469 20.7566 1.40048 37.0469 20.7566 1.40048
363 2 37.1887 20.8133 -1.89984 37.1887 20.8133 -1.89984
364 1 38.154 22.4404 -0.104659 38.154 22.4404 -0.104659
365 2 39.8689 22.5944 1.72304 39.8689 22.5944 1.72304
366 2 40.1986 22.3263 -1.6095 40.1986 22.3263 -1.6095
367 1 40.9085 20.7567 0.296716 40.9085 20.7567 0.296716
368 2 42.8456 20.8855 1.96888 42.8456 20.8855 1.96888
369 2 42.826 20.6489 -1.33545 42.826 20.6489 -1.33545
370 1 43.7581 22.3877 0.170504 43.7581 22.3877 0.170504
371 2 45.6658 22.4962 1.83357 45.6658 22.4962 1.83357
372 2 45.6457 22.3958 -1.46409 45.6457 22.3958 -1.46409
373 1 46.7029 20.7711 0.234325 46.7029 20.7711 0.234325
374 2 48.7173 20.914 1.74214 48.7173 20.914 1.74214
375 2 48.4236 20.7861 -1.53554 48.4236 20.7861 -1.53554
376 1 49.6238 22.3706 -0.0104598 49.6238 22.3706 -0.0104598
377 2 51.4043 22.3907 1.63674 51.4043 22.3907 1.63674
378 2 51.4594 22.3437 -1.60565 51.4594 22.3437 -1.60565
379 1 1.08413 24.0877 0.0612358 1.08413 24.0877 0.0612358
380 2 3.00352 24.2335 1.77791 3.00352 24.2335 1.77791
381 2 3.03224 24.0845 -1.56777 3.03224 24.0845 -1.56777
382 1 3.89353 25.7866 0.14836 3.89353 25.7866 0.14836
383 2 5.86519 25.7531 1.6852 5.86519 25.7531 1.6852
384 2 5.78292 25.8443 -1.59536 5.78292 25.8443 -1.59536
385 1 6.76306 24.1193 -0.072984 6.76306 24.1193 -0.072984
386 2 8.69107 24.0204 1.58884 8.69107 24.0204 1.58884
387 2 8.69195 24.3752 -1.63236 8.69195 24.3752 -1.63236
388 1 9.66019 25.7709 0.221608 9.66019 25.7709 0.221608
389 2 11.7956 25.8178 1.53116 11.7956 25.8178 1.53116
390 2 11.3549 25.787 -1.6621 11.3549 25.787 -1.6621
391 1 12.5821 23.9921 -0.240248 12.5821 23.9921 -0.240248
392 2 14.7046 23.9559 1.10677 14.7046 23.9559 1.10677
393 2 14.3057 23.9971 -2.08602 14.3057 23.9971 -2.08602
394 1 15.4053 25.6304 -0.550289 15.4053 25.6304 -0.550289
395 2 17.3236 25.6448 1.00871 17.3236 25.6448 1.00871
396 2 17.2258 25.5203 -2.26132 17.2258 25.5203 -2.26132
397 1 18.1902 23.9152 -0.634818 18.1902 23.9152 -0.634818
398 2 19.9263 23.8123 1.10833 19.9263 23.8123 1.10833
399 2 20.2263 24.1038 -2.14217 20.2263 24.1038 -2.14217
400 1 21.1071 25.5934 -0.274331 21.1071 25.5934 -0.274331
401 2 23.2055 25.6455 1.28841 23.2055 25.6455 1.28841
402 2 22.9296 25.7984 -1.99904 22.9296 25.7984 -1.99904
403 1 24.0005 24.0853 -0.498431 24.0005 24.0853 -0.498431
404 2 25.9989 23.9117 1.01591 25.9989 23.9117 1.01591
405 2 25.7412 24.1857 -2.27681 25.7412 24.1857 -2.27681
406 1 26.8394 25.7673 -0.631987 26.8394 25.7673 -0.631987
407 2 28.6277 25.7705 1.05442 28.6277 25.7705 1.05442
408 2 28.7372 25.7001 -2.18438 28.7372 25.7001 -2.18438
409 1 29.5839 24.0178 -0.619995 29.5839 24.0178 -0.619995
410 2 31.4651 24.22 1.12227 31.4651 24.22 1.12227
411 2 31.6072 24.0697 -2.21342 31.6072 24.0697 -2.21342
412 1 32.4882 25.7475 -0.507214 32.4882 25.7475 -0.507214
413 2 34.345 25.7802 1.29446 34.345 25.7802 1.29446
414 2 34.5139 25.7642 -1.98187 34.5139 25.7642 -1.98187
415 1 35.2815 24.0633 -0.310595 35.2815 24.0633 -0.310595
416 2 37.1525 24.2715 1.34355 37.1525 24.2715 1.34355
417 2 37.2131 24.0891 -1.82988 37.2131 24.0891 -1.82988
418 1 38.0799 25.7669 -0.226704 38.0799 25.7669 -0.226704
419 2 39.835 25.8163 1.5168 39.835 25.8163 1.5168
420 2 40.0857 25.7015 -1.69756 40.0857 25.7015 -1.69756
421 1 40.9176 24.0957 -0.0133422 40.9176 24.0957 -0.0133422
422 2 42.7293 24.1808 1.77668 42.7293 24.1808 1.77668
423 2 42.9217 24.0166 -1.57042 42.9217 24.0166 -1.57042
424 1 43.867 25.6976 0.14164 43.867 25.6976 0.14164
425 2 45.6375 25.7112 1.74841 45.6375 25.7112 1.74841
426 2 45.8107 25.5841 -1.48245 45.8107 25.5841 -1.48245
427 1 46.6854 24.0251 0.204194 46.6854 24.0251 0.204194
428 2 48.6401 24.0632 1.73705 48.6401 24.0632 1.73705
429 2 48.5638 24.0661 -1.57157 48.5638 24.0661 -1.57157
430 1 49.5942 25.7175 0.0394373 49.5942 25.7175 0.0394373
431 2 51.4247 25.8529 1.66668 51.4247 25.8529 1.66668
432 2 51.4754 25.7139 -1.60299 51.4754 25.7139 -1.60299
433 1 1.02274 27.3994 0.0103227 1.02274 27.3994 0.0103227
434 2 2.97681 27.4546 1.72488 2.97681 27.4546 1.72488
435 2 3.04982 27.3295 -1.57133 3.04982 27.3295 -1.57133
436 1 3.99411 29.1392 0.0365859 3.99411 29.1392 0.0365859
437 2 5.88878 29.0859 1.63207 5.88878 29.0859 1.63207
438 2 5.90271 29.1335 -1.58845 5.90271 29.1335 -1.58845
439 1 6.84511 27.3455 0.0998103 6.84511 27.3455 0.0998103
440 2 8.89291 27.6372 1.61894 8.89291 27.6372 1.61894
441 2 8.61029 27.2061 -1.60189 8.61029 27.2061 -1.60189
442 1 9.64117 28.9944 -0.344494 9.64117 28.9944 -0.344494
443 2 11.5776 29.2066 1.22232 11.5776 29.2066 1.22232
444 2 11.5322 28.8748 -2.06928 11.5322 28.8748 -2.06928
445 1 12.4761 27.3928 -0.257462 12.4761 27.3928 -0.257462
446 2 14.5881 27.2507 1.1056 14.5881 27.2507 1.1056
447 2 14.2296 27.4039 -2.1222 14.2296 27.4039 -2.1222
448 1 15.3681 28.99 -0.584151 15.3681 28.99 -0.584151
449 2 17.2373 28.9366 1.03084 17.2373 28.9366 1.03084
450 2 17.2895 29.0133 -2.18337 17.2895 29.0133 -2.18337
451 1 18.25 27.3321 -0.593583 18.25 27.3321 -0.593583
452 2 19.9671 27.2922 1.24549 19.9671 27.2922 1.24549
453 2 20.2996 27.3362 -1.97044 20.2996 27.3362 -1.97044
454 1 21.0596 29.0034 -0.0870066 21.0596 29.0034 -0.0870066
455 2 23.0878 28.8252 1.46281 23.0878 28.8252 1.46281
456 2 22.9491 29.1141 -1.80012 22.9491 29.1141 -1.80012
457 1 24.0016 27.3784 -0.308845 24.0016 27.3784 -0.308845
458 2 26.0146 27.2225 1.21523 26.0146 27.2225 1.21523
459 2 25.8101 27.5735 -2.0347 25.8101 27.5735 -2.0347
460 1 26.7705 29.006 -0.245128 26.7705 29.006 -0.245128
461 2 28.8605 28.9287 1.13754 28.8605 28.9287 1.13754
462 2 28.5404 29.0423 -2.04645 28.5404 29.0423 -2.04645
463 1 29.725 27.314 -0.614157 29.725 27.314 -0.614157
464 2 31.4701 27.2968 1.1701 31.4701 27.2968 1.1701
465 2 31.6658 27.4623 -2.12687 31.6658 27.4623 -2.12687
466 1 32.4445 29.0807 -0.371975 32.4445 29.0807 -0.371975
467 2 34.3206 29.0126 1.31969 34.3206 29.0126 1.31969
468 2 34.4843 29.0298 -1.95447 34.4843 29.0298 -1.95447
469 1 35.2493 27.3738 -0.288709 35.2493 27.3738 -0.288709
470 2 37.0708 27.3783 1.36655 37.0708 27.3783 1.36655
471 2 37.2512 27.4172 -1.87953 37.2512 27.4172 -1.87953
472 1 38.1518 28.9807 -0.204577 38.1518 28.9807 -0.204577
473 2 39.8919 29.0133 1.52504 39.8919 29.0133 1.52504
474 2 40.1339 29.0612 -1.73184 40.1339 29.0612 -1.73184
475 1 41.0287 27.4226 0.0430113 41.0287 27.4226 0.0430113
476 2 42.9703 27.4848 1.63103 42.9703 27.4848 1.63103
477 2 42.9923 27.2964 -1.6126 42.9923 27.2964 -1.6126
478 1 43.9266 28.996 -0.0906554 43.9266 28.996 -0.0906554
479 2 45.8451 28.8876 1.674 45.8451 28.8876 1.674
480 2 45.865 28.9498 -1.60178 45.865 28.9498 -1.60178
481 1 46.6871 27.3158 0.0734428 46.6871 27.3158 0.0734428
482 2 48.6464 27.3927 1.58574 48.6464 27.3927 1.58574
483 2 48.5891 27.4089 -1.60404 48.5891 27.4089 -1.60404
484 1 49.4694 29.1331 -0.121905 49.4694 29.1331 -0.121905
485 2 51.2889 28.9656 1.68931 51.2889 28.9656 1.68931
486 2 51.5415 28.9969 -1.6735 51.5415 28.9969 -1.6735
487 1 1.04803 30.6201 0.0724528 1.04803 30.6201 0.0724528
488 2 3.03078 30.7355 1.61808 3.03078 30.7355 1.61808
489 2 2.84833 30.6267 -1.57219 2.84833 30.6267 -1.57219
490 1 3.95851 32.3647 0.0188499 3.95851 32.3647 0.0188499
491 2 5.93741 32.4941 1.48627 5.93741 32.4941 1.48627
492 2 5.87315 32.2405 -1.65308 5.87315 32.2405 -1.65308
493 1 6.88658 30.7357 0.0725384 6.88658 30.7357 0.0725384
494 2 8.82366 30.6512 1.43974 8.82366 30.6512 1.43974
495 2 8.49435 30.7274 -1.85134 8.49435 30.7274 -1.85134
496 1 9.68636 32.3725 -0.374695 9.68636 32.3725 -0.374695
497 2 11.6741 32.4386 1.08208 11.6741 32.4386 1.08208
498 2 11.3555 32.2443 -2.18871 11.3555 32.2443 -2.18871
499 1 12.4814 30.6888 -0.529708 12.4814 30.6888 -0.529708
500 2 14.4502 30.6603 1.09373 14.4502 30.6603 1.09373
501 2 14.3582 30.6595 -2.24161 14.3582 30.6595 -2.24161
502 1 15.3535 32.3116 -0.690564 15.3535 32.3116 -0.690564
503 2 17.2314 32.5048 0.921964 17.2314 32.5048 0.921964
504 2 17.3169 32.1838 -2.38248 17.3169 32.1838 -2.38248
505 1 18.1922 30.6941 -0.527899 18.1922 30.6941 -0.527899
506 2 19.8947 30.797 1.27734 19.8947 30.797 1.27734
507 2 20.226 30.5696 -1.86091 20.226 30.5696 -1.86091
508 1 21.0927 32.355 -0.278093 21.0927 32.355 -0.278093
509 2 22.9866 32.5801 1.41896 22.9866 32.5801 1.41896
510 2 23.1356 32.2769 -1.77787 23.1356 32.2769 -1.77787
511 1 23.9263 30.6836 0.0111828 23.9263 30.6836 0.0111828
512 2 25.9622 30.6359 1.5482 25.9622 30.6359 1.5482
513 2 25.7336 30.7283 -1.75269 25.7336 30.7283 -1.75269
514 1 26.8254 32.4228 -0.16124 26.8254 32.4228 -0.16124
515 2 28.8957 32.38 1.2076 28.8957 32.38 1.2076
516 2 28.6357 32.3409 -1.98899 28.6357 32.3409 -1.98899
517 1 29.5708 30.73 -0.391691 29.5708 30.73 -0.391691
518 2 31.5213 30.8251 1.2696 31.5213 30.8251 1.2696
519 2 31.4989 30.707 -1.99439 31.4989 30.707 -1.99439
520 1 32.529 32.3927 -0.422983 32.529 32.3927 -0.422983
521 2 34.3595 32.3541 1.38059 34.3595 32.3541 1.38059
522 2 34.3379 32.341 -1.89747 34.3379 32.341 -1.89747
523 1 35.3672 30.6563 -0.191285 35.3672 30.6563 -0.191285
524 2 37.2715 30.6838 1.43152 37.2715 30.6838 1.43152
525 2 37.3101 30.6111 -1.77946 37.3101 30.6111 -1.77946
526 1 38.2372 32.3467 -0.239681 38.2372 32.3467 -0.239681
527 2 39.9468 32.3851 1.52879 39.9468 32.3851 1.52879
528 2 40.3037 32.3144 -1.74491 40.3037 32.3144 -1.74491
529 1 40.9691 30.6523 -0.0148941 40.9691 30.6523 -0.0148941
530 2 42.9859 30.662 1.54227 42.9859 30.662 1.54227
531 2 42.7784 30.5558 -1.78131 42.7784 30.5558 -1.78131
532 1 43.8091 32.2699 -0.18421 43.8091 32.2699 -0.18421
533 2 45.7649 32.5836 1.33333 45.7649 32.5836 1.33333
534 2 45.7109 31.9747 -1.89127 45.7109 31.9747 -1.89127
535 1 46.7283 30.6757 0.0576632 46.7283 30.6757 0.0576632
536 2 48.6502 30.7527 1.5744 48.6502 30.7527 1.5744
537 2 48.4391 30.714 -1.79039 48.4391 30.714 -1.79039
538 1 49.5865 32.3623 -0.124045 49.5865 32.3623 -0.124045
539 2 51.505 32.4435 1.50264 51.505 32.4435 1.50264
540 2 51.4731 32.0694 -1.78346 51.4731 32.0694 -1.78346