LAMMPS (29 Aug 2024 - Update 2)
#!/bin/bash
units           metal
atom_style      atomic
boundary        p p p

# ---- System setup ----
read_data	MoSe2_tersoff.data
Reading data file ...
  orthogonal box = (0.84137701 0.80961581 -10) to (52.176228 50.206599 10)
  1 by 1 by 1 MPI processor grid
  reading atoms ...
  810 atoms
  reading velocities ...
  810 velocities
  read_data CPU = 0.003 seconds

# ---- Potential ----
pair_style      tersoff
pair_coeff      * * Potential.tersoff Mo Se

# ---- Settings ----
neighbor        2 bin
neigh_modify    every 10 delay 0 check yes

velocity        all create 300.0 12345 mom yes rot yes dist gaussian loop all
fix		1 all langevin 300.0 300.0 0.1 298932
fix		2 all nve/limit 0.1

timestep        0.001

thermo          10
thermo_style    custom step pe ke etotal temp lx ly lz press

shell		mkdir coord
dump            1 all custom 100 coord/dump.*.lammpstrj id type x y z xu yu zu
dump_modify     1 sort id flush yes pad 9


# ---- Dynamics ----
run             50000
Neighbor list info ...
  update: every = 10 steps, delay = 0 steps, check = yes
  max neighbors/atom: 2000, page size: 100000
  master list distance cutoff = 6.68
  ghost atom cutoff = 6.68
  binsize = 3.34, bins = 16 15 6
  1 neighbor lists, perpetual/occasional/extra = 1 0 0
  (1) pair tersoff, perpetual
      attributes: full, newton on
      pair build: full/bin/atomonly
      stencil: full/bin/3d
      bin: standard
Per MPI rank memory allocation (min/avg/max) = 3.092 | 3.092 | 3.092 Mbytes
   Step         PotEng         KinEng         TotEng          Temp            Lx             Ly             Lz           Press     
         0  -4132.1652      31.371437     -4100.7937      300            51.334851      49.396983      20             660.70985    
        10  -4127.6445      26.307821     -4101.3366      251.57745      51.334851      49.396983      20             1068.2816    
        20  -4118.7148      18.732132     -4099.9827      179.13236      51.334851      49.396983      20             1479.8831    
        30  -4112.3175      15.689772     -4096.6277      150.03876      51.334851      49.396983      20             1664.645     
        40  -4110.7913      16.685917     -4094.1054      159.56473      51.334851      49.396983      20             1484.0216    
        50  -4111.73        19.983141     -4091.7468      191.09555      51.334851      49.396983      20             1129.4046    
        60  -4112.1616      22.771434     -4089.3902      217.75956      51.334851      49.396983      20             710.58641    
        70  -4111.3656      23.786717     -4087.5789      227.46854      51.334851      49.396983      20             313.46936    
        80  -4110.1333      23.836028     -4086.2973      227.9401       51.334851      49.396983      20            -101.72047    
        90  -4109.0997      24.757014     -4084.3427      236.74734      51.334851      49.396983      20            -269.97241    
       100  -4108.1258      25.30256      -4082.8233      241.96431      51.334851      49.396983      20            -170.78194    
       110  -4107.2752      26.604356     -4080.6709      254.41317      51.334851      49.396983      20             135.40615    
       120  -4106.3822      27.673099     -4078.7091      264.63339      51.334851      49.396983      20             557.85975    
       130  -4105.7852      27.252495     -4078.5327      260.61122      51.334851      49.396983      20             953.5082     
       140  -4105.481       27.834908     -4077.6461      266.18074      51.334851      49.396983      20             1270.8395    
       150  -4105.2694      29.869095     -4075.4003      285.63335      51.334851      49.396983      20             1548.3765    
       160  -4104.2831      29.412113     -4074.871       281.2633       51.334851      49.396983      20             1663.6561    
       170  -4102.6926      28.482808     -4074.2098      272.3765       51.334851      49.396983      20             1640.7968    
       180  -4102.2248      29.607578     -4072.6172      283.1325       51.334851      49.396983      20             1563.6646    
       190  -4102.639       29.633391     -4073.0056      283.37934      51.334851      49.396983      20             1362.5947    
       200  -4102.9741      29.603859     -4073.3703      283.09693      51.334851      49.396983      20             1039.638     
       210  -4102.9341      30.038242     -4072.8959      287.25087      51.334851      49.396983      20             769.80626    
       220  -4102.6153      29.702773     -4072.9125      284.04283      51.334851      49.396983      20             533.68051    
       230  -4102.2094      29.113311     -4073.0961      278.4059       51.334851      49.396983      20             475.59368    
       240  -4102.2326      29.159876     -4073.0727      278.8512       51.334851      49.396983      20             456.52525    
       250  -4102.6082      29.886291     -4072.7219      285.79778      51.334851      49.396983      20             602.8354     
       260  -4103.0431      30.937842     -4072.1053      295.8536       51.334851      49.396983      20             885.70607    
       270  -4103.1456      31.102936     -4072.0427      297.43236      51.334851      49.396983      20             1147.3063    
       280  -4103.2545      31.777874     -4071.4766      303.88669      51.334851      49.396983      20             1461.1868    
       290  -4103.331       32.156279     -4071.1747      307.50531      51.334851      49.396983      20             1676.9583    
       300  -4102.647       31.093706     -4071.5533      297.3441       51.334851      49.396983      20             1785.4701    
       310  -4102.0547      29.707703     -4072.347       284.08998      51.334851      49.396983      20             1683.5072    
       320  -4101.7469      29.830508     -4071.9163      285.26435      51.334851      49.396983      20             1443.9415    
       330  -4101.9883      30.183248     -4071.805       288.63753      51.334851      49.396983      20             1164.3093    
       340  -4102.7824      32.218462     -4070.564       308.09996      51.334851      49.396983      20             914.96941    
       350  -4102.9751      31.967424     -4071.0077      305.69932      51.334851      49.396983      20             697.34029    
       360  -4102.3703      30.72202      -4071.6483      293.78972      51.334851      49.396983      20             524.94645    
       370  -4102.2131      29.910164     -4072.3029      286.02608      51.334851      49.396983      20             476.92012    
       380  -4102.9045      30.777059     -4072.1275      294.31605      51.334851      49.396983      20             606.95662    
       390  -4103.4068      31.01682      -4072.39        296.60885      51.334851      49.396983      20             793.01554    
       400  -4102.9359      30.877718     -4072.0582      295.27864      51.334851      49.396983      20             1055.5738    
       410  -4102.1802      29.134111     -4073.0461      278.60481      51.334851      49.396983      20             1422.0827    
       420  -4102.0311      28.820622     -4073.2105      275.60697      51.334851      49.396983      20             1640.8733    
       430  -4102.5176      29.816136     -4072.7015      285.1269       51.334851      49.396983      20             1694.866     
       440  -4102.8563      29.743276     -4073.113       284.43015      51.334851      49.396983      20             1572.4526    
       450  -4103.0241      29.579625     -4073.4445      282.86519      51.334851      49.396983      20             1307.1664    
       460  -4102.9971      30.977542     -4072.0195      296.23324      51.334851      49.396983      20             1171.512     
       470  -4102.299       31.071713     -4071.2273      297.13379      51.334851      49.396983      20             1135.506     
       480  -4101.7705      30.63721      -4071.1332      292.9787       51.334851      49.396983      20             1008.848     
       490  -4102.4675      31.11343      -4071.3541      297.53272      51.334851      49.396983      20             769.75264    
       500  -4103.5127      31.763469     -4071.7492      303.74894      51.334851      49.396983      20             574.48377    
       510  -4103.6913      31.823355     -4071.868       304.32162      51.334851      49.396983      20             439.87588    
       520  -4103.148       30.832155     -4072.3158      294.84294      51.334851      49.396983      20             429.92545    
       530  -4102.4234      30.864554     -4071.5588      295.15276      51.334851      49.396983      20             564.14699    
       540  -4102.1614      31.277016     -4070.8843      299.09707      51.334851      49.396983      20             794.69017    
       550  -4102.055       31.912247     -4070.1428      305.17168      51.334851      49.396983      20             1178.8353    
       560  -4101.8841      31.75512      -4070.129       303.6691       51.334851      49.396983      20             1550.5957    
       570  -4101.603       32.061075     -4069.5419      306.5949       51.334851      49.396983      20             1725.5944    
       580  -4101.5012      31.420463     -4070.0807      300.46883      51.334851      49.396983      20             1714.8452    
       590  -4101.3703      31.442462     -4069.9278      300.6792       51.334851      49.396983      20             1626.2249    
       600  -4100.9501      30.227678     -4070.7224      289.06242      51.334851      49.396983      20             1510.2669    
       610  -4101.0398      30.448947     -4070.5909      291.17838      51.334851      49.396983      20             1453.951     
       620  -4101.2753      29.807726     -4071.4676      285.04648      51.334851      49.396983      20             1346.1812    
       630  -4101.7654      30.210124     -4071.5553      288.89454      51.334851      49.396983      20             1214.2852    
       640  -4102.2342      31.247148     -4070.9871      298.81144      51.334851      49.396983      20             1144.191     
       650  -4102.2281      31.319007     -4070.909       299.49862      51.334851      49.396983      20             1023.2083    
       660  -4101.7389      31.42707      -4070.3118      300.53201      51.334851      49.396983      20             863.55638    
       670  -4101.1674      31.192487     -4069.9749      298.28872      51.334851      49.396983      20             765.3092     
       680  -4100.733       30.90391      -4069.8291      295.52912      51.334851      49.396983      20             747.43558    
       690  -4100.7306      31.22746      -4069.5031      298.62317      51.334851      49.396983      20             757.15106    
       700  -4101.1363      31.289706     -4069.8466      299.21842      51.334851      49.396983      20             885.7907     
       710  -4101.2542      31.319569     -4069.9347      299.50399      51.334851      49.396983      20             1120.2933    
       720  -4101.2068      30.756601     -4070.4502      294.12042      51.334851      49.396983      20             1413.3803    
       730  -4101.169       30.719464     -4070.4496      293.76528      51.334851      49.396983      20             1620.1334    
       740  -4101.2481      30.752199     -4070.4959      294.07832      51.334851      49.396983      20             1618.6193    
       750  -4101.3687      30.867716     -4070.501       295.183        51.334851      49.396983      20             1553.0932    
       760  -4101.6208      31.624943     -4069.9958      302.42423      51.334851      49.396983      20             1443.4331    
       770  -4101.6374      31.175466     -4070.4619      298.12596      51.334851      49.396983      20             1250.7908    
       780  -4101.6625      31.631706     -4070.0308      302.48891      51.334851      49.396983      20             1041.4024    
       790  -4101.817       31.368525     -4070.4485      299.97215      51.334851      49.396983      20             765.44061    
       800  -4102.1575      31.907548     -4070.25        305.12674      51.334851      49.396983      20             615.49636    
       810  -4101.9338      31.04959      -4070.8842      296.92222      51.334851      49.396983      20             590.63507    
       820  -4101.6387      30.661931     -4070.9768      293.2151       51.334851      49.396983      20             674.57126    
       830  -4101.8245      30.9303       -4070.8942      295.78147      51.334851      49.396983      20             839.57869    
       840  -4102.3187      31.834525     -4070.4842      304.42844      51.334851      49.396983      20             1037.3328    
       850  -4102.3909      32.786429     -4069.6045      313.53134      51.334851      49.396983      20             1244.8962    
       860  -4101.8911      32.788648     -4069.1025      313.55256      51.334851      49.396983      20             1428.008     
       870  -4101.3426      32.794301     -4068.5483      313.60662      51.334851      49.396983      20             1488.8971    
       880  -4100.1366      31.587145     -4068.5495      302.06277      51.334851      49.396983      20             1437.8655    
       890  -4099.5312      31.004371     -4068.5269      296.48981      51.334851      49.396983      20             1156.4312    
       900  -4100.1786      30.706916     -4069.4716      293.64529      51.334851      49.396983      20             735.00999    
       910  -4101.0295      31.392653     -4069.6368      300.20288      51.334851      49.396983      20             330.54955    
       920  -4100.9956      31.359054     -4069.6366      299.88158      51.334851      49.396983      20             84.996966    
       930  -4100.9732      31.429943     -4069.5432      300.55948      51.334851      49.396983      20             68.956544    
       940  -4101.2338      31.472042     -4069.7618      300.96207      51.334851      49.396983      20             242.51928    
       950  -4101.5338      31.884869     -4069.6489      304.90987      51.334851      49.396983      20             612.24237    
       960  -4101.2917      31.748482     -4069.5432      303.60562      51.334851      49.396983      20             994.06023    
       970  -4100.8658      31.391704     -4069.4741      300.19381      51.334851      49.396983      20             1392.4497    
       980  -4100.8049      30.870015     -4069.9349      295.20498      51.334851      49.396983      20             1630.8933    
       990  -4100.7835      31.265765     -4069.5177      298.98947      51.334851      49.396983      20             1765.0213    
      1000  -4100.5557      31.561915     -4068.9937      301.8215       51.334851      49.396983      20             1812.2653    
      1010  -4100.4616      31.092605     -4069.369       297.33357      51.334851      49.396983      20             1623.9282    
      1020  -4100.7146      31.917309     -4068.7973      305.22008      51.334851      49.396983      20             1326.8218    
      1030  -4101.053       32.740316     -4068.3127      313.09037      51.334851      49.396983      20             929.18351    
      1040  -4101.1871      33.819947     -4067.3672      323.41471      51.334851      49.396983      20             610.31337    
      1050  -4100.459       32.791417     -4067.6675      313.57903      51.334851      49.396983      20             436.08405    
      1060  -4099.6033      31.522385     -4068.0809      301.44349      51.334851      49.396983      20             380.81061    
      1070  -4099.6003      31.437884     -4068.1624      300.63542      51.334851      49.396983      20             476.21583    
      1080  -4100.3207      31.777573     -4068.5431      303.88381      51.334851      49.396983      20             657.26475    
      1090  -4100.4735      31.772108     -4068.7014      303.83155      51.334851      49.396983      20             916.2983     
      1100  -4100.2274      30.886318     -4069.3411      295.36088      51.334851      49.396983      20             1172.8487    
      1110  -4100.4499      30.961852     -4069.488       296.0832       51.334851      49.396983      20             1391.9056    
      1120  -4100.944       31.691912     -4069.2521      303.06465      51.334851      49.396983      20             1627.2323    
      1130  -4101.3603      32.02895      -4069.3313      306.28769      51.334851      49.396983      20             1807.6085    
      1140  -4101.6067      31.96777      -4069.6389      305.70263      51.334851      49.396983      20             1850.8828    
      1150  -4101.5688      31.675257     -4069.8936      302.90538      51.334851      49.396983      20             1747.5577    
      1160  -4101.7745      32.03077      -4069.7437      306.3051       51.334851      49.396983      20             1508.7354    
      1170  -4101.7213      31.515931     -4070.2053      301.38177      51.334851      49.396983      20             1195.9917    
      1180  -4101.1777      30.501004     -4070.6767      291.67619      51.334851      49.396983      20             846.70446    
      1190  -4100.4085      29.822727     -4070.5857      285.18993      51.334851      49.396983      20             615.84641    
      1200  -4099.5901      28.934492     -4070.6556      276.69589      51.334851      49.396983      20             522.47609    
      1210  -4100.0088      28.910216     -4071.0986      276.46374      51.334851      49.396983      20             543.89106    
      1220  -4101.6927      29.86892      -4071.8238      285.63167      51.334851      49.396983      20             574.11091    
      1230  -4103.2323      31.822862     -4071.4094      304.3169       51.334851      49.396983      20             671.58131    
      1240  -4103.696       31.615566     -4072.0804      302.33456      51.334851      49.396983      20             733.384      
      1250  -4102.95        30.137266     -4072.8127      288.19782      51.334851      49.396983      20             817.18414    
      1260  -4102.2018      30.240761     -4071.9611      289.18753      51.334851      49.396983      20             1042.6933    
      1270  -4101.8076      29.326641     -4072.4809      280.44595      51.334851      49.396983      20             1151.4377    
      1280  -4101.6787      28.947222     -4072.7315      276.81762      51.334851      49.396983      20             1223.8429    
      1290  -4102.2035      29.509871     -4072.6936      282.19815      51.334851      49.396983      20             1264.6426    
      1300  -4102.805       30.065793     -4072.7392      287.51433      51.334851      49.396983      20             1229.2734    
      1310  -4103.288       29.533382     -4073.7546      282.42297      51.334851      49.396983      20             1041.7185    
      1320  -4103.5029      30.078846     -4073.4241      287.63915      51.334851      49.396983      20             848.233      
      1330  -4103.1892      29.935782     -4073.2535      286.27106      51.334851      49.396983      20             658.59689    
      1340  -4102.6595      29.486193     -4073.1733      281.97171      51.334851      49.396983      20             546.79585    
      1350  -4102.6415      28.981395     -4073.6601      277.14441      51.334851      49.396983      20             484.39596    
      1360  -4102.9616      29.94018      -4073.0214      286.31311      51.334851      49.396983      20             564.33481    
      1370  -4103.3275      30.43199      -4072.8955      291.01622      51.334851      49.396983      20             809.90541    
      1380  -4103.4166      31.355745     -4072.0608      299.84994      51.334851      49.396983      20             1052.6913    
      1390  -4102.8968      30.443076     -4072.4537      291.12223      51.334851      49.396983      20             1161.8709    
      1400  -4102.3931      30.581097     -4071.812       292.4421       51.334851      49.396983      20             1241.536     
      1410  -4101.7923      29.585932     -4072.2063      282.92551      51.334851      49.396983      20             1278.8269    
      1420  -4101.3498      29.121845     -4072.2279      278.48751      51.334851      49.396983      20             1218.4586    
      1430  -4101.568       29.42366      -4072.1443      281.37372      51.334851      49.396983      20             1077.499     
      1440  -4102.0279      30.477229     -4071.5506      291.44883      51.334851      49.396983      20             967.05701    
      1450  -4102.1322      29.663513     -4072.4687      283.66739      51.334851      49.396983      20             911.7548     
      1460  -4102.2258      29.901998     -4072.3238      285.94799      51.334851      49.396983      20             898.36882    
      1470  -4102.7246      30.692756     -4072.0318      293.50988      51.334851      49.396983      20             777.30383    
      1480  -4103.1461      31.519374     -4071.6268      301.41469      51.334851      49.396983      20             684.15331    
      1490  -4103.3921      31.878662     -4071.5134      304.85051      51.334851      49.396983      20             729.85757    
      1500  -4103.1592      32.071575     -4071.0876      306.6953       51.334851      49.396983      20             868.82847    
      1510  -4102.3209      30.914442     -4071.4065      295.62983      51.334851      49.396983      20             1062.8885    
      1520  -4101.7025      29.869709     -4071.8328      285.63922      51.334851      49.396983      20             1252.3718    
      1530  -4101.8095      30.243161     -4071.5664      289.21047      51.334851      49.396983      20             1353.9903    
      1540  -4102.417       31.959192     -4070.4578      305.6206       51.334851      49.396983      20             1385.0349    
      1550  -4102.3851      32.774489     -4069.6106      313.41716      51.334851      49.396983      20             1277.7629    
      1560  -4101.5909      30.816132     -4070.7748      294.6897       51.334851      49.396983      20             1084.672     
      1570  -4100.8137      30.71215      -4070.1015      293.69534      51.334851      49.396983      20             928.24711    
      1580  -4100.6397      30.401415     -4070.2383      290.72383      51.334851      49.396983      20             735.29967    
      1590  -4101.1684      31.221352     -4069.9471      298.56476      51.334851      49.396983      20             652.07674    
      1600  -4101.5088      31.042111     -4070.4667      296.85071      51.334851      49.396983      20             654.14077    
      1610  -4101.4811      30.729763     -4070.7513      293.86377      51.334851      49.396983      20             637.9327     
      1620  -4101.8817      31.138094     -4070.7436      297.76857      51.334851      49.396983      20             706.45992    
      1630  -4102.3465      30.979744     -4071.3668      296.2543       51.334851      49.396983      20             839.50915    
      1640  -4102.5351      31.197279     -4071.3378      298.33455      51.334851      49.396983      20             1061.7895    
      1650  -4102.4946      30.798513     -4071.6961      294.52122      51.334851      49.396983      20             1245.8719    
      1660  -4102.5132      31.499907     -4071.0133      301.22853      51.334851      49.396983      20             1334.8639    
      1670  -4102.7255      31.856658     -4070.8689      304.64009      51.334851      49.396983      20             1404.2864    
      1680  -4102.3188      31.461035     -4070.8578      300.85681      51.334851      49.396983      20             1479.9294    
      1690  -4101.4467      29.799988     -4071.6467      284.97249      51.334851      49.396983      20             1470.4423    
      1700  -4101.2822      30.640218     -4070.642       293.00747      51.334851      49.396983      20             1378.458     
      1710  -4101.9348      31.030804     -4070.904       296.74258      51.334851      49.396983      20             1146.2565    
      1720  -4102.7801      31.520081     -4071.26        301.42146      51.334851      49.396983      20             796.86278    
      1730  -4102.6519      30.980695     -4071.6712      296.26339      51.334851      49.396983      20             512.83615    
      1740  -4101.8986      30.504248     -4071.3943      291.70721      51.334851      49.396983      20             422.19072    
      1750  -4101.0385      29.231278     -4071.8072      279.534        51.334851      49.396983      20             444.82394    
      1760  -4100.8503      28.98746      -4071.8628      277.20241      51.334851      49.396983      20             560.79368    
      1770  -4101.0357      29.350389     -4071.6853      280.67304      51.334851      49.396983      20             779.67515    
      1780  -4101.4946      30.114666     -4071.38        287.9817       51.334851      49.396983      20             1050.3748    
      1790  -4102.0598      30.412346     -4071.6475      290.82836      51.334851      49.396983      20             1346.2297    
      1800  -4102.7555      31.410724     -4071.3448      300.37569      51.334851      49.396983      20             1565.4366    
      1810  -4102.8986      31.498954     -4071.3996      301.21942      51.334851      49.396983      20             1690.1939    
      1820  -4102.3528      31.205849     -4071.1469      298.41651      51.334851      49.396983      20             1738.3687    
      1830  -4101.5268      29.98992      -4071.5368      286.78877      51.334851      49.396983      20             1677.1611    
      1840  -4101.5707      29.84761      -4071.7231      285.42789      51.334851      49.396983      20             1450.2158    
      1850  -4102.3849      30.942135     -4071.4427      295.89465      51.334851      49.396983      20             1190.5379    
      1860  -4103.2443      32.068144     -4071.1762      306.66249      51.334851      49.396983      20             1000.4787    
      1870  -4103.103       31.60711      -4071.4959      302.2537       51.334851      49.396983      20             889.40493    
      1880  -4101.9692      29.792401     -4072.1768      284.89993      51.334851      49.396983      20             878.37382    
      1890  -4101.1952      29.094092     -4072.1011      278.22211      51.334851      49.396983      20             925.65856    
      1900  -4101.4972      28.661058     -4072.8362      274.08108      51.334851      49.396983      20             878.70754    
      1910  -4102.4633      29.73699      -4072.7263      284.37004      51.334851      49.396983      20             686.88055    
      1920  -4103.3625      30.414856     -4072.9477      290.85237      51.334851      49.396983      20             537.35618    
      1930  -4103.5408      30.621618     -4072.9192      292.8296       51.334851      49.396983      20             466.3183     
      1940  -4103.0075      29.590039     -4073.4175      282.96477      51.334851      49.396983      20             547.14296    
      1950  -4102.4684      29.041972     -4073.4264      277.72369      51.334851      49.396983      20             832.97331    
      1960  -4102.6528      30.194532     -4072.4582      288.74544      51.334851      49.396983      20             1196.4154    
      1970  -4103.1049      30.846929     -4072.258       294.98421      51.334851      49.396983      20             1525.3167    
      1980  -4103.2126      30.999322     -4072.2133      296.44153      51.334851      49.396983      20             1648.7947    
      1990  -4102.8788      31.222588     -4071.6562      298.57658      51.334851      49.396983      20             1522.5898    
      2000  -4102.7621      31.606923     -4071.1552      302.25192      51.334851      49.396983      20             1286.8212    
      2010  -4102.9654      31.54898      -4071.4164      301.69781      51.334851      49.396983      20             998.32749    
      2020  -4102.9476      30.99562      -4071.952       296.40612      51.334851      49.396983      20             652.68611    
      2030  -4102.2885      30.272466     -4072.0161      289.49072      51.334851      49.396983      20             364.98338    
      2040  -4101.8231      29.73423      -4072.0889      284.34365      51.334851      49.396983      20             166.67433    
      2050  -4101.5579      29.928496     -4071.6294      286.20139      51.334851      49.396983      20             85.359265    
      2060  -4101.53        29.687972     -4071.842       283.9013       51.334851      49.396983      20             117.43522    
      2070  -4101.7092      30.090372     -4071.6188      287.74938      51.334851      49.396983      20             291.49378    
      2080  -4101.9555      31.149552     -4070.8059      297.87814      51.334851      49.396983      20             549.28323    
      2090  -4101.9532      31.486542     -4070.4666      301.10073      51.334851      49.396983      20             908.06028    
      2100  -4102.111       31.170235     -4070.9408      298.07594      51.334851      49.396983      20             1155.981     
      2110  -4102.3336      30.789538     -4071.5441      294.4354       51.334851      49.396983      20             1275.611     
      2120  -4102.3729      30.825123     -4071.5477      294.77569      51.334851      49.396983      20             1335.1798    
      2130  -4101.9835      29.632175     -4072.3513      283.36771      51.334851      49.396983      20             1348.132     
      2140  -4101.6907      30.057969     -4071.6327      287.43951      51.334851      49.396983      20             1330.8645    
      2150  -4101.6566      30.314756     -4071.3418      289.89513      51.334851      49.396983      20             1162.8072    
      2160  -4101.6371      29.997238     -4071.6399      286.85875      51.334851      49.396983      20             1053.97      
      2170  -4101.7766      30.389848     -4071.3867      290.61322      51.334851      49.396983      20             946.84407    
      2180  -4101.9271      30.375426     -4071.5517      290.47531      51.334851      49.396983      20             751.72077    
      2190  -4102.1452      31.005807     -4071.1394      296.50354      51.334851      49.396983      20             687.20192    
      2200  -4101.9723      31.132268     -4070.84        297.71287      51.334851      49.396983      20             681.48099    
      2210  -4101.9063      29.946873     -4071.9594      286.37712      51.334851      49.396983      20             741.75074    
      2220  -4102.1071      30.014042     -4072.0931      287.01945      51.334851      49.396983      20             801.94301    
      2230  -4101.9151      29.883386     -4072.0317      285.77001      51.334851      49.396983      20             904.28524    
      2240  -4101.1126      28.955117     -4072.1575      276.89312      51.334851      49.396983      20             988.28886    
      2250  -4101.1217      29.23611      -4071.8856      279.58021      51.334851      49.396983      20             1049.9016    
      2260  -4101.8888      30.311166     -4071.5776      289.86079      51.334851      49.396983      20             1031.4806    
      2270  -4102.2633      31.098154     -4071.1651      297.38664      51.334851      49.396983      20             998.58182    
      2280  -4101.7794      31.005932     -4070.7735      296.50473      51.334851      49.396983      20             1020.0494    
      2290  -4101.432       30.892408     -4070.5396      295.41913      51.334851      49.396983      20             1018.2662    
      2300  -4101.5995      30.626055     -4070.9734      292.87203      51.334851      49.396983      20             1007.738     
      2310  -4102.3787      31.543011     -4070.8357      301.64074      51.334851      49.396983      20             995.96469    
      2320  -4102.5477      31.201547     -4071.3462      298.37537      51.334851      49.396983      20             946.91091    
      2330  -4102.0155      30.762746     -4071.2528      294.17919      51.334851      49.396983      20             871.27629    
      2340  -4101.5127      29.984287     -4071.5284      286.7349       51.334851      49.396983      20             835.5514     
      2350  -4101.9262      30.431838     -4071.4943      291.01477      51.334851      49.396983      20             836.74106    
      2360  -4102.5154      31.218287     -4071.2971      298.53545      51.334851      49.396983      20             874.39332    
      2370  -4102.4214      31.605855     -4070.8156      302.2417       51.334851      49.396983      20             937.55326    
      2380  -4101.8769      30.472746     -4071.4042      291.40596      51.334851      49.396983      20             1016.1579    
      2390  -4101.4172      30.022211     -4071.395       287.09757      51.334851      49.396983      20             1139.4575    
      2400  -4101.5843      30.250609     -4071.3337      289.2817       51.334851      49.396983      20             1161.4983    
      2410  -4102.0209      30.315992     -4071.7049      289.90695      51.334851      49.396983      20             1123.9799    
      2420  -4102.5991      31.092243     -4071.5069      297.33011      51.334851      49.396983      20             1012.1488    
      2430  -4102.7162      32.097168     -4070.619       306.94005      51.334851      49.396983      20             969.68152    
      2440  -4102.1402      32.168976     -4069.9712      307.62673      51.334851      49.396983      20             966.15711    
      2450  -4101.1557      31.366648     -4069.7891      299.9542       51.334851      49.396983      20             898.38105    
      2460  -4100.6189      31.623128     -4068.9958      302.40688      51.334851      49.396983      20             852.83779    
      2470  -4100.6064      31.832817     -4068.7736      304.4121       51.334851      49.396983      20             830.81602    
      2480  -4100.2766      31.029652     -4069.2469      296.73156      51.334851      49.396983      20             801.99103    
      2490  -4100.01        30.295138     -4069.7148      289.70752      51.334851      49.396983      20             788.14218    
      2500  -4100.5829      32.264127     -4068.3188      308.53664      51.334851      49.396983      20             729.90162    
      2510  -4101.4567      32.590804     -4068.8659      311.66061      51.334851      49.396983      20             705.26546    
      2520  -4101.7065      32.937814     -4068.7687      314.97901      51.334851      49.396983      20             762.1638     
      2530  -4101.4883      31.93572      -4069.5526      305.39615      51.334851      49.396983      20             862.62271    
      2540  -4101.3904      31.878927     -4069.5114      304.85305      51.334851      49.396983      20             983.3591     
      2550  -4101.4053      31.587347     -4069.818       302.06471      51.334851      49.396983      20             1160.7523    
      2560  -4101.3198      31.69673      -4069.623       303.11073      51.334851      49.396983      20             1306.9348    
      2570  -4101.0028      31.36263      -4069.6402      299.91578      51.334851      49.396983      20             1467.5501    
      2580  -4100.6008      30.959785     -4069.641       296.06344      51.334851      49.396983      20             1544.1674    
      2590  -4100.4097      30.763827     -4069.6459      294.18952      51.334851      49.396983      20             1489.2081    
      2600  -4100.9837      30.655382     -4070.3283      293.15248      51.334851      49.396983      20             1313.1232    
      2610  -4101.8942      31.262358     -4070.6318      298.9569       51.334851      49.396983      20             1018.9762    
      2620  -4102.442       31.026523     -4071.4154      296.70164      51.334851      49.396983      20             774.14354    
      2630  -4102.8813      32.160992     -4070.7203      307.55039      51.334851      49.396983      20             540.05116    
      2640  -4102.9792      32.721381     -4070.2578      312.9093       51.334851      49.396983      20             365.84225    
      2650  -4102.5251      31.21846      -4071.3067      298.5371       51.334851      49.396983      20             318.82018    
      2660  -4101.8685      30.569206     -4071.2993      292.32839      51.334851      49.396983      20             407.27335    
      2670  -4101.3792      30.336205     -4071.043       290.10024      51.334851      49.396983      20             570.54243    
      2680  -4101.5681      30.394336     -4071.1738      290.65614      51.334851      49.396983      20             785.54183    
      2690  -4102.207       31.390349     -4070.8166      300.18085      51.334851      49.396983      20             1006.5939    
      2700  -4102.0238      31.437266     -4070.5866      300.62951      51.334851      49.396983      20             1171.8683    
      2710  -4101.0696      31.332324     -4069.7372      299.62597      51.334851      49.396983      20             1250.9405    
      2720  -4101.1011      31.814385     -4069.2867      304.23584      51.334851      49.396983      20             1285.9886    
      2730  -4101.4908      31.923832     -4069.567       305.28247      51.334851      49.396983      20             1263.7496    
      2740  -4101.3353      31.253625     -4070.0817      298.87339      51.334851      49.396983      20             1246.8304    
      2750  -4100.8549      31.612234     -4069.2427      302.3027       51.334851      49.396983      20             1192.5218    
      2760  -4100.7516      31.283639     -4069.4679      299.1604       51.334851      49.396983      20             1078.677     
      2770  -4101.2286      31.483419     -4069.7452      301.07087      51.334851      49.396983      20             909.32573    
      2780  -4101.5338      31.851778     -4069.682       304.59342      51.334851      49.396983      20             747.3477     
      2790  -4100.9616      31.461265     -4069.5003      300.85901      51.334851      49.396983      20             656.30435    
      2800  -4100.3926      30.112073     -4070.2805      287.9569       51.334851      49.396983      20             606.70243    
      2810  -4100.6421      30.811602     -4069.8305      294.64638      51.334851      49.396983      20             654.27521    
      2820  -4101.6955      32.074342     -4069.6212      306.72177      51.334851      49.396983      20             865.19575    
      2830  -4102.6149      32.835633     -4069.7793      314.00187      51.334851      49.396983      20             1132.0759    
      2840  -4102.6907      32.360876     -4070.3299      309.46185      51.334851      49.396983      20             1325.3506    
      2850  -4102.5592      31.228943     -4071.3303      298.63735      51.334851      49.396983      20             1377.9483    
      2860  -4102.5563      30.103757     -4072.4525      287.87738      51.334851      49.396983      20             1310.5645    
      2870  -4102.616       30.357331     -4072.2587      290.30226      51.334851      49.396983      20             1295.297     
      2880  -4102.2206      30.570138     -4071.6505      292.3373       51.334851      49.396983      20             1241.1496    
      2890  -4101.5667      30.954607     -4070.612       296.01392      51.334851      49.396983      20             1296.893     
      2900  -4101.1216      30.600022     -4070.5216      292.62308      51.334851      49.396983      20             1211.5967    
      2910  -4101.2337      31.351061     -4069.8826      299.80514      51.334851      49.396983      20             951.48214    
      2920  -4101.1817      30.437622     -4070.7441      291.07008      51.334851      49.396983      20             591.22975    
      2930  -4101.1947      30.022336     -4071.1724      287.09876      51.334851      49.396983      20             316.37915    
      2940  -4101.3518      30.01847      -4071.3333      287.06179      51.334851      49.396983      20             167.71882    
      2950  -4101.6479      30.733323     -4070.9146      293.89782      51.334851      49.396983      20             162.53542    
      2960  -4101.8277      31.269891     -4070.5578      299.02893      51.334851      49.396983      20             242.49903    
      2970  -4102.3677      31.640622     -4070.7271      302.57417      51.334851      49.396983      20             469.62072    
      2980  -4102.7418      31.817993     -4070.9238      304.27034      51.334851      49.396983      20             770.35413    
      2990  -4102.7815      31.801679     -4070.9798      304.11433      51.334851      49.396983      20             1161.5615    
      3000  -4102.0302      30.768333     -4071.2618      294.23261      51.334851      49.396983      20             1467.9007    
      3010  -4101.2788      31.20771      -4070.0711      298.4343       51.334851      49.396983      20             1708.2465    
      3020  -4101.0139      30.847801     -4070.1661      294.99255      51.334851      49.396983      20             1794.0111    
      3030  -4101.2952      31.564295     -4069.7309      301.84427      51.334851      49.396983      20             1710.274     
      3040  -4101.3732      30.724624     -4070.6485      293.81463      51.334851      49.396983      20             1452.3031    
      3050  -4101.356       30.999419     -4070.3565      296.44245      51.334851      49.396983      20             1151.8524    
      3060  -4101.4901      31.634052     -4069.8561      302.51134      51.334851      49.396983      20             841.81306    
      3070  -4101.6132      31.852188     -4069.761       304.59735      51.334851      49.396983      20             626.774      
      3080  -4101.6547      32.667925     -4068.9868      312.39811      51.334851      49.396983      20             455.80459    
      3090  -4100.8121      31.847361     -4068.9647      304.55118      51.334851      49.396983      20             384.48375    
      3100  -4099.8035      30.907454     -4068.896       295.563        51.334851      49.396983      20             498.79338    
      3110  -4099.4497      30.927686     -4068.522       295.75648      51.334851      49.396983      20             709.201      
      3120  -4099.6629      31.154141     -4068.5088      297.92203      51.334851      49.396983      20             933.83577    
      3130  -4100.1075      31.435709     -4068.6718      300.61462      51.334851      49.396983      20             1172.7216    
      3140  -4100.5192      31.566595     -4068.9526      301.86626      51.334851      49.396983      20             1321.5892    
      3150  -4100.5876      31.480469     -4069.1072      301.04265      51.334851      49.396983      20             1373.9055    
      3160  -4100.6939      31.951286     -4068.7426      305.545        51.334851      49.396983      20             1383.8336    
      3170  -4100.9003      31.205951     -4069.6943      298.41748      51.334851      49.396983      20             1332.7693    
      3180  -4101.1142      31.653658     -4069.4606      302.69883      51.334851      49.396983      20             1191.2826    
      3190  -4101.1319      32.177839     -4068.954       307.71149      51.334851      49.396983      20             947.85404    
      3200  -4100.8051      31.552035     -4069.253       301.72702      51.334851      49.396983      20             741.05007    
      3210  -4100.0225      30.788969     -4069.2335      294.42995      51.334851      49.396983      20             616.65797    
      3220  -4099.36        31.001174     -4068.3588      296.45923      51.334851      49.396983      20             675.63974    
      3230  -4099.5064      31.521602     -4067.9848      301.43601      51.334851      49.396983      20             754.78795    
      3240  -4100.0951      32.105222     -4067.9899      307.01707      51.334851      49.396983      20             851.75422    
      3250  -4100.3044      32.839923     -4067.4644      314.04289      51.334851      49.396983      20             1043.7541    
      3260  -4100.2164      32.661593     -4067.5548      312.33755      51.334851      49.396983      20             1207.8768    
      3270  -4100.0859      32.320109     -4067.7658      309.07199      51.334851      49.396983      20             1273.8785    
      3280  -4100.1661      32.028509     -4068.1376      306.28347      51.334851      49.396983      20             1233.2963    
      3290  -4100.5392      31.521701     -4069.0175      301.43695      51.334851      49.396983      20             1110.1895    
      3300  -4100.5483      30.944698     -4069.6036      295.91916      51.334851      49.396983      20             975.50739    
      3310  -4100.6673      31.592236     -4069.0751      302.11146      51.334851      49.396983      20             904.53801    
      3320  -4100.8517      31.927223     -4068.9245      305.31489      51.334851      49.396983      20             886.67545    
      3330  -4101.1149      32.254999     -4068.8599      308.44936      51.334851      49.396983      20             835.92988    
      3340  -4100.9139      31.537734     -4069.3762      301.59027      51.334851      49.396983      20             836.9112     
      3350  -4100.4566      31.953629     -4068.5029      305.5674       51.334851      49.396983      20             904.13071    
      3360  -4100.1987      31.950889     -4068.2478      305.54121      51.334851      49.396983      20             912.80894    
      3370  -4100.1521      31.473532     -4068.6786      300.97632      51.334851      49.396983      20             893.04355    
      3380  -4100.483       31.571501     -4068.9115      301.91318      51.334851      49.396983      20             838.00944    
      3390  -4100.5897      31.428071     -4069.1617      300.54158      51.334851      49.396983      20             820.25444    
      3400  -4100.2231      31.29747      -4068.9257      299.29267      51.334851      49.396983      20             911.62732    
      3410  -4100.1094      31.934033     -4068.1754      305.38002      51.334851      49.396983      20             1023.4841    
      3420  -4100.1473      32.982593     -4067.1647      315.40722      51.334851      49.396983      20             1183.9903    
      3430  -4100.1412      32.444033     -4067.6972      310.25706      51.334851      49.396983      20             1280.775     
      3440  -4100.0089      32.353205     -4067.6557      309.38849      51.334851      49.396983      20             1213.4071    
      3450  -4100.2489      32.241159     -4068.0078      308.31701      51.334851      49.396983      20             1011.2705    
      3460  -4100.6356      32.341317     -4068.2943      309.2748       51.334851      49.396983      20             711.00777    
      3470  -4100.7836      32.247983     -4068.5357      308.38226      51.334851      49.396983      20             489.84163    
      3480  -4100.392       32.180996     -4068.211       307.74168      51.334851      49.396983      20             325.91872    
      3490  -4099.5491      30.913531     -4068.6356      295.62111      51.334851      49.396983      20             289.11143    
      3500  -4099.6516      30.657771     -4068.9939      293.17532      51.334851      49.396983      20             267.23482    
      3510  -4100.3049      32.039598     -4068.2653      306.38951      51.334851      49.396983      20             464.02011    
      3520  -4100.6796      32.023412     -4068.6562      306.23473      51.334851      49.396983      20             851.49654    
      3530  -4100.3139      31.585548     -4068.7283      302.0475       51.334851      49.396983      20             1390.7312    
      3540  -4099.6516      31.054627     -4068.5969      296.97039      51.334851      49.396983      20             1759.0926    
      3550  -4099.8011      32.080251     -4067.7209      306.77828      51.334851      49.396983      20             1954.2653    
      3560  -4099.9536      31.371831     -4068.5817      300.00377      51.334851      49.396983      20             1920.1218    
      3570  -4100.3693      31.47856      -4068.8907      301.02439      51.334851      49.396983      20             1727.2347    
      3580  -4101.0985      32.074232     -4069.0243      306.72071      51.334851      49.396983      20             1440.7814    
      3590  -4101.5029      32.437372     -4069.0656      310.19337      51.334851      49.396983      20             1095.3177    
      3600  -4101.4688      32.151353     -4069.3175      307.45821      51.334851      49.396983      20             762.15755    
      3610  -4100.7946      31.584391     -4069.2102      302.03645      51.334851      49.396983      20             535.06793    
      3620  -4100.2479      31.345675     -4068.9023      299.75364      51.334851      49.396983      20             441.7127     
      3630  -4100.2833      31.610324     -4068.6729      302.28444      51.334851      49.396983      20             475.77161    
      3640  -4100.2867      31.453137     -4068.8335      300.78128      51.334851      49.396983      20             639.58742    
      3650  -4100.5219      31.844441     -4068.6775      304.52326      51.334851      49.396983      20             794.02614    
      3660  -4100.7839      32.068832     -4068.7151      306.66907      51.334851      49.396983      20             971.69517    
      3670  -4101.1597      32.021722     -4069.138       306.21857      51.334851      49.396983      20             1139.0935    
      3680  -4101.4518      32.393194     -4069.0586      309.7709       51.334851      49.396983      20             1386.2964    
      3690  -4101.4029      32.070185     -4069.3327      306.68201      51.334851      49.396983      20             1500.4405    
      3700  -4101.1243      31.547723     -4069.5766      301.68579      51.334851      49.396983      20             1482.9659    
      3710  -4101.0529      32.075593     -4068.9773      306.73373      51.334851      49.396983      20             1386.4959    
      3720  -4100.935       31.33146      -4069.6035      299.6177       51.334851      49.396983      20             1243.111     
      3730  -4101.4598      31.624655     -4069.8351      302.42148      51.334851      49.396983      20             1098.0095    
      3740  -4102.2278      32.672068     -4069.5557      312.43772      51.334851      49.396983      20             968.53064    
      3750  -4102.2232      32.280397     -4069.9428      308.69224      51.334851      49.396983      20             879.90181    
      3760  -4101.7457      31.914293     -4069.8314      305.19124      51.334851      49.396983      20             849.6605     
      3770  -4101.4044      30.916952     -4070.4874      295.65383      51.334851      49.396983      20             848.464      
      3780  -4101.2265      30.66066      -4070.5659      293.20295      51.334851      49.396983      20             846.00504    
      3790  -4101.2142      31.297402     -4069.9168      299.29201      51.334851      49.396983      20             858.12563    
      3800  -4101.1993      31.241315     -4069.9579      298.75566      51.334851      49.396983      20             905.53058    
      3810  -4101.2902      31.628046     -4069.6622      302.45391      51.334851      49.396983      20             828.57033    
      3820  -4101.5561      30.853019     -4070.703       295.04245      51.334851      49.396983      20             680.69558    
      3830  -4102.3623      31.481356     -4070.8809      301.05114      51.334851      49.396983      20             685.27693    
      3840  -4102.6424      31.564344     -4071.0781      301.84474      51.334851      49.396983      20             750.02071    
      3850  -4102.2168      31.264856     -4070.9519      298.98078      51.334851      49.396983      20             940.50084    
      3860  -4101.5466      30.980838     -4070.5658      296.26476      51.334851      49.396983      20             1155.5265    
      3870  -4101.0852      30.19225      -4070.893       288.72363      51.334851      49.396983      20             1342.2518    
      3880  -4100.7118      30.517303     -4070.1945      291.83205      51.334851      49.396983      20             1444.892     
      3890  -4100.8363      30.66676      -4070.1696      293.26128      51.334851      49.396983      20             1337.6978    
      3900  -4101.0021      30.644575     -4070.3575      293.04913      51.334851      49.396983      20             1017.4265    
      3910  -4101.2608      31.84922      -4069.4116      304.56896      51.334851      49.396983      20             716.07789    
      3920  -4101.1178      30.957294     -4070.1605      296.03962      51.334851      49.396983      20             417.0929     
      3930  -4100.4512      30.961797     -4069.4894      296.08268      51.334851      49.396983      20             241.13832    
      3940  -4099.981       31.022781     -4068.9582      296.66585      51.334851      49.396983      20             271.92528    
      3950  -4100.1264      31.064795     -4069.0616      297.06763      51.334851      49.396983      20             419.94013    
      3960  -4101.0477      32.736451     -4068.3112      313.05341      51.334851      49.396983      20             598.73637    
      3970  -4101.9863      33.90009      -4068.0862      324.1811       51.334851      49.396983      20             742.11422    
      3980  -4102.3018      33.995293     -4068.3065      325.09151      51.334851      49.396983      20             892.08835    
      3990  -4101.6374      33.161526     -4068.4759      317.11833      51.334851      49.396983      20             1007.7886    
      4000  -4100.692       32.206395     -4068.4856      307.98457      51.334851      49.396983      20             1085.6165    
      4010  -4100.0674      32.557838     -4067.5096      311.34536      51.334851      49.396983      20             1093.8394    
      4020  -4099.6158      32.061148     -4067.5547      306.59559      51.334851      49.396983      20             971.06714    
      4030  -4099.455       32.502948     -4066.9521      310.82045      51.334851      49.396983      20             693.30929    
      4040  -4099.3929      32.429066     -4066.9639      310.11393      51.334851      49.396983      20             453.41408    
      4050  -4099.2383      32.684782     -4066.5535      312.55931      51.334851      49.396983      20             356.31307    
      4060  -4098.7448      32.332315     -4066.4125      309.18872      51.334851      49.396983      20             453.11623    
      4070  -4098.3591      31.480293     -4066.8788      301.04097      51.334851      49.396983      20             708.94023    
      4080  -4098.6842      32.11851      -4066.5657      307.14414      51.334851      49.396983      20             1014.7646    
      4090  -4099.5526      32.439758     -4067.1128      310.21618      51.334851      49.396983      20             1190.6498    
      4100  -4100.0014      33.038056     -4066.9634      315.93761      51.334851      49.396983      20             1404.8996    
      4110  -4100.2301      32.936842     -4067.2933      314.96972      51.334851      49.396983      20             1439.2427    
      4120  -4100.1215      32.621036     -4067.5005      311.94972      51.334851      49.396983      20             1379.8278    
      4130  -4099.8582      32.722439     -4067.1357      312.91942      51.334851      49.396983      20             1227.4148    
      4140  -4100.1356      31.998562     -4068.137       305.9971       51.334851      49.396983      20             897.66191    
      4150  -4100.2146      31.760482     -4068.4541      303.72037      51.334851      49.396983      20             598.3887     
      4160  -4100.2795      31.502429     -4068.777       301.25265      51.334851      49.396983      20             270.85867    
      4170  -4100.131       31.653421     -4068.4776      302.69657      51.334851      49.396983      20             51.498742    
      4180  -4100.0119      30.959895     -4069.052       296.06449      51.334851      49.396983      20             63.256907    
      4190  -4100.5272      31.187018     -4069.3402      298.23643      51.334851      49.396983      20             243.71151    
      4200  -4101.0346      31.533508     -4069.501       301.54986      51.334851      49.396983      20             605.94853    
      4210  -4101.0088      31.032969     -4069.9758      296.76329      51.334851      49.396983      20             976.5782     
      4220  -4100.8141      31.835826     -4068.9783      304.44087      51.334851      49.396983      20             1321.0488    
      4230  -4100.5885      32.231838     -4068.3567      308.22787      51.334851      49.396983      20             1524.0973    
      4240  -4100.4187      32.178124     -4068.2406      307.71421      51.334851      49.396983      20             1555.0972    
      4250  -4100.7093      31.779387     -4068.9299      303.90116      51.334851      49.396983      20             1406.0428    
      4260  -4101.3487      32.350162     -4068.9985      309.35939      51.334851      49.396983      20             1055.836     
      4270  -4101.4375      33.165126     -4068.2724      317.15276      51.334851      49.396983      20             626.47362    
      4280  -4100.6019      31.538516     -4069.0634      301.59775      51.334851      49.396983      20             368.52291    
      4290  -4100.0314      31.465495     -4068.566       300.89946      51.334851      49.396983      20             295.50993    
      4300  -4099.6412      31.375022     -4068.2661      300.03428      51.334851      49.396983      20             363.9445     
      4310  -4099.5315      32.344074     -4067.1874      309.30117      51.334851      49.396983      20             550.63554    
      4320  -4099.3974      31.8276       -4067.5698      304.36222      51.334851      49.396983      20             804.3857     
      4330  -4099.5686      31.328238     -4068.2404      299.5869       51.334851      49.396983      20             1016.8333    
      4340  -4100.4584      32.126005     -4068.3323      307.21581      51.334851      49.396983      20             1201.3435    
      4350  -4101.0057      31.61669      -4069.389       302.34531      51.334851      49.396983      20             1345.4983    
      4360  -4101.1549      31.518706     -4069.6362      301.40831      51.334851      49.396983      20             1454.6699    
      4370  -4101.5657      31.344919     -4070.2208      299.74641      51.334851      49.396983      20             1408.5678    
      4380  -4101.8998      31.64806      -4070.2517      302.6453       51.334851      49.396983      20             1322.9937    
      4390  -4101.9568      32.074793     -4069.882       306.72608      51.334851      49.396983      20             1124.6601    
      4400  -4101.411       32.464651     -4068.9464      310.45423      51.334851      49.396983      20             922.00675    
      4410  -4100.4506      31.254778     -4069.1959      298.88441      51.334851      49.396983      20             666.15635    
      4420  -4100.1124      30.810078     -4069.3023      294.63181      51.334851      49.396983      20             485.41159    
      4430  -4100.4192      30.573539     -4069.8457      292.36983      51.334851      49.396983      20             382.82808    
      4440  -4101.1684      30.681443     -4070.487       293.4017       51.334851      49.396983      20             328.49336    
      4450  -4101.714       31.284377     -4070.4296      299.16745      51.334851      49.396983      20             350.93113    
      4460  -4101.6051      30.840222     -4070.7649      294.92007      51.334851      49.396983      20             547.71233    
      4470  -4101.3354      30.822354     -4070.5131      294.74921      51.334851      49.396983      20             823.60568    
      4480  -4101.012       29.724255     -4071.2877      284.24826      51.334851      49.396983      20             1075.3166    
      4490  -4101.0914      31.054031     -4070.0373      296.9647       51.334851      49.396983      20             1238.1868    
      4500  -4101.5179      31.029088     -4070.4888      296.72617      51.334851      49.396983      20             1237.9657    
      4510  -4101.8257      30.437398     -4071.3883      291.06793      51.334851      49.396983      20             1172.8759    
      4520  -4101.9851      31.031864     -4070.9533      296.75271      51.334851      49.396983      20             1050.3388    
      4530  -4101.5947      30.533869     -4071.0608      291.99047      51.334851      49.396983      20             941.51264    
      4540  -4101.0505      31.037714     -4070.0128      296.80866      51.334851      49.396983      20             780.17422    
      4550  -4100.5303      30.399431     -4070.1309      290.70486      51.334851      49.396983      20             603.57789    
      4560  -4100.3834      30.16993      -4070.2135      288.51018      51.334851      49.396983      20             452.56177    
      4570  -4100.7129      30.415906     -4070.297       290.86241      51.334851      49.396983      20             382.46396    
      4580  -4101.2699      31.155896     -4070.114       297.93881      51.334851      49.396983      20             463.01091    
      4590  -4101.2017      31.073706     -4070.128       297.15284      51.334851      49.396983      20             695.77021    
      4600  -4100.6427      30.315591     -4070.3271      289.90312      51.334851      49.396983      20             1004.2634    
      4610  -4100.5028      30.403934     -4070.0989      290.74792      51.334851      49.396983      20             1219.1182    
      4620  -4101.0745      31.536287     -4069.5382      301.57643      51.334851      49.396983      20             1354.3294    
      4630  -4101.1981      31.905856     -4069.2922      305.11056      51.334851      49.396983      20             1511.4785    
      4640  -4101.3025      31.27644      -4070.0261      299.09155      51.334851      49.396983      20             1589.1669    
      4650  -4101.7518      31.980644     -4069.7712      305.82574      51.334851      49.396983      20             1600.8819    
      4660  -4102.079       32.469478     -4069.6095      310.50039      51.334851      49.396983      20             1415.1429    
      4670  -4101.7417      31.583932     -4070.1578      302.03205      51.334851      49.396983      20             1122.7229    
      4680  -4101.4311      31.192692     -4070.2384      298.29069      51.334851      49.396983      20             823.44904    
      4690  -4101.3731      30.410459     -4070.9626      290.81032      51.334851      49.396983      20             636.09783    
      4700  -4101.6252      30.842681     -4070.7826      294.94359      51.334851      49.396983      20             569.60149    
      4710  -4101.8903      31.454414     -4070.4359      300.7935       51.334851      49.396983      20             566.73551    
      4720  -4101.7524      31.99934      -4069.7531      306.00453      51.334851      49.396983      20             624.27942    
      4730  -4100.9648      30.558923     -4070.4059      292.23006      51.334851      49.396983      20             734.04372    
      4740  -4100.5866      30.790145     -4069.7964      294.4412       51.334851      49.396983      20             902.30898    
      4750  -4100.9877      30.742006     -4070.2457      293.98085      51.334851      49.396983      20             1071.6956    
      4760  -4101.8537      31.200538     -4070.6531      298.36572      51.334851      49.396983      20             1173.1558    
      4770  -4102.1475      30.714421     -4071.4331      293.71706      51.334851      49.396983      20             1151.3262    
      4780  -4102.1699      31.271645     -4070.8982      299.0457       51.334851      49.396983      20             1071.7279    
      4790  -4102.0934      31.578428     -4070.515       301.97942      51.334851      49.396983      20             966.38591    
      4800  -4101.9297      31.005048     -4070.9246      296.49628      51.334851      49.396983      20             737.6351     
      4810  -4101.6432      29.92847      -4071.7148      286.20114      51.334851      49.396983      20             548.09361    
      4820  -4101.3117      29.418511     -4071.8932      281.32448      51.334851      49.396983      20             499.08506    
      4830  -4101.3413      30.353283     -4070.988       290.26355      51.334851      49.396983      20             513.18703    
      4840  -4101.6654      31.227594     -4070.4378      298.62445      51.334851      49.396983      20             496.51095    
      4850  -4101.7208      30.66228      -4071.0585      293.21845      51.334851      49.396983      20             406.98854    
      4860  -4101.6979      30.635338     -4071.0626      292.9608       51.334851      49.396983      20             408.70951    
      4870  -4101.8972      31.023959     -4070.8732      296.67712      51.334851      49.396983      20             412.50913    
      4880  -4102.0212      31.790674     -4070.2305      304.00909      51.334851      49.396983      20             523.20373    
      4890  -4101.4731      31.176666     -4070.2965      298.13744      51.334851      49.396983      20             713.00844    
      4900  -4100.6997      30.141116     -4070.5586      288.23464      51.334851      49.396983      20             929.90434    
      4910  -4100.359       29.370479     -4070.9886      280.86516      51.334851      49.396983      20             1067.2102    
      4920  -4100.721       29.424733     -4071.2963      281.38398      51.334851      49.396983      20             1049.0148    
      4930  -4101.4788      30.647506     -4070.8313      293.07716      51.334851      49.396983      20             857.70911    
      4940  -4102.2445      31.397931     -4070.8466      300.25336      51.334851      49.396983      20             695.50471    
      4950  -4102.5012      30.831002     -4071.6702      294.8319       51.334851      49.396983      20             671.87125    
      4960  -4102.8047      31.473884     -4071.3308      300.97968      51.334851      49.396983      20             777.15633    
      4970  -4102.7515      31.175018     -4071.5765      298.12167      51.334851      49.396983      20             989.80264    
      4980  -4102.4283      30.940317     -4071.488       295.87727      51.334851      49.396983      20             1209.6186    
      4990  -4101.7978      30.428324     -4071.3695      290.98116      51.334851      49.396983      20             1396.8045    
      5000  -4101.0139      29.682037     -4071.3319      283.84454      51.334851      49.396983      20             1490.1569    
      5010  -4100.9426      28.893169     -4072.0495      276.30072      51.334851      49.396983      20             1444.6598    
      5020  -4101.6891      30.615988     -4071.0732      292.77576      51.334851      49.396983      20             1249.3397    
      5030  -4102.4259      30.958259     -4071.4676      296.04884      51.334851      49.396983      20             1003.345     
      5040  -4102.4008      31.285446     -4071.1154      299.17768      51.334851      49.396983      20             796.89694    
      5050  -4102.0627      30.588353     -4071.4744      292.5115       51.334851      49.396983      20             614.71708    
      5060  -4101.6935      30.069684     -4071.6238      287.55154      51.334851      49.396983      20             570.71004    
      5070  -4101.4145      30.461941     -4070.9525      291.30264      51.334851      49.396983      20             638.91984    
      5080  -4101.2017      29.690364     -4071.5114      283.92417      51.334851      49.396983      20             711.60512    
      5090  -4101.5722      30.137174     -4071.435       288.19694      51.334851      49.396983      20             778.05418    
      5100  -4102.3729      30.436796     -4071.9361      291.06218      51.334851      49.396983      20             795.43214    
      5110  -4102.9661      30.763844     -4072.2023      294.18968      51.334851      49.396983      20             823.66233    
      5120  -4103.4113      30.793968     -4072.6173      294.47776      51.334851      49.396983      20             918.38095    
      5130  -4103.4459      30.943916     -4072.502       295.91168      51.334851      49.396983      20             1026.9971    
      5140  -4102.8981      30.696404     -4072.2017      293.54476      51.334851      49.396983      20             1178.7651    
      5150  -4102.542       31.040149     -4071.5019      296.83195      51.334851      49.396983      20             1279.7383    
      5160  -4102.4541      31.389284     -4071.0649      300.17066      51.334851      49.396983      20             1291.0324    
      5170  -4102.2352      31.353947     -4070.8813      299.83274      51.334851      49.396983      20             1147.7769    
      5180  -4101.2613      30.820502     -4070.4408      294.7315       51.334851      49.396983      20             972.90935    
      5190  -4100.1524      29.916721     -4070.2356      286.08879      51.334851      49.396983      20             833.42822    
      5200  -4099.86        30.354078     -4069.5059      290.27115      51.334851      49.396983      20             738.63287    
      5210  -4100.2565      31.234124     -4069.0224      298.68689      51.334851      49.396983      20             572.33419    
      5220  -4100.5593      30.575263     -4069.984       292.38631      51.334851      49.396983      20             457.01878    
      5230  -4100.8147      30.964719     -4069.85        296.11062      51.334851      49.396983      20             378.04342    
      5240  -4101.3164      31.712723     -4069.6037      303.26366      51.334851      49.396983      20             358.14596    
      5250  -4102.3036      32.473514     -4069.8301      310.53898      51.334851      49.396983      20             439.8341     
      5260  -4102.6029      31.956515     -4070.6464      305.595        51.334851      49.396983      20             610.32091    
      5270  -4101.7851      30.99424      -4070.7909      296.39292      51.334851      49.396983      20             900.96017    
      5280  -4101.0594      30.725376     -4070.334       293.82183      51.334851      49.396983      20             1334.2462    
      5290  -4100.6108      30.509396     -4070.1014      291.75644      51.334851      49.396983      20             1686.1488    
      5300  -4101.0905      31.334124     -4069.7564      299.64318      51.334851      49.396983      20             1814.3384    
      5310  -4102.0137      32.545166     -4069.4685      311.22418      51.334851      49.396983      20             1780.3106    
      5320  -4102.7817      32.839782     -4069.9419      314.04155      51.334851      49.396983      20             1616.5604    
      5330  -4102.3922      32.537497     -4069.8547      311.15084      51.334851      49.396983      20             1491.3939    
      5340  -4101.7656      31.699498     -4070.0661      303.1372       51.334851      49.396983      20             1187.5401    
      5350  -4101.6225      31.345068     -4070.2775      299.74783      51.334851      49.396983      20             791.02691    
      5360  -4101.7741      31.552631     -4070.2215      301.73272      51.334851      49.396983      20             525.33444    
      5370  -4101.9415      32.045639     -4069.8958      306.44728      51.334851      49.396983      20             408.85229    
      5380  -4101.4089      31.431171     -4069.9777      300.57122      51.334851      49.396983      20             378.12635    
      5390  -4101.0144      30.833152     -4070.1812      294.85247      51.334851      49.396983      20             384.09066    
      5400  -4101.2915      31.196658     -4070.0949      298.32861      51.334851      49.396983      20             401.96581    
      5410  -4101.9075      31.492584     -4070.4149      301.15851      51.334851      49.396983      20             591.2896     
      5420  -4102.5631      31.779431     -4070.7836      303.90158      51.334851      49.396983      20             809.94954    
      5430  -4102.4974      31.378854     -4071.1186      300.07093      51.334851      49.396983      20             1015.4575    
      5440  -4101.7446      30.777887     -4070.9668      294.32397      51.334851      49.396983      20             1189.7951    
      5450  -4101.0649      29.462975     -4071.602       281.74968      51.334851      49.396983      20             1219.5517    
      5460  -4100.8385      30.885744     -4069.9528      295.3554       51.334851      49.396983      20             1126.1866    
      5470  -4100.9561      31.378331     -4069.5778      300.06592      51.334851      49.396983      20             901.94239    
      5480  -4101.038       31.034704     -4070.0033      296.77987      51.334851      49.396983      20             752.1046     
      5490  -4101.1514      30.543125     -4070.6083      292.07898      51.334851      49.396983      20             657.01828    
      5500  -4101.538       31.310684     -4070.2273      299.41902      51.334851      49.396983      20             556.01583    
      5510  -4101.9934      32.530775     -4069.4626      311.08656      51.334851      49.396983      20             565.41447    
      5520  -4102.0034      31.508665     -4070.4948      301.31228      51.334851      49.396983      20             614.22703    
      5530  -4101.4905      30.932347     -4070.5582      295.80105      51.334851      49.396983      20             830.2528     
      5540  -4101.5172      30.56163      -4070.9556      292.25594      51.334851      49.396983      20             1020.3481    
      5550  -4102.0391      30.818544     -4071.2205      294.71278      51.334851      49.396983      20             1102.4303    
      5560  -4102.0921      32.06491      -4070.0272      306.63157      51.334851      49.396983      20             1119.5476    
      5570  -4101.2723      30.744526     -4070.5278      294.00495      51.334851      49.396983      20             1007.8884    
      5580  -4100.4522      30.183152     -4070.2691      288.63662      51.334851      49.396983      20             840.05742    
      5590  -4100.3978      30.734303     -4069.6635      293.90718      51.334851      49.396983      20             584.07973    
      5600  -4100.9871      31.148387     -4069.8388      297.86701      51.334851      49.396983      20             361.24457    
      5610  -4101.3765      31.834681     -4069.5418      304.42993      51.334851      49.396983      20             229.03454    
      5620  -4101.4909      31.630493     -4069.8604      302.47731      51.334851      49.396983      20             226.07503    
      5630  -4101.7882      31.727091     -4070.0611      303.40106      51.334851      49.396983      20             417.00254    
      5640  -4102.1295      32.160232     -4069.9693      307.54312      51.334851      49.396983      20             616.25137    
      5650  -4101.8278      30.953924     -4070.8739      296.00739      51.334851      49.396983      20             721.47311    
      5660  -4101.602       31.04232      -4070.5597      296.8527       51.334851      49.396983      20             889.81008    
      5670  -4101.712       30.15497      -4071.557       288.36712      51.334851      49.396983      20             1051.1256    
      5680  -4101.5642      30.854231     -4070.71        295.05404      51.334851      49.396983      20             1177.5064    
      5690  -4101.1405      30.439074     -4070.7014      291.08397      51.334851      49.396983      20             1171.1799    
      5700  -4101.0293      30.153088     -4070.8762      288.34912      51.334851      49.396983      20             1045.9417    
      5710  -4101.6364      30.851866     -4070.7846      295.03143      51.334851      49.396983      20             942.03007    
      5720  -4102.233       32.72656      -4069.5065      312.95882      51.334851      49.396983      20             947.41034    
      5730  -4101.9205      32.125801     -4069.7947      307.21386      51.334851      49.396983      20             968.872      
      5740  -4100.8422      30.303668     -4070.5385      289.7891       51.334851      49.396983      20             978.20971    
      5750  -4100.1215      29.477132     -4070.6444      281.88506      51.334851      49.396983      20             1029.046     
      5760  -4100.4436      30.485461     -4069.9581      291.52755      51.334851      49.396983      20             1089.6311    
      5770  -4101.4858      31.879177     -4069.6066      304.85543      51.334851      49.396983      20             1153.1856    
      5780  -4102.6693      32.393926     -4070.2754      309.7779       51.334851      49.396983      20             1181.9871    
      5790  -4102.9981      33.142228     -4069.8559      316.93379      51.334851      49.396983      20             1163.1589    
      5800  -4102.3618      31.75278      -4070.609       303.64672      51.334851      49.396983      20             1117.0615    
      5810  -4101.5921      30.634574     -4070.9575      292.9535       51.334851      49.396983      20             1120.5252    
      5820  -4101.3443      30.890275     -4070.454       295.39872      51.334851      49.396983      20             1079.0803    
      5830  -4101.5022      30.848359     -4070.6539      294.99789      51.334851      49.396983      20             951.47882    
      5840  -4101.794       31.293172     -4070.5008      299.25156      51.334851      49.396983      20             868.04107    
      5850  -4101.5646      31.192783     -4070.3718      298.29156      51.334851      49.396983      20             804.23672    
      5860  -4101.1836      30.715252     -4070.4683      293.72501      51.334851      49.396983      20             738.1304     
      5870  -4101.1926      30.159929     -4071.0327      288.41454      51.334851      49.396983      20             645.42016    
      5880  -4101.4114      30.16305      -4071.2483      288.44439      51.334851      49.396983      20             640.64687    
      5890  -4101.635       30.371572     -4071.2634      290.43845      51.334851      49.396983      20             677.26213    
      5900  -4101.9731      30.979773     -4070.9934      296.25458      51.334851      49.396983      20             631.3214     
      5910  -4102.3044      31.647577     -4070.6568      302.64068      51.334851      49.396983      20             651.06181    
      5920  -4102.5167      32.276212     -4070.2405      308.65222      51.334851      49.396983      20             753.32263    
[...]
     48600  -4101.0619      32.108624     -4068.9533      307.0496       51.334851      49.396983      20            -11.5532      
     48610  -4101.6772      32.862318     -4068.8149      314.25705      51.334851      49.396983      20            -58.976097    
     48620  -4101.3927      31.627973     -4069.7647      302.45321      51.334851      49.396983      20             84.610917    
     48630  -4100.6945      30.824191     -4069.8703      294.76677      51.334851      49.396983      20             316.50648    
     48640  -4100.4947      30.855361     -4069.6394      295.06485      51.334851      49.396983      20             448.41609    
     48650  -4101.2499      31.829076     -4069.4208      304.37633      51.334851      49.396983      20             486.12246    
     48660  -4102.1898      32.577583     -4069.6122      311.53418      51.334851      49.396983      20             492.29311    
     48670  -4102.425       32.099022     -4070.326       306.95777      51.334851      49.396983      20             479.21978    
     48680  -4101.6746      30.808002     -4070.8666      294.61196      51.334851      49.396983      20             495.56109    
     48690  -4101.1521      30.350006     -4070.8021      290.23222      51.334851      49.396983      20             615.38094    
     48700  -4101.3034      31.363615     -4069.9398      299.92519      51.334851      49.396983      20             722.53885    
     48710  -4101.6172      31.523429     -4070.0938      301.45348      51.334851      49.396983      20             694.46773    
     48720  -4101.6113      31.233547     -4070.3777      298.68138      51.334851      49.396983      20             572.33645    
     48730  -4101.8129      31.343424     -4070.4695      299.73211      51.334851      49.396983      20             430.80578    
     48740  -4101.833       31.111997     -4070.721       297.51901      51.334851      49.396983      20             276.50445    
     48750  -4101.7382      30.970453     -4070.7677      296.16546      51.334851      49.396983      20             83.976332    
     48760  -4101.5587      31.374202     -4070.1845      300.02644      51.334851      49.396983      20            -129.13403    
     48770  -4101.0669      31.080729     -4069.9862      297.22         51.334851      49.396983      20            -324.36983    
     48780  -4100.8652      31.767706     -4069.0975      303.78945      51.334851      49.396983      20            -362.88669    
     48790  -4100.7069      32.00299      -4068.7039      306.03943      51.334851      49.396983      20            -153.84352    
     48800  -4100.4403      31.535114     -4068.9052      301.56521      51.334851      49.396983      20             72.652723    
     48810  -4100.4236      32.221597     -4068.2021      308.12994      51.334851      49.396983      20             340.33435    
     48820  -4100.4581      32.144927     -4068.3132      307.39676      51.334851      49.396983      20             565.36587    
     48830  -4100.1901      31.973147     -4068.217       305.75405      51.334851      49.396983      20             674.04205    
     48840  -4100.2363      31.94618      -4068.2902      305.49617      51.334851      49.396983      20             734.58492    
     48850  -4100.4971      31.511675     -4068.9854      301.34107      51.334851      49.396983      20             703.70134    
     48860  -4101.3781      32.473415     -4068.9046      310.53804      51.334851      49.396983      20             590.01903    
     48870  -4101.7517      32.485262     -4069.2664      310.65133      51.334851      49.396983      20             350.46443    
     48880  -4101.5967      31.923923     -4069.6728      305.28333      51.334851      49.396983      20             114.44994    
     48890  -4101.0998      31.351104     -4069.7487      299.80555      51.334851      49.396983      20            -90.179705    
     48900  -4101.0561      31.685001     -4069.3711      302.99856      51.334851      49.396983      20            -285.59224    
     48910  -4101.2085      31.904151     -4069.3044      305.09425      51.334851      49.396983      20            -371.93558    
     48920  -4101.1507      31.16523      -4069.9854      298.02807      51.334851      49.396983      20            -393.49157    
     48930  -4101.2307      31.540165     -4069.6905      301.61352      51.334851      49.396983      20            -271.0789     
     48940  -4101.1458      30.638446     -4070.5073      292.99052      51.334851      49.396983      20            -46.504724    
     48950  -4100.9588      31.657525     -4069.3013      302.73582      51.334851      49.396983      20             258.79233    
     48960  -4100.5822      30.987614     -4069.5946      296.32956      51.334851      49.396983      20             390.53698    
     48970  -4100.5081      31.2484       -4069.2597      298.82341      51.334851      49.396983      20             545.08276    
     48980  -4100.3994      30.690272     -4069.7091      293.48613      51.334851      49.396983      20             745.64566    
     48990  -4100.127       30.229483     -4069.8975      289.07968      51.334851      49.396983      20             891.45337    
     49000  -4100.307       30.69777      -4069.6092      293.55783      51.334851      49.396983      20             957.71454    
     49010  -4100.6687      30.996578     -4069.6721      296.41528      51.334851      49.396983      20             896.25264    
     49020  -4100.9923      31.458587     -4069.5338      300.8334       51.334851      49.396983      20             686.90417    
     49030  -4101.2585      31.778671     -4069.4798      303.89431      51.334851      49.396983      20             477.90124    
     49040  -4101.3474      32.769356     -4068.5781      313.36807      51.334851      49.396983      20             325.25949    
     49050  -4101.032       32.415716     -4068.6163      309.98627      51.334851      49.396983      20             283.16382    
     49060  -4100.4944      32.208007     -4068.2864      307.99998      51.334851      49.396983      20             278.44733    
     49070  -4100.4676      31.734972     -4068.7326      303.47642      51.334851      49.396983      20             275.94952    
     49080  -4100.7843      31.752317     -4069.032       303.6423       51.334851      49.396983      20             270.12819    
     49090  -4101.0307      32.058893     -4068.9718      306.57403      51.334851      49.396983      20             328.64328    
     49100  -4100.8928      31.442871     -4069.4499      300.68311      51.334851      49.396983      20             402.3614     
     49110  -4100.7828      31.90493      -4068.8779      305.1017       51.334851      49.396983      20             499.65334    
     49120  -4100.2527      31.866735     -4068.386       304.73645      51.334851      49.396983      20             704.29583    
     49130  -4100.0868      31.746999     -4068.3398      303.59144      51.334851      49.396983      20             844.32906    
     49140  -4100.487       32.740191     -4067.7468      313.08917      51.334851      49.396983      20             881.57742    
     49150  -4100.6685      32.642498     -4068.026       312.15495      51.334851      49.396983      20             725.65427    
     49160  -4100.6683      32.746291     -4067.922       313.1475       51.334851      49.396983      20             536.54654    
     49170  -4100.948       33.315977     -4067.6321      318.59532      51.334851      49.396983      20             383.73809    
     49180  -4101.2243      33.077887     -4068.1464      316.3185       51.334851      49.396983      20             223.32709    
     49190  -4101.4969      33.32429      -4068.1726      318.67482      51.334851      49.396983      20             129.6906     
     49200  -4101.4528      33.385668     -4068.0671      319.26176      51.334851      49.396983      20             39.576181    
     49210  -4101.1119      33.659259     -4067.4526      321.87807      51.334851      49.396983      20             95.796921    
     49220  -4100.6041      32.642687     -4067.9614      312.15676      51.334851      49.396983      20             238.9606     
     49230  -4100.3664      31.811254     -4068.5551      304.20589      51.334851      49.396983      20             561.05553    
     49240  -4100.4825      31.836552     -4068.6459      304.44781      51.334851      49.396983      20             843.79382    
     49250  -4100.7273      32.730983     -4067.9963      313.00111      51.334851      49.396983      20             879.88198    
     49260  -4100.7951      32.007575     -4068.7876      306.08328      51.334851      49.396983      20             737.30095    
     49270  -4100.796       32.271067     -4068.5249      308.60302      51.334851      49.396983      20             545.61388    
     49280  -4100.7139      31.967247     -4068.7467      305.69764      51.334851      49.396983      20             315.98403    
     49290  -4101.277       32.252799     -4069.0242      308.42832      51.334851      49.396983      20            -0.073893385  
     49300  -4101.9253      33.202854     -4068.7224      317.51354      51.334851      49.396983      20            -169.49449    
     49310  -4101.9162      32.780792     -4069.1354      313.47743      51.334851      49.396983      20            -213.15462    
     49320  -4101.3094      31.255176     -4070.0542      298.88821      51.334851      49.396983      20            -91.345474    
     49330  -4100.4184      30.502377     -4069.916       291.68932      51.334851      49.396983      20             58.744173    
     49340  -4100.1042      29.6568       -4070.4474      283.6032       51.334851      49.396983      20             282.78766    
     49350  -4100.8068      30.571609     -4070.2352      292.35138      51.334851      49.396983      20             544.97276    
     49360  -4101.7041      30.767772     -4070.9364      294.22725      51.334851      49.396983      20             777.31119    
     49370  -4102.1045      30.883945     -4071.2206      295.33819      51.334851      49.396983      20             957.65768    
     49380  -4102.3054      29.976318     -4072.3291      286.6587       51.334851      49.396983      20             948.92144    
     49390  -4102.6404      30.84751      -4071.7929      294.98977      51.334851      49.396983      20             925.1741     
     49400  -4102.6254      31.089542     -4071.5358      297.30428      51.334851      49.396983      20             841.79043    
     49410  -4102.4267      30.092701     -4072.334       287.77165      51.334851      49.396983      20             720.26471    
     49420  -4102.3589      31.02093      -4071.338       296.64816      51.334851      49.396983      20             644.64291    
     49430  -4101.9425      30.071672     -4071.8708      287.57055      51.334851      49.396983      20             491.6764     
     49440  -4101.7677      30.473184     -4071.2945      291.41014      51.334851      49.396983      20             244.17549    
     49450  -4102.0154      30.535536     -4071.4799      292.00641      51.334851      49.396983      20             46.656428    
     49460  -4102.3304      31.777025     -4070.5534      303.87857      51.334851      49.396983      20             3.6660242    
     49470  -4102.0168      32.523251     -4069.4935      311.01461      51.334851      49.396983      20             14.209194    
     49480  -4100.9255      31.910484     -4069.015       305.15482      51.334851      49.396983      20             115.51615    
     49490  -4099.6252      31.190333     -4068.4348      298.26813      51.334851      49.396983      20             333.89347    
     49500  -4099.5728      31.422963     -4068.1498      300.49273      51.334851      49.396983      20             545.4876     
     49510  -4100.3226      32.794011     -4067.5286      313.60385      51.334851      49.396983      20             685.24475    
     49520  -4100.9706      32.758165     -4068.2124      313.26105      51.334851      49.396983      20             877.04497    
     49530  -4101.1022      33.53283      -4067.5694      320.66905      51.334851      49.396983      20             1035.8456    
     49540  -4100.7702      32.229794     -4068.5404      308.20833      51.334851      49.396983      20             1018.0639    
     49550  -4101.041       32.834008     -4068.207       313.98633      51.334851      49.396983      20             823.5175     
     49560  -4101.3077      33.219966     -4068.0878      317.67718      51.334851      49.396983      20             538.62642    
     49570  -4101.1949      33.295397     -4067.8995      318.39852      51.334851      49.396983      20             301.76565    
     49580  -4100.3959      32.124592     -4068.2714      307.2023       51.334851      49.396983      20             153.80979    
     49590  -4099.7434      31.206603     -4068.5368      298.42371      51.334851      49.396983      20             126.18247    
     49600  -4099.9284      31.142754     -4068.7856      297.81314      51.334851      49.396983      20             187.46607    
     49610  -4100.8624      32.343828     -4068.5185      309.29882      51.334851      49.396983      20             207.441      
     49620  -4101.4164      33.002013     -4068.4144      315.59293      51.334851      49.396983      20             213.8957     
     49630  -4100.7616      32.956541     -4067.8051      315.15809      51.334851      49.396983      20             266.73373    
     49640  -4099.8723      31.929646     -4067.9427      305.33807      51.334851      49.396983      20             308.93654    
     49650  -4099.8691      32.043612     -4067.8255      306.4279       51.334851      49.396983      20             426.89371    
     49660  -4100.4392      32.953364     -4067.4858      315.12771      51.334851      49.396983      20             562.47651    
     49670  -4100.4944      32.807254     -4067.6872      313.73048      51.334851      49.396983      20             729.21368    
     49680  -4100.1428      32.182094     -4067.9607      307.75218      51.334851      49.396983      20             833.46636    
     49690  -4099.7694      32.00426      -4067.7652      306.05158      51.334851      49.396983      20             828.47427    
     49700  -4099.3755      31.25822      -4068.1173      298.91733      51.334851      49.396983      20             758.57201    
     49710  -4099.2348      30.927249     -4068.3075      295.7523       51.334851      49.396983      20             647.2524     
     49720  -4099.5702      32.371073     -4067.1992      309.55935      51.334851      49.396983      20             586.48057    
     49730  -4099.6686      33.222239     -4066.4464      317.69892      51.334851      49.396983      20             628.23885    
     49740  -4099.2941      32.309352     -4066.9848      308.96913      51.334851      49.396983      20             719.14547    
     49750  -4099.2253      32.497099     -4066.7282      310.76452      51.334851      49.396983      20             810.40982    
     49760  -4100.0804      33.649383     -4066.4311      321.78363      51.334851      49.396983      20             690.77793    
     49770  -4100.4983      34.318654     -4066.1796      328.18376      51.334851      49.396983      20             549.83443    
     49780  -4100.0771      33.303722     -4066.7734      318.47813      51.334851      49.396983      20             425.40112    
     49790  -4099.1235      31.661532     -4067.462       302.77413      51.334851      49.396983      20             304.11366    
     49800  -4099.1051      32.028367     -4067.0767      306.28211      51.334851      49.396983      20             259.4124     
     49810  -4099.8175      32.431612     -4067.3859      310.13828      51.334851      49.396983      20             180.46472    
     49820  -4100.8917      34.718149     -4066.1735      332.00406      51.334851      49.396983      20             231.08916    
     49830  -4101.1328      33.699949     -4067.4328      322.26718      51.334851      49.396983      20             452.67867    
     49840  -4100.7338      33.42524      -4067.3085      319.64018      51.334851      49.396983      20             761.47981    
     49850  -4100.135       32.210919     -4067.9241      308.02783      51.334851      49.396983      20             895.70939    
     49860  -4100.0312      31.893452     -4068.1377      304.99195      51.334851      49.396983      20             877.06148    
     49870  -4100.4338      31.346091     -4069.0877      299.75761      51.334851      49.396983      20             716.17113    
     49880  -4100.8981      31.76991      -4069.1282      303.81053      51.334851      49.396983      20             566.18663    
     49890  -4101.0015      31.943971     -4069.0575      305.47505      51.334851      49.396983      20             416.14001    
     49900  -4100.7371      32.900093     -4067.837       314.61829      51.334851      49.396983      20             259.79255    
     49910  -4100.489       31.806629     -4068.6824      304.16167      51.334851      49.396983      20             76.127012    
     49920  -4100.8063      32.866444     -4067.9398      314.29651      51.334851      49.396983      20            -63.590993    
     49930  -4100.5866      32.725003     -4067.8616      312.94393      51.334851      49.396983      20            -125.78382    
     49940  -4100.1636      31.947795     -4068.2158      305.51161      51.334851      49.396983      20            -10.789791    
     49950  -4100.5989      31.914846     -4068.6841      305.19653      51.334851      49.396983      20             123.71272    
     49960  -4101.5356      33.096494     -4068.4391      316.49644      51.334851      49.396983      20             188.49618    
     49970  -4101.6825      32.356099     -4069.3264      309.41616      51.334851      49.396983      20             389.77672    
     49980  -4101.1689      31.152812     -4070.016       297.90932      51.334851      49.396983      20             632.95557    
     49990  -4100.5807      31.352423     -4069.2283      299.81817      51.334851      49.396983      20             912.93622    
     50000  -4100.4094      31.06328      -4069.3462      297.05314      51.334851      49.396983      20             1092.2379    
Loop time of 331.331 on 1 procs for 50000 steps with 810 atoms

Performance: 13.038 ns/day, 1.841 hours/ns, 150.906 timesteps/s, 122.234 katom-step/s
99.7% CPU use with 1 MPI tasks x no OpenMP threads

MPI task timing breakdown:
Section |  min time  |  avg time  |  max time  |%varavg| %total
---------------------------------------------------------------
Pair    | 329.71     | 329.71     | 329.71     |   0.0 | 99.51
Neigh   | 0.0063679  | 0.0063679  | 0.0063679  |   0.0 |  0.00
Comm    | 0.065723   | 0.065723   | 0.065723   |   0.0 |  0.02
Output  | 0.58422    | 0.58422    | 0.58422    |   0.0 |  0.18
Modify  | 0.92229    | 0.92229    | 0.92229    |   0.0 |  0.28
Other   |            | 0.03767    |            |       |  0.01

Nlocal:            810 ave         810 max         810 min
Histogram: 1 0 0 0 0 0 0 0 0 0
Nghost:            502 ave         502 max         502 min
Histogram: 1 0 0 0 0 0 0 0 0 0
Neighs:              0 ave           0 max           0 min
Histogram: 1 0 0 0 0 0 0 0 0 0
FullNghs:        32550 ave       32550 max       32550 min
Histogram: 1 0 0 0 0 0 0 0 0 0

Total # of neighbors = 32550
Ave neighs/atom = 40.185185
Neighbor list builds = 9
Dangerous builds = 0

write_data      MoSe2_nve.data
System init for write_data ...
Total wall time: 0:05:31
