ITEM: TIMESTEP
310000
ITEM: NUMBER OF ATOMS
810
ITEM: BOX BOUNDS pp pp pp
6.5508438421510995e-03 5.3011054156158316e+01
8.0582000660415243e-01 5.0210394993394715e+01
-1.0000000000000000e+01 1.0000000000000000e+01
ITEM: ATOMS id type x y z xu yu zu
1 1 0.253613 0.988186 -0.341079 0.253613 0.988186 -0.341079
2 2 2.18155 50.3034 1.25196 2.18155 0.898874 1.25196
3 2 2.16537 1.20941 -1.88733 2.16537 1.20941 -1.88733
4 1 3.19666 2.66967 -0.162013 3.19666 2.66967 -0.162013
5 2 5.2198 2.47339 1.44129 5.2198 2.47339 1.44129
6 2 5.15069 2.62048 -1.77716 5.15069 2.62048 -1.77716
7 1 6.09207 0.918397 -0.324782 6.09207 0.918397 -0.324782
8 2 8.14121 0.727289 1.32232 8.14121 0.727289 1.32232
9 2 7.98153 1.02333 -1.97771 7.98153 1.02333 -1.97771
10 1 9.0091 2.60109 -0.197266 9.0091 2.60109 -0.197266
11 2 11.0269 2.59139 1.39024 11.0269 2.59139 1.39024
12 2 10.9299 2.71707 -1.79642 10.9299 2.71707 -1.79642
13 1 12.01 1.03732 -0.234207 12.01 1.03732 -0.234207
14 2 14.0365 1.17132 1.3201 14.0365 1.17132 1.3201
15 2 13.9094 0.939703 -1.84737 13.9094 0.939703 -1.84737
16 1 15.0401 2.59677 -0.389241 15.0401 2.59677 -0.389241
17 2 16.8813 2.62631 1.23704 16.8813 2.62631 1.23704
18 2 17.0105 2.48881 -2.0446 17.0105 2.48881 -2.0446
19 1 17.8642 0.865049 -0.321608 17.8642 0.865049 -0.321608
20 2 20.0638 0.770718 1.08044 20.0638 0.770718 1.08044
21 2 19.6867 1.01293 -2.18171 19.6867 1.01293 -2.18171
22 1 20.7501 2.58837 -0.444307 20.7501 2.58837 -0.444307
23 2 22.8835 2.52597 1.12662 22.8835 2.52597 1.12662
24 2 22.6734 2.68123 -2.08252 22.6734 2.68123 -2.08252
25 1 23.7555 0.974829 -0.497851 23.7555 0.974829 -0.497851
26 2 25.5597 0.929288 1.24529 25.5597 0.929288 1.24529
27 2 25.8121 1.06714 -2.02712 25.8121 1.06714 -2.02712
28 1 26.684 2.58449 -0.309783 26.684 2.58449 -0.309783
29 2 28.5949 2.59629 1.31182 28.5949 2.59629 1.31182
30 2 28.6688 2.77254 -1.86285 28.6688 2.77254 -1.86285
31 1 29.7081 1.00633 -0.285274 29.7081 1.00633 -0.285274
32 2 31.9291 0.881456 1.22545 31.9291 0.881456 1.22545
33 2 31.4803 1.08289 -2.00727 31.4803 1.08289 -2.00727
34 1 32.5473 2.63695 -0.296106 32.5473 2.63695 -0.296106
35 2 34.6327 2.63342 1.20287 34.6327 2.63342 1.20287
36 2 34.5464 2.73651 -2.01622 34.5464 2.73651 -2.01622
37 1 35.5946 1.0269 -0.397052 35.5946 1.0269 -0.397052
38 2 37.5438 1.05918 1.15747 37.5438 1.05918 1.15747
39 2 37.5935 0.964583 -2.07318 37.5935 0.964583 -2.07318
40 1 38.4894 2.69918 -0.495667 38.4894 2.69918 -0.495667
41 2 40.4269 2.65798 1.11872 40.4269 2.65798 1.11872
42 2 40.2686 2.72226 -2.14237 40.2686 2.72226 -2.14237
43 1 41.3592 1.00752 -0.570912 41.3592 1.00752 -0.570912
44 2 43.1307 0.947906 1.16753 43.1307 0.947906 1.16753
45 2 43.4436 1.14202 -2.05566 43.4436 1.14202 -2.05566
46 1 44.315 2.70206 -0.38435 44.315 2.70206 -0.38435
47 2 46.3683 2.70635 1.25076 46.3683 2.70635 1.25076
48 2 46.309 2.62876 -2.02193 46.309 2.62876 -2.02193
49 1 47.3592 0.977373 -0.352073 47.3592 0.977373 -0.352073
50 2 49.2946 0.966961 1.16653 49.2946 0.966961 1.16653
51 2 49.2979 0.943346 -2.04451 49.2979 0.943346 -2.04451
52 1 50.3398 2.63272 -0.436561 50.3398 2.63272 -0.436561
53 2 52.3253 2.59964 1.26317 52.3253 2.59964 1.26317
54 2 52.4395 2.67298 -1.94291 52.4395 2.67298 -1.94291
55 1 0.282763 4.3025 -0.199793 0.282763 4.3025 -0.199793
56 2 2.01093 4.15375 1.53684 2.01093 4.15375 1.53684
57 2 2.33455 4.49329 -1.74965 2.33455 4.49329 -1.74965
58 1 3.28077 6.00624 0.134603 3.28077 6.00624 0.134603
59 2 5.36688 5.82591 1.70017 5.36688 5.82591 1.70017
60 2 5.07289 6.03302 -1.60647 5.07289 6.03302 -1.60647
61 1 6.19362 4.27127 -0.122122 6.19362 4.27127 -0.122122
62 2 8.01106 4.07922 1.5093 8.01106 4.07922 1.5093
63 2 8.16413 4.37171 -1.76628 8.16413 4.37171 -1.76628
64 1 9.09809 5.85972 0.0101336 9.09809 5.85972 0.0101336
65 2 11.0684 5.81723 1.5122 11.0684 5.81723 1.5122
66 2 10.9223 6.03218 -1.8072 10.9223 6.03218 -1.8072
67 1 11.9947 4.30189 -0.202751 11.9947 4.30189 -0.202751
68 2 14.0194 4.13923 1.32645 14.0194 4.13923 1.32645
69 2 13.9105 4.15694 -1.99306 13.9105 4.15694 -1.99306
70 1 14.9554 5.97974 -0.393562 14.9554 5.97974 -0.393562
71 2 16.9395 5.92886 1.26546 16.9395 5.92886 1.26546
72 2 16.9806 6.0794 -1.93539 16.9806 6.0794 -1.93539
73 1 17.8278 4.2781 -0.426303 17.8278 4.2781 -0.426303
74 2 19.6863 4.26571 1.1907 19.6863 4.26571 1.1907
75 2 19.9088 4.47404 -2.02645 19.9088 4.47404 -2.02645
76 1 20.8653 5.97711 -0.275908 20.8653 5.97711 -0.275908
77 2 22.6689 5.80858 1.31947 22.6689 5.80858 1.31947
78 2 22.7933 6.09694 -1.88408 22.7933 6.09694 -1.88408
79 1 23.701 4.23336 -0.478589 23.701 4.23336 -0.478589
80 2 25.4278 4.23487 1.26756 25.4278 4.23487 1.26756
81 2 25.7822 4.34529 -1.94433 25.7822 4.34529 -1.94433
82 1 26.6618 5.89675 -0.197767 26.6618 5.89675 -0.197767
83 2 28.5731 5.92139 1.42649 28.5731 5.92139 1.42649
84 2 28.6252 5.98078 -1.86685 28.6252 5.98078 -1.86685
85 1 29.5452 4.26994 -0.142195 29.5452 4.26994 -0.142195
86 2 31.518 4.2835 1.41345 31.518 4.2835 1.41345
87 2 31.4435 4.23243 -1.9279 31.4435 4.23243 -1.9279
88 1 32.5216 5.99725 -0.3054 32.5216 5.99725 -0.3054
89 2 34.417 6.06894 1.32103 34.417 6.06894 1.32103
90 2 34.554 6.18203 -1.92053 34.554 6.18203 -1.92053
91 1 35.4968 4.39462 -0.397988 35.4968 4.39462 -0.397988
92 2 37.4187 4.29571 1.18207 37.4187 4.29571 1.18207
93 2 37.3255 4.4275 -2.03943 37.3255 4.4275 -2.03943
94 1 38.4022 6.0196 -0.335229 38.4022 6.0196 -0.335229
95 2 40.5021 6.19302 1.04543 40.5021 6.19302 1.04543
96 2 40.1003 5.92561 -2.07753 40.1003 5.92561 -2.07753
97 1 41.3484 4.31849 -0.496265 41.3484 4.31849 -0.496265
98 2 43.2351 4.52139 1.03262 43.2351 4.52139 1.03262
99 2 43.281 4.15981 -2.13636 43.281 4.15981 -2.13636
100 1 44.3867 5.97746 -0.723973 44.3867 5.97746 -0.723973
101 2 46.2112 5.92503 1.03645 46.2112 5.92503 1.03645
102 2 46.5788 5.80878 -2.22484 46.5788 5.80878 -2.22484
103 1 47.4885 4.25933 -0.451446 47.4885 4.25933 -0.451446
104 2 49.336 4.2802 1.20691 49.336 4.2802 1.20691
105 2 49.4148 4.37301 -2.05113 49.4148 4.37301 -2.05113
106 1 50.3137 5.99505 -0.32841 50.3137 5.99505 -0.32841
107 2 52.178 5.80667 1.51764 52.178 5.80667 1.51764
108 2 52.4214 5.95443 -1.74194 52.4214 5.95443 -1.74194
109 1 0.206223 7.57592 0.0705448 0.206223 7.57592 0.0705448
110 2 2.26846 7.58186 1.61703 2.26846 7.58186 1.61703
111 2 2.15097 7.52037 -1.53068 2.15097 7.52037 -1.53068
112 1 3.20769 9.22613 0.0112447 3.20769 9.22613 0.0112447
113 2 5.11378 9.10148 1.73819 5.11378 9.10148 1.73819
114 2 5.3452 9.25757 -1.38441 5.3452 9.25757 -1.38441
115 1 6.16323 7.52397 0.131165 6.16323 7.52397 0.131165
116 2 8.30776 7.52131 1.64368 8.30776 7.52131 1.64368
117 2 8.12026 7.48028 -1.57649 8.12026 7.48028 -1.57649
118 1 9.07601 9.22371 -0.0507997 9.07601 9.22371 -0.0507997
119 2 11.0896 9.11601 1.59696 11.0896 9.11601 1.59696
120 2 11.0224 9.50909 -1.60145 11.0224 9.50909 -1.60145
121 1 12.015 7.65662 -0.1113 12.015 7.65662 -0.1113
122 2 14.0848 7.42266 1.46482 14.0848 7.42266 1.46482
123 2 14.0015 7.82828 -1.75753 14.0015 7.82828 -1.75753
124 1 14.9377 9.34071 -0.0536527 14.9377 9.34071 -0.0536527
125 2 16.9022 9.2208 1.49425 16.9022 9.2208 1.49425
126 2 16.7903 9.30675 -1.74531 16.7903 9.30675 -1.74531
127 1 17.8798 7.63853 -0.230729 17.8798 7.63853 -0.230729
128 2 19.7765 7.45356 1.414 19.7765 7.45356 1.414
129 2 19.8571 7.76364 -1.77589 19.8571 7.76364 -1.77589
130 1 20.8035 9.31682 0.00296483 20.8035 9.31682 0.00296483
131 2 22.6639 9.19262 1.63681 22.6639 9.19262 1.63681
132 2 22.7838 9.28175 -1.61629 22.7838 9.28175 -1.61629
133 1 23.6522 7.59196 -0.053498 23.6522 7.59196 -0.053498
134 2 25.6726 7.53874 1.52901 25.6726 7.53874 1.52901
135 2 25.6063 7.55332 -1.70505 25.6063 7.55332 -1.70505
136 1 26.801 9.19322 -0.125969 26.801 9.19322 -0.125969
137 2 28.6553 9.15514 1.5239 28.6553 9.15514 1.5239
138 2 28.6753 9.58478 -1.72879 28.6753 9.58478 -1.72879
139 1 29.6209 7.59431 -0.244503 29.6209 7.59431 -0.244503
140 2 31.508 7.40051 1.48168 31.508 7.40051 1.48168
141 2 31.6404 7.72199 -1.80295 31.6404 7.72199 -1.80295
142 1 32.5466 9.25089 0.0209898 32.5466 9.25089 0.0209898
143 2 34.6555 9.36732 1.51847 34.6555 9.36732 1.51847
144 2 34.4544 9.43977 -1.72792 34.4544 9.43977 -1.72792
145 1 35.4829 7.73583 -0.279896 35.4829 7.73583 -0.279896
146 2 37.2974 7.66086 1.31858 37.2974 7.66086 1.31858
147 2 37.3808 7.69738 -1.88837 37.3808 7.69738 -1.88837
148 1 38.3986 9.3184 -0.161934 38.3986 9.3184 -0.161934
149 2 40.5085 9.12064 1.30887 40.5085 9.12064 1.30887
150 2 40.2392 9.58781 -1.8959 40.2392 9.58781 -1.8959
151 1 41.2664 7.72448 -0.670076 41.2664 7.72448 -0.670076
152 2 43.3857 7.65885 0.882692 43.3857 7.65885 0.882692
153 2 43.3253 7.75981 -2.34243 43.3253 7.75981 -2.34243
154 1 44.421 9.2946 -0.619782 44.421 9.2946 -0.619782
155 2 46.2187 9.05414 1.24448 46.2187 9.05414 1.24448
156 2 46.7014 9.44431 -1.99574 46.7014 9.44431 -1.99574
157 1 47.4146 7.56893 -0.52672 47.4146 7.56893 -0.52672
158 2 49.2219 7.73033 1.25842 49.2219 7.73033 1.25842
159 2 49.3319 7.5319 -2.01825 49.3319 7.5319 -2.01825
160 1 50.2703 9.25766 -0.359368 50.2703 9.25766 -0.359368
161 2 52.1471 9.26404 1.55842 52.1471 9.26404 1.55842
162 2 52.493 9.17865 -1.62468 52.493 9.17865 -1.62468
163 1 0.240191 10.8461 0.0489333 0.240191 10.8461 0.0489333
164 2 2.00628 10.8115 1.81768 2.00628 10.8115 1.81768
165 2 2.2967 11.1124 -1.49321 2.2967 11.1124 -1.49321
166 1 3.19667 12.5213 0.338156 3.19667 12.5213 0.338156
167 2 5.10766 12.4452 2.02216 5.10766 12.4452 2.02216
168 2 5.27172 12.6921 -1.33633 5.27172 12.6921 -1.33633
169 1 6.167 10.8259 0.367258 6.167 10.8259 0.367258
170 2 8.25039 10.7252 1.85377 8.25039 10.7252 1.85377
171 2 7.91611 11.1163 -1.39779 7.91611 11.1163 -1.39779
172 1 9.06998 12.5203 0.31898 9.06998 12.5203 0.31898
173 2 11.048 12.3749 2.00775 11.048 12.3749 2.00775
174 2 10.8968 12.675 -1.32055 10.8968 12.675 -1.32055
175 1 11.9923 10.9263 0.150063 11.9923 10.9263 0.150063
176 2 14.0822 10.9699 1.63023 14.0822 10.9699 1.63023
177 2 13.8762 10.9746 -1.56395 13.8762 10.9746 -1.56395
178 1 14.9982 12.6085 0.0509823 14.9982 12.6085 0.0509823
179 2 16.8333 12.3004 1.70874 16.8333 12.3004 1.70874
180 2 16.9126 12.8703 -1.49355 16.9126 12.8703 -1.49355
181 1 17.8737 10.912 -0.160318 17.8737 10.912 -0.160318
182 2 19.7525 11.0277 1.57299 19.7525 11.0277 1.57299
183 2 19.9442 10.9466 -1.66748 19.9442 10.9466 -1.66748
184 1 20.8526 12.6407 0.0379882 20.8526 12.6407 0.0379882
185 2 22.7339 12.6278 1.72834 22.7339 12.6278 1.72834
186 2 22.889 12.7216 -1.58553 22.889 12.7216 -1.58553
187 1 23.8052 10.8765 0.00929074 23.8052 10.8765 0.00929074
188 2 25.7541 10.8462 1.66087 25.7541 10.8462 1.66087
189 2 25.7532 10.9637 -1.61827 25.7532 10.9637 -1.61827
190 1 26.6894 12.5643 0.10874 26.6894 12.5643 0.10874
191 2 28.6786 12.3879 1.76286 28.6786 12.3879 1.76286
192 2 28.7467 12.6877 -1.43424 28.7467 12.6877 -1.43424
193 1 29.7074 10.9581 0.0785932 29.7074 10.9581 0.0785932
194 2 31.5696 10.8073 1.75697 31.5696 10.8073 1.75697
195 2 31.6468 10.9941 -1.51268 31.6468 10.9941 -1.51268
196 1 32.5384 12.581 0.236288 32.5384 12.581 0.236288
197 2 34.5691 12.4303 1.79034 34.5691 12.4303 1.79034
198 2 34.478 12.7919 -1.50524 34.478 12.7919 -1.50524
199 1 35.5702 11.0543 -0.167789 35.5702 11.0543 -0.167789
200 2 37.3988 10.8009 1.59925 37.3988 10.8009 1.59925
201 2 37.606 11.1313 -1.72186 37.606 11.1313 -1.72186
202 1 38.5098 12.4819 0.130943 38.5098 12.4819 0.130943
203 2 40.4041 12.413 1.73819 40.4041 12.413 1.73819
204 2 40.4668 12.6708 -1.60486 40.4668 12.6708 -1.60486
205 1 41.49 10.9878 -0.178089 41.49 10.9878 -0.178089
206 2 43.5105 10.5498 1.33768 43.5105 10.5498 1.33768
207 2 43.4428 11.3762 -1.86191 43.4428 11.3762 -1.86191
208 1 44.4836 12.5885 0.123805 44.4836 12.5885 0.123805
209 2 46.472 12.6156 1.62136 46.472 12.6156 1.62136
210 2 46.267 12.5159 -1.62325 46.267 12.5159 -1.62325
211 1 47.4302 10.9237 -0.0949538 47.4302 10.9237 -0.0949538
212 2 49.3887 10.6511 1.54596 49.3887 10.6511 1.54596
213 2 49.31 11.1636 -1.65954 49.31 11.1636 -1.65954
214 1 50.3861 12.5418 0.184593 50.3861 12.5418 0.184593
215 2 52.2322 12.3933 1.84235 52.2322 12.3933 1.84235
216 2 52.4325 12.8307 -1.28592 52.4325 12.8307 -1.28592
217 1 0.249239 14.21 0.63364 0.249239 14.21 0.63364
218 2 2.27612 14.0103 2.20979 2.27612 14.0103 2.20979
219 2 2.12688 14.3718 -1.09978 2.12688 14.3718 -1.09978
220 1 3.18377 15.9328 0.639072 3.18377 15.9328 0.639072
221 2 5.26515 15.9101 2.09191 5.26515 15.9101 2.09191
222 2 4.91056 15.7314 -1.18913 4.91056 15.7314 -1.18913
223 1 6.07169 14.2233 0.478878 6.07169 14.2233 0.478878
224 2 8.12358 14.0189 2.05947 8.12358 14.0189 2.05947
225 2 8.00981 14.1997 -1.19447 8.00981 14.1997 -1.19447
226 1 9.07477 15.6821 0.559567 9.07477 15.6821 0.559567
227 2 11.1042 15.802 2.03546 11.1042 15.802 2.03546
228 2 11.0848 15.8334 -1.06568 11.0848 15.8334 -1.06568
229 1 12.1243 14.1187 0.437035 12.1243 14.1187 0.437035
230 2 14.2888 14.2209 1.84777 14.2888 14.2209 1.84777
231 2 13.7917 14.3475 -1.36299 13.7917 14.3475 -1.36299
232 1 15.0002 15.9593 0.158843 15.0002 15.9593 0.158843
233 2 16.8149 15.9288 2.03743 16.8149 15.9288 2.03743
234 2 16.9613 15.8166 -1.37318 16.9613 15.8166 -1.37318
235 1 17.8226 14.2347 0.432372 17.8226 14.2347 0.432372
236 2 20.0209 14.2774 1.78798 20.0209 14.2774 1.78798
237 2 19.6342 14.1912 -1.43821 19.6342 14.1912 -1.43821
238 1 20.7289 15.8984 0.107346 20.7289 15.8984 0.107346
239 2 22.6306 15.8343 1.82706 22.6306 15.8343 1.82706
240 2 22.7949 15.9597 -1.44472 22.7949 15.9597 -1.44472
241 1 23.7764 14.2299 0.157172 23.7764 14.2299 0.157172
242 2 25.7123 14.0843 1.76731 25.7123 14.0843 1.76731
243 2 25.7055 14.322 -1.37271 25.7055 14.322 -1.37271
244 1 26.6731 15.8639 0.367283 26.6731 15.8639 0.367283
245 2 28.8299 15.8212 1.85102 28.8299 15.8212 1.85102
246 2 28.6254 15.9156 -1.38835 28.6254 15.9156 -1.38835
247 1 29.6306 14.202 0.242638 29.6306 14.202 0.242638
248 2 31.4543 14.1275 1.96665 31.4543 14.1275 1.96665
249 2 31.5929 14.2027 -1.33651 31.5929 14.2027 -1.33651
250 1 32.609 15.836 0.36413 32.609 15.836 0.36413
251 2 34.534 15.798 2.04874 34.534 15.798 2.04874
252 2 34.6126 15.7962 -1.25418 34.6126 15.7962 -1.25418
253 1 35.4699 14.1817 0.336833 35.4699 14.1817 0.336833
254 2 37.4536 14.0073 1.90598 37.4536 14.0073 1.90598
255 2 37.4904 14.4273 -1.33074 37.4904 14.4273 -1.33074
256 1 38.6107 15.8831 0.534607 38.6107 15.8831 0.534607
257 2 40.7157 15.7401 1.98409 40.7157 15.7401 1.98409
258 2 40.5199 15.9987 -1.32923 40.5199 15.9987 -1.32923
259 1 41.4861 14.2406 0.122283 41.4861 14.2406 0.122283
260 2 43.3659 14.2583 1.79262 43.3659 14.2583 1.79262
261 2 43.5787 14.4112 -1.50273 43.5787 14.4112 -1.50273
262 1 44.3731 15.9908 0.326872 44.3731 15.9908 0.326872
263 2 46.3878 15.6474 1.93151 46.3878 15.6474 1.93151
264 2 46.3768 16.2064 -1.15361 46.3768 16.2064 -1.15361
265 1 47.4056 14.2195 0.0327975 47.4056 14.2195 0.0327975
266 2 49.2261 14.077 1.74419 49.2261 14.077 1.74419
267 2 49.4444 14.3551 -1.47351 49.4444 14.3551 -1.47351
268 1 50.3727 15.9147 0.466896 50.3727 15.9147 0.466896
269 2 52.3173 15.8063 2.18557 52.3173 15.8063 2.18557
270 2 52.3916 15.7877 -1.11225 52.3916 15.7877 -1.11225
271 1 0.291617 17.4735 0.480598 0.291617 17.4735 0.480598
272 2 2.30318 17.5657 2.1995 2.30318 17.5657 2.1995
273 2 2.11688 17.313 -1.12153 2.11688 17.313 -1.12153
274 1 3.14858 19.0937 0.35996 3.14858 19.0937 0.35996
275 2 5.27306 19.1535 1.9288 5.27306 19.1535 1.9288
276 2 5.05394 18.9888 -1.37515 5.05394 18.9888 -1.37515
277 1 6.2457 17.4094 0.292172 6.2457 17.4094 0.292172
278 2 8.1812 17.5383 2.02432 8.1812 17.5383 2.02432
279 2 8.30668 17.2748 -1.14966 8.30668 17.2748 -1.14966
280 1 9.19595 19.1938 0.35134 9.19595 19.1938 0.35134
281 2 11.1365 19.3185 2.00494 11.1365 19.3185 2.00494
282 2 11.2034 19.0578 -1.19955 11.2034 19.0578 -1.19955
283 1 12.0321 17.4733 0.496593 12.0321 17.4733 0.496593
284 2 14.1085 17.4239 1.9604 14.1085 17.4239 1.9604
285 2 13.8009 17.5983 -1.35653 13.8009 17.5983 -1.35653
286 1 14.8918 19.2822 0.310753 14.8918 19.2822 0.310753
287 2 16.8891 19.3178 1.89507 16.8891 19.3178 1.89507
288 2 16.819 19.0206 -1.43838 16.819 19.0206 -1.43838
289 1 17.7856 17.4821 0.394607 17.7856 17.4821 0.394607
290 2 19.8502 17.3663 1.91905 19.8502 17.3663 1.91905
291 2 19.6179 17.5737 -1.32479 19.6179 17.5737 -1.32479
292 1 20.7609 19.23 0.308226 20.7609 19.23 0.308226
293 2 22.7306 19.3687 1.95157 22.7306 19.3687 1.95157
294 2 22.571 19.0909 -1.39938 22.571 19.0909 -1.39938
295 1 23.6735 17.5704 0.266072 23.6735 17.5704 0.266072
296 2 25.7579 17.5988 1.81526 25.7579 17.5988 1.81526
297 2 25.6644 17.3811 -1.44824 25.6644 17.3811 -1.44824
298 1 26.7501 19.1681 0.0927515 26.7501 19.1681 0.0927515
299 2 28.6792 19.3111 1.74483 28.6792 19.3111 1.74483
300 2 28.6677 19.1867 -1.49576 28.6677 19.1867 -1.49576
301 1 29.7154 17.5773 0.183086 29.7154 17.5773 0.183086
302 2 31.6143 17.5543 1.96556 31.6143 17.5543 1.96556
303 2 31.7793 17.425 -1.34862 31.7793 17.425 -1.34862
304 1 32.7394 19.2369 0.2461 32.7394 19.2369 0.2461
305 2 34.5095 19.0715 1.94022 34.5095 19.0715 1.94022
306 2 34.7501 19.2727 -1.29111 34.7501 19.2727 -1.29111
307 1 35.5492 17.4384 0.297185 35.5492 17.4384 0.297185
308 2 37.3901 17.4018 2.20518 37.3901 17.4018 2.20518
309 2 37.6358 17.5761 -1.10111 37.6358 17.5761 -1.10111
310 1 38.4987 19.1967 0.734697 38.4987 19.1967 0.734697
311 2 40.6506 19.2271 2.12811 40.6506 19.2271 2.12811
312 2 40.345 19.155 -1.15519 40.345 19.155 -1.15519
313 1 41.4601 17.5269 0.407957 41.4601 17.5269 0.407957
314 2 43.5636 17.5436 1.9729 43.5636 17.5436 1.9729
315 2 43.4033 17.6056 -1.22426 43.4033 17.6056 -1.22426
316 1 44.5756 19.2063 0.329923 44.5756 19.2063 0.329923
317 2 46.3405 19.1633 2.00938 46.3405 19.1633 2.00938
318 2 46.5969 19.2016 -1.16949 46.5969 19.2016 -1.16949
319 1 47.3606 17.5439 0.579413 47.3606 17.5439 0.579413
320 2 49.264 17.5407 2.14158 49.264 17.5407 2.14158
321 2 49.2978 17.5916 -1.13483 49.2978 17.5916 -1.13483
322 1 50.339 19.1393 0.571144 50.339 19.1393 0.571144
323 2 52.4279 18.9786 2.13414 52.4279 18.9786 2.13414
324 2 52.1662 18.9868 -1.06587 52.1662 18.9868 -1.06587
325 1 0.178572 20.7243 0.471672 0.178572 20.7243 0.471672
326 2 2.11137 20.5985 2.08029 2.11137 20.5985 2.08029
327 2 2.19659 20.9286 -1.07254 2.19659 20.9286 -1.07254
328 1 3.22668 22.4338 0.672054 3.22668 22.4338 0.672054
329 2 5.36422 22.2671 2.06695 5.36422 22.2671 2.06695
330 2 5.04777 22.5096 -1.18514 5.04777 22.5096 -1.18514
331 1 6.24197 20.7286 0.203091 6.24197 20.7286 0.203091
332 2 8.02411 20.7358 1.94467 8.02411 20.7358 1.94467
333 2 8.27938 20.9314 -1.338 8.27938 20.9314 -1.338
334 1 9.02991 22.3935 0.406952 9.02991 22.3935 0.406952
335 2 11.0937 22.5765 1.85655 11.0937 22.5765 1.85655
336 2 10.9331 22.2118 -1.29649 10.9331 22.2118 -1.29649
337 1 12.1073 20.8638 0.349185 12.1073 20.8638 0.349185
338 2 14.1825 21.0717 1.78441 14.1825 21.0717 1.78441
339 2 13.9279 20.6542 -1.43411 13.9279 20.6542 -1.43411
340 1 15.0693 22.5172 0.0109622 15.0693 22.5172 0.0109622
341 2 16.9084 22.6501 1.61239 16.9084 22.6501 1.61239
342 2 16.9869 22.4469 -1.68123 16.9869 22.4469 -1.68123
343 1 17.8084 20.8519 0.0853986 17.8084 20.8519 0.0853986
344 2 19.7534 21.0818 1.67301 19.7534 21.0818 1.67301
345 2 19.7349 20.8228 -1.48442 19.7349 20.8228 -1.48442
346 1 20.8539 22.5478 -0.0474718 20.8539 22.5478 -0.0474718
347 2 22.7797 22.5065 1.62753 22.7797 22.5065 1.62753
348 2 22.958 22.4284 -1.72542 22.958 22.4284 -1.72542
349 1 23.8544 20.8431 0.151027 23.8544 20.8431 0.151027
350 2 25.9368 20.8107 1.62749 25.9368 20.8107 1.62749
351 2 25.703 20.6949 -1.54267 25.703 20.6949 -1.54267
352 1 26.7833 22.4337 -0.180721 26.7833 22.4337 -0.180721
353 2 28.8258 22.4844 1.57624 28.8258 22.4844 1.57624
354 2 28.9208 22.15 -1.75926 28.9208 22.15 -1.75926
355 1 29.8215 20.7965 0.120271 29.8215 20.7965 0.120271
356 2 31.5577 20.8459 1.92867 31.5577 20.8459 1.92867
357 2 31.7889 20.8668 -1.42258 31.7889 20.8668 -1.42258
358 1 32.6835 22.4988 0.356379 32.6835 22.4988 0.356379
359 2 34.6442 22.6559 2.03532 34.6442 22.6559 2.03532
360 2 34.6894 22.2327 -1.2675 34.6894 22.2327 -1.2675
361 1 35.6299 20.8424 0.515699 35.6299 20.8424 0.515699
362 2 37.4992 21.0051 2.18351 37.4992 21.0051 2.18351
363 2 37.6125 20.744 -1.04141 37.6125 20.744 -1.04141
364 1 38.5986 22.4078 0.502046 38.5986 22.4078 0.502046
365 2 40.6637 22.4955 2.08028 40.6637 22.4955 2.08028
366 2 40.4483 22.4702 -1.13463 40.4483 22.4702 -1.13463
367 1 41.4896 20.8493 0.433781 41.4896 20.8493 0.433781
368 2 43.5449 20.824 2.01139 43.5449 20.824 2.01139
369 2 43.5602 20.9106 -1.1697 43.5602 20.9106 -1.1697
370 1 44.4576 22.5419 0.535692 44.4576 22.5419 0.535692
371 2 46.4449 22.6994 2.07075 46.4449 22.6994 2.07075
372 2 46.2422 22.4537 -1.22879 46.2422 22.4537 -1.22879
373 1 47.3809 20.8885 0.503623 47.3809 20.8885 0.503623
374 2 49.5521 20.9186 2.1615 49.5521 20.9186 2.1615
375 2 49.3221 20.8151 -1.16189 49.3221 20.8151 -1.16189
376 1 50.3554 22.4626 0.379004 50.3554 22.4626 0.379004
377 2 52.1863 22.4949 2.03938 52.1863 22.4949 2.03938
378 2 52.2983 22.3651 -1.21281 52.2983 22.3651 -1.21281
379 1 0.247364 24.07 0.517851 0.247364 24.07 0.517851
380 2 2.23686 24.2206 2.12384 2.23686 24.2206 2.12384
381 2 2.22752 23.8691 -1.13858 2.22752 23.8691 -1.13858
382 1 3.15867 25.7186 0.414556 3.15867 25.7186 0.414556
383 2 5.27062 26.0368 1.79417 5.27062 26.0368 1.79417
384 2 4.91571 25.5593 -1.39359 4.91571 25.5593 -1.39359
385 1 6.10533 24.0809 0.442229 6.10533 24.0809 0.442229
386 2 8.10897 24.2131 1.9789 8.10897 24.2131 1.9789
387 2 7.99445 23.7871 -1.29775 7.99445 23.7871 -1.29775
388 1 8.93004 25.7465 0.00608241 8.93004 25.7465 0.00608241
389 2 10.9403 25.9134 1.52401 10.9403 25.9134 1.52401
390 2 10.9442 25.4085 -1.70089 10.9442 25.4085 -1.70089
391 1 11.9589 24.082 0.0834441 11.9589 24.082 0.0834441
392 2 14.1188 24.1291 1.67331 14.1188 24.1291 1.67331
393 2 13.872 24.0241 -1.62658 13.872 24.0241 -1.62658
394 1 14.9005 25.7888 0.0138794 14.9005 25.7888 0.0138794
395 2 16.8784 25.9986 1.53645 16.8784 25.9986 1.53645
396 2 16.7235 25.6905 -1.74223 16.7235 25.6905 -1.74223
397 1 17.8861 24.1938 -0.142561 17.8861 24.1938 -0.142561
398 2 19.8051 24.2469 1.46928 19.8051 24.2469 1.46928
399 2 19.896 24.063 -1.78712 19.896 24.063 -1.78712
400 1 20.8471 25.8365 -0.324434 20.8471 25.8365 -0.324434
401 2 22.7429 26.0654 1.3432 22.7429 26.0654 1.3432
402 2 22.8496 25.6607 -1.9001 22.8496 25.6607 -1.9001
403 1 23.8058 24.0899 -0.0675906 23.8058 24.0899 -0.0675906
404 2 25.8114 24.1569 1.38664 25.8114 24.1569 1.38664
405 2 25.7936 23.9222 -1.79162 25.7936 23.9222 -1.79162
406 1 26.7506 25.7533 -0.367092 26.7506 25.7533 -0.367092
407 2 28.6019 25.7601 1.30153 28.6019 25.7601 1.30153
408 2 28.7825 25.7876 -2.05969 28.7825 25.7876 -2.05969
409 1 29.7528 24.0979 -0.30013 29.7528 24.0979 -0.30013
410 2 31.346 24.2177 1.74818 31.346 24.2177 1.74818
411 2 31.9003 24.1141 -1.45337 31.9003 24.1141 -1.45337
412 1 32.6401 25.7638 0.255326 32.6401 25.7638 0.255326
413 2 34.7135 25.9135 1.77336 34.7135 25.9135 1.77336
414 2 34.5241 25.7532 -1.5695 34.5241 25.7532 -1.5695
415 1 35.5113 24.1363 0.119573 35.5113 24.1363 0.119573
416 2 37.3604 24.3334 1.78362 37.3604 24.3334 1.78362
417 2 37.4373 23.8117 -1.40392 37.4373 23.8117 -1.40392
418 1 38.4826 25.7206 -0.0722614 38.4826 25.7206 -0.0722614
419 2 40.2939 26.0021 1.67598 40.2939 26.0021 1.67598
420 2 40.5435 25.7472 -1.54164 40.5435 25.7472 -1.54164
421 1 41.4492 24.272 0.372326 41.4492 24.272 0.372326
422 2 43.3907 24.2872 2.05165 43.3907 24.2872 2.05165
423 2 43.4576 24.213 -1.21441 43.4576 24.213 -1.21441
424 1 44.4042 25.9145 0.375215 44.4042 25.9145 0.375215
425 2 46.4631 25.9518 1.95948 46.4631 25.9518 1.95948
426 2 46.3298 25.7019 -1.28183 46.3298 25.7019 -1.28183
427 1 47.3704 24.1664 0.358332 47.3704 24.1664 0.358332
428 2 49.3802 24.2174 2.00042 49.3802 24.2174 2.00042
429 2 49.2775 24.1198 -1.33305 49.2775 24.1198 -1.33305
430 1 50.2672 25.805 0.356297 50.2672 25.805 0.356297
431 2 52.1294 25.6557 2.01403 52.1294 25.6557 2.01403
432 2 52.3159 25.6878 -1.19977 52.3159 25.6878 -1.19977
433 1 0.20682 27.3576 0.472763 0.20682 27.3576 0.472763
434 2 2.1488 27.3247 2.05086 2.1488 27.3247 2.05086
435 2 2.04049 27.1771 -1.20981 2.04049 27.1771 -1.20981
436 1 3.03538 28.9536 0.295732 3.03538 28.9536 0.295732
437 2 5.23097 28.9867 1.55938 5.23097 28.9867 1.55938
438 2 4.71023 28.9798 -1.55769 4.71023 28.9798 -1.55769
439 1 6.01334 27.3319 -0.132 6.01334 27.3319 -0.132
440 2 7.96296 27.535 1.54615 7.96296 27.535 1.54615
441 2 7.90686 27.2508 -1.77918 7.90686 27.2508 -1.77918
442 1 8.97937 29.0251 -0.296907 8.97937 29.0251 -0.296907
443 2 11.0498 29.1526 1.16571 11.0498 29.1526 1.16571
444 2 10.9342 28.9254 -1.95035 10.9342 28.9254 -1.95035
445 1 11.907 27.4304 -0.290775 11.907 27.4304 -0.290775
446 2 13.8715 27.5381 1.4268 13.8715 27.5381 1.4268
447 2 13.974 27.2702 -1.77333 13.974 27.2702 -1.77333
448 1 14.7566 29.0772 -0.40611 14.7566 29.0772 -0.40611
449 2 16.8887 29.3233 1.06002 16.8887 29.3233 1.06002
450 2 16.7359 28.8536 -2.05343 16.7359 28.8536 -2.05343
451 1 17.8069 27.459 -0.326073 17.8069 27.459 -0.326073
452 2 19.7362 27.3921 1.29298 19.7362 27.3921 1.29298
453 2 19.7213 27.5562 -1.90656 19.7213 27.5562 -1.90656
454 1 20.7263 29.0774 -0.229455 20.7263 29.0774 -0.229455
455 2 22.8142 29.0694 1.24861 22.8142 29.0694 1.24861
456 2 22.5498 28.9891 -1.99591 22.5498 28.9891 -1.99591
457 1 23.7688 27.3833 -0.367649 23.7688 27.3833 -0.367649
458 2 25.8153 27.4148 1.20153 25.8153 27.4148 1.20153
459 2 25.6784 27.2061 -2.08266 25.6784 27.2061 -2.08266
460 1 26.7804 28.9976 -0.573521 26.7804 28.9976 -0.573521
461 2 28.5568 29.2136 1.23972 28.5568 29.2136 1.23972
462 2 28.966 28.87 -2.13632 28.966 28.87 -2.13632
463 1 29.7822 27.3871 -0.288662 29.7822 27.3871 -0.288662
464 2 31.4289 27.5245 1.56004 31.4289 27.5245 1.56004
465 2 31.8695 27.2119 -1.6311 31.8695 27.2119 -1.6311
466 1 32.6422 29.0334 -0.0499153 32.6422 29.0334 -0.0499153
467 2 34.6814 29.1463 1.52445 34.6814 29.1463 1.52445
468 2 34.6325 28.9975 -1.74453 34.6325 28.9975 -1.74453
469 1 35.6346 27.4073 -0.0656084 35.6346 27.4073 -0.0656084
470 2 37.4633 27.2175 1.63543 37.4633 27.2175 1.63543
471 2 37.6382 27.5082 -1.62035 37.6382 27.5082 -1.62035
472 1 38.4585 29.068 0.0750863 38.4585 29.068 0.0750863
473 2 40.4896 29.1549 1.54885 40.4896 29.1549 1.54885
474 2 40.3345 28.9434 -1.56529 40.3345 28.9434 -1.56529
475 1 41.5209 27.4281 0.00515271 41.5209 27.4281 0.00515271
476 2 43.2852 27.7541 1.68497 43.2852 27.7541 1.68497
477 2 43.483 27.2847 -1.48171 43.483 27.2847 -1.48171
478 1 44.3535 29.0842 -0.0492721 44.3535 29.0842 -0.0492721
479 2 46.1889 28.997 1.73385 46.1889 28.997 1.73385
480 2 46.3596 29.0694 -1.62778 46.3596 29.0694 -1.62778
481 1 47.3421 27.5045 0.225438 47.3421 27.5045 0.225438
482 2 49.225 27.3074 1.96533 49.225 27.3074 1.96533
483 2 49.2966 27.4518 -1.28508 49.2966 27.4518 -1.28508
484 1 50.2839 28.9826 0.437965 50.2839 28.9826 0.437965
485 2 52.0906 29.1761 2.1225 52.0906 29.1761 2.1225
486 2 52.2104 28.965 -1.24141 52.2104 28.965 -1.24141
487 1 0.207533 30.6233 0.29884 0.207533 30.6233 0.29884
488 2 2.24043 30.8244 1.73545 2.24043 30.8244 1.73545
489 2 1.99228 30.3269 -1.47042 1.99228 30.3269 -1.47042
490 1 3.11617 32.1832 -0.0915368 3.11617 32.1832 -0.0915368
491 2 5.12845 32.2601 1.46283 5.12845 32.2601 1.46283
492 2 4.84997 32.1744 -1.83609 4.84997 32.1744 -1.83609
493 1 6.04839 30.6616 -0.141022 6.04839 30.6616 -0.141022
494 2 8.0369 30.7999 1.3324 8.0369 30.7999 1.3324
495 2 7.6831 30.5284 -1.8399 7.6831 30.5284 -1.8399
496 1 8.91008 32.4079 -0.468161 8.91008 32.4079 -0.468161
497 2 10.8652 32.5232 1.08103 10.8652 32.5232 1.08103
498 2 10.6834 32.3825 -2.15112 10.6834 32.3825 -2.15112
499 1 11.8192 30.7895 -0.540651 11.8192 30.7895 -0.540651
500 2 13.7587 30.8233 1.13462 13.7587 30.8233 1.13462
501 2 13.9279 30.6368 -2.10182 13.9279 30.6368 -2.10182
502 1 14.8049 32.3194 -0.550365 14.8049 32.3194 -0.550365
503 2 16.8757 32.5306 0.987835 16.8757 32.5306 0.987835
504 2 16.7181 32.2712 -2.2205 16.7181 32.2712 -2.2205
505 1 17.8737 30.7324 -0.690236 17.8737 30.7324 -0.690236
506 2 19.5547 30.8169 1.20351 19.5547 30.8169 1.20351
507 2 19.9579 30.5987 -2.07182 19.9579 30.5987 -2.07182
508 1 20.7633 32.2338 -0.446196 20.7633 32.2338 -0.446196
509 2 22.7027 32.2953 1.23078 22.7027 32.2953 1.23078
510 2 22.7473 32.2361 -2.05086 22.7473 32.2361 -2.05086
511 1 23.8158 30.6585 -0.364619 23.8158 30.6585 -0.364619
512 2 25.8137 30.6007 1.14648 25.8137 30.6007 1.14648
513 2 25.7386 30.699 -2.10059 25.7386 30.699 -2.10059
514 1 26.7441 32.3146 -0.548014 26.7441 32.3146 -0.548014
515 2 28.6131 32.3562 1.09684 28.6131 32.3562 1.09684
516 2 28.6222 32.2297 -2.1323 28.6222 32.2297 -2.1323
517 1 29.7473 30.7006 -0.485055 29.7473 30.7006 -0.485055
518 2 31.45 30.7324 1.46182 31.45 30.7324 1.46182
519 2 31.8738 30.6584 -1.82274 31.8738 30.6584 -1.82274
520 1 32.6087 32.3031 -0.00112984 32.6087 32.3031 -0.00112984
521 2 34.6426 32.4233 1.44026 34.6426 32.4233 1.44026
522 2 34.5155 32.3209 -1.77377 34.5155 32.3209 -1.77377
523 1 35.5693 30.7287 -0.139893 35.5693 30.7287 -0.139893
524 2 37.442 30.9146 1.51143 37.442 30.9146 1.51143
525 2 37.5449 30.5494 -1.689 37.5449 30.5494 -1.689
526 1 38.5657 32.3007 -0.253806 38.5657 32.3007 -0.253806
527 2 40.5351 32.3229 1.35006 40.5351 32.3229 1.35006
528 2 40.4231 32.2754 -1.88178 40.4231 32.2754 -1.88178
529 1 41.4687 30.7199 -0.238645 41.4687 30.7199 -0.238645
530 2 43.3095 30.8266 1.5344 43.3095 30.8266 1.5344
531 2 43.6019 30.748 -1.7585 43.6019 30.748 -1.7585
532 1 44.3998 32.3421 -0.11242 44.3998 32.3421 -0.11242
533 2 46.2867 32.3362 1.64142 46.2867 32.3362 1.64142
534 2 46.5197 32.2121 -1.5572 46.5197 32.2121 -1.5572
535 1 47.3897 30.661 0.166944 47.3897 30.661 0.166944
536 2 49.2222 30.6464 1.98179 49.2222 30.6464 1.98179
537 2 49.3995 30.6376 -1.33132 49.3995 30.6376 -1.33132
538 1 50.228 32.273 0.288538 50.228 32.273 0.288538
539 2 52.264 32.4181 1.90357 52.264 32.4181 1.90357
540 2 52.2869 32.2958 -1.31073 52.2869 32.2958 -1.31073