ITEM: TIMESTEP
2000000
ITEM: NUMBER OF ATOMS
810
ITEM: BOX BOUNDS pp pp pp
-4.3376591754504927e+00 5.7355264175450955e+01
8.0582000660415243e-01 5.0210394993394715e+01
-1.0000000000000000e+01 1.0000000000000000e+01
ITEM: ATOMS id type x y z xu yu zu
1 1 -2.06537 0.968436 -2.3351 -2.06537 0.968436 -2.3351
2 2 -0.338092 0.844451 -0.490286 -0.338092 0.844451 -0.490286
3 2 0.0915576 1.16102 -3.70476 0.0915576 1.16102 -3.70476
4 1 0.832505 2.68235 -1.85518 0.832505 2.68235 -1.85518
5 2 2.3417 2.80156 0.165573 2.3417 2.80156 0.165573
6 2 2.97472 2.7737 -3.10118 2.97472 2.7737 -3.10118
7 1 3.55523 1.14691 -1.19866 3.55523 1.14691 -1.19866
8 2 5.04312 0.968902 0.756519 5.04312 0.968902 0.756519
9 2 5.72235 1.19828 -2.36871 5.72235 1.19828 -2.36871
10 1 6.39046 2.72566 -0.45647 6.39046 2.72566 -0.45647
11 2 7.93182 2.86545 1.50479 7.93182 2.86545 1.50479
12 2 8.58981 2.65451 -1.69268 8.58981 2.65451 -1.69268
13 1 9.17421 1.01485 0.191473 9.17421 1.01485 0.191473
14 2 10.6747 0.966895 2.17738 10.6747 0.966895 2.17738
15 2 11.2896 1.078 -1.03784 11.2896 1.078 -1.03784
16 1 11.8472 2.6711 0.920225 11.8472 2.6711 0.920225
17 2 13.2983 2.5647 2.94854 13.2983 2.5647 2.94854
18 2 14.1319 2.73163 -0.259072 14.1319 2.73163 -0.259072
19 1 14.661 1.09764 1.4609 14.661 1.09764 1.4609
20 2 15.9821 50.3883 3.58811 15.9821 0.98374 3.58811
21 2 16.9079 1.13239 0.468406 16.9079 1.13239 0.468406
22 1 17.4765 2.70278 2.33605 17.4765 2.70278 2.33605
23 2 18.7148 2.5718 4.5056 18.7148 2.5718 4.5056
24 2 19.8042 2.79018 1.41586 19.8042 2.79018 1.41586
25 1 20.1106 0.975979 3.1585 20.1106 0.975979 3.1585
26 2 21.2861 0.924576 5.28817 21.2861 0.924576 5.28817
27 2 22.4356 0.89676 2.28752 22.4356 0.89676 2.28752
28 1 22.7796 2.61577 4.1423 22.7796 2.61577 4.1423
29 2 24.2552 2.47356 6.13825 24.2552 2.47356 6.13825
30 2 25.0389 2.94796 3.11432 25.0389 2.94796 3.11432
31 1 25.6258 0.98122 4.59428 25.6258 0.98122 4.59428
32 2 26.6165 1.26963 6.85075 26.6165 1.26963 6.85075
33 2 28.2321 50.1704 4.11438 28.2321 0.765822 4.11438
34 1 28.4003 2.60336 5.73498 28.4003 2.60336 5.73498
35 2 30.1114 47.4903 5.39418 30.1114 -1.91427 5.39418
36 2 29.8238 1.07572 6.93159 29.8238 1.07572 6.93159
37 1 43.0135 4.22922 -6.17833 43.0135 4.22922 -6.17833
38 2 44.2964 0.964411 -4.05132 44.2964 0.964411 -4.05132
39 2 45.4182 0.955889 -7.09316 45.4182 0.955889 -7.09316
40 1 45.7667 2.56096 -5.24036 45.7667 2.56096 -5.24036
41 2 47.0268 2.20523 -3.158 47.0268 2.20523 -3.158
42 2 47.9274 2.89826 -6.26584 47.9274 2.89826 -6.26584
43 1 48.4629 0.913877 -4.7117 48.4629 0.913877 -4.7117
44 2 49.9675 0.532221 -2.74273 49.9675 0.532221 -2.74273
45 2 50.6924 1.16948 -5.89541 50.6924 1.16948 -5.89541
46 1 51.1239 2.53925 -3.7479 51.1239 2.53925 -3.7479
47 2 52.8231 2.44447 -1.8546 52.8231 2.44447 -1.8546
48 2 53.1327 2.75946 -5.19176 53.1327 2.75946 -5.19176
49 1 54.0032 0.97997 -3.64951 54.0032 0.97997 -3.64951
50 2 55.4969 0.972122 -1.65745 55.4969 0.972122 -1.65745
51 2 56.1809 0.996167 -4.84515 56.1809 0.996167 -4.84515
52 1 56.7998 2.62955 -2.88886 56.7998 2.62955 -2.88886
53 2 -3.40129 2.62889 -0.850697 58.2916 2.62889 -0.850697
54 2 -2.75018 2.66095 -4.05765 58.9427 2.66095 -4.05765
55 1 -2.14491 4.33903 -2.16937 -2.14491 4.33903 -2.16937
56 2 -0.47929 4.26055 -0.245248 -0.47929 4.26055 -0.245248
57 2 0.0334827 4.38945 -3.51206 0.0334827 4.38945 -3.51206
58 1 0.757966 5.94079 -1.56344 0.757966 5.94079 -1.56344
59 2 2.46428 6.02383 0.125031 2.46428 6.02383 0.125031
60 2 2.8165 5.92906 -3.15682 2.8165 5.92906 -3.15682
61 1 3.57343 4.34759 -1.31661 3.57343 4.34759 -1.31661
62 2 4.96851 4.45586 0.746093 4.96851 4.45586 0.746093
63 2 6.01102 4.24474 -2.44546 6.01102 4.24474 -2.44546
64 1 6.46343 5.96483 -0.710694 6.46343 5.96483 -0.710694
65 2 7.88022 6.1016 1.31005 7.88022 6.1016 1.31005
66 2 8.60656 6.04441 -1.83199 8.60656 6.04441 -1.83199
67 1 9.25731 4.35156 -0.0317278 9.25731 4.35156 -0.0317278
68 2 10.5442 4.39302 2.15784 10.5442 4.39302 2.15784
69 2 11.5837 4.2707 -1.04269 11.5837 4.2707 -1.04269
70 1 11.9173 6.04813 0.682775 11.9173 6.04813 0.682775
71 2 13.151 5.98306 2.85214 13.151 5.98306 2.85214
72 2 14.194 5.92164 -0.280476 14.194 5.92164 -0.280476
73 1 14.62 4.34913 1.70955 14.62 4.34913 1.70955
74 2 16.0936 4.40245 3.67042 16.0936 4.40245 3.67042
75 2 16.8583 4.37205 0.563121 16.8583 4.37205 0.563121
76 1 17.4082 5.94523 2.30596 17.4082 5.94523 2.30596
77 2 18.7051 6.05835 4.55948 18.7051 6.05835 4.55948
78 2 19.7717 5.8947 1.42938 19.7717 5.8947 1.42938
79 1 20.0641 4.31387 3.37088 20.0641 4.31387 3.37088
80 2 21.4815 4.27183 5.47959 21.4815 4.27183 5.47959
81 2 22.3799 4.18299 2.25034 22.3799 4.18299 2.25034
82 1 22.7885 5.96222 4.16396 22.7885 5.96222 4.16396
83 2 24.1589 6.14409 6.33056 24.1589 6.14409 6.33056
84 2 25.1106 5.88357 3.10956 25.1106 5.88357 3.10956
85 1 25.6038 4.36202 5.14117 25.6038 4.36202 5.14117
86 2 27.2275 4.40132 7.11846 27.2275 4.40132 7.11846
87 2 27.7274 4.10644 3.86364 27.7274 4.10644 3.86364
88 1 28.4492 5.91172 5.54742 28.4492 5.91172 5.54742
89 2 29.4567 7.40663 7.29079 29.4567 7.40663 7.29079
90 2 30.5691 6.10236 4.18965 30.5691 6.10236 4.18965
91 1 30.7041 49.9267 4.71292 30.7041 0.522105 4.71292
92 2 44.052 3.86175 -3.99373 44.052 3.86175 -3.99373
93 2 42.9994 6.5047 -5.12402 42.9994 6.5047 -5.12402
94 1 45.5331 5.95391 -4.75382 45.5331 5.95391 -4.75382
95 2 47.1122 5.86589 -2.69702 47.1122 5.86589 -2.69702
96 2 47.7988 6.00768 -5.9377 47.7988 6.00768 -5.9377
97 1 48.2977 4.29935 -4.19914 48.2977 4.29935 -4.19914
98 2 49.9314 4.17034 -2.2933 49.9314 4.17034 -2.2933
99 2 50.5514 4.18984 -5.45487 50.5514 4.18984 -5.45487
100 1 51.2315 5.93169 -3.73669 51.2315 5.93169 -3.73669
101 2 52.7861 5.76659 -1.72754 52.7861 5.76659 -1.72754
102 2 53.3976 6.06723 -4.99509 53.3976 6.06723 -4.99509
103 1 53.8935 4.21619 -3.33799 53.8935 4.21619 -3.33799
104 2 55.6129 4.29307 -1.39317 55.6129 4.29307 -1.39317
105 2 56.0047 4.36551 -4.55913 56.0047 4.36551 -4.55913
106 1 56.7995 5.9821 -2.81613 56.7995 5.9821 -2.81613
107 2 -3.38733 5.94964 -0.818592 58.3056 5.94964 -0.818592
108 2 -2.64899 5.91199 -4.00574 59.0439 5.91199 -4.00574
109 1 -2.07929 7.57083 -2.19284 -2.07929 7.57083 -2.19284
110 2 -0.604166 7.69404 -0.221475 -0.604166 7.69404 -0.221475
111 2 -0.00203253 7.47912 -3.4584 -0.00203253 7.47912 -3.4584
112 1 0.744889 9.194 -1.76148 0.744889 9.194 -1.76148
113 2 2.4417 9.07285 0.152358 2.4417 9.07285 0.152358
114 2 2.85716 9.18894 -3.11659 2.85716 9.18894 -3.11659
115 1 3.62295 7.54405 -1.41519 3.62295 7.54405 -1.41519
116 2 5.22594 7.63456 0.596558 5.22594 7.63456 0.596558
117 2 5.88231 7.42101 -2.74599 5.88231 7.42101 -2.74599
118 1 6.50718 9.27004 -0.951961 6.50718 9.27004 -0.951961
119 2 7.9341 9.50735 1.0744 7.9341 9.50735 1.0744
120 2 8.74765 9.1665 -2.15458 8.74765 9.1665 -2.15458
121 1 9.19718 7.7277 -0.0757713 9.19718 7.7277 -0.0757713
122 2 10.6237 7.60096 1.97544 10.6237 7.60096 1.97544
123 2 11.4854 7.6913 -1.13077 11.4854 7.6913 -1.13077
124 1 12.0922 9.23063 0.549612 12.0922 9.23063 0.549612
125 2 13.1882 9.2646 2.74788 13.1882 9.2646 2.74788
126 2 14.3899 9.26205 -0.302027 14.3899 9.26205 -0.302027
127 1 14.6839 7.56114 1.56482 14.6839 7.56114 1.56482
128 2 16.0706 7.58001 3.69171 16.0706 7.58001 3.69171
129 2 17.0432 7.67391 0.531617 17.0432 7.67391 0.531617
130 1 17.4505 9.23432 2.42622 17.4505 9.23432 2.42622
131 2 18.6753 9.18077 4.56453 18.6753 9.18077 4.56453
132 2 19.8299 9.40078 1.52307 19.8299 9.40078 1.52307
133 1 20.1307 7.61948 3.32045 20.1307 7.61948 3.32045
134 2 21.4565 7.6225 5.4792 21.4565 7.6225 5.4792
135 2 22.4034 7.71311 2.39648 22.4034 7.71311 2.39648
136 1 22.8842 9.30626 4.27663 22.8842 9.30626 4.27663
137 2 24.3866 9.37408 6.26284 24.3866 9.37408 6.26284
138 2 25.048 9.28737 3.08464 25.048 9.28737 3.08464
139 1 25.5826 7.64487 4.84402 25.5826 7.64487 4.84402
140 2 26.8483 7.54341 7.00639 26.8483 7.54341 7.00639
141 2 27.8857 7.67673 3.90591 27.8857 7.67673 3.90591
142 1 28.493 9.32218 5.85784 28.493 9.32218 5.85784
143 2 30.637 9.85716 7.22537 30.637 9.85716 7.22537
144 2 30.3189 9.1443 4.20948 30.3189 9.1443 4.20948
145 1 31.3438 7.78101 5.89419 31.3438 7.78101 5.89419
146 2 44.6261 7.4988 -2.99281 44.6261 7.4988 -2.99281
147 2 45.0691 7.7059 -6.58175 45.0691 7.7059 -6.58175
148 1 45.5283 9.24685 -4.65649 45.5283 9.24685 -4.65649
149 2 47.1348 9.33049 -2.6566 47.1348 9.33049 -2.6566
150 2 47.7187 9.25057 -5.91773 47.7187 9.25057 -5.91773
151 1 48.3706 7.61116 -4.02549 48.3706 7.61116 -4.02549
152 2 50.0366 7.52337 -2.16784 50.0366 7.52337 -2.16784
153 2 50.5036 7.69414 -5.36115 50.5036 7.69414 -5.36115
154 1 51.1876 9.26128 -3.58132 51.1876 9.26128 -3.58132
155 2 52.9108 9.42749 -1.74159 52.9108 9.42749 -1.74159
156 2 53.1397 9.09996 -5.01357 53.1397 9.09996 -5.01357
157 1 54.0285 7.57319 -3.23862 54.0285 7.57319 -3.23862
158 2 55.5459 7.43054 -1.29908 55.5459 7.43054 -1.29908
159 2 56.1322 7.62888 -4.49146 56.1322 7.62888 -4.49146
160 1 56.8178 9.23299 -2.71247 56.8178 9.23299 -2.71247
161 2 -3.24422 9.36527 -0.748606 58.4487 9.36527 -0.748606
162 2 -2.7423 9.09273 -4.05615 58.9506 9.09273 -4.05615
163 1 -2.04215 10.8737 -2.35705 -2.04215 10.8737 -2.35705
164 2 -0.468956 10.9239 -0.39357 -0.468956 10.9239 -0.39357
165 2 0.205221 10.8612 -3.56926 0.205221 10.8612 -3.56926
166 1 0.880735 12.5374 -1.90896 0.880735 12.5374 -1.90896
167 2 2.27209 12.3447 0.124266 2.27209 12.3447 0.124266
168 2 3.13762 12.5853 -3.03216 3.13762 12.5853 -3.03216
169 1 3.5828 10.8372 -1.3167 3.5828 10.8372 -1.3167
170 2 5.25688 10.759 0.4345 5.25688 10.759 0.4345
171 2 5.70756 10.9512 -2.68036 5.70756 10.9512 -2.68036
172 1 6.48399 12.497 -0.892897 6.48399 12.497 -0.892897
173 2 8.22738 12.5577 1.0099 8.22738 12.5577 1.0099
174 2 8.59891 12.606 -2.21464 8.59891 12.606 -2.21464
175 1 9.32667 10.9199 -0.461363 9.32667 10.9199 -0.461363
176 2 10.648 10.9695 1.69987 10.648 10.9695 1.69987
177 2 11.5804 10.7295 -1.41012 11.5804 10.7295 -1.41012
178 1 12.0615 12.4726 0.317152 12.0615 12.4726 0.317152
179 2 13.2584 12.6007 2.54198 13.2584 12.6007 2.54198
180 2 14.4972 12.4356 -0.420073 14.4972 12.4356 -0.420073
181 1 14.6887 10.8105 1.56116 14.6887 10.8105 1.56116
182 2 15.9332 10.8299 3.72907 15.9332 10.8299 3.72907
183 2 17.0819 10.9166 0.523383 17.0819 10.9166 0.523383
184 1 17.3833 12.5285 2.49699 17.3833 12.5285 2.49699
185 2 18.7071 12.4568 4.69885 18.7071 12.4568 4.69885
186 2 19.7284 12.7169 1.56763 19.7284 12.7169 1.56763
187 1 20.1587 10.9425 3.46928 20.1587 10.9425 3.46928
188 2 21.603 11.075 5.58156 21.603 11.075 5.58156
189 2 22.379 10.8641 2.34224 22.379 10.8641 2.34224
190 1 22.9744 12.5356 4.09207 22.9744 12.5356 4.09207
191 2 24.4388 12.6563 6.07404 24.4388 12.6563 6.07404
192 2 25.0996 12.4486 2.94345 25.0996 12.4486 2.94345
193 1 25.7126 10.9378 4.81885 25.7126 10.9378 4.81885
194 2 27.0583 11.1033 6.95729 27.0583 11.1033 6.95729
195 2 27.9737 10.8813 3.78118 27.9737 10.8813 3.78118
196 1 28.4305 12.6567 5.39068 28.4305 12.6567 5.39068
197 2 30.4369 12.7574 6.9528 30.4369 12.7574 6.9528
198 2 30.3077 12.7627 3.83609 30.3077 12.7627 3.83609
199 1 31.4813 11.0696 5.29381 31.4813 11.0696 5.29381
200 2 43.7888 10.9397 -3.8747 43.7888 10.9397 -3.8747
201 2 45.2052 11.1258 -6.40922 45.2052 11.1258 -6.40922
202 1 45.56 12.5895 -4.4098 45.56 12.5895 -4.4098
203 2 47.2177 12.3943 -2.55056 47.2177 12.3943 -2.55056
204 2 47.6697 12.6648 -5.8842 47.6697 12.6648 -5.8842
205 1 48.4067 10.913 -4.11539 48.4067 10.913 -4.11539
206 2 49.9034 10.9139 -2.18559 49.9034 10.9139 -2.18559
207 2 50.4961 10.9197 -5.44264 50.4961 10.9197 -5.44264
208 1 51.1338 12.5556 -3.64578 51.1338 12.5556 -3.64578
209 2 52.8453 12.3652 -1.82297 52.8453 12.3652 -1.82297
210 2 53.2757 12.7234 -5.00811 53.2757 12.7234 -5.00811
211 1 54.0282 10.922 -3.41221 54.0282 10.922 -3.41221
212 2 55.3922 10.8602 -1.40575 55.3922 10.8602 -1.40575
213 2 56.3919 10.8942 -4.51976 56.3919 10.8942 -4.51976
214 1 56.8244 12.4684 -2.68051 56.8244 12.4684 -2.68051
215 2 -3.16724 12.3616 -0.720515 58.5257 12.3616 -0.720515
216 2 -2.72641 12.6236 -4.01753 58.9665 12.6236 -4.01753
217 1 -2.00637 14.12 -2.04076 -2.00637 14.12 -2.04076
218 2 -0.318727 13.9251 -0.251079 -0.318727 13.9251 -0.251079
219 2 0.0866806 14.4368 -3.39374 0.0866806 14.4368 -3.39374
220 1 0.756872 15.8472 -1.48049 0.756872 15.8472 -1.48049
221 2 2.54403 15.8988 0.338755 2.54403 15.8988 0.338755
222 2 2.70772 15.657 -2.97556 2.70772 15.657 -2.97556
223 1 3.57927 14.1065 -1.14744 3.57927 14.1065 -1.14744
224 2 5.24524 13.9968 0.771385 5.24524 13.9968 0.771385
225 2 5.65573 14.3312 -2.46514 5.65573 14.3312 -2.46514
226 1 6.41376 15.8106 -0.578561 6.41376 15.8106 -0.578561
227 2 8.27416 15.6746 1.07917 8.27416 15.6746 1.07917
228 2 8.42576 15.9051 -2.05431 8.42576 15.9051 -2.05431
229 1 9.32717 14.2376 -0.562693 9.32717 14.2376 -0.562693
230 2 10.6201 14.1141 1.5744 10.6201 14.1141 1.5744
231 2 11.8863 14.3146 -1.3378 11.8863 14.3146 -1.3378
232 1 12.088 15.9088 0.485032 12.088 15.9088 0.485032
233 2 13.3289 15.8205 2.66958 13.3289 15.8205 2.66958
234 2 14.5453 15.8783 -0.350245 14.5453 15.8783 -0.350245
235 1 14.7836 14.1592 1.40526 14.7836 14.1592 1.40526
236 2 15.7657 14.1413 3.60483 15.7657 14.1413 3.60483
237 2 17.1458 14.2139 0.648343 17.1458 14.2139 0.648343
238 1 17.4002 15.8346 2.65359 17.4002 15.8346 2.65359
239 2 18.8525 16.0486 4.7433 18.8525 16.0486 4.7433
240 2 19.6727 15.7367 1.48425 19.6727 15.7367 1.48425
241 1 20.0502 14.2603 3.47063 20.0502 14.2603 3.47063
242 2 21.6376 14.28 5.41395 21.6376 14.28 5.41395
243 2 22.1767 14.0878 2.22277 22.1767 14.0878 2.22277
244 1 22.9013 15.8495 3.85197 22.9013 15.8495 3.85197
245 2 24.3541 15.9934 5.91469 24.3541 15.9934 5.91469
246 2 25.1552 15.7267 2.74691 25.1552 15.7267 2.74691
247 1 25.7039 14.2358 4.69341 25.7039 14.2358 4.69341
248 2 27.3166 14.3999 6.59807 27.3166 14.3999 6.59807
249 2 27.8325 13.9647 3.31449 27.8325 13.9647 3.31449
250 1 28.5231 15.8533 4.92857 28.5231 15.8533 4.92857
251 2 30.0953 15.8034 6.87031 30.0953 15.8034 6.87031
252 2 30.5681 16.0075 3.62071 30.5681 16.0075 3.62071
253 1 31.3826 14.3661 5.42292 31.3826 14.3661 5.42292
254 2 44.2577 14.0916 -2.91707 44.2577 14.0916 -2.91707
255 2 44.4146 14.3405 -5.7676 44.4146 14.3405 -5.7676
256 1 45.592 15.819 -4.21434 45.592 15.819 -4.21434
257 2 47.2128 15.6597 -2.29047 47.2128 15.6597 -2.29047
258 2 47.6833 15.9561 -5.52536 47.6833 15.9561 -5.52536
259 1 48.4021 14.1721 -3.90123 48.4021 14.1721 -3.90123
260 2 50.0178 14.0609 -1.95466 50.0178 14.0609 -1.95466
261 2 50.5689 14.3014 -5.24702 50.5689 14.3014 -5.24702
262 1 51.226 15.7943 -3.35645 51.226 15.7943 -3.35645
263 2 52.9156 15.7545 -1.53568 52.9156 15.7545 -1.53568
264 2 53.3247 15.819 -4.73256 53.3247 15.819 -4.73256
265 1 54.076 14.1856 -3.0932 54.076 14.1856 -3.0932
266 2 55.727 14.1604 -1.23271 55.727 14.1604 -1.23271
267 2 56.0885 14.1803 -4.46648 56.0885 14.1803 -4.46648
268 1 56.867 15.8044 -2.69887 56.867 15.8044 -2.69887
269 2 -3.2822 15.8425 -0.72648 58.4107 15.8425 -0.72648
270 2 -2.52618 15.6552 -3.94031 59.1667 15.6552 -3.94031
271 1 -2.04527 17.4554 -2.15541 -2.04527 17.4554 -2.15541
272 2 -0.377263 17.5924 -0.166801 -0.377263 17.5924 -0.166801
273 2 0.181218 17.328 -3.38527 0.181218 17.328 -3.38527
274 1 0.872034 19.1386 -1.78475 0.872034 19.1386 -1.78475
275 2 2.38668 19.1539 0.155099 2.38668 19.1539 0.155099
276 2 3.03727 19.1123 -3.15025 3.03727 19.1123 -3.15025
277 1 3.61824 17.4223 -1.31286 3.61824 17.4223 -1.31286
278 2 5.22209 17.6479 0.665577 5.22209 17.6479 0.665577
279 2 5.81118 17.2592 -2.56451 5.81118 17.2592 -2.56451
280 1 6.4712 19.1302 -0.977599 6.4712 19.1302 -0.977599
281 2 8.06704 19.1536 1.01531 8.06704 19.1536 1.01531
282 2 8.77486 19.0963 -2.1889 8.77486 19.0963 -2.1889
283 1 9.2552 17.4929 -0.338302 9.2552 17.4929 -0.338302
284 2 10.5444 17.5075 1.75126 10.5444 17.5075 1.75126
285 2 11.5771 17.548 -1.39888 11.5771 17.548 -1.39888
286 1 12.0083 19.1723 0.576058 12.0083 19.1723 0.576058
287 2 13.4202 19.2828 2.69183 13.4202 19.2828 2.69183
288 2 14.4273 18.9967 -0.431144 14.4273 18.9967 -0.431144
289 1 14.8256 17.564 1.50484 14.8256 17.564 1.50484
290 2 16.1086 17.7296 3.7274 16.1086 17.7296 3.7274
291 2 17.1307 17.1843 0.582668 17.1307 17.1843 0.582668
292 1 17.5446 19.1033 2.21209 17.5446 19.1033 2.21209
293 2 18.7511 19.3377 4.32004 18.7511 19.3377 4.32004
294 2 19.849 19.0818 1.16772 19.849 19.0818 1.16772
295 1 20.171 17.5836 3.1959 20.171 17.5836 3.1959
296 2 21.5972 17.5351 5.21556 21.5972 17.5351 5.21556
297 2 22.4148 17.5787 2.13845 22.4148 17.5787 2.13845
298 1 22.9243 19.2324 3.87073 22.9243 19.2324 3.87073
299 2 24.6352 19.1702 5.83499 24.6352 19.1702 5.83499
300 2 25.2126 19.2661 2.69758 25.2126 19.2661 2.69758
301 1 25.8258 17.4962 4.45613 25.8258 17.4962 4.45613
302 2 27.3129 17.4694 6.38671 27.3129 17.4694 6.38671
303 2 27.9954 17.5998 3.17729 27.9954 17.5998 3.17729
304 1 28.4451 19.185 5.06971 28.4451 19.185 5.06971
305 2 30.0207 19.0968 6.95758 30.0207 19.0968 6.95758
306 2 30.5085 19.3933 3.79974 30.5085 19.3933 3.79974
307 1 31.3641 17.5781 5.43223 31.3641 17.5781 5.43223
308 2 44.7822 17.3975 -2.40058 44.7822 17.3975 -2.40058
309 2 44.0567 17.718 -5.09904 44.0567 17.718 -5.09904
310 1 45.6277 19.1551 -3.94698 45.6277 19.1551 -3.94698
311 2 47.4055 19.3332 -2.21004 47.4055 19.3332 -2.21004
312 2 47.5728 19.0418 -5.52512 47.5728 19.0418 -5.52512
313 1 48.4233 17.5518 -3.64596 48.4233 17.5518 -3.64596
314 2 50.0555 17.4679 -1.7652 50.0555 17.4679 -1.7652
315 2 50.4927 17.5242 -5.00129 50.4927 17.5242 -5.00129
316 1 51.1574 19.0735 -3.20764 51.1574 19.0735 -3.20764
317 2 52.982 19.3111 -1.52306 52.982 19.3111 -1.52306
318 2 53.2042 19.0042 -4.79566 53.2042 19.0042 -4.79566
319 1 54.0363 17.4308 -3.04556 54.0363 17.4308 -3.04556
320 2 55.7426 17.5077 -1.19386 55.7426 17.5077 -1.19386
321 2 56.1146 17.4481 -4.45858 56.1146 17.4481 -4.45858
322 1 56.9028 19.2031 -2.81582 56.9028 19.2031 -2.81582
323 2 -3.21944 19.2808 -0.807776 58.4735 19.2808 -0.807776
324 2 -2.70356 19.0801 -4.10898 58.9894 19.0801 -4.10898
325 1 -1.95821 20.7708 -2.3099 -1.95821 20.7708 -2.3099
326 2 -0.385374 20.8415 -0.410263 -0.385374 20.8415 -0.410263
327 2 0.19022 20.7116 -3.5835 0.19022 20.7116 -3.5835
328 1 0.810239 22.4682 -1.98146 0.810239 22.4682 -1.98146
329 2 2.47995 22.4586 0.0260961 2.47995 22.4586 0.0260961
330 2 3.05406 22.3962 -3.12563 3.05406 22.3962 -3.12563
331 1 3.66786 20.7983 -1.34074 3.66786 20.7983 -1.34074
332 2 5.28757 20.7278 0.533119 5.28757 20.7278 0.533119
333 2 5.78258 20.9284 -2.66664 5.78258 20.9284 -2.66664
334 1 6.49674 22.413 -0.881314 6.49674 22.413 -0.881314
335 2 8.11962 22.5927 1.05353 8.11962 22.5927 1.05353
336 2 8.63987 22.4606 -2.2449 8.63987 22.4606 -2.2449
337 1 9.33819 20.7614 -0.338376 9.33819 20.7614 -0.338376
338 2 10.633 20.8197 1.8157 10.633 20.8197 1.8157
339 2 11.7303 20.8111 -1.20879 11.7303 20.8111 -1.20879
340 1 11.9343 22.5322 0.594602 11.9343 22.5322 0.594602
341 2 13.5199 22.4403 2.5789 13.5199 22.4403 2.5789
342 2 14.1718 22.5084 -0.561232 14.1718 22.5084 -0.561232
343 1 14.7891 20.7395 1.29874 14.7891 20.7395 1.29874
344 2 16.1696 20.912 3.39706 16.1696 20.912 3.39706
345 2 17.126 20.591 0.229268 17.126 20.591 0.229268
346 1 17.569 22.3923 1.92368 17.569 22.3923 1.92368
347 2 18.8406 22.5685 3.97926 18.8406 22.5685 3.97926
348 2 19.8718 22.115 0.982318 19.8718 22.115 0.982318
349 1 20.1919 20.7613 2.98631 20.1919 20.7613 2.98631
350 2 21.5159 21.0046 5.01504 21.5159 21.0046 5.01504
351 2 22.4476 20.6437 1.88667 22.4476 20.6437 1.88667
352 1 22.9427 22.4936 3.46037 22.9427 22.4936 3.46037
353 2 24.1519 22.359 5.6111 24.1519 22.359 5.6111
354 2 25.3872 22.6499 2.66963 25.3872 22.6499 2.66963
355 1 25.7252 20.8664 4.40946 25.7252 20.8664 4.40946
356 2 27.1265 20.8261 6.42262 27.1265 20.8261 6.42262
357 2 28.0189 20.9031 3.27708 28.0189 20.9031 3.27708
358 1 28.4443 22.5251 5.10533 28.4443 22.5251 5.10533
359 2 29.8279 22.3927 7.01362 29.8279 22.3927 7.01362
360 2 30.5965 22.5362 3.89236 30.5965 22.5362 3.89236
361 1 31.2969 20.8655 5.6613 31.2969 20.8655 5.6613
362 2 44.5668 20.8476 -2.53413 44.5668 20.8476 -2.53413
363 2 44.3703 20.7626 -5.53275 44.3703 20.7626 -5.53275
364 1 45.5363 22.4397 -4.06552 45.5363 22.4397 -4.06552
365 2 47.3089 22.5024 -2.31984 47.3089 22.5024 -2.31984
366 2 47.584 22.3479 -5.63059 47.584 22.3479 -5.63059
367 1 48.451 20.8169 -3.85757 48.451 20.8169 -3.85757
368 2 50.1165 20.8366 -1.83345 50.1165 20.8366 -1.83345
369 2 50.5591 20.6684 -5.1221 50.5591 20.6684 -5.1221
370 1 51.2717 22.3605 -3.53639 51.2717 22.3605 -3.53639
371 2 52.8509 22.4356 -1.68398 52.8509 22.4356 -1.68398
372 2 53.3868 22.3706 -4.9498 53.3868 22.3706 -4.9498
373 1 54.0454 20.7594 -3.2533 54.0454 20.7594 -3.2533
374 2 55.7203 20.9957 -1.43388 55.7203 20.9957 -1.43388
375 2 56.1643 20.5622 -4.68686 56.1643 20.5622 -4.68686
376 1 56.9655 22.4446 -3.10897 56.9655 22.4446 -3.10897
377 2 -3.27917 22.412 -1.01943 58.4137 22.412 -1.01943
378 2 -2.45238 22.344 -4.1344 59.2405 22.344 -4.1344
379 1 -1.91041 24.0154 -2.361 -1.91041 24.0154 -2.361
380 2 -0.325305 24.027 -0.420974 -0.325305 24.027 -0.420974
381 2 0.261918 24.0229 -3.66169 0.261918 24.0229 -3.66169
382 1 0.845574 25.6491 -1.84696 0.845574 25.6491 -1.84696
383 2 2.57183 25.7949 0.039886 2.57183 25.7949 0.039886
384 2 2.95332 25.5124 -3.20941 2.95332 25.5124 -3.20941
385 1 3.69124 24.075 -1.38816 3.69124 24.075 -1.38816
386 2 5.39702 24.0715 0.428788 5.39702 24.0715 0.428788
387 2 5.80082 23.9501 -2.72976 5.80082 23.9501 -2.72976
388 1 6.53882 25.7626 -1.12772 6.53882 25.7626 -1.12772
389 2 7.92669 25.7433 0.97855 7.92669 25.7433 0.97855
390 2 8.82972 25.7369 -2.19819 8.82972 25.7369 -2.19819
391 1 9.28227 24.1043 -0.432475 9.28227 24.1043 -0.432475
392 2 10.5242 24.233 1.78986 10.5242 24.233 1.78986
393 2 11.6042 24.1011 -1.3091 11.6042 24.1011 -1.3091
394 1 11.9715 25.82 0.546134 11.9715 25.82 0.546134
395 2 13.3204 25.703 2.66842 13.3204 25.703 2.66842
396 2 14.1402 25.7469 -0.509014 14.1402 25.7469 -0.509014
397 1 14.7502 24.083 1.27169 14.7502 24.083 1.27169
398 2 16.1111 23.9713 3.27866 16.1111 23.9713 3.27866
399 2 17.0462 24.0156 0.228697 17.0462 24.0156 0.228697
400 1 17.4112 25.6816 2.07279 17.4112 25.6816 2.07279
401 2 18.9644 25.7401 4.07163 18.9644 25.7401 4.07163
402 2 19.6539 25.635 0.885125 19.6539 25.635 0.885125
403 1 20.2819 23.9896 2.65858 20.2819 23.9896 2.65858
404 2 21.5417 24.13 4.76106 21.5417 24.13 4.76106
405 2 22.5145 24.1698 1.61365 22.5145 24.1698 1.61365
406 1 22.9664 25.7934 3.47384 22.9664 25.7934 3.47384
407 2 24.3162 25.9691 5.60077 24.3162 25.9691 5.60077
408 2 25.3453 25.599 2.48806 25.3453 25.599 2.48806
409 1 25.6695 24.1128 4.61466 25.6695 24.1128 4.61466
410 2 27.1538 24.1805 6.59333 27.1538 24.1805 6.59333
411 2 27.7954 24.1419 3.39282 27.7954 24.1419 3.39282
412 1 28.4633 25.7424 5.1348 28.4633 25.7424 5.1348
413 2 29.9024 25.625 7.18895 29.9024 25.625 7.18895
414 2 30.6445 25.7898 4.07981 30.6445 25.7898 4.07981
415 1 31.3274 24.0206 5.78903 31.3274 24.0206 5.78903
416 2 44.0794 24.246 -2.99463 44.0794 24.246 -2.99463
417 2 44.7614 23.9433 -5.96563 44.7614 23.9433 -5.96563
418 1 45.5026 25.708 -4.43341 45.5026 25.708 -4.43341
419 2 47.1929 25.6733 -2.5555 47.1929 25.6733 -2.5555
420 2 47.6893 25.547 -5.78088 47.6893 25.547 -5.78088
421 1 48.3843 24.0232 -4.03588 48.3843 24.0232 -4.03588
422 2 49.9564 24.0541 -2.04736 49.9564 24.0541 -2.04736
423 2 50.571 23.9711 -5.28988 50.571 23.9711 -5.28988
424 1 51.2668 25.7339 -3.68413 51.2668 25.7339 -3.68413
425 2 52.9356 25.8096 -1.76034 52.9356 25.8096 -1.76034
426 2 53.2982 25.5417 -5.01728 53.2982 25.5417 -5.01728
427 1 54.0483 24.1322 -3.14595 54.0483 24.1322 -3.14595
428 2 55.9251 24.1161 -1.41346 55.9251 24.1161 -1.41346
429 2 56.0526 24.1764 -4.64293 56.0526 24.1764 -4.64293
430 1 57.0214 25.7508 -2.92806 57.0214 25.7508 -2.92806
431 2 -3.15131 25.6417 -0.972121 58.5416 25.6417 -0.972121
432 2 -2.45246 25.6415 -4.227 59.2405 25.6415 -4.227
433 1 -1.8972 27.3116 -2.42183 -1.8972 27.3116 -2.42183
434 2 -0.235669 27.5785 -0.546401 -0.235669 27.5785 -0.546401
435 2 0.285784 27.1831 -3.81848 0.285784 27.1831 -3.81848
436 1 0.916863 29.0167 -2.34814 0.916863 29.0167 -2.34814
437 2 2.50407 29.1798 -0.297633 2.50407 29.1798 -0.297633
438 2 3.15372 28.8335 -3.55328 3.15372 28.8335 -3.55328
439 1 3.63687 27.3712 -1.61857 3.63687 27.3712 -1.61857
440 2 5.19861 27.3434 0.35666 5.19861 27.3434 0.35666
441 2 5.81492 27.4429 -2.74498 5.81492 27.4429 -2.74498
442 1 6.57694 29.0256 -0.995209 6.57694 29.0256 -0.995209
443 2 7.8545 28.9606 1.06956 7.8545 28.9606 1.06956
444 2 8.80576 29.1576 -2.01323 8.80576 29.1576 -2.01323
445 1 9.30811 27.3366 -0.320817 9.30811 27.3366 -0.320817
446 2 10.606 27.4456 1.80227 10.606 27.4456 1.80227
447 2 11.4878 27.3622 -1.31592 11.4878 27.3622 -1.31592
448 1 11.9457 29.0942 0.449416 11.9457 29.0942 0.449416
449 2 13.3087 29.0359 2.62429 13.3087 29.0359 2.62429
450 2 14.2292 29.0397 -0.548154 14.2292 29.0397 -0.548154
451 1 14.6915 27.4021 1.33395 14.6915 27.4021 1.33395
452 2 16.1675 27.4562 3.41717 16.1675 27.4562 3.41717
453 2 16.9746 27.2735 0.247731 16.9746 27.2735 0.247731
454 1 17.4742 28.9743 2.00877 17.4742 28.9743 2.00877
455 2 18.8538 28.8707 4.14842 18.8538 28.8707 4.14842
456 2 19.7688 29.0772 0.936379 19.7688 29.0772 0.936379
457 1 20.2716 27.386 2.74901 20.2716 27.386 2.74901
458 2 21.5754 27.248 4.89505 21.5754 27.248 4.89505
459 2 22.4486 27.5832 1.68068 22.4486 27.5832 1.68068
460 1 22.9006 29.0165 3.71373 22.9006 29.0165 3.71373
461 2 24.5875 28.9683 5.60503 24.5875 28.9683 5.60503
462 2 25.1237 28.9932 2.47953 25.1237 28.9932 2.47953
463 1 25.7572 27.335 4.19379 25.7572 27.335 4.19379
464 2 27.0088 27.3325 6.36713 27.0088 27.3325 6.36713
465 2 28.1446 27.2258 3.30743 28.1446 27.2258 3.30743
466 1 28.3821 28.9436 5.10892 28.3821 28.9436 5.10892
467 2 29.6385 28.7268 7.22678 29.6385 28.7268 7.22678
468 2 30.809 29.1805 4.2087 30.809 29.1805 4.2087
469 1 31.2024 27.3492 5.94835 31.2024 27.3492 5.94835
470 2 44.4898 27.2746 -2.84042 44.4898 27.2746 -2.84042
471 2 44.2745 27.4005 -5.88561 44.2745 27.4005 -5.88561
472 1 45.581 28.8832 -4.44124 45.581 28.8832 -4.44124
473 2 47.3319 29.0804 -2.73978 47.3319 29.0804 -2.73978
474 2 47.4579 28.6859 -6.03269 47.4579 28.6859 -6.03269
475 1 48.414 27.3045 -4.16121 48.414 27.3045 -4.16121
476 2 49.9592 27.3812 -2.14031 49.9592 27.3812 -2.14031
477 2 50.5077 27.247 -5.50466 50.5077 27.247 -5.50466
478 1 51.245 28.9362 -3.81551 51.245 28.9362 -3.81551
479 2 52.8467 28.9962 -1.95616 52.8467 28.9962 -1.95616
480 2 53.3651 29.0765 -5.15628 53.3651 29.0765 -5.15628
481 1 54.1133 27.3446 -3.50142 54.1133 27.3446 -3.50142
482 2 55.6995 27.4432 -1.57729 55.6995 27.4432 -1.57729
483 2 56.216 27.2913 -4.73321 56.216 27.2913 -4.73321
484 1 56.9514 29.1055 -3.04788 56.9514 29.1055 -3.04788
485 2 -3.14419 29.1132 -1.06068 58.5487 29.1132 -1.06068
486 2 -2.51883 28.8611 -4.3137 59.1741 28.8611 -4.3137
487 1 -1.88151 30.5317 -2.66667 -1.88151 30.5317 -2.66667
488 2 -0.321538 30.687 -0.83172 -0.321538 30.687 -0.83172
489 2 0.19585 30.7193 -4.06092 0.19585 30.7193 -4.06092
490 1 1.00026 32.3483 -2.21612 1.00026 32.3483 -2.21612
491 2 2.62823 32.306 -0.350518 2.62823 32.306 -0.350518
492 2 3.01114 32.3517 -3.6203 3.01114 32.3517 -3.6203
493 1 3.76349 30.6669 -1.89658 3.76349 30.6669 -1.89658
494 2 5.15993 30.6401 0.176287 5.15993 30.6401 0.176287
495 2 6.11132 30.6782 -2.89477 6.11132 30.6782 -2.89477
496 1 6.5079 32.3526 -1.17351 6.5079 32.3526 -1.17351
497 2 7.69697 32.3781 1.08331 7.69697 32.3781 1.08331
498 2 8.80825 32.3307 -1.98606 8.80825 32.3307 -1.98606
499 1 9.15417 30.7067 -0.0994505 9.15417 30.7067 -0.0994505
500 2 10.6336 30.7778 1.87125 10.6336 30.7778 1.87125
501 2 11.3425 30.7204 -1.33295 11.3425 30.7204 -1.33295
502 1 11.9742 32.3774 0.414059 11.9742 32.3774 0.414059
503 2 13.2741 32.4296 2.54658 13.2741 32.4296 2.54658
504 2 14.2313 32.28 -0.584085 14.2313 32.28 -0.584085
505 1 14.6175 30.7236 1.36872 14.6175 30.7236 1.36872
506 2 16.0674 30.4963 3.41875 16.0674 30.4963 3.41875
507 2 16.9581 30.6767 0.31852 16.9581 30.6767 0.31852
508 1 17.4665 32.2379 2.26971 17.4665 32.2379 2.26971
509 2 18.8496 32.38 4.27142 18.8496 32.38 4.27142
510 2 19.8043 32.4235 1.23163 19.8043 32.4235 1.23163
511 1 20.1877 30.6986 2.93504 20.1877 30.6986 2.93504
512 2 21.5096 30.6025 5.03372 21.5096 30.6025 5.03372
513 2 22.4416 30.7298 1.98993 22.4416 30.7298 1.98993
514 1 22.8843 32.2927 3.89338 22.8843 32.2927 3.89338
515 2 24.5732 32.2079 5.82895 24.5732 32.2079 5.82895
516 2 24.9669 32.4011 2.55967 24.9669 32.4011 2.55967
517 1 25.7352 30.7154 4.13841 25.7352 30.7154 4.13841
518 2 26.8829 30.6135 6.36845 26.8829 30.6135 6.36845
519 2 28.0635 30.7291 3.33352 28.0635 30.7291 3.33352
520 1 28.4199 32.3735 5.38522 28.4199 32.3735 5.38522
521 2 29.3824 32.0602 7.62106 29.3824 32.0602 7.62106
522 2 30.8171 32.5475 4.739 30.8171 32.5475 4.739
523 1 31.0663 30.6368 6.36979 31.0663 30.6368 6.36979
524 2 44.8326 30.7744 -2.96993 44.8326 30.7744 -2.96993
525 2 44.3263 30.4954 -5.88466 44.3263 30.4954 -5.88466
526 1 45.642 32.2222 -4.90075 45.642 32.2222 -4.90075
527 2 47.33 32.2355 -3.0025 47.33 32.2355 -3.0025
528 2 47.6527 32.1591 -6.34786 47.6527 32.1591 -6.34786
529 1 48.381 30.5082 -4.47955 48.381 30.5082 -4.47955
530 2 50.0593 30.6471 -2.53671 50.0593 30.6471 -2.53671
531 2 50.531 30.4389 -5.79977 50.531 30.4389 -5.79977
532 1 51.3009 32.1894 -4.13603 51.3009 32.1894 -4.13603
533 2 52.8542 32.3218 -2.13697 52.8542 32.3218 -2.13697
534 2 53.508 32.2008 -5.36663 53.508 32.2008 -5.36663
535 1 54.0223 30.6673 -3.44075 54.0223 30.6673 -3.44075
536 2 55.8223 30.7237 -1.64136 55.8223 30.7237 -1.64136
537 2 56.1678 30.5377 -4.91236 56.1678 30.5377 -4.91236
538 1 57.0044 32.266 -3.27989 57.0044 32.266 -3.27989
539 2 -3.19956 32.2121 -1.21346 58.4934 32.2121 -1.21346
540 2 -2.37466 32.252 -4.47491 59.3183 32.252 -4.47491
541 1 -1.90416 33.9328 -2.67781 -1.90416 33.9328 -2.67781
542 2 -0.217862 34.0441 -0.816434 -0.217862 34.0441 -0.816434