ITEM: TIMESTEP
857000
ITEM: NUMBER OF ATOMS
810
ITEM: BOX BOUNDS pp pp pp
-1.3995337008638113e+00 5.4417138700864271e+01
8.0582000660415243e-01 5.0210394993394715e+01
-1.0000000000000000e+01 1.0000000000000000e+01
ITEM: ATOMS id type x y z xu yu zu
1 1 -1.13534 0.907478 -0.242286 -1.13534 0.907478 -0.242286
2 2 1.16602 0.917438 1.30375 1.16602 0.917438 1.30375
3 2 0.768506 0.975868 -1.92014 0.768506 0.975868 -1.92014
4 1 1.93037 2.65335 -0.421185 1.93037 2.65335 -0.421185
5 2 3.99764 2.40467 1.15395 3.99764 2.40467 1.15395
6 2 3.93968 2.78435 -2.04574 3.93968 2.78435 -2.04574
7 1 5.08239 0.922344 -0.56859 5.08239 0.922344 -0.56859
8 2 6.93877 1.16109 1.1614 6.93877 1.16109 1.1614
9 2 7.09633 1.08398 -2.18976 7.09633 1.08398 -2.18976
10 1 8.14701 2.62063 -0.396929 8.14701 2.62063 -0.396929
11 2 10.2108 2.39955 1.22543 10.2108 2.39955 1.22543
12 2 10.1772 2.73943 -1.92265 10.1772 2.73943 -1.92265
13 1 11.3249 0.930603 -0.554394 11.3249 0.930603 -0.554394
14 2 13.2708 0.913812 1.08041 13.2708 0.913812 1.08041
15 2 13.4229 0.997167 -2.17891 13.4229 0.997167 -2.17891
16 1 14.3876 2.62742 -0.437814 14.3876 2.62742 -0.437814
17 2 16.4127 2.57402 1.2832 16.4127 2.57402 1.2832
18 2 16.3594 2.70257 -1.91596 16.3594 2.70257 -1.91596
19 1 17.3901 1.01812 -0.414509 17.3901 1.01812 -0.414509
20 2 19.4492 50.2432 1.17 19.4492 0.838612 1.17
21 2 19.404 0.96691 -2.00565 19.404 0.96691 -2.00565
22 1 20.5717 2.58242 -0.428776 20.5717 2.58242 -0.428776
23 2 22.7693 2.56468 1.13634 22.7693 2.56468 1.13634
24 2 22.5276 2.74262 -2.1454 22.5276 2.74262 -2.1454
25 1 23.6293 1.04515 -0.604784 23.6293 1.04515 -0.604784
26 2 25.7515 1.2349 0.966504 25.7515 1.2349 0.966504
27 2 25.4882 1.03315 -2.2653 25.4882 1.03315 -2.2653
28 1 26.7948 2.72553 -0.809916 26.7948 2.72553 -0.809916
29 2 28.8005 2.60072 0.877494 28.8005 2.60072 0.877494
30 2 28.9421 2.69133 -2.37497 28.9421 2.69133 -2.37497
31 1 29.8289 1.05845 -0.743019 29.8289 1.05845 -0.743019
32 2 31.7852 0.948391 0.96359 31.7852 0.948391 0.96359
33 2 32.044 1.14904 -2.3093 32.044 1.14904 -2.3093
34 1 32.9813 2.68285 -0.464489 32.9813 2.68285 -0.464489
35 2 35.0101 2.52035 1.06165 35.0101 2.52035 1.06165
36 2 34.9495 2.83897 -2.14242 34.9495 2.83897 -2.14242
37 1 36.0775 1.11703 -0.682567 36.0775 1.11703 -0.682567
38 2 37.9745 0.906516 0.999438 37.9745 0.906516 0.999438
39 2 38.1448 1.25383 -2.26012 38.1448 1.25383 -2.26012
40 1 39.1863 2.7392 -0.413471 39.1863 2.7392 -0.413471
41 2 41.3618 2.66408 1.06281 41.3618 2.66408 1.06281
42 2 41.2009 2.81532 -2.11446 41.2009 2.81532 -2.11446
43 1 42.2826 1.0688 -0.593497 42.2826 1.0688 -0.593497
44 2 44.2768 0.916782 1.09202 44.2768 0.916782 1.09202
45 2 44.3417 1.22703 -2.13533 44.3417 1.22703 -2.13533
46 1 45.4058 2.61466 -0.316464 45.4058 2.61466 -0.316464
47 2 47.4166 2.48435 1.34454 47.4166 2.48435 1.34454
48 2 47.4788 2.72772 -1.8735 47.4788 2.72772 -1.8735
49 1 48.4765 1.01786 -0.340779 48.4765 1.01786 -0.340779
50 2 50.4699 0.800832 1.20892 50.4699 0.800832 1.20892
51 2 50.4942 1.17773 -1.92858 50.4942 1.17773 -1.92858
52 1 51.5724 2.64414 -0.167869 51.5724 2.64414 -0.167869
53 2 53.7378 2.65555 1.33323 53.7378 2.65555 1.33323
54 2 53.5154 2.50045 -1.87105 53.5154 2.50045 -1.87105
55 1 -1.1973 4.24317 -0.364609 -1.1973 4.24317 -0.364609
56 2 0.752272 4.188 1.3266 0.752272 4.188 1.3266
57 2 0.877669 4.16856 -1.9122 0.877669 4.16856 -1.9122
58 1 1.9208 5.8734 -0.273402 1.9208 5.8734 -0.273402
59 2 3.92849 5.85415 1.41126 3.92849 5.85415 1.41126
60 2 4.16956 6.0347 -1.82852 4.16956 6.0347 -1.82852
61 1 4.94261 4.2036 -0.225674 4.94261 4.2036 -0.225674
62 2 6.99731 4.04082 1.35034 6.99731 4.04082 1.35034
63 2 7.00243 4.38989 -1.80525 7.00243 4.38989 -1.80525
64 1 8.08015 5.85063 -0.124746 8.08015 5.85063 -0.124746
65 2 10.1593 5.9143 1.52243 10.1593 5.9143 1.52243
66 2 10.163 5.94495 -1.61761 10.163 5.94495 -1.61761
67 1 11.2096 4.28654 -0.106715 11.2096 4.28654 -0.106715
68 2 13.2376 4.14166 1.46364 13.2376 4.14166 1.46364
69 2 13.222 4.44988 -1.86313 13.222 4.44988 -1.86313
70 1 14.3011 5.93394 -0.0556608 14.3011 5.93394 -0.0556608
71 2 16.5506 5.89661 1.33173 16.5506 5.89661 1.33173
72 2 16.2233 5.87662 -1.88573 16.2233 5.87662 -1.88573
73 1 17.4748 4.23096 -0.259585 17.4748 4.23096 -0.259585
74 2 19.467 4.1858 1.34142 19.467 4.1858 1.34142
75 2 19.4266 4.34665 -1.87381 19.4266 4.34665 -1.87381
76 1 20.5936 5.96113 -0.129968 20.5936 5.96113 -0.129968
77 2 22.6722 5.65759 1.37553 22.6722 5.65759 1.37553
78 2 22.6213 6.21668 -1.80328 22.6213 6.21668 -1.80328
79 1 23.7509 4.31146 -0.526454 23.7509 4.31146 -0.526454
80 2 25.8539 4.02489 1.13508 25.8539 4.02489 1.13508
81 2 25.7971 4.57948 -2.21271 25.7971 4.57948 -2.21271
82 1 26.8464 5.97545 -0.280862 26.8464 5.97545 -0.280862
83 2 28.9516 5.88302 1.26817 28.9516 5.88302 1.26817
84 2 28.6419 6.14674 -2.00349 28.6419 6.14674 -2.00349
85 1 29.9443 4.27747 -0.563455 29.9443 4.27747 -0.563455
86 2 31.8681 4.23655 1.15039 31.8681 4.23655 1.15039
87 2 32.0849 4.47638 -2.14651 32.0849 4.47638 -2.14651
88 1 32.977 6.00234 -0.361102 32.977 6.00234 -0.361102
89 2 35.0783 5.9874 1.28446 35.0783 5.9874 1.28446
90 2 34.9774 6.04856 -1.9681 34.9774 6.04856 -1.9681
91 1 36.112 4.31736 -0.456334 36.112 4.31736 -0.456334
92 2 38.0882 4.31669 1.19246 38.0882 4.31669 1.19246
93 2 38.1899 4.43483 -1.94867 38.1899 4.43483 -1.94867
94 1 39.2519 6.08914 -0.324375 39.2519 6.08914 -0.324375
95 2 41.2436 5.95833 1.17585 41.2436 5.95833 1.17585
96 2 41.3192 6.25666 -2.02038 41.3192 6.25666 -2.02038
97 1 42.3121 4.36396 -0.566944 42.3121 4.36396 -0.566944
98 2 44.197 4.14894 1.23643 44.197 4.14894 1.23643
99 2 44.5715 4.3603 -1.92423 44.5715 4.3603 -1.92423
100 1 45.3318 5.93851 -0.108036 45.3318 5.93851 -0.108036
101 2 47.5625 6.01076 1.41146 47.5625 6.01076 1.41146
102 2 47.4667 5.89823 -1.79154 47.4667 5.89823 -1.79154
103 1 48.5652 4.26665 -0.0988117 48.5652 4.26665 -0.0988117
104 2 50.5168 4.10487 1.41647 50.5168 4.10487 1.41647
105 2 50.6814 4.25405 -1.73659 50.6814 4.25405 -1.73659
106 1 51.6813 5.91783 -0.122516 51.6813 5.91783 -0.122516
107 2 53.7096 5.87455 1.40375 53.7096 5.87455 1.40375
108 2 53.621 6.00764 -1.76088 53.621 6.00764 -1.76088
109 1 -1.05262 7.62541 -0.141099 -1.05262 7.62541 -0.141099
110 2 0.854926 7.36269 1.47928 0.854926 7.36269 1.47928
111 2 0.971704 7.57965 -1.75909 0.971704 7.57965 -1.75909
112 1 1.95424 9.12654 0.066009 1.95424 9.12654 0.066009
113 2 3.94654 8.95096 1.7381 3.94654 8.95096 1.7381
114 2 3.99849 9.17478 -1.51545 3.99849 9.17478 -1.51545
115 1 5.19884 7.50595 -0.0669871 5.19884 7.50595 -0.0669871
116 2 7.13497 7.48329 1.5916 7.13497 7.48329 1.5916
117 2 7.21326 7.62607 -1.68421 7.21326 7.62607 -1.68421
118 1 8.21977 9.24058 0.0614274 8.21977 9.24058 0.0614274
119 2 10.2519 9.16896 1.63135 10.2519 9.16896 1.63135
120 2 10.2346 9.33334 -1.5379 10.2346 9.33334 -1.5379
121 1 11.1805 7.65464 -0.0436931 11.1805 7.65464 -0.0436931
122 2 13.1734 7.52183 1.57104 13.1734 7.52183 1.57104
123 2 13.3897 7.68103 -1.63684 13.3897 7.68103 -1.63684
124 1 14.3137 9.26684 0.0899281 14.3137 9.26684 0.0899281
125 2 16.4326 9.16379 1.58408 16.4326 9.16379 1.58408
126 2 16.2394 9.36306 -1.624 16.2394 9.36306 -1.624
127 1 17.4172 7.56971 -0.234372 17.4172 7.56971 -0.234372
128 2 19.4684 7.45754 1.52809 19.4684 7.45754 1.52809
129 2 19.5262 7.75015 -1.71182 19.5262 7.75015 -1.71182
130 1 20.5387 9.24831 0.0126586 20.5387 9.24831 0.0126586
131 2 22.6139 9.26314 1.5824 22.6139 9.26314 1.5824
132 2 22.5621 9.37327 -1.7074 22.5621 9.37327 -1.7074
133 1 23.7186 7.71365 -0.00404543 23.7186 7.71365 -0.00404543
134 2 25.7646 7.59742 1.5263 25.7646 7.59742 1.5263
135 2 25.6978 7.71 -1.69024 25.6978 7.71 -1.69024
136 1 26.7286 9.30028 -0.0752738 26.7286 9.30028 -0.0752738
137 2 28.7638 9.11748 1.44837 28.7638 9.11748 1.44837
138 2 28.7315 9.37335 -1.74904 28.7315 9.37335 -1.74904
139 1 29.8426 7.55839 -0.305453 29.8426 7.55839 -0.305453
140 2 31.8681 7.52091 1.31452 31.8681 7.52091 1.31452
141 2 31.956 7.75875 -1.89785 31.956 7.75875 -1.89785
142 1 33.0126 9.27932 -0.128436 33.0126 9.27932 -0.128436
143 2 35.1218 9.26961 1.34475 35.1218 9.26961 1.34475
144 2 34.9155 9.32083 -1.92316 34.9155 9.32083 -1.92316
145 1 36.1846 7.67855 -0.315422 36.1846 7.67855 -0.315422
146 2 38.1254 7.70846 1.28232 38.1254 7.70846 1.28232
147 2 38.1946 7.6934 -1.95634 38.1946 7.6934 -1.95634
148 1 39.2092 9.38631 -0.33282 39.2092 9.38631 -0.33282
149 2 41.1939 9.55716 1.26799 41.1939 9.55716 1.26799
150 2 41.4092 9.35734 -1.87264 41.4092 9.35734 -1.87264
151 1 42.3397 7.70032 -0.234153 42.3397 7.70032 -0.234153
152 2 44.5063 7.64239 1.45412 44.5063 7.64239 1.45412
153 2 44.2466 7.48469 -1.86669 44.2466 7.48469 -1.86669
154 1 45.4671 9.19105 -0.337698 45.4671 9.19105 -0.337698
155 2 47.4388 9.15477 1.31043 47.4388 9.15477 1.31043
156 2 47.6407 9.21641 -1.94122 47.6407 9.21641 -1.94122
157 1 48.6448 7.57803 -0.38141 48.6448 7.57803 -0.38141
158 2 50.6178 7.6581 1.29488 50.6178 7.6581 1.29488
159 2 50.6505 7.3439 -1.91569 50.6505 7.3439 -1.91569
160 1 51.7701 9.16823 -0.457498 51.7701 9.16823 -0.457498
161 2 53.5953 9.30649 1.33758 53.5953 9.30649 1.33758
162 2 53.8725 9.11733 -1.8389 53.8725 9.11733 -1.8389
163 1 -0.999385 10.8586 -0.27152 -0.999385 10.8586 -0.27152
164 2 0.769756 10.8004 1.43284 0.769756 10.8004 1.43284
165 2 1.16223 10.6942 -1.78205 1.16223 10.6942 -1.78205
166 1 1.9497 12.4431 -0.0954645 1.9497 12.4431 -0.0954645
167 2 3.88646 12.3642 1.6942 3.88646 12.3642 1.6942
168 2 4.20144 12.4803 -1.50411 4.20144 12.4803 -1.50411
169 1 5.11509 10.7433 0.169257 5.11509 10.7433 0.169257
170 2 7.09728 10.7496 1.73749 7.09728 10.7496 1.73749
171 2 7.19046 10.8647 -1.51513 7.19046 10.8647 -1.51513
172 1 8.27785 12.5363 0.307171 8.27785 12.5363 0.307171
173 2 10.4572 12.6085 1.91632 10.4572 12.6085 1.91632
174 2 10.3636 12.4825 -1.3881 10.3636 12.4825 -1.3881
175 1 11.3244 10.8629 0.189649 11.3244 10.8629 0.189649
176 2 13.4067 10.7841 1.78999 13.4067 10.7841 1.78999
177 2 13.3001 11.0651 -1.39807 13.3001 11.0651 -1.39807
178 1 14.4102 12.5271 0.300522 14.4102 12.5271 0.300522
179 2 16.3252 12.2724 1.8181 16.3252 12.2724 1.8181
180 2 16.3464 12.7752 -1.34127 16.3464 12.7752 -1.34127
181 1 17.3645 10.8446 0.0587429 17.3645 10.8446 0.0587429
182 2 19.2686 10.5758 1.6651 19.2686 10.5758 1.6651
183 2 19.3817 11.092 -1.43785 19.3817 11.092 -1.43785
184 1 20.4252 12.4713 0.383335 20.4252 12.4713 0.383335
185 2 22.57 12.3205 1.88788 22.57 12.3205 1.88788
186 2 22.3816 12.8638 -1.3841 22.3816 12.8638 -1.3841
187 1 23.5121 10.9405 -0.0451775 23.5121 10.9405 -0.0451775
188 2 25.5426 10.8148 1.64749 25.5426 10.8148 1.64749
189 2 25.6562 11.0001 -1.61615 25.6562 11.0001 -1.61615
190 1 26.642 12.522 0.193429 26.642 12.522 0.193429
191 2 28.7761 12.4015 1.79381 28.7761 12.4015 1.79381
192 2 28.6965 12.6876 -1.42417 28.6965 12.6876 -1.42417
193 1 29.8882 10.913 -0.0667502 29.8882 10.913 -0.0667502
194 2 32.0261 11.0125 1.48084 32.0261 11.0125 1.48084
195 2 31.8911 10.7576 -1.68641 31.8911 10.7576 -1.68641
196 1 33.0094 12.5801 -0.250611 33.0094 12.5801 -0.250611
197 2 35.0016 12.4645 1.3679 35.0016 12.4645 1.3679
198 2 35.0903 12.5887 -1.87861 35.0903 12.5887 -1.87861
199 1 36.1115 10.9443 -0.336466 36.1115 10.9443 -0.336466
200 2 38.0072 11.0262 1.35358 38.0072 11.0262 1.35358
201 2 38.2498 11.088 -1.8645 38.2498 11.088 -1.8645
202 1 39.2237 12.6401 -0.0920499 39.2237 12.6401 -0.0920499
203 2 41.3981 12.6132 1.51137 41.3981 12.6132 1.51137
204 2 41.2947 12.7315 -1.74029 41.2947 12.7315 -1.74029
205 1 42.434 11.0828 -0.241344 42.434 11.0828 -0.241344
206 2 44.478 10.9977 1.32814 44.478 10.9977 1.32814
207 2 44.322 10.9785 -1.90702 44.322 10.9785 -1.90702
208 1 45.5577 12.5663 -0.409082 45.5577 12.5663 -0.409082
209 2 47.4999 12.6209 1.23547 47.4999 12.6209 1.23547
210 2 47.6845 12.5397 -1.9837 47.6845 12.5397 -1.9837
211 1 48.5767 10.8021 -0.304901 48.5767 10.8021 -0.304901
212 2 50.5466 10.7961 1.20491 50.5466 10.7961 1.20491
213 2 50.6929 10.8324 -1.98508 50.6929 10.8324 -1.98508
214 1 51.5596 12.487 -0.383041 51.5596 12.487 -0.383041
215 2 53.5568 12.4141 1.38818 53.5568 12.4141 1.38818
216 2 53.7514 12.5477 -1.82427 53.7514 12.5477 -1.82427
217 1 -1.14397 14.1526 -0.0651316 -1.14397 14.1526 -0.0651316
218 2 0.747392 13.9575 1.6035 0.747392 13.9575 1.6035
219 2 0.987397 14.2152 -1.60372 0.987397 14.2152 -1.60372
220 1 1.99526 15.7544 0.107397 1.99526 15.7544 0.107397
221 2 3.96255 15.621 1.85601 3.96255 15.621 1.85601
222 2 4.13216 15.8773 -1.3482 4.13216 15.8773 -1.3482
223 1 5.11044 14.1473 0.254408 5.11044 14.1473 0.254408
224 2 7.12296 14.0027 1.92091 7.12296 14.0027 1.92091
225 2 7.2201 14.1245 -1.27352 7.2201 14.1245 -1.27352
226 1 8.11241 15.7483 0.414982 8.11241 15.7483 0.414982
227 2 10.2915 15.8792 1.82802 10.2915 15.8792 1.82802
228 2 10.2378 15.8438 -1.28857 10.2378 15.8438 -1.28857
229 1 11.3718 14.2247 0.137038 11.3718 14.2247 0.137038
230 2 13.3327 14.1027 1.86535 13.3327 14.1027 1.86535
231 2 13.5075 14.2517 -1.36306 13.5075 14.2517 -1.36306
232 1 14.3574 15.8787 0.424017 14.3574 15.8787 0.424017
233 2 16.26 15.6847 2.07972 16.26 15.6847 2.07972
234 2 16.4387 15.9711 -1.02683 16.4387 15.9711 -1.02683
235 1 17.3457 14.1146 0.4626 17.3457 14.1146 0.4626
236 2 19.5074 14.0462 2.05239 19.5074 14.0462 2.05239
237 2 19.331 14.3004 -1.231 19.331 14.3004 -1.231
238 1 20.4608 15.7859 0.416035 20.4608 15.7859 0.416035
239 2 22.4297 15.8041 2.13976 22.4297 15.8041 2.13976
240 2 22.5112 15.8504 -1.14643 22.5112 15.8504 -1.14643
241 1 23.6345 14.2077 0.596 23.6345 14.2077 0.596
242 2 25.8774 14.1434 1.94083 25.8774 14.1434 1.94083
243 2 25.4266 14.2358 -1.29051 25.4266 14.2358 -1.29051
244 1 26.7181 15.8795 0.23675 26.7181 15.8795 0.23675
245 2 28.8358 16.078 1.91036 28.8358 16.078 1.91036
246 2 28.7157 15.7587 -1.45211 28.7157 15.7587 -1.45211
247 1 29.8442 14.1741 0.287336 29.8442 14.1741 0.287336
248 2 32.1419 14.1129 1.65192 32.1419 14.1129 1.65192
249 2 31.6571 14.1263 -1.59792 31.6571 14.1263 -1.59792
250 1 32.8867 15.8698 0.00291993 32.8867 15.8698 0.00291993
251 2 35.0681 15.6387 1.54768 35.0681 15.6387 1.54768
252 2 34.9777 16.0034 -1.65527 34.9777 16.0034 -1.65527
253 1 36.1586 14.2173 -0.207514 36.1586 14.2173 -0.207514
254 2 38.2246 14.3031 1.4446 38.2246 14.3031 1.4446
255 2 38.2961 14.3143 -1.71118 38.2961 14.3143 -1.71118
256 1 39.2992 15.9528 -0.0744009 39.2992 15.9528 -0.0744009
257 2 41.173 15.7857 1.64005 41.173 15.7857 1.64005
258 2 41.469 15.9623 -1.6754 41.469 15.9623 -1.6754
259 1 42.3872 14.2507 -0.116411 42.3872 14.2507 -0.116411
260 2 44.5338 14.0122 1.43015 44.5338 14.0122 1.43015
261 2 44.3538 14.2757 -1.86905 44.3538 14.2757 -1.86905
262 1 45.4505 15.903 -0.0794036 45.4505 15.903 -0.0794036
263 2 47.5792 15.7131 1.47918 47.5792 15.7131 1.47918
264 2 47.2872 16.0572 -1.76455 47.2872 16.0572 -1.76455
265 1 48.5647 14.1702 -0.381995 48.5647 14.1702 -0.381995
266 2 50.413 13.9527 1.31573 50.413 13.9527 1.31573
267 2 50.6013 14.4255 -1.86828 50.6013 14.4255 -1.86828
268 1 51.6212 15.7924 0.0191651 51.6212 15.7924 0.0191651
269 2 53.6863 15.7749 1.65543 53.6863 15.7749 1.65543
270 2 53.5723 15.9171 -1.64741 53.5723 15.9171 -1.64741
271 1 -1.11372 17.43 0.0626851 -1.11372 17.43 0.0626851
272 2 0.997646 17.4905 1.73087 0.997646 17.4905 1.73087
273 2 1.02738 17.4399 -1.5198 1.02738 17.4399 -1.5198
274 1 2.03288 19.086 0.0893232 2.03288 19.086 0.0893232
275 2 3.95642 19.2115 1.8659 3.95642 19.2115 1.8659
276 2 4.09314 18.983 -1.45495 4.09314 18.983 -1.45495
277 1 5.1543 17.4542 0.397397 5.1543 17.4542 0.397397
278 2 7.23261 17.5497 1.99942 7.23261 17.5497 1.99942
279 2 7.1457 17.3056 -1.31263 7.1457 17.3056 -1.31263
280 1 8.27573 19.0395 0.201922 8.27573 19.0395 0.201922
281 2 10.1731 18.9966 1.85897 10.1731 18.9966 1.85897
282 2 10.3924 19.241 -1.41875 10.3924 19.241 -1.41875
283 1 11.3239 17.4713 0.260438 11.3239 17.4713 0.260438
284 2 13.1922 17.4091 2.01035 13.1922 17.4091 2.01035
285 2 13.3193 17.5358 -1.22772 13.3193 17.5358 -1.22772
286 1 14.3627 19.0805 0.53973 14.3627 19.0805 0.53973
287 2 16.4434 19.2428 2.15776 16.4434 19.2428 2.15776
288 2 16.3363 19.0687 -1.14545 16.3363 19.0687 -1.14545
289 1 17.4118 17.4657 0.708381 17.4118 17.4657 0.708381
290 2 19.5822 17.5024 2.17307 19.5822 17.5024 2.17307
291 2 19.1982 17.5055 -1.12274 19.1982 17.5055 -1.12274
292 1 20.4825 19.1534 0.501976 20.4825 19.1534 0.501976
293 2 22.5445 19.3646 2.02335 22.5445 19.3646 2.02335
294 2 22.4542 19.0541 -1.17969 22.4542 19.0541 -1.17969
295 1 23.5547 17.4393 0.589161 23.5547 17.4393 0.589161
296 2 25.851 17.5155 1.87638 25.851 17.5155 1.87638
297 2 25.375 17.4615 -1.25252 25.375 17.4615 -1.25252
298 1 26.7181 19.1204 0.102755 26.7181 19.1204 0.102755
299 2 28.7818 19.1248 1.66086 28.7818 19.1248 1.66086
300 2 28.7127 19.0743 -1.64743 28.7127 19.0743 -1.64743
301 1 29.8615 17.5302 -0.0690227 29.8615 17.5302 -0.0690227
302 2 31.862 17.5304 1.52093 31.862 17.5304 1.52093
303 2 32.0146 17.5316 -1.76426 32.0146 17.5316 -1.76426
304 1 33.0739 19.1219 -0.0605428 33.0739 19.1219 -0.0605428
305 2 34.9297 19.0713 1.76561 34.9297 19.0713 1.76561
306 2 35.1397 19.2518 -1.60028 35.1397 19.2518 -1.60028
307 1 36.143 17.5147 0.132936 36.143 17.5147 0.132936
308 2 38.3082 17.6011 1.62576 38.3082 17.6011 1.62576
309 2 38.1063 17.6337 -1.53584 38.1063 17.6337 -1.53584
310 1 39.2496 19.2728 0.0532959 39.2496 19.2728 0.0532959
311 2 41.2999 19.3296 1.57244 41.2999 19.3296 1.57244
312 2 41.1948 19.0727 -1.63319 41.1948 19.0727 -1.63319
313 1 42.3524 17.59 0.0412191 42.3524 17.59 0.0412191
314 2 44.4432 17.531 1.64943 44.4432 17.531 1.64943
315 2 44.3098 17.4991 -1.63952 44.3098 17.4991 -1.63952
316 1 45.3317 19.2272 -0.0357981 45.3317 19.2272 -0.0357981
317 2 47.543 19.0352 1.60879 47.543 19.0352 1.60879
318 2 47.5839 19.2412 -1.63638 47.5839 19.2412 -1.63638
319 1 48.5119 17.4781 -0.0606448 48.5119 17.4781 -0.0606448
320 2 50.4888 17.4038 1.66101 50.4888 17.4038 1.66101
321 2 50.6173 17.4912 -1.55048 50.6173 17.4912 -1.55048
322 1 51.5151 19.1599 0.0829679 51.5151 19.1599 0.0829679
323 2 53.5734 19.1493 1.69144 53.5734 19.1493 1.69144
324 2 53.5375 19.1172 -1.53617 53.5375 19.1172 -1.53617
325 1 -1.12309 20.7621 0.0149721 -1.12309 20.7621 0.0149721
326 2 1.00977 20.6888 1.72119 1.00977 20.6888 1.72119
327 2 0.933558 20.6699 -1.55708 0.933558 20.6699 -1.55708
328 1 2.0497 22.3904 -0.0253847 2.0497 22.3904 -0.0253847
329 2 3.94686 22.5428 1.56143 3.94686 22.5428 1.56143
330 2 4.10613 22.2477 -1.6597 4.10613 22.2477 -1.6597
331 1 5.1511 20.7469 0.167736 5.1511 20.7469 0.167736
332 2 7.29493 20.8545 1.74902 7.29493 20.8545 1.74902
333 2 7.10873 20.4415 -1.46589 7.10873 20.4415 -1.46589
334 1 8.19483 22.2807 -0.134597 8.19483 22.2807 -0.134597
335 2 9.96495 22.1956 1.7033 9.96495 22.1956 1.7033
336 2 10.3611 22.4489 -1.44877 10.3611 22.4489 -1.44877
337 1 11.2497 20.7181 0.255171 11.2497 20.7181 0.255171
338 2 13.2106 20.8629 1.9822 13.2106 20.8629 1.9822
339 2 13.3744 20.5621 -1.20381 13.3744 20.5621 -1.20381
340 1 14.3649 22.3899 0.217202 14.3649 22.3899 0.217202
341 2 16.3638 22.399 1.76632 16.3638 22.399 1.76632
342 2 16.3315 22.2704 -1.41932 16.3315 22.2704 -1.41932
343 1 17.4141 20.8428 0.257107 17.4141 20.8428 0.257107
344 2 19.4372 21.084 1.89149 19.4372 21.084 1.89149
345 2 19.458 20.5347 -1.36054 19.458 20.5347 -1.36054
346 1 20.578 22.508 0.0255785 20.578 22.508 0.0255785
347 2 22.4866 22.5647 1.81226 22.4866 22.5647 1.81226
348 2 22.7711 22.5444 -1.44555 22.7711 22.5444 -1.44555
349 1 23.6241 20.7917 0.285101 23.6241 20.7917 0.285101
350 2 25.7203 20.7379 1.76714 25.7203 20.7379 1.76714
351 2 25.5571 20.8028 -1.47367 25.5571 20.8028 -1.47367
352 1 26.7313 22.4085 0.0676978 26.7313 22.4085 0.0676978
353 2 28.7792 22.3204 1.63976 28.7792 22.3204 1.63976
354 2 28.7847 22.4241 -1.57168 28.7847 22.4241 -1.57168
355 1 29.8723 20.7505 -0.00196905 29.8723 20.7505 -0.00196905
356 2 32.0042 20.6862 1.54057 32.0042 20.6862 1.54057
357 2 32.0872 20.9 -1.62168 32.0872 20.9 -1.62168
358 1 33.0295 22.536 0.0372833 33.0295 22.536 0.0372833
359 2 35.0113 22.4797 1.71352 35.0113 22.4797 1.71352
360 2 35.0106 22.3934 -1.50607 35.0106 22.3934 -1.50607
361 1 36.0757 20.7891 0.301243 36.0757 20.7891 0.301243
362 2 38.3127 20.7798 1.77106 38.3127 20.7798 1.77106
363 2 37.9902 20.7841 -1.52307 37.9902 20.7841 -1.52307
364 1 39.1265 22.5411 0.0114974 39.1265 22.5411 0.0114974
365 2 41.1969 22.3707 1.61814 41.1969 22.3707 1.61814
366 2 41.0377 22.5399 -1.74677 41.0377 22.5399 -1.74677
367 1 42.3403 20.8223 -0.185374 42.3403 20.8223 -0.185374
368 2 44.3108 20.8847 1.52091 44.3108 20.8847 1.52091
369 2 44.3608 20.8031 -1.78383 44.3608 20.8031 -1.78383
370 1 45.327 22.4378 -0.171496 45.327 22.4378 -0.171496
371 2 47.2944 22.3841 1.69441 47.2944 22.3841 1.69441
372 2 47.5338 22.3668 -1.5606 47.5338 22.3668 -1.5606
373 1 48.4479 20.8 0.147776 48.4479 20.8 0.147776
374 2 50.5301 20.8109 1.63573 50.5301 20.8109 1.63573
375 2 50.4833 20.8388 -1.51435 50.4833 20.8388 -1.51435
376 1 51.4545 22.4826 0.0861746 51.4545 22.4826 0.0861746
377 2 53.7366 22.5766 1.59097 53.7366 22.5766 1.59097
378 2 53.444 22.2479 -1.53888 53.444 22.2479 -1.53888
379 1 -1.1516 24.1181 -0.130448 -1.1516 24.1181 -0.130448
380 2 0.70889 23.992 1.65517 0.70889 23.992 1.65517
381 2 0.92574 24.1196 -1.54 0.92574 24.1196 -1.54
382 1 1.92014 25.6454 0.160345 1.92014 25.6454 0.160345
383 2 3.98973 25.5505 1.71121 3.98973 25.5505 1.71121
384 2 3.89184 25.9406 -1.51636 3.89184 25.9406 -1.51636
385 1 5.05679 24.0836 -0.190453 5.05679 24.0836 -0.190453
386 2 7.12421 23.9071 1.48683 7.12421 23.9071 1.48683
387 2 7.27234 24.0075 -1.77369 7.27234 24.0075 -1.77369
388 1 8.15194 25.6154 -0.0462475 8.15194 25.6154 -0.0462475
389 2 10.1047 25.7418 1.78847 10.1047 25.7418 1.78847
390 2 10.2923 25.6269 -1.47053 10.2923 25.6269 -1.47053
391 1 11.1476 24.0413 0.244821 11.1476 24.0413 0.244821
392 2 13.3769 24.0971 1.79153 13.3769 24.0971 1.79153
393 2 13.2467 23.925 -1.45775 13.2467 23.925 -1.45775
394 1 14.2153 25.7309 0.0324717 14.2153 25.7309 0.0324717
395 2 16.339 25.7384 1.64583 16.339 25.7384 1.64583
396 2 16.276 25.7584 -1.57229 16.276 25.7584 -1.57229
397 1 17.3931 24.0715 -0.00286473 17.3931 24.0715 -0.00286473
398 2 19.4754 24.2227 1.63673 19.4754 24.2227 1.63673
399 2 19.4827 23.9864 -1.60068 19.4827 23.9864 -1.60068
400 1 20.4821 25.7704 -0.0619974 20.4821 25.7704 -0.0619974
401 2 22.4346 25.5596 1.71089 22.4346 25.5596 1.71089
402 2 22.7296 25.8158 -1.50771 22.7296 25.8158 -1.50771
403 1 23.624 24.1383 0.182445 23.624 24.1383 0.182445
404 2 25.7478 24.0128 1.71171 25.7478 24.0128 1.71171
405 2 25.628 24.148 -1.56307 25.628 24.148 -1.56307
406 1 26.8104 25.7494 0.103464 26.8104 25.7494 0.103464
407 2 28.8863 25.8499 1.64017 28.8863 25.8499 1.64017
408 2 28.7654 25.6344 -1.56879 28.7654 25.6344 -1.56879
409 1 29.8091 24.0685 0.0656622 29.8091 24.0685 0.0656622
410 2 31.8969 24.1199 1.6153 31.8969 24.1199 1.6153
411 2 31.8705 24.0386 -1.54542 31.8705 24.0386 -1.54542
412 1 32.9535 25.7893 0.0269943 32.9535 25.7893 0.0269943
413 2 34.9843 26.0095 1.54541 34.9843 26.0095 1.54541
414 2 34.8545 25.51 -1.67347 34.8545 25.51 -1.67347
415 1 36.0445 24.1411 0.118548 36.0445 24.1411 0.118548
416 2 38.0704 24.1233 1.69193 38.0704 24.1233 1.69193
417 2 38.0007 24.0838 -1.51861 38.0007 24.0838 -1.51861
418 1 39.0775 25.6877 0.000295079 39.0775 25.6877 0.000295079
419 2 41.2141 25.6688 1.60481 41.2141 25.6688 1.60481
420 2 41.0081 25.6142 -1.66463 41.0081 25.6142 -1.66463
421 1 42.281 24.0552 -0.00395842 42.281 24.0552 -0.00395842
422 2 44.3015 23.906 1.59642 44.3015 23.906 1.59642
423 2 44.2661 24.0168 -1.60344 44.2661 24.0168 -1.60344
424 1 45.3497 25.6997 0.0871694 45.3497 25.6997 0.0871694
425 2 47.4883 26.0253 1.50646 47.4883 26.0253 1.50646
426 2 47.0998 25.4371 -1.62964 47.0998 25.4371 -1.62964
427 1 48.4376 24.0944 0.223926 48.4376 24.0944 0.223926
428 2 50.5276 24.2241 1.58981 50.5276 24.2241 1.58981
429 2 50.2435 24.0496 -1.52175 50.2435 24.0496 -1.52175
430 1 51.5198 25.7269 -0.107713 51.5198 25.7269 -0.107713
431 2 53.6351 25.7864 1.50276 53.6351 25.7864 1.50276
432 2 53.5425 25.5919 -1.72233 53.5425 25.5919 -1.72233
433 1 -1.18939 27.3187 -0.13171 -1.18939 27.3187 -0.13171
434 2 0.674301 27.355 1.63475 0.674301 27.355 1.63475
435 2 1.11493 27.3958 -1.57026 1.11493 27.3958 -1.57026
436 1 1.88133 29.0392 0.135658 1.88133 29.0392 0.135658
437 2 3.86622 28.9668 1.85704 3.86622 28.9668 1.85704
438 2 4.01388 29.1334 -1.34538 4.01388 29.1334 -1.34538
439 1 4.94337 27.3749 0.297212 4.94337 27.3749 0.297212
440 2 7.18347 27.4186 1.74894 7.18347 27.4186 1.74894
441 2 6.87643 27.3735 -1.38953 6.87643 27.3735 -1.38953
442 1 8.10106 29.0203 0.235824 8.10106 29.0203 0.235824
443 2 10.1876 29.2367 1.66801 10.1876 29.2367 1.66801
444 2 9.97679 28.9326 -1.54447 9.97679 28.9326 -1.54447
445 1 11.1719 27.3527 0.12144 11.1719 27.3527 0.12144
446 2 13.1866 27.5141 1.66559 13.1866 27.5141 1.66559
447 2 13.204 27.2613 -1.59663 13.204 27.2613 -1.59663
448 1 14.2038 28.9947 -0.0519354 14.2038 28.9947 -0.0519354
449 2 16.459 29.1055 1.54524 16.459 29.1055 1.54524
450 2 16.3095 28.8805 -1.64146 16.3095 28.8805 -1.64146
451 1 17.4593 27.3585 0.0430794 17.4593 27.3585 0.0430794
452 2 19.505 27.4403 1.62258 19.505 27.4403 1.62258
453 2 19.2974 27.3306 -1.59755 19.2974 27.3306 -1.59755
454 1 20.524 29.0174 -0.107207 20.524 29.0174 -0.107207
455 2 22.3548 29.0604 1.71862 22.3548 29.0604 1.71862
456 2 22.6168 28.7937 -1.55516 22.6168 28.7937 -1.55516
457 1 23.5296 27.3251 0.291631 23.5296 27.3251 0.291631
458 2 25.7281 27.3531 1.74419 25.7281 27.3531 1.74419
459 2 25.6009 27.5712 -1.48998 25.6009 27.5712 -1.48998
460 1 26.7944 29.0882 0.189047 26.7944 29.0882 0.189047
461 2 28.8448 28.9743 1.70237 28.8448 28.9743 1.70237
462 2 28.7781 29.2643 -1.4954 28.7781 29.2643 -1.4954
463 1 29.8732 27.4714 -0.0309222 29.8732 27.4714 -0.0309222
464 2 31.9181 27.5285 1.55943 31.9181 27.5285 1.55943
465 2 31.8526 27.532 -1.68431 31.8526 27.532 -1.68431
466 1 32.9904 29.0876 -0.00812545 32.9904 29.0876 -0.00812545
467 2 34.9828 29.0802 1.44144 34.9828 29.0802 1.44144
468 2 34.9546 29.0476 -1.81511 34.9546 29.0476 -1.81511
469 1 36.0013 27.4465 -0.229224 36.0013 27.4465 -0.229224
470 2 37.8886 27.4566 1.45678 37.8886 27.4566 1.45678
471 2 38.1854 27.2981 -1.60473 38.1854 27.2981 -1.60473
472 1 39.0926 28.9481 -0.119477 39.0926 28.9481 -0.119477
473 2 41.1207 29.1333 1.4669 41.1207 29.1333 1.4669
474 2 41.0545 28.8577 -1.91442 41.0545 28.8577 -1.91442
475 1 42.1481 27.3381 -0.106071 42.1481 27.3381 -0.106071
476 2 44.168 27.6918 1.40059 44.168 27.6918 1.40059
477 2 44.1852 27.0463 -1.82616 44.1852 27.0463 -1.82616
478 1 45.3114 28.9247 -0.561933 45.3114 28.9247 -0.561933
479 2 47.2585 28.8652 1.1951 47.2585 28.8652 1.1951
480 2 47.6009 29.0434 -2.09046 47.6009 29.0434 -2.09046
481 1 48.5067 27.3407 -0.448267 48.5067 27.3407 -0.448267
482 2 50.4352 27.5428 1.20607 50.4352 27.5428 1.20607
483 2 50.6195 27.0633 -1.98 50.6195 27.0633 -1.98
484 1 51.4865 28.9337 -0.496654 51.4865 28.9337 -0.496654
485 2 53.4109 28.9896 1.4049 53.4109 28.9896 1.4049
486 2 53.731 28.9354 -1.84894 53.731 28.9354 -1.84894
487 1 -1.31461 30.6585 -0.0546357 -1.31461 30.6585 -0.0546357
488 2 0.751228 30.7771 1.66053 0.751228 30.7771 1.66053
489 2 0.754093 30.5178 -1.62518 0.754093 30.5178 -1.62518
490 1 1.86794 32.3334 -0.107851 1.86794 32.3334 -0.107851
491 2 3.78384 32.4749 1.69753 3.78384 32.4749 1.69753
492 2 4.08531 32.1072 -1.63217 4.08531 32.1072 -1.63217
493 1 4.92994 30.7486 0.389993 4.92994 30.7486 0.389993
494 2 7.16002 30.8115 1.82141 7.16002 30.8115 1.82141
495 2 6.82996 30.4429 -1.38148 6.82996 30.4429 -1.38148
496 1 7.9984 32.3344 0.0249044 7.9984 32.3344 0.0249044
497 2 10.044 32.3718 1.55071 10.044 32.3718 1.55071
498 2 10.0044 32.4152 -1.69381 10.0044 32.4152 -1.69381
499 1 11.172 30.7015 -0.119586 11.172 30.7015 -0.119586
500 2 13.1393 30.8325 1.59193 13.1393 30.8325 1.59193
501 2 13.1383 30.6844 -1.77925 13.1383 30.6844 -1.77925
502 1 14.2665 32.2739 -0.215083 14.2665 32.2739 -0.215083
503 2 16.2668 32.3075 1.49183 16.2668 32.3075 1.49183
504 2 16.3926 32.3433 -1.79301 16.3926 32.3433 -1.79301
505 1 17.3175 30.6813 -0.202146 17.3175 30.6813 -0.202146
506 2 19.3398 30.4947 1.45986 19.3398 30.4947 1.45986
507 2 19.4496 30.6076 -1.75676 19.4496 30.6076 -1.75676
508 1 20.578 32.1544 -0.0678602 20.578 32.1544 -0.0678602
509 2 22.478 32.2831 1.61085 22.478 32.2831 1.61085
510 2 22.6183 32.1633 -1.55454 22.6183 32.1633 -1.55454
511 1 23.6359 30.6448 0.0592509 23.6359 30.6448 0.0592509
512 2 25.6037 30.7008 1.7768 25.6037 30.7008 1.7768
513 2 25.7698 30.6932 -1.44433 25.7698 30.6932 -1.44433
514 1 26.7878 32.3466 0.16361 26.7878 32.3466 0.16361
515 2 28.8642 32.4648 1.73069 28.8642 32.4648 1.73069
516 2 28.9069 32.3319 -1.52918 28.9069 32.3319 -1.52918
517 1 29.9622 30.7302 0.191889 29.9622 30.7302 0.191889
518 2 32.1243 30.6633 1.70734 32.1243 30.6633 1.70734
519 2 31.9815 30.7124 -1.47841 31.9815 30.7124 -1.47841
520 1 33.0021 32.3978 0.144435 33.0021 32.3978 0.144435
521 2 35.0237 32.3841 1.61511 35.0237 32.3841 1.61511
522 2 34.8607 32.4101 -1.63589 34.8607 32.4101 -1.63589
523 1 35.9819 30.6929 -0.184431 35.9819 30.6929 -0.184431
524 2 38.1074 30.7448 1.45353 38.1074 30.7448 1.45353
525 2 38.0513 30.4823 -1.82782 38.0513 30.4823 -1.82782
526 1 39.076 32.2897 -0.293232 39.076 32.2897 -0.293232
527 2 41.1941 32.3323 1.16086 41.1941 32.3323 1.16086
528 2 40.9266 32.0925 -2.05371 40.9266 32.0925 -2.05371
529 1 42.2055 30.6115 -0.402771 42.2055 30.6115 -0.402771
530 2 44.3069 30.5449 1.13024 44.3069 30.5449 1.13024
531 2 44.1745 30.5829 -2.13854 44.1745 30.5829 -2.13854
532 1 45.3515 32.2528 -0.427279 45.3515 32.2528 -0.427279
533 2 47.2351 32.2349 1.31911 47.2351 32.2349 1.31911
534 2 47.4178 32.2682 -1.94304 47.4178 32.2682 -1.94304
535 1 48.3296 30.6545 -0.258025 48.3296 30.6545 -0.258025
536 2 50.3967 30.5707 1.33171 50.3967 30.5707 1.33171
537 2 50.398 30.8667 -1.88825 50.398 30.8667 -1.88825
538 1 51.489 32.3125 -0.0822499 51.489 32.3125 -0.0822499