ITEM: TIMESTEP
266000
ITEM: NUMBER OF ATOMS
810
ITEM: BOX BOUNDS pp pp pp
1.1965453665213710e-01 5.2897950463348330e+01
8.0582000660415243e-01 5.0210394993394715e+01
-1.0000000000000000e+01 1.0000000000000000e+01
ITEM: ATOMS id type x y z xu yu zu
1 1 0.316166 0.926901 -0.00338795 0.316166 0.926901 -0.00338795
2 2 2.14532 1.008 1.6694 2.14532 1.008 1.6694
3 2 2.27244 1.05336 -1.60574 2.27244 1.05336 -1.60574
4 1 3.22434 2.63437 0.0504817 3.22434 2.63437 0.0504817
5 2 5.20328 2.79101 1.75038 5.20328 2.79101 1.75038
6 2 5.28456 2.62392 -1.45949 5.28456 2.62392 -1.45949
7 1 6.23822 1.02256 0.225807 6.23822 1.02256 0.225807
8 2 8.34211 0.848803 1.63752 8.34211 0.848803 1.63752
9 2 8.05423 1.10489 -1.63846 8.05423 1.10489 -1.63846
10 1 9.16552 2.61063 0.124269 9.16552 2.61063 0.124269
11 2 11.109 2.63619 1.70924 11.109 2.63619 1.70924
12 2 10.9844 2.64058 -1.63099 10.9844 2.64058 -1.63099
13 1 12.0023 1.08415 -0.0646002 12.0023 1.08415 -0.0646002
14 2 14.0745 1.12791 1.58996 14.0745 1.12791 1.58996
15 2 13.8862 1.16053 -1.72174 13.8862 1.16053 -1.72174
16 1 15.0274 2.68734 -0.0561943 15.0274 2.68734 -0.0561943
17 2 17.0556 2.74595 1.55024 17.0556 2.74595 1.55024
18 2 16.8979 2.61071 -1.77709 16.8979 2.61071 -1.77709
19 1 17.8443 0.960671 -0.125901 17.8443 0.960671 -0.125901
20 2 19.8474 1.0199 1.40603 19.8474 1.0199 1.40603
21 2 19.8076 0.989551 -1.82165 19.8076 0.989551 -1.82165
22 1 20.8122 2.74748 -0.24572 20.8122 2.74748 -0.24572
23 2 22.6739 2.81374 1.62064 22.6739 2.81374 1.62064
24 2 22.9182 2.49431 -1.70455 22.9182 2.49431 -1.70455
25 1 23.7383 1.04824 0.131318 23.7383 1.04824 0.131318
26 2 25.5978 0.910129 1.89288 25.5978 0.910129 1.89288
27 2 25.6811 0.979818 -1.36463 25.6811 0.979818 -1.36463
28 1 26.6833 2.57595 0.316846 26.6833 2.57595 0.316846
29 2 28.7463 2.73947 1.87736 28.7463 2.73947 1.87736
30 2 28.4868 2.4271 -1.33146 28.4868 2.4271 -1.33146
31 1 29.6371 0.906417 0.376995 29.6371 0.906417 0.376995
32 2 31.7434 0.899386 1.78721 31.7434 0.899386 1.78721
33 2 31.3658 1.07548 -1.38776 31.3658 1.07548 -1.38776
34 1 32.6087 2.54244 0.164243 32.6087 2.54244 0.164243
35 2 34.5474 2.66493 1.91868 34.5474 2.66493 1.91868
36 2 34.7209 2.73168 -1.25672 34.7209 2.73168 -1.25672
37 1 35.6169 0.966371 0.390531 35.6169 0.966371 0.390531
38 2 37.6716 0.919515 1.89241 37.6716 0.919515 1.89241
39 2 37.3239 1.23584 -1.33951 37.3239 1.23584 -1.33951
40 1 38.4418 2.73508 0.307931 38.4418 2.73508 0.307931
41 2 40.3474 2.43768 2.13346 40.3474 2.43768 2.13346
42 2 40.5569 2.96238 -1.14269 40.5569 2.96238 -1.14269
43 1 41.3575 1.0111 0.340922 41.3575 1.0111 0.340922
44 2 43.1978 1.04611 2.02167 43.1978 1.04611 2.02167
45 2 43.3835 1.1228 -1.3159 43.3835 1.1228 -1.3159
46 1 44.2793 2.64539 0.392552 44.2793 2.64539 0.392552
47 2 46.2659 2.75534 1.96111 46.2659 2.75534 1.96111
48 2 46.1911 2.73512 -1.2945 46.1911 2.73512 -1.2945
49 1 47.1703 1.02416 0.235558 47.1703 1.02416 0.235558
50 2 49.1552 50.4621 1.75738 49.1552 1.05752 1.75738
51 2 48.939 0.989173 -1.54868 48.939 0.989173 -1.54868
52 1 50.2359 2.56779 -0.0445667 50.2359 2.56779 -0.0445667
53 2 52.0948 2.53916 1.68422 52.0948 2.53916 1.68422
54 2 52.203 2.57283 -1.63171 52.203 2.57283 -1.63171
55 1 0.430322 4.26435 0.138167 0.430322 4.26435 0.138167
56 2 2.41893 4.13558 1.69685 2.41893 4.13558 1.69685
57 2 2.21384 4.21828 -1.62856 2.21384 4.21828 -1.62856
58 1 3.35725 5.89611 -0.0646711 3.35725 5.89611 -0.0646711
59 2 5.14273 5.76506 1.77447 5.14273 5.76506 1.77447
60 2 5.36652 6.01111 -1.48751 5.36652 6.01111 -1.48751
61 1 6.21927 4.33305 0.101396 6.21927 4.33305 0.101396
62 2 8.09555 4.18014 1.81418 8.09555 4.18014 1.81418
63 2 8.40156 4.46757 -1.44454 8.40156 4.46757 -1.44454
64 1 9.17792 5.99197 0.412912 9.17792 5.99197 0.412912
65 2 11.3253 5.92557 1.72244 11.3253 5.92557 1.72244
66 2 10.904 6.00862 -1.47001 10.904 6.00862 -1.47001
67 1 12.0931 4.34697 -0.0246717 12.0931 4.34697 -0.0246717
68 2 14.0269 4.35025 1.50376 14.0269 4.35025 1.50376
69 2 14.0116 4.34996 -1.66625 14.0116 4.34996 -1.66625
70 1 15.0912 6.01343 -0.0054175 15.0912 6.01343 -0.0054175
71 2 17.026 6.00669 1.49672 17.026 6.00669 1.49672
72 2 16.891 6.16445 -1.71783 16.891 6.16445 -1.71783
73 1 17.9581 4.44792 -0.161993 17.9581 4.44792 -0.161993
74 2 19.9519 4.36166 1.4476 19.9519 4.36166 1.4476
75 2 19.881 4.36906 -1.80337 19.881 4.36906 -1.80337
76 1 20.869 5.99159 -0.170886 20.869 5.99159 -0.170886
77 2 22.7402 5.95524 1.46991 22.7402 5.95524 1.46991
78 2 22.9211 6.01392 -1.71014 22.9211 6.01392 -1.71014
79 1 23.823 4.28443 -0.00553252 23.823 4.28443 -0.00553252
80 2 25.5875 4.24951 1.78453 25.5875 4.24951 1.78453
81 2 25.9414 4.25557 -1.4089 25.9414 4.25557 -1.4089
82 1 26.7031 5.93472 0.280062 26.7031 5.93472 0.280062
83 2 28.6551 5.7611 1.84666 28.6551 5.7611 1.84666
84 2 28.5374 6.01134 -1.39702 28.5374 6.01134 -1.39702
85 1 29.6193 4.21939 -0.0224214 29.6193 4.21939 -0.0224214
86 2 31.4883 4.2952 1.63252 31.4883 4.2952 1.63252
87 2 31.655 4.04734 -1.50926 31.655 4.04734 -1.50926
88 1 32.6031 5.88142 -0.025731 32.6031 5.88142 -0.025731
89 2 34.2185 5.87552 1.83674 34.2185 5.87552 1.83674
90 2 34.8032 5.92384 -1.39486 34.8032 5.92384 -1.39486
91 1 35.5474 4.31947 0.309337 35.5474 4.31947 0.309337
92 2 37.5124 4.31977 1.97519 37.5124 4.31977 1.97519
93 2 37.4576 4.36692 -1.26646 37.4576 4.36692 -1.26646
94 1 38.447 6.01484 0.417278 38.447 6.01484 0.417278
95 2 40.3266 6.17325 2.22251 40.3266 6.17325 2.22251
96 2 40.5472 5.92537 -1.0285 40.5472 5.92537 -1.0285
97 1 41.3897 4.39187 0.790632 41.3897 4.39187 0.790632
98 2 43.4622 4.21399 2.21622 43.4622 4.21399 2.21622
99 2 43.2105 4.60007 -0.892176 43.2105 4.60007 -0.892176
100 1 44.4028 6.02582 0.788483 44.4028 6.02582 0.788483
101 2 46.4689 5.96598 2.15876 46.4689 5.96598 2.15876
102 2 46.0783 6.01519 -1.07936 46.0783 6.01519 -1.07936
103 1 47.2674 4.3389 0.369336 47.2674 4.3389 0.369336
104 2 49.3496 4.1469 1.82464 49.3496 4.1469 1.82464
105 2 49.0591 4.39941 -1.44961 49.0591 4.39941 -1.44961
106 1 50.234 5.79202 0.336727 50.234 5.79202 0.336727
107 2 52.2718 5.71938 1.87867 52.2718 5.71938 1.87867
108 2 52.2433 5.9962 -1.35772 52.2433 5.9962 -1.35772
109 1 0.409671 7.62231 0.370668 0.409671 7.62231 0.370668
110 2 2.41308 7.32505 1.78258 2.41308 7.32505 1.78258
111 2 2.29951 7.86721 -1.36633 2.29951 7.86721 -1.36633
112 1 3.39947 9.24054 0.514182 3.39947 9.24054 0.514182
113 2 5.39572 9.21711 2.13884 5.39572 9.21711 2.13884
114 2 5.31663 9.31245 -1.19492 5.31663 9.31245 -1.19492
115 1 6.21252 7.58366 0.307745 6.21252 7.58366 0.307745
116 2 8.07118 7.68371 1.98172 8.07118 7.68371 1.98172
117 2 8.24441 7.55636 -1.27824 8.24441 7.55636 -1.27824
118 1 9.2162 9.32923 0.338976 9.2162 9.32923 0.338976
119 2 11.2997 9.32694 1.86602 11.2997 9.32694 1.86602
120 2 10.944 9.35296 -1.36224 10.944 9.35296 -1.36224
121 1 12.0985 7.70723 0.129091 12.0985 7.70723 0.129091
122 2 14.1407 7.6985 1.67787 14.1407 7.6985 1.67787
123 2 14.0109 7.70906 -1.6189 14.0109 7.70906 -1.6189
124 1 15.0545 9.38745 0.0600285 15.0545 9.38745 0.0600285
125 2 17.013 9.16514 1.70124 17.013 9.16514 1.70124
126 2 16.9201 9.18876 -1.68378 16.9201 9.18876 -1.68378
127 1 17.9723 7.68191 -0.0957657 17.9723 7.68191 -0.0957657
128 2 19.8111 7.64753 1.59104 19.8111 7.64753 1.59104
129 2 19.9439 7.78205 -1.70208 19.9439 7.78205 -1.70208
130 1 20.916 9.29836 -0.0534059 20.916 9.29836 -0.0534059
131 2 22.7678 9.15814 1.63449 22.7678 9.15814 1.63449
132 2 22.9907 9.33156 -1.52617 22.9907 9.33156 -1.52617
133 1 23.907 7.58958 -0.0282864 23.907 7.58958 -0.0282864
134 2 25.6598 7.68049 1.72438 25.6598 7.68049 1.72438
135 2 25.9087 7.50683 -1.56016 25.9087 7.50683 -1.56016
136 1 26.7074 9.19585 0.0791837 26.7074 9.19585 0.0791837
137 2 28.7049 9.38094 1.79188 28.7049 9.38094 1.79188
138 2 28.7219 9.17864 -1.47064 28.7219 9.17864 -1.47064
139 1 29.6096 7.5339 0.329645 29.6096 7.5339 0.329645
140 2 31.6901 7.54536 1.80032 31.6901 7.54536 1.80032
141 2 31.4077 7.67744 -1.41085 31.4077 7.67744 -1.41085
142 1 32.4869 9.19206 0.223451 32.4869 9.19206 0.223451
143 2 34.3418 9.3339 1.96644 34.3418 9.3339 1.96644
144 2 34.5305 9.09971 -1.28622 34.5305 9.09971 -1.28622
145 1 35.4531 7.60368 0.431324 35.4531 7.60368 0.431324
146 2 37.3676 7.76575 2.02125 37.3676 7.76575 2.02125
147 2 37.4153 7.55239 -1.29064 37.4153 7.55239 -1.29064
148 1 38.4417 9.27327 0.224619 38.4417 9.27327 0.224619
149 2 40.2201 9.38858 1.99025 40.2201 9.38858 1.99025
150 2 40.5522 9.19848 -1.14169 40.5522 9.19848 -1.14169
151 1 41.4332 7.6387 0.544744 41.4332 7.6387 0.544744
152 2 43.3647 7.77968 2.21513 43.3647 7.77968 2.21513
153 2 43.3889 7.4684 -0.999052 43.3889 7.4684 -0.999052
154 1 44.3602 9.28151 0.392759 44.3602 9.28151 0.392759
155 2 46.2826 9.22217 2.06434 46.2826 9.22217 2.06434
156 2 46.4507 9.21994 -1.21967 46.4507 9.21994 -1.21967
157 1 47.2988 7.53447 0.431617 47.2988 7.53447 0.431617
158 2 49.3254 7.53124 2.06015 49.3254 7.53124 2.06015
159 2 49.2972 7.50339 -1.2751 49.2972 7.50339 -1.2751
160 1 50.345 9.18726 0.414051 50.345 9.18726 0.414051
161 2 52.2658 9.2758 1.94862 52.2658 9.2758 1.94862
162 2 52.2199 9.20881 -1.29848 52.2199 9.20881 -1.29848
163 1 0.427048 10.9628 0.344482 0.427048 10.9628 0.344482
164 2 2.22385 10.8935 2.123 2.22385 10.8935 2.123
165 2 2.46255 10.8986 -1.1779 2.46255 10.8986 -1.1779
166 1 3.32955 12.559 0.528918 3.32955 12.559 0.528918
167 2 5.39463 12.6992 2.06614 5.39463 12.6992 2.06614
168 2 5.14665 12.5706 -1.23728 5.14665 12.5706 -1.23728
169 1 6.32996 10.8926 0.487969 6.32996 10.8926 0.487969
170 2 8.27095 10.9783 1.99246 8.27095 10.9783 1.99246
171 2 8.20461 10.9315 -1.25553 8.20461 10.9315 -1.25553
172 1 9.11044 12.6443 0.270975 9.11044 12.6443 0.270975
173 2 11.1876 12.6408 1.7277 11.1876 12.6408 1.7277
174 2 10.97 12.4578 -1.51377 10.97 12.4578 -1.51377
175 1 12.0919 10.8846 0.1337 12.0919 10.8846 0.1337
176 2 14.1615 11.0521 1.582 14.1615 11.0521 1.582
177 2 13.9241 10.9097 -1.59222 13.9241 10.9097 -1.59222
178 1 15.0682 12.6331 -0.157895 15.0682 12.6331 -0.157895
179 2 17.0673 12.6652 1.41816 17.0673 12.6652 1.41816
180 2 16.9346 12.3532 -1.81812 16.9346 12.3532 -1.81812
181 1 18.0133 10.8206 -0.0383053 18.0133 10.8206 -0.0383053
182 2 20.0721 10.9927 1.49855 20.0721 10.9927 1.49855
183 2 19.8108 10.684 -1.77889 19.8108 10.684 -1.77889
184 1 20.924 12.5394 -0.267296 20.924 12.5394 -0.267296
185 2 22.7723 12.6293 1.57779 22.7723 12.6293 1.57779
186 2 23.0916 12.454 -1.6294 23.0916 12.454 -1.6294
187 1 23.7938 10.9617 0.231499 23.7938 10.9617 0.231499
188 2 25.9461 11.1347 1.69852 25.9461 11.1347 1.69852
189 2 25.6349 10.7395 -1.60998 25.6349 10.7395 -1.60998
190 1 26.7718 12.6319 -0.0947142 26.7718 12.6319 -0.0947142
191 2 28.547 12.6073 1.64011 28.547 12.6073 1.64011
192 2 28.7845 12.4831 -1.60745 28.7845 12.4831 -1.60745
193 1 29.6306 10.8544 0.0591204 29.6306 10.8544 0.0591204
194 2 31.4485 10.9987 1.80877 31.4485 10.9987 1.80877
195 2 31.6023 10.818 -1.39144 31.6023 10.818 -1.39144
196 1 32.6313 12.459 0.18318 32.6313 12.459 0.18318
197 2 34.4567 12.4402 1.80482 34.4567 12.4402 1.80482
198 2 34.408 12.4762 -1.50732 34.408 12.4762 -1.50732
199 1 35.5298 10.8649 0.195295 35.5298 10.8649 0.195295
200 2 37.5874 10.8989 1.83605 37.5874 10.8989 1.83605
201 2 37.5468 10.8813 -1.44298 37.5468 10.8813 -1.44298
202 1 38.4978 12.544 0.231495 38.4978 12.544 0.231495
203 2 40.4243 12.7615 1.75018 40.4243 12.7615 1.75018
204 2 40.4324 12.3674 -1.48841 40.4324 12.3674 -1.48841
205 1 41.4392 10.934 0.352799 41.4392 10.934 0.352799
206 2 43.4699 11.0689 1.9552 43.4699 11.0689 1.9552
207 2 43.1768 10.9357 -1.25366 43.1768 10.9357 -1.25366
208 1 44.3735 12.5933 0.222182 44.3735 12.5933 0.222182
209 2 46.2673 12.6769 1.88539 46.2673 12.6769 1.88539
210 2 46.2509 12.4386 -1.3627 46.2509 12.4386 -1.3627
211 1 47.3364 10.8411 0.388624 47.3364 10.8411 0.388624
212 2 49.167 10.9198 2.05087 49.167 10.9198 2.05087
213 2 49.3766 10.8579 -1.21124 49.3766 10.8579 -1.21124
214 1 50.3184 12.553 0.370253 50.3184 12.553 0.370253
215 2 52.2813 12.6377 1.97953 52.2813 12.6377 1.97953
216 2 52.1218 12.5402 -1.37653 52.1218 12.5402 -1.37653
217 1 0.341583 14.2009 0.282723 0.341583 14.2009 0.282723
218 2 2.17958 14.3083 1.95686 2.17958 14.3083 1.95686
219 2 2.37077 14.0916 -1.23744 2.37077 14.0916 -1.23744
220 1 3.27911 15.8661 0.348887 3.27911 15.8661 0.348887
221 2 5.24071 15.7986 1.92354 5.24071 15.7986 1.92354
222 2 5.195 16.0546 -1.32648 5.195 16.0546 -1.32648
223 1 6.2079 14.3486 0.15681 6.2079 14.3486 0.15681
224 2 8.06828 14.3219 1.86973 8.06828 14.3219 1.86973
225 2 8.12806 14.2672 -1.41639 8.12806 14.2672 -1.41639
226 1 9.17822 15.9737 0.148575 9.17822 15.9737 0.148575
227 2 11.2316 15.8083 1.70339 11.2316 15.8083 1.70339
228 2 10.909 15.7837 -1.61456 10.909 15.7837 -1.61456
229 1 12.0959 14.1726 -0.0227708 12.0959 14.1726 -0.0227708
230 2 14.1566 14.3206 1.47226 14.1566 14.3206 1.47226
231 2 14.0218 14.2515 -1.86643 14.0218 14.2515 -1.86643
232 1 15.0098 15.8587 -0.228692 15.0098 15.8587 -0.228692
233 2 17.0738 15.8946 1.23645 17.0738 15.8946 1.23645
234 2 16.8061 15.8385 -2.02247 16.8061 15.8385 -2.02247
235 1 17.9713 14.1949 -0.381621 17.9713 14.1949 -0.381621
236 2 19.8526 14.2762 1.22924 19.8526 14.2762 1.22924
237 2 20.0488 14.1681 -2.00154 20.0488 14.1681 -2.00154
238 1 20.9189 15.8607 -0.460629 20.9189 15.8607 -0.460629
239 2 22.7562 16.0189 1.35485 22.7562 16.0189 1.35485
240 2 23.0242 15.725 -1.90924 23.0242 15.725 -1.90924
241 1 23.8864 14.3314 -0.000506459 23.8864 14.3314 -0.000506459
242 2 25.8592 14.2708 1.56407 25.8592 14.2708 1.56407
243 2 25.8229 14.235 -1.63153 25.8229 14.235 -1.63153
244 1 26.7633 15.954 0.00934206 26.7633 15.954 0.00934206
245 2 28.7187 16.114 1.64775 28.7187 16.114 1.64775
246 2 28.5987 15.7571 -1.5831 28.5987 15.7571 -1.5831
247 1 29.6276 14.2139 0.0613495 29.6276 14.2139 0.0613495
248 2 31.6721 14.3996 1.61799 31.6721 14.3996 1.61799
249 2 31.5002 13.9603 -1.65631 31.5002 13.9603 -1.65631
250 1 32.6695 15.8449 -0.141249 32.6695 15.8449 -0.141249
251 2 34.4934 15.9186 1.65839 34.4934 15.9186 1.65839
252 2 34.7326 15.7758 -1.57028 34.7326 15.7758 -1.57028
253 1 35.4895 14.1913 0.224737 35.4895 14.1913 0.224737
254 2 37.5079 14.2155 1.84697 37.5079 14.2155 1.84697
255 2 37.421 14.1213 -1.4151 37.421 14.1213 -1.4151
256 1 38.4473 15.8233 0.0776608 38.4473 15.8233 0.0776608
257 2 40.513 16.0824 1.47235 40.513 16.0824 1.47235
258 2 40.2336 15.5768 -1.75238 40.2336 15.5768 -1.75238
259 1 41.3804 14.2201 -0.0144987 41.3804 14.2201 -0.0144987
260 2 43.1257 14.4434 1.68144 43.1257 14.4434 1.68144
261 2 43.3705 14.0542 -1.66843 43.3705 14.0542 -1.66843
262 1 44.2696 15.8619 -0.100636 44.2696 15.8619 -0.100636
263 2 46.1351 15.9334 1.6943 46.1351 15.9334 1.6943
264 2 46.3306 15.6866 -1.60104 46.3306 15.6866 -1.60104
265 1 47.2766 14.2798 0.0918648 47.2766 14.2798 0.0918648
266 2 49.1615 14.2356 1.79183 49.1615 14.2356 1.79183
267 2 49.3717 14.1066 -1.40281 49.3717 14.1066 -1.40281
268 1 50.2334 15.94 0.206595 50.2334 15.94 0.206595
269 2 52.1514 15.9284 1.77344 52.1514 15.9284 1.77344
270 2 52.3237 15.8586 -1.45363 52.3237 15.8586 -1.45363
271 1 0.345492 17.6598 0.126598 0.345492 17.6598 0.126598
272 2 2.02902 17.6741 1.93013 2.02902 17.6741 1.93013
273 2 2.42738 17.5511 -1.29676 2.42738 17.5511 -1.29676
274 1 3.23964 19.2295 0.505252 3.23964 19.2295 0.505252
275 2 5.30543 19.2722 1.95664 5.30543 19.2722 1.95664
276 2 5.09268 19.1725 -1.3234 5.09268 19.1725 -1.3234
277 1 6.16778 17.6321 0.235706 6.16778 17.6321 0.235706
278 2 8.16188 17.529 1.83837 8.16188 17.529 1.83837
279 2 8.19295 17.5586 -1.44034 8.19295 17.5586 -1.44034
280 1 9.23535 19.1704 0.15027 9.23535 19.1704 0.15027
281 2 11.3544 19.1817 1.53244 11.3544 19.1817 1.53244
282 2 10.9651 19.0811 -1.71727 10.9651 19.0811 -1.71727
283 1 12.0925 17.4366 -0.0704858 12.0925 17.4366 -0.0704858
284 2 14.0769 17.5765 1.40737 14.0769 17.5765 1.40737
285 2 13.9303 17.3231 -1.85415 13.9303 17.3231 -1.85415
286 1 15.0116 19.1287 -0.41527 15.0116 19.1287 -0.41527
287 2 17.0528 19.122 1.15129 17.0528 19.122 1.15129
288 2 16.9264 19.0048 -2.11869 16.9264 19.0048 -2.11869
289 1 17.9966 17.4016 -0.497408 17.9966 17.4016 -0.497408
290 2 19.9021 17.4899 1.13943 19.9021 17.4899 1.13943
291 2 19.9181 17.5814 -2.07553 19.9181 17.5814 -2.07553
292 1 20.9383 19.1212 -0.393178 20.9383 19.1212 -0.393178
293 2 22.9874 19.2298 1.20605 22.9874 19.2298 1.20605
294 2 22.8288 19.2262 -2.07471 22.8288 19.2262 -2.07471
295 1 23.8431 17.5223 -0.392239 23.8431 17.5223 -0.392239
296 2 25.6266 17.7307 1.41964 25.6266 17.7307 1.41964
297 2 25.9796 17.4542 -1.79678 25.9796 17.4542 -1.79678
298 1 26.8969 19.1874 -0.234521 26.8969 19.1874 -0.234521
299 2 28.766 19.3065 1.37139 28.766 19.3065 1.37139
300 2 28.8491 19.0832 -1.94058 28.8491 19.0832 -1.94058
301 1 29.7308 17.5683 -0.160945 29.7308 17.5683 -0.160945
302 2 31.6763 17.5465 1.44222 31.6763 17.5465 1.44222
303 2 31.6465 17.3719 -1.77651 31.6465 17.3719 -1.77651
304 1 32.5472 19.1617 -0.218355 32.5472 19.1617 -0.218355
305 2 34.3876 19.3989 1.45025 34.3876 19.3989 1.45025
306 2 34.4954 19.0181 -1.73344 34.4954 19.0181 -1.73344
307 1 35.5775 17.4959 0.0487228 35.5775 17.4959 0.0487228
308 2 37.6012 17.7473 1.45526 37.6012 17.7473 1.45526
309 2 37.4329 17.3459 -1.6642 37.4329 17.3459 -1.6642
310 1 38.463 19.2732 -0.286937 38.463 19.2732 -0.286937
311 2 40.4441 19.2632 1.3152 40.4441 19.2632 1.3152
312 2 40.2088 19.3232 -1.94635 40.2088 19.3232 -1.94635
313 1 41.2986 17.5553 -0.401002 41.2986 17.5553 -0.401002
314 2 43.2054 17.6073 1.41049 43.2054 17.6073 1.41049
315 2 43.3639 17.5051 -1.84909 43.3639 17.5051 -1.84909
316 1 44.3004 19.1868 -0.0857171 44.3004 19.1868 -0.0857171
317 2 46.2448 19.1472 1.5793 46.2448 19.1472 1.5793
318 2 46.3031 19.0415 -1.62308 46.3031 19.0415 -1.62308
319 1 47.263 17.3893 0.0390463 47.263 17.3893 0.0390463
320 2 49.0826 17.5715 1.76433 49.0826 17.5715 1.76433
321 2 49.2763 17.5704 -1.48783 49.2763 17.5704 -1.48783
322 1 50.2566 19.182 0.0693392 50.2566 19.182 0.0693392
323 2 52.0824 19.211 1.74856 52.0824 19.211 1.74856
324 2 52.171 19.2945 -1.58859 52.171 19.2945 -1.58859
325 1 0.393989 20.8377 0.103968 0.393989 20.8377 0.103968
326 2 2.21919 21.0429 1.88413 2.21919 21.0429 1.88413
327 2 2.28591 20.6265 -1.35801 2.28591 20.6265 -1.35801
328 1 3.27217 22.4352 0.158824 3.27217 22.4352 0.158824
329 2 5.25388 22.6293 1.70038 5.25388 22.6293 1.70038
330 2 5.08172 22.2613 -1.49025 5.08172 22.2613 -1.49025
331 1 6.2598 20.8527 0.266986 6.2598 20.8527 0.266986
332 2 8.29074 20.9981 1.68212 8.29074 20.9981 1.68212
333 2 8.09492 20.6207 -1.46971 8.09492 20.6207 -1.46971
334 1 9.13193 22.4761 -0.217105 9.13193 22.4761 -0.217105
335 2 11.1915 22.442 1.24683 11.1915 22.442 1.24683
336 2 10.9513 22.3467 -2.05568 10.9513 22.3467 -2.05568
337 1 12.1381 20.8271 -0.346485 12.1381 20.8271 -0.346485
338 2 14.1875 20.7311 1.202 14.1875 20.7311 1.202
339 2 13.9527 20.6936 -2.12601 13.9527 20.6936 -2.12601
340 1 15.025 22.3795 -0.595094 15.025 22.3795 -0.595094
341 2 16.8641 22.3003 1.16759 16.8641 22.3003 1.16759
342 2 17.0386 22.3872 -2.17397 17.0386 22.3872 -2.17397
343 1 17.9891 20.6815 -0.538069 17.9891 20.6815 -0.538069
344 2 19.9334 20.7551 1.19944 19.9334 20.7551 1.19944
345 2 20.0793 20.7191 -2.07306 20.0793 20.7191 -2.07306
346 1 20.9527 22.4624 -0.494313 20.9527 22.4624 -0.494313
347 2 22.9865 22.5442 0.979344 22.9865 22.5442 0.979344
348 2 22.7191 22.2513 -2.28167 22.7191 22.2513 -2.28167
349 1 23.9115 20.8442 -0.556137 23.9115 20.8442 -0.556137
350 2 25.8226 21.1572 1.07415 25.8226 21.1572 1.07415
351 2 25.9701 20.597 -2.1445 25.9701 20.597 -2.1445
352 1 26.8379 22.4924 -0.805574 26.8379 22.4924 -0.805574
353 2 28.4556 22.4853 1.03522 28.4556 22.4853 1.03522
354 2 28.9889 22.5217 -2.07591 28.9889 22.5217 -2.07591
355 1 29.7047 20.8795 -0.368763 29.7047 20.8795 -0.368763
356 2 31.4776 20.7048 1.37442 31.4776 20.7048 1.37442
357 2 31.6693 20.7658 -1.82587 31.6693 20.7658 -1.82587
358 1 32.5444 22.3369 -0.137339 32.5444 22.3369 -0.137339
359 2 34.5918 22.5111 1.36169 34.5918 22.5111 1.36169
360 2 34.4201 22.3671 -1.98242 34.4201 22.3671 -1.98242
361 1 35.488 20.8437 -0.209055 35.488 20.8437 -0.209055
362 2 37.4999 20.8295 1.3248 37.4999 20.8295 1.3248
363 2 37.3566 20.8044 -1.86563 37.3566 20.8044 -1.86563
364 1 38.4987 22.4798 -0.347846 38.4987 22.4798 -0.347846
365 2 40.5443 22.6369 1.12795 40.5443 22.6369 1.12795
366 2 40.3207 22.3234 -2.07775 40.3207 22.3234 -2.07775
367 1 41.3583 20.7847 -0.334583 41.3583 20.7847 -0.334583
368 2 43.2116 20.9462 1.31754 43.2116 20.9462 1.31754
369 2 43.3896 20.6823 -1.90224 43.3896 20.6823 -1.90224
370 1 44.3046 22.4409 -0.387642 44.3046 22.4409 -0.387642
371 2 46.0794 22.3309 1.3667 46.0794 22.3309 1.3667
372 2 46.3969 22.3692 -1.74928 46.3969 22.3692 -1.74928
373 1 47.2356 20.7586 -0.132637 47.2356 20.7586 -0.132637
374 2 49.0173 20.6991 1.65173 49.0173 20.6991 1.65173
375 2 49.3103 20.8443 -1.50625 49.3103 20.8443 -1.50625
376 1 50.1693 22.4044 0.157597 50.1693 22.4044 0.157597
377 2 52.3582 22.5877 1.72328 52.3582 22.5877 1.72328
378 2 52.0404 22.2416 -1.49973 52.0404 22.2416 -1.49973
379 1 0.471399 24.1117 -0.131597 0.471399 24.1117 -0.131597
380 2 2.31063 24.2821 1.71398 2.31063 24.2821 1.71398
381 2 2.33393 23.9601 -1.6501 2.33393 23.9601 -1.6501
382 1 3.28361 25.7299 -0.0968521 3.28361 25.7299 -0.0968521
383 2 5.27846 25.8891 1.3976 5.27846 25.8891 1.3976
384 2 4.94024 25.6408 -1.79252 4.94024 25.6408 -1.79252
385 1 6.12539 24.0587 -0.069546 6.12539 24.0587 -0.069546
386 2 8.22032 24.2907 1.29199 8.22032 24.2907 1.29199
387 2 7.94806 23.823 -1.87311 7.94806 23.823 -1.87311
388 1 9.04974 25.7371 -0.653107 9.04974 25.7371 -0.653107
389 2 11.0723 25.9525 0.821978 11.0723 25.9525 0.821978
390 2 11.0544 25.6376 -2.34219 11.0544 25.6376 -2.34219
391 1 12.0359 24.0505 -0.548729 12.0359 24.0505 -0.548729
392 2 14.0155 23.975 1.09076 14.0155 23.975 1.09076
393 2 14.009 24.1263 -2.2784 14.009 24.1263 -2.2784
394 1 14.9584 25.7558 -0.592545 14.9584 25.7558 -0.592545
395 2 16.9436 25.7766 1.17034 16.9436 25.7766 1.17034
396 2 17.0419 25.6251 -2.06864 17.0419 25.6251 -2.06864
397 1 18.0561 24.0289 -0.321098 18.0561 24.0289 -0.321098
398 2 20.1253 24.2229 1.07533 20.1253 24.2229 1.07533
399 2 19.9064 23.9246 -2.12422 19.9064 23.9246 -2.12422
400 1 20.9028 25.7604 -0.771637 20.9028 25.7604 -0.771637
401 2 22.831 25.4968 0.771382 22.831 25.4968 0.771382
402 2 22.7888 25.8238 -2.4812 22.7888 25.8238 -2.4812
403 1 23.8025 24.069 -0.937811 23.8025 24.069 -0.937811
404 2 25.7293 24.1546 0.761244 25.7293 24.1546 0.761244
405 2 25.7856 23.9023 -2.52171 25.7856 23.9023 -2.52171
406 1 26.7246 25.7615 -0.9014 26.7246 25.7615 -0.9014
407 2 28.4175 25.7761 1.00109 28.4175 25.7761 1.00109
408 2 28.9987 25.704 -2.12683 28.9987 25.704 -2.12683
409 1 29.7488 24.1162 -0.360033 29.7488 24.1162 -0.360033
410 2 31.6671 24.1728 1.3094 31.6671 24.1728 1.3094
411 2 31.7119 23.9866 -1.95827 31.7119 23.9866 -1.95827
412 1 32.5702 25.7605 -0.446703 32.5702 25.7605 -0.446703
413 2 34.5942 25.8446 1.08614 34.5942 25.8446 1.08614
414 2 34.5255 25.6753 -2.14621 34.5255 25.6753 -2.14621
415 1 35.5154 24.0922 -0.442572 35.5154 24.0922 -0.442572
416 2 37.5288 24.2781 1.14803 37.5288 24.2781 1.14803
417 2 37.4548 23.8849 -2.10631 37.4548 23.8849 -2.10631
418 1 38.4276 25.7863 -0.570291 38.4276 25.7863 -0.570291
419 2 40.417 25.7082 1.04725 40.417 25.7082 1.04725
420 2 40.3986 25.8578 -2.09105 40.3986 25.8578 -2.09105
421 1 41.4153 24.1048 -0.639185 41.4153 24.1048 -0.639185
422 2 43.2545 24.1896 1.13999 43.2545 24.1896 1.13999
423 2 43.4344 24.043 -2.19889 43.4344 24.043 -2.19889
424 1 44.3447 25.7219 -0.560688 44.3447 25.7219 -0.560688
425 2 46.1782 25.9221 1.29267 46.1782 25.9221 1.29267
426 2 46.3317 25.4366 -2.04537 46.3317 25.4366 -2.04537
427 1 47.178 24.121 -0.0607219 47.178 24.121 -0.0607219
428 2 49.0485 24.1355 1.61336 49.0485 24.1355 1.61336
429 2 49.2497 23.8969 -1.60767 49.2497 23.8969 -1.60767
430 1 50.1323 25.6734 -0.0655549 50.1323 25.6734 -0.0655549
431 2 52.324 25.7196 1.59258 52.324 25.7196 1.59258
432 2 52.0642 25.5664 -1.74999 52.0642 25.5664 -1.74999
433 1 0.308635 27.3482 -0.203745 0.308635 27.3482 -0.203745
434 2 2.19101 27.6134 1.38874 2.19101 27.6134 1.38874
435 2 2.13738 27.1065 -1.87521 2.13738 27.1065 -1.87521
436 1 3.17264 28.9661 -0.544401 3.17264 28.9661 -0.544401
437 2 5.08193 28.9932 1.19488 5.08193 28.9932 1.19488
438 2 5.11079 28.9196 -2.10569 5.11079 28.9196 -2.10569
439 1 6.14061 27.3459 -0.428528 6.14061 27.3459 -0.428528
440 2 8.14254 27.3581 1.05454 8.14254 27.3581 1.05454
441 2 8.00633 27.5098 -2.16317 8.00633 27.5098 -2.16317
442 1 9.11877 29.0864 -0.491135 9.11877 29.0864 -0.491135
443 2 11.2197 28.9883 0.922633 11.2197 28.9883 0.922633
444 2 10.8207 29.2027 -2.28331 10.8207 29.2027 -2.28331
445 1 12.033 27.4292 -0.901889 12.033 27.4292 -0.901889
446 2 13.7602 27.5263 0.896838 13.7602 27.5263 0.896838
447 2 14.2332 27.3858 -2.31669 14.2332 27.3858 -2.31669
448 1 14.8503 29.0186 -0.720642 14.8503 29.0186 -0.720642
449 2 16.7406 29.1042 0.980459 16.7406 29.1042 0.980459
450 2 17.0147 28.8904 -2.34758 17.0147 28.8904 -2.34758
451 1 17.9853 27.3827 -0.453925 17.9853 27.3827 -0.453925
452 2 20.0801 27.4335 0.956806 20.0801 27.4335 0.956806
453 2 19.7044 27.422 -2.27025 19.7044 27.422 -2.27025
454 1 20.9138 29.0194 -0.885177 20.9138 29.0194 -0.885177
455 2 22.8572 28.9566 0.805008 22.8572 28.9566 0.805008
456 2 22.831 29.0021 -2.51512 22.831 29.0021 -2.51512
457 1 23.811 27.3268 -0.789386 23.811 27.3268 -0.789386
458 2 25.6848 27.3696 0.797924 25.6848 27.3696 0.797924
459 2 25.7494 27.4045 -2.41293 25.7494 27.4045 -2.41293
460 1 26.7452 29.0289 -0.733909 26.7452 29.0289 -0.733909
461 2 28.7877 29.3145 1.0119 28.7877 29.3145 1.0119
462 2 28.7878 28.8125 -2.3099 28.7878 28.8125 -2.3099
463 1 29.6831 27.4094 -0.423824 29.6831 27.4094 -0.423824
464 2 31.6471 27.4871 1.22503 31.6471 27.4871 1.22503
465 2 31.6404 27.3617 -2.13122 31.6404 27.3617 -2.13122
466 1 32.6354 29.029 -0.513877 32.6354 29.029 -0.513877
467 2 34.695 29.1089 0.926294 34.695 29.1089 0.926294
468 2 34.4032 28.9562 -2.28495 34.4032 28.9562 -2.28495
469 1 35.5827 27.3932 -0.710801 35.5827 27.3932 -0.710801
470 2 37.3819 27.4 1.00369 37.3819 27.4 1.00369
471 2 37.4904 27.2929 -2.30604 37.4904 27.2929 -2.30604
472 1 38.421 28.9566 -0.697705 38.421 28.9566 -0.697705
473 2 40.2933 29.1673 1.06847 40.2933 29.1673 1.06847
474 2 40.4482 28.9161 -2.19077 40.4482 28.9161 -2.19077
475 1 41.3882 27.4058 -0.450819 41.3882 27.4058 -0.450819
476 2 43.2399 27.1658 1.17615 43.2399 27.1658 1.17615
477 2 43.4705 27.4729 -1.99765 43.4705 27.4729 -1.99765
478 1 44.2808 29.0483 -0.237654 44.2808 29.0483 -0.237654
479 2 46.3453 28.9374 1.34219 46.3453 28.9374 1.34219
480 2 46.0457 29.0683 -1.99815 46.0457 29.0683 -1.99815
481 1 47.2203 27.2779 -0.511146 47.2203 27.2779 -0.511146
482 2 48.9413 27.398 1.23266 48.9413 27.398 1.23266
483 2 49.2156 27.06 -1.93496 49.2156 27.06 -1.93496
484 1 50.1143 28.9051 -0.359973 50.1143 28.9051 -0.359973
485 2 52.0349 29.1654 1.27657 52.0349 29.1654 1.27657
486 2 52.149 28.8011 -2.0309 52.149 28.8011 -2.0309
487 1 0.203426 30.6874 -0.43423 0.203426 30.6874 -0.43423
488 2 2.44162 30.8909 0.957481 2.44162 30.8909 0.957481
489 2 2.07391 30.4403 -2.30984 2.07391 30.4403 -2.30984
490 1 3.19066 32.2845 -0.885226 3.19066 32.2845 -0.885226
491 2 5.11622 32.4428 0.822741 5.11622 32.4428 0.822741
492 2 5.12564 32.0936 -2.45184 5.12564 32.0936 -2.45184
493 1 6.15541 30.7397 -0.547084 6.15541 30.7397 -0.547084
494 2 8.09564 30.7728 1.05629 8.09564 30.7728 1.05629
495 2 8.10897 30.6916 -2.17415 8.10897 30.6916 -2.17415
496 1 9.07853 32.3708 -0.612113 9.07853 32.3708 -0.612113
497 2 10.9598 32.3095 0.968979 10.9598 32.3095 0.968979
498 2 11.0352 32.486 -2.23075 11.0352 32.486 -2.23075
499 1 12.0254 30.725 -0.639356 12.0254 30.725 -0.639356
500 2 14.0417 30.9168 0.854793 14.0417 30.9168 0.854793
501 2 13.8792 30.7121 -2.35065 13.8792 30.7121 -2.35065
502 1 14.913 32.3753 -0.794559 14.913 32.3753 -0.794559
503 2 16.8587 32.3212 0.872263 16.8587 32.3212 0.872263
504 2 16.9795 32.283 -2.42109 16.9795 32.283 -2.42109
505 1 17.9849 30.6605 -0.772698 17.9849 30.6605 -0.772698
506 2 19.9258 30.5254 0.839641 19.9258 30.5254 0.839641
507 2 19.9468 30.8429 -2.51883 19.9468 30.8429 -2.51883
508 1 20.9207 32.2666 -0.790677 20.9207 32.2666 -0.790677
509 2 22.7711 32.258 0.83458 22.7711 32.258 0.83458
510 2 22.8954 32.348 -2.42266 22.8954 32.348 -2.42266
511 1 23.7667 30.5824 -0.80201 23.7667 30.5824 -0.80201
512 2 25.8251 30.608 0.831195 25.8251 30.608 0.831195
513 2 25.711 30.6622 -2.50449 25.711 30.6622 -2.50449
514 1 26.7228 32.2666 -0.937654 26.7228 32.2666 -0.937654
515 2 28.4188 32.2515 0.86607 28.4188 32.2515 0.86607
516 2 28.8053 32.3916 -2.38736 28.8053 32.3916 -2.38736
517 1 29.7152 30.7347 -0.798717 29.7152 30.7347 -0.798717
518 2 31.4385 30.7709 0.951393 31.4385 30.7709 0.951393
519 2 31.8701 30.6863 -2.24113 31.8701 30.6863 -2.24113
520 1 32.6404 32.3659 -0.521373 32.6404 32.3659 -0.521373
521 2 34.6675 32.3763 0.984909 34.6675 32.3763 0.984909
522 2 34.3049 32.4062 -2.33883 34.3049 32.4062 -2.33883
523 1 35.4449 30.7438 -0.852184 35.4449 30.7438 -0.852184
524 2 37.3659 30.6112 0.99766 37.3659 30.6112 0.99766
525 2 37.529 30.8271 -2.30312 37.529 30.8271 -2.30312
526 1 38.5267 32.3084 -0.399525 38.5267 32.3084 -0.399525
527 2 40.4323 32.3285 1.16104 40.4323 32.3285 1.16104
528 2 40.3625 32.3386 -2.14463 40.3625 32.3386 -2.14463
529 1 41.3725 30.6563 -0.552658 41.3725 30.6563 -0.552658
530 2 43.0871 30.8332 1.2184 43.0871 30.8332 1.2184
531 2 43.3938 30.5224 -1.97444 43.3938 30.5224 -1.97444
532 1 44.2901 32.2647 -0.406535 44.2901 32.2647 -0.406535
533 2 46.3774 32.3446 1.08842 46.3774 32.3446 1.08842
534 2 46.0754 32.1947 -2.09532 46.0754 32.1947 -2.09532
535 1 47.2268 30.6087 -0.414739 47.2268 30.6087 -0.414739
536 2 49.1666 30.7036 1.15629 49.1666 30.7036 1.15629
537 2 49.152 30.5017 -2.05349 49.152 30.5017 -2.05349
538 1 50.0719 32.255 -0.53363 50.0719 32.255 -0.53363