ITEM: TIMESTEP
1000000
ITEM: NUMBER OF ATOMS
810
ITEM: BOX BOUNDS pp pp pp
-1.7671207024962658e+00 5.4784725702496729e+01
8.0582000660415243e-01 5.0210394993394715e+01
-1.0000000000000000e+01 1.0000000000000000e+01
ITEM: ATOMS id type x y z xu yu zu
1 1 -1.4996 1.04689 -0.691916 -1.4996 1.04689 -0.691916
2 2 0.403319 0.966345 1.10674 0.403319 0.966345 1.10674
3 2 0.683394 1.04116 -2.08379 0.683394 1.04116 -2.08379
4 1 1.61016 2.64746 -0.344082 1.61016 2.64746 -0.344082
5 2 3.66573 2.47612 1.27948 3.66573 2.47612 1.27948
6 2 3.70307 2.92122 -2.00931 3.70307 2.92122 -2.00931
7 1 4.74251 0.955693 -0.579961 4.74251 0.955693 -0.579961
8 2 6.8154 0.876955 1.02023 6.8154 0.876955 1.02023
9 2 6.76969 0.895818 -2.18807 6.76969 0.895818 -2.18807
10 1 7.89014 2.65374 -0.623768 7.89014 2.65374 -0.623768
11 2 10.0849 2.48195 0.924573 10.0849 2.48195 0.924573
12 2 9.86401 2.62725 -2.28152 9.86401 2.62725 -2.28152
13 1 10.9981 0.842344 -0.757272 10.9981 0.842344 -0.757272
14 2 13.2584 0.72977 0.838909 13.2584 0.72977 0.838909
15 2 13.1326 1.0193 -2.38182 13.1326 1.0193 -2.38182
16 1 14.1902 2.526 -0.582228 14.1902 2.526 -0.582228
17 2 16.199 2.49737 1.07293 16.199 2.49737 1.07293
18 2 16.2232 2.65479 -2.20262 16.2232 2.65479 -2.20262
19 1 17.3283 0.948071 -0.604993 17.3283 0.948071 -0.604993
20 2 19.2548 0.884555 1.02477 19.2548 0.884555 1.02477
21 2 19.3111 1.0659 -2.13221 19.3111 1.0659 -2.13221
22 1 20.4135 2.59041 -0.334885 20.4135 2.59041 -0.334885
23 2 22.5844 2.50504 1.14951 22.5844 2.50504 1.14951
24 2 22.4372 2.8549 -2.06939 22.4372 2.8549 -2.06939
25 1 23.5507 1.04421 -0.653554 23.5507 1.04421 -0.653554
26 2 25.721 0.929009 1.03768 25.721 0.929009 1.03768
27 2 25.8069 1.0569 -2.19267 25.8069 1.0569 -2.19267
28 1 26.8155 2.638 -0.443357 26.8155 2.638 -0.443357
29 2 28.8061 2.39049 1.22609 28.8061 2.39049 1.22609
30 2 28.9162 2.97876 -2.07758 28.9162 2.97876 -2.07758
31 1 29.9623 1.11349 -0.642296 29.9623 1.11349 -0.642296
32 2 31.7887 0.950102 1.09293 31.7887 0.950102 1.09293
33 2 32.1665 1.26583 -2.04945 32.1665 1.26583 -2.04945
34 1 33.0891 2.72363 -0.239887 33.0891 2.72363 -0.239887
35 2 35.136 2.66539 1.34527 35.136 2.66539 1.34527
36 2 35.1329 3.00059 -1.95583 35.1329 3.00059 -1.95583
37 1 36.2341 1.15911 -0.444469 36.2341 1.15911 -0.444469
38 2 38.3154 1.25289 1.26391 38.3154 1.25289 1.26391
39 2 38.422 1.14015 -2.03536 38.422 1.14015 -2.03536
40 1 39.3628 2.84279 -0.316691 39.3628 2.84279 -0.316691
41 2 41.2453 2.55865 1.3551 41.2453 2.55865 1.3551
42 2 41.5014 2.92164 -1.89369 41.5014 2.92164 -1.89369
43 1 42.4717 1.08536 -0.423703 42.4717 1.08536 -0.423703
44 2 44.4387 1.16245 1.24041 44.4387 1.16245 1.24041
45 2 44.5937 1.22882 -1.96924 44.5937 1.22882 -1.96924
46 1 45.6761 2.79887 -0.225284 45.6761 2.79887 -0.225284
47 2 47.7627 2.7003 1.3122 47.7627 2.7003 1.3122
48 2 47.5827 2.66971 -1.99162 47.5827 2.66971 -1.99162
49 1 48.8307 1.06507 -0.425641 48.8307 1.06507 -0.425641
50 2 50.8713 1.07527 1.23824 50.8713 1.07527 1.23824
51 2 50.9262 0.898642 -1.99771 50.9262 0.898642 -1.99771
52 1 51.9648 2.67096 -0.530267 51.9648 2.67096 -0.530267
53 2 53.9433 2.36469 1.14147 53.9433 2.36469 1.14147
54 2 54.0827 2.94146 -2.03857 54.0827 2.94146 -2.03857
55 1 -1.53488 4.25752 -0.133632 -1.53488 4.25752 -0.133632
56 2 0.576265 4.24116 1.44526 0.576265 4.24116 1.44526
57 2 0.38415 4.43802 -1.76609 0.38415 4.43802 -1.76609
58 1 1.53879 5.87428 -0.0821111 1.53879 5.87428 -0.0821111
59 2 3.5696 5.83497 1.43443 3.5696 5.83497 1.43443
60 2 3.71304 5.97474 -1.67574 3.71304 5.97474 -1.67574
61 1 4.79593 4.26764 -0.134942 4.79593 4.26764 -0.134942
62 2 7.02862 4.15344 1.22711 7.02862 4.15344 1.22711
63 2 6.63638 4.38029 -1.96338 6.63638 4.38029 -1.96338
64 1 7.8318 5.92096 -0.359694 7.8318 5.92096 -0.359694
65 2 10.0957 5.70462 1.20801 10.0957 5.70462 1.20801
66 2 9.79175 6.1866 -2.03386 9.79175 6.1866 -2.03386
67 1 11.0093 4.30557 -0.632881 11.0093 4.30557 -0.632881
68 2 12.8896 4.01574 1.12867 12.8896 4.01574 1.12867
69 2 13.2298 4.36412 -2.00665 13.2298 4.36412 -2.00665
70 1 14.2587 5.84785 -0.160957 14.2587 5.84785 -0.160957
71 2 16.3986 5.77763 1.31899 16.3986 5.77763 1.31899
72 2 16.2125 5.99178 -1.86056 16.2125 5.99178 -1.86056
73 1 17.4221 4.24809 -0.500226 17.4221 4.24809 -0.500226
74 2 19.3804 4.42951 1.24672 19.3804 4.42951 1.24672
75 2 19.4178 4.23622 -2.06968 19.4178 4.23622 -2.06968
76 1 20.4601 5.91266 -0.479478 20.4601 5.91266 -0.479478
77 2 22.1909 5.73817 1.38451 22.1909 5.73817 1.38451
78 2 22.5476 5.95557 -1.85076 22.5476 5.95557 -1.85076
79 1 23.6241 4.30954 -0.28514 23.6241 4.30954 -0.28514
80 2 25.7951 4.18118 1.42312 25.7951 4.18118 1.42312
81 2 25.6166 4.5149 -1.96032 25.6166 4.5149 -1.96032
82 1 26.7364 6.01548 -0.0583947 26.7364 6.01548 -0.0583947
83 2 28.8098 5.9931 1.59082 28.8098 5.9931 1.59082
84 2 28.9683 5.9694 -1.58481 28.9683 5.9694 -1.58481
85 1 29.8717 4.3778 -0.0273955 29.8717 4.3778 -0.0273955
86 2 31.974 4.36108 1.49648 31.974 4.36108 1.49648
87 2 31.9692 4.38804 -1.79328 31.9692 4.38804 -1.79328
88 1 32.9494 6.0199 -0.00437946 32.9494 6.0199 -0.00437946
89 2 35.1105 5.9871 1.51296 35.1105 5.9871 1.51296
90 2 34.9558 6.1296 -1.63211 34.9558 6.1296 -1.63211
91 1 36.1086 4.43941 -0.146147 36.1086 4.43941 -0.146147
92 2 38.2277 4.3041 1.35741 38.2277 4.3041 1.35741
93 2 38.2178 4.6303 -1.75702 38.2178 4.6303 -1.75702
94 1 39.2496 6.03621 -0.186857 39.2496 6.03621 -0.186857
95 2 41.3772 5.96536 1.51785 41.3772 5.96536 1.51785
96 2 41.5444 6.17532 -1.72099 41.5444 6.17532 -1.72099
97 1 42.5437 4.34831 -0.171348 42.5437 4.34831 -0.171348
98 2 44.5094 4.14776 1.56435 44.5094 4.14776 1.56435
99 2 44.5823 4.557 -1.6945 44.5823 4.557 -1.6945
100 1 45.5413 6.02475 0.215668 45.5413 6.02475 0.215668
101 2 47.7391 5.75545 1.60201 47.7391 5.75545 1.60201
102 2 47.4269 6.26267 -1.5365 47.4269 6.26267 -1.5365
103 1 48.7596 4.33901 -0.36658 48.7596 4.33901 -0.36658
104 2 50.7798 4.1301 1.39779 50.7798 4.1301 1.39779
105 2 50.9686 4.59881 -1.90758 50.9686 4.59881 -1.90758
106 1 51.8916 5.96491 0.0958156 51.8916 5.96491 0.0958156
107 2 53.9851 5.97542 1.58704 53.9851 5.97542 1.58704
108 2 53.9793 6.05306 -1.61495 53.9793 6.05306 -1.61495
109 1 -1.46568 7.63098 -0.0294287 -1.46568 7.63098 -0.0294287
110 2 0.524422 7.46999 1.5973 0.524422 7.46999 1.5973
111 2 0.495909 7.78282 -1.60809 0.495909 7.78282 -1.60809
112 1 1.55841 9.27562 0.204576 1.55841 9.27562 0.204576
113 2 3.74504 9.36358 1.7204 3.74504 9.36358 1.7204
114 2 3.50651 9.15702 -1.55636 3.50651 9.15702 -1.55636
115 1 4.66383 7.56792 0.034875 4.66383 7.56792 0.034875
116 2 6.8621 7.42125 1.39465 6.8621 7.42125 1.39465
117 2 6.63615 7.77373 -1.7305 6.63615 7.77373 -1.7305
118 1 7.90392 9.25542 -0.000545325 7.90392 9.25542 -0.000545325
119 2 10.1702 9.27089 1.50501 10.1702 9.27089 1.50501
120 2 9.93704 9.39425 -1.74101 9.93704 9.39425 -1.74101
121 1 11.0387 7.54627 -0.294678 11.0387 7.54627 -0.294678
122 2 13.1424 7.55239 1.43951 13.1424 7.55239 1.43951
123 2 13.1595 7.51131 -1.76416 13.1595 7.51131 -1.76416
124 1 14.184 9.16711 -0.137348 14.184 9.16711 -0.137348
125 2 16.2618 9.1727 1.49556 16.2618 9.1727 1.49556
126 2 16.3033 9.1646 -1.73842 16.3033 9.1646 -1.73842
127 1 17.3949 7.58366 -0.16646 17.3949 7.58366 -0.16646
128 2 19.3871 7.34509 1.40003 19.3871 7.34509 1.40003
129 2 19.3096 7.67732 -1.89711 19.3096 7.67732 -1.89711
130 1 20.4744 9.18723 -0.201485 20.4744 9.18723 -0.201485
131 2 22.4884 9.20395 1.5179 22.4884 9.20395 1.5179
132 2 22.5972 9.28725 -1.72524 22.5972 9.28725 -1.72524
133 1 23.5606 7.53907 -0.088274 23.5606 7.53907 -0.088274
134 2 25.4961 7.48849 1.74799 25.4961 7.48849 1.74799
135 2 25.7691 7.74688 -1.51735 25.7691 7.74688 -1.51735
136 1 26.6561 9.16393 0.33325 26.6561 9.16393 0.33325
137 2 28.9866 9.26338 1.67183 28.9866 9.26338 1.67183
138 2 28.5542 9.04397 -1.49408 28.5542 9.04397 -1.49408
139 1 29.9639 7.6571 0.0918246 29.9639 7.6571 0.0918246
140 2 31.9198 7.68121 1.62365 31.9198 7.68121 1.62365
141 2 31.8447 7.64691 -1.62404 31.8447 7.64691 -1.62404
142 1 33.049 9.28646 -0.0247801 33.049 9.28646 -0.0247801
143 2 35.0809 9.19244 1.75412 35.0809 9.19244 1.75412
144 2 35.225 9.49155 -1.56606 35.225 9.49155 -1.56606
145 1 36.1819 7.70435 -0.00600862 36.1819 7.70435 -0.00600862
146 2 38.2079 7.63018 1.56227 38.2079 7.63018 1.56227
147 2 38.1578 7.7959 -1.75834 38.1578 7.7959 -1.75834
148 1 39.3011 9.26145 0.00396631 39.3011 9.26145 0.00396631
149 2 41.2662 9.12879 1.7264 41.2662 9.12879 1.7264
150 2 41.4843 9.50781 -1.33785 41.4843 9.50781 -1.33785
151 1 42.4613 7.68695 0.0265839 42.4613 7.68695 0.0265839
152 2 44.4099 7.77025 1.78858 44.4099 7.77025 1.78858
153 2 44.6077 7.72029 -1.50889 44.6077 7.72029 -1.50889
154 1 45.5721 9.37464 0.0802659 45.5721 9.37464 0.0802659
155 2 47.6393 9.23489 1.67999 47.6393 9.23489 1.67999
156 2 47.6181 9.29827 -1.44657 47.6181 9.29827 -1.44657
157 1 48.7005 7.59482 0.163043 48.7005 7.59482 0.163043
158 2 50.8353 7.61059 1.76293 50.8353 7.61059 1.76293
159 2 50.8893 7.57007 -1.5105 50.8893 7.57007 -1.5105
160 1 51.9219 9.27652 0.162248 51.9219 9.27652 0.162248
161 2 54.1149 9.20744 1.64651 54.1149 9.20744 1.64651
162 2 53.9986 9.31778 -1.62481 53.9986 9.31778 -1.62481
163 1 -1.5272 10.9777 0.102485 -1.5272 10.9777 0.102485
164 2 0.46119 10.9255 1.85268 0.46119 10.9255 1.85268
165 2 0.473701 10.8588 -1.47493 0.473701 10.8588 -1.47493
166 1 1.55918 12.5416 0.111989 1.55918 12.5416 0.111989
167 2 3.82409 12.5321 1.57813 3.82409 12.5321 1.57813
168 2 3.61128 12.3143 -1.64559 3.61128 12.3143 -1.64559
169 1 4.74246 10.8381 -0.0892513 4.74246 10.8381 -0.0892513
170 2 6.81336 10.9351 1.55796 6.81336 10.9351 1.55796
171 2 6.90311 10.7988 -1.68403 6.90311 10.7988 -1.68403
172 1 7.93242 12.5084 -0.126871 7.93242 12.5084 -0.126871
173 2 9.98128 12.4646 1.57816 9.98128 12.4646 1.57816
174 2 10.0976 12.5468 -1.63572 10.0976 12.5468 -1.63572
175 1 11.0972 10.8971 -0.0907462 11.0972 10.8971 -0.0907462
176 2 13.1456 10.7758 1.52022 13.1456 10.7758 1.52022
177 2 13.0387 10.8083 -1.79103 13.0387 10.8083 -1.79103
178 1 14.0843 12.5248 -0.0411242 14.0843 12.5248 -0.0411242
179 2 16.355 12.5276 1.54234 16.355 12.5276 1.54234
180 2 16.1768 12.5516 -1.59365 16.1768 12.5516 -1.59365
181 1 17.2901 10.8505 -0.0291276 17.2901 10.8505 -0.0291276
182 2 19.3735 10.733 1.44352 19.3735 10.733 1.44352
183 2 19.3773 10.825 -1.72529 19.3773 10.825 -1.72529
184 1 20.4727 12.4756 -0.126325 20.4727 12.4756 -0.126325
185 2 22.3464 12.4329 1.63736 22.3464 12.4329 1.63736
186 2 22.6448 12.5233 -1.6699 22.6448 12.5233 -1.6699
187 1 23.5386 10.8671 0.000765149 23.5386 10.8671 0.000765149
188 2 25.3843 10.9708 1.74014 25.3843 10.9708 1.74014
189 2 25.6155 10.7064 -1.41562 25.6155 10.7064 -1.41562
190 1 26.6026 12.4894 0.0484404 26.6026 12.4894 0.0484404
191 2 28.7293 12.3233 1.65766 28.7293 12.3233 1.65766
192 2 28.7574 12.5606 -1.60842 28.7574 12.5606 -1.60842
193 1 29.7862 10.8546 -0.172065 29.7862 10.8546 -0.172065
194 2 31.8459 10.9612 1.50747 31.8459 10.9612 1.50747
195 2 31.858 10.8877 -1.77626 31.858 10.8877 -1.77626
196 1 32.9736 12.6349 -0.158674 32.9736 12.6349 -0.158674
197 2 34.8874 12.5737 1.69581 34.8874 12.5737 1.69581
198 2 35.3575 12.6122 -1.52284 35.3575 12.6122 -1.52284
199 1 36.2057 11.0148 0.24529 36.2057 11.0148 0.24529
200 2 38.2901 10.8329 1.78923 38.2901 10.8329 1.78923
201 2 38.1658 11.1117 -1.4034 38.1658 11.1117 -1.4034
202 1 39.3453 12.6732 0.380038 39.3453 12.6732 0.380038
203 2 41.2852 12.764 2.11105 41.2852 12.764 2.11105
204 2 41.326 12.4462 -1.24315 41.326 12.4462 -1.24315
205 1 42.4393 10.9041 0.550747 42.4393 10.9041 0.550747
206 2 44.6375 10.9194 1.94371 44.6375 10.9194 1.94371
207 2 44.2894 11.0541 -1.31728 44.2894 11.0541 -1.31728
208 1 45.5545 12.6062 0.236458 45.5545 12.6062 0.236458
209 2 47.5934 12.4869 1.92426 47.5934 12.4869 1.92426
210 2 47.6989 12.7901 -1.30624 47.6989 12.7901 -1.30624
211 1 48.7929 10.9925 0.134349 48.7929 10.9925 0.134349
212 2 50.8398 10.9341 1.76433 50.8398 10.9341 1.76433
213 2 50.8849 10.914 -1.43428 50.8849 10.914 -1.43428
214 1 51.9349 12.5751 0.200344 51.9349 12.5751 0.200344
215 2 54.0432 12.5581 1.88016 54.0432 12.5581 1.88016
216 2 53.8989 12.6895 -1.43146 53.8989 12.6895 -1.43146
217 1 -1.52429 14.209 0.371837 -1.52429 14.209 0.371837
218 2 0.598515 14.0916 1.82748 0.598515 14.0916 1.82748
219 2 0.486663 14.2368 -1.38808 0.486663 14.2368 -1.38808
220 1 1.60163 15.8166 0.251676 1.60163 15.8166 0.251676
221 2 3.74323 15.8186 1.66369 3.74323 15.8186 1.66369
222 2 3.5667 15.6928 -1.5372 3.5667 15.6928 -1.5372
223 1 4.8394 14.065 -0.104929 4.8394 14.065 -0.104929
224 2 6.99509 14.3384 1.42578 6.99509 14.3384 1.42578
225 2 6.69313 14.0248 -1.80781 6.69313 14.0248 -1.80781
226 1 7.84246 15.8345 -0.254504 7.84246 15.8345 -0.254504
227 2 9.93278 15.9425 1.36494 9.93278 15.9425 1.36494
228 2 9.89304 15.6924 -1.81531 9.89304 15.6924 -1.81531
229 1 11.0442 14.2238 -0.0385178 11.0442 14.2238 -0.0385178
230 2 13.1625 14.1627 1.54614 13.1625 14.1627 1.54614
231 2 12.9452 14.1142 -1.69938 12.9452 14.1142 -1.69938
232 1 14.1513 15.7597 -0.217336 14.1513 15.7597 -0.217336
233 2 16.1295 15.9892 1.40487 16.1295 15.9892 1.40487
234 2 16.2167 15.6392 -1.86593 16.2167 15.6392 -1.86593
235 1 17.3128 14.1939 -0.0586868 17.3128 14.1939 -0.0586868
236 2 19.4336 14.1313 1.56168 19.4336 14.1313 1.56168
237 2 19.3265 14.0697 -1.71786 19.3265 14.0697 -1.71786
238 1 20.4945 15.7967 -0.140909 20.4945 15.7967 -0.140909
239 2 22.403 15.9645 1.57544 22.403 15.9645 1.57544
240 2 22.5392 15.9044 -1.67046 22.5392 15.9044 -1.67046
241 1 23.5383 14.1841 0.0219122 23.5383 14.1841 0.0219122
242 2 25.5673 14.2544 1.59139 25.5673 14.2544 1.59139
243 2 25.5429 14.255 -1.60364 25.5429 14.255 -1.60364
244 1 26.6823 15.8629 0.00143751 26.6823 15.8629 0.00143751
245 2 28.6746 15.7206 1.80403 28.6746 15.7206 1.80403
246 2 28.8911 16.0204 -1.41782 28.8911 16.0204 -1.41782
247 1 29.9092 14.1468 0.132167 29.9092 14.1468 0.132167
248 2 32.0189 14.0604 1.76854 32.0189 14.0604 1.76854
249 2 31.8142 14.5416 -1.51072 31.8142 14.5416 -1.51072
250 1 32.9242 15.9366 0.272106 32.9242 15.9366 0.272106
251 2 35.1617 15.6944 2.019 35.1617 15.6944 2.019
252 2 35.0444 16.0993 -1.35249 35.0444 16.0993 -1.35249
253 1 36.1796 14.2446 0.247126 36.1796 14.2446 0.247126
254 2 38.1062 14.1974 1.97783 38.1062 14.1974 1.97783
255 2 38.3347 14.3778 -1.32745 38.3347 14.3778 -1.32745
256 1 39.1992 15.8928 0.450982 39.1992 15.8928 0.450982
257 2 41.2784 15.8149 1.99215 41.2784 15.8149 1.99215
258 2 41.1828 15.9212 -1.16999 41.1828 15.9212 -1.16999
259 1 42.4123 14.2229 0.306354 42.4123 14.2229 0.306354
260 2 44.4095 14.1061 1.9159 44.4095 14.1061 1.9159
261 2 44.4221 14.2653 -1.34604 44.4221 14.2653 -1.34604
262 1 45.517 15.8678 0.376062 45.517 15.8678 0.376062
263 2 47.5089 15.9403 2.00763 47.5089 15.9403 2.00763
264 2 47.6274 15.8926 -1.12641 47.6274 15.8926 -1.12641
265 1 48.7201 14.2775 0.503374 48.7201 14.2775 0.503374
266 2 50.9477 14.2225 1.94425 50.9477 14.2225 1.94425
267 2 50.5917 14.2525 -1.23236 50.5917 14.2525 -1.23236
268 1 51.8476 15.8713 0.327779 51.8476 15.8713 0.327779
269 2 53.9068 15.9586 2.0101 53.9068 15.9586 2.0101
270 2 53.9838 15.8643 -1.32905 53.9838 15.8643 -1.32905
271 1 -1.5075 17.4607 0.296985 -1.5075 17.4607 0.296985
272 2 0.700195 17.4131 1.9094 0.700195 17.4131 1.9094
273 2 0.493339 17.4528 -1.28086 0.493339 17.4528 -1.28086
274 1 1.59124 19.1427 0.284465 1.59124 19.1427 0.284465
275 2 3.62711 19.0675 1.87518 3.62711 19.0675 1.87518
276 2 3.59712 19.2516 -1.41359 3.59712 19.2516 -1.41359
277 1 4.68931 17.5376 0.124236 4.68931 17.5376 0.124236
278 2 6.86547 17.3436 1.57775 6.86547 17.3436 1.57775
279 2 6.74425 17.6565 -1.62663 6.74425 17.6565 -1.62663
280 1 7.92165 19.1481 -0.00823801 7.92165 19.1481 -0.00823801
281 2 9.96628 18.9047 1.45528 9.96628 18.9047 1.45528
282 2 9.94033 19.2431 -1.68595 9.94033 19.2431 -1.68595
283 1 11.1182 17.3988 -0.437236 11.1182 17.3988 -0.437236
284 2 13.0267 17.3744 1.32161 13.0267 17.3744 1.32161
285 2 13.301 17.5101 -1.86412 13.301 17.5101 -1.86412
286 1 14.2245 19.0463 -0.120391 14.2245 19.0463 -0.120391
287 2 16.2951 19.1673 1.44227 16.2951 19.1673 1.44227
288 2 16.1938 19.1156 -1.8014 16.1938 19.1156 -1.8014
289 1 17.2213 17.4733 -0.30549 17.2213 17.4733 -0.30549
290 2 19.2709 17.6194 1.43346 19.2709 17.6194 1.43346
291 2 19.4778 17.4185 -1.75696 19.4778 17.4185 -1.75696
292 1 20.4673 19.0952 -0.207665 20.4673 19.0952 -0.207665
293 2 22.404 19.1035 1.54919 22.404 19.1035 1.54919
294 2 22.5041 19.2653 -1.69925 22.5041 19.2653 -1.69925
295 1 23.5334 17.4831 -0.058263 23.5334 17.4831 -0.058263
296 2 25.4863 17.5283 1.55944 25.4863 17.5283 1.55944
297 2 25.6343 17.5853 -1.60292 25.6343 17.5853 -1.60292
298 1 26.6461 19.2205 0.0393303 26.6461 19.2205 0.0393303
299 2 28.3989 19.1363 1.89787 28.3989 19.1363 1.89787
300 2 28.9045 19.1476 -1.39231 28.9045 19.1476 -1.39231
301 1 29.7028 17.4862 0.42271 29.7028 17.4862 0.42271
302 2 31.8233 17.4752 1.95207 31.8233 17.4752 1.95207
303 2 31.7197 17.7819 -1.16866 31.7197 17.7819 -1.16866
304 1 32.8997 19.1902 0.516432 32.8997 19.1902 0.516432
305 2 35.0665 19.2437 2.07766 35.0665 19.2437 2.07766
306 2 34.9667 19.0968 -1.06791 34.9667 19.0968 -1.06791
307 1 36.1491 17.5404 0.576489 36.1491 17.5404 0.576489
308 2 38.319 17.5118 2.10158 38.319 17.5118 2.10158
309 2 38.0002 17.5806 -1.13314 38.0002 17.5806 -1.13314
310 1 39.2632 19.0879 0.520566 39.2632 19.0879 0.520566
311 2 41.3127 19.0509 2.03148 41.3127 19.0509 2.03148
312 2 41.2528 19.1253 -1.08531 41.2528 19.1253 -1.08531
313 1 42.3957 17.4565 0.464351 42.3957 17.4565 0.464351
314 2 44.4701 17.553 1.96153 44.4701 17.553 1.96153
315 2 44.3496 17.5564 -1.32518 44.3496 17.5564 -1.32518
316 1 45.5646 19.1623 0.329215 45.5646 19.1623 0.329215
317 2 47.5234 19.0242 2.04153 47.5234 19.0242 2.04153
318 2 47.6488 19.2224 -1.24083 47.6488 19.2224 -1.24083
319 1 48.7047 17.5163 0.354708 48.7047 17.5163 0.354708
320 2 50.7078 17.418 1.98729 50.7078 17.418 1.98729
321 2 50.6907 17.5934 -1.20741 50.6907 17.5934 -1.20741
322 1 51.8053 19.1487 0.57756 51.8053 19.1487 0.57756
323 2 54.1948 19.0787 1.92022 54.1948 19.0787 1.92022
324 2 53.8303 19.1973 -1.24139 53.8303 19.1973 -1.24139
325 1 -1.5172 20.7754 0.261584 -1.5172 20.7754 0.261584
326 2 0.498143 20.6955 1.88235 0.498143 20.6955 1.88235
327 2 0.526562 20.7073 -1.37455 0.526562 20.7073 -1.37455
328 1 1.6697 22.45 0.286511 1.6697 22.45 0.286511
329 2 3.76419 22.4307 1.88307 3.76419 22.4307 1.88307
330 2 3.77155 22.3738 -1.37294 3.77155 22.3738 -1.37294
331 1 4.83585 20.7477 0.30936 4.83585 20.7477 0.30936
332 2 6.93376 20.7478 1.78186 6.93376 20.7478 1.78186
333 2 6.9014 20.8621 -1.32973 6.9014 20.8621 -1.32973
334 1 8.02785 22.3124 0.257541 8.02785 22.3124 0.257541
335 2 10.0177 22.1901 1.80538 10.0177 22.1901 1.80538
336 2 10.0885 22.4237 -1.39901 10.0885 22.4237 -1.39901
337 1 11.1701 20.6902 0.0551086 11.1701 20.6902 0.0551086
338 2 13.2027 20.5849 1.61755 13.2027 20.5849 1.61755
339 2 13.0577 20.6854 -1.65971 13.0577 20.6854 -1.65971
340 1 14.2209 22.3228 0.00522644 14.2209 22.3228 0.00522644
341 2 16.379 22.2665 1.45887 16.379 22.2665 1.45887
342 2 16.3042 22.5142 -1.71451 16.3042 22.5142 -1.71451
343 1 17.3699 20.8283 -0.260337 17.3699 20.8283 -0.260337
344 2 19.4495 20.916 1.20253 19.4495 20.916 1.20253
345 2 19.3595 20.736 -1.9325 19.3595 20.736 -1.9325
346 1 20.5427 22.3915 -0.427132 20.5427 22.3915 -0.427132
347 2 22.2372 22.6131 1.43955 22.2372 22.6131 1.43955
348 2 22.7154 22.3431 -1.81849 22.7154 22.3431 -1.81849
349 1 23.5763 20.7694 0.00826219 23.5763 20.7694 0.00826219
350 2 25.6623 20.7962 1.67265 25.6623 20.7962 1.67265
351 2 25.7782 20.8277 -1.57987 25.7782 20.8277 -1.57987
352 1 26.6836 22.4788 0.0568184 26.6836 22.4788 0.0568184
353 2 28.7721 22.567 1.76749 28.7721 22.567 1.76749
354 2 28.7602 22.3955 -1.44079 28.7602 22.3955 -1.44079
355 1 29.7917 20.7643 0.282396 29.7917 20.7643 0.282396
356 2 31.7576 20.7357 2.06102 31.7576 20.7357 2.06102
357 2 31.9624 20.7871 -1.17051 31.9624 20.7871 -1.17051
358 1 32.9777 22.4022 0.4563 32.9777 22.4022 0.4563
359 2 34.9504 22.6415 2.04207 34.9504 22.6415 2.04207
360 2 34.9282 22.3547 -1.12871 34.9282 22.3547 -1.12871
361 1 36.1089 20.7992 0.536359 36.1089 20.7992 0.536359
362 2 38.0951 20.7781 2.19619 38.0951 20.7781 2.19619
363 2 38.2535 20.7716 -1.1236 38.2535 20.7716 -1.1236
364 1 39.2111 22.38 0.566343 39.2111 22.38 0.566343
365 2 41.294 22.5049 2.09473 41.294 22.5049 2.09473
366 2 41.0702 22.421 -1.20207 41.0702 22.421 -1.20207
367 1 42.3392 20.8166 0.438651 42.3392 20.8166 0.438651
368 2 44.5103 20.7964 1.93549 44.5103 20.7964 1.93549
369 2 44.2606 20.7531 -1.25835 44.2606 20.7531 -1.25835
370 1 45.5125 22.3711 0.217207 45.5125 22.3711 0.217207
371 2 47.4828 22.4182 2.11601 47.4828 22.4182 2.11601
372 2 47.7739 22.5128 -1.1944 47.7739 22.5128 -1.1944
373 1 48.6291 20.7648 0.564941 48.6291 20.7648 0.564941
374 2 50.759 20.8039 2.24309 50.759 20.8039 2.24309
375 2 50.7104 20.7604 -1.07819 50.7104 20.7604 -1.07819
376 1 51.7759 22.4142 0.550849 51.7759 22.4142 0.550849
377 2 53.9338 22.2666 2.01174 53.9338 22.2666 2.01174
378 2 53.823 22.4484 -1.14304 53.823 22.4484 -1.14304
379 1 -1.55053 24.0224 0.436754 -1.55053 24.0224 0.436754
380 2 0.546632 23.9966 1.98825 0.546632 23.9966 1.98825
381 2 0.459369 23.974 -1.23641 0.459369 23.974 -1.23641
382 1 1.54974 25.6962 0.317711 1.54974 25.6962 0.317711
383 2 3.75017 25.8901 1.81516 3.75017 25.8901 1.81516
384 2 3.64793 25.6998 -1.40241 3.64793 25.6998 -1.40241
385 1 4.78447 24.0682 0.295961 4.78447 24.0682 0.295961
386 2 6.94628 24.1416 1.90884 6.94628 24.1416 1.90884
387 2 6.92617 24.0097 -1.35293 6.92617 24.0097 -1.35293
388 1 7.88653 25.6531 0.284962 7.88653 25.6531 0.284962
389 2 9.99017 25.8337 1.74841 9.99017 25.8337 1.74841
390 2 9.83159 25.5519 -1.42639 9.83159 25.5519 -1.42639
391 1 11.1366 24.0642 0.296567 11.1366 24.0642 0.296567
392 2 13.1792 23.9351 1.81035 13.1792 23.9351 1.81035
393 2 13.2027 24.0164 -1.40244 13.2027 24.0164 -1.40244
394 1 14.2123 25.6618 0.270396 14.2123 25.6618 0.270396
395 2 16.3943 25.5136 1.71652 16.3943 25.5136 1.71652
396 2 16.0857 25.75 -1.54431 16.0857 25.75 -1.54431
397 1 17.3039 24.0632 -0.0664784 17.3039 24.0632 -0.0664784
398 2 19.4114 23.9505 1.34514 19.4114 23.9505 1.34514
399 2 19.4284 24.273 -1.83275 19.4284 24.273 -1.83275
400 1 20.4781 25.7479 -0.0547425 20.4781 25.7479 -0.0547425
401 2 22.6994 25.622 1.63011 22.6994 25.622 1.63011
402 2 22.508 25.7961 -1.61453 22.508 25.7961 -1.61453
403 1 23.5956 24.1096 -0.117608 23.5956 24.1096 -0.117608
404 2 25.4905 24.1882 1.51622 25.4905 24.1882 1.51622
405 2 25.7586 24.2556 -1.5625 25.7586 24.2556 -1.5625
406 1 26.7512 25.8315 0.0507552 26.7512 25.8315 0.0507552
407 2 29.0741 25.8847 1.54382 29.0741 25.8847 1.54382
408 2 28.8492 25.677 -1.70194 28.8492 25.677 -1.70194
409 1 29.8162 24.0972 -0.00614693 29.8162 24.0972 -0.00614693
410 2 31.6693 24.1846 1.74669 31.6693 24.1846 1.74669
411 2 32.0213 23.9001 -1.50632 32.0213 23.9001 -1.50632
412 1 32.8999 25.6502 0.050389 32.8999 25.6502 0.050389
413 2 35.0061 25.7928 1.79673 35.0061 25.7928 1.79673
414 2 35.0114 25.6301 -1.56325 35.0114 25.6301 -1.56325
415 1 35.9736 24.0354 0.243977 35.9736 24.0354 0.243977
416 2 37.9526 24.2377 1.93002 37.9526 24.2377 1.93002
417 2 38.2176 23.9138 -1.20134 38.2176 23.9138 -1.20134
418 1 39.1842 25.7573 0.358702 39.1842 25.7573 0.358702
419 2 41.2793 25.7551 1.92427 41.2793 25.7551 1.92427
420 2 41.2973 25.8189 -1.24571 41.2973 25.8189 -1.24571
421 1 42.2938 24.0897 0.341355 42.2938 24.0897 0.341355
422 2 44.3868 24.03 1.97275 44.3868 24.03 1.97275
423 2 44.5131 24.1708 -1.24747 44.5131 24.1708 -1.24747
424 1 45.5958 25.7153 0.562226 45.5958 25.7153 0.562226
425 2 47.6761 25.6303 2.19552 47.6761 25.6303 2.19552
426 2 47.5834 25.585 -1.01495 47.5834 25.585 -1.01495
427 1 48.8129 24.0746 0.610687 48.8129 24.0746 0.610687
428 2 50.7618 24.1834 2.23255 50.7618 24.1834 2.23255
429 2 50.7157 24.0333 -1.06595 50.7157 24.0333 -1.06595
430 1 51.8659 25.6934 0.509377 51.8659 25.6934 0.509377
431 2 53.9743 25.7475 2.00499 53.9743 25.7475 2.00499
432 2 53.8709 25.6451 -1.18334 53.8709 25.6451 -1.18334
433 1 -1.53302 27.3359 0.456649 -1.53302 27.3359 0.456649
434 2 0.68634 27.4021 1.927 0.68634 27.4021 1.927
435 2 0.423952 27.2605 -1.35321 0.423952 27.2605 -1.35321
436 1 1.58577 28.918 0.140675 1.58577 28.918 0.140675
437 2 3.74199 29.0706 1.71649 3.74199 29.0706 1.71649
438 2 3.65495 28.9658 -1.49669 3.65495 28.9658 -1.49669
439 1 4.73221 27.3736 0.104796 4.73221 27.3736 0.104796
440 2 6.59327 27.3486 1.7611 6.59327 27.3486 1.7611
441 2 6.87175 27.2886 -1.39713 6.87175 27.2886 -1.39713
442 1 7.93883 28.9965 0.10741 7.93883 28.9965 0.10741
443 2 10.0137 29.1214 1.68019 10.0137 29.1214 1.68019
444 2 9.91721 28.8997 -1.60864 9.91721 28.8997 -1.60864
445 1 11.0325 27.3259 0.1212 11.0325 27.3259 0.1212
446 2 13.0111 27.3259 1.8445 13.0111 27.3259 1.8445
447 2 13.2547 27.1965 -1.39053 13.2547 27.1965 -1.39053
448 1 14.2029 28.9146 0.335546 14.2029 28.9146 0.335546
449 2 16.5025 29.0062 1.67245 16.5025 29.0062 1.67245
450 2 16.2063 28.9759 -1.46356 16.2063 28.9759 -1.46356
451 1 17.3075 27.2925 0.139912 17.3075 27.2925 0.139912
452 2 19.5844 27.3972 1.67554 19.5844 27.3972 1.67554
453 2 19.2968 27.3392 -1.64633 19.2968 27.3392 -1.64633
454 1 20.5187 28.9717 -0.107771 20.5187 28.9717 -0.107771
455 2 22.6162 29.2753 1.47862 22.6162 29.2753 1.47862
456 2 22.5429 28.9343 -1.73675 22.5429 28.9343 -1.73675
457 1 23.6766 27.4542 -0.000763165 23.6766 27.4542 -0.000763165
458 2 25.7248 27.5092 1.67485 25.7248 27.5092 1.67485
459 2 25.7652 27.3855 -1.67606 25.7652 27.3855 -1.67606
460 1 26.8198 29.169 -0.0616848 26.8198 29.169 -0.0616848
461 2 29.0768 29.328 1.29206 29.0768 29.328 1.29206
462 2 28.6744 28.9709 -1.93731 28.6744 28.9709 -1.93731
463 1 29.9206 27.4872 -0.239163 29.9206 27.4872 -0.239163
464 2 31.9487 27.6166 1.4407 31.9487 27.6166 1.4407
465 2 31.845 27.1345 -1.83343 31.845 27.1345 -1.83343
466 1 33.0377 29.0061 -0.345338 33.0377 29.0061 -0.345338
467 2 34.9 29.1643 1.49977 34.9 29.1643 1.49977
468 2 35.2673 28.8625 -1.67051 35.2673 28.8625 -1.67051
469 1 36.0907 27.3157 0.136919 36.0907 27.3157 0.136919
470 2 38.0709 27.4807 1.90885 38.0709 27.4807 1.90885
471 2 38.217 27.3131 -1.41677 38.217 27.3131 -1.41677
472 1 39.3478 28.9776 0.318991 39.3478 28.9776 0.318991
473 2 41.3542 29.0672 2.0268 41.3542 29.0672 2.0268
474 2 41.5608 28.9227 -1.21214 41.5608 28.9227 -1.21214
475 1 42.4644 27.312 0.556652 42.4644 27.312 0.556652
476 2 44.6006 27.4246 2.08596 44.6006 27.4246 2.08596
477 2 44.3076 27.3365 -1.17756 44.3076 27.3365 -1.17756
478 1 45.6337 28.9568 0.318101 45.6337 28.9568 0.318101
479 2 47.6616 29.0994 1.93358 47.6616 29.0994 1.93358
480 2 47.6782 28.8778 -1.23728 47.6782 28.8778 -1.23728
481 1 48.7911 27.36 0.511884 48.7911 27.36 0.511884
482 2 50.8629 27.4266 2.05367 50.8629 27.4266 2.05367
483 2 50.6949 27.3067 -1.1748 50.6949 27.3067 -1.1748
484 1 51.9403 28.9445 0.351954 51.9403 28.9445 0.351954
485 2 53.9454 29.1752 1.93427 53.9454 29.1752 1.93427
486 2 53.8551 28.7935 -1.27211 53.8551 28.7935 -1.27211
487 1 -1.62073 30.6828 0.144185 -1.62073 30.6828 0.144185
488 2 0.563877 30.576 1.68124 0.563877 30.576 1.68124
489 2 0.333487 30.5323 -1.54731 0.333487 30.5323 -1.54731
490 1 1.58149 32.2477 0.00715569 1.58149 32.2477 0.00715569
491 2 3.75203 32.476 1.56114 3.75203 32.476 1.56114
492 2 3.57514 32.1251 -1.65164 3.57514 32.1251 -1.65164
493 1 4.72186 30.6438 0.146407 4.72186 30.6438 0.146407
494 2 6.78844 30.846 1.64942 6.78844 30.846 1.64942
495 2 6.85267 30.5184 -1.56272 6.85267 30.5184 -1.56272
496 1 7.9717 32.2782 -0.094075 7.9717 32.2782 -0.094075
497 2 9.7749 32.2067 1.68178 9.7749 32.2067 1.68178
498 2 10.1231 32.1681 -1.6773 10.1231 32.1681 -1.6773
499 1 11.0565 30.6179 0.0406877 11.0565 30.6179 0.0406877
500 2 13.1393 30.9244 1.69435 13.1393 30.9244 1.69435
501 2 13.1823 30.4633 -1.51562 13.1823 30.4633 -1.51562
502 1 14.223 32.248 -0.133584 14.223 32.248 -0.133584
503 2 16.3311 32.451 1.42066 16.3311 32.451 1.42066
504 2 16.3265 32.08 -1.71382 16.3265 32.08 -1.71382
505 1 17.4995 30.6852 -0.0362735 17.4995 30.6852 -0.0362735
506 2 19.4638 30.6027 1.54593 19.4638 30.6027 1.54593
507 2 19.4973 30.5942 -1.75736 19.4973 30.5942 -1.75736
508 1 20.4641 32.3318 -0.105236 20.4641 32.3318 -0.105236
509 2 22.666 32.4647 1.28448 22.666 32.4647 1.28448
510 2 22.3847 32.2895 -1.83206 22.3847 32.2895 -1.83206
511 1 23.6353 30.7527 -0.257318 23.6353 30.7527 -0.257318
512 2 25.6022 30.9026 1.3737 25.6022 30.9026 1.3737
513 2 25.7933 30.6313 -1.86371 25.7933 30.6313 -1.86371
514 1 26.7168 32.433 -0.310679 26.7168 32.433 -0.310679
515 2 28.9593 32.3831 1.21452 28.9593 32.3831 1.21452
516 2 28.7021 32.4192 -2.07079 28.7021 32.4192 -2.07079
517 1 29.9384 30.7452 -0.543048 29.9384 30.7452 -0.543048
518 2 32.0179 30.8315 1.10943 32.0179 30.8315 1.10943
519 2 32.0737 30.5459 -2.12596 32.0737 30.5459 -2.12596
520 1 33.0305 32.3241 -0.510097 33.0305 32.3241 -0.510097
521 2 34.9823 32.4117 1.29816 34.9823 32.4117 1.29816
522 2 35.1375 32.1964 -1.95438 35.1375 32.1964 -1.95438
523 1 36.1714 30.6396 -0.116598 36.1714 30.6396 -0.116598
524 2 38.1589 30.7846 1.6252 38.1589 30.7846 1.6252
525 2 38.4649 30.5362 -1.55177 38.4649 30.5362 -1.55177
526 1 39.2836 32.3533 -0.114626 39.2836 32.3533 -0.114626
527 2 41.3437 32.4113 1.57698 41.3437 32.4113 1.57698
528 2 41.289 32.1139 -1.67726 41.289 32.1139 -1.67726
529 1 42.5185 30.6117 0.304764 42.5185 30.6117 0.304764
530 2 44.6991 30.6608 1.83155 44.6991 30.6608 1.83155
531 2 44.5167 30.4571 -1.35327 44.5167 30.4571 -1.35327
532 1 45.6471 32.2815 0.122328 45.6471 32.2815 0.122328
533 2 47.7043 32.4793 1.6278 47.7043 32.4793 1.6278
534 2 47.5436 32.0605 -1.48161 47.5436 32.0605 -1.48161
535 1 48.7579 30.6577 0.220826 48.7579 30.6577 0.220826
536 2 50.8485 30.8856 1.72546 50.8485 30.8856 1.72546
537 2 50.7987 30.3137 -1.42586 50.7987 30.3137 -1.42586
538 1 51.8898 32.3064 -0.117425 51.8898 32.3064 -0.117425