ITEM: TIMESTEP
498000
ITEM: NUMBER OF ATOMS
810
ITEM: BOX BOUNDS pp pp pp
-4.7671038907324370e-01 5.3494315389073705e+01
8.0582000660415243e-01 5.0210394993394715e+01
-1.0000000000000000e+01 1.0000000000000000e+01
ITEM: ATOMS id type x y z xu yu zu
1 1 -0.176972 0.831212 -0.223099 -0.176972 0.831212 -0.223099
2 2 1.55222 0.975484 1.58823 1.55222 0.975484 1.58823
3 2 1.90627 0.765399 -1.67986 1.90627 0.765399 -1.67986
4 1 2.74809 2.57597 -0.135877 2.74809 2.57597 -0.135877
5 2 4.76931 2.64739 1.35727 4.76931 2.64739 1.35727
6 2 4.68446 2.38377 -1.8733 4.68446 2.38377 -1.8733
7 1 5.70403 0.894168 -0.141726 5.70403 0.894168 -0.141726
8 2 7.8382 0.900838 1.29031 7.8382 0.900838 1.29031
9 2 7.57668 0.782578 -1.93274 7.57668 0.782578 -1.93274
10 1 8.6355 2.52395 -0.511106 8.6355 2.52395 -0.511106
11 2 10.6474 2.67526 1.11279 10.6474 2.67526 1.11279
12 2 10.761 2.58994 -2.15952 10.761 2.58994 -2.15952
13 1 11.6475 0.944733 -0.444389 11.6475 0.944733 -0.444389
14 2 13.5905 1.10062 1.1302 13.5905 1.10062 1.1302
15 2 13.5837 0.935763 -2.02289 13.5837 0.935763 -2.02289
16 1 14.701 2.58341 -0.509941 14.701 2.58341 -0.509941
17 2 16.6728 2.54445 1.1104 16.6728 2.54445 1.1104
18 2 16.7579 2.63924 -2.11066 16.7579 2.63924 -2.11066
19 1 17.6814 0.924528 -0.562424 17.6814 0.924528 -0.562424
20 2 19.5778 0.799185 1.14708 19.5778 0.799185 1.14708
21 2 19.8083 50.6731 -2.11294 19.8083 1.2685 -2.11294
22 1 20.7314 2.682 -0.22762 20.7314 2.682 -0.22762
23 2 22.8551 2.63544 1.23466 22.8551 2.63544 1.23466
24 2 22.5565 2.52712 -1.89151 22.5565 2.52712 -1.89151
25 1 23.8031 0.973122 -0.344139 23.8031 0.973122 -0.344139
26 2 25.8088 1.01979 1.23378 25.8088 1.01979 1.23378
27 2 25.7136 50.4159 -2.00366 25.7136 1.01137 -2.00366
28 1 26.7561 2.68347 -0.468754 26.7561 2.68347 -0.468754
29 2 28.894 2.7751 0.915326 28.894 2.7751 0.915326
30 2 28.5475 2.61124 -2.2509 28.5475 2.61124 -2.2509
31 1 29.6569 0.991161 -0.66962 29.6569 0.991161 -0.66962
32 2 31.7089 1.03198 0.937612 31.7089 1.03198 0.937612
33 2 31.5978 1.14933 -2.33546 31.5978 1.14933 -2.33546
34 1 32.7769 2.72686 -0.711404 32.7769 2.72686 -0.711404
35 2 34.6287 2.73194 1.08353 34.6287 2.73194 1.08353
36 2 34.9106 2.79108 -2.21619 34.9106 2.79108 -2.21619
37 1 35.7124 1.14743 -0.553685 35.7124 1.14743 -0.553685
38 2 37.5491 1.14553 1.12572 37.5491 1.14553 1.12572
39 2 37.7848 1.32539 -2.0638 37.7848 1.32539 -2.0638
40 1 38.7154 2.84727 -0.360609 38.7154 2.84727 -0.360609
41 2 40.7266 2.81836 1.3327 40.7266 2.81836 1.3327
42 2 40.7839 2.54432 -1.84135 40.7839 2.54432 -1.84135
43 1 41.777 1.05799 -0.100151 41.777 1.05799 -0.100151
44 2 43.8362 1.14636 1.45405 43.8362 1.14636 1.45405
45 2 43.5774 0.902043 -1.82466 43.5774 0.902043 -1.82466
46 1 44.6961 2.73721 -0.372025 44.6961 2.73721 -0.372025
47 2 46.643 2.6542 1.3898 46.643 2.6542 1.3898
48 2 46.7381 2.7272 -1.94787 46.7381 2.7272 -1.94787
49 1 47.751 1.07447 -0.300712 47.751 1.07447 -0.300712
50 2 49.8416 1.10091 1.2317 49.8416 1.10091 1.2317
51 2 49.6601 1.02087 -2.00011 49.6601 1.02087 -2.00011
52 1 50.7496 2.58373 -0.47793 50.7496 2.58373 -0.47793
53 2 52.7012 2.58548 1.15083 52.7012 2.58548 1.15083
54 2 52.7554 2.37977 -1.97271 52.7554 2.37977 -1.97271
55 1 -0.175055 4.19299 -0.540319 -0.175055 4.19299 -0.540319
56 2 1.6337 4.47523 1.32088 1.6337 4.47523 1.32088
57 2 1.90755 4.18693 -1.93362 1.90755 4.18693 -1.93362
58 1 2.75627 5.92937 -0.338045 2.75627 5.92937 -0.338045
59 2 4.76154 5.92561 1.20793 4.76154 5.92561 1.20793
60 2 4.65359 5.81804 -2.02146 4.65359 5.81804 -2.02146
61 1 5.71202 4.20941 -0.382145 5.71202 4.20941 -0.382145
62 2 7.68202 4.23413 1.15738 7.68202 4.23413 1.15738
63 2 7.5297 4.17216 -2.18937 7.5297 4.17216 -2.18937
64 1 8.67784 5.82519 -0.597431 8.67784 5.82519 -0.597431
65 2 10.6086 5.75265 1.06763 10.6086 5.75265 1.06763
66 2 10.7617 5.82857 -2.27556 10.7617 5.82857 -2.27556
67 1 11.6579 4.16414 -0.562757 11.6579 4.16414 -0.562757
68 2 13.6842 4.09894 1.1274 13.6842 4.09894 1.1274
69 2 13.6714 4.32798 -2.18735 13.6714 4.32798 -2.18735
70 1 14.6526 5.83855 -0.485785 14.6526 5.83855 -0.485785
71 2 16.5707 5.98113 1.16526 16.5707 5.98113 1.16526
72 2 16.6909 5.86402 -2.16365 16.6909 5.86402 -2.16365
73 1 17.6938 4.32206 -0.388179 17.6938 4.32206 -0.388179
74 2 19.5688 4.3376 1.30115 19.5688 4.3376 1.30115
75 2 19.7148 4.15316 -2.00239 19.7148 4.15316 -2.00239
76 1 20.7663 5.95767 -0.437944 20.7663 5.95767 -0.437944
77 2 22.7611 6.20787 0.991052 22.7611 6.20787 0.991052
78 2 22.6104 5.72571 -2.19874 22.6104 5.72571 -2.19874
79 1 23.658 4.29651 -0.441429 23.658 4.29651 -0.441429
80 2 25.7647 4.49524 0.990139 25.7647 4.49524 0.990139
81 2 25.7439 4.16808 -2.08638 25.7439 4.16808 -2.08638
82 1 26.7711 6.02264 -0.778757 26.7711 6.02264 -0.778757
83 2 28.9311 5.93302 0.722533 28.9311 5.93302 0.722533
84 2 28.7224 5.9879 -2.46489 28.7224 5.9879 -2.46489
85 1 29.7569 4.33637 -0.912999 29.7569 4.33637 -0.912999
86 2 31.7998 4.42956 0.835765 31.7998 4.42956 0.835765
87 2 31.7699 4.34968 -2.45406 31.7699 4.34968 -2.45406
88 1 32.8092 6.06672 -0.854075 32.8092 6.06672 -0.854075
89 2 34.6548 6.03851 0.963384 34.6548 6.03851 0.963384
90 2 34.9832 5.91876 -2.28404 34.9832 5.91876 -2.28404
91 1 35.7285 4.42361 -0.451691 35.7285 4.42361 -0.451691
92 2 37.5936 4.56663 1.26486 37.5936 4.56663 1.26486
93 2 37.7656 4.3696 -1.97888 37.7656 4.3696 -1.97888
94 1 38.7828 6.0469 -0.374595 38.7828 6.0469 -0.374595
95 2 40.7301 6.03776 1.252 40.7301 6.03776 1.252
96 2 40.6545 6.01618 -1.97303 40.6545 6.01618 -1.97303
97 1 41.7251 4.39531 -0.450653 41.7251 4.39531 -0.450653
98 2 43.5952 4.23106 1.27613 43.5952 4.23106 1.27613
99 2 43.7763 4.36138 -2.02094 43.7763 4.36138 -2.02094
100 1 44.7363 6.04215 -0.285636 44.7363 6.04215 -0.285636
101 2 46.6905 6.23933 1.3148 46.6905 6.23933 1.3148
102 2 46.6561 5.92848 -1.98728 46.6561 5.92848 -1.98728
103 1 47.6323 4.42753 -0.258866 47.6323 4.42753 -0.258866
104 2 49.7599 4.28767 1.18592 49.7599 4.28767 1.18592
105 2 49.4619 4.2618 -2.07714 49.4619 4.2618 -2.07714
106 1 50.7504 5.96998 -0.498811 50.7504 5.96998 -0.498811
107 2 52.7678 5.89172 1.1127 52.7678 5.89172 1.1127
108 2 52.8849 5.93249 -2.09521 52.8849 5.93249 -2.09521
109 1 -0.1571 7.59366 -0.466616 -0.1571 7.59366 -0.466616
110 2 1.70072 7.78274 1.27022 1.70072 7.78274 1.27022
111 2 1.87532 7.56162 -1.97062 1.87532 7.56162 -1.97062
112 1 2.7858 9.34694 -0.365763 2.7858 9.34694 -0.365763
113 2 4.72417 9.21265 1.286 4.72417 9.21265 1.286
114 2 4.7938 9.23042 -1.90602 4.7938 9.23042 -1.90602
115 1 5.68152 7.48736 -0.333564 5.68152 7.48736 -0.333564
116 2 7.72552 7.33143 1.29246 7.72552 7.33143 1.29246
117 2 7.74575 7.80546 -1.99389 7.74575 7.80546 -1.99389
118 1 8.72811 9.0817 -0.0659253 8.72811 9.0817 -0.0659253
119 2 10.9164 8.98798 1.26153 10.9164 8.98798 1.26153
120 2 10.5308 9.13148 -1.86037 10.5308 9.13148 -1.86037
121 1 11.6947 7.43213 -0.533952 11.6947 7.43213 -0.533952
122 2 13.4437 7.31872 1.23219 13.4437 7.31872 1.23219
123 2 13.6535 7.5597 -2.03932 13.6535 7.5597 -2.03932
124 1 14.7047 9.12802 -0.332569 14.7047 9.12802 -0.332569
125 2 16.8854 9.21462 1.26839 16.8854 9.21462 1.26839
126 2 16.6994 9.0915 -2.07715 16.6994 9.0915 -2.07715
127 1 17.6671 7.52461 -0.466191 17.6671 7.52461 -0.466191
128 2 19.7297 7.8167 1.03415 19.7297 7.8167 1.03415
129 2 19.6067 7.41792 -2.22362 19.6067 7.41792 -2.22362
130 1 20.7556 9.20714 -0.845415 20.7556 9.20714 -0.845415
131 2 22.6942 9.26959 0.70053 22.6942 9.26959 0.70053
132 2 22.7616 9.14198 -2.45291 22.7616 9.14198 -2.45291
133 1 23.7636 7.62851 -0.824589 23.7636 7.62851 -0.824589
134 2 25.7262 7.69508 0.717843 25.7262 7.69508 0.717843
135 2 25.6782 7.5233 -2.55828 25.6782 7.5233 -2.55828
136 1 26.7651 9.23036 -0.960548 26.7651 9.23036 -0.960548
137 2 28.9027 9.40887 0.629349 28.9027 9.40887 0.629349
138 2 28.8956 9.24155 -2.64916 28.8956 9.24155 -2.64916
139 1 29.7883 7.67056 -0.987558 29.7883 7.67056 -0.987558
140 2 31.8779 7.92819 0.532495 31.8779 7.92819 0.532495
141 2 31.7323 7.56099 -2.74873 31.7323 7.56099 -2.74873
142 1 32.7542 9.31395 -1.31082 32.7542 9.31395 -1.31082
143 2 34.4935 9.49128 0.679475 34.4935 9.49128 0.679475
144 2 35.059 9.17698 -2.53848 35.059 9.17698 -2.53848
145 1 35.7828 7.6546 -0.68277 35.7828 7.6546 -0.68277
146 2 37.5961 7.74218 1.15828 37.5961 7.74218 1.15828
147 2 38.0055 7.6581 -2.06076 38.0055 7.6581 -2.06076
148 1 38.797 9.2768 -0.398366 38.797 9.2768 -0.398366
149 2 40.7956 9.31867 1.21243 40.7956 9.31867 1.21243
150 2 40.7608 9.18719 -2.07517 40.7608 9.18719 -2.07517
151 1 41.7834 7.63279 -0.419407 41.7834 7.63279 -0.419407
152 2 43.701 7.74512 1.21969 43.701 7.74512 1.21969
153 2 43.7201 7.46295 -2.01487 43.7201 7.46295 -2.01487
154 1 44.798 9.23498 -0.429946 44.798 9.23498 -0.429946
155 2 46.7555 9.38396 1.03724 46.7555 9.38396 1.03724
156 2 46.5452 9.22964 -2.19164 46.5452 9.22964 -2.19164
157 1 47.6952 7.661 -0.534639 47.6952 7.661 -0.534639
158 2 49.6963 7.62793 1.1419 49.6963 7.62793 1.1419
159 2 49.7691 7.59206 -2.11411 49.7691 7.59206 -2.11411
160 1 50.6974 9.2213 -0.446135 50.6974 9.2213 -0.446135
161 2 52.6789 9.29466 1.1496 52.6789 9.29466 1.1496
162 2 52.7019 9.08537 -2.08955 52.7019 9.08537 -2.08955
163 1 -0.19916 10.8832 -0.406337 -0.19916 10.8832 -0.406337
164 2 1.86115 10.9126 1.24892 1.86115 10.9126 1.24892
165 2 1.77448 11.0116 -2.01556 1.77448 11.0116 -2.01556
166 1 2.77368 12.5366 -0.35232 2.77368 12.5366 -0.35232
167 2 4.71864 12.5326 1.26417 4.71864 12.5326 1.26417
168 2 4.83166 12.5025 -2.04917 4.83166 12.5025 -2.04917
169 1 5.79212 10.847 -0.4373 5.79212 10.847 -0.4373
170 2 7.66024 10.8564 1.33622 7.66024 10.8564 1.33622
171 2 7.89444 10.7725 -1.87056 7.89444 10.7725 -1.87056
172 1 8.82366 12.515 -0.217868 8.82366 12.515 -0.217868
173 2 10.7958 12.4971 1.31341 10.7958 12.4971 1.31341
174 2 10.8074 12.5768 -1.93028 10.8074 12.5768 -1.93028
175 1 11.8696 10.8339 -0.329105 11.8696 10.8339 -0.329105
176 2 13.8073 10.7811 1.23689 13.8073 10.7811 1.23689
177 2 13.7986 10.8515 -1.99454 13.7986 10.8515 -1.99454
178 1 14.8145 12.4604 -0.28746 14.8145 12.4604 -0.28746
179 2 16.8238 12.339 1.26407 16.8238 12.339 1.26407
180 2 16.7979 12.5705 -1.89266 16.7979 12.5705 -1.89266
181 1 17.7834 10.8764 -0.492879 17.7834 10.8764 -0.492879
182 2 19.8329 10.8162 0.961317 19.8329 10.8162 0.961317
183 2 19.6187 10.994 -2.36639 19.6187 10.994 -2.36639
184 1 20.782 12.5141 -0.667741 20.782 12.5141 -0.667741
185 2 22.774 12.4655 0.828012 22.774 12.4655 0.828012
186 2 22.5798 12.7054 -2.34041 22.5798 12.7054 -2.34041
187 1 23.8204 10.9906 -0.937103 23.8204 10.9906 -0.937103
188 2 25.896 10.8372 0.681797 25.896 10.8372 0.681797
189 2 25.6774 10.8314 -2.57558 25.6774 10.8314 -2.57558
190 1 26.7764 12.5124 -1.07869 26.7764 12.5124 -1.07869
191 2 28.6902 12.3992 0.587281 28.6902 12.3992 0.587281
192 2 28.7293 12.7279 -2.63321 28.7293 12.7279 -2.63321
193 1 29.7815 11.0504 -1.14948 29.7815 11.0504 -1.14948
194 2 31.7314 10.7719 0.328833 31.7314 10.7719 0.328833
195 2 31.6972 11.0212 -2.78336 31.6972 11.0212 -2.78336
196 1 32.6925 12.6237 -1.08946 32.6925 12.6237 -1.08946
197 2 34.6814 12.6812 0.671194 34.6814 12.6812 0.671194
198 2 34.714 12.5503 -2.53672 34.714 12.5503 -2.53672
199 1 35.7445 10.9372 -0.921727 35.7445 10.9372 -0.921727
200 2 37.5079 11.1451 0.889113 37.5079 11.1451 0.889113
201 2 37.9024 10.8353 -2.27461 37.9024 10.8353 -2.27461
202 1 38.7711 12.65 -0.743283 38.7711 12.65 -0.743283
203 2 40.6762 12.7316 0.941303 40.6762 12.7316 0.941303
204 2 40.8957 12.4311 -2.33222 40.8957 12.4311 -2.33222
205 1 41.8062 10.8884 -0.478237 41.8062 10.8884 -0.478237
206 2 43.7495 10.9408 1.12891 43.7495 10.9408 1.12891
207 2 43.7289 10.9955 -2.08667 43.7289 10.9955 -2.08667
208 1 44.7443 12.4903 -0.456111 44.7443 12.4903 -0.456111
209 2 46.696 12.2413 1.09128 46.696 12.2413 1.09128
210 2 46.7087 12.7101 -2.08889 46.7087 12.7101 -2.08889
211 1 47.7391 10.8899 -0.682897 47.7391 10.8899 -0.682897
212 2 49.5529 10.8736 1.07341 49.5529 10.8736 1.07341
213 2 49.85 10.8945 -2.1435 49.85 10.8945 -2.1435
214 1 50.8759 12.5605 -0.584468 50.8759 12.5605 -0.584468
215 2 52.7026 12.4553 1.21166 52.7026 12.4553 1.21166
216 2 52.9051 12.4958 -2.04653 52.9051 12.4958 -2.04653
217 1 -0.124599 14.1499 -0.397504 -0.124599 14.1499 -0.397504
218 2 1.76695 14.127 1.36738 1.76695 14.127 1.36738
219 2 1.84053 14.3452 -1.98733 1.84053 14.3452 -1.98733
220 1 2.84125 15.7508 -0.185705 2.84125 15.7508 -0.185705
221 2 4.92851 15.5199 1.32418 4.92851 15.5199 1.32418
222 2 4.90213 16.0069 -1.86226 4.90213 16.0069 -1.86226
223 1 5.8843 14.125 -0.385192 5.8843 14.125 -0.385192
224 2 7.6646 14.0737 1.34586 7.6646 14.0737 1.34586
225 2 7.9545 14.1991 -1.87695 7.9545 14.1991 -1.87695
226 1 8.74632 15.7329 -0.0847155 8.74632 15.7329 -0.0847155
227 2 10.7062 15.6622 1.39825 10.7062 15.6622 1.39825
228 2 10.7278 15.9449 -1.69989 10.7278 15.9449 -1.69989
229 1 11.8819 14.1117 -0.232915 11.8819 14.1117 -0.232915
230 2 13.8787 14.1818 1.37373 13.8787 14.1818 1.37373
231 2 13.7716 14.1157 -1.8676 13.7716 14.1157 -1.8676
232 1 14.797 15.8519 -0.299214 14.797 15.8519 -0.299214
233 2 16.6824 15.7713 1.41803 16.6824 15.7713 1.41803
234 2 16.8861 15.9712 -1.80289 16.8861 15.9712 -1.80289
235 1 17.8607 14.1898 -0.143641 17.8607 14.1898 -0.143641
236 2 20.0633 14.0584 1.14745 20.0633 14.0584 1.14745
237 2 19.5351 14.1607 -2.07327 19.5351 14.1607 -2.07327
238 1 20.6946 15.807 -0.591468 20.6946 15.807 -0.591468
239 2 22.5778 15.6529 1.05797 22.5778 15.6529 1.05797
240 2 22.7398 16.0734 -2.11854 22.7398 16.0734 -2.11854
241 1 23.7484 14.2054 -0.70105 23.7484 14.2054 -0.70105
242 2 25.7331 13.736 0.897521 25.7331 13.736 0.897521
243 2 25.6399 14.4752 -2.36544 25.6399 14.4752 -2.36544
244 1 26.6999 15.7994 -0.546213 26.6999 15.7994 -0.546213
245 2 28.7042 15.552 1.0559 28.7042 15.552 1.0559
246 2 28.5487 15.9774 -2.23412 28.5487 15.9774 -2.23412
247 1 29.6821 14.2339 -0.82074 29.6821 14.2339 -0.82074
248 2 31.6981 13.9701 0.781131 31.6981 13.9701 0.781131
249 2 31.7192 14.4529 -2.40829 31.7192 14.4529 -2.40829
250 1 32.7384 15.8353 -0.55061 32.7384 15.8353 -0.55061
251 2 34.871 15.7124 0.78624 34.871 15.7124 0.78624
252 2 34.6123 15.9356 -2.36009 34.6123 15.9356 -2.36009
253 1 35.7637 14.252 -0.980412 35.7637 14.252 -0.980412
254 2 37.6079 14.1049 0.854947 37.6079 14.1049 0.854947
255 2 37.974 14.3211 -2.32381 37.974 14.3211 -2.32381
256 1 38.8665 15.8774 -0.518573 38.8665 15.8774 -0.518573
257 2 40.782 15.6734 1.06685 40.782 15.6734 1.06685
258 2 40.8417 16.0574 -2.17593 40.8417 16.0574 -2.17593
259 1 41.814 14.2114 -0.719129 41.814 14.2114 -0.719129
260 2 43.503 14.0925 1.11422 43.503 14.0925 1.11422
261 2 43.9597 14.2459 -2.06832 43.9597 14.2459 -2.06832
262 1 44.8428 15.7854 -0.192307 44.8428 15.7854 -0.192307
263 2 46.651 15.6139 1.39883 46.651 15.6139 1.39883
264 2 46.7945 15.815 -1.81105 46.7945 15.815 -1.81105
265 1 47.8271 14.1103 -0.284814 47.8271 14.1103 -0.284814
266 2 50.014 14.2219 1.08376 50.014 14.2219 1.08376
267 2 49.6573 14.1672 -2.04413 49.6573 14.1672 -2.04413
268 1 50.8681 15.8591 -0.58633 50.8681 15.8591 -0.58633
269 2 52.675 15.7428 1.14968 52.675 15.7428 1.14968
270 2 52.9144 15.8539 -2.09794 52.9144 15.8539 -2.09794
271 1 -0.172705 17.5033 -0.329945 -0.172705 17.5033 -0.329945
272 2 1.72849 17.2179 1.47491 1.72849 17.2179 1.47491
273 2 2.02234 17.6958 -1.73929 2.02234 17.6958 -1.73929
274 1 2.80045 19.0898 0.144352 2.80045 19.0898 0.144352
275 2 4.79264 18.9433 1.68087 4.79264 18.9433 1.68087
276 2 4.76483 19.0804 -1.57668 4.76483 19.0804 -1.57668
277 1 5.78422 17.4412 -0.0867423 5.78422 17.4412 -0.0867423
278 2 7.81797 17.4283 1.50525 7.81797 17.4283 1.50525
279 2 7.71314 17.372 -1.72782 7.71314 17.372 -1.72782
280 1 8.78237 18.9794 -0.152967 8.78237 18.9794 -0.152967
281 2 10.644 18.9681 1.61086 10.644 18.9681 1.61086
282 2 10.8636 19.1415 -1.67097 10.8636 19.1415 -1.67097
283 1 11.7115 17.4066 0.00539213 11.7115 17.4066 0.00539213
284 2 13.7494 17.2916 1.56634 13.7494 17.2916 1.56634
285 2 13.6021 17.5546 -1.61615 13.6021 17.5546 -1.61615
286 1 14.709 19.1111 0.119287 14.709 19.1111 0.119287
287 2 16.7866 18.9647 1.72947 16.7866 18.9647 1.72947
288 2 16.6279 19.4945 -1.47393 16.6279 19.4945 -1.47393
289 1 17.6932 17.4985 -0.155582 17.6932 17.4985 -0.155582
290 2 19.7199 17.1732 1.35013 19.7199 17.1732 1.35013
291 2 19.6519 17.7863 -1.80231 19.6519 17.7863 -1.80231
292 1 20.706 19.0896 0.0172215 20.706 19.0896 0.0172215
293 2 22.7685 18.9468 1.48232 22.7685 18.9468 1.48232
294 2 22.5742 19.2007 -1.72985 22.5742 19.2007 -1.72985
295 1 23.6867 17.4271 -0.261385 23.6867 17.4271 -0.261385
296 2 25.5346 17.2731 1.35041 25.5346 17.2731 1.35041
297 2 25.6401 17.7833 -1.83815 25.6401 17.7833 -1.83815
298 1 26.6257 19.1022 0.0180121 26.6257 19.1022 0.0180121
299 2 28.8254 18.9183 1.38903 28.8254 18.9183 1.38903
300 2 28.5321 19.2814 -1.84266 28.5321 19.2814 -1.84266
301 1 29.6933 17.4411 -0.413932 29.6933 17.4411 -0.413932
302 2 31.6871 17.3195 1.09761 31.6871 17.3195 1.09761
303 2 31.6301 17.4465 -2.2013 31.6301 17.4465 -2.2013
304 1 32.6495 19.1304 -0.50758 32.6495 19.1304 -0.50758
305 2 34.6979 18.9243 1.11831 34.6979 18.9243 1.11831
306 2 34.6425 19.3318 -2.08988 34.6425 19.3318 -2.08988
307 1 35.7061 17.5119 -0.764516 35.7061 17.5119 -0.764516
308 2 37.5692 17.4647 0.968601 37.5692 17.4647 0.968601
309 2 37.8144 17.3792 -2.25095 37.8144 17.3792 -2.25095
310 1 38.7534 19.0778 -0.564436 38.7534 19.0778 -0.564436
311 2 40.6364 19.1171 1.15201 40.6364 19.1171 1.15201
312 2 40.7356 19.1477 -2.02155 40.7356 19.1477 -2.02155
313 1 41.809 17.4747 -0.42654 41.809 17.4747 -0.42654
314 2 43.9022 17.5881 1.24643 43.9022 17.5881 1.24643
315 2 43.8636 17.2464 -2.01284 43.8636 17.2464 -2.01284
316 1 44.8257 19.0657 -0.461502 44.8257 19.0657 -0.461502
317 2 46.5813 19.0205 1.42649 46.5813 19.0205 1.42649
318 2 47.0098 18.8986 -1.87461 47.0098 18.8986 -1.87461
319 1 47.8336 17.3328 -0.0362616 47.8336 17.3328 -0.0362616
320 2 50.0358 17.1703 1.30547 50.0358 17.1703 1.30547
321 2 49.6915 17.6684 -1.88051 49.6915 17.6684 -1.88051
322 1 50.7535 19.0559 -0.264017 50.7535 19.0559 -0.264017
323 2 52.6285 18.9442 1.45938 52.6285 18.9442 1.45938
324 2 52.8177 19.3169 -1.75832 52.8177 19.3169 -1.75832
325 1 -0.15258 20.7281 0.140672 -0.15258 20.7281 0.140672
326 2 1.7436 20.5825 1.88938 1.7436 20.5825 1.88938
327 2 1.89846 20.8175 -1.52034 1.89846 20.8175 -1.52034
328 1 2.8438 22.4237 0.248886 2.8438 22.4237 0.248886
329 2 4.80124 22.1399 1.84115 4.80124 22.1399 1.84115
330 2 4.77708 22.4979 -1.31748 4.77708 22.4979 -1.31748
331 1 5.79792 20.6911 0.172618 5.79792 20.6911 0.172618
332 2 7.83444 20.4908 1.74712 7.83444 20.4908 1.74712
333 2 7.84476 20.9207 -1.4798 7.84476 20.9207 -1.4798
334 1 8.81321 22.3816 0.286736 8.81321 22.3816 0.286736
335 2 10.6747 22.1879 1.86275 10.6747 22.1879 1.86275
336 2 10.8064 22.5903 -1.33813 10.8064 22.5903 -1.33813
337 1 11.7961 20.7249 0.13066 11.7961 20.7249 0.13066
338 2 13.5574 20.6488 1.81042 13.5574 20.6488 1.81042
339 2 13.8076 20.9952 -1.34639 13.8076 20.9952 -1.34639
340 1 14.6716 22.4634 0.451757 14.6716 22.4634 0.451757
341 2 16.7203 22.5605 2.028 16.7203 22.5605 2.028
342 2 16.5798 22.5366 -1.24906 16.5798 22.5366 -1.24906
343 1 17.6158 20.8969 0.315846 17.6158 20.8969 0.315846
344 2 19.8219 20.7875 1.8419 19.8219 20.7875 1.8419
345 2 19.4966 20.764 -1.37866 19.4966 20.764 -1.37866
346 1 20.7855 22.4221 0.207121 20.7855 22.4221 0.207121
347 2 22.8414 22.5026 1.62471 22.8414 22.5026 1.62471
348 2 22.544 22.3596 -1.6412 22.544 22.3596 -1.6412
349 1 23.6709 20.7687 -0.0551175 23.6709 20.7687 -0.0551175
350 2 25.6247 20.8232 1.62574 25.6247 20.8232 1.62574
351 2 25.7402 20.7307 -1.65144 25.7402 20.7307 -1.65144
352 1 26.7274 22.5066 -0.0233408 26.7274 22.5066 -0.0233408
353 2 28.8256 22.5004 1.42577 28.8256 22.5004 1.42577
354 2 28.6414 22.4612 -1.87397 28.6414 22.4612 -1.87397
355 1 29.7357 20.757 -0.284467 29.7357 20.757 -0.284467
356 2 31.7421 20.5358 1.3136 31.7421 20.5358 1.3136
357 2 31.618 21.057 -1.88762 31.618 21.057 -1.88762
358 1 32.6384 22.468 -0.0679014 32.6384 22.468 -0.0679014
359 2 34.7978 22.392 1.31345 34.7978 22.392 1.31345
360 2 34.5617 22.4954 -1.83813 34.5617 22.4954 -1.83813
361 1 35.622 20.7603 -0.319518 35.622 20.7603 -0.319518
362 2 37.7926 20.6159 1.14671 37.7926 20.6159 1.14671
363 2 37.5176 20.8837 -2.03582 37.5176 20.8837 -2.03582
364 1 38.6477 22.4516 -0.416303 38.6477 22.4516 -0.416303
365 2 40.6335 22.3925 1.22489 40.6335 22.3925 1.22489
366 2 40.6322 22.426 -1.95824 40.6322 22.426 -1.95824
367 1 41.6702 20.7844 -0.358815 41.6702 20.7844 -0.358815
368 2 43.7565 20.735 1.24737 43.7565 20.735 1.24737
369 2 43.8295 20.8035 -2.01189 43.8295 20.8035 -2.01189
370 1 44.7738 22.4353 -0.355874 44.7738 22.4353 -0.355874
371 2 46.7754 22.228 1.39798 46.7754 22.228 1.39798
372 2 46.9699 22.4439 -1.85872 46.9699 22.4439 -1.85872
373 1 47.7857 20.6637 -0.253191 47.7857 20.6637 -0.253191
374 2 49.7995 20.6944 1.40475 49.7995 20.6944 1.40475
375 2 49.8542 20.8128 -1.86817 49.8542 20.8128 -1.86817
376 1 50.8746 22.3543 -0.184801 50.8746 22.3543 -0.184801
377 2 52.6273 22.4567 1.65206 52.6273 22.4567 1.65206
378 2 52.9932 22.4236 -1.61062 52.9932 22.4236 -1.61062
379 1 -0.258807 24.0665 0.131014 -0.258807 24.0665 0.131014
380 2 1.79922 24.0685 1.79002 1.79922 24.0685 1.79002
381 2 1.77639 23.8788 -1.49053 1.77639 23.8788 -1.49053
382 1 2.79215 25.6623 0.0998004 2.79215 25.6623 0.0998004
383 2 4.67403 25.809 1.95938 4.67403 25.809 1.95938
384 2 4.86671 25.4537 -1.4308 4.86671 25.4537 -1.4308
385 1 5.79294 24.0026 0.518579 5.79294 24.0026 0.518579
386 2 8.03981 24.1649 1.88319 8.03981 24.1649 1.88319
387 2 7.56007 24.0693 -1.28655 7.56007 24.0693 -1.28655
388 1 8.79625 25.6673 0.159035 8.79625 25.6673 0.159035
389 2 10.5616 25.8138 1.91407 10.5616 25.8138 1.91407
390 2 10.8129 25.7316 -1.30771 10.8129 25.7316 -1.30771
391 1 11.8616 24.1202 0.487122 11.8616 24.1202 0.487122
392 2 13.7566 24.0918 2.08835 13.7566 24.0918 2.08835
393 2 13.7174 24.1735 -1.17852 13.7174 24.1735 -1.17852
394 1 14.7692 25.7244 0.439547 14.7692 25.7244 0.439547
395 2 16.7219 25.7656 2.02479 16.7219 25.7656 2.02479
396 2 16.6141 25.9182 -1.22303 16.6141 25.9182 -1.22303
397 1 17.7031 24.1395 0.341126 17.7031 24.1395 0.341126
398 2 19.8388 24.1241 1.82879 19.8388 24.1241 1.82879
399 2 19.6411 24.024 -1.41097 19.6411 24.024 -1.41097
400 1 20.7286 25.7867 0.0706041 20.7286 25.7867 0.0706041
401 2 22.6892 25.7051 1.6531 22.6892 25.7051 1.6531
402 2 22.6752 25.9498 -1.65425 22.6752 25.9498 -1.65425
403 1 23.7149 24.0838 -0.116143 23.7149 24.0838 -0.116143
404 2 25.7202 24.2087 1.47517 25.7202 24.2087 1.47517
405 2 25.6408 23.918 -1.7869 25.6408 23.918 -1.7869
406 1 26.6172 25.7469 -0.244512 26.6172 25.7469 -0.244512
407 2 28.4887 25.5868 1.47567 28.4887 25.5868 1.47567
408 2 28.5012 25.9572 -1.69475 28.5012 25.9572 -1.69475
409 1 29.6584 24.16 -0.217387 29.6584 24.16 -0.217387
410 2 31.4839 24.1108 1.49655 31.4839 24.1108 1.49655
411 2 31.7002 24.109 -1.78433 31.7002 24.109 -1.78433
412 1 32.7062 25.758 -0.0296939 32.7062 25.758 -0.0296939
413 2 34.8334 25.655 1.46407 34.8334 25.655 1.46407
414 2 34.6811 25.9382 -1.74109 34.6811 25.9382 -1.74109
415 1 35.676 24.1291 -0.384867 35.676 24.1291 -0.384867
416 2 37.5657 24.0462 1.31265 37.5657 24.0462 1.31265
417 2 37.7652 24.0784 -1.98539 37.7652 24.0784 -1.98539
418 1 38.7024 25.8182 -0.225053 38.7024 25.8182 -0.225053
419 2 40.6468 25.6075 1.52265 40.6468 25.6075 1.52265
420 2 40.7842 25.9542 -1.79677 40.7842 25.9542 -1.79677
421 1 41.653 24.0786 -0.303072 41.653 24.0786 -0.303072
422 2 43.5518 23.9757 1.44165 43.5518 23.9757 1.44165
423 2 43.7859 24.1924 -1.90878 43.7859 24.1924 -1.90878
424 1 44.7414 25.7856 -0.0297665 44.7414 25.7856 -0.0297665
425 2 46.8516 25.767 1.576 46.8516 25.767 1.576
426 2 46.7935 25.7994 -1.59964 46.7935 25.7994 -1.59964
427 1 47.7804 24.0352 -0.0379196 47.7804 24.0352 -0.0379196
428 2 49.7976 24.0156 1.46806 49.7976 24.0156 1.46806
429 2 49.7 23.992 -1.74181 49.7 23.992 -1.74181
430 1 50.6701 25.7737 -0.128552 50.6701 25.7737 -0.128552
431 2 52.6203 25.903 1.56194 52.6203 25.903 1.56194
432 2 52.8232 25.5634 -1.63664 52.8232 25.5634 -1.63664
433 1 -0.28185 27.4387 -0.0751374 -0.28185 27.4387 -0.0751374
434 2 1.49154 27.2621 1.65622 1.49154 27.2621 1.65622
435 2 1.81947 27.2822 -1.56248 1.81947 27.2822 -1.56248
436 1 2.76942 28.871 0.106928 2.76942 28.871 0.106928
437 2 4.66351 28.9578 1.69938 4.66351 28.9578 1.69938
438 2 4.61883 28.9064 -1.50617 4.61883 28.9064 -1.50617
439 1 5.74912 27.2741 0.103897 5.74912 27.2741 0.103897
440 2 7.62308 27.2614 1.87975 7.62308 27.2614 1.87975
441 2 7.80912 27.5112 -1.39293 7.80912 27.5112 -1.39293
442 1 8.61576 28.9693 0.407517 8.61576 28.9693 0.407517
443 2 10.8524 29.0326 1.86255 10.8524 29.0326 1.86255
444 2 10.4319 28.8729 -1.30549 10.4319 28.8729 -1.30549
445 1 11.6828 27.3466 0.305057 11.6828 27.3466 0.305057
446 2 13.7321 27.4395 1.96958 13.7321 27.4395 1.96958
447 2 13.8075 27.4019 -1.23795 13.8075 27.4019 -1.23795
448 1 14.7474 29.1003 0.296425 14.7474 29.1003 0.296425
449 2 16.5769 29.0706 2.03141 16.5769 29.0706 2.03141
450 2 16.7941 29.0116 -1.32526 16.7941 29.0116 -1.32526
451 1 17.6725 27.4044 0.381989 17.6725 27.4044 0.381989
452 2 19.6922 27.3006 1.90307 19.6922 27.3006 1.90307
453 2 19.6104 27.4294 -1.34828 19.6104 27.4294 -1.34828
454 1 20.7284 29.0333 0.385494 20.7284 29.0333 0.385494
455 2 22.7297 29.0444 1.84662 22.7297 29.0444 1.84662
456 2 22.5239 29.125 -1.40135 22.5239 29.125 -1.40135
457 1 23.7505 27.4192 0.0832942 23.7505 27.4192 0.0832942
458 2 25.6686 27.1607 1.56955 25.6686 27.1607 1.56955
459 2 25.5191 27.5756 -1.63734 25.5191 27.5756 -1.63734
460 1 26.6788 28.9732 0.0671199 26.6788 28.9732 0.0671199
461 2 28.5591 28.9607 1.79315 28.5591 28.9607 1.79315
462 2 28.5531 29.0492 -1.54651 28.5531 29.0492 -1.54651
463 1 29.6254 27.3391 0.0776179 29.6254 27.3391 0.0776179
464 2 31.7243 27.3223 1.70595 31.7243 27.3223 1.70595
465 2 31.5426 27.415 -1.55551 31.5426 27.415 -1.55551
466 1 32.6846 29.008 0.0688879 32.6846 29.008 0.0688879
467 2 34.6995 29.0316 1.70458 34.6995 29.0316 1.70458
468 2 34.7312 29.2243 -1.48957 34.7312 29.2243 -1.48957
469 1 35.6851 27.4483 -0.0176669 35.6851 27.4483 -0.0176669
470 2 37.8236 27.4302 1.48607 37.8236 27.4302 1.48607
471 2 37.6004 27.4825 -1.74851 37.6004 27.4825 -1.74851
472 1 38.6876 29.1264 -0.127933 38.6876 29.1264 -0.127933
473 2 40.6587 29.1355 1.60239 40.6587 29.1355 1.60239
474 2 40.7341 29.1273 -1.68446 40.7341 29.1273 -1.68446
475 1 41.7285 27.4178 -0.0343274 41.7285 27.4178 -0.0343274
476 2 43.6436 27.3164 1.67763 43.6436 27.3164 1.67763
477 2 43.7306 27.4623 -1.56965 43.7306 27.4623 -1.56965
478 1 44.6714 29.0731 0.108613 44.6714 29.0731 0.108613
479 2 46.8244 29.0711 1.62374 46.8244 29.0711 1.62374
480 2 46.6958 29.0337 -1.60531 46.6958 29.0337 -1.60531
481 1 47.7619 27.4233 0.0365322 47.7619 27.4233 0.0365322
482 2 49.7684 27.4171 1.57972 49.7684 27.4171 1.57972
483 2 49.706 27.5446 -1.60588 49.706 27.5446 -1.60588
484 1 50.7802 29.0797 -0.0431088 50.7802 29.0797 -0.0431088
485 2 52.6941 28.9664 1.63596 52.6941 28.9664 1.63596
486 2 52.6756 29.1505 -1.60966 52.6756 29.1505 -1.60966
487 1 -0.312672 30.6179 0.00383778 -0.312672 30.6179 0.00383778
488 2 1.64426 30.8197 1.57643 1.64426 30.8197 1.57643
489 2 1.56646 30.4217 -1.69928 1.56646 30.4217 -1.69928
490 1 2.61239 32.2163 -0.276125 2.61239 32.2163 -0.276125
491 2 4.35662 32.1993 1.65403 4.35662 32.1993 1.65403
492 2 4.91093 32.3898 -1.61312 4.91093 32.3898 -1.61312
493 1 5.69818 30.6044 0.073053 5.69818 30.6044 0.073053
494 2 7.41853 30.5893 1.8085 7.41853 30.5893 1.8085
495 2 7.78512 30.5502 -1.35393 7.78512 30.5502 -1.35393
496 1 8.74569 32.2641 0.347755 8.74569 32.2641 0.347755
497 2 10.6416 32.233 1.96079 10.6416 32.233 1.96079
498 2 10.601 32.3938 -1.36782 10.601 32.3938 -1.36782
499 1 11.6804 30.6316 0.165609 11.6804 30.6316 0.165609
500 2 13.6352 30.7394 1.8641 13.6352 30.7394 1.8641
501 2 13.6765 30.6097 -1.39126 13.6765 30.6097 -1.39126
502 1 14.7908 32.2901 0.100311 14.7908 32.2901 0.100311
503 2 16.6407 32.3016 1.96116 16.6407 32.3016 1.96116
504 2 16.9943 32.5079 -1.24825 16.9943 32.5079 -1.24825
505 1 17.8324 30.68 0.358661 17.8324 30.68 0.358661
506 2 19.5984 30.5577 2.0865 19.5984 30.5577 2.0865
507 2 19.8521 30.8082 -1.17727 19.8521 30.8082 -1.17727
508 1 20.7441 32.3406 0.619609 20.7441 32.3406 0.619609
509 2 22.9226 32.3736 2.03836 22.9226 32.3736 2.03836
510 2 22.3923 32.4063 -1.21583 22.3923 32.4063 -1.21583
511 1 23.6859 30.7278 0.25856 23.6859 30.7278 0.25856
512 2 25.7631 30.5318 1.85446 25.7631 30.5318 1.85446
513 2 25.5874 30.6796 -1.44234 25.5874 30.6796 -1.44234
514 1 26.6457 32.3113 0.21015 26.6457 32.3113 0.21015
515 2 28.6556 32.4061 1.6363 28.6556 32.4061 1.6363
516 2 28.484 32.4515 -1.49092 28.484 32.4515 -1.49092
517 1 29.5912 30.6045 0.090634 29.5912 30.6045 0.090634
518 2 31.7145 30.6305 1.66052 31.7145 30.6305 1.66052
519 2 31.5877 30.6827 -1.51621 31.5877 30.6827 -1.51621
520 1 32.494 32.3716 0.107217 32.494 32.3716 0.107217
521 2 34.563 32.4216 1.70284 34.563 32.4216 1.70284
522 2 34.6095 32.4099 -1.49708 34.6095 32.4099 -1.49708
523 1 35.6259 30.7599 0.166819 35.6259 30.7599 0.166819
524 2 37.7939 30.6384 1.70673 37.7939 30.6384 1.70673
525 2 37.4271 30.8632 -1.47061 37.4271 30.8632 -1.47061
526 1 38.7138 32.4369 0.188826 38.7138 32.4369 0.188826
527 2 40.7366 32.2891 1.75381 40.7366 32.2891 1.75381
528 2 40.5771 32.4343 -1.52783 40.5771 32.4343 -1.52783
529 1 41.7533 30.6888 0.0176671 41.7533 30.6888 0.0176671
530 2 43.7194 30.7916 1.69868 43.7194 30.7916 1.69868
531 2 43.6234 30.6142 -1.68329 43.6234 30.6142 -1.68329
532 1 44.6825 32.4332 -0.228007 44.6825 32.4332 -0.228007
533 2 46.5855 32.283 1.50187 46.5855 32.283 1.50187
534 2 46.8357 32.3204 -1.6578 46.8357 32.3204 -1.6578
535 1 47.7181 30.7084 -0.0653411 47.7181 30.7084 -0.0653411
536 2 49.7596 30.7596 1.54712 49.7596 30.7596 1.54712
537 2 49.6767 30.6067 -1.67255 49.6767 30.6067 -1.67255
538 1 50.6459 32.3519 -0.165813 50.6459 32.3519 -0.165813