ITEM: TIMESTEP
261000
ITEM: NUMBER OF ATOMS
810
ITEM: BOX BOUNDS pp pp pp
1.3250722901690826e-01 5.2885097770983556e+01
8.0582000660415243e-01 5.0210394993394715e+01
-1.0000000000000000e+01 1.0000000000000000e+01
ITEM: ATOMS id type x y z xu yu zu
1 1 0.350502 1.07131 -0.885834 0.350502 1.07131 -0.885834
2 2 2.37499 0.787102 0.710198 2.37499 0.787102 0.710198
3 2 2.29094 1.25473 -2.52369 2.29094 1.25473 -2.52369
4 1 3.3828 2.64861 -0.842312 3.3828 2.64861 -0.842312
5 2 5.17855 2.64601 0.768265 5.17855 2.64601 0.768265
6 2 5.29632 2.67071 -2.45191 5.29632 2.67071 -2.45191
7 1 6.14387 0.981569 -0.922148 6.14387 0.981569 -0.922148
8 2 8.09181 0.940424 0.732387 8.09181 0.940424 0.732387
9 2 8.15428 0.969235 -2.4582 8.15428 0.969235 -2.4582
10 1 9.14656 2.62305 -0.814566 9.14656 2.62305 -0.814566
11 2 10.9809 2.61651 0.833919 10.9809 2.61651 0.833919
12 2 11.1004 2.64646 -2.32252 11.1004 2.64646 -2.32252
13 1 11.9712 0.882492 -0.711507 11.9712 0.882492 -0.711507
14 2 13.8252 1.1363 1.10438 13.8252 1.1363 1.10438
15 2 14.0951 0.77332 -2.09887 14.0951 0.77332 -2.09887
16 1 14.9186 2.58081 -0.554935 14.9186 2.58081 -0.554935
17 2 16.8734 2.73262 1.15392 16.8734 2.73262 1.15392
18 2 16.9919 2.43464 -2.09068 16.9919 2.43464 -2.09068
19 1 17.8952 0.958148 -0.376395 17.8952 0.958148 -0.376395
20 2 19.8258 0.788737 1.15407 19.8258 0.788737 1.15407
21 2 19.7834 0.947196 -2.06536 19.7834 0.947196 -2.06536
22 1 20.9172 2.52347 -0.450916 20.9172 2.52347 -0.450916
23 2 22.5935 2.82883 1.40747 22.5935 2.82883 1.40747
24 2 23.1729 2.55207 -1.85962 23.1729 2.55207 -1.85962
25 1 23.7721 1.02319 0.0445365 23.7721 1.02319 0.0445365
26 2 25.5838 1.00014 1.6844 25.5838 1.00014 1.6844
27 2 25.8933 1.04158 -1.52462 25.8933 1.04158 -1.52462
28 1 26.6783 2.70404 0.182886 26.6783 2.70404 0.182886
29 2 28.7133 2.53588 1.67799 28.7133 2.53588 1.67799
30 2 28.5484 2.75164 -1.54448 28.5484 2.75164 -1.54448
31 1 29.5954 1.02771 -0.0959817 29.5954 1.02771 -0.0959817
32 2 31.5742 1.05263 1.62579 31.5742 1.05263 1.62579
33 2 31.6042 1.01862 -1.67186 31.6042 1.01862 -1.67186
34 1 32.5745 2.72782 -0.0524416 32.5745 2.72782 -0.0524416
35 2 34.7078 2.53439 1.54681 34.7078 2.53439 1.54681
36 2 34.4351 2.81574 -1.72375 34.4351 2.81574 -1.72375
37 1 35.4609 0.995136 -0.319693 35.4609 0.995136 -0.319693
38 2 37.3967 0.832533 1.20741 37.3967 0.832533 1.20741
39 2 37.3827 0.919494 -1.87385 37.3827 0.919494 -1.87385
40 1 38.4305 2.61912 -0.362626 38.4305 2.61912 -0.362626
41 2 40.4909 2.83642 1.06194 40.4909 2.83642 1.06194
42 2 40.2444 2.31526 -2.09071 40.2444 2.31526 -2.09071
43 1 41.3171 0.95614 -0.336795 41.3171 0.95614 -0.336795
44 2 43.3818 1.03323 1.20901 43.3818 1.03323 1.20901
45 2 43.3277 0.808455 -2.12302 43.3277 0.808455 -2.12302
46 1 44.2735 2.60048 -0.649366 44.2735 2.60048 -0.649366
47 2 46.3845 2.64135 0.88486 46.3845 2.64135 0.88486
48 2 46.0995 2.50279 -2.3428 46.0995 2.50279 -2.3428
49 1 47.1904 0.930727 -0.731236 47.1904 0.930727 -0.731236
50 2 49.1328 0.810236 0.715363 49.1328 0.810236 0.715363
51 2 49.0437 1.01986 -2.53322 49.0437 1.01986 -2.53322
52 1 50.1416 2.65267 -0.846752 50.1416 2.65267 -0.846752
53 2 52.1951 2.7564 0.730391 52.1951 2.7564 0.730391
54 2 52.1277 2.69419 -2.51684 52.1277 2.69419 -2.51684
55 1 0.376311 4.40414 -0.942342 0.376311 4.40414 -0.942342
56 2 2.1976 4.20745 0.882388 2.1976 4.20745 0.882388
57 2 2.57724 4.4855 -2.46449 2.57724 4.4855 -2.46449
58 1 3.31972 5.97666 -0.604827 3.31972 5.97666 -0.604827
59 2 5.41411 5.99145 0.954295 5.41411 5.99145 0.954295
60 2 5.20813 5.92626 -2.2673 5.20813 5.92626 -2.2673
61 1 6.22316 4.27214 -0.75216 6.22316 4.27214 -0.75216
62 2 8.26853 4.25855 0.786181 8.26853 4.25855 0.786181
63 2 8.12502 4.42472 -2.41322 8.12502 4.42472 -2.41322
64 1 9.26342 5.91955 -0.776019 9.26342 5.91955 -0.776019
65 2 11.114 5.93812 0.883788 11.114 5.93812 0.883788
66 2 11.1307 5.99387 -2.31878 11.1307 5.99387 -2.31878
67 1 12.0976 4.29852 -0.649377 12.0976 4.29852 -0.649377
68 2 14.0633 4.24067 0.967741 14.0633 4.24067 0.967741
69 2 13.9989 4.15604 -2.305 13.9989 4.15604 -2.305
70 1 15.0447 5.76847 -0.745453 15.0447 5.76847 -0.745453
71 2 16.8836 5.7204 0.965678 16.8836 5.7204 0.965678
72 2 17.0707 5.84764 -2.29714 17.0707 5.84764 -2.29714
73 1 18.0039 4.1897 -0.584058 18.0039 4.1897 -0.584058
74 2 19.8091 4.10864 1.15148 19.8091 4.10864 1.15148
75 2 20.0674 4.2364 -2.01299 20.0674 4.2364 -2.01299
76 1 20.9562 5.86667 -0.314846 20.9562 5.86667 -0.314846
77 2 22.8049 6.08799 1.34056 22.8049 6.08799 1.34056
78 2 22.9001 5.81515 -1.93223 22.9001 5.81515 -1.93223
79 1 23.8013 4.35065 -0.24091 23.8013 4.35065 -0.24091
80 2 25.5436 4.51106 1.54899 25.5436 4.51106 1.54899
81 2 25.9552 4.27324 -1.72527 25.9552 4.27324 -1.72527
82 1 26.6988 5.97549 -0.0253678 26.6988 5.97549 -0.0253678
83 2 28.624 6.11549 1.57698 28.624 6.11549 1.57698
84 2 28.6816 5.9309 -1.61245 28.6816 5.9309 -1.61245
85 1 29.643 4.36591 0.0746152 29.643 4.36591 0.0746152
86 2 31.6421 4.23769 1.71824 31.6421 4.23769 1.71824
87 2 31.5952 4.38924 -1.55173 31.5952 4.38924 -1.55173
88 1 32.6581 5.93739 0.192896 32.6581 5.93739 0.192896
89 2 34.7862 5.99624 1.67221 34.7862 5.99624 1.67221
90 2 34.4216 6.07793 -1.58935 34.4216 6.07793 -1.58935
91 1 35.4982 4.30231 -0.000901122 35.4982 4.30231 -0.000901122
92 2 37.567 4.35205 1.36292 37.567 4.35205 1.36292
93 2 37.2286 4.18572 -1.83022 37.2286 4.18572 -1.83022
94 1 38.5056 5.97093 -0.385198 38.5056 5.97093 -0.385198
95 2 40.5401 6.04014 0.986452 40.5401 6.04014 0.986452
96 2 40.11 5.96018 -2.24373 40.11 5.96018 -2.24373
97 1 41.398 4.2359 -0.739191 41.398 4.2359 -0.739191
98 2 43.2866 4.32644 0.905739 43.2866 4.32644 0.905739
99 2 43.4373 4.27813 -2.26873 43.4373 4.27813 -2.26873
100 1 44.3681 5.91044 -0.630864 44.3681 5.91044 -0.630864
101 2 46.3861 5.84635 0.854455 46.3861 5.84635 0.854455
102 2 46.1352 6.01594 -2.33458 46.1352 6.01594 -2.33458
103 1 47.2303 4.31705 -0.835699 47.2303 4.31705 -0.835699
104 2 49.0732 4.22189 0.84167 49.0732 4.22189 0.84167
105 2 49.2626 4.41753 -2.38358 49.2626 4.41753 -2.38358
106 1 50.2168 5.9932 -0.700708 50.2168 5.9932 -0.700708
107 2 52.2194 5.82016 0.896675 52.2194 5.82016 0.896675
108 2 51.9902 6.19185 -2.27884 51.9902 6.19185 -2.27884
109 1 0.369036 7.69413 -0.563632 0.369036 7.69413 -0.563632
110 2 2.31499 7.55734 1.09047 2.31499 7.55734 1.09047
111 2 2.31823 7.66656 -2.16724 2.31823 7.66656 -2.16724
112 1 3.36008 9.30421 -0.491048 3.36008 9.30421 -0.491048
113 2 5.31648 9.17305 1.08199 5.31648 9.17305 1.08199
114 2 5.32759 9.46983 -2.12075 5.32759 9.46983 -2.12075
115 1 6.31691 7.54895 -0.749806 6.31691 7.54895 -0.749806
116 2 8.11296 7.50985 0.899508 8.11296 7.50985 0.899508
117 2 8.12889 7.76139 -2.39445 8.12889 7.76139 -2.39445
118 1 9.12932 9.28152 -0.595688 9.12932 9.28152 -0.595688
119 2 11.1617 9.11348 0.990179 11.1617 9.11348 0.990179
120 2 10.9919 9.30747 -2.23598 10.9919 9.30747 -2.23598
121 1 12.1122 7.55244 -0.678003 12.1122 7.55244 -0.678003
122 2 13.8593 7.32193 0.966644 13.8593 7.32193 0.966644
123 2 14.0108 7.6194 -2.2575 14.0108 7.6194 -2.2575
124 1 14.9299 9.14814 -0.456801 14.9299 9.14814 -0.456801
125 2 16.9563 9.05247 1.1921 16.9563 9.05247 1.1921
126 2 16.9708 9.22311 -2.05719 16.9708 9.22311 -2.05719
127 1 17.8474 7.4597 -0.596706 17.8474 7.4597 -0.596706
128 2 19.7184 7.53618 1.20338 19.7184 7.53618 1.20338
129 2 19.9066 7.48331 -2.01882 19.9066 7.48331 -2.01882
130 1 20.749 9.21585 -0.377867 20.749 9.21585 -0.377867
131 2 22.7478 9.35415 1.20195 22.7478 9.35415 1.20195
132 2 22.8773 9.21084 -1.99884 22.8773 9.21084 -1.99884
133 1 23.7532 7.5903 -0.386109 23.7532 7.5903 -0.386109
134 2 25.4763 7.67738 1.3624 25.4763 7.67738 1.3624
135 2 25.9099 7.50328 -1.93321 25.9099 7.50328 -1.93321
136 1 26.6878 9.28707 -0.26844 26.6878 9.28707 -0.26844
137 2 28.5567 9.30603 1.47307 28.5567 9.30603 1.47307
138 2 28.6434 9.25062 -1.76427 28.6434 9.25062 -1.76427
139 1 29.6829 7.59566 -0.0738284 29.6829 7.59566 -0.0738284
140 2 31.5823 7.80884 1.56292 31.5823 7.80884 1.56292
141 2 31.5948 7.4215 -1.68671 31.5948 7.4215 -1.68671
142 1 32.6059 9.25519 -0.203001 32.6059 9.25519 -0.203001
143 2 34.4238 9.26186 1.54087 34.4238 9.26186 1.54087
144 2 34.5915 9.17305 -1.71904 34.5915 9.17305 -1.71904
145 1 35.5867 7.66326 0.057976 35.5867 7.66326 0.057976
146 2 37.7781 7.54509 1.33361 37.7781 7.54509 1.33361
147 2 37.1988 7.67493 -1.87966 37.1988 7.67493 -1.87966
148 1 38.5272 9.21363 -0.403534 38.5272 9.21363 -0.403534
149 2 40.5953 9.08844 0.995572 40.5953 9.08844 0.995572
150 2 40.4472 9.46478 -2.16856 40.4472 9.46478 -2.16856
151 1 41.4026 7.62901 -0.770554 41.4026 7.62901 -0.770554
152 2 43.3534 7.66557 0.914648 43.3534 7.66557 0.914648
153 2 43.4693 7.59675 -2.27649 43.4693 7.59675 -2.27649
154 1 44.4024 9.26588 -0.614256 44.4024 9.26588 -0.614256
155 2 46.4194 9.27132 0.872274 46.4194 9.27132 0.872274
156 2 46.3071 9.318 -2.27348 46.3071 9.318 -2.27348
157 1 47.267 7.59385 -0.781493 47.267 7.59385 -0.781493
158 2 48.9959 7.58237 0.982714 48.9959 7.58237 0.982714
159 2 49.3009 7.78838 -2.24516 49.3009 7.78838 -2.24516
160 1 50.199 9.27391 -0.524079 50.199 9.27391 -0.524079
161 2 52.183 9.23551 1.12066 52.183 9.23551 1.12066
162 2 52.2135 9.51251 -2.17699 52.2135 9.51251 -2.17699
163 1 0.400361 10.9425 -0.392706 0.400361 10.9425 -0.392706
164 2 2.38292 10.9163 1.15907 2.38292 10.9163 1.15907
165 2 2.39207 11.0438 -2.05354 2.39207 11.0438 -2.05354
166 1 3.36957 12.6138 -0.384365 3.36957 12.6138 -0.384365
167 2 5.20141 12.3399 1.37691 5.20141 12.3399 1.37691
168 2 5.35475 12.6753 -1.84689 5.35475 12.6753 -1.84689
169 1 6.24915 10.974 -0.365796 6.24915 10.974 -0.365796
170 2 8.34489 10.9015 1.11848 8.34489 10.9015 1.11848
171 2 8.07888 11.0419 -2.06894 8.07888 11.0419 -2.06894
172 1 9.13517 12.6304 -0.48394 9.13517 12.6304 -0.48394
173 2 11.043 12.6013 1.21195 11.043 12.6013 1.21195
174 2 11.1342 12.6517 -2.13536 11.1342 12.6517 -2.13536
175 1 12.0598 10.9337 -0.454131 12.0598 10.9337 -0.454131
176 2 14.0448 10.8204 1.19597 14.0448 10.8204 1.19597
177 2 14.0086 10.7585 -2.08572 14.0086 10.7585 -2.08572
178 1 14.9935 12.4663 -0.56623 14.9935 12.4663 -0.56623
179 2 16.754 12.4904 1.2066 16.754 12.4904 1.2066
180 2 17.1221 12.5916 -2.02497 17.1221 12.5916 -2.02497
181 1 17.9157 10.8194 -0.326166 17.9157 10.8194 -0.326166
182 2 19.9073 10.9889 1.37609 19.9073 10.9889 1.37609
183 2 19.6736 10.8436 -1.99654 19.6736 10.8436 -1.99654
184 1 20.871 12.5144 -0.367385 20.871 12.5144 -0.367385
185 2 22.8477 12.6493 1.2328 22.8477 12.6493 1.2328
186 2 22.7901 12.3929 -2.00458 22.7901 12.3929 -2.00458
187 1 23.7659 10.8852 -0.343892 23.7659 10.8852 -0.343892
188 2 25.6168 10.9049 1.2841 25.6168 10.9049 1.2841
189 2 25.7514 10.9025 -1.94405 25.7514 10.9025 -1.94405
190 1 26.7357 12.5305 -0.225373 26.7357 12.5305 -0.225373
191 2 28.5636 12.4274 1.47568 28.5636 12.4274 1.47568
192 2 28.7982 12.5996 -1.82711 28.7982 12.5996 -1.82711
193 1 29.7104 10.8999 -0.154639 29.7104 10.8999 -0.154639
194 2 31.515 10.7299 1.52886 31.515 10.7299 1.52886
195 2 31.6508 11.0999 -1.70685 31.6508 11.0999 -1.70685
196 1 32.6231 12.5434 0.0742926 32.6231 12.5434 0.0742926
197 2 34.6989 12.5947 1.61183 34.6989 12.5947 1.61183
198 2 34.4489 12.5201 -1.67701 34.4489 12.5201 -1.67701
199 1 35.53 10.8724 -0.00484798 35.53 10.8724 -0.00484798
200 2 37.6009 10.6019 1.45281 37.6009 10.6019 1.45281
201 2 37.3529 10.9723 -1.74031 37.3529 10.9723 -1.74031
202 1 38.5503 12.4032 -0.108439 38.5503 12.4032 -0.108439
203 2 40.5903 12.2936 1.29658 40.5903 12.2936 1.29658
204 2 40.3973 12.7501 -1.81223 40.3973 12.7501 -1.81223
205 1 41.5419 10.8891 -0.511186 41.5419 10.8891 -0.511186
206 2 43.4733 10.8743 1.09681 43.4733 10.8743 1.09681
207 2 43.3451 10.9996 -2.18369 43.3451 10.9996 -2.18369
208 1 44.4153 12.5008 -0.430937 44.4153 12.5008 -0.430937
209 2 46.4067 12.322 1.10053 46.4067 12.322 1.10053
210 2 46.3845 12.8305 -2.08595 46.3845 12.8305 -2.08595
211 1 47.4388 10.9562 -0.708073 47.4388 10.9562 -0.708073
212 2 49.1194 10.8113 1.13729 49.1194 10.8113 1.13729
213 2 49.3595 10.9006 -2.23179 49.3595 10.9006 -2.23179
214 1 50.1152 12.5709 -0.53445 50.1152 12.5709 -0.53445
215 2 51.9508 12.4477 1.24628 51.9508 12.4477 1.24628
216 2 52.2111 12.5756 -2.00983 52.2111 12.5756 -2.00983
217 1 0.281442 14.159 -0.228778 0.281442 14.159 -0.228778
218 2 2.36478 14.2184 1.30553 2.36478 14.2184 1.30553
219 2 2.16819 14.3933 -1.83946 2.16819 14.3933 -1.83946
220 1 3.22052 15.8995 -0.170038 3.22052 15.8995 -0.170038
221 2 4.97706 15.6883 1.64574 4.97706 15.6883 1.64574
222 2 5.23556 16.0302 -1.51872 5.23556 16.0302 -1.51872
223 1 6.2365 14.2747 -0.0494031 6.2365 14.2747 -0.0494031
224 2 8.24084 13.9866 1.45794 8.24084 13.9866 1.45794
225 2 8.10012 14.5435 -1.74317 8.10012 14.5435 -1.74317
226 1 9.19436 15.9345 0.184845 9.19436 15.9345 0.184845
227 2 11.3521 15.8928 1.5128 11.3521 15.8928 1.5128
228 2 10.9675 16.1096 -1.69904 10.9675 16.1096 -1.69904
229 1 12.0806 14.2698 -0.450219 12.0806 14.2698 -0.450219
230 2 14.0531 14.0149 1.25085 14.0531 14.0149 1.25085
231 2 14.1262 14.3312 -1.97409 14.1262 14.3312 -1.97409
232 1 15.0506 15.8732 -0.060111 15.0506 15.8732 -0.060111
233 2 17.0532 15.8192 1.4772 17.0532 15.8192 1.4772
234 2 16.993 15.9712 -1.78673 16.993 15.9712 -1.78673
235 1 17.9141 14.3012 -0.208892 17.9141 14.3012 -0.208892
236 2 19.8973 14.0619 1.39745 19.8973 14.0619 1.39745
237 2 19.8683 14.2707 -1.90722 19.8683 14.2707 -1.90722
238 1 20.8949 15.8588 -0.182337 20.8949 15.8588 -0.182337
239 2 22.8919 15.7736 1.31744 22.8919 15.7736 1.31744
240 2 22.7205 15.917 -1.98982 22.7205 15.917 -1.98982
241 1 23.771 14.2396 -0.516692 23.771 14.2396 -0.516692
242 2 25.5483 14.167 1.33567 25.5483 14.167 1.33567
243 2 25.9496 14.3691 -1.89012 25.9496 14.3691 -1.89012
244 1 26.7226 15.8254 -0.151819 26.7226 15.8254 -0.151819
245 2 28.7054 15.9153 1.46142 28.7054 15.9153 1.46142
246 2 28.7309 15.7518 -1.80404 28.7309 15.7518 -1.80404
247 1 29.6664 14.1914 -0.0664042 29.6664 14.1914 -0.0664042
248 2 31.6581 14.3224 1.56831 31.6581 14.3224 1.56831
249 2 31.7475 14.1852 -1.64139 31.7475 14.1852 -1.64139
250 1 32.6773 15.9007 -0.148939 32.6773 15.9007 -0.148939
251 2 34.505 15.663 1.56221 34.505 15.663 1.56221
252 2 34.6649 16.0258 -1.75128 34.6649 16.0258 -1.75128
253 1 35.5839 14.199 -0.136744 35.5839 14.199 -0.136744
254 2 37.5391 13.934 1.50685 37.5391 13.934 1.50685
255 2 37.6267 14.266 -1.6271 37.6267 14.266 -1.6271
256 1 38.5186 15.7836 0.169956 38.5186 15.7836 0.169956
257 2 40.5559 15.8552 1.66733 40.5559 15.8552 1.66733
258 2 40.2767 16.0262 -1.61639 40.2767 16.0262 -1.61639
259 1 41.4501 14.2516 -0.0695641 41.4501 14.2516 -0.0695641
260 2 43.4877 13.8715 1.48546 43.4877 13.8715 1.48546
261 2 43.3477 14.3607 -1.74649 43.3477 14.3607 -1.74649
262 1 44.4076 15.8115 0.0254167 44.4076 15.8115 0.0254167
263 2 46.4029 15.6652 1.57915 46.4029 15.6652 1.57915
264 2 46.2162 16.1341 -1.71631 46.2162 16.1341 -1.71631
265 1 47.3775 14.2931 -0.264916 47.3775 14.2931 -0.264916
266 2 49.3353 14.1698 1.32908 49.3353 14.1698 1.32908
267 2 49.2008 14.3566 -2.04785 49.2008 14.3566 -2.04785
268 1 50.1923 15.8666 -0.24392 50.1923 15.8666 -0.24392
269 2 52.0158 15.8368 1.43605 52.0158 15.8368 1.43605
270 2 52.1983 15.9229 -1.88886 52.1983 15.9229 -1.88886
271 1 0.360124 17.5772 -0.0998266 0.360124 17.5772 -0.0998266
272 2 2.2706 17.3333 1.61883 2.2706 17.3333 1.61883
273 2 2.35459 17.7926 -1.538 2.35459 17.7926 -1.538
274 1 3.27146 19.2012 0.248771 3.27146 19.2012 0.248771
275 2 5.30237 19.3103 1.79082 5.30237 19.3103 1.79082
276 2 5.19597 19.047 -1.47412 5.19597 19.047 -1.47412
277 1 6.18319 17.4824 0.329553 6.18319 17.4824 0.329553
278 2 8.29565 17.5609 1.79919 8.29565 17.5609 1.79919
279 2 8.00064 17.506 -1.39983 8.00064 17.506 -1.39983
280 1 9.19514 19.2588 0.128889 9.19514 19.2588 0.128889
281 2 11.1315 19.1842 1.63744 11.1315 19.1842 1.63744
282 2 11.0421 19.2729 -1.63859 11.0421 19.2729 -1.63859
283 1 12.0706 17.636 -0.074837 12.0706 17.636 -0.074837
284 2 13.9394 17.5725 1.52603 13.9394 17.5725 1.52603
285 2 14.1001 17.5662 -1.55935 14.1001 17.5662 -1.55935
286 1 15.045 19.2446 -0.0357352 15.045 19.2446 -0.0357352
287 2 17.0313 19.1036 1.58926 17.0313 19.1036 1.58926
288 2 17.0157 19.4735 -1.66026 17.0157 19.4735 -1.66026
289 1 17.9524 17.5643 -0.114996 17.9524 17.5643 -0.114996
290 2 19.8844 17.549 1.54917 19.8844 17.549 1.54917
291 2 19.8776 17.5835 -1.7731 19.8776 17.5835 -1.7731
292 1 20.8918 19.2134 -0.0297509 20.8918 19.2134 -0.0297509
293 2 22.9946 19.2246 1.50169 22.9946 19.2246 1.50169
294 2 22.7485 19.1772 -1.79352 22.7485 19.1772 -1.79352
295 1 23.8609 17.5674 -0.265195 23.8609 17.5674 -0.265195
296 2 25.5968 17.563 1.4554 25.5968 17.563 1.4554
297 2 25.8031 17.5173 -1.92418 25.8031 17.5173 -1.92418
298 1 26.8151 19.1519 -0.134791 26.8151 19.1519 -0.134791
299 2 28.8207 18.9908 1.56641 28.8207 18.9908 1.56641
300 2 28.7295 19.2171 -1.80947 28.7295 19.2171 -1.80947
301 1 29.6938 17.5002 -0.289146 29.6938 17.5002 -0.289146
302 2 31.5083 17.4371 1.4417 31.5083 17.4371 1.4417
303 2 31.6899 17.5525 -1.85844 31.6899 17.5525 -1.85844
304 1 32.631 19.1855 -0.140557 32.631 19.1855 -0.140557
305 2 34.3456 19.1866 1.73281 34.3456 19.1866 1.73281
306 2 34.954 19.22 -1.46108 34.954 19.22 -1.46108
307 1 35.559 17.4479 0.14513 35.559 17.4479 0.14513
308 2 37.5015 17.5241 1.78668 37.5015 17.5241 1.78668
309 2 37.4031 17.3083 -1.47425 37.4031 17.3083 -1.47425
310 1 38.49 19.1313 0.0315367 38.49 19.1313 0.0315367
311 2 40.3199 19.0084 1.69282 40.3199 19.0084 1.69282
312 2 40.4997 19.3203 -1.49904 40.4997 19.3203 -1.49904
313 1 41.3414 17.5331 0.0420389 41.3414 17.5331 0.0420389
314 2 43.2806 17.3159 1.79787 43.2806 17.3159 1.79787
315 2 43.4515 17.7529 -1.50773 43.4515 17.7529 -1.50773
316 1 44.2854 19.1789 0.345092 44.2854 19.1789 0.345092
317 2 46.3525 19.0962 1.83283 46.3525 19.0962 1.83283
318 2 46.2075 19.2817 -1.31371 46.2075 19.2817 -1.31371
319 1 47.3004 17.5746 0.107077 47.3004 17.5746 0.107077
320 2 49.3455 17.4467 1.54456 49.3455 17.4467 1.54456
321 2 49.235 17.6801 -1.68536 49.235 17.6801 -1.68536
322 1 50.2265 19.1648 -0.0920101 50.2265 19.1648 -0.0920101
323 2 52.0412 19.0436 1.59664 52.0412 19.0436 1.59664
324 2 52.1464 19.2221 -1.68211 52.1464 19.2221 -1.68211
325 1 0.335395 20.7778 0.131711 0.335395 20.7778 0.131711
326 2 2.25684 20.7031 1.87731 2.25684 20.7031 1.87731
327 2 2.27481 20.7479 -1.40287 2.27481 20.7479 -1.40287
328 1 3.27057 22.5117 0.301141 3.27057 22.5117 0.301141
329 2 5.28866 22.3254 1.80537 5.28866 22.3254 1.80537
330 2 5.25226 22.599 -1.36881 5.25226 22.599 -1.36881
331 1 6.26767 20.7707 0.0247548 6.26767 20.7707 0.0247548
332 2 8.10785 20.8066 1.68158 8.10785 20.8066 1.68158
333 2 8.23545 20.7143 -1.54535 8.23545 20.7143 -1.54535
334 1 9.26292 22.397 0.0261245 9.26292 22.397 0.0261245
335 2 11.1356 22.4539 1.66435 11.1356 22.4539 1.66435
336 2 11.2675 22.5783 -1.64218 11.2675 22.5783 -1.64218
337 1 12.1963 20.9043 -0.04187 12.1963 20.9043 -0.04187
338 2 14.1788 20.8443 1.66843 14.1788 20.8443 1.66843
339 2 14.0368 20.9801 -1.69417 14.0368 20.9801 -1.69417
340 1 15.0275 22.5055 0.00863791 15.0275 22.5055 0.00863791
341 2 16.961 22.6348 1.66107 16.961 22.6348 1.66107
342 2 16.9998 22.448 -1.54721 16.9998 22.448 -1.54721
343 1 17.9463 20.9064 0.134437 17.9463 20.9064 0.134437
344 2 19.9112 21.0544 1.6561 19.9112 21.0544 1.6561
345 2 19.8163 20.9131 -1.54423 19.8163 20.9131 -1.54423
346 1 20.8224 22.6431 0.000484955 20.8224 22.6431 0.000484955
347 2 22.8118 22.4329 1.55461 22.8118 22.4329 1.55461
348 2 22.6881 22.6921 -1.67578 22.6881 22.6921 -1.67578
349 1 23.8224 20.8823 -0.221281 23.8224 20.8823 -0.221281
350 2 25.8046 20.8599 1.51501 25.8046 20.8599 1.51501
351 2 25.7596 20.9273 -1.81461 25.7596 20.9273 -1.81461
352 1 26.8125 22.4474 -0.0660538 26.8125 22.4474 -0.0660538
353 2 28.6457 22.389 1.60565 28.6457 22.389 1.60565
354 2 28.7053 22.5418 -1.56169 28.7053 22.5418 -1.56169
355 1 29.7011 20.808 -0.0228813 29.7011 20.808 -0.0228813
356 2 31.6208 20.7874 1.6347 31.6208 20.7874 1.6347
357 2 31.6939 21.0031 -1.5647 31.6939 21.0031 -1.5647
358 1 32.583 22.4738 0.141796 32.583 22.4738 0.141796
359 2 34.4068 22.4766 1.84614 34.4068 22.4766 1.84614
360 2 34.6434 22.5099 -1.4114 34.6434 22.5099 -1.4114
361 1 35.5813 20.7701 0.317131 35.5813 20.7701 0.317131
362 2 37.5563 20.4488 1.90031 37.5563 20.4488 1.90031
363 2 37.4632 20.9821 -1.3766 37.4632 20.9821 -1.3766
364 1 38.4547 22.3889 0.378752 38.4547 22.3889 0.378752
365 2 40.4175 22.524 1.79238 40.4175 22.524 1.79238
366 2 40.3324 22.4594 -1.38608 40.3324 22.4594 -1.38608
367 1 41.394 20.8405 0.2588 41.394 20.8405 0.2588
368 2 43.3104 20.9569 1.9283 43.3104 20.9569 1.9283
369 2 43.3616 20.8257 -1.39313 43.3616 20.8257 -1.39313
370 1 44.288 22.4682 0.175455 44.288 22.4682 0.175455
371 2 46.302 22.7116 1.7407 46.302 22.7116 1.7407
372 2 46.1876 22.3091 -1.54119 46.1876 22.3091 -1.54119
373 1 47.2737 20.9044 0.191469 47.2737 20.9044 0.191469
374 2 49.2723 20.6819 1.65552 49.2723 20.6819 1.65552
375 2 49.2115 20.8387 -1.49596 49.2115 20.8387 -1.49596
376 1 50.1427 22.4378 0.219559 50.1427 22.4378 0.219559
377 2 51.9874 22.3489 1.82441 51.9874 22.3489 1.82441
378 2 52.0009 22.4894 -1.49577 52.0009 22.4894 -1.49577
379 1 0.390133 24.0805 0.137121 0.390133 24.0805 0.137121
380 2 2.31393 24.1298 1.82232 2.31393 24.1298 1.82232
381 2 2.4088 24.1163 -1.5527 2.4088 24.1163 -1.5527
382 1 3.34097 25.7744 0.042155 3.34097 25.7744 0.042155
383 2 5.25384 25.9092 1.75599 5.25384 25.9092 1.75599
384 2 5.34805 25.6066 -1.58218 5.34805 25.6066 -1.58218
385 1 6.26124 24.0839 0.322272 6.26124 24.0839 0.322272
386 2 8.37686 24.162 1.74095 8.37686 24.162 1.74095
387 2 8.11202 23.9961 -1.5096 8.11202 23.9961 -1.5096
388 1 9.21877 25.7997 -0.109227 9.21877 25.7997 -0.109227
389 2 11.16 25.8178 1.62343 11.16 25.8178 1.62343
390 2 11.2106 25.6712 -1.65516 11.2106 25.6712 -1.65516
391 1 12.146 24.1273 0.119158 12.146 24.1273 0.119158
392 2 14.0572 24.0293 1.70585 14.0572 24.0293 1.70585
393 2 14.1266 24.2269 -1.50823 14.1266 24.2269 -1.50823
394 1 15.0836 25.8375 0.278312 15.0836 25.8375 0.278312
395 2 16.9792 25.6362 1.89782 16.9792 25.6362 1.89782
396 2 16.9473 25.9749 -1.37018 16.9473 25.9749 -1.37018
397 1 17.9082 24.1692 0.0625255 17.9082 24.1692 0.0625255
398 2 19.7496 23.9597 1.82098 19.7496 23.9597 1.82098
399 2 19.9592 24.4223 -1.50165 19.9592 24.4223 -1.50165
400 1 20.8972 25.7767 0.438387 20.8972 25.7767 0.438387
401 2 22.9628 25.6716 1.90708 22.9628 25.6716 1.90708
402 2 22.6793 25.9046 -1.37193 22.6793 25.9046 -1.37193
403 1 23.845 24.2201 0.02599 23.845 24.2201 0.02599
404 2 25.6848 23.8961 1.72724 25.6848 23.8961 1.72724
405 2 25.8298 24.3033 -1.49169 25.8298 24.3033 -1.49169
406 1 26.7443 25.7313 0.343302 26.7443 25.7313 0.343302
407 2 28.6566 25.5828 1.8837 28.6566 25.5828 1.8837
408 2 28.6581 25.8388 -1.28832 28.6581 25.8388 -1.28832
409 1 29.6538 24.1396 0.157663 29.6538 24.1396 0.157663
410 2 31.5202 23.9368 1.85904 31.5202 23.9368 1.85904
411 2 31.7672 24.3559 -1.38068 31.7672 24.3559 -1.38068
412 1 32.5753 25.7761 0.540667 32.5753 25.7761 0.540667
413 2 34.5565 25.6361 2.11205 34.5565 25.6361 2.11205
414 2 34.413 25.8468 -1.20327 34.413 25.8468 -1.20327
415 1 35.5194 24.1399 0.263937 35.5194 24.1399 0.263937
416 2 37.3094 24.1811 2.05055 37.3094 24.1811 2.05055
417 2 37.553 24.1275 -1.29502 37.553 24.1275 -1.29502
418 1 38.3458 25.7196 0.395854 38.3458 25.7196 0.395854
419 2 40.2827 25.5588 1.98154 40.2827 25.5588 1.98154
420 2 40.2163 25.9897 -1.29207 40.2163 25.9897 -1.29207
421 1 41.3228 24.1463 0.14665 41.3228 24.1463 0.14665
422 2 43.2336 24.0999 1.829 43.2336 24.0999 1.829
423 2 43.284 24.1455 -1.44919 43.284 24.1455 -1.44919
424 1 44.2799 25.754 0.12033 44.2799 25.754 0.12033
425 2 46.1249 25.7039 1.79186 46.1249 25.7039 1.79186
426 2 46.225 26.0103 -1.44753 46.225 26.0103 -1.44753
427 1 47.1982 24.211 0.0027509 47.1982 24.211 0.0027509
428 2 49.0244 24.09 1.77947 49.0244 24.09 1.77947
429 2 49.3894 24.2331 -1.37512 49.3894 24.2331 -1.37512
430 1 50.2041 25.8028 0.337614 50.2041 25.8028 0.337614
431 2 52.2256 25.7509 1.80369 52.2256 25.7509 1.80369
432 2 51.9454 25.774 -1.40356 51.9454 25.774 -1.40356
433 1 0.384579 27.4111 0.10509 0.384579 27.4111 0.10509
434 2 2.36653 27.4047 1.6895 2.36653 27.4047 1.6895
435 2 2.21371 27.2541 -1.62092 2.21371 27.2541 -1.62092
436 1 3.27548 28.9824 -0.0859816 3.27548 28.9824 -0.0859816
437 2 5.39303 28.8674 1.55596 5.39303 28.8674 1.55596
438 2 5.20789 29.0661 -1.74767 5.20789 29.0661 -1.74767
439 1 6.29191 27.388 -0.0905135 6.29191 27.388 -0.0905135
440 2 8.21859 27.3623 1.55435 8.21859 27.3623 1.55435
441 2 8.25307 27.4949 -1.75421 8.25307 27.4949 -1.75421
442 1 9.17554 29.0007 -0.0291425 9.17554 29.0007 -0.0291425
443 2 11.1664 28.9863 1.60582 11.1664 28.9863 1.60582
444 2 11.0912 28.947 -1.67874 11.0912 28.947 -1.67874
445 1 12.1162 27.3628 -0.0891086 12.1162 27.3628 -0.0891086
446 2 13.906 27.3707 1.77017 13.906 27.3707 1.77017
447 2 14.2765 27.5122 -1.41434 14.2765 27.5122 -1.41434
448 1 15.1248 29.078 0.327138 15.1248 29.078 0.327138
449 2 16.8867 28.9678 2.17081 16.8867 28.9678 2.17081
450 2 17.2377 29.2765 -1.07021 17.2377 29.2765 -1.07021
451 1 18.012 27.4968 0.471699 18.012 27.4968 0.471699
452 2 19.8707 27.3707 2.14891 19.8707 27.3707 2.14891
453 2 19.8948 27.626 -1.04612 19.8948 27.626 -1.04612
454 1 20.8393 29.0977 0.697628 20.8393 29.0977 0.697628
455 2 22.8327 29.0927 2.14499 22.8327 29.0927 2.14499
456 2 22.5536 29.0779 -1.11177 22.5536 29.0779 -1.11177
457 1 23.8058 27.4252 0.301944 23.8058 27.4252 0.301944
458 2 25.6409 27.5163 1.89925 25.6409 27.5163 1.89925
459 2 25.7521 27.3565 -1.24802 25.7521 27.3565 -1.24802
460 1 26.6657 29.1094 0.232661 26.6657 29.1094 0.232661
461 2 28.4912 29.0368 1.94767 28.4912 29.0368 1.94767
462 2 28.7446 29.1106 -1.27206 28.7446 29.1106 -1.27206
463 1 29.6314 27.3908 0.433991 29.6314 27.3908 0.433991
464 2 31.4119 27.3108 2.10481 31.4119 27.3108 2.10481
465 2 31.5181 27.4272 -1.08576 31.5181 27.4272 -1.08576
466 1 32.4908 29.041 0.567406 32.4908 29.041 0.567406
467 2 34.4317 29.0544 2.12945 34.4317 29.0544 2.12945
468 2 34.2912 28.9669 -1.1448 34.2912 28.9669 -1.1448
469 1 35.4166 27.3619 0.517535 35.4166 27.3619 0.517535
470 2 37.4511 27.3783 2.06687 37.4511 27.3783 2.06687
471 2 37.2729 27.2557 -1.29693 37.2729 27.2557 -1.29693
472 1 38.2763 28.9722 0.284674 38.2763 28.9722 0.284674
473 2 40.0954 29.1204 2.03815 40.0954 29.1204 2.03815
474 2 40.2473 29.0142 -1.33846 40.2473 29.0142 -1.33846
475 1 41.2586 27.4661 0.441174 41.2586 27.4661 0.441174
476 2 43.3581 27.3915 1.90978 43.3581 27.3915 1.90978
477 2 43.1207 27.5011 -1.30872 43.1207 27.5011 -1.30872
478 1 44.256 29.1 0.398528 44.256 29.1 0.398528
479 2 46.2359 29.0872 1.95476 46.2359 29.0872 1.95476
480 2 46.2323 29.265 -1.26862 46.2323 29.265 -1.26862
481 1 47.2024 27.4807 0.317563 47.2024 27.4807 0.317563
482 2 49.2576 27.4507 1.98522 49.2576 27.4507 1.98522
483 2 49.1237 27.4399 -1.29836 49.1237 27.4399 -1.29836
484 1 50.2141 29.0763 0.304212 50.2141 29.0763 0.304212
485 2 52.2857 28.9606 1.93316 52.2857 28.9606 1.93316
486 2 52.0226 29.1491 -1.42079 52.0226 29.1491 -1.42079
487 1 0.308055 30.6851 0.197756 0.308055 30.6851 0.197756
488 2 2.35832 30.4714 1.61542 2.35832 30.4714 1.61542
489 2 2.0996 30.6449 -1.5343 2.0996 30.6449 -1.5343
490 1 3.22163 32.2042 -0.058435 3.22163 32.2042 -0.058435
491 2 5.4177 32.5006 1.42305 5.4177 32.5006 1.42305
492 2 5.04544 32.0088 -1.89288 5.04544 32.0088 -1.89288
493 1 6.16294 30.6094 -0.0716539 6.16294 30.6094 -0.0716539
494 2 8.103 30.5944 1.55455 8.103 30.5944 1.55455
495 2 8.07753 30.4525 -1.74162 8.07753 30.4525 -1.74162
496 1 9.0753 32.2205 -0.113051 9.0753 32.2205 -0.113051
497 2 11.0673 32.2441 1.43479 11.0673 32.2441 1.43479
498 2 10.9359 32.1347 -1.76355 10.9359 32.1347 -1.76355
499 1 12.1588 30.6852 -0.0667482 12.1588 30.6852 -0.0667482
500 2 13.8976 30.7633 1.77517 13.8976 30.7633 1.77517
501 2 14.2241 30.6176 -1.43552 14.2241 30.6176 -1.43552
502 1 15.0513 32.35 0.275442 15.0513 32.35 0.275442
503 2 16.7096 32.4152 2.08301 16.7096 32.4152 2.08301
504 2 17.1177 32.2181 -1.05371 17.1177 32.2181 -1.05371
505 1 17.9101 30.7163 0.815429 17.9101 30.7163 0.815429
506 2 19.8324 30.8012 2.30392 19.8324 30.8012 2.30392
507 2 19.7957 30.66 -0.912333 19.7957 30.66 -0.912333
508 1 20.8974 32.3425 0.639216 20.8974 32.3425 0.639216
509 2 22.9549 32.2813 2.08527 22.9549 32.2813 2.08527
510 2 22.6331 32.1617 -1.17985 22.6331 32.1617 -1.17985
511 1 23.744 30.6707 0.427816 23.744 30.6707 0.427816
512 2 25.6855 30.6516 1.95955 25.6855 30.6516 1.95955
513 2 25.5984 30.8674 -1.36198 25.5984 30.8674 -1.36198
514 1 26.6828 32.3706 0.35125 26.6828 32.3706 0.35125
515 2 28.714 32.3894 2.01629 28.714 32.3894 2.01629
516 2 28.4771 32.2413 -1.2625 28.4771 32.2413 -1.2625
517 1 29.5872 30.7224 0.38458 29.5872 30.7224 0.38458
518 2 31.4487 30.7612 2.13161 31.4487 30.7612 2.13161
519 2 31.6037 30.6781 -1.06017 31.6037 30.6781 -1.06017
520 1 32.5346 32.4334 0.427889 32.5346 32.4334 0.427889
521 2 34.6774 32.5007 1.78394 34.6774 32.5007 1.78394
522 2 34.3998 32.2028 -1.30704 34.3998 32.2028 -1.30704
523 1 35.4246 30.6514 0.454924 35.4246 30.6514 0.454924
524 2 37.4695 30.6791 1.95708 37.4695 30.6791 1.95708
525 2 37.2438 30.697 -1.27544 37.2438 30.697 -1.27544
526 1 38.3354 32.3107 0.214127 38.3354 32.3107 0.214127
527 2 40.1442 32.349 2.03469 40.1442 32.349 2.03469
528 2 40.4522 32.3738 -1.14069 40.4522 32.3738 -1.14069
529 1 41.2232 30.641 0.421596 41.2232 30.641 0.421596
530 2 43.0925 30.676 2.10981 43.0925 30.676 2.10981
531 2 43.2654 30.8721 -1.10876 43.2654 30.8721 -1.10876
532 1 44.2519 32.4532 0.624383 44.2519 32.4532 0.624383
533 2 46.4452 32.4344 1.96709 46.4452 32.4344 1.96709
534 2 46.0828 32.3316 -1.177 46.0828 32.3316 -1.177
535 1 47.2789 30.8416 0.389018 47.2789 30.8416 0.389018
536 2 49.2141 30.6684 1.9415 49.2141 30.6684 1.9415
537 2 49.0559 30.7252 -1.30246 49.0559 30.7252 -1.30246
538 1 50.1804 32.3341 0.275442 50.1804 32.3341 0.275442