ITEM: TIMESTEP
1542000
ITEM: NUMBER OF ATOMS
810
ITEM: BOX BOUNDS pp pp pp
-3.1603525548374574e+00 5.6177957554837917e+01
8.0582000660415243e-01 5.0210394993394715e+01
-1.0000000000000000e+01 1.0000000000000000e+01
ITEM: ATOMS id type x y z xu yu zu
1 1 -2.80477 1.03103 -0.443198 -2.80477 1.03103 -0.443198
2 2 -0.84767 1.26468 1.23854 -0.84767 1.26468 1.23854
3 2 -0.653257 0.969855 -2.04986 -0.653257 0.969855 -2.04986
4 1 0.40114 2.67291 -0.485224 0.40114 2.67291 -0.485224
5 2 2.58598 2.76274 1.23771 2.58598 2.76274 1.23771
6 2 2.70472 2.76161 -1.9956 2.70472 2.76161 -1.9956
7 1 3.7317 1.04491 -0.339635 3.7317 1.04491 -0.339635
8 2 5.88267 0.806926 1.20558 5.88267 0.806926 1.20558
9 2 5.79504 1.12662 -2.01446 5.79504 1.12662 -2.01446
10 1 6.9697 2.54505 -0.287119 6.9697 2.54505 -0.287119
11 2 9.11711 2.64144 1.21826 9.11711 2.64144 1.21826
12 2 9.08983 2.62713 -1.98497 9.08983 2.62713 -1.98497
13 1 10.2684 0.935452 -0.452383 10.2684 0.935452 -0.452383
14 2 12.5015 0.906428 1.02998 12.5015 0.906428 1.02998
15 2 12.4609 1.01164 -2.09502 12.4609 1.01164 -2.09502
16 1 13.5293 2.67962 -0.433128 13.5293 2.67962 -0.433128
17 2 15.7561 2.63374 1.21797 15.7561 2.63374 1.21797
18 2 15.6824 2.65425 -2.11214 15.6824 2.65425 -2.11214
19 1 16.7869 0.939819 -0.481988 16.7869 0.939819 -0.481988
20 2 18.8408 1.01422 1.25599 18.8408 1.01422 1.25599
21 2 19.0283 0.922686 -2.0225 19.0283 0.922686 -2.0225
22 1 20.1195 2.60683 -0.406388 20.1195 2.60683 -0.406388
23 2 22.4757 2.60791 1.20356 22.4757 2.60791 1.20356
24 2 22.2827 2.54553 -2.05264 22.2827 2.54553 -2.05264
25 1 23.4367 0.980052 -0.391793 23.4367 0.980052 -0.391793
26 2 25.4636 0.876216 1.22012 25.4636 0.876216 1.22012
27 2 25.5976 0.896357 -1.99144 25.5976 0.896357 -1.99144
28 1 26.7533 2.54766 -0.407964 26.7533 2.54766 -0.407964
29 2 28.843 2.81786 1.2729 28.843 2.81786 1.2729
30 2 28.907 2.54298 -2.04235 28.907 2.54298 -2.04235
31 1 30.0759 1.10304 -0.205275 30.0759 1.10304 -0.205275
32 2 32.1747 1.10265 1.43937 32.1747 1.10265 1.43937
33 2 32.4164 1.00029 -1.76873 32.4164 1.00029 -1.76873
34 1 33.443 2.71607 -0.148895 33.443 2.71607 -0.148895
35 2 35.7248 2.72024 1.39645 35.7248 2.72024 1.39645
36 2 35.7207 2.63212 -1.82165 35.7207 2.63212 -1.82165
37 1 36.7688 1.06093 -0.231437 36.7688 1.06093 -0.231437
38 2 38.8445 1.13499 1.46204 38.8445 1.13499 1.46204
39 2 39.027 0.882532 -1.7356 39.027 0.882532 -1.7356
40 1 40.0417 2.71636 -0.180659 40.0417 2.71636 -0.180659
41 2 42.4205 2.77388 1.39547 42.4205 2.77388 1.39547
42 2 42.2013 2.58837 -1.72848 42.2013 2.58837 -1.72848
43 1 43.3073 0.99625 -0.0836558 43.3073 0.99625 -0.0836558
44 2 45.7645 0.992571 1.3832 45.7645 0.992571 1.3832
45 2 45.3937 1.01989 -1.81997 45.3937 1.01989 -1.81997
46 1 46.6908 2.69538 -0.244254 46.6908 2.69538 -0.244254
47 2 48.9541 2.53334 1.44311 48.9541 2.53334 1.44311
48 2 48.675 2.59624 -1.83979 48.675 2.59624 -1.83979
49 1 50.0246 0.973637 -0.275133 50.0246 0.973637 -0.275133
50 2 52.1922 1.2194 1.33675 52.1922 1.2194 1.33675
51 2 52.18 0.892691 -1.8158 52.18 0.892691 -1.8158
52 1 53.2204 2.68954 -0.333392 53.2204 2.68954 -0.333392
53 2 55.4527 2.70125 1.16632 55.4527 2.70125 1.16632
54 2 55.2866 2.65116 -2.00307 55.2866 2.65116 -2.00307
55 1 -2.87163 4.29142 -0.511011 -2.87163 4.29142 -0.511011
56 2 -0.544164 4.34829 1.10086 -0.544164 4.34829 1.10086
57 2 -0.533489 4.2714 -2.16029 -0.533489 4.2714 -2.16029
58 1 0.582437 5.95314 -0.495695 0.582437 5.95314 -0.495695
59 2 2.53438 6.18192 1.19053 2.53438 6.18192 1.19053
60 2 2.69087 5.99385 -2.00433 2.69087 5.99385 -2.00433
61 1 3.79978 4.39824 -0.316835 3.79978 4.39824 -0.316835
62 2 6.01142 4.35131 1.31875 6.01142 4.35131 1.31875
63 2 5.82889 4.25792 -1.99524 5.82889 4.25792 -1.99524
64 1 7.05589 5.82952 -0.476731 7.05589 5.82952 -0.476731
65 2 9.05824 5.93441 1.30063 9.05824 5.93441 1.30063
66 2 9.18195 5.89692 -1.96184 9.18195 5.89692 -1.96184
67 1 10.2439 4.27382 -0.261293 10.2439 4.27382 -0.261293
68 2 12.4068 4.17666 1.2578 12.4068 4.17666 1.2578
69 2 12.4393 4.41904 -1.94745 12.4393 4.41904 -1.94745
70 1 13.6049 5.91866 -0.251948 13.6049 5.91866 -0.251948
71 2 15.8657 6.06974 1.36107 15.8657 6.06974 1.36107
72 2 15.5962 5.89852 -1.87854 15.5962 5.89852 -1.87854
73 1 16.7553 4.36186 -0.372027 16.7553 4.36186 -0.372027
74 2 19.0649 4.27454 1.17165 19.0649 4.27454 1.17165
75 2 18.8772 4.17104 -2.02369 18.8772 4.17104 -2.02369
76 1 20.14 5.86257 -0.479509 20.14 5.86257 -0.479509
77 2 22.3555 5.90034 1.10689 22.3555 5.90034 1.10689
78 2 22.1941 5.88341 -2.13874 22.1941 5.88341 -2.13874
79 1 23.4282 4.26384 -0.521218 23.4282 4.26384 -0.521218
80 2 25.5706 4.3244 1.17154 25.5706 4.3244 1.17154
81 2 25.7319 4.32859 -1.91522 25.7319 4.32859 -1.91522
82 1 26.739 5.84171 -0.244518 26.739 5.84171 -0.244518
83 2 28.909 5.8496 1.27836 28.909 5.8496 1.27836
84 2 28.8161 5.92007 -1.87136 28.8161 5.92007 -1.87136
85 1 30.0695 4.23233 -0.356566 30.0695 4.23233 -0.356566
86 2 32.1447 4.30781 1.37279 32.1447 4.30781 1.37279
87 2 32.3721 4.1959 -1.88282 32.3721 4.1959 -1.88282
88 1 33.2474 5.9834 -0.206951 33.2474 5.9834 -0.206951
89 2 35.5358 6.01329 1.33698 35.5358 6.01329 1.33698
90 2 35.4529 5.71378 -1.78506 35.4529 5.71378 -1.78506
91 1 36.6819 4.27268 -0.218549 36.6819 4.27268 -0.218549
92 2 38.8657 4.43558 1.35247 38.8657 4.43558 1.35247
93 2 38.7553 4.18319 -1.8252 38.7553 4.18319 -1.8252
94 1 40.0308 5.93387 -0.438294 40.0308 5.93387 -0.438294
95 2 42.0883 5.92067 1.27861 42.0883 5.92067 1.27861
96 2 42.2738 5.90485 -1.99455 42.2738 5.90485 -1.99455
97 1 43.4409 4.39392 -0.381434 43.4409 4.39392 -0.381434
98 2 45.4875 4.31949 1.2998 45.4875 4.31949 1.2998
99 2 45.6353 4.30708 -1.91217 45.6353 4.30708 -1.91217
100 1 46.6333 5.94012 -0.292093 46.6333 5.94012 -0.292093
101 2 48.6617 6.02214 1.36258 48.6617 6.02214 1.36258
102 2 48.7758 5.89818 -1.90391 48.7758 5.89818 -1.90391
103 1 49.8814 4.24225 -0.174255 49.8814 4.24225 -0.174255
104 2 52.1576 4.41698 1.30441 52.1576 4.41698 1.30441
105 2 51.972 4.27659 -1.88649 51.972 4.27659 -1.88649
106 1 53.1402 6.00998 -0.394627 53.1402 6.00998 -0.394627
107 2 55.4977 5.95633 1.17907 55.4977 5.95633 1.17907
108 2 55.3526 5.94844 -2.14794 55.3526 5.94844 -2.14794
109 1 -2.75836 7.69587 -0.476123 -2.75836 7.69587 -0.476123
110 2 -0.465136 7.67937 1.17432 -0.465136 7.67937 1.17432
111 2 -0.634428 7.49171 -2.04037 -0.634428 7.49171 -2.04037
112 1 0.596278 9.39246 -0.498599 0.596278 9.39246 -0.498599
113 2 2.57397 9.31416 1.21003 2.57397 9.31416 1.21003
114 2 2.82346 9.38644 -2.06862 2.82346 9.38644 -2.06862
115 1 3.8276 7.69769 -0.393732 3.8276 7.69769 -0.393732
116 2 6.01123 7.59035 1.15894 6.01123 7.59035 1.15894
117 2 6.00746 7.58083 -2.04817 6.00746 7.58083 -2.04817
118 1 7.1087 9.14904 -0.512646 7.1087 9.14904 -0.512646
119 2 9.21188 9.22037 1.19902 9.21188 9.22037 1.19902
120 2 9.2734 9.17147 -2.08151 9.2734 9.17147 -2.08151
121 1 10.2989 7.60185 -0.336036 10.2989 7.60185 -0.336036
122 2 12.3647 7.68377 1.33581 12.3647 7.68377 1.33581
123 2 12.2446 7.49029 -1.96829 12.2446 7.49029 -1.96829
124 1 13.5298 9.19392 -0.426051 13.5298 9.19392 -0.426051
125 2 15.5675 9.29545 1.16919 15.5675 9.29545 1.16919
126 2 15.6774 9.06801 -2.08618 15.6774 9.06801 -2.08618
127 1 16.8479 7.59534 -0.385154 16.8479 7.59534 -0.385154
128 2 19.1129 7.53047 1.10153 19.1129 7.53047 1.10153
129 2 18.9289 7.24316 -2.1358 18.9289 7.24316 -2.1358
130 1 20.1332 9.16758 -0.474509 20.1332 9.16758 -0.474509
131 2 22.4001 9.11809 1.17116 22.4001 9.11809 1.17116
132 2 22.2843 9.21078 -2.09877 22.2843 9.21078 -2.09877
133 1 23.4357 7.55336 -0.560031 23.4357 7.55336 -0.560031
134 2 25.4254 7.63697 1.20539 25.4254 7.63697 1.20539
135 2 25.7811 7.42369 -1.95506 25.7811 7.42369 -1.95506
136 1 26.6376 9.21182 -0.364059 26.6376 9.21182 -0.364059
137 2 28.8785 9.09842 1.26304 28.8785 9.09842 1.26304
138 2 29.0721 9.19185 -2.00881 29.0721 9.19185 -2.00881
139 1 30.1007 7.54313 -0.360474 30.1007 7.54313 -0.360474
140 2 32.2252 7.66594 1.33632 32.2252 7.66594 1.33632
141 2 32.4375 7.54816 -1.96142 32.4375 7.54816 -1.96142
142 1 33.3396 9.17072 -0.299942 33.3396 9.17072 -0.299942
143 2 35.4626 9.09239 1.26458 35.4626 9.09239 1.26458
144 2 35.4809 9.40392 -1.79767 35.4809 9.40392 -1.79767
145 1 36.669 7.51848 -0.393239 36.669 7.51848 -0.393239
146 2 38.9661 7.36481 1.21111 38.9661 7.36481 1.21111
147 2 38.702 7.66694 -2.02077 38.702 7.66694 -2.02077
148 1 39.9608 9.1812 -0.309831 39.9608 9.1812 -0.309831
149 2 42.2128 9.0683 1.27129 42.2128 9.0683 1.27129
150 2 42.1565 9.21447 -1.99508 42.1565 9.21447 -1.99508
151 1 43.2752 7.57526 -0.355337 43.2752 7.57526 -0.355337
152 2 45.3454 7.5607 1.30363 45.3454 7.5607 1.30363
153 2 45.6092 7.52448 -1.80479 45.6092 7.52448 -1.80479
154 1 46.4678 9.23052 -0.194062 46.4678 9.23052 -0.194062
155 2 48.6686 8.98737 1.36309 48.6686 8.98737 1.36309
156 2 48.6099 9.34317 -1.89108 48.6099 9.34317 -1.89108
157 1 49.8428 7.65853 -0.38513 49.8428 7.65853 -0.38513
158 2 52.1626 7.69517 1.33257 52.1626 7.69517 1.33257
159 2 52.0219 7.63908 -2.08533 52.0219 7.63908 -2.08533
160 1 53.1865 9.26782 -0.404168 53.1865 9.26782 -0.404168
161 2 55.4005 9.24135 1.14503 55.4005 9.24135 1.14503
162 2 55.4694 9.26365 -2.08727 55.4694 9.26365 -2.08727
163 1 -2.8664 10.9792 -0.552399 -2.8664 10.9792 -0.552399
164 2 -0.68021 10.8452 1.21506 -0.68021 10.8452 1.21506
165 2 -0.541763 10.9374 -2.09454 -0.541763 10.9374 -2.09454
166 1 0.495215 12.6093 -0.383503 0.495215 12.6093 -0.383503
167 2 2.63195 12.6502 1.23622 2.63195 12.6502 1.23622
168 2 2.70778 12.4815 -2.09303 2.70778 12.4815 -2.09303
169 1 3.81236 10.9544 -0.357633 3.81236 10.9544 -0.357633
170 2 6.02582 10.8759 1.22866 6.02582 10.8759 1.22866
171 2 5.90408 10.9005 -2.08381 5.90408 10.9005 -2.08381
172 1 7.20525 12.4868 -0.502956 7.20525 12.4868 -0.502956
173 2 9.30902 12.6016 1.01808 9.30902 12.6016 1.01808
174 2 9.29604 12.4614 -2.08782 9.29604 12.4614 -2.08782
175 1 10.4344 10.8658 -0.511994 10.4344 10.8658 -0.511994
176 2 12.5912 10.9811 1.08498 12.5912 10.9811 1.08498
177 2 12.3882 10.7394 -2.11841 12.3882 10.7394 -2.11841
178 1 13.6391 12.485 -0.57407 13.6391 12.485 -0.57407
179 2 15.7276 12.5495 1.00232 15.7276 12.5495 1.00232
180 2 15.8798 12.4983 -2.22942 15.8798 12.4983 -2.22942
181 1 16.7956 10.8294 -0.516999 16.7956 10.8294 -0.516999
182 2 18.7986 10.5808 1.1521 18.7986 10.5808 1.1521
183 2 19.0568 11.0301 -2.08039 19.0568 11.0301 -2.08039
184 1 19.9623 12.4381 -0.244133 19.9623 12.4381 -0.244133
185 2 22.1444 12.5171 1.28118 22.1444 12.5171 1.28118
186 2 22.2746 12.4574 -1.8259 22.2746 12.4574 -1.8259
187 1 23.4549 10.8986 -0.251583 23.4549 10.8986 -0.251583
188 2 25.5393 10.9137 1.28176 25.5393 10.9137 1.28176
189 2 25.4795 11.0228 -1.92072 25.4795 11.0228 -1.92072
190 1 26.7235 12.5751 -0.288913 26.7235 12.5751 -0.288913
191 2 28.9547 12.5938 1.28085 28.9547 12.5938 1.28085
192 2 28.8855 12.2908 -1.99329 28.8855 12.2908 -1.99329
193 1 30.0599 10.8831 -0.283126 30.0599 10.8831 -0.283126
194 2 32.2678 10.8594 1.39068 32.2678 10.8594 1.39068
195 2 32.2272 10.9602 -1.85328 32.2272 10.9602 -1.85328
196 1 33.4731 12.491 -0.175022 33.4731 12.491 -0.175022
197 2 35.4172 12.6196 1.45242 35.4172 12.6196 1.45242
198 2 35.6164 12.4051 -1.75805 35.6164 12.4051 -1.75805
199 1 36.6476 10.8697 -0.0245498 36.6476 10.8697 -0.0245498
200 2 38.9753 10.7191 1.48225 38.9753 10.7191 1.48225
201 2 38.6615 10.9532 -1.76756 38.6615 10.9532 -1.76756
202 1 39.8712 12.5259 -0.184892 39.8712 12.5259 -0.184892
203 2 42.0148 12.3673 1.45711 42.0148 12.3673 1.45711
204 2 42.1279 12.5969 -1.82405 42.1279 12.5969 -1.82405
205 1 43.1912 10.8536 -0.320445 43.1912 10.8536 -0.320445
206 2 45.3594 11.0116 1.30773 45.3594 11.0116 1.30773
207 2 45.3507 10.7921 -1.91917 45.3507 10.7921 -1.91917
208 1 46.5375 12.5775 -0.29838 46.5375 12.5775 -0.29838
209 2 48.6772 12.6794 1.44658 48.6772 12.6794 1.44658
210 2 48.8655 12.5822 -1.79053 48.8655 12.5822 -1.79053
211 1 49.7771 10.8527 -0.125592 49.7771 10.8527 -0.125592
212 2 52.1977 11.1022 1.22149 52.1977 11.1022 1.22149
213 2 51.8194 10.8894 -1.90234 51.8194 10.8894 -1.90234
214 1 53.1211 12.615 -0.560266 53.1211 12.615 -0.560266
215 2 55.3366 12.5512 0.986548 55.3366 12.5512 0.986548
216 2 55.2674 12.6187 -2.08484 55.2674 12.6187 -2.08484
217 1 -2.89852 14.3593 -0.41036 -2.89852 14.3593 -0.41036
218 2 -0.711092 14.4078 1.11724 -0.711092 14.4078 1.11724
219 2 -0.759578 14.2121 -2.07983 -0.759578 14.2121 -2.07983
220 1 0.403394 15.9216 -0.579611 0.403394 15.9216 -0.579611
221 2 2.46061 15.7375 1.15049 2.46061 15.7375 1.15049
222 2 2.64985 15.8552 -2.10509 2.64985 15.8552 -2.10509
223 1 3.67387 14.1364 -0.405211 3.67387 14.1364 -0.405211
224 2 5.85007 14.1478 1.18804 5.85007 14.1478 1.18804
225 2 5.94365 14.1506 -1.99094 5.94365 14.1506 -1.99094
226 1 7.04539 15.7447 -0.322545 7.04539 15.7447 -0.322545
227 2 9.41105 15.477 1.1763 9.41105 15.477 1.1763
228 2 9.06196 15.9493 -1.95111 9.06196 15.9493 -1.95111
229 1 10.416 14.1312 -0.756621 10.416 14.1312 -0.756621
230 2 12.2807 14.121 0.909826 12.2807 14.121 0.909826
231 2 12.574 14.2367 -2.27541 12.574 14.2367 -2.27541
232 1 13.6307 15.7543 -0.409736 13.6307 15.7543 -0.409736
233 2 15.7402 15.7302 1.11611 15.7402 15.7302 1.11611
234 2 15.7387 15.8929 -2.05743 15.7387 15.8929 -2.05743
235 1 16.8492 14.1381 -0.552506 16.8492 14.1381 -0.552506
236 2 18.8207 14.0975 1.32217 18.8207 14.0975 1.32217
237 2 19.1774 14.1348 -1.92022 19.1774 14.1348 -1.92022
238 1 20.1481 15.8144 -0.230964 20.1481 15.8144 -0.230964
239 2 22.339 15.8665 1.23795 22.339 15.8665 1.23795
240 2 22.0924 15.8854 -1.87254 22.0924 15.8854 -1.87254
241 1 23.4063 14.1932 -0.308862 23.4063 14.1932 -0.308862
242 2 25.6414 14.1646 1.38924 25.6414 14.1646 1.38924
243 2 25.6958 14.1791 -2.01491 25.6958 14.1791 -2.01491
244 1 26.7417 15.8182 -0.404499 26.7417 15.8182 -0.404499
245 2 29.0646 15.7384 1.21481 29.0646 15.7384 1.21481
246 2 28.8375 15.9028 -2.04638 28.8375 15.9028 -2.04638
247 1 30.0144 14.0698 -0.47809 30.0144 14.0698 -0.47809
248 2 32.2261 14.1403 1.29023 32.2261 14.1403 1.29023
249 2 32.519 14.1297 -1.83316 32.519 14.1297 -1.83316
250 1 33.5038 15.8539 -0.205803 33.5038 15.8539 -0.205803
251 2 35.5205 15.6774 1.39112 35.5205 15.6774 1.39112
252 2 35.6347 15.9301 -1.72045 35.6347 15.9301 -1.72045
253 1 36.6918 14.2306 -0.145093 36.6918 14.2306 -0.145093
254 2 38.7728 14.1648 1.49216 38.7728 14.1648 1.49216
255 2 38.8208 14.2472 -1.73093 38.8208 14.2472 -1.73093
256 1 39.8602 15.8793 -0.0486175 39.8602 15.8793 -0.0486175
257 2 41.9856 15.8741 1.5715 41.9856 15.8741 1.5715
258 2 42.1403 15.9644 -1.57153 42.1403 15.9644 -1.57153
259 1 43.1908 14.2475 0.0724131 43.1908 14.2475 0.0724131
260 2 45.6914 14.2511 1.50926 45.6914 14.2511 1.50926
261 2 45.2516 14.322 -1.77681 45.2516 14.322 -1.77681
262 1 46.5222 15.868 -0.198527 46.5222 15.868 -0.198527
263 2 48.6174 15.9342 1.31501 48.6174 15.9342 1.31501
264 2 48.6739 15.9101 -1.85938 48.6739 15.9101 -1.85938
265 1 49.8463 14.2188 -0.269625 49.8463 14.2188 -0.269625
266 2 52.079 14.1311 1.15283 52.079 14.1311 1.15283
267 2 51.7912 14.4838 -1.99272 51.7912 14.4838 -1.99272
268 1 53.0143 15.9305 -0.342852 53.0143 15.9305 -0.342852
269 2 55.1401 15.8088 1.32186 55.1401 15.8088 1.32186
270 2 55.2035 15.98 -1.95752 55.2035 15.98 -1.95752
271 1 -2.99368 17.5593 -0.24233 -2.99368 17.5593 -0.24233
272 2 -0.719792 17.5241 1.18712 -0.719792 17.5241 1.18712
273 2 -0.920221 17.6184 -1.98651 -0.920221 17.6184 -1.98651
274 1 0.358829 19.2193 -0.374494 0.358829 19.2193 -0.374494
275 2 2.5714 19.0287 1.38905 2.5714 19.0287 1.38905
276 2 2.70614 19.1507 -1.94751 2.70614 19.1507 -1.94751
277 1 3.68922 17.5118 -0.323793 3.68922 17.5118 -0.323793
278 2 5.94377 17.337 1.29325 5.94377 17.337 1.29325
279 2 5.78604 17.5259 -1.83416 5.78604 17.5259 -1.83416
280 1 6.8972 19.1054 -0.198523 6.8972 19.1054 -0.198523
281 2 9.17771 19.0976 1.38768 9.17771 19.0976 1.38768
282 2 9.08493 19.1322 -1.79714 9.08493 19.1322 -1.79714
283 1 10.202 17.456 -0.272123 10.202 17.456 -0.272123
284 2 12.6045 17.3234 1.30535 12.6045 17.3234 1.30535
285 2 12.4693 17.4988 -1.90554 12.4693 17.4988 -1.90554
286 1 13.5227 19.0217 -0.244066 13.5227 19.0217 -0.244066
287 2 15.7485 19.0705 1.25846 15.7485 19.0705 1.25846
288 2 15.7822 19.2035 -1.92236 15.7822 19.2035 -1.92236
289 1 16.8002 17.4103 -0.381229 16.8002 17.4103 -0.381229
290 2 18.9068 17.4915 1.26223 18.9068 17.4915 1.26223
291 2 19.117 17.4557 -1.89196 19.117 17.4557 -1.89196
292 1 20.1852 19.1607 -0.099866 20.1852 19.1607 -0.099866
293 2 22.3836 19.1496 1.43386 22.3836 19.1496 1.43386
294 2 22.3569 19.3324 -1.83183 22.3569 19.3324 -1.83183
295 1 23.3902 17.5321 -0.458867 23.3902 17.5321 -0.458867
296 2 25.4414 17.4139 1.1933 25.4414 17.4139 1.1933
297 2 25.6294 17.5892 -1.97623 25.6294 17.5892 -1.97623
298 1 26.7279 19.1081 -0.254623 26.7279 19.1081 -0.254623
299 2 28.929 18.9768 1.36778 28.929 18.9768 1.36778
300 2 28.9172 19.2556 -1.91708 28.9172 19.2556 -1.91708
301 1 30.0359 17.4518 -0.433375 30.0359 17.4518 -0.433375
302 2 32.0083 17.3661 1.43287 32.0083 17.3661 1.43287
303 2 32.3203 17.607 -1.86309 32.3203 17.607 -1.86309
304 1 33.3219 19.0763 0.0399584 33.3219 19.0763 0.0399584
305 2 35.5674 19.0987 1.67913 35.5674 19.0987 1.67913
306 2 35.4722 19.2763 -1.49852 35.4722 19.2763 -1.49852
307 1 36.6591 17.5642 0.0410244 36.6591 17.5642 0.0410244
308 2 38.8265 17.487 1.62537 38.8265 17.487 1.62537
309 2 38.7105 17.7407 -1.54464 38.7105 17.7407 -1.54464
310 1 39.8867 19.1997 0.156484 39.8867 19.1997 0.156484
311 2 42.0579 19.3036 1.72337 42.0579 19.3036 1.72337
312 2 42.3408 19.219 -1.5443 42.3408 19.219 -1.5443
313 1 43.2551 17.543 0.109865 43.2551 17.543 0.109865
314 2 45.5075 17.5184 1.54604 45.5075 17.5184 1.54604
315 2 45.2222 17.648 -1.58175 45.2222 17.648 -1.58175
316 1 46.5084 19.2102 -0.0653979 46.5084 19.2102 -0.0653979
317 2 48.6603 19.0231 1.4725 48.6603 19.0231 1.4725
318 2 48.4981 19.2602 -1.77186 48.4981 19.2602 -1.77186
319 1 49.6723 17.565 -0.334153 49.6723 17.565 -0.334153
320 2 51.9075 17.613 1.22399 51.9075 17.613 1.22399
321 2 51.8935 17.5184 -1.94196 51.8935 17.5184 -1.94196
322 1 53.0586 19.2184 -0.344949 53.0586 19.2184 -0.344949
323 2 55.0759 19.1427 1.34364 55.0759 19.1427 1.34364
324 2 55.3374 19.2749 -2.02233 55.3374 19.2749 -2.02233
325 1 -3.09269 20.8892 -0.313471 -3.09269 20.8892 -0.313471
326 2 -0.764456 20.8278 1.23993 -0.764456 20.8278 1.23993
327 2 -0.883862 20.8723 -2.07468 -0.883862 20.8723 -2.07468
328 1 0.280051 22.5102 -0.457251 0.280051 22.5102 -0.457251
329 2 2.37069 22.4169 1.30103 2.37069 22.4169 1.30103
330 2 2.62648 22.3644 -1.99621 2.62648 22.3644 -1.99621
331 1 3.6153 20.7667 -0.242115 3.6153 20.7667 -0.242115
332 2 5.83816 20.7476 1.3926 5.83816 20.7476 1.3926
333 2 5.73731 20.6831 -1.93175 5.73731 20.6831 -1.93175
334 1 6.96997 22.3674 -0.277968 6.96997 22.3674 -0.277968
335 2 9.143 22.5035 1.22238 9.143 22.5035 1.22238
336 2 9.11085 22.467 -1.89216 9.11085 22.467 -1.89216
337 1 10.3674 20.8046 -0.204831 10.3674 20.8046 -0.204831
338 2 12.5109 20.7667 1.39053 12.5109 20.7667 1.39053
339 2 12.5086 20.7434 -1.90107 12.5086 20.7434 -1.90107
340 1 13.5053 22.3805 -0.203215 13.5053 22.3805 -0.203215
341 2 15.7833 22.3407 1.39068 15.7833 22.3407 1.39068
342 2 15.6383 22.5022 -1.87764 15.6383 22.5022 -1.87764
343 1 16.8802 20.7983 -0.348422 16.8802 20.7983 -0.348422
344 2 18.9152 20.8209 1.35501 18.9152 20.8209 1.35501
345 2 19.1222 20.7471 -1.80225 19.1222 20.7471 -1.80225
346 1 20.1761 22.4439 -0.212862 20.1761 22.4439 -0.212862
347 2 22.487 22.411 1.44336 22.487 22.411 1.44336
348 2 22.3838 22.4229 -1.94553 22.3838 22.4229 -1.94553
349 1 23.5265 20.8193 -0.229732 23.5265 20.8193 -0.229732
350 2 25.5939 20.631 1.45921 25.5939 20.631 1.45921
351 2 25.5747 20.9101 -1.73927 25.5747 20.9101 -1.73927
352 1 26.6528 22.4998 0.00605559 26.6528 22.4998 0.00605559
353 2 29.1059 22.367 1.60326 29.1059 22.367 1.60326
354 2 28.7915 22.6025 -1.52906 28.7915 22.6025 -1.52906
355 1 30.0751 20.7593 -0.102387 30.0751 20.7593 -0.102387
356 2 32.201 20.7565 1.64451 32.201 20.7565 1.64451
357 2 32.2567 20.7094 -1.65262 32.2567 20.7094 -1.65262
358 1 33.4185 22.4421 0.0234163 33.4185 22.4421 0.0234163
359 2 35.5025 22.5134 1.77854 35.5025 22.5134 1.77854
360 2 35.4443 22.5068 -1.50669 35.4443 22.5068 -1.50669
361 1 36.5845 20.8558 0.168673 36.5845 20.8558 0.168673
362 2 38.7407 20.7765 1.77552 38.7407 20.7765 1.77552
363 2 38.8029 20.9425 -1.37118 38.8029 20.9425 -1.37118
364 1 39.8249 22.5316 0.358802 39.8249 22.5316 0.358802
365 2 42.2445 22.5495 1.89807 42.2445 22.5495 1.89807
366 2 41.9507 22.7948 -1.25172 41.9507 22.7948 -1.25172
367 1 43.2698 20.8867 0.202566 43.2698 20.8867 0.202566
368 2 45.47 20.932 1.6685 45.47 20.932 1.6685
369 2 45.3477 21.0619 -1.48861 45.3477 21.0619 -1.48861
370 1 46.5059 22.6475 0.135179 46.5059 22.6475 0.135179
371 2 48.6677 22.5186 1.52078 48.6677 22.5186 1.52078
372 2 48.4513 22.4985 -1.64807 48.4513 22.4985 -1.64807
373 1 49.7375 20.8485 -0.131517 49.7375 20.8485 -0.131517
374 2 52.0042 20.7882 1.38046 52.0042 20.7882 1.38046
375 2 51.6876 20.6567 -1.88241 51.6876 20.6567 -1.88241
376 1 53.0198 22.4635 -0.330017 53.0198 22.4635 -0.330017
377 2 55.1321 22.4767 1.28049 55.1321 22.4767 1.28049
378 2 55.099 22.4674 -1.95012 55.099 22.4674 -1.95012
379 1 -3.00367 24.0946 -0.362763 -3.00367 24.0946 -0.362763
380 2 -0.891458 24.0414 1.23337 -0.891458 24.0414 1.23337
381 2 -0.782374 24.2368 -2.02599 -0.782374 24.2368 -2.02599
382 1 0.280486 25.6934 -0.302862 0.280486 25.6934 -0.302862
383 2 2.56724 25.6585 1.25935 2.56724 25.6585 1.25935
384 2 2.38305 25.6482 -1.90923 2.38305 25.6482 -1.90923
385 1 3.64875 24.0493 -0.383292 3.64875 24.0493 -0.383292
386 2 5.78162 23.9478 1.2726 5.78162 23.9478 1.2726
387 2 5.9004 24.0721 -1.92586 5.9004 24.0721 -1.92586
388 1 6.9692 25.6751 -0.234228 6.9692 25.6751 -0.234228
389 2 9.01677 25.6161 1.33027 9.01677 25.6161 1.33027
390 2 9.04301 25.8692 -1.92571 9.04301 25.8692 -1.92571
391 1 10.1855 24.1025 -0.370139 10.1855 24.1025 -0.370139
392 2 12.3563 24.013 1.33271 12.3563 24.013 1.33271
393 2 12.5102 24.106 -1.88641 12.5102 24.106 -1.88641
394 1 13.5934 25.7397 -0.261514 13.5934 25.7397 -0.261514
395 2 15.6455 25.6621 1.46651 15.6455 25.6621 1.46651
396 2 15.8723 25.73 -1.82063 15.8723 25.73 -1.82063
397 1 16.9159 24.0825 -0.238055 16.9159 24.0825 -0.238055
398 2 19.0288 23.9973 1.47366 19.0288 23.9973 1.47366
399 2 19.114 24.2102 -1.80733 19.114 24.2102 -1.80733
400 1 20.1401 25.7315 -0.000706701 20.1401 25.7315 -0.000706701
401 2 22.3369 25.5215 1.59134 22.3369 25.5215 1.59134
402 2 22.3382 25.8843 -1.64276 22.3382 25.8843 -1.64276
403 1 23.5308 24.2266 -0.203099 23.5308 24.2266 -0.203099
404 2 25.4736 24.2122 1.57567 25.4736 24.2122 1.57567
405 2 25.8572 24.1983 -1.72239 25.8572 24.1983 -1.72239
406 1 26.7859 25.8151 0.0231272 26.7859 25.8151 0.0231272
407 2 28.8992 25.7491 1.62849 28.8992 25.7491 1.62849
408 2 28.8997 25.7341 -1.59603 28.8997 25.7341 -1.59603
409 1 30.099 24.1274 -0.000795183 30.099 24.1274 -0.000795183
410 2 32.3266 24.1241 1.58314 32.3266 24.1241 1.58314
411 2 32.2728 24.1237 -1.57578 32.2728 24.1237 -1.57578
412 1 33.3347 25.7676 0.0278436 33.3347 25.7676 0.0278436
413 2 35.3734 25.9478 1.70571 35.3734 25.9478 1.70571
414 2 35.5081 25.6903 -1.50888 35.5081 25.6903 -1.50888
415 1 36.6538 24.1331 0.218492 36.6538 24.1331 0.218492
416 2 38.7345 24.2141 1.81876 38.7345 24.2141 1.81876
417 2 38.7775 24.1043 -1.3584 38.7775 24.1043 -1.3584
418 1 39.9004 25.7998 0.254148 39.9004 25.7998 0.254148
419 2 41.963 25.9035 1.86086 41.963 25.9035 1.86086
420 2 41.9663 25.7723 -1.38817 41.9663 25.7723 -1.38817
421 1 43.1916 24.1782 0.299871 43.1916 24.1782 0.299871
422 2 45.4069 24.2149 1.79809 45.4069 24.2149 1.79809
423 2 45.1357 24.1946 -1.37086 45.1357 24.1946 -1.37086
424 1 46.4533 25.843 0.189912 46.4533 25.843 0.189912
425 2 48.7436 25.8587 1.62959 48.7436 25.8587 1.62959
426 2 48.5807 25.7617 -1.60707 48.5807 25.7617 -1.60707
427 1 49.7253 24.1094 -0.117707 49.7253 24.1094 -0.117707
428 2 52.0065 24.1392 1.29943 52.0065 24.1392 1.29943
429 2 51.8737 24.1443 -1.8355 51.8737 24.1443 -1.8355
430 1 53.12 25.7983 -0.339352 53.12 25.7983 -0.339352
431 2 55.2272 25.7158 1.30939 55.2272 25.7158 1.30939
432 2 55.1064 25.893 -1.91795 55.1064 25.893 -1.91795
433 1 -2.9845 27.381 -0.226323 -2.9845 27.381 -0.226323
434 2 -0.818753 27.3067 1.30886 -0.818753 27.3067 1.30886
435 2 -0.845192 27.291 -1.93262 -0.845192 27.291 -1.93262
436 1 0.295705 28.9877 -0.327211 0.295705 28.9877 -0.327211
437 2 2.33028 28.8451 1.53537 2.33028 28.8451 1.53537
438 2 2.65078 29.0375 -1.82637 2.65078 29.0375 -1.82637
439 1 3.5832 27.3621 -0.283249 3.5832 27.3621 -0.283249
440 2 5.86924 27.3535 1.42733 5.86924 27.3535 1.42733
441 2 5.81557 27.6249 -1.80931 5.81557 27.6249 -1.80931
442 1 7.00159 28.9557 -0.0202274 7.00159 28.9557 -0.0202274
443 2 9.12511 28.8243 1.53509 9.12511 28.8243 1.53509
444 2 9.32281 29.2235 -1.67004 9.32281 29.2235 -1.67004
445 1 10.316 27.3472 -0.259141 10.316 27.3472 -0.259141
446 2 12.4544 27.1625 1.35517 12.4544 27.1625 1.35517
447 2 12.4337 27.4223 -1.84294 12.4337 27.4223 -1.84294
448 1 13.5308 28.9856 -0.0786757 13.5308 28.9856 -0.0786757
449 2 15.8384 29.0032 1.57481 15.8384 29.0032 1.57481
450 2 15.6692 29.1065 -1.66765 15.6692 29.1065 -1.66765
451 1 16.8186 27.3587 -0.172738 16.8186 27.3587 -0.172738
452 2 19.0132 27.1938 1.52843 19.0132 27.1938 1.52843
453 2 19.0959 27.4593 -1.65286 19.0959 27.4593 -1.65286
454 1 20.1772 28.9935 0.0143361 20.1772 28.9935 0.0143361
455 2 22.3969 29.1186 1.71062 22.3969 29.1186 1.71062
456 2 22.3682 29.1478 -1.5186 22.3682 29.1478 -1.5186
457 1 23.4314 27.3761 0.158953 23.4314 27.3761 0.158953
458 2 25.7702 27.2729 1.77827 25.7702 27.2729 1.77827
459 2 25.6479 27.6497 -1.44469 25.6479 27.6497 -1.44469
460 1 26.7689 29.0778 0.312282 26.7689 29.0778 0.312282
461 2 28.8464 28.9183 1.79786 28.8464 28.9183 1.79786
462 2 28.8474 29.315 -1.41419 28.8474 29.315 -1.41419
463 1 30.0281 27.4463 0.00709144 30.0281 27.4463 0.00709144
464 2 32.2658 27.5009 1.65576 32.2658 27.5009 1.65576
465 2 32.2417 27.4209 -1.58171 32.2417 27.4209 -1.58171
466 1 33.31 29.0769 0.0211665 33.31 29.0769 0.0211665
467 2 35.5073 28.984 1.60674 35.5073 28.984 1.60674
468 2 35.4912 29.1274 -1.59722 35.4912 29.1274 -1.59722
469 1 36.6896 27.4437 0.0275922 36.6896 27.4437 0.0275922
470 2 38.7531 27.5046 1.81843 38.7531 27.5046 1.81843
471 2 38.9402 27.4127 -1.43484 38.9402 27.4127 -1.43484
472 1 39.8862 29.1165 0.185523 39.8862 29.1165 0.185523
473 2 42.1419 29.2229 1.76751 42.1419 29.2229 1.76751
474 2 42.0419 29.0481 -1.47665 42.0419 29.0481 -1.47665
475 1 43.1587 27.4099 0.151489 43.1587 27.4099 0.151489
476 2 45.4531 27.4611 1.6753 45.4531 27.4611 1.6753
477 2 45.2972 27.3706 -1.49945 45.2972 27.3706 -1.49945
478 1 46.5455 29.0704 -0.155828 46.5455 29.0704 -0.155828
479 2 48.824 29.0063 1.52549 48.824 29.0063 1.52549
480 2 48.6762 29.2418 -1.73453 48.6762 29.2418 -1.73453
481 1 49.747 27.4942 -0.167822 49.747 27.4942 -0.167822
482 2 51.9081 27.2561 1.41183 51.9081 27.2561 1.41183
483 2 52.0926 27.5344 -1.83574 52.0926 27.5344 -1.83574
484 1 53.0334 29.0605 -0.126552 53.0334 29.0605 -0.126552
485 2 55.1908 28.9324 1.51362 55.1908 28.9324 1.51362
486 2 55.2402 29.0039 -1.63631 55.2402 29.0039 -1.63631
487 1 -3.07412 30.5724 0.00648001 -3.07412 30.5724 0.00648001
488 2 -0.675027 30.4842 1.5325 -0.675027 30.4842 1.5325
489 2 -1.07888 30.7187 -1.70497 -1.07888 30.7187 -1.70497
490 1 0.265378 32.2177 -0.0801706 0.265378 32.2177 -0.0801706
491 2 2.41834 32.2537 1.43616 2.41834 32.2537 1.43616
492 2 2.48889 32.1135 -1.66657 2.48889 32.1135 -1.66657
493 1 3.75455 30.5094 -0.027605 3.75455 30.5094 -0.027605
494 2 6.03167 30.6999 1.53998 6.03167 30.6999 1.53998
495 2 5.81357 30.6237 -1.58922 5.81357 30.6237 -1.58922
496 1 6.95176 32.3692 -0.149789 6.95176 32.3692 -0.149789
497 2 9.08211 32.4654 1.50386 9.08211 32.4654 1.50386
498 2 9.02499 32.2252 -1.73064 9.02499 32.2252 -1.73064
499 1 10.2777 30.6396 0.1486 10.2777 30.6396 0.1486
500 2 12.4834 30.5994 1.58151 12.4834 30.5994 1.58151
501 2 12.3339 30.6234 -1.5645 12.3339 30.6234 -1.5645
502 1 13.6185 32.2784 -0.0647378 13.6185 32.2784 -0.0647378
503 2 15.7059 32.1316 1.59977 15.7059 32.1316 1.59977
504 2 15.7881 32.3394 -1.59922 15.7881 32.3394 -1.59922
505 1 16.9042 30.5958 -0.0927631 16.9042 30.5958 -0.0927631
506 2 18.9526 30.569 1.57584 18.9526 30.569 1.57584
507 2 18.9279 30.6895 -1.70146 18.9279 30.6895 -1.70146
508 1 20.1713 32.1726 -0.0569169 20.1713 32.1726 -0.0569169
509 2 22.2839 32.2957 1.70842 22.2839 32.2957 1.70842
510 2 22.3954 32.3728 -1.58561 22.3954 32.3728 -1.58561
511 1 23.5007 30.6995 0.08567 23.5007 30.6995 0.08567
512 2 25.5748 30.8945 1.84605 25.5748 30.8945 1.84605
513 2 25.7949 30.5559 -1.43587 25.7949 30.5559 -1.43587
514 1 26.8663 32.2884 0.0854409 26.8663 32.2884 0.0854409
515 2 28.7511 32.4449 1.76554 28.7511 32.4449 1.76554
516 2 28.9814 32.3208 -1.38739 28.9814 32.3208 -1.38739
517 1 30.0249 30.754 0.261715 30.0249 30.754 0.261715
518 2 32.0884 30.6456 1.66146 32.0884 30.6456 1.66146
519 2 32.1492 30.7722 -1.40283 32.1492 30.7722 -1.40283
520 1 33.2874 32.3858 0.140761 33.2874 32.3858 0.140761
521 2 35.5286 32.2214 1.84121 35.5286 32.2214 1.84121
522 2 35.5729 32.5313 -1.38675 35.5729 32.5313 -1.38675
523 1 36.6921 30.7403 0.0909539 36.6921 30.7403 0.0909539
524 2 38.8021 30.7717 1.70285 38.8021 30.7717 1.70285
525 2 38.8007 30.7414 -1.50349 38.8007 30.7414 -1.50349
526 1 39.8852 32.4615 0.0980853 39.8852 32.4615 0.0980853
527 2 42.0246 32.1836 1.67244 42.0246 32.1836 1.67244
528 2 42.1379 32.4361 -1.42426 42.1379 32.4361 -1.42426
529 1 43.1634 30.7822 -0.0271912 43.1634 30.7822 -0.0271912
530 2 45.4294 30.6356 1.61662 45.4294 30.6356 1.61662
531 2 45.3479 30.8319 -1.61123 45.3479 30.8319 -1.61123
532 1 46.5991 32.3316 0.14188 46.5991 32.3316 0.14188
533 2 48.5435 32.1421 1.72728 48.5435 32.1421 1.72728
534 2 48.6728 32.4488 -1.49929 48.6728 32.4488 -1.49929
535 1 49.772 30.7338 0.0363847 49.772 30.7338 0.0363847