ITEM: TIMESTEP
71000
ITEM: NUMBER OF ATOMS
810
ITEM: BOX BOUNDS pp pp pp
6.2090953887821143e-01 5.2396695461122256e+01
8.0582000660415243e-01 5.0210394993394715e+01
-1.0000000000000000e+01 1.0000000000000000e+01
ITEM: ATOMS id type x y z xu yu zu
1 1 0.798889 1.04442 -0.0789472 0.798889 1.04442 -0.0789472
2 2 2.76609 1.10357 1.56007 2.76609 1.10357 1.56007
3 2 2.61709 0.773384 -1.74584 2.61709 0.773384 -1.74584
4 1 3.67252 2.52285 -0.296067 3.67252 2.52285 -0.296067
5 2 5.5731 2.6649 1.30465 5.5731 2.6649 1.30465
6 2 5.57341 2.56887 -1.92853 5.57341 2.56887 -1.92853
7 1 6.593 0.954195 -0.349405 6.593 0.954195 -0.349405
8 2 8.47384 1.19163 1.36072 8.47384 1.19163 1.36072
9 2 8.52877 0.888326 -1.9753 8.52877 0.888326 -1.9753
10 1 9.44668 2.64074 -0.437741 9.44668 2.64074 -0.437741
11 2 11.3516 2.63165 1.18903 11.3516 2.63165 1.18903
12 2 11.3361 2.73205 -2.11119 11.3361 2.73205 -2.11119
13 1 12.3745 1.14605 -0.481246 12.3745 1.14605 -0.481246
14 2 14.2158 1.29357 1.19325 14.2158 1.29357 1.19325
15 2 14.3904 0.973847 -2.0742 14.3904 0.973847 -2.0742
16 1 15.2584 2.77703 -0.479284 15.2584 2.77703 -0.479284
17 2 17.1102 2.71208 1.11206 17.1102 2.71208 1.11206
18 2 17.2092 2.52925 -2.07234 17.2092 2.52925 -2.07234
19 1 18.1338 0.995502 -0.404095 18.1338 0.995502 -0.404095
20 2 20.0911 1.12808 1.12169 20.0911 1.12808 1.12169
21 2 19.9893 1.08352 -2.02498 19.9893 1.08352 -2.02498
22 1 20.9831 2.73078 -0.444647 20.9831 2.73078 -0.444647
23 2 22.8372 2.76227 1.22608 22.8372 2.76227 1.22608
24 2 22.7931 2.53649 -2.0857 22.7931 2.53649 -2.0857
25 1 23.7749 1.04529 -0.313443 23.7749 1.04529 -0.313443
26 2 25.6436 0.981944 1.28694 25.6436 0.981944 1.28694
27 2 25.6946 1.0559 -1.90707 25.6946 1.0559 -1.90707
28 1 26.6547 2.67694 -0.347347 26.6547 2.67694 -0.347347
29 2 28.7612 2.71475 1.099 28.7612 2.71475 1.099
30 2 28.474 2.6165 -2.13094 28.474 2.6165 -2.13094
31 1 29.528 1.02463 -0.499367 29.528 1.02463 -0.499367
32 2 31.602 1.00977 0.99694 31.602 1.00977 0.99694
33 2 31.3309 1.14187 -2.29774 31.3309 1.14187 -2.29774
34 1 32.4175 2.69491 -0.759119 32.4175 2.69491 -0.759119
35 2 34.4676 2.77661 0.795052 34.4676 2.77661 0.795052
36 2 34.1814 2.84211 -2.50772 34.1814 2.84211 -2.50772
37 1 35.3002 1.06729 -0.912988 35.3002 1.06729 -0.912988
38 2 37.1952 0.918868 0.705328 37.1952 0.918868 0.705328
39 2 37.2461 1.19925 -2.58729 37.2461 1.19925 -2.58729
40 1 38.1564 2.70166 -0.872671 38.1564 2.70166 -0.872671
41 2 40.0479 2.71486 0.845368 40.0479 2.71486 0.845368
42 2 40.0971 2.689 -2.4099 40.0971 2.689 -2.4099
43 1 41.0664 1.05947 -0.661622 41.0664 1.05947 -0.661622
44 2 42.7806 1.19661 1.17839 42.7806 1.19661 1.17839
45 2 43.1067 0.974525 -2.14649 43.1067 0.974525 -2.14649
46 1 43.9114 2.66961 -0.507439 43.9114 2.66961 -0.507439
47 2 45.9726 2.70193 1.0594 45.9726 2.70193 1.0594
48 2 45.8192 2.64152 -2.20339 45.8192 2.64152 -2.20339
49 1 46.9283 1.08353 -0.559092 46.9283 1.08353 -0.559092
50 2 48.8527 1.09052 1.15996 48.8527 1.09052 1.15996
51 2 48.8399 0.97288 -2.08193 48.8399 0.97288 -2.08193
52 1 49.7246 2.64265 -0.488788 49.7246 2.64265 -0.488788
53 2 51.4821 2.8787 1.22878 51.4821 2.8787 1.22878
54 2 51.7528 2.52883 -1.97746 51.7528 2.52883 -1.97746
55 1 0.899661 4.33603 -0.413487 0.899661 4.33603 -0.413487
56 2 2.84412 4.40464 1.07247 2.84412 4.40464 1.07247
57 2 2.76421 4.11572 -2.1002 2.76421 4.11572 -2.1002
58 1 3.77342 5.97485 -0.666007 3.77342 5.97485 -0.666007
59 2 5.54894 6.10332 1.04202 5.54894 6.10332 1.04202
60 2 5.7026 5.72513 -2.25071 5.7026 5.72513 -2.25071
61 1 6.64746 4.28371 -0.400916 6.64746 4.28371 -0.400916
62 2 8.55282 4.38381 1.21197 8.55282 4.38381 1.21197
63 2 8.50372 4.3429 -2.0385 8.50372 4.3429 -2.0385
64 1 9.51077 5.91827 -0.565898 9.51077 5.91827 -0.565898
65 2 11.2183 5.98178 1.18784 11.2183 5.98178 1.18784
66 2 11.4779 5.88956 -2.03188 11.4779 5.88956 -2.03188
67 1 12.3418 4.32832 -0.373672 12.3418 4.32832 -0.373672
68 2 14.4129 4.53371 1.10506 14.4129 4.53371 1.10506
69 2 14.1626 4.22131 -2.17721 14.1626 4.22131 -2.17721
70 1 15.2423 5.99678 -0.818081 15.2423 5.99678 -0.818081
71 2 17.0083 6.08177 0.980023 17.0083 6.08177 0.980023
72 2 17.2873 5.98879 -2.23353 17.2873 5.98879 -2.23353
73 1 18.1228 4.30268 -0.527004 18.1228 4.30268 -0.527004
74 2 19.902 4.35603 1.13682 19.902 4.35603 1.13682
75 2 20.0746 4.27854 -2.14433 20.0746 4.27854 -2.14433
76 1 20.9398 5.94111 -0.562082 20.9398 5.94111 -0.562082
77 2 22.8573 6.01165 1.15146 22.8573 6.01165 1.15146
78 2 22.835 5.96891 -2.17987 22.835 5.96891 -2.17987
79 1 23.814 4.31882 -0.469714 23.814 4.31882 -0.469714
80 2 25.7288 4.55168 1.16244 25.7288 4.55168 1.16244
81 2 25.5959 4.07875 -2.17348 25.5959 4.07875 -2.17348
82 1 26.7609 5.88004 -0.676446 26.7609 5.88004 -0.676446
83 2 28.6567 5.90911 0.826406 28.6567 5.90911 0.826406
84 2 28.6728 5.81414 -2.33541 28.6728 5.81414 -2.33541
85 1 29.5623 4.32173 -0.665053 29.5623 4.32173 -0.665053
86 2 31.5942 4.39587 0.858929 31.5942 4.39587 0.858929
87 2 31.3876 4.37213 -2.36084 31.3876 4.37213 -2.36084
88 1 32.2919 6.09784 -0.77742 32.2919 6.09784 -0.77742
89 2 34.3248 6.09593 0.745278 34.3248 6.09593 0.745278
90 2 34.1965 5.92586 -2.43689 34.1965 5.92586 -2.43689
91 1 35.2676 4.36377 -0.82917 35.2676 4.36377 -0.82917
92 2 37.1286 4.36379 0.754168 37.1286 4.36379 0.754168
93 2 37.1331 4.34059 -2.50142 37.1331 4.34059 -2.50142
94 1 38.1508 5.91968 -0.957098 38.1508 5.91968 -0.957098
95 2 39.9357 5.91854 0.814216 39.9357 5.91854 0.814216
96 2 40.1086 5.94052 -2.47304 40.1086 5.94052 -2.47304
97 1 40.9961 4.31493 -0.769691 40.9961 4.31493 -0.769691
98 2 43.0691 4.49531 0.948424 43.0691 4.49531 0.948424
99 2 42.8902 4.17064 -2.40326 42.8902 4.17064 -2.40326
100 1 44.0065 5.87352 -0.992551 44.0065 5.87352 -0.992551
101 2 45.7856 5.97339 0.788951 45.7856 5.97339 0.788951
102 2 45.9351 5.76982 -2.50118 45.9351 5.76982 -2.50118
103 1 46.8268 4.35488 -0.716252 46.8268 4.35488 -0.716252
104 2 48.7839 4.52712 0.908953 48.7839 4.52712 0.908953
105 2 48.7865 4.02735 -2.30632 48.7865 4.02735 -2.30632
106 1 49.7529 5.9687 -0.934551 49.7529 5.9687 -0.934551
107 2 51.5524 6.24053 0.854063 51.5524 6.24053 0.854063
108 2 51.8533 5.74904 -2.38633 51.8533 5.74904 -2.38633
109 1 0.832561 7.65527 -0.937436 0.832561 7.65527 -0.937436
110 2 2.70733 7.71303 0.758331 2.70733 7.71303 0.758331
111 2 2.92215 7.56543 -2.4194 2.92215 7.56543 -2.4194
112 1 3.75016 9.25277 -0.797006 3.75016 9.25277 -0.797006
113 2 5.6684 9.39163 0.73572 5.6684 9.39163 0.73572
114 2 5.56537 9.11927 -2.48852 5.56537 9.11927 -2.48852
115 1 6.52071 7.59342 -0.717303 6.52071 7.59342 -0.717303
116 2 8.41709 7.5283 1.02331 8.41709 7.5283 1.02331
117 2 8.53677 7.52883 -2.20957 8.53677 7.52883 -2.20957
118 1 9.38779 9.24243 -0.618065 9.38779 9.24243 -0.618065
119 2 11.2254 9.2445 1.12115 11.2254 9.2445 1.12115
120 2 11.4505 9.3258 -2.17843 11.4505 9.3258 -2.17843
121 1 12.2972 7.63107 -0.462815 12.2972 7.63107 -0.462815
122 2 14.2384 7.35886 1.16706 14.2384 7.35886 1.16706
123 2 14.0971 7.90955 -2.09936 14.0971 7.90955 -2.09936
124 1 15.1589 9.26962 -0.329287 15.1589 9.26962 -0.329287
125 2 17.0855 9.12424 1.33012 17.0855 9.12424 1.33012
126 2 17.0349 9.46666 -1.9383 17.0349 9.46666 -1.9383
127 1 18.0679 7.63022 -0.588006 18.0679 7.63022 -0.588006
128 2 20.0044 7.61569 0.982165 20.0044 7.61569 0.982165
129 2 19.8881 7.6391 -2.28321 19.8881 7.6391 -2.28321
130 1 20.9346 9.27928 -0.728467 20.9346 9.27928 -0.728467
131 2 22.7834 9.10622 1.02404 22.7834 9.10622 1.02404
132 2 23.0067 9.30474 -2.25929 23.0067 9.30474 -2.25929
133 1 23.8304 7.56306 -0.659544 23.8304 7.56306 -0.659544
134 2 25.7582 7.55771 1.03313 25.7582 7.55771 1.03313
135 2 25.7574 7.67761 -2.2484 25.7574 7.67761 -2.2484
136 1 26.6943 9.24248 -0.510259 26.6943 9.24248 -0.510259
137 2 28.6751 9.10482 0.871782 28.6751 9.10482 0.871782
138 2 28.4806 9.28935 -2.28168 28.4806 9.28935 -2.28168
139 1 29.5467 7.59812 -0.833642 29.5467 7.59812 -0.833642
140 2 31.4862 7.7295 0.920481 31.4862 7.7295 0.920481
141 2 31.4357 7.58097 -2.44622 31.4357 7.58097 -2.44622
142 1 32.4053 9.32757 -0.913528 32.4053 9.32757 -0.913528
143 2 34.397 9.25847 0.679488 34.397 9.25847 0.679488
144 2 34.2579 9.2985 -2.60103 34.2579 9.2985 -2.60103
145 1 35.2237 7.66082 -0.949785 35.2237 7.66082 -0.949785
146 2 37.2045 7.62604 0.702841 37.2045 7.62604 0.702841
147 2 37.1728 7.70284 -2.56117 37.1728 7.70284 -2.56117
148 1 38.2326 9.23857 -0.91561 38.2326 9.23857 -0.91561
149 2 40.1631 9.39904 0.601434 40.1631 9.39904 0.601434
150 2 40.1463 9.07451 -2.57896 40.1463 9.07451 -2.57896
151 1 41.0788 7.59754 -0.796637 41.0788 7.59754 -0.796637
152 2 43.1104 7.53492 0.705511 43.1104 7.53492 0.705511
153 2 42.8179 7.50146 -2.52193 42.8179 7.50146 -2.52193
154 1 43.9853 9.21021 -1.04117 43.9853 9.21021 -1.04117
155 2 45.849 9.2303 0.62043 45.849 9.2303 0.62043
156 2 46.064 9.29041 -2.60498 46.064 9.29041 -2.60498
157 1 46.8646 7.5976 -0.959585 46.8646 7.5976 -0.959585
158 2 48.8116 7.71109 0.577292 48.8116 7.71109 0.577292
159 2 48.6849 7.42501 -2.68822 48.6849 7.42501 -2.68822
160 1 49.7651 9.22973 -1.23554 49.7651 9.22973 -1.23554
161 2 51.576 9.3004 0.646637 51.576 9.3004 0.646637
162 2 51.7907 9.25721 -2.69286 51.7907 9.25721 -2.69286
163 1 0.922391 10.8686 -0.929423 0.922391 10.8686 -0.929423
164 2 2.70371 10.9274 0.709936 2.70371 10.9274 0.709936
165 2 2.81549 10.7347 -2.50098 2.81549 10.7347 -2.50098
166 1 3.66832 12.4399 -0.999602 3.66832 12.4399 -0.999602
167 2 5.53041 12.3601 0.716422 5.53041 12.3601 0.716422
168 2 5.57798 12.691 -2.48131 5.57798 12.691 -2.48131
169 1 6.61603 10.8235 -1.09364 6.61603 10.8235 -1.09364
170 2 8.23678 10.9575 0.793417 8.23678 10.9575 0.793417
171 2 8.8161 10.8066 -2.50072 8.8161 10.8066 -2.50072
172 1 9.41934 12.5522 -0.745179 9.41934 12.5522 -0.745179
173 2 11.1155 12.3767 1.16594 11.1155 12.3767 1.16594
174 2 11.6513 12.7061 -2.01676 11.6513 12.7061 -2.01676
175 1 12.295 10.8676 -0.422887 12.295 10.8676 -0.422887
176 2 14.1519 10.8463 1.2959 14.1519 10.8463 1.2959
177 2 14.2975 10.9815 -1.84972 14.2975 10.9815 -1.84972
178 1 15.1824 12.5889 -0.118523 15.1824 12.5889 -0.118523
179 2 17.1042 12.6377 1.41053 17.1042 12.6377 1.41053
180 2 17.1596 12.6135 -1.85121 17.1596 12.6135 -1.85121
181 1 18.013 10.9528 -0.163018 18.013 10.9528 -0.163018
182 2 20.223 10.7019 1.2333 20.223 10.7019 1.2333
183 2 19.7148 11.2239 -2.07999 19.7148 11.2239 -2.07999
184 1 20.8981 12.5497 -0.291958 20.8981 12.5497 -0.291958
185 2 22.8325 12.4263 1.2614 22.8325 12.4263 1.2614
186 2 22.7734 12.7036 -1.86637 22.7734 12.7036 -1.86637
187 1 23.8265 10.8724 -0.357867 23.8265 10.8724 -0.357867
188 2 25.8519 10.8577 1.1565 25.8519 10.8577 1.1565
189 2 25.7722 10.9629 -2.13937 25.7722 10.9629 -2.13937
190 1 26.6776 12.58 -0.423689 26.6776 12.58 -0.423689
191 2 28.5371 12.3568 1.13261 28.5371 12.3568 1.13261
192 2 28.5346 12.7749 -2.22881 28.5346 12.7749 -2.22881
193 1 29.5575 10.9739 -0.698223 29.5575 10.9739 -0.698223
194 2 31.4437 10.7642 0.829686 31.4437 10.7642 0.829686
195 2 31.3857 11.0411 -2.4066 31.3857 11.0411 -2.4066
196 1 32.3818 12.5284 -0.670204 32.3818 12.5284 -0.670204
197 2 34.341 12.3974 0.966693 34.341 12.3974 0.966693
198 2 34.2809 12.8448 -2.21401 34.2809 12.8448 -2.21401
199 1 35.3005 10.8455 -0.99761 35.3005 10.8455 -0.99761
200 2 37.2031 10.6442 0.816699 37.2031 10.6442 0.816699
201 2 37.2899 10.9353 -2.5227 37.2899 10.9353 -2.5227
202 1 38.1178 12.5123 -0.583853 38.1178 12.5123 -0.583853
203 2 40.2755 12.3401 0.769237 40.2755 12.3401 0.769237
204 2 39.8598 12.5564 -2.53023 39.8598 12.5564 -2.53023
205 1 41.133 10.876 -1.14999 41.133 10.876 -1.14999
206 2 42.9578 10.8065 0.656062 42.9578 10.8065 0.656062
207 2 43.1728 10.8833 -2.66991 43.1728 10.8833 -2.66991
208 1 44.0207 12.5099 -1.03719 44.0207 12.5099 -1.03719
209 2 45.8094 12.5071 0.737008 45.8094 12.5071 0.737008
210 2 46.0345 12.5182 -2.62248 46.0345 12.5182 -2.62248
211 1 46.8447 10.8633 -0.924449 46.8447 10.8633 -0.924449
212 2 48.7682 10.7962 0.597103 48.7682 10.7962 0.597103
213 2 48.6856 10.9632 -2.66853 48.6856 10.9632 -2.66853
214 1 49.7647 12.483 -1.07223 49.7647 12.483 -1.07223
215 2 51.5707 12.6241 0.674599 51.5707 12.6241 0.674599
216 2 51.7946 12.4694 -2.62519 51.7946 12.4694 -2.62519
217 1 0.867945 14.2001 -0.964227 0.867945 14.2001 -0.964227
218 2 2.7308 13.9852 0.672219 2.7308 13.9852 0.672219
219 2 2.83004 14.2839 -2.53593 2.83004 14.2839 -2.53593
220 1 3.71224 15.8506 -0.742331 3.71224 15.8506 -0.742331
221 2 5.50284 15.6016 1.01006 5.50284 15.6016 1.01006
222 2 5.73683 16.0423 -2.26283 5.73683 16.0423 -2.26283
223 1 6.57744 14.1099 -0.663856 6.57744 14.1099 -0.663856
224 2 8.46229 14.098 0.962492 8.46229 14.098 0.962492
225 2 8.54994 14.3268 -2.25285 8.54994 14.3268 -2.25285
226 1 9.42332 15.8 -0.439453 9.42332 15.8 -0.439453
227 2 11.1345 15.7848 1.45046 11.1345 15.7848 1.45046
228 2 11.6069 15.916 -1.80091 11.6069 15.916 -1.80091
229 1 12.2868 14.2842 -0.135074 12.2868 14.2842 -0.135074
230 2 14.1501 14.1 1.60156 14.1501 14.1 1.60156
231 2 14.4264 14.3446 -1.63914 14.4264 14.3446 -1.63914
232 1 15.2215 15.7891 0.284657 15.2215 15.7891 0.284657
233 2 17.3021 15.5688 1.63924 17.3021 15.5688 1.63924
234 2 16.9557 16.0085 -1.53577 16.9557 16.0085 -1.53577
235 1 18.1123 14.2827 -0.310604 18.1123 14.2827 -0.310604
236 2 19.8982 14.0791 1.4065 19.8982 14.0791 1.4065
237 2 20.1218 14.3382 -1.87198 20.1218 14.3382 -1.87198
238 1 20.9779 15.8678 -0.0562025 20.9779 15.8678 -0.0562025
239 2 22.9414 15.7778 1.61313 22.9414 15.7778 1.61313
240 2 22.8405 16.1238 -1.65416 22.8405 16.1238 -1.65416
241 1 23.7615 14.2007 -0.16201 23.7615 14.2007 -0.16201
242 2 25.6803 13.9257 1.48991 25.6803 13.9257 1.48991
243 2 25.8189 14.5304 -1.79432 25.8189 14.5304 -1.79432
244 1 26.7255 15.7628 0.18682 26.7255 15.7628 0.18682
245 2 28.6851 15.6203 1.7111 28.6851 15.6203 1.7111
246 2 28.519 16.0135 -1.55357 28.519 16.0135 -1.55357
247 1 29.5763 14.1867 -0.289989 29.5763 14.1867 -0.289989
248 2 31.5764 13.9627 1.13113 31.5764 13.9627 1.13113
249 2 31.3746 14.3661 -2.07236 31.3746 14.3661 -2.07236
250 1 32.3733 15.813 -0.239781 32.3733 15.813 -0.239781
251 2 34.3407 15.7728 1.31928 34.3407 15.7728 1.31928
252 2 34.1981 15.9956 -1.97776 34.1981 15.9956 -1.97776
253 1 35.2687 14.2514 -0.495465 35.2687 14.2514 -0.495465
254 2 37.2533 14.2247 1.04061 37.2533 14.2247 1.04061
255 2 37.0761 14.1493 -2.22229 37.0761 14.1493 -2.22229
256 1 38.1805 15.7946 -0.624567 38.1805 15.7946 -0.624567
257 2 40.1179 15.6506 0.965952 40.1179 15.6506 0.965952
258 2 40.002 15.801 -2.31084 40.002 15.801 -2.31084
259 1 41.0825 14.1027 -0.843242 41.0825 14.1027 -0.843242
260 2 43.0501 14.0381 0.71421 43.0501 14.0381 0.71421
261 2 43.0788 14.2114 -2.52674 43.0788 14.2114 -2.52674
262 1 43.9114 15.7879 -0.755884 43.9114 15.7879 -0.755884
263 2 45.7671 15.6458 0.857731 45.7671 15.6458 0.857731
264 2 45.7987 15.9897 -2.33089 45.7987 15.9897 -2.33089
265 1 46.8109 14.2414 -0.839839 46.8109 14.2414 -0.839839
266 2 48.7484 14.117 0.696284 48.7484 14.117 0.696284
267 2 48.6634 14.2124 -2.51545 48.6634 14.2124 -2.51545
268 1 49.7129 15.7851 -0.862181 49.7129 15.7851 -0.862181
269 2 51.7725 15.7129 0.73473 51.7725 15.7129 0.73473
270 2 51.6658 15.8812 -2.51783 51.6658 15.8812 -2.51783
271 1 0.797541 17.4675 -0.809711 0.797541 17.4675 -0.809711
272 2 2.65477 17.6632 0.788643 2.65477 17.6632 0.788643
273 2 2.72989 17.5234 -2.36711 2.72989 17.5234 -2.36711
274 1 3.69408 19.1804 -0.761344 3.69408 19.1804 -0.761344
275 2 5.258 19.0002 1.16589 5.258 19.0002 1.16589
276 2 5.79938 19.2065 -2.12068 5.79938 19.2065 -2.12068
277 1 6.53007 17.5055 -0.401647 6.53007 17.5055 -0.401647
278 2 8.49095 17.3325 1.31104 8.49095 17.3325 1.31104
279 2 8.4326 17.6441 -1.9602 8.4326 17.6441 -1.9602
280 1 9.46723 19.0733 -0.177345 9.46723 19.0733 -0.177345
281 2 11.0781 19.0657 1.70726 11.0781 19.0657 1.70726
282 2 11.6203 19.2003 -1.46906 11.6203 19.2003 -1.46906
283 1 12.4029 17.4293 0.135894 12.4029 17.4293 0.135894
284 2 14.152 17.3509 1.96035 14.152 17.3509 1.96035
285 2 14.3617 17.5419 -1.24735 14.3617 17.5419 -1.24735
286 1 15.1925 19.0744 0.563943 15.1925 19.0744 0.563943
287 2 17.1689 19.0355 2.08992 17.1689 19.0355 2.08992
288 2 16.9362 19.376 -1.17493 16.9362 19.376 -1.17493
289 1 18.0563 17.4799 0.241437 18.0563 17.4799 0.241437
290 2 20.0443 17.348 1.77507 20.0443 17.348 1.77507
291 2 19.9266 17.6709 -1.44572 19.9266 17.6709 -1.44572
292 1 20.9169 19.0887 0.253094 20.9169 19.0887 0.253094
293 2 22.8323 19.0041 1.8139 22.8323 19.0041 1.8139
294 2 22.8476 19.2892 -1.36693 22.8476 19.2892 -1.36693
295 1 23.8391 17.524 0.0789726 23.8391 17.524 0.0789726
296 2 25.7255 17.4728 1.74973 25.7255 17.4728 1.74973
297 2 25.8646 17.5201 -1.50276 25.8646 17.5201 -1.50276
298 1 26.691 19.1433 0.0936857 26.691 19.1433 0.0936857
299 2 28.5392 19.0044 1.85949 28.5392 19.0044 1.85949
300 2 28.8098 19.1345 -1.35363 28.8098 19.1345 -1.35363
301 1 29.5579 17.4407 0.224964 29.5579 17.4407 0.224964
302 2 31.6588 17.2829 1.51968 31.6588 17.2829 1.51968
303 2 31.3202 17.5253 -1.58648 31.3202 17.5253 -1.58648
304 1 32.4735 19.1307 -0.0455403 32.4735 19.1307 -0.0455403
305 2 34.5237 19.0312 1.46458 34.5237 19.0312 1.46458
306 2 34.197 19.1187 -1.88707 34.197 19.1187 -1.88707
307 1 35.3625 17.5588 -0.312707 35.3625 17.5588 -0.312707
308 2 37.4178 17.288 1.13457 37.4178 17.288 1.13457
309 2 37.1534 17.7819 -2.02446 37.1534 17.7819 -2.02446
310 1 38.2957 19.0836 -0.368863 38.2957 19.0836 -0.368863
311 2 40.2702 18.7874 1.19931 40.2702 18.7874 1.19931
312 2 40.247 19.3064 -1.93584 40.247 19.3064 -1.93584
313 1 41.0227 17.4061 -0.567351 41.0227 17.4061 -0.567351
314 2 43.0231 17.3 1.09911 43.0231 17.3 1.09911
315 2 42.9617 17.5514 -2.21268 42.9617 17.5514 -2.21268
316 1 43.9604 19.1295 -0.477723 43.9604 19.1295 -0.477723
317 2 45.799 19.0913 1.26045 45.799 19.0913 1.26045
318 2 45.9604 19.3586 -1.96832 45.9604 19.3586 -1.96832
319 1 46.7449 17.4971 -0.526626 46.7449 17.4971 -0.526626
320 2 48.7085 17.0942 1.02797 48.7085 17.0942 1.02797
321 2 48.6492 17.6158 -2.18761 48.6492 17.6158 -2.18761
322 1 49.6077 19.0557 -0.387301 49.6077 19.0557 -0.387301
323 2 51.6265 18.9049 1.02106 51.6265 18.9049 1.02106
324 2 51.4135 19.3404 -2.09055 51.4135 19.3404 -2.09055
325 1 0.780208 20.8115 -0.422044 0.780208 20.8115 -0.422044
326 2 2.78388 20.6579 1.02913 2.78388 20.6579 1.02913
327 2 2.62094 20.9673 -2.17435 2.62094 20.9673 -2.17435
328 1 3.62902 22.5182 -0.446434 3.62902 22.5182 -0.446434
329 2 5.38317 22.3516 1.32238 5.38317 22.3516 1.32238
330 2 5.75258 22.6077 -1.87345 5.75258 22.6077 -1.87345
331 1 6.54557 20.7506 -0.277887 6.54557 20.7506 -0.277887
332 2 8.40313 20.6078 1.44476 8.40313 20.6078 1.44476
333 2 8.67429 20.7969 -1.71461 8.67429 20.7969 -1.71461
334 1 9.47725 22.4486 -0.0406446 9.47725 22.4486 -0.0406446
335 2 11.2186 22.2775 1.74309 11.2186 22.2775 1.74309
336 2 11.4954 22.4843 -1.46215 11.4954 22.4843 -1.46215
337 1 12.3264 20.7047 0.240295 12.3264 20.7047 0.240295
338 2 14.1008 20.744 2.09837 14.1008 20.744 2.09837
339 2 14.4459 20.711 -1.29618 14.4459 20.711 -1.29618
340 1 15.2297 22.3816 0.481857 15.2297 22.3816 0.481857
341 2 16.9661 22.4849 2.23664 16.9661 22.4849 2.23664
342 2 17.2204 22.5348 -1.05881 17.2204 22.5348 -1.05881
343 1 18.0829 20.845 0.58784 18.0829 20.845 0.58784
344 2 20.2355 20.5987 2.03704 20.2355 20.5987 2.03704
345 2 19.8085 20.8897 -1.15667 19.8085 20.8897 -1.15667
346 1 20.99 22.3747 0.457613 20.99 22.3747 0.457613
347 2 22.8594 22.3677 2.07388 22.8594 22.3677 2.07388
348 2 22.8908 22.5147 -1.14722 22.8908 22.5147 -1.14722
349 1 23.8713 20.7999 0.411071 23.8713 20.7999 0.411071
350 2 25.9077 20.6952 1.96686 25.9077 20.6952 1.96686
351 2 25.6947 20.9903 -1.30396 25.6947 20.9903 -1.30396
352 1 26.8093 22.4192 0.427822 26.8093 22.4192 0.427822
353 2 28.7368 22.5363 1.92695 28.7368 22.5363 1.92695
354 2 28.6455 22.2394 -1.33664 28.6455 22.2394 -1.33664
355 1 29.6276 20.7683 0.34541 29.6276 20.7683 0.34541
356 2 31.6455 20.6736 1.74441 31.6455 20.6736 1.74441
357 2 31.429 20.8188 -1.51185 31.429 20.8188 -1.51185
358 1 32.539 22.3922 0.169154 32.539 22.3922 0.169154
359 2 34.5943 22.1729 1.59222 34.5943 22.1729 1.59222
360 2 34.2573 22.5619 -1.55207 34.2573 22.5619 -1.55207
361 1 35.2836 20.7289 -0.278552 35.2836 20.7289 -0.278552
362 2 37.1497 20.4445 1.41918 37.1497 20.4445 1.41918
363 2 37.1706 20.9631 -1.76221 37.1706 20.9631 -1.76221
364 1 38.2718 22.2766 0.0760967 38.2718 22.2766 0.0760967
365 2 39.9515 22.057 1.79171 39.9515 22.057 1.79171
366 2 40.2125 22.598 -1.4383 40.2125 22.598 -1.4383
367 1 41.1448 20.6933 -0.0197824 41.1448 20.6933 -0.0197824
368 2 43.047 20.4166 1.4705 43.047 20.4166 1.4705
369 2 42.86 21.0015 -1.73006 42.86 21.0015 -1.73006
370 1 43.8987 22.3569 -0.00485917 43.8987 22.3569 -0.00485917
371 2 45.988 22.5051 1.43861 45.988 22.5051 1.43861
372 2 45.7539 22.4413 -1.7929 45.7539 22.4413 -1.7929
373 1 46.9236 20.829 -0.172975 46.9236 20.829 -0.172975
374 2 48.9533 20.7182 1.33835 48.9533 20.7182 1.33835
375 2 48.7808 20.9354 -1.86435 48.7808 20.9354 -1.86435
376 1 49.7335 22.5045 -0.200524 49.7335 22.5045 -0.200524
377 2 51.7637 22.3254 1.32792 51.7637 22.3254 1.32792
378 2 51.625 22.5632 -1.9133 51.625 22.5632 -1.9133
379 1 0.823089 24.1672 -0.193378 0.823089 24.1672 -0.193378
380 2 2.65024 23.9706 1.39409 2.65024 23.9706 1.39409
381 2 2.71896 24.3548 -1.92463 2.71896 24.3548 -1.92463
382 1 3.70342 25.7185 -0.030831 3.70342 25.7185 -0.030831
383 2 5.67304 25.7283 1.5632 5.67304 25.7283 1.5632
384 2 5.60123 25.7585 -1.59821 5.60123 25.7585 -1.59821
385 1 6.58323 24.1478 -0.000217944 6.58323 24.1478 -0.000217944
386 2 8.6 24.066 1.60252 8.6 24.066 1.60252
387 2 8.4088 24.2112 -1.60133 8.4088 24.2112 -1.60133
388 1 9.49349 25.7995 0.0449482 9.49349 25.7995 0.0449482
389 2 11.2085 25.7088 1.92052 11.2085 25.7088 1.92052
390 2 11.56 25.8731 -1.29687 11.56 25.8731 -1.29687
391 1 12.3801 24.0058 0.343639 12.3801 24.0058 0.343639
392 2 14.204 23.9085 2.11357 14.204 23.9085 2.11357
393 2 14.3218 24.11 -1.15438 14.3218 24.11 -1.15438
394 1 15.2214 25.6915 0.634017 15.2214 25.6915 0.634017
395 2 17.2689 25.8413 2.22217 17.2689 25.8413 2.22217
396 2 17.1153 25.725 -0.992052 17.1153 25.725 -0.992052
397 1 18.1354 24.0955 0.658467 18.1354 24.0955 0.658467
398 2 20.1039 23.8288 2.25476 20.1039 23.8288 2.25476
399 2 20.0735 24.1418 -0.997201 20.0735 24.1418 -0.997201
400 1 21.0385 25.6248 0.699874 21.0385 25.6248 0.699874
401 2 22.984 25.7688 2.15365 22.984 25.7688 2.15365
402 2 22.8387 25.5788 -1.00008 22.8387 25.5788 -1.00008
403 1 23.9117 24.0325 0.59605 23.9117 24.0325 0.59605
404 2 25.844 24.0567 2.14203 25.844 24.0567 2.14203
405 2 25.8386 24.0098 -1.1351 25.8386 24.0098 -1.1351
406 1 26.7159 25.7206 0.472857 26.7159 25.7206 0.472857
407 2 28.8478 25.7142 1.84011 28.8478 25.7142 1.84011
408 2 28.5076 25.6395 -1.35806 28.5076 25.6395 -1.35806
409 1 29.6478 24.0736 0.267326 29.6478 24.0736 0.267326
410 2 31.6224 24.0885 1.78273 31.6224 24.0885 1.78273
411 2 31.4732 24.0735 -1.44733 31.4732 24.0735 -1.44733
412 1 32.4628 25.7542 0.173114 32.4628 25.7542 0.173114
413 2 34.3129 25.4798 1.89773 34.3129 25.4798 1.89773
414 2 34.4499 25.8264 -1.28898 34.4499 25.8264 -1.28898
415 1 35.3925 23.9807 0.0907706 35.3925 23.9807 0.0907706
416 2 37.1858 23.7677 1.81575 37.1858 23.7677 1.81575
417 2 37.3294 24.0722 -1.4156 37.3294 24.0722 -1.4156
418 1 38.1929 25.6049 0.372217 38.1929 25.6049 0.372217
419 2 39.8914 25.5539 2.25183 39.8914 25.5539 2.25183
420 2 40.1688 25.8547 -1.06656 40.1688 25.8547 -1.06656
421 1 41.0022 24.008 0.568997 41.0022 24.008 0.568997
422 2 43.0641 23.8239 1.91431 43.0641 23.8239 1.91431
423 2 42.8515 24.2765 -1.25364 42.8515 24.2765 -1.25364
424 1 43.9446 25.6411 0.429226 43.9446 25.6411 0.429226
425 2 46.1561 25.4636 1.69999 46.1561 25.4636 1.69999
426 2 45.7348 26.0412 -1.46607 45.7348 26.0412 -1.46607
427 1 46.767 24.122 -0.298363 46.767 24.122 -0.298363
428 2 48.6949 24.1456 1.42107 48.6949 24.1456 1.42107
429 2 48.802 24.1316 -1.84011 48.802 24.1316 -1.84011
430 1 49.7078 25.7203 -0.105891 49.7078 25.7203 -0.105891
431 2 51.7149 25.7402 1.4756 51.7149 25.7402 1.4756
432 2 51.6608 25.7638 -1.69778 51.6608 25.7638 -1.69778
433 1 0.856169 27.3792 -0.124436 0.856169 27.3792 -0.124436
434 2 2.67618 27.2492 1.62987 2.67618 27.2492 1.62987
435 2 2.85448 27.4946 -1.60503 2.85448 27.4946 -1.60503
436 1 3.70366 28.9783 0.167432 3.70366 28.9783 0.167432
437 2 5.61684 29.0418 1.75526 5.61684 29.0418 1.75526
438 2 5.57541 29.0631 -1.54256 5.57541 29.0631 -1.54256
439 1 6.568 27.471 0.0390691 6.568 27.471 0.0390691
440 2 8.3609 27.1794 1.8445 8.3609 27.1794 1.8445
441 2 8.59161 27.6352 -1.43253 8.59161 27.6352 -1.43253
442 1 9.5231 29.0314 0.478341 9.5231 29.0314 0.478341
443 2 11.2071 28.9617 2.21213 11.2071 28.9617 2.21213
444 2 11.555 29.0936 -1.01848 11.555 29.0936 -1.01848
445 1 12.4185 27.3206 0.48607 12.4185 27.3206 0.48607
446 2 14.2319 27.4072 2.14482 14.2319 27.4072 2.14482
447 2 14.3295 27.297 -1.09319 14.3295 27.297 -1.09319
448 1 15.1877 28.989 0.51322 15.1877 28.989 0.51322
449 2 17.148 28.968 2.22327 17.148 28.968 2.22327
450 2 17.2207 29.0684 -1.08218 17.2207 29.0684 -1.08218
451 1 18.1725 27.4085 0.592979 18.1725 27.4085 0.592979
452 2 19.9685 27.3372 2.30614 19.9685 27.3372 2.30614
453 2 20.1352 27.3509 -0.968635 20.1352 27.3509 -0.968635
454 1 21.0726 28.9049 0.681397 21.0726 28.9049 0.681397
455 2 23.1343 29.0628 2.11487 23.1343 29.0628 2.11487
456 2 22.7805 28.9157 -1.12484 22.7805 28.9157 -1.12484
457 1 23.8634 27.3541 0.418997 23.8634 27.3541 0.418997
458 2 25.7349 27.3762 2.03008 25.7349 27.3762 2.03008
459 2 25.763 27.266 -1.23089 25.763 27.266 -1.23089
460 1 26.8103 29.0692 0.331282 26.8103 29.0692 0.331282
461 2 28.8597 29.082 1.84004 28.8597 29.082 1.84004
462 2 28.5877 28.8368 -1.47467 28.5877 28.8368 -1.47467
463 1 29.5947 27.3733 0.144954 29.5947 27.3733 0.144954
464 2 31.6689 27.3228 1.76452 31.6689 27.3228 1.76452
465 2 31.4058 27.3147 -1.41984 31.4058 27.3147 -1.41984
466 1 32.5075 29.0298 0.124391 32.5075 29.0298 0.124391
467 2 34.2122 28.9664 2.03253 34.2122 28.9664 2.03253
468 2 34.5364 29.0497 -1.25338 34.5364 29.0497 -1.25338
469 1 35.3499 27.3038 0.555777 35.3499 27.3038 0.555777
470 2 37.2659 27.1534 2.14269 37.2659 27.1534 2.14269
471 2 37.2245 27.4259 -1.06804 37.2245 27.4259 -1.06804
472 1 38.232 28.9295 0.674792 38.232 28.9295 0.674792
473 2 40.158 29.0416 2.28692 40.158 29.0416 2.28692
474 2 40.2841 28.866 -0.940366 40.2841 28.866 -0.940366
475 1 41.1037 27.2922 0.798883 41.1037 27.2922 0.798883
476 2 43.0939 27.2256 2.15967 43.0939 27.2256 2.15967
477 2 42.9473 27.3218 -1.00115 42.9473 27.3218 -1.00115
478 1 44.0076 28.9471 0.575497 44.0076 28.9471 0.575497
479 2 46.0434 28.85 2.06402 46.0434 28.85 2.06402
480 2 45.8324 29.045 -1.14974 45.8324 29.045 -1.14974
481 1 46.8999 27.3312 0.276926 46.8999 27.3312 0.276926
482 2 48.875 27.2787 1.69592 48.875 27.2787 1.69592
483 2 48.5853 27.4209 -1.57961 48.5853 27.4209 -1.57961
484 1 49.6733 29.0198 0.0819346 49.6733 29.0198 0.0819346
485 2 51.6947 28.8103 1.61069 51.6947 28.8103 1.61069
486 2 51.6542 29.049 -1.61489 51.6542 29.049 -1.61489
487 1 0.773204 30.5804 0.063724 0.773204 30.5804 0.063724
488 2 2.49782 30.4583 1.81216 2.49782 30.4583 1.81216
489 2 2.77561 30.6834 -1.41872 2.77561 30.6834 -1.41872
490 1 3.55027 32.2324 0.263308 3.55027 32.2324 0.263308
491 2 5.48064 32.0774 1.90806 5.48064 32.0774 1.90806
492 2 5.56518 32.5961 -1.30476 5.56518 32.5961 -1.30476
493 1 6.58065 30.7359 0.0629945 6.58065 30.7359 0.0629945
494 2 8.3531 30.6276 2.00564 8.3531 30.6276 2.00564
495 2 8.80099 30.7136 -1.20856 8.80099 30.7136 -1.20856
496 1 9.37434 32.3846 0.667639 9.37434 32.3846 0.667639
497 2 11.3011 32.4369 2.34865 11.3011 32.4369 2.34865
498 2 11.4677 32.1076 -0.968479 11.4677 32.1076 -0.968479
499 1 12.3066 30.6382 0.852798 12.3066 30.6382 0.852798
500 2 14.313 30.4844 2.34602 14.313 30.4844 2.34602
501 2 14.1507 30.8001 -0.926442 14.1507 30.8001 -0.926442
502 1 15.2316 32.2161 0.789773 15.2316 32.2161 0.789773
503 2 17.2674 32.3098 2.26074 17.2674 32.3098 2.26074
504 2 17.0075 32.2329 -0.947457 17.0075 32.2329 -0.947457
505 1 18.1294 30.604 0.64953 18.1294 30.604 0.64953
506 2 20.2115 30.7017 2.25321 20.2115 30.7017 2.25321
507 2 20.0091 30.5711 -1.0245 20.0091 30.5711 -1.0245
508 1 20.9382 32.283 0.448646 20.9382 32.283 0.448646
509 2 23.0996 32.2839 1.91445 23.0996 32.2839 1.91445
510 2 22.7405 32.2452 -1.40792 22.7405 32.2452 -1.40792
511 1 23.9142 30.6703 0.18739 23.9142 30.6703 0.18739
512 2 25.8408 30.7355 1.94681 25.8408 30.7355 1.94681
513 2 25.8202 30.6948 -1.39592 25.8202 30.6948 -1.39592
514 1 26.7439 32.2622 0.247396 26.7439 32.2622 0.247396
515 2 28.7491 32.2017 1.78102 28.7491 32.2017 1.78102
516 2 28.5589 32.4927 -1.39177 28.5589 32.4927 -1.39177
517 1 29.6146 30.6976 0.00569984 29.6146 30.6976 0.00569984
518 2 31.5552 30.7118 1.72068 31.5552 30.7118 1.72068
519 2 31.6627 30.699 -1.57874 31.6627 30.699 -1.57874
520 1 32.4952 32.3617 0.123292 32.4952 32.3617 0.123292
521 2 34.3213 32.5185 1.86057 34.3213 32.5185 1.86057
522 2 34.4 32.0064 -1.3162 34.4 32.0064 -1.3162
523 1 35.3762 30.6781 0.606588 35.3762 30.6781 0.606588
524 2 37.3328 30.7957 2.20621 37.3328 30.7957 2.20621
525 2 37.3563 30.5547 -1.02617 37.3563 30.5547 -1.02617
526 1 38.365 32.3153 0.42538 38.365 32.3153 0.42538
527 2 40.3651 32.5077 2.09104 40.3651 32.5077 2.09104
528 2 40.1927 32.0366 -1.2336 40.1927 32.0366 -1.2336
529 1 41.1625 30.5711 0.576505 41.1625 30.5711 0.576505
530 2 43.197 30.6967 2.08375 43.197 30.6967 2.08375
531 2 43.0643 30.4649 -1.14039 43.0643 30.4649 -1.14039
532 1 44.008 32.2253 0.353121 44.008 32.2253 0.353121
533 2 45.9317 32.296 1.94885 45.9317 32.296 1.94885
534 2 45.9277 32.1502 -1.3802 45.9277 32.1502 -1.3802
535 1 46.8507 30.6435 0.469235 46.8507 30.6435 0.469235
536 2 48.8275 30.5217 1.9208 48.8275 30.5217 1.9208
537 2 48.5665 30.863 -1.36458 48.5665 30.863 -1.36458
538 1 49.6598 32.3163 0.35255 49.6598 32.3163 0.35255
539 2 51.7846 32.1897 1.86263 51.7846 32.1897 1.86263