ITEM: TIMESTEP
906000
ITEM: NUMBER OF ATOMS
810
ITEM: BOX BOUNDS pp pp pp
-1.5254900860385687e+00 5.4543095086039031e+01
8.0582000660415243e-01 5.0210394993394715e+01
-1.0000000000000000e+01 1.0000000000000000e+01
ITEM: ATOMS id type x y z xu yu zu
1 1 -1.1655 1.04208 -0.193196 -1.1655 1.04208 -0.193196
2 2 0.820675 1.22676 1.46981 0.820675 1.22676 1.46981
3 2 0.780702 0.998381 -1.78579 0.780702 0.998381 -1.78579
4 1 1.87846 2.67687 -0.286438 1.87846 2.67687 -0.286438
5 2 3.86792 2.69371 1.35986 3.86792 2.69371 1.35986
6 2 3.92064 2.61274 -1.90554 3.92064 2.61274 -1.90554
7 1 4.95892 1.12347 -0.075465 4.95892 1.12347 -0.075465
8 2 7.09847 1.24102 1.58487 7.09847 1.24102 1.58487
9 2 7.10816 0.994707 -1.69955 7.10816 0.994707 -1.69955
10 1 8.12228 2.65521 -0.164691 8.12228 2.65521 -0.164691
11 2 10.0079 2.96137 1.51904 10.0079 2.96137 1.51904
12 2 10.3015 2.67902 -1.68144 10.3015 2.67902 -1.68144
13 1 11.2532 1.11267 0.00572371 11.2532 1.11267 0.00572371
14 2 13.134 1.12469 1.65573 13.134 1.12469 1.65573
15 2 13.2206 0.894298 -1.64854 13.2206 0.894298 -1.64854
16 1 14.2529 2.70906 0.0824652 14.2529 2.70906 0.0824652
17 2 16.3476 2.94964 1.6005 16.3476 2.94964 1.6005
18 2 16.3121 2.63895 -1.59936 16.3121 2.63895 -1.59936
19 1 17.3852 1.1505 0.0798374 17.3852 1.1505 0.0798374
20 2 19.4518 1.22059 1.63118 19.4518 1.22059 1.63118
21 2 19.4892 1.09389 -1.52249 19.4892 1.09389 -1.52249
22 1 20.5493 2.77608 0.0560347 20.5493 2.77608 0.0560347
23 2 22.6399 2.95593 1.71246 22.6399 2.95593 1.71246
24 2 22.656 2.44925 -1.36349 22.656 2.44925 -1.36349
25 1 23.6927 1.03172 0.418204 23.6927 1.03172 0.418204
26 2 25.9916 0.949166 1.73077 25.9916 0.949166 1.73077
27 2 25.5453 50.3446 -1.42574 25.5453 0.939981 -1.42574
28 1 26.7881 2.58075 -0.0280393 26.7881 2.58075 -0.0280393
29 2 28.6107 2.57543 1.72966 28.6107 2.57543 1.72966
30 2 28.9051 2.58058 -1.58343 28.9051 2.58058 -1.58343
31 1 29.9644 0.963472 0.0927037 29.9644 0.963472 0.0927037
32 2 32.0697 1.06335 1.61916 32.0697 1.06335 1.61916
33 2 31.957 50.2905 -1.72698 31.957 0.885911 -1.72698
34 1 32.9257 2.64259 -0.159626 32.9257 2.64259 -0.159626
35 2 35.0638 2.70516 1.4597 35.0638 2.70516 1.4597
36 2 34.949 2.78545 -1.80763 34.949 2.78545 -1.80763
37 1 36.1284 1.03978 -0.200333 36.1284 1.03978 -0.200333
38 2 38.0434 1.19012 1.50577 38.0434 1.19012 1.50577
39 2 38.1933 0.809969 -1.63056 38.1933 0.809969 -1.63056
40 1 39.2131 2.61321 -0.211949 39.2131 2.61321 -0.211949
41 2 41.3154 2.64082 1.22699 41.3154 2.64082 1.22699
42 2 41.1998 2.48885 -1.90008 41.1998 2.48885 -1.90008
43 1 42.3195 0.941303 -0.247659 42.3195 0.941303 -0.247659
44 2 44.2726 1.17055 1.41175 44.2726 1.17055 1.41175
45 2 44.3372 0.654408 -1.87924 44.3372 0.654408 -1.87924
46 1 45.5429 2.56776 -0.411809 45.5429 2.56776 -0.411809
47 2 47.454 2.8876 1.23067 47.454 2.8876 1.23067
48 2 47.5656 2.41127 -1.96826 47.5656 2.41127 -1.96826
49 1 48.5312 1.00973 -0.073965 48.5312 1.00973 -0.073965
50 2 50.5935 1.04486 1.42981 50.5935 1.04486 1.42981
51 2 50.6215 0.798409 -1.75752 50.6215 0.798409 -1.75752
52 1 51.7222 2.6144 -0.289016 51.7222 2.6144 -0.289016
53 2 53.7059 2.75663 1.43236 53.7059 2.75663 1.43236
54 2 53.7466 2.60875 -1.93375 53.7466 2.60875 -1.93375
55 1 -1.2695 4.31317 -0.232568 -1.2695 4.31317 -0.232568
56 2 0.779882 4.28238 1.36891 0.779882 4.28238 1.36891
57 2 0.903992 4.31049 -1.89702 0.903992 4.31049 -1.89702
58 1 1.98093 5.96042 -0.22476 1.98093 5.96042 -0.22476
59 2 4.06117 5.82754 1.38366 4.06117 5.82754 1.38366
60 2 3.93765 5.98919 -1.81349 3.93765 5.98919 -1.81349
61 1 4.94499 4.28399 -0.381197 4.94499 4.28399 -0.381197
62 2 6.9417 4.36399 1.37315 6.9417 4.36399 1.37315
63 2 6.94649 4.20722 -1.95494 6.94649 4.20722 -1.95494
64 1 8.00141 5.95301 -0.295229 8.00141 5.95301 -0.295229
65 2 9.99086 6.15053 1.31652 9.99086 6.15053 1.31652
66 2 10.2409 6.01467 -1.89173 10.2409 6.01467 -1.89173
67 1 11.2462 4.35188 -0.138665 11.2462 4.35188 -0.138665
68 2 13.2672 4.57312 1.46413 13.2672 4.57312 1.46413
69 2 13.2977 4.15172 -1.72558 13.2977 4.15172 -1.72558
70 1 14.2932 6.08098 -0.366552 14.2932 6.08098 -0.366552
71 2 16.3215 6.06651 1.37695 16.3215 6.06651 1.37695
72 2 16.4027 5.87182 -1.9077 16.4027 5.87182 -1.9077
73 1 17.4144 4.37258 -0.148912 17.4144 4.37258 -0.148912
74 2 19.3846 4.61658 1.44017 19.3846 4.61658 1.44017
75 2 19.3554 4.11685 -1.74377 19.3554 4.11685 -1.74377
76 1 20.5345 5.993 -0.367037 20.5345 5.993 -0.367037
77 2 22.452 5.9635 1.43274 22.452 5.9635 1.43274
78 2 22.7427 6.01137 -1.87438 22.7427 6.01137 -1.87438
79 1 23.6204 4.30577 -0.15489 23.6204 4.30577 -0.15489
80 2 25.7174 4.16261 1.59823 25.7174 4.16261 1.59823
81 2 25.7096 4.21901 -1.65215 25.7096 4.21901 -1.65215
82 1 26.7206 5.96027 -0.0223563 26.7206 5.96027 -0.0223563
83 2 28.8165 5.99992 1.57011 28.8165 5.99992 1.57011
84 2 28.8789 5.93207 -1.62012 28.8789 5.93207 -1.62012
85 1 29.7947 4.24143 0.132812 29.7947 4.24143 0.132812
86 2 31.9941 4.07483 1.5598 31.9941 4.07483 1.5598
87 2 31.748 4.42389 -1.54496 31.748 4.42389 -1.54496
88 1 32.991 5.87543 0.0294438 32.991 5.87543 0.0294438
89 2 35.2551 5.93936 1.29464 35.2551 5.93936 1.29464
90 2 34.7985 5.80288 -1.84738 34.7985 5.80288 -1.84738
91 1 36.083 4.24192 -0.280118 36.083 4.24192 -0.280118
92 2 38.4021 4.46533 1.17868 38.4021 4.46533 1.17868
93 2 38.1079 4.05129 -1.9546 38.1079 4.05129 -1.9546
94 1 39.3239 5.92369 -0.654155 39.3239 5.92369 -0.654155
95 2 41.3805 6.02251 0.929053 41.3805 6.02251 0.929053
96 2 41.3902 5.85274 -2.21921 41.3902 5.85274 -2.21921
97 1 42.4015 4.27013 -0.462919 42.4015 4.27013 -0.462919
98 2 44.5797 4.4302 1.01255 44.5797 4.4302 1.01255
99 2 44.2816 4.13899 -2.14686 44.2816 4.13899 -2.14686
100 1 45.534 5.97368 -0.764779 45.534 5.97368 -0.764779
101 2 47.5461 6.16253 0.945171 47.5461 6.16253 0.945171
102 2 47.7711 5.97326 -2.31855 47.7711 5.97326 -2.31855
103 1 48.5736 4.32777 -0.542251 48.5736 4.32777 -0.542251
104 2 50.4647 4.26409 1.21805 50.4647 4.26409 1.21805
105 2 50.7605 4.22754 -2.00309 50.7605 4.22754 -2.00309
106 1 51.632 5.93771 -0.380381 51.632 5.93771 -0.380381
107 2 53.6714 6.16188 1.2967 53.6714 6.16188 1.2967
108 2 53.884 6.03286 -1.98068 53.884 6.03286 -1.98068
109 1 -1.26073 7.71377 -0.404201 -1.26073 7.71377 -0.404201
110 2 0.792536 7.70363 1.2317 0.792536 7.70363 1.2317
111 2 0.85157 7.57447 -1.92493 0.85157 7.57447 -1.92493
112 1 1.88912 9.37802 -0.366338 1.88912 9.37802 -0.366338
113 2 3.82936 9.32952 1.29848 3.82936 9.32952 1.29848
114 2 3.85596 9.17451 -1.88527 3.85596 9.17451 -1.88527
115 1 4.89556 7.65181 -0.224815 4.89556 7.65181 -0.224815
116 2 6.96655 7.65526 1.27195 6.96655 7.65526 1.27195
117 2 6.90111 7.58885 -1.89372 6.90111 7.58885 -1.89372
118 1 8.03773 9.32322 -0.380181 8.03773 9.32322 -0.380181
119 2 10.0545 9.36638 1.21422 10.0545 9.36638 1.21422
120 2 9.95225 9.30067 -2.03138 9.95225 9.30067 -2.03138
121 1 11.1823 7.70298 -0.412021 11.1823 7.70298 -0.412021
122 2 13.2967 7.66941 1.26239 13.2967 7.66941 1.26239
123 2 13.4076 7.76189 -2.08352 13.4076 7.76189 -2.08352
124 1 14.3189 9.30705 -0.358184 14.3189 9.30705 -0.358184
125 2 16.3355 9.30712 1.22029 16.3355 9.30712 1.22029
126 2 16.324 9.28206 -2.01335 16.324 9.28206 -2.01335
127 1 17.4198 7.66638 -0.368229 17.4198 7.66638 -0.368229
128 2 19.4952 7.77392 1.21725 19.4952 7.77392 1.21725
129 2 19.4823 7.56118 -2.02746 19.4823 7.56118 -2.02746
130 1 20.5446 9.24193 -0.543528 20.5446 9.24193 -0.543528
131 2 22.3569 9.32761 1.3507 22.3569 9.32761 1.3507
132 2 22.7854 9.21689 -1.92507 22.7854 9.21689 -1.92507
133 1 23.6547 7.64301 -0.0973099 23.6547 7.64301 -0.0973099
134 2 25.6634 7.70464 1.60823 25.6634 7.70464 1.60823
135 2 25.6025 7.67016 -1.64536 25.6025 7.67016 -1.64536
136 1 26.739 9.29783 -0.0778369 26.739 9.29783 -0.0778369
137 2 28.9129 9.25595 1.51975 28.9129 9.25595 1.51975
138 2 28.7469 9.16839 -1.65152 28.7469 9.16839 -1.65152
139 1 29.8605 7.55256 -0.0973096 29.8605 7.55256 -0.0973096
140 2 31.8947 7.42393 1.66438 31.8947 7.42393 1.66438
141 2 32.0667 7.57045 -1.63745 32.0667 7.57045 -1.63745
142 1 33.0056 9.23417 -0.0320485 33.0056 9.23417 -0.0320485
143 2 35.4509 9.18416 1.23037 35.4509 9.18416 1.23037
144 2 34.8809 9.27286 -1.91437 34.8809 9.27286 -1.91437
145 1 36.1644 7.45688 -0.549928 36.1644 7.45688 -0.549928
146 2 38.1981 7.48125 1.02277 38.1981 7.48125 1.02277
147 2 38.1556 7.57248 -2.21735 38.1556 7.57248 -2.21735
148 1 39.1845 9.22026 -0.538245 39.1845 9.22026 -0.538245
149 2 41.3092 9.25097 0.950098 41.3092 9.25097 0.950098
150 2 41.1308 9.16904 -2.29645 41.1308 9.16904 -2.29645
151 1 42.3771 7.57793 -0.694534 42.3771 7.57793 -0.694534
152 2 44.445 7.51873 0.866213 44.445 7.51873 0.866213
153 2 44.4408 7.57321 -2.30789 44.4408 7.57321 -2.30789
154 1 45.633 9.18434 -0.724252 45.633 9.18434 -0.724252
155 2 47.6831 9.40193 0.742288 47.6831 9.40193 0.742288
156 2 47.5592 9.07653 -2.40984 47.5592 9.07653 -2.40984
157 1 48.7438 7.68319 -0.660584 48.7438 7.68319 -0.660584
158 2 50.6194 7.6641 1.10936 50.6194 7.6641 1.10936
159 2 50.8459 7.41125 -2.104 50.8459 7.41125 -2.104
160 1 51.7198 9.27725 -0.591675 51.7198 9.27725 -0.591675
161 2 53.6692 9.48104 1.05294 53.6692 9.48104 1.05294
162 2 53.6382 9.08298 -2.26393 53.6382 9.08298 -2.26393
163 1 -1.3477 10.9372 -0.845306 -1.3477 10.9372 -0.845306
164 2 0.577951 11.1673 0.869085 0.577951 11.1673 0.869085
165 2 0.848712 10.868 -2.29716 0.848712 10.868 -2.29716
166 1 1.71209 12.6133 -0.823646 1.71209 12.6133 -0.823646
167 2 3.69387 12.7918 0.898361 3.69387 12.7918 0.898361
168 2 4.07295 12.43 -2.22922 4.07295 12.43 -2.22922
169 1 4.87015 10.9358 -0.335569 4.87015 10.9358 -0.335569
170 2 7.10068 10.9623 1.3169 7.10068 10.9623 1.3169
171 2 6.91984 10.9617 -1.90955 6.91984 10.9617 -1.90955
172 1 8.03024 12.6197 -0.295007 8.03024 12.6197 -0.295007
173 2 10.1618 12.5251 1.22221 10.1618 12.5251 1.22221
174 2 9.97114 12.6077 -1.92974 9.97114 12.6077 -1.92974
175 1 11.1416 10.9922 -0.447532 11.1416 10.9922 -0.447532
176 2 13.0908 10.9008 1.26396 13.0908 10.9008 1.26396
177 2 13.355 10.9683 -1.98513 13.355 10.9683 -1.98513
178 1 14.2796 12.6125 -0.324846 14.2796 12.6125 -0.324846
179 2 16.3458 12.526 1.35884 16.3458 12.526 1.35884
180 2 16.2146 12.7285 -1.90296 16.2146 12.7285 -1.90296
181 1 17.4439 10.92 -0.425821 17.4439 10.92 -0.425821
182 2 19.4752 10.8774 1.12918 19.4752 10.8774 1.12918
183 2 19.4163 11.0791 -2.12725 19.4163 11.0791 -2.12725
184 1 20.4356 12.5676 -0.431201 20.4356 12.5676 -0.431201
185 2 22.4042 12.5685 1.33325 22.4042 12.5685 1.33325
186 2 22.6146 12.5976 -1.94902 22.6146 12.5976 -1.94902
187 1 23.6089 11.0239 -0.149495 23.6089 11.0239 -0.149495
188 2 25.6682 11.1282 1.42598 25.6682 11.1282 1.42598
189 2 25.5922 10.9606 -1.78089 25.5922 10.9606 -1.78089
190 1 26.7883 12.6047 -0.230748 26.7883 12.6047 -0.230748
191 2 28.7668 12.8479 1.36679 28.7668 12.8479 1.36679
192 2 28.8277 12.4043 -1.88274 28.8277 12.4043 -1.88274
193 1 29.8671 10.8529 -0.107308 29.8671 10.8529 -0.107308
194 2 31.8629 10.9773 1.55256 31.8629 10.9773 1.55256
195 2 31.9644 10.7203 -1.74936 31.9644 10.7203 -1.74936
196 1 33.076 12.5262 -0.12794 33.076 12.5262 -0.12794
197 2 35.3008 12.4176 1.28507 35.3008 12.4176 1.28507
198 2 34.9 12.5229 -1.94439 34.9 12.5229 -1.94439
199 1 36.1397 10.8573 -0.46706 36.1397 10.8573 -0.46706
200 2 38.1622 10.843 1.14999 38.1622 10.843 1.14999
201 2 38.0505 10.7868 -2.13982 38.0505 10.7868 -2.13982
202 1 39.2342 12.4699 -0.607451 39.2342 12.4699 -0.607451
203 2 41.3301 12.3566 0.992595 41.3301 12.3566 0.992595
204 2 41.2676 12.6863 -2.2254 41.2676 12.6863 -2.2254
205 1 42.2782 10.9074 -0.755396 42.2782 10.9074 -0.755396
206 2 44.496 10.9701 0.776257 44.496 10.9701 0.776257
207 2 44.5011 10.7088 -2.39464 44.5011 10.7088 -2.39464
208 1 45.5585 12.5003 -0.914269 45.5585 12.5003 -0.914269
209 2 47.5554 12.4655 0.719604 47.5554 12.4655 0.719604
210 2 47.5474 12.6719 -2.5116 47.5474 12.6719 -2.5116
211 1 48.5903 10.8831 -1.10449 48.5903 10.8831 -1.10449
212 2 50.3768 10.9634 0.829044 50.3768 10.9634 0.829044
213 2 50.8814 10.8876 -2.31494 50.8814 10.8876 -2.31494
214 1 51.7153 12.5739 -0.578336 51.7153 12.5739 -0.578336
215 2 53.8301 12.707 0.82085 53.8301 12.707 0.82085
216 2 53.5376 12.4687 -2.33408 53.5376 12.4687 -2.33408
217 1 -1.45993 14.2351 -1.01127 -1.45993 14.2351 -1.01127
218 2 0.556607 14.3084 0.62574 0.556607 14.3084 0.62574
219 2 0.569312 14.1599 -2.52526 0.569312 14.1599 -2.52526
220 1 1.69331 15.9257 -0.96985 1.69331 15.9257 -0.96985
221 2 3.62569 15.8437 0.793386 3.62569 15.8437 0.793386
222 2 3.86684 15.8712 -2.43032 3.86684 15.8712 -2.43032
223 1 4.81608 14.2685 -0.776807 4.81608 14.2685 -0.776807
224 2 6.77584 14.3888 1.16041 6.77584 14.3888 1.16041
225 2 7.14725 14.1679 -2.09414 7.14725 14.1679 -2.09414
226 1 7.93834 15.8805 -0.479875 7.93834 15.8805 -0.479875
227 2 9.98386 15.6908 1.28401 9.98386 15.6908 1.28401
228 2 10.0998 15.911 -2.0111 10.0998 15.911 -2.0111
229 1 11.0675 14.2401 -0.369406 11.0675 14.2401 -0.369406
230 2 13.0644 14.1912 1.30846 13.0644 14.1912 1.30846
231 2 13.1693 14.3324 -1.82293 13.1693 14.3324 -1.82293
232 1 14.0335 15.8894 -0.118464 14.0335 15.8894 -0.118464
233 2 16.2975 15.9365 1.47227 16.2975 15.9365 1.47227
234 2 16.0835 15.8602 -1.80669 16.0835 15.8602 -1.80669
235 1 17.3344 14.2294 -0.200366 17.3344 14.2294 -0.200366
236 2 19.6017 14.1532 1.26264 19.6017 14.1532 1.26264
237 2 19.36 14.228 -2.02023 19.36 14.228 -2.02023
238 1 20.3549 15.8622 -0.379788 20.3549 15.8622 -0.379788
239 2 22.3589 15.9334 1.2174 22.3589 15.9334 1.2174
240 2 22.6047 15.8392 -1.92138 22.6047 15.8392 -1.92138
241 1 23.5064 14.1899 -0.223145 23.5064 14.1899 -0.223145
242 2 25.7219 14.2921 1.36317 25.7219 14.2921 1.36317
243 2 25.5434 14.1655 -1.87305 25.5434 14.1655 -1.87305
244 1 26.6848 15.8724 -0.376334 26.6848 15.8724 -0.376334
245 2 28.9243 15.9851 1.12186 28.9243 15.9851 1.12186
246 2 28.6102 15.7464 -2.04594 28.6102 15.7464 -2.04594
247 1 29.8214 14.2129 -0.426973 29.8214 14.2129 -0.426973
248 2 31.9024 14.3559 1.24214 31.9024 14.3559 1.24214
249 2 32.0103 14.0833 -1.97566 32.0103 14.0833 -1.97566
250 1 33.0517 15.8593 -0.44085 33.0517 15.8593 -0.44085
251 2 35.0699 15.7834 1.13544 35.0699 15.7834 1.13544
252 2 35.1957 15.7668 -2.11167 35.1957 15.7668 -2.11167
253 1 36.1931 14.1595 -0.445869 36.1931 14.1595 -0.445869
254 2 38.3335 14.2439 1.03698 38.3335 14.2439 1.03698
255 2 38.159 14.2028 -2.23698 38.159 14.2028 -2.23698
256 1 39.3511 15.7741 -0.67156 39.3511 15.7741 -0.67156
257 2 41.2839 15.801 1.06336 41.2839 15.801 1.06336
258 2 41.5403 15.7547 -2.05496 41.5403 15.7547 -2.05496
259 1 42.3998 14.1433 -0.421753 42.3998 14.1433 -0.421753
260 2 44.5452 14.1346 0.920619 44.5452 14.1346 0.920619
261 2 44.2156 14.2529 -2.39269 44.2156 14.2529 -2.39269
262 1 45.3932 15.7722 -0.663941 45.3932 15.7722 -0.663941
263 2 47.5403 15.7735 0.926607 47.5403 15.7735 0.926607
264 2 47.5144 15.9002 -2.29858 47.5144 15.9002 -2.29858
265 1 48.5887 14.2315 -0.767006 48.5887 14.2315 -0.767006
266 2 50.5652 14.258 0.895746 50.5652 14.258 0.895746
267 2 50.7275 14.1111 -2.2423 50.7275 14.1111 -2.2423
268 1 51.6031 15.9912 -0.653188 51.6031 15.9912 -0.653188
269 2 53.7777 15.7623 0.840083 53.7777 15.7623 0.840083
270 2 53.4869 16.1422 -2.43682 53.4869 16.1422 -2.43682
271 1 -1.41965 17.5089 -0.642008 -1.41965 17.5089 -0.642008
272 2 0.594013 17.3214 0.9038 0.594013 17.3214 0.9038
273 2 0.57383 17.7228 -2.29033 0.57383 17.7228 -2.29033
274 1 1.66552 19.1279 -0.608659 1.66552 19.1279 -0.608659
275 2 3.66043 19.0456 1.02441 3.66043 19.0456 1.02441
276 2 3.65123 19.2601 -2.26044 3.65123 19.2601 -2.26044
277 1 4.7616 17.5437 -0.743533 4.7616 17.5437 -0.743533
278 2 6.6155 17.3348 1.02227 6.6155 17.3348 1.02227
279 2 7.04071 17.6516 -2.11209 7.04071 17.6516 -2.11209
280 1 7.93509 19.0964 -0.333723 7.93509 19.0964 -0.333723
281 2 9.82834 19.043 1.34223 9.82834 19.043 1.34223
282 2 10.015 19.3159 -1.90908 10.015 19.3159 -1.90908
283 1 10.9659 17.4715 -0.33858 10.9659 17.4715 -0.33858
284 2 12.924 17.5696 1.33477 12.924 17.5696 1.33477
285 2 13.0053 17.297 -1.91688 13.0053 17.297 -1.91688
286 1 13.9885 19.1288 -0.398366 13.9885 19.1288 -0.398366
287 2 16.105 19.3202 1.26729 16.105 19.3202 1.26729
288 2 16.0695 19.1259 -2.04769 16.0695 19.1259 -2.04769
289 1 17.2707 17.5915 -0.251881 17.2707 17.5915 -0.251881
290 2 19.3217 17.3173 1.37834 19.3217 17.3173 1.37834
291 2 19.296 17.5199 -1.89471 19.296 17.5199 -1.89471
292 1 20.3317 19.067 -0.223502 20.3317 19.067 -0.223502
293 2 22.4655 19.0974 1.22299 22.4655 19.0974 1.22299
294 2 22.236 19.0695 -1.93084 22.236 19.0695 -1.93084
295 1 23.5263 17.5105 -0.310453 23.5263 17.5105 -0.310453
296 2 25.6674 17.543 1.28976 25.6674 17.543 1.28976
297 2 25.6055 17.4884 -1.99602 25.6055 17.4884 -1.99602
298 1 26.6216 19.1155 -0.364813 26.6216 19.1155 -0.364813
299 2 28.8872 18.9842 1.05684 28.8872 18.9842 1.05684
300 2 28.5353 19.1993 -2.1303 28.5353 19.1993 -2.1303
301 1 29.8419 17.4556 -0.738588 29.8419 17.4556 -0.738588
302 2 31.7205 17.3458 1.164 31.7205 17.3458 1.164
303 2 32.1686 17.4452 -2.0868 32.1686 17.4452 -2.0868
304 1 32.9672 19.0488 -0.252012 32.9672 19.0488 -0.252012
305 2 35.1357 19.0374 1.25372 35.1357 19.0374 1.25372
306 2 34.9542 19.1456 -1.98607 34.9542 19.1456 -1.98607
307 1 36.0397 17.4612 -0.499348 36.0397 17.4612 -0.499348
308 2 38.2916 17.5254 0.918036 38.2916 17.5254 0.918036
309 2 38.0754 17.2887 -2.30509 38.0754 17.2887 -2.30509
310 1 39.2541 19.0903 -0.768718 39.2541 19.0903 -0.768718
311 2 41.0586 19.001 1.06579 41.0586 19.001 1.06579
312 2 41.5592 19.1323 -2.1906 41.5592 19.1323 -2.1906
313 1 42.3363 17.4347 -0.515188 42.3363 17.4347 -0.515188
314 2 44.3409 17.3239 1.05175 44.3409 17.3239 1.05175
315 2 44.4741 17.6014 -2.08466 44.4741 17.6014 -2.08466
316 1 45.4838 19.1703 -0.437186 45.4838 19.1703 -0.437186
317 2 47.3753 18.9751 1.19991 47.3753 18.9751 1.19991
318 2 47.484 19.3652 -1.97811 47.484 19.3652 -1.97811
319 1 48.544 17.5471 -0.612836 48.544 17.5471 -0.612836
320 2 50.5457 17.3995 1.08617 50.5457 17.3995 1.08617
321 2 50.5754 17.7031 -2.18475 50.5754 17.7031 -2.18475
322 1 51.7022 19.2442 -0.348605 51.7022 19.2442 -0.348605
323 2 53.9599 19.2442 1.09624 53.9599 19.2442 1.09624
324 2 53.4695 19.3568 -2.14824 53.4695 19.3568 -2.14824
325 1 -1.23972 20.9069 -0.503859 -1.23972 20.9069 -0.503859
326 2 0.712273 20.8272 1.14955 0.712273 20.8272 1.14955
327 2 0.587089 21.0237 -2.12149 0.587089 21.0237 -2.12149
328 1 1.76807 22.5569 -0.314704 1.76807 22.5569 -0.314704
329 2 3.96545 22.2071 1.23253 3.96545 22.2071 1.23253
330 2 3.67727 22.5716 -1.95399 3.67727 22.5716 -1.95399
331 1 4.86381 20.7256 -0.521912 4.86381 20.7256 -0.521912
332 2 6.80591 20.5998 1.24147 6.80591 20.5998 1.24147
333 2 7.0465 20.8351 -1.94816 7.0465 20.8351 -1.94816
334 1 7.90834 22.4095 -0.160446 7.90834 22.4095 -0.160446
335 2 9.84673 22.4566 1.46411 9.84673 22.4566 1.46411
336 2 9.99073 22.4274 -1.79076 9.99073 22.4274 -1.79076
337 1 10.9918 20.8103 -0.147964 10.9918 20.8103 -0.147964
338 2 13.1046 20.7144 1.36141 13.1046 20.7144 1.36141
339 2 12.8873 20.8557 -1.84188 12.8873 20.8557 -1.84188
340 1 14.1456 22.4454 -0.239868 14.1456 22.4454 -0.239868
341 2 16.2743 22.3056 1.39047 16.2743 22.3056 1.39047
342 2 16.1736 22.6603 -1.83332 16.1736 22.6603 -1.83332
343 1 17.2349 20.8419 -0.48746 17.2349 20.8419 -0.48746
344 2 19.0674 20.6874 1.29228 19.0674 20.6874 1.29228
345 2 19.5679 20.7533 -1.88868 19.5679 20.7533 -1.88868
346 1 20.3736 22.4503 -0.111928 20.3736 22.4503 -0.111928
347 2 22.4513 22.3711 1.31036 22.4513 22.3711 1.31036
348 2 22.4314 22.3583 -1.84051 22.4314 22.3583 -1.84051
349 1 23.4498 20.7307 -0.363243 23.4498 20.7307 -0.363243
350 2 25.632 20.8348 1.29091 25.632 20.8348 1.29091
351 2 25.7073 20.8048 -1.93305 25.7073 20.8048 -1.93305
352 1 26.7318 22.4952 -0.259871 26.7318 22.4952 -0.259871
353 2 28.852 22.2996 1.30003 28.852 22.2996 1.30003
354 2 28.8183 22.6786 -1.91745 28.8183 22.6786 -1.91745
355 1 29.869 20.8178 -0.461792 29.869 20.8178 -0.461792
356 2 31.7939 20.7553 1.31683 31.7939 20.7553 1.31683
357 2 32.0355 20.8397 -1.91149 32.0355 20.8397 -1.91149
358 1 32.9328 22.4129 -0.253265 32.9328 22.4129 -0.253265
359 2 34.9497 22.0792 1.36365 34.9497 22.0792 1.36365
360 2 34.9658 22.5268 -1.79729 34.9658 22.5268 -1.79729
361 1 36.0787 20.6382 -0.394237 36.0787 20.6382 -0.394237
362 2 38.2069 20.426 1.0974 38.2069 20.426 1.0974
363 2 38.0912 21.0045 -2.04775 38.0912 21.0045 -2.04775
364 1 39.226 22.3577 -0.250564 39.226 22.3577 -0.250564
365 2 41.3783 22.36 1.40169 41.3783 22.36 1.40169
366 2 41.221 22.4102 -1.91473 41.221 22.4102 -1.91473
367 1 42.3844 20.6945 -0.31335 42.3844 20.6945 -0.31335
368 2 44.309 20.6787 1.28843 44.309 20.6787 1.28843
369 2 44.4014 20.9793 -1.92518 44.4014 20.9793 -1.92518
370 1 45.4285 22.4707 -0.149688 45.4285 22.4707 -0.149688
371 2 47.4364 22.373 1.50097 47.4364 22.373 1.50097
372 2 47.5039 22.4975 -1.76072 47.5039 22.4975 -1.76072
373 1 48.5249 20.8207 -0.218457 48.5249 20.8207 -0.218457
374 2 50.5653 20.8088 1.35529 50.5653 20.8088 1.35529
375 2 50.677 20.9174 -1.89445 50.677 20.9174 -1.89445
376 1 51.7414 22.497 -0.205261 51.7414 22.497 -0.205261
377 2 53.8896 22.3611 1.31755 53.8896 22.3611 1.31755
378 2 53.5775 22.7072 -1.89624 53.5775 22.7072 -1.89624
379 1 -1.2947 24.1516 -0.233115 -1.2947 24.1516 -0.233115
380 2 0.623676 24.0465 1.41208 0.623676 24.0465 1.41208
381 2 0.810832 24.3479 -1.78202 0.810832 24.3479 -1.78202
382 1 1.77219 25.7674 0.0844657 1.77219 25.7674 0.0844657
383 2 3.90684 25.6274 1.56961 3.90684 25.6274 1.56961
384 2 3.83902 25.7852 -1.61456 3.83902 25.7852 -1.61456
385 1 4.89938 24.0058 -0.226419 4.89938 24.0058 -0.226419
386 2 6.81994 24.0967 1.53162 6.81994 24.0967 1.53162
387 2 6.87876 24.05 -1.7706 6.87876 24.05 -1.7706
388 1 7.98015 25.7057 -0.0434362 7.98015 25.7057 -0.0434362
389 2 10.103 25.544 1.53128 10.103 25.544 1.53128
390 2 10.0054 25.6786 -1.73026 10.0054 25.6786 -1.73026
391 1 11.0291 24.0722 -0.148834 11.0291 24.0722 -0.148834
392 2 13.1094 23.8983 1.51214 13.1094 23.8983 1.51214
393 2 13.1196 24.2522 -1.77931 13.1196 24.2522 -1.77931
394 1 14.1536 25.7071 0.10956 14.1536 25.7071 0.10956
395 2 16.2033 25.4552 1.69909 16.2033 25.4552 1.69909
396 2 16.2448 25.9277 -1.60175 16.2448 25.9277 -1.60175
397 1 17.3128 24.1399 -0.086196 17.3128 24.1399 -0.086196
398 2 19.375 23.9732 1.55713 19.375 23.9732 1.55713
399 2 19.3858 24.1777 -1.67226 19.3858 24.1777 -1.67226
400 1 20.4726 25.6595 -0.0224519 20.4726 25.6595 -0.0224519
401 2 22.5824 25.6186 1.47608 22.5824 25.6186 1.47608
402 2 22.4062 25.6507 -1.89436 22.4062 25.6507 -1.89436
403 1 23.5336 23.9687 -0.282116 23.5336 23.9687 -0.282116
404 2 25.5675 24.1761 1.29371 25.5675 24.1761 1.29371
405 2 25.4373 24.004 -1.94766 25.4373 24.004 -1.94766
406 1 26.6196 25.7276 -0.492598 26.6196 25.7276 -0.492598
407 2 28.6568 25.7572 1.37612 28.6568 25.7572 1.37612
408 2 28.9764 25.8024 -1.85414 28.9764 25.8024 -1.85414
409 1 29.935 24.1048 -0.117412 29.935 24.1048 -0.117412
410 2 31.9327 23.9594 1.53284 31.9327 23.9594 1.53284
411 2 31.9195 24.2793 -1.79095 31.9195 24.2793 -1.79095
412 1 32.9919 25.6172 0.0479179 32.9919 25.6172 0.0479179
413 2 35.0595 25.6641 1.61914 35.0595 25.6641 1.61914
414 2 34.9968 25.5346 -1.59609 34.9968 25.5346 -1.59609
415 1 36.0859 23.9336 0.0588727 36.0859 23.9336 0.0588727
416 2 38.3042 23.9273 1.5183 38.3042 23.9273 1.5183
417 2 38.1172 23.9218 -1.72137 38.1172 23.9218 -1.72137
418 1 39.228 25.6653 -0.106854 39.228 25.6653 -0.106854
419 2 41.2957 25.6128 1.40515 41.2957 25.6128 1.40515
420 2 41.165 25.6907 -1.78984 41.165 25.6907 -1.78984
421 1 42.3192 24.0084 -0.280597 42.3192 24.0084 -0.280597
422 2 44.2228 24.0434 1.52621 44.2228 24.0434 1.52621
423 2 44.4032 24.0929 -1.80675 44.4032 24.0929 -1.80675
424 1 45.3413 25.6964 -0.0558002 45.3413 25.6964 -0.0558002
425 2 47.3506 25.6592 1.59577 47.3506 25.6592 1.59577
426 2 47.4079 25.6832 -1.68562 47.4079 25.6832 -1.68562
427 1 48.5176 24.0738 -0.00640317 48.5176 24.0738 -0.00640317
428 2 50.6853 24.0393 1.57 50.6853 24.0393 1.57
429 2 50.5471 24.2258 -1.72005 50.5471 24.2258 -1.72005
430 1 51.6738 25.781 0.0102741 51.6738 25.781 0.0102741
431 2 53.8522 25.6426 1.5813 53.8522 25.6426 1.5813
432 2 53.6586 26.0114 -1.67415 53.6586 26.0114 -1.67415
433 1 -1.2863 27.4185 0.0877294 -1.2863 27.4185 0.0877294
434 2 0.843108 27.4815 1.70181 0.843108 27.4815 1.70181
435 2 0.791685 27.4041 -1.61687 0.791685 27.4041 -1.61687
436 1 1.87354 29.0466 0.0440024 1.87354 29.0466 0.0440024
437 2 3.86722 28.8554 1.69127 3.86722 28.8554 1.69127
438 2 3.97897 29.1535 -1.54798 3.97897 29.1535 -1.54798
439 1 4.9928 27.3809 -0.0493096 4.9928 27.3809 -0.0493096
440 2 6.99327 27.2796 1.69782 6.99327 27.2796 1.69782
441 2 6.99152 27.5021 -1.56537 6.99152 27.5021 -1.56537
442 1 8.02871 29.0818 0.119695 8.02871 29.0818 0.119695
443 2 10.1631 28.923 1.67302 10.1631 28.923 1.67302
444 2 9.99719 29.0733 -1.46686 9.99719 29.0733 -1.46686
445 1 11.0465 27.3008 -0.108995 11.0465 27.3008 -0.108995
446 2 12.8727 27.3175 1.6368 12.8727 27.3175 1.6368
447 2 13.1011 27.2885 -1.60017 13.1011 27.2885 -1.60017
448 1 14.1754 28.9587 0.0736485 14.1754 28.9587 0.0736485
449 2 16.1864 28.8661 1.81905 16.1864 28.8661 1.81905
450 2 16.3688 29.0313 -1.35471 16.3688 29.0313 -1.35471
451 1 17.3544 27.3557 0.232038 17.3544 27.3557 0.232038
452 2 19.6052 27.2237 1.79052 19.6052 27.2237 1.79052
453 2 19.3809 27.4678 -1.45766 19.3809 27.4678 -1.45766
454 1 20.5183 28.9433 0.168868 20.5183 28.9433 0.168868
455 2 22.7624 28.8702 1.67237 22.7624 28.8702 1.67237
456 2 22.3869 28.9394 -1.56716 22.3869 28.9394 -1.56716
457 1 23.5473 27.2437 -0.110016 23.5473 27.2437 -0.110016
458 2 25.57 27.1239 1.34953 25.57 27.1239 1.34953
459 2 25.6292 27.5957 -1.85779 25.6292 27.5957 -1.85779
460 1 26.673 28.9915 -0.0932721 26.673 28.9915 -0.0932721
461 2 28.6474 28.9747 1.6062 28.6474 28.9747 1.6062
462 2 28.8331 29.0653 -1.70273 28.8331 29.0653 -1.70273
463 1 29.7914 27.3648 -0.0656241 29.7914 27.3648 -0.0656241
464 2 31.7659 27.2566 1.63134 31.7659 27.2566 1.63134
465 2 32.0092 27.2837 -1.6575 32.0092 27.2837 -1.6575
466 1 32.9373 28.9349 -0.0322652 32.9373 28.9349 -0.0322652
467 2 35.2021 28.9312 1.43976 35.2021 28.9312 1.43976
468 2 34.9256 28.9978 -1.74308 34.9256 28.9978 -1.74308
469 1 36.0707 27.2633 -0.139784 36.0707 27.2633 -0.139784
470 2 38.0897 27.2423 1.39131 38.0897 27.2423 1.39131
471 2 38.1994 27.2731 -1.78853 38.1994 27.2731 -1.78853
472 1 39.171 28.9526 -0.154487 39.171 28.9526 -0.154487
473 2 41.2557 29.1347 1.47879 41.2557 29.1347 1.47879
474 2 41.1516 28.8102 -1.75561 41.1516 28.8102 -1.75561
475 1 42.3231 27.314 -0.0971539 42.3231 27.314 -0.0971539
476 2 44.3041 27.3523 1.59317 44.3041 27.3523 1.59317
477 2 44.3921 27.2537 -1.72631 44.3921 27.2537 -1.72631
478 1 45.3467 28.9811 -0.0712059 45.3467 28.9811 -0.0712059
479 2 47.4814 29.0862 1.52488 47.4814 29.0862 1.52488
480 2 47.2354 28.7772 -1.70102 47.2354 28.7772 -1.70102
481 1 48.468 27.3074 0.0392953 48.468 27.3074 0.0392953
482 2 50.6617 27.297 1.60372 50.6617 27.297 1.60372
483 2 50.4042 27.3618 -1.70438 50.4042 27.3618 -1.70438
484 1 51.6181 28.9411 -0.0815793 51.6181 28.9411 -0.0815793
485 2 53.5811 28.9493 1.65358 53.5811 28.9493 1.65358
486 2 54.0064 29.1984 -1.49796 54.0064 29.1984 -1.49796
487 1 -1.1548 30.679 0.220951 -1.1548 30.679 0.220951
488 2 1.00215 30.749 1.63585 1.00215 30.749 1.63585
489 2 0.664282 30.7207 -1.51806 0.664282 30.7207 -1.51806
490 1 1.86032 32.412 -0.129092 1.86032 32.412 -0.129092
491 2 3.74663 32.3346 1.69635 3.74663 32.3346 1.69635
492 2 4.06898 32.265 -1.52012 4.06898 32.265 -1.52012
493 1 4.91926 30.6681 0.196474 4.91926 30.6681 0.196474
494 2 6.99714 30.5895 1.79915 6.99714 30.5895 1.79915
495 2 6.98019 30.7028 -1.45144 6.98019 30.7028 -1.45144
496 1 8.12479 32.3762 0.191256 8.12479 32.3762 0.191256
497 2 10.2517 32.3716 1.78541 10.2517 32.3716 1.78541
498 2 10.1391 32.2504 -1.43142 10.1391 32.2504 -1.43142
499 1 11.1956 30.5725 0.169709 11.1956 30.5725 0.169709
500 2 13.1654 30.4018 1.8486 13.1654 30.4018 1.8486
501 2 13.3221 30.7898 -1.48256 13.3221 30.7898 -1.48256
502 1 14.2192 32.2729 0.458848 14.2192 32.2729 0.458848
503 2 16.4258 32.145 1.97389 16.4258 32.145 1.97389
504 2 16.1806 32.2809 -1.21059 16.1806 32.2809 -1.21059
505 1 17.3566 30.5776 0.321425 17.3566 30.5776 0.321425
506 2 19.5208 30.5548 1.82807 19.5208 30.5548 1.82807
507 2 19.3221 30.5496 -1.33129 19.3221 30.5496 -1.33129
508 1 20.47 32.2002 0.28723 20.47 32.2002 0.28723
509 2 22.5367 32.1741 1.86666 22.5367 32.1741 1.86666
510 2 22.4765 32.4295 -1.38089 22.4765 32.4295 -1.38089
511 1 23.6542 30.5925 0.0276898 23.6542 30.5925 0.0276898
512 2 25.7155 30.5065 1.65524 25.7155 30.5065 1.65524
513 2 25.6937 30.6976 -1.51547 25.6937 30.6976 -1.51547
514 1 26.7197 32.2858 0.245297 26.7197 32.2858 0.245297
515 2 28.8584 32.1815 1.85279 28.8584 32.1815 1.85279
516 2 28.6705 32.4438 -1.51293 28.6705 32.4438 -1.51293
517 1 29.8733 30.6832 -0.0157993 29.8733 30.6832 -0.0157993
518 2 31.9343 30.7168 1.52166 31.9343 30.7168 1.52166
519 2 31.7767 30.6331 -1.66323 31.7767 30.6331 -1.66323
520 1 32.9519 32.3057 -0.148357 32.9519 32.3057 -0.148357
521 2 35.049 32.2929 1.36795 35.049 32.2929 1.36795
522 2 35.0151 32.3983 -1.86626 35.0151 32.3983 -1.86626
523 1 36.0487 30.6897 -0.257453 36.0487 30.6897 -0.257453
524 2 38.0339 30.6335 1.48089 38.0339 30.6335 1.48089
525 2 38.2053 30.5468 -1.77717 38.2053 30.5468 -1.77717
526 1 39.2122 32.275 -0.181689 39.2122 32.275 -0.181689
527 2 41.3383 32.3081 1.40997 41.3383 32.3081 1.40997
528 2 41.1532 32.2126 -1.8058 41.1532 32.2126 -1.8058
529 1 42.2743 30.67 -0.186995 42.2743 30.67 -0.186995
530 2 44.1522 30.6475 1.47441 44.1522 30.6475 1.47441
531 2 44.3208 30.5336 -1.71413 44.3208 30.5336 -1.71413
532 1 45.3293 32.2821 -0.234702 45.3293 32.2821 -0.234702
533 2 47.4765 32.2823 1.36831 47.4765 32.2823 1.36831
534 2 47.4988 32.1873 -1.8389 47.4988 32.1873 -1.8389
535 1 48.5031 30.5811 -0.305031 48.5031 30.5811 -0.305031
536 2 50.4295 30.5921 1.44709 50.4295 30.5921 1.44709