ITEM: TIMESTEP
1923000
ITEM: NUMBER OF ATOMS
810
ITEM: BOX BOUNDS pp pp pp
-4.1397277130330172e+00 5.7157332713033483e+01
8.0582000660415243e-01 5.0210394993394715e+01
-1.0000000000000000e+01 1.0000000000000000e+01
ITEM: ATOMS id type x y z xu yu zu
1 1 -2.08729 0.959473 -1.23053 -2.08729 0.959473 -1.23053
2 2 -0.622715 1.12179 0.8274 -0.622715 1.12179 0.8274
3 2 0.215533 0.766711 -2.34652 0.215533 0.766711 -2.34652
4 1 0.730671 2.55099 -0.62176 0.730671 2.55099 -0.62176
5 2 2.41345 2.55267 1.25891 2.41345 2.55267 1.25891
6 2 2.93206 2.63445 -2.04722 2.93206 2.63445 -2.04722
7 1 3.50267 0.885677 -0.301809 3.50267 0.885677 -0.301809
8 2 5.19081 0.843767 1.69322 5.19081 0.843767 1.69322
9 2 5.64851 1.11299 -1.62871 5.64851 1.11299 -1.62871
10 1 6.34433 2.62776 0.353363 6.34433 2.62776 0.353363
11 2 8.12789 2.52021 2.17031 8.12789 2.52021 2.17031
12 2 8.36096 2.77406 -1.10716 8.36096 2.77406 -1.10716
13 1 9.13619 0.980278 0.472246 9.13619 0.980278 0.472246
14 2 10.6848 1.0239 2.36453 10.6848 1.0239 2.36453
15 2 11.2744 1.17507 -0.79986 11.2744 1.17507 -0.79986
16 1 11.9793 2.76233 1.04326 11.9793 2.76233 1.04326
17 2 13.9143 2.70785 2.80997 13.9143 2.70785 2.80997
18 2 14.0256 2.7832 -0.502417 14.0256 2.7832 -0.502417
19 1 14.9516 1.06304 1.24657 14.9516 1.06304 1.24657
20 2 16.4853 1.02797 3.24676 16.4853 1.02797 3.24676
21 2 17.0281 1.01394 0.026242 17.0281 1.01394 0.026242
22 1 17.722 2.73026 1.72052 17.722 2.73026 1.72052
23 2 19.2907 2.62311 3.65139 19.2907 2.62311 3.65139
24 2 19.8561 2.90726 0.437462 19.8561 2.90726 0.437462
25 1 20.5774 1.04813 2.06303 20.5774 1.04813 2.06303
26 2 22.1476 1.13585 4.01163 22.1476 1.13585 4.01163
27 2 22.7374 0.925992 0.885702 22.7374 0.925992 0.885702
28 1 23.3509 2.69323 2.58116 23.3509 2.69323 2.58116
29 2 24.9061 2.63709 4.52482 24.9061 2.63709 4.52482
30 2 25.5298 2.85268 1.34567 25.5298 2.85268 1.34567
31 1 26.2028 1.01975 3.1153 26.2028 1.01975 3.1153
32 2 27.7295 1.35349 5.04515 27.7295 1.35349 5.04515
33 2 28.564 0.928951 1.84061 28.564 0.928951 1.84061
34 1 29.0511 2.79525 3.54643 29.0511 2.79525 3.54643
35 2 30.9598 47.754 2.84864 30.9598 -1.65058 2.84864
36 2 30.7733 1.19294 4.37471 30.7733 1.19294 4.37471
37 1 43.0818 4.25655 -6.41257 43.0818 4.25655 -6.41257
38 2 44.0816 1.13607 -4.1383 44.0816 1.13607 -4.1383
39 2 45.5212 1.17506 -7.13344 45.5212 1.17506 -7.13344
40 1 45.6114 2.81638 -5.19213 45.6114 2.81638 -5.19213
41 2 46.8122 2.82003 -2.97444 46.8122 2.82003 -2.97444
42 2 47.911 2.69115 -6.00319 47.911 2.69115 -6.00319
43 1 48.1099 1.01577 -4.05954 48.1099 1.01577 -4.05954
44 2 49.5244 0.932989 -1.9694 49.5244 0.932989 -1.9694
45 2 50.4181 1.14957 -5.07374 50.4181 1.14957 -5.07374
46 1 50.9046 2.67613 -3.13741 50.9046 2.67613 -3.13741
47 2 52.4353 2.68495 -1.09094 52.4353 2.68495 -1.09094
48 2 53.0977 2.54982 -4.3189 53.0977 2.54982 -4.3189
49 1 53.5763 0.989204 -2.49346 53.5763 0.989204 -2.49346
50 2 55.2406 0.895458 -0.638326 55.2406 0.895458 -0.638326
51 2 55.8148 1.15583 -3.77428 55.8148 1.15583 -3.77428
52 1 56.4425 2.6526 -1.91246 56.4425 2.6526 -1.91246
53 2 -3.33871 2.78836 0.0565876 57.9583 2.78836 0.0565876
54 2 -2.51825 2.48699 -3.0495 58.7788 2.48699 -3.0495
55 1 -2.034 4.23757 -1.41899 -2.034 4.23757 -1.41899
56 2 -0.629467 4.20368 0.669062 -0.629467 4.20368 0.669062
57 2 0.22498 4.35154 -2.41441 0.22498 4.35154 -2.41441
58 1 0.716174 5.95417 -0.461136 0.716174 5.95417 -0.461136
59 2 2.4091 6.06056 1.28083 2.4091 6.06056 1.28083
60 2 2.78833 5.91639 -1.92437 2.78833 5.91639 -1.92437
61 1 3.52545 4.23566 -0.203737 3.52545 4.23566 -0.203737
62 2 5.13714 4.34814 1.78336 5.13714 4.34814 1.78336
63 2 5.76016 4.2673 -1.44928 5.76016 4.2673 -1.44928
64 1 6.39783 5.8895 0.315743 6.39783 5.8895 0.315743
65 2 8.04954 6.043 2.0902 8.04954 6.043 2.0902
66 2 8.49611 5.99465 -1.11733 8.49611 5.99465 -1.11733
67 1 9.18285 4.31382 0.680748 9.18285 4.31382 0.680748
68 2 10.8487 4.27314 2.59137 10.8487 4.27314 2.59137
69 2 11.2466 4.32953 -0.664916 11.2466 4.32953 -0.664916
70 1 12.0366 5.99669 1.10424 12.0366 5.99669 1.10424
71 2 13.6981 5.77888 2.9023 13.6981 5.77888 2.9023
72 2 14.134 6.29371 -0.328719 14.134 6.29371 -0.328719
73 1 14.8839 4.4483 1.13097 14.8839 4.4483 1.13097
74 2 16.3067 4.18023 3.18977 16.3067 4.18023 3.18977
75 2 17.0543 4.47285 0.0159232 17.0543 4.47285 0.0159232
76 1 17.6717 5.98908 2.11582 17.6717 5.98908 2.11582
77 2 19.3196 5.91707 3.89798 19.3196 5.91707 3.89798
78 2 19.7574 6.08552 0.769319 19.7574 6.08552 0.769319
79 1 20.5361 4.34295 2.33049 20.5361 4.34295 2.33049
80 2 22.2301 4.18728 4.27435 22.2301 4.18728 4.27435
81 2 22.5456 4.4968 0.955244 22.5456 4.4968 0.955244
82 1 23.2844 5.99899 2.76989 23.2844 5.99899 2.76989
83 2 24.9114 5.99393 4.78728 24.9114 5.99393 4.78728
84 2 25.3928 6.0569 1.45337 25.3928 6.0569 1.45337
85 1 26.1176 4.36011 3.262 26.1176 4.36011 3.262
86 2 27.8131 4.27786 5.13745 27.8131 4.27786 5.13745
87 2 28.3157 4.48628 1.92289 28.3157 4.48628 1.92289
88 1 28.938 6.07889 3.84222 28.938 6.07889 3.84222
89 2 30.0436 7.24096 5.67012 30.0436 7.24096 5.67012
90 2 31.0941 6.07223 2.64406 31.0941 6.07223 2.64406
91 1 31.0784 50.2195 1.99183 31.0784 0.814951 1.99183
92 2 43.9861 4.26316 -4.11332 43.9861 4.26316 -4.11332
93 2 42.929 6.54674 -5.53718 42.929 6.54674 -5.53718
94 1 45.4691 6.06553 -5.01163 45.4691 6.06553 -5.01163
95 2 46.8941 6.02705 -2.90759 46.8941 6.02705 -2.90759
96 2 47.7799 6.19075 -6.08454 47.7799 6.19075 -6.08454
97 1 48.3187 4.36067 -4.25347 48.3187 4.36067 -4.25347
98 2 49.3476 4.40586 -1.99989 49.3476 4.40586 -1.99989
99 2 50.6665 4.34701 -5.00123 50.6665 4.34701 -5.00123
100 1 50.859 5.96833 -3.13121 50.859 5.96833 -3.13121
101 2 52.3094 5.85866 -1.10473 52.3094 5.85866 -1.10473
102 2 53.0374 5.89173 -4.28115 53.0374 5.89173 -4.28115
103 1 53.6874 4.24512 -2.52303 53.6874 4.24512 -2.52303
104 2 55.1373 4.2424 -0.48189 55.1373 4.2424 -0.48189
105 2 55.779 4.25235 -3.72603 55.779 4.25235 -3.72603
106 1 56.5269 5.86193 -1.91561 56.5269 5.86193 -1.91561
107 2 -3.23472 5.79028 0.158205 58.0623 5.79028 0.158205
108 2 -2.47369 5.91237 -3.09789 58.8234 5.91237 -3.09789
109 1 -1.99591 7.49629 -1.09923 -1.99591 7.49629 -1.09923
110 2 -0.501735 7.64636 0.883972 -0.501735 7.64636 0.883972
111 2 0.263397 7.57596 -2.22155 0.263397 7.57596 -2.22155
112 1 0.828123 9.21645 -0.508536 0.828123 9.21645 -0.508536
113 2 2.60932 9.33747 1.25199 2.60932 9.33747 1.25199
114 2 2.81066 9.11546 -2.05459 2.81066 9.11546 -2.05459
115 1 3.59653 7.6091 -0.271567 3.59653 7.6091 -0.271567
116 2 5.14446 7.67142 1.59652 5.14446 7.67142 1.59652
117 2 5.79218 7.50113 -1.54179 5.79218 7.50113 -1.54179
118 1 6.35013 9.22185 0.100898 6.35013 9.22185 0.100898
119 2 7.92976 9.22162 2.10192 7.92976 9.22162 2.10192
120 2 8.62126 9.18329 -1.09956 8.62126 9.18329 -1.09956
121 1 9.15572 7.60182 0.632303 9.15572 7.60182 0.632303
122 2 10.7495 7.67023 2.56809 10.7495 7.67023 2.56809
123 2 11.2297 7.62788 -0.678319 11.2297 7.62788 -0.678319
124 1 11.9381 9.27691 1.12202 11.9381 9.27691 1.12202
125 2 13.4802 9.04038 3.24828 13.4802 9.04038 3.24828
126 2 14.3198 9.51019 0.00938339 14.3198 9.51019 0.00938339
127 1 14.8061 7.66935 1.61892 14.8061 7.66935 1.61892
128 2 16.3628 7.47176 3.52065 16.3628 7.47176 3.52065
129 2 17.1202 7.56312 0.405987 17.1202 7.56312 0.405987
130 1 17.569 9.32026 2.19316 17.569 9.32026 2.19316
131 2 19.0544 8.99204 4.19305 19.0544 8.99204 4.19305
132 2 19.6938 9.47356 0.906181 19.6938 9.47356 0.906181
133 1 20.4742 7.74295 2.57121 20.4742 7.74295 2.57121
134 2 22.1875 7.59839 4.38267 22.1875 7.59839 4.38267
135 2 22.5749 7.78681 1.13057 22.5749 7.78681 1.13057
136 1 23.2784 9.25048 2.97275 23.2784 9.25048 2.97275
137 2 24.6831 9.00742 4.9738 24.6831 9.00742 4.9738
138 2 25.4129 9.51731 1.7893 25.4129 9.51731 1.7893
139 1 25.9769 7.70368 3.35235 25.9769 7.70368 3.35235
140 2 27.4282 7.59611 5.36024 27.4282 7.59611 5.36024
141 2 28.2863 7.93842 2.24094 28.2863 7.93842 2.24094
142 1 28.8406 9.39895 4.33123 28.8406 9.39895 4.33123
143 2 30.9777 9.93079 5.71939 30.9777 9.93079 5.71939
144 2 30.6425 9.21809 2.5185 30.6425 9.21809 2.5185
145 1 31.8733 7.98896 4.13843 31.8733 7.98896 4.13843
146 2 44.4132 7.53403 -3.27922 44.4132 7.53403 -3.27922
147 2 45.1717 7.77877 -6.66141 45.1717 7.77877 -6.66141
148 1 45.4364 9.36334 -4.6401 45.4364 9.36334 -4.6401
149 2 46.8691 9.15852 -2.60045 46.8691 9.15852 -2.60045
150 2 47.7024 9.50173 -5.84613 47.7024 9.50173 -5.84613
151 1 48.2208 7.68886 -4.14424 48.2208 7.68886 -4.14424
152 2 49.5579 7.69687 -1.91322 49.5579 7.69687 -1.91322
153 2 50.4344 7.60924 -5.08208 50.4344 7.60924 -5.08208
154 1 50.9261 9.30159 -3.32205 50.9261 9.30159 -3.32205
155 2 52.3106 9.22172 -1.15218 52.3106 9.22172 -1.15218
156 2 53.13 9.11135 -4.38777 53.13 9.11135 -4.38777
157 1 53.6427 7.51392 -2.43523 53.6427 7.51392 -2.43523
158 2 55.1628 7.50248 -0.543742 55.1628 7.50248 -0.543742
159 2 55.8253 7.54185 -3.70019 55.8253 7.54185 -3.70019
160 1 56.5334 9.18331 -1.90827 56.5334 9.18331 -1.90827
161 2 -3.31786 9.28703 0.148279 57.9792 9.28703 0.148279
162 2 -2.64466 8.99166 -3.18529 58.6524 8.99166 -3.18529
163 1 -2.00639 10.8255 -1.44481 -2.00639 10.8255 -1.44481
164 2 -0.391962 11.1218 0.492551 -0.391962 11.1218 0.492551
165 2 0.225918 10.6567 -2.70866 0.225918 10.6567 -2.70866
166 1 0.860182 12.4601 -1.2116 0.860182 12.4601 -1.2116
167 2 2.35809 12.6095 0.759062 2.35809 12.6095 0.759062
168 2 3.1384 12.3053 -2.40505 3.1384 12.3053 -2.40505
169 1 3.63937 10.8601 -0.486578 3.63937 10.8601 -0.486578
170 2 5.2226 10.8789 1.42262 5.2226 10.8789 1.42262
171 2 5.75679 10.6624 -1.79209 5.75679 10.6624 -1.79209
172 1 6.4491 12.4964 -0.114188 6.4491 12.4964 -0.114188
173 2 7.7455 12.5157 1.90167 7.7455 12.5157 1.90167
174 2 8.65029 12.5405 -1.15614 8.65029 12.5405 -1.15614
175 1 9.166 10.9023 0.722089 9.166 10.9023 0.722089
176 2 10.5646 10.6508 2.83643 10.5646 10.6508 2.83643
177 2 11.3427 11.0993 -0.397433 11.3427 11.0993 -0.397433
178 1 11.9796 12.5401 1.66606 11.9796 12.5401 1.66606
179 2 13.4825 12.5102 3.62773 13.4825 12.5102 3.62773
180 2 14.1609 12.6526 0.411868 14.1609 12.6526 0.411868
181 1 14.7004 10.8524 2.07285 14.7004 10.8524 2.07285
182 2 16.431 10.7371 3.99522 16.431 10.7371 3.99522
183 2 16.8246 11.2285 0.812882 16.8246 11.2285 0.812882
184 1 17.4029 12.567 2.78711 17.4029 12.567 2.78711
185 2 19.1221 12.496 4.5177 19.1221 12.496 4.5177
186 2 19.5162 12.6916 1.25677 19.5162 12.6916 1.25677
187 1 20.2678 10.923 2.89595 20.2678 10.923 2.89595
188 2 22.0276 10.6984 4.74823 22.0276 10.6984 4.74823
189 2 22.3657 11.0896 1.4446 22.3657 11.0896 1.4446
190 1 23.1772 12.5577 3.43293 23.1772 12.5577 3.43293
191 2 24.9519 12.7796 5.21779 24.9519 12.7796 5.21779
192 2 25.21 12.518 1.93922 25.21 12.518 1.93922
193 1 26.0245 10.9501 3.70868 26.0245 10.9501 3.70868
194 2 27.5931 11.1184 5.58681 27.5931 11.1184 5.58681
195 2 28.1017 10.9029 2.34965 28.1017 10.9029 2.34965
196 1 28.7756 12.66 4.0756 28.7756 12.66 4.0756
197 2 30.9577 12.8909 5.34531 30.9577 12.8909 5.34531
198 2 30.4303 12.6112 2.19078 30.4303 12.6112 2.19078
199 1 31.7537 11.2324 3.72777 31.7537 11.2324 3.72777
200 2 44.0454 11.1011 -3.40908 44.0454 11.1011 -3.40908
201 2 44.9092 10.9316 -6.51797 44.9092 10.9316 -6.51797
202 1 45.4964 12.5559 -4.80869 45.4964 12.5559 -4.80869
203 2 46.696 12.6267 -2.66263 46.696 12.6267 -2.66263
204 2 47.7524 12.6413 -5.73477 47.7524 12.6413 -5.73477
205 1 48.1652 10.9924 -3.89602 48.1652 10.9924 -3.89602
206 2 49.6596 10.9874 -1.96129 49.6596 10.9874 -1.96129
207 2 50.3325 10.8709 -5.13015 50.3325 10.8709 -5.13015
208 1 50.8597 12.594 -3.41292 50.8597 12.594 -3.41292
209 2 52.3619 12.5594 -1.31382 52.3619 12.5594 -1.31382
210 2 53.1409 12.603 -4.39868 53.1409 12.603 -4.39868
211 1 53.7054 10.8909 -2.60357 53.7054 10.8909 -2.60357
212 2 55.2151 10.8144 -0.568685 55.2151 10.8144 -0.568685
213 2 55.9552 10.8114 -3.76826 55.9552 10.8114 -3.76826
214 1 56.4697 12.4991 -1.91199 56.4697 12.4991 -1.91199
215 2 -3.12459 12.6108 -0.00476728 58.1725 12.6108 -0.00476728
216 2 -2.79385 12.3997 -3.32711 58.5032 12.3997 -3.32711
217 1 -2.00993 14.1771 -1.7193 -2.00993 14.1771 -1.7193
218 2 -0.391411 14.1685 0.16107 -0.391411 14.1685 0.16107
219 2 0.10206 14.0988 -2.98645 0.10206 14.0988 -2.98645
220 1 0.797894 15.7942 -1.25939 0.797894 15.7942 -1.25939
221 2 2.50058 15.6614 0.67361 2.50058 15.6614 0.67361
222 2 2.94716 15.6713 -2.5321 2.94716 15.6713 -2.5321
223 1 3.79182 14.0217 -0.781038 3.79182 14.0217 -0.781038
224 2 5.16488 14.0632 1.22275 5.16488 14.0632 1.22275
225 2 5.87437 14.0438 -2.00371 5.87437 14.0438 -2.00371
226 1 6.52423 15.7199 -0.172537 6.52423 15.7199 -0.172537
227 2 7.93332 15.6458 2.10143 7.93332 15.6458 2.10143
228 2 8.80178 15.8245 -1.08537 8.80178 15.8245 -1.08537
229 1 9.24894 14.0753 0.744083 9.24894 14.0753 0.744083
230 2 10.6124 14.0978 2.95059 10.6124 14.0978 2.95059
231 2 11.5461 14.1723 -0.218025 11.5461 14.1723 -0.218025
232 1 11.9102 15.8675 1.6889 11.9102 15.8675 1.6889
233 2 13.3082 15.8023 3.6646 13.3082 15.8023 3.6646
234 2 14.1209 15.9468 0.537427 14.1209 15.9468 0.537427
235 1 14.6836 14.2066 2.28707 14.6836 14.2066 2.28707
236 2 16.1402 14.2605 4.36885 16.1402 14.2605 4.36885
237 2 16.8299 14.3557 1.07621 16.8299 14.3557 1.07621
238 1 17.5003 15.8075 3.01749 17.5003 15.8075 3.01749
239 2 19.3951 15.7798 4.64308 19.3951 15.7798 4.64308
240 2 19.4099 15.8203 1.3455 19.4099 15.8203 1.3455
241 1 20.2796 14.14 3.051 20.2796 14.14 3.051
242 2 22.0212 14.1743 4.88328 22.0212 14.1743 4.88328
243 2 22.3739 14.2431 1.68439 22.3739 14.2431 1.68439
244 1 23.1375 15.9059 3.38713 23.1375 15.9059 3.38713
245 2 24.9099 15.9185 5.15344 24.9099 15.9185 5.15344
246 2 25.024 15.9076 1.87718 25.024 15.9076 1.87718
247 1 26.0535 14.2788 3.58327 26.0535 14.2788 3.58327
248 2 27.6693 14.4766 5.44233 27.6693 14.4766 5.44233
249 2 28.0579 14.184 2.16535 28.0579 14.184 2.16535
250 1 28.8296 15.9968 3.73609 28.8296 15.9968 3.73609
251 2 30.8429 15.7976 5.22019 30.8429 15.7976 5.22019
252 2 30.4961 16.0199 2.03258 30.4961 16.0199 2.03258
253 1 31.6558 14.3371 3.42005 31.6558 14.3371 3.42005
254 2 43.6135 14.0888 -4.30704 43.6135 14.0888 -4.30704
255 2 45.2035 14.2195 -6.6744 45.2035 14.2195 -6.6744
256 1 45.4244 15.8006 -4.81674 45.4244 15.8006 -4.81674
257 2 46.8833 16.0143 -2.73151 46.8833 16.0143 -2.73151
258 2 47.6456 15.6488 -5.96166 47.6456 15.6488 -5.96166
259 1 48.1128 14.232 -3.94514 48.1128 14.232 -3.94514
260 2 49.4553 14.1075 -1.89299 49.4553 14.1075 -1.89299
261 2 50.3599 14.3073 -5.04012 50.3599 14.3073 -5.04012
262 1 50.8832 15.8459 -3.0535 50.8832 15.8459 -3.0535
263 2 52.6152 15.954 -1.13755 52.6152 15.954 -1.13755
264 2 53.0852 15.8966 -4.36902 53.0852 15.8966 -4.36902
265 1 53.717 14.1825 -2.5994 53.717 14.1825 -2.5994
266 2 55.1014 14.1125 -0.614378 55.1014 14.1125 -0.614378
267 2 55.992 14.1154 -3.81476 55.992 14.1154 -3.81476
268 1 56.5069 15.7599 -2.03898 56.5069 15.7599 -2.03898
269 2 -3.02434 15.8648 -0.242748 58.2727 15.8648 -0.242748
270 2 -2.83325 15.7892 -3.51413 58.4638 15.7892 -3.51413
271 1 -1.9689 17.4216 -1.9278 -1.9689 17.4216 -1.9278
272 2 -0.507455 17.3975 0.0876534 -0.507455 17.3975 0.0876534
273 2 0.260357 17.4423 -3.07284 0.260357 17.4423 -3.07284
274 1 0.783852 19.0442 -1.24411 0.783852 19.0442 -1.24411
275 2 2.57599 19.1795 0.685652 2.57599 19.1795 0.685652
276 2 2.959 18.8601 -2.52775 2.959 18.8601 -2.52775
277 1 3.74402 17.3974 -0.658541 3.74402 17.3974 -0.658541
278 2 5.30095 17.3066 1.43637 5.30095 17.3066 1.43637
279 2 5.86069 17.3928 -1.8957 5.86069 17.3928 -1.8957
280 1 6.41562 18.9961 0.0423492 6.41562 18.9961 0.0423492
281 2 7.77024 19.2038 2.10673 7.77024 19.2038 2.10673
282 2 8.69724 18.9636 -1.03876 8.69724 18.9636 -1.03876
283 1 9.22255 17.4159 0.933864 9.22255 17.4159 0.933864
284 2 10.5124 17.4509 3.06976 10.5124 17.4509 3.06976
285 2 11.4563 17.5391 -0.0599764 11.4563 17.5391 -0.0599764
286 1 11.8165 19.1073 1.87349 11.8165 19.1073 1.87349
287 2 13.5956 19.1 3.81857 13.5956 19.1 3.81857
288 2 13.9373 19.0349 0.594582 13.9373 19.0349 0.594582
289 1 14.7424 17.469 2.32214 14.7424 17.469 2.32214
290 2 16.3384 17.6735 4.20184 16.3384 17.6735 4.20184
291 2 16.809 17.2596 0.992717 16.809 17.2596 0.992717
292 1 17.5241 19.0664 2.49053 17.5241 19.0664 2.49053
293 2 19.309 19.2371 4.36286 19.309 19.2371 4.36286
294 2 19.6284 18.9291 1.12516 19.6284 18.9291 1.12516
295 1 20.3218 17.4838 3.03747 20.3218 17.4838 3.03747
296 2 22.1234 17.7472 4.77787 22.1234 17.7472 4.77787
297 2 22.3048 17.4002 1.47617 22.3048 17.4002 1.47617
298 1 23.1636 19.2266 3.01273 23.1636 19.2266 3.01273
299 2 24.8347 19.318 4.89065 24.8347 19.318 4.89065
300 2 25.2375 19.1868 1.69149 25.2375 19.1868 1.69149
301 1 26.0785 17.6116 3.57633 26.0785 17.6116 3.57633
302 2 27.9299 17.7954 5.23136 27.9299 17.7954 5.23136
303 2 27.9004 17.3612 1.98074 27.9004 17.3612 1.98074
304 1 28.8803 19.1723 3.38068 28.8803 19.1723 3.38068
305 2 30.624 19.2616 5.06224 30.624 19.2616 5.06224
306 2 30.8445 19.1438 1.83146 30.8445 19.1438 1.83146
307 1 31.7489 17.5149 3.62652 31.7489 17.5149 3.62652
308 2 44.0973 17.6539 -3.93393 44.0973 17.6539 -3.93393
309 2 44.876 17.2206 -6.77185 44.876 17.2206 -6.77185
310 1 45.4934 19.1228 -5.28358 45.4934 19.1228 -5.28358
311 2 46.8312 19.2245 -3.16941 46.8312 19.2245 -3.16941
312 2 47.802 18.9931 -6.19295 47.802 18.9931 -6.19295
313 1 48.2146 17.4711 -4.24942 48.2146 17.4711 -4.24942
314 2 49.5962 17.8565 -2.23653 49.5962 17.8565 -2.23653
315 2 50.5215 17.1633 -5.26471 50.5215 17.1633 -5.26471
316 1 51.0777 19.1125 -3.79484 51.0777 19.1125 -3.79484
317 2 52.514 19.3173 -1.61226 52.514 19.3173 -1.61226
318 2 53.3396 18.7226 -4.75249 53.3396 18.7226 -4.75249
319 1 53.7822 17.4347 -2.67546 53.7822 17.4347 -2.67546
320 2 55.3473 17.629 -0.78082 55.3473 17.629 -0.78082
321 2 55.8693 17.3122 -4.04555 55.8693 17.3122 -4.04555
322 1 56.6339 19.1443 -2.4576 56.6339 19.1443 -2.4576
323 2 -3.02437 19.0886 -0.563659 58.2727 19.0886 -0.563659
324 2 -2.49179 19.0272 -3.68432 58.8053 19.0272 -3.68432
325 1 -1.89945 20.8026 -2.05307 -1.89945 20.8026 -2.05307
326 2 -0.316807 20.9759 -0.0811561 -0.316807 20.9759 -0.0811561
327 2 0.327956 20.6139 -3.20682 0.327956 20.6139 -3.20682
328 1 0.941238 22.4557 -1.65223 0.941238 22.4557 -1.65223
329 2 2.2564 22.3115 0.42639 2.2564 22.3115 0.42639
330 2 3.22534 22.4457 -2.67726 3.22534 22.4457 -2.67726
331 1 3.67344 20.7902 -0.983563 3.67344 20.7902 -0.983563
332 2 4.94908 20.8321 1.12047 4.94908 20.8321 1.12047
333 2 5.97277 20.5663 -1.9762 5.97277 20.5663 -1.9762
334 1 6.45596 22.3512 -0.36083 6.45596 22.3512 -0.36083
335 2 7.83523 22.5086 1.75232 7.83523 22.5086 1.75232
336 2 8.74592 22.3141 -1.2772 8.74592 22.3141 -1.2772
337 1 9.22396 20.6996 0.632149 9.22396 20.6996 0.632149
338 2 10.5394 20.9159 2.78018 10.5394 20.9159 2.78018
339 2 11.5885 20.4923 -0.337712 11.5885 20.4923 -0.337712
340 1 11.9743 22.2958 1.29711 11.9743 22.2958 1.29711
341 2 13.4136 22.5406 3.38056 13.4136 22.5406 3.38056
342 2 14.2458 22.2987 0.221521 14.2458 22.2987 0.221521
343 1 14.7654 20.8089 2.26124 14.7654 20.8089 2.26124
344 2 16.4903 20.722 3.99307 16.4903 20.722 3.99307
345 2 16.6934 20.6997 0.801348 16.6934 20.6997 0.801348
346 1 17.4913 22.3419 2.43013 17.4913 22.3419 2.43013
347 2 19.1105 22.4621 4.31213 19.1105 22.4621 4.31213
348 2 19.5821 22.2822 1.02197 19.5821 22.2822 1.02197
349 1 20.3919 20.7668 2.81135 20.3919 20.7668 2.81135
350 2 22.1985 20.8675 4.54702 22.1985 20.8675 4.54702
351 2 22.354 20.7635 1.2437 22.354 20.7635 1.2437
352 1 23.2154 22.4046 2.95627 23.2154 22.4046 2.95627
353 2 24.8309 22.526 4.84684 24.8309 22.526 4.84684
354 2 25.3454 22.5252 1.58948 25.3454 22.5252 1.58948
355 1 26.061 20.8783 3.35108 26.061 20.8783 3.35108
356 2 27.9618 20.8713 4.98153 27.9618 20.8713 4.98153
357 2 27.969 20.9071 1.7811 27.969 20.9071 1.7811
358 1 28.9291 22.5259 3.29938 28.9291 22.5259 3.29938
359 2 30.7738 22.6236 4.88084 30.7738 22.6236 4.88084
360 2 30.8393 22.4488 1.69535 30.8393 22.4488 1.69535
361 1 31.8633 20.8573 3.44793 31.8633 20.8573 3.44793
362 2 44.2858 20.894 -3.99321 44.2858 20.894 -3.99321
363 2 44.4417 20.7222 -6.99921 44.4417 20.7222 -6.99921
364 1 45.5296 22.3997 -5.5235 45.5296 22.3997 -5.5235
365 2 46.7609 22.3747 -3.33839 46.7609 22.3747 -3.33839
366 2 47.8536 22.4536 -6.39893 47.8536 22.4536 -6.39893
367 1 48.292 20.739 -4.4528 48.292 20.739 -4.4528
368 2 49.7845 20.793 -2.50214 49.7845 20.793 -2.50214
369 2 50.4463 20.5817 -5.66823 50.4463 20.5817 -5.66823
370 1 51.0688 22.4404 -3.94102 51.0688 22.4404 -3.94102
371 2 52.7162 22.7533 -2.07518 52.7162 22.7533 -2.07518
372 2 53.1824 22.2053 -5.19031 53.1824 22.2053 -5.19031
373 1 53.858 20.7015 -3.19337 53.858 20.7015 -3.19337
374 2 55.4211 20.9698 -1.31343 55.4211 20.9698 -1.31343
375 2 55.9811 20.5716 -4.46125 55.9811 20.5716 -4.46125
376 1 56.7228 22.4348 -2.87112 56.7228 22.4348 -2.87112
377 2 -3.18317 22.515 -0.80853 58.1139 22.515 -0.80853
378 2 -2.34671 22.353 -3.97642 58.9504 22.353 -3.97642
379 1 -1.8749 24.0795 -2.27923 -1.8749 24.0795 -2.27923
380 2 -0.611766 23.8706 -0.234763 -0.611766 23.8706 -0.234763
381 2 0.478161 24.1723 -3.36007 0.478161 24.1723 -3.36007
382 1 0.847455 25.6772 -1.40168 0.847455 25.6772 -1.40168
383 2 2.32182 25.5823 0.560911 2.32182 25.5823 0.560911
384 2 3.09583 25.7751 -2.54711 3.09583 25.7751 -2.54711
385 1 3.6434 24.0398 -0.87934 3.6434 24.0398 -0.87934
386 2 5.12069 23.8682 1.06258 5.12069 23.8682 1.06258
387 2 5.81 24.0082 -2.04038 5.81 24.0082 -2.04038
388 1 6.42424 25.5811 -0.262382 6.42424 25.5811 -0.262382
389 2 7.84094 25.5475 1.82896 7.84094 25.5475 1.82896
390 2 8.60354 25.6993 -1.43993 8.60354 25.6993 -1.43993
391 1 9.18313 23.99 0.383113 9.18313 23.99 0.383113
392 2 10.5656 24.0732 2.45923 10.5656 24.0732 2.45923
393 2 11.4921 24.0509 -0.645465 11.4921 24.0509 -0.645465
394 1 11.9824 25.6147 1.27544 11.9824 25.6147 1.27544
395 2 13.4706 25.8967 3.22567 13.4706 25.8967 3.22567
396 2 14.1897 25.4667 0.0351589 14.1897 25.4667 0.0351589
397 1 14.7217 24.0423 1.94691 14.7217 24.0423 1.94691
398 2 16.3949 24.3072 3.83331 16.3949 24.3072 3.83331
399 2 16.8404 23.8853 0.574516 16.8404 23.8853 0.574516
400 1 17.5976 25.6126 2.1697 17.5976 25.6126 2.1697
401 2 19.1877 25.8511 4.18748 19.1877 25.8511 4.18748
402 2 19.6863 25.5479 0.865489 19.6863 25.5479 0.865489
403 1 20.3815 24.0576 2.82103 20.3815 24.0576 2.82103
404 2 22.0557 24.0047 4.6081 22.0557 24.0047 4.6081
405 2 22.3264 24.0673 1.28996 22.3264 24.0673 1.28996
406 1 23.2551 25.7609 2.95032 23.2551 25.7609 2.95032
407 2 24.9193 25.8709 4.79516 24.9193 25.8709 4.79516
408 2 25.4052 25.7927 1.52438 25.4052 25.7927 1.52438
409 1 26.0064 24.219 3.27713 26.0064 24.219 3.27713
410 2 27.9281 24.0482 4.94468 27.9281 24.0482 4.94468
411 2 27.9498 24.1905 1.68735 27.9498 24.1905 1.68735
412 1 28.97 25.7277 3.39302 28.97 25.7277 3.39302
413 2 30.8769 25.784 4.93305 30.8769 25.784 4.93305
414 2 30.928 25.8041 1.72298 30.928 25.8041 1.72298
415 1 31.9488 24.1708 3.28666 31.9488 24.1708 3.28666
416 2 43.9568 24.1118 -4.63054 43.9568 24.1118 -4.63054
417 2 45.4614 23.9897 -7.37404 45.4614 23.9897 -7.37404
418 1 45.5784 25.7102 -5.55892 45.5784 25.7102 -5.55892
419 2 46.8171 25.7861 -3.32834 46.8171 25.7861 -3.32834
420 2 47.8748 25.6198 -6.39767 47.8748 25.6198 -6.39767
421 1 48.2233 24.0959 -4.52129 48.2233 24.0959 -4.52129
422 2 49.7283 24.1929 -2.61363 49.7283 24.1929 -2.61363
423 2 50.3987 24.0799 -5.7879 50.3987 24.0799 -5.7879
424 1 51.048 25.7614 -3.98295 51.048 25.7614 -3.98295
425 2 52.7819 25.7623 -2.16252 52.7819 25.7623 -2.16252
426 2 53.18 25.751 -5.40567 53.18 25.751 -5.40567
427 1 53.9396 24.0598 -3.69382 53.9396 24.0598 -3.69382
428 2 55.3078 24.0674 -1.57002 55.3078 24.0674 -1.57002
429 2 56.2617 24.0877 -4.66137 56.2617 24.0877 -4.66137
430 1 56.6855 25.7469 -2.8299 56.6855 25.7469 -2.8299
431 2 -3.1112 25.7052 -0.742366 58.1859 25.7052 -0.742366
432 2 -2.55505 25.7554 -4.08226 58.742 25.7554 -4.08226
433 1 -1.88971 27.4395 -2.17471 -1.88971 27.4395 -2.17471
434 2 -0.429954 27.4124 -0.0995563 -0.429954 27.4124 -0.0995563
435 2 0.331716 27.4083 -3.13903 0.331716 27.4083 -3.13903
436 1 0.858746 29.0966 -1.38825 0.858746 29.0966 -1.38825
437 2 2.34439 28.9274 0.620893 2.34439 28.9274 0.620893
438 2 3.15603 28.9502 -2.49242 3.15603 28.9502 -2.49242
439 1 3.63413 27.2813 -0.657295 3.63413 27.2813 -0.657295
440 2 5.29405 27.0977 1.2652 5.29405 27.0977 1.2652
441 2 5.72338 27.2473 -1.97584 5.72338 27.2473 -1.97584
442 1 6.30317 28.8891 -0.180137 6.30317 28.8891 -0.180137
443 2 7.79091 28.8406 1.87118 7.79091 28.8406 1.87118
444 2 8.55753 28.8138 -1.30868 8.55753 28.8138 -1.30868
445 1 9.07568 27.2289 0.444041 9.07568 27.2289 0.444041
446 2 10.5644 27.3276 2.56063 10.5644 27.3276 2.56063
447 2 11.4929 27.2305 -0.474889 11.4929 27.2305 -0.474889
448 1 11.8833 28.9614 1.15898 11.8833 28.9614 1.15898
449 2 13.6617 29.0297 3.01759 13.6617 29.0297 3.01759
450 2 14.0255 28.8663 -0.187965 14.0255 28.8663 -0.187965
451 1 14.7822 27.2951 1.56848 14.7822 27.2951 1.56848
452 2 16.4824 27.4395 3.44051 16.4824 27.4395 3.44051
453 2 16.9682 26.939 0.146187 16.9682 26.939 0.146187
454 1 17.6301 28.8624 1.64913 17.6301 28.8624 1.64913
455 2 18.9529 28.8981 3.77254 18.9529 28.8981 3.77254
456 2 19.9065 28.9384 0.695696 19.9065 28.9384 0.695696
457 1 20.367 27.2724 2.45972 20.367 27.2724 2.45972
458 2 22.0621 27.3631 4.32796 22.0621 27.3631 4.32796
459 2 22.6379 27.266 1.20259 22.6379 27.266 1.20259
460 1 23.1898 28.9987 2.82983 23.1898 28.9987 2.82983
461 2 24.8743 29.1561 4.65867 24.8743 29.1561 4.65867
462 2 25.27 28.9416 1.44034 25.27 28.9416 1.44034
463 1 26.1206 27.4727 3.27642 26.1206 27.4727 3.27642
464 2 27.8933 27.4516 4.91759 27.8933 27.4516 4.91759
465 2 28.0511 27.3281 1.71997 28.0511 27.3281 1.71997
466 1 29.0246 28.9801 3.29867 29.0246 28.9801 3.29867
467 2 30.9916 29.0845 4.86739 30.9916 29.0845 4.86739
468 2 30.8702 28.9737 1.61851 30.8702 28.9737 1.61851
469 1 31.9501 27.4174 3.31633 31.9501 27.4174 3.31633
470 2 44.247 27.5141 -4.30772 44.247 27.5141 -4.30772
471 2 44.9453 27.4691 -7.28462 44.9453 27.4691 -7.28462
472 1 45.6781 29.0116 -5.54305 45.6781 29.0116 -5.54305
473 2 46.8729 29.191 -3.36879 46.8729 29.191 -3.36879
474 2 47.9879 28.8739 -6.50297 47.9879 28.8739 -6.50297
475 1 48.339 27.3832 -4.53378 48.339 27.3832 -4.53378
476 2 49.8589 27.5418 -2.66474 49.8589 27.5418 -2.66474
477 2 50.536 27.3061 -5.87772 50.536 27.3061 -5.87772
478 1 51.0684 29.088 -4.12073 51.0684 29.088 -4.12073
479 2 52.5531 28.8887 -2.01306 52.5531 28.8887 -2.01306
480 2 53.3038 29.3121 -5.10813 53.3038 29.3121 -5.10813
481 1 53.942 27.3931 -3.60134 53.942 27.3931 -3.60134
482 2 55.4012 27.3563 -1.55819 55.4012 27.3563 -1.55819
483 2 56.1447 27.3061 -4.74661 56.1447 27.3061 -4.74661
484 1 56.5962 29.0738 -3.01551 56.5962 29.0738 -3.01551
485 2 -3.33176 28.9492 -0.935741 57.9653 28.9492 -0.935741
486 2 -2.326 29.0908 -3.94873 58.9711 29.0908 -3.94873
487 1 -1.94739 30.6287 -2.07534 -1.94739 30.6287 -2.07534
488 2 -0.479586 30.612 -0.00129447 -0.479586 30.612 -0.00129447
489 2 0.313224 30.7183 -3.16795 0.313224 30.7183 -3.16795
490 1 0.916355 32.2705 -1.36748 0.916355 32.2705 -1.36748
491 2 2.32048 32.1543 0.683704 2.32048 32.1543 0.683704
492 2 3.16959 32.2408 -2.50207 3.16959 32.2408 -2.50207
493 1 3.56313 30.606 -0.716456 3.56313 30.606 -0.716456
494 2 5.03293 30.4887 1.24111 5.03293 30.4887 1.24111
495 2 5.65572 30.5678 -1.96988 5.65572 30.5678 -1.96988
496 1 6.31413 32.1476 -0.247711 6.31413 32.1476 -0.247711
497 2 7.61505 32.1138 1.89641 7.61505 32.1138 1.89641
498 2 8.61167 32.2651 -1.23039 8.61167 32.2651 -1.23039
499 1 9.07446 30.5586 0.530017 9.07446 30.5586 0.530017
500 2 10.6028 30.6301 2.50964 10.6028 30.6301 2.50964
501 2 11.4529 30.5098 -0.760661 11.4529 30.5098 -0.760661
502 1 11.9108 32.1737 1.02912 11.9108 32.1737 1.02912
503 2 13.6044 32.1646 3.09357 13.6044 32.1646 3.09357
504 2 14.032 32.4725 -0.183329 14.032 32.4725 -0.183329
505 1 14.7497 30.7091 1.4537 14.7497 30.7091 1.4537
506 2 16.4305 30.4164 3.21284 16.4305 30.4164 3.21284
507 2 16.9026 30.7399 0.089708 16.9026 30.7399 0.089708
508 1 17.5669 32.3192 1.97214 17.5669 32.3192 1.97214
509 2 19.0561 32.272 4.00404 19.0561 32.272 4.00404
510 2 19.7315 32.3132 0.751775 19.7315 32.3132 0.751775
511 1 20.2671 30.6118 2.48574 20.2671 30.6118 2.48574
512 2 21.9154 30.5112 4.28922 21.9154 30.5112 4.28922
513 2 22.4111 30.6207 1.08415 22.4111 30.6207 1.08415
514 1 23.1923 32.2356 2.83091 23.1923 32.2356 2.83091
515 2 24.962 32.3006 4.64664 24.962 32.3006 4.64664
516 2 25.1903 32.2866 1.34536 25.1903 32.2866 1.34536
517 1 26.124 30.6245 3.04957 26.124 30.6245 3.04957
518 2 27.9064 30.6676 4.87088 27.9064 30.6676 4.87088
519 2 28.1273 30.5566 1.55513 28.1273 30.5566 1.55513
520 1 28.9575 32.2016 3.22615 28.9575 32.2016 3.22615
521 2 30.9936 32.3234 4.67505 30.9936 32.3234 4.67505
522 2 30.7324 32.0423 1.5723 30.7324 32.0423 1.5723
523 1 31.9531 30.6088 3.21087 31.9531 30.6088 3.21087
524 2 43.8222 30.6136 -4.76225 43.8222 30.6136 -4.76225
525 2 45.3632 30.6598 -7.36408 45.3632 30.6598 -7.36408
526 1 45.4132 32.3262 -5.4088 45.4132 32.3262 -5.4088
527 2 46.8119 32.1457 -3.41342 46.8119 32.1457 -3.41342
528 2 47.7609 32.5523 -6.47988 47.7609 32.5523 -6.47988
529 1 48.2905 30.7128 -4.85595 48.2905 30.7128 -4.85595
530 2 49.7532 30.6444 -2.71996 49.7532 30.6444 -2.71996
531 2 50.6734 30.8714 -5.74014 50.6734 30.8714 -5.74014
532 1 51.0456 32.4207 -3.85619 51.0456 32.4207 -3.85619
533 2 52.4089 32.4987 -1.77334 52.4089 32.4987 -1.77334
534 2 53.2308 32.392 -4.90259 53.2308 32.392 -4.90259
535 1 53.6737 30.7532 -3.10242 53.6737 30.7532 -3.10242
536 2 55.5817 30.601 -1.33572 55.5817 30.601 -1.33572
537 2 55.7508 30.9782 -4.56573 55.7508 30.9782 -4.56573
538 1 56.5241 32.3933 -2.70257 56.5241 32.3933 -2.70257
539 2 -3.14718 32.4298 -0.724047 58.1499 32.4298 -0.724047
540 2 -2.57158 32.3011 -3.91763 58.7255 32.3011 -3.91763
541 1 -1.88881 34.058 -2.19825 -1.88881 34.058 -2.19825
542 2 -0.589048 33.8333 0.00405038 -0.589048 33.8333 0.00405038