ITEM: TIMESTEP
1951000
ITEM: NUMBER OF ATOMS
810
ITEM: BOX BOUNDS xy xz yz pp pp pp
8.0341777045796159e-01 6.1853019809465344e+01 9.6388325799228411e+00
8.0582000660415243e-01 5.0210394993394715e+01 0.0000000000000000e+00
-1.0000000000000000e+01 1.0000000000000000e+01 0.0000000000000000e+00
ITEM: ATOMS id type x y z xu yu zu
1 1 1.36136 0.981826 2.97788 1.36136 0.981826 2.97788
2 2 13.1329 50.357 4.34876 3.49409 0.952444 4.34876
3 2 3.11145 1.07522 1.09482 3.11145 1.07522 1.09482
4 1 4.51686 2.54657 2.70215 4.51686 2.54657 2.70215
5 2 6.70998 2.31629 3.92332 6.70998 2.31629 3.92332
6 2 6.14323 2.84528 0.729755 6.14323 2.84528 0.729755
7 1 16.7012 50.2678 1.87398 7.06232 0.863175 1.87398
8 2 18.9689 49.7831 2.77033 9.33008 0.37849 2.77033
9 2 8.58575 1.68179 -0.0772656 8.58575 1.68179 -0.0772656
10 1 10.2655 2.4255 1.60154 10.2655 2.4255 1.60154
11 2 12.4774 2.05531 2.41557 12.4774 2.05531 2.41557
12 2 11.6479 3.27871 -0.413349 11.6479 3.27871 -0.413349
13 1 12.69 1.00378 0.130525 12.69 1.00378 0.130525
14 2 24.7393 50.0777 0.826039 15.1005 0.673154 0.826039
15 2 13.7638 1.5908 -2.02327 13.7638 1.5908 -2.02327
16 1 15.656 2.79897 -0.503738 15.656 2.79897 -0.503738
17 2 17.9644 2.22697 0.451607 17.9644 2.22697 0.451607
18 2 17.1304 3.42206 -2.4868 17.1304 3.42206 -2.4868
19 1 18.1491 1.24623 -1.81503 18.1491 1.24623 -1.81503
20 2 20.4081 0.784314 -0.621093 20.4081 0.784314 -0.621093
21 2 19.7044 1.48821 -3.79221 19.7044 1.48821 -3.79221
22 1 21.3122 2.75483 -2.10333 21.3122 2.75483 -2.10333
23 2 23.5251 2.34301 -0.986123 23.5251 2.34301 -0.986123
24 2 22.9286 3.06764 -4.06167 22.9286 3.06764 -4.06167
25 1 24.0185 1.02869 -3.01312 24.0185 1.02869 -3.01312
26 2 25.9636 1.24082 -1.31936 25.9636 1.24082 -1.31936
27 2 25.911 0.825466 -4.61799 25.911 0.825466 -4.61799
28 1 27.2523 2.76138 -3.18188 27.2523 2.76138 -3.18188
29 2 29.1664 2.71055 -1.5223 29.1664 2.71055 -1.5223
30 2 29.2359 2.52831 -4.66445 29.2359 2.52831 -4.66445
31 1 39.5644 50.1386 -2.92737 29.9256 0.73399 -2.92737
32 2 31.4803 1.20055 -0.999817 31.4803 1.20055 -0.999817
33 2 41.8151 49.716 -4.0694 32.1763 0.311381 -4.0694
34 1 33.0291 2.50325 -2.76492 33.0291 2.50325 -2.76492
35 2 34.6022 3.02024 -0.776203 34.6022 3.02024 -0.776203
36 2 35.4051 2.11947 -3.78083 35.4051 2.11947 -3.78083
37 1 45.3038 50.2633 -1.57852 35.6649 0.8587 -1.57852
38 2 37.0755 1.63441 0.427758 37.0755 1.63441 0.427758
39 2 47.7118 49.5938 -2.18863 38.073 0.189262 -2.18863
40 1 38.8941 2.35499 -1.12736 38.8941 2.35499 -1.12736
41 2 40.0557 3.30052 0.986369 40.0557 3.30052 0.986369
42 2 41.2777 1.84407 -1.74594 41.2777 1.84407 -1.74594
43 1 41.1205 1.09778 0.799946 41.1205 1.09778 0.799946
44 2 42.5423 1.73961 2.82035 42.5423 1.73961 2.82035
45 2 53.1259 49.9795 -0.0328341 43.4871 0.574934 -0.0328341
46 1 44.2161 2.75643 1.14631 44.2161 2.75643 1.14631
47 2 45.7144 3.4981 3.05787 45.7144 3.4981 3.05787
48 2 46.5478 2.37145 0.172933 46.5478 2.37145 0.172933
49 1 46.7624 1.23357 2.47872 46.7624 1.23357 2.47872
50 2 48.5588 1.45806 4.29425 48.5588 1.45806 4.29425
51 2 49.0035 1.00144 1.16135 49.0035 1.00144 1.16135
52 1 50.0199 2.93155 2.64269 50.0199 2.93155 2.64269
53 2 51.9218 2.98734 4.40985 51.9218 2.98734 4.40985
54 2 52.0465 2.6325 1.15417 52.0465 2.6325 1.15417
55 1 1.78176 4.41297 2.69626 1.78176 4.41297 2.69626
56 2 3.70976 4.38857 4.37561 3.70976 4.38857 4.37561
57 2 3.83369 4.47281 1.10061 3.83369 4.47281 1.10061
58 1 4.97216 5.9979 2.83774 4.97216 5.9979 2.83774
59 2 7.02961 5.73154 4.34844 7.02961 5.73154 4.34844
60 2 6.83292 6.09935 1.12347 6.83292 6.09935 1.12347
61 1 7.6902 4.14926 2.44571 7.6902 4.14926 2.44571
62 2 9.96789 3.83713 3.64677 9.96789 3.83713 3.64677
63 2 9.37935 4.66654 0.606506 9.37935 4.66654 0.606506
64 1 10.7967 5.81363 2.38967 10.7967 5.81363 2.38967
65 2 13.1118 5.39551 3.35832 13.1118 5.39551 3.35832
66 2 12.3849 6.35281 0.416493 12.3849 6.35281 0.416493
67 1 13.411 4.22737 1.22952 13.411 4.22737 1.22952
68 2 15.7343 3.57246 1.95201 15.7343 3.57246 1.95201
69 2 14.6772 5.02341 -0.842345 14.6772 5.02341 -0.842345
70 1 16.4597 5.71164 0.894001 16.4597 5.71164 0.894001
71 2 19.0377 5.31659 1.5416 19.0377 5.31659 1.5416
72 2 17.6637 6.41047 -1.08637 17.6637 6.41047 -1.08637
73 1 18.917 4.31567 -0.799334 18.917 4.31567 -0.799334
74 2 21.2583 3.96335 0.140899 21.2583 3.96335 0.140899
75 2 20.2715 4.90191 -2.76334 20.2715 4.90191 -2.76334
76 1 22.083 6.06669 -1.23547 22.083 6.06669 -1.23547
77 2 24.4454 5.75963 -0.228538 24.4454 5.75963 -0.228538
78 2 23.6235 6.46816 -3.28222 23.6235 6.46816 -3.28222
79 1 24.5286 4.40676 -2.38924 24.5286 4.40676 -2.38924
80 2 26.7218 4.25272 -1.10927 26.7218 4.25272 -1.10927
81 2 26.1545 4.55617 -4.36735 26.1545 4.55617 -4.36735
82 1 27.7173 6.08394 -2.80387 27.7173 6.08394 -2.80387
83 2 29.7327 5.83984 -1.32262 29.7327 5.83984 -1.32262
84 2 29.5221 6.35285 -4.53008 29.5221 6.35285 -4.53008
85 1 30.3772 4.21442 -3.26692 30.3772 4.21442 -3.26692
86 2 32.1638 4.42283 -1.29347 32.1638 4.42283 -1.29347
87 2 32.4737 4.09529 -4.61221 32.4737 4.09529 -4.61221
88 1 33.5756 5.77369 -2.91815 33.5756 5.77369 -2.91815
89 2 35.4351 6.05159 -1.1173 35.4351 6.05159 -1.1173
90 2 35.6899 5.5643 -4.37649 35.6899 5.5643 -4.37649
91 1 36.3827 4.13693 -2.4473 36.3827 4.13693 -2.4473
92 2 37.8508 4.52698 -0.408061 37.8508 4.52698 -0.408061
93 2 38.7016 3.58721 -3.20978 38.7016 3.58721 -3.20978
94 1 39.4665 5.74078 -2.04787 39.4665 5.74078 -2.04787
95 2 40.9872 6.27765 -0.0699372 40.9872 6.27765 -0.0699372
96 2 41.7477 5.2707 -2.92903 41.7477 5.2707 -2.92903
97 1 41.974 4.12027 -0.65438 41.974 4.12027 -0.65438
98 2 43.0979 4.98992 1.46612 43.0979 4.98992 1.46612
99 2 44.4265 3.76554 -1.25711 44.4265 3.76554 -1.25711
100 1 45.0696 5.90682 -0.128316 45.0696 5.90682 -0.128316
101 2 46.3121 6.59216 1.89931 46.3121 6.59216 1.89931
102 2 47.4321 5.51197 -0.956174 47.4321 5.51197 -0.956174
103 1 47.4841 4.49248 1.42678 47.4841 4.49248 1.42678
104 2 49.0213 5.07692 3.37444 49.0213 5.07692 3.37444
105 2 49.634 3.99213 0.331247 49.634 3.99213 0.331247
106 1 50.5642 6.08212 1.64999 50.5642 6.08212 1.64999
107 2 52.1058 6.40378 3.74546 52.1058 6.40378 3.74546
108 2 52.7908 5.783 0.637946 52.7908 5.783 0.637946
109 1 2.26404 7.70193 2.16707 2.26404 7.70193 2.16707
110 2 3.75519 7.95084 4.07672 3.75519 7.95084 4.07672
111 2 4.55307 7.64118 0.93742 4.55307 7.64118 0.93742
112 1 5.3963 9.4645 2.4594 5.3963 9.4645 2.4594
113 2 7.32957 9.64918 4.15458 7.32957 9.64918 4.15458
114 2 7.53723 9.20875 0.928826 7.53723 9.20875 0.928826
115 1 8.17146 7.61059 2.73104 8.17146 7.61059 2.73104
116 2 10.2408 7.58056 4.22196 10.2408 7.58056 4.22196
117 2 9.97729 7.76703 0.916245 9.97729 7.76703 0.916245
118 1 11.3562 9.19622 2.66277 11.3562 9.19622 2.66277
119 2 13.4286 8.8076 4.07355 13.4286 8.8076 4.07355
120 2 13.1981 9.50214 0.837237 13.1981 9.50214 0.837237
121 1 13.9762 7.47742 2.07101 13.9762 7.47742 2.07101
122 2 16.2311 6.91866 3.0799 16.2311 6.91866 3.0799
123 2 15.5305 7.89476 0.107473 15.5305 7.89476 0.107473
124 1 17.1985 9.03717 1.8361 17.1985 9.03717 1.8361
125 2 19.6446 8.47215 2.70348 19.6446 8.47215 2.70348
126 2 18.5602 9.70348 -0.112632 18.5602 9.70348 -0.112632
127 1 19.6038 7.48417 0.37774 19.6038 7.48417 0.37774
128 2 21.8476 6.828 1.1017 21.8476 6.828 1.1017
129 2 21.0634 8.34106 -1.6286 21.0634 8.34106 -1.6286
130 1 22.7638 9.08668 0.141444 22.7638 9.08668 0.141444
131 2 25.1046 8.51454 0.802408 25.1046 8.51454 0.802408
132 2 24.0429 10.0321 -1.9377 24.0429 10.0321 -1.9377
133 1 25.1781 7.80873 -1.62096 25.1781 7.80873 -1.62096
134 2 27.4343 7.34491 -0.637265 27.4343 7.34491 -0.637265
135 2 26.7436 8.32297 -3.61997 26.7436 8.32297 -3.61997
136 1 28.2935 9.37256 -1.9551 28.2935 9.37256 -1.9551
137 2 30.4353 8.98896 -0.69809 30.4353 8.98896 -0.69809
138 2 30.022 9.84133 -3.86982 30.022 9.84133 -3.86982
139 1 30.9035 7.69855 -2.75995 30.9035 7.69855 -2.75995
140 2 33.0392 7.68484 -1.27439 33.0392 7.68484 -1.27439
141 2 32.8295 7.50168 -4.44535 32.8295 7.50168 -4.44535
142 1 34.0051 9.22533 -2.96127 34.0051 9.22533 -2.96127
143 2 36.0433 9.16886 -1.372 36.0433 9.16886 -1.372
144 2 35.9606 9.20371 -4.55589 35.9606 9.20371 -4.55589
145 1 36.796 7.50804 -2.91671 36.796 7.50804 -2.91671
146 2 38.5935 8.03505 -1.12268 38.5935 8.03505 -1.12268
147 2 39.0362 6.96419 -4.14645 39.0362 6.96419 -4.14645
148 1 40.1473 9.0924 -2.89826 40.1473 9.0924 -2.89826
149 2 41.7476 9.47656 -0.840944 41.7476 9.47656 -0.840944
150 2 42.3623 8.6621 -4.01382 42.3623 8.6621 -4.01382
151 1 42.6664 7.32142 -1.80061 42.6664 7.32142 -1.80061
152 2 43.9525 8.06513 0.296701 43.9525 8.06513 0.296701
153 2 44.9685 6.77217 -2.50531 44.9685 6.77217 -2.50531
154 1 45.799 9.10146 -1.30503 45.799 9.10146 -1.30503
155 2 47.1192 9.93765 0.738625 47.1192 9.93765 0.738625
156 2 48.0827 8.41673 -1.99302 48.0827 8.41673 -1.99302
157 1 48.1649 7.66335 0.336214 48.1649 7.66335 0.336214
158 2 49.598 8.30744 2.36543 49.598 8.30744 2.36543
159 2 50.5171 7.12798 -0.621624 50.5171 7.12798 -0.621624
160 1 51.2787 9.33188 0.679432 51.2787 9.33188 0.679432
161 2 52.6664 10.1056 2.65984 52.6664 10.1056 2.65984
162 2 53.6392 8.78537 -0.151508 53.6392 8.78537 -0.151508
163 1 2.95859 10.9695 0.923182 2.95859 10.9695 0.923182
164 2 4.1884 11.6301 2.98143 4.1884 11.6301 2.98143
165 2 5.27485 10.5677 0.108927 5.27485 10.5677 0.108927
166 1 6.02793 12.6816 1.40795 6.02793 12.6816 1.40795
167 2 7.61096 13.2172 3.34508 7.61096 13.2172 3.34508
168 2 8.34143 12.4224 0.412757 8.34143 12.4224 0.412757
169 1 8.67664 11.1245 2.46515 8.67664 11.1245 2.46515
170 2 10.4836 11.0369 4.27171 10.4836 11.0369 4.27171
171 2 10.7679 10.985 1.01015 10.7679 10.985 1.01015
172 1 11.9044 12.6384 2.69374 11.9044 12.6384 2.69374
173 2 13.7845 12.6022 4.26103 13.7845 12.6022 4.26103
174 2 13.8208 12.5171 1.02669 13.8208 12.5171 1.02669
175 1 14.5489 10.7542 2.62858 14.5489 10.7542 2.62858
176 2 16.7481 10.4098 3.85009 16.7481 10.4098 3.85009
177 2 16.3493 11.2748 0.835898 16.3493 11.2748 0.835898
178 1 17.8145 12.3726 2.49493 17.8145 12.3726 2.49493
179 2 20.0056 11.9274 3.73412 20.0056 11.9274 3.73412
180 2 19.4213 12.8711 0.627704 19.4213 12.8711 0.627704
181 1 20.3201 10.7417 1.60651 20.3201 10.7417 1.60651
182 2 22.5127 10.0972 2.42221 22.5127 10.0972 2.42221
183 2 21.7592 11.3194 -0.469888 21.7592 11.3194 -0.469888
184 1 23.498 12.372 1.19648 23.498 12.372 1.19648
185 2 25.8284 11.948 2.05994 25.8284 11.948 2.05994
186 2 24.7665 13.028 -0.840466 24.7665 13.028 -0.840466
187 1 25.8156 10.8648 -0.242955 25.8156 10.8648 -0.242955
188 2 28.2293 10.3815 0.366031 28.2293 10.3815 0.366031
189 2 27.2396 11.6334 -2.29161 27.2396 11.6334 -2.29161
190 1 29.083 12.5532 -0.563578 29.083 12.5532 -0.563578
191 2 31.4303 12.1834 0.291607 31.4303 12.1834 0.291607
192 2 30.3544 13.3031 -2.57661 30.3544 13.3031 -2.57661
193 1 31.5652 11.0727 -2.0746 31.5652 11.0727 -2.0746
194 2 33.7601 10.7958 -0.947138 33.7601 10.7958 -0.947138
195 2 33.1453 11.3158 -4.05021 33.1453 11.3158 -4.05021
196 1 34.6961 12.6252 -2.52163 34.6961 12.6252 -2.52163
197 2 36.8622 12.6328 -1.18662 36.8622 12.6328 -1.18662
198 2 36.3776 12.7931 -4.39512 36.3776 12.7931 -4.39512
199 1 37.3561 10.8842 -3.08802 37.3561 10.8842 -3.08802
200 2 39.3237 11.1341 -1.49372 39.3237 11.1341 -1.49372
201 2 39.4474 10.6798 -4.70422 39.4474 10.6798 -4.70422
202 1 40.5129 12.5678 -3.21078 40.5129 12.5678 -3.21078
203 2 42.3677 12.6554 -1.35445 42.3677 12.6554 -1.35445
204 2 42.659 12.2481 -4.58614 42.659 12.2481 -4.58614
205 1 43.2081 10.6669 -2.59883 43.2081 10.6669 -2.59883
206 2 44.6949 11.167 -0.557403 44.6949 11.167 -0.557403
207 2 45.5425 10.3215 -3.53902 45.5425 10.3215 -3.53902
208 1 46.3585 12.3806 -2.27596 46.3585 12.3806 -2.27596
209 2 47.9948 12.9557 -0.343605 47.9948 12.9557 -0.343605
210 2 48.6171 11.871 -3.29272 48.6171 11.871 -3.29272
211 1 48.9037 10.733 -0.972904 48.9037 10.733 -0.972904
212 2 50.2601 11.5552 1.00117 50.2601 11.5552 1.00117
213 2 51.4134 10.0708 -1.6122 51.4134 10.0708 -1.6122
214 1 52.0977 12.4024 -0.576658 52.0977 12.4024 -0.576658
215 2 53.4979 13.3054 1.29905 53.4979 13.3054 1.29905
216 2 54.3446 11.7278 -1.46185 54.3446 11.7278 -1.46185
217 1 3.83372 14.0941 -0.475272 3.83372 14.0941 -0.475272
218 2 5.04501 14.9182 1.8058 5.04501 14.9182 1.8058
219 2 6.20352 13.5961 -0.975009 6.20352 13.5961 -0.975009
220 1 6.91373 15.8739 0.199707 6.91373 15.8739 0.199707
221 2 8.17887 16.5421 2.24984 8.17887 16.5421 2.24984
222 2 9.20166 15.3813 -0.645332 9.20166 15.3813 -0.645332
223 1 9.26572 14.4144 1.64998 9.26572 14.4144 1.64998
224 2 10.9376 14.8278 3.55495 10.9376 14.8278 3.55495
225 2 11.5542 14.0206 0.574442 11.5542 14.0206 0.574442
226 1 12.4701 15.9939 1.88555 12.4701 15.9939 1.88555
227 2 14.0297 16.3004 3.76181 14.0297 16.3004 3.76181
228 2 14.6977 15.8153 0.580252 14.6977 15.8153 0.580252
229 1 15.0527 14.2636 2.6077 15.0527 14.2636 2.6077
230 2 17.0405 13.9483 4.27473 17.0405 13.9483 4.27473
231 2 17.1006 14.3551 1.01329 17.1006 14.3551 1.01329
232 1 18.2249 15.7729 2.83187 18.2249 15.7729 2.83187
233 2 20.3558 15.6396 4.24012 20.3558 15.6396 4.24012
234 2 20.1837 16.0431 1.01113 20.1837 16.0431 1.01113
235 1 21.0127 13.9836 2.39695 21.0127 13.9836 2.39695
236 2 23.3661 13.6048 3.37844 23.3661 13.6048 3.37844
237 2 22.5662 14.6084 0.39214 22.5662 14.6084 0.39214
238 1 24.1948 15.7505 2.17181 24.1948 15.7505 2.17181
239 2 26.5257 15.1244 3.08208 26.5257 15.1244 3.08208
240 2 25.5957 16.3327 0.0939722 25.5957 16.3327 0.0939722
241 1 26.549 14.0676 0.832186 26.549 14.0676 0.832186
242 2 28.8606 13.5295 1.68135 28.8606 13.5295 1.68135
243 2 27.9342 14.7028 -1.22223 27.9342 14.7028 -1.22223
244 1 29.6832 15.6707 0.46432 29.6832 15.6707 0.46432
245 2 32.2391 15.2819 1.32763 32.2391 15.2819 1.32763
246 2 31.1406 16.3671 -1.48279 31.1406 16.3671 -1.48279
247 1 32.3345 14.2793 -1.00447 32.3345 14.2793 -1.00447
248 2 34.6743 13.8139 -0.174026 34.6743 13.8139 -0.174026
249 2 33.64 14.818 -3.07296 33.64 14.818 -3.07296
250 1 35.4032 15.9657 -1.45004 35.4032 15.9657 -1.45004
251 2 37.682 15.6438 -0.561638 37.682 15.6438 -0.561638
252 2 36.7632 16.5508 -3.54792 36.7632 16.5508 -3.54792
253 1 37.8645 14.3832 -2.87068 37.8645 14.3832 -2.87068
254 2 39.9082 14.2312 -1.44232 39.9082 14.2312 -1.44232
255 2 39.7826 14.4861 -4.59515 39.7826 14.4861 -4.59515
256 1 40.9598 16.0462 -2.92459 40.9598 16.0462 -2.92459
257 2 42.9321 15.7732 -1.38564 42.9321 15.7732 -1.38564
258 2 42.9559 16.0422 -4.54647 42.9559 16.0422 -4.54647
259 1 43.7314 14.1537 -3.06779 43.7314 14.1537 -3.06779
260 2 45.5234 14.5301 -1.19272 45.5234 14.5301 -1.19272
261 2 45.9201 13.7508 -4.34134 45.9201 13.7508 -4.34134
262 1 47.0305 15.7478 -2.92877 47.0305 15.7478 -2.92877
263 2 48.7114 16.0709 -0.987818 48.7114 16.0709 -0.987818
264 2 49.2525 15.2964 -4.25846 49.2525 15.2964 -4.25846
265 1 49.5876 14.0129 -2.10167 49.5876 14.0129 -2.10167
266 2 51.0618 14.6876 -0.173568 51.0618 14.6876 -0.173568
267 2 51.9387 13.2886 -2.89477 51.9387 13.2886 -2.89477
268 1 52.7046 15.6303 -1.83349 52.7046 15.6303 -1.83349
269 2 54.1361 16.2294 0.147906 54.1361 16.2294 0.147906
270 2 3.69437 15.1669 -2.66714 55.1051 15.1669 -2.66714
271 1 4.42277 17.3718 -1.45378 4.42277 17.3718 -1.45378
272 2 5.81872 18.0488 0.621023 5.81872 18.0488 0.621023
273 2 6.78506 16.7538 -2.14916 6.78506 16.7538 -2.14916
274 1 7.51041 18.986 -1.09614 7.51041 18.986 -1.09614
275 2 9.05242 19.9388 0.940319 9.05242 19.9388 0.940319
276 2 9.83264 18.2353 -1.84854 9.83264 18.2353 -1.84854
277 1 9.96333 17.5516 0.582896 9.96333 17.5516 0.582896
278 2 11.4624 18.262 2.51413 11.4624 18.262 2.51413
279 2 12.1936 16.9673 -0.374162 12.1936 16.9673 -0.374162
280 1 13.2075 19.1784 0.783837 13.2075 19.1784 0.783837
281 2 14.5189 19.924 2.73947 14.5189 19.924 2.73947
282 2 15.3636 18.6417 -0.179234 15.3636 18.6417 -0.179234
283 1 15.6291 17.6926 2.13729 15.6291 17.6926 2.13729
284 2 17.3028 17.8036 4.02433 17.3028 17.8036 4.02433
285 2 17.7338 17.4903 0.805853 17.7338 17.4903 0.805853
286 1 18.806 19.209 2.34615 18.806 19.209 2.34615
287 2 20.674 19.2006 4.10416 20.674 19.2006 4.10416
288 2 20.8893 19.1164 1.00981 20.8893 19.1164 1.00981
289 1 21.4202 17.4247 2.67622 21.4202 17.4247 2.67622
290 2 23.6504 17.3565 4.06294 23.6504 17.3565 4.06294
291 2 23.2516 17.7301 0.920371 23.2516 17.7301 0.920371
292 1 24.7193 19.1486 2.6187 24.7193 19.1486 2.6187
293 2 26.9612 18.8836 3.91199 26.9612 18.8836 3.91199
294 2 26.3007 19.2305 0.710274 26.3007 19.2305 0.710274
295 1 27.3915 17.246 1.90802 27.3915 17.246 1.90802
296 2 29.6467 16.6995 2.82156 29.6467 16.6995 2.82156
297 2 28.6621 17.8514 -0.156084 28.6621 17.8514 -0.156084
298 1 30.5466 18.9218 1.43937 30.5466 18.9218 1.43937
299 2 32.8855 18.5321 2.38039 32.8855 18.5321 2.38039
300 2 31.9052 19.5903 -0.598103 31.9052 19.5903 -0.598103
301 1 32.9397 17.4502 0.101921 32.9397 17.4502 0.101921
302 2 35.3445 16.8114 0.921983 35.3445 16.8114 0.921983
303 2 34.3034 18.1474 -1.91498 34.3034 18.1474 -1.91498
304 1 36.0189 19.0838 -0.221346 36.0189 19.0838 -0.221346
305 2 38.4996 18.7266 0.494489 38.4996 18.7266 0.494489
306 2 37.2858 19.7642 -2.37937 37.2858 19.7642 -2.37937
307 1 38.4587 17.6532 -1.77846 38.4587 17.6532 -1.77846
308 2 40.7837 17.4765 -0.815083 40.7837 17.4765 -0.815083
309 2 39.8535 18.0413 -3.86201 39.8535 18.0413 -3.86201
310 1 41.6012 19.3274 -2.24301 41.6012 19.3274 -2.24301
311 2 43.7254 19.0153 -0.910051 43.7254 19.0153 -0.910051
312 2 43.3555 19.5072 -4.07966 43.3555 19.5072 -4.07966
313 1 44.2542 17.4882 -2.83674 44.2542 17.4882 -2.83674
314 2 46.2918 17.5477 -1.34524 46.2918 17.5477 -1.34524
315 2 46.2222 17.4248 -4.55449 46.2222 17.4248 -4.55449
316 1 47.4666 19.1293 -2.96081 47.4666 19.1293 -2.96081
317 2 49.5031 19.4756 -1.39596 49.5031 19.4756 -1.39596
318 2 49.347 18.8163 -4.60862 49.347 18.8163 -4.60862
319 1 50.1256 17.4139 -2.66702 50.1256 17.4139 -2.66702
320 2 51.9394 17.9119 -0.898169 51.9394 17.9119 -0.898169
321 2 52.2595 16.9313 -3.94116 52.2595 16.9313 -3.94116
322 1 53.4462 18.9089 -2.83312 53.4462 18.9089 -2.83312
323 2 54.8611 19.5518 -0.772255 54.8611 19.5518 -0.772255
324 2 55.8548 18.3573 -3.67511 55.8548 18.3573 -3.67511
325 1 5.18589 20.6868 -2.55277 5.18589 20.6868 -2.55277
326 2 6.63066 21.2726 -0.453327 6.63066 21.2726 -0.453327
327 2 7.43252 20.0896 -3.4058 7.43252 20.0896 -3.4058
328 1 8.40991 22.2069 -2.19506 8.40991 22.2069 -2.19506
329 2 9.898 22.8788 -0.292238 9.898 22.8788 -0.292238
330 2 10.5999 21.5838 -3.15247 10.5999 21.5838 -3.15247
331 1 10.7129 20.6395 -0.863509 10.7129 20.6395 -0.863509
332 2 12.0995 21.4461 1.11233 12.0995 21.4461 1.11233
333 2 13.1387 20.0455 -1.56428 13.1387 20.0455 -1.56428
334 1 13.9714 22.3111 -0.523434 13.9714 22.3111 -0.523434
335 2 15.1936 23.0564 1.58777 15.1936 23.0564 1.58777
336 2 16.2826 21.7262 -1.37811 16.2826 21.7262 -1.37811
337 1 16.3294 20.8063 1.01463 16.3294 20.8063 1.01463
338 2 17.7976 21.3371 3.05318 17.7976 21.3371 3.05318
339 2 18.5915 20.376 0.0765382 18.5915 20.376 0.0765382
340 1 19.4523 22.5015 1.46255 19.4523 22.5015 1.46255
341 2 20.9693 23.054 3.37568 20.9693 23.054 3.37568
342 2 21.6626 22.1573 0.392378 21.6626 22.1573 0.392378
343 1 22.0552 20.9374 2.54035 22.0552 20.9374 2.54035
344 2 23.981 20.9824 4.18882 23.981 20.9824 4.18882
345 2 24.0611 20.9728 0.876507 24.0611 20.9728 0.876507
346 1 25.2521 22.5941 2.5722 25.2521 22.5941 2.5722
347 2 27.452 22.3131 4.0263 27.452 22.3131 4.0263
348 2 27.138 22.6203 0.85353 27.138 22.6203 0.85353
349 1 27.9825 20.6676 2.25134 27.9825 20.6676 2.25134
350 2 30.157 20.3084 3.40567 30.157 20.3084 3.40567
351 2 29.497 20.9533 0.327651 29.497 20.9533 0.327651
352 1 31.0373 22.3356 1.86854 31.0373 22.3356 1.86854
353 2 33.2366 21.9688 3.19255 33.2366 21.9688 3.19255
354 2 32.7452 22.8821 0.0965718 32.7452 22.8821 0.0965718
355 1 33.6559 20.738 1.086 33.6559 20.738 1.086
356 2 35.9807 20.2516 2.00041 35.9807 20.2516 2.00041
357 2 35.1022 21.2449 -1.02742 35.1022 21.2449 -1.02742
358 1 36.8073 22.3154 0.73495 36.8073 22.3154 0.73495
359 2 38.9767 21.6992 1.6757 38.9767 21.6992 1.6757
360 2 38.3948 23.3243 -1.01399 38.3948 23.3243 -1.01399
361 1 39.208 20.8973 -0.737842 39.208 20.8973 -0.737842
362 2 41.4707 20.2884 0.0717517 41.4707 20.2884 0.0717517
363 2 40.6308 21.5735 -2.73696 40.6308 21.5735 -2.73696
364 1 42.2597 22.4487 -1.03142 42.2597 22.4487 -1.03142
365 2 44.6471 22.0378 -0.162684 44.6471 22.0378 -0.162684
366 2 43.7996 23.1107 -2.91268 43.7996 23.1107 -2.91268
367 1 44.865 20.8866 -2.34136 44.865 20.8866 -2.34136
368 2 46.9616 20.6165 -1.05447 46.9616 20.6165 -1.05447
369 2 46.5959 21.2113 -4.18565 46.5959 21.2113 -4.18565
370 1 48.0802 22.5058 -2.51058 48.0802 22.5058 -2.51058
371 2 50.263 22.4065 -1.35573 50.263 22.4065 -1.35573
372 2 49.5386 22.761 -4.54985 49.5386 22.761 -4.54985
373 1 50.6961 20.8398 -3.3127 50.6961 20.8398 -3.3127
374 2 52.5433 20.986 -1.50023 52.5433 20.986 -1.50023
375 2 52.9504 20.5673 -4.69017 52.9504 20.5673 -4.69017
376 1 54.0004 22.4827 -3.11525 54.0004 22.4827 -3.11525
377 2 55.6565 22.5989 -1.2407 55.6565 22.5989 -1.2407
378 2 56.1766 22.189 -4.50366 56.1766 22.189 -4.50366
379 1 5.80248 24.1086 -2.89154 5.80248 24.1086 -2.89154
380 2 7.53918 24.3207 -1.02232 7.53918 24.3207 -1.02232
381 2 8.06737 23.6643 -4.20776 8.06737 23.6643 -4.20776
382 1 9.00724 25.6813 -2.76205 9.00724 25.6813 -2.76205
383 2 10.5871 26.0848 -0.977251 10.5871 26.0848 -0.977251
384 2 10.9836 25.1622 -4.12759 10.9836 25.1622 -4.12759
385 1 11.6037 23.8358 -2.01239 11.6037 23.8358 -2.01239
386 2 12.9849 24.6152 -0.0406785 12.9849 24.6152 -0.0406785
387 2 13.8801 23.2811 -2.8665 13.8801 23.2811 -2.8665
388 1 14.7422 25.4519 -1.70618 14.7422 25.4519 -1.70618
389 2 16.097 26.3708 0.328316 16.097 26.3708 0.328316
390 2 16.987 24.8854 -2.50574 16.987 24.8854 -2.50574
391 1 17.0837 24.0004 -0.0792129 17.0837 24.0004 -0.0792129
392 2 18.4647 24.7721 1.89224 18.4647 24.7721 1.89224
393 2 19.4315 23.4593 -0.839708 19.4315 23.4593 -0.839708
394 1 20.1539 25.7071 0.221972 20.1539 25.7071 0.221972
395 2 21.2147 26.2619 2.3306 21.2147 26.2619 2.3306
396 2 22.6079 25.512 -0.553133 22.6079 25.512 -0.553133
397 1 22.629 24.2933 1.68172 22.629 24.2933 1.68172
398 2 24.3232 24.6851 3.66395 24.3232 24.6851 3.66395
399 2 24.8696 24.0274 0.520178 24.8696 24.0274 0.520178
400 1 25.7776 25.9651 2.07539 25.7776 25.9651 2.07539
401 2 27.7909 25.9678 3.84703 27.7909 25.9678 3.84703
402 2 27.9267 25.768 0.609197 27.9267 25.768 0.609197
403 1 28.5345 24.1452 2.47889 28.5345 24.1452 2.47889
404 2 30.6582 23.9015 3.92954 30.6582 23.9015 3.92954
405 2 30.197 24.2968 0.693766 30.197 24.2968 0.693766
406 1 31.7052 25.7624 2.48366 31.7052 25.7624 2.48366
407 2 33.8119 25.3198 3.92919 33.8119 25.3198 3.92919
408 2 33.5902 26.0081 0.746419 33.5902 26.0081 0.746419
409 1 34.3206 23.9418 1.95725 34.3206 23.9418 1.95725
410 2 36.5306 23.3953 3.05226 36.5306 23.3953 3.05226
411 2 35.9439 24.5741 0.0863903 35.9439 24.5741 0.0863903
412 1 37.4726 25.4923 1.92418 37.4726 25.4923 1.92418
413 2 39.7251 25.106 2.95219 39.7251 25.106 2.95219
414 2 39.1657 26.1847 -0.0338521 39.1657 26.1847 -0.0338521
415 1 40.0537 23.9758 0.812671 40.0537 23.9758 0.812671
416 2 42.3005 23.2509 1.40361 42.3005 23.2509 1.40361
417 2 41.3641 24.8294 -1.2705 41.3641 24.8294 -1.2705
418 1 43.1117 25.5801 0.418606 43.1117 25.5801 0.418606
419 2 45.5797 25.2193 1.08867 45.5797 25.2193 1.08867
420 2 44.5373 26.3728 -1.63111 44.5373 26.3728 -1.63111
421 1 45.5485 24.1479 -1.15834 45.5485 24.1479 -1.15834
422 2 47.9883 23.7733 -0.349808 47.9883 23.7733 -0.349808
423 2 46.9238 24.6076 -3.24706 46.9238 24.6076 -3.24706
424 1 48.6681 25.8658 -1.70241 48.6681 25.8658 -1.70241
425 2 50.8302 25.3215 -0.629896 50.8302 25.3215 -0.629896
426 2 50.1345 26.3583 -3.68289 50.1345 26.3583 -3.68289
427 1 51.2058 24.33 -2.95095 51.2058 24.33 -2.95095
428 2 53.3016 24.199 -1.39101 53.3016 24.199 -1.39101
429 2 53.2197 24.3936 -4.56183 53.2197 24.3936 -4.56183
430 1 54.5056 25.8516 -2.87339 54.5056 25.8516 -2.87339
431 2 56.464 25.8375 -1.32687 56.464 25.8375 -1.32687
432 2 56.2965 25.731 -4.60101 56.2965 25.731 -4.60101
433 1 6.25755 27.4772 -3.08011 6.25755 27.4772 -3.08011
434 2 8.25695 27.6602 -1.45497 8.25695 27.6602 -1.45497
435 2 8.33876 27.1827 -4.65007 8.33876 27.1827 -4.65007
436 1 9.54369 29.1484 -3.14431 9.54369 29.1484 -3.14431
437 2 11.4021 29.2582 -1.4457 11.4021 29.2582 -1.4457
438 2 11.5098 28.8825 -4.66744 11.5098 28.8825 -4.66744
439 1 12.0859 27.2291 -2.79105 12.0859 27.2291 -2.79105
440 2 13.8878 27.8267 -0.98661 13.8878 27.8267 -0.98661
441 2 14.2842 26.6099 -3.99262 14.2842 26.6099 -3.99262
442 1 15.3152 28.7332 -2.72469 15.3152 28.7332 -2.72469
443 2 16.8896 29.3146 -0.816844 16.8896 29.3146 -0.816844
444 2 17.5824 28.2014 -3.74622 17.5824 28.2014 -3.74622
445 1 17.8628 27.1987 -1.50197 17.8628 27.1987 -1.50197
446 2 19.1237 27.8712 0.647892 19.1237 27.8712 0.647892
447 2 20.2066 26.7393 -2.09292 20.2066 26.7393 -2.09292
448 1 20.9012 28.9519 -0.805099 20.9012 28.9519 -0.805099
449 2 22.1715 29.9565 1.16076 22.1715 29.9565 1.16076
450 2 23.3317 28.5335 -1.47115 23.3317 28.5335 -1.47115
451 1 23.1362 27.6433 1.00823 23.1362 27.6433 1.00823
452 2 24.8009 28.2862 2.95889 24.8009 28.2862 2.95889
453 2 25.4107 27.1267 -0.106077 25.4107 27.1267 -0.106077
454 1 26.3891 29.2757 1.14921 26.3891 29.2757 1.14921
455 2 27.9165 29.6149 3.19571 27.9165 29.6149 3.19571
456 2 28.667 28.9251 -0.00973116 28.667 28.9251 -0.00973116
457 1 29.03 27.487 2.15371 29.03 27.487 2.15371
458 2 30.7159 27.586 4.02232 30.7159 27.586 4.02232
459 2 31.1295 27.4037 0.806692 31.1295 27.4037 0.806692
460 1 32.1917 29.0163 2.49269 32.1917 29.0163 2.49269
461 2 34.094 28.9012 4.2309 34.094 28.9012 4.2309
462 2 34.304 29.0586 1.05882 34.304 29.0586 1.05882
463 1 34.9642 27.1826 2.64124 34.9642 27.1826 2.64124
464 2 37.1273 27.0124 3.92843 37.1273 27.0124 3.92843
465 2 36.8483 27.6334 0.85777 36.8483 27.6334 0.85777
466 1 38.2006 28.9727 2.66093 38.2006 28.9727 2.66093
467 2 40.5277 28.5076 3.70721 40.5277 28.5076 3.70721
468 2 39.7179 29.3229 0.729525 39.7179 29.3229 0.729525
469 1 40.7494 27.1989 1.75076 40.7494 27.1989 1.75076
470 2 43.0931 26.5413 2.63807 43.0931 26.5413 2.63807
471 2 42.1737 27.8871 -0.270369 42.1737 27.8871 -0.270369
472 1 43.89 28.8126 1.4182 43.89 28.8126 1.4182
473 2 46.1665 28.1379 2.27605 46.1665 28.1379 2.27605
474 2 45.2929 29.5778 -0.582338 45.2929 29.5778 -0.582338
475 1 46.3397 27.3067 -0.0795236 46.3397 27.3067 -0.0795236
476 2 48.668 26.86 0.665593 48.668 26.86 0.665593
477 2 47.6331 28.0134 -2.26825 47.6331 28.0134 -2.26825
478 1 49.3815 29.0915 -0.474008 49.3815 29.0915 -0.474008
479 2 51.6699 28.4929 0.449899 51.6699 28.4929 0.449899
480 2 50.8523 29.5631 -2.48331 50.8523 29.5631 -2.48331
481 1 51.838 27.4782 -1.8162 51.838 27.4782 -1.8162
482 2 54.1918 27.3234 -0.785136 54.1918 27.3234 -0.785136
483 2 53.2691 27.9091 -3.92149 53.2691 27.9091 -3.92149
484 1 55.0385 29.2016 -2.3019 55.0385 29.2016 -2.3019
485 2 57.2855 28.8944 -1.04327 57.2855 28.8944 -1.04327
486 2 56.7267 29.396 -4.1615 56.7267 29.396 -4.1615
487 1 6.85223 30.8244 -2.52459 6.85223 30.8244 -2.52459
488 2 9.02277 30.742 -1.26872 9.02277 30.742 -1.26872
489 2 8.60594 30.9361 -4.46339 8.60594 30.9361 -4.46339
490 1 9.96715 32.5157 -2.85542 9.96715 32.5157 -2.85542
491 2 11.9584 32.2839 -1.39111 11.9584 32.2839 -1.39111
492 2 11.7918 32.5148 -4.57865 11.7918 32.5148 -4.57865
493 1 12.6601 30.6123 -3.15736 12.6601 30.6123 -3.15736
494 2 14.6382 30.9317 -1.46977 14.6382 30.9317 -1.46977
495 2 14.6658 30.2682 -4.58796 14.6658 30.2682 -4.58796
496 1 15.8145 32.26 -3.22205 15.8145 32.26 -3.22205
497 2 17.7077 32.4914 -1.409 17.7077 32.4914 -1.409
498 2 18.005 32.0426 -4.62634 18.005 32.0426 -4.62634
499 1 18.5692 30.4441 -2.56415 18.5692 30.4441 -2.56415
500 2 19.9078 31.2355 -0.530031 19.9078 31.2355 -0.530031
501 2 20.9453 29.7666 -3.23378 20.9453 29.7666 -3.23378
502 1 21.6725 32.1006 -2.23518 21.6725 32.1006 -2.23518
503 2 22.962 32.8888 -0.0900882 22.962 32.8888 -0.0900882
504 2 24.0831 31.4625 -2.79564 24.0831 31.4625 -2.79564
505 1 24.0743 30.7507 -0.352741 24.0743 30.7507 -0.352741
506 2 25.3635 31.4392 1.72353 25.3635 31.4392 1.72353
507 2 26.3481 30.1795 -1.18225 26.3481 30.1795 -1.18225
508 1 27.1539 32.3419 0.0376427 27.1539 32.3419 0.0376427
509 2 28.48 33.2175 2.09619 28.48 33.2175 2.09619
510 2 29.5632 31.8323 -0.698121 29.5632 31.8323 -0.698121
511 1 29.5634 30.8081 1.59753 29.5634 30.8081 1.59753
512 2 31.2002 31.1189 3.54311 31.2002 31.1189 3.54311
513 2 31.8455 30.4339 0.415003 31.8455 30.4339 0.415003
514 1 32.7525 32.3546 1.86893 32.7525 32.3546 1.86893
515 2 34.3971 32.637 3.80683 34.3971 32.637 3.80683
516 2 34.9285 32.2113 0.600399 34.9285 32.2113 0.600399
517 1 35.4323 30.6855 2.74923 35.4323 30.6855 2.74923
518 2 37.4476 30.5763 4.38292 37.4476 30.5763 4.38292
519 2 37.4627 30.842 1.17698 37.4627 30.842 1.17698
520 1 38.6515 32.3527 2.86441 38.6515 32.3527 2.86441
521 2 40.8118 31.9985 4.3129 40.8118 31.9985 4.3129
522 2 40.5282 32.5161 1.06053 40.5282 32.5161 1.06053
523 1 41.3667 30.5847 2.34964 41.3667 30.5847 2.34964
524 2 43.5009 30.0393 3.59503 43.5009 30.0393 3.59503
525 2 42.9936 30.9037 0.457676 42.9936 30.9037 0.457676
526 1 44.4005 32.0962 2.23176 44.4005 32.0962 2.23176
527 2 46.5804 31.6109 3.45721 46.5804 31.6109 3.45721
528 2 46.149 32.7712 0.511503 46.149 32.7712 0.511503
529 1 46.9966 30.51 1.23686 46.9966 30.51 1.23686
530 2 49.2309 29.8888 1.94409 49.2309 29.8888 1.94409
531 2 48.3768 31.4293 -0.780546 48.3768 31.4293 -0.780546
532 1 50.1191 32.1311 1.04912 50.1191 32.1311 1.04912
533 2 52.5922 31.4085 1.61108 52.5922 31.4085 1.61108
534 2 51.4583 32.9847 -0.975526 51.4583 32.9847 -0.975526
535 1 52.5417 30.717 -0.80167 52.5417 30.717 -0.80167
536 2 54.9694 30.2172 0.0591763 54.9694 30.2172 0.0591763
537 2 54.0017 31.3272 -2.81413 54.0017 31.3272 -2.81413
538 1 55.7416 32.3719 -1.1373 55.7416 32.3719 -1.1373
539 2 58.0358 31.9708 -0.280391 58.0358 31.9708 -0.280391
540 2 57.0251 32.8601 -3.16827 57.0251 32.8601 -3.16827