ITEM: TIMESTEP
219000
ITEM: NUMBER OF ATOMS
810
ITEM: BOX BOUNDS xy xz yz pp pp pp
8.0341777045796159e-01 5.3296147421753219e+01 1.0819601922107154e+00
8.0582000660415243e-01 5.0210394993394715e+01 0.0000000000000000e+00
-1.0000000000000000e+01 1.0000000000000000e+01 0.0000000000000000e+00
ITEM: ATOMS id type x y z xu yu zu
1 1 1.10918 1.05881 0.134193 1.10918 1.05881 0.134193
2 2 2.91916 1.37155 1.91483 2.91916 1.37155 1.91483
3 2 2.97417 0.860459 -1.3871 2.97417 0.860459 -1.3871
4 1 3.94809 2.7443 0.0936751 3.94809 2.7443 0.0936751
5 2 5.54301 2.84722 1.92355 5.54301 2.84722 1.92355
6 2 6.06342 2.66884 -1.2674 6.06342 2.66884 -1.2674
7 1 6.65975 1.11486 0.561369 6.65975 1.11486 0.561369
8 2 8.42178 1.09929 2.3587 8.42178 1.09929 2.3587
9 2 8.74646 1.24073 -0.850345 8.74646 1.24073 -0.850345
10 1 9.60936 2.66604 0.883923 9.60936 2.66604 0.883923
11 2 11.5287 2.78665 2.51198 11.5287 2.78665 2.51198
12 2 11.5702 2.69702 -0.735857 11.5702 2.69702 -0.735857
13 1 12.3591 0.994449 0.877654 12.3591 0.994449 0.877654
14 2 14.5736 0.868919 2.19071 14.5736 0.868919 2.19071
15 2 14.1575 1.0731 -0.986462 14.1575 1.0731 -0.986462
16 1 15.2359 2.70281 0.586336 15.2359 2.70281 0.586336
17 2 17.3061 2.60502 1.99047 17.3061 2.60502 1.99047
18 2 16.887 2.70646 -1.24356 16.887 2.70646 -1.24356
19 1 18.1223 0.987528 0.306426 18.1223 0.987528 0.306426
20 2 20.2178 0.968773 1.88269 20.2178 0.968773 1.88269
21 2 19.9478 1.16337 -1.42817 19.9478 1.16337 -1.42817
22 1 21.0715 2.70922 0.237845 21.0715 2.70922 0.237845
23 2 23.186 2.75317 1.58893 23.186 2.75317 1.58893
24 2 22.7184 2.77627 -1.66314 22.7184 2.77627 -1.66314
25 1 23.8005 1.09348 -0.191446 23.8005 1.09348 -0.191446
26 2 25.9027 1.01417 1.13674 25.9027 1.01417 1.13674
27 2 25.4527 1.04299 -2.14519 25.4527 1.04299 -2.14519
28 1 26.6237 2.74952 -0.526829 26.6237 2.74952 -0.526829
29 2 28.6508 2.5125 0.902496 28.6508 2.5125 0.902496
30 2 28.4284 2.74663 -2.36853 28.4284 2.74663 -2.36853
31 1 29.4175 0.97146 -0.930655 29.4175 0.97146 -0.930655
32 2 31.3978 0.857675 0.517162 31.3978 0.857675 0.517162
33 2 31.1366 0.939678 -2.73056 31.1366 0.939678 -2.73056
34 1 32.3321 2.55098 -1.1021 32.3321 2.55098 -1.1021
35 2 34.2567 2.6152 0.510923 34.2567 2.6152 0.510923
36 2 34.3046 2.79142 -2.78607 34.3046 2.79142 -2.78607
37 1 35.2063 0.992921 -1.21986 35.2063 0.992921 -1.21986
38 2 37.0136 1.17007 0.491477 37.0136 1.17007 0.491477
39 2 37.3478 0.958801 -2.72978 37.3478 0.958801 -2.72978
40 1 38.2002 2.68963 -1.13549 38.2002 2.68963 -1.13549
41 2 40.0698 2.62742 0.525884 40.0698 2.62742 0.525884
42 2 40.1602 2.64977 -2.90877 40.1602 2.64977 -2.90877
43 1 40.9983 1.01014 -1.25687 40.9983 1.01014 -1.25687
44 2 42.7064 1.31258 0.668871 42.7064 1.31258 0.668871
45 2 43.1063 0.998247 -2.60336 43.1063 0.998247 -2.60336
46 1 43.937 2.64912 -0.984612 43.937 2.64912 -0.984612
47 2 45.7545 2.85118 0.736942 45.7545 2.85118 0.736942
48 2 45.9877 2.6 -2.48061 45.9877 2.6 -2.48061
49 1 46.7894 0.991906 -0.663776 46.7894 0.991906 -0.663776
50 2 48.4883 1.09501 1.26691 48.4883 1.09501 1.26691
51 2 48.9178 0.938674 -1.93029 48.9178 0.938674 -1.93029
52 1 49.6807 2.73636 -0.297653 49.6807 2.73636 -0.297653
53 2 51.5442 2.90502 1.52373 51.5442 2.90502 1.52373
54 2 51.644 2.52787 -1.85691 51.644 2.52787 -1.85691
55 1 1.2086 4.31303 -0.28976 1.2086 4.31303 -0.28976
56 2 2.82114 4.5222 1.51542 2.82114 4.5222 1.51542
57 2 3.21788 4.14966 -1.68427 3.21788 4.14966 -1.68427
58 1 3.95009 5.99344 -0.150487 3.95009 5.99344 -0.150487
59 2 5.65728 6.33861 1.65836 5.65728 6.33861 1.65836
60 2 5.92045 5.74403 -1.583 5.92045 5.74403 -1.583
61 1 6.7245 4.37291 0.417377 6.7245 4.37291 0.417377
62 2 8.47244 4.55413 2.08648 8.47244 4.55413 2.08648
63 2 8.80135 4.04361 -1.00483 8.80135 4.04361 -1.00483
64 1 9.65653 5.90201 0.418252 9.65653 5.90201 0.418252
65 2 11.4121 6.25866 2.20348 11.4121 6.25866 2.20348
66 2 11.6928 5.79585 -1.07369 11.6928 5.79585 -1.07369
67 1 12.5562 4.37718 0.871675 12.5562 4.37718 0.871675
68 2 14.6474 4.41194 2.26907 14.6474 4.41194 2.26907
69 2 14.2854 4.36346 -0.964166 14.2854 4.36346 -0.964166
70 1 15.4252 5.9716 0.498528 15.4252 5.9716 0.498528
71 2 17.397 6.00755 1.98129 17.397 6.00755 1.98129
72 2 17.2734 5.87098 -1.28333 17.2734 5.87098 -1.28333
73 1 18.1948 4.26618 0.2845 18.1948 4.26618 0.2845
74 2 20.1911 4.24276 1.9099 20.1911 4.24276 1.9099
75 2 20.0639 4.25324 -1.41837 20.0639 4.25324 -1.41837
76 1 21.1635 5.97981 0.218937 21.1635 5.97981 0.218937
77 2 23.2125 5.96854 1.65251 23.2125 5.96854 1.65251
78 2 22.7835 5.94651 -1.65691 22.7835 5.94651 -1.65691
79 1 23.9481 4.38282 -0.154746 23.9481 4.38282 -0.154746
80 2 26.0201 4.44223 1.23554 26.0201 4.44223 1.23554
81 2 25.6505 4.41201 -2.07454 25.6505 4.41201 -2.07454
82 1 26.7763 6.0137 -0.605549 26.7763 6.0137 -0.605549
83 2 28.7648 5.93456 1.00625 28.7648 5.93456 1.00625
84 2 28.6441 6.08957 -2.27552 28.6441 6.08957 -2.27552
85 1 29.5578 4.30919 -0.762127 29.5578 4.30919 -0.762127
86 2 31.6122 4.16399 0.601134 31.6122 4.16399 0.601134
87 2 31.1918 4.13998 -2.59718 31.1918 4.13998 -2.59718
88 1 32.5063 5.86543 -1.17021 32.5063 5.86543 -1.17021
89 2 34.4128 5.87899 0.541739 34.4128 5.87899 0.541739
90 2 34.4431 5.87375 -2.7545 34.4431 5.87375 -2.7545
91 1 35.3631 4.28078 -1.049 35.3631 4.28078 -1.049
92 2 37.1428 4.40218 0.612622 37.1428 4.40218 0.612622
93 2 37.2801 4.27806 -2.77388 37.2801 4.27806 -2.77388
94 1 38.2133 5.95237 -1.10597 38.2133 5.95237 -1.10597
95 2 40.3199 6.0281 0.350605 40.3199 6.0281 0.350605
96 2 40.1242 5.83855 -2.88204 40.1242 5.83855 -2.88204
97 1 41.0482 4.30264 -1.17294 41.0482 4.30264 -1.17294
98 2 42.9837 4.53776 0.441625 42.9837 4.53776 0.441625
99 2 43.0651 4.0223 -2.85684 43.0651 4.0223 -2.85684
100 1 43.9901 5.87179 -1.44479 43.9901 5.87179 -1.44479
101 2 45.7416 6.09359 0.329845 45.7416 6.09359 0.329845
102 2 46.0163 5.84798 -2.82175 46.0163 5.84798 -2.82175
103 1 46.8983 4.2707 -1.03915 46.8983 4.2707 -1.03915
104 2 48.5046 4.63311 0.819724 48.5046 4.63311 0.819724
105 2 48.9618 4.00674 -2.35613 48.9618 4.00674 -2.35613
106 1 49.7136 5.94986 -0.907207 49.7136 5.94986 -0.907207
107 2 51.4409 6.11071 0.995152 51.4409 6.11071 0.995152
108 2 51.8894 5.78874 -2.25283 51.8894 5.78874 -2.25283
109 1 1.24174 7.62751 -0.744685 1.24174 7.62751 -0.744685
110 2 3.00355 7.75671 1.21802 3.00355 7.75671 1.21802
111 2 3.39742 7.52267 -2.09303 3.39742 7.52267 -2.09303
112 1 4.06596 9.27462 -0.542633 4.06596 9.27462 -0.542633
113 2 5.74835 9.26519 1.29356 5.74835 9.26519 1.29356
114 2 6.16905 9.22289 -1.94564 6.16905 9.22289 -1.94564
115 1 6.85428 7.55459 -0.118763 6.85428 7.55459 -0.118763
116 2 8.46091 7.65599 1.7641 8.46091 7.65599 1.7641
117 2 8.93008 7.46859 -1.46939 8.93008 7.46859 -1.46939
118 1 9.75733 9.21529 0.116494 9.75733 9.21529 0.116494
119 2 11.518 9.32649 1.73945 11.518 9.32649 1.73945
120 2 11.6555 9.07129 -1.49061 11.6555 9.07129 -1.49061
121 1 12.6262 7.6235 0.317922 12.6262 7.6235 0.317922
122 2 14.5258 7.84427 1.9551 14.5258 7.84427 1.9551
123 2 14.4917 7.4508 -1.30933 14.4917 7.4508 -1.30933
124 1 15.4512 9.26231 0.0814005 15.4512 9.26231 0.0814005
125 2 17.1466 9.4252 1.80278 17.1466 9.4252 1.80278
126 2 17.4609 9.29124 -1.49863 17.4609 9.29124 -1.49863
127 1 18.1723 7.59312 0.288808 18.1723 7.59312 0.288808
128 2 20.2312 7.63227 1.87537 20.2312 7.63227 1.87537
129 2 20.1488 7.54014 -1.45494 20.1488 7.54014 -1.45494
130 1 21.1053 9.20407 0.109341 21.1053 9.20407 0.109341
131 2 23.0882 9.19989 1.57329 23.0882 9.19989 1.57329
132 2 22.9792 9.18419 -1.67219 22.9792 9.18419 -1.67219
133 1 24.0798 7.6148 -0.0689499 24.0798 7.6148 -0.0689499
134 2 26.2724 7.50465 1.28192 26.2724 7.50465 1.28192
135 2 25.7602 7.95512 -1.87212 25.7602 7.95512 -1.87212
136 1 26.9933 9.32604 -0.193841 26.9933 9.32604 -0.193841
137 2 29.0991 9.22265 1.09687 29.0991 9.22265 1.09687
138 2 28.6037 9.36719 -2.08479 28.6037 9.36719 -2.08479
139 1 29.8126 7.64549 -0.655655 29.8126 7.64549 -0.655655
140 2 31.768 7.47991 0.751483 31.768 7.47991 0.751483
141 2 31.3808 7.76947 -2.4999 31.3808 7.76947 -2.4999
142 1 32.5834 9.31723 -0.864684 32.5834 9.31723 -0.864684
143 2 34.5577 9.12763 0.589625 34.5577 9.12763 0.589625
144 2 34.367 9.3424 -2.62842 34.367 9.3424 -2.62842
145 1 35.3892 7.55561 -1.09373 35.3892 7.55561 -1.09373
146 2 37.3396 7.51007 0.485383 37.3396 7.51007 0.485383
147 2 37.3292 7.53498 -2.75843 37.3292 7.53498 -2.75843
148 1 38.343 9.19796 -1.1793 38.343 9.19796 -1.1793
149 2 40.2474 9.09394 0.436134 40.2474 9.09394 0.436134
150 2 40.2447 9.33776 -2.85799 40.2447 9.33776 -2.85799
151 1 41.2142 7.60505 -1.38964 41.2142 7.60505 -1.38964
152 2 43.1571 7.70437 0.233273 43.1571 7.70437 0.233273
153 2 43.0597 7.50749 -3.11672 43.0597 7.50749 -3.11672
154 1 44.0544 9.17808 -1.59431 44.0544 9.17808 -1.59431
155 2 45.8439 9.26304 0.176396 45.8439 9.26304 0.176396
156 2 46.112 9.2685 -3.00145 46.112 9.2685 -3.00145
157 1 46.9671 7.61224 -1.31992 46.9671 7.61224 -1.31992
158 2 48.6755 7.61643 0.529302 48.6755 7.61643 0.529302
159 2 49.0562 7.45774 -2.74258 49.0562 7.45774 -2.74258
160 1 49.8657 9.17842 -1.11655 49.8657 9.17842 -1.11655
161 2 51.6853 9.4079 0.626732 51.6853 9.4079 0.626732
162 2 51.8229 9.27494 -2.53649 51.8229 9.27494 -2.53649
163 1 1.27803 10.9835 -0.891408 1.27803 10.9835 -0.891408
164 2 3.06278 11.1456 0.874134 3.06278 11.1456 0.874134
165 2 3.32366 10.948 -2.30352 3.32366 10.948 -2.30352
166 1 4.24336 12.5563 -0.671702 4.24336 12.5563 -0.671702
167 2 5.75694 12.5315 1.20689 5.75694 12.5315 1.20689
168 2 6.37211 12.6924 -1.9525 6.37211 12.6924 -1.9525
169 1 6.99006 10.9175 -0.331043 6.99006 10.9175 -0.331043
170 2 8.59532 10.8363 1.54295 8.59532 10.8363 1.54295
171 2 9.08507 10.994 -1.63811 9.08507 10.994 -1.63811
172 1 9.87572 12.5245 0.12418 9.87572 12.5245 0.12418
173 2 11.6623 12.4288 1.80355 11.6623 12.4288 1.80355
174 2 11.7491 12.7309 -1.47599 11.7491 12.7309 -1.47599
175 1 12.6021 10.8885 0.0705484 12.6021 10.8885 0.0705484
176 2 14.488 10.924 1.7228 14.488 10.924 1.7228
177 2 14.5173 10.9625 -1.5247 14.5173 10.9625 -1.5247
178 1 15.4786 12.6582 0.15909 15.4786 12.6582 0.15909
179 2 17.2748 12.4394 1.84513 17.2748 12.4394 1.84513
180 2 17.3872 12.722 -1.39942 17.3872 12.722 -1.39942
181 1 18.2726 10.9209 0.17936 18.2726 10.9209 0.17936
182 2 20.2381 10.846 1.73918 20.2381 10.846 1.73918
183 2 20.1048 10.9546 -1.4971 20.1048 10.9546 -1.4971
184 1 21.2222 12.5454 0.139326 21.2222 12.5454 0.139326
185 2 23.241 12.4284 1.66261 23.241 12.4284 1.66261
186 2 22.9274 12.6417 -1.51492 22.9274 12.6417 -1.51492
187 1 24.0549 10.8234 -0.150686 24.0549 10.8234 -0.150686
188 2 26.1295 11.041 1.36096 26.1295 11.041 1.36096
189 2 25.9207 10.9131 -1.72992 25.9207 10.9131 -1.72992
190 1 26.9814 12.5832 -0.286274 26.9814 12.5832 -0.286274
191 2 29.18 12.4192 1.16572 29.18 12.4192 1.16572
192 2 28.9216 12.7158 -2.02693 28.9216 12.7158 -2.02693
193 1 29.8817 10.9251 -0.591819 29.8817 10.9251 -0.591819
194 2 31.9492 11.0851 0.752368 31.9492 11.0851 0.752368
195 2 31.5331 10.9383 -2.41253 31.5331 10.9383 -2.41253
196 1 32.7477 12.6299 -1.03367 32.7477 12.6299 -1.03367
197 2 34.6495 12.4548 0.61203 34.6495 12.4548 0.61203
198 2 34.6649 12.5847 -2.60522 34.6649 12.5847 -2.60522
199 1 35.6016 10.8131 -1.01245 35.6016 10.8131 -1.01245
200 2 37.6785 10.846 0.551116 37.6785 10.846 0.551116
201 2 37.3849 10.8261 -2.76703 37.3849 10.8261 -2.76703
202 1 38.4077 12.5073 -1.2 38.4077 12.5073 -1.2
203 2 40.1864 12.529 0.568716 40.1864 12.529 0.568716
204 2 40.3336 12.3681 -2.66938 40.3336 12.3681 -2.66938
205 1 41.2205 10.8764 -1.00989 41.2205 10.8764 -1.00989
206 2 43.3074 10.6315 0.401522 43.3074 10.6315 0.401522
207 2 43.0502 11.1575 -2.82768 43.0502 11.1575 -2.82768
208 1 44.0903 12.5864 -1.0539 44.0903 12.5864 -1.0539
209 2 46.0177 12.48 0.396939 46.0177 12.48 0.396939
210 2 45.9949 12.6941 -2.71736 45.9949 12.6941 -2.71736
211 1 46.9672 10.9457 -1.34065 46.9672 10.9457 -1.34065
212 2 48.7414 10.9459 0.340462 48.7414 10.9459 0.340462
213 2 48.9676 10.7642 -2.80714 48.9676 10.7642 -2.80714
214 1 49.8278 12.5559 -1.23592 49.8278 12.5559 -1.23592
215 2 51.5004 12.4832 0.623656 51.5004 12.4832 0.623656
216 2 51.9831 12.6857 -2.59095 51.9831 12.6857 -2.59095
217 1 1.38052 14.1682 -0.80554 1.38052 14.1682 -0.80554
218 2 3.24197 14.0816 0.974958 3.24197 14.0816 0.974958
219 2 3.41932 14.271 -2.21987 3.41932 14.271 -2.21987
220 1 4.28851 15.8895 -0.354793 4.28851 15.8895 -0.354793
221 2 6.18424 15.9773 1.50337 6.18424 15.9773 1.50337
222 2 6.25523 15.8661 -1.81452 6.25523 15.8661 -1.81452
223 1 7.08237 14.2354 -0.0666474 7.08237 14.2354 -0.0666474
224 2 8.81862 14.1744 1.73444 8.81862 14.1744 1.73444
225 2 9.14071 14.3757 -1.48826 9.14071 14.3757 -1.48826
226 1 9.91842 15.9533 0.238588 9.91842 15.9533 0.238588
227 2 11.7554 16.0053 1.84218 11.7554 16.0053 1.84218
228 2 11.8232 15.8329 -1.3696 11.8232 15.8329 -1.3696
229 1 12.6761 14.1548 0.344622 12.6761 14.1548 0.344622
230 2 14.6395 14.1604 1.89514 14.6395 14.1604 1.89514
231 2 14.5721 14.3078 -1.38087 14.5721 14.3078 -1.38087
232 1 15.607 15.9101 0.363396 15.607 15.9101 0.363396
233 2 17.4184 15.7207 2.05539 17.4184 15.7207 2.05539
234 2 17.5241 15.9745 -1.21847 17.5241 15.9745 -1.21847
235 1 18.3566 14.1679 0.36704 18.3566 14.1679 0.36704
236 2 20.3258 14.0415 2.00765 20.3258 14.0415 2.00765
237 2 20.1955 14.2521 -1.34348 20.1955 14.2521 -1.34348
238 1 21.3735 15.7485 0.456132 21.3735 15.7485 0.456132
239 2 23.4114 15.7439 1.80215 23.4114 15.7439 1.80215
240 2 23.0414 15.8791 -1.45086 23.0414 15.8791 -1.45086
241 1 24.1658 14.1999 0.035002 24.1658 14.1999 0.035002
242 2 26.2487 14.0427 1.49495 26.2487 14.0427 1.49495
243 2 26.0092 14.2747 -1.80186 26.0092 14.2747 -1.80186
244 1 27.0701 15.7671 -0.0297806 27.0701 15.7671 -0.0297806
245 2 29.1177 15.7938 1.37842 29.1177 15.7938 1.37842
246 2 28.7141 15.9317 -1.79291 28.7141 15.9317 -1.79291
247 1 29.9597 14.2304 -0.437036 29.9597 14.2304 -0.437036
248 2 31.9867 14.0332 0.897426 31.9867 14.0332 0.897426
249 2 31.6327 14.4645 -2.31827 31.6327 14.4645 -2.31827
250 1 32.8987 15.7867 -0.705837 32.8987 15.7867 -0.705837
251 2 34.7441 15.5212 0.879973 34.7441 15.5212 0.879973
252 2 34.7846 15.8913 -2.43395 34.7846 15.8913 -2.43395
253 1 35.6627 14.1289 -0.915359 35.6627 14.1289 -0.915359
254 2 37.663 14.0656 0.597628 37.663 14.0656 0.597628
255 2 37.5224 14.3723 -2.62245 37.5224 14.3723 -2.62245
256 1 38.44 15.8565 -0.828774 38.44 15.8565 -0.828774
257 2 40.3267 15.7471 0.756703 40.3267 15.7471 0.756703
258 2 40.2646 15.941 -2.5634 40.2646 15.941 -2.5634
259 1 41.2774 14.1855 -1.05769 41.2774 14.1855 -1.05769
260 2 43.101 14.104 0.601336 43.101 14.104 0.601336
261 2 43.1882 14.3114 -2.66968 43.1882 14.3114 -2.66968
262 1 44.1655 15.7729 -0.944581 44.1655 15.7729 -0.944581
263 2 46.026 15.7466 0.810134 46.026 15.7466 0.810134
264 2 46.1506 16.1397 -2.53807 46.1506 16.1397 -2.53807
265 1 47.0357 14.2943 -0.977123 47.0357 14.2943 -0.977123
266 2 48.8758 14.0537 0.54371 48.8758 14.0537 0.54371
267 2 48.9785 14.3473 -2.613 48.9785 14.3473 -2.613
268 1 50.0529 15.816 -0.805951 50.0529 15.816 -0.805951
269 2 51.8862 15.6974 0.863744 51.8862 15.6974 0.863744
270 2 51.8963 15.7839 -2.40286 51.8963 15.7839 -2.40286
271 1 1.49374 17.3984 -0.688993 1.49374 17.3984 -0.688993
272 2 3.16557 17.5149 1.17457 3.16557 17.5149 1.17457
273 2 3.55353 17.4022 -2.13375 3.55353 17.4022 -2.13375
274 1 4.33174 19.1296 -0.431189 4.33174 19.1296 -0.431189
275 2 6.03311 19.2387 1.39192 6.03311 19.2387 1.39192
276 2 6.38042 19.0564 -1.88411 6.38042 19.0564 -1.88411
277 1 7.13012 17.5857 -0.108302 7.13012 17.5857 -0.108302
278 2 8.80149 17.5804 1.65678 8.80149 17.5804 1.65678
279 2 9.08721 17.4592 -1.49919 9.08721 17.4592 -1.49919
280 1 9.9807 19.1882 0.118319 9.9807 19.1882 0.118319
281 2 11.8224 19.2934 1.80123 11.8224 19.2934 1.80123
282 2 11.8796 19.2458 -1.4997 11.8796 19.2458 -1.4997
283 1 12.7674 17.5979 0.124659 12.7674 17.5979 0.124659
284 2 14.5912 17.738 1.79673 14.5912 17.738 1.79673
285 2 14.7143 17.3615 -1.42464 14.7143 17.3615 -1.42464
286 1 15.6928 19.1846 0.0834141 15.6928 19.1846 0.0834141
287 2 17.4284 19.304 1.93688 17.4284 19.304 1.93688
288 2 17.842 19.2066 -1.37785 17.842 19.2066 -1.37785
289 1 18.4577 17.4539 0.513024 18.4577 17.4539 0.513024
290 2 20.3912 17.3014 2.14966 20.3912 17.3014 2.14966
291 2 20.502 17.5348 -1.10629 20.502 17.5348 -1.10629
292 1 21.4251 19.0668 0.65577 21.4251 19.0668 0.65577
293 2 23.5054 19.0223 1.99174 23.5054 19.0223 1.99174
294 2 22.9325 19.1075 -1.3 22.9325 19.1075 -1.3
295 1 24.1747 17.475 0.0944399 24.1747 17.475 0.0944399
296 2 26.1658 17.256 1.61723 26.1658 17.256 1.61723
297 2 26.114 17.4752 -1.64197 26.114 17.4752 -1.64197
298 1 27.1324 19.0101 0.0146848 27.1324 19.0101 0.0146848
299 2 29.0755 18.9495 1.52415 29.0755 18.9495 1.52415
300 2 28.8401 19.1442 -1.76015 28.8401 19.1442 -1.76015
301 1 29.9239 17.3847 -0.215105 29.9239 17.3847 -0.215105
302 2 32.0201 17.2755 1.19962 32.0201 17.2755 1.19962
303 2 31.7593 17.7673 -1.92953 31.7593 17.7673 -1.92953
304 1 32.8384 19.1074 -0.141329 32.8384 19.1074 -0.141329
305 2 34.9477 18.9526 1.21508 34.9477 18.9526 1.21508
306 2 34.5602 19.1086 -1.96367 34.5602 19.1086 -1.96367
307 1 35.6851 17.4054 -0.612812 35.6851 17.4054 -0.612812
308 2 37.5054 17.3441 0.996673 37.5054 17.3441 0.996673
309 2 37.517 17.671 -2.25566 37.517 17.671 -2.25566
310 1 38.5239 19.1431 -0.395327 38.5239 19.1431 -0.395327
311 2 40.6535 19.0508 0.995418 40.6535 19.0508 0.995418
312 2 40.1889 19.1928 -2.37563 40.1889 19.1928 -2.37563
313 1 41.3052 17.4537 -0.842773 41.3052 17.4537 -0.842773
314 2 43.1673 17.3693 0.832889 43.1673 17.3693 0.832889
315 2 43.212 17.5959 -2.43246 43.212 17.5959 -2.43246
316 1 44.267 19.0849 -0.681701 44.267 19.0849 -0.681701
317 2 46.156 18.9509 0.985458 46.156 18.9509 0.985458
318 2 46.1751 19.107 -2.32424 46.1751 19.107 -2.32424
319 1 47.1209 17.4389 -0.696011 47.1209 17.4389 -0.696011
320 2 49.1409 17.3808 0.835178 49.1409 17.3808 0.835178
321 2 49.0935 17.4506 -2.36693 49.0935 17.4506 -2.36693
322 1 50.0633 19.1445 -0.772575 50.0633 19.1445 -0.772575
323 2 51.9595 19.0477 0.91507 51.9595 19.0477 0.91507
324 2 52.1601 19.225 -2.25953 52.1601 19.225 -2.25953
325 1 1.6205 20.8251 -0.537459 1.6205 20.8251 -0.537459
326 2 3.27739 20.6548 1.22418 3.27739 20.6548 1.22418
327 2 3.48391 20.8954 -2.03571 3.48391 20.8954 -2.03571
328 1 4.38582 22.4772 -0.216896 4.38582 22.4772 -0.216896
329 2 6.10724 22.3702 1.52012 6.10724 22.3702 1.52012
330 2 6.42254 22.6203 -1.79174 6.42254 22.6203 -1.79174
331 1 7.19078 20.88 -0.222557 7.19078 20.88 -0.222557
332 2 8.85066 20.8115 1.74358 8.85066 20.8115 1.74358
333 2 9.26828 20.8739 -1.53452 9.26828 20.8739 -1.53452
334 1 10.021 22.5449 0.235346 10.021 22.5449 0.235346
335 2 11.9757 22.6513 1.82842 11.9757 22.6513 1.82842
336 2 11.766 22.4792 -1.49077 11.766 22.4792 -1.49077
337 1 12.7642 20.9237 0.0817952 12.7642 20.9237 0.0817952
338 2 14.6472 20.8277 1.77651 14.6472 20.8277 1.77651
339 2 14.9226 20.8747 -1.57986 14.9226 20.8747 -1.57986
340 1 15.8715 22.4612 0.20725 15.8715 22.4612 0.20725
341 2 17.6661 22.3986 1.94785 17.6661 22.3986 1.94785
342 2 17.9473 22.4146 -1.23231 17.9473 22.4146 -1.23231
343 1 18.6425 20.7748 0.372504 18.6425 20.7748 0.372504
344 2 20.4328 20.7956 2.13769 20.4328 20.7956 2.13769
345 2 20.6865 20.6569 -1.10014 20.6865 20.6569 -1.10014
346 1 21.5725 22.3512 0.524407 21.5725 22.3512 0.524407
347 2 23.6308 22.1824 1.95807 23.6308 22.1824 1.95807
348 2 23.4014 22.5834 -1.30589 23.4014 22.5834 -1.30589
349 1 24.3092 20.7268 0.171307 24.3092 20.7268 0.171307
350 2 26.3449 20.642 1.77351 26.3449 20.642 1.77351
351 2 26.2278 20.7689 -1.55521 26.2278 20.7689 -1.55521
352 1 27.238 22.3396 0.106557 27.238 22.3396 0.106557
353 2 29.2359 22.2548 1.63125 29.2359 22.2548 1.63125
354 2 29.0413 22.4787 -1.48598 29.0413 22.4787 -1.48598
355 1 30.061 20.609 -0.157214 30.061 20.609 -0.157214
356 2 31.8961 20.7024 1.5652 31.8961 20.7024 1.5652
357 2 32.0774 20.8258 -1.74084 32.0774 20.8258 -1.74084
358 1 33.0028 22.3266 0.0791598 33.0028 22.3266 0.0791598
359 2 35.1181 22.2824 1.41142 35.1181 22.2824 1.41142
360 2 34.7173 22.5604 -1.88376 34.7173 22.5604 -1.88376
361 1 35.8167 20.7173 -0.358475 35.8167 20.7173 -0.358475
362 2 37.7476 20.7424 1.24537 37.7476 20.7424 1.24537
363 2 37.6498 20.8086 -2.07371 37.6498 20.8086 -2.07371
364 1 38.6453 22.5133 -0.361512 38.6453 22.5133 -0.361512
365 2 40.5638 22.4251 1.12928 40.5638 22.4251 1.12928
366 2 40.4927 22.4939 -2.13333 40.4927 22.4939 -2.13333
367 1 41.4111 20.7485 -0.637352 41.4111 20.7485 -0.637352
368 2 43.4213 20.7054 1.01703 43.4213 20.7054 1.01703
369 2 43.3533 20.7357 -2.29606 43.3533 20.7357 -2.29606
370 1 44.3368 22.38 -0.665054 44.3368 22.38 -0.665054
371 2 46.1728 22.3332 1.05389 46.1728 22.3332 1.05389
372 2 46.3955 22.3718 -2.2433 46.3955 22.3718 -2.2433
373 1 47.1669 20.662 -0.640125 47.1669 20.662 -0.640125
374 2 49.0718 20.6438 0.939791 49.0718 20.6438 0.939791
375 2 49.0747 20.8438 -2.29998 49.0747 20.8438 -2.29998
376 1 50.0214 22.3537 -0.609693 50.0214 22.3537 -0.609693
377 2 52.0175 22.2925 1.10555 52.0175 22.2925 1.10555
378 2 52.0443 22.4303 -2.20183 52.0443 22.4303 -2.20183
379 1 1.54673 24.1404 -0.460833 1.54673 24.1404 -0.460833
380 2 3.23045 24.0266 1.39554 3.23045 24.0266 1.39554
381 2 3.64016 24.267 -1.79639 3.64016 24.267 -1.79639
382 1 4.48612 25.7532 -0.0552646 4.48612 25.7532 -0.0552646
383 2 6.26541 25.7242 1.68117 6.26541 25.7242 1.68117
384 2 6.40534 25.9286 -1.61321 6.40534 25.9286 -1.61321
385 1 7.25116 24.0501 0.0752799 7.25116 24.0501 0.0752799
386 2 9.05451 23.9912 1.86282 9.05451 23.9912 1.86282
387 2 9.15946 24.2744 -1.50502 9.15946 24.2744 -1.50502
388 1 10.1428 25.7133 0.332778 10.1428 25.7133 0.332778
389 2 12.1962 25.5764 1.81828 12.1962 25.5764 1.81828
390 2 12.0206 25.939 -1.36628 12.0206 25.939 -1.36628
391 1 12.9498 24.1544 -0.0493892 12.9498 24.1544 -0.0493892
392 2 14.7422 24.1769 1.66498 14.7422 24.1769 1.66498
393 2 14.9914 24.1786 -1.49078 14.9914 24.1786 -1.49078
394 1 15.9235 25.7928 0.213733 15.9235 25.7928 0.213733
395 2 17.9203 25.9552 1.90559 17.9203 25.9552 1.90559
396 2 17.9086 25.5535 -1.34335 17.9086 25.5535 -1.34335
397 1 18.7825 24.0938 0.499363 18.7825 24.0938 0.499363
398 2 20.7585 24.1671 2.05612 20.7585 24.1671 2.05612
399 2 20.6537 23.9012 -1.1267 20.6537 23.9012 -1.1267
400 1 21.6579 25.6463 0.295531 21.6579 25.6463 0.295531
401 2 23.573 25.8496 1.87146 23.573 25.8496 1.87146
402 2 23.4628 25.4855 -1.36619 23.4628 25.4855 -1.36619
403 1 24.4902 23.9617 0.432033 24.4902 23.9617 0.432033
404 2 26.4706 23.9404 1.89641 26.4706 23.9404 1.89641
405 2 26.2245 24.236 -1.40843 26.2245 24.236 -1.40843
406 1 27.2925 25.7006 0.274983 27.2925 25.7006 0.274983
407 2 29.2099 25.6208 1.91128 29.2099 25.6208 1.91128
408 2 29.2096 25.695 -1.28062 29.2096 25.695 -1.28062
409 1 30.1329 23.9384 0.227807 30.1329 23.9384 0.227807
410 2 32.0469 24.0275 1.8169 32.0469 24.0275 1.8169
411 2 31.8747 23.9811 -1.43686 31.8747 23.9811 -1.43686
412 1 33.0552 25.6137 0.210798 33.0552 25.6137 0.210798
413 2 35.1802 25.577 1.53065 35.1802 25.577 1.53065
414 2 34.5978 25.564 -1.75195 34.5978 25.564 -1.75195
415 1 35.8907 23.9817 -0.258979 35.8907 23.9817 -0.258979
416 2 37.7884 24.1592 1.28605 37.7884 24.1592 1.28605
417 2 37.6609 23.9983 -2.01445 37.6609 23.9983 -2.01445
418 1 38.6382 25.7856 -0.528618 38.6382 25.7856 -0.528618
419 2 40.5999 25.6261 1.10262 40.5999 25.6261 1.10262
420 2 40.5913 25.8645 -2.08302 40.5913 25.8645 -2.08302
421 1 41.5196 24.1248 -0.518461 41.5196 24.1248 -0.518461
422 2 43.3527 23.8842 1.15158 43.3527 23.8842 1.15158
423 2 43.4881 24.2804 -2.0876 43.4881 24.2804 -2.0876
424 1 44.4243 25.7556 -0.254355 44.4243 25.7556 -0.254355
425 2 46.3427 25.7953 1.23481 46.3427 25.7953 1.23481
426 2 46.2179 25.7927 -1.96475 46.2179 25.7927 -1.96475
427 1 47.2352 24.0212 -0.500859 47.2352 24.0212 -0.500859
428 2 49.1015 23.9066 1.0495 49.1015 23.9066 1.0495
429 2 49.047 24.1158 -2.19501 49.047 24.1158 -2.19501
430 1 50.0859 25.6307 -0.479735 50.0859 25.6307 -0.479735
431 2 51.8902 25.6024 1.23137 51.8902 25.6024 1.23137
432 2 52.1471 25.727 -2.00794 52.1471 25.727 -2.00794
433 1 1.55477 27.3492 -0.186676 1.55477 27.3492 -0.186676
434 2 3.58098 27.5175 1.50586 3.58098 27.5175 1.50586
435 2 3.49065 27.3494 -1.78048 3.49065 27.3494 -1.78048
436 1 4.51124 29.0916 -0.346327 4.51124 29.0916 -0.346327
437 2 6.12101 29.0709 1.60345 6.12101 29.0709 1.60345
438 2 6.67949 28.9056 -1.62911 6.67949 28.9056 -1.62911
439 1 7.3519 27.3416 0.253155 7.3519 27.3416 0.253155
440 2 9.04436 27.1761 2.00831 9.04436 27.1761 2.00831
441 2 9.34421 27.5397 -1.18206 9.34421 27.5397 -1.18206
442 1 10.1694 29.0503 0.648319 10.1694 29.0503 0.648319
443 2 12.1797 29.0818 2.13461 12.1797 29.0818 2.13461
444 2 11.9955 29.0437 -1.16861 11.9955 29.0437 -1.16861
445 1 13.1059 27.3958 0.340147 13.1059 27.3958 0.340147
446 2 15.0314 27.539 1.89546 15.0314 27.539 1.89546
447 2 15.0295 27.3809 -1.35786 15.0295 27.3809 -1.35786
448 1 16.0496 29.035 0.202088 16.0496 29.035 0.202088
449 2 18.091 28.9171 1.81373 18.091 28.9171 1.81373
450 2 17.9111 29.0658 -1.47063 17.9111 29.0658 -1.47063
451 1 18.8494 27.2801 0.096031 18.8494 27.2801 0.096031
452 2 20.7028 27.3833 1.81406 20.7028 27.3833 1.81406
453 2 20.8037 27.261 -1.52088 20.8037 27.261 -1.52088
454 1 21.742 28.9466 0.11432 21.742 28.9466 0.11432
455 2 23.688 28.9894 1.66216 23.688 28.9894 1.66216
456 2 23.5231 29.0515 -1.55523 23.5231 29.0515 -1.55523
457 1 24.4793 27.3138 0.067989 24.4793 27.3138 0.067989
458 2 26.2802 27.3414 1.76493 26.2802 27.3414 1.76493
459 2 26.4887 27.3165 -1.50632 26.4887 27.3165 -1.50632
460 1 27.4051 28.8882 0.174191 27.4051 28.8882 0.174191
461 2 29.2827 29.119 1.87339 29.2827 29.119 1.87339
462 2 29.3222 28.7365 -1.36377 29.3222 28.7365 -1.36377
463 1 30.209 27.2865 0.422871 30.209 27.2865 0.422871
464 2 32.2633 27.495 1.84925 32.2633 27.495 1.84925
465 2 31.9089 27.2322 -1.36553 31.9089 27.2322 -1.36553
466 1 33.097 29.0158 0.0636531 33.097 29.0158 0.0636531
467 2 35.0992 28.7552 1.48955 35.0992 28.7552 1.48955
468 2 34.8458 29.1832 -1.65938 34.8458 29.1832 -1.65938
469 1 35.7976 27.3098 -0.277723 35.7976 27.3098 -0.277723
470 2 37.8119 27.2766 1.28745 37.8119 27.2766 1.28745
471 2 37.6241 27.5148 -1.96476 37.6241 27.5148 -1.96476
472 1 38.7446 29.0234 -0.242584 38.7446 29.0234 -0.242584
473 2 40.6243 28.8762 1.37689 40.6243 28.8762 1.37689
474 2 40.5398 29.0862 -1.91904 40.5398 29.0862 -1.91904
475 1 41.6026 27.4157 -0.372559 41.6026 27.4157 -0.372559
476 2 43.4722 27.5813 1.18484 43.4722 27.5813 1.18484
477 2 43.4119 27.3307 -2.02087 43.4119 27.3307 -2.02087
478 1 44.5339 29.0194 -0.480859 44.5339 29.0194 -0.480859
479 2 46.3427 28.9498 1.25331 46.3427 28.9498 1.25331
480 2 46.5547 29.2014 -1.98025 46.5547 29.2014 -1.98025
481 1 47.3115 27.4247 -0.459287 47.3115 27.4247 -0.459287
482 2 49.1511 27.2185 1.20883 49.1511 27.2185 1.20883
483 2 49.3025 27.6116 -1.96842 49.3025 27.6116 -1.96842
484 1 50.1775 28.9785 -0.108562 50.1775 28.9785 -0.108562
485 2 52.223 29.2259 1.39269 52.223 29.2259 1.39269
486 2 52.0119 29.0377 -1.86674 52.0119 29.0377 -1.86674
487 1 1.73179 30.7392 -0.266469 1.73179 30.7392 -0.266469
488 2 3.51862 30.6504 1.4326 3.51862 30.6504 1.4326
489 2 3.63193 30.9649 -1.83946 3.63193 30.9649 -1.83946
490 1 4.5367 32.3302 0.0041929 4.5367 32.3302 0.0041929
491 2 6.25225 32.1776 1.72845 6.25225 32.1776 1.72845
492 2 6.50759 32.533 -1.45354 6.50759 32.533 -1.45354
493 1 7.32118 30.6926 0.0555175 7.32118 30.6926 0.0555175
494 2 8.94247 30.7929 2.0401 8.94247 30.7929 2.0401
495 2 9.56578 30.6727 -1.16459 9.56578 30.6727 -1.16459
496 1 10.302 32.34 0.486391 10.302 32.34 0.486391
497 2 12.392 32.3886 1.92887 12.392 32.3886 1.92887
498 2 12.1224 32.3464 -1.26237 12.1224 32.3464 -1.26237
499 1 13.1088 30.6567 0.390234 13.1088 30.6567 0.390234
500 2 15.1675 30.7604 1.82675 15.1675 30.7604 1.82675
501 2 14.9446 30.6534 -1.47646 14.9446 30.6534 -1.47646
502 1 16.1215 32.2807 0.0325236 16.1215 32.2807 0.0325236
503 2 17.882 32.2335 1.76536 17.882 32.2335 1.76536
504 2 18.0994 32.3117 -1.53459 18.0994 32.3117 -1.53459
505 1 18.9065 30.629 0.134293 18.9065 30.629 0.134293
506 2 20.7597 30.6319 1.81842 20.7597 30.6319 1.81842
507 2 20.9295 30.6334 -1.53741 20.9295 30.6334 -1.53741
508 1 21.7526 32.2964 0.166178 21.7526 32.2964 0.166178
509 2 23.6533 32.2585 1.69156 23.6533 32.2585 1.69156
510 2 23.5746 32.3385 -1.60241 23.5746 32.3385 -1.60241
511 1 24.5387 30.6077 0.00511918 24.5387 30.6077 0.00511918
512 2 26.4014 30.5365 1.68063 26.4014 30.5365 1.68063
513 2 26.5278 30.5719 -1.48869 26.5278 30.5719 -1.48869
514 1 27.4292 32.229 0.0457627 27.4292 32.229 0.0457627
515 2 29.2976 32.2401 1.76442 29.2976 32.2401 1.76442
516 2 29.3283 32.2748 -1.53504 29.3283 32.2748 -1.53504
517 1 30.2504 30.6839 0.155203 30.2504 30.6839 0.155203
518 2 32.2694 30.7222 1.6832 32.2694 30.7222 1.6832
519 2 32.1405 30.5274 -1.62435 32.1405 30.5274 -1.62435
520 1 33.0581 32.3476 -0.138634 33.0581 32.3476 -0.138634
521 2 34.9986 32.2623 1.58619 34.9986 32.2623 1.58619
522 2 35.0998 32.28 -1.63291 35.0998 32.28 -1.63291
523 1 36.0017 30.6126 0.0555155 36.0017 30.6126 0.0555155
524 2 38.0905 30.6468 1.43979 38.0905 30.6468 1.43979
525 2 37.7049 30.7385 -1.78917 37.7049 30.7385 -1.78917
526 1 38.8551 32.2702 -0.221299 38.8551 32.2702 -0.221299
527 2 40.7531 32.3114 1.30541 40.7531 32.3114 1.30541
528 2 40.6556 32.1739 -1.93687 40.6556 32.1739 -1.93687
529 1 41.6437 30.5798 -0.25611 41.6437 30.5798 -0.25611
530 2 43.6935 30.5637 1.35627 43.6935 30.5637 1.35627
531 2 43.5215 30.6869 -1.9491 43.5215 30.6869 -1.9491
532 1 44.536 32.2726 -0.32939 44.536 32.2726 -0.32939
533 2 46.2744 32.1606 1.44021 46.2744 32.1606 1.44021
534 2 46.6453 32.348 -1.79415 46.6453 32.348 -1.79415
535 1 47.3674 30.6671 -0.17317 47.3674 30.6671 -0.17317
536 2 49.2658 30.6062 1.52909 49.2658 30.6062 1.52909
537 2 49.4682 30.7962 -1.62354 49.4682 30.7962 -1.62354
538 1 50.3184 32.2678 0.0577737 50.3184 32.2678 0.0577737