ITEM: TIMESTEP
2667000
ITEM: NUMBER OF ATOMS
810
ITEM: BOX BOUNDS xy xz yz pp pp pp
8.0341777045796159e-01 6.5390387378519549e+01 1.3176200148977046e+01
8.0582000660415243e-01 5.0210394993394715e+01 0.0000000000000000e+00
-1.0000000000000000e+01 1.0000000000000000e+01 0.0000000000000000e+00
ITEM: ATOMS id type x y z xu yu zu
1 1 1.03536 1.25952 3.01833 1.03536 1.25952 3.01833
2 2 3.01574 1.44047 4.69185 3.01574 1.44047 4.69185
3 2 3.04182 1.08858 1.47354 3.04182 1.08858 1.47354
4 1 4.50064 2.77383 3.00162 4.50064 2.77383 3.00162
5 2 6.37841 2.77404 4.68189 6.37841 2.77404 4.68189
6 2 6.44175 2.8792 1.47327 6.44175 2.8792 1.47327
7 1 20.3415 50.3503 3.06036 7.16532 0.945741 3.06036
8 2 22.5986 49.965 4.22722 9.42237 0.56043 4.22722
9 2 8.69157 1.23518 1.00993 8.69157 1.23518 1.00993
10 1 10.4372 2.56066 2.87735 10.4372 2.56066 2.87735
11 2 12.734 1.88541 3.91593 12.734 1.88541 3.91593
12 2 11.9796 3.05769 0.887502 11.9796 3.05769 0.887502
13 1 26.0519 50.1832 1.59229 12.8757 0.778601 1.59229
14 2 28.4602 49.694 2.33511 15.284 0.28945 2.33511
15 2 14.2085 1.60598 -0.4285 14.2085 1.60598 -0.4285
16 1 16.1674 2.44395 1.20801 16.1674 2.44395 1.20801
17 2 18.5516 1.87527 1.73918 18.5516 1.87527 1.73918
18 2 17.3142 3.34153 -0.893642 17.3142 3.34153 -0.893642
19 1 18.2223 0.981618 -0.592854 18.2223 0.981618 -0.592854
20 2 33.7818 49.719 0.0275528 20.6056 0.314468 0.0275528
21 2 19.5875 1.84635 -2.62944 19.5875 1.84635 -2.62944
22 1 21.5259 2.6986 -1.02934 21.5259 2.6986 -1.02934
23 2 23.8564 2.19035 -0.512546 23.8564 2.19035 -0.512546
24 2 22.6694 3.25871 -3.35506 22.6694 3.25871 -3.35506
25 1 23.7863 1.16047 -2.88146 23.7863 1.16047 -2.88146
26 2 26.0471 0.94149 -1.7635 26.0471 0.94149 -1.7635
27 2 25.4069 1.25081 -4.88937 25.4069 1.25081 -4.88937
28 1 27.1952 2.80785 -3.34568 27.1952 2.80785 -3.34568
29 2 29.3859 2.50747 -1.79 29.3859 2.50747 -1.79
30 2 29.1171 2.68416 -5.05138 29.1171 2.68416 -5.05138
31 1 29.8952 0.88837 -3.55862 29.8952 0.88837 -3.55862
32 2 31.7977 1.06478 -1.91045 31.7977 1.06478 -1.91045
33 2 44.9851 50.0267 -5.18749 31.8089 0.62214 -5.18749
34 1 33.1859 2.44971 -3.69572 33.1859 2.44971 -3.69572
35 2 34.9482 2.92457 -1.85641 34.9482 2.92457 -1.85641
36 2 35.4779 2.15478 -5.06842 35.4779 2.15478 -5.06842
37 1 48.9271 50.0842 -2.9527 35.7509 0.679641 -2.9527
38 2 37.2068 1.55935 -0.85644 37.2068 1.55935 -0.85644
39 2 51.3782 49.3838 -3.50488 38.202 -0.0208215 -3.50488
40 1 39.0638 2.37941 -2.42378 39.0638 2.37941 -2.42378
41 2 40.5344 3.06482 -0.524629 40.5344 3.06482 -0.524629
42 2 41.2177 1.75412 -3.35982 41.2177 1.75412 -3.35982
43 1 41.4135 0.767624 -1.08026 41.4135 0.767624 -1.08026
44 2 42.6772 1.82083 1.01593 42.6772 1.82083 1.01593
45 2 56.9883 49.4886 -1.42342 43.8121 0.0840537 -1.42342
46 1 44.6476 2.58445 -0.513746 44.6476 2.58445 -0.513746
47 2 45.7404 3.38438 1.66736 45.7404 3.38438 1.66736
48 2 46.9704 1.88436 -0.972144 46.9704 1.88436 -0.972144
49 1 46.6617 1.11664 1.43999 46.6617 1.11664 1.43999
50 2 48.0267 1.89935 3.46919 48.0267 1.89935 3.46919
51 2 49.0065 0.691676 0.634914 49.0065 0.691676 0.634914
52 1 50.0009 2.93734 1.88883 50.0009 2.93734 1.88883
53 2 51.5275 3.54196 3.90872 51.5275 3.54196 3.90872
54 2 52.1378 2.5114 0.826595 52.1378 2.5114 0.826595
55 1 53.224 4.56935 2.13991 1.81326 4.56935 2.13991
56 2 3.43013 4.93432 3.99941 3.43013 4.93432 3.99941
57 2 4.084 4.19771 0.929632 4.084 4.19771 0.929632
58 1 5.16277 6.11465 2.42285 5.16277 6.11465 2.42285
59 2 6.80915 6.33121 4.45885 6.80915 6.33121 4.45885
60 2 7.4844 5.92675 1.23213 7.4844 5.92675 1.23213
61 1 7.80008 4.36032 3.13941 7.80008 4.36032 3.13941
62 2 9.85136 4.12321 4.67591 9.85136 4.12321 4.67591
63 2 9.77582 4.51613 1.44959 9.77582 4.51613 1.44959
64 1 11.0732 5.87541 3.25229 11.0732 5.87541 3.25229
65 2 13.2334 5.48172 4.63348 13.2334 5.48172 4.63348
66 2 12.9336 6.08452 1.426 12.9336 6.08452 1.426
67 1 13.7049 4.02904 2.64259 13.7049 4.02904 2.64259
68 2 16.0234 3.52805 3.56569 16.0234 3.52805 3.56569
69 2 15.244 4.6236 0.569196 15.244 4.6236 0.569196
70 1 16.9875 5.6562 2.37777 16.9875 5.6562 2.37777
71 2 19.4667 4.94575 3.0359 19.4667 4.94575 3.0359
72 2 18.3689 6.44571 0.336621 18.3689 6.44571 0.336621
73 1 19.3628 4.13421 0.683728 19.3628 4.13421 0.683728
74 2 21.6689 3.51964 1.41481 21.6689 3.51964 1.41481
75 2 20.6975 5.11848 -1.29434 20.6975 5.11848 -1.29434
76 1 22.5765 5.73577 0.409604 22.5765 5.73577 0.409604
77 2 24.9784 4.99429 0.644321 24.9784 4.99429 0.644321
78 2 23.5915 6.6361 -1.75478 23.5915 6.6361 -1.75478
79 1 24.6781 4.35047 -1.73797 24.6781 4.35047 -1.73797
80 2 27.1733 3.8777 -0.939502 27.1733 3.8777 -0.939502
81 2 26.0364 5.02842 -3.86917 26.0364 5.02842 -3.86917
82 1 28.0146 6.04612 -2.14519 28.0146 6.04612 -2.14519
83 2 30.23 5.53295 -1.08685 30.23 5.53295 -1.08685
84 2 29.4771 6.452 -4.17299 29.4771 6.452 -4.17299
85 1 30.4533 4.27121 -3.40579 30.4533 4.27121 -3.40579
86 2 32.5646 4.18479 -1.91434 32.5646 4.18479 -1.91434
87 2 32.3875 4.3409 -5.08562 32.3875 4.3409 -5.08562
88 1 33.8439 5.96848 -3.44539 33.8439 5.96848 -3.44539
89 2 35.7907 5.95707 -1.8624 35.7907 5.95707 -1.8624
90 2 35.9274 6.02573 -5.07887 35.9274 6.02573 -5.07887
91 1 36.5069 4.19113 -3.45335 36.5069 4.19113 -3.45335
92 2 38.0943 4.42772 -1.4515 38.0943 4.42772 -1.4515
93 2 38.6871 3.71583 -4.55154 38.6871 3.71583 -4.55154
94 1 39.8055 5.69948 -3.2049 39.8055 5.69948 -3.2049
95 2 41.5437 6.20271 -1.29086 41.5437 6.20271 -1.29086
96 2 42.0441 5.0623 -4.43274 42.0441 5.0623 -4.43274
97 1 42.2605 3.9991 -2.2318 42.2605 3.9991 -2.2318
98 2 43.694 4.84084 -0.152346 43.694 4.84084 -0.152346
99 2 44.6107 3.2899 -2.87615 44.6107 3.2899 -2.87615
100 1 45.6003 5.67558 -1.77346 45.6003 5.67558 -1.77346
101 2 46.8208 6.67981 0.250654 46.8208 6.67981 0.250654
102 2 47.951 5.18363 -2.28633 47.951 5.18363 -2.28633
103 1 47.769 4.37426 0.147909 47.769 4.37426 0.147909
104 2 49.0082 5.16892 2.1175 49.0082 5.16892 2.1175
105 2 50.0976 3.70481 -0.612365 50.0976 3.70481 -0.612365
106 1 50.8953 6.08315 0.553952 50.8953 6.08315 0.553952
107 2 52.1698 6.80623 2.71882 52.1698 6.80623 2.71882
108 2 53.2135 5.59439 -0.210694 53.2135 5.59439 -0.210694
109 1 2.72632 7.75466 1.04351 2.72632 7.75466 1.04351
110 2 4.16846 8.34357 3.12833 4.16846 8.34357 3.12833
111 2 5.00615 7.197 0.181032 5.00615 7.197 0.181032
112 1 5.89764 9.40879 1.47072 5.89764 9.40879 1.47072
113 2 7.49261 10.0201 3.39825 7.49261 10.0201 3.39825
114 2 8.21241 9.02664 0.582477 8.21241 9.02664 0.582477
115 1 8.50693 7.85258 2.81556 8.50693 7.85258 2.81556
116 2 10.2193 7.85615 4.68535 10.2193 7.85615 4.68535
117 2 10.6163 7.78295 1.41811 10.6163 7.78295 1.41811
118 1 11.7567 9.4407 3.08595 11.7567 9.4407 3.08595
119 2 13.7264 9.36551 4.72906 13.7264 9.36551 4.72906
120 2 13.7601 9.17516 1.59314 13.7601 9.17516 1.59314
121 1 14.3324 7.41633 3.30847 14.3324 7.41633 3.30847
122 2 16.7381 7.00514 4.37756 16.7381 7.00514 4.37756
123 2 16.0975 7.78943 1.27047 16.0975 7.78943 1.27047
124 1 17.6848 9.04315 3.04179 17.6848 9.04315 3.04179
125 2 19.8424 8.46638 4.21843 19.8424 8.46638 4.21843
126 2 19.3747 9.48049 1.23165 19.3747 9.48049 1.23165
127 1 20.1976 7.32847 2.03992 20.1976 7.32847 2.03992
128 2 22.6927 6.74402 2.85971 22.6927 6.74402 2.85971
129 2 21.6441 8.04775 -0.0609226 21.6441 8.04775 -0.0609226
130 1 23.5807 8.94943 1.60211 23.5807 8.94943 1.60211
131 2 25.9939 8.26504 2.18474 25.9939 8.26504 2.18474
132 2 24.9165 9.86585 -0.424641 24.9165 9.86585 -0.424641
133 1 25.7816 7.42394 -0.365502 25.7816 7.42394 -0.365502
134 2 28.2052 6.87245 0.221359 28.2052 6.87245 0.221359
135 2 26.9759 8.37111 -2.4432 26.9759 8.37111 -2.4432
136 1 28.9797 9.22678 -0.855824 28.9797 9.22678 -0.855824
137 2 31.3344 8.73865 -0.149594 31.3344 8.73865 -0.149594
138 2 30.3054 9.95322 -2.8904 30.3054 9.95322 -2.8904
139 1 31.1858 7.59817 -2.43267 31.1858 7.59817 -2.43267
140 2 33.4087 7.19315 -1.29659 33.4087 7.19315 -1.29659
141 2 32.9181 8.18921 -4.26993 32.9181 8.18921 -4.26993
142 1 34.6124 9.3624 -2.52659 34.6124 9.3624 -2.52659
143 2 36.8345 9.05041 -1.33933 36.8345 9.05041 -1.33933
144 2 36.2288 9.58725 -4.54063 36.2288 9.58725 -4.54063
145 1 37.2083 7.64782 -3.39553 37.2083 7.64782 -3.39553
146 2 39.277 7.78523 -1.75489 39.277 7.78523 -1.75489
147 2 39.2247 7.41044 -5.07061 39.2247 7.41044 -5.07061
148 1 40.4696 9.29213 -3.56189 40.4696 9.29213 -3.56189
149 2 42.5391 9.52772 -2.01927 42.5391 9.52772 -2.01927
150 2 42.5915 8.86379 -5.042 42.5915 8.86379 -5.042
151 1 43.1011 7.38127 -3.19395 43.1011 7.38127 -3.19395
152 2 44.7574 8.05917 -1.21329 44.7574 8.05917 -1.21329
153 2 45.3429 6.71723 -4.0775 45.3429 6.71723 -4.0775
154 1 46.4364 9.0691 -2.95636 46.4364 9.0691 -2.95636
155 2 47.9703 9.82472 -0.856994 47.9703 9.82472 -0.856994
156 2 48.7016 8.4133 -3.60799 48.7016 8.4133 -3.60799
157 1 48.7704 7.52253 -1.34119 48.7704 7.52253 -1.34119
158 2 49.9743 8.43357 0.766119 49.9743 8.43357 0.766119
159 2 51.0336 6.82875 -1.94825 51.0336 6.82875 -1.94825
160 1 51.9611 9.12675 -0.926198 51.9611 9.12675 -0.926198
161 2 53.1543 10.1315 1.10143 53.1543 10.1315 1.10143
162 2 2.89895 8.37763 -1.38389 54.3097 8.37763 -1.38389
163 1 3.76031 10.8042 -0.425995 3.76031 10.8042 -0.425995
164 2 5.0654 11.8854 1.57944 5.0654 11.8854 1.57944
165 2 6.00823 10.053 -0.961241 6.00823 10.053 -0.961241
166 1 6.95843 12.4703 -0.0416047 6.95843 12.4703 -0.0416047
167 2 8.14786 13.3596 2.04109 8.14786 13.3596 2.04109
168 2 9.32877 11.7407 -0.55002 9.32877 11.7407 -0.55002
169 1 9.24515 11.128 1.8668 9.24515 11.128 1.8668
170 2 10.8852 11.7628 3.78998 10.8852 11.7628 3.78998
171 2 11.6144 10.8191 0.814765 11.6144 10.8191 0.814765
172 1 12.5137 12.7962 2.11583 12.5137 12.7962 2.11583
173 2 14.0853 13.0736 4.09576 14.0853 13.0736 4.09576
174 2 14.7799 12.4437 1.05028 14.7799 12.4437 1.05028
175 1 15.0391 10.9768 3.11358 15.0391 10.9768 3.11358
176 2 16.9569 10.8241 4.79143 16.9569 10.8241 4.79143
177 2 17.2555 11.0881 1.58106 17.2555 11.0881 1.58106
178 1 18.4499 12.5564 3.27061 18.4499 12.5564 3.27061
179 2 20.5768 12.2401 4.62814 20.5768 12.2401 4.62814
180 2 20.3921 12.5447 1.51283 20.3921 12.5447 1.51283
181 1 20.9998 10.5322 2.91084 20.9998 10.5322 2.91084
182 2 23.4351 9.99679 3.8818 23.4351 9.99679 3.8818
183 2 22.7667 11.2302 0.979176 22.7667 11.2302 0.979176
184 1 24.4247 12.2374 2.78133 24.4247 12.2374 2.78133
185 2 26.8282 11.7271 3.59961 26.8282 11.7271 3.59961
186 2 25.8947 12.8547 0.744282 25.8947 12.8547 0.744282
187 1 26.8123 10.6714 1.18735 26.8123 10.6714 1.18735
188 2 29.2998 9.98015 1.54768 29.2998 9.98015 1.54768
189 2 28.1427 11.6235 -0.939238 28.1427 11.6235 -0.939238
190 1 30.1113 12.3549 0.701779 30.1113 12.3549 0.701779
191 2 32.4238 11.6989 1.13125 32.4238 11.6989 1.13125
192 2 31.3937 13.326 -1.42257 31.3937 13.326 -1.42257
193 1 32.178 10.9529 -1.28797 32.178 10.9529 -1.28797
194 2 34.5106 10.6431 -0.310269 34.5106 10.6431 -0.310269
195 2 33.6694 11.6595 -3.28703 33.6694 11.6595 -3.28703
196 1 35.4377 12.6632 -1.71928 35.4377 12.6632 -1.71928
197 2 37.8392 12.3108 -0.801715 37.8392 12.3108 -0.801715
198 2 36.8195 13.3383 -3.74582 36.8195 13.3383 -3.74582
199 1 37.8949 11.0918 -2.93763 37.8949 11.0918 -2.93763
200 2 40.1344 10.982 -1.6734 40.1344 10.982 -1.6734
201 2 39.6337 11.2593 -4.85559 39.6337 11.2593 -4.85559
202 1 41.1793 12.7991 -3.37938 41.1793 12.7991 -3.37938
203 2 43.4119 12.7701 -2.0053 43.4119 12.7701 -2.0053
204 2 43.0925 12.8582 -5.13203 43.0925 12.8582 -5.13203
205 1 43.8726 10.9104 -3.7494 43.8726 10.9104 -3.7494
206 2 45.6753 11.2333 -1.94414 45.6753 11.2333 -1.94414
207 2 46.1021 10.4054 -4.94229 46.1021 10.4054 -4.94229
208 1 47.2325 12.3961 -3.56977 47.2325 12.3961 -3.56977
209 2 48.7947 12.907 -1.71543 48.7947 12.907 -1.71543
210 2 49.3674 11.9123 -4.71968 49.3674 11.9123 -4.71968
211 1 49.5076 10.675 -2.576 49.5076 10.675 -2.576
212 2 50.9454 11.4099 -0.614345 50.9454 11.4099 -0.614345
213 2 51.8631 9.94285 -3.31361 51.8631 9.94285 -3.31361
214 1 52.8673 12.3838 -2.27543 52.8673 12.3838 -2.27543
215 2 54.1429 13.0827 -0.134018 54.1429 13.0827 -0.134018
216 2 3.88582 11.6969 -2.80331 55.2966 11.6969 -2.80331
217 1 4.73331 13.9928 -1.71487 4.73331 13.9928 -1.71487
218 2 6.17805 14.8233 0.287951 6.17805 14.8233 0.287951
219 2 7.13367 13.1232 -2.44384 7.13367 13.1232 -2.44384
220 1 8.04263 15.7047 -1.48679 8.04263 15.7047 -1.48679
221 2 9.2635 16.5446 0.549198 9.2635 16.5446 0.549198
222 2 10.4101 14.967 -2.00369 10.4101 14.967 -2.00369
223 1 10.1122 14.193 0.444962 10.1122 14.193 0.444962
224 2 11.4524 14.9417 2.51096 11.4524 14.9417 2.51096
225 2 12.5597 13.7669 -0.245899 12.5597 13.7669 -0.245899
226 1 13.4198 15.8672 1.03799 13.4198 15.8672 1.03799
227 2 14.9452 16.7702 2.98963 14.9452 16.7702 2.98963
228 2 15.7541 15.5375 0.141153 15.7541 15.5375 0.141153
229 1 15.864 14.5035 2.53252 15.864 14.5035 2.53252
230 2 17.7172 14.8825 4.34495 17.7172 14.8825 4.34495
231 2 18.0717 14.1209 1.35367 18.0717 14.1209 1.35367
232 1 19.1887 16.2019 2.74483 19.1887 16.2019 2.74483
233 2 21.0586 16.2518 4.55081 21.0586 16.2518 4.55081
234 2 21.2959 15.7876 1.31828 21.2959 15.7876 1.31828
235 1 21.6971 14.2072 3.14734 21.6971 14.2072 3.14734
236 2 23.8476 13.8658 4.60581 23.8476 13.8658 4.60581
237 2 23.6027 14.2333 1.33611 23.6027 14.2333 1.33611
238 1 25.1474 15.6933 3.00709 25.1474 15.6933 3.00709
239 2 27.3362 15.3558 4.39117 27.3362 15.3558 4.39117
240 2 26.9483 15.9983 1.22015 26.9483 15.9983 1.22015
241 1 27.7294 13.851 2.32294 27.7294 13.851 2.32294
242 2 30.0745 13.1768 3.13313 30.0745 13.1768 3.13313
243 2 29.1399 14.5762 0.261138 29.1399 14.5762 0.261138
244 1 31.0104 15.5513 2.14158 31.0104 15.5513 2.14158
245 2 33.5403 14.8913 2.64474 33.5403 14.8913 2.64474
246 2 32.2719 16.3524 -0.0301301 32.2719 16.3524 -0.0301301
247 1 33.3179 14.0482 0.328705 33.3179 14.0482 0.328705
248 2 35.7231 13.3798 0.831049 35.7231 13.3798 0.831049
249 2 34.4781 14.9822 -1.80941 34.4781 14.9822 -1.80941
250 1 36.6036 15.7674 -0.154713 36.6036 15.7674 -0.154713
251 2 38.9327 15.175 0.336954 38.9327 15.175 0.336954
252 2 37.718 16.6832 -2.21713 37.718 16.6832 -2.21713
253 1 38.6378 14.4459 -2.07939 38.6378 14.4459 -2.07939
254 2 40.9997 13.9528 -1.16871 40.9997 13.9528 -1.16871
255 2 40.181 15.1101 -4.10044 40.181 15.1101 -4.10044
256 1 41.9143 16.0563 -2.45429 41.9143 16.0563 -2.45429
257 2 44.1775 15.8105 -1.44777 44.1775 15.8105 -1.44777
258 2 43.5242 16.5565 -4.58038 43.5242 16.5565 -4.58038
259 1 44.4556 14.3955 -3.61133 44.4556 14.3955 -3.61133
260 2 46.4552 14.3831 -2.03466 46.4552 14.3831 -2.03466
261 2 46.5407 14.1611 -5.24468 46.5407 14.1611 -5.24468
262 1 47.7268 15.9788 -3.6711 47.7268 15.9788 -3.6711
263 2 49.5866 15.9531 -2.00485 49.5866 15.9531 -2.00485
264 2 49.7561 15.7491 -5.21846 49.7561 15.7491 -5.21846
265 1 50.3944 14.0447 -3.51285 50.3944 14.0447 -3.51285
266 2 52.0066 14.526 -1.50103 52.0066 14.526 -1.50103
267 2 52.7191 13.5488 -4.49968 52.7191 13.5488 -4.49968
268 1 53.6729 15.5948 -3.13185 53.6729 15.5948 -3.13185
269 2 55.3277 16.2449 -1.08374 55.3277 16.2449 -1.08374
270 2 4.6026 15.0026 -4.05776 56.0134 15.0026 -4.05776
271 1 5.55188 17.3184 -2.91485 5.55188 17.3184 -2.91485
272 2 7.09715 18.029 -1.05903 7.09715 18.029 -1.05903
273 2 7.95061 16.6109 -3.80065 7.95061 16.6109 -3.80065
274 1 8.96568 18.8043 -2.7077 8.96568 18.8043 -2.7077
275 2 10.3693 19.5338 -0.67429 10.3693 19.5338 -0.67429
276 2 11.2937 18.1457 -3.40075 11.2937 18.1457 -3.40075
277 1 11.336 17.2436 -1.1014 11.336 17.2436 -1.1014
278 2 12.4671 18.3022 0.923828 12.4671 18.3022 0.923828
279 2 13.5999 16.5215 -1.53596 13.5999 16.5215 -1.53596
280 1 14.4774 18.9242 -0.683099 14.4774 18.9242 -0.683099
281 2 15.6352 19.9736 1.39548 15.6352 19.9736 1.39548
282 2 17.0815 18.6359 -1.11042 17.0815 18.6359 -1.11042
283 1 16.7177 17.6928 1.29451 16.7177 17.6928 1.29451
284 2 18.1251 18.3997 3.39634 18.1251 18.3997 3.39634
285 2 19.071 17.2557 0.555082 19.071 17.2557 0.555082
286 1 20.0592 19.4358 1.77562 20.0592 19.4358 1.77562
287 2 21.5578 19.8144 3.69043 21.5578 19.8144 3.69043
288 2 22.3733 19.0465 0.568535 22.3733 19.0465 0.568535
289 1 22.5715 17.6209 2.81722 22.5715 17.6209 2.81722
290 2 24.4204 17.5964 4.45735 24.4204 17.5964 4.45735
291 2 24.5937 17.5024 1.25027 24.5937 17.5024 1.25027
292 1 25.7961 19.1399 2.92594 25.7961 19.1399 2.92594
293 2 27.7185 19.0519 4.64819 27.7185 19.0519 4.64819
294 2 27.9047 19.2364 1.41388 27.9047 19.2364 1.41388
295 1 28.43 17.2997 2.98949 28.43 17.2997 2.98949
296 2 30.7727 17.0126 4.16298 30.7727 17.0126 4.16298
297 2 30.0642 17.6251 1.0698 30.0642 17.6251 1.0698
298 1 31.7517 18.958 2.70883 31.7517 18.958 2.70883
299 2 34.0731 18.3338 3.80336 34.0731 18.3338 3.80336
300 2 33.4965 19.4688 0.877489 33.4965 19.4688 0.877489
301 1 34.2977 17.2098 1.58048 34.2977 17.2098 1.58048
302 2 36.6864 16.4953 2.25659 36.6864 16.4953 2.25659
303 2 35.5883 18.0794 -0.437725 35.5883 18.0794 -0.437725
304 1 37.604 18.878 1.32837 37.604 18.878 1.32837
305 2 40.0602 18.3782 1.61047 40.0602 18.3782 1.61047
306 2 38.7738 19.8731 -0.750365 38.7738 19.8731 -0.750365
307 1 39.6721 17.5296 -0.697776 39.6721 17.5296 -0.697776
308 2 42.1485 17.0433 -0.117125 42.1485 17.0433 -0.117125
309 2 40.8933 18.334 -2.78068 40.8933 18.334 -2.78068
310 1 42.917 19.338 -1.33578 42.917 19.338 -1.33578
311 2 45.2518 18.8745 -0.489246 45.2518 18.8745 -0.489246
312 2 44.2193 20.1746 -3.35909 44.2193 20.1746 -3.35909
313 1 45.2723 17.8031 -2.88869 45.2723 17.8031 -2.88869
314 2 47.4064 17.5639 -1.64534 47.4064 17.5639 -1.64534
315 2 46.757 18.1591 -4.7163 46.757 18.1591 -4.7163
316 1 48.4776 19.4151 -3.13196 48.4776 19.4151 -3.13196
317 2 50.6087 19.2077 -1.7919 50.6087 19.2077 -1.7919
318 2 50.2747 19.7063 -4.93305 50.2747 19.7063 -4.93305
319 1 51.0085 17.5611 -3.65485 51.0085 17.5611 -3.65485
320 2 53.0322 17.7609 -1.91883 53.0322 17.7609 -1.91883
321 2 53.2755 17.2467 -5.08841 53.2755 17.2467 -5.08841
322 1 54.4378 19.1307 -3.64474 54.4378 19.1307 -3.64474
323 2 56.3038 19.5364 -1.90149 56.3038 19.5364 -1.90149
324 2 56.4962 18.7045 -5.03111 56.4962 18.7045 -5.03111
325 1 6.45108 20.689 -3.59923 6.45108 20.689 -3.59923
326 2 8.1464 21.1093 -1.6357 8.1464 21.1093 -1.6357
327 2 8.68522 20.3405 -4.87033 8.68522 20.3405 -4.87033
328 1 9.73588 22.3168 -3.37347 9.73588 22.3168 -3.37347
329 2 11.437 22.8424 -1.43852 11.437 22.8424 -1.43852
330 2 12.0467 21.9801 -4.43935 12.0467 21.9801 -4.43935
331 1 12.2551 20.5202 -2.33987 12.2551 20.5202 -2.33987
332 2 13.5538 21.1592 -0.272446 13.5538 21.1592 -0.272446
333 2 14.7185 19.963 -3.02959 14.7185 19.963 -3.02959
334 1 15.6719 22.0622 -1.89678 15.6719 22.0622 -1.89678
335 2 16.8495 23.0611 0.126314 16.8495 23.0611 0.126314
336 2 18.1274 21.4453 -2.42879 18.1274 21.4453 -2.42879
337 1 17.9024 20.8019 0.0473784 17.9024 20.8019 0.0473784
338 2 19.0339 21.6979 2.14474 19.0339 21.6979 2.14474
339 2 20.2232 20.2813 -0.586977 20.2232 20.2813 -0.586977
340 1 20.9775 22.5628 0.537785 20.9775 22.5628 0.537785
341 2 22.287 23.2038 2.57356 22.287 23.2038 2.57356
342 2 23.3759 22.0538 -0.296497 23.3759 22.0538 -0.296497
343 1 23.3046 21.0729 2.03963 23.3046 21.0729 2.03963
344 2 24.7444 21.2755 3.98538 24.7444 21.2755 3.98538
345 2 25.6272 20.8268 0.939698 25.6272 20.8268 0.939698
346 1 26.5944 22.6335 2.56109 26.5944 22.6335 2.56109
347 2 28.3394 22.8505 4.24768 28.3394 22.8505 4.24768
348 2 28.7311 22.3405 1.1193 28.7311 22.3405 1.1193
349 1 29.1989 20.7877 3.18209 29.1989 20.7877 3.18209
350 2 31.1946 20.5572 4.68397 31.1946 20.5572 4.68397
351 2 31.1656 21.065 1.42642 31.1656 21.065 1.42642
352 1 32.5792 22.4456 3.27496 32.5792 22.4456 3.27496
353 2 34.6501 21.99 4.60271 34.6501 21.99 4.60271
354 2 34.5006 22.6983 1.43554 34.5006 22.6983 1.43554
355 1 35.1569 20.4081 2.65312 35.1569 20.4081 2.65312
356 2 37.5291 19.9886 3.52708 37.5291 19.9886 3.52708
357 2 36.6104 21.1174 0.673695 36.6104 21.1174 0.673695
358 1 38.4771 22.1784 2.32825 38.4771 22.1784 2.32825
359 2 40.8322 21.554 3.17792 40.8322 21.554 3.17792
360 2 39.9079 23.0791 0.384959 39.9079 23.0791 0.384959
361 1 40.8427 20.767 0.745102 40.8427 20.767 0.745102
362 2 43.0652 19.9133 1.18033 43.0652 19.9133 1.18033
363 2 42.028 21.7084 -1.25024 42.028 21.7084 -1.25024
364 1 43.9435 22.2162 0.453066 43.9435 22.2162 0.453066
365 2 46.4411 21.7254 0.729702 46.4411 21.7254 0.729702
366 2 45.0977 23.3409 -1.66816 45.0977 23.3409 -1.66816
367 1 46.0112 21.0004 -1.73401 46.0112 21.0004 -1.73401
368 2 48.5087 20.6048 -0.918673 48.5087 20.6048 -0.918673
369 2 47.5686 21.709 -3.64522 47.5686 21.709 -3.64522
370 1 49.392 22.6931 -1.95137 49.392 22.6931 -1.95137
371 2 51.7931 22.2857 -1.10522 51.7931 22.2857 -1.10522
372 2 50.8547 23.227 -4.11008 50.8547 23.227 -4.11008
373 1 51.8074 20.9864 -3.32249 51.8074 20.9864 -3.32249
374 2 53.9691 20.8758 -1.87874 53.9691 20.8758 -1.87874
375 2 53.7349 21.0624 -5.08079 53.7349 21.0624 -5.08079
376 1 55.22 22.5752 -3.51453 55.22 22.5752 -3.51453
377 2 57.1909 22.4282 -1.9414 57.1909 22.4282 -1.9414
378 2 57.1911 22.5177 -5.11737 57.1911 22.5177 -5.11737
379 1 7.20165 24.2287 -3.46748 7.20165 24.2287 -3.46748
380 2 9.10518 24.0572 -1.81164 9.10518 24.0572 -1.81164
381 2 9.16115 24.0318 -5.02631 9.16115 24.0318 -5.02631
382 1 10.469 25.6402 -3.40791 10.469 25.6402 -3.40791
383 2 12.5322 26.0331 -1.80087 12.5322 26.0331 -1.80087
384 2 12.5057 25.4789 -4.95279 12.5057 25.4789 -4.95279
385 1 13.1165 23.9124 -3.06089 13.1165 23.9124 -3.06089
386 2 14.7858 24.3673 -1.18925 14.7858 24.3673 -1.18925
387 2 15.4115 23.3967 -4.12757 15.4115 23.3967 -4.12757
388 1 16.5582 25.5801 -2.82176 16.5582 25.5801 -2.82176
389 2 18.1077 26.2408 -0.831319 18.1077 26.2408 -0.831319
390 2 18.7271 24.8671 -3.81997 18.7271 24.8671 -3.81997
391 1 18.9077 23.9018 -1.47262 18.9077 23.9018 -1.47262
392 2 20.0827 24.8433 0.664903 20.0827 24.8433 0.664903
393 2 21.23 23.299 -1.949 21.23 23.299 -1.949
394 1 22.0528 25.6085 -0.947018 22.0528 25.6085 -0.947018
395 2 23.3384 26.5776 1.0863 23.3384 26.5776 1.0863
396 2 24.4496 25.0216 -1.52906 24.4496 25.0216 -1.52906
397 1 24.1775 24.185 0.936868 24.1775 24.185 0.936868
398 2 25.4781 24.8332 2.99523 25.4781 24.8332 2.99523
399 2 26.5846 23.8586 0.266763 26.5846 23.8586 0.266763
400 1 27.4487 25.9557 1.41413 27.4487 25.9557 1.41413
401 2 28.952 26.3967 3.41918 28.952 26.3967 3.41918
402 2 29.7672 25.5046 0.447168 29.7672 25.5046 0.447168
403 1 29.9812 24.1892 2.61667 29.9812 24.1892 2.61667
404 2 31.5399 24.3896 4.58847 31.5399 24.3896 4.58847
405 2 32.1618 24.043 1.40934 32.1618 24.043 1.40934
406 1 33.0824 25.9019 3.00792 33.0824 25.9019 3.00792
407 2 34.9547 25.8121 4.80166 34.9547 25.8121 4.80166
408 2 35.3694 25.7311 1.50158 35.3694 25.7311 1.50158
409 1 35.9492 23.9394 3.28596 35.9492 23.9394 3.28596
410 2 38.2297 23.495 4.37728 38.2297 23.495 4.37728
411 2 37.5676 24.2952 1.3786 37.5676 24.2952 1.3786
412 1 39.1577 25.5799 3.01488 39.1577 25.5799 3.01488
413 2 41.4308 25.0128 4.22911 41.4308 25.0128 4.22911
414 2 40.9478 26.0094 1.13516 40.9478 26.0094 1.13516
415 1 41.7018 23.8763 2.10934 41.7018 23.8763 2.10934
416 2 44.0185 23.2129 2.86493 44.0185 23.2129 2.86493
417 2 43.0988 24.5512 0.0340488 43.0988 24.5512 0.0340488
418 1 44.9673 25.5923 1.74547 44.9673 25.5923 1.74547
419 2 47.2996 24.8115 2.26589 47.2996 24.8115 2.26589
420 2 46.2545 26.4566 -0.295432 46.2545 26.4566 -0.295432
421 1 47.1118 24.0835 -0.125509 47.1118 24.0835 -0.125509
422 2 49.705 23.6897 0.344123 49.705 23.6897 0.344123
423 2 48.3459 24.9875 -2.2134 48.3459 24.9875 -2.2134
424 1 50.4276 25.9397 -0.877058 50.4276 25.9397 -0.877058
425 2 52.7155 25.1801 -0.132551 52.7155 25.1801 -0.132551
426 2 51.7115 26.7581 -2.86735 51.7115 26.7581 -2.86735
427 1 52.7154 24.3596 -2.5034 52.7154 24.3596 -2.5034
428 2 54.8342 23.8083 -1.38125 54.8342 23.8083 -1.38125
429 2 54.2936 24.693 -4.54524 54.2936 24.693 -4.54524
430 1 55.9138 25.8532 -2.6459 55.9138 25.8532 -2.6459
431 2 58.237 25.5275 -1.43102 58.237 25.5275 -1.43102
432 2 57.7645 26.3823 -4.41652 57.7645 26.3823 -4.41652
433 1 7.95764 27.5036 -2.63752 7.95764 27.5036 -2.63752
434 2 10.2543 27.4702 -1.42689 10.2543 27.4702 -1.42689
435 2 9.61787 27.7309 -4.65402 9.61787 27.7309 -4.65402
436 1 11.2513 29.2343 -3.11255 11.2513 29.2343 -3.11255
437 2 13.4092 29.1655 -1.71828 13.4092 29.1655 -1.71828
438 2 13.0218 29.2207 -4.90442 13.0218 29.2207 -4.90442
439 1 13.8845 27.3516 -3.48229 13.8845 27.3516 -3.48229
440 2 15.7556 27.6532 -1.72759 15.7556 27.6532 -1.72759
441 2 16.1056 26.9124 -4.87663 16.1056 26.9124 -4.87663
442 1 17.2587 28.9096 -3.52771 17.2587 28.9096 -3.52771
443 2 18.9785 29.2654 -1.61994 18.9785 29.2654 -1.61994
444 2 19.4643 28.4741 -4.69888 19.4643 28.4741 -4.69888
445 1 19.8594 27.1531 -2.74345 19.8594 27.1531 -2.74345
446 2 21.2195 27.9445 -0.59234 21.2195 27.9445 -0.59234
447 2 22.3306 26.5585 -3.22936 22.3306 26.5585 -3.22936
448 1 23.1412 28.8842 -2.18464 23.1412 28.8842 -2.18464
449 2 24.3769 29.7411 -0.20507 24.3769 29.7411 -0.20507
450 2 25.5053 28.1531 -2.94146 25.5053 28.1531 -2.94146
451 1 25.2788 27.2712 -0.534452 25.2788 27.2712 -0.534452
452 2 26.5687 28.3145 1.44413 26.5687 28.3145 1.44413
453 2 27.6907 26.5171 -1.07458 27.6907 26.5171 -1.07458
454 1 28.5724 28.9053 -0.318746 28.5724 28.9053 -0.318746
455 2 29.687 29.9509 1.8048 29.687 29.9509 1.8048
456 2 31.1028 28.4265 -0.649153 31.1028 28.4265 -0.649153
457 1 30.8151 27.6583 1.76115 30.8151 27.6583 1.76115
458 2 32.3491 28.1196 3.80241 32.3491 28.1196 3.80241
459 2 33.1566 27.176 0.899144 33.1566 27.176 0.899144
460 1 34.0631 29.3029 2.23406 34.0631 29.3029 2.23406
461 2 35.5896 29.4741 4.2178 35.5896 29.4741 4.2178
462 2 36.3308 28.8739 1.10892 36.3308 28.8739 1.10892
463 1 36.4479 27.3612 3.16227 36.4479 27.3612 3.16227
464 2 38.5483 27.2819 4.78774 38.5483 27.2819 4.78774
465 2 38.6989 27.561 1.5919 38.6989 27.561 1.5919
466 1 39.9904 29.0326 3.34422 39.9904 29.0326 3.34422
467 2 41.9937 28.7703 4.99665 41.9937 28.7703 4.99665
468 2 41.9221 29.3449 1.73801 41.9221 29.3449 1.73801
469 1 42.525 27.2275 2.98609 42.525 27.2275 2.98609
470 2 44.8319 26.6833 4.00294 44.8319 26.6833 4.00294
471 2 44.2026 27.8818 1.14107 44.2026 27.8818 1.14107
472 1 45.7931 28.7736 2.88711 45.7931 28.7736 2.88711
473 2 48.1723 28.0609 3.73644 48.1723 28.0609 3.73644
474 2 47.3516 29.5197 0.917794 47.3516 29.5197 0.917794
475 1 48.2209 27.1891 1.35343 48.2209 27.1891 1.35343
476 2 50.6865 26.3005 1.59687 50.6865 26.3005 1.59687
477 2 49.5718 28.4927 -0.677489 49.5718 28.4927 -0.677489
478 1 51.5506 28.8467 1.03555 51.5506 28.8467 1.03555
479 2 54.0454 28.3017 1.35827 54.0454 28.3017 1.35827
480 2 52.5968 29.8638 -1.10504 52.5968 29.8638 -1.10504
481 1 53.599 27.5538 -1.0688 53.599 27.5538 -1.0688
482 2 55.9808 26.7355 -0.176714 55.9808 26.7355 -0.176714
483 2 55.0925 28.2927 -2.97139 55.0925 28.2927 -2.97139
484 1 57.0554 28.9538 -1.29944 57.0554 28.9538 -1.29944
485 2 59.3149 28.6806 -0.343423 59.3149 28.6806 -0.343423
486 2 58.4589 29.7698 -3.30819 58.4589 29.7698 -3.30819
487 1 8.78262 30.7395 -1.72452 8.78262 30.7395 -1.72452
488 2 11.1666 30.4018 -0.852496 11.1666 30.4018 -0.852496
489 2 10.1461 31.4043 -3.7322 10.1461 31.4043 -3.7322
490 1 12.0809 32.485 -2.28471 12.0809 32.485 -2.28471
491 2 14.3279 32.1347 -1.25171 14.3279 32.1347 -1.25171
492 2 13.6495 33.042 -4.22668 13.6495 33.042 -4.22668
493 1 14.6193 30.8548 -3.40849 14.6193 30.8548 -3.40849
494 2 16.7807 30.7594 -1.91238 16.7807 30.7594 -1.91238
495 2 16.5123 30.7554 -5.17072 16.5123 30.7554 -5.17072
496 1 17.9137 32.3666 -3.6075 17.9137 32.3666 -3.6075
497 2 20.0302 32.5325 -2.02965 20.0302 32.5325 -2.02965
498 2 20.0398 31.9833 -5.21373 20.0398 31.9833 -5.21373
499 1 20.5418 30.4413 -3.30382 20.5418 30.4413 -3.30382
500 2 22.2484 31.0473 -1.38297 22.2484 31.0473 -1.38297
501 2 22.7476 30.0225 -4.52769 22.7476 30.0225 -4.52769
502 1 23.9419 32.0659 -3.35632 23.9419 32.0659 -3.35632
503 2 25.6166 32.8205 -1.53224 25.6166 32.8205 -1.53224
504 2 26.2716 31.3603 -4.28605 26.2716 31.3603 -4.28605
505 1 26.3501 30.5271 -1.90993 26.3501 30.5271 -1.90993
506 2 27.6695 31.1901 0.0708601 27.6695 31.1901 0.0708601
507 2 28.7471 29.8538 -2.61811 28.7471 29.8538 -2.61811
508 1 29.6775 31.9895 -1.45742 29.6775 31.9895 -1.45742
509 2 30.9203 33.0982 0.540652 30.9203 33.0982 0.540652
510 2 32.2307 31.2984 -2.01033 32.2307 31.2984 -2.01033
511 1 31.7993 30.766 0.403544 31.7993 30.766 0.403544
512 2 33.0893 31.5645 2.57492 33.0893 31.5645 2.57492
513 2 34.2144 30.2745 -0.148041 34.2144 30.2745 -0.148041
514 1 35.09 32.4443 1.08148 35.09 32.4443 1.08148
515 2 36.3253 33.1529 3.19003 36.3253 33.1529 3.19003
516 2 37.3658 31.8446 0.355645 37.3658 31.8446 0.355645
517 1 37.3674 30.8263 2.67748 37.3674 30.8263 2.67748
518 2 39.0629 31.1367 4.62889 39.0629 31.1367 4.62889
519 2 39.552 30.5954 1.3358 39.552 30.5954 1.3358
520 1 40.6534 32.5322 2.99109 40.6534 32.5322 2.99109
521 2 42.3731 32.5898 4.9238 42.3731 32.5898 4.9238
522 2 42.789 32.3885 1.73284 42.789 32.3885 1.73284
523 1 43.2787 30.6792 3.55223 43.2787 30.6792 3.55223
524 2 45.4077 30.1506 5.08447 45.4077 30.1506 5.08447
525 2 45.2155 30.984 1.89478 45.2155 30.984 1.89478
526 1 46.7365 32.356 3.81907 46.7365 32.356 3.81907
527 2 48.9544 31.7421 4.94748 48.9544 31.7421 4.94748
528 2 48.425 32.5318 1.879 48.425 32.5318 1.879
529 1 49.2465 30.4265 2.80262 49.2465 30.4265 2.80262
530 2 51.5648 29.7881 3.40754 51.5648 29.7881 3.40754
531 2 50.8026 31.2104 0.773327 50.8026 31.2104 0.773327
532 1 52.6247 32.0642 2.40522 52.6247 32.0642 2.40522
533 2 55.0533 31.3808 2.80146 55.0533 31.3808 2.80146
534 2 53.7421 33.1099 0.228657 53.7421 33.1099 0.228657
535 1 54.7272 30.637 0.388497 54.7272 30.637 0.388497
536 2 57.1529 30.173 0.994691 57.1529 30.173 0.994691
537 2 55.9209 31.1576 -1.72281 55.9209 31.1576 -1.72281
538 1 57.8916 32.3457 -0.137792 57.8916 32.3457 -0.137792
539 2 60.218 31.8207 0.583593 60.218 31.8207 0.583593
540 2 59.2426 33.1119 -2.18096 59.2426 33.1119 -2.18096
541 1 9.8359 34.0515 -0.659983 9.8359 34.0515 -0.659983
542 2 12.2743 33.3932 0.122037 12.2743 33.3932 0.122037