ITEM: TIMESTEP
3580000
ITEM: NUMBER OF ATOMS
810
ITEM: BOX BOUNDS xy xz yz pp pp pp
8.0341777045796159e-01 6.9901025074813532e+01 1.7686837845271022e+01
8.0582000660415243e-01 5.0210394993394715e+01 0.0000000000000000e+00
-1.0000000000000000e+01 1.0000000000000000e+01 0.0000000000000000e+00
ITEM: ATOMS id type x y z xu yu zu
1 1 67.3208 46.4453 -8.85215 -1.77682 -2.9593 -8.85215
2 2 17.97 47.2384 -7.63645 0.283127 -2.16616 -7.63645
3 2 17.5386 45.2575 9.75178 -0.148277 -4.14704 -10.2482
4 1 18.8619 47.4322 10.0102 1.1751 -1.97242 -9.98975
5 2 20.8889 48.3861 -8.82188 3.20203 -1.01843 -8.82188
6 2 20.7748 46.2672 8.72686 3.08796 -3.1374 -11.2731
7 1 21.7702 46.0463 -9.16157 4.08336 -3.35827 -9.16157
8 2 23.5601 47.1976 -7.94871 5.87325 -2.20702 -7.94871
9 2 23.7733 44.9455 -10.2648 6.08647 -4.45908 -10.2648
10 1 24.7197 47.3035 9.89395 7.03287 -2.10103 -10.1061
11 2 26.5048 48.5365 -8.88235 8.818 -0.868073 -8.88235
12 2 26.7668 46.1895 9.01416 9.07992 -3.21506 -10.9858
13 1 27.5132 46.265 -8.64589 9.82635 -3.13954 -8.64589
14 2 29.0433 47.846 -7.34246 11.3565 -1.5586 -7.34246
15 2 29.7289 45.322 -9.29595 12.0421 -4.08255 -9.29595
16 1 30.3565 47.7668 -9.42925 12.6697 -1.63775 -9.42925
17 2 31.9283 49.4572 -8.45664 14.2415 0.0526316 -8.45664
18 2 32.568 46.5856 9.89569 14.8812 -2.81899 -10.1043
19 1 33.0954 47.4226 -7.68458 15.4086 -1.98196 -7.68458
20 2 34.9867 49.0078 -6.75432 17.2999 -0.396818 -6.75432
21 2 35.1099 46.1263 -8.57801 17.4231 -3.27823 -8.57801
22 1 36.045 48.4601 -9.01454 18.3581 -0.944486 -9.01454
23 2 37.6819 49.8675 -7.54591 19.9951 0.46291 -7.54591
24 2 38.3474 47.8753 -9.70967 20.6605 -1.52926 -9.70967
25 1 38.8349 47.8272 -7.13733 21.1481 -1.5774 -7.13733
26 2 40.6164 49.1751 -6.16057 22.9295 -0.229491 -6.16057
27 2 40.7624 46.66 -8.07246 23.0756 -2.74455 -8.07246
28 1 30.1246 4.90616 3.74715 30.1246 4.90616 3.74715
29 2 32.2133 3.81413 2.98226 32.2133 3.81413 2.98226
30 2 29.7273 5.16332 1.25519 29.7273 5.16332 1.25519
31 1 30.5791 2.80378 1.2649 30.5791 2.80378 1.2649
32 2 32.8828 1.84391 0.772818 32.8828 1.84391 0.772818
33 2 30.6249 2.67469 -1.31532 30.6249 2.67469 -1.31532
34 1 32.8743 3.53205 -1.0363 32.8743 3.53205 -1.0363
35 2 35.3294 2.63671 -1.24784 35.3294 2.63671 -1.24784
36 2 33.1273 3.21046 -3.6475 33.1273 3.21046 -3.6475
37 1 34.1841 1.08975 -2.8805 34.1841 1.08975 -2.8805
38 2 54.3296 49.8304 -2.56272 36.6428 0.425815 -2.56272
39 2 52.3813 49.8899 -5.28907 34.6944 0.485353 -5.28907
40 1 36.8835 1.79364 -4.77023 36.8835 1.79364 -4.77023
41 2 39.3634 1.40039 -4.5511 39.3634 1.40039 -4.5511
42 2 37.4734 1.2165 -7.21041 37.4734 1.2165 -7.21041
43 1 56.4234 48.8235 -6.09997 38.7366 -0.581112 -6.09997
44 2 58.8668 48.7078 -5.40378 41.1799 -0.696746 -5.40378
45 2 57.5665 48.0076 -8.24845 39.8797 -1.39702 -8.24845
46 1 59.4325 49.5703 -7.59828 41.7457 0.165709 -7.59828
47 2 61.8474 49.6606 -7.0257 44.1606 0.256074 -7.0257
48 2 60.3878 48.5852 -9.71497 42.701 -0.819421 -9.71497
49 1 61.9178 47.2968 -8.03952 44.2309 -2.10777 -8.03952
50 2 64.1753 47.7601 -7.09993 46.4884 -1.64452 -7.09993
51 2 63.2756 46.0947 -9.71566 45.5888 -3.30986 -9.71566
52 1 64.6892 48.1741 -9.5165 47.0023 -1.23043 -9.5165
53 2 66.8964 48.7726 -8.46917 49.2096 -0.631971 -8.46917
54 2 66.1608 47.0962 8.91302 48.474 -2.30836 -11.087
55 1 67.5285 49.0359 9.08316 -1.56908 -0.368693 -10.9168
56 2 18.3467 49.8202 -9.84067 0.659868 0.415642 -9.84067
57 2 17.6986 47.6356 7.7824 0.0117712 -1.76893 -12.2176
58 1 19.0813 49.8 7.75247 1.39447 0.395389 -12.2475
59 2 3.27677 1.43897 8.85902 3.27677 1.43897 -11.141
60 2 20.9502 48.6431 6.49014 3.26341 -0.761448 -13.5099
61 1 21.862 48.5396 8.80973 4.17513 -0.865 -11.1903
62 2 23.7033 49.7079 10.0255 6.01649 0.30331 -9.97447
63 2 23.8157 47.5209 7.63542 6.12888 -1.88369 -12.3646
64 1 24.7509 49.6705 7.74144 7.0641 0.265946 -12.2586
65 2 9.02417 1.44723 8.87528 9.02417 1.44723 -11.1247
66 2 26.6794 48.3332 6.60104 8.99261 -1.07138 -13.399
67 1 27.6543 48.5291 8.93806 9.9675 -0.875438 -11.0619
68 2 29.2703 49.9533 10.1729 11.5835 0.548723 -9.82708
69 2 29.7912 47.3994 8.164 12.1044 -2.00518 -11.836
70 1 30.4249 49.8369 8.00505 12.738 0.432344 -11.9949
71 2 14.5487 1.79318 9.07017 14.5487 1.79318 -10.9298
72 2 32.3408 48.6203 7.11657 14.654 -0.784241 -12.8834
73 1 33.1892 49.0063 9.43769 15.5024 -0.398304 -10.5623
74 2 17.3452 1.05251 -9.90573 17.3452 1.05251 -9.90573
75 2 35.293 47.8527 8.72467 17.6062 -1.55183 -11.2753
76 1 29.237 9.02463 8.6414 29.237 9.02463 8.6414
77 2 31.3059 8.1103 7.68397 31.3059 8.1103 7.68397
78 2 28.7851 9.24545 6.26845 28.7851 9.24545 6.26845
79 1 29.5828 6.976 6.07589 29.5828 6.976 6.07589
80 2 31.7677 6.12761 5.17507 31.7677 6.12761 5.17507
81 2 29.3446 7.42249 3.64762 29.3446 7.42249 3.64762
82 1 31.6925 7.98967 3.6403 31.6925 7.98967 3.6403
83 2 33.7002 6.92648 2.75513 33.7002 6.92648 2.75513
84 2 31.1454 8.17412 1.20795 31.1454 8.17412 1.20795
85 1 32.0996 5.71227 1.19707 32.0996 5.71227 1.19707
86 2 34.3534 4.77147 0.461173 34.3534 4.77147 0.461173
87 2 31.7794 5.7942 -1.31222 31.7794 5.7942 -1.31222
88 1 34.1859 6.62286 -1.29299 34.1859 6.62286 -1.29299
89 2 36.5548 5.78481 -1.59205 36.5548 5.78481 -1.59205
90 2 34.1974 6.45147 -3.81145 34.1974 6.45147 -3.81145
91 1 35.367 4.33499 -3.18373 35.367 4.33499 -3.18373
92 2 37.7212 3.50888 -3.0961 37.7212 3.50888 -3.0961
93 2 35.781 3.89998 -5.70815 35.781 3.89998 -5.70815
94 1 37.9865 5.07274 -5.1474 37.9865 5.07274 -5.1474
95 2 40.3926 4.3765 -5.17922 40.3926 4.3765 -5.17922
96 2 38.2135 4.64224 -7.64661 38.2135 4.64224 -7.64661
97 1 39.4816 2.62017 -6.81998 39.4816 2.62017 -6.81998
98 2 41.9838 2.28746 -6.34387 41.9838 2.28746 -6.34387
99 2 40.2543 1.60685 -9.0308 40.2543 1.60685 -9.0308
100 1 42.2083 3.31329 -8.6577 42.2083 3.31329 -8.6577
101 2 44.6568 3.05402 -8.084 44.6568 3.05402 -8.084
102 2 42.9643 2.46866 9.05472 42.9643 2.46866 -10.9453
103 1 44.4036 0.943111 -9.35034 44.4036 0.943111 -9.35034
104 2 46.8758 1.11669 -8.67041 46.8758 1.11669 -8.67041
105 2 63.2246 49.1967 8.79212 45.5377 -0.207913 -11.2079
106 1 47.2847 1.63722 8.91419 47.2847 1.63722 -11.0858
107 2 49.6558 2.05805 9.72754 49.6558 2.05805 -10.2725
108 2 66.13 49.8368 7.08059 48.4432 0.432206 -12.9194
109 1 50.0624 2.31783 7.26988 -1.34833 2.31783 -12.7301
110 2 52.3274 2.85617 8.33968 0.916675 2.85617 -11.6603
111 2 51.5273 1.19196 5.62566 0.116512 1.19196 -14.3743
112 1 52.9853 3.19008 5.95557 1.57453 3.19008 -14.0444
113 2 3.76037 3.89143 7.12896 3.76037 3.89143 -12.871
114 2 3.31773 2.15151 4.41969 3.31773 2.15151 -15.5803
115 1 4.31346 1.54139 6.65373 4.31346 1.54139 -13.3463
116 2 6.2136 2.65068 7.82337 6.2136 2.65068 -12.1766
117 2 23.8359 49.8969 5.41882 6.1491 0.492346 -14.5812
118 1 7.26541 2.71308 5.51352 7.26541 2.71308 -14.4865
119 2 9.11949 3.57921 6.75745 9.11949 3.57921 -13.2425
120 2 9.3284 2.1567 4.2584 9.3284 2.1567 -15.7416
121 1 10.0162 1.25592 6.43777 10.0162 1.25592 -13.5622
122 2 12.2638 2.30227 6.51174 12.2638 2.30227 -13.4883
123 2 29.4368 49.1281 5.7478 11.75 -0.27647 -14.2522
124 1 26.6077 13.3918 -7.60074 26.6077 13.3918 12.3993
125 2 29.0503 12.7359 -7.62697 29.0503 12.7359 12.373
126 2 26.897 13.2225 -10.0394 26.897 13.2225 9.96056
127 1 28.17 11.1041 -9.23073 28.17 11.1041 10.7693
128 2 30.5695 10.4367 10.2356 30.5695 10.4367 10.2356
129 2 28.0026 11.2153 8.2896 28.0026 11.2153 8.2896
130 1 30.3929 12.1187 8.46121 30.3929 12.1187 8.46121
131 2 32.4691 10.9052 7.81959 32.4691 10.9052 7.81959
132 2 30.1585 12.2671 5.97418 30.1585 12.2671 5.97418
133 1 31.0475 9.87368 6.02042 31.0475 9.87368 6.02042
134 2 33.3267 8.99204 5.10752 33.3267 8.99204 5.10752
135 2 30.6325 10.1179 3.56143 30.6325 10.1179 3.56143
136 1 32.9903 10.8428 3.53258 32.9903 10.8428 3.53258
137 2 35.1267 9.90788 2.61051 35.1267 9.90788 2.61051
138 2 32.5362 11.1967 1.05516 32.5362 11.1967 1.05516
139 1 33.5632 8.81863 0.997827 33.5632 8.81863 0.997827
140 2 35.7051 7.88004 0.242478 35.7051 7.88004 0.242478
141 2 33.1307 8.86135 -1.49032 33.1307 8.86135 -1.49032
142 1 35.4815 9.68736 -1.41054 35.4815 9.68736 -1.41054
143 2 37.8372 8.99666 -1.98213 37.8372 8.99666 -1.98213
144 2 35.2224 9.47725 -3.89374 35.2224 9.47725 -3.89374
145 1 36.5759 7.44159 -3.45801 36.5759 7.44159 -3.45801
146 2 39.0491 6.80223 -3.5678 39.0491 6.80223 -3.5678
147 2 36.6531 6.97828 -5.85494 36.6531 6.97828 -5.85494
148 1 38.853 8.2001 -5.71984 38.853 8.2001 -5.71984
149 2 41.1844 7.22709 -5.39605 41.1844 7.22709 -5.39605
150 2 39.5071 7.86671 -8.1633 39.5071 7.86671 -8.1633
151 1 40.4877 5.76588 -7.24543 40.4877 5.76588 -7.24543
152 2 42.9147 5.14932 -7.04102 42.9147 5.14932 -7.04102
153 2 40.8595 5.14526 -9.65542 40.8595 5.14526 -9.65542
154 1 43.0415 6.49091 -9.17496 43.0415 6.49091 -9.17496
155 2 45.5276 5.9365 -8.90386 45.5276 5.9365 -8.90386
156 2 43.5989 5.73634 8.50572 43.5989 5.73634 -11.4943
157 1 44.974 3.95389 9.64731 44.974 3.95389 -10.3527
158 2 47.4605 3.82159 -9.9369 47.4605 3.82159 -9.9369
159 2 45.76 3.02143 7.45954 45.76 3.02143 -12.5405
160 1 47.6625 4.67327 7.70994 47.6625 4.67327 -12.2901
161 2 50.0508 4.58526 8.47097 50.0508 4.58526 -11.529
162 2 48.7437 3.63005 5.72779 48.7437 3.63005 -14.2722
163 1 50.4802 5.30896 6.15332 -0.930577 5.30896 -13.8467
164 2 52.8349 5.54864 6.94854 1.42418 5.54864 -13.0515
165 2 51.6102 4.31484 4.1496 0.199446 4.31484 -15.8504
166 1 53.2788 6.29571 4.53141 1.86802 6.29571 -15.4686
167 2 3.94307 6.51507 5.97665 3.94307 6.51507 -14.0233
168 2 3.71338 5.77151 2.91831 3.71338 5.77151 -17.0817
169 1 4.50475 4.46824 4.76273 4.50475 4.46824 -15.2373
170 2 6.73985 5.17008 5.47032 6.73985 5.17008 -14.5297
171 2 6.23191 3.35458 3.32874 6.23191 3.35458 -16.6713
172 1 22.83 17.8475 -5.21825 22.83 17.8475 14.7818
173 2 25.2295 17.7615 -4.62149 25.2295 17.7615 15.3785
174 2 23.7469 17.4631 -7.4958 23.7469 17.4631 12.5042
175 1 24.9855 15.7552 -6.14034 24.9855 15.7552 13.8597
176 2 27.3853 15.2219 -5.95265 27.3853 15.2219 14.0473
177 2 25.4274 15.3091 -8.59685 25.4274 15.3091 11.4031
178 1 27.5215 16.6403 -8.00687 27.5215 16.6403 11.9931
179 2 29.9049 15.8826 -7.78781 29.9049 15.8826 12.2122
180 2 28.1043 16.3515 9.58961 28.1043 16.3515 9.58961
181 1 29.1592 14.2965 -9.60649 29.1592 14.2965 10.3935
182 2 31.5428 13.3694 -9.82392 31.5428 13.3694 10.1761
183 2 29.312 14.2676 7.86587 29.312 14.2676 7.86587
184 1 31.5786 15.1001 8.372 31.5786 15.1001 8.372
185 2 33.8863 14.4246 7.79797 33.8863 14.4246 7.79797
186 2 31.3615 15.1781 5.85256 31.3615 15.1781 5.85256
187 1 32.6051 12.9024 6.16019 32.6051 12.9024 6.16019
188 2 34.6521 11.995 5.10014 34.6521 11.995 5.10014
189 2 32.0183 13.166 3.70631 32.0183 13.166 3.70631
190 1 34.4245 13.8798 3.5947 34.4245 13.8798 3.5947
191 2 36.5228 12.8571 2.55342 36.5228 12.8571 2.55342
192 2 33.7865 14.1074 1.14094 33.7865 14.1074 1.14094
193 1 34.8698 11.8497 1.03132 34.8698 11.8497 1.03132
194 2 36.9919 10.844 0.254096 36.9919 10.844 0.254096
195 2 34.5458 12.0979 -1.43329 34.5458 12.0979 -1.43329
196 1 36.8415 12.7435 -1.32347 36.8415 12.7435 -1.32347
197 2 39.0845 11.7122 -2.10234 39.0845 11.7122 -2.10234
198 2 36.5357 12.8779 -3.77329 36.5357 12.8779 -3.77329
199 1 37.4563 10.5314 -3.87879 37.4563 10.5314 -3.87879
200 2 39.8667 9.76749 -3.94105 39.8667 9.76749 -3.94105
201 2 37.8077 10.328 -6.31948 37.8077 10.328 -6.31948
202 1 40.1044 11.316 -5.76717 40.1044 11.316 -5.76717
203 2 42.5715 10.6313 -5.67044 42.5715 10.6313 -5.67044
204 2 40.3869 10.8752 -8.18431 40.3869 10.8752 -8.18431
205 1 41.5887 8.93676 -7.33141 41.5887 8.93676 -7.33141
206 2 43.9541 7.92813 -7.2934 43.9541 7.92813 -7.2934
207 2 42.1447 8.76372 10.1897 42.1447 8.76372 -9.81033
208 1 44.4165 9.54537 -9.15241 44.4165 9.54537 -9.15241
209 2 46.7264 8.49741 -9.12408 46.7264 8.49741 -9.12408
210 2 46.1382 9.12331 7.26299 46.1382 9.12331 -12.737
211 1 45.6734 7.2015 8.87707 45.6734 7.2015 -11.1229
212 2 48.072 6.56549 9.16182 48.072 6.56549 -10.8382
213 2 46.335 6.48946 6.52087 46.335 6.48946 -13.4791
214 1 48.3028 7.92913 7.0982 48.3028 7.92913 -12.9018
215 2 50.7337 7.37966 7.59559 50.7337 7.37966 -12.4044
216 2 49.181 7.0203 4.80255 49.181 7.0203 -15.1975
217 1 51.0962 8.64948 5.41816 -0.314597 8.64948 -14.5818
218 2 53.6622 8.73221 5.16824 2.2514 8.73221 -14.8318
219 2 51.5714 7.66673 3.1666 0.160628 7.66673 -16.8334
220 1 17.8492 21.8472 -4.91522 17.8492 21.8472 15.0848
221 2 20.0948 22.2167 -3.93872 20.0948 22.2167 16.0613
222 2 19.2929 21.1524 -6.82858 19.2929 21.1524 13.1714
223 1 20.4105 19.8937 -4.90376 20.4105 19.8937 15.0962
224 2 22.7645 20.0507 -4.08703 22.7645 20.0507 15.913
225 2 21.6021 19.294 -6.98401 21.6021 19.294 13.016
226 1 23.1654 21.016 -6.24287 23.1654 21.016 13.7571
227 2 25.6149 21.0109 -5.23269 25.6149 21.0109 14.7673
228 2 24.4789 20.541 -8.35435 24.4789 20.541 11.6456
229 1 25.6221 18.9439 -6.76509 25.6221 18.9439 13.2349
230 2 27.9362 18.2943 -6.17798 27.9362 18.2943 13.822
231 2 26.4371 18.5814 -9.06924 26.4371 18.5814 10.9308
232 1 28.4992 19.6846 -8.22867 28.4992 19.6846 11.7713
233 2 30.9287 19.1467 -8.04197 30.9287 19.1467 11.958
234 2 29.0091 19.448 9.3134 29.0091 19.448 9.3134
235 1 30.2651 17.4637 -9.75909 30.2651 17.4637 10.2409
236 2 32.609 16.5528 -9.95367 32.609 16.5528 10.0463
237 2 30.462 17.3411 7.75248 30.462 17.3411 7.75248
238 1 32.7289 18.3255 8.14252 32.7289 18.3255 8.14252
239 2 34.915 17.3369 7.60572 34.915 17.3369 7.60572
240 2 32.5909 18.3089 5.70289 32.5909 18.3089 5.70289
241 1 33.6628 16.1251 5.93235 33.6628 16.1251 5.93235
242 2 35.9649 15.1676 5.2263 35.9649 15.1676 5.2263
243 2 33.4892 16.1806 3.43637 33.4892 16.1806 3.43637
244 1 35.9324 17.0011 3.64169 35.9324 17.0011 3.64169
245 2 37.8298 15.6558 2.65286 37.8298 15.6558 2.65286
246 2 35.444 17.2449 1.22115 35.444 17.2449 1.22115
247 1 36.12 14.8745 1.00766 36.12 14.8745 1.00766
248 2 38.3141 14.0698 0.25222 38.3141 14.0698 0.25222
249 2 35.6225 14.9311 -1.466 35.6225 14.9311 -1.466
250 1 37.9516 15.8362 -1.52043 37.9516 15.8362 -1.52043
251 2 40.1942 14.8447 -2.08272 40.1942 14.8447 -2.08272
252 2 37.6971 15.9486 -3.94415 37.6971 15.9486 -3.94415
253 1 38.9058 13.6762 -3.74565 38.9058 13.6762 -3.74565
254 2 41.1959 12.7115 -4.01451 41.1959 12.7115 -4.01451
255 2 38.8914 13.4205 -6.27389 38.8914 13.4205 -6.27389
256 1 41.1563 14.5009 -5.86839 41.1563 14.5009 -5.86839
257 2 43.537 13.4711 -5.81583 43.537 13.4711 -5.81583
258 2 41.4993 14.2886 -8.25032 41.4993 14.2886 -8.25032
259 1 42.6867 11.9784 -7.77413 42.6867 11.9784 -7.77413
260 2 44.9925 10.9427 -7.28511 44.9925 10.9427 -7.28511
261 2 44.9326 11.352 9.08123 44.9326 11.352 -10.9188
262 1 45.8063 12.6576 -8.95461 45.8063 12.6576 -8.95461
263 2 47.5607 10.9904 -8.35745 47.5607 10.9904 -8.35745
264 2 47.409 11.8713 7.23771 47.409 11.8713 -12.7623
265 1 47.2457 10.4315 9.27575 47.2457 10.4315 -10.7242
266 2 49.4355 9.09652 9.07983 49.4355 9.09652 -10.9202
267 2 48.7915 9.79736 5.46437 48.7915 9.79736 -14.5356
268 1 49.8032 11.0549 7.46664 49.8032 11.0549 -12.5334
269 2 51.9833 9.77706 7.60947 51.9833 9.77706 -12.3905
270 2 51.1923 11.1765 5.22477 51.1923 11.1765 -14.7752
271 1 15.1718 23.6208 -5.36447 15.1718 23.6208 14.6355
272 2 17.4518 24.1845 -4.34175 17.4518 24.1845 15.6583
273 2 16.683 22.6808 -6.9677 16.683 22.6808 13.0323
274 1 18.0947 24.7814 -6.66642 18.0947 24.7814 13.3336
275 2 20.2442 25.4328 -5.46687 20.2442 25.4328 14.5331
276 2 19.6525 23.7807 -8.29391 19.6525 23.7807 11.7061
277 1 20.7674 23.0183 -6.19392 20.7674 23.0183 13.8061
278 2 22.9159 23.1071 -5.06051 22.9159 23.1071 14.9395
279 2 22.192 22.2705 -8.08432 22.192 22.2705 11.9157
280 1 23.6838 24.1427 -7.29997 23.6838 24.1427 12.7
281 2 25.984 24.322 -6.39493 25.984 24.322 13.6051
282 2 25.0034 23.2858 -9.2954 25.0034 23.2858 10.7046
283 1 26.2479 22.0285 -7.42751 26.2479 22.0285 12.5725
284 2 28.6207 21.7396 -6.76854 28.6207 21.7396 13.2315
285 2 27.2242 21.3874 -9.54753 27.2242 21.3874 10.4525
286 1 29.024 22.96 -8.952 29.024 22.96 11.048
287 2 31.5967 22.6083 -8.50296 31.5967 22.6083 11.497
288 2 29.7966 22.3866 8.74748 29.7966 22.3866 8.74748
289 1 31.181 20.6484 9.98013 31.181 20.6484 9.98013
290 2 33.5433 19.8884 9.80616 33.5433 19.8884 9.80616
291 2 31.345 20.3521 7.55612 31.345 20.3521 7.55612
292 1 33.5725 21.5052 7.80244 33.5725 21.5052 7.80244
293 2 35.9842 20.705 7.60546 35.9842 20.705 7.60546
294 2 33.6802 21.1406 5.339 33.6802 21.1406 5.339
295 1 34.9905 19.1746 5.90344 34.9905 19.1746 5.90344
296 2 37.2889 18.1473 5.29046 37.2889 18.1473 5.29046
297 2 34.7319 19.199 3.43418 34.7319 19.199 3.43418
298 1 37.124 19.9063 3.50815 37.124 19.9063 3.50815
299 2 39.4076 18.9606 2.88836 39.4076 18.9606 2.88836
300 2 36.8439 20.0891 1.04791 36.8439 20.0891 1.04791
301 1 37.8626 17.7329 1.20874 37.8626 17.7329 1.20874
302 2 39.7865 16.8086 -0.0618404 39.7865 16.8086 -0.0618404
303 2 37.158 18.1712 -1.28314 37.158 18.1712 -1.28314
304 1 39.5111 18.8879 -1.58761 39.5111 18.8879 -1.58761
305 2 41.7939 18.4243 -2.97192 41.7939 18.4243 -2.97192
306 2 38.5902 18.8929 -3.90892 38.5902 18.8929 -3.90892
307 1 40.0332 16.758 -3.70595 40.0332 16.758 -3.70595
308 2 42.2777 15.6644 -3.88108 42.2777 15.6644 -3.88108
309 2 40.2386 16.7386 -6.27581 40.2386 16.7386 -6.27581
310 1 42.4657 17.6279 -5.59568 42.4657 17.6279 -5.59568
311 2 44.6196 16.3256 -5.77405 44.6196 16.3256 -5.77405
312 2 42.6972 17.3216 -8.06641 42.6972 17.3216 -8.06641
313 1 43.8725 15.11 -7.72558 43.8725 15.11 -7.72558
314 2 46.1521 14.2438 -7.10103 46.1521 14.2438 -7.10103
315 2 45.8136 14.2832 9.15686 45.8136 14.2832 -10.8431
316 1 46.9629 15.7075 -8.99706 46.9629 15.7075 -8.99706
317 2 48.2705 13.6208 -8.64169 48.2705 13.6208 -8.64169
318 2 49.2257 15.7776 9.60763 49.2257 15.7776 -10.3924
319 1 48.2119 13.6063 8.71468 48.2119 13.6063 -11.2853
320 2 49.4587 11.7805 9.7865 49.4587 11.7805 -10.2135
321 2 50.3779 13.5393 7.68621 50.3779 13.5393 -12.3138
322 1 12.4052 25.0356 -6.35786 63.816 25.0356 13.6421
323 2 14.3779 26.0237 -5.16357 65.7887 26.0237 14.8364
324 2 14.195 24.0238 -7.74514 65.6058 24.0238 12.2549
325 1 15.287 26.2444 -7.52457 15.287 26.2444 12.4754
326 2 17.1486 26.9866 -6.05374 17.1486 26.9866 13.9463
327 2 17.1941 25.3759 -8.80972 17.1941 25.3759 11.1903
328 1 18.1983 27.5897 -8.25817 18.1983 27.5897 11.7418
329 2 20.3311 28.3118 -7.22574 20.3311 28.3118 12.7743
330 2 19.7744 26.4945 10.0627 19.7744 26.4945 10.0627
331 1 20.9819 25.8635 -7.81664 20.9819 25.8635 12.1834
332 2 23.0145 26.4496 -6.58446 23.0145 26.4496 13.4155
333 2 22.5357 24.9227 -9.47342 22.5357 24.9227 10.5266
334 1 23.8694 26.9296 -8.91985 23.8694 26.9296 11.0802
335 2 26.075 27.4429 -7.88047 26.075 27.4429 12.1195
336 2 25.285 26.008 9.27816 25.285 26.008 9.27816
337 1 26.4973 25.157 -8.71549 26.4973 25.157 11.2845
338 2 28.8532 25.1763 -7.85051 28.8532 25.1763 12.1495
339 2 27.7826 24.306 9.29801 27.7826 24.306 9.29801
340 1 29.3719 26.0777 9.94584 29.3719 26.0777 9.94584
341 2 31.8973 25.9795 -9.54276 31.8973 25.9795 10.4572
342 2 30.3737 25.2828 7.69483 30.3737 25.2828 7.69483
343 1 31.6783 23.7361 9.26601 31.6783 23.7361 9.26601
344 2 34.1604 23.3764 9.43116 34.1604 23.3764 9.43116
345 2 32.1483 23.3196 6.81469 32.1483 23.3196 6.81469
346 1 34.2327 24.5987 7.22532 34.2327 24.5987 7.22532
347 2 36.7237 23.7831 7.42201 36.7237 23.7831 7.42201
348 2 34.7819 24.4276 4.68574 34.7819 24.4276 4.68574
349 1 35.893 22.2712 5.5655 35.893 22.2712 5.5655
350 2 38.247 21.2861 5.24383 38.247 21.2861 5.24383
351 2 36.1265 22.1821 3.10875 36.1265 22.1821 3.10875
352 1 38.5018 23.0623 3.51097 38.5018 23.0623 3.51097
353 2 40.7564 22.0454 2.84802 40.7564 22.0454 2.84802
354 2 38.3307 23.1695 0.984628 38.3307 23.1695 0.984628
355 1 39.2602 20.8444 1.14644 39.2602 20.8444 1.14644
356 2 41.2997 19.8191 -0.133723 41.2997 19.8191 -0.133723
357 2 38.7185 21.3548 -1.25969 38.7185 21.3548 -1.25969
358 1 41.165 21.8363 -1.52323 41.165 21.8363 -1.52323
359 2 43.0252 20.8108 -3.42279 43.0252 20.8108 -3.42279
360 2 39.994 22.5042 -3.62948 39.994 22.5042 -3.62948
361 1 40.7026 20.1331 -4.34687 40.7026 20.1331 -4.34687
362 2 44.6679 18.8702 -5.05758 44.6679 18.8702 -5.05758
363 2 41.2969 19.5623 -6.73608 41.2969 19.5623 -6.73608
364 1 43.4816 20.8056 -6.19954 43.4816 20.8056 -6.19954
365 2 45.8232 20.6928 -7.14534 45.8232 20.6928 -7.14534
366 2 43.5961 19.8522 -8.53814 43.5961 19.8522 -8.53814
367 1 45.199 18.1904 -7.45352 45.199 18.1904 -7.45352
368 2 47.3815 17.0813 -6.9319 47.3815 17.0813 -6.9319
369 2 44.7782 16.7648 -9.58018 44.7782 16.7648 -9.58018
370 1 58.3808 26.5824 -9.487 58.3808 26.5824 10.513
371 2 58.6155 28.8624 -8.78221 58.6155 28.8624 11.2178
372 2 60.7207 26.433 9.80746 60.7207 26.433 9.80746
373 1 61.0716 26.0711 -7.71479 61.0716 26.0711 12.2852
374 2 11.448 27.3834 -6.57207 62.8588 27.3834 13.4279
375 2 11.6764 25.072 -8.67109 63.0872 25.072 11.3289
376 1 12.4761 27.3957 -8.82018 63.8869 27.3957 11.1798
377 2 14.2122 28.5365 -7.35046 65.623 28.5365 12.6495
378 2 14.5424 26.568 -9.86267 65.9531 26.568 10.1373
379 1 15.357 29.0035 -9.47294 15.357 29.0035 10.5271
380 2 17.2872 30.02 -8.28379 17.2872 30.02 11.7162
381 2 17.2688 27.7966 9.33257 17.2688 27.7966 9.33257
382 1 18.2835 30.1124 9.50367 18.2835 30.1124 9.50367
383 2 20.3159 30.9721 -9.36199 20.3159 30.9721 10.638
384 2 20.0487 28.9197 8.14927 20.0487 28.9197 8.14927
385 1 21.1055 28.5789 -9.49417 21.1055 28.5789 10.5058
386 2 23.2392 29.2365 -8.27525 23.2392 29.2365 11.7248
387 2 22.7811 27.5517 8.96478 22.7811 27.5517 8.96478
388 1 24.0109 29.8328 9.36967 24.0109 29.8328 9.36967
389 2 26.2273 30.2559 -9.43559 26.2273 30.2559 10.5644
390 2 25.53 28.8598 7.6901 25.53 28.8598 7.6901
391 1 26.698 28.0237 9.71334 26.698 28.0237 9.71334
392 2 28.8919 28.3146 -9.17508 28.8919 28.3146 10.8249
393 2 28.0832 27.0564 7.88442 28.0832 27.0564 7.88442
394 1 29.7162 28.9937 8.45326 29.7162 28.9937 8.45326
395 2 32.0481 29.1801 9.39645 32.0481 29.1801 9.39645
396 2 30.8784 28.1085 6.43834 30.8784 28.1085 6.43834
397 1 32.1143 26.9411 8.21184 32.1143 26.9411 8.21184
398 2 34.5156 26.5538 8.75264 34.5156 26.5538 8.75264
399 2 33.052 26.3035 5.87661 33.052 26.3035 5.87661
400 1 35.0342 27.7725 6.67389 35.0342 27.7725 6.67389
401 2 37.4617 27.3008 7.08028 37.4617 27.3008 7.08028
402 2 35.7036 27.2304 4.19968 35.7036 27.2304 4.19968
403 1 37.0086 25.3618 5.47307 37.0086 25.3618 5.47307
404 2 39.563 24.758 5.13801 39.563 24.758 5.13801
405 2 37.1846 25.111 2.91386 37.1846 25.111 2.91386
406 1 39.4701 26.2572 3.20856 39.4701 26.2572 3.20856
407 2 41.8592 25.401 2.92967 41.8592 25.401 2.92967
408 2 39.5556 26.1827 0.716775 39.5556 26.1827 0.716775
409 1 40.6732 23.8908 1.21024 40.6732 23.8908 1.21024
410 2 42.7348 22.6816 0.28978 42.7348 22.6816 0.28978
411 2 40.4093 24.2681 -1.33658 40.4093 24.2681 -1.33658
412 1 42.833 24.7825 -1.18237 42.833 24.7825 -1.18237
413 2 44.289 23.2831 -2.6257 44.289 23.2831 -2.6257
414 2 42.136 25.5747 -3.77803 42.136 25.5747 -3.77803
415 1 42.359 23.1465 -4.20244 42.359 23.1465 -4.20244
416 2 44.1065 23.5107 -6.0631 44.1065 23.5107 -6.0631
417 2 41.2552 22.1264 -6.1598 41.2552 22.1264 -6.1598
418 1 52.8058 28.1895 7.53082 52.8058 28.1895 7.53082
419 2 53.0847 30.6474 8.03908 53.0847 30.6474 8.03908
420 2 55.0925 27.9109 6.68718 55.0925 27.9109 6.68718
421 1 55.5259 27.385 9.01692 55.5259 27.385 9.01692
422 2 55.8177 29.815 9.58825 55.8177 29.815 9.58825
423 2 57.8861 27.057 8.20088 57.8861 27.057 8.20088
424 1 58.1606 29.4454 8.78661 58.1606 29.4454 8.78661
425 2 59.8352 31.0146 -10.2706 59.8352 31.0146 9.72935
426 2 60.3457 28.4837 7.72946 60.3457 28.4837 7.72946
427 1 60.976 28.7679 -9.72005 60.976 28.7679 10.28
428 2 11.5738 29.7197 -8.46201 62.9845 29.7197 11.538
429 2 11.5709 27.7109 8.82056 62.9816 27.7109 8.82056
430 1 12.519 29.9712 9.1955 63.9298 29.9712 9.1955
431 2 14.3563 31.3156 -9.49773 65.7671 31.3156 10.5023
432 2 14.579 28.8224 8.17055 65.9898 28.8224 8.17055
433 1 15.4227 31.229 8.18523 15.4227 31.229 8.18523
434 2 17.3985 32.3905 9.3302 17.3985 32.3905 9.3302
435 2 17.3123 30.0206 7.17694 17.3123 30.0206 7.17694
436 1 18.3572 32.2922 7.03976 18.3572 32.2922 7.03976
437 2 20.3264 33.4355 8.32891 20.3264 33.4355 8.32891
438 2 20.2419 31.2475 5.88184 20.2419 31.2475 5.88184
439 1 21.2614 31.1497 8.23653 21.2614 31.1497 8.23653
440 2 23.1005 32.1523 9.61565 23.1005 32.1523 9.61565
441 2 23.2096 30.2216 7.01414 23.2096 30.2216 7.01414
442 1 24.1146 32.5132 7.37513 24.1146 32.5132 7.37513
443 2 26.1962 33.368 8.34885 26.1962 33.368 8.34885
444 2 25.8839 31.2481 5.9928 25.8839 31.2481 5.9928
445 1 27.0495 30.9618 8.11385 27.0495 30.9618 8.11385
446 2 29.3085 31.2628 9.13728 29.3085 31.2628 9.13728
447 2 28.434 29.8853 6.34805 28.434 29.8853 6.34805
448 1 29.8362 31.8247 6.7626 29.8362 31.8247 6.7626
449 2 32.0239 32.3149 7.90225 32.0239 32.3149 7.90225
450 2 31.3306 30.9152 5.02426 31.3306 30.9152 5.02426
451 1 32.5592 30.0253 7.02755 32.5592 30.0253 7.02755
452 2 34.9236 30.1283 7.91793 34.9236 30.1283 7.91793
453 2 33.7252 29.1984 4.93688 33.7252 29.1984 4.93688
454 1 35.3772 30.894 5.55606 35.3772 30.894 5.55606
455 2 37.8563 30.6399 6.15119 37.8563 30.6399 6.15119
456 2 36.3399 30.1141 3.3639 36.3399 30.1141 3.3639
457 1 37.658 28.6216 4.80165 37.658 28.6216 4.80165
458 2 40.1602 27.9753 4.87853 40.1602 27.9753 4.87853
459 2 38.1546 28.2091 2.3709 38.1546 28.2091 2.3709
460 1 40.3565 29.3953 2.83627 40.3565 29.3953 2.83627
461 2 42.7673 28.6292 2.79142 42.7673 28.6292 2.79142
462 2 40.9034 29.3281 0.311662 40.9034 29.3281 0.311662
463 1 41.8299 27.0789 1.00529 41.8299 27.0789 1.00529
464 2 43.9739 25.9851 0.68245 43.9739 25.9851 0.68245
465 2 41.9128 27.1324 -1.53582 41.9128 27.1324 -1.53582
466 1 44.2858 27.7365 -1.23759 44.2858 27.7365 -1.23759
467 2 45.2946 25.3983 -1.50218 45.2946 25.3983 -1.50218
468 2 43.8848 28.0246 -3.78378 43.8848 28.0246 -3.78378
469 1 44.5657 25.4266 -3.91613 44.5657 25.4266 -3.91613
470 2 50.264 30.6606 5.94889 50.264 30.6606 5.94889
471 2 52.2447 28.6887 5.17129 52.2447 28.6887 5.17129
472 1 52.8524 31.0607 5.64274 52.8524 31.0607 5.64274
473 2 54.4125 32.6915 6.66064 54.4125 32.6915 6.66064
474 2 55.0216 30.0254 4.77131 55.0216 30.0254 4.77131
475 1 55.5137 30.3213 7.23485 55.5137 30.3213 7.23485
476 2 57.1568 31.9994 8.4367 57.1568 31.9994 8.4367
477 2 57.6685 29.3408 6.25216 57.6685 29.3408 6.25216
478 1 58.4055 31.639 6.2952 58.4055 31.639 6.2952
479 2 59.9869 32.9906 7.57738 59.9869 32.9906 7.57738
480 2 60.4575 30.7432 5.29352 60.4575 30.7432 5.29352
481 1 61.1472 30.8019 7.68556 61.1472 30.8019 7.68556
482 2 62.7553 32.1219 8.9165 62.7553 32.1219 8.9165
483 2 11.7838 29.751 6.76326 63.1946 29.751 6.76326
484 1 12.5897 32.1447 6.77967 64.0004 32.1447 6.77967
485 2 14.3567 33.524 7.75776 65.7674 33.524 7.75776
486 2 14.5166 30.8133 5.90409 65.9274 30.8133 5.90409
487 1 15.4903 33.1064 5.55164 15.4903 33.1064 5.55164
488 2 17.286 34.4232 6.65887 17.286 34.4232 6.65887
489 2 17.6252 31.9603 4.62772 17.6252 31.9603 4.62772
490 1 18.4819 34.2861 4.47267 18.4819 34.2861 4.47267
491 2 20.0846 35.6491 5.86851 20.0846 35.6491 5.86851
492 2 20.6301 33.3429 3.52577 20.6301 33.3429 3.52577
493 1 21.2851 33.5032 5.979 21.2851 33.5032 5.979
494 2 22.9714 34.855 7.35479 22.9714 34.855 7.35479
495 2 23.4417 32.6194 4.98439 23.4417 32.6194 4.98439
496 1 24.1664 34.8849 5.14786 24.1664 34.8849 5.14786
497 2 26.1982 35.7893 6.33956 26.1982 35.7893 6.33956
498 2 25.9676 33.6749 3.83384 25.9676 33.6749 3.83384
499 1 27.0411 33.471 6.01868 27.0411 33.471 6.01868
500 2 29.0398 34.1675 7.29897 29.0398 34.1675 7.29897
501 2 28.6946 32.303 4.61008 28.6946 32.303 4.61008
502 1 29.8608 34.5511 4.99479 29.8608 34.5511 4.99479
503 2 32.0116 35.227 6.02408 32.0116 35.227 6.02408
504 2 31.409 33.4814 3.40605 31.409 33.4814 3.40605
505 1 32.7146 32.845 5.49311 32.7146 32.845 5.49311
506 2 34.93 33.0873 6.55435 34.93 33.0873 6.55435
507 2 34.2014 31.9007 3.62119 34.2014 31.9007 3.62119
508 1 35.6292 33.808 4.263 35.6292 33.808 4.263
509 2 38.1033 33.8826 4.96931 38.1033 33.8826 4.96931
510 2 36.7158 32.8815 2.17325 36.7158 32.8815 2.17325
511 1 38.2058 31.6655 3.80539 38.2058 31.6655 3.80539
512 2 40.6602 31.314 4.51175 40.6602 31.314 4.51175
513 2 39.285 31.2637 1.55284 39.285 31.2637 1.55284
514 1 41.1759 32.645 2.32269 41.1759 32.645 2.32269
515 2 43.5524 31.8624 2.95796 43.5524 31.8624 2.95796
516 2 42.4419 32.5263 0.045995 42.4419 32.5263 0.045995
517 1 43.1885 30.2695 0.849071 43.1885 30.2695 0.849071
518 2 45.1774 28.7614 0.797366 45.1774 28.7614 0.797366
519 2 43.2615 29.9716 -1.6324 43.2615 29.9716 -1.6324
520 1 47.2393 32.7494 2.74078 47.2393 32.7494 2.74078
521 2 48.8286 34.1261 4.20274 48.8286 34.1261 4.20274
522 2 49.4383 32.2499 1.57717 49.4383 32.2499 1.57717
523 1 50.1008 31.928 3.96447 50.1008 31.928 3.96447
524 2 51.5732 33.2608 5.40007 51.5732 33.2608 5.40007
525 2 52.267 31.0504 3.04527 52.267 31.0504 3.04527
526 1 52.9292 33.3978 3.27868 52.9292 33.3978 3.27868
527 2 54.5685 34.6695 4.52202 54.5685 34.6695 4.52202
528 2 55.0101 32.3717 2.31505 55.0101 32.3717 2.31505
529 1 55.717 32.4245 4.59748 55.717 32.4245 4.59748
530 2 57.3285 33.9463 5.77257 57.3285 33.9463 5.77257
531 2 57.7664 31.303 3.86247 57.7664 31.303 3.86247
532 1 58.5291 33.6811 3.65393 58.5291 33.6811 3.65393
533 2 60.145 35.13 4.87173 60.145 35.13 4.87173
534 2 60.713 32.5738 2.85905 60.713 32.5738 2.85905
535 1 61.2957 33.1255 5.28904 61.2957 33.1255 5.28904
536 2 63.1331 34.5092 6.38355 63.1331 34.5092 6.38355
537 2 11.7803 31.91 4.40341 63.1911 31.91 4.40341
538 1 12.7143 34.2471 4.16694 64.125 34.2471 4.16694
539 2 14.5295 35.4504 5.30259 65.9403 35.4504 5.30259
540 2 14.6678 32.9556 3.17174 66.0785 32.9556 3.17174
541 1 15.5828 35.3091 3.09154 15.5828 35.3091 3.09154
542 2 17.4074 36.6653 4.14945 17.4074 36.6653 4.14945
543 2 17.5736 34.1735 2.09351 17.5736 34.1735 2.09351
544 1 18.5365 36.479 1.96605 18.5365 36.479 1.96605
545 2 20.1062 37.9091 3.15527 20.1062 37.9091 3.15527
546 2 20.6287 35.373 1.17028 20.6287 35.373 1.17028
547 1 21.3313 35.6962 3.57333 21.3313 35.6962 3.57333
548 2 22.9227 37.133 4.82959 22.9227 37.133 4.82959