ITEM: TIMESTEP
4917000
ITEM: NUMBER OF ATOMS
810
ITEM: BOX BOUNDS xy xz yz pp pp pp
8.0341777045796159e-01 7.6506416750547430e+01 2.4292229521004920e+01
8.0582000660415243e-01 5.0210394993394715e+01 0.0000000000000000e+00
-1.0000000000000000e+01 1.0000000000000000e+01 0.0000000000000000e+00
ITEM: ATOMS id type x y z xu yu zu
1 1 24.1049 45.4267 -10.0351 -0.187321 -3.97785 -10.0351
2 2 26.2726 46.2766 -9.11727 1.98035 -3.12796 -9.11727
3 2 25.6162 44.0274 8.59175 1.32402 -5.37714 -11.4082
4 1 27.04 46.142 8.56051 2.74773 -3.26255 -11.4395
5 2 29.3247 47.1424 9.22077 5.0325 -2.26214 -10.7792
6 2 28.5569 44.626 7.3063 4.26462 -4.77855 -12.6937
7 1 29.8721 44.6957 9.46467 5.5799 -4.7089 -10.5353
8 2 31.7858 45.9682 -9.50196 7.49353 -3.43635 -9.50196
9 2 31.7728 43.3065 8.48894 7.48055 -6.09804 -11.5111
10 1 32.6778 45.6201 8.1006 8.38555 -3.78443 -11.8994
11 2 34.4585 47.1207 9.26576 10.1663 -2.28383 -10.7342
12 2 34.8744 44.5676 7.29065 10.5821 -4.83695 -12.7094
13 1 35.5669 44.9725 9.5927 11.2747 -4.43206 -10.4073
14 2 37.3989 46.389 -9.43133 13.1067 -3.01557 -9.43133
15 2 37.5671 43.5132 8.88618 13.2749 -5.89137 -11.1138
16 1 38.4371 45.8235 8.42425 14.1449 -3.5811 -11.5758
17 2 39.9617 47.5586 9.58065 15.6695 -1.84601 -10.4193
18 2 40.7499 44.8737 7.92909 16.4577 -4.53092 -12.0709
19 1 41.2572 45.4887 -9.75158 16.965 -3.91583 -9.75158
20 2 42.8028 47.2121 -8.82975 18.5106 -2.19245 -8.82975
21 2 43.4747 44.2592 9.83435 19.1824 -5.1454 -10.1656
22 1 44.0885 46.5646 9.12694 19.7963 -2.84001 -10.8731
23 2 45.503 48.1818 -9.72642 21.2108 -1.22273 -9.72642
24 2 46.4007 45.8654 8.53487 22.1084 -3.53915 -11.4651
25 1 47.0139 46.2934 -9.12408 22.7217 -3.1112 -9.12408
26 2 48.5251 48.0633 -8.04059 24.2329 -1.34125 -8.04059
27 2 49.3708 45.4041 -9.40525 25.0786 -4.00047 -9.40525
28 1 35.9007 5.59665 5.91966 35.9007 5.59665 5.91966
29 2 37.7746 4.52721 4.7341 37.7746 4.52721 4.7341
30 2 35.0927 5.68355 3.47481 35.0927 5.68355 3.47481
31 1 35.9545 3.44832 3.46104 35.9545 3.44832 3.46104
32 2 37.9367 2.41373 2.2862 37.9367 2.41373 2.2862
33 2 35.1687 3.69563 1.16642 35.1687 3.69563 1.16642
34 1 37.5166 4.26307 0.6593 37.5166 4.26307 0.6593
35 2 39.5228 3.17912 -0.243162 39.5228 3.17912 -0.243162
36 2 36.8218 4.16214 -1.67189 36.8218 4.16214 -1.67189
37 1 37.8324 1.77784 -1.63068 37.8324 1.77784 -1.63068
38 2 40.2222 1.06676 -1.9176 40.2222 1.06676 -1.9176
39 2 37.7486 1.23858 -4.11348 37.7486 1.23858 -4.11348
40 1 40.0817 2.35879 -4.09244 40.0817 2.35879 -4.09244
41 2 42.3728 1.49549 -4.13577 42.3728 1.49549 -4.13577
42 2 40.0972 1.73145 -6.56589 40.0972 1.73145 -6.56589
43 1 65.5875 49.0842 -5.56135 41.2953 -0.320382 -5.56135
44 2 68.1251 48.5735 -5.35923 43.8329 -0.831034 -5.35923
45 2 66.0092 48.2754 -7.85782 41.717 -1.12918 -7.85782
46 1 68.1673 49.5414 -7.72414 43.875 0.136852 -7.72414
47 2 70.6932 49.3215 -7.27235 46.401 -0.0830382 -7.27235
48 2 68.8833 48.3299 -9.91561 44.5911 -1.07471 -9.91561
49 1 70.3721 47.033 -8.2873 46.0799 -2.37157 -8.2873
50 2 72.8322 47.2734 -7.70683 48.5399 -2.13117 -7.70683
51 2 71.3285 45.7106 9.82562 47.0363 -3.69401 -10.1744
52 1 73.0471 47.5384 9.88768 48.7548 -1.86616 -10.1123
53 2 75.4035 47.8121 -9.27962 51.1112 -1.59244 -9.27962
54 2 74.1934 46.3414 8.09821 49.9011 -3.06314 -11.9018
55 1 24.47 48.1945 8.21405 0.17782 -1.21003 -11.786
56 2 26.8438 48.5868 8.86039 2.55157 -0.817791 -11.1396
57 2 25.6678 46.5828 6.52946 1.37559 -2.8218 -13.4705
58 1 27.131 48.5994 6.27839 2.83878 -0.805168 -13.7216
59 2 29.4758 49.283 7.00079 5.18354 -0.121553 -12.9992
60 2 28.4252 47.2437 4.68772 4.13295 -2.16092 -15.3123
61 1 29.8161 46.812 6.83388 5.52389 -2.59254 -13.1661
62 2 31.8701 47.9448 7.72058 7.57784 -1.45981 -12.2794
63 2 31.7233 45.5176 5.69814 7.4311 -3.887 -14.3019
64 1 32.8204 47.6991 5.44401 8.52816 -1.70552 -14.556
65 2 34.7101 49.0737 6.54484 10.4179 -0.330836 -13.4552
66 2 34.8986 46.3791 4.73132 10.6064 -3.02552 -15.2687
67 1 35.6089 46.8611 7.03201 11.3167 -2.54343 -12.968
68 2 37.4248 48.2149 8.1667 13.1325 -1.18963 -11.8333
69 2 37.6442 45.7264 6.07759 13.352 -3.67817 -13.9224
70 1 38.4919 48.0534 5.94702 14.1997 -1.35115 -14.053
71 2 40.6416 49.2444 6.01166 16.3494 -0.160183 -13.9883
72 2 40.4353 46.4792 5.33136 16.1431 -2.92534 -14.6686
73 1 41.3299 47.2655 7.54358 17.0377 -2.13907 -12.4564
74 2 42.7843 48.7866 8.73877 18.492 -0.618004 -11.2612
75 2 43.6225 46.7446 6.69186 19.3302 -2.66 -13.3081
76 1 35.1816 10.1862 -9.48366 35.1816 10.1862 10.5163
77 2 37.147 8.83892 9.98639 37.147 8.83892 9.98639
78 2 35.2415 10.3807 8.02041 35.2415 10.3807 8.02041
79 1 35.5965 7.98083 8.24272 35.5965 7.98083 8.24272
80 2 37.7065 7.04937 7.15422 37.7065 7.04937 7.15422
81 2 34.9125 8.04271 5.76666 34.9125 8.04271 5.76666
82 1 37.2351 8.76714 5.50811 37.2351 8.76714 5.50811
83 2 39.2555 7.61469 4.29341 39.2555 7.61469 4.29341
84 2 36.4897 8.82181 3.09569 36.4897 8.82181 3.09569
85 1 37.4587 6.41216 3.11545 37.4587 6.41216 3.11545
86 2 39.4296 5.37643 1.92841 39.4296 5.37643 1.92841
87 2 36.636 6.68308 0.832928 36.636 6.68308 0.832928
88 1 39.0421 7.2341 0.288314 39.0421 7.2341 0.288314
89 2 41.0334 6.05884 -0.663602 41.0334 6.05884 -0.663602
90 2 38.3903 7.18327 -2.14118 38.3903 7.18327 -2.14118
91 1 39.2449 4.76661 -2.04777 39.2449 4.76661 -2.04777
92 2 41.5105 3.87009 -2.60152 41.5105 3.87009 -2.60152
93 2 38.8584 4.52028 -4.44371 38.8584 4.52028 -4.44371
94 1 41.2803 5.34874 -4.49667 41.2803 5.34874 -4.49667
95 2 43.6298 4.4305 -4.92213 43.6298 4.4305 -4.92213
96 2 41.131 4.8391 -6.90769 41.131 4.8391 -6.90769
97 1 42.3479 2.77367 -6.25152 42.3479 2.77367 -6.25152
98 2 44.7671 2.0568 -6.27057 44.7671 2.0568 -6.27057
99 2 42.7213 2.05266 -8.74477 42.7213 2.05266 -8.74477
100 1 44.8442 3.20725 -8.5345 44.8442 3.20725 -8.5345
101 2 47.3382 2.61721 -8.52795 47.3382 2.61721 -8.52795
102 2 44.9879 2.1535 9.1712 44.9879 2.1535 -10.8288
103 1 70.7672 49.9529 -9.70541 46.475 0.548365 -9.70541
104 2 73.2231 49.8098 -9.2206 48.9309 0.405206 -9.2206
105 2 71.5282 48.6759 8.20116 47.236 -0.728694 -11.7988
106 1 49.1331 0.954467 8.43715 49.1331 0.954467 -11.5628
107 2 51.6519 1.18413 8.96257 51.6519 1.18413 -11.0374
108 2 74.3516 48.9984 6.52435 50.0594 -0.406151 -13.4756
109 1 51.8277 1.41002 6.37605 0.416957 1.41002 -13.6239
110 2 2.97684 1.68054 6.83933 2.97684 1.68054 -13.1607
111 2 25.5972 49.4072 4.40606 1.30497 0.00264777 -15.5939
112 1 2.99251 1.82986 4.33895 2.99251 1.82986 -15.6611
113 2 5.42953 2.38234 4.93712 5.42953 2.38234 -15.0629
114 2 28.4942 49.815 2.53964 4.20193 0.410409 -17.4604
115 1 29.9942 49.2427 4.54212 5.70194 -0.161829 -15.4579
116 2 32.2743 50.1635 5.61983 7.98211 0.758895 -14.3802
117 2 31.6629 47.9544 3.13291 7.3707 -1.45019 -16.8671
118 1 32.8789 50.1712 3.18839 8.58664 0.766624 -16.8116
119 2 10.6096 1.87565 4.02557 10.6096 1.87565 -15.9744
120 2 34.4908 48.5867 2.09399 10.1986 -0.817899 -17.906
121 1 35.7229 48.748 4.31733 11.4307 -0.65655 -15.6827
122 2 37.1992 50.2149 5.67218 12.907 0.810339 -14.3278
123 2 38.0423 48.288 3.51565 13.7501 -1.11658 -16.4843
124 1 33.9888 14.9951 -5.51 33.9888 14.9951 14.49
125 2 36.1925 14.0291 -5.74991 36.1925 14.0291 14.2501
126 2 34.0751 14.7539 -8.02655 34.0751 14.7539 11.9734
127 1 34.9266 12.5246 -7.32218 34.9266 12.5246 12.6778
128 2 36.9765 11.229 -7.87901 36.9765 11.229 12.121
129 2 34.7268 12.7062 -9.84101 34.7268 12.7062 10.159
130 1 37.2113 13.0604 -9.61689 37.2113 13.0604 10.3831
131 2 39.2702 11.9149 9.58136 39.2702 11.9149 9.58136
132 2 36.6659 13.1645 7.93748 36.6659 13.1645 7.93748
133 1 37.5675 10.6777 8.13575 37.5675 10.6777 8.13575
134 2 39.3307 9.48835 6.71324 39.3307 9.48835 6.71324
135 2 36.8591 11.319 5.69339 36.8591 11.319 5.69339
136 1 39.2825 11.5367 5.3071 39.2825 11.5367 5.3071
137 2 40.9262 10.0803 4.11377 40.9262 10.0803 4.11377
138 2 38.3564 11.9734 3.07196 38.3564 11.9734 3.07196
139 1 38.9553 9.47387 2.67279 38.9553 9.47387 2.67279
140 2 40.8795 8.26259 1.71543 40.8795 8.26259 1.71543
141 2 38.2811 9.65733 0.27593 38.2811 9.65733 0.27593
142 1 40.6345 10.1942 0.0649035 40.6345 10.1942 0.0649035
143 2 42.5792 8.93324 -0.800137 42.5792 8.93324 -0.800137
144 2 39.9966 10.2868 -2.36525 39.9966 10.2868 -2.36525
145 1 40.7927 7.85369 -2.28683 40.7927 7.85369 -2.28683
146 2 42.9468 6.67813 -3.00283 42.9468 6.67813 -3.00283
147 2 40.4015 7.6324 -4.78006 40.4015 7.6324 -4.78006
148 1 42.911 8.31314 -4.8551 42.911 8.31314 -4.8551
149 2 45.0901 7.08721 -5.55876 45.0901 7.08721 -5.55876
150 2 42.5762 8.1488 -7.36698 42.5762 8.1488 -7.36698
151 1 43.5093 5.80121 -7.02936 43.5093 5.80121 -7.02936
152 2 45.9226 4.87046 -7.22338 45.9226 4.87046 -7.22338
153 2 43.5279 5.10658 -9.4529 43.5279 5.10658 -9.4529
154 1 45.8092 6.21112 -9.32553 45.8092 6.21112 -9.32553
155 2 48.1691 5.24494 -9.26399 48.1691 5.24494 -9.26399
156 2 46.1274 5.61416 8.13167 46.1274 5.61416 -11.8683
157 1 47.1669 3.56968 9.18642 47.1669 3.56968 -10.8136
158 2 49.5705 3.12636 9.56899 49.5705 3.12636 -10.431
159 2 47.6658 2.42903 6.95465 47.6658 2.42903 -13.0453
160 1 49.7329 3.81201 7.16133 49.7329 3.81201 -12.8387
161 2 52.2668 3.7194 7.1639 52.2668 3.7194 -12.8361
162 2 50.1195 2.67405 4.9231 50.1195 2.67405 -15.0769
163 1 52.0787 4.2529 4.6903 0.667956 4.2529 -15.3097
164 2 3.311 4.2052 5.10397 3.311 4.2052 -14.896
165 2 52.9905 2.9321 2.61032 1.57977 2.9321 -17.3897
166 1 3.39046 4.77593 2.7092 3.39046 4.77593 -17.2908
167 2 5.79171 4.88775 3.14028 5.79171 4.88775 -16.8597
168 2 4.09339 3.21141 0.899262 4.09339 3.21141 -19.1007
169 1 5.7539 2.42814 2.55631 5.7539 2.42814 -17.4437
170 2 8.00882 3.09178 3.35872 8.00882 3.09178 -16.6413
171 2 7.68412 1.49575 1.10042 7.68412 1.49575 -18.8996
172 1 30.857 20.0642 -3.06439 30.857 20.0642 16.9356
173 2 33.2443 19.3231 -2.68724 33.2443 19.3231 17.3128
174 2 31.6467 19.4275 -5.41103 31.6467 19.4275 14.589
175 1 32.5839 17.5307 -4.23013 32.5839 17.5307 15.7699
176 2 34.9484 16.7652 -3.9283 34.9484 16.7652 16.0717
177 2 33.1536 17.1219 -6.57745 33.1536 17.1219 13.4226
178 1 35.3836 18.0697 -5.91415 35.3836 18.0697 14.0858
179 2 37.6749 16.9362 -5.95961 37.6749 16.9362 14.0404
180 2 35.5536 17.7791 -8.39649 35.5536 17.7791 11.6035
181 1 36.3985 15.5285 -7.71129 36.3985 15.5285 12.2887
182 2 38.641 14.4937 -8.11632 38.641 14.4937 11.8837
183 2 36.2995 15.3502 9.83826 36.2995 15.3502 9.83826
184 1 38.6712 16.0593 -9.94891 38.6712 16.0593 10.0511
185 2 40.749 14.8191 9.36173 40.749 14.8191 9.36173
186 2 38.4099 16.0559 7.61139 38.4099 16.0559 7.61139
187 1 39.1501 13.6361 7.82186 39.1501 13.6361 7.82186
188 2 41.142 12.4447 6.85176 41.142 12.4447 6.85176
189 2 38.4806 13.865 5.4113 38.4806 13.865 5.4113
190 1 40.9265 14.3856 5.23667 40.9265 14.3856 5.23667
191 2 42.6674 13.0256 4.15474 42.6674 13.0256 4.15474
192 2 40.3184 14.691 2.827 40.3184 14.691 2.827
193 1 40.8251 12.196 2.6909 40.8251 12.196 2.6909
194 2 42.6655 11.0676 1.50287 42.6655 11.0676 1.50287
195 2 40.1094 12.6205 0.230237 40.1094 12.6205 0.230237
196 1 42.5963 12.8291 -0.0240929 42.5963 12.8291 -0.0240929
197 2 44.4204 11.6597 -1.33188 44.4204 11.6597 -1.33188
198 2 41.6996 13.1231 -2.4382 41.6996 13.1231 -2.4382
199 1 42.413 10.6976 -2.66906 42.413 10.6976 -2.66906
200 2 44.5705 9.57437 -3.3716 44.5705 9.57437 -3.3716
201 2 41.9058 10.6105 -5.03328 41.9058 10.6105 -5.03328
202 1 44.3704 11.3586 -5.18516 44.3704 11.3586 -5.18516
203 2 46.414 10.1389 -5.74445 46.414 10.1389 -5.74445
204 2 44.1893 11.2642 -7.62545 44.1893 11.2642 -7.62545
205 1 44.9348 8.86016 -7.34933 44.9348 8.86016 -7.34933
206 2 47.0783 7.50912 -7.45838 47.0783 7.50912 -7.45838
207 2 45.1313 8.61739 -9.82054 45.1313 8.61739 -9.82054
208 1 47.6398 9.16168 -9.29774 47.6398 9.16168 -9.29774
209 2 49.7163 7.69737 -9.57207 49.7163 7.69737 -9.57207
210 2 48.6459 8.33796 6.83416 48.6459 8.33796 -13.1658
211 1 48.4524 6.55964 8.65855 48.4524 6.55964 -11.3415
212 2 50.6987 5.62188 8.63817 50.6987 5.62188 -11.3618
213 2 48.4995 5.78998 6.16571 48.4995 5.78998 -13.8343
214 1 50.722 6.90562 6.31116 50.722 6.90562 -13.6888
215 2 53.1281 6.22315 5.98053 53.1281 6.22315 -14.0195
216 2 50.5052 6.172 3.90839 50.5052 6.172 -16.0916
217 1 52.8725 7.38575 3.74945 1.4617 7.38575 -16.2506
218 2 55.1685 7.27442 2.81885 3.75776 7.27442 -17.1811
219 2 52.4243 5.48443 2.19638 1.01356 5.48443 -17.8036
220 1 26.1561 24.3387 -2.97593 26.1561 24.3387 17.0241
221 2 28.5019 24.8269 -2.18158 28.5019 24.8269 17.8184
222 2 27.4695 23.13 -4.70645 27.4695 23.13 15.2936
223 1 28.7253 22.4275 -2.73632 28.7253 22.4275 17.2637
224 2 31.1342 22.3215 -2.17265 31.1342 22.3215 17.8273
225 2 29.6271 21.2775 -4.86709 29.6271 21.2775 15.1329
226 1 31.3897 23.0193 -4.53465 31.3897 23.0193 15.4653
227 2 33.6934 22.798 -3.56141 33.6934 22.798 16.4386
228 2 32.5538 22.1252 -6.56461 32.5538 22.1252 13.4354
229 1 33.6782 20.6485 -4.71535 33.6782 20.6485 15.2847
230 2 36.0386 19.9754 -4.36325 36.0386 19.9754 15.6367
231 2 34.2984 19.9441 -7.03829 34.2984 19.9441 12.9617
232 1 36.3367 21.2329 -6.55378 36.3367 21.2329 13.4462
233 2 38.7605 20.4185 -6.50897 38.7605 20.4185 13.491
234 2 36.7515 20.634 -8.98404 36.7515 20.634 11.016
235 1 37.8938 18.5327 -7.90969 37.8938 18.5327 12.0903
236 2 40.0783 17.4479 -8.42798 40.0783 17.4479 11.572
237 2 37.6164 18.303 9.60981 37.6164 18.303 9.60981
238 1 40.1059 19.073 9.65252 40.1059 19.073 9.65252
239 2 42.3337 17.996 9.0789 42.3337 17.996 9.0789
240 2 39.8841 18.8044 7.16049 39.8841 18.8044 7.16049
241 1 40.8657 16.5786 7.62876 40.8657 16.5786 7.62876
242 2 42.7895 15.3331 6.59246 42.7895 15.3331 6.59246
243 2 40.1766 16.7042 5.13427 40.1766 16.7042 5.13427
244 1 42.5673 17.2475 4.84159 42.5673 17.2475 4.84159
245 2 44.6385 15.8038 3.97342 44.6385 15.8038 3.97342
246 2 42.0975 17.4551 2.28962 42.0975 17.4551 2.28962
247 1 42.8428 14.8104 2.51689 42.8428 14.8104 2.51689
248 2 44.5583 13.7211 1.17523 44.5583 13.7211 1.17523
249 2 41.8879 15.2017 0.221677 41.8879 15.2017 0.221677
250 1 44.1579 15.7706 -0.369496 44.1579 15.7706 -0.369496
251 2 45.9841 14.5427 -1.57312 45.9841 14.5427 -1.57312
252 2 43.2596 15.9583 -2.87579 43.2596 15.9583 -2.87579
253 1 44.1203 13.5077 -2.8865 44.1203 13.5077 -2.8865
254 2 46.046 12.401 -3.8352 46.046 12.401 -3.8352
255 2 43.4587 13.7199 -5.22359 43.4587 13.7199 -5.22359
256 1 45.9121 14.273 -5.50348 45.9121 14.273 -5.50348
257 2 47.9405 12.957 -5.82432 47.9405 12.957 -5.82432
258 2 45.6895 13.9806 -7.95181 45.6895 13.9806 -7.95181
259 1 46.6359 11.6889 -7.63058 46.6359 11.6889 -7.63058
260 2 48.7513 10.3498 -7.54445 48.7513 10.3498 -7.54445
261 2 48.244 10.8432 8.90295 48.244 10.8432 -11.0971
262 1 49.6433 11.9653 -9.4017 49.6433 11.9653 -9.4017
263 2 51.1508 10.1432 -8.95595 51.1508 10.1432 -8.95595
264 2 50.1755 10.814 6.5173 50.1755 10.814 -13.4827
265 1 50.2681 9.45728 8.65706 50.2681 9.45728 -11.3429
266 2 52.2465 7.93562 7.98903 52.2465 7.93562 -12.011
267 2 50.7497 8.73326 4.54697 50.7497 8.73326 -15.453
268 1 52.4355 9.78885 6.09205 52.4355 9.78885 -13.908
269 2 54.4798 8.47298 5.37407 54.4798 8.47298 -14.6259
270 2 52.9109 9.98741 3.54722 52.9109 9.98741 -16.4528
271 1 23.2585 25.7503 -3.83277 23.2585 25.7503 16.1672
272 2 25.3413 26.8389 -2.94804 25.3413 26.8389 17.052
273 2 25.0099 24.6618 -5.29811 25.0099 24.6618 14.7019
274 1 26.1633 26.8131 -5.1817 26.1633 26.8131 14.8183
275 2 28.4853 27.3871 -4.16781 28.4853 27.3871 15.8322
276 2 27.848 25.5754 -6.72121 27.848 25.5754 13.2788
277 1 29.0286 25.0908 -4.65912 29.0286 25.0908 15.3409
278 2 31.3027 25.4173 -3.60685 31.3027 25.4173 16.3931
279 2 30.3297 24.0095 -6.52394 30.3297 24.0095 13.4761
280 1 31.8791 25.8908 -5.9711 31.8791 25.8908 14.0289
281 2 34.2228 26.0962 -5.0453 34.2228 26.0962 14.9547
282 2 33.12 24.7452 -7.86183 33.12 24.7452 12.1382
283 1 34.3342 23.6838 -5.79666 34.3342 23.6838 14.2033
284 2 36.7286 23.3996 -5.32816 36.7286 23.3996 14.6718
285 2 35.0218 22.7792 -8.0675 35.0218 22.7792 11.9325
286 1 37.0091 24.2157 -7.67843 37.0091 24.2157 12.3216
287 2 39.4831 23.7423 -7.37342 39.4831 23.7423 12.6266
288 2 37.5361 23.2687 9.94499 37.5361 23.2687 9.94499
289 1 38.9423 21.6147 -8.62772 38.9423 21.6147 11.3723
290 2 41.2981 20.719 -8.94538 41.2981 20.719 11.0546
291 2 38.9354 21.108 8.89559 38.9354 21.108 8.89559
292 1 41.2402 22.0521 8.98386 41.2402 22.0521 8.98386
293 2 43.554 21.2084 8.5548 43.554 21.2084 8.5548
294 2 41.0348 21.6739 6.42144 41.0348 21.6739 6.42144
295 1 42.2269 19.6286 7.1496 42.2269 19.6286 7.1496
296 2 44.3845 18.2699 6.28759 44.3845 18.2699 6.28759
297 2 41.804 19.4947 4.62354 41.804 19.4947 4.62354
298 1 44.2977 20.0994 4.57532 44.2977 20.0994 4.57532
299 2 46.302 18.9026 3.70312 46.302 18.9026 3.70312
300 2 43.7925 20.1481 2.21111 43.7925 20.1481 2.21111
301 1 44.6119 17.737 2.23219 44.6119 17.737 2.23219
302 2 46.194 16.4984 0.944554 46.194 16.4984 0.944554
303 2 43.6755 18.2321 -0.0684628 43.6755 18.2321 -0.0684628
304 1 46.1143 18.5033 -0.711692 46.1143 18.5033 -0.711692
305 2 47.763 17.8385 -2.75425 47.763 17.8385 -2.75425
306 2 44.6786 18.9505 -2.79638 44.6786 18.9505 -2.79638
307 1 45.6772 16.5495 -3.09114 45.6772 16.5495 -3.09114
308 2 47.5958 15.0908 -3.88108 47.5958 15.0908 -3.88108
309 2 45.3291 16.7395 -5.50407 45.3291 16.7395 -5.50407
310 1 47.8488 16.9633 -5.39575 47.8488 16.9633 -5.39575
311 2 49.7657 15.5128 -6.0496 49.7657 15.5128 -6.0496
312 2 47.4777 16.9023 -7.92769 47.4777 16.9023 -7.92769
313 1 48.2842 14.5087 -7.90708 48.2842 14.5087 -7.90708
314 2 50.4992 13.503 -7.75287 50.4992 13.503 -7.75287
315 2 49.4455 13.7063 8.71256 49.4455 13.7063 -11.2874
316 1 51.0848 14.8671 -9.75068 51.0848 14.8671 -9.75068
317 2 52.0995 12.5187 -9.64995 52.0995 12.5187 -9.64995
318 2 53.0283 14.3806 8.54527 53.0283 14.3806 -11.4547
319 1 51.4677 12.5364 7.8205 51.4677 12.5364 -12.1795
320 2 52.6946 10.523 8.68331 52.6946 10.523 -11.3167
321 2 53.5611 12.0395 6.30649 53.5611 12.0395 -13.6935
322 1 20.4544 26.7147 -5.12568 71.8652 26.7147 14.8743
323 2 22.4134 28.168 -4.27231 73.8242 28.168 15.7277
324 2 22.5549 25.6396 -6.33804 73.9656 25.6396 13.662
325 1 23.4459 27.9354 -6.45615 23.4459 27.9354 13.5439
326 2 25.3607 29.132 -5.40886 25.3607 29.132 14.5911
327 2 25.3067 26.6817 -7.50456 25.3067 26.6817 12.4954
328 1 26.2852 28.9319 -7.69547 26.2852 28.9319 12.3045
329 2 28.34 29.9876 -6.48473 28.34 29.9876 13.5153
330 2 28.2076 27.7997 -8.9149 28.2076 27.7997 11.0851
331 1 29.1325 27.6734 -6.57529 29.1325 27.6734 13.4247
332 2 31.4061 28.3241 -5.49023 31.4061 28.3241 14.5098
333 2 30.7515 26.5965 -8.10589 30.7515 26.5965 11.8941
334 1 32.0291 28.631 -7.86979 32.0291 28.631 12.1302
335 2 34.3622 29.041 -6.86792 34.3622 29.041 13.1321
336 2 33.365 27.2811 -9.5373 33.365 27.2811 10.4627
337 1 34.6619 26.6399 -7.45193 34.6619 26.6399 12.5481
338 2 37.1131 26.5205 -6.73444 37.1131 26.5205 13.2656
339 2 35.6964 25.4541 -9.46812 35.6964 25.4541 10.5319
340 1 37.4066 27.214 -9.15711 37.4066 27.214 10.8429
341 2 39.8516 27.0217 -8.61379 39.8516 27.0217 11.3862
342 2 38.3352 26.2333 8.71663 38.3352 26.2333 8.71663
343 1 39.6095 24.7358 -9.67419 39.6095 24.7358 10.3258
344 2 42.0606 24.1791 -9.77093 42.0606 24.1791 10.2291
345 2 39.7579 23.8241 7.99802 39.7579 23.8241 7.99802
346 1 42.0092 25.1903 7.94523 42.0092 25.1903 7.94523
347 2 44.4106 24.3144 7.87188 44.4106 24.3144 7.87188
348 2 42.1311 24.434 5.61763 42.1311 24.434 5.61763
349 1 43.4553 22.5635 6.45505 43.4553 22.5635 6.45505
350 2 45.7311 21.5237 6.02659 45.7311 21.5237 6.02659
351 2 43.2 22.2707 4.01447 43.2 22.2707 4.01447
352 1 45.6756 23.0878 4.05948 45.6756 23.0878 4.05948
353 2 47.7585 21.939 3.40406 47.7585 21.939 3.40406
354 2 45.372 22.9579 1.64317 45.372 22.9579 1.64317
355 1 46.3382 20.6777 1.85622 46.3382 20.6777 1.85622
356 2 48.0659 19.3688 0.573754 48.0659 19.3688 0.573754
357 2 45.394 20.9131 -0.489053 45.394 20.9131 -0.489053
358 1 47.9241 21.3195 -0.916743 47.9241 21.3195 -0.916743
359 2 49.0915 20.2545 -3.30765 49.0915 20.2545 -3.30765
360 2 46.4194 22.1853 -2.89597 46.4194 22.1853 -2.89597
361 1 46.734 19.9006 -3.86006 46.734 19.9006 -3.86006
362 2 50.1788 17.9873 -5.25611 50.1788 17.9873 -5.25611
363 2 46.7697 19.1673 -6.3354 46.7697 19.1673 -6.3354
364 1 49.063 20.079 -6.14308 49.063 20.079 -6.14308
365 2 51.2673 19.5651 -7.35179 51.2673 19.5651 -7.35179
366 2 48.5798 19.3326 -8.52195 48.5798 19.3326 -8.52195
367 1 50.0428 17.362 -7.78845 50.0428 17.362 -7.78845
368 2 52.2003 16.0632 -7.81558 52.2003 16.0632 -7.81558
369 2 49.0546 16.0933 -9.83174 49.0546 16.0933 -9.83174
370 1 15.0895 27.668 -8.57022 66.5003 27.668 11.4298
371 2 15.1979 30.1427 -8.30495 66.6086 30.1427 11.695
372 2 17.4092 27.4915 -9.30596 68.82 27.4915 10.694
373 1 17.7811 27.1639 -6.77269 69.1919 27.1639 13.2273
374 2 19.3066 28.9177 -5.93113 70.7174 28.9177 14.0689
375 2 19.8859 26.2339 -7.48965 71.2967 26.2339 12.5103
376 1 20.5696 28.5324 -7.94714 71.9803 28.5324 12.0529
377 2 22.2135 30.0302 -6.59265 73.6243 30.0302 13.4074
378 2 22.7832 27.6633 -8.84865 74.1939 27.6633 11.1513
379 1 23.4389 30.0594 -8.80422 23.4389 30.0594 11.1958
380 2 25.2647 31.2393 -7.53521 25.2647 31.2393 12.4648
381 2 25.3512 29.0675 9.96966 25.3512 29.0675 9.96966
382 1 26.3171 31.4322 -9.79144 26.3171 31.4322 10.2086
383 2 28.3938 32.5593 -8.80687 28.3938 32.5593 11.1931
384 2 28.1024 30.1506 8.97233 28.1024 30.1506 8.97233
385 1 29.235 30.0612 -8.80331 29.235 30.0612 11.1967
386 2 31.2557 31.0366 -7.79336 31.2557 31.0366 12.2066
387 2 30.9695 28.8957 9.80418 30.9695 28.8957 9.80418
388 1 32.1888 31.1598 9.85507 32.1888 31.1598 9.85507
389 2 34.2858 31.7776 -9.03421 34.2858 31.7776 10.9658
390 2 33.7216 29.8141 8.44752 33.7216 29.8141 8.44752
391 1 34.8651 29.3351 -9.43517 34.8651 29.3351 10.5648
392 2 37.2034 29.6968 -8.38596 37.2034 29.6968 11.614
393 2 36.2078 28.1779 8.87206 36.2078 28.1779 8.87206
394 1 37.8817 30.1755 9.18698 37.8817 30.1755 9.18698
395 2 40.2947 30.1519 9.75596 40.2947 30.1519 9.75596
396 2 38.7956 28.8889 7.20499 38.7956 28.8889 7.20499
397 1 40.2271 27.7513 9.00994 40.2271 27.7513 9.00994
398 2 42.7581 27.1678 9.31855 42.7581 27.1678 9.31855
399 2 40.7243 26.9242 6.71679 40.7243 26.9242 6.71679
400 1 42.7913 28.25 6.87978 42.7913 28.25 6.87978
401 2 45.2095 27.6012 7.05731 45.2095 27.6012 7.05731
402 2 43.1339 27.5239 4.41846 43.1339 27.5239 4.41846
403 1 44.3089 25.6557 5.65193 44.3089 25.6557 5.65193
404 2 46.7133 24.7525 5.66438 46.7133 24.7525 5.66438
405 2 44.5697 25.3558 3.2685 44.5697 25.3558 3.2685
406 1 46.9077 26.0953 3.58578 46.9077 26.0953 3.58578
407 2 49.1512 24.9951 3.10211 49.1512 24.9951 3.10211
408 2 46.7888 25.9824 1.02029 46.7888 25.9824 1.02029
409 1 47.7997 23.625 1.55966 47.7997 23.625 1.55966
410 2 49.7806 22.3817 0.704511 49.7806 22.3817 0.704511
411 2 47.3396 23.886 -0.87059 47.3396 23.886 -0.87059
412 1 49.7565 24.2483 -0.977212 49.7565 24.2483 -0.977212
413 2 50.7879 22.5608 -2.57206 50.7879 22.5608 -2.57206
414 2 48.797 25.021 -3.23713 48.797 25.021 -3.23713
415 1 48.6528 22.6566 -3.87966 48.6528 22.6566 -3.87966
416 2 50.4417 22.4723 -5.66723 50.4417 22.4723 -5.66723
417 2 47.1782 21.7627 -5.65048 47.1782 21.7627 -5.65048
418 1 61.0655 28.7439 8.00537 61.0655 28.7439 8.00537
419 2 61.2295 31.112 8.27284 61.2295 31.112 8.27284
420 2 63.3549 28.5629 7.31487 63.3549 28.5629 7.31487
421 1 63.642 28.3166 9.68081 63.642 28.3166 9.68081
422 2 64.0163 30.6244 -9.99141 64.0163 30.6244 10.0086
423 2 14.5583 27.9486 9.00176 65.9691 27.9486 9.00176
424 1 66.3682 30.4325 9.32733 66.3682 30.4325 9.32733
425 2 16.6896 32.1385 -9.68988 68.1004 32.1385 10.3101
426 2 17.1853 29.4099 8.58323 68.5961 29.4099 8.58323
427 1 17.7445 29.8598 -8.99572 69.1553 29.8598 11.0043
428 2 19.6199 30.9247 -7.89021 71.0306 30.9247 12.1098
429 2 19.7467 28.7136 9.68251 71.1575 28.7136 9.68251
430 1 20.638 31.0465 9.81814 72.0487 31.0465 9.81814
431 2 22.4561 32.3034 -8.9226 73.8669 32.3034 11.0774
432 2 22.6871 29.9913 8.72061 74.0979 29.9913 8.72061
433 1 23.5258 32.2939 8.79693 23.5258 32.2939 8.79693
434 2 25.3113 33.7395 9.86462 25.3113 33.7395 9.86462
435 2 25.5048 31.1578 7.89961 25.5048 31.1578 7.89961
436 1 26.3472 33.4701 7.60632 26.3472 33.4701 7.60632
437 2 28.2189 34.7369 8.61592 28.2189 34.7369 8.61592
438 2 28.3858 32.2202 6.49243 28.3858 32.2202 6.49243
439 1 29.2671 32.3982 8.90251 29.2671 32.3982 8.90251
440 2 31.3407 33.4977 9.8878 31.3407 33.4977 9.8878
441 2 31.012 31.0976 7.69088 31.012 31.0976 7.69088
442 1 32.1736 33.3842 7.46964 32.1736 33.3842 7.46964
443 2 34.1571 34.3581 8.57373 34.1571 34.3581 8.57373
444 2 34.0062 32.0631 6.3077 34.0062 32.0631 6.3077
445 1 35.0356 31.936 8.56656 35.0356 31.936 8.56656
446 2 37.2464 32.5698 9.44926 37.2464 32.5698 9.44926
447 2 36.5601 30.6207 7.06315 36.5601 30.6207 7.06315
448 1 37.9346 32.6512 7.05663 37.9346 32.6512 7.05663
449 2 40.2007 33.0184 8.06636 40.2007 33.0184 8.06636
450 2 39.3334 31.3529 5.34816 39.3334 31.3529 5.34816
451 1 40.6404 30.6293 7.35919 40.6404 30.6293 7.35919
452 2 42.9893 30.3873 8.14179 42.9893 30.3873 8.14179
453 2 41.4898 29.6744 5.28979 41.4898 29.6744 5.28979
454 1 43.4365 31.2437 5.68306 43.4365 31.2437 5.68306
455 2 45.7524 30.6659 6.2906 45.7524 30.6659 6.2906
456 2 44.2592 30.4122 3.36444 44.2592 30.4122 3.36444
457 1 45.3708 28.6992 4.861 45.3708 28.6992 4.861
458 2 47.6854 27.847 5.16896 47.6854 27.847 5.16896
459 2 45.8385 28.1484 2.52115 45.8385 28.1484 2.52115
460 1 48.1322 29.2181 3.02639 48.1322 29.2181 3.02639
461 2 50.5093 28.4239 2.87769 50.5093 28.4239 2.87769
462 2 48.4329 29.1235 0.501023 48.4329 29.1235 0.501023
463 1 49.2202 26.7924 1.29649 49.2202 26.7924 1.29649
464 2 51.2289 25.4533 0.708828 51.2289 25.4533 0.708828
465 2 48.8301 26.7258 -1.18074 48.8301 26.7258 -1.18074
466 1 51.3215 27.1706 -1.27356 51.3215 27.1706 -1.27356
467 2 52.232 24.795 -1.70679 52.232 24.795 -1.70679
468 2 50.5496 27.2668 -3.8147 50.5496 27.2668 -3.8147
469 1 51.1549 24.7931 -3.89131 51.1549 24.7931 -3.89131
470 2 58.553 30.8953 6.36098 58.553 30.8953 6.36098
471 2 60.6567 28.9195 5.52122 60.6567 28.9195 5.52122
472 1 60.9825 31.4234 5.68625 60.9825 31.4234 5.68625
473 2 62.5208 33.1755 6.79099 62.5208 33.1755 6.79099
474 2 63.0982 30.3544 5.10831 63.0982 30.3544 5.10831
475 1 63.643 30.9938 7.56779 63.643 30.9938 7.56779
476 2 65.2988 32.7104 8.59288 65.2988 32.7104 8.59288
477 2 65.9259 30.0408 6.78427 65.9259 30.0408 6.78427
478 1 66.5737 32.4565 6.40935 66.5737 32.4565 6.40935
479 2 68.1534 33.9285 7.70938 68.1534 33.9285 7.70938
480 2 17.2183 31.2771 5.78313 68.6291 31.2771 5.78313
481 1 17.8385 31.675 8.19696 69.2493 31.675 8.19696
482 2 19.6208 33.281 9.16537 71.0316 33.281 9.16537
483 2 19.9357 30.5977 7.32783 71.3464 30.5977 7.32783
484 1 20.7702 32.9164 6.97844 72.181 32.9164 6.97844
485 2 22.3725 34.377 8.36507 73.7833 34.377 8.36507
486 2 22.884 31.8665 6.29487 74.2948 31.8665 6.29487
487 1 23.6365 34.3005 6.02115 23.6365 34.3005 6.02115
488 2 25.3954 35.7484 7.04844 25.3954 35.7484 7.04844
489 2 25.5793 32.9262 5.23236 25.5793 32.9262 5.23236
490 1 26.4324 35.2904 4.81705 26.4324 35.2904 4.81705
491 2 28.2911 36.7709 5.72764 28.2911 36.7709 5.72764
492 2 28.5456 34.0023 3.96459 28.5456 34.0023 3.96459
493 1 29.301 34.5636 6.25556 29.301 34.5636 6.25556
494 2 31.2811 35.7957 7.19439 31.2811 35.7957 7.19439
495 2 31.2027 33.3216 5.21875 31.2027 33.3216 5.21875
496 1 32.2057 35.5195 4.99958 32.2057 35.5195 4.99958
497 2 34.2897 36.6686 5.97684 34.2897 36.6686 5.97684
498 2 34.0067 34.1821 3.88718 34.0067 34.1821 3.88718
499 1 35.1634 34.3466 6.19975 35.1634 34.3466 6.19975
500 2 37.3474 35.1066 7.32403 37.3474 35.1066 7.32403
501 2 36.708 32.9145 4.83468 36.708 32.9145 4.83468
502 1 38.093 35.0888 4.85987 38.093 35.0888 4.85987
503 2 40.229 35.8754 5.73411 40.229 35.8754 5.73411
504 2 39.6887 33.7208 3.43407 39.6887 33.7208 3.43407
505 1 40.7879 33.4251 5.69286 40.7879 33.4251 5.69286
506 2 43.2489 33.5687 6.55509 43.2489 33.5687 6.55509
507 2 42.1805 32.3069 3.83523 42.1805 32.3069 3.83523
508 1 43.7402 34.0697 4.16649 43.7402 34.0697 4.16649
509 2 46.249 34.2651 4.79836 46.249 34.2651 4.79836
510 2 44.6897 32.8827 2.19255 44.6897 32.8827 2.19255
511 1 46.1813 31.881 3.9999 46.1813 31.881 3.9999
512 2 48.5595 31.3029 4.45211 48.5595 31.3029 4.45211
513 2 46.8399 30.9143 1.74754 46.8399 30.9143 1.74754
514 1 48.9171 32.3383 2.0823 48.9171 32.3383 2.0823
515 2 51.2076 31.4334 2.85195 51.2076 31.4334 2.85195
516 2 50.2364 32.1738 -0.143256 50.2364 32.1738 -0.143256
517 1 50.8076 29.8343 0.901072 50.8076 29.8343 0.901072
518 2 52.6737 28.3061 0.582003 52.6737 28.3061 0.582003
519 2 50.4094 29.4535 -1.61188 50.4094 29.4535 -1.61188
520 1 55.3435 32.3704 2.39225 55.3435 32.3704 2.39225
521 2 56.7208 33.7882 3.95623 56.7208 33.7882 3.95623
522 2 57.7577 32.0127 1.38428 57.7577 32.0127 1.38428
523 1 58.2133 31.7085 3.88956 58.2133 31.7085 3.88956
524 2 59.5218 33.3803 5.1816 59.5218 33.3803 5.1816
525 2 60.4154 30.9041 3.2719 60.4154 30.9041 3.2719
526 1 60.9445 33.4481 3.09204 60.9445 33.4481 3.09204
527 2 62.6397 34.8787 4.4103 62.6397 34.8787 4.4103
528 2 63.0791 32.4341 2.36594 63.0791 32.4341 2.36594
529 1 63.8573 32.7132 4.66991 63.8573 32.7132 4.66991
530 2 65.1444 34.4329 5.84406 65.1444 34.4329 5.84406
531 2 66.0728 31.8608 4.04898 66.0728 31.8608 4.04898
532 1 66.5609 34.2706 3.86265 66.5609 34.2706 3.86265
533 2 68.2499 35.7831 4.94226 68.2499 35.7831 4.94226
534 2 17.2742 33.0413 3.16888 68.6849 33.0413 3.16888
535 1 18.048 33.6076 5.51516 69.4588 33.6076 5.51516
536 2 19.7069 35.1594 6.59719 71.1177 35.1594 6.59719
537 2 20.0466 32.4536 4.64222 71.4574 32.4536 4.64222
538 1 20.8503 34.9069 4.3873 72.2611 34.9069 4.3873
539 2 22.5262 36.5199 5.36167 73.9369 36.5199 5.36167
540 2 22.927 33.6645 3.68693 74.3378 33.6645 3.68693
541 1 23.6425 36.1096 3.11444 23.6425 36.1096 3.11444
542 2 25.4902 37.5705 4.12755 25.4902 37.5705 4.12755
543 2 25.6304 34.7198 2.40579 25.6304 34.7198 2.40579
544 1 26.6124 37.0295 1.93268 26.6124 37.0295 1.93268
545 2 28.5185 38.4816 2.51694 28.5185 38.4816 2.51694
546 2 28.5163 35.5051 1.30473 28.5163 35.5051 1.30473
547 1 29.3436 36.2701 3.44096 29.3436 36.2701 3.44096