ITEM: TIMESTEP
5884000
ITEM: NUMBER OF ATOMS
810
ITEM: BOX BOUNDS xy xz yz pp pp pp
-2.1537699766399015e+01 5.2214187229542503e+01 -2.2341117536856977e+01
8.0582000660415243e-01 5.0210394993394715e+01 0.0000000000000000e+00
-1.0000000000000000e+01 1.0000000000000000e+01 0.0000000000000000e+00
ITEM: ATOMS id type x y z xu yu zu
1 1 29.8987 45.1348 9.33511 0.829098 -4.26975 -10.6649
2 2 -19.2519 45.7304 -10.0678 3.08919 -3.67421 -10.0678
3 2 31.0005 43.4865 7.87082 1.93089 -5.91804 -12.1292
4 1 -18.8549 45.4731 7.52904 3.48623 -3.93147 -12.471
5 2 -16.5419 46.2454 8.25715 5.79925 -3.15919 -11.7428
6 2 -17.3954 44.057 5.96705 4.94576 -5.34762 -14.033
7 1 -16.0431 43.7619 8.21287 6.29805 -5.64264 -11.7871
8 2 -14.0123 44.9097 9.25893 8.32879 -4.4949 -10.7411
9 2 -14.2279 42.4532 7.14667 8.11319 -6.95133 -12.8533
10 1 -13.2201 44.6659 6.93075 9.12105 -4.73864 -13.0692
11 2 -11.1492 45.9061 7.96286 11.1919 -3.49845 -12.0371
12 2 -11.3506 43.3143 5.98103 10.9905 -6.09026 -14.019
13 1 -10.2955 43.493 8.2537 12.0457 -5.91154 -11.7463
14 2 -8.54846 44.9902 9.18607 13.7927 -4.4144 -10.8139
15 2 -8.30352 42.2738 7.45699 14.0376 -7.1308 -12.543
16 1 -7.33592 44.5179 6.97407 15.0052 -4.88669 -13.0259
17 2 -5.78064 46.2626 8.09116 16.5605 -3.14199 -11.9088
18 2 -5.0768 43.6127 6.29178 17.2643 -5.79183 -13.7082
19 1 -4.53752 44.13 8.65713 17.8036 -5.27453 -11.3429
20 2 -2.73131 45.5784 9.46216 19.6098 -3.82615 -10.5378
21 2 -2.65747 42.8523 7.67406 19.6837 -6.55232 -12.3259
22 1 -1.71616 45.1208 7.16117 20.625 -4.28377 -12.8388
23 2 0.387524 46.4564 7.41641 22.7286 -2.94813 -12.5836
24 2 0.296901 43.7684 6.70532 22.638 -5.63613 -13.2947
25 1 1.11017 44.6049 8.97484 23.4513 -4.79965 -11.0252
26 2 2.97161 46.0167 9.84788 25.3127 -3.38788 -10.1521
27 2 3.39884 43.8678 8.0999 25.74 -5.53679 -11.9001
28 1 40.2244 7.11867 7.47251 40.2244 7.11867 7.47251
29 2 42.0218 5.86387 6.21307 42.0218 5.86387 6.21307
30 2 39.3516 7.43231 5.18273 39.3516 7.43231 5.18273
31 1 39.9681 4.91007 5.15302 39.9681 4.91007 5.15302
32 2 41.6642 3.66809 3.87847 41.6642 3.66809 3.87847
33 2 39.2074 5.21426 2.76412 39.2074 5.21426 2.76412
34 1 41.6516 5.50161 2.26377 41.6516 5.50161 2.26377
35 2 43.3146 4.28015 0.931224 43.3146 4.28015 0.931224
36 2 40.5055 5.5424 0.0391335 40.5055 5.5424 0.0391335
37 1 41.2631 3.11222 -0.0584656 41.2631 3.11222 -0.0584656
38 2 43.3037 1.84549 -0.876597 43.3037 1.84549 -0.876597
39 2 40.5836 2.76768 -2.50842 40.5836 2.76768 -2.50842
40 1 42.9884 3.36889 -2.79041 42.9884 3.36889 -2.79041
41 2 45.0383 2.09455 -3.41778 45.0383 2.09455 -3.41778
42 2 42.6414 2.98571 -5.29967 42.6414 2.98571 -5.29967
43 1 21.2301 50.0214 -4.78835 43.5712 0.616782 -4.78835
44 2 23.5628 49.2169 -4.95751 45.9039 -0.187686 -4.95751
45 2 21.0365 49.0999 -7.01358 43.3776 -0.304626 -7.01358
46 1 45.7176 0.793677 -7.30123 45.7176 0.793677 -7.30123
47 2 25.7469 49.4643 -7.12307 48.088 0.0596874 -7.12307
48 2 23.6646 49.2356 -9.70033 46.0057 -0.168992 -9.70033
49 1 24.8914 47.4838 -8.28148 47.2325 -1.92081 -8.28148
50 2 27.4722 47.3007 -8.0696 49.8133 -2.10383 -8.0696
51 2 25.5941 46.0185 9.67353 47.9352 -3.38609 -10.3265
52 1 27.4991 47.579 9.4628 49.8402 -1.82558 -10.5372
53 2 30.0322 47.5297 -9.98504 52.3733 -1.87487 -9.98504
54 2 28.2078 45.9982 7.69291 50.549 -3.40636 -12.3071
55 1 30.1032 47.8399 7.44682 1.03353 -1.56471 -12.5532
56 2 -18.8475 48.0182 8.02082 3.49362 -1.38635 -11.9792
57 2 31.0235 46.4338 5.55711 1.9539 -2.97082 -14.4429
58 1 -18.607 48.2065 5.47064 3.73408 -1.19806 -14.5294
59 2 -16.2855 48.757 6.15451 6.0556 -0.64759 -13.8455
60 2 -17.4322 46.7375 3.77683 4.90894 -2.66704 -16.2232
61 1 -16.0081 46.1702 5.88333 6.33299 -3.23436 -14.1167
62 2 -13.8345 47.0413 6.93819 8.50664 -2.36323 -13.0618
63 2 -14.3874 44.69 4.75649 7.95374 -4.71455 -15.2435
64 1 -13.067 46.8809 4.58587 9.2741 -2.52363 -15.4141
65 2 -10.9514 48.0262 5.52416 11.3897 -1.37841 -14.4758
66 2 -11.4733 45.4491 3.39832 10.8679 -3.9555 -16.6017
67 1 -10.2767 45.5978 5.61128 12.0644 -3.80675 -14.3887
68 2 -8.29543 46.8321 6.77056 14.0457 -2.57252 -13.2294
69 2 -8.27407 44.4086 4.58974 14.067 -4.996 -15.4103
70 1 -7.36565 46.8005 4.51855 14.9755 -2.60406 -15.4815
71 2 -5.61637 48.1533 5.61986 16.7247 -1.25127 -14.3801
72 2 -5.36515 45.4703 3.56056 16.976 -3.93431 -16.4394
73 1 -4.59136 45.9473 5.82781 17.7498 -3.45724 -14.1722
74 2 -2.86837 47.3256 7.1386 19.4727 -2.079 -12.8614
75 2 -2.35745 45.4727 4.8404 19.9837 -3.93191 -15.1596
76 1 40.6484 11.4031 -7.61748 40.6484 11.4031 12.3825
77 2 42.4582 9.85954 -8.66507 42.4582 9.85954 11.3349
78 2 40.2983 11.6858 9.91363 40.2983 11.6858 9.91363
79 1 40.473 9.22366 9.9238 40.473 9.22366 9.9238
80 2 42.2612 7.85983 8.89155 42.2612 7.85983 8.89155
81 2 39.8655 9.53565 7.44835 39.8655 9.53565 7.44835
82 1 42.4043 9.64382 7.17195 42.4043 9.64382 7.17195
83 2 43.8553 8.13373 5.8578 43.8553 8.13373 5.8578
84 2 41.4923 10.1246 4.87488 41.4923 10.1246 4.87488
85 1 41.7619 7.72329 4.60876 41.7619 7.72329 4.60876
86 2 43.6498 6.39405 3.4339 43.6498 6.39405 3.4339
87 2 40.9586 7.93028 2.17323 40.9586 7.93028 2.17323
88 1 43.3519 8.22312 1.7195 43.3519 8.22312 1.7195
89 2 44.9006 6.74463 0.533252 44.9006 6.74463 0.533252
90 2 42.4353 8.5454 -0.587653 42.4353 8.5454 -0.587653
91 1 42.8174 6.06085 -0.681481 42.8174 6.06085 -0.681481
92 2 44.7988 4.68354 -1.59081 44.7988 4.68354 -1.59081
93 2 42.1589 5.71731 -3.15023 42.1589 5.71731 -3.15023
94 1 44.6036 6.36413 -3.4839 44.6036 6.36413 -3.4839
95 2 46.5486 4.93549 -3.99937 46.5486 4.93549 -3.99937
96 2 44.3314 6.0598 -6.04537 44.3314 6.0598 -6.04537
97 1 44.9992 3.67966 -5.49469 44.9992 3.67966 -5.49469
98 2 47.1986 2.49037 -5.86807 47.1986 2.49037 -5.86807
99 2 44.7839 3.08542 -7.92814 44.7839 3.08542 -7.92814
100 1 47.209 3.73248 -7.9364 47.209 3.73248 -7.9364
101 2 49.4782 2.72001 -8.26209 49.4782 2.72001 -8.26209
102 2 47.1348 2.90927 9.60185 47.1348 2.90927 -10.3981
103 1 48.2563 0.94615 -9.56172 48.2563 0.94615 -9.56172
104 2 28.4122 49.8276 -9.44217 50.7533 0.423046 -9.44217
105 2 26.0518 49.1604 8.17328 48.3929 -0.244156 -11.8267
106 1 50.563 1.1068 8.10666 50.563 1.1068 -11.8933
107 2 -20.7208 50.171 8.11031 53.0311 0.766427 -11.8897
108 2 28.5457 49.1642 5.97117 50.8869 -0.240421 -14.0288
109 1 1.53737 1.33194 5.68444 1.53737 1.33194 -14.3156
110 2 3.93042 1.18897 6.31811 3.93042 1.18897 -13.6819
111 2 -19.9596 49.4147 3.68335 2.38148 0.0101126 -16.3166
112 1 4.20184 1.71378 3.87126 4.20184 1.71378 -16.1287
113 2 6.73166 1.72727 4.21061 6.73166 1.72727 -15.7894
114 2 -17.4407 49.6549 1.91738 4.9004 0.25034 -18.0826
115 1 -15.797 48.6513 3.69735 6.54408 -0.753252 -16.3027
116 2 -13.4954 49.3516 4.67601 8.84567 -0.0530209 -15.324
117 2 -14.3582 47.171 2.38686 7.98295 -2.23359 -17.6131
118 1 -12.9739 49.3261 2.26882 9.36726 -0.0784741 -17.7312
119 2 11.7162 0.64364 2.82632 11.7162 0.64364 -17.1737
120 2 -11.4806 47.8064 1.04433 10.8605 -1.59821 -18.9557
121 1 -10.3165 47.6706 3.13518 12.0246 -1.73402 -16.8648
122 2 -8.50176 48.9846 4.60929 13.8394 -0.419999 -15.3907
123 2 -7.93319 47.4703 2.1781 14.4079 -1.93428 -17.8219
124 1 40.0111 16.2625 -3.65517 40.0111 16.2625 16.3448
125 2 42.2882 15.3176 -4.28578 42.2882 15.3176 15.7142
126 2 39.6748 15.867 -6.04875 39.6748 15.867 13.9513
127 1 40.6752 13.7705 -5.5106 40.6752 13.7705 14.4894
128 2 42.5966 12.4803 -6.22435 42.5966 12.4803 13.7757
129 2 40.1694 13.8463 -8.01107 40.1694 13.8463 11.9889
130 1 42.6574 14.0064 -8.15502 42.6574 14.0064 11.845
131 2 44.5707 12.6815 -8.83819 44.5707 12.6815 11.1618
132 2 42.2413 14.0708 9.38778 42.2413 14.0708 9.38778
133 1 42.7929 11.7298 9.72874 42.7929 11.7298 9.72874
134 2 44.4331 10.391 8.43025 44.4331 10.391 8.43025
135 2 41.9216 12.1007 7.40714 41.9216 12.1007 7.40714
136 1 44.3341 12.2438 6.76161 44.3341 12.2438 6.76161
137 2 45.8335 10.6281 5.77803 45.8335 10.6281 5.77803
138 2 43.7116 12.5779 4.37692 43.7116 12.5779 4.37692
139 1 43.9706 10.0747 4.2918 43.9706 10.0747 4.2918
140 2 45.5724 8.78749 2.86371 45.5724 8.78749 2.86371
141 2 42.9957 10.5862 2.03873 42.9957 10.5862 2.03873
142 1 45.3929 10.8146 1.35349 45.3929 10.8146 1.35349
143 2 47.001 9.35043 0.0658628 47.001 9.35043 0.0658628
144 2 44.5225 11.2212 -0.975626 44.5225 11.2212 -0.975626
145 1 44.8521 8.68486 -1.14468 44.8521 8.68486 -1.14468
146 2 46.558 7.14926 -2.01178 46.558 7.14926 -2.01178
147 2 44.3352 8.89455 -3.59736 44.3352 8.89455 -3.59736
148 1 46.862 8.88259 -3.70947 46.862 8.88259 -3.70947
149 2 48.7246 7.54226 -4.65115 48.7246 7.54226 -4.65115
150 2 46.1259 8.96705 -6.11535 46.1259 8.96705 -6.11535
151 1 46.8379 6.45619 -6.02208 46.8379 6.45619 -6.02208
152 2 48.8509 5.09872 -6.52761 48.8509 5.09872 -6.52761
153 2 46.3757 6.10261 -8.48921 46.3757 6.10261 -8.48921
154 1 48.8508 6.60013 -8.50857 48.8508 6.60013 -8.50857
155 2 -0.458449 5.40066 -9.18247 50.9523 5.40066 -9.18247
156 2 48.3616 6.12437 9.05056 48.3616 6.12437 -10.9494
157 1 49.3985 3.92211 9.55743 49.3985 3.92211 -10.4426
158 2 0.332332 3.14354 9.22463 51.7431 3.14354 -10.7754
159 2 49.1722 2.93864 7.16485 49.1722 2.93864 -12.8351
160 1 -0.0961019 4.11723 6.97467 51.3147 4.11723 -13.0253
161 2 2.43473 3.5455 6.79557 53.8455 3.5455 -13.2044
162 2 -0.0706581 3.09412 4.70981 51.3401 3.09412 -15.2902
163 1 2.15665 4.40492 4.34125 2.15665 4.40492 -15.6588
164 2 4.75494 3.97013 4.64791 4.75494 3.97013 -15.3521
165 2 2.72626 2.8753 2.38643 2.72626 2.8753 -17.6136
166 1 4.80171 4.62552 2.22204 4.80171 4.62552 -17.778
167 2 7.18081 4.23857 2.8311 7.18081 4.23857 -17.1689
168 2 5.12774 3.00575 0.320316 5.12774 3.00575 -19.6797
169 1 6.73268 1.93781 1.71347 6.73268 1.93781 -18.2865
170 2 9.23124 2.22232 1.2347 9.23124 2.22232 -18.7653
171 2 -14.5354 49.4332 0.445607 7.80572 0.0286192 -19.5544
172 1 36.6694 21.5057 -1.66252 36.6694 21.5057 18.3375
173 2 39.1648 21.2754 -1.37335 39.1648 21.2754 18.6267
174 2 37.3046 20.3116 -3.79067 37.3046 20.3116 16.2093
175 1 38.6359 18.9342 -2.24475 38.6359 18.9342 17.7552
176 2 41.0961 18.0792 -2.47222 41.0961 18.0792 17.5278
177 2 38.8299 18.1219 -4.57838 38.8299 18.1219 15.4216
178 1 40.9896 19.2439 -4.63829 40.9896 19.2439 15.3617
179 2 43.2757 18.3351 -4.76279 43.2757 18.3351 15.2372
180 2 41.1829 18.7156 -7.17814 41.1829 18.7156 12.8219
181 1 42.0383 16.6941 -6.19398 42.0383 16.6941 13.806
182 2 44.1548 15.2765 -6.60483 44.1548 15.2765 13.3952
183 2 41.878 16.4588 -8.66175 41.878 16.4588 11.3382
184 1 44.3686 16.8515 -8.60627 44.3686 16.8515 11.3937
185 2 -5.07038 15.5885 -9.35269 46.3404 15.5885 10.6473
186 2 43.8912 16.6852 8.89817 43.8912 16.6852 8.89817
187 1 44.7126 14.3461 9.28162 44.7126 14.3461 9.28162
188 2 46.4355 12.8676 8.10321 46.4355 12.8676 8.10321
189 2 44.025 14.7246 6.8542 44.025 14.7246 6.8542
190 1 -4.92895 14.7992 6.49168 46.4818 14.7992 6.49168
191 2 -3.25636 13.2626 5.41464 48.1544 13.2626 5.41464
192 2 45.8311 15.0839 4.20403 45.8311 15.0839 4.20403
193 1 46.1723 12.5601 4.0503 46.1723 12.5601 4.0503
194 2 -3.87424 11.1958 2.53061 47.5365 11.1958 2.53061
195 2 45.192 13.2426 1.91769 45.192 13.2426 1.91769
196 1 -3.84501 13.3053 1.0898 47.5658 13.3053 1.0898
197 2 -2.32722 11.8352 -0.168218 49.0836 11.8352 -0.168218
198 2 -4.77068 13.8542 -1.11825 46.6401 13.8542 -1.11825
199 1 46.9836 11.3184 -1.49887 46.9836 11.3184 -1.49887
200 2 -2.63349 9.72363 -2.32181 48.7773 9.72363 -2.32181
201 2 46.3826 11.27 -3.9828 46.3826 11.27 -3.9828
202 1 -2.52828 11.5377 -4.11234 48.8825 11.5377 -4.11234
203 2 -0.773471 10.0525 -5.06173 50.6373 10.0525 -5.06173
204 2 -3.16069 11.7436 -6.46716 48.2501 11.7436 -6.46716
205 1 -2.75224 9.22846 -6.46286 48.6585 9.22846 -6.46286
206 2 -0.785677 7.68645 -7.07235 50.6251 7.68645 -7.07235
207 2 48.4661 9.03729 -8.9514 48.4661 9.03729 -8.9514
208 1 -0.522005 9.39929 -8.89083 50.8888 9.39929 -8.89083
209 2 1.1811 7.78508 -9.5494 52.5919 7.78508 -9.5494
210 2 -0.49149 8.81052 7.26779 50.9193 8.81052 -12.7322
211 1 -0.693066 6.929 8.87657 50.7177 6.929 -11.1234
212 2 1.3834 5.6887 8.32719 52.7942 5.6887 -11.6728
213 2 -1.29386 6.23362 6.56288 50.1169 6.23362 -13.4371
214 1 1.22663 7.16318 6.23342 52.6374 7.16318 -13.7666
215 2 3.49914 6.30664 5.50116 54.9099 6.30664 -14.4988
216 2 0.630054 6.44896 3.80551 52.0408 6.44896 -16.1945
217 1 2.9581 7.64234 3.37577 2.9581 7.64234 -16.6242
218 2 5.31478 7.07328 2.18093 5.31478 7.07328 -17.8191
219 2 2.52949 5.58396 1.89434 2.52949 5.58396 -18.1057
220 1 31.7792 25.6132 -2.32099 31.7792 25.6132 17.679
221 2 33.9967 26.2915 -1.5525 33.9967 26.2915 18.4475
222 2 33.2172 24.2954 -3.87088 33.2172 24.2954 16.1291
223 1 34.3236 23.703 -1.70604 34.3236 23.703 18.294
224 2 36.8265 23.9504 -1.15215 36.8265 23.9504 18.8478
225 2 35.4343 22.5415 -3.57136 35.4343 22.5415 16.4286
226 1 37.0324 24.3818 -3.56224 37.0324 24.3818 16.4378
227 2 39.4218 24.3187 -2.86695 39.4218 24.3187 17.1331
228 2 37.9954 23.1325 -5.64425 37.9954 23.1325 14.3558
229 1 39.2503 21.9148 -3.77786 39.2503 21.9148 16.2221
230 2 41.6457 21.3093 -3.35387 41.6457 21.3093 16.6461
231 2 39.8393 20.9057 -5.95368 39.8393 20.9057 14.0463
232 1 41.9461 22.305 -5.67493 41.9461 22.305 14.3251
233 2 -7.0244 21.4922 -5.49784 44.3864 21.4922 14.5022
234 2 42.248 21.3503 -8.02537 42.248 21.3503 11.9746
235 1 43.5067 19.5705 -6.8796 43.5067 19.5705 13.1204
236 2 -5.73689 18.4282 -7.16404 45.6739 18.4282 12.836
237 2 43.261 18.9853 -9.31719 43.261 18.9853 10.6828
238 1 -5.80993 19.8909 -9.238 45.6008 19.8909 10.762
239 2 -3.55229 18.626 -9.77608 47.8585 18.626 10.2239
240 2 -6.0027 19.5424 8.1565 45.4081 19.5424 8.1565
241 1 -5.11879 17.2839 8.71799 46.292 17.2839 8.71799
242 2 -3.12917 15.8704 8.02994 48.2816 15.8704 8.02994
243 2 -5.47619 17.3216 6.15233 45.9346 17.3216 6.15233
244 1 -3.08125 17.6453 6.18849 48.3295 17.6453 6.18849
245 2 -1.42032 16.0122 5.24653 49.9905 16.0122 5.24653
246 2 -3.66227 17.7305 3.79226 47.7485 17.7305 3.79226
247 1 -3.1987 15.2031 3.73372 48.2121 15.2031 3.73372
248 2 -1.7213 13.6764 2.20211 49.6895 13.6764 2.20211
249 2 -4.05282 15.7775 1.33438 47.3579 15.7775 1.33438
250 1 -1.61236 15.8255 0.896036 49.7984 15.8255 0.896036
251 2 -0.189426 14.3003 -0.393538 51.2213 14.3003 -0.393538
252 2 -2.58129 16.4148 -1.45116 48.8295 16.4148 -1.45116
253 1 -2.3298 13.8542 -1.66398 49.081 13.8542 -1.66398
254 2 -0.588612 12.3456 -2.64418 50.8222 12.3456 -2.64418
255 2 -2.98922 13.9858 -4.01541 48.4215 13.9858 -4.01541
256 1 -0.469692 14.1869 -4.36915 50.9411 14.1869 -4.36915
257 2 1.24203 12.7382 -5.45273 52.6528 12.7382 -5.45273
258 2 -1.30083 14.3455 -6.74365 50.1099 14.3455 -6.74365
259 1 -0.696269 11.9073 -6.83166 50.7145 11.9073 -6.83166
260 2 1.14901 10.2424 -7.28292 52.5598 10.2424 -7.28292
261 2 -0.143008 11.2267 9.42304 51.2678 11.2267 -10.577
262 1 1.80511 11.9758 -9.11146 53.2159 11.9758 -9.11146
263 2 3.06462 9.86512 -9.37642 54.4754 9.86512 -9.37642
264 2 1.29615 11.2598 6.76907 52.7069 11.2598 -13.2309
265 1 1.53367 9.56448 8.66945 52.9444 9.56448 -11.3306
266 2 3.12437 7.93453 7.6327 54.5351 7.93453 -12.3673
267 2 1.16623 9.10563 4.60981 52.577 9.10563 -15.3902
268 1 3.27556 9.85441 5.86238 54.6863 9.85441 -14.1376
269 2 4.94927 8.35728 4.79356 56.36 8.35728 -15.2064
270 2 3.48835 10.0427 3.23572 54.8991 10.0427 -16.7643
271 1 28.9802 26.6307 -3.48039 28.9802 26.6307 16.5196
272 2 30.858 28.0453 -2.42504 30.858 28.0453 17.575
273 2 30.9007 25.5934 -4.6682 30.9007 25.5934 15.3318
274 1 31.8692 27.9824 -4.71372 31.8692 27.9824 15.2863
275 2 34.011 28.7145 -3.80028 34.011 28.7145 16.1997
276 2 33.4164 26.6297 -6.0295 33.4164 26.6297 13.9705
277 1 34.656 26.3463 -3.8727 34.656 26.3463 16.1273
278 2 36.9607 26.7575 -2.96677 36.9607 26.7575 17.0332
279 2 35.9516 25.1724 -5.643 35.9516 25.1724 14.357
280 1 37.5462 27.0909 -5.38871 37.5462 27.0909 14.6113
281 2 39.8554 27.0525 -4.48796 39.8554 27.0525 15.512
282 2 38.6386 25.807 -7.2418 38.6386 25.807 12.7582
283 1 39.8329 24.708 -5.39581 39.8329 24.708 14.6042
284 2 -9.28613 24.5411 -4.65878 42.1246 24.5411 15.3412
285 2 40.7823 23.6571 -7.41389 40.7823 23.6571 12.5861
286 1 -8.74752 25.177 -7.01511 42.6632 25.177 12.9849
287 2 -6.39756 24.6878 -6.64893 45.0132 24.6878 13.3511
288 2 -8.09616 24.3369 -9.27682 43.3146 24.3369 10.7232
289 1 -6.95263 22.5785 -7.89404 44.4581 22.5785 12.106
290 2 -4.67201 21.6662 -7.97738 46.7388 21.6662 12.0226
291 2 -6.9872 21.8425 9.76319 44.4236 21.8425 9.76319
292 1 -4.6502 22.8233 9.8341 46.7606 22.8233 9.8341
293 2 -2.45902 21.6125 9.8164 48.9517 21.6125 9.8164
294 2 -4.52023 22.3563 7.34688 46.8905 22.3563 7.34688
295 1 -3.60454 20.1838 8.22125 47.8062 20.1838 8.22125
296 2 -1.51066 18.8059 7.71907 49.9001 18.8059 7.71907
297 2 -3.86843 19.9741 5.64267 47.5423 19.9741 5.64267
298 1 -1.41895 20.3705 5.77023 49.9918 20.3705 5.77023
299 2 0.587667 19.0076 5.06995 51.9984 19.0076 5.06995
300 2 -1.95595 20.2976 3.29623 49.4548 20.2976 3.29623
301 1 -1.16671 17.9029 3.55324 50.2441 17.9029 3.55324
302 2 0.446705 16.5202 2.12294 51.8575 16.5202 2.12294
303 2 -2.05407 18.259 1.21589 49.3567 18.259 1.21589
304 1 0.357227 18.5054 0.606837 51.768 18.5054 0.606837
305 2 1.95307 17.3859 -1.11862 53.3638 17.3859 -1.11862
306 2 -0.886535 18.8823 -1.55801 50.5242 18.8823 -1.55801
307 1 -0.108365 16.4574 -1.91219 51.3024 16.4574 -1.91219
308 2 1.4208 14.7556 -2.94689 52.8316 14.7556 -2.94689
309 2 -0.839203 16.5556 -4.23595 50.5716 16.5556 -4.23595
310 1 1.65433 16.6125 -4.55194 53.0651 16.6125 -4.55194
311 2 3.14501 15.0135 -5.72823 54.5558 15.0135 -5.72823
312 2 0.919778 16.9284 -6.83306 52.3305 16.9284 -6.83306
313 1 1.19642 14.5622 -7.28041 52.6072 14.5622 -7.28041
314 2 3.31036 13.116 -7.56553 54.7211 13.116 -7.56553
315 2 1.44379 13.8246 9.44517 52.8546 13.8246 -10.5548
316 1 3.60714 14.6369 -9.64071 55.0179 14.6369 -9.64071
317 2 4.23597 12.2424 -9.90441 55.6467 12.2424 -9.90441
318 2 4.82952 14.4056 8.22186 56.2403 14.4056 -11.7781
319 1 3.13206 12.5504 7.88258 54.5428 12.5504 -12.1174
320 2 4.19232 10.3508 8.16365 55.6031 10.3508 -11.8364
321 2 4.35513 12.023 5.70924 55.7659 12.023 -14.2908
322 1 26.2725 27.3046 -5.14761 77.6833 27.3046 14.8524
323 2 27.9121 28.9097 -4.10147 79.3229 28.9097 15.8985
324 2 28.3595 26.2745 -5.93436 79.7703 26.2745 14.0656
325 1 29.0726 28.6795 -6.24141 29.0726 28.6795 13.7586
326 2 30.8339 30.1205 -5.08151 30.8339 30.1205 14.9185
327 2 30.9801 27.4721 -7.04764 30.9801 27.4721 12.9524
328 1 31.9282 29.918 -7.38541 31.9282 29.918 12.6146
329 2 34.0383 31.12 -6.34303 34.0383 31.12 13.657
330 2 33.8171 28.6035 -8.5401 33.8171 28.6035 11.4599
331 1 34.7338 28.7317 -6.15456 34.7338 28.7317 13.8454
332 2 37.0436 29.456 -5.04998 37.0436 29.456 14.95
333 2 36.3108 27.4494 -7.63093 36.3108 27.4494 12.3691
334 1 37.7099 29.5583 -7.53596 37.7099 29.5583 12.464
335 2 -11.4259 30.0494 -6.67084 39.9849 30.0494 13.3292
336 2 39.1692 28.0637 -9.15055 39.1692 28.0637 10.8495
337 1 -10.9639 27.5197 -6.93853 40.4468 27.5197 13.0615
338 2 -8.56725 27.6278 -6.32384 42.8435 27.6278 13.6762
339 2 -10.1415 26.2184 -8.80363 41.2692 26.2184 11.1964
340 1 -8.42059 28.0364 -8.74776 42.9902 28.0364 11.2522
341 2 -5.85762 28.0794 -7.9896 45.5532 28.0794 12.0104
342 2 -7.31782 26.8674 9.25668 44.0929 26.8674 9.25668
343 1 -6.01725 25.6191 -8.85088 45.3935 25.6191 11.1491
344 2 -3.59135 24.5787 -8.82552 47.8194 24.5787 11.1745
345 2 -5.69031 24.7879 8.67484 45.7205 24.7879 8.67484
346 1 -3.42098 25.8379 8.96549 47.9898 25.8379 8.96549
347 2 -1.07312 24.8411 9.03968 50.3377 24.8411 9.03968
348 2 -3.24202 25.1131 6.48859 48.1688 25.1131 6.48859
349 1 -2.10213 23.0077 7.68502 49.3086 23.0077 7.68502
350 2 -0.00430768 21.7094 7.49107 51.4065 21.7094 7.49107
351 2 -2.1511 22.7426 5.23865 49.2597 22.7426 5.23865
352 1 0.23769 23.3267 5.37197 51.6485 23.3267 5.37197
353 2 2.21373 21.8553 4.67415 53.6245 21.8553 4.67415
354 2 -0.068415 23.1023 2.90876 51.3424 23.1023 2.90876
355 1 0.563748 20.7269 3.1685 51.9745 20.7269 3.1685
356 2 2.39971 19.2937 1.97964 53.8105 19.2937 1.97964
357 2 -0.204561 20.8769 0.825089 51.2062 20.8769 0.825089
358 1 2.3898 21.0922 0.366354 53.8006 21.0922 0.366354
359 2 3.78968 19.3808 -2.77087 55.2005 19.3808 -2.77087
360 2 1.10911 21.8164 -1.66574 52.5199 21.8164 -1.66574
361 1 1.36876 19.4456 -2.5889 52.7795 19.4456 -2.5889
362 2 4.11654 17.3704 -4.80262 55.5273 17.3704 -4.80262
363 2 0.76459 18.9362 -4.96509 52.1754 18.9362 -4.96509
364 1 3.22912 19.6436 -5.15547 54.6399 19.6436 -5.15547
365 2 5.09446 19.0691 -6.79948 56.5052 19.0691 -6.79948
366 2 2.25536 19.4645 -7.47515 53.6661 19.4645 -7.47515
367 1 3.51231 17.099 -7.37195 54.9231 17.099 -7.37195
368 2 5.23948 15.2935 -7.81863 56.6503 15.2935 -7.81863
369 2 1.88853 16.2933 -9.24324 53.2993 16.2933 -9.24324
370 1 21.0113 28.0537 -8.51923 72.4221 28.0537 11.4808
371 2 21.1936 30.3777 -8.1901 72.6044 30.3777 11.8099
372 2 23.2784 27.7012 -9.28167 74.6892 27.7012 10.7183
373 1 23.5977 27.3948 -6.87437 75.0084 27.3948 13.1256
374 2 23.9262 29.8507 -6.55554 75.337 29.8507 13.4445
375 2 25.9451 27.1248 -7.56782 77.3558 27.1248 12.4322
376 1 26.2882 29.5715 -7.4853 77.699 29.5715 12.5147
377 2 28.1873 30.964 -6.49326 79.5981 30.964 13.5067
378 2 28.3118 28.4557 -8.59872 79.7225 28.4557 11.4013
379 1 29.1594 30.8159 -8.83746 29.1594 30.8159 11.1625
380 2 31.0454 32.1916 -7.78073 31.0454 32.1916 12.2193
381 2 31.208 29.5793 -9.70637 31.208 29.5793 10.2936
382 1 32.1225 31.9125 9.98694 32.1225 31.9125 9.98694
383 2 34.0979 33.1549 -9.07441 34.0979 33.1549 10.9256
384 2 33.9046 30.5669 8.90088 33.9046 30.5669 8.90088
385 1 34.956 30.8626 -8.76223 34.956 30.8626 11.2378
386 2 36.858 31.9126 -7.64533 36.858 31.9126 12.3547
387 2 36.7801 29.5667 -9.87946 36.7801 29.5667 10.1205
388 1 37.8908 31.8465 10.0193 37.8908 31.8465 10.0193
389 2 -11.3267 32.5977 -9.07461 40.0841 32.5977 10.9254
390 2 -11.9615 30.3202 8.66128 39.4493 30.3202 8.66128
391 1 -10.8655 30.1106 -9.11186 40.5453 30.1106 10.8881
392 2 -8.4124 30.5979 -8.25015 42.9984 30.5979 11.7499
393 2 -9.66977 28.7357 9.19718 41.741 28.7357 9.19718
394 1 -7.92638 30.8084 9.35779 43.4844 30.8084 9.35779
395 2 -5.48082 30.9252 -9.80371 45.93 30.9252 10.1963
396 2 -6.77323 29.4424 7.58764 44.6375 29.4424 7.58764
397 1 -5.43693 28.5522 9.4791 45.9738 28.5522 9.4791
398 2 -2.93721 28.1719 -10.1595 48.4736 28.1719 9.84045
399 2 -4.76621 27.356 7.33991 46.6446 27.356 7.33991
400 1 -2.74088 28.7962 7.53805 48.6699 28.7962 7.53805
401 2 -0.386901 28.1672 7.97803 51.0239 28.1672 7.97803
402 2 -2.18423 27.6857 5.37226 49.2265 27.6857 5.37226
403 1 -0.967808 26.0521 6.76486 50.443 26.0521 6.76486
404 2 1.34669 25.0969 6.79262 52.7575 25.0969 6.79262
405 2 -0.722602 25.5882 4.28874 50.6882 25.5882 4.28874
406 1 1.63914 26.3276 4.62599 53.0499 26.3276 4.62599
407 2 3.68884 24.8872 4.5901 55.0996 24.8872 4.5901
408 2 1.73248 25.8113 2.12883 53.1432 25.8113 2.12883
409 1 2.37377 23.4585 2.88829 53.7845 23.4585 2.88829
410 2 4.2121 21.984 1.98709 55.6229 21.984 1.98709
411 2 1.69644 23.5281 0.39744 53.1072 23.5281 0.39744
412 1 4.20819 23.7826 0.0262478 55.619 23.7826 0.0262478
413 2 4.65709 21.3288 -0.621109 56.0679 21.3288 -0.621109
414 2 3.00641 24.3309 -2.14927 54.4172 24.3309 -2.14927
415 1 3.46321 21.9053 -2.7411 54.874 21.9053 -2.7411
416 2 5.68374 22.3068 -3.58422 57.0945 22.3068 -3.58422
417 2 1.70273 21.4562 -4.44837 53.1135 21.4562 -4.44837
418 1 15.5217 29.006 8.194 66.9324 29.006 8.194
419 2 15.8135 31.4097 8.62237 67.2242 31.4097 8.62237
420 2 17.887 28.6906 7.51882 69.2978 28.6906 7.51882
421 1 18.3169 28.5095 9.86906 69.7277 28.5095 9.86906
422 2 18.5111 30.9379 -9.74576 69.9219 30.9379 10.2542
423 2 20.6045 28.3892 9.11702 72.0153 28.3892 9.11702
424 1 20.8233 30.8116 9.35331 72.234 30.8116 9.35331
425 2 22.4625 32.4553 -9.66863 73.8732 32.4553 10.3314
426 2 22.9573 29.7224 8.6146 74.3681 29.7224 8.6146
427 1 23.5297 30.3062 -9.02565 74.9405 30.3062 10.9744
428 2 25.3121 31.8508 -8.03529 76.7228 31.8508 11.9647
429 2 25.7364 29.1652 -9.85199 77.1472 29.1652 10.148
430 1 26.4075 31.4963 9.77404 77.8183 31.4963 9.77404
431 2 28.1125 33.048 -9.22323 79.5233 33.048 10.7768
432 2 28.3457 30.3117 8.88419 79.7564 30.3117 8.88419
433 1 29.2633 32.6275 8.47046 29.2633 32.6275 8.47046
434 2 31.1568 34.2002 9.26753 31.1568 34.2002 9.26753
435 2 31.2649 31.2175 7.63041 31.2649 31.2175 7.63041
436 1 32.2401 33.5409 7.08298 32.2401 33.5409 7.08298
437 2 34.1122 35.0738 7.87711 34.1122 35.0738 7.87711
438 2 34.2615 32.2658 6.34461 34.2615 32.2658 6.34461
439 1 35.0386 32.8362 8.59367 35.0386 32.8362 8.59367
440 2 -14.4317 34.1154 9.63988 36.9791 34.1154 9.63988
441 2 37.1119 31.5481 7.69718 37.1119 31.5481 7.69718
442 1 -13.3947 33.8478 7.34433 38.0161 33.8478 7.34433
443 2 -11.2505 34.7943 8.11056 40.1603 34.7943 8.11056
444 2 -11.7473 32.2166 6.24045 39.6634 32.2166 6.24045
445 1 -10.5973 32.4141 8.47499 40.8135 32.4141 8.47499
446 2 -8.42597 33.2489 9.52979 42.9848 33.2489 9.52979
447 2 -9.05979 30.9863 7.1132 42.351 30.9863 7.1132
448 1 -7.68448 33.14 6.98419 43.7263 33.14 6.98419
449 2 -5.44559 33.7737 7.74661 45.9652 33.7737 7.74661
450 2 -6.3191 31.6968 5.45443 45.0917 31.6968 5.45443
451 1 -5.03138 31.31 7.71667 46.3794 31.31 7.71667
452 2 -2.52421 31.1733 8.34179 48.8866 31.1733 8.34179
453 2 -4.08365 29.9736 5.76943 47.3271 29.9736 5.76943
454 1 -2.17544 31.5993 5.80651 49.2353 31.5993 5.80651
455 2 0.269478 31.3712 6.35579 51.6802 31.3712 6.35579
456 2 -1.42445 30.2138 3.83662 49.9863 30.2138 3.83662
457 1 -0.0770698 29.0341 5.6105 51.3337 29.0341 5.6105
458 2 2.28311 28.2482 6.01988 53.6939 28.2482 6.01988
459 2 0.554547 28.1246 3.32498 51.9653 28.1246 3.32498
460 1 2.77762 29.3057 3.75029 54.1884 29.3057 3.75029
461 2 5.08512 28.3339 4.13178 56.4959 28.3339 4.13178
462 2 3.40603 28.5465 1.41326 54.8168 28.5465 1.41326
463 1 4.1499 26.405 2.52529 55.5607 26.405 2.52529
464 2 5.9146 24.5993 1.68487 57.3254 24.5993 1.68487
465 2 3.60112 26.2032 -0.0188987 55.0119 26.2032 -0.0188987
466 1 6.04964 26.5118 -0.14824 57.4604 26.5118 -0.14824
467 2 6.38362 24.0817 -1.01824 57.7944 24.0817 -1.01824
468 2 4.86 27.0434 -2.29646 56.2708 27.0434 -2.29646
469 1 5.24206 24.6994 -3.1349 56.6528 24.6994 -3.1349
470 2 12.9964 30.9639 6.51138 64.4072 30.9639 6.51138
471 2 14.9388 29.2376 5.84372 66.3496 29.2376 5.84372
472 1 15.3434 31.6908 6.10628 66.7542 31.6908 6.10628
473 2 16.9835 33.3765 6.97236 68.3943 33.3765 6.97236
474 2 17.413 30.5887 5.3397 68.8238 30.5887 5.3397
475 1 18.1004 31.1583 7.6734 69.5112 31.1583 7.6734
476 2 19.5973 32.9592 8.7712 71.0081 32.9592 8.7712
477 2 20.2987 30.2552 6.95742 71.7095 30.2552 6.95742
478 1 20.7986 32.6349 6.63441 72.2094 32.6349 6.63441
479 2 22.4552 34.2262 7.46221 73.866 34.2262 7.46221
480 2 22.9979 31.4701 5.83641 74.4086 31.4701 5.83641
481 1 23.6814 32.081 8.1042 75.0922 32.081 8.1042
482 2 25.3843 33.7062 8.90408 76.7951 33.7062 8.90408
483 2 25.684 30.7978 7.35306 77.0948 30.7978 7.35306
484 1 26.5413 33.0878 6.82036 77.952 33.0878 6.82036
485 2 28.245 34.7332 7.61629 79.6558 34.7332 7.61629
486 2 28.6914 31.8363 6.10948 80.1021 31.8363 6.10948
487 1 29.4896 34.1063 5.43295 29.4896 34.1063 5.43295
488 2 31.1414 35.6623 6.21514 31.1414 35.6623 6.21514
489 2 31.5453 32.8478 4.62871 31.5453 32.8478 4.62871
490 1 32.241 35.2169 4.15541 32.241 35.2169 4.15541
491 2 34.1642 36.7246 4.86435 34.1642 36.7246 4.86435
492 2 34.2533 33.7517 3.52532 34.2533 33.7517 3.52532
493 1 35.1124 34.579 5.71416 35.1124 34.579 5.71416
494 2 -14.3062 35.9804 6.39445 37.1046 35.9804 6.39445
495 2 36.9318 33.0186 5.23674 36.9318 33.0186 5.23674
496 1 -13.3658 35.0915 4.23906 38.045 35.0915 4.23906
497 2 -11.5214 36.5092 5.02681 39.8893 36.5092 5.02681
498 2 -11.5683 33.6193 3.54499 39.8424 33.6193 3.54499
499 1 -10.5261 34.3147 5.74047 40.8847 34.3147 5.74047
500 2 -8.39004 35.5786 6.55708 43.0207 35.5786 6.55708
501 2 -8.84132 32.8834 4.64834 42.5694 32.8834 4.64834
502 1 -7.63642 35.0673 4.24653 43.7744 35.0673 4.24653
503 2 -5.41509 36.0895 4.9739 45.9957 36.0895 4.9739
504 2 -5.96469 33.6159 2.97254 45.4461 33.6159 2.97254
505 1 -4.85165 33.6515 5.26856 46.5591 33.6515 5.26856
506 2 -2.38762 34.1489 5.90095 49.0231 34.1489 5.90095
507 2 -3.62588 32.0775 3.7474 47.7849 32.0775 3.7474
508 1 -1.972 33.9193 3.43887 49.4388 33.9193 3.43887
509 2 0.344351 34.397 4.21685 51.7551 34.397 4.21685
510 2 -0.727455 32.3876 1.85225 50.6833 32.3876 1.85225
511 1 0.56498 31.8185 3.92079 51.9757 31.8185 3.92079
512 2 3.08964 31.5285 4.66663 54.5004 31.5285 4.66663
513 2 1.59454 30.7142 1.85236 53.0053 30.7142 1.85236
514 1 3.59805 32.2058 2.2768 55.0088 32.2058 2.2768
515 2 5.85517 31.8423 3.34618 57.2659 31.8423 3.34618
516 2 4.66585 31.4792 0.27319 56.0766 31.4792 0.27319
517 1 5.6315 29.4203 1.8674 57.0423 29.4203 1.8674
518 2 6.68331 27.1826 2.23139 58.0941 27.1826 2.23139
519 2 6.06335 29.0753 -0.672889 57.4741 29.0753 -0.672889
520 1 9.85255 32.4418 2.55075 61.2633 32.4418 2.55075
521 2 11.091 33.979 4.0768 62.5018 33.979 4.0768
522 2 12.2663 32.1061 1.70316 63.6771 32.1061 1.70316
523 1 12.6946 32.039 4.27985 64.1054 32.039 4.27985
524 2 13.9379 33.7493 5.51018 65.3487 33.7493 5.51018
525 2 15.0161 31.2976 3.51443 66.4268 31.2976 3.51443
526 1 15.3588 33.8026 3.42281 66.7696 33.8026 3.42281
527 2 16.8323 35.2723 4.62172 68.2431 35.2723 4.62172
528 2 17.5053 33.014 2.40664 68.9161 33.014 2.40664
529 1 18.1208 33.0106 4.84121 69.5316 33.0106 4.84121
530 2 19.6488 34.7278 5.99686 71.0596 34.7278 5.99686
531 2 20.3578 32.0109 4.32484 71.7686 32.0109 4.32484
532 1 21.0032 34.365 3.78238 72.4139 34.365 3.78238
533 2 22.7285 35.9236 4.79942 74.1392 35.9236 4.79942
534 2 23.116 33.2334 2.96824 74.5267 33.2334 2.96824
535 1 23.732 33.8203 5.36199 75.1427 33.8203 5.36199
536 2 25.579 35.3028 6.22211 76.9898 35.3028 6.22211
537 2 25.7306 32.4804 4.71477 77.1413 32.4804 4.71477
538 1 26.5577 34.7424 3.97822 77.9685 34.7424 3.97822
539 2 28.4278 36.3324 4.6538 79.8386 36.3324 4.6538
540 2 28.5665 33.39 3.1664 79.9773 33.39 3.1664
541 1 29.5562 35.6143 2.46403 29.5562 35.6143 2.46403
542 2 31.0443 37.3514 3.20653 31.0443 37.3514 3.20653
543 2 31.6338 34.3315 1.95429 31.6338 34.3315 1.95429