ITEM: TIMESTEP
5852000
ITEM: NUMBER OF ATOMS
810
ITEM: BOX BOUNDS xy xz yz pp pp pp
-2.1695794406356740e+01 5.2214187229542503e+01 -2.2499212176814702e+01
8.0582000660415243e-01 5.0210394993394715e+01 0.0000000000000000e+00
-1.0000000000000000e+01 1.0000000000000000e+01 0.0000000000000000e+00
ITEM: ATOMS id type x y z xu yu zu
1 1 29.5096 45.4656 9.57209 0.598039 -3.93902 -10.4279
2 2 -19.4714 45.9753 -9.71754 3.02781 -3.42927 -9.71754
3 2 30.6949 43.7892 8.16266 1.78332 -5.61533 -11.8373
4 1 -19.2277 45.7035 7.80113 3.27156 -3.70104 -12.1989
5 2 -16.8668 46.4544 8.55445 5.63244 -2.9502 -11.4455
6 2 -17.7399 44.022 6.50104 4.75936 -5.38256 -13.499
7 1 -16.4278 43.9706 8.59677 6.07142 -5.43399 -11.4032
8 2 -14.2679 44.9825 9.44216 8.23134 -4.42207 -10.5578
9 2 -14.6183 42.4205 7.51957 7.8809 -6.98409 -12.4804
10 1 -13.5562 44.6359 7.08365 8.94303 -4.76869 -12.9164
11 2 -11.7208 45.9823 8.26004 10.7784 -3.42226 -11.74
12 2 -11.5684 43.5803 6.03322 10.9308 -5.82431 -13.9668
13 1 -10.5829 43.7743 8.4674 11.9163 -5.63026 -11.5326
14 2 -8.68702 44.9933 9.43632 13.8122 -4.41127 -10.5637
15 2 -8.72299 42.5068 7.38885 13.7762 -6.89782 -12.6112
16 1 -7.70259 44.7187 7.18269 14.7966 -4.6859 -12.8173
17 2 -5.83348 46.1299 8.07102 16.6657 -3.27469 -11.929
18 2 -5.74099 43.4788 6.16162 16.7582 -5.92582 -13.8384
19 1 -4.79193 43.8732 8.48492 17.7073 -5.53142 -11.5151
20 2 -3.13937 45.4074 9.53536 19.3598 -3.99716 -10.4646
21 2 -2.63979 42.7177 7.78976 19.8594 -6.68689 -12.2102
22 1 -1.91685 45.0732 7.35462 20.5824 -4.33133 -12.6454
23 2 -0.0566346 46.6802 7.93612 22.4426 -2.72438 -12.0639
24 2 0.193515 43.8725 6.78971 22.6927 -5.53212 -13.2103
25 1 0.846021 44.6836 9.09976 23.3452 -4.72097 -10.9002
26 2 2.87248 46.1992 9.64828 25.3717 -3.20541 -10.3517
27 2 3.07771 43.882 8.33144 25.5769 -5.52262 -11.6686
28 1 40.2464 7.06288 7.62577 40.2464 7.06288 7.62577
29 2 41.8406 5.71646 6.06816 41.8406 5.71646 6.06816
30 2 39.3402 7.63974 5.39503 39.3402 7.63974 5.39503
31 1 39.6501 5.09596 5.04754 39.6501 5.09596 5.04754
32 2 41.3842 3.64954 3.9749 41.3842 3.64954 3.9749
33 2 39.0603 5.37304 2.65483 39.0603 5.37304 2.65483
34 1 41.451 5.36996 2.3054 41.451 5.36996 2.3054
35 2 43.3789 4.03003 1.31667 43.3789 4.03003 1.31667
36 2 40.7084 5.27325 -0.109602 40.7084 5.27325 -0.109602
37 1 41.5263 2.96641 0.0959754 41.5263 2.96641 0.0959754
38 2 43.3873 1.6383 -0.824719 43.3873 1.6383 -0.824719
39 2 40.747 2.95932 -2.30444 40.747 2.95932 -2.30444
40 1 43.1375 3.2665 -2.69555 43.1375 3.2665 -2.69555
41 2 45.2837 2.32129 -3.46678 45.2837 2.32129 -3.46678
42 2 42.5051 3.01152 -5.19715 42.5051 3.01152 -5.19715
43 1 20.9543 50.1962 -4.66218 43.4535 0.791633 -4.66218
44 2 23.2494 49.3201 -4.75726 45.7486 -0.084484 -4.75726
45 2 20.9957 49.38 -6.97588 43.4949 -0.0245765 -6.97588
46 1 45.7314 0.896208 -7.11148 45.7314 0.896208 -7.11148
47 2 25.5928 49.6605 -7.18605 48.092 0.255921 -7.18605
48 2 23.2561 49.2823 -9.39935 45.7553 -0.122245 -9.39935
49 1 24.6431 47.5771 -8.25192 47.1423 -1.82743 -8.25192
50 2 27.2275 47.3887 -7.96282 49.7267 -2.01585 -7.96282
51 2 25.3426 46.3359 9.71101 47.8418 -3.06867 -10.289
52 1 27.2743 47.8963 9.58648 49.7736 -1.50824 -10.4135
53 2 29.6526 47.9588 10.0519 52.1519 -1.44579 -9.94806
54 2 28.0054 46.3346 7.73876 50.5046 -3.07001 -12.2612
55 1 29.7507 48.0515 7.60422 0.839117 -1.35307 -12.3958
56 2 -19.2036 48.2121 8.17456 3.2956 -1.19247 -11.8254
57 2 30.6239 46.3584 5.96281 1.71236 -3.04613 -14.0372
58 1 -19.0552 48.2155 5.6487 3.444 -1.1891 -14.3513
59 2 -16.6481 48.6405 6.39147 5.85111 -0.764039 -13.6085
60 2 -17.8126 46.7482 4.01784 4.68663 -2.65634 -15.9822
61 1 -16.3608 46.1792 6.09873 6.13842 -3.22539 -13.9013
62 2 -14.1833 47.0841 7.01774 8.31588 -2.32044 -12.9823
63 2 -14.6729 44.8164 4.82581 7.82626 -4.58815 -15.1742
64 1 -13.522 47.0217 4.62383 8.97718 -2.38283 -15.3762
65 2 -11.3995 48.1371 5.7813 11.0998 -1.26752 -14.2187
66 2 -11.6614 45.749 3.58984 10.8378 -3.65559 -16.4102
67 1 -10.7082 45.8957 5.91803 11.791 -3.5089 -14.082
68 2 -8.6877 47.0238 6.79641 13.8115 -2.38077 -13.2036
69 2 -8.84534 44.2765 4.94087 13.6539 -5.12804 -15.0591
70 1 -7.80577 46.5277 4.45335 14.6934 -2.8769 -15.5467
71 2 -5.6894 47.8682 4.73409 16.8098 -1.53633 -15.2659
72 2 -5.92894 45.1709 3.64197 16.5703 -4.23371 -16.358
73 1 -4.97278 45.7819 5.82579 17.5264 -3.62267 -14.1742
74 2 -2.98179 47.2362 6.52458 19.5174 -2.16834 -13.4754
75 2 -2.74436 44.8573 4.94035 19.7549 -4.5473 -15.0597
76 1 40.9248 11.2522 -7.6376 40.9248 11.2522 12.3624
77 2 42.7343 10.0111 -8.89115 42.7343 10.0111 11.1089
78 2 40.1886 11.4876 -10.0819 40.1886 11.4876 9.91814
79 1 40.6931 9.07364 -10.0798 40.6931 9.07364 9.92021
80 2 42.4279 7.84289 8.53173 42.4279 7.84289 8.53173
81 2 39.8287 9.52972 7.65899 39.8287 9.52972 7.65899
82 1 42.2063 9.78674 7.04731 42.2063 9.78674 7.04731
83 2 43.8215 8.24572 5.83953 43.8215 8.24572 5.83953
84 2 41.366 10.2567 4.76265 41.366 10.2567 4.76265
85 1 41.6906 7.71492 4.65749 41.6906 7.71492 4.65749
86 2 43.5145 6.26066 3.60125 43.5145 6.26066 3.60125
87 2 40.9112 7.77375 2.37006 40.9112 7.77375 2.37006
88 1 43.3731 8.11184 1.85859 43.3731 8.11184 1.85859
89 2 45.0713 6.54851 0.872891 45.0713 6.54851 0.872891
90 2 42.7703 8.35536 -0.551047 42.7703 8.35536 -0.551047
91 1 43.1199 5.78898 -0.523349 43.1199 5.78898 -0.523349
92 2 45.0269 4.48527 -1.41821 45.0269 4.48527 -1.41821
93 2 42.306 5.68376 -2.85143 42.306 5.68376 -2.85143
94 1 44.7543 6.21486 -3.24997 44.7543 6.21486 -3.24997
95 2 46.669 4.88433 -4.10927 46.669 4.88433 -4.10927
96 2 44.1314 6.10944 -5.71321 44.1314 6.10944 -5.71321
97 1 44.8497 3.73387 -5.45849 44.8497 3.73387 -5.45849
98 2 47.178 2.63802 -5.92947 47.178 2.63802 -5.92947
99 2 44.7384 3.09688 -7.90672 44.7384 3.09688 -7.90672
100 1 47.0579 3.93688 -7.94291 47.0579 3.93688 -7.94291
101 2 49.2605 2.9388 -8.33647 49.2605 2.9388 -8.33647
102 2 46.6562 3.14494 9.82255 46.6562 3.14494 -10.1775
103 1 47.9662 1.13269 -9.48455 47.9662 1.13269 -9.48455
104 2 27.8379 50.0922 -9.37739 50.3371 0.687668 -9.37739
105 2 25.7518 49.3749 8.29079 48.251 -0.0296943 -11.7092
106 1 50.2879 1.34828 8.15786 50.2879 1.34828 -11.8421
107 2 1.36577 1.08491 8.27807 52.7765 1.08491 -11.7219
108 2 28.2085 49.3559 6.11382 50.7077 -0.0487153 -13.8862
109 1 1.23184 1.34933 5.80535 1.23184 1.34933 -14.1947
110 2 3.68482 1.28855 6.24469 3.68482 1.28855 -13.7553
111 2 -20.4769 49.397 3.92956 2.02231 -0.00755978 -16.0704
112 1 3.8637 1.62744 3.82444 3.8637 1.62744 -16.1756
113 2 6.28629 1.82157 4.34727 6.28629 1.82157 -15.6527
114 2 -17.7842 49.627 1.97924 4.71498 0.222456 -18.0208
115 1 -16.2631 48.7626 3.87833 6.2361 -0.641941 -16.1217
116 2 -14.0892 49.3613 5.0226 8.41002 -0.043226 -14.9774
117 2 -14.7025 47.3963 2.39751 7.79667 -2.00832 -17.6025
118 1 -13.4133 49.4889 2.56611 9.08594 0.0843116 -17.4339
119 2 -10.9809 50.3094 2.60318 11.5183 0.904829 -17.3968
120 2 -11.9135 47.8572 1.34759 10.5857 -1.54742 -18.6524
121 1 -10.5882 47.9997 3.44605 11.911 -1.40485 -16.554
122 2 -8.4281 48.8854 4.15561 14.0711 -0.519147 -15.8444
123 2 -8.90901 46.612 2.26602 13.5902 -2.7926 -17.734
124 1 40.0507 16.2683 -3.66279 40.0507 16.2683 16.3372
125 2 42.1541 15.1252 -4.13971 42.1541 15.1252 15.8603
126 2 39.748 15.9385 -6.11248 39.748 15.9385 13.8875
127 1 40.6597 13.7454 -5.48325 40.6597 13.7454 14.5167
128 2 42.6623 12.4273 -6.39395 42.6623 12.4273 13.606
129 2 40.2197 13.6589 -7.96035 40.2197 13.6589 12.0396
130 1 42.6422 14.0467 -8.20792 42.6422 14.0467 11.7921
131 2 44.4822 12.6272 -9.26241 44.4822 12.6272 10.7376
132 2 42.0398 14.2556 9.30549 42.0398 14.2556 9.30549
133 1 42.5436 11.8374 9.44528 42.5436 11.8374 9.44528
134 2 44.2091 10.3806 8.37625 44.2091 10.3806 8.37625
135 2 42.0027 12.2882 7.03157 42.0027 12.2882 7.03157
136 1 44.5074 12.2206 6.72377 44.5074 12.2206 6.72377
137 2 45.9373 10.6807 5.38116 45.9373 10.6807 5.38116
138 2 43.6024 12.7822 4.40161 43.6024 12.7822 4.40161
139 1 43.8097 10.18 4.22835 43.8097 10.18 4.22835
140 2 45.4259 8.75742 3.07843 45.4259 8.75742 3.07843
141 2 43.0061 10.7033 1.98848 43.0061 10.7033 1.98848
142 1 45.3974 10.7535 1.49338 45.3974 10.7535 1.49338
143 2 47.1747 9.36976 0.270259 47.1747 9.36976 0.270259
144 2 44.3869 10.7915 -0.908683 44.3869 10.7915 -0.908683
145 1 45.1858 8.39058 -0.820332 45.1858 8.39058 -0.820332
146 2 46.761 6.947 -2.13611 46.761 6.947 -2.13611
147 2 44.2305 8.65176 -3.19453 44.2305 8.65176 -3.19453
148 1 46.5979 9.00081 -3.70908 46.5979 9.00081 -3.70908
149 2 48.4734 7.48733 -4.43833 48.4734 7.48733 -4.43833
150 2 46.1057 9.10153 -6.22999 46.1057 9.10153 -6.22999
151 1 46.6039 6.54891 -5.94996 46.6039 6.54891 -5.94996
152 2 48.7113 5.34737 -6.56292 48.7113 5.34737 -6.56292
153 2 46.0604 6.14814 -8.42544 46.0604 6.14814 -8.42544
154 1 48.541 6.80762 -8.69993 48.541 6.80762 -8.69993
155 2 -0.855253 5.5078 -9.17505 50.5555 5.5078 -9.17505
156 2 48.1197 6.34638 8.82651 48.1197 6.34638 -11.1735
157 1 48.9158 4.05915 9.40532 48.9158 4.05915 -10.5947
158 2 -0.0258144 3.34556 9.15429 51.385 3.34556 -10.8457
159 2 48.8527 3.12596 7.13849 48.8527 3.12596 -12.8615
160 1 -0.324131 4.17919 6.87139 51.0866 4.17919 -13.1286
161 2 2.19539 3.58895 6.67638 53.6062 3.58895 -13.3236
162 2 50.9771 3.07496 4.55662 50.9771 3.07496 -15.4434
163 1 1.79845 4.34076 4.21277 1.79845 4.34076 -15.7872
164 2 4.44408 3.87957 4.70865 4.44408 3.87957 -15.2914
165 2 2.43054 2.71146 2.17055 2.43054 2.71146 -17.8294
166 1 4.33239 4.5574 2.34479 4.33239 4.5574 -17.6552
167 2 6.78525 4.46503 2.57871 6.78525 4.46503 -17.4213
168 2 4.90396 3.12432 0.387054 4.90396 3.12432 -19.6129
169 1 6.45049 2.09888 1.96735 6.45049 2.09888 -18.0327
170 2 8.78695 2.49258 2.86786 8.78695 2.49258 -17.1321
171 2 8.01404 0.951126 0.44958 8.01404 0.951126 -19.5504
172 1 36.7144 21.3581 -1.75553 36.7144 21.3581 18.2445
173 2 39.2058 21.1423 -1.25477 39.2058 21.1423 18.7452
174 2 37.5115 20.3305 -3.7804 37.5115 20.3305 16.2196
175 1 38.7235 18.8372 -2.19778 38.7235 18.8372 17.8022
176 2 41.0735 18.1312 -2.26329 41.0735 18.1312 17.7367
177 2 38.9577 18.2684 -4.59674 38.9577 18.2684 15.4033
178 1 41.2659 19.1797 -4.48531 41.2659 19.1797 15.5147
179 2 43.4594 17.878 -4.60645 43.4594 17.878 15.3935
180 2 41.2132 18.6783 -6.8991 41.2132 18.6783 13.1009
181 1 42.1675 16.4914 -6.18157 42.1675 16.4914 13.8184
182 2 44.1241 15.1699 -6.64838 44.1241 15.1699 13.3516
183 2 41.8415 16.391 -8.6231 41.8415 16.391 11.3769
184 1 44.3101 16.7775 -8.59933 44.3101 16.7775 11.4007
185 2 -5.19537 15.3801 -9.36127 46.2154 15.3801 10.6387
186 2 43.8905 16.841 8.91653 43.8905 16.841 8.91653
187 1 44.5553 14.4811 9.11622 44.5553 14.4811 9.11622
188 2 46.3544 12.9771 8.21708 46.3544 12.9771 8.21708
189 2 43.9931 14.72 6.63028 43.9931 14.72 6.63028
190 1 -4.82715 14.8847 6.52459 46.5836 14.8847 6.52459
191 2 -3.237 13.4612 5.11853 48.1738 13.4612 5.11853
192 2 45.4646 15.2305 4.22682 45.4646 15.2305 4.22682
193 1 46.0779 12.7634 3.95111 46.0779 12.7634 3.95111
194 2 -3.89298 11.3455 2.53569 47.5178 11.3455 2.53569
195 2 45.0489 13.1793 1.72519 45.0489 13.1793 1.72519
196 1 -3.87024 13.3711 1.04676 47.5405 13.3711 1.04676
197 2 -2.32704 11.8919 -0.186993 49.0837 11.8919 -0.186993
198 2 -4.87943 13.7226 -1.19942 46.5313 13.7226 -1.19942
199 1 46.8727 11.2713 -1.43196 46.8727 11.2713 -1.43196
200 2 -2.79188 9.72352 -2.5215 48.6189 9.72352 -2.5215
201 2 46.1029 11.3522 -3.76111 46.1029 11.3522 -3.76111
202 1 -2.75112 11.6246 -4.17433 48.6596 11.6246 -4.17433
203 2 -0.86638 10.1653 -4.95964 50.5444 10.1653 -4.95964
204 2 -3.334 11.5355 -6.63274 48.0768 11.5355 -6.63274
205 1 -2.78738 9.15844 -6.3181 48.6234 9.15844 -6.3181
206 2 -0.937943 7.72317 -7.28606 50.4728 7.72317 -7.28606
207 2 48.0649 9.40048 -8.8111 48.0649 9.40048 -8.8111
208 1 -0.783798 9.39976 -9.13551 50.627 9.39976 -9.13551
209 2 0.962751 7.67118 -9.64388 52.3735 7.67118 -9.64388
210 2 -0.682057 8.93345 7.1006 50.7287 8.93345 -12.8994
211 1 -0.846991 6.98949 8.74782 50.5638 6.98949 -11.2522
212 2 1.22259 5.75833 8.11476 52.6334 5.75833 -11.8852
213 2 -1.42401 6.34204 6.28406 49.9868 6.34204 -13.7159
214 1 0.983021 7.1279 6.07869 52.3938 7.1279 -13.9213
215 2 3.19144 6.11481 5.32842 54.6022 6.11481 -14.6716
216 2 0.348935 6.44577 3.7928 51.7597 6.44577 -16.2072
217 1 2.76738 7.42068 3.17081 2.76738 7.42068 -16.8292
218 2 4.87063 7.02141 1.90933 4.87063 7.02141 -18.0907
219 2 2.11145 5.3722 1.7899 2.11145 5.3722 -18.2101
220 1 31.7814 25.164 -2.506 31.7814 25.164 17.494
221 2 33.9765 26.0144 -1.56334 33.9765 26.0144 18.4367
222 2 33.3914 24.0997 -4.00974 33.3914 24.0997 15.9903
223 1 34.4316 23.6776 -1.73725 34.4316 23.6776 18.2627
224 2 36.8474 23.7343 -0.997053 36.8474 23.7343 19.0029
225 2 35.6658 22.5927 -3.6419 35.6658 22.5927 16.3581
226 1 37.2924 24.3489 -3.31391 37.2924 24.3489 16.6861
227 2 39.7266 24.3693 -2.78608 39.7266 24.3693 17.2139
228 2 38.2409 23.1619 -5.37803 38.2409 23.1619 14.622
229 1 39.5346 21.8129 -3.53297 39.5346 21.8129 16.467
230 2 42.0384 21.1611 -3.25905 42.0384 21.1611 16.741
231 2 40.0373 20.9714 -5.83094 40.0373 20.9714 14.1691
232 1 42.1748 22.2224 -5.54345 42.1748 22.2224 14.4566
233 2 -6.9192 21.5024 -5.40328 44.4916 21.5024 14.5967
234 2 42.4364 21.3283 -7.91267 42.4364 21.3283 12.0873
235 1 43.6117 19.3606 -6.65413 43.6117 19.3606 13.3459
236 2 -5.65742 18.1917 -7.12709 45.7533 18.1917 12.8729
237 2 43.4989 19.0859 -9.26796 43.4989 19.0859 10.732
238 1 -5.50996 19.7229 -9.10437 45.9008 19.7229 10.8956
239 2 -3.48457 18.469 -9.63711 47.9262 18.469 10.3629
240 2 -5.76704 19.4944 8.42551 45.6437 19.4944 8.42551
241 1 -5.02023 17.1079 8.87925 46.3905 17.1079 8.87925
242 2 -3.00378 15.897 7.9918 48.407 15.897 7.9918
243 2 -5.48657 17.2707 6.48264 45.9242 17.2707 6.48264
244 1 -3.02259 17.5513 6.14998 48.3882 17.5513 6.14998
245 2 -1.46605 16.0793 4.85845 49.9447 16.0793 4.85845
246 2 -3.85889 17.8653 3.75421 47.5519 17.8653 3.75421
247 1 -3.49376 15.4317 3.46459 47.917 15.4317 3.46459
248 2 -1.78993 14.1313 2.32932 49.6208 14.1313 2.32932
249 2 -4.36805 15.8622 1.23391 47.0427 15.8622 1.23391
250 1 -1.97341 16.1016 0.715103 49.4374 16.1016 0.715103
251 2 -0.23514 14.86 -0.575904 51.1756 14.86 -0.575904
252 2 -2.96705 16.3397 -1.55033 48.4437 16.3397 -1.55033
253 1 -2.29397 13.8848 -1.79542 49.1168 13.8848 -1.79542
254 2 -0.677805 12.2918 -2.96958 50.733 12.2918 -2.96958
255 2 -3.17726 14.0842 -4.1761 48.2335 14.0842 -4.1761
256 1 -0.706721 14.25 -4.60413 50.704 14.25 -4.60413
257 2 1.03541 12.7884 -5.56697 52.4462 12.7884 -5.56697
258 2 -1.36927 14.3235 -7.02425 50.0415 14.3235 -7.02425
259 1 -0.884121 11.7929 -6.88519 50.5266 11.7929 -6.88519
260 2 0.96371 10.2459 -7.46797 52.3745 10.2459 -7.46797
261 2 -0.273851 11.1141 8.99317 51.1369 11.1141 -11.0068
262 1 1.55196 11.8591 -9.40531 52.9627 11.8591 -9.40531
263 2 2.97333 9.80117 -9.42894 54.3841 9.80117 -9.42894
264 2 1.14673 11.1582 6.45756 52.5575 11.1582 -13.5424
265 1 1.5281 9.4825 8.4701 52.9389 9.4825 -11.5299
266 2 3.03272 7.88416 7.31249 54.4435 7.88416 -12.6875
267 2 1.04097 9.05532 4.29252 52.4517 9.05532 -15.7075
268 1 3.17222 9.78781 5.57444 54.583 9.78781 -14.4256
269 2 4.84633 8.31142 4.54803 56.2571 8.31142 -15.452
270 2 3.24354 9.97313 2.91076 54.6543 9.97313 -17.0892
271 1 28.9512 26.4297 -3.63339 28.9512 26.4297 16.3666
272 2 31.0677 27.5208 -2.76565 31.0677 27.5208 17.2344
273 2 30.7148 25.1091 -4.67891 30.7148 25.1091 15.3211
274 1 31.8702 27.4354 -5.04545 31.8702 27.4354 14.9546
275 2 33.8958 28.5547 -3.9887 33.8958 28.5547 16.0113
276 2 33.6769 26.1957 -6.27189 33.6769 26.1957 13.7281
277 1 34.6223 26.2158 -3.90557 34.6223 26.2158 16.0944
278 2 36.8744 26.8156 -3.00514 36.8744 26.8156 16.9949
279 2 36.0244 24.839 -5.44153 36.0244 24.839 14.5585
280 1 37.405 26.8441 -5.4794 37.405 26.8441 14.5206
281 2 39.7539 27.1977 -4.62219 39.7539 27.1977 15.3778
282 2 38.6514 25.5802 -7.30631 38.6514 25.5802 12.6937
283 1 40.0264 24.7104 -5.27352 40.0264 24.7104 14.7265
284 2 -8.93577 24.703 -4.90768 42.475 24.703 15.0923
285 2 40.6365 23.4585 -7.315 40.6365 23.4585 12.685
286 1 -8.83589 25.0475 -7.28589 42.5749 25.0475 12.7141
287 2 -6.48088 24.6658 -6.60613 44.9299 24.6658 13.3939
288 2 -8.06859 24.055 -9.42593 43.3422 24.055 10.5741
289 1 -6.76709 22.5163 -7.81948 44.6437 22.5163 12.1805
290 2 -4.50557 21.5683 -7.62816 46.9052 21.5683 12.3718
291 2 -6.52041 21.7887 9.85964 44.8904 21.7887 9.85964
292 1 -4.26485 22.8031 -9.85996 47.1459 22.8031 10.14
293 2 -1.97685 21.5504 9.80597 49.4339 21.5504 9.80597
294 2 -4.31367 22.2778 7.69164 47.0971 22.2778 7.69164
295 1 -3.39176 19.9731 8.35264 48.019 19.9731 8.35264
296 2 -1.35781 18.6242 7.56898 50.053 18.6242 7.56898
297 2 -3.75106 19.9197 5.92287 47.6597 19.9197 5.92287
298 1 -1.32842 20.3654 5.80691 50.0824 20.3654 5.80691
299 2 0.562911 18.9315 4.74763 51.9737 18.9315 4.74763
300 2 -1.84362 20.4961 3.30309 49.5671 20.4961 3.30309
301 1 -1.34848 18.0316 3.30377 50.0623 18.0316 3.30377
302 2 0.259969 16.6252 1.96638 51.6707 16.6252 1.96638
303 2 -2.27709 18.6075 1.03551 49.1337 18.6075 1.03551
304 1 0.230309 18.6333 0.422424 51.6411 18.6333 0.422424
305 2 1.67793 17.5948 -1.34028 53.0887 17.5948 -1.34028
306 2 -1.25602 19.0999 -1.70252 50.1547 19.0999 -1.70252
307 1 -0.566269 16.7061 -2.19477 50.8445 16.7061 -2.19477
308 2 1.10609 14.9711 -3.12367 52.5169 14.9711 -3.12367
309 2 -1.11424 16.765 -4.59969 50.2965 16.765 -4.59969
310 1 1.37858 16.8036 -4.72013 52.7894 16.8036 -4.72013
311 2 2.84034 15.188 -5.94162 54.2511 15.188 -5.94162
312 2 0.484848 16.9822 -6.95005 51.8956 16.9822 -6.95005
313 1 1.01389 14.5722 -7.42365 52.4247 14.5722 -7.42365
314 2 3.07171 13.1546 -7.70614 54.4825 13.1546 -7.70614
315 2 1.24054 13.6924 9.02308 52.6513 13.6924 -10.9769
316 1 3.25162 14.6253 -9.82948 54.6624 14.6253 -9.82948
317 2 4.05954 12.2951 9.80005 55.4703 12.2951 -10.1999
318 2 4.18142 14.7308 7.79591 55.5922 14.7308 -12.2041
319 1 2.88266 12.5706 7.54333 54.2934 12.5706 -12.4567
320 2 3.97303 10.2933 8.00805 55.3838 10.2933 -11.992
321 2 4.46644 12.0612 5.67121 55.8772 12.0612 -14.3288
322 1 26.0905 27.2677 -5.19815 77.5013 27.2677 14.8018
323 2 27.8766 28.6715 -4.26695 79.2874 28.6715 15.733
324 2 28.0066 25.8964 -5.86457 79.4174 25.8964 14.1354
325 1 29.0175 28.2631 -6.44169 29.0175 28.2631 13.5583
326 2 30.7224 29.6075 -5.31133 30.7224 29.6075 14.6887
327 2 31.1184 27.4108 -7.48095 31.1184 27.4108 12.5191
328 1 31.8461 29.6471 -7.47525 31.8461 29.6471 12.5247
329 2 33.94 30.837 -6.4213 33.94 30.837 13.5787
330 2 33.8121 28.3869 -8.54152 33.8121 28.3869 11.4585
331 1 34.7891 28.4672 -6.26001 34.7891 28.4672 13.74
332 2 36.9111 29.2401 -5.2106 36.9111 29.2401 14.7894
333 2 36.372 27.2903 -7.77456 36.372 27.2903 12.2254
334 1 37.5932 29.4487 -7.64984 37.5932 29.4487 12.3502
335 2 -11.5699 30.0581 -6.70534 39.8408 30.0581 13.2947
336 2 39.0586 28.063 -9.1821 39.0586 28.063 10.8179
337 1 -11.0738 27.4347 -7.11395 40.3369 27.4347 12.8861
338 2 -8.68898 27.3865 -6.36351 42.7218 27.3865 13.6365
339 2 -10.0805 26.2111 -9.05658 41.3303 26.2111 10.9434
340 1 -8.30468 28.0112 -8.7484 43.1061 28.0112 11.2516
341 2 -5.85723 27.8255 -8.08829 45.5535 27.8255 11.9117
342 2 -7.37686 26.7248 9.24638 44.0339 26.7248 9.24638
343 1 -6.02442 25.5301 -8.99295 45.3863 25.5301 11.0071
344 2 -3.61673 24.9211 -8.74666 47.794 24.9211 11.2533
345 2 -5.56111 24.5335 8.75618 45.8497 24.5335 8.75618
346 1 -3.47328 25.7767 8.90305 47.9375 25.7767 8.90305
347 2 -1.18194 25.0369 9.00797 50.2288 25.0369 9.00797
348 2 -3.17553 24.9553 6.54475 48.2352 24.9553 6.54475
349 1 -1.97916 22.978 7.75452 49.4316 22.978 7.75452
350 2 0.182281 21.6625 7.25509 51.5931 21.6625 7.25509
351 2 -2.23358 22.6572 5.14714 49.1772 22.6572 5.14714
352 1 0.223956 23.2514 5.24073 51.6347 23.2514 5.24073
353 2 2.22524 22.0173 4.36107 53.636 22.0173 4.36107
354 2 -0.45638 23.2002 2.93279 50.9544 23.2002 2.93279
355 1 0.52142 20.7576 3.0076 51.9322 20.7576 3.0076
356 2 2.19536 19.4198 1.69915 53.6061 19.4198 1.69915
357 2 -0.280807 21.0971 0.755209 51.13 21.0971 0.755209
358 1 2.07751 21.2666 0.10069 53.4883 21.2666 0.10069
359 2 3.5096 19.587 -2.96421 54.9204 19.587 -2.96421
360 2 0.945888 22.0914 -1.92553 52.3567 22.0914 -1.92553
361 1 1.0139 19.7075 -2.72102 52.4247 19.7075 -2.72102
362 2 3.80611 17.4288 -5.16609 55.2169 17.4288 -5.16609
363 2 0.324849 19.167 -5.10968 51.7356 19.167 -5.10968
364 1 2.72679 19.7687 -5.53 54.1376 19.7687 -5.53
365 2 4.40871 19.2424 -7.21549 55.8195 19.2424 -7.21549
366 2 1.67699 19.2571 -7.75538 53.0878 19.2571 -7.75538
367 1 3.04307 17.0882 -7.59479 54.4538 17.0882 -7.59479
368 2 4.81246 15.5602 -8.08927 56.2232 15.5602 -8.08927
369 2 1.45278 16.1792 -9.38867 52.8635 16.1792 -9.38867
370 1 20.6044 27.7284 -8.78873 72.0151 27.7284 11.2113
371 2 20.9527 30.1647 -8.55441 72.3635 30.1647 11.4456
372 2 22.971 27.3536 -9.33696 74.3818 27.3536 10.663
373 1 23.3516 27.3477 -6.95925 74.7624 27.3477 13.0408
374 2 23.8373 29.7032 -6.84937 75.248 29.7032 13.1506
375 2 25.6481 26.9082 -7.60926 77.0589 26.9082 12.3907
376 1 26.1172 29.3151 -7.70801 77.5279 29.3151 12.292
377 2 28.0416 30.7625 -6.88993 79.4524 30.7625 13.1101
378 2 28.0672 27.9852 -8.79356 79.478 27.9852 11.2064
379 1 28.9396 30.2259 -9.13295 28.9396 30.2259 10.8671
380 2 30.6846 31.7686 -7.82569 30.6846 31.7686 12.1743
381 2 31.0864 29.3019 10.0198 31.0864 29.3019 10.0198
382 1 31.9306 31.6836 9.91958 31.9306 31.6836 9.91958
383 2 33.7445 32.9349 -8.95719 33.7445 32.9349 11.0428
384 2 33.9251 30.4069 8.92135 33.9251 30.4069 8.92135
385 1 34.8336 30.6867 -8.74072 34.8336 30.6867 11.2593
386 2 36.734 31.7933 -7.64258 36.734 31.7933 12.3574
387 2 36.6152 29.4235 -9.91968 36.6152 29.4235 10.0803
388 1 37.7151 31.6832 10.0831 37.7151 31.6832 10.0831
389 2 -11.5875 32.5453 -8.87369 39.8233 32.5453 11.1263
390 2 -12.0043 30.3385 8.76052 39.4064 30.3385 8.76052
391 1 -10.7913 30.1141 -9.0501 40.6195 30.1141 10.9499
392 2 -8.47012 30.4078 -8.1511 42.9407 30.4078 11.8489
393 2 -9.66407 28.7026 9.21547 41.7467 28.7026 9.21547
394 1 -8.00813 30.7502 9.38458 43.4026 30.7502 9.38458
395 2 -5.5463 30.9032 -9.87904 45.8645 30.9032 10.121
396 2 -6.80887 29.3784 7.55853 44.6019 29.3784 7.55853
397 1 -5.44699 28.471 9.48226 45.9638 28.471 9.48226
398 2 -3.04237 28.0232 -9.9811 48.3684 28.0232 10.0189
399 2 -4.77108 27.376 7.46785 46.6397 27.376 7.46785
400 1 -2.73401 28.7341 7.64462 48.6768 28.7341 7.64462
401 2 -0.231333 28.133 7.87835 51.1794 28.133 7.87835
402 2 -2.18702 27.6224 5.44672 49.2237 27.6224 5.44672
403 1 -0.93098 26.0382 6.81162 50.4798 26.0382 6.81162
404 2 1.46317 24.9997 6.6094 52.8739 24.9997 6.6094
405 2 -0.807307 25.3912 4.40156 50.6035 25.3912 4.40156
406 1 1.45343 26.2912 4.43576 52.8642 26.2912 4.43576
407 2 3.46991 24.7788 4.15963 54.8807 24.7788 4.15963
408 2 1.52264 26.1507 1.97936 52.9334 26.1507 1.97936
409 1 1.94708 23.7617 2.54389 53.3579 23.7617 2.54389
410 2 3.74106 22.1814 1.85216 55.1518 22.1814 1.85216
411 2 1.55669 23.8615 0.011585 52.9675 23.8615 0.011585
412 1 4.09084 23.9511 -0.117726 55.5016 23.9511 -0.117726
413 2 4.42576 21.5049 -0.746592 55.8365 21.5049 -0.746592
414 2 3.04708 24.5071 -2.39657 54.4579 24.5071 -2.39657
415 1 3.27686 22.0643 -2.938 54.6876 22.0643 -2.938
416 2 5.77 22.4116 -3.46813 57.1808 22.4116 -3.46813
417 2 1.29546 21.6322 -4.51769 52.7062 21.6322 -4.51769
418 1 15.2965 28.5318 7.56461 66.7073 28.5318 7.56461
419 2 15.3137 30.9138 7.78087 66.7245 30.9138 7.78087
420 2 17.6002 28.4279 6.91352 69.011 28.4279 6.91352
421 1 17.9616 28.0609 9.30871 69.3723 28.0609 9.30871
422 2 18.1937 30.5079 9.80241 69.6044 30.5079 9.80241
423 2 20.2315 27.8593 8.71705 71.6423 27.8593 8.71705
424 1 20.5555 30.385 8.97648 71.9663 30.385 8.97648
425 2 22.3586 32.0605 9.82359 73.7693 32.0605 9.82359
426 2 22.6817 29.2882 8.16879 74.0925 29.2882 8.16879
427 1 23.3118 29.8452 -9.33886 74.7226 29.8452 10.6611
428 2 25.1014 31.5774 -8.61305 76.5121 31.5774 11.387
429 2 25.4765 28.6545 9.93969 76.8873 28.6545 9.93969
430 1 26.235 30.8628 9.2478 77.6457 30.8628 9.2478
431 2 27.9092 32.4206 -9.69079 79.32 32.4206 10.3092
432 2 28.3225 29.9259 8.44171 79.7333 29.9259 8.44171
433 1 29.0441 32.2196 8.13588 29.0441 32.2196 8.13588
434 2 30.6737 33.8222 9.27775 30.6737 33.8222 9.27775
435 2 31.2548 31.1098 7.60858 31.2548 31.1098 7.60858
436 1 31.9541 33.4822 7.08228 31.9541 33.4822 7.08228
437 2 33.6163 35.0262 8.28219 33.6163 35.0262 8.28219
438 2 34.0495 32.349 6.39154 34.0495 32.349 6.39154
439 1 34.87 32.7478 8.72182 34.87 32.7478 8.72182
440 2 36.8449 34.0193 9.86322 36.8449 34.0193 9.86322
441 2 36.7946 31.492 7.75895 36.7946 31.492 7.75895
442 1 -13.5741 33.8041 7.56295 37.8367 33.8041 7.56295
443 2 -11.4664 34.9203 8.38861 39.9444 34.9203 8.38861
444 2 -11.9126 32.2757 6.45031 39.4982 32.2757 6.45031
445 1 -10.7563 32.4907 8.71497 40.6545 32.4907 8.71497
446 2 -8.60156 33.1728 9.68725 42.8092 33.1728 9.68725
447 2 -9.24542 31.06 7.20141 42.1653 31.06 7.20141
448 1 -7.8092 33.2607 7.11226 43.6016 33.2607 7.11226
449 2 -5.45686 33.7898 7.82962 45.9539 33.7898 7.82962
450 2 -6.50694 31.7143 5.61628 44.9038 31.7143 5.61628
451 1 -5.04714 31.1834 7.64607 46.3636 31.1834 7.64607
452 2 -2.69876 31.1622 8.34258 48.712 31.1622 8.34258
453 2 -4.06784 29.7464 5.80135 47.3429 29.7464 5.80135
454 1 -2.34814 31.5824 5.9639 49.0626 31.5824 5.9639
455 2 0.0804902 31.3317 6.45313 51.4913 31.3317 6.45313
456 2 -1.64901 30.2577 3.88907 49.7618 30.2577 3.88907
457 1 -0.139241 29.0325 5.56595 51.2715 29.0325 5.56595
458 2 2.31436 28.2469 5.81585 53.7251 28.2469 5.81585
459 2 0.262187 28.2635 3.25204 51.673 28.2635 3.25204
460 1 2.39423 29.3443 3.56831 53.805 29.3443 3.56831
461 2 4.69961 28.5289 3.91261 56.1104 28.5289 3.91261
462 2 2.91705 28.6656 1.25261 54.3278 28.6656 1.25261
463 1 3.96299 26.4651 2.31373 55.3738 26.4651 2.31373
464 2 5.7938 24.8149 1.51924 57.2046 24.8149 1.51924
465 2 3.55538 26.4621 -0.238867 54.9661 26.4621 -0.238867
466 1 5.97056 26.6869 -0.472131 57.3813 26.6869 -0.472131
467 2 6.36935 24.3794 -1.19699 57.7801 24.3794 -1.19699
468 2 5.00479 27.1734 -2.87683 56.4156 27.1734 -2.87683
469 1 5.21345 24.8291 -3.369 56.6242 24.8291 -3.369
470 2 12.6129 30.3711 5.47504 64.0237 30.3711 5.47504
471 2 14.9836 28.6989 5.08227 66.3944 28.6989 5.08227
472 1 14.9942 31.1193 5.32545 66.405 31.1193 5.32545
473 2 16.6251 32.9605 6.45541 68.0359 32.9605 6.45541
474 2 17.364 30.1844 4.76801 68.7748 30.1844 4.76801
475 1 17.8142 30.8577 7.21287 69.2249 30.8577 7.21287
476 2 19.4516 32.5555 8.179 70.8624 32.5555 8.179
477 2 20.0795 29.8204 6.48756 71.4903 29.8204 6.48756
478 1 20.663 32.2699 6.13496 72.0738 32.2699 6.13496
479 2 22.3027 33.7695 7.07735 73.7135 33.7695 7.07735
480 2 22.7224 31.0493 5.34628 74.1331 31.0493 5.34628
481 1 23.4107 31.5803 7.72586 74.8214 31.5803 7.72586
482 2 25.2015 33.0496 8.62889 76.6122 33.0496 8.62889
483 2 25.3911 30.1612 6.97554 76.8019 30.1612 6.97554
484 1 26.2453 32.5358 6.42271 77.656 32.5358 6.42271
485 2 27.7072 34.2345 7.60124 79.1179 34.2345 7.60124
486 2 28.4683 31.5487 5.82048 79.8791 31.5487 5.82048
487 1 29.14 34.0049 5.54689 29.14 34.0049 5.54689
488 2 30.9215 35.6898 6.39412 30.9215 35.6898 6.39412
489 2 31.3616 32.843 4.78155 31.3616 32.843 4.78155
490 1 32.1209 35.2003 4.30668 32.1209 35.2003 4.30668
491 2 33.7458 36.9053 5.09768 33.7458 36.9053 5.09768
492 2 34.1648 33.9911 3.79027 34.1648 33.9911 3.79027
493 1 34.9122 34.7965 6.11505 34.9122 34.7965 6.11505
494 2 -14.4338 36.1132 6.70732 36.977 36.1132 6.70732
495 2 36.7372 33.1784 5.33802 36.7372 33.1784 5.33802
496 1 -13.5949 35.2272 4.48817 37.8159 35.2272 4.48817
497 2 -11.6893 36.7503 5.33729 39.7215 36.7503 5.33729
498 2 -11.574 33.9625 3.80049 39.8368 33.9625 3.80049
499 1 -10.7101 34.5286 6.0425 40.7006 34.5286 6.0425
500 2 -8.64248 35.4998 6.9952 42.7683 35.4998 6.9952
501 2 -8.9952 33.061 4.87564 42.4156 33.061 4.87564
502 1 -7.89682 35.2318 4.50522 43.5139 35.2318 4.50522
503 2 -5.7232 36.1473 5.14963 45.6876 36.1473 5.14963
504 2 -6.31493 33.5693 3.2739 45.0958 33.5693 3.2739
505 1 -4.99718 33.7261 5.42741 46.4136 33.7261 5.42741
506 2 -2.67086 34.009 6.24258 48.7399 34.009 6.24258
507 2 -3.80486 32.122 3.88766 47.6059 32.122 3.88766
508 1 -2.22293 34.0683 3.7285 49.1878 34.0683 3.7285
509 2 0.051176 34.3515 4.49642 51.4619 34.3515 4.49642
510 2 -1.04268 32.6554 1.99997 50.3681 32.6554 1.99997
511 1 0.272939 31.9128 4.03769 51.6837 31.9128 4.03769
512 2 2.6851 31.6195 4.70521 54.0959 31.6195 4.70521
513 2 1.06012 30.8227 2.02604 52.4709 30.8227 2.02604
514 1 3.13892 32.3175 2.28976 54.5497 32.3175 2.28976
515 2 5.62279 31.7083 3.06328 57.0336 31.7083 3.06328
516 2 4.34981 31.6263 0.0813156 55.7606 31.6263 0.0813156
517 1 5.2271 29.6087 1.54529 56.6379 29.6087 1.54529
518 2 6.4036 27.3774 1.97365 57.8144 27.3774 1.97365
519 2 5.46431 29.1291 -1.01081 56.8751 29.1291 -1.01081
520 1 9.51129 32.1505 2.03841 60.9221 32.1505 2.03841
521 2 11.0099 33.4733 3.58595 62.4207 33.4733 3.58595
522 2 11.766 31.7418 0.962499 63.1768 31.7418 0.962499
523 1 12.5111 31.5486 3.33876 63.9219 31.5486 3.33876
524 2 13.6906 33.133 4.76773 65.1014 33.133 4.76773
525 2 14.9047 30.8789 2.78127 66.3155 30.8789 2.78127
526 1 15.1594 33.3562 2.84831 66.5701 33.3562 2.84831
527 2 16.7552 34.8261 4.06304 68.166 34.8261 4.06304
528 2 17.3069 32.4561 1.92837 68.7177 32.4561 1.92837
529 1 17.9159 32.6793 4.40373 69.3267 32.6793 4.40373
530 2 19.391 34.394 5.45879 70.8018 34.394 5.45879
531 2 20.1651 31.5974 3.6888 71.5758 31.5974 3.6888
532 1 20.6661 34.0719 3.27834 72.0769 34.0719 3.27834
533 2 22.4401 35.5872 4.312 73.8509 35.5872 4.312
534 2 22.8812 32.8799 2.55752 74.292 32.8799 2.55752
535 1 23.522 33.4385 4.86218 74.9327 33.4385 4.86218
536 2 25.3874 34.7908 5.96446 76.7981 34.7908 5.96446
537 2 25.4814 32.1 4.01408 76.8922 32.1 4.01408
538 1 26.4602 34.3997 3.76155 77.8709 34.3997 3.76155
539 2 28.1512 36.1452 4.58822 79.562 36.1452 4.58822
540 2 28.665 33.2325 3.22042 80.0758 33.2325 3.22042
541 1 29.3287 35.4654 2.60584 29.3287 35.4654 2.60584
542 2 30.9956 37.249 3.59985 30.9956 37.249 3.59985
543 2 31.5568 34.469 2.01617 31.5568 34.469 2.01617