ITEM: TIMESTEP
3762000
ITEM: NUMBER OF ATOMS
810
ITEM: BOX BOUNDS xy xz yz pp pp pp
8.0341777045796159e-01 7.0800188339573111e+01 1.8586001110030608e+01
8.0582000660415243e-01 5.0210394993394715e+01 0.0000000000000000e+00
-1.0000000000000000e+01 1.0000000000000000e+01 0.0000000000000000e+00
ITEM: ATOMS id type x y z xu yu zu
1 1 68.6578 46.387 -9.08097 -1.33897 -3.01756 -9.08097
2 2 19.1151 47.4053 -7.76644 0.529092 -1.99932 -7.76644
3 2 19.0791 45.163 9.86853 0.493109 -4.24154 -10.1315
4 1 20.0765 47.4847 9.90293 1.49054 -1.9199 -10.0971
5 2 21.9743 48.6884 -8.82594 3.38827 -0.716197 -8.82594
6 2 22.0887 46.3422 8.84405 3.50268 -3.06239 -11.156
7 1 22.8851 46.382 -8.71388 4.29911 -3.02253 -8.71388
8 2 24.6189 47.7176 -7.66967 6.03293 -1.68698 -7.66967
9 2 24.997 45.2154 -9.6988 6.41102 -4.18922 -9.6988
10 1 25.8533 47.5378 -9.81053 7.26731 -1.86682 -9.81053
11 2 27.4749 48.9039 -8.51101 8.88886 -0.500651 -8.51101
12 2 27.9825 46.5483 9.18001 9.39654 -2.85631 -10.82
13 1 28.6265 46.6259 -8.41156 10.0405 -2.77872 -8.41156
14 2 30.1949 48.1601 -6.92727 11.6089 -1.24446 -6.92727
15 2 30.9377 45.8982 -9.15794 12.3517 -3.50635 -9.15794
16 1 31.5828 48.2868 -8.994 12.9968 -1.11774 -8.994
17 2 32.883 49.9364 -7.55443 14.297 0.53186 -7.55443
18 2 33.7594 47.5877 -9.79491 15.1734 -1.81683 -9.79491
19 1 34.2761 47.8595 -7.2729 15.6901 -1.54506 -7.2729
20 2 35.8105 49.0651 -5.629 17.2245 -0.339518 -5.629
21 2 36.5671 47.1926 -8.32495 17.9811 -2.21193 -8.32495
22 1 37.035 49.5054 -7.7782 18.449 0.100812 -7.7782
23 2 20.0784 1.49269 -6.46912 20.0784 1.49269 -6.46912
24 2 39.421 48.768 -8.50544 20.835 -0.636572 -8.50544
25 1 39.7261 48.8306 -6.0389 21.1401 -0.573982 -6.0389
26 2 41.3051 49.6137 -4.30335 22.7191 0.209155 -4.30335
27 2 42.1645 48.7167 -6.88971 23.5785 -0.687894 -6.88971
28 1 31.0652 4.69818 4.03933 31.0652 4.69818 4.03933
29 2 33.2628 3.85472 3.12627 33.2628 3.85472 3.12627
30 2 30.559 4.80639 1.6042 30.559 4.80639 1.6042
31 1 31.5665 2.53627 1.73523 31.5665 2.53627 1.73523
32 2 33.7707 1.6762 1.07761 33.7707 1.6762 1.07761
33 2 31.2398 2.54465 -0.77012 31.2398 2.54465 -0.77012
34 1 33.6459 3.34019 -0.866323 33.6459 3.34019 -0.866323
35 2 35.9554 2.62365 -1.23506 35.9554 2.62365 -1.23506
36 2 33.4532 2.98056 -3.31166 33.4532 2.98056 -3.31166
37 1 34.8123 0.944679 -2.65589 34.8123 0.944679 -2.65589
38 2 55.9051 49.8377 -2.77235 37.3191 0.433122 -2.77235
39 2 53.6795 49.731 -5.17052 35.0935 0.326398 -5.17052
40 1 37.2449 1.71424 -4.89163 37.2449 1.71424 -4.89163
41 2 39.7483 1.31243 -4.83004 39.7483 1.31243 -4.83004
42 2 37.6658 1.01075 -7.31897 37.6658 1.01075 -7.31897
43 1 57.6986 48.6922 -6.30107 39.1126 -0.712346 -6.30107
44 2 60.1409 48.5822 -5.7243 41.5549 -0.822413 -5.7243
45 2 58.7275 47.7367 -8.43575 40.1415 -1.66788 -8.43575
46 1 60.4946 49.4567 -7.95057 41.9086 0.0521115 -7.95057
47 2 62.8185 49.5576 -7.20793 44.2325 0.153042 -7.20793
48 2 61.5869 48.3637 -9.91031 43.0009 -1.04086 -9.91031
49 1 63.0027 47.1952 -8.27373 44.4167 -2.20939 -8.27373
50 2 65.1529 47.8788 -7.30097 46.5669 -1.52581 -7.30097
51 2 64.459 46.0133 -9.84388 45.873 -3.39124 -9.84388
52 1 65.7644 48.1511 -9.61714 47.1784 -1.25345 -9.61714
53 2 68.0394 48.828 -8.68124 49.4534 -0.576559 -8.68124
54 2 67.3765 46.922 8.78781 48.7905 -2.48255 -11.2122
55 1 68.6874 49.067 8.95553 -1.30933 -0.337602 -11.0445
56 2 19.4571 49.8631 -9.97953 0.87113 0.458521 -9.97953
57 2 18.9477 47.696 7.64343 0.36166 -1.7086 -12.3566
58 1 20.2239 49.9467 7.5951 1.63792 0.542136 -12.4049
59 2 3.47028 1.54967 8.96646 3.47028 1.54967 -11.0335
60 2 22.1398 48.7931 6.45217 3.55384 -0.611449 -13.5478
61 1 22.998 48.6797 8.85995 4.41204 -0.724902 -11.1401
62 2 24.8062 49.935 -9.90911 6.22018 0.530436 -9.90911
63 2 24.8736 47.4816 7.79843 6.28763 -1.92302 -12.2016
64 1 25.8731 49.8552 7.82274 7.2871 0.450648 -12.1773
65 2 8.8229 1.89291 9.27927 8.8229 1.89291 -10.7207
66 2 28.181 49.1859 6.9284 9.595 -0.218675 -13.0716
67 1 28.7703 49.0708 9.31434 10.1843 -0.333823 -10.6857
68 2 11.547 0.947347 -9.17368 11.547 0.947347 -9.17368
69 2 31.1198 48.3391 8.45229 12.5338 -1.0655 -11.5477
70 1 12.9469 1.3094 8.69525 12.9469 1.3094 -11.3048
71 2 14.2208 2.65435 -9.55282 14.2208 2.65435 -9.55282
72 2 15.2758 1.35434 8.10081 15.2758 1.35434 -11.8992
73 1 34.2388 49.9922 -9.61614 15.6528 0.587576 -9.61614
74 2 17.2585 2.20226 -8.58949 17.2585 2.20226 -8.58949
75 2 36.7674 49.6398 9.80877 18.1814 0.235187 -10.1912
76 1 29.8846 8.93588 8.65538 29.8846 8.93588 8.65538
77 2 31.9504 7.87918 7.8232 31.9504 7.87918 7.8232
78 2 29.5596 9.28182 6.17479 29.5596 9.28182 6.17479
79 1 30.3386 6.88424 6.23558 30.3386 6.88424 6.23558
80 2 32.5148 6.01363 5.54698 32.5148 6.01363 5.54698
81 2 30.0053 6.92639 3.78337 30.0053 6.92639 3.78337
82 1 32.4334 7.76492 3.81117 32.4334 7.76492 3.81117
83 2 34.5631 6.86823 2.85648 34.5631 6.86823 2.85648
84 2 31.8646 7.94074 1.36833 31.8646 7.94074 1.36833
85 1 32.9103 5.53152 1.43102 32.9103 5.53152 1.43102
86 2 35.2122 4.7426 0.58841 35.2122 4.7426 0.58841
87 2 32.3449 5.55359 -1.04596 32.3449 5.55359 -1.04596
88 1 34.6935 6.5036 -1.2753 34.6935 6.5036 -1.2753
89 2 36.9555 5.67682 -1.7121 36.9555 5.67682 -1.7121
90 2 34.5269 6.19588 -3.75808 34.5269 6.19588 -3.75808
91 1 35.768 4.09913 -3.27811 35.768 4.09913 -3.27811
92 2 38.1451 3.53411 -3.43493 38.1451 3.53411 -3.43493
93 2 35.8313 3.48516 -5.75685 35.8313 3.48516 -5.75685
94 1 38.0069 4.87228 -5.58922 38.0069 4.87228 -5.58922
95 2 40.4563 4.22981 -5.40789 40.4563 4.22981 -5.40789
96 2 38.4536 4.34998 -8.05523 38.4536 4.34998 -8.05523
97 1 39.7088 2.47787 -7.06167 39.7088 2.47787 -7.06167
98 2 42.1825 2.20251 -6.57043 42.1825 2.20251 -6.57043
99 2 40.4675 1.53456 -9.36596 40.4675 1.53456 -9.36596
100 1 42.4423 3.15031 -8.87716 42.4423 3.15031 -8.87716
101 2 44.8749 2.9896 -8.3086 44.8749 2.9896 -8.3086
102 2 43.26 2.30237 8.88386 43.26 2.30237 -11.1161
103 1 63.281 50.1774 -9.55831 44.695 0.772794 -9.55831
104 2 47.0449 1.20422 -8.91484 47.0449 1.20422 -8.91484
105 2 64.4837 48.8851 8.51005 45.8977 -0.519513 -11.4899
106 1 47.3935 1.56142 8.6321 47.3935 1.56142 -11.3679
107 2 49.8703 2.01627 9.63028 49.8703 2.01627 -10.3697
108 2 67.5276 49.7794 6.93291 48.9416 0.374807 -13.0671
109 1 50.3079 2.37703 7.17848 -1.10292 2.37703 -12.8215
110 2 52.6371 2.91463 8.23427 1.22638 2.91463 -11.7657
111 2 51.8577 1.27657 5.52001 0.446935 1.27657 -14.48
112 1 53.2016 3.29331 5.84363 1.79086 3.29331 -14.1564
113 2 3.8906 4.06884 7.01535 3.8906 4.06884 -12.9846
114 2 3.30464 2.19895 4.40475 3.30464 2.19895 -15.5952
115 1 4.46483 1.61464 6.6298 4.46483 1.61464 -13.3702
116 2 6.22577 2.81631 7.91615 6.22577 2.81631 -12.0838
117 2 25.1066 49.9956 5.42203 6.52064 0.591063 -14.578
118 1 7.35756 2.98344 5.72009 7.35756 2.98344 -14.2799
119 2 8.68571 4.2021 7.5509 8.68571 4.2021 -12.4491
120 2 9.6308 2.78646 4.90639 9.6308 2.78646 -15.0936
121 1 10.1761 2.12142 7.2467 10.1761 2.12142 -12.7533
122 2 12.0183 3.53043 8.11688 12.0183 3.53043 -11.8831
123 2 12.406 1.38156 6.28091 12.406 1.38156 -13.7191
124 1 27.731 13.4588 -7.27262 27.731 13.4588 12.7274
125 2 30.1625 12.7003 -7.36339 30.1625 12.7003 12.6366
126 2 27.9991 13.2312 -9.76266 27.9991 13.2312 10.2373
127 1 29.1502 11.2339 -9.1205 29.1502 11.2339 10.8795
128 2 31.4755 10.2495 -9.79986 31.4755 10.2495 10.2001
129 2 28.8865 11.2104 8.4054 28.8865 11.2104 8.4054
130 1 31.2009 12.0593 8.5356 31.2009 12.0593 8.5356
131 2 33.4059 11.0083 7.95487 33.4059 11.0083 7.95487
132 2 30.9287 12.3237 6.06427 30.9287 12.3237 6.06427
133 1 31.9286 9.87528 6.24276 31.9286 9.87528 6.24276
134 2 34.0319 8.77261 5.49946 34.0319 8.77261 5.49946
135 2 31.5212 10.0593 3.82871 31.5212 10.0593 3.82871
136 1 33.9268 10.7333 3.80181 33.9268 10.7333 3.80181
137 2 35.8866 9.64064 2.77171 35.8866 9.64064 2.77171
138 2 33.2927 10.9634 1.40506 33.2927 10.9634 1.40506
139 1 34.1934 8.67119 1.21176 34.1934 8.67119 1.21176
140 2 36.2515 7.63968 0.455025 36.2515 7.63968 0.455025
141 2 33.7175 8.89375 -1.20267 33.7175 8.89375 -1.20267
142 1 36.1456 9.5754 -1.20655 36.1456 9.5754 -1.20655
143 2 38.3038 8.58654 -2.07403 38.3038 8.58654 -2.07403
144 2 35.6916 9.49802 -3.82736 35.6916 9.49802 -3.82736
145 1 36.8653 7.23108 -3.6631 36.8653 7.23108 -3.6631
146 2 39.219 6.48438 -4.01248 39.219 6.48438 -4.01248
147 2 36.7933 7.03844 -6.13877 36.7933 7.03844 -6.13877
148 1 39.0257 8.19373 -5.99184 39.0257 8.19373 -5.99184
149 2 41.5283 7.40672 -5.7597 41.5283 7.40672 -5.7597
150 2 39.5983 7.68416 -8.48164 39.5983 7.68416 -8.48164
151 1 40.6511 5.66798 -7.48927 40.6511 5.66798 -7.48927
152 2 42.9886 4.94637 -7.15449 42.9886 4.94637 -7.15449
153 2 41.3188 5.11636 -9.88809 41.3188 5.11636 -9.88809
154 1 43.3562 6.33831 -9.16564 43.3562 6.33831 -9.16564
155 2 45.7615 5.79352 -8.98304 45.7615 5.79352 -8.98304
156 2 43.8193 5.86934 8.41711 43.8193 5.86934 -11.5829
157 1 45.1545 3.93875 9.36789 45.1545 3.93875 -10.6321
158 2 47.5186 3.81752 -9.99933 47.5186 3.81752 -9.99933
159 2 45.987 3.03883 7.13897 45.987 3.03883 -12.861
160 1 47.8999 4.61096 7.6153 47.8999 4.61096 -12.3847
161 2 50.2685 4.55983 8.3268 50.2685 4.55983 -11.6732
162 2 48.8774 3.67691 5.49201 48.8774 3.67691 -14.508
163 1 50.7013 5.38271 5.94696 -0.709497 5.38271 -14.053
164 2 53.0322 5.66438 6.57333 1.62141 5.66438 -13.4267
165 2 51.6475 4.23362 4.06709 0.236768 4.23362 -15.9329
166 1 53.2695 6.18953 4.11861 1.8587 6.18953 -15.8814
167 2 3.93339 6.68851 5.4357 3.93339 6.68851 -14.5643
168 2 3.91064 5.72426 2.71166 3.91064 5.72426 -17.2883
169 1 4.61718 4.24513 4.69571 4.61718 4.24513 -15.3043
170 2 6.48663 5.34346 5.89163 6.48663 5.34346 -14.1084
171 2 6.58901 3.79894 3.34222 6.58901 3.79894 -16.6578
172 1 23.9293 18.2078 -5.13959 23.9293 18.2078 14.8604
173 2 26.522 17.7819 -4.51414 26.522 17.7819 15.4859
174 2 24.8641 17.6534 -7.36017 24.8641 17.6534 12.6398
175 1 26.0557 15.9216 -5.9969 26.0557 15.9216 14.0031
176 2 28.4164 15.4086 -5.73606 28.4164 15.4086 14.2639
177 2 26.7253 15.4765 -8.37796 26.7253 15.4765 11.622
178 1 28.7993 16.7004 -7.77513 28.7993 16.7004 12.2249
179 2 31.2088 15.9293 -7.63112 31.2088 15.9293 12.3689
180 2 29.2278 16.3897 9.81619 29.2278 16.3897 9.81619
181 1 30.3296 14.2952 -9.25863 30.3296 14.2952 10.7414
182 2 32.6062 13.3769 -9.83961 32.6062 13.3769 10.1604
183 2 30.1419 14.3069 8.1382 30.1419 14.3069 8.1382
184 1 32.4745 15.0994 8.31775 32.4745 15.0994 8.31775
185 2 34.6565 14.0308 7.93173 34.6565 14.0308 7.93173
186 2 32.3583 15.0684 5.88943 32.3583 15.0684 5.88943
187 1 33.3671 12.8434 6.207 33.3671 12.8434 6.207
188 2 35.5141 11.9856 5.30605 35.5141 11.9856 5.30605
189 2 32.8168 13.018 3.7413 32.8168 13.018 3.7413
190 1 35.259 13.7399 3.68189 35.259 13.7399 3.68189
191 2 37.3613 12.804 2.80628 37.3613 12.804 2.80628
192 2 34.6625 13.8472 1.2838 34.6625 13.8472 1.2838
193 1 35.7335 11.6283 1.27068 35.7335 11.6283 1.27068
194 2 37.8062 10.81 0.164286 37.8062 10.81 0.164286
195 2 35.0704 11.8424 -1.13559 35.0704 11.8424 -1.13559
196 1 37.3893 12.5528 -1.45766 37.3893 12.5528 -1.45766
197 2 39.5569 11.8198 -2.28719 39.5569 11.8198 -2.28719
198 2 36.9762 12.6677 -3.99174 36.9762 12.6677 -3.99174
199 1 38.0316 10.4761 -3.74588 38.0316 10.4761 -3.74588
200 2 40.2343 9.59065 -4.28602 40.2343 9.59065 -4.28602
201 2 37.8401 10.3788 -6.24335 37.8401 10.3788 -6.24335
202 1 40.2072 11.3072 -6.17458 40.2072 11.3072 -6.17458
203 2 42.6056 10.666 -6.13219 42.6056 10.666 -6.13219
204 2 40.5403 10.9142 -8.61592 40.5403 10.9142 -8.61592
205 1 41.716 8.89399 -7.76155 41.716 8.89399 -7.76155
206 2 44.1195 8.08103 -7.37099 44.1195 8.08103 -7.37099
207 2 42.2873 8.4886 9.90614 42.2873 8.4886 -10.0939
208 1 44.5169 9.56502 -9.4053 44.5169 9.56502 -9.4053
209 2 46.7621 8.49998 -9.29478 46.7621 8.49998 -9.29478
210 2 46.2703 9.05656 7.0289 46.2703 9.05656 -12.9711
211 1 45.903 7.20197 8.79807 45.903 7.20197 -11.2019
212 2 48.1973 6.59567 9.20922 48.1973 6.59567 -10.7908
213 2 46.4864 6.27495 6.49771 46.4864 6.27495 -13.5023
214 1 48.5192 7.7851 6.95635 48.5192 7.7851 -13.0436
215 2 51.0608 7.53552 7.29357 51.0608 7.53552 -12.7064
216 2 49.0909 6.64742 4.70036 49.0909 6.64742 -15.2996
217 1 51.082 8.47774 4.95218 -0.328746 8.47774 -15.0478
218 2 53.4538 8.62778 4.43002 2.043 8.62778 -15.57
219 2 51.521 7.48494 2.7195 0.110205 7.48494 -17.2805
220 1 18.8901 22.1263 -4.73024 18.8901 22.1263 15.2698
221 2 21.1579 22.6037 -3.9606 21.1579 22.6037 16.0394
222 2 20.2393 21.2589 -6.64517 20.2393 21.2589 13.3548
223 1 21.3932 20.2701 -4.65686 21.3932 20.2701 15.3431
224 2 23.8863 20.3885 -3.93841 23.8863 20.3885 16.0616
225 2 22.5092 19.5702 -6.72424 22.5092 19.5702 13.2758
226 1 24.3326 21.1883 -6.17088 24.3326 21.1883 13.8291
227 2 26.7264 20.9806 -5.31746 26.7264 20.9806 14.6825
228 2 25.5853 20.4844 -8.29117 25.5853 20.4844 11.7088
229 1 26.7854 18.9912 -6.6699 26.7854 18.9912 13.3301
230 2 29.2535 18.5298 -6.08952 29.2535 18.5298 13.9105
231 2 27.5688 18.5561 -9.01825 27.5688 18.5561 10.9817
232 1 29.5886 19.8825 -8.22822 29.5886 19.8825 11.7718
233 2 32.0669 19.2576 -7.94151 32.0669 19.2576 12.0585
234 2 30.1035 19.3034 9.44759 30.1035 19.3034 9.44759
235 1 31.4088 17.4025 -9.56186 31.4088 17.4025 10.4381
236 2 33.6772 16.3766 -9.93028 33.6772 16.3766 10.0697
237 2 31.4862 17.3284 7.84581 31.4862 17.3284 7.84581
238 1 33.7096 18.1544 8.2056 33.7096 18.1544 8.2056
239 2 36.0273 17.3318 7.78701 36.0273 17.3318 7.78701
240 2 33.6936 18.0364 5.71581 33.6936 18.0364 5.71581
241 1 34.8242 15.8418 6.17311 34.8242 15.8418 6.17311
242 2 36.913 14.7546 5.25262 36.913 14.7546 5.25262
243 2 34.4144 16.0683 3.72681 34.4144 16.0683 3.72681
244 1 36.8569 16.7061 3.62507 36.8569 16.7061 3.62507
245 2 38.8974 15.7084 2.46132 38.8974 15.7084 2.46132
246 2 36.0463 17.0121 1.13926 36.0463 17.0121 1.13926
247 1 37.0714 14.6038 1.12274 37.0714 14.6038 1.12274
248 2 39.0742 13.7559 -0.135458 39.0742 13.7559 -0.135458
249 2 36.11 14.771 -1.2173 36.11 14.771 -1.2173
250 1 38.5067 15.6692 -1.71579 38.5067 15.6692 -1.71579
251 2 40.6944 14.9834 -2.62672 40.6944 14.9834 -2.62672
252 2 37.8994 15.7092 -4.20403 37.8994 15.7092 -4.20403
253 1 39.2122 13.5882 -3.99865 39.2122 13.5882 -3.99865
254 2 41.4301 12.7151 -4.5394 41.4301 12.7151 -4.5394
255 2 39.0356 13.2998 -6.59857 39.0356 13.2998 -6.59857
256 1 41.2613 14.4616 -6.39081 41.2613 14.4616 -6.39081
257 2 43.6684 13.6898 -6.38219 43.6684 13.6898 -6.38219
258 2 41.5135 14.1045 -8.6823 41.5135 14.1045 -8.6823
259 1 42.8913 12.0707 -8.21622 42.8913 12.0707 -8.21622
260 2 45.0322 11.0801 -7.52733 45.0322 11.0801 -7.52733
261 2 45.0631 11.1616 8.75664 45.0631 11.1616 -11.2434
262 1 45.8165 12.6722 -9.43313 45.8165 12.6722 -9.43313
263 2 47.7259 11.1627 -8.66517 47.7259 11.1627 -8.66517
264 2 47.3119 11.7482 6.78142 47.3119 11.7482 -13.2186
265 1 47.3799 10.2334 8.97312 47.3799 10.2334 -11.0269
266 2 49.6144 9.26182 8.82312 49.6144 9.26182 -11.1769
267 2 48.7115 9.37763 5.00883 48.7115 9.37763 -14.9912
268 1 49.8171 10.9971 6.89896 49.8171 10.9971 -13.101
269 2 52.1345 10.1649 6.6992 52.1345 10.1649 -13.3008
270 2 50.9208 11.0412 4.62686 50.9208 11.0412 -15.3731
271 1 16.21 23.8955 -5.32504 16.21 23.8955 14.675
272 2 18.3976 24.5998 -4.32079 18.3976 24.5998 15.6792
273 2 17.8429 22.8093 -6.92086 17.8429 22.8093 13.0791
274 1 19.1656 24.9883 -6.72565 19.1656 24.9883 13.2743
275 2 21.3014 25.3713 -5.48596 21.3014 25.3713 14.514
276 2 20.8625 23.9648 -8.35724 20.8625 23.9648 11.6428
277 1 21.7977 23.1441 -6.29292 21.7977 23.1441 13.7071
278 2 23.9129 23.372 -5.03123 23.9129 23.372 14.9688
279 2 23.3708 22.3807 -8.02184 23.3708 22.3807 11.9782
280 1 24.7699 24.2731 -7.2166 24.7699 24.2731 12.7834
281 2 27.1187 24.3269 -6.19948 27.1187 24.3269 13.8005
282 2 26.101 23.4328 -9.15587 26.101 23.4328 10.8441
283 1 27.2873 22.0704 -7.44473 27.2873 22.0704 12.5553
284 2 29.6811 21.8213 -6.73065 29.6811 21.8213 13.2694
285 2 28.2897 21.5539 -9.65975 28.2897 21.5539 10.3403
286 1 30.1289 22.967 -8.91901 30.1289 22.967 11.081
287 2 32.5225 22.5573 -8.52549 32.5225 22.5573 11.4745
288 2 30.8848 22.3827 8.73914 30.8848 22.3827 8.73914
289 1 32.1455 20.6097 9.94107 32.1455 20.6097 9.94107
290 2 34.6561 19.8404 9.86684 34.6561 19.8404 9.86684
291 2 32.528 20.2229 7.45644 32.528 20.2229 7.45644
292 1 34.6981 21.3541 7.83135 34.6981 21.3541 7.83135
293 2 37.1001 20.485 7.62474 37.1001 20.485 7.62474
294 2 34.8053 21.2027 5.29865 34.8053 21.2027 5.29865
295 1 36.0117 19.0067 5.83953 36.0117 19.0067 5.83953
296 2 38.1662 18.0697 5.27886 38.1662 18.0697 5.27886
297 2 35.6882 19.0018 3.48416 35.6882 19.0018 3.48416
298 1 38.0067 19.9077 3.48147 38.0067 19.9077 3.48147
299 2 40.077 18.8466 2.6297 40.077 18.8466 2.6297
300 2 37.603 20.0557 1.00357 37.603 20.0557 1.00357
301 1 38.5305 17.6523 0.996754 38.5305 17.6523 0.996754
302 2 40.3688 16.7469 -0.35911 40.3688 16.7469 -0.35911
303 2 37.6253 18.0277 -1.35977 37.6253 18.0277 -1.35977
304 1 40.0187 18.6998 -1.86244 40.0187 18.6998 -1.86244
305 2 42.1602 18.2382 -3.53758 42.1602 18.2382 -3.53758
306 2 38.8454 18.7642 -4.058 38.8454 18.7642 -4.058
307 1 40.2251 16.7435 -4.33115 40.2251 16.7435 -4.33115
308 2 42.4816 15.6857 -4.61133 42.4816 15.6857 -4.61133
309 2 40.3575 16.8138 -6.75932 40.3575 16.8138 -6.75932
310 1 42.5903 17.5784 -6.22621 42.5903 17.5784 -6.22621
311 2 44.8553 16.5384 -6.45828 44.8553 16.5384 -6.45828
312 2 42.623 17.4431 -8.68646 42.623 17.4431 -8.68646
313 1 43.8059 15.1918 -8.36873 43.8059 15.1918 -8.36873
314 2 46.1856 14.3188 -7.62284 46.1856 14.3188 -7.62284
315 2 45.7109 14.3453 8.65619 45.7109 14.3453 -11.3438
316 1 46.7737 15.8549 -9.63671 46.7737 15.8549 -9.63671
317 2 48.2335 13.8306 -9.39238 48.2335 13.8306 -9.39238
318 2 48.3171 16.0935 8.25653 48.3171 16.0935 -11.7435
319 1 48.004 13.6397 8.20423 48.004 13.6397 -11.7958
320 2 49.506 11.8796 9.25999 49.506 11.8796 -10.74
321 2 50.1578 13.5708 7.02677 50.1578 13.5708 -12.9732
322 1 13.4121 25.2692 -6.26941 64.8229 25.2692 13.7306
323 2 15.6153 26.2679 -5.23686 67.0261 26.2679 14.7631
324 2 15.2024 24.0524 -7.66685 66.6132 24.0524 12.3331
325 1 16.3598 26.2492 -7.62317 16.3598 26.2492 12.3768
326 2 18.1823 27.1663 -6.18419 18.1823 27.1663 13.8158
327 2 18.2825 25.4079 -8.95016 18.2825 25.4079 11.0498
328 1 19.2339 27.6253 -8.40281 19.2339 27.6253 11.5972
329 2 21.2698 28.317 -7.07945 21.2698 28.317 12.9205
330 2 20.9649 26.604 -9.84017 20.9649 26.604 10.1598
331 1 22.0958 26.1438 -7.70611 22.0958 26.1438 12.2939
332 2 24.2488 26.4577 -6.39267 24.2488 26.4577 13.6073
333 2 23.8223 25.1433 -9.27733 23.8223 25.1433 10.7227
334 1 25.0811 27.3044 -8.65666 25.0811 27.3044 11.3433
335 2 27.4114 27.6006 -7.74584 27.4114 27.6006 12.2542
336 2 26.4573 26.2126 9.56362 26.4573 26.2126 9.56362
337 1 27.6771 25.2542 -8.51002 27.6771 25.2542 11.49
338 2 30.0439 25.0119 -7.55748 30.0439 25.0119 12.4425
339 2 28.7984 24.4518 9.47008 28.7984 24.4518 9.47008
340 1 30.6762 26.0999 10.2201 30.6762 26.0999 10.2201
341 2 33.1583 25.8626 -9.28197 33.1583 25.8626 10.718
342 2 31.5007 25.2326 7.88835 31.5007 25.2326 7.88835
343 1 32.8578 23.7259 9.3144 32.8578 23.7259 9.3144
344 2 35.2883 23.1159 9.45644 35.2883 23.1159 9.45644
345 2 33.3788 23.3265 6.81425 33.3788 23.3265 6.81425
346 1 35.4725 24.4669 7.38984 35.4725 24.4669 7.38984
347 2 37.9689 23.8124 7.37763 37.9689 23.8124 7.37763
348 2 35.831 24.15 4.92372 35.831 24.15 4.92372
349 1 37.0947 22.1475 5.69528 37.0947 22.1475 5.69528
350 2 39.2566 21.0735 5.23471 39.2566 21.0735 5.23471
351 2 36.8921 22.1019 3.20138 36.8921 22.1019 3.20138
352 1 39.3077 22.8284 3.31894 39.3077 22.8284 3.31894
353 2 41.4226 21.7582 2.67474 41.4226 21.7582 2.67474
354 2 39.0225 22.9733 0.869597 39.0225 22.9733 0.869597
355 1 39.9883 20.7242 0.911526 39.9883 20.7242 0.911526
356 2 41.7703 19.5197 -0.260573 41.7703 19.5197 -0.260573
357 2 39.2775 21.0766 -1.521 39.2775 21.0766 -1.521
358 1 41.7379 21.4758 -1.7729 41.7379 21.4758 -1.7729
359 2 43.1837 20.7351 -3.97604 43.1837 20.7351 -3.97604
360 2 40.1738 22.2574 -3.81934 40.1738 22.2574 -3.81934
361 1 40.8234 20.0298 -4.78957 40.8234 20.0298 -4.78957
362 2 44.7281 19.0563 -5.80085 44.7281 19.0563 -5.80085
363 2 41.2331 19.426 -7.25378 41.2331 19.426 -7.25378
364 1 43.3371 20.8602 -6.79036 43.3371 20.8602 -6.79036
365 2 45.5183 20.9094 -7.84935 45.5183 20.9094 -7.84935
366 2 43.2363 20.0679 -9.22215 43.2363 20.0679 -9.22215
367 1 45.0121 18.3468 -8.33393 45.0121 18.3468 -8.33393
368 2 47.4454 17.6006 -7.93869 47.4454 17.6006 -7.93869
369 2 44.6171 16.8109 9.74297 44.6171 16.8109 -10.257
370 1 59.5128 26.4535 -9.74047 59.5128 26.4535 10.2595
371 2 59.8814 28.7671 -9.02853 59.8814 28.7671 10.9715
372 2 10.4481 26.0917 9.70017 61.8589 26.0917 9.70017
373 1 10.5866 26.2309 -7.76001 61.9974 26.2309 12.24
374 2 12.5544 27.59 -6.75108 63.9652 27.59 13.2489
375 2 12.5931 25.0313 -8.55807 64.0039 25.0313 11.4419
376 1 13.5791 27.3245 -8.86886 64.9898 27.3245 11.1311
377 2 15.3431 28.5602 -7.49306 66.7539 28.5602 12.5069
378 2 15.5592 26.4374 -10.0626 66.9699 26.4374 9.93737
379 1 16.4685 28.7496 -9.65968 16.4685 28.7496 10.3403
380 2 18.247 29.9489 -8.38657 18.247 29.9489 11.6134
381 2 18.4105 27.6856 9.23477 18.4105 27.6856 9.23477
382 1 19.3282 29.9831 9.32202 19.3282 29.9831 9.32202
383 2 21.0291 31.1386 -9.36098 21.0291 31.1386 10.639
384 2 21.2437 28.8171 8.31118 21.2437 28.8171 8.31118
385 1 22.1534 28.9067 -9.40176 22.1534 28.9067 10.5982
386 2 24.2746 29.6029 -8.24081 24.2746 29.6029 11.7592
387 2 23.9834 27.7543 9.25211 23.9834 27.7543 9.25211
388 1 25.1089 29.9582 9.44047 25.1089 29.9582 9.44047
389 2 27.3464 30.5484 -9.44356 27.3464 30.5484 10.5564
390 2 26.7047 28.7818 7.84988 26.7047 28.7818 7.84988
391 1 27.9655 28.1798 -9.99017 27.9655 28.1798 10.0098
392 2 30.3042 28.5426 -8.99768 30.3042 28.5426 11.0023
393 2 29.4114 27.1329 8.18477 29.4114 27.1329 8.18477
394 1 30.905 29.0358 8.5944 30.905 29.0358 8.5944
395 2 33.1786 29.1769 9.52296 33.1786 29.1769 9.52296
396 2 32.1366 28.2419 6.55348 32.1366 28.2419 6.55348
397 1 33.4937 26.9296 8.42241 33.4937 26.9296 8.42241
398 2 35.9474 26.4199 8.76642 35.9474 26.4199 8.76642
399 2 34.2458 26.2623 6.00644 34.2458 26.2623 6.00644
400 1 36.1685 27.6197 6.58459 36.1685 27.6197 6.58459
401 2 38.6821 27.1719 6.87853 38.6821 27.1719 6.87853
402 2 36.6653 27.087 4.20275 36.6653 27.087 4.20275
403 1 38.0644 25.2784 5.32366 38.0644 25.2784 5.32366
404 2 40.3026 24.3787 5.08487 40.3026 24.3787 5.08487
405 2 38.1758 25.0027 2.81294 38.1758 25.0027 2.81294
406 1 40.4582 25.8923 3.15932 40.4582 25.8923 3.15932
407 2 42.7211 24.9327 2.70599 42.7211 24.9327 2.70599
408 2 40.3802 25.8383 0.589869 40.3802 25.8383 0.589869
409 1 41.4875 23.619 0.950402 41.4875 23.619 0.950402
410 2 43.5038 22.3985 -0.0661695 43.5038 22.3985 -0.0661695
411 2 40.8449 23.9293 -1.51664 40.8449 23.9293 -1.51664
412 1 43.383 24.4381 -1.62797 43.383 24.4381 -1.62797
413 2 44.5173 22.8986 -3.26787 44.5173 22.8986 -3.26787
414 2 42.6466 25.3892 -3.89108 42.6466 25.3892 -3.89108
415 1 42.4019 23.0136 -4.56418 42.4019 23.0136 -4.56418
416 2 43.9737 23.511 -6.40915 43.9737 23.511 -6.40915
417 2 41.1018 22.0002 -6.47534 41.1018 22.0002 -6.47534
418 1 54.2239 27.6576 6.6246 54.2239 27.6576 6.6246
419 2 54.2879 29.8615 7.50205 54.2879 29.8615 7.50205
420 2 56.6373 27.5876 6.0405 56.6373 27.5876 6.0405
421 1 56.8921 26.8498 8.37445 56.8921 26.8498 8.37445
422 2 56.9667 29.2137 9.25848 56.9667 29.2137 9.25848
423 2 59.2366 27.0192 7.92594 59.2366 27.0192 7.92594
424 1 59.4202 29.4479 8.60005 59.4202 29.4479 8.60005
425 2 61.0327 30.948 9.66842 61.0327 30.948 9.66842
426 2 61.5675 28.5241 7.57539 61.5675 28.5241 7.57539
427 1 62.1658 28.6374 -10.0045 62.1658 28.6374 9.99548
428 2 12.6678 29.6443 -8.73321 64.0786 29.6443 11.2668
429 2 12.7397 27.7359 8.77349 64.1505 27.7359 8.77349
430 1 13.7405 29.97 9.11967 65.1512 29.97 9.11967
431 2 15.656 31.083 -9.69591 67.0668 31.083 10.3041
432 2 15.6251 28.8155 7.9835 67.0358 28.8155 7.9835
433 1 16.6457 31.0866 7.91489 16.6457 31.0866 7.91489
434 2 18.3656 32.3173 9.18241 18.3656 32.3173 9.18241
435 2 18.6902 29.9337 7.04644 18.6902 29.9337 7.04644
436 1 19.4902 32.2842 6.95535 19.4902 32.2842 6.95535
437 2 21.2299 33.4532 8.23126 21.2299 33.4532 8.23126
438 2 21.5436 31.1665 5.95566 21.5436 31.1665 5.95566
439 1 22.2195 31.1576 8.28464 22.2195 31.1576 8.28464
440 2 24.1904 32.293 9.5438 24.1904 32.293 9.5438
441 2 24.1879 30.042 7.07122 24.1879 30.042 7.07122
442 1 25.3174 32.2814 7.23066 25.3174 32.2814 7.23066
443 2 27.2742 33.1868 8.54625 27.2742 33.1868 8.54625
444 2 27.2517 31.3107 5.94159 27.2517 31.3107 5.94159
445 1 28.0997 30.9177 8.23484 28.0997 30.9177 8.23484
446 2 30.2894 31.4323 9.31145 30.2894 31.4323 9.31145
447 2 29.6489 29.7316 6.55193 29.6489 29.7316 6.55193
448 1 30.9979 31.8176 6.92304 30.9979 31.8176 6.92304
449 2 33.2314 32.2883 8.10567 33.2314 32.2883 8.10567
450 2 32.4583 30.8662 5.19483 32.4583 30.8662 5.19483
451 1 33.6992 29.968 7.19154 33.6992 29.968 7.19154
452 2 36.1984 29.7751 7.8552 36.1984 29.7751 7.8552
453 2 34.7787 29.1177 5.07885 34.7787 29.1177 5.07885
454 1 36.5589 30.7567 5.57756 36.5589 30.7567 5.57756
455 2 39.0968 30.4415 6.06908 39.0968 30.4415 6.06908
456 2 37.3142 30.0061 3.31004 37.3142 30.0061 3.31004
457 1 38.7687 28.4029 4.72966 38.7687 28.4029 4.72966
458 2 41.1743 27.8081 4.77915 41.1743 27.8081 4.77915
459 2 39.2336 27.9184 2.25881 39.2336 27.9184 2.25881
460 1 41.4042 29.1978 2.75246 41.4042 29.1978 2.75246
461 2 43.723 28.1601 2.61771 43.723 28.1601 2.61771
462 2 41.8041 29.0484 0.19385 41.8041 29.0484 0.19385
463 1 42.5986 26.6874 0.892176 42.5986 26.6874 0.892176
464 2 44.7239 25.6734 0.318617 44.7239 25.6734 0.318617
465 2 42.3107 26.7637 -1.6087 42.3107 26.7637 -1.6087
466 1 44.8656 27.2876 -1.62524 44.8656 27.2876 -1.62524
467 2 45.877 25.0012 -1.9798 45.877 25.0012 -1.9798
468 2 44.5913 27.4591 -4.20576 44.5913 27.4591 -4.20576
469 1 45.1323 24.9771 -4.31605 45.1323 24.9771 -4.31605
470 2 51.6078 30.1213 5.54284 51.6078 30.1213 5.54284
471 2 53.9337 28.3867 4.27552 53.9337 28.3867 4.27552
472 1 53.9744 30.663 5.20009 53.9744 30.663 5.20009
473 2 55.5409 32.1666 6.75524 55.5409 32.1666 6.75524
474 2 56.3167 30.0225 4.37934 56.3167 30.0225 4.37934
475 1 56.7876 29.925 6.87738 56.7876 29.925 6.87738
476 2 58.2825 31.5707 8.1551 58.2825 31.5707 8.1551
477 2 59.051 29.1518 5.99819 59.051 29.1518 5.99819
478 1 59.6055 31.5529 6.06831 59.6055 31.5529 6.06831
479 2 61.0901 32.974 7.37327 61.0901 32.974 7.37327
480 2 61.658 30.635 5.21334 61.658 30.635 5.21334
481 1 62.4431 30.9046 7.62998 62.4431 30.9046 7.62998
482 2 12.5973 32.3473 8.88088 64.0081 32.3473 8.88088
483 2 13.0242 29.8062 6.627 64.4349 29.8062 6.627
484 1 13.8286 32.0882 6.67065 65.2394 32.0882 6.67065
485 2 15.5652 33.3156 7.95055 66.9759 33.3156 7.95055
486 2 15.8281 31.0858 5.61841 67.2389 31.0858 5.61841
487 1 16.6603 33.4921 5.68677 16.6603 33.4921 5.68677
488 2 18.6209 34.6374 6.80628 18.6209 34.6374 6.80628
489 2 18.6388 32.1203 4.68015 18.6388 32.1203 4.68015
490 1 19.6824 34.4034 4.6425 19.6824 34.4034 4.6425
491 2 21.3261 35.8504 5.83196 21.3261 35.8504 5.83196
492 2 21.764 33.4437 3.682 21.764 33.4437 3.682
493 1 22.3946 33.5517 6.06077 22.3946 33.5517 6.06077
494 2 24.2465 34.4789 7.49392 24.2465 34.4789 7.49392
495 2 24.3593 32.5191 4.89334 24.3593 32.5191 4.89334
496 1 25.2965 34.8664 5.24192 25.2965 34.8664 5.24192
497 2 27.4318 35.9606 6.24932 27.4318 35.9606 6.24932
498 2 27.0783 33.6982 4.01665 27.0783 33.6982 4.01665
499 1 28.3229 33.6091 6.28521 28.3229 33.6091 6.28521
500 2 30.4429 34.2265 7.3846 30.4429 34.2265 7.3846
501 2 29.8797 32.3778 4.70156 29.8797 32.3778 4.70156
502 1 31.1231 34.6004 5.05758 31.1231 34.6004 5.05758
503 2 33.2405 35.4157 6.15426 33.2405 35.4157 6.15426
504 2 32.774 33.5778 3.56144 32.774 33.5778 3.56144
505 1 33.9227 32.845 5.73139 33.9227 32.845 5.73139
506 2 36.3292 33.056 6.55106 36.3292 33.056 6.55106
507 2 35.1678 31.8535 3.77955 35.1678 31.8535 3.77955
508 1 36.8071 33.7272 4.19263 36.8071 33.7272 4.19263
509 2 39.265 33.7633 4.81709 39.265 33.7633 4.81709
510 2 37.8689 32.7016 2.18729 37.8689 32.7016 2.18729
511 1 39.3054 31.4876 3.78213 39.3054 31.4876 3.78213
512 2 41.673 31.1935 4.38294 41.673 31.1935 4.38294
513 2 40.1371 30.9654 1.43659 40.1371 30.9654 1.43659
514 1 42.1459 32.4466 2.01212 42.1459 32.4466 2.01212
515 2 44.3729 31.6032 2.86848 44.3729 31.6032 2.86848
516 2 43.4419 32.375 -0.178139 43.4419 32.375 -0.178139
517 1 44.1276 29.8951 0.724293 44.1276 29.8951 0.724293
518 2 46.1623 28.3674 0.517096 46.1623 28.3674 0.517096
519 2 43.8604 29.7398 -1.82428 43.8604 29.7398 -1.82428
520 1 48.3484 32.4317 2.28542 48.3484 32.4317 2.28542
521 2 50.0564 33.5613 3.81849 50.0564 33.5613 3.81849
522 2 50.5087 31.8975 1.11798 50.5087 31.8975 1.11798
523 1 51.2795 31.4019 3.37055 51.2795 31.4019 3.37055
524 2 52.5792 32.7935 4.98312 52.5792 32.7935 4.98312
525 2 53.5452 30.849 2.62604 53.5452 30.849 2.62604
526 1 54.0411 33.236 2.94114 54.0411 33.236 2.94114
527 2 55.4878 34.6207 4.49745 55.4878 34.6207 4.49745
528 2 56.2979 32.4995 2.17248 56.2979 32.4995 2.17248
529 1 56.753 32.4656 4.69186 56.753 32.4656 4.69186
530 2 58.5059 33.772 5.95057 58.5059 33.772 5.95057
531 2 58.9093 31.5227 3.65856 58.9093 31.5227 3.65856
532 1 59.7209 33.8601 3.81481 59.7209 33.8601 3.81481
533 2 61.4357 35.2538 4.88404 61.4357 35.2538 4.88404
534 2 61.7544 32.6781 2.94641 61.7544 32.6781 2.94641
535 1 62.4432 33.091 5.31543 62.4432 33.091 5.31543
536 2 64.2525 34.4346 6.40555 64.2525 34.4346 6.40555
537 2 13.1416 31.9606 4.26294 64.5524 31.9606 4.26294
538 1 13.9992 34.3503 4.25509 65.41 34.3503 4.25509
539 2 15.8723 35.7397 5.34304 67.2831 35.7397 5.34304
540 2 15.8702 33.0966 3.37795 67.281 33.0966 3.37795
541 1 16.867 35.3908 3.15172 16.867 35.3908 3.15172
542 2 18.6188 36.6507 4.31691 18.6188 36.6507 4.31691
543 2 18.8378 34.0457 2.24692 18.8378 34.0457 2.24692
544 1 19.77 36.3445 1.98276 19.77 36.3445 1.98276
545 2 21.4092 37.8392 3.39212 21.4092 37.8392 3.39212
546 2 21.9423 35.4369 1.21548 21.9423 35.4369 1.21548
547 1 22.5622 35.7741 3.63134 22.5622 35.7741 3.63134