ITEM: TIMESTEP
5366000
ITEM: NUMBER OF ATOMS
810
ITEM: BOX BOUNDS xy xz yz pp pp pp
-2.4096856750714764e+01 5.2214187229542503e+01 -2.4900274521172726e+01
8.0582000660415243e-01 5.0210394993394715e+01 0.0000000000000000e+00
-1.0000000000000000e+01 1.0000000000000000e+01 0.0000000000000000e+00
ITEM: ATOMS id type x y z xu yu zu
1 1 26.461 45.4455 9.64073 -0.049499 -3.95903 -10.3593
2 2 28.7878 45.8806 -9.65086 2.27732 -3.52394 -9.65086
3 2 27.7344 44.037 7.98144 1.22386 -5.36754 -12.0186
4 1 29.2851 46.0347 7.96476 2.77463 -3.36987 -12.0352
5 2 -19.8769 46.5405 8.86009 5.02339 -2.8641 -11.1399
6 2 -20.777 44.6644 6.3663 4.1233 -4.74022 -13.6337
7 1 -19.4427 44.177 8.41762 5.45757 -5.22762 -11.5824
8 2 -17.4904 45.1881 9.55344 7.40986 -4.21643 -10.4466
9 2 -17.599 42.9365 7.19565 7.30123 -6.46807 -12.8044
10 1 -16.4888 45.1938 7.19658 8.41147 -4.21077 -12.8034
11 2 -14.5784 46.3098 8.1499 10.3218 -3.09474 -11.8501
12 2 -14.7043 43.8159 6.10247 10.196 -5.5887 -13.8975
13 1 -13.6803 43.9828 8.36706 11.22 -5.42179 -11.6329
14 2 -11.8615 45.3884 9.42939 13.0388 -4.01616 -10.5706
15 2 -11.753 42.6876 7.52853 13.1472 -6.717 -12.4715
16 1 -10.842 45.0558 7.15868 14.0582 -4.34878 -12.8413
17 2 -9.39497 46.7471 8.42553 15.5053 -2.65751 -11.5745
18 2 -8.60437 44.0582 6.5711 16.2959 -5.3464 -13.4289
19 1 -8.1623 44.6025 8.96178 16.738 -4.80211 -11.0382
20 2 -6.6043 46.1392 10.2145 18.296 -3.26542 -9.78554
21 2 -6.05315 43.6646 8.05618 18.8471 -5.73995 -11.9438
22 1 -5.32907 46.0258 8.10143 19.5712 -3.37881 -11.8986
23 2 -3.39454 47.3862 8.97915 21.5057 -2.01839 -11.0209
24 2 -3.17954 45.2419 7.07728 21.7207 -4.16271 -12.9227
25 1 -2.49404 45.1287 9.48958 22.4062 -4.27592 -10.5104
26 2 -1.06366 46.6961 -9.15793 23.8366 -2.70848 -9.15793
27 2 -0.0552309 45.1922 8.77214 24.845 -4.21234 -11.2279
28 1 39.6938 6.17458 8.22673 39.6938 6.17458 8.22673
29 2 41.4272 4.95526 6.80597 41.4272 4.95526 6.80597
30 2 38.7609 6.44402 5.89002 38.7609 6.44402 5.89002
31 1 39.4177 4.04859 5.68921 39.4177 4.04859 5.68921
32 2 41.1091 2.95534 4.22078 41.1091 2.95534 4.22078
33 2 38.3588 4.57926 3.45104 38.3588 4.57926 3.45104
34 1 40.6427 4.8561 2.59895 40.6427 4.8561 2.59895
35 2 42.4088 3.52842 1.40788 42.4088 3.52842 1.40788
36 2 39.7535 5.1088 0.255462 39.7535 5.1088 0.255462
37 1 40.4626 2.68766 0.239076 40.4626 2.68766 0.239076
38 2 42.4791 1.54724 -0.793673 42.4791 1.54724 -0.793673
39 2 39.6656 2.56434 -2.15029 39.6656 2.56434 -2.15029
40 1 42.0792 3.14563 -2.58281 42.0792 3.14563 -2.58281
41 2 44.1067 1.9638 -3.20045 44.1067 1.9638 -3.20045
42 2 41.585 2.83514 -4.95056 41.585 2.83514 -4.95056
43 1 17.6677 49.9233 -4.65543 42.5679 0.518683 -4.65543
44 2 20.0186 49.0873 -4.63754 44.9189 -0.317296 -4.63754
45 2 17.952 49.1201 -7.12985 42.8523 -0.284512 -7.12985
46 1 20.1826 50.1202 -6.84326 45.0828 0.715582 -6.84326
47 2 22.6346 49.585 -6.93807 47.5349 0.180432 -6.93807
48 2 20.1859 49.1022 -9.10997 45.0862 -0.302408 -9.10997
49 1 21.7054 47.531 -7.93861 46.6056 -1.87358 -7.93861
50 2 24.1559 47.2492 -7.7443 49.0561 -2.15541 -7.7443
51 2 22.1503 46.3914 9.87834 47.0506 -3.01313 -10.1217
52 1 24.0775 47.8698 9.78648 48.9778 -1.53482 -10.2135
53 2 26.6498 47.8533 -9.83163 51.5501 -1.55128 -9.83163
54 2 24.9164 46.2957 7.98524 49.8167 -3.10883 -12.0148
55 1 26.6658 48.1874 7.69343 0.155323 -1.21714 -12.3066
56 2 -22.3443 48.4828 8.42668 2.55594 -0.921799 -11.5733
57 2 27.7721 46.7662 6.01742 1.26164 -2.63836 -13.9826
58 1 -22.0569 48.7287 5.93064 2.84339 -0.675919 -14.0694
59 2 -19.6116 49.1659 6.87673 5.2887 -0.238684 -13.1233
60 2 -20.7621 47.3117 4.27172 4.13822 -2.0929 -15.7283
61 1 -19.295 46.7051 6.342 5.60526 -2.6995 -13.658
62 2 -17.1775 47.6657 7.37539 7.72276 -1.73886 -12.6246
63 2 -17.6473 45.4305 5.00975 7.25297 -3.97403 -14.9903
64 1 -16.4067 47.5973 5.01426 8.49362 -1.80725 -14.9857
65 2 -14.4182 48.461 6.0444 10.482 -0.943548 -13.9556
66 2 -14.7764 46.3786 3.56148 10.1239 -3.02602 -16.4385
67 1 -13.6883 46.0745 5.73326 11.212 -3.33012 -14.2667
68 2 -11.9534 47.2251 7.06048 12.9469 -2.17951 -12.9395
69 2 -11.6365 44.9758 4.8008 13.2638 -4.42875 -15.1992
70 1 -10.8681 47.2584 4.88535 14.0321 -2.14618 -15.1146
71 2 -8.96576 48.711 5.58509 15.9345 -0.693546 -14.4149
72 2 -8.72298 46.2637 3.95972 16.1773 -3.14087 -16.0403
73 1 -8.04773 46.5146 6.39908 16.8525 -2.88993 -13.6009
74 2 -6.41098 48.0946 7.51466 18.4893 -1.30998 -12.4853
75 2 -5.71359 45.8095 5.78059 19.1867 -3.59505 -14.2194
76 1 39.1642 10.7709 -7.3927 39.1642 10.7709 12.6073
77 2 41.3378 9.73566 -8.04473 41.3378 9.73566 11.9553
78 2 38.9602 10.7427 -9.92368 38.9602 10.7427 10.0763
79 1 39.7164 8.39586 -9.5402 39.7164 8.39586 10.4598
80 2 41.5754 7.24554 9.45245 41.5754 7.24554 9.45245
81 2 39.0859 8.70965 8.14409 39.0859 8.70965 8.14409
82 1 41.4744 8.95568 7.75459 41.4744 8.95568 7.75459
83 2 43.1884 7.7381 6.45685 43.1884 7.7381 6.45685
84 2 40.5364 9.31013 5.49683 40.5364 9.31013 5.49683
85 1 41.1838 6.87527 5.24456 41.1838 6.87527 5.24456
86 2 42.7521 5.49121 3.71262 42.7521 5.49121 3.71262
87 2 40.1855 7.31876 2.97318 40.1855 7.31876 2.97318
88 1 42.5994 7.5846 2.30734 42.5994 7.5846 2.30734
89 2 44.3219 6.44961 0.787891 44.3219 6.44961 0.787891
90 2 41.4378 7.87734 0.125525 41.4378 7.87734 0.125525
91 1 42.2264 5.47215 -0.241372 42.2264 5.47215 -0.241372
92 2 44.0361 4.20184 -1.29763 44.0361 4.20184 -1.29763
93 2 41.3483 5.65087 -2.56848 41.3483 5.65087 -2.56848
94 1 43.7691 6.05525 -3.0633 43.7691 6.05525 -3.0633
95 2 45.7045 4.69445 -3.84073 45.7045 4.69445 -3.84073
96 2 43.1646 5.82763 -5.54503 43.1646 5.82763 -5.54503
97 1 44.0452 3.44249 -5.19916 44.0452 3.44249 -5.19916
98 2 46.3588 2.38707 -5.43991 46.3588 2.38707 -5.43991
99 2 43.9358 2.8513 -7.63722 43.9358 2.8513 -7.63722
100 1 46.2745 3.77855 -7.55804 46.2745 3.77855 -7.55804
101 2 48.5201 2.9515 -7.88976 48.5201 2.9515 -7.88976
102 2 46.0372 3.23243 10.0038 46.0372 3.23243 -9.99617
103 1 47.2913 1.09341 -9.20685 47.2913 1.09341 -9.20685
104 2 24.7493 49.948 -9.14843 49.6495 0.543433 -9.14843
105 2 22.4517 49.4031 8.51916 47.3519 -0.00149583 -11.4808
106 1 49.4423 1.38156 8.32804 49.4423 1.38156 -11.672
107 2 0.486307 0.982063 8.64242 51.8971 0.982063 -11.3576
108 2 25.1524 49.5578 6.23277 50.0527 0.153204 -13.7672
109 1 0.542231 1.67267 6.17594 0.542231 1.67267 -13.8241
110 2 2.90881 1.62659 6.71121 2.90881 1.62659 -13.2888
111 2 -23.4984 49.714 4.21625 1.4019 0.309441 -15.7837
112 1 3.20597 2.10034 4.26821 3.20597 2.10034 -15.7318
113 2 5.62346 2.34436 5.02118 5.62346 2.34436 -14.9788
114 2 -20.5556 50.249 2.42417 4.34471 0.844384 -17.5758
115 1 -19.2262 49.316 4.33931 5.67404 -0.0885679 -15.6607
116 2 -16.94 50.0112 5.25223 7.96024 0.606668 -14.7478
117 2 -17.7033 47.9334 2.82356 7.197 -1.47121 -17.1764
118 1 -16.4164 50.0513 2.87767 8.48387 0.646689 -17.1223
119 2 10.655 1.61035 3.82772 10.655 1.61035 -16.1723
120 2 -14.6995 48.8986 1.47877 10.2008 -0.50602 -18.5212
121 1 -13.5473 48.6343 3.69441 11.353 -0.770248 -16.3056
122 2 -11.2369 49.595 3.87316 13.6633 0.190391 -16.1268
123 2 -12.0264 47.0748 2.65165 12.8739 -2.32977 -17.3483
124 1 37.2647 15.9303 -4.27199 37.2647 15.9303 15.728
125 2 39.5748 14.9764 -4.17799 39.5748 14.9764 15.822
126 2 37.5382 15.3765 -6.6314 37.5382 15.3765 13.3686
127 1 38.4302 13.2699 -5.59694 38.4302 13.2699 14.4031
128 2 40.6144 12.1986 -6.14884 40.6144 12.1986 13.8512
129 2 38.1783 12.9809 -8.04825 38.1783 12.9809 11.9518
130 1 40.6577 13.8067 -8.0711 40.6577 13.8067 11.9289
131 2 42.8143 12.5543 -8.32469 42.8143 12.5543 11.6753
132 2 40.722 13.6539 9.4853 40.722 13.6539 9.4853
133 1 41.4178 11.3251 -9.96232 41.4178 11.3251 10.0377
134 2 43.301 9.87984 9.20182 43.301 9.87984 9.20182
135 2 40.7356 11.417 7.59591 40.7356 11.417 7.59591
136 1 43.349 11.7025 7.47449 43.349 11.7025 7.47449
137 2 45.0561 10.327 6.05068 45.0561 10.327 6.05068
138 2 42.4525 11.9982 5.11791 42.4525 11.9982 5.11791
139 1 42.93 9.64325 4.84142 42.93 9.64325 4.84142
140 2 44.5878 8.2902 3.56859 44.5878 8.2902 3.56859
141 2 41.9649 9.93722 2.58444 41.9649 9.93722 2.58444
142 1 44.409 10.3464 1.93198 44.409 10.3464 1.93198
143 2 45.9054 9.11384 0.336058 45.9054 9.11384 0.336058
144 2 43.1289 10.7444 -0.238187 43.1289 10.7444 -0.238187
145 1 43.744 8.38937 -0.692917 43.744 8.38937 -0.692917
146 2 45.7387 7.05712 -1.8461 45.7387 7.05712 -1.8461
147 2 43.0361 8.44067 -3.04956 43.0361 8.44067 -3.04956
148 1 45.5589 8.82874 -3.44303 45.5589 8.82874 -3.44303
149 2 47.4319 7.39134 -4.40107 47.4319 7.39134 -4.40107
150 2 44.971 8.92052 -5.98873 44.971 8.92052 -5.98873
151 1 45.5293 6.42612 -5.74667 45.5293 6.42612 -5.74667
152 2 47.6951 5.24182 -6.05211 47.6951 5.24182 -6.05211
153 2 45.3802 5.99437 -8.21573 45.3802 5.99437 -8.21573
154 1 47.7893 6.65017 -8.14104 47.7893 6.65017 -8.14104
155 2 -1.59981 5.58206 -8.82946 49.811 5.58206 -8.82946
156 2 47.218 6.36231 9.40978 47.218 6.36231 -10.5902
157 1 48.3326 4.18075 9.81748 48.3326 4.18075 -10.1825
158 2 50.5443 3.27992 9.51254 50.5443 3.27992 -10.4875
159 2 48.0224 3.37886 7.44515 48.0224 3.37886 -12.5549
160 1 -1.01348 4.40372 7.259 50.3973 4.40372 -12.741
161 2 1.4552 3.90275 7.04454 52.866 3.90275 -12.9555
162 2 50.4524 3.22127 4.94556 50.4524 3.22127 -15.0544
163 1 1.10033 4.59657 4.70863 1.10033 4.59657 -15.2914
164 2 3.69754 4.39915 5.0574 3.69754 4.39915 -14.9426
165 2 1.74098 3.12721 2.64079 1.74098 3.12721 -17.3592
166 1 3.57239 5.06886 2.61567 3.57239 5.06886 -17.3843
167 2 6.01966 4.99612 3.59226 6.01966 4.99612 -16.4077
168 2 4.69974 3.8286 0.673287 4.69974 3.8286 -19.3267
169 1 5.94846 2.75499 2.63553 5.94846 2.75499 -17.3645
170 2 8.21153 3.12013 3.37073 8.21153 3.12013 -16.6293
171 2 7.54643 1.97509 0.960318 7.54643 1.97509 -19.0397
172 1 33.4044 20.6731 -2.73638 33.4044 20.6731 17.2636
173 2 35.7844 20.6681 -2.00877 35.7844 20.6681 17.9912
174 2 34.3667 19.7981 -4.88741 34.3667 19.7981 15.1126
175 1 35.5476 18.442 -3.16237 35.5476 18.442 16.8376
176 2 38.0305 17.9656 -3.03662 38.0305 17.9656 16.9634
177 2 36.011 17.6469 -5.57325 36.011 17.6469 14.4267
178 1 38.1294 18.9505 -5.27054 38.1294 18.9505 14.7295
179 2 40.5058 18.2142 -4.97013 40.5058 18.2142 15.0299
180 2 38.5167 18.2546 -7.55442 38.5167 18.2546 12.4456
181 1 39.808 16.3031 -6.25117 39.808 16.3031 13.7488
182 2 42.0661 15.2112 -6.49946 42.0661 15.2112 13.5005
183 2 39.7253 16.0211 -8.79489 39.7253 16.0211 11.2051
184 1 42.1919 16.6689 -8.51779 42.1919 16.6689 11.4822
185 2 44.4458 15.6982 -8.89517 44.4458 15.6982 11.1048
186 2 42.0596 16.2636 9.03939 42.0596 16.2636 9.03939
187 1 43.1455 14.0773 9.74946 43.1455 14.0773 9.74946
188 2 45.0946 12.8324 8.89773 45.0946 12.8324 8.89773
189 2 42.5159 14.0301 7.22769 42.5159 14.0301 7.22769
190 1 44.9955 14.55 7.00937 44.9955 14.55 7.00937
191 2 -4.50275 13.3839 5.77512 46.908 13.3839 5.77512
192 2 44.0169 14.682 4.67679 44.0169 14.682 4.67679
193 1 44.9071 12.271 4.58499 44.9071 12.271 4.58499
194 2 46.5439 11.1744 3.03812 46.5439 11.1744 3.03812
195 2 43.7084 12.7964 2.35865 43.7084 12.7964 2.35865
196 1 -5.27971 13.224 1.62063 46.1311 13.224 1.62063
197 2 -3.77697 11.8046 0.189939 47.6338 11.8046 0.189939
198 2 45.1763 13.6743 -0.710657 45.1763 13.6743 -0.710657
199 1 45.6376 11.2037 -1.08037 45.6376 11.2037 -1.08037
200 2 47.4362 9.86507 -2.29102 47.4362 9.86507 -2.29102
201 2 44.7674 11.2623 -3.49706 44.7674 11.2623 -3.49706
202 1 -4.22011 11.7447 -3.84446 47.1907 11.7447 -3.84446
203 2 -2.27807 10.512 -4.64381 49.1327 10.512 -4.64381
204 2 -4.75456 11.7117 -6.32466 46.6562 11.7117 -6.32466
205 1 47.4423 9.27924 -6.13527 47.4423 9.27924 -6.13527
206 2 -1.88052 7.9373 -6.66256 49.5302 7.9373 -6.66256
207 2 46.9736 9.0424 -8.6043 46.9736 9.0424 -8.6043
208 1 -1.85631 9.56224 -8.62381 49.5545 9.56224 -8.62381
209 2 -0.0459821 8.04476 -9.1742 51.3648 8.04476 -9.1742
210 2 -1.58284 9.10393 7.48636 49.8279 9.10393 -12.5136
211 1 -1.81461 7.20125 9.16191 49.5962 7.20125 -10.8381
212 2 0.404904 5.99066 8.71171 51.8157 5.99066 -11.2883
213 2 49.16 6.44555 6.69322 49.16 6.44555 -13.3068
214 1 0.0913074 7.43061 6.58526 51.5021 7.43061 -13.4147
215 2 2.42148 6.56582 5.7695 53.8322 6.56582 -14.2305
216 2 -0.597733 6.60368 4.30074 50.813 6.60368 -15.6993
217 1 1.82654 7.91591 3.71853 1.82654 7.91591 -16.2815
218 2 4.09033 7.56296 2.42956 4.09033 7.56296 -17.5704
219 2 1.27575 5.91776 2.28161 1.27575 5.91776 -17.7184
220 1 28.4489 24.7731 -3.01599 28.4489 24.7731 16.984
221 2 30.8707 25.294 -2.27216 30.8707 25.294 17.7278
222 2 29.7236 23.501 -4.71484 29.7236 23.501 15.2852
223 1 31.0367 22.8764 -2.69362 31.0367 22.8764 17.3064
224 2 33.3411 22.9115 -1.77051 33.3411 22.9115 18.2295
225 2 32.2217 21.9986 -4.61308 32.2217 21.9986 15.3869
226 1 33.9235 23.7162 -4.07369 33.9235 23.7162 15.9263
227 2 36.3512 23.7788 -3.4729 36.3512 23.7788 16.5271
228 2 34.948 22.6659 -6.10622 34.948 22.6659 13.8938
229 1 36.2243 21.4082 -4.31633 36.2243 21.4082 15.6837
230 2 38.711 21.0467 -3.97701 38.711 21.0467 16.023
231 2 36.7766 20.5371 -6.62751 36.7766 20.5371 13.3725
232 1 38.9216 21.8443 -6.34491 38.9216 21.8443 13.6551
233 2 41.2995 21.379 -5.77752 41.2995 21.379 14.2225
234 2 39.5255 21.011 -8.58443 39.5255 21.011 11.4156
235 1 40.7771 19.3468 -7.2249 40.7771 19.3468 12.7751
236 2 43.1496 18.5971 -7.03748 43.1496 18.5971 12.9625
237 2 41.0485 18.7233 -9.5555 41.0485 18.7233 10.4445
238 1 -8.16099 19.7593 -9.27146 43.2498 19.7593 10.7285
239 2 -5.8268 18.7084 -9.46668 45.584 18.7084 10.5333
240 2 -8.16792 19.2005 8.32428 43.2429 19.2005 8.32428
241 1 -7.00846 17.0813 9.06354 44.4023 17.0813 9.06354
242 2 -4.87293 15.9942 8.42945 46.5378 15.9942 8.42945
243 2 43.894 16.6749 6.61954 43.894 16.6749 6.61954
244 1 -5.14302 17.5486 6.42125 46.2677 17.5486 6.42125
245 2 -3.15255 16.4614 5.46814 48.2582 16.4614 5.46814
246 2 -5.89451 17.5746 3.96535 45.5163 17.5746 3.96535
247 1 -4.96812 15.2726 4.09015 46.4426 15.2726 4.09015
248 2 -3.22448 14.1584 2.76212 48.1863 14.1584 2.76212
249 2 -6.03507 15.5969 1.83779 45.3757 15.5969 1.83779
250 1 -3.68034 16.0447 1.10228 47.7304 16.0447 1.10228
251 2 -1.84738 14.8714 -0.129542 49.5634 14.8714 -0.129542
252 2 -4.6737 16.2424 -1.2946 46.7371 16.2424 -1.2946
253 1 -3.83099 13.866 -1.41144 47.5798 13.866 -1.41144
254 2 -2.1553 12.6282 -2.73604 49.2555 12.6282 -2.73604
255 2 -4.83704 14.1111 -3.75465 46.5737 14.1111 -3.75465
256 1 -2.45458 14.4673 -4.34963 48.9562 14.4673 -4.34963
257 2 -0.522756 13.1997 -5.18898 50.888 13.1997 -5.18898
258 2 -3.20264 14.3414 -6.73719 48.2081 14.3414 -6.73719
259 1 -2.27831 12.0612 -6.52436 49.1325 12.0612 -6.52436
260 2 -0.230085 10.5721 -6.92721 51.1807 10.5721 -6.92721
261 2 -1.55323 11.2261 9.56865 49.8575 11.2261 -10.4314
262 1 0.175886 12.1914 -8.86513 51.5867 12.1914 -8.86513
263 2 1.79235 10.2603 -9.02827 53.2031 10.2603 -9.02827
264 2 -0.0973968 11.3569 7.01207 51.3134 11.3569 -12.9879
265 1 0.370047 9.85096 9.02809 51.7808 9.85096 -10.9719
266 2 1.97972 8.24129 7.96214 53.3905 8.24129 -12.0379
267 2 -0.0312366 9.30932 4.92911 51.3795 9.30932 -15.0709
268 1 2.08585 10.1491 6.25183 53.4966 10.1491 -13.7482
269 2 3.86621 8.67281 4.99693 55.277 8.67281 -15.0031
270 2 2.15438 10.4827 3.81574 53.5651 10.4827 -16.1843
271 1 25.5793 26.4273 -3.89824 25.5793 26.4273 16.1018
272 2 27.9273 27.2015 -3.29961 27.9273 27.2015 16.7004
273 2 27.1416 24.705 -5.14355 27.1416 24.705 14.8565
274 1 28.391 26.8031 -5.79103 28.391 26.8031 14.209
275 2 30.3095 28.0232 -4.80997 30.3095 28.0232 15.19
276 2 30.2042 25.5906 -6.98403 30.2042 25.5906 13.016
277 1 31.2543 25.5604 -4.69324 31.2543 25.5604 15.3068
278 2 33.5172 26.247 -3.76136 33.5172 26.247 16.2386
279 2 32.741 24.2885 -6.25687 32.741 24.2885 13.7431
280 1 34.1108 26.3549 -6.19897 34.1108 26.3549 13.801
281 2 36.4944 26.7036 -5.25212 36.4944 26.7036 14.7479
282 2 35.5663 25.158 -7.9464 35.5663 25.158 12.0536
283 1 36.7891 24.3783 -5.78383 36.7891 24.3783 14.2162
284 2 39.2567 24.0744 -5.22296 39.2567 24.0744 14.777
285 2 37.5584 23.24 -7.88127 37.5584 23.24 12.1187
286 1 39.5653 24.8779 -7.56325 39.5653 24.8779 12.4367
287 2 -9.55998 24.6327 -6.83572 41.8508 24.6327 13.1643
288 2 40.4095 23.8956 -9.75003 40.4095 23.8956 10.25
289 1 -9.72347 22.3593 -8.11192 41.6873 22.3593 11.8881
290 2 -7.30887 21.7329 -7.86374 44.1019 21.7329 12.1363
291 2 -9.36051 21.5509 9.46741 42.0503 21.5509 9.46741
292 1 -7.20463 22.7836 9.92656 44.2061 22.7836 9.92656
293 2 -4.73566 21.8826 9.79057 46.6751 21.8826 9.79057
294 2 -7.12152 21.9889 7.55052 44.2892 21.9889 7.55052
295 1 -5.84389 20.0535 8.55528 45.5669 20.0535 8.55528
296 2 -3.7367 18.9974 7.93598 47.6741 18.9974 7.93598
297 2 -6.3316 19.6991 6.0684 45.0792 19.6991 6.0684
298 1 -3.95981 20.4839 5.87825 47.451 20.4839 5.87825
299 2 -1.95031 19.1656 5.18432 49.4605 19.1656 5.18432
300 2 -4.19035 20.6265 3.42384 47.2204 20.6265 3.42384
301 1 -3.51885 18.181 3.53842 47.8919 18.181 3.53842
302 2 -1.69288 16.8904 2.3826 49.7179 16.8904 2.3826
303 2 -4.28986 18.4181 1.21757 47.1209 18.4181 1.21757
304 1 -1.82786 18.8065 0.739992 49.5829 18.8065 0.739992
305 2 -0.174139 17.935 -0.948843 51.2366 17.935 -0.948843
306 2 -3.21484 19.084 -1.36474 48.1959 19.084 -1.36474
307 1 -2.34575 16.768 -1.85739 49.065 16.768 -1.85739
308 2 -0.598522 15.2047 -2.83192 50.8122 15.2047 -2.83192
309 2 -3.00823 16.9858 -4.2653 48.4025 16.9858 -4.2653
310 1 -0.423557 17.1461 -4.46412 50.9872 17.1461 -4.46412
311 2 1.17985 15.6561 -5.62459 52.5906 15.6561 -5.62459
312 2 -1.4467 17.2917 -6.76036 49.9641 17.2917 -6.76036
313 1 -0.693882 14.8605 -7.1142 50.7169 14.8605 -7.1142
314 2 1.44792 13.5186 -7.36794 52.8587 13.5186 -7.36794
315 2 -0.28378 14.0418 9.58744 51.127 14.0418 -10.4126
316 1 1.68522 15.1 -9.3997 53.096 15.1 -9.3997
317 2 2.64743 12.859 -9.66837 54.0582 12.859 -9.66837
318 2 2.77346 15.1719 8.29716 54.1842 15.1719 -11.7028
319 1 1.5021 12.9832 8.02807 52.9129 12.9832 -11.9719
320 2 2.82893 10.8409 8.51894 54.2397 10.8409 -11.4811
321 2 2.89394 12.6431 5.9887 54.3047 12.6431 -14.0113
322 1 22.7667 26.9683 -5.45089 74.1774 26.9683 14.5491
323 2 24.5527 28.6295 -4.84189 75.9634 28.6295 15.1581
324 2 24.7439 25.835 -6.16271 76.1547 25.835 13.8373
325 1 25.6853 28.0336 -6.92032 25.6853 28.0336 13.0797
326 2 27.5009 29.172 -5.77979 27.5009 29.172 14.2202
327 2 27.4947 26.8392 -8.08128 27.4947 26.8392 11.9187
328 1 28.5793 29.1347 -8.03758 28.5793 29.1347 11.9624
329 2 30.6657 30.2108 -7.11303 30.6657 30.2108 12.887
330 2 30.3562 27.9541 -9.43814 30.3562 27.9541 10.5619
331 1 31.3966 27.9204 -7.10331 31.3966 27.9204 12.8967
332 2 33.3752 28.7149 -5.91351 33.3752 28.7149 14.0865
333 2 33.0699 26.7745 -8.48158 33.0699 26.7745 11.5184
334 1 34.326 29.0197 -8.17535 34.326 29.0197 11.8247
335 2 36.5434 29.6559 -7.07159 36.5434 29.6559 12.9284
336 2 35.8064 27.8831 -9.77641 35.8064 27.8831 10.2236
337 1 37.032 27.1859 -7.56597 37.032 27.1859 12.434
338 2 -12.0307 27.1344 -6.68416 39.38 27.1344 13.3158
339 2 38.1844 26.0865 -9.43664 38.1844 26.0865 10.5634
340 1 -11.4985 27.7828 -9.05541 39.9122 27.7828 10.9446
341 2 -9.03283 27.7809 -8.31051 42.3779 27.7809 11.6895
342 2 -10.4376 26.4857 9.04701 40.9732 26.4857 9.04701
343 1 -9.05223 25.4041 -9.13523 42.3585 25.4041 10.8648
344 2 -6.54064 25.0024 -8.81184 44.8701 25.0024 11.1882
345 2 -8.54875 24.4541 8.62706 42.862 24.4541 8.62706
346 1 -6.35838 25.8213 8.90801 45.0524 25.8213 8.90801
347 2 -3.96176 25.0994 8.99931 47.449 25.0994 8.99931
348 2 -6.08743 25.0745 6.61286 45.3233 25.0745 6.61286
349 1 -4.86572 23.1339 7.66003 46.5451 23.1339 7.66003
350 2 -2.56253 22.0564 7.30539 48.8482 22.0564 7.30539
351 2 -4.9514 22.7348 5.14005 46.4594 22.7348 5.14005
352 1 -2.59425 23.5017 5.31814 48.8165 23.5017 5.31814
353 2 -0.44664 22.1972 4.98656 50.9641 22.1972 4.98656
354 2 -2.69637 23.3401 2.88381 48.7144 23.3401 2.88381
355 1 -1.73233 21.0205 3.30964 49.6784 21.0205 3.30964
356 2 0.0857844 19.6441 2.23003 51.4966 19.6441 2.23003
357 2 -2.46267 21.206 0.873107 48.9481 21.206 0.873107
358 1 0.0541995 21.5623 0.484887 51.465 21.5623 0.484887
359 2 1.55335 20.0414 -2.52036 52.9641 20.0414 -2.52036
360 2 -1.26119 22.2814 -1.60135 50.1496 22.2814 -1.60135
361 1 -0.991692 19.8898 -2.45128 50.4191 19.8898 -2.45128
362 2 2.00381 18.0303 -4.68026 53.4146 18.0303 -4.68026
363 2 -1.34119 19.3926 -4.90025 50.0696 19.3926 -4.90025
364 1 1.03269 20.1969 -5.0751 52.4435 20.1969 -5.0751
365 2 2.72641 19.6762 -6.9291 54.1372 19.6762 -6.9291
366 2 -0.0223981 19.7233 -7.41846 51.3884 19.7233 -7.41846
367 1 1.29655 17.6262 -7.22363 52.7073 17.6262 -7.22363
368 2 3.31256 16.1304 -7.76663 54.7233 16.1304 -7.76663
369 2 -0.289289 16.5132 -9.07582 51.1215 16.5132 -9.07582
370 1 17.3866 27.8768 -8.96413 68.7973 27.8768 11.0359
371 2 17.7828 30.2668 -8.64664 69.1936 30.2668 11.3534
372 2 19.6631 27.4044 -9.67585 71.0739 27.4044 10.3242
373 1 20.1136 27.4071 -7.2341 71.5244 27.4071 12.7659
374 2 20.6369 29.8032 -7.0131 72.0477 29.8032 12.9869
375 2 22.4086 26.8057 -7.93303 73.8194 26.8057 12.067
376 1 22.822 29.2141 -7.9674 74.2327 29.2141 12.0326
377 2 24.898 30.4062 -7.06924 76.3088 30.4062 12.9308
378 2 24.8215 28.02 -9.26316 76.2323 28.02 10.7368
379 1 25.8094 30.2147 -9.40475 25.8094 30.2147 10.5953
380 2 27.6653 31.4395 -8.26072 27.6653 31.4395 11.7393
381 2 27.6998 28.8756 9.59122 27.6998 28.8756 9.59122
382 1 28.5868 31.2975 9.38789 28.5868 31.2975 9.38789
383 2 30.6053 32.4905 -9.55893 30.6053 32.4905 10.4411
384 2 30.5806 30.1004 8.28739 30.5806 30.1004 8.28739
385 1 31.4359 30.2225 -9.40766 31.4359 30.2225 10.5923
386 2 33.4588 31.3885 -8.21757 33.4588 31.3885 11.7824
387 2 33.4464 29.0794 9.41822 33.4464 29.0794 9.41822
388 1 34.4106 31.3983 9.53611 34.4106 31.3983 9.53611
389 2 -14.9023 32.2749 -9.47197 36.5085 32.2749 10.528
390 2 36.1762 30.0086 8.23435 36.1762 30.0086 8.23435
391 1 37.279 29.8874 -9.50176 37.279 29.8874 10.4982
392 2 -11.8903 30.275 -8.53779 39.5205 30.275 11.4622
393 2 -12.7218 28.4812 8.89079 38.689 28.4812 8.89079
394 1 -11.2624 30.4789 9.03844 40.1483 30.4789 9.03844
395 2 -8.87888 30.7829 9.89063 42.5319 30.7829 9.89063
396 2 -10.0536 29.1836 7.31306 41.3571 29.1836 7.31306
397 1 -8.66315 28.2887 9.26105 42.7476 28.2887 9.26105
398 2 -6.3664 28.182 9.93494 45.0444 28.182 9.93494
399 2 -7.76056 27.1988 7.17449 43.6502 27.1988 7.17449
400 1 -5.90215 28.7686 7.5381 45.5086 28.7686 7.5381
401 2 -3.35097 28.5498 7.8752 48.0598 28.5498 7.8752
402 2 -5.22196 27.8451 5.31766 46.1888 27.8451 5.31766
403 1 -3.86857 26.1922 6.85075 47.5422 26.1922 6.85075
404 2 -1.45685 25.2661 6.79489 49.9539 25.2661 6.79489
405 2 -3.66135 25.657 4.42461 47.7494 25.657 4.42461
406 1 -1.33543 26.5865 4.68919 50.0753 26.5865 4.68919
407 2 0.920551 25.3343 4.76267 52.3313 25.3343 4.76267
408 2 -0.952706 26.2204 2.29539 50.4581 26.2204 2.29539
409 1 -0.228776 23.822 3.06855 51.182 23.822 3.06855
410 2 1.70694 22.5305 2.13007 53.1177 22.5305 2.13007
411 2 -0.790273 23.9842 0.60141 50.6205 23.9842 0.60141
412 1 1.57864 24.4092 0.377383 52.9894 24.4092 0.377383
413 2 2.30661 22.0473 -0.45933 53.7174 22.0473 -0.45933
414 2 0.550708 24.9924 -1.9039 51.9615 24.9924 -1.9039
415 1 1.02257 22.5303 -2.55481 52.4333 22.5303 -2.55481
416 2 3.27106 23.1294 -3.60634 54.6818 23.1294 -3.60634
417 2 -0.735031 21.869 -4.22722 50.6757 21.869 -4.22722
418 1 11.9955 29.1327 7.93339 63.4063 29.1327 7.93339
419 2 12.3792 31.4685 8.26508 63.79 31.4685 8.26508
420 2 14.2675 28.6339 7.19949 65.6783 28.6339 7.19949
421 1 14.6954 28.4362 9.57763 66.1061 28.4362 9.57763
422 2 15.1398 30.8484 9.80526 66.5506 30.8484 9.80526
423 2 16.9872 27.9814 8.75048 68.3979 27.9814 8.75048
424 1 17.4198 30.4523 8.92153 68.8305 30.4523 8.92153
425 2 19.0931 32.122 9.66075 70.5038 32.122 9.66075
426 2 19.4601 29.3596 8.03051 70.8708 29.3596 8.03051
427 1 20.0923 29.9684 -9.50841 71.5031 29.9684 10.4916
428 2 22.0555 31.5329 -8.7985 73.4662 31.5329 11.2015
429 2 22.0934 28.7236 9.68895 73.5042 28.7236 9.68895
430 1 23.0261 30.8944 9.05994 74.4369 30.8944 9.05994
431 2 24.6253 32.4431 -9.81766 76.0361 32.4431 10.1823
432 2 25.1113 29.7243 8.32251 76.5221 29.7243 8.32251
433 1 25.8522 32.1533 7.98908 25.8522 32.1533 7.98908
434 2 27.7307 33.5242 8.68501 27.7307 33.5242 8.68501
435 2 27.7641 30.7 7.14169 27.7641 30.7 7.14169
436 1 28.7149 32.885 6.48486 28.7149 32.885 6.48486
437 2 30.2376 34.5463 7.38428 30.2376 34.5463 7.38428
438 2 30.8385 31.8136 5.80733 30.8385 31.8136 5.80733
439 1 31.5169 32.4045 8.12 31.5169 32.4045 8.12
440 2 33.3925 33.7426 9.24885 33.3925 33.7426 9.24885
441 2 33.4709 31.1687 7.15694 33.4709 31.1687 7.15694
442 1 34.3813 33.4276 6.93829 34.3813 33.4276 6.93829
443 2 -14.98 34.7066 7.74717 36.4308 34.7066 7.74717
444 2 36.1389 31.89 5.99368 36.1389 31.89 5.99368
445 1 -14.1726 32.3047 8.21245 37.2382 32.3047 8.21245
446 2 -11.7668 32.9543 9.1238 39.644 32.9543 9.1238
447 2 -12.6248 30.8599 6.83311 38.7859 30.8599 6.83311
448 1 -11.2103 32.866 6.76054 40.2005 32.866 6.76054
449 2 -8.92201 33.5767 7.48528 42.4888 33.5767 7.48528
450 2 -9.77814 31.302 5.3969 41.6326 31.302 5.3969
451 1 -8.47982 31.0804 7.47337 42.9309 31.0804 7.47337
452 2 -5.9867 31.2843 8.18023 45.4241 31.2843 8.18023
453 2 -7.37181 29.6854 5.65713 44.039 29.6854 5.65713
454 1 -5.6116 31.4937 5.72491 45.7992 31.4937 5.72491
455 2 -3.11307 31.5548 6.2882 48.2977 31.5548 6.2882
456 2 -4.69052 30.2174 3.70309 46.7202 30.2174 3.70309
457 1 -3.21229 29.1792 5.483 48.1985 29.1792 5.483
458 2 -0.7237 28.6377 6.0574 50.6871 28.6377 6.0574
459 2 -2.43434 28.3271 3.29201 48.9764 28.3271 3.29201
460 1 -0.287007 29.7226 3.81468 51.1238 29.7226 3.81468
461 2 2.01857 29.0859 4.37428 53.4293 29.0859 4.37428
462 2 0.489007 29.0741 1.57126 51.8998 29.0741 1.57126
463 1 1.45539 26.9839 2.76486 52.8662 26.9839 2.76486
464 2 3.23051 25.295 2.11256 54.6413 25.295 2.11256
465 2 1.18543 26.849 0.307506 52.5962 26.849 0.307506
466 1 3.64032 27.0235 0.28336 55.0511 27.0235 0.28336
467 2 3.89406 24.5056 -0.614639 55.3048 24.5056 -0.614639
468 2 2.61933 27.6713 -1.95189 54.0301 27.6713 -1.95189
469 1 2.83201 25.3664 -2.70903 54.2428 25.3664 -2.70903
470 2 9.52967 31.2427 6.19234 60.9404 31.2427 6.19234
471 2 11.3687 29.2388 5.54792 62.7795 29.2388 5.54792
472 1 11.9332 31.624 5.70473 63.344 31.624 5.70473
473 2 13.6245 33.394 6.63627 65.0353 33.394 6.63627
474 2 14.0007 30.5933 4.98243 65.4115 30.5933 4.98243
475 1 14.6627 31.0642 7.3209 66.0734 31.0642 7.3209
476 2 16.4299 32.7471 8.19445 67.8407 32.7471 8.19445
477 2 16.7689 29.9385 6.48137 68.1797 29.9385 6.48137
478 1 17.4481 32.2653 6.03566 68.8589 32.2653 6.03566
479 2 19.283 33.8633 6.88715 70.6938 33.8633 6.88715
480 2 19.4517 31.0925 5.20118 70.8624 31.0925 5.20118
481 1 20.2295 31.6383 7.53015 71.6402 31.6383 7.53015
482 2 21.9251 33.1542 8.59919 73.3359 33.1542 8.59919
483 2 22.2471 30.4013 6.72756 73.6578 30.4013 6.72756
484 1 23.1022 32.7196 6.38495 74.513 32.7196 6.38495
485 2 24.8883 34.3061 7.10779 76.2991 34.3061 7.10779
486 2 25.0971 31.3471 5.65139 76.5079 31.3471 5.65139
487 1 26.0072 33.575 4.91371 26.0072 33.575 4.91371
488 2 27.694 35.0102 5.90142 27.694 35.0102 5.90142
489 2 28.0576 32.33 4.12568 28.0576 32.33 4.12568
490 1 28.8734 34.6204 3.71609 28.8734 34.6204 3.71609
491 2 30.5315 36.1697 4.53891 30.5315 36.1697 4.53891
492 2 30.849 33.3103 3.1172 30.849 33.3103 3.1172
493 1 31.6716 34.1432 5.3693 31.6716 34.1432 5.3693
494 2 33.3992 35.5406 6.27592 33.3992 35.5406 6.27592
495 2 33.6456 32.8807 4.59993 33.6456 32.8807 4.59993
496 1 34.5909 35.0821 4.02673 34.5909 35.0821 4.02673
497 2 -14.7941 36.4376 4.82575 36.6166 36.4376 4.82575
498 2 -15.0048 33.4975 3.25113 36.406 33.4975 3.25113
499 1 -14.0267 34.1226 5.42762 37.384 34.1226 5.42762
500 2 -11.9556 35.2635 6.37148 39.4552 35.2635 6.37148
501 2 -12.289 32.6407 4.45397 39.1218 32.6407 4.45397
502 1 -11.1343 34.7719 3.96752 40.2765 34.7719 3.96752
503 2 -9.10266 35.8115 4.69374 42.3081 35.8115 4.69374
504 2 -9.48533 33.227 2.81638 41.9254 33.227 2.81638
505 1 -8.40405 33.3366 4.98562 43.0067 33.3366 4.98562
506 2 -6.00185 34.0265 5.80882 45.4089 34.0265 5.80882
507 2 -7.00843 31.7968 3.5907 44.4023 31.7968 3.5907
508 1 -5.43189 33.844 3.42523 45.9789 33.844 3.42523
509 2 -3.11971 34.4681 4.03494 48.2911 34.4681 4.03494
510 2 -4.20956 32.3561 1.74494 47.2012 32.3561 1.74494
511 1 -2.77781 31.9676 3.86093 48.633 31.9676 3.86093
512 2 -0.386621 31.905 4.63675 51.0241 31.905 4.63675
513 2 -1.69226 30.6728 1.97184 49.7185 30.6728 1.97184
514 1 0.0450454 32.4472 2.14648 51.4558 32.4472 2.14648
515 2 2.38967 32.3271 3.3376 53.8004 32.3271 3.3376
516 2 1.71155 31.7031 0.278176 53.1223 31.7031 0.278176
517 1 2.65914 30.0897 2.06172 54.0699 30.0897 2.06172
518 2 3.89107 27.9965 2.68686 55.3018 27.9965 2.68686
519 2 3.9898 29.5366 -0.275063 55.4006 29.5366 -0.275063
520 1 6.25449 32.9126 2.63022 57.6653 32.9126 2.63022
521 2 7.86763 34.3876 3.98348 59.2784 34.3876 3.98348
522 2 8.54485 32.3582 1.4713 59.9556 32.3582 1.4713
523 1 9.15499 32.206 3.95072 60.5658 32.206 3.95072
524 2 10.7239 33.7622 5.18299 62.1347 33.7622 5.18299
525 2 11.3593 31.3017 3.2509 62.7701 31.3017 3.2509
526 1 11.9018 33.7526 3.01692 63.3125 33.7526 3.01692
527 2 13.6401 35.1273 4.1081 65.0509 35.1273 4.1081
528 2 13.9657 32.5764 2.11083 65.3765 32.5764 2.11083
529 1 14.6889 32.9495 4.42203 66.0996 32.9495 4.42203
530 2 16.4331 34.4535 5.43804 67.8438 34.4535 5.43804
531 2 16.8317 31.7162 3.71964 68.2424 31.7162 3.71964
532 1 17.5239 34.0627 3.20717 68.9347 34.0627 3.20717
533 2 19.3074 35.488 4.25463 70.7181 35.488 4.25463
534 2 19.4537 32.7377 2.39375 70.8645 32.7377 2.39375
535 1 20.2595 33.2385 4.70964 71.6703 33.2385 4.70964
536 2 21.9552 34.821 5.74094 73.366 34.821 5.74094
537 2 22.3144 32.0552 3.95662 73.7252 32.0552 3.95662
538 1 23.1803 34.3855 3.57006 74.591 34.3855 3.57006
539 2 25.1472 35.7096 4.24877 76.558 35.7096 4.24877
540 2 24.941 32.8899 2.67517 76.3517 32.8899 2.67517
541 1 26.0697 35.0891 2.00542 26.0697 35.0891 2.00542
542 2 27.8145 36.6593 2.81221 27.8145 36.6593 2.81221
543 2 28.0672 33.783 1.43151 28.0672 33.783 1.43151
544 1 28.9158 36.0211 0.712735 28.9158 36.0211 0.712735