ITEM: TIMESTEP
2480000
ITEM: NUMBER OF ATOMS
810
ITEM: BOX BOUNDS xy xz yz pp pp pp
8.0341777045796159e-01 6.4466521826266558e+01 1.2252334596724062e+01
8.0582000660415243e-01 5.0210394993394715e+01 0.0000000000000000e+00
-1.0000000000000000e+01 1.0000000000000000e+01 0.0000000000000000e+00
ITEM: ATOMS id type x y z xu yu zu
1 1 13.6914 50.1255 2.53208 1.43902 0.720952 2.53208
2 2 16.0809 49.4641 3.22429 3.82852 0.0594988 3.22429
3 2 2.88422 1.34442 0.462686 2.88422 1.34442 0.462686
4 1 4.61539 2.31778 2.02386 4.61539 2.31778 2.02386
5 2 7.06666 1.61852 2.80975 7.06666 1.61852 2.80975
6 2 6.09443 3.08064 0.0295594 6.09443 3.08064 0.0295594
7 1 6.89206 0.765564 0.532862 6.89206 0.765564 0.532862
8 2 21.6025 49.5757 1.03927 9.35017 0.171161 1.03927
9 2 8.02001 1.71717 -1.46802 8.02001 1.71717 -1.46802
10 1 10.0407 2.56525 -0.0565391 10.0407 2.56525 -0.0565391
11 2 12.4547 1.99499 0.513386 12.4547 1.99499 0.513386
12 2 11.2465 3.38789 -2.20228 11.2465 3.38789 -2.20228
13 1 12.3683 1.19229 -1.82302 12.3683 1.19229 -1.82302
14 2 26.9321 50.2143 -0.820486 14.6798 0.809762 -0.820486
15 2 13.8842 1.59392 -3.76403 13.8842 1.59392 -3.76403
16 1 15.679 2.82765 -2.31991 15.679 2.82765 -2.31991
17 2 17.9661 2.52279 -1.19619 17.9661 2.52279 -1.19619
18 2 17.2674 3.17499 -4.28425 17.2674 3.17499 -4.28425
19 1 18.1396 1.07514 -3.26202 18.1396 1.07514 -3.26202
20 2 20.241 1.06989 -1.90756 20.241 1.06989 -1.90756
21 2 19.8977 0.994457 -5.0877 19.8977 0.994457 -5.0877
22 1 21.4102 2.67666 -3.58386 21.4102 2.67666 -3.58386
23 2 23.3737 2.81918 -1.8995 23.3737 2.81918 -1.8995
24 2 23.383 2.52934 -5.19027 23.383 2.52934 -5.19027
25 1 24.1617 0.936673 -3.38306 24.1617 0.936673 -3.38306
26 2 25.8291 1.56333 -1.43318 25.8291 1.56333 -1.43318
27 2 38.6445 49.6976 -4.53173 26.3922 0.29307 -4.53173
28 1 27.5011 2.50771 -3.23023 27.5011 2.50771 -3.23023
29 2 28.8896 3.10106 -1.18778 28.8896 3.10106 -1.18778
30 2 29.9128 1.88786 -3.95393 29.9128 1.88786 -3.95393
31 1 42.12 50.255 -1.76056 29.8677 0.850419 -1.76056
32 2 31.3526 1.89045 0.121449 31.3526 1.89045 0.121449
33 2 44.4984 49.4936 -2.32431 32.2461 0.0890003 -2.32431
34 1 33.1981 2.4637 -1.52207 33.1981 2.4637 -1.52207
35 2 34.1602 3.4412 0.687021 34.1602 3.4412 0.687021
36 2 35.654 1.73878 -1.88236 35.654 1.73878 -1.88236
37 1 35.3159 1.13774 0.554752 35.3159 1.13774 0.554752
38 2 36.5414 1.85298 2.64924 36.5414 1.85298 2.64924
39 2 49.961 50.0612 -0.207887 37.7087 0.656612 -0.207887
40 1 38.4905 2.84548 1.07067 38.4905 2.84548 1.07067
41 2 40.002 3.58426 3.06808 40.002 3.58426 3.06808
42 2 40.8524 2.34763 0.209207 40.8524 2.34763 0.209207
43 1 40.877 1.21833 2.63667 40.877 1.21833 2.63667
44 2 42.727 1.43093 4.42554 42.727 1.43093 4.42554
45 2 43.1166 0.951562 1.15005 43.1166 0.951562 1.15005
46 1 44.1836 2.88924 2.69054 44.1836 2.88924 2.69054
47 2 46.1157 2.95445 4.47977 46.1157 2.95445 4.47977
48 2 46.3942 2.58126 1.19445 46.3942 2.58126 1.19445
49 1 46.9225 0.993191 3.17689 46.9225 0.993191 3.17689
50 2 61.2932 50.1749 4.48393 49.0409 0.770338 4.48393
51 2 48.7836 1.31415 1.41437 48.7836 1.31415 1.41437
52 1 50.2818 2.67885 3.08039 50.2818 2.67885 3.08039
53 2 52.3348 2.23731 4.50529 52.3348 2.23731 4.50529
54 2 52.0499 2.80269 1.31627 52.0499 2.80269 1.31627
55 1 2.1351 4.12845 3.06861 2.1351 4.12845 3.06861
56 2 4.38012 3.57649 4.17882 4.38012 3.57649 4.17882
57 2 3.77642 4.49946 1.1785 3.77642 4.49946 1.1785
58 1 5.35382 5.74428 2.92471 5.35382 5.74428 2.92471
59 2 7.63935 5.40715 4.08962 7.63935 5.40715 4.08962
60 2 7.11501 6.28926 0.986086 7.11501 6.28926 0.986086
61 1 7.97541 4.05975 1.89764 7.97541 4.05975 1.89764
62 2 10.4338 3.31244 2.3657 10.4338 3.31244 2.3657
63 2 9.09321 4.79514 -0.257812 9.09321 4.79514 -0.257812
64 1 11.0979 5.66366 1.32136 11.0979 5.66366 1.32136
65 2 13.4555 4.90489 1.81769 13.4555 4.90489 1.81769
66 2 12.3854 6.52293 -0.798742 12.3854 6.52293 -0.798742
67 1 13.3117 4.29137 -0.637417 13.3117 4.29137 -0.637417
68 2 15.6885 3.78703 -0.0215146 15.6885 3.78703 -0.0215146
69 2 14.6262 5.09907 -2.79112 14.6262 5.09907 -2.79112
70 1 16.5377 6.08514 -1.1854 16.5377 6.08514 -1.1854
71 2 18.8902 5.38891 -0.387511 18.8902 5.38891 -0.387511
72 2 17.8786 6.74685 -3.17623 17.8786 6.74685 -3.17623
73 1 18.8389 4.47052 -2.67206 18.8389 4.47052 -2.67206
74 2 21.0347 4.1769 -1.64911 21.0347 4.1769 -1.64911
75 2 20.3125 4.82136 -4.69778 20.3125 4.82136 -4.69778
76 1 22.0884 6.24086 -3.24238 22.0884 6.24086 -3.24238
77 2 24.2021 5.98913 -1.91027 24.2021 5.98913 -1.91027
78 2 23.8688 6.32927 -4.99518 23.8688 6.32927 -4.99518
79 1 24.7349 4.27742 -3.72518 24.7349 4.27742 -3.72518
80 2 26.4506 4.44659 -1.94827 26.4506 4.44659 -1.94827
81 2 26.965 4.10476 -5.12155 26.965 4.10476 -5.12155
82 1 28.1935 5.9113 -3.64155 28.1935 5.9113 -3.64155
83 2 29.9937 6.35268 -1.75694 29.9937 6.35268 -1.75694
84 2 30.3113 5.43757 -4.90581 30.3113 5.43757 -4.90581
85 1 30.653 4.10323 -2.81539 30.653 4.10323 -2.81539
86 2 32.1854 4.67121 -0.86268 32.1854 4.67121 -0.86268
87 2 32.9568 3.45205 -3.8308 32.9568 3.45205 -3.8308
88 1 33.9894 5.68391 -2.60449 33.9894 5.68391 -2.60449
89 2 35.2197 6.46564 -0.571901 35.2197 6.46564 -0.571901
90 2 36.4338 5.01852 -3.19181 36.4338 5.01852 -3.19181
91 1 36.2388 4.1721 -0.755447 36.2388 4.1721 -0.755447
92 2 37.5041 5.18999 1.25726 37.5041 5.18999 1.25726
93 2 38.7569 3.57615 -1.31775 38.7569 3.57615 -1.31775
94 1 39.43 5.91289 -0.426714 39.43 5.91289 -0.426714
95 2 40.71 6.67663 1.78991 40.71 6.67663 1.78991
96 2 41.9682 5.46596 -1.00428 41.9682 5.46596 -1.00428
97 1 41.7688 4.48347 1.40793 41.7688 4.48347 1.40793
98 2 43.3415 5.15646 3.34655 43.3415 5.15646 3.34655
99 2 44.0736 3.97206 0.423288 44.0736 3.97206 0.423288
100 1 44.9866 6.1249 1.60802 44.9866 6.1249 1.60802
101 2 46.3862 6.65389 3.50704 46.3862 6.65389 3.50704
102 2 47.2828 5.68783 0.545451 47.2828 5.68783 0.545451
103 1 47.5257 4.41603 2.77133 47.5257 4.41603 2.77133
104 2 49.329 4.53112 4.54731 49.329 4.53112 4.54731
105 2 49.6185 4.36938 1.29748 49.6185 4.36938 1.29748
106 1 50.8447 6.10034 2.95114 50.8447 6.10034 2.95114
107 2 52.6917 6.04179 4.59067 52.6917 6.04179 4.59067
108 2 52.8261 6.11988 1.45338 52.8261 6.11988 1.45338
109 1 2.60647 7.72061 3.10304 2.60647 7.72061 3.10304
110 2 4.62057 7.49932 4.70724 4.62057 7.49932 4.70724
111 2 4.63185 7.66629 1.49174 4.63185 7.66629 1.49174
112 1 5.86066 9.18851 3.23852 5.86066 9.18851 3.23852
113 2 8.01548 8.71791 4.75045 8.01548 8.71791 4.75045
114 2 7.91076 9.4688 1.56007 7.91076 9.4688 1.56007
115 1 8.68506 7.32097 2.75011 8.68506 7.32097 2.75011
116 2 10.9485 6.61184 3.67294 10.9485 6.61184 3.67294
117 2 10.1925 7.91077 0.683801 10.1925 7.91077 0.683801
118 1 11.9207 8.76449 2.44649 11.9207 8.76449 2.44649
119 2 14.2889 8.1986 3.26684 14.2889 8.1986 3.26684
120 2 13.3736 9.59191 0.470995 13.3736 9.59191 0.470995
121 1 14.4193 7.34048 0.808474 14.4193 7.34048 0.808474
122 2 16.8214 6.77496 1.38655 16.8214 6.77496 1.38655
123 2 15.5502 8.41375 -1.21966 15.5502 8.41375 -1.21966
124 1 17.5949 9.11363 0.433787 17.5949 9.11363 0.433787
125 2 20.0864 8.42475 0.830478 20.0864 8.42475 0.830478
126 2 18.7983 9.93056 -1.75436 18.7983 9.93056 -1.75436
127 1 19.6728 7.64617 -1.56332 19.6728 7.64617 -1.56332
128 2 22.0338 7.24656 -0.901435 22.0338 7.24656 -0.901435
129 2 20.9763 8.58379 -3.59087 20.9763 8.58379 -3.59087
130 1 23.0552 9.46409 -2.02811 23.0552 9.46409 -2.02811
131 2 25.4387 9.12278 -1.08449 25.4387 9.12278 -1.08449
132 2 24.4871 9.90485 -4.05595 24.4871 9.90485 -4.05595
133 1 25.5596 7.83252 -3.38734 25.5596 7.83252 -3.38734
134 2 27.597 7.68971 -1.96506 27.597 7.68971 -1.96506
135 2 27.3422 7.79012 -5.23543 27.3422 7.79012 -5.23543
136 1 28.8547 9.54142 -3.57544 28.8547 9.54142 -3.57544
137 2 30.8884 9.3023 -1.92766 30.8884 9.3023 -1.92766
138 2 30.7197 9.36963 -5.21297 30.7197 9.36963 -5.21297
139 1 31.4652 7.48516 -3.60535 31.4652 7.48516 -3.60535
140 2 33.1536 7.90333 -1.76975 33.1536 7.90333 -1.76975
141 2 33.7135 7.0238 -4.73548 33.7135 7.0238 -4.73548
142 1 34.7493 9.02845 -3.36287 34.7493 9.02845 -3.36287
143 2 36.1958 9.47674 -1.3347 36.1958 9.47674 -1.3347
144 2 36.976 8.67436 -4.3032 36.976 8.67436 -4.3032
145 1 37.2269 7.26919 -2.13647 37.2269 7.26919 -2.13647
146 2 38.5602 8.15961 -0.138044 38.5602 8.15961 -0.138044
147 2 39.6045 6.63405 -2.75415 39.6045 6.63405 -2.75415
148 1 40.4467 8.98205 -1.82728 40.4467 8.98205 -1.82728
149 2 41.6937 10.0251 0.223413 41.6937 10.0251 0.223413
150 2 42.8575 8.32146 -2.35503 42.8575 8.32146 -2.35503
151 1 42.6353 7.68282 0.133244 42.6353 7.68282 0.133244
152 2 44.05 8.36542 2.15823 44.05 8.36542 2.15823
153 2 44.9975 7.02023 -0.715681 44.9975 7.02023 -0.715681
154 1 45.9108 9.25437 0.399619 45.9108 9.25437 0.399619
155 2 47.2517 10.0114 2.43266 47.2517 10.0114 2.43266
156 2 48.3194 8.82004 -0.345759 48.3194 8.82004 -0.345759
157 1 48.2829 7.74188 1.89806 48.2829 7.74188 1.89806
158 2 49.7251 8.12761 3.93538 49.7251 8.12761 3.93538
159 2 50.5135 7.4303 0.836576 50.5135 7.4303 0.836576
160 1 51.4224 9.39902 2.33879 51.4224 9.39902 2.33879
161 2 53.1664 9.6865 4.3139 53.1664 9.6865 4.3139
162 2 53.671 9.12839 1.05777 53.671 9.12839 1.05777
163 1 3.25897 10.925 2.71389 3.25897 10.925 2.71389
164 2 5.03719 11.0904 4.67512 5.03719 11.0904 4.67512
165 2 5.5509 10.7302 1.36203 5.5509 10.7302 1.36203
166 1 6.60444 12.5888 3.01151 6.60444 12.5888 3.01151
167 2 8.38651 12.6512 4.81996 8.38651 12.6512 4.81996
168 2 8.71213 12.4903 1.64298 8.71213 12.4903 1.64298
169 1 9.39195 10.7245 3.40865 9.39195 10.7245 3.40865
170 2 11.6116 10.2585 4.43966 11.6116 10.2585 4.43966
171 2 11.1113 10.9841 1.55779 11.1113 10.9841 1.55779
172 1 12.7374 12.2886 3.20222 12.7374 12.2886 3.20222
173 2 14.9881 11.865 4.35317 14.9881 11.865 4.35317
174 2 14.4072 12.7824 1.3274 14.4072 12.7824 1.3274
175 1 15.2566 10.6235 2.20127 15.2566 10.6235 2.20127
176 2 17.6346 9.95042 2.7835 17.6346 9.95042 2.7835
177 2 16.7189 11.5099 0.143512 16.7189 11.5099 0.143512
178 1 18.5642 12.1859 1.74857 18.5642 12.1859 1.74857
179 2 20.9502 11.6646 2.20892 20.9502 11.6646 2.20892
180 2 19.6547 13.0992 -0.399138 19.6547 13.0992 -0.399138
181 1 20.7666 10.764 -0.185167 20.7666 10.764 -0.185167
182 2 23.1238 10.2046 0.322683 23.1238 10.2046 0.322683
183 2 21.9181 11.6435 -2.31952 21.9181 11.6435 -2.31952
184 1 23.7869 12.5747 -0.845845 23.7869 12.5747 -0.845845
185 2 26.2722 12.0185 -0.0891909 26.2722 12.0185 -0.0891909
186 2 25.3967 13.4282 -2.80444 25.3967 13.4282 -2.80444
187 1 26.2875 11.1194 -2.47518 26.2875 11.1194 -2.47518
188 2 28.4637 10.7299 -1.33863 28.4637 10.7299 -1.33863
189 2 27.7558 11.6502 -4.38612 27.7558 11.6502 -4.38612
190 1 29.4729 12.8445 -2.66896 29.4729 12.8445 -2.66896
191 2 31.7981 12.5851 -1.53267 31.7981 12.5851 -1.53267
192 2 31.1284 12.9766 -4.67635 31.1284 12.9766 -4.67635
193 1 32.1208 10.9701 -3.4718 32.1208 10.9701 -3.4718
194 2 34.0022 11.0903 -1.94004 34.0022 11.0903 -1.94004
195 2 34.0341 10.6213 -5.11432 34.0341 10.6213 -5.11432
196 1 35.3408 12.6238 -3.56717 35.3408 12.6238 -3.56717
197 2 37.3781 12.8547 -1.67688 37.3781 12.8547 -1.67688
198 2 37.5447 12.2187 -4.93433 37.5447 12.2187 -4.93433
199 1 37.959 10.7316 -2.94483 37.959 10.7316 -2.94483
200 2 39.6522 11.3658 -1.09759 39.6522 11.3658 -1.09759
201 2 40.2489 10.2518 -4.02238 40.2489 10.2518 -4.02238
202 1 41.2989 12.3026 -2.82801 41.2989 12.3026 -2.82801
203 2 42.9161 12.9266 -0.83518 42.9161 12.9266 -0.83518
204 2 43.4767 11.7558 -3.76838 43.4767 11.7558 -3.76838
205 1 43.7434 10.6369 -1.52193 43.7434 10.6369 -1.52193
206 2 45.0752 11.6009 0.522058 45.0752 11.6009 0.522058
207 2 46.1 10.0511 -2.05447 46.1 10.0511 -2.05447
208 1 46.9137 12.3182 -1.13381 46.9137 12.3182 -1.13381
209 2 48.071 13.2945 0.849007 48.071 13.2945 0.849007
210 2 49.2792 11.6338 -1.61748 49.2792 11.6338 -1.61748
211 1 48.9973 10.9909 0.828506 48.9973 10.9909 0.828506
212 2 50.3554 11.712 2.80063 50.3554 11.712 2.80063
213 2 51.2725 10.4484 0.0195234 51.2725 10.4484 0.0195234
214 1 52.2965 12.6332 1.21181 52.2965 12.6332 1.21181
215 2 53.6737 13.2824 3.28948 53.6737 13.2824 3.28948
216 2 54.6229 12.1917 0.458412 54.6229 12.1917 0.458412
217 1 4.18872 14.2968 1.62546 4.18872 14.2968 1.62546
218 2 5.46208 14.7035 3.76009 5.46208 14.7035 3.76009
219 2 6.5855 14.0118 0.902249 6.5855 14.0118 0.902249
220 1 7.4048 16.0658 2.42383 7.4048 16.0658 2.42383
221 2 9.09872 16.426 4.38616 9.09872 16.426 4.38616
222 2 9.70578 15.6561 1.14759 9.70578 15.6561 1.14759
223 1 9.98663 14.2305 3.25265 9.98663 14.2305 3.25265
224 2 12.0093 14.0974 4.88151 12.0093 14.0974 4.88151
225 2 12.0036 14.1254 1.7093 12.0036 14.1254 1.7093
226 1 13.3259 15.8596 3.29009 13.3259 15.8596 3.29009
227 2 15.433 15.7473 4.73864 15.433 15.7473 4.73864
228 2 15.2739 15.9256 1.62765 15.2739 15.9256 1.62765
229 1 16.0634 13.8814 3.08451 16.0634 13.8814 3.08451
230 2 18.3542 13.282 4.06973 18.3542 13.282 4.06973
231 2 17.7011 14.356 1.12674 17.7011 14.356 1.12674
232 1 19.2866 15.501 2.72145 19.2866 15.501 2.72145
233 2 21.7853 14.8383 3.46143 21.7853 14.8383 3.46143
234 2 20.9294 16.2808 0.752393 20.9294 16.2808 0.752393
235 1 21.6808 13.9494 1.21951 21.6808 13.9494 1.21951
236 2 24.1126 13.3058 1.58676 24.1126 13.3058 1.58676
237 2 22.885 14.9504 -0.873335 22.885 14.9504 -0.873335
238 1 24.9223 15.6487 0.661525 24.9223 15.6487 0.661525
239 2 27.5085 15.1632 1.09292 27.5085 15.1632 1.09292
240 2 26.1152 16.536 -1.30758 26.1152 16.536 -1.30758
241 1 27.2288 14.3691 -1.17435 27.2288 14.3691 -1.17435
242 2 29.5879 13.889 -0.341994 29.5879 13.889 -0.341994
243 2 28.5013 15.0579 -3.26623 28.5013 15.0579 -3.26623
244 1 30.4138 16.172 -1.64775 30.4138 16.172 -1.64775
245 2 32.7024 15.6157 -0.788529 32.7024 15.6157 -0.788529
246 2 31.7686 16.6923 -3.70695 31.7686 16.6923 -3.70695
247 1 32.8267 14.4797 -3.1074 32.8267 14.4797 -3.1074
248 2 35.047 14.3679 -1.7147 35.047 14.3679 -1.7147
249 2 34.5338 14.7008 -4.96269 34.5338 14.7008 -4.96269
250 1 36.06 16.1868 -3.29437 36.06 16.1868 -3.29437
251 2 38.3391 15.977 -1.7915 38.3391 15.977 -1.7915
252 2 37.9305 16.0191 -4.95225 37.9305 16.0191 -4.95225
253 1 38.7237 14.1268 -3.41891 38.7237 14.1268 -3.41891
254 2 40.6132 14.4872 -1.7928 40.6132 14.4872 -1.7928
255 2 40.7794 13.6866 -4.82749 40.7794 13.6866 -4.82749
256 1 41.9739 15.6727 -3.54739 41.9739 15.6727 -3.54739
257 2 43.6947 16.1102 -1.65571 43.6947 16.1102 -1.65571
258 2 44.2386 15.4492 -4.74877 44.2386 15.4492 -4.74877
259 1 44.4949 13.9359 -2.68772 44.4949 13.9359 -2.68772
260 2 45.9486 14.6613 -0.654492 45.9486 14.6613 -0.654492
261 2 46.8014 13.289 -3.44909 46.8014 13.289 -3.44909
262 1 47.8163 15.4859 -2.28368 47.8163 15.4859 -2.28368
263 2 49.2649 16.306 -0.307018 49.2649 16.306 -0.307018
264 2 50.1749 14.8593 -3.06578 50.1749 14.8593 -3.06578
265 1 50.1023 13.9531 -0.757228 50.1023 13.9531 -0.757228
266 2 51.3082 14.9013 1.39273 51.3082 14.9013 1.39273
267 2 52.6042 13.4113 -1.16116 52.6042 13.4113 -1.16116
268 1 53.3565 15.7941 -0.12409 53.3565 15.7941 -0.12409
269 2 54.7239 16.6104 1.91513 54.7239 16.6104 1.91513
270 2 55.7843 15.1648 -0.820439 55.7843 15.1648 -0.820439
271 1 5.19239 17.4259 0.268974 5.19239 17.4259 0.268974
272 2 6.27913 18.3676 2.40198 6.27913 18.3676 2.40198
273 2 7.56548 16.8147 -0.160973 7.56548 16.8147 -0.160973
274 1 8.39671 19.1973 0.857276 8.39671 19.1973 0.857276
275 2 9.71884 19.955 2.93361 9.71884 19.955 2.93361
276 2 10.6707 18.646 0.217655 10.6707 18.646 0.217655
277 1 10.6971 17.6835 2.52174 10.6971 17.6835 2.52174
278 2 12.4963 17.9106 4.50099 12.4963 17.9106 4.50099
279 2 12.943 17.4367 1.27116 12.943 17.4367 1.27116
280 1 14.1092 19.3155 2.70646 14.1092 19.3155 2.70646
281 2 15.7366 19.3469 4.5857 15.7366 19.3469 4.5857
282 2 16.2733 19.1084 1.4244 16.2733 19.1084 1.4244
283 1 16.6998 17.4385 3.25141 16.6998 17.4385 3.25141
284 2 18.7367 17.0125 4.59823 18.7367 17.0125 4.59823
285 2 18.5929 17.623 1.50841 18.5929 17.623 1.50841
286 1 19.9896 18.8682 3.33837 19.9896 18.8682 3.33837
287 2 22.2887 18.3391 4.53718 22.2887 18.3391 4.53718
288 2 21.7973 19.3057 1.48567 21.7973 19.3057 1.48567
289 1 22.6813 17.1399 2.43262 22.6813 17.1399 2.43262
290 2 25.174 16.5982 2.99038 25.174 16.5982 2.99038
291 2 24.0213 17.9305 0.298468 24.0213 17.9305 0.298468
292 1 25.9148 18.8741 1.91319 25.9148 18.8741 1.91319
293 2 28.3681 18.3039 2.43278 28.3681 18.3039 2.43278
294 2 27.235 19.7319 -0.170346 27.235 19.7319 -0.170346
295 1 28.1763 17.4959 0.0900793 28.1763 17.4959 0.0900793
296 2 30.5246 17.0495 0.79997 30.5246 17.0495 0.79997
297 2 29.4898 18.4804 -1.89316 29.4898 18.4804 -1.89316
298 1 31.3908 19.2775 -0.20731 31.3908 19.2775 -0.20731
299 2 33.7246 18.5611 0.403154 33.7246 18.5611 0.403154
300 2 32.6051 20.0442 -2.301 32.6051 20.0442 -2.301
301 1 33.5653 17.7539 -2.04708 33.5653 17.7539 -2.04708
302 2 35.893 17.5516 -1.15285 35.893 17.5516 -1.15285
303 2 35.1118 18.3698 -4.04808 35.1118 18.3698 -4.04808
304 1 36.8137 19.5878 -2.54476 36.8137 19.5878 -2.54476
305 2 38.9728 19.0865 -1.44236 38.9728 19.0865 -1.44236
306 2 38.4875 19.7704 -4.4028 38.4875 19.7704 -4.4028
307 1 39.4197 17.6921 -3.45177 39.4197 17.6921 -3.45177
308 2 41.4032 17.5874 -1.89828 41.4032 17.5874 -1.89828
309 2 41.4884 17.6182 -5.10536 41.4884 17.6182 -5.10536
310 1 42.6633 19.3122 -3.486 42.6633 19.3122 -3.486
311 2 44.6013 19.2346 -1.84043 44.6013 19.2346 -1.84043
312 2 44.5712 19.1095 -5.04035 44.5712 19.1095 -5.04035
313 1 45.2573 17.3735 -3.31427 45.2573 17.3735 -3.31427
314 2 47.1379 17.776 -1.39229 47.1379 17.776 -1.39229
315 2 47.5198 16.8836 -4.33677 47.5198 16.8836 -4.33677
316 1 48.6528 18.9394 -3.13603 48.6528 18.9394 -3.13603
317 2 50.3087 19.5637 -1.28884 50.3087 19.5637 -1.28884
318 2 50.9492 18.3461 -4.1883 50.9492 18.3461 -4.1883
319 1 51.1173 17.2946 -1.99986 51.1173 17.2946 -1.99986
320 2 52.4083 18.0389 0.075605 52.4083 18.0389 0.075605
321 2 53.5397 16.5952 -2.59936 53.5397 16.5952 -2.59936
322 1 54.3715 18.862 -1.54095 54.3715 18.862 -1.54095
323 2 55.7381 19.73 0.392558 55.7381 19.73 0.392558
324 2 5.31568 18.157 -2.17871 56.7264 18.157 -2.17871
325 1 6.27707 20.4507 -1.21878 6.27707 20.4507 -1.21878
326 2 7.49873 21.5375 0.910155 7.49873 21.5375 0.910155
327 2 8.59187 19.7502 -1.60323 8.59187 19.7502 -1.60323
328 1 9.39562 22.3411 -0.680643 9.39562 22.3411 -0.680643
329 2 10.6152 23.1631 1.40848 10.6152 23.1631 1.40848
330 2 11.715 21.6064 -1.19395 11.715 21.6064 -1.19395
331 1 11.5921 20.8754 1.23722 11.5921 20.8754 1.23722
332 2 13.1699 21.5441 3.26877 13.1699 21.5441 3.26877
333 2 13.8737 20.372 0.348813 13.8737 20.372 0.348813
334 1 14.8709 22.5099 1.59478 14.8709 22.5099 1.59478
335 2 16.2841 23.1759 3.5728 16.2841 23.1759 3.5728
336 2 17.1541 21.9145 0.672213 17.1541 21.9145 0.672213
337 1 17.3193 20.8817 3.05112 17.3193 20.8817 3.05112
338 2 19.2938 20.9923 4.76907 19.2938 20.9923 4.76907
339 2 19.3705 20.5549 1.59112 19.3705 20.5549 1.59112
340 1 20.6585 22.3959 2.99285 20.6585 22.3959 2.99285
341 2 22.4919 22.3197 4.7401 22.4919 22.3197 4.7401
342 2 22.6808 22.3967 1.5267 22.6808 22.3967 1.5267
343 1 23.3687 20.5987 3.23395 23.3687 20.5987 3.23395
344 2 25.729 19.9718 4.14513 25.729 19.9718 4.14513
345 2 25.0878 21.0773 1.23917 25.0878 21.0773 1.23917
346 1 26.7193 22.167 3.0247 26.7193 22.167 3.0247
347 2 29.1502 21.8096 3.88034 29.1502 21.8096 3.88034
348 2 28.1512 22.7836 0.970736 28.1512 22.7836 0.970736
349 1 29.1954 20.6472 1.61762 29.1954 20.6472 1.61762
350 2 31.5378 19.9956 2.11491 31.5378 19.9956 2.11491
351 2 30.3362 21.5189 -0.505778 30.3362 21.5189 -0.505778
352 1 32.2238 22.2586 1.14681 32.2238 22.2586 1.14681
353 2 34.5929 21.7105 1.7392 34.5929 21.7105 1.7392
354 2 33.5452 23.0605 -0.91805 33.5452 23.0605 -0.91805
355 1 34.4425 20.809 -0.630887 34.4425 20.809 -0.630887
356 2 36.9355 20.3713 -0.130571 36.9355 20.3713 -0.130571
357 2 35.6216 21.8249 -2.76446 35.6216 21.8249 -2.76446
358 1 37.7046 22.6391 -1.25346 37.7046 22.6391 -1.25346
359 2 40.0052 22.0223 -0.348778 40.0052 22.0223 -0.348778
360 2 39.2094 23.4756 -3.15428 39.2094 23.4756 -3.15428
361 1 40.0717 21.0973 -2.71976 40.0717 21.0973 -2.71976
362 2 42.2846 20.8656 -1.51631 42.2846 20.8656 -1.51631
363 2 41.6911 21.3626 -4.64112 41.6911 21.3626 -4.64112
364 1 43.4568 22.7706 -2.933 43.4568 22.7706 -2.933
365 2 45.5558 22.4361 -1.55701 45.5558 22.4361 -1.55701
366 2 45.3317 22.8908 -4.84645 45.3317 22.8908 -4.84645
367 1 46.0232 20.8746 -3.56063 46.0232 20.8746 -3.56063
368 2 47.9839 20.9207 -1.90138 47.9839 20.9207 -1.90138
369 2 48.2262 20.4929 -5.04765 48.2262 20.4929 -5.04765
370 1 49.4364 22.3366 -3.53735 49.4364 22.3366 -3.53735
371 2 51.2824 22.5669 -1.90916 51.2824 22.5669 -1.90916
372 2 51.5616 21.9502 -5.00107 51.5616 21.9502 -5.00107
373 1 52.0722 20.4906 -3.02167 52.0722 20.4906 -3.02167
374 2 53.6639 21.127 -0.962724 53.6639 21.127 -0.962724
375 2 54.3106 19.8569 -3.93713 54.3106 19.8569 -3.93713
376 1 55.2796 22.0442 -2.81892 55.2796 22.0442 -2.81892
377 2 56.6284 22.694 -0.808691 56.6284 22.694 -0.808691
378 2 6.20739 21.4564 -3.65883 57.6182 21.4564 -3.65883
379 1 7.20586 23.8345 -2.49165 7.20586 23.8345 -2.49165
380 2 8.53334 24.5467 -0.298736 8.53334 24.5467 -0.298736
381 2 9.5506 23.2791 -3.22711 9.5506 23.2791 -3.22711
382 1 10.4316 25.4714 -1.98484 10.4316 25.4714 -1.98484
383 2 11.6289 26.3276 0.0933478 11.6289 26.3276 0.0933478
384 2 12.8104 24.9023 -2.47058 12.8104 24.9023 -2.47058
385 1 12.6865 23.9664 -0.18517 12.6865 23.9664 -0.18517
386 2 13.801 24.7833 1.85618 13.801 24.7833 1.85618
387 2 15.1464 23.4182 -0.771572 15.1464 23.4182 -0.771572
388 1 15.6614 25.7012 0.462978 15.6614 25.7012 0.462978
389 2 17.097 26.4501 2.63842 17.097 26.4501 2.63842
390 2 18.1403 25.2807 -0.30199 18.1403 25.2807 -0.30199
391 1 18.122 24.1965 1.97866 18.122 24.1965 1.97866
392 2 19.5489 24.3602 3.99697 19.5489 24.3602 3.99697
393 2 20.4647 23.9771 0.895171 20.4647 23.9771 0.895171
394 1 21.2505 25.9414 2.48556 21.2505 25.9414 2.48556
395 2 22.8832 26.0456 4.51094 22.8832 26.0456 4.51094
396 2 23.565 25.8017 1.31566 23.565 25.8017 1.31566
397 1 23.881 24.1133 3.22168 23.881 24.1133 3.22168
398 2 26.0061 23.9506 4.72136 26.0061 23.9506 4.72136
399 2 25.9005 24.2817 1.6032 25.9005 24.2817 1.6032
400 1 27.173 25.7283 3.26892 27.173 25.7283 3.26892
401 2 29.3233 25.3784 4.54765 29.3233 25.3784 4.54765
402 2 29.0724 26.0334 1.34607 29.0724 26.0334 1.34607
403 1 29.7795 23.8852 2.46517 29.7795 23.8852 2.46517
404 2 32.0831 23.3546 3.36475 32.0831 23.3546 3.36475
405 2 31.3546 24.5072 0.399049 31.3546 24.5072 0.399049
406 1 33.0976 25.5123 2.13491 33.0976 25.5123 2.13491
407 2 35.4137 24.8675 3.15779 35.4137 24.8675 3.15779
408 2 34.7026 26.3117 0.262592 34.7026 26.3117 0.262592
409 1 35.4539 23.9487 0.650994 35.4539 23.9487 0.650994
410 2 37.8259 23.3078 1.24795 37.8259 23.3078 1.24795
411 2 36.7205 24.8912 -1.34659 36.7205 24.8912 -1.34659
412 1 38.7239 25.6391 0.281898 38.7239 25.6391 0.281898
413 2 41.1051 25.063 1.00085 41.1051 25.063 1.00085
414 2 39.9985 26.5627 -1.74258 39.9985 26.5627 -1.74258
415 1 40.9489 24.29 -1.39818 40.9489 24.29 -1.39818
416 2 43.3599 23.8768 -0.579311 43.3599 23.8768 -0.579311
417 2 42.3781 24.9443 -3.43317 42.3781 24.9443 -3.43317
418 1 44.2654 26.0608 -1.81951 44.2654 26.0608 -1.81951
419 2 46.7082 25.7182 -0.994473 46.7082 25.7182 -0.994473
420 2 45.6971 26.4262 -3.9551 45.6971 26.4262 -3.9551
421 1 46.7718 24.3508 -3.06625 46.7718 24.3508 -3.06625
422 2 48.9458 24.1701 -1.88203 48.9458 24.1701 -1.88203
423 2 48.5003 24.336 -4.93299 48.5003 24.336 -4.93299
424 1 50.0397 25.8673 -3.5255 50.0397 25.8673 -3.5255
425 2 52.1586 25.7464 -2.02905 52.1586 25.7464 -2.02905
426 2 52.0239 25.8146 -5.2301 52.0239 25.8146 -5.2301
427 1 52.7044 23.8743 -3.68423 52.7044 23.8743 -3.68423
428 2 54.482 24.2 -1.73454 54.482 24.2 -1.73454
429 2 54.98 23.3805 -4.89 54.98 23.3805 -4.89
430 1 56.0903 25.5234 -3.59598 56.0903 25.5234 -3.59598
431 2 57.6352 25.9764 -1.67029 57.6352 25.9764 -1.67029
432 2 6.83103 25.0203 -4.7313 58.2418 25.0203 -4.7313
433 1 7.8382 27.0288 -3.45451 7.8382 27.0288 -3.45451
434 2 9.36058 27.6943 -1.44855 9.36058 27.6943 -1.44855
435 2 10.237 26.4207 -4.30703 10.237 26.4207 -4.30703
436 1 11.1487 28.5425 -3.17933 11.1487 28.5425 -3.17933
437 2 12.7375 29.4211 -1.13215 12.7375 29.4211 -1.13215
438 2 13.4392 27.7673 -3.88777 13.4392 27.7673 -3.88777
439 1 13.5804 27.1047 -1.40933 13.5804 27.1047 -1.40933
440 2 14.818 28.1595 0.556865 14.818 28.1595 0.556865
441 2 15.9534 26.3542 -1.96686 15.9534 26.3542 -1.96686
442 1 16.7844 28.81 -1.16604 16.7844 28.81 -1.16604
443 2 17.8829 29.9345 1.00183 17.8829 29.9345 1.00183
444 2 19.1833 28.2216 -1.47589 19.1833 28.2216 -1.47589
445 1 18.8956 27.5031 1.08813 18.8956 27.5031 1.08813
446 2 20.2703 28.0247 3.21183 20.2703 28.0247 3.21183
447 2 21.2503 27.1108 0.260103 21.2503 27.1108 0.260103
448 1 22.0903 29.2991 1.62152 22.0903 29.2991 1.62152
449 2 23.5694 29.8034 3.68006 23.5694 29.8034 3.68006
450 2 24.4023 28.7413 0.732518 24.4023 28.7413 0.732518
451 1 24.5304 27.6155 3.05342 24.5304 27.6155 3.05342
452 2 26.5729 27.5721 4.75041 26.5729 27.5721 4.75041
453 2 26.7104 27.4884 1.53697 26.7104 27.4884 1.53697
454 1 27.8518 29.2433 3.17876 27.8518 29.2433 3.17876
455 2 29.8189 29.2115 4.83308 29.8189 29.2115 4.83308
456 2 29.9102 29.1405 1.58457 29.9102 29.1405 1.58457
457 1 30.5739 27.3275 3.18069 30.5739 27.3275 3.18069
458 2 32.734 26.7719 4.31219 32.734 26.7719 4.31219
459 2 32.433 27.8474 1.28716 32.433 27.8474 1.28716
460 1 33.9314 29.0112 3.09014 33.9314 29.0112 3.09014
461 2 36.2341 28.3652 4.30727 36.2341 28.3652 4.30727
462 2 35.7175 29.4483 1.26449 35.7175 29.4483 1.26449
463 1 36.521 27.0942 2.15311 36.521 27.0942 2.15311
464 2 38.8669 26.3957 2.74469 38.8669 26.3957 2.74469
465 2 37.7661 27.9026 0.0952544 37.7661 27.9026 0.0952544
466 1 39.7005 28.7371 1.79527 39.7005 28.7371 1.79527
467 2 42.1606 28.1107 2.34281 42.1606 28.1107 2.34281
468 2 40.9593 29.6071 -0.303469 40.9593 29.6071 -0.303469
469 1 41.9464 27.3545 -0.0264586 41.9464 27.3545 -0.0264586
470 2 44.4514 26.8099 0.592625 44.4514 26.8099 0.592625
471 2 43.2083 28.2111 -2.10239 43.2083 28.2111 -2.10239
472 1 45.2286 29.117 -0.521616 45.2286 29.117 -0.521616
473 2 47.7795 28.6528 -0.0208885 47.7795 28.6528 -0.0208885
474 2 46.3151 30.0149 -2.66939 46.3151 30.0149 -2.66939
475 1 47.4816 27.7256 -2.33701 47.4816 27.7256 -2.33701
476 2 49.8998 27.2152 -1.41848 49.8998 27.2152 -1.41848
477 2 48.9402 28.0868 -4.4218 48.9402 28.0868 -4.4218
478 1 50.7507 29.2576 -2.78289 50.7507 29.2576 -2.78289
479 2 53.0632 28.9709 -1.51168 53.0632 28.9709 -1.51168
480 2 52.5679 29.5122 -4.64025 52.5679 29.5122 -4.64025
481 1 53.4259 27.4127 -3.52339 53.4259 27.4127 -3.52339
482 2 55.4822 27.4768 -2.00507 55.4822 27.4768 -2.00507
483 2 55.2382 27.3006 -5.21131 55.2382 27.3006 -5.21131
484 1 56.6725 28.9608 -3.71684 56.6725 28.9608 -3.71684
485 2 58.659 29.1077 -2.07634 58.659 29.1077 -2.07634
486 2 58.7436 28.811 -5.19451 58.7436 28.811 -5.19451
487 1 8.59564 30.5949 -3.73254 8.59564 30.5949 -3.73254
488 2 10.4583 30.7112 -1.91894 10.4583 30.7112 -1.91894
489 2 10.8488 30.1537 -5.17272 10.8488 30.1537 -5.17272
490 1 11.8306 32.0459 -3.71088 11.8306 32.0459 -3.71088
491 2 13.6785 32.3695 -1.8713 13.6785 32.3695 -1.8713
492 2 14.0532 31.7511 -4.9999 14.0532 31.7511 -4.9999
493 1 14.4971 30.2197 -3.00862 14.4971 30.2197 -3.00862
494 2 15.6404 30.9046 -0.720234 15.6404 30.9046 -0.720234
495 2 16.911 29.7885 -3.50969 16.911 29.7885 -3.50969
496 1 17.6423 31.9067 -2.23093 17.6423 31.9067 -2.23093
497 2 19.0242 32.9201 -0.327779 19.0242 32.9201 -0.327779
498 2 20.0409 31.2617 -2.8199 20.0409 31.2617 -2.8199
499 1 19.9785 30.5651 -0.410257 19.9785 30.5651 -0.410257
500 2 21.0866 31.5924 1.66639 21.0866 31.5924 1.66639
501 2 22.3326 30.0385 -0.917169 22.3326 30.0385 -0.917169
502 1 23.0719 32.2808 0.109084 23.0719 32.2808 0.109084
503 2 24.1544 33.2319 2.22844 24.1544 33.2319 2.22844
504 2 25.489 31.749 -0.392537 25.489 31.749 -0.392537
505 1 25.2785 30.9133 2.00368 25.2785 30.9133 2.00368
506 2 26.9142 31.3846 4.08646 26.9142 31.3846 4.08646
507 2 27.5312 30.5471 0.972987 27.5312 30.5471 0.972987
508 1 28.6647 32.5314 2.41096 28.6647 32.5314 2.41096
509 2 30.3576 33.0505 4.42421 30.3576 33.0505 4.42421
510 2 30.9033 32.4166 1.19059 30.9033 32.4166 1.19059
511 1 31.2909 30.8913 3.18667 31.2909 30.8913 3.18667
512 2 33.2691 30.6822 4.84205 33.2691 30.6822 4.84205
513 2 33.2945 31.0114 1.62528 33.2945 31.0114 1.62528
514 1 34.595 32.5083 3.46995 34.595 32.5083 3.46995
515 2 36.848 32.2726 4.9267 36.848 32.2726 4.9267
516 2 36.4434 32.5659 1.75791 36.4434 32.5659 1.75791
517 1 37.2184 30.4927 3.12802 37.2184 30.4927 3.12802
518 2 39.64 29.997 4.04351 39.64 29.997 4.04351
519 2 38.7593 30.9529 1.12038 38.7593 30.9529 1.12038
520 1 40.573 32.2663 2.7775 40.573 32.2663 2.7775
521 2 43.0353 31.6524 3.71742 43.0353 31.6524 3.71742
522 2 42.1059 32.7112 0.805531 42.1059 32.7112 0.805531
523 1 43.0951 30.4913 1.45616 43.0951 30.4913 1.45616
524 2 45.4851 29.8358 1.94895 45.4851 29.8358 1.94895
525 2 44.1276 31.4283 -0.706429 44.1276 31.4283 -0.706429
526 1 46.2475 32.2327 0.88009 46.2475 32.2327 0.88009
527 2 48.7241 31.425 1.34893 48.7241 31.425 1.34893
528 2 47.5553 33.2355 -1.13004 47.5553 33.2355 -1.13004
529 1 48.3506 30.8484 -1.09001 48.3506 30.8484 -1.09001
530 2 50.7385 30.0797 -0.415192 50.7385 30.0797 -0.415192
531 2 49.723 31.5574 -3.02657 49.723 31.5574 -3.02657
532 1 51.6237 32.3509 -1.36324 51.6237 32.3509 -1.36324
533 2 53.8963 31.7506 -0.613334 53.8963 31.7506 -0.613334
534 2 53.1314 33.0677 -3.39171 53.1314 33.0677 -3.39171
535 1 54.0519 30.8199 -2.96375 54.0519 30.8199 -2.96375
536 2 56.2141 30.4294 -1.71484 56.2141 30.4294 -1.71484
537 2 55.7914 31.0558 -4.8539 55.7914 31.0558 -4.8539
538 1 57.2634 32.4547 -3.15413 57.2634 32.4547 -3.15413
539 2 59.4196 32.2088 -1.81037 59.4196 32.2088 -1.81037
540 2 59.1329 32.5952 -5.00833 59.1329 32.5952 -5.00833
541 1 9.10799 34.0349 -3.35058 9.10799 34.0349 -3.35058
542 2 11.4043 33.9597 -1.99448 11.4043 33.9597 -1.99448