ITEM: TIMESTEP
3937000
ITEM: NUMBER OF ATOMS
810
ITEM: BOX BOUNDS xy xz yz pp pp pp
8.0341777045796159e-01 7.1664768401841940e+01 1.9450581172299444e+01
8.0582000660415243e-01 5.0210394993394715e+01 0.0000000000000000e+00
-1.0000000000000000e+01 1.0000000000000000e+01 0.0000000000000000e+00
ITEM: ATOMS id type x y z xu yu zu
1 1 69.6099 46.3821 -8.92756 -1.25147 -3.02249 -8.92756
2 2 20.3625 47.2044 -7.93389 0.911943 -2.20014 -7.93389
3 2 19.9111 45.0106 9.78012 0.460478 -4.39398 -10.2199
4 1 21.1123 47.1472 9.66376 1.66173 -2.25742 -10.3362
5 2 23.0087 48.3557 -9.11516 3.55808 -1.04888 -9.11516
6 2 23.0791 46.165 8.48728 3.62852 -3.23961 -11.5127
7 1 24.0054 46.0895 -9.07327 4.55478 -3.31504 -9.07327
8 2 25.6725 47.4262 -7.8823 6.22192 -1.97842 -7.8823
9 2 25.9594 44.9493 -9.88698 6.50886 -4.45523 -9.88698
10 1 26.8957 47.2131 9.86391 7.4451 -2.19149 -10.1361
11 2 28.4208 48.6597 -8.72971 8.97019 -0.744861 -8.72971
12 2 29.0976 46.3065 9.10222 9.64701 -3.09812 -10.8978
13 1 29.7495 46.4469 -8.53937 10.299 -2.95767 -8.53937
14 2 31.3856 48.0497 -7.22632 11.935 -1.35492 -7.22632
15 2 31.9414 45.4417 -9.2123 12.4908 -3.96286 -9.2123
16 1 32.684 47.937 -9.35993 13.2334 -1.46755 -9.35993
17 2 34.2275 49.5002 -7.94842 14.777 0.095654 -7.94842
18 2 34.8782 47.1232 9.76555 15.4276 -2.28141 -10.2345
19 1 35.4673 47.2211 -7.75268 16.0167 -2.18352 -7.75268
20 2 37.1221 48.6273 -6.40192 17.6715 -0.777298 -6.40192
21 2 37.6695 46.1908 -8.51049 18.2189 -3.21375 -8.51049
22 1 38.3233 48.5213 -8.59341 18.8728 -0.883305 -8.59341
23 2 20.607 0.682664 -7.57753 20.607 0.682664 -7.57753
24 2 40.6204 47.6951 -9.25765 21.1698 -1.70945 -9.25765
25 1 41.0399 48.0825 -6.7852 21.5893 -1.3221 -6.7852
26 2 42.4372 49.2479 -4.95074 22.9867 -0.156641 -4.95074
27 2 43.3346 48.2657 -7.45816 23.884 -1.13887 -7.45816
28 1 31.3189 4.98735 4.12418 31.3189 4.98735 4.12418
29 2 33.3965 4.11157 3.07812 33.3965 4.11157 3.07812
30 2 30.5917 5.26544 1.80228 30.5917 5.26544 1.80228
31 1 31.6357 2.97473 1.68269 31.6357 2.97473 1.68269
32 2 33.8641 1.90019 0.992203 33.8641 1.90019 0.992203
33 2 31.388 2.88541 -0.810445 31.388 2.88541 -0.810445
34 1 33.6983 3.63789 -0.828874 33.6983 3.63789 -0.828874
35 2 35.8773 2.74457 -1.22734 35.8773 2.74457 -1.22734
36 2 33.4734 3.33377 -3.28823 33.4734 3.33377 -3.28823
37 1 34.7938 1.1456 -2.8248 34.7938 1.1456 -2.8248
38 2 56.6621 50.0792 -2.69143 37.2115 0.67458 -2.69143
39 2 54.5949 49.8321 -5.25342 35.1443 0.427567 -5.25342
40 1 37.2837 1.88573 -4.8963 37.2837 1.88573 -4.8963
41 2 39.8035 1.47786 -4.52455 39.8035 1.47786 -4.52455
42 2 37.8681 1.18907 -7.13096 37.8681 1.18907 -7.13096
43 1 58.7633 48.8328 -5.90539 39.3127 -0.571824 -5.90539
44 2 61.2889 48.7421 -5.43276 41.8383 -0.66245 -5.43276
45 2 59.5095 47.8739 -8.08834 40.059 -1.5307 -8.08834
46 1 61.4721 49.5895 -7.86555 42.0215 0.184949 -7.86555
47 2 63.9296 49.7896 -7.17068 44.479 0.385038 -7.17068
48 2 62.5902 48.3554 -9.81325 43.1397 -1.0492 -9.81325
49 1 64.0355 47.3901 -7.88623 44.5849 -2.01449 -7.88623
50 2 66.3042 48.0075 -6.98746 46.8536 -1.39712 -6.98746
51 2 65.4983 46.2138 -9.49404 46.0477 -3.19081 -9.49404
52 1 66.9764 48.2772 -9.45025 47.5258 -1.12733 -9.45025
53 2 69.1927 48.8263 -8.61358 49.7421 -0.578275 -8.61358
54 2 68.2749 46.7861 8.97536 48.8243 -2.61851 -11.0246
55 1 69.6705 48.8356 8.90463 -1.19086 -0.568932 -11.0954
56 2 20.4646 49.6007 10.0039 1.01397 0.196146 -9.99613
57 2 20.0095 47.6109 7.47712 0.558914 -1.79366 -12.5229
58 1 21.2053 49.8169 7.61388 1.75476 0.412295 -12.3861
59 2 3.81483 1.45219 8.68565 3.81483 1.45219 -11.3144
60 2 22.9496 48.6217 6.4012 3.49898 -0.782911 -13.5988
61 1 24.0942 48.4908 8.58918 4.64363 -0.913796 -11.4108
62 2 25.8123 49.5208 9.94277 6.36171 0.116218 -10.0572
63 2 26.0362 47.3153 7.50489 6.58567 -2.08932 -12.4951
64 1 26.9343 49.6879 7.65937 7.48369 0.283368 -12.3406
65 2 9.17544 1.59283 8.92309 9.17544 1.59283 -11.0769
66 2 28.9569 48.4565 6.90356 9.50628 -0.948089 -13.0964
67 1 29.7706 48.7523 9.16409 10.32 -0.652297 -10.8359
68 2 31.4812 50.1682 -9.48551 12.0306 0.763659 -9.48551
69 2 32.0854 47.8244 8.10693 12.6348 -1.5802 -11.8931
70 1 13.2481 0.921557 8.45082 13.2481 0.921557 -11.5492
71 2 15.2107 2.27313 9.01652 15.2107 2.27313 -10.9835
72 2 34.7509 49.2528 7.47509 15.3003 -0.151761 -12.5249
73 1 35.4678 49.5664 9.95426 16.0173 0.16185 -10.0457
74 2 17.7332 1.38384 -8.70541 17.7332 1.38384 -8.70541
75 2 37.7177 48.897 9.04463 18.2672 -0.50759 -10.9554
76 1 30.8074 9.14916 8.95976 30.8074 9.14916 8.95976
77 2 32.9333 8.17622 8.17522 32.9333 8.17622 8.17522
78 2 30.3885 9.32231 6.53822 30.3885 9.32231 6.53822
79 1 31.2398 7.05675 6.71029 31.2398 7.05675 6.71029
80 2 33.2413 6.06121 5.51987 33.2413 6.06121 5.51987
81 2 30.4758 7.39336 4.29754 30.4758 7.39336 4.29754
82 1 32.9479 7.95913 4.0344 32.9479 7.95913 4.0344
83 2 34.8994 7.0781 2.70515 34.8994 7.0781 2.70515
84 2 32.1166 8.31838 1.71475 32.1166 8.31838 1.71475
85 1 33.0191 5.98446 1.40117 33.0191 5.98446 1.40117
86 2 35.1945 5.05152 0.603902 35.1945 5.05152 0.603902
87 2 32.5259 5.90494 -1.0417 32.5259 5.90494 -1.0417
88 1 34.8902 6.7742 -1.13007 34.8902 6.7742 -1.13007
89 2 37.2004 5.9292 -1.76475 37.2004 5.9292 -1.76475
90 2 34.5839 6.41725 -3.64605 34.5839 6.41725 -3.64605
91 1 35.8755 4.31865 -3.20717 35.8755 4.31865 -3.20717
92 2 38.2434 3.60933 -3.37808 38.2434 3.60933 -3.37808
93 2 35.9921 3.94542 -5.71811 35.9921 3.94542 -5.71811
94 1 38.2237 5.05231 -5.4448 38.2237 5.05231 -5.4448
95 2 40.6464 4.35135 -5.20224 40.6464 4.35135 -5.20224
96 2 38.8052 4.56746 -7.85969 38.8052 4.56746 -7.85969
97 1 39.9159 2.57933 -6.84237 39.9159 2.57933 -6.84237
98 2 42.4025 2.26071 -6.43305 42.4025 2.26071 -6.43305
99 2 40.6196 1.83403 -9.17393 40.6196 1.83403 -9.17393
100 1 42.6201 3.30098 -8.76079 42.6201 3.30098 -8.76079
101 2 44.994 3.09879 -8.23799 44.994 3.09879 -8.23799
102 2 43.3608 2.30278 8.99193 43.3608 2.30278 -11.0081
103 1 44.7872 0.830691 -9.59161 44.7872 0.830691 -9.59161
104 2 47.1291 1.21077 -8.72215 47.1291 1.21077 -8.72215
105 2 65.5001 48.9615 8.67915 46.0495 -0.443043 -11.3208
106 1 47.6446 1.5522 8.85431 47.6446 1.5522 -11.1457
107 2 49.9823 1.87916 9.72878 49.9823 1.87916 -10.2712
108 2 68.3383 49.74 7.01334 48.8877 0.335377 -12.9867
109 1 50.486 2.32053 7.30566 -0.924736 2.32053 -12.6943
110 2 52.742 2.79277 8.18682 1.33126 2.79277 -11.8132
111 2 51.7524 1.08754 5.61796 0.341613 1.08754 -14.382
112 1 1.95397 3.18914 5.76351 1.95397 3.18914 -14.2365
113 2 4.13428 3.93587 6.92878 4.13428 3.93587 -13.0712
114 2 3.66364 2.21168 4.12371 3.66364 2.21168 -15.8763
115 1 4.64219 1.51422 6.32926 4.64219 1.51422 -13.6707
116 2 6.39133 2.54415 7.82262 6.39133 2.54415 -12.1774
117 2 26.2185 49.9336 5.28879 6.76793 0.529003 -14.7112
118 1 7.55426 2.80898 5.62387 7.55426 2.80898 -14.3761
119 2 9.64922 3.74196 6.5746 9.64922 3.74196 -13.4254
120 2 9.54535 1.87616 4.35014 9.54535 1.87616 -15.6499
121 1 10.4681 1.4269 6.78636 10.4681 1.4269 -13.2136
122 2 11.9165 2.94977 8.21945 11.9165 2.94977 -11.7806
123 2 12.9073 1.12144 6.05458 12.9073 1.12144 -13.9454
124 1 29.0149 13.5523 -6.90149 29.0149 13.5523 13.0985
125 2 31.3789 12.8993 -7.30199 31.3789 12.8993 12.698
126 2 28.9847 13.4617 -9.33348 28.9847 13.4617 10.6665
127 1 30.1738 11.2989 -8.85914 30.1738 11.2989 11.1409
128 2 32.3099 10.3698 -9.52166 32.3099 10.3698 10.4783
129 2 29.9868 11.4879 8.61847 29.9868 11.4879 8.61847
130 1 32.3886 12.1998 8.80223 32.3886 12.1998 8.80223
131 2 34.4359 11.162 7.94812 34.4359 11.162 7.94812
132 2 31.8589 12.2759 6.36817 31.8589 12.2759 6.36817
133 1 32.8003 9.96027 6.51978 32.8003 9.96027 6.51978
134 2 34.7468 8.99985 5.40752 34.7468 8.99985 5.40752
135 2 32.0593 10.2547 4.0731 32.0593 10.2547 4.0731
136 1 34.4866 10.9507 3.8122 34.4866 10.9507 3.8122
137 2 36.3769 9.9436 2.60145 36.3769 9.9436 2.60145
138 2 33.5206 11.3737 1.48394 33.5206 11.3737 1.48394
139 1 34.4584 9.05102 1.22306 34.4584 9.05102 1.22306
140 2 36.5984 8.03968 0.242679 36.5984 8.03968 0.242679
141 2 33.7928 9.10948 -1.28165 33.7928 9.10948 -1.28165
142 1 36.1324 9.97841 -1.45245 36.1324 9.97841 -1.45245
143 2 38.3682 8.9016 -2.11277 38.3682 8.9016 -2.11277
144 2 35.7065 9.87513 -4.03465 35.7065 9.87513 -4.03465
145 1 36.8897 7.52376 -3.74453 36.8897 7.52376 -3.74453
146 2 39.336 6.7698 -3.87775 39.336 6.7698 -3.87775
147 2 37.0971 7.18228 -6.18659 37.0971 7.18228 -6.18659
148 1 39.3789 8.28826 -5.87629 39.3789 8.28826 -5.87629
149 2 41.7358 7.44317 -5.67181 41.7358 7.44317 -5.67181
150 2 39.7639 7.82053 -8.30119 39.7639 7.82053 -8.30119
151 1 40.9176 5.78399 -7.34991 40.9176 5.78399 -7.34991
152 2 43.305 5.16406 -7.12876 43.305 5.16406 -7.12876
153 2 41.2996 5.22021 -9.76059 41.2996 5.22021 -9.76059
154 1 43.5229 6.51664 -9.43063 43.5229 6.51664 -9.43063
155 2 46.0237 5.88184 -9.1361 46.0237 5.88184 -9.1361
156 2 44.0626 5.80409 8.22191 44.0626 5.80409 -11.7781
157 1 45.321 3.90222 9.41041 45.321 3.90222 -10.5896
158 2 47.7213 3.75168 10.0332 47.7213 3.75168 -9.96677
159 2 46.3501 2.89081 7.28675 46.3501 2.89081 -12.7133
160 1 48.0593 4.63544 7.69346 48.0593 4.63544 -12.3065
161 2 50.5615 4.58877 8.20657 50.5615 4.58877 -11.7934
162 2 48.917 3.47938 5.66128 48.917 3.47938 -14.3387
163 1 50.7157 5.25573 5.87432 -0.695025 5.25573 -14.1257
164 2 53.1982 5.50672 6.51617 1.78739 5.50672 -13.4838
165 2 51.9873 4.06864 3.89014 0.576516 4.06864 -16.1099
166 1 53.5122 6.03214 4.06065 2.10145 6.03214 -15.9393
167 2 4.56511 6.72052 4.38105 4.56511 6.72052 -15.619
168 2 3.72678 4.84119 2.54214 3.72678 4.84119 -17.4579
169 1 4.90093 4.29584 4.64514 4.90093 4.29584 -15.3549
170 2 6.76822 5.16767 6.04839 6.76822 5.16767 -13.9516
171 2 6.99211 3.82033 3.52884 6.99211 3.82033 -16.4712
172 1 25.3977 18.2553 -4.37805 25.3977 18.2553 15.6219
173 2 27.8597 18.0434 -3.951 27.8597 18.0434 16.049
174 2 26.2021 17.7675 -6.64618 26.2021 17.7675 13.3538
175 1 27.5555 15.9798 -5.38621 27.5555 15.9798 14.6138
176 2 29.9319 15.314 -5.39124 29.9319 15.314 14.6088
177 2 27.8502 15.5703 -7.80025 27.8502 15.5703 12.1997
178 1 29.9506 16.7945 -7.41521 29.9506 16.7945 12.5848
179 2 32.222 15.8237 -7.44982 32.222 15.8237 12.5502
180 2 30.143 16.6836 -9.94991 30.143 16.6836 10.0501
181 1 31.1751 14.4792 -9.2491 31.1751 14.4792 10.7509
182 2 33.4422 13.5122 -9.40786 33.4422 13.5122 10.5921
183 2 31.3294 14.3784 8.30716 31.3294 14.3784 8.30716
184 1 33.7301 15.1452 8.73798 33.7301 15.1452 8.73798
185 2 35.8161 14.055 7.94948 35.8161 14.055 7.94948
186 2 33.4896 15.3248 6.19504 33.4896 15.3248 6.19504
187 1 34.3315 13.0487 6.35157 34.3315 13.0487 6.35157
188 2 36.3427 11.8306 5.3368 36.3427 11.8306 5.3368
189 2 33.7166 13.3188 4.02852 33.7166 13.3188 4.02852
190 1 36.2018 13.8893 3.83176 36.2018 13.8893 3.83176
191 2 37.9792 12.8221 2.47367 37.9792 12.8221 2.47367
192 2 35.044 14.2491 1.58778 35.044 14.2491 1.58778
193 1 35.9659 11.9458 1.14293 35.9659 11.9458 1.14293
194 2 37.9074 11.034 -0.0970517 37.9074 11.034 -0.0970517
195 2 35.1676 12.3623 -1.08888 35.1676 12.3623 -1.08888
196 1 37.5728 13.0009 -1.57113 37.5728 13.0009 -1.57113
197 2 39.6519 12.0131 -2.39301 39.6519 12.0131 -2.39301
198 2 37.1171 13.022 -4.08583 37.1171 13.022 -4.08583
199 1 38.1692 10.6914 -3.99108 38.1692 10.6914 -3.99108
200 2 40.5456 9.87902 -4.31626 40.5456 9.87902 -4.31626
201 2 38.2043 10.3185 -6.57708 38.2043 10.3185 -6.57708
202 1 40.5057 11.4133 -6.22937 40.5057 11.4133 -6.22937
203 2 42.9533 10.5204 -6.0288 42.9533 10.5204 -6.0288
204 2 41.1292 11.0112 -8.75086 41.1292 11.0112 -8.75086
205 1 42.0296 8.92421 -7.74183 42.0296 8.92421 -7.74183
206 2 44.3492 7.96075 -7.54643 44.3492 7.96075 -7.54643
207 2 42.6019 8.68927 9.88809 42.6019 8.68927 -10.1119
208 1 44.8355 9.60081 -9.2751 44.8355 9.60081 -9.2751
209 2 47.0469 8.50669 -9.35228 47.0469 8.50669 -9.35228
210 2 46.4113 8.96709 6.98441 46.4113 8.96709 -13.0156
211 1 46.1227 7.14252 8.7578 46.1227 7.14252 -11.2422
212 2 48.5895 6.72839 9.08367 48.5895 6.72839 -10.9163
213 2 46.5793 6.15269 6.40294 46.5793 6.15269 -13.5971
214 1 48.6463 7.73771 6.75427 48.6463 7.73771 -13.2457
215 2 51.1059 7.2497 7.16169 51.1059 7.2497 -12.8383
216 2 49.3282 6.74704 4.49927 49.3282 6.74704 -15.5007
217 1 51.2472 8.39195 4.98835 -0.163594 8.39195 -15.0116
218 2 53.7287 8.317 5.01335 2.31788 8.317 -14.9866
219 2 51.9373 7.51557 2.60883 0.52654 7.51557 -17.3912
220 1 20.2402 22.2801 -4.29394 20.2402 22.2801 15.7061
221 2 22.463 22.9801 -3.43567 22.463 22.9801 16.5643
222 2 21.8211 21.2714 -6.02056 21.8211 21.2714 13.9794
223 1 23.0074 20.5273 -3.91304 23.0074 20.5273 16.087
224 2 25.4793 20.4991 -3.33071 25.4793 20.4991 16.6693
225 2 24.1381 19.6546 -6.00147 24.1381 19.6546 13.9985
226 1 25.8413 21.5263 -5.57988 25.8413 21.5263 14.4201
227 2 28.2604 21.4787 -4.87957 28.2604 21.4787 15.1204
228 2 26.8718 20.4365 -7.62807 26.8718 20.4365 12.3719
229 1 28.1883 19.2419 -6.05654 28.1883 19.2419 13.9435
230 2 30.6314 18.7824 -5.78408 30.6314 18.7824 14.2159
231 2 28.7067 18.6164 -8.37935 28.7067 18.6164 11.6206
232 1 30.8717 19.9027 -7.94383 30.8717 19.9027 12.0562
233 2 33.2297 19.4122 -7.79604 33.2297 19.4122 12.204
234 2 31.2825 19.4733 9.60624 31.2825 19.4733 9.60624
235 1 32.4968 17.4901 -9.33072 32.4968 17.4901 10.6693
236 2 34.8544 16.6329 -9.61606 34.8544 16.6329 10.3839
237 2 32.7052 17.4552 8.14402 32.7052 17.4552 8.14402
238 1 35.0224 18.2857 8.42467 35.0224 18.2857 8.42467
239 2 37.2251 17.3476 7.99597 37.2251 17.3476 7.99597
240 2 34.8755 18.2332 5.99304 34.8755 18.2332 5.99304
241 1 35.8568 15.943 6.33782 35.8568 15.943 6.33782
242 2 37.8973 14.8711 5.28825 37.8973 14.8711 5.28825
243 2 35.3096 16.2304 3.85084 35.3096 16.2304 3.85084
244 1 37.7775 16.8874 3.83352 37.7775 16.8874 3.83352
245 2 39.4786 15.8369 2.43434 39.4786 15.8369 2.43434
246 2 36.6702 17.1872 1.5795 36.6702 17.1872 1.5795
247 1 37.4319 14.9039 1.13705 37.4319 14.9039 1.13705
248 2 39.3431 13.9341 -0.140823 39.3431 13.9341 -0.140823
249 2 36.5405 15.2366 -1.2309 36.5405 15.2366 -1.2309
250 1 39.0782 15.9277 -1.56377 39.0782 15.9277 -1.56377
251 2 41.2049 14.7918 -2.46151 41.2049 14.7918 -2.46151
252 2 38.6542 16.1279 -4.01694 38.6542 16.1279 -4.01694
253 1 39.5713 13.7725 -4.05111 39.5713 13.7725 -4.05111
254 2 41.754 12.6903 -4.55058 41.754 12.6903 -4.55058
255 2 39.4585 13.632 -6.60485 39.4585 13.632 -6.60485
256 1 41.8049 14.5303 -6.31355 41.8049 14.5303 -6.31355
257 2 44.1897 13.7127 -6.26036 44.1897 13.7127 -6.26036
258 2 42.1804 14.1249 -8.80856 42.1804 14.1249 -8.80856
259 1 43.3498 11.9876 -8.00258 43.3498 11.9876 -8.00258
260 2 45.6641 11.1359 -7.3857 45.6641 11.1359 -7.3857
261 2 45.2198 11.2892 8.84064 45.2198 11.2892 -11.1594
262 1 46.3665 12.6626 -9.29162 46.3665 12.6626 -9.29162
263 2 48.2721 11.0559 -8.87412 48.2721 11.0559 -8.87412
264 2 47.5187 11.4356 6.61173 47.5187 11.4356 -13.3883
265 1 47.5479 10.2316 8.86277 47.5479 10.2316 -11.1372
266 2 49.7456 9.15165 8.60909 49.7456 9.15165 -11.3909
267 2 48.8065 9.33504 4.99857 48.8065 9.33504 -15.0014
268 1 49.9238 10.8467 6.69158 49.9238 10.8467 -13.3084
269 2 52.225 9.82692 6.96995 52.225 9.82692 -13.03
270 2 51.1944 10.8694 4.48443 51.1944 10.8694 -15.5156
271 1 17.4783 23.6779 -5.3711 17.4783 23.6779 14.6289
272 2 19.3491 24.6888 -4.20058 19.3491 24.6888 15.7994
273 2 19.3033 22.475 -6.54824 19.3033 22.475 13.4518
274 1 20.3414 24.8925 -6.47264 20.3414 24.8925 13.5274
275 2 22.329 25.5679 -5.12228 22.329 25.5679 14.8777
276 2 21.9979 23.8121 -7.89489 21.9979 23.8121 12.1051
277 1 23.0969 23.2904 -5.75248 23.0969 23.2904 14.2475
278 2 25.2257 23.5438 -4.46467 25.2257 23.5438 15.5353
279 2 24.6636 22.3999 -7.52459 24.6636 22.3999 12.4754
280 1 26.0267 24.4271 -6.92509 26.0267 24.4271 13.0749
281 2 28.3897 24.3916 -6.06574 28.3897 24.3916 13.9343
282 2 27.3086 23.4701 -8.97022 27.3086 23.4701 11.0298
283 1 28.5701 22.2788 -7.19285 28.5701 22.2788 12.8072
284 2 31.1213 21.9982 -6.58918 31.1213 21.9982 13.4108
285 2 29.4191 21.4453 -9.32484 29.4191 21.4453 10.6752
286 1 31.4186 23.0525 -8.79349 31.4186 23.0525 11.2065
287 2 33.8328 22.7139 -8.56153 33.8328 22.7139 11.4385
288 2 31.9443 22.3535 8.86322 31.9443 22.3535 8.86322
289 1 33.3449 20.6848 -9.94738 33.3449 20.6848 10.0526
290 2 35.7916 19.9177 -9.875 35.7916 19.9177 10.125
291 2 33.7184 20.3234 7.65872 33.7184 20.3234 7.65872
292 1 35.8876 21.5176 8.10081 35.8876 21.5176 8.10081
293 2 38.2991 20.554 7.90501 38.2991 20.554 7.90501
294 2 36.0468 21.1712 5.63537 36.0468 21.1712 5.63537
295 1 37.1547 19.0386 6.26952 37.1547 19.0386 6.26952
296 2 39.2761 18.1654 5.4953 39.2761 18.1654 5.4953
297 2 36.6608 19.1522 3.83094 36.6608 19.1522 3.83094
298 1 39.0166 19.9169 3.80126 39.0166 19.9169 3.80126
299 2 40.8685 18.7817 2.55256 40.8685 18.7817 2.55256
300 2 38.1311 20.2755 1.40764 38.1311 20.2755 1.40764
301 1 39.0542 17.8739 1.02602 39.0542 17.8739 1.02602
302 2 41.047 16.6892 -0.157493 41.047 16.6892 -0.157493
303 2 38.3657 18.2878 -1.27852 38.3657 18.2878 -1.27852
304 1 40.8321 18.8183 -1.63205 40.8321 18.8183 -1.63205
305 2 42.9956 18.3652 -3.33094 42.9956 18.3652 -3.33094
306 2 39.6829 19.0384 -3.81413 39.6829 19.0384 -3.81413
307 1 40.9951 16.8458 -4.03582 40.9951 16.8458 -4.03582
308 2 43.0554 15.6498 -4.45747 43.0554 15.6498 -4.45747
309 2 40.9996 16.9432 -6.50122 40.9996 16.9432 -6.50122
310 1 43.315 17.6582 -5.92325 43.315 17.6582 -5.92325
311 2 45.3964 16.382 -6.29031 45.3964 16.382 -6.29031
312 2 43.3086 17.4836 -8.36266 43.3086 17.4836 -8.36266
313 1 44.3845 15.133 -8.23584 44.3845 15.133 -8.23584
314 2 46.7669 14.4296 -7.67631 46.7669 14.4296 -7.67631
315 2 46.0372 14.3301 8.80885 46.0372 14.3301 -11.1912
316 1 47.4029 15.8569 -9.85209 47.4029 15.8569 -9.85209
317 2 48.7401 13.7426 -9.45053 48.7401 13.7426 -9.45053
318 2 49.4467 15.602 8.58611 49.4467 15.602 -11.4139
319 1 48.3056 13.4646 8.02223 48.3056 13.4646 -11.9778
320 2 49.7708 11.7014 9.04855 49.7708 11.7014 -10.9515
321 2 50.582 13.2118 6.84962 50.582 13.2118 -13.1504
322 1 14.4971 24.7033 -6.54768 65.9079 24.7033 13.4523
323 2 16.3881 26.0483 -5.55085 67.7989 26.0483 14.4492
324 2 16.6842 23.616 -7.70058 68.0949 23.616 12.2994
325 1 17.4963 26.0442 -7.68902 17.4963 26.0442 12.311
326 2 19.2594 27.0451 -6.23208 19.2594 27.0451 13.7679
327 2 19.5412 25.1271 -8.82628 19.5412 25.1271 11.1737
328 1 20.4328 27.4174 -8.51527 20.4328 27.4174 11.4847
329 2 22.4103 28.4509 -7.28757 22.4103 28.4509 12.7124
330 2 22.3277 26.2634 -9.75985 22.3277 26.2634 10.2402
331 1 23.2596 26.0549 -7.41844 23.2596 26.0549 12.5816
332 2 25.3328 26.6864 -6.28257 25.3328 26.6864 13.7174
333 2 24.8465 25.0757 -9.0824 24.8465 25.0757 10.9176
334 1 26.1385 27.2663 -8.61551 26.1385 27.2663 11.3845
335 2 28.3691 27.5736 -7.61293 28.3691 27.5736 12.3871
336 2 27.6035 26.1987 9.59647 27.6035 26.1987 9.59647
337 1 28.8364 25.2203 -8.32157 28.8364 25.2203 11.6784
338 2 31.2215 25.1444 -7.51902 31.2215 25.1444 12.481
339 2 30.0975 24.4676 9.49109 30.0975 24.4676 9.49109
340 1 31.7043 26.2235 -9.93737 31.7043 26.2235 10.0626
341 2 34.1969 25.8655 -9.29918 34.1969 25.8655 10.7008
342 2 32.6565 25.4462 7.8922 32.6565 25.4462 7.8922
343 1 33.8941 23.86 9.24421 33.8941 23.86 9.24421
344 2 36.3007 23.3723 9.74641 36.3007 23.3723 9.74641
345 2 34.6978 23.2604 6.9149 34.6978 23.2604 6.9149
346 1 36.6035 24.585 7.57486 36.6035 24.585 7.57486
347 2 39.1022 23.8522 7.57075 39.1022 23.8522 7.57075
348 2 36.9866 24.1603 5.20028 36.9866 24.1603 5.20028
349 1 38.3554 22.1793 6.00249 38.3554 22.1793 6.00249
350 2 40.5728 21.141 5.26502 40.5728 21.141 5.26502
351 2 38.0321 22.119 3.48707 38.0321 22.119 3.48707
352 1 40.4631 22.9315 3.48173 40.4631 22.9315 3.48173
353 2 42.4408 21.8195 2.52769 42.4408 21.8195 2.52769
354 2 39.9271 23.2278 1.08525 39.9271 23.2278 1.08525
355 1 40.6431 20.804 1.08176 40.6431 20.804 1.08176
356 2 42.6065 19.7183 -0.0971002 42.6065 19.7183 -0.0971002
357 2 39.9145 21.1422 -1.29581 39.9145 21.1422 -1.29581
358 1 42.4138 21.6953 -1.54921 42.4138 21.6953 -1.54921
359 2 44.1273 20.8882 -3.70859 44.1273 20.8882 -3.70859
360 2 41.1102 22.455 -3.5616 41.1102 22.455 -3.5616
361 1 41.7333 20.2143 -4.486 41.7333 20.2143 -4.486
362 2 45.5197 18.9683 -5.43218 45.5197 18.9683 -5.43218
363 2 42.101 19.5462 -6.97141 42.101 19.5462 -6.97141
364 1 44.2631 20.8288 -6.42695 44.2631 20.8288 -6.42695
365 2 46.5682 20.7175 -7.5525 46.5682 20.7175 -7.5525
366 2 44.2172 20.1235 -8.897 44.2172 20.1235 -8.897
367 1 45.7658 18.2657 -8.00109 45.7658 18.2657 -8.00109
368 2 48.0321 17.2288 -7.78004 48.0321 17.2288 -7.78004
369 2 45.1816 16.8946 9.89443 45.1816 16.8946 -10.1056
370 1 60.6604 26.054 9.88087 60.6604 26.054 9.88087
371 2 60.965 28.3078 -9.53073 60.965 28.3078 10.4693
372 2 11.5678 25.6599 9.2705 62.9786 25.6599 9.2705
373 1 11.8652 25.2657 -8.34483 63.276 25.2657 11.6552
374 2 13.2924 26.972 -7.22395 64.7031 26.972 12.776
375 2 14.0406 24.4196 -9.06804 65.4514 24.4196 10.932
376 1 14.6727 26.8576 -9.25352 66.0834 26.8576 10.7465
377 2 16.2178 28.1566 -7.75358 67.6286 28.1566 12.2464
378 2 17.005 25.9712 9.93538 68.4158 25.9712 9.93538
379 1 17.5728 28.3749 10.0095 17.5728 28.3749 10.0095
380 2 19.2859 29.5855 -8.52274 19.2859 29.5855 11.4773
381 2 19.6654 27.3987 9.05923 19.6654 27.3987 9.05923
382 1 20.539 29.7685 9.22034 20.539 29.7685 9.22034
383 2 22.1355 30.8668 -9.29567 22.1355 30.8668 10.7043
384 2 22.5211 28.9885 8.03747 22.5211 28.9885 8.03747
385 1 23.3198 28.6615 -9.62392 23.3198 28.6615 10.3761
386 2 25.2865 29.5985 -8.28151 25.2865 29.5985 11.7185
387 2 25.1292 27.5734 9.09275 25.1292 27.5734 9.09275
388 1 26.1774 29.8109 9.27467 26.1774 29.8109 9.27467
389 2 28.2746 30.5218 -9.45687 28.2746 30.5218 10.5431
390 2 27.9569 28.7671 7.78961 27.9569 28.7671 7.78961
391 1 28.9936 28.2066 -10.0021 28.9936 28.2066 9.9979
392 2 31.3046 28.4976 -8.83336 31.3046 28.4976 11.1666
393 2 30.4931 27.3187 8.16393 30.4931 27.3187 8.16393
394 1 31.9739 29.1696 8.88005 31.9739 29.1696 8.88005
395 2 34.3784 29.2539 9.67819 34.3784 29.2539 9.67819
396 2 33.1875 28.2694 6.73901 33.1875 28.2694 6.73901
397 1 34.5173 26.9885 8.5301 34.5173 26.9885 8.5301
398 2 36.9828 26.5093 9.08895 36.9828 26.5093 9.08895
399 2 35.2817 26.166 6.30737 35.2817 26.166 6.30737
400 1 37.2544 27.7733 6.8144 37.2544 27.7733 6.8144
401 2 39.6914 27.3112 7.11782 39.6914 27.3112 7.11782
402 2 37.795 27.2363 4.52202 37.795 27.2363 4.52202
403 1 39.2533 25.4242 5.54121 39.2533 25.4242 5.54121
404 2 41.59 24.5208 5.27011 41.59 24.5208 5.27011
405 2 39.3524 25.2853 3.05879 39.3524 25.2853 3.05879
406 1 41.6872 26.1974 3.42013 41.6872 26.1974 3.42013
407 2 43.9959 25.0844 2.66724 43.9959 25.0844 2.66724
408 2 41.4095 26.0561 0.784415 41.4095 26.0561 0.784415
409 1 42.3991 23.7897 1.10013 42.3991 23.7897 1.10013
410 2 44.3227 22.5469 -0.0261097 44.3227 22.5469 -0.0261097
411 2 41.7813 24.1408 -1.3452 41.7813 24.1408 -1.3452
412 1 44.2504 24.6407 -1.50759 44.2504 24.6407 -1.50759
413 2 45.5933 23.2606 -3.18864 45.5933 23.2606 -3.18864
414 2 43.3182 25.5459 -3.72898 43.3182 25.5459 -3.72898
415 1 43.3961 23.1154 -4.36593 43.3961 23.1154 -4.36593
416 2 45.0777 23.4967 -6.26974 45.0777 23.4967 -6.26974
417 2 42.1545 22.1687 -6.14507 42.1545 22.1687 -6.14507
418 1 55.1652 27.6258 6.62107 55.1652 27.6258 6.62107
419 2 55.3833 29.9155 7.38477 55.3833 29.9155 7.38477
420 2 57.4896 27.2869 5.92893 57.4896 27.2869 5.92893
421 1 57.9273 26.6909 8.23646 57.9273 26.6909 8.23646
422 2 58.1867 29.0232 8.91494 58.1867 29.0232 8.91494
423 2 60.2063 26.5071 7.51436 60.2063 26.5071 7.51436
424 1 60.5575 28.8843 8.02074 60.5575 28.8843 8.02074
425 2 62.2186 30.363 9.28808 62.2186 30.363 9.28808
426 2 11.2885 27.8743 7.24582 62.6993 27.8743 7.24582
427 1 11.919 28.1383 9.67312 63.3298 28.1383 9.67312
428 2 13.7892 29.2817 -9.15275 65.2 29.2817 10.8473
429 2 13.8083 26.9924 8.35734 65.2191 26.9924 8.35734
430 1 14.8132 29.3581 8.55705 66.224 29.3581 8.55705
431 2 16.5701 30.606 9.84573 67.9808 30.606 9.84573
432 2 16.8261 28.3554 7.60808 68.2368 28.3554 7.60808
433 1 17.7392 30.6412 7.66158 17.7392 30.6412 7.66158
434 2 19.2492 31.8951 9.22763 19.2492 31.8951 9.22763
435 2 19.9218 29.8787 6.74391 19.9218 29.8787 6.74391
436 1 20.6273 32.2732 7.04375 20.6273 32.2732 7.04375
437 2 22.3165 33.5047 8.36933 22.3165 33.5047 8.36933
438 2 22.6707 31.3539 5.98237 22.6707 31.3539 5.98237
439 1 23.4367 31.2726 8.42759 23.4367 31.2726 8.42759
440 2 25.4037 32.142 9.77838 25.4037 32.142 9.77838
441 2 25.3726 30.3996 6.98985 25.3726 30.3996 6.98985
442 1 26.4091 32.6131 7.47331 26.4091 32.6131 7.47331
443 2 28.4577 33.2145 8.7745 28.4577 33.2145 8.7745
444 2 28.3047 31.5074 6.01504 28.3047 31.5074 6.01504
445 1 29.2816 30.9065 8.25666 29.2816 30.9065 8.25666
446 2 31.3785 31.5629 9.38936 31.3785 31.5629 9.38936
447 2 30.9297 29.7996 6.64373 30.9297 29.7996 6.64373
448 1 32.1379 31.9572 7.02709 32.1379 31.9572 7.02709
449 2 34.3945 32.3698 8.17461 34.3945 32.3698 8.17461
450 2 33.7072 30.9524 5.352 33.7072 30.9524 5.352
451 1 34.9085 30.0315 7.34225 34.9085 30.0315 7.34225
452 2 37.3969 30.0708 7.93737 37.3969 30.0708 7.93737
453 2 35.9285 29.1188 5.16334 35.9285 29.1188 5.16334
454 1 37.5966 30.9033 5.52081 37.5966 30.9033 5.52081
455 2 39.9865 30.7039 6.29525 39.9865 30.7039 6.29525
456 2 38.6109 29.9828 3.44707 38.6109 29.9828 3.44707
457 1 39.959 28.5983 4.9841 39.959 28.5983 4.9841
458 2 42.3235 28.0012 5.20836 42.3235 28.0012 5.20836
459 2 40.4232 28.11 2.54905 40.4232 28.11 2.54905
460 1 42.5219 29.4413 3.00993 42.5219 29.4413 3.00993
461 2 44.868 28.4456 2.70125 44.868 28.4456 2.70125
462 2 42.7347 29.2307 0.469596 42.7347 29.2307 0.469596
463 1 43.7042 26.9704 0.975 43.7042 26.9704 0.975
464 2 45.7212 25.9159 0.315409 45.7212 25.9159 0.315409
465 2 43.2064 27.0781 -1.54115 43.2064 27.0781 -1.54115
466 1 45.6818 27.6528 -1.53625 45.6818 27.6528 -1.53625
467 2 46.6638 25.3733 -2.15251 46.6638 25.3733 -2.15251
468 2 45.1355 28.0016 -4.02176 45.1355 28.0016 -4.02176
469 1 45.6396 25.4968 -4.45246 45.6396 25.4968 -4.45246
470 2 52.7228 29.9304 5.22433 52.7228 29.9304 5.22433
471 2 54.7601 28.1854 4.30556 54.7601 28.1854 4.30556
472 1 55.0949 30.6099 4.95256 55.0949 30.6099 4.95256
473 2 56.9122 32.0731 6.37511 56.9122 32.0731 6.37511
474 2 57.1917 29.5435 4.03116 57.1917 29.5435 4.03116
475 1 57.7162 29.6532 6.5363 57.7162 29.6532 6.5363
476 2 59.4868 31.2576 7.52636 59.4868 31.2576 7.52636
477 2 59.8709 28.5439 5.56467 59.8709 28.5439 5.56467
478 1 60.7115 30.9312 5.34468 60.7115 30.9312 5.34468
479 2 62.475 32.4587 6.50419 62.475 32.4587 6.50419
480 2 62.8507 29.8853 4.60277 62.8507 29.8853 4.60277
481 1 63.4804 30.2336 7.07095 63.4804 30.2336 7.07095
482 2 13.8549 31.6022 8.18016 65.2657 31.6022 8.18016
483 2 14.1099 29.0633 6.20299 65.5206 29.0633 6.20299
484 1 15.0226 31.3137 5.97443 66.4334 31.3137 5.97443
485 2 16.4615 32.8916 7.50766 67.8723 32.8916 7.50766
486 2 17.3619 30.6234 5.20181 68.7726 30.6234 5.20181
487 1 17.882 33.0486 5.44961 17.882 33.0486 5.44961
488 2 19.5522 34.5251 6.73133 19.5522 34.5251 6.73133
489 2 20.0624 32.1182 4.62391 20.0624 32.1182 4.62391
490 1 20.7381 34.4473 4.63918 20.7381 34.4473 4.63918
491 2 22.344 35.8498 5.90791 22.344 35.8498 5.90791
492 2 22.9323 33.595 3.66959 22.9323 33.595 3.66959
493 1 23.5852 33.6911 6.10845 23.5852 33.6911 6.10845
494 2 25.3445 34.8095 7.46863 25.3445 34.8095 7.46863
495 2 25.6523 32.7726 5.0856 25.6523 32.7726 5.0856
496 1 26.4833 35.0555 5.2603 26.4833 35.0555 5.2603
497 2 28.3959 36.1715 6.37053 28.3959 36.1715 6.37053
498 2 28.2671 33.7814 4.16947 28.2671 33.7814 4.16947
499 1 29.3219 33.7956 6.44263 29.3219 33.7956 6.44263
500 2 31.5712 34.3667 7.67074 31.5712 34.3667 7.67074
501 2 30.8665 32.4981 4.8548 30.8665 32.4981 4.8548
502 1 32.2001 34.6495 5.23493 32.2001 34.6495 5.23493
503 2 34.5563 35.3781 6.10849 34.5563 35.3781 6.10849
504 2 33.7809 33.3491 3.69011 33.7809 33.3491 3.69011
505 1 35.0629 32.9872 5.83299 35.0629 32.9872 5.83299
506 2 37.5403 33.1773 6.53332 37.5403 33.1773 6.53332
507 2 36.2272 31.9648 3.77851 36.2272 31.9648 3.77851
508 1 37.8804 33.8658 4.1617 37.8804 33.8658 4.1617
509 2 40.1922 33.9346 5.05893 40.1922 33.9346 5.05893
510 2 39.0771 32.7716 2.18895 39.0771 32.7716 2.18895
511 1 40.3991 31.6857 4.00129 40.3991 31.6857 4.00129
512 2 42.8636 31.4067 4.50855 42.8636 31.4067 4.50855
513 2 41.244 31.2787 1.65902 41.244 31.2787 1.65902
514 1 43.1747 32.6286 2.32095 43.1747 32.6286 2.32095
515 2 45.6746 31.8384 2.84695 45.6746 31.8384 2.84695
516 2 44.2432 32.4775 0.0408787 44.2432 32.4775 0.0408787
517 1 45.1544 30.1133 0.83218 45.1544 30.1133 0.83218
518 2 47.2214 28.9302 -0.131562 47.2214 28.9302 -0.131562
519 2 44.4635 29.9023 -1.57366 44.4635 29.9023 -1.57366
520 1 49.4774 32.5444 2.06122 49.4774 32.5444 2.06122
521 2 51.0699 33.7918 3.65632 51.0699 33.7918 3.65632
522 2 51.7479 32.085 0.95081 51.7479 32.085 0.95081
523 1 52.3799 31.5458 3.34596 52.3799 31.5458 3.34596
524 2 53.8527 32.8371 4.80162 53.8527 32.8371 4.80162
525 2 54.5664 30.6658 2.51798 54.5664 30.6658 2.51798
526 1 55.1895 33.0932 2.62417 55.1895 33.0932 2.62417
527 2 56.9121 34.2573 4.00549 56.9121 34.2573 4.00549
528 2 57.2287 32.0748 1.60858 57.2287 32.0748 1.60858
529 1 57.9293 32.0072 4.01913 57.9293 32.0072 4.01913
530 2 59.6971 33.2653 5.31701 59.6971 33.2653 5.31701
531 2 60.0634 30.9048 2.96618 60.0634 30.9048 2.96618
532 1 60.8967 33.3117 3.10508 60.8967 33.3117 3.10508
533 2 62.7466 34.5567 4.28207 62.7466 34.5567 4.28207
534 2 62.7138 32.2046 1.98576 62.7138 32.2046 1.98576
535 1 63.704 32.2002 4.35742 63.704 32.2002 4.35742
536 2 13.8667 33.5408 5.85398 65.2775 33.5408 5.85398
537 2 14.5312 31.3052 3.48244 65.942 31.3052 3.48244
538 1 15.1694 33.7068 3.66665 66.5802 33.7068 3.66665
539 2 16.7496 35.1527 5.09177 68.1604 35.1527 5.09177
540 2 17.3602 32.6677 2.99154 68.771 32.6677 2.99154
541 1 18.0448 35.0916 2.88973 18.0448 35.0916 2.88973
542 2 19.4988 36.6298 4.36737 19.4988 36.6298 4.36737
543 2 20.3155 34.2522 2.22732 20.3155 34.2522 2.22732
544 1 20.7525 36.6821 2.25942 20.7525 36.6821 2.25942
545 2 22.5522 38.096 3.51054 22.5522 38.096 3.51054