ITEM: TIMESTEP
3303000
ITEM: NUMBER OF ATOMS
810
ITEM: BOX BOUNDS xy xz yz pp pp pp
8.0341777045796159e-01 6.8532518347679428e+01 1.6318331118136918e+01
8.0582000660415243e-01 5.0210394993394715e+01 0.0000000000000000e+00
-1.0000000000000000e+01 1.0000000000000000e+01 0.0000000000000000e+00
ITEM: ATOMS id type x y z xu yu zu
1 1 66.2009 46.8911 -8.29695 -1.52816 -2.51347 -8.29695
2 2 16.8033 48.0212 -6.94235 0.484948 -1.3834 -6.94235
3 2 16.7573 45.7158 -9.3791 0.43896 -3.68874 -9.3791
4 1 17.6821 48.0494 -9.22524 1.36378 -1.35516 -9.22524
5 2 19.3407 49.4668 -7.94851 3.02236 0.0622196 -7.94851
6 2 19.8505 47.1592 9.83035 3.5322 -2.24534 -10.1697
7 1 20.4938 47.251 -7.68979 4.17542 -2.15358 -7.68979
8 2 22.1009 48.6932 -6.3743 5.78253 -0.7114 -6.3743
9 2 22.7473 46.1262 -8.39577 6.42897 -3.27833 -8.39577
10 1 23.3301 48.5884 -8.5607 7.01178 -0.816186 -8.5607
11 2 24.6669 50.0726 -7.0361 8.34858 0.667994 -7.0361
12 2 25.6205 47.8428 -9.1891 9.3022 -1.56174 -9.1891
13 1 26.0902 47.9986 -6.73734 9.77188 -1.406 -6.73734
14 2 27.5952 49.3637 -5.18215 11.2769 -0.0409207 -5.18215
15 2 28.2294 47.2662 -7.56758 11.911 -2.1384 -7.56758
16 1 28.9117 49.7031 -7.19617 12.5933 0.298481 -7.19617
17 2 14.2647 1.72114 -5.92136 14.2647 1.72114 -5.92136
18 2 31.0596 48.7191 -8.04239 14.7413 -0.68549 -8.04239
19 1 31.7639 48.8866 -5.64359 15.4455 -0.517975 -5.64359
20 2 33.7216 50.018 -4.48554 17.4032 0.613422 -4.48554
21 2 33.7317 47.6742 -6.82296 17.4133 -1.73041 -6.82296
22 1 34.7613 49.9387 -6.79346 18.443 0.534079 -6.79346
23 2 20.522 1.80189 -5.85445 20.522 1.80189 -5.85445
24 2 36.6753 48.5762 -7.71018 20.3569 -0.828347 -7.71018
25 1 37.5127 48.9375 -5.38031 21.1943 -0.46704 -5.38031
26 2 38.9633 50.0618 -3.61151 22.6449 0.657178 -3.61151
27 2 39.7868 49.0376 -6.11606 23.4685 -0.366989 -6.11606
28 1 27.9472 4.11617 1.93372 27.9472 4.11617 1.93372
29 2 30.1128 3.04597 1.50107 30.1128 3.04597 1.50107
30 2 27.9779 4.2802 -0.575461 27.9779 4.2802 -0.575461
31 1 28.8051 1.90414 -0.367027 28.8051 1.90414 -0.367027
32 2 31.1536 1.08692 -0.685251 31.1536 1.08692 -0.685251
33 2 29.1727 2.07142 -2.8348 29.1727 2.07142 -2.8348
34 1 31.4755 2.79839 -2.38371 31.4755 2.79839 -2.38371
35 2 33.9868 2.34581 -2.16037 33.9868 2.34581 -2.16037
36 2 31.9965 2.35183 -4.78067 31.9965 2.35183 -4.78067
37 1 49.7099 49.8184 -3.74705 33.3915 0.413794 -3.74705
38 2 52.2073 49.7565 -3.33563 35.889 0.351939 -3.33563
39 2 50.544 49.1205 -6.04951 34.2257 -0.284122 -6.04951
40 1 36.101 1.38373 -5.67659 36.101 1.38373 -5.67659
41 2 38.4977 1.35456 -4.85816 38.4977 1.35456 -4.85816
42 2 53.5938 49.9758 -7.74278 37.2755 0.571209 -7.74278
43 1 54.89 48.5658 -6.11769 38.5716 -0.838785 -6.11769
44 2 57.2404 48.8458 -5.26292 40.922 -0.558769 -5.26292
45 2 56.0425 47.5361 -7.99444 39.7241 -1.86844 -7.99444
46 1 57.8099 49.528 -7.68544 41.4916 0.123426 -7.68544
47 2 60.0595 50.0891 -6.79383 43.7411 0.684529 -6.79383
48 2 59.215 48.2768 -9.46757 42.8967 -1.12778 -9.46757
49 1 60.4987 47.6367 -7.4661 44.1804 -1.76786 -7.4661
50 2 62.8096 48.1819 -6.47864 46.4912 -1.22263 -6.47864
51 2 61.9125 46.5117 -9.25873 45.5942 -2.89283 -9.25873
52 1 63.334 48.5413 -8.92294 47.0157 -0.863246 -8.92294
53 2 65.523 49.2437 -7.80773 49.2047 -0.16085 -7.80773
54 2 64.9252 47.4057 9.58919 48.6068 -1.99887 -10.4108
55 1 66.1751 49.4391 9.84063 -1.55398 0.0345581 -10.1594
56 2 51.898 1.06338 -8.98992 0.487234 1.06338 -8.98992
57 2 16.7343 48.461 8.50546 0.416016 -0.943554 -11.4945
58 1 1.3438 1.29274 8.68234 1.3438 1.29274 -11.3177
59 2 3.31615 2.39558 10.0069 3.31615 2.39558 -9.99313
60 2 19.608 49.6008 7.50338 3.28963 0.196264 -12.4966
61 1 20.4746 49.5446 9.91575 4.15625 0.14005 -10.0842
62 2 5.89697 1.47985 -8.66237 5.89697 1.47985 -8.66237
63 2 22.7112 48.6592 9.0468 6.39288 -0.745391 -10.9532
64 1 7.11776 1.71348 9.21875 7.11776 1.71348 -10.7813
65 2 8.52426 3.15926 -9.37014 8.52426 3.15926 -9.37014
66 2 9.23663 0.828509 8.53065 9.23663 0.828509 -11.4693
67 1 9.80756 0.952933 -9.04571 9.80756 0.952933 -9.04571
68 2 11.3267 2.42063 -7.58707 11.3267 2.42063 -7.58707
69 2 28.467 49.3898 -9.71634 12.1487 -0.0147859 -9.71634
70 1 12.6 2.44926 -9.7148 12.6 2.44926 -9.7148
71 2 14.6404 3.75972 -8.93107 14.6404 3.75972 -8.93107
72 2 14.6383 1.25982 9.43293 14.6383 1.25982 -10.5671
73 1 15.5551 1.58968 -8.11397 15.5551 1.58968 -8.11397
74 2 17.2091 2.71169 -6.7402 17.2091 2.71169 -6.7402
75 2 17.7669 1.13623 -9.10797 17.7669 1.13623 -9.10797
76 1 26.6827 8.29147 6.80345 26.6827 8.29147 6.80345
77 2 28.9262 7.25855 6.21219 28.9262 7.25855 6.21219
78 2 26.5611 8.51936 4.39858 26.5611 8.51936 4.39858
79 1 27.4353 6.12636 4.55707 27.4353 6.12636 4.55707
80 2 29.5626 5.29483 3.53561 29.5626 5.29483 3.53561
81 2 27.0221 6.48367 2.04952 27.0221 6.48367 2.04952
82 1 29.454 7.29474 2.00256 29.454 7.29474 2.00256
83 2 31.6582 6.33911 1.47589 31.6582 6.33911 1.47589
84 2 29.2801 7.26846 -0.562502 29.2801 7.26846 -0.562502
85 1 30.3263 5.04531 -0.273501 30.3263 5.04531 -0.273501
86 2 32.6781 4.33544 -0.678255 32.6781 4.33544 -0.678255
87 2 30.2449 4.92484 -2.85295 30.2449 4.92484 -2.85295
88 1 32.6294 6.03161 -2.54999 32.6294 6.03161 -2.54999
89 2 35.0915 5.43185 -2.79257 35.0915 5.43185 -2.79257
90 2 32.7131 5.73928 -5.01384 32.7131 5.73928 -5.01384
91 1 34.1284 3.71787 -4.32865 34.1284 3.71787 -4.32865
92 2 36.6524 3.30919 -4.07671 36.6524 3.30919 -4.07671
93 2 34.7709 3.2251 -6.73253 34.7709 3.2251 -6.73253
94 1 36.7841 4.62744 -6.16805 36.7841 4.62744 -6.16805
95 2 39.2339 4.31629 -5.76244 39.2339 4.31629 -5.76244
96 2 37.4628 3.98503 -8.47452 37.4628 3.98503 -8.47452
97 1 38.9859 2.3247 -7.22176 38.9859 2.3247 -7.22176
98 2 41.4808 2.38352 -6.52198 41.4808 2.38352 -6.52198
99 2 40.0847 1.43421 -9.42001 40.0847 1.43421 -9.42001
100 1 41.7724 3.1942 -8.88955 41.7724 3.1942 -8.88955
101 2 44.1579 3.20052 -8.1752 44.1579 3.20052 -8.1752
102 2 42.7066 2.30944 9.05909 42.7066 2.30944 -10.9409
103 1 44.227 0.97942 -9.28453 44.227 0.97942 -9.28453
104 2 46.3927 1.42187 -8.17277 46.3927 1.42187 -8.17277
105 2 62.1572 49.2636 8.981 45.8389 -0.140941 -11.019
106 1 47.1305 1.90598 9.45444 47.1305 1.90598 -10.5456
107 2 49.3732 2.4108 -9.49761 49.3732 2.4108 -9.49761
108 2 64.9696 50.206 7.74137 48.6513 0.801389 -12.2586
109 1 50.0588 2.8243 8.16112 -1.35193 2.8243 -11.8389
110 2 52.2362 3.64604 9.19806 0.825393 3.64604 -10.8019
111 2 51.607 1.76307 6.57564 0.196187 1.76307 -13.4244
112 1 52.8744 3.91816 6.77927 1.46365 3.91816 -13.2207
113 2 3.48526 4.82644 7.97213 3.48526 4.82644 -12.0279
114 2 3.21135 2.83576 5.43793 3.21135 2.83576 -14.5621
115 1 4.31912 2.46655 7.67669 4.31912 2.46655 -12.3233
116 2 5.88223 3.80762 9.14046 5.88223 3.80762 -10.8595
117 2 6.56073 1.59264 6.76631 6.56073 1.59264 -13.2337
118 1 7.17673 3.97914 6.98929 7.17673 3.97914 -13.0107
119 2 8.95275 5.35472 7.85267 8.95275 5.35472 -12.1473
120 2 9.37254 3.08636 6.11844 9.37254 3.08636 -13.8816
121 1 9.83129 3.15375 8.56494 9.83129 3.15375 -11.4351
122 2 11.3454 4.55432 9.9233 11.3454 4.55432 -10.0767
123 2 12.2068 2.75372 7.80871 12.2068 2.75372 -12.1913
124 1 24.9058 12.6791 -8.72321 24.9058 12.6791 11.2768
125 2 27.2441 11.8648 -9.10628 27.2441 11.8648 10.8937
126 2 24.7937 12.551 8.76336 24.7937 12.551 8.76336
127 1 26.0007 10.366 9.30513 26.0007 10.366 9.30513
128 2 28.1653 9.26745 8.6186 28.1653 9.26745 8.6186
129 2 25.9207 10.7585 6.8732 25.9207 10.7585 6.8732
130 1 28.3667 11.2243 7.1033 28.3667 11.2243 7.1033
131 2 30.5365 10.2003 6.45607 30.5365 10.2003 6.45607
132 2 28.1035 11.5021 4.61209 28.1035 11.5021 4.61209
133 1 29.0492 9.23132 4.66676 29.0492 9.23132 4.66676
134 2 31.0323 8.06244 3.79629 31.0323 8.06244 3.79629
135 2 28.6647 9.61323 2.25273 28.6647 9.61323 2.25273
136 1 31.1129 10.1461 2.26012 31.1129 10.1461 2.26012
137 2 33.1627 9.04893 1.44776 33.1627 9.04893 1.44776
138 2 30.6263 10.44 -0.116575 30.6263 10.44 -0.116575
139 1 31.6223 8.10184 -0.254159 31.6223 8.10184 -0.254159
140 2 33.9093 7.197 -0.759481 33.9093 7.197 -0.759481
141 2 31.4451 8.22246 -2.7887 31.4451 8.22246 -2.7887
142 1 33.8337 9.10681 -2.48689 33.8337 9.10681 -2.48689
143 2 36.1955 8.48919 -3.0388 36.1955 8.48919 -3.0388
144 2 33.7522 9.07985 -5.11943 33.7522 9.07985 -5.11943
145 1 34.9445 6.99066 -4.70902 34.9445 6.99066 -4.70902
146 2 37.4294 6.4231 -4.52126 37.4294 6.4231 -4.52126
147 2 35.4864 6.50073 -7.17007 35.4864 6.50073 -7.17007
148 1 37.5605 7.89175 -6.66855 37.5605 7.89175 -6.66855
149 2 39.9066 7.18729 -6.05103 39.9066 7.18729 -6.05103
150 2 38.4781 7.5553 -9.0877 38.4781 7.5553 -9.0877
151 1 39.5141 5.59264 -7.95064 39.5141 5.59264 -7.95064
152 2 41.9883 5.29253 -7.44349 41.9883 5.29253 -7.44349
153 2 40.5642 4.8661 9.71238 40.5642 4.8661 -10.2876
154 1 42.2863 6.56256 -9.65245 42.2863 6.56256 -9.65245
155 2 44.6169 6.10132 -8.92613 44.6169 6.10132 -8.92613
156 2 43.1838 5.80968 8.12752 43.1838 5.80968 -11.8725
157 1 44.4927 4.12707 9.43728 44.4927 4.12707 -10.5627
158 2 46.7853 4.23929 -9.55468 46.7853 4.23929 -9.55468
159 2 45.8084 2.98278 7.63394 45.8084 2.98278 -12.3661
160 1 47.4593 4.88395 7.98424 47.4593 4.88395 -12.0158
161 2 49.7806 5.11873 8.87496 49.7806 5.11873 -11.125
162 2 48.6319 3.64019 6.19474 48.6319 3.64019 -13.8053
163 1 50.2234 5.71548 6.43236 -1.18735 5.71548 -13.5676
164 2 52.3495 6.24808 7.4838 0.938758 6.24808 -12.5162
165 2 51.7183 4.62672 4.73359 0.307492 4.62672 -15.2664
166 1 52.9055 6.78362 5.0544 1.49473 6.78362 -14.9456
167 2 3.54525 7.33937 6.27486 3.54525 7.33937 -13.7251
168 2 3.48182 6.09208 3.62128 3.48182 6.09208 -16.3787
169 1 4.31021 5.06426 5.74121 4.31021 5.06426 -14.2588
170 2 6.05801 6.25425 7.22457 6.05801 6.25425 -12.7754
171 2 6.58455 4.72824 4.67969 6.58455 4.72824 -15.3203
172 1 21.1647 17.241 -5.85591 21.1647 17.241 14.1441
173 2 23.7038 16.9669 -5.48872 23.7038 16.9669 14.5113
174 2 22.0242 16.7736 -8.23796 22.0242 16.7736 11.762
175 1 23.2763 14.9683 -7.07639 23.2763 14.9683 12.9236
176 2 25.7311 14.2657 -6.96868 25.7311 14.2657 13.0313
177 2 23.7159 14.688 -9.5209 23.7159 14.688 10.4791
178 1 25.8518 15.8443 -8.88286 25.8518 15.8443 11.1171
179 2 28.0605 14.7837 -9.13659 28.0605 14.7837 10.8634
180 2 25.9854 15.6642 8.51845 25.9854 15.6642 8.51845
181 1 27.0481 13.4917 9.06212 27.0481 13.4917 9.06212
182 2 29.4995 12.7823 8.83884 29.4995 12.7823 8.83884
183 2 27.1079 13.3967 6.63999 27.1079 13.3967 6.63999
184 1 29.4448 14.418 6.95949 29.4448 14.418 6.95949
185 2 31.6845 13.4627 6.57009 31.6845 13.4627 6.57009
186 2 29.3556 14.449 4.5373 29.3556 14.449 4.5373
187 1 30.5573 12.1215 4.78502 30.5573 12.1215 4.78502
188 2 32.7011 11.1559 3.93641 32.7011 11.1559 3.93641
189 2 30.2139 12.4659 2.32387 30.2139 12.4659 2.32387
190 1 32.6001 13.1784 2.56635 32.6001 13.1784 2.56635
191 2 34.7333 12.3018 1.55789 34.7333 12.3018 1.55789
192 2 31.9662 13.4528 0.139138 31.9662 13.4528 0.139138
193 1 32.9938 11.2349 -0.0519464 32.9938 11.2349 -0.0519464
194 2 35.3503 10.5668 -0.909077 35.3503 10.5668 -0.909077
195 2 32.5327 11.2701 -2.55171 32.5327 11.2701 -2.55171
196 1 34.887 12.3057 -2.69213 34.887 12.3057 -2.69213
197 2 37.1799 11.5108 -3.28164 37.1799 11.5108 -3.28164
198 2 34.6482 12.4024 -5.11296 34.6482 12.4024 -5.11296
199 1 36.0063 10.106 -4.98339 36.0063 10.106 -4.98339
200 2 38.4991 9.4854 -5.00645 38.4991 9.4854 -5.00645
201 2 36.3053 9.94371 -7.46094 36.3053 9.94371 -7.46094
202 1 38.4004 11.0696 -6.95755 38.4004 11.0696 -6.95755
203 2 40.9248 10.6599 -6.60315 40.9248 10.6599 -6.60315
204 2 39.0776 10.5886 -9.32894 39.0776 10.5886 -9.32894
205 1 40.4427 8.74174 -8.1341 40.4427 8.74174 -8.1341
206 2 42.7803 8.04554 -7.54383 42.7803 8.04554 -7.54383
207 2 41.5451 8.82092 9.40822 41.5451 8.82092 -10.5918
208 1 43.5988 9.72603 -9.29797 43.5988 9.72603 -9.29797
209 2 45.9075 8.61088 -9.25135 45.9075 8.61088 -9.25135
210 2 45.307 8.95067 6.97568 45.307 8.95067 -13.0243
211 1 45.1258 7.27811 8.79824 45.1258 7.27811 -11.2018
212 2 47.6128 6.8862 9.33561 47.6128 6.8862 -10.6644
213 2 45.9884 6.22169 6.55971 45.9884 6.22169 -13.4403
214 1 47.791 8.00442 7.07385 47.791 8.00442 -12.9261
215 2 50.1233 7.9094 7.73725 50.1233 7.9094 -12.2628
216 2 48.7389 7.02549 4.94677 48.7389 7.02549 -15.0532
217 1 50.3923 8.84789 5.4121 -1.01846 8.84789 -14.5879
218 2 52.9045 9.15901 5.48665 1.49371 9.15901 -14.5134
219 2 51.5295 8.00494 3.27626 0.118736 8.00494 -16.7237
220 1 16.259 21.2588 -5.34765 16.259 21.2588 14.6523
221 2 18.6208 21.5615 -4.37853 18.6208 21.5615 15.6215
222 2 17.7405 20.7779 -7.30674 17.7405 20.7779 12.6933
223 1 18.8703 19.4015 -5.54735 18.8703 19.4015 14.4526
224 2 21.3113 19.5008 -4.77627 21.3113 19.5008 15.2237
225 2 20.0065 18.7155 -7.63724 20.0065 18.7155 12.3628
226 1 21.7345 20.3753 -6.9788 21.7345 20.3753 13.0212
227 2 23.993 20.1942 -6.05519 23.993 20.1942 13.9448
228 2 22.8382 19.6881 -9.0565 22.8382 19.6881 10.9435
229 1 24.0208 18.2567 -7.5222 24.0208 18.2567 12.4778
230 2 26.3832 17.7353 -7.22672 26.3832 17.7353 12.7733
231 2 24.5966 17.7304 -9.91876 24.5966 17.7304 10.0812
232 1 26.6474 19.0815 -9.36147 26.6474 19.0815 10.6385
233 2 28.9896 18.3896 -9.27446 28.9896 18.3896 10.7255
234 2 26.9962 18.6763 8.3025 26.9962 18.6763 8.3025
235 1 28.2122 16.7107 9.03935 28.2122 16.7107 9.03935
236 2 30.4904 15.8555 8.71737 30.4904 15.8555 8.71737
237 2 28.3253 16.5507 6.52732 28.3253 16.5507 6.52732
238 1 30.5739 17.5095 6.918 30.5739 17.5095 6.918
239 2 32.8927 16.6286 6.73342 32.8927 16.6286 6.73342
240 2 30.6949 17.5037 4.41678 30.6949 17.5037 4.41678
241 1 31.6924 15.3071 4.90263 31.6924 15.3071 4.90263
242 2 33.9394 14.4084 4.29652 33.9394 14.4084 4.29652
243 2 31.5849 15.508 2.36835 31.5849 15.508 2.36835
244 1 33.9083 16.268 2.55054 33.9083 16.268 2.55054
245 2 35.8766 15.2466 1.64119 35.8766 15.2466 1.64119
246 2 33.5012 16.6914 0.0185013 33.5012 16.6914 0.0185013
247 1 34.3964 14.2691 0.00977817 34.3964 14.2691 0.00977817
248 2 36.5375 13.4432 -1.18366 36.5375 13.4432 -1.18366
249 2 33.661 14.6119 -2.39136 33.661 14.6119 -2.39136
250 1 36.0271 15.3504 -2.63445 36.0271 15.3504 -2.63445
251 2 38.299 14.5668 -3.34074 38.299 14.5668 -3.34074
252 2 35.7156 15.582 -5.12672 35.7156 15.582 -5.12672
253 1 36.8871 13.3493 -5.02528 36.8871 13.3493 -5.02528
254 2 39.2874 12.6239 -5.20131 39.2874 12.6239 -5.20131
255 2 37.1901 13.0846 -7.60499 37.1901 13.0846 -7.60499
256 1 39.3408 14.3159 -7.07745 39.3408 14.3159 -7.07745
257 2 41.6268 13.6393 -6.87633 41.6268 13.6393 -6.87633
258 2 39.9408 13.9424 -9.61987 39.9408 13.9424 -9.61987
259 1 41.2154 11.9015 -8.79374 41.2154 11.9015 -8.79374
260 2 43.4091 11.615 -7.73764 43.4091 11.615 -7.73764
261 2 43.6847 11.0184 8.66049 43.6847 11.0184 -11.3395
262 1 44.1631 12.8732 -9.80073 44.1631 12.8732 -9.80073
263 2 45.8601 11.178 -8.7714 45.8601 11.178 -8.7714
264 2 46.1559 11.7147 6.60522 46.1559 11.7147 -13.3948
265 1 46.2399 10.4758 8.90164 46.2399 10.4758 -11.0984
266 2 48.6119 9.68117 8.82967 48.6119 9.68117 -11.1703
267 2 47.9934 9.6619 5.18415 47.9934 9.6619 -14.8158
268 1 48.6172 11.3938 6.86235 48.6172 11.3938 -13.1377
269 2 51.0178 10.6574 7.2723 51.0178 10.6574 -12.7277
270 2 50.1572 11.3727 4.79647 50.1572 11.3727 -15.2035
271 1 13.6983 23.0988 -5.73463 13.6983 23.0988 14.2654
272 2 15.9545 23.6265 -4.66975 15.9545 23.6265 15.3302
273 2 15.1498 22.1777 -7.42778 15.1498 22.1777 12.5722
274 1 16.5197 24.2323 -6.90389 16.5197 24.2323 13.0961
275 2 18.6303 24.785 -5.61045 18.6303 24.785 14.3895
276 2 18.194 23.4273 -8.56677 18.194 23.4273 11.4332
277 1 19.2428 22.4714 -6.50302 19.2428 22.4714 13.497
278 2 21.562 22.5517 -5.56554 21.562 22.5517 14.4345
279 2 20.4517 21.6636 -8.60534 20.4517 21.6636 11.3947
280 1 22.0845 23.4541 -7.84724 22.0845 23.4541 12.1528
281 2 24.3561 23.5359 -6.95547 24.3561 23.5359 13.0445
282 2 23.2435 22.6121 -9.91214 23.2435 22.6121 10.0879
283 1 24.6897 21.3533 -8.18542 24.6897 21.3533 11.8146
284 2 27.0356 20.9987 -7.73132 27.0356 20.9987 12.2687
285 2 25.2783 20.8035 9.43486 25.2783 20.8035 9.43486
286 1 27.2923 22.317 -9.81412 27.2923 22.317 10.1859
287 2 29.6485 21.6729 -9.63922 29.6485 21.6729 10.3608
288 2 27.8497 21.8355 7.68652 27.8497 21.8355 7.68652
289 1 29.1532 19.8544 8.66471 29.1532 19.8544 8.66471
290 2 31.5541 18.9361 8.69076 31.5541 18.9361 8.69076
291 2 29.4901 19.5858 6.21247 29.4901 19.5858 6.21247
292 1 31.7594 20.6991 6.82887 31.7594 20.6991 6.82887
293 2 34.0299 19.8697 6.76468 34.0299 19.8697 6.76468
294 2 31.8368 20.5837 4.41598 31.8368 20.5837 4.41598
295 1 32.9495 18.4125 4.95365 32.9495 18.4125 4.95365
296 2 35.2433 17.5695 4.30017 35.2433 17.5695 4.30017
297 2 32.7598 18.5547 2.42683 32.7598 18.5547 2.42683
298 1 35.1838 19.4036 2.5541 35.1838 19.4036 2.5541
299 2 37.444 18.3043 1.81402 37.444 18.3043 1.81402
300 2 34.9394 19.5909 0.00363199 34.9394 19.5909 0.00363199
301 1 35.8147 17.2708 0.15811 35.8147 17.2708 0.15811
302 2 37.7105 16.1832 -1.00011 37.7105 16.1832 -1.00011
303 2 35.0717 17.6122 -2.23941 35.0717 17.6122 -2.23941
304 1 37.5062 18.3182 -2.36516 37.5062 18.3182 -2.36516
305 2 39.6425 17.9752 -3.96673 39.6425 17.9752 -3.96673
306 2 36.4542 18.4705 -4.62626 36.4542 18.4705 -4.62626
307 1 37.9646 16.4553 -4.97867 37.9646 16.4553 -4.97867
308 2 40.2309 15.4566 -4.99195 40.2309 15.4566 -4.99195
309 2 38.402 16.5627 -7.46274 38.402 16.5627 -7.46274
310 1 40.5235 17.3866 -6.57653 40.5235 17.3866 -6.57653
311 2 42.7971 16.4007 -6.79645 42.7971 16.4007 -6.79645
312 2 40.7009 17.3922 -9.04409 40.7009 17.3922 -9.04409
313 1 41.9995 15.2939 -8.90383 41.9995 15.2939 -8.90383
314 2 44.2555 14.6329 -7.97383 44.2555 14.6329 -7.97383
315 2 44.2395 14.4126 8.1855 44.2395 14.4126 -11.8145
316 1 45.1225 16.0062 9.98634 45.1225 16.0062 -10.0137
317 2 46.5638 14.0459 -9.45824 46.5638 14.0459 -9.45824
318 2 47.1845 16.2225 8.61585 47.1845 16.2225 -11.3841
319 1 46.663 13.7438 8.10372 46.663 13.7438 -11.8963
320 2 48.2635 12.2374 9.27701 48.2635 12.2374 -10.723
321 2 48.8001 13.9175 7.0462 48.8001 13.9175 -12.9538
322 1 10.9311 24.3567 -6.79646 62.3419 24.3567 13.2035
323 2 12.7506 25.4266 -5.51268 64.1614 25.4266 14.4873
324 2 12.8007 23.6058 -8.10167 64.2114 23.6058 11.8983
325 1 13.7891 25.7764 -7.68597 13.7891 25.7764 12.314
326 2 15.7255 26.4044 -6.32525 15.7255 26.4044 13.6748
327 2 15.5118 24.8135 -9.10603 15.5118 24.8135 10.894
328 1 16.6335 27.0313 -8.67538 16.6335 27.0313 11.3246
329 2 18.7299 27.7901 -7.45541 18.7299 27.7901 12.5446
330 2 18.4125 26.0821 9.82916 18.4125 26.0821 9.82916
331 1 19.4272 25.4587 -7.95162 19.4272 25.4587 12.0484
332 2 21.6173 25.7524 -6.80173 21.6173 25.7524 13.1983
333 2 20.8744 24.5398 -9.79215 20.8744 24.5398 10.2079
334 1 22.3472 26.5495 -9.18316 22.3472 26.5495 10.8168
335 2 24.6072 26.7172 -8.29357 24.6072 26.7172 11.7064
336 2 23.6389 25.5857 8.91518 23.6389 25.5857 8.91518
337 1 24.9031 24.4935 -9.29125 24.9031 24.4935 10.7088
338 2 27.3928 24.6837 -8.61493 27.3928 24.6837 11.3851
339 2 25.9493 23.7891 8.62135 25.9493 23.7891 8.62135
340 1 27.7087 25.3896 9.13437 27.7087 25.3896 9.13437
341 2 30.0964 25.1999 9.78236 30.0964 25.1999 9.78236
342 2 28.5561 24.6192 6.95565 28.5561 24.6192 6.95565
343 1 30.0045 23.1056 8.34923 30.0045 23.1056 8.34923
344 2 32.42 22.4279 8.55479 32.42 22.4279 8.55479
345 2 30.5407 22.751 5.87974 30.5407 22.751 5.87974
346 1 32.704 23.9566 6.51315 32.704 23.9566 6.51315
347 2 35.0292 23.2096 6.59294 35.0292 23.2096 6.59294
348 2 33.0274 23.63 4.06501 33.0274 23.63 4.06501
349 1 34.2038 21.5661 4.84173 34.2038 21.5661 4.84173
350 2 36.4914 20.7463 4.36422 36.4914 20.7463 4.36422
351 2 34.1798 21.6217 2.25862 34.1798 21.6217 2.25862
352 1 36.4155 22.4688 2.61692 36.4155 22.4688 2.61692
353 2 38.6269 21.4366 2.13536 38.6269 21.4366 2.13536
354 2 36.377 22.567 0.0781423 36.377 22.567 0.0781423
355 1 37.2917 20.2806 0.257529 37.2917 20.2806 0.257529
356 2 39.2945 19.3479 -0.798706 39.2945 19.3479 -0.798706
357 2 36.6049 20.6367 -2.17197 36.6049 20.6367 -2.17197
358 1 38.9923 21.3862 -2.24409 38.9923 21.3862 -2.24409
359 2 40.7369 20.4614 -4.25171 40.7369 20.4614 -4.25171
360 2 37.745 22.1504 -4.39347 37.745 22.1504 -4.39347
361 1 38.5039 19.8924 -5.24696 38.5039 19.8924 -5.24696
362 2 42.6205 18.8571 -5.88156 42.6205 18.8571 -5.88156
363 2 39.2871 19.3258 -7.58918 39.2871 19.3258 -7.58918
364 1 41.2998 20.6095 -6.89943 41.2998 20.6095 -6.89943
365 2 43.8243 20.8213 -7.68039 43.8243 20.8213 -7.68039
366 2 41.563 20.0828 -9.33112 41.563 20.0828 -9.33112
367 1 43.2353 18.3353 -8.46355 43.2353 18.3353 -8.46355
368 2 45.4264 17.1077 -7.79333 45.4264 17.1077 -7.79333
369 2 42.9928 16.9296 9.34499 42.9928 16.9296 -10.655
370 1 56.9747 25.7493 9.67423 56.9747 25.7493 9.67423
371 2 56.9836 27.956 -9.45926 56.9836 27.956 10.5407
372 2 59.4656 25.6844 9.19339 59.4656 25.6844 9.19339
373 1 59.6699 25.1266 -8.40146 59.6699 25.1266 11.5985
374 2 9.74134 26.5549 -6.96681 61.1521 26.5549 13.0332
375 2 10.3142 24.4404 -9.27957 61.725 24.4404 10.7204
376 1 11.0331 26.8697 -9.07894 62.4439 26.8697 10.9211
377 2 12.5949 27.9685 -7.45575 64.0057 27.9685 12.5443
378 2 13.1625 26.2383 9.92598 64.5733 26.2383 9.92598
379 1 13.8917 28.5346 -9.53884 13.8917 28.5346 10.4612
380 2 15.813 29.2569 -8.11544 15.813 29.2569 11.8846
381 2 15.8415 27.6608 9.0799 15.8415 27.6608 9.0799
382 1 16.6936 29.8457 9.65282 16.6936 29.8457 9.65282
383 2 18.7209 30.4342 -9.19171 18.7209 30.4342 10.8083
384 2 18.4086 28.9034 7.98116 18.4086 28.9034 7.98116
385 1 19.5225 28.2254 -9.82049 19.5225 28.2254 10.1795
386 2 21.6314 28.8874 -8.51491 21.6314 28.8874 11.4851
387 2 21.1891 27.305 8.5339 21.1891 27.305 8.5339
388 1 22.4855 29.3874 9.20902 22.4855 29.3874 9.20902
389 2 24.7363 29.7996 -9.8361 24.7363 29.7996 10.1639
390 2 23.8468 28.3928 7.36978 23.8468 28.3928 7.36978
391 1 25.1745 27.4444 9.287 25.1745 27.4444 9.287
392 2 27.5026 27.5773 -9.71728 27.5026 27.5773 10.2827
393 2 26.442 26.6273 7.33164 26.442 26.6273 7.33164
394 1 27.9947 28.3676 7.95176 27.9947 28.3676 7.95176
395 2 30.3723 28.2748 8.87287 30.3723 28.2748 8.87287
396 2 29.1858 27.8165 5.85087 29.1858 27.8165 5.85087
397 1 30.4852 26.2429 7.49989 30.4852 26.2429 7.49989
398 2 32.9882 26.043 8.1031 32.9882 26.043 8.1031
399 2 31.3024 25.8278 5.14422 31.3024 25.8278 5.14422
400 1 33.2833 27.2593 5.86802 33.2833 27.2593 5.86802
401 2 35.6081 26.6787 6.26471 35.6081 26.6787 6.26471
402 2 33.9384 26.7287 3.43044 33.9384 26.7287 3.43044
403 1 35.1102 24.8818 4.63127 35.1102 24.8818 4.63127
404 2 37.4341 23.9214 4.37915 37.4341 23.9214 4.37915
405 2 35.2204 24.6422 2.10871 35.2204 24.6422 2.10871
406 1 37.6247 25.6705 2.52807 37.6247 25.6705 2.52807
407 2 39.9298 24.7554 2.21431 39.9298 24.7554 2.21431
408 2 37.7314 25.829 0.0796339 37.7314 25.829 0.0796339
409 1 38.698 23.3902 0.438939 38.698 23.3902 0.438939
410 2 40.6741 22.2039 -0.435984 40.6741 22.2039 -0.435984
411 2 38.2951 23.8338 -2.09761 38.2951 23.8338 -2.09761
412 1 40.7999 24.3143 -1.96283 40.7999 24.3143 -1.96283
413 2 42.0874 22.7944 -3.4547 42.0874 22.7944 -3.4547
414 2 40.173 25.2485 -4.21968 40.173 25.2485 -4.21968
415 1 40.0942 22.8309 -4.89565 40.0942 22.8309 -4.89565
416 2 41.8323 23.2803 -6.56033 41.8323 23.2803 -6.56033
417 2 39.1209 21.8871 -6.96521 39.1209 21.8871 -6.96521
418 1 51.6563 27.1723 5.90038 51.6563 27.1723 5.90038
419 2 51.6599 29.3421 6.88305 51.6599 29.3421 6.88305
420 2 54.1006 27.2792 5.51539 54.1006 27.2792 5.51539
421 1 54.2515 26.4905 7.78899 54.2515 26.4905 7.78899
422 2 54.3374 28.7236 8.78904 54.3374 28.7236 8.78904
423 2 56.7933 26.552 7.39258 56.7933 26.552 7.39258
424 1 56.7582 28.7621 8.2657 56.7582 28.7621 8.2657
425 2 58.2403 30.2662 9.64803 58.2403 30.2662 9.64803
426 2 59.0125 28.0745 7.38784 59.0125 28.0745 7.38784
427 1 59.5033 28.0783 9.82761 59.5033 28.0783 9.82761
428 2 61.1128 28.998 -8.44103 61.1128 28.998 11.559
429 2 10.3425 27.4497 8.57747 61.7532 27.4497 8.57747
430 1 10.97 29.7041 9.44483 62.3808 29.7041 9.44483
431 2 12.8459 30.8036 -9.30018 64.2566 30.8036 10.6998
432 2 12.9568 28.836 8.19963 64.3675 28.836 8.19963
433 1 13.8828 31.2312 8.418 13.8828 31.2312 8.418
434 2 15.6724 32.1846 9.8617 15.6724 32.1846 9.8617
435 2 15.8545 30.2678 7.23501 15.8545 30.2678 7.23501
436 1 16.8274 32.5024 7.66005 16.8274 32.5024 7.66005
437 2 18.676 33.5108 8.86408 18.676 33.5108 8.86408
438 2 18.6765 31.5233 6.32274 18.6765 31.5233 6.32274
439 1 19.632 31.0911 8.55452 19.632 31.0911 8.55452
440 2 21.761 31.7568 9.81889 21.761 31.7568 9.81889
441 2 21.4837 30.0441 7.05035 21.4837 30.0441 7.05035
442 1 22.5398 32.2985 7.49626 22.5398 32.2985 7.49626
443 2 24.782 32.6412 8.64253 24.782 32.6412 8.64253
444 2 24.0594 31.3192 5.70648 24.0594 31.3192 5.70648
445 1 25.325 30.3692 7.82004 25.325 30.3692 7.82004
446 2 27.6905 30.7052 8.89477 27.6905 30.7052 8.89477
447 2 26.927 29.6032 5.96546 26.927 29.6032 5.96546
448 1 28.3317 31.4742 6.62621 28.3317 31.4742 6.62621
449 2 30.5687 31.6867 7.74435 30.5687 31.6867 7.74435
450 2 29.737 30.6813 4.79699 29.737 30.6813 4.79699
451 1 30.9526 29.4437 6.65085 30.9526 29.4437 6.65085
452 2 33.4275 29.2822 7.35297 33.4275 29.2822 7.35297
453 2 32.0644 28.8753 4.39207 32.0644 28.8753 4.39207
454 1 33.9125 30.4741 5.21307 33.9125 30.4741 5.21307
455 2 36.3406 29.9882 5.58624 36.3406 29.9882 5.58624
456 2 34.6255 29.8329 2.83428 34.6255 29.8329 2.83428
457 1 36.0102 28.0946 4.11089 36.0102 28.0946 4.11089
458 2 38.4116 27.2759 4.21513 38.4116 27.2759 4.21513
459 2 36.4907 27.7886 1.72136 36.4907 27.7886 1.72136
460 1 38.6415 28.992 2.37233 38.6415 28.992 2.37233
461 2 41.1063 28.1882 2.24245 41.1063 28.1882 2.24245
462 2 39.0988 28.9668 -0.157945 39.0988 28.9668 -0.157945
463 1 40.018 26.7017 0.42659 40.018 26.7017 0.42659
464 2 42.1492 25.565 0.0530196 42.1492 25.565 0.0530196
465 2 39.9773 26.7517 -2.04715 39.9773 26.7517 -2.04715
466 1 42.3601 27.2874 -1.7976 42.3601 27.2874 -1.7976
467 2 43.3237 24.9035 -2.18158 43.3237 24.9035 -2.18158
468 2 42.0408 27.4164 -4.39484 42.0408 27.4164 -4.39484
469 1 42.5365 24.9574 -4.57922 42.5365 24.9574 -4.57922
470 2 49.1129 29.4811 4.87968 49.1129 29.4811 4.87968
471 2 51.4618 27.9515 3.68809 51.4618 27.9515 3.68809
472 1 51.4582 30.317 4.58418 51.4582 30.317 4.58418
473 2 52.6712 31.8466 6.11722 52.6712 31.8466 6.11722
474 2 53.7395 29.5259 3.90784 53.7395 29.5259 3.90784
475 1 54.1187 29.5401 6.51747 54.1187 29.5401 6.51747
476 2 55.6475 31.1403 8.06611 55.6475 31.1403 8.06611
477 2 56.4217 28.9011 5.74972 56.4217 28.9011 5.74972
478 1 56.9232 31.2892 5.99854 56.9232 31.2892 5.99854
479 2 58.5345 32.7306 7.31035 58.5345 32.7306 7.31035
480 2 59.1202 30.3618 5.16737 59.1202 30.3618 5.16737
481 1 59.6292 30.5381 7.55076 59.6292 30.5381 7.55076
482 2 61.0677 31.9278 9.14125 61.0677 31.9278 9.14125
483 2 10.4677 29.7043 6.93372 61.8785 29.7043 6.93372
484 1 62.4981 32.0999 7.0895 62.4981 32.0999 7.0895
485 2 12.7088 33.4371 8.42706 64.1195 33.4371 8.42706
486 2 13.2174 31.2799 6.02231 64.6281 31.2799 6.02231
487 1 13.9631 33.5485 6.25323 13.9631 33.5485 6.25323
488 2 15.8101 34.7992 7.70814 15.8101 34.7992 7.70814
489 2 16.1303 32.6094 5.27614 16.1303 32.6094 5.27614
490 1 16.9574 34.9713 5.47736 16.9574 34.9713 5.47736
491 2 18.9231 36.0888 6.65938 18.9231 36.0888 6.65938
492 2 18.8935 33.9336 4.29654 18.8935 33.9336 4.29654
493 1 19.7452 33.8233 6.65864 19.7452 33.8233 6.65864
494 2 21.8447 34.7012 7.871 21.8447 34.7012 7.871
495 2 21.5115 32.8337 5.22577 21.5115 32.8337 5.22577
496 1 22.808 34.893 5.56602 22.808 34.893 5.56602
497 2 24.9163 35.6161 6.83633 24.9163 35.6161 6.83633
498 2 24.4516 33.8123 4.02826 24.4516 33.8123 4.02826
499 1 25.5501 33.2874 6.17325 25.5501 33.2874 6.17325
500 2 27.7857 33.7439 7.35527 27.7857 33.7439 7.35527
501 2 27.1541 32.2944 4.54642 27.1541 32.2944 4.54642
502 1 28.5295 34.3158 5.12543 28.5295 34.3158 5.12543
503 2 30.6782 34.7569 6.36653 30.6782 34.7569 6.36653
504 2 30.138 33.56 3.37692 30.138 33.56 3.37692
505 1 31.3651 32.5129 5.40112 31.3651 32.5129 5.40112
506 2 33.6369 32.6312 6.37084 33.6369 32.6312 6.37084
507 2 32.7384 31.7536 3.51091 32.7384 31.7536 3.51091
508 1 34.2147 33.6759 4.09277 34.2147 33.6759 4.09277
509 2 36.6167 33.5 4.78545 36.6167 33.5 4.78545
510 2 35.0761 32.7867 2.019 35.0761 32.7867 2.019
511 1 36.4919 31.3507 3.49267 36.4919 31.3507 3.49267
512 2 39.0083 30.917 3.94473 39.0083 30.917 3.94473
513 2 37.278 30.7582 1.15451 37.278 30.7582 1.15451
514 1 39.2838 32.241 1.74108 39.2838 32.241 1.74108
515 2 41.747 31.7614 2.51778 41.747 31.7614 2.51778
516 2 40.4938 32.2171 -0.5486 40.4938 32.2171 -0.5486
517 1 41.449 29.9466 0.364867 41.449 29.9466 0.364867
518 2 43.571 28.4398 0.129162 43.571 28.4398 0.129162
519 2 41.426 29.5867 -2.2281 41.426 29.5867 -2.2281
520 1 45.7105 32.1865 1.85633 45.7105 32.1865 1.85633
521 2 47.3177 33.3317 3.2712 47.3177 33.3317 3.2712
522 2 47.9251 31.5059 0.716452 47.9251 31.5059 0.716452
523 1 48.5853 31.1689 3.08847 48.5853 31.1689 3.08847
524 2 50.0892 32.4671 4.67976 50.0892 32.4671 4.67976
525 2 50.751 30.5066 2.13857 50.751 30.5066 2.13857
526 1 51.3938 32.8238 2.53707 51.3938 32.8238 2.53707
527 2 52.9001 34.2123 3.98671 52.9001 34.2123 3.98671
528 2 53.655 32.041 1.66427 53.655 32.041 1.66427
529 1 54.2565 32.0257 4.11491 54.2565 32.0257 4.11491
530 2 55.7114 33.4952 5.57026 55.7114 33.4952 5.57026
531 2 56.4934 31.0879 3.4942 56.4934 31.0879 3.4942
532 1 57.1043 33.5873 3.50325 57.1043 33.5873 3.50325
533 2 58.7376 34.8875 4.93662 58.7376 34.8875 4.93662
534 2 59.2758 32.4349 2.74463 59.2758 32.4349 2.74463
535 1 59.879 32.7484 5.16557 59.879 32.7484 5.16557
536 2 61.3061 34.2548 6.51956 61.3061 34.2548 6.51956
537 2 62.1244 31.7894 4.56182 62.1244 31.7894 4.56182
538 1 62.6903 34.2196 4.4142 62.6903 34.2196 4.4142
539 2 12.6417 35.6648 5.9143 64.0525 35.6648 5.9143
540 2 13.6175 33.4927 3.72742 65.0283 33.4927 3.72742
541 1 14.1604 35.929 3.94993 14.1604 35.929 3.94993
542 2 15.933 37.1353 5.2963 15.933 37.1353 5.2963
543 2 16.2119 34.7372 3.09577 16.2119 34.7372 3.09577
544 1 17.1406 37.0628 2.93852 17.1406 37.0628 2.93852
545 2 18.7304 38.3365 4.317 18.7304 38.3365 4.317
546 2 19.2356 36.0952 1.97782 19.2356 36.0952 1.97782