ITEM: TIMESTEP
3187000
ITEM: NUMBER OF ATOMS
810
ITEM: BOX BOUNDS xy xz yz pp pp pp
8.0341777045796159e-01 6.7959425277832651e+01 1.5745238048290155e+01
8.0582000660415243e-01 5.0210394993394715e+01 0.0000000000000000e+00
-1.0000000000000000e+01 1.0000000000000000e+01 0.0000000000000000e+00
ITEM: ATOMS id type x y z xu yu zu
1 1 65.4423 46.9154 -8.26138 -1.71368 -2.4892 -8.26138
2 2 15.7957 47.9628 -6.96838 0.0504924 -1.44174 -6.96838
3 2 15.9274 46.1172 -9.6063 0.182187 -3.28742 -9.6063
4 1 16.9589 48.3072 -9.23609 1.21364 -1.0974 -9.23609
5 2 18.5497 49.3313 -7.5826 2.8045 -0.07324 -7.5826
6 2 19.0219 47.5476 9.66302 3.27665 -1.85698 -10.337
7 1 19.8116 47.1933 -7.93671 4.06633 -2.21123 -7.93671
8 2 21.236 48.3844 -6.31334 5.49079 -1.02018 -6.31334
9 2 22.1507 46.5115 -8.79929 6.4055 -2.89307 -8.79929
10 1 22.658 48.8316 -8.24121 6.91277 -0.572976 -8.24121
11 2 24.0326 50.2477 -6.64727 8.28737 0.84315 -6.64727
12 2 24.9627 48.2715 -9.0732 9.21749 -1.13311 -9.0732
13 1 25.4345 48.1081 -6.64608 9.6893 -1.29649 -6.64608
14 2 26.6791 49.4216 -4.99355 10.9339 0.0170409 -4.99355
15 2 27.6839 47.4247 -7.25551 11.9387 -1.97984 -7.25551
16 1 28.2086 49.8693 -6.86651 12.4633 0.464751 -6.86651
17 2 14.0233 1.72016 -5.23462 14.0233 1.72016 -5.23462
18 2 30.3822 49.0938 -7.85026 14.637 -0.310786 -7.85026
19 1 31.0657 48.9499 -5.40497 15.3205 -0.454636 -5.40497
20 2 32.5865 50.1455 -3.84652 16.8413 0.740925 -3.84652
21 2 33.344 48.1924 -6.26108 17.5988 -1.21218 -6.26108
22 1 18.2181 1.19325 -5.78202 18.2181 1.19325 -5.78202
23 2 20.1061 2.5952 -4.58623 20.1061 2.5952 -4.58623
24 2 36.3167 49.9704 -6.34901 20.5715 0.565869 -6.34901
25 1 36.6305 49.7161 -3.87959 20.8853 0.311573 -3.87959
26 2 22.994 1.42319 -2.93498 22.994 1.42319 -2.93498
27 2 38.8865 48.8934 -4.97403 23.1413 -0.51113 -4.97403
28 1 27.9586 4.24925 2.20597 27.9586 4.24925 2.20597
29 2 30.3507 3.41008 1.63192 30.3507 3.41008 1.63192
30 2 27.9008 4.30084 -0.453494 27.9008 4.30084 -0.453494
31 1 28.9486 2.05342 -0.154279 28.9486 2.05342 -0.154279
32 2 31.309 1.1157 -0.293455 31.309 1.1157 -0.293455
33 2 29.1802 1.87153 -2.63117 29.1802 1.87153 -2.63117
34 1 31.4916 2.80428 -2.19463 31.4916 2.80428 -2.19463
35 2 33.939 2.31335 -2.15771 33.939 2.31335 -2.15771
36 2 31.9323 2.3028 -4.69035 31.9323 2.3028 -4.69035
37 1 49.0554 49.8424 -3.83108 33.3101 0.437794 -3.83108
38 2 51.5267 49.6638 -3.3917 35.7815 0.259261 -3.3917
39 2 49.8865 49.1265 -6.0964 34.1413 -0.278077 -6.0964
40 1 36.0194 1.38657 -5.58652 36.0194 1.38657 -5.58652
41 2 38.4187 1.18676 -4.66855 38.4187 1.18676 -4.66855
42 2 52.8122 50.2661 -7.68673 37.067 0.861575 -7.68673
43 1 54.1063 48.5825 -6.22691 38.361 -0.822114 -6.22691
44 2 56.3829 48.6774 -5.30688 40.6377 -0.727126 -5.30688
45 2 55.4242 47.8325 -8.23163 39.679 -1.57208 -8.23163
46 1 56.9762 49.6184 -7.55403 41.2309 0.213823 -7.55403
47 2 59.3206 49.7065 -6.5567 43.5753 0.301967 -6.5567
48 2 58.345 48.7787 -9.47477 42.5998 -0.625831 -9.47477
49 1 59.6535 47.4222 -7.67574 43.9083 -1.98236 -7.67574
50 2 61.8126 47.945 -6.59045 46.0673 -1.45962 -6.59045
51 2 61.2688 46.3998 -9.32899 45.5236 -3.00481 -9.32899
52 1 62.5875 48.5261 -8.88475 46.8422 -0.878479 -8.88475
53 2 64.7277 49.2578 -7.72382 48.9824 -0.146776 -7.72382
54 2 64.1979 47.6492 9.55395 48.4526 -1.7554 -10.4461
55 1 65.5155 49.7637 9.91705 -1.64048 0.359085 -10.083
56 2 51.7369 1.19522 -8.68539 0.326162 1.19522 -8.68539
57 2 67.3439 48.7448 8.58255 0.187942 -0.659822 -11.4174
58 1 1.1992 1.52 8.90253 1.1992 1.52 -11.0975
59 2 2.92182 2.64978 -9.52366 2.92182 2.64978 -9.52366
60 2 19.1404 50.0197 7.8354 3.39518 0.615143 -12.1646
61 1 19.8254 49.8255 -9.76057 4.08017 0.42089 -9.76057
62 2 5.52111 1.55247 -7.91388 5.52111 1.55247 -7.91388
63 2 22.035 49.1418 9.28695 6.2898 -0.262745 -10.713
64 1 6.85235 2.12885 9.92674 6.85235 2.12885 -10.0733
65 2 8.39566 3.46165 -8.57864 8.39566 3.46165 -8.57864
66 2 9.07421 1.32143 9.0279 9.07421 1.32143 -10.9721
67 1 9.71193 1.29331 -8.69309 9.71193 1.29331 -8.69309
68 2 11.0869 2.57173 -6.91144 11.0869 2.57173 -6.91144
69 2 27.6511 49.8917 -9.3422 11.9059 0.487153 -9.3422
70 1 12.4872 2.84879 -8.97604 12.4872 2.84879 -8.97604
71 2 13.8601 4.1571 -7.44313 13.8601 4.1571 -7.44313
72 2 14.716 2.2253 -9.75226 14.716 2.2253 -9.75226
73 1 15.266 2.08536 -7.36473 15.266 2.08536 -7.36473
74 2 16.6591 3.27373 -5.5678 16.6591 3.27373 -5.5678
75 2 17.67 2.33909 -7.98228 17.67 2.33909 -7.98228
76 1 26.2164 8.48707 6.66272 26.2164 8.48707 6.66272
77 2 28.4817 7.54433 6.24207 28.4817 7.54433 6.24207
78 2 26.2225 8.71134 4.2026 26.2225 8.71134 4.2026
79 1 27.1485 6.44312 4.40922 27.1485 6.44312 4.40922
80 2 29.3228 5.45242 3.90103 29.3228 5.45242 3.90103
81 2 27.1284 6.57523 1.90727 27.1284 6.57523 1.90727
82 1 29.4121 7.30893 2.21177 29.4121 7.30893 2.21177
83 2 31.7221 6.33962 1.50025 31.7221 6.33962 1.50025
84 2 29.2149 7.48081 -0.285514 29.2149 7.48081 -0.285514
85 1 30.1697 5.21706 -0.164008 30.1697 5.21706 -0.164008
86 2 32.4263 4.22469 -0.397009 32.4263 4.22469 -0.397009
87 2 30.3321 4.93492 -2.71011 30.3321 4.93492 -2.71011
88 1 32.5867 5.97787 -2.26161 32.5867 5.97787 -2.26161
89 2 35.1026 5.39652 -2.55841 35.1026 5.39652 -2.55841
90 2 32.7102 5.81223 -4.73082 32.7102 5.81223 -4.73082
91 1 34.0102 3.69982 -4.28896 34.0102 3.69982 -4.28896
92 2 36.4207 3.21403 -3.97878 36.4207 3.21403 -3.97878
93 2 34.7609 3.32951 -6.67725 34.7609 3.32951 -6.67725
94 1 36.8351 4.66865 -6.00376 36.8351 4.66865 -6.00376
95 2 39.1442 4.23151 -5.21523 39.1442 4.23151 -5.21523
96 2 37.7556 4.27369 -8.21352 37.7556 4.27369 -8.21352
97 1 38.931 2.42549 -6.96352 38.931 2.42549 -6.96352
98 2 41.3251 2.20646 -6.14095 41.3251 2.20646 -6.14095
99 2 40.0668 1.79708 -9.08031 40.0668 1.79708 -9.08031
100 1 41.7972 3.45415 -8.29446 41.7972 3.45415 -8.29446
101 2 44.1331 3.32341 -7.53524 44.1331 3.32341 -7.53524
102 2 42.9205 2.69701 9.59625 42.9205 2.69701 -10.4038
103 1 44.185 1.23732 -8.85819 44.185 1.23732 -8.85819
104 2 46.5903 1.44984 -8.04144 46.5903 1.44984 -8.04144
105 2 61.1285 49.614 9.32366 45.3832 0.209384 -10.6763
106 1 47.034 2.13758 9.70942 47.034 2.13758 -10.2906
107 2 49.2731 2.68741 -9.30348 49.2731 2.68741 -9.30348
108 2 48.4333 1.15191 7.92479 48.4333 1.15191 -12.0752
109 1 49.8317 3.2963 8.30932 -1.57904 3.2963 -11.6907
110 2 51.9964 3.82924 9.47862 0.585612 3.82924 -10.5214
111 2 51.4707 2.19267 6.68821 0.0599721 2.19267 -13.3118
112 1 52.8016 4.29959 7.23902 1.39084 4.29959 -12.761
113 2 3.29723 5.2745 8.62459 3.29723 5.2745 -11.3754
114 2 3.44742 3.4384 5.99076 3.44742 3.4384 -14.0092
115 1 4.21218 3.01228 8.29163 4.21218 3.01228 -11.7084
116 2 5.6395 4.28833 9.95705 5.6395 4.28833 -10.0429
117 2 6.44099 2.31746 7.42966 6.44099 2.31746 -12.5703
118 1 6.94026 4.76902 7.87377 6.94026 4.76902 -12.1262
119 2 8.44622 5.94424 9.40123 8.44622 5.94424 -10.5988
120 2 9.1828 4.14175 7.05509 9.1828 4.14175 -12.9449
121 1 9.67498 3.73266 9.35637 9.67498 3.73266 -10.6436
122 2 11.1547 5.03984 -9.03323 11.1547 5.03984 -9.03323
123 2 12.1022 3.71314 8.71231 12.1022 3.71314 -11.2877
124 1 24.0114 12.7961 -8.74833 24.0114 12.7961 11.2517
125 2 26.2485 11.9024 -9.33307 26.2485 11.9024 10.6669
126 2 24.0358 13.1345 8.72243 24.0358 13.1345 8.72243
127 1 25.0942 10.7033 8.88946 25.0942 10.7033 8.88946
128 2 27.3097 9.70816 8.60546 27.3097 9.70816 8.60546
129 2 25.3251 10.8865 6.46276 25.3251 10.8865 6.46276
130 1 27.6066 11.541 6.97764 27.6066 11.541 6.97764
131 2 29.9033 10.6814 6.56117 29.9033 10.6814 6.56117
132 2 27.454 11.6583 4.43972 27.454 11.6583 4.43972
133 1 28.625 9.45515 4.65914 28.625 9.45515 4.65914
134 2 30.8826 8.35697 3.99087 30.8826 8.35697 3.99087
135 2 28.4298 9.52859 2.25134 28.4298 9.52859 2.25134
136 1 30.7783 10.2258 2.44401 30.7783 10.2258 2.44401
137 2 33.1385 9.49369 1.58616 33.1385 9.49369 1.58616
138 2 30.3825 10.5506 -0.0229763 30.3825 10.5506 -0.0229763
139 1 31.5441 8.27503 -0.0988656 31.5441 8.27503 -0.0988656
140 2 33.8494 7.53132 -0.67207 33.8494 7.53132 -0.67207
141 2 31.406 8.23097 -2.6778 31.406 8.23097 -2.6778
142 1 33.664 9.31786 -2.37914 33.664 9.31786 -2.37914
143 2 36.0146 8.67538 -2.91438 36.0146 8.67538 -2.91438
144 2 33.5488 9.04599 -4.92889 33.5488 9.04599 -4.92889
145 1 34.955 6.99932 -4.45188 34.955 6.99932 -4.45188
146 2 37.3992 6.49278 -4.3044 37.3992 6.49278 -4.3044
147 2 35.4992 6.62173 -6.9445 35.4992 6.62173 -6.9445
148 1 37.5402 7.95891 -6.43803 37.5402 7.95891 -6.43803
149 2 39.9205 7.46938 -5.6417 39.9205 7.46938 -5.6417
150 2 38.7494 7.59484 -8.57474 38.7494 7.59484 -8.57474
151 1 39.6651 5.65014 -7.36216 39.6651 5.65014 -7.36216
152 2 42.0027 5.18025 -6.57268 42.0027 5.18025 -6.57268
153 2 40.646 5.25817 -9.58137 40.646 5.25817 -9.58137
154 1 42.5301 6.61053 -8.48962 42.5301 6.61053 -8.48962
155 2 44.948 6.28969 -8.10663 44.948 6.28969 -8.10663
156 2 43.2677 6.06921 9.17697 43.2677 6.06921 -10.823
157 1 44.6023 4.36166 -9.69168 44.6023 4.36166 -9.69168
158 2 46.9697 4.33468 -9.0066 46.9697 4.33468 -9.0066
159 2 45.5156 3.4915 8.20062 45.5156 3.4915 -11.7994
160 1 47.2053 5.30821 8.56145 47.2053 5.30821 -11.4385
161 2 49.5464 5.49564 9.44796 49.5464 5.49564 -10.552
162 2 48.4564 4.54217 6.63387 48.4564 4.54217 -13.3661
163 1 50.0527 6.34604 7.16002 -1.35804 6.34604 -12.84
164 2 52.3767 6.69074 8.05749 0.965916 6.69074 -11.9425
165 2 51.4237 5.28282 5.27156 0.0129078 5.28282 -14.7284
166 1 52.8411 7.22993 5.72372 1.43038 7.22993 -14.2763
167 2 3.36873 7.93967 7.16672 3.36873 7.93967 -12.8333
168 2 3.32503 6.84951 4.24035 3.32503 6.84951 -15.7597
169 1 4.30322 5.69833 6.37687 4.30322 5.69833 -13.6231
170 2 6.2605 7.10952 7.22478 6.2605 7.10952 -12.7752
171 2 6.43692 4.60108 5.53596 6.43692 4.60108 -14.464
172 1 20.7011 17.4254 -5.85083 20.7011 17.4254 14.1492
173 2 23.1215 16.9242 -5.4039 23.1215 16.9242 14.5961
174 2 21.5029 17.0976 -8.13712 21.5029 17.0976 11.8629
175 1 22.5945 15.1766 -6.97555 22.5945 15.1766 13.0244
176 2 24.9702 14.3885 -7.03807 24.9702 14.3885 12.9619
177 2 22.8352 15.023 -9.40338 22.8352 15.023 10.5966
178 1 25.0869 15.9722 -8.97737 25.0869 15.9722 11.0226
179 2 27.5187 15.1867 -9.12682 27.5187 15.1867 10.8732
180 2 25.3295 15.955 8.54284 25.3295 15.955 8.54284
181 1 26.4654 13.7666 9.06537 26.4654 13.7666 9.06537
182 2 28.7648 12.8806 8.84436 28.7648 12.8806 8.84436
183 2 26.5331 13.8699 6.60606 26.5331 13.8699 6.60606
184 1 28.8691 14.6428 7.03711 28.8691 14.6428 7.03711
185 2 31.0667 13.795 6.64401 31.0667 13.795 6.64401
186 2 28.8807 14.6761 4.4513 28.8807 14.6761 4.4513
187 1 29.8743 12.4145 4.7454 29.8743 12.4145 4.7454
188 2 32.1251 11.4569 4.05174 32.1251 11.4569 4.05174
189 2 29.5717 12.4065 2.29315 29.5717 12.4065 2.29315
190 1 31.9743 13.4305 2.48509 31.9743 13.4305 2.48509
191 2 34.2419 12.6679 1.71841 34.2419 12.6679 1.71841
192 2 31.5005 13.5552 0.048575 31.5005 13.5552 0.048575
193 1 32.8282 11.3945 0.0792851 32.8282 11.3945 0.0792851
194 2 35.0726 10.6784 -0.792324 35.0726 10.6784 -0.792324
195 2 32.3092 11.4249 -2.35535 32.3092 11.4249 -2.35535
196 1 34.5997 12.5022 -2.43023 34.5997 12.5022 -2.43023
197 2 36.9548 11.7375 -2.9647 36.9548 11.7375 -2.9647
198 2 34.4267 12.5006 -4.89488 34.4267 12.5006 -4.89488
199 1 35.7806 10.3727 -4.7445 35.7806 10.3727 -4.7445
200 2 38.2175 9.63464 -4.65311 38.2175 9.63464 -4.65311
201 2 36.2502 10.062 -7.10951 36.2502 10.062 -7.10951
202 1 38.4739 11.2672 -6.59963 38.4739 11.2672 -6.59963
203 2 40.7659 10.7448 -5.78694 40.7659 10.7448 -5.78694
204 2 39.5331 10.923 -8.76225 39.5331 10.923 -8.76225
205 1 40.5843 8.98745 -7.59782 40.5843 8.98745 -7.59782
206 2 42.6185 8.12437 -6.39021 42.6185 8.12437 -6.39021
207 2 42.4899 8.8261 -9.79201 42.4899 8.8261 -9.79201
208 1 43.8963 9.79825 -7.74872 43.8963 9.79825 -7.74872
209 2 46.1004 8.73754 -8.19244 46.1004 8.73754 -8.19244
210 2 45.1911 9.52977 8.27631 45.1911 9.52977 -11.7237
211 1 45.0724 7.64354 9.74465 45.0724 7.64354 -10.2553
212 2 47.5054 7.20556 -9.86711 47.5054 7.20556 -9.86711
213 2 45.8063 6.84882 7.31049 45.8063 6.84882 -12.6895
214 1 47.5745 8.59167 8.00196 47.5745 8.59167 -11.998
215 2 50.1352 8.44952 8.52348 50.1352 8.44952 -11.4765
216 2 48.4416 7.73032 5.76826 48.4416 7.73032 -14.2317
217 1 50.3324 9.55953 6.31552 -1.07832 9.55953 -13.6845
218 2 52.7575 9.73714 5.56782 1.34674 9.73714 -14.4322
219 2 50.9039 8.04805 4.18905 -0.506861 8.04805 -15.8109
220 1 15.5754 21.5807 -5.17965 15.5754 21.5807 14.8203
221 2 17.8819 21.7445 -4.25131 17.8819 21.7445 15.7487
222 2 17.0526 20.6666 -7.00778 17.0526 20.6666 12.9922
223 1 18.1556 19.4449 -5.20817 18.1556 19.4449 14.7918
224 2 20.577 19.5504 -4.37695 20.577 19.5504 15.623
225 2 19.3692 19.0553 -7.31123 19.3692 19.0553 12.6888
226 1 21.0808 20.5978 -6.52227 21.0808 20.5978 13.4777
227 2 23.5458 20.4068 -5.78239 23.5458 20.4068 14.2176
228 2 22.0809 19.9301 -8.69907 22.0809 19.9301 11.3009
229 1 23.4188 18.3953 -7.28187 23.4188 18.3953 12.7181
230 2 25.684 17.5598 -7.09355 25.684 17.5598 12.9065
231 2 23.8139 17.9633 -9.79282 23.8139 17.9633 10.2072
232 1 26.0035 19.0962 -9.10633 26.0035 19.0962 10.8937
233 2 28.4016 18.4682 -9.09857 28.4016 18.4682 10.9014
234 2 26.4306 18.9914 8.41116 26.4306 18.9914 8.41116
235 1 27.6533 16.9606 9.10904 27.6533 16.9606 9.10904
236 2 30.0195 15.9647 8.87797 30.0195 15.9647 8.87797
237 2 27.6652 16.8686 6.66136 27.6652 16.8686 6.66136
238 1 30.0213 17.855 7.01171 30.0213 17.855 7.01171
239 2 32.3138 16.8054 6.77426 32.3138 16.8054 6.77426
240 2 30.2689 18.0275 4.49358 30.2689 18.0275 4.49358
241 1 31.1391 15.6151 4.90872 31.1391 15.6151 4.90872
242 2 33.4198 14.6083 4.11417 33.4198 14.6083 4.11417
243 2 31.0312 15.8181 2.36071 31.0312 15.8181 2.36071
244 1 33.3832 16.5789 2.65632 33.3832 16.5789 2.65632
245 2 35.5665 15.496 1.75792 35.5665 15.496 1.75792
246 2 32.9115 16.8247 0.255065 32.9115 16.8247 0.255065
247 1 33.9161 14.579 -0.0147163 33.9161 14.579 -0.0147163
248 2 36.059 13.9014 -0.96153 36.059 13.9014 -0.96153
249 2 33.2273 14.6044 -2.38864 33.2273 14.6044 -2.38864
250 1 35.5722 15.7538 -2.58466 35.5722 15.7538 -2.58466
251 2 37.8718 14.9243 -3.26196 37.8718 14.9243 -3.26196
252 2 35.2442 15.4842 -5.07832 35.2442 15.4842 -5.07832
253 1 36.739 13.4377 -4.79534 36.739 13.4377 -4.79534
254 2 39.1349 12.7717 -4.66052 39.1349 12.7717 -4.66052
255 2 37.1933 13.371 -7.30138 37.1933 13.371 -7.30138
256 1 39.2905 14.3573 -6.61901 39.2905 14.3573 -6.61901
257 2 41.6663 13.9537 -5.88133 41.6663 13.9537 -5.88133
258 2 40.2673 14.1291 -8.89477 40.2673 14.1291 -8.89477
259 1 41.5093 12.1901 -7.70983 41.5093 12.1901 -7.70983
260 2 43.5145 11.6159 -6.15666 43.5145 11.6159 -6.15666
261 2 43.4965 11.5674 -9.53191 43.4965 11.5674 -9.53191
262 1 44.6109 13.0638 -7.91844 44.6109 13.0638 -7.91844
263 2 46.0838 11.2792 -7.21421 46.0838 11.2792 -7.21421
264 2 46.0248 12.2637 8.03075 46.0248 12.2637 -11.9692
265 1 46.1013 10.7675 -9.75178 46.1013 10.7675 -9.75178
266 2 48.4506 9.89938 9.9827 48.4506 9.89938 -10.0173
267 2 47.7241 10.3541 6.28997 47.7241 10.3541 -13.71
268 1 48.5798 11.8296 8.26143 48.5798 11.8296 -11.7386
269 2 51.0418 11.0471 8.34539 51.0418 11.0471 -11.6546
270 2 49.7913 12.0539 6.10555 49.7913 12.0539 -13.8944
271 1 12.886 23.3369 -5.73416 12.886 23.3369 14.2658
272 2 15.1701 23.9414 -4.7159 15.1701 23.9414 15.2841
273 2 14.4753 22.186 -7.33754 14.4753 22.186 12.6625
274 1 15.8379 24.2515 -7.03727 15.8379 24.2515 12.9627
275 2 17.9634 24.9659 -5.92402 17.9634 24.9659 14.076
276 2 17.4435 23.189 -8.64337 17.4435 23.189 11.3566
277 1 18.5358 22.5714 -6.51405 18.5358 22.5714 13.486
278 2 20.7675 22.8246 -5.46279 20.7675 22.8246 14.5372
279 2 19.8359 21.676 -8.463 19.8359 21.676 11.537
280 1 21.3697 23.6119 -7.7994 21.3697 23.6119 12.2006
281 2 23.7085 23.6852 -6.91072 23.7085 23.6852 13.0893
282 2 22.6056 22.739 -9.80788 22.6056 22.739 10.1921
283 1 23.9608 21.5275 -8.0468 23.9608 21.5275 11.9532
284 2 26.3899 21.0433 -7.59003 26.3899 21.0433 12.41
285 2 24.7037 20.9279 9.63231 24.7037 20.9279 9.63231
286 1 26.6575 22.4094 -9.75915 26.6575 22.4094 10.2409
287 2 29.0302 21.7829 -9.16621 29.0302 21.7829 10.8338
288 2 27.5738 22.0906 8.0073 27.5738 22.0906 8.0073
289 1 28.6092 20.0349 8.95851 28.6092 20.0349 8.95851
290 2 30.9071 19.2518 8.94699 30.9071 19.2518 8.94699
291 2 28.9725 20.0906 6.47094 28.9725 20.0906 6.47094
292 1 31.2249 20.9888 7.09482 31.2249 20.9888 7.09482
293 2 33.4805 19.9318 6.9804 33.4805 19.9318 6.9804
294 2 31.4299 20.8527 4.60148 31.4299 20.8527 4.60148
295 1 32.5455 18.7363 5.07216 32.5455 18.7363 5.07216
296 2 34.6911 17.7111 4.39474 34.6911 17.7111 4.39474
297 2 32.3578 18.9147 2.54366 32.3578 18.9147 2.54366
298 1 34.6926 19.5424 2.73459 34.6926 19.5424 2.73459
299 2 36.7681 18.5374 1.94738 36.7681 18.5374 1.94738
300 2 34.2956 19.7527 0.183599 34.2956 19.7527 0.183599
301 1 35.3744 17.5196 0.129906 35.3744 17.5196 0.129906
302 2 37.3975 16.7628 -1.15902 37.3975 16.7628 -1.15902
303 2 34.3728 17.9415 -2.10747 34.3728 17.9415 -2.10747
304 1 36.7479 18.8673 -2.45874 36.7479 18.8673 -2.45874
305 2 38.986 18.3771 -3.85951 38.986 18.3771 -3.85951
306 2 35.8921 18.8382 -4.83744 35.8921 18.8382 -4.83744
307 1 37.4998 16.6479 -4.97333 37.4998 16.6479 -4.97333
308 2 40.0095 15.9353 -4.66363 40.0095 15.9353 -4.66363
309 2 38.1824 16.6416 -7.33566 38.1824 16.6416 -7.33566
310 1 40.1745 17.7609 -6.2419 40.1745 17.7609 -6.2419
311 2 42.5622 16.9758 -5.79969 42.5622 16.9758 -5.79969
312 2 40.8993 17.6639 -8.59374 40.8993 17.6639 -8.59374
313 1 42.1375 15.5293 -7.87571 42.1375 15.5293 -7.87571
314 2 44.2832 15.0971 -6.47463 44.2832 15.0971 -6.47463
315 2 43.8688 14.4887 -9.84763 43.8688 14.4887 -9.84763
316 1 45.2769 16.3139 -8.4703 45.2769 16.3139 -8.4703
317 2 46.8303 14.4357 -7.82156 46.8303 14.4357 -7.82156
318 2 46.6169 16.5475 9.4769 46.6169 16.5475 -10.5231
319 1 46.4779 14.0429 9.65295 46.4779 14.0429 -10.3471
320 2 48.212 12.4701 -9.32985 48.212 12.4701 -9.32985
321 2 48.6834 14.3553 8.53261 48.6834 14.3553 -11.4674
322 1 10.116 24.7388 -6.78168 61.5268 24.7388 13.2183
323 2 12.3111 25.7984 -5.99594 63.7218 25.7984 14.0041
324 2 11.7351 23.3745 -8.02719 63.1459 23.3745 11.9728
325 1 12.9072 25.4665 -8.36199 12.9072 25.4665 11.638
326 2 14.7323 26.5246 -7.03132 14.7323 26.5246 12.9687
327 2 14.946 24.3049 -9.44475 14.946 24.3049 10.5553
328 1 15.8254 26.6804 -9.32563 15.8254 26.6804 10.6744
329 2 17.7629 27.6145 -7.94584 17.7629 27.6145 12.0542
330 2 17.7811 25.8241 9.42065 17.7811 25.8241 9.42065
331 1 18.6193 25.248 -8.30697 18.6193 25.248 11.693
332 2 20.7079 26.0214 -7.06569 20.7079 26.0214 12.9343
333 2 20.3061 24.3272 -9.98991 20.3061 24.3272 10.0101
334 1 21.5 26.4743 -9.40659 21.5 26.4743 10.5934
335 2 23.7719 26.8059 -8.18624 23.7719 26.8059 11.8138
336 2 23.1564 25.5934 8.83314 23.1564 25.5934 8.83314
337 1 24.2337 24.5858 -9.17805 24.2337 24.5858 10.8219
338 2 26.628 24.42 -8.33057 26.628 24.42 11.6694
339 2 25.52 23.9375 8.63545 25.52 23.9375 8.63545
340 1 27.1356 25.5907 9.54604 27.1356 25.5907 9.54604
341 2 29.6192 25.5968 -9.80784 29.6192 25.5968 10.1922
342 2 28.1868 24.9138 7.38631 28.1868 24.9138 7.38631
343 1 29.5599 23.3004 8.89964 29.5599 23.3004 8.89964
344 2 32.0221 22.5464 8.89632 32.0221 22.5464 8.89632
345 2 30.0004 23.0299 6.34867 30.0004 23.0299 6.34867
346 1 32.2101 24.1263 6.96973 32.2101 24.1263 6.96973
347 2 34.6894 23.4617 6.87495 34.6894 23.4617 6.87495
348 2 32.5352 23.7826 4.51322 32.5352 23.7826 4.51322
349 1 33.869 21.6839 5.23487 33.869 21.6839 5.23487
350 2 36.0928 20.6466 4.5386 36.0928 20.6466 4.5386
351 2 33.7086 21.8608 2.66181 33.7086 21.8608 2.66181
352 1 36.0694 22.6362 3.00913 36.0694 22.6362 3.00913
353 2 38.1759 21.6737 2.07641 38.1759 21.6737 2.07641
354 2 35.5656 22.8102 0.647583 35.5656 22.8102 0.647583
355 1 36.6683 20.5136 0.404848 36.6683 20.5136 0.404848
356 2 38.6908 19.5821 -1.08783 38.6908 19.5821 -1.08783
357 2 35.8617 21.1245 -1.89663 35.8617 21.1245 -1.89663
358 1 38.3301 21.783 -2.24438 38.3301 21.783 -2.24438
359 2 39.9949 21.0347 -4.14672 39.9949 21.0347 -4.14672
360 2 36.9001 22.3172 -4.2854 36.9001 22.3172 -4.2854
361 1 37.9426 20.1884 -5.3901 37.9426 20.1884 -5.3901
362 2 41.8701 19.4351 -5.31969 41.8701 19.4351 -5.31969
363 2 38.977 19.5916 -7.6181 38.977 19.5916 -7.6181
364 1 40.7168 21.1295 -6.73859 40.7168 21.1295 -6.73859
365 2 43.2791 21.3265 -6.98334 43.2791 21.3265 -6.98334
366 2 41.5089 20.2748 -8.95537 41.5089 20.2748 -8.95537
367 1 43.0467 18.7983 -7.56845 43.0467 18.7983 -7.56845
368 2 45.4778 18.5927 -7.23964 45.4778 18.5927 -7.23964
369 2 43.3054 17.1275 -9.64961 43.3054 17.1275 -9.64961
370 1 55.9985 26.0337 9.89099 55.9985 26.0337 9.89099
371 2 56.4241 28.354 -9.84321 56.4241 28.354 10.1568
372 2 58.2231 25.4361 9.23711 58.2231 25.4361 9.23711
373 1 58.8212 25.5126 -8.28669 58.8212 25.5126 11.7133
374 2 9.15866 26.9644 -7.54229 60.5694 26.9644 12.4577
375 2 9.18605 24.1417 -9.10613 60.5968 24.1417 10.8939
376 1 10.1753 26.4574 -9.74919 61.5861 26.4574 10.2508
377 2 11.805 27.7605 -8.38779 63.2157 27.7605 11.6122
378 2 12.3499 25.6852 9.0979 63.7607 25.6852 9.0979
379 1 13.0663 28.0307 9.46664 13.0663 28.0307 9.46664
380 2 14.9297 29.0208 -9.37267 14.9297 29.0208 10.6273
381 2 15.0878 26.7669 8.33608 15.0878 26.7669 8.33608
382 1 16.0416 29.0995 8.41286 16.0416 29.0995 8.41286
383 2 17.6157 30.2441 9.82519 17.6157 30.2441 9.82519
384 2 18.1125 28.0486 7.42966 18.1125 28.0486 7.42966
385 1 18.8516 28.0316 9.88083 18.8516 28.0316 9.88083
386 2 20.939 28.8434 -8.98283 20.939 28.8434 11.0172
387 2 20.5731 26.9048 8.3619 20.5731 26.9048 8.3619
388 1 21.7371 29.0183 8.71029 21.7371 29.0183 8.71029
389 2 23.6048 29.8615 -9.89629 23.6048 29.8615 10.1037
390 2 23.6164 28.2247 7.30825 23.6164 28.2247 7.30825
391 1 24.4978 27.613 9.5162 24.4978 27.613 9.5162
392 2 26.8002 27.82 -9.32348 26.8002 27.82 10.6765
393 2 26.0815 26.8932 7.64815 26.0815 26.8932 7.64815
394 1 27.5376 28.7148 8.41789 27.5376 28.7148 8.41789
395 2 29.9129 28.5841 9.26551 29.9129 28.5841 9.26551
396 2 28.6743 27.7957 6.29856 28.6743 27.7957 6.29856
397 1 29.9944 26.5144 7.96501 29.9944 26.5144 7.96501
398 2 32.3918 26.015 8.58409 32.3918 26.015 8.58409
399 2 30.8834 25.9422 5.71612 30.8834 25.9422 5.71612
400 1 32.8242 27.33 6.37361 32.8242 27.33 6.37361
401 2 35.3732 26.8489 6.47298 35.3732 26.8489 6.47298
402 2 33.4029 26.9378 3.92681 33.4029 26.9378 3.92681
403 1 34.7486 25.0026 4.85193 34.7486 25.0026 4.85193
404 2 37.1234 24.115 4.72056 37.1234 24.115 4.72056
405 2 34.9809 24.8821 2.42364 34.9809 24.8821 2.42364
406 1 37.1937 25.9277 2.8108 37.1937 25.9277 2.8108
407 2 39.5068 25.1075 2.22738 39.5068 25.1075 2.22738
408 2 36.9673 25.9638 0.269531 36.9673 25.9638 0.269531
409 1 38.1073 23.7551 0.472824 38.1073 23.7551 0.472824
410 2 40.1157 22.6992 -0.683906 40.1157 22.6992 -0.683906
411 2 37.4497 24.2575 -1.93922 37.4497 24.2575 -1.93922
412 1 40.0031 24.848 -2.08457 40.0031 24.848 -2.08457
413 2 41.4216 23.4981 -3.82081 41.4216 23.4981 -3.82081
414 2 39.0535 25.8596 -4.3248 39.0535 25.8596 -4.3248
415 1 39.1591 23.3622 -4.94483 39.1591 23.3622 -4.94483
416 2 40.8426 23.8337 -6.81118 40.8426 23.8337 -6.81118
417 2 38.4152 22.1669 -6.98859 38.4152 22.1669 -6.98859
418 1 50.6124 27.4322 6.53981 50.6124 27.4322 6.53981
419 2 50.8655 29.8352 7.21548 50.8655 29.8352 7.21548
420 2 52.9633 27.3167 5.72948 52.9633 27.3167 5.72948
421 1 53.3051 26.7798 8.13921 53.3051 26.7798 8.13921
422 2 53.7154 29.1175 8.66031 53.7154 29.1175 8.66031
423 2 55.5555 26.3679 7.52081 55.5555 26.3679 7.52081
424 1 56.0186 28.711 7.77896 56.0186 28.711 7.77896
425 2 57.8147 30.2564 8.62804 57.8147 30.2564 8.62804
426 2 58.0899 27.6284 6.84017 58.0899 27.6284 6.84017
427 1 58.7703 27.8521 9.24083 58.7703 27.8521 9.24083
428 2 60.6746 28.8261 -9.57959 60.6746 28.8261 10.4204
429 2 9.18047 26.6708 7.97122 60.5912 26.6708 7.97122
430 1 10.2152 28.9536 8.06904 61.626 28.9536 8.06904
431 2 12.0617 30.2189 9.38126 63.4725 30.2189 9.38126
432 2 12.2965 27.8972 7.12241 63.7073 27.8972 7.12241
433 1 13.1777 30.1911 7.23304 13.1777 30.1911 7.23304
434 2 15.0346 31.4668 8.51963 15.0346 31.4668 8.51963
435 2 15.2527 29.1911 6.08099 15.2527 29.1911 6.08099
436 1 16.1117 31.5801 6.33667 16.1117 31.5801 6.33667
437 2 17.8522 32.7905 7.736 17.8522 32.7905 7.736
438 2 18.1234 30.6025 5.38605 18.1234 30.6025 5.38605
439 1 18.8648 30.4598 7.75067 18.8648 30.4598 7.75067
440 2 20.7893 31.2432 9.21041 20.7893 31.2432 9.21041
441 2 20.7616 29.4914 6.44563 20.7616 29.4914 6.44563
442 1 21.8443 31.7845 6.94892 21.8443 31.7845 6.94892
443 2 23.6879 32.6857 8.37296 23.6879 32.6857 8.37296
444 2 23.6993 30.8446 5.61664 23.6993 30.8446 5.61664
445 1 24.7712 30.3818 7.79641 24.7712 30.3818 7.79641
446 2 26.8206 31.0266 9.1562 26.8206 31.0266 9.1562
447 2 26.4658 29.4734 6.29472 26.4658 29.4734 6.29472
448 1 27.6271 31.6993 6.90098 27.6271 31.6993 6.90098
449 2 29.9158 31.8443 8.03594 29.9158 31.8443 8.03594
450 2 29.0243 30.6765 4.98995 29.0243 30.6765 4.98995
451 1 30.3251 29.6348 6.97464 30.3251 29.6348 6.97464
452 2 32.7225 29.4228 7.73885 32.7225 29.4228 7.73885
453 2 31.4318 28.8911 4.7602 31.4318 28.8911 4.7602
454 1 33.1249 30.532 5.46208 33.1249 30.532 5.46208
455 2 35.6657 30.2899 5.98736 35.6657 30.2899 5.98736
456 2 34.0889 29.9731 3.0753 34.0889 29.9731 3.0753
457 1 35.4469 28.2813 4.48681 35.4469 28.2813 4.48681
458 2 37.8901 27.6344 4.50383 37.8901 27.6344 4.50383
459 2 35.9132 28.0092 2.05887 35.9132 28.0092 2.05887
460 1 38.0568 29.3381 2.60408 38.0568 29.3381 2.60408
461 2 40.3882 28.2297 2.50742 40.3882 28.2297 2.50742
462 2 38.3861 29.4606 0.063944 38.3861 29.4606 0.063944
463 1 39.2611 26.9558 0.511404 39.2611 26.9558 0.511404
464 2 41.4262 26.1003 -0.2225 41.4262 26.1003 -0.2225
465 2 38.8109 27.2502 -1.8982 38.8109 27.2502 -1.8982
466 1 41.2226 27.9738 -1.99371 41.2226 27.9738 -1.99371
467 2 42.5109 25.7345 -2.67255 42.5109 25.7345 -2.67255
468 2 41.1609 28.2873 -4.5916 41.1609 28.2873 -4.5916
469 1 41.4728 25.7598 -4.92089 41.4728 25.7598 -4.92089
470 2 48.1613 29.9571 5.58547 48.1613 29.9571 5.58547
471 2 50.0257 28.0983 4.24302 50.0257 28.0983 4.24302
472 1 50.497 30.4636 4.80697 50.497 30.4636 4.80697
473 2 52.1606 31.99 6.09131 52.1606 31.99 6.09131
474 2 52.5308 29.5381 3.84405 52.5308 29.5381 3.84405
475 1 53.3279 29.7212 6.2686 53.3279 29.7212 6.2686
476 2 54.962 31.1707 7.51675 54.962 31.1707 7.51675
477 2 55.4001 28.6638 5.32357 55.4001 28.6638 5.32357
478 1 56.1884 31.0311 5.25301 56.1884 31.0311 5.25301
479 2 58.0384 32.2278 6.30589 58.0384 32.2278 6.30589
480 2 58.1105 29.8238 4.214 58.1105 29.8238 4.214
481 1 58.9123 29.9243 6.4466 58.9123 29.9243 6.4466
482 2 60.6073 31.2108 7.82832 60.6073 31.2108 7.82832
483 2 60.9958 28.7282 5.64538 60.9958 28.7282 5.64538
484 1 61.8875 31.1018 5.60927 61.8875 31.1018 5.60927
485 2 12.0894 32.4441 6.92354 63.5002 32.4441 6.92354
486 2 12.574 30.0674 4.79496 63.9847 30.0674 4.79496
487 1 13.336 32.496 4.77276 13.336 32.496 4.77276
488 2 15.069 33.8727 6.03717 15.069 33.8727 6.03717
489 2 15.3768 31.3744 3.91841 15.3768 31.3744 3.91841
490 1 16.2555 33.7088 3.84246 16.2555 33.7088 3.84246
491 2 17.8494 35.1233 5.09609 17.8494 35.1233 5.09609
492 2 18.3693 32.6208 3.02046 18.3693 32.6208 3.02046
493 1 18.9714 32.9127 5.46838 18.9714 32.9127 5.46838
494 2 20.6741 33.998 6.9726 20.6741 33.998 6.9726
495 2 21.1809 31.9042 4.41301 21.1809 31.9042 4.41301
496 1 21.9143 34.238 4.74744 21.9143 34.238 4.74744
497 2 23.5733 35.4156 6.29369 23.5733 35.4156 6.29369
498 2 23.9207 33.47 3.69702 23.9207 33.47 3.69702
499 1 24.6443 33.1371 6.08256 24.6443 33.1371 6.08256
500 2 26.6364 34.044 7.34407 26.6364 34.044 7.34407
501 2 26.5493 32.1837 4.64828 26.5493 32.1837 4.64828
502 1 27.6421 34.3457 5.10475 27.6421 34.3457 5.10475
503 2 29.7046 35.0246 6.25729 29.7046 35.0246 6.25729
504 2 29.2996 33.3358 3.56623 29.2996 33.3358 3.56623
505 1 30.5799 32.6931 5.6488 30.5799 32.6931 5.6488
506 2 32.8428 32.7799 6.49897 32.8428 32.7799 6.49897
507 2 31.7297 31.8264 3.60933 31.7297 31.8264 3.60933
508 1 33.3142 33.6316 4.17404 33.3142 33.6316 4.17404
509 2 35.6658 33.6845 5.0198 35.6658 33.6845 5.0198
510 2 34.4766 32.8561 2.03818 34.4766 32.8561 2.03818
511 1 35.9004 31.5875 3.66346 35.9004 31.5875 3.66346
512 2 38.1659 31.1533 4.38761 38.1659 31.1533 4.38761
513 2 36.8714 31.2108 1.44812 36.8714 31.2108 1.44812
514 1 38.7846 32.5776 2.37243 38.7846 32.5776 2.37243
515 2 41.205 31.827 2.76499 41.205 31.827 2.76499
516 2 39.8495 32.5598 -0.0632893 39.8495 32.5598 -0.0632893
517 1 40.7333 30.1653 0.728335 40.7333 30.1653 0.728335
518 2 42.8255 29.1337 -0.361818 42.8255 29.1337 -0.361818
519 2 40.2824 30.2757 -1.81898 40.2824 30.2757 -1.81898
520 1 44.7757 32.258 2.06638 44.7757 32.258 2.06638
521 2 46.5065 33.4205 3.61568 46.5065 33.4205 3.61568
522 2 47.0011 31.6648 1.01314 47.0011 31.6648 1.01314
523 1 47.6569 31.2872 3.50117 47.6569 31.2872 3.50117
524 2 49.2562 32.8342 4.70692 49.2562 32.8342 4.70692
525 2 49.759 30.3885 2.42487 49.759 30.3885 2.42487
526 1 50.421 32.8514 2.58497 50.421 32.8514 2.58497
527 2 52.1708 34.0878 3.88524 52.1708 34.0878 3.88524
528 2 52.5906 31.8621 1.53566 52.5906 31.8621 1.53566
529 1 53.3311 31.8421 3.9747 53.3311 31.8421 3.9747
530 2 55.0799 33.1966 5.20813 55.0799 33.1966 5.20813
531 2 55.4707 30.9719 2.8922 55.4707 30.9719 2.8922
532 1 56.2703 33.3067 3.01189 56.2703 33.3067 3.01189
533 2 58.1094 34.3889 4.13732 58.1094 34.3889 4.13732
534 2 58.1127 32.0245 1.8477 58.1127 32.0245 1.8477
535 1 59.1162 32.0604 4.09496 59.1162 32.0604 4.09496
536 2 60.767 33.3438 5.35324 60.767 33.3438 5.35324
537 2 61.1751 30.9425 3.29508 61.1751 30.9425 3.29508
538 1 61.9677 33.3311 3.21894 61.9677 33.3311 3.21894
539 2 12.2402 34.673 4.40163 63.6509 34.673 4.40163
540 2 12.6388 32.1197 2.43203 64.0496 32.1197 2.43203
541 1 13.5371 34.5783 2.22427 13.5371 34.5783 2.22427
542 2 15.1758 35.9578 3.67022 15.1758 35.9578 3.67022
543 2 15.6454 33.4733 1.45197 15.6454 33.4733 1.45197
544 1 16.4577 35.9614 1.48059 16.4577 35.9614 1.48059
545 2 17.9806 37.1749 2.91987 17.9806 37.1749 2.91987
546 2 18.6298 35.0686 0.451007 18.6298 35.0686 0.451007