ITEM: TIMESTEP
273000
ITEM: NUMBER OF ATOMS
810
ITEM: BOX BOUNDS xy xz yz pp pp pp
8.0341777045796159e-01 5.3562932126681886e+01 1.3487448971393832e+00
8.0582000660415243e-01 5.0210394993394715e+01 0.0000000000000000e+00
-1.0000000000000000e+01 1.0000000000000000e+01 0.0000000000000000e+00
ITEM: ATOMS id type x y z xu yu zu
1 1 1.0394 0.973925 -0.163374 1.0394 0.973925 -0.163374
2 2 4.35044 50.2208 1.30994 3.0017 0.816184 1.30994
3 2 2.81883 1.31413 -1.84258 2.81883 1.31413 -1.84258
4 1 3.94576 2.69534 -0.010853 3.94576 2.69534 -0.010853
5 2 5.99775 2.28808 1.37501 5.99775 2.28808 1.37501
6 2 5.59667 2.78431 -1.85197 5.59667 2.78431 -1.85197
7 1 6.72208 0.935805 -0.652078 6.72208 0.935805 -0.652078
8 2 10.2729 49.9498 0.704975 8.9242 0.54523 0.704975
9 2 8.49306 1.16831 -2.37938 8.49306 1.16831 -2.37938
10 1 9.77513 2.52461 -0.547695 9.77513 2.52461 -0.547695
11 2 11.9357 2.39718 0.693099 11.9357 2.39718 0.693099
12 2 11.2449 2.88105 -2.43773 11.2449 2.88105 -2.43773
13 1 12.4829 0.990656 -1.32587 12.4829 0.990656 -1.32587
14 2 14.4472 0.815105 0.246907 14.4472 0.815105 0.246907
15 2 14.3301 1.16877 -3.03614 14.3301 1.16877 -3.03614
16 1 15.4712 2.66464 -1.21415 15.4712 2.66464 -1.21415
17 2 17.389 2.39644 0.478199 17.389 2.39644 0.478199
18 2 17.4031 2.89026 -2.787 17.4031 2.89026 -2.787
19 1 18.299 0.961375 -1.31446 18.299 0.961375 -1.31446
20 2 20.0111 0.825614 0.553488 20.0111 0.825614 0.553488
21 2 20.3186 1.24466 -2.73928 20.3186 1.24466 -2.73928
22 1 21.159 2.58804 -0.745612 21.159 2.58804 -0.745612
23 2 23.1884 2.66428 0.704708 23.1884 2.66428 0.704708
24 2 22.9884 2.70182 -2.49942 22.9884 2.70182 -2.49942
25 1 23.94 1.00654 -0.912868 23.94 1.00654 -0.912868
26 2 25.7826 0.978652 0.771049 25.7826 0.978652 0.771049
27 2 25.9522 1.07029 -2.47343 25.9522 1.07029 -2.47343
28 1 26.8117 2.64058 -0.752146 26.8117 2.64058 -0.752146
29 2 28.5501 2.77509 1.14319 28.5501 2.77509 1.14319
30 2 28.8741 2.62875 -2.00435 28.8741 2.62875 -2.00435
31 1 29.5849 1.01006 -0.129883 29.5849 1.01006 -0.129883
32 2 31.1813 1.16455 1.66007 31.1813 1.16455 1.66007
33 2 31.6213 0.962123 -1.54001 31.6213 0.962123 -1.54001
34 1 32.4252 2.67255 0.0596934 32.4252 2.67255 0.0596934
35 2 34.1234 2.68785 1.8935 34.1234 2.68785 1.8935
36 2 34.455 2.67929 -1.41726 34.455 2.67929 -1.41726
37 1 35.254 0.988193 0.354502 35.254 0.988193 0.354502
38 2 37.075 1.04943 2.1922 37.075 1.04943 2.1922
39 2 37.3987 1.04876 -1.15322 37.3987 1.04876 -1.15322
40 1 38.1692 2.667 0.539738 38.1692 2.667 0.539738
41 2 39.9901 2.5663 2.19548 39.9901 2.5663 2.19548
42 2 40.0495 2.78116 -0.981199 40.0495 2.78116 -0.981199
43 1 41.0085 0.956251 0.440412 41.0085 0.956251 0.440412
44 2 42.8207 1.11967 2.15095 42.8207 1.11967 2.15095
45 2 42.9245 1.05383 -1.07014 42.9245 1.05383 -1.07014
46 1 43.8721 2.69235 0.523571 43.8721 2.69235 0.523571
47 2 45.9945 2.5585 2.15136 45.9945 2.5585 2.15136
48 2 45.8625 2.99782 -1.11814 45.8625 2.99782 -1.11814
49 1 46.7387 1.00024 0.265191 46.7387 1.00024 0.265191
50 2 50.1907 50.1681 1.6735 48.842 0.763482 1.6735
51 2 48.5467 1.26502 -1.44592 48.5467 1.26502 -1.44592
52 1 49.6825 2.63641 0.372954 49.6825 2.63641 0.372954
53 2 51.789 2.37343 1.80617 51.789 2.37343 1.80617
54 2 51.3681 2.7738 -1.46656 51.3681 2.7738 -1.46656
55 1 1.22189 4.21312 0.307499 1.22189 4.21312 0.307499
56 2 3.18494 4.20234 1.75683 3.18494 4.20234 1.75683
57 2 2.94132 4.46623 -1.46599 2.94132 4.46623 -1.46599
58 1 4.10716 5.94656 0.238735 4.10716 5.94656 0.238735
59 2 6.028 5.6284 1.7188 6.028 5.6284 1.7188
60 2 5.86643 6.09431 -1.51467 5.86643 6.09431 -1.51467
61 1 6.86275 4.22914 -0.199096 6.86275 4.22914 -0.199096
62 2 8.9407 3.84558 1.39662 8.9407 3.84558 1.39662
63 2 8.71444 4.45298 -1.81643 8.71444 4.45298 -1.81643
64 1 9.73926 5.7905 -0.0384892 9.73926 5.7905 -0.0384892
65 2 11.8765 5.6941 1.23191 11.8765 5.6941 1.23191
66 2 11.4306 6.2261 -1.9061 11.4306 6.2261 -1.9061
67 1 12.6032 4.28213 -0.798124 12.6032 4.28213 -0.798124
68 2 14.5754 4.00921 0.706117 14.5754 4.00921 0.706117
69 2 14.445 4.60854 -2.4531 14.445 4.60854 -2.4531
70 1 15.4968 5.93027 -0.646654 15.4968 5.93027 -0.646654
71 2 17.4929 5.84311 0.869617 17.4929 5.84311 0.869617
72 2 17.2467 5.98275 -2.4221 17.2467 5.98275 -2.4221
73 1 18.2894 4.29783 -0.858079 18.2894 4.29783 -0.858079
74 2 20.1779 4.39362 0.82223 20.1779 4.39362 0.82223
75 2 20.1748 4.1815 -2.49235 20.1748 4.1815 -2.49235
76 1 21.1613 5.93748 -1.01557 21.1613 5.93748 -1.01557
77 2 22.9868 6.06077 0.623781 22.9868 6.06077 0.623781
78 2 23.1361 6.06886 -2.66964 23.1361 6.06886 -2.66964
79 1 24.0558 4.36811 -1.00134 24.0558 4.36811 -1.00134
80 2 25.9435 4.42357 0.777648 25.9435 4.42357 0.777648
81 2 26.0835 4.24292 -2.546 26.0835 4.24292 -2.546
82 1 27.0103 6.03002 -0.862829 27.0103 6.03002 -0.862829
83 2 28.544 6.00114 1.08408 28.544 6.00114 1.08408
84 2 29.1031 5.98093 -2.1081 29.1031 5.98093 -2.1081
85 1 29.6889 4.29059 -0.358773 29.6889 4.29059 -0.358773
86 2 31.3558 4.40771 1.45646 31.3558 4.40771 1.45646
87 2 31.739 4.18122 -1.77066 31.739 4.18122 -1.77066
88 1 32.5875 5.90761 -0.189247 32.5875 5.90761 -0.189247
89 2 34.1588 5.8556 1.79575 34.1588 5.8556 1.79575
90 2 34.8004 5.92115 -1.43572 34.8004 5.92115 -1.43572
91 1 35.3372 4.27752 0.288682 35.3372 4.27752 0.288682
92 2 37.0161 4.23603 2.20585 37.0161 4.23603 2.20585
93 2 37.4884 4.39751 -1.0606 37.4884 4.39751 -1.0606
94 1 38.3075 5.96742 0.749657 38.3075 5.96742 0.749657
95 2 40.1662 5.9925 2.44109 40.1662 5.9925 2.44109
96 2 40.1203 5.89181 -0.926532 40.1203 5.89181 -0.926532
97 1 41.0451 4.33185 0.776934 41.0451 4.33185 0.776934
98 2 43.0217 4.16494 2.3505 43.0217 4.16494 2.3505
99 2 42.8298 4.41363 -0.954571 42.8298 4.41363 -0.954571
100 1 44.0187 5.91001 0.794234 44.0187 5.91001 0.794234
101 2 45.907 5.99589 2.37321 45.907 5.99589 2.37321
102 2 45.8549 6.03939 -0.941837 45.8549 6.03939 -0.941837
103 1 46.9131 4.37724 0.663038 46.9131 4.37724 0.663038
104 2 48.8463 4.22182 2.13774 48.8463 4.22182 2.13774
105 2 48.758 4.4212 -1.12512 48.758 4.4212 -1.12512
106 1 49.8158 5.92598 0.608877 49.8158 5.92598 0.608877
107 2 51.8797 5.77221 2.05848 51.8797 5.77221 2.05848
108 2 51.5687 5.91903 -1.1981 51.5687 5.91903 -1.1981
109 1 1.26978 7.50557 0.448262 1.26978 7.50557 0.448262
110 2 3.1488 7.28953 2.09305 3.1488 7.28953 2.09305
111 2 3.15901 7.76529 -1.16314 3.15901 7.76529 -1.16314
112 1 4.21333 9.16799 0.706507 4.21333 9.16799 0.706507
113 2 6.2951 9.05957 2.10919 6.2951 9.05957 2.10919
114 2 5.84125 9.22432 -1.12108 5.84125 9.22432 -1.12108
115 1 7.01743 7.5036 0.302374 7.01743 7.5036 0.302374
116 2 8.95064 7.35995 1.84596 8.95064 7.35995 1.84596
117 2 8.79246 7.74696 -1.37686 8.79246 7.74696 -1.37686
118 1 9.85069 9.19847 0.321305 9.85069 9.19847 0.321305
119 2 11.8249 9.14943 1.73094 11.8249 9.14943 1.73094
120 2 11.4246 9.22655 -1.51015 11.4246 9.22655 -1.51015
121 1 12.6861 7.60606 -0.127776 12.6861 7.60606 -0.127776
122 2 14.7448 7.54576 1.19984 14.7448 7.54576 1.19984
123 2 14.4242 7.60821 -2.08613 14.4242 7.60821 -2.08613
124 1 15.4175 9.15848 -0.479811 15.4175 9.15848 -0.479811
125 2 17.5 9.19087 0.982749 17.5 9.19087 0.982749
126 2 17.0796 9.12956 -2.27796 17.0796 9.12956 -2.27796
127 1 18.2961 7.56284 -0.78963 18.2961 7.56284 -0.78963
128 2 20.3813 7.60244 0.675221 20.3813 7.60244 0.675221
129 2 20.0534 7.43495 -2.68412 20.0534 7.43495 -2.68412
130 1 21.1537 9.27959 -1.15271 21.1537 9.27959 -1.15271
131 2 23.0433 9.25345 0.564754 23.0433 9.25345 0.564754
132 2 23.1884 9.20313 -2.62922 23.1884 9.20313 -2.62922
133 1 24.0382 7.60811 -0.982201 24.0382 7.60811 -0.982201
134 2 25.9245 7.52955 0.817064 25.9245 7.52955 0.817064
135 2 26.1365 7.77343 -2.4977 26.1365 7.77343 -2.4977
136 1 27.0236 9.29022 -0.744216 27.0236 9.29022 -0.744216
137 2 28.7059 9.15199 1.15302 28.7059 9.15199 1.15302
138 2 29.0632 9.23913 -2.07321 29.0632 9.23913 -2.07321
139 1 29.812 7.57185 -0.445219 29.812 7.57185 -0.445219
140 2 31.5141 7.57465 1.35614 31.5141 7.57465 1.35614
141 2 31.8336 7.51375 -1.89975 31.8336 7.51375 -1.89975
142 1 32.647 9.17675 -0.196731 32.647 9.17675 -0.196731
143 2 34.2433 9.22895 1.79839 34.2433 9.22895 1.79839
144 2 34.8128 9.18705 -1.49309 34.8128 9.18705 -1.49309
145 1 35.4592 7.56794 0.356202 35.4592 7.56794 0.356202
146 2 37.2254 7.72769 2.14982 37.2254 7.72769 2.14982
147 2 37.4388 7.51946 -1.10648 37.4388 7.51946 -1.10648
148 1 38.2438 9.31284 0.460486 38.2438 9.31284 0.460486
149 2 40.0674 9.27082 2.20016 40.0674 9.27082 2.20016
150 2 40.3352 9.27307 -1.01781 40.3352 9.27307 -1.01781
151 1 41.1669 7.57847 0.692131 41.1669 7.57847 0.692131
152 2 42.9853 7.70369 2.43655 42.9853 7.70369 2.43655
153 2 43.2061 7.61272 -0.811607 43.2061 7.61272 -0.811607
154 1 44.0417 9.30513 0.810614 44.0417 9.30513 0.810614
155 2 45.9168 9.14141 2.33923 45.9168 9.14141 2.33923
156 2 46.0433 9.3872 -0.878458 46.0433 9.3872 -0.878458
157 1 46.9193 7.62612 0.708568 46.9193 7.62612 0.708568
158 2 48.8811 7.47848 2.25684 48.8811 7.47848 2.25684
159 2 48.7913 7.6221 -1.01167 48.7913 7.6221 -1.01167
160 1 49.796 9.19746 0.710078 49.796 9.19746 0.710078
161 2 51.8614 8.99568 2.30281 51.8614 8.99568 2.30281
162 2 51.7015 9.40115 -0.996256 51.7015 9.40115 -0.996256
163 1 1.30851 10.8477 0.837544 1.30851 10.8477 0.837544
164 2 3.32661 10.7826 2.40193 3.32661 10.7826 2.40193
165 2 3.15122 10.8761 -0.848425 3.15122 10.8761 -0.848425
166 1 4.24729 12.4456 0.67389 4.24729 12.4456 0.67389
167 2 6.14047 12.5215 2.22944 6.14047 12.5215 2.22944
168 2 6.08959 12.5789 -1.02066 6.08959 12.5789 -1.02066
169 1 7.071 10.8762 0.513421 7.071 10.8762 0.513421
170 2 8.97401 10.9711 2.07803 8.97401 10.9711 2.07803
171 2 8.87196 10.907 -1.20787 8.87196 10.907 -1.20787
172 1 9.97092 12.5356 0.360386 9.97092 12.5356 0.360386
173 2 11.9696 12.4194 1.77081 11.9696 12.4194 1.77081
174 2 11.6806 12.6615 -1.54295 11.6806 12.6615 -1.54295
175 1 12.6638 10.7887 0.00637514 12.6638 10.7887 0.00637514
176 2 14.722 10.7117 1.44652 14.722 10.7117 1.44652
177 2 14.5544 11.1102 -1.80311 14.5544 11.1102 -1.80311
178 1 15.528 12.5385 -0.110434 15.528 12.5385 -0.110434
179 2 17.7149 12.4159 1.10677 17.7149 12.4159 1.10677
180 2 17.0508 12.8026 -2.04744 17.0508 12.8026 -2.04744
181 1 18.2361 10.8698 -0.842535 18.2361 10.8698 -0.842535
182 2 20.2142 10.7634 0.673899 20.2142 10.7634 0.673899
183 2 20.0552 11.1405 -2.59371 20.0552 11.1405 -2.59371
184 1 21.2343 12.5514 -0.842163 21.2343 12.5514 -0.842163
185 2 23.1017 12.4539 0.751037 23.1017 12.4539 0.751037
186 2 23.215 12.6099 -2.51256 23.215 12.6099 -2.51256
187 1 24.0932 10.8972 -0.972157 24.0932 10.8972 -0.972157
188 2 25.9045 10.8331 0.801653 25.9045 10.8331 0.801653
189 2 26.2792 10.9823 -2.37985 26.2792 10.9823 -2.37985
190 1 26.9815 12.5245 -0.613444 26.9815 12.5245 -0.613444
191 2 28.6514 12.4497 1.2601 28.6514 12.4497 1.2601
192 2 29.0533 12.652 -1.9924 29.0533 12.652 -1.9924
193 1 29.8307 10.9286 -0.339914 29.8307 10.9286 -0.339914
194 2 31.5565 10.7804 1.47586 31.5565 10.7804 1.47586
195 2 31.8429 11.0111 -1.69064 31.8429 11.0111 -1.69064
196 1 32.6964 12.533 0.153029 32.6964 12.533 0.153029
197 2 34.5844 12.5632 1.89271 34.5844 12.5632 1.89271
198 2 34.7589 12.3656 -1.42172 34.7589 12.3656 -1.42172
199 1 35.4617 10.8905 0.290429 35.4617 10.8905 0.290429
200 2 37.3321 11.0018 2.13433 37.3321 11.0018 2.13433
201 2 37.4058 10.9952 -1.18502 37.4058 10.9952 -1.18502
202 1 38.3521 12.6138 0.440781 38.3521 12.6138 0.440781
203 2 40.0267 12.705 2.16156 40.0267 12.705 2.16156
204 2 40.3947 12.4458 -0.975968 40.3947 12.4458 -0.975968
205 1 41.1582 10.9134 0.70842 41.1582 10.9134 0.70842
206 2 43.0698 11.0993 2.32638 43.0698 11.0993 2.32638
207 2 43.1155 10.8726 -0.99489 43.1155 10.8726 -0.99489
208 1 44.1094 12.5721 0.518421 44.1094 12.5721 0.518421
209 2 45.962 12.6157 2.29706 45.962 12.6157 2.29706
210 2 46.1439 12.5703 -0.957615 46.1439 12.5703 -0.957615
211 1 47.0335 10.9312 0.74241 47.0335 10.9312 0.74241
212 2 48.9199 10.9886 2.42212 48.9199 10.9886 2.42212
213 2 48.94 10.8904 -0.990293 48.94 10.8904 -0.990293
214 1 50.0005 12.451 0.660306 50.0005 12.451 0.660306
215 2 51.8986 12.6132 2.38514 51.8986 12.6132 2.38514
216 2 51.9341 12.2667 -0.932981 51.9341 12.2667 -0.932981
217 1 1.46337 14.1497 0.539365 1.46337 14.1497 0.539365
218 2 3.27461 14.1943 2.19864 3.27461 14.1943 2.19864
219 2 3.41769 14.0904 -1.03629 3.41769 14.0904 -1.03629
220 1 4.31215 15.7536 0.555959 4.31215 15.7536 0.555959
221 2 6.23418 15.8648 2.2225 6.23418 15.8648 2.2225
222 2 6.31856 15.8558 -1.12527 6.31856 15.8558 -1.12527
223 1 7.11138 14.1528 0.616228 7.11138 14.1528 0.616228
224 2 9.11461 14.1102 2.15457 9.11461 14.1102 2.15457
225 2 8.90594 14.1323 -1.09022 8.90594 14.1323 -1.09022
226 1 10.0282 15.8797 0.402855 10.0282 15.8797 0.402855
227 2 12.087 16.0231 1.7292 12.087 16.0231 1.7292
228 2 11.6161 15.7568 -1.40629 11.6161 15.7568 -1.40629
229 1 12.8102 14.1807 0.132082 12.8102 14.1807 0.132082
230 2 14.8234 14.2235 1.58984 14.8234 14.2235 1.58984
231 2 14.5409 14.3157 -1.68421 14.5409 14.3157 -1.68421
232 1 15.6797 15.8997 -0.0582144 15.6797 15.8997 -0.0582144
233 2 17.7499 15.8473 1.35528 17.7499 15.8473 1.35528
234 2 17.3483 16.0403 -1.85897 17.3483 16.0403 -1.85897
235 1 18.3492 14.2788 -0.505903 18.3492 14.2788 -0.505903
236 2 20.4517 14.1971 1.00742 20.4517 14.1971 1.00742
237 2 20.1761 14.264 -2.39176 20.1761 14.264 -2.39176
238 1 21.2784 15.8344 -0.697114 21.2784 15.8344 -0.697114
239 2 23.258 15.7488 0.976042 23.258 15.7488 0.976042
240 2 23.3396 15.8506 -2.24044 23.3396 15.8506 -2.24044
241 1 24.1782 14.1715 -0.701512 24.1782 14.1715 -0.701512
242 2 26.078 14.1722 0.984564 26.078 14.1722 0.984564
243 2 26.1879 14.0955 -2.26267 26.1879 14.0955 -2.26267
244 1 27.0556 15.8266 -0.574011 27.0556 15.8266 -0.574011
245 2 28.7725 15.8853 1.28814 28.7725 15.8853 1.28814
246 2 29.1335 15.8681 -1.97496 29.1335 15.8681 -1.97496
247 1 29.8326 14.2028 -0.252512 29.8326 14.2028 -0.252512
248 2 31.6649 14.3204 1.53375 31.6649 14.3204 1.53375
249 2 31.8241 14.0614 -1.76859 31.8241 14.0614 -1.76859
250 1 32.8587 15.8312 -0.132426 32.8587 15.8312 -0.132426
251 2 34.5911 16.1236 1.5864 34.5911 16.1236 1.5864
252 2 34.8468 15.6965 -1.64435 34.8468 15.6965 -1.64435
253 1 35.6224 14.1502 0.26992 35.6224 14.1502 0.26992
254 2 37.4281 14.2496 2.06507 37.4281 14.2496 2.06507
255 2 37.625 14.1501 -1.31024 37.625 14.1501 -1.31024
256 1 38.5036 15.8719 0.319092 38.5036 15.8719 0.319092
257 2 40.3829 15.9992 1.94834 40.3829 15.9992 1.94834
258 2 40.2866 15.7945 -1.21756 40.2866 15.7945 -1.21756
259 1 41.2507 14.2495 0.50406 41.2507 14.2495 0.50406
260 2 43.2055 14.3876 2.08428 43.2055 14.3876 2.08428
261 2 43.0941 14.1753 -1.18777 43.0941 14.1753 -1.18777
262 1 44.269 15.8609 0.378131 44.269 15.8609 0.378131
263 2 46.0321 15.81 2.10072 46.0321 15.81 2.10072
264 2 46.2136 15.858 -1.11227 46.2136 15.858 -1.11227
265 1 47.1052 14.1928 0.631109 47.1052 14.1928 0.631109
266 2 49.2147 14.241 2.07593 49.2147 14.241 2.07593
267 2 48.9801 13.9709 -1.04664 48.9801 13.9709 -1.04664
268 1 50.083 15.7861 0.28746 50.083 15.7861 0.28746
269 2 51.9073 15.8828 1.98117 51.9073 15.8828 1.98117
270 2 52.0986 15.7656 -1.204 52.0986 15.7656 -1.204
271 1 1.53917 17.4846 0.411065 1.53917 17.4846 0.411065
272 2 3.35303 17.469 2.04599 3.35303 17.469 2.04599
273 2 3.40461 17.4477 -1.20803 3.40461 17.4477 -1.20803
274 1 4.39476 19.1233 0.341736 4.39476 19.1233 0.341736
275 2 6.229 19.3293 1.96312 6.229 19.3293 1.96312
276 2 6.37388 18.9603 -1.22057 6.37388 18.9603 -1.22057
277 1 7.17751 17.4885 0.502771 7.17751 17.4885 0.502771
278 2 9.27382 17.7416 1.97357 9.27382 17.7416 1.97357
279 2 8.99008 17.3461 -1.29589 8.99008 17.3461 -1.29589
280 1 9.94682 19.1616 0.100695 9.94682 19.1616 0.100695
281 2 12.0248 19.2079 1.5802 12.0248 19.2079 1.5802
282 2 11.8461 19.0145 -1.64284 11.8461 19.0145 -1.64284
283 1 12.8015 17.5036 -0.0881177 12.8015 17.5036 -0.0881177
284 2 14.7307 17.4686 1.61231 14.7307 17.4686 1.61231
285 2 14.7415 17.5639 -1.66846 14.7415 17.5639 -1.66846
286 1 15.7858 19.1916 0.0331657 15.7858 19.1916 0.0331657
287 2 17.8241 19.1362 1.5079 17.8241 19.1362 1.5079
288 2 17.6174 19.3716 -1.71902 17.6174 19.3716 -1.71902
289 1 18.5368 17.5472 -0.290149 18.5368 17.5472 -0.290149
290 2 20.6443 17.3676 1.13521 20.6443 17.3676 1.13521
291 2 20.5127 17.7952 -2.05831 20.5127 17.7952 -2.05831
292 1 21.493 19.1553 -0.308862 21.493 19.1553 -0.308862
293 2 23.5034 18.9903 1.24999 23.5034 18.9903 1.24999
294 2 23.411 19.3 -2.0667 23.411 19.3 -2.0667
295 1 24.317 17.4477 -0.572123 24.317 17.4477 -0.572123
296 2 26.2273 17.3753 1.11324 26.2273 17.3753 1.11324
297 2 26.1953 17.5717 -2.1715 26.1953 17.5717 -2.1715
298 1 27.2337 19.1607 -0.474693 27.2337 19.1607 -0.474693
299 2 29.0649 19.2516 1.20687 29.0649 19.2516 1.20687
300 2 29.209 19.1696 -2.09514 29.209 19.1696 -2.09514
301 1 29.9627 17.4797 -0.354303 29.9627 17.4797 -0.354303
302 2 31.9642 17.5575 1.29207 31.9642 17.5575 1.29207
303 2 32.0812 17.4083 -2.0434 32.0812 17.4083 -2.0434
304 1 32.922 19.1112 -0.413267 32.922 19.1112 -0.413267
305 2 34.6651 19.2844 1.29531 34.6651 19.2844 1.29531
306 2 34.879 19.0395 -1.99934 34.879 19.0395 -1.99934
307 1 35.731 17.5242 -0.160077 35.731 17.5242 -0.160077
308 2 37.6047 17.734 1.59439 37.6047 17.734 1.59439
309 2 37.7986 17.2577 -1.60697 37.7986 17.2577 -1.60697
310 1 38.7569 19.1793 -0.192313 38.7569 19.1793 -0.192313
311 2 40.5085 19.4459 1.55117 40.5085 19.4459 1.55117
312 2 40.7414 19.0064 -1.72709 40.7414 19.0064 -1.72709
313 1 41.4136 17.5096 0.23348 41.4136 17.5096 0.23348
314 2 43.3895 17.6854 1.91643 43.3895 17.6854 1.91643
315 2 43.4263 17.4469 -1.41486 43.4263 17.4469 -1.41486
316 1 44.4681 19.1618 0.0843298 44.4681 19.1618 0.0843298
317 2 46.2327 19.4006 1.75938 46.2327 19.4006 1.75938
318 2 46.3408 19.067 -1.49763 46.3408 19.067 -1.49763
319 1 47.2218 17.4365 0.520627 47.2218 17.4365 0.520627
320 2 49.2711 17.4018 1.97858 49.2711 17.4018 1.97858
321 2 49.0333 17.4303 -1.25782 49.0333 17.4303 -1.25782
322 1 50.0773 19.143 0.305748 50.0773 19.143 0.305748
323 2 52.0481 19.2937 2.05119 52.0481 19.2937 2.05119
324 2 52.0261 19.1335 -1.26658 52.0261 19.1335 -1.26658
325 1 1.56987 20.8068 0.26961 1.56987 20.8068 0.26961
326 2 3.42879 20.9117 1.85106 3.42879 20.9117 1.85106
327 2 3.37948 20.5503 -1.38054 3.37948 20.5503 -1.38054
328 1 4.42311 22.3342 0.0581278 4.42311 22.3342 0.0581278
329 2 6.21788 22.5653 1.85202 6.21788 22.5653 1.85202
330 2 6.43209 22.3857 -1.4625 6.43209 22.3857 -1.4625
331 1 7.26779 20.8087 0.213142 7.26779 20.8087 0.213142
332 2 9.14034 20.7527 1.80279 9.14034 20.7527 1.80279
333 2 9.0781 20.8577 -1.55232 9.0781 20.8577 -1.55232
334 1 10.1075 22.4765 0.155039 10.1075 22.4765 0.155039
335 2 12.0809 22.4214 1.70803 12.0809 22.4214 1.70803
336 2 11.8989 22.6111 -1.59601 11.8989 22.6111 -1.59601
337 1 12.9553 20.8299 -0.0944751 12.9553 20.8299 -0.0944751
338 2 14.8814 20.9752 1.50398 14.8814 20.9752 1.50398
339 2 14.9392 20.7714 -1.64274 14.9392 20.7714 -1.64274
340 1 15.9496 22.5057 -0.18276 15.9496 22.5057 -0.18276
341 2 17.7081 22.4634 1.54893 17.7081 22.4634 1.54893
342 2 17.8877 22.6382 -1.69659 17.8877 22.6382 -1.69659
343 1 18.7373 20.8605 -0.105026 18.7373 20.8605 -0.105026
344 2 20.6483 20.7485 1.42531 20.6483 20.7485 1.42531
345 2 20.5039 20.8151 -1.79696 20.5039 20.8151 -1.79696
346 1 21.591 22.4258 -0.199984 21.591 22.4258 -0.199984
347 2 23.5344 22.2528 1.42017 23.5344 22.2528 1.42017
348 2 23.4664 22.5247 -1.84019 23.4664 22.5247 -1.84019
349 1 24.3832 20.7405 -0.278313 24.3832 20.7405 -0.278313
350 2 26.3162 20.6851 1.24441 26.3162 20.6851 1.24441
351 2 26.3478 20.9085 -1.92135 26.3478 20.9085 -1.92135
352 1 27.288 22.4378 -0.167473 27.288 22.4378 -0.167473
353 2 29.3341 22.2017 1.27936 29.3341 22.2017 1.27936
354 2 29.0457 22.5851 -1.97784 29.0457 22.5851 -1.97784
355 1 30.0927 20.844 -0.608908 30.0927 20.844 -0.608908
356 2 31.9034 20.7046 1.19329 31.9034 20.7046 1.19329
357 2 32.1228 20.8836 -2.0098 32.1228 20.8836 -2.0098
358 1 33.1175 22.4337 -0.291184 33.1175 22.4337 -0.291184
359 2 35.0403 22.2615 1.37521 35.0403 22.2615 1.37521
360 2 34.9791 22.6056 -1.91002 34.9791 22.6056 -1.91002
361 1 35.9096 20.7462 -0.388888 35.9096 20.7462 -0.388888
362 2 37.6561 20.8754 1.31768 37.6561 20.8754 1.31768
363 2 38.0073 20.6928 -1.90442 38.0073 20.6928 -1.90442
364 1 38.7681 22.4498 -0.29261 38.7681 22.4498 -0.29261
365 2 40.6899 22.5319 1.3506 40.6899 22.5319 1.3506
366 2 40.5386 22.3754 -1.95793 40.5386 22.3754 -1.95793
367 1 41.6526 20.7784 -0.261923 41.6526 20.7784 -0.261923
368 2 43.5606 20.9662 1.50982 43.5606 20.9662 1.50982
369 2 43.6269 20.6748 -1.79668 43.6269 20.6748 -1.79668
370 1 44.5683 22.4296 -0.30177 44.5683 22.4296 -0.30177
371 2 46.378 22.6398 1.42585 46.378 22.6398 1.42585
372 2 46.4249 22.4139 -1.82637 46.4249 22.4139 -1.82637
373 1 47.274 20.8647 0.0116062 47.274 20.8647 0.0116062
374 2 49.1957 20.9046 1.79366 49.1957 20.9046 1.79366
375 2 49.3266 20.7711 -1.44202 49.3266 20.7711 -1.44202
376 1 50.1823 22.5688 0.0238047 50.1823 22.5688 0.0238047
377 2 52.0523 22.7505 1.68423 52.0523 22.7505 1.68423
378 2 52.0756 22.3199 -1.61135 52.0756 22.3199 -1.61135
379 1 1.73702 24.1154 -0.130607 1.73702 24.1154 -0.130607
380 2 3.57236 24.1444 1.53663 3.57236 24.1444 1.53663
381 2 3.50823 24.029 -1.80475 3.50823 24.029 -1.80475
382 1 4.57284 25.6782 -0.202614 4.57284 25.6782 -0.202614
383 2 6.31328 25.822 1.581 6.31328 25.822 1.581
384 2 6.5912 25.7467 -1.6813 6.5912 25.7467 -1.6813
385 1 7.29308 24.0683 0.118246 7.29308 24.0683 0.118246
386 2 9.30625 24.1351 1.74566 9.30625 24.1351 1.74566
387 2 9.05344 24.0748 -1.60638 9.05344 24.0748 -1.60638
388 1 10.2301 25.7665 -0.000878319 10.2301 25.7665 -0.000878319
389 2 12.1509 25.8788 1.66724 12.1509 25.8788 1.66724
390 2 12.0962 25.7711 -1.52945 12.0962 25.7711 -1.52945
391 1 13.0366 24.1868 0.0620893 13.0366 24.1868 0.0620893
392 2 14.9565 24.1028 1.60307 14.9565 24.1028 1.60307
393 2 14.8264 24.2177 -1.7123 14.8264 24.2177 -1.7123
394 1 15.9933 25.7703 -0.0394632 15.9933 25.7703 -0.0394632
395 2 17.9655 25.8131 1.53424 17.9655 25.8131 1.53424
396 2 17.9718 25.6694 -1.78443 17.9718 25.6694 -1.78443
397 1 18.7875 24.0756 0.00968221 18.7875 24.0756 0.00968221
398 2 20.9549 24.1297 1.54274 20.9549 24.1297 1.54274
399 2 20.6432 24.1106 -1.69071 20.6432 24.1106 -1.69071
400 1 21.7534 25.6963 -0.139308 21.7534 25.6963 -0.139308
401 2 23.6066 25.563 1.54297 23.6066 25.563 1.54297
402 2 23.7398 25.8002 -1.64929 23.7398 25.8002 -1.64929
403 1 24.5542 24.0579 -0.183058 24.5542 24.0579 -0.183058
404 2 26.4021 23.9987 1.4289 26.4021 23.9987 1.4289
405 2 26.4563 24.2436 -1.77389 26.4563 24.2436 -1.77389
406 1 27.4881 25.6865 0.00064351 27.4881 25.6865 0.00064351
407 2 29.463 25.4939 1.58791 29.463 25.4939 1.58791
408 2 29.3359 25.8695 -1.7198 29.3359 25.8695 -1.7198
409 1 30.1851 24.0412 -0.25846 30.1851 24.0412 -0.25846
410 2 32.1865 23.9921 1.41197 32.1865 23.9921 1.41197
411 2 32.099 24.1991 -1.9202 32.099 24.1991 -1.9202
412 1 33.1925 25.7128 -0.141229 33.1925 25.7128 -0.141229
413 2 35.0256 25.7298 1.53806 35.0256 25.7298 1.53806
414 2 35.2516 25.7612 -1.66699 35.2516 25.7612 -1.66699
415 1 35.9734 24.0542 -0.0839573 35.9734 24.0542 -0.0839573
416 2 37.9715 23.9817 1.34983 37.9715 23.9817 1.34983
417 2 37.7608 24.0893 -1.81942 37.7608 24.0893 -1.81942
418 1 38.7982 25.6772 -0.254871 38.7982 25.6772 -0.254871
419 2 40.7037 25.5433 1.35026 40.7037 25.5433 1.35026
420 2 40.7243 25.9483 -1.84296 40.7243 25.9483 -1.84296
421 1 41.6699 24.1552 -0.402085 41.6699 24.1552 -0.402085
422 2 43.5793 24.0651 1.30286 43.5793 24.0651 1.30286
423 2 43.5941 24.0873 -2.01836 43.5941 24.0873 -2.01836
424 1 44.582 25.8387 -0.214842 44.582 25.8387 -0.214842
425 2 46.5163 25.8498 1.353 46.5163 25.8498 1.353
426 2 46.4385 25.688 -2.01115 46.4385 25.688 -2.01115
427 1 47.3235 24.1823 -0.291028 47.3235 24.1823 -0.291028
428 2 49.2121 24.2695 1.43191 49.2121 24.2695 1.43191
429 2 49.3988 24.1489 -1.80755 49.3988 24.1489 -1.80755
430 1 50.3054 25.8087 -0.163444 50.3054 25.8087 -0.163444
431 2 52.3303 25.8441 1.37655 52.3303 25.8441 1.37655
432 2 52.177 25.7523 -1.86075 52.177 25.7523 -1.86075
433 1 1.80476 27.3931 -0.35399 1.80476 27.3931 -0.35399
434 2 3.66257 27.4322 1.29662 3.66257 27.4322 1.29662
435 2 3.69315 27.3507 -1.97837 3.69315 27.3507 -1.97837
436 1 4.69197 28.9518 -0.468621 4.69197 28.9518 -0.468621
437 2 6.46369 29.3955 1.24698 6.46369 29.3955 1.24698
438 2 6.69407 28.7732 -1.92306 6.69407 28.7732 -1.92306
439 1 7.46181 27.4137 -0.00330112 7.46181 27.4137 -0.00330112
440 2 9.38356 27.5287 1.63302 9.38356 27.5287 1.63302
441 2 9.3562 27.4199 -1.61564 9.3562 27.4199 -1.61564
442 1 10.3202 29.0428 -0.061037 10.3202 29.0428 -0.061037
443 2 12.309 29.2505 1.5267 12.309 29.2505 1.5267
444 2 12.1827 28.9773 -1.70742 12.1827 28.9773 -1.70742
445 1 13.1484 27.4578 0.0552946 13.1484 27.4578 0.0552946
446 2 15.111 27.5372 1.60228 15.111 27.5372 1.60228
447 2 15.0089 27.317 -1.65111 15.0089 27.317 -1.65111
448 1 16.1821 29.048 -0.166946 16.1821 29.048 -0.166946
449 2 17.956 28.9148 1.54975 17.956 28.9148 1.54975
450 2 18.1073 29.0662 -1.6308 18.1073 29.0662 -1.6308
451 1 18.9695 27.3094 -0.212923 18.9695 27.3094 -0.212923
452 2 20.7136 27.208 1.5098 20.7136 27.208 1.5098
453 2 20.9873 27.4881 -1.68724 20.9873 27.4881 -1.68724
454 1 21.8281 29.0198 0.124537 21.8281 29.0198 0.124537
455 2 23.833 28.8826 1.79454 23.833 28.8826 1.79454
456 2 23.8192 29.0493 -1.40673 23.8192 29.0493 -1.40673
457 1 24.6956 27.3324 0.0627024 24.6956 27.3324 0.0627024
458 2 26.5376 27.1565 1.81087 26.5376 27.1565 1.81087
459 2 26.5917 27.3765 -1.43114 26.5917 27.3765 -1.43114
460 1 27.5392 28.9792 0.397687 27.5392 28.9792 0.397687
461 2 29.5039 28.7551 1.92158 29.5039 28.7551 1.92158
462 2 29.4375 29.2 -1.30945 29.4375 29.2 -1.30945
463 1 30.3017 27.3178 0.0693247 30.3017 27.3178 0.0693247
464 2 32.2493 27.2264 1.68356 32.2493 27.2264 1.68356
465 2 32.2503 27.5271 -1.60537 32.2503 27.5271 -1.60537
466 1 33.223 29.006 0.336553 33.223 29.006 0.336553
467 2 35.1636 28.8578 1.90479 35.1636 28.8578 1.90479
468 2 34.9669 29.2555 -1.3212 34.9669 29.2555 -1.3212
469 1 35.9823 27.4676 0.0361988 35.9823 27.4676 0.0361988
470 2 38.012 27.2421 1.48727 38.012 27.2421 1.48727
471 2 37.7813 27.4823 -1.68473 37.7813 27.4823 -1.68473
472 1 38.8979 29.0251 -0.122989 38.8979 29.0251 -0.122989
473 2 40.8195 28.9863 1.42605 40.8195 28.9863 1.42605
474 2 40.8696 29.0677 -1.7986 40.8696 29.0677 -1.7986
475 1 41.7726 27.3778 -0.183781 41.7726 27.3778 -0.183781
476 2 43.8161 27.5047 1.46042 43.8161 27.5047 1.46042
477 2 43.5951 27.4467 -1.905 43.5951 27.4467 -1.905
478 1 44.7041 29.0995 -0.35345 44.7041 29.0995 -0.35345
479 2 46.6356 29.0184 1.21293 46.6356 29.0184 1.21293
480 2 46.5122 28.9772 -2.11472 46.5122 28.9772 -2.11472
481 1 47.545 27.3764 -0.456946 47.545 27.3764 -0.456946
482 2 49.3781 27.5192 1.34167 49.3781 27.5192 1.34167
483 2 49.4385 27.1294 -2.03496 49.4385 27.1294 -2.03496
484 1 50.3617 29.0223 -0.452145 50.3617 29.0223 -0.452145
485 2 52.2846 29.3867 1.13578 52.2846 29.3867 1.13578
486 2 52.2719 28.9537 -2.11613 52.2719 28.9537 -2.11613
487 1 1.83614 30.7589 -0.630269 1.83614 30.7589 -0.630269
488 2 3.72967 30.8425 1.01081 3.72967 30.8425 1.01081
489 2 3.74672 30.5639 -2.29538 3.74672 30.5639 -2.29538
490 1 4.74278 32.2931 -0.889722 4.74278 32.2931 -0.889722
491 2 6.44317 32.3758 0.924039 6.44317 32.3758 0.924039
492 2 6.73626 32.3769 -2.32645 6.73626 32.3769 -2.32645
493 1 7.51533 30.7122 -0.569059 7.51533 30.7122 -0.569059
494 2 9.16979 30.8152 1.19275 9.16979 30.8152 1.19275
495 2 9.65858 30.5335 -1.89785 9.65858 30.5335 -1.89785
496 1 10.4383 32.3787 -0.351308 10.4383 32.3787 -0.351308
497 2 12.4554 32.4527 1.20843 12.4554 32.4527 1.20843
498 2 12.3809 32.155 -2.09821 12.3809 32.155 -2.09821
499 1 13.2401 30.693 -0.253171 13.2401 30.693 -0.253171
500 2 15.0137 30.7249 1.46934 15.0137 30.7249 1.46934
501 2 15.2073 30.549 -1.94521 15.2073 30.549 -1.94521
502 1 16.156 32.2839 -0.30961 16.156 32.2839 -0.30961
503 2 17.9306 32.3983 1.41225 17.9306 32.3983 1.41225
504 2 18.2277 32.0498 -1.85007 18.2277 32.0498 -1.85007
505 1 18.9366 30.6298 0.137394 18.9366 30.6298 0.137394
506 2 20.8169 30.5561 1.78683 20.8169 30.5561 1.78683
507 2 21.0186 30.7365 -1.45193 21.0186 30.7365 -1.45193
508 1 21.8109 32.353 0.163829 21.8109 32.353 0.163829
509 2 23.6984 32.5141 1.9012 23.6984 32.5141 1.9012
510 2 23.7038 32.2596 -1.41177 23.7038 32.2596 -1.41177
511 1 24.7456 30.6645 0.355286 24.7456 30.6645 0.355286
512 2 26.6179 30.6291 1.95317 26.6179 30.6291 1.95317
513 2 26.7101 30.6205 -1.3522 26.7101 30.6205 -1.3522
514 1 27.612 32.3096 0.289027 27.612 32.3096 0.289027
515 2 29.2911 32.3113 2.05812 29.2911 32.3113 2.05812
516 2 29.7689 32.4096 -1.15097 29.7689 32.4096 -1.15097
517 1 30.4092 30.7078 0.546305 30.4092 30.7078 0.546305
518 2 32.4497 30.4864 2.08438 32.4497 30.4864 2.08438
519 2 32.2095 30.6608 -1.17313 32.2095 30.6608 -1.17313
520 1 33.3289 32.2764 0.570737 33.3289 32.2764 0.570737
521 2 35.3702 32.3831 2.09354 35.3702 32.3831 2.09354
522 2 35.166 32.4068 -1.20199 35.166 32.4068 -1.20199
523 1 36.0954 30.6839 0.445752 36.0954 30.6839 0.445752
524 2 38.1545 30.4122 1.82834 38.1545 30.4122 1.82834
525 2 37.8249 30.9073 -1.46789 37.8249 30.9073 -1.46789
526 1 39.0312 32.1833 0.437465 39.0312 32.1833 0.437465
527 2 41.2294 32.1486 1.67327 41.2294 32.1486 1.67327
528 2 40.6301 32.3723 -1.58054 40.6301 32.3723 -1.58054
529 1 41.8689 30.7031 -0.202535 41.8689 30.7031 -0.202535
530 2 43.7945 30.6746 1.37265 43.7945 30.6746 1.37265
531 2 43.8442 30.8652 -1.90582 43.8442 30.8652 -1.90582
532 1 44.7566 32.384 -0.169279 44.7566 32.384 -0.169279
533 2 46.7424 32.2935 1.24655 46.7424 32.2935 1.24655
534 2 46.4519 32.4266 -2.00374 46.4519 32.4266 -2.00374
535 1 47.4986 30.6181 -0.534605 47.4986 30.6181 -0.534605
536 2 49.3687 30.6829 1.13502 49.3687 30.6829 1.13502
537 2 49.4916 30.6737 -2.15731 49.4916 30.6737 -2.15731
538 1 50.3876 32.3982 -0.436137 50.3876 32.3982 -0.436137
539 2 52.4997 32.5425 0.884104 52.4997 32.5425 0.884104