ITEM: TIMESTEP
540000
ITEM: NUMBER OF ATOMS
810
ITEM: BOX BOUNDS xy xz yz pp pp pp
8.0341777045796159e-01 5.4882034278829195e+01 2.6678470492866921e+00
8.0582000660415243e-01 5.0210394993394715e+01 0.0000000000000000e+00
-1.0000000000000000e+01 1.0000000000000000e+01 0.0000000000000000e+00
ITEM: ATOMS id type x y z xu yu zu
1 1 1.03723 0.977662 0.681605 1.03723 0.977662 0.681605
2 2 5.8561 50.0465 1.94969 3.18825 0.641938 1.94969
3 2 2.69948 1.25402 -1.18457 2.69948 1.25402 -1.18457
4 1 4.04769 2.60322 0.71916 4.04769 2.60322 0.71916
5 2 6.21255 2.36387 1.80257 6.21255 2.36387 1.80257
6 2 5.43209 3.00713 -1.30294 5.43209 3.00713 -1.30294
7 1 6.83093 1.12638 -0.330916 6.83093 1.12638 -0.330916
8 2 11.5729 50.3347 0.944976 8.90508 0.930132 0.944976
9 2 8.43653 1.37564 -2.32757 8.43653 1.37564 -2.32757
10 1 9.73126 2.66455 -0.567929 9.73126 2.66455 -0.567929
11 2 11.7946 2.34889 0.917409 11.7946 2.34889 0.917409
12 2 11.5422 3.205 -2.27058 11.5422 3.205 -2.27058
13 1 12.4853 1.15656 -1.20403 12.4853 1.15656 -1.20403
14 2 14.3661 0.889826 0.390823 14.3661 0.889826 0.390823
15 2 14.4008 1.30319 -2.78723 14.4008 1.30319 -2.78723
16 1 15.4183 2.69452 -1.07341 15.4183 2.69452 -1.07341
17 2 17.4446 2.54317 0.431027 17.4446 2.54317 0.431027
18 2 17.3312 2.84896 -2.80227 17.3312 2.84896 -2.80227
19 1 18.181 1.03878 -1.37115 18.181 1.03878 -1.37115
20 2 20.1318 1.06455 0.300602 20.1318 1.06455 0.300602
21 2 22.6647 50.3211 -2.95008 19.9968 0.916505 -2.95008
22 1 21.1375 2.70316 -1.50234 21.1375 2.70316 -1.50234
23 2 23.0058 2.69467 0.137928 23.0058 2.69467 0.137928
24 2 23.0854 2.59208 -3.11336 23.0854 2.59208 -3.11336
25 1 23.9414 0.954162 -1.42716 23.9414 0.954162 -1.42716
26 2 25.6516 1.19151 0.531656 25.6516 1.19151 0.531656
27 2 28.72 50.2359 -2.74707 26.0521 0.831327 -2.74707
28 1 26.9027 2.61063 -1.07006 26.9027 2.61063 -1.07006
29 2 28.6151 2.93843 0.709883 28.6151 2.93843 0.709883
30 2 28.8873 2.34289 -2.48444 28.8873 2.34289 -2.48444
31 1 29.563 0.999298 -0.503628 29.563 0.999298 -0.503628
32 2 31.2617 1.27103 1.34752 31.2617 1.27103 1.34752
33 2 34.3839 50.0753 -1.78134 31.7161 0.670752 -1.78134
34 1 32.4615 2.55592 -0.356976 32.4615 2.55592 -0.356976
35 2 34.2348 2.92415 1.54324 34.2348 2.92415 1.54324
36 2 34.6974 2.34193 -1.62554 34.6974 2.34193 -1.62554
37 1 35.3277 0.996266 0.443786 35.3277 0.996266 0.443786
38 2 37.0026 1.16118 2.31503 37.0026 1.16118 2.31503
39 2 37.5933 0.938162 -0.858179 37.5933 0.938162 -0.858179
40 1 38.1551 2.69208 0.764657 38.1551 2.69208 0.764657
41 2 39.8014 2.94588 2.56086 39.8014 2.94588 2.56086
42 2 40.2268 2.63455 -0.61351 40.2268 2.63455 -0.61351
43 1 41.0112 1.0953 1.24654 41.0112 1.0953 1.24654
44 2 42.9752 1.14082 2.799 42.9752 1.14082 2.799
45 2 42.7706 1.11049 -0.486325 42.7706 1.11049 -0.486325
46 1 43.894 2.6964 1.09562 43.894 2.6964 1.09562
47 2 45.9657 2.63062 2.67684 45.9657 2.63062 2.67684
48 2 45.6415 2.77058 -0.568249 45.6415 2.77058 -0.568249
49 1 46.6639 0.984337 0.889844 46.6639 0.984337 0.889844
50 2 48.6237 0.841022 2.41942 48.6237 0.841022 2.41942
51 2 48.5739 1.3125 -0.865861 48.5739 1.3125 -0.865861
52 1 49.6944 2.70385 0.842401 49.6944 2.70385 0.842401
53 2 51.4775 2.41771 2.5999 51.4775 2.41771 2.5999
54 2 51.7106 3.05441 -0.675 51.7106 3.05441 -0.675
55 1 1.15907 4.33692 1.31995 1.15907 4.33692 1.31995
56 2 3.29538 4.11661 2.54169 3.29538 4.11661 2.54169
57 2 2.98356 4.42197 -0.544187 2.98356 4.42197 -0.544187
58 1 4.21027 5.93371 1.04756 4.21027 5.93371 1.04756
59 2 6.20797 5.59003 2.57837 6.20797 5.59003 2.57837
60 2 6.13701 6.35188 -0.627645 6.13701 6.35188 -0.627645
61 1 6.88485 4.30128 0.413298 6.88485 4.30128 0.413298
62 2 9.0537 3.75098 1.68433 9.0537 3.75098 1.68433
63 2 8.62471 4.82912 -1.39656 8.62471 4.82912 -1.39656
64 1 9.90618 5.83975 0.599822 9.90618 5.83975 0.599822
65 2 12.1499 5.59121 1.81657 12.1499 5.59121 1.81657
66 2 11.4577 6.35166 -1.42628 11.4577 6.35166 -1.42628
67 1 12.6805 4.38417 -0.354917 12.6805 4.38417 -0.354917
68 2 14.7412 4.19584 0.936872 14.7412 4.19584 0.936872
69 2 14.3614 4.69104 -2.19426 14.3614 4.69104 -2.19426
70 1 15.5467 6.0731 -0.537911 15.5467 6.0731 -0.537911
71 2 17.5882 5.75746 0.807027 17.5882 5.75746 0.807027
72 2 17.3069 6.18111 -2.39503 17.3069 6.18111 -2.39503
73 1 18.3848 4.37995 -1.13553 18.3848 4.37995 -1.13553
74 2 20.4118 4.27945 0.295649 20.4118 4.27945 0.295649
75 2 20.1538 4.64344 -2.81537 20.1538 4.64344 -2.81537
76 1 21.2772 6.07899 -1.20438 21.2772 6.07899 -1.20438
77 2 23.4476 5.99979 0.187275 23.4476 5.99979 0.187275
78 2 23.1094 5.94585 -2.98398 23.1094 5.94585 -2.98398
79 1 24.1447 4.30613 -1.508 24.1447 4.30613 -1.508
80 2 25.9784 4.5695 0.206821 25.9784 4.5695 0.206821
81 2 26.215 4.07192 -2.9821 26.215 4.07192 -2.9821
82 1 27.1087 5.94305 -1.56871 27.1087 5.94305 -1.56871
83 2 28.9878 6.20526 0.175697 28.9878 6.20526 0.175697
84 2 29.1595 5.75729 -3.07103 29.1595 5.75729 -3.07103
85 1 29.8534 4.29964 -1.1671 29.8534 4.29964 -1.1671
86 2 31.4507 4.63766 0.708497 31.4507 4.63766 0.708497
87 2 31.9639 3.87504 -2.41128 31.9639 3.87504 -2.41128
88 1 32.8521 5.80877 -1.07309 32.8521 5.80877 -1.07309
89 2 34.1731 6.14422 0.998966 34.1731 6.14422 0.998966
90 2 35.1876 5.77124 -2.18611 35.1876 5.77124 -2.18611
91 1 35.4952 4.25973 -0.12396 35.4952 4.25973 -0.12396
92 2 37.0733 4.58631 1.89419 37.0733 4.58631 1.89419
93 2 37.7878 4.14084 -1.2438 37.7878 4.14084 -1.2438
94 1 38.3945 6.01263 0.248024 38.3945 6.01263 0.248024
95 2 40.0144 6.32287 2.12769 40.0144 6.32287 2.12769
96 2 40.4728 5.75331 -1.06411 40.4728 5.75331 -1.06411
97 1 41.0591 4.35257 0.937323 41.0591 4.35257 0.937323
98 2 42.9533 4.32533 2.61638 42.9533 4.32533 2.61638
99 2 43.091 4.411 -0.581253 43.091 4.411 -0.581253
100 1 44.0384 6.07646 1.05365 44.0384 6.07646 1.05365
101 2 45.9201 6.03126 2.70921 45.9201 6.03126 2.70921
102 2 45.9704 6.0561 -0.523388 45.9704 6.0561 -0.523388
103 1 46.8148 4.40264 1.1014 46.8148 4.40264 1.1014
104 2 48.8674 4.23206 2.64304 48.8674 4.23206 2.64304
105 2 48.8391 4.60657 -0.571411 48.8391 4.60657 -0.571411
106 1 49.7568 6.06499 1.23807 49.7568 6.06499 1.23807
107 2 51.6382 6.0484 2.93943 51.6382 6.0484 2.93943
108 2 51.7068 6.07464 -0.364572 51.7068 6.07464 -0.364572
109 1 1.33822 7.69718 1.31071 1.33822 7.69718 1.31071
110 2 3.24093 7.4007 2.94181 3.24093 7.4007 2.94181
111 2 3.31761 7.85022 -0.290344 3.31761 7.85022 -0.290344
112 1 4.33769 9.19035 1.685 4.33769 9.19035 1.685
113 2 6.35377 9.02237 3.24109 6.35377 9.02237 3.24109
114 2 6.24898 9.34045 0.0427535 6.24898 9.34045 0.0427535
115 1 7.21738 7.47057 1.27774 7.21738 7.47057 1.27774
116 2 9.29944 7.27958 2.4922 9.29944 7.27958 2.4922
117 2 8.77514 7.72604 -0.597129 8.77514 7.72604 -0.597129
118 1 10.0984 9.18334 1.08808 10.0984 9.18334 1.08808
119 2 12.1003 8.98751 2.56322 12.1003 8.98751 2.56322
120 2 11.7424 9.49808 -0.665384 11.7424 9.49808 -0.665384
121 1 12.7933 7.59727 0.42072 12.7933 7.59727 0.42072
122 2 15.0821 7.36052 1.51961 15.0821 7.36052 1.51961
123 2 14.3878 7.92365 -1.59199 14.3878 7.92365 -1.59199
124 1 15.6944 9.32398 0.0454991 15.6944 9.32398 0.0454991
125 2 17.8706 9.11648 1.36639 17.8706 9.11648 1.36639
126 2 17.358 9.50366 -1.87531 17.358 9.50366 -1.87531
127 1 18.4616 7.67586 -0.638462 18.4616 7.67586 -0.638462
128 2 20.5637 7.68697 0.624771 20.5637 7.68697 0.624771
129 2 19.9476 7.61861 -2.58486 19.9476 7.61861 -2.58486
130 1 21.3646 9.40931 -1.18753 21.3646 9.40931 -1.18753
131 2 23.4878 9.27697 0.353645 23.4878 9.27697 0.353645
132 2 23.2667 9.3164 -2.99582 23.2667 9.3164 -2.99582
133 1 24.2351 7.58894 -1.45401 24.2351 7.58894 -1.45401
134 2 26.2382 7.67104 0.00765414 26.2382 7.67104 0.00765414
135 2 26.0313 7.41747 -3.22222 26.0313 7.41747 -3.22222
136 1 27.1382 9.19163 -1.83586 27.1382 9.19163 -1.83586
137 2 29.0333 9.37797 -0.222708 29.0333 9.37797 -0.222708
138 2 29.2104 9.12222 -3.44684 29.2104 9.12222 -3.44684
139 1 30.0442 7.55369 -1.7195 30.0442 7.55369 -1.7195
140 2 31.6449 7.69348 0.077223 31.6449 7.69348 0.077223
141 2 32.2085 7.26766 -2.99663 32.2085 7.26766 -2.99663
142 1 32.8946 9.18152 -1.53049 32.8946 9.18152 -1.53049
143 2 34.3945 9.60576 0.482742 34.3945 9.60576 0.482742
144 2 35.2101 8.85071 -2.65147 35.2101 8.85071 -2.65147
145 1 35.5887 7.65312 -0.517166 35.5887 7.65312 -0.517166
146 2 37.34 7.95048 1.34732 37.34 7.95048 1.34732
147 2 37.7209 7.29432 -1.8482 37.7209 7.29432 -1.8482
148 1 38.5992 9.17839 -0.463067 38.5992 9.17839 -0.463067
149 2 40.2933 9.66731 1.39075 40.2933 9.66731 1.39075
150 2 40.7708 8.87473 -1.72908 40.7708 8.87473 -1.72908
151 1 41.2775 7.65824 0.408927 41.2775 7.65824 0.408927
152 2 42.9448 7.90066 2.23886 42.9448 7.90066 2.23886
153 2 43.3621 7.54356 -0.910917 43.3621 7.54356 -0.910917
154 1 44.2995 9.33542 0.481373 44.2995 9.33542 0.481373
155 2 45.8516 9.47699 2.4108 45.8516 9.47699 2.4108
156 2 46.4877 9.23422 -0.814081 46.4877 9.23422 -0.814081
157 1 47.0205 7.68165 1.1475 47.0205 7.68165 1.1475
158 2 48.8084 7.69015 2.89269 48.8084 7.69015 2.89269
159 2 49.0947 7.84181 -0.361274 49.0947 7.84181 -0.361274
160 1 49.9091 9.39728 1.34615 49.9091 9.39728 1.34615
161 2 51.7905 9.19008 3.02869 51.7905 9.19008 3.02869
162 2 51.9733 9.4994 -0.204223 51.9733 9.4994 -0.204223
163 1 1.52322 10.985 1.64754 1.52322 10.985 1.64754
164 2 3.41276 10.813 3.38397 3.41276 10.813 3.38397
165 2 3.50528 10.9703 0.14514 3.50528 10.9703 0.14514
166 1 4.53376 12.5623 1.83505 4.53376 12.5623 1.83505
167 2 6.46347 12.5638 3.49687 6.46347 12.5638 3.49687
168 2 6.39731 12.4835 0.136584 6.39731 12.4835 0.136584
169 1 7.32415 10.8152 1.86768 7.32415 10.8152 1.86768
170 2 9.51244 10.4859 3.18005 9.51244 10.4859 3.18005
171 2 9.04924 11.1541 -0.0197563 9.04924 11.1541 -0.0197563
172 1 10.2503 12.5156 1.71466 10.2503 12.5156 1.71466
173 2 12.4586 12.2187 3.13745 12.4586 12.2187 3.13745
174 2 12.0061 12.8161 -0.0852078 12.0061 12.8161 -0.0852078
175 1 13.0792 10.9395 1.10484 13.0792 10.9395 1.10484
176 2 15.4792 10.6016 2.24596 15.4792 10.6016 2.24596
177 2 14.4339 11.3039 -0.898886 14.4339 11.3039 -0.898886
178 1 15.9967 12.5148 0.717656 15.9967 12.5148 0.717656
179 2 18.2509 12.2153 1.79349 18.2509 12.2153 1.79349
180 2 17.5981 13.0615 -1.19687 17.5981 13.0615 -1.19687
181 1 18.6577 10.9237 -0.227281 18.6577 10.9237 -0.227281
182 2 20.8544 10.7221 0.906171 20.8544 10.7221 0.906171
183 2 20.1714 11.2928 -2.20632 20.1714 11.2928 -2.20632
184 1 21.6142 12.5719 -0.532002 21.6142 12.5719 -0.532002
185 2 23.7219 12.1738 0.72061 23.7219 12.1738 0.72061
186 2 23.3029 12.9256 -2.47412 23.3029 12.9256 -2.47412
187 1 24.4126 10.9692 -1.37588 24.4126 10.9692 -1.37588
188 2 26.3957 10.7715 0.0316597 26.3957 10.7715 0.0316597
189 2 26.1586 10.9803 -3.27195 26.1586 10.9803 -3.27195
190 1 27.2792 12.5657 -1.50808 27.2792 12.5657 -1.50808
191 2 29.3602 12.5506 -0.032553 29.3602 12.5506 -0.032553
192 2 29.0082 12.7213 -3.34524 29.0082 12.7213 -3.34524
193 1 30.1941 10.9138 -1.89184 30.1941 10.9138 -1.89184
194 2 31.9873 11.0517 -0.117241 31.9873 11.0517 -0.117241
195 2 32.2058 10.7471 -3.37124 32.2058 10.7471 -3.37124
196 1 33.1216 12.488 -1.77176 33.1216 12.488 -1.77176
197 2 34.9265 12.7506 0.0498998 34.9265 12.7506 0.0498998
198 2 35.2651 12.3374 -3.05461 35.2651 12.3374 -3.05461
199 1 35.8604 10.84 -1.24278 35.8604 10.84 -1.24278
200 2 37.3426 10.9737 0.79065 37.3426 10.9737 0.79065
201 2 38.0442 10.7263 -2.33532 38.0442 10.7263 -2.33532
202 1 38.7861 12.5326 -0.575607 38.7861 12.5326 -0.575607
203 2 40.7456 12.6288 1.15346 40.7456 12.6288 1.15346
204 2 40.7566 12.416 -2.21854 40.7566 12.416 -2.21854
205 1 41.6107 10.9247 -0.457402 41.6107 10.9247 -0.457402
206 2 42.956 11.0825 1.68253 42.956 11.0825 1.68253
207 2 43.8694 10.8263 -1.4916 43.8694 10.8263 -1.4916
208 1 44.5509 12.6031 0.230447 44.5509 12.6031 0.230447
209 2 46.1649 12.7919 2.10087 46.1649 12.7919 2.10087
210 2 46.6983 12.4813 -1.02992 46.6983 12.4813 -1.02992
211 1 47.229 10.9485 0.893992 47.229 10.9485 0.893992
212 2 48.753 11.0569 2.82417 48.753 11.0569 2.82417
213 2 49.3659 11.1199 -0.451623 49.3659 11.1199 -0.451623
214 1 50.1452 12.6485 1.42259 50.1452 12.6485 1.42259
215 2 51.8941 12.671 3.24408 51.8941 12.671 3.24408
216 2 52.236 12.622 -0.0479413 52.236 12.622 -0.0479413
217 1 1.64193 14.2948 1.48213 1.64193 14.2948 1.48213
218 2 3.70281 14.5813 3.11196 3.70281 14.5813 3.11196
219 2 3.57724 14.0219 -0.149882 3.57724 14.0219 -0.149882
220 1 4.68255 15.7938 1.15497 4.68255 15.7938 1.15497
221 2 6.46411 15.9762 3.05149 6.46411 15.9762 3.05149
222 2 6.93691 15.7066 -0.0574688 6.93691 15.7066 -0.0574688
223 1 7.48834 14.156 1.76987 7.48834 14.156 1.76987
224 2 9.45057 14.2311 3.47639 9.45057 14.2311 3.47639
225 2 9.44379 14.219 0.212891 9.44379 14.219 0.212891
226 1 10.472 15.8315 1.74421 10.472 15.8315 1.74421
227 2 12.4023 15.7047 3.38793 12.4023 15.7047 3.38793
228 2 12.4761 15.9608 0.1777 12.4761 15.9608 0.1777
229 1 13.268 14.1036 1.67009 13.268 14.1036 1.67009
230 2 15.5278 13.923 2.71145 15.5278 13.923 2.71145
231 2 14.7009 14.2611 -0.397411 14.7009 14.2611 -0.397411
232 1 16.1097 15.7543 1.16484 16.1097 15.7543 1.16484
233 2 18.1728 15.5745 2.51438 18.1728 15.5745 2.51438
234 2 17.7219 16.1734 -0.734503 17.7219 16.1734 -0.734503
235 1 18.8812 14.219 0.491221 18.8812 14.219 0.491221
236 2 21.1787 14.0103 1.50366 21.1787 14.0103 1.50366
237 2 20.3406 14.4798 -1.57832 20.3406 14.4798 -1.57832
238 1 21.8044 15.9293 0.0545013 21.8044 15.9293 0.0545013
239 2 24.0238 15.5352 1.26704 24.0238 15.5352 1.26704
240 2 23.2451 16.1778 -1.91532 23.2451 16.1778 -1.91532
241 1 24.5066 14.0971 -0.778989 24.5066 14.0971 -0.778989
242 2 26.7042 13.9853 0.435257 26.7042 13.9853 0.435257
243 2 26.0306 14.2977 -2.76079 26.0306 14.2977 -2.76079
244 1 27.4141 15.8582 -1.16585 27.4141 15.8582 -1.16585
245 2 29.5763 15.6793 0.112989 29.5763 15.6793 0.112989
246 2 29.1095 16.1038 -2.97363 29.1095 16.1038 -2.97363
247 1 30.254 14.1917 -1.72098 30.254 14.1917 -1.72098
248 2 32.2051 14.1654 -0.12123 32.2051 14.1654 -0.12123
249 2 32.2147 14.0821 -3.37056 32.2147 14.0821 -3.37056
250 1 33.2534 15.7336 -1.76251 33.2534 15.7336 -1.76251
251 2 35.1064 15.9833 -0.106206 35.1064 15.9833 -0.106206
252 2 35.1699 15.6287 -3.34845 35.1699 15.6287 -3.34845
253 1 36.1107 14.1325 -1.5528 36.1107 14.1325 -1.5528
254 2 37.8133 14.6203 0.29847 37.8133 14.6203 0.29847
255 2 38.2068 13.745 -2.71179 38.2068 13.745 -2.71179
256 1 39.0549 15.7436 -1.57306 39.0549 15.7436 -1.57306
257 2 40.5997 16.2718 0.243344 40.5997 16.2718 0.243344
258 2 41.2887 15.4628 -2.8919 41.2887 15.4628 -2.8919
259 1 41.7645 14.2547 -0.72781 41.7645 14.2547 -0.72781
260 2 43.3707 14.5606 1.28169 43.3707 14.5606 1.28169
261 2 44.0691 13.9451 -1.89903 44.0691 13.9451 -1.89903
262 1 44.7385 15.8664 -0.335438 44.7385 15.8664 -0.335438
263 2 46.3479 16.3801 1.52649 46.3479 16.3801 1.52649
264 2 46.8043 15.4587 -1.58752 46.8043 15.4587 -1.58752
265 1 47.4109 14.2858 0.549254 47.4109 14.2858 0.549254
266 2 49.1113 14.6387 2.44917 49.1113 14.6387 2.44917
267 2 49.5677 13.9768 -0.6793 49.5677 13.9768 -0.6793
268 1 50.3112 15.9325 0.708349 50.3112 15.9325 0.708349
269 2 51.9928 16.3573 2.5243 51.9928 16.3573 2.5243
270 2 52.4981 15.6527 -0.632855 52.4981 15.6527 -0.632855
271 1 1.95977 17.5529 0.700076 1.95977 17.5529 0.700076
272 2 3.55213 17.5957 2.63917 3.55213 17.5957 2.63917
273 2 4.15954 17.3673 -0.552208 4.15954 17.3673 -0.552208
274 1 4.84238 19.1836 1.17098 4.84238 19.1836 1.17098
275 2 6.68792 19.4168 2.8223 6.68792 19.4168 2.8223
276 2 6.86871 18.9874 -0.389439 6.86871 18.9874 -0.389439
277 1 7.68807 17.5225 1.46905 7.68807 17.5225 1.46905
278 2 9.49333 17.448 3.28889 9.49333 17.448 3.28889
279 2 9.71393 17.4609 -0.00871607 9.71393 17.4609 -0.00871607
280 1 10.6472 19.1559 1.84296 10.6472 19.1559 1.84296
281 2 12.6271 19.2588 3.41582 12.6271 19.2588 3.41582
282 2 12.5462 19.0125 0.273406 12.5462 19.0125 0.273406
283 1 13.449 17.4445 1.87993 13.449 17.4445 1.87993
284 2 15.7123 17.3169 3.14174 15.7123 17.3169 3.14174
285 2 15.0272 17.6926 0.00705002 15.0272 17.6926 0.00705002
286 1 16.4343 19.1024 1.61261 16.4343 19.1024 1.61261
287 2 18.4586 18.8402 2.97406 18.4586 18.8402 2.97406
288 2 18.0926 19.289 -0.257659 18.0926 19.289 -0.257659
289 1 19.071 17.4199 1.03486 19.071 17.4199 1.03486
290 2 21.2657 17.1103 2.11487 21.2657 17.1103 2.11487
291 2 20.7729 17.83 -0.895382 20.7729 17.83 -0.895382
292 1 22.0686 19.0835 0.846937 22.0686 19.0835 0.846937
293 2 24.4197 18.7403 1.96322 24.4197 18.7403 1.96322
294 2 23.5304 19.4486 -1.21875 23.5304 19.4486 -1.21875
295 1 24.7314 17.5055 -0.210438 24.7314 17.5055 -0.210438
296 2 27.0778 17.173 0.888365 27.0778 17.173 0.888365
297 2 26.1433 17.8482 -2.21179 26.1433 17.8482 -2.21179
298 1 27.7279 19.0699 -0.51917 27.7279 19.0699 -0.51917
299 2 29.9597 18.9634 0.563259 29.9597 18.9634 0.563259
300 2 29.1679 19.2058 -2.63251 29.1679 19.2058 -2.63251
301 1 30.396 17.4235 -1.41336 30.396 17.4235 -1.41336
302 2 32.5776 17.4347 -0.104366 32.5776 17.4347 -0.104366
303 2 32.0756 17.2425 -3.25737 32.0756 17.2425 -3.25737
304 1 33.312 19.0921 -2.03131 33.312 19.0921 -2.03131
305 2 35.1971 19.1177 -0.347523 35.1971 19.1177 -0.347523
306 2 35.3349 19.191 -3.66264 35.3349 19.191 -3.66264
307 1 36.2243 17.5005 -1.96016 36.2243 17.5005 -1.96016
308 2 37.9308 17.6029 -0.180682 37.9308 17.6029 -0.180682
309 2 38.3098 17.1657 -3.39707 38.3098 17.1657 -3.39707
310 1 39.1804 19.0481 -1.97067 39.1804 19.0481 -1.97067
311 2 40.9478 19.299 -0.161537 40.9478 19.299 -0.161537
312 2 41.3449 18.8664 -3.37248 41.3449 18.8664 -3.37248
313 1 42.0006 17.4112 -1.50514 42.0006 17.4112 -1.50514
314 2 43.5597 17.9764 0.497221 43.5597 17.9764 0.497221
315 2 44.231 16.9509 -2.61313 44.231 16.9509 -2.61313
316 1 44.9859 19.1134 -1.24092 44.9859 19.1134 -1.24092
317 2 46.5671 19.3877 0.749093 46.5671 19.3877 0.749093
318 2 47.1502 18.8528 -2.38114 47.1502 18.8528 -2.38114
319 1 47.6879 17.4648 -0.389928 47.6879 17.4648 -0.389928
320 2 49.0503 17.9539 1.60872 49.0503 17.9539 1.60872
321 2 49.9346 17.1019 -1.41974 49.9346 17.1019 -1.41974
322 1 50.5798 19.1113 -0.0452999 50.5798 19.1113 -0.0452999
323 2 52.3921 19.3632 1.84873 52.3921 19.3632 1.84873
324 2 52.6651 18.899 -1.34638 52.6651 18.899 -1.34638
325 1 2.13532 20.7655 0.114176 2.13532 20.7655 0.114176
326 2 3.66448 21.1786 2.07974 3.66448 21.1786 2.07974
327 2 4.2471 20.3274 -1.08829 4.2471 20.3274 -1.08829
328 1 4.99529 22.3622 0.23543 4.99529 22.3622 0.23543
329 2 6.57866 22.6704 2.13741 6.57866 22.6704 2.13741
330 2 7.25955 22.0951 -0.952496 7.25955 22.0951 -0.952496
331 1 7.7989 20.8162 1.17986 7.7989 20.8162 1.17986
332 2 9.74096 21.3108 2.90753 9.74096 21.3108 2.90753
333 2 9.97458 20.4658 -0.199439 9.97458 20.4658 -0.199439
334 1 10.8025 22.4509 1.01952 10.8025 22.4509 1.01952
335 2 12.4482 22.7558 2.95348 12.4482 22.7558 2.95348
336 2 12.911 22.3475 -0.308008 12.911 22.3475 -0.308008
337 1 13.5984 20.8388 1.6633 13.5984 20.8388 1.6633
338 2 15.5837 20.8814 3.27998 15.5837 20.8814 3.27998
339 2 15.5224 20.8282 0.0435218 15.5224 20.8282 0.0435218
340 1 16.5767 22.5126 1.57382 16.5767 22.5126 1.57382
341 2 18.5041 22.5321 3.09146 18.5041 22.5321 3.09146
342 2 18.3269 22.4305 -0.121923 18.3269 22.4305 -0.121923
343 1 19.2236 20.7281 1.44969 19.2236 20.7281 1.44969
344 2 21.4115 20.6244 2.72324 21.4115 20.6244 2.72324
345 2 20.8884 20.9441 -0.426591 20.8884 20.9441 -0.426591
346 1 22.2814 22.4014 1.13755 22.2814 22.4014 1.13755
347 2 24.4086 22.1906 2.37193 24.4086 22.1906 2.37193
348 2 23.8663 22.536 -0.803717 23.8663 22.536 -0.803717
349 1 25.0537 20.703 0.418798 25.0537 20.703 0.418798
350 2 27.3172 20.5563 1.45102 27.3172 20.5563 1.45102
351 2 26.5217 20.9877 -1.65059 26.5217 20.9877 -1.65059
352 1 27.9118 22.3973 -0.135517 27.9118 22.3973 -0.135517
353 2 30.1962 22.1762 0.916434 30.1962 22.1762 0.916434
354 2 29.362 22.7656 -2.20105 29.362 22.7656 -2.20105
355 1 30.5629 20.7937 -1.21647 30.5629 20.7937 -1.21647
356 2 32.6441 20.5281 -0.0276231 32.6441 20.5281 -0.0276231
357 2 32.2064 21.0176 -3.16106 32.2064 21.0176 -3.16106
358 1 33.5248 22.3601 -1.54352 33.5248 22.3601 -1.54352
359 2 35.6439 22.3378 -0.117211 35.6439 22.3378 -0.117211
360 2 35.389 22.4924 -3.28826 35.389 22.4924 -3.28826
361 1 36.3556 20.744 -1.95277 36.3556 20.744 -1.95277
362 2 38.2949 20.8178 -0.359101 38.2949 20.8178 -0.359101
363 2 38.2924 20.793 -3.65271 38.2924 20.793 -3.65271
364 1 39.422 22.3582 -2.05993 39.422 22.3582 -2.05993
365 2 41.3873 22.4839 -0.380109 41.3873 22.4839 -0.380109
366 2 41.2524 22.2557 -3.64973 41.2524 22.2557 -3.64973
367 1 42.2141 20.7373 -1.89176 42.2141 20.7373 -1.89176
368 2 43.9034 20.9695 -0.00610229 43.9034 20.9695 -0.00610229
369 2 44.2347 20.4095 -3.18343 44.2347 20.4095 -3.18343
370 1 45.1393 22.3113 -1.72774 45.1393 22.3113 -1.72774
371 2 46.7488 22.6643 0.194649 46.7488 22.6643 0.194649
372 2 47.3119 22.0333 -2.99968 47.3119 22.0333 -2.99968
373 1 47.8721 20.6991 -0.936785 47.8721 20.6991 -0.936785
374 2 49.4749 21.0816 0.924621 49.4749 21.0816 0.924621
375 2 50.0732 20.4514 -2.18493 50.0732 20.4514 -2.18493
376 1 50.8183 22.4188 -0.892738 50.8183 22.4188 -0.892738
377 2 52.2856 22.6719 1.13206 52.2856 22.6719 1.13206
378 2 53.1891 22.0839 -1.92748 53.1891 22.0839 -1.92748
379 1 2.37461 24.0747 -0.448764 2.37461 24.0747 -0.448764
380 2 3.92018 24.3684 1.46307 3.92018 24.3684 1.46307
381 2 4.60221 23.7896 -1.61492 4.60221 23.7896 -1.61492
382 1 5.33381 25.6967 -0.166415 5.33381 25.6967 -0.166415
383 2 7.03571 26.0188 1.65731 7.03571 26.0188 1.65731
384 2 7.42579 25.3308 -1.58164 7.42579 25.3308 -1.58164
385 1 8.06133 24.0042 0.453408 8.06133 24.0042 0.453408
386 2 9.65983 24.1886 2.46768 9.65983 24.1886 2.46768
387 2 10.2343 23.9328 -0.92376 10.2343 23.9328 -0.92376
388 1 10.9766 25.6718 0.749939 10.9766 25.6718 0.749939
389 2 12.6995 25.9503 2.62159 12.6995 25.9503 2.62159
390 2 13.1381 25.5952 -0.632679 13.1381 25.5952 -0.632679
391 1 13.6963 24.108 1.27732 13.6963 24.108 1.27732
392 2 15.5305 24.2818 2.95282 15.5305 24.2818 2.95282
393 2 15.6568 23.9266 -0.256498 15.6568 23.9266 -0.256498
394 1 16.7587 25.8031 1.26802 16.7587 25.8031 1.26802
395 2 18.5276 25.6715 3.02859 18.5276 25.6715 3.02859
396 2 18.7516 25.75 -0.208942 18.7516 25.75 -0.208942
397 1 19.4947 24.0771 1.4501 19.4947 24.0771 1.4501
398 2 21.4996 23.9696 2.93319 21.4996 23.9696 2.93319
399 2 21.3199 24.1628 -0.354827 21.3199 24.1628 -0.354827
400 1 22.4272 25.5991 1.31316 22.4272 25.5991 1.31316
401 2 24.7455 25.4193 2.58929 24.7455 25.4193 2.58929
402 2 24.102 25.7508 -0.578232 24.102 25.7508 -0.578232
403 1 25.2119 23.9859 0.729826 25.2119 23.9859 0.729826
404 2 27.358 23.8315 1.832 27.358 23.8315 1.832
405 2 26.7933 24.3362 -1.27728 26.7933 24.3362 -1.27728
406 1 28.156 25.6673 0.297548 28.156 25.6673 0.297548
407 2 30.3551 25.1826 1.46846 30.3551 25.1826 1.46846
408 2 29.7665 25.9833 -1.63357 29.7665 25.9833 -1.63357
409 1 30.8534 24.0041 -0.58562 30.8534 24.0041 -0.58562
410 2 33.1599 23.8285 0.400988 33.1599 23.8285 0.400988
411 2 32.2601 24.2723 -2.62219 32.2601 24.2723 -2.62219
412 1 33.7482 25.7377 -1.14793 33.7482 25.7377 -1.14793
413 2 35.888 25.496 0.196621 35.888 25.496 0.196621
414 2 35.4816 25.896 -3.07056 35.4816 25.896 -3.07056
415 1 36.5391 24.0535 -1.68606 36.5391 24.0535 -1.68606
416 2 38.6311 23.9774 -0.36621 38.6311 23.9774 -0.36621
417 2 38.3925 24.0857 -3.60703 38.3925 24.0857 -3.60703
418 1 39.4666 25.7323 -2.02291 39.4666 25.7323 -2.02291
419 2 41.4808 25.4025 -0.333285 41.4808 25.4025 -0.333285
420 2 41.5536 26.0033 -3.55981 41.5536 26.0033 -3.55981
421 1 42.3068 24.0571 -2.139 42.3068 24.0571 -2.139
422 2 44.0308 24.0126 -0.246382 44.0308 24.0126 -0.246382
423 2 44.5014 23.9404 -3.49463 44.5014 23.9404 -3.49463
424 1 45.2863 25.6652 -1.74988 45.2863 25.6652 -1.74988
425 2 47.172 25.7944 -0.116482 47.172 25.7944 -0.116482
426 2 47.3373 25.4877 -3.27182 47.3373 25.4877 -3.27182
427 1 48.06 24.0021 -1.52811 48.06 24.0021 -1.52811
428 2 49.8222 24.3324 0.358315 49.8222 24.3324 0.358315
429 2 50.1398 23.7556 -2.93811 50.1398 23.7556 -2.93811
430 1 51.1046 25.5853 -1.55078 51.1046 25.5853 -1.55078
431 2 52.5529 26.1083 0.518203 52.5529 26.1083 0.518203
432 2 53.3966 25.3182 -2.58104 53.3966 25.3182 -2.58104
433 1 2.51885 27.3121 -1.18544 2.51885 27.3121 -1.18544
434 2 4.14269 27.783 0.687379 4.14269 27.783 0.687379
435 2 4.73973 26.7265 -2.38903 4.73973 26.7265 -2.38903
436 1 5.53963 28.8969 -1.06551 5.53963 28.8969 -1.06551
437 2 7.04444 29.1557 1.08991 7.04444 29.1557 1.08991
438 2 7.89897 28.7868 -2.14699 7.89897 28.7868 -2.14699
439 1 8.22731 27.2944 -0.138218 8.22731 27.2944 -0.138218
440 2 9.74211 27.6353 1.82762 9.74211 27.6353 1.82762
441 2 10.5559 27.1161 -1.31246 10.5559 27.1161 -1.31246
442 1 11.2095 29.0627 0.234256 11.2095 29.0627 0.234256
443 2 12.8741 29.4079 2.09065 12.8741 29.4079 2.09065
444 2 13.2703 28.7553 -1.14916 13.2703 28.7553 -1.14916
445 1 13.9328 27.4415 0.912146 13.9328 27.4415 0.912146
446 2 15.6428 27.5226 2.67157 15.6428 27.5226 2.67157
447 2 16.0569 27.3154 -0.507083 16.0569 27.3154 -0.507083
448 1 16.8541 29.1595 1.10023 16.8541 29.1595 1.10023
449 2 18.7311 29.3306 2.79291 18.7311 29.3306 2.79291
450 2 18.8319 28.9776 -0.379322 18.8319 28.9776 -0.379322
451 1 19.6841 27.4641 1.47641 19.6841 27.4641 1.47641
452 2 21.6849 27.4131 2.98786 21.6849 27.4131 2.98786
453 2 21.4927 27.4014 -0.305979 21.4927 27.4014 -0.305979
454 1 22.6543 28.9145 1.21195 22.6543 28.9145 1.21195
455 2 24.6561 28.7048 2.74116 24.6561 28.7048 2.74116
456 2 24.4755 29.108 -0.541733 24.4755 29.108 -0.541733
457 1 25.4309 27.2236 0.878969 25.4309 27.2236 0.878969
458 2 27.4765 26.9829 2.28789 27.4765 26.9829 2.28789
459 2 27.1377 27.4679 -0.973808 27.1377 27.4679 -0.973808
460 1 28.3833 28.8551 0.833901 28.3833 28.8551 0.833901
461 2 30.577 28.751 2.04507 30.577 28.751 2.04507
462 2 29.885 29.1565 -1.11402 29.885 29.1565 -1.11402
463 1 31.0876 27.2778 0.10433 31.0876 27.2778 0.10433
464 2 33.4559 26.9525 0.957168 33.4559 26.9525 0.957168
465 2 32.3274 27.585 -2.03306 32.3274 27.585 -2.03306
466 1 33.9746 28.9716 -0.629702 33.9746 28.9716 -0.629702
467 2 36.2415 28.8596 0.505205 36.2415 28.8596 0.505205
468 2 35.4664 29.1654 -2.63231 35.4664 29.1654 -2.63231
469 1 36.7113 27.4094 -1.45054 36.7113 27.4094 -1.45054
470 2 38.8084 27.174 -0.0933404 38.8084 27.174 -0.0933404
471 2 38.3673 27.571 -3.31106 38.3673 27.571 -3.31106
472 1 39.5966 29.0667 -1.66327 39.5966 29.0667 -1.66327
473 2 41.3345 28.9571 0.042963 41.3345 28.9571 0.042963
474 2 41.6234 29.1076 -3.32554 41.6234 29.1076 -3.32554
475 1 42.4148 27.3578 -1.62273 42.4148 27.3578 -1.62273
476 2 44.3816 27.3631 -0.0284744 44.3816 27.3631 -0.0284744
477 2 44.4159 27.4686 -3.31232 44.4159 27.4686 -3.31232
478 1 45.4637 29.0545 -1.64227 45.4637 29.0545 -1.64227
479 2 47.356 29.1263 -0.0805302 47.356 29.1263 -0.0805302
480 2 47.3163 29.1404 -3.4785 47.3163 29.1404 -3.4785
481 1 48.2027 27.4307 -1.79923 48.2027 27.4307 -1.79923
482 2 50.052 27.4187 -0.0975131 50.052 27.4187 -0.0975131
483 2 50.2306 27.3172 -3.29038 50.2306 27.3172 -3.29038
484 1 51.2483 28.9949 -1.78455 51.2483 28.9949 -1.78455
485 2 52.7984 29.2135 0.224228 52.7984 29.2135 0.224228
486 2 53.4014 28.8527 -3.01472 53.4014 28.8527 -3.01472
487 1 2.75882 30.6001 -1.44486 2.75882 30.6001 -1.44486
488 2 4.50842 30.6418 0.421187 4.50842 30.6418 0.421187
489 2 4.89335 30.604 -2.87642 4.89335 30.604 -2.87642
490 1 5.71927 32.2378 -1.15256 5.71927 32.2378 -1.15256
491 2 7.17255 32.4293 0.842759 7.17255 32.4293 0.842759
492 2 7.95638 32.0527 -2.30523 7.95638 32.0527 -2.30523
493 1 8.39106 30.6245 -0.326352 8.39106 30.6245 -0.326352
494 2 10.0783 30.9386 1.50538 10.0783 30.9386 1.50538
495 2 10.5624 30.3647 -1.77139 10.5624 30.3647 -1.77139
496 1 11.3892 32.3114 -0.256041 11.3892 32.3114 -0.256041
497 2 13.2104 32.6257 1.48398 13.2104 32.6257 1.48398
498 2 13.4737 32.0163 -1.67704 13.4737 32.0163 -1.67704
499 1 14.0923 30.6615 0.228888 14.0923 30.6615 0.228888
500 2 15.7005 31.0361 2.1244 15.7005 31.0361 2.1244
501 2 16.2932 30.5217 -0.947181 16.2932 30.5217 -0.947181
502 1 17.0527 32.3809 0.489046 17.0527 32.3809 0.489046
503 2 18.7031 32.5201 2.3788 18.7031 32.5201 2.3788
504 2 19.124 32.2044 -0.896137 19.124 32.2044 -0.896137
505 1 19.791 30.6993 1.05697 19.791 30.6993 1.05697
506 2 21.7269 30.7361 2.70339 21.7269 30.7361 2.70339
507 2 21.6785 30.5783 -0.570555 21.6785 30.5783 -0.570555
508 1 22.7863 32.2657 0.95395 22.7863 32.2657 0.95395
509 2 24.5251 32.337 2.82681 24.5251 32.337 2.82681
510 2 24.8777 32.3617 -0.46942 24.8777 32.3617 -0.46942
511 1 25.5326 30.5556 1.2185 25.5326 30.5556 1.2185
512 2 27.584 30.2719 2.67615 27.584 30.2719 2.67615
513 2 27.3564 30.6298 -0.488595 27.3564 30.6298 -0.488595
514 1 28.5073 32.1281 1.16533 28.5073 32.1281 1.16533
515 2 30.7432 32.1284 2.30322 30.7432 32.1284 2.30322
516 2 30.005 32.3896 -0.83689 30.005 32.3896 -0.83689
517 1 31.2992 30.5718 0.419036 31.2992 30.5718 0.419036
518 2 33.6774 30.5129 1.29958 33.6774 30.5129 1.29958
519 2 32.7077 30.7102 -1.8397 32.7077 30.7102 -1.8397
520 1 34.0522 32.272 -0.519857 34.0522 32.272 -0.519857
521 2 36.2551 32.1169 0.788599 36.2551 32.1169 0.788599
522 2 35.7378 32.5789 -2.33419 35.7378 32.5789 -2.33419
523 1 36.8192 30.7789 -1.1585 36.8192 30.7789 -1.1585
524 2 38.8653 30.5794 0.232982 38.8653 30.5794 0.232982
525 2 38.5367 31.0433 -2.98361 38.5367 31.0433 -2.98361
526 1 39.7602 32.4215 -1.3329 39.7602 32.4215 -1.3329
527 2 41.5958 32.1657 0.331328 41.5958 32.1657 0.331328
528 2 41.8233 32.696 -2.80327 41.8233 32.696 -2.80327
529 1 42.5403 30.6101 -1.42407 42.5403 30.6101 -1.42407
530 2 44.5408 30.7371 0.00189811 44.5408 30.7371 0.00189811
531 2 44.3922 30.7199 -3.24097 44.3922 30.7199 -3.24097
532 1 45.5061 32.4066 -1.60014 45.5061 32.4066 -1.60014
533 2 47.5715 32.438 -0.010863 47.5715 32.438 -0.010863
534 2 47.388 32.6766 -3.29109 47.388 32.6766 -3.29109
535 1 48.4839 30.8044 -1.81297 48.4839 30.8044 -1.81297
536 2 50.4398 30.6563 -0.145073 50.4398 30.6563 -0.145073
537 2 50.3955 30.8841 -3.3996 50.3955 30.8841 -3.3996