ITEM: TIMESTEP
2942000
ITEM: NUMBER OF ATOMS
810
ITEM: BOX BOUNDS xy xz yz pp pp pp
8.0341777045796159e-01 6.6749013190656285e+01 1.4534825961113782e+01
8.0582000660415243e-01 5.0210394993394715e+01 0.0000000000000000e+00
-1.0000000000000000e+01 1.0000000000000000e+01 0.0000000000000000e+00
ITEM: ATOMS id type x y z xu yu zu
1 1 15.7495 50.1228 -3.79383 1.21465 0.718274 -3.79383
2 2 2.74474 1.32702 -1.79689 2.74474 1.32702 -1.79689
3 2 18.3164 49.5198 -4.55997 3.78161 0.115192 -4.55997
4 1 4.63162 2.44564 -3.4514 4.63162 2.44564 -3.4514
5 2 6.22939 3.04489 -1.58473 6.22939 3.04489 -1.58473
6 2 6.996 1.63462 -4.3313 6.996 1.63462 -4.3313
7 1 21.404 50.0541 -1.94649 6.86918 0.649555 -1.94649
8 2 8.05495 1.65279 0.136703 8.05495 1.65279 0.136703
9 2 23.8519 49.3963 -2.41393 9.31704 -0.00828947 -2.41393
10 1 10.2011 2.39468 -1.56105 10.2011 2.39468 -1.56105
11 2 11.4988 3.50988 0.490652 11.4988 3.50988 0.490652
12 2 12.7455 1.81771 -1.90899 12.7455 1.81771 -1.90899
13 1 12.3147 1.1507 0.467641 12.3147 1.1507 0.467641
14 2 13.7032 2.02594 2.40072 13.7032 2.02594 2.40072
15 2 29.1272 49.7467 -0.1659 14.5923 0.342133 -0.1659
16 1 15.7479 2.727 0.827872 15.7479 2.727 0.827872
17 2 16.8849 3.63527 2.85394 16.8849 3.63527 2.85394
18 2 18.0657 2.10716 0.159666 18.0657 2.10716 0.159666
19 1 17.9896 1.32475 2.65808 17.9896 1.32475 2.65808
20 2 19.7285 1.70351 4.53436 19.7285 1.70351 4.53436
21 2 20.1628 0.962934 1.45577 20.1628 0.962934 1.45577
22 1 21.4175 2.95501 2.86398 21.4175 2.95501 2.86398
23 2 23.2087 2.93943 4.77792 23.2087 2.93943 4.77792
24 2 23.5872 2.78065 1.57108 23.5872 2.78065 1.57108
25 1 23.9933 1.06392 3.35884 23.9933 1.06392 3.35884
26 2 40.777 49.987 4.80404 26.2422 0.582443 4.80404
27 2 25.8963 1.33208 1.65358 25.8963 1.33208 1.65358
28 1 27.4195 2.59572 3.49055 27.4195 2.59572 3.49055
29 2 29.5884 2.15022 4.6901 29.5884 2.15022 4.6901
30 2 29.1939 2.9949 1.58713 29.1939 2.9949 1.58713
31 1 44.4602 50.18 2.50516 29.9254 0.775411 2.50516
32 2 46.8081 49.2799 3.12478 32.2732 -0.124663 3.12478
33 2 31.2894 1.64405 0.529278 31.2894 1.64405 0.529278
34 1 33.3719 2.34855 2.12965 33.3719 2.34855 2.12965
35 2 35.6941 1.71892 2.59165 35.6941 1.71892 2.59165
36 2 34.7635 3.31606 -0.130875 34.7635 3.31606 -0.130875
37 1 35.4791 0.962664 0.229559 35.4791 0.962664 0.229559
38 2 52.3218 49.6739 0.744321 37.787 0.269322 0.744321
39 2 36.8052 1.82756 -1.83871 36.8052 1.82756 -1.83871
40 1 38.772 2.51545 -0.148055 38.772 2.51545 -0.148055
41 2 41.2749 2.01983 0.160166 41.2749 2.01983 0.160166
42 2 39.8134 3.43819 -2.33394 39.8134 3.43819 -2.33394
43 1 40.886 1.22045 -2.30665 40.886 1.22045 -2.30665
44 2 43.1747 0.733468 -1.36242 43.1747 0.733468 -1.36242
45 2 42.2702 1.70331 -4.2501 42.2702 1.70331 -4.2501
46 1 44.1049 2.87798 -2.63179 44.1049 2.87798 -2.63179
47 2 46.5139 2.50689 -1.51715 46.5139 2.50689 -1.51715
48 2 45.6944 3.25624 -4.61953 45.6944 3.25624 -4.61953
49 1 46.6289 1.01982 -3.66669 46.6289 1.01982 -3.66669
50 2 48.8145 1.15753 -2.25336 48.8145 1.15753 -2.25336
51 2 48.2938 0.739073 -5.49042 48.2938 0.739073 -5.49042
52 1 49.8962 2.63886 -4.09284 49.8962 2.63886 -4.09284
53 2 51.8067 2.61407 -2.30408 51.8067 2.61407 -2.30408
54 2 51.9349 2.34757 -5.52943 51.9349 2.34757 -5.52943
55 1 1.97377 4.22208 -3.97402 1.97377 4.22208 -3.97402
56 2 4.01292 4.53648 -2.32149 4.01292 4.53648 -2.32149
57 2 4.14178 3.90533 -5.42305 4.14178 3.90533 -5.42305
58 1 5.41213 5.9281 -4.02184 5.41213 5.9281 -4.02184
59 2 7.25936 6.1178 -2.10928 7.25936 6.1178 -2.10928
60 2 7.62391 5.49476 -5.25956 7.62391 5.49476 -5.25956
61 1 8.04612 3.89235 -3.26683 8.04612 3.89235 -3.26683
62 2 9.32629 4.71799 -1.19219 9.32629 4.71799 -1.19219
63 2 10.4658 3.22178 -3.93161 10.4658 3.22178 -3.93161
64 1 11.3005 5.62747 -2.84203 11.3005 5.62747 -2.84203
65 2 12.6645 6.4479 -0.625692 12.6645 6.4479 -0.625692
66 2 13.6666 5.09939 -3.49678 13.6666 5.09939 -3.49678
67 1 13.5152 4.08043 -1.04674 13.5152 4.08043 -1.04674
68 2 14.7779 5.13587 1.01502 14.7779 5.13587 1.01502
69 2 15.9058 3.40696 -1.52763 15.9058 3.40696 -1.52763
70 1 16.7246 5.84287 -0.622099 16.7246 5.84287 -0.622099
71 2 18.1179 6.76328 1.44073 18.1179 6.76328 1.44073
72 2 19.2201 5.12748 -1.13516 19.2201 5.12748 -1.13516
73 1 19.0899 4.47871 1.34498 19.0899 4.47871 1.34498
74 2 20.3864 5.11879 3.4735 20.3864 5.11879 3.4735
75 2 21.4092 4.14702 0.501009 21.4092 4.14702 0.501009
76 1 22.2581 6.18906 1.93972 22.2581 6.18906 1.93972
77 2 23.8423 6.60331 3.99684 23.8423 6.60331 3.99684
78 2 24.6834 5.849 1.00099 24.6834 5.849 1.00099
79 1 24.7805 4.53115 3.21146 24.7805 4.53115 3.21146
80 2 26.6727 4.51574 4.98101 26.6727 4.51574 4.98101
81 2 26.8777 4.51328 1.79758 26.8777 4.51328 1.79758
82 1 28.2116 6.16534 3.40975 28.2116 6.16534 3.40975
83 2 30.3417 6.08959 5.02659 30.3417 6.08959 5.02659
84 2 30.3038 6.07936 1.72922 30.3038 6.07936 1.72922
85 1 30.8332 4.18027 3.37267 30.8332 4.18027 3.37267
86 2 33.0297 3.75916 4.42492 33.0297 3.75916 4.42492
87 2 32.6704 4.6597 1.45357 32.6704 4.6597 1.45357
88 1 34.3224 5.77539 3.1493 34.3224 5.77539 3.1493
89 2 36.6029 4.98174 3.99577 36.6029 4.98174 3.99577
90 2 35.9852 6.43822 1.15341 35.9852 6.43822 1.15341
91 1 36.6951 4.08298 1.67534 36.6951 4.08298 1.67534
92 2 39.1168 3.435 2.14569 39.1168 3.435 2.14569
93 2 37.8207 4.77481 -0.404062 37.8207 4.77481 -0.404062
94 1 39.9371 5.77156 1.12127 39.9371 5.77156 1.12127
95 2 42.3079 5.14843 1.52039 42.3079 5.14843 1.52039
96 2 41.0833 6.729 -0.977527 41.0833 6.729 -0.977527
97 1 41.9794 4.39216 -0.82443 41.9794 4.39216 -0.82443
98 2 44.3776 3.71742 -0.239857 44.3776 3.71742 -0.239857
99 2 43.0475 5.10892 -2.98064 43.0475 5.10892 -2.98064
100 1 45.2554 6.12398 -1.34499 45.2554 6.12398 -1.34499
101 2 47.6133 5.51081 -0.548016 47.6133 5.51081 -0.548016
102 2 46.4633 6.84669 -3.36691 46.4633 6.84669 -3.36691
103 1 47.4839 4.51268 -3.05373 47.4839 4.51268 -3.05373
104 2 49.7103 4.20092 -1.97432 49.7103 4.20092 -1.97432
105 2 49.0228 4.77842 -5.13897 49.0228 4.77842 -5.13897
106 1 50.8504 6.19439 -3.48233 50.8504 6.19439 -3.48233
107 2 53.0019 5.87483 -2.198 53.0019 5.87483 -2.198
108 2 52.6196 6.18207 -5.34443 52.6196 6.18207 -5.34443
109 1 2.79546 7.83472 -3.70373 2.79546 7.83472 -3.70373
110 2 4.93177 7.71379 -2.32589 4.93177 7.71379 -2.32589
111 2 4.79872 7.99707 -5.46553 4.79872 7.99707 -5.46553
112 1 6.22007 9.45814 -3.90411 6.22007 9.45814 -3.90411
113 2 8.32229 9.45373 -2.29896 8.32229 9.45373 -2.29896
114 2 8.09196 9.31486 -5.55721 8.09196 9.31486 -5.55721
115 1 8.87715 7.51176 -3.76713 8.87715 7.51176 -3.76713
116 2 10.4988 7.85881 -1.7622 10.4988 7.85881 -1.7622
117 2 11.1994 7.01241 -4.95248 11.1994 7.01241 -4.95248
118 1 12.1787 9.03527 -3.61057 12.1787 9.03527 -3.61057
119 2 13.9403 9.67311 -1.68553 13.9403 9.67311 -1.68553
120 2 14.4201 8.46881 -4.53098 14.4201 8.46881 -4.53098
121 1 14.6202 7.30773 -2.27501 14.6202 7.30773 -2.27501
122 2 15.8997 8.13608 -0.200319 15.8997 8.13608 -0.200319
123 2 17.0435 6.7518 -2.98338 17.0435 6.7518 -2.98338
124 1 17.8895 8.93304 -1.95218 17.8895 8.93304 -1.95218
125 2 19.3729 9.8825 -0.0587763 19.3729 9.8825 -0.0587763
126 2 20.2113 8.23265 -2.71721 20.2113 8.23265 -2.71721
127 1 20.0895 7.50922 -0.288706 20.0895 7.50922 -0.288706
128 2 21.1197 8.61061 1.88645 21.1197 8.61061 1.88645
129 2 22.6111 6.97668 -0.542585 22.6111 6.97668 -0.542585
130 1 23.445 9.33207 0.480159 23.445 9.33207 0.480159
131 2 24.6492 10.3086 2.56319 24.6492 10.3086 2.56319
132 2 25.8969 8.85751 -0.0782092 25.8969 8.85751 -0.0782092
133 1 25.6982 7.99848 2.39836 25.6982 7.99848 2.39836
134 2 27.2929 8.22729 4.41243 27.2929 8.22729 4.41243
135 2 28.0646 7.60438 1.38483 28.0646 7.60438 1.38483
136 1 29.0861 9.63434 2.76821 29.0861 9.63434 2.76821
137 2 30.871 9.72977 4.61973 30.871 9.72977 4.61973
138 2 31.1888 9.33431 1.48172 31.1888 9.33431 1.48172
139 1 31.6565 7.63524 3.32981 31.6565 7.63524 3.32981
140 2 33.7938 7.4722 4.95788 33.7938 7.4722 4.95788
141 2 33.6277 7.75002 1.74711 33.6277 7.75002 1.74711
142 1 35.0144 9.24025 3.43951 35.0144 9.24025 3.43951
143 2 37.1856 8.80487 4.78919 37.1856 8.80487 4.78919
144 2 36.9818 9.45606 1.75749 36.9818 9.45606 1.75749
145 1 37.7203 7.32448 2.91837 37.7203 7.32448 2.91837
146 2 40.2149 6.65945 3.5811 40.2149 6.65945 3.5811
147 2 39.0863 8.03406 0.850804 39.0863 8.03406 0.850804
148 1 41.1472 8.93949 2.4998 41.1472 8.93949 2.4998
149 2 43.5163 8.09029 3.07271 43.5163 8.09029 3.07271
150 2 42.4546 9.91366 0.549814 42.4546 9.91366 0.549814
151 1 43.1971 7.52314 0.598124 43.1971 7.52314 0.598124
152 2 45.5779 6.62952 1.0808 45.5779 6.62952 1.0808
153 2 44.418 8.55606 -1.33381 44.418 8.55606 -1.33381
154 1 46.4982 9.08273 0.329181 46.4982 9.08273 0.329181
155 2 48.8738 8.44788 0.695957 48.8738 8.44788 0.695957
156 2 47.6083 10.032 -1.82862 47.6083 10.032 -1.82862
157 1 48.4746 7.73829 -1.7558 48.4746 7.73829 -1.7558
158 2 50.9002 7.24764 -1.11885 50.9002 7.24764 -1.11885
159 2 49.8033 8.48866 -3.79619 49.8033 8.48866 -3.79619
160 1 51.7669 9.41421 -2.24853 51.7669 9.41421 -2.24853
161 2 54.0949 8.87139 -1.46228 54.0949 8.87139 -1.46228
162 2 53.2464 10.0138 -4.21097 53.2464 10.0138 -4.21097
163 1 3.70971 11.1153 -2.55575 3.70971 11.1153 -2.55575
164 2 6.1197 10.8221 -1.69952 6.1197 10.8221 -1.69952
165 2 5.11493 11.5679 -4.61293 5.11493 11.5679 -4.61293
166 1 7.1016 12.8573 -3.11004 7.1016 12.8573 -3.11004
167 2 9.38313 12.4162 -1.97048 9.38313 12.4162 -1.97048
168 2 8.9118 13.2497 -5.19156 8.9118 13.2497 -5.19156
169 1 9.61897 10.9853 -4.02136 9.61897 10.9853 -4.02136
170 2 11.6675 11.1321 -2.23994 11.6675 11.1321 -2.23994
171 2 11.7127 10.8207 -5.45889 11.7127 10.8207 -5.45889
172 1 13.1894 12.4899 -3.90365 13.1894 12.4899 -3.90365
173 2 15.1396 12.7745 -2.18176 15.1396 12.7745 -2.18176
174 2 15.1672 12.1002 -5.41759 15.1672 12.1002 -5.41759
175 1 15.7438 10.666 -3.36244 15.7438 10.666 -3.36244
176 2 17.2815 11.2366 -1.36401 17.2815 11.2366 -1.36401
177 2 18.0572 9.91213 -4.21292 18.0572 9.91213 -4.21292
178 1 19.1049 12.1987 -3.28288 19.1049 12.1987 -3.28288
179 2 20.6408 12.9315 -1.37983 20.6408 12.9315 -1.37983
180 2 21.4175 11.4986 -4.05769 21.4175 11.4986 -4.05769
181 1 21.3142 10.5293 -1.72135 21.3142 10.5293 -1.72135
182 2 22.5382 11.658 0.31625 22.5382 11.658 0.31625
183 2 23.7648 9.81029 -2.06111 23.7648 9.81029 -2.06111
184 1 24.6214 12.3211 -1.31367 24.6214 12.3211 -1.31367
185 2 25.6631 13.4795 0.70488 25.6631 13.4795 0.70488
186 2 27.0905 11.6821 -1.43576 27.0905 11.6821 -1.43576
187 1 26.6853 11.136 1.00008 26.6853 11.136 1.00008
188 2 28.1235 11.912 2.97527 28.1235 11.912 2.97527
189 2 29.0746 10.511 0.240222 29.0746 10.511 0.240222
190 1 30.1454 12.6962 1.30434 30.1454 12.6962 1.30434
191 2 31.4773 13.4802 3.42607 31.4773 13.4802 3.42607
192 2 32.4987 12.1599 0.54675 32.4987 12.1599 0.54675
193 1 32.4293 11.1507 2.9426 32.4293 11.1507 2.9426
194 2 34.1771 11.1818 4.80849 34.1771 11.1818 4.80849
195 2 34.6146 10.8837 1.75324 34.6146 10.8837 1.75324
196 1 35.9029 12.613 3.28323 35.9029 12.613 3.28323
197 2 37.8056 12.6486 5.05118 37.8056 12.6486 5.05118
198 2 38.0818 12.5746 1.76408 38.0818 12.5746 1.76408
199 1 38.5727 10.8531 3.52542 38.5727 10.8531 3.52542
200 2 40.7643 10.3675 4.6629 40.7643 10.3675 4.6629
201 2 40.3282 11.2881 1.58132 40.3282 11.2881 1.58132
202 1 41.8516 12.3633 3.32901 41.8516 12.3633 3.32901
203 2 44.1233 11.8513 4.47446 44.1233 11.8513 4.47446
204 2 43.6331 12.8572 1.46059 43.6331 12.8572 1.46059
205 1 44.4158 10.6332 2.24838 44.4158 10.6332 2.24838
206 2 46.7272 9.90319 2.83843 46.7272 9.90319 2.83843
207 2 45.7378 11.4609 0.0906494 45.7378 11.4609 0.0906494
208 1 47.6933 12.2849 1.70087 47.6933 12.2849 1.70087
209 2 50.0758 11.4435 2.30553 50.0758 11.4435 2.30553
210 2 48.9602 13.2283 -0.344322 48.9602 13.2283 -0.344322
211 1 49.6401 10.8139 -0.25454 49.6401 10.8139 -0.25454
212 2 52.0533 9.97242 0.208037 52.0533 9.97242 0.208037
213 2 50.8665 11.7908 -2.34625 50.8665 11.7908 -2.34625
214 1 53.0058 12.4708 -0.750847 53.0058 12.4708 -0.750847
215 2 55.4304 11.8265 -0.138516 55.4304 11.8265 -0.138516
216 2 54.2332 13.5218 -2.69742 54.2332 13.5218 -2.69742
217 1 4.90333 14.1702 -1.09075 4.90333 14.1702 -1.09075
218 2 7.35685 13.7256 -0.700068 7.35685 13.7256 -0.700068
219 2 6.06763 15.2456 -3.19073 6.06763 15.2456 -3.19073
220 1 8.20736 16.0472 -1.84648 8.20736 16.0472 -1.84648
221 2 10.6472 15.5923 -0.949898 10.6472 15.5923 -0.949898
222 2 9.69111 16.8493 -3.81349 9.69111 16.8493 -3.81349
223 1 10.5478 14.3525 -3.38005 10.5478 14.3525 -3.38005
224 2 12.6714 14.1336 -2.0597 12.6714 14.1336 -2.0597
225 2 12.3321 14.4903 -5.21737 12.3321 14.4903 -5.21737
226 1 13.7989 15.9715 -3.55872 13.7989 15.9715 -3.55872
227 2 16.0242 15.8014 -2.18503 16.0242 15.8014 -2.18503
228 2 15.7264 16.0124 -5.3278 15.7264 16.0124 -5.3278
229 1 16.5407 14.0687 -3.99453 16.5407 14.0687 -3.99453
230 2 18.3826 14.3368 -2.19615 18.3826 14.3368 -2.19615
231 2 18.7048 13.6567 -5.3421 18.7048 13.6567 -5.3421
232 1 19.8893 15.6103 -3.95787 19.8893 15.6103 -3.95787
233 2 21.6454 15.9285 -2.15419 21.6454 15.9285 -2.15419
234 2 22.2428 15.2227 -5.19523 22.2428 15.2227 -5.19523
235 1 22.5172 13.8205 -3.05882 22.5172 13.8205 -3.05882
236 2 23.794 14.6925 -1.01031 23.794 14.6925 -1.01031
237 2 24.7916 13.1947 -3.68887 24.7916 13.1947 -3.68887
238 1 25.7812 15.4796 -2.65587 25.7812 15.4796 -2.65587
239 2 27.1642 16.4653 -0.593388 27.1642 16.4653 -0.593388
240 2 28.1255 14.7392 -3.12468 28.1255 14.7392 -3.12468
241 1 27.9396 14.0926 -0.711198 27.9396 14.0926 -0.711198
242 2 29.0911 14.9477 1.36354 29.0911 14.9477 1.36354
243 2 30.4896 13.5663 -1.08628 30.4896 13.5663 -1.08628
244 1 31.2711 15.8553 -0.122313 31.2711 15.8553 -0.122313
245 2 32.5276 16.8172 1.98428 32.5276 16.8172 1.98428
246 2 33.6587 15.0997 -0.54915 33.6587 15.0997 -0.54915
247 1 33.382 14.3263 1.78048 33.382 14.3263 1.78048
248 2 34.7386 14.8651 3.97133 34.7386 14.8651 3.97133
249 2 35.7853 13.8561 1.08914 35.7853 13.8561 1.08914
250 1 36.734 16.1007 2.48737 36.734 16.1007 2.48737
251 2 38.3926 16.4104 4.46295 38.3926 16.4104 4.46295
252 2 38.9736 15.6381 1.42683 38.9736 15.6381 1.42683
253 1 39.2734 14.236 3.45949 39.2734 14.236 3.45949
254 2 41.2336 14.1336 4.97846 41.2336 14.1336 4.97846
255 2 41.2687 14.334 1.78384 41.2687 14.334 1.78384
256 1 42.674 15.8871 3.43826 42.674 15.8871 3.43826
257 2 44.7203 15.632 5.00667 44.7203 15.632 5.00667
258 2 44.5884 15.9865 1.82444 44.5884 15.9865 1.82444
259 1 45.3039 13.9905 3.16348 45.3039 13.9905 3.16348
260 2 47.648 13.4269 3.98263 47.648 13.4269 3.98263
261 2 46.9368 14.7256 1.25399 46.9368 14.7256 1.25399
262 1 48.7004 15.545 2.86385 48.7004 15.545 2.86385
263 2 50.8957 14.8468 3.72222 50.8957 14.8468 3.72222
264 2 50.3819 16.2717 0.881562 50.3819 16.2717 0.881562
265 1 51.0248 13.8751 1.37142 51.0248 13.8751 1.37142
266 2 53.3793 13.0641 1.69588 53.3793 13.0641 1.69588
267 2 52.3335 14.9126 -0.698691 52.3335 14.9126 -0.698691
268 1 54.2992 15.5084 0.965298 54.2992 15.5084 0.965298
269 2 5.48632 14.8662 1.34461 56.8971 14.8662 1.34461
270 2 55.4423 16.4949 -1.25443 55.4423 16.4949 -1.25443
271 1 6.21388 17.352 0.291168 6.21388 17.352 0.291168
272 2 8.58874 16.5839 0.72986 8.58874 16.5839 0.72986
273 2 7.41577 18.4219 -1.6821 7.41577 18.4219 -1.6821
274 1 9.50147 19.0115 -0.0788473 9.50147 19.0115 -0.0788473
275 2 11.8315 18.4424 0.397161 11.8315 18.4424 0.397161
276 2 10.6701 20.1889 -2.01076 10.6701 20.1889 -2.01076
277 1 11.532 17.8694 -2.15271 11.532 17.8694 -2.15271
278 2 13.7454 17.1172 -1.32564 13.7454 17.1172 -1.32564
279 2 13.0254 18.26 -4.22924 13.0254 18.26 -4.22924
280 1 14.7395 19.2956 -2.56148 14.7395 19.2956 -2.56148
281 2 16.9937 18.9329 -1.57571 16.9937 18.9329 -1.57571
282 2 16.2181 19.7546 -4.61836 16.2181 19.7546 -4.61836
283 1 17.2582 17.5669 -3.76864 17.2582 17.5669 -3.76864
284 2 19.3954 17.4852 -2.281 19.3954 17.4852 -2.281
285 2 19.1035 17.4828 -5.46408 19.1035 17.4828 -5.46408
286 1 20.6285 19.1334 -3.96266 20.6285 19.1334 -3.96266
287 2 22.6743 19.2575 -2.38176 22.6743 19.2575 -2.38176
288 2 22.6951 19.0088 -5.58835 22.6951 19.0088 -5.58835
289 1 23.3282 17.2279 -3.8461 23.3282 17.2279 -3.8461
290 2 24.9927 17.7899 -1.93727 24.9927 17.7899 -1.93727
291 2 25.706 16.9355 -4.76011 25.706 16.9355 -4.76011
292 1 26.7283 18.9601 -3.49762 26.7283 18.9601 -3.49762
293 2 28.2109 19.3786 -1.43328 28.2109 19.3786 -1.43328
294 2 29.117 18.4902 -4.42543 29.117 18.4902 -4.42543
295 1 29.1725 17.2159 -2.21216 29.1725 17.2159 -2.21216
296 2 30.2752 18.1899 -0.0214071 30.2752 18.1899 -0.0214071
297 2 31.5606 16.5012 -2.58194 31.5606 16.5012 -2.58194
298 1 32.4207 18.8183 -1.4532 32.4207 18.8183 -1.4532
299 2 33.693 19.7915 0.692986 33.693 19.7915 0.692986
300 2 34.919 18.2192 -1.86701 34.919 18.2192 -1.86701
301 1 34.5288 17.4584 0.512835 34.5288 17.4584 0.512835
302 2 35.6079 18.4968 2.58119 35.6079 18.4968 2.58119
303 2 36.9452 16.8973 0.0207754 36.9452 16.8973 0.0207754
304 1 37.7302 19.274 1.1843 37.7302 19.274 1.1843
305 2 39.1643 20.024 3.11556 39.1643 20.024 3.11556
306 2 40.1524 18.7288 0.409242 40.1524 18.7288 0.409242
307 1 40.0769 17.7638 2.81883 40.0769 17.7638 2.81883
308 2 41.7359 17.9793 4.70022 41.7359 17.9793 4.70022
309 2 42.325 17.5911 1.57045 42.325 17.5911 1.57045
310 1 43.4573 19.4241 3.16426 43.4573 19.4241 3.16426
311 2 45.3816 19.2517 4.99766 45.3816 19.2517 4.99766
312 2 45.6868 19.2572 1.71299 45.6868 19.2572 1.71299
313 1 46.1005 17.4154 3.45066 46.1005 17.4154 3.45066
314 2 48.2889 17.0698 4.82888 48.2889 17.0698 4.82888
315 2 47.9762 17.7193 1.78278 47.9762 17.7193 1.78278
316 1 49.5393 19.0186 3.62564 49.5393 19.0186 3.62564
317 2 51.7593 18.5826 4.72693 51.7593 18.5826 4.72693
318 2 51.2731 19.4129 1.69818 51.2731 19.4129 1.69818
319 1 51.99 17.1919 2.63957 51.99 17.1919 2.63957
320 2 54.4505 16.3764 3.30424 54.4505 16.3764 3.30424
321 2 53.4729 17.8663 0.673957 53.4729 17.8663 0.673957
322 1 55.4006 18.7311 2.29602 55.4006 18.7311 2.29602
323 2 6.38831 18.1035 2.74111 57.7991 18.1035 2.74111
324 2 56.6525 19.6332 0.188757 56.6525 19.6332 0.188757
325 1 7.34044 20.4252 1.8298 7.34044 20.4252 1.8298
326 2 9.75854 19.9247 2.38986 9.75854 19.9247 2.38986
327 2 8.64775 21.3668 -0.268914 8.64775 21.3668 -0.268914
328 1 10.5114 22.2422 1.38665 10.5114 22.2422 1.38665
329 2 12.888 21.5046 1.93941 12.888 21.5046 1.93941
330 2 11.7484 23.1794 -0.683762 11.7484 23.1794 -0.683762
331 1 12.6621 20.8012 -0.511811 12.6621 20.8012 -0.511811
332 2 15.0634 20.2048 -0.140469 15.0634 20.2048 -0.140469
333 2 13.7956 21.6084 -2.77468 13.7956 21.6084 -2.77468
334 1 15.7705 22.4423 -1.27904 15.7705 22.4423 -1.27904
335 2 18.169 21.7345 -0.645395 18.169 21.7345 -0.645395
336 2 17.1329 23.2718 -3.26684 17.1329 23.2718 -3.26684
337 1 18.1379 20.9506 -3.02769 18.1379 20.9506 -3.02769
338 2 20.4002 20.5149 -1.93388 20.4002 20.5149 -1.93388
339 2 19.7557 21.2863 -5.01509 19.7557 21.2863 -5.01509
340 1 21.5284 22.6776 -3.353 21.5284 22.6776 -3.353
341 2 23.6628 22.3649 -2.02956 23.6628 22.3649 -2.02956
342 2 23.3883 23.0021 -5.21921 23.3883 23.0021 -5.21921
343 1 24.2108 20.8575 -4.05308 24.2108 20.8575 -4.05308
344 2 26.1853 21.1605 -2.26966 26.1853 21.1605 -2.26966
345 2 26.3335 20.5421 -5.47806 26.3335 20.5421 -5.47806
346 1 27.6871 22.4858 -3.91549 27.6871 22.4858 -3.91549
347 2 29.3259 22.6208 -1.90275 29.3259 22.6208 -1.90275
348 2 29.8412 22.0427 -5.10578 29.8412 22.0427 -5.10578
349 1 29.9814 20.549 -3.03645 29.9814 20.549 -3.03645
350 2 31.5603 21.1358 -0.911931 31.5603 21.1358 -0.911931
351 2 32.364 19.8921 -3.71764 32.364 19.8921 -3.71764
352 1 33.3867 22.2179 -2.61842 33.3867 22.2179 -2.61842
353 2 34.8564 23.1713 -0.575845 34.8564 23.1713 -0.575845
354 2 35.7403 21.4495 -3.30938 35.7403 21.4495 -3.30938
355 1 35.663 20.6379 -0.944695 35.663 20.6379 -0.944695
356 2 36.8626 21.6605 1.0987 36.8626 21.6605 1.0987
357 2 37.9347 19.7153 -1.31885 37.9347 19.7153 -1.31885
358 1 38.9861 22.1349 -0.523591 38.9861 22.1349 -0.523591
359 2 40.1294 23.2726 1.52889 40.1294 23.2726 1.52889
360 2 41.527 21.8414 -0.999464 41.527 21.8414 -0.999464
361 1 41.1743 21.0047 1.55153 41.1743 21.0047 1.55153
362 2 42.4504 21.6834 3.59504 42.4504 21.6834 3.59504
363 2 43.4386 20.4893 0.763625 43.4386 20.4893 0.763625
364 1 44.3896 22.6699 1.92534 44.3896 22.6699 1.92534
365 2 45.9584 23.1516 3.93989 45.9584 23.1516 3.93989
366 2 46.7192 22.2151 1.00422 46.7192 22.2151 1.00422
367 1 46.836 21.0198 3.29374 46.836 21.0198 3.29374
368 2 48.6877 21.0697 5.05614 48.6877 21.0697 5.05614
369 2 48.9363 20.768 1.86745 48.9363 20.768 1.86745
370 1 50.1931 22.4778 3.46668 50.1931 22.4778 3.46668
371 2 52.2002 22.5209 5.11526 52.2002 22.5209 5.11526
372 2 52.2373 22.3929 1.86752 52.2373 22.3929 1.86752
373 1 52.9093 20.4899 3.44603 52.9093 20.4899 3.44603
374 2 55.2996 20.0767 4.39561 55.2996 20.0767 4.39561
375 2 54.6065 20.9789 1.44265 54.6065 20.9789 1.44265
376 1 56.2351 22.1407 3.10216 56.2351 22.1407 3.10216
377 2 7.22122 21.5831 4.07228 58.632 21.5831 4.07228
378 2 57.8514 22.6641 1.16293 57.8514 22.6641 1.16293
379 1 8.2231 23.7506 2.8219 8.2231 23.7506 2.8219
380 2 10.5189 23.1328 3.71141 10.5189 23.1328 3.71141
381 2 9.72215 24.5204 0.981101 9.72215 24.5204 0.981101
382 1 11.6197 25.4372 2.79698 11.6197 25.4372 2.79698
383 2 14.0194 24.721 3.35297 14.0194 24.721 3.35297
384 2 12.8343 26.123 0.644943 12.8343 26.123 0.644943
385 1 13.8149 23.8224 0.987634 13.8149 23.8224 0.987634
386 2 16.1838 22.993 1.24746 16.1838 22.993 1.24746
387 2 14.9399 24.8088 -1.06869 14.9399 24.8088 -1.06869
388 1 17.0521 25.5018 0.360364 17.0521 25.5018 0.360364
389 2 19.4367 24.8599 0.957109 19.4367 24.8599 0.957109
390 2 18.2838 26.5378 -1.6 18.2838 26.5378 -1.6
391 1 19.1814 24.1402 -1.62205 19.1814 24.1402 -1.62205
392 2 21.5707 23.5509 -0.9509 21.5707 23.5509 -0.9509
393 2 20.5965 25.0754 -3.54481 20.5965 25.0754 -3.54481
394 1 22.5961 25.9247 -1.88286 22.5961 25.9247 -1.88286
395 2 24.9051 25.564 -1.047 24.9051 25.564 -1.047
396 2 23.9446 26.587 -3.98914 23.9446 26.587 -3.98914
397 1 24.8329 24.3282 -3.37142 24.8329 24.3282 -3.37142
398 2 27.1241 24.2333 -2.09442 27.1241 24.2333 -2.09442
399 2 26.5641 24.3314 -5.16559 26.5641 24.3314 -5.16559
400 1 28.2286 26.0725 -3.68717 28.2286 26.0725 -3.68717
401 2 30.3175 25.9518 -2.11305 30.3175 25.9518 -2.11305
402 2 30.1744 25.8078 -5.27735 30.1744 25.8078 -5.27735
403 1 30.8884 24.0498 -3.62607 30.8884 24.0498 -3.62607
404 2 32.5993 24.3811 -1.75824 32.5993 24.3811 -1.75824
405 2 33.106 23.3706 -4.88854 33.106 23.3706 -4.88854
406 1 34.1858 25.4822 -3.48823 34.1858 25.4822 -3.48823
407 2 35.9456 26.0566 -1.78046 35.9456 26.0566 -1.78046
408 2 36.4686 24.8782 -4.61808 36.4686 24.8782 -4.61808
409 1 36.6889 23.7933 -2.31498 36.6889 23.7933 -2.31498
410 2 38.0403 24.4771 -0.160509 38.0403 24.4771 -0.160509
411 2 38.9042 23.1254 -2.97104 38.9042 23.1254 -2.97104
412 1 40.1185 25.2941 -1.88545 40.1185 25.2941 -1.88545
413 2 41.2697 26.4445 0.0469227 41.2697 26.4445 0.0469227
414 2 42.5965 24.6532 -2.3514 42.5965 24.6532 -2.3514
415 1 42.2063 24.1414 0.0757899 42.2063 24.1414 0.0757899
416 2 43.4017 25.0472 2.04345 43.4017 25.0472 2.04345
417 2 44.6605 23.464 -0.497514 44.6605 23.464 -0.497514
418 1 45.5045 25.6941 0.49791 45.5045 25.6941 0.49791
419 2 46.834 26.4976 2.71545 46.834 26.4976 2.71545
420 2 47.9099 25.1548 -0.0215858 47.9099 25.1548 -0.0215858
421 1 47.7716 24.2831 2.425 47.7716 24.2831 2.425
422 2 49.2571 24.6933 4.41636 49.2571 24.6933 4.41636
423 2 50.0041 23.8088 1.29513 50.0041 23.8088 1.29513
424 1 51.158 25.8614 2.7632 51.158 25.8614 2.7632
425 2 52.922 26.1038 4.80203 52.922 26.1038 4.80203
426 2 53.4574 25.8437 1.53061 53.4574 25.8437 1.53061
427 1 53.6504 24.0637 3.44218 53.6504 24.0637 3.44218
428 2 55.766 23.717 4.99354 55.766 23.717 4.99354
429 2 55.7634 24.3781 1.93798 55.7634 24.3781 1.93798
430 1 57.1359 25.5933 3.67293 57.1359 25.5933 3.67293
431 2 59.198 25.0345 4.93476 59.198 25.0345 4.93476
432 2 58.8868 25.9365 1.88595 58.8868 25.9365 1.88595
433 1 8.97542 27.1093 3.75629 8.97542 27.1093 3.75629
434 2 11.2822 26.804 4.91242 11.2822 26.804 4.91242
435 2 10.7499 27.6154 1.89464 10.7499 27.6154 1.89464
436 1 12.4546 28.8004 3.53785 12.4546 28.8004 3.53785
437 2 14.8275 28.2454 4.42772 14.8275 28.2454 4.42772
438 2 14.0333 29.2371 1.55989 14.0333 29.2371 1.55989
439 1 14.8636 27.043 2.27322 14.8636 27.043 2.27322
440 2 17.3541 26.4318 2.78951 17.3541 26.4318 2.78951
441 2 16.2497 27.9072 0.107254 16.2497 27.9072 0.107254
442 1 18.159 28.6893 1.74621 18.159 28.6893 1.74621
443 2 20.5971 28.0331 2.38343 20.5971 28.0331 2.38343
444 2 19.5801 29.5997 -0.228349 19.5801 29.5997 -0.228349
445 1 20.3322 27.2187 -0.0174747 20.3322 27.2187 -0.0174747
446 2 22.7061 26.8405 0.431364 22.7061 26.8405 0.431364
447 2 21.4945 28.1595 -2.16671 21.4945 28.1595 -2.16671
448 1 23.4781 29.0903 -0.694917 23.4781 29.0903 -0.694917
449 2 25.7162 28.3095 -0.041378 25.7162 28.3095 -0.041378
450 2 24.8947 30.122 -2.6043 24.8947 30.122 -2.6043
451 1 25.7583 27.683 -2.51366 25.7583 27.683 -2.51366
452 2 28.019 27.4029 -1.47766 28.019 27.4029 -1.47766
453 2 27.2112 28.1698 -4.51572 27.2112 28.1698 -4.51572
454 1 29.0794 29.3356 -2.93875 29.0794 29.3356 -2.93875
455 2 31.3028 29.0032 -1.73725 31.3028 29.0032 -1.73725
456 2 30.8821 29.6346 -4.91395 30.8821 29.6346 -4.91395
457 1 31.6028 27.5143 -3.72536 31.6028 27.5143 -3.72536
458 2 33.6259 27.5455 -1.96275 33.6259 27.5455 -1.96275
459 2 33.6384 27.2234 -5.27631 33.6384 27.2234 -5.27631
460 1 35.1431 29.0073 -3.71478 35.1431 29.0073 -3.71478
461 2 37.0733 28.9668 -2.05433 37.0733 28.9668 -2.05433
462 2 37.2263 28.8823 -5.27058 37.2263 28.8823 -5.27058
463 1 37.6424 27.0074 -3.50597 37.6424 27.0074 -3.50597
464 2 39.2403 27.5511 -1.42046 39.2403 27.5511 -1.42046
465 2 40.0238 26.3702 -4.28247 40.0238 26.3702 -4.28247
466 1 41.0047 28.6249 -3.00928 41.0047 28.6249 -3.00928
467 2 42.5416 29.3766 -0.949159 42.5416 29.3766 -0.949159
468 2 43.4263 28.1573 -3.78844 43.4263 28.1573 -3.78844
469 1 43.439 27.1235 -1.52298 43.439 27.1235 -1.52298
470 2 44.4195 27.9647 0.584697 44.4195 27.9647 0.584697
471 2 45.9274 26.647 -1.9359 45.9274 26.647 -1.9359
472 1 46.5653 28.9332 -0.705063 46.5653 28.9332 -0.705063
473 2 47.7008 29.7367 1.49249 47.7008 29.7367 1.49249
474 2 49.1534 28.4849 -1.13246 49.1534 28.4849 -1.13246
475 1 48.8207 27.4827 1.20404 48.8207 27.4827 1.20404
476 2 50.072 28.261 3.28758 50.072 28.261 3.28758
477 2 51.1746 26.9883 0.365244 51.1746 26.9883 0.365244
478 1 52.0484 29.1252 1.6513 52.0484 29.1252 1.6513
479 2 53.3784 29.7057 3.81854 53.3784 29.7057 3.81854
480 2 54.4728 28.7056 0.940585 54.4728 28.7056 0.940585
481 1 54.4499 27.5105 3.29044 54.4499 27.5105 3.29044
482 2 56.2445 27.6774 5.11538 56.2445 27.6774 5.11538
483 2 56.5695 27.416 1.93862 56.5695 27.416 1.93862
484 1 57.7182 29.0396 3.56831 57.7182 29.0396 3.56831
485 2 59.6874 28.9521 5.33142 59.6874 28.9521 5.33142
486 2 59.845 29.0315 2.20853 59.845 29.0315 2.20853
487 1 9.7811 30.6259 3.81004 9.7811 30.6259 3.81004
488 2 11.8648 30.6569 5.2912 11.8648 30.6569 5.2912
489 2 11.7187 30.7648 2.13806 11.7187 30.7648 2.13806
490 1 13.2021 32.2326 3.70012 13.2021 32.2326 3.70012
491 2 15.3749 31.8441 5.07362 15.3749 31.8441 5.07362
492 2 15.098 32.3699 1.88929 15.098 32.3699 1.88929
493 1 15.877 30.4065 3.14734 15.877 30.4065 3.14734
494 2 18.1062 29.7377 4.19311 18.1062 29.7377 4.19311
495 2 17.5161 31.0869 1.27216 17.5161 31.0869 1.27216
496 1 19.1399 31.9637 3.16661 19.1399 31.9637 3.16661
497 2 21.6047 31.351 3.8566 21.6047 31.351 3.8566
498 2 20.6203 32.6947 0.983168 20.6203 32.6947 0.983168
499 1 21.4686 30.3187 1.38779 21.4686 30.3187 1.38779
500 2 23.8444 29.5847 1.74093 23.8444 29.5847 1.74093
501 2 22.5688 31.4436 -0.620341 22.5688 31.4436 -0.620341
502 1 24.7201 32.1217 0.896617 24.7201 32.1217 0.896617
503 2 27.1855 31.5134 1.29109 27.1855 31.5134 1.29109
504 2 26.0037 33.1071 -1.14764 26.0037 33.1071 -1.14764
505 1 26.8133 30.6693 -1.04981 26.8133 30.6693 -1.04981
506 2 29.2255 30.4068 -0.510939 29.2255 30.4068 -0.510939
507 2 27.8974 31.424 -3.2098 27.8974 31.424 -3.2098
508 1 30.0542 32.5714 -1.73498 30.0542 32.5714 -1.73498
509 2 32.4481 32.3457 -0.961146 32.4481 32.3457 -0.961146
510 2 31.4368 33.1427 -3.88629 31.4368 33.1427 -3.88629
511 1 32.5952 31.0502 -3.11394 32.5952 31.0502 -3.11394
512 2 34.8018 30.6963 -1.79951 34.8018 30.6963 -1.79951
513 2 34.3435 31.1731 -5.00056 34.3435 31.1731 -5.00056
514 1 35.9469 32.5386 -3.31805 35.9469 32.5386 -3.31805
515 2 38.0694 32.3752 -1.84742 38.0694 32.3752 -1.84742
516 2 37.6845 32.6178 -5.16761 37.6845 32.6178 -5.16761
517 1 38.5944 30.6381 -3.74782 38.5944 30.6381 -3.74782
518 2 40.3328 30.7714 -1.87939 40.3328 30.7714 -1.87939
519 2 40.6512 30.2353 -5.08715 40.6512 30.2353 -5.08715
520 1 41.9662 32.2771 -3.57287 41.9662 32.2771 -3.57287
521 2 43.6339 32.7029 -1.65976 43.6339 32.7029 -1.65976
522 2 44.2365 31.7196 -4.67835 44.2365 31.7196 -4.67835
523 1 44.4472 30.3909 -2.48062 44.4472 30.3909 -2.48062
524 2 45.8403 31.3897 -0.476744 45.8403 31.3897 -0.476744
525 2 46.8304 29.7471 -3.05813 46.8304 29.7471 -3.05813
526 1 47.7828 32.1091 -2.07206 47.7828 32.1091 -2.07206
527 2 48.9465 33.0611 0.0793104 48.9465 33.0611 0.0793104
528 2 50.2056 31.5417 -2.3877 50.2056 31.5417 -2.3877
529 1 49.8358 30.7297 0.125957 49.8358 30.7297 0.125957
530 2 51.3043 31.4683 2.12923 51.3043 31.4683 2.12923
531 2 52.2371 30.1432 -0.709644 52.2371 30.1432 -0.709644
532 1 53.2017 32.3398 0.419064 53.2017 32.3398 0.419064
533 2 54.2838 33.0806 2.51443 54.2838 33.0806 2.51443
534 2 55.613 31.8482 -0.172476 55.613 31.8482 -0.172476
535 1 55.3434 30.8423 2.29571 55.3434 30.8423 2.29571
536 2 56.731 31.1212 4.42572 56.731 31.1212 4.42572
537 2 57.5747 30.4758 1.33486 57.5747 30.4758 1.33486
538 1 58.4751 32.4845 2.86197 58.4751 32.4845 2.86197
539 2 60.4044 32.7786 4.7738 60.4044 32.7786 4.7738
540 2 60.7239 32.002 1.64602 60.7239 32.002 1.64602
541 1 10.4976 33.988 2.98917 10.4976 33.988 2.98917
542 2 12.3071 34.2907 4.84711 12.3071 34.2907 4.84711