ITEM: TIMESTEP
2009000
ITEM: NUMBER OF ATOMS
810
ITEM: BOX BOUNDS xy xz yz pp pp pp
8.0341777045796159e-01 6.2139566344388726e+01 9.9253791148462227e+00
8.0582000660415243e-01 5.0210394993394715e+01 0.0000000000000000e+00
-1.0000000000000000e+01 1.0000000000000000e+01 0.0000000000000000e+00
ITEM: ATOMS id type x y z xu yu zu
1 1 1.08222 1.07988 2.3327 1.08222 1.07988 2.3327
2 2 2.772 1.26143 4.22138 2.772 1.26143 4.22138
3 2 3.22599 0.880144 1.05816 3.22599 0.880144 1.05816
4 1 4.32726 2.76403 2.54666 4.32726 2.76403 2.54666
5 2 6.38211 2.90282 4.22451 6.38211 2.90282 4.22451
6 2 6.27715 2.64467 1.03056 6.27715 2.64467 1.03056
7 1 6.98491 1.01274 2.82966 6.98491 1.01274 2.82966
8 2 9.15651 0.693579 4.17259 9.15651 0.693579 4.17259
9 2 8.66849 1.19447 0.948183 8.66849 1.19447 0.948183
10 1 10.2167 2.55823 2.56024 10.2167 2.55823 2.56024
11 2 12.4314 2.11662 3.83106 12.4314 2.11662 3.83106
12 2 12.1386 2.93557 0.868501 12.1386 2.93557 0.868501
13 1 22.7639 50.1467 1.78125 12.8385 0.742098 1.78125
14 2 25.1409 49.7852 2.78248 15.2156 0.380581 2.78248
15 2 14.3486 1.32352 -0.226117 14.3486 1.32352 -0.226117
16 1 15.9921 2.39964 1.43768 15.9921 2.39964 1.43768
17 2 18.3942 1.73662 2.19675 18.3942 1.73662 2.19675
18 2 17.4008 3.19253 -0.559556 17.4008 3.19253 -0.559556
19 1 18.3817 0.836141 -0.153816 18.3817 0.836141 -0.153816
20 2 30.6446 49.6931 0.742918 20.7192 0.288555 0.742918
21 2 19.735 1.68271 -2.07735 19.735 1.68271 -2.07735
22 1 21.3939 2.5407 -0.365944 21.3939 2.5407 -0.365944
23 2 23.7854 2.06645 0.42284 23.7854 2.06645 0.42284
24 2 22.7446 3.42414 -2.42056 22.7446 3.42414 -2.42056
25 1 23.8799 1.17943 -1.99115 23.8799 1.17943 -1.99115
26 2 36.0399 50.1723 -0.846192 26.1145 0.76772 -0.846192
27 2 25.3495 1.48265 -3.98094 25.3495 1.48265 -3.98094
28 1 26.9968 2.79809 -2.26852 26.9968 2.79809 -2.26852
29 2 29.2929 2.55901 -1.07168 29.2929 2.55901 -1.07168
30 2 28.6563 3.0394 -4.14316 28.6563 3.0394 -4.14316
31 1 29.6788 1.05195 -3.05507 29.6788 1.05195 -3.05507
32 2 31.7292 1.09302 -1.54664 31.7292 1.09302 -1.54664
33 2 31.6207 0.965789 -4.79085 31.6207 0.965789 -4.79085
34 1 32.8905 2.66896 -3.24132 32.8905 2.66896 -3.24132
35 2 34.8196 2.85998 -1.58972 34.8196 2.85998 -1.58972
36 2 34.8795 2.53823 -4.7473 34.8795 2.53823 -4.7473
37 1 35.5736 0.864822 -2.95439 35.5736 0.864822 -2.95439
38 2 37.2646 1.32863 -1.03131 37.2646 1.32863 -1.03131
39 2 47.7518 50.0662 -4.12308 37.8264 0.661631 -4.12308
40 1 38.8369 2.55711 -2.76992 38.8369 2.55711 -2.76992
41 2 40.3868 3.06037 -0.712551 40.3868 3.06037 -0.712551
42 2 41.1308 2.06197 -3.59134 41.1308 2.06197 -3.59134
43 1 51.2803 50.248 -1.3706 41.3549 0.843437 -1.3706
44 2 42.6797 1.65025 0.75032 42.6797 1.65025 0.75032
45 2 53.7866 49.7556 -2.03944 43.8612 0.351056 -2.03944
46 1 44.4394 2.55274 -0.885218 44.4394 2.55274 -0.885218
47 2 45.7508 3.21901 1.16517 45.7508 3.21901 1.16517
48 2 46.7779 1.8316 -1.72664 46.7779 1.8316 -1.72664
49 1 46.8553 1.0883 0.678533 46.8553 1.0883 0.678533
50 2 48.1761 1.8352 2.69895 48.1761 1.8352 2.69895
51 2 59.0213 49.8506 -0.0370808 49.096 0.446022 -0.0370808
52 1 50.0379 2.70343 1.04281 50.0379 2.70343 1.04281
53 2 51.3973 3.29063 3.17974 51.3973 3.29063 3.17974
54 2 52.2587 2.27545 0.124582 52.2587 2.27545 0.124582
55 1 1.78564 4.44303 1.40944 1.78564 4.44303 1.40944
56 2 3.21694 4.97519 3.4625 3.21694 4.97519 3.4625
57 2 4.04897 4.14723 0.293392 4.04897 4.14723 0.293392
58 1 4.76408 6.10199 1.80879 4.76408 6.10199 1.80879
59 2 6.43148 6.30459 3.73114 6.43148 6.30459 3.73114
60 2 7.13677 5.99751 0.574479 7.13677 5.99751 0.574479
61 1 7.45537 4.42524 2.44389 7.45537 4.42524 2.44389
62 2 9.22746 4.24857 4.20722 9.22746 4.24857 4.20722
63 2 9.54792 4.48402 0.99435 9.54792 4.48402 0.99435
64 1 10.7285 5.9413 2.88997 10.7285 5.9413 2.88997
65 2 12.7895 5.81845 4.47296 12.7895 5.81845 4.47296
66 2 12.6211 6.06343 1.14711 12.6211 6.06343 1.14711
67 1 13.4504 4.08513 2.62488 13.4504 4.08513 2.62488
68 2 15.8588 3.63196 3.63681 15.8588 3.63196 3.63681
69 2 14.9264 4.60809 0.657867 14.9264 4.60809 0.657867
70 1 16.5277 5.78688 2.32836 16.5277 5.78688 2.32836
71 2 18.6765 5.19511 3.52849 18.6765 5.19511 3.52849
72 2 18.206 6.31769 0.453048 18.206 6.31769 0.453048
73 1 19.1257 4.10394 1.26447 19.1257 4.10394 1.26447
74 2 21.5592 3.53198 1.95531 21.5592 3.53198 1.95531
75 2 20.513 4.89024 -0.77711 20.513 4.89024 -0.77711
76 1 22.3157 5.77438 1.00184 22.3157 5.77438 1.00184
77 2 24.6886 5.18152 1.65492 24.6886 5.18152 1.65492
78 2 23.6155 6.54794 -1.16336 23.6155 6.54794 -1.16336
79 1 24.6387 4.34978 -0.812741 24.6387 4.34978 -0.812741
80 2 26.9324 3.75477 0.0945779 26.9324 3.75477 0.0945779
81 2 25.925 5.05085 -2.86583 25.925 5.05085 -2.86583
82 1 27.773 6.00491 -1.10069 27.773 6.00491 -1.10069
83 2 30.0777 5.54995 -0.278982 30.0777 5.54995 -0.278982
84 2 29.1687 6.69514 -3.11023 29.1687 6.69514 -3.11023
85 1 30.1891 4.45796 -2.56201 30.1891 4.45796 -2.56201
86 2 32.4328 4.30205 -1.27025 32.4328 4.30205 -1.27025
87 2 31.8875 4.7058 -4.46419 31.8875 4.7058 -4.46419
88 1 33.5138 6.14305 -2.79115 33.5138 6.14305 -2.79115
89 2 35.5742 5.87304 -1.37049 35.5742 5.87304 -1.37049
90 2 35.3903 6.26357 -4.58466 35.3903 6.26357 -4.58466
91 1 36.1444 4.2968 -3.28132 36.1444 4.2968 -3.28132
92 2 37.9979 4.52584 -1.52574 37.9979 4.52584 -1.52574
93 2 38.2827 4.10189 -4.64593 38.2827 4.10189 -4.64593
94 1 39.3329 5.88287 -3.16791 39.3329 5.88287 -3.16791
95 2 41.1518 6.11383 -1.2842 41.1518 6.11383 -1.2842
96 2 41.6409 5.63251 -4.51506 41.6409 5.63251 -4.51506
97 1 42.1257 4.14367 -2.4231 42.1257 4.14367 -2.4231
98 2 43.5892 4.93076 -0.434158 43.5892 4.93076 -0.434158
99 2 44.463 3.47084 -3.16667 44.463 3.47084 -3.16667
100 1 45.3376 5.68809 -2.26495 45.3376 5.68809 -2.26495
101 2 46.6082 6.33771 -0.154395 46.6082 6.33771 -0.154395
102 2 47.7428 5.17991 -3.03274 47.7428 5.17991 -3.03274
103 1 47.7156 4.10992 -0.729722 47.7156 4.10992 -0.729722
104 2 48.8636 4.87595 1.35963 48.8636 4.87595 1.35963
105 2 50.1461 3.57969 -1.29864 50.1461 3.57969 -1.29864
106 1 50.7571 5.86807 -0.128214 50.7571 5.86807 -0.128214
107 2 52.0205 6.59299 1.92336 52.0205 6.59299 1.92336
108 2 53.1819 5.53061 -0.928942 53.1819 5.53061 -0.928942
109 1 2.38717 7.63076 0.392937 2.38717 7.63076 0.392937
110 2 3.77515 8.23111 2.38077 3.77515 8.23111 2.38077
111 2 4.73078 7.06625 -0.55124 4.73078 7.06625 -0.55124
112 1 5.59297 9.33426 0.735639 5.59297 9.33426 0.735639
113 2 6.87148 10.0189 2.91438 6.87148 10.0189 2.91438
114 2 7.92141 9.02055 -0.0627103 7.92141 9.02055 -0.0627103
115 1 8.0174 7.80577 2.15782 8.0174 7.80577 2.15782
116 2 9.82304 8.01785 4.07788 9.82304 8.01785 4.07788
117 2 10.2166 7.55402 0.888674 10.2166 7.55402 0.888674
118 1 11.2624 9.4266 2.4707 11.2624 9.4266 2.4707
119 2 13.0303 9.51221 4.31181 13.0303 9.51221 4.31181
120 2 13.3669 9.16274 0.958076 13.3669 9.16274 0.958076
121 1 13.8094 7.53292 2.8306 13.8094 7.53292 2.8306
122 2 15.9649 7.18397 4.29677 15.9649 7.18397 4.29677
123 2 15.7462 7.92885 1.15676 15.7462 7.92885 1.15676
124 1 17.1707 9.22365 2.97793 17.1707 9.22365 2.97793
125 2 19.3058 8.86842 4.2238 19.3058 8.86842 4.2238
126 2 18.9526 9.41923 1.0955 18.9526 9.41923 1.0955
127 1 19.7429 7.31186 2.241 19.7429 7.31186 2.241
128 2 22.0524 6.85363 3.26851 22.0524 6.85363 3.26851
129 2 21.3661 7.91615 0.235004 21.3661 7.91615 0.235004
130 1 22.9706 9.0371 1.90993 22.9706 9.0371 1.90993
131 2 25.3613 8.64892 2.8142 25.3613 8.64892 2.8142
132 2 24.4372 9.6642 -0.152668 24.4372 9.6642 -0.152668
133 1 25.4735 7.49683 0.541175 25.4735 7.49683 0.541175
134 2 27.7732 7.02326 1.33014 27.7732 7.02326 1.33014
135 2 26.8227 8.28902 -1.6414 26.8227 8.28902 -1.6414
136 1 28.561 9.18189 0.0255786 28.561 9.18189 0.0255786
137 2 30.9008 8.73802 0.768617 30.9008 8.73802 0.768617
138 2 30.0481 10.0113 -1.99279 30.0481 10.0113 -1.99279
139 1 30.936 7.72545 -1.53775 30.936 7.72545 -1.53775
140 2 33.306 7.45354 -0.636267 33.306 7.45354 -0.636267
141 2 32.4016 8.17329 -3.64538 32.4016 8.17329 -3.64538
142 1 34.0424 9.48147 -1.99938 34.0424 9.48147 -1.99938
143 2 36.332 9.27958 -0.807477 36.332 9.27958 -0.807477
144 2 35.6648 9.81904 -3.93942 35.6648 9.81904 -3.93942
145 1 36.6911 7.7317 -2.79731 36.6911 7.7317 -2.79731
146 2 38.8191 7.6812 -1.41255 38.8191 7.6812 -1.41255
147 2 38.4442 7.66787 -4.65633 38.4442 7.66787 -4.65633
148 1 39.955 9.3992 -3.13412 39.955 9.3992 -3.13412
149 2 42.0642 9.44794 -1.54312 42.0642 9.44794 -1.54312
150 2 41.9727 9.20905 -4.67313 41.9727 9.20905 -4.67313
151 1 42.5852 7.44266 -2.96027 42.5852 7.44266 -2.96027
152 2 44.5746 7.86685 -1.20296 44.5746 7.86685 -1.20296
153 2 44.7202 7.12124 -4.2979 44.7202 7.12124 -4.2979
154 1 45.8623 9.05575 -2.94786 45.8623 9.05575 -2.94786
155 2 47.3867 9.5289 -0.990909 47.3867 9.5289 -0.990909
156 2 48.1634 8.6447 -3.98764 48.1634 8.6447 -3.98764
157 1 48.4196 7.37235 -1.87256 48.4196 7.37235 -1.87256
158 2 49.6016 8.05842 0.312619 49.6016 8.05842 0.312619
159 2 50.8849 7.00757 -2.44779 50.8849 7.00757 -2.44779
160 1 51.4502 9.11326 -1.22209 51.4502 9.11326 -1.22209
161 2 52.7643 9.84099 0.807787 52.7643 9.84099 0.807787
162 2 2.39132 8.5847 -2.01389 53.8021 8.5847 -2.01389
163 1 3.15288 10.7088 -0.717521 3.15288 10.7088 -0.717521
164 2 4.54952 11.4221 1.33414 4.54952 11.4221 1.33414
165 2 5.5688 10.2612 -1.54963 5.5688 10.2612 -1.54963
166 1 6.23012 12.496 -0.351693 6.23012 12.496 -0.351693
167 2 7.71327 13.4538 1.5184 7.71327 13.4538 1.5184
168 2 8.63396 11.9475 -1.11906 8.63396 11.9475 -1.11906
169 1 8.56935 11.0823 1.32481 8.56935 11.0823 1.32481
170 2 10.159 11.5223 3.19808 10.159 11.5223 3.19808
171 2 10.9879 10.5925 0.28711 10.9879 10.5925 0.28711
172 1 11.8474 12.6603 1.55414 11.8474 12.6603 1.55414
173 2 13.4356 12.9828 3.4757 13.4356 12.9828 3.4757
174 2 14.0839 12.3114 0.534202 14.0839 12.3114 0.534202
175 1 14.4472 10.976 2.59255 14.4472 10.976 2.59255
176 2 16.3482 11.0719 4.34353 16.3482 11.0719 4.34353
177 2 16.55 10.8282 1.19086 16.55 10.8282 1.19086
178 1 17.6605 12.6344 2.74602 17.6605 12.6344 2.74602
179 2 19.6522 12.6291 4.32102 19.6522 12.6291 4.32102
180 2 19.7193 12.6883 1.13016 19.7193 12.6883 1.13016
181 1 20.4211 10.7107 2.77747 20.4211 10.7107 2.77747
182 2 22.6141 10.3923 4.02484 22.6141 10.3923 4.02484
183 2 22.1635 11.1528 0.940475 22.1635 11.1528 0.940475
184 1 23.5729 12.4355 2.6441 23.5729 12.4355 2.6441
185 2 25.7949 11.912 3.7363 25.7949 11.912 3.7363
186 2 25.2922 12.9624 0.706772 25.2922 12.9624 0.706772
187 1 26.0737 10.7889 1.54487 26.0737 10.7889 1.54487
188 2 28.3867 10.2172 2.42763 28.3867 10.2172 2.42763
189 2 27.5575 11.4436 -0.546405 27.5575 11.4436 -0.546405
190 1 29.3176 12.5227 1.26392 29.3176 12.5227 1.26392
191 2 31.7618 12.2032 1.98287 31.7618 12.2032 1.98287
192 2 30.5167 13.21 -0.763873 30.5167 13.21 -0.763873
193 1 31.7155 11.0051 -0.234345 31.7155 11.0051 -0.234345
194 2 34.0064 10.5398 0.431172 34.0064 10.5398 0.431172
195 2 32.9057 11.6979 -2.39648 32.9057 11.6979 -2.39648
196 1 34.7383 12.7377 -0.886079 34.7383 12.7377 -0.886079
197 2 37.0468 12.1767 -0.00164646 37.0468 12.1767 -0.00164646
198 2 36.3443 13.4414 -2.95551 36.3443 13.4414 -2.95551
199 1 37.3487 11.1251 -2.35458 37.3487 11.1251 -2.35458
200 2 39.5914 10.833 -1.10972 39.5914 10.833 -1.10972
201 2 39.0936 11.4737 -4.23916 39.0936 11.4737 -4.23916
202 1 40.4473 12.7557 -2.54392 40.4473 12.7557 -2.54392
203 2 42.6113 12.3416 -1.27976 42.6113 12.3416 -1.27976
204 2 42.2705 13.0791 -4.38259 42.2705 13.0791 -4.38259
205 1 43.1994 10.9578 -3.26267 43.1994 10.9578 -3.26267
206 2 45.0264 11.0432 -1.40186 45.0264 11.0432 -1.40186
207 2 45.2546 10.8093 -4.68557 45.2546 10.8093 -4.68557
208 1 46.3412 12.5405 -2.95998 46.3412 12.5405 -2.95998
209 2 48.2798 12.6995 -1.30554 48.2798 12.6995 -1.30554
210 2 48.3972 12.2554 -4.55404 48.3972 12.2554 -4.55404
211 1 49.038 10.716 -2.72983 49.038 10.716 -2.72983
212 2 50.4646 11.2348 -0.578597 50.4646 11.2348 -0.578597
213 2 51.5555 10.1908 -3.44977 51.5555 10.1908 -3.44977
214 1 52.112 12.3453 -2.12736 52.112 12.3453 -2.12736
215 2 53.579 12.9333 -0.0398016 53.579 12.9333 -0.0398016
216 2 3.04879 11.8407 -2.94047 54.4596 11.8407 -2.94047
217 1 3.8247 13.9869 -1.75794 3.8247 13.9869 -1.75794
218 2 5.23682 14.9068 0.0032945 5.23682 14.9068 0.0032945
219 2 6.02668 13.5165 -2.71871 6.02668 13.5165 -2.71871
220 1 6.94534 15.665 -1.65313 6.94534 15.665 -1.65313
221 2 8.48946 16.4634 0.254614 8.48946 16.4634 0.254614
222 2 9.2945 14.8879 -2.52422 9.2945 14.8879 -2.52422
223 1 9.52438 14.2245 -0.160061 9.52438 14.2245 -0.160061
224 2 10.8245 15.0013 2.02843 10.8245 15.0013 2.02843
225 2 11.9991 13.6817 -0.738093 11.9991 13.6817 -0.738093
226 1 12.6647 15.9384 0.287885 12.6647 15.9384 0.287885
227 2 14.0112 16.6956 2.16128 14.0112 16.6956 2.16128
228 2 14.8995 15.2742 -0.61147 14.8995 15.2742 -0.61147
229 1 15.0561 14.3496 1.83247 15.0561 14.3496 1.83247
230 2 16.6635 14.7361 3.74678 16.6635 14.7361 3.74678
231 2 17.2619 13.9055 0.667453 17.2619 13.9055 0.667453
232 1 18.2748 15.9485 1.88847 18.2748 15.9485 1.88847
233 2 19.7605 16.367 3.7921 19.7605 16.367 3.7921
234 2 20.5541 15.6924 0.805048 20.5541 15.6924 0.805048
235 1 20.8307 14.3106 2.76697 20.8307 14.3106 2.76697
236 2 22.8264 14.1358 4.3654 22.8264 14.1358 4.3654
237 2 22.8261 14.2371 1.17692 22.8261 14.2371 1.17692
238 1 24.0955 15.8808 2.847 24.0955 15.8808 2.847
239 2 26.1777 15.7947 4.35229 26.1777 15.7947 4.35229
240 2 25.8828 16.062 1.14638 25.8828 16.062 1.14638
241 1 26.7448 14.0252 2.50618 26.7448 14.0252 2.50618
242 2 29.1344 13.6611 3.43821 29.1344 13.6611 3.43821
243 2 28.2663 14.6357 0.511119 28.2663 14.6357 0.511119
244 1 29.8803 15.786 2.16886 29.8803 15.786 2.16886
245 2 32.0369 15.1647 3.01738 32.0369 15.1647 3.01738
246 2 31.3756 16.5637 0.155601 31.3756 16.5637 0.155601
247 1 32.3609 14.3088 0.663703 32.3609 14.3088 0.663703
248 2 34.6629 13.6867 1.47969 34.6629 13.6867 1.47969
249 2 33.7532 15.0374 -1.39185 33.7532 15.0374 -1.39185
250 1 35.5668 15.8517 0.475929 35.5668 15.8517 0.475929
251 2 37.9899 15.398 1.15623 37.9899 15.398 1.15623
252 2 36.8959 16.6348 -1.59945 36.8959 16.6348 -1.59945
253 1 37.9956 14.3619 -1.15202 37.9956 14.3619 -1.15202
254 2 40.2468 13.7876 -0.276781 40.2468 13.7876 -0.276781
255 2 39.3988 14.9604 -3.14471 39.3988 14.9604 -3.14471
256 1 41.1517 15.9031 -1.44781 41.1517 15.9031 -1.44781
257 2 43.5028 15.5867 -0.393803 43.5028 15.5867 -0.393803
258 2 42.5646 16.494 -3.37118 42.5646 16.494 -3.37118
259 1 43.7603 14.3673 -2.60838 43.7603 14.3673 -2.60838
260 2 45.8188 14.217 -1.20243 45.8188 14.217 -1.20243
261 2 45.5137 14.5114 -4.31349 45.5137 14.5114 -4.31349
262 1 46.7994 16.0157 -2.69539 46.7994 16.0157 -2.69539
263 2 48.9364 15.8956 -1.26748 48.9364 15.8956 -1.26748
264 2 48.7809 16.0153 -4.47802 48.7809 16.0153 -4.47802
265 1 49.6115 14.2509 -2.97817 49.6115 14.2509 -2.97817
266 2 51.2674 14.5192 -1.05504 51.2674 14.5192 -1.05504
267 2 51.7831 13.9365 -4.15699 51.7831 13.9365 -4.15699
268 1 52.7936 15.7716 -2.7036 52.7936 15.7716 -2.7036
269 2 54.4299 16.3441 -0.845293 54.4299 16.3441 -0.845293
270 2 54.9212 15.2068 -3.94829 54.9212 15.2068 -3.94829
271 1 4.44221 17.3358 -2.67449 4.44221 17.3358 -2.67449
272 2 6.09813 17.8518 -0.755635 6.09813 17.8518 -0.755635
273 2 6.69321 16.7587 -3.80979 6.69321 16.7587 -3.80979
274 1 7.68015 18.8934 -2.71243 7.68015 18.8934 -2.71243
275 2 9.24495 19.3577 -0.743183 9.24495 19.3577 -0.743183
276 2 9.96611 18.5698 -3.77313 9.96611 18.5698 -3.77313
277 1 10.2242 17.2514 -1.66477 10.2242 17.2514 -1.66477
278 2 11.6583 18.1911 0.424154 11.6583 18.1911 0.424154
279 2 12.6527 16.7182 -2.2148 12.6527 16.7182 -2.2148
280 1 13.3949 18.9523 -1.23185 13.3949 18.9523 -1.23185
281 2 14.6372 19.5851 0.999302 14.6372 19.5851 0.999302
282 2 15.8014 18.5554 -1.81929 15.8014 18.5554 -1.81929
283 1 15.6741 17.4108 0.408545 15.6741 17.4108 0.408545
284 2 17.2133 18.0708 2.4961 17.2133 18.0708 2.4961
285 2 18.0364 16.9108 -0.360843 18.0364 16.9108 -0.360843
286 1 18.9795 19.1601 0.825736 18.9795 19.1601 0.825736
287 2 20.2159 19.712 2.91198 20.2159 19.712 2.91198
288 2 21.2791 18.78 0.0320755 21.2791 18.78 0.0320755
289 1 21.3901 17.6095 2.27908 21.3901 17.6095 2.27908
290 2 23.1877 17.8308 4.1324 23.1877 17.8308 4.1324
291 2 23.5889 17.4836 0.951871 23.5889 17.4836 0.951871
292 1 24.5407 19.2385 2.53535 24.5407 19.2385 2.53535
293 2 26.393 19.3307 4.23191 26.393 19.3307 4.23191
294 2 26.7682 19.1317 1.06095 26.7682 19.1317 1.06095
295 1 27.3193 17.4928 2.8446 27.3193 17.4928 2.8446
296 2 29.5359 17.2225 4.11694 29.5359 17.2225 4.11694
297 2 29.1548 17.9415 1.06629 29.1548 17.9415 1.06629
298 1 30.5936 19.1013 2.6925 30.5936 19.1013 2.6925
299 2 32.6942 18.7752 4.04372 32.6942 18.7752 4.04372
300 2 32.3628 19.5152 0.90507 32.3628 19.5152 0.90507
301 1 33.2172 17.3939 2.05324 33.2172 17.3939 2.05324
302 2 35.5096 16.7563 2.84338 35.5096 16.7563 2.84338
303 2 34.604 18.1608 0.0654919 34.604 18.1608 0.0654919
304 1 36.4378 18.9447 1.77075 36.4378 18.9447 1.77075
305 2 38.8082 18.3826 2.46943 38.8082 18.3826 2.46943
306 2 37.7354 19.8155 -0.305468 37.7354 19.8155 -0.305468
307 1 38.6736 17.605 0.0189306 38.6736 17.605 0.0189306
308 2 41.0022 17.0042 0.91695 41.0022 17.0042 0.91695
309 2 40.1272 18.3369 -1.95188 40.1272 18.3369 -1.95188
310 1 41.8083 19.165 -0.230036 41.8083 19.165 -0.230036
311 2 44.1437 18.7251 0.611962 44.1437 18.7251 0.611962
312 2 43.1859 19.823 -2.25132 43.1859 19.823 -2.25132
313 1 44.259 17.6653 -1.71073 44.259 17.6653 -1.71073
314 2 46.5043 17.3317 -0.541851 46.5043 17.3317 -0.541851
315 2 45.7878 18.0193 -3.72467 45.7878 18.0193 -3.72467
316 1 47.4619 19.3167 -2.03855 47.4619 19.3167 -2.03855
317 2 49.7526 19.1557 -0.851397 49.7526 19.1557 -0.851397
318 2 49.14 19.8178 -3.92777 49.14 19.8178 -3.92777
319 1 50.0887 17.7171 -2.85862 50.0887 17.7171 -2.85862
320 2 51.9864 17.6817 -1.32995 51.9864 17.6817 -1.32995
321 2 52.0937 17.5386 -4.44422 52.0937 17.5386 -4.44422
322 1 53.2119 19.2313 -3.01596 53.2119 19.2313 -3.01596
323 2 55.1758 19.3158 -1.24277 55.1758 19.3158 -1.24277
324 2 55.3636 19.0333 -4.51869 55.3636 19.0333 -4.51869
325 1 5.04385 20.7782 -2.9606 5.04385 20.7782 -2.9606
326 2 7.03257 20.8263 -1.30493 7.03257 20.8263 -1.30493
327 2 6.9996 20.4348 -4.4695 6.9996 20.4348 -4.4695
328 1 8.21676 22.2892 -3.09588 8.21676 22.2892 -3.09588
329 2 10.0494 22.6904 -1.31974 10.0494 22.6904 -1.31974
330 2 10.3838 21.9756 -4.35558 10.3838 21.9756 -4.35558
331 1 10.9022 20.5696 -2.32912 10.9022 20.5696 -2.32912
332 2 12.4971 21.1719 -0.439644 12.4971 21.1719 -0.439644
333 2 13.1873 20.127 -3.50614 13.1873 20.127 -3.50614
334 1 14.1447 22.2238 -2.20511 14.1447 22.2238 -2.20511
335 2 15.502 23.0163 -0.0512142 15.502 23.0163 -0.0512142
336 2 16.5487 21.6407 -2.84558 16.5487 21.6407 -2.84558
337 1 16.486 20.7184 -0.548897 16.486 20.7184 -0.548897
338 2 17.9375 21.4057 1.40688 17.9375 21.4057 1.40688
339 2 18.8009 20.1794 -1.44341 18.8009 20.1794 -1.44341
340 1 19.682 22.4019 -0.35337 19.682 22.4019 -0.35337
341 2 21.0205 23.2132 1.78278 21.0205 23.2132 1.78278
342 2 22.11 21.9764 -1.04355 22.11 21.9764 -1.04355
343 1 21.9886 20.9493 1.2873 21.9886 20.9493 1.2873
344 2 23.4735 21.4102 3.32519 23.4735 21.4102 3.32519
345 2 24.3191 20.5949 0.330533 24.3191 20.5949 0.330533
346 1 25.1346 22.6344 1.79732 25.1346 22.6344 1.79732
347 2 26.8049 22.7603 3.76553 26.8049 22.7603 3.76553
348 2 27.3447 22.4291 0.584341 27.3447 22.4291 0.584341
349 1 27.7983 20.7877 2.64316 27.7983 20.7877 2.64316
350 2 29.7342 20.8114 4.33871 29.7342 20.8114 4.33871
351 2 29.8591 20.8517 1.10524 29.8591 20.8517 1.10524
352 1 31.0511 22.4488 2.7359 31.0511 22.4488 2.7359
353 2 32.9739 22.3743 4.34112 32.9739 22.3743 4.34112
354 2 33.0559 22.5105 1.09557 33.0559 22.5105 1.09557
355 1 33.8321 20.733 2.61461 33.8321 20.733 2.61461
356 2 36.0626 20.3779 3.93664 36.0626 20.3779 3.93664
357 2 35.5301 21.1197 0.760651 35.5301 21.1197 0.760651
358 1 36.997 22.3579 2.632 36.997 22.3579 2.632
359 2 39.3282 21.9258 3.6424 39.3282 21.9258 3.6424
360 2 38.4776 22.9093 0.664359 38.4776 22.9093 0.664359
361 1 39.4357 20.7281 1.31074 39.4357 20.7281 1.31074
362 2 41.6703 20.0585 2.21736 41.6703 20.0585 2.21736
363 2 40.7414 21.4062 -0.620436 40.7414 21.4062 -0.620436
364 1 42.5449 22.2156 1.12746 42.5449 22.2156 1.12746
365 2 45.1182 21.7036 1.76711 45.1182 21.7036 1.76711
366 2 43.9985 23.0085 -0.960315 43.9985 23.0085 -0.960315
367 1 44.9898 20.8729 -0.571454 44.9898 20.8729 -0.571454
368 2 47.3263 20.3403 0.308457 47.3263 20.3403 0.308457
369 2 46.469 21.5482 -2.56095 46.469 21.5482 -2.56095
370 1 48.1046 22.499 -0.915836 48.1046 22.499 -0.915836
371 2 50.4851 22.1014 -0.0415209 50.4851 22.1014 -0.0415209
372 2 49.5808 23.3121 -2.97704 49.5808 23.3121 -2.97704
373 1 50.6087 21.0886 -2.33712 50.6087 21.0886 -2.33712
374 2 52.6908 20.6421 -1.06612 52.6908 20.6421 -1.06612
375 2 52.4136 21.2398 -4.15787 52.4136 21.2398 -4.15787
376 1 53.8086 22.5597 -2.3246 53.8086 22.5597 -2.3246
377 2 56.0106 22.4668 -1.06816 56.0106 22.4668 -1.06816
378 2 55.4251 22.529 -4.31804 55.4251 22.529 -4.31804
379 1 5.57496 24.1543 -2.89696 5.57496 24.1543 -2.89696
380 2 7.72084 24.1068 -1.42954 7.72084 24.1068 -1.42954
381 2 7.52189 24.1896 -4.65582 7.52189 24.1896 -4.65582
382 1 8.84799 25.7378 -3.04672 8.84799 25.7378 -3.04672
383 2 10.8874 25.6688 -1.53689 10.8874 25.6688 -1.53689
384 2 10.805 25.6243 -4.79792 10.805 25.6243 -4.79792
385 1 11.5429 23.9233 -3.05329 11.5429 23.9233 -3.05329
386 2 13.3342 24.4566 -1.22415 13.3342 24.4566 -1.22415
387 2 13.8246 23.6875 -4.3195 13.8246 23.6875 -4.3195
388 1 14.8446 25.5428 -3.07347 14.8446 25.5428 -3.07347
389 2 16.3 26.1468 -1.10646 16.3 26.1468 -1.10646
390 2 17.0993 25.0126 -4.09784 17.0993 25.0126 -4.09784
391 1 17.2951 23.9297 -1.70555 17.2951 23.9297 -1.70555
392 2 18.7432 24.7907 0.229381 18.7432 24.7907 0.229381
393 2 19.6099 23.3777 -2.68879 19.6099 23.3777 -2.68879
394 1 20.4629 25.6151 -1.48748 20.4629 25.6151 -1.48748
395 2 21.7627 26.4512 0.526562 21.7627 26.4512 0.526562
396 2 22.8471 25.0876 -2.07418 22.8471 25.0876 -2.07418
397 1 22.7735 24.1521 0.183585 22.7735 24.1521 0.183585
398 2 24.0853 24.8506 2.19618 24.0853 24.8506 2.19618
399 2 25.0374 23.5278 -0.662487 25.0374 23.5278 -0.662487
400 1 25.9296 25.7672 0.59346 25.9296 25.7672 0.59346
401 2 27.1634 26.4072 2.73505 27.1634 26.4072 2.73505
402 2 28.3204 25.4405 -0.130729 28.3204 25.4405 -0.130729
403 1 28.3445 24.272 2.07526 28.3445 24.272 2.07526
404 2 30.0806 24.5048 3.92959 30.0806 24.5048 3.92959
405 2 30.5772 24.0356 0.828159 30.5772 24.0356 0.828159
406 1 31.619 25.9884 2.25857 31.619 25.9884 2.25857
407 2 33.4707 26.16 4.07375 33.4707 26.16 4.07375
408 2 33.8217 25.7285 0.89325 33.8217 25.7285 0.89325
409 1 34.2303 24.1774 2.81694 34.2303 24.1774 2.81694
410 2 36.2773 24.1603 4.36387 36.2773 24.1603 4.36387
411 2 36.2543 24.2639 1.12593 36.2543 24.2639 1.12593
412 1 37.5148 25.7498 2.89702 37.5148 25.7498 2.89702
413 2 39.5746 25.4877 4.27276 39.5746 25.4877 4.27276
414 2 39.2818 25.9335 1.04556 39.2818 25.9335 1.04556
415 1 40.1847 23.9224 2.36533 40.1847 23.9224 2.36533
416 2 42.4666 23.3872 3.27476 42.4666 23.3872 3.27476
417 2 41.6591 24.4874 0.366504 41.6591 24.4874 0.366504
418 1 43.3854 25.5023 1.95978 43.3854 25.5023 1.95978
419 2 45.6511 25.0262 2.93666 45.6511 25.0262 2.93666
420 2 44.951 26.2256 0.0347587 44.951 26.2256 0.0347587
421 1 45.7794 23.9467 0.713662 45.7794 23.9467 0.713662
422 2 48.1276 23.4759 1.41361 48.1276 23.4759 1.41361
423 2 47.0299 24.7006 -1.35257 47.0299 24.7006 -1.35257
424 1 49.032 25.6935 0.219324 49.032 25.6935 0.219324
425 2 51.2285 25.0687 1.12798 51.2285 25.0687 1.12798
426 2 50.4393 26.4518 -1.77854 50.4393 26.4518 -1.77854
427 1 51.3326 24.2684 -1.21289 51.3326 24.2684 -1.21289
428 2 53.5954 23.9488 -0.143234 53.5954 23.9488 -0.143234
429 2 52.7147 24.5913 -3.29641 52.7147 24.5913 -3.29641
430 1 54.471 25.7685 -1.57444 54.471 25.7685 -1.57444
431 2 56.6807 25.3473 -0.618269 56.6807 25.3473 -0.618269
432 2 55.8774 26.2837 -3.63753 55.8774 26.2837 -3.63753
433 1 6.14425 27.47 -1.91356 6.14425 27.47 -1.91356
434 2 8.46468 27.1929 -0.978868 8.46468 27.1929 -0.978868
435 2 7.65957 27.7407 -4.05847 7.65957 27.7407 -4.05847
436 1 9.34494 29.2246 -2.56251 9.34494 29.2246 -2.56251
437 2 11.6501 29.0317 -1.32477 11.6501 29.0317 -1.32477
438 2 11.102 29.3806 -4.55802 11.102 29.3806 -4.55802
439 1 12.1279 27.3644 -3.29616 12.1279 27.3644 -3.29616
440 2 14.0521 27.619 -1.68227 14.0521 27.619 -1.68227
441 2 14.0486 27.0426 -4.87778 14.0486 27.0426 -4.87778
442 1 15.3053 28.9618 -3.54701 15.3053 28.9618 -3.54701
443 2 17.2123 29.2864 -1.75724 17.2123 29.2864 -1.75724
444 2 17.6543 28.7952 -4.85258 17.6543 28.7952 -4.85258
445 1 17.9538 27.1304 -2.90928 17.9538 27.1304 -2.90928
446 2 19.412 27.7904 -0.869613 19.412 27.7904 -0.869613
447 2 20.309 26.8257 -3.78866 20.309 26.8257 -3.78866
448 1 21.1725 28.993 -2.55889 21.1725 28.993 -2.55889
449 2 22.6925 29.5825 -0.505712 22.6925 29.5825 -0.505712
450 2 23.4347 28.3405 -3.43307 23.4347 28.3405 -3.43307
451 1 23.5553 27.3828 -1.11439 23.5553 27.3828 -1.11439
452 2 24.7674 27.9966 0.970963 24.7674 27.9966 0.970963
453 2 25.9913 26.7666 -1.78303 25.9913 26.7666 -1.78303
454 1 26.713 28.9708 -0.602899 26.713 28.9708 -0.602899
455 2 28.0153 29.9056 1.37844 28.0153 29.9056 1.37844
456 2 29.0534 28.277 -1.25503 29.0534 28.277 -1.25503
457 1 28.9347 27.5513 1.17868 28.9347 27.5513 1.17868
458 2 30.5919 28.0017 3.17357 30.5919 28.0017 3.17357
459 2 31.2886 27.2499 0.0881776 31.2886 27.2499 0.0881776
460 1 32.2137 29.2061 1.52914 32.2137 29.2061 1.52914
461 2 33.8423 29.7511 3.41661 33.8423 29.7511 3.41661
462 2 34.5421 28.8108 0.400515 34.5421 28.8108 0.400515
463 1 34.8694 27.6018 2.51731 34.8694 27.6018 2.51731
464 2 36.8117 27.7023 4.26053 36.8117 27.7023 4.26053
465 2 36.866 27.4179 0.963953 36.866 27.4179 0.963953
466 1 38.1107 29.1947 2.50062 38.1107 29.1947 2.50062
467 2 40.0044 29.258 4.19803 40.0044 29.258 4.19803
468 2 40.1647 29.1101 1.03247 40.1647 29.1101 1.03247
469 1 40.7391 27.3552 2.73052 40.7391 27.3552 2.73052
470 2 42.9261 26.8921 3.98954 42.9261 26.8921 3.98954
471 2 42.5363 27.5162 0.900658 42.5363 27.5162 0.900658
472 1 44.0441 28.9554 2.67882 44.0441 28.9554 2.67882
473 2 46.1999 28.4765 3.89699 46.1999 28.4765 3.89699
474 2 45.7254 29.3847 0.740091 45.7254 29.3847 0.740091
475 1 46.6072 27.2102 1.71099 46.6072 27.2102 1.71099
476 2 48.9054 26.5831 2.58075 48.9054 26.5831 2.58075
477 2 48.0818 28.1314 -0.177776 48.0818 28.1314 -0.177776
478 1 49.8785 28.7832 1.58672 49.8785 28.7832 1.58672
479 2 52.1436 28.1732 2.3937 52.1436 28.1732 2.3937
480 2 51.2302 29.6586 -0.260585 51.2302 29.6586 -0.260585
481 1 52.1674 27.2566 -0.0422522 52.1674 27.2566 -0.0422522
482 2 54.6178 26.8092 0.741171 54.6178 26.8092 0.741171
483 2 53.4148 28.0464 -2.06336 53.4148 28.0464 -2.06336
484 1 55.2595 28.9841 -0.404403 55.2595 28.9841 -0.404403
485 2 57.625 28.6123 0.334255 57.625 28.6123 0.334255
486 2 56.5828 29.6987 -2.50088 56.5828 29.6987 -2.50088
487 1 6.88579 30.7705 -0.989467 6.88579 30.7705 -0.989467
488 2 9.22871 30.2343 -0.276995 9.22871 30.2343 -0.276995
489 2 8.10299 31.449 -3.02562 8.10299 31.449 -3.02562
490 1 10.1016 32.454 -1.44449 10.1016 32.454 -1.44449
491 2 12.6755 31.9369 -0.668519 12.6755 31.9369 -0.668519
492 2 11.3247 33 -3.61676 11.3247 33 -3.61676
493 1 12.5823 30.8484 -3.00516 12.5823 30.8484 -3.00516
494 2 14.8283 30.675 -1.80439 14.8283 30.675 -1.80439
495 2 14.2894 31.0137 -4.77572 14.2894 31.0137 -4.77572
496 1 15.7998 32.4502 -3.28814 15.7998 32.4502 -3.28814
497 2 17.8867 32.4184 -1.7715 17.8867 32.4184 -1.7715
498 2 17.6981 32.439 -4.98955 17.6981 32.439 -4.98955
499 1 18.6459 30.6859 -3.44988 18.6459 30.6859 -3.44988
500 2 20.2688 31.0677 -1.49075 20.2688 31.0677 -1.49075
501 2 20.7714 30.2786 -4.71171 20.7714 30.2786 -4.71171
502 1 21.7889 32.2629 -3.26421 21.7889 32.2629 -3.26421
503 2 23.5603 32.6087 -1.4267 23.5603 32.6087 -1.4267
504 2 23.8439 31.7056 -4.60682 23.8439 31.7056 -4.60682
505 1 24.4181 30.4776 -2.37178 24.4181 30.4776 -2.37178
506 2 25.7383 31.2128 -0.246967 25.7383 31.2128 -0.246967
507 2 26.8986 29.803 -2.99546 26.8986 29.803 -2.99546
508 1 27.5413 32.1276 -1.87693 27.5413 32.1276 -1.87693
509 2 28.8651 32.9391 0.0983093 28.8651 32.9391 0.0983093
510 2 29.8923 31.5135 -2.59355 29.8923 31.5135 -2.59355
511 1 29.9532 30.6599 -0.222171 29.9532 30.6599 -0.222171
512 2 31.1817 31.5435 1.81603 31.1817 31.5435 1.81603
513 2 32.3289 30.1573 -0.81571 32.3289 30.1573 -0.81571
514 1 33.1279 32.3431 0.314696 33.1279 32.3431 0.314696
515 2 34.5338 33.0564 2.41437 34.5338 33.0564 2.41437
516 2 35.5359 32.0412 -0.474705 35.5359 32.0412 -0.474705
517 1 35.4805 30.8357 1.77806 35.4805 30.8357 1.77806
518 2 37.0958 31.068 3.69508 37.0958 31.068 3.69508
519 2 37.6154 30.4601 0.42524 37.6154 30.4601 0.42524
520 1 38.7429 32.4748 1.94759 38.7429 32.4748 1.94759
521 2 40.3862 32.6918 3.83354 40.3862 32.6918 3.83354
522 2 40.9678 32.3051 0.723224 40.9678 32.3051 0.723224
523 1 41.3689 30.7132 2.62158 41.3689 30.7132 2.62158
524 2 43.3801 30.7092 4.26468 43.3801 30.7092 4.26468
525 2 43.2722 30.7425 0.956521 43.2722 30.7425 0.956521
526 1 44.5886 32.3657 2.69551 44.5886 32.3657 2.69551
527 2 46.5465 32.2576 4.35967 46.5465 32.2576 4.35967
528 2 46.6529 32.5162 1.15428 46.6529 32.5162 1.15428
529 1 47.2138 30.4828 2.58811 47.2138 30.4828 2.58811
530 2 49.3351 29.929 3.77081 49.3351 29.929 3.77081
531 2 49.0333 31.0315 0.820695 49.0333 31.0315 0.820695
532 1 50.4171 32.1422 2.6467 50.4171 32.1422 2.6467
533 2 52.7266 31.6781 3.62177 52.7266 31.6781 3.62177
534 2 51.9799 32.5349 0.600634 51.9799 32.5349 0.600634
535 1 53.0409 30.4401 1.37704 53.0409 30.4401 1.37704
536 2 55.2969 29.6468 1.92891 55.2969 29.6468 1.92891
537 2 54.1908 31.1677 -0.73937 54.1908 31.1677 -0.73937
538 1 56.0771 32.1765 0.877357 56.0771 32.1765 0.877357
539 2 7.0715 31.5762 1.41159 58.4823 31.5762 1.41159
540 2 57.1035 32.8617 -1.23842 57.1035 32.8617 -1.23842