ITEM: TIMESTEP
791000
ITEM: NUMBER OF ATOMS
810
ITEM: BOX BOUNDS xy xz yz pp pp pp
8.0341777045796159e-01 5.6122089110997635e+01 3.9079018814551318e+00
8.0582000660415243e-01 5.0210394993394715e+01 0.0000000000000000e+00
-1.0000000000000000e+01 1.0000000000000000e+01 0.0000000000000000e+00
ITEM: ATOMS id type x y z xu yu zu
1 1 1.09199 1.03558 -0.102004 1.09199 1.03558 -0.102004
2 2 7.25297 50.1605 1.2037 3.34507 0.755924 1.2037
3 2 2.62747 1.24359 -1.96416 2.62747 1.24359 -1.96416
4 1 3.98617 2.63274 -0.392857 3.98617 2.63274 -0.392857
5 2 6.12556 2.33485 0.89738 6.12556 2.33485 0.89738
6 2 5.70384 2.97241 -2.28323 5.70384 2.97241 -2.28323
7 1 6.79504 1.01106 -1.14361 6.79504 1.01106 -1.14361
8 2 8.9672 0.840782 0.179802 8.9672 0.840782 0.179802
9 2 8.50416 1.3496 -3.0829 8.50416 1.3496 -3.0829
10 1 9.77403 2.66601 -1.36899 9.77403 2.66601 -1.36899
11 2 11.8609 2.59423 -0.022366 11.8609 2.59423 -0.022366
12 2 11.4139 2.8466 -3.27204 11.4139 2.8466 -3.27204
13 1 12.5297 1.00608 -1.85134 12.5297 1.00608 -1.85134
14 2 14.5359 1.0741 -0.274155 14.5359 1.0741 -0.274155
15 2 14.3426 0.965884 -3.58752 14.3426 0.965884 -3.58752
16 1 15.3971 2.59214 -2.12822 15.3971 2.59214 -2.12822
17 2 17.3653 2.83869 -0.4962 17.3653 2.83869 -0.4962
18 2 17.43 2.2798 -3.69828 17.43 2.2798 -3.69828
19 1 18.2173 0.8858 -1.79947 18.2173 0.8858 -1.79947
20 2 20.0417 1.18715 -0.0321521 20.0417 1.18715 -0.0321521
21 2 24.2564 50.0094 -3.18421 20.3485 0.604848 -3.18421
22 1 21.2756 2.46772 -1.77695 21.2756 2.46772 -1.77695
23 2 23.0421 2.93746 -0.104906 23.0421 2.93746 -0.104906
24 2 23.3698 2.1442 -3.29227 23.3698 2.1442 -3.29227
25 1 24.0129 0.902217 -1.24512 24.0129 0.902217 -1.24512
26 2 25.7157 1.33862 0.777723 25.7157 1.33862 0.777723
27 2 30.1165 49.9252 -2.34921 26.2086 0.520669 -2.34921
28 1 27.0423 2.50079 -0.979514 27.0423 2.50079 -0.979514
29 2 28.5456 3.2095 1.01356 28.5456 3.2095 1.01356
30 2 29.2227 2.1339 -2.01087 29.2227 2.1339 -2.01087
31 1 29.6795 1.01775 0.163633 29.6795 1.01775 0.163633
32 2 31.131 1.51666 2.14473 31.131 1.51666 2.14473
33 2 31.9613 0.763076 -0.857365 31.9613 0.763076 -0.857365
34 1 32.6382 2.77925 0.4153 32.6382 2.77925 0.4153
35 2 34.1318 3.24981 2.3837 34.1318 3.24981 2.3837
36 2 35.0364 2.39323 -0.759587 35.0364 2.39323 -0.759587
37 1 35.3073 1.2147 1.48662 35.3073 1.2147 1.48662
38 2 37.3445 1.21311 3.14187 37.3445 1.21311 3.14187
39 2 37.3061 0.992674 -0.115544 37.3061 0.992674 -0.115544
40 1 38.3538 2.75666 1.39182 38.3538 2.75666 1.39182
41 2 40.3368 2.75286 3.0683 40.3368 2.75286 3.0683
42 2 40.1816 2.7146 -0.248435 40.1816 2.7146 -0.248435
43 1 41.0947 1.05442 1.47162 41.0947 1.05442 1.47162
44 2 43.1082 0.928747 3.04397 43.1082 0.928747 3.04397
45 2 42.9509 1.23641 -0.219552 42.9509 1.23641 -0.219552
46 1 44.14 2.73997 1.50557 44.14 2.73997 1.50557
47 2 46.2032 2.46879 3.06475 46.2032 2.46879 3.06475
48 2 45.8974 2.92543 -0.21897 45.8974 2.92543 -0.21897
49 1 46.7668 1.01134 1.0479 46.7668 1.01134 1.0479
50 2 52.9025 50.1149 2.2452 48.9946 0.710365 2.2452
51 2 48.4329 1.46733 -0.885561 48.4329 1.46733 -0.885561
52 1 49.8187 2.62538 0.824513 49.8187 2.62538 0.824513
53 2 52.001 2.09777 2.03617 52.001 2.09777 2.03617
54 2 51.4701 3.20521 -1.01143 51.4701 3.20521 -1.01143
55 1 1.40365 4.30171 0.911578 1.40365 4.30171 0.911578
56 2 3.64722 3.70277 1.85195 3.64722 3.70277 1.85195
57 2 2.89411 4.64649 -1.20213 2.89411 4.64649 -1.20213
58 1 4.35911 5.76404 0.634462 4.35911 5.76404 0.634462
59 2 6.6502 5.32733 1.60034 6.6502 5.32733 1.60034
60 2 5.6808 6.31312 -1.38308 5.6808 6.31312 -1.38308
61 1 7.06461 4.25909 -0.556801 7.06461 4.25909 -0.556801
62 2 9.3322 4.0381 0.673525 9.3322 4.0381 0.673525
63 2 8.60457 4.60264 -2.51075 8.60457 4.60264 -2.51075
64 1 9.98119 5.97569 -0.824623 9.98119 5.97569 -0.824623
65 2 12.4015 5.97461 0.337543 12.4015 5.97461 0.337543
66 2 11.5371 6.29068 -2.83054 11.5371 6.29068 -2.83054
67 1 12.6805 4.43192 -1.5892 12.6805 4.43192 -1.5892
68 2 14.7181 4.11959 -0.219985 14.7181 4.11959 -0.219985
69 2 14.248 4.58351 -3.46773 14.248 4.58351 -3.46773
70 1 15.6862 5.99784 -1.78228 15.6862 5.99784 -1.78228
71 2 17.8251 5.92124 -0.507161 17.8251 5.92124 -0.507161
72 2 17.3232 5.96616 -3.73789 17.3232 5.96616 -3.73789
73 1 18.4159 4.18459 -2.34665 18.4159 4.18459 -2.34665
74 2 20.186 4.41551 -0.582373 20.186 4.41551 -0.582373
75 2 20.5412 3.89529 -3.79691 20.5412 3.89529 -3.79691
76 1 21.4697 5.82458 -2.28458 21.4697 5.82458 -2.28458
77 2 23.2112 5.88012 -0.49264 23.2112 5.88012 -0.49264
78 2 23.5184 5.74437 -3.66336 23.5184 5.74437 -3.66336
79 1 24.2787 4.18275 -1.91227 24.2787 4.18275 -1.91227
80 2 25.8683 4.44805 0.0254937 25.8683 4.44805 0.0254937
81 2 26.4753 3.76961 -3.09163 26.4753 3.76961 -3.09163
82 1 27.2835 5.77598 -1.63319 27.2835 5.77598 -1.63319
83 2 28.9946 6.14378 0.226161 28.9946 6.14378 0.226161
84 2 29.4379 5.30822 -2.92938 29.4379 5.30822 -2.92938
85 1 30.0617 4.1779 -0.724005 30.0617 4.1779 -0.724005
86 2 31.6897 4.77646 1.21686 31.6897 4.77646 1.21686
87 2 32.2501 3.76338 -1.82581 32.2501 3.76338 -1.82581
88 1 33.1015 5.92562 -0.614327 33.1015 5.92562 -0.614327
89 2 34.2926 6.25824 1.6423 34.2926 6.25824 1.6423
90 2 35.4681 5.91386 -1.38978 35.4681 5.91386 -1.38978
91 1 35.6373 4.39429 0.6372 35.6373 4.39429 0.6372
92 2 37.3165 4.72811 2.56453 37.3165 4.72811 2.56453
93 2 37.8046 4.18295 -0.701351 37.8046 4.18295 -0.701351
94 1 38.6297 6.12632 0.750417 38.6297 6.12632 0.750417
95 2 40.2025 6.11558 2.64338 40.2025 6.11558 2.64338
96 2 40.9132 6.06845 -0.463329 40.9132 6.06845 -0.463329
97 1 41.3323 4.3184 1.29839 41.3323 4.3184 1.29839
98 2 43.103 4.30835 3.08268 43.103 4.30835 3.08268
99 2 43.3596 4.45686 -0.195113 43.3596 4.45686 -0.195113
100 1 44.2271 5.99925 1.59451 44.2271 5.99925 1.59451
101 2 46.1738 6.03679 3.23354 46.1738 6.03679 3.23354
102 2 46.2549 5.96981 0.0644319 46.2549 5.96981 0.0644319
103 1 47.0893 4.26294 1.62584 47.0893 4.26294 1.62584
104 2 49.2793 3.90915 2.85399 49.2793 3.90915 2.85399
105 2 48.7363 4.56596 -0.290812 48.7363 4.56596 -0.290812
106 1 50.0995 5.92942 1.44039 50.0995 5.92942 1.44039
107 2 52.174 5.64665 2.88182 52.174 5.64665 2.88182
108 2 51.8005 6.22931 -0.281121 51.8005 6.22931 -0.281121
109 1 1.63678 7.63744 1.49895 1.63678 7.63744 1.49895
110 2 3.84789 7.19311 2.68829 3.84789 7.19311 2.68829
111 2 3.23364 7.84066 -0.421357 3.23364 7.84066 -0.421357
112 1 4.72642 9.05962 1.16373 4.72642 9.05962 1.16373
113 2 6.98354 8.63258 2.24626 6.98354 8.63258 2.24626
114 2 6.30397 9.60144 -0.754251 6.30397 9.60144 -0.754251
115 1 7.37487 7.56434 0.181765 7.37487 7.56434 0.181765
116 2 9.58733 7.21297 1.29205 9.58733 7.21297 1.29205
117 2 8.87097 7.95564 -1.77508 8.87097 7.95564 -1.77508
118 1 10.2476 9.22057 -0.0643352 10.2476 9.22057 -0.0643352
119 2 12.5928 8.81402 0.932059 12.5928 8.81402 0.932059
120 2 11.7916 9.77499 -2.1196 11.7916 9.77499 -2.1196
121 1 13.0102 7.74401 -1.23528 13.0102 7.74401 -1.23528
122 2 14.9903 7.42714 0.175145 14.9903 7.42714 0.175145
123 2 14.6813 7.95132 -3.08522 14.6813 7.95132 -3.08522
124 1 15.965 9.21298 -1.36752 15.965 9.21298 -1.36752
125 2 18.3369 9.08608 -0.218399 18.3369 9.08608 -0.218399
126 2 17.4259 9.48133 -3.37498 17.4259 9.48133 -3.37498
127 1 18.7288 7.59711 -2.16061 18.7288 7.59711 -2.16061
128 2 20.7752 7.51804 -0.621005 20.7752 7.51804 -0.621005
129 2 20.6277 7.52907 -3.74574 20.6277 7.52907 -3.74574
130 1 21.7966 9.27048 -2.1643 21.7966 9.27048 -2.1643
131 2 23.6901 9.42267 -0.515124 23.6901 9.42267 -0.515124
132 2 23.801 9.07555 -3.83085 23.801 9.07555 -3.83085
133 1 24.4512 7.4492 -2.03436 24.4512 7.4492 -2.03436
134 2 26.2616 7.66014 -0.203698 26.2616 7.66014 -0.203698
135 2 26.5159 7.25588 -3.5481 26.5159 7.25588 -3.5481
136 1 27.491 9.0013 -1.8975 27.491 9.0013 -1.8975
137 2 29.2756 9.23091 -0.21091 29.2756 9.23091 -0.21091
138 2 29.425 8.93498 -3.38149 29.425 8.93498 -3.38149
139 1 30.3464 7.4214 -1.59992 30.3464 7.4214 -1.59992
140 2 31.8613 7.73027 0.398233 31.8613 7.73027 0.398233
141 2 32.5341 7.28648 -2.67058 32.5341 7.28648 -2.67058
142 1 33.1703 9.19975 -1.10479 33.1703 9.19975 -1.10479
143 2 34.6912 9.74853 1.02042 34.6912 9.74853 1.02042
144 2 35.4883 8.94509 -2.01949 35.4883 8.94509 -2.01949
145 1 35.8921 7.80599 0.234293 35.8921 7.80599 0.234293
146 2 37.6551 7.93279 2.06423 37.6551 7.93279 2.06423
147 2 38.1312 7.59574 -1.14715 38.1312 7.59574 -1.14715
148 1 38.9078 9.40994 0.466274 38.9078 9.40994 0.466274
149 2 40.4625 9.58462 2.43926 40.4625 9.58462 2.43926
150 2 41.1042 9.20314 -0.713107 41.1042 9.20314 -0.713107
151 1 41.6353 7.68978 1.19231 41.6353 7.68978 1.19231
152 2 43.1093 7.71982 3.14503 43.1093 7.71982 3.14503
153 2 43.7206 7.71668 -0.0676943 43.7206 7.71668 -0.0676943
154 1 44.4852 9.33687 1.67508 44.4852 9.33687 1.67508
155 2 46.3865 9.41588 3.40429 46.3865 9.41588 3.40429
156 2 46.3534 9.2621 0.0216866 46.3534 9.2621 0.0216866
157 1 47.2548 7.63875 1.71783 47.2548 7.63875 1.71783
158 2 49.151 7.57685 3.28526 49.151 7.57685 3.28526
159 2 49.1521 7.81265 0.0534317 49.1521 7.81265 0.0534317
160 1 50.1882 9.2335 1.88353 50.1882 9.2335 1.88353
161 2 52.3532 9.10842 3.3427 52.3532 9.10842 3.3427
162 2 52.0097 9.4009 0.174113 52.0097 9.4009 0.174113
163 1 1.96146 10.7992 1.87274 1.96146 10.7992 1.87274
164 2 4.2578 10.5218 3.01144 4.2578 10.5218 3.01144
165 2 3.53381 11.0533 -0.034089 3.53381 11.0533 -0.034089
166 1 4.90627 12.5267 1.47842 4.90627 12.5267 1.47842
167 2 7.0236 12.3045 2.85878 7.0236 12.3045 2.85878
168 2 6.53411 12.5402 -0.494183 6.53411 12.5402 -0.494183
169 1 7.63062 10.8271 0.937903 7.63062 10.8271 0.937903
170 2 9.84691 10.4054 2.01753 9.84691 10.4054 2.01753
171 2 9.08473 11.2103 -1.05627 9.08473 11.2103 -1.05627
172 1 10.5921 12.4437 0.597674 10.5921 12.4437 0.597674
173 2 12.8648 12.1128 1.74869 12.8648 12.1128 1.74869
174 2 12.2292 12.9722 -1.28996 12.2292 12.9722 -1.28996
175 1 13.2777 10.8881 -0.487957 13.2777 10.8881 -0.487957
176 2 15.5272 10.5656 0.695048 15.5272 10.5656 0.695048
177 2 14.7411 11.1052 -2.42359 14.7411 11.1052 -2.42359
178 1 16.308 12.4171 -0.811265 16.308 12.4171 -0.811265
179 2 18.4971 12.0944 0.379707 18.4971 12.0944 0.379707
180 2 17.6838 12.9035 -2.84283 17.6838 12.9035 -2.84283
181 1 18.9217 10.8666 -1.83225 18.9217 10.8666 -1.83225
182 2 21.0362 10.9964 -0.474002 21.0362 10.9964 -0.474002
183 2 20.6263 10.8527 -3.71067 20.6263 10.8527 -3.71067
184 1 21.9071 12.6079 -2.17678 21.9071 12.6079 -2.17678
185 2 23.9394 12.5361 -0.497033 23.9394 12.5361 -0.497033
186 2 23.7855 12.7388 -3.82368 23.7855 12.7388 -3.82368
187 1 24.7593 10.9048 -2.26703 24.7593 10.9048 -2.26703
188 2 26.5273 10.9909 -0.399912 26.5273 10.9909 -0.399912
189 2 26.9129 10.7117 -3.71935 26.9129 10.7117 -3.71935
190 1 27.7552 12.4607 -2.07832 27.7552 12.4607 -2.07832
191 2 29.4596 12.4846 -0.318852 29.4596 12.4846 -0.318852
192 2 29.8402 12.6061 -3.50334 29.8402 12.6061 -3.50334
193 1 30.4798 10.8594 -1.82277 30.4798 10.8594 -1.82277
194 2 32.0458 11.0221 0.155645 32.0458 11.0221 0.155645
195 2 32.7397 10.7685 -2.97469 32.7397 10.7685 -2.97469
196 1 33.4751 12.4119 -1.28754 33.4751 12.4119 -1.28754
197 2 35.2361 13.0479 0.416323 35.2361 13.0479 0.416323
198 2 35.5671 12.1591 -2.59303 35.5671 12.1591 -2.59303
199 1 36.2466 10.9406 -0.541774 36.2466 10.9406 -0.541774
200 2 37.6762 11.3203 1.45174 37.6762 11.3203 1.45174
201 2 38.3902 10.6309 -1.67137 38.3902 10.6309 -1.67137
202 1 39.2175 12.6511 -0.279086 39.2175 12.6511 -0.279086
203 2 40.6445 13.2061 1.70463 40.6445 13.2061 1.70463
204 2 41.3593 12.1974 -1.36958 41.3593 12.1974 -1.36958
205 1 41.7869 11.1253 0.87438 41.7869 11.1253 0.87438
206 2 43.3714 11.3613 2.85277 43.3714 11.3613 2.85277
207 2 43.8812 10.8581 -0.362715 43.8812 10.8581 -0.362715
208 1 44.7397 12.6548 1.11476 44.7397 12.6548 1.11476
209 2 46.3928 12.8172 2.9502 46.3928 12.8172 2.9502
210 2 46.8664 12.5031 -0.317806 46.8664 12.5031 -0.317806
211 1 47.4794 10.9442 1.68917 47.4794 10.9442 1.68917
212 2 49.2959 11.0966 3.46837 49.2959 11.0966 3.46837
213 2 49.413 10.9416 0.0712267 49.413 10.9416 0.0712267
214 1 50.576 12.5137 1.81511 50.576 12.5137 1.81511
215 2 52.5151 12.7136 3.3827 52.5151 12.7136 3.3827
216 2 52.5265 12.3217 0.163964 52.5265 12.3217 0.163964
217 1 2.20133 14.2611 1.57624 2.20133 14.2611 1.57624
218 2 3.96674 14.2719 3.127 3.96674 14.2719 3.127
219 2 4.11192 14.4267 -0.0222821 4.11192 14.4267 -0.0222821
220 1 5.2192 15.9528 1.59204 5.2192 15.9528 1.59204
221 2 7.2036 15.6187 3.13065 7.2036 15.6187 3.13065
222 2 7.1202 16.0011 -0.137258 7.1202 16.0011 -0.137258
223 1 7.8662 14.1315 1.26625 7.8662 14.1315 1.26625
224 2 9.95366 13.835 2.61711 9.95366 13.835 2.61711
225 2 9.5522 14.4122 -0.610103 9.5522 14.4122 -0.610103
226 1 10.826 15.8716 1.12158 10.826 15.8716 1.12158
227 2 13.034 15.4535 2.43948 13.034 15.4535 2.43948
228 2 12.6087 16.0932 -0.79382 12.6087 16.0932 -0.79382
229 1 13.6786 14.1456 0.34419 13.6786 14.1456 0.34419
230 2 15.9316 13.6786 1.45589 15.9316 13.6786 1.45589
231 2 15.1829 14.5177 -1.7071 15.1829 14.5177 -1.7071
232 1 16.5656 15.7267 -0.113464 16.5656 15.7267 -0.113464
233 2 18.8632 15.4051 0.97459 18.8632 15.4051 0.97459
234 2 17.9801 16.174 -2.10735 17.9801 16.174 -2.10735
235 1 19.1743 14.124 -1.10354 19.1743 14.124 -1.10354
236 2 21.3747 13.8877 -0.0522746 21.3747 13.8877 -0.0522746
237 2 20.6562 14.5707 -3.05717 20.6562 14.5707 -3.05717
238 1 22.2012 15.856 -1.52157 22.2012 15.856 -1.52157
239 2 24.3551 15.7476 -0.185441 24.3551 15.7476 -0.185441
240 2 23.8622 16.2161 -3.33719 23.8622 16.2161 -3.33719
241 1 24.9656 14.2082 -2.16582 24.9656 14.2082 -2.16582
242 2 26.793 14.1737 -0.385566 26.793 14.1737 -0.385566
243 2 26.9757 14.2926 -3.72625 26.9757 14.2926 -3.72625
244 1 27.8731 15.9427 -1.93589 27.8731 15.9427 -1.93589
245 2 29.8241 15.9599 -0.224858 29.8241 15.9599 -0.224858
246 2 29.761 15.7791 -3.48129 29.761 15.7791 -3.48129
247 1 30.7414 14.1301 -1.75144 30.7414 14.1301 -1.75144
248 2 32.6528 14.4166 -0.102799 32.6528 14.4166 -0.102799
249 2 32.7355 13.7441 -3.21756 32.7355 13.7441 -3.21756
250 1 33.6801 15.8236 -1.92825 33.6801 15.8236 -1.92825
251 2 35.5424 16.0831 -0.177751 35.5424 16.0831 -0.177751
252 2 35.8428 15.5639 -3.37806 35.8428 15.5639 -3.37806
253 1 36.5151 14.1983 -1.40916 36.5151 14.1983 -1.40916
254 2 37.9635 14.7131 0.548179 37.9635 14.7131 0.548179
255 2 38.8284 13.826 -2.43349 38.8284 13.826 -2.43349
256 1 39.4472 15.7958 -1.25687 39.4472 15.7958 -1.25687
257 2 40.8897 16.3939 0.702614 40.8897 16.3939 0.702614
258 2 41.8061 15.3949 -2.17746 41.8061 15.3949 -2.17746
259 1 42.0517 14.3038 -0.014966 42.0517 14.3038 -0.014966
260 2 43.6113 14.7784 1.93267 43.6113 14.7784 1.93267
261 2 44.4136 13.8362 -0.986343 44.4136 13.8362 -0.986343
262 1 45.1254 15.8674 0.224867 45.1254 15.8674 0.224867
263 2 46.6881 16.3186 2.16984 46.6881 16.3186 2.16984
264 2 47.3141 15.5337 -0.844809 47.3141 15.5337 -0.844809
265 1 47.7381 14.2755 1.24367 47.7381 14.2755 1.24367
266 2 49.5889 14.5068 3.04202 49.5889 14.5068 3.04202
267 2 49.8984 13.9301 -0.202447 49.8984 13.9301 -0.202447
268 1 50.8355 15.87 1.17233 50.8355 15.87 1.17233
269 2 52.3947 16.0428 2.99691 52.3947 16.0428 2.99691
270 2 52.8416 15.7426 -0.193369 52.8416 15.7426 -0.193369
271 1 2.42182 17.5957 1.4353 2.42182 17.5957 1.4353
272 2 4.20188 17.7023 3.17999 4.20188 17.7023 3.17999
273 2 4.41291 17.7041 -0.0108526 4.41291 17.7041 -0.0108526
274 1 5.44832 19.2286 1.62635 5.44832 19.2286 1.62635
275 2 7.29527 19.2483 3.34106 7.29527 19.2483 3.34106
276 2 7.32783 19.1451 -0.0492438 7.32783 19.1451 -0.0492438
277 1 8.17252 17.4372 1.65247 8.17252 17.4372 1.65247
278 2 10.2133 17.2847 3.09452 10.2133 17.2847 3.09452
279 2 9.96772 17.8331 -0.186987 9.96772 17.8331 -0.186987
280 1 11.1995 19.0773 1.56335 11.1995 19.0773 1.56335
281 2 13.3374 18.7397 2.86504 13.3374 18.7397 2.86504
282 2 12.9031 19.2561 -0.216357 12.9031 19.2561 -0.216357
283 1 13.9043 17.3465 0.950589 13.9043 17.3465 0.950589
284 2 16.1733 16.8276 2.06765 16.1733 16.8276 2.06765
285 2 15.5051 17.7104 -1.01517 15.5051 17.7104 -1.01517
286 1 16.951 18.9691 0.681617 16.951 18.9691 0.681617
287 2 19.1573 18.4685 1.75404 19.1573 18.4685 1.75404
288 2 18.384 19.5344 -1.30109 18.384 19.5344 -1.30109
289 1 19.521 17.4204 -0.468049 19.521 17.4204 -0.468049
290 2 21.6517 17.0606 0.670756 21.6517 17.0606 0.670756
291 2 21.0397 17.9368 -2.40729 21.0397 17.9368 -2.40729
292 1 22.4263 19.1762 -0.63449 22.4263 19.1762 -0.63449
293 2 24.6497 18.8008 0.519588 24.6497 18.8008 0.519588
294 2 23.8798 19.6075 -2.5469 23.8798 19.6075 -2.5469
295 1 25.0898 17.6265 -1.65091 25.0898 17.6265 -1.65091
296 2 27.1203 17.4841 -0.138835 27.1203 17.4841 -0.138835
297 2 27.042 17.7602 -3.37659 27.042 17.7602 -3.37659
298 1 28.1152 19.2339 -1.65685 28.1152 19.2339 -1.65685
299 2 30.1801 19.1176 -0.153693 30.1801 19.1176 -0.153693
300 2 29.7994 19.15 -3.40849 29.7994 19.15 -3.40849
301 1 30.9024 17.497 -1.90669 30.9024 17.497 -1.90669
302 2 32.8705 17.4822 -0.326159 32.8705 17.4822 -0.326159
303 2 32.9067 17.4387 -3.59169 32.9067 17.4387 -3.59169
304 1 33.9132 19.0895 -2.03089 33.9132 19.0895 -2.03089
305 2 35.7119 19.4193 -0.422407 35.7119 19.4193 -0.422407
306 2 35.8815 19.0862 -3.73826 35.8815 19.0862 -3.73826
307 1 36.7226 17.5189 -1.99033 36.7226 17.5189 -1.99033
308 2 38.2215 17.6276 -0.0876372 38.2215 17.6276 -0.0876372
309 2 38.8945 17.2859 -3.34013 38.8945 17.2859 -3.34013
310 1 39.6616 19.0871 -1.78306 39.6616 19.0871 -1.78306
311 2 41.2886 19.4441 0.220551 41.2886 19.4441 0.220551
312 2 41.785 18.7217 -2.97021 41.785 18.7217 -2.97021
313 1 42.3838 17.4632 -0.905924 42.3838 17.4632 -0.905924
314 2 43.9587 17.8999 1.1324 43.9587 17.8999 1.1324
315 2 44.6837 17.1393 -1.94059 44.6837 17.1393 -1.94059
316 1 45.4451 19.0805 -0.539567 45.4451 19.0805 -0.539567
317 2 46.8654 19.6057 1.42622 46.8654 19.6057 1.42622
318 2 47.6062 18.6032 -1.62639 47.6062 18.6032 -1.62639
319 1 48.028 17.494 0.533622 48.028 17.494 0.533622
320 2 49.761 17.8296 2.27028 49.761 17.8296 2.27028
321 2 50.2426 17.2121 -0.882745 50.2426 17.2121 -0.882745
322 1 51.0918 19.1058 0.564982 51.0918 19.1058 0.564982
323 2 52.5817 19.4775 2.58564 52.5817 19.4775 2.58564
324 2 53.2743 19.0408 -0.589797 53.2743 19.0408 -0.589797
325 1 2.55751 20.8868 0.977224 2.55751 20.8868 0.977224
326 2 4.29045 20.9504 2.94023 4.29045 20.9504 2.94023
327 2 4.76313 20.7896 -0.343801 4.76313 20.7896 -0.343801
328 1 5.53365 22.5325 1.26583 5.53365 22.5325 1.26583
329 2 7.38152 22.6696 2.96897 7.38152 22.6696 2.96897
330 2 7.59466 22.3574 -0.238727 7.59466 22.3574 -0.238727
331 1 8.36983 20.7899 1.54689 8.36983 20.7899 1.54689
332 2 10.3322 20.752 3.17937 10.3322 20.752 3.17937
333 2 10.3202 20.8302 -0.0759681 10.3202 20.8302 -0.0759681
334 1 11.4581 22.4102 1.56459 11.4581 22.4102 1.56459
335 2 13.3279 22.3168 3.12739 13.3279 22.3168 3.12739
336 2 13.3768 22.4936 -0.0561534 13.3768 22.4936 -0.0561534
337 1 14.2374 20.6541 1.5045 14.2374 20.6541 1.5045
338 2 16.3427 20.2854 2.74829 16.3427 20.2854 2.74829
339 2 15.8611 20.9652 -0.35478 15.8611 20.9652 -0.35478
340 1 17.1858 22.3189 1.3197 17.1858 22.3189 1.3197
341 2 19.3623 21.9797 2.5326 19.3623 21.9797 2.5326
342 2 18.8466 22.6852 -0.518567 18.8466 22.6852 -0.518567
343 1 19.8917 20.6002 0.516018 19.8917 20.6002 0.516018
344 2 22.0932 20.3202 1.56915 22.0932 20.3202 1.56915
345 2 21.2305 21.2148 -1.46179 21.2305 21.2148 -1.46179
346 1 22.7903 22.4171 0.164852 22.7903 22.4171 0.164852
347 2 24.9599 22.0333 1.35432 24.9599 22.0333 1.35432
348 2 24.3471 22.8546 -1.71157 24.3471 22.8546 -1.71157
349 1 25.3852 20.8341 -0.800292 25.3852 20.8341 -0.800292
350 2 27.6162 20.4084 0.417072 27.6162 20.4084 0.417072
351 2 26.9691 21.1969 -2.69384 26.9691 21.1969 -2.69384
352 1 28.4753 22.4981 -0.825853 28.4753 22.4981 -0.825853
353 2 30.7921 22.2126 0.290892 30.7921 22.2126 0.290892
354 2 29.9313 22.8257 -2.89196 29.9313 22.8257 -2.89196
355 1 31.0905 20.8129 -1.77516 31.0905 20.8129 -1.77516
356 2 33.1066 20.8027 -0.225697 33.1066 20.8027 -0.225697
357 2 33.0212 20.9865 -3.5521 33.0212 20.9865 -3.5521
358 1 34.1461 22.4953 -2.03872 34.1461 22.4953 -2.03872
359 2 36.148 22.4062 -0.480434 36.148 22.4062 -0.480434
360 2 35.9872 22.6876 -3.75889 35.9872 22.6876 -3.75889
361 1 36.9197 20.8233 -2.21678 36.9197 20.8233 -2.21678
362 2 38.7388 20.9298 -0.456772 38.7388 20.9298 -0.456772
363 2 39.036 20.5655 -3.69322 39.036 20.5655 -3.69322
364 1 39.9472 22.4344 -2.19957 39.9472 22.4344 -2.19957
365 2 41.6772 22.533 -0.35531 41.6772 22.533 -0.35531
366 2 41.9899 22.0667 -3.55472 41.9899 22.0667 -3.55472
367 1 42.7005 20.6716 -1.60317 42.7005 20.6716 -1.60317
368 2 44.1879 21.0202 0.388712 44.1879 21.0202 0.388712
369 2 44.9791 20.4351 -2.68286 44.9791 20.4351 -2.68286
370 1 45.7054 22.4186 -1.20131 45.7054 22.4186 -1.20131
371 2 47.2496 22.6771 0.820384 47.2496 22.6771 0.820384
372 2 47.9139 22.1257 -2.37881 47.9139 22.1257 -2.37881
373 1 48.3164 20.6736 -0.368508 48.3164 20.6736 -0.368508
374 2 49.8791 20.9939 1.53283 49.8791 20.9939 1.53283
375 2 50.4876 20.4606 -1.51745 50.4876 20.4606 -1.51745
376 1 51.2553 22.3837 -0.0658612 51.2553 22.3837 -0.0658612
377 2 52.8 22.7814 1.91543 52.8 22.7814 1.91543
378 2 53.4962 22.1983 -1.17245 53.4962 22.1983 -1.17245
379 1 2.75637 24.1391 0.309065 2.75637 24.1391 0.309065
380 2 4.43197 24.5612 2.20527 4.43197 24.5612 2.20527
381 2 4.98579 23.8215 -0.799064 4.98579 23.8215 -0.799064
382 1 5.83566 25.8146 0.4448 5.83566 25.8146 0.4448
383 2 7.48441 26.1238 2.35909 7.48441 26.1238 2.35909
384 2 8.07769 25.4969 -0.79852 8.07769 25.4969 -0.79852
385 1 8.59418 24.1293 1.25882 8.59418 24.1293 1.25882
386 2 10.3522 24.0958 3.00087 10.3522 24.0958 3.00087
387 2 10.7176 24.0038 -0.135462 10.7176 24.0038 -0.135462
388 1 11.5549 25.7279 1.48424 11.5549 25.7279 1.48424
389 2 13.4058 25.7343 3.20977 13.4058 25.7343 3.20977
390 2 13.5648 25.6373 -0.0380911 13.5648 25.6373 -0.0380911
391 1 14.4626 23.9644 1.63778 14.4626 23.9644 1.63778
392 2 16.2995 23.7393 3.21754 16.2995 23.7393 3.21754
393 2 16.3367 24.2653 0.00797289 16.3367 24.2653 0.00797289
394 1 17.461 25.5582 1.87228 17.461 25.5582 1.87228
395 2 19.7268 25.3979 3.21941 19.7268 25.3979 3.21941
396 2 19.2248 25.8027 0.0141525 19.2248 25.8027 0.0141525
397 1 20.3358 23.9704 1.19137 20.3358 23.9704 1.19137
398 2 22.5598 23.5667 2.39459 22.5598 23.5667 2.39459
399 2 21.7487 24.5108 -0.683649 21.7487 24.5108 -0.683649
400 1 23.2411 25.6193 1.08902 23.2411 25.6193 1.08902
401 2 25.4959 25.514 2.24363 25.4959 25.514 2.24363
402 2 24.6644 26.1189 -0.958558 24.6644 26.1189 -0.958558
403 1 25.7883 24.1302 0.11043 25.7883 24.1302 0.11043
404 2 28.0217 23.8441 1.19154 28.0217 23.8441 1.19154
405 2 27.3216 24.4772 -1.84119 27.3216 24.4772 -1.84119
406 1 28.8212 25.7712 -0.231178 28.8212 25.7712 -0.231178
407 2 31.0246 25.3924 0.863422 31.0246 25.3924 0.863422
408 2 30.3562 26.2085 -2.24044 30.3562 26.2085 -2.24044
409 1 31.4002 24.1277 -1.30597 31.4002 24.1277 -1.30597
410 2 33.4719 23.8342 0.0314521 33.4719 23.8342 0.0314521
411 2 33.1604 24.444 -3.10798 33.1604 24.444 -3.10798
412 1 34.3137 25.7874 -1.3208 34.3137 25.7874 -1.3208
413 2 36.5225 25.5894 -0.0888782 36.5225 25.5894 -0.0888782
414 2 36.0693 26.0664 -3.18777 36.0693 26.0664 -3.18777
415 1 37.1186 24.1058 -2.0284 37.1186 24.1058 -2.0284
416 2 39.0477 23.8996 -0.393347 39.0477 23.8996 -0.393347
417 2 39.1016 24.282 -3.68094 39.1016 24.282 -3.68094
418 1 40.1279 25.8048 -1.84749 40.1279 25.8048 -1.84749
419 2 42.0278 25.5249 -0.326348 42.0278 25.5249 -0.326348
420 2 41.9244 25.9289 -3.49966 41.9244 25.9289 -3.49966
421 1 42.8859 23.9858 -2.06334 42.8859 23.9858 -2.06334
422 2 44.5595 24.332 -0.0275556 44.5595 24.332 -0.0275556
423 2 45.1092 23.787 -3.30283 45.1092 23.787 -3.30283
424 1 45.8845 25.7867 -1.72288 45.8845 25.7867 -1.72288
425 2 47.5518 25.9985 0.0770539 47.5518 25.9985 0.0770539
426 2 47.9624 25.2579 -2.98786 47.9624 25.2579 -2.98786
427 1 48.6937 24.0652 -0.883631 48.6937 24.0652 -0.883631
428 2 50.2719 24.41 1.11345 50.2719 24.41 1.11345
429 2 50.8781 23.7351 -2.13108 50.8781 23.7351 -2.13108
430 1 51.5664 25.7033 -0.652393 51.5664 25.7033 -0.652393
431 2 53.1789 26.0909 1.26114 53.1789 26.0909 1.26114
432 2 53.7806 25.3232 -1.89577 53.7806 25.3232 -1.89577
433 1 3.18669 27.2819 -0.477583 3.18669 27.2819 -0.477583
434 2 4.75566 27.91 1.45551 4.75566 27.91 1.45551
435 2 5.41118 26.9544 -1.67488 5.41118 26.9544 -1.67488
436 1 6.1589 28.9887 -0.364112 6.1589 28.9887 -0.364112
437 2 7.58425 29.3025 1.64089 7.58425 29.3025 1.64089
438 2 8.40082 28.6404 -1.41758 8.40082 28.6404 -1.41758
439 1 8.87831 27.4612 0.692754 8.87831 27.4612 0.692754
440 2 10.4878 27.7198 2.59472 10.4878 27.7198 2.59472
441 2 11.0466 27.1175 -0.616401 11.0466 27.1175 -0.616401
442 1 11.8063 29.0056 0.874275 11.8063 29.0056 0.874275
443 2 13.4341 29.2835 2.88491 13.4341 29.2835 2.88491
444 2 14.0304 28.8448 -0.347569 14.0304 28.8448 -0.347569
445 1 14.6118 27.2901 1.66907 14.6118 27.2901 1.66907
446 2 16.4899 27.3124 3.4535 16.4899 27.3124 3.4535
447 2 16.6656 27.1863 0.133612 16.6656 27.1863 0.133612
448 1 17.6173 28.8959 1.76793 17.6173 28.8959 1.76793
449 2 19.5889 28.7319 3.40969 19.5889 28.7319 3.40969
450 2 19.6374 29.1718 0.231669 19.6374 29.1718 0.231669
451 1 20.4985 27.2754 1.61283 20.4985 27.2754 1.61283
452 2 22.4735 26.9601 2.95998 22.4735 26.9601 2.95998
453 2 22.1391 27.5887 -0.1734 22.1391 27.5887 -0.1734
454 1 23.3547 28.8794 1.61776 23.3547 28.8794 1.61776
455 2 25.47 28.572 3.00023 25.47 28.572 3.00023
456 2 25.0608 29.3702 -0.214362 25.0608 29.3702 -0.214362
457 1 26.1273 27.4037 0.811337 26.1273 27.4037 0.811337
458 2 28.2775 26.9349 1.97204 28.2775 26.9349 1.97204
459 2 27.8089 27.8 -1.17734 27.8089 27.8 -1.17734
460 1 29.0545 28.9841 0.673086 29.0545 28.9841 0.673086
461 2 31.2881 28.5025 1.6902 31.2881 28.5025 1.6902
462 2 30.5745 29.5537 -1.28209 30.5745 29.5537 -1.28209
463 1 31.762 27.4266 -0.524557 31.762 27.4266 -0.524557
464 2 33.9023 27.247 0.679589 33.9023 27.247 0.679589
465 2 33.2673 27.7122 -2.51771 33.2673 27.7122 -2.51771
466 1 34.6372 29.0458 -0.825508 34.6372 29.0458 -0.825508
467 2 36.6789 28.6882 0.555479 36.6789 28.6882 0.555479
468 2 36.3902 29.4534 -2.54263 36.3902 29.4534 -2.54263
469 1 37.351 27.4702 -1.50068 37.351 27.4702 -1.50068
470 2 39.3753 27.2492 0.0196286 39.3753 27.2492 0.0196286
471 2 39.1675 27.7733 -3.22622 39.1675 27.7733 -3.22622
472 1 40.3026 29.0915 -1.41578 40.3026 29.0915 -1.41578
473 2 42.3423 28.9674 0.0836482 42.3423 28.9674 0.0836482
474 2 42.0812 29.129 -3.24289 42.0812 29.129 -3.24289
475 1 43.0615 27.3655 -1.73968 43.0615 27.3655 -1.73968
476 2 44.9982 27.4961 -0.17538 44.9982 27.4961 -0.17538
477 2 44.9385 27.2235 -3.45251 44.9385 27.2235 -3.45251
478 1 46.0587 28.9642 -1.93678 46.0587 28.9642 -1.93678
479 2 47.9386 29.1303 -0.2053 47.9386 29.1303 -0.2053
480 2 48.0616 28.9263 -3.44393 48.0616 28.9263 -3.44393
481 1 48.9164 27.3208 -1.73832 48.9164 27.3208 -1.73832
482 2 50.3368 27.638 0.227731 50.3368 27.638 0.227731
483 2 51.1513 27.0311 -2.74683 51.1513 27.0311 -2.74683
484 1 51.8564 28.9677 -1.3027 51.8564 28.9677 -1.3027
485 2 53.4643 29.3391 0.534726 53.4643 29.3391 0.534726
486 2 53.9496 28.5935 -2.50437 53.9496 28.5935 -2.50437
487 1 3.43582 30.6067 -1.19686 3.43582 30.6067 -1.19686
488 2 5.14877 31.0528 0.609743 5.14877 31.0528 0.609743
489 2 5.6013 30.085 -2.42472 5.6013 30.085 -2.42472
490 1 6.49527 32.1951 -1.26563 6.49527 32.1951 -1.26563
491 2 7.93493 32.6121 0.850755 7.93493 32.6121 0.850755
492 2 8.74083 31.8494 -2.27021 8.74083 31.8494 -2.27021
493 1 9.04568 30.6597 -0.000486373 9.04568 30.6597 -0.000486373
494 2 10.6117 31.0606 1.92266 10.6117 31.0606 1.92266
495 2 11.2889 30.2619 -1.21437 11.2889 30.2619 -1.21437
496 1 12.0749 32.2555 0.258416 12.0749 32.2555 0.258416
497 2 13.6271 32.6688 2.19382 13.6271 32.6688 2.19382
498 2 14.3223 31.8684 -0.945344 14.3223 31.8684 -0.945344
499 1 14.8243 30.6242 1.23253 14.8243 30.6242 1.23253
500 2 16.4962 30.8192 3.10659 16.4962 30.8192 3.10659
501 2 16.9363 30.3833 -0.0248399 16.9363 30.3833 -0.0248399
502 1 17.7001 32.284 1.48609 17.7001 32.284 1.48609
503 2 19.3704 32.4925 3.33941 19.3704 32.4925 3.33941
504 2 19.8051 32.0627 0.11711 19.8051 32.0627 0.11711
505 1 20.569 30.5708 2.08795 20.569 30.5708 2.08795
506 2 22.6796 30.2903 3.50121 22.6796 30.2903 3.50121
507 2 22.2541 30.8419 0.326098 22.2541 30.8419 0.326098
508 1 23.573 32.2701 2.05279 23.573 32.2701 2.05279
509 2 25.7641 32.2088 3.40318 25.7641 32.2088 3.40318
510 2 25.3713 32.4271 0.165756 25.3713 32.4271 0.165756
511 1 26.3179 30.6006 1.53239 26.3179 30.6006 1.53239
512 2 28.4508 30.0994 2.78459 28.4508 30.0994 2.78459
513 2 28.0636 30.9987 -0.326152 28.0636 30.9987 -0.326152
514 1 29.4197 32.1943 1.51026 29.4197 32.1943 1.51026
515 2 31.6417 31.9061 2.62391 31.6417 31.9061 2.62391
516 2 30.9023 32.5065 -0.508401 30.9023 32.5065 -0.508401
517 1 32.0837 30.5738 0.467337 32.0837 30.5738 0.467337
518 2 34.3545 30.209 1.44743 34.3545 30.209 1.44743
519 2 33.5349 31.1263 -1.56417 33.5349 31.1263 -1.56417
520 1 35.0034 32.2766 0.1336 35.0034 32.2766 0.1336
521 2 37.1333 31.8855 1.42675 37.1333 31.8855 1.42675
522 2 36.6905 32.7152 -1.76518 36.6905 32.7152 -1.76518
523 1 37.6859 30.6828 -0.752021 37.6859 30.6828 -0.752021
524 2 39.7424 30.4594 0.711312 39.7424 30.4594 0.711312
525 2 39.4638 31.0998 -2.58121 39.4638 31.0998 -2.58121
526 1 40.6564 32.3689 -0.794513 40.6564 32.3689 -0.794513
527 2 42.821 32.1836 0.508545 42.821 32.1836 0.508545
528 2 42.2452 32.5178 -2.72198 42.2452 32.5178 -2.72198
529 1 43.3068 30.6893 -1.51855 43.3068 30.6893 -1.51855
530 2 45.4585 30.7313 -0.292838 45.4585 30.7313 -0.292838
531 2 44.9112 30.7412 -3.40468 44.9112 30.7412 -3.40468
532 1 46.3049 32.3256 -1.97657 46.3049 32.3256 -1.97657
533 2 48.1315 32.4034 -0.282352 48.1315 32.4034 -0.282352
534 2 48.2716 32.3469 -3.51201 48.2716 32.3469 -3.51201
535 1 49.1316 30.6891 -1.80729 49.1316 30.6891 -1.80729
536 2 50.9248 30.9184 0.0329111 50.9248 30.9184 0.0329111
537 2 51.1496 30.3615 -3.19176 51.1496 30.3615 -3.19176