ITEM: TIMESTEP
4197000
ITEM: NUMBER OF ATOMS
810
ITEM: BOX BOUNDS xy xz yz pp pp pp
8.0341777045796159e-01 7.2949287351498498e+01 2.0735100121955998e+01
8.0582000660415243e-01 5.0210394993394715e+01 0.0000000000000000e+00
-1.0000000000000000e+01 1.0000000000000000e+01 0.0000000000000000e+00
ITEM: ATOMS id type x y z xu yu zu
1 1 19.9631 46.3255 -9.14923 -0.771985 -3.07904 -9.14923
2 2 21.9918 47.6025 -8.11963 1.25674 -1.80209 -8.11963
3 2 21.9149 44.9973 9.92729 1.17983 -4.40727 -10.0727
4 1 23.0354 47.3362 9.53688 2.30032 -2.06838 -10.4631
5 2 24.7617 48.7038 -9.26414 4.02662 -0.700766 -9.26414
6 2 25.0135 46.0165 8.8796 4.27837 -3.3881 -11.1204
7 1 25.7164 46.5625 -8.73059 4.98132 -2.84212 -8.73059
8 2 27.5571 47.9459 -7.56852 6.82198 -1.45869 -7.56852
9 2 27.8565 45.4309 -9.63934 7.1214 -3.97366 -9.63934
10 1 28.752 47.7061 -9.75219 8.01692 -1.69843 -9.75219
11 2 30.4294 49.2452 -8.43841 9.6943 -0.159356 -8.43841
12 2 31.0178 46.6637 9.37014 10.2827 -2.74085 -10.6299
13 1 31.5523 46.9259 -8.15114 10.8172 -2.47865 -8.15114
14 2 33.0717 48.4084 -6.83991 12.3366 -0.996168 -6.83991
15 2 33.6608 45.8844 -8.88596 12.9257 -3.52016 -8.88596
16 1 34.4662 48.2856 -9.02963 13.7311 -1.119 -9.02963
17 2 35.8352 49.7995 -7.45235 15.1001 0.39488 -7.45235
18 2 36.8116 47.7622 -9.91818 16.0765 -1.64237 -9.91818
19 1 37.103 47.685 -7.34828 16.3679 -1.71957 -7.34828
20 2 38.7278 49.0049 -5.73537 17.9927 -0.399666 -5.73537
21 2 39.4794 46.9023 -8.03183 18.7443 -2.50224 -8.03183
22 1 40.0689 49.1996 -7.90445 19.3338 -0.205011 -7.90445
23 2 20.7137 1.28516 -6.32086 20.7137 1.28516 -6.32086
24 2 42.37 48.8187 -8.60267 21.6349 -0.585847 -8.60267
25 1 42.7328 48.4652 -6.18743 21.9977 -0.939329 -6.18743
26 2 44.6972 49.7137 -5.32685 23.9621 0.309147 -5.32685
27 2 44.7016 47.4063 -7.17365 23.9665 -1.99823 -7.17365
28 1 32.6544 4.78617 4.27304 32.6544 4.78617 4.27304
29 2 34.6492 3.98688 3.07212 34.6492 3.98688 3.07212
30 2 31.8594 5.06284 1.9483 31.8594 5.06284 1.9483
31 1 32.8271 2.74736 1.90639 32.8271 2.74736 1.90639
32 2 34.794 1.64737 0.730656 34.794 1.64737 0.730656
33 2 32.0581 2.89488 -0.47408 32.0581 2.89488 -0.47408
34 1 34.4834 3.52001 -0.907773 34.4834 3.52001 -0.907773
35 2 36.7051 2.72063 -1.53382 36.7051 2.72063 -1.53382
36 2 34.0574 3.32287 -3.38638 34.0574 3.32287 -3.38638
37 1 35.3093 1.06075 -2.94462 35.3093 1.06075 -2.94462
38 2 58.5816 50.1157 -3.00164 37.8465 0.711078 -3.00164
39 2 56.3164 49.7979 -5.37858 35.5813 0.393343 -5.37858
40 1 37.7586 1.66119 -5.26566 37.7586 1.66119 -5.26566
41 2 40.2354 1.26205 -4.95669 40.2354 1.26205 -4.95669
42 2 38.3874 0.96991 -7.59643 38.3874 0.96991 -7.59643
43 1 60.4428 48.6038 -6.3324 39.7077 -0.800742 -6.3324
44 2 62.8921 48.6428 -5.57114 42.157 -0.761773 -5.57114
45 2 61.5951 47.6105 -8.3452 40.86 -1.7941 -8.3452
46 1 63.32 49.3722 -7.95682 42.5849 -0.0323605 -7.95682
47 2 65.649 49.5748 -7.28943 44.9139 0.170212 -7.28943
48 2 64.3829 48.3179 -9.89846 43.6478 -1.08664 -9.89846
49 1 65.7399 47.21 -8.11706 45.0048 -2.19459 -8.11706
50 2 68.0278 47.7882 -7.4076 47.2927 -1.61641 -7.4076
51 2 67.0192 46.0008 -9.90633 46.2841 -3.40378 -9.90633
52 1 68.5989 47.9836 -9.83324 47.8638 -1.42096 -9.83324
53 2 70.8393 48.6945 -8.94442 50.1042 -0.710118 -8.94442
54 2 70.1524 46.6701 8.74676 49.4173 -2.73449 -11.2532
55 1 71.5968 48.7515 8.63583 -0.549115 -0.653052 -11.3642
56 2 22.1708 49.601 9.74172 1.43571 0.196432 -10.2583
57 2 21.7866 47.5536 7.24843 1.05147 -1.85099 -12.7516
58 1 23.0001 49.7719 7.3869 2.26503 0.367375 -12.6131
59 2 4.25325 1.42956 8.52071 4.25325 1.42956 -11.4793
60 2 24.9153 48.5067 6.32037 4.18015 -0.8979 -13.6796
61 1 25.9329 48.4594 8.55403 5.19783 -0.945168 -11.446
62 2 27.5217 50.0006 9.82681 6.78656 0.596049 -10.1732
63 2 28.2158 47.4773 7.83841 7.48065 -1.92723 -12.1616
64 1 28.7289 49.9291 7.64618 7.99383 0.524547 -12.3538
65 2 9.63699 1.98601 9.07753 9.63699 1.98601 -10.9225
66 2 31.052 48.9017 6.96408 10.3169 -0.502845 -13.0359
67 1 31.5929 49.1747 9.34197 10.8578 -0.229859 -10.658
68 2 12.5183 1.07381 -9.24412 12.5183 1.07381 -9.24412
69 2 33.7331 48.1216 8.55915 12.998 -1.283 -11.4408
70 1 13.7071 1.11704 8.57264 13.7071 1.11704 -11.4274
71 2 15.0303 2.66538 -9.89435 15.0303 2.66538 -9.89435
72 2 16.2243 1.3519 7.98145 16.2243 1.3519 -12.0186
73 1 37.3342 50.1736 -9.5546 16.5991 0.768984 -9.5546
74 2 18.5845 2.04558 -8.71289 18.5845 2.04558 -8.71289
75 2 39.4597 49.0012 9.64643 18.7246 -0.403377 -10.3536
76 1 32.3774 8.99388 9.62437 32.3774 8.99388 9.62437
77 2 34.3568 8.05382 8.21732 34.3568 8.05382 8.21732
78 2 31.537 9.29127 7.14709 31.537 9.29127 7.14709
79 1 32.4333 6.90863 6.92353 32.4333 6.90863 6.92353
80 2 34.4263 5.98662 5.51243 34.4263 5.98662 5.51243
81 2 31.5232 7.08286 4.51126 31.5232 7.08286 4.51126
82 1 33.8017 7.91734 3.97065 33.8017 7.91734 3.97065
83 2 35.8188 7.06458 2.94109 35.8188 7.06458 2.94109
84 2 32.9311 8.01335 1.66814 32.9311 8.01335 1.66814
85 1 34.1037 5.80766 1.4951 34.1037 5.80766 1.4951
86 2 36.1924 4.81325 0.50243 36.1924 4.81325 0.50243
87 2 33.4032 5.8539 -0.925784 33.4032 5.8539 -0.925784
88 1 35.8101 6.60296 -1.16722 35.8101 6.60296 -1.16722
89 2 37.9947 5.70861 -1.95389 37.9947 5.70861 -1.95389
90 2 35.23 6.55606 -3.69051 35.23 6.55606 -3.69051
91 1 36.4528 4.35268 -3.60593 36.4528 4.35268 -3.60593
92 2 38.7798 3.58121 -3.93001 38.7798 3.58121 -3.93001
93 2 36.4644 3.7174 -5.94821 36.4644 3.7174 -5.94821
94 1 38.6645 4.9 -6.02143 38.6645 4.9 -6.02143
95 2 41.1718 4.30634 -5.72544 41.1718 4.30634 -5.72544
96 2 39.2925 4.39446 -8.50654 39.2925 4.39446 -8.50654
97 1 40.4593 2.40876 -7.32637 40.4593 2.40876 -7.32637
98 2 42.936 2.19141 -6.67661 42.936 2.19141 -6.67661
99 2 41.2853 1.46038 -9.53369 41.2853 1.46038 -9.53369
100 1 43.2001 3.08284 -8.98172 43.2001 3.08284 -8.98172
101 2 45.6491 2.94944 -8.69125 45.6491 2.94944 -8.69125
102 2 43.7785 2.00606 8.83344 43.7785 2.00606 -11.1666
103 1 66.0607 50.1154 -9.76787 45.3256 0.710834 -9.76787
104 2 47.7295 0.991055 -9.12262 47.7295 0.991055 -9.12262
105 2 67.0788 48.743 8.35088 46.3437 -0.66161 -11.6491
106 1 48.084 1.27039 8.3001 48.084 1.27039 -11.6999
107 2 50.4152 1.74822 9.17412 50.4152 1.74822 -10.8259
108 2 70.2156 49.4562 6.6746 49.4805 0.0515813 -13.3254
109 1 50.9809 2.04519 6.72601 -0.4299 2.04519 -13.274
110 2 1.67079 2.77525 7.89579 1.67079 2.77525 -12.1042
111 2 1.16401 0.813683 5.24453 1.16401 0.813683 -14.7555
112 1 2.3864 3.02342 5.45442 2.3864 3.02342 -14.5456
113 2 4.55234 3.89878 6.35656 4.55234 3.89878 -13.6434
114 2 4.00049 1.69461 3.95678 4.00049 1.69461 -16.0432
115 1 5.18215 1.45114 6.17959 5.18215 1.45114 -13.8204
116 2 6.88303 2.77151 7.53739 6.88303 2.77151 -12.4626
117 2 28.109 49.9586 5.24816 7.37392 0.554045 -14.7518
118 1 8.13433 2.87586 5.40254 8.13433 2.87586 -14.5975
119 2 10.059 4.15841 6.40896 10.059 4.15841 -13.591
120 2 10.2323 1.7699 4.49101 10.2323 1.7699 -15.509
121 1 10.9821 1.88083 6.90607 10.9821 1.88083 -13.0939
122 2 12.2583 3.18843 8.63062 12.2583 3.18843 -11.3694
123 2 13.3111 1.85331 6.19094 13.3111 1.85331 -13.8091
124 1 30.7686 13.7566 -6.40687 30.7686 13.7566 13.5931
125 2 33.1517 12.9773 -6.67753 33.1517 12.9773 13.3225
126 2 30.8826 13.5075 -8.90286 30.8826 13.5075 11.0971
127 1 31.9058 11.3508 -8.15617 31.9058 11.3508 11.8438
128 2 34.0517 10.6475 -9.06172 34.0517 10.6475 10.9383
129 2 31.375 11.2562 9.45518 31.375 11.2562 9.45518
130 1 33.6651 12.1639 9.04366 33.6651 12.1639 9.04366
131 2 35.6867 10.9313 8.00238 35.6867 10.9313 8.00238
132 2 32.9429 12.3065 6.69023 32.9429 12.3065 6.69023
133 1 33.8658 9.90897 6.57448 33.8658 9.90897 6.57448
134 2 35.7471 8.87559 5.2186 35.7471 8.87559 5.2186
135 2 32.8889 10.234 4.19915 32.8889 10.234 4.19915
136 1 35.2384 10.8218 3.76389 35.2384 10.8218 3.76389
137 2 37.2194 9.96446 2.63371 37.2194 9.96446 2.63371
138 2 34.3983 11.1608 1.38928 34.3983 11.1608 1.38928
139 1 35.2733 8.88129 1.22138 35.2733 8.88129 1.22138
140 2 37.4202 7.99765 0.267817 37.4202 7.99765 0.267817
141 2 34.7106 8.84942 -1.36394 34.7106 8.84942 -1.36394
142 1 37.0956 9.7301 -1.46616 37.0956 9.7301 -1.46616
143 2 39.2637 8.83272 -2.33049 39.2637 8.83272 -2.33049
144 2 36.5406 9.63553 -3.9325 36.5406 9.63553 -3.9325
145 1 37.6955 7.41541 -3.82539 37.6955 7.41541 -3.82539
146 2 39.9522 6.55879 -4.36639 39.9522 6.55879 -4.36639
147 2 37.5817 7.20145 -6.34624 37.5817 7.20145 -6.34624
148 1 39.9104 8.20294 -6.21459 39.9104 8.20294 -6.21459
149 2 42.3054 7.3074 -6.27069 42.3054 7.3074 -6.27069
150 2 40.1017 7.93124 -8.63755 40.1017 7.93124 -8.63755
151 1 41.3645 5.70703 -7.94302 41.3645 5.70703 -7.94302
152 2 43.8308 5.08619 -7.61134 43.8308 5.08619 -7.61134
153 2 41.8314 4.76125 9.76179 41.8314 4.76125 -10.2382
154 1 43.8821 6.24905 -9.90142 43.8821 6.24905 -9.90142
155 2 46.2601 5.63988 -9.49663 46.2601 5.63988 -9.49663
156 2 44.4147 5.53289 7.78765 44.4147 5.53289 -12.2123
157 1 45.7342 3.63249 8.90646 45.7342 3.63249 -11.0935
158 2 48.1559 3.5683 9.36771 48.1559 3.5683 -10.6323
159 2 46.4677 2.52813 6.83709 46.4677 2.52813 -13.1629
160 1 48.3254 4.22848 7.00468 48.3254 4.22848 -12.9953
161 2 50.8047 4.41539 7.46121 50.8047 4.41539 -12.5388
162 2 49.3541 3.02107 5.00775 49.3541 3.02107 -14.9922
163 1 51.0524 4.95481 5.08513 -0.358339 4.95481 -14.9149
164 2 53.4614 5.45317 5.89966 2.05065 5.45317 -14.1003
165 2 52.3997 3.54468 3.52382 0.988944 3.54468 -16.4762
166 1 53.8024 5.69496 3.46298 2.39161 5.69496 -16.537
167 2 4.42982 6.33133 4.77873 4.42982 6.33133 -15.2213
168 2 4.03012 4.60287 1.98882 4.03012 4.60287 -18.0112
169 1 5.20729 3.94382 4.04902 5.20729 3.94382 -15.951
170 2 7.14205 5.12721 5.23535 7.14205 5.12721 -14.7646
171 2 7.36717 3.11345 2.98855 7.36717 3.11345 -17.0114
172 1 27.0879 18.2498 -4.06176 27.0879 18.2498 15.9382
173 2 29.5808 17.9883 -3.50604 29.5808 17.9883 16.494
174 2 28.0495 17.6522 -6.38205 28.0495 17.6522 13.618
175 1 29.1938 15.9642 -4.92024 29.1938 15.9642 15.0798
176 2 31.6304 15.3797 -4.74645 31.6304 15.3797 15.2535
177 2 29.6625 15.635 -7.34375 29.6625 15.635 12.6562
178 1 31.8553 16.8775 -6.75762 31.8553 16.8775 13.2424
179 2 34.1643 16.1005 -7.15362 34.1643 16.1005 12.8464
180 2 31.8435 16.4426 -9.35665 31.8435 16.4426 10.6433
181 1 33.0861 14.4294 -8.58411 33.0861 14.4294 11.4159
182 2 35.1672 13.2651 -9.35839 35.1672 13.2651 10.6416
183 2 32.7311 14.3911 8.90003 32.7311 14.3911 8.90003
184 1 35.0854 15.0739 8.92217 35.0854 15.0739 8.92217
185 2 37.1299 14.1906 7.81895 37.1299 14.1906 7.81895
186 2 34.4384 15.1923 6.40587 34.4384 15.1923 6.40587
187 1 35.447 12.8758 6.39314 35.447 12.8758 6.39314
188 2 37.2808 11.7832 5.09996 37.2808 11.7832 5.09996
189 2 34.5765 13.3386 4.07973 34.5765 13.3386 4.07973
190 1 36.9753 13.862 3.73487 36.9753 13.862 3.73487
191 2 38.7516 12.8773 2.37656 38.7516 12.8773 2.37656
192 2 35.932 14.2459 1.49481 35.932 14.2459 1.49481
193 1 36.7778 11.8892 1.05358 36.7778 11.8892 1.05358
194 2 38.8431 10.9982 -0.111487 38.8431 10.9982 -0.111487
195 2 35.9826 12.0308 -1.3086 35.9826 12.0308 -1.3086
196 1 38.3204 12.827 -1.79816 38.3204 12.827 -1.79816
197 2 40.4487 11.901 -2.63988 40.4487 11.901 -2.63988
198 2 37.7756 12.7864 -4.28525 37.7756 12.7864 -4.28525
199 1 38.8462 10.5576 -4.13762 38.8462 10.5576 -4.13762
200 2 41.1335 9.64597 -4.48721 41.1335 9.64597 -4.48721
201 2 38.7631 10.333 -6.67637 38.7631 10.333 -6.67637
202 1 41.1408 11.3396 -6.43234 41.1408 11.3396 -6.43234
203 2 43.5439 10.4345 -6.67267 43.5439 10.4345 -6.67267
204 2 41.4596 11.2309 -8.87526 41.4596 11.2309 -8.87526
205 1 42.4032 8.95023 -8.27775 42.4032 8.95023 -8.27775
206 2 44.717 7.89458 -8.19474 44.717 7.89458 -8.19474
207 2 42.7233 8.42775 9.3955 42.7233 8.42775 -10.6045
208 1 45.1977 9.36044 9.83155 45.1977 9.36044 -10.1685
209 2 47.5276 8.39473 -9.96314 47.5276 8.39473 -9.96314
210 2 46.5181 8.59025 6.46489 46.5181 8.59025 -13.5351
211 1 46.4939 6.81061 8.30572 46.4939 6.81061 -11.6943
212 2 48.9013 6.36947 8.27389 48.9013 6.36947 -11.7261
213 2 46.7963 5.84216 5.95725 46.7963 5.84216 -14.0427
214 1 48.8626 7.45422 6.06956 48.8626 7.45422 -13.9304
215 2 51.4379 7.25583 6.1666 51.4379 7.25583 -13.8334
216 2 49.2743 6.39838 3.83419 49.2743 6.39838 -16.1658
217 1 51.2819 8.00611 3.85978 -0.128869 8.00611 -16.1402
218 2 53.8914 8.16299 3.44411 2.48064 8.16299 -16.5559
219 2 51.9553 6.52939 1.97943 0.544524 6.52939 -18.0206
220 1 21.8335 22.3411 -4.25748 21.8335 22.3411 15.7425
221 2 24.1476 22.8302 -3.31393 24.1476 22.8302 16.6861
222 2 23.2563 21.2766 -5.99551 23.2563 21.2766 14.0045
223 1 24.4781 20.4155 -4.02267 24.4781 20.4155 15.9773
224 2 26.8358 20.6305 -3.08451 26.8358 20.6305 16.9155
225 2 25.8272 19.4491 -5.90984 25.8272 19.4491 14.0902
226 1 27.3649 21.3861 -5.39651 27.3649 21.3861 14.6035
227 2 29.5995 21.3338 -4.42693 29.5995 21.3338 15.5731
228 2 28.5718 20.5066 -7.38206 28.5718 20.5066 12.6179
229 1 29.917 19.1218 -5.68657 29.917 19.1218 14.3134
230 2 32.362 18.9067 -5.32876 32.362 18.9067 14.6712
231 2 30.5802 18.6047 -8.03686 30.5802 18.6047 11.9631
232 1 32.5252 19.9995 -7.50871 32.5252 19.9995 12.4913
233 2 34.9966 19.2586 -7.65509 34.9966 19.2586 12.3449
234 2 32.8537 19.5451 -10.0786 32.8537 19.5451 9.92144
235 1 34.0583 17.4858 -9.16973 34.0583 17.4858 10.8303
236 2 36.362 16.7271 -9.52268 36.362 16.7271 10.4773
237 2 33.8507 17.2275 8.39889 33.8507 17.2275 8.39889
238 1 36.2628 18.2506 8.56755 36.2628 18.2506 8.56755
239 2 38.3597 17.3307 7.77852 38.3597 17.3307 7.77852
240 2 35.8039 18.2728 6.07616 35.8039 18.2728 6.07616
241 1 36.8351 16.0137 6.20151 36.8351 16.0137 6.20151
242 2 38.8528 14.974 5.11975 38.8528 14.974 5.11975
243 2 36.0295 16.2653 3.80401 36.0295 16.2653 3.80401
244 1 38.4431 16.8653 3.44913 38.4431 16.8653 3.44913
245 2 40.2797 15.6647 2.17114 40.2797 15.6647 2.17114
246 2 37.5695 17.1524 1.15477 37.5695 17.1524 1.15477
247 1 38.3073 14.8455 0.856325 38.3073 14.8455 0.856325
248 2 40.235 13.8778 -0.202914 40.235 13.8778 -0.202914
249 2 37.4234 15.213 -1.48687 37.4234 15.213 -1.48687
250 1 39.8729 15.8243 -1.67708 39.8729 15.8243 -1.67708
251 2 41.7885 14.6619 -2.74771 41.7885 14.6619 -2.74771
252 2 39.199 16.0451 -4.22103 39.199 16.0451 -4.22103
253 1 40.1578 13.5851 -4.38632 40.1578 13.5851 -4.38632
254 2 42.474 12.5408 -4.80573 42.474 12.5408 -4.80573
255 2 40.1976 13.6067 -6.81215 40.1976 13.6067 -6.81215
256 1 42.6006 14.3657 -6.48172 42.6006 14.3657 -6.48172
257 2 44.8732 13.2698 -6.73621 44.8732 13.2698 -6.73621
258 2 42.6197 14.0946 -8.95964 42.6197 14.0946 -8.95964
259 1 43.7599 11.9158 -8.58204 43.7599 11.9158 -8.58204
260 2 45.9807 10.7783 -8.29139 45.9807 10.7783 -8.29139
261 2 45.6745 11.0022 8.0619 45.6745 11.0022 -11.9381
262 1 46.8044 12.3373 -10.1135 46.8044 12.3373 -10.1135
263 2 48.6796 10.7977 -9.70464 48.6796 10.7977 -9.70464
264 2 47.5953 11.1995 5.7959 47.5953 11.1995 -14.2041
265 1 47.9048 9.99191 8.10724 47.9048 9.99191 -11.8928
266 2 50.1524 8.91733 7.71821 50.1524 8.91733 -12.2818
267 2 48.8583 9.04355 4.11642 48.8583 9.04355 -15.8836
268 1 50.1194 10.6597 5.7513 50.1194 10.6597 -14.2487
269 2 52.3848 9.69957 5.59191 52.3848 9.69957 -14.4081
270 2 51.0536 10.5919 3.25842 51.0536 10.5919 -16.7416
271 1 19.016 23.932 -4.96533 19.016 23.932 15.0347
272 2 21.1499 24.7282 -3.99489 21.1499 24.7282 16.0051
273 2 20.7819 22.8377 -6.53369 20.7819 22.8377 13.4663
274 1 22.0541 24.884 -6.40192 22.0541 24.884 13.5981
275 2 23.9661 25.5392 -5.01298 23.9661 25.5392 14.987
276 2 23.8319 24.0677 -7.94975 23.8319 24.0677 12.0502
277 1 24.7 23.2788 -5.74025 24.7 23.2788 14.2598
278 2 26.8298 23.7594 -4.57553 26.8298 23.7594 15.4245
279 2 26.2742 22.3543 -7.44289 26.2742 22.3543 12.5571
280 1 27.5736 24.3553 -6.90107 27.5736 24.3553 13.0989
281 2 29.8728 24.7048 -5.7283 29.8728 24.7048 14.2717
282 2 29.062 23.4476 -8.68746 29.062 23.4476 11.3125
283 1 30.2315 22.3072 -6.69218 30.2315 22.3072 13.3078
284 2 32.6565 22.0864 -6.17638 32.6565 22.0864 13.8236
285 2 31.2285 21.6352 -8.92549 31.2285 21.6352 11.0745
286 1 33.1078 23.2603 -8.39024 33.1078 23.2603 11.6098
287 2 35.5815 22.7243 -8.15204 35.5815 22.7243 11.848
288 2 33.5921 22.4548 9.23895 33.5921 22.4548 9.23895
289 1 34.9446 20.731 -9.62351 34.9446 20.731 10.3765
290 2 37.3178 19.9321 -9.87307 37.3178 19.9321 10.1269
291 2 34.9808 20.239 7.86918 34.9808 20.239 7.86918
292 1 37.1835 21.4291 8.09921 37.1835 21.4291 8.09921
293 2 39.4296 20.4593 7.66122 39.4296 20.4593 7.66122
294 2 37.064 21.2848 5.57584 37.064 21.2848 5.57584
295 1 38.1679 19.0227 6.04561 38.1679 19.0227 6.04561
296 2 40.2185 17.9467 5.05172 40.2185 17.9467 5.05172
297 2 37.5048 19.215 3.58741 37.5048 19.215 3.58741
298 1 39.9185 19.8567 3.39082 39.9185 19.8567 3.39082
299 2 41.7234 18.5939 2.35021 41.7234 18.5939 2.35021
300 2 39.3888 20.1222 0.856238 39.3888 20.1222 0.856238
301 1 40.0156 17.7734 0.7848 40.0156 17.7734 0.7848
302 2 41.8566 16.5954 -0.46653 41.8566 16.5954 -0.46653
303 2 39.2315 18.2262 -1.49997 39.2315 18.2262 -1.49997
304 1 41.6486 18.6234 -1.86223 41.6486 18.6234 -1.86223
305 2 43.695 18.0471 -3.59796 43.695 18.0471 -3.59796
306 2 40.4413 18.889 -3.99777 40.4413 18.889 -3.99777
307 1 41.6676 16.6299 -4.29347 41.6676 16.6299 -4.29347
308 2 43.8954 15.3608 -4.535 43.8954 15.3608 -4.535
309 2 41.7394 16.6871 -6.69774 41.7394 16.6871 -6.69774
310 1 44.1154 17.2962 -6.17438 44.1154 17.2962 -6.17438
311 2 46.2474 16.1 -6.78243 46.2474 16.1 -6.78243
312 2 43.7985 17.1713 -8.60849 43.7985 17.1713 -8.60849
313 1 45.047 14.8913 -8.59359 45.047 14.8913 -8.59359
314 2 47.4712 14.138 -8.47483 47.4712 14.138 -8.47483
315 2 46.2472 13.9644 8.07522 46.2472 13.9644 -11.9248
316 1 47.6929 15.4921 9.46871 47.6929 15.4921 -10.5313
317 2 49.1832 13.4468 9.48226 49.1832 13.4468 -10.5177
318 2 49.0155 15.7182 7.34453 49.0155 15.7182 -12.6555
319 1 48.3953 13.2625 7.09076 48.3953 13.2625 -12.9092
320 2 49.9956 11.5684 8.05728 49.9956 11.5684 -11.9427
321 2 50.4929 13.154 5.62599 50.4929 13.154 -14.374
322 1 16.1375 25.0248 -6.16508 67.5483 25.0248 13.8349
323 2 18.1136 26.2831 -5.06009 69.5244 26.2831 14.9399
324 2 18.1911 24.064 -7.37813 69.6019 24.064 12.6219
325 1 19.17 26.3703 -7.25447 19.17 26.3703 12.7455
326 2 21.1546 27.1781 -5.95408 21.1546 27.1781 14.0459
327 2 21.0907 25.587 -8.73054 21.0907 25.587 11.2695
328 1 22.1587 27.8176 -8.19379 22.1587 27.8176 11.8062
329 2 24.1432 28.4958 -6.82379 24.1432 28.4958 13.1762
330 2 23.9113 26.8323 -9.62916 23.9113 26.8323 10.3708
331 1 24.8916 26.1688 -7.35956 24.8916 26.1688 12.6404
332 2 27.0623 26.5818 -6.10143 27.0623 26.5818 13.8986
333 2 26.5395 25.1565 -8.97555 26.5395 25.1565 11.0244
334 1 27.8388 27.3151 -8.38534 27.8388 27.3151 11.6147
335 2 29.9692 27.7279 -7.26209 29.9692 27.7279 12.7379
336 2 29.3091 26.1982 10.0116 29.3091 26.1982 10.0116
337 1 30.5238 25.3607 -7.97282 30.5238 25.3607 12.0272
338 2 33.0119 25.4978 -7.27058 33.0119 25.4978 12.7294
339 2 31.6584 24.434 9.93752 31.6584 24.434 9.93752
340 1 33.2695 26.2238 -9.57771 33.2695 26.2238 10.4223
341 2 35.6781 26.1531 -9.10159 35.6781 26.1531 10.8984
342 2 34.1194 25.2041 8.20045 34.1194 25.2041 8.20045
343 1 35.5915 23.9203 9.67139 35.5915 23.9203 9.67139
344 2 38.0522 23.3113 9.52486 38.0522 23.3113 9.52486
345 2 35.8039 23.3181 7.15129 35.8039 23.3181 7.15129
346 1 37.9651 24.595 7.41629 37.9651 24.595 7.41629
347 2 40.2685 23.8419 7.40337 40.2685 23.8419 7.40337
348 2 38.0395 24.1027 5.02175 38.0395 24.1027 5.02175
349 1 39.474 22.1088 5.80302 39.474 22.1088 5.80302
350 2 41.5782 21.0116 4.8152 41.5782 21.0116 4.8152
351 2 38.9702 22.1477 3.20589 38.9702 22.1477 3.20589
352 1 41.361 22.8314 3.14321 41.361 22.8314 3.14321
353 2 43.5041 21.6512 2.39475 43.5041 21.6512 2.39475
354 2 40.9119 22.9024 0.601914 40.9119 22.9024 0.601914
355 1 41.7791 20.5675 0.79411 41.7791 20.5675 0.79411
356 2 43.557 19.2874 -0.454177 43.557 19.2874 -0.454177
357 2 41.0103 20.9834 -1.58849 41.0103 20.9834 -1.58849
358 1 43.4289 21.4307 -1.97303 43.4289 21.4307 -1.97303
359 2 45.0021 20.4902 -4.06585 45.0021 20.4902 -4.06585
360 2 42.1248 22.2996 -3.87263 42.1248 22.2996 -3.87263
361 1 42.5883 19.9758 -4.77888 42.5883 19.9758 -4.77888
362 2 46.3053 18.5925 -5.91539 46.3053 18.5925 -5.91539
363 2 42.8576 19.36 -7.16906 42.8576 19.36 -7.16906
364 1 45.0809 20.5389 -6.84051 45.0809 20.5389 -6.84051
365 2 47.2414 20.3078 -8.10626 47.2414 20.3078 -8.10626
366 2 44.7112 19.7163 -9.17956 44.7112 19.7163 -9.17956
367 1 46.4173 17.948 -8.49698 46.4173 17.948 -8.49698
368 2 48.7584 16.8384 -8.67758 48.7584 16.8384 -8.67758
369 2 45.5506 16.606 9.47193 45.5506 16.606 -10.5281
370 1 62.3248 26.3287 -9.70648 62.3248 26.3287 10.2935
371 2 62.545 28.6322 -9.09258 62.545 28.6322 10.9074
372 2 13.231 26.0161 9.63906 64.6418 26.0161 9.63906
373 1 13.594 25.9431 -7.9251 65.0048 25.9431 12.0749
374 2 15.186 27.3183 -6.60259 66.5968 27.3183 13.3974
375 2 15.714 24.9389 -8.58564 67.1247 24.9389 11.4144
376 1 16.4255 27.3521 -8.72146 67.8363 27.3521 11.2785
377 2 17.9512 28.5782 -7.2235 69.362 28.5782 12.7765
378 2 18.5246 26.5632 -9.66442 69.9353 26.5632 10.3356
379 1 19.2715 28.8535 -9.39522 19.2715 28.8535 10.6048
380 2 20.9405 30.1366 -8.13409 20.9405 30.1366 11.8659
381 2 21.3693 27.9691 9.44077 21.3693 27.9691 9.44077
382 1 22.1552 30.297 9.70406 22.1552 30.297 9.70406
383 2 24.0457 31.2571 -8.99707 24.0457 31.2571 11.0029
384 2 24.1311 29.217 8.50698 24.1311 29.217 8.50698
385 1 25.0244 29.0379 -9.12472 25.0244 29.0379 10.8753
386 2 27.087 29.6882 -7.89845 27.087 29.6882 12.1015
387 2 26.7663 27.881 9.38675 26.7663 27.881 9.38675
388 1 27.9194 30.1309 9.76707 27.9194 30.1309 9.76707
389 2 30.1025 30.6202 -9.00312 30.1025 30.6202 10.9969
390 2 29.5768 28.9838 8.19591 29.5768 28.9838 8.19591
391 1 30.6663 28.304 -9.64978 30.6663 28.304 10.3502
392 2 32.9392 28.4796 -8.71548 32.9392 28.4796 11.2845
393 2 31.9956 27.205 8.46427 31.9956 27.205 8.46427
394 1 33.5611 29.2059 8.86842 33.5611 29.2059 8.86842
395 2 35.9099 29.1627 9.60291 35.9099 29.1627 9.60291
396 2 34.6313 28.3856 6.77328 34.6313 28.3856 6.77328
397 1 35.9323 26.8674 8.44993 35.9323 26.8674 8.44993
398 2 38.381 26.5269 8.8417 38.381 26.5269 8.8417
399 2 36.6339 26.2679 6.17328 36.6339 26.2679 6.17328
400 1 38.6116 27.6604 6.58216 38.6116 27.6604 6.58216
401 2 41.0314 27.0418 6.8504 41.0314 27.0418 6.8504
402 2 39.1252 27.2489 4.23739 39.1252 27.2489 4.23739
403 1 40.3224 25.2182 5.24916 40.3224 25.2182 5.24916
404 2 42.6139 24.2408 4.77307 42.6139 24.2408 4.77307
405 2 40.2598 24.96 2.68607 40.2598 24.96 2.68607
406 1 42.5301 25.8592 2.91663 42.5301 25.8592 2.91663
407 2 44.6352 24.5828 2.54292 44.6352 24.5828 2.54292
408 2 42.5906 25.8485 0.285513 42.5906 25.8485 0.285513
409 1 43.4245 23.4883 0.682994 43.4245 23.4883 0.682994
410 2 45.316 22.0971 -0.404893 45.316 22.0971 -0.404893
411 2 42.9505 23.9451 -1.70595 42.9505 23.9451 -1.70595
412 1 45.5278 24.16 -1.74651 45.5278 24.16 -1.74651
413 2 46.6953 22.7584 -3.39806 46.6953 22.7584 -3.39806
414 2 44.6662 25.2762 -3.93236 44.6662 25.2762 -3.93236
415 1 44.4411 22.8878 -4.69741 44.4411 22.8878 -4.69741
416 2 46.1866 23.0158 -6.39046 46.1866 23.0158 -6.39046
417 2 42.9863 21.9142 -6.48058 42.9863 21.9142 -6.48058
418 1 57.0024 27.9392 7.185 57.0024 27.9392 7.185
419 2 57.1995 30.3173 7.67423 57.1995 30.3173 7.67423
420 2 59.2114 27.5911 6.37174 59.2114 27.5911 6.37174
421 1 59.6042 27.0989 8.7334 59.6042 27.0989 8.7334
422 2 59.8622 29.439 9.35561 59.8622 29.439 9.35561
423 2 61.9441 26.8859 7.97018 61.9441 26.8859 7.97018
424 1 62.2715 29.2595 8.57018 62.2715 29.2595 8.57018
425 2 63.9361 30.6758 9.88618 63.9361 30.6758 9.88618
426 2 13.0387 28.3084 7.63189 64.4495 28.3084 7.63189
427 1 13.5405 28.3881 -9.91692 64.9512 28.3881 10.0831
428 2 15.3587 29.6167 -8.73193 66.7695 29.6167 11.2681
429 2 15.6299 27.4637 8.89848 67.0407 27.4637 8.89848
430 1 16.5232 29.7957 9.0688 67.934 29.7957 9.0688
431 2 18.2487 31.1489 -9.60294 69.6595 31.1489 10.3971
432 2 18.5643 28.7962 8.21408 69.975 28.7962 8.21408
433 1 19.4315 31.1786 8.26728 19.4315 31.1786 8.26728
434 2 21.1092 32.5695 9.42279 21.1092 32.5695 9.42279
435 2 21.4021 30.1152 7.17945 21.4021 30.1152 7.17945
436 1 22.2899 32.4479 7.14292 22.2899 32.4479 7.14292
437 2 23.9441 33.8053 8.48163 23.9441 33.8053 8.48163
438 2 24.4455 31.3562 6.31057 24.4455 31.3562 6.31057
439 1 25.1808 31.4933 8.71345 25.1808 31.4933 8.71345
440 2 27.128 32.4989 9.95426 27.128 32.4989 9.95426
441 2 27.0571 30.4173 7.45907 27.0571 30.4173 7.45907
442 1 28.0832 32.7064 7.60015 28.0832 32.7064 7.60015
443 2 30.2716 33.4876 8.80833 30.2716 33.4876 8.80833
444 2 29.8109 31.4232 6.41114 29.8109 31.4232 6.41114
445 1 30.9608 31.1884 8.56065 30.9608 31.1884 8.56065
446 2 33.1749 31.6137 9.49437 33.1749 31.6137 9.49437
447 2 32.3392 29.9608 6.84866 32.3392 29.9608 6.84866
448 1 33.7736 32.054 7.13489 33.7736 32.054 7.13489
449 2 36.0964 32.617 8.02066 36.0964 32.617 8.02066
450 2 35.0159 30.9729 5.30706 35.0159 30.9729 5.30706
451 1 36.3488 30.0804 7.29029 36.3488 30.0804 7.29029
452 2 38.6785 29.747 7.91973 38.6785 29.747 7.91973
453 2 37.1482 29.1216 5.09173 37.1482 29.1216 5.09173
454 1 38.9806 30.8204 5.58548 38.9806 30.8204 5.58548
455 2 41.6655 30.5347 5.95803 41.6655 30.5347 5.95803
456 2 39.841 30.0904 3.27554 39.841 30.0904 3.27554
457 1 41.3015 28.4347 4.69904 41.3015 28.4347 4.69904
458 2 43.6107 27.3504 4.64861 43.6107 27.3504 4.64861
459 2 41.5278 28.0695 2.18417 41.5278 28.0695 2.18417
460 1 43.8816 28.9764 2.67669 43.8816 28.9764 2.67669
461 2 46.253 27.8175 2.61974 46.253 27.8175 2.61974
462 2 44.3387 28.8555 0.133371 44.3387 28.8555 0.133371
463 1 45.068 26.4867 0.770721 45.068 26.4867 0.770721
464 2 46.8904 25.0259 0.273613 46.8904 25.0259 0.273613
465 2 44.8449 26.6681 -1.7112 44.8449 26.6681 -1.7112
466 1 47.2023 27.0389 -1.58097 47.2023 27.0389 -1.58097
467 2 48.0036 24.7746 -2.24188 48.0036 24.7746 -2.24188
468 2 46.7838 27.5092 -4.17795 46.7838 27.5092 -4.17795
469 1 47.0843 25.02 -4.51229 47.0843 25.02 -4.51229
470 2 54.4354 30.0379 5.57637 54.4354 30.0379 5.57637
471 2 56.4029 28.2609 4.87271 56.4029 28.2609 4.87271
472 1 56.8879 30.7116 5.19805 56.8879 30.7116 5.19805
473 2 58.6104 32.4177 6.45933 58.6104 32.4177 6.45933
474 2 59.1429 29.6893 4.39678 59.1429 29.6893 4.39678
475 1 59.5666 30.0558 6.89962 59.5666 30.0558 6.89962
476 2 61.2433 31.5697 8.19136 61.2433 31.5697 8.19136
477 2 61.7529 28.9269 6.04778 61.7529 28.9269 6.04778
478 1 62.4093 31.313 5.95578 62.4093 31.313 5.95578
479 2 64.0354 32.92 7.147 64.0354 32.92 7.147
480 2 64.6798 30.3167 5.33048 64.6798 30.3167 5.33048
481 1 13.7568 30.8087 7.64625 65.1676 30.8087 7.64625
482 2 15.5426 32.1505 8.84902 66.9534 32.1505 8.84902
483 2 15.775 29.7079 6.6991 67.1858 29.7079 6.6991
484 1 16.5915 32.1096 6.68734 68.0023 32.1096 6.68734
485 2 18.2515 33.4162 8.01249 69.6623 33.4162 8.01249
486 2 18.6936 30.8758 5.92338 70.1044 30.8758 5.92338
487 1 19.4817 33.2623 5.79304 19.4817 33.2623 5.79304
488 2 21.049 34.6138 7.07267 21.049 34.6138 7.07267
489 2 21.4785 32.2979 4.74138 21.4785 32.2979 4.74138
490 1 22.2507 34.6856 4.79446 22.2507 34.6856 4.79446
491 2 23.9734 35.9964 6.01792 23.9734 35.9964 6.01792
492 2 24.3453 33.7135 3.79089 24.3453 33.7135 3.79089
493 1 25.0993 33.7982 6.25017 25.0993 33.7982 6.25017
494 2 26.9051 34.9106 7.67412 26.9051 34.9106 7.67412
495 2 27.118 32.7683 5.23914 27.118 32.7683 5.23914
496 1 28.0315 35.0661 5.3633 28.0315 35.0661 5.3633
497 2 29.95 36.0881 6.56312 29.95 36.0881 6.56312
498 2 29.9403 33.8593 4.15986 29.9403 33.8593 4.15986
499 1 30.9478 33.7245 6.48025 30.9478 33.7245 6.48025
500 2 33.1195 34.4393 7.55162 33.1195 34.4393 7.55162
501 2 32.7258 32.6265 4.8562 32.7258 32.6265 4.8562
502 1 33.8839 34.8917 5.17771 33.8839 34.8917 5.17771
503 2 36.1027 35.4192 6.18827 36.1027 35.4192 6.18827
504 2 35.4902 33.5954 3.48829 35.4902 33.5954 3.48829
505 1 36.5824 32.9649 5.63743 36.5824 32.9649 5.63743
506 2 39.0006 33.1393 6.33765 39.0006 33.1393 6.33765
507 2 37.6216 31.9129 3.66992 37.6216 31.9129 3.66992
508 1 39.3942 33.6598 3.8576 39.3942 33.6598 3.8576
509 2 41.7886 33.6944 4.80083 41.7886 33.6944 4.80083
510 2 40.6682 32.7645 1.8723 40.6682 32.7645 1.8723
511 1 41.879 31.4604 3.66843 41.879 31.4604 3.66843
512 2 44.3664 31.038 4.13434 44.3664 31.038 4.13434
513 2 42.7237 30.731 1.35393 42.7237 30.731 1.35393
514 1 44.7694 32.2115 1.90953 44.7694 32.2115 1.90953
515 2 47.1343 31.4364 2.7035 47.1343 31.4364 2.7035
516 2 45.9423 32.0647 -0.318567 45.9423 32.0647 -0.318567
517 1 46.8043 29.6894 0.756589 46.8043 29.6894 0.756589
518 2 48.5814 27.7296 0.32939 48.5814 27.7296 0.32939
519 2 46.5753 29.5573 -1.79059 46.5753 29.5573 -1.79059
520 1 51.2572 32.0669 2.06748 51.2572 32.0669 2.06748
521 2 52.8403 33.2552 3.63073 52.8403 33.2552 3.63073
522 2 53.4995 31.6456 0.955548 53.4995 31.6456 0.955548
523 1 54.1842 31.1964 3.32167 54.1842 31.1964 3.32167
524 2 55.4526 32.7027 4.86032 55.4526 32.7027 4.86032
525 2 56.4626 30.5594 2.7079 56.4626 30.5594 2.7079
526 1 56.987 33.038 2.87595 56.987 33.038 2.87595
527 2 58.7124 34.3449 4.19455 58.7124 34.3449 4.19455
528 2 59.0328 31.9124 1.96457 59.0328 31.9124 1.96457
529 1 59.8787 32.1483 4.33484 59.8787 32.1483 4.33484
530 2 61.551 33.6679 5.42563 61.551 33.6679 5.42563
531 2 61.8985 31.0364 3.53702 61.8985 31.0364 3.53702
532 1 62.6716 33.3605 3.19263 62.6716 33.3605 3.19263
533 2 64.1209 34.99 4.58821 64.1209 34.99 4.58821
534 2 64.8752 32.4272 2.54532 64.8752 32.4272 2.54532
535 1 65.3106 32.8061 4.89233 65.3106 32.8061 4.89233
536 2 15.2989 34.1534 6.38883 66.7097 34.1534 6.38883
537 2 16.0245 31.7422 4.29241 67.4353 31.7422 4.29241
538 1 16.7197 34.1699 4.23595 68.1305 34.1699 4.23595
539 2 18.3914 35.4851 5.46081 69.8022 35.4851 5.46081
540 2 18.7066 33.0407 3.34347 70.1174 33.0407 3.34347
541 1 19.5765 35.3708 3.22564 19.5765 35.3708 3.22564
542 2 21.0277 36.9155 4.38993 21.0277 36.9155 4.38993
543 2 21.6303 34.3989 2.40667 21.6303 34.3989 2.40667
544 1 22.3576 36.822 2.31254 22.3576 36.822 2.31254
545 2 24.052 38.2625 3.5223 24.052 38.2625 3.5223
546 2 24.4698 35.7119 1.44598 24.4698 35.7119 1.44598