ITEM: TIMESTEP
1604000
ITEM: NUMBER OF ATOMS
810
ITEM: BOX BOUNDS xy xz yz pp pp pp
8.0341777045796159e-01 6.0138681057423710e+01 7.9244938278812072e+00
8.0582000660415243e-01 5.0210394993394715e+01 0.0000000000000000e+00
-1.0000000000000000e+01 1.0000000000000000e+01 0.0000000000000000e+00
ITEM: ATOMS id type x y z xu yu zu
1 1 1.16492 0.796937 2.15796 1.16492 0.796937 2.15796
2 2 11.4074 49.699 3.01004 3.48295 0.294462 3.01004
3 2 2.81171 1.51753 0.115577 2.81171 1.51753 0.115577
4 1 4.48189 2.3781 1.84606 4.48189 2.3781 1.84606
5 2 6.87584 1.85725 2.65091 6.87584 1.85725 2.65091
6 2 5.91038 3.27594 -0.128539 5.91038 3.27594 -0.128539
7 1 6.89058 0.904593 0.268161 6.89058 0.904593 0.268161
8 2 17.1844 49.6531 1.05018 9.25993 0.248489 1.05018
9 2 8.28832 1.6984 -1.70804 8.28832 1.6984 -1.70804
10 1 10.0364 2.51909 0.0235271 10.0364 2.51909 0.0235271
11 2 12.3391 1.89656 0.64445 12.3391 1.89656 0.64445
12 2 11.2205 3.22313 -2.03963 11.2205 3.22313 -2.03963
13 1 12.3736 1.13823 -1.76416 12.3736 1.13823 -1.76416
14 2 14.6671 0.65694 -0.762602 14.6671 0.65694 -0.762602
15 2 14.0175 1.65027 -3.84028 14.0175 1.65027 -3.84028
16 1 15.6441 2.75866 -2.09816 15.6441 2.75866 -2.09816
17 2 17.8379 2.36853 -0.978433 17.8379 2.36853 -0.978433
18 2 17.2403 3.25194 -3.98884 17.2403 3.25194 -3.98884
19 1 18.2854 1.17551 -3.08872 18.2854 1.17551 -3.08872
20 2 20.1882 1.06785 -1.41995 20.1882 1.06785 -1.41995
21 2 20.2548 1.06052 -4.71135 20.2548 1.06052 -4.71135
22 1 21.4153 2.66693 -3.07162 21.4153 2.66693 -3.07162
23 2 23.4862 2.80016 -1.54823 23.4862 2.80016 -1.54823
24 2 23.3902 2.55007 -4.83835 23.3902 2.55007 -4.83835
25 1 24.1729 0.951281 -2.98793 24.1729 0.951281 -2.98793
26 2 26.0589 1.45238 -1.06559 26.0589 1.45238 -1.06559
27 2 34.2437 49.8596 -4.17103 26.3192 0.455067 -4.17103
28 1 27.2796 2.52129 -2.93456 27.2796 2.52129 -2.93456
29 2 28.7786 2.95639 -0.849817 28.7786 2.95639 -0.849817
30 2 29.5415 2.17724 -3.90301 29.5415 2.17724 -3.90301
31 1 29.818 0.935181 -1.72369 29.818 0.935181 -1.72369
32 2 31.3785 1.53349 0.160852 31.3785 1.53349 0.160852
33 2 39.9485 49.7839 -2.75588 32.024 0.379312 -2.75588
34 1 32.9999 2.52026 -1.59039 32.9999 2.52026 -1.59039
35 2 34.362 3.14483 0.449127 34.362 3.14483 0.449127
36 2 35.485 2.2577 -2.45373 35.485 2.2577 -2.45373
37 1 35.377 0.974205 -0.269599 35.377 0.974205 -0.269599
38 2 36.6904 1.40327 2.00302 36.6904 1.40327 2.00302
39 2 45.6978 50.1599 -1.01996 37.7733 0.755332 -1.01996
40 1 38.5535 2.66689 0.582518 38.5535 2.66689 0.582518
41 2 39.7998 3.15208 2.73595 39.7998 3.15208 2.73595
42 2 40.9976 2.41013 -0.291685 40.9976 2.41013 -0.291685
43 1 41.0431 1.22211 1.86223 41.0431 1.22211 1.86223
44 2 42.6674 1.30017 3.79535 42.6674 1.30017 3.79535
45 2 43.2202 1.05059 0.59755 43.2202 1.05059 0.59755
46 1 44.1227 2.90211 2.21023 44.1227 2.90211 2.21023
47 2 45.9197 2.81519 4.09925 45.9197 2.81519 4.09925
48 2 46.2303 2.69973 0.76916 46.2303 2.69973 0.76916
49 1 46.8086 1.09519 2.64393 46.8086 1.09519 2.64393
50 2 48.837 0.605943 4.10765 48.837 0.605943 4.10765
51 2 48.6195 1.18607 0.850153 48.6195 1.18607 0.850153
52 1 49.9606 2.67469 2.74459 49.9606 2.67469 2.74459
53 2 52.023 2.26284 4.03826 52.023 2.26284 4.03826
54 2 51.7013 2.88415 0.909961 51.7013 2.88415 0.909961
55 1 1.70994 4.21114 2.52786 1.70994 4.21114 2.52786
56 2 3.82687 3.72496 3.93029 3.82687 3.72496 3.93029
57 2 3.51181 4.50737 0.749944 3.51181 4.50737 0.749944
58 1 4.92387 5.73034 2.54759 4.92387 5.73034 2.54759
59 2 7.23768 5.466 3.64239 7.23768 5.466 3.64239
60 2 6.70959 6.20377 0.488513 6.70959 6.20377 0.488513
61 1 7.58711 4.10468 1.5099 7.58711 4.10468 1.5099
62 2 9.91128 3.64421 2.22891 9.91128 3.64421 2.22891
63 2 8.9654 4.68483 -0.572751 8.9654 4.68483 -0.572751
64 1 10.672 5.70759 0.960486 10.672 5.70759 0.960486
65 2 13.0429 5.17189 1.82085 13.0429 5.17189 1.82085
66 2 12.0175 6.38325 -1.03806 12.0175 6.38325 -1.03806
67 1 13.1563 4.2032 -0.558481 13.1563 4.2032 -0.558481
68 2 15.5337 3.72774 0.294235 15.5337 3.72774 0.294235
69 2 14.4534 4.83606 -2.69258 14.4534 4.83606 -2.69258
70 1 16.2472 5.99445 -0.985412 16.2472 5.99445 -0.985412
71 2 18.4961 5.52492 -0.0227817 18.4961 5.52492 -0.0227817
72 2 17.649 6.62385 -2.91812 17.649 6.62385 -2.91812
73 1 18.7907 4.38026 -2.2948 18.7907 4.38026 -2.2948
74 2 20.9937 4.08253 -1.03528 20.9937 4.08253 -1.03528
75 2 20.4423 4.65003 -4.16426 20.4423 4.65003 -4.16426
76 1 21.8718 6.07615 -2.52626 21.8718 6.07615 -2.52626
77 2 24.069 5.91984 -1.32252 24.069 5.91984 -1.32252
78 2 23.4664 6.39276 -4.45377 23.4664 6.39276 -4.45377
79 1 24.5967 4.39169 -3.29265 24.5967 4.39169 -3.29265
80 2 26.4473 4.34692 -1.55098 26.4473 4.34692 -1.55098
81 2 26.6416 4.13726 -4.67117 26.6416 4.13726 -4.67117
82 1 27.8077 5.95255 -3.13634 27.8077 5.95255 -3.13634
83 2 29.4809 6.10651 -1.17704 29.4809 6.10651 -1.17704
84 2 30.0143 5.71946 -4.4538 30.0143 5.71946 -4.4538
85 1 30.3541 4.19346 -2.50394 30.3541 4.19346 -2.50394
86 2 32.015 4.5355 -0.571138 32.015 4.5355 -0.571138
87 2 32.5834 3.81408 -3.67627 32.5834 3.81408 -3.67627
88 1 33.5409 5.77809 -2.19999 33.5409 5.77809 -2.19999
89 2 34.9132 6.18701 -0.110226 34.9132 6.18701 -0.110226
90 2 35.8088 5.62248 -3.19614 35.8088 5.62248 -3.19614
91 1 36.1402 4.23499 -1.05174 36.1402 4.23499 -1.05174
92 2 37.3314 4.87879 1.05033 37.3314 4.87879 1.05033
93 2 38.6469 3.84194 -1.62992 38.6469 3.84194 -1.62992
94 1 39.1171 6.02128 -0.285673 39.1171 6.02128 -0.285673
95 2 40.3604 6.73894 1.74833 40.3604 6.73894 1.74833
96 2 41.415 5.58724 -1.14168 41.415 5.58724 -1.14168
97 1 41.5903 4.53591 1.29891 41.5903 4.53591 1.29891
98 2 43.1681 4.98445 3.2694 43.1681 4.98445 3.2694
99 2 43.7723 4.19829 0.197892 43.7723 4.19829 0.197892
100 1 44.6453 6.09106 1.60249 44.6453 6.09106 1.60249
101 2 46.1989 6.56661 3.52095 46.1989 6.56661 3.52095
102 2 46.8874 5.87391 0.483071 46.8874 5.87391 0.483071
103 1 47.3349 4.51166 2.56658 47.3349 4.51166 2.56658
104 2 49.1978 4.5071 4.20945 49.1978 4.5071 4.20945
105 2 49.3645 4.46359 1.06373 49.3645 4.46359 1.06373
106 1 50.4667 6.08814 2.71601 50.4667 6.08814 2.71601
107 2 52.5305 5.87296 4.27584 52.5305 5.87296 4.27584
108 2 52.3112 6.1153 1.04659 52.3112 6.1153 1.04659
109 1 2.23164 7.61908 2.74464 2.23164 7.61908 2.74464
110 2 4.16062 7.30308 4.30945 4.16062 7.30308 4.30945
111 2 4.22604 7.62851 1.14714 4.22604 7.62851 1.14714
112 1 5.39039 9.09505 2.79006 5.39039 9.09505 2.79006
113 2 7.62731 8.9649 4.08007 7.62731 8.9649 4.08007
114 2 7.09445 9.28466 0.918846 7.09445 9.28466 0.918846
115 1 8.16539 7.46214 2.16659 8.16539 7.46214 2.16659
116 2 10.4197 7.03128 3.12757 10.4197 7.03128 3.12757
117 2 9.4596 7.79154 0.153819 9.4596 7.79154 0.153819
118 1 11.1687 9.07768 1.78085 11.1687 9.07768 1.78085
119 2 13.4343 8.61234 2.86684 13.4343 8.61234 2.86684
120 2 12.6984 9.45576 -0.116901 12.6984 9.45576 -0.116901
121 1 13.7927 7.34329 0.67336 13.7927 7.34329 0.67336
122 2 16.1169 6.7514 1.37152 16.1169 6.7514 1.37152
123 2 15.1065 8.21259 -1.33353 15.1065 8.21259 -1.33353
124 1 16.8436 9.05638 0.3535 16.8436 9.05638 0.3535
125 2 19.2003 8.65973 1.08308 19.2003 8.65973 1.08308
126 2 18.0626 9.57448 -1.80985 18.0626 9.57448 -1.80985
127 1 19.3194 7.56703 -1.2447 19.3194 7.56703 -1.2447
128 2 21.7601 7.44278 -0.284926 21.7601 7.44278 -0.284926
129 2 20.592 8.12385 -3.39498 20.592 8.12385 -3.39498
130 1 22.2361 9.44674 -1.80687 22.2361 9.44674 -1.80687
131 2 24.6263 9.22886 -0.757375 24.6263 9.22886 -0.757375
132 2 23.7788 9.91767 -3.89672 23.7788 9.91767 -3.89672
133 1 24.957 7.84463 -2.85863 24.957 7.84463 -2.85863
134 2 27.0627 7.50142 -1.36021 27.0627 7.50142 -1.36021
135 2 26.8667 7.80774 -4.6276 26.8667 7.80774 -4.6276
136 1 28.1911 9.3529 -2.96768 28.1911 9.3529 -2.96768
137 2 30.1258 9.25404 -1.23192 30.1258 9.25404 -1.23192
138 2 30.3185 9.32869 -4.47871 30.3185 9.32869 -4.47871
139 1 30.9841 7.53423 -2.84088 30.9841 7.53423 -2.84088
140 2 32.5386 7.6213 -0.944435 32.5386 7.6213 -0.944435
141 2 33.1274 7.32683 -4.06766 33.1274 7.32683 -4.06766
142 1 34.0305 9.12326 -2.47135 34.0305 9.12326 -2.47135
143 2 35.6349 9.62259 -0.602476 35.6349 9.62259 -0.602476
144 2 36.1602 8.90858 -3.85435 36.1602 8.90858 -3.85435
145 1 36.5821 7.50634 -1.66924 36.5821 7.50634 -1.66924
146 2 37.9216 8.25208 0.372752 37.9216 8.25208 0.372752
147 2 38.8919 7.19859 -2.58469 38.8919 7.19859 -2.58469
148 1 39.7576 9.22383 -1.20712 39.7576 9.22383 -1.20712
149 2 41.0535 9.78056 0.821327 41.0535 9.78056 0.821327
150 2 42.1375 8.71352 -2.04972 42.1375 8.71352 -2.04972
151 1 42.2239 7.65574 0.211177 42.2239 7.65574 0.211177
152 2 43.6682 8.3447 2.13847 43.6682 8.3447 2.13847
153 2 44.5522 7.2061 -0.759296 44.5522 7.2061 -0.759296
154 1 45.2908 9.38247 0.51177 45.2908 9.38247 0.51177
155 2 46.6341 9.95339 2.62886 46.6341 9.95339 2.62886
156 2 47.5157 8.93436 -0.317149 47.5157 8.93436 -0.317149
157 1 47.7225 7.7877 1.97203 47.7225 7.7877 1.97203
158 2 49.3321 7.9282 3.89442 49.3321 7.9282 3.89442
159 2 49.9132 7.51686 0.742861 49.9132 7.51686 0.742861
160 1 50.8796 9.40431 2.27059 50.8796 9.40431 2.27059
161 2 52.6769 9.43307 4.10478 52.6769 9.43307 4.10478
162 2 53.0752 9.24566 0.978738 53.0752 9.24566 0.978738
163 1 2.73813 10.9702 2.55202 2.73813 10.9702 2.55202
164 2 4.54947 11.0605 4.23872 4.54947 11.0605 4.23872
165 2 4.74816 10.9316 0.927298 4.74816 10.9316 0.927298
166 1 5.83056 12.7336 2.58355 5.83056 12.7336 2.58355
167 2 7.76106 12.7468 4.13944 7.76106 12.7468 4.13944
168 2 7.69183 12.5036 0.863575 7.69183 12.5036 0.863575
169 1 8.56082 10.9064 2.61077 8.56082 10.9064 2.61077
170 2 10.839 10.5368 3.73889 10.839 10.5368 3.73889
171 2 10.1841 11.1027 0.692056 10.1841 11.1027 0.692056
172 1 11.7303 12.4657 2.2896 11.7303 12.4657 2.2896
173 2 13.9077 12.2356 3.59635 13.9077 12.2356 3.59635
174 2 13.4853 12.7827 0.45992 13.4853 12.7827 0.45992
175 1 14.2978 10.7279 1.58657 14.2978 10.7279 1.58657
176 2 16.5952 10.2707 2.57951 16.5952 10.2707 2.57951
177 2 15.8525 11.1996 -0.447244 15.8525 11.1996 -0.447244
178 1 17.3765 12.3646 1.20506 17.3765 12.3646 1.20506
179 2 19.6902 11.7716 2.00276 19.6902 11.7716 2.00276
180 2 18.6956 13.0169 -0.819539 18.6956 13.0169 -0.819539
181 1 19.734 10.8075 -0.30593 19.734 10.8075 -0.30593
182 2 22.1735 10.5517 0.553586 22.1735 10.5517 0.553586
183 2 21.1022 11.5313 -2.24211 21.1022 11.5313 -2.24211
184 1 22.996 12.6779 -0.74347 22.996 12.6779 -0.74347
185 2 25.2491 12.2502 0.207094 25.2491 12.2502 0.207094
186 2 24.4755 13.3762 -2.70739 24.4755 13.3762 -2.70739
187 1 25.4149 11.1215 -2.1378 25.4149 11.1215 -2.1378
188 2 27.7002 10.7517 -0.971017 27.7002 10.7517 -0.971017
189 2 27.1334 11.3893 -4.00873 27.1334 11.3893 -4.00873
190 1 28.588 12.7145 -2.38515 28.588 12.7145 -2.38515
191 2 30.6762 12.5266 -0.886942 30.6762 12.5266 -0.886942
192 2 30.3344 12.8599 -4.15864 30.3344 12.8599 -4.15864
193 1 31.3435 10.9489 -2.74988 31.3435 10.9489 -2.74988
194 2 33.1993 11.0468 -1.02626 33.1993 11.0468 -1.02626
195 2 33.3238 10.7053 -4.24499 33.3238 10.7053 -4.24499
196 1 34.4074 12.5291 -2.65047 34.4074 12.5291 -2.65047
197 2 36.3001 12.7382 -0.983084 36.3001 12.7382 -0.983084
198 2 36.4201 12.3754 -4.16521 36.4201 12.3754 -4.16521
199 1 37.1039 10.8189 -2.30252 37.1039 10.8189 -2.30252
200 2 38.7133 11.3488 -0.288285 38.7133 11.3488 -0.288285
201 2 39.3648 10.4806 -3.43489 39.3648 10.4806 -3.43489
202 1 40.1901 12.4487 -2.13056 40.1901 12.4487 -2.13056
203 2 41.8191 13.179 -0.223718 41.8191 13.179 -0.223718
204 2 42.4573 11.6809 -3.09868 42.4573 11.6809 -3.09868
205 1 42.7404 10.8711 -0.7625 42.7404 10.8711 -0.7625
206 2 44.2673 11.5653 1.10571 44.2673 11.5653 1.10571
207 2 45.0238 10.3645 -1.7189 45.0238 10.3645 -1.7189
208 1 45.8945 12.4918 -0.663972 45.8945 12.4918 -0.663972
209 2 47.2782 13.338 1.32601 47.2782 13.338 1.32601
210 2 48.2081 11.8846 -1.35926 48.2081 11.8846 -1.35926
211 1 48.2773 11.0464 1.00545 48.2773 11.0464 1.00545
212 2 49.7371 11.4626 2.99418 49.7371 11.4626 2.99418
213 2 50.5742 10.5322 -0.0638229 50.5742 10.5322 -0.0638229
214 1 51.507 12.5088 1.26956 51.507 12.5088 1.26956
215 2 52.9574 13.0459 3.28926 52.9574 13.0459 3.28926
216 2 53.7388 12.2787 0.230804 53.7388 12.2787 0.230804
217 1 3.19147 14.2965 1.65393 3.19147 14.2965 1.65393
218 2 4.81289 14.5953 3.68925 4.81289 14.5953 3.68925
219 2 5.36555 14.0376 0.530293 5.36555 14.0376 0.530293
220 1 6.29304 16.0112 1.91736 6.29304 16.0112 1.91736
221 2 8.03202 16.2255 3.71112 8.03202 16.2255 3.71112
222 2 8.47817 15.7393 0.564113 8.47817 15.7393 0.564113
223 1 8.99515 14.2146 2.52756 8.99515 14.2146 2.52756
224 2 11.0352 13.9198 4.07395 11.0352 13.9198 4.07395
225 2 10.9679 14.3094 0.836127 10.9679 14.3094 0.836127
226 1 12.2237 15.7062 2.45615 12.2237 15.7062 2.45615
227 2 14.1699 15.6154 3.98387 14.1699 15.6154 3.98387
228 2 14.0878 15.9553 0.818541 14.0878 15.9553 0.818541
229 1 14.9618 14.0631 2.18804 14.9618 14.0631 2.18804
230 2 17.1117 13.6813 3.37289 17.1117 13.6813 3.37289
231 2 16.4533 14.4667 0.216684 16.4533 14.4667 0.216684
232 1 17.9452 15.7004 1.97261 17.9452 15.7004 1.97261
233 2 20.2799 15.1357 3.04734 20.2799 15.1357 3.04734
234 2 19.4669 16.1533 0.0980429 19.4669 16.1533 0.0980429
235 1 20.5091 14.0087 0.87889 20.5091 14.0087 0.87889
236 2 22.9176 13.8245 1.54195 22.9176 13.8245 1.54195
237 2 21.8301 14.8331 -1.17543 21.8301 14.8331 -1.17543
238 1 23.54 15.9292 0.385674 23.54 15.9292 0.385674
239 2 25.8984 15.3645 1.32625 25.8984 15.3645 1.32625
240 2 24.989 16.4457 -1.64602 24.989 16.4457 -1.64602
241 1 26.0681 14.3568 -1.00649 26.0681 14.3568 -1.00649
242 2 28.3716 13.7528 -0.11065 28.3716 13.7528 -0.11065
243 2 27.5156 14.9764 -2.97153 27.5156 14.9764 -2.97153
244 1 29.191 15.991 -1.30985 29.191 15.991 -1.30985
245 2 31.3684 15.6181 -0.189677 31.3684 15.6181 -0.189677
246 2 30.765 16.5016 -3.26689 30.765 16.5016 -3.26689
247 1 31.6632 14.3633 -2.40682 31.6632 14.3633 -2.40682
248 2 33.6723 14.0556 -0.896991 33.6723 14.0556 -0.896991
249 2 33.5296 14.3955 -4.13075 33.5296 14.3955 -4.13075
250 1 34.7861 15.8639 -2.40866 34.7861 15.8639 -2.40866
251 2 36.8733 15.8515 -0.976744 36.8733 15.8515 -0.976744
252 2 36.5776 16.0481 -4.14869 36.5776 16.0481 -4.14869
253 1 37.5063 14.1981 -2.79409 37.5063 14.1981 -2.79409
254 2 39.2331 14.441 -0.889014 39.2331 14.441 -0.889014
255 2 39.7102 13.8967 -4.11785 39.7102 13.8967 -4.11785
256 1 40.776 15.783 -2.65886 40.776 15.783 -2.65886
257 2 42.4686 16.0179 -0.860939 42.4686 16.0179 -0.860939
258 2 42.8939 15.4842 -4.06323 42.8939 15.4842 -4.06323
259 1 43.4845 13.9952 -2.07992 43.4845 13.9952 -2.07992
260 2 44.8981 14.701 -0.116316 44.8981 14.701 -0.116316
261 2 45.797 13.3635 -2.92274 45.797 13.3635 -2.92274
262 1 46.5923 15.5788 -1.85316 46.5923 15.5788 -1.85316
263 2 48.0009 16.2099 0.208732 48.0009 16.2099 0.208732
264 2 48.9015 15.039 -2.7053 48.9015 15.039 -2.7053
265 1 48.9739 14.0258 -0.39005 48.9739 14.0258 -0.39005
266 2 50.1899 14.6133 1.8253 50.1899 14.6133 1.8253
267 2 51.4618 13.6072 -1.05135 51.4618 13.6072 -1.05135
268 1 52.0501 15.7185 0.266824 52.0501 15.7185 0.266824
269 2 53.5121 16.4683 2.22668 53.5121 16.4683 2.22668
270 2 54.4051 15.193 -0.681563 54.4051 15.193 -0.681563
271 1 3.74271 17.4422 0.50386 3.74271 17.4422 0.50386
272 2 5.09755 18.0982 2.48513 5.09755 18.0982 2.48513
273 2 6.0449 16.9684 -0.436731 6.0449 16.9684 -0.436731
274 1 6.88432 19.1761 0.792169 6.88432 19.1761 0.792169
275 2 8.28364 19.8003 2.71919 8.28364 19.8003 2.71919
276 2 9.13787 18.7605 -0.147025 9.13787 18.7605 -0.147025
277 1 9.46912 17.6031 2.06125 9.46912 17.6031 2.06125
278 2 11.3052 17.7087 3.87408 11.3052 17.7087 3.87408
279 2 11.4751 17.2716 0.521713 11.4751 17.2716 0.521713
280 1 12.579 19.0325 1.98174 12.579 19.0325 1.98174
281 2 14.1788 19.2169 3.91023 14.1788 19.2169 3.91023
282 2 14.7561 19.1523 0.713953 14.7561 19.1523 0.713953
283 1 15.2591 17.4897 2.52719 15.2591 17.4897 2.52719
284 2 17.37 17.1178 3.90298 17.37 17.1178 3.90298
285 2 17.1068 17.5933 0.746188 17.1068 17.5933 0.746188
286 1 18.4179 19.0775 2.45109 18.4179 19.0775 2.45109
287 2 20.447 18.7394 3.90151 20.447 18.7394 3.90151
288 2 20.2006 19.287 0.674108 20.2006 19.287 0.674108
289 1 21.1281 17.3184 1.86059 21.1281 17.3184 1.86059
290 2 23.4705 16.8139 2.86212 23.4705 16.8139 2.86212
291 2 22.5398 18.2108 -0.0776871 22.5398 18.2108 -0.0776871
292 1 24.2785 19.0079 1.67676 24.2785 19.0079 1.67676
293 2 26.6183 18.4517 2.41864 26.6183 18.4517 2.41864
294 2 25.5847 19.7007 -0.442605 25.5847 19.7007 -0.442605
295 1 26.6883 17.5163 0.0881983 26.6883 17.5163 0.0881983
296 2 28.9383 16.8686 0.982991 28.9383 16.8686 0.982991
297 2 28.1014 18.2217 -1.83543 28.1014 18.2217 -1.83543
298 1 29.7825 19.13 0.0527003 29.7825 19.13 0.0527003
299 2 32.1277 18.5471 0.825005 32.1277 18.5471 0.825005
300 2 31.1812 19.833 -1.91725 31.1812 19.833 -1.91725
301 1 32.2003 17.6501 -1.51469 32.2003 17.6501 -1.51469
302 2 34.4362 17.0697 -0.377928 34.4362 17.0697 -0.377928
303 2 33.8592 17.977 -3.37449 33.8592 17.977 -3.37449
304 1 35.3664 19.2039 -1.61416 35.3664 19.2039 -1.61416
305 2 37.8569 19.0127 -0.590357 37.8569 19.0127 -0.590357
306 2 36.8187 19.4408 -3.61333 36.8187 19.4408 -3.61333
307 1 38.0028 17.5099 -2.53977 38.0028 17.5099 -2.53977
308 2 40.1177 17.566 -1.01283 40.1177 17.566 -1.01283
309 2 39.8171 17.5415 -4.30136 39.8171 17.5415 -4.30136
310 1 41.2218 19.1399 -2.69568 41.2218 19.1399 -2.69568
311 2 43.2541 19.2775 -1.1183 43.2541 19.2775 -1.1183
312 2 43.2175 18.9821 -4.35738 43.2175 18.9821 -4.35738
313 1 44.0485 17.3144 -2.57712 44.0485 17.3144 -2.57712
314 2 45.6669 17.6452 -0.703889 45.6669 17.6452 -0.703889
315 2 46.0843 16.955 -3.96329 46.0843 16.955 -3.96329
316 1 47.0891 19.0124 -2.44795 47.0891 19.0124 -2.44795
317 2 48.5723 19.3137 -0.530704 48.5723 19.3137 -0.530704
318 2 49.2678 18.6292 -3.56575 49.2678 18.6292 -3.56575
319 1 49.7163 17.1745 -1.46495 49.7163 17.1745 -1.46495
320 2 50.8472 17.8317 0.74899 50.8472 17.8317 0.74899
321 2 52.1634 16.7705 -2.01228 52.1634 16.7705 -2.01228
322 1 52.5976 18.972 -0.859413 52.5976 18.972 -0.859413
323 2 54.1372 19.7261 1.10204 54.1372 19.7261 1.10204
324 2 54.8839 18.5063 -1.88742 54.8839 18.5063 -1.88742
325 1 4.47458 20.6145 -0.680349 4.47458 20.6145 -0.680349
326 2 5.82837 21.4214 1.2608 5.82837 21.4214 1.2608
327 2 6.79792 20.1005 -1.48867 6.79792 20.1005 -1.48867
328 1 7.51293 22.3527 -0.303091 7.51293 22.3527 -0.303091
329 2 9.02527 22.9575 1.68879 9.02527 22.9575 1.68879
330 2 9.89848 21.8848 -1.23453 9.89848 21.8848 -1.23453
331 1 9.93909 20.8194 1.00729 9.93909 20.8194 1.00729
332 2 11.5339 21.131 2.94214 11.5339 21.131 2.94214
333 2 12.2796 20.3922 -0.136873 12.2796 20.3922 -0.136873
334 1 13.098 22.3927 1.29702 13.098 22.3927 1.29702
335 2 14.5074 22.8554 3.32455 14.5074 22.8554 3.32455
336 2 15.4139 22.1538 0.268123 15.4139 22.1538 0.268123
337 1 15.6809 20.8109 2.47819 15.6809 20.8109 2.47819
338 2 17.5927 20.8787 4.04847 17.5927 20.8787 4.04847
339 2 17.8153 20.8256 0.660844 17.8153 20.8256 0.660844
340 1 18.857 22.5425 2.44353 18.857 22.5425 2.44353
341 2 20.8169 22.5394 4.05273 20.8169 22.5394 4.05273
342 2 20.8001 22.5375 0.829355 20.8001 22.5375 0.829355
343 1 21.6336 20.7777 2.46175 21.6336 20.7777 2.46175
344 2 23.9209 20.4887 3.65745 23.9209 20.4887 3.65745
345 2 23.3379 21.1285 0.599101 23.3379 21.1285 0.599101
346 1 24.7651 22.4207 2.17448 24.7651 22.4207 2.17448
347 2 26.9221 21.711 3.36398 26.9221 21.711 3.36398
348 2 26.3869 22.8435 0.296978 26.3869 22.8435 0.296978
349 1 27.3034 20.713 1.27415 27.3034 20.713 1.27415
350 2 29.5981 20.1644 2.24096 29.5981 20.1644 2.24096
351 2 28.8013 21.3116 -0.73538 28.8013 21.3116 -0.73538
352 1 30.444 22.2738 1.13663 30.444 22.2738 1.13663
353 2 32.7656 21.7285 1.95118 32.7656 21.7285 1.95118
354 2 31.7823 23.0011 -0.88346 31.7823 23.0011 -0.88346
355 1 32.8941 20.7742 -0.320893 32.8941 20.7742 -0.320893
356 2 35.3469 20.3679 0.547767 35.3469 20.3679 0.547767
357 2 34.1792 21.2999 -2.37463 34.1792 21.2999 -2.37463
358 1 35.9648 22.4966 -0.784788 35.9648 22.4966 -0.784788
359 2 38.1359 21.903 0.278489 38.1359 21.903 0.278489
360 2 37.5186 23.0295 -2.6966 37.5186 23.0295 -2.6966
361 1 38.5117 20.87 -2.05345 38.5117 20.87 -2.05345
362 2 40.6693 20.6273 -0.697405 40.6693 20.6273 -0.697405
363 2 40.2755 21.1049 -3.94732 40.2755 21.1049 -3.94732
364 1 41.7337 22.4785 -2.18412 41.7337 22.4785 -2.18412
365 2 43.8419 22.2603 -0.828358 43.8419 22.2603 -0.828358
366 2 43.446 22.8281 -3.96091 43.446 22.8281 -3.96091
367 1 44.391 20.7834 -2.81812 44.391 20.7834 -2.81812
368 2 46.2619 20.8778 -1.00923 46.2619 20.8778 -1.00923
369 2 46.4211 20.5869 -4.22728 46.4211 20.5869 -4.22728
370 1 47.5505 22.4382 -2.67002 47.5505 22.4382 -2.67002
371 2 49.3765 22.5537 -0.790442 49.3765 22.5537 -0.790442
372 2 49.6455 22.1559 -3.99251 49.6455 22.1559 -3.99251
373 1 50.1848 20.5042 -2.08223 50.1848 20.5042 -2.08223
374 2 51.741 21.158 -0.0789818 51.741 21.158 -0.0789818
375 2 52.4624 20.0665 -3.21712 52.4624 20.0665 -3.21712
376 1 53.3227 22.1715 -1.90029 53.3227 22.1715 -1.90029
377 2 54.665 22.6786 0.111829 54.665 22.6786 0.111829
378 2 55.7081 21.8127 -2.88207 55.7081 21.8127 -2.88207
379 1 4.94523 23.8351 -1.43704 4.94523 23.8351 -1.43704
380 2 6.59508 24.5667 0.410008 6.59508 24.5667 0.410008
381 2 7.06152 23.4216 -2.67814 7.06152 23.4216 -2.67814
382 1 8.14218 25.5136 -1.39183 8.14218 25.5136 -1.39183
383 2 9.51919 26.1921 0.605887 9.51919 26.1921 0.605887
384 2 10.4575 25.0358 -2.3145 10.4575 25.0358 -2.3145
385 1 10.6144 23.9886 -0.0429184 10.6144 23.9886 -0.0429184
386 2 11.8025 24.4155 2.12704 11.8025 24.4155 2.12704
387 2 13.0319 23.7077 -0.903936 13.0319 23.7077 -0.903936
388 1 13.6363 25.7486 0.578925 13.6363 25.7486 0.578925
389 2 15.1206 26.3614 2.54907 15.1206 26.3614 2.54907
390 2 15.8479 25.2934 -0.461233 15.8479 25.2934 -0.461233
391 1 16.1679 24.1674 1.7678 16.1679 24.1674 1.7678
392 2 17.7999 24.5189 3.709 17.7999 24.5189 3.709
393 2 18.3195 23.9769 0.472613 18.3195 23.9769 0.472613
394 1 19.255 25.9134 2.01409 19.255 25.9134 2.01409
395 2 21.28 26.1357 3.78702 21.28 26.1357 3.78702
396 2 21.2726 25.4799 0.554029 21.2726 25.4799 0.554029
397 1 22.0195 24.2059 2.43932 22.0195 24.2059 2.43932
398 2 24.0954 24.0238 4.02098 24.0954 24.0238 4.02098
399 2 23.9285 24.318 0.68459 23.9285 24.318 0.68459
400 1 25.1861 25.6883 2.44009 25.1861 25.6883 2.44009
401 2 27.2682 25.6928 3.98465 27.2682 25.6928 3.98465
402 2 26.9883 25.7858 0.651318 26.9883 25.7858 0.651318
403 1 27.8331 23.9536 2.14026 27.8331 23.9536 2.14026
404 2 30.0087 23.4727 3.31661 30.0087 23.4727 3.31661
405 2 29.525 24.4554 0.285057 29.525 24.4554 0.285057
406 1 31.0475 25.5444 2.01618 31.0475 25.5444 2.01618
407 2 33.451 25.2631 3.03334 33.451 25.2631 3.03334
408 2 32.5959 26.0639 -0.048367 32.5959 26.0639 -0.048367
409 1 33.5614 23.9738 0.798626 33.5614 23.9738 0.798626
410 2 35.7309 23.2549 1.61553 35.7309 23.2549 1.61553
411 2 34.9368 24.7258 -1.20607 34.9368 24.7258 -1.20607
412 1 36.5334 25.5425 0.596365 36.5334 25.5425 0.596365
413 2 38.8007 24.9411 1.47816 38.8007 24.9411 1.47816
414 2 38.0273 26.0325 -1.46723 38.0273 26.0325 -1.46723
415 1 39.1145 23.9721 -0.829626 39.1145 23.9721 -0.829626
416 2 41.4029 23.5615 0.158967 41.4029 23.5615 0.158967
417 2 40.6178 24.6659 -2.85665 40.6178 24.6659 -2.85665
418 1 42.2179 25.7076 -1.09809 42.2179 25.7076 -1.09809
419 2 44.4199 25.4371 -0.0802712 44.4199 25.4371 -0.0802712
420 2 43.6733 26.2018 -3.13232 43.6733 26.2018 -3.13232
421 1 44.8249 24.1815 -2.21523 44.8249 24.1815 -2.21523
422 2 46.8539 23.8846 -0.739082 46.8539 23.8846 -0.739082
423 2 46.5643 24.3976 -4.02508 46.5643 24.3976 -4.02508
424 1 47.9042 25.7641 -2.27922 47.9042 25.7641 -2.27922
425 2 49.8883 25.7112 -0.855524 49.8883 25.7112 -0.855524
426 2 49.8587 25.642 -4.01028 49.8587 25.642 -4.01028
427 1 50.6575 23.9583 -2.43488 50.6575 23.9583 -2.43488
428 2 52.3682 24.1696 -0.699008 52.3682 24.1696 -0.699008
429 2 52.6502 23.6979 -3.92876 52.6502 23.6979 -3.92876
430 1 53.754 25.5133 -2.39458 53.754 25.5133 -2.39458
431 2 55.4907 26.0324 -0.498818 55.4907 26.0324 -0.498818
432 2 55.9569 25.1559 -3.60949 55.9569 25.1559 -3.60949
433 1 5.44008 27.1814 -2.37014 5.44008 27.1814 -2.37014
434 2 7.07494 27.5568 -0.4333 7.07494 27.5568 -0.4333
435 2 7.64411 26.812 -3.55365 7.64411 26.812 -3.55365
436 1 8.44203 28.7793 -2.21813 8.44203 28.7793 -2.21813
437 2 10.1672 29.4403 -0.32997 10.1672 29.4403 -0.32997
438 2 10.694 28.3333 -3.33342 10.694 28.3333 -3.33342
439 1 11.1386 27.1371 -1.16109 11.1386 27.1371 -1.16109
440 2 12.5419 28.0253 0.917014 12.5419 28.0253 0.917014
441 2 13.5846 26.7043 -1.83508 13.5846 26.7043 -1.83508
442 1 14.2283 29.0208 -0.827846 14.2283 29.0208 -0.827846
443 2 15.6683 29.8545 1.10046 15.6683 29.8545 1.10046
444 2 16.6625 28.4718 -1.75001 16.6625 28.4718 -1.75001
445 1 16.6202 27.4901 0.801364 16.6202 27.4901 0.801364
446 2 18.2387 28.11 2.74035 18.2387 28.11 2.74035
447 2 18.8321 26.9415 -0.258907 18.8321 26.9415 -0.258907
448 1 19.8245 29.117 0.861907 19.8245 29.117 0.861907
449 2 21.2347 29.5781 2.79087 21.2347 29.5781 2.79087
450 2 22.1065 28.6967 -0.154066 22.1065 28.6967 -0.154066
451 1 22.3898 27.4382 2.03272 22.3898 27.4382 2.03272
452 2 24.1466 27.6045 3.77055 24.1466 27.6045 3.77055
453 2 24.572 27.3719 0.662487 24.572 27.3719 0.662487
454 1 25.5756 29.1861 2.13139 25.5756 29.1861 2.13139
455 2 27.5076 29.2661 3.74793 27.5076 29.2661 3.74793
456 2 27.4483 29.0534 0.450734 27.4483 29.0534 0.450734
457 1 28.3084 27.444 2.25289 28.3084 27.444 2.25289
458 2 30.3325 27.2213 3.73449 30.3325 27.2213 3.73449
459 2 30.0583 27.404 0.478514 30.0583 27.404 0.478514
460 1 31.3242 28.9921 2.15839 31.3242 28.9921 2.15839
461 2 33.3699 28.6301 3.65089 33.3699 28.6301 3.65089
462 2 33.2165 29.3065 0.458493 33.2165 29.3065 0.458493
463 1 34.0097 27.2692 1.66569 34.0097 27.2692 1.66569
464 2 36.2667 26.8007 2.8241 36.2667 26.8007 2.8241
465 2 35.5876 27.6395 -0.361489 35.5876 27.6395 -0.361489
466 1 37.1759 28.8475 1.42356 37.1759 28.8475 1.42356
467 2 39.3788 28.4298 2.61592 39.3788 28.4298 2.61592
468 2 38.6416 29.4091 -0.558939 38.6416 29.4091 -0.558939
469 1 39.6458 27.1924 0.320427 39.6458 27.1924 0.320427
470 2 42.1177 26.8918 1.1622 42.1177 26.8918 1.1622
471 2 40.9841 27.7908 -1.82073 40.9841 27.7908 -1.82073
472 1 42.7137 29.0227 -0.250747 42.7137 29.0227 -0.250747
473 2 45.1586 28.5725 0.721834 45.1586 28.5725 0.721834
474 2 44.0488 29.5413 -2.30804 44.0488 29.5413 -2.30804
475 1 45.2897 27.4707 -1.53543 45.2897 27.4707 -1.53543
476 2 47.5546 27.453 -0.398544 47.5546 27.453 -0.398544
477 2 46.8511 27.631 -3.59961 46.8511 27.631 -3.59961
478 1 48.3746 29.154 -2.01897 48.3746 29.154 -2.01897
479 2 50.387 28.7867 -0.62978 50.387 28.7867 -0.62978
480 2 50.0867 29.4758 -3.75889 50.0867 29.4758 -3.75889
481 1 51.0578 27.3998 -2.57901 51.0578 27.3998 -2.57901
482 2 52.9058 27.2719 -0.79552 52.9058 27.2719 -0.79552
483 2 53.0565 27.3176 -4.0543 53.0565 27.3176 -4.0543
484 1 54.1397 28.9494 -2.34868 54.1397 28.9494 -2.34868
485 2 56.0348 29.0171 -0.786298 56.0348 29.0171 -0.786298
486 2 56.0869 28.8645 -4.02928 56.0869 28.8645 -4.02928
487 1 5.85614 30.5801 -2.59507 5.85614 30.5801 -2.59507
488 2 7.84928 30.8803 -0.955008 7.84928 30.8803 -0.955008
489 2 7.61836 30.2462 -4.25178 7.61836 30.2462 -4.25178
490 1 9.05568 32.1944 -2.9565 9.05568 32.1944 -2.9565
491 2 10.736 32.4716 -1.03267 10.736 32.4716 -1.03267
492 2 11.3235 31.9937 -4.18471 11.3235 31.9937 -4.18471
493 1 11.7615 30.5296 -2.22325 11.7615 30.5296 -2.22325
494 2 13.2192 31.2288 -0.359345 13.2192 31.2288 -0.359345
495 2 14.0003 29.9028 -3.12435 14.0003 29.9028 -3.12435
496 1 15.0155 32.0848 -2.03326 15.0155 32.0848 -2.03326
497 2 16.3087 32.7928 -0.0387944 16.3087 32.7928 -0.0387944
498 2 17.3039 31.7645 -2.98424 17.3039 31.7645 -2.98424
499 1 17.3741 30.605 -0.640143 17.3741 30.605 -0.640143
500 2 18.7622 31.2959 1.4401 18.7622 31.2959 1.4401
501 2 19.7716 30.2839 -1.52736 19.7716 30.2839 -1.52736
502 1 20.5548 32.2718 -0.219655 20.5548 32.2718 -0.219655
503 2 21.7612 32.8294 1.90641 21.7612 32.8294 1.90641
504 2 22.9298 31.912 -1.03863 22.9298 31.912 -1.03863
505 1 22.9748 30.6917 1.2268 22.9748 30.6917 1.2268
506 2 24.425 31.1193 3.1867 24.425 31.1193 3.1867
507 2 25.2249 30.6562 0.211044 25.2249 30.6562 0.211044
508 1 25.9553 32.6073 1.64453 25.9553 32.6073 1.64453
509 2 27.659 32.7029 3.55604 27.659 32.7029 3.55604
510 2 28.0201 32.3974 0.298077 28.0201 32.3974 0.298077
511 1 28.5878 30.7989 2.07173 28.5878 30.7989 2.07173
512 2 30.5144 30.7469 3.71615 30.5144 30.7469 3.71615
513 2 30.6088 30.772 0.541948 30.6088 30.772 0.541948
514 1 31.8027 32.4358 2.18673 31.8027 32.4358 2.18673
515 2 33.7864 32.3067 3.88521 33.7864 32.3067 3.88521
516 2 33.7624 32.3883 0.686984 33.7624 32.3883 0.686984
517 1 34.5524 30.6341 2.25663 34.5524 30.6341 2.25663
518 2 36.8368 30.0966 3.57611 36.8368 30.0966 3.57611
519 2 36.3177 30.9827 0.44162 36.3177 30.9827 0.44162
520 1 37.7427 32.2212 2.3843 37.7427 32.2212 2.3843
521 2 40.0383 31.7399 3.35761 40.0383 31.7399 3.35761
522 2 39.1574 32.6311 0.293581 39.1574 32.6311 0.293581
523 1 40.1752 30.5079 1.19328 40.1752 30.5079 1.19328
524 2 42.4064 29.8729 2.09915 42.4064 29.8729 2.09915
525 2 41.5978 31.1659 -0.717147 41.5978 31.1659 -0.717147
526 1 43.352 32.2273 0.883259 43.352 32.2273 0.883259
527 2 45.6173 31.6085 1.73246 45.6173 31.6085 1.73246
528 2 44.8928 32.9899 -1.11534 44.8928 32.9899 -1.11534
529 1 45.8317 30.7717 -0.670003 45.8317 30.7717 -0.670003
530 2 48.0199 30.2696 0.301236 48.0199 30.2696 0.301236
531 2 47.2094 31.3538 -2.69025 47.2094 31.3538 -2.69025
532 1 48.8639 32.4212 -0.97599 48.8639 32.4212 -0.97599
533 2 51.1019 31.9208 0.106999 51.1019 31.9208 0.106999
534 2 50.4248 32.8224 -2.97407 50.4248 32.8224 -2.97407
535 1 51.4526 30.7503 -1.9974 51.4526 30.7503 -1.9974
536 2 53.6398 30.5496 -0.562575 53.6398 30.5496 -0.562575
537 2 53.2743 30.7232 -3.78496 53.2743 30.7232 -3.78496
538 1 54.6178 32.348 -2.19911 54.6178 32.348 -2.19911
539 2 56.7673 32.3828 -0.788069 56.7673 32.3828 -0.788069