ITEM: TIMESTEP
4789000
ITEM: NUMBER OF ATOMS
810
ITEM: BOX BOUNDS xy xz yz pp pp pp
8.0341777045796159e-01 7.5874038190716504e+01 2.3659850961174001e+01
8.0582000660415243e-01 5.0210394993394715e+01 0.0000000000000000e+00
-1.0000000000000000e+01 1.0000000000000000e+01 0.0000000000000000e+00
ITEM: ATOMS id type x y z xu yu zu
1 1 23.1475 45.5789 9.84631 -0.512387 -3.82566 -10.1537
2 2 25.4256 46.3878 -9.36572 1.76575 -3.01675 -9.36572
3 2 24.7938 44.1142 8.39305 1.13391 -5.2904 -11.607
4 1 26.0125 46.2399 8.22375 2.35265 -3.16467 -11.7762
5 2 28.1622 47.147 9.25119 4.50235 -2.25754 -10.7488
6 2 27.8127 44.9098 7.04293 4.1528 -4.49482 -12.9571
7 1 28.9239 44.7778 9.22663 5.26407 -4.62673 -10.7734
8 2 30.6165 46.2252 -9.58578 6.95663 -3.17939 -9.58578
9 2 30.995 43.6483 8.3818 7.3352 -5.7563 -11.6182
10 1 31.7942 45.9304 8.21415 8.13436 -3.47417 -11.7858
11 2 33.5138 47.4367 9.35108 9.85392 -1.96787 -10.6489
12 2 33.8448 44.933 7.26105 10.1849 -4.47162 -12.739
13 1 34.5741 45.2083 9.73733 10.9143 -4.19624 -10.2627
14 2 36.1999 46.7152 -9.05907 12.54 -2.68936 -9.05907
15 2 36.8217 44.2967 8.78298 13.1619 -5.10783 -11.217
16 1 37.5188 46.7153 8.82198 13.8589 -2.68932 -11.178
17 2 39.1027 48.1528 -9.77086 15.4428 -1.25178 -9.77086
18 2 39.6634 45.8056 7.99257 16.0035 -3.59902 -12.0074
19 1 40.3935 45.9475 -9.56795 16.7337 -3.45703 -9.56795
20 2 41.6376 47.6377 -8.17913 17.9777 -1.76692 -8.17913
21 2 42.6977 45.2483 9.87361 19.0379 -4.15632 -10.1264
22 1 43.081 47.7493 9.74541 19.4211 -1.65526 -10.2546
23 2 44.5672 49.3204 -9.10871 20.9073 -0.0841766 -9.10871
24 2 45.2202 46.817 9.15358 21.5604 -2.58756 -10.8464
25 1 45.8031 47.2372 -8.4022 22.1433 -2.16741 -8.4022
26 2 47.4872 48.8584 -7.32495 23.8273 -0.546194 -7.32495
27 2 48.0244 46.3903 -9.15212 24.3646 -3.01432 -9.15212
28 1 36.3813 5.48373 6.68202 36.3813 5.48373 6.68202
29 2 38.1733 4.58419 5.18827 38.1733 4.58419 5.18827
30 2 35.463 5.73327 4.26827 35.463 5.73327 4.26827
31 1 36.2182 3.35337 4.13786 36.2182 3.35337 4.13786
32 2 37.9892 2.39997 2.61354 37.9892 2.39997 2.61354
33 2 35.1851 3.66837 1.91807 35.1851 3.66837 1.91807
34 1 37.5175 4.35823 1.17873 37.5175 4.35823 1.17873
35 2 39.6276 3.24112 0.401308 39.6276 3.24112 0.401308
36 2 36.9893 4.18181 -1.26 36.9893 4.18181 -1.26
37 1 38.0592 1.83902 -1.0047 38.0592 1.83902 -1.0047
38 2 63.8628 50.1827 -1.60696 40.2029 0.778099 -1.60696
39 2 37.6811 1.5663 -3.46411 37.6811 1.5663 -3.46411
40 1 40.0223 2.3416 -3.52925 40.0223 2.3416 -3.52925
41 2 42.3028 1.47934 -3.90289 42.3028 1.47934 -3.90289
42 2 39.9376 1.94529 -5.91582 39.9376 1.94529 -5.91582
43 1 64.8196 49.2509 -5.35798 41.1598 -0.153696 -5.35798
44 2 67.286 48.8827 -5.25021 43.6261 -0.521914 -5.25021
45 2 65.1411 48.2836 -7.58245 41.4812 -1.12093 -7.58245
46 1 67.2317 49.7327 -7.53155 43.5719 0.328152 -7.53155
47 2 69.763 49.4514 -7.34132 46.1032 0.0468202 -7.34132
48 2 67.6817 48.6949 -9.79792 44.0218 -0.709701 -9.79792
49 1 69.2077 47.2126 -8.50024 45.5479 -2.192 -8.50024
50 2 71.7052 47.4908 -7.88521 48.0453 -1.91374 -7.88521
51 2 70.2204 45.7697 9.70565 46.5606 -3.63485 -10.2944
52 1 71.9548 47.7451 9.60609 48.2949 -1.65947 -10.3939
53 2 74.3968 47.9916 -9.71677 50.737 -1.413 -9.71677
54 2 72.9686 46.3197 7.85628 49.3088 -3.08492 -12.1437
55 1 74.7033 48.2074 7.82859 -0.367339 -1.19716 -12.1714
56 2 25.6283 48.7456 8.6297 1.96841 -0.659023 -11.3703
57 2 24.5895 46.7827 6.12959 0.929628 -2.6219 -13.8704
58 1 26.1482 48.8261 6.12624 2.48832 -0.578455 -13.8738
59 2 28.2764 49.5277 7.27882 4.6165 0.123095 -12.7212
60 2 27.7725 47.4966 4.64659 4.11267 -1.908 -15.3534
61 1 29.0126 47.0989 6.87827 5.35274 -2.30566 -13.1217
62 2 30.8951 48.1921 8.12444 7.23523 -1.21245 -11.8756
63 2 30.9764 45.9087 5.83925 7.31658 -3.49585 -14.1608
64 1 31.8341 48.3507 5.85189 8.17429 -1.05384 -14.1481
65 2 33.5445 49.6075 7.10218 9.88468 0.202875 -12.8978
66 2 33.8839 47.2651 4.78923 10.224 -2.13946 -15.2108
67 1 34.7019 47.2857 7.16038 11.0421 -2.1189 -12.8396
68 2 36.1834 48.9103 8.5372 12.5235 -0.49424 -11.4628
69 2 36.9004 46.5346 6.34909 13.2405 -2.86999 -13.6509
70 1 37.5277 48.883 6.34943 13.8678 -0.521578 -13.6506
71 2 15.2587 0.793751 7.93912 15.2587 0.793751 -12.0609
72 2 39.8407 48.5798 5.60998 16.1809 -0.824741 -14.39
73 1 40.2994 48.2083 8.02739 16.6395 -1.19629 -11.9726
74 2 41.8232 49.7986 9.16973 18.1633 0.394006 -10.8303
75 2 42.4652 47.3378 7.26944 18.8053 -2.06678 -12.7306
76 1 35.9022 9.93339 -8.64068 35.9022 9.93339 11.3593
77 2 37.98 8.86822 -9.53082 37.98 8.86822 10.4692
78 2 35.5063 9.90885 8.69039 35.5063 9.90885 8.69039
79 1 36.1931 7.59513 9.00806 36.1931 7.59513 9.00806
80 2 38.2839 6.58939 7.94486 38.2839 6.58939 7.94486
81 2 35.5826 7.87156 6.55364 35.5826 7.87156 6.55364
82 1 38.0027 8.26578 6.20277 38.0027 8.26578 6.20277
83 2 39.6951 7.07031 4.83827 39.6951 7.07031 4.83827
84 2 36.9833 8.69762 3.93192 36.9833 8.69762 3.93192
85 1 37.6912 6.37944 3.58158 37.6912 6.37944 3.58158
86 2 39.5564 5.12679 2.454 39.5564 5.12679 2.454
87 2 36.8566 6.72089 1.25946 36.8566 6.72089 1.25946
88 1 39.4007 7.02319 0.981971 39.4007 7.02319 0.981971
89 2 41.2565 5.96739 -0.130209 41.2565 5.96739 -0.130209
90 2 38.5894 7.34235 -1.27888 38.5894 7.34235 -1.27888
91 1 39.4335 4.91278 -1.51125 39.4335 4.91278 -1.51125
92 2 41.5981 3.86244 -2.04338 41.5981 3.86244 -2.04338
93 2 39.0785 4.68336 -3.96119 39.0785 4.68336 -3.96119
94 1 41.4566 5.41482 -4.05562 41.4566 5.41482 -4.05562
95 2 43.7495 4.51636 -4.5592 43.7495 4.51636 -4.5592
96 2 41.1948 5.17579 -6.52495 41.1948 5.17579 -6.52495
97 1 42.2673 2.94441 -5.9474 42.2673 2.94441 -5.9474
98 2 44.6378 2.24617 -6.16739 44.6378 2.24617 -6.16739
99 2 42.2523 2.23704 -8.34749 42.2523 2.23704 -8.34749
100 1 44.4747 3.50316 -8.40434 44.4747 3.50316 -8.40434
101 2 46.9158 2.85699 -8.51667 46.9158 2.85699 -8.51667
102 2 44.7762 2.6231 9.23057 44.7762 2.6231 -10.7694
103 1 69.7113 50.1764 -9.73946 46.0514 0.771807 -9.73946
104 2 72.2176 50.0634 -9.36095 48.5577 0.658805 -9.36095
105 2 70.3809 49.0601 8.08593 46.7211 -0.344502 -11.9141
106 1 48.6677 1.21934 8.16654 48.6677 1.21934 -11.8335
107 2 51.2155 1.23017 8.50852 51.2155 1.23017 -11.4915
108 2 73.1772 49.2779 6.06941 49.5173 -0.126692 -13.9306
109 1 51.2948 1.64935 6.06388 -0.116004 1.64935 -13.9361
110 2 2.31696 1.72855 6.94424 2.31696 1.72855 -13.0558
111 2 24.7726 49.8936 4.14736 1.11278 0.488977 -15.8526
112 1 2.8002 2.25762 4.52849 2.8002 2.25762 -15.4715
113 2 5.14073 2.79361 5.13489 5.14073 2.79361 -14.8651
114 2 3.98676 0.733994 2.86358 3.98676 0.733994 -17.1364
115 1 29.081 49.7136 4.81814 5.42115 0.30899 -15.1819
116 2 7.4139 1.37917 5.98487 7.4139 1.37917 -14.0151
117 2 30.7969 48.5249 3.49372 7.13702 -0.879685 -16.5063
118 1 8.19813 1.33151 3.57059 8.19813 1.33151 -16.4294
119 2 9.96135 2.56176 4.98597 9.96135 2.56176 -15.014
120 2 33.8828 49.8501 2.52016 10.2229 0.445533 -17.4798
121 1 34.6945 49.676 4.89295 11.0346 0.271454 -15.107
122 2 12.4451 1.51696 6.48072 12.4451 1.51696 -13.5193
123 2 36.9933 49.4344 3.97625 13.3334 0.0298007 -16.0238
124 1 33.6832 14.8404 -5.48643 33.6832 14.8404 14.5136
125 2 35.9601 14.1689 -5.21835 35.9601 14.1689 14.7817
126 2 34.1216 14.3732 -7.8805 34.1216 14.3732 12.1195
127 1 35.066 12.2738 -6.76362 35.066 12.2738 13.2364
128 2 37.3481 11.5118 -7.34607 37.3481 11.5118 12.6539
129 2 34.8711 12.058 -9.31288 34.8711 12.058 10.6871
130 1 37.1868 12.9604 -9.26144 37.1868 12.9604 10.7386
131 2 39.3863 11.9466 -9.93941 39.3863 11.9466 10.0606
132 2 36.7428 12.8303 8.33233 36.7428 12.8303 8.33233
133 1 37.8948 10.5457 8.63109 37.8948 10.5457 8.63109
134 2 39.9032 9.3966 7.4814 39.9032 9.3966 7.4814
135 2 37.0639 10.6731 6.31845 37.0639 10.6731 6.31845
136 1 39.4392 11.2226 5.86141 39.4392 11.2226 5.86141
137 2 41.2751 10.1539 4.63014 41.2751 10.1539 4.63014
138 2 38.4894 11.5032 3.58102 38.4894 11.5032 3.58102
139 1 39.3646 9.18996 3.45974 39.3646 9.18996 3.45974
140 2 41.2666 8.00018 2.2284 41.2666 8.00018 2.2284
141 2 38.5018 9.36466 1.05889 38.5018 9.36466 1.05889
142 1 40.9645 9.86725 0.652816 40.9645 9.86725 0.652816
143 2 42.8396 8.85909 -0.573145 42.8396 8.85909 -0.573145
144 2 40.0396 10.1537 -1.65094 40.0396 10.1537 -1.65094
145 1 40.9777 7.79849 -1.83852 40.9777 7.79849 -1.83852
146 2 43.0314 6.72125 -2.60062 43.0314 6.72125 -2.60062
147 2 40.4363 7.6332 -4.26364 40.4363 7.6332 -4.26364
148 1 42.7816 8.45367 -4.50993 42.7816 8.45367 -4.50993
149 2 44.9956 7.35676 -4.9697 44.9956 7.35676 -4.9697
150 2 42.6899 8.35386 -7.07496 42.6899 8.35386 -7.07496
151 1 43.552 5.99784 -6.56428 43.552 5.99784 -6.56428
152 2 45.8089 5.07016 -6.96334 45.8089 5.07016 -6.96334
153 2 43.4018 5.68374 -9.00433 43.4018 5.68374 -9.00433
154 1 45.7908 6.53903 -8.98324 45.7908 6.53903 -8.98324
155 2 48.1051 5.54849 -9.26589 48.1051 5.54849 -9.26589
156 2 45.7747 5.97277 8.55766 45.7747 5.97277 -11.4423
157 1 46.8884 3.86792 9.22032 46.8884 3.86792 -10.7797
158 2 49.3464 3.21675 9.52527 49.3464 3.21675 -10.4747
159 2 47.2201 2.97621 6.9745 47.2201 2.97621 -13.0255
160 1 49.3899 4.20788 7.07135 49.3899 4.20788 -12.9287
161 2 51.9513 3.7909 7.00077 51.9513 3.7909 -12.9992
162 2 49.7207 3.10378 4.79675 49.7207 3.10378 -15.2032
163 1 51.7147 4.56685 4.64847 0.303926 4.56685 -15.3515
164 2 2.93501 4.66111 5.20133 2.93501 4.66111 -14.7987
165 2 52.8665 3.13562 2.69876 1.4557 3.13562 -17.3012
166 1 3.06916 5.11973 2.6726 3.06916 5.11973 -17.3274
167 2 5.37806 5.1646 3.48267 5.37806 5.1646 -16.5173
168 2 4.27056 3.80358 0.869636 4.27056 3.80358 -19.1304
169 1 5.48269 2.78091 2.7546 5.48269 2.78091 -17.2454
170 2 7.76632 3.603 2.63313 7.76632 3.603 -17.3669
171 2 6.86184 1.18055 1.51679 6.86184 1.18055 -18.4832
172 1 29.9181 19.7214 -3.46167 29.9181 19.7214 16.5383
173 2 32.3868 19.325 -2.78368 32.3868 19.325 17.2163
174 2 30.8696 18.9947 -5.71976 30.8696 18.9947 14.2802
175 1 31.8847 17.285 -4.16198 31.8847 17.285 15.838
176 2 34.2441 16.519 -3.77301 34.2441 16.519 16.227
177 2 32.7952 16.9062 -6.61173 32.7952 16.9062 13.3883
178 1 34.8034 17.9799 -5.71157 34.8034 17.9799 14.2884
179 2 37.2133 17.2022 -5.67314 37.2133 17.2022 14.3269
180 2 35.2347 17.427 -8.12641 35.2347 17.427 11.8736
181 1 36.3667 15.3994 -7.27288 36.3667 15.3994 12.7271
182 2 38.5891 14.29 -7.56557 38.5891 14.29 12.4344
183 2 36.3173 15.3156 -9.83847 36.3173 15.3156 10.1615
184 1 38.6953 16.0407 -9.60035 38.6953 16.0407 10.3996
185 2 40.7666 14.9105 9.63362 40.7666 14.9105 9.63362
186 2 38.1506 15.9069 7.91252 38.1506 15.9069 7.91252
187 1 39.1445 13.5662 8.24404 39.1445 13.5662 8.24404
188 2 41.0896 12.4767 7.31329 41.0896 12.4767 7.31329
189 2 38.4543 13.4752 5.78845 38.4543 13.4752 5.78845
190 1 40.853 14.2755 5.52883 40.853 14.2755 5.52883
191 2 42.7087 13.1538 4.52377 42.7087 13.1538 4.52377
192 2 40.0575 14.4831 3.15446 40.0575 14.4831 3.15446
193 1 40.8518 12.1449 3.05587 40.8518 12.1449 3.05587
194 2 42.8166 10.8692 1.88197 42.8166 10.8692 1.88197
195 2 40.0503 12.2672 0.728407 40.0503 12.2672 0.728407
196 1 42.4439 12.8465 0.34923 42.4439 12.8465 0.34923
197 2 44.3215 11.7283 -0.867006 44.3215 11.7283 -0.867006
198 2 41.664 13.1733 -1.96196 41.664 13.1733 -1.96196
199 1 42.398 10.7597 -2.18638 42.398 10.7597 -2.18638
200 2 44.4358 9.63898 -3.00384 44.4358 9.63898 -3.00384
201 2 41.9308 10.8402 -4.62187 41.9308 10.8402 -4.62187
202 1 44.4514 11.4004 -4.76895 44.4514 11.4004 -4.76895
203 2 46.5842 10.2711 -5.28512 46.5842 10.2711 -5.28512
204 2 44.2485 11.2043 -7.26356 44.2485 11.2043 -7.26356
205 1 45.1261 8.98049 -6.78836 45.1261 8.98049 -6.78836
206 2 47.3293 7.67935 -7.30084 47.3293 7.67935 -7.30084
207 2 45.0001 8.87177 -9.29903 45.0001 8.87177 -9.29903
208 1 47.5211 9.39297 -9.11063 47.5211 9.39297 -9.11063
209 2 49.5296 8.03175 -9.50656 49.5296 8.03175 -9.50656
210 2 48.3794 8.78915 7.10679 48.3794 8.78915 -12.8932
211 1 48.073 6.97685 8.74391 48.073 6.97685 -11.2561
212 2 50.3467 5.90195 8.56229 50.3467 5.90195 -11.4377
213 2 48.0127 6.11627 6.31195 48.0127 6.11627 -13.688
214 1 50.3029 7.31407 6.34536 50.3029 7.31407 -13.6546
215 2 52.6339 6.47769 6.00406 52.6339 6.47769 -13.9959
216 2 50.0421 6.46373 4.00899 50.0421 6.46373 -15.991
217 1 52.4641 7.74036 3.85582 1.05329 7.74036 -16.1442
218 2 54.7047 7.61482 2.61745 3.29397 7.61482 -17.3825
219 2 52.0779 5.76199 2.26213 0.667093 5.76199 -17.7379
220 1 24.9708 23.7052 -3.60354 24.9708 23.7052 16.3965
221 2 27.2558 24.205 -2.69795 27.2558 24.205 17.3021
222 2 26.4429 22.54 -5.35459 26.4429 22.54 14.6454
223 1 27.4793 21.8005 -3.18775 27.4793 21.8005 16.8122
224 2 29.914 22.0631 -2.50866 29.914 22.0631 17.4913
225 2 28.6494 20.8834 -5.1974 28.6494 20.8834 14.8026
226 1 30.4107 22.6836 -4.80686 30.4107 22.6836 15.1931
227 2 32.7986 22.7142 -4.00288 32.7986 22.7142 15.9971
228 2 31.6126 21.6881 -6.83486 31.6126 21.6881 13.1651
229 1 32.7872 20.4214 -4.99185 32.7872 20.4214 15.0081
230 2 35.264 20.0667 -4.55628 35.264 20.0667 15.4437
231 2 33.5576 19.6009 -7.192 33.5576 19.6009 12.808
232 1 35.5919 20.9963 -6.82998 35.5919 20.9963 13.17
233 2 37.9209 20.3893 -6.26502 37.9209 20.3893 13.735
234 2 36.3711 20.38 -9.12996 36.3711 20.38 10.87
235 1 37.4246 18.5086 -7.84568 37.4246 18.5086 12.1543
236 2 39.7976 17.5295 -7.94858 39.7976 17.5295 12.0514
237 2 37.5408 18.1943 9.64126 37.5408 18.1943 9.64126
238 1 39.8619 19.0626 10.0029 39.8619 19.0626 10.0029
239 2 42.0244 17.9503 9.5179 42.0244 17.9503 9.5179
240 2 39.5328 18.9032 7.53368 39.5328 18.9032 7.53368
241 1 40.5332 16.5842 7.88927 40.5332 16.5842 7.88927
242 2 42.4826 15.4446 7.11556 42.4826 15.4446 7.11556
243 2 40.0288 16.6315 5.43663 40.0288 16.6315 5.43663
244 1 42.4712 17.1641 5.31811 42.4712 17.1641 5.31811
245 2 44.3861 15.9624 4.3035 44.3861 15.9624 4.3035
246 2 41.8015 17.3945 2.9836 41.8015 17.3945 2.9836
247 1 42.5113 14.9851 2.85011 42.5113 14.9851 2.85011
248 2 44.4103 13.8908 1.63131 44.4103 13.8908 1.63131
249 2 41.5447 15.13 0.554647 41.5447 15.13 0.554647
250 1 43.9182 15.8434 -0.0295102 43.9182 15.8434 -0.0295102
251 2 45.909 14.6689 -0.972012 45.909 14.6689 -0.972012
252 2 43.1883 15.9544 -2.35888 43.1883 15.9544 -2.35888
253 1 44.102 13.6095 -2.39489 44.102 13.6095 -2.39489
254 2 46.1786 12.5049 -3.21998 46.1786 12.5049 -3.21998
255 2 43.536 13.7268 -4.82228 43.536 13.7268 -4.82228
256 1 45.9956 14.3569 -5.07081 45.9956 14.3569 -5.07081
257 2 48.1082 13.2001 -5.56139 48.1082 13.2001 -5.56139
258 2 45.6511 14.0942 -7.52531 45.6511 14.0942 -7.52531
259 1 46.7792 11.8822 -7.20831 46.7792 11.8822 -7.20831
260 2 48.8645 10.4355 -7.31599 48.8645 10.4355 -7.31599
261 2 48.061 11.1649 9.06728 48.061 11.1649 -10.9327
262 1 49.5073 12.0455 -9.09751 49.5073 12.0455 -9.09751
263 2 51.1839 10.1531 -9.01446 51.1839 10.1531 -9.01446
264 2 50.0033 11.257 6.70549 50.0033 11.257 -13.2945
265 1 50.1504 9.74566 8.7562 50.1504 9.74566 -11.2438
266 2 52.07 8.28487 7.91903 52.07 8.28487 -12.081
267 2 50.4265 9.13177 4.59813 50.4265 9.13177 -15.4019
268 1 52.181 10.2206 6.17154 52.181 10.2206 -13.8285
269 2 54.1562 8.79258 5.40869 54.1562 8.79258 -14.5913
270 2 52.6197 10.3391 3.53815 52.6197 10.3391 -16.4619
271 1 22.219 24.8654 -4.74077 22.219 24.8654 15.2592
272 2 24.0547 26.0696 -3.57464 24.0547 26.0696 16.4254
273 2 24.131 23.9183 -5.90268 24.131 23.9183 14.0973
274 1 25.0598 26.1868 -5.86026 25.0598 26.1868 14.1397
275 2 27.004 26.8753 -4.61906 27.004 26.8753 15.3809
276 2 26.8799 25.1777 -7.30492 26.8799 25.1777 12.6951
277 1 27.872 24.5213 -5.09677 27.872 24.5213 14.9032
278 2 30.06 24.8953 -3.9087 30.06 24.8953 16.0913
279 2 29.4749 23.646 -6.86207 29.4749 23.646 13.1379
280 1 30.8242 25.5644 -6.2462 30.8242 25.5644 13.7538
281 2 33.1201 25.6193 -5.41254 33.1201 25.6193 14.5875
282 2 32.0053 24.4371 -8.27067 32.0053 24.4371 11.7293
283 1 33.4182 23.406 -6.3464 33.4182 23.406 13.6536
284 2 35.8269 23.2765 -5.65407 35.8269 23.2765 14.3459
285 2 34.2826 22.5076 -8.47437 34.2826 22.5076 11.5256
286 1 36.1228 24.0948 -7.98332 36.1228 24.0948 12.0167
287 2 38.5354 23.8869 -7.23811 38.5354 23.8869 12.7619
288 2 37.0909 23.2484 9.91436 37.0909 23.2484 9.91436
289 1 38.4409 21.6789 -8.39182 38.4409 21.6789 11.6082
290 2 40.8718 20.7424 -8.57344 40.8718 20.7424 11.4266
291 2 38.6548 21.0738 9.16534 38.6548 21.0738 9.16534
292 1 40.8393 22.2548 9.35307 40.8393 22.2548 9.35307
293 2 43.2552 21.3236 9.14957 43.2552 21.3236 9.14957
294 2 40.874 21.7778 6.90336 40.874 21.7778 6.90336
295 1 42.0006 19.5536 7.63828 42.0006 19.5536 7.63828
296 2 44.0931 18.418 6.82589 44.0931 18.418 6.82589
297 2 41.6103 19.5368 5.18188 41.6103 19.5368 5.18188
298 1 44.1471 20.1046 5.08368 44.1471 20.1046 5.08368
299 2 46.1446 18.8745 4.00791 46.1446 18.8745 4.00791
300 2 43.4844 20.2835 2.60741 43.4844 20.2835 2.60741
301 1 44.2708 17.8895 2.62787 44.2708 17.8895 2.62787
302 2 46.055 16.7273 1.25435 46.055 16.7273 1.25435
303 2 43.3874 18.3864 0.306822 43.3874 18.3864 0.306822
304 1 45.8337 18.667 -0.340251 45.8337 18.667 -0.340251
305 2 47.7189 18.0647 -2.23484 47.7189 18.0647 -2.23484
306 2 44.508 18.9913 -2.46256 44.508 18.9913 -2.46256
307 1 45.6432 16.6436 -2.69643 45.6432 16.6436 -2.69643
308 2 47.537 15.2137 -3.24823 47.537 15.2137 -3.24823
309 2 45.259 16.7087 -5.13677 45.259 16.7087 -5.13677
310 1 47.7827 17.2367 -4.92096 47.7827 17.2367 -4.92096
311 2 49.6368 15.6995 -5.65416 49.6368 15.6995 -5.65416
312 2 47.4446 17.2318 -7.41177 47.4446 17.2318 -7.41177
313 1 48.1715 14.8461 -7.49737 48.1715 14.8461 -7.49737
314 2 50.3644 13.5951 -7.2989 50.3644 13.5951 -7.2989
315 2 49.2801 13.87 9.21522 49.2801 13.87 -10.7848
316 1 50.9984 14.9859 -9.31936 50.9984 14.9859 -9.31936
317 2 52.0198 12.7707 -9.45559 52.0198 12.7707 -9.45559
318 2 52.5811 15.1133 8.80066 52.5811 15.1133 -11.1993
319 1 51.3508 12.8704 8.07508 51.3508 12.8704 -11.9249
320 2 52.5787 10.8281 8.6429 52.5787 10.8281 -11.3571
321 2 53.2596 12.5491 6.4783 53.2596 12.5491 -13.5217
322 1 19.4943 25.5776 -6.48559 70.9051 25.5776 13.5144
323 2 21.0521 27.0659 -5.18004 72.4629 27.0659 14.82
324 2 21.7488 24.8251 -7.23082 73.1596 24.8251 12.7692
325 1 22.3741 27.2308 -7.24686 22.3741 27.2308 12.7531
326 2 24.1302 28.4385 -5.90394 24.1302 28.4385 14.0961
327 2 24.4194 26.2321 -8.24727 24.4194 26.2321 11.7527
328 1 25.2379 28.6286 -8.1215 25.2379 28.6286 11.8785
329 2 27.1732 29.7681 -6.99329 27.1732 29.7681 13.0067
330 2 27.157 27.4965 -9.26264 27.157 27.4965 10.7374
331 1 28.0484 27.4223 -6.83702 28.0484 27.4223 13.163
332 2 30.3449 28.0944 -5.83479 30.3449 28.0944 14.1652
333 2 29.6818 26.1638 -8.43149 29.6818 26.1638 11.5685
334 1 30.9855 28.2423 -8.27892 30.9855 28.2423 11.7211
335 2 33.2213 28.6867 -7.2506 33.2213 28.6867 12.7494
336 2 32.4868 27.111 10.0464 32.4868 27.111 10.0464
337 1 33.6873 26.3024 -7.86433 33.6873 26.3024 12.1357
338 2 36.013 26.3948 -7.01096 36.013 26.3948 12.989
339 2 34.8268 25.2994 -9.75404 34.8268 25.2994 10.246
340 1 36.4808 27.0834 -9.406 36.4808 27.0834 10.594
341 2 38.9253 27.0621 -8.57628 38.9253 27.0621 11.4237
342 2 37.5521 25.9486 8.62539 37.5521 25.9486 8.62539
343 1 38.9573 24.8137 -9.57646 38.9573 24.8137 10.4235
344 2 41.5332 24.3195 -9.29711 41.5332 24.3195 10.7029
345 2 39.5305 24.0752 8.10463 39.5305 24.0752 8.10463
346 1 41.6315 25.3333 8.41672 41.6315 25.3333 8.41672
347 2 43.9811 24.7708 8.50382 43.9811 24.7708 8.50382
348 2 41.8801 24.573 6.02147 41.8801 24.573 6.02147
349 1 43.2097 22.7709 7.07358 43.2097 22.7709 7.07358
350 2 45.528 21.6799 6.43801 45.528 21.6799 6.43801
351 2 42.9855 22.3759 4.54794 42.9855 22.3759 4.54794
352 1 45.2266 23.2391 4.47263 45.2266 23.2391 4.47263
353 2 47.3837 22.0608 3.85184 47.3837 22.0608 3.85184
354 2 44.9763 23.237 1.93704 44.9763 23.237 1.93704
355 1 45.923 20.7978 2.2313 45.923 20.7978 2.2313
356 2 47.7684 19.5063 1.06215 47.7684 19.5063 1.06215
357 2 45.1911 21.1869 -0.143191 45.1911 21.1869 -0.143191
358 1 47.6585 21.533 -0.503395 47.6585 21.533 -0.503395
359 2 49.0902 20.5008 -2.757 49.0902 20.5008 -2.757
360 2 46.2227 22.2769 -2.52505 46.2227 22.2769 -2.52505
361 1 46.6527 20.0055 -3.31471 46.6527 20.0055 -3.31471
362 2 50.0569 18.2035 -4.71631 50.0569 18.2035 -4.71631
363 2 46.7208 19.4018 -5.69432 46.7208 19.4018 -5.69432
364 1 49.1182 20.4151 -5.50065 49.1182 20.4151 -5.50065
365 2 51.1935 19.7974 -7.06608 51.1935 19.7974 -7.06608
366 2 48.5174 19.7652 -7.92883 48.5174 19.7652 -7.92883
367 1 49.9639 17.6567 -7.35765 49.9639 17.6567 -7.35765
368 2 52.0261 16.1012 -7.31798 52.0261 16.1012 -7.31798
369 2 48.9339 16.3451 -9.4407 48.9339 16.3451 -9.4407
370 1 14.2287 26.4421 9.93712 65.6394 26.4421 9.93712
371 2 14.4471 28.7568 -9.41195 65.8579 28.7568 10.588
372 2 16.5902 26.2688 9.41323 68.0009 26.2688 9.41323
373 1 16.8721 26.1641 -8.16906 68.2829 26.1641 11.8309
374 2 18.2289 27.8162 -7.00696 69.6397 27.8162 12.993
375 2 19.0592 25.3149 -8.85016 70.4699 25.3149 11.1498
376 1 19.6089 27.739 -9.01527 71.0196 27.739 10.9847
377 2 20.9439 29.347 -7.55685 72.3546 29.347 12.4431
378 2 21.8932 26.917 -9.6751 73.304 26.917 10.3249
379 1 22.6033 29.3912 -9.65114 22.6033 29.3912 10.3489
380 2 24.1903 30.8605 -8.4019 24.1903 30.8605 11.5981
381 2 24.6067 28.3712 9.47044 24.6067 28.3712 9.47044
382 1 25.4323 30.7361 9.42124 25.4323 30.7361 9.42124
383 2 27.201 32.0869 -9.43689 27.201 32.0869 10.5631
384 2 27.5012 29.6731 8.34054 27.5012 29.6731 8.34054
385 1 28.1947 29.7691 -9.21228 28.1947 29.7691 10.7877
386 2 30.2244 30.6735 -8.06564 30.2244 30.6735 11.9344
387 2 29.9651 28.4741 9.44528 29.9651 28.4741 9.44528
388 1 31.2116 30.7105 9.63336 31.2116 30.7105 9.63336
389 2 33.3185 31.3975 -9.22639 33.3185 31.3975 10.7736
390 2 32.7859 29.5736 8.06779 32.7859 29.5736 8.06779
391 1 33.9207 29.0234 -9.60555 33.9207 29.0234 10.3945
392 2 36.1349 29.4592 -8.57368 36.1349 29.4592 11.4263
393 2 35.2517 27.9718 8.58745 35.2517 27.9718 8.58745
394 1 36.8252 29.9471 8.98144 36.8252 29.9471 8.98144
395 2 39.165 30.2394 9.77575 39.165 30.2394 9.77575
396 2 38.056 28.83 7.0888 38.056 28.83 7.0888
397 1 39.3096 27.7962 9.02576 39.3096 27.7962 9.02576
398 2 41.7584 27.5412 9.66241 41.7584 27.5412 9.66241
399 2 40.2721 26.7154 6.85266 40.2721 26.7154 6.85266
400 1 42.1811 28.3543 7.25661 42.1811 28.3543 7.25661
401 2 44.6394 27.8718 7.48152 44.6394 27.8718 7.48152
402 2 42.6773 27.4861 4.93916 42.6773 27.4861 4.93916
403 1 44.1132 25.8371 6.18663 44.1132 25.8371 6.18663
404 2 46.3436 24.9026 6.01265 46.3436 24.9026 6.01265
405 2 44.1599 25.4424 3.66411 44.1599 25.4424 3.66411
406 1 46.4152 26.3356 3.84632 46.4152 26.3356 3.84632
407 2 48.6725 25.468 3.48972 48.6725 25.468 3.48972
408 2 46.2335 25.9362 1.32654 46.2335 25.9362 1.32654
409 1 47.4244 23.8081 2.00151 47.4244 23.8081 2.00151
410 2 49.4545 22.4212 1.08508 49.4545 22.4212 1.08508
411 2 47.0015 24.0467 -0.489506 47.0015 24.0467 -0.489506
412 1 49.5371 24.4309 -0.560679 49.5371 24.4309 -0.560679
413 2 50.795 22.7672 -1.98489 50.795 22.7672 -1.98489
414 2 48.8063 25.2153 -3.10294 48.8063 25.2153 -3.10294
415 1 48.5216 22.7993 -3.31195 48.5216 22.7993 -3.31195
416 2 50.1232 22.93 -5.05163 50.1232 22.93 -5.05163
417 2 47.1703 21.9957 -5.13844 47.1703 21.9957 -5.13844
418 1 60.1601 27.6729 6.7662 60.1601 27.6729 6.7662
419 2 60.371 30.0763 7.32723 60.371 30.0763 7.32723
420 2 62.4533 27.4945 5.92463 62.4533 27.4945 5.92463
421 1 62.9321 27.0037 8.2842 62.9321 27.0037 8.2842
422 2 62.973 29.4221 8.87285 62.973 29.4221 8.87285
423 2 13.9278 26.8965 7.59379 65.3385 26.8965 7.59379
424 1 65.4313 29.3932 8.10496 65.4313 29.3932 8.10496
425 2 15.6842 30.9567 9.32247 67.095 30.9567 9.32247
426 2 16.2705 28.459 7.34261 67.6813 28.459 7.34261
427 1 16.7928 28.687 9.69036 68.2036 28.687 9.69036
428 2 18.4838 29.9459 -9.04087 69.8946 29.9459 10.9591
429 2 18.9874 27.6882 8.63058 70.3981 27.6882 8.63058
430 1 19.6595 30.1047 8.80587 71.0702 30.1047 8.80587
431 2 21.3749 31.5882 -10.108 72.7857 31.5882 9.89204
432 2 21.8058 28.9178 8.05698 73.2166 28.9178 8.05698
433 1 22.4602 31.3208 7.74044 22.4602 31.3208 7.74044
434 2 24.1267 32.8251 8.95713 24.1267 32.8251 8.95713
435 2 24.671 30.3533 6.92076 24.671 30.3533 6.92076
436 1 25.428 32.7005 6.86912 25.428 32.7005 6.86912
437 2 27.1242 34.283 7.80759 27.1242 34.283 7.80759
438 2 27.4299 31.6416 5.91176 27.4299 31.6416 5.91176
439 1 28.252 31.9754 8.35516 28.252 31.9754 8.35516
440 2 30.2478 33.1848 9.32377 30.2478 33.1848 9.32377
441 2 30.2021 30.6333 7.35318 30.2021 30.6333 7.35318
442 1 31.2001 32.8746 7.04302 31.2001 32.8746 7.04302
443 2 33.1006 34.1232 8.11842 33.1006 34.1232 8.11842
444 2 33.0324 31.7766 5.82524 33.0324 31.7766 5.82524
445 1 34.0403 31.7742 8.25163 34.0403 31.7742 8.25163
446 2 36.224 32.4252 9.34158 36.224 32.4252 9.34158
447 2 35.5533 30.4486 6.82952 35.5533 30.4486 6.82952
448 1 36.9381 32.6156 6.93953 36.9381 32.6156 6.93953
449 2 39.1832 33.088 8.03795 39.1832 33.088 8.03795
450 2 38.4314 31.4547 5.29818 38.4314 31.4547 5.29818
451 1 39.6693 30.6832 7.3799 39.6693 30.6832 7.3799
452 2 42.0766 30.8528 8.18521 42.0766 30.8528 8.18521
453 2 40.8546 29.5759 5.3611 40.8546 29.5759 5.3611
454 1 42.5654 31.3807 5.82317 42.5654 31.3807 5.82317
455 2 45.0823 31.1138 6.35639 45.0823 31.1138 6.35639
456 2 43.3744 30.444 3.64755 43.3744 30.444 3.64755
457 1 44.8058 28.9229 5.24539 44.8058 28.9229 5.24539
458 2 47.2135 28.252 5.4343 47.2135 28.252 5.4343
459 2 45.192 28.2842 2.84399 45.192 28.2842 2.84399
460 1 47.4847 29.4753 3.0719 47.4847 29.4753 3.0719
461 2 49.8571 28.4488 3.01079 49.8571 28.4488 3.01079
462 2 47.831 29.2345 0.65037 47.831 29.2345 0.65037
463 1 48.6292 26.9121 1.43855 48.6292 26.9121 1.43855
464 2 50.7572 25.5749 1.23248 50.7572 25.5749 1.23248
465 2 48.5428 26.8733 -0.984159 48.5428 26.8733 -0.984159
466 1 50.9198 27.2827 -0.905682 50.9198 27.2827 -0.905682
467 2 52.0055 24.9835 -1.09827 52.0055 24.9835 -1.09827
468 2 51.179 27.4109 -3.53322 51.179 27.4109 -3.53322
469 1 51.1975 24.7924 -3.42547 51.1975 24.7924 -3.42547
470 2 57.4646 30.1942 5.39684 57.4646 30.1942 5.39684
471 2 59.5635 28.2516 4.45121 59.5635 28.2516 4.45121
472 1 59.8495 30.6533 4.87009 59.8495 30.6533 4.87009
473 2 61.6712 32.186 6.09291 61.6712 32.186 6.09291
474 2 62.1144 29.6123 3.99764 62.1144 29.6123 3.99764
475 1 62.6326 29.9612 6.40694 62.6326 29.9612 6.40694
476 2 64.2408 31.6157 7.5499 64.2408 31.6157 7.5499
477 2 64.9089 29.1024 5.67136 64.9089 29.1024 5.67136
478 1 65.6152 31.4155 5.52575 65.6152 31.4155 5.52575
479 2 67.2316 32.9622 6.79691 67.2316 32.9622 6.79691
480 2 16.2779 30.4473 4.75729 67.6886 30.4473 4.75729
481 1 16.9102 30.8427 7.18612 68.3209 30.8427 7.18612
482 2 18.4964 32.3309 8.4432 69.9071 32.3309 8.4432
483 2 18.9243 29.8826 6.34445 70.3351 29.8826 6.34445
484 1 19.7128 32.185 6.27357 71.1235 32.185 6.27357
485 2 21.4518 33.5369 7.48138 72.8626 33.5369 7.48138
486 2 21.8329 31.0555 5.28045 73.2437 31.0555 5.28045
487 1 22.5991 33.3814 5.20481 22.5991 33.3814 5.20481
488 2 24.2188 34.9557 6.33403 24.2188 34.9557 6.33403
489 2 24.7916 32.3589 4.4729 24.7916 32.3589 4.4729
490 1 25.5072 34.8591 4.21546 25.5072 34.8591 4.21546
491 2 27.2941 36.1698 5.30029 27.2941 36.1698 5.30029
492 2 27.5078 33.5896 3.41569 27.5078 33.5896 3.41569
493 1 28.3334 33.9601 5.70718 28.3334 33.9601 5.70718
494 2 30.1291 35.1328 6.91819 30.1291 35.1328 6.91819
495 2 30.2341 32.7799 4.6814 30.2341 32.7799 4.6814
496 1 31.153 35.1023 4.57226 31.153 35.1023 4.57226
497 2 33.0504 36.2568 5.80018 33.0504 36.2568 5.80018
498 2 33.1186 33.8985 3.46684 33.1186 33.8985 3.46684
499 1 34.0598 33.9734 5.8331 34.0598 33.9734 5.8331
500 2 35.9574 34.9603 7.10015 35.9574 34.9603 7.10015
501 2 35.9433 32.7781 4.67933 35.9433 32.7781 4.67933
502 1 37.043 35.0149 4.80754 37.043 35.0149 4.80754
503 2 39.217 35.9871 5.74196 39.217 35.9871 5.74196
504 2 38.7026 33.8011 3.34122 38.7026 33.8011 3.34122
505 1 39.9125 33.5158 5.59899 39.9125 33.5158 5.59899
506 2 42.3199 33.8403 6.4326 42.3199 33.8403 6.4326
507 2 41.1881 32.2119 3.86467 41.1881 32.2119 3.86467
508 1 42.7902 34.1221 3.92206 42.7902 34.1221 3.92206
509 2 45.0978 34.3242 4.94273 45.0978 34.3242 4.94273
510 2 43.9762 32.8927 2.05482 43.9762 32.8927 2.05482
511 1 45.3444 31.9902 4.02551 45.3444 31.9902 4.02551
512 2 47.8934 31.557 4.50132 47.8934 31.557 4.50132
513 2 46.1626 31.1683 1.74434 46.1626 31.1683 1.74434
514 1 48.1981 32.6302 2.18292 48.1981 32.6302 2.18292
515 2 50.5486 31.9253 2.88851 50.5486 31.9253 2.88851
516 2 49.3669 32.2181 -0.0117485 49.3669 32.2181 -0.0117485
517 1 50.2043 30.1205 1.04302 50.2043 30.1205 1.04302
518 2 52.0703 28.43 1.10623 52.0703 28.43 1.10623
519 2 50.0201 29.5852 -1.49493 50.0201 29.5852 -1.49493
520 1 54.3294 32.4328 1.86729 54.3294 32.4328 1.86729
521 2 55.7755 33.6068 3.43149 55.7755 33.6068 3.43149
522 2 56.5052 32.0466 0.680799 56.5052 32.0466 0.680799
523 1 57.1113 31.3119 3.1014 57.1113 31.3119 3.1014
524 2 58.4187 32.8959 4.45892 58.4187 32.8959 4.45892
525 2 59.3473 30.5651 2.40196 59.3473 30.5651 2.40196
526 1 59.8667 32.9896 2.40904 59.8667 32.9896 2.40904
527 2 61.5016 34.2952 3.85637 61.5016 34.2952 3.85637
528 2 62.0263 31.9895 1.42175 62.0263 31.9895 1.42175
529 1 62.7388 32.0395 3.9094 62.7388 32.0395 3.9094
530 2 64.4287 33.5618 5.06802 64.4287 33.5618 5.06802
531 2 64.8419 31.0997 3.07698 64.8419 31.0997 3.07698
532 1 65.6193 33.4386 2.78978 65.6193 33.4386 2.78978
533 2 67.1316 34.9909 4.16123 67.1316 34.9909 4.16123
534 2 16.3456 32.3687 2.19901 67.7564 32.3687 2.19901
535 1 16.9482 32.8362 4.56864 68.3589 32.8362 4.56864
536 2 18.69 34.2847 5.66025 70.1008 34.2847 5.66025
537 2 18.9763 31.5699 3.90153 70.387 31.5699 3.90153
538 1 19.7953 33.8346 3.48071 71.2061 33.8346 3.48071
539 2 21.2485 35.4318 4.56145 72.6593 35.4318 4.56145
540 2 21.9819 32.8553 2.82549 73.3927 32.8553 2.82549
541 1 22.6839 35.2602 2.53051 22.6839 35.2602 2.53051
542 2 24.3709 36.9251 3.51186 24.3709 36.9251 3.51186
543 2 24.8355 34.1171 1.94416 24.8355 34.1171 1.94416
544 1 25.7093 36.4593 1.38837 25.7093 36.4593 1.38837
545 2 27.3779 38.0698 2.50175 27.3779 38.0698 2.50175
546 2 27.9426 35.3605 0.635561 27.9426 35.3605 0.635561
547 1 28.4535 35.8943 3.05289 28.4535 35.8943 3.05289