ITEM: TIMESTEP
497000
ITEM: NUMBER OF ATOMS
810
ITEM: BOX BOUNDS xy xz yz pp pp pp
8.0341777045796159e-01 5.4669594606385992e+01 2.4554073768434890e+00
8.0582000660415243e-01 5.0210394993394715e+01 0.0000000000000000e+00
-1.0000000000000000e+01 1.0000000000000000e+01 0.0000000000000000e+00
ITEM: ATOMS id type x y z xu yu zu
1 1 1.04759 1.08512 -0.285999 1.04759 1.08512 -0.285999
2 2 5.69274 50.2582 0.968763 3.23734 0.853616 0.968763
3 2 2.65663 1.28165 -2.17121 2.65663 1.28165 -2.17121
4 1 4.01557 2.7322 -0.619584 4.01557 2.7322 -0.619584
5 2 6.13998 2.63083 0.700651 6.13998 2.63083 0.700651
6 2 5.7758 2.93406 -2.50279 5.7758 2.93406 -2.50279
7 1 6.79926 1.13552 -1.30661 6.79926 1.13552 -1.30661
8 2 8.77971 0.936666 0.225296 8.77971 0.936666 0.225296
9 2 8.65505 1.19256 -3.03547 8.65505 1.19256 -3.03547
10 1 9.73016 2.76104 -1.28591 9.73016 2.76104 -1.28591
11 2 11.7227 2.67383 0.230932 11.7227 2.67383 0.230932
12 2 11.5818 2.73644 -3.00523 11.5818 2.73644 -3.00523
13 1 12.613 1.01492 -1.53124 12.613 1.01492 -1.53124
14 2 14.3034 0.953892 0.179666 14.3034 0.953892 0.179666
15 2 14.6521 1.0302 -3.00454 14.6521 1.0302 -3.00454
16 1 15.4337 2.70891 -1.30116 15.4337 2.70891 -1.30116
17 2 17.033 2.81098 0.561689 17.033 2.81098 0.561689
18 2 17.597 2.52947 -2.70455 17.597 2.52947 -2.70455
19 1 18.1176 1.0014 -0.838891 18.1176 1.0014 -0.838891
20 2 19.6997 1.17695 1.07749 19.6997 1.17695 1.07749
21 2 20.2842 1.01229 -2.13641 20.2842 1.01229 -2.13641
22 1 21.111 2.64798 -0.470061 21.111 2.64798 -0.470061
23 2 22.647 2.64077 1.55539 22.647 2.64077 1.55539
24 2 23.2599 2.64169 -1.74992 23.2599 2.64169 -1.74992
25 1 23.8642 0.93406 0.150849 23.8642 0.93406 0.150849
26 2 25.4197 1.1908 2.04066 25.4197 1.1908 2.04066
27 2 26.0678 0.921534 -1.12788 26.0678 0.921534 -1.12788
28 1 26.7284 2.64535 0.512528 26.7284 2.64535 0.512528
29 2 28.5328 2.88478 2.38197 28.5328 2.88478 2.38197
30 2 28.8681 2.57953 -0.832192 28.8681 2.57953 -0.832192
31 1 29.5121 1.10955 1.06592 29.5121 1.10955 1.06592
32 2 31.423 1.12384 2.65034 31.423 1.12384 2.65034
33 2 31.4077 1.08432 -0.609096 31.4077 1.08432 -0.609096
34 1 32.5031 2.61904 0.912424 32.5031 2.61904 0.912424
35 2 34.4221 2.79022 2.5622 34.4221 2.79022 2.5622
36 2 34.4075 2.32131 -0.694993 34.4075 2.32131 -0.694993
37 1 35.2773 0.931702 1.17469 35.2773 0.931702 1.17469
38 2 37.0744 0.894672 2.89283 37.0744 0.894672 2.89283
39 2 37.2444 1.04511 -0.400169 37.2444 1.04511 -0.400169
40 1 38.1644 2.67617 1.41212 38.1644 2.67617 1.41212
41 2 40.1852 2.52023 2.94239 40.1852 2.52023 2.94239
42 2 40.0622 2.63816 -0.276842 40.0622 2.63816 -0.276842
43 1 41.0741 0.900941 1.2724 41.0741 0.900941 1.2724
44 2 45.6885 50.1027 2.69505 43.2331 0.698146 2.69505
45 2 42.7464 1.25821 -0.538108 42.7464 1.25821 -0.538108
46 1 43.9009 2.57114 1.21992 43.9009 2.57114 1.21992
47 2 46.0254 2.35731 2.61688 46.0254 2.35731 2.61688
48 2 45.6813 2.62744 -0.702467 45.6813 2.62744 -0.702467
49 1 46.8097 0.795332 0.756669 46.8097 0.795332 0.756669
50 2 51.5421 50.0865 1.89694 49.0867 0.681905 1.89694
51 2 48.3597 1.33989 -1.11423 48.3597 1.33989 -1.11423
52 1 49.7195 2.56347 0.498678 49.7195 2.56347 0.498678
53 2 51.892 2.23116 1.83959 51.892 2.23116 1.83959
54 2 51.3928 3.04666 -1.31548 51.3928 3.04666 -1.31548
55 1 1.33358 4.19976 0.456469 1.33358 4.19976 0.456469
56 2 3.62972 4.05573 1.49568 3.62972 4.05573 1.49568
57 2 2.68732 4.59367 -1.59407 2.68732 4.59367 -1.59407
58 1 4.18901 6.00945 -0.0156875 4.18901 6.00945 -0.0156875
59 2 6.38946 5.87822 1.19638 6.38946 5.87822 1.19638
60 2 5.80663 6.38741 -1.96282 5.80663 6.38741 -1.96282
61 1 6.89284 4.41703 -0.768257 6.89284 4.41703 -0.768257
62 2 8.97515 4.18221 0.675497 8.97515 4.18221 0.675497
63 2 8.5607 4.65753 -2.53661 8.5607 4.65753 -2.53661
64 1 9.82204 6.02886 -0.779938 9.82204 6.02886 -0.779938
65 2 11.9108 5.97917 0.688728 11.9108 5.97917 0.688728
66 2 11.5838 6.32017 -2.57943 11.5838 6.32017 -2.57943
67 1 12.6175 4.41292 -1.34476 12.6175 4.41292 -1.34476
68 2 14.4875 4.26581 0.297565 14.4875 4.26581 0.297565
69 2 14.5948 4.49862 -2.97022 14.5948 4.49862 -2.97022
70 1 15.5622 5.95205 -1.27134 15.5622 5.95205 -1.27134
71 2 17.3432 5.96346 0.482085 17.3432 5.96346 0.482085
72 2 17.579 5.90548 -2.73018 17.579 5.90548 -2.73018
73 1 18.358 4.20575 -0.995419 18.358 4.20575 -0.995419
74 2 20.0084 4.31672 0.899142 20.0084 4.31672 0.899142
75 2 20.4797 4.27349 -2.29435 20.4797 4.27349 -2.29435
76 1 21.276 5.89958 -0.603054 21.276 5.89958 -0.603054
77 2 23.0266 6.23208 1.18943 23.0266 6.23208 1.18943
78 2 23.3857 5.65019 -1.98804 23.3857 5.65019 -1.98804
79 1 23.9562 4.31477 0.0113213 23.9562 4.31477 0.0113213
80 2 25.779 4.51632 1.74471 25.779 4.51632 1.74471
81 2 26.0005 4.17117 -1.41439 26.0005 4.17117 -1.41439
82 1 27.0019 6.00229 0.0701373 27.0019 6.00229 0.0701373
83 2 28.8061 6.52298 1.76921 28.8061 6.52298 1.76921
84 2 28.9596 5.64897 -1.35819 28.9596 5.64897 -1.35819
85 1 29.6272 4.40502 0.661602 29.6272 4.40502 0.661602
86 2 31.5718 4.41995 2.42707 31.5718 4.41995 2.42707
87 2 31.6808 4.23638 -0.827703 31.6808 4.23638 -0.827703
88 1 32.6515 5.92512 0.639456 32.6515 5.92512 0.639456
89 2 34.4564 5.97495 2.30004 34.4564 5.97495 2.30004
90 2 34.5049 5.88057 -0.941397 34.5049 5.88057 -0.941397
91 1 35.421 4.21354 0.728022 35.421 4.21354 0.728022
92 2 36.9251 4.30246 2.75225 36.9251 4.30246 2.75225
93 2 37.5391 4.27603 -0.462385 37.5391 4.27603 -0.462385
94 1 38.2999 6.03013 1.25164 38.2999 6.03013 1.25164
95 2 40.2918 5.8197 2.92854 40.2918 5.8197 2.92854
96 2 40.3374 5.81295 -0.344372 40.3374 5.81295 -0.344372
97 1 41.1859 4.1489 1.36417 41.1859 4.1489 1.36417
98 2 43.1793 4.14939 2.92311 43.1793 4.14939 2.92311
99 2 43.0083 4.33198 -0.322426 43.0083 4.33198 -0.322426
100 1 44.0874 5.84742 1.30928 44.0874 5.84742 1.30928
101 2 46.1544 5.69566 2.76912 46.1544 5.69566 2.76912
102 2 45.9432 6.06674 -0.519753 45.9432 6.06674 -0.519753
103 1 46.8899 4.17547 0.939807 46.8899 4.17547 0.939807
104 2 48.9108 4.04699 2.45774 48.9108 4.04699 2.45774
105 2 48.7834 4.40231 -0.759961 48.7834 4.40231 -0.759961
106 1 49.899 5.8456 0.93066 49.899 5.8456 0.93066
107 2 51.9402 5.71892 2.28249 51.9402 5.71892 2.28249
108 2 51.5782 6.06616 -0.958562 51.5782 6.06616 -0.958562
109 1 1.40021 7.49792 0.62576 1.40021 7.49792 0.62576
110 2 3.4052 7.29447 1.98857 3.4052 7.29447 1.98857
111 2 3.14244 7.92817 -1.22283 3.14244 7.92817 -1.22283
112 1 4.37257 9.20528 0.644148 4.37257 9.20528 0.644148
113 2 6.59869 9.07399 1.77209 6.59869 9.07399 1.77209
114 2 5.79658 9.69049 -1.37698 5.79658 9.69049 -1.37698
115 1 7.10082 7.74625 -0.266179 7.10082 7.74625 -0.266179
116 2 9.06547 7.43353 1.24558 9.06547 7.43353 1.24558
117 2 8.89109 8.02961 -2.04543 8.89109 8.02961 -2.04543
118 1 10.0005 9.28635 -0.210822 10.0005 9.28635 -0.210822
119 2 12.1303 8.93541 1.13597 12.1303 8.93541 1.13597
120 2 11.7164 9.7048 -2.00565 11.7164 9.7048 -2.00565
121 1 12.7641 7.71119 -0.859144 12.7641 7.71119 -0.859144
122 2 14.8407 7.53305 0.551341 14.8407 7.53305 0.551341
123 2 14.5315 7.76246 -2.63772 14.5315 7.76246 -2.63772
124 1 15.6838 9.33345 -0.990856 15.6838 9.33345 -0.990856
125 2 17.6183 8.99475 0.624623 17.6183 8.99475 0.624623
126 2 17.6252 9.19381 -2.60169 17.6252 9.19381 -2.60169
127 1 18.4997 7.56469 -1.11685 18.4997 7.56469 -1.11685
128 2 20.3181 7.88869 0.6638 20.3181 7.88869 0.6638
129 2 20.5927 7.40667 -2.50896 20.5927 7.40667 -2.50896
130 1 21.4952 9.31905 -1.03599 21.4952 9.31905 -1.03599
131 2 23.2118 9.46704 0.735719 23.2118 9.46704 0.735719
132 2 23.5248 9.00518 -2.53633 23.5248 9.00518 -2.53633
133 1 24.1851 7.55597 -0.576557 24.1851 7.55597 -0.576557
134 2 25.9291 8.11262 1.14431 25.9291 8.11262 1.14431
135 2 26.1979 7.2096 -1.95297 26.1979 7.2096 -1.95297
136 1 27.1961 9.30212 -0.786261 27.1961 9.30212 -0.786261
137 2 28.8891 9.50863 1.11566 28.8891 9.50863 1.11566
138 2 29.3122 9.10092 -2.15351 29.3122 9.10092 -2.15351
139 1 29.9614 7.62922 -0.158428 29.9614 7.62922 -0.158428
140 2 31.659 7.98185 1.75472 31.659 7.98185 1.75472
141 2 32.0669 7.19619 -1.40222 32.0669 7.19619 -1.40222
142 1 32.833 9.22858 -0.0469605 32.833 9.22858 -0.0469605
143 2 34.5824 9.4224 1.80235 34.5824 9.4224 1.80235
144 2 35.0322 9.04806 -1.44512 35.0322 9.04806 -1.44512
145 1 35.558 7.50446 0.586346 35.558 7.50446 0.586346
146 2 37.1474 7.77724 2.55569 37.1474 7.77724 2.55569
147 2 37.6899 7.49199 -0.698128 37.6899 7.49199 -0.698128
148 1 38.5226 9.24737 0.979896 38.5226 9.24737 0.979896
149 2 40.4429 9.30396 2.73961 40.4429 9.30396 2.73961
150 2 40.4491 9.04053 -0.563519 40.4491 9.04053 -0.563519
151 1 41.3283 7.53529 1.32464 41.3283 7.53529 1.32464
152 2 43.3232 7.65626 2.92983 43.3232 7.65626 2.92983
153 2 43.1103 7.50359 -0.283492 43.1103 7.50359 -0.283492
154 1 44.3187 9.21924 1.27658 44.3187 9.21924 1.27658
155 2 46.1634 9.06627 2.92153 46.1634 9.06627 2.92153
156 2 46.3048 9.28316 -0.297085 46.3048 9.28316 -0.297085
157 1 47.1629 7.52464 1.19041 47.1629 7.52464 1.19041
158 2 49.0877 7.31656 2.83568 49.0877 7.31656 2.83568
159 2 48.9799 7.75694 -0.535841 48.9799 7.75694 -0.535841
160 1 50.115 9.20655 1.37328 50.115 9.20655 1.37328
161 2 52.3488 8.93123 2.63792 52.3488 8.93123 2.63792
162 2 51.7959 9.39912 -0.514778 51.7959 9.39912 -0.514778
163 1 1.65169 10.7906 1.16375 1.65169 10.7906 1.16375
164 2 3.78668 10.8259 2.55389 3.78668 10.8259 2.55389
165 2 3.2349 10.9713 -0.718515 3.2349 10.9713 -0.718515
166 1 4.51822 12.5154 0.799264 4.51822 12.5154 0.799264
167 2 6.67105 12.2926 2.20717 6.67105 12.2926 2.20717
168 2 6.23653 12.9178 -1.00355 6.23653 12.9178 -1.00355
169 1 7.3412 10.9816 0.181984 7.3412 10.9816 0.181984
170 2 9.23942 10.6897 1.75767 9.23942 10.6897 1.75767
171 2 9.15058 11.2845 -1.50648 9.15058 11.2845 -1.50648
172 1 10.2281 12.5815 0.392281 10.2281 12.5815 0.392281
173 2 12.3118 12.4863 1.78566 12.3118 12.4863 1.78566
174 2 11.8891 12.8401 -1.54638 11.8891 12.8401 -1.54638
175 1 12.929 10.9647 -0.19751 12.929 10.9647 -0.19751
176 2 15.1994 10.7872 1.03625 15.1994 10.7872 1.03625
177 2 14.5835 11.2607 -2.0827 14.5835 11.2607 -2.0827
178 1 15.9175 12.5942 -0.462302 15.9175 12.5942 -0.462302
179 2 18.0091 12.4116 0.914545 18.0091 12.4116 0.914545
180 2 17.6536 12.7158 -2.26155 17.6536 12.7158 -2.26155
181 1 18.678 10.8436 -0.952837 18.678 10.8436 -0.952837
182 2 20.5374 10.8925 0.663621 20.5374 10.8925 0.663621
183 2 20.4566 10.9006 -2.68421 20.4566 10.9006 -2.68421
184 1 21.6277 12.5511 -1.06216 21.6277 12.5511 -1.06216
185 2 23.5172 12.5493 0.549782 23.5172 12.5493 0.549782
186 2 23.6047 12.5129 -2.77915 23.6047 12.5129 -2.77915
187 1 24.3477 10.902 -1.0856 24.3477 10.902 -1.0856
188 2 26.2456 11.0867 0.68267 26.2456 11.0867 0.68267
189 2 26.3611 10.9761 -2.5815 26.3611 10.9761 -2.5815
190 1 27.3835 12.6254 -0.888846 27.3835 12.6254 -0.888846
191 2 29.0771 12.6806 0.861617 29.0771 12.6806 0.861617
192 2 29.3508 12.5789 -2.42262 29.3508 12.5789 -2.42262
193 1 30.0975 10.9274 -0.639136 30.0975 10.9274 -0.639136
194 2 31.7608 11.1439 1.22385 31.7608 11.1439 1.22385
195 2 32.1474 10.6658 -2.087 32.1474 10.6658 -2.087
196 1 33.0493 12.4665 -0.474007 33.0493 12.4665 -0.474007
197 2 34.7297 12.6724 1.38339 34.7297 12.6724 1.38339
198 2 35.1566 12.2267 -1.72729 35.1566 12.2267 -1.72729
199 1 35.8971 10.7896 0.173194 35.8971 10.7896 0.173194
200 2 37.3564 11.1086 2.17109 37.3564 11.1086 2.17109
201 2 38.0512 10.5106 -1.07067 38.0512 10.5106 -1.07067
202 1 38.7336 12.5146 0.494932 38.7336 12.5146 0.494932
203 2 40.5629 12.6177 2.33652 40.5629 12.6177 2.33652
204 2 40.9296 12.3752 -1.02245 40.9296 12.3752 -1.02245
205 1 41.5005 10.8224 1.02002 41.5005 10.8224 1.02002
206 2 43.3522 11.041 2.8241 43.3522 11.041 2.8241
207 2 43.5646 10.862 -0.426086 43.5646 10.862 -0.426086
208 1 44.4723 12.6289 1.27451 44.4723 12.6289 1.27451
209 2 46.356 12.7259 2.96101 46.356 12.7259 2.96101
210 2 46.5487 12.6104 -0.245276 46.5487 12.6104 -0.245276
211 1 47.2564 10.8471 1.50704 47.2564 10.8471 1.50704
212 2 49.2545 10.8316 3.05994 49.2545 10.8316 3.05994
213 2 49.114 10.7803 -0.196032 49.114 10.7803 -0.196032
214 1 50.2258 12.4402 1.4226 50.2258 12.4402 1.4226
215 2 52.2844 12.3747 2.91191 52.2844 12.3747 2.91191
216 2 52.0784 12.5962 -0.256964 52.0784 12.5962 -0.256964
217 1 1.74399 14.1704 1.34887 1.74399 14.1704 1.34887
218 2 3.91465 14.1288 2.6468 3.91465 14.1288 2.6468
219 2 3.48623 14.1626 -0.592076 3.48623 14.1626 -0.592076
220 1 4.65058 15.8546 0.909414 4.65058 15.8546 0.909414
221 2 6.55545 15.761 2.57674 6.55545 15.761 2.57674
222 2 6.71015 16.1727 -0.686589 6.71015 16.1727 -0.686589
223 1 7.43084 14.236 0.78637 7.43084 14.236 0.78637
224 2 9.39655 13.911 2.32455 9.39655 13.911 2.32455
225 2 9.17709 14.4398 -0.941744 9.17709 14.4398 -0.941744
226 1 10.4089 15.7335 0.950054 10.4089 15.7335 0.950054
227 2 12.5543 15.4411 2.22123 12.5543 15.4411 2.22123
228 2 12.0278 16.2114 -0.909602 12.0278 16.2114 -0.909602
229 1 13.1387 14.2169 0.162222 13.1387 14.2169 0.162222
230 2 15.305 14.1257 1.37458 15.305 14.1257 1.37458
231 2 14.8363 14.351 -1.80242 14.8363 14.351 -1.80242
232 1 16.0424 15.9569 -0.230912 16.0424 15.9569 -0.230912
233 2 18.0855 15.8659 1.17273 18.0855 15.8659 1.17273
234 2 17.6601 15.8483 -2.05593 17.6601 15.8483 -2.05593
235 1 18.8533 14.2278 -0.564905 18.8533 14.2278 -0.564905
236 2 20.9806 14.1582 0.708829 20.9806 14.1582 0.708829
237 2 20.4447 14.4347 -2.46296 20.4447 14.4347 -2.46296
238 1 21.7468 15.9298 -0.901633 21.7468 15.9298 -0.901633
239 2 23.6592 15.8529 0.649005 23.6592 15.8529 0.649005
240 2 23.6607 15.974 -2.61448 23.6607 15.974 -2.61448
241 1 24.5642 14.2428 -1.06057 24.5642 14.2428 -1.06057
242 2 26.3662 14.2169 0.719508 26.3662 14.2169 0.719508
243 2 26.5459 14.3565 -2.55824 26.5459 14.3565 -2.55824
244 1 27.4804 15.8888 -0.785042 27.4804 15.8888 -0.785042
245 2 29.4403 15.9386 0.861482 29.4403 15.9386 0.861482
246 2 29.3531 15.8482 -2.41479 29.3531 15.8482 -2.41479
247 1 30.3019 14.2261 -0.761445 30.3019 14.2261 -0.761445
248 2 32.02 14.3501 0.997685 32.02 14.3501 0.997685
249 2 32.3493 14.0988 -2.19835 32.3493 14.0988 -2.19835
250 1 33.2577 15.8636 -0.582946 33.2577 15.8636 -0.582946
251 2 35.0945 15.9799 1.06612 35.0945 15.9799 1.06612
252 2 35.2198 15.5405 -2.19227 35.2198 15.5405 -2.19227
253 1 36.0081 14.1043 -0.350966 36.0081 14.1043 -0.350966
254 2 37.6164 14.6225 1.4511 37.6164 14.6225 1.4511
255 2 38.15 13.7511 -1.59337 38.15 13.7511 -1.59337
256 1 38.9688 15.7644 -0.274674 38.9688 15.7644 -0.274674
257 2 40.5298 15.9726 1.77157 40.5298 15.9726 1.77157
258 2 41.2789 15.6787 -1.47107 41.2789 15.6787 -1.47107
259 1 41.7035 14.1481 0.545012 41.7035 14.1481 0.545012
260 2 43.2334 14.4169 2.45025 43.2334 14.4169 2.45025
261 2 43.8793 14.0648 -0.700183 43.8793 14.0648 -0.700183
262 1 44.5873 15.8863 0.90958 44.5873 15.8863 0.90958
263 2 46.3212 16.1283 2.72639 46.3212 16.1283 2.72639
264 2 46.6821 15.7815 -0.50787 46.6821 15.7815 -0.50787
265 1 47.4013 14.2811 1.39591 47.4013 14.2811 1.39591
266 2 49.3136 14.16 2.99517 49.3136 14.16 2.99517
267 2 49.3829 14.2653 -0.274909 49.3829 14.2653 -0.274909
268 1 50.3415 15.8727 1.41992 50.3415 15.8727 1.41992
269 2 52.292 15.9799 2.90762 52.292 15.9799 2.90762
270 2 52.2834 15.8334 -0.309975 52.2834 15.8334 -0.309975
271 1 1.83624 17.5344 1.25819 1.83624 17.5344 1.25819
272 2 3.87974 17.4061 2.58772 3.87974 17.4061 2.58772
273 2 3.58382 17.5686 -0.527636 3.58382 17.5686 -0.527636
274 1 4.765 19.1918 1.00444 4.765 19.1918 1.00444
275 2 6.57624 19.2504 2.72156 6.57624 19.2504 2.72156
276 2 6.92006 19.2727 -0.477523 6.92006 19.2727 -0.477523
277 1 7.58841 17.5638 1.22244 7.58841 17.5638 1.22244
278 2 9.63603 17.3101 2.70485 9.63603 17.3101 2.70485
279 2 9.42671 17.5598 -0.503197 9.42671 17.5598 -0.503197
280 1 10.5697 19.1268 1.08391 10.5697 19.1268 1.08391
281 2 12.6032 19.0421 2.57244 12.6032 19.0421 2.57244
282 2 12.2531 19.213 -0.71362 12.2531 19.213 -0.71362
283 1 13.3057 17.4581 0.786713 13.3057 17.4581 0.786713
284 2 15.5794 17.2589 1.9126 15.5794 17.2589 1.9126
285 2 14.7905 17.8154 -1.26306 14.7905 17.8154 -1.26306
286 1 16.2964 19.1435 0.284228 16.2964 19.1435 0.284228
287 2 18.4136 18.8022 1.63399 18.4136 18.8022 1.63399
288 2 17.9667 19.4779 -1.73021 17.9667 19.4779 -1.73021
289 1 18.9632 17.4517 -0.464266 18.9632 17.4517 -0.464266
290 2 20.9989 17.3534 1.00995 20.9989 17.3534 1.00995
291 2 20.7048 17.833 -2.24633 20.7048 17.833 -2.24633
292 1 21.9508 19.252 -0.513966 21.9508 19.252 -0.513966
293 2 23.9959 19.1084 0.920841 23.9959 19.1084 0.920841
294 2 23.637 19.3167 -2.3546 23.637 19.3167 -2.3546
295 1 24.6747 17.5302 -0.895077 24.6747 17.5302 -0.895077
296 2 26.5151 17.6019 0.763951 26.5151 17.6019 0.763951
297 2 26.5406 17.5441 -2.53865 26.5406 17.5441 -2.53865
298 1 27.6602 19.1252 -0.886443 27.6602 19.1252 -0.886443
299 2 29.4784 19.3687 0.722257 29.4784 19.3687 0.722257
300 2 29.5338 19.0364 -2.4554 29.5338 19.0364 -2.4554
301 1 30.4521 17.4651 -0.805306 30.4521 17.4651 -0.805306
302 2 32.4455 17.8001 0.68753 32.4455 17.8001 0.68753
303 2 32.3754 17.2284 -2.41042 32.3754 17.2284 -2.41042
304 1 33.383 19.1148 -1.19924 33.383 19.1148 -1.19924
305 2 35.0455 19.2589 0.682486 35.0455 19.2589 0.682486
306 2 35.48 18.9865 -2.61565 35.48 18.9865 -2.61565
307 1 36.134 17.4273 -0.753174 36.134 17.4273 -0.753174
308 2 37.9424 17.7323 1.06388 37.9424 17.7323 1.06388
309 2 38.2607 17.1612 -2.15247 38.2607 17.1612 -2.15247
310 1 39.1033 19.0517 -0.730137 39.1033 19.0517 -0.730137
311 2 40.6806 19.5862 1.20114 40.6806 19.5862 1.20114
312 2 41.2029 18.7127 -1.95177 41.2029 18.7127 -1.95177
313 1 41.8637 17.4304 0.197158 41.8637 17.4304 0.197158
314 2 43.4568 17.7979 2.02389 43.4568 17.7979 2.02389
315 2 43.9324 17.2139 -1.10956 43.9324 17.2139 -1.10956
316 1 44.8406 19.1722 0.338111 44.8406 19.1722 0.338111
317 2 46.4515 19.6957 2.14187 46.4515 19.6957 2.14187
318 2 46.8443 18.8697 -0.977724 46.8443 18.8697 -0.977724
319 1 47.4917 17.5337 1.00579 47.4917 17.5337 1.00579
320 2 49.2044 17.8513 2.8172 49.2044 17.8513 2.8172
321 2 49.598 17.3525 -0.45124 49.598 17.3525 -0.45124
322 1 50.3967 19.18 0.990315 50.3967 19.18 0.990315
323 2 52.359 19.37 2.66669 52.359 19.37 2.66669
324 2 52.3064 19.0087 -0.611711 52.3064 19.0087 -0.611711
325 1 2.0443 20.8889 0.92798 2.0443 20.8889 0.92798
326 2 4.00142 21.1488 2.39401 4.00142 21.1488 2.39401
327 2 3.85622 20.6403 -0.770959 3.85622 20.6403 -0.770959
328 1 4.98993 22.5707 0.473568 4.98993 22.5707 0.473568
329 2 6.61326 22.6718 2.46516 6.61326 22.6718 2.46516
330 2 7.16155 22.4253 -0.749861 7.16155 22.4253 -0.749861
331 1 7.7087 20.8752 1.18621 7.7087 20.8752 1.18621
332 2 9.66684 20.8096 2.81052 9.66684 20.8096 2.81052
333 2 9.59044 20.8458 -0.369861 9.59044 20.8458 -0.369861
334 1 10.6046 22.4644 1.15313 10.6046 22.4644 1.15313
335 2 12.7267 22.4997 2.56691 12.7267 22.4997 2.56691
336 2 12.4619 22.5241 -0.578471 12.4619 22.5241 -0.578471
337 1 13.4378 20.7638 0.861094 13.4378 20.7638 0.861094
338 2 15.5446 20.6487 2.2518 15.5446 20.6487 2.2518
339 2 15.0916 20.8231 -1.03649 15.0916 20.8231 -1.03649
340 1 16.4016 22.4266 0.64925 16.4016 22.4266 0.64925
341 2 18.7131 22.3313 2.02616 18.7131 22.3313 2.02616
342 2 18.1088 22.6142 -1.24232 18.1088 22.6142 -1.24232
343 1 19.2358 20.7997 0.00828968 19.2358 20.7997 0.00828968
344 2 21.3023 20.8064 1.38076 21.3023 20.8064 1.38076
345 2 20.7903 20.9327 -1.94692 20.7903 20.9327 -1.94692
346 1 22.028 22.5501 -0.36095 22.028 22.5501 -0.36095
347 2 24.1085 22.3486 1.10944 24.1085 22.3486 1.10944
348 2 23.7928 22.7652 -2.16452 23.7928 22.7652 -2.16452
349 1 24.8016 20.901 -0.787046 24.8016 20.901 -0.787046
350 2 26.8225 20.949 0.703485 26.8225 20.949 0.703485
351 2 26.6249 20.6847 -2.54091 26.6249 20.6847 -2.54091
352 1 27.8014 22.371 -1.12683 27.8014 22.371 -1.12683
353 2 29.6329 22.4607 0.638327 29.6329 22.4607 0.638327
354 2 29.8232 22.494 -2.60906 29.8232 22.494 -2.60906
355 1 30.5161 20.7998 -1.07497 30.5161 20.7998 -1.07497
356 2 32.557 20.8746 0.471357 32.557 20.8746 0.471357
357 2 32.3895 20.7195 -2.8586 32.3895 20.7195 -2.8586
358 1 33.5674 22.4135 -1.26803 33.5674 22.4135 -1.26803
359 2 35.4116 22.5211 0.430584 35.4116 22.5211 0.430584
360 2 35.4768 22.2555 -2.83053 35.4768 22.2555 -2.83053
361 1 36.2314 20.7443 -0.994371 36.2314 20.7443 -0.994371
362 2 38.1541 21.0432 0.676873 38.1541 21.0432 0.676873
363 2 38.2264 20.6386 -2.52609 38.2264 20.6386 -2.52609
364 1 39.3002 22.2975 -1.12308 39.3002 22.2975 -1.12308
365 2 41.0257 22.5175 0.756105 41.0257 22.5175 0.756105
366 2 41.3966 22.1118 -2.51453 41.3966 22.1118 -2.51453
367 1 42.0366 20.6437 -0.596408 42.0366 20.6437 -0.596408
368 2 43.71 21.3199 1.18851 43.71 21.3199 1.18851
369 2 44.2039 20.2621 -1.9173 44.2039 20.2621 -1.9173
370 1 44.8755 22.3691 -0.659282 44.8755 22.3691 -0.659282
371 2 46.5484 22.7571 1.19142 46.5484 22.7571 1.19142
372 2 47.1232 22.0468 -1.87319 47.1232 22.0468 -1.87319
373 1 47.679 20.7969 0.283861 47.679 20.7969 0.283861
374 2 49.48 21.1975 2.08707 49.48 21.1975 2.08707
375 2 49.6264 20.5167 -1.04441 49.6264 20.5167 -1.04441
376 1 50.6342 22.5107 0.241375 50.6342 22.5107 0.241375
377 2 52.3914 22.9199 1.95244 52.3914 22.9199 1.95244
378 2 52.7828 22.1844 -1.19265 52.7828 22.1844 -1.19265
379 1 2.06896 24.2018 0.180029 2.06896 24.2018 0.180029
380 2 3.89118 24.2456 1.973 3.89118 24.2456 1.973
381 2 4.2018 24.1107 -1.31673 4.2018 24.1107 -1.31673
382 1 5.09491 25.8827 0.371921 5.09491 25.8827 0.371921
383 2 6.82115 25.9765 2.14201 6.82115 25.9765 2.14201
384 2 7.18294 25.7563 -1.04328 7.18294 25.7563 -1.04328
385 1 7.87335 24.197 0.840898 7.87335 24.197 0.840898
386 2 9.52857 24.2425 2.65913 9.52857 24.2425 2.65913
387 2 9.9773 24.2275 -0.605666 9.9773 24.2275 -0.605666
388 1 10.8236 25.7909 1.05965 10.8236 25.7909 1.05965
389 2 12.6744 25.7717 2.60315 12.6744 25.7717 2.60315
390 2 12.696 25.714 -0.662161 12.696 25.714 -0.662161
391 1 13.6725 24.0701 0.976159 13.6725 24.0701 0.976159
392 2 15.6457 24.021 2.4768 15.6457 24.021 2.4768
393 2 15.4262 24.0932 -0.85296 15.4262 24.0932 -0.85296
394 1 16.5437 25.7584 0.78672 16.5437 25.7584 0.78672
395 2 18.6482 25.761 2.15713 18.6482 25.761 2.15713
396 2 18.2276 25.8302 -1.08562 18.2276 25.8302 -1.08562
397 1 19.3098 24.1338 0.431324 19.3098 24.1338 0.431324
398 2 21.4597 23.9054 1.63955 21.4597 23.9054 1.63955
399 2 20.8747 24.5358 -1.48672 20.8747 24.5358 -1.48672
400 1 22.2883 25.7675 0.152765 22.2883 25.7675 0.152765
401 2 24.4706 25.6173 1.43371 24.4706 25.6173 1.43371
402 2 23.8638 26.0242 -1.65497 23.8638 26.0242 -1.65497
403 1 25.0541 24.1346 -0.437018 25.0541 24.1346 -0.437018
404 2 27.2321 24.0406 0.657197 27.2321 24.0406 0.657197
405 2 26.5679 24.1763 -2.47026 26.5679 24.1763 -2.47026
406 1 27.9574 25.7482 -0.99043 27.9574 25.7482 -0.99043
407 2 29.8061 25.8358 0.7068 29.8061 25.8358 0.7068
408 2 29.8774 25.7989 -2.5659 29.8774 25.7989 -2.5659
409 1 30.7593 24.1103 -0.926041 30.7593 24.1103 -0.926041
410 2 32.803 24.0818 0.419573 32.803 24.0818 0.419573
411 2 32.4769 24.1795 -2.80669 32.4769 24.1795 -2.80669
412 1 33.6677 25.8001 -1.20969 33.6677 25.8001 -1.20969
413 2 35.6629 25.9069 0.245731 35.6629 25.9069 0.245731
414 2 35.5257 25.6758 -2.92409 35.5257 25.6758 -2.92409
415 1 36.4384 24.0144 -1.23358 36.4384 24.0144 -1.23358
416 2 38.2531 23.9882 0.416057 38.2531 23.9882 0.416057
417 2 38.4389 23.9325 -2.75734 38.4389 23.9325 -2.75734
418 1 39.4238 25.6595 -1.17319 39.4238 25.6595 -1.17319
419 2 41.3449 25.9947 0.340637 41.3449 25.9947 0.340637
420 2 41.1884 25.3832 -2.80213 41.1884 25.3832 -2.80213
421 1 42.1394 23.9613 -0.892494 42.1394 23.9613 -0.892494
422 2 44.0284 24.4529 0.584802 44.0284 24.4529 0.584802
423 2 43.9939 23.6523 -2.54601 43.9939 23.6523 -2.54601
424 1 45.0408 25.6337 -1.37117 45.0408 25.6337 -1.37117
425 2 46.7709 25.9558 0.484366 46.7709 25.9558 0.484366
426 2 47.1864 25.2414 -2.67304 47.1864 25.2414 -2.67304
427 1 47.8761 24.0154 -0.575898 47.8761 24.0154 -0.575898
428 2 49.4821 24.5604 1.23151 49.4821 24.5604 1.23151
429 2 50.0643 23.673 -1.79782 50.0643 23.673 -1.79782
430 1 50.7892 25.8124 -0.580125 50.7892 25.8124 -0.580125
431 2 52.3028 26.1742 1.31868 52.3028 26.1742 1.31868
432 2 52.836 25.5778 -1.8195 52.836 25.5778 -1.8195
433 1 2.29726 27.5264 -0.269499 2.29726 27.5264 -0.269499
434 2 3.89111 27.7288 1.63123 3.89111 27.7288 1.63123
435 2 4.53081 27.2459 -1.57342 4.53081 27.2459 -1.57342
436 1 5.2672 29.142 -0.0461912 5.2672 29.142 -0.0461912
437 2 7.06346 29.4922 1.62321 7.06346 29.4922 1.62321
438 2 7.34536 28.8035 -1.56588 7.34536 28.8035 -1.56588
439 1 8.0413 27.499 0.45077 8.0413 27.499 0.45077
440 2 9.90206 27.7368 2.28965 9.90206 27.7368 2.28965
441 2 10.1486 27.1129 -0.859745 10.1486 27.1129 -0.859745
442 1 10.9679 29.1282 0.565897 10.9679 29.1282 0.565897
443 2 12.8385 29.1523 2.27157 12.8385 29.1523 2.27157
444 2 12.8599 28.8756 -0.957565 12.8599 28.8756 -0.957565
445 1 13.7664 27.3637 0.83968 13.7664 27.3637 0.83968
446 2 15.662 27.4114 2.36861 15.662 27.4114 2.36861
447 2 15.5925 27.2012 -0.873542 15.5925 27.2012 -0.873542
448 1 16.7309 29.0118 0.628208 16.7309 29.0118 0.628208
449 2 18.6287 28.9123 2.23614 18.6287 28.9123 2.23614
450 2 18.5607 29.1362 -1.02008 18.5607 29.1362 -1.02008
451 1 19.4768 27.3492 0.499821 19.4768 27.3492 0.499821
452 2 21.5351 27.3138 1.92001 21.5351 27.3138 1.92001
453 2 21.2589 27.4069 -1.32576 21.2589 27.4069 -1.32576
454 1 22.429 28.9647 0.316311 22.429 28.9647 0.316311
455 2 24.5814 28.8212 1.69478 24.5814 28.8212 1.69478
456 2 24.2392 29.3813 -1.49026 24.2392 29.3813 -1.49026
457 1 25.2915 27.4265 -0.193054 25.2915 27.4265 -0.193054
458 2 27.3286 27.1201 1.07702 27.3286 27.1201 1.07702
459 2 26.9417 27.7955 -2.19043 26.9417 27.7955 -2.19043
460 1 28.1523 28.9665 -0.352842 28.1523 28.9665 -0.352842
461 2 30.1992 28.7841 1.09223 30.1992 28.7841 1.09223
462 2 29.9127 29.3635 -2.1138 29.9127 29.3635 -2.1138
463 1 30.8997 27.4214 -0.945923 30.8997 27.4214 -0.945923
464 2 32.7912 27.2747 0.681072 32.7912 27.2747 0.681072
465 2 32.879 27.6634 -2.53484 32.879 27.6634 -2.53484
466 1 33.8572 28.9819 -0.697387 33.8572 28.9819 -0.697387
467 2 36.1459 28.7914 0.474274 36.1459 28.7914 0.474274
468 2 35.3801 29.2512 -2.68354 35.3801 29.2512 -2.68354
469 1 36.6655 27.292 -1.44796 36.6655 27.292 -1.44796
470 2 38.5083 27.4753 0.383269 38.5083 27.4753 0.383269
471 2 38.7013 27.1783 -3.0002 38.7013 27.1783 -3.0002
472 1 39.4855 28.9949 -1.34036 39.4855 28.9949 -1.34036
473 2 41.5613 29.048 0.265706 41.5613 29.048 0.265706
474 2 41.3895 29.033 -3.01921 41.3895 29.033 -3.01921
475 1 42.2409 27.3026 -1.52013 42.2409 27.3026 -1.52013
476 2 44.2246 27.4361 0.164169 44.2246 27.4361 0.164169
477 2 44.2272 27.3005 -3.08247 44.2272 27.3005 -3.08247
478 1 45.2744 28.9083 -1.46584 45.2744 28.9083 -1.46584
479 2 47.0807 29.0906 0.186116 47.0807 29.0906 0.186116
480 2 47.0403 28.7948 -3.12935 47.0403 28.7948 -3.12935
481 1 47.9963 27.234 -1.31036 47.9963 27.234 -1.31036
482 2 49.6483 27.5554 0.655397 49.6483 27.5554 0.655397
483 2 50.2009 27.1879 -2.5947 50.2009 27.1879 -2.5947
484 1 50.9744 28.9798 -1.04268 50.9744 28.9798 -1.04268
485 2 52.6658 29.4035 0.783459 52.6658 29.4035 0.783459
486 2 53.1195 28.6983 -2.31123 53.1195 28.6983 -2.31123
487 1 2.55285 30.6267 -1.02016 2.55285 30.6267 -1.02016
488 2 4.14648 31.1355 0.891742 4.14648 31.1355 0.891742
489 2 4.72703 30.2368 -2.24372 4.72703 30.2368 -2.24372
490 1 5.42809 32.3262 -0.978169 5.42809 32.3262 -0.978169
491 2 7.08628 32.6876 0.838833 7.08628 32.6876 0.838833
492 2 7.478 31.9589 -2.32259 7.478 31.9589 -2.32259
493 1 8.21288 30.7352 -0.229895 8.21288 30.7352 -0.229895
494 2 9.86509 31.0704 1.52024 9.86509 31.0704 1.52024
495 2 10.3055 30.234 -1.56741 10.3055 30.234 -1.56741
496 1 11.152 32.1996 -0.345002 11.152 32.1996 -0.345002
497 2 12.8355 32.5205 1.57496 12.8355 32.5205 1.57496
498 2 13.1638 32.0608 -1.68987 13.1638 32.0608 -1.68987
499 1 13.9164 30.6365 0.403789 13.9164 30.6365 0.403789
500 2 15.8161 30.7921 2.12285 15.8161 30.7921 2.12285
501 2 16.0376 30.6321 -1.14931 16.0376 30.6321 -1.14931
502 1 16.9155 32.3232 0.530165 16.9155 32.3232 0.530165
503 2 18.74 32.2767 2.20509 18.74 32.2767 2.20509
504 2 18.7991 32.3469 -1.07606 18.7991 32.3469 -1.07606
505 1 19.6856 30.6445 0.66071 19.6856 30.6445 0.66071
506 2 21.5902 30.3641 2.17494 21.5902 30.3641 2.17494
507 2 21.5127 30.9036 -1.09161 21.5127 30.9036 -1.09161
508 1 22.6121 32.2547 0.751955 22.6121 32.2547 0.751955
509 2 24.7202 32.2208 2.14787 24.7202 32.2208 2.14787
510 2 24.2426 32.4033 -1.10445 24.2426 32.4033 -1.10445
511 1 25.3984 30.6547 0.314476 25.3984 30.6547 0.314476
512 2 27.6246 30.449 1.56702 27.6246 30.449 1.56702
513 2 27.016 30.7231 -1.65456 27.016 30.7231 -1.65456
514 1 28.357 32.3005 -0.127031 28.357 32.3005 -0.127031
515 2 30.2248 32.0842 1.47279 30.2248 32.0842 1.47279
516 2 30.2112 32.434 -1.82803 30.2112 32.434 -1.82803
517 1 31.1116 30.6651 -0.326985 31.1116 30.6651 -0.326985
518 2 33.0963 30.4853 1.22929 33.0963 30.4853 1.22929
519 2 32.8723 30.9232 -2.10934 32.8723 30.9232 -2.10934
520 1 34.0432 32.2851 -0.309247 34.0432 32.2851 -0.309247
521 2 36.1609 32.1734 0.896121 36.1609 32.1734 0.896121
522 2 35.5118 32.3409 -2.26878 35.5118 32.3409 -2.26878
523 1 36.7481 30.6364 -1.02609 36.7481 30.6364 -1.02609
524 2 38.8912 30.5317 0.413426 38.8912 30.5317 0.413426
525 2 38.526 30.7834 -2.69944 38.526 30.7834 -2.69944
526 1 39.7845 32.26 -1.14114 39.7845 32.26 -1.14114
527 2 41.8177 32.2884 0.345949 41.8177 32.2884 0.345949
528 2 41.5788 32.3366 -2.83173 41.5788 32.3366 -2.83173
529 1 42.4929 30.6033 -1.34306 42.4929 30.6033 -1.34306
530 2 44.5994 30.7322 0.035502 44.5994 30.7322 0.035502
531 2 44.236 30.4754 -3.15173 44.236 30.4754 -3.15173
532 1 45.4315 32.2409 -1.76256 45.4315 32.2409 -1.76256
533 2 47.319 32.2343 -0.0877187 47.319 32.2343 -0.0877187
534 2 47.3812 32.2862 -3.30221 47.3812 32.2862 -3.30221
535 1 48.2288 30.5845 -1.616 48.2288 30.5845 -1.616
536 2 49.9517 30.8719 0.176524 49.9517 30.8719 0.176524
537 2 50.3003 30.5094 -3.01599 50.3003 30.5094 -3.01599
538 1 51.1811 32.1829 -1.47111 51.1811 32.1829 -1.47111