ITEM: TIMESTEP
5254000
ITEM: NUMBER OF ATOMS
810
ITEM: BOX BOUNDS xy xz yz pp pp pp
-2.4650187990566820e+01 5.2214187229542503e+01 -2.5453605761024782e+01
8.0582000660415243e-01 5.0210394993394715e+01 0.0000000000000000e+00
-1.0000000000000000e+01 1.0000000000000000e+01 0.0000000000000000e+00
ITEM: ATOMS id type x y z xu yu zu
1 1 25.884 45.4144 9.64524 -0.073164 -3.99018 -10.3548
2 2 28.1283 46.1255 -9.52973 2.17109 -3.27905 -9.52973
3 2 27.3175 43.9745 8.0687 1.36036 -5.43005 -11.9313
4 1 28.7351 45.9942 8.00349 2.77793 -3.41037 -11.9965
5 2 -20.5263 46.7804 8.84586 4.92734 -2.62419 -11.1541
6 2 -21.223 44.4401 6.69474 4.23059 -4.96446 -13.3053
7 1 -19.9762 44.287 8.81683 5.47742 -5.11756 -11.1832
8 2 -18.015 45.4117 9.85045 7.43862 -3.9929 -10.1495
9 2 -18.0921 43.0053 7.70164 7.3615 -6.39927 -12.2984
10 1 -17.0115 45.3185 7.5445 8.44212 -4.08605 -12.4555
11 2 -15.0579 46.4786 8.57943 10.3957 -2.92595 -11.4206
12 2 -15.0916 44.0013 6.45066 10.362 -5.4033 -13.5493
13 1 -14.1665 44.0681 8.76948 11.2871 -5.3365 -11.2305
14 2 -12.5088 45.5219 9.90476 12.9448 -3.88268 -10.0952
15 2 -12.0461 42.9943 7.8202 13.4075 -6.41024 -12.1798
16 1 -11.318 45.4338 7.50366 14.1356 -3.97082 -12.4963
17 2 -9.65825 46.8232 8.75025 15.7954 -2.58135 -11.2497
18 2 -9.23461 44.3561 6.60468 16.219 -5.04845 -13.3953
19 1 -8.45697 44.5058 9.08924 16.9966 -4.89873 -10.9108
20 2 -6.9048 46.0389 -9.77929 18.5488 -3.3657 -9.77929
21 2 -6.20651 43.4839 8.32089 19.2471 -5.92071 -11.6791
22 1 -5.63657 45.9142 8.03892 19.817 -3.49042 -11.9611
23 2 -4.13592 47.3259 9.37973 21.3177 -2.07872 -10.6203
24 2 -3.46507 45.5793 7.07627 21.9885 -3.8253 -12.9237
25 1 -2.81727 45.1667 9.42055 22.6363 -4.23792 -10.5795
26 2 -0.955088 46.7874 10.0107 24.4985 -2.61717 -9.98927
27 2 -0.572648 44.1499 8.85733 24.881 -5.25465 -11.1427
28 1 38.1105 6.26219 6.8956 38.1105 6.26219 6.8956
29 2 39.8164 5.14077 5.5029 39.8164 5.14077 5.5029
30 2 36.9725 6.43072 4.72624 36.9725 6.43072 4.72624
31 1 37.7823 4.12437 4.58072 37.7823 4.12437 4.58072
32 2 39.6317 2.97447 3.4023 39.6317 2.97447 3.4023
33 2 37.0316 4.24619 2.13033 37.0316 4.24619 2.13033
34 1 39.3187 4.82798 1.67416 39.3187 4.82798 1.67416
35 2 41.2085 3.75816 0.623509 41.2085 3.75816 0.623509
36 2 38.578 4.83578 -0.716097 38.578 4.83578 -0.716097
37 1 39.3685 2.50867 -0.751339 39.3685 2.50867 -0.751339
38 2 41.6085 1.4313 -1.20436 41.6085 1.4313 -1.20436
39 2 38.9827 2.31506 -3.20755 38.9827 2.31506 -3.20755
40 1 41.4957 3.02978 -3.15034 41.4957 3.02978 -3.15034
41 2 43.7093 2.07166 -3.47281 43.7093 2.07166 -3.47281
42 2 41.1246 2.48234 -5.62068 41.1246 2.48234 -5.62068
43 1 16.8806 49.8338 -4.9211 42.3342 0.429187 -4.9211
44 2 19.2397 49.1354 -4.95055 44.6933 -0.269138 -4.95055
45 2 17.0272 48.8541 -7.22414 42.4808 -0.550465 -7.22414
46 1 19.1496 50.006 -7.28969 44.6032 0.601379 -7.28969
47 2 21.6784 49.5274 -7.17505 47.132 0.12284 -7.17505
48 2 19.4754 48.9882 -9.44817 44.929 -0.416367 -9.44817
49 1 20.8824 47.3661 -8.13932 46.336 -2.03849 -8.13932
50 2 23.3848 47.2323 -7.80722 48.8384 -2.17224 -7.80722
51 2 21.5302 46.0611 9.86982 46.9838 -3.34345 -10.1302
52 1 23.4121 47.6443 9.77722 48.8657 -1.7603 -10.2228
53 2 25.8246 47.7978 -9.58561 51.2782 -1.6068 -9.58561
54 2 24.3568 46.4033 7.85742 49.8104 -3.00131 -12.1426
55 1 26.1906 48.2023 7.95128 0.23339 -1.20226 -12.0487
56 2 -22.8473 48.4784 8.46409 2.60635 -0.926215 -11.5359
57 2 27.0649 46.6978 6.20716 1.10775 -2.70678 -13.7928
58 1 -22.6941 48.5782 5.91465 2.75955 -0.82637 -14.0853
59 2 -20.3093 49.0929 6.8567 5.14432 -0.311657 -13.1433
60 2 -21.3238 47.2845 4.35549 4.12979 -2.12009 -15.6445
61 1 -19.8992 46.5801 6.45679 5.55444 -2.8245 -13.5432
62 2 -17.8765 47.6865 7.5051 7.57709 -1.7181 -12.4949
63 2 -18.0223 45.3705 5.31178 7.43127 -4.03411 -14.6882
64 1 -17.1017 47.586 5.19511 8.35191 -1.81857 -14.8049
65 2 -15.2016 48.536 6.53904 10.252 -0.868548 -13.461
66 2 -15.2087 46.6596 3.87326 10.2449 -2.74499 -16.1267
67 1 -14.206 46.3488 6.26132 11.2476 -3.05574 -13.7387
68 2 -12.593 47.6674 7.71905 12.8606 -1.73717 -12.281
69 2 -12.0523 45.5644 5.14169 13.4013 -3.84016 -14.8583
70 1 -11.4194 47.8905 5.50288 14.0342 -1.51405 -14.4971
71 2 -9.58157 49.0767 6.75177 15.872 -0.327861 -13.2482
72 2 -9.18896 47.7179 4.41911 16.2646 -1.68663 -15.5809
73 1 -8.53286 46.7126 6.62864 16.9207 -2.69194 -13.3714
74 2 -6.73732 48.081 7.63318 18.7163 -1.32359 -12.3668
75 2 -6.36362 46.0867 5.59569 19.09 -3.31789 -14.4043
76 1 38.2598 10.5409 -7.99102 38.2598 10.5409 12.009
77 2 40.1267 9.24637 -9.10207 40.1267 9.24637 10.8979
78 2 37.6405 10.8954 9.48168 37.6405 10.8954 9.48168
79 1 38.2077 8.47053 9.41031 38.2077 8.47053 9.41031
80 2 39.9733 7.12819 8.30143 39.9733 7.12819 8.30143
81 2 37.4165 8.64112 7.02645 37.4165 8.64112 7.02645
82 1 39.8491 9.03865 6.71253 39.8491 9.03865 6.71253
83 2 41.4891 7.80551 5.32356 41.4891 7.80551 5.32356
84 2 38.7484 9.47623 4.41517 38.7484 9.47623 4.41517
85 1 39.2984 7.02752 4.00804 39.2984 7.02752 4.00804
86 2 41.1993 5.79227 2.92361 41.1993 5.79227 2.92361
87 2 38.5206 7.15076 1.69277 38.5206 7.15076 1.69277
88 1 40.9536 7.73801 1.25463 40.9536 7.73801 1.25463
89 2 42.8774 6.47389 0.257048 42.8774 6.47389 0.257048
90 2 40.1717 7.82828 -1.09456 40.1717 7.82828 -1.09456
91 1 40.9104 5.43245 -1.09994 40.9104 5.43245 -1.09994
92 2 43.1279 4.39564 -1.73365 43.1279 4.39564 -1.73365
93 2 40.4735 5.23189 -3.63731 40.4735 5.23189 -3.63731
94 1 42.9583 6.03273 -3.72696 42.9583 6.03273 -3.72696
95 2 45.0742 4.93422 -4.28813 45.0742 4.93422 -4.28813
96 2 42.5239 5.68799 -6.24309 42.5239 5.68799 -6.24309
97 1 43.4608 3.39379 -5.63496 43.4608 3.39379 -5.63496
98 2 45.9177 2.41952 -5.96455 45.9177 2.41952 -5.96455
99 2 43.3507 2.69104 -8.04629 43.3507 2.69104 -8.04629
100 1 45.6956 3.68792 -8.15299 45.6956 3.68792 -8.15299
101 2 48.0213 2.87279 -8.34607 48.0213 2.87279 -8.34607
102 2 45.6845 2.87472 9.42905 45.6845 2.87472 -10.571
103 1 46.9918 0.904277 -9.56432 46.9918 0.904277 -9.56432
104 2 24.0232 49.9918 -9.30863 49.4768 0.587261 -9.30863
105 2 22.0328 49.1643 8.24274 47.4865 -0.240266 -11.7573
106 1 49.5469 1.2067 8.34433 49.5469 1.2067 -11.6557
107 2 52.0352 1.26178 8.57449 52.0352 1.26178 -11.4255
108 2 24.6724 49.1718 6.2829 50.126 -0.232784 -13.7171
109 1 0.487342 1.533 5.98792 0.487342 1.533 -14.0121
110 2 2.92052 1.52996 6.71133 2.92052 1.52996 -13.2887
111 2 -23.9909 49.5329 4.1197 1.46273 0.128285 -15.8803
112 1 3.12211 1.97524 4.31337 3.12211 1.97524 -15.6866
113 2 5.52546 2.22156 5.01022 5.52546 2.22156 -14.9898
114 2 -21.2835 50.0402 2.51864 4.17008 0.63563 -17.4814
115 1 -19.8348 49.1854 4.44535 5.61878 -0.21921 -15.5546
116 2 -17.744 49.9921 5.46689 7.70957 0.587552 -14.5331
117 2 -18.3104 47.9727 2.96112 7.14325 -1.43183 -17.0389
118 1 -17.0344 50.1513 3.11915 8.41919 0.746707 -16.8808
119 2 10.3323 1.84692 4.1266 10.3323 1.84692 -15.8734
120 2 -15.0453 49.0631 1.99299 10.4083 -0.341493 -18.007
121 1 -14.2293 48.9042 4.25154 11.2243 -0.500338 -15.7485
122 2 -12.6707 49.9864 5.84728 12.7829 0.581866 -14.1527
123 2 -12.0807 48.5916 3.1539 13.373 -0.812962 -16.8461
124 1 36.8429 15.566 -3.98809 36.8429 15.566 16.0119
125 2 39.0826 14.7229 -4.40657 39.0826 14.7229 15.5934
126 2 36.7325 15.0615 -6.52385 36.7325 15.0615 13.4762
127 1 37.8054 12.9243 -5.82547 37.8054 12.9243 14.1745
128 2 39.9509 11.8486 -6.63903 39.9509 11.8486 13.361
129 2 37.4045 12.9483 -8.33174 37.4045 12.9483 11.6683
130 1 39.939 13.4338 -8.52564 39.939 13.4338 11.4744
131 2 41.9144 12.2421 -9.37605 41.9144 12.2421 10.6239
132 2 39.2347 13.4673 9.11761 39.2347 13.4673 9.11761
133 1 40.0574 11.1325 9.26724 40.0574 11.1325 9.26724
134 2 41.8787 9.94854 7.94536 41.8787 9.94854 7.94536
135 2 39.1439 11.3704 6.87884 39.1439 11.3704 6.87884
136 1 41.5459 11.7581 6.36151 41.5459 11.7581 6.36151
137 2 43.275 10.4507 5.06947 43.275 10.4507 5.06947
138 2 40.703 12.0954 4.08696 40.703 12.0954 4.08696
139 1 41.2542 9.7284 3.77947 41.2542 9.7284 3.77947
140 2 42.9648 8.48911 2.48573 42.9648 8.48911 2.48573
141 2 40.3192 10.1209 1.52795 40.3192 10.1209 1.52795
142 1 42.7546 10.5431 0.977224 42.7546 10.5431 0.977224
143 2 44.5226 9.14343 -0.062148 44.5226 9.14343 -0.062148
144 2 42.0813 10.6768 -1.46249 42.0813 10.6768 -1.46249
145 1 42.6534 8.29745 -1.47008 42.6534 8.29745 -1.47008
146 2 44.7132 7.06167 -2.29349 44.7132 7.06167 -2.29349
147 2 42.1469 8.44228 -3.8515 42.1469 8.44228 -3.8515
148 1 44.4899 8.87437 -4.14999 44.4899 8.87437 -4.14999
149 2 46.5677 7.50433 -4.69921 46.5677 7.50433 -4.69921
150 2 44.2394 8.85469 -6.60503 44.2394 8.85469 -6.60503
151 1 44.9176 6.36595 -6.35949 44.9176 6.36595 -6.35949
152 2 47.1734 5.11447 -6.6278 47.1734 5.11447 -6.6278
153 2 44.8025 5.93862 -8.78948 44.8025 5.93862 -8.78948
154 1 47.2161 6.63652 -8.62975 47.2161 6.63652 -8.62975
155 2 49.3542 5.47569 -9.18935 49.3542 5.47569 -9.18935
156 2 46.8865 6.3285 8.96143 46.8865 6.3285 -11.0386
157 1 47.8857 4.02026 9.31654 47.8857 4.02026 -10.6835
158 2 50.2857 3.39511 9.38917 50.2857 3.39511 -10.6108
159 2 48.0711 2.88666 7.05295 48.0711 2.88666 -12.9471
160 1 50.1426 4.276 7.09893 50.1426 4.276 -12.9011
161 2 1.24629 3.7733 6.98716 52.6571 3.7733 -13.0128
162 2 50.2808 3.18175 4.77036 50.2808 3.18175 -15.2296
163 1 1.02361 4.42872 4.47329 1.02361 4.42872 -15.5267
164 2 3.44345 4.21683 5.37115 3.44345 4.21683 -14.6288
165 2 2.12321 3.16743 2.46034 2.12321 3.16743 -17.5397
166 1 3.79164 5.13424 3.03118 3.79164 5.13424 -16.9688
167 2 6.18127 4.78279 3.47053 6.18127 4.78279 -16.5295
168 2 4.55738 3.9671 0.977153 4.55738 3.9671 -19.0228
169 1 5.77389 2.5526 2.56163 5.77389 2.5526 -17.4384
170 2 8.30129 3.06823 2.35497 8.30129 3.06823 -17.645
171 2 -18.4316 50.3101 1.07077 7.02205 0.905507 -18.9292
172 1 33.1512 20.613 -2.25751 33.1512 20.613 17.7425
173 2 35.598 20.5665 -1.97152 35.598 20.5665 18.0285
174 2 33.8477 19.5435 -4.47784 33.8477 19.5435 15.5222
175 1 35.2497 18.2461 -2.83372 35.2497 18.2461 17.1663
176 2 37.7462 17.6791 -2.86196 37.7462 17.6791 17.138
177 2 35.4591 17.209 -5.22148 35.4591 17.209 14.7785
178 1 37.6196 18.4951 -5.19121 37.6196 18.4951 14.8088
179 2 39.9485 17.7082 -5.18041 39.9485 17.7082 14.8196
180 2 37.8237 17.845 -7.6096 37.8237 17.845 12.3904
181 1 39.0895 15.8449 -6.54012 39.0895 15.8449 13.4599
182 2 41.2889 14.9287 -7.00464 41.2889 14.9287 12.9954
183 2 38.7689 15.5798 -8.95716 38.7689 15.5798 11.0428
184 1 41.055 16.385 -9.12748 41.055 16.385 10.8725
185 2 43.2062 15.2137 -9.78102 43.2062 15.2137 10.219
186 2 40.6748 16.2438 8.44942 40.6748 16.2438 8.44942
187 1 41.6453 13.9885 8.80927 41.6453 13.9885 8.80927
188 2 43.4386 12.4893 7.79395 43.4386 12.4893 7.79395
189 2 40.9887 14.1912 6.47692 40.9887 14.1912 6.47692
190 1 43.5022 14.5382 6.22836 43.5022 14.5382 6.22836
191 2 45.2161 13.286 4.90253 45.2161 13.286 4.90253
192 2 42.5719 14.9444 3.8958 42.5719 14.9444 3.8958
193 1 43.1519 12.4593 3.63 43.1519 12.4593 3.63
194 2 44.746 11.1843 2.28588 44.746 11.1843 2.28588
195 2 42.2273 12.9161 1.40326 42.2273 12.9161 1.40326
196 1 44.6747 13.2059 0.794512 44.6747 13.2059 0.794512
197 2 -4.95763 11.966 -0.262957 46.4531 11.966 -0.262957
198 2 43.8647 13.552 -1.56842 43.8647 13.552 -1.56842
199 1 44.6036 11.0824 -1.69032 44.6036 11.0824 -1.69032
200 2 46.5196 9.76074 -2.86389 46.5196 9.76074 -2.86389
201 2 43.9018 11.3913 -4.14003 43.9018 11.3913 -4.14003
202 1 46.3431 11.7324 -4.44782 46.3431 11.7324 -4.44782
203 2 -3.03297 10.5043 -5.10987 48.3778 10.5043 -5.10987
204 2 45.9431 11.5793 -6.90787 45.9431 11.5793 -6.90787
205 1 46.7538 9.19839 -6.56187 46.7538 9.19839 -6.56187
206 2 48.7785 7.93119 -7.18614 48.7785 7.93119 -7.18614
207 2 46.4822 9.03171 -9.07897 46.4822 9.03171 -9.07897
208 1 -2.48211 9.52306 -9.08639 48.9287 9.52306 -9.08639
209 2 -0.52425 8.06384 -9.52432 50.8865 8.06384 -9.52432
210 2 -2.03191 8.92309 7.2319 49.3789 8.92309 -12.7681
211 1 -2.24254 6.94545 8.83492 49.1682 6.94545 -11.1651
212 2 0.0491969 5.97915 8.35664 51.46 5.97915 -11.6434
213 2 48.7976 6.2005 6.38971 48.7976 6.2005 -13.6103
214 1 -0.25722 7.32216 6.23104 51.1535 7.32216 -13.769
215 2 2.09679 6.45611 5.65046 53.5076 6.45611 -14.3495
216 2 -0.567131 6.40991 3.76709 50.8436 6.40991 -16.2329
217 1 1.66719 7.80357 3.54779 1.66719 7.80357 -16.4522
218 2 3.8685 7.6505 2.40534 3.8685 7.6505 -17.5947
219 2 1.56608 5.72651 2.03321 1.56608 5.72651 -17.9668
220 1 27.9988 24.439 -2.97054 27.9988 24.439 17.0295
221 2 30.2511 25.1401 -2.14375 30.2511 25.1401 17.8562
222 2 29.4673 23.2883 -4.57948 29.4673 23.2883 15.4205
223 1 30.6876 22.6924 -2.51554 30.6876 22.6924 17.4845
224 2 32.963 23.073 -1.76783 32.963 23.073 18.2322
225 2 31.8331 21.624 -4.34103 31.8331 21.624 15.659
226 1 33.5114 23.4083 -4.10041 33.5114 23.4083 15.8996
227 2 35.8975 23.352 -3.3244 35.8975 23.352 16.6756
228 2 34.4375 22.3429 -6.09777 34.4375 22.3429 13.9022
229 1 35.7404 21.1297 -4.30207 35.7404 21.1297 15.6979
230 2 38.2245 20.5831 -3.86657 38.2245 20.5831 16.1334
231 2 36.4398 20.2008 -6.49262 36.4398 20.2008 13.5074
232 1 38.5185 21.6392 -6.18806 38.5185 21.6392 13.8119
233 2 40.8336 20.8638 -5.85989 40.8336 20.8638 14.1401
234 2 38.9892 20.8338 -8.44943 38.9892 20.8338 11.5506
235 1 40.1028 18.949 -7.30724 40.1028 18.949 12.6928
236 2 42.3953 17.9014 -7.70244 42.3953 17.9014 12.2976
237 2 39.9697 18.4291 -9.78263 39.9697 18.4291 10.2174
238 1 42.3207 19.3712 -9.72871 42.3207 19.3712 10.2713
239 2 -6.88521 18.2352 -10.0462 44.5256 18.2352 9.95381
240 2 42.2775 19.1718 7.77555 42.2775 19.1718 7.77555
241 1 43.1562 16.8997 8.3941 43.1562 16.8997 8.3941
242 2 -6.18584 15.6741 7.69455 45.2249 15.6741 7.69455
243 2 42.7785 16.9566 5.94963 42.7785 16.9566 5.94963
244 1 -6.1751 17.4035 5.89468 45.2357 17.4035 5.89468
245 2 -4.38819 16.0352 4.77306 47.0226 16.0352 4.77306
246 2 -6.85717 17.8383 3.54409 44.5536 17.8383 3.54409
247 1 -6.3601 15.2956 3.38107 45.0507 15.2956 3.38107
248 2 -4.7284 13.8408 2.15597 46.6824 13.8408 2.15597
249 2 44.0571 15.6126 0.997415 44.0571 15.6126 0.997415
250 1 -4.89989 15.9702 0.613121 46.5109 15.9702 0.613121
251 2 -2.94541 14.8484 -0.673268 48.4654 14.8484 -0.673268
252 2 -5.67726 16.3722 -1.66233 45.7335 16.3722 -1.66233
253 1 -5.05847 13.9338 -1.9719 46.3523 13.9338 -1.9719
254 2 -3.1615 12.6315 -3.0276 48.2493 12.6315 -3.0276
255 2 -5.64414 14.1812 -4.42447 45.7666 14.1812 -4.42447
256 1 -3.21697 14.5453 -4.63718 48.1938 14.5453 -4.63718
257 2 -1.38042 13.0837 -5.57501 50.0303 13.0837 -5.57501
258 2 -3.80566 14.4721 -7.16216 47.6051 14.4721 -7.16216
259 1 -3.04267 12.0973 -7.09898 48.3681 12.0973 -7.09898
260 2 -0.996818 10.5792 -7.25905 50.414 10.5792 -7.25905
261 2 -2.08792 11.2852 9.19005 49.3228 11.2852 -10.81
262 1 -0.293545 12.1553 -9.20528 51.1172 12.1553 -9.20528
263 2 1.22652 10.2863 -9.32513 52.6373 10.2863 -9.32513
264 2 -0.550174 11.3808 6.50747 50.8606 11.3808 -13.4925
265 1 -0.125862 9.81549 8.62382 51.2849 9.81549 -11.3762
266 2 1.7111 8.39736 7.56368 53.1219 8.39736 -12.4363
267 2 -0.21673 9.24249 4.43737 51.194 9.24249 -15.5626
268 1 1.59346 10.315 5.80936 53.0042 10.315 -14.1906
269 2 3.48442 8.84735 5.14459 54.8952 8.84735 -14.8554
270 2 2.18208 10.2284 3.25896 53.5928 10.2284 -16.741
271 1 25.2471 25.8043 -4.22437 25.2471 25.8043 15.7756
272 2 27.2767 26.8681 -3.21452 27.2767 26.8681 16.7855
273 2 27.0574 24.6025 -5.36827 27.0574 24.6025 14.6317
274 1 28.1211 26.8904 -5.52619 28.1211 26.8904 14.4738
275 2 30.1177 27.6379 -4.31812 30.1177 27.6379 15.6819
276 2 29.8219 25.6867 -6.85739 29.8219 25.6867 13.1426
277 1 30.834 25.2862 -4.55217 30.834 25.2862 15.4478
278 2 33.1734 25.8367 -3.71632 33.1734 25.8367 16.2837
279 2 32.1681 24.002 -6.09765 32.1681 24.002 13.9023
280 1 33.6853 26.0247 -6.15837 33.6853 26.0247 13.8416
281 2 35.8573 26.3333 -5.06784 35.8573 26.3333 14.9322
282 2 35.0585 24.8802 -7.87104 35.0585 24.8802 12.129
283 1 36.301 24.0148 -5.70658 36.301 24.0148 14.2934
284 2 38.6333 23.8461 -4.92849 38.6333 23.8461 15.0715
285 2 37.1914 23.0561 -7.74713 37.1914 23.0561 12.2529
286 1 39.0558 24.6325 -7.28028 39.0558 24.6325 12.7197
287 2 -9.84725 24.1865 -6.8205 41.5635 24.1865 13.1795
288 2 39.9332 23.6066 -9.55082 39.9332 23.6066 10.4492
289 1 41.1911 21.9962 -8.09692 41.1911 21.9962 11.9031
290 2 -7.8873 21.0376 -8.3131 43.5235 21.0376 11.6869
291 2 41.2118 21.414 9.43613 41.2118 21.414 9.43613
292 1 -7.85814 22.4762 9.57429 43.5526 22.4762 9.57429
293 2 -5.71188 21.3675 9.56756 45.6989 21.3675 9.56756
294 2 -7.63287 22.0626 7.15641 43.7779 22.0626 7.15641
295 1 -6.80344 19.9123 8.01781 44.6073 19.9123 8.01781
296 2 -4.63594 18.6595 7.45311 46.7748 18.6595 7.45311
297 2 -6.99022 19.8081 5.55741 44.4205 19.8081 5.55741
298 1 -4.57756 20.2654 5.57205 46.8332 20.2654 5.57205
299 2 -2.59991 19.0093 4.73995 48.8109 19.0093 4.73995
300 2 -5.02581 20.4548 2.93691 46.385 20.4548 2.93691
301 1 -4.36937 17.963 3.22276 47.0414 17.963 3.22276
302 2 -2.75708 16.8076 1.69548 48.6537 16.8076 1.69548
303 2 -5.45507 18.3913 0.922676 45.9557 18.3913 0.922676
304 1 -3.04882 18.8257 0.237853 48.362 18.8257 0.237853
305 2 -1.20145 18.0127 -1.34367 50.2093 18.0127 -1.34367
306 2 -4.30576 19.0835 -2.0012 47.105 19.0835 -2.0012
307 1 -3.28178 16.787 -2.20899 48.129 16.787 -2.20899
308 2 -1.31279 15.2983 -3.19676 50.098 15.2983 -3.19676
309 2 -3.75 16.9579 -4.79401 47.6608 16.9579 -4.79401
310 1 -1.38579 17.196 -4.72128 50.025 17.196 -4.72128
311 2 0.367384 15.7803 -5.86207 51.7782 15.7803 -5.86207
312 2 -2.06819 17.3111 -7.15665 49.3426 17.3111 -7.15665
313 1 -1.33515 14.8981 -7.34776 50.0756 14.8981 -7.34776
314 2 0.930904 13.6625 -7.61221 52.3417 13.6625 -7.61221
315 2 -0.92862 13.8414 9.17702 50.4821 13.8414 -10.823
316 1 1.11461 15.0546 -9.63971 52.5254 15.0546 -9.63971
317 2 2.13386 12.7982 -9.92821 53.5446 12.7982 -9.92821
318 2 2.35553 14.9784 8.1205 53.7663 14.9784 -11.8795
319 1 0.981197 12.9412 7.69469 52.392 12.9412 -12.3053
320 2 2.24104 10.9332 8.18752 53.6518 10.9332 -11.8125
321 2 2.62595 12.5038 5.85239 54.0367 12.5038 -14.1476
322 1 22.6457 26.6457 -5.56408 74.0565 26.6457 14.4359
323 2 24.2885 28.1553 -4.54041 75.6992 28.1553 15.4596
324 2 24.6469 25.6167 -6.51578 76.0576 25.6167 13.4842
325 1 25.3875 27.9565 -6.73285 25.3875 27.9565 13.2671
326 2 27.1932 29.068 -5.41457 27.1932 29.068 14.5854
327 2 27.3437 26.9661 -7.89716 27.3437 26.9661 12.1028
328 1 28.2181 29.3191 -7.65326 28.2181 29.3191 12.3467
329 2 30.2365 30.194 -6.43897 30.2365 30.194 13.561
330 2 29.9653 28.1307 -9.03147 29.9653 28.1307 10.9685
331 1 30.9614 27.8558 -6.76174 30.9614 27.8558 13.2383
332 2 33.1176 28.3675 -5.62606 33.1176 28.3675 14.3739
333 2 32.6734 26.7389 -8.34179 32.6734 26.7389 11.6582
334 1 33.9183 28.8426 -7.89459 33.9183 28.8426 12.1054
335 2 36.198 29.3246 -6.88955 36.198 29.3246 13.1104
336 2 35.3185 27.555 -9.54209 35.3185 27.555 10.4579
337 1 36.6161 26.8758 -7.42551 36.6161 26.8758 12.5745
338 2 -12.4711 27.0493 -6.53343 38.9397 27.0493 13.4666
339 2 37.733 25.5915 -9.25404 37.733 25.5915 10.746
340 1 -12.1079 27.4498 -8.98763 39.3029 27.4498 11.0124
341 2 -9.53386 27.5162 -8.34124 41.8769 27.5162 11.6588
342 2 -11.1626 26.2161 9.07618 40.2482 26.2161 9.07618
343 1 -9.64072 25.1751 -9.1734 41.77 25.1751 10.8266
344 2 -7.2438 24.3781 -8.83472 44.167 24.3781 11.1653
345 2 -9.23214 24.3746 8.54714 42.1786 24.3746 8.54714
346 1 -7.10428 25.5624 8.87832 44.3065 25.5624 8.87832
347 2 -4.63767 24.9046 9.04912 46.7731 24.9046 9.04912
348 2 -6.60477 24.7929 6.36397 44.806 24.7929 6.36397
349 1 -5.38668 22.9314 7.48367 46.0241 22.9314 7.48367
350 2 -3.24141 21.6975 7.25045 48.1694 21.6975 7.25045
351 2 -5.44433 22.5445 4.94788 45.9664 22.5445 4.94788
352 1 -3.0644 23.3111 5.30336 48.3464 23.3111 5.30336
353 2 -1.04885 22.0438 4.45475 50.3619 22.0438 4.45475
354 2 -3.60025 23.1172 2.77448 47.8105 23.1172 2.77448
355 1 -2.5893 20.7796 2.94846 48.8215 20.7796 2.94846
356 2 -0.976706 19.4049 1.61742 50.4341 19.4049 1.61742
357 2 -3.51106 21.262 0.566565 47.8997 21.262 0.566565
358 1 -1.06101 21.5427 0.118647 50.3498 21.5427 0.118647
359 2 0.484788 20.0884 -3.00562 51.8956 20.0884 -3.00562
360 2 -2.32057 22.2894 -1.94964 49.0902 22.2894 -1.94964
361 1 -2.03566 19.9401 -2.79367 49.3751 19.9401 -2.79367
362 2 1.03389 18.1759 -4.94828 52.4447 18.1759 -4.94828
363 2 -2.40019 19.499 -5.22846 49.0106 19.499 -5.22846
364 1 0.0292733 20.369 -5.4414 51.44 20.369 -5.4414
365 2 1.92569 19.7588 -7.02186 53.3365 19.7588 -7.02186
366 2 -1.04905 19.9037 -7.62699 50.3617 19.9037 -7.62699
367 1 0.489327 17.7506 -7.52917 51.9001 17.7506 -7.52917
368 2 2.55114 16.2822 -7.89655 53.9619 16.2822 -7.89655
369 2 -0.891909 16.4756 -9.44295 50.5189 16.4756 -9.44295
370 1 17.0126 28.0185 -8.5415 68.4233 28.0185 11.4585
371 2 17.4513 30.453 -8.37655 68.8621 30.453 11.6235
372 2 19.2823 27.5409 -9.5297 70.693 27.5409 10.4703
373 1 19.8101 27.1512 -7.18642 71.2209 27.1512 12.8136
374 2 20.2058 29.5413 -6.79319 71.6166 29.5413 13.2068
375 2 22.0421 26.7234 -7.97627 73.4529 26.7234 12.0237
376 1 22.4729 29.0943 -7.75409 73.8836 29.0943 12.2459
377 2 24.4386 30.3483 -6.77561 75.8494 30.3483 13.2244
378 2 24.3139 27.9492 -9.12098 75.7247 27.9492 10.879
379 1 25.4264 30.2502 -9.0581 25.4264 30.2502 10.9419
380 2 27.1844 31.5593 -7.87794 27.1844 31.5593 12.1221
381 2 27.3616 29.1422 9.86942 27.3616 29.1422 9.86942
382 1 28.2657 31.4967 9.79917 28.2657 31.4967 9.79917
383 2 30.1415 32.7124 -9.06243 30.1415 32.7124 10.9376
384 2 30.2739 30.2605 8.70146 30.2739 30.2605 8.70146
385 1 31.1162 30.2992 -8.90603 31.1162 30.2992 11.094
386 2 33.1733 31.3049 -7.83387 33.1733 31.3049 12.1661
387 2 32.8111 29.0518 9.81476 32.8111 29.0518 9.81476
388 1 33.984 31.2396 9.80608 33.984 31.2396 9.80608
389 2 -15.3353 32.031 -9.13921 36.0755 32.031 10.8608
390 2 35.5536 29.8521 8.40181 35.5536 29.8521 8.40181
391 1 36.7194 29.5921 -9.36047 36.7194 29.5921 10.6395
392 2 -12.3097 30.0679 -8.66083 39.1011 30.0679 11.3392
393 2 -13.268 28.1983 8.86342 38.1427 28.1983 8.86342
394 1 -11.8142 30.2386 8.90704 39.5966 30.2386 8.90704
395 2 -9.5609 30.5157 9.82459 41.8499 30.5157 9.82459
396 2 -10.5766 28.8248 7.09818 40.8342 28.8248 7.09818
397 1 -9.30857 28.0863 9.22143 42.1022 28.0863 9.22143
398 2 -6.83011 27.9606 9.81008 44.5807 27.9606 9.81008
399 2 -8.53656 26.9048 7.16987 42.8742 26.9048 7.16987
400 1 -6.56117 28.4698 7.3757 44.8496 28.4698 7.3757
401 2 -4.10953 28.1606 7.94857 47.3012 28.1606 7.94857
402 2 -5.80597 27.4362 5.11455 45.6048 27.4362 5.11455
403 1 -4.49684 25.9982 6.68754 46.9139 25.9982 6.68754
404 2 -2.0816 25.0703 6.77603 49.3292 25.0703 6.77603
405 2 -4.13013 25.3038 4.24884 47.2806 25.3038 4.24884
406 1 -1.93682 26.3623 4.5948 49.4739 26.3623 4.5948
407 2 0.210358 25.0663 4.31509 51.6211 25.0663 4.31509
408 2 -1.90386 26.1507 2.05191 49.5069 26.1507 2.05191
409 1 -1.21262 23.8895 2.62885 50.1981 23.8895 2.62885
410 2 0.737469 22.6194 1.75892 52.1482 22.6194 1.75892
411 2 -1.78828 24.0353 0.185392 49.6225 24.0353 0.185392
412 1 0.733973 24.2858 -0.0734524 52.1447 24.2858 -0.0734524
413 2 1.21239 21.9075 -0.840132 52.6232 21.9075 -0.840132
414 2 -0.279796 24.9765 -2.31543 51.131 24.9765 -2.31543
415 1 0.0555575 22.5356 -2.87714 51.4663 22.5356 -2.87714
416 2 2.33188 22.7446 -3.76629 53.7426 22.7446 -3.76629
417 2 -1.66857 22.0239 -4.67083 49.7422 22.0239 -4.67083
418 1 11.3575 29.3346 8.47714 62.7683 29.3346 8.47714
419 2 11.7393 31.6763 8.62513 63.1501 31.6763 8.62513
420 2 13.5619 28.8453 7.77559 64.9726 28.8453 7.77559
421 1 14.1276 28.7569 10.1843 65.5384 28.7569 10.1843
422 2 14.7689 31.1729 -9.72805 66.1797 31.1729 10.272
423 2 16.4013 28.1922 9.17179 67.812 28.1922 9.17179
424 1 16.9267 30.5919 9.16005 68.3375 30.5919 9.16005
425 2 18.7602 32.2042 -10.135 70.1709 32.2042 9.86495
426 2 19.0162 29.3988 8.3646 70.4269 29.3988 8.3646
427 1 19.7295 29.998 -9.28519 71.1403 29.998 10.7148
428 2 21.65 31.4778 -8.30408 73.0608 31.4778 11.6959
429 2 21.7521 28.8195 -10.2993 73.1629 28.8195 9.70071
430 1 22.5731 31.0923 9.51967 73.9839 31.0923 9.51967
431 2 24.4042 32.4976 -9.60274 75.8149 32.4976 10.3973
432 2 24.6248 29.7549 8.63059 76.0356 29.7549 8.63059
433 1 25.4643 32.0234 8.1717 25.4643 32.0234 8.1717
434 2 27.2054 33.7704 9.22662 27.2054 33.7704 9.22662
435 2 27.4398 30.8977 7.49986 27.4398 30.8977 7.49986
436 1 28.2919 33.2092 7.02788 28.2919 33.2092 7.02788
437 2 30.0753 34.6475 8.05899 30.0753 34.6475 8.05899
438 2 30.3779 31.9775 6.22922 30.3779 31.9775 6.22922
439 1 31.1592 32.5409 8.64434 31.1592 32.5409 8.64434
440 2 33.146 33.608 9.7523 33.146 33.608 9.7523
441 2 33.1433 31.2143 7.50178 33.1433 31.2143 7.50178
442 1 33.9697 33.5219 7.37455 33.9697 33.5219 7.37455
443 2 -15.3383 34.4941 8.38435 36.0725 34.4941 8.38435
444 2 35.7899 32.0743 6.24526 35.7899 32.0743 6.24526
445 1 -14.5916 32.0809 8.49602 36.8191 32.0809 8.49602
446 2 -12.2296 32.6256 9.16485 39.1811 32.6256 9.16485
447 2 -13.2213 30.5763 6.92637 38.1895 30.5763 6.92637
448 1 -11.7835 32.6216 6.72967 39.6273 32.6216 6.72967
449 2 -9.40317 33.2619 7.49031 42.0076 33.2619 7.49031
450 2 -10.4156 31.1406 5.21039 40.9951 31.1406 5.21039
451 1 -9.06332 30.7946 7.35308 42.3474 30.7946 7.35308
452 2 -6.61314 30.9043 8.06832 44.7976 30.9043 8.06832
453 2 -7.99464 29.3887 5.442 43.4161 29.3887 5.442
454 1 -6.26735 31.2098 5.62386 45.1434 31.2098 5.62386
455 2 -3.80938 31.2762 6.33729 47.6014 31.2762 6.33729
456 2 -5.20163 30.0268 3.69125 46.2091 30.0268 3.69125
457 1 -3.76035 28.8869 5.52165 47.6504 28.8869 5.52165
458 2 -1.26577 28.3217 5.89468 50.145 28.3217 5.89468
459 2 -3.17363 28.1859 3.25231 48.2371 28.1859 3.25231
460 1 -1.01566 29.3981 3.65081 50.3951 29.3981 3.65081
461 2 1.22462 28.5786 4.09016 52.6354 28.5786 4.09016
462 2 -0.31884 28.981 1.32566 51.0919 28.981 1.32566
463 1 0.598514 26.7292 2.39228 52.0093 26.7292 2.39228
464 2 2.42412 24.9936 1.57669 53.8349 24.9936 1.57669
465 2 0.389475 26.8865 -0.085023 51.8002 26.8865 -0.085023
466 1 2.82013 26.9419 -0.151962 54.2309 26.9419 -0.151962
467 2 3.12751 24.5841 -1.0068 54.5383 24.5841 -1.0068
468 2 1.84837 27.5673 -2.46365 53.2591 27.5673 -2.46365
469 1 2.0975 25.2039 -3.09536 53.5083 25.2039 -3.09536
470 2 9.04737 31.4008 6.7055 60.4581 31.4008 6.7055
471 2 10.8084 29.4277 6.09241 62.2191 29.4277 6.09241
472 1 11.3256 31.8887 6.14394 62.7363 31.8887 6.14394
473 2 13.1289 33.5259 6.9943 64.5396 33.5259 6.9943
474 2 13.373 30.6629 5.30384 64.7837 30.6629 5.30384
475 1 14.0924 31.2989 7.80444 65.5032 31.2989 7.80444
476 2 16.0351 32.7798 8.58162 67.4459 32.7798 8.58162
477 2 16.1718 30.0118 6.85652 67.5826 30.0118 6.85652
478 1 17.1202 32.2485 6.28031 68.531 32.2485 6.28031
479 2 18.6996 33.6784 7.37166 70.1104 33.6784 7.37166
480 2 19.1065 31.0395 5.51089 70.5173 31.0395 5.51089
481 1 19.9032 31.5631 7.77137 71.314 31.5631 7.77137
482 2 21.4059 33.2088 8.81818 72.8167 33.2088 8.81818
483 2 22.1237 30.4362 7.13812 73.5345 30.4362 7.13812
484 1 22.647 32.8282 6.63089 74.0578 32.8282 6.63089
485 2 24.5685 34.2396 7.64054 75.9793 34.2396 7.64054
486 2 24.665 31.5369 5.86044 76.0758 31.5369 5.86044
487 1 25.4842 33.9035 5.47506 25.4842 33.9035 5.47506
488 2 27.198 35.4662 6.48907 27.198 35.4662 6.48907
489 2 27.5206 32.6561 4.63876 27.5206 32.6561 4.63876
490 1 28.2086 34.9963 4.25401 28.2086 34.9963 4.25401
491 2 29.9999 36.5012 5.12691 29.9999 36.5012 5.12691
492 2 30.1773 33.6785 3.5796 30.1773 33.6785 3.5796
493 1 31.143 34.3045 5.80807 31.143 34.3045 5.80807
494 2 32.926 35.8588 6.67719 32.926 35.8588 6.67719
495 2 33.123 33.074 5.05153 33.123 33.074 5.05153
496 1 33.9645 35.3443 4.50076 33.9645 35.3443 4.50076
497 2 -15.4922 36.6079 5.37559 35.9186 36.6079 5.37559
498 2 -15.6103 33.8203 3.71067 35.8005 33.8203 3.71067
499 1 -14.4502 34.3044 5.94698 36.9605 34.3044 5.94698
500 2 -12.1645 35.0775 6.67042 39.2462 35.0775 6.67042
501 2 -12.9782 32.7721 4.56141 38.4325 32.7721 4.56141
502 1 -11.569 34.8358 4.24703 39.8418 34.8358 4.24703
503 2 -9.29608 35.5711 4.8686 42.1147 35.5711 4.8686
504 2 -10.2254 33.1169 2.88689 41.1853 33.1169 2.88689
505 1 -8.88492 33.0791 5.01655 42.5259 33.0791 5.01655
506 2 -6.62836 33.584 5.91352 44.7824 33.584 5.91352
507 2 -7.49455 31.6678 3.45867 43.9162 31.6678 3.45867
508 1 -5.92291 33.6488 3.47575 45.4879 33.6488 3.47575
509 2 -3.68968 34.3242 4.23543 47.7211 34.3242 4.23543
510 2 -4.5821 32.453 1.78174 46.8287 32.453 1.78174
511 1 -3.26565 31.8458 3.9315 48.1451 31.8458 3.9315
512 2 -0.863375 31.7056 4.68853 50.5474 31.7056 4.68853
513 2 -2.35228 30.7643 1.8713 49.0585 30.7643 1.8713
514 1 -0.376068 32.348 2.28303 51.0347 32.348 2.28303
515 2 1.9969 32.0461 3.28364 53.4077 32.0461 3.28364
516 2 0.901508 31.6263 0.272693 52.3123 31.6263 0.272693
517 1 1.89919 29.8652 1.93144 53.31 29.8652 1.93144
518 2 3.03607 27.6437 2.27318 54.4468 27.6437 2.27318
519 2 3.05375 29.5152 -0.498124 54.4645 29.5152 -0.498124
520 1 5.80678 32.5306 2.67267 57.2176 32.5306 2.67267
521 2 7.07179 34.133 4.14295 58.4826 34.133 4.14295
522 2 8.0352 32.33 1.66801 59.446 32.33 1.66801
523 1 8.53486 32.0117 4.25321 59.9456 32.0117 4.25321
524 2 9.7471 33.8217 5.38118 61.1579 33.8217 5.38118
525 2 10.8951 31.239 3.59148 62.3058 31.239 3.59148
526 1 11.3889 33.8015 3.34137 62.7997 33.8015 3.34137
527 2 13.0624 35.1985 4.51806 64.4732 35.1985 4.51806
528 2 13.5017 32.6687 2.47361 64.9125 32.6687 2.47361
529 1 14.2065 33.1073 4.85538 65.6173 33.1073 4.85538
530 2 16.1415 34.4932 5.78813 67.5523 34.4932 5.78813
531 2 16.1339 31.8333 3.94794 67.5447 31.8333 3.94794
532 1 17.0319 34.1225 3.54584 68.4427 34.1225 3.54584
533 2 18.8253 35.5259 4.52796 70.236 35.5259 4.52796
534 2 19.0009 32.8298 2.77128 70.4116 32.8298 2.77128
535 1 19.8773 33.3541 5.08868 71.2881 33.3541 5.08868
536 2 21.5515 34.8927 5.97961 72.9623 34.8927 5.97961
537 2 21.9544 32.1712 4.33254 73.3652 32.1712 4.33254
538 1 22.6675 34.4115 3.85218 74.0782 34.4115 3.85218
539 2 24.3531 36.0079 4.80774 75.7638 36.0079 4.80774
540 2 24.7644 33.2051 3.20184 76.1752 33.2051 3.20184
541 1 25.5122 35.5756 2.57892 25.5122 35.5756 2.57892
542 2 27.1525 37.1282 3.52417 27.1525 37.1282 3.52417
543 2 27.4742 34.2498 1.84009 27.4742 34.2498 1.84009