ITEM: TIMESTEP
2437000
ITEM: NUMBER OF ATOMS
810
ITEM: BOX BOUNDS xy xz yz pp pp pp
8.0341777045796159e-01 6.4254082153823362e+01 1.2039894924280858e+01
8.0582000660415243e-01 5.0210394993394715e+01 0.0000000000000000e+00
-1.0000000000000000e+01 1.0000000000000000e+01 0.0000000000000000e+00
ITEM: ATOMS id type x y z xu yu zu
1 1 1.41649 0.735111 1.65877 1.41649 0.735111 1.65877
2 2 15.7782 49.2345 2.13842 3.73826 -0.170088 2.13842
3 2 2.48461 1.5182 -0.429021 2.48461 1.5182 -0.429021
4 1 4.51471 2.23129 1.21035 4.51471 2.23129 1.21035
5 2 6.87313 1.60898 1.72194 6.87313 1.60898 1.72194
6 2 5.80245 3.12227 -0.822105 5.80245 3.12227 -0.822105
7 1 6.81703 0.93137 -0.615896 6.81703 0.93137 -0.615896
8 2 21.205 49.8121 -0.00924205 9.16513 0.40757 -0.00924205
9 2 8.0233 1.87054 -2.6578 8.0233 1.87054 -2.6578
10 1 9.94928 2.70235 -1.05157 9.94928 2.70235 -1.05157
11 2 12.447 2.26069 -0.437137 12.447 2.26069 -0.437137
12 2 11.2218 3.45183 -3.25319 11.2218 3.45183 -3.25319
13 1 12.3908 1.21424 -2.89775 12.3908 1.21424 -2.89775
14 2 14.6488 0.954936 -1.71717 14.6488 0.954936 -1.71717
15 2 14.1193 1.52781 -4.76211 14.1193 1.52781 -4.76211
16 1 15.6798 2.8914 -3.01157 15.6798 2.8914 -3.01157
17 2 17.8797 2.63266 -1.66763 17.8797 2.63266 -1.66763
18 2 17.4739 3.24403 -4.80794 17.4739 3.24403 -4.80794
19 1 18.3507 1.06553 -3.64787 18.3507 1.06553 -3.64787
20 2 20.3318 1.17063 -1.79903 20.3318 1.17063 -1.79903
21 2 32.4803 50.1492 -5.12588 20.4404 0.744593 -5.12588
22 1 21.7456 2.63005 -3.56533 21.7456 2.63005 -3.56533
23 2 23.4247 2.79051 -1.63692 23.4247 2.79051 -1.63692
24 2 23.8133 2.25002 -4.87999 23.8133 2.25002 -4.87999
25 1 36.2281 50.1663 -2.87136 24.1882 0.761733 -2.87136
26 2 25.7665 1.47337 -0.866895 25.7665 1.47337 -0.866895
27 2 38.591 49.6998 -3.71719 26.5511 0.295212 -3.71719
28 1 27.5229 2.43601 -2.50122 27.5229 2.43601 -2.50122
29 2 29.0106 3.29532 -0.398657 29.0106 3.29532 -0.398657
30 2 29.8969 1.7389 -3.10357 29.8969 1.7389 -3.10357
31 1 41.863 50.3482 -0.767378 29.8231 0.943648 -0.767378
32 2 31.1688 1.87045 1.19772 31.1688 1.87045 1.19772
33 2 44.1676 49.5942 -1.42066 32.1277 0.189639 -1.42066
34 1 33.0756 2.55958 -0.502517 33.0756 2.55958 -0.502517
35 2 34.2671 3.38473 1.67392 34.2671 3.38473 1.67392
36 2 35.565 1.9334 -1.01175 35.565 1.9334 -1.01175
37 1 35.3472 1.18727 1.33224 35.3472 1.18727 1.33224
38 2 36.8019 1.63561 3.37282 36.8019 1.63561 3.37282
39 2 49.7989 50.169 0.368438 37.759 0.764375 0.368438
40 1 38.4693 2.7684 1.7177 38.4693 2.7684 1.7177
41 2 40.1377 3.24416 3.71412 40.1377 3.24416 3.71412
42 2 40.9248 2.48059 0.716015 40.9248 2.48059 0.716015
43 1 40.9902 1.06356 2.82811 40.9902 1.06356 2.82811
44 2 42.8581 1.11457 4.65045 42.8581 1.11457 4.65045
45 2 43.1269 0.991385 1.50161 43.1269 0.991385 1.50161
46 1 44.3044 2.71769 3.07299 44.3044 2.71769 3.07299
47 2 46.2632 2.63336 4.78496 46.2632 2.63336 4.78496
48 2 46.378 2.7818 1.52581 46.378 2.7818 1.52581
49 1 46.9732 0.83271 3.1001 46.9732 0.83271 3.1001
50 2 61.3352 49.8247 4.25252 49.2953 0.420121 4.25252
51 2 48.7006 1.11237 1.1973 48.7006 1.11237 1.1973
52 1 50.3222 2.34143 2.86167 50.3222 2.34143 2.86167
53 2 1.24875 1.77219 3.9786 52.6595 1.77219 3.9786
54 2 51.9118 3.00931 0.949546 51.9118 3.00931 0.949546
55 1 2.18792 3.98233 2.76155 2.18792 3.98233 2.76155
56 2 4.53917 3.52874 3.65131 4.53917 3.52874 3.65131
57 2 3.7445 4.5442 0.639801 3.7445 4.5442 0.639801
58 1 5.5474 5.63573 2.36822 5.5474 5.63573 2.36822
59 2 7.86681 4.96264 3.13746 7.86681 4.96264 3.13746
60 2 6.96999 6.46336 0.369883 6.96999 6.46336 0.369883
61 1 7.79749 4.0653 0.801034 7.79749 4.0653 0.801034
62 2 10.2673 3.5092 1.35112 10.2673 3.5092 1.35112
63 2 8.8723 4.96634 -1.39344 8.8723 4.96634 -1.39344
64 1 10.9104 5.83984 0.260573 10.9104 5.83984 0.260573
65 2 13.2532 5.2899 0.871849 13.2532 5.2899 0.871849
66 2 12.1398 6.87566 -1.77785 12.1398 6.87566 -1.77785
67 1 13.1326 4.54656 -1.62641 13.1326 4.54656 -1.62641
68 2 15.482 3.97814 -0.71331 15.482 3.97814 -0.71331
69 2 14.785 5.07367 -3.61531 14.785 5.07367 -3.61531
70 1 16.4921 6.13779 -1.91965 16.4921 6.13779 -1.91965
71 2 18.7847 5.82383 -0.932657 18.7847 5.82383 -0.932657
72 2 17.9497 6.52358 -3.9312 17.9497 6.52358 -3.9312
73 1 19.0122 4.36104 -3.08681 19.0122 4.36104 -3.08681
74 2 21.213 4.38489 -1.76141 21.213 4.38489 -1.76141
75 2 20.7548 4.46055 -4.90434 20.7548 4.46055 -4.90434
76 1 22.2377 6.14603 -3.32519 22.2377 6.14603 -3.32519
77 2 24.2133 6.12064 -1.65211 24.2133 6.12064 -1.65211
78 2 24.1795 6.00412 -4.93218 24.1795 6.00412 -4.93218
79 1 24.9534 4.25102 -3.32678 24.9534 4.25102 -3.32678
80 2 26.5177 4.53176 -1.3884 26.5177 4.53176 -1.3884
81 2 27.2316 3.9492 -4.5534 27.2316 3.9492 -4.5534
82 1 28.1733 5.87696 -3.03997 28.1733 5.87696 -3.03997
83 2 29.8808 6.21559 -1.17011 29.8808 6.21559 -1.17011
84 2 30.3629 5.35628 -4.25226 30.3629 5.35628 -4.25226
85 1 30.8662 4.15347 -2.11248 30.8662 4.15347 -2.11248
86 2 32.2869 4.90068 -0.0322747 32.2869 4.90068 -0.0322747
87 2 33.2753 3.47227 -2.84887 33.2753 3.47227 -2.84887
88 1 34.0852 5.73078 -1.73153 34.0852 5.73078 -1.73153
89 2 35.3528 6.70568 0.347301 35.3528 6.70568 0.347301
90 2 36.4858 5.08299 -2.22435 36.4858 5.08299 -2.22435
91 1 36.2083 4.26966 0.103766 36.2083 4.26966 0.103766
92 2 37.4928 5.13598 2.04475 37.4928 5.13598 2.04475
93 2 38.5965 3.72553 -0.564152 38.5965 3.72553 -0.564152
94 1 39.4157 5.93544 0.504007 39.4157 5.93544 0.504007
95 2 40.4852 6.62938 2.66723 40.4852 6.62938 2.66723
96 2 41.8064 5.57909 -0.203769 41.8064 5.57909 -0.203769
97 1 41.7012 4.51715 2.07741 41.7012 4.51715 2.07741
98 2 43.3187 4.80533 4.14911 43.3187 4.80533 4.14911
99 2 43.9437 4.05023 0.98863 43.9437 4.05023 0.98863
100 1 44.8767 6.06697 2.55456 44.8767 6.06697 2.55456
101 2 46.6722 6.36904 4.46054 46.6722 6.36904 4.46054
102 2 47.1035 5.75361 1.35643 47.1035 5.75361 1.35643
103 1 47.623 4.24828 3.29948 47.623 4.24828 3.29948
104 2 49.7732 4.0229 4.75447 49.7732 4.0229 4.75447
105 2 49.4992 4.4103 1.54069 49.4992 4.4103 1.54069
106 1 50.9383 5.85651 3.30822 50.9383 5.85651 3.30822
107 2 53.0101 5.42139 4.66079 53.0101 5.42139 4.66079
108 2 52.8972 6.14836 1.53367 52.8972 6.14836 1.53367
109 1 2.89978 7.36568 3.33771 2.89978 7.36568 3.33771
110 2 5.11056 6.79592 4.45333 5.11056 6.79592 4.45333
111 2 4.74134 7.82229 1.46287 4.74134 7.82229 1.46287
112 1 6.16081 8.97853 3.2152 6.16081 8.97853 3.2152
113 2 8.4231 8.47973 4.2863 8.4231 8.47973 4.2863
114 2 7.88507 9.46781 1.21239 7.88507 9.46781 1.21239
115 1 8.74196 7.27747 2.10288 8.74196 7.27747 2.10288
116 2 11.199 6.67881 2.66111 11.199 6.67881 2.66111
117 2 10.0295 8.07549 -0.101681 10.0295 8.07549 -0.101681
118 1 11.9767 9.06956 1.59577 11.9767 9.06956 1.59577
119 2 14.3319 8.37797 2.15612 14.3319 8.37797 2.15612
120 2 13.3134 10.0412 -0.465233 13.3134 10.0412 -0.465233
121 1 14.1961 7.60483 -0.181113 14.1961 7.60483 -0.181113
122 2 16.5922 6.94842 0.430925 16.5922 6.94842 0.430925
123 2 15.369 8.52863 -2.16504 15.369 8.52863 -2.16504
124 1 17.335 9.25592 -0.503256 17.335 9.25592 -0.503256
125 2 19.7736 8.78684 0.0506022 19.7736 8.78684 0.0506022
126 2 18.4963 9.96847 -2.69467 18.4963 9.96847 -2.69467
127 1 19.6112 7.81495 -2.37451 19.6112 7.81495 -2.37451
128 2 21.8403 7.42252 -1.23271 21.8403 7.42252 -1.23271
129 2 21.3087 8.30709 -4.29573 21.3087 8.30709 -4.29573
130 1 22.9608 9.53564 -2.69048 22.9608 9.53564 -2.69048
131 2 25.1783 9.30635 -1.49208 25.1783 9.30635 -1.49208
132 2 24.7414 9.57467 -4.62391 24.7414 9.57467 -4.62391
133 1 25.6231 7.73695 -3.31928 25.6231 7.73695 -3.31928
134 2 27.5166 7.85281 -1.66104 27.5166 7.85281 -1.66104
135 2 27.7413 7.53384 -4.90534 27.7413 7.53384 -4.90534
136 1 28.9614 9.35646 -3.47406 28.9614 9.35646 -3.47406
137 2 30.9197 9.55758 -1.60913 30.9197 9.55758 -1.60913
138 2 31.0661 9.05715 -4.95017 31.0661 9.05715 -4.95017
139 1 31.5329 7.51656 -3.03448 31.5329 7.51656 -3.03448
140 2 33.0616 7.92567 -0.988735 33.0616 7.92567 -0.988735
141 2 33.9393 6.94958 -3.89188 33.9393 6.94958 -3.89188
142 1 34.827 9.14105 -2.73721 34.827 9.14105 -2.73721
143 2 36.2028 9.64172 -0.663982 36.2028 9.64172 -0.663982
144 2 37.1619 8.55974 -3.55916 37.1619 8.55974 -3.55916
145 1 37.2148 7.41524 -1.31978 37.2148 7.41524 -1.31978
146 2 38.4225 8.18891 0.836943 38.4225 8.18891 0.836943
147 2 39.6528 6.79456 -1.84746 39.6528 6.79456 -1.84746
148 1 40.3153 9.22668 -0.869595 40.3153 9.22668 -0.869595
149 2 41.5489 10.049 1.21694 41.5489 10.049 1.21694
150 2 42.578 8.44401 -1.33241 42.578 8.44401 -1.33241
151 1 42.4779 7.69666 1.08366 42.4779 7.69666 1.08366
152 2 44.084 8.35086 3.21533 44.084 8.35086 3.21533
153 2 44.9655 7.37812 0.251487 44.9655 7.37812 0.251487
154 1 45.8721 9.43209 1.53206 45.8721 9.43209 1.53206
155 2 47.3171 9.99412 3.56708 47.3171 9.99412 3.56708
156 2 48.1279 9.04255 0.606082 48.1279 9.04255 0.606082
157 1 48.2819 7.74059 2.87666 48.2819 7.74059 2.87666
158 2 50.061 7.8154 4.64284 50.061 7.8154 4.64284
159 2 50.3909 7.51183 1.40503 50.3909 7.51183 1.40503
160 1 51.6578 9.30103 3.04796 51.6578 9.30103 3.04796
161 2 53.5089 9.34749 4.82343 53.5089 9.34749 4.82343
162 2 53.6943 9.33482 1.62214 53.6943 9.33482 1.62214
163 1 3.53473 10.9497 3.18917 3.53473 10.9497 3.18917
164 2 5.50569 10.7608 4.86371 5.50569 10.7608 4.86371
165 2 5.60792 10.9264 1.59712 5.60792 10.9264 1.59712
166 1 6.7892 12.4852 3.25438 6.7892 12.4852 3.25438
167 2 8.76971 12.585 4.82447 8.76971 12.585 4.82447
168 2 8.63443 12.5426 1.62712 8.63443 12.5426 1.62712
169 1 9.39071 10.6303 3.06923 9.39071 10.6303 3.06923
170 2 11.8441 10.2208 3.93924 11.8441 10.2208 3.93924
171 2 11.0137 11.2224 0.951416 11.0137 11.2224 0.951416
172 1 12.7201 12.3394 2.65919 12.7201 12.3394 2.65919
173 2 15.0292 11.7604 3.65119 15.0292 11.7604 3.65119
174 2 14.1946 12.9722 0.781079 14.1946 12.9722 0.781079
175 1 15.1387 10.7293 1.28628 15.1387 10.7293 1.28628
176 2 17.59 10.2591 1.79259 17.59 10.2591 1.79259
177 2 16.3306 11.5248 -0.836226 16.3306 11.5248 -0.836226
178 1 18.3125 12.3942 0.649431 18.3125 12.3942 0.649431
179 2 20.6894 11.7259 1.34275 20.6894 11.7259 1.34275
180 2 19.5743 13.3408 -1.3476 19.5743 13.3408 -1.3476
181 1 20.5877 11.0377 -1.10512 20.5877 11.0377 -1.10512
182 2 22.8968 10.5466 -0.45259 22.8968 10.5466 -0.45259
183 2 21.9366 11.7387 -3.2123 21.9366 11.7387 -3.2123
184 1 23.8212 12.7619 -1.60185 23.8212 12.7619 -1.60185
185 2 26.1074 12.3914 -0.801634 26.1074 12.3914 -0.801634
186 2 25.2131 13.3493 -3.72056 25.2131 13.3493 -3.72056
187 1 26.2877 11.0991 -2.9987 26.2877 11.0991 -2.9987
188 2 28.417 10.8378 -1.66908 28.417 10.8378 -1.66908
189 2 28.0694 11.2746 -4.86315 28.0694 11.2746 -4.86315
190 1 29.5308 12.7855 -3.2171 29.5308 12.7855 -3.2171
191 2 31.6772 12.7368 -1.71604 31.6772 12.7368 -1.71604
192 2 31.3961 12.8743 -4.9538 31.3961 12.8743 -4.9538
193 1 32.1684 10.9899 -3.41723 32.1684 10.9899 -3.41723
194 2 34.0145 11.3246 -1.69087 34.0145 11.3246 -1.69087
195 2 34.3788 10.464 -4.87057 34.3788 10.464 -4.87057
196 1 35.5952 12.4948 -3.52831 35.5952 12.4948 -3.52831
197 2 37.1571 12.8521 -1.48991 37.1571 12.8521 -1.48991
198 2 37.857 12.0493 -4.65055 37.857 12.0493 -4.65055
199 1 38.0076 10.7943 -2.41747 38.0076 10.7943 -2.41747
200 2 39.4743 11.4422 -0.322326 39.4743 11.4422 -0.322326
201 2 40.4198 10.1691 -3.19386 40.4198 10.1691 -3.19386
202 1 41.2736 12.3474 -2.03589 41.2736 12.3474 -2.03589
203 2 42.5719 13.1822 -0.0503117 42.5719 13.1822 -0.0503117
204 2 43.5819 11.587 -2.707 43.5819 11.587 -2.707
205 1 43.522 10.8548 -0.288846 43.522 10.8548 -0.288846
206 2 44.7793 11.74 1.75037 44.7793 11.74 1.75037
207 2 45.8176 10.1772 -0.819566 45.8176 10.1772 -0.819566
208 1 46.6587 12.503 0.0990146 46.6587 12.503 0.0990146
209 2 48.0546 13.4825 2.17923 48.0546 13.4825 2.17923
210 2 49.0503 11.9881 -0.581723 49.0503 11.9881 -0.581723
211 1 49.0349 11.1438 1.84693 49.0349 11.1438 1.84693
212 2 50.6829 11.5201 3.78774 50.6829 11.5201 3.78774
213 2 51.3241 10.6318 0.871816 51.3241 10.6318 0.871816
214 1 52.3649 12.6571 2.17081 52.3649 12.6571 2.17081
215 2 54.0535 13.1479 4.06625 54.0535 13.1479 4.06625
216 2 54.6105 12.3419 0.985203 54.6105 12.3419 0.985203
217 1 55.6979 14.3229 2.40091 4.28709 14.3229 2.40091
218 2 5.93801 14.6475 4.25009 5.93801 14.6475 4.25009
219 2 6.40901 14.0626 1.12446 6.40901 14.0626 1.12446
220 1 7.44595 15.8198 2.59236 7.44595 15.8198 2.59236
221 2 9.04829 16.0046 4.53874 9.04829 16.0046 4.53874
222 2 9.72269 15.9091 1.36076 9.72269 15.9091 1.36076
223 1 9.99225 14.0946 3.20549 9.99225 14.0946 3.20549
224 2 12.2009 13.8226 4.60181 12.2009 13.8226 4.60181
225 2 11.9736 14.3365 1.45924 11.9736 14.3365 1.45924
226 1 13.359 15.6899 3.18643 13.359 15.6899 3.18643
227 2 15.594 15.388 4.35469 15.594 15.388 4.35469
228 2 15.1531 16.0459 1.30162 15.1531 16.0459 1.30162
229 1 15.9858 13.9323 2.41554 15.9858 13.9323 2.41554
230 2 18.4093 13.3977 2.9648 18.4093 13.3977 2.9648
231 2 17.263 14.6942 0.255077 17.263 14.6942 0.255077
232 1 19.1117 15.6701 1.83467 19.1117 15.6701 1.83467
233 2 21.4091 14.9518 2.71104 21.4091 14.9518 2.71104
234 2 20.551 16.4983 -0.150216 20.551 16.4983 -0.150216
235 1 21.5372 14.0176 0.331658 21.5372 14.0176 0.331658
236 2 23.8875 13.4438 0.864501 23.8875 13.4438 0.864501
237 2 22.7555 14.9932 -1.69259 22.7555 14.9932 -1.69259
238 1 24.7606 15.7998 -0.107463 24.7606 15.7998 -0.107463
239 2 27.1755 15.24 0.393709 27.1755 15.24 0.393709
240 2 25.8038 16.6327 -2.32839 25.8038 16.6327 -2.32839
241 1 26.9408 14.3874 -2.08293 26.9408 14.3874 -2.08293
242 2 29.214 14.0661 -1.16278 29.214 14.0661 -1.16278
243 2 28.4269 14.7658 -4.20238 28.4269 14.7658 -4.20238
244 1 30.1535 16.2372 -2.60495 30.1535 16.2372 -2.60495
245 2 32.5052 15.9287 -1.50547 32.5052 15.9287 -1.50547
246 2 31.7856 16.5413 -4.6116 31.7856 16.5413 -4.6116
247 1 32.7979 14.4067 -3.46209 32.7979 14.4067 -3.46209
248 2 34.7758 14.3281 -1.95608 34.7758 14.3281 -1.95608
249 2 34.8779 14.3135 -5.17433 34.8779 14.3135 -5.17433
250 1 36.1566 15.9043 -3.49878 36.1566 15.9043 -3.49878
251 2 38.095 16.0432 -1.8202 38.095 16.0432 -1.8202
252 2 38.1828 15.7219 -5.07489 38.1828 15.7219 -5.07489
253 1 38.7565 14.0552 -3.24699 38.7565 14.0552 -3.24699
254 2 40.3856 14.5192 -1.20399 40.3856 14.5192 -1.20399
255 2 41.1589 13.5584 -4.22681 41.1589 13.5584 -4.22681
256 1 42.0385 15.5959 -2.94776 42.0385 15.5959 -2.94776
257 2 43.604 16.2305 -0.915707 43.604 16.2305 -0.915707
258 2 44.4494 15.2174 -3.93859 44.4494 15.2174 -3.93859
259 1 44.4218 13.9938 -1.78412 44.4218 13.9938 -1.78412
260 2 45.6858 14.6929 0.489307 45.6858 14.6929 0.489307
261 2 46.8212 13.2903 -2.28758 46.8212 13.2903 -2.28758
262 1 47.6936 15.6099 -1.14712 47.6936 15.6099 -1.14712
263 2 49.0132 16.4807 0.93391 49.0132 16.4807 0.93391
264 2 50.0794 15.1293 -1.80561 50.0794 15.1293 -1.80561
265 1 49.9482 14.2075 0.469463 49.9482 14.2075 0.469463
266 2 51.3951 14.9586 2.60818 51.3951 14.9586 2.60818
267 2 52.4233 13.718 -0.240436 52.4233 13.718 -0.240436
268 1 53.2421 15.9445 0.949641 53.2421 15.9445 0.949641
269 2 54.4881 16.5659 2.97469 54.4881 16.5659 2.97469
270 2 55.5737 15.4395 0.0670108 55.5737 15.4395 0.0670108
271 1 4.93971 17.5549 1.33361 4.93971 17.5549 1.33361
272 2 6.4044 18.0331 3.36475 6.4044 18.0331 3.36475
273 2 7.32739 17.1888 0.392984 7.32739 17.1888 0.392984
274 1 8.27225 19.2213 1.91183 8.27225 19.2213 1.91183
275 2 9.69741 19.7048 3.92853 9.69741 19.7048 3.92853
276 2 10.6151 19.0771 0.918206 10.6151 19.0771 0.918206
277 1 10.7624 17.6219 2.99611 10.7624 17.6219 2.99611
278 2 12.6097 17.537 4.63295 12.6097 17.537 4.63295
279 2 12.8352 17.4203 1.57132 12.8352 17.4203 1.57132
280 1 14.0492 19.1725 3.16518 14.0492 19.1725 3.16518
281 2 16.0201 18.9647 4.81985 16.0201 18.9647 4.81985
282 2 16.0652 19.3742 1.5738 16.0652 19.3742 1.5738
283 1 16.6999 17.3634 2.98362 16.6999 17.3634 2.98362
284 2 18.9277 16.8373 4.08757 18.9277 16.8373 4.08757
285 2 18.3489 17.9071 1.10551 18.3489 17.9071 1.10551
286 1 20.0234 18.9451 3.02499 20.0234 18.9451 3.02499
287 2 22.3111 18.3682 3.73913 22.3111 18.3682 3.73913
288 2 21.4761 19.3133 0.970951 21.4761 19.3133 0.970951
289 1 22.3568 17.1588 1.54436 22.3568 17.1588 1.54436
290 2 24.7417 16.6304 2.34753 24.7417 16.6304 2.34753
291 2 23.6837 18.0446 -0.452904 23.6837 18.0446 -0.452904
292 1 25.6945 18.9246 1.29619 25.6945 18.9246 1.29619
293 2 28.1203 18.1591 1.62496 28.1203 18.1591 1.62496
294 2 26.9971 19.8709 -0.817767 26.9971 19.8709 -0.817767
295 1 27.8226 17.5843 -0.80017 27.8226 17.5843 -0.80017
296 2 30.2554 17.0239 -0.305712 30.2554 17.0239 -0.305712
297 2 29.0657 18.523 -2.80055 29.0657 18.523 -2.80055
298 1 31.2197 19.3239 -1.19223 31.2197 19.3239 -1.19223
299 2 33.5667 18.9304 -0.45414 33.5667 18.9304 -0.45414
300 2 32.4781 20.1433 -3.30627 32.4781 20.1433 -3.30627
301 1 33.5439 17.8719 -2.89683 33.5439 17.8719 -2.89683
302 2 35.7723 17.5041 -1.6183 35.7723 17.5041 -1.6183
303 2 35.4064 18.0092 -4.68095 35.4064 18.0092 -4.68095
304 1 36.9164 19.3882 -3.0052 36.9164 19.3882 -3.0052
305 2 39.0296 19.0929 -1.67482 39.0296 19.0929 -1.67482
306 2 38.6491 19.4287 -4.90137 38.6491 19.4287 -4.90137
307 1 39.535 17.506 -3.48891 39.535 17.506 -3.48891
308 2 41.3709 17.7268 -1.65162 41.3709 17.7268 -1.65162
309 2 41.6248 17.1839 -4.92251 41.6248 17.1839 -4.92251
310 1 42.7723 19.0709 -3.41041 42.7723 19.0709 -3.41041
311 2 44.6629 19.3212 -1.52433 44.6629 19.3212 -1.52433
312 2 44.8523 18.8012 -4.66977 44.8523 18.8012 -4.66977
313 1 45.3502 17.2352 -2.65824 45.3502 17.2352 -2.65824
314 2 46.8643 17.793 -0.538348 46.8643 17.793 -0.538348
315 2 47.7411 16.6748 -3.46229 47.7411 16.6748 -3.46229
316 1 48.5856 18.8397 -2.30601 48.5856 18.8397 -2.30601
317 2 49.8877 19.6046 -0.214266 49.8877 19.6046 -0.214266
318 2 50.9385 18.4428 -3.03213 50.9385 18.4428 -3.03213
319 1 50.9677 17.4555 -0.698171 50.9677 17.4555 -0.698171
320 2 52.3902 18.3522 1.32291 52.3902 18.3522 1.32291
321 2 53.2805 16.731 -1.45594 53.2805 16.731 -1.45594
322 1 54.2488 19.0159 -0.411547 54.2488 19.0159 -0.411547
323 2 55.3998 19.7962 1.70434 55.3998 19.7962 1.70434
324 2 56.6493 18.3864 -1.08494 56.6493 18.3864 -1.08494
325 1 5.92608 20.6929 0.105708 5.92608 20.6929 0.105708
326 2 7.17014 21.4691 2.14618 7.17014 21.4691 2.14618
327 2 8.2699 20.0681 -0.57808 8.2699 20.0681 -0.57808
328 1 9.11308 22.3718 0.553256 9.11308 22.3718 0.553256
329 2 10.3556 23.2442 2.59917 10.3556 23.2442 2.59917
330 2 11.5705 21.8978 -0.0971196 11.5705 21.8978 -0.0971196
331 1 11.4548 21.0526 2.42678 11.4548 21.0526 2.42678
332 2 13.1567 21.1324 4.36764 13.1567 21.1324 4.36764
333 2 13.6963 20.7388 1.14904 13.6963 20.7388 1.14904
334 1 14.7243 22.547 2.64979 14.7243 22.547 2.64979
335 2 16.4536 22.8457 4.51336 16.4536 22.8457 4.51336
336 2 16.9586 22.3017 1.38741 16.9586 22.3017 1.38741
337 1 17.3898 20.7495 3.35191 17.3898 20.7495 3.35191
338 2 19.4528 20.5929 4.83809 19.4528 20.5929 4.83809
339 2 19.2914 20.8134 1.54943 19.2914 20.8134 1.54943
340 1 20.64 22.3589 3.25379 20.64 22.3589 3.25379
341 2 22.9188 21.9183 4.46843 22.9188 21.9183 4.46843
342 2 22.4963 22.8659 1.45064 22.4963 22.8659 1.45064
343 1 23.26 20.5178 2.44669 23.26 20.5178 2.44669
344 2 25.5425 20.0152 3.43886 25.5425 20.0152 3.43886
345 2 24.8167 21.2256 0.545213 24.8167 21.2256 0.545213
346 1 26.513 22.1946 2.26168 26.513 22.1946 2.26168
347 2 28.8573 21.6029 3.1441 28.8573 21.6029 3.1441
348 2 28.0847 22.9711 0.404782 28.0847 22.9711 0.404782
349 1 28.9719 20.5528 0.800276 28.9719 20.5528 0.800276
350 2 31.4422 20.0492 1.28627 31.4422 20.0492 1.28627
351 2 30.0272 21.4517 -1.36613 30.0272 21.4517 -1.36613
352 1 32.0291 22.3568 0.185556 32.0291 22.3568 0.185556
353 2 34.4958 21.7441 0.741679 34.4958 21.7441 0.741679
354 2 33.3066 23.268 -1.7731 33.3066 23.268 -1.7731
355 1 34.4084 20.9967 -1.67543 34.4084 20.9967 -1.67543
356 2 36.7027 20.384 -0.671466 36.7027 20.384 -0.671466
357 2 36.0337 21.5453 -3.68983 36.0337 21.5453 -3.68983
358 1 37.6701 22.5818 -1.92685 37.6701 22.5818 -1.92685
359 2 39.9468 22.1789 -0.909238 39.9468 22.1789 -0.909238
360 2 39.1886 23.1936 -3.90896 39.1886 23.1936 -3.90896
361 1 40.1308 20.9946 -3.21303 40.1308 20.9946 -3.21303
362 2 42.1846 20.595 -1.61828 42.1846 20.595 -1.61828
363 2 42.1269 21.0382 -4.86825 42.1269 21.0382 -4.86825
364 1 43.456 22.4932 -3.1319 43.456 22.4932 -3.1319
365 2 45.4757 22.5973 -1.66521 45.4757 22.5973 -1.66521
366 2 45.3766 22.3182 -4.8862 45.3766 22.3182 -4.8862
367 1 46.1066 20.6951 -3.12495 46.1066 20.6951 -3.12495
368 2 47.8129 21.1396 -1.28773 47.8129 21.1396 -1.28773
369 2 48.2906 20.3646 -4.42708 48.2906 20.3646 -4.42708
370 1 49.3518 22.3216 -3.0053 49.3518 22.3216 -3.0053
371 2 50.9943 22.8518 -0.9929 50.9943 22.8518 -0.9929
372 2 51.6182 21.7782 -3.99563 51.6182 21.7782 -3.99563
373 1 51.7669 20.7098 -1.75734 51.7669 20.7098 -1.75734
374 2 53.3996 21.4209 0.210016 53.3996 21.4209 0.210016
375 2 54.1568 20.0169 -2.67823 54.1568 20.0169 -2.67823
376 1 55.0936 22.221 -1.62414 55.0936 22.221 -1.62414
377 2 56.3404 22.9835 0.402451 56.3404 22.9835 0.402451
378 2 6.03693 21.481 -2.23973 57.4477 21.481 -2.23973
379 1 6.89182 23.8305 -1.22923 6.89182 23.8305 -1.22923
380 2 8.22637 24.7046 0.758716 8.22637 24.7046 0.758716
381 2 9.23054 23.1591 -1.94406 9.23054 23.1591 -1.94406
382 1 10.1458 25.4465 -0.912703 10.1458 25.4465 -0.912703
383 2 11.26 26.3678 1.20764 11.26 26.3678 1.20764
384 2 12.5674 25.0324 -1.39913 12.5674 25.0324 -1.39913
385 1 12.3597 24.1507 0.997592 12.3597 24.1507 0.997592
386 2 13.6817 24.8406 3.04588 13.6817 24.8406 3.04588
387 2 14.6932 23.5024 0.347984 14.6932 23.5024 0.347984
388 1 15.524 25.7174 1.43529 15.524 25.7174 1.43529
389 2 16.9105 26.4405 3.387 16.9105 26.4405 3.387
390 2 17.9643 25.3757 0.541927 17.9643 25.3757 0.541927
391 1 18.028 24.2604 2.89186 18.028 24.2604 2.89186
392 2 20.0495 24.2058 4.66668 20.0495 24.2058 4.66668
393 2 20.1856 24.0981 1.45279 20.1856 24.0981 1.45279
394 1 21.3471 25.8611 2.98928 21.3471 25.8611 2.98928
395 2 23.2447 25.8213 4.70857 23.2447 25.8213 4.70857
396 2 23.4506 25.9076 1.48794 23.4506 25.9076 1.48794
397 1 24.0593 24.0706 3.17558 24.0593 24.0706 3.17558
398 2 26.2698 23.5058 4.361 26.2698 23.5058 4.361
399 2 25.6304 24.4026 1.2708 25.6304 24.4026 1.2708
400 1 27.3173 25.585 2.99797 27.3173 25.585 2.99797
401 2 29.5281 25.1279 4.16753 29.5281 25.1279 4.16753
402 2 29.0021 26.056 1.06587 29.0021 26.056 1.06587
403 1 29.895 23.8685 2.02563 29.895 23.8685 2.02563
404 2 32.2064 23.0554 2.56477 32.2064 23.0554 2.56477
405 2 31.2226 24.6942 -0.00845226 31.2226 24.6942 -0.00845226
406 1 33.0915 25.47 1.70127 33.0915 25.47 1.70127
407 2 35.5882 24.8309 2.22453 35.5882 24.8309 2.22453
408 2 34.1814 26.2393 -0.405856 34.1814 26.2393 -0.405856
409 1 35.3888 24.0746 -0.233771 35.3888 24.0746 -0.233771
410 2 37.7683 23.5988 0.451892 37.7683 23.5988 0.451892
411 2 36.6139 24.8842 -2.29417 36.6139 24.8842 -2.29417
412 1 38.4952 25.703 -0.764423 38.4952 25.703 -0.764423
413 2 40.7801 25.1921 0.115579 40.7801 25.1921 0.115579
414 2 40.0009 26.526 -2.70443 40.0009 26.526 -2.70443
415 1 40.9422 24.2751 -2.21004 40.9422 24.2751 -2.21004
416 2 43.1358 23.8519 -0.978762 43.1358 23.8519 -0.978762
417 2 42.4478 24.4729 -4.15339 42.4478 24.4729 -4.15339
418 1 44.1185 25.8965 -2.44209 44.1185 25.8965 -2.44209
419 2 46.4021 25.8018 -1.24227 46.4021 25.8018 -1.24227
420 2 45.634 26.1179 -4.46695 45.634 26.1179 -4.46695
421 1 46.6734 24.1978 -3.30873 46.6734 24.1978 -3.30873
422 2 48.6768 24.3094 -1.63407 48.6768 24.3094 -1.63407
423 2 48.7596 23.9853 -4.84042 48.7596 23.9853 -4.84042
424 1 49.9736 25.6733 -3.37233 49.9736 25.6733 -3.37233
425 2 51.8826 25.8886 -1.54785 51.8826 25.8886 -1.54785
426 2 52.2087 25.3989 -4.69836 52.2087 25.3989 -4.69836
427 1 52.5213 23.887 -2.7095 52.5213 23.887 -2.7095
428 2 54.2949 24.5681 -0.849099 54.2949 24.5681 -0.849099
429 2 54.8272 23.3432 -3.78095 54.8272 23.3432 -3.78095
430 1 56.0118 25.5402 -2.68405 56.0118 25.5402 -2.68405
431 2 57.4581 26.1902 -0.675441 57.4581 26.1902 -0.675441
432 2 6.85913 24.8378 -3.57559 58.2699 24.8378 -3.57559
433 1 7.74815 27.0801 -2.41568 7.74815 27.0801 -2.41568
434 2 9.37852 27.792 -0.426473 9.37852 27.792 -0.426473
435 2 10.0336 26.3421 -3.3019 10.0336 26.3421 -3.3019
436 1 11.1137 28.6613 -2.19984 11.1137 28.6613 -2.19984
437 2 12.3973 29.6697 -0.24019 12.3973 29.6697 -0.24019
438 2 13.6579 28.0068 -2.68574 13.6579 28.0068 -2.68574
439 1 13.3263 27.3156 -0.29653 13.3263 27.3156 -0.29653
440 2 14.6614 28.0917 1.76009 14.6614 28.0917 1.76009
441 2 15.7519 26.5447 -0.913974 15.7519 26.5447 -0.913974
442 1 16.5844 28.9552 -0.00763292 16.5844 28.9552 -0.00763292
443 2 17.8713 29.8191 1.92516 17.8713 29.8191 1.92516
444 2 18.9386 28.2067 -0.662838 18.9386 28.2067 -0.662838
445 1 18.7882 27.5565 1.81152 18.7882 27.5565 1.81152
446 2 20.3865 28.1502 3.81054 20.3865 28.1502 3.81054
447 2 21.1512 27.1551 0.759003 21.1512 27.1551 0.759003
448 1 22.032 29.3023 2.18538 22.032 29.3023 2.18538
449 2 23.587 29.8337 4.12619 23.587 29.8337 4.12619
450 2 24.2807 28.9191 1.0682 24.2807 28.9191 1.0682
451 1 24.614 27.5983 3.15976 24.614 27.5983 3.15976
452 2 26.7414 27.4323 4.74569 26.7414 27.4323 4.74569
453 2 26.7254 27.6203 1.52047 26.7254 27.6203 1.52047
454 1 27.9465 29.232 3.1417 27.9465 29.232 3.1417
455 2 30.0795 29.1635 4.58747 30.0795 29.1635 4.58747
456 2 29.8726 29.2487 1.34798 29.8726 29.2487 1.34798
457 1 30.5018 27.2214 2.89712 30.5018 27.2214 2.89712
458 2 32.8588 26.7316 3.86987 32.8588 26.7316 3.86987
459 2 32.1779 27.5705 0.821116 32.1779 27.5705 0.821116
460 1 33.7534 28.8848 2.43725 33.7534 28.8848 2.43725
461 2 35.9535 28.3561 3.501 35.9535 28.3561 3.501
462 2 35.3183 29.5269 0.407819 35.3183 29.5269 0.407819
463 1 36.2359 27.1544 1.07071 36.2359 27.1544 1.07071
464 2 38.6834 26.5817 1.67488 38.6834 26.5817 1.67488
465 2 37.4058 28.0193 -1.11419 37.4058 28.0193 -1.11419
466 1 39.4601 28.9316 0.613637 39.4601 28.9316 0.613637
467 2 41.7394 28.192 1.32962 41.7394 28.192 1.32962
468 2 40.8407 29.7821 -1.28527 40.8407 29.7821 -1.28527
469 1 41.7522 27.459 -1.02842 41.7522 27.459 -1.02842
470 2 44.0984 27.0365 -0.0495866 44.0984 27.0365 -0.0495866
471 2 43.217 28.0398 -3.05276 43.217 28.0398 -3.05276
472 1 44.8835 29.1218 -1.36095 44.8835 29.1218 -1.36095
473 2 47.2494 28.65 -0.624993 47.2494 28.65 -0.624993
474 2 46.1943 29.7769 -3.44456 46.1943 29.7769 -3.44456
475 1 47.3461 27.5986 -2.83634 47.3461 27.5986 -2.83634
476 2 49.5059 27.4031 -1.45613 49.5059 27.4031 -1.45613
477 2 49.2943 27.7681 -4.65598 49.2943 27.7681 -4.65598
478 1 50.6882 29.2016 -3.01319 50.6882 29.2016 -3.01319
479 2 52.6975 28.9819 -1.51527 52.6975 28.9819 -1.51527
480 2 52.497 29.1692 -4.76466 52.497 29.1692 -4.76466
481 1 53.3752 27.3015 -3.29596 53.3752 27.3015 -3.29596
482 2 55.2633 27.5831 -1.58527 55.2633 27.5831 -1.58527
483 2 55.5371 26.8882 -4.75639 55.5371 26.8882 -4.75639
484 1 56.7074 28.8254 -3.45889 56.7074 28.8254 -3.45889
485 2 58.5291 29.3466 -1.53797 58.5291 29.3466 -1.53797
486 2 7.5354 28.2696 -4.5611 58.9462 28.2696 -4.5611
487 1 8.60531 30.3884 -3.37259 8.60531 30.3884 -3.37259
488 2 10.133 30.8283 -1.40692 10.133 30.8283 -1.40692
489 2 11.0212 29.9297 -4.39272 11.0212 29.9297 -4.39272
490 1 11.9524 32.01 -3.00443 11.9524 32.01 -3.00443
491 2 13.6367 32.6618 -1.10219 13.6367 32.6618 -1.10219
492 2 14.0768 31.34 -4.05744 14.0768 31.34 -4.05744
493 1 14.4081 30.4374 -1.74085 14.4081 30.4374 -1.74085
494 2 15.6569 31.2787 0.364638 15.6569 31.2787 0.364638
495 2 16.7528 29.7837 -2.38629 16.7528 29.7837 -2.38629
496 1 17.5591 32.1475 -1.34236 17.5591 32.1475 -1.34236
497 2 18.934 32.965 0.653856 18.934 32.965 0.653856
498 2 19.8605 31.5852 -2.06677 19.8605 31.5852 -2.06677
499 1 19.785 30.5983 0.320529 19.785 30.5983 0.320529
500 2 20.8997 31.6182 2.44529 20.8997 31.6182 2.44529
501 2 22.2647 30.2007 -0.269957 22.2647 30.2007 -0.269957
502 1 22.8697 32.4969 0.970472 22.8697 32.4969 0.970472
503 2 24.3351 33.3391 2.9204 24.3351 33.3391 2.9204
504 2 25.1521 31.9616 0.107591 25.1521 31.9616 0.107591
505 1 25.325 31.0282 2.45383 25.325 31.0282 2.45383
506 2 26.9658 31.2212 4.32522 26.9658 31.2212 4.32522
507 2 27.5974 30.8072 1.18052 27.5974 30.8072 1.18052
508 1 28.5503 32.7958 2.70284 28.5503 32.7958 2.70284
509 2 30.3968 32.8606 4.52184 30.3968 32.8606 4.52184
510 2 30.7466 32.6436 1.19587 30.7466 32.6436 1.19587
511 1 31.22 30.8869 3.05408 31.22 30.8869 3.05408
512 2 33.2371 30.4589 4.51428 33.2371 30.4589 4.51428
513 2 32.9632 30.8942 1.24519 32.9632 30.8942 1.24519
514 1 34.5228 32.3646 2.9384 34.5228 32.3646 2.9384
515 2 36.6481 31.9605 4.3047 36.6481 31.9605 4.3047
516 2 36.3028 32.7859 1.28506 36.3028 32.7859 1.28506
517 1 37.0553 30.4716 2.21681 37.0553 30.4716 2.21681
518 2 39.3261 29.7782 2.99357 39.3261 29.7782 2.99357
519 2 38.5349 31.2376 0.172179 38.5349 31.2376 0.172179
520 1 40.2785 32.0663 2.03799 40.2785 32.0663 2.03799
521 2 42.7096 31.532 2.80454 42.7096 31.532 2.80454
522 2 41.8466 32.7843 -0.0722259 41.8466 32.7843 -0.0722259
523 1 42.6985 30.4765 0.475729 42.6985 30.4765 0.475729
524 2 45.1062 30.0047 0.97781 45.1062 30.0047 0.97781
525 2 43.7618 31.404 -1.6052 43.7618 31.404 -1.6052
526 1 45.7754 32.2941 -0.0946287 45.7754 32.2941 -0.0946287
527 2 48.2377 31.7738 0.543223 48.2377 31.7738 0.543223
528 2 47.1407 33.0845 -2.15432 47.1407 33.0845 -2.15432
529 1 48.1623 30.9131 -1.86771 48.1623 30.9131 -1.86771
530 2 50.6069 30.5286 -0.874798 50.6069 30.5286 -0.874798
531 2 49.5836 31.2955 -3.95808 49.5836 31.2955 -3.95808
532 1 51.3047 32.5282 -2.27667 51.3047 32.5282 -2.27667
533 2 53.6385 32.0472 -1.12114 53.6385 32.0472 -1.12114
534 2 52.9865 32.8624 -4.16104 52.9865 32.8624 -4.16104
535 1 53.9781 30.6394 -3.19113 53.9781 30.6394 -3.19113
536 2 56.094 30.6037 -1.75727 56.094 30.6037 -1.75727
537 2 55.7585 30.6755 -4.9377 55.7585 30.6755 -4.9377
538 1 57.1473 32.2606 -3.41162 57.1473 32.2606 -3.41162
539 2 59.241 32.2963 -1.89543 59.241 32.2963 -1.89543
540 2 59.2479 32.0835 -5.05738 59.2479 32.0835 -5.05738
541 1 9.1271 33.7906 -3.64196 9.1271 33.7906 -3.64196